/*--------------------------------*- C++ -*----------------------------------*\
| =========                 |                                                 |
| \\      /  F ield         | OpenFOAM: The Open Source CFD Toolbox           |
|  \\    /   O peration     | Version:  5.0                                   |
|   \\  /    A nd           | Web:      www.OpenFOAM.org                      |
|    \\/     M anipulation  |                                                 |
\*---------------------------------------------------------------------------*/
FoamFile
{
    version     2.0;
    format      ascii;
    class       volScalarField;
    location    "0.55";
    object      alpha.water;
}
// * * * * * * * * * * * * * * * * * * * * * * * * * * * * * * * * * * * * * //

dimensions      [0 0 0 0 0 0 0];

internalField   nonuniform List<scalar> 
1915
(
-5.26809e-17
-4.78764e-17
-3.93527e-17
-2.95257e-17
-2.04375e-17
-1.32005e-17
-8.04578e-18
-4.67555e-18
-2.61476e-18
-1.41889e-18
-7.51727e-19
-3.88224e-19
-1.87185e-19
-3.95648e-20
1.99126e-19
1.4587e-18
7.61386e-18
3.79833e-17
1.95612e-16
1.04438e-15
5.44443e-15
2.59141e-14
1.07749e-13
3.9064e-13
1.24411e-12
-1.25846e-24
-5.9787e-24
-2.83884e-23
-1.12294e-22
-4.12747e-22
-1.40436e-21
-4.18687e-21
-1.07073e-20
-2.40522e-20
-5.02879e-20
-1.05061e-19
-2.29011e-19
-5.12799e-19
-1.10888e-18
-2.19296e-18
-3.8677e-18
-6.03624e-18
-8.31511e-18
-1.01122e-17
-1.08753e-17
-1.03704e-17
-8.80467e-18
-6.69818e-18
-4.60657e-18
-2.89578e-18
-1.68475e-18
-9.18832e-19
-4.75373e-19
-2.35836e-19
-1.13134e-19
-5.26198e-20
-2.25748e-20
-2.12771e-21
3.94224e-20
2.79535e-19
1.59427e-18
8.57655e-18
4.58391e-17
2.57372e-16
1.51807e-15
8.72623e-15
4.50757e-14
1.99294e-13
7.51729e-13
2.45757e-12
-2.79146e-25
-1.31176e-24
-6.21551e-24
-2.51247e-23
-9.4436e-23
-3.21665e-22
-9.42456e-22
-2.35139e-21
-5.16234e-21
-1.06487e-20
-2.22671e-20
-4.89693e-20
-1.10593e-19
-2.38691e-19
-4.64995e-19
-7.99769e-19
-1.20883e-18
-1.60222e-18
-1.86266e-18
-1.90199e-18
-1.70879e-18
-1.35465e-18
-9.52478e-19
-5.98831e-19
-3.40489e-19
-1.77488e-19
-8.60578e-20
-3.93516e-20
-1.71766e-20
-7.19998e-21
-2.76172e-21
-8.44742e-23
6.04018e-21
4.28697e-20
2.70552e-19
1.65572e-18
9.69167e-18
5.61701e-17
3.4235e-16
2.20787e-15
1.38686e-14
7.72385e-14
3.62384e-13
1.41559e-12
4.72464e-12
-5.22658e-26
-2.42883e-25
-1.15432e-24
-4.7759e-24
-1.82633e-23
-6.18874e-23
-1.77421e-22
-4.29934e-22
-9.15976e-22
-1.84516e-21
-3.81362e-21
-8.36035e-21
-1.90091e-20
-4.10837e-20
-7.9145e-20
-1.33108e-19
-1.95411e-19
-2.49739e-19
-2.77919e-19
-2.69755e-19
-2.28561e-19
-1.69277e-19
-1.0997e-19
-6.31071e-20
-3.2352e-20
-1.5037e-20
-6.44291e-21
-2.585e-21
-9.81725e-22
-3.38465e-22
2.43219e-41
7.33484e-22
5.5129e-21
4.04682e-20
2.8537e-19
1.89123e-18
1.1867e-17
7.26463e-17
4.65568e-16
3.20907e-15
2.17164e-14
1.29378e-13
6.39138e-13
2.56926e-12
8.70332e-12
-7.92202e-27
-3.64365e-26
-1.7446e-25
-7.38679e-25
-2.8576e-24
-9.57863e-24
-2.67346e-23
-6.24377e-23
-1.27267e-22
-2.44891e-22
-4.86914e-22
-1.03865e-21
-2.38959e-21
-5.24927e-21
-1.0131e-20
-1.6788e-20
-2.41147e-20
-2.98587e-20
-3.18857e-20
-2.94704e-20
-2.35849e-20
-1.63368e-20
-9.80914e-21
-5.13189e-21
-2.36469e-21
-9.75293e-22
-3.66756e-22
-1.27776e-22
-3.99686e-23
2.43219e-41
7.39728e-23
6.16619e-22
5.09147e-21
4.01829e-20
2.99262e-19
2.1265e-18
1.41462e-17
9.12225e-17
6.05821e-16
4.40045e-15
3.19064e-14
2.0307e-13
1.04737e-12
4.32242e-12
1.48075e-11
-9.11164e-28
-4.15262e-27
-2.00986e-26
-8.69329e-26
-3.38238e-25
-1.11516e-24
-3.00881e-24
-6.67702e-24
-1.26442e-23
-2.20701e-23
-3.9199e-23
-7.49601e-23
-1.79877e-22
-4.2516e-22
-8.59518e-22
-1.43227e-21
-2.05327e-21
-2.49279e-21
-2.56501e-21
-2.26131e-21
-1.71101e-21
-1.10915e-21
-6.15328e-22
-2.92909e-22
-1.20799e-22
-4.39158e-23
-1.43498e-23
-4.1245e-24
-6.08046e-42
6.29584e-24
5.79747e-23
5.28005e-22
4.55235e-21
3.76855e-20
3.00493e-19
2.23989e-18
1.5414e-17
1.03586e-16
7.1475e-16
5.4305e-15
4.22825e-14
2.87382e-13
1.54551e-12
6.54681e-12
2.26365e-11
-7.06937e-29
-3.19602e-28
-1.56695e-27
-6.90296e-27
-2.68544e-26
-8.65224e-26
-2.23104e-25
-4.57748e-25
-7.52525e-25
-1.01352e-24
-1.06933e-24
-2.44533e-25
-2.07996e-24
-1.14517e-23
-3.36305e-23
-6.14588e-23
-9.51915e-23
-1.18722e-22
-1.18934e-22
-1.00035e-22
-7.1358e-23
-4.311e-23
-2.19826e-23
-9.45408e-24
-3.45643e-24
-1.09251e-24
-2.93527e-25
4.55089e-27
4.62993e-25
4.39902e-24
4.38925e-23
4.10788e-22
3.68014e-21
3.16701e-20
2.61756e-19
2.07089e-18
1.55784e-17
1.07265e-16
7.61304e-16
5.97253e-15
5.01117e-14
3.61139e-13
2.04061e-12
8.85475e-12
3.08657e-11
-2.77509e-30
-1.2459e-29
-6.19307e-29
-2.76815e-28
-1.07009e-27
-3.33989e-27
-8.06792e-27
-1.4441e-26
-1.67628e-26
-3.48256e-27
4.00361e-26
3.3476e-25
7.40206e-25
1.03506e-24
5.85811e-25
2.49208e-25
-5.22486e-25
-1.54676e-24
-1.66234e-24
-1.32366e-24
-8.57555e-25
-4.5874e-25
-2.02478e-25
-7.35459e-26
-2.20629e-26
-5.04906e-27
1.28538e-27
3.1148e-26
2.61154e-25
2.88249e-24
2.93121e-23
2.83856e-22
2.62355e-21
2.3306e-20
1.99119e-19
1.61205e-18
1.21561e-17
8.81359e-17
6.70919e-16
5.93534e-15
5.36325e-14
4.07137e-13
2.43226e-12
1.07745e-11
3.7687e-11
-2.54957e-47
1.48617e-48
5.20155e-47
2.9392e-46
1.08834e-47
-2.27249e-47
-8.47164e-47
-1.58571e-43
-1.98903e-41
-3.79144e-39
1.23644e-33
3.4381e-29
5.36301e-27
3.89336e-26
3.31859e-28
8.55097e-27
5.44152e-26
1.53447e-26
2.11476e-27
4.09691e-28
9.58663e-29
3.58138e-29
1.37081e-29
6.29259e-30
1.38149e-29
1.38551e-28
1.50257e-27
1.20935e-26
1.50089e-25
1.65547e-24
1.74117e-23
1.738e-22
1.65634e-21
1.51886e-20
1.34308e-19
1.12958e-18
8.8382e-18
6.52556e-17
5.03935e-16
4.63127e-15
4.76317e-14
4.25333e-13
2.65021e-12
1.19281e-11
4.18173e-11
-5.41423e-48
-1.90511e-50
2.87394e-50
1.61128e-49
2.04489e-50
5.12461e-48
1.28479e-45
2.89786e-43
1.50805e-38
1.25694e-36
6.55798e-36
2.10798e-36
5.09534e-36
2.65417e-33
4.42613e-32
1.16715e-31
1.71259e-31
1.76036e-34
1.85262e-36
1.40878e-36
2.62149e-35
4.96079e-34
8.63283e-33
1.41452e-31
2.22322e-30
3.27319e-29
4.59167e-28
6.2934e-27
7.47766e-26
8.56382e-25
9.28371e-24
9.55503e-23
9.39437e-22
8.90374e-21
8.16793e-20
7.15136e-19
5.82835e-18
4.48811e-17
3.62787e-16
3.54651e-15
3.92531e-14
3.77909e-13
2.59559e-12
1.20424e-11
4.0872e-11
-6.19365e-49
-1.79049e-51
-2.46169e-53
0
-2.08893e-51
-6.46421e-49
-1.52083e-46
-3.08053e-44
1.16008e-40
4.87027e-39
2.89227e-38
1.34919e-37
3.53452e-37
3.49466e-38
2.18872e-38
1.28934e-38
8.69252e-39
7.34916e-39
2.39642e-38
5.56319e-37
1.26373e-35
2.38844e-34
4.20649e-33
6.92079e-32
1.06861e-30
1.55744e-29
2.12791e-28
2.73777e-27
3.41194e-26
4.01922e-25
4.48867e-24
4.76317e-23
4.83237e-22
4.7343e-21
4.51008e-20
4.12568e-19
3.52144e-18
2.83004e-17
2.38615e-16
2.50278e-15
3.1568e-14
3.41459e-13
2.45293e-12
1.12773e-11
3.65731e-11
-3.39922e-50
-7.40926e-53
-1.06668e-53
-2.02167e-52
-1.3425e-51
-2.0421e-58
2.95494e-52
7.01908e-50
7.27872e-47
5.29828e-43
3.73165e-41
2.59716e-40
6.39465e-40
1.05402e-39
1.27934e-39
1.04156e-39
9.72918e-40
9.98122e-40
9.16532e-39
2.20548e-37
4.30422e-36
8.19179e-35
1.45384e-33
2.42174e-32
3.83777e-31
5.79491e-30
8.27666e-29
1.11387e-27
1.4191e-26
1.71913e-25
1.97688e-24
2.16286e-23
2.26368e-22
2.29e-21
2.26186e-20
2.16094e-19
1.93698e-18
1.63664e-17
1.46152e-16
1.68825e-15
2.45129e-14
2.97498e-13
2.25856e-12
1.04554e-11
3.28737e-11
-1.49729e-61
-1.35394e-59
-3.89001e-58
-3.25268e-57
-6.53946e-64
6.95285e-57
1.92948e-54
4.7177e-52
2.55699e-49
2.41208e-45
5.24703e-43
6.68318e-42
2.28723e-41
4.28487e-41
5.83397e-41
6.77502e-41
7.18156e-41
1.32429e-40
2.86462e-39
6.78361e-38
1.43487e-36
2.80951e-35
5.06862e-34
8.55747e-33
1.3681e-31
2.0802e-30
3.00175e-29
4.12101e-28
5.39054e-27
6.70814e-26
7.94121e-25
8.96191e-24
9.67874e-23
1.00969e-21
1.02991e-20
1.02138e-19
9.54889e-19
8.44929e-18
8.08744e-17
1.07693e-15
1.8771e-14
2.53141e-13
1.99582e-12
9.35679e-12
2.94613e-11
-4.65464e-62
-4.30083e-60
-1.29034e-58
-1.23406e-57
-1.10588e-68
-1.58162e-57
-2.88048e-55
-1.92412e-53
8.14015e-51
6.06674e-47
2.63792e-44
4.2821e-43
1.65441e-42
3.25241e-42
4.37149e-42
4.8689e-42
5.44187e-42
3.03202e-41
8.52382e-40
1.96715e-38
4.22859e-37
8.4146e-36
1.55339e-34
2.67237e-33
4.33868e-32
6.71477e-31
9.91557e-30
1.39498e-28
1.87043e-27
2.38984e-26
2.91348e-25
3.39572e-24
3.79118e-23
4.08166e-22
4.28356e-21
4.35601e-20
4.15717e-19
3.76936e-18
3.87456e-17
6.27623e-16
1.36799e-14
2.06175e-13
1.70464e-12
8.25835e-12
2.6712e-11
-7.43033e-63
-6.96905e-61
-2.14459e-59
-2.12481e-58
-2.70863e-61
3.82891e-60
1.24438e-57
3.21176e-55
1.33929e-52
3.19694e-49
5.83558e-46
1.40954e-44
6.86094e-44
1.48598e-43
2.11187e-43
2.59408e-43
4.95377e-43
8.57317e-42
2.24097e-40
5.19647e-39
1.13695e-37
2.31095e-36
4.3675e-35
7.67644e-34
1.26666e-32
1.99012e-31
2.99834e-30
4.32197e-29
5.93973e-28
7.79046e-27
9.78227e-26
1.17896e-24
1.36572e-23
1.52739e-22
1.65552e-21
1.70277e-20
1.59419e-19
1.41083e-18
1.52313e-17
3.16391e-16
8.99454e-15
1.54082e-13
1.37647e-12
7.17672e-12
2.47489e-11
-9.30267e-68
-2.27282e-66
-1.08583e-65
-1.30179e-72
3.74697e-65
4.61014e-62
1.46239e-59
5.52171e-57
1.70406e-54
1.18259e-51
7.31616e-48
3.99277e-46
2.73126e-45
6.58107e-45
9.89586e-45
1.40923e-44
8.57861e-44
2.3706e-42
5.65409e-41
1.30863e-39
2.85271e-38
5.83851e-37
1.12311e-35
2.01554e-34
3.38636e-33
5.41389e-32
8.32698e-31
1.22833e-29
1.72913e-28
2.32694e-27
3.00607e-26
3.74145e-25
4.51026e-24
5.3233e-23
6.10941e-22
6.33581e-21
5.4926e-20
4.35918e-19
4.63367e-18
1.29007e-16
4.99099e-15
1.00729e-13
1.02315e-12
6.04042e-12
2.30681e-11
-2.38637e-68
-6.18743e-67
-5.69771e-66
-4.96252e-78
-4.79105e-67
-4.49494e-64
1.87513e-62
7.71989e-59
1.81608e-56
6.95303e-54
6.62058e-50
7.85262e-48
7.52729e-47
2.03249e-46
3.45879e-46
8.97241e-46
2.08368e-44
5.63724e-43
1.3412e-41
3.08643e-40
6.68345e-39
1.37055e-37
2.66618e-36
4.87097e-35
8.33576e-34
1.35572e-32
2.12285e-31
3.19515e-30
4.60183e-29
6.34987e-28
8.41408e-27
1.07358e-25
1.34144e-24
1.71578e-23
2.22005e-22
2.37136e-21
1.7803e-20
1.12119e-19
1.02158e-18
3.93791e-17
2.19272e-15
5.48398e-14
6.72743e-13
4.75269e-12
2.09813e-11
-2.6755e-69
-7.53965e-68
-1.04775e-66
-3.90228e-70
-4.29797e-68
2.63426e-66
1.60808e-63
4.84253e-61
1.25559e-58
2.93314e-56
2.77912e-52
8.38078e-50
1.16935e-48
3.96366e-48
9.81891e-48
1.20816e-46
4.36153e-45
1.12903e-43
2.80954e-42
6.5224e-41
1.42012e-39
2.92964e-38
5.75387e-37
1.06868e-35
1.86648e-34
3.09164e-33
4.91524e-32
7.52479e-31
1.10809e-29
1.56892e-28
2.12537e-27
2.7388e-26
3.48827e-25
5.01641e-24
8.14686e-23
9.28166e-22
5.68093e-21
2.48481e-20
1.50463e-19
8.19681e-18
7.27667e-16
2.39994e-14
3.7472e-13
3.30938e-12
1.75646e-11
-5.97406e-74
-1.27304e-72
-7.13295e-81
3.18523e-74
5.01099e-71
5.5037e-68
1.84032e-65
7.86819e-63
1.23643e-58
1.86288e-56
2.30048e-55
8.4173e-53
4.03922e-51
4.10155e-50
5.84955e-49
2.21031e-47
6.94794e-46
1.90455e-44
4.94568e-43
1.17717e-41
2.61967e-40
5.4985e-39
1.09629e-37
2.07478e-36
3.70655e-35
6.26037e-34
1.00981e-32
1.57098e-31
2.36874e-30
3.45649e-29
4.78616e-28
6.11816e-27
7.73845e-26
1.31375e-24
3.02189e-23
3.6632e-22
1.74363e-21
4.75793e-21
1.21895e-20
9.85082e-19
1.78071e-16
8.32576e-15
1.71127e-13
1.93298e-12
1.2598e-11
-1.57761e-74
-3.25593e-73
-2.12353e-82
3.66655e-76
6.50871e-72
6.7956e-67
1.77821e-64
1.88343e-63
6.79316e-61
3.67721e-57
1.37276e-55
9.43098e-55
4.89144e-53
2.35486e-51
1.01176e-49
3.23604e-48
9.50616e-47
2.75676e-45
7.30538e-44
1.78805e-42
4.09192e-41
8.80834e-40
1.79607e-38
3.47856e-37
6.36543e-36
1.09742e-34
1.80016e-33
2.85385e-32
4.42416e-31
6.70442e-30
9.5325e-29
1.19711e-27
1.47672e-26
3.14113e-25
1.05413e-23
1.25801e-22
4.51124e-22
7.27671e-22
3.06284e-22
3.72379e-20
3.09615e-17
2.25856e-15
6.22153e-14
9.07202e-13
7.43402e-12
-1.8053e-75
-3.4897e-74
-3.27684e-76
-5.22621e-74
7.15982e-74
5.87929e-68
3.51115e-64
3.89805e-62
1.06061e-60
4.10614e-59
2.20554e-57
1.4142e-55
7.95574e-54
3.61601e-52
1.26916e-50
3.90424e-49
1.22745e-47
3.52814e-46
9.35881e-45
2.33372e-43
5.45707e-42
1.20277e-40
2.51646e-39
5.00182e-38
9.36912e-37
1.64963e-35
2.76593e-34
4.4985e-33
7.20888e-32
1.13991e-30
1.67292e-29
2.08413e-28
2.536e-27
6.93882e-26
2.80199e-24
2.84004e-23
7.80868e-23
1.01184e-22
4.94058e-23
4.54058e-22
3.73319e-18
4.79795e-16
1.76216e-14
3.33089e-13
3.57057e-12
-4.45272e-78
-8.03839e-86
1.03277e-78
3.55992e-75
4.04986e-72
1.80623e-68
2.24762e-64
1.13974e-62
9.91913e-62
6.6312e-60
3.34102e-58
1.54021e-56
7.14528e-55
2.96104e-53
1.18269e-51
4.45384e-50
1.41882e-48
4.01398e-47
1.06678e-45
2.68557e-44
6.36032e-43
1.42565e-41
3.05402e-40
6.22934e-39
1.19492e-37
2.15677e-36
3.72721e-35
6.27795e-34
1.04318e-32
1.70569e-31
2.57205e-30
3.27478e-29
4.11908e-28
1.19227e-26
4.24045e-25
3.83069e-24
1.03191e-23
1.41658e-23
1.18597e-23
4.84521e-23
3.89497e-19
8.40693e-17
3.91823e-15
9.6458e-14
1.40589e-12
-1.51157e-78
-2.3614e-87
-2.97722e-79
4.54994e-76
6.20085e-73
2.88716e-69
3.43686e-65
1.4494e-63
1.05431e-62
6.66252e-61
3.28708e-59
1.55732e-57
7.48152e-56
3.17373e-54
1.22188e-52
4.29764e-51
1.3793e-49
3.97724e-48
1.06362e-46
2.70579e-45
6.49854e-44
1.48149e-42
3.23721e-41
6.76166e-40
1.33705e-38
2.50633e-37
4.51642e-36
7.93846e-35
1.36519e-33
2.25319e-32
3.40436e-31
4.51631e-30
6.04412e-29
1.45145e-27
4.0485e-26
3.63332e-25
1.08574e-24
1.69108e-24
1.75616e-24
2.56111e-23
8.89334e-20
1.45911e-17
7.41522e-16
2.31406e-14
4.49067e-13
-2.52896e-79
-1.12831e-81
-3.44739e-79
-4.24697e-77
3.50387e-74
1.99473e-70
1.79601e-66
8.01724e-65
7.4622e-64
5.12371e-62
2.83915e-60
1.40594e-58
6.39024e-57
2.60858e-55
1.0048e-53
3.63227e-52
1.17435e-50
3.37571e-49
9.07333e-48
2.34675e-46
5.76839e-45
1.3454e-43
2.98994e-42
6.36186e-41
1.30389e-39
2.57288e-38
4.85865e-37
8.86135e-36
1.56802e-34
2.567e-33
3.72229e-32
4.95172e-31
6.9873e-30
1.40821e-28
2.86915e-27
2.41771e-26
7.87331e-26
1.35e-25
1.53688e-25
4.24618e-23
3.68431e-20
3.167e-18
1.38846e-16
4.77917e-15
1.10069e-13
-1.80868e-81
-9.27035e-85
3.37575e-81
3.56649e-78
1.53491e-73
8.96811e-70
3.5917e-68
3.39246e-67
4.00519e-65
2.84018e-63
1.82844e-61
9.88511e-60
4.5025e-58
1.84674e-56
7.02926e-55
2.499e-53
8.15233e-52
2.42222e-50
6.71646e-49
1.77215e-47
4.45309e-46
1.06563e-44
2.41426e-43
5.19876e-42
1.09113e-40
2.2464e-39
4.36565e-38
7.9703e-37
1.41679e-35
2.2937e-34
3.09369e-33
3.81981e-32
5.47466e-31
1.04784e-29
1.70268e-28
1.23743e-27
3.56808e-27
3.93339e-27
9.92155e-27
1.79048e-23
1.17632e-20
7.82199e-19
2.70779e-17
8.33175e-16
2.10886e-14
-8.22625e-82
-4.45407e-85
-1.79451e-82
6.76811e-80
8.16709e-74
2.47335e-70
6.52572e-69
2.29946e-68
1.9811e-66
1.47677e-64
9.17861e-63
4.89105e-61
2.31813e-59
9.87016e-58
3.79226e-56
1.3293e-54
4.3725e-53
1.36442e-51
3.96774e-50
1.07169e-48
2.74764e-47
6.76606e-46
1.58223e-44
3.4708e-43
7.37427e-42
1.57115e-40
3.10855e-39
5.31851e-38
8.51858e-37
1.2668e-35
1.56262e-34
2.02364e-33
4.06878e-32
8.38779e-31
1.00179e-29
4.52598e-29
8.83872e-29
9.96996e-29
1.29808e-27
1.35901e-24
2.27011e-21
1.63241e-19
5.00389e-18
1.31536e-16
3.59486e-15
-1.91024e-82
-1.05901e-87
-2.66184e-85
4.31719e-80
2.63819e-77
5.15641e-76
2.16102e-72
8.05753e-70
7.24212e-68
5.65055e-66
3.74898e-64
2.02824e-62
9.50888e-61
3.97057e-59
1.52746e-57
5.47944e-56
1.83839e-54
5.72688e-53
1.65886e-51
4.54059e-50
1.19612e-48
3.07094e-47
7.53806e-46
1.68348e-44
3.44821e-43
7.37402e-42
1.56973e-40
2.41896e-39
2.56291e-38
2.38222e-37
3.3727e-36
2.19872e-34
8.48927e-33
6.77494e-32
1.66511e-31
2.1594e-31
2.26993e-31
1.84791e-30
1.9459e-28
7.06161e-26
2.90092e-22
2.58637e-20
8.35508e-19
2.02168e-17
5.05137e-16
7.3904e-105
1.5624e-89
9.90526e-86
5.46477e-81
6.84331e-77
9.05263e-75
1.70045e-73
2.60859e-71
2.23707e-69
1.73105e-67
1.17349e-65
6.26939e-64
2.89352e-62
1.1747e-60
4.39904e-59
1.56392e-57
5.28974e-56
1.66904e-54
4.9372e-53
1.42181e-51
4.03457e-50
1.08818e-48
2.80889e-47
7.03017e-46
1.34887e-44
1.77299e-43
2.004e-42
2.62813e-41
3.96467e-40
6.61183e-39
4.05439e-37
2.38004e-35
2.4398e-34
6.52154e-34
8.3204e-34
5.64119e-34
2.83224e-33
2.5682e-31
2.97896e-29
5.96798e-27
3.39247e-23
3.60782e-21
1.15391e-19
2.39696e-18
5.62956e-17
1.8476e-105
-4.88453e-89
-2.07517e-87
3.43768e-81
3.62203e-77
1.32572e-75
4.53309e-75
7.99466e-73
6.51492e-71
4.04899e-69
2.29732e-67
1.14126e-65
5.22882e-64
2.22395e-62
8.79711e-61
3.24175e-59
1.11451e-57
3.59277e-56
1.11395e-54
3.60754e-53
1.31025e-51
3.98482e-50
7.09514e-49
8.41519e-48
9.9023e-47
1.55345e-45
3.05133e-44
6.36316e-43
1.24738e-41
2.60721e-40
9.92803e-39
3.32293e-37
3.23504e-36
9.0895e-36
1.01639e-35
1.29317e-35
2.92153e-34
3.15796e-32
3.57671e-30
5.7604e-28
2.81531e-24
3.95298e-22
1.43346e-20
2.93377e-19
5.62768e-18
-1.21461e-90
-1.15778e-92
5.14607e-91
4.62666e-87
9.43344e-84
5.81357e-79
1.29958e-76
1.08495e-74
7.78381e-73
4.99541e-71
2.86733e-69
1.49616e-67
7.15199e-66
3.16588e-64
1.30225e-62
4.90727e-61
1.69948e-59
6.10907e-58
2.72491e-56
1.08088e-54
2.38047e-53
3.17596e-52
3.76078e-51
5.63601e-50
1.07985e-48
2.39154e-47
5.69405e-46
1.10429e-44
2.11809e-43
9.65689e-42
4.65617e-40
4.86527e-39
1.26207e-38
1.26906e-38
1.52783e-38
2.64009e-37
2.76107e-35
3.04721e-33
3.36721e-31
4.45733e-29
1.62869e-25
3.34892e-23
1.42887e-21
3.0743e-20
5.23181e-19
-9.60849e-91
-7.65407e-99
3.80733e-92
5.19081e-89
2.30105e-85
9.4396e-81
1.02007e-78
8.77546e-77
6.59719e-75
4.39097e-73
2.61484e-71
1.41411e-69
7.05309e-68
3.21873e-66
1.33097e-64
5.33645e-63
2.47817e-61
1.22095e-59
3.99085e-58
7.485e-57
1.00359e-55
1.41914e-54
2.68843e-53
6.14043e-52
1.49314e-50
2.59602e-49
3.26386e-48
1.65931e-46
2.48599e-44
3.85044e-43
1.12459e-42
1.31813e-42
8.47911e-44
1.64251e-42
1.7127e-40
1.88967e-38
2.06851e-36
2.25505e-34
2.43716e-32
2.81331e-30
6.05571e-27
2.10657e-24
1.07729e-22
2.59158e-21
4.34853e-20
-4.47537e-91
-2.80753e-97
1.30014e-94
1.29556e-90
1.57145e-87
5.00438e-83
5.35357e-81
4.7871e-79
3.72734e-77
2.57784e-75
1.61096e-73
9.08724e-72
4.56535e-70
2.16173e-68
1.11823e-66
6.07195e-65
2.67338e-63
7.8521e-62
1.44953e-60
2.14492e-59
3.75009e-58
8.78969e-57
2.3761e-55
4.56386e-54
5.90918e-53
1.33934e-51
1.88874e-49
4.16392e-48
1.5959e-47
2.09158e-47
2.57204e-49
6.65365e-48
7.49202e-46
8.6646e-44
9.81105e-42
1.09081e-39
1.19443e-37
1.29208e-35
1.37451e-33
1.4695e-31
9.90185e-29
1.00692e-25
6.20603e-24
1.69058e-22
2.9519e-21
-9.95137e-92
-1.14679e-93
0
4.35729e-89
1.58734e-86
1.57355e-85
1.72493e-83
1.60479e-81
1.30614e-79
9.43028e-78
6.05735e-76
3.56324e-74
2.04834e-72
1.19784e-70
7.2449e-69
3.36039e-67
8.39673e-66
1.43006e-64
2.66484e-63
6.57679e-62
2.00893e-60
4.66056e-59
6.54763e-58
8.76201e-57
6.45597e-55
2.90167e-53
2.189e-52
4.3029e-52
3.35103e-52
5.4528e-53
2.12944e-51
2.62142e-49
3.21575e-47
3.82965e-45
4.43622e-43
5.01038e-41
5.53084e-39
5.98215e-37
6.34924e-35
6.58673e-33
1.20946e-30
3.50701e-27
2.75327e-25
8.68918e-24
1.60962e-22
-6.47034e-95
-1.73365e-93
-4.89442e-93
-6.69613e-106
3.76238e-91
2.49878e-88
2.88587e-86
2.85214e-84
2.42399e-82
1.82962e-80
1.34372e-78
9.55767e-77
6.29705e-75
4.01207e-73
1.63005e-71
3.92715e-70
8.21028e-69
2.04177e-67
6.34082e-66
2.10661e-64
4.87267e-63
7.12397e-62
1.28861e-60
9.1037e-59
2.00712e-57
8.15767e-57
1.06265e-56
3.84491e-59
2.78716e-57
3.98783e-55
5.543e-53
7.40369e-51
9.51952e-49
1.18031e-46
1.41379e-44
1.63912e-42
1.84304e-40
2.0138e-38
2.1425e-36
2.20164e-34
2.99163e-32
8.18378e-29
9.05976e-27
3.47548e-25
7.08889e-24
-1.40261e-95
-4.42303e-94
-1.85964e-93
-1.44293e-109
2.77589e-96
1.9461e-91
2.28087e-89
2.16405e-87
2.23256e-85
2.30528e-83
1.47236e-81
1.24397e-79
7.84921e-78
2.94617e-76
8.31031e-75
2.29637e-73
7.27715e-72
2.81911e-70
1.09077e-68
2.42369e-67
3.40724e-66
7.54903e-65
4.34394e-63
8.33204e-62
3.42726e-61
4.62388e-61
1.61701e-63
2.37599e-61
3.89166e-59
6.08802e-57
9.09398e-55
1.29833e-52
1.7736e-50
2.32115e-48
2.91429e-46
3.5155e-44
4.08064e-42
4.5649e-40
4.929e-38
5.09227e-36
5.74758e-34
1.10991e-30
2.09492e-28
1.03374e-26
2.44384e-25
-1.59357e-98
-7.01578e-97
-4.20121e-96
-1.33769e-104
1.27555e-100
2.44981e-95
7.5585e-93
7.52089e-91
5.50034e-89
6.54769e-87
8.14466e-85
4.54449e-83
1.21581e-81
4.49615e-80
2.34474e-78
1.11873e-76
5.45736e-75
2.18918e-73
4.68724e-72
7.22968e-71
1.95403e-69
9.34823e-68
1.90506e-66
8.94854e-66
1.303e-65
2.59246e-68
5.67863e-66
1.17016e-63
2.27952e-61
4.19712e-59
7.30358e-57
1.20145e-54
1.86804e-52
2.68962e-50
3.63357e-48
4.65766e-46
5.68857e-44
6.63508e-42
7.40286e-40
7.84031e-38
8.08357e-36
4.96603e-33
3.18206e-30
2.17348e-28
6.28813e-27
-1.242e-105
-6.64439e-104
-1.87213e-103
-9.83148e-108
1.089e-103
6.32919e-99
5.02444e-97
2.29626e-95
9.16279e-94
7.16525e-92
1.40632e-89
1.0881e-87
9.33559e-86
5.76139e-84
3.11117e-82
2.19026e-80
1.00096e-78
2.11623e-77
4.09719e-76
1.64166e-74
8.33622e-73
1.93891e-71
9.2877e-71
1.29178e-70
1.18077e-73
3.20241e-71
8.15685e-69
1.95803e-66
4.42601e-64
9.41413e-62
1.88302e-59
3.54026e-57
6.25443e-55
1.03813e-52
1.61897e-50
2.3725e-48
3.26789e-46
4.23212e-44
5.15495e-42
5.90762e-40
6.30375e-38
9.26032e-36
2.83013e-32
3.04795e-30
1.15147e-28
-2.08168e-106
-1.46935e-104
-6.08091e-104
-3.21664e-104
3.83332e-109
3.14604e-104
2.95624e-102
4.18183e-100
3.65238e-98
3.93775e-96
3.03357e-94
2.74908e-92
2.24673e-90
1.32153e-88
8.05774e-87
3.29789e-85
1.10193e-83
5.36444e-82
2.95257e-80
1.45605e-78
4.01653e-77
2.43885e-76
3.84947e-76
1.07666e-79
3.77091e-77
1.23969e-74
3.83401e-72
1.11402e-69
3.03704e-67
7.75822e-65
1.85483e-62
4.14574e-60
8.65477e-58
1.68629e-55
3.06464e-53
5.19288e-51
8.20145e-49
1.2071e-46
1.65541e-44
2.11513e-42
2.49188e-40
3.25038e-38
1.11044e-34
2.56403e-32
1.41212e-30
-7.67232e-111
-2.37676e-109
-2.00247e-108
-1.12914e-107
1.09803e-115
2.57527e-110
5.26792e-108
5.09259e-106
4.64359e-104
5.49751e-102
5.21423e-100
6.263e-98
5.73046e-96
2.5642e-94
1.28794e-92
1.00677e-90
6.8879e-89
3.27847e-87
2.18836e-85
5.3433e-84
1.85727e-83
3.89425e-84
3.48797e-86
1.67394e-83
7.54475e-81
3.19774e-78
1.27244e-75
4.74535e-73
1.65557e-70
5.3936e-68
1.63792e-65
4.62873e-63
1.2154e-60
2.96124e-58
6.68685e-56
1.3981e-53
2.7044e-51
4.83656e-49
7.99272e-47
1.21992e-44
1.71885e-42
2.21213e-40
3.32733e-38
8.13854e-35
1.0281e-32
-1.54464e-116
-2.88093e-115
-2.66233e-114
-1.2637e-113
-2.9269e-129
5.69978e-138
-1.01243e-127
-1.60495e-129
2.07566e-117
1.5875e-111
1.2618e-108
2.13205e-106
3.8462e-104
5.33764e-102
3.29183e-100
2.53311e-98
2.7431e-96
1.6852e-94
1.70211e-93
3.38874e-94
4.56751e-97
3.51568e-94
2.52147e-91
1.70394e-88
1.08355e-85
6.47282e-83
3.62529e-80
1.89962e-77
9.29121e-75
4.23192e-72
1.79076e-69
7.02387e-67
2.54805e-64
8.53222e-62
2.6324e-59
7.47114e-57
1.94792e-54
4.66007e-52
1.02191e-49
2.0523e-47
3.7715e-45
6.28419e-43
9.73052e-41
1.5043e-37
1.62348e-34
-6.15045e-123
-3.07592e-122
-1.09174e-121
-8.97747e-122
8.97432e-140
3.69066e-138
3.85057e-137
9.33065e-132
1.52954e-129
1.07974e-130
1.03776e-130
3.35896e-133
4.37273e-132
9.35983e-129
1.72468e-125
1.21428e-122
-2.19314e-118
7.47873e-116
1.54054e-112
6.57205e-109
1.06055e-105
1.36769e-102
1.65974e-99
1.89478e-96
2.03295e-93
2.04684e-90
1.93009e-87
1.7006e-84
1.39649e-81
1.06582e-78
7.53892e-76
4.92797e-73
2.96857e-70
1.64357e-67
8.34288e-65
3.87393e-62
1.64218e-59
6.34378e-57
2.22975e-54
7.12083e-52
2.06351e-49
5.38326e-47
1.41382e-44
4.72097e-40
1.02792e-36
-3.54846e-134
-3.79089e-134
-1.72981e-133
-6.26664e-133
1.10811e-147
1.07723e-145
2.10863e-142
4.17014e-138
9.12556e-133
1.07517e-130
3.55635e-130
3.33849e-133
4.10771e-137
2.65329e-133
1.60629e-129
9.09124e-126
5.45558e-122
4.39771e-121
-1.34223e-123
-1.23096e-119
-3.91112e-117
-5.99056e-114
-8.74379e-111
-1.20259e-107
-1.55863e-104
-1.9026e-101
-2.18503e-98
-2.35736e-95
-2.38441e-92
-2.25592e-89
-1.99115e-86
-1.63482e-83
-1.24478e-80
-8.76171e-78
-5.6823e-75
-3.38376e-72
-1.84319e-69
-9.14178e-67
-4.1009e-64
-1.64445e-61
-5.75014e-59
-1.64382e-56
-2.98658e-54
2.7821e-45
1.76525e-40
3.32611e-150
3.30803e-150
1.24338e-149
4.65643e-149
6.18436e-148
1.09784e-147
1.10781e-147
1.75831e-141
5.71933e-135
3.63106e-132
6.15942e-131
2.84845e-133
-1.76902e-142
-1.12799e-137
-7.7535e-133
8.29556e-126
5.19135e-122
8.63012e-121
-2.6628e-135
1.69585e-130
4.19217e-122
1.51876e-118
1.89219e-125
5.60916e-124
1.80972e-120
2.76086e-118
7.67217e-115
2.51627e-110
-4.05887e-110
1.26544e-104
5.43711e-101
1.76176e-98
-8.26802e-95
2.06656e-91
1.57084e-87
-1.45493e-85
-1.20654e-82
5.95459e-78
-2.40913e-76
-2.98064e-73
8.15143e-69
-3.40011e-67
-2.99487e-64
-2.42567e-61
5.24248e-51
)
;

boundaryField
{
    leftWall
    {
        type            zeroGradient;
    }
    rightWall
    {
        type            zeroGradient;
    }
    lowerWall
    {
        type            zeroGradient;
    }
    atmosphere
    {
        type            inletOutlet;
        inletValue      uniform 0;
        value           uniform 0;
    }
    defaultFaces
    {
        type            empty;
    }
    procBoundary2to0
    {
        type            processor;
        value           nonuniform List<scalar> 
46
(
-2.28467e-16
-2.21858e-16
-1.96506e-16
-1.6023e-16
-1.21494e-16
-8.65626e-17
-5.85391e-17
-3.79433e-17
-2.37385e-17
-1.44257e-17
-8.56031e-18
-4.97967e-18
-2.83774e-18
-1.53686e-18
-5.55488e-19
5.39728e-19
5.75652e-18
2.98627e-17
1.41914e-16
6.8341e-16
3.22427e-15
1.41154e-14
5.52183e-14
1.92215e-13
5.95177e-13
-4.93213e-24
-2.36506e-23
-1.13143e-22
-4.39433e-22
-1.57314e-21
-5.30982e-21
-1.60322e-20
-4.19027e-20
-9.5979e-20
-2.02505e-19
-4.20267e-19
-9.01356e-19
-1.99176e-18
-4.30743e-18
-8.64288e-18
-1.56319e-17
-2.52046e-17
-3.61022e-17
-4.59426e-17
-5.20489e-17
-5.20489e-17
)
;
    }
    procBoundary2to3
    {
        type            processor;
        value           nonuniform List<scalar> 
43
(
3.41888e-12
6.75523e-12
1.31009e-11
2.46922e-11
4.32501e-11
6.76248e-11
9.29212e-11
1.13347e-10
1.27025e-10
1.25329e-10
1.06598e-10
8.64783e-11
7.33925e-11
6.5704e-11
6.22457e-11
6.10439e-11
6.02512e-11
5.72569e-11
4.79212e-11
3.42179e-11
2.11322e-11
1.09852e-11
4.4077e-12
1.28761e-12
3.16231e-13
6.96034e-14
1.09033e-14
1.55941e-15
1.40018e-16
1.08619e-17
7.62217e-19
4.75841e-20
2.4437e-21
1.03213e-22
3.60254e-24
1.00592e-25
2.14317e-27
3.3723e-29
5.38588e-31
1.1541e-32
7.67451e-35
5.45536e-38
2.38917e-48
)
;
    }
}


// ************************************************************************* //
