/*--------------------------------*- C++ -*----------------------------------*\
| =========                 |                                                 |
| \\      /  F ield         | OpenFOAM: The Open Source CFD Toolbox           |
|  \\    /   O peration     | Version:  5.0                                   |
|   \\  /    A nd           | Web:      www.OpenFOAM.org                      |
|    \\/     M anipulation  |                                                 |
\*---------------------------------------------------------------------------*/
FoamFile
{
    version     2.0;
    format      ascii;
    class       surfaceScalarField;
    location    "0.55";
    object      alphaPhi10;
}
// * * * * * * * * * * * * * * * * * * * * * * * * * * * * * * * * * * * * * //

dimensions      [0 3 -1 0 0 0 0];

internalField   nonuniform List<scalar> 
3742
(
1.46549e-22
2.26473e-22
1.10855e-22
1.84216e-22
7.48142e-23
1.33899e-22
4.51924e-23
8.77229e-23
2.44036e-23
5.23602e-23
1.1633e-23
2.8821e-23
4.68733e-24
1.48117e-23
1.356e-24
7.18828e-24
-1.51484e-26
3.32785e-24
-8.09018e-25
1.4807e-24
-8.8226e-25
6.34133e-25
-7.04495e-25
2.48275e-25
-4.66257e-25
2.11146e-26
-1.26565e-25
-3.48654e-25
1.57749e-24
-2.15114e-24
1.1769e-23
-1.01128e-23
6.96631e-23
-4.25132e-23
3.96264e-22
-1.63773e-22
2.30244e-21
-5.64765e-22
1.35915e-20
-1.2698e-21
7.63444e-20
4.25191e-21
3.81897e-19
8.08833e-20
1.63365e-18
6.22879e-19
5.98449e-18
3.41405e-18
1.49288e-17
2.39319e-30
7.94747e-30
2.43971e-29
4.14338e-29
1.47221e-28
2.00347e-28
7.18335e-28
8.11747e-28
3.00835e-27
3.03712e-27
1.05254e-26
1.02578e-26
3.05619e-26
2.97193e-26
7.60627e-26
7.3155e-26
1.72866e-25
1.58131e-25
3.86534e-25
3.2054e-25
8.90106e-25
6.57444e-25
2.08187e-24
1.4156e-24
4.65501e-24
3.12456e-24
9.43114e-24
6.57905e-24
1.68921e-23
1.24815e-23
2.65474e-23
2.08681e-23
3.65179e-23
3.06042e-23
4.39709e-23
3.92834e-23
4.64068e-23
4.41395e-23
4.30155e-23
4.34716e-23
3.51317e-23
3.75869e-23
2.54088e-23
2.86091e-23
1.63869e-23
1.92653e-23
9.50251e-24
1.15687e-23
4.99654e-24
6.26408e-24
2.39799e-24
3.09946e-24
1.0523e-24
1.42135e-24
4.19148e-25
6.1222e-25
1.47196e-25
2.50557e-25
4.13398e-26
9.79443e-26
5.23837e-27
3.48109e-26
-8.08169e-27
9.78878e-28
-2.08931e-27
-6.38865e-26
1.22605e-25
-4.06223e-25
1.11888e-24
-2.26486e-24
8.15197e-24
-1.15887e-23
5.39069e-23
-5.35485e-23
3.44005e-22
-2.32285e-22
2.24976e-21
-9.45501e-22
1.49994e-20
-3.02688e-21
9.41832e-20
2.891e-22
5.14718e-19
1.09236e-19
2.34137e-18
1.03199e-18
8.87077e-18
6.22043e-18
2.87896e-17
5.63097e-31
1.4656e-30
5.66411e-30
7.55472e-30
3.4867e-29
3.66574e-29
1.7425e-28
1.52119e-28
7.32822e-28
5.79449e-28
2.52971e-27
1.94844e-27
7.19828e-27
5.52787e-27
1.75946e-26
1.32266e-26
3.96562e-26
2.77686e-26
8.92404e-26
5.50184e-26
2.08535e-25
1.11642e-25
4.94966e-25
2.39866e-25
1.11187e-24
5.33587e-25
2.23467e-24
1.12633e-24
3.93299e-24
2.11557e-24
6.03593e-24
3.46308e-24
8.06221e-24
4.93972e-24
9.37505e-24
6.12279e-24
9.50329e-24
6.59603e-24
8.4098e-24
6.18571e-24
6.51271e-24
5.05348e-24
4.43353e-24
3.6009e-24
2.67217e-24
2.24546e-24
1.44034e-24
1.2338e-24
7.02543e-25
6.03989e-25
3.13802e-25
2.6728e-25
1.29654e-25
1.08678e-25
4.98739e-26
4.1228e-26
1.78083e-26
1.47428e-26
5.53723e-27
4.76282e-27
1.26686e-28
-5.41566e-30
-5.81114e-27
-9.06114e-27
-4.32141e-27
-6.41434e-26
1.59585e-26
-4.10581e-25
3.90897e-25
-2.50051e-24
4.1979e-24
-1.38932e-23
3.51923e-23
-7.11698e-23
2.66339e-22
-3.38738e-22
2.00278e-21
-1.5421e-21
1.5165e-20
-6.02721e-21
1.06543e-19
-8.48081e-21
6.35031e-19
1.44234e-19
3.06642e-18
1.71727e-18
1.19039e-17
1.13156e-17
5.49664e-17
1.09204e-31
2.18582e-31
1.09441e-30
1.11517e-30
6.8939e-30
5.45389e-30
3.51216e-29
2.31736e-29
1.47389e-28
8.93546e-29
4.99606e-28
2.97409e-28
1.38613e-27
8.22055e-28
3.30141e-27
1.89712e-27
7.29789e-27
3.81355e-27
1.63051e-26
7.22364e-27
3.81576e-26
1.41137e-26
9.16239e-26
2.9534e-26
2.07151e-25
6.6545e-26
4.13906e-25
1.42927e-25
7.16367e-25
2.69264e-25
1.07434e-24
4.3483e-25
1.39278e-24
6.07676e-25
1.56151e-24
7.30795e-25
1.51662e-24
7.56648e-25
1.27706e-24
6.76808e-25
9.33331e-25
5.232e-25
5.93912e-25
3.49366e-25
3.31207e-25
2.01786e-25
1.63585e-25
1.01318e-25
7.25525e-26
4.46944e-26
2.93409e-26
1.75998e-26
1.09704e-26
6.30015e-27
3.82389e-27
2.08246e-27
1.18743e-27
6.1568e-28
-1.27419e-30
-5.72098e-30
-1.70928e-27
-1.03624e-27
-2.81481e-27
-8.52085e-27
-1.59994e-26
-6.25783e-26
-7.75687e-26
-4.31866e-25
-2.49848e-25
-2.85813e-24
2.97515e-25
-1.72897e-23
1.38372e-23
-9.59693e-23
1.57127e-22
-4.91027e-22
1.46156e-21
-2.3937e-21
1.29452e-20
-1.06313e-20
1.03077e-19
-2.47623e-20
6.73051e-19
1.83653e-19
3.42565e-18
2.80512e-18
1.33942e-17
2.00039e-17
1.01044e-16
1.68488e-32
2.47193e-32
1.69509e-31
1.2498e-31
1.09354e-30
6.18087e-31
5.64863e-30
2.68409e-30
2.35167e-29
1.04146e-29
7.78599e-29
3.41151e-29
2.0891e-28
9.12125e-29
4.77735e-28
2.00152e-28
1.01247e-27
3.74072e-28
2.18427e-27
6.43251e-28
4.99294e-27
1.12363e-27
1.21789e-26
2.10979e-27
2.81005e-26
4.96303e-27
5.64886e-26
1.14816e-26
9.67556e-26
2.26831e-26
1.42639e-25
3.68803e-26
1.80048e-25
5.15052e-26
1.94745e-25
6.0818e-26
1.8116e-25
6.07662e-26
1.45007e-25
5.19301e-26
9.98278e-26
3.8021e-26
5.91862e-26
2.38046e-26
3.0369e-26
1.27295e-26
1.36262e-26
5.82835e-27
5.4303e-27
2.30669e-27
1.95647e-27
8.02738e-28
6.469e-28
2.504e-28
1.89982e-28
6.84963e-29
-1.73932e-30
-7.32549e-31
-6.42175e-29
-9.83825e-29
-4.86981e-28
-9.34832e-28
-3.60127e-27
-7.6905e-27
-2.51984e-26
-6.00264e-26
-1.59633e-25
-4.43468e-25
-9.08029e-25
-3.05759e-24
-4.301e-24
-2.0197e-23
-1.49212e-23
-1.1843e-22
-1.5599e-23
-6.44496e-22
4.04875e-22
-3.33383e-21
6.31274e-21
-1.62034e-20
6.52299e-20
-4.83814e-20
4.91125e-19
2.17916e-19
2.6241e-18
4.30066e-18
9.86057e-18
3.29021e-17
1.71509e-16
1.94719e-33
1.88472e-33
1.97719e-32
9.45441e-33
1.30481e-31
4.73774e-32
6.79481e-31
2.09625e-31
2.79018e-30
8.13622e-31
8.95677e-30
2.60582e-30
2.2906e-29
6.66219e-30
4.8818e-29
1.35246e-29
9.41465e-29
2.19584e-29
1.82016e-28
2.91571e-29
3.74198e-28
3.02793e-29
9.55138e-28
6.80473e-30
2.37918e-27
5.6795e-29
5.027e-27
3.06363e-28
8.68937e-27
8.80189e-28
1.2832e-26
1.57131e-27
1.59435e-26
2.3739e-27
1.66853e-26
2.88358e-27
1.48709e-26
2.80911e-27
1.13084e-26
2.29396e-27
7.32434e-27
1.58608e-27
4.03593e-27
9.27149e-28
1.89672e-27
4.56597e-28
7.67448e-28
1.89276e-28
2.71932e-28
6.65576e-29
8.59985e-29
2.01875e-29
2.37423e-29
5.19144e-30
-2.55022e-31
-1.48906e-31
-5.29494e-30
-7.91434e-30
-5.66244e-29
-8.2276e-29
-4.88567e-28
-7.52822e-28
-3.98214e-27
-6.50046e-27
-3.04163e-26
-5.31835e-26
-2.21667e-25
-4.13672e-25
-1.49845e-24
-3.05024e-24
-8.86781e-24
-2.08785e-23
-4.68232e-23
-1.2892e-22
-2.26569e-22
-7.39806e-22
-1.09719e-21
-4.07366e-21
-5.20257e-21
-2.1401e-20
-1.81445e-20
-7.49104e-20
-2.61818e-20
2.37556e-19
-7.93178e-20
6.03113e-18
-2.22204e-18
4.90148e-17
2.61991e-16
1.50307e-34
7.26799e-35
1.5456e-33
3.62129e-34
1.04067e-32
1.84023e-33
5.43146e-32
8.26362e-33
2.1853e-31
3.18826e-32
6.72265e-31
9.89599e-32
1.59395e-30
2.37136e-31
2.95734e-30
4.20207e-31
4.41296e-30
4.82022e-31
5.08217e-30
9.8799e-32
1.2529e-30
-1.15795e-30
1.13677e-29
-9.20371e-30
6.61426e-29
-1.99597e-29
2.03593e-28
-2.74029e-29
3.8707e-28
-1.51594e-29
6.19435e-28
-6.3712e-30
7.93121e-28
1.29394e-29
8.10758e-28
3.73575e-29
6.91816e-28
3.90987e-29
4.97839e-28
3.02731e-29
3.01734e-28
1.90417e-29
1.53508e-28
9.87327e-30
6.55038e-29
4.21668e-30
2.36274e-29
1.47926e-30
7.32527e-30
4.27734e-31
1.91876e-30
9.41461e-32
-5.58589e-32
-2.84439e-32
-3.39039e-31
-5.50473e-31
-4.94043e-30
-5.66878e-30
-4.69049e-29
-5.73345e-29
-4.30652e-28
-5.44123e-28
-3.71029e-27
-4.87676e-27
-3.0324e-26
-4.14639e-26
-2.35448e-25
-3.35607e-25
-1.73292e-24
-2.57689e-24
-1.21685e-23
-1.84609e-23
-7.42412e-23
-1.208e-22
-4.24565e-22
-7.22177e-22
-2.60218e-21
-4.1891e-21
-1.90771e-20
-2.33783e-20
-1.41213e-19
-9.72266e-20
-9.11889e-19
2.40464e-19
-4.95753e-18
7.71487e-18
-2.33789e-17
6.57461e-17
3.57735e-16
5.82568e-36
6.55814e-52
6.07738e-35
-4.43603e-53
4.15967e-34
-1.51847e-51
2.16228e-33
-8.94572e-51
8.44829e-33
-4.49223e-49
2.44081e-32
-1.15561e-46
5.06139e-32
-2.55076e-44
6.64707e-32
-4.84127e-42
1.53379e-32
-8.09254e-40
-1.99685e-31
-1.21365e-37
-8.56718e-31
-1.6059e-35
-3.16591e-30
-2.96898e-33
-6.10561e-30
-2.88828e-31
-3.61619e-30
-1.01913e-30
-3.12604e-30
-1.91081e-32
3.49802e-30
-4.27236e-31
1.06587e-29
-1.33692e-30
1.17206e-29
-3.67961e-31
9.49498e-30
-4.98072e-32
6.22441e-30
-9.39111e-33
3.3513e-30
-2.13296e-33
1.48103e-30
-7.73163e-34
5.35831e-31
-2.87241e-34
1.59275e-31
-1.28908e-34
3.59262e-32
-2.95353e-34
-1.10896e-32
-2.8485e-33
-3.33942e-32
-2.80944e-32
-3.41137e-31
-3.0288e-31
-3.29925e-30
-3.3864e-30
-3.38638e-29
-3.52364e-29
-3.23938e-28
-3.46081e-28
-2.92423e-27
-3.21242e-27
-2.50923e-26
-2.82833e-26
-2.06604e-25
-2.37335e-25
-1.61969e-24
-1.89383e-24
-1.16417e-23
-1.40991e-23
-7.58812e-23
-9.52614e-23
-4.77541e-22
-5.87404e-22
-3.50617e-21
-3.54665e-21
-3.07905e-20
-2.20474e-20
-2.60393e-19
-1.02744e-19
-1.90215e-18
2.29251e-19
-1.07669e-17
9.00827e-18
-4.83967e-17
7.96389e-17
4.38132e-16
-6.87944e-55
1.36767e-52
-5.00491e-53
5.34261e-55
-4.53957e-52
-8.3813e-55
-2.28224e-50
-8.18768e-54
-4.72025e-49
-6.12684e-52
-1.15863e-46
-1.69089e-49
-2.55856e-44
-3.79101e-47
-4.85952e-42
-7.33138e-45
-8.12835e-40
-1.27749e-42
-1.22106e-37
-7.15747e-41
-1.63316e-35
-2.73918e-40
-4.51823e-33
-1.17225e-40
-2.32487e-31
-9.20929e-40
-2.34692e-33
-1.45766e-37
-1.08227e-32
-2.28548e-36
-3.71111e-31
-5.89121e-36
-1.07832e-31
-4.17079e-36
-2.62337e-32
-8.55302e-39
-4.97937e-33
-8.69814e-41
-1.09399e-33
-5.75587e-41
-3.92069e-34
-9.85545e-40
-1.45854e-34
-1.79485e-38
-4.79116e-35
-2.99935e-37
-5.1239e-35
-4.71083e-36
-1.90163e-34
-6.94565e-35
-2.21064e-33
-9.67177e-34
-1.69842e-32
-1.28304e-32
-1.74819e-31
-1.57574e-31
-1.9992e-30
-1.78882e-30
-2.1109e-29
-1.92572e-29
-2.10206e-28
-1.95717e-28
-1.9754e-27
-1.87945e-27
-1.76812e-26
-1.71311e-26
-1.52433e-25
-1.49115e-25
-1.26125e-24
-1.2386e-24
-9.67604e-24
-9.63045e-24
-6.63471e-23
-6.79813e-23
-4.3197e-22
-4.37097e-22
-3.23309e-21
-2.76456e-21
-3.1405e-20
-1.83449e-20
-3.36106e-19
-9.48283e-20
-2.73685e-18
2.06132e-19
-1.58464e-17
9.51229e-18
-6.93964e-17
8.67376e-17
4.76769e-16
8.64971e-57
1.53644e-53
-2.76769e-56
4.93148e-56
-1.41683e-55
6.93261e-58
-2.9482e-55
-9.31238e-57
-6.10084e-52
-2.9388e-54
-1.68839e-49
-8.63267e-52
-3.78722e-47
-2.04452e-49
-7.32569e-45
-4.18012e-47
-1.15922e-42
-7.17865e-45
-3.17995e-41
-2.7125e-43
-1.19027e-41
-1.58033e-42
-1.35558e-41
-6.9903e-42
-1.15591e-39
-1.81781e-41
-1.15651e-37
-1.78594e-42
-5.83383e-37
-1.08138e-42
-1.17995e-36
-6.17442e-43
-2.54865e-39
-4.00962e-43
-1.59907e-41
-3.31955e-43
-1.18891e-41
-1.03516e-42
-2.28017e-41
-2.06291e-41
-4.46581e-40
-4.38894e-40
-8.29078e-39
-8.00204e-39
-1.41899e-37
-1.35495e-37
-2.31983e-36
-2.14428e-36
-3.54802e-35
-3.18982e-35
-5.06895e-34
-4.45896e-34
-7.29834e-33
-5.84626e-33
-9.1293e-32
-7.24202e-32
-1.05699e-30
-8.5272e-31
-1.16012e-29
-9.48447e-30
-1.19843e-28
-9.96088e-29
-1.16936e-27
-9.89244e-28
-1.08856e-26
-9.33502e-27
-9.80199e-26
-8.43053e-26
-8.52243e-25
-7.2997e-25
-6.88943e-24
-5.94894e-24
-4.98384e-23
-4.41001e-23
-3.42066e-22
-2.97217e-22
-2.72971e-21
-1.97446e-21
-2.8694e-20
-1.41427e-20
-3.29095e-19
-8.3905e-20
-3.03519e-18
1.45106e-19
-1.88296e-17
9.31402e-18
-7.78787e-17
8.94551e-17
4.75401e-16
7.96923e-58
8.28104e-55
2.30576e-59
2.00428e-57
-2.2688e-58
2.95016e-58
-1.51586e-56
5.61934e-57
-3.02738e-54
3.72676e-56
-8.81613e-52
-2.08344e-56
-2.0962e-49
-4.9087e-54
-4.30244e-47
-8.87175e-52
-4.12298e-45
-1.3247e-49
-4.63968e-44
-3.47389e-47
-3.38444e-43
-2.00473e-45
-2.02183e-42
-1.3529e-44
-2.89957e-43
-3.25972e-44
-1.75206e-43
-5.19991e-44
-1.06284e-43
-6.10589e-44
-6.76362e-44
-4.7852e-44
-5.42111e-44
-4.30265e-44
-6.05919e-44
-4.37098e-44
-4.08709e-43
-3.60114e-43
-1.02073e-41
-8.23571e-42
-2.16394e-40
-1.58153e-40
-4.06686e-39
-2.89834e-39
-7.08688e-38
-4.95771e-38
-1.14924e-36
-7.95564e-37
-1.75145e-35
-1.21107e-35
-2.49328e-34
-1.75031e-34
-3.28662e-33
-2.38353e-33
-4.16854e-32
-3.04916e-32
-5.02108e-31
-3.69318e-31
-5.69687e-30
-4.23614e-30
-6.09343e-29
-4.59381e-29
-6.16261e-28
-4.71677e-28
-5.95129e-27
-4.60576e-27
-5.57824e-26
-4.3112e-26
-5.08692e-25
-3.88797e-25
-4.34234e-24
-3.32537e-24
-3.30871e-23
-2.60158e-23
-2.36233e-22
-1.85291e-22
-1.9627e-21
-1.30973e-21
-2.30532e-20
-1.0346e-20
-3.09358e-19
-7.2008e-20
-3.11534e-18
8.80898e-20
-1.94107e-17
8.56313e-18
-7.53438e-17
8.1942e-17
4.19517e-16
3.2294e-59
3.58238e-66
9.77952e-60
3.59745e-64
2.85434e-58
1.05662e-62
2.56627e-57
8.87848e-62
-1.42482e-57
-3.88421e-61
-2.21135e-56
-1.45743e-58
-4.89659e-54
-3.35633e-56
-8.85435e-52
-6.20098e-54
-1.33078e-49
-9.66629e-52
-2.89038e-47
-2.17308e-49
-6.32785e-46
-2.7487e-47
-2.50677e-45
-3.32528e-46
-5.49177e-45
-1.10882e-45
-8.17686e-45
-2.03695e-45
-7.34453e-45
-2.72425e-45
-6.80261e-45
-3.08777e-45
-7.0579e-45
-3.21261e-45
-1.05699e-44
-5.91014e-45
-1.68685e-43
-1.15334e-43
-3.69542e-42
-2.64213e-42
-7.4212e-41
-5.35006e-41
-1.40473e-39
-1.0077e-39
-2.46523e-38
-1.75178e-38
-4.0727e-37
-2.85178e-37
-6.39698e-36
-4.39475e-36
-9.50634e-35
-6.42858e-35
-1.32529e-33
-8.89948e-34
-1.73577e-32
-1.16795e-32
-2.15055e-31
-1.45526e-31
-2.51849e-30
-1.71941e-30
-2.78581e-29
-1.92447e-29
-2.91685e-28
-2.0431e-28
-2.91569e-27
-2.06379e-27
-2.83358e-26
-1.99863e-26
-2.69713e-25
-1.87033e-25
-2.42197e-24
-1.67185e-24
-1.94033e-23
-1.37678e-23
-1.44604e-22
-1.03852e-22
-1.27831e-21
-7.95262e-22
-1.70482e-20
-7.25075e-21
-2.65171e-19
-6.18052e-20
-2.90517e-18
1.55362e-20
-1.83214e-17
7.42941e-18
-6.89487e-17
7.45931e-17
3.79172e-16
5.7802e-66
1.09379e-66
3.48701e-64
1.12254e-64
4.49075e-63
3.44239e-63
-2.66546e-62
3.308e-62
-3.90599e-61
-2.44767e-62
-1.41289e-58
-4.88428e-60
-3.25418e-56
-1.16738e-57
-6.00883e-54
-2.23977e-55
-9.37418e-52
-3.71978e-53
-2.24812e-49
-7.66388e-51
-1.16479e-47
-1.3678e-48
-7.80331e-47
-2.09266e-47
-2.03812e-46
-7.88173e-47
-3.31862e-46
-1.52105e-46
-4.30106e-46
-2.01268e-46
-4.71977e-46
-2.20543e-46
-5.34253e-46
-2.44057e-46
-2.06433e-45
-1.30878e-45
-5.04034e-44
-3.45075e-44
-1.17622e-42
-7.75096e-43
-2.49671e-41
-1.60979e-41
-4.84125e-40
-3.09213e-40
-8.65228e-39
-5.50351e-39
-1.44852e-37
-9.13612e-38
-2.2943e-36
-1.43164e-36
-3.43428e-35
-2.13438e-35
-4.86359e-34
-3.02629e-34
-6.537e-33
-4.07669e-33
-8.33229e-32
-5.22031e-32
-1.00565e-30
-6.34908e-31
-1.14973e-29
-7.33615e-30
-1.24622e-28
-8.0612e-29
-1.28835e-27
-8.43327e-28
-1.29365e-26
-8.44431e-27
-1.27651e-25
-8.15767e-26
-1.19342e-24
-7.53511e-25
-9.90497e-24
-6.42503e-24
-7.63273e-23
-5.06392e-23
-7.36887e-22
-4.25579e-22
-1.18768e-20
-4.75319e-21
-2.16015e-19
-5.2174e-20
-2.48264e-18
-6.37745e-20
-1.54413e-17
5.85184e-18
-5.65049e-17
6.33886e-17
3.34544e-16
1.79926e-66
1.71496e-67
1.13043e-64
1.78707e-65
1.66449e-63
5.61999e-64
-8.87491e-64
5.59382e-63
-2.49849e-62
-3.79323e-64
-4.85053e-60
-6.97812e-62
-1.1593e-57
-1.74355e-59
-2.235e-55
-3.61934e-57
-3.67676e-53
-6.67701e-55
-8.83583e-51
-1.20922e-52
-6.49101e-49
-3.10377e-50
-5.29831e-48
-6.91555e-49
-1.52656e-47
-3.27145e-48
-2.51155e-47
-6.95715e-48
-3.00467e-47
-9.72757e-48
-3.35526e-47
-1.17492e-47
-4.65812e-47
-2.23243e-47
-5.50168e-46
-3.55842e-46
-1.45246e-44
-9.14e-45
-3.39361e-43
-2.06483e-43
-7.31514e-42
-4.38261e-42
-1.45205e-40
-8.6224e-41
-2.65633e-39
-1.57427e-39
-4.52577e-38
-2.67315e-38
-7.28722e-37
-4.26451e-37
-1.11523e-35
-6.4709e-36
-1.62045e-34
-9.38602e-35
-2.23535e-33
-1.29845e-33
-2.92613e-32
-1.70826e-32
-3.63628e-31
-2.13818e-31
-4.29671e-30
-2.55149e-30
-4.82732e-29
-2.90655e-29
-5.17241e-28
-3.1603e-28
-5.36909e-27
-3.28587e-27
-5.45822e-26
-3.2743e-26
-5.20932e-25
-3.07638e-25
-4.33132e-24
-2.6225e-24
-3.36355e-23
-2.07649e-23
-3.6428e-22
-1.90534e-22
-7.53463e-21
-2.77457e-21
-1.61785e-19
-4.12302e-20
-1.93724e-18
-1.34858e-19
-1.18674e-17
4.10987e-18
-4.16356e-17
5.14707e-17
2.92275e-16
2.85649e-67
2.10897e-72
1.83616e-65
5.72674e-71
2.79898e-64
2.7954e-70
-1.37411e-65
-5.89886e-69
-3.9211e-64
-3.12949e-66
-6.93588e-62
-8.13003e-64
-1.72912e-59
-2.08503e-61
-3.58966e-57
-4.45277e-59
-6.61273e-55
-8.69443e-57
-1.3555e-52
-1.54571e-54
-1.66842e-50
-4.19456e-52
-1.96136e-49
-1.94906e-50
-6.56373e-49
-1.29159e-49
-1.12684e-48
-3.0593e-49
-1.41367e-48
-4.52938e-49
-1.82006e-48
-6.40879e-49
-6.23546e-48
-3.76725e-48
-1.45869e-46
-9.73439e-47
-3.74883e-45
-2.30018e-45
-8.87064e-44
-5.20254e-44
-1.95181e-42
-1.10657e-42
-3.97213e-41
-2.20302e-41
-7.45619e-40
-4.1073e-40
-1.29639e-38
-7.13475e-39
-2.11942e-37
-1.1609e-37
-3.30261e-36
-1.79612e-36
-4.91581e-35
-2.6661e-35
-6.95717e-34
-3.78404e-34
-9.34643e-33
-5.11179e-33
-1.19483e-31
-6.58168e-32
-1.45806e-30
-8.10537e-31
-1.69948e-29
-9.57284e-30
-1.89843e-28
-1.08667e-28
-2.06074e-27
-1.1893e-27
-2.16642e-26
-1.2421e-26
-2.05435e-25
-1.17573e-25
-1.61649e-24
-9.48736e-25
-1.20076e-23
-6.99324e-24
-1.47217e-22
-6.72614e-23
-4.13241e-21
-1.3483e-21
-1.0572e-19
-2.83927e-20
-1.33118e-18
-1.72106e-19
-8.15881e-18
2.34627e-18
-2.67413e-17
3.88894e-17
2.51056e-16
9.12459e-73
5.31424e-73
9.08933e-72
1.53207e-71
-2.93566e-70
1.44121e-70
-6.08814e-69
-1.0429e-70
-3.10679e-66
-2.90939e-68
-8.08348e-64
-7.8623e-66
-2.07219e-61
-2.07928e-63
-4.4591e-59
-4.6551e-61
-8.63322e-57
-9.4732e-59
-1.5413e-54
-1.72455e-56
-3.23147e-52
-4.40744e-54
-6.7967e-51
-3.8306e-52
-2.7215e-50
-3.5499e-51
-4.80592e-50
-9.4338e-51
-6.44087e-50
-1.58503e-50
-1.14129e-49
-4.21365e-50
-1.40635e-48
-8.87838e-49
-3.74611e-47
-2.34761e-47
-9.28819e-46
-5.47273e-46
-2.186e-44
-1.23196e-44
-4.81102e-43
-2.60892e-43
-9.92609e-42
-5.22029e-42
-1.90485e-40
-9.8744e-41
-3.3818e-39
-1.75011e-39
-5.62874e-38
-2.90511e-38
-8.94744e-37
-4.58157e-37
-1.36313e-35
-6.94235e-36
-1.97696e-34
-1.00823e-34
-2.7241e-33
-1.39687e-33
-3.57794e-32
-1.84836e-32
-4.49323e-31
-2.34237e-31
-5.40877e-30
-2.853e-30
-6.33973e-29
-3.38168e-29
-7.43603e-28
-3.99852e-28
-8.35038e-27
-4.60211e-27
-7.66274e-26
-4.44833e-26
-5.2576e-25
-3.17852e-25
-3.41889e-24
-1.93463e-24
-4.60741e-23
-1.75565e-23
-1.8269e-21
-5.04148e-22
-5.6699e-20
-1.57529e-20
-7.7706e-19
-1.58087e-19
-4.85666e-18
8.70318e-19
-1.31075e-17
2.60377e-17
2.04993e-16
2.43451e-73
5.85283e-74
4.66753e-72
1.8348e-72
-2.69388e-72
2.60425e-71
-1.06428e-70
-5.5623e-73
-2.90385e-68
-1.60696e-70
-7.86077e-66
-4.44436e-68
-2.07964e-63
-1.22776e-65
-4.64744e-61
-2.95044e-63
-9.45422e-59
-6.1877e-61
-1.73083e-56
-1.16123e-58
-4.41592e-54
-2.6282e-56
-1.61942e-52
-4.11104e-54
-7.51966e-52
-5.50912e-53
-1.35699e-51
-1.83804e-52
-2.2837e-51
-4.60476e-52
-1.18898e-50
-5.6334e-51
-3.29846e-49
-1.8831e-49
-8.72384e-48
-4.79504e-48
-2.15603e-46
-1.16121e-46
-5.03265e-45
-2.63361e-45
-1.10358e-43
-5.60509e-44
-2.2916e-42
-1.1295e-42
-4.47057e-41
-2.16196e-41
-8.09776e-40
-3.90363e-40
-1.37337e-38
-6.62172e-39
-2.22307e-37
-1.06518e-37
-3.45371e-36
-1.64289e-36
-5.12173e-35
-2.43364e-35
-7.23781e-34
-3.45509e-34
-9.75996e-33
-4.698e-33
-1.25163e-31
-6.10099e-32
-1.52834e-30
-7.56163e-31
-1.87786e-29
-9.26228e-30
-2.54211e-28
-1.23068e-28
-3.31115e-27
-1.71717e-27
-2.90018e-26
-1.75768e-26
-1.57512e-25
-1.04398e-25
-7.85396e-25
-4.54692e-25
-1.04958e-23
-3.16495e-24
-6.07928e-22
-1.33601e-22
-2.36708e-20
-6.60982e-21
-3.69783e-19
-1.06475e-19
-2.34958e-18
-4.49775e-20
-2.17702e-18
1.40093e-17
1.50611e-16
2.91128e-74
1.2838e-78
8.41117e-73
3.04494e-77
-1.45046e-74
-4.10067e-78
-5.6767e-73
-2.98934e-75
-1.60408e-70
-1.08807e-72
-4.42753e-68
-3.43063e-70
-1.22565e-65
-1.00323e-67
-2.93801e-63
-2.53675e-65
-6.14338e-61
-7.03099e-63
-1.15699e-58
-7.80555e-61
-3.19984e-56
-2.3577e-59
-1.9757e-54
-4.53743e-57
-1.10172e-53
-1.92882e-55
-2.47048e-53
-1.94427e-54
-8.51736e-53
-2.82741e-53
-2.06264e-51
-9.9166e-52
-6.45583e-50
-3.07087e-50
-1.74696e-48
-8.21338e-49
-4.43005e-47
-2.07761e-47
-1.04206e-45
-4.82938e-46
-2.29781e-44
-1.04992e-44
-4.80412e-43
-2.15292e-43
-9.50099e-42
-4.18872e-42
-1.75752e-40
-7.71931e-41
-3.046e-39
-1.34107e-39
-5.01574e-38
-2.20274e-38
-7.91462e-37
-3.45416e-37
-1.19745e-35
-5.2127e-36
-1.73853e-34
-7.59258e-35
-2.41325e-33
-1.06442e-33
-3.12655e-32
-1.41377e-32
-3.73561e-31
-1.75113e-31
-4.75103e-30
-2.17609e-30
-8.28613e-29
-3.43208e-29
-1.41369e-27
-6.53407e-28
-1.17553e-26
-7.17643e-27
-4.66131e-26
-3.35846e-26
-1.53204e-25
-9.218e-26
-1.62006e-24
-3.48525e-25
-1.44347e-22
-2.29041e-23
-7.50512e-21
-2.03382e-21
-1.39738e-19
-5.29859e-20
-8.46099e-19
-3.33742e-19
3.51917e-18
4.86103e-18
8.89969e-17
4.83119e-79
3.33034e-79
-1.32266e-79
7.65479e-78
-3.35737e-78
-8.75567e-79
-2.64504e-75
-3.47671e-76
-9.63373e-73
-1.26981e-73
-2.98454e-70
-4.74866e-71
-9.16188e-68
-8.89607e-69
-2.35135e-65
-1.89071e-66
-4.70346e-63
-4.97725e-64
-1.03362e-61
-1.69607e-61
-1.28764e-59
-5.22838e-60
-2.36316e-57
-4.96397e-59
-3.42374e-56
-2.51071e-57
-3.39637e-55
-1.15189e-55
-8.75518e-54
-4.5552e-54
-3.28423e-52
-1.45191e-52
-1.02008e-50
-4.22387e-51
-2.91902e-49
-1.19631e-49
-7.66128e-48
-3.10365e-48
-1.84947e-46
-7.43273e-47
-4.16521e-45
-1.66382e-45
-8.84739e-44
-3.50245e-44
-1.78018e-42
-6.97697e-43
-3.37204e-41
-1.31765e-41
-5.98642e-40
-2.34826e-40
-1.00286e-38
-3.94311e-39
-1.60439e-37
-6.29895e-38
-2.47497e-36
-9.70772e-37
-3.71077e-35
-1.45663e-35
-5.34859e-34
-2.12086e-34
-6.93261e-33
-2.89046e-33
-7.75007e-32
-3.53776e-32
-1.01347e-30
-4.41874e-31
-2.64306e-29
-8.82896e-30
-6.3873e-28
-2.40385e-28
-4.93569e-27
-2.66923e-27
-1.38672e-26
-9.41509e-27
-2.63869e-26
-1.49471e-26
-1.52085e-25
-2.06798e-26
-2.36967e-23
-2.30586e-24
-1.82113e-21
-4.44813e-22
-4.22511e-20
-1.94868e-20
-2.01654e-19
-2.62144e-19
4.41042e-18
1.51816e-19
3.59278e-17
1.21604e-79
3.74359e-80
-2.05844e-80
8.0645e-79
-4.17015e-79
-4.79136e-79
-1.53041e-76
-1.95013e-76
-5.37124e-74
-7.35284e-74
-7.01212e-71
-2.64894e-71
-1.74389e-69
-1.07252e-68
-6.48955e-67
-1.2087e-66
-4.63181e-64
-4.07876e-65
-8.28572e-62
-2.11531e-63
-6.99853e-61
-1.18219e-61
-1.14936e-59
-7.04715e-60
-6.44903e-58
-3.79467e-58
-3.44543e-56
-1.66557e-56
-1.3553e-54
-5.77504e-55
-4.39298e-53
-1.75918e-53
-1.39169e-51
-5.40826e-52
-4.11677e-50
-1.52928e-50
-1.10899e-48
-3.99037e-49
-2.75911e-47
-9.76505e-48
-6.39436e-46
-2.23967e-46
-1.39219e-44
-4.83857e-45
-2.86911e-43
-9.90576e-44
-5.58046e-42
-1.92253e-42
-1.01556e-40
-3.51314e-41
-1.73356e-39
-6.03521e-40
-2.81761e-38
-9.86958e-39
-4.44191e-37
-1.5632e-37
-6.93011e-36
-2.42985e-36
-1.04947e-34
-3.69632e-35
-1.35549e-33
-5.2008e-34
-1.38418e-32
-6.33865e-33
-1.92472e-31
-8.07284e-32
-8.38846e-30
-2.08593e-30
-2.6601e-28
-6.97707e-29
-1.83986e-27
-6.7205e-28
-3.54924e-27
-1.77918e-27
-2.72105e-27
-2.17741e-27
-8.57382e-27
-2.70555e-27
-2.61535e-24
-2.58611e-25
-3.4132e-22
-6.8399e-23
-1.04127e-20
-5.33758e-21
-2.56769e-20
-1.20406e-19
2.82142e-18
-8.74644e-19
6.61094e-18
1.28386e-80
9.0696e-83
-1.19587e-80
-1.63997e-82
-3.24638e-79
-1.66256e-79
-1.0731e-76
-8.8103e-77
-3.5902e-74
-3.80135e-74
-1.27987e-71
-1.45297e-71
-5.13314e-69
-7.84187e-69
-2.15937e-67
-4.41931e-67
-7.30126e-66
-4.95445e-66
-3.69247e-64
-3.11864e-64
-2.56453e-62
-1.57474e-62
-1.7888e-60
-7.39222e-61
-1.04791e-58
-3.397e-59
-4.57407e-57
-1.39986e-57
-1.57468e-55
-5.48493e-56
-5.36552e-54
-1.9946e-54
-1.73305e-52
-6.22045e-53
-5.08453e-51
-1.73553e-51
-1.3855e-49
-4.5466e-50
-3.5195e-48
-1.12592e-48
-8.34908e-47
-2.62207e-47
-1.8661e-45
-5.77632e-46
-3.95624e-44
-1.21338e-44
-7.90385e-43
-2.42062e-43
-1.472e-41
-4.53692e-42
-2.5672e-40
-8.00145e-41
-4.26726e-39
-1.35028e-39
-6.91839e-38
-2.21739e-38
-1.12869e-36
-3.5807e-37
-1.80216e-35
-5.65341e-36
-2.33421e-34
-8.20373e-35
-2.24075e-33
-1.02226e-33
-3.54607e-32
-1.34691e-32
-2.38447e-30
-3.72651e-31
-7.43491e-29
-1.15658e-29
-3.78228e-28
-9.85706e-29
-5.21152e-28
-2.50094e-28
-3.91355e-28
-3.20143e-28
-9.82765e-28
-4.66865e-28
-2.25197e-25
-3.44675e-26
-5.1258e-23
-8.82519e-24
-2.15058e-21
-1.14426e-21
-2.02435e-21
-3.77315e-20
1.14865e-18
-5.54445e-19
-2.24196e-18
-2.61706e-84
3.02409e-83
-1.2889e-82
-3.77246e-83
-1.40472e-79
-2.59074e-80
-7.40402e-77
-1.41733e-77
-3.17827e-74
-6.41119e-75
-1.28504e-71
-2.55879e-72
-3.72234e-69
-1.51211e-69
-4.10649e-68
-6.11719e-68
-9.39132e-67
-5.16315e-67
-6.11286e-65
-3.17171e-65
-3.24676e-63
-1.56224e-63
-1.71209e-61
-7.40204e-62
-8.17676e-60
-3.49103e-60
-3.6523e-58
-1.45866e-58
-1.59621e-56
-5.53745e-57
-6.01013e-55
-1.91834e-55
-1.92198e-53
-6.0421e-54
-5.59789e-52
-1.71645e-52
-1.53483e-50
-4.53181e-51
-3.94194e-49
-1.13573e-49
-9.4826e-48
-2.68584e-48
-2.16541e-46
-6.02783e-47
-4.7175e-45
-1.29471e-45
-9.67034e-44
-2.65204e-44
-1.84442e-42
-5.13334e-43
-3.30709e-41
-9.41033e-42
-5.68828e-40
-1.6575e-40
-9.58418e-39
-2.84282e-39
-1.62557e-37
-4.75439e-38
-2.68382e-36
-7.61258e-37
-3.55151e-35
-1.11586e-35
-3.50179e-34
-1.44964e-34
-6.08888e-33
-1.97399e-33
-3.98231e-31
-4.61972e-32
-1.02899e-29
-1.16823e-30
-4.78519e-29
-9.88706e-30
-7.12813e-29
-2.78625e-29
-6.76225e-29
-4.09618e-29
-1.51111e-28
-8.6033e-29
-2.47232e-26
-7.20195e-27
-7.0778e-24
-1.88688e-24
-3.89909e-22
-2.28146e-22
-1.37229e-21
-9.1526e-21
3.13253e-19
-2.0741e-19
-2.36042e-18
-3.36861e-85
4.96921e-84
-3.63893e-83
-1.6721e-84
-2.47676e-80
-1.1888e-81
-1.35099e-77
-6.76646e-79
-6.0927e-75
-3.17633e-76
-2.39193e-72
-1.30554e-73
-5.54572e-70
-8.33577e-71
-4.99151e-69
-3.55094e-69
-9.40846e-68
-3.72691e-68
-5.82155e-66
-2.47828e-66
-3.10491e-64
-1.3455e-64
-1.69782e-62
-6.5673e-63
-8.50205e-61
-2.95075e-61
-3.78329e-59
-1.19564e-59
-1.5239e-57
-4.55137e-58
-5.59515e-56
-1.61381e-56
-1.82479e-54
-5.12137e-55
-5.37184e-53
-1.45324e-53
-1.48525e-51
-3.86282e-52
-3.86294e-50
-9.85712e-51
-9.44115e-49
-2.3876e-49
-2.19621e-47
-5.48533e-48
-4.88663e-46
-1.20082e-46
-1.02854e-44
-2.51564e-45
-2.03152e-43
-5.0631e-44
-3.79857e-42
-9.78061e-43
-6.85344e-41
-1.80804e-41
-1.21324e-39
-3.22575e-40
-2.10869e-38
-5.55265e-39
-3.45212e-37
-8.83474e-38
-4.69628e-36
-1.25356e-36
-5.13314e-35
-1.64422e-35
-8.64419e-34
-2.31176e-34
-3.97902e-32
-4.50092e-33
-9.04983e-31
-8.56064e-32
-4.57458e-30
-6.8718e-31
-7.97078e-30
-2.13897e-30
-8.99479e-30
-3.65828e-30
-3.04136e-29
-2.30091e-29
-5.39901e-27
-3.07237e-27
-1.29073e-24
-7.28665e-25
-7.06543e-23
-5.43598e-23
-7.9983e-22
-2.05981e-21
5.82112e-20
-5.7953e-20
-9.97873e-19
-1.5258e-86
3.4904e-86
-1.57234e-84
-1.61323e-85
-1.05969e-81
-1.45223e-82
-5.88964e-79
-9.12101e-80
-2.70294e-76
-4.73263e-77
-1.09395e-73
-2.77591e-74
-2.44735e-71
-1.46303e-72
-2.78462e-70
-1.88789e-71
-6.51907e-69
-2.00196e-69
-4.58594e-67
-1.39785e-67
-2.71219e-65
-8.7374e-66
-1.45015e-63
-4.60678e-64
-6.8443e-62
-2.06889e-62
-2.97286e-60
-8.39232e-61
-1.2266e-58
-3.1605e-59
-4.59261e-57
-1.10891e-57
-1.49554e-55
-3.56313e-56
-4.39427e-54
-1.0439e-54
-1.22764e-52
-2.85865e-53
-3.26369e-51
-7.45077e-52
-8.19058e-50
-1.8478e-50
-1.94368e-48
-4.35728e-49
-4.38049e-47
-9.7299e-48
-9.45115e-46
-2.06917e-46
-1.96007e-44
-4.28146e-45
-3.87201e-43
-8.63694e-44
-7.32494e-42
-1.64477e-42
-1.36226e-40
-2.95415e-41
-2.42188e-39
-5.13057e-40
-3.79818e-38
-8.07559e-39
-5.03852e-37
-1.06947e-37
-6.04677e-36
-1.30873e-36
-1.01213e-34
-1.84365e-35
-3.14599e-33
-3.3535e-34
-5.74091e-32
-5.16701e-33
-3.03989e-31
-3.62674e-32
-5.8708e-31
-1.02301e-31
-7.89478e-31
-1.69603e-31
-1.13122e-29
-7.56884e-30
-3.08915e-27
-1.24231e-27
-3.92463e-25
-2.59652e-25
-1.6003e-23
-1.48342e-23
-3.016e-22
-4.65801e-22
6.32283e-21
-1.25791e-20
-2.66869e-19
-2.33223e-87
1.55912e-86
-1.22216e-85
-4.14474e-86
-1.07342e-82
-3.79763e-83
-6.68315e-80
-2.44569e-80
-4.62485e-77
-1.40783e-77
-8.80405e-75
-9.55671e-75
-1.0349e-73
-2.59561e-73
-3.26783e-72
-1.1547e-72
-3.27581e-70
-9.81653e-71
-2.61379e-68
-7.12417e-69
-1.77811e-66
-4.34001e-67
-9.83764e-65
-2.27845e-65
-4.68278e-63
-1.06398e-63
-2.02432e-61
-4.46616e-62
-8.15072e-60
-1.6948e-60
-3.02224e-58
-5.88476e-59
-1.00892e-56
-1.91657e-57
-3.07526e-55
-5.90255e-56
-8.80741e-54
-1.69365e-54
-2.39195e-52
-4.52383e-53
-6.17467e-51
-1.14699e-51
-1.50405e-49
-2.78603e-50
-3.43137e-48
-6.4176e-49
-7.51022e-47
-1.39181e-47
-1.62541e-45
-2.92841e-46
-3.36752e-44
-6.11215e-45
-6.46313e-43
-1.17817e-43
-1.21804e-41
-1.98777e-42
-2.21972e-40
-3.14793e-41
-3.32827e-39
-4.59263e-40
-3.98782e-38
-5.59865e-39
-4.7782e-37
-7.02024e-38
-8.45342e-36
-1.30106e-36
-2.17415e-34
-2.64975e-35
-3.26862e-33
-3.11527e-34
-1.63007e-32
-1.38247e-33
-2.12923e-32
-2.74472e-33
-4.74897e-32
-1.58806e-32
-5.25202e-30
-1.68271e-30
-1.24926e-27
-2.51457e-28
-1.33984e-25
-5.9147e-26
-4.49445e-24
-3.49141e-24
-8.81808e-23
-9.78047e-23
-2.36327e-22
-2.35386e-21
-5.70203e-20
-5.69951e-88
3.55576e-87
-4.20208e-86
-3.1961e-90
-3.80245e-83
-2.85822e-87
-2.44925e-80
-2.52832e-84
-1.84786e-77
-9.80214e-82
-3.77915e-75
-2.5965e-79
-1.70298e-74
-1.65513e-76
-1.70788e-73
-4.05366e-74
-1.63283e-71
-3.57618e-72
-1.28704e-69
-2.72078e-70
-8.39347e-68
-1.75345e-68
-4.73341e-66
-9.31978e-67
-2.36372e-64
-4.31237e-65
-1.05074e-62
-1.78427e-63
-4.17257e-61
-6.80299e-62
-1.52326e-59
-2.41597e-60
-5.26041e-58
-8.01338e-59
-1.69929e-56
-2.46902e-57
-5.04323e-55
-7.08436e-56
-1.39694e-53
-1.92216e-54
-3.70078e-52
-5.01615e-53
-9.35779e-51
-1.27119e-51
-2.1959e-49
-3.06463e-50
-4.85358e-48
-6.73813e-49
-1.08857e-46
-1.37751e-47
-2.39906e-45
-2.92116e-46
-4.54534e-44
-6.00117e-45
-7.81022e-43
-8.99134e-44
-1.30101e-41
-9.45569e-43
-1.68911e-40
-9.13391e-42
-1.84008e-39
-1.51117e-40
-2.95317e-38
-7.89337e-39
-7.68588e-37
-2.60908e-37
-1.87452e-35
-2.15356e-36
-1.65073e-34
-5.34757e-36
-4.05355e-34
-6.97789e-36
-5.81728e-34
-2.57299e-35
-1.04269e-32
-2.19264e-33
-1.28832e-30
-2.75472e-31
-2.5171e-28
-3.78567e-29
-3.343e-26
-8.81082e-27
-1.15421e-24
-6.18251e-25
-2.16689e-23
-1.83015e-23
-3.14049e-22
-4.16603e-22
-9.60022e-21
-7.06379e-92
-1.52729e-93
-7.59386e-91
-2.52766e-90
-3.88707e-88
-2.49171e-87
-1.93846e-84
-1.81653e-84
-1.23737e-82
-1.6461e-81
-5.54107e-80
-2.37128e-79
-3.69389e-77
-9.07686e-78
-5.83566e-75
-1.27301e-75
-5.7852e-73
-1.08266e-73
-4.90928e-71
-8.2334e-72
-3.3391e-69
-5.41717e-70
-1.8846e-67
-2.84681e-68
-9.17969e-66
-1.29593e-66
-4.01773e-64
-5.21594e-65
-1.62066e-62
-1.9408e-63
-6.09176e-61