/*--------------------------------*- C++ -*----------------------------------*\
| =========                 |                                                 |
| \\      /  F ield         | OpenFOAM: The Open Source CFD Toolbox           |
|  \\    /   O peration     | Version:  5.0                                   |
|   \\  /    A nd           | Web:      www.OpenFOAM.org                      |
|    \\/     M anipulation  |                                                 |
\*---------------------------------------------------------------------------*/
FoamFile
{
    version     2.0;
    format      ascii;
    class       volScalarField;
    location    "0.55";
    object      epsilon;
}
// * * * * * * * * * * * * * * * * * * * * * * * * * * * * * * * * * * * * * //

dimensions      [0 2 -3 0 0 0 0];

internalField   nonuniform List<scalar> 
1915
(
0.155297
0.163477
0.172714
0.18312
0.194816
0.207926
0.222577
0.238889
0.256975
0.276937
0.298823
0.322671
0.34847
0.37616
0.405624
0.436684
0.469103
0.502588
0.5368
0.571374
0.605931
0.640079
0.673489
0.705899
0.737129
0.537885
0.233023
0.167967
0.141235
0.127259
0.119204
0.11444
0.111731
0.11042
0.110133
0.110643
0.111817
0.113577
0.115884
0.118729
0.122123
0.126097
0.130698
0.135985
0.142032
0.148922
0.156752
0.16563
0.175671
0.186998
0.19974
0.214027
0.229986
0.247736
0.267379
0.288991
0.312623
0.338267
0.365853
0.395277
0.426363
0.458881
0.492541
0.527013
0.56194
0.596967
0.631732
0.665939
0.699366
0.73188
0.529347
0.228175
0.16393
0.137594
0.123847
0.115921
0.111214
0.108506
0.107152
0.106781
0.107175
0.108202
0.109787
0.111895
0.114516
0.117666
0.121376
0.125693
0.130679
0.136408
0.142966
0.150451
0.158972
0.168646
0.179601
0.191968
0.205882
0.221477
0.238877
0.258194
0.279513
0.30289
0.328334
0.355806
0.38521
0.416344
0.448998
0.48289
0.517701
0.553091
0.588729
0.624302
0.659557
0.694331
0.728564
0.520061
0.223232
0.159922
0.134032
0.120545
0.11277
0.108141
0.105455
0.104076
0.103643
0.103941
0.104841
0.106272
0.1082
0.110618
0.113543
0.117006
0.121057
0.125757
0.131183
0.137421
0.14457
0.152742
0.162056
0.172642
0.184636
0.198179
0.21341
0.230462
0.249455
0.270485
0.293619
0.318878
0.346236
0.375602
0.406826
0.439702
0.473929
0.509213
0.545241
0.58171
0.618369
0.655027
0.691599
0.728115
0.510207
0.218239
0.155961
0.130557
0.117353
0.109748
0.105212
0.102564
0.101177
0.100699
0.100917
0.101709
0.103006
0.104773
0.107008
0.109726
0.112962
0.116765
0.121197
0.126336
0.132269
0.139097
0.146932
0.155897
0.166125
0.177757
0.190937
0.205814
0.222529
0.241212
0.261971
0.284886
0.309993
0.337279
0.366672
0.398039
0.431184
0.465861
0.501797
0.538694
0.57628
0.614378
0.652887
0.691818
0.731313
0.499965
0.213245
0.152074
0.127183
0.114277
0.106853
0.102423
0.0998231
0.0984419
0.0979315
0.0980869
0.0987873
0.0999657
0.101591
0.103661
0.106192
0.10922
0.112793
0.116977
0.121847
0.127493
0.134016
0.141531
0.150162
0.160047
0.17133
0.184164
0.198702
0.215098
0.233492
0.254006
0.276735
0.301732
0.329003
0.358494
0.390094
0.423633
0.458896
0.49564
0.533625
0.572649
0.612601
0.653484
0.695435
0.738724
0.489509
0.208299
0.148286
0.123926
0.111326
0.10409
0.0997715
0.0972289
0.095862
0.0953308
0.0954354
0.0960581
0.0971341
0.0986344
0.100557
0.102919
0.105756
0.10912
0.113073
0.117693
0.123071
0.129308
0.13652
0.144836
0.154394
0.165346
0.177851
0.192071
0.208168
0.226297
0.246597
0.269177
0.294111
0.321425
0.35109
0.38302
0.417076
0.453078
0.490831
0.530157
0.570936
0.613154
0.656946
0.702591
0.750504
0.479006
0.203456
0.144627
0.120805
0.108514
0.101467
0.0972621
0.0947802
0.0934334
0.0928893
0.0929527
0.0935092
0.094496
0.0958853
0.0976757
0.0998858
0.102551
0.105723
0.109464
0.113853
0.118981
0.12495
0.131879
0.139897
0.149148
0.159788
0.171982
0.185902
0.201723
0.219613
0.239725
0.262191
0.287106
0.314519
0.344428
0.376777
0.411462
0.448348
0.487296
0.5282
0.571037
0.615919
0.663132
0.713125
0.766483
0.468616
0.198769
0.141132
0.117844
0.105855
0.0989938
0.0949008
0.0924798
0.0911557
0.0906034
0.0906327
0.0911319
0.0920403
0.0933312
0.0950038
0.0970769
0.0995864
0.102583
0.10613
0.110306
0.115202
0.120922
0.127584
0.135323
0.144284
0.154629
0.16653
0.18017
0.195733
0.213403
0.233353
0.255734
0.280664
0.308219
0.338427
0.371267
0.406673
0.44456
0.484853
0.527531
0.572685
0.620568
0.671645
0.726567
0.786116
0.458496
0.194293
0.137832
0.115065
0.103369
0.0966835
0.0926965
0.0903333
0.0890312
0.0884727
0.088472
0.0889206
0.089759
0.090962
0.0925287
0.0944783
0.0968463
0.0996829
0.103052
0.107032
0.111712
0.1172
0.123614
0.131089
0.139776
0.149842
0.161466
0.174838
0.190158
0.207623
0.227426
0.249738
0.274704
0.302428
0.33297
0.366344
0.40253
0.441494
0.483232
0.527817
0.575464
0.62659
0.681855
0.742146
0.808482
0.448787
0.190082
0.134763
0.112494
0.101073
0.0945508
0.0906602
0.0883483
0.0870647
0.0864992
0.0864704
0.0868723
0.0876472
0.0887703
0.0902412
0.0920786
0.0943178
0.0970084
0.100214
0.104012
0.108493
0.113763
0.119943
0.127169
0.135596
0.145395
0.156751
0.169866
0.184949
0.202216
0.221874
0.244122
0.269127
0.297024
0.327907
0.361828
0.39881
0.438876
0.482094
0.528636
0.578848
0.633321
0.692934
0.758836
0.832323
0.439622
0.186189
0.13196
0.110157
0.0989874
0.0926115
0.0888041
0.0865341
0.0852628
0.084687
0.0846294
0.0849865
0.085702
0.0867514
0.0881343
0.089869
0.0919901
0.0945465
0.097601
0.10123
0.105525
0.11059
0.116548
0.123538
0.131715
0.141255
0.15235
0.165209
0.180056
0.197118
0.216625
0.238794
0.263822
0.291873
0.323074
0.357514
0.395263
0.436397
0.481056
0.529508
0.582233
0.639999
0.703913
0.775415
0.856121
0.43112
0.182667
0.129455
0.108079
0.0971332
0.090882
0.0871415
0.0849011
0.0836333
0.0830414
0.0829521
0.0832642
0.0839222
0.084902
0.0862028
0.0878422
0.089854
0.0922859
0.0951998
0.0986712
0.10279
0.107662
0.113408
0.120169
0.128102
0.137387
0.148221
0.160822
0.175423
0.192266
0.211599
0.23366
0.258673
0.286832
0.318295
0.35319
0.391627
0.433736
0.47972
0.529935
0.584987
0.645816
0.713758
0.790559
0.878198
0.423382
0.179562
0.127284
0.106286
0.0955302
0.0893786
0.0856858
0.0834601
0.0821846
0.0815688
0.081443
0.0817077
0.0823082
0.0832204
0.084443
0.0859927
0.0879019
0.0902171
0.0929987
0.0963211
0.100273
0.104959
0.110501
0.117038
0.124731
0.13376
0.144329
0.15666
0.170997
0.187596
0.206719
0.228627
0.253566
0.28176
0.313399
0.348645
0.387647
0.430578
0.477695
0.52943
0.586494
0.649983
0.72145
0.802947
0.896856
0.416497
0.176919
0.125476
0.104801
0.0941981
0.0881176
0.0844502
0.082222
0.0809256
0.080276
0.0801067
0.0803197
0.0808609
0.0817059
0.0828525
0.084316
0.0861275
0.0883318
0.0909876
0.0941675
0.097959
0.102465
0.107806
0.114123
0.121574
0.130343
0.140636
0.152681
0.166729
0.183047
0.201912
0.223604
0.248393
0.276527
0.308226
0.343685
0.383085
0.426633
0.474629
0.527554
0.586201
0.65179
0.726067
0.811374
0.910522
0.410555
0.17478
0.124061
0.103648
0.0931555
0.0871143
0.0834478
0.0811975
0.0798648
0.0791698
0.0789483
0.0791038
0.0795822
0.0803585
0.0814294
0.0828087
0.0845256
0.0866229
0.0891574
0.0921995
0.0958346
0.100164
0.105307
0.111401
0.118607
0.127107
0.137109
0.148846
0.162573
0.178565
0.197115
0.218516
0.243058
0.271016
0.302635
0.338138
0.377733
0.421653
0.470219
0.523942
0.583654
0.650659
0.726858
0.814844
0.917885
0.405646
0.173182
0.123066
0.102849
0.0924203
0.0863836
0.0826905
0.0803965
0.0790105
0.0782565
0.0779727
0.0780633
0.0784739
0.0791787
0.0801727
0.0814681
0.0830919
0.0850846
0.0875004
0.0904075
0.0938886
0.0980427
0.102986
0.108856
0.11581
0.124029
0.133723
0.145123
0.158491
0.174107
0.192273
0.213296
0.237485
0.265133
0.296511
0.331865
0.371424
0.415437
0.464231
0.518318
0.578528
0.646188
0.723297
0.81264
0.917904
0.401856
0.172165
0.122519
0.102425
0.0920092
0.085939
0.0821896
0.0798282
0.0783698
0.077542
0.0771844
0.0772013
0.0775379
0.0781669
0.0790817
0.0802922
0.081823
0.0837119
0.0860104
0.0887835
0.0921113
0.0960896
0.100832
0.106472
0.113164
0.121089
0.130453
0.141488
0.154454
0.169639
0.187347
0.207899
0.231615
0.258808
0.289769
0.324763
0.364037
0.407846
0.456509
0.510509
0.570634
0.638166
0.715109
0.804399
0.909571
0.39926
0.171765
0.122445
0.102394
0.0919376
0.0857927
0.0819547
0.0795001
0.077949
0.0770311
0.0765869
0.0765204
0.0767756
0.0773237
0.0781558
0.0792793
0.080716
0.0825009
0.084682
0.0873213
0.0904952
0.0942959
0.0988334
0.104237
0.110659
0.118274
0.127284
0.137922
0.150444
0.165139
0.182314
0.202295
0.225416
0.252001
0.282359
0.316774
0.355502
0.398801
0.44697
0.500443
0.559924
0.626583
0.702311
0.790037
0.892912
0.397926
0.172016
0.122869
0.102776
0.0922194
0.0859552
0.0819936
0.0794183
0.0777525
0.0767272
0.0761828
0.0760224
0.0761882
0.0766494
0.0773945
0.0784282
0.079769
0.0814486
0.0835116
0.0860161
0.0890346
0.0926552
0.0969834
0.102144
0.108284
0.115573
0.124209
0.134417
0.146453
0.160599
0.177165
0.196479
0.218879
0.244702
0.274271
0.307881
0.345801
0.388284
0.435606
0.488137
0.546469
0.611599
0.685194
0.769934
0.868648
0.397917
0.172954
0.123816
0.103588
0.0928665
0.0864346
0.0823121
0.0795867
0.077783
0.0766321
0.0759733
0.0757078
0.0757759
0.0761438
0.0767973
0.0777377
0.0789802
0.0805528
0.0824961
0.0848644
0.0877256
0.0911632
0.0952776
0.100188
0.106036
0.112984
0.121223
0.130973
0.142481
0.156025
0.17191
0.190463
0.212023
0.236935
0.265529
0.298114
0.334967
0.376338
0.422476
0.473687
0.530435
0.593508
0.664269
0.744954
0.838018
0.399294
0.174613
0.125307
0.104845
0.0938885
0.0872366
0.0829131
0.0800065
0.0780408
0.0767455
0.0759576
0.075576
0.0755377
0.0758059
0.0763629
0.0772065
0.0783481
0.0798117
0.0816339
0.0838642
0.0865661
0.0898179
0.0937143
0.0983685
0.103914
0.110508
0.118333
0.127597
0.138542
0.151434
0.166573
0.184278
0.204889
0.228749
0.256195
0.287546
0.323083
0.363058
0.407696
0.457245
0.512045
0.572665
0.640118
0.716141
0.802626
0.402122
0.177028
0.127366
0.10656
0.0952922
0.0883639
0.0837966
0.0806761
0.0785234
0.0770646
0.0761332
0.0756244
0.0754714
0.0756337
0.0760896
0.0768331
0.0778713
0.0792241
0.0809235
0.0830145
0.0855553
0.0886188
0.0922937
0.0966864
0.101923
0.108152
0.115546
0.124303
0.134654
0.146854
0.16119
0.177975
0.197538
0.220222
0.246364
0.276286
0.310279
0.348592
0.391438
0.439016
0.491562
0.549446
0.613338
0.684462
0.764186
0.40647
0.180235
0.130013
0.108743
0.0970811
0.0898154
0.0849588
0.0815904
0.0792253
0.0775841
0.0764952
0.0758487
0.0755734
0.0756241
0.075975
0.0766153
0.0775481
0.0787885
0.080364
0.0823146
0.0846932
0.0875669
0.0910179
0.0951456
0.100068
0.105923
0.112875
0.12111
0.130843
0.142319
0.155809
0.171613
0.190049
0.211452
0.236155
0.264481
0.296723
0.333133
0.373919
0.419248
0.469275
0.524214
0.584441
0.650694
0.723936
0.41242
0.184274
0.133268
0.111402
0.0992547
0.0915856
0.0863917
0.0827404
0.0801375
0.0782955
0.0770358
0.0762423
0.0758381
0.0757727
0.0760152
0.0765503
0.0773762
0.0785034
0.0799545
0.0817643
0.0839804
0.0866637
0.0898899
0.0937508
0.0983557
0.103834
0.110336
0.118037
0.127139
0.137868
0.150482
0.165262
0.182512
0.202553
0.22571
0.252301
0.282618
0.316918
0.355406
0.398232
0.445504
0.497323
0.553847
0.615412
0.682645
0.420068
0.189189
0.137152
0.114542
0.101808
0.0936645
0.0880827
0.0841128
0.081247
0.0791869
0.0777447
0.0767963
0.076258
0.0760731
0.0762054
0.0766342
0.0773527
0.0783667
0.0796937
0.0813632
0.0834174
0.085911
0.0889129
0.0925072
0.0967946
0.101894
0.107945
0.115109
0.123572
0.133544
0.145265
0.158995
0.175022
0.193647
0.215182
0.239934
0.268193
0.300214
0.336204
0.376308
0.420611
0.469147
0.521935
0.579046
0.640706
0.429527
0.19503
0.141684
0.118164
0.104732
0.0960367
0.0900141
0.0856895
0.0825368
0.080243
0.0786083
0.0774991
0.0768234
0.0765177
0.0765391
0.0768618
0.0774737
0.0783755
0.0795795
0.0811103
0.0830042
0.0853099
0.0880897
0.0914198
0.0953922
0.100116
0.105718
0.112347
0.120172
0.129388
0.140211
0.152885
0.167672
0.184855
0.204725
0.227576
0.253687
0.28331
0.316651
0.353857
0.395006
0.440104
0.489097
0.541901
0.598453
0.440929
0.201856
0.146885
0.122266
0.108011
0.0986807
0.0921623
0.0874474
0.0839855
0.0814445
0.0796102
0.0783368
0.0775228
0.0770965
0.0770086
0.077227
0.0777343
0.0785258
0.0796093
0.0810037
0.0827399
0.0848609
0.0874221
0.0904922
0.0941545
0.0985079
0.103668
0.10977
0.116967
0.125435
0.135371
0.146997
0.160551
0.176293
0.194491
0.215419
0.239341
0.266499
0.297098
0.331287
0.369145
0.410673
0.455792
0.504347
0.556132
0.454435
0.209735
0.152775
0.12684
0.111623
0.101569
0.0944976
0.089358
0.0855669
0.0827687
0.0807305
0.0792926
0.0783421
0.0777983
0.0776044
0.077722
0.0781281
0.0788129
0.079779
0.0810404
0.0826228
0.0845632
0.0869105
0.0897264
0.0930857
0.0970775
0.101806
0.107393
0.113977
0.121716
0.130788
0.141389
0.153737
0.168063
0.184613
0.203636
0.225377
0.250064
0.277892
0.309011
0.343504
0.381381
0.42256
0.466871
0.514057
0.470239
0.218753
0.159376
0.131875
0.115539
0.104664
0.0969834
0.0913867
0.0872503
0.0841886
0.0819465
0.0803475
0.0792656
0.0786101
0.0783159
0.0783382
0.078648
0.0792307
0.0800838
0.0812166
0.0826495
0.0844143
0.0865538
0.0891226
0.0921875
0.0958285
0.100139
0.105228
0.11122
0.118255
0.126492
0.136106
0.14729
0.16025
0.175204
0.192377
0.21199
0.234252
0.259346
0.287416
0.318549
0.352762
0.389988
0.430068
0.472743
0.4886
0.229016
0.166714
0.137352
0.119722
0.107924
0.0995755
0.0934928
0.0889998
0.0856737
0.0832327
0.0814803
0.0802759
0.0795175
0.0791315
0.0790658
0.079286
0.0797723
0.0805177
0.0815269
0.0828157
0.0844106
0.0863488
0.0886783
0.0914587
0.0947611
0.0986693
0.10328
0.108704
0.115066
0.122506
0.131178
0.141253
0.152912
0.166346
0.181754
0.199331
0.219265
0.241721
0.266834
0.29469
0.325312
0.358651
0.394567
0.432827
0.509879
0.240665
0.174816
0.143245
0.124123
0.111291
0.10222
0.0956287
0.0907746
0.0871899
0.0845609
0.0826682
0.0813546
0.0805058
0.0800389
0.0798949
0.0800336
0.0804306
0.0810744
0.0819658
0.0831161
0.0845471
0.0862909
0.0883895
0.0908956
0.0938724
0.0973943
0.101547
0.10643
0.112151
0.118836
0.126619
0.135649
0.146083
0.158089
0.171838
0.187502
0.205242
0.225208
0.247518
0.272252
0.29944
0.329043
0.360946
0.394949
0.534611
0.253885
0.183713
0.149514
0.128675
0.114697
0.104854
0.0977393
0.0925289
0.0887002
0.0859017
0.0838879
0.0824832
0.0815601
0.0810263
0.0808157
0.0808827
0.0811984
0.0817476
0.0825272
0.0835449
0.0848183
0.0863745
0.0882505
0.0904925
0.0931565
0.0963085
0.100025
0.104392
0.109508
0.11548
0.122428
0.13048
0.139772
0.15045
0.16266
0.176549
0.192258
0.209913
0.229619
0.251447
0.275425
0.301524
0.329651
0.359635
0.563625
0.268922
0.19343
0.156099
0.133292
0.118056
0.107401
0.0997611
0.0942122
0.0901651
0.0872247
0.0851163
0.0836441
0.0826672
0.0820834
0.08182
0.0818264
0.0820698
0.0825318
0.0832062
0.0840971
0.0852188
0.0865943
0.0882554
0.0902428
0.092606
0.0954034
0.0987025
0.10258
0.107122
0.112423
0.118588
0.125728
0.133961
0.143411
0.154204
0.166466
0.180316
0.195861
0.213189
0.232362
0.253403
0.27629
0.300944
0.327224
0.598191
0.286096
0.203976
0.162902
0.137855
0.121255
0.109767
0.101622
0.0957696
0.0915442
0.0885008
0.0863326
0.0848228
0.0838165
0.0832026
0.0829021
0.0828603
0.0830412
0.0834238
0.0839993
0.0847695
0.0857453
0.086946
0.0883993
0.0901407
0.0922138
0.0946701
0.0975694
0.100979
0.104976
0.109643
0.115072
0.121359
0.128609
0.136926
0.14642
0.157197
0.169358
0.182992
0.198175
0.214956
0.233356
0.253354
0.274884
0.297826
0.640194
0.305801
0.21532
0.169771
0.142196
0.124151
0.111842
0.103239
0.0971432
0.0927984
0.0897046
0.087521
0.0860098
0.085003
0.0843814
0.084061
0.0839841
0.0841126
0.0844238
0.0849071
0.0855622
0.0863975
0.0874292
0.088681
0.0901839
0.0919759
0.0941024
0.0966162
0.0995771
0.103052
0.107115
0.111847
0.117332
0.123662
0.130928
0.139224
0.148641
0.159266
0.171176
0.184431
0.199075
0.215123
0.232556
0.251319
0.271308
0.692483
0.328509
0.227334
0.176444
0.14607
0.126552
0.113486
0.104519
0.0982742
0.093893
0.090818
0.0886743
0.0872046
0.0862299
0.085625
0.085303
0.0852045
0.0852909
0.0855386
0.0859361
0.0864818
0.0871818
0.0880498
0.0891059
0.0903767
0.0918953
0.0937012
0.0958406
0.0983662
0.101337
0.104819
0.108882
0.113602
0.11906
0.125335
0.132512
0.140669
0.149883
0.160219
0.171732
0.184457
0.198409
0.213573
0.2299
0.247304
0.759932
0.354741
0.23968
0.182469
0.149101
0.128189
0.114525
0.105358
0.0991057
0.0948036
0.0918366
0.0897999
0.0884211
0.0875142
0.0869516
0.0866461
0.0865394
0.0865934
0.0867851
0.0871032
0.0875449
0.0881151
0.0888247
0.0896907
0.0907356
0.0919876
0.0934806
0.0952544
0.0973548
0.0998334
0.102748
0.10616
0.110138
0.114752
0.120075
0.126181
0.133142
0.141026
0.149893
0.159793
0.17076
0.18281
0.195935
0.210095
0.22522
0.851091
0.384918
0.25152
0.186995
0.150665
0.128663
0.114727
0.105635
0.0995901
0.0955252
0.0927797
0.0909296
0.0896964
0.0888944
0.0883992
0.0881276
0.0880245
0.088055
0.0881978
0.0884425
0.0887861
0.089232
0.0897893
0.0904715
0.0912973
0.0922899
0.0934774
0.0948934
0.0965765
0.0985706
0.100925
0.103695
0.106939
0.11072
0.115103
0.120154
0.125941
0.132525
0.139965
0.14831
0.157596
0.167845
0.179058
0.191212
0.204253
0.979957
0.418795
0.26076
0.188315
0.149681
0.127365
0.113786
0.105228
0.0997054
0.0960904
0.0937066
0.0921336
0.0911036
0.0904429
0.0900379
0.0898147
0.0897254
0.0897397
0.0898401
0.0900174
0.090269
0.0905975
0.0910096
0.091516
0.0921311
0.0928732
0.0937645
0.0948317
0.0961059
0.097623
0.0994237
0.101554
0.104063
0.107005
0.110437
0.11442
0.119012
0.124273
0.130259
0.13702
0.144597
0.153022
0.162308
0.172453
0.183429
1.17468
0.453356
0.261994
0.182952
0.144314
0.123429
0.111354
0.10405
0.0994967
0.0966026
0.0947424
0.0935418
0.09277
0.0922818
0.0919851
0.091821
0.0917526
0.0917569
0.0918206
0.0919369
0.0921038
0.0923231
0.0925995
0.0929407
0.0933568
0.0938609
0.0944692
0.0952009
0.096079
0.0971303
0.0983855
0.0998797
0.101652
0.103745
0.106206
0.109084
0.112431
0.116298
0.120737
0.125799
0.131526
0.137959
0.145127
0.153046
0.161721
1.5475
0.473544
0.24174
0.164704
0.132097
0.116008
0.107265
0.102211
0.0991699
0.0972921
0.0961136
0.0953679
0.0948961
0.094601
0.0944226
0.0943235
0.0942805
0.0942795
0.0943124
0.0943751
0.0944664
0.0945874
0.0947409
0.0949313
0.0951648
0.0954491
0.0957939
0.096211
0.0967144
0.0973206
0.0980492
0.0989226
0.0999662
0.101209
0.102682
0.104421
0.106462
0.108845
0.111608
0.114794
0.11844
0.122586
0.127267
0.132512
0.138349
3.17906
0.393958
0.172019
0.127057
0.112007
0.105456
0.102144
0.10031
0.0992357
0.0985846
0.0981815
0.0979291
0.0977707
0.097672
0.0976124
0.097579
0.0975639
0.0975624
0.0975718
0.0975908
0.0976188
0.0976564
0.0977044
0.0977642
0.097838
0.0979284
0.0980386
0.0981726
0.0983353
0.0985325
0.0987712
0.0990593
0.0994064
0.0998232
0.100322
0.100916
0.101621
0.102453
0.103429
0.104567
0.105886
0.107405
0.109144
0.111122
0.113359
)
;

boundaryField
{
    leftWall
    {
        Cmu             0.09;
        kappa           0.41;
        E               9.8;
        type            epsilonWallFunction;
        value           nonuniform List<scalar> 
42
(
0.537885
0.529347
0.520061
0.510207
0.499965
0.489509
0.479006
0.468616
0.458496
0.448787
0.439622
0.43112
0.423382
0.416497
0.410555
0.405646
0.401856
0.39926
0.397926
0.397917
0.399294
0.402122
0.40647
0.41242
0.420068
0.429527
0.440929
0.454435
0.470239
0.4886
0.509879
0.534611
0.563625
0.598191
0.640194
0.692483
0.759932
0.851091
0.979957
1.17468
1.5475
3.17906
)
;
    }
    rightWall
    {
        Cmu             0.09;
        kappa           0.41;
        E               9.8;
        type            epsilonWallFunction;
        value           nonuniform 0();
    }
    lowerWall
    {
        Cmu             0.09;
        kappa           0.41;
        E               9.8;
        type            epsilonWallFunction;
        value           nonuniform 0();
    }
    atmosphere
    {
        type            inletOutlet;
        inletValue      uniform 0.1;
        value           uniform 0.1;
    }
    defaultFaces
    {
        type            empty;
    }
    procBoundary2to0
    {
        type            processor;
        value           nonuniform List<scalar> 
46
(
0.16209
0.170619
0.180208
0.19097
0.203021
0.216481
0.231478
0.248118
0.266502
0.286719
0.308826
0.332852
0.358779
0.386544
0.416025
0.447041
0.479353
0.512666
0.54664
0.580904
0.615045
0.648672
0.68143
0.713021
0.743219
0.54549
0.237738
0.172018
0.144951
0.130784
0.122629
0.117833
0.115146
0.113902
0.11372
0.114369
0.115712
0.117668
0.120195
0.123281
0.126938
0.131193
0.136092
0.141692
0.148067
0.148067
)
;
    }
    procBoundary2to3
    {
        type            processor;
        value           nonuniform List<scalar> 
43
(
0.767004
0.763422
0.762293
0.764711
0.771617
0.783709
0.801154
0.823804
0.851042
0.881797
0.914569
0.947507
0.978531
1.0055
1.02639
1.03947
1.04246
1.03433
1.01496
0.985279
0.947094
0.902746
0.854742
0.805457
0.756119
0.70721
0.658783
0.610919
0.56378
0.517653
0.473092
0.43075
0.391219
0.354913
0.321997
0.292369
0.265652
0.241199
0.218097
0.195181
0.171134
0.144794
0.115876
)
;
    }
}


// ************************************************************************* //
