/*--------------------------------*- C++ -*----------------------------------*\
| =========                 |                                                 |
| \\      /  F ield         | OpenFOAM: The Open Source CFD Toolbox           |
|  \\    /   O peration     | Version:  5.0                                   |
|   \\  /    A nd           | Web:      www.OpenFOAM.org                      |
|    \\/     M anipulation  |                                                 |
\*---------------------------------------------------------------------------*/
FoamFile
{
    version     2.0;
    format      ascii;
    class       volScalarField;
    location    "0.55";
    object      k;
}
// * * * * * * * * * * * * * * * * * * * * * * * * * * * * * * * * * * * * * //

dimensions      [0 2 -2 0 0 0 0];

internalField   nonuniform List<scalar> 
1915
(
0.142675
0.147418
0.152411
0.157676
0.163233
0.169097
0.175281
0.181792
0.18863
0.19579
0.203249
0.210984
0.218956
0.227116
0.235407
0.243759
0.252096
0.260337
0.2684
0.276206
0.283683
0.290756
0.297381
0.303533
0.309209
0.0261665
0.0480262
0.0600046
0.0683078
0.0748493
0.0803713
0.085238
0.0896578
0.0937631
0.097646
0.101375
0.105004
0.10858
0.112141
0.115724
0.119362
0.123087
0.126929
0.130917
0.135079
0.139441
0.144029
0.148868
0.15398
0.159384
0.165098
0.171135
0.177501
0.184199
0.191223
0.198557
0.206177
0.214045
0.22211
0.230315
0.238591
0.246863
0.255052
0.263077
0.270862
0.278342
0.285454
0.292158
0.298441
0.304311
0.0258875
0.0474378
0.0592286
0.0673877
0.0738064
0.0792161
0.0839748
0.0882869
0.0922826
0.0960523
0.0996638
0.103171
0.10662
0.11005
0.113497
0.116997
0.120579
0.124276
0.128116
0.132128
0.136339
0.140776
0.145463
0.150423
0.155676
0.161241
0.16713
0.173354
0.179914
0.186806
0.194016
0.20152
0.209284
0.217261
0.225397
0.233615
0.241846
0.25001
0.25803
0.265834
0.273364
0.28057
0.287422
0.293917
0.300079
0.0255826
0.0468178
0.0584263
0.0664497
0.0727554
0.0780632
0.0827246
0.0869401
0.0908373
0.0945051
0.0980103
0.101406
0.104739
0.108048
0.11137
0.114739
0.118187
0.121746
0.125446
0.129315
0.133381
0.137672
0.142211
0.147024
0.152131
0.157552
0.1633
0.169387
0.175816
0.182585
0.18968
0.197082
0.204757
0.21266
0.220738
0.228924
0.237148
0.245328
0.253392
0.261274
0.268921
0.276299
0.28339
0.290206
0.296785
0.0252574
0.0461726
0.0576037
0.0654991
0.0717001
0.076915
0.0814887
0.0856175
0.0894264
0.0930026
0.0964119
0.0997073
0.102934
0.106132
0.109338
0.112587
0.11591
0.119341
0.122909
0.126643
0.130572
0.134724
0.139125
0.143798
0.148767
0.154051
0.159667
0.165627
0.171937
0.178595
0.185593
0.19291
0.200517
0.208371
0.216422
0.224606
0.232856
0.241099
0.249268
0.2573
0.265148
0.272794
0.280237
0.287506
0.294653
0.0249173
0.0455096
0.0567678
0.0645416
0.0706453
0.0757751
0.0802693
0.0843201
0.0880497
0.0915437
0.0948668
0.0980713
0.101202
0.104299
0.107399
0.110537
0.113746
0.117058
0.120504
0.124113
0.127915
0.131937
0.136208
0.140751
0.145592
0.150751
0.156247
0.162093
0.168298
0.174863
0.181781
0.189035
0.1966
0.204436
0.212494
0.220717
0.229041
0.2374
0.245733
0.253987
0.26213
0.270155
0.278081
0.285954
0.293844
0.0245678
0.0448363
0.0559264
0.0635844
0.069597
0.0746483
0.07907
0.0830501
0.0867083
0.0901283
0.0933739
0.0964966
0.0995409
0.102547
0.105551
0.108588
0.111692
0.114895
0.118228
0.121722
0.125407
0.129311
0.133462
0.137887
0.142612
0.147658
0.153046
0.158793
0.164909
0.171399
0.178258
0.185474
0.193024
0.200873
0.208976
0.21728
0.225728
0.234261
0.242826
0.251384
0.259916
0.268432
0.276974
0.285605
0.294412
0.0242144
0.0441608
0.0550876
0.0626351
0.0685619
0.0735403
0.0778953
0.081811
0.0854044
0.0887577
0.0919333
0.0949822
0.0979484
0.100872
0.103789
0.106735
0.109744
0.112848
0.116079
0.119468
0.123046
0.126842
0.130885
0.135203
0.139823
0.14477
0.150065
0.155728
0.161772
0.168205
0.175027
0.182229
0.189791
0.197684
0.205868
0.214295
0.222915
0.231677
0.24054
0.249478
0.25849
0.267606
0.276891
0.286431
0.296327
0.0238625
0.0434917
0.0542604
0.0617024
0.0675481
0.0724581
0.0767512
0.0806075
0.0841416
0.087434
0.0905461
0.0935282
0.0964238
0.0992725
0.102111
0.104975
0.107897
0.110912
0.11405
0.117345
0.120826
0.124525
0.128472
0.132695
0.137222
0.142082
0.147298
0.152891
0.158879
0.165274
0.172078
0.179287
0.186887
0.194853
0.20315
0.211737
0.220572
0.229612
0.23883
0.248214
0.257785
0.267596
0.277737
0.288319
0.299461
0.0235172
0.0428374
0.053454
0.0607952
0.066564
0.0714095
0.0756444
0.0794453
0.0829244
0.0861608
0.0892147
0.0921358
0.0949673
0.0977483
0.100516
0.103305
0.10615
0.109083
0.112138
0.115348
0.118742
0.122354
0.126214
0.130353
0.1348
0.139585
0.144734
0.150271
0.156218
0.162589
0.169393
0.176628
0.184287
0.192348
0.200785
0.209562
0.218644
0.228001
0.237617
0.247499
0.25769
0.268268
0.279351
0.29108
0.303593
0.0231836
0.0422067
0.052678
0.0599233
0.0656188
0.0704029
0.0745825
0.078331
0.0817584
0.0849424
0.0879423
0.0908072
0.0935797
0.096299
0.0990017
0.101723
0.104497
0.107358
0.110338
0.11347
0.116787
0.120321
0.124104
0.128169
0.132545
0.137266
0.142359
0.147852
0.153769
0.160129
0.166945
0.174221
0.181954
0.190128
0.198722
0.207709
0.217061
0.226758
0.236799
0.24721
0.258055
0.269441
0.281518
0.294459
0.308426
0.0228666
0.0416082
0.0519421
0.0590964
0.0647221
0.0694474
0.0735739
0.077272
0.08065
0.0837842
0.0867331
0.0895453
0.0922631
0.0949252
0.0975683
0.100228
0.102937
0.105732
0.108644
0.111707
0.114953
0.118418
0.122132
0.12613
0.130445
0.135109
0.140155
0.145612
0.151509
0.157867
0.164704
0.17203
0.179845
0.188141
0.196902
0.206107
0.215738
0.225785
0.236259
0.247204
0.258708
0.270908
0.283986
0.298152
0.313602
0.0225705
0.0410505
0.0512559
0.0583247
0.0638839
0.0685524
0.0726274
0.0762764
0.0796062
0.0826921
0.085592
0.0883539
0.0910198
0.0936283
0.0962158
0.0988176
0.101468
0.104201
0.107051
0.11005
0.113233
0.116634
0.120287
0.124225
0.128485
0.133099
0.138104
0.143531
0.149412
0.155773
0.162635
0.170013
0.177912
0.186331
0.195259
0.204681
0.214586
0.224973
0.235867
0.247327
0.259464
0.272444
0.286483
0.301832
0.318728
0.0222994
0.0405418
0.0506292
0.0576182
0.0631141
0.0677276
0.0717519
0.0753523
0.0786343
0.0816725
0.0845243
0.0872372
0.089853
0.0924101
0.0949448
0.0974923
0.100087
0.102763
0.105555
0.108495
0.11162
0.114962
0.118557
0.122441
0.126649
0.131219
0.136185
0.141585
0.147451
0.153815
0.1607
0.168128
0.176107
0.184642
0.193726
0.203352
0.213513
0.224217
0.235498
0.247429
0.260141
0.273826
0.288736
0.305166
0.323402
0.0220567
0.0400902
0.0500715
0.0569869
0.0624229
0.0669828
0.0709567
0.0745083
0.0777421
0.0807322
0.0835357
0.0861997
0.0887661
0.0912728
0.0937562
0.0962514
0.0987927
0.101414
0.104151
0.107036
0.110104
0.113391
0.116932
0.120764
0.124924
0.129449
0.134379
0.13975
0.145599
0.151961
0.158865
0.166333
0.174381
0.183016
0.192238
0.202044
0.212433
0.223415
0.235033
0.24737
0.260571
0.274851
0.290495
0.307845
0.327245
0.0218462
0.0397036
0.0495922
0.0564409
0.0618201
0.0663276
0.070251
0.0737529
0.0769373
0.0798781
0.0826321
0.0852465
0.0877628
0.0902191
0.0926515
0.0950949
0.0975838
0.100152
0.102835
0.105666
0.10868
0.111913
0.115401
0.119182
0.123293
0.127773
0.132663
0.138003
0.14383
0.150182
0.157092
0.164587
0.172686
0.181401
0.190735
0.200689
0.211265
0.222477
0.234369
0.247029
0.26061
0.275345
0.291547
0.309601
0.329924
0.0216714
0.0393898
0.0492004
0.0559895
0.0613153
0.0657714
0.0696437
0.0730944
0.0762276
0.0791169
0.0818194
0.0843824
0.0868471
0.0892517
0.091632
0.0940231
0.0964592
0.0989745
0.101603
0.10438
0.10734
0.110519
0.113954
0.117682
0.121742
0.126175
0.131021
0.136321
0.142118
0.148449
0.155351
0.162854
0.170981
0.179748
0.189162
0.199226
0.209943
0.221327
0.23342
0.24631
0.26015
0.275179
0.291732
0.310232
0.331166
0.0215359
0.0391562
0.0489047
0.0556421
0.0609178
0.0653231
0.0691434
0.0725411
0.0756203
0.0784554
0.0811036
0.0836123
0.0860229
0.0883734
0.0906998
0.0930367
0.0954184
0.097879
0.100453
0.103174
0.106078
0.109201
0.11258
0.116253
0.120258
0.124638
0.129433
0.134686
0.14044
0.146736
0.153612
0.161101
0.16923
0.178018
0.187475
0.197604
0.20841
0.219904
0.232123
0.245145
0.259116
0.27427
0.29095
0.309611
0.330732
0.0214427
0.0390094
0.0487132
0.055407
0.0606362
0.0649914
0.0687583
0.0721004
0.0751226
0.0779
0.0804902
0.082941
0.0852941
0.0875873
0.0898566
0.0921364
0.094461
0.0968642
0.0993801
0.102043
0.104889
0.107953
0.111272
0.114884
0.11883
0.123149
0.127885
0.13308
0.138778
0.145021
0.151851
0.159302
0.167403
0.176177
0.185635
0.195783
0.206624
0.218165
0.230433
0.243494
0.257474
0.27259
0.289173
0.307689
0.328574
0.0213946
0.0389556
0.0486332
0.0552923
0.0604785
0.0647838
0.0684958
0.0717793
0.0747409
0.0774565
0.0799846
0.0823733
0.0846646
0.0868964
0.0891046
0.0913235
0.0935871
0.0959291
0.0983835
0.100984
0.103767
0.106767
0.110021
0.113568
0.117446
0.121697
0.126362
0.131487
0.137114
0.143287
0.150048
0.157434
0.165476
0.174199
0.183617
0.193735
0.204556
0.216081
0.228326
0.241339
0.255221
0.270156
0.286442
0.304519
0.324792
0.0213938
0.0390001
0.0486715
0.055305
0.0604519
0.0647075
0.0683626
0.0715843
0.0744811
0.0771304
0.0795915
0.0819133
0.0841379
0.0863036
0.088446
0.0905993
0.0927972
0.0950733
0.0974612
0.0999949
0.102709
0.10564
0.108823
0.112296
0.116098
0.120271
0.124856
0.129896
0.135436
0.141519
0.148188
0.155482
0.163433
0.172068
0.181402
0.191442
0.202189
0.213638
0.225794
0.238684
0.25238
0.267021
0.282857
0.300263
0.319612
0.0214425
0.039148
0.0488341
0.0554515
0.0605624
0.0647684
0.0683643
0.0715206
0.0743482
0.0769262
0.0793152
0.0815648
0.0837175
0.0858117
0.0878829
0.0899653
0.0920922
0.0942968
0.0966125
0.099073
0.101713
0.104567
0.107671
0.111063
0.114781
0.118865
0.123357
0.128299
0.133735
0.139709
0.146263
0.153437
0.161264
0.169773
0.178981
0.188896
0.199515
0.210832
0.222839
0.235544
0.248985
0.263256
0.278539
0.295136
0.313346
0.021543
0.0394037
0.0491261
0.0557371
0.0608155
0.0649715
0.0685057
0.0715927
0.0743463
0.0768479
0.0791593
0.0813311
0.0834063
0.0854233
0.0874176
0.0894232
0.0914731
0.0936002
0.0958373
0.0982179
0.100776
0.103546
0.106563
0.109865
0.113488
0.117472
0.121859
0.126688
0.132004
0.137849
0.144266
0.151293
0.158966
0.167313
0.176353
0.186096
0.196539
0.20767
0.219474
0.23194
0.245078
0.258933
0.273619
0.289351
0.306352
0.0216972
0.0397713
0.0495523
0.0561664
0.0612154
0.0653206
0.0687901
0.0718036
0.0744784
0.0768981
0.0791265
0.0812148
0.0832067
0.0851406
0.0870521
0.0889748
0.0909414
0.0929844
0.0951362
0.0974296
0.0998981
0.102576
0.105497
0.108699
0.112217
0.116091
0.120359
0.125062
0.130241
0.135938
0.142195
0.149051
0.15654
0.164691
0.173525
0.183052
0.19327
0.204166
0.215717
0.2279
0.240697
0.254114
0.268203
0.283084
0.298919
0.0219075
0.0402546
0.0501167
0.056743
0.061765
0.0658182
0.0692198
0.0721553
0.0747462
0.0770788
0.0792184
0.0812176
0.0831204
0.0849654
0.0867881
0.0886218
0.0904987
0.0924509
0.0945102
0.096709
0.0990801
0.101657
0.104474
0.107565
0.110968
0.114719
0.118855
0.123417
0.128444
0.133976
0.140053
0.146714
0.153991
0.161916
0.170508
0.179779
0.189728
0.200342
0.211594
0.223452
0.235879
0.24885
0.262361
0.276456
0.291231
0.0221763
0.0408572
0.0508226
0.0574696
0.0624663
0.0664658
0.0697956
0.0726484
0.0751502
0.0773902
0.0794358
0.0813403
0.0831484
0.0848988
0.0866269
0.0883655
0.0901465
0.0920011
0.0939609
0.0960574
0.0983229
0.10079
0.103492
0.106464
0.10974
0.113356
0.117349
0.121756
0.126615
0.131965
0.137844
0.144288
0.151331
0.159001
0.167319
0.176298
0.185938
0.196227
0.207137
0.21863
0.230659
0.243176
0.256139
0.269531
0.28337
0.0225066
0.0415829
0.0516732
0.0583483
0.0633202
0.0672632
0.070517
0.0732821
0.0756896
0.0778318
0.0797779
0.0815825
0.0832907
0.0849413
0.0865692
0.0882071
0.089886
0.0916368
0.09349
0.0954768
0.0976284
0.0999771
0.102555
0.105397
0.108535
0.112005
0.115841
0.12008
0.124758
0.12991
0.135574
0.141782
0.148569
0.15596
0.163977
0.172633
0.181929
0.191854
0.202382
0.213473
0.225075
0.237126
0.249562
0.262322
0.275365
0.0229015
0.0424357
0.0526715
0.0593803
0.0643267
0.0682093
0.0713822
0.0740542
0.076362
0.0784012
0.080243
0.0819429
0.0835463
0.0850922
0.0866151
0.088147
0.0897184
0.0913592
0.0930995
0.0949693
0.0969993
0.0992208
0.101666
0.104366
0.107356
0.110668
0.114335
0.118393
0.122875
0.127815
0.133248
0.139205
0.145717
0.152809
0.160503
0.168809
0.177732
0.187261
0.197372
0.208027
0.219172
0.23074
0.242654
0.254831
0.267191
0.0233647
0.04342
0.0538203
0.0605667
0.065485
0.0693021
0.072388
0.0749612
0.0771639
0.079095
0.0808278
0.0824186
0.0839131
0.0853501
0.0867636
0.0881849
0.0896439
0.0911696
0.0927909
0.0945372
0.0964382
0.0985243
0.100827
0.103377
0.106207
0.109349
0.112835
0.116699
0.120972
0.125687
0.130875
0.136566
0.142788
0.149565
0.156916
0.164853
0.173379
0.182486
0.192152
0.202341
0.213001
0.224065
0.235451
0.247067
0.258813
0.0239008
0.0445415
0.0551234
0.0619086
0.0667937
0.0705384
0.0735303
0.0759982
0.07809
0.0799083
0.0815277
0.0830055
0.0843875
0.0857121
0.0870127
0.0883199
0.0896625
0.0910684
0.0925658
0.0941827
0.095948
0.0978912
0.100042
0.102432
0.105092
0.108053
0.111346
0.115003
0.119055
0.123531
0.128462
0.133873
0.139792
0.14624
0.153235
0.160787
0.1689
0.177566
0.186766
0.196466
0.206617
0.217156
0.228002
0.239061
0.250227
0.0245159
0.0458075
0.0565858
0.0634075
0.0682516
0.0719146
0.074804
0.0771593
0.0791343
0.0808347
0.0823368
0.0836984
0.084965
0.0861745
0.0873596
0.0885498
0.0897729
0.0910557
0.092425
0.0939078
0.0955317
0.0973252
0.0993174
0.101538
0.104018
0.106786
0.109875
0.113312
0.117129
0.121354
0.126014
0.131134
0.136738
0.142846
0.149473
0.156629
0.164317
0.17253
0.18125
0.190446
0.200074
0.210072
0.220366
0.230864
0.241461
0.0252188
0.047229
0.0582148
0.0650664
0.0698575
0.0734268
0.0762033
0.0784375
0.0802892
0.0818669
0.083248
0.0844904
0.0856395
0.0867321
0.0878001
0.0888717
0.0899735
0.0911308
0.0923692
0.0937141
0.0951921
0.0968302
0.0986566
0.1007
0.10299
0.105556
0.108427
0.111633
0.115202
0.119162
0.123538
0.128354
0.133632
0.139389
0.14564
0.152392
0.159648
0.167401
0.175633
0.184318
0.193413
0.202864
0.212599
0.222532
0.232565
0.0260231
0.0488218
0.0600215
0.06689
0.071611
0.075071
0.0777216
0.0798249
0.0815462
0.0829961
0.0842529
0.0853741
0.0864042
0.0873791
0.0883294
0.0892819
0.0902616
0.0912924
0.0923983
0.0936032
0.094932
0.0964105
0.0980654
0.0999244
0.102016
0.104369
0.107012
0.109973
0.113281
0.116962
0.121041
0.125539
0.130478
0.135874
0.141738
0.148079
0.154897
0.162186
0.16993
0.178102
0.186664
0.195566
0.204742
0.214113
0.223587
0.0269505
0.0506097
0.0620217
0.0688857
0.073513
0.0768432
0.0793522
0.0813132
0.082896
0.0842131
0.0853424
0.0863407
0.0872514
0.0881088
0.0889419
0.089776
0.0906343
0.0915391
0.0925123
0.0935764
0.0947544
0.0960705
0.0975498
0.0992188
0.101105
0.103235
0.105639
0.108344
0.111376
0.114763
0.118529
0.122694
0.12728
0.1323
0.137768
0.143688
0.150062
0.156883
0.164136
0.171797
0.179829
0.188187
0.196811
0.205628
0.214554
0.0280342
0.0526271
0.0642383
0.0710646
0.0755657
0.07874
0.0810881
0.0828934
0.0843291
0.085508
0.0865072
0.0873818
0.0881733
0.0889145
0.0896322
0.0903498
0.0910888
0.0918693
0.0927115
0.0936356
0.0946628
0.0958154
0.0971167
0.0985916
0.100266
0.102167
0.104321
0.106756
0.109499
0.112576
0.116011
0.119826
0.12404
0.128668
0.133723
0.139209
0.145128
0.151473
0.158232
0.16538
0.172886
0.180707
0.188788
0.197063
0.205454
0.0293227
0.0549228
0.0667028
0.0734421
0.0777735
0.0807588
0.0829228
0.0845569
0.085836
0.0868715
0.0877383
0.0884891
0.089163
0.0897903
0.0903956
0.0910003
0.0916234
0.0922831
0.0929972
0.0937839
0.0946621
0.095652
0.096775
0.0980537
0.0995125
0.101177
0.103073
0.105227
0.107667
0.110417
0.113502
0.116945
0.120765
0.124979
0.129597
0.134628
0.140073
0.145927
0.152178
0.158806
0.165781
0.173066
0.180609
0.188352
0.196223
0.0308874
0.0575681
0.0694594
0.0760402
0.0801437
0.0828985
0.0848508
0.0862964
0.0874087
0.0882958
0.0890287
0.0896567
0.0902155
0.0907327
0.0912301
0.0917265
0.0922388
0.0927825
0.0933733
0.0940269
0.0947599
0.09559
0.0965362
0.097619
0.0988606
0.100284
0.101915
0.103779
0.105901
0.108307
0.111023
0.114069
0.117469
0.121238
0.12539
0.129934
0.134874
0.140207
0.145924
0.152007
0.158433
0.165167
0.172164
0.179371
0.186725
0.0328492
0.0606719
0.0725722
0.0788904
0.0826888
0.0851615
0.0868696
0.0881075
0.0890427
0.0897769
0.0903756
0.090883
0.0913308
0.0917429
0.0921382
0.0925327
0.0929405
0.0933747
0.0938485
0.0943751
0.0949685
0.0956437
0.0964172
0.0973068
0.0983321
0.0995143
0.100876
0.102441
0.104234
0.10628
0.108604
0.111228
0.114175
0.117464
0.121109
0.125123
0.129511
0.134276
0.139411
0.144904
0.150736
0.156878
0.163294
0.169937
0.176752
0.0354131
0.0644102
0.0761402
0.0820416
0.0854302
0.0875561
0.088982
0.0899914
0.0907396
0.091318
0.0917836
0.0921743
0.0925167
0.0928304
0.093131
0.0934311
0.0937423
0.094075
0.0944397
0.0948469
0.0953081
0.0958356
0.0964427
0.0971446
0.0979578
0.0989004
0.0999923
0.101255
0.102711
0.104383
0.106295
0.108471
0.110932
0.113698
0.116787
0.120214
0.123988
0.128114
0.132593
0.137418
0.142576
0.148047
0.153802
0.159806
0.166014
0.0388924
0.0690967
0.0803263
0.0855687
0.0884005
0.0900973
0.091198
0.0919583
0.0925118
0.0929338
0.0932701
0.0935503
0.0937948
0.0940185
0.0942329
0.0944477
0.0946713
0.0949116
0.0951764
0.0954736
0.0958119
0.0962007
0.0966505
0.097173
0.0977814
0.0984905
0.0993166
0.100277
0.101393
0.102682
0.104168
0.105871
0.107812
0.110013
0.112491
0.115264
0.118343
0.12174
0.125459
0.1295
0.133859
0.138525
0.14348
0.148701
0.154156
0.0438928
0.0753582
0.085392
0.0895607
0.0916277
0.0927982
0.0935315
0.0940277
0.0943847
0.0946553
0.0948703
0.0950495
0.0952061
0.0953498
0.0954883
0.0956279
0.0957741
0.0959321
0.0961072
0.096305
0.0965312
0.0967925
0.0970962
0.0974508
0.0978657
0.0983517
0.0989209
0.099587
0.100365
0.101271
0.102321
0.103536
0.104931
0.106527
0.108341
0.110388
0.112685
0.115243
0.118072
0.121178
0.124564
0.128229
0.132166
0.136367
0.140816
0.052817
0.0844243
0.0915864
0.0939966
0.0950654
0.0956367
0.0959879
0.0962265
0.0964006
0.0965349
0.0966435
0.0967354
0.096817
0.0968929
0.0969669
0.0970423
0.0971219
0.0972086
0.0973054
0.0974153
0.0975417
0.0976883
0.0978596
0.0980605
0.0982967
0.0985747
0.098902
0.0992871
0.0997395
0.10027
0.100889
0.101611
0.102447
0.103411
0.104517
0.105778
0.107207
0.108815
0.110613
0.11261
0.114812
0.117225
0.119853
0.122696
0.125754
0.0858669
0.0976248
0.0981469
0.0983399
0.0984378
0.0984987
0.0985462
0.0985864
0.0986212
0.0986516
0.0986785
0.0987029
0.0987256
0.0987476
0.0987696
0.0987924
0.0988169
0.0988438
0.0988741
0.0989087
0.0989486
0.0989952
0.0990498
0.0991142
0.0991901
0.0992798
0.099386
0.0995115
0.0996598
0.0998346
0.10004
0.100281
0.100563
0.100891
0.101271
0.101708
0.102209
0.102778
0.103423
0.104147
0.104955
0.105853
0.106844
0.107931
0.10912
)
;

boundaryField
{
    leftWall
    {
        type            kqRWallFunction;
        value           nonuniform List<scalar> 
42
(
0.0261665
0.0258875
0.0255826
0.0252574
0.0249173
0.0245678
0.0242144
0.0238625
0.0235172
0.0231836
0.0228666
0.0225705
0.0222994
0.0220567
0.0218462
0.0216714
0.0215359
0.0214427
0.0213946
0.0213938
0.0214425
0.021543
0.0216972
0.0219075
0.0221763
0.0225066
0.0229015
0.0233647
0.0239008
0.0245159
0.0252188
0.0260231
0.0269505
0.0280342
0.0293227
0.0308874
0.0328492
0.0354131
0.0388924
0.0438928
0.052817
0.0858669
)
;
    }
    rightWall
    {
        type            kqRWallFunction;
        value           nonuniform 0();
    }
    lowerWall
    {
        type            kqRWallFunction;
        value           nonuniform 0();
    }
    atmosphere
    {
        type            inletOutlet;
        inletValue      uniform 0.1;
        value           uniform 0.1;
    }
    defaultFaces
    {
        type            empty;
    }
    procBoundary2to0
    {
        type            processor;
        value           nonuniform List<scalar> 
46
(
0.146026
0.150922
0.156068
0.161484
0.167189
0.1732
0.179528
0.186179
0.19315
0.200433
0.208011
0.215857
0.223933
0.232191
0.240572
0.249006
0.257418
0.265725
0.273844
0.281696
0.289191
0.29626
0.302848
0.308922
0.314471
0.0264141
0.0485768
0.0607489
0.0692058
0.0758812
0.0815271
0.0865139
0.0910535
0.0952805
0.0992883
0.103146
0.106908
0.110621
0.114322
0.118049
0.121835
0.125709
0.129702
0.133843
0.138159
0.138159
)
;
    }
    procBoundary2to3
    {
        type            processor;
        value           nonuniform List<scalar> 
43
(
0.314426
0.309802
0.305956
0.303189
0.301756
0.301834
0.303483
0.306671
0.311255
0.316986
0.323525
0.330457
0.337323
0.343646
0.348964
0.352861
0.354867
0.354715
0.352315
0.34778
0.341411
0.333643
0.324979
0.31592
0.306779
0.297696
0.288674
0.279661
0.270586
0.261383
0.25204
0.242583
0.233056
0.223488
0.213871
0.204139
0.194152
0.183674
0.172371
0.159807
0.145492
0.129026
0.110415
)
;
    }
}


// ************************************************************************* //
