/*--------------------------------*- C++ -*----------------------------------*\
| =========                 |                                                 |
| \\      /  F ield         | OpenFOAM: The Open Source CFD Toolbox           |
|  \\    /   O peration     | Version:  5.0                                   |
|   \\  /    A nd           | Web:      www.OpenFOAM.org                      |
|    \\/     M anipulation  |                                                 |
\*---------------------------------------------------------------------------*/
FoamFile
{
    version     2.0;
    format      ascii;
    class       volScalarField;
    location    "0.55";
    object      nut;
}
// * * * * * * * * * * * * * * * * * * * * * * * * * * * * * * * * * * * * * //

dimensions      [0 2 -1 0 0 0 0];

internalField   nonuniform List<scalar> 
1915
(
0.0117971
0.0119643
0.0121045
0.0122191
0.0123093
0.0123767
0.0124232
0.0124507
0.0124615
0.0124578
0.0124419
0.012416
0.012382
0.0123414
0.0122958
0.012246
0.0121929
0.0121368
0.012078
0.0120168
0.0119533
0.0118869
0.0118179
0.0117466
0.0116736
0.000114563
0.000890841
0.00192925
0.00297331
0.00396213
0.00487701
0.00571389
0.00647509
0.00716569
0.00779176
0.00835947
0.00887458
0.0093422
0.00976666
0.0101516
0.0104997
0.0108134
0.0110942
0.0113434
0.0115619
0.0117507
0.0119105
0.0120422
0.012147
0.0122263
0.0122818
0.0123154
0.0123295
0.0123262
0.0123083
0.012278
0.0122378
0.0121898
0.0121359
0.0120777
0.0120163
0.0119524
0.0118866
0.0118192
0.0117503
0.0116802
0.0116086
0.0115357
0.0114618
0.0113877
0.000113942
0.000887615
0.00192596
0.00297032
0.00395863
0.00487201
0.00570666
0.00646518
0.0071529
0.00777611
0.00834109
0.00885366
0.00931892
0.00974117
0.0101239
0.0104698
0.0107809
0.0110587
0.0113043
0.0115184
0.0117018
0.011855
0.0119791
0.0120751
0.0121444
0.0121889
0.0122105
0.0122119
0.0121955
0.012164
0.0121203
0.0120668
0.012006
0.0119397
0.0118697
0.0117976
0.011724
0.0116495
0.0115745
0.0114992
0.0114238
0.0113483
0.0112728
0.0111976
0.0111236
0.000113261
0.000883705
0.00192111
0.00296497
0.00395207
0.00486341
0.00569537
0.00645084
0.0071354
0.00775553
0.00831764
0.00882759
0.00929051
0.00971063
0.0100913
0.0104353
0.0107442
0.0110196
0.0112622
0.0114726
0.0116515
0.0117992
0.0119166
0.0120048
0.0120652
0.0120996
0.0121104
0.0121001
0.0120715
0.0120276
0.0119714
0.0119056
0.011833
0.0117556
0.0116753
0.0115935
0.0115113
0.0114294
0.0113483
0.011268
0.0111888
0.011111
0.0110345
0.0109597
0.0108874
0.000112531
0.000879182
0.00191481
0.00295741
0.00394266
0.00485143
0.0056803
0.00643242
0.00711362
0.00773053
0.00828968
0.00879701
0.00925763
0.00967575
0.0100547
0.0103969
0.0107042
0.0109777
0.011218
0.0114256
0.0116008
0.011744
0.0118559
0.0119374
0.01199
0.0120156
0.0120167
0.0119958
0.0119562
0.011901
0.0118335
0.0117566
0.0116733
0.0115859
0.0114965
0.0114067
0.0113176
0.0112299
0.0111442
0.0110606
0.0109796
0.0109012
0.0108257
0.0107533
0.0106847
0.000111765
0.000874118
0.00190719
0.00294776
0.00393054
0.00483625
0.00566169
0.00641023
0.00708791
0.00770153
0.00825771
0.00876244
0.00922085
0.00963713
0.0100145
0.0103554
0.0106615
0.0109336
0.0111723
0.0113779
0.0115504
0.0116902
0.0117976
0.0118737
0.0119199
0.011938
0.0119306
0.0119006
0.0118512
0.011786
0.0117083
0.0116216
0.0115289
0.0114329
0.0113358
0.0112394
0.011145
0.0110532
0.0109648
0.01088
0.0107991
0.0107224
0.01065
0.0105823
0.0105194
0.000110973
0.000868589
0.00189835
0.00293617
0.00391585
0.00481806
0.00563974
0.00638451
0.00705858
0.00766888
0.00822212
0.00872434
0.00918066
0.00959527
0.00997137
0.0103113
0.0106165
0.0108878
0.0111257
0.01133
0.0115009
0.0116383
0.0117425
0.0118145
0.0118555
0.0118675
0.0118531
0.0118153
0.0117576
0.0116836
0.0115972
0.011502
0.0114013
0.0112981
0.0111948
0.0110933
0.0109951
0.0109011
0.0108119
0.0107278
0.0106493
0.0105765
0.0105097
0.0104489
0.0103944
0.000110167
0.000862675
0.00188842
0.00292275
0.00389874
0.00479699
0.00561463
0.00635548
0.00702588
0.00763288
0.00818325
0.00868305
0.00913743
0.00955055
0.00992561
0.0102648
0.0105696
0.0108407
0.0110784
0.0112823
0.0114525
0.0115886
0.0116909
0.0117601
0.0117974
0.0118047
0.0117848
0.0117406
0.011676
0.0115948
0.0115011
0.0113987
0.0112915
0.0111825
0.0110744
0.0109694
0.0108691
0.0107744
0.0106863
0.010605
0.0105309
0.0104643
0.0104054
0.0103542
0.0103106
0.000109359
0.000856459
0.00187751
0.00290763
0.00387932
0.00477319
0.00558654
0.00632333
0.00699005
0.00759379
0.00814137
0.00863887
0.00909146
0.00950328
0.00987751
0.0102164
0.0105212
0.0107925
0.0110306
0.011235
0.0114053
0.0115413
0.0116428
0.0117106
0.0117456
0.0117498
0.0117258
0.0116769
0.0116068
0.0115199
0.0114203
0.0113123
0.0111999
0.0110865
0.0109751
0.010868
0.010767
0.0106734
0.0105879
0.0105111
0.0104434
0.0103851
0.0103364
0.0102971
0.0102668
0.000108562
0.000850025
0.00186574
0.00289094
0.00385773
0.00474681
0.00555562
0.00628826
0.00695129
0.00755183
0.00809673
0.00859206
0.00904299
0.00945369
0.00982731
0.010166
0.0104712
0.0107433
0.0109823
0.0111879
0.0113593
0.0114962
0.0115983
0.0116659
0.0117001
0.0117027
0.0116762
0.0116241
0.0115503
0.0114591
0.0113551
0.0112429
0.0111267
0.0110102
0.0108968
0.0107889
0.0106886
0.0105972
0.0105158
0.010445
0.0103853
0.010337
0.0103003
0.0102749
0.0102602
0.000107787
0.00084346
0.00185323
0.0028728
0.00383412
0.004718
0.00552205
0.00625045
0.0069098
0.00750723
0.00804954
0.00854282
0.00899224
0.00940196
0.00977514
0.010114
0.0104198
0.010693
0.0109336
0.011141
0.0113144
0.0114532
0.011557
0.0116258
0.0116607
0.0116632
0.0116359
0.0115821
0.0115061
0.0114122
0.0113053
0.0111902
0.0110715
0.0109532
0.0108388
0.0107312
0.0106326
0.0105445
0.0104682
0.0104045
0.0103539
0.0103168
0.0102935
0.0102836
0.0102861
0.000107045
0.000836848
0.00184009
0.00285335
0.00380863
0.00468693
0.00548602
0.00621012
0.00686581
0.00746019
0.00800003
0.00849137
0.00893938
0.00934823
0.0097211
0.0100602
0.0103669
0.0106416
0.0108842
0.011094
0.0112702
0.0114119
0.0115185
0.0115899
0.0116269
0.0116308
0.0116043
0.0115506
0.0114739
0.0113789
0.0112705
0.0111539
0.0110338
0.0109148
0.0108004
0.0106939
0.0105977
0.0105136
0.0104429
0.0103868
0.0103458
0.0103206
0.0103114
0.0103178
0.0103387
0.000106348
0.000830274
0.00182646
0.00283274
0.00378145
0.00465382
0.00544776
0.0061675
0.00681957
0.00741098
0.00794843
0.00843792
0.00888459
0.00929263
0.00966528
0.0100048
0.0103125
0.0105889
0.0108339
0.0110467
0.0112264
0.0113719
0.0114824
0.0115577
0.0115981
0.0116051
0.011581
0.0115289
0.0114532
0.0113585
0.0112501
0.0111332
0.0110129
0.010894
0.0107804
0.0106755
0.0105821
0.0105022
0.0104373
0.0103888
0.0103574
0.010344
0.0103488
0.0103714
0.0104109
0.000105705
0.000823826
0.00181247
0.00281117
0.0037528
0.00461892
0.00540755
0.00612289
0.00677137
0.00735987
0.00789499
0.00838268
0.00882804
0.00923531
0.00960774
0.00994767
0.0102565
0.0105349
0.0107825
0.0109987
0.0111825
0.0113326
0.0114481
0.0115284
0.0115737
0.0115853
0.0115651
0.0115164
0.0114433
0.0113505
0.0112434
0.0111274
0.0110079
0.0108899
0.0107776
0.0106747
0.0105841
0.0105082
0.0104488
0.0104072
0.0103848
0.0103822
0.0104001
0.0104383
0.0104956
0.000105126
0.000817607
0.0017983
0.00278886
0.00372296
0.00458255
0.00536573
0.00607664
0.00672155
0.00730719
0.00784003
0.00832592
0.00876996
0.00917639
0.00954855
0.00988886
0.0101988
0.0104791
0.0107296
0.0109496
0.011138
0.0112934
0.0114148
0.0115013
0.0115529
0.0115705
0.011556
0.0115123
0.0114433
0.011354
0.0112495
0.0111357
0.0110179
0.0109014
0.0107908
0.0106899
0.010602
0.0105297
0.0104748
0.0104393
0.0104243
0.0104311
0.0104603
0.010512
0.0105852
0.000104621
0.00081173
0.00178416
0.00276609
0.00369226
0.00454508
0.00532271
0.00602918
0.00667054
0.00725335
0.0077839
0.00826796
0.00871059
0.00911607
0.00948781
0.00982835
0.0101393
0.0104215
0.010675
0.0108989
0.0110923
0.0112536
0.0113817
0.0114755
0.0115347
0.0115598
0.0115525
0.0115154
0.0114523
0.011368
0.0112677
0.0111571
0.0110419
0.0109276
0.0108189
0.0107201
0.0106344
0.0105648
0.0105134
0.0104823
0.010473
0.0104868
0.0105247
0.010587
0.0106729
0.0001042
0.000806319
0.00177027
0.00274318
0.00366111
0.00450697
0.00527898
0.005981
0.00661885
0.00719881
0.00772703
0.00820916
0.00865023
0.00905455
0.00942564
0.00976616
0.0100779
0.0103619
0.0106181
0.0108461
0.0110447
0.0112125
0.011348
0.0114501
0.0115181
0.0115521
0.0115536
0.0115248
0.0114692
0.0113915
0.0112967
0.0111907
0.0110791
0.0109675
0.010861
0.010764
0.0106801
0.0106122
0.010563
0.0105344
0.0105285
0.0105466
0.0105899
0.010659
0.0107532
0.000103872
0.00080149
0.00175688
0.00272048
0.00362995
0.00446875
0.00523513
0.00593272
0.00656706
0.00714416
0.00766997
0.00815001
0.00858928
0.00899214
0.00936222
0.00970236
0.0100145
0.0102999
0.0105588
0.0107907
0.0109947
0.0111692
0.0113128
0.0114239
0.0115017
0.0115461
0.0115579
0.011539
0.0114928
0.0114233
0.0113356
0.0112354
0.0111284
0.0110203
0.0109163
0.010821
0.0107382
0.0106712
0.0106225
0.0105946
0.0105894
0.0106088
0.0106539
0.0107252
0.0108232
0.000103645
0.000797347
0.0017442
0.00269835
0.00359927
0.00443101
0.00519182
0.00588504
0.00651588
0.00709008
0.00761332
0.00809104
0.00852819
0.0089292
0.00929782
0.00963708
0.00994919
0.0102355
0.0104966
0.0107323
0.0109415
0.0111229
0.0112748
0.0113957
0.0114844
0.0115403
0.0115639
0.0115567
0.0115214
0.0114619
0.011383
0.0112901
0.0111889
0.0110851
0.010984
0.0108904
0.0108084
0.0107413
0.0106919
0.0106626
0.0106557
0.010673
0.0107159
0.010785
0.0108818
0.000103525
0.000793984
0.00173247
0.00267719
0.00356963
0.00439444
0.0051498
0.00583876
0.00646614
0.00703734
0.00755784
0.00803293
0.00846756
0.0088662
0.00923277
0.00957052
0.0098819
0.0101686
0.0104313
0.0106702
0.0108844
0.0110725
0.0112331
0.0113642
0.0114645
0.0115331
0.0115698
0.0115758
0.0115533
0.0115057
0.0114373
0.0113533
0.0112592
0.0111608
0.0110634
0.0109718
0.0108903
0.0108224
0.0107711
0.0107388
0.0107278
0.0107401
0.0107771
0.0108397
0.0109298
0.00010352
0.000791484
0.00172194
0.00265743
0.00354162
0.00435978
0.00510994
0.00579479
0.00641875
0.00698686
0.00750438
0.00797646
0.00840805
0.00880372
0.00916754
0.00950299
0.00981283
0.010099
0.0103627
0.0106041
0.0108227
0.0110173
0.0111864
0.011328
0.0114405
0.0115226
0.0115737
0.0115945
0.0115865
0.0115526
0.0114966
0.0114233
0.0113381
0.0112464
0.0111536
0.0110646
0.0109838
0.0109149
0.0108609
0.0108243
0.0108074
0.0108121
0.01084
0.0108922
0.0109707
0.000103634
0.000789923
0.00171282
0.0026395
0.0035159
0.00432783
0.00507316
0.00575413
0.00637473
0.00693966
0.00745391
0.00792254
0.00835049
0.00874244
0.00910268
0.00943492
0.00974225
0.010027
0.0102906
0.0105336
0.0107558
0.0109563
0.0111335
0.0112856
0.0114105
0.0115068
0.0115734
0.0116103
0.0116185
0.0116002
0.0115586
0.0114981
0.0114235
0.0113402
0.0112534
0.0111681
0.0110887
0.0110189
0.010962
0.0109204
0.0108963
0.0108918
0.0109082
0.0109468
0.0110097
0.000103872
0.000789361
0.00170536
0.00262385
0.00349313
0.00429945
0.00504045
0.00571787
0.00633523
0.00689685
0.00740751
0.00787217
0.00829579
0.0086832
0.00903889
0.00936687
0.00967057
0.00995265
0.010215
0.0104585
0.0106834
0.0108888
0.0110735
0.0112355
0.0113729
0.0114837
0.0115665
0.0116207
0.0116466
0.0116457
0.0116206
0.011575
0.0115133
0.0114404
0.0113614
0.0112812
0.0112043
0.0111345
0.011075
0.0110285
0.0109969
0.0109822
0.0109859
0.0110089
0.0110531
0.000104237
0.000789849
0.00169975
0.00261093
0.00347399
0.00427555
0.00501287
0.00568716
0.00630143
0.00685964
0.00736635
0.00782645
0.00824498
0.00862691
0.00897698
0.00929953
0.00959832
0.00987643
0.0101361
0.0103788
0.0106049
0.0108141
0.0110052
0.0111765
0.0113258
0.0114511
0.0115505
0.0116228
0.0116677
0.011686
0.0116794
0.0116509
0.0116044
0.0115444
0.0114754
0.0114024
0.0113298
0.0112613
0.0112004
0.0111496
0.0111111
0.0110865
0.0110771
0.011084
0.0111083
0.000104734
0.000791425
0.00169621
0.0026012
0.0034592
0.00425704
0.0049915
0.00566319
0.00627458
0.00682928
0.00733166
0.00778658
0.00819917
0.0085746
0.00891789
0.00923371
0.00952621
0.00979888
0.0100544
0.0102947
0.0105205
0.0107319
0.0109281
0.0111074
0.0112678
0.011407
0.0115229
0.0116138
0.0116787
0.0117175
0.0117313
0.0117222
0.0116935
0.0116488
0.0115926
0.0115293
0.0114632
0.0113983
0.0113377
0.0112843
0.0112401
0.0112067
0.0111854
0.0111771
0.0111821
0.000105367
0.000794116
0.00169494
0.0025951
0.00344946
0.00424486
0.00497746
0.0056472
0.00625598
0.00680709
0.00730473
0.00775378
0.00815952
0.00852736
0.00886262
0.00917034
0.00945506
0.0097207
0.00997041
0.0102065
0.0104303
0.0106421
0.0108416
0.0110274
0.0111975
0.0113497
0.0114815
0.0115908
0.011676
0.0117365
0.0117723
0.0117847
0.0117762
0.0117498
0.0117092
0.0116586
0.011602
0.0115432
0.0114856
0.0114319
0.0113842
0.0113442
0.011313
0.0112914
0.0112796
0.000106138
0.00079794
0.0016961
0.00259306
0.00344546
0.00423994
0.00497187
0.00564042
0.00624694
0.00679437
0.00728684
0.0077293
0.00812721
0.0084863
0.00881223
0.00911042
0.00938582
0.00964278
0.00988489
0.0101149
0.0103346
0.0105449
0.0107457
0.010936
0.011114
0.0112775
0.011424
0.0115511
0.0116566
0.0117391
0.011798
0.0118338
0.0118478
0.0118423
0.0118205
0.0117859
0.0117421
0.0116929
0.0116414
0.0115905
0.0115423
0.0114986
0.0114605
0.0114286
0.0114033
0.000107054
0.000802903
0.00169987
0.0025955
0.00344793
0.00424324
0.00497587
0.00564411
0.00624875
0.00679245
0.00727927
0.00771435
0.00810342
0.00845254
0.0087678
0.00905499
0.0093195
0.0095661
0.00979881
0.0100208
0.0102344
0.010441
0.0106407
0.0108331
0.0110168
0.0111895
0.011349
0.0114924
0.0116173
0.0117217
0.0118042
0.0118644
0.0119028
0.0119209
0.0119209
0.0119056
0.0118784
0.0118424
0.0118009
0.0117565
0.0117116
0.0116679
0.0116265
0.0115882
0.0115533
0.000108117
0.000809005
0.00170641
0.00260288
0.00345758
0.00425575
0.00499062
0.00565956
0.00626274
0.0068026
0.00728327
0.0077101
0.00808923
0.00842714
0.00873033
0.00900507
0.00925714
0.00949172
0.00971326
0.00992535
0.0101307
0.0103311
0.0105274
0.0107193
0.0109059
0.0110854
0.0112553
0.011413
0.0115557
0.0116809
0.0117867
0.0118717
0.0119357
0.0119793
0.0120037
0.012011
0.012004
0.0119854
0.011958
0.0119244
0.0118871
0.0118476
0.0118074
0.0117672
0.0117274
0.000109333
0.000816241
0.0017159
0.00261567
0.00347523
0.00427853
0.00501739
0.00568809
0.00629024
0.00682611
0.00729999
0.00771763
0.00808564
0.00841102
0.00870077
0.00896161
0.00919975
0.00942074
0.00962939
0.00982969
0.0100248
0.0102168
0.010407
0.0105957
0.0107823
0.0109653
0.0111427
0.0113118
0.0114698
0.0116138
0.0117415
0.0118509
0.0119409
0.012011
0.0120618
0.0120946
0.0121111
0.0121137
0.0121048
0.0120866
0.0120615
0.0120311
0.0119969
0.0119598
0.0119202
0.000110709
0.000824614
0.00172857
0.00263445
0.00350181
0.00431281
0.00505755
0.00573114
0.00633262
0.00686422
0.00733056
0.00773791
0.00809352
0.00840499
0.00867989
0.00892543
0.00914822
0.00935417
0.00954839
0.00973519
0.00991801
0.0100994
0.010281
0.0104637
0.0106471
0.0108304
0.0110117
0.0111888
0.0113587
0.0115188
0.011666
0.0117981
0.0119131
0.0120098
0.012088
0.012148
0.0121909
0.0122181
0.0122316
0.0122333
0.0122252
0.012209
0.012186
0.0121572
0.0121234
0.00011226
0.000834156
0.00174473
0.00265997
0.00353848
0.00436005
0.00511272
0.0057903
0.00639135
0.00691819
0.00737599
0.00777175
0.0081135
0.00840961
0.00866825
0.00889715
0.0091033
0.00929292
0.00947136
0.00964317
0.00981204
0.00998081
0.0101515
0.0103253
0.0105024
0.0106824
0.0108638
0.0110448
0.0112228
0.011395
0.0115583
0.0117101
0.011848
0.0119701
0.0120753
0.0121632
0.0122339
0.0122882
0.0123275
0.012353
0.0123664
0.0123692
0.0123626
0.0123477
0.0123251
0.000114005
0.000844955
0.00176488
0.00269329
0.00358681
0.00442215
0.00518488
0.00586746
0.00646803
0.0069893
0.00743721
0.00781979
0.00814604
0.0084252
0.00866616
0.00887714
0.00906551
0.00923772
0.00939929
0.00955491
0.0097084
0.00986284
0.0100205
0.0101828
0.0103506
0.0105237
0.0107014
0.010882
0.0110635
0.0112431
0.0114182
0.0115856
0.0117429
0.0118875
0.0120178
0.0121325
0.0122311
0.0123136
0.0123806
0.0124328
0.0124714
0.0124975
0.0125122
0.0125162
0.0125104
0.000115981
0.000857203
0.00178981
0.00273591
0.00364893
0.00450159
0.00527658
0.0059649
0.00656452
0.00707886
0.00751506
0.00788245
0.00819127
0.00845178
0.00867361
0.0088655
0.00903512
0.00918907
0.00933297
0.00947152
0.0096086
0.00974735
0.00989022
0.010039
0.0101946
0.0103576
0.0105275
0.0107034
0.0108834
0.0110654
0.0112469
0.0114249
0.0115966
0.0117595
0.0119112
0.01205
0.0121747
0.0122846
0.0123795
0.0124597
0.0125256
0.012578
0.0126176
0.0126451
0.012661
0.000118244
0.000871264
0.00182075
0.00279011
0.00372794
0.00460187
0.00539119
0.00608549
0.00668298
0.00718829
0.00761026
0.00795993
0.00824906
0.00848902
0.00869027
0.008862
0.0090121
0.00914724
0.00927299
0.00939396
0.00951397
0.00963613
0.00976295
0.00989632
0.0100376
0.0101874
0.010346
0.0105127
0.0106864
0.0108654
0.0110474
0.0112299
0.0114102
0.0115856
0.0117535
0.0119117
0.0120587
0.012193
0.0123139
0.0124211
0.0125145
0.0125943
0.0126609
0.0127146
0.0127559
0.000120875
0.000887788
0.00185972
0.00285937
0.0038284
0.00472793
0.00553333
0.00623301
0.00682604
0.00731908
0.00772335
0.00805211
0.00831886
0.00853624
0.00871547
0.00886612
0.00899618
0.00911225
0.00921971
0.00932298
0.00942569
0.00953081
0.00964077
0.00975753
0.00988255
0.0100168
0.0101608
0.0103145
0.0104772
0.0106477
0.0108243
0.0110048
0.0111869
0.0113679
0.0115452
0.0117166
0.0118799
0.0120334
0.012176
0.0123067
0.012425
0.0125308
0.0126239
0.0127045
0.0127726
0.000123993
0.000907944
0.00191003
0.00294932
0.00395748
0.00488727
0.00570968
0.00641256
0.00699701
0.0074729
0.00785472
0.00815849
0.00839974
0.00859235
0.00874819
0.00887704
0.00898683
0.0090839
0.00917331
0.00925915
0.00934475
0.00943282
0.00952565
0.0096251
0.00973269
0.00984956
0.00997648
0.0101137
0.0102612
0.0104181
0.0105834
0.0107554
0.010932
0.011111
0.01129
0.0114665
0.0116385
0.011804
0.0119613
0.0121094
0.0122473
0.0123744
0.0124905
0.0125953
0.0126888
0.000127796
0.000933914
0.00197766
0.00306973
0.00412721
0.00509189
0.00593032
0.00663133
0.00720012
0.00765151
0.0080044
0.00827811
0.00849025
0.00865583
0.00878708
0.00889372
0.00898335
0.00906185
0.00913382
0.00920288
0.00927194
0.00934341
0.00941928
0.00950127
0.00959082
0.00968912
0.00979709
0.00991531
0.010044
0.0101829
0.0103315
0.0104885
0.0106525
0.0108216
0.0109937
0.0111666
0.0113381
0.0115064
0.0116696
0.0118263
0.0119754
0.0121162
0.0122482
0.012371
0.0124844
0.000132615
0.000970027
0.00207442
0.00323951
0.00435966
0.00536243
0.00621128
0.00689977
0.00744081
0.00785665
0.00817185
0.00840925
0.00858832
0.00872467
0.00883044
0.00891485
0.00898483
0.00904559
0.00910109
0.00915436
0.00920784
0.0092635
0.00932303
0.00938789
0.00945937
0.0095386
0.00962651
0.00972386
0.00983112
0.00994843
0.0100756
0.010212
0.0103566
0.010508
0.0106647
0.0108246
0.0109858
0.0111464
0.0113048
0.0114593
0.0116088
0.0117525
0.0118898
0.0120203
0.0121441
0.00013892
0.00102602
0.00222699
0.00349936
0.00469877
0.00573608
0.00657843
0.0072326
0.00772534
0.00808928
0.00835521
0.008549
0.0086909
0.00879619
0.00887611
0.00893878
0.0089901
0.00903434
0.00907466
0.00911344
0.00915256
0.00919354
0.00923769
0.00928617
0.00934005
0.00940028
0.00946776
0.00954324
0.0096273
0.00972033
0.00982244
0.00993343
0.0100528
0.0101795
0.0103125
0.0104502
0.010591
0.0107332
0.0108751
0.0110154
0.0111526
0.0112861
0.0114153
0.0115399
0.01166
0.000147608
0.00112736
0.00250487
0.00394584
0.00523585
0.00627921
0.00707051
0.00764735
0.00805819
0.00834725
0.00854986
0.00869233
0.00879355
0.00886678
0.00892125
0.00896333
0.00899746
0.00902675
0.00905346
0.00907925
0.00910543
0.00913304
0.00916302
0.00919618
0.00923331
0.00927516
0.00932242
0.00937577
0.00943576
0.00950285
0.00957734
0.00965929
0.00974852
0.00984456
0.00994664
0.0100537
0.0101646
0.0102778
0.0103918
0.0105054
0.0106173
0.0107266
0.0108327
0.0109355
0.0110352
0.00016224
0.00135462
0.00312289
0.00482794
0.00615737
0.00709587
0.00773071
0.00815333
0.00843378
0.00862052
0.00874586
0.00883103
0.00888992
0.00893164
0.00896219
0.00898555
0.0090044
0.00902059
0.00903541
0.00904981
0.00906453
0.00908018
0.00909729
0.00911636
0.00913785
0.00916224
0.00918998
0.00922154
0.00925734
0.00929775
0.00934307
0.00939348
0.00944901
0.00950951
0.00957462
0.00964374
0.00971609
0.00979067
0.00986637
0.00994203
0.0100165
0.0100889
0.0101584
0.0102246
0.0102876
0.000208735
0.00217728
0.00503988
0.0068502
0.0077861
0.00828002
0.00855677
0.00872033
0.00882094
0.00888468
0.00892602
0.00895345
0.0089721
0.00898515
0.00899464
0.00900188
0.00900773
0.00901278
0.00901743
0.00902199
0.00902669
0.00903172
0.00903725
0.00904345
0.00905047
0.00905849
0.00906767
0.00907818
0.00909019
0.00910385
0.00911931
0.00913668
0.00915603
0.00917735
0.00920057
0.00922552
0.00925193
0.00927941
0.00930748
0.00933555
0.00936299
0.00938912
0.00941329
0.00943492
0.00945355
)
;

boundaryField
{
    leftWall
    {
        type            nutkWallFunction;
        Cmu             0.09;
        kappa           0.41;
        E               9.8;
        value           nonuniform List<scalar> 
42
(
7.25831e-06
7.16292e-06
7.05801e-06
6.94528e-06
6.82653e-06
6.70353e-06
6.57812e-06
6.45217e-06
6.32758e-06
6.20621e-06
6.08992e-06
5.98049e-06
5.87954e-06
5.7886e-06
5.70922e-06
5.64301e-06
5.59146e-06
5.55591e-06
5.53749e-06
5.53718e-06
5.55583e-06
5.59416e-06
5.65281e-06
5.73239e-06
5.8335e-06
5.95676e-06
6.10277e-06
6.27223e-06
6.46595e-06
6.68516e-06
6.93185e-06
7.20936e-06
7.52328e-06
7.88238e-06
8.29912e-06
8.79138e-06
9.38879e-06
1.01395e-05
1.11102e-05
1.24221e-05
1.45661e-05
2.10801e-05
)
;
    }
    rightWall
    {
        type            nutkWallFunction;
        Cmu             0.09;
        kappa           0.41;
        E               9.8;
        value           nonuniform 0();
    }
    lowerWall
    {
        type            nutkWallFunction;
        Cmu             0.09;
        kappa           0.41;
        E               9.8;
        value           nonuniform 0();
    }
    atmosphere
    {
        type            calculated;
        value           uniform 0.009;
    }
    defaultFaces
    {
        type            empty;
    }
    procBoundary2to0
    {
        type            processor;
        value           nonuniform List<scalar> 
46
(
0.0118398
0.012015
0.0121645
0.0122895
0.0123914
0.0124714
0.0125314
0.0125732
0.0125988
0.0126103
0.0126096
0.0125987
0.0125792
0.0125527
0.0125203
0.0124829
0.0124413
0.0123958
0.0123466
0.0122941
0.0122378
0.0121776
0.0121135
0.0120459
0.0119753
0.000115114
0.000893309
0.00193084
0.00297377
0.00396239
0.00487814
0.00571673
0.00648017
0.00717328
0.00780192
0.00837215
0.00888967
0.00935959
0.00978632
0.0101736
0.0105243
0.0108409
0.0111252
0.0113786
0.0116022
0.0116022
)
;
    }
    procBoundary2to3
    {
        type            processor;
        value           nonuniform List<scalar> 
43
(
0.0116006
0.0113148
0.0110519
0.0108187
0.0106207
0.0104622
0.0103465
0.0102746
0.0102453
0.0102555
0.0103001
0.0103727
0.0104655
0.0105702
0.010678
0.0107805
0.0108722
0.0109483
0.0110067
0.0110482
0.0110765
0.0110979
0.0111203
0.0111521
0.0112022
0.0112782
0.0113845
0.0115219
0.0116881
0.0118784
0.0120847
0.0122953
0.0124952
0.0126657
0.0127848
0.0128281
0.0127706
0.0125882
0.0122609
0.0117759
0.0111324
0.0103478
0.00946894
)
;
    }
}


// ************************************************************************* //
