/*--------------------------------*- C++ -*----------------------------------*\
| =========                 |                                                 |
| \\      /  F ield         | OpenFOAM: The Open Source CFD Toolbox           |
|  \\    /   O peration     | Version:  5.0                                   |
|   \\  /    A nd           | Web:      www.OpenFOAM.org                      |
|    \\/     M anipulation  |                                                 |
\*---------------------------------------------------------------------------*/
FoamFile
{
    version     2.0;
    format      ascii;
    class       volScalarField;
    location    "0.55";
    object      p_rgh;
}
// * * * * * * * * * * * * * * * * * * * * * * * * * * * * * * * * * * * * * //

dimensions      [1 -1 -2 0 0 0 0];

internalField   nonuniform List<scalar> 
1915
(
0.973748
0.981912
0.990692
1.00011
1.01019
1.02096
1.03245
1.04471
1.05776
1.07164
1.08641
1.10211
1.11881
1.13656
1.15544
1.17553
1.19691
1.2197
1.24401
1.26998
1.2978
1.32769
1.35989
1.39467
1.43238
0.902351
0.90156
0.900487
0.89965
0.899261
0.899349
0.899914
0.900952
0.902455
0.904416
0.90683
0.909697
0.91302
0.916804
0.921056
0.925789
0.931015
0.936751
0.943014
0.949821
0.95719
0.965138
0.97368
0.982836
0.992627
1.00308
1.01422
1.02607
1.03868
1.05208
1.06629
1.08139
1.0974
1.11438
1.13241
1.15155
1.17187
1.19348
1.21648
1.241
1.26721
1.29532
1.32556
1.35822
1.39364
0.887853
0.887017
0.885889
0.884985
0.884519
0.88452
0.88499
0.885926
0.887321
0.889169
0.891463
0.894204
0.897394
0.901038
0.905143
0.909719
0.91478
0.920338
0.92641
0.933011
0.940156
0.947859
0.956133
0.964995
0.974464
0.984559
0.995303
1.00672
1.01884
1.03169
1.0453
1.05972
1.07498
1.09113
1.10822
1.12631
1.14548
1.16581
1.18739
1.21035
1.23483
1.26102
1.28917
1.31955
1.35253
0.872914
0.872049
0.870882
0.869927
0.869394
0.869319
0.869703
0.870543
0.871833
0.873567
0.87574
0.87835
0.8814
0.884894
0.888839
0.893245
0.898123
0.903484
0.909344
0.915714
0.922608
0.930037
0.938013
0.946549
0.95566
0.965361
0.975669
0.986603
0.998186
1.01044
1.02339
1.03708
1.05152
1.06677
1.08286
1.09985
1.11779
1.13675
1.15682
1.17811
1.20076
1.22495
1.2509
1.27888
1.30928
0.85752
0.85664
0.855451
0.854458
0.853872
0.853729
0.854033
0.854781
0.855967
0.857587
0.859635
0.862109
0.865013
0.868348
0.872121
0.876341
0.881019
0.886164
0.89179
0.897906
0.904523
0.911651
0.919299
0.927477
0.936195
0.945465
0.955299
0.965709
0.976711
0.988325
1.00057
1.01347
1.02705
1.04134
1.05637
1.07218
1.08883
1.10636
1.12485
1.14441
1.16516
1.18727
1.21093
1.23644
1.26417
0.84166
0.840778
0.839582
0.838563
0.837933
0.837731
0.83796
0.83862
0.839705
0.841209
0.84313
0.845464
0.848213
0.85138
0.85497
0.858991
0.863452
0.868363
0.873734
0.879573
0.885889
0.892689
0.89998
0.907769
0.916063
0.924867
0.934188
0.944036
0.954419
0.965349
0.976842
0.988912
1.00158
1.01486
1.02878
1.04337
1.05866
1.07471
1.09158
1.10936
1.12816
1.14814
1.16948
1.19245
1.21744
0.825329
0.824455
0.823262
0.822228
0.821564
0.82131
0.82147
0.822045
0.82303
0.824419
0.82621
0.828399
0.830987
0.833977
0.837373
0.841182
0.845412
0.850071
0.855167
0.860708
0.866699
0.873146
0.880053
0.887425
0.895262
0.903568
0.912344
0.921594
0.931321
0.941532
0.952234
0.963436
0.975147
0.987379
1.00015
1.01347
1.02738
1.04191
1.05711
1.07308
1.0899
1.10772
1.12672
1.14714
1.16935
0.808524
0.807664
0.806484
0.805445
0.804755
0.804454
0.80455
0.805043
0.805928
0.807202
0.80886
0.8109
0.813322
0.816127
0.819319
0.822905
0.82689
0.831281
0.836085
0.841307
0.846952
0.853023
0.859522
0.866449
0.873803
0.881581
0.889783
0.898404
0.907445
0.916905
0.926786
0.937087
0.947811
0.958963
0.970547
0.982575
0.995066
1.00805
1.02157
1.0357
1.05053
1.06619
1.08284
1.1007
1.12012
0.791245
0.790404
0.789244
0.788207
0.787496
0.787155
0.787191
0.787604
0.788391
0.789548
0.791072
0.792959
0.795208
0.797821
0.800801
0.804153
0.807881
0.811991
0.816487
0.821374
0.826653
0.832328
0.838396
0.844855
0.851702
0.858928
0.866529
0.874498
0.882827
0.891511
0.900544
0.909921
0.919635
0.929682
0.940061
0.950775
0.961833
0.973256
0.985085
0.997379
1.01023
1.02374
1.03805
1.05338
1.07003
0.773495
0.772676
0.771541
0.77051
0.769785
0.769408
0.769385
0.769721
0.77041
0.771451
0.772837
0.774568
0.776641
0.779057
0.781818
0.784927
0.788387
0.792204
0.796379
0.800915
0.805814
0.811075
0.816694
0.822666
0.828985
0.835639
0.842619
0.849914
0.857512
0.865401
0.873569
0.882003
0.890691
0.899621
0.908783
0.918173
0.927794
0.937659
0.947801
0.958273
0.969154
0.980543
0.992562
1.00538
1.01928
0.75528
0.754483
0.753376
0.752356
0.75162
0.751209
0.751132
0.751391
0.751984
0.752907
0.754156
0.755728
0.757621
0.759835
0.76237
0.765229
0.768415
0.771928
0.775772
0.779946
0.784451
0.789284
0.794439
0.799909
0.805684
0.81175
0.818094
0.824701
0.831553
0.838634
0.845925
0.853407
0.861061
0.868868
0.876812
0.88488
0.893069
0.901387
0.90986
0.918536
0.927483
0.936791
0.946558
0.956922
0.968101
0.736608
0.735832
0.734753
0.733748
0.733003
0.732561
0.732431
0.732615
0.733112
0.733917
0.735028
0.73644
0.738151
0.740159
0.742465
0.74507
0.747973
0.751177
0.754681
0.758485
0.762586
0.76698
0.771661
0.776617
0.781837
0.787305
0.793003
0.798911
0.80501
0.811276
0.817685
0.824213
0.830833
0.837521
0.844252
0.851009
0.857782
0.864574
0.871406
0.878319
0.885376
0.892652
0.900221
0.90818
0.916685
0.717487
0.71673
0.715681
0.714691
0.71394
0.713468
0.713286
0.713397
0.713798
0.714487
0.715459
0.71671
0.718238
0.720039
0.722114
0.72446
0.727079
0.729968
0.733128
0.736555
0.740246
0.744195
0.748394
0.75283
0.757488
0.762351
0.767397
0.772604
0.777946
0.783397
0.788927
0.794505
0.800098
0.805676
0.81121
0.816675
0.822056
0.827351
0.832577
0.837771
0.842986
0.848286
0.853719
0.859342
0.86524
0.697929
0.697188
0.696167
0.695193
0.694436
0.693937
0.693705
0.693743
0.694051
0.694624
0.695458
0.696549
0.697893
0.699488
0.70133
0.703417
0.705749
0.708322
0.711135
0.714183
0.717461
0.720962
0.724676
0.728589
0.732683
0.736939
0.741333
0.74584
0.750429
0.755071
0.759729
0.764368
0.768949
0.773436
0.777794
0.781993
0.786013
0.789848
0.79351
0.797031
0.800459
0.803844
0.80721
0.810576
0.813957
0.677946
0.67722
0.676224
0.675265
0.674503
0.673977
0.673696
0.673664
0.673879
0.674337
0.675035
0.675968
0.67713
0.678519
0.68013
0.681959
0.684005
0.686262
0.688728
0.691398
0.694264
0.697318
0.700548
0.703939
0.707472
0.711125
0.714872
0.718684
0.72253
0.726373
0.730174
0.733891
0.737481
0.740902
0.744113
0.747079
0.749776
0.752193
0.754339
0.75624
0.757938
0.75947
0.760842
0.762035
0.763004
0.657552
0.656838
0.655867
0.65492
0.654153
0.653601
0.653273
0.653171
0.653295
0.653641
0.654205
0.654982
0.655966
0.657151
0.658533
0.660108
0.66187
0.663816
0.665939
0.668233
0.670691
0.673303
0.676054
0.678929
0.681907
0.684964
0.688074
0.691205
0.694321
0.697382
0.700345
0.703164
0.70579
0.708176
0.710276
0.71205
0.713468
0.714515
0.715195
0.715532
0.71556
0.715305
0.714756
0.713861
0.712523
0.636764
0.636059
0.635109
0.634174
0.633401
0.632823
0.632447
0.632278
0.632314
0.632551
0.632985
0.633609
0.634418
0.635404
0.636562
0.637887
0.639372
0.64101
0.642797
0.644723
0.646781
0.648957
0.651238
0.653607
0.656042
0.658517
0.661004
0.663469
0.665873
0.668174
0.670326
0.672276
0.673973
0.675363
0.676395
0.677023
0.677212
0.676943
0.676216
0.675048
0.673468
0.671493
0.669096
0.666198
0.662661
0.615598
0.614898
0.613966
0.613042
0.612262
0.611658
0.611237
0.611002
0.610952
0.611084
0.611391
0.611868
0.612507
0.6133
0.614241
0.615322
0.616537
0.617878
0.619336
0.620905
0.622571
0.624325
0.626148
0.628025
0.629931
0.63184
0.633723
0.635543
0.63726
0.63883
0.640201
0.641319
0.642126
0.642565
0.642578
0.642114
0.641133
0.63961
0.637539
0.634933
0.631811
0.628185
0.624017
0.619206
0.613589
0.59407
0.593373
0.592457
0.59154
0.590752
0.590123
0.589658
0.589361
0.589229
0.58926
0.589446
0.58978
0.590256
0.590863
0.591594
0.592441
0.593396
0.594448
0.595591
0.596813
0.598104
0.599448
0.60083
0.602232
0.603628
0.604993
0.606294
0.607496
0.608556
0.609426
0.610054
0.610381
0.610346
0.609885
0.608937
0.607444
0.605359
0.602653
0.599311
0.59534
0.590753
0.585552
0.579696
0.573072
0.565506
0.572197
0.571501
0.570597
0.569686
0.56889
0.568236
0.56773
0.567373
0.567164
0.567098
0.567169
0.567368
0.567688
0.568118
0.568649
0.569272
0.569978
0.570755
0.571596
0.572487
0.573417
0.574371
0.575331
0.576278
0.577188
0.578034
0.578782
0.579397
0.579833
0.580042
0.579969
0.579553
0.578728
0.577427
0.575582
0.573131
0.570019
0.566209
0.561681
0.556431
0.550466
0.543782
0.536334
0.528013
0.518641
0.549996
0.549298
0.548406
0.547499
0.546695
0.546017
0.545471
0.545058
0.544776
0.54462
0.544582
0.544654
0.544827
0.54509
0.545433
0.545844
0.546313
0.546831
0.547385
0.547963
0.548552
0.549136
0.549697
0.550215
0.550666
0.551021
0.551249
0.551311
0.551162
0.550753
0.550026
0.54892
0.547365
0.54529
0.542622
0.539292
0.53524
0.530419
0.524799
0.518371
0.511133
0.503076
0.494154
0.484265
0.473251
0.527484
0.526784
0.525901
0.524997
0.524184
0.523484
0.522901
0.522436
0.522087
0.521847
0.521709
0.521663
0.521699
0.521806
0.521971
0.522184
0.522433
0.522707
0.522993
0.523279
0.523548
0.523786
0.523974
0.524091
0.524113
0.524011
0.523754
0.523302
0.522612
0.521631
0.520304
0.518566
0.516347
0.513571
0.51016
0.506041
0.501144
0.495416
0.488817
0.481328
0.472939
0.463638
0.453382
0.44208
0.429605
0.504678
0.503975
0.5031
0.502198
0.501376
0.500656
0.500039
0.499528
0.499117
0.498802
0.498572
0.498418
0.498328
0.498291
0.498292
0.498322
0.498367
0.498416
0.498454
0.498469
0.498443
0.498362
0.498205
0.497952
0.497579
0.497057
0.496354
0.495432
0.494246
0.492747
0.490877
0.488571
0.485757
0.482358
0.478293
0.473481
0.467848
0.46133
0.453879
0.445463
0.436066
0.425673
0.414243
0.401706
0.387971
0.481596
0.48089
0.480021
0.47912
0.47829
0.477551
0.476906
0.476353
0.475889
0.475505
0.475193
0.474942
0.474738
0.474569
0.474422
0.474285
0.474145
0.473988
0.473801
0.473568
0.473274
0.472902
0.472432
0.471843
0.471112
0.470209
0.469103
0.467757
0.466127
0.464165
0.461812
0.459006
0.455673
0.451735
0.447108
0.441709
0.435456
0.428277
0.420112
0.410921
0.400679
0.389365
0.376946
0.363371
0.348595
0.458253
0.457544
0.45668
0.45578
0.454944
0.45419
0.45352
0.452932
0.452421
0.451979
0.451595
0.451257
0.450952
0.450667
0.450387
0.450101
0.449794
0.449453
0.449064
0.44861
0.448075
0.447443
0.446693
0.445804
0.444753
0.443511
0.442048
0.440328
0.438308
0.435941
0.433171
0.429935
0.426162
0.421772
0.416683
0.410807
0.404057
0.396354
0.387629
0.377829
0.366921
0.354879
0.341673
0.327276
0.311691
0.434664
0.433953
0.433093
0.432195
0.431354
0.430588
0.429899
0.429283
0.428734
0.428243
0.427798
0.427386
0.426993
0.426606
0.426211
0.425794
0.425341
0.424838
0.424271
0.423622
0.422877
0.422016
0.421022
0.419871
0.418541
0.417006
0.415234
0.413192
0.410839
0.408128
0.405007
0.401414
0.397281
0.392531
0.38708
0.38084
0.373722
0.365638
0.356512
0.346282
0.334901
0.322339
0.308567
0.293578
0.27742
0.410842
0.410129
0.409274
0.408379
0.407536
0.406763
0.406061
0.405424
0.404846
0.404315
0.403821
0.403347
0.402882
0.402409
0.401915
0.401386
0.400808
0.400166
0.399446
0.398632
0.397706
0.396651
0.395448
0.394075
0.39251
0.390728
0.388698
0.386388
0.38376
0.380769
0.377365
0.373491
0.36908
0.36406
0.358348
0.351858
0.344498
0.336179
0.326817
0.316339
0.304689
0.291827
0.277723
0.262384
0.24589
0.386801
0.386087
0.385238
0.384347
0.383505
0.382731
0.382021
0.381371
0.380773
0.380214
0.379681
0.37916
0.378636
0.378093
0.377518
0.376897
0.376216
0.375459
0.374613
0.373661
0.372586
0.371372
0.369998
0.368445
0.36669
0.364709
0.362473
0.359951
0.357107
0.3539
0.350282
0.346201
0.341595
0.336393
0.330519
0.323889
0.316414
0.308001
0.298564
0.288022
0.276308
0.263373
0.249182
0.233745
0.217152
0.362552
0.36184
0.360998
0.360114
0.359277
0.358505
0.357796
0.357141
0.356531
0.355954
0.355395
0.354839
0.35427
0.353674
0.353036
0.352343
0.35158
0.350733
0.349787
0.348727
0.347537
0.346198
0.344693
0.343002
0.341103
0.338972
0.336582
0.333905
0.330906
0.327547
0.323785
0.319571
0.314849
0.309553
0.303612
0.296948
0.289474
0.281103
0.271744
0.261313
0.249735
0.236952
0.222921
0.207643
0.191193
0.338109
0.337401
0.336569
0.335694
0.334866
0.334102
0.333398
0.332746
0.332134
0.331549
0.330974
0.330395
0.329797
0.329163
0.328481
0.327736
0.326914
0.326001
0.324983
0.323845
0.322572
0.321146
0.319549
0.317762
0.315765
0.313534
0.311043
0.308267
0.305173
0.301727
0.29789
0.293616
0.288855
0.283548
0.27763
0.27103
0.263668
0.255459
0.246318
0.236159
0.224902
0.212484
0.198851
0.183988
0.167924
0.31348
0.312785
0.311965
0.311102
0.310286
0.309534
0.308842
0.3082
0.307593
0.307009
0.30643
0.305841
0.305226
0.304572
0.303863
0.303085
0.302226
0.301272
0.300209
0.299023
0.2977
0.296222
0.294573
0.292733
0.290683
0.288401
0.285863
0.283044
0.279916
0.276448
0.272602
0.268339
0.263614
0.258375
0.252565
0.246119
0.238966
0.231029
0.222227
0.212479
0.201707
0.18984
0.176821
0.16261
0.147175
0.288679
0.288005
0.287202
0.286351
0.285549
0.284813
0.284138
0.283511
0.282918
0.282343
0.281769
0.281182
0.280565
0.279903
0.279184
0.278393
0.277518
0.276546
0.275465
0.274262
0.272921
0.271427
0.269764
0.267913
0.265856
0.263571
0.261039
0.258234
0.255131
0.251701
0.247913
0.24373
0.239113
0.234018
0.228393
0.222183
0.215327
0.207756
0.199398
0.190178
0.180022
0.168862
0.156635
0.143281
0.128706
0.263721
0.26308
0.262294
0.261454
0.260665
0.259947
0.259292
0.258685
0.258112
0.257555
0.256996
0.25642
0.255813
0.255158
0.254445
0.253658
0.252788
0.251823
0.25075
0.249557
0.24823
0.246755
0.245115
0.243293
0.241273
0.239034
0.236558
0.233821
0.230801
0.227471
0.223804
0.219767
0.215328
0.210446
0.20508
0.199182
0.1927
0.185575
0.177746
0.169146
0.15971
0.149374
0.138079
0.125746
0.112237
0.238623
0.238023
0.237252
0.236415
0.235637
0.234937
0.234304
0.233723
0.233175
0.232643
0.232108
0.231554
0.230967
0.230333
0.229639
0.228875
0.22803
0.227093
0.226053
0.224899
0.223616
0.222192
0.220611
0.218859
0.216918
0.214771
0.2124
0.209784
0.206901
0.20373
0.200245
0.196418
0.19222
0.187619
0.182579
0.177061
0.171021
0.164412
0.157181
0.149275
0.140636
0.131208
0.120939
0.109744
0.0974651
0.213387
0.212838
0.212071
0.211227
0.210455
0.209773
0.209167
0.208617
0.2081
0.2076
0.207096
0.206573
0.206018
0.205416
0.204758
0.204033
0.203232
0.202345
0.201362
0.200272
0.199062
0.197721
0.196235
0.194589
0.192769
0.190757
0.188537
0.186091
0.183399
0.180441
0.177194
0.173636
0.169741
0.165482
0.16083
0.155754
0.150217
0.144183
0.137609
0.130451
0.122665
0.114202
0.105019
0.0950345
0.0840973
0.188005
0.187523
0.186739
0.185868
0.185096
0.184437
0.183864
0.18335
0.182873
0.182411
0.181948
0.181465
0.180951
0.180395
0.179787
0.179117
0.178379
0.177562
0.176658
0.175657
0.174548
0.173321
0.171961
0.170457
0.168794
0.166957
0.164932
0.162702
0.160249
0.157554
0.1546
0.151365
0.147828
0.143969
0.139762
0.135182
0.130204
0.124795
0.118925
0.11256
0.105664
0.0982013
0.0901357
0.0814001
0.0718645
0.162503
0.162055
0.161229
0.160304
0.159527
0.158897
0.158367
0.157901
0.157472
0.157059
0.156642
0.156209
0.155748
0.155249
0.154705
0.154107
0.153449
0.152722
0.151919
0.151031
0.150049
0.148962
0.147758
0.146427
0.144956
0.143331
0.141539
0.139566
0.137395
0.135011
0.132396
0.129534
0.126407
0.122998
0.119287
0.115254
0.11088
0.106141
0.101014
0.0954745
0.0894963
0.0830531
0.0761189
0.068642
0.0605236
0.136997
0.136304
0.135419
0.134439
0.133674
0.133102
0.132642
0.132242
0.131873
0.131517
0.131158
0.130783
0.130385
0.129956
0.12949
0.128979
0.128418
0.127801
0.127119
0.126366
0.125533
0.124611
0.123591
0.122461
0.121211
0.119831
0.118307
0.116627
0.114776
0.112742
0.110509
0.108064
0.105392
0.102478
0.0993077
0.0958661
0.0921371
0.0881046
0.0837522
0.0790626
0.074019
0.0686037
0.0627985
0.0565691
0.0498484
0.111703
0.109953
0.109007
0.108049
0.107385
0.10695
0.106615
0.106315
0.106029
0.105744
0.105453
0.105149
0.104827
0.104481
0.104106
0.103698
0.103252
0.102762
0.10222
0.101622
0.10096
0.100225
0.0994103
0.0985067
0.0975053
0.0963963
0.095169
0.0938123
0.0923148
0.0906648
0.0888504
0.0868597
0.0846806
0.0823014
0.0797106
0.0768966
0.0738476
0.0705525
0.0670003
0.0631803
0.0590814
0.0546934
0.0500062
0.0449992
0.0396312
0.0866872
0.0826862
0.0816422
0.0809126
0.0805304
0.0803486
0.0802079
0.080048
0.0798655
0.0796674
0.0794577
0.0792368
0.0790033
0.0787547
0.078488
0.0781992
0.0778839
0.0775373
0.0771543
0.0767292
0.0762562
0.075729
0.0751408
0.0744847
0.0737534
0.0729387
0.072032
0.0710245
0.0699068
0.0686695
0.0673029
0.0657977
0.064144
0.0623322
0.0603534
0.0581988
0.0558601
0.0533291
0.0505991
0.0476637
0.0445168
0.0411529
0.0375678
0.0337501
0.0296784
0.0601713
0.0536074
0.052402
0.052903
0.0533871
0.0536154
0.0536815
0.0536527
0.0535682
0.0534557
0.0533311
0.0532012
0.0530675
0.0529291
0.0527834
0.0526271
0.0524567
0.052268
0.0520568
0.0518187
0.051549
0.0512427
0.0508946
0.0504996
0.0500521
0.0495457
0.048974
0.0483302
0.0476074
0.0467988
0.045897
0.0448942
0.0437829
0.0425563
0.0412074
0.0397293
0.0381155
0.0363612
0.0344614
0.0324124
0.0302109
0.0278539
0.0253394
0.0226625
0.0198139
0.028815
0.0177751
0.0165834
0.022635
0.0259931
0.0270942
0.0274269
0.0275325
0.0275461
0.0275224
0.0274904
0.0274621
0.0274402
0.0274239
0.0274108
0.0273981
0.0273826
0.027361
0.0273301
0.0272865
0.0272267
0.0271472
0.0270443
0.0269145
0.0267541
0.0265586
0.0263235
0.0260446
0.0257171
0.0253362
0.0248967
0.0243936
0.0238217
0.023176
0.0224511
0.0216418
0.0207435
0.0197523
0.0186646
0.0174767
0.0161858
0.0147888
0.0132841
0.011668
0.00993505
0.0221458
-0.030332
-0.0303
-0.0130476
-0.00610127
-0.00383742
-0.00285872
-0.00234068
-0.00205058
-0.00186468
-0.00171699
-0.0015776
-0.0014342
-0.00128224
-0.00112069
-0.00095017
-0.000772043
-0.000587969
-0.000399676
-0.000208963
-1.77002e-05
0.000172404
0.000359918
0.00054333
0.000720755
0.000890279
0.00105029
0.00119912
0.00133466
0.00145478
0.00155756
0.00164114
0.00170346
0.00174229
0.00175504
0.00173949
0.00169416
0.00161663
0.00150491
0.00135728
0.00117212
0.000948157
0.000684471
0.000381061
3.83562e-05
)
;

boundaryField
{
    leftWall
    {
        type            fixedFluxPressure;
        gradient        uniform 0;
        value           nonuniform List<scalar> 
42
(
0.902351
0.887853
0.872914
0.85752
0.84166
0.825329
0.808524
0.791245
0.773495
0.75528
0.736608
0.717487
0.697929
0.677946
0.657552
0.636764
0.615598
0.59407
0.572197
0.549996
0.527484
0.504678
0.481596
0.458253
0.434664
0.410842
0.386801
0.362552
0.338109
0.31348
0.288679
0.263721
0.238623
0.213387
0.188005
0.162503
0.136997
0.111703
0.0866872
0.0601713
0.028815
0.0221458
)
;
    }
    rightWall
    {
        type            fixedFluxPressure;
        gradient        nonuniform 0();
        value           nonuniform 0();
    }
    lowerWall
    {
        type            fixedFluxPressure;
        gradient        nonuniform 0();
        value           nonuniform 0();
    }
    atmosphere
    {
        type            totalPressure;
        rho             rho;
        psi             none;
        gamma           1;
        p0              uniform 0;
        value           nonuniform List<scalar> 
45
(
-0.000245791
-0.0203212
-0.0231151
-0.0224979
-0.0217725
-0.0211551
-0.0206692
-0.0202865
-0.0199708
-0.0196919
-0.0194289
-0.0191688
-0.0189037
-0.0186297
-0.0183447
-0.018048
-0.0177394
-0.0174193
-0.0170878
-0.0167454
-0.0163924
-0.016029
-0.0156556
-0.0152722
-0.0148791
-0.0144765
-0.0140646
-0.0136436
-0.0132138
-0.0127755
-0.012329
-0.0118747
-0.0114131
-0.0109445
-0.0104695
-0.00998835
-0.00950162
-0.00900971
-0.00851309
-0.00801228
-0.00750784
-0.00700044
-0.00649082
-0.00597988
-0.00546876
)
;
    }
    defaultFaces
    {
        type            empty;
    }
    procBoundary2to0
    {
        type            processor;
        value           nonuniform List<scalar> 
46
(
0.989869
0.998224
1.00721
1.01686
1.0272
1.03826
1.05007
1.06267
1.07611
1.09043
1.10569
1.12194
1.13925
1.15768
1.17732
1.19825
1.22058
1.24442
1.2699
1.29719
1.32648
1.35799
1.39197
1.42871
1.46853
0.916417
0.915694
0.914702
0.913954
0.913661
0.913851
0.914519
0.915661
0.917271
0.919343
0.921873
0.92486
0.928306
0.932219
0.936608
0.941486
0.946866
0.952762
0.959193
0.96618
0.96618
)
;
    }
    procBoundary2to3
    {
        type            processor;
        value           nonuniform List<scalar> 
43
(
1.47345
1.43228
1.38856
1.34255
1.29456
1.24487
1.19375
1.14147
1.0883
1.03448
0.980238
0.925786
0.871361
0.817201
0.763514
0.710458
0.658169
0.606822
0.556637
0.507871
0.460795
0.415688
0.372822
0.332453
0.294802
0.260029
0.228224
0.199415
0.173576
0.150632
0.130443
0.112797
0.0974108
0.0839482
0.0720549
0.0613926
0.0516541
0.0425594
0.0338589
0.0253334
0.0167841
0.00807442
-0.000342036
)
;
    }
}


// ************************************************************************* //
