/*--------------------------------*- C++ -*----------------------------------*\
| =========                 |                                                 |
| \\      /  F ield         | OpenFOAM: The Open Source CFD Toolbox           |
|  \\    /   O peration     | Version:  5.0                                   |
|   \\  /    A nd           | Web:      www.OpenFOAM.org                      |
|    \\/     M anipulation  |                                                 |
\*---------------------------------------------------------------------------*/
FoamFile
{
    version     2.0;
    format      ascii;
    class       volScalarField;
    location    "0.55";
    object      alpha.water;
}
// * * * * * * * * * * * * * * * * * * * * * * * * * * * * * * * * * * * * * //

dimensions      [0 0 0 0 0 0 0];

internalField   nonuniform List<scalar> 
1935
(
1
1
1
1
1
1
1
1
1
1
1
1
1
1
1
1
1
1
1
1
1
1
1
1
1
1
1
1
1
1
1
1
1
1
1
1
1
1
1
0.999901
0.974384
0.956617
1
1
1
1
1
1
1
1
1
1
1
1
1
1
1
1
1
1
1
1
1
1
1
1
1
1
1
1
1
1
1
1
1
1
1
1
1
1
1
1
1
1
0.992669
0.961894
0.996951
0.99671
1
1
1
1
1
1
1
1
1
1
1
1
1
1
1
1
1
1
1
1
1
1
1
1
1
1
1
1
1
1
1
1
1
1
1
1
1
1
1
1
1
0.997575
0.969366
0.969346
1
1
1
1
1
1
1
1
1
1
1
1
1
1
1
1
1
1
1
1
1
1
1
1
1
1
1
1
1
1
1
1
1
1
1
1
1
1
1
1
1
0.999999
0.978239
0.969339
1
1
1
1
1
1
1
1
1
1
1
1
1
1
1
1
1
1
1
1
1
1
1
1
1
1
1
1
1
1
1
1
1
1
1
1
1
1
1
1
1
1
0.999182
0.979457
1
1
1
1
1
1
1
1
1
1
1
1
1
1
1
1
1
1
1
1
1
1
1
1
1
1
1
1
1
1
1
1
1
1
1
1
1
1
1
1
1
1
1
0.999328
1
1
1
1
1
1
1
1
1
1
1
1
1
1
1
1
1
1
1
1
1
1
1
1
1
1
1
1
1
1
1
1
1
1
1
1
1
1
1
1
1
1
1
1
1
1
1
1
1
1
1
1
1
1
1
1
1
1
1
1
1
1
1
1
1
1
1
1
1
1
1
1
1
1
1
1
1
1
1
1
1
1
1
1
1
1
1
1
1
1
1
1
1
1
1
1
1
1
1
1
1
1
1
1
1
1
1
1
1
1
1
1
1
1
1
1
1
1
1
1
1
1
1
1
1
1
1
1
1
1
1
1
1
0.999999
0.999999
0.999999
0.999998
0.999998
0.999999
0.999999
0.999999
0.999999
0.999999
1
1
1
1
1
1
1
1
1
1
1
1
1
1
1
1
1
1
1
1
1
1
1
1
1
1
1
1
1
1
1
1
1
1
0.999939
0.99993
0.999929
0.99993
0.999932
0.999938
0.999948
0.999959
0.999969
0.999978
0.999985
0.999991
0.999994
0.999997
0.999998
0.999999
0.999999
0.999999
1
1
1
1
1
1
1
1
1
1
1
1
1
1
1
1
1
1
1
1
1
1
1
1
1
0.756715
0.714744
0.727806
0.75046
0.771516
0.795033
0.825692
0.860631
0.893279
0.920827
0.943907
0.963168
0.978406
0.989406
0.996261
0.999548
0.99993
0.999947
0.999962
0.999974
0.999983
0.99999
0.999995
0.999998
1
1
1
1
1
1
1
1
1
1
1
1
1
1
1
1
1
1
1
1
0.0305246
0.0330476
0.0435321
0.0556777
0.0679517
0.0837498
0.107579
0.140407
0.178834
0.220248
0.265456
0.316134
0.372548
0.433648
0.498276
0.565751
0.629586
0.683639
0.735681
0.7858
0.833666
0.878815
0.920224
0.955999
0.983131
0.997621
0.999998
1
1
1
1
1
1
1
1
1
1
1
1
1
1
1
1
1
-1.75088e-11
-1.20209e-11
-6.1718e-12
-3.25344e-12
-5.79096e-09
-1.63519e-08
-3.19244e-08
-4.19763e-08
-4.10857e-08
-3.15781e-08
-1.9868e-08
-1.09e-08
-6.66255e-09
-6.63439e-09
-8.14387e-09
-3.70407e-09
0.0061534
0.0247313
0.0478168
0.0762179
0.11162
0.156304
0.213725
0.289379
0.391431
0.525133
0.669034
0.799057
0.907632
0.997936
1
1
1
1
1
1
1
1
1
1
1
1
1
1
-1.89834e-11
-1.71946e-11
-8.0539e-12
-4.43391e-12
-1.20219e-08
-3.40921e-08
-6.79294e-08
-9.48677e-08
-9.93167e-08
-8.33503e-08
-5.89427e-08
-3.80285e-08
-3.02436e-08
-4.37155e-08
-8.36462e-08
-1.49299e-07
-2.32609e-07
-3.23733e-07
-4.16986e-07
-5.09667e-07
-5.92891e-07
-6.46338e-07
-6.42221e-07
-5.50954e-07
-3.65508e-07
-1.06551e-07
0.013286
0.0620558
0.145521
0.293577
0.56187
0.875194
1
1
1
1
1
1
1
1
1
1
1
1
-1.45274e-11
-1.39534e-11
-5.46913e-12
-3.03714e-12
-1.18824e-08
-3.31913e-08
-6.42007e-08
-8.72878e-08
-8.98046e-08
-7.48263e-08
-5.30211e-08
-3.54413e-08
-3.36899e-08
-6.10918e-08
-1.29519e-07
-2.43356e-07
-3.96154e-07
-5.77823e-07
-7.86399e-07
-1.02784e-06
-1.30174e-06
-1.58735e-06
-1.84294e-06
-2.01788e-06
-2.06764e-06
-1.96979e-06
-1.72744e-06
-1.36765e-06
-4.84183e-08
3.98817e-06
0.0130252
0.0850055
0.239227
0.548382
0.96798
1
1
1
1
1
1
1
1
1
-8.72509e-12
-7.79326e-12
-2.6603e-12
-1.46773e-12
-6.0085e-09
-1.69054e-08
-2.99956e-08
-3.81821e-08
-3.77604e-08
-3.08491e-08
-2.17504e-08
-1.58775e-08
-2.21017e-08
-5.36301e-08
-1.24271e-07
-2.41793e-07
-4.03701e-07
-6.02378e-07
-8.35409e-07
-1.10813e-06
-1.42431e-06
-1.77371e-06
-2.12782e-06
-2.44567e-06
-2.68372e-06
-2.80453e-06
-2.78235e-06
-2.59829e-06
-4.70014e-09
-3.86199e-09
5.08171e-07
4.81847e-06
2.24848e-05
0.0112617
0.187678
0.524074
0.928308
0.999999
1
1
1
1
1
1
-4.04137e-12
-3.12183e-12
-9.80481e-13
-5.44147e-13
-1.2587e-09
-3.62534e-09
-5.15085e-09
-5.31535e-09
-4.51973e-09
-3.35937e-09
-2.26361e-09
-2.87318e-09
-1.02771e-08
-3.35649e-08
-8.32598e-08
-1.66757e-07
-2.84768e-07
-4.32584e-07
-6.05226e-07
-8.00863e-07
-1.01905e-06
-1.25618e-06
-1.50292e-06
-1.74513e-06
-1.96602e-06
-2.14783e-06
-2.27255e-06
-2.3247e-06
-2.17093e-06
-1.26537e-06
-1.93882e-08
2.84367e-09
2.96685e-07
2.57723e-06
3.53626e-05
0.00470843
0.158039
0.552816
0.965081
0.999998
1
1
1
1
-1.49869e-12
-9.35366e-13
-3.10024e-13
-1.74557e-13
-1.17528e-13
-1.0261e-13
-2.66487e-13
-7.34522e-13
-1.70057e-12
-4.04282e-12
-1.09474e-11
-6.89642e-10
-4.40958e-09
-1.55929e-08
-3.96966e-08
-8.11637e-08
-1.4147e-07
-2.1857e-07
-3.08011e-07
-4.04677e-07
-5.04035e-07
-6.0256e-07
-6.9779e-07
-7.88249e-07
-8.73116e-07
-9.51653e-07
-1.02254e-06
-1.08371e-06
-1.14241e-06
-1.13548e-06
-8.22722e-07
-6.628e-11
-7.1305e-09
4.73056e-09
6.44707e-07
3.44487e-06
5.23702e-05
0.0112182
0.199538
0.613657
0.990479
0.999999
1
1
-5.44627e-13
-2.54668e-13
-9.80384e-14
-5.57598e-14
-4.23649e-14
-4.81576e-14
-1.34344e-13
-3.63462e-13
-8.29473e-13
-1.90761e-12
-4.94564e-12
-2.18201e-10
-1.39516e-09
-4.99154e-09
-1.29116e-08
-2.68989e-08
-4.78545e-08
-7.53992e-08
-1.07855e-07
-1.4263e-07
-1.76865e-07
-2.0811e-07
-2.3484e-07
-2.56603e-07
-2.73808e-07
-2.87316e-07
-2.98041e-07
-3.06727e-07
-3.29118e-07
-3.66218e-07
-3.85889e-07
-2.89803e-07
-1.24457e-07
-5.06204e-11
-7.42637e-09
3.38831e-08
1.21213e-06
8.59551e-06
9.62493e-05
0.0229383
0.242743
0.660395
0.998973
0.999999
-2.16031e-13
-7.17538e-14
-2.94678e-14
-1.7426e-14
-1.61731e-14
-2.51043e-14
-6.64616e-14
-1.65469e-13
-3.57875e-13
-7.65785e-13
-1.81396e-12
-4.36653e-11
-2.74749e-10
-9.9219e-10
-2.60702e-09
-5.53668e-09
-1.00724e-08
-1.62811e-08
-2.3982e-08
-3.28025e-08
-4.2291e-08
-5.20464e-08
-6.1822e-08
-7.15672e-08
-8.13974e-08
-9.15148e-08
-1.0212e-07
-1.13346e-07
-1.27682e-07
-1.46419e-07
-1.67486e-07
-1.79467e-07
-1.7157e-07
-1.14893e-07
-4.40603e-11
-1.31904e-10
-7.88623e-09
1.51936e-07
2.63181e-06
1.93844e-05
0.000157545
0.0353878
0.268483
0.641066
0.946433
-6.35393e-14
-1.51535e-14
-6.55411e-15
-4.73895e-15
-6.72717e-15
-1.45558e-14
-3.59456e-14
-8.00821e-14
-1.59049e-13
-3.04706e-13
-6.17002e-13
-4.87492e-12
-2.72469e-11
-9.73768e-11
-2.59591e-10
-5.65997e-10
-1.06719e-09
-1.80561e-09
-2.8153e-09
-4.12873e-09
-5.78895e-09
-7.86369e-09
-1.04572e-08
-1.3716e-08
-1.7825e-08
-2.2994e-08
-2.94363e-08
-3.73446e-08
-4.7663e-08
-6.13638e-08
-7.74328e-08
-9.44435e-08
-1.0983e-07
-1.14783e-07
-9.02199e-08
-4.78711e-08
-9.83775e-11
3.63436e-09
-3.59551e-09
4.61377e-07
4.91829e-06
3.56089e-05
0.000223243
0.0278218
0.183539
-1.25568e-14
-2.33408e-15
-1.17262e-15
-1.5015e-15
-3.56045e-15
-9.37269e-15
-2.21807e-14
-4.57596e-14
-8.49931e-14
-1.49076e-13
-2.59511e-13
-4.79268e-13
-1.02414e-12
-2.57709e-12
-6.96477e-12
-1.83413e-11
-4.49486e-11
-1.01405e-10
-2.1136e-10
-4.10277e-10
-7.48139e-10
-1.29191e-09
-2.12765e-09
-3.36204e-09
-5.12264e-09
-7.55615e-09
-1.0824e-08
-1.50958e-08
-2.07083e-08
-2.84181e-08
-3.81402e-08
-4.96847e-08
-6.26651e-08
-7.55669e-08
-8.37408e-08
-8.51236e-08
-5.38597e-08
-4.03617e-11
-2.89439e-10
1.47937e-08
2.65764e-08
9.21802e-07
7.76905e-06
3.97078e-05
0.000192001
-1.40747e-15
-2.70836e-16
-2.71043e-16
-7.39031e-16
-2.26242e-15
-6.3362e-15
-1.47702e-14
-2.96449e-14
-5.39167e-14
-9.26074e-14
-1.54614e-13
-2.6028e-13
-4.7954e-13
-1.05523e-12
-2.68935e-12
-7.06977e-12
-1.76849e-11
-4.09218e-11
-8.73905e-11
-1.73382e-10
-3.22367e-10
-5.66482e-10
-9.47959e-10
-1.52044e-09
-2.35006e-09
-3.51599e-09
-5.1104e-09
-7.23766e-09
-1.0035e-08
-1.39544e-08
-1.9119e-08
-2.56617e-08
-3.36521e-08
-4.30099e-08
-5.30889e-08
-6.29749e-08
-6.52237e-08
-5.27323e-08
-6.86551e-09
-6.61611e-11
2.55139e-09
3.34448e-08
1.54779e-07
8.33227e-07
6.39738e-06
-7.28473e-17
-4.24822e-17
-1.25813e-16
-4.66742e-16
-1.51969e-15
-4.31277e-15
-9.99534e-15
-1.99493e-14
-3.64119e-14
-6.34204e-14
-1.07962e-13
-1.83209e-13
-3.24019e-13
-6.37827e-13
-1.42457e-12
-3.40002e-12
-8.04511e-12
-1.80833e-11
-3.80657e-11
-7.5031e-11
-1.39205e-10
-2.44719e-10
-4.10339e-10
-6.60205e-10
-1.02455e-09
-1.54039e-09
-2.25209e-09
-3.21188e-09
-4.48026e-09
-6.31262e-09
-8.82776e-09
-1.2162e-08
-1.64369e-08
-2.17667e-08
-2.82117e-08
-3.57305e-08
-4.30329e-08
-4.78643e-08
-4.30444e-08
-2.78653e-08
-1.29159e-11
-1.12802e-10
7.01761e-09
4.12215e-08
2.29658e-07
-4.8781e-18
-1.74688e-17
-7.75538e-17
-3.08631e-16
-1.02168e-15
-2.90361e-15
-6.68977e-15
-1.3347e-14
-2.4652e-14
-4.39831e-14
-7.72296e-14
-1.34544e-13
-2.37114e-13
-4.38464e-13
-8.73924e-13
-1.85198e-12
-3.99632e-12
-8.43911e-12
-1.70577e-11
-3.27419e-11
-5.9679e-11
-1.03649e-10
-1.72331e-10
-2.75622e-10
-4.25971e-10
-6.38746e-10
-9.32604e-10
-1.32991e-09
-1.85716e-09
-2.61099e-09
-3.69723e-09
-5.19937e-09
-7.20482e-09
-9.81025e-09
-1.31214e-08
-1.72473e-08
-2.21333e-08
-2.74645e-08
-3.15856e-08
-3.21826e-08
-2.28209e-08
-1.35111e-09
-3.00964e-11
1.04938e-09
7.55099e-09
-1.03204e-18
-1.02986e-17
-4.98404e-17
-2.03228e-16
-6.76878e-16
-1.91792e-15
-4.38643e-15
-8.77095e-15
-1.64869e-14
-3.03015e-14
-5.50185e-14
-9.84995e-14
-1.74732e-13
-3.12765e-13
-5.76806e-13
-1.10254e-12
-2.1525e-12
-4.19013e-12
-7.96881e-12
-1.46305e-11
-2.58093e-11
-4.3736e-11
-7.13459e-11
-1.12391e-10
-1.71562e-10
-2.54627e-10
-3.68583e-10
-5.21842e-10
-7.24433e-10
-9.99542e-10
-1.41928e-09
-2.01843e-09
-2.84585e-09
-3.95877e-09
-5.42279e-09
-7.31464e-09
-9.70641e-09
-1.26395e-08
-1.59127e-08
-1.89155e-08
-1.97113e-08
-1.64078e-08
-8.42704e-09
-3.47012e-12
-2.82427e-11
-2.0344e-18
-6.55016e-18
-3.1859e-17
-1.31542e-16
-4.38688e-16
-1.2359e-15
-2.80542e-15
-5.64566e-15
-1.08718e-14
-2.068e-14
-3.88355e-14
-7.12949e-14
-1.27665e-13
-2.25022e-13
-3.96106e-13
-7.03622e-13
-1.26143e-12
-2.26194e-12
-4.00794e-12
-6.9463e-12
-1.17013e-11
-1.91067e-11
-3.02361e-11
-4.64342e-11
-6.93505e-11
-1.00978e-10
-1.43702e-10
-2.00356e-10
-2.74292e-10
-3.6946e-10
-5.15358e-10
-7.2829e-10
-1.03143e-09
-1.45137e-09
-2.01992e-09
-2.77505e-09
-3.76077e-09
-5.02452e-09
-6.58676e-09
-8.38156e-09
-1.00506e-08
-1.09082e-08
-9.9886e-09
-6.81821e-09
-1.46327e-09
-1.49309e-18
-4.01108e-18
-1.99529e-17
-8.31228e-17
-2.76653e-16
-7.73538e-16
-1.74532e-15
-3.55676e-15
-7.06583e-15
-1.39471e-14
-2.70221e-14
-5.06453e-14
-9.14508e-14
-1.60095e-13
-2.7478e-13
-4.6717e-13
-7.90811e-13
-1.33153e-12
-2.21875e-12
-3.6363e-12
-5.83177e-12
-9.12371e-12
-1.3907e-11
-2.06572e-11
-2.9936e-11
-4.23975e-11
-5.87988e-11
-8.0014e-11
-1.07052e-10
-1.41076e-10
-1.87543e-10
-2.57706e-10
-3.59e-10
-5.01707e-10
-6.98859e-10
-9.6634e-10
-1.32318e-09
-1.79164e-09
-2.39417e-09
-3.14293e-09
-4.00268e-09
-4.83133e-09
-5.34641e-09
-5.22632e-09
-4.18459e-09
-8.88363e-19
-2.37734e-18
-1.21882e-17
-5.10376e-17
-1.69042e-16
-4.68659e-16
-1.05452e-15
-2.19298e-15
-4.52099e-15
-9.2575e-15
-1.84158e-14
-3.50458e-14
-6.36604e-14
-1.11153e-13
-1.88562e-13
-3.1392e-13
-5.16139e-13
-8.39471e-13
-1.34779e-12
-2.12781e-12
-3.29061e-12
-4.97127e-12
-7.3271e-12
-1.05352e-11
-1.47902e-11
-2.03039e-11
-2.73056e-11
-3.60458e-11
-4.68001e-11
-5.98756e-11
-7.56908e-11
-9.88213e-11
-1.31342e-10
-1.76914e-10
-2.40007e-10
-3.26293e-10
-4.42771e-10
-5.97838e-10
-8.01093e-10
-1.06203e-09
-1.38467e-09
-1.75245e-09
-2.11469e-09
-2.38335e-09
-2.42903e-09
-4.87912e-19
-1.37227e-18
-7.23574e-18
-3.03253e-17
-9.97229e-17
-2.74175e-16
-6.18399e-16
-1.32329e-15
-2.84087e-15
-6.01401e-15
-1.22069e-14
-2.34597e-14
-4.27671e-14
-7.46671e-14
-1.26343e-13
-2.09345e-13
-3.41807e-13
-5.50729e-13
-8.73683e-13
-1.35929e-12
-2.06616e-12
-3.06033e-12
-4.4119e-12
-6.19161e-12
-8.4682e-12
-1.13071e-11
-1.47705e-11
-1.89189e-11
-2.38136e-11
-2.95191e-11
-3.61059e-11
-4.42113e-11
-5.52897e-11
-7.00891e-11
-8.99322e-11
-1.16565e-10
-1.52214e-10
-1.99634e-10
-2.62108e-10
-3.43315e-10
-4.46674e-10
-5.72837e-10
-7.16532e-10
-8.62373e-10
-9.78654e-10
-2.556e-19
-7.71466e-19
-4.15886e-18
-1.73733e-17
-5.66339e-17
-1.54618e-16
-3.51997e-16
-7.80976e-16
-1.74604e-15
-3.79892e-15
-7.81593e-15
-1.50996e-14
-2.75826e-14
-4.82687e-14
-8.20428e-14
-1.36887e-13
-2.25326e-13
-3.65675e-13
-5.82539e-13
-9.06103e-13
-1.37013e-12
-2.00901e-12
-2.85457e-12
-3.93342e-12
-5.26539e-12
-6.86332e-12
-8.734e-12
-1.08799e-11
-1.33014e-11
-1.59985e-11
-1.89728e-11
-2.22303e-11
-2.63558e-11
-3.15157e-11
-3.80538e-11
-4.6418e-11
-5.72179e-11
-7.12396e-11
-8.94557e-11
-1.13017e-10
-1.43187e-10
-1.81011e-10
-2.26773e-10
-2.7895e-10
-3.32356e-10
-1.29329e-19
-4.21418e-19
-2.3056e-18
-9.56567e-18
-3.08892e-17
-8.39665e-17
-1.94513e-16
-4.49922e-16
-1.04392e-15
-2.31754e-15
-4.80397e-15
-9.29783e-15
-1.70133e-14
-2.99321e-14
-5.14274e-14
-8.7145e-14
-1.45938e-13
-2.40455e-13
-3.86944e-13
-6.0401e-13
-9.10448e-13
-1.32266e-12
-1.85234e-12
-2.50505e-12
-3.27995e-12
-4.17059e-12
-5.1665e-12
-6.25501e-12
-7.42301e-12
-8.65836e-12
-9.95073e-12
-1.1292e-11
-1.27326e-11
-1.45679e-11
-1.67695e-11
-1.94567e-11
-2.27728e-11
-2.691e-11
-3.21186e-11
-3.87107e-11
-4.70547e-11
-5.75413e-11
-7.05094e-11
-8.60694e-11
-1.0374e-10
-6.35027e-20
-2.22923e-19
-1.22841e-18
-5.04704e-18
-1.61484e-17
-4.38831e-17
-1.04327e-16
-2.52123e-16
-6.03269e-16
-1.3565e-15
-2.81905e-15
-5.45522e-15
-1.00089e-14
-1.77729e-14
-3.10509e-14
-5.37609e-14
-9.1973e-14
-1.54049e-13
-2.50082e-13
-3.90554e-13
-5.84483e-13
-8.37587e-13
-1.15103e-12
-1.52113e-12
-1.93997e-12
-2.39675e-12
-2.8793e-12
-3.37562e-12
-3.87492e-12
-4.36834e-12
-4.84913e-12
-5.31257e-12
-5.75567e-12
-6.26058e-12
-6.91124e-12
-7.70268e-12
-8.66615e-12
-9.84219e-12
-1.12857e-11
-1.30695e-11
-1.52854e-11
-1.80423e-11
-2.14588e-11
-2.564e-11
-3.06234e-11
-3.0277e-20
-1.13742e-19
-6.26821e-19
-2.54486e-18
-8.07809e-18
-2.20611e-17
-5.42404e-17
-1.36728e-16
-3.3472e-16
-7.57237e-16
-1.57202e-15
-3.03968e-15
-5.60503e-15
-1.00931e-14
-1.80267e-14
-3.19988e-14
-5.59206e-14
-9.4901e-14
-1.5459e-13
-2.40038e-13
-3.54386e-13
-4.97843e-13
-6.67323e-13
-8.56849e-13
-1.05854e-12
-1.26383e-12
-1.46465e-12
-1.65419e-12
-1.82738e-12
-1.98095e-12
-2.11325e-12
-2.22393e-12
-2.31356e-12
-2.38408e-12
-2.49997e-12
-2.66741e-12
-2.89035e-12
-3.17589e-12
-3.53386e-12
-3.97834e-12
-4.52874e-12
-5.21045e-12
-6.05456e-12
-7.09593e-12
-8.36662e-12
-1.399e-20
-5.57357e-20
-3.05261e-19
-1.22305e-18
-3.86053e-18
-1.06608e-17
-2.7261e-17
-7.13137e-17
-1.77139e-16
-4.00968e-16
-8.29627e-16
-1.60401e-15
-2.98299e-15
-5.47524e-15
-1.00376e-14
-1.82763e-14
-3.25141e-14
-5.55714e-14
-9.01957e-14
-1.38256e-13
-1.99992e-13
-2.73628e-13
-3.55532e-13
-4.40857e-13
-5.24415e-13
-6.01504e-13
-6.68482e-13
-7.23022e-13
-7.64092e-13
-7.91746e-13
-8.06828e-13
-8.10677e-13
-8.04867e-13
-7.91019e-13
-7.74064e-13
-7.79941e-13
-8.05454e-13
-8.5192e-13
-9.20559e-13
-1.0134e-12
-1.13373e-12
-1.28644e-12
-1.47834e-12
-1.71812e-12
-2.01587e-12
-6.24235e-21
-2.61095e-20
-1.4139e-19
-5.58801e-19
-1.75983e-18
-4.94588e-18
-1.31881e-17
-3.55294e-17
-8.88525e-17
-2.00392e-16
-4.12789e-16
-7.99476e-16
-1.50605e-15
-2.83132e-15
-5.33853e-15
-9.946e-15
-1.79075e-14
-3.06008e-14
-4.91227e-14
-7.38158e-14
-1.03935e-13
-1.3763e-13
-1.7228e-13
-2.05042e-13
-2.33406e-13
-2.55587e-13
-2.70669e-13
-2.78556e-13
-2.79784e-13
-2.75288e-13
-2.66194e-13
-2.53647e-13
-2.38704e-13
-2.22275e-13
-2.051e-13
-1.90271e-13
-1.83825e-13
-1.84211e-13
-1.91412e-13
-2.05491e-13
-2.2682e-13
-2.56144e-13
-2.9467e-13
-3.44204e-13
-4.07015e-13
-2.67676e-21
-1.16411e-20
-6.21358e-20
-2.42465e-19
-7.64999e-19
-2.20042e-18
-6.10964e-18
-1.67943e-17
-4.19941e-17
-9.40712e-17
-1.92905e-16
-3.75308e-16
-7.19573e-16
-1.39063e-15
-2.69522e-15
-5.11257e-15
-9.24949e-15
-1.56851e-14
-2.47298e-14
-3.61963e-14
-4.93083e-14
-6.28182e-14
-7.52997e-14
-8.54877e-14
-9.25331e-14
-9.61008e-14
-9.63244e-14
-9.36721e-14
-8.87888e-14
-8.23605e-14
-7.50191e-14
-6.7291e-14
-5.95799e-14
-5.21712e-14
-4.52494e-14
-3.89185e-14
-3.4197e-14
-3.17116e-14
-3.10505e-14
-3.2087e-14
-3.47717e-14
-3.91669e-14
-4.53262e-14
-5.36098e-14
-6.46041e-14
-1.09672e-21
-4.94224e-21
-2.60145e-20
-1.00257e-19
-3.18622e-19
-9.42795e-19
-2.71151e-18
-7.51116e-18
-1.86303e-17
-4.13107e-17
-8.43408e-17
-1.65371e-16
-3.24186e-16
-6.45109e-16
-1.281e-15
-2.45778e-15
-4.43475e-15
-7.41099e-15
-1.14046e-14
-1.61656e-14
-2.11866e-14
-2.58207e-14
-2.94629e-14
-3.17074e-14
-3.24187e-14
-3.17109e-14
-2.98663e-14
-2.72398e-14
-2.418e-14
-2.09803e-14
-1.78588e-14
-1.49589e-14
-1.23606e-14
-1.00958e-14
-8.16369e-15
-6.543e-15
-5.20601e-15
-4.33444e-15
-3.86768e-15
-3.71409e-15
-3.77109e-15
-4.07183e-15
-4.60887e-15
-4.98855e-15
-4.35954e-15
-4.27228e-22
-1.99381e-21
-1.02739e-20
-3.92053e-20
-1.26407e-19
-3.86309e-19
-1.14263e-18
-3.16198e-18
-7.74269e-18
-1.69644e-17
-3.45189e-17
-6.84174e-17
-1.37356e-16
-2.80761e-16
-5.67441e-16
-1.0927e-15
-1.95316e-15
-3.19692e-15
-4.77593e-15
-6.52279e-15
-8.1824e-15
-9.4876e-15
-1.02446e-14
-1.0384e-14
-9.95955e-15
-9.10829e-15
-7.99853e-15
-6.78711e-15
-5.59551e-15
-4.50308e-15
-3.55147e-15
-2.75396e-15
-2.10531e-15
-1.59002e-15
-1.18818e-15
-8.78909e-16
-6.41821e-16
-4.60789e-16
-3.33028e-16
-2.25047e-16
-1.31339e-16
2.54006e-16
2.01452e-15
7.63731e-15
2.3255e-14
-1.57511e-22
-7.51649e-22
-3.78564e-21
-1.43761e-20
-4.73447e-20
-1.49446e-19
-4.50302e-19
-1.23617e-18
-2.98106e-18
-6.45808e-18
-1.31447e-17
-2.64794e-17
-5.46032e-17
-1.14214e-16
-2.32863e-16
-4.45507e-16
-7.81782e-16
-1.24584e-15
-1.79876e-15
-2.35761e-15
-2.81833e-15
-3.09307e-15
-3.14213e-15
-2.98017e-15
-2.66218e-15
-2.25869e-15
-1.83427e-15
-1.43571e-15
-1.08963e-15
-8.06021e-16
-5.8363e-16
-4.15151e-16
-2.90936e-16
-2.01277e-16
-1.37488e-16
-9.19469e-17
-5.79243e-17
-2.3923e-17
5.53656e-18
1.3669e-16
6.99127e-16
2.78525e-15
9.54389e-15
3.01006e-14
8.72934e-14
-5.42389e-23
-2.61415e-22
-1.28904e-21
-4.90158e-21
-1.65702e-20
-5.38328e-20
-1.63642e-19
-4.43406e-19
-1.0518e-18
-2.25607e-18
-4.61073e-18
-9.47812e-18
-2.00734e-17
-4.2735e-17
-8.72252e-17
-1.64609e-16
-2.81891e-16
-4.34876e-16
-6.03713e-16
-7.55916e-16
-8.57683e-16
-8.87265e-16
-8.43529e-16
-7.43738e-16
-6.14236e-16
-4.79613e-16
-3.57121e-16
-2.5554e-16
-1.76904e-16
-1.19161e-16
-7.84746e-17
-5.07248e-17
-3.22712e-17
-2.02008e-17
-1.22205e-17
-6.26175e-18
-5.52126e-19
1.3417e-17
8.68058e-17
4.00732e-16
1.70558e-15
6.83224e-15
2.5072e-14
8.3569e-14
2.51273e-13
-1.71873e-23
-8.28804e-23
-4.01611e-22
-1.53887e-21
-5.35355e-21
-1.77924e-20
-5.40955e-20
-1.44156e-19
-3.36142e-19
-7.14891e-19
-1.4714e-18
-3.09157e-18
-6.70462e-18
-1.44318e-17
-2.92839e-17
-5.42067e-17
-9.01974e-17
-1.34224e-16
-1.78585e-16
-2.12925e-16
-2.28467e-16
-2.21858e-16
-1.96506e-16
-1.6023e-16
-1.21494e-16
-8.65626e-17
-5.85391e-17
-3.79433e-17
-2.37385e-17
-1.44257e-17
-8.56031e-18
-4.97967e-18
-2.83774e-18
-1.53686e-18
-5.55488e-19
5.39728e-19
5.75652e-18
2.98627e-17
1.41914e-16
6.8341e-16
3.22427e-15
1.41154e-14
5.52183e-14
1.92215e-13
5.95177e-13
-4.93213e-24
-2.36506e-23
-1.13143e-22
-4.39433e-22
-1.57314e-21
-5.30982e-21
-1.60322e-20
-4.19027e-20
-9.5979e-20
-2.02505e-19
-4.20267e-19
-9.01356e-19
-1.99176e-18
-4.30743e-18
-8.64288e-18
-1.56319e-17
-2.52046e-17
-3.61022e-17
-4.59426e-17
-5.20489e-17
)
;

boundaryField
{
    leftWall
    {
        type            zeroGradient;
    }
    rightWall
    {
        type            zeroGradient;
    }
    lowerWall
    {
        type            zeroGradient;
    }
    atmosphere
    {
        type            inletOutlet;
        inletValue      nonuniform 0();
        value           nonuniform 0();
    }
    defaultFaces
    {
        type            empty;
    }
    procBoundary0to1
    {
        type            processor;
        value           nonuniform List<scalar> 
44
(
1
0.993182
0.969346
0.969373
0.987838
1
0.999998
1
1
1
1
1
1
1
1
1
1
1
1
1
1
0.999999
0.516326
0.00703627
2.67803e-05
9.41536e-07
3.31202e-08
9.90761e-10
-5.09286e-12
-2.42403e-09
-2.1359e-09
-1.02082e-09
-3.77474e-10
-1.22149e-10
-3.63139e-11
-9.88598e-12
-2.38195e-12
-4.85797e-13
-7.84941e-14
-6.79383e-16
6.35512e-14
2.3389e-13
6.84184e-13
1.63284e-12
)
;
    }
    procBoundary0to2
    {
        type            processor;
        value           nonuniform List<scalar> 
46
(
-5.26809e-17
-4.78764e-17
-3.93527e-17
-2.95257e-17
-2.04375e-17
-1.32005e-17
-8.04578e-18
-4.67555e-18
-2.61476e-18
-1.41889e-18
-7.51727e-19
-3.88224e-19
-1.87185e-19
-3.95648e-20
1.99126e-19
1.4587e-18
7.61386e-18
3.79833e-17
1.95612e-16
1.04438e-15
5.44443e-15
2.59141e-14
1.07749e-13
3.9064e-13
1.24411e-12
-1.25846e-24
-5.9787e-24
-2.83884e-23
-1.12294e-22
-4.12747e-22
-1.40436e-21
-4.18687e-21
-1.07073e-20
-2.40522e-20
-5.02879e-20
-1.05061e-19
-2.29011e-19
-5.12799e-19
-1.10888e-18
-2.19296e-18
-3.8677e-18
-6.03624e-18
-8.31511e-18
-1.01122e-17
-5.26809e-17
-1.08753e-17
)
;
    }
}


// ************************************************************************* //
