/*--------------------------------*- C++ -*----------------------------------*\
| =========                 |                                                 |
| \\      /  F ield         | OpenFOAM: The Open Source CFD Toolbox           |
|  \\    /   O peration     | Version:  5.0                                   |
|   \\  /    A nd           | Web:      www.OpenFOAM.org                      |
|    \\/     M anipulation  |                                                 |
\*---------------------------------------------------------------------------*/
FoamFile
{
    version     2.0;
    format      ascii;
    class       volScalarField;
    location    "0.55";
    object      epsilon;
}
// * * * * * * * * * * * * * * * * * * * * * * * * * * * * * * * * * * * * * //

dimensions      [0 2 -3 0 0 0 0];

internalField   nonuniform List<scalar> 
1935
(
0.0236804
0.0647378
0.117594
0.182963
0.248068
0.309782
0.367094
0.425144
0.479665
0.531823
0.581732
0.629576
0.675553
0.71985
0.762625
0.803994
0.844024
0.882726
0.920051
0.955892
0.99008
1.02238
1.0525
1.08007
1.10464
1.12569
1.14255
1.15431
1.16325
1.16854
1.16802
1.16031
1.14439
1.11937
1.08455
1.03948
0.984184
0.91937
0.846408
0.765007
0.687968
0.616292
0.558784
0.503502
0.0414285
0.0473112
0.0684544
0.0935725
0.119369
0.144559
0.167566
0.189378
0.210011
0.229739
0.248733
0.267135
0.285059
0.302596
0.319813
0.336751
0.353426
0.369829
0.385932
0.401684
0.417018
0.431852
0.446089
0.459622
0.472338
0.484118
0.494851
0.504514
0.514036
0.52336
0.53214
0.540222
0.547525
0.553985
0.559513
0.563946
0.566978
0.568013
0.565742
0.556711
0.535429
0.494187
0.438968
0.386672
0.0560262
0.0477107
0.0628832
0.0812147
0.0996582
0.117163
0.133414
0.148642
0.16299
0.176631
0.189714
0.202365
0.214692
0.226781
0.238695
0.250476
0.262146
0.273708
0.28515
0.296443
0.307551
0.318429
0.329026
0.339293
0.34918
0.358653
0.367701
0.376394
0.385082
0.393935
0.403003
0.4124
0.422286
0.432844
0.44425
0.456619
0.469911
0.483703
0.496656
0.50525
0.502767
0.483199
0.452659
0.433961
0.0650644
0.0529933
0.0655603
0.0803921
0.0952733
0.109537
0.122961
0.135577
0.14747
0.158746
0.169519
0.179896
0.189975
0.199836
0.209545
0.219147
0.22867
0.238127
0.247517
0.256827
0.266038
0.275125
0.284061
0.292821
0.301389
0.309763
0.31797
0.326101
0.334372
0.342966
0.352038
0.361778
0.372408
0.384166
0.397267
0.411855
0.427903
0.445002
0.461936
0.475918
0.48234
0.478674
0.47281
0.487488
0.0758342
0.0614044
0.0714812
0.083814
0.0963795
0.108635
0.120362
0.131498
0.14205
0.152066
0.16162
0.170795
0.179677
0.188341
0.196851
0.205253
0.21358
0.221853
0.23008
0.238259
0.246382
0.254439
0.26242
0.270315
0.278129
0.285877
0.293608
0.301416
0.309476
0.317964
0.327056
0.33696
0.347903
0.360113
0.373785
0.389029
0.405786
0.423672
0.441725
0.458136
0.470694
0.480036
0.495624
0.541246
0.0880812
0.071716
0.0794293
0.0896251
0.100377
0.111145
0.121663
0.131789
0.141457
0.150664
0.159448
0.167871
0.176007
0.183925
0.191683
0.19933
0.206902
0.214422
0.221906
0.229361
0.23679
0.244193
0.251572
0.258931
0.266286
0.273667
0.281131
0.288774
0.296752
0.305229
0.31438
0.324405
0.335515
0.347911
0.361756
0.377127
0.393958
0.411948
0.43049
0.448745
0.466468
0.486702
0.520426
0.593438
0.100073
0.0829844
0.0885386
0.0969208
0.106224
0.115851
0.125457
0.134823
0.143831
0.152437
0.160657
0.168539
0.176147
0.183541
0.190778
0.197903
0.204952
0.211954
0.218929
0.225891
0.232852
0.239821
0.246809
0.253831
0.260912
0.268091
0.275429
0.283022
0.291012
0.299548
0.308798
0.318943
0.330174
0.342665
0.356549
0.371892
0.388651
0.406667
0.425713
0.445812
0.468209
0.497702
0.546707
0.64356
0.110267
0.0937375
0.0980563
0.105174
0.113458
0.122267
0.131182
0.139938
0.148391
0.156484
0.164226
0.17166
0.178841
0.185825
0.192661
0.199391
0.206052
0.212674
0.21928
0.225892
0.232526
0.239202
0.245938
0.252758
0.259694
0.266788
0.274106
0.281739
0.289816
0.298474
0.307864
0.318153
0.329508
0.34208
0.355988
0.371301
0.388034
0.40619
0.425918
0.447954
0.474658
0.512136
0.574202
0.692256
0.118807
0.103947
0.107806
0.114305
0.12204
0.130311
0.138673
0.146873
0.154786
0.162373
0.169649
0.176658
0.183449
0.190069
0.196562
0.202966
0.209314
0.215637
0.221962
0.228314
0.234717
0.241197
0.247779
0.254495
0.261381
0.268485
0.275868
0.283618
0.291851
0.30069
0.31027
0.320741
0.332251
0.344935
0.358907
0.374259
0.391079
0.409538
0.43012
0.454139
0.484789
0.529192
0.602595
0.740669
0.125612
0.114464
0.11838
0.124822
0.132346
0.140185
0.14797
0.155541
0.162837
0.169854
0.176623
0.183184
0.18958
0.195845
0.202015
0.208122
0.214196
0.220268
0.226366
0.23252
0.238758
0.245112
0.251614
0.258302
0.265216
0.272405
0.27993
0.28787
0.296327
0.305409
0.315236
0.325942
0.33766
0.350514
0.364623
0.380112
0.397146
0.416054
0.437606
0.463561
0.497721
0.547952
0.630652
0.785608
0.137467
0.127998
0.13143
0.137954
0.145176
0.15233
0.159262
0.165967
0.172466
0.178788
0.184965
0.191024
0.196988
0.202879
0.208719
0.214534
0.220351
0.226199
0.232107
0.238105
0.244227
0.25051
0.256992
0.263716
0.270726
0.278073
0.285813
0.294016
0.302772
0.31217
0.322315
0.333327
0.345327
0.358432
0.372772
0.388508
0.405879
0.42535
0.447917
0.475663
0.512786
0.567519
0.656144
0.813729
0.175749
0.150171
0.15007
0.155645
0.161596
0.167275
0.172783
0.178227
0.183662
0.189109
0.194572
0.200042
0.205512
0.210981
0.216458
0.22196
0.227514
0.233148
0.238888
0.244763
0.250811
0.257071
0.263587
0.270408
0.27758
0.285155
0.293187
0.301735
0.310874
0.320676
0.331228
0.342637
0.355014
0.368473
0.383156
0.399259
0.417079
0.437186
0.460735
0.490007
0.529382
0.587099
0.678706
0.834735
0.266082
0.189509
0.177987
0.179458
0.182112
0.185105
0.188462
0.192192
0.196275
0.200661
0.205282
0.210069
0.214973
0.219963
0.225027
0.23017
0.235422
0.240827
0.246401
0.25217
0.25817
0.264444
0.271042
0.278013
0.285409
0.293283
0.301683
0.310663
0.320279
0.330583
0.341647
0.353564
0.366436
0.380372
0.39553
0.412127
0.430495
0.451272
0.475698
0.506121
0.546879
0.605847
0.697286
0.847497
0.394826
0.237107
0.213238
0.207924
0.205487
0.204912
0.205629
0.207343
0.209881
0.213083
0.216782
0.220833
0.225134
0.229621
0.234251
0.238995
0.243867
0.248996
0.254388
0.260049
0.266011
0.272323
0.279035
0.2862
0.293873
0.30211
0.310956
0.320457
0.33065
0.341569
0.353265
0.36582
0.379323
0.393884
0.40967
0.426897
0.44591
0.467371
0.492531
0.523675
0.564889
0.623327
0.711403
0.850735
0.516669
0.264574
0.23797
0.228556
0.223575
0.221432
0.220755
0.221136
0.222458
0.224604
0.227421
0.230759
0.234499
0.238556
0.242865
0.247378
0.252106
0.257107
0.262396
0.267996
0.273958
0.280341
0.287204
0.294606
0.302607
0.311271
0.320642
0.330752
0.341624
0.353271
0.365727
0.379063
0.393352
0.408706
0.425286
0.443291
0.463052
0.485214
0.510968
0.542425
0.583247
0.639607
0.721727
0.846342
0.557541
0.276562
0.243178
0.234372
0.231737
0.230995
0.230919
0.231353
0.232386
0.234065
0.23636
0.239198
0.242499
0.246195
0.250241
0.254615
0.259307
0.264273
0.269551
0.275208
0.281303
0.28789
0.295029
0.302779
0.311205
0.320377
0.330343
0.341142
0.352788
0.365273
0.378613
0.392879
0.408122
0.424437
0.441973
0.460903
0.481515
0.50442
0.530679
0.562139
0.601931
0.655128
0.729719
0.837936
0.548061
0.276889
0.245092
0.238794
0.237977
0.238387
0.23899
0.239722
0.240758
0.242237
0.244219
0.246701
0.249647
0.253018
0.256783
0.260929
0.265452
0.270355
0.275671
0.281452
0.287749
0.294621
0.302126
0.310324
0.319277
0.329047
0.339676
0.351214
0.363687
0.377092
0.391445
0.406771
0.423121
0.440556
0.459218
0.479233
0.500762
0.52444
0.551151
0.582453
0.620876
0.670382
0.736934
0.829017
0.531421
0.275079
0.24577
0.241341
0.241833
0.243199
0.244506
0.245705
0.24698
0.248513
0.250417
0.252744
0.255503
0.258688
0.262292
0.266315
0.270761
0.275644
0.281003
0.286896
0.293382
0.300527
0.308395
0.31705
0.326554
0.336961
0.348312
0.360643
0.373975
0.388318
0.403695
0.420123
0.437642
0.456312
0.476324
0.497686
0.520187
0.544682
0.571762
0.602804
0.639746
0.685558
0.744458
0.822017
0.514544
0.274228
0.246396
0.242755
0.243891
0.24587
0.247751
0.249435
0.251067
0.252821
0.254832
0.257182
0.259913
0.263048
0.266598
0.270578
0.275004
0.279903
0.285328
0.291342
0.298019
0.305433
0.313657
0.322764
0.332815
0.343861
0.355938
0.369068
0.383259
0.398528
0.414897
0.432391
0.451004
0.470799
0.491974
0.514679
0.53882
0.564469
0.591963
0.622695
0.6581
0.700428
0.75255
0.817945
0.499663
0.274349
0.247189
0.24333
0.244463
0.246671
0.248925
0.251031
0.253056
0.255131
0.25738
0.259892
0.262728
0.265927
0.269519
0.273531
0.277995
0.282956
0.288475
0.294629
0.3015
0.309175
0.317739
0.327271
0.337836
0.349483
0.362241
0.376126
0.391136
0.407288
0.424602
0.443099
0.462757
0.48358
0.505668
0.529188
0.554436
0.581555
0.610792
0.64157
0.67575
0.714888
0.761149
0.816706
0.487118
0.275409
0.247902
0.243067
0.243656
0.24573
0.24814
0.250561
0.252961
0.255403
0.257974
0.260751
0.263797
0.26716
0.270882
0.275004
0.27957
0.28464
0.290286
0.296594
0.303659
0.31158
0.320451
0.33036
0.341376
0.353549
0.366908
0.381464
0.397212
0.414166
0.432341
0.451742
0.472346
0.494134
0.517148
0.541442
0.567101
0.594562
0.62446
0.656733
0.691991
0.728682
0.77057
0.818388
0.872879
0.478967
0.277456
0.248296
0.241925
0.241571
0.243219
0.245575
0.248183
0.250898
0.253702
0.256632
0.259737
0.263068
0.266673
0.2706
0.274899
0.279625
0.284847
0.290647
0.297122
0.304376
0.312516
0.321649
0.331868
0.343249
0.355847
0.369694
0.384804
0.401176
0.418817
0.437732
0.457916
0.479339
0.501973
0.525819
0.550867
0.577084
0.60465
0.633944
0.665747
0.70072
0.738497
0.780202
0.822653
0.8688
0.473316
0.279602
0.248133
0.239902
0.238361
0.239373
0.241503
0.244164
0.247104
0.250226
0.253506
0.256959
0.260615
0.264513
0.268699
0.273226
0.278157
0.283566
0.289544
0.296192
0.303622
0.31195
0.321289
0.331741
0.343388
0.356294
0.370498
0.386024
0.402876
0.421057
0.440566
0.461388
0.483484
0.506811
0.531332
0.556996
0.583727
0.611553
0.640627
0.671309
0.704135
0.740289
0.780157
0.822686
0.868337
0.470087
0.28153
0.247316
0.237064
0.234214
0.234463
0.236237
0.238829
0.241895
0.245261
0.24885
0.252634
0.25662
0.260831
0.265306
0.270095
0.275263
0.280886
0.287058
0.293882
0.301476
0.30996
0.319452
0.33006
0.341877
0.354972
0.3694
0.385192
0.402366
0.420922
0.440857
0.462148
0.484749
0.508599
0.533629
0.559746
0.586844
0.614871
0.643851
0.673887
0.70522
0.738356
0.773808
0.812834
0.855471
0.470002
0.283198
0.245866
0.233528
0.229332
0.228757
0.230085
0.232507
0.235599
0.239125
0.242956
0.247029
0.251322
0.255841
0.260612
0.26568
0.271104
0.276959
0.283337
0.290344
0.298094
0.306711
0.316315
0.327019
0.338923
0.352109
0.366639
0.38256
0.3999
0.418668
0.438854
0.460434
0.483357
0.507548
0.532913
0.559327
0.586648
0.614761
0.643594
0.67312
0.703393
0.734536
0.766778
0.800685
0.836434
0.47329
0.284577
0.243851
0.229433
0.223909
0.222491
0.223318
0.225491
0.228521
0.232119
0.236116
0.240418
0.244975
0.249776
0.254831
0.260176
0.265863
0.271961
0.278557
0.285754
0.293663
0.302404
0.3121
0.322866
0.334806
0.348012
0.362557
0.3785
0.395879
0.414714
0.434994
0.456695
0.479763
0.504117
0.529645
0.556202
0.583616
0.611719
0.640359
0.66941
0.698797
0.728484
0.75852
0.789062
0.820152
0.479683
0.285592
0.241338
0.22491
0.218111
0.215861
0.216159
0.218026
0.220918
0.224507
0.228594
0.233054
0.23782
0.24286
0.248172
0.253778
0.259722
0.266066
0.272888
0.280285
0.288362
0.297236
0.307025
0.317846
0.329806
0.343002
0.357517
0.373418
0.390753
0.409553
0.42981
0.451501
0.474572
0.498939
0.524482
0.551043
0.578433
0.606446
0.634873
0.663514
0.692192
0.720768
0.749171
0.777381
0.80536
0.488535
0.286147
0.238388
0.220069
0.212075
0.209026
0.208785
0.210305
0.212999
0.216509
0.22061
0.225159
0.23007
0.235297
0.240824
0.246663
0.252847
0.259429
0.266479
0.274084
0.282345
0.291369
0.30127
0.312164
0.324158
0.337352
0.351835
0.367679
0.38494
0.403654
0.423832
0.445439
0.468426
0.492708
0.518164
0.544631
0.571911
0.599777
0.627987
0.656289
0.684442
0.712232
0.739488
0.766083
0.791899
0.499008
0.286156
0.235052
0.215002
0.20591
0.202106
0.201332
0.202481
0.20493
0.2083
0.212349
0.216919
0.22191
0.227265
0.232958
0.23899
0.245385
0.252187
0.259457
0.267274
0.275728
0.284922
0.294964
0.305963
0.318027
0.331256
0.34574
0.361556
0.378765
0.397407
0.4175
0.439012
0.461894
0.486062
0.511395
0.53773
0.564866
0.592569
0.620577
0.648614
0.676402
0.703675
0.7302
0.755775
0.780217
0.510238
0.285571
0.231381
0.209786
0.199704
0.195199
0.193908
0.194673
0.196844
0.200026
0.203964
0.208491
0.213499
0.218921
0.224724
0.2309
0.237467
0.244458
0.251929
0.259949
0.268602
0.277982
0.288189
0.29933
0.311509
0.324824
0.339365
0.355213
0.372428
0.391053
0.411108
0.432576
0.455398
0.479491
0.504735
0.530969
0.557993
0.585569
0.613431
0.641292
0.668853
0.695824
0.721934
0.746937
0.770613
0.521449
0.284383
0.227435
0.204489
0.193529
0.188384
0.186599
0.186977
0.188847
0.191802
0.19558
0.200007
0.204971
0.210399
0.216253
0.22252
0.229209
0.236351
0.243992
0.252196
0.261038
0.270607
0.280998
0.29231
0.304644
0.318098
0.33276
0.34871
0.366009
0.384702
0.404808
0.426319
0.449172
0.473284
0.498535
0.524763
0.551768
0.579315
0.607135
0.634936
0.662414
0.689265
0.715199
0.73995
0.763276
0.53201
0.282622
0.223275
0.199174
0.187448
0.181724
0.179475
0.179471
0.181026
0.183725
0.187302
0.191581
0.196445
0.201821
0.207667
0.213966
0.220724
0.227967
0.235737
0.244091
0.253101
0.262848
0.273423
0.284921
0.29744
0.311074
0.325912
0.342032
0.359496
0.378348
0.398606
0.420263
0.443271
0.467531
0.492923
0.519285
0.546416
0.574078
0.602003
0.629897
0.657451
0.684357
0.710315
0.735048
0.758304
0.541451
0.280344
0.218965
0.193896
0.181512
0.175273
0.172594
0.172218
0.173452
0.175874
0.179218
0.183307
0.188023
0.193292
0.199072
0.205345
0.212114
0.219404
0.227252
0.235713
0.244853
0.254752
0.265496
0.277177
0.28989
0.303728
0.318779
0.33512
0.352814
0.371905
0.392411
0.414324
0.437602
0.462146
0.487828
0.514482
0.541906
0.569858
0.598064
0.626228
0.654038
0.681178
0.707344
0.732251
0.75564
0.549449
0.277612
0.214563
0.1887
0.175762
0.169072
0.165999
0.165269
0.166182
0.168316
0.171402
0.175266
0.179792
0.184906
0.190567
0.196757
0.203479
0.210757
0.218626
0.227141
0.236366
0.246376
0.257257
0.269098
0.281993
0.296035
0.311311
0.327899
0.345864
0.365249
0.386075
0.408333
0.431977
0.456925
0.483032
0.510129
0.538009
0.566422
0.59509
0.623707
0.651956
0.679513
0.706065
0.73132
0.755014
0.555808
0.274492
0.210117
0.183625
0.17023
0.163151
0.159723
0.158661
0.15926
0.1611
0.163913
0.167526
0.171827
0.176744
0.182238
0.188292
0.194911
0.202118
0.209951
0.218461
0.227713
0.237783
0.248754
0.260715
0.273761
0.287983
0.303472
0.320306
0.338551
0.358254
0.379437
0.402091
0.426173
0.451598
0.478234
0.505893
0.534361
0.563382
0.592667
0.621902
0.650756
0.678896
0.706
0.731763
0.755915
0.560434
0.271043
0.205666
0.178695
0.164937
0.157529
0.153787
0.152418
0.152717
0.154263
0.156793
0.160138
0.164188
0.168874
0.174159
0.180031
0.186494
0.193575
0.201312
0.209758
0.218978
0.229047
0.24005
0.252078
0.265225
0.279585
0.295249
0.3123
0.330805
0.350816
0.372356
0.39542
0.419964
0.445906
0.473116
0.501407
0.530547
0.560274
0.590286
0.620259
0.649846
0.678703
0.706491
0.732899
0.757642
0.563319
0.267314
0.201235
0.173928
0.159893
0.152217
0.148202
0.146554
0.146569
0.147829
0.150075
0.153142
0.156921
0.16135
0.166394
0.172042
0.178305
0.185209
0.192794
0.201117
0.210243
0.220249
0.231222
0.243253
0.256439
0.270877
0.286661
0.303876
0.322595
0.342871
0.364734
0.38818
0.413169
0.439619
0.4674
0.496333
0.526173
0.556644
0.587436
0.618207
0.648599
0.678252
0.706814
0.73396
0.759397
0.564539
0.26334
0.196843
0.169333
0.155103
0.147216
0.142969
0.141071
0.140822
0.141809
0.143776
0.14656
0.15006
0.154213
0.15899
0.164384
0.170408
0.17709
0.184475
0.192619
0.201592
0.211473
0.22235
0.234317
0.247474
0.261921
0.277754
0.295065
0.313929
0.334406
0.356528
0.380296
0.405675
0.432581
0.460888
0.490413
0.520924
0.55212
0.583678
0.615247
0.646455
0.676924
0.706293
0.734223
0.760416
0.564286
0.259137
0.19253
0.164926
0.150566
0.142516
0.138077
0.135962
0.135474
0.136204
0.137901
0.140406
0.143621
0.14749
0.151983
0.157099
0.162854
0.169279
0.17642
0.184339
0.193106
0.202803
0.21352
0.225357
0.238414
0.252795
0.268602
0.28593
0.304859
0.325453
0.347751
0.371759
0.397442
0.424723
0.453473
0.48351
0.5146
0.546451
0.578713
0.611024
0.642999
0.674252
0.704408
0.733123
0.760094
0.562995
0.254936
0.18833
0.160689
0.146255
0.138092
0.133503
0.131206
0.130507
0.131003
0.132445
0.134681
0.137615
0.141194
0.145395
0.150217
0.155682
0.161822
0.168687
0.176339
0.184855
0.194316
0.204817
0.21646
0.229349
0.243593
0.259297
0.276559
0.295468
0.316091
0.338472
0.362622
0.388511
0.416064
0.445152
0.475595
0.507155
0.539543
0.572408
0.605365
0.638022
0.669984
0.700871
0.730337
0.758083
0.560786
0.250846
0.184211
0.156595
0.142144
0.133917
0.12922
0.126775
0.125895
0.126182
0.127391
0.129373
0.132037
0.135333
0.13924
0.143763
0.148922
0.154757
0.161318
0.168673
0.1769
0.186083
0.196318
0.207712
0.220373
0.234412
0.249939
0.267059
0.285864
0.306427
0.328798
0.352992
0.378984
0.406701
0.436017
0.466751
0.498662
0.53146
0.564805
0.598295
0.63153
0.664113
0.695662
0.725838
0.754353
0.557118
0.246654
0.180134
0.15262
0.13821
0.129965
0.125199
0.122641
0.121611
0.121714
0.122713
0.12446
0.126869
0.129893
0.133514
0.137738
0.142591
0.148112
0.154356
0.161391
0.169297
0.178162
0.188089
0.199189
0.21157
0.225346
0.240634
0.257542
0.276168
0.296591
0.318866
0.343013
0.369013
0.396794
0.426235
0.457153
0.489307
0.522403
0.556102
0.590023
0.623742
0.656866
0.689025
0.719892
0.749202
0.551967
0.242288
0.176074
0.148743
0.134429
0.12621
0.121412
0.118774
0.117623
0.117571
0.118382
0.119916
0.122088
0.124855
0.128201
0.132135
0.136685
0.141892
0.147813
0.154519
0.16209
0.170619
0.180208
0.19097
0.203021
0.216481
0.231478
0.248118
0.266502
0.286719
0.308826
0.332852
0.358779
0.386544
0.416025
0.447041
0.479353
0.512666
0.54664
0.580904
0.615045
0.648672
0.68143
0.713021
0.743219
0.54549
0.237738
0.172018
0.144951
0.130784
0.122629
0.117833
0.115146
0.113902
0.11372
0.114369
0.115712
0.117668
0.120195
0.123281
0.126938
0.131193
0.136092
0.141692
0.148067
)
;

boundaryField
{
    leftWall
    {
        Cmu             0.09;
        kappa           0.41;
        E               9.8;
        type            epsilonWallFunction;
        value           nonuniform List<scalar> 
44
(
0.0236804
0.0414285
0.0560262
0.0650644
0.0758342
0.0880812
0.100073
0.110267
0.118807
0.125612
0.137467
0.175749
0.266082
0.394826
0.516669
0.557541
0.548061
0.531421
0.514544
0.499663
0.487118
0.478967
0.473316
0.470087
0.470002
0.47329
0.479683
0.488535
0.499008
0.510238
0.521449
0.53201
0.541451
0.549449
0.555808
0.560434
0.563319
0.564539
0.564286
0.562995
0.560786
0.557118
0.551967
0.54549
)
;
    }
    rightWall
    {
        Cmu             0.09;
        kappa           0.41;
        E               9.8;
        type            epsilonWallFunction;
        value           nonuniform 0();
    }
    lowerWall
    {
        Cmu             0.09;
        kappa           0.41;
        E               9.8;
        type            epsilonWallFunction;
        value           nonuniform List<scalar> 
44
(
0.0236804
0.0647378
0.117594
0.182963
0.248068
0.309782
0.367094
0.425144
0.479665
0.531823
0.581732
0.629576
0.675553
0.71985
0.762625
0.803994
0.844024
0.882726
0.920051
0.955892
0.99008
1.02238
1.0525
1.08007
1.10464
1.12569
1.14255
1.15431
1.16325
1.16854
1.16802
1.16031
1.14439
1.11937
1.08455
1.03948
0.984184
0.91937
0.846408
0.765007
0.687968
0.616292
0.558784
0.503502
)
;
    }
    atmosphere
    {
        type            inletOutlet;
        inletValue      nonuniform 0();
        value           nonuniform 0();
    }
    defaultFaces
    {
        type            empty;
    }
    procBoundary0to1
    {
        type            processor;
        value           nonuniform List<scalar> 
44
(
0.447027
0.383685
0.473257
0.567906
0.672271
0.774975
0.871273
0.963398
1.06389
1.16796
1.13299
1.11921
1.10589
1.07894
1.04045
0.99798
0.958189
0.925149
0.900369
0.883268
0.883268
0.934375
0.918372
0.91195
0.898104
0.873993
0.851966
0.833089
0.816783
0.803311
0.792718
0.784919
0.779814
0.777237
0.776865
0.778168
0.780429
0.782829
0.784575
0.785031
0.783831
0.780949
0.776717
0.771794
)
;
    }
    procBoundary0to2
    {
        type            processor;
        value           nonuniform List<scalar> 
46
(
0.155297
0.163477
0.172714
0.18312
0.194816
0.207926
0.222577
0.238889
0.256975
0.276937
0.298823
0.322671
0.34847
0.37616
0.405624
0.436684
0.469103
0.502588
0.5368
0.571374
0.605931
0.640079
0.673489
0.705899
0.737129
0.537885
0.233023
0.167967
0.141235
0.127259
0.119204
0.11444
0.111731
0.11042
0.110133
0.110643
0.111817
0.113577
0.115884
0.118729
0.122123
0.126097
0.130698
0.135985
0.155297
0.142032
)
;
    }
}


// ************************************************************************* //
