/*--------------------------------*- C++ -*----------------------------------*\
| =========                 |                                                 |
| \\      /  F ield         | OpenFOAM: The Open Source CFD Toolbox           |
|  \\    /   O peration     | Version:  5.0                                   |
|   \\  /    A nd           | Web:      www.OpenFOAM.org                      |
|    \\/     M anipulation  |                                                 |
\*---------------------------------------------------------------------------*/
FoamFile
{
    version     2.0;
    format      ascii;
    class       volScalarField;
    location    "0.55";
    object      p;
}
// * * * * * * * * * * * * * * * * * * * * * * * * * * * * * * * * * * * * * //

dimensions      [1 -1 -2 0 0 0 0];

internalField   nonuniform List<scalar> 
1935
(
542.261
540.774
541.534
544.725
549.785
555.621
561.597
567.396
572.821
577.857
582.511
586.83
590.875
594.717
598.428
602.079
605.736
609.46
613.305
617.32
621.544
626.013
630.758
635.805
641.182
646.918
653.056
659.665
666.777
674.418
682.625
691.47
701.007
711.234
722.072
733.311
744.573
755.285
764.716
772.29
777.108
778.099
776.315
779.216
494.772
492.785
492.752
495.424
499.757
504.895
510.332
515.752
520.97
525.919
530.584
534.987
539.17
543.188
547.103
550.974
554.863
558.826
562.914
567.175
571.651
576.38
581.396
586.732
592.421
598.498
605.003
611.979
619.517
627.651
636.465
646.028
656.386
667.538
679.399
691.742
704.139
715.908
726.128
733.924
738.462
736.855
729.223
725.068
446.197
444.757
445.273
447.232
450.618
454.835
459.488
464.296
469.079
473.744
478.252
482.602
486.816
490.931
494.993
499.051
503.157
507.359
511.706
516.242
521.01
526.049
531.398
537.094
543.174
549.682
556.663
564.168
572.273
581.043
590.549
600.844
611.951
623.841
636.386
649.317
662.159
674.186
684.415
691.8
695.504
693.426
685.039
677.61
397.479
396.733
397.703
399.519
402.288
405.773
409.718
413.909
418.195
422.484
426.726
430.908
435.039
439.142
443.252
447.408
451.651
456.027
460.576
465.343
470.368
475.691
481.352
487.391
493.849
500.769
508.198
516.188
524.802
534.109
544.165
555.006
566.624
578.952
591.82
604.912
617.727
629.538
639.401
646.277
649.301
647.202
640.029
632.728
349.024
349.212
350.505
352.188
354.511
357.428
360.782
364.424
368.235
372.133
376.07
380.027
384.004
388.02
392.1
396.277
400.585
405.065
409.755
414.695
419.925
425.486
431.417
437.757
444.548
451.831
459.651
468.054
477.095
486.83
497.301
508.52
520.454
533.002
545.962
558.997
571.605
583.096
592.609
599.195
602.022
600.308
594.676
589.109
300.791
301.934
303.447
304.977
306.932
309.376
312.228
315.39
318.772
322.3
325.93
329.643
333.438
337.327
341.333
345.484
349.811
354.348
359.133
364.205
369.602
375.363
381.529
388.137
395.225
402.832
410.994
419.753
429.152
439.235
450.026
461.518
473.655
486.311
499.267
512.181
524.564
535.779
545.049
551.535
554.499
553.486
549.428
546.194
252.637
254.557
256.223
257.624
259.274
261.318
263.744
266.498
269.504
272.699
276.04
279.513
283.116
286.863
290.773
294.871
299.186
303.751
308.602
313.775
319.311
325.247
331.623
338.474
345.836
353.738
362.208
371.277
380.981
391.352
402.399
414.098
426.373
439.088
452.016
464.815
477.022
488.046
497.188
503.706
506.975
506.779
504.229
503.233
204.56
206.968
208.705
209.973
211.352
213.051
215.119
217.536
220.232
223.141
226.225
229.474
232.893
236.495
240.299
244.331
248.618
253.19
258.084
263.336
268.988
275.079
281.646
288.724
296.344
304.524
313.278
322.626
332.597
343.213
354.474
366.342
378.724
391.482
404.397
417.129
429.239
440.178
449.311
455.973
459.638
460.23
458.905
459.559
156.615
159.193
160.846
161.903
162.982
164.351
166.118
168.275
170.732
173.412
176.281
179.338
182.595
186.066
189.774
193.744
198
202.572
207.498
212.818
218.574
224.806
231.553
238.85
246.72
255.172
264.196
273.803
284.014
294.852
306.305
318.328
330.808
343.619
356.563
369.299
381.41
392.387
401.64
408.564
412.692
413.974
413.386
414.445
108.845
111.087
112.427
113.107
113.794
114.832
116.36
118.337
120.624
123.116
125.794
128.679
131.797
135.164
138.806
142.749
147.013
151.62
156.609
162.024
167.908
174.304
181.251
188.785
196.928
205.668
214.965
224.818
235.253
246.302
257.945
270.132
282.713
295.6
308.636
321.461
333.688
344.836
354.357
361.687
366.388
368.36
368.239
368.595
61.1045
62.0909
62.8494
63.1083
63.4805
64.3353
65.7899
67.719
69.877
72.1358
74.5283
77.1377
80.0188
83.1997
86.7131
90.6012
94.8779
99.5397
104.619
110.166
116.226
122.843
130.059
137.911
146.42
155.538
165.159
175.272
185.923
197.176
209.015
221.394
234.084
247.069
260.28
273.292
285.755
297.222
307.18
315.105
320.592
323.509
324.228
323.981
20.3287
19.4306
19.5981
19.7234
19.991
20.5983
21.6653
23.0874
24.6082
26.1134
27.6977
29.5072
31.6297
34.102
36.9682
40.2912
44.0736
48.2958
52.9965
58.2425
64.1001
70.6314
77.898
85.9644
94.8728
104.493
114.538
124.964
135.852
147.326
159.363
171.958
184.739
197.84
211.348
224.658
237.489
249.429
260.008
268.747
275.316
279.656
282.179
283.804
1.24226
1.49067
1.58944
1.6832
1.86767
2.134
2.53344
3.06208
3.63719
4.20077
4.77587
5.41637
6.15631
7.00759
7.98596
9.11393
10.3813
12.0368
14.1579
16.8399
20.2043
24.3834
29.5407
35.9037
43.7438
53.0137
63.1261
73.7866
84.9593
96.8719
109.186
122.107
134.871
148.012
162.003
175.782
189.161
201.744
213.119
222.855
230.731
236.808
241.663
246.445
0.507451
0.564687
0.549494
0.539003
0.550941
0.560383
0.56439
0.564257
0.560902
0.555586
0.550176
0.546247
0.544493
0.544834
0.545465
0.538414
0.549881
0.695108
1.00091
1.48758
2.20944
3.24301
4.70032
6.75703
9.67674
13.6823
18.9667
25.8941
34.281
44.8436
57.8927
72.0932
84.5832
97.2953
111.974
126.409
140.608
154.121
166.529
177.406
186.684
194.534
201.656
209.366
0.476024
0.485055
0.499172
0.514159
0.528572
0.539754
0.547807
0.553582
0.557812
0.56112
0.564013
0.566802
0.569556
0.572038
0.573198
0.569499
0.552448
0.533819
0.531736
0.540098
0.55427
0.571819
0.591304
0.611829
0.633337
0.664054
1.08349
2.50264
4.89196
8.85851
16.1083
26.0634
35.0175
46.4199
62.1223
76.4604
91.3419
106.099
119.967
132.247
143.008
152.505
161.528
171.382
0.424756
0.430394
0.439384
0.450541
0.461247
0.470711
0.478364
0.484241
0.488723
0.492275
0.495327
0.498198
0.501041
0.503812
0.506342
0.509537
0.519902
0.531857
0.540665
0.548433
0.556028
0.563658
0.571389
0.57925
0.587427
0.597629
0.616021
0.638899
0.655305
0.671708
1.05623
2.68782
5.46361
10.6741
19.8998
29.7308
43.0294
57.6287
72.796
86.7748
99.3034
110.439
121.001
132.2
0.376709
0.378973
0.384403
0.392233
0.400515
0.408353
0.415086
0.420523
0.424824
0.4283
0.431306
0.434145
0.437002
0.439934
0.443042
0.447175
0.455173
0.464295
0.472685
0.481112
0.489889
0.499014
0.508452
0.518188
0.528204
0.538177
0.547764
0.557919
0.570378
0.587545
0.60813
0.603674
0.568169
0.657058
2.05594
4.56455
7.89425
14.9549
27.2876
40.8325
54.7337
67.6493
79.7369
91.8451
0.322943
0.324854
0.329522
0.336219
0.343309
0.350122
0.356207
0.361391
0.365737
0.369441
0.372752
0.375912
0.379092
0.382393
0.385931
0.390124
0.395852
0.402672
0.410223
0.418571
0.427643
0.437325
0.447518
0.458161
0.469227
0.480514
0.491656
0.5033
0.514444
0.526293
0.53398
0.542473
0.556054
0.551047
0.464689
0.324121
-0.328348
-0.900834
-1.69376
1.82087
11.6888
23.8604
36.8893
49.8616
0.267899
0.269538
0.274038
0.279987
0.286202
0.29222
0.297752
0.302671
0.306997
0.310855
0.314421
0.317879
0.321387
0.325069
0.329058
0.333627
0.339204
0.345722
0.35307
0.361189
0.370005
0.379438
0.389412
0.399863
0.41076
0.422049
0.433588
0.44533
0.456802
0.467673
0.475854
0.484435
0.497554
0.512171
0.518699
0.495529
0.371651
-0.0847037
-2.38673
-6.73196
-12.3882
-12.336
-4.76181
6.15491
0.211212
0.213198
0.217602
0.223056
0.228586
0.233948
0.238982
0.243602
0.247818
0.251715
0.255421
0.259082
0.262839
0.26682
0.271168
0.276098
0.281845
0.28839
0.295658
0.30361
0.312202
0.321384
0.3311
0.341297
0.351927
0.362939
0.374239
0.385698
0.397055
0.407955
0.41751
0.426207
0.435479
0.445421
0.457017
0.476127
0.489761
0.416789
0.222232
-0.781696
-5.12772
-13.5205
-23.8502
-27.968
0.15325
0.155821
0.160231
0.165324
0.170333
0.17517
0.179776
0.184108
0.18818
0.192058
0.195841
0.199644
0.203589
0.207795
0.212392
0.217539
0.223377
0.229913
0.237115
0.244961
0.253418
0.26245
0.272013
0.282061
0.292542
0.303393
0.314521
0.325806
0.337046
0.348008
0.358258
0.367794
0.376927
0.385254
0.392947
0.405156
0.425582
0.449736
0.451903
0.333804
0.066632
-1.68098
-7.89181
-19.3982
-34.6214
0.0943235
0.0973512
0.101839
0.106655
0.111255
0.115669
0.119914
0.123985
0.127909
0.131745
0.13557
0.139479
0.143573
0.147955
0.152736
0.15803
0.163933
0.17047
0.177636
0.185417
0.193792
0.20273
0.212199
0.222158
0.232558
0.243337
0.254407
0.265658
0.276928
0.288047
0.298789
0.309146
0.319202
0.328622
0.33704
0.345854
0.356624
0.372378
0.397622
0.433136
0.421336
0.273804
-0.0468919
-2.14639
-9.04383
0.0344765
0.0378771
0.0423723
0.0469307
0.0511837
0.0552444
0.0591803
0.0630212
0.0668048
0.0705855
0.074431
0.0784179
0.08263
0.0871546
0.0920807
0.0974957
0.10347
0.110033
0.117194
0.124947
0.133277
0.142164
0.151581
0.161495
0.171862
0.182625
0.193709
0.205018
0.216427
0.227815
0.239053
0.250127
0.261076
0.271775
0.282068
0.292231
0.302086
0.311842
0.325429
0.349245
0.379903
0.431709
0.410847
0.229553
-0.10268
-0.0262552
-0.0225989
-0.0181997
-0.0139207
-0.00998547
-0.00623361
-0.00256486
0.00107276
0.004726
0.00844772
0.0122974
0.0163398
0.0206436
0.0252809
0.0303241
0.0358419
0.0418888
0.0484953
0.0556745
0.0634278
0.0717478
0.0806205
0.0900259
0.0999366
0.110316
0.121115
0.132272
0.143708
0.155333
0.167063
0.178822
0.190593
0.202391
0.214194
0.225998
0.237972
0.249965
0.261577
0.273451
0.286994
0.305266
0.340172
0.377169
0.444483
0.433648
-0.0878675
-0.0840891
-0.0798942
-0.0759318
-0.072304
-0.06883
-0.0653954
-0.0619363
-0.0584011
-0.0547387
-0.0508958
-0.046817
-0.0424451
-0.0377205
-0.0325843
-0.0269808
-0.0208655
-0.0142092
-0.00699645
0.000778739
0.00911459
0.0180026
0.0274286
0.0373715
0.0478025
0.0586828
0.069964
0.0815869
0.0934849
0.105603
0.117902
0.130374
0.143034
0.155893
0.168996
0.182479
0.196378
0.210614
0.225296
0.240405
0.256223
0.275883
0.299982
0.344417
0.384713
-0.150378
-0.146615
-0.142718
-0.139106
-0.135782
-0.132562
-0.129334
-0.126031
-0.122601
-0.118996
-0.115167
-0.111067
-0.106647
-0.101858
-0.0966494
-0.0909765
-0.0848008
-0.0780951
-0.0708421
-0.063033
-0.0546653
-0.0457426
-0.0362735
-0.0262723
-0.0157598
-0.00476373
0.00668114
0.018533
0.0307463
0.0432863
0.0561386
0.0693101
0.0828265
0.096725
0.111065
0.125955
0.141482
0.157734
0.174914
0.193141
0.212323
0.232928
0.254335
0.280948
0.310535
-0.213814
-0.210197
-0.206665
-0.203425
-0.200398
-0.197413
-0.194369
-0.191203
-0.187866
-0.184315
-0.180506
-0.176396
-0.171945
-0.167109
-0.161847
-0.15612
-0.149895
-0.143145
-0.135852
-0.128006
-0.119599
-0.110632
-0.101106
-0.0910307
-0.0804174
-0.0692834
-0.0576502
-0.0455434
-0.0329904
-0.0200098
-0.00659965
0.00726197
0.0216132
0.0365107
0.052032
0.0682798
0.0853556
0.10338
0.122569
0.143166
0.165366
0.189454
0.214944
0.243023
0.272728
-0.278203
-0.274844
-0.271712
-0.268849
-0.26611
-0.263343
-0.260465
-0.257421
-0.254169
-0.250668
-0.246882
-0.242773
-0.238305
-0.233439
-0.22814
-0.222373
-0.21611
-0.209324
-0.201997
-0.194115
-0.185669
-0.176654
-0.167067
-0.15691
-0.146187
-0.134904
-0.123071
-0.110699
-0.0977999
-0.0843775
-0.0704182
-0.0558868
-0.0407334
-0.0248885
-0.00825954
0.00926696
0.0278077
0.0474961
0.068526
0.0911493
0.115662
0.142397
0.171399
0.203341
0.23794
-0.343559
-0.340543
-0.33782
-0.335324
-0.33286
-0.330298
-0.327573
-0.324641
-0.321467
-0.318017
-0.314259
-0.31016
-0.305686
-0.300804
-0.295483
-0.289692
-0.283402
-0.27659
-0.269237
-0.261325
-0.252843
-0.243782
-0.234136
-0.223897
-0.213062
-0.201629
-0.189596
-0.176963
-0.163726
-0.149876
-0.135391
-0.120225
-0.104315
-0.087584
-0.0699284
-0.0512252
-0.0313397
-0.0101231
0.0126104
0.0370973
0.063637
0.0925653
0.124119
0.158813
0.196959
-0.409874
-0.407255
-0.40493
-0.402783
-0.40058
-0.398212
-0.395632
-0.392808
-0.389712
-0.386315
-0.382591
-0.37851
-0.374043
-0.369159
-0.36383
-0.358027
-0.351723
-0.344896
-0.337524
-0.329589
-0.321078
-0.311977
-0.302275
-0.29196
-0.28102
-0.269444
-0.257222
-0.244341
-0.230786
-0.216538
-0.201563
-0.185811
-0.169207
-0.151663
-0.133072
-0.113303
-0.0922088
-0.0696274
-0.0453681
-0.0192018
0.00915775
0.040043
0.0737522
0.1107
0.151362
-0.477124
-0.474925
-0.472978
-0.471156
-0.469199
-0.467017
-0.464579
-0.461863
-0.458847
-0.455509
-0.451827
-0.447774
-0.443325
-0.438452
-0.433128
-0.427326
-0.421021
-0.414189
-0.406808
-0.398859
-0.390326
-0.381192
-0.371442
-0.361059
-0.350025
-0.338321
-0.325928
-0.312824
-0.298982
-0.284374
-0.268958
-0.252678
-0.235453
-0.217185
-0.197761
-0.177046
-0.154888
-0.131114
-0.105528
-0.0778997
-0.0479534
-0.0153623
0.0202032
0.0591141
0.101828
-0.545272
-0.543492
-0.541896
-0.540376
-0.538651
-0.536649
-0.534352
-0.531746
-0.528815
-0.525544
-0.521913
-0.517899
-0.51348
-0.50863
-0.503324
-0.497536
-0.491241
-0.484415
-0.477036
-0.469083
-0.460537
-0.451379
-0.441591
-0.43115
-0.420036
-0.408223
-0.395684
-0.382388
-0.368301
-0.353381
-0.337582
-0.320842
-0.303078
-0.284184
-0.264041
-0.242513
-0.219442
-0.194652
-0.167944
-0.139086
-0.107809
-0.0737953
-0.036705
0.00382013
0.0481877
-0.614277
-0.612896
-0.611627
-0.610385
-0.608879
-0.607052
-0.604897
-0.602406
-0.599568
-0.596371
-0.5928
-0.588835
-0.584457
-0.579641
-0.574365
-0.568603
-0.56233
-0.555522
-0.548155
-0.540209
-0.531661
-0.52249
-0.512675
-0.502191
-0.491013
-0.479113
-0.466456
-0.453005
-0.438717
-0.423543
-0.407429
-0.390307
-0.372094
-0.352681
-0.331943
-0.309741
-0.285917
-0.260295
-0.232673
-0.202824
-0.170481
-0.135339
-0.097062
-0.0552978
-0.00967649
-0.684103
-0.68309
-0.682124
-0.681142
-0.679844
-0.678189
-0.676176
-0.673804
-0.671065
-0.66795
-0.664448
-0.660542
-0.656215
-0.651444
-0.646208
-0.640482
-0.634242
-0.627463
-0.620121
-0.612194
-0.603656
-0.594486
-0.584658
-0.574147
-0.562924
-0.550959
-0.538214
-0.524645
-0.510204
-0.494836
-0.47848
-0.461062
-0.442497
-0.422678
-0.401479
-0.378754
-0.354347
-0.328081
-0.29976
-0.269158
-0.236017
-0.200039
-0.160899
-0.118251
-0.0717497
-0.754726
-0.754044
-0.753362
-0.752621
-0.751523
-0.750036
-0.748167
-0.745917
-0.743282
-0.740256
-0.736831
-0.732992
-0.728724
-0.724008
-0.718821
-0.71314
-0.706943
-0.700205
-0.6929
-0.685004
-0.676491
-0.667336
-0.657513
-0.646993
-0.635749
-0.623744
-0.61094
-0.597291
-0.582746
-0.567243
-0.550718
-0.533092
-0.514277
-0.494169
-0.472643
-0.449552
-0.424737
-0.398024
-0.369221
-0.338107
-0.30443
-0.267904
-0.22821
-0.185011
-0.137973
-0.826137
-0.825747
-0.82533
-0.824814
-0.823907
-0.822586
-0.820862
-0.818737
-0.81621
-0.813279
-0.809937
-0.806172
-0.801971
-0.797316
-0.792186
-0.786561
-0.780416
-0.773728
-0.766472
-0.75862
-0.750147
-0.741025
-0.731226
-0.720721
-0.709478
-0.697463
-0.684634
-0.670945
-0.656341
-0.640763
-0.624139
-0.606391
-0.587428
-0.567146
-0.545425
-0.522121
-0.497074
-0.470112
-0.441044
-0.409656
-0.375704
-0.338908
-0.29896
-0.255529
-0.208286
-0.898339
-0.898202
-0.898032
-0.897727
-0.897003
-0.895846
-0.894265
-0.892267
-0.889852
-0.88702
-0.883766
-0.880082
-0.875954
-0.871366
-0.866302
-0.860739
-0.854656
-0.848028
-0.840831
-0.833037
-0.824619
-0.815548
-0.805795
-0.79533
-0.784118
-0.772124
-0.759307
-0.74562
-0.731009
-0.715413
-0.698761
-0.680973
-0.661959
-0.641616
-0.619827
-0.596456
-0.571347
-0.544326
-0.515205
-0.483776
-0.449801
-0.41301
-0.373101
-0.329751
-0.282636
-0.971352
-0.971424
-0.971484
-0.971377
-0.970828
-0.96983
-0.968392
-0.966521
-0.96422
-0.961491
-0.95833
-0.95473
-0.950681
-0.946169
-0.941176
-0.935684
-0.929671
-0.923113
-0.915987
-0.908264
-0.899916
-0.890916
-0.881231
-0.870831
-0.859682
-0.847746
-0.834983
-0.821344
-0.80678
-0.791227
-0.774618
-0.756872
-0.737902
-0.717608
-0.695875
-0.672577
-0.647564
-0.620665
-0.591695
-0.56045
-0.526698
-0.490179
-0.450597
-0.407637
-0.360986
-1.04522
-1.04543
-1.04571
-1.04578
-1.0454
-1.04456
-1.04326
-1.04152
-1.03933
-1.03671
-1.03365
-1.03014
-1.02617
-1.02174
-1.01683
-1.01141
-1.00548
-0.999001
-0.991956
-0.984317
-0.976057
-0.967145
-0.957553
-0.947247
-0.936194
-0.924355
-0.911689
-0.898151
-0.88369
-0.868246
-0.851753
-0.834134
-0.815304
-0.795167
-0.773614
-0.750524
-0.725758
-0.699154
-0.67053
-0.639684
-0.606393
-0.570403
-0.53143
-0.489164
-0.443307
-1.11996
-1.12026
-1.12074
-1.12098
-1.12076
-1.12007
-1.11891
-1.11729
-1.11522
-1.1127
-1.10974
-1.10632
-1.10245
-1.0981
-1.09328
-1.08795
-1.0821
-1.07572
-1.06877
-1.06122
-1.05307
-1.04427
-1.03479
-1.02461
-1.01368
-1.00198
-0.989459
-0.976075
-0.961778
-0.946512
-0.930212
-0.912806
-0.894213
-0.874342
-0.853091
-0.830346
-0.805975
-0.77983
-0.751737
-0.721497
-0.688895
-0.653686
-0.615592
-0.574314
-0.529561
-1.19556
-1.19597
-1.19661
-1.197
-1.19693
-1.19638
-1.19535
-1.19386
-1.19191
-1.1895
-1.18664
-1.18332
-1.17954
-1.17529
-1.17056
-1.16533
-1.15958
-1.15329
-1.14645
-1.13902
-1.13098
-1.12231
-1.11298
-1.10294
-1.09218
-1.08066
-1.06833
-1.05515
-1.04108
-1.02606
-1.01003
-0.992929
-0.974671
-0.955175
-0.934347
-0.91208
-0.88825
-0.862722
-0.835335
-0.8059
-0.774205
-0.740014
-0.703059
-0.663047
-0.619685
-1.27205
-1.27258
-1.27336
-1.27388
-1.27395
-1.27353
-1.27263
-1.27125
-1.26941
-1.26712
-1.26436
-1.26115
-1.25748
-1.25333
-1.2487
-1.24357
-1.23793
-1.23176
-1.22504
-1.21774
-1.20985
-1.20132
-1.19215
-1.1823
-1.17173
-1.16042
-1.14833
-1.13542
-1.12164
-1.10693
-1.09125
-1.07453
-1.0567
-1.03769
-1.0174
-0.995739
-0.972593
-0.947835
-0.92132
-0.892874
-0.862289
-0.829338
-0.793763
-0.755275
-0.713564
-1.34947
-1.35011
-1.351
-1.35165
-1.35183
-1.35154
-1.35076
-1.3495
-1.34778
-1.34559
-1.34295
-1.33985
-1.33628
-1.33225
-1.32773
-1.32272
-1.31721
-1.31117
-1.30458
-1.29743
-1.28969
-1.28134
-1.27235
-1.2627
-1.25236
-1.2413
-1.22949
-1.21689
-1.20345
-1.18913
-1.17386
-1.15761
-1.14031
-1.12188
-1.10224
-1.08131
-1.05898
-1.03514
-1.00966
-0.982367
-0.953079
-0.92157
-0.887591
-0.850853
-0.811034
-1.42787
-1.42859
-1.42958
-1.43033
-1.43062
-1.43043
-1.42976
-1.42862
-1.42701
-1.42494
-1.42241
-1.41942
-1.41598
-1.41206
-1.40768
-1.4028
-1.39742
-1.39152
-1.38509
-1.3781
)
;

boundaryField
{
    leftWall
    {
        type            calculated;
        value           nonuniform List<scalar> 
44
(
542.261
494.772
446.197
397.479
349.024
300.791
252.637
204.56
156.615
108.845
61.1045
20.3287
1.24226
0.507451
0.476024
0.424756
0.376709
0.322943
0.267899
0.211212
0.15325
0.0943235
0.0344765
-0.0262552
-0.0878675
-0.150378
-0.213814
-0.278203
-0.343559
-0.409874
-0.477124
-0.545272
-0.614277
-0.684103
-0.754726
-0.826137
-0.898339
-0.971352
-1.04522
-1.11996
-1.19556
-1.27205
-1.34947
-1.42787
)
;
    }
    rightWall
    {
        type            calculated;
        value           nonuniform 0();
    }
    lowerWall
    {
        type            calculated;
        value           nonuniform List<scalar> 
44
(
565.804
564.317
565.078
568.269
573.328
579.165
585.141
590.939
596.365
601.4
606.055
610.373
614.419
618.261
621.972
625.622
629.28
633.004
636.849
640.863
645.088
649.557
654.302
659.349
664.725
670.462
676.6
683.208
690.32
697.962
706.168
715.013
724.55
734.778
745.615
756.855
768.116
778.828
788.26
795.831
800.049
800.622
799.859
802.76
)
;
    }
    atmosphere
    {
        type            calculated;
        value           nonuniform 0();
    }
    defaultFaces
    {
        type            empty;
    }
    procBoundary0to1
    {
        type            processor;
        value           nonuniform List<scalar> 
44
(
788.729
728.829
674.228
627.669
587.266
548.66
509.836
469.114
424.767
375.983
323.745
284.606
251.919
218.938
183.651
145.647
105.459
63.4897
19.0464
-23.592
-23.592
-42.7436
-20.347
-1.04214
0.320376
0.462417
0.361644
0.30928
0.276838
0.239562
0.196496
0.14896
0.0969272
0.0402783
-0.0209427
-0.0866539
-0.156798
-0.231342
-0.310251
-0.393479
-0.480958
-0.572595
-0.668255
-0.767742
)
;
    }
    procBoundary0to2
    {
        type            processor;
        value           nonuniform List<scalar> 
46
(
-1.37054
-1.36237
-1.35359
-1.34417
-1.3341
-1.32333
-1.31183
-1.29958
-1.28653
-1.27264
-1.25787
-1.24217
-1.22547
-1.20772
-1.18884
-1.16875
-1.14737
-1.12458
-1.10028
-1.0743
-1.04648
-1.01659
-0.984397
-0.949612
-0.911902
-1.50726
-1.50805
-1.50912
-1.50996
-1.51035
-1.51026
-1.50969
-1.50866
-1.50715
-1.50519
-1.50278
-1.49991
-1.49659
-1.4928
-1.48855
-1.48382
-1.47859
-1.47286
-1.46659
-1.37054
-1.45979
)
;
    }
}


// ************************************************************************* //
