/*--------------------------------*- C++ -*----------------------------------*\
| =========                 |                                                 |
| \\      /  F ield         | OpenFOAM: The Open Source CFD Toolbox           |
|  \\    /   O peration     | Version:  5.0                                   |
|   \\  /    A nd           | Web:      www.OpenFOAM.org                      |
|    \\/     M anipulation  |                                                 |
\*---------------------------------------------------------------------------*/
FoamFile
{
    version     2.0;
    format      ascii;
    class       surfaceScalarField;
    location    "0.55";
    object      phi;
}
// * * * * * * * * * * * * * * * * * * * * * * * * * * * * * * * * * * * * * //

dimensions      [0 3 -1 0 0 0 0];

internalField   nonuniform List<scalar> 
3781
(
-2.74868e-06
2.74868e-06
-4.61882e-06
1.87014e-06
-4.95372e-06
3.34899e-07
-4.23924e-06
-7.14483e-07
-2.9963e-06
-1.24293e-06
-1.48936e-06
-1.50694e-06
1.22276e-07
-1.61164e-06
1.75556e-06
-1.63328e-06
3.36359e-06
-1.60804e-06
4.91714e-06
-1.55354e-06
6.39904e-06
-1.4819e-06
7.79938e-06
-1.40034e-06
9.11296e-06
-1.31358e-06
1.03379e-05
-1.22495e-06
1.14746e-05
-1.13673e-06
1.25251e-05
-1.05044e-06
1.34921e-05
-9.67005e-07
1.43789e-05
-8.86825e-07
1.51888e-05
-8.09877e-07
1.59245e-05
-7.35737e-07
1.65881e-05
-6.63602e-07
1.71804e-05
-5.92281e-07
1.77006e-05
-5.20157e-07
1.81457e-05
-4.4512e-07
1.85101e-05
-3.64439e-07
1.87846e-05
-2.74429e-07
1.89544e-05
-1.69847e-07
1.89958e-05
-4.14261e-08
1.88726e-05
1.23278e-07
1.85589e-05
3.13643e-07
1.80215e-05
5.37411e-07
1.72194e-05
8.02143e-07
1.61067e-05
1.11267e-06
1.46363e-05
1.47039e-06
1.27645e-05
1.87184e-06
1.04585e-05
2.306e-06
7.70747e-06
2.75098e-06
4.53448e-06
3.17299e-06
1.00222e-06
3.53227e-06
-2.82357e-06
3.82578e-06
-7.00576e-06
4.18219e-06
-1.12007e-05
4.19496e-06
-1.36746e-05
2.47384e-06
-8.59349e-07
-2.2231e-06
4.97178e-06
-2.67513e-06
2.32216e-06
-2.33644e-06
-3.78802e-09
-1.50652e-06
-1.5444e-06
-3.61765e-07
-2.38769e-06
9.63706e-07
-2.83241e-06
2.38767e-06
-3.03561e-06
3.84708e-06
-3.09269e-06
5.29978e-06
-3.06074e-06
6.71927e-06
-2.97303e-06
8.08762e-06
-2.85025e-06
9.39313e-06
-2.70585e-06
1.06286e-05
-2.54908e-06
1.17902e-05
-2.38646e-06
1.2876e-05
-2.22256e-06
1.3886e-05
-2.06048e-06
1.48211e-05
-1.90213e-06
1.56828e-05
-1.74846e-06
1.64724e-05
-1.59953e-06
1.71914e-05
-1.45466e-06
1.78402e-05
-1.31242e-06
1.84185e-05
-1.17062e-06
1.89246e-05
-1.02626e-06
1.93549e-05
-8.75449e-07
1.97038e-05
-7.13276e-07
1.9963e-05
-5.33658e-07
2.01225e-05
-3.29288e-07
2.01721e-05
-9.11143e-08
2.01034e-05
1.92041e-07
1.98895e-05
5.27508e-07
1.95014e-05
9.25508e-07
1.8907e-05
1.39653e-06
1.807e-05
1.94973e-06
1.69495e-05
2.59088e-06
1.55017e-05
3.31965e-06
1.36827e-05
4.12498e-06
1.14552e-05
4.97846e-06
8.80026e-06
5.82795e-06
5.73691e-06
6.59561e-06
2.36809e-06
7.1946e-06
-1.00599e-06
7.55628e-06
-3.92217e-06
7.11114e-06
-6.02272e-06
4.57439e-06
1.90736e-07
-1.20909e-06
6.18088e-06
-1.06422e-06
2.17728e-06
-4.50022e-07
-6.17981e-07
4.12948e-07
-2.40737e-06
1.48449e-06
-3.45923e-06
2.69132e-06
-4.03924e-06
3.97515e-06
-4.31943e-06
5.293e-06
-4.41054e-06
6.61293e-06
-4.38067e-06
7.91176e-06
-4.27186e-06
9.17274e-06
-4.11123e-06
1.03841e-05
-3.91717e-06
1.15377e-05
-3.70276e-06
1.26287e-05
-3.4774e-06
1.36539e-05
-3.24779e-06
1.4612e-05
-3.01853e-06
1.55024e-05
-2.79256e-06
1.63253e-05
-2.57137e-06
1.7081e-05
-2.35524e-06
1.77696e-05
-2.14332e-06
1.83909e-05
-1.9337e-06
1.89437e-05
-1.72338e-06
1.94256e-05
-1.50822e-06
1.9833e-05
-1.28281e-06
2.01602e-05
-1.04045e-06
2.03996e-05
-7.73065e-07
2.05416e-05
-4.71316e-07
2.05753e-05
-1.24751e-07
2.04887e-05
2.78592e-07
2.02653e-05
7.50914e-07
1.9886e-05
1.30481e-06
1.93302e-05
1.9523e-06
1.85765e-05
2.70342e-06
1.76034e-05
3.56401e-06
1.63904e-05
4.53264e-06
1.49198e-05
5.59563e-06
1.31788e-05
6.71942e-06
1.11657e-05
7.8411e-06
8.90284e-06
8.85844e-06
6.47401e-06
9.62343e-06
4.10567e-06
9.92462e-06
2.01879e-06
9.19803e-06
4.76764e-09
6.58841e-06
1.85301e-06
-2.16652e-07
6.39753e-06
2.87576e-07
1.67305e-06
1.05786e-06
-1.38827e-06
1.97642e-06
-3.32593e-06
3.01269e-06
-4.4955e-06
4.13246e-06
-5.15901e-06
5.3058e-06
-5.49277e-06
6.50658e-06
-5.61133e-06
7.71247e-06
-5.58656e-06
8.9049e-06
-5.46429e-06
1.0069e-05
-5.27536e-06
1.11936e-05
-5.04172e-06
1.22703e-05
-4.77951e-06
1.32935e-05
-4.50062e-06
1.42594e-05
-4.21366e-06
1.51655e-05
-3.92462e-06
1.60103e-05
-3.63736e-06
1.67929e-05
-3.354e-06
1.75127e-05
-3.07504e-06
1.8169e-05
-2.7996e-06
1.87607e-05
-2.52541e-06
1.92862e-05
-2.24885e-06
1.97428e-05
-1.96485e-06
2.01268e-05
-1.66679e-06
2.04328e-05
-1.34644e-06
2.06538e-05
-9.94038e-07
2.0781e-05
-5.98568e-07
2.08044e-05
-1.4811e-07
2.07126e-05
3.70336e-07
2.04932e-05
9.70337e-07
2.01327e-05
1.66534e-06
1.96176e-05
2.46739e-06
1.89355e-05
3.38545e-06
1.80766e-05
4.42296e-06
1.70345e-05
5.57473e-06
1.5808e-05
6.82217e-06
1.44018e-05
8.12558e-06
1.28292e-05
9.41374e-06
1.11172e-05
1.05705e-05
9.32304e-06
1.14175e-05
7.56442e-06
1.16832e-05
5.89372e-06
1.08687e-05
4.14506e-06
8.33707e-06
3.71035e-06
6.86803e-07
5.71073e-06
1.4368e-06
9.23056e-07
2.3467e-06
-2.29816e-06
3.31862e-06
-4.29786e-06
4.33537e-06
-5.51225e-06
5.38936e-06
-6.21301e-06
6.47289e-06
-6.57629e-06
7.57502e-06
-6.71346e-06
8.68232e-06
-6.69386e-06
9.78082e-06
-6.56279e-06
1.08578e-05
-6.35237e-06
1.19029e-05
-6.08684e-06
1.29081e-05
-5.7847e-06
1.38674e-05
-5.45992e-06
1.47765e-05
-5.1227e-06
1.56321e-05
-4.78024e-06
1.6432e-05
-4.4373e-06
1.71746e-05
-4.09653e-06
1.78583e-05
-3.75874e-06
1.84818e-05
-3.42308e-06
1.90434e-05
-3.08709e-06
1.95413e-05
-2.7467e-06
1.99726e-05
-2.39616e-06
2.03337e-05
-2.02788e-06
2.06197e-05
-1.6324e-06
2.08242e-05
-1.19854e-06
2.09395e-05
-7.13892e-07
2.09568e-05
-1.65376e-07
2.08664e-05
4.60642e-07
2.06588e-05
1.17799e-06
2.03242e-05
1.99994e-06
1.9854e-05
2.93761e-06
1.92415e-05
3.99789e-06
1.84838e-05
5.18075e-06
1.75822e-05
6.4763e-06
1.65438e-05
7.8606e-06
1.53811e-05
9.28826e-06
1.41125e-05
1.06823e-05
1.27623e-05
1.19206e-05
1.13631e-05
1.28168e-05
9.95398e-06
1.30923e-05
8.5032e-06
1.23195e-05
6.85238e-06
9.98788e-06
5.68595e-06
1.29498e-06
4.41575e-06
2.38172e-06
-1.63683e-07
3.44925e-06
-3.36569e-06
4.48174e-06
-5.33035e-06
5.48899e-06
-6.5195e-06
6.48992e-06
-7.21394e-06
7.49787e-06
-7.58424e-06
8.5157e-06
-7.7313e-06
9.53768e-06
-7.71584e-06
1.05537e-05
-7.57882e-06
1.15531e-05
-7.35173e-06
1.25264e-05
-7.06011e-06
1.3466e-05
-6.72431e-06
1.43659e-05
-6.3599e-06
1.52216e-05
-5.9784e-06
1.60294e-05
-5.58802e-06
1.67864e-05
-5.19424e-06
1.74901e-05
-4.80025e-06
1.81385e-05
-4.40719e-06
1.87298e-05
-4.01431e-06
1.92618e-05
-3.6191e-06
1.97323e-05
-3.21726e-06
2.01388e-05
-2.80258e-06
2.04777e-05
-2.36681e-06
2.07448e-05
-1.89953e-06
2.09346e-05
-1.38836e-06
2.10405e-05
-8.19709e-07
2.10548e-05
-1.79734e-07
2.097e-05
5.45413e-07
2.07787e-05
1.3693e-06
2.04742e-05
2.30451e-06
2.00509e-05
3.36086e-06
1.95059e-05
4.54292e-06
1.88398e-05
5.84685e-06
1.80581e-05
7.25802e-06
1.71709e-05
8.74774e-06
1.61928e-05
1.02663e-05
1.51411e-05
1.1734e-05
1.40332e-05
1.30286e-05
1.28808e-05
1.39692e-05
1.16759e-05
1.42972e-05
1.03412e-05
1.36542e-05
8.70172e-06
1.16274e-05
7.81369e-06
1.68862e-06
2.72712e-06
3.13695e-06
-1.612e-06
4.39045e-06
-4.61919e-06
5.49017e-06
-6.43008e-06
6.49034e-06
-7.51967e-06
7.44353e-06
-8.16712e-06
8.38493e-06
-8.52564e-06
9.3296e-06
-8.67597e-06
1.02777e-05
-8.66393e-06
1.12218e-05
-8.52289e-06
1.21525e-05
-8.2825e-06
1.30615e-05
-7.96913e-06
1.39418e-05
-7.60459e-06
1.47877e-05
-7.20574e-06
1.55943e-05
-6.78503e-06
1.63577e-05
-6.35139e-06
1.70743e-05
-5.91092e-06
1.77414e-05
-5.46729e-06
1.83562e-05
-5.02199e-06
1.89163e-05
-4.57448e-06
1.94195e-05
-4.1223e-06
1.98634e-05
-3.66115e-06
2.02455e-05
-3.18467e-06
2.05629e-05
-2.68424e-06
2.08122e-05
-2.14875e-06
2.09886e-05
-1.56479e-06
2.10867e-05
-9.17761e-07
2.11003e-05
-1.93359e-07
2.10236e-05
6.22081e-07
2.08514e-05
1.54151e-06
2.05792e-05
2.57674e-06
2.02037e-05
3.73633e-06
1.97238e-05
5.02281e-06
1.91421e-05
6.42859e-06
1.84654e-05
7.93464e-06
1.77045e-05
9.50868e-06
1.68724e-05
1.10985e-05
1.59824e-05
1.2624e-05
1.50436e-05
1.39674e-05
1.40515e-05
1.49613e-05
1.29709e-05
1.53779e-05
1.17e-05
1.49251e-05
1.00501e-05
1.32772e-05
1.0091e-05
1.98553e-06
7.41592e-07
3.78579e-06
-3.41226e-06
5.21916e-06
-6.05256e-06
6.3707e-06
-7.58162e-06
7.3522e-06
-8.50117e-06
8.2548e-06
-9.06972e-06
9.13404e-06
-9.40488e-06
1.00139e-05
-9.55587e-06
1.08978e-05
-9.54775e-06
1.17791e-05
-9.40426e-06
1.26495e-05
-9.15292e-06
1.35015e-05
-8.82107e-06
1.43287e-05
-8.43183e-06
1.51259e-05
-8.00289e-06
1.58881e-05
-7.54727e-06
1.66111e-05
-7.07437e-06
1.72909e-05
-6.5907e-06
1.7924e-05
-6.10039e-06
1.85073e-05
-5.60532e-06
1.90381e-05
-5.10522e-06
1.95136e-05
-4.59787e-06
1.99316e-05
-4.07916e-06
2.02899e-05
-3.54291e-06
2.05861e-05
-2.9805e-06
2.08178e-05
-2.38046e-06
2.09815e-05
-1.72845e-06
2.10726e-05
-1.00888e-06
2.10866e-05
-2.07293e-07
2.10192e-05
6.89409e-07
2.08675e-05
1.69327e-06
2.06288e-05
2.81545e-06
2.03013e-05
4.06375e-06
1.98848e-05
5.4394e-06
1.93821e-05
6.93127e-06
1.88005e-05
8.51624e-06
1.81492e-05
1.01599e-05
1.74385e-05
1.18092e-05
1.66765e-05
1.3386e-05
1.5864e-05
1.47798e-05
1.49848e-05
1.58405e-05
1.39887e-05
1.6374e-05
1.27643e-05
1.61495e-05
1.11163e-05
1.49253e-05
1.24554e-05
2.30619e-06
-1.5646e-06
4.42942e-06
-5.53549e-06
5.99177e-06
-7.61491e-06
7.14768e-06
-8.73753e-06
8.08358e-06
-9.43708e-06
8.92664e-06
-9.91277e-06
9.74524e-06
-1.02235e-05
1.05667e-05
-1.03773e-05
1.1394e-05
-1.03751e-05
1.22202e-05
-1.02305e-05
1.30373e-05
-9.96997e-06
1.38386e-05
-9.62234e-06
1.46186e-05
-9.21191e-06
1.53725e-05
-8.75676e-06
1.60953e-05
-8.27005e-06
1.67823e-05
-7.76134e-06
1.74289e-05
-7.23738e-06
1.80313e-05
-6.70275e-06
1.85857e-05
-6.15977e-06
1.9089e-05
-5.60853e-06
1.95384e-05
-5.04718e-06
1.99313e-05
-4.47206e-06
2.02659e-05
-3.87751e-06
2.05408e-05
-3.2554e-06
2.07546e-05
-2.59432e-06
2.09052e-05
-1.87902e-06
2.09891e-05
-1.09278e-06
2.10031e-05
-2.21267e-07
2.09449e-05
7.47562e-07
2.08137e-05
1.82448e-06
2.06088e-05
3.02037e-06
2.03295e-05
4.34307e-06
1.99749e-05
5.79393e-06
1.9548e-05
7.35825e-06
1.90554e-05
9.00884e-06
1.85042e-05
1.07111e-05
1.79008e-05
1.24126e-05
1.72479e-05
1.40389e-05
1.65391e-05
1.54886e-05
1.57499e-05
1.66296e-05
1.48238e-05
1.73002e-05
1.3652e-05
1.73212e-05
1.20531e-05
1.65242e-05
1.47783e-05
2.73625e-06
-4.30085e-06
5.15728e-06
-7.95652e-06
6.73872e-06
-9.19635e-06
7.82177e-06
-9.82058e-06
8.68113e-06
-1.02964e-05
9.45835e-06
-1.069e-05
1.02193e-05
-1.09845e-05
1.0988e-05
-1.1146e-05
1.17647e-05
-1.11517e-05
1.25413e-05
-1.10072e-05
1.33103e-05
-1.0739e-05
1.40663e-05
-1.03783e-05
1.48046e-05
-9.95019e-06
1.55203e-05
-9.47253e-06
1.62085e-05
-8.95818e-06
1.68638e-05
-8.41671e-06
1.74814e-05
-7.85493e-06
1.80564e-05
-7.27779e-06
1.85848e-05
-6.68816e-06
1.90629e-05
-6.0866e-06
1.94874e-05
-5.47172e-06
1.98559e-05
-4.84055e-06
2.01668e-05
-4.18838e-06
2.04195e-05
-3.50813e-06
2.06143e-05
-2.78905e-06
2.07503e-05
-2.01503e-06
2.08253e-05
-1.16779e-06
2.08375e-05
-2.33486e-07
2.07868e-05
7.98292e-07
2.06748e-05
1.93645e-06
2.05031e-05
3.1921e-06
2.02719e-05
4.57429e-06
1.99788e-05
6.08695e-06
1.96259e-05
7.71117e-06
1.92198e-05
9.41499e-06
1.87646e-05
1.11662e-05
1.82625e-05
1.29148e-05
1.77107e-05
1.45907e-05
1.70966e-05
1.61026e-05
1.63899e-05
1.73363e-05
1.55318e-05
1.81583e-05
1.44232e-05
1.84298e-05
1.29129e-05
1.80345e-05
1.69328e-05
3.55837e-06
-7.85922e-06
6.12547e-06
-1.05236e-05
7.5399e-06
-1.06108e-05
8.49718e-06
-1.07779e-05
9.29118e-06
-1.10904e-05
1.00265e-05
-1.14253e-05
1.07517e-05
-1.17098e-05
1.1486e-05
-1.18802e-05
1.22281e-05
-1.18939e-05
1.29706e-05
-1.17497e-05
1.37077e-05
-1.14761e-05
1.44353e-05
-1.11059e-05
1.51492e-05
-1.06641e-05
1.58441e-05
-1.01674e-05
1.6514e-05
-9.62813e-06
1.71533e-05
-9.05594e-06
1.77561e-05
-8.45771e-06
1.83169e-05
-7.83867e-06
1.8831e-05
-7.20226e-06
1.9294e-05
-6.54961e-06
1.97023e-05
-5.87995e-06
2.00529e-05
-5.19117e-06
2.03444e-05
-4.47989e-06
2.05771e-05
-3.74089e-06
2.07532e-05
-2.96507e-06
2.08737e-05
-2.13553e-06
2.09375e-05
-1.2316e-06
2.09444e-05
-2.4043e-07
2.08968e-05
8.45963e-07
2.07996e-05
2.03364e-06
2.06572e-05
3.33449e-06
2.04712e-05
4.76028e-06
2.0236e-05
6.32212e-06
1.99525e-05
7.99469e-06
1.96283e-05
9.73914e-06
1.92641e-05
1.15305e-05
1.88572e-05
1.33216e-05
1.83997e-05
1.50483e-05
1.78727e-05
1.66296e-05
1.72401e-05
1.7969e-05
1.64405e-05
1.89579e-05
1.53804e-05
1.94899e-05
1.39327e-05
1.94822e-05
1.89103e-05
5.31378e-06
-1.3173e-05
7.0988e-06
-1.23086e-05
8.05055e-06
-1.15625e-05
8.90293e-06
-1.16302e-05
9.67883e-06
-1.18663e-05
1.03967e-05
-1.21431e-05
1.10906e-05
-1.24037e-05
1.17823e-05
-1.25718e-05
1.24771e-05
-1.25887e-05
1.31743e-05
-1.24469e-05
1.38718e-05
-1.21736e-05
1.45667e-05
-1.18008e-05
1.5254e-05
-1.13514e-05
1.5927e-05
-1.08404e-05
1.65782e-05
-1.02794e-05
1.72003e-05
-9.67801e-06
1.77866e-05
-9.044e-06
1.83313e-05
-8.38334e-06
1.88289e-05
-7.69988e-06
1.92744e-05
-6.99517e-06
1.96635e-05
-6.26907e-06
1.99929e-05
-5.52048e-06
2.02606e-05
-4.74761e-06
2.04675e-05
-3.94782e-06
2.06178e-05
-3.11539e-06
2.07156e-05
-2.23325e-06
2.07608e-05
-1.27688e-06
2.07558e-05
-2.354e-07
2.07055e-05
8.96229e-07
2.06197e-05
2.1195e-06
2.05063e-05
3.4479e-06
2.0369e-05
4.89751e-06
2.01964e-05
6.49474e-06
1.99882e-05
8.20294e-06
1.97556e-05
9.97176e-06
1.94937e-05
1.17923e-05
1.91952e-05
1.36201e-05
1.88467e-05
1.53968e-05
1.84243e-05
1.70521e-05
1.78859e-05
1.85073e-05
1.71662e-05
1.96776e-05
1.61693e-05
2.04867e-05
1.47663e-05
2.08853e-05
2.08726e-05
7.98584e-06
-2.11588e-05
7.57658e-06
-1.18994e-05
8.11776e-06
-1.21037e-05
9.0748e-06
-1.25873e-05
9.92228e-06
-1.27138e-05
1.06513e-05
-1.28721e-05
1.13169e-05
-1.30693e-05
1.19591e-05
-1.3214e-05
1.25999e-05
-1.32296e-05
1.32506e-05
-1.30975e-05
1.39135e-05
-1.28365e-05
1.45842e-05
-1.24716e-05
1.52548e-05
-1.20219e-05
1.5916e-05
-1.15017e-05
1.65587e-05
-1.0922e-05
1.71699e-05
-1.02892e-05
1.77398e-05
-9.61387e-06
1.82674e-05
-8.91094e-06
1.87478e-05
-8.18025e-06
1.91752e-05
-7.42261e-06
1.95446e-05
-6.63842e-06
1.98516e-05
-5.82756e-06
2.00937e-05
-4.98971e-06
2.02707e-05
-4.12474e-06
2.03874e-05
-3.23211e-06
2.04516e-05
-2.29745e-06
2.04666e-05
-1.29191e-06
2.04389e-05
-2.07724e-07
2.03755e-05
9.59647e-07
2.02942e-05
2.20083e-06
2.02056e-05
3.53652e-06
2.01194e-05
4.98363e-06
2.00114e-05
6.60272e-06
1.98812e-05
8.33315e-06
1.97487e-05
1.01043e-05
1.95996e-05
1.19414e-05
1.9422e-05
1.37978e-05
1.9198e-05
1.56207e-05
1.88996e-05
1.73505e-05
1.848e-05
1.89269e-05
1.78708e-05
2.02868e-05
1.69742e-05
2.13833e-05
1.56565e-05
2.2203e-05
2.27874e-05
5.26432e-06
-2.64232e-05
6.66752e-06
-1.33026e-05
7.85007e-06
-1.32863e-05
9.05072e-06
-1.37879e-05
1.00427e-05
-1.37058e-05
1.08377e-05
-1.36671e-05
1.1496e-05
-1.37276e-05
1.2077e-05
-1.37951e-05
1.26388e-05
-1.37913e-05
1.32187e-05
-1.36774e-05
1.38268e-05
-1.34446e-05
1.44559e-05
-1.31007e-05
1.50943e-05
-1.26603e-05
1.57318e-05
-1.21392e-05
1.63633e-05
-1.15535e-05
1.69717e-05
-1.08976e-05
1.75334e-05
-1.01756e-05
1.80513e-05
-9.42882e-06
1.8521e-05
-8.64999e-06
1.89387e-05
-7.84032e-06
1.9298e-05
-6.99769e-06
1.95939e-05
-6.12345e-06
1.98229e-05
-5.21871e-06
1.99829e-05
-4.28477e-06
2.0074e-05
-3.32322e-06
2.00969e-05
-2.32031e-06
2.00634e-05
-1.25837e-06
1.99977e-05
-1.42108e-07
1.9904e-05
1.05343e-06
1.98046e-05
2.30015e-06
1.97349e-05
3.60627e-06
1.97071e-05
5.01145e-06
1.96652e-05
6.64463e-06
1.96155e-05
8.38282e-06
1.95958e-05
1.0124e-05
1.95718e-05
1.19654e-05
1.95296e-05
1.384e-05
1.94488e-05
1.57015e-05
1.92993e-05
1.75001e-05
1.90315e-05
1.91946e-05
1.85784e-05
2.07399e-05
1.78474e-05
2.21144e-05
1.67162e-05
2.33342e-05
2.44762e-05
-3.01875e-06
-2.34044e-05
4.06968e-07
-1.67283e-05
2.9054e-06
-1.57847e-05
4.89269e-06
-1.57752e-05
6.64898e-06
-1.54621e-05
8.13115e-06
-1.51493e-05
9.36486e-06
-1.49613e-05
1.04059e-05
-1.48361e-05
1.13136e-05
-1.4699e-05
1.21378e-05
-1.45016e-05
1.29131e-05
-1.422e-05
1.36613e-05
-1.38488e-05
1.4397e-05
-1.3396e-05
1.51349e-05
-1.28772e-05
1.58938e-05
-1.23124e-05
1.66911e-05
-1.16949e-05
1.72869e-05
-1.07714e-05
1.7776e-05
-9.9179e-06
1.82304e-05
-9.10445e-06
1.86362e-05
-8.24613e-06
1.89829e-05
-7.3444e-06
1.92647e-05
-6.40525e-06
1.94784e-05
-5.43236e-06
1.96197e-05
-4.42605e-06
1.96766e-05
-3.38011e-06
1.96112e-05
-2.25491e-06
1.94793e-05
-1.1265e-06
1.93705e-05
-3.33254e-08
1.9253e-05
1.17093e-06
1.91464e-05
2.40671e-06
1.9112e-05
3.64074e-06
1.91302e-05
4.99318e-06
1.91373e-05
6.6376e-06
1.91803e-05
8.3398e-06
1.93018e-05
1.00025e-05
1.94114e-05
1.18558e-05
1.95175e-05
1.37339e-05
1.95972e-05
1.56218e-05
1.96215e-05
1.74757e-05
1.95401e-05
1.9276e-05
1.92925e-05
2.09876e-05
1.87984e-05
2.26085e-05
1.79613e-05
2.41712e-05
2.57672e-05
-2.91977e-06
-2.04846e-05
-1.01134e-06
-1.86367e-05
1.17685e-06
-1.79729e-05
3.07162e-06
-1.767e-05
4.83589e-06
-1.72264e-05
6.45755e-06
-1.67709e-05
7.88953e-06
-1.63933e-05
9.13116e-06
-1.60777e-05
1.02106e-05
-1.57785e-05
1.1164e-05
-1.5455e-05
1.20244e-05
-1.50803e-05
1.28171e-05
-1.46415e-05
1.35584e-05
-1.41373e-05
1.4254e-05
-1.35727e-05
1.48912e-05
-1.29496e-05
1.54357e-05
-1.22394e-05
1.60254e-05
-1.13611e-05
1.65879e-05
-1.04804e-05
1.70851e-05
-9.60161e-06
1.75255e-05
-8.68653e-06
1.79119e-05
-7.73085e-06
1.82439e-05
-6.73722e-06
1.85182e-05
-5.70667e-06
1.87284e-05
-4.63624e-06
1.88618e-05
-3.51352e-06
1.89288e-05
-2.32187e-06
1.89365e-05
-1.13419e-06
1.88109e-05
9.22445e-08
1.86445e-05
1.33735e-06
1.8454e-05
2.59717e-06
1.83238e-05
3.77096e-06
1.83302e-05
4.98682e-06
1.84259e-05
6.54185e-06
1.86244e-05
8.14134e-06
1.88803e-05
9.74651e-06
1.91294e-05
1.16067e-05
1.94038e-05
1.34595e-05
1.96536e-05
1.5372e-05
1.98685e-05
1.72608e-05
1.99991e-05
1.91454e-05
1.99967e-05
2.09901e-05
1.97965e-05
2.28087e-05
1.93319e-05
2.46358e-05
2.65582e-05
-1.62486e-06
-1.88598e-05
-7.48217e-07
-1.95134e-05
7.75124e-07
-1.94962e-05
2.38046e-06
-1.92753e-05
3.99489e-06
-1.88408e-05
5.55147e-06
-1.83275e-05
6.9851e-06
-1.78269e-05
8.26679e-06
-1.73594e-05
9.39804e-06
-1.69098e-05
1.03963e-05
-1.64533e-05
1.12839e-05
-1.5968e-05
1.20819e-05
-1.54395e-05
1.28048e-05
-1.48603e-05
1.34591e-05
-1.4227e-05
1.40433e-05
-1.35338e-05
1.4567e-05
-1.27631e-05
1.51055e-05
-1.18996e-05
1.56266e-05
-1.10015e-05
1.61041e-05
-1.00791e-05
1.65384e-05
-9.12085e-06
1.69315e-05
-8.12395e-06
1.72826e-05
-7.08837e-06
1.75885e-05
-6.01257e-06
1.7844e-05
-4.89172e-06
1.80475e-05
-3.71697e-06
1.82078e-05
-2.48222e-06
1.82862e-05
-1.21261e-06
1.82589e-05
1.19598e-07
1.81452e-05
1.45106e-06
1.79259e-05
2.81638e-06
1.77103e-05
3.98659e-06
1.75315e-05
5.16567e-06
1.76206e-05
6.45276e-06
1.78963e-05
7.8656e-06
1.83213e-05
9.32149e-06
1.87802e-05
1.11478e-05
1.92138e-05
1.30259e-05
1.96382e-05
1.49476e-05
2.00579e-05
1.68412e-05
2.04059e-05
1.87974e-05
2.06668e-05
2.07292e-05
2.07886e-05
2.26869e-05
2.07316e-05
2.46928e-05
2.68214e-05
-1.09509e-06
-1.77647e-05
-4.23531e-07
-2.01849e-05
8.18747e-07
-2.07385e-05
2.22547e-06
-2.06821e-05
3.68789e-06
-2.03032e-05
5.13092e-06
-1.97705e-05
6.49364e-06
-1.91896e-05
7.74057e-06
-1.86064e-05
8.86013e-06
-1.80293e-05
9.85677e-06
-1.74499e-05
1.07431e-05
-1.68544e-05
1.1534e-05
-1.62304e-05
1.22424e-05
-1.55687e-05
1.28779e-05
-1.48626e-05
1.34493e-05
-1.41052e-05
1.39731e-05
-1.32868e-05
1.44781e-05
-1.24046e-05
1.49593e-05
-1.14828e-05
1.54081e-05
-1.05279e-05
1.5824e-05
-9.53676e-06
1.62075e-05
-8.50741e-06
1.65572e-05
-7.43811e-06
1.68703e-05
-6.32568e-06
1.71434e-05
-5.16474e-06
1.73749e-05
-3.94853e-06
1.75662e-05
-2.67349e-06
1.76997e-05
-1.34608e-06
1.77886e-05
3.06929e-08
1.78194e-05
1.42021e-06
1.78364e-05
2.79936e-06
1.77584e-05
4.0646e-06
1.76177e-05
5.30636e-06
1.74551e-05
6.61537e-06
1.73524e-05
7.96835e-06
1.75464e-05
9.12752e-06
1.82208e-05
1.04734e-05
1.89173e-05
1.23294e-05
1.96013e-05
1.42636e-05
2.01936e-05
1.62489e-05
2.07591e-05
1.82319e-05
2.12889e-05
2.01994e-05
2.17241e-05
2.22517e-05
2.20656e-05
2.43512e-05
2.65874e-05
-6.30057e-07
-1.71346e-05
1.43437e-08
-2.08293e-05
1.10802e-06
-2.18322e-05
2.38167e-06
-2.19557e-05
3.71678e-06
-2.16383e-05
5.045e-06
-2.10988e-05
6.31665e-06
-2.04613e-05
7.49959e-06
-1.97893e-05
8.57845e-06
-1.91082e-05
9.5507e-06
-1.84222e-05
1.0422e-05
-1.77257e-05
1.12019e-05
-1.70102e-05
1.19008e-05
-1.62676e-05
1.25288e-05
-1.54907e-05
1.30964e-05
-1.46728e-05
1.36173e-05
-1.38078e-05
1.41074e-05
-1.28946e-05
1.45684e-05
-1.19438e-05
1.49995e-05
-1.0959e-05
1.5401e-05
-9.93832e-06
1.57733e-05
-8.87971e-06
1.61155e-05
-7.78025e-06
1.64256e-05
-6.63579e-06
1.67018e-05
-5.44099e-06
1.6944e-05
-4.19068e-06
1.71536e-05
-2.88311e-06
1.73307e-05
-1.52322e-06
1.74843e-05
-1.22908e-07
1.76158e-05
1.28879e-06
1.77326e-05
2.68256e-06
1.77833e-05
4.01392e-06
1.77774e-05
5.31222e-06
1.77674e-05
6.62538e-06
1.78209e-05
7.91489e-06
1.78702e-05
9.07815e-06
1.79509e-05
1.03928e-05
1.82958e-05
1.19845e-05
1.93138e-05
1.32455e-05
2.02181e-05
1.53446e-05
2.10781e-05
1.73719e-05
2.1826e-05
1.94515e-05
2.25591e-05
2.15186e-05
2.32699e-05
2.36404e-05
2.59248e-05
-2.79513e-07
-1.68551e-05
4.35231e-07
-2.1544e-05
1.50492e-06
-2.29019e-05
2.70319e-06
-2.3154e-05
3.94165e-06
-2.28768e-05
5.17026e-06
-2.23274e-05
6.35355e-06
-2.16446e-05
7.4669e-06
-2.09027e-05
8.4961e-06
-2.01374e-05
9.4359e-06
-1.9362e-05
1.02876e-05
-1.85774e-05
1.10568e-05
-1.77794e-05
1.17509e-05
-1.69618e-05
1.23785e-05
-1.61182e-05
1.29487e-05
-1.5243e-05
1.34724e-05
-1.43315e-05
1.39601e-05
-1.33823e-05
1.44157e-05
-1.23994e-05
1.48405e-05
-1.13837e-05
1.52356e-05
-1.03335e-05
1.56018e-05
-9.2459e-06
1.59389e-05
-8.11733e-06
1.62463e-05
-6.94323e-06
1.65242e-05
-5.71882e-06
1.6774e-05
-4.44054e-06
1.69997e-05
-3.10876e-06
1.72066e-05
-1.73014e-06
1.74024e-05
-3.18682e-07
1.75902e-05
1.101e-06
1.77678e-05
2.50496e-06
1.79131e-05
3.86857e-06
1.80248e-05
5.20053e-06
1.81308e-05
6.51941e-06
1.82468e-05
7.79894e-06
1.83221e-05
9.00279e-06
1.84242e-05
1.02907e-05
1.87708e-05
1.16379e-05
1.89263e-05
1.309e-05
1.97708e-05
1.45001e-05
2.10707e-05
1.6072e-05
2.22048e-05
1.83174e-05
2.3277e-05
2.04465e-05
2.42625e-05
2.26549e-05
2.48873e-05
-3.22107e-09
-1.68519e-05
8.39184e-07
-2.23864e-05
1.92675e-06
-2.39894e-05
3.0843e-06
-2.43115e-05
4.25123e-06
-2.40437e-05
5.39788e-06
-2.3474e-05
6.50342e-06
-2.27501e-05
7.55196e-06
-2.19512e-05
8.53271e-06
-2.11182e-05
9.44012e-06
-2.02694e-05
1.02733e-05
-1.94106e-05
1.10347e-05
-1.85408e-05
1.17292e-05
-1.76562e-05
1.23629e-05
-1.6752e-05
1.29432e-05
-1.58233e-05
1.34779e-05
-1.48662e-05
1.39744e-05
-1.38788e-05
1.44366e-05
-1.28616e-05
1.48667e-05
-1.18138e-05
1.52662e-05
-1.07329e-05
1.5636e-05
-9.61578e-06
1.5977e-05
-8.45826e-06
1.62897e-05
-7.25599e-06
1.65759e-05
-6.00502e-06
1.68388e-05
-4.70344e-06
1.70835e-05
-3.35343e-06
1.73163e-05
-1.96294e-06
1.75437e-05
-5.46154e-07
1.77683e-05
8.76408e-07
1.7988e-05
2.28527e-06
1.8193e-05
3.66364e-06
1.83816e-05
5.01192e-06
1.85654e-05
6.33564e-06
1.87427e-05
7.62157e-06
1.8883e-05
8.8625e-06
1.90418e-05
1.01319e-05
1.92622e-05
1.14175e-05
1.96569e-05
1.26953e-05
2.02439e-05
1.39131e-05
2.05466e-05
1.57694e-05
2.19409e-05
1.69231e-05
2.35109e-05
1.88764e-05
2.4943e-05
2.12228e-05
2.64014e-05
2.3429e-05
2.57861e-05
2.32483e-07
-1.70844e-05
1.20522e-06
-2.33592e-05
2.32296e-06
-2.51072e-05
3.45329e-06
-2.54418e-05
4.56305e-06
-2.51535e-05
5.64123e-06
-2.45522e-05
6.67993e-06
-2.37888e-05
7.67126e-06
-2.29426e-05
8.6084e-06
-2.20553e-05
9.48669e-06
-2.11477e-05
1.03042e-05
-2.02281e-05
1.10614e-05
-1.9298e-05
1.17609e-05
-1.83557e-05
1.24066e-05
-1.73977e-05
1.30035e-05
-1.64201e-05
1.3557e-05
-1.54197e-05
1.40722e-05
-1.4394e-05
1.45524e-05
-1.33418e-05
1.49997e-05
-1.22611e-05
1.54157e-05
-1.1149e-05
1.58018e-05
-1.00019e-05
1.61593e-05
-8.81574e-06
1.64899e-05
-7.58654e-06
1.67962e-05
-6.31135e-06
1.70824e-05
-4.98963e-06
1.73538e-05
-3.62485e-06
1.76163e-05
-2.22548e-06
1.78751e-05
-8.04941e-07
1.8132e-05
6.19564e-07
1.83856e-05
2.03168e-06
1.8631e-05
3.41817e-06
1.88679e-05
4.77504e-06
1.91015e-05
6.10207e-06
1.93293e-05
7.39374e-06
1.95391e-05
8.65278e-06
1.97576e-05
9.91339e-06
2.00071e-05
1.1168e-05
2.0324e-05
1.23784e-05
2.06499e-05
1.35872e-05
2.14579e-05
1.49614e-05
2.23372e-05
1.60437e-05
2.28306e-05
1.8383e-05
2.4657e-05
1.93965e-05
2.67526e-05
2.13333e-05
2.38037e-05
4.53331e-07
-1.75377e-05
1.52641e-06
-2.44322e-05
2.66213e-06
-2.62429e-05
3.76333e-06
-2.6543e-05
4.82065e-06
-2.62108e-05
5.83829e-06
-2.55699e-05
6.81834e-06
-2.47689e-05
7.75929e-06
-2.38835e-05
8.65778e-06
-2.29538e-05
9.51042e-06
-2.20003e-05
1.03149e-05
-2.10325e-05
1.10705e-05
-2.00536e-05
1.17779e-05
-1.90632e-05
1.24392e-05
-1.8059e-05
1.30573e-05
-1.70382e-05
1.36355e-05
-1.59979e-05
1.41772e-05
-1.49357e-05
1.46848e-05
-1.38494e-05
1.516e-05
-1.27363e-05
1.56044e-05
-1.15934e-05
1.60194e-05
-1.04169e-05
1.64067e-05
-9.2031e-06
1.67687e-05
-7.94853e-06
1.71086e-05
-6.65118e-06
1.74305e-05
-5.31155e-06
1.77394e-05
-3.93382e-06
1.80403e-05
-2.52638e-06
1.83369e-05
-1.10151e-06
1.86303e-05
3.26139e-07
1.89196e-05
1.74243e-06
1.9202e-05
3.13576e-06
1.94772e-05
4.49986e-06
1.97477e-05
5.83157e-06
2.00135e-05
7.12794e-06
2.02738e-05
8.39246e-06
2.05454e-05
9.6418e-06
2.08407e-05
1.08727e-05
2.11534e-05
1.20657e-05
2.14961e-05
1.32446e-05
2.20293e-05
1.44282e-05
2.25048e-05
1.55682e-05
2.38016e-05
1.70862e-05
2.52211e-05
1.7977e-05
2.61014e-05
2.0453e-05
2.16579e-05
6.5898e-07
-1.81967e-05
1.79571e-06
-2.5569e-05
2.9246e-06
-2.73718e-05
3.98547e-06
-2.76039e-05
4.98863e-06
-2.7214e-05
5.9491e-06
-2.65304e-05
6.87563e-06
-2.56954e-05
7.77101e-06
-2.47789e-05
8.63444e-06
-2.38172e-05
9.46364e-06
-2.28295e-05
1.02563e-05
-2.18252e-05
1.1011e-05
-2.08083e-05
1.1727e-05
-1.97792e-05
1.2405e-05
-1.8737e-05
1.30461e-05
-1.76794e-05
1.36522e-05
-1.6604e-05
1.42251e-05
-1.55086e-05
1.47664e-05
-1.43906e-05
1.52773e-05
-1.32472e-05
1.57591e-05
-1.20752e-05
1.62134e-05
-1.08712e-05
1.66421e-05
-9.63172e-06
1.70475e-05
-8.35396e-06
1.7433e-05
-7.03669e-06
1.78025e-05
-5.68109e-06
1.81603e-05
-4.29159e-06
1.851e-05
-2.87614e-06
1.88543e-05
-1.44573e-06
1.91935e-05
-1.31073e-08
1.95267e-05
1.40923e-06
1.98519e-05
2.81056e-06
2.01684e-05
4.18334e-06
2.04773e-05
5.52268e-06
2.07797e-05
6.82555e-06
2.10788e-05
8.09338e-06
2.13871e-05
9.33347e-06
2.17154e-05
1.05445e-05
2.20619e-05
1.17191e-05
2.24395e-05
1.2867e-05
2.28762e-05
1.39915e-05
2.33533e-05
1.5091e-05
2.41905e-05
1.62491e-05
2.49323e-05
1.72351e-05
2.66832e-05
1.87021e-05
1.95539e-05
8.43445e-07
-1.90401e-05
2.00444e-06
-2.673e-05
3.09791e-06
-2.84652e-05
4.10393e-06
-2.861e-05
5.04809e-06
-2.81581e-05
5.95186e-06
-2.74341e-05
6.82745e-06
-2.6571e-05
7.67996e-06
-2.56314e-05
8.51011e-06
-2.46474e-05
9.31643e-06
-2.36358e-05
1.00968e-05
-2.26056e-05
1.08491e-05
-2.15606e-05
1.15722e-05
-2.05023e-05
1.22653e-05
-1.94301e-05
1.29285e-05
-1.83426e-05
1.35624e-05
-1.72379e-05
1.41676e-05
-1.61139e-05
1.47451e-05
-1.49681e-05
1.52957e-05
-1.37978e-05
1.58205e-05
-1.26e-05
1.63207e-05
-1.13714e-05
1.67982e-05
-1.01093e-05
1.72556e-05
-8.8113e-06
1.76957e-05
-7.47684e-06
1.81221e-05
-6.10747e-06
1.85381e-05
-4.70755e-06
1.89463e-05
-3.28437e-06
1.93483e-05
-1.84769e-06
1.97439e-05
-4.08717e-07
2.01318e-05
1.02132e-06
2.05101e-05
2.43225e-06
2.08776e-05
3.81589e-06
2.12342e-05
5.16609e-06
2.1581e-05
6.47876e-06
2.19214e-05
7.75289e-06
2.22645e-05
8.99044e-06
2.26191e-05
1.019e-05
2.29903e-05
1.13479e-05
2.33894e-05
1.24679e-05
2.38288e-05
1.35521e-05
2.43208e-05
1.45991e-05
2.4941e-05
1.56289e-05
2.56001e-05
1.6576e-05
2.67032e-05
1.75991e-05
1.84546e-05
9.97142e-07
-2.00373e-05
2.14373e-06
-2.78766e-05
3.17554e-06
-2.94971e-05
4.11318e-06
-2.95476e-05
4.99295e-06
-2.90379e-05
5.83894e-06
-2.82801e-05
6.66431e-06
-2.73964e-05
7.4748e-06
-2.64419e-05
8.27174e-06
-2.54443e-05
9.0541e-06
-2.44182e-05
9.81986e-06
-2.33713e-05
1.05668e-05
-2.23076e-05
1.12932e-05
-2.12286e-05
1.19975e-05
-2.01344e-05
1.26792e-05
-1.90242e-05
1.33377e-05
-1.78965e-05
1.39732e-05
-1.67494e-05
1.45859e-05
-1.55808e-05
1.51762e-05
-1.43881e-05
1.5745e-05
-1.31687e-05
1.62934e-05
-1.19198e-05
1.68231e-05
-1.0639e-05
1.73364e-05
-9.3246e-06
1.78359e-05
-7.97634e-06
1.83245e-05
-6.59598e-06
1.88045e-05
-5.18763e-06
1.9278e-05
-3.75783e-06
1.97455e-05
-2.31519e-06
2.02064e-05
-8.69625e-07
2.0659e-05
5.68692e-07
2.11012e-05
1.99011e-06
2.15309e-05
3.38613e-06
2.19473e-05
4.74973e-06
2.23505e-05
6.07559e-06
2.27428e-05
7.36057e-06
2.31299e-05
8.60331e-06
2.35185e-05
9.80142e-06
2.39144e-05
1.09519e-05
2.43273e-05
1.2055e-05
2.47693e-05
1.31101e-05
2.52529e-05
1.41154e-05
2.58056e-05
1.50763e-05
2.6413e-05
1.59685e-05
2.71682e-05
1.68439e-05
1.76549e-05
1.1102e-06
-2.11475e-05
2.2073e-06
-2.89737e-05
3.15697e-06
-3.04467e-05
4.01599e-06
-3.04066e-05
4.82681e-06
-2.98487e-05
5.61334e-06
-2.90666e-05
6.38781e-06
-2.81708e-05
7.15554e-06
-2.72096e-05
7.91781e-06
-2.62066e-05
8.67371e-06
-2.51741e-05
9.42128e-06
-2.41189e-05
1.01583e-05
-2.30446e-05
1.08826e-05
-2.1953e-05
1.15926e-05
-2.08444e-05
1.22869e-05
-1.97185e-05
1.29646e-05
-1.85742e-05
1.36253e-05
-1.74101e-05
1.42689e-05
-1.62243e-05
1.48954e-05
-1.50146e-05
1.55055e-05
-1.37788e-05
1.61002e-05
-1.25145e-05
1.66809e-05
-1.12198e-05
1.72497e-05
-9.89338e-06
1.78088e-05
-8.53538e-06
1.83603e-05
-7.14752e-06
1.89062e-05
-5.73356e-06
1.94477e-05
-4.29929e-06
1.99848e-05
-2.85227e-06
2.05164e-05
-1.40127e-06
2.10406e-05
4.44788e-08
2.15549e-05
1.47588e-06
2.20566e-05
2.88444e-06
2.25437e-05
4.26257e-06
2.30153e-05
5.60397e-06
2.34721e-05
6.90386e-06
2.39167e-05
8.15871e-06
2.43531e-05
9.36501e-06
2.47857e-05
1.05193e-05
2.5221e-05
1.16197e-05
2.56674e-05
1.26637e-05
2.6134e-05
1.36489e-05
2.66355e-05
1.45748e-05
2.71706e-05
1.54334e-05
2.77673e-05
1.62472e-05
1.70065e-05
1.17574e-06
-2.23232e-05
2.19392e-06
-2.99919e-05
3.04767e-06
-3.13005e-05
3.82166e-06
-3.11806e-05
4.56029e-06
-3.05873e-05
5.28537e-06
-2.97917e-05
6.00728e-06
-2.88927e-05
6.73024e-06
-2.79326e-05
7.45509e-06
-2.69315e-05
8.18082e-06
-2.58998e-05
8.90552e-06