/*--------------------------------*- C++ -*----------------------------------*\
| =========                 |                                                 |
| \\      /  F ield         | OpenFOAM: The Open Source CFD Toolbox           |
|  \\    /   O peration     | Version:  5.0                                   |
|   \\  /    A nd           | Web:      www.OpenFOAM.org                      |
|    \\/     M anipulation  |                                                 |
\*---------------------------------------------------------------------------*/
FoamFile
{
    version     2.0;
    format      ascii;
    class       surfaceScalarField;
    location    "0.9";
    object      alphaPhi10;
}
// * * * * * * * * * * * * * * * * * * * * * * * * * * * * * * * * * * * * * //

dimensions      [0 3 -1 0 0 0 0];

internalField   nonuniform List<scalar> 
3782
(
-4.58159e-15
-1.16756e-14
-3.75549e-15
-9.45319e-15
-2.74423e-15
-6.78501e-15
-1.83756e-15
-4.43663e-15
-1.15139e-15
-2.69986e-15
-6.86956e-16
-1.55744e-15
-3.96374e-16
-8.66316e-16
-2.24409e-16
-4.72369e-16
-1.26358e-16
-2.56491e-16
-7.15675e-17
-1.40605e-16
-4.10245e-17
-7.84771e-17
-2.37019e-17
-4.45073e-17
-1.34941e-17
-2.51246e-17
-7.10244e-18
-1.32655e-17
-2.72286e-18
-5.16823e-18
2.30423e-18
1.29395e-18
4.33023e-18
9.98636e-18
4.03917e-18
1.28611e-17
3.43048e-18
1.23635e-17
2.17976e-18
1.0181e-17
8.67249e-19
6.10814e-18
1.88793e-19
2.32833e-18
2.09765e-20
5.18504e-19
1.15268e-21
6.61681e-20
2.64101e-23
4.65764e-21
1.69965e-25
1.67615e-22
-7.6685e-26
8.3604e-24
-2.2251e-26
1.08987e-24
-3.82051e-27
1.22449e-25
-5.3701e-28
1.19096e-26
-6.29154e-29
1.07853e-27
-6.08139e-30
8.56444e-29
-4.8031e-31
5.68661e-30
-3.00983e-32
3.05177e-31
-1.43872e-33
1.25958e-32
-5.24094e-35
3.75413e-34
-1.8658e-36
7.80649e-36
-1.16739e-37
1.36222e-37
-1.57026e-39
2.4578e-39
-9.12683e-42
-2.04922e-41
-1.00725e-44
-3.09232e-43
-1.09304e-60
-3.91709e-46
-1.80892e-73
-9.69708e-15
-3.19926e-15
-7.21552e-15
-2.0299e-15
-4.76886e-15
-1.05569e-15
-4.06074e-16
-2.75552e-15
-8.81416e-15
-3.02806e-15
-7.43857e-15
-2.27541e-15
-5.64913e-15
-1.46794e-15
-7.7799e-16
-3.82152e-15
-6.9838e-15
-2.50171e-15
-6.53941e-15
-2.15638e-15
-5.54634e-15
-1.63546e-15
-1.06666e-15
-4.22863e-15
-4.99814e-15
-1.87333e-15
-5.13677e-15
-1.82254e-15
-4.79897e-15
-1.58357e-15
-1.21256e-15
-4.04945e-15
-3.31724e-15
-1.30572e-15
-3.72522e-15
-1.42211e-15
-3.81053e-15
-1.39652e-15
-1.22538e-15
-3.52801e-15
-2.08647e-15
-8.64899e-16
-2.5584e-15
-1.05045e-15
-2.85994e-15
-1.15698e-15
-1.14649e-15
-2.89323e-15
-1.26769e-15
-5.54015e-16
-1.69933e-15
-7.48958e-16
-2.07534e-15
-9.20383e-16
-1.01893e-15
-2.2875e-15
-7.57002e-16
-3.48413e-16
-1.11096e-15
-5.23418e-16
-1.48116e-15
-7.13895e-16
-8.74013e-16
-1.77232e-15
-4.51138e-16
-2.17904e-16
-7.24846e-16
-3.62673e-16
-1.05194e-15
-5.45169e-16
-7.29967e-16
-1.35893e-15
-2.71514e-16
-1.36808e-16
-4.7628e-16
-2.50836e-16
-7.48144e-16
-4.11664e-16
-5.95562e-16
-1.03569e-15
-1.66002e-16
-8.65394e-17
-3.16132e-16
-1.73339e-16
-5.33276e-16
-3.07149e-16
-4.74284e-16
-7.84538e-16
-1.02796e-16
-5.48813e-17
-2.11107e-16
-1.19005e-16
-3.79335e-16
-2.25218e-16
-3.67239e-16
-5.88549e-16
-6.34885e-17
-3.4305e-17
-1.40122e-16
-8.00957e-17
-2.66765e-16
-1.60683e-16
-2.74637e-16
-4.34267e-16
-3.7694e-17
-2.03462e-17
-9.02716e-17
-5.15671e-17
-1.82498e-16
-1.09739e-16
-1.96271e-16
-3.11662e-16
-1.94201e-17
-1.03263e-17
-5.35379e-17
-3.01087e-17
-1.1771e-16
-6.95405e-17
-1.31437e-16
-2.1316e-16
-4.71791e-18
-2.43525e-18
-2.431e-17
-1.32561e-17
-6.56724e-17
-3.75239e-17
-7.85623e-17
-1.32232e-16
1.18647e-17
9.0558e-18
3.25023e-19
4.1598e-18
-1.99031e-17
-1.08303e-17
-3.46899e-17
-6.15355e-17
3.02508e-17
1.06101e-17
4.58101e-17
2.55367e-17
3.7321e-17
3.39058e-17
2.37582e-18
2.55336e-19
3.1446e-17
9.62096e-18
6.90692e-17
2.37311e-17
1.15027e-16
4.80728e-17
8.71104e-17
1.39807e-16
2.8455e-17
7.14848e-18
6.67047e-17
1.92502e-17
1.33228e-16
4.35052e-17
8.54083e-17
2.39199e-16
2.00805e-17
3.53752e-18
5.3611e-17
1.15058e-17
1.20522e-16
3.09247e-17
6.84438e-17
2.34547e-16
9.39564e-18
9.88011e-19
3.03426e-17
4.08043e-18
8.1442e-17
1.37211e-17
3.70501e-17
1.82826e-16
2.5852e-18
1.4057e-19
1.02732e-17
7.33039e-19
3.38408e-17
3.10721e-18
1.05973e-17
9.25262e-17
4.0698e-19
1.02902e-20
1.94875e-18
6.65443e-20
7.73442e-18
3.42408e-19
1.41741e-18
2.56877e-17
3.75969e-20
3.6836e-22
2.20081e-19
3.23321e-21
1.03054e-18
2.08285e-20
1.01157e-19
3.95698e-18
1.85167e-21
5.00324e-24
1.43316e-20
6.76488e-23
8.47723e-20
6.25575e-22
3.98175e-21
3.87137e-19
6.98016e-23
-2.15833e-25
5.38751e-22
2.10312e-25
3.76326e-21
7.39161e-24
6.6339e-23
2.11803e-20
7.88768e-24
-1.1942e-25
4.78691e-23
-5.60265e-25
2.61112e-22
-2.23476e-24
-6.50148e-24
1.23181e-21
9.36157e-25
-2.25333e-26
6.41049e-24
-1.36429e-25
3.93102e-23
-7.95125e-25
-3.67349e-24
1.95155e-22
8.99336e-26
-3.32045e-27
6.90078e-25
-2.40143e-26
4.98473e-24
-1.73244e-25
-9.48139e-25
2.82134e-23
8.23979e-27
-4.15588e-28
7.2753e-26
-3.72617e-27
6.15207e-25
-3.32142e-26
-2.11017e-25
3.86567e-24
6.89323e-28
-4.23093e-29
7.44836e-27
-4.80409e-28
7.60596e-26
-5.44894e-27
-4.18602e-26
5.42883e-25
4.78895e-29
-3.39223e-30
6.51131e-28
-4.71858e-29
8.37828e-27
-7.08798e-28
-7.13033e-27
7.19531e-26
2.60158e-30
-2.11781e-31
4.31983e-29
-3.30307e-30
7.34927e-28
-6.78071e-29
-9.9006e-28
8.2858e-27
1.06913e-31
-1.01242e-32
1.98798e-30
-1.52271e-31
4.63195e-29
-4.19163e-30
-1.00693e-28
7.60844e-28
3.18659e-33
-3.81855e-34
5.70665e-32
-4.36122e-33
1.78854e-30
-1.27027e-31
-6.11497e-30
4.84203e-29
6.85314e-35
-1.64545e-35
9.25393e-34
-1.03742e-34
3.08834e-32
-6.96759e-34
-1.30853e-31
1.67605e-30
1.41725e-36
-1.03929e-36
9.92872e-36
-2.23703e-36
7.85986e-35
-1.76216e-37
-1.28485e-35
1.76077e-32
2.43436e-38
-1.03337e-38
4.26273e-38
-2.19458e-38
3.91283e-39
-3.02007e-39
-1.04288e-34
1.25987e-36
-4.23066e-41
-6.2758e-41
-2.73338e-43
-1.24865e-40
4.82969e-42
-2.06739e-47
-8.97005e-45
1.25615e-36
-1.00009e-42
-1.07277e-43
-1.40459e-49
-2.42792e-43
-1.70193e-49
-2.26999e-57
-2.17436e-54
1.55556e-45
-1.68774e-45
-8.20441e-70
-6.90114e-60
-7.51651e-66
-1.06037e-59
-2.2543e-63
-3.09392e-59
2.70157e-54
-8.20622e-70
-7.51733e-66
-2.26182e-63
-3.09415e-59
-1.26516e-15
-7.29069e-17
-4.57249e-16
6.76598e-17
-2.81134e-17
7.4311e-17
5.10749e-16
7.99006e-18
8.98419e-16
-2.3484e-16
2.0788e-15
-1.29281e-15
8.06117e-16
-1.56574e-15
6.10715e-16
-8.64258e-17
1.0759e-13
-1.11686e-13
1.2193e-10
-1.26174e-10
1.42223e-09
-3.33182e-09
2.17495e-09
-3.63367e-09
-8.92143e-11
-4.49013e-10
9.75614e-11
-1.82374e-10
-4.87222e-11
-6.53274e-10
-1.16968e-10
-3.08391e-10
-6.00296e-10
-5.52401e-13
-1.05569e-09
-1.90667e-11
-5.35409e-10
-4.67851e-13
-1.63677e-11
-2.77706e-13
-2.67859e-11
-2.02734e-13
-2.77052e-11
-4.49173e-12
-1.71027e-12
-2.84958e-12
-5.70936e-14
1.26385e-12
-1.40431e-15
3.54448e-13
-2.2912e-14
2.12281e-14
-2.68761e-13
2.47876e-13
-3.55923e-12
3.29851e-12
-5.19964e-11
4.84561e-11
-4.67004e-11
3.74135e-10
-2.28732e-10
-7.15143e-11
-2.14874e-10
-1.40279e-09
3.08575e-11
-2.7309e-09
4.87273e-10
-3.78311e-09
7.43615e-10
-4.91176e-09
2.2285e-11
-9.64986e-10
6.01595e-13
-6.96997e-12
8.58077e-15
-1.25583e-13
1.48278e-15
-3.89048e-14
-9.86185e-14
-2.14416e-15
-3.15303e-16
-1.00584e-15
-4.33843e-17
-3.56075e-16
5.05987e-17
-2.10363e-17
2.37639e-17
6.89403e-16
-1.61676e-16
1.49972e-15
-9.56935e-16
1.6485e-15
-1.15299e-15
1.64908e-15
-1.0357e-16
2.56182e-12
-2.67128e-12
2.46467e-10
-7.34094e-10
9.79748e-10
-3.218e-09
1.78352e-10
-1.94165e-09
-1.42828e-10
-2.50736e-10
-2.6532e-10
-5.48335e-10
-4.19759e-10
-3.87432e-10
-7.74143e-13
-4.15479e-14
-1.25051e-12
-2.50134e-14
-2.17155e-13
-5.38737e-14
-3.89745e-13
-2.82927e-16
-7.64442e-13
-4.0592e-15
-1.20547e-12
6.87862e-14
-2.01126e-12
2.85682e-13
-6.07506e-13
2.34321e-12
-6.61979e-12
1.10242e-11
-4.34324e-10
4.28265e-10
-2.09334e-09
1.26538e-09
-3.06868e-09
1.75549e-09
-3.18806e-09
1.46008e-09
-2.26488e-09
8.06421e-10
-1.63206e-09
1.40719e-10
-1.3771e-09
-5.51903e-10
-7.08798e-10
-1.99507e-09
-1.42415e-10
-3.22121e-09
2.68243e-10
-4.11495e-09
2.02834e-10
-2.21775e-09
6.7461e-12
-1.70412e-11
8.87038e-14
-1.91269e-13
2.55669e-15
-3.72564e-14
1.31589e-15
-3.72933e-14
-9.8346e-14
-2.73245e-15
-6.04925e-16
-1.50606e-15
-2.15163e-16
-6.52258e-16
-3.05781e-17
-1.06479e-16
1.60419e-17
7.55554e-16
-8.7325e-17
1.56016e-15
-6.61124e-16
1.52328e-15
-8.05347e-16
2.70727e-15
-1.17122e-16
7.48042e-11
-7.74708e-11
3.28906e-10
-2.61798e-09
-1.82986e-10
-1.85114e-09
-3.62696e-10
-8.7137e-11
-5.20685e-10
-1.61598e-10
-4.56665e-10
-3.06141e-10
-1.21551e-13
-2.6863e-14
-1.51158e-13
-1.2184e-14
-1.76023e-13
2.22201e-15
-1.96133e-13
1.48412e-14
-1.44831e-13
5.57481e-14
-5.72561e-14
1.26135e-13
5.93282e-13
2.9391e-13
7.95824e-13
8.04653e-13
-5.1915e-12
7.33116e-12
-2.3562e-10
5.77813e-11
-4.40688e-09
9.6592e-10
-4.60644e-09
1.63795e-09
-4.12472e-09
1.45076e-09
-3.4432e-09
9.55571e-10
-2.71739e-09
2.57609e-10
-2.02098e-09
-3.79204e-10
-1.31961e-09
-1.10566e-09
-7.96033e-10
-2.27025e-09
-2.95884e-10
-3.64192e-09
5.49956e-11
-1.4719e-09
1.5646e-11
-1.08384e-11
4.31338e-14
-1.29111e-12
2.33393e-15
-1.48869e-13
1.70031e-15
-3.7388e-14
1.08308e-15
-3.63306e-14
-9.63138e-14
-2.93729e-15
-8.56852e-16
-1.82537e-15
-4.31049e-16
-9.06173e-16
-1.5345e-16
-2.31589e-16
-2.04068e-17
8.89539e-16
-5.99285e-18
1.77527e-15
-3.10977e-16
1.74554e-15
-4.54399e-16
2.85447e-15
-9.84824e-17
6.12589e-11
-5.68086e-11
-1.77726e-10
-1.66123e-09
-9.97065e-11
-1.22144e-09
-1.8066e-10
-1.05559e-12
-2.33596e-10
-6.1285e-11
-1.14292e-13
-2.42978e-11
-1.4083e-13
-4.28491e-16
-1.65597e-13
1.24288e-14
-1.88388e-13
2.49007e-14
-2.19048e-13
4.56261e-14
-3.95747e-13
2.05993e-13
-5.01708e-13
3.3662e-13
-8.08944e-14
6.08813e-13
6.06744e-13
6.38673e-13
6.28482e-12
1.00467e-12
-2.08438e-11
7.88859e-12
-8.88002e-10
-2.47547e-11
-1.96109e-09
8.08722e-12
-2.70761e-09
1.17336e-10
-2.48673e-09
5.3192e-11
-1.24618e-09
-4.04485e-16
-5.9142e-10
-2.68184e-15
-1.9492e-10
-2.46665e-14
-2.36311e-10
-7.29794e-13
-1.58639e-11
-9.73622e-12
1.20436e-12
-2.97274e-11
3.3929e-14
-1.00955e-11
5.53464e-15
-1.38874e-12
2.53753e-15
-4.23338e-13
1.28273e-15
-4.23291e-14
8.65407e-16
-3.45669e-14
-9.31472e-14
-2.83463e-15
-1.02543e-15
-1.94848e-15
-6.38935e-16
-1.07524e-15
-3.10894e-16
-3.41944e-16
-8.37832e-17
1.10086e-15
1.27375e-16
2.15742e-15
2.91713e-16
1.96411e-15
8.02733e-17
2.91593e-15
-1.05589e-17
2.83932e-11
-1.12335e-11
-4.28645e-10
-5.07911e-10
-8.09265e-11
-3.53342e-10
-7.82958e-11
-2.60147e-14
-4.37903e-11
-4.75218e-13
-1.35907e-13
-9.87949e-14
-1.60568e-13
2.41304e-14
-1.85171e-13
3.69188e-14
-2.09646e-13
4.96333e-14
-7.60867e-13
1.57758e-13
-1.74521e-12
4.82775e-13
-2.00816e-12
6.12293e-13
-1.36651e-12
6.44762e-13
-1.36834e-12
5.25945e-13
-3.96907e-12
1.72214e-13
-8.67762e-12
-6.2542e-13
-3.41657e-11
-8.16608e-14
-3.27162e-11
1.74619e-13
-1.83934e-11
1.72317e-13
-2.36502e-15
-1.13359e-15
-1.88464e-15
-9.83569e-16
-2.00239e-15
-2.65656e-15
-1.46984e-14
-1.21923e-14
-1.05892e-13
-6.42231e-13
-2.25657e-13
-9.6926e-12
4.75566e-14
-3.08464e-11
3.05959e-13
-1.25222e-11
4.27595e-14
-1.55706e-12
8.58471e-15
-8.62969e-13
6.76136e-16
-3.45949e-14
6.8798e-16
-3.21539e-14
-8.46541e-14
-2.55466e-15
-1.10386e-15
-1.91871e-15
-8.03562e-16
-1.15493e-15
-4.69457e-16
-4.0881e-16
-1.62532e-16
1.1485e-15
4.51476e-16
2.19682e-15
9.02367e-16
2.0311e-15
6.30466e-16
2.83589e-15
9.58326e-17
5.18269e-11
9.45696e-11
-4.89185e-10
6.79322e-10
-3.65865e-12
3.38035e-10
-6.04488e-13
1.01216e-13
-1.894e-13
-6.9301e-14
-1.22174e-13
-1.66496e-13
-1.46091e-13
4.78788e-14
-1.92337e-13
8.27454e-14
-2.52653e-13
1.06142e-13
-1.83891e-12
1.90626e-13
-1.98553e-12
6.42241e-13
-2.02823e-12
6.67835e-13
-2.01763e-12
6.47001e-13
-1.99282e-12
5.20079e-13
-7.2988e-13
1.04e-13
-2.74598e-13
-1.49798e-14
-3.76582e-13
1.2696e-14
-1.80996e-13
-1.35189e-14
-2.43701e-15
-6.163e-15
-1.97596e-15
-1.70253e-15
-1.62991e-15
-1.41878e-15
-1.88649e-15
-2.46347e-15
3.31177e-14
-5.11324e-14
-1.20674e-13
-5.25317e-13
-3.80504e-13
-3.16356e-11
2.18416e-12
-1.39598e-10
3.08151e-12
-1.58491e-10
-9.39856e-14
-6.26886e-11
-5.4954e-15
-1.26734e-12
5.16781e-16
-3.83152e-14
5.94665e-16
-3.00856e-14
-7.55044e-14
-2.20584e-15
-1.10621e-15
-1.79327e-15
-9.09019e-16
-1.16191e-15
-6.02122e-16
-4.40177e-16
-2.37756e-16
1.18444e-15
6.87883e-16
2.27016e-15
1.49103e-15
2.14359e-15
1.14881e-15
2.80723e-15
2.28407e-16
3.32092e-10
1.10959e-09
-1.91601e-10
1.81983e-09
-4.36591e-12
5.72153e-10
-8.47666e-13
2.83318e-13
4.53994e-14
6.49567e-13
-2.74901e-12
9.19966e-13
-1.37452e-11
1.35946e-11
-2.03125e-13
1.54131e-11
-3.03953e-13
1.91851e-13
-1.31724e-13
1.41743e-13
-8.79204e-13
1.32367e-13
-1.62526e-12
3.15601e-13
-1.52886e-12
5.69727e-13
-1.30526e-12
2.02283e-13
-3.61506e-13
9.98855e-15
-2.75856e-14
7.0319e-15
-1.81396e-14
1.55309e-15
-5.20831e-15
-3.33093e-16
-3.23916e-15
-1.61983e-15
-1.67028e-15
-1.96044e-15
-1.06847e-15
-1.87567e-15
-1.20934e-15
-2.32336e-15
-4.73301e-14
-3.00599e-15
-7.91316e-13
-3.2623e-11
2.36688e-12
-1.20616e-10
7.58867e-12
-1.44798e-10
1.00365e-11
-1.61518e-10
1.1516e-12
-1.22061e-10
-8.30015e-15
-1.76735e-12
4.3762e-16
-3.33629e-14
5.72803e-16
-2.83392e-14
-6.91971e-14
-1.85418e-15
-1.05209e-15
-1.61845e-15
-9.52685e-16
-1.11874e-15
-6.9255e-16
-4.53375e-16
-3.01215e-16
1.23677e-15
6.01381e-16
2.39092e-15
2.02681e-15
2.27602e-15
1.55034e-15
2.84335e-15
3.7804e-16
7.22343e-10
1.36148e-09
2.62187e-10
2.90226e-09
-3.53428e-12
8.55195e-10
-6.57102e-13
4.67918e-13
2.10606e-13
1.4693e-12
-3.01395e-12
1.89388e-12
-2.65874e-11
1.80904e-11
-3.68798e-11
2.8611e-11
-1.49278e-13
2.45366e-11
-1.49689e-13
7.99111e-14
-1.46225e-13
6.3118e-14
-2.34912e-13
2.86491e-14
-1.64635e-13
3.96708e-14
-2.98878e-14
1.2048e-14
-8.95835e-15
1.36899e-15
-5.66266e-15
1.37117e-15
-5.93097e-15
1.08704e-16
-4.9254e-15
-1.27498e-15
-3.2052e-15
-2.83229e-15
-1.11785e-15
-3.1982e-15
-5.51766e-16
-2.27022e-15
-2.51856e-16
-2.62441e-15
7.61517e-18
-3.26628e-15
3.88098e-12
-7.42414e-11
1.06627e-11
-1.26393e-10
1.3541e-11
-1.46982e-10
1.43999e-11
-1.62355e-10
2.22744e-12
-1.0874e-10
-2.70085e-15
-4.78865e-13
3.54119e-16
-2.07141e-14
6.60859e-16
-2.67745e-14
-6.53656e-14
-1.53092e-15
-9.5929e-16
-1.42445e-15
-9.3969e-16
-1.0448e-15
-7.3459e-16
-4.59027e-16
-3.4987e-16
1.34349e-15
4.01966e-16
2.47867e-15
2.37794e-15
2.33241e-15
1.82006e-15
2.8303e-15
5.24616e-16
7.76078e-10
6.45426e-10
9.3711e-10
3.36912e-09
-3.05938e-12
1.58203e-09
-3.61528e-13
2.54787e-12
-3.32256e-13
8.60637e-12
-5.54739e-13
1.01258e-11
-2.33295e-11
1.81671e-11
-2.40113e-11
3.23556e-11
-2.33204e-11
2.66461e-11
-1.01698e-13
1.59309e-11
-1.66164e-13
5.91126e-14
-1.69056e-13
1.16032e-13
-1.13569e-13
1.11613e-13
-1.42428e-14
4.72642e-14
-3.75179e-15
3.97583e-15
-3.83176e-15
4.96982e-16
-3.78515e-15
-8.26031e-16
-3.00243e-15
-3.44897e-15
-1.68728e-15
-5.7721e-15
-3.02392e-16
-5.48423e-15
4.02021e-17
-2.88546e-15
3.06444e-16
-2.89143e-15
5.0155e-16
-3.46222e-15
1.67109e-11
-3.02106e-11
1.98497e-11
-1.28991e-10
2.02571e-11
-1.47367e-10
1.75542e-11
-1.59414e-10
2.94798e-13
-2.27236e-11
2.09408e-15
-1.70317e-13
7.6306e-16
-1.33762e-14
8.70819e-16
-2.49147e-14
-6.24883e-14
-1.24637e-15
-8.42282e-16
-1.2285e-15
-8.79763e-16
-9.5334e-16
-7.3016e-16
-4.6637e-16
-3.86645e-16
1.07039e-15
3.0009e-16
2.69189e-15
2.76346e-15
2.5098e-15
2.67267e-15
2.89391e-15
6.93015e-16
6.17334e-10
2.80019e-11
1.24644e-09
1.33628e-09
1.6876e-11
1.29337e-09
-4.83676e-13
4.40629e-11
-1.25512e-12
8.76483e-11
-2.29719e-12
8.29307e-11
-5.25165e-12
1.28575e-11
-9.59934e-12
2.77763e-11
-1.57097e-11
1.57105e-11
-3.25516e-12
4.39205e-12
-2.59868e-13
3.14528e-13
-1.47235e-13
1.58737e-13
-1.29253e-13
1.61609e-13
-9.81465e-14
9.53978e-14
-9.54209e-15
1.97216e-14
-2.16302e-15
4.99807e-17
-1.1562e-15
-2.91286e-15
2.89382e-16
-6.52221e-15
1.44071e-15
-9.20703e-15
1.24879e-15
-8.24941e-15
8.54889e-16
-4.60734e-15
1.26388e-15
-3.3019e-15
1.41283e-15
-3.61229e-15
1.02941e-11
-4.56104e-15
2.93549e-11
-4.00843e-11
2.36997e-11
-1.41451e-10
1.04623e-11
-8.25089e-11
1.43332e-13
-1.00345e-12
2.04005e-15
-2.5593e-14
8.25521e-16
-1.15016e-14
1.11283e-15
-2.32902e-14
-5.9539e-14
-1.00084e-15
-7.12858e-16
-1.03973e-15
-7.85324e-16
-8.52513e-16
-6.86674e-16
-4.70418e-16
-4.06894e-16
9.45859e-16
2.77536e-16
4.36983e-15
4.60221e-15
5.2999e-15
5.92959e-15
5.66421e-15
9.08631e-16
2.69025e-11
1.10124e-12
4.19296e-10
2.17703e-11
2.93915e-10
8.51925e-12
-7.34074e-12
1.38622e-10
1.67608e-12
4.36199e-11
5.99034e-12
2.73133e-11
4.61328e-13
5.21175e-11
-1.28857e-13
3.81205e-11
9.97148e-15
4.73302e-12
2.78575e-15
1.76906e-13
7.35691e-16
3.4804e-13
3.41466e-15
6.59646e-14
9.88514e-15
3.01786e-14
8.44636e-15
8.44906e-15
2.71435e-15
4.436e-15
4.30177e-15
-1.25659e-15
6.33266e-15
-5.52056e-15
7.68684e-15
-1.00076e-14
6.89288e-15
-1.25005e-14
3.9721e-15
-1.06153e-14
1.85479e-15
-6.27247e-15
1.60074e-15
-4.06169e-15
1.77657e-15
-3.78993e-15
1.59466e-15
-4.39948e-15
6.81268e-12
-7.32111e-15
2.04467e-11
-9.16634e-15
9.75419e-13
-1.13028e-14
1.37982e-14
-3.23505e-14
1.61072e-15
-1.19025e-14
9.87564e-16
-1.09334e-14
1.34332e-15
-2.18593e-14
-5.61818e-14
-7.90902e-16
-5.80834e-16
-8.62765e-16
-6.6978e-16
-7.47188e-16
-6.14473e-16
-4.63631e-16
-4.04946e-16
1.14018e-15
3.30927e-16
8.56952e-15
6.62247e-15
1.02416e-14
1.0349e-14
1.11228e-14
1.49714e-15
1.05586e-12
5.48766e-14
2.07116e-11
2.27768e-12
2.09394e-11
7.34268e-12
3.72766e-11
1.84312e-11
2.49538e-11
1.3746e-11
3.35664e-11
1.43103e-11
2.99759e-11
6.31774e-11
1.50581e-11
5.83432e-11
1.83356e-13
2.38644e-11
-5.76837e-14
2.08018e-13
1.89861e-14
3.95096e-14
1.40236e-14
1.30906e-14
1.27916e-14
8.76165e-15
1.34913e-14
4.97279e-15
1.37535e-14
1.39734e-15
1.55872e-14
-3.09286e-15
1.77822e-14
-8.72282e-15
1.79863e-14
-1.3675e-14
1.33699e-14
-1.50727e-14
7.02285e-15
-1.12014e-14
3.34397e-15
-6.45606e-15
2.31834e-15
-4.4279e-15
2.18936e-15
-4.03687e-15
2.0467e-15
-4.27719e-15
1.95844e-15
-7.25039e-15
1.82247e-15
-9.05378e-15
1.63303e-15
-1.10913e-14
1.78395e-15
-2.42298e-14
1.80285e-15
-1.32523e-14
1.1792e-15
-1.03774e-14
1.58901e-15
-2.03157e-14
-5.2421e-14
-6.12312e-16
-4.54181e-16
-6.99951e-16
-5.45788e-16
-6.40447e-16
-5.24532e-16
-4.42326e-16
-3.80176e-16
1.15136e-15
2.68821e-16
7.82981e-15
7.38689e-15
1.19408e-14
1.17663e-14
7.25067e-15
5.74795e-15
5.68196e-14
5.44392e-15
1.28844e-12
1.05728e-12
3.24091e-12
3.54086e-12
4.62634e-12
1.57274e-11
6.67356e-12
8.18951e-12
3.36675e-11
8.06844e-12
5.16566e-11
3.23883e-11
5.45911e-11
6.07627e-11
2.89929e-12
2.46662e-11
3.45124e-14
9.59238e-13
2.10209e-14
5.2387e-14
2.1514e-14
1.28957e-14
2.24351e-14
8.27994e-15
2.32789e-14
4.56261e-15
2.69461e-14
5.9598e-16
3.14682e-14
-4.59246e-15
3.20792e-14
-1.00816e-14
2.9006e-14
-1.49074e-14
1.95539e-14
-1.54488e-14
9.24736e-15
-9.98967e-15
4.53186e-15
-5.29592e-15
3.2545e-15
-4.20626e-15
2.82956e-15
-4.02822e-15
2.6636e-15
-4.12278e-15
2.78273e-15
-7.39857e-15
2.58303e-15
-8.83176e-15
2.25844e-15
-7.31842e-15
5.68875e-15
-1.04847e-14
2.21185e-15
-9.39065e-15
1.42294e-15
-9.71544e-15
1.83781e-15
-1.84248e-14
-4.82113e-14
-4.60939e-16
-3.38777e-16
-5.5223e-16
-4.23791e-16
-5.34316e-16
-4.26764e-16
-4.06117e-16
-3.36442e-16
5.9762e-16
8.57393e-17
9.54629e-15
4.06971e-15
1.26981e-14
1.09555e-14
5.75396e-15
6.44214e-15
1.01326e-14
6.85505e-16
1.02277e-12
4.47804e-14
2.79276e-11
2.68602e-11
3.4631e-11
4.81178e-11
1.15802e-11
3.33141e-11
1.71801e-11
2.19877e-11
2.89534e-11
7.02587e-12
2.77926e-11
1.8902e-12
4.28262e-12
7.44917e-12
1.03653e-13
2.70472e-12
3.44259e-14
1.20415e-13
3.2841e-14
1.48406e-14
3.34867e-14
7.92849e-15
3.80259e-14
4.30012e-15
4.22152e-14
-1.99898e-16
4.37314e-14
-5.36019e-15
4.43788e-14
-9.9756e-15
3.76512e-14
-1.40267e-14
2.0581e-14
-1.13366e-14
8.29431e-15
-6.28434e-15
4.81218e-15
-3.89909e-15
4.03717e-15
-3.7905e-15
3.64578e-15
-3.89187e-15
3.54198e-15
-4.04568e-15
6.65297e-15
-1.07513e-14
5.76073e-15
-7.11921e-15
5.31678e-15
-1.57774e-14
3.21461e-15
-1.31649e-14
2.35584e-15
-8.83011e-15
1.58947e-15
-9.08986e-15
2.05472e-15
-1.6282e-14
-4.35084e-14
-3.32781e-16
-2.38125e-16
-4.19378e-16
-3.11101e-16
-4.29974e-16
-3.28997e-16
-3.5627e-16
-2.79704e-16
-3.93195e-17
-3.14966e-17
4.85608e-15
1.12388e-15
8.30342e-15
4.26707e-15
4.51964e-15
3.0748e-15
2.9143e-15
3.42438e-16
3.0973e-11
1.92565e-12
6.77346e-11
3.97854e-11
7.16964e-11
4.5167e-11
5.59939e-11
4.95058e-11
2.87326e-11
4.53563e-11
9.50932e-12
3.77544e-11
2.27053e-12
1.65372e-11
7.31187e-13
8.93935e-12
1.69613e-13
3.26878e-12
5.43495e-14
2.40614e-13
4.80012e-14
2.66556e-14
4.95873e-14
1.05178e-14
5.32825e-14
3.95857e-15
5.47914e-14
-6.94607e-16
5.42594e-14
-5.0897e-15
4.76602e-14
-8.44766e-15
3.10183e-14
-9.03835e-15
1.47873e-14
-6.57428e-15
6.99624e-15
-3.93261e-15
5.28425e-15
-3.26958e-15
4.95323e-15
-3.41726e-15
4.59815e-15
-3.79089e-15
1.70859e-14
-1.0516e-14
8.48428e-14
-2.04145e-13
6.91828e-14
-2.35819e-13
1.63531e-14
-7.51599e-14
3.90295e-15
-1.76175e-14
2.6895e-15
-8.30727e-15
1.91905e-15
-8.25717e-15
2.22733e-15
-1.40475e-14
-3.83468e-14
-2.23355e-16
-1.53106e-16
-2.99732e-16
-2.1152e-16
-3.2752e-16
-2.3642e-16
-2.9418e-16
-2.15797e-16
-1.26212e-16
-9.3448e-17
9.18639e-16
2.27267e-16
2.2648e-15
5.00281e-16
1.7777e-15
4.99057e-16
1.9463e-15
1.2155e-16
1.8279e-12
9.88934e-14
7.43518e-11
1.01885e-11
7.99503e-11
3.98188e-11
8.22342e-11
4.77077e-11
8.32863e-11
4.49162e-11
7.93855e-11
4.21494e-11
5.8746e-11
3.76102e-11
3.46729e-11
3.03215e-11
6.95155e-12
1.47376e-11
1.97583e-13
6.99714e-12
5.56121e-14
1.97489e-13
4.76038e-14
2.32464e-14
4.91191e-14
2.85684e-15
4.8678e-14
-6.8407e-16
4.43488e-14
-3.05325e-15
3.49374e-14
-4.84038e-15
2.18409e-14
-4.97986e-15
1.10031e-14
-3.65985e-15
6.80302e-15
-2.81853e-15
5.91379e-15
-2.87609e-15
6.13118e-15
-3.0988e-15
8.45986e-15
-6.33134e-15
2.66376e-13
-9.82503e-14
5.25395e-13
-4.77828e-13
3.17951e-13
-6.45475e-13
2.52183e-14
-2.27068e-13
3.43612e-15
-2.81035e-14
3.03648e-15
-8.10964e-15
2.17697e-15
-7.35418e-15
2.36098e-15
-1.17631e-14
-3.2754e-14
-1.2643e-16
-8.17846e-17
-1.89331e-16
-1.25281e-16
-2.25171e-16
-1.51277e-16
-2.20039e-16
-1.48978e-16
-1.40392e-16
-9.50682e-17
7.31003e-17
1.37745e-17
2.39458e-16
5.3093e-17
2.72626e-16
4.01336e-17
3.59558e-16
1.80795e-17
9.45296e-14
4.04996e-15
1.60711e-11
5.0842e-13
7.12369e-11
2.82017e-12
9.30412e-11
2.65159e-11
9.66214e-11
4.18886e-11
9.89301e-11
4.02892e-11
1.00884e-10
3.59473e-11
1.00971e-10
3.06835e-11
8.95424e-11
2.65597e-11
2.3626e-11
2.09457e-11
1.54472e-13
1.60872e-12
4.46421e-14
1.24878e-13
3.56954e-14
5.55752e-15
3.27632e-14
-7.36662e-16
3.10079e-14
-2.30734e-15
2.49603e-14
-3.29818e-15
1.54626e-14
-3.10272e-15
8.99444e-15
-2.45674e-15
7.09493e-15
-2.28764e-15
6.66126e-15
-2.33068e-15
7.10886e-15
-2.97132e-15
5.22423e-14
-5.11041e-14
6.68777e-13
-3.07259e-13
7.19334e-13
-5.23175e-13
6.50239e-13
-5.72021e-13
1.04648e-13
-3.72448e-13
2.43457e-15
-6.86011e-14
3.40333e-15
-9.23093e-15
2.42877e-15
-6.38318e-15
2.4472e-15
-9.49173e-15
-2.67917e-14
-3.40038e-17
-2.04622e-17
-8.07016e-17
-4.93995e-17
-1.18113e-16
-7.29382e-17
-1.31785e-16
-8.14345e-17
-1.04589e-16
-6.41482e-17
-3.59636e-17
-2.17156e-17
1.45125e-17
2.61686e-18
2.15178e-17
7.7979e-18
2.79027e-17
7.53757e-18
3.91509e-15
1.39898e-16
4.91782e-13
2.21115e-14
3.24407e-12
9.95347e-14
3.00748e-11
6.41878e-13
6.98898e-11
4.34278e-13
1.01707e-10
6.50326e-12
1.123e-10
2.56388e-11
1.14997e-10
2.8244e-11
1.17396e-10
2.4689e-11
3.26052e-11
9.55892e-12
2.56329e-13
1.32974e-12
4.882e-14
1.17902e-13
3.54127e-14
5.38961e-15
3.08502e-14
-6.42513e-16
2.79096e-14
-1.96123e-15
2.07027e-14
-2.4509e-15
1.25603e-14
-2.16484e-15
8.6027e-15
-1.82601e-15
7.25921e-15
-1.80611e-15
7.70108e-15
-1.91768e-15
2.0915e-14
-1.54004e-14
5.11207e-13
-1.64302e-13
8.69334e-13
-3.85273e-13
8.07276e-13
-4.56837e-13
7.20677e-13
-4.81637e-13
2.48586e-13
-4.14936e-13
4.6884e-15
-7.70865e-14
3.88102e-15
-8.84292e-15
2.70008e-15
-5.35078e-15
2.48165e-15
-7.27723e-15
-2.05597e-14
9.55012e-17
1.11052e-16
5.70158e-17
8.38248e-17
-1.67978e-18
-9.41905e-19
-2.61851e-17
-1.46059e-17
-3.20339e-17
-1.76232e-17
-1.59356e-17
-8.57321e-18
6.44105e-18
2.8693e-19
1.47925e-17
7.68622e-18
1.20329e-17
5.74788e-18
1.0622e-16
1.00767e-17
2.15157e-14
5.94225e-16
1.19595e-13
3.34048e-15
7.38529e-13
2.79495e-14
1.14265e-12
3.54802e-14
7.38448e-12
1.31449e-13
4.00009e-11
4.2527e-13
5.95531e-11
4.2284e-13
4.19581e-11
-9.62619e-14
8.83103e-12
-6.80421e-13
4.13246e-14
8.41716e-14
3.8939e-14
1.29757e-14
3.21045e-14
1.83126e-15
3.40732e-14
-6.36315e-16
2.79523e-14
-1.52971e-15
1.79013e-14
-1.62011e-15
1.15462e-14
-1.51918e-15
8.54042e-15
-1.43642e-15
7.90426e-15
-1.42742e-15
8.10978e-15
-1.59392e-15
3.27213e-13
-1.02785e-13
1.00787e-12
-2.41878e-13
9.71879e-13
-3.4342e-13
8.85441e-13
-3.66505e-13
7.8766e-13
-3.7953e-13
3.04158e-13
-3.68465e-13
8.10195e-15
-4.56369e-14
4.67046e-15
-5.94902e-15
2.97691e-15
-3.93329e-15
2.47191e-15
-5.10165e-15
-1.41968e-14
3.44421e-16
1.65087e-16
3.82601e-16
2.50729e-16
3.21299e-16
2.77495e-16
2.33466e-16
2.46386e-16
1.64365e-16
1.86826e-16
1.28941e-16
1.36088e-16
1.12443e-16
1.06623e-16
9.7453e-17
8.25418e-17
9.39688e-17
6.85291e-17
1.15039e-16
6.98002e-17
6.74028e-16
1.49433e-16
4.53303e-15
2.98019e-16
3.26681e-14
7.80954e-16
6.6817e-14
1.93557e-15
1.92457e-13
3.96582e-15
6.38952e-13
9.01647e-15
1.05626e-12
6.82774e-15
9.57581e-13
-1.29023e-15
3.42641e-13
-9.01106e-15
2.88949e-13
-7.75112e-15
1.25533e-13
5.19283e-15
5.915e-14
1.46171e-15
3.43037e-14
-1.90121e-16
2.14735e-14
-6.24728e-16
1.53497e-14
-1.00924e-15
1.17545e-14
-1.2544e-15
9.02968e-15
-1.19619e-15
9.77106e-15
-1.15122e-15
1.06115e-14
-1.2246e-15
1.10211e-12
-8.76162e-14
1.12958e-12
-2.57332e-13
1.05057e-12
-2.58436e-13
9.55638e-13
-2.66604e-13
8.39286e-13
-2.58811e-13
1.8058e-13
-1.54839e-13
7.32336e-15
-8.91754e-15
4.33395e-15
-2.80197e-15
3.11932e-15
-2.46504e-15
2.47155e-15
-3.0052e-15
-7.91762e-15
4.17029e-16
1.47329e-16
6.6429e-16
2.50313e-16
8.96473e-16
3.83049e-16
1.01608e-15
5.41008e-16
9.85279e-16
6.1739e-16
8.91445e-16
6.09573e-16
7.83487e-16
5.56418e-16
6.81131e-16
4.75552e-16
5.99475e-16
3.97326e-16
5.86844e-16
3.29749e-16
7.20682e-16
2.75428e-16
1.16103e-15
2.8445e-16
2.06897e-15
4.2099e-16
4.12995e-15
7.16529e-16
8.23996e-15
9.02059e-16
1.80046e-14
8.53121e-16
2.64954e-14
4.40838e-16
2.68251e-14
5.86047e-16
1.95219e-14
8.23615e-16
2.05322e-14
7.54263e-16
2.27091e-14
5.60401e-16
1.97529e-14
2.36382e-16
1.75291e-14
-1.8422e-16
1.69036e-14
-5.8034e-16
1.62461e-14
-9.48536e-16
1.44919e-14
-1.19838e-15
1.05186e-14
-1.18162e-15
1.04287e-14
-9.22917e-16
1.01115e-14
-8.74884e-16
1.10785e-12
-7.17312e-16
1.20287e-12
-1.39591e-13
1.11374e-12
-1.6239e-13
1.01245e-12
-1.59275e-13
5.49919e-13
-1.5363e-13
1.73126e-14
-1.84739e-14
5.34465e-15
-1.59432e-15
4.52457e-15
-1.09835e-15
3.32183e-15
-9.68769e-16
2.42745e-15
-1.00428e-15
-2.10419e-15
3.73449e-16
9.78624e-17
6.58843e-16
1.97264e-16
1.03954e-15
3.34307e-16
1.54874e-15
5.03576e-16
2.10395e-15
6.99669e-16
2.57885e-15
9.62843e-16
2.97674e-15
1.25228e-15
3.13707e-15
1.40707e-15
3.13169e-15
1.44455e-15
3.038e-15
1.3874e-15
3.04421e-15
1.24999e-15
3.20107e-15
1.15021e-15
3.73125e-15
1.04723e-15
4.7957e-15
9.46072e-16
6.16327e-15
9.44543e-16
7.71701e-15
9.16718e-16
9.58764e-15
9.19995e-16
1.21666e-14
9.1451e-16
1.48085e-14
8.40444e-16
1.72731e-14
6.69188e-16
1.98225e-14
4.24897e-16
2.22964e-14
1.24137e-16
2.33693e-14
-2.7792e-16
2.32385e-14
-6.4116e-16
2.19646e-14
-8.5755e-16
1.90576e-14
-9.51506e-16
1.46311e-14
-9.66751e-16
9.45494e-15
-7.90346e-16
9.06923e-15
-4.99504e-16
6.3749e-15
-3.77315e-16
1.1735e-12
-1.44398e-14
1.12476e-12
-5.22549e-14
9.92995e-13
-2.05213e-14
1.46503e-13
-1.07781e-14
7.11493e-15
-2.78838e-16
5.25967e-15
1.07361e-16
4.71337e-15
3.19655e-16
3.49879e-15
5.6922e-16
2.34654e-15
8.98448e-16
2.67389e-15
2.35302e-16
3.66741e-17
4.97678e-16
9.55204e-17
9.01511e-16
2.02089e-16
1.46781e-15
3.61976e-16
2.21832e-15
5.79126e-16
3.28566e-15
8.34024e-16
4.76492e-15
1.16114e-15
6.53252e-15
1.52941e-15
8.39085e-15
2.0104e-15
1.02428e-14
2.49871e-15
1.16476e-14
2.8591e-15
1.25427e-14
2.97223e-15
1.33592e-14
2.88642e-15
1.43783e-14
2.67538e-15
1.58492e-14
2.41424e-15
1.77771e-14
2.13484e-15
2.0205e-14
1.8381e-15
2.30667e-14
1.50306e-15
2.61877e-14
1.106e-15
2.91494e-14
6.35998e-16
3.09103e-14
3.1335e-16
3.11979e-14
-5.91715e-17
3.07447e-14
-3.39781e-16
2.8285e-14
-5.04421e-16
2.44327e-14
-5.58559e-16
2.11391e-14
-5.43274e-16
1.80323e-14
-4.6832e-16
1.30953e-14
-3.35316e-16
9.49125e-15
-1.74268e-16
7.12356e-15
-1.94523e-17
2.02619e-13
7.16628e-17
4.17839e-13
1.52818e-15
3.14762e-13
2.13202e-15
4.55351e-14
1.57107e-15
5.57555e-15
1.00934e-15
4.39452e-15
8.29439e-16
3.73667e-15
1.0868e-15
3.22513e-15
1.63877e-15
2.29518e-15
2.57043e-15
6.14112e-15
8.28686e-17
6.23972e-18
2.2118e-16
2.11657e-17
4.99115e-16
5.89225e-17
9.80886e-16
1.36863e-16
1.74312e-15
2.77613e-16
2.86253e-15
4.89506e-16
4.46532e-15
7.81051e-16
6.64176e-15
1.16416e-15
9.57046e-15
1.57975e-15
1.32081e-14
2.00084e-15
1.72143e-14
2.36754e-15
2.11305e-14
2.59734e-15
2.44703e-14
2.634e-15
2.69284e-14
2.45987e-15
2.87516e-14
2.12981e-15
3.03052e-14
1.72583e-15
3.16961e-14
1.29704e-15
3.27494e-14
8.67193e-16
3.35686e-14
4.61063e-16
3.42737e-14
1.05245e-16
3.40483e-14
-1.63145e-16
3.16013e-14
-3.07947e-16
2.73066e-14
-3.40182e-16
2.33479e-14
-2.95895e-16
2.1095e-14
-2.1284e-16
1.97917e-14
-1.07622e-16
1.84337e-14
2.12345e-17
1.60768e-14
2.33813e-16
1.15657e-14
4.12737e-16
5.602e-15
4.04939e-16
3.82437e-15
2.83672e-16
4.27177e-15
2.50872e-16
4.28518e-15
4.10653e-16
3.37692e-15
5.01068e-16
2.48272e-15
5.73921e-16
2.18239e-15
7.44596e-16
2.71316e-15
1.22142e-15
2.94249e-15
2.30422e-15
2.42225e-15
4.19776e-15
1.02083e-14
1.51312e-17
5.14091e-19
4.89788e-17
2.04153e-18
1.36971e-16
6.83599e-18
3.35157e-16
1.97612e-17
7.36401e-16
5.04598e-17
1.45783e-15
1.13185e-16
2.63718e-15
2.21305e-16
4.44509e-15
3.88456e-16
6.98168e-15
6.06755e-16
1.02021e-14
8.4221e-16
1.38961e-14
1.04649e-15
1.77862e-14
1.17449e-15
2.15854e-14
1.20299e-15
2.46954e-14
1.11141e-15
2.63725e-14
8.60076e-16
2.73754e-14
5.18372e-16
2.80404e-14
1.91745e-16
2.79339e-14
-5.32179e-17
2.67243e-14
-1.65356e-16
2.44269e-14