/*--------------------------------*- C++ -*----------------------------------*\
| =========                 |                                                 |
| \\      /  F ield         | OpenFOAM: The Open Source CFD Toolbox           |
|  \\    /   O peration     | Version:  5.0                                   |
|   \\  /    A nd           | Web:      www.OpenFOAM.org                      |
|    \\/     M anipulation  |                                                 |
\*---------------------------------------------------------------------------*/
FoamFile
{
    version     2.0;
    format      ascii;
    class       volScalarField;
    location    "0.9";
    object      k;
}
// * * * * * * * * * * * * * * * * * * * * * * * * * * * * * * * * * * * * * //

dimensions      [0 2 -2 0 0 0 0];

internalField   nonuniform List<scalar> 
1935
(
0.353614
0.335669
0.322909
0.314053
0.308084
0.304233
0.301931
0.300763
0.300417
0.30065
0.301258
0.302063
0.302896
0.303592
0.303992
0.303942
0.303296
0.301923
0.299705
0.296546
0.292373
0.287136
0.280815
0.273416
0.264973
0.25555
0.245242
0.234237
0.222728
0.2109
0.198947
0.187064
0.175437
0.164243
0.153636
0.143749
0.134686
0.126529
0.119337
0.113151
0.108007
0.103932
0.100957
0.377342
0.401045
0.42484
0.448348
0.357344
0.379439
0.402134
0.425104
0.342983
0.363786
0.385573
0.408093
0.332877
0.352626
0.373614
0.395665
0.325914
0.344765
0.364999
0.386498
0.321244
0.339296
0.358778
0.379615
0.318243
0.335554
0.354268
0.37434
0.316457
0.333068
0.351
0.370223
0.315557
0.331502
0.348647
0.366974
0.315289
0.330606
0.346981
0.364398
0.315449
0.330182
0.345823
0.362354
0.315856
0.330058
0.345018
0.360716
0.316342
0.330072
0.344417
0.359356
0.316742
0.330062
0.343867
0.358131
0.316893
0.329863
0.343204
0.356886
0.316636
0.329311
0.342261
0.355451
0.315816
0.328246
0.34087
0.35365
0.314291
0.326513
0.338867
0.351308
0.311933
0.323974
0.336097
0.348258
0.308634
0.320506
0.332426
0.344348
0.304308
0.31601
0.327739
0.339447
0.298896
0.310416
0.321951
0.333453
0.292366
0.303678
0.315003
0.326293
0.284715
0.295784
0.306871
0.31793
0.275969
0.286752
0.297563
0.308358
0.266187
0.276632
0.287121
0.297612
0.255456
0.265508
0.27562
0.285758
0.243931
0.253501
0.263172
0.272901
0.231846
0.240871
0.250017
0.25925
0.219393
0.227825
0.236399
0.245093
0.206772
0.214568
0.222529
0.230639
0.194187
0.201313
0.208624
0.216112
0.181837
0.188267
0.194899
0.201735
0.169908
0.175627
0.181562
0.187722
0.158568
0.163573
0.168801
0.174273
0.14796
0.152258
0.15678
0.161557
0.1382
0.141806
0.14563
0.149712
0.129377
0.132314
0.135453
0.138841
0.121555
0.123853
0.126327
0.129024
0.114785
0.116481
0.118314
0.120329
0.109106
0.110245
0.111476
0.112833
0.104552
0.10519
0.105874
0.106624
0.101153
0.101351
0.10156
0.101784
0.472615
0.496943
0.52037
0.543282
0.566299
0.588886
0.61096
0.633897
0.65777
0.682529
0.707863
0.733257
0.758365
0.782173
0.801073
0.812538
0.816942
0.812993
0.801909
0.785271
0.764898
0.742999
0.721823
0.703329
0.688776
0.678499
0.671871
0.667658
0.66432
0.660091
0.652987
0.641099
0.623165
0.598048
0.565533
0.525246
0.47553
0.41269
0.324908
0.162337
0.449401
0.474543
0.499283
0.523672
0.547825
0.571364
0.594388
0.617735
0.641514
0.665455
0.689005
0.711701
0.732836
0.750992
0.764352
0.771421
0.772142
0.766661
0.755939
0.740969
0.723672
0.706082
0.689776
0.675944
0.665161
0.657285
0.651614
0.647128
0.642539
0.636339
0.626959
0.613327
0.594326
0.569181
0.537699
0.49945
0.452674
0.393614
0.31059
0.155307
0.432434
0.458187
0.484027
0.509716
0.535015
0.55954
0.583279
0.606637
0.629582
0.651798
0.672983
0.692542
0.709433
0.72273
0.731573
0.735151
0.733521
0.727208
0.717068
0.704222
0.690108
0.676193
0.663598
0.652992
0.644502
0.637801
0.632281
0.627072
0.621101
0.613175
0.602323
0.587619
0.568255
0.543764
0.513834
0.477805
0.433946
0.37839
0.299485
0.149969
0.419901
0.445975
0.472457
0.499002
0.525161
0.550451
0.57466
0.597842
0.619764
0.640159
0.659081
0.675679
0.688904
0.698352
0.703701
0.70465
0.701511
0.694972
0.68579
0.674871
0.663299
0.652101
0.642012
0.633375
0.626113
0.619849
0.614029
0.607943
0.600758
0.591662
0.579892
0.56472
0.545595
0.52219
0.494021
0.460301
0.419243
0.366809
0.291336
0.146134
0.410401
0.436425
0.463091
0.489948
0.51647
0.542108
0.566449
0.58929
0.610254
0.629094
0.64596
0.660122
0.670621
0.677298
0.680207
0.679501
0.675637
0.669224
0.660949
0.651561
0.641846
0.632487
0.623936
0.616349
0.609589
0.6033
0.596983
0.590057
0.58195
0.572098
0.559893
0.544821
0.526454
0.50442
0.478152
0.446749
0.408271
0.358544
0.285839
0.143634
0.402948
0.428548
0.454939
0.481623
0.508017
0.533511
0.557589
0.579897
0.599969
0.617596
0.632894
0.645232
0.653862
0.658798
0.660315
0.658757
0.654638
0.648547
0.641089
0.632867
0.624439
0.616254
0.608577
0.601461
0.594763
0.588182
0.581315
0.573744
0.565078
0.554867
0.542684
0.528136
0.510839
0.490351
0.466036
0.436838
0.400676
0.353238
0.282682
0.142306
0.396892
0.42174
0.447451
0.473523
0.49936
0.524327
0.547843
0.569414
0.588595
0.605348
0.619648
0.630765
0.638217
0.642176
0.643018
0.641177
0.637176
0.631558
0.624846
0.617517
0.609977
0.602526
0.595322
0.588374
0.581555
0.574635
0.567335
0.5594
0.550501
0.540311
0.528512
0.514769
0.498705
0.47982
0.457411
0.43023
0.396084
0.350521
0.281551
0.14199
0.39183
0.415672
0.440381
0.46548
0.4904
0.514515
0.537234
0.558006
0.576406
0.59247
0.606068
0.61642
0.623213
0.626752
0.627446
0.625742
0.622133
0.617101
0.61109
0.604485
0.597594
0.59063
0.583702
0.576811
0.569868
0.562719
0.555228
0.54718
0.538345
0.528482
0.517334
0.504582
0.489851
0.472585
0.451933
0.426543
0.394103
0.350026
0.282142
0.142524
0.387532
0.410194
0.433674
0.45754
0.481268
0.504284
0.526026
0.54599
0.563738
0.579133
0.592085
0.602001
0.608551
0.612073
0.612984
0.611702
0.608666
0.604294
0.598964
0.592994
0.586634
0.580056
0.573351
0.566537
0.559569
0.552402
0.544934
0.537031
0.52853
0.519239
0.508948
0.497343
0.48399
0.468255
0.449198
0.425365
0.394335
0.351391
0.284162
0.143749
0.383862
0.405254
0.427377
0.449851
0.472215
0.493962
0.514592
0.533668
0.550774
0.565589
0.57799
0.587574
0.594111
0.597875
0.599227
0.598535
0.596173
0.592503
0.587847
0.58248
0.576618
0.570416
0.563975
0.557339
0.550519
0.543526
0.536302
0.528784
0.520859
0.512368
0.503089
0.492691
0.480693
0.466394
0.448769
0.426275
0.396388
0.354274
0.287337
0.145513
0.38073
0.400837
0.421562
0.442581
0.4635
0.483883
0.5033
0.521363
0.53773
0.552053
0.564003
0.573322
0.579936
0.584047
0.585937
0.585902
0.584252
0.581294
0.57731
0.572543
0.567191
0.561412
0.555321
0.548994
0.542508
0.535893
0.529147
0.522236
0.515077
0.507526
0.49935
0.490187
0.479509
0.466549
0.450209
0.42886
0.399892
0.358354
0.291412
0.147674
0.378055
0.396919
0.416278
0.435857
0.455326
0.474321
0.492474
0.509447
0.52494
0.538646
0.550193
0.559353
0.5661
0.570575
0.572994
0.573597
0.572641
0.570383
0.567067
0.562915
0.558119
0.55284
0.547212
0.541346
0.535353
0.529295
0.523202
0.517066
0.510818
0.504312
0.497298
0.48938
0.479981
0.468274
0.453093
0.432734
0.404502
0.363339
0.296154
0.150094
0.375739
0.393448
0.411524
0.429737
0.447814
0.465452
0.482343
0.498195
0.512738
0.525705
0.536801
0.545807
0.552669
0.55747
0.560367
0.561553
0.561239
0.559643
0.55698
0.553452
0.549247
0.544536
0.539471
0.53419
0.528825
0.523467
0.518168
0.512934
0.507702
0.502315
0.4965
0.489827
0.481669
0.471145
0.457023
0.437533
0.409901
0.368956
0.301346
0.152649
0.373662
0.39033
0.407241
0.424204
0.440991
0.457352
0.473032
0.487781
0.501366
0.513558
0.524129
0.532897
0.539783
0.544818
0.548104
0.549788
0.550041
0.549048
0.547
0.544086
0.540491
0.536393
0.53196
0.527351
0.522714
0.518157
0.513751
0.509506
0.505358
0.501136
0.496541
0.491106
0.484158
0.474764
0.461632
0.442926
0.415793
0.374955
0.306789
0.155226
0.371676
0.387434
0.40332
0.419171
0.434801
0.450001
0.464561
0.478271
0.490933
0.502357
0.512365
0.520809
0.527607
0.532755
0.536311
0.538382
0.539105
0.538636
0.537145
0.534811
0.531816
0.528344
0.524572
0.520682
0.516827
0.513131
0.509672
0.506464
0.503437
0.500403
0.497034
0.492829
0.48707
0.47877
0.466583
0.448607
0.421912
0.381108
0.312299
0.157724
0.369613
0.384595
0.399603
0.414496
0.429118
0.443296
0.456857
0.469624
0.481434
0.49213
0.501569
0.509635
0.516251
0.521395
0.525099
0.527438
0.528519
0.528477
0.527465
0.525651
0.523216
0.520347
0.517232
0.514061
0.510997
0.508175
0.505678
0.503521
0.501623
0.499779
0.497634
0.49465
0.490064
0.48284
0.471575
0.454301
0.428013
0.387204
0.317709
0.160056
0.36729
0.381626
0.395899
0.409989
0.423759
0.437067
0.449766
0.46171
0.472763
0.482796
0.491694
0.499362
0.505735
0.510788
0.514534
0.517028
0.518357
0.518638
0.518011
0.516637
0.514693
0.512372
0.509868
0.507378
0.505076
0.503103
0.501548
0.500423
0.499638
0.49897
0.498036
0.496262
0.492842
0.486688
0.476339
0.459764
0.433876
0.393053
0.322869
0.162149
0.364519
0.378327
0.392
0.405431
0.418502
0.431091
0.443072
0.454324
0.464731
0.474186
0.482596
0.489882
0.49599
0.500896
0.504607
0.507165
0.508644
0.509148
0.508808
0.507779
0.50624
0.504384
0.502415
0.500537
0.498933
0.497752
0.497089
0.496953
0.497245
0.497724
0.497981
0.497404
0.495145
0.490063
0.480639
0.464776
0.439303
0.398486
0.327645
0.163944
0.361118
0.374498
0.387688
0.400591
0.413102
0.425114
0.436519
0.44721
0.45709
0.466066
0.47406
0.481008
0.486863
0.491603
0.495235
0.497793
0.499343
0.499982
0.499835
0.499056
0.497822
0.496334
0.494804
0.493446
0.492453
0.491986
0.492142
0.492932
0.494249
0.495835
0.497254
0.497859
0.496757
0.492755
0.484273
0.469146
0.44412
0.403349
0.33192
0.165396
0.356915
0.369947
0.382752
0.395237
0.40731
0.418873
0.42983
0.440087
0.449557
0.458159
0.465824
0.472496
0.478135
0.482722
0.486261
0.488784
0.490353
0.491058
0.491024
0.490403
0.489378
0.488156
0.48696
0.486017
0.485536
0.485686
0.486575
0.488216
0.490494
0.493137
0.495683
0.49745
0.497499
0.494584
0.487066
0.472708
0.448177
0.407514
0.335595
0.166478
0.351763
0.364506
0.376999
0.389156
0.40089
0.412112
0.422734
0.432671
0.441841
0.450172
0.4576
0.464072
0.469552
0.474021
0.477481
0.479962
0.481522
0.482249
0.482265
0.481727
0.480822
0.479767
0.478801
0.478168
0.478092
0.478759
0.480288
0.482695
0.485863
0.489505
0.493135
0.496036
0.497224
0.495403
0.48887
0.475322
0.451344
0.410876
0.338603
0.167225
0.345539
0.358031
0.370264
0.382158
0.393631
0.404598
0.414979
0.424693
0.433663
0.44182
0.449102
0.455456
0.460846
0.465249
0.468666
0.471122
0.472669
0.473395
0.473421
0.472906
0.472047
0.471075
0.470243
0.46982
0.470048
0.471132
0.473204
0.47629
0.48027
0.484846
0.489508
0.493506
0.495814
0.495084
0.489555
0.47686
0.453511
0.413362
0.340957
0.168093
0.338153
0.350413
0.362417
0.37409
0.385356
0.396135
0.406348
0.41592
0.424776
0.432846
0.440068
0.446387
0.451761
0.456164
0.459589
0.462054
0.463607
0.46433
0.464345
0.463815
0.462947
0.461985
0.461209
0.460906
0.461344
0.46275
0.465272
0.468947
0.473656
0.479092
0.484722
0.489767
0.493162
0.49351
0.488997
0.477194
0.454551
0.414862
0.342625
0.169927
0.329552
0.341578
0.353364
0.36484
0.375933
0.386567
0.396669
0.406162
0.414974
0.423034
0.430275
0.436638
0.442074
0.446548
0.450042
0.452566
0.454159
0.454897
0.454899
0.454334
0.453418
0.452416
0.451633
0.451376
0.451941
0.453579
0.456459
0.460628
0.465975
0.472192
0.478733
0.484785
0.489238
0.490646
0.487142
0.476247
0.454362
0.415247
0.343408
0.171698
0.319718
0.331493
0.343056
0.354339
0.365275
0.375791
0.385817
0.39528
0.404105
0.412219
0.419551
0.426034
0.431609
0.436227
0.43986
0.442502
0.444181
0.444965
0.444967
0.444365
0.44339
0.442322
0.441479
0.441202
0.441818
0.443603
0.446756
0.451354
0.457287
0.464233
0.471625
0.47862
0.484074
0.486496
0.483977
0.473996
0.452918
0.414484
0.343248
0.173098
0.308672
0.320167
0.331485
0.342564
0.353342
0.363752
0.373724
0.383189
0.392071
0.400294
0.40778
0.414452
0.420239
0.425078
0.428919
0.431742
0.433566
0.43445
0.434506
0.433898
0.432858
0.431685
0.430731
0.430372
0.430975
0.432845
0.436219
0.441183
0.447632
0.455235
0.463405
0.471273
0.47766
0.481041
0.479472
0.470401
0.450171
0.412522
0.342097
0.174056
0.296472
0.307646
0.318687
0.32954
0.340146
0.350446
0.360373
0.369859
0.37883
0.387208
0.394904
0.401825
0.407891
0.413027
0.417173
0.420286
0.422353
0.42341
0.42355
0.42294
0.421818
0.420504
0.419385
0.418884
0.419412
0.421312
0.424846
0.430115
0.437013
0.445198
0.454068
0.462727
0.469969
0.47424
0.473573
0.465401
0.446057
0.409302
0.339907
0.174534
0.283218
0.294022
0.304744
0.315335
0.325746
0.335921
0.345799
0.355315
0.364397
0.372964
0.380927
0.388195
0.394658
0.400209
0.404757
0.40823
0.410593
0.411859
0.412108
0.411499
0.410277
0.40878
0.407437
0.406727
0.407116
0.408984
0.412618
0.418128
0.425405
0.434097
0.443581
0.452941
0.460943
0.466018
0.466195
0.458906
0.440494
0.404753
0.336624
0.174499
0.269083
0.27944
0.289782
0.300067
0.31025
0.320284
0.330123
0.339705
0.348958
0.357794
0.366112
0.373796
0.380716
0.386739
0.391741
0.395622
0.398319
0.399822
0.400193
0.399581
0.398235
0.396506
0.394868
0.39387
0.394043
0.395817
0.399488
0.40517
0.412752
0.421872
0.43188
0.441833
0.450481
0.456257
0.45721
0.450793
0.433372
0.39879
0.33219
0.173914
0.254394
0.264254
0.274168
0.284105
0.294031
0.303913
0.313707
0.323358
0.332795
0.341925
0.350631
0.358775
0.366197
0.372731
0.378218
0.382527
0.385569
0.387312
0.387797
0.387164
0.385653
0.383626
0.381617
0.38025
0.380132
0.381744
0.385387
0.391164
0.398942
0.408381
0.418825
0.42926
0.438419
0.444777
0.446435
0.440896
0.424555
0.391308
0.326537
0.172743
0.239363
0.248681
0.258124
0.267674
0.277314
0.287019
0.296757
0.306479
0.316115
0.325565
0.334694
0.343334
0.351288
0.358345
0.364309
0.369018
0.372368
0.374312
0.374864
0.374147
0.372372
0.369956
0.367534
0.365765
0.365301
0.366707
0.370275
0.376061
0.383908
0.393511
0.404223
0.414979
0.424501
0.431325
0.433641
0.429016
0.41388
0.382185
0.319581
0.17094
0.224218
0.232949
0.24188
0.251009
0.260332
0.269842
0.279518
0.28932
0.299178
0.308983
0.318575
0.327743
0.336237
0.343791
0.350162
0.355171
0.358695
0.360678
0.361154
0.360215
0.358058
0.355207
0.352377
0.350247
0.349473
0.350725
0.354277
0.36013
0.368069
0.377668
0.388261
0.398962
0.408585
0.415728
0.418653
0.414991
0.401199
0.371286
0.311211
0.168438
0.209187
0.217295
0.225679
0.234356
0.243341
0.252646
0.262267
0.272175
0.2823
0.292517
0.302626
0.312353
0.321369
0.329334
0.335946
0.340987
0.344364
0.346073
0.346249
0.344979
0.34241
0.339045
0.335714
0.333332
0.332569
0.333949
0.337693
0.343788
0.351902
0.36148
0.371788
0.381993
0.391198
0.398302
0.401655
0.398877
0.386463
0.358489
0.301271
0.165121
0.194495
0.201949
0.209758
0.217962
0.2266
0.235709
0.245307
0.255379
0.265854
0.276575
0.287279
0.297592
0.307064
0.315229
0.321693
0.326287
0.329117
0.330252
0.3298
0.327876
0.324564
0.320451
0.316756
0.314608
0.314532
0.316611
0.320842
0.327308
0.33568
0.345309
0.355371
0.36503
0.37354
0.380083
0.383374
0.381137
0.369861
0.343765
0.289588
0.160784
0.180348
0.187126
0.194341
0.20206
0.210356
0.2193
0.228942
0.239282
0.25024
0.261606
0.273007
0.283908
0.293645
0.301577
0.30738
0.311049
0.312718
0.312576
0.310783
0.30745
0.3029
0.298439
0.295501
0.294682
0.296092
0.299509
0.304633
0.311462
0.319911
0.329432
0.339232
0.348455
0.356295
0.362056
0.364783
0.362533
0.351906
0.32731
0.276072
0.155143
0.166922
0.173008
0.179612
0.18684
0.19481
0.203641
0.213427
0.224191
0.235828
0.248028
0.260232
0.271631
0.281274
0.288466
0.29297
0.294834
0.294269
0.291779
0.287887
0.28289
0.277797
0.274405
0.273591
0.27531
0.279124
0.284339
0.29043
0.297441
0.305611
0.314637
0.323853
0.332453
0.339581
0.344493
0.346426
0.343702
0.333141
0.309472
0.260741
0.147869
0.154358
0.159731
0.165701
0.172421
0.180072
0.188842
0.198891
0.210274
0.222842
0.236115
0.249196
0.260882
0.26994
0.275649
0.277795
0.276544
0.272686
0.267303
0.261365
0.255691
0.251553
0.250551
0.253176
0.25868
0.265779
0.27295
0.279554
0.286184
0.293509
0.301533
0.309731
0.317331
0.323478
0.327355
0.328216
0.324635
0.313672
0.290327
0.243507
0.138473
0.142756
0.147383
0.15267
0.158828
0.166115
0.174824
0.185217
0.197401
0.211121
0.225645
0.239678
0.251484
0.259466
0.262752
0.261256
0.255821
0.248072
0.239772
0.232477
0.22751
0.226034
0.228932
0.236251
0.246705
0.257962
0.26718
0.273563
0.278721
0.284166
0.290407
0.297033
0.303206
0.307966
0.31039
0.309716
0.304727
0.292732
0.268828
0.222311
0.128025
0.132188
0.136016
0.140527
0.145986
0.152748
0.161238
0.171872
0.184857
0.199914
0.216007
0.231279
0.243298
0.24985
0.249851
0.243686
0.233317
0.221449
0.210649
0.202944
0.199759
0.201984
0.209962
0.223367
0.240469
0.257678
0.270105
0.275918
0.277709
0.279138
0.281922
0.285894
0.289934
0.292724
0.293094
0.290251
0.28316
0.269391
0.244215
0.198337
0.115746
0.122722
0.12568
0.129271
0.133793
0.139674
0.147484
0.157873
0.17133
0.187738
0.205877
0.223223
0.236311
0.241773
0.237914
0.226142
0.210198
0.194275
0.181606
0.17413
0.172829
0.178268
0.190959
0.211318
0.238256
0.266602
0.287222
0.294363
0.290228
0.283108
0.278539
0.277277
0.277629
0.277299
0.274638
0.268934
0.25918
0.243146
0.216736
0.173841
0.101094
0.114454
0.116483
0.119002
0.122278
0.126736
0.133017
0.142012
0.154721
0.171745
0.192377
0.213684
0.230435
0.236611
0.228324
0.208921
0.186382
0.16697
0.153556
0.146728
0.146312
0.152552
0.166836
0.192169
0.231801
0.282591
0.327066
0.343782
0.330303
0.305954
0.285636
0.273424
0.266605
0.261097
0.254285
0.245122
0.232546
0.214592
0.188713
0.151824
0.0835381
0.107515
0.108627
0.11001
0.111827
0.114356
0.11807
0.123788
0.132874
0.147337
0.169107
0.197235
0.22442
0.236213
0.221461
0.187313
0.157653
0.138233
0.127363
0.122489
0.122066
0.125946
0.135852
0.157233
0.202249
0.285211
0.394008
0.446218
0.420101
0.363719
0.311212
0.276031
0.256828
0.244675
0.233437
0.220895
0.206121
0.188243
0.166378
0.136182
0.0646552
0.102044
0.102358
0.102735
0.103211
0.10385
0.104761
0.10615
0.108457
0.112814
0.122779
0.14934
0.214618
0.230541
0.208325
0.139332
0.11801
0.110003
0.106617
0.105232
0.105041
0.105908
0.108287
0.114165
0.13196
0.200951
0.457024
0.541303
0.482394
0.401895
0.33296
0.278066
0.244915
0.227598
0.214233
0.200862
0.185474
0.169063
0.153326
0.133341
0.0878097
)
;

boundaryField
{
    leftWall
    {
        type            kqRWallFunction;
        value           nonuniform 0();
    }
    rightWall
    {
        type            kqRWallFunction;
        value           nonuniform List<scalar> 
43
(
0.162337
0.155307
0.149969
0.146134
0.143634
0.142306
0.14199
0.142524
0.143749
0.145513
0.147674
0.150094
0.152649
0.155226
0.157724
0.160056
0.162149
0.163944
0.165396
0.166478
0.167225
0.168093
0.169927
0.171698
0.173098
0.174056
0.174534
0.174499
0.173914
0.172743
0.17094
0.168438
0.165121
0.160784
0.155143
0.147869
0.138473
0.128025
0.115746
0.101094
0.0835381
0.0646552
0.0878097
)
;
    }
    lowerWall
    {
        type            kqRWallFunction;
        value           nonuniform 0();
    }
    atmosphere
    {
        type            inletOutlet;
        inletValue      uniform 0.1;
        value           nonuniform List<scalar> 
45
(
0.1
0.1
0.1
0.1
0.1
0.1
0.1
0.1
0.1
0.1
0.1
0.1
0.1
0.1
0.1
0.1
0.214618
0.230541
0.208325
0.1
0.1
0.1
0.1
0.1
0.1
0.1
0.1
0.1
0.1
0.1
0.457024
0.541303
0.482394
0.401895
0.33296
0.278066
0.244915
0.227598
0.214233
0.200862
0.185474
0.169063
0.153326
0.133341
0.1
)
;
    }
    defaultFaces
    {
        type            empty;
    }
    procBoundary3to1
    {
        type            processor;
        value           nonuniform List<scalar> 
45
(
0.378241
0.404538
0.430226
0.455377
0.479627
0.503973
0.527469
0.549803
0.571446
0.593706
0.615357
0.635834
0.657376
0.679484
0.702578
0.72701
0.752718
0.78012
0.809923
0.835758
0.853448
0.865238
0.864893
0.85412
0.83622
0.813333
0.787018
0.76046
0.736262
0.716383
0.702056
0.693029
0.688026
0.685324
0.682919
0.678463
0.669362
0.65354
0.629486
0.596706
0.554756
0.502259
0.435545
0.342523
0.171227
)
;
    }
    procBoundary3to2
    {
        type            processor;
        value           nonuniform List<scalar> 
43
(
0.330266
0.314704
0.303754
0.296261
0.291327
0.288277
0.286614
0.28597
0.286064
0.286671
0.287598
0.288674
0.289731
0.290613
0.291165
0.29124
0.290702
0.289427
0.287309
0.284264
0.280227
0.275161
0.269053
0.261916
0.253793
0.244752
0.234912
0.224456
0.213553
0.202381
0.191125
0.179969
0.16909
0.158648
0.148787
0.139626
0.131261
0.123764
0.117187
0.111568
0.106939
0.103327
0.100765
)
;
    }
}


// ************************************************************************* //
