/*--------------------------------*- C++ -*----------------------------------*\
| =========                 |                                                 |
| \\      /  F ield         | OpenFOAM: The Open Source CFD Toolbox           |
|  \\    /   O peration     | Version:  5.0                                   |
|   \\  /    A nd           | Web:      www.OpenFOAM.org                      |
|    \\/     M anipulation  |                                                 |
\*---------------------------------------------------------------------------*/
FoamFile
{
    version     2.0;
    format      ascii;
    class       volScalarField;
    location    "0.9";
    object      nut;
}
// * * * * * * * * * * * * * * * * * * * * * * * * * * * * * * * * * * * * * //

dimensions      [0 2 -1 0 0 0 0];

internalField   nonuniform List<scalar> 
1935
(
0.00946569
0.00963531
0.00980468
0.00995833
0.0100876
0.0101902
0.0102684
0.0103272
0.0103723
0.0104096
0.0104439
0.0104789
0.0105169
0.0105588
0.0106047
0.0106534
0.0107032
0.0107517
0.0107962
0.0108338
0.0108614
0.0108763
0.0108758
0.0108576
0.0108202
0.0107627
0.0106852
0.0105877
0.010471
0.0103372
0.0101892
0.0100307
0.00986626
0.00970124
0.00954162
0.00939386
0.00926458
0.00916001
0.00908492
0.00904093
0.0090242
0.00902304
0.00901721
0.00960795
0.0097738
0.00995945
0.010157
0.00975394
0.00989947
0.0100694
0.0102572
0.00990272
0.0100285
0.0101807
0.0103544
0.0100399
0.0101483
0.0102835
0.0104418
0.0101571
0.0102515
0.0103718
0.0105155
0.0102517
0.0103357
0.010444
0.0105752
0.0103253
0.0104023
0.0105017
0.0106227
0.0103822
0.0104551
0.0105481
0.0106612
0.0104276
0.0104984
0.0105873
0.0106943
0.0104665
0.0105369
0.0106232
0.0107256
0.0105034
0.0105743
0.0106592
0.0107583
0.0105415
0.0106136
0.0106979
0.0107945
0.0105829
0.0106568
0.0107412
0.0108361
0.0106286
0.0107047
0.0107897
0.0108835
0.0106784
0.0107572
0.0108433
0.0109368
0.0107314
0.0108131
0.010901
0.0109949
0.0107857
0.0108709
0.010961
0.0110561
0.010839
0.010928
0.011021
0.011118
0.0108885
0.0109816
0.011078
0.0111776
0.0109311
0.0110286
0.0111288
0.0112314
0.0109636
0.0110655
0.0111697
0.0112758
0.0109829
0.011089
0.0111971
0.0113068
0.0109861
0.0110958
0.0112073
0.0113204
0.0109706
0.0110829
0.0111971
0.0113127
0.0109342
0.0110478
0.0111634
0.0112805
0.0108757
0.0109887
0.0111038
0.0112205
0.0107947
0.0109045
0.0110168
0.0111307
0.0106912
0.0107953
0.0109017
0.0110096
0.0105654
0.0106605
0.0107579
0.0108565
0.0104189
0.0105013
0.0105856
0.0106706
0.0102544
0.0103202
0.010387
0.0104535
0.0100757
0.0101207
0.0101654
0.0102083
0.00988752
0.0099077
0.00992569
0.00993972
0.00969581
0.00968764
0.00967463
0.00965479
0.00950751
0.00946831
0.00942082
0.00936283
0.00933061
0.00925916
0.00917516
0.00907612
0.00917393
0.00907129
0.00895105
0.00881038
0.00904674
0.0089172
0.0087645
0.00858526
0.00895766
0.00880993
0.00863362
0.00842442
0.00891266
0.00876093
0.00857662
0.00835413
0.00891178
0.00877583
0.00860702
0.00839851
0.00894489
0.00884806
0.00872482
0.00856843
0.00898853
0.00895219
0.00890488
0.00884333
0.0103723
0.0106018
0.0108343
0.01107
0.0113109
0.0115548
0.0118011
0.0120545
0.0123122
0.0125699
0.0128228
0.013066
0.0132947
0.0135027
0.0136796
0.0138186
0.0139213
0.0139907
0.0140318
0.0140485
0.0140457
0.0140253
0.013989
0.0139363
0.0138631
0.0137621
0.0136237
0.0134378
0.0131941
0.0128816
0.0124868
0.011991
0.0113683
0.010589
0.00962114
0.00841125
0.00688439
0.00494882
0.00254688
0.000295472
0.0104688
0.0106995
0.0109358
0.0111767
0.0114208
0.0116655
0.0119104
0.0121574
0.0124046
0.0126482
0.0128837
0.0131068
0.0133121
0.0134942
0.0136478
0.0137697
0.0138615
0.0139275
0.0139714
0.0139947
0.0139992
0.0139888
0.0139637
0.013921
0.0138551
0.0137579
0.0136206
0.0134336
0.0131871
0.0128692
0.0124653
0.0119538
0.0113118
0.0105095
0.00951331
0.00827767
0.00673647
0.00481303
0.0024683
0.000288956
0.0105559
0.0107817
0.0110156
0.0112555
0.011499
0.0117429
0.011986
0.0122282
0.0124673
0.0126998
0.0129222
0.0131304
0.0133188
0.0134836
0.0136224
0.0137342
0.0138211
0.0138869
0.0139337
0.0139624
0.0139753
0.0139742
0.0139576
0.0139216
0.0138598
0.0137645
0.0136272
0.0134387
0.0131886
0.0128645
0.0124487
0.0119218
0.0112609
0.0104374
0.00941629
0.00815871
0.00660694
0.00469717
0.0024038
0.000283956
0.0106301
0.0108461
0.0110743
0.0113102
0.0115506
0.0117925
0.0120334
0.0122717
0.0125047
0.0127291
0.0129427
0.0131406
0.0133178
0.013472
0.0136023
0.0137091
0.0137944
0.0138609
0.013911
0.013946
0.0139668
0.0139732
0.0139628
0.0139312
0.0138721
0.0137779
0.0136405
0.0134503
0.0131965
0.0128645
0.0124373
0.0118961
0.0112179
0.0103749
0.00933372
0.00805846
0.0064999
0.00460417
0.00235418
0.000280374
0.0106901
0.0108945
0.011114
0.0113441
0.0115804
0.0118189
0.0120567
0.0122913
0.0125195
0.0127381
0.0129451
0.0131362
0.0133067
0.0134551
0.0135813
0.013686
0.0137715
0.0138408
0.0138957
0.013937
0.0139647
0.0139773
0.0139719
0.0139438
0.013887
0.0137942
0.0136568
0.0134652
0.0132071
0.0128675
0.0124306
0.0118771
0.0111843
0.0103252
0.00926812
0.00798045
0.00641856
0.00453577
0.00231955
0.000278102
0.010737
0.0109294
0.011139
0.0113614
0.0115918
0.011826
0.01206
0.0122905
0.0125141
0.012728
0.0129301
0.0131163
0.0132827
0.0134278
0.0135522
0.0136575
0.0137458
0.0138195
0.0138799
0.0139274
0.0139612
0.0139794
0.0139786
0.0139542
0.0139002
0.0138092
0.0136728
0.0134803
0.0132187
0.0128739
0.0124298
0.011867
0.0111628
0.0102911
0.00922304
0.0079278
0.00636497
0.00449251
0.00229939
0.000277006
0.0107732
0.0109542
0.0111534
0.0113668
0.0115897
0.0118175
0.0120462
0.0122716
0.0124903
0.0126998
0.012898
0.0130803
0.0132436
0.0133874
0.0135124
0.0136202
0.0137126
0.0137913
0.0138574
0.0139107
0.0139503
0.0139739
0.013978
0.0139579
0.0139076
0.0138198
0.0136856
0.0134934
0.0132311
0.0128842
0.0124361
0.0118672
0.0111554
0.0102754
0.00920189
0.00790242
0.00633967
0.00447363
0.00229263
0.000276928
0.0108021
0.0109725
0.0111613
0.0113648
0.0115787
0.0117986
0.0120202
0.0122394
0.0124524
0.012657
0.0128509
0.0130298
0.0131911
0.0133347
0.0134613
0.0135722
0.0136689
0.0137528
0.0138243
0.0138832
0.0139284
0.0139573
0.0139666
0.0139517
0.0139064
0.0138234
0.0136928
0.0135039
0.013244
0.0128983
0.0124497
0.0118784
0.0111635
0.0102816
0.00920564
0.00790435
0.00634153
0.00447725
0.00229782
0.0002777
0.0108272
0.0109879
0.0111664
0.0113595
0.0115633
0.0117739
0.011987
0.0121988
0.0124056
0.0126044
0.0127929
0.0129682
0.0131278
0.0132713
0.0133996
0.0135135
0.0136143
0.0137027
0.0137792
0.0138433
0.0138937
0.0139281
0.0139432
0.0139342
0.0138953
0.0138184
0.0136941
0.0135113
0.013257
0.0129156
0.0124705
0.0119023
0.0111897
0.010309
0.00923332
0.00793182
0.00636802
0.00450065
0.00231327
0.00027915
0.0108519
0.0110038
0.0111723
0.0113548
0.0115479
0.011748
0.0119515
0.0121548
0.0123543
0.0125466
0.0127293
0.0128999
0.013057
0.0132001
0.0133295
0.0134457
0.0135497
0.0136421
0.0137228
0.0137916
0.013847
0.0138869
0.013908
0.0139059
0.0138744
0.0138055
0.0136897
0.0135157
0.0132702
0.0129376
0.0125005
0.0119392
0.0112322
0.0103556
0.00928257
0.00798177
0.00641565
0.00454069
0.00233722
0.000281112
0.0108789
0.011023
0.0111821
0.0113541
0.0115362
0.0117253
0.0119183
0.0121118
0.0123029
0.0124881
0.0126644
0.0128299
0.0129835
0.0131249
0.0132542
0.0133717
0.013478
0.0135732
0.0136574
0.0137301
0.0137902
0.0138356
0.0138631
0.0138684
0.0138453
0.0137861
0.0136812
0.0135189
0.0132854
0.0129647
0.0125387
0.0119874
0.0112888
0.0104187
0.00934995
0.00805026
0.00648041
0.00459404
0.00236794
0.000283433
0.0109105
0.0110477
0.0111981
0.0113601
0.0115314
0.0117094
0.0118913
0.0120744
0.0122559
0.0124328
0.0126022
0.0127622
0.0129117
0.0130506
0.0131786
0.013296
0.013403
0.0134999
0.0135864
0.0136623
0.0137264
0.013777
0.013811
0.0138242
0.0138107
0.0137628
0.0136706
0.0135221
0.013303
0.0129965
0.0125839
0.0120447
0.0113566
0.0104948
0.00943133
0.00813287
0.00655807
0.0046574
0.00240379
0.000285971
0.0109483
0.0110794
0.0112221
0.0113748
0.0115358
0.0117029
0.0118739
0.0120462
0.0122175
0.0123852
0.0125469
0.0127006
0.0128454
0.0129807
0.0131064
0.0132225
0.0133291
0.0134263
0.0135142
0.0135924
0.0136599
0.0137153
0.0137557
0.0137772
0.0137739
0.0137381
0.0136597
0.0135262
0.0133227
0.0130317
0.012634
0.0121085
0.0114321
0.0105796
0.0095222
0.00822499
0.00664444
0.00472757
0.00244324
0.000288602
0.0109929
0.011119
0.0112549
0.0113994
0.0115509
0.0117079
0.0118683
0.01203
0.0121911
0.0123493
0.0125026
0.0126494
0.0127885
0.0129194
0.0130416
0.0131552
0.0132602
0.0133568
0.013445
0.0135245
0.0135948
0.0136544
0.0137009
0.0137305
0.0137374
0.0137138
0.0136494
0.0135312
0.0133437
0.0130689
0.0126867
0.0121754
0.0115115
0.010669
0.00961791
0.00832204
0.00673545
0.00480155
0.00248484
0.000291218
0.0110442
0.0111663
0.0112966
0.011434
0.0115773
0.0117251
0.0118757
0.0120275
0.0121787
0.0123276
0.0124724
0.0126117
0.0127444
0.0128699
0.0129877
0.0130978
0.0132002
0.013295
0.0133825
0.0134625
0.0135345
0.0135975
0.0136493
0.0136862
0.0137026
0.0136905
0.0136395
0.0135362
0.0133644
0.0131055
0.0127388
0.0122419
0.0115906
0.0107582
0.00971388
0.00841968
0.00682733
0.00487658
0.00252731
0.000293727
0.0111012
0.0112206
0.0113465
0.0114782
0.0116145
0.0117543
0.0118964
0.0120392
0.0121814
0.0123214
0.0124579
0.0125895
0.0127154
0.0128349
0.0129475
0.0130531
0.0131518
0.0132439
0.0133295
0.0134087
0.0134814
0.0135465
0.0136023
0.0136452
0.0136697
0.013668
0.0136292
0.0135396
0.0133825
0.0131386
0.0127868
0.0123039
0.0116651
0.0108431
0.00980576
0.00851383
0.00691661
0.00495016
0.00256948
0.000296055
0.0111623
0.0112801
0.011403
0.0115303
0.0116612
0.0117946
0.0119294
0.0120646
0.0121987
0.0123307
0.0124594
0.0125836
0.0127025
0.0128155
0.0129223
0.0130226
0.0131167
0.0132048
0.0132873
0.0133644
0.0134361
0.0135019
0.0135599
0.013607
0.0136379
0.0136446
0.0136162
0.0135386
0.0133947
0.0131648
0.0128268
0.0123574
0.0117309
0.0109192
0.00988947
0.00860077
0.00700016
0.00502006
0.00261028
0.000298141
0.011225
0.0113424
0.0114637
0.0115881
0.0117151
0.0118436
0.0119728
0.0121016
0.0122291
0.0123541
0.0124756
0.0125928
0.0127049
0.0128114
0.0129118
0.0130062
0.0130946
0.0131776
0.0132555
0.0133289
0.0133979
0.0134622
0.0135205
0.0135696
0.0136045
0.0136174
0.0135973
0.0135298
0.0133975
0.0131799
0.0128549
0.0123981
0.0117837
0.0109827
0.00996124
0.00867711
0.00707516
0.00508423
0.00264877
0.000299936
0.0112864
0.0114045
0.0115254
0.0116484
0.0117729
0.0118981
0.0120232
0.0121472
0.0122693
0.0123885
0.0125039
0.0126147
0.0127203
0.0128201
0.0129139
0.0130016
0.0130835
0.01316
0.0132319
0.0132997
0.013364
0.0134246
0.0134806
0.0135293
0.0135658
0.0135825
0.0135684
0.0135089
0.0133863
0.0131798
0.0128665
0.012422
0.0118196
0.0110296
0.0100175
0.00873972
0.007139
0.00514081
0.00268405
0.000301405
0.0113428
0.0114627
0.0115843
0.0117072
0.0118307
0.011954
0.0120764
0.012197
0.012315
0.0124295
0.0125397
0.0126448
0.0127442
0.0128374
0.0129242
0.0130046
0.0130788
0.0131476
0.0132117
0.013272
0.0133293
0.0133839
0.0134351
0.0134808
0.0135164
0.0135344
0.0135241
0.0134707
0.0133562
0.0131595
0.0128574
0.0124247
0.0118345
0.0110564
0.0100551
0.00878564
0.00718916
0.00518789
0.00271516
0.00030253
0.0113902
0.0115126
0.011636
0.0117599
0.0118835
0.0120062
0.0121271
0.0122455
0.0123606
0.0124714
0.0125771
0.012677
0.0127705
0.012857
0.0129363
0.0130085
0.013074
0.0131335
0.0131879
0.0132386
0.0132866
0.0133327
0.0133767
0.0134169
0.0134491
0.0134664
0.013458
0.0134092
0.0133016
0.013114
0.0128226
0.012402
0.0118246
0.0110596
0.0100706
0.00881197
0.00722297
0.00522317
0.00274066
0.000303349
0.0114245
0.0115499
0.0116756
0.0118011
0.0119257
0.0120486
0.012169
0.0122861
0.012399
0.0125067
0.0126084
0.0127034
0.0127908
0.0128702
0.0129414
0.0130044
0.0130597
0.0131082
0.0131511
0.01319
0.0132263
0.0132615
0.0132959
0.0133284
0.0133554
0.0133703
0.0133625
0.0133173
0.0132161
0.0130375
0.0127572
0.0123494
0.0117859
0.0110355
0.010061
0.00881562
0.00723729
0.00524317
0.00275719
0.000304305
0.0114414
0.0115696
0.0116978
0.0118253
0.0119511
0.0120747
0.0121949
0.012311
0.012422
0.0125268
0.0126244
0.0127141
0.0127949
0.0128664
0.0129283
0.0129806
0.013024
0.0130595
0.0130887
0.0131135
0.0131361
0.0131582
0.0131811
0.0132043
0.0132249
0.0132365
0.0132289
0.0131872
0.0130929
0.012924
0.0126559
0.0122622
0.0117145
0.0109807
0.010023
0.00879367
0.00722907
0.00524393
0.00275922
0.000306108
0.0114364
0.0115671
0.0116974
0.0118264
0.0119533
0.0120771
0.012197
0.0123117
0.0124202
0.0125214
0.0126142
0.0126975
0.0127705
0.0128324
0.0128831
0.0129228
0.012952
0.0129723
0.0129854
0.0129939
0.0130006
0.013008
0.0130182
0.0130315
0.0130454
0.0130541
0.0130473
0.0130103
0.0129243
0.012767
0.0125134
0.0121367
0.0116076
0.0108935
0.00995598
0.00874613
0.00719899
0.00522744
0.00275098
0.000307808
0.0114055
0.0115376
0.0116688
0.0117984
0.0119253
0.0120484
0.0121665
0.0122786
0.0123833
0.0124792
0.0125652
0.01264
0.0127027
0.0127525
0.0127893
0.0128134
0.0128257
0.0128279
0.0128225
0.0128127
0.012802
0.012794
0.0127915
0.0127954
0.0128038
0.0128112
0.0128075
0.0127781
0.0127039
0.0125619
0.0123266
0.0119705
0.0114637
0.0107731
0.00985931
0.00867286
0.0071477
0.00519544
0.00273491
0.00030916
0.0113452
0.0114767
0.011607
0.0117352
0.01186
0.0119803
0.0120945
0.0122014
0.0122995
0.0123872
0.0124631
0.0125259
0.0125745
0.0126084
0.0126274
0.012632
0.0126238
0.012605
0.012579
0.0125496
0.0125212
0.0124981
0.0124841
0.0124808
0.0124868
0.0124964
0.0125002
0.0124832
0.0124257
0.0123041
0.0120919
0.0117611
0.0112811
0.0106181
0.00973229
0.00857362
0.00707541
0.00514856
0.00271168
0.000310111
0.0112524
0.0113805
0.0115072
0.011631
0.0117506
0.0118646
0.0119713
0.0120691
0.0121562
0.012231
0.0122919
0.0123375
0.0123668
0.0123793
0.0123756
0.0123567
0.0123247
0.0122826
0.0122344
0.0121849
0.0121392
0.0121029
0.0120802
0.0120736
0.012082
0.0120998
0.0121173
0.0121191
0.0120847
0.0119897
0.0118067
0.0115066
0.0110584
0.0104276
0.00957428
0.00844798
0.0069819
0.00508678
0.00268135
0.000310629
0.011125
0.011246
0.011365
0.0114803
0.0115903
0.0116932
0.0117871
0.01187
0.0119402
0.0119956
0.0120347
0.0120564
0.0120601
0.0120458
0.0120145
0.011968
0.0119092
0.0118418
0.0117708
0.0117017
0.0116409
0.0115944
0.0115676
0.0115634
0.011581
0.0116143
0.0116532
0.0116816
0.0116781
0.0116169
0.0114696
0.0112062
0.0107949
0.0102011
0.00938464
0.0082953
0.00686662
0.00500969
0.00264371
0.000310684
0.0109615
0.0110708
0.0111771
0.0112783
0.0113726
0.0114579
0.011532
0.0115929
0.0116384
0.0116668
0.0116768
0.0116676
0.0116391
0.0115923
0.0115288
0.0114513
0.0113637
0.0112707
0.0111778
0.0110916
0.0110191
0.0109673
0.0109422
0.0109472
0.0109817
0.011039
0.0111079
0.0111715
0.0112068
0.0111868
0.0110817
0.0108606
0.010491
0.00993836
0.00916275
0.00811473
0.00672865
0.00491653
0.00259837
0.000310238
0.0107604
0.0108524
0.0109399
0.0110205
0.011092
0.0111521
0.0111984
0.0112288
0.0112413
0.0112345
0.0112076
0.0111605
0.0110942
0.0110104
0.010912
0.0108027
0.0106871
0.0105705
0.0104593
0.0103604
0.0102814
0.0102299
0.0102129
0.0102343
0.0102931
0.0103825
0.0104894
0.0105957
0.0106767
0.010704
0.0106465
0.010472
0.0101478
0.00963936
0.00890789
0.00790514
0.00656679
0.00480632
0.00254481
0.000309251
0.0105225
0.0105909
0.0106525
0.0107049
0.0107455
0.0107718
0.0107815
0.0107726
0.0107437
0.0106939
0.0106236
0.0105337
0.0104265
0.0103049
0.010173
0.0100351
0.00989624
0.00976214
0.00963906
0.00953399
0.00945464
0.00940956
0.00940642
0.00944963
0.00953838
0.00966561
0.00981599
0.00996973
0.0101004
0.0101781
0.0101706
0.0100447
0.00976718
0.00930455
0.00861937
0.0076652
0.00637955
0.0046778
0.00248238
0.000307669
0.0102505
0.0102881
0.0103163
0.0103322
0.0103332
0.0103168
0.0102811
0.0102247
0.0101472
0.0100491
0.00993214
0.00979892
0.00965302
0.00949859
0.00934016
0.00918243
0.00903005
0.00888791
0.00876186
0.00865837
0.00858526
0.0085519
0.00856672
0.00863473
0.00875558
0.00892242
0.00911773
0.00931964
0.00949977
0.00962633
0.00966604
0.00958585
0.00935316
0.00893546
0.00829713
0.00739393
0.00616553
0.0045296
0.00241024
0.000305427
0.00994901
0.00994856
0.00993519
0.00990609
0.00985877
0.0097913
0.00970261
0.00959276
0.00946301
0.00931588
0.00915495
0.00898451
0.0088092
0.00863365
0.00846201
0.0082979
0.00814462
0.0080056
0.00788602
0.00779194
0.00773114
0.00771333
0.00774765
0.00784054
0.00799256
0.00819661
0.00843314
0.00867854
0.00890236
0.00907116
0.00915083
0.00910862
0.00891386
0.00853661
0.00794335
0.00709173
0.00592391
0.00436034
0.00232733
0.000302421
0.00962509
0.00957935
0.00951667
0.00943451
0.00933108
0.00920571
0.00905917
0.00889384
0.00871359
0.00852342
0.00832877
0.00813495
0.00794655
0.00776705
0.00759853
0.0074423
0.00730011
0.00717409
0.0070682
0.00698846
0.00694283
0.00694173
0.00699619
0.00711375
0.00729461
0.00753041
0.00779978
0.00807808
0.00833408
0.00853351
0.00864203
0.00862762
0.00846153
0.00811658
0.00756285
0.00676078
0.00565469
0.00416865
0.00223225
0.000298476
0.00928881
0.0091913
0.00907234
0.00893019
0.0087646
0.00857723
0.00837192
0.00815453
0.00793229
0.00771265
0.00750198
0.00730472
0.00712314
0.00695738
0.00680626
0.00666856
0.00654401
0.00643405
0.00634233
0.00627545
0.0062434
0.00626015
0.00633798
0.00648195
0.00668963
0.0069504
0.00724329
0.00754045
0.00781257
0.00802682
0.00815014
0.00815183
0.00800441
0.0076829
0.00716099
0.00640348
0.00535827
0.00395355
0.00212371
0.000293295
0.00895385
0.00879954
0.00861883
0.00841157
0.00818015
0.00792997
0.00766943
0.00740901
0.00715952
0.00692997
0.00672534
0.006546
0.00638893
0.00624954
0.00612296
0.00600553
0.00589582
0.00579617
0.00571246
0.00565342
0.00563316
0.00566906
0.00577245
0.0059452
0.00618043
0.00646273
0.00676925
0.00707144
0.00734338
0.00755564
0.00767811
0.00768246
0.00754288
0.00723604
0.00673883
0.00602049
0.00503418
0.00371399
0.0020008
0.00028648
0.00863831
0.00842457
0.00817893
0.00790366
0.00760511
0.0072941
0.00698523
0.00669448
0.00643546
0.00621678
0.00603929
0.00589503
0.00577318
0.00566352
0.00555802
0.00545247
0.00534818
0.00525052
0.00516785
0.00511226
0.00510107
0.00515401
0.00528281
0.00548603
0.00575054
0.00605327
0.0063657
0.00666146
0.00691893
0.00711355
0.0072197
0.00721263
0.00706918
0.00676777
0.00628805
0.0056037
0.00467413
0.00344144
0.0018575
0.000277453
0.00836565
0.00809363
0.0077831
0.00743936
0.00707394
0.00670483
0.00635452
0.00604574
0.00579516
0.00560629
0.00546973
0.00536719
0.00527966
0.00519221
0.00509614
0.00499135
0.00488401
0.00478262
0.00469755
0.00464327
0.00463928
0.0047062
0.00485676
0.00508805
0.00538149
0.00570434
0.00601791
0.00629722
0.00652597
0.00668603
0.00675873
0.00672479
0.00656415
0.00625694
0.00578508
0.00512576
0.00424348
0.0030875
0.00162758
0.000266961
0.00816559
0.00784263
0.00747234
0.00706273
0.00663098
0.00620375
0.00581401
0.00549252
0.00525649
0.00510304
0.00501069
0.00494845
0.00488829
0.00481226
0.0047156
0.00460718
0.00449915
0.00439984
0.00431595
0.00426037
0.00425615
0.00432945
0.00449606
0.00475157
0.0050718
0.0054146
0.00572494
0.00597591
0.00615676
0.00625984
0.00627818
0.00620006
0.00600828
0.0056835
0.00520801
0.0045629
0.00372072
0.00264652
0.00135877
0.000254103
0.00807397
0.00771811
0.00730284
0.0068363
0.0063392
0.00584642
0.00540286
0.00505129
0.00481519
0.0046877
0.0046345
0.00460878
0.00457009
0.0044977
0.00439805
0.00429812
0.00421617
0.00414898
0.00408341
0.00402155
0.00399367
0.00404299
0.00420025
0.00446857
0.00481864
0.00519325
0.00550382
0.00572003
0.00583253
0.00584772
0.00577978
0.00563229
0.00539067
0.00503377
0.00454509
0.00390925
0.00311153
0.00214723
0.00109548
0.000237824
0.00812916
0.00777688
0.00735164
0.00685542
0.00630414
0.00573325
0.00519802
0.00476168
0.00447084
0.00433103
0.00430067
0.00431122
0.00429379
0.00422326
0.00412841
0.00408208
0.0041033
0.00414729
0.0041465
0.00407358
0.0039691
0.00391127
0.00397384
0.004204
0.00459448
0.00504958
0.00539684
0.00558189
0.00560081
0.00548331
0.00528
0.00502457
0.00470927
0.00430925
0.00380612
0.00319008
0.00246365
0.00166072
0.000879777
0.000216619
0.00835986
0.00807623
0.00771653
0.00727002
0.00673334
0.0061187
0.00546382
0.00483853
0.00433652
0.004041
0.00396975
0.00404268
0.00406062
0.00397548
0.00390987
0.00406984
0.00439673
0.0047161
0.00487097
0.0048068
0.00456629
0.0042432
0.00395992
0.00389898
0.00424981
0.00495883
0.00550446
0.00568389
0.0055576
0.00522728
0.00481053
0.00440028
0.00399661
0.0035587
0.00305863
0.00249131
0.00187881
0.00127443
0.000731173
0.000190985
0.0087587
0.0086391
0.00847942
0.00826704
0.00798605
0.00761648
0.00713225
0.00649551
0.005652
0.0045962
0.00370078
0.00378528
0.00387263
0.00377153
0.00418074
0.00532189
0.00624767
0.00680039
0.0070376
0.00702299
0.00678702
0.00630217
0.00545307
0.00419362
0.00336757
0.00477426
0.00559038
0.0057365
0.00550089
0.00502335
0.00441723
0.00385117
0.00337848
0.00293256
0.00246946
0.00197282
0.00147223
0.00101831
0.000622068
0.000222965
)
;

boundaryField
{
    leftWall
    {
        type            nutkWallFunction;
        Cmu             0.09;
        kappa           0.41;
        E               9.8;
        value           nonuniform 0();
    }
    rightWall
    {
        type            nutkWallFunction;
        Cmu             0.09;
        kappa           0.41;
        E               9.8;
        value           nonuniform List<scalar> 
43
(
3.41403e-05
3.32405e-05
3.25419e-05
3.20313e-05
3.16943e-05
3.1514e-05
3.14709e-05
3.15435e-05
3.17098e-05
3.19479e-05
3.22372e-05
3.25584e-05
3.28945e-05
3.32301e-05
3.35525e-05
3.38508e-05
3.41166e-05
3.43429e-05
3.45248e-05
3.46599e-05
3.47529e-05
3.48607e-05
3.50872e-05
3.53048e-05
3.54758e-05
3.55924e-05
3.56505e-05
3.56463e-05
3.55752e-05
3.54325e-05
3.52118e-05
3.49035e-05
3.44905e-05
3.39436e-05
3.32194e-05
3.22633e-05
3.09882e-05
2.95112e-05
2.7685e-05
2.53562e-05
2.22972e-05
1.87061e-05
2.3077e-05
)
;
    }
    lowerWall
    {
        type            nutkWallFunction;
        Cmu             0.09;
        kappa           0.41;
        E               9.8;
        value           nonuniform 0();
    }
    atmosphere
    {
        type            calculated;
        value           nonuniform List<scalar> 
45
(
0.009
0.009
0.009
0.009
0.009
0.009
0.009
0.009
0.009
0.009
0.009
0.009
0.009
0.009
0.009
0.009
0.00378528
0.00387263
0.00377153
0.009
0.009
0.009
0.009
0.009
0.009
0.009
0.009
0.009
0.009
0.009
0.00477426
0.00559038
0.0057365
0.00550089
0.00502335
0.00441723
0.00385117
0.00337848
0.00293256
0.00246946
0.00197282
0.00147223
0.00101831
0.000622068
0.009
)
;
    }
    defaultFaces
    {
        type            empty;
    }
    procBoundary3to1
    {
        type            processor;
        value           nonuniform List<scalar> 
45
(
0.0093158
0.00948231
0.00966594
0.00986183
0.0100613
0.0102721
0.0104911
0.0107091
0.0109302
0.0111621
0.0114022
0.0116484
0.0119095
0.0121788
0.0124511
0.012722
0.0129871
0.013243
0.0134866
0.0136992
0.0138674
0.0139957
0.0140771
0.0141177
0.0141286
0.0141171
0.0140873
0.0140392
0.0139736
0.013889
0.0137804
0.0136384
0.0134514
0.0132085
0.0128992
0.0125113
0.0120287
0.0114251
0.0106722
0.009735
0.00855386
0.00704505
0.00509995
0.00263758
0.000303564
)
;
    }
    procBoundary3to2
    {
        type            processor;
        value           nonuniform List<scalar> 
43
(
0.00935729
0.00955187
0.00974059
0.009908
0.0100461
0.0101533
0.0102329
0.0102906
0.010333
0.0103664
0.0103962
0.0104262
0.0104591
0.0104958
0.0105363
0.0105795
0.0106236
0.0106664
0.0107051
0.0107371
0.0107594
0.0107696
0.0107653
0.0107446
0.0107065
0.0106504
0.0105767
0.0104855
0.0103784
0.0102574
0.0101257
0.00998675
0.0098449
0.00970478
0.00957134
0.00944951
0.00934379
0.0092577
0.00919283
0.00914751
0.0091155
0.00908498
0.00903944
)
;
    }
}


// ************************************************************************* //
