/*--------------------------------*- C++ -*----------------------------------*\
| =========                 |                                                 |
| \\      /  F ield         | OpenFOAM: The Open Source CFD Toolbox           |
|  \\    /   O peration     | Version:  5.0                                   |
|   \\  /    A nd           | Web:      www.OpenFOAM.org                      |
|    \\/     M anipulation  |                                                 |
\*---------------------------------------------------------------------------*/
FoamFile
{
    version     2.0;
    format      ascii;
    class       volScalarField;
    location    "0.9";
    object      p;
}
// * * * * * * * * * * * * * * * * * * * * * * * * * * * * * * * * * * * * * //

dimensions      [1 -1 -2 0 0 0 0];

internalField   nonuniform List<scalar> 
1935
(
-2.52504
-2.59821
-2.66909
-2.73846
-2.80678
-2.87432
-2.94131
-3.008
-3.07456
-3.14112
-3.20776
-3.27452
-3.34148
-3.40871
-3.47632
-3.54436
-3.61288
-3.68198
-3.75172
-3.8222
-3.89349
-3.96563
-4.03864
-4.11254
-4.18734
-4.26307
-4.33973
-4.41736
-4.49594
-4.57546
-4.6559
-4.73723
-4.81944
-4.90253
-4.98648
-5.07128
-5.15693
-5.24341
-5.33073
-5.41891
-5.50799
-5.59802
-5.68831
-2.55725
-2.59303
-2.63299
-2.67701
-2.62789
-2.66027
-2.69602
-2.73482
-2.69625
-2.72539
-2.75717
-2.7913
-2.76314
-2.78921
-2.81728
-2.84712
-2.82909
-2.85235
-2.8771
-2.90312
-2.89445
-2.91524
-2.93709
-2.95979
-2.9595
-2.97813
-2.99749
-3.01736
-3.02446
-3.04121
-3.05844
-3.07592
-3.08951
-3.1046
-3.11998
-3.13545
-3.15475
-3.16836
-3.18213
-3.19588
-3.2202
-3.23249
-3.24484
-3.2571
-3.28585
-3.29696
-3.30806
-3.31902
-3.35175
-3.36179
-3.37176
-3.38156
-3.41798
-3.42702
-3.43595
-3.44471
-3.48463
-3.49272
-3.5007
-3.50847
-3.55176
-3.55895
-3.56603
-3.57291
-3.61942
-3.62576
-3.632
-3.63805
-3.68767
-3.6932
-3.69866
-3.70396
-3.75662
-3.76138
-3.7661
-3.77068
-3.82637
-3.83038
-3.83439
-3.83827
-3.89699
-3.90032
-3.90363
-3.90683
-3.96856
-3.97129
-3.97393
-3.97647
-4.04111
-4.04332
-4.04538
-4.04732
-4.11464
-4.11643
-4.11801
-4.11944
-4.18912
-4.19057
-4.19179
-4.19285
-4.26455
-4.26574
-4.2667
-4.26753
-4.34096
-4.34192
-4.34273
-4.34342
-4.41837
-4.41916
-4.41984
-4.42044
-4.49678
-4.49743
-4.49801
-4.49851
-4.57619
-4.57673
-4.5772
-4.5776
-4.65656
-4.65702
-4.65739
-4.65768
-4.73785
-4.73826
-4.73856
-4.73879
-4.82003
-4.82042
-4.8207
-4.82094
-4.9031
-4.90348
-4.9038
-4.90414
-4.98704
-4.98746
-4.98787
-4.98835
-5.07186
-5.07235
-5.0729
-5.07356
-5.15756
-5.15816
-5.15886
-5.1597
-5.24412
-5.24486
-5.24571
-5.24669
-5.33154
-5.3324
-5.33336
-5.33442
-5.41976
-5.42069
-5.42169
-5.42272
-5.50878
-5.50966
-5.51057
-5.51148
-5.59862
-5.59929
-5.59997
-5.60063
-5.68853
-5.68878
-5.68904
-5.68929
-2.72749
-2.78339
-2.84651
-2.91266
-2.99069
-3.04572
-3.05837
-3.0907
-3.12269
-3.14577
-3.16795
-3.17946
-3.1551
-3.11335
-3.10351
-3.06095
-3.0055
-2.96051
-2.92124
-2.84707
-2.76449
-2.68614
-2.59777
-2.50022
-2.40138
-2.30531
-2.21618
-2.1378
-2.07069
-2.01321
-1.96507
-1.92713
-1.89901
-1.87839
-1.85963
-1.84033
-1.81962
-1.79985
-1.77871
-1.76131
-2.77849
-2.82688
-2.87962
-2.93565
-2.99635
-3.04829
-3.08442
-3.12046
-3.15154
-3.18264
-3.206
-3.19581
-3.16426
-3.13208
-3.10684
-3.0648
-3.02025
-2.98144
-2.94333
-2.88397
-2.8079
-2.73192
-2.65167
-2.56869
-2.4842
-2.39985
-2.32054
-2.25054
-2.1908
-2.13931
-2.09508
-2.05687
-2.02421
-1.99604
-1.96722
-1.94055
-1.92137
-1.90387
-1.88596
-1.87156
-2.82927
-2.87091
-2.91475
-2.9601
-3.00647
-3.04824
-3.08203
-3.11145
-3.14068
-3.17445
-3.19102
-3.17329
-3.14757
-3.12739
-3.10405
-3.07064
-3.03419
-2.99721
-2.95621
-2.90335
-2.84014
-2.77393
-2.70562
-2.63622
-2.56484
-2.49326
-2.42614
-2.36501
-2.31026
-2.26119
-2.2161
-2.17355
-2.13478
-2.10057
-2.06853
-2.04305
-2.02506
-2.00855
-1.99278
-1.98046
-2.87999
-2.9157
-2.95255
-2.9899
-3.0268
-3.06045
-3.08853
-3.11228
-3.14146
-3.17093
-3.18119
-3.1629
-3.14556
-3.13206
-3.11231
-3.08506
-3.05356
-3.01854
-2.97867
-2.93144
-2.87763
-2.82014
-2.76033
-2.69935
-2.63858
-2.57745
-2.51703
-2.46006
-2.40811
-2.36042
-2.31584
-2.27399
-2.23504
-2.19915
-2.1693
-2.14742
-2.12914
-2.11275
-2.09824
-2.08722
-2.93147
-2.96196
-2.99302
-3.02409
-3.05431
-3.08203
-3.1055
-3.12576
-3.15441
-3.1809
-3.18459
-3.16746
-3.15502
-3.14516
-3.1286
-3.10581
-3.07841
-3.04668
-3.01024
-2.96834
-2.92148
-2.87095
-2.81771
-2.76259
-2.70673
-2.65136
-2.59718
-2.54481
-2.49525
-2.44958
-2.40768
-2.36927
-2.33334
-2.3004
-2.27365
-2.25134
-2.23217
-2.21559
-2.20163
-2.19122
-2.98424
-3.01027
-3.03648
-3.06246
-3.08749
-3.11044
-3.12995
-3.14754
-3.17425
-3.1987
-3.19859
-3.18229
-3.17275
-3.16539
-3.15183
-3.13278
-3.10919
-3.08121
-3.0488
-3.01188
-2.97083
-2.92635
-2.87918
-2.83004
-2.77958
-2.72886
-2.67912
-2.63137
-2.58644
-2.54437
-2.50501
-2.46834
-2.43411
-2.40329
-2.37649
-2.35334
-2.33345
-2.31642
-2.3024
-2.29198
-3.03853
-3.06082
-3.08306
-3.10491
-3.12578
-3.14466
-3.16033
-3.17607
-3.2001
-3.22245
-3.22157
-3.20686
-3.19933
-3.19334
-3.18216
-3.16621
-3.14604
-3.12173
-3.09333
-3.06095
-3.02493
-2.98574
-2.94399
-2.90038
-2.85558
-2.81035
-2.76554
-2.72195
-2.68014
-2.64033
-2.60261
-2.56711
-2.53402
-2.50383
-2.47683
-2.45308
-2.43245
-2.41471
-2.40008
-2.38913
-3.09435
-3.11357
-3.13261
-3.15119
-3.16884
-3.18461
-3.19737
-3.21146
-3.23369
-3.25297
-3.25186
-3.23898
-3.23338
-3.22837
-3.21904
-3.20565
-3.18848
-3.1675
-3.14277
-3.11443
-3.08274
-3.0481
-3.01103
-2.97214
-2.93205
-2.89136
-2.85064
-2.81049
-2.77139
-2.73369
-2.69763
-2.6634
-2.63127
-2.60155
-2.5745
-2.55024
-2.52878
-2.51005
-2.49437
-2.48243
-3.15161
-3.16833
-3.1848
-3.20084
-3.21612
-3.22996
-3.24142
-3.25329
-3.27377
-3.28967
-3.28935
-3.27827
-3.27344
-3.26927
-3.26145
-3.25019
-3.23559
-3.21753
-3.19601
-3.17114
-3.14316
-3.11241
-3.07932
-3.04441
-3.00819
-2.97113
-2.93373
-2.89646
-2.85979
-2.82412
-2.78973
-2.75682
-2.72556
-2.69628
-2.6692
-2.64447
-2.62214
-2.60222
-2.58505
-2.57172
-3.21014
-3.22481
-3.23921
-3.25323
-3.2667
-3.27926
-3.29025
-3.30038
-3.31653
-3.33199
-3.33442
-3.32565
-3.31973
-3.31542
-3.30847
-3.29878
-3.2863
-3.27076
-3.25198
-3.23008
-3.20526
-3.17782
-3.14809
-3.11649
-3.08346
-3.0494
-3.01476
-2.97998
-2.9455
-2.91169
-2.87886
-2.84722
-2.81687
-2.78799
-2.76087
-2.73562
-2.7124
-2.69107
-2.67205
-2.65693
-3.26976
-3.28271
-3.29538
-3.30774
-3.31969
-3.33114
-3.34182
-3.35183
-3.36359
-3.37786
-3.38213
-3.37655
-3.37037
-3.36547
-3.35908
-3.35049
-3.33962
-3.32613
-3.30972
-3.29038
-3.26827
-3.24363
-3.21673
-3.18792
-3.15757
-3.12604
-3.09378
-3.06119
-3.02869
-2.9966
-2.96518
-2.93464
-2.90511
-2.87665
-2.84946
-2.82369
-2.79949
-2.77656
-2.75532
-2.73807
-3.33029
-3.34176
-3.35296
-3.36386
-3.37442
-3.38468
-3.39457
-3.40407
-3.4138
-3.4237
-3.42767
-3.42533
-3.42133
-3.41718
-3.41165
-3.40418
-3.39465
-3.38281
-3.36839
-3.35125
-3.33148
-3.30923
-3.28477
-3.25836
-3.23033
-3.20105
-3.17091
-3.14031
-3.10958
-3.07903
-3.04887
-3.01927
-2.99037
-2.96224
-2.93495
-2.90868
-2.8834
-2.85869
-2.83493
-2.81527
-3.3916
-3.40179
-3.41169
-3.42129
-3.43057
-3.43956
-3.44828
-3.45663
-3.46453
-3.47143
-3.47479
-3.47449
-3.4725
-3.46948
-3.46505
-3.45882
-3.4506
-3.44018
-3.42739
-3.41211
-3.39434
-3.37419
-3.35188
-3.32762
-3.30169
-3.27445
-3.24623
-3.2174
-3.18826
-3.15906
-3.12999
-3.10121
-3.07283
-3.0449
-3.0175
-2.99065
-2.96421
-2.93757
-2.91105
-2.88877
-3.45364
-3.46268
-3.47143
-3.47987
-3.48798
-3.49579
-3.5033
-3.51039
-3.51684
-3.52211
-3.52517
-3.5259
-3.52503
-3.52284
-3.5193
-3.51413
-3.50705
-3.49784
-3.48643
-3.47272
-3.45669
-3.43839
-3.41799
-3.39568
-3.37167
-3.34628
-3.31981
-3.29257
-3.26483
-3.23681
-3.20869
-3.18061
-3.15265
-3.12487
-3.09726
-3.06978
-3.04213
-3.01347
-2.98403
-2.959
-3.51639
-3.52437
-3.53207
-3.53948
-3.54656
-3.55332
-3.55974
-3.56572
-3.57106
-3.5754
-3.57821
-3.57942
-3.5792
-3.57766
-3.57475
-3.57027
-3.56403
-3.55585
-3.54562
-3.53326
-3.51873
-3.50206
-3.48336
-3.46279
-3.44051
-3.41678
-3.39187
-3.36604
-3.33953
-3.31255
-3.28525
-3.25777
-3.23017
-3.20246
-3.17459
-3.14643
-3.11754
-3.08681
-3.05439
-3.02657
-3.57987
-3.58686
-3.59358
-3.60004
-3.60622
-3.61207
-3.61756
-3.6226
-3.62707
-3.63074
-3.63336
-3.63477
-3.63495
-3.63391
-3.63153
-3.62763
-3.62205
-3.61468
-3.6054
-3.59418
-3.58093
-3.56565
-3.54845
-3.5294
-3.50865
-3.48639
-3.46286
-3.43827
-3.41284
-3.38676
-3.36017
-3.33319
-3.30587
-3.27818
-3.25002
-3.22116
-3.19103
-3.15824
-3.12284
-3.09226
-3.64414
-3.6502
-3.65599
-3.66157
-3.66691
-3.67195
-3.67664
-3.68091
-3.68468
-3.68782
-3.6902
-3.69168
-3.69213
-3.69146
-3.68954
-3.68618
-3.68125
-3.67459
-3.66614
-3.65588
-3.64372
-3.62966
-3.61374
-3.59603
-3.57662
-3.55566
-3.53334
-3.50984
-3.48536
-3.46007
-3.43411
-3.40756
-3.38046
-3.35275
-3.32426
-3.29471
-3.26337
-3.22858
-3.19027
-3.15702
-3.70924
-3.71445
-3.71939
-3.72414
-3.72869
-3.73299
-3.73695
-3.74053
-3.74369
-3.74638
-3.7485
-3.74993
-3.75055
-3.75019
-3.74868
-3.74583
-3.7415
-3.73556
-3.72793
-3.71855
-3.70737
-3.6944
-3.67964
-3.66312
-3.6449
-3.6251
-3.60387
-3.58136
-3.55776
-3.5332
-3.50781
-3.48166
-3.45476
-3.42701
-3.3982
-3.36797
-3.33548
-3.29878
-3.25768
-3.2219
-3.77523
-3.77968
-3.78386
-3.78787
-3.79169
-3.79527
-3.79856
-3.8015
-3.80411
-3.80637
-3.80823
-3.80956
-3.81025
-3.8101
-3.80894
-3.80658
-3.80284
-3.7976
-3.79077
-3.78226
-3.77204
-3.7601
-3.74644
-3.73104
-3.71395
-3.69524
-3.67505
-3.65351
-3.63075
-3.60692
-3.58212
-3.55638
-3.52969
-3.50191
-3.4728
-3.44194
-3.40838
-3.3699
-3.32616
-3.28803
-3.84214
-3.84592
-3.84946
-3.85283
-3.85601
-3.85896
-3.86163
-3.86402
-3.86613
-3.868
-3.86959
-3.87081
-3.87152
-3.87154
-3.87066
-3.86871
-3.86552
-3.86095
-3.85489
-3.84727
-3.83802
-3.82713
-3.81456
-3.80028
-3.78431
-3.76671
-3.74758
-3.72703
-3.70517
-3.68212
-3.65794
-3.63266
-3.60621
-3.57844
-3.54907
-3.51765
-3.48311
-3.44298
-3.39683
-3.35656
-3.91004
-3.91322
-3.91623
-3.91908
-3.92173
-3.92415
-3.92632
-3.92824
-3.92997
-3.93153
-3.93292
-3.93405
-3.93478
-3.93493
-3.93431
-3.93274
-3.93005
-3.92611
-3.92082
-3.91409
-3.90585
-3.89603
-3.88458
-3.87147
-3.85668
-3.84025
-3.82225
-3.80277
-3.78189
-3.75968
-3.7362
-3.71143
-3.68529
-3.65758
-3.62801
-3.59609
-3.56068
-3.51907
-3.47077
-3.42862
-3.97906
-3.98169
-3.98422
-3.98662
-3.98884
-3.99084
-3.99262
-3.99423
-3.99571
-3.9971
-3.99839
-3.9995
-4.00029
-4.00059
-4.00022
-3.99902
-3.99685
-3.99356
-3.98907
-3.98327
-3.97607
-3.9674
-3.95717
-3.94531
-3.9318
-3.91664
-3.89988
-3.88156
-3.86174
-3.84047
-3.81776
-3.79356
-3.76778
-3.74019
-3.71049
-3.67817
-3.64202
-3.59915
-3.54903
-3.5052
-4.04932
-4.05143
-4.0535
-4.05547
-4.05729
-4.05893
-4.06043
-4.06183
-4.06321
-4.06457
-4.06589
-4.06708
-4.068
-4.06852
-4.06845
-4.06768
-4.06607
-4.0635
-4.05989
-4.05512
-4.04909
-4.04169
-4.03281
-4.02236
-4.01027
-3.99652
-3.9811
-3.96405
-3.94539
-3.92514
-3.90327
-3.87972
-3.85437
-3.827
-3.79729
-3.7647
-3.72797
-3.68411
-3.63256
-3.58724
-4.12094
-4.12257
-4.12417
-4.1257
-4.12711
-4.12842
-4.12967
-4.13095
-4.13229
-4.1337
-4.13513
-4.13647
-4.13761
-4.13841
-4.13873
-4.13847
-4.13753
-4.13581
-4.13322
-4.12964
-4.12495
-4.11901
-4.11168
-4.10284
-4.09236
-4.08019
-4.06629
-4.05065
-4.03326
-4.01411
-3.99318
-3.97038
-3.94558
-3.91855
-3.88897
-3.85628
-3.81919
-3.77465
-3.72208
-3.67557
-4.19397
-4.19518
-4.19634
-4.19743
-4.19843
-4.1994
-4.20043
-4.20159
-4.20291
-4.20438
-4.20591
-4.20743
-4.20879
-4.20991
-4.21068
-4.21101
-4.21085
-4.21012
-4.20871
-4.20651
-4.20337
-4.19914
-4.19363
-4.18666
-4.17807
-4.16772
-4.15554
-4.14149
-4.12554
-4.10764
-4.08777
-4.06586
-4.04176
-4.01525
-3.98599
-3.95343
-3.91624
-3.87136
-3.81822
-3.77091
-4.26838
-4.26927
-4.27006
-4.27076
-4.2714
-4.27208
-4.27291
-4.27394
-4.27521
-4.27667
-4.27824
-4.27985
-4.28138
-4.28278
-4.28399
-4.28496
-4.28564
-4.28599
-4.28591
-4.28527
-4.28392
-4.28167
-4.27831
-4.27358
-4.26721
-4.25901
-4.24885
-4.23666
-4.22236
-4.20591
-4.18729
-4.16645
-4.14325
-4.11747
-4.08878
-4.0566
-4.01961
-3.97479
-3.92157
-3.87387
-4.3441
-4.34476
-4.34528
-4.3457
-4.3461
-4.34659
-4.34727
-4.34819
-4.34935
-4.35072
-4.35222
-4.35379
-4.35538
-4.35697
-4.35854
-4.36009
-4.36162
-4.36309
-4.36443
-4.36551
-4.36616
-4.3662
-4.3654
-4.36338
-4.35969
-4.35406
-4.34631
-4.33632
-4.32397
-4.30919
-4.29202
-4.27246
-4.25038
-4.22557
-4.19769
-4.16617
-4.12971
-4.08535
-4.03255
-3.98486
-4.421
-4.42151
-4.42188
-4.42217
-4.42247
-4.42289
-4.4235
-4.42434
-4.42537
-4.42657
-4.42788
-4.42929
-4.4308
-4.43244
-4.43426
-4.43631
-4.43864
-4.44123
-4.44405
-4.44695
-4.44975
-4.45238
-4.45467
-4.45601
-4.45561
-4.45306
-4.4482
-4.44088
-4.43085
-4.41793
-4.40231
-4.38421
-4.36347
-4.33985
-4.313
-4.28241
-4.24679
-4.20328
-4.15138
-4.10413
-4.49898
-4.49939
-4.4997
-4.49998
-4.50032
-4.50079
-4.50141
-4.50218
-4.50307
-4.50405
-4.50511
-4.50627
-4.50758
-4.50917
-4.51114
-4.51361
-4.51666
-4.52033
-4.52462
-4.52932
-4.53423
-4.53969
-4.54583
-4.55156
-4.55524
-4.55636
-4.55501
-4.55108
-4.54382
-4.53268
-4.51846
-4.50197
-4.48274
-4.46045
-4.43482
-4.40537
-4.37086
-4.32857
-4.27806
-4.23165
-4.57796
-4.57832
-4.57865
-4.57901
-4.57947
-4.58005
-4.58072
-4.58145
-4.5822
-4.58295
-4.58371
-4.58456
-4.58564
-4.58711
-4.58917
-4.59198
-4.59562
-4.60022
-4.60599
-4.61247
-4.61944
-4.62821
-4.63932
-4.65078
-4.65938
-4.66433
-4.66684
-4.66709
-4.66182
-4.65148
-4.63944
-4.62517
-4.60795
-4.58723
-4.56295
-4.53479
-4.50164
-4.46092
-4.41224
-4.36709
-4.65798
-4.65832
-4.65872
-4.65922
-4.65983
-4.66052
-4.66125
-4.66195
-4.66257
-4.66309
-4.66357
-4.66412
-4.66494
-4.66628
-4.66836
-4.67139
-4.67547
-4.68118
-4.68938
-4.69871
-4.70866
-4.72169
-4.7382
-4.75588
-4.77037
-4.77958
-4.78507
-4.78711
-4.78619
-4.77945
-4.76658
-4.7529
-4.73825
-4.71939
-4.69667
-4.66999
-4.63841
-4.59959
-4.55319
-4.5097
-4.73907
-4.73946
-4.73998
-4.74063
-4.7414
-4.74222
-4.743
-4.74368
-4.74418
-4.74453
-4.74477
-4.74508
-4.74566
-4.74677
-4.74886
-4.75266
-4.75848
-4.76743
-4.78075
-4.79447
-4.80754
-4.82332
-4.84411
-4.86593
-4.8895
-4.90869
-4.92224
-4.92858
-4.92976
-4.9257
-4.91296
-4.89461
-4.87477
-4.85594
-4.83448
-4.80955
-4.77988
-4.74332
-4.69964
-4.65823
-4.82128
-4.8218
-4.82248
-4.82331
-4.82424
-4.82519
-4.82606
-4.82676
-4.82725
-4.82752
-4.82767
-4.82778
-4.82807
-4.82915
-4.83241
-4.84031
-4.85293
-4.86636
-4.88156
-4.89656
-4.91077
-4.92779
-4.95197
-4.98184
-5.01573
-5.04811
-5.0728
-5.08655
-5.09163
-5.08852
-5.07599
-5.0544
-5.02735
-4.9985
-4.97408
-4.95076
-4.92375
-4.89002
-4.84959
-4.81067
-4.90461
-4.90532
-4.9062
-4.90724
-4.90837
-4.90949
-4.91052
-4.91138
-4.91203
-4.91247
-4.91269
-4.91274
-4.91321
-4.91642
-4.92552
-4.9399
-4.95656
-4.97101
-4.98162
-4.992
-5.00689
-5.03342
-5.06948
-5.10981
-5.15303
-5.1902
-5.21942
-5.23703
-5.2451
-5.24421
-5.23508
-5.21736
-5.18945
-5.15301
-5.117
-5.09079
-5.06663
-5.03646
-4.99991
-4.96397
-4.98903
-4.98995
-4.99107
-4.99234
-4.9937
-4.99508
-4.99641
-4.99765
-4.99876
-4.99969
-5.00031
-5.00091
-5.00401
-5.01383
-5.02905
-5.04434
-5.05688
-5.06785
-5.07832
-5.09084
-5.11376
-5.1532
-5.2035
-5.25498
-5.3021
-5.34312
-5.37197
-5.38665
-5.39166
-5.38926
-5.37996
-5.36549
-5.34443
-5.30778
-5.26513
-5.2327
-5.20648
-5.17869
-5.14616
-5.11332
-5.07444
-5.07559
-5.07693
-5.07844
-5.08008
-5.08182
-5.08364
-5.08554
-5.08749
-5.08933
-5.09095
-5.09391
-5.10237
-5.11814
-5.13274
-5.14218
-5.15191
-5.16626
-5.18486
-5.20677
-5.23611
-5.28035
-5.33291
-5.38828
-5.44409
-5.49217
-5.51874
-5.52983
-5.53245
-5.52812
-5.51692
-5.50026
-5.4802
-5.44968
-5.40716
-5.36912
-5.33867
-5.31151
-5.28243
-5.25134
-5.16076
-5.16209
-5.16362
-5.16535
-5.16729
-5.16947
-5.17196
-5.1748
-5.17795
-5.18124
-5.18517
-5.19248
-5.20509
-5.21954
-5.22796
-5.23602
-5.24996
-5.26933
-5.29401
-5.32381
-5.35615
-5.39446
-5.4462
-5.50619
-5.56816
-5.6171
-5.64532
-5.65883
-5.66332
-5.65912
-5.64653
-5.62719
-5.60446
-5.57616
-5.53385
-5.489
-5.45517
-5.42772
-5.40209
-5.36554
-5.24787
-5.2493
-5.25094
-5.25283
-5.25505
-5.25771
-5.26094
-5.26487
-5.26948
-5.27478
-5.2821
-5.29325
-5.30626
-5.31752
-5.32337
-5.33419
-5.34943
-5.36909
-5.39424
-5.42503
-5.45914
-5.49861
-5.5481
-5.61006
-5.67332
-5.72054
-5.75391
-5.77523
-5.78482
-5.78223
-5.76845
-5.74604
-5.71865
-5.68683
-5.64116
-5.59105
-5.55255
-5.51945
-5.48944
-5.4487
-5.33563
-5.33706
-5.33871
-5.34067
-5.34308
-5.3461
-5.34999
-5.35496
-5.36112
-5.36868
-5.37932
-5.39374
-5.4067
-5.4167
-5.4232
-5.43404
-5.44811
-5.46605
-5.48863
-5.51599
-5.54807
-5.58607
-5.63567
-5.69872
-5.76594
-5.81327
-5.85289
-5.88461
-5.90134
-5.90043
-5.88372
-5.85576
-5.82073
-5.78043
-5.72999
-5.67417
-5.62568
-5.58059
-5.53776
-5.49316
-5.42387
-5.4252
-5.42676
-5.42866
-5.43108
-5.43425
-5.43847
-5.44413
-5.45158
-5.46133
-5.47526
-5.49388
-5.51018
-5.51994
-5.52476
-5.53294
-5.54455
-5.55992
-5.57896
-5.60149
-5.62783
-5.65883
-5.70024
-5.76375
-5.84168
-5.90733
-5.9562
-5.99772
-6.02218
-6.02114
-5.9968
-5.96008
-5.9163
-5.86591
-5.80227
-5.73501
-5.67056
-5.6067
-5.54395
-5.50257
-5.51246
-5.5136
-5.51494
-5.51663
-5.51884
-5.52182
-5.52588
-5.53149
-5.53932
-5.55064
-5.56841
-5.59501
-5.6197
-5.62896
-5.6258
-5.62741
-5.63599
-5.6487
-5.66384
-5.68091
-5.70005
-5.72176
-5.7484
-5.79319
-5.88257
-5.99879
-6.08694
-6.13737
-6.16491
-6.16146
-6.13151
-6.08157
-6.01494
-5.93698
-5.85264
-5.77291
-5.69675
-5.6147
-5.53494
-5.50214
-5.60134
-5.60217
-5.60317
-5.60446
-5.60621
-5.60865
-5.61216
-5.61724
-5.62463
-5.63613
-5.65834
-5.69966
-5.7443
-5.75035
-5.72948
-5.72166
-5.72575
-5.73367
-5.74411
-5.7564
-5.76983
-5.78454
-5.80112
-5.81636
-5.88973
-6.07604
-6.2713
-6.3672
-6.3972
-6.38079
-6.31661
-6.20991
-6.08299
-5.95756
-5.85551
-5.77429
-5.70054
-5.61895
-5.54372
-5.5161
-5.68957
-5.68992
-5.69038
-5.69101
-5.69198
-5.69352
-5.69612
-5.70088
-5.71047
-5.72874
-5.75596
-5.79399
-5.91508
-5.9032
-5.82514
-5.81215
-5.80722
-5.80767
-5.81294
-5.82028
-5.82834
-5.83805
-5.85311
-5.87347
-5.89695
-6.06647
-6.515
-6.66344
-6.73032
-6.72849
-6.5341
-6.38741
-6.20914
-6.0253
-5.89294
-5.82421
-5.78334
-5.75502
-5.72266
-5.66972
)
;

boundaryField
{
    leftWall
    {
        type            calculated;
        value           nonuniform 0();
    }
    rightWall
    {
        type            calculated;
        value           nonuniform List<scalar> 
43
(
-1.76131
-1.87156
-1.98046
-2.08722
-2.19122
-2.29198
-2.38913
-2.48243
-2.57172
-2.65693
-2.73807
-2.81527
-2.88877
-2.959
-3.02657
-3.09226
-3.15702
-3.2219
-3.28803
-3.35656
-3.42862
-3.5052
-3.58724
-3.67557
-3.77091
-3.87387
-3.98486
-4.10413
-4.23165
-4.36709
-4.5097
-4.65823
-4.81067
-4.96397
-5.11332
-5.25134
-5.36554
-5.4487
-5.49316
-5.50257
-5.50214
-5.5161
-5.66972
)
;
    }
    lowerWall
    {
        type            calculated;
        value           nonuniform 0();
    }
    atmosphere
    {
        type            calculated;
        value           nonuniform List<scalar> 
45
(
-5.73315
-5.73309
-5.73303
-5.73298
-5.73292
-5.73286
-5.73278
-5.7327
-5.7326
-5.73248
-5.73233
-5.73212
-5.73177
-5.73117
-5.73016
-5.72905
-5.72904
-6.29787
-6.12533
-5.73629
-5.77324
-5.8025
-5.82136
-5.83282
-5.8386
-5.83952
-5.83592
-5.82684
-5.80596
-5.75554
-5.91325
-7.60954
-7.67538
-7.67538
-7.6124
-6.68541
-6.53767
-6.22059
-5.90621
-5.73981
-5.73395
-5.73716
-5.75286
-5.75289
-5.75127
)
;
    }
    defaultFaces
    {
        type            empty;
    }
    procBoundary3to1
    {
        type            processor;
        value           nonuniform List<scalar> 
45
(
-2.44842
-2.48315
-2.52284
-2.56786
-2.61832
-2.67637
-2.73457
-2.79865
-2.85385
-2.94221
-2.98951
-2.95004
-2.98852
-3.02753
-3.04912
-3.06783
-3.10141
-3.08547
-3.00024
-3.02593
-3.01088
-2.95258
-2.89666
-2.8575
-2.79478
-2.70513
-2.61643
-2.52897
-2.42834
-2.31992
-2.21673
-2.1223
-2.03827
-1.96523
-1.90195
-1.84806
-1.80595
-1.77674
-1.75899
-1.74935
-1.73878
-1.72018
-1.69774
-1.67229
-1.65073
)
;
    }
    procBoundary3to2
    {
        type            processor;
        value           nonuniform List<scalar> 
43
(
-2.49646
-2.57135
-2.6441
-2.7154
-2.78562
-2.85498
-2.92367
-2.99187
-3.05978
-3.12755
-3.1953
-3.26312
-3.3311
-3.39932
-3.46787
-3.53679
-3.60617
-3.67608
-3.7466
-3.81779
-3.8897
-3.96238
-4.03584
-4.11012
-4.18525
-4.26127
-4.33821
-4.41605
-4.49479
-4.57442
-4.65493
-4.73631
-4.81857
-4.9017
-4.98569
-5.07052
-5.15617
-5.24265
-5.32996
-5.41816
-5.50732
-5.59752
-5.68813
)
;
    }
}


// ************************************************************************* //
