/*--------------------------------*- C++ -*----------------------------------*\
| =========                 |                                                 |
| \\      /  F ield         | OpenFOAM: The Open Source CFD Toolbox           |
|  \\    /   O peration     | Version:  5.0                                   |
|   \\  /    A nd           | Web:      www.OpenFOAM.org                      |
|    \\/     M anipulation  |                                                 |
\*---------------------------------------------------------------------------*/
FoamFile
{
    version     2.0;
    format      ascii;
    class       volScalarField;
    location    "0.9";
    object      p_rgh;
}
// * * * * * * * * * * * * * * * * * * * * * * * * * * * * * * * * * * * * * //

dimensions      [1 -1 -2 0 0 0 0];

internalField   nonuniform List<scalar> 
1935
(
-0.180754
-0.188607
-0.193551
-0.196373
-0.197533
-0.197286
-0.195866
-0.193501
-0.19037
-0.186593
-0.182239
-0.177352
-0.171994
-0.166245
-0.160185
-0.153873
-0.147362
-0.140717
-0.134023
-0.127358
-0.12078
-0.11433
-0.108026
-0.101872
-0.0958771
-0.0900532
-0.0844152
-0.0789702
-0.0737103
-0.0686126
-0.0636467
-0.0587825
-0.0539982
-0.0492791
-0.0446098
-0.0399688
-0.0353372
-0.0307055
-0.0260717
-0.0214407
-0.0168409
-0.0123277
-0.00720102
-0.212966
-0.248745
-0.288709
-0.332731
-0.218285
-0.250665
-0.28641
-0.325212
-0.220715
-0.249847
-0.281627
-0.315762
-0.221057
-0.247122
-0.275198
-0.305041
-0.219843
-0.243103
-0.267853
-0.293874
-0.217423
-0.238205
-0.260056
-0.282757
-0.214054
-0.232686
-0.252049
-0.271917
-0.209963
-0.226717
-0.243945
-0.261424
-0.205325
-0.220413
-0.235794
-0.251261
-0.200228
-0.213835
-0.227601
-0.241352
-0.194682
-0.206974
-0.219321
-0.231588
-0.18868
-0.199798
-0.21089
-0.221856
-0.182263
-0.192306
-0.202273
-0.212079
-0.17551
-0.184548
-0.193484
-0.202235
-0.168498
-0.176588
-0.184563
-0.19234
-0.161279
-0.168472
-0.175547
-0.182424
-0.153897
-0.160236
-0.166476
-0.172528
-0.146415
-0.151943
-0.157405
-0.162699
-0.138925
-0.143678
-0.148402
-0.152982
-0.13152
-0.135538
-0.139541
-0.143427
-0.12428
-0.127613
-0.130915
-0.134118
-0.117264
-0.119987
-0.122631
-0.125171
-0.110496
-0.112705
-0.114765
-0.116701
-0.103966
-0.105758
-0.107337
-0.108769
-0.0976499
-0.0991062
-0.100323
-0.101385
-0.0915364
-0.0927209
-0.0936878
-0.0945155
-0.0856396
-0.0866048
-0.087406
-0.0880979
-0.0799787
-0.0807687
-0.0814503
-0.0820492
-0.0745543
-0.0752059
-0.0757808
-0.0762851
-0.0693432
-0.0698868
-0.0703542
-0.0707498
-0.0643063
-0.0647687
-0.065137
-0.0654307
-0.0593996
-0.0598078
-0.0601077
-0.0603421
-0.0545875
-0.0549693
-0.0552503
-0.0554959
-0.0498483
-0.0502323
-0.050551
-0.050885
-0.0451707
-0.0455889
-0.0459983
-0.0464821
-0.0405469
-0.0410375
-0.0415795
-0.0422447
-0.0359685
-0.0365704
-0.0372682
-0.0381113
-0.0314208
-0.0321586
-0.0330085
-0.0339918
-0.0268761
-0.0277408
-0.0287039
-0.0297594
-0.0222923
-0.0232233
-0.0242165
-0.025253
-0.0176377
-0.0185145
-0.0194224
-0.0203312
-0.0129358
-0.0136035
-0.0142815
-0.0149448
-0.00742513
-0.00767321
-0.00792746
-0.00818114
-0.383205
-0.439103
-0.502229
-0.568379
-0.646411
-0.701432
-0.714089
-0.746418
-0.778411
-0.801494
-0.535554
-0.206849
-0.606088
-0.685289
-0.622742
-0.580031
-0.627322
-0.442127
-0.446222
-0.476093
-0.420022
-0.341691
-0.25345
-0.155937
-0.0570994
0.038974
0.128099
0.206485
0.273596
0.333925
0.437566
0.624593
0.782323
0.871817
0.891001
0.615472
0.524678
0.54443
0.565574
0.582974
-0.368879
-0.417275
-0.470009
-0.526046
-0.586746
-0.638682
-0.674808
-0.710855
-0.741927
-0.757446
-0.144438
-0.136363
-0.707329
-0.618778
-0.556862
-0.619168
-0.610626
-0.57181
-0.533699
-0.474333
-0.398202
-0.322176
-0.241757
-0.159001
-0.0744013
0.180684
0.444209
0.547871
0.560084
0.607332
0.719458
0.772399
0.805064
0.832971
0.806829
0.488621
0.48824
0.50574
0.523647
0.538052
-0.353726
-0.395371
-0.439211
-0.484557
-0.530929
-0.572697
-0.606489
-0.635912
-0.665144
-0.179778
-0.045684
-0.383511
-0.624953
-0.561978
-0.586697
-0.595079
-0.558631
-0.521648
-0.480646
-0.427782
-0.364538
-0.298297
-0.229841
-0.157567
0.171817
0.419108
0.487003
0.548142
0.602888
0.65185
0.695719
0.732597
0.77164
0.741392
0.414186
0.432492
0.450484
0.466991
0.482762
0.495085
-0.337907
-0.373617
-0.41047
-0.447816
-0.484717
-0.518363
-0.546441
-0.570191
-0.575186
0.173588
-0.105579
-0.620515
-0.558335
-0.537587
-0.57021
-0.542955
-0.511457
-0.476439
-0.436569
-0.389295
-0.335472
-0.277966
-0.218109
-0.155715
-0.0123122
0.184989
0.341655
0.414969
0.35486
0.317347
0.323054
0.329564
0.446442
0.343015
0.372809
0.394673
0.412952
0.429337
0.44385
0.454871
-0.322223
-0.352715
-0.383771
-0.414847
-0.445068
-0.472779
-0.496256
-0.516517
-0.513351
0.252217
-0.0330946
-0.558133
-0.532097
-0.531451
-0.519333
-0.496549
-0.46914
-0.437399
-0.400828
-0.358899
-0.31205
-0.261529
-0.2082
-0.152926
-0.0974343
-0.0420214
0.0140002
0.0653007
0.113995
0.159668
0.20157
0.239976
0.275909
0.308888
0.33573
0.357933
0.377112
0.393658
0.407614
0.418031
-0.307214
-0.333234
-0.359449
-0.385428
-0.410462
-0.43341
-0.452916
-0.470504
-0.463664
0.324245
0.0266721
-0.505195
-0.49567
-0.488342
-0.474776
-0.455729
-0.432136
-0.404112
-0.371577
-0.334657
-0.293604
-0.249125
-0.201988
-0.152984
-0.102551
-0.0518287
-0.00208815
0.0456616
0.0905931
0.132663
0.172017
0.208692
0.243421
0.278406
0.307735
0.32603
0.34363
0.360612
0.374634
0.385057
-0.293085
-0.315372
-0.337612
-0.359465
-0.380336
-0.399215
-0.414888
-0.430624
-0.177691
0.390989
-0.0522227
-0.461333
-0.453728
-0.447689
-0.435243
-0.418516
-0.400569
-0.376251
-0.347815
-0.315319
-0.279281
-0.240123
-0.198482
-0.154917
-0.11013
-0.0649009
-0.0200978
0.0234992
0.0653052
0.105112
0.142834
0.179289
0.220404
0.253139
0.280134
0.300045
0.313053
0.330742
0.345365
0.356317
-0.279854
-0.299077
-0.31811
-0.336696
-0.35434
-0.37011
-0.382874
-0.396963
0.067494
0.45131
-0.184556
-0.424371
-0.418711
-0.413597
-0.399688
-0.383962
-0.369075
-0.352983
-0.328257
-0.299908
-0.268208
-0.23359
-0.196528
-0.157639
-0.117555
-0.0768579
-0.0361423
0.0040108
0.0431077
0.0808053
0.116869
0.158037
0.195038
0.22476
0.251809
0.272932
0.285796
0.304445
0.320132
0.332068
-0.267423
-0.284147
-0.300615
-0.316658
-0.331931
-0.345768
-0.357229
-0.369103
-0.142166
0.506354
-0.0577461
-0.393937
-0.389062
-0.384856
-0.3744
-0.358638
-0.344023
-0.32921
-0.311807
-0.286934
-0.258936
-0.228213
-0.195132
-0.160219
-0.123999
-0.0869446
-0.0495371
-0.0122704
0.024393
0.0600674
0.0944582
0.135774
0.170706
0.200013
0.227075
0.242442
0.262044
0.281969
0.299134
0.31247
-0.255619
-0.270289
-0.284682
-0.298709
-0.312174
-0.324733
-0.335725
-0.345851
-0.362007
0.424806
0.0422377
-0.368911
-0.361251
-0.356655
-0.351311
-0.340619
-0.324368
-0.31329
-0.297412
-0.275494
-0.250674
-0.223225
-0.193538
-0.161967
-0.128933
-0.0948722
-0.0602275
-0.0254496
0.0090309
0.0428374
0.0756633
0.107561
0.146849
0.178904
0.204568
0.219275
0.242128
0.263452
0.282479
0.2976
-0.244245
-0.257194
-0.269864
-0.282221
-0.294174
-0.305623
-0.316308
-0.326309
-0.338072
-0.283426
-0.201878
-0.323928
-0.326056
-0.321832
-0.323811
-0.321386
-0.313265
-0.300396
-0.284076
-0.264815
-0.242716
-0.218084
-0.191207
-0.162404
-0.132045
-0.10052
-0.0682555
-0.0356754
-0.00317242
0.0289192
0.060334
0.0908762
0.120461
0.156645
0.176905
0.201823
0.226031
0.248956
0.270199
0.28745
-0.233121
-0.244597
-0.255792
-0.266691
-0.277258
-0.28751
-0.297397
-0.306907
-0.316628
-0.326518
-0.330232
-0.318156
-0.318449
-0.30816
-0.302464
-0.294969
-0.294803
-0.285632
-0.271211
-0.254077
-0.234303
-0.212061
-0.187595
-0.161191
-0.133162
-0.103879
-0.0737408
-0.0431359
-0.0124118
0.0181423
0.0483012
0.0778959
0.106799
0.134927
0.162214
0.188483
0.213767
0.238476
0.26224
0.281905
-0.222116
-0.232308
-0.242211
-0.251809
-0.261083
-0.270079
-0.278796
-0.287148
-0.295049
-0.301946
-0.305161
-0.304626
-0.302312
-0.298742
-0.283597
-0.27702
-0.273592
-0.270646
-0.257902
-0.242621
-0.224851
-0.204707
-0.182389
-0.158131
-0.132207
-0.104957
-0.0767461
-0.0479176
-0.0187764
0.0104247
0.0394892
0.0682694
0.0966568
0.124579
0.151987
0.178833
0.205271
0.231909
0.258431
0.280718
-0.211166
-0.220208
-0.228961
-0.237401
-0.24551
-0.25332
-0.260827
-0.267923
-0.274367
-0.279643
-0.281636
-0.276955
-0.28046
-0.278896
-0.274076
-0.266077
-0.261176
-0.254905
-0.243952
-0.230247
-0.214211
-0.195917
-0.175519
-0.153204
-0.129198
-0.103803
-0.0773357
-0.0500974
-0.0223559
0.00566254
0.0337789
0.0618601
0.0898155
0.117598
0.145206
0.172689
0.20034
0.229003
0.258438
0.283471
-0.200252
-0.208237
-0.215938
-0.223343
-0.230429
-0.23719
-0.243608
-0.249589
-0.254927
-0.259247
-0.254721
-0.254902
-0.254551
-0.253086
-0.253761
-0.253981
-0.247871
-0.239707
-0.229482
-0.217124
-0.202588
-0.185915
-0.167221
-0.146645
-0.124367
-0.100641
-0.0757347
-0.0499075
-0.0233979
0.00358758
0.0308831
0.0583677
0.0859798
0.113687
0.141546
0.169703
0.198595
0.229325
0.261744
0.289566
-0.189389
-0.19638
-0.203097
-0.209557
-0.215734
-0.221587
-0.227074
-0.232121
-0.236591
-0.240259
-0.237859
-0.235576
-0.235744
-0.234681
-0.232276
-0.228373
-0.22374
-0.221261
-0.214912
-0.203688
-0.190437
-0.175167
-0.157958
-0.13891
-0.118159
-0.0959072
-0.0723765
-0.0477898
-0.0223597
0.00372509
0.0303113
0.0572978
0.0846744
0.112368
0.140488
0.169325
0.199456
0.232241
0.267642
0.298222
-0.178618
-0.184678
-0.19047
-0.196045
-0.201386
-0.206432
-0.211118
-0.215385
-0.219154
-0.222302
-0.224473
-0.223826
-0.217668
-0.216975
-0.215052
-0.211685
-0.20676
-0.200105
-0.19352
-0.189793
-0.178195
-0.164135
-0.148219
-0.130506
-0.111092
-0.0901339
-0.067812
-0.0443176
-0.0198392
0.00545188
0.0314167
0.0580038
0.0851512
0.112864
0.141315
0.17082
0.202154
0.236942
0.275256
0.308505
-0.167987
-0.173195
-0.178134
-0.182883
-0.187435
-0.191729
-0.19569
-0.199271
-0.202435
-0.205127
-0.207246
-0.208671
-0.208177
-0.206641
-0.200974
-0.195403
-0.191079
-0.185155
-0.178581
-0.176584
-0.166103
-0.153134
-0.138377
-0.121858
-0.10364
-0.0838412
-0.0626087
-0.0401058
-0.0164985
0.00806098
0.0334604
0.0596829
0.0865907
0.114343
0.143139
0.1733
0.205777
0.242474
0.28358
0.319362
-0.157533
-0.161981
-0.166168
-0.170171
-0.173991
-0.177576
-0.180859
-0.183808
-0.186417
-0.188677
-0.190529
-0.191865
-0.192547
-0.192401
-0.191146
-0.187711
-0.181304
-0.175697
-0.170632
-0.164312
-0.154333
-0.142402
-0.128739
-0.113344
-0.09625
-0.0775468
-0.0573542
-0.0358103
-0.0130575
0.0107757
0.035652
0.0614133
0.0881057
0.115884
0.144985
0.17577
0.209315
0.247801
0.291533
0.329672
-0.14729
-0.151071
-0.154617
-0.157985
-0.161167
-0.164116
-0.166787
-0.16917
-0.171284
-0.173151
-0.174741
-0.175964
-0.176675
-0.176692
-0.175817
-0.173867
-0.170676
-0.166104
-0.160043
-0.1524
-0.143164
-0.13228
-0.11971
-0.105433
-0.0894618
-0.0718631
-0.0527319
-0.0321801
-0.0103248
0.012762
0.0370036
0.0622868
0.0887314
0.1165
0.14584
0.177204
0.211734
0.251866
0.298013
0.33829
-0.137328
-0.140511
-0.143518
-0.146365
-0.149021
-0.151443
-0.153609
-0.155534
-0.15726
-0.158823
-0.160208
-0.161336
-0.162067
-0.16222
-0.161599
-0.160025
-0.157336
-0.153402
-0.148113
-0.141381
-0.133135
-0.123317
-0.111872
-0.098757
-0.0839655
-0.0675366
-0.0495384
-0.0300553
-0.00917513
0.0130532
0.0366028
0.0613752
0.0875206
0.115229
0.144733
0.176624
0.212033
0.253642
0.301944
0.344097
-0.127757
-0.130388
-0.132917
-0.135318
-0.137537
-0.139538
-0.141322
-0.142927
-0.144408
-0.145802
-0.147093
-0.148201
-0.148991
-0.149292
-0.148926
-0.147726
-0.145547
-0.142263
-0.137769
-0.131968
-0.124772
-0.116098
-0.105866
-0.094011
-0.0805001
-0.065343
-0.0485775
-0.0302579
-0.0104408
0.0108297
0.0335776
0.0578358
0.083623
0.111162
0.140811
0.173124
0.209277
0.252146
0.302266
0.346097
-0.118705
-0.120814
-0.122881
-0.124854
-0.126672
-0.128315
-0.129812
-0.131218
-0.132589
-0.13395
-0.135269
-0.136458
-0.137386
-0.137898
-0.137838
-0.137062
-0.135448
-0.132885
-0.12927
-0.124499
-0.118469
-0.111069
-0.102191
-0.0917394
-0.0796504
-0.065898
-0.050486
-0.0334366
-0.0147762
0.00548095
0.027356
0.0509299
0.0762781
0.103627
0.133332
0.165918
0.202646
0.246503
0.298054
0.343376
-0.110272
-0.111897
-0.113503
-0.115033
-0.116443
-0.117747
-0.119002
-0.120276
-0.121617
-0.123027
-0.124455
-0.125802
-0.126941
-0.127736
-0.12806
-0.1278
-0.126857
-0.125138
-0.122543
-0.118963
-0.114274
-0.108337
-0.101013
-0.0921666
-0.081692
-0.0695207
-0.0556196
-0.0399769
-0.0225878
-0.0034424
0.0174926
0.0402923
0.0650921
0.0921163
0.121702
0.154388
0.191481
0.236022
0.288592
0.335106
-0.1025
-0.103709
-0.104876
-0.105962
-0.106963
-0.107936
-0.108964
-0.110122
-0.111443
-0.112907
-0.114446
-0.115956
-0.117324
-0.118439
-0.119206
-0.119545
-0.119384
-0.118646
-0.117237
-0.115037
-0.111903
-0.107671
-0.102164
-0.0951956
-0.0865982
-0.0762499
-0.0640745
-0.0500258
-0.0340693
-0.0161756
0.0036929
0.0256082
0.0497065
0.0762139
0.105473
0.138035
0.17523
0.22011
0.273246
0.320557
-0.095367
-0.0962509
-0.0970443
-0.0977404
-0.0983841
-0.0990682
-0.0998934
-0.100929
-0.102194
-0.103652
-0.105228
-0.106831
-0.108369
-0.109769
-0.110975
-0.111942
-0.112628
-0.112973
-0.11289
-0.112252
-0.110901
-0.108656
-0.105298
-0.100565
-0.0941957
-0.0859948
-0.0758388
-0.0636461
-0.049347
-0.0328984
-0.0142776
0.00656677
0.0297642
0.0555408
0.0842378
0.116414
0.153403
0.198229
0.251445
0.299147
-0.0887817
-0.0894357
-0.0899589
-0.0903805
-0.0907813
-0.0912717
-0.0919499
-0.0928703
-0.0940343
-0.0953997
-0.0969016
-0.0984732
-0.100064
-0.101647
-0.103216
-0.104769
-0.106298
-0.10777
-0.109111
-0.11019
-0.110838
-0.110882
-0.110085
-0.108058
-0.104374
-0.0987398
-0.0909895
-0.0810014
-0.0686487
-0.0538711
-0.0366981
-0.0171352
0.0049367
0.0297473
0.0576333
0.0891467
0.125606
0.169973
0.222773
0.270458
-0.0826162
-0.0831194
-0.0834873
-0.0837769
-0.0840821
-0.0845039
-0.0851161
-0.0859469
-0.086981
-0.0881777
-0.0894946
-0.0909056
-0.0924135
-0.0940512
-0.0958709
-0.0979256
-0.100249
-0.102845
-0.105665
-0.10856
-0.111357
-0.113988
-0.116279
-0.117618
-0.11722
-0.11467
-0.109816
-0.102496
-0.0924579
-0.0795377
-0.0639201
-0.0458225
-0.0250842
-0.00145599
0.0253872
0.0559794
0.0916008
0.135112
0.187009
0.234264
-0.0767497
-0.0771578
-0.0774694
-0.077755
-0.078096
-0.0785603
-0.0791807
-0.0799525
-0.0808453
-0.0818262
-0.0828825
-0.0840373
-0.0853557
-0.0869399
-0.0889124
-0.0913862
-0.0944346
-0.0981013
-0.102394
-0.107091
-0.112003
-0.117464
-0.123603
-0.129327
-0.133013
-0.134131
-0.132783
-0.128849
-0.121595
-0.110454
-0.0962328
-0.079737
-0.0605143
-0.0382235
-0.0125948
0.0168617
0.0513703
0.0936595
0.144177
0.190586
-0.0711166
-0.0714706
-0.0717984
-0.0721671
-0.0726265
-0.0731982
-0.0738692
-0.0746015
-0.0753526
-0.0761
-0.076863
-0.0777152
-0.0787885
-0.0802613
-0.0823255
-0.0851366
-0.0887741
-0.0933704
-0.0991403
-0.105626
-0.112571
-0.121305
-0.132379
-0.142958
-0.152515
-0.157478
-0.159997
-0.160238
-0.154975
-0.144637
-0.132592
-0.118319
-0.101102
-0.0803811
-0.0561012
-0.0279447
0.00521292
0.0459451
0.094616
0.139765
-0.0657236
-0.0660688
-0.0664661
-0.0669649
-0.0675751
-0.0682723
-0.0690021
-0.0696997
-0.070315
-0.0708368
-0.0713136
-0.0718676
-0.0726927
-0.0740263
-0.0761097
-0.0791396
-0.0832198
-0.0888877
-0.0970279
-0.106314
-0.0624157
0.182746
0.103407
-0.126988
-0.0433547
0.0773061
-0.0491155
-0.190984
0.427425
0.444237
-0.149193
-0.160653
-0.145998
-0.127146
-0.10442
-0.0777378
-0.0461548
-0.00731777
0.039068
0.0825513
-0.0606175
-0.0610139
-0.0615277
-0.062182
-0.0629492
-0.0637675
-0.064554
-0.0652278
-0.065736
-0.0660777
-0.0663254
-0.0666316
-0.0672081
-0.068324
-0.0704071
-0.0741781
-0.0798676
-0.0209855
0.0834331
0.0973225
0.628755
0.683318
0.475528
-0.138929
0.318573
0.949904
0.940217
0.939327
0.938152
0.943284
0.951606
0.0683132
-0.195887
-0.177447
-0.156031
-0.131104
-0.101433
-0.064854
-0.0211763
0.0202283
-0.0558332
-0.0563513
-0.0570289
-0.0578618
-0.0587941
-0.0597418
-0.0606093
-0.0613119
-0.0617994
-0.0620782
-0.0622195
-0.0623371
-0.0626271
-0.0636976
-0.0668064
-0.0375802
0.131267
0.692154
0.668044
0.666683
0.677343
0.693454
0.657511
0.401251
0.04556
-0.10038
-0.0275077
0.158863
0.70782
0.890699
0.903235
0.924817
0.630153
-0.230272
-0.208506
-0.185312
-0.158308
-0.124562
-0.0840484
-0.0451982
-0.051363
-0.0520667
-0.0529509
-0.05399
-0.055114
-0.0562352
-0.0572636
-0.0581242
-0.0587759
-0.0592159
-0.0594429
-0.059488
-0.0599508
-0.0625974
0.144812
0.78474
0.755846
0.719916
0.513718
0.0626979
0.070622
0.316962
1.28381
2.02084
0.905538
-0.256528
-0.338779
-0.371583
-0.349525
-0.217127
0.103273
0.802986
1.13875
1.07742
-0.162345
-0.237299
-0.213363
-0.183195
-0.146488
-0.110677
-0.047155
-0.0480823
-0.049198
-0.0504678
-0.0518267
-0.0532045
-0.0545368
-0.0557757
-0.0568908
-0.0578214
-0.0584358
-0.0590393
-0.0610182
0.464195
0.970417
0.956583
0.503619
-0.0418174
-0.135432
-0.0541125
0.808198
2.18294
2.11477
2.07313
2.02937
0.944373
-0.413777
-0.440633
-0.4484
-0.44576
-0.434786
-0.296184
0.718201
1.63177
1.44299
-0.148081
-0.264475
-0.236789
-0.204106
-0.171411
-0.0431269
-0.044276
-0.0456173
-0.0471261
-0.0487643
-0.0505023
-0.0523242
-0.0542258
-0.0561741
-0.05801
-0.0596335
-0.0507971
0.515966
1.03296
0.969745
0.137866
-0.119447
-0.133911
-0.152937
0.436291
2.20881
2.16893
2.1169
2.06186
2.01641
0.728725
-0.482997
-0.497259
-0.500013
-0.495658
-0.484289
-0.466422
-0.398718
1.68254
1.75402
-0.0346824
-0.307123
-0.280084
-0.25095
-0.219938
-0.0391747
-0.0405018
-0.0420273
-0.0437557
-0.0456967
-0.0478832
-0.0503698
-0.0532082
-0.056359
-0.059655
-0.0635756
0.2731
1.05145
1.02583
-0.00934971
-0.11213
-0.12675
-0.146676
-0.172266
0.156861
1.09832
2.18969
2.13754
2.08134
1.48263
-0.417469
-0.522577
-0.536115
-0.540609
-0.536405
-0.523785
-0.504254
-0.480279
1.37778
1.76079
0.54881
-0.318248
-0.3061
-0.280414
-0.243743
-0.035173
-0.0366008
-0.0382367
-0.0401293
-0.0423493
-0.0450041
-0.0482357
-0.052164
-0.0567782
-0.0620825
-0.0612449
0.659888
1.06452
0.263026
-0.104947
-0.105916
-0.09816
-0.156231
-0.181395
-0.212239
-0.246043
0.745851
2.17644
2.11147
0.826266
-0.506647
-0.540063
-0.561384
-0.570977
-0.568381
-0.554598
-0.532165
-0.504585
0.47471
1.78325
1.80611
-0.267163
-0.30674
-0.276675
-0.235865
-0.0309715
-0.0324029
-0.0340523
-0.0360149
-0.0384213
-0.0414434
-0.0453308
-0.0503007
-0.0564585
-0.0640235
-0.0582505
0.65668
1.06662
-0.100884
-0.112812
-0.0790447
-0.0862173
-0.144658
-0.18388
-0.211268
-0.243317
-0.280936
0.988396
2.15079
1.31216
-0.507445
-0.547071
-0.578788
-0.595517
-0.594608
-0.577896
-0.549908
-0.514314
0.0639234
1.82539
1.8812
-0.287243
-0.275923
-0.233059
-0.188476
-0.0263993
-0.0277323
-0.029286
-0.031189
-0.0336093
-0.0367743
-0.0410022
-0.0466618
-0.0541062
-0.0638608
-0.0676422
0.588521
1.02037
-0.116733
-0.121128
-0.0772343
-0.0888448
-0.109675
-0.181422
-0.203957
-0.230302
-0.261353
-0.302489
1.1531
1.68399
0.787345
-0.557544
-0.599067
-0.623525
-0.622479
-0.598119
-0.560818
-0.434932
1.63106
1.88529
1.66772
-0.273087
-0.209231
-0.146472
-0.105098
-0.0213158
-0.0224527
-0.0237965
-0.0254863
-0.0277003
-0.0306754
-0.0347359
-0.040344
-0.0481802
-0.0594912
-0.0743914
0.561527
1.01289
-0.048804
-0.134609
-0.104587
-0.0855974
-0.103075
-0.167425
-0.18972
-0.208098
-0.230615
-0.25726
-0.302047
1.76622
1.80111
0.723204
-0.645023
-0.672562
-0.66907
-0.0759451
0.996278
1.70091
1.82254
1.95774
-0.0031902
-0.205609
-0.123554
-0.0437927
-0.0109934
-0.015657
-0.0164862
-0.0174864
-0.0187739
-0.020518
-0.022964
-0.0264711
-0.0315531
-0.0389447
-0.0504458
-0.0726532
0.184355
0.987591
0.0669825
-0.143796
-0.134413
-0.121307
-0.140456
-0.15627
-0.17066
-0.182983
-0.198851
-0.215437
-0.230673
-0.15085
1.85401
1.65875
0.540536
-0.524981
0.520357
1.38694
1.52263
1.70922
1.78463
-0.0549497
-0.187823
-0.114458
-0.0332576
0.0621783
0.165117
-0.00846404
-0.00881346
-0.00926679
-0.0099058
-0.0108717
-0.012412
-0.0150089
-0.0197693
-0.0293564
-0.0476268
-0.0748478
-0.112885
0.330093
0.170877
-0.144034
-0.131036
-0.126107
-0.126561
-0.131831
-0.139138
-0.146524
-0.156945
-0.172004
-0.192365
-0.215841
-0.202695
1.03088
0.947724
0.880839
0.82022
0.0953763
0.0955635
-0.040596
-0.1685
-0.201152
-0.138223
-0.094182
-0.050292
-0.0179017
0.0144772
)
;

boundaryField
{
    leftWall
    {
        type            fixedFluxPressure;
        gradient        nonuniform 0();
        value           nonuniform 0();
    }
    rightWall
    {
        type            fixedFluxPressure;
        gradient        uniform 0;
        value           nonuniform List<scalar> 
43
(
0.582974
0.538052
0.495085
0.454871
0.418031
0.385057
0.356317
0.332068
0.31247
0.2976
0.28745
0.281905
0.280718
0.283471
0.289566
0.298222
0.308505
0.319362
0.329672
0.33829
0.344097
0.346097
0.343376
0.335106
0.320557
0.299147
0.270458
0.234264
0.190586
0.139765
0.0825513
0.0202283
-0.0451982
-0.110677
-0.171411
-0.219938
-0.243743
-0.235865
-0.188476
-0.105098
-0.0109934
0.165117
0.0144772
)
;
    }
    lowerWall
    {
        type            fixedFluxPressure;
        gradient        nonuniform 0();
        value           nonuniform 0();
    }
    atmosphere
    {
        type            totalPressure;
        rho             rho;
        psi             none;
        gamma           1;
        p0              uniform 0;
        value           nonuniform List<scalar> 
45
(
-0.00410969
-0.00405192
-0.00399456
-0.00393711
-0.00387978
-0.00381714
-0.00374339
-0.00365891
-0.00356086
-0.00344284
-0.00329128
-0.00307638
-0.00273263
-0.00213268
-0.00111965
-5.4129e-06
0
0
0
-0.00724764
-0.0441998
-0.0734578
-0.0923238
-0.103785
-0.109561
-0.110481
-0.106877
-0.0978004
-0.0769237
-0.0264976
0
0
0
0
0
0
0
0
0
0
0
0
0
0
-0.0222349
)
;
    }
    defaultFaces
    {
        type            empty;
    }
    procBoundary3to1
    {
        type            processor;
        value           nonuniform List<scalar> 
45
(
-0.168864
-0.203593
-0.243279
-0.288302
-0.33876
-0.396814
-0.455015
-0.519093
-0.574295
-0.662646
-0.709947
-0.670488
-0.708962
-0.747977
-0.769564
-0.788243
-0.658925
-0.661313
-0.652125
-0.673587
-0.641676
-0.502211
-0.425886
0.927953
1.27546
-0.00850339
-0.0930596
-0.201503
-0.14875
-0.0403648
0.0628263
0.15726
0.241286
0.314331
0.377604
0.431502
0.473726
0.520838
0.651952
0.751112
0.670266
0.562789
0.581817
0.607268
0.628831
)
;
    }
    procBoundary3to2
    {
        type            processor;
        value           nonuniform List<scalar> 
43
(
-0.152177
-0.16174
-0.168565
-0.173315
-0.176373
-0.17795
-0.17822
-0.177371
-0.175593
-0.173028
-0.169784
-0.16595
-0.161615
-0.156853
-0.151731
-0.146307
-0.140645
-0.134819
-0.128899
-0.122942
-0.116992
-0.111077
-0.105221
-0.0994475
-0.0937832
-0.088258
-0.0828862
-0.0776618
-0.0725661
-0.0675771
-0.0626786
-0.057864
-0.0531273
-0.0484532
-0.0438202
-0.0392046
-0.034583
-0.0299445
-0.0253029
-0.0206931
-0.0161755
-0.0118291
-0.0070206
)
;
    }
}


// ************************************************************************* //
