/*--------------------------------*- C++ -*----------------------------------*\
| =========                 |                                                 |
| \\      /  F ield         | OpenFOAM: The Open Source CFD Toolbox           |
|  \\    /   O peration     | Version:  5.0                                   |
|   \\  /    A nd           | Web:      www.OpenFOAM.org                      |
|    \\/     M anipulation  |                                                 |
\*---------------------------------------------------------------------------*/
FoamFile
{
    version     2.0;
    format      ascii;
    class       volVectorField;
    location    "0.9";
    object      U;
}
// * * * * * * * * * * * * * * * * * * * * * * * * * * * * * * * * * * * * * //

dimensions      [0 1 -1 0 0 0 0];

internalField   nonuniform List<vector> 
1935
(
(0.350493 0.134972 0)
(0.364088 0.145696 0)
(0.368009 0.152815 0)
(0.364805 0.157447 0)
(0.356534 0.160413 0)
(0.344845 0.162259 0)
(0.331049 0.163298 0)
(0.316174 0.163684 0)
(0.301014 0.163438 0)
(0.286157 0.1625 0)
(0.272012 0.160759 0)
(0.25883 0.15809 0)
(0.246732 0.154368 0)
(0.235722 0.149489 0)
(0.225721 0.143379 0)
(0.21658 0.136001 0)
(0.208108 0.127356 0)
(0.200086 0.117484 0)
(0.192285 0.106463 0)
(0.184483 0.0944062 0)
(0.176473 0.0814554 0)
(0.168079 0.0677793 0)
(0.159158 0.0535687 0)
(0.149609 0.0390317 0)
(0.139381 0.0243887 0)
(0.128469 0.00986822 0)
(0.116922 -0.00429681 0)
(0.104842 -0.0178759 0)
(0.0923825 -0.0306482 0)
(0.079745 -0.0424099 0)
(0.0671774 -0.0529828 0)
(0.0549624 -0.0622253 0)
(0.0434033 -0.0700444 0)
(0.0328044 -0.0764066 0)
(0.0234459 -0.081348 0)
(0.0155545 -0.0849764 0)
(0.0092756 -0.0874661 0)
(0.00464773 -0.0890439 0)
(0.0015871 -0.089962 0)
(-0.000111275 -0.0904608 0)
(-0.000750738 -0.0907363 0)
(-0.00068723 -0.0909696 0)
(-0.000290329 -0.090968 0)
(0.336113 0.111194 0)
(0.318544 0.0853172 0)
(0.297844 0.0575879 0)
(0.274821 0.0290226 0)
(0.353927 0.12599 0)
(0.340553 0.103908 0)
(0.323895 0.0794272 0)
(0.304439 0.0532339 0)
(0.360834 0.137043 0)
(0.350473 0.118774 0)
(0.336743 0.0978557 0)
(0.319866 0.0747526 0)
(0.359684 0.145449 0)
(0.351461 0.130976 0)
(0.339869 0.113826 0)
(0.324937 0.0942876 0)
(0.352822 0.152001 0)
(0.346137 0.141246 0)
(0.336169 0.127934 0)
(0.32282 0.112231 0)
(0.342131 0.157222 0)
(0.33662 0.15004 0)
(0.327987 0.140514 0)
(0.316058 0.128715 0)
(0.329112 0.161406 0)
(0.324591 0.157592 0)
(0.317172 0.151691 0)
(0.306645 0.143701 0)
(0.314935 0.164674 0)
(0.311351 0.163971 0)
(0.305141 0.161445 0)
(0.296088 0.15704 0)
(0.300486 0.167022 0)
(0.297872 0.169127 0)
(0.292936 0.169658 0)
(0.285478 0.168519 0)
(0.286406 0.16837 0)
(0.284844 0.172943 0)
(0.281278 0.176167 0)
(0.275544 0.177912 0)
(0.273129 0.168595 0)
(0.272709 0.175276 0)
(0.270613 0.180803 0)
(0.266711 0.185013 0)
(0.260906 0.167558 0)
(0.261711 0.175986 0)
(0.261166 0.183417 0)
(0.259167 0.189663 0)
(0.249842 0.165136 0)
(0.251932 0.174955 0)
(0.252983 0.183898 0)
(0.252913 0.191764 0)
(0.239916 0.161236 0)
(0.243321 0.172105 0)
(0.245976 0.182188 0)
(0.247818 0.19128 0)
(0.231016 0.155804 0)
(0.235733 0.1674 0)
(0.23996 0.178281 0)
(0.243651 0.188236 0)
(0.222963 0.148823 0)
(0.228952 0.160853 0)
(0.234684 0.17222 0)
(0.240123 0.182712 0)
(0.215531 0.140321 0)
(0.22272 0.152521 0)
(0.229854 0.164095 0)
(0.236907 0.174835 0)
(0.208472 0.130364 0)
(0.216759 0.142502 0)
(0.225164 0.154039 0)
(0.233668 0.164778 0)
(0.20153 0.11906 0)
(0.210788 0.130933 0)
(0.220308 0.142226 0)
(0.230079 0.152752 0)
(0.19446 0.10655 0)
(0.204542 0.117987 0)
(0.215004 0.128862 0)
(0.225838 0.138996 0)
(0.187038 0.0930027 0)
(0.197781 0.103863 0)
(0.208997 0.114177 0)
(0.220679 0.123776 0)
(0.179071 0.0786151 0)
(0.1903 0.0887846 0)
(0.202073 0.0984239 0)
(0.214381 0.107372 0)
(0.170409 0.0636031 0)
(0.18194 0.0729946 0)
(0.194066 0.0818712 0)
(0.206776 0.0900818 0)
(0.160943 0.0481986 0)
(0.172588 0.056749 0)
(0.184861 0.0647999 0)
(0.197748 0.0722104 0)
(0.150618 0.0326441 0)
(0.162188 0.0403125 0)
(0.174402 0.047497 0)
(0.187243 0.0540678 0)
(0.139433 0.0171888 0)
(0.150738 0.0239548 0)
(0.162688 0.0302532 0)
(0.175266 0.0359663 0)
(0.127439 0.00208519 0)
(0.138297 0.00794723 0)
(0.149786 0.0133608 0)
(0.161892 0.0182185 0)
(0.114748 -0.0124159 0)
(0.124985 -0.00743968 0)
(0.135827 -0.00289023 0)
(0.14726 0.00113415 0)
(0.101526 -0.0260736 0)
(0.110986 -0.0219449 0)
(0.121009 -0.0182188 0)
(0.131584 -0.0149858 0)
(0.0879973 -0.0386641 0)
(0.0965399 -0.0353253 0)
(0.105594 -0.0323618 0)
(0.115147 -0.0298581 0)
(0.0744345 -0.0499901 0)
(0.0819484 -0.0473639 0)
(0.08991 -0.0450831 0)
(0.098301 -0.043226 0)
(0.0611545 -0.0598923 0)
(0.0675619 -0.0578835 0)
(0.0743419 -0.0561865 0)
(0.0814715 -0.0548725 0)
(0.0485021 -0.0682631 0)
(0.0537675 -0.0667612 0)
(0.0593229 -0.0655328 0)
(0.0651396 -0.0646398 0)
(0.0368282 -0.0750594 0)
(0.0409666 -0.0739444 0)
(0.045309 -0.073058 0)
(0.049822 -0.0724514 0)
(0.0264628 -0.0803147 0)
(0.0295438 -0.0794644 0)
(0.0327463 -0.0787914 0)
(0.0360336 -0.0783336 0)
(0.0176815 -0.0841439 0)
(0.0198284 -0.0834446 0)
(0.0220262 -0.082866 0)
(0.0242367 -0.0824307 0)
(0.0106694 -0.086739 0)
(0.0120515 -0.0860973 0)
(0.013433 -0.0855178 0)
(0.0147785 -0.0850073 0)
(0.00548881 -0.0883539 0)
(0.00630338 -0.087707 0)
(0.00709146 -0.0870686 0)
(0.00782418 -0.0864302 0)
(0.00205736 -0.0892736 0)
(0.00250375 -0.0885961 0)
(0.00292409 -0.0878857 0)
(0.00330046 -0.0871222 0)
(0.000145131 -0.0897696 0)
(0.000393371 -0.0890709 0)
(0.000635935 -0.0883178 0)
(0.000868611 -0.0874854 0)
(-0.000599766 -0.0900581 0)
(-0.000437603 -0.0893697 0)
(-0.000255906 -0.0886286 0)
(-4.65807e-05 -0.087814 0)
(-0.000593342 -0.0903256 0)
(-0.00047973 -0.0896814 0)
(-0.000335477 -0.0890042 0)
(-0.000147053 -0.0882825 0)
(-0.000256296 -0.0903479 0)
(-0.00021172 -0.0897343 0)
(-0.000151334 -0.0891061 0)
(-6.733e-05 -0.0884622 0)
(0.249124 -0.000686763 0)
(0.222839 -0.0293885 0)
(0.199212 -0.0569893 0)
(0.179328 -0.082614 0)
(0.159957 -0.111416 0)
(0.138379 -0.129523 0)
(0.126786 -0.131866 0)
(0.126836 -0.141198 0)
(0.126657 -0.150997 0)
(0.123598 -0.158736 0)
(0.115403 -0.164888 0)
(0.104588 -0.167723 0)
(0.0871383 -0.163836 0)
(0.060083 -0.153427 0)
(0.0192364 -0.147159 0)
(-0.0290046 -0.128376 0)
(-0.0791878 -0.105306 0)
(-0.128384 -0.0820238 0)
(-0.171949 -0.0644974 0)
(-0.217187 -0.0343151 0)
(-0.261601 0.0107121 0)
(-0.297693 0.0538081 0)
(-0.323558 0.0964425 0)
(-0.336095 0.134782 0)
(-0.333166 0.162694 0)
(-0.315449 0.175567 0)
(-0.285855 0.17265 0)
(-0.247596 0.155174 0)
(-0.20354 0.12344 0)
(-0.156263 0.0768064 0)
(-0.10833 0.0156353 0)
(-0.0627955 -0.057108 0)
(-0.0225996 -0.137627 0)
(0.0103141 -0.221612 0)
(0.0337798 -0.30461 0)
(0.0474519 -0.384206 0)
(0.0509482 -0.460884 0)
(0.0456023 -0.528059 0)
(0.0331985 -0.582035 0)
(0.0164385 -0.615295 0)
(0.281687 0.0246494 0)
(0.25644 -0.00511574 0)
(0.231069 -0.0343796 0)
(0.205989 -0.0622769 0)
(0.179658 -0.089056 0)
(0.15191 -0.108018 0)
(0.128767 -0.117557 0)
(0.110967 -0.126902 0)
(0.0933787 -0.134564 0)
(0.0722364 -0.139499 0)
(0.0501632 -0.142822 0)
(0.0281044 -0.141815 0)
(-0.00131393 -0.133562 0)
(-0.0354932 -0.120261 0)
(-0.073672 -0.106067 0)
(-0.116201 -0.0857951 0)
(-0.158922 -0.0627252 0)
(-0.199517 -0.0410803 0)
(-0.239454 -0.0189107 0)
(-0.278152 0.0104143 0)
(-0.310235 0.0444558 0)
(-0.33285 0.0772844 0)
(-0.345304 0.107805 0)
(-0.345724 0.132792 0)
(-0.33313 0.147294 0)
(-0.309105 0.148684 0)
(-0.277063 0.1374 0)
(-0.239301 0.113958 0)
(-0.197206 0.0783407 0)
(-0.15275 0.0302984 0)
(-0.108747 -0.0289711 0)
(-0.0675174 -0.097039 0)
(-0.0311318 -0.171457 0)
(-0.00171357 -0.247791 0)
(0.0197382 -0.321799 0)
(0.0316964 -0.393154 0)
(0.0368777 -0.461468 0)
(0.03415 -0.520461 0)
(0.0252981 -0.568022 0)
(0.0130832 -0.596005 0)
(0.299128 0.0486902 0)
(0.274505 0.0205191 0)
(0.247824 -0.00761829 0)
(0.219381 -0.0347321 0)
(0.188764 -0.0598398 0)
(0.156539 -0.0797123 0)
(0.125616 -0.0934315 0)
(0.0968361 -0.104218 0)
(0.0670382 -0.111628 0)
(0.0362206 -0.114077 0)
(0.0075457 -0.116708 0)
(-0.0239977 -0.113973 0)
(-0.0604514 -0.101155 0)
(-0.0969935 -0.0850329 0)
(-0.134822 -0.0673583 0)
(-0.173952 -0.0461987 0)
(-0.211239 -0.0245576 0)
(-0.246146 -0.00426443 0)
(-0.279212 0.0160848 0)
(-0.308611 0.039669 0)
(-0.330559 0.065111 0)
(-0.343198 0.0886296 0)
(-0.345948 0.108466 0)
(-0.337776 0.122268 0)
(-0.319133 0.126422 0)
(-0.292983 0.119834 0)
(-0.260822 0.10286 0)
(-0.223795 0.0752323 0)
(-0.183789 0.0372133 0)
(-0.142705 -0.0110023 0)
(-0.102724 -0.0683758 0)
(-0.0659238 -0.133057 0)
(-0.0343233 -0.202154 0)
(-0.00902489 -0.270614 0)
(0.00946934 -0.337476 0)
(0.0213228 -0.402952 0)
(0.0269571 -0.463196 0)
(0.0257307 -0.515388 0)
(0.0193655 -0.557596 0)
(0.010513 -0.58105 0)
(0.305802 0.0716276 0)
(0.281947 0.0465278 0)
(0.254841 0.0211523 0)
(0.224771 -0.00346074 0)
(0.191862 -0.0261733 0)
(0.15682 -0.0451827 0)
(0.121365 -0.0597868 0)
(0.0864895 -0.0708624 0)
(0.0493696 -0.0783481 0)
(0.0142992 -0.0815478 0)
(-0.0182703 -0.0825381 0)
(-0.0562281 -0.0773611 0)
(-0.0956691 -0.0636536 0)
(-0.132646 -0.0471958 0)
(-0.169663 -0.0290051 0)
(-0.205416 -0.0095422 0)
(-0.238114 0.00929828 0)
(-0.267648 0.0267493 0)
(-0.29383 0.0435821 0)
(-0.315098 0.0609951 0)
(-0.329142 0.0780094 0)
(-0.334712 0.0923266 0)
(-0.331412 0.10229 0)
(-0.318982 0.10631 0)
(-0.298303 0.102817 0)
(-0.27122 0.0904766 0)
(-0.239557 0.0686786 0)
(-0.20476 0.0378172 0)
(-0.167959 -0.00174888 0)
(-0.130402 -0.0497665 0)
(-0.0943266 -0.105004 0)
(-0.0614794 -0.165609 0)
(-0.0337683 -0.228839 0)
(-0.0120339 -0.291506 0)
(0.00416191 -0.353137 0)
(0.0153363 -0.411628 0)
(0.0204652 -0.465399 0)
(0.0199368 -0.511995 0)
(0.0151222 -0.549733 0)
(0.00860429 -0.569398 0)
(0.305154 0.0934962 0)
(0.282384 0.0722863 0)
(0.255734 0.0505472 0)
(0.225487 0.0292544 0)
(0.191977 0.00943577 0)
(0.155923 -0.00773227 0)
(0.118612 -0.0216102 0)
(0.0810615 -0.0322504 0)
(0.040568 -0.0399145 0)
(0.00300313 -0.0446174 0)
(-0.0315891 -0.0441229 0)
(-0.0708587 -0.0368084 0)
(-0.110435 -0.0243093 0)
(-0.147049 -0.00926833 0)
(-0.182113 0.00708183 0)
(-0.214317 0.0234045 0)
(-0.242781 0.0386145 0)
(-0.267309 0.0522136 0)
(-0.287534 0.0644241 0)
(-0.302396 0.0755369 0)
(-0.31057 0.0848248 0)
(-0.311332 0.0908777 0)
(-0.304557 0.0924465 0)
(-0.290456 0.0884268 0)
(-0.269816 0.077945 0)
(-0.243792 0.0604142 0)
(-0.213766 0.0352353 0)
(-0.181179 0.0021424 0)
(-0.147458 -0.0386946 0)
(-0.114013 -0.0861764 0)
(-0.0824082 -0.138857 0)
(-0.0540751 -0.195094 0)
(-0.0298824 -0.252826 0)
(-0.0108375 -0.310333 0)
(0.00370574 -0.366233 0)
(0.0131464 -0.419252 0)
(0.0173119 -0.467581 0)
(0.0167457 -0.509424 0)
(0.0125405 -0.543399 0)
(0.00736093 -0.560018 0)
(0.299894 0.114127 0)
(0.27858 0.0971913 0)
(0.253157 0.07952 0)
(0.223881 0.0619446 0)
(0.191139 0.0453067 0)
(0.155623 0.0304376 0)
(0.118465 0.0179167 0)
(0.0805754 0.00811999 0)
(0.0397282 0.000867567 0)
(0.00199288 -0.00559237 0)
(-0.0328069 -0.00550963 0)
(-0.0710992 0.0025981 0)
(-0.10907 0.0142702 0)
(-0.143769 0.0270987 0)
(-0.175973 0.0402131 0)
(-0.204556 0.0526555 0)
(-0.228966 0.0636094 0)
(-0.248983 0.0726535 0)
(-0.264294 0.0797179 0)
(-0.274269 0.0847294 0)
(-0.278204 0.0871491 0)
(-0.27576 0.0861029 0)
(-0.267014 0.0807479 0)
(-0.25234 0.070348 0)
(-0.232411 0.054303 0)
(-0.208151 0.0321849 0)
(-0.180686 0.00375493 0)
(-0.151279 -0.030974 0)
(-0.121289 -0.0716703 0)
(-0.0920698 -0.117563 0)
(-0.064865 -0.167478 0)
(-0.0407256 -0.219981 0)
(-0.0203277 -0.273397 0)
(-0.00412395 -0.326235 0)
(0.00770803 -0.377376 0)
(0.0149109 -0.425425 0)
(0.0175393 -0.468968 0)
(0.016131 -0.506729 0)
(0.0116028 -0.537547 0)
(0.00679729 -0.551838 0)
(0.292116 0.133245 0)
(0.272642 0.120657 0)
(0.249105 0.107177 0)
(0.221721 0.0934623 0)
(0.190847 0.080154 0)
(0.15711 0.0678391 0)
(0.121572 0.056967 0)
(0.0845606 0.048004 0)
(0.0463649 0.0407928 0)
(0.0112559 0.0329265 0)
(-0.0231408 0.0322786 0)
(-0.0597969 0.0404423 0)
(-0.0947437 0.0506434 0)
(-0.126356 0.0606133 0)
(-0.155027 0.0700142 0)
(-0.179819 0.0781957 0)
(-0.200317 0.0845709 0)
(-0.216333 0.0887801 0)
(-0.227646 0.0906385 0)
(-0.233936 0.0899566 0)
(-0.234884 0.0863437 0)
(-0.230409 0.0792559 0)
(-0.220709 0.0681588 0)
(-0.206212 0.0525916 0)
(-0.187544 0.032196 0)
(-0.165508 0.00672702 0)
(-0.141066 -0.023924 0)
(-0.11531 -0.0596503 0)
(-0.0894182 -0.100073 0)
(-0.0645462 -0.144469 0)
(-0.041719 -0.191831 0)
(-0.0217656 -0.24097 0)
(-0.00526168 -0.290507 0)
(0.00741804 -0.339167 0)
(0.016049 -0.385864 0)
(0.0205107 -0.429412 0)
(0.020956 -0.468734 0)
(0.0179337 -0.502973 0)
(0.0122299 -0.531149 0)
(0.00690765 -0.543777 0)
(0.283385 0.150519 0)
(0.266123 0.142125 0)
(0.245044 0.132728 0)
(0.220322 0.122812 0)
(0.192262 0.112836 0)
(0.16141 0.103186 0)
(0.128749 0.0940878 0)
(0.0942306 0.085546 0)
(0.0595298 0.0768341 0)
(0.0278993 0.0692725 0)
(-0.00456874 0.0690279 0)
(-0.0387744 0.0759711 0)
(-0.0698663 0.0837961 0)
(-0.0977372 0.0905732 0)
(-0.122495 0.0960879 0)
(-0.1434 0.0999422 0)
(-0.160145 0.101743 0)
(-0.172611 0.101205 0)
(-0.180673 0.0981227 0)
(-0.184197 0.0922935 0)
(-0.183105 0.0834544 0)
(-0.177475 0.0712797 0)
(-0.167577 0.0554529 0)
(-0.153853 0.0357096 0)
(-0.136889 0.0118605 0)
(-0.117403 -0.0161928 0)
(-0.0962328 -0.0484289 0)
(-0.0743177 -0.0846535 0)
(-0.0526444 -0.12446 0)
(-0.0321762 -0.167199 0)
(-0.0137628 -0.212021 0)
(0.00189659 -0.257937 0)
(0.0142944 -0.303786 0)
(0.0231133 -0.348489 0)
(0.0281853 -0.391066 0)
(0.0294762 -0.430549 0)
(0.027182 -0.466151 0)
(0.0218861 -0.497316 0)
(0.0142819 -0.523265 0)
(0.00766297 -0.534797 0)
(0.274804 0.165607 0)
(0.260085 0.161085 0)
(0.241935 0.155478 0)
(0.220499 0.149111 0)
(0.196042 0.142278 0)
(0.169029 0.135195 0)
(0.140278 0.127866 0)
(0.110097 0.119784 0)
(0.0781823 0.110064 0)
(0.0489865 0.102818 0)
(0.0206649 0.10283 0)
(-0.00949369 0.107903 0)
(-0.0366374 0.11309 0)
(-0.0603879 0.116529 0)
(-0.0810655 0.118198 0)
(-0.0981241 0.1179 0)
(-0.111338 0.115382 0)
(-0.120655 0.11043 0)
(-0.126046 0.102866 0)
(-0.127495 0.0925301 0)
(-0.125062 0.0792578 0)
(-0.118917 0.0628811 0)
(-0.109369 0.0432421 0)
(-0.0968531 0.0202207 0)
(-0.0819104 -0.00624598 0)
(-0.0651841 -0.0361433 0)
(-0.047413 -0.0693493 0)
(-0.0293973 -0.105608 0)
(-0.0119638 -0.144507 0)
(0.00408801 -0.185462 0)
(0.0180444 -0.227748 0)
(0.0293092 -0.270527 0)
(0.0374362 -0.312857 0)
(0.0421852 -0.353813 0)
(0.0434445 -0.392554 0)
(0.0412263 -0.428321 0)
(0.0357786 -0.460607 0)
(0.0276791 -0.489039 0)
(0.0175859 -0.513069 0)
(0.00901398 -0.52393 0)
(0.267078 0.178194 0)
(0.255158 0.177107 0)
(0.240273 0.174868 0)
(0.222548 0.171659 0)
(0.202213 0.167628 0)
(0.179645 0.16286 0)
(0.155431 0.157256 0)
(0.130118 0.150285 0)
(0.102125 0.14142 0)
(0.0750429 0.132615 0)
(0.0504761 0.131591 0)
(0.0253033 0.1353 0)
(0.00263545 0.137948 0)
(-0.0166373 0.138151 0)
(-0.033101 0.136238 0)
(-0.0463938 0.132155 0)
(-0.0563271 0.125744 0)
(-0.0628738 0.11687 0)
(-0.0660596 0.105411 0)
(-0.0659546 0.0912528 0)
(-0.0626906 0.0743265 0)
(-0.0564903 0.054578 0)
(-0.047675 0.0319658 0)
(-0.0366606 0.00647899 0)
(-0.0239409 -0.0218484 0)
(-0.0100963 -0.0529144 0)
(0.00423067 -0.0865279 0)
(0.0183534 -0.122396 0)
(0.0315741 -0.160108 0)
(0.0432247 -0.199137 0)
(0.0527064 -0.238852 0)
(0.0595269 -0.278551 0)
(0.0633229 -0.317482 0)
(0.0638868 -0.354869 0)
(0.0611633 -0.390011 0)
(0.0552069 -0.422353 0)
(0.0463032 -0.4516 0)
(0.0349941 -0.477547 0)
(0.0219519 -0.499855 0)
(0.0108922 -0.510301 0)
(0.260584 0.188027 0)
(0.251624 0.189878 0)
(0.240191 0.190519 0)
(0.226393 0.190008 0)
(0.21042 0.188375 0)
(0.192569 0.185607 0)
(0.173247 0.181589 0)
(0.152837 0.175995 0)
(0.130892 0.16836 0)
(0.107033 0.159403 0)
(0.0845345 0.157008 0)
(0.0642848 0.158196 0)
(0.046556 0.157905 0)
(0.0317363 0.155174 0)
(0.0193953 0.150152 0)
(0.00970587 0.142817 0)
(0.00278508 0.133089 0)
(-0.00132795 0.120902 0)
(-0.00269672 0.106186 0)
(-0.00143452 0.0889105 0)
(0.00228713 0.0690881 0)
(0.00822262 0.0467474 0)
(0.0160522 0.0219348 0)
(0.0253854 -0.00527795 0)
(0.0357706 -0.0347809 0)
(0.0466876 -0.0664048 0)
(0.0575761 -0.0999107 0)
(0.0678488 -0.134983 0)
(0.0769194 -0.171226 0)
(0.0842323 -0.208164 0)
(0.0892935 -0.245254 0)
(0.0916976 -0.281906 0)
(0.0911519 -0.317512 0)
(0.0875011 -0.351468 0)
(0.0807085 -0.383195 0)
(0.0708925 -0.412344 0)
(0.0583188 -0.438741 0)
(0.043507 -0.462356 0)
(0.0271744 -0.483034 0)
(0.0132107 -0.493155 0)
(0.255446 0.194936 0)
(0.249507 0.199213 0)
(0.241577 0.202233 0)
(0.23174 0.203955 0)
(0.220137 0.204318 0)
(0.206983 0.203241 0)
(0.192545 0.200615 0)
(0.177052 0.196291 0)
(0.160387 0.190221 0)
(0.142134 0.183265 0)
(0.123764 0.17872 0)
(0.107666 0.176414 0)
(0.0942595 0.173188 0)
(0.0833664 0.167856 0)
(0.0747209 0.160204 0)
(0.0682965 0.150158 0)
(0.0641055 0.137706 0)
(0.0621173 0.122841 0)
(0.0622594 0.105541 0)
(0.0643857 0.0858552 0)
(0.0683022 0.0638616 0)
(0.0737568 0.0396586 0)
(0.08044 0.013361 0)
(0.0879917 -0.0148951 0)
(0.0959984 -0.0449403 0)
(0.104001 -0.0765565 0)
(0.111514 -0.109475 0)
(0.118036 -0.143372 0)
(0.123078 -0.177872 0)
(0.12618 -0.212549 0)
(0.126936 -0.246937 0)
(0.125022 -0.280548 0)
(0.120205 -0.312892 0)
(0.112369 -0.343505 0)
(0.10152 -0.371971 0)
(0.0877907 -0.398069 0)
(0.0714085 -0.421736 0)
(0.052897 -0.44309 0)
(0.033039 -0.462134 0)
(0.0158706 -0.471875 0)
(0.251602 0.198834 0)
(0.248661 0.205044 0)
(0.244176 0.209965 0)
(0.238203 0.213483 0)
(0.230833 0.215476 0)
(0.222206 0.215823 0)
(0.212479 0.214422 0)
(0.201782 0.211222 0)
(0.190107 0.206345 0)
(0.177402 0.200465 0)
(0.16454 0.195061 0)
(0.153083 0.190144 0)
(0.143754 0.18434 0)
(0.136492 0.176662 0)
(0.131139 0.166745 0)
(0.127604 0.154477 0)
(0.125823 0.13987 0)
(0.1257 0.122943 0)
(0.127116 0.103728 0)
(0.1299 0.0823178 0)
(0.133843 0.0588507 0)
(0.138694 0.0334786 0)
(0.14416 0.00636888 0)
(0.149913 -0.0222927 0)
(0.155577 -0.0522924 0)
(0.16075 -0.0833787 0)
(0.165015 -0.115266 0)
(0.167947 -0.147632 0)
(0.169139 -0.180127 0)
(0.168212 -0.212369 0)
(0.164841 -0.243965 0)
(0.158765 -0.274513 0)
(0.14981 -0.30363 0)
(0.137898 -0.33097 0)
(0.123057 -0.356262 0)
(0.105411 -0.379383 0)
(0.0851661 -0.400373 0)
(0.0628487 -0.419469 0)
(0.0393292 -0.436802 0)
(0.0187682 -0.445995 0)
(0.248865 0.199715 0)
(0.248824 0.207401 0)
(0.247645 0.213779 0)
(0.245358 0.218692 0)
(0.242012 0.221979 0)
(0.237683 0.223499 0)
(0.232458 0.223152 0)
(0.226418 0.22092 0)
(0.21961 0.216942 0)
(0.212157 0.211645 0)
(0.204639 0.205709 0)
(0.197978 0.199159 0)
(0.192747 0.191378 0)
(0.189048 0.181776 0)
(0.186797 0.170035 0)
(0.185913 0.156052 0)
(0.186298 0.139833 0)
(0.18783 0.121433 0)
(0.190343 0.100928 0)
(0.193649 0.0784501 0)
(0.197529 0.0541711 0)
(0.201736 0.0282819 0)
(0.205996 0.000989119 0)
(0.21001 -0.0274844 0)
(0.213442 -0.056893 0)
(0.21594 -0.086965 0)
(0.217147 -0.117407 0)
(0.216707 -0.147908 0)
(0.214281 -0.178141 0)
(0.209562 -0.207772 0)
(0.20229 -0.236469 0)
(0.192263 -0.263909 0)
(0.179355 -0.2898 0)
(0.163518 -0.313901 0)
(0.144793 -0.336052 0)
(0.123295 -0.356219 0)
(0.0992087 -0.374532 0)
(0.073063 -0.391316 0)
(0.0458389 -0.406798 0)
(0.0218045 -0.415203 0)
(0.246955 0.197643 0)
(0.249664 0.206384 0)
(0.251594 0.213818 0)
(0.252756 0.219757 0)
(0.253167 0.224019 0)
(0.25286 0.22645 0)
(0.251878 0.226947 0)
(0.250267 0.225485 0)
(0.248094 0.222157 0)
(0.245506 0.217207 0)
(0.242883 0.210927 0)
(0.240749 0.203359 0)
(0.239498 0.194246 0)
(0.239254 0.183259 0)
(0.239988 0.170203 0)
(0.241614 0.155022 0)
(0.244019 0.137742 0)
(0.247059 0.118447 0)
(0.25056 0.0972549 0)
(0.254322 0.0743256 0)
(0.258121 0.0498527 0)
(0.26172 0.0240537 0)
(0.264861 -0.00283709 0)
(0.26727 -0.030571 0)
(0.268647 -0.058882 0)
(0.268687 -0.087488 0)
(0.267085 -0.116097 0)
(0.263542 -0.14441 0)
(0.25778 -0.172131 0)
(0.249551 -0.198967 0)
(0.23865 -0.22464 0)
(0.224927 -0.2489 0)
(0.20829 -0.271534 0)
(0.188721 -0.292387 0)
(0.16627 -0.311387 0)
(0.141041 -0.32858 0)
(0.113197 -0.34417 0)
(0.0832739 -0.358547 0)
(0.0523848 -0.371999 0)
(0.024893 -0.379332 0)
(0.24554 0.192735 0)
(0.250801 0.202159 0)
(0.255597 0.210284 0)
(0.259924 0.216911 0)
(0.263779 0.221846 0)
(0.267166 0.224927 0)
(0.270093 0.226041 0)
(0.272581 0.225141 0)
(0.274679 0.222266 0)
(0.276501 0.217536 0)
(0.278265 0.211085 0)
(0.280265 0.202949 0)
(0.282733 0.193029 0)
(0.285754 0.181197 0)
(0.28931 0.167357 0)
(0.29331 0.151499 0)
(0.297622 0.133688 0)
(0.302093 0.114051 0)
(0.306546 0.0927429 0)
(0.310768 0.0699426 0)
(0.314543 0.0458491 0)
(0.317638 0.0207012 0)
(0.319813 -0.00524664 0)
(0.320815 -0.0317299 0)
(0.320377 -0.0584721 0)
(0.318232 -0.085189 0)
(0.31412 -0.111596 0)
(0.30779 -0.137411 0)
(0.299015 -0.162368 0)
(0.287597 -0.186213 0)
(0.273378 -0.208721 0)
(0.256246 -0.229702 0)
(0.236144 -0.249012 0)
(0.213075 -0.266568 0)
(0.187096 -0.282372 0)
(0.158304 -0.296537 0)
(0.12684 -0.30932 0)
(0.0932557 -0.321159 0)
(0.0588135 -0.332378 0)
(0.0279635 -0.33834 0)
(0.24426 0.185163 0)
(0.251838 0.194938 0)
(0.25922 0.203433 0)
(0.266394 0.210445 0)
(0.27334 0.215776 0)
(0.280042 0.21926 0)
(0.286483 0.220773 0)
(0.292656 0.220249 0)
(0.298578 0.217683 0)
(0.304307 0.213124 0)
(0.30995 0.20664 0)
(0.315644 0.198268 0)
(0.321495 0.187982 0)
(0.327528 0.175763 0)
(0.333706 0.161607 0)
(0.339926 0.145566 0)
(0.346045 0.127745 0)
(0.351901 0.10829 0)
(0.357302 0.0873799 0)
(0.362039 0.06523 0)
(0.365901 0.042042 0)
(0.368656 0.0180612 0)
(0.370075 -0.00644519 0)
(0.369923 -0.0312049 0)
(0.367959 -0.0559389 0)
(0.363949 -0.0803679 0)
(0.357667 -0.104219 0)
(0.348905 -0.127232 0)
(0.337474 -0.149169 0)
(0.323219 -0.169816 0)
(0.306019 -0.188995 0)
(0.285796 -0.206571 0)
(0.262522 -0.222457 0)
(0.236215 -0.236634 0)
(0.206944 -0.249164 0)
(0.174798 -0.260211 0)
(0.139899 -0.270079 0)
(0.102824 -0.279228 0)
(0.0650016 -0.287997 0)
(0.0309617 -0.292293 0)
(0.242748 0.175142 0)
(0.25238 0.184982 0)
(0.262043 0.193568 0)
(0.271718 0.200698 0)
(0.281375 0.206178 0)
(0.290979 0.209842 0)
(0.300496 0.211561 0)
(0.309891 0.211255 0)
(0.319147 0.208892 0)
(0.328265 0.204488 0)
(0.33727 0.198076 0)
(0.346198 0.189699 0)
(0.355056 0.179386 0)
(0.363817 0.167178 0)
(0.372402 0.153131 0)
(0.380684 0.137342 0)
(0.388514 0.119954 0)
(0.395715 0.101142 0)
(0.402089 0.0811073 0)
(0.407433 0.0600738 0)
(0.411528 0.0382582 0)
(0.414143 0.0159116 0)
(0.415054 -0.00669769 0)
(0.41404 -0.0292975 0)
(0.410877 -0.0516135 0)
(0.405354 -0.0733765 0)
(0.397274 -0.0943304 0)
(0.386459 -0.114239 0)
(0.372754 -0.132894 0)
(0.356034 -0.150121 0)
(0.336211 -0.165785 0)
(0.313236 -0.179799 0)
(0.287102 -0.192132 0)
(0.257847 -0.202815 0)
(0.225547 -0.211961 0)
(0.190289 -0.219778 0)
(0.152181 -0.226599 0)
(0.111832 -0.232895 0)
(0.0708535 -0.238994 0)
(0.0338482 -0.241339 0)
(0.240655 0.162922 0)
(0.252057 0.172587 0)
(0.263678 0.181026 0)
(0.275492 0.188046 0)
(0.287461 0.193462 0)
(0.299538 0.197113 0)
(0.311672 0.19887 0)
(0.323806 0.198649 0)
(0.335891 0.196407 0)
(0.347882 0.192142 0)
(0.359745 0.185882 0)
(0.371442 0.177674 0)
(0.382918 0.16758 0)
(0.394092 0.155681 0)
(0.404848 0.142081 0)
(0.415039 0.126916 0)
(0.424494 0.110348 0)
(0.433022 0.0925772 0)
(0.44042 0.0738209 0)
(0.446478 0.0543117 0)
(0.450971 0.0342821 0)
(0.453667 0.0139851 0)
(0.454344 -0.00631653 0)
(0.452782 -0.0263572 0)
(0.448768 -0.0458729 0)
(0.442107 -0.0646101 0)
(0.432619 -0.0823333 0)
(0.420146 -0.0988336 0)
(0.404559 -0.113935 0)
(0.385759 -0.127501 0)
(0.363683 -0.13944 0)
(0.338305 -0.149712 0)
(0.30964 -0.158331 0)
(0.277743 -0.165377 0)
(0.242699 -0.171005 0)
(0.204597 -0.175457 0)
(0.163537 -0.179086 0)
(0.120168 -0.182359 0)
(0.0762973 -0.185572 0)
(0.0365967 -0.185691 0)
(0.237664 0.148783 0)
(0.250539 0.158073 0)
(0.263783 0.166169 0)
(0.277367 0.172891 0)
(0.291244 0.178065 0)
(0.305361 0.181539 0)
(0.319651 0.183193 0)
(0.334042 0.182944 0)
(0.348458 0.18075 0)
(0.362823 0.176605 0)
(0.377059 0.170542 0)
(0.391079 0.162618 0)
(0.404784 0.152918 0)
(0.418053 0.14155 0)
(0.430738 0.128652 0)
(0.442673 0.114387 0)
(0.453666 0.0989442 0)
(0.463511 0.0825362 0)
(0.471994 0.0653927 0)
(0.478889 0.047755 0)
(0.483963 0.029867 0)
(0.48698 0.0119802 0)
(0.48771 -0.00565002 0)
(0.48593 -0.0227689 0)
(0.481427 -0.039128 0)
(0.47401 -0.0544942 0)
(0.463506 -0.0686583 0)
(0.449774 -0.0814422 0)
(0.432699 -0.0927057 0)
(0.412204 -0.102352 0)
(0.388245 -0.110334 0)
(0.360818 -0.116653 0)
(0.329957 -0.121372 0)
(0.295733 -0.124612 0)
(0.258245 -0.126564 0)
(0.217586 -0.127501 0)
(0.173855 -0.127785 0)
(0.127748 -0.127866 0)
(0.0812771 -0.127983 0)
(0.0391874 -0.125625 0)
(0.233498 0.133026 0)
(0.247543 0.141781 0)
(0.262073 0.149377 0)
(0.277057 0.155648 0)
(0.292444 0.160435 0)
(0.308173 0.163599 0)
(0.32417 0.165032 0)
(0.340351 0.164659 0)
(0.356623 0.162445 0)
(0.372888 0.158392 0)
(0.389039 0.152539 0)
(0.404962 0.144959 0)
(0.420524 0.135756 0)
(0.435578 0.125062 0)
(0.449956 0.113038 0)
(0.463469 0.0998704 0)
(0.475913 0.0857681 0)
(0.487066 0.0709596 0)
(0.496695 0.0556864 0)
(0.50456 0.040197 0)
(0.510412 0.0247416 0)
(0.514001 0.00957011 0)
(0.515082 -0.0050701 0)
(0.513417 -0.0189385 0)
(0.508786 -0.031807 0)
(0.50099 -0.0434689 0)
(0.48986 -0.0537468 0)
(0.475257 -0.0624993 0)
(0.45708 -0.0696269 0)
(0.435264 -0.0750764 0)
(0.409786 -0.0788445 0)
(0.380658 -0.08098 0)
(0.347934 -0.0815874 0)
(0.311703 -0.08083 0)
(0.272079 -0.0789337 0)
(0.229163 -0.0761929 0)
(0.183057 -0.0729755 0)
(0.134511 -0.069695 0)
(0.0857345 -0.0665167 0)
(0.0415641 -0.0614908 0)
(0.227935 0.115966 0)
(0.242845 0.12406 0)
(0.258328 0.131034 0)
(0.27435 0.136736 0)
(0.290858 0.141022 0)
(0.307788 0.143769 0)
(0.325061 0.144883 0)
(0.342587 0.144302 0)
(0.360265 0.142002 0)
(0.377986 0.137998 0)
(0.395628 0.13234 0)
(0.413059 0.125118 0)
(0.430132 0.116452 0)
(0.446681 0.106498 0)
(0.462525 0.0954361 0)
(0.477463 0.0834754 0)
(0.491277 0.0708443 0)
(0.50373 0.0577873 0)
(0.514573 0.0445591 0)
(0.523546 0.0314182 0)
(0.530377 0.0186205 0)
(0.534792 0.00641544 0)
(0.53652 -0.00495849 0)
(0.535302 -0.0152777 0)
(0.530895 -0.0243399 0)
(0.523087 -0.0319717 0)
(0.511702 -0.0380349 0)
(0.4966 -0.0424323 0)
(0.477685 -0.0451118 0)
(0.454907 -0.0460691 0)
(0.428255 -0.0453496 0)
(0.397764 -0.0430495 0)
(0.363504 -0.0393175 0)
(0.325585 -0.0343564 0)
(0.284136 -0.0284245 0)
(0.239269 -0.0218374 0)
(0.191098 -0.0149604 0)
(0.140417 -0.00816141 0)
(0.0895766 -0.00151717 0)
(0.043529 0.00632015 0)
(0.220804 0.097929 0)
(0.236279 0.105268 0)
(0.252389 0.111527 0)
(0.269098 0.11657 0)
(0.286354 0.120268 0)
(0.304092 0.122513 0)
(0.322232 0.123227 0)
(0.340686 0.122362 0)
(0.35935 0.119909 0)
(0.378114 0.115895 0)
(0.396853 0.110388 0)
(0.415428 0.103491 0)
(0.433688 0.0953462 0)
(0.451463 0.0861273 0)
(0.468564 0.0760387 0)
(0.484786 0.0653107 0)
(0.499898 0.0541938 0)
(0.513654 0.0429533 0)
(0.525786 0.031862 0)
(0.536008 0.0211932 0)
(0.544022 0.0112127 0)
(0.549519 0.00217216 0)
(0.552192 -0.0056979 0)
(0.551742 -0.0121943 0)
(0.547898 -0.0171473 0)
(0.540424 -0.0204258 0)
(0.52913 -0.0219408 0)
(0.513872 -0.0216493 0)
(0.494557 -0.0195557 0)
(0.471147 -0.0157117 0)
(0.443648 -0.0102167 0)
(0.412113 -0.00321672 0)
(0.376634 0.00509435 0)
(0.337339 0.0144746 0)
(0.294376 0.0246349 0)
(0.247871 0.0352432 0)
(0.197951 0.0459413 0)
(0.145438 0.0564121 0)
(0.0927194 0.066676 0)
(0.0448524 0.0774763 0)
(0.211995 0.0792461 0)
(0.227742 0.0857624 0)
(0.244162 0.0912413 0)
(0.261222 0.0955592 0)
(0.278869 0.0986023 0)
(0.29704 0.100278 0)
(0.315662 0.100522 0)
(0.334649 0.0993027 0)
(0.353907 0.0966232 0)
(0.373329 0.0925266 0)
(0.392796 0.0870953 0)
(0.412177 0.0804513 0)
(0.431324 0.0727549 0)
(0.450073 0.0642022 0)
(0.468238 0.055022 0)
(0.485613 0.0454704 0)
(0.501965 0.0358255 0)
(0.517035 0.0263804 0)
(0.530538 0.0174346 0)
(0.542161 0.00928517 0)
(0.55157 0.00221656 0)
(0.558409 -0.00351075 0)
(0.562319 -0.0076722 0)
(0.562951 -0.0100895 0)
(0.559992 -0.0106357 0)
(0.553175 -0.00923399 0)
(0.542288 -0.00585802 0)
(0.527183 -0.000531748 0)
(0.507771 0.00667231 0)
(0.484025 0.0156373 0)
(0.455973 0.0262056 0)
(0.423688 0.0381783 0)
(0.387284 0.0513149 0)
(0.34691 0.0653347 0)
(0.302736 0.0799208 0)
(0.254906 0.0947283 0)
(0.203556 0.10941 0)
(0.149527 0.123702 0)
(0.0951702 0.137723 0)
(0.0456433 0.151602 0)
(0.201457 0.060251 0)
(0.217191 0.0659023 0)
(0.233617 0.0705574 0)
(0.250702 0.0741052 0)
(0.268397 0.076445 0)
(0.286646 0.0774976 0)
(0.305383 0.0772116 0)
(0.324532 0.0755676 0)
(0.344011 0.0725825 0)
(0.363726 0.0683126 0)
(0.383574 0.0628552 0)
(0.403438 0.0563496 0)
(0.423187 0.0489766 0)
(0.44267 0.0409566 0)
(0.461715 0.0325462 0)
(0.480121 0.0240338 0)
(0.497658 0.0157328 0)
(0.514061 0.00797475 0)
(0.529026 0.0010984 0)
(0.542211 -0.0045616 0)
(0.553235 -0.00868816 0)
(0.561686 -0.0109996 0)
(0.567132 -0.0112728 0)
(0.569157 -0.00936166 0)
(0.567388 -0.00519733 0)
(0.561522 0.00122466 0)
(0.551325 0.00985173 0)
(0.536639 0.0205767 0)
(0.517384 0.0332432 0)
(0.493555 0.0476585 0)
(0.465204 0.0636013 0)
(0.432431 0.0808188 0)
(0.395374 0.0990227 0)
(0.354208 0.117894 0)
(0.309124 0.137092 0)
(0.260284 0.156265 0)
(0.207838 0.175081 0)
(0.152634 0.193329 0)
(0.0969606 0.211215 0)
(0.0460753 0.228188 0)
(0.189204 0.0412778 0)
(0.204648 0.0460441 0)
(0.220784 0.049854 0)
(0.237582 0.0526063 0)
(0.254997 0.0542113 0)
(0.272981 0.0546002 0)
(0.291479 0.0537313 0)
(0.310431 0.051595 0)
(0.329771 0.0482181 0)
(0.349425 0.0436675 0)
(0.369313 0.0380539 0)
(0.389344 0.031533 0)
(0.409411 0.0243067 0)
(0.429389 0.0166222 0)
(0.449126 0.00876957 0)
(0.468437 0.00107662 0)
(0.487102 -0.00609709 0)
(0.504853 -0.0123683 0)
(0.521371 -0.0173418 0)
(0.536283 -0.020626 0)
(0.549159 -0.0218499 0)
(0.559512 -0.0206888 0)
(0.566812 -0.0169103 0)
(0.570543 -0.0104124 0)
(0.570258 -0.00121154 0)
(0.565612 0.0105991 0)
(0.556347 0.0248677 0)
(0.542298 0.0413821 0)
(0.523403 0.0598786 0)
(0.499692 0.0800744 0)
(0.47126 0.101684 0)
(0.438235 0.124405 0)
(0.400783 0.147901 0)
(0.359105 0.171817 0)
(0.313417 0.195791 0)
(0.2639 0.219473 0)
(0.210717 0.242554 0)
(0.154713 0.264875 0)