/*--------------------------------*- C++ -*----------------------------------*\
| =========                 |                                                 |
| \\      /  F ield         | OpenFOAM: The Open Source CFD Toolbox           |
|  \\    /   O peration     | Version:  5.0                                   |
|   \\  /    A nd           | Web:      www.OpenFOAM.org                      |
|    \\/     M anipulation  |                                                 |
\*---------------------------------------------------------------------------*/
FoamFile
{
    version     2.0;
    format      ascii;
    class       volScalarField;
    location    "0.7";
    object      alpha.water;
}
// * * * * * * * * * * * * * * * * * * * * * * * * * * * * * * * * * * * * * //

dimensions      [0 0 0 0 0 0 0];

internalField   nonuniform List<scalar> 
1935
(
1
1
1
1
1
1
1
1
1
1
1
1
1
1
1
1
1
1
1
1
1
1
1
1
1
1
1
1
1
1
1
1
1
1
1
1
1
1
0.995432
0.970486
0.988148
1
0.999421
0.99861
1
1
1
1
1
1
1
1
1
1
1
1
1
1
1
1
1
1
1
1
1
1
1
1
1
1
1
1
1
1
1
1
1
1
1
1
1
1
0.998851
0.983578
0.980228
0.995426
0.989992
0.973458
1
1
1
1
1
1
1
1
1
1
1
1
1
1
1
1
1
1
1
1
1
1
1
1
1
1
1
1
1
1
1
1
1
1
1
1
1
1
1
0.999551
0.993661
0.983008
0.970146
0.970146
1
1
1
1
1
1
1
1
1
1
1
1
1
1
1
1
1
1
1
1
1
1
1
1
1
1
1
1
1
1
1
1
1
1
1
1
1
1
1
1
1
0.99646
0.975575
0.970146
1
1
1
1
1
1
1
1
1
1
1
1
1
1
1
1
1
1
1
1
1
1
1
1
1
1
1
1
1
1
1
1
1
1
1
1
1
1
1
1
1
1
0.997139
0.981916
1
1
1
1
1
1
1
1
1
1
1
1
1
1
1
1
1
1
1
1
1
1
1
1
1
1
1
1
1
1
1
1
1
1
1
1
1
1
1
1
1
1
1
1
1
1
1
1
1
1
1
1
1
1
1
1
1
1
1
1
1
1
1
1
1
1
1
1
1
1
1
1
1
1
1
1
1
1
1
1
1
1
1
1
1
1
1
1
1
1
1
1
1
1
1
1
1
1
1
1
1
1
1
1
1
1
1
1
1
1
1
1
1
1
1
1
1
1
1
1
1
1
1
1
1
1
1
1
1
1
1
1
0.994242
0.995389
0.996718
0.997014
0.996923
0.997284
0.998302
0.999559
0.999998
0.999999
0.999999
1
1
1
1
1
1
1
1
1
1
1
1
1
1
1
1
1
1
1
1
1
1
1
1
1
1
1
1
1
1
1
1
1
0.423698
0.465321
0.495666
0.503917
0.504311
0.510987
0.529593
0.564349
0.611797
0.667688
0.733327
0.803085
0.870386
0.928988
0.972786
0.996455
1
1
1
1
1
1
1
1
1
1
1
1
1
1
1
1
1
1
1
1
1
1
1
1
1
1
1
1
-4.43638e-12
-2.09889e-12
-9.5486e-13
-4.47477e-13
-7.77639e-11
-2.50515e-10
-3.59233e-10
-2.43015e-10
0.00594332
0.0236786
0.0509999
0.0913795
0.149326
0.231134
0.345708
0.500211
0.667035
0.805255
0.910929
0.981491
1
1
1
1
1
1
1
1
1
1
1
1
1
1
1
1
1
1
1
1
1
1
1
1
-9.00708e-12
-8.13587e-12
-5.49051e-12
-3.71085e-12
-9.97132e-10
-3.46292e-09
-7.72301e-09
-1.32717e-08
-1.858e-08
-2.17653e-08
-2.19813e-08
-1.92202e-08
-1.46785e-08
-9.92945e-09
-1.97181e-11
0.000165808
0.0163664
0.076904
0.18323
0.3476
0.577098
0.787429
0.929011
1
1
1
1
1
1
1
1
1
1
1
1
1
1
1
1
1
1
1
1
1
-7.82264e-12
-7.84232e-12
-4.64261e-12
-3.41013e-12
-1.9336e-09
-6.29424e-09
-1.35174e-08
-2.28833e-08
-3.23349e-08
-3.94e-08
-4.23115e-08
-4.07265e-08
-3.58423e-08
-3.00731e-08
-2.12409e-13
-4.77406e-13
3.6569e-08
2.03298e-07
6.5527e-07
1.77008e-06
0.00869125
0.0609281
0.183561
0.40229
0.678484
0.900985
1
1
1
1
1
1
1
1
1
1
1
1
1
1
1
1
1
1
-5.65297e-12
-5.28686e-12
-2.50561e-12
-1.90647e-12
-2.06661e-09
-6.45266e-09
-1.34715e-08
-2.23856e-08
-3.14063e-08
-3.84483e-08
-4.19871e-08
-4.16479e-08
-3.84622e-08
-3.49168e-08
-3.46158e-08
-3.49095e-08
-9.9337e-11
-4.54107e-10
-4.33713e-11
8.68146e-09
1.10884e-07
7.28183e-07
2.40128e-06
0.000115763
0.040972
0.163679
0.399671
0.675852
0.919646
1
1
1
1
1
1
1
1
1
1
1
1
1
1
1
-3.53071e-12
-2.77814e-12
-1.13011e-12
-8.26625e-13
-1.286e-09
-3.98408e-09
-8.23292e-09
-1.35516e-08
-1.89286e-08
-2.32361e-08
-2.56514e-08
-2.59748e-08
-2.49106e-08
-2.44242e-08
-2.80322e-08
-4.06734e-08
-6.25443e-08
-8.2291e-08
-3.08103e-08
1.20205e-24
0
4.93594e-09
2.23706e-08
5.22058e-08
9.73386e-07
3.56151e-06
0.000133263
0.0391645
0.219397
0.571267
0.81856
1
1
1
1
1
1
1
1
1
1
1
1
1
-1.91437e-12
-1.19712e-12
-4.31153e-13
-2.99436e-13
-4.73286e-10
-1.48685e-09
-3.05558e-09
-4.98749e-09
-6.93433e-09
-8.52435e-09
-9.48695e-09
-9.78283e-09
-9.8284e-09
-1.08972e-08
-1.56572e-08
-2.84004e-08
-5.47645e-08
-1.0102e-07
-1.70669e-07
-2.56504e-07
-3.0534e-07
6.01531e-25
2.38844e-24
-2.70767e-14
8.19257e-09
4.99972e-08
9.57854e-08
1.36043e-06
5.9223e-06
0.0127657
0.111159
0.396699
0.762789
0.98194
1
1
1
1
1
1
1
1
1
1
-8.99521e-13
-4.24806e-13
-1.44831e-13
-9.48809e-14
-9.7333e-11
-3.14423e-10
-6.363e-10
-1.0163e-09
-1.38958e-09
-1.69321e-09
-1.88338e-09
-1.9802e-09
-2.2004e-09
-3.23118e-09
-6.67287e-09
-1.54391e-08
-3.39442e-08
-6.81324e-08
-1.25284e-07
-2.1227e-07
-3.29094e-07
-4.37599e-07
-5.32671e-07
-5.52432e-07
-9.64694e-12
-9.34599e-27
-4.88173e-14
2.07411e-08
9.80199e-08
5.304e-07
3.13672e-06
0.000295974
0.0742115
0.325652
0.696679
0.960618
1
1
1
1
1
1
1
1
-3.69758e-13
-1.24952e-13
-4.54671e-14
-2.78016e-14
-8.7945e-12
-2.94382e-11
-5.72032e-11
-8.61626e-11
-1.1129e-10
-1.29274e-10
-1.388e-10
-1.55663e-10
-2.7145e-10
-7.86111e-10
-2.43339e-09
-6.71341e-09
-1.61776e-08
-3.47099e-08
-6.77954e-08
-1.22368e-07
-2.05231e-07
-3.19168e-07
-4.65051e-07
-6.3309e-07
-6.81671e-07
-6.32486e-07
-3.64344e-07
0
9.65657e-24
6.30866e-09
4.79872e-08
9.83213e-08
1.78565e-06
5.18507e-06
0.0429771
0.259273
0.61099
0.936617
0.999937
1
1
1
1
1
-1.36011e-13
-3.35951e-14
-1.31071e-14
-7.83136e-15
-6.73029e-15
-8.43781e-15
-1.58929e-14
-3.49931e-14
-7.59144e-14
-1.62207e-13
-3.62953e-13
-5.47286e-12
-4.41072e-11
-2.14649e-10
-7.68471e-10
-2.25625e-09
-5.74414e-09
-1.30677e-08
-2.71699e-08
-5.23716e-08
-9.41253e-08
-1.58229e-07
-2.51386e-07
-3.79623e-07
-5.23892e-07
-6.53959e-07
-7.24441e-07
-6.2032e-07
-2.64856e-07
-6.06736e-25
-7.33986e-26
1.11908e-09
3.27702e-08
7.90795e-08
6.52875e-07
1.78542e-06
0.0188623
0.191504
0.495079
0.880968
0.989038
0.999997
0.999999
1
-4.49573e-14
-8.92615e-15
-3.42641e-15
-2.13524e-15
-2.26825e-15
-3.80387e-15
-8.03751e-15
-1.73871e-14
-3.59433e-14
-7.22811e-14
-1.49282e-13
-1.29882e-12
-9.85201e-12
-4.84518e-11
-1.77655e-10
-5.33885e-10
-1.41913e-09
-3.43208e-09
-7.68581e-09
-1.60853e-08
-3.15128e-08
-5.78084e-08
-1.00081e-07
-1.64767e-07
-2.5489e-07
-3.66689e-07
-4.87832e-07
-5.73027e-07
-5.32909e-07
-3.85755e-07
-1.43544e-07
0
0
1.04488e-09
1.10231e-08
1.73356e-08
1.18174e-07
1.84295e-07
0.0031682
0.104237
0.374578
0.82718
0.973152
0.999997
-1.23518e-14
-2.16391e-15
-7.87462e-16
-5.88363e-16
-9.15906e-16
-2.01538e-15
-4.56204e-15
-9.673e-15
-1.91589e-14
-3.63398e-14
-6.85304e-14
-2.6159e-13
-1.50989e-12
-7.12254e-12
-2.63427e-11
-8.06912e-11
-2.20915e-10
-5.72219e-10
-1.41365e-09
-3.32172e-09
-7.35637e-09
-1.52446e-08
-2.96268e-08
-5.43078e-08
-9.35319e-08
-1.50734e-07
-2.26847e-07
-3.11904e-07
-3.68937e-07
-3.76978e-07
-3.18898e-07
-1.99624e-07
-4.80389e-08
-1.86672e-26
0
1.4279e-10
1.70947e-09
9.84399e-10
3.40747e-09
1.57998e-10
1.44521e-08
0.0495818
0.372273
0.881689
0.999996
-2.46942e-15
-4.15735e-16
-1.62387e-16
-1.97455e-16
-4.63763e-16
-1.19229e-15
-2.78804e-15
-5.87688e-15
-1.1466e-14
-2.12702e-14
-3.8396e-14
-7.71362e-14
-2.0791e-13
-6.89045e-13
-2.27285e-12
-6.82473e-12
-1.87005e-11
-5.2369e-11
-1.50377e-10
-4.24563e-10
-1.13435e-09
-2.80788e-09
-6.41749e-09
-1.35988e-08
-2.67133e-08
-4.86763e-08
-8.24461e-08
-1.28466e-07
-1.7779e-07
-2.18782e-07
-2.36009e-07
-2.11266e-07
-1.55474e-07
-8.94037e-08
-2.25924e-08
-1.6624e-10
-2.78873e-28
-9.5346e-13
1.60379e-11
7.50969e-13
4.46982e-11
1.44365e-08
3.97302e-06
0.112605
0.694099
-3.31429e-16
-6.07296e-17
-3.98839e-17
-9.35292e-17
-2.72421e-16
-7.40932e-16
-1.75493e-15
-3.71223e-15
-7.28199e-15
-1.36222e-14
-2.47175e-14
-4.40317e-14
-7.84778e-14
-1.45165e-13
-2.92202e-13
-6.54685e-13
-1.58899e-12
-4.22265e-12
-1.29191e-11
-4.20307e-11
-1.3409e-10
-3.9909e-10
-1.08858e-09
-2.71482e-09
-6.18612e-09
-1.29032e-08
-2.47458e-08
-4.34896e-08
-6.87172e-08
-9.74969e-08
-1.23302e-07
-1.34915e-07
-1.29155e-07
-1.04904e-07
-7.34156e-08
-4.4065e-08
-1.92004e-08
-6.43387e-10
-3.89373e-16
-5.5078e-15
-1.38551e-15
4.49231e-11
2.1369e-08
4.03815e-06
0.0454606
-2.71976e-17
-8.48365e-18
-1.61811e-17
-5.40344e-17
-1.68093e-16
-4.65502e-16
-1.10872e-15
-2.3626e-15
-4.70389e-15
-8.99689e-15
-1.67482e-14
-3.05123e-14
-5.48303e-14
-9.90626e-14
-1.85812e-13
-3.7345e-13
-8.10303e-13
-1.85588e-12
-4.40911e-12
-1.08262e-11
-2.77682e-11
-7.41354e-11
-2.00494e-10
-5.29659e-10
-1.3247e-09
-3.07698e-09
-6.58872e-09
-1.29324e-08
-2.29897e-08
-3.68913e-08
-5.31883e-08
-6.76792e-08
-7.64886e-08
-7.61032e-08
-6.91939e-08
-5.72111e-08
-4.26979e-08
-2.67536e-08
-1.44746e-08
-2.99129e-09
-1.53558e-10
0
1.70003e-10
5.23082e-08
5.75062e-06
-2.04021e-18
-2.55605e-18
-8.97422e-18
-3.27973e-17
-1.04246e-16
-2.90935e-16
-6.95174e-16
-1.49577e-15
-3.03851e-15
-5.97752e-15
-1.14786e-14
-2.15228e-14
-3.94822e-14
-7.15456e-14
-1.30515e-13
-2.45418e-13
-4.83967e-13
-1.00125e-12
-2.14923e-12
-4.73856e-12
-1.06183e-11
-2.42121e-11
-5.65518e-11
-1.35297e-10
-3.26226e-10
-7.71129e-10
-1.7412e-09
-3.68232e-09
-7.17305e-09
-1.27514e-08
-2.05529e-08
-2.96409e-08
-3.83184e-08
-4.44902e-08
-4.77708e-08
-4.75358e-08
-4.39173e-08
-3.68992e-08
-2.78458e-08
-1.70621e-08
-8.59603e-09
-2.62412e-09
7.50504e-26
5.13853e-10
9.88713e-08
-7.46074e-19
-1.36465e-18
-5.28608e-18
-1.99167e-17
-6.40586e-17
-1.79574e-16
-4.30306e-16
-9.37812e-16
-1.95308e-15
-3.96592e-15
-7.86171e-15
-1.51507e-14
-2.83565e-14
-5.18231e-14
-9.35772e-14
-1.69629e-13
-3.13454e-13
-5.95784e-13
-1.16432e-12
-2.34217e-12
-4.82166e-12
-1.01023e-11
-2.1502e-11
-4.65913e-11
-1.02867e-10
-2.29711e-10
-5.09743e-10
-1.09858e-09
-2.24801e-09
-4.29185e-09
-7.54956e-09
-1.20649e-08
-1.74674e-08
-2.3009e-08
-2.81293e-08
-3.20707e-08
-3.41879e-08
-3.3854e-08
-3.08078e-08
-2.49027e-08
-1.74528e-08
-9.9335e-09
-2.81475e-09
-1.50101e-25
5.92748e-10
-4.54096e-19
-7.69709e-19
-3.10415e-18
-1.19526e-17
-3.87567e-17
-1.08951e-16
-2.62107e-16
-5.81209e-16
-1.24693e-15
-2.61846e-15
-5.34947e-15
-1.05575e-14
-2.00972e-14
-3.70643e-14
-6.68096e-14
-1.19018e-13
-2.11901e-13
-3.80378e-13
-6.91552e-13
-1.27702e-12
-2.41042e-12
-4.64814e-12
-9.15922e-12
-1.84411e-11
-3.79281e-11
-7.95147e-11
-1.68661e-10
-3.56707e-10
-7.37857e-10
-1.46345e-09
-2.73423e-09
-4.72983e-09
-7.51363e-09
-1.09765e-08
-1.49193e-08
-1.8957e-08
-2.25795e-08
-2.51794e-08
-2.61201e-08
-2.4746e-08
-2.10099e-08
-1.55132e-08
-9.23825e-09
-1.57714e-09
-4.67201e-13
-2.52828e-19
-4.25528e-19
-1.79834e-18
-7.04944e-18
-2.29817e-17
-6.47397e-17
-1.56761e-16
-3.55641e-16
-7.89186e-16
-1.7134e-15
-3.59467e-15
-7.23153e-15
-1.39501e-14
-2.59454e-14
-4.69037e-14
-8.31413e-14
-1.45653e-13
-2.53739e-13
-4.41319e-13
-7.67866e-13
-1.34649e-12
-2.39263e-12
-4.33087e-12
-8.02937e-12
-1.53078e-11
-3.00334e-11
-6.04226e-11
-1.23468e-10
-2.52511e-10
-5.07778e-10
-9.84859e-10
-1.80599e-09
-3.08929e-09
-4.91092e-09
-7.28834e-09
-1.01307e-08
-1.32211e-08
-1.6213e-08
-1.86184e-08
-1.9779e-08
-1.91937e-08
-1.67032e-08
-1.26301e-08
-7.6461e-09
-3.93507e-13
-1.27709e-19
-2.30178e-19
-1.02359e-18
-4.0684e-18
-1.33057e-17
-3.75687e-17
-9.19214e-17
-2.14609e-16
-4.9369e-16
-1.10532e-15
-2.3696e-15
-4.83571e-15
-9.42236e-15
-1.76622e-14
-3.21275e-14
-5.71482e-14
-9.99773e-14
-1.7263e-13
-2.94747e-13
-4.98058e-13
-8.3457e-13
-1.39796e-12
-2.35141e-12
-4.00587e-12
-6.97991e-12
-1.25489e-11
-2.33932e-11
-4.51228e-11
-8.91741e-11
-1.77822e-10
-3.50884e-10
-6.69905e-10
-1.21439e-09
-2.06933e-09
-3.30854e-09
-4.96644e-09
-7.01044e-09
-9.31787e-09
-1.16415e-08
-1.35544e-08
-1.45819e-08
-1.43117e-08
-1.25631e-08
-9.58742e-09
-5.06421e-09
-6.17447e-20
-1.22479e-19
-5.70481e-19
-2.28914e-18
-7.4985e-18
-2.12462e-17
-5.27955e-17
-1.27506e-16
-3.03998e-16
-6.98663e-16
-1.52212e-15
-3.13725e-15
-6.16004e-15
-1.16401e-14
-2.13725e-14
-3.84023e-14
-6.77871e-14
-1.1769e-13
-2.00899e-13
-3.36934e-13
-5.5499e-13
-9.01734e-13
-1.45176e-12
-2.32808e-12
-3.75285e-12
-6.15372e-12
-1.03972e-11
-1.82904e-11
-3.36018e-11
-6.40604e-11
-1.24747e-10
-2.42204e-10
-4.57139e-10
-8.23533e-10
-1.40311e-09
-2.25324e-09
-3.40966e-09
-4.8659e-09
-6.54227e-09
-8.23541e-09
-9.64774e-09
-1.04203e-08
-1.02222e-08
-8.93294e-09
-6.56844e-09
-2.91463e-20
-6.41303e-20
-3.10321e-19
-1.25197e-18
-4.10381e-18
-1.16941e-17
-2.96823e-17
-7.44068e-17
-1.83318e-16
-4.29952e-16
-9.46845e-16
-1.96426e-15
-3.88222e-15
-7.40491e-15
-1.37746e-14
-2.51424e-14
-4.51032e-14
-7.94122e-14
-1.36896e-13
-2.3059e-13
-3.79179e-13
-6.09195e-13
-9.62233e-13
-1.49675e-12
-2.30581e-12
-3.54742e-12
-5.51275e-12
-8.7798e-12
-1.45452e-11
-2.53292e-11
-4.63774e-11
-8.78994e-11
-1.67688e-10
-3.1308e-10
-5.61036e-10
-9.55027e-10
-1.53788e-09
-2.34035e-09
-3.36147e-09
-4.53484e-09
-5.72026e-09
-6.697e-09
-7.18765e-09
-6.96123e-09
-5.92841e-09
-1.35284e-20
-3.29905e-20
-1.64358e-19
-6.64261e-19
-2.17845e-18
-6.26246e-18
-1.63286e-17
-4.25132e-17
-1.07653e-16
-2.56036e-16
-5.67308e-16
-1.18185e-15
-2.35168e-15
-4.53926e-15
-8.59064e-15
-1.60046e-14
-2.93067e-14
-5.25206e-14
-9.17243e-14
-1.55688e-13
-2.56619e-13
-4.11064e-13
-6.42707e-13
-9.85638e-13
-1.48601e-12
-2.21392e-12
-3.28231e-12
-4.89054e-12
-7.42361e-12
-1.16753e-11
-1.9347e-11
-3.40082e-11
-6.25617e-11
-1.16962e-10
-2.15621e-10
-3.83748e-10
-6.51714e-10
-1.05062e-09
-1.60272e-09
-2.30296e-09
-3.10458e-09
-3.90148e-09
-4.52137e-09
-4.76686e-09
-4.49727e-09
-6.18801e-21
-1.66563e-20
-8.46952e-20
-3.4181e-19
-1.12225e-18
-3.26712e-18
-8.79066e-18
-2.37032e-17
-6.1238e-17
-1.46766e-16
-3.25966e-16
-6.8117e-16
-1.36659e-15
-2.67884e-15
-5.17994e-15
-9.88339e-15
-1.85014e-14
-3.37343e-14
-5.95824e-14
-1.01671e-13
-1.67599e-13
-2.67356e-13
-4.13927e-13
-6.27335e-13
-9.3275e-13
-1.36608e-12
-1.97982e-12
-2.85556e-12
-4.13251e-12
-6.07219e-12
-9.21466e-12
-1.47279e-11
-2.50521e-11
-4.48609e-11
-8.22057e-11
-1.49535e-10
-2.64094e-10
-4.47033e-10
-7.19883e-10
-1.09612e-09
-1.57081e-09
-2.10529e-09
-2.61255e-09
-2.9653e-09
-3.0401e-09
-2.79042e-21
-8.26525e-21
-4.25504e-20
-1.70997e-19
-5.62965e-19
-1.66667e-18
-4.63794e-18
-1.28627e-17
-3.36022e-17
-8.06654e-17
-1.79067e-16
-3.75327e-16
-7.61085e-16
-1.52115e-15
-3.016e-15
-5.9009e-15
-1.12758e-14
-2.08421e-14
-3.70468e-14
-6.32104e-14
-1.03649e-13
-1.63816e-13
-2.50504e-13
-3.73011e-13
-5.45962e-13
-7.87168e-13
-1.12343e-12
-1.59369e-12
-2.25815e-12
-3.21692e-12
-4.65459e-12
-6.95249e-12
-1.0929e-11
-1.8269e-11
-3.2163e-11
-5.80923e-11
-1.04575e-10
-1.83534e-10
-3.09563e-10
-4.96849e-10
-7.5372e-10
-1.07281e-09
-1.41841e-09
-1.72178e-09
-1.89837e-09
-1.24166e-21
-4.05315e-21
-2.09538e-20
-8.36505e-20
-2.76913e-19
-8.36987e-19
-2.40553e-18
-6.78778e-18
-1.7749e-17
-4.2431e-17
-9.39401e-17
-1.97651e-16
-4.0631e-16
-8.30881e-16
-1.69209e-15
-3.38928e-15
-6.58245e-15
-1.22617e-14
-2.17909e-14
-3.69277e-14
-5.98348e-14
-9.30972e-14
-1.39776e-13
-2.03519e-13
-2.90946e-13
-4.10927e-13
-5.76287e-13
-8.06348e-13
-1.12994e-12
-1.59202e-12
-2.26661e-12
-3.29008e-12
-4.9414e-12
-7.80708e-12
-1.30721e-11
-2.29589e-11
-4.12845e-11
-7.40181e-11
-1.29525e-10
-2.17862e-10
-3.48563e-10
-5.25464e-10
-7.3831e-10
-9.55473e-10
-1.12713e-09
-5.47108e-22
-1.97875e-21
-1.01764e-20
-4.02997e-20
-1.34702e-19
-4.1686e-19
-1.23029e-18
-3.48557e-18
-9.0305e-18
-2.13801e-17
-4.71376e-17
-9.97155e-17
-2.08395e-16
-4.36736e-16
-9.1215e-16
-1.86088e-15
-3.648e-15
-6.79908e-15
-1.19942e-14
-2.00453e-14
-3.18741e-14
-4.84914e-14
-7.1004e-14
-1.00651e-13
-1.39204e-13
-1.91052e-13
-2.61442e-13
-3.59402e-13
-4.98579e-13
-7.00228e-13
-9.97816e-13
-1.44714e-12
-2.15221e-12
-3.32299e-12
-5.3912e-12
-9.21575e-12
-1.63987e-11
-2.97002e-11
-5.34511e-11
-9.36916e-11
-1.57604e-10
-2.5127e-10
-3.74952e-10
-5.17064e-10
-6.51753e-10
-2.39745e-22
-9.59499e-22
-4.86211e-21
-1.91322e-20
-6.49497e-20
-2.06017e-19
-6.1884e-19
-1.73971e-18
-4.43258e-18
-1.03495e-17
-2.27233e-17
-4.84747e-17
-1.03236e-16
-2.21356e-16
-4.71126e-16
-9.70053e-16
-1.90178e-15
-3.51781e-15
-6.11561e-15
-1.00092e-14
-1.55124e-14
-2.2918e-14
-3.25007e-14
-4.4539e-14
-5.93419e-14
-7.81708e-14
-1.0337e-13
-1.38549e-13
-1.89661e-13
-2.6616e-13
-3.83176e-13
-5.65179e-13
-8.54844e-13
-1.33306e-12
-2.16192e-12
-3.67069e-12
-6.50987e-12
-1.1894e-11
-2.19255e-11
-3.99125e-11
-7.04615e-11
-1.18775e-10
-1.88397e-10
-2.77239e-10
-3.74226e-10
-1.03807e-22
-4.50191e-22
-2.24323e-21
-8.84011e-21
-3.06835e-20
-9.96297e-20
-3.01645e-19
-8.35738e-19
-2.0893e-18
-4.81306e-18
-1.0569e-17
-2.287e-17
-4.97392e-17
-1.08498e-16
-2.32514e-16
-4.77137e-16
-9.24854e-16
-1.68236e-15
-2.86052e-15
-4.55299e-15
-6.83213e-15
-9.73684e-15
-1.3278e-14
-1.74601e-14
-2.22932e-14
-2.78908e-14
-3.52228e-14
-4.55219e-14
-6.11276e-14
-8.57502e-14
-1.25622e-13
-1.91118e-13
-3.00149e-13
-4.85692e-13
-8.11833e-13
-1.408e-12
-2.53763e-12
-4.72328e-12
-8.94778e-12
-1.69263e-11
-3.13727e-11
-5.59786e-11
-9.45698e-11
-1.49024e-10
-2.16739e-10
-4.31265e-23
-1.97704e-22
-9.77143e-22
-3.90332e-21
-1.39234e-20
-4.60051e-20
-1.38898e-19
-3.77762e-19
-9.2955e-19
-2.13228e-18
-4.73286e-18
-1.04689e-17
-2.32649e-17
-5.12099e-17
-1.0903e-16
-2.20176e-16
-4.16931e-16
-7.37593e-16
-1.21531e-15
-1.86748e-15
-2.69596e-15
-3.68312e-15
-4.79545e-15
-6.00373e-15
-7.28535e-15
-8.62721e-15
-1.02291e-14
-1.25704e-14
-1.64085e-14
-2.30111e-14
-3.45983e-14
-5.51203e-14
-9.16748e-14
-1.57613e-13
-2.78931e-13
-5.08037e-13
-9.53325e-13
-1.83913e-12
-3.61692e-12
-7.1481e-12
-1.39538e-11
-2.64244e-11
-4.77041e-11
-8.10859e-11
-1.28068e-10
-1.69435e-23
-8.06394e-23
-3.98242e-22
-1.62207e-21
-5.93095e-21
-1.97961e-20
-5.9326e-20
-1.58849e-19
-3.86877e-19
-8.90024e-19
-2.00946e-18
-4.55326e-18
-1.03027e-17
-2.27567e-17
-4.78769e-17
-9.43816e-17
-1.72984e-16
-2.94101e-16
-4.64421e-16
-6.83593e-16
-9.42948e-16
-1.22706e-15
-1.51488e-15
-1.79178e-15
-2.04853e-15
-2.28153e-15
-2.50771e-15
-2.88203e-15
-3.6067e-15
-5.05523e-15
-7.89283e-15
-1.34202e-14
-2.4164e-14
-4.51771e-14
-8.67353e-14
-1.70125e-13
-3.40445e-13
-6.94509e-13
-1.4385e-12
-2.99738e-12
-6.19768e-12
-1.25077e-11
-2.4292e-11
-4.50234e-11
-7.76643e-11
-6.22265e-24
-3.03828e-23
-1.50889e-22
-6.28092e-22
-2.34052e-21
-7.82758e-21
-2.31875e-20
-6.12491e-20
-1.48643e-19
-3.45993e-19
-7.99599e-19
-1.85185e-18
-4.22708e-18
-9.26919e-18
-1.91063e-17
-3.65526e-17
-6.45765e-17
-1.05266e-16
-1.58653e-16
-2.21983e-16
-2.89918e-16
-3.55792e-16
-4.13489e-16
-4.58887e-16
-4.90245e-16
-5.08249e-16
-5.16359e-16
-5.41305e-16
-6.37239e-16
-8.92307e-16
-1.47131e-15
-2.7376e-15
-5.47798e-15
-1.14136e-14
-2.43307e-14
-5.25706e-14
-1.14676e-13
-2.52314e-13
-5.59203e-13
-1.2425e-12
-2.74165e-12
-5.93779e-12
-1.25478e-11
-2.56383e-11
-4.83501e-11
-2.1129e-24
-1.05025e-23
-5.26967e-23
-2.24008e-22
-8.45058e-22
-2.81417e-21
-8.22403e-21
-2.1481e-20
-5.21745e-20
-1.23314e-19
-2.91505e-19
-6.86732e-19
-1.57157e-18
-3.39799e-18
-6.81538e-18
-1.25791e-17
-2.13272e-17
-3.32096e-17
-4.7604e-17
-6.30546e-17
-7.75813e-17
-8.9257e-17
-9.67995e-17
-9.98392e-17
-9.88245e-17
-9.47069e-17
-8.85886e-17
-8.29961e-17
-8.90735e-17
-1.23956e-16
-2.2109e-16
-4.653e-16
-1.06742e-15
-2.54459e-15
-6.16156e-15
-1.49735e-14
-3.63094e-14
-8.77371e-14
-2.11319e-13
-5.0669e-13
-1.20431e-12
-2.8309e-12
-6.59872e-12
-1.49704e-11
-3.0751e-11
-6.55611e-25
-3.30091e-24
-1.67793e-23
-7.26338e-23
-2.75626e-22
-9.09815e-22
-2.62053e-21
-6.78072e-21
-1.65243e-20
-3.96704e-20
-9.55093e-20
-2.27064e-19
-5.16783e-19
-1.09627e-18
-2.13523e-18
-3.79712e-18
-6.16063e-18
-9.13328e-18
-1.24113e-17
-1.55083e-17
-1.79012e-17
-1.92072e-17
-1.93096e-17
-1.83587e-17
-1.66706e-17
-1.45997e-17
-1.24445e-17
-1.0423e-17
-9.89975e-18
-1.33836e-17
-2.64987e-17
-6.5667e-17
-1.78963e-16
-5.01905e-16
-1.4119e-15
-3.93442e-15
-1.07932e-14
-2.91076e-14
-7.72821e-14
-2.02407e-13
-5.24503e-13
-1.35755e-12
-3.53239e-12
-8.9076e-12
-1.97978e-11
-1.83418e-25
-9.32134e-25
-4.80508e-24
-2.10973e-23
-8.00789e-23
-2.61098e-22
-7.4047e-22
-1.8987e-21
-4.64189e-21
-1.12895e-20
-2.75193e-20
-6.55655e-20
-1.47579e-19
-3.06051e-19
-5.7766e-19
-9.88798e-19
-1.53537e-18
-2.1664e-18
-2.78519e-18
-3.27396e-18
)
;

boundaryField
{
    leftWall
    {
        type            zeroGradient;
    }
    rightWall
    {
        type            zeroGradient;
    }
    lowerWall
    {
        type            zeroGradient;
    }
    atmosphere
    {
        type            inletOutlet;
        inletValue      nonuniform 0();
        value           nonuniform 0();
    }
    defaultFaces
    {
        type            empty;
    }
    procBoundary0to1
    {
        type            processor;
        value           nonuniform List<scalar> 
44
(
0.999333
0.98504
0.970229
0.988038
1
0.999997
1
1
1
1
1
1
1
1
1
1
1
1
1
1
1
0.999992
0.999992
0.60262
0.0425
8.86521e-06
2.66259e-07
9.02446e-09
3.45362e-11
-9.68803e-13
-2.18802e-09
-3.94323e-09
-3.6627e-09
-2.76464e-09
-1.87349e-09
-1.19392e-09
-7.38635e-10
-4.54428e-10
-2.82666e-10
-1.79346e-10
-1.16348e-10
-7.7031e-11
-5.17712e-11
-3.50688e-11
)
;
    }
    procBoundary0to2
    {
        type            processor;
        value           nonuniform List<scalar> 
46
(
-3.53422e-18
-3.52241e-18
-3.26559e-18
-2.84265e-18
-2.34823e-18
-1.8611e-18
-1.43012e-18
-1.07537e-18
-8.69126e-19
-1.10649e-18
-2.51196e-18
-7.68262e-18
-2.58584e-17
-8.78126e-17
-2.93401e-16
-9.54649e-16
-3.00966e-15
-9.18899e-15
-2.72487e-14
-7.89584e-14
-2.26261e-13
-6.53935e-13
-1.91202e-12
-5.33723e-12
-1.27268e-11
-4.55122e-26
-2.32819e-25
-1.21657e-24
-5.39409e-24
-2.03791e-23
-6.54224e-23
-1.82305e-22
-4.62254e-22
-1.13001e-21
-2.77009e-21
-6.79585e-21
-1.61474e-20
-3.58447e-20
-7.25871e-20
-1.32737e-19
-2.1874e-19
-3.25135e-19
-4.36658e-19
-5.31164e-19
-3.53422e-18
-5.86967e-19
)
;
    }
}


// ************************************************************************* //
