/*--------------------------------*- C++ -*----------------------------------*\
| =========                 |                                                 |
| \\      /  F ield         | OpenFOAM: The Open Source CFD Toolbox           |
|  \\    /   O peration     | Version:  5.0                                   |
|   \\  /    A nd           | Web:      www.OpenFOAM.org                      |
|    \\/     M anipulation  |                                                 |
\*---------------------------------------------------------------------------*/
FoamFile
{
    version     2.0;
    format      ascii;
    class       volScalarField;
    location    "0.7";
    object      k;
}
// * * * * * * * * * * * * * * * * * * * * * * * * * * * * * * * * * * * * * //

dimensions      [0 2 -2 0 0 0 0];

internalField   nonuniform List<scalar> 
1935
(
0.00257753
0.00464185
0.00667864
0.00862049
0.0104254
0.0119388
0.0132174
0.0143196
0.0152862
0.0161678
0.0170042
0.017795
0.0185309
0.0192146
0.0198489
0.0204366
0.0209803
0.021483
0.0219477
0.0223779
0.0227852
0.0231711
0.0235318
0.0238637
0.0241618
0.0244193
0.0246275
0.0247763
0.0248538
0.0248482
0.0247521
0.0245544
0.024242
0.0238038
0.0232324
0.0225264
0.0216888
0.0207238
0.019638
0.0185048
0.0174793
0.0165214
0.0154673
0.0140352
0.00429442
0.00924027
0.0135669
0.0176719
0.0212768
0.0244823
0.0273111
0.0298229
0.0320816
0.0341155
0.0359871
0.0377251
0.0393453
0.0408595
0.0422761
0.0436019
0.0448431
0.0460059
0.047097
0.0481261
0.0490942
0.0500007
0.0508478
0.051634
0.0523531
0.0529949
0.0535447
0.0539839
0.0542904
0.054439
0.0544017
0.0541492
0.053653
0.0528906
0.0518459
0.050515
0.048904
0.0470247
0.0448871
0.0425741
0.0403725
0.0381981
0.0351531
0.0305673
0.00529373
0.0118298
0.016979
0.0217565
0.0261215
0.0300971
0.0336756
0.036869
0.0397523
0.0423798
0.0448006
0.0470474
0.0491424
0.0511019
0.0529378
0.05466
0.0562771
0.0577978
0.0592317
0.0605885
0.061868
0.0630736
0.0642067
0.0652651
0.0662424
0.0671275
0.0679045
0.0685531
0.0690493
0.0693659
0.069473
0.0693386
0.0689326
0.0682293
0.0672096
0.0658638
0.0641919
0.0621989
0.0598913
0.0573089
0.054548
0.0514753
0.0475057
0.0419092
0.00580377
0.0135011
0.0191879
0.0244269
0.0292829
0.0337595
0.0378306
0.0415131
0.0448559
0.0479119
0.0507281
0.0533406
0.0557761
0.0580544
0.0601909
0.0621982
0.0640872
0.065869
0.0675561
0.0691535
0.0706658
0.0720964
0.0734465
0.0747133
0.0758902
0.0769657
0.0779237
0.0787437
0.0794019
0.079871
0.0801221
0.0801242
0.0798485
0.07927
0.0783692
0.0771335
0.0755569
0.0736364
0.0713679
0.0687526
0.0657857
0.0623191
0.0579242
0.0518127
0.00611789
0.0146526
0.0208021
0.0264194
0.0316935
0.0365894
0.041071
0.045148
0.0488608
0.0522599
0.0553928
0.0582982
0.0610063
0.0635404
0.0659189
0.0681569
0.0702676
0.0722645
0.0741598
0.0759581
0.0776658
0.0792864
0.0808205
0.082265
0.0836127
0.0848519
0.0859667
0.086937
0.0877393
0.0883478
0.0887355
0.0888738
0.0887368
0.0883021
0.0875519
0.0864732
0.0850567
0.083293
0.0811667
0.0786498
0.0756791
0.0720791
0.0674399
0.0609018
0.00640498
0.0153893
0.0220515
0.0281121
0.0337966
0.0390687
0.0438988
0.0483001
0.0523139
0.0559919
0.0593832
0.0625291
0.0654624
0.0682094
0.070791
0.0732246
0.0755257
0.0777097
0.0797853
0.0817605
0.0836416
0.0854314
0.0871302
0.0887341
0.0902353
0.091622
0.0928783
0.0939848
0.0949192
0.0956576
0.0961752
0.096447
0.0964508
0.0961681
0.095584
0.0946867
0.0934659
0.0919069
0.0899839
0.0876463
0.0847922
0.0812169
0.0764244
0.069474
0.00660541
0.0159812
0.0232131
0.0297778
0.0358702
0.0414749
0.0465896
0.0512457
0.0554941
0.0593909
0.0629877
0.0663278
0.0694462
0.0723711
0.0751255
0.0777286
0.0801975
0.0825468
0.0847853
0.0869219
0.0889619
0.0909077
0.0927586
0.0945099
0.096153
0.0976759
0.0990632
0.100296
0.101354
0.102215
0.102857
0.10326
0.103406
0.10328
0.102871
0.102171
0.101167
0.0998427
0.0981628
0.0960604
0.0934074
0.0899607
0.0851665
0.0779332
0.00677367
0.01667
0.0245679
0.0316724
0.038136
0.0440018
0.04932
0.0541523
0.0585644
0.0626186
0.0663687
0.0698591
0.0731258
0.0761981
0.0791001
0.0818518
0.084471
0.0869693
0.0893584
0.0916459
0.0938355
0.0959286
0.0979234
0.0998139
0.101591
0.103242
0.104752
0.106104
0.107278
0.108256
0.109018
0.10955
0.109838
0.109872
0.109645
0.10915
0.108377
0.107307
0.105897
0.104074
0.101698
0.0984959
0.0938928
0.0866721
0.00732473
0.0177273
0.0264369
0.0340433
0.0407688
0.0467803
0.0521986
0.0571185
0.0616194
0.0657689
0.0696211
0.0732199
0.0766011
0.0797939
0.0828227
0.0857072
0.0884606
0.0910972
0.0936288
0.0960611
0.0983951
0.10063
0.102764
0.104788
0.106693
0.108466
0.110093
0.111557
0.112842
0.11393
0.114809
0.115467
0.115896
0.11609
0.116048
0.115763
0.115228
0.114422
0.113302
0.111793
0.109763
0.106923
0.102756
0.0960673
0.00897023
0.019651
0.0291943
0.0370852
0.0438652
0.049867
0.0552687
0.0601855
0.0647016
0.068888
0.0727955
0.0764656
0.0799321
0.0832235
0.0863636
0.0893678
0.0922447
0.0950115
0.0976811
0.100256
0.102733
0.105108
0.107378
0.109534
0.111562
0.113452
0.11519
0.116762
0.11815
0.119343
0.120332
0.121112
0.121679
0.122031
0.122171
0.122097
0.121801
0.121264
0.120446
0.119276
0.117634
0.115269
0.111778
0.106262
0.011678
0.0232099
0.0331472
0.0408695
0.0474314
0.0532575
0.0585315
0.0633648
0.0678347
0.0720097
0.0759358
0.0796494
0.0831808
0.0865567
0.0898004
0.0929206
0.0959151
0.0988081
0.101616
0.104338
0.106959
0.109474
0.111882
0.114169
0.11632
0.118323
0.12017
0.121843
0.123327
0.124618
0.125711
0.126607
0.127306
0.127812
0.128131
0.128263
0.128205
0.127939
0.127429
0.126619
0.125392
0.12357
0.120886
0.116851
0.0144907
0.028537
0.0378719
0.0451129
0.0512993
0.0568324
0.0618909
0.0665805
0.0709691
0.0751079
0.079035
0.0827787
0.0863662
0.0898231
0.0931737
0.0964224
0.0995313
0.102548
0.105504
0.108386
0.111158
0.113815
0.116362
0.118783
0.121051
0.123168
0.125119
0.126885
0.128458
0.129836
0.131026
0.132029
0.132851
0.133501
0.13399
0.134322
0.134495
0.134497
0.134298
0.133851
0.13306
0.131807
0.129947
0.127283
0.0163892
0.0325182
0.0419452
0.0490137
0.0550155
0.0603534
0.0652342
0.0697782
0.0740526
0.0781195
0.0820133
0.0857603
0.0893872
0.0929264
0.096405
0.0998055
0.103078
0.106244
0.109376
0.11245
0.115382
0.118177
0.120873
0.123437
0.125815
0.128038
0.130088
0.131934
0.13358
0.135035
0.136306
0.137402
0.138332
0.139112
0.139756
0.140274
0.140668
0.14093
0.141036
0.140949
0.140592
0.139898
0.138806
0.137286
0.0172723
0.0349959
0.0448971
0.0521539
0.0582085
0.0635257
0.0683444
0.0728057
0.0769952
0.0809796
0.0848048
0.088508
0.0921248
0.0956917
0.0992346
0.102734
0.106197
0.109599
0.113012
0.116393
0.119606
0.1226
0.125485
0.128228
0.130688
0.133015
0.135166
0.137064
0.138761
0.140272
0.141607
0.142775
0.143792
0.14468
0.145459
0.146145
0.146745
0.147255
0.147661
0.147924
0.147994
0.14783
0.147426
0.146843
0.0177921
0.0366246
0.0469748
0.0545514
0.060801
0.066229
0.0710922
0.075549
0.0797045
0.0836388
0.0874112
0.09107
0.0946558
0.0982018
0.101725
0.10521
0.108683
0.112203
0.115817
0.11945
0.123048
0.126495
0.129816
0.132962
0.135714
0.138177
0.140458
0.142357
0.144076
0.145619
0.146986
0.1482
0.149274
0.150243
0.151132
0.151964
0.152752
0.153499
0.154195
0.154806
0.155295
0.155637
0.155858
0.156078
0.0180447
0.037695
0.0484414
0.0563234
0.0628124
0.0684185
0.073401
0.0779262
0.0821115
0.0860477
0.0898052
0.0934406
0.0969988
0.100511
0.103994
0.107445
0.110899
0.114427
0.118059
0.121719
0.125381
0.129069
0.132795
0.136409
0.139897
0.142965
0.145746
0.147866
0.149599
0.151145
0.152505
0.153735
0.154828
0.155843
0.156811
0.157765
0.158724
0.159698
0.160682
0.16165
0.162565
0.16341
0.164227
0.165191
0.0181203
0.0383818
0.0494443
0.0575894
0.0643132
0.070118
0.0752593
0.079903
0.0841712
0.0881599
0.0919456
0.0955902
0.099142
0.102634
0.106084
0.109504
0.112927
0.116414
0.119992
0.123617
0.127277
0.131018
0.13483
0.13858
0.142311
0.145982
0.149409
0.152434
0.15489
0.156861
0.158215
0.159444
0.160502
0.161526
0.162537
0.163588
0.164704
0.165903
0.167187
0.168536
0.16991
0.171283
0.172705
0.174399
0.0181141
0.0388079
0.0500917
0.0584639
0.0653974
0.0713934
0.0767037
0.0814908
0.0858755
0.0899542
0.0938052
0.0974922
0.101065
0.10456
0.107998
0.1114
0.114797
0.118238
0.121748
0.125312
0.128923
0.132615
0.136381
0.140149
0.143953
0.147783
0.151446
0.154896
0.158149
0.161105
0.163283
0.165093
0.166333
0.167328
0.168342
0.169472
0.170737
0.172174
0.173791
0.175569
0.177465
0.179428
0.181493
0.183914
0.0181165
0.039012
0.0504928
0.0590524
0.0661613
0.0723257
0.0777958
0.0827302
0.0872458
0.0914359
0.0953774
0.0991335
0.102754
0.106277
0.109729
0.113131
0.116517
0.119924
0.123378
0.126877
0.130422
0.134032
0.137707
0.141416
0.145172
0.148965
0.152677
0.156286
0.159798
0.163154
0.166191
0.168893
0.171167
0.172893
0.174243
0.175446
0.176864
0.178571
0.18058
0.182868
0.18539
0.188037
0.190806
0.193939
0.0181202
0.0390857
0.050736
0.0594444
0.0666922
0.0729947
0.0786037
0.0836746
0.0883198
0.0926282
0.0966732
0.100515
0.104204
0.107777
0.111265
0.114689
0.118083
0.121477
0.124894
0.128341
0.131823
0.135352
0.138931
0.142548
0.146205
0.149894
0.153555
0.157169
0.160744
0.164265
0.167661
0.17084
0.173802
0.17655
0.179031
0.18113
0.183096
0.185149
0.187652
0.190574
0.193879
0.197332
0.200885
0.204676
0.0181252
0.0391079
0.0508915
0.0597119
0.0670628
0.0734711
0.079192
0.0843795
0.0891422
0.0935642
0.0977145
0.101651
0.105419
0.109059
0.1126
0.116067
0.119487
0.122888
0.126292
0.129709
0.133144
0.136608
0.140104
0.143629
0.147181
0.150755
0.154323
0.157874
0.161415
0.16495
0.168449
0.171863
0.175205
0.178494
0.181742
0.18498
0.188208
0.191441
0.194902
0.198823
0.203231
0.207651
0.212092
0.216405
0.221769
0.0181545
0.039129
0.0510115
0.0599096
0.0673301
0.073812
0.0796159
0.0848957
0.089757
0.0942801
0.0985294
0.102559
0.106413
0.110128
0.113734
0.117257
0.12072
0.124149
0.127561
0.130969
0.134381
0.137803
0.141239
0.14469
0.148154
0.151628
0.1551
0.158566
0.162036
0.16552
0.169017
0.17252
0.176055
0.179663
0.183399
0.187315
0.191469
0.195999
0.200961
0.206636
0.212619
0.219126
0.225046
0.229551
0.235161
0.0182227
0.0391808
0.051132
0.0600765
0.0675357
0.0740613
0.0799196
0.0852659
0.090204
0.0948108
0.0991471
0.103263
0.1072
0.110993
0.114671
0.118259
0.121779
0.125249
0.128689
0.13211
0.13552
0.138924
0.142327
0.145729
0.149131
0.152531
0.155926
0.159316
0.162713
0.166134
0.169596
0.173119
0.176748
0.180545
0.184591
0.188976
0.193806
0.199209
0.205264
0.212203
0.220041
0.229178
0.237705
0.244293
0.250199
0.0183363
0.0392812
0.0512746
0.0602372
0.0677075
0.0742494
0.0801357
0.0855234
0.0905157
0.0951869
0.0995948
0.103786
0.1078
0.111669
0.115419
0.119076
0.122658
0.126182
0.129664
0.133115
0.136543
0.139953
0.143348
0.146729
0.150098
0.153454
0.156798
0.160136
0.16348
0.166852
0.17028
0.173803
0.177478
0.181384
0.185622
0.190308
0.195578
0.201576
0.208432
0.216324
0.225309
0.235546
0.246483
0.258306
0.267158
0.0184948
0.0394368
0.051449
0.0604045
0.0678614
0.0743958
0.0802864
0.0856926
0.0907173
0.0954334
0.0998961
0.10415
0.10823
0.112168
0.115988
0.119713
0.12336
0.126945
0.13048
0.133974
0.137437
0.140871
0.14428
0.147665
0.151028
0.15437
0.157694
0.161007
0.164326
0.167674
0.171087
0.174613
0.178318
0.182292
0.186645
0.191508
0.197032
0.203379
0.210709
0.219194
0.228957
0.240166
0.252756
0.267051
0.28275
0.0186923
0.0396451
0.0516554
0.0605814
0.068004
0.0745105
0.080385
0.0857895
0.090827
0.0955694
0.10007
0.104371
0.108507
0.112505
0.116388
0.120178
0.12389
0.127537
0.131131
0.134678
0.138187
0.141661
0.145103
0.148513
0.151894
0.155248
0.15858
0.161898
0.165221
0.168575
0.171998
0.175543
0.179282
0.183309
0.187737
0.192704
0.198365
0.204893
0.212465
0.221268
0.231485
0.243351
0.257112
0.273277
0.291853
0.0189192
0.039897
0.0518868
0.0607644
0.068135
0.0745966
0.0804382
0.0858237
0.0908568
0.0956089
0.100132
0.104466
0.108644
0.112692
0.116631
0.120479
0.124252
0.127961
0.131615
0.135221
0.138785
0.14231
0.145798
0.149251
0.15267
0.156059
0.159422
0.162773
0.166127
0.169515
0.172975
0.176564
0.180355
0.184441
0.188937
0.193983
0.199734
0.206366
0.214069
0.223051
0.233546
0.245858
0.260407
0.277807
0.298361
0.0191639
0.0401789
0.0521319
0.0609451
0.0682497
0.0746529
0.0804478
0.0858003
0.0908145
0.0955614
0.100092
0.104446
0.108654
0.11274
0.116725
0.120625
0.124453
0.12822
0.131935
0.135602
0.139225
0.142808
0.146353
0.14986
0.153333
0.156775
0.160192
0.163596
0.167007
0.170455
0.17398
0.177639
0.181507
0.185675
0.19026
0.195397
0.201245
0.207981
0.215806
0.224945
0.235669
0.248329
0.263404
0.281531
0.303194
0.0194143
0.0404754
0.0523772
0.0611135
0.0683411
0.0746755
0.080413
0.085721
0.0907042
0.0954336
0.0999598
0.104321
0.108547
0.11266
0.116681
0.120623
0.1245
0.128321
0.132092
0.135819
0.139504
0.143149
0.146757
0.150329
0.153867
0.157375
0.160862
0.164339
0.167828
0.171359
0.174975
0.178733
0.182708
0.186992
0.191702
0.196973
0.202964
0.209857
0.217862
0.227218
0.238218
0.251233
0.266742
0.28534
0.307567
0.0196593
0.0407712
0.0526094
0.0612591
0.0684018
0.0746596
0.0803316
0.0855863
0.0905288
0.09523
0.0997405
0.104098
0.10833
0.112461
0.116507
0.120483
0.124401
0.128269
0.132092
0.135876
0.139622
0.143331
0.147007
0.150648
0.154259
0.157845
0.161413
0.164979
0.168563
0.172199
0.175929
0.179814
0.183928
0.188368
0.19325
0.198712
0.204918
0.212055
0.22034
0.230029
0.241424
0.2549
0.27092
0.290024
0.312741
0.0198893
0.0410522
0.0528165
0.0613727
0.0684248
0.0746007
0.0802013
0.0853958
0.0902898
0.0949543
0.0994396
0.103783
0.108012
0.11215
0.116212
0.120213
0.124164
0.128071
0.131941
0.135777
0.139581
0.143354
0.147098
0.150813
0.154502
0.158172
0.161832
0.165498
0.169193
0.17295
0.176817
0.180854
0.185141
0.189778
0.194884
0.200604
0.207108
0.214592
0.223286
0.233455
0.245415
0.259543
0.276287
0.296157
0.319669
0.0200966
0.0413066
0.0529885
0.0614464
0.0684048
0.0744954
0.0800204
0.0851497
0.0899891
0.0946097
0.0990618
0.103382
0.107599
0.111735
0.115804
0.119822
0.123796
0.127736
0.131646
0.135529
0.139387
0.143221
0.147032
0.150821
0.154593
0.158352
0.162111
0.165885
0.169702
0.173597
0.177619
0.181834
0.186326
0.1912
0.196583
0.202629
0.209519
0.217461
0.2267
0.237518
0.250246
0.265272
0.283046
0.304075
0.328898
0.0202756
0.0415247
0.0531173
0.0614747
0.0683377
0.0743412
0.0797881
0.0848485
0.0896286
0.0941996
0.0986118
0.102902
0.107099
0.111223
0.115291
0.119316
0.123307
0.127271
0.131214
0.135138
0.139045
0.142936
0.146812
0.150676
0.15453
0.158382
0.162244
0.166135
0.170084
0.174129
0.178324
0.182739
0.187465
0.192615
0.198327
0.204765
0.212125
0.220635
0.230557
0.242197
0.255909
0.272106
0.291262
0.313914
0.34065
0.0204219
0.0416988
0.0531972
0.0614535
0.0682213
0.0741373
0.0795047
0.0844939
0.0892111
0.0937278
0.0980945
0.102348
0.106517
0.110623
0.114681
0.118706
0.122705
0.126686
0.130654
0.134612
0.138563
0.142506
0.146444
0.15038
0.154317
0.158263
0.162232
0.166245
0.170334
0.17454
0.178923
0.183559
0.188547
0.194009
0.200095
0.206987
0.214897
0.224076
0.234811
0.247439
0.262349
0.279992
0.300888
0.325634
0.354898
0.0205333
0.0418227
0.0532243
0.0613806
0.0680547
0.0738838
0.0791715
0.084088
0.0887398
0.0931985
0.0975151
0.101727
0.105862
0.109942
0.113983
0.117999
0.121999
0.125989
0.129976
0.133962
0.137949
0.14194
0.145936
0.149941
0.153959
0.157999
0.162078
0.166218
0.170453
0.174831
0.179416
0.184291
0.189565
0.195371
0.201874
0.209274
0.217804
0.227741
0.239406
0.253172
0.269472
0.288814
0.311782
0.339054
0.371404
0.02061
0.041892
0.0531962
0.0612553
0.067838
0.073582
0.0787904
0.0836336
0.0882184
0.0926165
0.096879
0.101044
0.105139
0.109187
0.113205
0.117205
0.121198
0.125191
0.129189
0.133196
0.137215
0.141247
0.145297
0.149367
0.153464
0.157599
0.161789
0.166059
0.170447
0.175005
0.179804
0.184935
0.190516
0.196694
0.203651
0.211605
0.220815
0.231587
0.244279
0.259307
0.277159
0.298409
0.323722
0.353873
0.389754
0.0206563
0.0419049
0.0531124
0.0610779
0.0675726
0.0732337
0.0783641
0.0831342
0.087651
0.0919864
0.0961921
0.100306
0.104357
0.108368
0.112356
0.116334
0.120313
0.124301
0.128304
0.132325
0.136369
0.140438
0.144536
0.148668
0.152843
0.157071
0.161373
0.165776
0.170322
0.175069
0.180093
0.185494
0.191401
0.197976
0.205417
0.213964
0.223902
0.235568
0.249361
0.265745
0.285269
0.308579
0.336428
0.369697
0.409401
0.0206846
0.041859
0.0529732
0.0608494
0.0672603
0.0728414
0.0778954
0.0825931
0.0870418
0.0913134
0.09546
0.09952
0.103523
0.107492
0.111444
0.115395
0.119354
0.123331
0.127331
0.131361
0.135424
0.139525
0.143667
0.147857
0.152105
0.156426
0.160841
0.16538
0.170089
0.175031
0.18029
0.185975
0.192225
0.199218
0.207168
0.216336
0.227037
0.239639
0.254581
0.27238
0.293646
0.319099
0.34958
0.386073
0.429708
0.0206759
0.0417631
0.0527864
0.0605767
0.0669051
0.0724078
0.077387
0.0820139
0.086395
0.0906022
0.0946882
0.0986921
0.102644
0.106567
0.110479
0.114397
0.11833
0.12229
0.126283
0.130315
0.134392
0.138518
0.1427
0.146945
0.151265
0.155677
0.160204
0.164882
0.169759
0.174903
0.180406
0.186386
0.192994
0.20042
0.208898
0.218709
0.230194
0.243754
0.259868
0.279103
0.302127
0.329729
0.362835
0.402516
0.449999
0.0206302
0.0416197
0.0525526
0.0602604
0.0665109
0.0719387
0.0768456
0.081402
0.0857149
0.0898571
0.0938822
0.0978284
0.101726
0.1056
0.109469
0.113349
0.117253
0.12119
0.12517
0.129199
0.133284
0.137431
0.141648
0.145945
0.150334
0.154836
0.159477
0.164295
0.169344
0.174697
0.180452
0.186737
0.193714
0.201586
0.210604
0.221069
0.233346
0.247867
0.265148
0.285799
0.310542
0.340225
0.375841
0.418531
0.469594
0.0205515
0.0414319
0.052274
0.059902
0.0660782
0.0714347
0.0762725
0.0807612
0.085008
0.089086
0.0930482
0.0969345
0.100776
0.104599
0.108422
0.112261
0.11613
0.12004
0.124002
0.128023
0.132112
0.136275
0.140524
0.144869
0.149325
0.153916
0.15867
0.163631
0.168856
0.174423
0.180438
0.187037
0.194391
0.202718
0.212281
0.223402
0.236465
0.251931
0.270346
0.292355
0.318723
0.350344
0.388256
0.433647
0.487852
0.0204429
0.0412027
0.051953
0.0595035
0.0656085
0.0708972
0.075669
0.080093
0.084276
0.0882913
0.0921922
0.096019
0.0998036
0.103572
0.107344
0.111139
0.114971
0.118851
0.12279
0.126799
0.130887
0.135063
0.13934
0.143729
0.148251
0.152929
0.157798
0.162903
0.168306
0.174093
0.180373
0.187291
0.195029
0.203814
0.213922
0.225691
0.239523
0.255898
0.275386
0.298659
0.326509
0.359856
0.399763
0.447432
0.504204
0.0203075
0.040935
0.0515923
0.0590672
0.065104
0.070328
0.0750369
0.0793989
0.0835206
0.0874753
0.0913163
0.0950846
0.0988123
0.102526
0.106247
0.109994
0.113784
0.117629
0.121544
0.125537
0.12962
0.133805
0.138106
0.142538
0.147123
0.151888
0.15687
0.16212
0.167705
0.173714
0.180263
0.187505
0.195629
0.20487
0.215517
0.227917
0.242485
0.259717
0.280194
0.304605
0.33375
0.368557
0.410085
0.459524
0.518184
0.0201477
0.0406318
0.0511949
0.0585956
0.0645668
0.0697291
0.074378
0.0786809
0.0827439
0.0866401
0.0904231
0.094134
0.0978057
0.101465
0.105135
0.108834
0.11258
0.116388
0.120271
0.124244
)
;

boundaryField
{
    leftWall
    {
        type            kqRWallFunction;
        value           nonuniform List<scalar> 
44
(
0.00257753
0.00429442
0.00529373
0.00580377
0.00611789
0.00640498
0.00660541
0.00677367
0.00732473
0.00897023
0.011678
0.0144907
0.0163892
0.0172723
0.0177921
0.0180447
0.0181203
0.0181141
0.0181165
0.0181202
0.0181252
0.0181545
0.0182227
0.0183363
0.0184948
0.0186923
0.0189192
0.0191639
0.0194143
0.0196593
0.0198893
0.0200966
0.0202756
0.0204219
0.0205333
0.02061
0.0206563
0.0206846
0.0206759
0.0206302
0.0205515
0.0204429
0.0203075
0.0201477
)
;
    }
    rightWall
    {
        type            kqRWallFunction;
        value           nonuniform 0();
    }
    lowerWall
    {
        type            kqRWallFunction;
        value           nonuniform List<scalar> 
44
(
0.00257753
0.00464185
0.00667864
0.00862049
0.0104254
0.0119388
0.0132174
0.0143196
0.0152862
0.0161678
0.0170042
0.017795
0.0185309
0.0192146
0.0198489
0.0204366
0.0209803
0.021483
0.0219477
0.0223779
0.0227852
0.0231711
0.0235318
0.0238637
0.0241618
0.0244193
0.0246275
0.0247763
0.0248538
0.0248482
0.0247521
0.0245544
0.024242
0.0238038
0.0232324
0.0225264
0.0216888
0.0207238
0.019638
0.0185048
0.0174793
0.0165214
0.0154673
0.0140352
)
;
    }
    atmosphere
    {
        type            inletOutlet;
        inletValue      nonuniform 0();
        value           nonuniform 0();
    }
    defaultFaces
    {
        type            empty;
    }
    procBoundary0to1
    {
        type            processor;
        value           nonuniform List<scalar> 
44
(
0.0116592
0.0240427
0.0334894
0.042283
0.0503867
0.0578259
0.0652341
0.0733187
0.0831128
0.0958382
0.110328
0.123531
0.135386
0.146259
0.156566
0.166669
0.176845
0.187293
0.198158
0.209573
0.209573
0.22959
0.243226
0.258433
0.275699
0.295135
0.311923
0.321454
0.328178
0.333551
0.3394
0.347262
0.358039
0.372094
0.389419
0.409705
0.432386
0.456702
0.481773
0.506671
0.530478
0.552347
0.571544
0.587335
)
;
    }
    procBoundary0to2
    {
        type            processor;
        value           nonuniform List<scalar> 
46
(
0.128321
0.132511
0.136833
0.141305
0.145951
0.1508
0.155896
0.161291
0.167059
0.173292
0.180112
0.187678
0.196186
0.205878
0.217049
0.230055
0.245317
0.263336
0.2847
0.310094
0.340314
0.376273
0.419001
0.469639
0.52943
0.0199664
0.0402964
0.0507639
0.0580918
0.0639996
0.0691028
0.0736946
0.0779411
0.0819478
0.0857878
0.0895147
0.0931698
0.0967866
0.100392
0.104011
0.107662
0.111364
0.115133
0.118985
0.128321
0.122934
)
;
    }
}


// ************************************************************************* //
