/*--------------------------------*- C++ -*----------------------------------*\
| =========                 |                                                 |
| \\      /  F ield         | OpenFOAM: The Open Source CFD Toolbox           |
|  \\    /   O peration     | Version:  5.0                                   |
|   \\  /    A nd           | Web:      www.OpenFOAM.org                      |
|    \\/     M anipulation  |                                                 |
\*---------------------------------------------------------------------------*/
FoamFile
{
    version     2.0;
    format      ascii;
    class       volScalarField;
    location    "0.7";
    object      nut;
}
// * * * * * * * * * * * * * * * * * * * * * * * * * * * * * * * * * * * * * //

dimensions      [0 2 -1 0 0 0 0];

internalField   nonuniform List<scalar> 
1935
(
3.11192e-05
3.66624e-05
4.39681e-05
4.99414e-05
5.49166e-05
5.87619e-05
6.18223e-05
6.43412e-05
6.6471e-05
6.83492e-05
7.0079e-05
7.16825e-05
7.31452e-05
7.44794e-05
7.5697e-05
7.68086e-05
7.78233e-05
7.87502e-05
7.95979e-05
8.03766e-05
8.11132e-05
8.1802e-05
8.24389e-05
8.30191e-05
8.35357e-05
8.39784e-05
8.43339e-05
8.45861e-05
8.47161e-05
8.47081e-05
8.45543e-05
8.42265e-05
8.36984e-05
8.29468e-05
8.19524e-05
8.07036e-05
7.9194e-05
7.7417e-05
7.53697e-05
7.31812e-05
7.11475e-05
6.91783e-05
6.6957e-05
6.3737e-05
4.66492e-05
0.000189688
0.00029369
0.000382094
0.000444675
0.000496175
0.000539528
0.000576293
0.000607941
0.000634825
0.000658052
0.00067863
0.000697134
0.00071391
0.000729192
0.000743148
0.000755912
0.000767614
0.000778384
0.000788486
0.000797581
0.000805455
0.000812224
0.000817922
0.000822517
0.000825921
0.000827992
0.000828545
0.000827352
0.000824144
0.000818601
0.000810392
0.000799173
0.000784765
0.000767027
0.00074607
0.000722167
0.000695755
0.000666834
0.000636528
0.000614019
0.000598716
0.000558378
0.000462224
5.17949e-05
0.000316186
0.000514303
0.000673796
0.000802935
0.000914092
0.00101105
0.00109523
0.00116896
0.0012337
0.00129093
0.00134198
0.00138787
0.0014293
0.00146683
0.00150086
0.00153174
0.00155979
0.00158538
0.00160887
0.00162979
0.00164814
0.00166393
0.00167706
0.00168739
0.00169466
0.00169854
0.00169865
0.00169454
0.00168569
0.00167154
0.00165158
0.00162534
0.00159255
0.00155312
0.00150728
0.00145558
0.00139882
0.00133771
0.0012737
0.00120996
0.00113621
0.00101473
0.000802388
5.42332e-05
0.000390917
0.000660577
0.000880149
0.00106872
0.0012362
0.00138548
0.00151825
0.00163641
0.00174172
0.0018359
0.00192051
0.00199684
0.00206591
0.00212851
0.00218529
0.00223678
0.00228352
0.00232616
0.00236464
0.00239895
0.00242911
0.00245505
0.00247662
0.00249355
0.00250542
0.00251176
0.00251201
0.00250556
0.00249174
0.00246987
0.00243934
0.00239967
0.0023506
0.00229212
0.00222453
0.00214839
0.00206437
0.0019727
0.00187267
0.00176023
0.00161835
0.00141071
0.0010931
5.56661e-05
0.000422456
0.000743199
0.00101495
0.00125834
0.00147916
0.00167891
0.00185885
0.00202065
0.00216619
0.00229737
0.00241594
0.00252338
0.00262094
0.00270964
0.00279031
0.00286365
0.00293039
0.00299116
0.00304585
0.00309465
0.00313759
0.00317459
0.00320541
0.0032297
0.00324698
0.00325664
0.00325803
0.00325045
0.00323317
0.00320545
0.0031667
0.00311648
0.00305456
0.00298094
0.00289584
0.00279955
0.00269199
0.00257191
0.0024354
0.00227271
0.00206249
0.00176894
0.00135011
5.69471e-05
0.000422289
0.00077917
0.00109862
0.00139277
0.00166343
0.0019106
0.002135
0.00233819
0.00252217
0.00268896
0.00284049
0.00297842
0.00310418
0.00321896
0.00332373
0.00341935
0.00350673
0.00358607
0.00365766
0.00372166
0.00377809
0.00382681
0.00386756
0.00389993
0.00392339
0.00393727
0.00394088
0.00393349
0.00391438
0.00388283
0.0038383
0.0037804
0.00370891
0.00362378
0.00352495
0.00341214
0.00328414
0.00313775
0.00296579
0.00275412
0.00247829
0.00209953
0.00157851
5.78239e-05
0.000411936
0.000791135
0.00115191
0.00149195
0.00180796
0.00209832
0.00236333
0.00260455
0.00282407
0.00302409
0.00320667
0.00337361
0.00352649
0.00366662
0.00379507
0.00391282
0.00402061
0.0041187
0.00420746
0.00428702
0.00435734
0.00441824
0.00446942
0.00451045
0.00454076
0.00455968
0.00456652
0.00456057
0.00454115
0.0045076
0.00445946
0.00439639
0.00431812
0.00422443
0.0041149
0.00398848
0.00384271
0.00367238
0.0034675
0.00321049
0.0028734
0.00241599
0.00179609
5.85572e-05
0.000400098
0.000796877
0.00119404
0.00157442
0.00192998
0.00225797
0.00255855
0.00283337
0.00308468
0.00331477
0.00352579
0.00371965
0.00389799
0.0040622
0.00421341
0.00435263
0.00448026
0.00459685
0.0047027
0.00479786
0.0048822
0.00495551
0.00501746
0.00506757
0.00510527
0.00512992
0.00514086
0.00513743
0.00511899
0.00508501
0.00503508
0.00496887
0.00488604
0.00478615
0.00466833
0.00453076
0.00436979
0.00417857
0.00394501
0.00364915
0.00325991
0.00273369
0.00201996
6.09136e-05
0.000390805
0.00081083
0.00124193
0.00165635
0.0020443
0.00240305
0.00273307
0.00303621
0.00331482
0.00357122
0.00380758
0.0040258
0.00422753
0.00441419
0.00458693
0.00474639
0.00489314
0.00502769
0.00515026
0.00526078
0.00535906
0.00544482
0.00551768
0.00557715
0.00562265
0.00565359
0.00566933
0.0056693
0.00565293
0.0056198
0.00556954
0.00550181
0.00541619
0.00531198
0.00518789
0.00504142
0.00486802
0.00465976
0.00440343
0.00407814
0.00365007
0.00307194
0.00227748
6.74482e-05
0.000391289
0.000847157
0.00130984
0.00175056
0.00216235
0.00254394
0.00289649
0.00322208
0.0035231
0.00380173
0.00406002
0.00429978
0.00452259
0.00472984
0.00492244
0.00510086
0.00526573
0.00541747
0.00555618
0.00568165
0.0057936
0.00589168
0.00597548
0.00604445
0.00609804
0.00613568
0.00615679
0.00616086
0.00614745
0.00611621
0.0060668
0.00599887
0.00591187
0.00580492
0.00567635
0.00552321
0.00534041
0.00511961
0.00484763
0.00450403
0.00405576
0.00345541
0.00262124
7.694e-05
0.000426786
0.000924832
0.00141059
0.00186697
0.00229266
0.00268852
0.00305643
0.00339874
0.00371745
0.00401435
0.00429131
0.0045499
0.00479155
0.00501753
0.0052284
0.00542451
0.00560652
0.00577469
0.00592896
0.00606892
0.00619424
0.00630455
0.00639931
0.00647792
0.00653988
0.00658461
0.00661157
0.00662038
0.0066107
0.00658223
0.00653466
0.0064676
0.00638046
0.00627214
0.00614078
0.00598317
0.0057941
0.0055655
0.0052854
0.00493495
0.00448735
0.00390697
0.0031439
8.56374e-05
0.000542334
0.00106222
0.00155325
0.00201118
0.00243932
0.00284044
0.00321671
0.00356998
0.00390163
0.00421309
0.00450561
0.00478043
0.00503874
0.00528153
0.00550924
0.00572194
0.00592011
0.00610395
0.00627316
0.00642708
0.00656545
0.00668784
0.00679359
0.00688194
0.00695251
0.0070047
0.00703797
0.00705211
0.00704686
0.00702195
0.00697713
0.00691198
0.00682583
0.00671752
0.00658508
0.0064253
0.00623319
0.00600141
0.00571973
0.00537257
0.00494093
0.00440273
0.00373751
9.09951e-05
0.000645848
0.00120989
0.00170816
0.00216607
0.00259368
0.00299626
0.00337665
0.00373646
0.00407707
0.00439941
0.00470428
0.00499254
0.00526518
0.0055229
0.00576578
0.0059939
0.00620718
0.0064059
0.00658948
0.0067569
0.00690794
0.0070423
0.00715907
0.00725717
0.00733655
0.00739655
0.00743654
0.00745654
0.00745636
0.00743579
0.0073946
0.00733234
0.00724833
0.00714141
0.00700966
0.00685002
0.00665796
0.00642715
0.0061491
0.00581193
0.00540325
0.00491149
0.00433286
9.3412e-05
0.000708656
0.00132525
0.00184675
0.00231349
0.00274485
0.00315025
0.0035343
0.00389927
0.00424661
0.00457717
0.00489159
0.00519047
0.00547443
0.00574394
0.005999
0.00624026
0.00646741
0.00668037
0.00687807
0.00705917
0.00722285
0.00736929
0.00749732
0.00760525
0.00769379
0.00776211
0.00780921
0.0078356
0.00784113
0.00782565
0.007789
0.00773067
0.00765001
0.00754592
0.00741665
0.00725942
0.00707028
0.00684396
0.0065732
0.00624945
0.00586451
0.00541288
0.00489665
9.48241e-05
0.00075191
0.00141014
0.0019609
0.00244419
0.00288543
0.00329759
0.00368728
0.00405793
0.00441148
0.00474902
0.00507124
0.00537858
0.00567134
0.00594984
0.00621407
0.00646477
0.00670241
0.00692656
0.00713573
0.00732958
0.00750674
0.00766646
0.00780708
0.00792673
0.00802515
0.00810266
0.00815731
0.00819072
0.00820261
0.00819303
0.00816192
0.00810862
0.00803259
0.00793286
0.0078079
0.00765529
0.00747165
0.00725251
0.00699173
0.0066827
0.00631918
0.00589736
0.00541916
9.5506e-05
0.000781607
0.00147321
0.00205181
0.00255582
0.003012
0.00343514
0.00383345
0.00421149
0.00457192
0.00491626
0.0052454
0.00555984
0.00585976
0.0061454
0.00641693
0.00667499
0.00692011
0.00715173
0.00736851
0.00757032
0.00775716
0.00792796
0.0080803
0.00821442
0.00832652
0.00841651
0.00848121
0.00852256
0.00854171
0.00853888
0.00851443
0.00846734
0.00839733
0.00830357
0.00818483
0.00803903
0.00786327
0.00765362
0.00740481
0.00711095
0.00676602
0.00636511
0.00590648
9.57156e-05
0.000801836
0.00151893
0.002123
0.00264967
0.0031242
0.00356183
0.00397168
0.00435922
0.00472778
0.00507939
0.00541529
0.00573615
0.00604229
0.00633379
0.0066112
0.00687496
0.00712547
0.00736233
0.00758459
0.00779216
0.00798516
0.00816245
0.00832206
0.00846462
0.0085888
0.00869159
0.00877192
0.00882764
0.00885831
0.00886346
0.00884699
0.00880734
0.00874488
0.0086588
0.00854828
0.00841148
0.00824593
0.00804799
0.00781296
0.0075349
0.00720692
0.00682166
0.00637281
9.57075e-05
0.000814835
0.00155006
0.00217844
0.00272861
0.00322357
0.0036782
0.00410197
0.00450093
0.00487899
0.00523866
0.00558155
0.00590863
0.00622042
0.00651711
0.00679931
0.00706752
0.00732204
0.00756264
0.00778875
0.00800022
0.00819701
0.00837827
0.00854277
0.00869076
0.00882141
0.00893204
0.00902248
0.00909225
0.00913965
0.00916042
0.00915753
0.00912831
0.00907509
0.00899856
0.00889839
0.00877288
0.00861994
0.00843605
0.0082168
0.00795589
0.00764515
0.00727452
0.00683346
9.5722e-05
0.000818957
0.00157076
0.00222237
0.00279615
0.00331259
0.00378577
0.00422513
0.00463702
0.00502578
0.00539432
0.00574463
0.00607799
0.00639519
0.00669671
0.00698292
0.00725467
0.00751222
0.0077555
0.0079842
0.00819815
0.00839725
0.00858092
0.00874838
0.00889955
0.00903375
0.00914939
0.00924629
0.00932418
0.00938221
0.00941858
0.00943199
0.00942119
0.0093847
0.00932199
0.00923452
0.00912275
0.00898495
0.00881769
0.00861661
0.00837509
0.0080838
0.00773047
0.0073012
9.57389e-05
0.000818277
0.00158522
0.00225887
0.00285584
0.00339407
0.00388657
0.0043425
0.00476832
0.00516864
0.00554671
0.00590484
0.00624463
0.00656716
0.00687317
0.00716307
0.00743773
0.0076976
0.00794277
0.00817312
0.00838854
0.00858893
0.00877391
0.00894299
0.00909592
0.00923223
0.00935104
0.00945217
0.00953559
0.00960106
0.00964753
0.00967323
0.00967772
0.00966037
0.00961948
0.00955288
0.00945976
0.00933991
0.00919223
0.00901207
0.00879303
0.00852468
0.00819382
0.00778403
9.57594e-05
0.000816408
0.00159703
0.00229151
0.00291094
0.00347072
0.0039827
0.00445559
0.00489585
0.00530822
0.00569623
0.00606247
0.00640882
0.00673665
0.00704694
0.00734037
0.00761746
0.00787914
0.00812561
0.00835693
0.0085731
0.00877404
0.00895956
0.00912935
0.00928318
0.00942074
0.00954159
0.00964566
0.00973305
0.00980376
0.00985726
0.00989241
0.00990895
0.00990643
0.009884
0.00984038
0.00977317
0.00967974
0.00955704
0.0094022
0.00920971
0.00896826
0.00866617
0.00828463
0.007812
9.58439e-05
0.00081497
0.0016087
0.00232309
0.00296416
0.00354493
0.00407609
0.00456589
0.00502066
0.00544524
0.00584333
0.00621778
0.00657072
0.00690379
0.00721818
0.0075148
0.00779421
0.00805731
0.00830466
0.00853646
0.00875282
0.00895379
0.00913929
0.00930918
0.00946333
0.00960158
0.00972377
0.00982994
0.00992031
0.00999504
0.010054
0.0100967
0.010123
0.010133
0.0101261
0.0101014
0.010057
0.0099909
0.00989885
0.00977803
0.00961644
0.00941205
0.00914709
0.00880066
0.00836905
9.60308e-05
0.000814805
0.00162188
0.00235563
0.00301756
0.00361857
0.00416834
0.00467465
0.00514368
0.00558031
0.00598839
0.00637097
0.00673041
0.00706857
0.00738688
0.00768642
0.00796801
0.00823224
0.00848012
0.00871203
0.0089282
0.00912879
0.00931386
0.00948342
0.00963747
0.009776
0.00989904
0.0100068
0.0100995
0.0101775
0.010241
0.01029
0.0103248
0.0103454
0.010352
0.0103438
0.0103197
0.0102773
0.0102127
0.0101222
0.00999784
0.00983533
0.00961687
0.00932297
0.00894472
9.63359e-05
0.000816381
0.00163755
0.00239042
0.0030725
0.00369295
0.00426059
0.00478279
0.00526559
0.00571389
0.00613167
0.00652213
0.00688784
0.00723087
0.00755285
0.00785505
0.00813846
0.00840378
0.00865191
0.00888362
0.00909929
0.00929918
0.00948352
0.00965244
0.00980607
0.00994455
0.0100681
0.010177
0.0102716
0.0103524
0.0104199
0.0104744
0.0105165
0.0105466
0.0105649
0.0105713
0.0105648
0.0105433
0.0105036
0.0104414
0.0103503
0.0102238
0.0100499
0.00982861
0.00952424
9.67569e-05
0.000819918
0.00165617
0.0024281
0.00312973
0.00376882
0.00435351
0.00489085
0.00538678
0.00584622
0.00627324
0.00667121
0.00704287
0.00739046
0.0077158
0.00802036
0.00830529
0.00857151
0.00881968
0.00905094
0.00926583
0.00946479
0.00964813
0.00981615
0.00996912
0.0101073
0.010231
0.0103408
0.010437
0.0105203
0.0105914
0.0106509
0.0106995
0.010738
0.0107667
0.0107859
0.0107948
0.0107917
0.0107738
0.0107371
0.0106763
0.0105857
0.0104568
0.0102865
0.0100736
9.72769e-05
0.000825442
0.00167782
0.00246881
0.00318945
0.00384639
0.00444728
0.00499897
0.00550732
0.00597727
0.00641301
0.00681801
0.0071952
0.00754697
0.00787533
0.00818191
0.00846804
0.00873478
0.00898296
0.00921349
0.00942738
0.00962515
0.00980728
0.00997419
0.0101263
0.010264
0.0103877
0.010498
0.0105956
0.0106811
0.0107555
0.0108195
0.0108742
0.0109203
0.0109586
0.0109893
0.0110119
0.0110252
0.0110265
0.0110125
0.0109785
0.01092
0.0108321
0.0107122
0.0105565
9.78693e-05
0.000832823
0.00170223
0.00251226
0.00325138
0.00392542
0.00454171
0.00510695
0.00562697
0.00610679
0.00655065
0.00696218
0.00734443
0.00769996
0.00803094
0.00833916
0.00862613
0.00889307
0.00914098
0.00937063
0.00958328
0.00977965
0.00996036
0.010126
0.010277
0.010414
0.0105375
0.0106483
0.0107471
0.0108347
0.0109121
0.0109805
0.0110408
0.0110941
0.0111412
0.0111825
0.0112178
0.0112459
0.0112645
0.0112706
0.0112601
0.0112295
0.0111756
0.0110978
0.0109941
9.85031e-05
0.000841804
0.00172891
0.00255784
0.00331491
0.00400534
0.00463624
0.00521427
0.00574526
0.00623429
0.00668569
0.0071032
0.00749002
0.00784886
0.00818204
0.00849152
0.00877896
0.00904573
0.009293
0.00952172
0.00973283
0.00992757
0.0101066
0.0102707
0.0104205
0.0105567
0.0106799
0.010791
0.0108908
0.0109804
0.0110609
0.0111334
0.0111992
0.0112594
0.011315
0.0113664
0.0114135
0.0114551
0.0114893
0.011513
0.0115227
0.0115151
0.011488
0.0114417
0.0113769
9.91471e-05
0.000852042
0.0017572
0.00260476
0.0033792
0.00408532
0.00473011
0.0053202
0.00586149
0.0063591
0.00681746
0.00724043
0.00763134
0.00799304
0.008328
0.00863833
0.00892584
0.00919207
0.00943834
0.00966575
0.00987524
0.0100681
0.0102453
0.0104077
0.0105561
0.0106912
0.010814
0.0109252
0.0110261
0.0111176
0.0112011
0.0112778
0.0113491
0.0114162
0.01148
0.0115411
0.0115992
0.0116533
0.0117012
0.0117399
0.011766
0.0117762
0.0117686
0.0117438
0.0117039
9.97729e-05
0.000863151
0.00178639
0.00265209
0.00344327
0.00416438
0.00482237
0.00542387
0.00597483
0.00648044
0.00694523
0.00737317
0.00776769
0.0081318
0.00846812
0.00877889
0.00906608
0.00933139
0.00957628
0.00980203
0.0100098
0.0102005
0.0103756
0.0105361
0.0106828
0.0108168
0.0109389
0.0110504
0.0111522
0.0112457
0.0113322
0.0114131
0.0114899
0.0115639
0.0116359
0.0117064
0.0117749
0.0118402
0.0118998
0.0119505
0.0119885
0.0120108
0.0120155
0.0120032
0.0119766
0.000100357
0.000874741
0.00181571
0.0026989
0.0035061
0.0042415
0.00491202
0.00552432
0.00608439
0.00659747
0.0070682
0.00750062
0.00789833
0.00826443
0.00860169
0.00891251
0.009199
0.009463
0.00970615
0.00992986
0.0101354
0.0103239
0.0104966
0.010655
0.0107999
0.0109326
0.011054
0.0111655
0.0112683
0.0113637
0.0114534
0.0115387
0.0116211
0.011702
0.0117821
0.0118616
0.0119398
0.0120149
0.0120839
0.0121432
0.0121887
0.0122172
0.012227
0.0122191
0.0121967
0.000100881
0.000886433
0.00184444
0.00274426
0.00356667
0.00431566
0.00499807
0.00562059
0.00618924
0.00670931
0.00718553
0.00762203
0.00802251
0.00839021
0.00872803
0.00903852
0.00932392
0.00958625
0.00982727
0.0100486
0.0102516
0.0104376
0.0106078
0.0107637
0.0109067
0.0110378
0.0111584
0.0112699
0.0113736
0.011471
0.0115639
0.0116537
0.0117419
0.0118297
0.0119178
0.012006
0.0120929
0.0121763
0.0122523
0.0123168
0.0123653
0.0123945
0.0124031
0.0123926
0.0123673
0.000101331
0.000897871
0.00187191
0.00278732
0.00362407
0.00438589
0.00507958
0.00571177
0.00628851
0.00681514
0.00729644
0.00773663
0.00813952
0.00850847
0.00884649
0.00915629
0.00944026
0.00970054
0.00993908
0.0101576
0.0103577
0.0105408
0.0107083
0.0108616
0.0110024
0.0111318
0.0112515
0.0113628
0.0114674
0.0115669
0.011663
0.0117573
0.0118514
0.0119462
0.0120421
0.0121383
0.0122331
0.0123231
0.0124038
0.0124703
0.0125178
0.0125433
0.0125459
0.0125284
0.0124961
0.000101698
0.000908693
0.00189747
0.00282731
0.00367746
0.00445138
0.0051557
0.00579704
0.00638141
0.00691419
0.00740019
0.00784374
0.0082487
0.00861857
0.00895648
0.00926526
0.00954746
0.00980537
0.0100411
0.0102565
0.0104533
0.0106332
0.0107977
0.0109482
0.0110865
0.0112141
0.0113326
0.0114438
0.0115492
0.0116507
0.0117501
0.011849
0.0119489
0.0120505
0.0121539
0.0122577
0.0123592
0.0124542
0.0125376
0.0126036
0.0126474
0.0126662
0.0126606
0.0126343
0.0125945
0.000101976
0.000918499
0.00192051
0.00286357
0.00372617
0.00451142
0.00522576
0.00587571
0.00646726
0.0070058
0.00749617
0.00794275
0.00834949
0.00871999
0.0090575
0.00936497
0.00964509
0.00990031
0.0101329
0.0103448
0.0105381
0.0107144
0.0108755
0.011023
0.0111586
0.0112841
0.0114014
0.0115122
0.0116184
0.0117219
0.0118245
0.011928
0.0120336
0.0121419
0.0122524
0.012363
0.0124702
0.012569
0.0126534
0.0127172
0.0127559
0.0127674
0.0127537
0.0127202
0.012676
0.000102168
0.000926892
0.00194053
0.00289559
0.0037697
0.00456549
0.00528921
0.00594724
0.00654552
0.00708943
0.00758384
0.00803316
0.00844142
0.00881229
0.00914914
0.00945504
0.00973282
0.00998507
0.0102142
0.0104224
0.0106117
0.0107842
0.0109416
0.0110857
0.0112185
0.0113417
0.0114575
0.0115679
0.0116747
0.01178
0.0118859
0.0119938
0.012105
0.0122197
0.0123367
0.0124535
0.0125656
0.0126672
0.0127516
0.0128126
0.0128463
0.0128518
0.0128325
0.0127959
0.0127528
0.000102283
0.000933477
0.00195713
0.00292305
0.00380772
0.00461329
0.0053457
0.00601124
0.00661579
0.00716469
0.00766282
0.0081146
0.00852414
0.00889516
0.00923113
0.00953524
0.00981044
0.0100595
0.0102849
0.010489
0.0106742
0.0108424
0.0109958
0.0111363
0.011266
0.0113868
0.0115009
0.0116106
0.0117179
0.011825
0.0119338
0.0120461
0.0121626
0.0122832
0.0124064
0.0125288
0.0126451
0.0127489
0.0128331
0.012892
0.0129221
0.0129242
0.0129035
0.0128693
0.0128337
0.000102352
0.000937628
0.00197006
0.00294581
0.00384019
0.0046547
0.00539505
0.00606749
0.00667783
0.00723132
0.00773284
0.00818684
0.00859742
0.0089684
0.00930331
0.00960544
0.00987787
0.0101235
0.0103449
0.0105448
0.0107255
0.0108892
0.0110383
0.011175
0.0113012
0.0114193
0.0115316
0.0116404
0.011748
0.0118566
0.0119682
0.0120845
0.012206
0.0123323
0.0124612
0.0125887
0.0127089
0.0128149
0.0128996
0.0129576
0.0129868
0.0129893
0.0129722
0.012946
0.0129239
0.000102334
0.000940722
0.00198061
0.00296487
0.0038675
0.00468977
0.00543719
0.00611591
0.00673153
0.00728919
0.00779378
0.00824974
0.00866117
0.00903194
0.00936563
0.00966564
0.00993515
0.0101771
0.0103945
0.0105899
0.0107658
0.0109249
0.0110694
0.0112018
0.0113244
0.0114396
0.0115498
0.0116574
0.011765
0.0118749
0.0119891
0.0121091
0.0122352
0.0123668
0.012501
0.0126334
0.0127576
0.0128663
0.0129528
0.0130123
0.0130438
0.0130511
0.0130422
0.0130291
0.013025
0.000102224
0.000943055
0.00198908
0.0029805
0.00389028
0.00471928
0.00547283
0.00615687
0.00677696
0.00733827
0.00784564
0.00830331
0.0087154
0.00908582
0.00941819
0.00971597
0.00998244
0.0102207
0.0104338
0.0106245
0.0107956
0.0109497
0.0110895
0.0112174
0.0113361
0.011448
0.0115558
0.0116621
0.0117694
0.0118803
0.0119967
0.0121199
0.0122504
0.0123868
0.0125262
0.0126635
0.012792
0.0129046
0.0129948
0.0130586
0.0130962
0.0131123
0.0131162
0.0131199
0.0131367
0.000102033
0.00094467
0.00199558
0.00299284
0.00390857
0.00474327
0.00550207
0.00619074
0.00681475
0.00737917
0.00788871
0.0083477
0.00876024
0.00913023
0.00946118
0.00975666
0.01002
0.0102545
0.0104632
0.0106492
0.0108152
0.0109643
0.011099
0.0112222
0.0113367
0.0114451
0.0115502
0.0116548
0.0117616
0.011873
0.0119912
0.0121174
0.0122518
0.0123928
0.0125372
0.0126796
0.0128134
0.0129313
0.0130275
0.0130988
0.0131461
0.013175
0.0131951
0.0132184
0.0132574
0.000101767
0.000945582
0.00200016
0.00300197
0.00392247
0.00476184
0.00552503
0.00621762
0.00684498
0.00741207
0.00792348
0.00838352
0.00879623
0.00916547
0.00949489
0.00978807
0.0100483
0.010279
0.0104833
0.0106644
0.0108254
0.0109691
0.0110987
0.011217
0.011327
0.0114316
0.0115337
0.0116362
0.0117421
0.0118537
0.0119732
0.0121019
0.0122398
0.0123853
0.0125347
0.0126828
0.0128228
0.012948
0.0130527
0.0131346
0.0131951
0.0132401
0.0132791
0.0133234
0.0133848
0.000101433
0.000945804
0.00200289
0.00300801
0.00393211
0.00477514
0.00554186
0.00623769
0.00686785
0.00743718
0.00795017
0.00841104
0.00882378
0.00919221
0.00952
0.00981072
0.0100678
0.0102947
0.0104947
0.0106709
0.0108267
0.0109651
0.0110894
0.0112026
0.0113079
0.0114083
0.0115071
0.0116072
0.0117116
0.011823
0.0119434
0.0120742
0.0122152
0.0123648
0.0125195
0.0126739
0.0128214
0.0129557
0.0130717
0.0131672
0.013244
0.0133078
0.0133675
0.0134336
0.0135165
0.000101038
0.000945352
0.00200381
0.00301103
0.00393763
0.00478334
0.00555275
0.00625115
0.00688358
0.00745476
0.00796907
0.0084306
0.00884328
0.00921087
0.00953702
0.00982532
0.0100793
0.0103023
0.0104979
0.0106693
)
;

boundaryField
{
    leftWall
    {
        type            nutkWallFunction;
        Cmu             0.09;
        kappa           0.41;
        E               9.8;
        value           nonuniform List<scalar> 
44
(
4.35086e-06
5.65556e-06
6.28095e-06
6.57473e-06
6.74852e-06
6.90305e-06
7.00866e-06
7.09594e-06
7.37364e-06
8.14375e-06
1.16852e-06
2.59872e-06
3.47527e-06
3.86307e-06
4.08602e-06
4.19302e-06
4.2249e-06
4.22228e-06
4.22331e-06
4.22485e-06
4.22695e-06
4.23926e-06
4.26791e-06
4.31547e-06
4.38157e-06
4.46349e-06
4.55698e-06
4.65706e-06
4.75872e-06
4.85746e-06
4.94953e-06
5.03201e-06
5.10277e-06
5.16038e-06
5.20408e-06
5.23411e-06
5.25219e-06
5.26324e-06
5.25984e-06
5.242e-06
5.21121e-06
5.16867e-06
5.11536e-06
5.05224e-06
)
;
    }
    rightWall
    {
        type            nutkWallFunction;
        Cmu             0.09;
        kappa           0.41;
        E               9.8;
        value           nonuniform 0();
    }
    lowerWall
    {
        type            nutkWallFunction;
        Cmu             0.09;
        kappa           0.41;
        E               9.8;
        value           nonuniform List<scalar> 
44
(
3.22049e-06
4.41797e-06
5.32896e-06
6.06094e-06
6.66226e-06
7.12291e-06
7.48726e-06
7.78587e-06
8.03734e-06
8.25907e-06
8.4633e-06
8.65132e-06
8.82216e-06
8.9775e-06
9.11891e-06
9.24769e-06
9.36501e-06
9.47199e-06
9.56965e-06
9.65904e-06
9.74279e-06
9.82139e-06
9.8942e-06
9.96064e-06
1.00199e-05
1.00707e-05
1.01116e-05
1.01407e-05
1.01559e-05
1.01548e-05
1.0136e-05
1.00973e-05
1.00357e-05
9.94868e-06
9.83382e-06
9.68968e-06
9.51538e-06
9.30989e-06
9.07219e-06
8.81628e-06
8.57688e-06
8.34611e-06
8.08347e-06
7.71008e-06
)
;
    }
    atmosphere
    {
        type            calculated;
        value           nonuniform 0();
    }
    defaultFaces
    {
        type            empty;
    }
    procBoundary0to1
    {
        type            processor;
        value           nonuniform List<scalar> 
44
(
5.8046e-05
0.000297953
0.000474804
0.000635579
0.000775827
0.000885892
0.00098624
0.00108864
0.00121379
0.00143116
0.00215063
0.00294038
0.00368227
0.00433338
0.00489611
0.00539374
0.00585721
0.0063141
0.00678516
0.00728301
0.00728301
0.00724872
0.00785025
0.00848562
0.009137
0.00977943
0.0103637
0.0108596
0.0112911
0.0116503
0.0119392
0.0121643
0.012333
0.0124564
0.0125502
0.0126316
0.0127152
0.0128098
0.0129192
0.0130432
0.0131792
0.0133238
0.0134736
0.0136268
)
;
    }
    procBoundary0to2
    {
        type            processor;
        value           nonuniform List<scalar> 
46
(
0.0108199
0.010953
0.0110718
0.0111798
0.0112802
0.0113762
0.0114713
0.0115686
0.0116711
0.0117817
0.0119026
0.0120349
0.0121787
0.0123324
0.0124924
0.0126538
0.0128101
0.0129555
0.013085
0.0131969
0.0132926
0.0133774
0.0134591
0.013547
0.0136504
0.000100586
0.000944244
0.00200298
0.00301115
0.00393917
0.00478662
0.00555794
0.00625825
0.00689246
0.00746513
0.00798051
0.00844257
0.00885514
0.00922191
0.0095465
0.00983248
0.0100834
0.0103027
0.0104939
0.0108199
0.0106605
)
;
    }
}


// ************************************************************************* //
