/*--------------------------------*- C++ -*----------------------------------*\
| =========                 |                                                 |
| \\      /  F ield         | OpenFOAM: The Open Source CFD Toolbox           |
|  \\    /   O peration     | Version:  5.0                                   |
|   \\  /    A nd           | Web:      www.OpenFOAM.org                      |
|    \\/     M anipulation  |                                                 |
\*---------------------------------------------------------------------------*/
FoamFile
{
    version     2.0;
    format      ascii;
    class       volScalarField;
    location    "0.7";
    object      p;
}
// * * * * * * * * * * * * * * * * * * * * * * * * * * * * * * * * * * * * * //

dimensions      [1 -1 -2 0 0 0 0];

internalField   nonuniform List<scalar> 
1935
(
428.053
426.388
426.514
428.174
431.211
435.107
439.458
444.113
449.061
454.346
460.038
466.197
472.908
480.197
488.086
496.587
505.698
515.409
525.703
536.553
547.877
559.743
572.066
584.794
597.881
611.282
624.944
638.813
652.828
666.925
681.033
695.06
708.928
722.535
735.763
748.471
760.495
771.697
781.868
791.08
798.416
804.873
810.72
816.837
381.054
378.95
378.448
379.632
382.429
386.057
390.243
394.847
399.835
405.225
411.062
417.395
424.278
431.741
439.804
448.478
457.76
467.637
478.088
489.088
500.667
512.696
525.17
538.058
551.312
564.885
578.729
592.789
607.01
621.329
635.688
649.993
664.166
678.104
691.678
704.725
717.046
728.469
738.893
747.792
753.917
758.003
761.727
765.582
332.809
331.139
331.097
332.334
334.684
337.914
341.814
346.227
351.12
356.489
362.362
368.773
375.758
383.341
391.539
400.357
409.793
419.833
430.457
441.643
453.368
465.577
478.238
491.313
504.756
518.519
532.555
546.81
561.229
575.749
590.305
604.811
619.177
633.292
647.016
660.173
672.546
683.914
694.14
702.811
708.722
712.349
715.075
716.991
284.353
283.221
283.783
285.113
287.278
290.215
293.815
297.988
302.704
307.963
313.783
320.191
327.21
334.86
343.151
352.082
361.648
371.833
382.617
393.971
405.865
418.257
431.11
444.38
458.021
471.984
486.22
500.675
515.292
530.004
544.74
559.413
573.924
588.152
601.948
615.127
627.465
638.714
648.652
656.901
662.774
666.434
668.953
669.987
236.105
235.686
236.693
238.081
240.08
242.747
246.044
249.937
254.418
259.497
265.198
271.542
278.545
286.22
294.57
303.59
313.267
323.581
334.512
346.028
358.098
370.676
383.723
397.193
411.038
425.209
439.654
454.317
469.139
484.049
498.971
513.812
528.466
542.805
556.674
569.883
582.206
593.388
603.165
611.203
617.053
620.826
623.19
624.191
188.053
188.542
189.792
191.127
192.916
195.291
198.265
201.846
206.049
210.905
216.442
222.683
229.639
237.315
245.71
254.806
264.586
275.025
286.1
297.785
310.038
322.811
336.06
349.741
363.803
378.196
392.865
407.753
422.799
437.93
453.063
468.101
482.932
497.423
511.412
524.711
537.095
548.312
558.092
566.134
572.119
576.059
578.355
579.302
140.066
141.375
142.745
143.997
145.569
147.651
150.299
153.553
157.452
162.051
167.399
173.518
180.412
188.079
196.513
205.685
215.57
226.129
237.35
249.211
261.661
274.642
288.107
302.013
316.308
330.944
345.858
360.992
376.291
391.675
407.055
422.334
437.393
452.095
466.277
479.751
492.296
503.671
513.615
521.855
528.135
532.399
534.839
535.769
91.9787
93.7853
95.1653
96.3383
97.7292
99.5458
101.881
104.81
108.39
112.718
117.88
123.896
130.755
138.442
146.952
156.227
166.237
176.913
188.271
200.313
212.972
226.167
239.852
253.994
268.541
283.443
298.626
314.031
329.616
345.293
360.964
376.535
391.884
406.87
421.328
435.074
447.896
459.56
469.823
478.435
485.175
489.939
492.756
493.853
43.3513
45.4965
46.9991
48.0518
49.1281
50.514
52.382
54.8833
58.1069
62.1897
67.2391
73.2479
80.1765
88.0338
96.8392
106.356
116.538
127.351
138.879
151.154
164.06
177.468
191.352
205.714
220.511
235.694
251.162
266.856
282.767
298.784
314.793
330.716
346.423
361.772
376.598
390.721
403.936
416.022
426.748
435.889
443.246
448.696
452.161
453.714
9.52537
10.5717
11.2919
11.6831
11.9871
12.4187
13.0881
14.1122
15.7537
18.2413
21.5563
25.7821
31.0533
37.6753
45.9347
55.0531
65.4645
76.6117
88.5687
101.425
114.842
128.587
142.716
157.305
172.327
187.771
203.504
219.474
235.739
252.142
268.535
284.874
301.012
316.808
332.097
346.704
360.428
373.059
384.377
394.173
402.265
408.551
412.972
415.591
-0.174901
-0.144078
-0.153683
-0.13425
-0.115923
-0.105057
-0.097646
-0.0867637
0.0892475
0.555659
1.26512
2.31189
3.82404
6.00551
8.986
13.3891
19.3851
27.2844
37.0878
49.1726
63.2246
77.9134
92.8276
108.082
123.523
139.356
155.368
171.547
188.151
204.963
221.765
238.584
255.23
271.566
287.417
302.618
316.968
330.265
342.289
352.833
361.716
368.832
374.171
377.851
-0.190814
-0.191258
-0.189389
-0.185913
-0.181681
-0.177741
-0.173191
-0.166366
-0.155428
-0.146183
-0.141563
-0.139072
-0.138088
-0.140815
-0.136595
-0.101036
0.447423
2.16789
5.16899
9.93922
17.3936
27.5044
40.053
55.1837
72.088
89.4415
106.318
122.775
139.827
157.101
174.289
191.622
208.847
225.817
242.333
258.247
273.343
287.428
300.265
311.638
321.328
329.156
334.98
338.59
-0.261505
-0.255022
-0.249285
-0.242716
-0.236794
-0.231142
-0.225578
-0.220022
-0.216285
-0.214268
-0.212805
-0.211675
-0.210809
-0.207642
-0.20108
-0.183873
-0.16085
-0.1734
-0.187092
-0.165715
0.197417
1.91466
5.61674
12.1873
23.1674
37.5772
54.0667
71.5397
90.3094
108.679
126.29
144.199
162.051
179.729
197.003
213.746
229.707
244.711
258.48
270.785
281.348
289.906
296.189
299.838
-0.308589
-0.307444
-0.303666
-0.297987
-0.291985
-0.286132
-0.280533
-0.275284
-0.271285
-0.268341
-0.265819
-0.263414
-0.260609
-0.258501
-0.254309
-0.248294
-0.253298
-0.262221
-0.26238
-0.24501
-0.218066
-0.22166
-0.252133
-0.207143
1.21057
4.89541
11.7901
22.7664
39.2284
58.4846
76.9773
96.1553
114.794
133.299
151.409
169.089
186.033
202.099
216.94
230.33
241.92
251.39
258.415
262.701
-0.361625
-0.360678
-0.357715
-0.352975
-0.347688
-0.342356
-0.337188
-0.332316
-0.328142
-0.324711
-0.321819
-0.319242
-0.31672
-0.314309
-0.311017
-0.307365
-0.308804
-0.312379
-0.31242
-0.308126
-0.315918
-0.332089
-0.334175
-0.305583
-0.272833
-0.347188
-0.309609
1.04201
5.80764
15.6222
28.6738
46.5248
66.5716
86.5108
105.56
124.319
142.353
159.623
175.678
190.344
203.177
213.828
221.956
227.441
-0.415638
-0.414837
-0.412266
-0.408237
-0.403661
-0.398934
-0.394286
-0.389884
-0.385969
-0.382612
-0.379738
-0.377203
-0.37485
-0.372545
-0.36994
-0.367289
-0.366755
-0.368024
-0.368421
-0.367517
-0.372013
-0.380131
-0.382312
-0.378767
-0.399541
-0.414288
-0.386134
-0.354101
-0.457263
-0.03248
2.54688
9.39547
22.1629
39.4061
59.1668
79.5524
98.8264
117.507
134.916
151.035
165.307
177.392
186.915
193.959
-0.470661
-0.469772
-0.467425
-0.46395
-0.45998
-0.455825
-0.451697
-0.447769
-0.444212
-0.441089
-0.438366
-0.435961
-0.433777
-0.431735
-0.429728
-0.42795
-0.427383
-0.42801
-0.428551
-0.428616
-0.430652
-0.434941
-0.438139
-0.44018
-0.452772
-0.460663
-0.457817
-0.47486
-0.478825
-0.462412
-0.546182
-0.576963
1.19527
6.87674
18.2255
35.0555
54.8497
75.9083
95.0939
113.035
128.97
142.575
153.496
162.1
-0.52664
-0.525509
-0.523295
-0.520236
-0.516785
-0.513162
-0.50954
-0.506072
-0.502889
-0.50005
-0.497552
-0.495355
-0.493407
-0.491675
-0.490152
-0.488995
-0.488681
-0.489171
-0.489879
-0.490671
-0.49262
-0.49601
-0.499413
-0.502404
-0.509421
-0.51687
-0.521372
-0.534595
-0.543578
-0.564769
-0.588235
-0.575363
-0.577139
-0.706875
0.375159
5.32366
16.0597
33.7641
54.2462
76.022
94.9849
110.675
122.712
132.133
-0.583504
-0.582068
-0.579918
-0.577182
-0.574178
-0.57104
-0.567898
-0.564876
-0.562077
-0.559559
-0.557339
-0.555406
-0.55374
-0.552334
-0.551214
-0.550493
-0.550407
-0.550941
-0.55185
-0.553133
-0.555307
-0.558478
-0.562001
-0.565751
-0.571639
-0.578578
-0.58462
-0.594508
-0.606724
-0.623705
-0.638494
-0.641549
-0.657901
-0.663376
-0.662266
-0.79137
-0.149802
4.51535
15.2463
34.6421
57.8412
80.2655
95.634
105.292
-0.641171
-0.63946
-0.637329
-0.634852
-0.632229
-0.629526
-0.626828
-0.62423
-0.621816
-0.619639
-0.617729
-0.616093
-0.61473
-0.613652
-0.612889
-0.612521
-0.612671
-0.613349
-0.614465
-0.616052
-0.618364
-0.621463
-0.625104
-0.629332
-0.634991
-0.641567
-0.648313
-0.657333
-0.668422
-0.681291
-0.694898
-0.705081
-0.718798
-0.726235
-0.743963
-0.753928
-0.746056
-0.832003
-0.570581
3.56309
15.3089
38.7521
63.9053
80.2192
-0.6996
-0.697664
-0.695545
-0.693283
-0.690989
-0.688669
-0.686375
-0.684174
-0.682134
-0.680303
-0.678715
-0.677388
-0.676337
-0.675577
-0.675143
-0.675089
-0.675488
-0.676359
-0.677681
-0.679492
-0.681926
-0.685038
-0.688764
-0.693175
-0.698656
-0.705002
-0.711999
-0.72055
-0.730483
-0.741614
-0.753621
-0.764428
-0.776606
-0.788731
-0.802754
-0.812283
-0.831634
-0.847172
-0.822749
-0.794517
-0.649428
2.96238
18.9755
43.9021
58.6516
-0.758761
-0.75666
-0.754565
-0.752492
-0.750483
-0.748503
-0.746571
-0.744737
-0.743052
-0.741559
-0.740292
-0.739276
-0.738531
-0.738079
-0.737948
-0.738182
-0.738828
-0.739909
-0.741434
-0.743437
-0.746001
-0.749175
-0.752961
-0.757426
-0.762754
-0.768894
-0.7758
-0.783848
-0.792943
-0.802954
-0.813514
-0.82369
-0.834589
-0.845839
-0.857172
-0.868069
-0.879488
-0.886797
-0.893185
-0.903963
-0.871329
-0.726294
-0.476761
6.44932
22.3862
-0.818631
-0.816429
-0.814381
-0.812482
-0.810724
-0.809042
-0.807435
-0.805935
-0.804581
-0.80341
-0.802454
-0.801742
-0.801293
-0.801133
-0.801287
-0.801787
-0.802671
-0.803961
-0.805678
-0.807856
-0.810548
-0.813798
-0.817632
-0.822103
-0.827308
-0.833245
-0.839911
-0.847455
-0.855823
-0.864884
-0.874342
-0.883732
-0.893372
-0.902926
-0.912178
-0.920668
-0.927159
-0.930887
-0.929837
-0.926276
-0.913407
-0.925631
-0.849225
-0.657658
0.773265
-0.879191
-0.876955
-0.874977
-0.873243
-0.871709
-0.870289
-0.868971
-0.867772
-0.866722
-0.865852
-0.865192
-0.864768
-0.864603
-0.864718
-0.865137
-0.865887
-0.866997
-0.868489
-0.870388
-0.872722
-0.875535
-0.878861
-0.882733
-0.88719
-0.892287
-0.898031
-0.904421
-0.911506
-0.919238
-0.927495
-0.936056
-0.944619
-0.953148
-0.96132
-0.96884
-0.975118
-0.979284
-0.980415
-0.975951
-0.966561
-0.950721
-0.939692
-0.909379
-0.888732
-0.898104
-0.940419
-0.938215
-0.936331
-0.934757
-0.933424
-0.932238
-0.931175
-0.930246
-0.929472
-0.928879
-0.928493
-0.92834
-0.928439
-0.928812
-0.929479
-0.930462
-0.931784
-0.933469
-0.935538
-0.938017
-0.940941
-0.944339
-0.94824
-0.952676
-0.957676
-0.963244
-0.969372
-0.976061
-0.98326
-0.990857
-0.998672
-1.00646
-1.01405
-1.02114
-1.02737
-1.03222
-1.03501
-1.03488
-1.03043
-1.02147
-1.00659
-0.989076
-0.968663
-0.955513
-0.933078
-1.00229
-1.00018
-0.998414
-0.996998
-0.995849
-0.994869
-0.994033
-0.993345
-0.992819
-0.992478
-0.992344
-0.99244
-0.992784
-0.993395
-0.99429
-0.995489
-0.997011
-0.998876
-1.0011
-1.00372
-1.00675
-1.01021
-1.01414
-1.01856
-1.02347
-1.02889
-1.03479
-1.04116
-1.04793
-1.055
-1.06222
-1.06936
-1.07622
-1.0825
-1.08785
-1.09183
-1.09388
-1.09337
-1.08958
-1.08226
-1.07078
-1.05647
-1.04092
-1.02941
-1.00215
-1.06479
-1.06282
-1.06119
-1.05993
-1.05895
-1.05816
-1.05752
-1.05705
-1.05675
-1.05663
-1.05673
-1.05705
-1.05762
-1.05845
-1.05956
-1.06095
-1.06266
-1.06469
-1.06707
-1.06981
-1.07293
-1.07647
-1.08043
-1.08483
-1.08968
-1.09498
-1.1007
-1.10682
-1.11326
-1.11995
-1.12672
-1.13338
-1.13971
-1.14544
-1.15028
-1.15384
-1.15568
-1.15535
-1.15242
-1.14676
-1.13823
-1.12742
-1.11515
-1.1053
-1.09043
-1.12788
-1.12609
-1.12462
-1.12351
-1.12269
-1.12207
-1.12162
-1.12133
-1.12123
-1.12133
-1.12163
-1.12216
-1.12293
-1.12396
-1.12526
-1.12683
-1.12871
-1.13089
-1.1334
-1.13626
-1.13948
-1.14308
-1.14708
-1.15149
-1.1563
-1.16152
-1.16711
-1.17305
-1.17927
-1.18569
-1.19216
-1.1985
-1.20451
-1.20996
-1.21459
-1.2181
-1.22014
-1.22038
-1.21858
-1.21465
-1.2086
-1.20072
-1.1913
-1.18216
-1.17289
-1.19153
-1.18996
-1.18865
-1.1877
-1.18704
-1.18657
-1.18628
-1.18617
-1.18625
-1.18653
-1.18702
-1.18774
-1.1887
-1.18991
-1.19138
-1.19311
-1.19514
-1.19746
-1.2001
-1.20306
-1.20638
-1.21005
-1.2141
-1.21853
-1.22333
-1.22851
-1.23403
-1.23986
-1.24595
-1.25221
-1.25851
-1.26469
-1.27057
-1.27595
-1.28063
-1.28437
-1.28692
-1.28806
-1.28762
-1.28559
-1.28199
-1.27702
-1.27084
-1.26386
-1.25625
-1.2557
-1.25437
-1.25324
-1.25246
-1.25194
-1.25162
-1.25148
-1.25153
-1.25177
-1.25222
-1.25288
-1.25377
-1.2549
-1.25627
-1.25789
-1.25978
-1.26194
-1.26439
-1.26714
-1.27021
-1.27361
-1.27736
-1.28147
-1.28594
-1.29077
-1.29594
-1.30144
-1.30723
-1.31327
-1.31947
-1.32572
-1.33187
-1.33777
-1.34327
-1.3482
-1.3524
-1.35569
-1.35793
-1.35906
-1.35908
-1.35806
-1.35617
-1.35363
-1.35058
-1.34668
-1.32038
-1.3193
-1.31836
-1.31774
-1.31736
-1.31718
-1.31719
-1.31738
-1.31777
-1.31837
-1.31919
-1.32023
-1.32151
-1.32302
-1.32478
-1.3268
-1.32908
-1.33165
-1.33451
-1.33768
-1.34117
-1.345
-1.34919
-1.35372
-1.3586
-1.36381
-1.36934
-1.37515
-1.3812
-1.38742
-1.39371
-1.39994
-1.40599
-1.41174
-1.41708
-1.42189
-1.42609
-1.4296
-1.43241
-1.43459
-1.43625
-1.43756
-1.43884
-1.44039
-1.4421
-1.38554
-1.38471
-1.38397
-1.38351
-1.38328
-1.38323
-1.38337
-1.3837
-1.38423
-1.38496
-1.38592
-1.38709
-1.3885
-1.39014
-1.39203
-1.39416
-1.39656
-1.39923
-1.40219
-1.40546
-1.40905
-1.41297
-1.41724
-1.42185
-1.42681
-1.43209
-1.43769
-1.44356
-1.44968
-1.45599
-1.46239
-1.46879
-1.47509
-1.4812
-1.48705
-1.4926
-1.4978
-1.50265
-1.50721
-1.51157
-1.51591
-1.52044
-1.5255
-1.53156
-1.53895
-1.45114
-1.45057
-1.45003
-1.44974
-1.44964
-1.44973
-1.44999
-1.45045
-1.4511
-1.45197
-1.45304
-1.45434
-1.45587
-1.45762
-1.45962
-1.46185
-1.46435
-1.46712
-1.47018
-1.47355
-1.47723
-1.48125
-1.48561
-1.49032
-1.49537
-1.50075
-1.50644
-1.51242
-1.51865
-1.52509
-1.53166
-1.53829
-1.54491
-1.55146
-1.55792
-1.56427
-1.57052
-1.57674
-1.58302
-1.58951
-1.59642
-1.604
-1.61263
-1.62281
-1.63512
-1.51718
-1.51685
-1.51652
-1.51639
-1.51644
-1.51665
-1.51704
-1.51761
-1.51839
-1.51936
-1.52055
-1.52196
-1.52359
-1.52544
-1.52753
-1.52986
-1.53245
-1.53531
-1.53847
-1.54193
-1.54571
-1.54983
-1.55429
-1.5591
-1.56426
-1.56975
-1.57555
-1.58165
-1.58801
-1.59462
-1.6014
-1.60831
-1.6153
-1.62235
-1.62946
-1.63666
-1.64399
-1.65154
-1.65946
-1.66793
-1.6772
-1.68753
-1.69933
-1.71309
-1.72944
-1.58365
-1.58354
-1.58341
-1.58345
-1.58363
-1.58398
-1.58448
-1.58517
-1.58605
-1.58713
-1.58842
-1.58992
-1.59164
-1.59358
-1.59576
-1.59817
-1.60084
-1.60379
-1.60704
-1.61059
-1.61447
-1.61869
-1.62326
-1.62818
-1.63344
-1.63903
-1.64495
-1.65118
-1.6577
-1.6645
-1.67152
-1.67874
-1.68614
-1.69371
-1.7015
-1.70954
-1.71792
-1.72674
-1.73616
-1.7464
-1.75772
-1.77041
-1.78487
-1.80158
-1.82116
-1.65053
-1.65062
-1.65069
-1.65089
-1.65122
-1.65168
-1.65231
-1.6531
-1.65408
-1.65525
-1.65663
-1.65821
-1.66001
-1.66203
-1.66428
-1.66677
-1.66952
-1.67255
-1.67588
-1.67952
-1.6835
-1.68782
-1.69248
-1.6975
-1.70286
-1.70856
-1.7146
-1.72096
-1.72764
-1.73464
-1.74193
-1.74948
-1.7573
-1.76541
-1.77385
-1.7827
-1.79206
-1.80203
-1.81279
-1.82454
-1.83756
-1.85217
-1.86874
-1.88775
-1.90975
-1.71783
-1.71808
-1.71834
-1.7187
-1.71917
-1.71976
-1.7205
-1.72139
-1.72246
-1.72372
-1.72517
-1.72683
-1.7287
-1.73078
-1.73309
-1.73565
-1.73846
-1.74157
-1.74498
-1.74871
-1.75277
-1.75718
-1.76193
-1.76703
-1.77249
-1.77829
-1.78443
-1.79092
-1.79777
-1.80499
-1.81255
-1.82046
-1.8287
-1.83731
-1.84636
-1.85593
-1.86614
-1.87711
-1.889
-1.902
-1.91639
-1.93248
-1.95064
-1.97128
-1.99497
-1.78551
-1.78593
-1.78637
-1.78689
-1.78749
-1.7882
-1.78904
-1.79003
-1.79118
-1.79252
-1.79404
-1.79576
-1.79769
-1.79982
-1.80219
-1.8048
-1.80768
-1.81084
-1.81432
-1.81813
-1.82227
-1.82674
-1.83157
-1.83674
-1.84227
-1.84816
-1.85441
-1.86104
-1.86806
-1.87549
-1.88333
-1.89157
-1.90022
-1.90929
-1.91886
-1.92904
-1.93994
-1.95172
-1.96452
-1.97852
-1.99396
-2.01114
-2.03038
-2.05208
-2.07676
-1.8536
-1.85416
-1.85477
-1.85544
-1.85618
-1.857
-1.85794
-1.85902
-1.86025
-1.86165
-1.86323
-1.865
-1.86697
-1.86916
-1.87156
-1.87422
-1.87715
-1.88037
-1.88391
-1.88777
-1.89197
-1.89649
-1.90137
-1.90659
-1.91218
-1.91815
-1.92451
-1.93127
-1.93846
-1.94609
-1.95417
-1.96271
-1.97171
-1.98119
-1.99121
-2.00187
-2.01332
-2.02571
-2.03918
-2.0539
-2.07009
-2.08799
-2.10789
-2.13017
-2.15527
-1.9221
-1.92279
-1.92355
-1.92437
-1.92522
-1.92616
-1.92719
-1.92834
-1.92964
-1.9311
-1.93273
-1.93455
-1.93656
-1.93878
-1.94122
-1.94391
-1.94688
-1.95015
-1.95373
-1.95763
-1.96186
-1.96641
-1.97131
-1.97657
-1.98221
-1.98826
-1.99472
-2.00161
-2.00894
-2.01673
-2.025
-2.03378
-2.04306
-2.05287
-2.06327
-2.07433
-2.08619
-2.099
-2.11291
-2.12808
-2.14469
-2.16297
-2.18317
-2.20561
-2.23072
-1.99102
-1.99183
-1.99273
-1.99367
-1.99464
-1.99567
-1.99679
-1.99802
-1.99937
-2.00088
-2.00255
-2.00439
-2.00643
-2.00868
-2.01115
-2.01388
-2.01688
-2.02017
-2.02378
-2.0277
-2.03193
-2.0365
-2.0414
-2.04668
-2.05236
-2.05846
-2.065
-2.07198
-2.07942
-2.08733
-2.09574
-2.10469
-2.11419
-2.12426
-2.13496
-2.14633
-2.15848
-2.17155
-2.18569
-2.20104
-2.21778
-2.23612
-2.25628
-2.27857
-2.30337
-2.06038
-2.06128
-2.0623
-2.06336
-2.06443
-2.06555
-2.06674
-2.06803
-2.06943
-2.07097
-2.07267
-2.07454
-2.0766
-2.07887
-2.08136
-2.08411
-2.08713
-2.09044
-2.09405
-2.09796
-2.10219
-2.10675
-2.11165
-2.11694
-2.12263
-2.12875
-2.13532
-2.14236
-2.14986
-2.15785
-2.16636
-2.17542
-2.18507
-2.19533
-2.20621
-2.21778
-2.23011
-2.2433
-2.25748
-2.27281
-2.28945
-2.30759
-2.32745
-2.34932
-2.37358
-2.13017
-2.13116
-2.13229
-2.13345
-2.13461
-2.13581
-2.13706
-2.1384
-2.13984
-2.1414
-2.14311
-2.14499
-2.14706
-2.14934
-2.15185
-2.15461
-2.15764
-2.16094
-2.16454
-2.16843
-2.17264
-2.17718
-2.18208
-2.18735
-2.19302
-2.19912
-2.20568
-2.21272
-2.22024
-2.22827
-2.23684
-2.24597
-2.25569
-2.26602
-2.27698
-2.28862
-2.30099
-2.31417
-2.32828
-2.34345
-2.35983
-2.37762
-2.397
-2.41827
-2.44175
-2.20042
-2.20147
-2.20268
-2.20393
-2.20517
-2.20644
-2.20775
-2.20912
-2.21059
-2.21217
-2.21389
-2.21578
-2.21786
-2.22014
-2.22265
-2.22541
-2.22843
-2.23171
-2.23527
-2.23913
)
;

boundaryField
{
    leftWall
    {
        type            calculated;
        value           nonuniform List<scalar> 
44
(
428.053
381.054
332.809
284.353
236.105
188.053
140.066
91.9787
43.3513
9.52537
-0.174901
-0.190814
-0.261505
-0.308589
-0.361625
-0.415638
-0.470661
-0.52664
-0.583504
-0.641171
-0.6996
-0.758761
-0.818631
-0.879191
-0.940419
-1.00229
-1.06479
-1.12788
-1.19153
-1.2557
-1.32038
-1.38554
-1.45114
-1.51718
-1.58365
-1.65053
-1.71783
-1.78551
-1.8536
-1.9221
-1.99102
-2.06038
-2.13017
-2.20042
)
;
    }
    rightWall
    {
        type            calculated;
        value           nonuniform 0();
    }
    lowerWall
    {
        type            calculated;
        value           nonuniform List<scalar> 
44
(
451.596
449.931
450.057
451.717
454.755
458.651
463.001
467.657
472.604
477.889
483.581
489.741
496.452
503.74
511.63
520.131
529.241
538.952
549.246
560.097
571.421
583.286
595.61
608.337
621.425
634.825
648.488
662.357
676.371
690.468
704.576
718.604
732.472
746.078
759.307
772.015
784.038
795.241
805.304
813.929
821.681
828.417
834.25
840.348
)
;
    }
    atmosphere
    {
        type            calculated;
        value           nonuniform 0();
    }
    defaultFaces
    {
        type            empty;
    }
    procBoundary0to1
    {
        type            processor;
        value           nonuniform List<scalar> 
44
(
822.455
769.074
717.95
668.856
622.316
578.094
535.652
494.362
454.724
417.54
380.395
339.506
300.184
263.83
230.256
198.872
169.09
140.429
113
87.2811
87.2811
65.2951
30.5568
1.97956
-2.14391
-1.16632
-0.963014
-1.03729
-1.14932
-1.24629
-1.34239
-1.44428
-1.54818
-1.65038
-1.74933
-1.84447
-1.93554
-2.02236
-2.10501
-2.18376
-2.25901
-2.33118
-2.40065
-2.4678
)
;
    }
    procBoundary0to2
    {
        type            processor;
        value           nonuniform List<scalar> 
46
(
-2.24331
-2.24782
-2.25269
-2.25792
-2.26356
-2.26962
-2.27613
-2.28312
-2.29062
-2.29863
-2.3072
-2.31632
-2.32602
-2.33632
-2.34724
-2.35882
-2.37112
-2.38418
-2.39812
-2.41303
-2.42907
-2.44639
-2.46521
-2.48573
-2.50823
-2.27112
-2.27223
-2.2735
-2.27482
-2.27613
-2.27745
-2.27881
-2.28022
-2.28172
-2.28332
-2.28505
-2.28693
-2.289
-2.29127
-2.29377
-2.29651
-2.29951
-2.30276
-2.30628
-2.24331
-2.31009
)
;
    }
}


// ************************************************************************* //
