/*--------------------------------*- C++ -*----------------------------------*\
| =========                 |                                                 |
| \\      /  F ield         | OpenFOAM: The Open Source CFD Toolbox           |
|  \\    /   O peration     | Version:  5.0                                   |
|   \\  /    A nd           | Web:      www.OpenFOAM.org                      |
|    \\/     M anipulation  |                                                 |
\*---------------------------------------------------------------------------*/
FoamFile
{
    version     2.0;
    format      ascii;
    class       volScalarField;
    location    "0.7";
    object      p_rgh;
}
// * * * * * * * * * * * * * * * * * * * * * * * * * * * * * * * * * * * * * //

dimensions      [1 -1 -2 0 0 0 0];

internalField   nonuniform List<scalar> 
1935
(
451.596
449.931
450.057
451.717
454.755
458.651
463.001
467.657
472.604
477.889
483.581
489.741
496.452
503.74
511.63
520.131
529.241
538.952
549.246
560.097
571.421
583.286
595.61
608.337
621.425
634.825
648.488
662.357
676.371
690.468
704.576
718.604
732.472
746.078
759.307
772.015
784.038
795.241
805.304
813.929
821.681
828.417
834.25
840.348
451.684
449.58
449.079
450.262
453.06
456.687
460.874
465.478
470.466
475.855
481.693
488.026
494.908
502.371
510.435
519.108
528.39
538.268
548.719
559.718
571.298
583.326
595.801
608.688
621.942
635.516
649.359
663.42
677.64
691.96
706.318
720.623
734.796
748.734
762.308
775.356
787.677
799.099
809.443
817.264
823.152
828.311
831.651
834.34
450.526
448.856
448.815
450.051
452.401
455.631
459.531
463.944
468.837
474.207
480.08
486.491
493.475
501.058
509.256
518.075
527.51
537.55
548.174
559.36
571.086
583.294
595.955
609.03
622.473
636.237
650.272
664.527
678.946
693.467
708.022
722.528
736.895
751.01
764.734
777.891
790.263
801.632
811.858
820.475
825.694
828.068
829.281
831.198
449.157
448.026
448.588
449.918
452.083
455.02
458.62
462.793
467.509
472.767
478.587
484.995
492.015
499.665
507.955
516.886
526.452
536.638
547.422
558.775
570.669
583.062
595.914
609.184
622.825
636.789
651.025
665.48
680.096
694.808
709.545
724.218
738.729
752.956
766.752
779.931
792.27
803.519
813.456
821.705
827.578
830.656
829.736
829.876
447.997
447.578
448.584
449.972
451.971
454.638
457.935
461.828
466.309
471.389
477.09
483.433
490.437
498.111
506.462
515.481
525.158
535.473
546.403
557.92
569.989
582.568
595.614
609.084
622.929
637.101
651.545
666.209
681.03
695.94
710.862
725.703
740.357
754.697
768.565
781.774
794.098
805.28
815.057
823.094
828.945
832.718
834.476
832.255
447.031
447.52
448.77
450.105
451.895
454.269
457.243
460.824
465.028
469.883
475.421
481.662
488.618
496.293
504.688
513.784
523.565
534.003
545.078
556.763
569.016
581.789
595.039
608.719
622.781
637.174
651.843
666.731
681.778
696.908
712.042
727.079
741.91
756.401
770.391
783.689
796.073
807.29
817.07
825.113
831.098
835.037
837.334
838.28
446.132
447.441
448.81
450.062
451.634
453.716
456.364
459.618
463.518
468.116
473.464
479.583
486.477
494.144
502.578
511.75
521.635
532.195
543.415
555.276
567.727
580.708
594.172
608.078
622.374
637.009
651.923
667.057
682.357
697.741
713.121
728.399
743.459
758.161
772.343
785.816
798.362
809.736
819.68
827.92
834.2
838.464
840.905
841.834
445.131
446.938
448.318
449.491
450.882
452.698
455.033
457.963
461.542
465.87
471.032
477.049
483.907
491.595
500.104
509.38
519.39
530.065
541.424
553.465
566.125
579.32
593.005
607.146
621.693
636.596
651.778
667.183
682.769
698.446
714.116
729.688
745.037
760.022
774.481
788.227
801.048
812.712
822.975
831.587
838.327
843.092
845.909
847.005
441.288
443.892
445.926
447.097
448.137
449.668
451.942
454.946
458.346
462.429
467.478
473.487
480.416
488.273
497.078
506.596
516.777
527.59
539.118
551.393
564.299
577.707
591.591
605.953
620.75
635.933
651.401
667.095
683.007
699.023
715.032
730.956
746.662
762.011
776.838
790.961
804.175
816.261
826.988
836.129
843.485
848.935
852.4
853.953
199.315
218.961
233.242
237.32
237.8
241.216
250.199
266.755
289.6
317.064
349.712
385.111
420.458
453.268
481.1
500.795
512.791
523.938
535.895
548.751
562.168
575.913
590.042
604.631
619.653
635.097
650.83
666.8
683.065
699.468
715.861
732.2
748.338
764.135
779.423
794.03
807.754
820.385
831.704
841.499
849.592
855.877
860.298
862.918
0.319934
0.350757
0.341152
0.360585
0.378912
0.389778
0.397189
0.408072
3.52211
12.7558
26.9713
47.9793
78.1367
120.759
180.378
261.159
349.623
425.849
487.892
534.858
558.06
572.749
587.663
602.917
618.358
634.192
650.204
666.382
682.987
699.799
716.601
733.419
750.066
766.402
782.253
797.454
811.804
825.101
837.124
847.668
856.552
863.668
869.006
872.686
0.352174
0.35173
0.353599
0.357076
0.361307
0.365246
0.369794
0.376616
0.387551
0.396794
0.401414
0.403906
0.404893
0.402169
0.406394
0.531895
9.86829
44.4271
105.104
199.036
330.981
455.185
544.534
598.172
615.077
632.43
649.307
665.764
682.816
700.09
717.278
734.611
751.836
768.806
785.322
801.235
816.332
830.417
843.254
854.627
864.317
872.145
877.969
881.579
0.330085
0.336568
0.342305
0.348873
0.354794
0.360444
0.366003
0.371554
0.375285
0.377298
0.37876
0.379891
0.380759
0.383929
0.39051
0.407716
0.430761
0.418309
0.404885
0.426921
5.92552
38.5146
114.693
250.531
424.742
570.649
645.656
663.129
681.899
700.268
717.88
735.789
753.641
771.319
788.593
805.335
821.297
836.3
850.069
862.374
872.937
881.495
887.779
891.427
0.332052
0.333198
0.336975
0.342654
0.348655
0.354505
0.3601
0.365342
0.369336
0.372276
0.374796
0.377201
0.380008
0.382118
0.38631
0.392325
0.387343
0.37842
0.378262
0.395636
0.422646
0.419447
0.390045
0.507587
28.0733
110.291
268.22
455.953
628.443
699.126
717.619
736.797
755.435
773.941
792.05
809.73
826.674
842.74
857.582
870.971
882.561
892.031
899.056
903.343
0.328524
0.329471
0.332434
0.337174
0.34246
0.34779
0.352955
0.357823
0.361994
0.365421
0.368311
0.370888
0.373411
0.375822
0.379113
0.382755
0.381302
0.377713
0.377707
0.382022
0.374231
0.358063
0.355989
0.384601
0.417987
0.345417
0.472418
28.7344
157.763
410.177
593.727
736.673
756.72
776.659
795.709
814.468
832.502
849.772
865.827
880.493
893.326
903.977
912.105
917.59
0.324478
0.325279
0.327849
0.331878
0.336454
0.34118
0.345827
0.350228
0.354142
0.357497
0.360371
0.362906
0.365259
0.367563
0.370164
0.372805
0.37332
0.372017
0.371568
0.372409
0.367877
0.359984
0.357804
0.361348
0.34058
0.325865
0.354052
0.38702
0.287231
10.1463
85.4754
303.445
586.89
766.169
799.282
819.668
838.942
857.623
875.031
891.15
905.422
917.508
927.031
934.075
0.319886
0.320774
0.323122
0.326596
0.330566
0.334721
0.338849
0.342777
0.346333
0.349456
0.352179
0.354584
0.356768
0.358809
0.360813
0.362585
0.363137
0.362482
0.361897
0.361763
0.359635
0.35526
0.351987
0.34993
0.337774
0.329883
0.33273
0.315703
0.311799
0.328554
0.246842
0.447331
60.5948
264.853
569.222
794.5
845.396
866.455
885.64
903.582
919.516
933.122
944.043
952.646
0.314805
0.315936
0.31815
0.32121
0.324661
0.328284
0.331905
0.335374
0.338556
0.341395
0.343893
0.34609
0.348038
0.34977
0.351291
0.352445
0.352751
0.352246
0.351509
0.350672
0.348653
0.345167
0.341641
0.33851
0.331452
0.324044
0.319767
0.30685
0.297868
0.276682
0.253251
0.266165
0.265808
0.138929
37.3433
224.111
530.502
821.93
895.639
917.467
936.43
952.121
964.158
973.579
0.309313
0.310749
0.3129
0.315635
0.31864
0.321777
0.324919
0.327942
0.330741
0.333259
0.335478
0.337411
0.339078
0.340483
0.341603
0.342322
0.342405
0.341865
0.340943
0.339638
0.337426
0.334198
0.330592
0.326728
0.320711
0.313656
0.307551
0.297756
0.285857
0.269112
0.254324
0.251269
0.234945
0.229512
0.231134
0.10304
17.5668
176.215
457.712
821.292
940.881
973.08
988.451
998.11
0.303495
0.305206
0.307337
0.309814
0.312437
0.31514
0.317838
0.320436
0.32285
0.325027
0.326937
0.328573
0.329936
0.331014
0.331776
0.332144
0.331993
0.331314
0.330193
0.328599
0.326272
0.323148
0.319467
0.315179
0.309434
0.302753
0.295893
0.286793
0.275741
0.263011
0.249632
0.239585
0.225868
0.218432
0.200713
0.190754
0.198722
0.112837
3.36398
102.878
369.751
820.325
983.235
1024.88
0.297396
0.299332
0.301452
0.303713
0.306008
0.308327
0.310621
0.312822
0.314862
0.316693
0.318281
0.319608
0.32066
0.321419
0.321853
0.321907
0.321508
0.320637
0.319313
0.317501
0.315063
0.311943
0.308203
0.303767
0.298247
0.291844
0.284771
0.276135
0.266146
0.255006
0.243057
0.232369
0.220342
0.208266
0.194242
0.184713
0.165364
0.149825
0.17425
0.20248
0.347582
53.3428
390.756
923.061
1055.64
0.291051
0.293153
0.295247
0.29732
0.299329
0.30131
0.303241
0.305075
0.30676
0.308253
0.30952
0.310536
0.311281
0.311734
0.311864
0.31163
0.310984
0.309903
0.308378
0.306374
0.30381
0.300634
0.296844
0.292372
0.28703
0.280867
0.273926
0.265829
0.256683
0.246629
0.236051
0.2259
0.21506
0.203879
0.192616
0.181743
0.170324
0.163016
0.156627
0.14585
0.178483
0.323533
0.577218
125.595
751.38
0.284487
0.286689
0.288738
0.290637
0.292395
0.294077
0.295684
0.297184
0.298538
0.299709
0.300664
0.301377
0.301825
0.301985
0.301832
0.301331
0.300448
0.299157
0.29744
0.295263
0.29257
0.28932
0.285485
0.281013
0.275804
0.269859
0.263181
0.255616
0.247219
0.238127
0.22864
0.219238
0.209604
0.200077
0.19086
0.182402
0.175938
0.172231
0.173282
0.176842
0.189712
0.177488
0.253917
0.449911
51.9747
0.277729
0.279965
0.281943
0.283677
0.285211
0.286631
0.287949
0.289147
0.290198
0.291067
0.291727
0.292152
0.292317
0.292202
0.291782
0.291032
0.289923
0.288431
0.286532
0.284197
0.281385
0.278058
0.274187
0.269729
0.264631
0.258885
0.252491
0.245398
0.237655
0.229383
0.220803
0.212223
0.203683
0.195512
0.188
0.181736
0.177587
0.176474
0.180952
0.190356
0.206199
0.217228
0.247541
0.268248
0.265462
0.270802
0.273006
0.274889
0.276463
0.277796
0.278983
0.280045
0.280975
0.281749
0.282342
0.282727
0.282881
0.282782
0.282409
0.281742
0.280759
0.279436
0.277752
0.275683
0.273203
0.27028
0.266882
0.26298
0.258544
0.253544
0.247976
0.241847
0.235155
0.227952
0.220348
0.212524
0.204724
0.197121
0.190025
0.183789
0.178946
0.17616
0.176297
0.180761
0.189734
0.204618
0.222142
0.242558
0.255709
0.278262
0.263732
0.265845
0.267612
0.269028
0.270177
0.271156
0.271992
0.272681
0.273207
0.273548
0.273681
0.273586
0.273242
0.272631
0.271735
0.270537
0.269014
0.267149
0.264921
0.262307
0.259279
0.255813
0.251884
0.247468
0.242551
0.237134
0.231233
0.224868
0.218095
0.211017
0.203796
0.196647
0.189785
0.183502
0.17814
0.174155
0.172098
0.172609
0.176406
0.183731
0.19522
0.209541
0.225101
0.236617
0.263873
0.25655
0.25852
0.26015
0.26141
0.262389
0.263182
0.263816
0.26429
0.264593
0.264706
0.26461
0.264286
0.263718
0.262889
0.261784
0.260388
0.258682
0.25665
0.254274
0.251534
0.248408
0.244875
0.240914
0.23651
0.231656
0.226358
0.220638
0.214524
0.208075
0.20139
0.194618
0.187956
0.181623
0.175882
0.171039
0.167472
0.165625
0.165957
0.168883
0.174547
0.183084
0.193903
0.206182
0.216042
0.230913
0.24929
0.251074
0.252552
0.253654
0.254474
0.255098
0.255551
0.255833
0.255934
0.255841
0.255537
0.255006
0.254233
0.253205
0.25191
0.250334
0.248461
0.246278
0.243766
0.240909
0.237688
0.234085
0.230086
0.225679
0.220863
0.215647
0.210054
0.204117
0.197893
0.191476
0.185005
0.178662
0.172651
0.167199
0.162565
0.159056
0.157012
0.15676
0.158558
0.162489
0.16854
0.176422
0.185847
0.195
0.204274
0.241987
0.243555
0.244865
0.245809
0.246477
0.246945
0.247233
0.247342
0.247262
0.246983
0.24649
0.245771
0.244812
0.243604
0.242137
0.240398
0.238375
0.236052
0.233416
0.230449
0.227137
0.223463
0.219415
0.214986
0.210178
0.205004
0.199485
0.193654
0.187564
0.181302
0.174999
0.168819
0.162942
0.157559
0.152877
0.149135
0.146583
0.145444
0.145872
0.147906
0.151501
0.156468
0.162655
0.169638
0.177253
0.234677
0.236008
0.237137
0.237922
0.238443
0.238765
0.238901
0.238852
0.238609
0.238161
0.237498
0.236609
0.235483
0.234113
0.232491
0.230606
0.228446
0.225996
0.223244
0.220174
0.216772
0.213021
0.208913
0.204441
0.199612
0.194438
0.18894
0.183148
0.177112
0.17091
0.164661
0.158508
0.152608
0.147113
0.14218
0.137982
0.134689
0.13244
0.131311
0.13129
0.132305
0.134194
0.136735
0.139792
0.143689
0.227395
0.228477
0.229415
0.230037
0.230415
0.230597
0.230592
0.230397
0.230005
0.229406
0.22859
0.227548
0.226273
0.224758
0.222998
0.220981
0.218697
0.216131
0.213271
0.210102
0.206608
0.202775
0.198593
0.194059
0.189178
0.183966
0.17844
0.172631
0.16658
0.160358
0.154068
0.147834
0.141784
0.136036
0.130699
0.125883
0.121686
0.118175
0.115362
0.113183
0.111523
0.110205
0.108928
0.107381
0.105666
0.220173
0.220999
0.22174
0.222197
0.222432
0.222479
0.22234
0.222011
0.221483
0.220746
0.219792
0.218614
0.217206
0.215564
0.21368
0.211547
0.20915
0.206478
0.203516
0.200248
0.196661
0.192738
0.188471
0.183857
0.1789
0.173616
0.168023
0.162147
0.156026
0.14972
0.143315
0.136915
0.130618
0.124508
0.118654
0.113109
0.107908
0.103055
0.0984985
0.0941306
0.0897938
0.0852672
0.0802035
0.0741429
0.066752
0.213037
0.213609
0.214147
0.214439
0.214533
0.214448
0.214181
0.213726
0.213072
0.21221
0.211132
0.209833
0.208307
0.206552
0.20456
0.202321
0.199824
0.197053
0.193993
0.190629
0.186945
0.182927
0.178565
0.173856
0.168805
0.163427
0.157737
0.15176
0.145528
0.13909
0.132516
0.125884
0.119267
0.112715
0.106259
0.0999102
0.0936529
0.0874366
0.0811579
0.0746612
0.0677507
0.0601716
0.0515459
0.0413649
0.0290528
0.206008
0.206335
0.206669
0.206797
0.206749
0.206535
0.206146
0.205572
0.204802
0.203826
0.202637
0.201229
0.1996
0.197744
0.195656
0.193324
0.190735
0.187872
0.184719
0.181259
0.177477
0.173359
0.168895
0.164083
0.158928
0.153442
0.14764
0.141542
0.135172
0.128569
0.121784
0.114875
0.107885
0.100836
0.0937255
0.0865297
0.0791995
0.071647
0.0637311
0.0552566
0.0459891
0.0356505
0.0238584
0.0100989
-0.00625931
0.199099
0.199205
0.199335
0.199298
0.199111
0.198769
0.198261
0.197575
0.196698
0.195619
0.19433
0.192827
0.191106
0.189163
0.186989
0.184574
0.181901
0.178952
0.175709
0.172154
0.168274
0.164054
0.159487
0.15457
0.149308
0.143712
0.137794
0.131566
0.125043
0.11825
0.111224
0.104005
0.0966105
0.0890357
0.0812498
0.0732032
0.0648233
0.0560024
0.0465826
0.0363453
0.0250291
0.012332
-0.00212666
-0.0188385
-0.0384123
0.192323
0.192238
0.192168
0.191968
0.19164
0.191173
0.19055
0.189758
0.188781
0.187608
0.186231
0.184644
0.182844
0.180825
0.178578
0.176088
0.173339
0.170309
0.16698
0.163334
0.159358
0.155041
0.150374
0.145358
0.139995
0.134293
0.128261
0.121901
0.115216
0.108217
0.100928
0.0933723
0.0855546
0.0774513
0.0690095
0.0601555
0.0507984
0.040823
0.0300688
0.0183176
0.00529751
-0.00931242
-0.0258883
-0.0448939
-0.0668984
0.185699
0.185442
0.185184
0.184824
0.184356
0.183764
0.183031
0.182138
0.181069
0.179811
0.178356
0.176697
0.174829
0.172745
0.170435
0.167881
0.165063
0.161959
0.15855
0.154819
0.150756
0.14635
0.141596
0.136492
0.131039
0.125241
0.119098
0.112605
0.105753
0.0985385
0.0909721
0.083067
0.0748241
0.0662139
0.0571701
0.0475982
0.0373877
0.026416
0.014529
0.00152255
-0.0128658
-0.0289555
-0.0471088
-0.0677585
-0.0914412
0.179249
0.178828
0.178392
0.177873
0.177269
0.176557
0.175717
0.17473
0.173576
0.172242
0.170719
0.168998
0.167073
0.164936
0.162572
0.159962
0.157084
0.153915
0.150435
0.146631
0.142493
0.138016
0.133193
0.128018
0.122488
0.116601
0.11035
0.103723
0.0967015
0.0892718
0.0814313
0.0731871
0.0645413
0.0554677
0.0458968
0.0357223
0.0248151
0.0130386
0.000242823
-0.0137577
-0.0292008
-0.0463764
-0.0656189
-0.0873257
-0.111998
0.172961
0.172401
0.171793
0.171121
0.170386
0.16956
0.16862
0.167545
0.166314
0.164913
0.163331
0.161558
0.159587
0.157405
0.154996
0.15234
0.149412
0.146188
0.142649
0.138786
0.134594
0.130066
0.125196
0.11997
0.114378
0.108407
0.102048
0.0952864
0.0881012
0.0804725
0.0723879
0.0638465
0.0548478
0.0453701
0.0353525
0.0246881
0.0132385
0.00085494
-0.0126162
-0.027342
-0.0435283
-0.0614273
-0.081333
-0.103605
-0.128706
0.166837
0.166147
0.165383
0.164569
0.163712
0.16278
0.161747
0.160591
0.159293
0.157835
0.156204
0.154389
0.152379
0.150161
0.147716
0.145022
0.142052
0.138785
0.135205
0.131303
0.127077
0.122522
0.117626
0.112367
0.106724
0.100678
0.0942167
0.0873297
0.0800006
0.0722088
0.0639331
0.0551587
0.0458755
0.0360619
0.0256699
0.0146075
0.00274516
-0.0100636
-0.0239742
-0.0391455
-0.0557583
-0.0740342
-0.0942312
-0.116675
-0.141783
0.16087
0.160063
0.159162
0.158219
0.157249
0.156218
0.155102
0.153875
0.152519
0.151014
0.149345
0.147497
0.145458
0.143212
0.140738
0.138014
0.135014
0.131717
0.128112
0.124194
0.119958
0.115395
0.110488
0.10521
0.099532
0.0934291
0.0868892
0.0799061
0.0724697
0.0645594
0.0561469
0.0472031
0.0377036
0.0276261
0.0169346
0.00556264
-0.0065921
-0.0196633
-0.0337971
-0.0491485
-0.0658916
-0.0842281
-0.104392
-0.126678
-0.151483
0.155054
0.154147
0.153127
0.152068
0.150995
0.149876
0.148685
0.147399
0.145996
0.144455
0.142759
0.14089
0.138831
0.136565
0.13407
0.131323
0.128302
0.124992
0.121384
0.11747
0.113242
0.108684
0.103777
0.0984944
0.0928047
0.0866809
0.0801066
0.0730739
0.0655728
0.0575826
0.0490712
0.0400068
0.0303593
0.0201046
0.00921518
-0.00235486
-0.0146787
-0.0278661
-0.0420504
-0.0573784
-0.0740172
-0.0921608
-0.112023
-0.133887
-0.158151
0.149387
0.148396
0.147273
0.146112
0.144949
0.143752
0.142497
0.141161
0.139722
0.138157
0.136445
0.134564
0.132494
0.130215
0.127706
0.124947
0.12192
0.118614
0.115021
0.11113
0.106922
0.102379
0.0974825
0.0922108
0.086538
0.0804354
0.0738765
0.0668426
0.0593187
0.0512854
0.0427169
0.0335856
0.0238669
0.0135387
0.00257489
-0.00906253
-0.0214303
-0.0346128
-0.0487226
-0.0638922
-0.0802759
-0.0980573
-0.117446
-0.138711
-0.162188
0.143866
0.142808
0.1416
0.140351
0.13911
0.137847
0.136537
0.135159
0.133691
0.132109
0.130388
0.128502
0.126428
0.124144
0.121631
0.118873
0.115855
0.112571
0.109009
0.105151
)
;

boundaryField
{
    leftWall
    {
        type            fixedFluxPressure;
        gradient        uniform 0;
        value           nonuniform List<scalar> 
44
(
451.596
451.684
450.526
449.157
447.997
447.031
446.132
445.131
441.288
199.315
0.319934
0.352174
0.330085
0.332052
0.328524
0.324478
0.319886
0.314805
0.309313
0.303495
0.297396
0.291051
0.284487
0.277729
0.270802
0.263732
0.25655
0.24929
0.241987
0.234677
0.227395
0.220173
0.213037
0.206008
0.199099
0.192323
0.185699
0.179249
0.172961
0.166837
0.16087
0.155054
0.149387
0.143866
)
;
    }
    rightWall
    {
        type            fixedFluxPressure;
        gradient        nonuniform 0();
        value           nonuniform 0();
    }
    lowerWall
    {
        type            fixedFluxPressure;
        gradient        uniform 0;
        value           nonuniform List<scalar> 
44
(
451.596
449.931
450.057
451.717
454.755
458.651
463.001
467.657
472.604
477.889
483.581
489.741
496.452
503.74
511.63
520.131
529.241
538.952
549.246
560.097
571.421
583.286
595.61
608.337
621.425
634.825
648.488
662.357
676.371
690.468
704.576
718.604
732.472
746.078
759.307
772.015
784.038
795.241
805.304
813.929
821.681
828.417
834.25
840.348
)
;
    }
    atmosphere
    {
        type            totalPressure;
        rho             rho;
        psi             none;
        gamma           1;
        p0              nonuniform 0();
        value           nonuniform 0();
    }
    defaultFaces
    {
        type            empty;
    }
    procBoundary0to1
    {
        type            processor;
        value           nonuniform List<scalar> 
44
(
845.982
838.649
832.166
831.691
834.208
837.072
841.717
847.514
854.964
864.866
875.231
882.494
891.774
904.471
920.404
938.988
959.637
981.874
1005.82
1031.95
1031.95
1062.28
1080.36
667.18
48.1329
0.0556279
0.303348
0.284061
0.227849
0.187219
0.147987
0.103496
0.0575244
0.0137936
-0.0261417
-0.0617301
-0.0926806
-0.118839
-0.140255
-0.157197
-0.170071
-0.179293
-0.185221
-0.18824
)
;
    }
    procBoundary0to2
    {
        type            processor;
        value           nonuniform List<scalar> 
46
(
0.100973
0.0964586
0.0915934
0.086358
0.0807238
0.0746633
0.0681509
0.061161
0.0536678
0.045649
0.0370872
0.0279667
0.0182662
0.00796484
-0.00295934
-0.0145415
-0.0268328
-0.0399021
-0.0538375
-0.0687506
-0.0847822
-0.102107
-0.120928
-0.141448
-0.163951
0.138486
0.137381
0.136107
0.13479
0.133482
0.13216
0.130801
0.129385
0.12789
0.126291
0.124562
0.122676
0.120609
0.118336
0.115838
0.113096
0.110102
0.10685
0.10333
0.100973
0.0995195
)
;
    }
}


// ************************************************************************* //
