/*--------------------------------*- C++ -*----------------------------------*\
| =========                 |                                                 |
| \\      /  F ield         | OpenFOAM: The Open Source CFD Toolbox           |
|  \\    /   O peration     | Version:  5.0                                   |
|   \\  /    A nd           | Web:      www.OpenFOAM.org                      |
|    \\/     M anipulation  |                                                 |
\*---------------------------------------------------------------------------*/
FoamFile
{
    version     2.0;
    format      ascii;
    class       surfaceScalarField;
    location    "0.7";
    object      phi;
}
// * * * * * * * * * * * * * * * * * * * * * * * * * * * * * * * * * * * * * //

dimensions      [0 3 -1 0 0 0 0];

internalField   nonuniform List<scalar> 
3781
(
-2.19599e-06
2.19599e-06
-4.06429e-06
1.8683e-06
-4.83406e-06
7.6977e-07
-4.69726e-06
-1.36802e-07
-4.11158e-06
-5.85681e-07
-3.34055e-06
-7.71022e-07
-2.53089e-06
-8.09666e-07
-1.75806e-06
-7.72828e-07
-1.05803e-06
-7.00031e-07
-4.43397e-07
-6.14632e-07
8.56344e-08
-5.29032e-07
5.33065e-07
-4.4743e-07
9.05546e-07
-3.72482e-07
1.21022e-06
-3.0467e-07
1.45341e-06
-2.43198e-07
1.64022e-06
-1.8681e-07
1.77456e-06
-1.34341e-07
1.85973e-06
-8.51644e-08
1.8988e-06
-3.90713e-08
1.89699e-06
1.81105e-09
1.85094e-06
4.60462e-08
1.76496e-06
8.5978e-08
1.64105e-06
1.23914e-07
1.48028e-06
1.60765e-07
1.28321e-06
1.97068e-07
1.04954e-06
2.33676e-07
7.77692e-07
2.71847e-07
4.64666e-07
3.13025e-07
1.05848e-07
3.58817e-07
-3.05328e-07
4.11176e-07
-7.77698e-07
4.7237e-07
-1.32193e-06
5.44233e-07
-1.9518e-06
6.29868e-07
-2.6796e-06
7.27805e-07
-3.51771e-06
8.38106e-07
-4.47294e-06
9.55232e-07
-5.54462e-06
1.07168e-06
-6.72385e-06
1.17923e-06
-8.02698e-06
1.30313e-06
-9.50429e-06
1.47731e-06
-1.07656e-05
1.2613e-06
-1.12083e-05
4.42723e-07
-1.05239e-05
-6.84463e-07
-2.09277e-06
-2.03637e-06
4.23236e-06
-2.78295e-06
2.61488e-06
-2.8083e-06
7.95122e-07
-2.50198e-06
-4.43121e-07
-1.98848e-06
-1.09919e-06
-1.38474e-06
-1.37476e-06
-7.65851e-07
-1.42856e-06
-1.79092e-07
-1.35959e-06
3.51091e-07
-1.23021e-06
8.13922e-07
-1.07746e-06
1.20734e-06
-9.22451e-07
1.53501e-06
-7.75104e-07
1.80215e-06
-6.39624e-07
2.01419e-06
-5.16701e-07
2.17597e-06
-4.04986e-07
2.29126e-06
-3.021e-07
2.36269e-06
-2.05771e-07
2.39237e-06
-1.14839e-07
2.38232e-06
-2.90287e-08
2.33218e-06
5.19589e-08
2.24754e-06
1.30678e-07
2.12729e-06
2.06225e-07
1.9717e-06
2.79513e-07
1.78141e-06
3.51051e-07
1.55702e-06
4.21453e-07
1.29877e-06
4.91929e-07
1.00634e-06
5.6428e-07
6.7881e-07
6.4055e-07
3.14628e-07
7.22999e-07
-8.85959e-08
8.144e-07
-5.34245e-07
9.18019e-07
-1.02661e-06
1.0366e-06
-1.56947e-06
1.17273e-06
-2.16814e-06
1.32648e-06
-2.82522e-06
1.49519e-06
-3.54065e-06
1.67066e-06
-4.30636e-06
1.83739e-06
-5.10365e-06
1.97652e-06
-5.87783e-06
2.07731e-06
-6.47452e-06
2.074e-06
-6.82645e-06
1.61322e-06
-6.93221e-06
5.48479e-07
-6.74375e-06
-8.7292e-07
-2.81377e-06
-1.29519e-06
5.52755e-06
-1.45604e-06
2.77573e-06
-1.25424e-06
5.93324e-07
-9.03931e-07
-7.93434e-07
-4.64663e-07
-1.53846e-06
1.30756e-08
-1.8525e-06
4.86045e-07
-1.90153e-06
9.26541e-07
-1.80008e-06
1.31872e-06
-1.62239e-06
1.65631e-06
-1.41505e-06
1.93877e-06
-1.20491e-06
2.16898e-06
-1.00532e-06
2.35106e-06
-8.21702e-07
2.48917e-06
-6.54818e-07
2.58688e-06
-5.0269e-07
2.64656e-06
-3.61781e-07
2.66947e-06
-2.28689e-07
2.65649e-06
-1.01852e-07
2.60847e-06
1.89844e-08
2.52631e-06
1.34119e-07
2.41168e-06
2.45307e-07
2.26445e-06
3.53456e-07
2.08469e-06
4.59275e-07
1.87289e-06
5.62851e-07
1.62978e-06
6.64562e-07
1.35613e-06
7.65577e-07
1.05265e-06
8.67758e-07
7.20091e-07
9.73107e-07
3.59366e-07
1.08372e-06
-2.85094e-08
1.20228e-06
-4.42217e-07
1.33173e-06
-8.80147e-07
1.47453e-06
-1.33964e-06
1.63222e-06
-1.81652e-06
1.80336e-06
-2.30424e-06
1.9829e-06
-2.79267e-06
2.15909e-06
-3.2663e-06
2.31102e-06
-3.69825e-06
2.40847e-06
-4.03258e-06
2.41165e-06
-4.18227e-06
2.22369e-06
-4.18488e-06
1.61583e-06
-4.11363e-06
4.7723e-07
-3.93568e-06
-1.05087e-06
-3.23294e-06
-4.77569e-07
6.00512e-06
-2.9048e-07
2.58865e-06
5.51436e-08
2.47701e-07
4.34545e-07
-1.17284e-06
8.19241e-07
-1.92315e-06
1.19347e-06
-2.22672e-06
1.54233e-06
-2.25039e-06
1.85445e-06
-2.1122e-06
2.12378e-06
-1.89172e-06
2.3488e-06
-1.64007e-06
2.53097e-06
-1.38708e-06
2.67324e-06
-1.14759e-06
2.77887e-06
-9.27333e-07
2.85087e-06
-7.26817e-07
2.89159e-06
-5.43407e-07
2.90208e-06
-3.72266e-07
2.88213e-06
-2.08741e-07
2.83138e-06
-5.1102e-08
2.75009e-06
1.00275e-07
2.63889e-06
2.45318e-07
2.49836e-06
3.85835e-07
2.32815e-06
5.23669e-07
2.12804e-06
6.59374e-07
1.8985e-06
7.92397e-07
1.64048e-06
9.22584e-07
1.35527e-06
1.05078e-06
1.0444e-06
1.17863e-06
7.09898e-07
1.30761e-06
3.54578e-07
1.43904e-06
-1.8002e-08
1.57486e-06
-4.03405e-07
1.71713e-06
-7.95939e-07
1.86706e-06
-1.18812e-06
2.02441e-06
-1.57059e-06
2.18583e-06
-1.93125e-06
2.34356e-06
-2.25474e-06
2.48258e-06
-2.52184e-06
2.57812e-06
-2.70678e-06
2.59341e-06
-2.77103e-06
2.4759e-06
-2.68131e-06
2.13397e-06
-2.48122e-06
1.41574e-06
-2.24318e-06
2.39193e-07
-1.93617e-06
-1.35788e-06
-3.59706e-06
3.61129e-07
5.64399e-06
7.89528e-07
2.16025e-06
1.23651e-06
-1.99279e-07
1.62377e-06
-1.56009e-06
1.95131e-06
-2.25069e-06
2.22976e-06
-2.50518e-06
2.4653e-06
-2.48592e-06
2.66057e-06
-2.30748e-06
2.81776e-06
-2.04891e-06
2.93984e-06
-1.76214e-06
3.03024e-06
-1.47748e-06
3.09207e-06
-1.20942e-06
3.12774e-06
-9.63003e-07
3.1392e-06
-7.38275e-07
3.12779e-06
-5.31999e-07
3.09329e-06
-3.37771e-07
3.03396e-06
-1.49409e-07
2.94822e-06
3.46406e-08
2.83578e-06
2.12712e-07
2.69721e-06
3.83894e-07
2.53266e-06
5.50375e-07
2.34136e-06
7.14968e-07
2.12275e-06
8.77985e-07
1.87731e-06
1.03784e-06
1.60635e-06
1.19354e-06
1.31169e-06
1.34544e-06
9.95472e-07
1.49484e-06
6.60715e-07
1.64237e-06
3.11797e-07
1.78796e-06
-4.58033e-08
1.93246e-06
-4.05383e-07
2.07671e-06
-7.58548e-07
2.22023e-06
-1.0949e-06
2.36076e-06
-1.40194e-06
2.49287e-06
-1.66474e-06
2.60636e-06
-1.8661e-06
2.68394e-06
-1.98675e-06
2.69876e-06
-2.00552e-06
2.61218e-06
-1.90048e-06
2.37086e-06
-1.66385e-06
1.89734e-06
-1.33731e-06
1.08919e-06
-9.8177e-07
-1.16347e-07
-6.07855e-07
-1.7318e-06
-3.91713e-06
1.08975e-06
4.55423e-06
1.77923e-06
1.47077e-06
2.30538e-06
-7.25431e-07
2.67846e-06
-1.93317e-06
2.93968e-06
-2.51191e-06
3.12421e-06
-2.68971e-06
3.25445e-06
-2.61616e-06
3.34349e-06
-2.39652e-06
3.39971e-06
-2.10513e-06
3.42965e-06
-1.79209e-06
3.43828e-06
-1.48611e-06
3.42853e-06
-1.19967e-06
3.40178e-06
-9.36259e-07
3.35893e-06
-6.95422e-07
3.30061e-06
-4.73676e-07
3.22544e-06
-2.62604e-07
3.13008e-06
-5.40504e-08
3.01175e-06
1.52974e-07
2.86985e-06
3.54603e-07
2.70529e-06
5.48462e-07
2.51813e-06
7.3753e-07
2.30705e-06
9.26052e-07
2.07109e-06
1.11394e-06
1.81091e-06
1.29801e-06
1.5283e-06
1.47616e-06
1.22559e-06
1.64815e-06
9.05353e-07
1.81508e-06
5.71304e-07
1.97642e-06
2.29138e-07
2.13013e-06
-1.14193e-07
2.27579e-06
-4.50534e-07
2.41305e-06
-7.69733e-07
2.53943e-06
-1.05966e-06
2.65069e-06
-1.30627e-06
2.73947e-06
-1.49374e-06
2.79384e-06
-1.60502e-06
2.79522e-06
-1.62284e-06
2.71658e-06
-1.53146e-06
2.5208e-06
-1.32011e-06
2.15951e-06
-9.93612e-07
1.57085e-06
-5.89082e-07
6.84664e-07
-1.60837e-07
-5.44592e-07
2.4633e-07
-2.13896e-06
-4.22324e-06
1.63636e-06
2.91787e-06
2.63707e-06
4.70061e-07
3.23126e-06
-1.31962e-06
3.5725e-06
-2.27442e-06
3.76016e-06
-2.69957e-06
3.85396e-06
-2.78351e-06
3.88853e-06
-2.65074e-06
3.88414e-06
-2.39213e-06
3.85327e-06
-2.07427e-06
3.80489e-06
-1.7437e-06
3.74476e-06
-1.42598e-06
3.67507e-06
-1.12997e-06
3.59569e-06
-8.56875e-07
3.50637e-06
-6.06109e-07
3.40752e-06
-3.74821e-07
3.29677e-06
-1.5186e-07
3.16924e-06
7.34846e-08
3.02095e-06
3.01267e-07
2.85134e-06
5.24208e-07
2.66222e-06
7.37582e-07
2.45389e-06
9.45856e-07
2.22428e-06
1.15566e-06
1.97197e-06
1.36626e-06
1.698e-06
1.57198e-06
1.40482e-06
1.76934e-06
1.09533e-06
1.95764e-06
7.72211e-07
2.1382e-06
4.39546e-07
2.30908e-06
1.04251e-07
2.46542e-06
-2.25652e-07
2.60569e-06
-5.41179e-07
2.72858e-06
-8.31214e-07
2.82946e-06
-1.08281e-06
2.90228e-06
-1.28144e-06
2.93811e-06
-1.41156e-06
2.92396e-06
-1.45743e-06
2.84108e-06
-1.40461e-06
2.66376e-06
-1.24228e-06
2.35848e-06
-9.66895e-07
1.88412e-06
-5.89201e-07
1.19315e-06
-1.425e-07
2.37962e-07
3.23915e-07
-1.01101e-06
7.5152e-07
-2.56657e-06
-4.49611e-06
2.08093e-06
8.36941e-07
3.34838e-06
-7.97392e-07
3.97113e-06
-1.94237e-06
4.26294e-06
-2.56623e-06
4.37569e-06
-2.81232e-06
4.38643e-06
-2.79425e-06
4.33818e-06
-2.60249e-06
4.25645e-06
-2.3104e-06
4.15606e-06
-1.97387e-06
4.04722e-06
-1.63486e-06
3.93546e-06
-1.31422e-06
3.82108e-06
-1.01559e-06
3.70164e-06
-7.37435e-07
3.57568e-06
-4.80145e-07
3.44425e-06
-2.43397e-07
3.30403e-06
-1.16412e-08
3.14882e-06
2.28701e-07
2.97356e-06
4.76521e-07
2.77824e-06
7.19534e-07
2.56629e-06
9.4953e-07
2.33855e-06
1.1736e-06
2.09186e-06
1.40235e-06
1.8242e-06
1.63391e-06
1.53739e-06
1.85879e-06
1.2348e-06
2.07193e-06
9.20024e-07
2.27242e-06
5.95334e-07
2.46289e-06
2.64771e-07
2.63965e-06
-6.33774e-08
2.79357e-06
-3.80334e-07
2.92265e-06
-6.77066e-07
3.02531e-06
-9.42036e-07
3.09443e-06
-1.1621e-06
3.12235e-06
-1.32299e-06
3.099e-06
-1.41014e-06
3.01111e-06
-1.40963e-06
2.84057e-06
-1.30995e-06
2.56409e-06
-1.10432e-06
2.15284e-06
-7.9391e-07
1.57371e-06
-3.9227e-07
7.91513e-07
7.06106e-08
-2.24919e-07
5.51134e-07
-1.49153e-06
9.91336e-07
-3.00677e-06
-4.78183e-06
2.50264e-06
-1.6657e-06
3.87024e-06
-2.165e-06
4.47183e-06
-2.54396e-06
4.71009e-06
-2.80448e-06
4.75335e-06
-2.85558e-06
4.6908e-06
-2.7317e-06
4.57335e-06
-2.48504e-06
4.43183e-06
-2.16888e-06
4.28315e-06
-1.82519e-06
4.13713e-06
-1.48884e-06
3.99632e-06
-1.17342e-06
3.857e-06
-8.76275e-07
3.71324e-06
-5.93668e-07
3.56205e-06
-3.28962e-07
3.40815e-06
-8.94918e-08
3.24518e-06
1.51325e-07
3.06651e-06
4.07378e-07
2.86718e-06
6.75847e-07
2.64838e-06
9.38335e-07
2.41587e-06
1.18204e-06
2.17105e-06
1.41842e-06
1.90906e-06
1.66433e-06
1.62727e-06
1.9157e-06
1.32875e-06
2.15732e-06
1.0183e-06
2.38237e-06
7.0027e-07
2.59045e-06
3.75785e-07
2.78737e-06
4.83091e-08
2.96712e-06
-2.71931e-07
3.11381e-06
-5.75727e-07
3.22644e-06
-8.54946e-07
3.30453e-06
-1.09798e-06
3.33746e-06
-1.29195e-06
3.31632e-06
-1.42327e-06
3.23032e-06
-1.47873e-06
3.06656e-06
-1.44634e-06
2.80818e-06
-1.31723e-06
2.43498e-06
-1.0877e-06
1.92331e-06
-7.61971e-07
1.24798e-06
-3.55003e-07
3.84546e-07
1.05495e-07
-6.85417e-07
5.81018e-07
-1.96705e-06
1.02234e-06
-3.44809e-06
-5.10038e-06
3.07845e-06
-4.74414e-06
4.20264e-06
-3.28919e-06
4.74014e-06
-3.08145e-06
4.93058e-06
-2.99492e-06
4.90747e-06
-2.83247e-06
4.77941e-06
-2.60364e-06
4.60534e-06
-2.31097e-06
4.41363e-06
-1.97717e-06
4.23443e-06
-1.646e-06
4.07763e-06
-1.33204e-06
3.93267e-06
-1.02846e-06
3.78912e-06
-7.32727e-07
3.63739e-06
-4.41931e-07
3.47136e-06
-1.62936e-07
3.30666e-06
7.52084e-08
3.12116e-06
3.36823e-07
2.92121e-06
6.07332e-07
2.701e-06
8.96058e-07
2.46116e-06
1.17817e-06
2.21082e-06
1.43238e-06
1.95121e-06
1.67803e-06
1.67552e-06
1.94003e-06
1.38093e-06
2.21029e-06
1.07254e-06
2.46571e-06
7.56608e-07
2.6983e-06
4.38421e-07
2.90864e-06
1.16779e-07
3.10901e-06
-2.0611e-07
3.29001e-06
-5.16877e-07
3.42458e-06
-8.06183e-07
3.51575e-06
-1.06818e-06
3.56652e-06
-1.29125e-06
3.56054e-06
-1.4631e-06
3.48817e-06
-1.57105e-06
3.33828e-06
-1.60345e-06
3.09895e-06
-1.55007e-06
2.75481e-06
-1.40417e-06
2.28908e-06
-1.16412e-06
1.68326e-06
-8.35908e-07
9.19768e-07
-4.34987e-07
-1.63748e-08
1.23351e-08
-1.13274e-06
4.69769e-07
-2.42449e-06
8.90571e-07
-3.86889e-06
-5.41058e-06
3.75801e-06
-8.50215e-06
4.29676e-06
-3.82794e-06
4.82683e-06
-3.61152e-06
4.99398e-06
-3.16206e-06
4.90535e-06
-2.74384e-06
4.7167e-06
-2.41499e-06
4.49796e-06
-2.09223e-06
4.23921e-06
-1.71842e-06
4.0182e-06
-1.42499e-06
3.8744e-06
-1.18824e-06
3.74523e-06
-8.9929e-07
3.61778e-06
-6.05268e-07
3.48421e-06
-3.08369e-07
3.34409e-06
-2.28073e-08
3.17914e-06
2.4015e-07
2.98437e-06
5.31599e-07
2.76208e-06
8.29618e-07
2.5262e-06
1.13194e-06
2.26667e-06
1.4377e-06
1.99006e-06
1.70898e-06
1.71003e-06
1.95807e-06
1.41588e-06
2.23417e-06
1.10279e-06
2.52338e-06
7.81506e-07
2.78699e-06
4.57138e-07
3.02267e-06
1.38244e-07
3.22753e-06
-1.81865e-07
3.42912e-06
-5.03449e-07
3.61159e-06
-8.07066e-07
3.72819e-06
-1.08359e-06
3.79227e-06
-1.33165e-06
3.81458e-06
-1.53895e-06
3.76783e-06
-1.69373e-06
3.64295e-06
-1.78413e-06
3.42868e-06
-1.80006e-06
3.11488e-06
-1.73256e-06
2.68731e-06
-1.57633e-06
2.13285e-06
-1.33073e-06
1.43766e-06
-1.00239e-06
5.91424e-07
-6.06093e-07
-4.12672e-07
-1.65881e-07
-1.57295e-06
2.85507e-07
-2.87587e-06
7.05664e-07
-4.28905e-06
-5.74151e-06
9.63655e-07
-9.4658e-06
2.35721e-06
-5.22149e-06
3.10759e-06
-4.3619e-06
3.62425e-06
-3.67871e-06
3.95143e-06
-3.07102e-06
4.10472e-06
-2.56828e-06
4.12483e-06
-2.11233e-06
4.04169e-06
-1.63529e-06
3.94128e-06
-1.32457e-06
3.79761e-06
-1.04458e-06
3.65349e-06
-7.55168e-07
3.51422e-06
-4.66001e-07
3.37804e-06
-1.72185e-07
3.23662e-06
1.18613e-07
3.05841e-06
4.18358e-07
2.74623e-06
8.43778e-07
2.4188e-06
1.15705e-06
2.18255e-06
1.36818e-06
1.94389e-06
1.67636e-06
1.67733e-06
1.97555e-06
1.39837e-06
2.23703e-06
1.09505e-06
2.53749e-06
7.64151e-07
2.85429e-06
4.25842e-07
3.1253e-06
1.00963e-07
3.34755e-06
-2.08313e-07
3.53681e-06
-5.17758e-07
3.73857e-06
-8.32958e-07
3.9268e-06
-1.12041e-06
4.01565e-06
-1.37494e-06
4.0468e-06
-1.60372e-06
4.04336e-06
-1.79204e-06
3.95615e-06
-1.92874e-06
3.77965e-06
-2.00309e-06
3.50302e-06
-2.00693e-06
3.11873e-06
-1.93218e-06
2.61256e-06
-1.77454e-06
1.97521e-06
-1.5333e-06
1.19642e-06
-1.21452e-06
2.72642e-07
-8.3069e-07
-7.96502e-07
-4.01267e-07
-2.00237e-06
5.02729e-08
-3.32741e-06
5.03515e-07
-4.74229e-06
-6.20134e-06
-8.92082e-07
-8.57372e-06
4.7804e-07
-6.59161e-06
1.58061e-06
-5.46447e-06
2.41967e-06
-4.51777e-06
3.06498e-06
-3.71632e-06
3.55381e-06
-3.05711e-06
3.92551e-06
-2.48402e-06
4.24554e-06
-1.95531e-06
4.46377e-06
-1.54281e-06
4.59715e-06
-1.17796e-06
4.6693e-06
-8.27311e-07
4.68065e-06
-4.77353e-07
4.59766e-06
-8.91855e-08
4.39279e-06
3.23486e-07
3.95451e-06
8.56643e-07
3.18592e-06
1.61236e-06
2.53664e-06
1.80634e-06
2.10168e-06
1.80314e-06
1.80791e-06
1.97014e-06
1.45022e-06
2.33324e-06
1.01169e-06
2.67555e-06
6.49291e-07
2.89989e-06
3.17622e-07
3.18596e-06
-4.71193e-09
3.44764e-06
-2.88801e-07
3.63164e-06
-5.77457e-07
3.82546e-06
-8.80047e-07
4.04116e-06
-1.18727e-06
4.23401e-06
-1.44588e-06
4.27426e-06
-1.66721e-06
4.26813e-06
-1.87304e-06
4.24919e-06
-2.03908e-06
4.12219e-06
-2.15659e-06
3.89716e-06
-2.21606e-06
3.56249e-06
-2.2117e-06
3.11437e-06
-2.13563e-06
2.53649e-06
-1.98431e-06
1.82389e-06
-1.75585e-06
9.67969e-07
-1.45542e-06
-2.77945e-08
-1.09274e-06
-1.15918e-06
-6.83778e-07
-2.41134e-06
-2.47146e-07
-3.76405e-06
2.03872e-07
-5.19331e-06
-6.67941e-06
-5.77929e-07
-7.99579e-06
1.39144e-11
-7.16955e-06
8.04914e-07
-6.26937e-06
1.64438e-06
-5.35723e-06
2.43315e-06
-4.50509e-06
3.13193e-06
-3.75588e-06
3.74114e-06
-3.09323e-06
4.28219e-06
-2.49636e-06
4.72247e-06
-1.98308e-06
5.06429e-06
-1.51979e-06
5.31533e-06
-1.07835e-06
5.47052e-06
-6.32533e-07
5.53207e-06
-1.50738e-07
5.46839e-06
3.87177e-07
5.29051e-06
1.03452e-06
5.13694e-06
1.76594e-06
4.78721e-06
2.15607e-06
4.24458e-06
2.34576e-06
3.49315e-06
2.72156e-06
2.37547e-06
3.45091e-06
1.3104e-06
3.74062e-06
5.91681e-07
3.61861e-06
1.37397e-07
3.64024e-06
-3.98327e-07
3.98336e-06
-7.25223e-07
3.95853e-06
-1.01455e-06
4.11479e-06
-1.28872e-06
4.31532e-06
-1.55293e-06
4.49823e-06
-1.76163e-06
4.48296e-06
-1.93495e-06
4.44145e-06
-2.11615e-06
4.43039e-06
-2.25181e-06
4.25785e-06
-2.34844e-06
3.9938e-06
-2.39276e-06
3.6068e-06
-2.38385e-06
3.10547e-06
-2.31276e-06
2.46539e-06
-2.17684e-06
1.68797e-06
-1.97195e-06
7.63086e-07
-1.70278e-06
-2.96967e-07
-1.37645e-06
-1.48551e-06
-1.00834e-06
-2.77944e-06
-6.20016e-07
-4.15237e-06
-2.36536e-07
-5.57679e-06
-7.04031e-06
-5.02111e-07
-7.49367e-06
-1.68077e-07
-7.50358e-06
4.77203e-07
-6.91464e-06
1.25974e-06
-6.13976e-06
2.08154e-06
-5.32688e-06
2.87683e-06
-4.55116e-06
3.61602e-06
-3.83241e-06
4.29017e-06
-3.17051e-06
4.87749e-06
-2.5704e-06
5.37008e-06
-2.01237e-06
5.76526e-06
-1.47353e-06
6.06088e-06
-9.28143e-07
6.25945e-06
-3.49302e-07
6.36194e-06
2.84684e-07
6.40328e-06
9.93183e-07
6.44192e-06
1.7273e-06
6.31855e-06
2.27944e-06
5.97253e-06
2.69178e-06
5.4689e-06
3.22519e-06
4.97016e-06
3.94965e-06
4.29897e-06
4.4118e-06
3.35638e-06
4.5612e-06
2.12075e-06
4.87587e-06
5.45952e-07
5.55816e-06
-6.05721e-07
5.1102e-06
-1.14913e-06
4.6582e-06
-1.64555e-06
4.81175e-06
-1.94553e-06
4.79821e-06
-2.07469e-06
4.61212e-06
-2.1614e-06
4.52816e-06
-2.29996e-06
4.56895e-06
-2.40143e-06
4.35933e-06
-2.4683e-06
4.06067e-06
-2.49461e-06
3.63311e-06
-2.48705e-06
3.09791e-06
-2.42837e-06
2.40672e-06
-2.31945e-06
1.57904e-06
-2.15243e-06
5.96066e-07
-1.9326e-06
-5.16789e-07
-1.66387e-06
-1.75424e-06
-1.36308e-06
-3.08023e-06
-1.05909e-06
-4.45636e-06
-7.98702e-07
-5.83718e-06
-7.1971e-06
-3.809e-07
-7.11277e-06
-1.22683e-07
-7.7618e-06
4.32778e-07
-7.4701e-06
1.15509e-06
-6.86207e-06
1.95883e-06
-6.13061e-06
2.7791e-06
-5.37142e-06
3.57479e-06
-4.6281e-06
4.32189e-06
-3.9176e-06
4.99837e-06
-3.24689e-06
5.59142e-06
-2.60543e-06
6.09432e-06
-1.97644e-06
6.50538e-06
-1.3392e-06
6.82877e-06
-6.72687e-07
7.07488e-06
3.85727e-08
7.27057e-06
7.97499e-07
7.43387e-06
1.56399e-06
7.482e-06
2.23131e-06
7.35276e-06
2.82101e-06
7.10173e-06
3.47623e-06
6.82783e-06
4.22355e-06
6.40123e-06
4.8384e-06
5.69956e-06
5.26287e-06
4.83036e-06
5.74506e-06
4.0437e-06
6.34481e-06
2.87483e-06
6.27907e-06
1.33057e-06
6.20245e-06
-4.81728e-07
6.62403e-06
-1.68285e-06
5.99933e-06
-2.14338e-06
5.07264e-06
-2.38094e-06
4.76572e-06
-2.47485e-06
4.66285e-06
-2.4809e-06
4.36538e-06
-2.47665e-06
4.05642e-06
-2.48431e-06
3.64077e-06
-2.47998e-06
3.09358e-06
-2.43971e-06
2.36644e-06
-2.37483e-06
1.51417e-06
-2.26435e-06
4.85581e-07
-2.11782e-06
-6.63314e-07
-1.93349e-06
-1.93858e-06
-1.72938e-06
-3.28434e-06
-1.54039e-06
-4.64535e-06
-1.43541e-06
-5.94216e-06
-7.11887e-06
-2.12628e-07
-6.90014e-06
4.75552e-08
-8.02199e-06
5.58876e-07
-7.98142e-06
1.23141e-06
-7.5346e-06
1.99824e-06
-6.89743e-06
2.80477e-06
-6.17794e-06
3.61024e-06
-5.43356e-06
4.38578e-06
-4.69314e-06
5.10829e-06
-3.9694e-06
5.76282e-06
-3.25996e-06
6.34103e-06
-2.55465e-06
6.8408e-06
-1.83896e-06
7.26632e-06
-1.09821e-06
7.62787e-06
-3.22982e-07
7.94148e-06
4.83894e-07
8.21112e-06
1.29435e-06
8.38875e-06
2.05368e-06
8.4343e-06
2.77546e-06
8.37841e-06
3.53212e-06
8.27003e-06
4.33193e-06
8.04943e-06
5.059e-06
7.63982e-06
5.67248e-06
7.10207e-06
6.2828e-06
6.55154e-06
6.89533e-06
5.65594e-06
7.17465e-06
4.50306e-06
7.35533e-06
3.40991e-06
7.71718e-06
1.93793e-06
7.4713e-06
-8.53118e-08
7.09588e-06
-1.64738e-06
6.32778e-06
-2.28278e-06
5.29825e-06
-2.48649e-06
4.5691e-06
-2.44449e-06
4.01442e-06
-2.37434e-06
3.57062e-06
-2.3272e-06
3.04644e-06
-2.30727e-06
2.34651e-06
-2.3044e-06
1.5113e-06
-2.26866e-06
4.49833e-07
-2.22901e-06
-7.02956e-07
-2.16331e-06
-2.00428e-06
-2.08862e-06
-3.35903e-06
-2.04034e-06
-4.69363e-06
-2.10321e-06
-5.87929e-06
-6.81555e-06
-4.73987e-08
-6.85275e-06
2.6588e-07
-8.33527e-06
7.71837e-07
-8.48738e-06
1.41082e-06
-8.17358e-06
2.13808e-06
-7.62468e-06
2.91303e-06
-6.95288e-06
3.70129e-06
-6.22182e-06
4.47547e-06
-5.46733e-06
5.21362e-06
-4.70755e-06
5.90049e-06
-3.94684e-06
6.5271e-06
-3.18125e-06
7.09045e-06
-2.40232e-06
7.59327e-06
-1.60103e-06
8.04272e-06
-7.72427e-07
8.44716e-06
7.94561e-08
8.80499e-06
9.36532e-07
9.08739e-06
1.77129e-06
9.27179e-06
2.59107e-06
9.37352e-06
3.4304e-06
9.41647e-06
4.28899e-06
9.37034e-06
5.10513e-06
9.19144e-06
5.85138e-06
8.90385e-06
6.57039e-06
8.54938e-06
7.24979e-06
7.99033e-06
7.73369e-06
7.23593e-06
8.10972e-06
6.45865e-06
8.49445e-06
5.39007e-06
8.53988e-06
4.18932e-06
8.29662e-06
2.79448e-06
7.72261e-06
1.13978e-06
6.95295e-06
-7.2186e-07
6.43073e-06
-1.95737e-06
5.24992e-06
-2.14501e-06
3.75826e-06
-2.13758e-06
3.039e-06
-2.0773e-06
2.28624e-06
-2.08667e-06
1.52066e-06
-2.12943e-06
4.92602e-07
-2.23861e-06
-5.93784e-07
-2.33289e-06
-1.91001e-06
-2.4338e-06
-3.25811e-06
-2.55501e-06
-4.57243e-06
-2.78674e-06
-5.64756e-06
-6.32268e-06
1.13944e-07
-6.96669e-06
4.9874e-07
-8.72008e-06
1.01805e-06
-9.00669e-06
1.63662e-06
-8.79215e-06
2.32807e-06
-8.31612e-06
3.06551e-06
-7.69032e-06
3.8232e-06
-6.97951e-06
4.57842e-06
-6.22254e-06
5.31211e-06
-5.44124e-06
6.01018e-06
-4.64491e-06
6.66366e-06
-3.83473e-06
7.2687e-06
-3.00736e-06
7.82604e-06
-2.15836e-06
8.33944e-06
-1.28582e-06
8.81241e-06
-3.93512e-07
9.24158e-06
5.07375e-07
9.61009e-06
1.40279e-06
9.90542e-06
2.29574e-06
1.01347e-05
3.20116e-06
1.03085e-05
4.11515e-06
1.04101e-05
5.00354e-06
1.04153e-05
5.8462e-06
1.03322e-05
6.65341e-06
1.01745e-05
7.40756e-06
9.87776e-06
8.03039e-06
9.43543e-06
8.55204e-06
8.92577e-06
9.00411e-06
8.25474e-06
9.2109e-06
7.40173e-06
9.14962e-06
6.28965e-06
8.83468e-06
4.93476e-06
8.30783e-06
3.5785e-06
7.78698e-06
1.99415e-06
6.83427e-06
-3.58728e-08
5.78828e-06
-1.34056e-06
4.34369e-06
-1.63023e-06
2.5759e-06
-1.83348e-06
1.72392e-06
-1.93179e-06
5.90905e-07
-2.16307e-06
-3.62498e-07
-2.43076e-06
-1.64232e-06
-2.78507e-06
-2.90381e-06
-3.12248e-06
-4.23501e-06
-3.53062e-06
-5.23942e-06
-5.68952e-06
2.61934e-07
-7.22864e-06
7.21612e-07
-9.17976e-06
1.26263e-06
-9.54771e-06
1.86925e-06
-9.39877e-06
2.53007e-06
-8.97694e-06
3.23008e-06
-8.39032e-06
3.95216e-06
-7.70159e-06
4.67934e-06
-6.94972e-06
5.39635e-06
-6.15825e-06
6.09105e-06
-5.33961e-06
6.75509e-06
-4.49878e-06
7.38406e-06
-3.63632e-06
7.97696e-06
-2.75126e-06
8.53488e-06
-1.84374e-06
9.05845e-06
-9.17076e-07
9.54416e-06
2.16752e-08
9.98216e-06
9.64798e-07
1.03653e-05
1.91261e-06
1.06963e-05
2.87014e-06
1.09794e-05
3.83212e-06
1.12049e-05
4.77795e-06
1.13596e-05
5.69156e-06
1.14441e-05
6.56889e-06
1.14596e-05
7.392e-06
1.13724e-05
8.11765e-06
1.11768e-05
8.74766e-06
1.09032e-05
9.27768e-06
1.05018e-05
9.61227e-06
9.92628e-06
9.72514e-06
9.14729e-06
9.61366e-06
8.15811e-06
9.297e-06
7.07532e-06
8.86976e-06
5.75525e-06
8.15433e-06
4.34837e-06
7.19516e-06
2.75213e-06
5.93993e-06
6.98511e-07
4.62952e-06
-6.44743e-07
3.06717e-06
-1.29092e-06
1.23708e-06
-2.01445e-06
3.61036e-07
-2.57536e-06
-1.08141e-06
-3.25137e-06
-2.2278e-06
-3.85688e-06
-3.62949e-06
-4.48415e-06
-4.61215e-06
-4.97621e-06
3.94691e-07
-7.62333e-06
9.20496e-07
-9.70558e-06
1.4833e-06
-1.01105e-05
2.08196e-06
-9.99743e-06
2.71657e-06
-9.61156e-06
3.38167e-06
-9.05541e-06
4.06767e-06
-8.38759e-06
4.76316e-06
-7.64521e-06
5.45678e-06
-6.85187e-06
6.13875e-06
-6.02158e-06
6.80172e-06
-5.16176e-06
7.44111e-06
-4.27572e-06
8.05477e-06
-3.36492e-06
8.64199e-06
-2.43095e-06
9.20182e-06
-1.4769e-06
9.73108e-06
-5.07582e-07
1.02238e-05
4.72093e-07
1.06756e-05
1.46078e-06
1.10872e-05
2.4586e-06
1.14595e-05
3.45977e-06
1.17872e-05
4.45031e-06
1.2062e-05
5.41669e-06
1.22816e-05
6.34928e-06
1.24423e-05
7.23128e-06
1.25252e-05
8.03479e-06
1.25241e-05
8.74879e-06
1.24453e-05
9.3565e-06
1.22555e-05
9.80201e-06
1.19214e-05
1.00593e-05
1.14188e-05
1.01163e-05
1.07357e-05
9.98e-06
9.92257e-06
9.68293e-06
8.93836e-06
9.13854e-06
7.78616e-06
8.34735e-06
6.39837e-06
7.32771e-06
4.91608e-06
6.11181e-06
3.26168e-06
4.72156e-06
1.18882e-06
3.30993e-06
-5.29203e-07
2.07905e-06
-1.85666e-06
2.46044e-07
-3.46855e-06
-6.15916e-07
-5.00342e-06
-2.09462e-06
-5.93051e-06
-3.68507e-06
-6.64648e-06
-4.26023e-06
-3.30557e-06
5.07879e-07
-8.13122e-06
1.08658e-06
-1.02843e-05
1.6661e-06
-1.069e-05
2.25723e-06
-1.05886e-05
2.86858e-06
-1.02229e-05
3.50184e-06
-9.68866e-06
4.15343e-06
-9.03917e-06
4.81673e-06
-8.30851e-06
5.48396e-06
-7.51909e-06
6.14768e-06
-6.68531e-06
6.80179e-06
-5.81587e-06
7.4419e-06
-4.91582e-06
8.06525e-06
-3.98827e-06
8.67011e-06
-3.0358e-06
9.25473e-06
-2.06151e-06
9.81634e-06
-1.06918e-06
1.0351e-05
-6.25672e-08
1.08559e-05
9.55938e-07
1.13305e-05
1.984e-06
1.17745e-05
3.01569e-06
1.21845e-05
4.04032e-06
1.25551e-05
5.04613e-06
1.28825e-05
6.02183e-06
1.31618e-05
6.95197e-06
1.3381e-05
7.81559e-06
1.35328e-05
8.59707e-06
1.36127e-05
9.27657e-06
1.35972e-05
9.81744e-06
1.34611e-05
1.01954e-05
1.31817e-05
1.03956e-05
1.27472e-05
1.04145e-05
1.21734e-05
1.02567e-05
1.14333e-05
9.87863e-06
1.05014e-05
9.27925e-06
9.36262e-06
8.46651e-06
8.01069e-06
7.46374e-06
6.39067e-06
6.34157e-06
4.55608e-06
5.1445e-06
2.57986e-06
4.05526e-06
-1.88523e-08
2.84476e-06
-2.7884e-06
2.15363e-06
-4.83987e-06
-4.31524e-08
-7.6553e-06
-8.69637e-07
-8.77851e-06
-3.13702e-06
-2.68289e-06
5.98981e-07
-8.73021e-06
1.21452e-06
-1.08998e-05
1.8027e-06
-1.12782e-05
2.38428e-06
-1.11702e-05
2.97382e-06
-1.08124e-05
3.57796e-06
-1.02928e-05
4.19758e-06
-9.65879e-06
4.82981e-06
-8.94074e-06
5.4699e-06
-8.15918e-06
6.11254e-06
-7.32795e-06
6.75289e-06
-6.45622e-06
7.38703e-06
-5.54997e-06
8.01207e-06
-4.6133e-06
8.6258e-06
-3.64952e-06
9.22613e-06
-2.66184e-06
9.81061e-06
-1.65365e-06
1.03764e-05
-6.28375e-07
1.09214e-05
4.10954e-07
1.14447e-05
1.46076e-06
1.19452e-05
2.51511e-06
1.24205e-05
3.56508e-06
1.28664e-05
4.60019e-06
1.32791e-05
5.60911e-06
1.36534e-05
6.57773e-06
1.39803e-05
7.48865e-06
1.42519e-05
8.32544e-06
1.44598e-05
9.06867e-06
1.45857e-05
9.69153e-06
1.46087e-05
1.01725e-05
1.45085e-05
1.04958e-05
1.42706e-05
1.06524e-05
1.38906e-05
1.06367e-05
1.33426e-05
1.04266e-05
1.26002e-05
1.00217e-05
1.16361e-05
9.43056e-06
1.04155e-05
8.68439e-06
8.92055e-06
7.83646e-06
7.12259e-06
6.94246e-06
5.03776e-06
6.14008e-06
2.50225e-06
5.38027e-06
-1.83286e-07
4.83917e-06
-4.02047e-06
3.79403e-06
-8.03757e-06
3.14746e-06
-1.07818e-05
-3.92827e-07
-1.85612e-06
6.66329e-07
-9.39654e-06
1.3014e-06
-1.15349e-05
1.8889e-06
-1.18657e-05
2.45746e-06
-1.17387e-05
3.02537e-06
-1.13803e-05
3.60242e-06
-1.08699e-05
4.19245e-06
-1.02488e-05
4.79536e-06
-9.54366e-06
5.40874e-06
-8.77256e-06
6.02911e-06
-7.94832e-06
6.65283e-06
-7.07993e-06
7.27659e-06
-6.17373e-06
7.89765e-06
-5.23436e-06
8.51369e-06
-4.26556e-06
9.12257e-06
-3.27071e-06
9.72209e-06
-2.25317e-06
1.031e-05
-1.2163e-06
1.08846e-05
-1.63577e-07
1.14445e-05
9.00821e-07
1.19886e-05
1.97103e-06
1.25145e-05
3.03913e-06
1.30191e-05
4.09565e-06
1.34983e-05
5.12984e-06
1.39472e-05
6.12885e-06
1.43583e-05
7.07757e-06
1.47234e-05
7.96028e-06
1.5033e-05
8.75916e-06
1.52714e-05
9.45307e-06
1.54206e-05
1.00232e-05
1.54618e-05
1.04546e-05
1.5378e-05
1.07363e-05
1.51542e-05
1.08605e-05
1.47646e-05
1.08162e-05
1.4181e-05
1.06053e-05
1.33704e-05
1.02411e-05
1.22995e-05
9.75528e-06
1.09405e-05
9.19544e-06
9.25791e-06
8.62508e-06
7.26158e-06
8.1364e-06
4.90055e-06
7.74129e-06
2.2426e-06
7.49711e-06
-1.14279e-06
7.17942e-06
-4.77655e-06
6.78123e-06
-9.94147e-06
4.77209e-06
1.32573e-06
7.09066e-07
-1.01056e-05
1.34649e-06
-1.21724e-05
1.92378e-06
-1.2443e-05
2.47512e-06
-1.22901e-05
3.02067e-06
-1.19259e-05
3.57182e-06
-1.1421e-05
4.13416e-06
-1.08112e-05
4.70945e-06
-1.0119e-05
5.29702e-06
-9.36013e-06
5.89483e-06
-8.54614e-06
6.5003e-06
-7.6854e-06
7.11079e-06
-6.78422e-06
7.72385e-06
-5.84742e-06
8.3373e-06
-4.879e-06
8.94908e-06
-3.88248e-06
9.5572e-06
-2.86128e-06
1.01598e-05
-1.81885e-06
1.07551e-05
-7.58911e-07
1.13418e-05
3.14075e-07
1.19185e-05
1.39436e-06
1.2483e-05
2.47468e-06
1.30322e-05
3.54638e-06
1.35626e-05
4.59949e-06
1.40691e-05
5.62235e-06
1.4545e-05
6.60161e-06
1.49824e-05
7.52286e-06
1.53713e-05
8.37025e-06
1.5698e-05
9.12636e-06
1.59462e-05
9.77507e-06
1.6098e-05
1.03028e-05
1.61351e-05
1.06992e-05
1.60383e-05
1.09573e-05
1.57822e-05
1.10723e-05
1.53384e-05
1.10491e-05
1.46755e-05
1.0904e-05
1.37628e-05
1.0668e-05
1.25719e-05
1.03863e-05
1.10791e-05
1.01179e-05
9.28479e-06
9.93075e-06
7.17059e-06
9.85548e-06
4.75449e-06
9.91322e-06
1.96136e-06
9.97255e-06
-1.13638e-06
9.87896e-06
-5.33842e-06
8.97414e-06
6.95863e-06
7.27319e-07
-1.08329e-05
1.35102e-06
-1.27961e-05
1.90916e-06
-1.30012e-05
2.43888e-06
-1.28198e-05
2.96063e-06
-1.24477e-05
3.48621e-06
-1.19466e-05
4.02206e-06
-1.1347e-05
4.57103e-06
-1.06679e-05
5.13362e-06
-9.92273e-06
5.7089e-06
-9.12142e-06
6.29516e-06
-8.27166e-06
6.89038e-06
-7.37944e-06
7.49253e-06
-6.44956e-06
8.09962e-06
-5.48608e-06
8.70978e-06
-4.49263e-06
9.32119e-06
-3.47268e-06
9.93213e-06
-2.42978e-06
1.0541e-05
-1.3678e-06
1.11464e-05
-2.91265e-07
1.17465e-05
7.94232e-07
1.23393e-05
1.8819e-06
1.29218e-05
2.9638e-06
1.34905e-05
4.03076e-06
1.40406e-05
5.07227e-06
1.45658e-05
6.07644e-06
1.50582e-05
7.03039e-06
1.55083e-05
7.9202e-06
1.59033e-05
8.7313e-06
1.62284e-05
9.44996e-06
1.64667e-05
1.00645e-05
1.65998e-05
1.05661e-05
1.66074e-05
1.09496e-05
1.64657e-05
1.1214e-05
1.61483e-05
1.13665e-05
1.56277e-05
1.14247e-05
1.48776e-05
1.1418e-05
1.38757e-05
1.13882e-05
1.26072e-05
1.13864e-05
1.10715e-05
1.14665e-05
9.26654e-06
1.16604e-05
7.20551e-06
1.19742e-05
4.85903e-06
1.2319e-05
2.19237e-06
1.25456e-05
-1.14835e-06
1.23149e-05
1.15199e-05
7.22307e-07
-1.15553e-05
1.31807e-06
-1.33919e-05
1.84905e-06
-1.35321e-05
2.35281e-06
-1.33235e-05
2.84882e-06
-1.29437e-05
3.34842e-06
-1.24462e-05
3.85818e-06
-1.18568e-05
4.38148e-06
-1.11912e-05
4.91956e-06
-1.04608e-05
5.47225e-06
-9.67411e-06
6.03855e-06
-8.83795e-06
6.61699e-06
-7.95787e-06
7.20591e-06
-7.03848e-06
7.80362e-06
-6.08378e-06
8.40842e-06
-5.09743e-06
9.01867e-06
-4.08292e-06
9.63275e-06
-3.04386e-06
1.02491e-05
-1.98416e-06
1.08662e-05
-9.08324e-07
1.14821e-05
1.78287e-07
1.20947e-05
1.2693e-06
1.27011e-05
2.35736e-06
1.32978e-05
3.43411e-06
1.388e-05
4.49008e-06
1.44417e-05
5.51473e-06
1.49754e-05
6.49666e-06
1.54718e-05
7.4238e-06
1.59192e-05
8.28384e-06
1.63039e-05
9.06527e-06
1.66101e-05
9.75836e-06
1.68201e-05
1.0356e-05
1.69148e-05
1.0855e-05
1.68723e-05
1.12565e-05
1.66696e-05
1.15692e-05
1.62838e-05
1.18105e-05
1.56941e-05
1.20078e-05
1.48845e-05
1.21978e-05
1.38467e-05
1.24241e-05
1.25826e-05
1.27306e-05
1.1097e-05
1.3146e-05
9.39643e-06
1.36748e-05
7.45119e-06
1.42643e-05
5.18498e-06
1.48118e-05
2.35901e-06
1.51408e-05
1.52105e-05
6.96266e-07
-1.22515e-05
1.25217e-06
-1.39478e-05
1.7491e-06
-1.40291e-05
2.22276e-06
-1.37972e-05
2.69071e-06
-1.34116e-05
3.16325e-06
-1.29188e-05
3.64657e-06