/*--------------------------------*- C++ -*----------------------------------*\
| =========                 |                                                 |
| \\      /  F ield         | OpenFOAM: The Open Source CFD Toolbox           |
|  \\    /   O peration     | Version:  5.0                                   |
|   \\  /    A nd           | Web:      www.OpenFOAM.org                      |
|    \\/     M anipulation  |                                                 |
\*---------------------------------------------------------------------------*/
FoamFile
{
    version     2.0;
    format      ascii;
    class       volVectorField;
    location    "0.7";
    object      U;
}
// * * * * * * * * * * * * * * * * * * * * * * * * * * * * * * * * * * * * * //

dimensions      [0 1 -1 0 0 0 0];

internalField   nonuniform List<vector> 
1935
(
(-0.0173432 0.0140872 0)
(-0.0491163 0.0138394 0)
(-0.0677553 0.00530306 0)
(-0.0695099 -0.00143851 0)
(-0.0631174 -0.00518218 0)
(-0.0531131 -0.00655516 0)
(-0.0417195 -0.00677324 0)
(-0.0303955 -0.00643337 0)
(-0.0198706 -0.00582984 0)
(-0.0104711 -0.00514473 0)
(-0.00231917 -0.00446733 0)
(0.00462612 -0.0038193 0)
(0.0104672 -0.00322672 0)
(0.0152924 -0.00269078 0)
(0.0191958 -0.00220441 0)
(0.0222593 -0.0017582 0)
(0.0245466 -0.00134372 0)
(0.0261085 -0.000955843 0)
(0.0269907 -0.000590139 0)
(0.0272537 -0.000239886 0)
(0.0269106 5.33988e-05 0)
(0.0259668 0.000338309 0)
(0.0244677 0.000622067 0)
(0.0224355 0.00090302 0)
(0.0198841 0.00118256 0)
(0.0168172 0.00146807 0)
(0.0132225 0.00177115 0)
(0.00906735 0.00210563 0)
(0.00429831 0.00248741 0)
(-0.00116396 0.0029355 0)
(-0.007424 0.00347096 0)
(-0.0146355 0.0041114 0)
(-0.022942 0.00489027 0)
(-0.0325342 0.00578967 0)
(-0.0436335 0.00681565 0)
(-0.056386 0.00791201 0)
(-0.0708982 0.00902401 0)
(-0.0868905 0.0101011 0)
(-0.104044 0.0116709 0)
(-0.124794 0.0139821 0)
(-0.146943 0.0117996 0)
(-0.161426 0.00298243 0)
(-0.160413 -0.00823389 0)
(-0.138777 -0.0212579 0)
(-0.0228565 0.0355306 0)
(-0.0386136 0.0261708 0)
(-0.0415826 0.00989574 0)
(-0.038293 -0.00229147 0)
(-0.0323098 -0.00903093 0)
(-0.02412 -0.0119003 0)
(-0.0152502 -0.0125659 0)
(-0.00656378 -0.0120424 0)
(0.00144437 -0.0109401 0)
(0.00853958 -0.00961426 0)
(0.0146442 -0.00826406 0)
(0.0197766 -0.00697369 0)
(0.0240058 -0.00578498 0)
(0.0274104 -0.00470672 0)
(0.0300661 -0.00372776 0)
(0.0320352 -0.00282809 0)
(0.0333621 -0.00198855 0)
(0.0340786 -0.00119855 0)
(0.0342135 -0.00045349 0)
(0.033779 0.000250175 0)
(0.0328145 0.000899193 0)
(0.0313516 0.00153456 0)
(0.0293822 0.00215906 0)
(0.0269128 0.0027692 0)
(0.0239533 0.00336861 0)
(0.0205108 0.00396984 0)
(0.016585 0.00459176 0)
(0.0121673 0.00525586 0)
(0.00724061 0.00598569 0)
(0.00177708 0.00680965 0)
(-0.00426269 0.00776065 0)
(-0.0109346 0.008866 0)
(-0.0182961 0.0101589 0)
(-0.0264143 0.011634 0)
(-0.0353574 0.0132776 0)
(-0.0451427 0.0150149 0)
(-0.0557621 0.0167131 0)
(-0.0670431 0.0182251 0)
(-0.0782405 0.0196262 0)
(-0.0885914 0.020793 0)
(-0.0965264 0.0172302 0)
(-0.0996754 0.00652552 0)
(-0.0987371 -0.00822487 0)
(-0.093357 -0.0281513 0)
(-0.0178432 0.053578 0)
(-0.0215596 0.0297017 0)
(-0.0199435 0.00781073 0)
(-0.0156811 -0.00660704 0)
(-0.00990547 -0.0143137 0)
(-0.00321947 -0.0176252 0)
(0.00366158 -0.0182496 0)
(0.0102389 -0.0173554 0)
(0.0162061 -0.0156952 0)
(0.021419 -0.0137336 0)
(0.0258364 -0.0117373 0)
(0.0294819 -0.00983698 0)
(0.03241 -0.00808745 0)
(0.0346823 -0.00649785 0)
(0.0363558 -0.00505077 0)
(0.0374742 -0.00371463 0)
(0.0380618 -0.00245901 0)
(0.0381305 -0.00126883 0)
(0.0376923 -0.00014078 0)
(0.0367603 0.000929192 0)
(0.0353544 0.00196581 0)
(0.0334862 0.00296686 0)
(0.0311527 0.00394263 0)
(0.028357 0.00489678 0)
(0.0251087 0.00583515 0)
(0.0214194 0.00677129 0)
(0.0172998 0.00772579 0)
(0.0127596 0.0087216 0)
(0.00781057 0.00978367 0)
(0.00246699 0.0109429 0)
(-0.00325564 0.0122345 0)
(-0.00933803 0.0136884 0)
(-0.0157476 0.0153286 0)
(-0.0224385 0.0171491 0)
(-0.0293416 0.0191092 0)
(-0.0363393 0.0211003 0)
(-0.0432725 0.0229248 0)
(-0.049882 0.0243036 0)
(-0.0555074 0.0248873 0)
(-0.0590861 0.0237184 0)
(-0.0603079 0.0178 0)
(-0.0597657 0.00585219 0)
(-0.0579411 -0.0101271 0)
(-0.0542179 -0.0328065 0)
(-0.00907347 0.0641741 0)
(-0.00596356 0.0294503 0)
(-0.00189363 0.00482542 0)
(0.00346838 -0.0105323 0)
(0.00899041 -0.0187575 0)
(0.0144539 -0.0221943 0)
(0.0196478 -0.0226416 0)
(0.0243857 -0.0213681 0)
(0.0285418 -0.0192169 0)
(0.0320655 -0.0167243 0)
(0.0349615 -0.0142031 0)
(0.0372654 -0.0118101 0)
(0.0390237 -0.00960782 0)
(0.0402822 -0.00760421 0)
(0.041081 -0.00577471 0)
(0.0414463 -0.00407471 0)
(0.0413816 -0.00246125 0)
(0.0408782 -0.000915976 0)
(0.0399344 0.000561348 0)
(0.038559 0.00197362 0)
(0.0367632 0.00333993 0)
(0.0345478 0.00467419 0)
(0.0319058 0.00598337 0)
(0.0288378 0.00726594 0)
(0.0253548 0.00852392 0)
(0.0214743 0.00976873 0)
(0.0172159 0.0110197 0)
(0.0126033 0.0122966 0)
(0.00767081 0.013619 0)
(0.00246451 0.0150129 0)
(-0.0029597 0.0165064 0)
(-0.00853106 0.0181207 0)
(-0.0141563 0.0198632 0)
(-0.0197169 0.0217095 0)
(-0.0250621 0.0235897 0)
(-0.0299971 0.0253577 0)
(-0.0342844 0.0267626 0)
(-0.0376225 0.0274305 0)
(-0.0395206 0.0268209 0)
(-0.0393512 0.0238853 0)
(-0.0371782 0.0166628 0)
(-0.0339397 0.00415364 0)
(-0.0300297 -0.0128483 0)
(-0.0251007 -0.0369149 0)
(0.000686095 0.0653561 0)
(0.00862952 0.0264347 0)
(0.0145606 0.000574182 0)
(0.0206174 -0.0146862 0)
(0.0257112 -0.0226278 0)
(0.0300022 -0.025734 0)
(0.0336507 -0.0258037 0)
(0.0367136 -0.0241087 0)
(0.0392172 -0.0215172 0)
(0.041197 -0.0185936 0)
(0.0427012 -0.0156688 0)
(0.0437781 -0.0129056 0)
(0.0444668 -0.0103646 0)
(0.0447976 -0.00804929 0)
(0.0447961 -0.00592777 0)
(0.0444733 -0.0039402 0)
(0.0438117 -0.00202919 0)
(0.0427806 -0.000176212 0)
(0.0413656 0.0016097 0)
(0.0395729 0.00332437 0)
(0.037412 0.00498879 0)
(0.0348767 0.0066274 0)
(0.0319526 0.00824519 0)
(0.0286381 0.00983174 0)
(0.0249478 0.0113817 0)
(0.0209055 0.0129018 0)
(0.0165387 0.0144079 0)
(0.0118816 0.0159124 0)
(0.00698658 0.0174231 0)
(0.00192521 0.0189557 0)
(-0.00321698 0.0205265 0)
(-0.00833383 0.0221399 0)
(-0.0132917 0.0237828 0)
(-0.0179277 0.0254076 0)
(-0.0220468 0.0269161 0)
(-0.0254191 0.028131 0)
(-0.0277849 0.0287684 0)
(-0.0288576 0.0284115 0)
(-0.0283021 0.026471 0)
(-0.0258256 0.0220252 0)
(-0.0216631 0.0137524 0)
(-0.0166642 0.000880948 0)
(-0.0113328 -0.0165489 0)
(-0.00565285 -0.0406274 0)
(0.00930471 0.0570363 0)
(0.0216806 0.0207127 0)
(0.0296225 -0.00464161 0)
(0.0359824 -0.0188126 0)
(0.0404098 -0.0258233 0)
(0.0434902 -0.0282354 0)
(0.0456754 -0.0277682 0)
(0.0472036 -0.0256261 0)
(0.0482137 -0.0226481 0)
(0.0488082 -0.019392 0)
(0.0490703 -0.016182 0)
(0.049056 -0.0131679 0)
(0.0487929 -0.0103976 0)
(0.0482938 -0.00786841 0)
(0.0475727 -0.00554267 0)
(0.0466299 -0.00334176 0)
(0.0454264 -0.00118982 0)
(0.0439083 0.000927866 0)
(0.0420501 0.00298408 0)
(0.0398608 0.00496246 0)
(0.0373544 0.00688959 0)
(0.0345187 0.00880195 0)
(0.03133 0.0107013 0)
(0.0277851 0.0125636 0)
(0.0239046 0.0143728 0)
(0.0197202 0.0161297 0)
(0.0152656 0.0178467 0)
(0.0105811 0.0195251 0)
(0.00573406 0.0211549 0)
(0.000817166 0.0227386 0)
(-0.0040634 0.0242788 0)
(-0.00877854 0.0257596 0)
(-0.0131693 0.0271458 0)
(-0.0170485 0.0283676 0)
(-0.0202019 0.0293035 0)
(-0.0223922 0.0297573 0)
(-0.0233707 0.0294335 0)
(-0.0228954 0.0279167 0)
(-0.0207536 0.0246503 0)
(-0.0168537 0.0188851 0)
(-0.0114908 0.00971719 0)
(-0.00539471 -0.00343471 0)
(0.000752456 -0.0208071 0)
(0.00637595 -0.0439718 0)
(0.0155016 0.0418347 0)
(0.0326705 0.01155 0)
(0.0428222 -0.0107028 0)
(0.0491613 -0.0226936 0)
(0.0527232 -0.0282365 0)
(0.0545785 -0.029697 0)
(0.0554044 -0.0285976 0)
(0.0555653 -0.0260136 0)
(0.0552769 -0.0227135 0)
(0.0546871 -0.0192242 0)
(0.0539011 -0.0158427 0)
(0.0529737 -0.012687 0)
(0.0519127 -0.00978343 0)
(0.0507088 -0.00712495 0)
(0.0493681 -0.00467525 0)
(0.0478869 -0.00232821 0)
(0.0462054 1.73673e-05 0)
(0.0442458 0.00236755 0)
(0.0419739 0.00466361 0)
(0.0394092 0.00686923 0)
(0.0365777 0.00902266 0)
(0.0334615 0.0111798 0)
(0.0300239 0.0133366 0)
(0.0262616 0.0154474 0)
(0.0222048 0.0174826 0)
(0.0178956 0.0194368 0)
(0.0133717 0.0213217 0)
(0.00867346 0.0231248 0)
(0.00388072 0.0248112 0)
(-0.000894455 0.0263699 0)
(-0.00553386 0.0277909 0)
(-0.00989629 0.0290362 0)
(-0.0138084 0.0300496 0)
(-0.017073 0.0307422 0)
(-0.0194731 0.0309776 0)
(-0.0207815 0.0305518 0)
(-0.0207768 0.0291768 0)
(-0.0192696 0.0264678 0)
(-0.0161389 0.0219394 0)
(-0.011408 0.0150068 0)
(-0.00538742 0.00505193 0)
(0.00129727 -0.00832592 0)
(0.00789061 -0.0253393 0)
(0.0133549 -0.0470204 0)
(0.0198112 0.0220958 0)
(0.0419486 -0.00116401 0)
(0.0535936 -0.0176864 0)
(0.0594989 -0.026303 0)
(0.0620837 -0.0298848 0)
(0.0627752 -0.0301952 0)
(0.0623962 -0.028409 0)
(0.0614009 -0.0254128 0)
(0.0600582 -0.0218675 0)
(0.0585425 -0.0182455 0)
(0.0569631 -0.0147947 0)
(0.0553568 -0.0115843 0)
(0.0536979 -0.00861364 0)
(0.0519475 -0.00588282 0)
(0.0501126 -0.00337416 0)
(0.0481926 -0.000932536 0)
(0.0461071 0.00157473 0)
(0.0437583 0.00413614 0)
(0.0411065 0.00664497 0)
(0.0381914 0.00903604 0)
(0.0350597 0.0113728 0)
(0.0316868 0.0137446 0)
(0.0280175 0.0161365 0)
(0.0240504 0.0184692 0)
(0.0198316 0.0206962 0)
(0.0154174 0.0228072 0)
(0.010846 0.0248202 0)
(0.00614878 0.0267057 0)
(0.00141742 0.0283924 0)
(-0.00321546 0.0298599 0)
(-0.00762912 0.0310904 0)
(-0.0116803 0.0320217 0)
(-0.015189 0.032579 0)
(-0.0179578 0.0326588 0)
(-0.0197776 0.0321176 0)
(-0.0204408 0.0307545 0)
(-0.0197591 0.0283031 0)
(-0.0175926 0.024425 0)
(-0.0138876 0.0187201 0)
(-0.0087332 0.0107472 0)
(-0.00243786 9.2749e-05 0)
(0.00445932 -0.0134813 0)
(0.0112357 -0.0300426 0)
(0.0167414 -0.0500301 0)
(0.0250596 -0.00555728 0)
(0.0493419 -0.0172448 0)
(0.061027 -0.025133 0)
(0.0663265 -0.0296094 0)
(0.0679885 -0.031077 0)
(0.0676268 -0.0302448 0)
(0.0662134 -0.0278255 0)
(0.0642867 -0.0244818 0)
(0.0621692 -0.0207513 0)
(0.0600571 -0.0170433 0)
(0.0580209 -0.0135444 0)
(0.0560408 -0.0102694 0)
(0.0540371 -0.00719447 0)
(0.0519334 -0.00434053 0)
(0.0497607 -0.00173819 0)
(0.0475184 0.000826085 0)
(0.0450977 0.00350059 0)
(0.0424094 0.00626842 0)
(0.0394157 0.00897026 0)
(0.0361814 0.0114993 0)
(0.0327816 0.0139644 0)
(0.0291818 0.016511 0)
(0.0253014 0.0191069 0)
(0.0211447 0.0216239 0)
(0.0167822 0.0239996 0)
(0.01229 0.0262197 0)
(0.00770121 0.0283223 0)
(0.00302411 0.0302558 0)
(-0.00163426 0.0318924 0)
(-0.00611523 0.0332108 0)
(-0.0103082 0.0341963 0)
(-0.0140782 0.0347564 0)
(-0.017243 0.0348013 0)
(-0.0196113 0.0342174 0)
(-0.0209886 0.032862 0)
(-0.0211905 0.0305453 0)
(-0.0200615 0.0270315 0)
(-0.0175031 0.0220371 0)
(-0.0135091 0.0152486 0)
(-0.00820729 0.00634875 0)
(-0.00190087 -0.00492221 0)
(0.00493341 -0.0186696 0)
(0.0116466 -0.0348106 0)
(0.0171993 -0.0532299 0)
(0.03598 -0.0317306 0)
(0.0547435 -0.0305418 0)
(0.0651548 -0.0304623 0)
(0.0699051 -0.0317856 0)
(0.0706793 -0.0317479 0)
(0.0693271 -0.0301221 0)
(0.0670266 -0.0273205 0)
(0.0643189 -0.0238293 0)
(0.0616188 -0.0200351 0)
(0.0592463 -0.0163157 0)
(0.0571303 -0.0128192 0)
(0.0551013 -0.00949445 0)
(0.0530095 -0.00627779 0)
(0.050754 -0.00317908 0)
(0.0484245 -0.000267086 0)
(0.0459419 0.00249008 0)
(0.0431811 0.00543794 0)
(0.0401821 0.00852775 0)
(0.0368954 0.0115311 0)
(0.0333808 0.0142615 0)
(0.029741 0.0168578 0)
(0.0259401 0.0195562 0)
(0.02187 0.0223218 0)
(0.0175442 0.024963 0)
(0.0130669 0.0274161 0)
(0.00853902 0.0296675 0)
(0.00397813 0.0318102 0)
(-0.000651143 0.0337626 0)
(-0.00521667 0.0352974 0)
(-0.009521 0.0364132 0)
(-0.0134833 0.0371161 0)
(-0.0169881 0.0372678 0)
(-0.0198503 0.0367671 0)
(-0.0218897 0.0354952 0)
(-0.02293 0.0333172 0)
(-0.022811 0.0300588 0)
(-0.0214049 0.0255205 0)
(-0.0186446 0.0194755 0)
(-0.0145532 0.0116947 0)
(-0.00927864 0.00196943 0)
(-0.00311725 -0.00983433 0)
(0.00348583 -0.0237086 0)
(0.00992367 -0.0394357 0)
(0.0152602 -0.0564406 0)
(0.0547224 -0.0454543 0)
(0.0540096 -0.0291372 0)
(0.0654504 -0.0298925 0)
(0.0701294 -0.0310171 0)
(0.0699114 -0.0306886 0)
(0.0676001 -0.0289094 0)
(0.0646207 -0.0260392 0)
(0.0611258 -0.0224968 0)
(0.0576689 -0.0185856 0)
(0.0552639 -0.014867 0)
(0.0534053 -0.0113916 0)
(0.0516319 -0.00808141 0)
(0.0498118 -0.00484939 0)
(0.0479093 -0.00169337 0)
(0.0458422 0.00115629 0)
(0.0433435 0.00363161 0)
(0.0403557 0.00662287 0)
(0.0371346 0.0100276 0)
(0.0336744 0.0134497 0)
(0.0299338 0.0166 0)
(0.0260133 0.0195825 0)
(0.0219742 0.0226646 0)
(0.0177097 0.0257671 0)
(0.0132255 0.0285828 0)
(0.00866733 0.0310519 0)
(0.0041691 0.033224 0)
(-0.000292102 0.0353385 0)
(-0.00483005 0.0372758 0)
(-0.00926608 0.0386287 0)
(-0.0133423 0.0394745 0)
(-0.017041 0.0398704 0)
(-0.0202778 0.0395897 0)
(-0.0228572 0.0385257 0)
(-0.0246138 0.0365574 0)
(-0.0253924 0.0335644 0)
(-0.0250563 0.0293885 0)
(-0.0234992 0.0238689 0)
(-0.020673 0.0168329 0)
(-0.0166134 0.00813201 0)
(-0.011468 -0.00234708 0)
(-0.00550884 -0.0146301 0)
(0.000865631 -0.028609 0)
(0.00713773 -0.0439637 0)
(0.0125814 -0.0599404 0)
(0.00211361 -0.158 0)
(0.0256932 -0.0628772 0)
(0.0391064 -0.0511018 0)
(0.0476883 -0.0381817 0)
(0.0532249 -0.0280158 0)
(0.0563068 -0.0218293 0)
(0.0573864 -0.0172541 0)
(0.0570702 -0.0126895 0)
(0.0558441 -0.0117536 0)
(0.0536966 -0.0112989 0)
(0.0517008 -0.00912868 0)
(0.0497705 -0.00644195 0)
(0.0478582 -0.00351568 0)
(0.0459379 -0.000422285 0)
(0.0439266 0.00210409 0)
(0.0403689 0.00488912 0)
(0.0357619 0.00827212 0)
(0.0320538 0.01186 0)
(0.028794 0.0153383 0)
(0.0253088 0.0183583 0)
(0.0215287 0.0212582 0)
(0.0174325 0.0246859 0)
(0.0130063 0.0283612 0)
(0.00832251 0.0317054 0)
(0.00364228 0.0345048 0)
(-0.000755326 0.0367722 0)
(-0.00503509 0.0389484 0)
(-0.00943273 0.0408776 0)
(-0.0136745 0.0419133 0)
(-0.0174232 0.0423844 0)
(-0.0207915 0.0424617 0)
(-0.023737 0.0417283 0)
(-0.0260316 0.0400969 0)
(-0.0275297 0.0374404 0)
(-0.0281008 0.0336596 0)
(-0.0276304 0.0286051 0)
(-0.0260256 0.0221559 0)
(-0.0232463 0.0141853 0)
(-0.0193246 0.00461997 0)
(-0.0143892 -0.0065748 0)
(-0.0086643 -0.0193394 0)
(-0.00246063 -0.0335007 0)
(0.00389325 -0.0487159 0)
(0.0101715 -0.0643398 0)
(-0.0199524 -0.0801184 0)
(-0.00240679 -0.0617761 0)
(0.015708 -0.0529751 0)
(0.0282485 -0.0440073 0)
(0.0383007 -0.0358806 0)
(0.046002 -0.0294479 0)
(0.0518075 -0.0238417 0)
(0.0565328 -0.0182498 0)
(0.0602208 -0.0132976 0)
(0.0625454 -0.00905855 0)
(0.0639439 -0.00544039 0)
(0.0645471 -0.00209766 0)
(0.0641061 0.0012015 0)
(0.062179 0.00461884 0)
(0.0580059 0.00926389 0)
(0.0513368 0.0161751 0)
(0.038055 0.0156376 0)
(0.0308888 0.014833 0)
(0.0268271 0.0172833 0)
(0.0224515 0.0201142 0)
(0.0168844 0.023032 0)
(0.0115047 0.0267714 0)
(0.00676726 0.0304987 0)
(0.00219019 0.0337212 0)
(-0.0019201 0.036586 0)
(-0.00583533 0.0392149 0)
(-0.00994579 0.0418912 0)
(-0.0142877 0.044184 0)
(-0.0182472 0.0449968 0)
(-0.0215171 0.0450821 0)
(-0.0244575 0.0448881 0)
(-0.027066 0.0436714 0)
(-0.0290475 0.0414798 0)
(-0.0302903 0.0381591 0)
(-0.0306927 0.0336452 0)
(-0.0301597 0.0277744 0)
(-0.0286044 0.0204667 0)
(-0.0259853 0.0116263 0)
(-0.0223194 0.00125116 0)
(-0.0177107 -0.0106345 0)
(-0.0123365 -0.0239055 0)
(-0.00645014 -0.0383629 0)
(-0.000303865 -0.0537323 0)
(0.00600956 -0.0696939 0)
(-0.011085 -0.0888295 0)
(-0.00553462 -0.0742683 0)
(0.00557766 -0.0633501 0)
(0.0168812 -0.0532348 0)
(0.0280995 -0.044229 0)
(0.0382746 -0.0365576 0)
(0.0471577 -0.0298445 0)
(0.0550041 -0.0237433 0)
(0.0617078 -0.0185879 0)
(0.0670169 -0.0140373 0)
(0.071053 -0.00980209 0)
(0.0738429 -0.00559899 0)
(0.0753593 -0.00112855 0)
(0.0753501 0.00413775 0)
(0.0737235 0.0108794 0)
(0.0717891 0.0195552 0)
(0.0676726 0.025835 0)
(0.0617246 0.0269993 0)
(0.0532543 0.0289456 0)
(0.0426643 0.0345294 0)
(0.0240741 0.0346926 0)
(0.0110115 0.0315765 0)
(0.00467598 0.0331482 0)
(-0.00248143 0.0357378 0)
(-0.00749326 0.0385238 0)
(-0.0116242 0.0409597 0)
(-0.0156189 0.0436064 0)
(-0.0194155 0.0461484 0)
(-0.0225299 0.0470564 0)
(-0.0251837 0.0471573 0)
(-0.0276952 0.0470209 0)
(-0.0299129 0.0453869 0)
(-0.0315272 0.0426769 0)
(-0.0324943 0.0387246 0)
(-0.0327543 0.0335628 0)
(-0.0322289 0.0269566 0)
(-0.0308288 0.018884 0)
(-0.0285041 0.0092509 0)
(-0.025251 -0.00186527 0)
(-0.021152 -0.0144011 0)
(-0.0163521 -0.0281603 0)
(-0.0111097 -0.0429061 0)
(-0.0057605 -0.0583904 0)
(-0.000632617 -0.0744907 0)
(-0.00807783 -0.0842255 0)
(-0.00611451 -0.07959 0)
(0.00172221 -0.0713801 0)
(0.0115606 -0.0621518 0)
(0.0226176 -0.0530601 0)
(0.0336709 -0.0447238 0)
(0.044086 -0.0371942 0)
(0.0536772 -0.0303774 0)
(0.0622328 -0.0243675 0)
(0.0695331 -0.0188684 0)
(0.0755352 -0.013589 0)
(0.080206 -0.00823677 0)
(0.0835389 -0.0024904 0)
(0.0855232 0.00389852 0)
(0.0864053 0.011276 0)
(0.0871235 0.0192379 0)
(0.0866637 0.0246982 0)
(0.0835559 0.0279858 0)
(0.0777432 0.0329139 0)
(0.0713347 0.0412335 0)
(0.0627406 0.0485214 0)
(0.051671 0.0505117 0)
(0.0376647 0.0506349 0)
(0.0216116 0.0549322 0)
(-0.00515301 0.0442852 0)
(-0.012662 0.0433681 0)
(-0.0196915 0.0452648 0)
(-0.0245444 0.0478622 0)
(-0.0268134 0.0480374 0)
(-0.0283104 0.0479871 0)
(-0.0301474 0.0482692 0)
(-0.0317018 0.0465874 0)
(-0.0329791 0.0436025 0)
(-0.0336487 0.039149 0)
(-0.0338006 0.0334813 0)
(-0.0333638 0.0262334 0)
(-0.0322463 0.0175227 0)
(-0.0303862 0.00718721 0)
(-0.0277562 -0.00457496 0)
(-0.024423 -0.017689 0)
(-0.0205013 -0.0318517 0)
(-0.0162932 -0.0467309 0)
(-0.0123054 -0.0619729 0)
(-0.00926377 -0.0774188 0)
(-0.00601177 -0.0782676 0)
(-0.00471075 -0.0824339 0)
(0.00157723 -0.0777667 0)
(0.0103016 -0.0702909 0)
(0.0207297 -0.0618986 0)
(0.031759 -0.0535373 0)
(0.0426704 -0.0455778 0)
(0.0530644 -0.0381258 0)
(0.0626402 -0.0312371 0)
(0.0711609 -0.0247396 0)
(0.0785077 -0.0184115 0)
(0.0846225 -0.0119984 0)
(0.089515 -0.00523692 0)
(0.0932681 0.00206448 0)
(0.0961535 0.00998538 0)
(0.0986847 0.018026 0)
(0.100298 0.0245432 0)
(0.0997666 0.0300017 0)
(0.0970328 0.0365012 0)
(0.0936178 0.0445343 0)
(0.089058 0.050797 0)
(0.0815602 0.0542209 0)
(0.0710132 0.0584375 0)
(0.0605118 0.0660106 0)
(0.0456018 0.0679847 0)
(0.028728 0.062377 0)
(0.00943688 0.0635836 0)
(-0.0204506 0.0534828 0)
(-0.0271648 0.0494139 0)
(-0.0305361 0.0485798 0)
(-0.0325421 0.0489531 0)
(-0.0328735 0.0468501 0)
(-0.0329789 0.0438389 0)
(-0.0330858 0.0393955 0)
(-0.0332442 0.0335061 0)
(-0.0330067 0.0257649 0)
(-0.0323464 0.0166072 0)
(-0.0311752 0.00565667 0)
(-0.0294428 -0.00662598 0)
(-0.0272066 -0.0202382 0)
(-0.0245254 -0.0346956 0)
(-0.021736 -0.0494955 0)
(-0.0195048 -0.0640145 0)
(-0.0189504 -0.0778598 0)
(-0.00378523 -0.0752613 0)
(-0.0021376 -0.085058 0)
(0.00352571 -0.0834129 0)
(0.0115125 -0.077782 0)
(0.0212323 -0.0703993 0)
(0.0318143 -0.0623877 0)
(0.0426108 -0.0543138 0)
(0.0531733 -0.0464381 0)
(0.0631629 -0.038867 0)
(0.0723276 -0.0315337 0)
(0.0805177 -0.0242926 0)
(0.0876634 -0.016953 0)
(0.0937762 -0.00932253 0)
(0.0989513 -0.00127231 0)
(0.103391 0.00718385 0)
(0.107341 0.0156766 0)
(0.110453 0.0233875 0)
(0.111944 0.0305457 0)
(0.111738 0.0382231 0)
(0.110686 0.0465414 0)
(0.108703 0.0537122 0)
(0.10455 0.0593405 0)
(0.0980776 0.065344 0)
(0.0911562 0.0720428 0)
(0.081539 0.0741191 0)
(0.0680344 0.0742896 0)
(0.053517 0.0788873 0)
(0.0347477 0.0782186 0)
(0.0162263 0.0655666 0)
(-0.0161364 0.0551187 0)
(-0.0298672 0.0503083 0)
(-0.0325207 0.0471178 0)
(-0.032334 0.0436634 0)
(-0.0315523 0.039035 0)
(-0.0308862 0.033256 0)
(-0.0305073 0.0256222 0)
(-0.0305244 0.0164421 0)
(-0.0303439 0.00505725 0)
(-0.0298826 -0.00751077 0)
(-0.0291796 -0.0215649 0)
(-0.0281761 -0.0362599 0)
(-0.0271916 -0.050881 0)
(-0.0269555 -0.0643175 0)
(-0.0288913 -0.0757739 0)
(-0.00187478 -0.0738892 0)
(0.000709582 -0.0880709 0)
(0.00642395 -0.0888352 0)
(0.0140159 -0.0848205 0)
(0.0231182 -0.0784583 0)
(0.0331072 -0.0709509 0)
(0.0434743 -0.0629661 0)
(0.0538158 -0.0548645 0)
(0.0638083 -0.0468178 0)
(0.0732072 -0.0388416 0)
(0.0818552 -0.0308623 0)
(0.0896738 -0.0227576 0)
(0.0966628 -0.0144024 0)
(0.102892 -0.00572324 0)
(0.108488 0.00323966 0)
(0.113549 0.0122466 0)
(0.117846 0.0208927 0)
(0.120925 0.0292834 0)
(0.12273 0.037942 0)
(0.123693 0.0468909 0)
(0.123801 0.0552275 0)
(0.12235 0.0626381 0)
(0.119169 0.0698814 0)
(0.115146 0.0768087 0)
(0.109285 0.0809327 0)
(0.100466 0.0840972 0)
(0.0904959 0.0883204 0)
(0.0783803 0.0881204 0)
(0.064348 0.0840707 0)
(0.0450935 0.079238 0)
(0.0258517 0.066998 0)
(0.00708971 0.0558387 0)
(-0.0256652 0.0441529 0)
(-0.0282318 0.0388574 0)
(-0.0278775 0.0328887 0)
(-0.0270644 0.0250166 0)
(-0.0269765 0.0161687 0)
(-0.0272828 0.00521574 0)
(-0.0285168 -0.00680062 0)
(-0.0299851 -0.0209268 0)
(-0.0312909 -0.0356709 0)
(-0.0326373 -0.0502504 0)
(-0.03459 -0.0626439 0)
(-0.0387717 -0.071407 0)
(-0.000218843 -0.0742331 0)
(0.00351213 -0.0918266 0)
(0.00959489 -0.0943369 0)
(0.017021 -0.0915798 0)
(0.0256293 -0.0861009 0)
(0.0350164 -0.0791165 0)
(0.0448259 -0.0713291 0)
(0.0547396 -0.0631505 0)
(0.0644832 -0.0548022 0)
(0.0738389 -0.046363 0)
(0.0826567 -0.0378217 0)
(0.0908539 -0.0291174 0)
(0.0984129 -0.0201808 0)
(0.10537 -0.0109778 0)
(0.111789 -0.00155065 0)
(0.117696 0.00795177 0)
(0.122941 0.0173261 0)
(0.127272 0.0266214 0)
(0.130651 0.0360763 0)
(0.133282 0.0456641 0)
(0.135148 0.0549084 0)
(0.135871 0.0635589 0)
(0.135318 0.0718456 0)
(0.133854 0.0795799 0)
(0.131001 0.0856017 0)
(0.126068 0.0905755 0)
(0.119936 0.0950784 0)
(0.112384 0.0964429 0)
(0.10271 0.0950592 0)
(0.089575 0.0907276 0)
(0.0735494 0.0832246 0)
(0.0566018 0.0770653 0)
(0.0350127 0.0668071 0)
(0.0172074 0.0468297 0)
(-0.0167234 0.0338127 0)
(-0.020782 0.0248713 0)
(-0.0225021 0.0162312 0)
(-0.0234733 0.00492535 0)
(-0.0262128 -0.00647021 0)
(-0.0292536 -0.0195654 0)
(-0.0336181 -0.0329063 0)
(-0.0383802 -0.0468293 0)
(-0.0430316 -0.0583161 0)
(-0.0492006 -0.0648466 0)
(0.00128258 -0.0762609 0)
(0.0060956 -0.0963999 0)
(0.0126297 -0.100053 0)
(0.0200114 -0.0981771 0)
(0.0282296 -0.093385 0)
(0.0370608 -0.0868676 0)
(0.0462878 -0.0793185 0)
(0.0556861 -0.0711637 0)
(0.0650436 -0.062653 0)
(0.0741806 -0.0539084 0)
(0.0829639 -0.0449669 0)
(0.0913117 -0.0358167 0)
(0.0991917 -0.0264315 0)
(0.10661 -0.0168036 0)
(0.113589 -0.00697063 0)
(0.120122 0.00297518 0)
(0.12611 0.0129269 0)
(0.131414 0.0228995 0)
(0.136005 0.0329858 0)
(0.139971 0.0431347 0)
(0.143292 0.0530717 0)
(0.145768 0.0626038 0)
(0.147302 0.0717378 0)
(0.148005 0.0802818 0)
(0.14761 0.0876354 0)
(0.145737 0.0939237 0)
(0.142753 0.099215 0)
(0.138529 0.102151 0)
(0.132385 0.10256 0)
(0.123635 0.100273 0)
(0.112093 0.0958223 0)
(0.0988324 0.0908819 0)
(0.0830652 0.0821885 0)
(0.0665074 0.0701342 0)
(0.0444765 0.0569554 0)
(0.0258754 0.0347891 0)
(-0.00500787 0.0205162 0)
(-0.0140371 0.00581415 0)
(-0.021745 -0.00489423 0)
(-0.0282363 -0.0186338 0)
(-0.0369782 -0.0317922 0)
(-0.0450429 -0.0437315 0)
(-0.0535431 -0.052299 0)
(-0.0621011 -0.0563237 0)
(0.00260679 -0.0798446 0)
(0.00834281 -0.101748 0)
(0.0152884 -0.106019 0)
(0.0226615 -0.104677 0)
(0.0305578 -0.100366 0)
(0.0388919 -0.094225 0)
(0.0475605 -0.0869129 0)
(0.0564253 -0.0788437 0)
(0.0653356 -0.0702754 0)
(0.074153 -0.0613547 0)
(0.0827663 -0.0521517 0)
(0.0910993 -0.0426901 0)
(0.0991108 -0.0329751 0)
(0.106787 -0.0230172 0)
(0.114123 -0.0128503 0)
(0.121098 -0.00253447 0)
(0.127647 0.00786731 0)
(0.133689 0.0183477 0)
(0.139202 0.028927 0)
(0.144217 0.0395445 0)
(0.148714 0.0500234 0)
(0.152583 0.0602067 0)
(0.15575 0.0700093 0)
(0.158217 0.0792451 0)
(0.159818 0.0875535 0)
(0.160335 0.0948565 0)
(0.159863 0.101017 0)
(0.15825 0.105272 0)
(0.155009 0.107332 0)
(0.149702 0.107086 0)
(0.142056 0.104746 0)
(0.132531 0.100888 0)
(0.121021 0.0941004 0)
(0.107589 0.0848188 0)
(0.0910118 0.0727412 0)
(0.0734646 0.0580003 0)
(0.0513365 0.0442744 0)
(0.0297019 0.0241964 0)
(0.00282169 0.0126386 0)
(-0.0168411 -0.0128529 0)
(-0.0345217 -0.0274715 0)
(-0.053653 -0.0423092 0)
(-0.0692775 -0.0499703 0)
(-0.079783 -0.0496384 0)
(-0.0903994 -0.0394239 0)
(0.00372825 -0.084766 0)
(0.0101828 -0.107748 0)
(0.0174315 -0.112203 0)
(0.0247746 -0.111101 0)
(0.0323828 -0.107083 0)
(0.0402719 -0.101222 0)
(0.0484251 -0.0941233 0)
(0.0567741 -0.0861728 0)
(0.0652227 -0.0776215 0)
(0.0736712 -0.0686252 0)
(0.0820316 -0.0592737 0)
(0.090237 -0.0496145 0)
(0.0982435 -0.039674 0)
(0.106025 -0.0294758 0)
(0.113563 -0.0190524 0)
(0.120832 -0.00844837 0)
(0.127785 0.00229221 0)
(0.134372 0.013148 0)
(0.140573 0.0241032 0)
(0.146396 0.0350941 0)
(0.151818 0.0459923 0)
(0.156776 0.0566633 0)
(0.161208 0.0669893 0)
(0.165077 0.0767967 0)
(0.168265 0.0858315 0)
(0.170629 0.0939387 0)
(0.172136 0.100912 0)
(0.172622 0.106278 0)
(0.171741 0.10976 0)
(0.16916 0.11121 0)
(0.164632 0.110629 0)
(0.158281 0.10817 0)
(0.150011 0.103195 0)
(0.13954 0.0957738 0)
(0.126387 0.0858209 0)
(0.110802 0.0738965 0)
(0.0917861 0.0604563 0)
(0.0702703 0.0457261 0)
(0.0454919 0.0355314 0)
(0.0166033 0.0237139 0)
(-0.0197836 0.0174951 0)
(-0.0469026 -0.0217551 0)
(-0.0829757 -0.0458569 0)
(-0.103774 -0.0475342 0)
(-0.114351 -0.031954 0)
(0.00463396 -0.0907983 0)
(0.0115788 -0.114238 0)
(0.0189852 -0.118529 0)
(0.0262421 -0.117437 0)
(0.0335698 -0.113561 0)
(0.0410529 -0.107892 0)
(0.0487355 -0.100975 0)
(0.0566021 -0.0931577 0)
(0.0646001 -0.0846741 0)
(0.0726632 -0.0756777 0)
(0.0807255 -0.066267 0)
(0.0887314 -0.0565033 0)
(0.0966385 -0.0464269 0)
(0.104416 -0.0360703 0)
(0.11204 -0.0254672 0)
(0.119481 -0.0146553 0)
(0.126705 -0.00367221 0)
(0.133679 0.0074521 0)
(0.140382 0.0186837 0)
(0.14681 0.0299585 0)
(0.152943 0.0411729 0)
(0.158734 0.0522081 0)
(0.164135 0.0629399 0)
(0.169094 0.0732092 0)
(0.173519 0.082813 0)
(0.177298 0.0915736 0)
(0.180345 0.0992761 0)
(0.182501 0.10559 0)
(0.1835 0.110269 0)
(0.183068 0.113143 0)
(0.180975 0.114128 0)
(0.177147 0.113198 0)
(0.171401 0.11003 0)
(0.163401 0.104611 0)
(0.152753 0.0970135 0)
(0.139164 0.0876037 0)
(0.122149 0.0768118 0)
(0.101576 0.0654389 0)
(0.0773057 0.0552298 0)
(0.0486451 0.045093 0)
(0.0160987 0.0399299 0)
(-0.0241812 0.035289 0)
(-0.0785434 0.0294861 0)
(-0.123876 -0.0361937 0)
(-0.141878 -0.0282689 0)
(0.00531289 -0.0976918 0)
(0.0125158 -0.121035 0)
(0.0199215 -0.124899 0)
(0.0270196 -0.123653 0)
(0.0340563 -0.119807 0)
(0.0411587 -0.11426 0)
(0.0484097 -0.107495 0)
(0.05583 -0.0998163 0)
(0.0633999 -0.091434 0)
(0.0710799 -0.0824929 0)
(0.0788235 -0.0730919 0)
(0.0865868 -0.0632988 0)
(0.0943319 -0.0531619 0)
(0.102028 -0.0427197 0)
(0.109649 -0.0320079 0)
(0.117167 -0.0210623 0)
(0.124554 -0.00991922 0)
(0.131784 0.00138587 0)
(0.138839 0.01281 0)
(0.145707 0.0242895 0)
(0.152366 0.0357345 0)
(0.158783 0.0470382 0)
(0.164911 0.0580807 0)
(0.170699 0.0687168 0)
(0.176068 0.0787727 0)
(0.180919 0.0880731 0)
(0.185151 0.096416 0)
(0.188608 0.103548 0)
(0.191074 0.109254 0)
(0.192313 0.113363 0)
(0.192095 0.115759 0)
(0.190243 0.116364 0)
(0.186513 0.115008 0)
(0.180558 0.111697 0)
(0.171984 0.106554 0)
(0.16039 0.0999175 0)
(0.145355 0.092307 0)
(0.1265 0.0844286 0)
(0.103715 0.0772975 0)
(0.0767256 0.070895 0)
(0.0457761 0.0665893 0)
(0.00853466 0.060924 0)
(-0.0353295 0.0572476 0)
(-0.0826046 0.0374446 0)
(-0.156195 -0.0144214 0)
(0.00575779 -0.105182 0)
(0.0129979 -0.127948 0)
(0.0202483 -0.131209 0)
(0.027111 -0.129708 0)
(0.0338355 -0.125817 0)
(0.0405701 -0.120345 0)
(0.0474188 -0.113708 0)
(0.0544248 -0.106168 0)
(0.0615912 -0.0979104 0)
(0.0688989 -0.0890647 0)
(0.0763174 -0.0797261 0)
(0.0838137 -0.0699635 0)
(0.091356 -0.0598287 0)
(0.098916 -0.0493639 0)
(0.106468 -0.0386066 0)
(0.113987 -0.0275932 0)
(0.121448 -0.0163603 0)
(0.12883 -0.00494723 0)
(0.136114 0.00659897 0)
(0.143284 0.0182155 0)
(0.15032 0.0298209 0)
(0.157189 0.0413181 0)
(0.163851 0.0525949 0)
(0.170254 0.0635195 0)
(0.176326 0.0739389 0)
(0.181978 0.0836901 0)
(0.187102 0.0925913 0)
(0.191554 0.100437 0)
(0.195146 0.10704 0)
(0.197664 0.112244 0)
(0.198883 0.115931 0)
(0.198582 0.118019 0)
(0.19649 0.118428 0)
(0.19227 0.117197 0)
(0.185546 0.114487 0)
(0.175932 0.110637 0)
(0.16305 0.106157 0)
(0.146562 0.101709 0)
(0.126347 0.0981111 0)
(0.102283 0.0956288 0)
(0.0745483 0.0945686 0)
(0.0425554 0.0930028 0)
(0.00643549 0.0905187 0)
(-0.0353511 0.0775051 0)
(-0.0815459 0.0489191 0)
(0.0059697 -0.113 0)
(0.0130479 -0.134794 0)
(0.0200036 -0.137359 0)
(0.0265576 -0.135552 0)
(0.0329427 -0.13158 0)
(0.0393121 -0.126154 0)
(0.0457771 -0.11963 0)
(0.0523927 -0.112231 0)
(0.0591768 -0.104113 0)
(0.0661243 -0.0953931 0)
(0.0732176 -0.0861572 0)
(0.0804331 -0.0764725 0)
(0.0877454 -0.0663913 0)
(0.0951299 -0.0559574 0)
(0.102563 -0.0452097 0)
(0.110022 -0.0341854 0)
(0.117486 -0.0229224 0)
(0.124934 -0.0114619 0)
(0.132348 0.000147272 0)
(0.139709 0.0118438 0)
(0.146995 0.0235522 0)
(0.154177 0.0351831 0)
(0.161214 0.0466336 0)
(0.168057 0.057784 0)
(0.174639 0.0684987 0)
(0.180874 0.0786305 0)
(0.186658 0.088019 0)
(0.191856 0.0964931 0)
(0.196298 0.103892 0)
(0.199788 0.11008 0)
(0.202111 0.114952 0)
(0.203036 0.118443 0)
(0.202293 0.120524 0)
(0.199573 0.121265 0)
(0.19454 0.120849 0)
(0.18686 0.119607 0)
(0.176227 0.118012 0)
(0.1624 0.116657 0)
(0.145293 0.116199 0)
(0.124891 0.116981 0)
(0.101355 0.119089 0)
(0.0746058 0.121305 0)
(0.0443231 0.122006 0)
(0.0080789 0.116093 0)
(-0.0358997 0.101031 0)
(0.00596081 -0.120883 0)
(0.0127063 -0.141409 0)
(0.0192485 -0.143254 0)
(0.0254282 -0.141139 0)
(0.0314438 -0.137076 0)
(0.037442 -0.131687 0)
(0.0435315 -0.125271 0)
(0.0497714 -0.118015 0)
(0.0561873 -0.110051 0)
(0.062784 -0.101479 0)
(0.069553 -0.0923769 0)
(0.0764785 -0.0828078 0)
(0.0835411 -0.0728224 0)
(0.0907204 -0.0624645 0)
(0.0979955 -0.0517735 0)
(0.105346 -0.0407872 0)
(0.112753 -0.0295445 0)
(0.120197 -0.0180873 0)
(0.127659 -0.00646471 0)
(0.135119 0.00526406 0)
(0.142554 0.017028 0)
(0.149933 0.028745 0)
(0.157219 0.0403204 0)
(0.164362 0.0516469 0)
(0.171297 0.0626036 0)
(0.177944 0.0730599 0)
(0.184203 0.082876 0)
(0.189947 0.0919078 0)
(0.195022 0.10002 0)
(0.199247 0.107097 0)
(0.202423 0.113054 0)
(0.204326 0.117845 0)
(0.204708 0.121476 0)
(0.203295 0.124034 0)
(0.199803 0.12571 0)
(0.193961 0.126813 0)