/*--------------------------------*- C++ -*----------------------------------*\
| =========                 |                                                 |
| \\      /  F ield         | OpenFOAM: The Open Source CFD Toolbox           |
|  \\    /   O peration     | Version:  5.0                                   |
|   \\  /    A nd           | Web:      www.OpenFOAM.org                      |
|    \\/     M anipulation  |                                                 |
\*---------------------------------------------------------------------------*/
FoamFile
{
    version     2.0;
    format      ascii;
    class       volScalarField;
    location    "0.25";
    object      alpha.water;
}
// * * * * * * * * * * * * * * * * * * * * * * * * * * * * * * * * * * * * * //

dimensions      [0 0 0 0 0 0 0];

internalField   nonuniform List<scalar> 
1935
(
1.34905e-10
5.5572e-11
1.44135e-11
2.27359e-12
3.16812e-13
4.15813e-14
5.0327e-15
5.58647e-16
5.67694e-17
5.27402e-18
4.47413e-19
3.46276e-20
2.44325e-21
1.57072e-22
9.19534e-24
4.8997e-25
2.37503e-26
1.04669e-27
4.19189e-29
1.52485e-30
5.03551e-32
1.50884e-33
4.10054e-35
1.01035e-36
2.25613e-38
4.56348e-40
8.35951e-42
1.38621e-43
2.08037e-45
2.82527e-47
3.47206e-49
3.86096e-51
3.88574e-53
3.54178e-55
2.92759e-57
2.19958e-59
1.50801e-61
9.49384e-64
5.54427e-66
3.04904e-68
1.61636e-70
8.55359e-73
7.22749e-75
4.82339e-10
1.22034e-09
2.7244e-09
3.77828e-09
1.0334e-10
2.25907e-10
4.08704e-10
4.90285e-10
3.518e-11
5.36848e-11
6.79629e-11
8.03201e-11
7.37675e-12
1.42399e-11
1.74639e-11
1.61019e-11
9.66323e-13
2.21068e-12
3.13521e-12
3.01284e-12
1.17949e-13
2.4447e-13
3.45871e-13
3.45965e-13
1.34301e-14
2.57848e-14
3.3496e-14
3.17779e-14
1.40528e-15
2.52741e-15
3.0926e-15
2.81089e-15
1.34797e-16
2.28227e-16
2.65459e-16
2.31779e-16
1.18455e-17
1.89393e-17
2.11892e-17
1.76895e-17
9.53603e-19
1.44503e-18
1.56996e-18
1.2509e-18
7.03338e-20
1.01537e-19
1.07553e-19
8.21031e-20
4.75133e-21
6.57076e-21
6.80686e-21
5.00008e-21
2.93876e-22
3.91467e-22
3.97829e-22
2.82377e-22
1.66354e-23
2.14673e-23
2.14576e-23
1.47819e-23
8.61596e-25
1.08298e-24
1.06761e-24
7.16986e-25
4.08057e-26
5.0258e-26
4.89668e-26
3.22132e-26
1.76728e-27
2.1436e-27
2.06997e-27
1.3403e-27
6.9965e-29
8.40038e-29
8.06231e-29
5.16377e-29
2.53088e-30
3.02432e-30
2.8923e-30
1.84218e-30
8.36203e-32
1.00036e-31
9.55399e-32
6.08646e-32
2.52271e-33
3.04037e-33
2.9054e-33
1.86292e-33
6.94774e-35
8.49148e-35
8.13354e-35
5.28457e-35
1.74651e-36
2.17963e-36
2.0962e-36
1.39015e-36
4.00682e-38
5.1434e-38
4.97401e-38
3.39355e-38
8.38839e-40
1.1165e-39
1.08661e-39
7.69404e-40
1.60269e-41
2.22942e-41
2.18637e-41
1.62175e-41
2.79462e-43
4.09714e-43
4.05198e-43
3.18178e-43
4.44799e-45
6.93154e-45
6.91575e-45
5.82044e-45
6.45845e-47
1.07565e-46
1.09552e-46
9.90358e-47
8.5433e-49
1.52226e-48
1.64106e-48
1.55069e-48
1.03072e-50
1.9746e-50
2.30569e-50
2.24826e-50
1.13581e-52
2.35766e-52
3.0231e-52
3.03125e-52
1.14477e-54
2.59583e-54
3.70165e-54
3.80703e-54
1.05761e-56
2.64457e-56
4.2313e-56
4.46201e-56
8.98729e-59
2.4985e-58
4.45364e-58
5.05862e-58
7.0562e-61
2.19962e-60
4.35554e-60
5.53596e-60
5.15187e-63
1.81716e-62
4.01434e-62
5.77352e-62
3.53208e-65
1.42116e-64
3.5216e-64
5.74333e-64
2.30635e-67
1.06479e-66
2.97053e-66
5.48765e-66
1.46303e-69
7.76339e-69
2.43779e-68
5.029e-68
9.14677e-72
5.47902e-71
1.87918e-70
4.07167e-70
1.46979e-73
1.61406e-72
1.03319e-71
4.20256e-71
2.92695e-09
1.48779e-09
5.79861e-10
2.14283e-10
6.58987e-11
2.46038e-11
7.37073e-12
1.37007e-12
1.8145e-13
2.14326e-14
2.23109e-15
2.05806e-16
1.69518e-17
1.25488e-18
8.39349e-20
5.09527e-21
2.81764e-22
1.42375e-23
6.5905e-25
2.80048e-26
1.09416e-27
3.93538e-29
1.30403e-30
3.98222e-32
1.12056e-33
2.90346e-35
6.91831e-37
1.51286e-38
3.02715e-40
5.5202e-42
9.12423e-44
1.35706e-45
1.79859e-47
2.09631e-49
2.10973e-51
1.78599e-53
1.22255e-55
6.34416e-58
2.20975e-60
3.74803e-63
3.79202e-10
2.09213e-10
9.01865e-11
3.32941e-11
1.49801e-11
4.68214e-12
9.59196e-13
1.45691e-13
1.95578e-14
2.29352e-15
2.36472e-16
2.16272e-17
1.76796e-18
1.29998e-19
8.6432e-21
5.21911e-22
2.87275e-23
1.44582e-24
6.67035e-26
2.82687e-27
1.1023e-28
3.95966e-30
1.31139e-31
4.00568e-33
1.12833e-34
2.92903e-36
6.99813e-38
1.53581e-39
3.08696e-41
5.66015e-43
9.4164e-45
1.41112e-46
1.8865e-48
2.22046e-50
2.25945e-52
1.93632e-54
1.34347e-56
7.07467e-59
2.50285e-61
4.30751e-64
5.99524e-11
3.15131e-11
1.5982e-11
7.52861e-12
2.46595e-12
5.47288e-13
9.60596e-14
1.47391e-14
1.95671e-15
2.26538e-16
2.30956e-17
2.09146e-18
1.69468e-19
1.23626e-20
8.16113e-22
4.89655e-23
2.67985e-24
1.34195e-25
6.16419e-27
2.60276e-28
1.01188e-29
3.62665e-31
1.19927e-32
3.66046e-34
1.03114e-35
2.6791e-37
6.41229e-39
1.41101e-40
2.84641e-42
5.24329e-44
8.77255e-46
1.32358e-47
1.78358e-49
2.11864e-51
2.17845e-53
1.88894e-55
1.32779e-57
7.09253e-60
2.54762e-62
4.44701e-65
1.19238e-11
6.83805e-12
3.00391e-12
1.04006e-12
2.55078e-13
5.21316e-14
9.18542e-15
1.38778e-15
1.81312e-16
2.0698e-17
2.08426e-18
1.86681e-19
1.49778e-20
1.0829e-21
7.09098e-23
4.22334e-24
2.29614e-25
1.14301e-26
5.22297e-28
2.19535e-29
8.50233e-31
3.03785e-32
1.00221e-33
3.0542e-35
8.59714e-37
2.23395e-38
5.35221e-40
1.18004e-41
2.38749e-43
4.4155e-45
7.42525e-47
1.12732e-48
1.53049e-50
1.83398e-52
1.90483e-54
1.67067e-56
1.18949e-58
6.44399e-61
2.34985e-63
4.15913e-66
1.98089e-12
9.6166e-13
3.44911e-13
9.67673e-14
2.32561e-14
4.73478e-15
8.1849e-16
1.21324e-16
1.55858e-17
1.75298e-18
1.74207e-19
1.54193e-20
1.22392e-21
8.76291e-23
5.68719e-24
3.35984e-25
1.81324e-26
8.96635e-28
4.07284e-29
1.70298e-30
6.5657e-32
2.33707e-33
7.68703e-35
2.33742e-36
6.57049e-38
1.70648e-39
4.09023e-41
9.0307e-43
1.83159e-44
3.39937e-46
5.74334e-48
8.7713e-50
1.1994e-51
1.44953e-53
1.52052e-55
1.34882e-57
9.72675e-60
5.34432e-62
1.97852e-64
3.54988e-67
2.10347e-13
9.06971e-14
3.07114e-14
8.57367e-15
2.01464e-15
4.00839e-16
6.78203e-17
9.85941e-18
1.24488e-18
1.37873e-19
1.35131e-20
1.18119e-21
9.26945e-23
6.56786e-24
4.22208e-25
2.47258e-26
1.32379e-27
6.49879e-29
2.9328e-30
1.21921e-31
4.67685e-33
1.65759e-34
5.43298e-36
1.64758e-37
4.62286e-39
1.19953e-40
2.8752e-42
6.35465e-44
1.29156e-45
2.40488e-47
4.08125e-49
6.26871e-51
8.63269e-53
1.05217e-54
1.11471e-56
1.00017e-58
7.3062e-61
4.07207e-63
1.53066e-65
2.78295e-68
1.87737e-14
7.97808e-15
2.65845e-15
7.22168e-16
1.63375e-16
3.15836e-17
5.22894e-18
7.45658e-19
9.25147e-20
1.00859e-20
9.74524e-22
8.40842e-23
6.52062e-24
4.57006e-25
2.90851e-26
1.6877e-27
8.95983e-29
4.36489e-30
1.95616e-31
8.08172e-33
3.08327e-34
1.08769e-35
3.55126e-37
1.07368e-38
3.00611e-40
7.79072e-42
1.86697e-43
4.1297e-45
8.40974e-47
1.57079e-48
2.67743e-50
4.136e-52
5.73632e-54
7.05167e-56
7.54652e-58
6.85036e-60
5.07041e-62
2.86737e-64
1.09458e-66
2.01593e-69
1.6056e-15
6.6482e-16
2.15843e-16
5.70572e-17
1.25093e-17
2.32905e-18
3.75543e-19
5.25214e-20
6.40457e-21
6.87191e-22
6.54419e-23
5.57203e-24
4.26869e-25
2.95837e-26
1.8634e-27
1.07101e-28
5.63638e-30
2.72398e-31
1.21197e-32
4.9748e-34
1.88713e-35
6.62455e-37
2.15405e-38
6.4915e-40
1.81329e-41
4.69301e-43
1.12426e-44
2.48872e-46
5.07775e-48
9.5142e-50
1.62893e-51
2.53103e-53
3.536e-55
4.38526e-57
4.74196e-59
4.35639e-61
3.26841e-63
1.87613e-65
7.27544e-68
1.3569e-70
1.28171e-16
5.17025e-17
1.63788e-17
4.22213e-18
9.01538e-19
1.62626e-19
2.52831e-20
3.4493e-21
4.13327e-22
4.36614e-23
4.09785e-24
3.44273e-25
2.60513e-26
1.78502e-27
1.11258e-28
6.33295e-30
3.30325e-31
1.58345e-32
6.99329e-34
2.85159e-35
1.07542e-36
3.75617e-38
1.21626e-39
3.65327e-41
1.01808e-42
2.6313e-44
6.30163e-46
1.39611e-47
2.85424e-49
5.36566e-51
9.22941e-53
1.44281e-54
2.03107e-56
2.54208e-58
2.7787e-60
2.58472e-62
1.9666e-64
1.14641e-66
4.51785e-69
8.52992e-72
9.52209e-18
3.74952e-18
1.16167e-18
2.92735e-19
6.10289e-20
1.07291e-20
1.6174e-21
2.12791e-22
2.49067e-23
2.58894e-24
2.39573e-25
1.98617e-26
1.48456e-27
1.00569e-28
6.20269e-30
3.49647e-31
1.8075e-32
8.59386e-34
3.76742e-35
1.52603e-36
5.72156e-38
1.9884e-39
6.41181e-41
1.91968e-42
5.33748e-44
1.37779e-45
3.29911e-47
7.31644e-49
1.49916e-50
2.82834e-52
4.88925e-54
7.69277e-56
1.09164e-57
1.37954e-59
1.52512e-61
1.43722e-63
1.10961e-65
6.5725e-68
2.63331e-70
5.03122e-73
6.5826e-19
2.53561e-19
7.70034e-20
1.90159e-20
3.88083e-21
6.66877e-22
9.80653e-23
1.25304e-23
1.4141e-24
1.43683e-25
1.3089e-26
1.07128e-27
7.91149e-29
5.29964e-30
3.23474e-31
1.80597e-32
9.25374e-34
4.36431e-35
1.8993e-36
7.6432e-38
2.84929e-39
9.85377e-41
3.16476e-42
9.44611e-44
2.62095e-45
6.75866e-47
1.61852e-48
3.59408e-50
7.38346e-52
1.39849e-53
2.43062e-55
3.85097e-57
5.51161e-59
7.03678e-61
7.87278e-63
7.52095e-65
5.89585e-67
3.55056e-69
1.44682e-71
2.79547e-74
4.23314e-20
1.59857e-20
4.76957e-21
1.15713e-21
2.31787e-22
3.90379e-23
5.6174e-24
7.01052e-25
7.69859e-26
7.54837e-27
6.71653e-28
5.40864e-29
3.94799e-30
2.61626e-31
1.58076e-32
8.74311e-34
4.44148e-35
2.07831e-36
8.98058e-38
3.59124e-39
1.33143e-40
4.58315e-42
1.46647e-43
4.36489e-45
1.20895e-46
3.11536e-48
7.46395e-50
1.66027e-51
3.4211e-53
6.50865e-55
1.13795e-56
1.8165e-58
2.62376e-60
3.38645e-62
3.83693e-64
3.71847e-66
2.96184e-68
1.81452e-70
7.52227e-73
1.46806e-75
2.53144e-21
9.3927e-22
2.75974e-22
6.59398e-23
1.29991e-23
2.1518e-24
3.03849e-25
3.71498e-26
3.99051e-27
3.81425e-28
3.28427e-29
2.57571e-30
1.84751e-31
1.21146e-32
7.25105e-34
3.97455e-35
2.00242e-36
9.2997e-38
3.99137e-39
1.58658e-40
5.85182e-42
2.00571e-43
6.39598e-45
1.89914e-46
5.25283e-48
1.35326e-49
3.2452e-51
7.23445e-53
1.49602e-54
2.86045e-56
5.0339e-58
8.10142e-60
1.18176e-61
1.54309e-63
1.77193e-65
1.74338e-67
1.412e-69
8.80533e-72
3.71446e-74
7.30999e-77
1.40716e-22
5.14173e-23
1.49124e-23
3.51794e-24
6.84331e-25
1.1165e-25
1.55155e-26
1.86386e-27
1.96383e-28
1.83891e-29
1.54648e-30
1.17869e-31
8.19351e-33
5.28564e-34
3.12629e-35
1.69944e-36
8.49635e-38
3.91803e-39
1.67097e-40
6.60535e-42
2.42476e-43
8.27884e-45
2.63228e-46
7.80076e-48
2.15569e-49
5.55497e-51
1.33408e-52
2.98227e-54
6.19277e-56
1.19079e-57
2.11076e-59
3.42729e-61
5.05273e-63
6.67996e-65
7.78026e-67
7.77787e-69
6.41037e-71
4.07181e-73
1.74823e-75
3.46282e-78
7.26814e-24
2.62147e-24
7.52284e-25
1.75664e-25
3.38082e-26
5.45155e-27
7.47691e-28
8.85061e-29
9.17403e-30
8.43743e-31
6.96159e-32
5.19349e-33
3.52556e-34
2.20501e-35
1.27757e-36
6.8488e-38
3.39817e-39
1.55729e-40
6.60322e-42
2.59715e-43
9.49385e-45
3.23068e-46
1.02474e-47
3.03258e-49
8.37769e-51
2.16065e-52
5.1998e-54
1.16637e-55
2.43373e-57
4.70955e-59
8.41472e-61
1.37956e-62
2.05719e-64
2.75593e-66
3.25855e-68
3.31268e-70
2.78058e-72
1.80024e-74
7.86921e-77
1.56586e-79
3.48707e-25
1.24444e-25
3.54213e-26
8.20776e-27
1.56705e-27
2.50428e-28
3.39943e-29
3.97657e-30
4.06671e-31
3.68424e-32
2.98997e-33
2.19161e-34
1.46002e-35
8.94066e-37
5.04897e-38
2.63363e-39
1.28965e-40
5.84924e-42
2.46762e-43
9.66516e-45
3.52037e-46
1.19469e-47
3.78268e-49
1.11857e-50
3.0911e-52
7.98402e-54
1.92674e-55
4.33969e-57
9.10566e-59
1.77462e-60
3.19862e-62
5.29919e-64
7.99957e-66
1.08688e-67
1.30572e-69
1.35105e-71
1.1559e-73
7.6333e-76
3.39814e-78
6.7794e-81
1.55361e-26
5.49928e-27
1.55639e-27
3.58796e-28
6.8136e-29
1.08212e-29
1.45793e-30
1.69013e-31
1.71017e-32
1.5305e-33
1.22517e-34
8.84659e-36
5.79959e-37
3.49258e-38
1.93622e-39
9.9038e-41
4.72853e-42
2.09984e-43
8.77186e-45
3.41051e-46
1.23874e-47
4.19616e-49
1.32714e-50
3.92411e-52
1.08551e-53
2.80997e-55
6.80485e-57
1.54017e-58
3.25217e-60
6.3885e-62
1.16255e-63
1.94791e-65
2.97937e-67
4.10903e-69
5.02004e-71
5.29143e-73
4.61816e-75
3.11285e-77
1.41168e-79
2.81713e-82
6.42684e-28
2.26204e-28
6.38144e-29
1.46733e-29
2.77899e-30
4.39817e-31
5.89766e-32
6.79456e-33
6.82147e-34
6.04745e-35
4.78831e-36
3.41529e-37
2.2092e-38
1.31141e-39
7.16287e-41
3.60782e-42
1.69379e-43
7.38629e-45
3.01798e-46
1.15415e-47
4.163e-49
1.40256e-50
4.43474e-52
1.31239e-53
3.63707e-55
9.44295e-57
2.29655e-58
5.22732e-60
1.1117e-61
2.20295e-63
4.05076e-65
6.87036e-67
1.06564e-68
1.49317e-70
1.85676e-72
1.99542e-74
1.77797e-76
1.22403e-78
5.65582e-81
1.12572e-83
2.46839e-29
8.66125e-30
2.44172e-30
5.61445e-31
1.06328e-31
1.68154e-32
2.25041e-33
2.5837e-34
2.5808e-35
2.27267e-36
1.78471e-37
1.26078e-38
8.06812e-40
4.73317e-41
2.55306e-42
1.26932e-43
5.88166e-45
2.53044e-46
1.01944e-47
3.83984e-49
1.36062e-50
4.51706e-52
1.4231e-53
4.20111e-55
1.16514e-56
3.03674e-58
7.4238e-60
1.70087e-61
3.64626e-63
7.29494e-65
1.35658e-66
2.33102e-68
3.6697e-70
5.22862e-72
6.62341e-74
7.26329e-76
6.61216e-78
4.65198e-80
2.19019e-82
4.332e-85
8.80327e-31
3.08773e-31
8.72095e-32
2.01048e-32
3.81752e-33
6.0491e-34
8.10177e-35
9.29488e-36
9.26249e-37
8.12385e-38
6.34402e-39
4.45034e-40
2.82462e-41
1.64176e-42
8.7668e-44
4.31264e-45
1.97648e-46
8.41041e-48
3.35215e-49
1.24914e-50
4.379e-52
1.43894e-53
4.47555e-55
1.3069e-56
3.60833e-58
9.41848e-60
2.30963e-61
5.31908e-63
1.15e-64
2.325e-66
4.3765e-68
7.62561e-70
1.21953e-71
1.7684e-73
2.28394e-75
2.55766e-77
2.3805e-79
1.71237e-81
8.21299e-84
1.60586e-86
2.91616e-32
1.02532e-32
2.90891e-33
6.74089e-34
1.28673e-34
2.0484e-35
2.75304e-36
3.16466e-37
3.15455e-38
2.76287e-39
2.15106e-40
1.50223e-41
9.48022e-43
5.47263e-44
2.89992e-45
1.41477e-46
6.42742e-48
2.71092e-49
1.07101e-50
3.95762e-52
1.37666e-53
4.49161e-55
1.38758e-56
4.02973e-58
1.10646e-59
2.87281e-61
7.02455e-63
1.61856e-64
3.52277e-66
7.18996e-68
1.36906e-69
2.41807e-71
3.92843e-73
5.79924e-75
7.64065e-77
8.74487e-79
8.33016e-81
6.13466e-83
3.0021e-85
5.80389e-88
8.97682e-34
3.17342e-34
9.0679e-35
2.11777e-35
4.07452e-36
6.53396e-37
8.83556e-38
1.02034e-38
1.02002e-39
8.94391e-41
6.95979e-42
4.85065e-43
3.05097e-44
1.75334e-45
9.24093e-47
4.48112e-48
2.0225e-49
8.47303e-51
3.32481e-52
1.22064e-53
4.22035e-55
1.36971e-56
4.21343e-58
1.21981e-59
3.34232e-61
8.6714e-63
2.12254e-64
4.9044e-66
1.07126e-67
2.19926e-69
4.22391e-71
7.54656e-73
1.24377e-74
1.86805e-76
2.51088e-78
2.93911e-80
2.86941e-82
2.16838e-84
1.0869e-86
2.09691e-89
2.5696e-35
9.16276e-36
2.64438e-36
6.24057e-37
1.21333e-37
1.96509e-38
2.68056e-39
3.11776e-40
3.13365e-41
2.75765e-42
2.14998e-43
1.49894e-44
9.41859e-46
5.40071e-47
2.83738e-48
1.37055e-49
6.15828e-51
2.5678e-52
1.00276e-53
3.66448e-55
1.26159e-56
4.0798e-58
1.2515e-59
3.61696e-61
9.90698e-63
2.57319e-64
6.31597e-66
1.46599e-67
3.22224e-69
6.67076e-71
1.29491e-72
2.34381e-74
3.9229e-76
5.99779e-78
8.22581e-80
9.84588e-82
9.84616e-84
7.62712e-86
3.90955e-88
7.49502e-91
6.84558e-37
2.47083e-37
7.22317e-38
1.7271e-38
3.40214e-39
5.57904e-40
7.69625e-41
9.03802e-42
9.1554e-43
8.10522e-44
6.34589e-45
4.43587e-46
2.79064e-47
1.6001e-48
8.39753e-50
4.04885e-51
1.8148e-52
7.54613e-54
2.93819e-55
1.07071e-56
3.67682e-58
1.18669e-59
3.63568e-61
1.05046e-62
2.87989e-64
7.49698e-66
1.84718e-67
4.31137e-69
9.54728e-71
1.99527e-72
3.91816e-74
7.19003e-76
1.22278e-77
1.90386e-79
2.6648e-81
3.26168e-83
3.34064e-85
2.65184e-87
1.38933e-89
2.64161e-92
1.69898e-38
6.23093e-39
1.85087e-39
4.49621e-40
8.99646e-41
1.49747e-41
2.09411e-42
2.48882e-43
2.5468e-44
2.27332e-45
1.79136e-46
1.25817e-47
7.9416e-49
4.56274e-50
2.39686e-51
1.15578e-52
5.17767e-54
2.15093e-55
8.36519e-57
3.04497e-58
1.0447e-59
3.37036e-61
1.03279e-62
2.98735e-64
8.20784e-66
2.144e-67
5.30839e-69
1.24706e-70
2.78439e-72
5.87821e-74
1.16839e-75
2.17471e-77
3.75932e-79
5.96227e-81
8.51826e-83
1.06623e-84
1.1184e-86
9.09673e-89
4.87035e-91
9.17547e-94
3.93263e-40
1.47164e-40
4.45676e-41
1.10308e-41
2.24768e-42
3.80661e-43
5.40876e-44
6.52021e-45
6.75469e-46
6.09219e-47
4.84164e-48
3.4238e-49
2.17262e-50
1.25321e-51
6.60212e-53
3.18989e-54
1.4308e-55
5.94873e-57
2.31473e-58
8.42996e-60
2.89407e-61
9.34651e-63
2.86865e-64
8.31742e-66
2.29296e-67
6.01664e-69
1.49844e-70
3.54625e-72
7.98957e-74
1.70499e-75
3.43217e-77
6.48251e-79
1.13944e-80
1.84123e-82
2.68541e-84
3.4375e-86
3.69245e-88
3.07682e-90
1.68297e-92
3.13857e-95
8.49983e-42
3.26045e-42
1.01034e-42
2.55553e-43
5.31652e-44
9.18242e-45
1.32856e-45
1.62789e-46
1.71077e-47
1.56216e-48
1.25454e-49
8.9493e-51
5.71986e-52
3.31853e-53
1.7564e-54
8.51794e-56
3.83196e-57
1.5971e-58
6.22763e-60
2.27262e-61
7.81838e-63
2.5311e-64
7.79095e-66
2.26706e-67
6.27802e-69
1.65647e-70
4.15352e-72
9.91081e-74
2.25471e-75
4.86678e-77
9.9269e-79
1.90337e-80
3.40281e-82
5.60346e-84
8.3438e-86
1.09226e-87
1.20137e-89
1.02537e-91
5.72839e-94
1.05654e-96
1.7175e-43
6.78698e-44
2.16056e-44
5.60256e-45
1.19315e-45
2.10641e-46
3.1098e-47
3.8806e-48
4.14483e-49
3.83885e-50
3.12096e-51
2.24983e-52
1.45085e-53
8.48098e-55
4.51722e-56
2.20246e-57
9.95333e-59
4.16498e-60
1.62991e-61
5.96847e-63
2.06039e-64
6.69499e-66
2.06923e-67
6.04968e-69
1.68459e-70
4.47376e-72
1.13038e-73
2.72149e-75
6.25607e-77
1.36662e-78
2.82583e-80
5.50234e-82
1.00079e-83
1.67969e-85
2.55369e-87
3.41857e-89
3.84966e-91
3.36467e-93
1.91928e-95
3.49819e-98
3.24834e-45
1.32945e-45
4.36648e-46
1.16479e-46
2.54627e-47
4.60518e-48
6.95123e-49
8.85003e-50
9.62384e-51
9.05606e-52
7.46575e-53
5.44759e-54
3.55021e-55
2.09425e-56
1.12429e-57
5.51948e-59
2.50943e-60
1.05579e-61
4.15228e-63
1.52776e-64
5.29891e-66
1.73027e-67
5.37571e-69
1.58074e-70
4.43038e-72
1.18527e-73
3.02014e-75
7.34182e-77
1.70637e-78
3.77427e-80
7.91468e-82
1.56554e-83
2.89755e-85
4.95726e-87
7.69526e-89
1.05338e-90
1.21429e-92
1.08656e-94
6.32631e-97
1.13866e-99
5.75755e-47
2.45415e-47
8.35479e-48
2.30113e-48
5.17825e-49
9.61633e-50
1.48691e-50
1.93478e-51
2.14552e-52
2.05446e-53
1.72007e-54
1.27233e-55
8.39211e-57
5.00304e-58
2.71099e-59
1.34198e-60
6.14658e-62
2.60355e-63
1.03037e-64
3.81386e-66
1.33059e-67
4.37095e-69
1.3665e-70
4.04535e-72
1.14219e-73
3.08077e-75
7.9221e-77
1.94573e-78
4.57466e-80
1.02501e-81
2.18067e-83
4.38292e-85
8.25623e-87
1.43996e-88
2.28231e-90
3.19436e-92
3.76875e-94
3.45167e-96
2.05055e-98
3.64222e-101
9.57612e-49
4.27509e-49
1.51592e-49
4.32772e-50
1.00552e-50
1.92182e-51
3.04982e-52
4.06263e-53
4.60117e-54
4.48993e-55
3.82309e-56
2.87078e-57
1.91905e-58
1.15777e-59
6.34074e-61
3.16894e-62
1.46408e-63
6.25114e-65
2.49238e-66
9.29132e-68
3.26419e-69
1.07982e-70
3.40025e-72
1.01428e-73
2.88729e-75
7.85733e-77
2.04038e-78
5.06599e-80
1.20548e-81
2.73723e-83
5.90971e-85
1.2072e-86
2.31477e-88
4.11584e-90
6.66048e-92
9.53034e-94
1.15057e-95
1.07824e-97
6.53346e-100
1.14457e-102
1.49661e-50
7.03658e-51
2.612e-51
7.76068e-52
1.86759e-52
3.68256e-53
6.00951e-54
8.20857e-55
9.50881e-56
9.46894e-57
8.21068e-58
6.26695e-59
4.25117e-60
2.59872e-61
1.44023e-62
7.27586e-64
3.39469e-65
1.46268e-66
5.88169e-68
2.21059e-69
7.82803e-71
2.6102e-72
8.28587e-74
2.49251e-75
7.1588e-77
1.96687e-78
5.16083e-80
1.296e-81
3.12252e-83
7.18771e-85
1.57526e-86
3.27104e-88
6.38506e-90
1.15745e-91
1.91225e-93
2.79689e-95
3.45436e-97
3.3114e-99
2.04577e-101
3.53299e-104
2.20145e-52
1.09573e-52
4.27953e-53
1.32883e-53
3.32286e-54
6.77666e-55
1.13944e-55
1.59857e-56
1.89678e-57
1.93007e-58
1.70648e-59
1.32557e-60
9.13555e-62
5.66506e-63
3.18073e-64
1.62605e-65
7.66978e-67
3.33836e-68
1.35525e-69
5.14023e-71
1.8364e-72
6.1774e-74
1.97842e-75
6.00604e-77
1.74161e-78
4.83391e-80
1.28227e-81
3.25833e-83
7.95173e-85
1.85613e-86
4.13023e-88
8.71942e-90
1.73278e-91
3.20228e-93
5.40076e-95
8.07309e-97
1.0198e-98
9.99666e-101
6.29427e-103
1.07109e-105
3.05472e-54
1.61651e-54
6.67582e-55
2.17531e-55
5.67087e-56
1.19923e-56
2.08185e-57
3.0049e-58
3.65738e-59
3.80782e-60
3.43708e-61
2.72031e-62
1.90687e-63
1.20084e-64
6.83777e-66
3.54098e-67
1.6902e-68
7.43885e-70
3.05159e-71
1.16903e-72
4.21708e-74
1.43221e-75
4.63112e-77
1.41976e-78
4.15913e-80
1.1668e-81
3.13055e-83
8.05265e-85
1.99121e-86
4.71451e-88
1.06533e-89
2.28677e-91
4.62667e-93
8.7165e-95
1.50051e-96
2.29188e-98
2.96027e-100
2.96636e-102
1.90275e-104
3.18933e-107
4.0131e-56
2.26311e-56
9.92906e-57
3.40872e-57
9.29404e-58
2.04323e-58
3.66974e-59
5.45882e-60
6.82546e-61
7.28044e-62
6.71705e-63
5.42288e-64
3.87052e-65
2.47784e-66
1.43234e-67
7.521e-69
3.63629e-70
1.61969e-71
6.71981e-73
2.60225e-74
9.48572e-76
3.25488e-77
1.06333e-78
3.29401e-80
9.75388e-82
2.76714e-83
7.5125e-85
1.95687e-86
4.9043e-88
1.17805e-89
2.70369e-91
5.90137e-93
1.2156e-94
2.33448e-96
4.10134e-98
6.39965e-100
8.44967e-102
8.65231e-104
5.65168e-106
9.32833e-109
4.92082e-58
3.0132e-58
1.41032e-58
5.11989e-59
1.46445e-59
3.35527e-60
6.2474e-61
9.59374e-62
1.23411e-62
1.35042e-63
1.27502e-64
1.05117e-65
7.64726e-67
4.98179e-68
2.92628e-69
1.55941e-70
7.64351e-72
3.44857e-73
1.44815e-74
5.67318e-76
2.0912e-77
7.25468e-79
2.39595e-80
7.50425e-82
2.24722e-83
6.44998e-85
1.7726e-86
4.67723e-88
1.18837e-89
2.89663e-91
6.75279e-93
1.49885e-94
3.14323e-96
6.1527e-98
1.10299e-99
1.75785e-101
2.37183e-103
2.48098e-105
1.6496e-107
2.68047e-110
5.65965e-60
3.82577e-60
1.91694e-60
7.38238e-61
2.2212e-61
5.31583e-62
1.0281e-62
1.63258e-63
2.16375e-64
2.43205e-65
2.35267e-66
1.98289e-67
1.47186e-68
9.76656e-70
5.83487e-71
3.15845e-72
1.5708e-73
7.18428e-75
3.05591e-76
1.21195e-77
4.52057e-79
1.58653e-80
5.30014e-82
1.67927e-83
5.0881e-85
1.47812e-86
4.11357e-88
1.09984e-89
2.83367e-91
7.00996e-93
1.66016e-94
3.7473e-96
8.00025e-98
1.59602e-99
2.91904e-101
4.75037e-103
6.54818e-105
6.99451e-107
4.73209e-109
7.56868e-112
6.18856e-62
4.64788e-62
2.49949e-62
1.02374e-62
3.24732e-63
8.13378e-64
1.63685e-64
2.69193e-65
3.68099e-66
4.25529e-67
4.2224e-68
3.64203e-69
2.76112e-70
1.86797e-71
1.13607e-72
6.25199e-74
3.15741e-75
1.46503e-76
6.31688e-78
2.53792e-79
9.58534e-81
3.40533e-82
1.15138e-83
3.69215e-85
1.13242e-86
3.33105e-88
9.39076e-90
2.54491e-91
6.65035e-93
1.66997e-94
4.01819e-96
9.22374e-98
2.00467e-99
4.07542e-101
7.60316e-103
1.26315e-104
1.77832e-106
1.93909e-108
1.33436e-110
2.10053e-113
6.4876e-64
5.4266e-64
3.13575e-64
1.36824e-64
4.5829e-65
1.20324e-65
2.52317e-66
4.30338e-67
6.07896e-68
7.23617e-69
7.37331e-70
6.5155e-71
5.05e-72
3.48648e-73
2.16051e-74
1.20977e-75
6.20907e-77
2.92497e-78
1.27934e-79
5.21056e-81
1.99393e-82
7.17486e-84
2.45658e-85
7.97694e-87
2.47775e-88
7.38284e-90
2.10913e-91
5.79512e-93
1.53635e-94
3.91675e-96
9.57586e-98
2.2355e-99
4.94586e-101
1.02451e-102
1.94929e-104
3.30523e-106
4.75105e-108
5.28666e-110
3.69903e-112
5.73082e-115
6.5607e-66
6.12321e-66
3.7982e-66
1.7667e-66
6.25376e-67
1.72275e-67
3.76839e-68
6.67279e-69
9.7483e-70
1.19617e-70
1.25293e-71
1.1354e-72
9.00554e-74
6.35063e-75
4.01327e-76
2.28842e-77
1.19458e-78
5.71763e-80
2.53862e-81
1.04884e-82
4.06917e-84
1.48394e-85
5.14788e-87
1.69354e-88
5.32972e-90
1.60931e-91
4.66054e-93
1.29871e-94
3.4938e-96
9.04453e-98
2.24707e-99
5.33522e-101
1.20153e-102
2.53572e-104
4.91937e-106
8.5109e-108
1.24867e-109
1.41739e-111
1.00805e-113
1.53703e-116
6.54773e-68
6.64841e-68
4.45371e-68
2.20898e-68
8.26548e-69
2.3898e-69
5.45642e-70
1.00392e-70
1.51816e-71
1.92214e-72
2.07166e-73
1.92705e-74
1.56561e-75
1.12874e-76
7.28054e-78
4.23114e-79
2.24822e-80
1.09414e-81
4.93494e-83
2.06968e-84
8.14597e-86
3.01242e-87
1.05941e-88
3.53275e-90
1.12697e-91
3.44985e-93
1.01315e-94
2.86421e-96
7.82107e-98
2.05633e-99
5.19232e-101
1.25389e-102
2.87436e-104
6.17937e-106
1.22207e-107
2.15651e-109
3.22786e-111
3.73597e-113
2.69985e-115
4.05101e-118
5.31301e-70
5.7431e-70
4.12862e-70
2.15602e-70
8.9995e-71
2.86373e-71
7.00844e-72
1.36466e-72
2.16684e-73
2.86282e-74
3.20404e-75
3.08246e-76
2.5808e-77
1.91221e-78
1.26461e-79
7.51834e-81
4.08016e-82
2.02482e-83
9.30158e-85
3.96881e-86
1.58801e-87
5.96558e-89
2.13046e-90
7.21183e-92
2.33518e-93
7.25623e-95
2.16354e-96
6.21164e-98
1.72339e-99
4.60457e-101
1.18189e-102
2.90327e-104
6.77447e-106
1.48343e-107
2.98982e-109
5.37862e-111
8.20705e-113
9.67537e-115
7.0977e-117
1.04803e-119
1.18675e-70
2.53183e-70
1.31541e-70
5.07629e-71
1.51402e-71
3.55504e-72
6.73356e-73
1.05998e-73
1.38601e-74
1.53442e-75
1.46005e-76
1.20941e-77
8.87577e-79
5.81559e-80
3.42796e-81
1.84657e-82
9.09821e-84
4.15483e-85
1.76249e-86
7.01914e-88
2.62466e-89
9.33853e-91
3.15106e-92
1.017e-93
3.15246e-95
9.37983e-97
2.6873e-98
7.44343e-100
1.98765e-101
5.28308e-103
1.38387e-104
3.47061e-106
8.27165e-108
1.85086e-109
3.81328e-111
7.01384e-113
1.09407e-114
1.31759e-116
9.85066e-119
1.45488e-121
)
;

boundaryField
{
    leftWall
    {
        type            zeroGradient;
    }
    rightWall
    {
        type            zeroGradient;
    }
    lowerWall
    {
        type            zeroGradient;
    }
    atmosphere
    {
        type            inletOutlet;
        inletValue      uniform 0;
        value           nonuniform List<scalar> 
45
(
7.22749e-75
1.46979e-73
1.61406e-72
1.03319e-71
4.20256e-71
1.18675e-70
2.53183e-70
1.31541e-70
5.07629e-71
1.51402e-71
3.55504e-72
6.73356e-73
1.05998e-73
1.38601e-74
1.53442e-75
1.46005e-76
1.20941e-77
8.87577e-79
5.81559e-80
3.42796e-81
1.84657e-82
9.09821e-84
4.15483e-85
1.76249e-86
7.01914e-88
2.62466e-89
9.33853e-91
3.15106e-92
1.017e-93
3.15246e-95
9.37983e-97
2.6873e-98
7.44343e-100
1.98765e-101
5.28308e-103
1.38387e-104
3.47061e-106
8.27165e-108
1.85086e-109
3.81328e-111
7.01384e-113
1.09407e-114
1.31759e-116
9.85066e-119
1.45488e-121
)
;
    }
    defaultFaces
    {
        type            empty;
    }
    procBoundary3to1
    {
        type            processor;
        value           nonuniform List<scalar> 
45
(
7.90478e-10
2.58894e-09
7.83404e-09
1.93301e-08
2.75613e-08
2.16971e-08
1.12966e-08
4.51886e-09
1.46005e-09
4.20683e-10
1.15114e-10
3.47059e-11
9.59698e-12
1.59859e-12
1.85199e-13
1.93394e-14
1.79602e-15
1.48843e-16
1.10774e-17
7.44398e-19
4.5371e-20
2.51753e-21
1.27564e-22
5.91747e-24
2.51817e-25
9.84627e-27
3.54164e-28
1.17277e-29
3.57623e-31
1.00408e-32
2.59381e-34
6.1567e-36
1.33998e-37
2.66621e-39
4.83023e-41
7.92385e-43
1.16848e-44
1.53383e-46
1.76865e-48
1.75897e-50
1.46974e-52
9.9185e-55
5.06847e-57
1.73698e-59
2.90115e-62
)
;
    }
    procBoundary3to2
    {
        type            processor;
        value           nonuniform List<scalar> 
43
(
2.29402e-11
1.12508e-11
2.87308e-12
4.79813e-13
7.27336e-14
1.03451e-14
1.35226e-15
1.61495e-16
1.75774e-17
1.74031e-18
1.56506e-19
1.27699e-20
9.44532e-22
6.32855e-23
3.83856e-24
2.10638e-25
1.04507e-26
4.68511e-28
1.89665e-29
6.92896e-31
2.28282e-32
6.77791e-34
1.8123e-35
4.36071e-37
9.435e-39
1.8341e-40
3.20059e-42
5.00901e-44
7.0235e-46
8.81391e-48
9.88797e-50
9.90579e-52
8.85142e-54
7.04688e-56
4.99327e-58
3.14651e-60
1.75356e-62
8.6553e-65
3.80793e-67
1.55048e-69
6.55547e-72
2.75818e-74
1.68226e-76
)
;
    }
}


// ************************************************************************* //
