/*--------------------------------*- C++ -*----------------------------------*\
| =========                 |                                                 |
| \\      /  F ield         | OpenFOAM: The Open Source CFD Toolbox           |
|  \\    /   O peration     | Version:  5.0                                   |
|   \\  /    A nd           | Web:      www.OpenFOAM.org                      |
|    \\/     M anipulation  |                                                 |
\*---------------------------------------------------------------------------*/
FoamFile
{
    version     2.0;
    format      ascii;
    class       surfaceScalarField;
    location    "0.25";
    object      alphaPhi10;
}
// * * * * * * * * * * * * * * * * * * * * * * * * * * * * * * * * * * * * * //

dimensions      [0 3 -1 0 0 0 0];

internalField   nonuniform List<scalar> 
3782
(
8.23256e-15
-1.70979e-14
2.32807e-15
-3.59472e-15
3.89493e-16
-8.62241e-16
5.31371e-17
-1.37762e-16
6.90074e-18
-2.03949e-17
8.28948e-19
-2.82505e-18
9.14624e-20
-3.61194e-19
9.25376e-21
-4.24002e-20
8.57229e-22
-4.55797e-21
7.26065e-23
-4.48109e-22
5.61624e-24
-4.02269e-23
3.96333e-25
-3.29312e-24
2.54917e-26
-2.45651e-25
1.49304e-27
-1.66857e-26
7.95595e-29
-1.03129e-27
3.85377e-30
-5.79692e-29
1.69543e-31
-2.96148e-30
6.76879e-33
-1.37401e-31
2.45044e-34
-5.7852e-33
8.03808e-36
-2.20878e-34
2.38747e-37
-7.64097e-36
6.41709e-39
-2.39317e-37
1.56007e-40
-6.78139e-39
3.42926e-42
-1.73741e-40
6.81402e-44
-4.02215e-42
1.22384e-45
-8.4089e-44
1.98713e-47
-1.58691e-45
2.91787e-49
-2.7022e-47
3.87726e-51
-4.1507e-49
4.66685e-53
-5.75174e-51
5.09521e-55
-7.19293e-53
5.05548e-57
-8.11475e-55
4.56995e-59
-8.26322e-57
3.7763e-61
-7.6026e-59
2.86534e-63
-6.3302e-61
2.00846e-65
-4.78205e-63
1.31125e-67
-3.29065e-65
8.063e-70
-2.07511e-67
4.74144e-72
-1.21052e-69
2.72065e-74
-6.62962e-72
1.56171e-76
-3.48893e-74
1.70085e-78
-1.82905e-76
-1.08449e-78
-5.67878e-14
9.0568e-15
-1.70772e-13
2.3353e-14
-2.45896e-13
6.57426e-14
1.12896e-13
-1.29118e-13
-9.19117e-15
4.88863e-15
-2.54456e-14
5.83508e-15
-3.34351e-14
1.21934e-14
1.88335e-14
-1.88241e-14
-1.80242e-15
1.2066e-15
-3.66878e-15
2.17771e-15
-4.7084e-15
3.05633e-15
3.13525e-15
-2.86274e-15
-3.4844e-16
1.58837e-16
-6.21959e-16
3.92025e-16
-6.86695e-16
6.04113e-16
6.42937e-16
-4.45001e-16
-4.98602e-17
1.91988e-17
-9.29229e-17
4.31093e-17
-9.77878e-17
7.16191e-17
8.04591e-17
-6.55609e-17
-6.61327e-18
2.18647e-18
-1.1712e-17
4.57708e-18
-1.18376e-17
6.98725e-18
7.45106e-18
-8.08897e-18
-8.09796e-19
2.29521e-19
-1.35159e-18
4.54639e-19
-1.30993e-18
6.54852e-19
6.7019e-19
-9.02179e-19
-9.10187e-20
2.21198e-20
-1.43967e-19
4.1658e-20
-1.33876e-19
5.71687e-20
5.63924e-20
-9.22702e-20
-9.37362e-21
1.95632e-21
-1.41886e-20
3.515e-21
-1.25996e-20
4.62808e-21
4.40795e-21
-8.66986e-21
-8.81454e-22
1.58713e-22
-1.26964e-21
2.72936e-22
-1.11296e-21
3.47552e-22
3.19825e-22
-7.49486e-22
-7.57632e-23
1.18043e-23
-1.03728e-22
1.95197e-23
-9.10267e-23
2.41536e-23
2.15506e-23
-5.96945e-23
-5.96143e-24
8.04369e-25
-7.80541e-24
1.28563e-24
-6.83299e-24
1.55157e-24
1.34797e-24
-4.38496e-24
-4.29328e-25
5.01847e-26
-5.4074e-25
7.79184e-26
-4.71396e-25
9.20875e-26
7.8199e-26
-2.97253e-25
-2.82914e-26
2.8647e-27
-3.4473e-26
4.3428e-27
-2.99091e-26
5.04572e-27
4.2046e-27
-1.86024e-26
-1.70534e-27
1.4951e-28
-2.02138e-27
2.22433e-28
-1.7458e-27
2.55033e-28
2.09384e-28
-1.07487e-27
-9.39125e-29
7.12958e-30
-1.09008e-28
1.04609e-29
-9.37538e-29
1.18826e-29
9.65065e-30
-5.73423e-29
-4.71808e-30
3.10412e-31
-5.40598e-30
4.51419e-31
-4.6315e-30
5.09966e-31
4.11415e-31
-2.82397e-30
-2.16487e-31
1.23305e-32
-2.46058e-31
1.78622e-32
-2.10412e-31
2.01465e-32
1.62126e-32
-1.28351e-31
-9.06485e-33
4.46579e-34
-1.02742e-32
6.47659e-34
-8.7877e-33
7.32201e-34
5.9026e-34
-5.38218e-33
-3.46102e-34
1.47373e-35
-3.93364e-34
2.15068e-35
-3.37252e-34
2.44687e-35
1.98453e-35
-2.08151e-34
-1.20404e-35
4.42889e-37
-1.3803e-35
6.53763e-37
-1.18881e-35
7.51554e-37
6.15958e-37
-7.4217e-36
-3.81404e-37
1.21154e-38
-4.43704e-37
1.81855e-38
-3.84732e-37
2.12106e-38
1.76454e-38
-2.43888e-37
-1.09946e-38
3.01579e-40
-1.3061e-38
4.62794e-40
-1.14263e-38
5.49958e-40
4.66525e-40
-7.38439e-39
-2.88272e-40
6.82978e-42
-3.51957e-40
1.07739e-41
-3.11302e-40
1.31008e-41
1.13848e-41
-2.05962e-40
-6.87202e-42
1.40714e-43
-8.68024e-42
2.29477e-43
-7.77716e-42
2.86773e-43
2.56517e-43
-5.29116e-42
-1.48906e-43
2.63791e-45
-1.95908e-43
4.4733e-45
-1.78092e-43
5.77068e-45
5.3392e-45
-1.25198e-43
-2.93208e-45
4.50136e-47
-4.04624e-45
7.98475e-47
-3.73625e-45
1.0682e-46
1.02741e-46
-2.72875e-45
-5.24613e-47
6.99613e-49
-7.64886e-47
1.30618e-48
-7.17508e-47
1.82055e-48
1.82978e-48
-5.47945e-47
-8.52911e-49
9.91306e-51
-1.32382e-48
1.95999e-50
-1.259e-48
2.86092e-50
3.02e-50
-1.01405e-48
-1.25804e-50
1.28218e-52
-2.07686e-50
2.69997e-52
-2.03288e-50
4.15605e-52
4.62504e-52
-1.73026e-50
-1.67767e-52
1.51631e-54
-2.90612e-52
3.42036e-54
-3.10949e-52
5.59561e-54
6.58405e-54
-2.72301e-52
-2.03387e-54
1.64285e-56
-3.73946e-54
3.99807e-56
-4.38781e-54
6.99139e-56
8.74081e-56
-3.95483e-54
-2.24352e-56
1.63547e-58
-4.42285e-56
4.32399e-58
-5.72003e-56
8.13468e-58
1.08534e-57
-5.30235e-56
-2.25426e-58
1.50139e-60
-4.80674e-58
4.34315e-60
-6.9071e-58
8.8479e-60
1.26514e-59
-6.55855e-58
-2.06698e-60
1.27697e-62
-4.81296e-60
4.07068e-62
-7.73777e-60
9.03332e-62
1.39141e-61
-7.45551e-60
-1.73549e-62
1.01232e-64
-4.43262e-62
3.58102e-64
-7.72251e-62
8.69713e-64
1.45351e-63
-8.23125e-62
-1.33895e-64
7.53847e-67
-3.77923e-64
2.9781e-66
-7.15867e-64
7.95746e-66
1.44924e-65
-8.66657e-64
-9.54727e-67
5.32641e-69
-3.00302e-66
2.36256e-68
-6.24893e-66
6.97493e-68
1.38857e-67
-8.62278e-66
-6.34842e-69
3.61724e-71
-2.24291e-68
1.80763e-70
-5.16889e-68
5.91148e-70
1.28881e-69
-8.1656e-68
-3.99109e-71
2.39925e-73
-1.59461e-70
1.35122e-72
-4.09537e-70
4.89527e-72
1.16842e-71
-7.43972e-70
-2.42238e-73
1.58312e-75
-1.09992e-72
1.00031e-74
-3.1548e-72
3.99987e-74
1.04106e-73
-6.32704e-72
-1.4636e-75
3.30045e-77
-7.54986e-75
3.82779e-76
-2.41409e-74
2.65698e-75
1.15841e-74
-5.24538e-74
-1.06806e-77
-6.8092e-77
-2.70566e-76
-7.13308e-76
-1.26132e-15
1.06288e-13
3.0703e-14
5.69579e-14
1.90124e-14
2.23495e-14
7.13354e-15
6.33737e-15
1.9774e-15
3.09498e-15
5.53459e-16
1.00477e-15
1.17038e-16
2.13469e-16
1.72685e-17
3.06438e-17
2.22412e-18
3.9338e-18
2.48129e-19
4.43176e-19
2.42032e-20
4.40499e-20
2.0856e-21
3.89789e-21
1.60102e-22
3.09474e-22
1.10231e-23
2.21886e-23
6.84441e-25
1.44433e-24
3.84985e-26
8.57352e-26
1.96885e-27
4.65807e-27
9.18187e-29
2.32343e-28
3.91398e-30
1.06664e-29
1.52776e-31
4.51596e-31
5.46764e-33
1.76607e-32
1.79547e-34
6.3869e-34
5.41106e-36
2.1375e-35
1.4961e-37
6.62173e-37
3.79118e-39
1.89838e-38
8.78967e-41
5.03278e-40
1.85961e-42
1.23205e-41
3.57713e-44
2.77916e-43
6.22511e-46
5.75884e-45
9.73571e-48
1.09165e-46
1.35626e-49
1.88249e-48
1.66304e-51
2.93126e-50
1.76616e-53
4.08079e-52
1.58838e-55
5.01163e-54
1.17107e-57
5.32987e-56
6.73696e-60
4.78047e-58
2.78662e-62
3.475e-60
7.09349e-65
1.91845e-62
7.51578e-68
7.11629e-65
1.28224e-67
-3.23282e-15
1.70287e-14
2.05763e-15
8.36439e-15
1.64648e-15
3.50147e-15
7.11478e-16
1.78345e-15
2.5279e-16
5.8851e-16
6.10083e-17
1.32859e-16
1.1002e-17
2.21648e-17
1.67215e-18
3.26023e-18
2.15994e-19
4.16213e-19
2.40516e-20
4.64523e-20
2.34044e-21
4.57828e-21
2.01184e-22
4.02064e-22
1.54072e-23
3.16999e-23
1.05841e-24
2.25797e-24
6.55844e-26
1.46067e-25
3.6824e-27
8.61919e-27
1.88043e-28
4.65638e-28
8.75954e-30
2.31009e-29
3.73117e-31
1.05513e-30
1.45595e-32
4.44603e-32
5.21137e-34
1.73116e-33
1.7124e-35
6.23621e-35
5.1667e-37
2.07996e-36
1.43097e-38
6.42512e-38
3.63444e-40
1.83791e-39
8.45055e-42
4.86489e-41
1.79413e-43
1.18998e-42
3.46552e-45
2.68417e-44
6.06008e-47
5.56652e-46
9.53032e-49
1.057e-47
1.33604e-50
1.82759e-49
1.64991e-52
2.85626e-51
1.76617e-54
3.99526e-53
1.60244e-56
4.9354e-55
1.19297e-58
5.28575e-57
6.93611e-61
4.77991e-59
2.90211e-63
3.5073e-61
7.47815e-66
1.95666e-63
8.01989e-69
7.34041e-66
1.33612e-68
-7.75394e-16
2.92199e-15
3.41802e-17
1.77155e-15
1.32302e-16
7.73516e-16
7.36953e-17
2.77813e-16
2.28804e-17
6.66661e-17
5.25823e-18
1.30582e-17
9.72695e-19
2.21621e-18
1.48469e-19
3.22698e-19
1.91607e-20
4.06784e-20
2.1294e-21
4.48884e-21
2.06701e-22
4.37997e-22
1.77196e-23
3.81171e-23
1.35318e-24
2.98023e-24
9.26989e-26
2.10629e-25
5.72874e-27
1.35257e-26
3.20858e-28
7.92594e-28
1.63482e-29
4.25377e-29
7.60085e-31
2.09727e-30
3.23256e-32
9.52358e-32
1.25991e-33
3.99131e-33
4.50635e-35
1.5464e-34
1.48035e-36
5.5457e-36
4.46766e-38
1.84236e-37
1.23835e-39
5.67205e-39
3.14951e-41
1.61808e-40
7.33762e-43
4.27433e-42
1.56197e-44
1.04419e-43
3.02714e-46
2.35423e-45
5.31501e-48
4.88429e-47
8.39905e-50
9.28697e-49
1.18411e-51
1.60951e-50
1.47183e-53
2.52397e-52
1.58726e-55
3.54639e-54
1.45221e-57
4.40581e-56
1.09129e-59
4.75118e-58
6.41099e-62
4.3316e-60
2.71296e-64
3.20834e-62
7.07621e-67
1.80889e-64
7.68156e-70
6.8642e-67
1.26224e-69
-1.51336e-16
5.22143e-16
-2.05103e-17
2.6747e-16
6.69047e-18
9.83926e-17
5.03152e-18
2.68764e-17
1.724e-18
6.2658e-18
4.15298e-19
1.23624e-18
7.80503e-20
2.06727e-19
1.19863e-20
2.96221e-20
1.54971e-21
3.6811e-21
1.72162e-22
4.01105e-22
1.66848e-23
3.86963e-23
1.42697e-24
3.33302e-24
1.08674e-25
2.58128e-25
7.42286e-27
1.80823e-26
4.57374e-28
1.15156e-27
2.55433e-29
6.69551e-29
1.29796e-30
3.56706e-30
6.01979e-32
1.74659e-31
2.55462e-33
7.8801e-33
9.93884e-35
3.28281e-34
3.54989e-36
1.26493e-35
1.16504e-37
4.51384e-37
3.51447e-39
1.49299e-38
9.74224e-41
4.57912e-40
2.47942e-42
1.30224e-41
5.78398e-44
3.43179e-43
1.23368e-45
8.37012e-45
2.39738e-47
1.88568e-46
4.22396e-49
3.91271e-48
6.7037e-51
7.44785e-50
9.50001e-53
1.29355e-51
1.18808e-54
2.03509e-53
1.29037e-56
2.87214e-55
1.19022e-58
3.58838e-57
9.02671e-61
3.89659e-59
5.35779e-63
3.58191e-61
2.29316e-65
2.67858e-63
6.05494e-68
1.52663e-65
6.65342e-71
5.86143e-68
1.08885e-70
-2.37232e-17
5.97011e-17
-4.86868e-18
2.65155e-17
-2.47473e-19
8.9745e-18
2.40964e-19
2.46378e-18
1.09617e-19
5.64913e-19
2.87768e-20
1.09287e-19
5.60055e-21
1.79306e-20
8.74192e-22
2.52568e-21
1.13882e-22
3.09108e-22
1.26896e-23
3.32239e-23
1.23032e-24
3.16584e-24
1.05106e-25
2.69615e-25
7.98836e-27
2.06635e-26
5.44245e-28
1.43351e-27
3.34399e-29
9.04663e-29
1.86209e-30
5.21533e-30
9.43476e-32
2.75636e-31
4.36377e-33
1.33957e-32
1.84721e-34
6.00176e-34
7.17075e-36
2.48422e-35
2.55647e-37
9.51573e-37
8.37816e-39
3.37754e-38
2.52497e-40
1.11187e-39
6.9964e-42
3.39629e-41
1.7809e-43
9.6259e-43
4.15786e-45
2.53002e-44
8.88181e-47
6.15947e-46
1.7299e-48
1.38633e-47
3.05733e-50
2.87655e-49
4.87141e-52
5.48102e-51
6.93728e-54
9.53938e-53
8.72703e-56
1.50567e-54
9.5445e-58
2.1345e-56
8.87486e-60
2.68221e-58
6.79302e-62
2.93338e-60
4.07403e-64
2.71951e-62
1.76386e-66
2.05387e-64
4.71538e-69
1.18374e-66
5.24432e-72
4.59999e-69
8.63137e-72
-3.05834e-18
5.4281e-18
-7.40629e-19
2.39412e-18
-1.05911e-19
8.03155e-19
-2.04583e-22
2.15878e-19
5.01474e-21
4.77561e-20
1.66687e-21
8.99799e-21
3.51636e-22
1.44762e-21
5.69272e-23
2.00333e-22
7.55247e-24
2.41295e-23
8.49341e-25
2.55631e-24
8.26981e-26
2.40402e-25
7.07433e-27
2.02277e-26
5.37435e-28
1.53304e-27
3.65592e-29
1.05254e-28
2.24138e-30
6.57826e-30
1.24492e-31
3.75805e-31
6.29065e-33
1.96937e-32
2.90168e-34
9.4954e-34
1.22512e-35
4.22301e-35
4.7446e-37
1.7361e-36
1.68803e-38
6.6088e-38
5.52279e-40
2.3326e-39
1.66238e-41
7.64069e-41
4.603e-43
2.3239e-42
1.17152e-44
6.56307e-44
2.73657e-46
1.72023e-45
5.85296e-48
4.17992e-47
1.14228e-49
9.39834e-49
2.0246e-51
1.95005e-50
3.23814e-53
3.71948e-52
4.63345e-55
6.48754e-54
5.86292e-57
1.02744e-55
6.45684e-59
1.46333e-57
6.05284e-61
1.84991e-59
4.6765e-63
2.03822e-61
2.83448e-65
1.90645e-63
1.24166e-67
1.45474e-65
3.36129e-70
8.48227e-68
3.78304e-73
3.33744e-70
6.32442e-73
-3.50362e-19
4.76039e-19
-9.18993e-20
2.05901e-19
-1.66536e-20
6.76168e-20
-1.77264e-21
1.7752e-20
3.97893e-23
3.82252e-21
6.96726e-23
6.9404e-22
1.83874e-23
1.08901e-22
3.23319e-24
1.48009e-23
4.46186e-25
1.75369e-24
5.12269e-26
1.83027e-25
5.04352e-27
1.69779e-26
4.33904e-28
1.41061e-27
3.30439e-29
1.05666e-28
2.24875e-30
7.17623e-30
1.3775e-31
4.43973e-31
7.63843e-33
2.51239e-32
3.85168e-34
1.30498e-33
1.77257e-35
6.24027e-35
7.46648e-37
2.75414e-36
2.88512e-38
1.12428e-37
1.0244e-39
4.25232e-39
3.34588e-41
1.4922e-40
1.00583e-42
4.86294e-42
2.78283e-44
1.47257e-43
7.08108e-46
4.14372e-45
1.65478e-47
1.08306e-46
3.5433e-49
2.62667e-48
6.92868e-51
5.90027e-50
1.23154e-52
1.22433e-51
1.9772e-54
2.338e-53
2.84285e-56
4.08757e-55
3.61859e-58
6.49702e-57
4.01358e-60
9.29945e-59
3.79398e-62
1.18314e-60
2.95961e-64
1.31384e-62
1.81348e-66
1.24046e-64
8.04019e-69
9.56855e-67
2.20457e-71
5.64744e-69
2.51051e-74
2.25087e-71
4.30699e-74
-3.62882e-20
3.90622e-20
-9.91679e-21
1.65576e-20
-1.98128e-21
5.32919e-21
-2.82142e-22
1.36899e-21
-2.39966e-23
2.87913e-22
5.63499e-25
5.08171e-23
6.82367e-25
7.68586e-24
1.51544e-25
1.01965e-24
2.28647e-26
1.18819e-25
2.74291e-27
1.2213e-26
2.76573e-28
1.11709e-27
2.41154e-29
9.16172e-29
1.8502e-30
6.78075e-30
1.26391e-31
4.55378e-31
7.75386e-33
2.788e-32
4.29982e-34
1.56238e-33
2.16629e-35
8.04183e-35
9.95526e-37
3.81312e-36
4.1863e-38
1.6698e-37
1.61478e-39
6.76753e-39
5.72391e-41
2.54298e-40
1.86684e-42
8.87157e-42
5.60585e-44
2.87632e-43
1.54996e-45
8.67173e-45
3.94355e-47
2.43145e-46
9.22052e-49
6.33791e-48
1.97682e-50
1.53433e-49
3.87354e-52
3.44383e-51
6.90548e-54
7.14804e-53
1.11305e-55
1.36696e-54
1.60842e-57
2.39627e-56
2.06001e-59
3.82397e-58
2.30185e-61
5.50294e-60
2.1949e-63
7.04936e-62
1.72941e-65
7.89406e-64
1.07172e-67
7.52758e-66
4.811e-70
5.87344e-68
1.33654e-72
3.51111e-70
1.53989e-75
1.4183e-72
2.73989e-75
-3.42475e-21
2.98728e-21
-9.56229e-22
1.24348e-21
-2.00318e-22
3.93137e-22
-3.17574e-23
9.90519e-23
-3.70305e-24
2.03862e-23
-2.68729e-25
3.51361e-24
2.69509e-27
5.16636e-25
4.84423e-27
6.60299e-26
9.51925e-28
7.51717e-27
1.2633e-28
7.60541e-28
1.33967e-29
6.85857e-29
1.20133e-30
5.55158e-30
9.36892e-32
4.05898e-31
6.46196e-33
2.6951e-32
3.98614e-34
1.63266e-33
2.21685e-35
9.05936e-35
1.11821e-36
4.62028e-36
5.13949e-38
2.17214e-37
2.16011e-39
9.43732e-39
8.32511e-41
3.79737e-40
2.94819e-42
1.41762e-41
9.60711e-44
4.91689e-43
2.88306e-45
1.58607e-44
7.96932e-47
4.76138e-46
2.0281e-48
1.33045e-47
4.74596e-50
3.4592e-49
1.01908e-51
8.36116e-51
2.0016e-53
1.87568e-52
3.58003e-55
3.89548e-54
5.79519e-57
7.46289e-56
8.41959e-59
1.31227e-57
1.08546e-60
2.10347e-59
1.22243e-62
3.04495e-61
1.17635e-64
3.92973e-63
9.36652e-67
4.44046e-65
5.87331e-69
4.27949e-67
2.67079e-71
3.37991e-69
7.52013e-74
2.04785e-71
8.76528e-77
8.3885e-74
1.63561e-76
-2.96061e-22
2.12838e-22
-8.35737e-23
8.72001e-23
-1.79409e-23
2.71419e-23
-2.98901e-24
6.72285e-24
-3.88485e-25
1.35749e-24
-3.82653e-26
2.29005e-25
-2.49415e-27
3.28881e-26
-1.76069e-29
4.09035e-27
2.50954e-29
4.48486e-28
4.60664e-30
4.43443e-29
5.51181e-31
3.93494e-30
5.24773e-32
3.14353e-31
4.23302e-33
2.27049e-32
2.97918e-34
1.49053e-33
1.86072e-35
8.93421e-35
1.04278e-36
4.90875e-36
5.2844e-38
2.48059e-37
2.43532e-39
1.15634e-38
1.02502e-40
4.98486e-40
3.95308e-42
1.99156e-41
1.40027e-43
7.38727e-43
4.56347e-45
2.5477e-44
1.36974e-46
8.17811e-46
3.78787e-48
2.44507e-47
9.64787e-50
6.81028e-49
2.26085e-51
1.7667e-50
4.86469e-53
4.26491e-52
9.5822e-55
9.56597e-54
1.72032e-56
1.98868e-55
2.79811e-58
3.81845e-57
4.08929e-60
6.73847e-59
5.30948e-62
1.08555e-60
6.02982e-64
1.5817e-62
5.85924e-66
2.05789e-64
4.71731e-68
2.34807e-66
2.99476e-70
2.2888e-68
1.38016e-72
1.83115e-70
3.93974e-75
1.12529e-72
4.64384e-78
4.67664e-75
9.1986e-78
-2.35266e-23
1.41215e-23
-6.6758e-24
5.70789e-24
-1.45156e-24
1.75318e-24
-2.47961e-25
4.2793e-25
-3.38342e-26
8.4987e-26
-3.69292e-27
1.407e-26
-3.15179e-28
1.97865e-27
-1.90692e-29
2.40526e-28
-4.04595e-31
2.56921e-29
9.21914e-32
2.4515e-30
1.71982e-32
2.12136e-31
1.91014e-33
1.66585e-32
1.65919e-34
1.18877e-33
1.21745e-35
7.71696e-35
7.79912e-37
4.57739e-36
4.44165e-38
2.4906e-37
2.27449e-39
1.24729e-38
1.05543e-40
5.76599e-40
4.46257e-42
2.46674e-41
1.72631e-43
9.7871e-43
6.12814e-45
3.60787e-44
2.00045e-46
1.23753e-45
6.01314e-48
3.95409e-47
1.6654e-49
1.17772e-48
4.24942e-51
3.27095e-50
9.98013e-53
8.46933e-52
2.15352e-54
2.04282e-53
4.25707e-56
4.58326e-55
7.67691e-58
9.54243e-57
1.25548e-59
1.83736e-58
1.84688e-61
3.25598e-60
2.41666e-63
5.27501e-62
2.7695e-65
7.74158e-64
2.71927e-67
1.01617e-65
2.21512e-69
1.17171e-67
1.42455e-71
1.15611e-69
6.65621e-74
9.37698e-72
1.92626e-76
5.84866e-74
2.29326e-79
2.4671e-76
4.89001e-79
-1.72273e-24
8.72027e-25
-4.89913e-25
3.48595e-25
-1.07239e-25
1.05911e-25
-1.85595e-26
2.55379e-26
-2.59415e-27
5.00103e-27
-2.96294e-28
8.14651e-28
-2.77209e-29
1.12488e-28
-2.09367e-30
1.33987e-29
-1.19548e-31
1.40027e-30
-3.69118e-33
1.30285e-31
2.08468e-34
1.09187e-32
4.89361e-35
8.33125e-34
5.25706e-36
5.83481e-35
4.24649e-37
3.7465e-36
2.86918e-38
2.19976e-37
1.688e-39
1.18562e-38
8.82731e-41
5.88575e-40
4.15422e-42
2.69902e-41
1.77367e-43
1.1462e-42
6.90908e-45
4.51759e-44
2.46523e-46
1.65557e-45
8.07972e-48
5.64982e-47
2.43689e-49
1.79751e-48
6.77031e-51
5.33575e-50
1.73295e-52
1.4783e-51
4.08394e-54
3.82222e-53
8.84677e-56
9.21608e-55
1.7568e-57
2.0694e-56
3.18511e-59
4.31747e-58
5.24187e-61
8.34156e-60
7.76826e-63
1.48539e-61
1.02524e-64
2.42185e-63
1.18655e-66
3.58276e-65
1.1781e-68
4.74836e-67
9.71674e-71
5.53766e-69
6.3338e-73
5.53554e-71
3.00143e-75
4.55547e-73
8.80256e-78
2.88596e-75
1.05599e-80
1.23601e-77
2.46496e-80
-1.16431e-25
5.00878e-26
-3.31422e-26
1.98535e-26
-7.28083e-27
5.98154e-27
-1.26888e-27
1.42836e-27
-1.79577e-28
2.76512e-28
-2.09717e-29
4.44362e-29
-2.04342e-30
6.04083e-30
-1.66941e-31
7.07004e-31
-1.13405e-32
7.24603e-32
-6.13095e-34
6.60298e-33
-2.23089e-35
5.40449e-34
4.13865e-38
4.01103e-35
1.01181e-37
2.7156e-36
1.13691e-38
1.71401e-37
8.77839e-40
9.9336e-39
5.54516e-41
5.30543e-40
3.02684e-42
2.61176e-41
1.46462e-43
1.18849e-42
6.37311e-45
5.01208e-44
2.51628e-46
1.96314e-45
9.06852e-48
7.15504e-47
2.99529e-49
2.43034e-48
9.09134e-51
7.7027e-50
2.53977e-52
2.27982e-51
6.53444e-54
6.30412e-53
1.54784e-55
1.6285e-54
3.37106e-57
3.92748e-56
6.73365e-59
8.83147e-58
1.22885e-60
1.84756e-59
2.0374e-62
3.58425e-61
3.04487e-64
6.41823e-63
4.05709e-66
1.05397e-64
4.74621e-68
1.57297e-66
4.76926e-70
2.10673e-68
3.98571e-72
2.48718e-70
2.63489e-74
2.52108e-72
1.26662e-76
2.10692e-74
3.76263e-79
1.35672e-76
4.53551e-82
5.90163e-79
1.18211e-81
-7.27094e-27
2.67433e-27
-2.07138e-27
1.0539e-27
-4.56119e-28
3.15682e-28
-7.98101e-29
7.4846e-29
-1.13705e-29
1.43604e-29
-1.34313e-30
2.28266e-30
-1.33489e-31
3.06326e-31
-1.12943e-32
3.53224e-32
-8.18473e-34
3.56015e-33
-5.04769e-35
3.18484e-34
-2.57951e-36
2.55606e-35
-1.00153e-37
1.85634e-36
-1.9187e-39
1.22789e-37
1.26618e-40
7.51013e-39
1.85876e-41
4.25286e-40
1.44825e-42
2.23684e-41
8.74871e-44
1.09194e-42
4.49064e-45
4.93325e-44
2.02937e-46
2.06695e-45
8.22252e-48
8.04937e-47
3.01904e-49
2.91914e-48
1.01128e-50
9.87415e-50
3.10375e-52
3.1192e-51
8.75141e-54
9.21031e-53
2.27006e-55
2.54334e-54
5.4183e-57
6.56809e-56
1.18892e-58
1.58541e-57
2.39315e-60
3.57251e-59
4.40302e-62
7.49945e-61
7.36479e-64
1.46197e-62
1.11138e-65
2.63466e-64
1.49677e-67
4.36118e-66
1.77179e-69
6.57194e-68
1.80356e-71
8.90309e-70
1.52842e-73
1.06502e-71
1.02532e-75
1.09569e-73
5.00094e-78
9.30733e-76
1.50389e-80
6.09667e-78
1.81646e-83
2.69459e-80
5.4113e-83
-4.19837e-28
1.3265e-28
-1.19784e-28
5.21176e-29
-2.64354e-29
1.5562e-29
-4.63878e-30
3.67294e-30
-6.63495e-31
7.00276e-31
-7.88569e-32
1.10392e-31
-7.91708e-33
1.46628e-32
-6.81387e-34
1.67027e-33
-5.08431e-35
1.66003e-34
-3.30212e-36
1.46184e-35
-1.86078e-37
1.15323e-36
-8.95163e-39
8.22307e-38
-3.54786e-40
5.33536e-39
-9.93708e-42
3.19352e-40
-3.45157e-44
1.76338e-41
2.04635e-44
9.00386e-43
1.8392e-45
4.33211e-44
1.10928e-46
1.93413e-45
5.46874e-48
8.05567e-47
2.33846e-49
3.12091e-48
8.90333e-51
1.12683e-49
3.0609e-52
3.79793e-51
9.58082e-54
1.19652e-52
2.74398e-55
3.5269e-54
7.21136e-57
9.73219e-56
1.74116e-58
2.51426e-57
3.86143e-60
6.07843e-59
7.853e-62
1.37358e-60
1.45986e-63
2.89557e-62
2.46818e-65
5.67677e-64
3.76702e-67
1.03043e-65
5.13519e-69
1.72086e-67
6.15846e-71
2.62076e-69
6.35694e-73
3.59448e-71
5.46722e-75
4.36099e-73
3.72364e-77
4.55805e-75
1.84288e-79
3.93905e-77
5.60583e-82
2.62681e-79
6.76348e-85
1.18012e-81
2.37158e-84
-2.2424e-29
6.10856e-30
-6.41525e-30
2.39977e-30
-1.41991e-30
7.16269e-31
-2.49864e-31
1.68741e-31
-3.58445e-32
3.2054e-32
-4.27606e-33
5.0245e-33
-4.31671e-34
6.62304e-34
-3.74778e-35
7.47282e-35
-2.83676e-36
7.34311e-36
-1.88687e-37
6.38253e-37
-1.10722e-38
4.96243e-38
-5.72222e-40
3.48299e-39
-2.60521e-41
2.22203e-40
-1.01631e-42
1.30693e-41
-3.19794e-44
7.08089e-43
-6.58481e-46
3.54547e-44
5.95967e-48
1.66275e-45
1.59001e-48
7.24862e-47
1.08082e-49
2.98632e-48
5.34306e-51
1.14668e-49
2.21079e-52
4.12458e-51
8.02045e-54
1.38613e-52
2.60676e-55
4.3581e-54
7.67815e-57
1.28325e-55
2.06287e-58
3.54096e-57
5.07249e-60
9.15803e-59
1.14293e-61
2.21916e-60
2.35819e-63
5.03294e-62
4.44432e-65
1.0663e-63
7.6158e-67
2.10411e-65
1.17825e-68
3.85032e-67
1.62879e-70
6.49324e-69
1.98192e-72
1.00032e-70
2.07692e-74
1.39035e-72
1.81418e-76
1.71247e-74
1.25488e-78
1.82009e-76
6.29969e-81
1.60167e-78
1.9353e-83
1.08823e-80
2.32069e-86
4.97133e-83
9.97523e-86
-1.10806e-30
2.61015e-31
-3.18395e-31
1.02837e-31
-7.07617e-32
3.07688e-32
-1.24963e-32
7.25503e-33
-1.79816e-33
1.37682e-33
-2.15147e-34
2.15173e-34
-2.17946e-35
2.82219e-35
-1.90135e-36
3.16239e-36
-1.4498e-37
3.0805e-37
-9.75782e-39
2.64975e-38
-5.83636e-40
2.0358e-39
-3.11188e-41
1.41012e-40
-1.4924e-42
8.86853e-42
-6.38016e-44
5.1372e-43
-2.403e-45
2.73988e-44
-7.84997e-47
1.35004e-45
-2.06484e-48
6.22161e-47
-3.46441e-50
2.66375e-48
3.83663e-52
1.07274e-49
6.87123e-53
4.04053e-51
3.91553e-54
1.44174e-52
1.65142e-55
4.81103e-54
5.8657e-57
1.51067e-55
1.83239e-58
4.44683e-57
5.13518e-60
1.22796e-58
1.30406e-61
3.18188e-60
3.01567e-63
7.73432e-62
6.36064e-65
1.7619e-63
1.22234e-66
3.75475e-65
2.13255e-68
7.46402e-67
3.35614e-70
1.37817e-68
4.71742e-72
2.34912e-70
5.83574e-74
3.66429e-72
6.21679e-76
5.16608e-74
5.51895e-78
6.46581e-76
3.87642e-80
6.99484e-78
1.97124e-82
6.27352e-80
6.09355e-85
4.34594e-82
7.188e-88
2.01935e-84
4.03449e-87
-5.06571e-32
1.03432e-32
-1.46491e-32
4.09959e-33
-3.27441e-33
1.23316e-33
-5.81028e-34
2.91844e-34
-8.39306e-35
5.54821e-35
-1.00743e-35
8.6682e-36
-1.02355e-36
1.13426e-36
-8.95806e-38
1.26556e-37
-6.85929e-39
1.22527e-38
-4.64539e-40
1.04572e-39
-2.80542e-41
7.95961e-41
-1.51863e-42
5.45495e-42
-7.4576e-44
3.39063e-43
-3.31066e-45
1.93917e-44
-1.32589e-46
1.02048e-45
-4.81401e-48
4.95901e-47
-1.55297e-49
2.2537e-48
-4.39608e-51
9.51366e-50
-1.02789e-52
3.77493e-51
-1.6827e-54
1.40046e-52
1.01384e-57
4.90579e-54
1.59897e-57
1.60885e-55
8.60472e-59
5.02777e-57
3.2399e-60
1.47465e-58
1.01214e-61
4.0684e-60
2.76157e-63
1.05704e-61
6.72441e-65
2.57956e-63
1.47555e-66
5.9075e-65
2.92771e-68
1.26743e-66
5.24767e-70
2.54042e-68
8.45658e-72
4.73733e-70
1.21436e-73
8.16913e-72
1.53208e-75
1.29143e-73
1.6621e-77
1.84859e-75
1.50009e-79
2.35327e-77
1.0684e-81
2.59361e-79
5.48152e-84
2.37277e-81
1.68943e-86
1.67705e-83
1.91201e-89
7.92692e-86
1.57128e-88
-2.14245e-33
3.79932e-34
-6.24927e-34
1.51978e-34
-1.40762e-34
4.60975e-35
-2.51384e-35
1.09814e-35
-3.65007e-36
2.09715e-36
-4.39922e-37
3.28436e-37
-4.4845e-38
4.29909e-38
-3.93637e-39
4.78882e-39
-3.02321e-40
4.62004e-40
-2.05512e-41
3.92231e-41
-1.24769e-42
2.9653e-42
-6.80746e-44
2.01575e-43
-3.38281e-45
1.24136e-44
-1.52904e-46
7.0268e-46
-6.29327e-48
3.65739e-47
-2.38225e-49
1.75698e-48
-8.20445e-51
7.89069e-50
-2.58614e-52
3.29177e-51
-7.34943e-54
1.29112e-52
-1.87073e-55
4.73571e-54
-4.10011e-57
1.63993e-55
-7.25464e-59
5.32275e-57
-7.48095e-61
1.64099e-58
1.11833e-62
4.75523e-60
9.7086e-64
1.30288e-61
3.6712e-65
3.38606e-63
1.05798e-66
8.2786e-65
2.5785e-68
1.90259e-66
5.50022e-70
4.11101e-68
1.03995e-71
8.3159e-70
1.74656e-73
1.56758e-71
2.59216e-75
2.73724e-73
3.35893e-77
4.38958e-75
3.72253e-79
6.3854e-77
3.41303e-81
8.27528e-79
2.45144e-83
9.29975e-81
1.25273e-85
8.6852e-83
3.7383e-88
6.26686e-85
3.69843e-91
3.01322e-87
5.89712e-90
-8.38128e-35
1.29317e-35
-2.47208e-35
5.23777e-36
-5.62344e-36
1.60694e-36
-1.0127e-36
3.86456e-37
-1.48048e-37
7.43476e-38
-1.79408e-38
1.17038e-38
-1.83678e-39
1.53659e-39
-1.6179e-40
1.71328e-40
-1.24629e-41
1.65133e-41
-8.49717e-43
1.39813e-42
-5.17662e-44
1.05248e-43
-2.83744e-45
7.11408e-45
-1.41914e-46
4.35119e-46
-6.47543e-48
2.44363e-47
-2.70212e-49
1.26094e-48
-1.04341e-50
6.00194e-50
-3.69885e-52
2.66971e-51
-1.2159e-53
1.103e-52
-3.67714e-55
4.28471e-54
-1.02933e-56
1.55716e-55
-2.63401e-58
5.34611e-57
-6.1951e-60
1.72167e-58
-1.31058e-61
5.26767e-60
-2.45245e-63
1.51693e-61
-3.89166e-65
4.13197e-63
-4.58498e-67
1.06721e-64
-1.62539e-69
2.59874e-66
1.13266e-70
5.96268e-68
4.44363e-72
1.29497e-69
1.09556e-73
2.64105e-71
2.13777e-75
5.02936e-73
3.48391e-77
8.89005e-75
4.7887e-79
1.44623e-76
5.48543e-81
2.13868e-78
5.07164e-83
2.82342e-80
3.5594e-85
3.23823e-82
1.67916e-87
3.09081e-84
3.92254e-90
2.27995e-86
-1.10907e-95
1.11691e-88
2.1571e-91
-3.03227e-36
4.07739e-37
-9.06828e-37
1.6779e-37
-2.08831e-37
5.2233e-38
-3.80045e-38
1.27194e-38
-5.60467e-39
2.47215e-39
-6.84039e-40
3.92258e-40
-7.04333e-41
5.17936e-41
-6.23235e-42
5.7957e-42
-4.81856e-43
5.59519e-43
-3.29568e-44
4.73631e-44
-2.0139e-45
3.55891e-45
-1.10758e-46
2.39781e-46
-5.56231e-48
1.46005e-47
-2.55218e-49
8.15418e-49
-1.07323e-50
4.18103e-50
-4.18865e-52
1.97632e-51
-1.50712e-53
8.72579e-53
-5.05642e-55
3.57796e-54
-1.5727e-56
1.37937e-55
-4.57454e-58
4.97662e-57
-1.2341e-59
1.6969e-58
-3.12391e-61
5.43147e-60
-7.33924e-63
1.65335e-61
-1.60494e-64
4.74221e-63
-3.26871e-66
1.28803e-64
-6.15324e-68
3.32113e-66
-1.0675e-69
8.08806e-68
-1.70792e-71
1.8598e-69
-2.50086e-73
4.0498e-71
-3.33763e-75
8.29851e-73
-4.06401e-77
1.59204e-74
-4.56085e-79
2.84296e-76
-4.83571e-81
4.6855e-78
-5.00356e-83
7.03947e-80
-5.07485e-85
9.46734e-82
-4.72719e-87
1.10896e-83
-3.52634e-89
1.0833e-85
-1.69005e-91
8.18788e-88
-1.45329e-94
4.10243e-90
7.89103e-93
-1.01442e-37
1.19078e-38
-3.08483e-38
4.99601e-39
-7.21035e-39
1.58318e-39
-1.32916e-39
3.91558e-40
-1.98156e-40
7.71094e-41
-2.44038e-41
1.23668e-41
-2.53143e-42
1.64668e-42
-2.25342e-43
1.85411e-43
-1.75067e-44
1.79745e-44
-1.20216e-45
1.52503e-45
-7.37136e-47
1.14663e-46
-4.06724e-48
7.71889e-48
-2.04943e-49
4.69014e-49
-9.44081e-51
2.61085e-50
-3.98991e-52
1.33321e-51
-1.56735e-53
6.2719e-53
-5.6887e-55
2.75454e-54
-1.93053e-56
1.1233e-55
-6.09593e-58
4.30636e-57
-1.80819e-59
1.54539e-58
-5.00303e-61
5.24294e-60
-1.30789e-62
1.67089e-61
-3.20074e-64
5.06802e-63
-7.36848e-66
1.44995e-64
-1.60028e-67
3.93337e-66
-3.26337e-69
1.01443e-67
-6.2509e-71
2.475e-69
-1.12921e-72
5.71168e-71
-1.91527e-74
1.2503e-72
-3.04073e-76
2.58078e-74
-4.50235e-78
4.99853e-76
-6.17665e-80
9.03235e-78
-7.76143e-82
1.50992e-79
-8.76188e-84
2.30641e-81
-8.60569e-86
3.16097e-83
-6.97045e-88
3.78108e-85
-4.23839e-90
3.77828e-87
-1.59829e-92
2.92335e-89
-1.0061e-95
1.49582e-91
2.85399e-94
-3.13769e-39
3.22119e-40
-9.73202e-40
1.38282e-40
-2.31513e-40
4.47543e-41
-4.33374e-41
1.12769e-41
-6.5464e-42
2.25676e-42
-8.15226e-43
3.6687e-43
-8.53529e-44
4.93952e-44
-7.65644e-45
5.61107e-45
-5.98577e-46
5.47622e-46
-4.13172e-47
4.66843e-47
-2.54456e-48
3.52076e-48
-1.40938e-49
2.37366e-49
-7.12671e-51
1.44253e-50
-3.29486e-52
8.02192e-52
-1.39811e-53
4.08848e-53
-5.51826e-55
1.91828e-54
-2.01476e-56
8.39773e-56
-6.88809e-58
3.41266e-57
-2.1956e-59
1.30353e-58
-6.58964e-61
4.66154e-60
-1.85022e-62
1.57638e-61
-4.92423e-64
5.0105e-63
-1.23145e-65
1.51673e-64
-2.90899e-67
4.33487e-66
-6.51079e-69
1.17613e-67
-1.3744e-70
3.03762e-69
-2.73704e-72
7.43299e-71
-5.15965e-74
1.72334e-72
-9.15712e-76
3.79703e-74
-1.5229e-77
7.90403e-76
-2.35956e-79
1.54705e-77
-3.37478e-81
2.83111e-79
-4.3929e-83
4.80352e-81
-5.09189e-85
7.46355e-83
-5.08037e-87
1.0427e-84
-4.13019e-89
1.27389e-86
-2.48538e-91
1.30212e-88
-9.07689e-94
1.03116e-90
-5.15032e-97
5.38629e-93
1.01761e-95
-8.97278e-41
8.07273e-42
-2.84764e-41
3.55889e-42
-6.91439e-42
1.18034e-42
-1.31781e-42
3.03966e-43
-2.02185e-43
6.20001e-44
-2.55162e-44
1.02453e-44
-2.70193e-45
1.39862e-45
-2.44693e-46
1.60704e-46
-1.9283e-47
1.58297e-47
-1.33993e-48
1.35923e-48
-8.29855e-50
1.03065e-49
-4.61867e-51
6.97505e-51
-2.34544e-52
4.2492e-52
-1.08871e-53
2.36575e-53
-4.63838e-55
1.20599e-54
-1.83856e-56
5.65512e-56
-6.74558e-58
2.47267e-57
-2.31932e-59
1.00329e-58
-7.44396e-61
3.82543e-60
-2.25264e-62
1.36568e-61
-6.38838e-64
4.61126e-63
-1.72048e-65
1.46419e-64
-4.3631e-67
4.43034e-66
-1.04755e-68
1.26675e-67
-2.38839e-70
3.44205e-69
-5.14762e-72
8.91376e-71
-1.04885e-73
2.19012e-72
-2.02651e-75
5.10674e-74
-3.69101e-77
1.1335e-75
-6.30411e-79
2.38137e-77
-1.00313e-80
4.71337e-79
-1.47239e-82
8.74026e-81
-1.964e-84
1.50583e-82
-2.32774e-86
2.3808e-84
-2.36794e-88
3.3914e-86
-1.95531e-90
4.23253e-88
-1.18826e-92
4.42586e-90
-4.32945e-95
3.58722e-92
-2.31833e-98
1.91272e-94
3.57536e-97
-2.3724e-42
1.87507e-43
-7.72957e-43
8.52086e-44
-1.92142e-43
2.90595e-44
-3.73868e-44
7.6727e-45
-5.84077e-45
1.5999e-45
-7.48755e-46
2.69505e-46
-8.0362e-47
3.7404e-47
-7.36211e-48
4.35853e-48
-5.85876e-49
4.34392e-49
-4.10512e-50
3.76604e-50
-2.56053e-51
2.87783e-51
-1.43385e-52
1.9595e-52
-7.32021e-54
1.19926e-53
-3.41442e-55
6.69905e-55
-1.46138e-56
3.42277e-56
-5.81885e-58
1.6073e-57
-2.14514e-59
7.033e-59
-7.4139e-61
2.85458e-60
-2.39363e-62
1.08845e-61
-7.29251e-64
3.88588e-63
-2.08454e-65
1.31225e-64
-5.66541e-67
4.169e-66
-1.45198e-68
1.26278e-67
-3.52859e-70
3.61718e-69
-8.15559e-72
9.85624e-71
-1.78472e-73
2.56235e-72
-3.69796e-75
6.32842e-74
-7.27564e-77
1.48549e-75
-1.35101e-78
3.32455e-77
-2.35475e-80
7.05466e-79
-3.82636e-82
1.41294e-80
-5.7377e-84
2.65641e-82
-7.8196e-86
4.64934e-84
-9.46682e-88
7.48253e-86
-9.8305e-90
1.08706e-87
-8.2747e-92
1.38606e-89
-5.1104e-94
1.48276e-91
-1.87643e-96
1.22997e-93
-9.65937e-100
6.69349e-96