/*--------------------------------*- C++ -*----------------------------------*\
| =========                 |                                                 |
| \\      /  F ield         | OpenFOAM: The Open Source CFD Toolbox           |
|  \\    /   O peration     | Version:  5.0                                   |
|   \\  /    A nd           | Web:      www.OpenFOAM.org                      |
|    \\/     M anipulation  |                                                 |
\*---------------------------------------------------------------------------*/
FoamFile
{
    version     2.0;
    format      ascii;
    class       volScalarField;
    location    "0.25";
    object      epsilon;
}
// * * * * * * * * * * * * * * * * * * * * * * * * * * * * * * * * * * * * * //

dimensions      [0 2 -3 0 0 0 0];

internalField   nonuniform List<scalar> 
1935
(
0.455579
0.372712
0.311729
0.266169
0.231527
0.204705
0.183576
0.166664
0.152929
0.14162
0.132189
0.124227
0.117424
0.11155
0.106427
0.101921
0.0979331
0.0943859
0.0912223
0.0883984
0.0858799
0.0836389
0.0816513
0.0798957
0.0783524
0.0770024
0.0758273
0.0748099
0.0739337
0.0731838
0.0725469
0.0720119
0.0715698
0.0712143
0.0709421
0.0707523
0.0706467
0.0706276
0.0706955
0.070842
0.0710405
0.0712349
0.0713459
0.470721
0.482194
0.487385
0.48321
0.376835
0.378281
0.3757
0.367803
0.309981
0.306489
0.300517
0.29155
0.261436
0.25568
0.248454
0.23957
0.225403
0.218767
0.21131
0.202977
0.198063
0.191255
0.184042
0.176419
0.176888
0.170265
0.163502
0.156612
0.160181
0.153912
0.147674
0.141481
0.146777
0.140935
0.135232
0.129677
0.13586
0.130466
0.125276
0.120297
0.126842
0.12189
0.117182
0.112717
0.119294
0.114767
0.110504
0.106499
0.112898
0.108774
0.10492
0.101327
0.107416
0.103672
0.100194
0.0969703
0.102668
0.0992808
0.0961485
0.0932593
0.0985211
0.0954673
0.0926536
0.0900673
0.0948722
0.0921302
0.08961
0.0872988
0.0916446
0.0891928
0.0869427
0.084882
0.0887801
0.0865972
0.0845949
0.0827619
0.0862338
0.0842984
0.0825225
0.0808959
0.0839705
0.0822612
0.080691
0.0792508
0.0819616
0.0804572
0.0790723
0.0777995
0.080183
0.0788625
0.0776434
0.0765197
0.0786136
0.0774563
0.0763843
0.0753927
0.077234
0.0762204
0.0752776
0.074402
0.0760264
0.0751378
0.0743076
0.073533
0.0749739
0.0741931
0.0734599
0.0727729
0.0740607
0.0733717
0.0727216
0.0721095
0.0732721
0.0726605
0.0720807
0.0715322
0.0725946
0.0720473
0.071526
0.0710309
0.0720161
0.0715211
0.0710478
0.0705968
0.0715263
0.0710722
0.070637
0.0702214
0.0711166
0.0706925
0.0702858
0.0698972
0.0707803
0.0703749
0.069987
0.0696173
0.0705125
0.0701137
0.0697344
0.0693751
0.0703104
0.0699044
0.0695225
0.0691647
0.0701722
0.0697434
0.0693466
0.0689806
0.0700969
0.0696274
0.0692021
0.0688179
0.0700813
0.0695518
0.0690845
0.0686726
0.0701168
0.0695098
0.068989
0.0685422
0.0701843
0.0694896
0.0689102
0.0684261
0.0702507
0.0694748
0.0688436
0.0683278
0.0702793
0.0694543
0.0687933
0.0682602
0.467091
0.436895
0.398037
0.355336
0.312478
0.272059
0.235667
0.204067
0.177393
0.155359
0.137449
0.123061
0.111597
0.102513
0.0953411
0.0896907
0.0852465
0.0817586
0.0790331
0.0769225
0.0753165
0.074135
0.0733214
0.072838
0.0726626
0.0727848
0.0732053
0.0739336
0.0749888
0.0763994
0.0782064
0.0804682
0.0832719
0.0867576
0.0911735
0.0970127
0.105409
0.11957
0.152605
0.321568
0.353273
0.331118
0.304268
0.275379
0.24643
0.218925
0.193849
0.171725
0.152709
0.136698
0.12343
0.112568
0.103754
0.0966483
0.0909454
0.0863832
0.0827442
0.0798526
0.07757
0.0757895
0.0744312
0.0734368
0.0727658
0.0723922
0.0723021
0.0724916
0.0729657
0.0737373
0.0748279
0.0762677
0.0780989
0.0803804
0.0831995
0.0866959
0.0911161
0.0969504
0.105327
0.119439
0.152356
0.320908
0.278794
0.261811
0.242334
0.221847
0.201478
0.182079
0.164248
0.14833
0.134456
0.122594
0.112608
0.1043
0.0974531
0.0918476
0.0872821
0.0835788
0.0805871
0.0781834
0.0762692
0.0747683
0.0736231
0.0727924
0.0722481
0.0719736
0.0719618
0.0722137
0.0727382
0.0735512
0.0746758
0.076144
0.0779987
0.0802995
0.0831337
0.0866402
0.0910641
0.0968924
0.105246
0.119305
0.152094
0.320158
0.228469
0.214972
0.200245
0.185055
0.170139
0.155968
0.142896
0.131137
0.120784
0.111827
0.104189
0.0977506
0.0923712
0.0879076
0.084224
0.0811986
0.0787269
0.0767221
0.0751144
0.0738499
0.072888
0.0722003
0.0717685
0.0715833
0.071643
0.0719529
0.0725248
0.0733769
0.0745342
0.0760298
0.0779074
0.080227
0.0830757
0.0865918
0.0910185
0.0968397
0.10517
0.119172
0.15182
0.31932
0.193327
0.182305
0.17076
0.159101
0.147769
0.137075
0.127214
0.118308
0.110413
0.103523
0.0975875
0.0925279
0.0882512
0.0846605
0.0816628
0.0791739
0.0771207
0.0754423
0.0740898
0.0730253
0.0722211
0.0716584
0.0713266
0.0712218
0.0713468
0.0717104
0.0723267
0.073216
0.0744046
0.0759267
0.0778265
0.0801643
0.083027
0.086552
0.0909807
0.0967935
0.105097
0.119038
0.151536
0.318398
0.168015
0.15883
0.149516
0.140311
0.131443
0.123133
0.115496
0.108593
0.102449
0.0970512
0.0923642
0.0883321
0.08489
0.0819706
0.0795089
0.0774461
0.0757308
0.0743205
0.0731809
0.0722861
0.0716178
0.0711646
0.0709215
0.0708892
0.071074
0.0714872
0.0721452
0.0730697
0.0742883
0.0758358
0.0777571
0.0801124
0.0829885
0.0865216
0.0909515
0.0967546
0.10503
0.118907
0.151242
0.317399
0.149267
0.141497
0.133818
0.126368
0.119278
0.112656
0.106599
0.101131
0.0962539
0.0919514
0.0881916
0.0849329
0.082128
0.0797286
0.0776886
0.0759662
0.0745252
0.0733359
0.0723747
0.0716244
0.0710736
0.0707164
0.0705523
0.0705855
0.070825
0.0712842
0.0719812
0.072939
0.0741862
0.0757581
0.0777001
0.0800723
0.082961
0.0865016
0.0909317
0.0967238
0.104969
0.118778
0.150941
0.316332
0.135039
0.128389
0.12195
0.1158
0.110013
0.104646
0.0997372
0.0953175
0.0913748
0.0878868
0.0848245
0.0821545
0.0798409
0.0778479
0.0761421
0.0746936
0.0734768
0.0724708
0.0716598
0.071033
0.0705841
0.0703114
0.0702178
0.0703102
0.0705997
0.0711015
0.0718351
0.0728245
0.0740989
0.0756942
0.077656
0.0800443
0.082945
0.0864923
0.0909216
0.0967016
0.104915
0.118652
0.150636
0.315205
0.124007
0.118262
0.112791
0.107634
0.102828
0.0984003
0.0943659
0.0907273
0.0874833
0.0846099
0.0820792
0.0798627
0.0779319
0.0762598
0.0748215
0.0735952
0.0725627
0.0717098
0.0710261
0.0705053
0.0701451
0.0699471
0.0699165
0.0700625
0.0703979
0.0709394
0.0717072
0.0727264
0.0740266
0.0756444
0.0776251
0.0800289
0.0829408
0.086494
0.0909217
0.0966883
0.104868
0.118531
0.150326
0.314027
0.115287
0.110288
0.105588
0.101207
0.0971592
0.0934516
0.0900851
0.087053
0.0843421
0.0819386
0.0798181
0.0779552
0.0763264
0.0749103
0.0736881
0.0726437
0.0717642
0.07104
0.0704647
0.0700355
0.0697529
0.0696209
0.0696469
0.0698416
0.0702192
0.0707974
0.0715974
0.0726447
0.0739696
0.0756087
0.0776076
0.0800259
0.0829484
0.0865067
0.0909319
0.0966841
0.104829
0.118414
0.150014
0.3128
0.108278
0.103899
0.099827
0.0960653
0.0926143
0.0894698
0.0866235
0.0840635
0.0817743
0.0797382
0.0779381
0.0763543
0.0749663
0.0737568
0.072711
0.0718169
0.0710654
0.0704501
0.0699677
0.069618
0.0694036
0.0693305
0.0694074
0.0696464
0.0700628
0.070675
0.0715051
0.072579
0.0739273
0.0755868
0.077603
0.0800352
0.0829674
0.0865302
0.0909523
0.0966893
0.104798
0.118304
0.149701
0.311524
0.102554
0.0986996
0.0951461
0.0918877
0.0889159
0.0862197
0.083786
0.0815999
0.079645
0.0779046
0.0763618
0.0750005
0.0738069
0.0727658
0.0718654
0.0710966
0.070453
0.0699306
0.0695284
0.0692481
0.0690939
0.0690732
0.069196
0.0694755
0.0699276
0.0705716
0.0714299
0.0725288
0.0738993
0.0755782
0.0776108
0.0800562
0.0829975
0.0865642
0.0909824
0.0967038
0.104776
0.118201
0.149389
0.310206
0.0978133
0.0944073
0.0912885
0.0884455
0.0858649
0.0835319
0.0814309
0.0795457
0.0778603
0.0763588
0.0750262
0.0738486
0.0728134
0.0719108
0.0711314
0.0704679
0.0699159
0.0694733
0.0691407
0.0689211
0.0688203
0.0688465
0.0690109
0.0693274
0.0698125
0.0704859
0.0713707
0.0724933
0.0738848
0.075582
0.0776302
0.080088
0.0830378
0.0866077
0.0910218
0.0967272
0.104763
0.118107
0.149083
0.308861
0.0938372
0.090818
0.0880684
0.0855734
0.0833171
0.0812829
0.0794543
0.0778152
0.0763501
0.0750444
0.0738848
0.0728594
0.0719576
0.071171
0.0704928
0.0699185
0.0694448
0.069071
0.068799
0.068633
0.0685796
0.0686481
0.0688502
0.0692005
0.069716
0.0704169
0.0713264
0.0724713
0.0738827
0.0755973
0.0776602
0.0801296
0.0830873
0.0866599
0.0910695
0.0967588
0.104758
0.118022
0.148787
0.30751
0.0904637
0.0877819
0.0853494
0.0831498
0.0811661
0.0793813
0.0777791
0.076344
0.0750615
0.0739186
0.0729032
0.0720051
0.0712156
0.0705278
0.0699363
0.069438
0.0690315
0.0687176
0.0684987
0.06838
0.068369
0.0684754
0.0687118
0.0690931
0.0696367
0.0703632
0.0712959
0.0724617
0.0738918
0.0756228
0.0776995
0.0801798
0.0831446
0.0867195
0.0911242
0.0967974
0.104761
0.117945
0.148501
0.306169
0.0875728
0.0851879
0.0830308
0.0810849
0.0793332
0.0777593
0.0763477
0.0750839
0.0739547
0.0729484
0.0720544
0.0712641
0.0705699
0.0699664
0.0694496
0.0690174
0.0686694
0.0684074
0.0682352
0.0681585
0.0681854
0.0683262
0.0685937
0.0690034
0.069573
0.0703232
0.0712775
0.0724629
0.0739106
0.075657
0.0777467
0.0802371
0.0832084
0.086785
0.0911844
0.0968416
0.104769
0.117877
0.148226
0.304849
0.0850747
0.0829526
0.0810367
0.0793108
0.0777588
0.0763653
0.0751159
0.0739976
0.0729986
0.0721082
0.0713176
0.070619
0.0700065
0.0694756
0.0690233
0.0686485
0.0683518
0.0681358
0.0680048
0.0679654
0.0680261
0.0681979
0.0684938
0.0689295
0.0695231
0.0702953
0.0712698
0.0724735
0.0739376
0.0756984
0.0778002
0.0802999
0.083277
0.0868547
0.0912486
0.0968898
0.104783
0.117815
0.147964
0.303558
0.0829011
0.0810131
0.0793099
0.0777763
0.0763976
0.0751598
0.07405
0.0730565
0.0721688
0.0713778
0.0706756
0.070056
0.0695138
0.0690457
0.0686495
0.0683249
0.0680733
0.0678979
0.0678036
0.0677975
0.0678886
0.0680884
0.0684101
0.0688697
0.0694853
0.0702779
0.071271
0.0724919
0.0739712
0.0757454
0.0778584
0.0803666
0.0833488
0.086927
0.091315
0.0969403
0.104799
0.117759
0.147714
0.302306
0.0810002
0.0793212
0.0778063
0.0764418
0.0752146
0.0741122
0.0731233
0.0722376
0.071446
0.0707407
0.070115
0.0695636
0.0690824
0.0686688
0.0683216
0.0680411
0.0678292
0.0676898
0.0676282
0.067652
0.0677706
0.0679955
0.0683406
0.0688219
0.0694578
0.0702692
0.0712797
0.0725163
0.0740098
0.0757963
0.0779195
0.0804354
0.0834219
0.0870002
0.091382
0.0969915
0.104818
0.117708
0.147479
0.3011
0.0793317
0.0778394
0.0764916
0.0752764
0.0741821
0.0731982
0.0723146
0.0715227
0.0708146
0.0701837
0.0696243
0.0691322
0.0687041
0.0683382
0.0680339
0.0677922
0.0676155
0.067508
0.0674757
0.0675263
0.0676696
0.0679174
0.0682838
0.0687848
0.0694391
0.0702675
0.0712938
0.072545
0.0740517
0.0758495
0.077982
0.0805046
0.0834949
0.0870726
0.0914481
0.0970422
0.104838
0.117663
0.147263
0.299952
0.0778637
0.0765381
0.0753388
0.0742554
0.0732783
0.0723982
0.0716069
0.0708969
0.0702617
0.0696956
0.0691942
0.0687539
0.0683722
0.0680481
0.0677815
0.067574
0.0674284
0.0673494
0.0673431
0.0674178
0.0675834
0.067852
0.0682377
0.0687567
0.0694278
0.0702718
0.0713126
0.0725769
0.0740952
0.0759033
0.0780441
0.0805727
0.083566
0.0871428
0.0915119
0.0970916
0.104859
0.11763
0.147097
0.298979
0.0765707
0.0753936
0.0743259
0.0733591
0.0724853
0.0716966
0.0709863
0.0703481
0.0697766
0.0692674
0.0688167
0.0684217
0.0680809
0.0677934
0.0675601
0.0673827
0.0672647
0.067211
0.067228
0.0673243
0.06751
0.0677973
0.0682004
0.0687359
0.0694222
0.0702805
0.0713344
0.0726106
0.0741396
0.0759568
0.0781049
0.0806386
0.0836342
0.0872096
0.0915723
0.0971383
0.104881
0.117603
0.146953
0.298137
0.0754318
0.0743863
0.0734351
0.0725713
0.0717884
0.0710802
0.0704411
0.069866
0.0693506
0.0688912
0.068485
0.06813
0.067825
0.0675699
0.0673658
0.0672152
0.0671216
0.0670902
0.067128
0.0672436
0.0674472
0.0677513
0.0681703
0.0687205
0.0694207
0.0702919
0.0713577
0.0726447
0.0741832
0.0760085
0.0781629
0.0807008
0.0836979
0.0872714
0.0916275
0.0971802
0.104898
0.117575
0.146816
0.297359
0.0744292
0.0735
0.0726515
0.0718785
0.0711757
0.0705383
0.0699617
0.0694421
0.068976
0.0685605
0.0681935
0.0678736
0.0676001
0.0673736
0.0671954
0.0670683
0.0669963
0.0669849
0.0670411
0.0671738
0.0673935
0.0677126
0.0681457
0.0687092
0.0694218
0.0703045
0.0713809
0.0726775
0.0742245
0.0760567
0.0782165
0.0807578
0.0837557
0.0873268
0.0916761
0.0972158
0.104911
0.117545
0.146682
0.296627
0.0735478
0.0727206
0.0719624
0.0712691
0.0706367
0.0700615
0.06954
0.0690692
0.0686464
0.0682696
0.0679371
0.0676481
0.0674025
0.0672011
0.0670458
0.0669395
0.0668866
0.0668928
0.0669653
0.0671132
0.0673471
0.0676796
0.0681252
0.0687005
0.0694241
0.0703171
0.0714028
0.0727079
0.0742621
0.0761004
0.0782647
0.0808085
0.0838066
0.0873749
0.0917172
0.0972442
0.104917
0.117511
0.146552
0.295941
0.0727742
0.0720362
0.0713568
0.0707333
0.0701626
0.069642
0.0691689
0.068741
0.0683564
0.0680135
0.0677115
0.0674497
0.0672287
0.0670495
0.0669143
0.0668264
0.0667903
0.066812
0.066899
0.0670603
0.0673067
0.067651
0.0681076
0.0686933
0.0694266
0.0703285
0.0714224
0.0727347
0.0742952
0.0761385
0.0783063
0.080852
0.0838497
0.0874147
0.0917502
0.0972648
0.104917
0.117474
0.146424
0.295303
0.0720966
0.0714359
0.0708252
0.0702625
0.0697457
0.0692729
0.0688422
0.068452
0.0681009
0.0677881
0.0675128
0.0672751
0.0670757
0.0669161
0.0667986
0.0667269
0.0667057
0.066741
0.0668406
0.0670137
0.0672711
0.0676256
0.0680919
0.0686865
0.0694282
0.0703378
0.0714387
0.0727571
0.0743228
0.0761702
0.0783408
0.0808875
0.0838842
0.0874458
0.0917744
0.0972774
0.104911
0.117433
0.146302
0.294717
0.0715042
0.0709102
0.0703589
0.069849
0.0693791
0.068948
0.0685545
0.0681974
0.0678758
0.0675893
0.0673377
0.0671212
0.0669409
0.0667985
0.0666966
0.0666391
0.0666309
0.0666782
0.0667889
0.0669721
0.0672391
0.0676025
0.0680771
0.0686794
0.0694282
0.0703443
0.071451
0.0727745
0.0743444
0.0761949
0.0783674
0.0809146
0.0839099
0.0874678
0.0917897
0.0972818
0.104898
0.117389
0.146185
0.294187
0.0709874
0.0704505
0.0699502
0.0694859
0.0690568
0.068662
0.0683009
0.0679728
0.0676772
0.0674139
0.067183
0.0669853
0.0668218
0.0666945
0.0666065
0.0665614
0.0665646
0.0666223
0.0667425
0.0669347
0.0672098
0.0675809
0.0680625
0.0686713
0.069426
0.0703475
0.0714589
0.0727864
0.0743595
0.0762123
0.078386
0.0809329
0.0839265
0.0874805
0.091796
0.0972781
0.104878
0.117342
0.146075
0.293716
0.0705372
0.0700487
0.069592
0.0691669
0.0687729
0.0684097
0.0680769
0.0677742
0.0675014
0.0672586
0.0670461
0.0668648
0.0667161
0.0666023
0.0665263
0.0664922
0.0665053
0.0665721
0.0667006
0.0669003
0.0671824
0.0675599
0.0680474
0.0686616
0.0694211
0.0703469
0.071462
0.0727926
0.074368
0.0762222
0.0783963
0.0809425
0.0839339
0.087484
0.0917933
0.0972663
0.104853
0.117294
0.145972
0.293307
0.0701455
0.0696976
0.0692778
0.068886
0.0685223
0.0681864
0.0678783
0.0675979
0.0673451
0.0671203
0.0669241
0.0667574
0.0666219
0.0665198
0.0664545
0.06643
0.0664518
0.0665264
0.066662
0.0668682
0.0671562
0.0675389
0.0680313
0.0686498
0.0694131
0.0703422
0.0714601
0.0727928
0.0743696
0.0762245
0.0783983
0.0809433
0.0839322
0.0874784
0.091782
0.0972469
0.104821
0.117244
0.145878
0.292961
0.0698045
0.0693901
0.0690011
0.0686377
0.0682998
0.0679876
0.067701
0.0674401
0.067205
0.0669962
0.0668144
0.0666607
0.0665369
0.0664454
0.0663895
0.0663734
0.0664028
0.0664842
0.0666259
0.0668376
0.0671304
0.0675176
0.0680137
0.0686356
0.0694018
0.0703333
0.071453
0.072787
0.0743644
0.0762193
0.0783923
0.0809356
0.0839217
0.0874641
0.0917625
0.0972204
0.104785
0.117193
0.145793
0.292681
0.0695074
0.0691198
0.068756
0.0684162
0.0681004
0.0678086
0.0675408
0.0672971
0.0670779
0.0668834
0.0667146
0.0665726
0.0664593
0.0663771
0.0663296
0.0663211
0.0663571
0.0664445
0.0665914
0.0668077
0.0671046
0.0674952
0.0679944
0.0686188
0.069387
0.07032
0.0714408
0.0727753
0.0743527
0.0762069
0.0783785
0.0809197
0.0839029
0.0874415
0.0917351
0.0971872
0.104745
0.117142
0.145719
0.292467
0.0692471
0.0688801
0.0685364
0.0682161
0.0679189
0.0676448
0.0673936
0.0671653
0.0669602
0.0667788
0.0666218
0.0664905
0.0663868
0.0663133
0.0662734
0.0662717
0.0663136
0.0664062
0.0665577
0.0667778
0.0670781
0.0674715
0.0679729
0.0685991
0.0693687
0.0703025
0.0714236
0.0727579
0.0743346
0.0761875
0.0783573
0.080896
0.0838763
0.0874112
0.0917007
0.0971481
0.1047
0.117091
0.145656
0.292318
0.0690173
0.0686647
0.0683364
0.0680318
0.0677503
0.0674915
0.0672551
0.0670408
0.0668488
0.0666794
0.0665334
0.0664121
0.0663174
0.0662519
0.0662192
0.0662237
0.0662711
0.0663684
0.0665238
0.0667473
0.0670504
0.067446
0.0679491
0.0685764
0.0693467
0.0702807
0.0714015
0.0727351
0.0743106
0.0761617
0.0783293
0.0808654
0.0838425
0.087374
0.0916599
0.0971038
0.104653
0.117042
0.145604
0.292232
0.0688118
0.0684676
0.0681501
0.0678578
0.0675896
0.0673444
0.0671213
0.06692
0.0667403
0.0665823
0.0664469
0.0663352
0.0662491
0.0661913
0.0661654
0.0661758
0.0662283
0.06633
0.0664891
0.0667156
0.0670209
0.0674183
0.0679227
0.0685507
0.0693212
0.0702549
0.071375
0.0727073
0.0742811
0.0761302
0.0782952
0.0808284
0.0838024
0.0873307
0.0916136
0.0970552
0.104604
0.116995
0.145564
0.292205
0.0686249
0.0682832
0.0679723
0.0676894
0.0674324
0.0671993
0.0669887
0.0667997
0.0666319
0.0664851
0.06636
0.0662578
0.0661802
0.06613
0.0661107
0.0661269
0.0661844
0.0662902
0.0664528
0.0666821
0.0669896
0.0673884
0.0678937
0.0685221
0.0692925
0.0702256
0.0713445
0.0726753
0.074247
0.0760937
0.078256
0.0807862
0.0837571
0.0872825
0.0915629
0.0970033
0.104553
0.11695
0.145536
0.29223
0.0684517
0.068107
0.0677989
0.067523
0.0672756
0.0670537
0.066855
0.066678
0.0665219
0.0663862
0.0662715
0.0661787
0.0661097
0.0660671
0.0660545
0.0660765
0.0661389
0.0662489
0.0664148
0.0666467
0.0669562
0.0673564
0.0678624
0.068491
0.069261
0.0701932
0.0713108
0.0726398
0.0742093
0.0760534
0.0782128
0.0807399
0.0837079
0.0872306
0.0915092
0.0969495
0.104502
0.116909
0.145518
0.29229
0.0682891
0.0679367
0.0676285
0.0673577
0.0671188
0.0669074
0.0667202
0.0665551
0.0664105
0.0662859
0.0661815
0.0660982
0.0660378
0.0660028
0.065997
0.0660248
0.0660922
0.0662062
0.0663755
0.0666101
0.0669214
0.0673229
0.0678296
0.0684583
0.0692279
0.0701591
0.0712752
0.0726023
0.0741695
0.0760109
0.0781674
0.0806915
0.0836566
0.0871769
0.0914542
0.0968952
0.104453
0.116872
0.145511
0.292364
0.0681365
0.0677733
0.0674632
0.0671964
0.0669652
0.0667637
0.0665877
0.066434
0.0663008
0.0661871
0.0660928
0.0660188
0.0659668
0.0659393
0.06594
0.0659735
0.0660457
0.0661638
0.0663364
0.0665735
0.0668867
0.0672895
0.0677968
0.0684256
0.0691947
0.0701249
0.0712397
0.0725648
0.0741298
0.0759686
0.0781223
0.0806436
0.0836059
0.087124
0.0914005
0.096843
0.104407
0.11684
0.145511
0.292411
0.0679972
0.0676227
0.0673103
0.067047
0.066823
0.0666308
0.0664651
0.0663221
0.0661994
0.0660957
0.0660108
0.0659454
0.0659011
0.0658805
0.0658873
0.065926
0.0660027
0.0661246
0.0663002
0.0665396
0.0668546
0.0672586
0.0677665
0.0683954
0.0691641
0.0700935
0.0712069
0.0725304
0.0740933
0.0759298
0.078081
0.0805996
0.0835596
0.0870759
0.0913518
0.0967964
0.104367
0.116816
0.145516
0.292362
0.0678798
0.0674967
0.0671831
0.0669233
0.0667056
0.0665215
0.0663645
0.0662304
0.0661164
0.066021
0.0659438
0.0658854
0.0658474
0.0658325
0.0658442
0.0658873
0.0659676
0.0660925
0.0662706
0.066512
0.0668285
0.0672335
0.067742
0.068371
0.0691394
0.0700682
0.0711806
0.0725028
0.0740641
0.0758987
0.0780479
0.0805645
0.0835226
0.0870377
0.0913138
0.0967613
0.10434
0.11681
0.145546
0.292129
0.0678024
0.0674155
0.0671021
0.0668451
0.0666318
0.0664528
0.0663013
0.0661727
0.066064
0.0659737
0.0659012
0.0658472
0.0658131
0.0658017
0.0658165
0.0658623
0.065945
0.0660718
0.0662515
0.0664943
0.0668117
0.0672174
0.0677263
0.0683555
0.0691238
0.0700523
0.0711642
0.0724856
0.0740459
0.0758795
0.0780274
0.0805428
0.0834997
0.0870141
0.0912904
0.0967401
0.104326
0.116809
0.145561
0.29141
)
;

boundaryField
{
    leftWall
    {
        Cmu             0.09;
        kappa           0.41;
        E               9.8;
        type            epsilonWallFunction;
        value           nonuniform 0();
    }
    rightWall
    {
        Cmu             0.09;
        kappa           0.41;
        E               9.8;
        type            epsilonWallFunction;
        value           nonuniform List<scalar> 
43
(
0.321568
0.320908
0.320158
0.31932
0.318398
0.317399
0.316332
0.315205
0.314027
0.3128
0.311524
0.310206
0.308861
0.30751
0.306169
0.304849
0.303558
0.302306
0.3011
0.299952
0.298979
0.298137
0.297359
0.296627
0.295941
0.295303
0.294717
0.294187
0.293716
0.293307
0.292961
0.292681
0.292467
0.292318
0.292232
0.292205
0.29223
0.29229
0.292364
0.292411
0.292362
0.292129
0.29141
)
;
    }
    lowerWall
    {
        Cmu             0.09;
        kappa           0.41;
        E               9.8;
        type            epsilonWallFunction;
        value           nonuniform 0();
    }
    atmosphere
    {
        type            inletOutlet;
        inletValue      uniform 0.1;
        value           nonuniform List<scalar> 
45
(
0.0713459
0.0702793
0.0694543
0.0687933
0.0682602
0.0678024
0.0674155
0.0671021
0.0668451
0.0666318
0.0664528
0.0663013
0.0661727
0.066064
0.0659737
0.0659012
0.0658472
0.0658131
0.0658017
0.0658165
0.0658623
0.065945
0.0660718
0.0662515
0.0664943
0.0668117
0.0672174
0.0677263
0.0683555
0.0691238
0.0700523
0.0711642
0.0724856
0.0740459
0.0758795
0.0780274
0.0805428
0.0834997
0.0870141
0.0912904
0.0967401
0.104326
0.116809
0.145561
0.29141
)
;
    }
    defaultFaces
    {
        type            empty;
    }
    procBoundary3to1
    {
        type            processor;
        value           nonuniform List<scalar> 
45
(
0.569343
0.604371
0.635307
0.657014
0.662317
0.645597
0.602468
0.543382
0.477537
0.411717
0.350322
0.29589
0.249519
0.211219
0.1803
0.155741
0.136444
0.121388
0.10969
0.100619
0.0935909
0.0881467
0.0839317
0.0806756
0.078176
0.0762831
0.0748881
0.0739144
0.0733098
0.0730412
0.0730913
0.0734549
0.0741379
0.0751565
0.0765371
0.0783195
0.0805612
0.0833491
0.0868238
0.0912346
0.0970777
0.105492
0.119699
0.152839
0.322135
)
;
    }
    procBoundary3to2
    {
        type            processor;
        value           nonuniform List<scalar> 
43
(
0.439447
0.367304
0.312423
0.270207
0.237287
0.211246
0.190356
0.173375
0.159398
0.147757
0.137946
0.129583
0.122375
0.116098
0.110581
0.105694
0.101338
0.0974401
0.093945
0.0908111
0.0880058
0.0855025
0.0832781
0.0813115
0.0795823
0.0780706
0.0767566
0.0756214
0.0746466
0.0738155
0.0731136
0.0725285
0.0720513
0.0716764
0.071402
0.0712308
0.0711689
0.0712249
0.0714057
0.0717079
0.0721002
0.0724984
0.0727524
)
;
    }
}


// ************************************************************************* //
