/*--------------------------------*- C++ -*----------------------------------*\
| =========                 |                                                 |
| \\      /  F ield         | OpenFOAM: The Open Source CFD Toolbox           |
|  \\    /   O peration     | Version:  5.0                                   |
|   \\  /    A nd           | Web:      www.OpenFOAM.org                      |
|    \\/     M anipulation  |                                                 |
\*---------------------------------------------------------------------------*/
FoamFile
{
    version     2.0;
    format      ascii;
    class       volScalarField;
    location    "0.25";
    object      nut;
}
// * * * * * * * * * * * * * * * * * * * * * * * * * * * * * * * * * * * * * //

dimensions      [0 2 -1 0 0 0 0];

internalField   nonuniform List<scalar> 
1935
(
0.0092258
0.0100883
0.0108185
0.011387
0.0117868
0.0120293
0.0121369
0.0121374
0.0120587
0.0119259
0.0117598
0.0115759
0.0113855
0.011196
0.0110119
0.0108359
0.0106693
0.0105125
0.0103657
0.0102287
0.0101014
0.00998362
0.00987514
0.00977583
0.00968555
0.00960412
0.00953132
0.00946688
0.00941042
0.00936152
0.00931968
0.00928437
0.00925497
0.00923082
0.00921119
0.00919528
0.00918221
0.00917106
0.00916093
0.00915113
0.00914148
0.00913272
0.00912684
0.00890038
0.00864637
0.00846821
0.00837729
0.00981327
0.00959392
0.0094346
0.00934438
0.0105908
0.0104042
0.0102619
0.0101702
0.0111967
0.0110351
0.0109035
0.0108061
0.0116221
0.0114758
0.0113479
0.0112411
0.0118791
0.0117396
0.0116098
0.0114913
0.0119926
0.0118539
0.0117189
0.0115889
0.0119935
0.0118521
0.0117111
0.0115714
0.0119124
0.0117674
0.0116211
0.0114745
0.0117767
0.0116287
0.011479
0.0113288
0.0116083
0.0114588
0.0113081
0.0111575
0.0114238
0.0112746
0.0111253
0.010977
0.0112346
0.0110877
0.0109418
0.010798
0.011048
0.0109052
0.0107644
0.0106266
0.0108685
0.0107311
0.0105967
0.0104662
0.0106984
0.0105676
0.0104405
0.0103179
0.0105387
0.0104153
0.0102961
0.0101818
0.0103897
0.0102742
0.0101633
0.0100573
0.0102511
0.0101439
0.0100414
0.00994389
0.0101227
0.0100239
0.00992979
0.00984057
0.0100041
0.00991374
0.00982783
0.00974663
0.00989497
0.0098128
0.00973488
0.00966137
0.00979493
0.00972071
0.00965042
0.00958418
0.00970372
0.00963707
0.00957398
0.00951454
0.00962109
0.00956151
0.00950512
0.00945195
0.00954675
0.0094937
0.00944344
0.00939599
0.00948042
0.00943328
0.00938854
0.00934624
0.00942174
0.00937986
0.00934003
0.00930228
0.00937033
0.00933304
0.00929748
0.00926369
0.00932574
0.00929238
0.00926047
0.00923006
0.00928751
0.00925741
0.00922855
0.00920097
0.00925511
0.00922765
0.00920126
0.00917597
0.00922798
0.00920259
0.00917813
0.00915465
0.00920553
0.00918169
0.00915868
0.00913657
0.00918714
0.00916441
0.00914243
0.0091213
0.00917213
0.00915017
0.00912889
0.00910842
0.00915977
0.00913836
0.00911756
0.00909753
0.00914932
0.00912841
0.00910799
0.00908825
0.0091401
0.00911979
0.00909977
0.00908032
0.00913159
0.00911212
0.00909264
0.00907354
0.00912368
0.00910532
0.00908656
0.0090679
0.00911687
0.00909976
0.00908178
0.00906362
0.0091125
0.00909631
0.00907892
0.00906113
0.00837841
0.00848752
0.00867687
0.00891927
0.00919098
0.00946944
0.00973334
0.00996354
0.0101446
0.0102664
0.0103248
0.0103222
0.0102661
0.0101676
0.0100388
0.00989098
0.00973319
0.00957126
0.009408
0.00924358
0.00907612
0.00890232
0.00871796
0.00851831
0.00829846
0.00805348
0.00777868
0.00746968
0.00712257
0.00673393
0.00630094
0.00582122
0.00529274
0.00471345
0.00408075
0.00339056
0.0026362
0.00180771
0.000902287
0.000104046
0.0093256
0.00939005
0.00951795
0.00968427
0.0098676
0.0100478
0.010207
0.0103309
0.0104094
0.0104376
0.0104161
0.0103498
0.0102472
0.0101182
0.00997245
0.00981797
0.00966046
0.00950296
0.00934614
0.00918868
0.00902784
0.00885984
0.00868032
0.00848455
0.00826772
0.00802506
0.00775202
0.00744439
0.00709838
0.00671073
0.00627872
0.00580009
0.0052729
0.00469519
0.00406444
0.00337665
0.00262519
0.00180015
0.000898632
0.000103974
0.0101287
0.0101448
0.0102059
0.0102916
0.0103843
0.0104682
0.01053
0.0105602
0.0105532
0.0105081
0.0104277
0.0103181
0.0101868
0.0100417
0.00988974
0.00973599
0.00958348
0.00943315
0.00928414
0.00913421
0.00898007
0.00881776
0.00864286
0.00845075
0.00823674
0.00799623
0.00772482
0.00741846
0.00707351
0.00668683
0.0062558
0.00577828
0.00525242
0.00467636
0.00404764
0.00336234
0.00261389
0.0017924
0.00089491
0.000103891
0.0107401
0.0107093
0.0107065
0.0107176
0.0107287
0.0107291
0.01071
0.010666
0.010595
0.0104981
0.0103794
0.0102444
0.010099
0.00994896
0.00979855
0.00965054
0.00950594
0.00936424
0.00922361
0.00908124
0.0089336
0.00877664
0.00860604
0.0084173
0.00820586
0.00796731
0.00769739
0.0073922
0.00704823
0.00666247
0.00623241
0.00575601
0.00523151
0.00465713
0.00403049
0.00334773
0.00260236
0.00178453
0.000891149
0.000103797
0.0111505
0.0110775
0.0110199
0.0109685
0.0109138
0.010849
0.0107694
0.0106727
0.0105589
0.0104304
0.0102908
0.0101446
0.00999616
0.00984887
0.00970506
0.00956572
0.0094305
0.00929794
0.00916565
0.00903053
0.00888895
0.00873693
0.00857024
0.00838452
0.0081754
0.00793859
0.00767
0.00736586
0.00702279
0.00663789
0.00620877
0.00573348
0.00521035
0.00463766
0.00401312
0.00333296
0.00259071
0.00177658
0.000887376
0.000103694
0.0113782
0.0112704
0.0111698
0.0110708
0.010968
0.0108577
0.0107378
0.0106083
0.0104703
0.0103262
0.0101791
0.0100321
0.00988781
0.00974807
0.00961366
0.00948434
0.00935891
0.00923535
0.00911096
0.00898254
0.0088465
0.00869892
0.00853572
0.00835269
0.00814559
0.00791031
0.00764288
0.00733966
0.0069974
0.0066133
0.00618508
0.00571087
0.00518909
0.0046181
0.00399568
0.00331811
0.00257902
0.00176861
0.000883615
0.000103581
0.011457
0.0113229
0.0111915
0.0110601
0.010926
0.0107877
0.0106451
0.010499
0.010351
0.0102032
0.0100577
0.00991646
0.0097807
0.009651
0.00952715
0.00940812
0.0092922
0.00917706
0.00905992
0.00893756
0.00880644
0.0086628
0.00850267
0.00832197
0.00811664
0.00788267
0.00761623
0.00731381
0.00697225
0.00658889
0.00616151
0.00568835
0.00516789
0.00459859
0.00397827
0.0033033
0.00256736
0.00176068
0.000879889
0.00010346
0.0114256
0.0112737
0.0111229
0.0109722
0.010821
0.0106691
0.010517
0.0103663
0.0102182
0.0100745
0.0099362
0.00980431
0.00967911
0.00956034
0.00944711
0.00933792
0.00923082
0.00912334
0.00901268
0.00889568
0.0087689
0.00862869
0.00847121
0.00829253
0.00808869
0.00785582
0.00759022
0.00728847
0.00694753
0.00656482
0.00613822
0.00566606
0.0051469
0.00457925
0.00396101
0.00328862
0.0025558
0.00175283
0.000876222
0.000103332
0.0113201
0.0111582
0.0109974
0.0108381
0.0106805
0.0105254
0.0103735
0.0102259
0.010084
0.00994868
0.00982047
0.00969949
0.00958541
0.0094774
0.00937418
0.00927404
0.00917486
0.00907419
0.00896923
0.0088569
0.00873389
0.00859663
0.00844143
0.00826445
0.00806187
0.00782991
0.00756498
0.00726378
0.00692336
0.00654123
0.00611536
0.00564414
0.00512623
0.00456019
0.00394399
0.00327413
0.0025444
0.0017451
0.000872631
0.000103198
0.0111706
0.0110051
0.0108418
0.0106816
0.0105253
0.0103737
0.0102277
0.0100882
0.00995574
0.00983091
0.00971376
0.0096039
0.00950055
0.00940256
0.00930845
0.00921637
0.00912419
0.00902945
0.00892944
0.00882116
0.00870138
0.00856665
0.00841336
0.00823781
0.00803625
0.00780503
0.00754064
0.00723987
0.00689988
0.00651825
0.00609304
0.00562271
0.00510599
0.00454151
0.0039273
0.00325992
0.00253321
0.00173753
0.000869132
0.000103057
0.0109996
0.0108354
0.010675
0.0105191
0.0103689
0.010225
0.0100881
0.00995881
0.00983732
0.00972362
0.00961742
0.0095181
0.00942462
0.00933565
0.0092496
0.00916459
0.00907849
0.00898889
0.00889314
0.00878833
0.0086713
0.0085387
0.00838702
0.00821264
0.00801191
0.00778125
0.00751727
0.00721684
0.00687718
0.00649598
0.00607137
0.00560187
0.00508628
0.00452329
0.00391101
0.00324603
0.00252227
0.00173013
0.000865731
0.000102911
0.0108226
0.0106634
0.0105092
0.010361
0.0102195
0.0100854
0.00995905
0.0098407
0.00973027
0.00962743
0.00953158
0.00944185
0.00935719
0.00927617
0.00919715
0.00911827
0.00903741
0.00895222
0.00886012
0.00875825
0.00864355
0.00851274
0.00836239
0.00818895
0.00798887
0.00775865
0.00749496
0.00719476
0.00685536
0.00647452
0.00605044
0.00558171
0.00506718
0.00450562
0.00389517
0.00323251
0.00251162
0.00172292
0.00086243
0.00010276
0.0106494
0.0104975
0.0103517
0.0102128
0.0100813
0.00995778
0.00984225
0.00973468
0.00963477
0.00954198
0.00945555
0.00937448
0.00929757
0.00922346
0.00915052
0.00907691
0.00900055
0.00891914
0.00883014
0.00873077
0.00861804
0.00848872
0.00833945
0.00816676
0.00796717
0.00773725
0.00747375
0.0071737
0.00683449
0.00645394
0.00603033
0.0055623
0.00504877
0.00448856
0.00387986
0.00321942
0.00250127
0.00171591
0.00085923
0.000102605
0.0104854
0.0103423
0.010206
0.0100771
0.00995602
0.00984297
0.00973788
0.00964045
0.00955022
0.0094665
0.00938844
0.00931499
0.00924493
0.00917685
0.00910914
0.00904005
0.00896753
0.00888934
0.00880298
0.00870573
0.00859464
0.00846655
0.00831816
0.00814606
0.00794682
0.00771709
0.0074537
0.00715372
0.00681464
0.00643432
0.00601111
0.00554372
0.00503112
0.00447217
0.00386513
0.0032068
0.00249128
0.00170913
0.000856141
0.000102448
0.0103333
0.0101996
0.0100731
0.00995441
0.00984356
0.00974058
0.00964524
0.00955711
0.00947561
0.00939998
0.00932931
0.00926253
0.00919841
0.00913557
0.00907244
0.00900723
0.008938
0.00886255
0.00877844
0.00868297
0.00857325
0.00844617
0.00829848
0.00812682
0.00792782
0.0076982
0.00743483
0.00713487
0.00679585
0.00641571
0.00599284
0.00552603
0.00501428
0.00445652
0.00385104
0.00319471
0.0024817
0.00170261
0.000853182
0.000102291
0.0101937
0.0100697
0.00995321
0.00984436
0.00974323
0.00964964
0.00956325
0.00948354
0.00940984
0.00934137
0.00927719
0.00921623
0.00915729
0.00909899
0.00903981
0.008978
0.00891163
0.00883852
0.00875631
0.00866234
0.00855376
0.00842751
0.00828036
0.00810902
0.00791017
0.00768058
0.00741717
0.00711717
0.00677817
0.00639816
0.00597559
0.0055093
0.00499834
0.00444167
0.00383766
0.00318321
0.00247257
0.00169641
0.000850372
0.000102136
0.0100666
0.00995229
0.00984536
0.00974594
0.0096539
0.00956898
0.00949074
0.00941859
0.00935185
0.0092897
0.00923122
0.00917535
0.0091209
0.00906655
0.00901079
0.00895192
0.00888803
0.00881699
0.00873642
0.00864371
0.00853608
0.00841049
0.00826376
0.00809265
0.00789387
0.00766424
0.00740075
0.00710067
0.00676164
0.00638172
0.00595941
0.00549358
0.00498334
0.00442769
0.00382505
0.00317236
0.00246395
0.00169054
0.000847727
0.000101983
0.00995121
0.00984629
0.00974856
0.00965801
0.00957442
0.00949743
0.00942656
0.0093612
0.00930065
0.00924409
0.00919062
0.00913921
0.0090887
0.00903778
0.00898499
0.00892866
0.00886691
0.00879764
0.00871851
0.00862694
0.00852012
0.00839506
0.00824865
0.00807768
0.00787891
0.00764919
0.00738558
0.00708539
0.00674631
0.00636644
0.00594434
0.00547892
0.00496933
0.00441463
0.00381325
0.00316221
0.00245588
0.00168506
0.000845259
0.000101835
0.00984657
0.00975071
0.00966171
0.00957945
0.00950364
0.00943389
0.00936969
0.00931042
0.00925538
0.00920378
0.00915473
0.00910724
0.00906017
0.00901226
0.00896206
0.00890794
0.00884805
0.00878031
0.00870241
0.00861179
0.00850568
0.00838111
0.00823499
0.00806411
0.00786528
0.00763545
0.00737169
0.00707135
0.00673219
0.00635234
0.00593041
0.00546536
0.00495637
0.00440252
0.00380231
0.00315279
0.00244838
0.00167996
0.00084297
0.000101691
0.00975178
0.00966457
0.00958377
0.00950921
0.00944056
0.00937741
0.00931922
0.00926542
0.0092153
0.0091681
0.00912297
0.00907893
0.00903489
0.00898962
0.00894169
0.0088895
0.00883123
0.00876482
0.00868798
0.00859817
0.00849266
0.00836849
0.00822259
0.00805179
0.00785296
0.00762301
0.00735909
0.0070586
0.00671932
0.00633947
0.00591768
0.00545294
0.00494448
0.00439142
0.00379227
0.00314413
0.00244148
0.00167524
0.000840823
0.000101554
0.009666
0.00958695
0.00951382
0.00944638
0.0093843
0.00932714
0.00927439
0.00922549
0.00917977
0.0091365
0.00909484
0.00905386
0.00901251
0.00896956
0.00892363
0.00887314
0.00881629
0.00875103
0.00867511
0.008586
0.00848099
0.00835714
0.00821141
0.00804067
0.00784178
0.00761173
0.00734767
0.00704705
0.0067077
0.00632785
0.00590617
0.0054417
0.0049337
0.00438133
0.00378313
0.00313622
0.00243513
0.00167078
0.000838591
0.000101439
0.00958847
0.00951708
0.00945106
0.00939018
0.00933408
0.00928237
0.00923454
0.00919004
0.00914826
0.00910848
0.00906992
0.00903167
0.00899269
0.00895181
0.00890765
0.00885866
0.00880306
0.00873883
0.00866371
0.00857521
0.00847062
0.00834705
0.00820145
0.00803073
0.00783178
0.00760161
0.00733741
0.00703666
0.00669722
0.00631736
0.00589579
0.00543158
0.004924
0.00437226
0.00377491
0.00312911
0.00242941
0.00166678
0.000836636
0.000101338
0.00951853
0.00945425
0.0093948
0.00933992
0.00928928
0.00924249
0.00919909
0.00915856
0.0091203
0.00908365
0.00904785
0.00901203
0.00897517
0.00893612
0.00889354
0.00884589
0.0087914
0.00872808
0.00865367
0.00856571
0.0084615
0.00833816
0.00819268
0.00802196
0.00782295
0.00759266
0.00732832
0.00702746
0.00668794
0.00630807
0.0058866
0.00542261
0.00491542
0.00436424
0.00376766
0.00312286
0.00242441
0.00166331
0.000834985
0.000101246
0.00945561
0.00939789
0.00934445
0.00929503
0.00924933
0.00920699
0.00916758
0.0091306
0.0090955
0.00906165
0.00902832
0.00899466
0.00895969
0.00892229
0.00888113
0.00883467
0.00878119
0.00871868
0.00864492
0.00855745
0.00845358
0.00833045
0.00818507
0.00801437
0.0078153
0.00758491
0.00732045
0.00701947
0.00667988
0.00630001
0.00587862
0.00541484
0.00490799
0.00435731
0.00376141
0.00311749
0.00242014
0.00166038
0.000833628
0.000101159
0.0093992
0.00934747
0.00929948
0.009255
0.00921376
0.00917542
0.00913958
0.00910578
0.00907351
0.00904216
0.00901103
0.00897932
0.00894605
0.00891012
0.00887023
0.00882486
0.00877228
0.00871052
0.00863735
0.00855033
0.00844679
0.00832387
0.00817859
0.00800792
0.00780881
0.00757834
0.00731379
0.00701272
0.00667307
0.00629319
0.00587188
0.00540828
0.00490173
0.00435149
0.00375618
0.00311302
0.00241662
0.001658
0.000832551
0.000101078
0.00934885
0.00930252
0.00925943
0.0092194
0.00918215
0.00914738
0.00911473
0.00908377
0.00905403
0.00902491
0.00899576
0.00896578
0.00893404
0.00889945
0.0088607
0.00881632
0.00876457
0.0087035
0.00863088
0.00854429
0.00844107
0.00831836
0.00817321
0.00800258
0.00780346
0.00757295
0.00730833
0.00700719
0.0066675
0.00628763
0.00586639
0.00540294
0.00489664
0.00434677
0.00375195
0.00310943
0.00241381
0.00165613
0.000831743
0.000101002
0.00930411
0.00926261
0.0092239
0.00918781
0.00915411
0.00912252
0.00909271
0.00906428
0.00903678
0.00900967
0.00898228
0.00895386
0.0089235
0.0088901
0.00885241
0.00880893
0.00875795
0.00869751
0.00862543
0.00853926
0.00843634
0.00831387
0.00816886
0.00799831
0.00779922
0.00756869
0.00730404
0.00700287
0.00666316
0.0062833
0.00586212
0.0053988
0.00489271
0.00434314
0.00374872
0.00310671
0.00241172
0.00165478
0.000831195
0.000100933
0.00926458
0.00922734
0.00919249
0.00915988
0.00912931
0.00910052
0.00907322
0.00904703
0.00902153
0.00899619
0.00897039
0.00894338
0.00891425
0.00888195
0.00884521
0.00880256
0.0087523
0.00869248
0.0086209
0.00853514
0.00843256
0.00831033
0.0081655
0.00799506
0.00779604
0.00756554
0.00730089
0.00699971
0.00666001
0.00628018
0.00585906
0.00539584
0.00488992
0.00434057
0.00374647
0.00310484
0.00241032
0.00165392
0.000830898
0.00010087
0.00922986
0.00919631
0.00916482
0.00913525
0.00910741
0.00908109
0.00905599
0.00903178
0.00900805
0.0089843
0.00895991
0.00893415
0.00890615
0.00887484
0.00883899
0.00879711
0.00874753
0.00868829
0.00861721
0.00853187
0.00842963
0.00830767
0.00816305
0.00799278
0.00779386
0.00756343
0.00729883
0.00699769
0.00665801
0.00627822
0.00585716
0.00539403
0.00488823
0.00433905
0.00374516
0.0031038
0.00240959
0.00165354
0.00083084
0.000100814
0.00919953
0.00916915
0.00914055
0.00911359
0.00908812
0.00906393
0.00904076
0.00901829
0.00899612
0.00897377
0.00895065
0.00892603
0.00889905
0.00886866
0.00883362
0.00879248
0.00874354
0.00868487
0.00861428
0.00852937
0.00842749
0.00830584
0.00816147
0.00799139
0.00779262
0.00756232
0.00729781
0.00699674
0.00665712
0.00627739
0.00585638
0.00539332
0.00488761
0.00433853
0.00374477
0.00310355
0.00240951
0.00165362
0.00083101
0.000100766
0.00917319
0.00914549
0.00911932
0.00909458
0.00907114
0.00904879
0.00902729
0.00900634
0.00898555
0.00896445
0.00894246
0.00891887
0.00889282
0.00886327
0.008829
0.00878854
0.00874023
0.00868211
0.00861203
0.00852756
0.00842607
0.00830475
0.00816067
0.00799083
0.00779228
0.00756214
0.00729777
0.00699681
0.00665728
0.00627762
0.00585668
0.00539367
0.00488801
0.00433897
0.00374525
0.00310407
0.00241005
0.00165414
0.000831395
0.000100725
0.00915046
0.00912494
0.00910079
0.00907792
0.00905618
0.0090354
0.00901534
0.00899571
0.00897613
0.00895614
0.00893517
0.00891251
0.00888732
0.00885856
0.008825
0.00878521
0.0087375
0.00867994
0.00861036
0.00852635
0.00842527
0.00830433
0.00816058
0.00799104
0.00779274
0.00756282
0.00729863
0.00699783
0.00665842
0.00627885
0.00585798
0.00539502
0.00488937
0.00434032
0.00374656
0.00310531
0.00241117
0.00165506
0.000831979
0.000100691
0.00913092
0.00910717
0.00908465
0.0090633
0.00904298
0.00902352
0.00900469
0.00898621
0.00896769
0.00894869
0.00892864
0.00890683
0.00888243
0.0088544
0.00882153
0.00878238
0.00873526
0.00867826
0.0086092
0.00852567
0.00842504
0.0083045
0.00816113
0.00799193
0.00779393
0.00756428
0.00730032
0.00699971
0.00666046
0.00628101
0.00586022
0.00539728
0.00489162
0.00434252
0.00374865
0.00310723
0.00241284
0.00165637
0.000832747
0.000100666
0.0091142
0.0090918
0.00907057
0.00905044
0.00903128
0.00901292
0.00899514
0.00897764
0.00896006
0.00894194
0.00892272
0.00890169
0.00887803
0.0088507
0.00881848
0.00877995
0.00873342
0.00867698
0.00860845
0.00852542
0.00842526
0.00830517
0.00816222
0.0079934
0.00779576
0.00756642
0.00730275
0.00700237
0.00666331
0.006284
0.00586329
0.00540039
0.00489469
0.00434549
0.00375144
0.00310976
0.002415
0.00165803
0.000833678
0.000100648
0.00909992
0.00907852
0.00905827
0.00903908
0.00902085
0.0090034
0.0089865
0.00896985
0.00895309
0.00893576
0.00891729
0.00889699
0.00887401
0.00884734
0.00881576
0.00877784
0.0087319
0.00867601
0.00860802
0.00852552
0.00842586
0.00830625
0.00816375
0.00799537
0.00779812
0.00756915
0.0073058
0.0070057
0.00666686
0.00628772
0.0058671
0.00540423
0.00489848
0.00434913
0.00375485
0.00311282
0.00241759
0.00165998
0.000834749
0.000100638
0.00908771
0.00906702
0.00904747
0.00902901
0.00901151
0.00899479
0.00897863
0.00896271
0.00894667
0.00893005
0.00891227
0.00889264
0.00887031
0.00884427
0.0088133
0.00877597
0.0087306
0.00867528
0.00860785
0.00852588
0.00842675
0.00830764
0.00816563
0.00799771
0.0078009
0.00757233
0.00730934
0.00700955
0.00667097
0.00629201
0.00587151
0.00540866
0.00490284
0.00435333
0.00375877
0.00311633
0.00242054
0.00166217
0.000835928
0.000100634
0.00907725
0.00905703
0.00903798
0.00902004
0.0090031
0.00898698
0.00897143
0.00895614
0.00894074
0.00892475
0.00890759
0.00888858
0.00886686
0.00884142
0.00881104
0.00877428
0.00872948
0.00867472
0.00860784
0.00852641
0.00842782
0.00830924
0.00816774
0.00800031
0.00780397
0.00757583
0.00731323
0.00701378
0.00667547
0.00629672
0.00587634
0.00541352
0.00490764
0.00435794
0.00376306
0.00312016
0.00242374
0.00166453
0.000837174
0.000100637
0.00906827
0.00904835
0.00902964
0.00901209
0.00899558
0.00897993
0.00896488
0.00895013
0.00893528
0.00891986
0.00890327
0.00888483
0.00886367
0.00883879
0.00880896
0.00877275
0.0087285
0.00867429
0.00860794
0.00852705
0.00842899
0.00831094
0.00816996
0.00800303
0.00780716
0.00757947
0.00731728
0.00701819
0.00668018
0.00630164
0.0058814
0.00541861
0.00491265
0.00436275
0.00376753
0.00312414
0.00242705
0.00166695
0.00083843
0.000100644
0.00906056
0.00904087
0.00902239
0.00900512
0.00898894
0.00897367
0.00895904
0.00894474
0.00893037
0.00891544
0.00889936
0.00888142
0.00886078
0.0088364
0.00880709
0.00877139
0.00872765
0.00867394
0.00860811
0.00852773
0.00843018
0.00831264
0.00817216
0.00800572
0.00781032
0.00758308
0.00732129
0.00702256
0.00668484
0.00630653
0.00588643
0.00542368
0.00491763
0.00436752
0.00377195
0.00312805
0.00243027
0.00166927
0.000839608
0.000100652
0.00905403
0.00903454
0.00901626
0.0089992
0.00898328
0.0089683
0.00895402
0.00894009
0.00892612
0.0089116
0.00889596
0.00887846
0.00885826
0.00883433
0.00880546
0.00877022
0.00872693
0.00867368
0.00860831
0.00852839
0.00843131
0.00831423
0.00817421
0.00800823
0.00781327
0.00758644
0.00732503
0.00702664
0.00668921
0.00631111
0.00589114
0.00542841
0.00492228
0.00437196
0.00377603
0.00313161
0.00243314
0.00167127
0.000840572
0.000100657
0.0090487
0.00902943
0.00901133
0.00899446
0.00897873
0.00896399
0.00894997
0.00893634
0.00892268
0.0089085
0.0088932
0.00887606
0.00885622
0.00883266
0.00880416
0.00876928
0.00872637
0.0086735
0.00860851
0.00852898
0.00843229
0.00831561
0.00817598
0.00801039
0.00781581
0.00758934
0.00732826
0.00703017
0.00669298
0.00631507
0.0058952
0.00543249
0.00492627
0.00437572
0.00377942
0.00313447
0.00243531
0.00167264
0.000841126
0.00010065
0.00904475
0.0090257
0.00900777
0.00899105
0.00897548
0.00896091
0.00894708
0.00893366
0.00892023
0.00890629
0.00889123
0.00887435
0.00885477
0.00883147
0.00880323
0.00876863
0.00872598
0.00867339
0.00860868
0.00852944
0.00843304
0.00831666
0.00817732
0.00801202
0.00781772
0.00759153
0.00733071
0.00703284
0.00669584
0.00631807
0.00589828
0.00543557
0.00492924
0.00437848
0.0037818
0.00313631
0.00243642
0.00167289
0.000840749
0.000100621
0.00904251
0.00902362
0.00900581
0.00898918
0.00897371
0.00895924
0.00894551
0.0089322
0.00891889
0.00890508
0.00889016
0.00887341
0.00885397
0.00883081
0.00880272
0.00876826
0.00872577
0.00867333
0.00860878
0.0085297
0.00843346
0.00831723
0.00817806
0.00801292
0.00781879
0.00759275
0.00733208
0.00703434
0.00669746
0.00631977
0.00590002
0.00543731
0.00493092
0.00438
0.00378306
0.00313715
0.00243666
0.00167237
0.000839738
0.000100533
)
;

boundaryField
{
    leftWall
    {
        type            nutkWallFunction;
        Cmu             0.09;
        kappa           0.41;
        E               9.8;
        value           nonuniform 0();
    }
    rightWall
    {
        type            nutkWallFunction;
        Cmu             0.09;
        kappa           0.41;
        E               9.8;
        value           nonuniform List<scalar> 
43
(
5.57003e-06
5.55877e-06
5.54591e-06
5.53151e-06
5.51561e-06
5.49833e-06
5.47981e-06
5.46022e-06
5.43965e-06
5.41818e-06
5.39579e-06
5.3726e-06
5.34885e-06
5.32489e-06
5.30102e-06
5.27744e-06
5.2543e-06
5.23177e-06
5.20999e-06
5.1892e-06
5.17161e-06
5.15631e-06
5.14218e-06
5.12887e-06
5.11637e-06
5.10474e-06
5.09406e-06
5.08437e-06
5.07576e-06
5.06827e-06
5.06193e-06
5.05679e-06
5.05286e-06
5.05012e-06
5.04854e-06
5.04805e-06
5.04848e-06
5.04957e-06
5.0509e-06
5.05173e-06
5.0508e-06
5.04646e-06
5.03318e-06
)
;
    }
    lowerWall
    {
        type            nutkWallFunction;
        Cmu             0.09;
        kappa           0.41;
        E               9.8;
        value           nonuniform 0();
    }
    atmosphere
    {
        type            calculated;
        value           nonuniform List<scalar> 
45
(
0.00912684
0.0091125
0.00909631
0.00907892
0.00906113
0.00904251
0.00902362
0.00900581
0.00898918
0.00897371
0.00895924
0.00894551
0.0089322
0.00891889
0.00890508
0.00889016
0.00887341
0.00885397
0.00883081
0.00880272
0.00876826
0.00872577
0.00867333
0.00860878
0.0085297
0.00843346
0.00831723
0.00817806
0.00801292
0.00781879
0.00759275
0.00733208
0.00703434
0.00669746
0.00631977
0.00590002
0.00543731
0.00493092
0.00438
0.00378306
0.00313715
0.00243666
0.00167237
0.000839738
0.000100533
)
;
    }
    defaultFaces
    {
        type            empty;
    }
    procBoundary3to1
    {
        type            processor;
        value           nonuniform List<scalar> 
45
(
0.00828282
0.00791537
0.00763493
0.00744429
0.00735533
0.00737396
0.00751792
0.00775314
0.0080535
0.00839656
0.00876042
0.00912238
0.00945968
0.00975144
0.00998093
0.0101377
0.0102187
0.0102286
0.0101775
0.0100792
0.00994821
0.00979696
0.00963486
0.00946761
0.00929747
0.00912393
0.00894445
0.00875519
0.00855153
0.00832851
0.00808109
0.00780444
0.00749402
0.00714577
0.00675616
0.00632221
0.00584145
0.00531175
0.00473097
0.00409641
0.00340394
0.0026468
0.00181502
0.000905844
0.000104107
)
;
    }
    procBoundary3to2
    {
        type            processor;
        value           nonuniform List<scalar> 
43
(
0.00960748
0.0104057
0.0110767
0.0115975
0.0119636
0.0121855
0.0122831
0.0122808
0.0122036
0.012074
0.011911
0.0117291
0.0115389
0.0113477
0.0111602
0.0109791
0.0108062
0.0106421
0.0104872
0.0103416
0.0102055
0.0100787
0.00996136
0.00985345
0.00975497
0.00966589
0.00958608
0.00951534
0.00945336
0.00939973
0.00935395
0.00931544
0.00928353
0.00925748
0.00923645
0.00921947
0.00920549
0.00919334
0.00918185
0.00917008
0.00915776
0.00914589
0.00913752
)
;
    }
}


// ************************************************************************* //
