/*--------------------------------*- C++ -*----------------------------------*\
| =========                 |                                                 |
| \\      /  F ield         | OpenFOAM: The Open Source CFD Toolbox           |
|  \\    /   O peration     | Version:  5.0                                   |
|   \\  /    A nd           | Web:      www.OpenFOAM.org                      |
|    \\/     M anipulation  |                                                 |
\*---------------------------------------------------------------------------*/
FoamFile
{
    version     2.0;
    format      ascii;
    class       volScalarField;
    location    "0.25";
    object      p_rgh;
}
// * * * * * * * * * * * * * * * * * * * * * * * * * * * * * * * * * * * * * //

dimensions      [1 -1 -2 0 0 0 0];

internalField   nonuniform List<scalar> 
1935
(
-0.50151
-0.460139
-0.42367
-0.390715
-0.360795
-0.333892
-0.30986
-0.288203
-0.268183
-0.249122
-0.230676
-0.212896
-0.196073
-0.180549
-0.166567
-0.154193
-0.14332
-0.133704
-0.125013
-0.116881
-0.108969
-0.101024
-0.0929046
-0.0845915
-0.0761756
-0.0678243
-0.0597355
-0.0520933
-0.0450421
-0.038675
-0.0330286
-0.0280861
-0.0237889
-0.020054
-0.0167874
-0.013895
-0.0112911
-0.00890341
-0.00667271
-0.00456322
-0.00256398
-0.00047867
0.00176302
-0.381979
-0.261763
-0.141978
-0.0272689
-0.356182
-0.252695
-0.150182
-0.0518339
-0.333112
-0.243512
-0.154877
-0.0695745
-0.311499
-0.233436
-0.15618
-0.0815977
-0.291104
-0.222638
-0.154867
-0.0893161
-0.272188
-0.211734
-0.151951
-0.0940667
-0.254921
-0.201207
-0.14816
-0.0967109
-0.239077
-0.191069
-0.143662
-0.0975423
-0.224095
-0.180948
-0.13827
-0.096614
-0.209425
-0.170484
-0.131885
-0.0941333
-0.194853
-0.159663
-0.124742
-0.0905778
-0.180558
-0.148816
-0.117324
-0.0865227
-0.166928
-0.138396
-0.1101
-0.0824032
-0.154331
-0.12874
-0.103342
-0.0784116
-0.142973
-0.119981
-0.0971118
-0.0745642
-0.132881
-0.1121
-0.0913644
-0.0708348
-0.123944
-0.105
-0.0860469
-0.067236
-0.115969
-0.0985586
-0.0811184
-0.0638052
-0.108702
-0.0926197
-0.0765103
-0.0605372
-0.101859
-0.0869829
-0.0720885
-0.0573386
-0.0951534
-0.0814169
-0.0676606
-0.0540427
-0.0883508
-0.0757081
-0.0630326
-0.0504738
-0.0813112
-0.0697201
-0.0580776
-0.0465213
-0.0740137
-0.0634306
-0.0527794
-0.0421847
-0.0665499
-0.0569311
-0.0472357
-0.0375733
-0.0590913
-0.0503938
-0.0416217
-0.0328675
-0.0518418
-0.0440222
-0.0361382
-0.0282634
-0.0449918
-0.0380026
-0.0309631
-0.0239266
-0.0386862
-0.0324723
-0.0262213
-0.0199684
-0.0330115
-0.0275085
-0.0219792
-0.0164438
-0.0279972
-0.0231339
-0.0182531
-0.0133635
-0.0236254
-0.0193303
-0.0150244
-0.0107092
-0.0198433
-0.0160514
-0.0122537
-0.00844813
-0.016577
-0.0132352
-0.00989116
-0.0065424
-0.0137441
-0.0108144
-0.00788469
-0.00495415
-0.0112634
-0.00872313
-0.00618389
-0.00364702
-0.00906181
-0.00690188
-0.00474217
-0.00258624
-0.00707707
-0.00529864
-0.00351755
-0.00173898
-0.00525814
-0.00387029
-0.00247421
-0.00107599
-0.00357472
-0.00258983
-0.00158756
-0.000574509
-0.00202102
-0.00145057
-0.00084786
-0.000221972
-0.00046923
-0.000373289
-0.000214227
-9.9527e-06
0.0011769
0.000725466
0.000371013
9.85372e-05
0.0831171
0.182096
0.263259
0.326806
0.374034
0.407127
0.428763
0.441733
0.448587
0.451429
0.451842
0.450906
0.449269
0.447271
0.445075
0.442763
0.440397
0.438047
0.435792
0.433703
0.431833
0.430207
0.428826
0.427672
0.426723
0.425965
0.425392
0.425007
0.424814
0.424816
0.425005
0.425369
0.42589
0.42655
0.427332
0.428233
0.429266
0.430482
0.43186
0.433118
0.0437378
0.131324
0.205371
0.265722
0.313001
0.348614
0.374406
0.392379
0.404457
0.412307
0.417251
0.420244
0.421915
0.422654
0.422705
0.422244
0.421423
0.420385
0.419257
0.418143
0.417113
0.416203
0.415428
0.414788
0.41428
0.413908
0.413681
0.413608
0.413695
0.413941
0.414338
0.414869
0.415517
0.416265
0.417106
0.418037
0.419081
0.420286
0.421634
0.422856
0.0139493
0.0917755
0.15915
0.215789
0.261964
0.298573
0.326878
0.348294
0.364225
0.375939
0.384488
0.390679
0.395102
0.398174
0.400208
0.401451
0.402115
0.402379
0.402393
0.402269
0.402084
0.401891
0.40172
0.401596
0.401541
0.401575
0.401718
0.40198
0.402365
0.402867
0.403473
0.404167
0.404934
0.405763
0.406654
0.407611
0.408659
0.40985
0.411164
0.412345
-0.00815604
0.0611742
0.122348
0.175083
0.219482
0.256091
0.285726
0.309345
0.327941
0.342455
0.353712
0.362393
0.369041
0.374083
0.377864
0.380668
0.382729
0.384239
0.385351
0.38618
0.386812
0.387316
0.387744
0.388145
0.388559
0.38902
0.389551
0.390161
0.390851
0.39161
0.392422
0.393275
0.394156
0.395064
0.396002
0.396983
0.398033
0.399205
0.400479
0.401614
-0.0244769
0.0374316
0.0929909
0.141946
0.184266
0.220233
0.250324
0.275154
0.295413
0.311803
0.324983
0.335533
0.343945
0.350634
0.35594
0.360148
0.363488
0.366147
0.368273
0.369986
0.371386
0.372557
0.373575
0.374505
0.375402
0.376304
0.377233
0.378196
0.379188
0.380197
0.381208
0.382212
0.383203
0.384185
0.38517
0.386174
0.387226
0.388376
0.389607
0.390691
-0.0365371
0.0190085
0.0696463
0.115112
0.155234
0.190096
0.219952
0.245189
0.266299
0.283821
0.298292
0.310207
0.320003
0.328052
0.334665
0.3401
0.344569
0.348246
0.351278
0.353791
0.355898
0.357703
0.359298
0.360759
0.362144
0.363491
0.364818
0.366128
0.367412
0.368658
0.369856
0.371001
0.372095
0.37315
0.37418
0.375207
0.37626
0.377387
0.378571
0.379601
-0.0452722
0.00492182
0.0512875
0.0935311
0.131373
0.164763
0.193835
0.218859
0.240206
0.258307
0.2736
0.286496
0.297362
0.306511
0.314207
0.320673
0.326097
0.330644
0.334461
0.337685
0.340442
0.342849
0.345006
0.346992
0.348861
0.350646
0.352359
0.353999
0.355556
0.357022
0.358391
0.359665
0.360856
0.361979
0.363055
0.364105
0.365159
0.366263
0.367398
0.368371
-0.051151
-0.00549958
0.0370641
0.076229
0.111683
0.143321
0.171225
0.195614
0.216789
0.235093
0.250873
0.264452
0.276117
0.286117
0.294666
0.301953
0.308149
0.313415
0.317902
0.321755
0.325111
0.32809
0.330791
0.333286
0.335623
0.337826
0.339901
0.341845
0.34365
0.345313
0.346836
0.34823
0.349511
0.3507
0.35182
0.352894
0.35395
0.355029
0.356114
0.357028
-0.0545314
-0.0129044
0.0261243
0.0622669
0.0952448
0.124968
0.151502
0.175029
0.195793
0.214056
0.230076
0.244087
0.2563
0.266905
0.276075
0.283976
0.290771
0.296619
0.301676
0.306092
0.310003
0.313523
0.316742
0.31972
0.322495
0.325082
0.327483
0.329697
0.33172
0.333556
0.335216
0.336718
0.338083
0.339336
0.340501
0.3416
0.342659
0.343712
0.344746
0.345599
-0.0559279
-0.0180353
0.0176183
0.050807
0.0813199
0.109104
0.134223
0.156808
0.177034
0.195086
0.211138
0.22535
0.237869
0.248843
0.258418
0.26675
0.273995
0.280315
0.285864
0.290788
0.295213
0.299238
0.302938
0.306359
0.309527
0.312453
0.315136
0.31758
0.319788
0.321773
0.323554
0.325155
0.3266
0.327916
0.329126
0.33025
0.33131
0.332338
0.333318
0.334109
-0.0559936
-0.0216228
0.0108353
0.0412305
0.0694157
0.0953605
0.119107
0.140735
0.160344
0.17804
0.193931
0.208123
0.220725
0.231859
0.241659
0.250274
0.257859
0.264569
0.270551
0.275936
0.280829
0.285314
0.289443
0.293252
0.296757
0.299966
0.302882
0.305514
0.307876
0.309988
0.311875
0.313566
0.315088
0.316465
0.31772
0.318868
0.31993
0.320931
0.321857
0.322584
-0.0553203
-0.0242105
0.00531985
0.0331794
0.0592563
0.0835141
0.105958
0.126614
0.145518
0.162716
0.178267
0.192246
0.204745
0.215877
0.22577
0.234567
0.242416
0.249458
0.255823
0.261617
0.266926
0.271808
0.276302
0.28043
0.284206
0.287638
0.290736
0.293517
0.296003
0.298222
0.300204
0.301978
0.303573
0.30501
0.306309
0.307481
0.308542
0.309514
0.310385
0.311049
-0.0542711
-0.0260792
0.000859067
0.0264793
0.0506732
0.0733799
0.0945654
0.11421
0.132307
0.148869
0.163931
0.177553
0.189821
0.200845
0.21075
0.219667
0.227729
0.235056
0.241751
0.247895
0.253549
0.258753
0.263533
0.267906
0.271883
0.275478
0.278711
0.281605
0.28419
0.2865
0.288566
0.290419
0.292084
0.293579
0.294918
0.296112
0.29717
0.298111
0.298927
0.299526
-0.0529729
-0.0273205
-0.00263986
0.0210034
0.0434884
0.064729
0.0846619
0.103241
0.12044
0.13626
0.150731
0.163911
0.175884
0.186751
0.196627
0.205628
0.213862
0.221422
0.228384
0.234803
0.240719
0.246158
0.251139
0.255677
0.259787
0.263492
0.266817
0.269795
0.27246
0.274848
0.276991
0.278917
0.280648
0.282197
0.283573
0.284783
0.285834
0.286744
0.287503
0.28804
-0.0514375
-0.0279806
-0.00528469
0.0165733
0.0374612
0.0572789
0.0759513
0.0934251
0.109674
0.124703
0.138544
0.151255
0.162915
0.173612
0.183442
0.192497
0.200856
0.208586
0.215736
0.22234
0.228424
0.234007
0.239103
0.243732
0.247916
0.251684
0.255068
0.258107
0.260837
0.263294
0.265507
0.267501
0.269292
0.270889
0.272296
0.273517
0.274557
0.275431
0.276134
0.276609
-0.0496931
-0.0281628
-0.00725432
0.0129491
0.0323156
0.0507464
0.0681706
0.0845433
0.099848
0.114096
0.127322
0.139581
0.150937
0.161463
0.171228
0.180296
0.18872
0.196539
0.203784
0.210476
0.216632
0.222268
0.227402
0.232059
0.236267
0.240062
0.243482
0.246565
0.249349
0.251867
0.254143
0.256198
0.258041
0.259677
0.261107
0.262331
0.263355
0.264191
0.264837
0.265252
-0.0478281
-0.0280265
-0.00875998
0.00989372
0.0278157
0.0449206
0.0611524
0.0764804
0.0908982
0.104421
0.117079
0.128917
0.139982
0.150324
0.159986
0.169007
0.177415
0.185232
0.192474
0.199156
0.205293
0.210903
0.216011
0.220646
0.224843
0.228641
0.232079
0.235195
0.238024
0.240594
0.242925
0.245031
0.246915
0.24858
0.250023
0.251243
0.252244
0.253038
0.253627
0.253985
-0.0459433
-0.0277142
-0.00996141
0.00725327
0.0238324
0.0397102
0.0548474
0.0692251
0.0828413
0.0957081
0.107847
0.119286
0.130054
0.140176
0.149676
0.158569
0.166868
0.174585
0.181729
0.188314
0.194356
0.199879
0.204912
0.209491
0.213652
0.217436
0.220881
0.224022
0.226888
0.229501
0.231876
0.234019
0.235932
0.237612
0.239056
0.240262
0.241235
0.241985
0.242517
0.24282
-0.0440724
-0.0272755
-0.0109051
0.00499869
0.0203618
0.0351366
0.049296
0.0628256
0.0757216
0.087988
0.0996338
0.11067
0.121106
0.130951
0.140208
0.148883
0.15698
0.164505
0.171468
0.177884
0.183775
0.189168
0.194097
0.198599
0.202711
0.206472
0.209916
0.213072
0.215964
0.218608
0.221012
0.223178
0.225104
0.226785
0.228218
0.2294
0.230338
0.231041
0.231516
0.23177
-0.0421444
-0.0266463
-0.0115229
0.00320572
0.017485
0.0312789
0.0445648
0.0573273
0.0695563
0.0812458
0.0923919
0.102991
0.113038
0.122529
0.131461
0.139831
0.147641
0.1549
0.161619
0.167817
0.17352
0.178759
0.183567
0.187982
0.192039
0.19577
0.199205
0.202366
0.205272
0.207931
0.210347
0.212518
0.214439
0.216106
0.217514
0.218664
0.219561
0.220213
0.220631
0.220848
-0.0400109
-0.0256899
-0.0116887
0.00198668
0.0152932
0.0281993
0.0406815
0.0527201
0.0642978
0.0753993
0.0860103
0.096117
0.105707
0.114769
0.123298
0.131292
0.138755
0.145696
0.152132
0.158084
0.163582
0.168655
0.173337
0.177661
0.181656
0.185351
0.188767
0.191921
0.194824
0.197479
0.199887
0.202043
0.203942
0.205579
0.206951
0.208061
0.208912
0.209514
0.209879
0.210048
-0.0375176
-0.0242754
-0.0112987
0.00141215
0.0138185
0.0258884
0.0375959
0.0489164
0.0598268
0.0703052
0.0803309
0.0898855
0.0989542
0.107527
0.115598
0.123169
0.130246
0.136844
0.142979
0.148677
0.153965
0.158872
0.163426
0.167656
0.171584
0.175232
0.178615
0.181745
0.184624
0.187255
0.189633
0.191754
0.193613
0.195206
0.196532
0.197593
0.198395
0.198945
0.199258
0.199383
-0.0345782
-0.0223477
-0.0103342
0.00146111
0.0129998
0.0242486
0.0351789
0.0457629
0.0559739
0.0657869
0.0751798
0.0841344
0.0926379
0.100682
0.108266
0.115394
0.122074
0.128322
0.134158
0.139605
0.144687
0.149429
0.153854
0.157983
0.161834
0.165422
0.168755
0.171838
0.174672
0.177255
0.179581
0.181648
0.183451
0.184987
0.186257
0.187263
0.188012
0.18851
0.188773
0.188855
-0.0312157
-0.0199591
-0.00887965
0.00201789
0.0126947
0.0231165
0.0332532
0.0430757
0.0525569
0.0616724
0.0704024
0.0787319
0.0866514
0.0941566
0.101249
0.107933
0.114222
0.120131
0.125677
0.130881
0.135762
0.140339
0.144631
0.148651
0.152411
0.155919
0.15918
0.162193
0.164957
0.167469
0.169724
0.171719
0.173451
0.174919
0.176124
0.177071
0.177764
0.178211
0.178425
0.178467
-0.027555
-0.0172533
-0.00709643
0.00290748
0.0127195
0.0223054
0.0316353
0.0406812
0.0494182
0.0578255
0.0658871
0.0735917
0.0809331
0.0879094
0.0945236
0.100783
0.106698
0.112282
0.117551
0.122518
0.1272
0.13161
0.135758
0.139654
0.143304
0.146711
0.149875
0.152794
0.155465
0.157884
0.160048
0.161955
0.163604
0.164995
0.16613
0.167013
0.16765
0.168046
0.168216
0.168221
-0.0237802
-0.0144176
-0.00517231
0.00394491
0.012896
0.0216482
0.0301738
0.0384478
0.0464493
0.0541616
0.0615722
0.0686731
0.0754599
0.0819325
0.088094
0.0939509
0.0995119
0.104787
0.109787
0.114521
0.119
0.123232
0.127223
0.130976
0.134494
0.137776
0.140818
0.143619
0.146174
0.148482
0.15054
0.152347
0.153903
0.15521
0.15627
0.157087
0.157668
0.158015
0.158144
0.158116
-0.0200796
-0.0116308
-0.00327491
0.00497597
0.013086
0.0210253
0.0287696
0.0362982
0.043594
0.0506436
0.0574371
0.0639681
0.0702335
0.0762331
0.0819693
0.0874465
0.0926698
0.0976455
0.102379
0.106877
0.111145
0.115184
0.118999
0.122588
0.12595
0.129082
0.13198
0.134641
0.137063
0.139244
0.141183
0.142881
0.144337
0.145555
0.146538
0.14729
0.147815
0.148117
0.148209
0.148153
-0.0166046
-0.0090288
-0.00152404
0.00589804
0.0132051
0.0203712
0.0273761
0.0342025
0.0408362
0.047266
0.0534834
0.0594829
0.0652614
0.0708178
0.0761525
0.0812668
0.0861624
0.0908416
0.0953066
0.0995592
0.103601
0.107431
0.111049
0.114451
0.117634
0.120595
0.123329
0.125834
0.128108
0.130151
0.131963
0.133545
0.134898
0.136025
0.136931
0.137618
0.138091
0.138351
0.13841
0.138329
-0.0134517
-0.00669324
1.40846e-05
0.00666041
0.0132177
0.0196641
0.0259825
0.0321582
0.0381787
0.0440341
0.0497167
0.0552209
0.060543
0.0656801
0.07063
0.0753911
0.0799621
0.0843421
0.0885301
0.092525
0.0963249
0.099927
0.103328
0.106523
0.109508
0.112279
0.114834
0.11717
0.119288
0.121186
0.122865
0.124329
0.125577
0.126615
0.127445
0.12807
0.128494
0.128715
0.128745
0.128644
-0.0106651
-0.00465749
0.00131679
0.0072503
0.0131192
0.0189049
0.0245927
0.0301695
0.0356241
0.0409473
0.0461316
0.0511709
0.0560599
0.0607941
0.0653688
0.0697802
0.0740246
0.0780988
0.0819994
0.0857228
0.089265
0.0926216
0.0957877
0.0987589
0.101531
0.104102
0.106468
0.108628
0.110583
0.112333
0.11388
0.115224
0.11637
0.11732
0.118077
0.118644
0.119022
0.119207
0.119212
0.119094
-0.00825042
-0.00292239
0.00238717
0.00767321
0.0129154
0.0180978
0.0232073
0.0282325
0.0331629
0.0379898
0.0427054
0.0473025
0.0517748
0.0561158
0.0603197
0.064381
0.0682944
0.0720548
0.0756573
0.0790967
0.0823676
0.085465
0.0883841
0.0911208
0.0936715
0.096034
0.0982065
0.100188
0.10198
0.103582
0.104997
0.106225
0.107271
0.108136
0.108823
0.109334
0.109669
0.109823
0.109806
0.109673
-0.00619077
-0.00147323
0.00323685
0.00793634
0.012608
0.017238
0.0218151
0.026329
0.0307699
0.0351291
0.0393982
0.0435696
0.0476357
0.0515895
0.0554243
0.0591336
0.0627112
0.0661509
0.0694466
0.0725924
0.0755828
0.0784128
0.081078
0.0835748
0.0859005
0.0880531
0.0900315
0.0918354
0.0934654
0.0949224
0.0962082
0.0973246
0.0982737
0.0990575
0.099678
0.100136
0.100431
0.100555
0.100519
0.100375
-0.00446072
-0.000292547
0.00387493
0.0080403
0.0121891
0.0163098
0.0203925
0.0244279
0.0284066
0.0323199
0.0361593
0.0399167
0.0435845
0.0471555
0.0506225
0.0539788
0.0572175
0.060332
0.0633159
0.0661634
0.0688692
0.071429
0.0738387
0.0760955
0.0781969
0.0801414
0.0819282
0.0835574
0.0850295
0.0863456
0.087507
0.088515
0.0893713
0.0900772
0.0906341
0.0910424
0.0912992
0.0913974
0.091345
0.0911931
-0.00303422
0.000634193
0.00430514
0.00797889
0.0116436
0.0152896
0.0189082
0.0224907
0.0260285
0.0295128
0.0329355
0.036289
0.0395657
0.0427586
0.0458605
0.0488647
0.0517642
0.0545527
0.0572243
0.0597736
0.0621959
0.0644873
0.0666443
0.0686643
0.0705451
0.0722858
0.0738856
0.0753449
0.0766641
0.0778439
0.0788851
0.0797888
0.0805559
0.0811873
0.0816837
0.0820446
0.0822663
0.0823409
0.0822753
0.0821182
-0.00188698
0.00131893
0.00452846
0.00774333
0.0109539
0.0141518
0.0173296
0.0204792
0.0235926
0.026662
0.0296798
0.032639
0.0355324
0.0383533
0.0410948
0.0437505
0.0463141
0.04878
0.051143
0.0533984
0.0555421
0.0575703
0.0594799
0.0612685
0.0629345
0.0644769
0.0658955
0.0671904
0.0683617
0.0694098
0.0703352
0.0711384
0.0718198
0.0723801
0.072819
0.0731354
0.0733247
0.0733782
0.0733022
0.0731426
-0.000995438
0.00177379
0.00454695
0.00732667
0.010105
0.0128748
0.0156294
0.0183618
0.0210651
0.0237323
0.0263566
0.0289314
0.0314503
0.0339068
0.0362948
0.0386087
0.040843
0.0429931
0.0450545
0.047023
0.0488949
0.0506667
0.0523356
0.0538996
0.0553573
0.0567079
0.0579512
0.059087
0.0601154
0.0610363
0.0618498
0.0625563
0.0631558
0.0636482
0.0640327
0.0643074
0.0644667
0.0645014
0.0644169
0.0642572
-0.000335587
0.00201307
0.00436622
0.00672686
0.00908837
0.0114446
0.0137901
0.0161187
0.0184245
0.0207014
0.0229433
0.025144
0.0272979
0.0293992
0.0314427
0.0334236
0.0353377
0.0371808
0.0389491
0.0406389
0.0422467
0.0437696
0.0452052
0.0465516
0.0478077
0.0489728
0.0500465
0.0510284
0.0519184
0.0527162
0.0534219
0.0540353
0.0545564
0.0549843
0.0553173
0.0555526
0.055684
0.0557015
0.0556103
0.0554521
0.000116879
0.00205335
0.00399608
0.00594803
0.00790363
0.00985772
0.0118055
0.0137419
0.0156616
0.0175592
0.0194292
0.0212662
0.0230652
0.0248215
0.0265307
0.0281889
0.0297925
0.0313379
0.0328219
0.0342412
0.0355929
0.0368744
0.0380838
0.0392196
0.0402806
0.041266
0.0421752
0.0430077
0.0437634
0.044442
0.0450434
0.0455675
0.0460134
0.0463797
0.0466637
0.0468618
0.0469669
0.0469689
0.046872
0.0467167
0.000385323
0.00191287
0.00345053
0.00500079
0.00655877
0.00811986
0.00967978
0.011234
0.0127776
0.0143058
0.0158139
0.0172973
0.0187518
0.0201734
0.0215586
0.022904
0.0242066
0.0254632
0.0266712
0.0278277
0.0289307
0.029978
0.030968
0.0318992
0.0327705
0.033581
0.03433
0.0350171
0.0356421
0.0362049
0.0367055
0.0371432
0.0375167
0.0378238
0.0380611
0.0382241
0.0383052
0.0382934
0.0381918
0.0380405
0.000491225
0.00161226
0.00274965
0.00390472
0.00507273
0.0062492
0.00743
0.00861085
0.00978742
0.0109555
0.0121111
0.0132504
0.0143699
0.0154664
0.0165368
0.0175781
0.0185876
0.019563
0.0205021
0.0214028
0.0222634
0.0230824
0.0238583
0.0245896
0.0252753
0.0259143
0.0265061
0.0270506
0.0275476
0.0279973
0.0283992
0.0287525
0.0290555
0.0293053
0.0294982
0.029629
0.0296895
0.029667
0.0295619
0.029416
0.000448473
0.00116567
0.00190751
0.00267343
0.00345823
0.00425723
0.0050663
0.00588143
0.00669877
0.00751474
0.008326
0.00912944
0.00992209
0.0107011
0.0114639
0.012208
0.0129312
0.0136317
0.0143079
0.0149585
0.015582
0.0161772
0.0167429
0.0172776
0.0177804
0.0182507
0.0186879
0.0190921
0.0194634
0.0198018
0.0201069
0.0203776
0.0206121
0.0208076
0.0209602
0.0210647
0.0211117
0.0210847
0.0209781
0.0208396
0.000233688
0.000519456
0.000844462
0.00120522
0.00159518
0.00200884
0.00244159
0.00288926
0.00334809
0.00381472
0.00428605
0.00475921
0.00523151
0.00570042
0.00616365
0.00661917
0.00706528
0.00750056
0.0079238
0.00833389
0.00872977
0.00911031
0.00947444
0.00982117
0.0101497
0.0104597
0.0107508
0.0110233
0.0112773
0.0115127
0.0117294
0.0119267
0.0121032
0.0122573
0.0123864
0.0124868
0.0125496
0.0125509
0.0124621
0.012342
-0.000116049
-0.000276148
-0.000378014
-0.000429529
-0.000438571
-0.000411723
-0.000354389
-0.000271195
-0.00016616
-4.28125e-05
9.5709e-05
0.000246575
0.000407226
0.000575355
0.00074892
0.000926141
0.00110549
0.00128563
0.00146541
0.00164375
0.00181962
0.00199208
0.00216022
0.00232329
0.0024807
0.00263208
0.00277724
0.00291617
0.00304892
0.00317563
0.00329637
0.0034112
0.0035201
0.00362293
0.00371941
0.00380893
0.00388748
0.00393688
0.00391965
0.00384938
)
;

boundaryField
{
    leftWall
    {
        type            fixedFluxPressure;
        gradient        nonuniform 0();
        value           nonuniform 0();
    }
    rightWall
    {
        type            fixedFluxPressure;
        gradient        uniform 0;
        value           nonuniform List<scalar> 
43
(
0.433118
0.422856
0.412345
0.401614
0.390691
0.379601
0.368371
0.357028
0.345599
0.334109
0.322584
0.311049
0.299526
0.28804
0.276609
0.265252
0.253985
0.24282
0.23177
0.220848
0.210048
0.199383
0.188855
0.178467
0.168221
0.158116
0.148153
0.138329
0.128644
0.119094
0.109673
0.100375
0.0911931
0.0821182
0.0731426
0.0642572
0.0554521
0.0467167
0.0380405
0.029416
0.0208396
0.012342
0.00384938
)
;
    }
    lowerWall
    {
        type            fixedFluxPressure;
        gradient        nonuniform 0();
        value           nonuniform 0();
    }
    atmosphere
    {
        type            totalPressure;
        rho             rho;
        psi             none;
        gamma           1;
        p0              uniform 0;
        value           uniform 0;
    }
    defaultFaces
    {
        type            empty;
    }
    procBoundary3to1
    {
        type            processor;
        value           nonuniform List<scalar> 
45
(
-0.550429
-0.412878
-0.272482
-0.130931
0.00468645
0.133694
0.246136
0.334784
0.400702
0.446261
0.47476
0.490088
0.49613
0.496205
0.492855
0.487851
0.482308
0.476835
0.471706
0.467
0.4627
0.45876
0.455144
0.451838
0.448847
0.446186
0.443864
0.441878
0.440208
0.438825
0.437703
0.436819
0.436157
0.435711
0.43548
0.435461
0.43565
0.436033
0.436592
0.437311
0.438176
0.439197
0.440423
0.441828
0.443122
)
;
    }
    procBoundary3to2
    {
        type            processor;
        value           nonuniform List<scalar> 
43
(
-0.616443
-0.561542
-0.513076
-0.469665
-0.430772
-0.396144
-0.365392
-0.337827
-0.31261
-0.289022
-0.266656
-0.245444
-0.225556
-0.207243
-0.190714
-0.176043
-0.163131
-0.151717
-0.141426
-0.131849
-0.12262
-0.113471
-0.10426
-0.0949646
-0.085665
-0.0765075
-0.0676655
-0.0593086
-0.0515786
-0.0445682
-0.0383116
-0.0327915
-0.0279536
-0.0237176
-0.0199846
-0.0166492
-0.0136145
-0.0107976
-0.00812799
-0.00556177
-0.00308082
-0.000404509
0.00255006
)
;
    }
}


// ************************************************************************* //
