/*--------------------------------*- C++ -*----------------------------------*\
| =========                 |                                                 |
| \\      /  F ield         | OpenFOAM: The Open Source CFD Toolbox           |
|  \\    /   O peration     | Version:  5.0                                   |
|   \\  /    A nd           | Web:      www.OpenFOAM.org                      |
|    \\/     M anipulation  |                                                 |
\*---------------------------------------------------------------------------*/
FoamFile
{
    version     2.0;
    format      ascii;
    class       surfaceScalarField;
    location    "0.25";
    object      phi;
}
// * * * * * * * * * * * * * * * * * * * * * * * * * * * * * * * * * * * * * //

dimensions      [0 3 -1 0 0 0 0];

internalField   nonuniform List<scalar> 
3782
(
5.68313e-05
-2.22011e-05
5.37034e-05
-2.12973e-05
5.0663e-05
-2.08539e-05
4.77285e-05
-2.07507e-05
4.49064e-05
-2.08835e-05
4.21974e-05
-2.11653e-05
3.95994e-05
-2.15255e-05
3.7109e-05
-2.19095e-05
3.47229e-05
-2.22763e-05
3.24381e-05
-2.25968e-05
3.02526e-05
-2.2852e-05
2.81647e-05
-2.303e-05
2.61734e-05
-2.31244e-05
2.4278e-05
-2.31328e-05
2.24781e-05
-2.30553e-05
2.0773e-05
-2.28939e-05
1.91623e-05
-2.26519e-05
1.76453e-05
-2.23338e-05
1.62208e-05
-2.19441e-05
1.48874e-05
-2.14879e-05
1.36433e-05
-2.09702e-05
1.24861e-05
-2.03962e-05
1.14131e-05
-1.97708e-05
1.04213e-05
-1.90989e-05
9.50746e-06
-1.83851e-05
8.668e-06
-1.76337e-05
7.89924e-06
-1.68485e-05
7.19744e-06
-1.60327e-05
6.5589e-06
-1.51894e-05
5.97997e-06
-1.43211e-05
5.45718e-06
-1.34305e-05
4.98729e-06
-1.25199e-05
4.56743e-06
-1.15924e-05
4.19518e-06
-1.06515e-05
3.86881e-06
-9.70196e-06
3.58746e-06
-8.75038e-06
3.3515e-06
-7.80583e-06
3.16301e-06
-6.88088e-06
3.02626e-06
-5.99289e-06
2.94788e-06
-5.16612e-06
2.93564e-06
-4.43477e-06
2.9936e-06
-3.84777e-06
-3.4892e-06
-1.88362e-05
5.44821e-05
-1.51019e-05
5.50016e-05
-1.103e-05
5.52228e-05
5.50624e-05
-6.72825e-06
-1.81016e-05
5.12864e-05
-1.46754e-05
5.15754e-05
-1.10541e-05
5.16016e-05
5.13209e-05
-7.3127e-06
-1.78264e-05
4.8259e-05
-1.46613e-05
4.84102e-05
-1.13905e-05
4.83308e-05
4.79979e-05
-8.06746e-06
-1.78827e-05
4.5391e-05
-1.49386e-05
4.54661e-05
-1.19453e-05
4.53374e-05
4.49948e-05
-8.94219e-06
-1.81631e-05
4.26705e-05
-1.54071e-05
4.27102e-05
-1.26382e-05
4.25684e-05
4.22427e-05
-9.88609e-06
-1.85801e-05
4.00854e-05
-1.59864e-05
4.01164e-05
-1.34028e-05
3.99848e-05
3.96925e-05
-1.08525e-05
-1.90647e-05
3.76246e-05
-1.66129e-05
3.76645e-05
-1.41858e-05
3.75578e-05
3.73088e-05
-1.18021e-05
-1.95636e-05
3.52787e-05
-1.7238e-05
3.53389e-05
-1.49465e-05
3.52662e-05
3.50662e-05
-1.27039e-05
-2.00378e-05
3.30402e-05
-1.78268e-05
3.31279e-05
-1.56553e-05
3.30947e-05
3.29467e-05
-1.35357e-05
-2.04599e-05
3.09033e-05
-1.83551e-05
3.10231e-05
-1.62926e-05
3.10323e-05
3.09371e-05
-1.4283e-05
-2.08125e-05
2.88639e-05
-1.88075e-05
2.90181e-05
-1.68461e-05
2.9071e-05
2.90281e-05
-1.49372e-05
-2.10848e-05
2.69187e-05
-1.91752e-05
2.71085e-05
-1.73092e-05
2.72049e-05
2.72132e-05
-1.54942e-05
-2.12714e-05
2.50656e-05
-1.94539e-05
2.5291e-05
-1.7679e-05
2.543e-05
2.54875e-05
-1.59532e-05
-2.13702e-05
2.3303e-05
-1.96423e-05
2.35631e-05
-1.79555e-05
2.37431e-05
2.38475e-05
-1.63155e-05
-2.13819e-05
2.16296e-05
-1.97418e-05
2.19231e-05
-1.81407e-05
2.2142e-05
2.22904e-05
-1.65836e-05
-2.13087e-05
2.00444e-05
-1.97549e-05
2.03694e-05
-1.82376e-05
2.06247e-05
2.08142e-05
-1.67615e-05
-2.11541e-05
1.85466e-05
-1.96854e-05
1.89006e-05
-1.82503e-05
1.91896e-05
1.94171e-05
-1.68531e-05
-2.09222e-05
1.7135e-05
-1.95372e-05
1.75156e-05
-1.81829e-05
1.78352e-05
1.80972e-05
-1.6863e-05
-2.06176e-05
1.58085e-05
-1.93148e-05
1.62128e-05
-1.80396e-05
1.656e-05
1.68531e-05
-1.67955e-05
-2.0245e-05
1.45656e-05
-1.90227e-05
1.49906e-05
-1.78249e-05
1.53622e-05
1.56829e-05
-1.66548e-05
-1.98089e-05
1.34043e-05
-1.86654e-05
1.38471e-05
-1.75432e-05
1.424e-05
1.4585e-05
-1.64452e-05
-1.93144e-05
1.23225e-05
-1.82475e-05
1.27802e-05
-1.71987e-05
1.31912e-05
1.35573e-05
-1.6171e-05
-1.8766e-05
1.13177e-05
-1.77733e-05
1.17875e-05
-1.67958e-05
1.22138e-05
1.25978e-05
-1.58363e-05
-1.81683e-05
1.03872e-05
-1.72473e-05
1.08665e-05
-1.63388e-05
1.13052e-05
1.17043e-05
-1.54453e-05
-1.75259e-05
9.52795e-06
-1.66738e-05
1.00144e-05
-1.58317e-05
1.04631e-05
1.08745e-05
-1.5002e-05
-1.68427e-05
8.73694e-06
-1.60567e-05
9.22842e-06
-1.52784e-05
9.68472e-06
1.01062e-05
-1.45101e-05
-1.61225e-05
8.01093e-06
-1.53997e-05
8.50562e-06
-1.46825e-05
8.96754e-06
9.39692e-06
-1.39732e-05
-1.53685e-05
7.3467e-06
-1.47059e-05
7.84304e-06
-1.40472e-05
8.30887e-06
8.7443e-06
-1.33946e-05
-1.45837e-05
6.74103e-06
-1.39785e-05
7.23776e-06
-1.33757e-05
7.70609e-06
8.14602e-06
-1.27774e-05
-1.3771e-05
6.19083e-06
-1.32202e-05
6.68698e-06
-1.26708e-05
7.15667e-06
7.59984e-06
-1.21246e-05
-1.29328e-05
5.69315e-06
-1.24339e-05
6.18804e-06
-1.19354e-05
6.65823e-06
7.10362e-06
-1.14392e-05
-1.2072e-05
5.24525e-06
-1.16224e-05
5.73846e-06
-1.11728e-05
6.20858e-06
6.65541e-06
-1.07246e-05
-1.11918e-05
4.84471e-06
-1.07895e-05
5.33607e-06
-1.03866e-05
5.80575e-06
6.25346e-06
-9.98467e-06
-1.02963e-05
4.48951e-06
-9.93927e-06
4.97908e-06
-9.58165e-06
5.44813e-06
5.89632e-06
-9.2245e-06
-9.39064e-06
4.1782e-06
-9.07772e-06
4.66616e-06
-8.76411e-06
5.13452e-06
5.58285e-06
-8.45064e-06
-8.48224e-06
3.91007e-06
-8.21274e-06
4.39667e-06
-7.94246e-06
4.86425e-06
5.31234e-06
-7.67194e-06
-7.58118e-06
3.68542e-06
-7.35523e-06
4.17072e-06
-7.12819e-06
4.63722e-06
5.08443e-06
-6.90029e-06
-6.70127e-06
3.5058e-06
-6.51993e-06
3.98938e-06
-6.33666e-06
4.45394e-06
4.89915e-06
-6.15139e-06
-5.8613e-06
3.37418e-06
-5.72649e-06
3.85456e-06
-5.58793e-06
4.31537e-06
4.75658e-06
-5.44537e-06
-5.08663e-06
3.29467e-06
-5.0006e-06
3.76852e-06
-4.90746e-06
4.22221e-06
4.65623e-06
-4.80712e-06
-4.41115e-06
3.27103e-06
-4.37497e-06
3.73232e-06
-4.32635e-06
4.17359e-06
4.59584e-06
-4.26597e-06
-3.8797e-06
3.30296e-06
-3.89023e-06
3.74285e-06
-3.88143e-06
4.16479e-06
4.5698e-06
-3.85539e-06
-3.56227e-06
-3.60593e-06
-3.62456e-06
-3.6219e-06
-1.85578e-06
6.07533e-05
2.79666e-06
5.92187e-05
6.99176e-06
5.6973e-05
1.05805e-05
5.41526e-05
1.34901e-05
5.0921e-05
1.57096e-05
4.74441e-05
1.72782e-05
4.38767e-05
1.82696e-05
4.03497e-05
1.87747e-05
3.69625e-05
1.88865e-05
3.37826e-05
1.86916e-05
3.085e-05
1.82657e-05
2.8183e-05
1.76729e-05
2.57841e-05
1.69649e-05
2.3645e-05
1.61831e-05
2.17504e-05
1.53594e-05
2.00814e-05
1.45177e-05
1.86176e-05
1.36756e-05
1.73388e-05
1.28455e-05
1.62256e-05
1.20354e-05
1.52605e-05
1.12505e-05
1.44274e-05
1.04937e-05
1.37125e-05
9.76579e-06
1.31036e-05
9.06668e-06
1.25903e-05
8.39515e-06
1.21636e-05
7.74943e-06
1.18162e-05
7.12731e-06
1.15418e-05
6.5263e-06
1.13354e-05
5.94375e-06
1.1193e-05
5.37689e-06
1.11115e-05
4.82289e-06
1.10887e-05
4.27891e-06
1.11232e-05
3.7421e-06
1.12142e-05
3.20972e-06
1.13615e-05
2.67908e-06
1.15652e-05
2.14772e-06
1.18254e-05
1.61349e-06
1.21406e-05
1.07492e-06
1.25052e-05
5.32526e-07
1.28941e-05
1.30491e-05
-3.12183e-06
5.65624e-05
8.92613e-07
5.52043e-05
4.56357e-06
5.3302e-05
7.77391e-06
5.09422e-05
1.0457e-05
4.82379e-05
1.25917e-05
4.53095e-05
1.41946e-05
4.22738e-05
1.53106e-05
3.92337e-05
1.60008e-05
3.62723e-05
1.63329e-05
3.34505e-05
1.63737e-05
3.08092e-05
1.61849e-05
2.83718e-05
1.58209e-05
2.61481e-05
1.53277e-05
2.41381e-05
1.47434e-05
2.23347e-05
1.40983e-05
2.07264e-05
1.34163e-05
1.92996e-05
1.27156e-05
1.80395e-05
1.20096e-05
1.69316e-05
1.1308e-05
1.5962e-05
1.06176e-05
1.51178e-05
9.94278e-06
1.43874e-05
9.286e-06
1.37604e-05
8.64848e-06
1.32278e-05
8.03033e-06
1.27818e-05
7.43095e-06
1.24156e-05
6.84914e-06
1.21236e-05
6.28335e-06
1.19012e-05
5.73169e-06
1.17446e-05
5.19212e-06
1.16511e-05
4.66243e-06
1.16184e-05
4.14033e-06
1.16453e-05
3.62349e-06
1.1731e-05
3.10958e-06
1.18754e-05
2.59634e-06
1.20784e-05
2.08166e-06
1.234e-05
1.56375e-06
1.26585e-05
1.04149e-06
1.30275e-05
5.15694e-07
1.34199e-05
1.35648e-05
-4.38137e-06
5.28763e-05
-8.48513e-07
5.16714e-05
2.41277e-06
5.00407e-05
5.31267e-06
4.80423e-05
7.7949e-06
4.57556e-05
9.83527e-06
4.32691e-05
1.14379e-05
4.06711e-05
1.26291e-05
3.80425e-05
1.34499e-05
3.54515e-05
1.39491e-05
3.29514e-05
1.41776e-05
3.05806e-05
1.41849e-05
2.83645e-05
1.4016e-05
2.6317e-05
1.37109e-05
2.44433e-05
1.33032e-05
2.27423e-05
1.28212e-05
2.12084e-05
1.22876e-05
1.98332e-05
1.17204e-05
1.86068e-05
1.11336e-05
1.75185e-05
1.05376e-05
1.65579e-05
9.94045e-06
1.5715e-05
9.34756e-06
1.49803e-05
8.76273e-06
1.43453e-05
8.1883e-06
1.38023e-05
7.62551e-06
1.33446e-05
7.07477e-06
1.29663e-05
6.5358e-06
1.26626e-05
6.00786e-06
1.24291e-05
5.48984e-06
1.22627e-05
4.98032e-06
1.21606e-05
4.4777e-06
1.2121e-05
3.98023e-06
1.21427e-05
3.48606e-06
1.22251e-05
2.99331e-06
1.23681e-05
2.50014e-06
1.25716e-05
2.00483e-06
1.28354e-05
1.50594e-06
1.31574e-05
1.0027e-06
1.35307e-05
4.96245e-07
1.39264e-05
1.40611e-05
-5.63777e-06
4.95719e-05
-2.47297e-06
4.85066e-05
4.67663e-07
4.71001e-05
3.11594e-06
4.53941e-05
5.42585e-06
4.34457e-05
7.37409e-06
4.13209e-05
8.95823e-06
3.9087e-05
1.01931e-05
3.68077e-05
1.11061e-05
3.45385e-05
1.17322e-05
3.23252e-05
1.21102e-05
3.02027e-05
1.22788e-05
2.81959e-05
1.22751e-05
2.63207e-05
1.21328e-05
2.45856e-05
1.18814e-05
2.29937e-05
1.15462e-05
2.15435e-05
1.11485e-05
2.02309e-05
1.07056e-05
1.90497e-05
1.02312e-05
1.79929e-05
9.73644e-06
1.70527e-05
9.22971e-06
1.62217e-05
8.71739e-06
1.54926e-05
8.20414e-06
1.48585e-05
7.69323e-06
1.43132e-05
7.18681e-06
1.3851e-05
6.68614e-06
1.3467e-05
6.19177e-06
1.31569e-05
5.70368e-06
1.29172e-05
5.22142e-06
1.27449e-05
4.74421e-06
1.26378e-05
4.271e-06
1.25942e-05
3.80053e-06
1.26132e-05
3.33143e-06
1.26942e-05
2.86227e-06
1.28373e-05
2.39161e-06
1.30423e-05
1.91812e-06
1.33089e-05
1.44075e-06
1.36348e-05
9.59039e-07
1.40125e-05
4.74399e-07
1.44111e-05
1.45355e-05
-6.87676e-06
4.65625e-05
-3.99751e-06
4.56274e-05
-1.30982e-06
4.44124e-05
1.13468e-06
4.29495e-05
3.29897e-06
4.12814e-05
5.16226e-06
3.94576e-05
6.71911e-06
3.75302e-05
7.97737e-06
3.55494e-05
8.95518e-06
3.35607e-05
9.67771e-06
3.16027e-05
1.0174e-05
2.97064e-05
1.04747e-05
2.78953e-05
1.06096e-05
2.61857e-05
1.0607e-05
2.45883e-05
1.04923e-05
2.31084e-05
1.02879e-05
2.17479e-05
1.00132e-05
2.05056e-05
9.6844e-06
1.93786e-05
9.3149e-06
1.83624e-05
8.91568e-06
1.74519e-05
8.49549e-06
1.66419e-05
8.06122e-06
1.59269e-05
7.61813e-06
1.53016e-05
7.17021e-06
1.47611e-05
6.72031e-06
1.43009e-05
6.2704e-06
1.39169e-05
5.82169e-06
1.36057e-05
5.37482e-06
1.33641e-05
4.92992e-06
1.31898e-05
4.48677e-06
1.30809e-05
4.04483e-06
1.30362e-05
3.60333e-06
1.30547e-05
3.16136e-06
1.31362e-05
2.71789e-06
1.32807e-05
2.27189e-06
1.34883e-05
1.82242e-06
1.37584e-05
1.36878e-06
1.40885e-05
9.10834e-07
1.44704e-05
4.50252e-07
1.48717e-05
1.49857e-05
-8.07679e-06
4.37868e-05
-5.42341e-06
4.2974e-05
-2.93814e-06
4.19271e-05
-6.60104e-07
4.06715e-05
1.38126e-06
3.92401e-05
3.16795e-06
3.76709e-05
4.69351e-06
3.60046e-05
5.96161e-06
3.42813e-05
6.98422e-06
3.25381e-05
7.77939e-06
3.08075e-05
8.36902e-06
2.91168e-05
8.77695e-06
2.74873e-05
9.02733e-06
2.59353e-05
9.14351e-06
2.44721e-05
9.14723e-06
2.31047e-05
9.05812e-06
2.1837e-05
8.89351e-06
2.06703e-05
8.66838e-06
1.96037e-05
8.39549e-06
1.86353e-05
8.08547e-06
1.7762e-05
7.74709e-06
1.69803e-05
7.38749e-06
1.62865e-05
7.01232e-06
1.56768e-05
6.62605e-06
1.51474e-05
6.23206e-06
1.46949e-05
5.83287e-06
1.43161e-05
5.43025e-06
1.40083e-05
5.02537e-06
1.3769e-05
4.6189e-06
1.35963e-05
4.21109e-06
1.34888e-05
3.80187e-06
1.34454e-05
3.39093e-06
1.34656e-05
2.97776e-06
1.35494e-05
2.56176e-06
1.36967e-05
2.14226e-06
1.39078e-05
1.7187e-06
1.41819e-05
1.29071e-06
1.45165e-05
8.58501e-07
1.49026e-05
4.2399e-07
1.53062e-05
1.54097e-05
-9.21618e-06
4.12009e-05
-6.7458e-06
4.05036e-05
-4.42565e-06
3.9607e-05
-2.28579e-06
3.85317e-05
-3.49434e-07
3.73037e-05
1.36829e-06
3.59532e-05
2.86073e-06
3.45122e-05
4.12914e-06
3.30129e-05
5.18138e-06
3.14859e-05
6.03042e-06
2.99585e-05
6.69278e-06
2.84544e-05
7.18706e-06
2.6993e-05
7.53272e-06
2.55897e-05
7.74904e-06
2.42557e-05
7.85443e-06
2.29993e-05
7.86593e-06
2.18255e-05
7.79896e-06
2.07372e-05
7.66714e-06
1.97355e-05
7.48236e-06
1.88201e-05
7.25476e-06
1.79896e-05
6.99292e-06
1.72421e-05
6.70399e-06
1.65754e-05
6.39383e-06
1.59869e-05
6.0672e-06
1.5474e-05
5.72787e-06
1.50343e-05
5.37875e-06
1.46653e-05
5.02208e-06
1.4365e-05
4.65944e-06
1.41316e-05
4.29196e-06
1.39638e-05
3.92032e-06
1.38604e-05
3.54486e-06
1.38208e-05
3.16568e-06
1.38448e-05
2.78265e-06
1.39324e-05
2.39555e-06
1.40839e-05
2.00409e-06
1.42993e-05
1.60802e-06
1.4578e-05
1.20734e-06
1.49172e-05
8.02572e-07
1.53074e-05
3.95896e-07
1.57128e-05
1.58056e-05
-1.02768e-05
3.87738e-05
-7.95881e-06
3.81856e-05
-5.77677e-06
3.7425e-05
-3.75404e-06
3.65089e-05
-1.90902e-06
3.54587e-05
-2.54231e-07
3.42984e-05
1.20406e-06
3.30539e-05
2.46565e-06
3.17513e-05
3.53565e-06
3.04159e-05
4.42344e-06
2.90707e-05
5.14153e-06
2.77363e-05
5.7045e-06
2.64301e-05
6.128e-06
2.51662e-05
6.42793e-06
2.39558e-05
6.61983e-06
2.28074e-05
6.71842e-06
2.17269e-05
6.73729e-06
2.07184e-05
6.6887e-06
1.97841e-05
6.58357e-06
1.89252e-05
6.43142e-06
1.81417e-05
6.2405e-06
1.74331e-05
6.01782e-06
1.67981e-05
5.76927e-06
1.62355e-05
5.49976e-06
1.57435e-05
5.21329e-06
1.53207e-05
4.91309e-06
1.49655e-05
4.60169e-06
1.46764e-05
4.28108e-06
1.44523e-05
3.95271e-06
1.42922e-05
3.61763e-06
1.41955e-05
3.27658e-06
1.41619e-05
2.92998e-06
1.41914e-05
2.57809e-06
1.42843e-05
2.22101e-06
1.44409e-05
1.85879e-06
1.46615e-05
1.49153e-06
1.49453e-05
1.11954e-06
1.52891e-05
7.43645e-07
1.56833e-05
3.66299e-07
1.60902e-05
1.61719e-05
-1.12454e-05
3.64835e-05
-9.05812e-06
3.59983e-05
-6.99479e-06
3.53616e-05
-5.07385e-06
3.4588e-05
-3.31007e-06
3.36949e-05
-1.71378e-06
3.27021e-05
-2.90612e-07
3.16307e-05
9.58468e-07
3.05022e-05
2.0367e-06
2.93376e-05
2.9509e-06
2.81565e-05
3.71062e-06
2.69766e-05
4.32733e-06
2.58134e-05
4.81365e-06
2.46799e-05
5.1827e-06
2.35868e-05
5.44757e-06
2.25425e-05
5.62091e-06
2.15536e-05
5.71461e-06
2.06247e-05
5.73964e-06
1.97591e-05
5.70591e-06
1.89589e-05
5.62227e-06
1.82254e-05
5.4965e-06
1.75588e-05
5.33537e-06
1.69593e-05
5.14469e-06
1.64262e-05
4.92937e-06
1.59589e-05
4.69355e-06
1.55566e-05
4.44065e-06
1.52184e-05
4.17345e-06
1.49436e-05
3.8942e-06
1.47315e-05
3.60465e-06
1.45817e-05
3.30617e-06
1.4494e-05
2.99978e-06
1.44683e-05
2.68626e-06
1.45049e-05
2.36617e-06
1.46044e-05
2.03991e-06
1.47672e-05
1.70785e-06
1.49935e-05
1.37041e-06
1.52827e-05
1.02819e-06
1.56313e-05
6.82327e-07
1.60291e-05
3.35517e-07
1.6437e-05
1.65074e-05
-1.21139e-05
3.43144e-05
-1.00418e-05
3.39261e-05
-8.08325e-06
3.34031e-05
-6.25313e-06
3.27579e-05
-4.56336e-06
3.20051e-05
-3.02252e-06
3.11613e-05
-1.63555e-06
3.02437e-05
-4.03765e-07
2.92704e-05
6.74879e-07
2.8259e-05
1.60533e-06
2.7226e-05
2.39493e-06
2.6187e-05
3.05275e-06
2.51556e-05
3.58901e-06
2.41436e-05
4.01454e-06
2.31612e-05
4.34035e-06
2.22167e-05
4.57728e-06
2.13166e-05
4.73569e-06
2.04662e-05
4.82531e-06
1.96695e-05
4.85508e-06
1.89291e-05
4.83314e-06
1.82473e-05
4.76675e-06
1.76252e-05
4.66234e-06
1.70637e-05
4.52553e-06
1.6563e-05
4.36119e-06
1.61232e-05
4.17348e-06
1.57443e-05
3.96593e-06
1.5426e-05
3.74148e-06
1.51681e-05
3.50257e-06
1.49705e-05
3.2512e-06
1.48331e-05
2.98898e-06
1.47562e-05
2.71721e-06
1.47401e-05
2.43692e-06
1.47852e-05
2.14895e-06
1.48924e-05
1.85401e-06
1.50622e-05
1.55273e-06
1.52948e-05
1.24582e-06
1.55896e-05
9.34158e-07
1.5943e-05
6.19167e-07
1.63441e-05
3.03784e-07
1.67524e-05
1.68112e-05
-1.28781e-05
3.22553e-05
-1.091e-05
3.1958e-05
-9.04645e-06
3.15395e-05
-7.29939e-06
3.10108e-05
-5.67862e-06
3.03843e-05
-4.19128e-06
2.96739e-05
-2.84167e-06
2.88941e-05
-1.63124e-06
2.806e-05
-5.58731e-07
2.71864e-05
3.79538e-07
2.62878e-05
1.18921e-06
2.53773e-05
1.87748e-06
2.44673e-05
2.45265e-06
2.35685e-05
2.92367e-06
2.26902e-05
3.29981e-06
2.18405e-05
3.59031e-06
2.10261e-05
3.80419e-06
2.02524e-05
3.95001e-06
1.95236e-05
4.03581e-06
1.88433e-05
4.06899e-06
1.82141e-05
4.05627e-06
1.76379e-05
4.00372e-06
1.71162e-05
3.91669e-06
1.665e-05
3.79992e-06
1.624e-05
3.65754e-06
1.58867e-05
3.49311e-06
1.55904e-05
3.30966e-06
1.53515e-05
3.10977e-06
1.51704e-05
2.89562e-06
1.50473e-05
2.66902e-06
1.49828e-05
2.43149e-06
1.49776e-05
2.18429e-06
1.50325e-05
1.92851e-06
1.51482e-05
1.66508e-06
1.53256e-05
1.39491e-06
1.5565e-05
1.11893e-06
1.58656e-05
8.3828e-07
1.62237e-05
5.54636e-07
1.66278e-05
2.71203e-07
1.70359e-05
1.70824e-05
-1.35371e-05
3.02982e-05
-1.16651e-05
3.0086e-05
-9.88944e-06
2.97639e-05
-8.21998e-06
2.93413e-05
-6.66478e-06
2.88291e-05
-5.2298e-06
2.82389e-05
-3.91879e-06
2.75831e-05
-2.73317e-06
2.68744e-05
-1.67221e-06
2.61255e-05
-7.33171e-07
2.53487e-05
8.83434e-08
2.45558e-05
7.98056e-07
2.37576e-05
1.40269e-06
2.29638e-05
1.90968e-06
2.21832e-05
2.32678e-06
2.14234e-05
2.6619e-06
2.0691e-05
2.92284e-06
1.99914e-05
3.11712e-06
1.93293e-05
3.25193e-06
1.87085e-05
3.33397e-06
1.81321e-05
3.36941e-06
1.76025e-05
3.36388e-06
1.71218e-05
3.32249e-06
1.66914e-05
3.24978e-06
1.63127e-05
3.14978e-06
1.59867e-05
3.02602e-06
1.57142e-05
2.88159e-06
1.5496e-05
2.71915e-06
1.53328e-05
2.54101e-06
1.52255e-05
2.34912e-06
1.51747e-05
2.14518e-06
1.51816e-05
1.93065e-06
1.5247e-05
1.70682e-06
1.5372e-05
1.47483e-06
1.55576e-05
1.2358e-06
1.5804e-05
9.90881e-07
1.61105e-05
7.41408e-07
1.64732e-05
4.89262e-07
1.688e-05
2.37945e-07
1.72872e-05
1.73204e-05
-1.40922e-05
2.84371e-05
-1.23106e-05
2.83044e-05
-1.06178e-05
2.80711e-05
-9.02209e-06
2.77456e-05
-7.53011e-06
2.73371e-05
-6.14689e-06
2.68557e-05
-4.87567e-06
2.63119e-05
-3.7178e-06
2.57165e-05
-2.6729e-06
2.50805e-05
-1.73894e-06
2.44148e-05
-9.12515e-07
2.37294e-05
-1.89033e-07
2.30341e-05
4.36985e-07
2.23378e-05
9.71648e-07
2.16486e-05
1.42149e-06
2.09736e-05
1.79323e-06
2.03192e-05
2.09362e-06
1.9691e-05
2.32928e-06
1.90936e-05
2.50656e-06
1.85312e-05
2.63152e-06
1.80071e-05
2.7098e-06
1.75242e-05
2.74661e-06
1.7085e-05
2.74674e-06
1.66913e-05
2.71451e-06
1.63449e-05
2.65383e-06
1.60474e-05
2.56817e-06
1.57999e-05
2.4606e-06
1.56036e-05
2.33383e-06
1.54596e-05
2.19024e-06
1.53691e-05
2.03191e-06
1.53331e-05
1.86068e-06
1.53528e-05
1.67816e-06
1.54296e-05
1.48579e-06
1.55644e-05
1.28492e-06
1.57585e-05
1.07684e-06
1.60122e-05
8.62848e-07
1.63245e-05
6.44467e-07
1.66916e-05
4.23742e-07
1.71007e-05
2.04472e-07
1.75065e-05
1.75249e-05
-1.45462e-05
2.66678e-05
-1.28508e-05
2.6609e-05
-1.12374e-05
2.64576e-05
-9.71261e-06
2.62208e-05
-8.28222e-06
2.59068e-05
-6.95045e-06
2.55239e-05
-5.72009e-06
2.50815e-05
-4.59246e-06
2.45888e-05
-3.56739e-06
2.40555e-05
-2.64342e-06
2.34908e-05
-1.8179e-06
2.29039e-05
-1.08717e-06
2.23034e-05
-4.46772e-07
2.16974e-05
1.08352e-07
2.10935e-05
5.83673e-07
2.04983e-05
9.84913e-07
1.9918e-05
1.3179e-06
1.9358e-05
1.58843e-06
1.88231e-05
1.80215e-06
1.83175e-05
1.96447e-06
1.78448e-05
2.08052e-06
1.74082e-05
2.15512e-06
1.70104e-05
2.19272e-06
1.66537e-05
2.19742e-06
1.63402e-05
2.17296e-06
1.60718e-05
2.12271e-06
1.58501e-05
2.04971e-06
1.56766e-05
1.95667e-06
1.55527e-05
1.84601e-06
1.54798e-05
1.7199e-06
1.54592e-05
1.58027e-06
1.54925e-05
1.42886e-06
1.5581e-05
1.26726e-06
1.5726e-05
1.09695e-06
1.59288e-05
9.19368e-07
1.61898e-05
7.35972e-07
1.6508e-05
5.48404e-07
1.68792e-05
3.58866e-07
1.72903e-05
1.714e-07
1.7694e-05
1.76963e-05
-1.4903e-05
2.49871e-05
-1.32908e-05
2.49969e-05
-1.17539e-05
2.49207e-05
-1.0298e-05
2.4765e-05
-8.92798e-06
2.45367e-05
-7.64748e-06
2.42434e-05
-6.45894e-06
2.38929e-05
-5.36362e-06
2.34935e-05
-4.36156e-06
2.30534e-05
-3.45173e-06
2.2581e-05
-2.63207e-06
2.20842e-05
-1.89968e-06
2.1571e-05
-1.25094e-06
2.10487e-05
-6.81675e-07
2.05242e-05
-1.87284e-07
2.00039e-05
2.37113e-07
1.94936e-05
5.9653e-07
1.89986e-05
8.96023e-07
1.85236e-05
1.14058e-06
1.8073e-05
1.33506e-06
1.76504e-05
1.4841e-06
1.72592e-05
1.59213e-06
1.69023e-05
1.66328e-06
1.65825e-05
1.7014e-06
1.63021e-05
1.71005e-06
1.60632e-05
1.69248e-06
1.58677e-05
1.65165e-06
1.57174e-05
1.59027e-06
1.56141e-05
1.51077e-06
1.55593e-05
1.41536e-06
1.55547e-05
1.30604e-06
1.56018e-05
1.18466e-06
1.57024e-05
1.05291e-06
1.58578e-05
9.12403e-07
1.60693e-05
7.64678e-07
1.63375e-05
6.11322e-07
1.66613e-05
4.54096e-07
1.70364e-05
2.95322e-07
1.74491e-05
1.39215e-07
1.78501e-05
1.78355e-05
-1.51669e-05
2.33926e-05
-1.36354e-05
2.34654e-05
-1.21729e-05
2.34581e-05
-1.07842e-05
2.33763e-05
-9.4736e-06
2.32261e-05
-8.24425e-06
2.30141e-05
-7.09834e-06
2.27471e-05
-6.0371e-06
2.24323e-05
-5.06074e-06
2.20771e-05
-4.16857e-06
2.16888e-05
-3.35901e-06
2.12747e-05
-2.62978e-06
2.08418e-05
-1.97794e-06
2.03969e-05
-1.40004e-06
1.99463e-05
-8.9223e-07
1.94961e-05
-4.50355e-07
1.90517e-05
-7.00818e-08
1.86183e-05
2.52995e-07
1.82006e-05
5.2327e-07
1.78027e-05
7.45074e-07
1.74286e-05
9.22614e-07
1.70816e-05
1.05992e-06
1.6765e-05
1.16083e-06
1.64816e-05
1.22894e-06
1.6234e-05
1.26761e-06
1.60245e-05
1.27997e-06
1.58554e-05
1.26888e-06
1.57285e-05
1.237e-06
1.5646e-05
1.18677e-06
1.56096e-05
1.1204e-06
1.56211e-05
1.03995e-06
1.56823e-05
9.47336e-07
1.5795e-05
8.44341e-07
1.59608e-05
7.32658e-07
1.6181e-05
6.13938e-07
1.64562e-05
4.89862e-07
1.67855e-05
3.62289e-07
1.7164e-05
2.33629e-07
1.75778e-05
1.08175e-07
1.79756e-05
1.79437e-05
-1.53425e-05
2.18819e-05
-1.38896e-05
2.20125e-05
-1.24996e-05
2.2068e-05
-1.11767e-05
2.20534e-05
-9.92471e-06
2.19741e-05
-8.7464e-06
2.18358e-05
-7.64383e-06
2.16445e-05
-6.61818e-06
2.14066e-05
-5.66981e-06
2.11287e-05
-4.7983e-06
2.08173e-05
-4.00249e-06
2.04789e-05
-3.28058e-06
2.01199e-05
-2.63021e-06
1.97465e-05
-2.04852e-06
1.93646e-05
-1.53227e-06
1.89799e-05
-1.07795e-06
1.85974e-05
-6.81824e-07
1.82222e-05
-3.40066e-07
1.78588e-05
-4.87871e-08
1.75114e-05
1.95875e-07
1.71839e-05
3.97704e-07
1.68798e-05
5.60375e-07
1.66023e-05
6.87415e-07
1.63546e-05
7.82181e-07
1.61392e-05
8.47843e-07
1.59589e-05
8.87374e-07
1.58158e-05
9.03553e-07
1.57124e-05
8.98962e-07
1.56506e-05
8.75999e-07
1.56325e-05
8.36898e-07
1.56602e-05
7.83742e-07
1.57355e-05
7.18484e-07
1.58603e-05
6.4297e-07
1.60363e-05
5.58968e-07
1.62651e-05
4.68206e-07
1.6547e-05
3.72444e-07
1.68813e-05
2.73611e-07
1.72629e-05
1.74167e-07
1.76772e-05
7.83861e-08
1.80714e-05
1.80221e-05
-1.54343e-05
2.04532e-05
-1.40581e-05
2.06363e-05
-1.27389e-05
2.07488e-05
-1.14806e-05
2.07951e-05
-1.02865e-05
2.078e-05
-9.15914e-06
2.07084e-05
-8.1005e-06
2.05859e-05
-7.11173e-06
2.04179e-05
-6.1933e-06
2.02103e-05
-5.34504e-06
1.9969e-05
-4.56611e-06
1.97e-05
-3.85513e-06
1.9409e-05
-3.21019e-06
1.91016e-05
-2.62894e-06
1.87834e-05
-2.10867e-06
1.84596e-05
-1.64639e-06
1.81352e-05
-1.23891e-06
1.78148e-05
-8.82884e-07
1.75028e-05
-5.74905e-07
1.72035e-05
-3.11532e-07
1.69205e-05
-8.93526e-08
1.66576e-05
9.49775e-08
1.6418e-05
2.44691e-07
1.62049e-05
3.62905e-07
1.6021e-05
4.52599e-07
1.58692e-05
5.16596e-07
1.57519e-05
5.57559e-07
1.56714e-05
5.77994e-07
1.56302e-05
5.80254e-07
1.56303e-05
5.66558e-07
1.56739e-05
5.38995e-07
1.5763e-05
4.99545e-07
1.58997e-05
4.50093e-07
1.60858e-05
3.92457e-07
1.63227e-05
3.28425e-07
1.66111e-05
2.59815e-07
1.69499e-05
1.88598e-07
1.73341e-05
1.17224e-07
1.77486e-05
4.98935e-08
1.81387e-05
1.8072e-05
-1.54468e-05
1.91045e-05
-1.41454e-05
1.93349e-05
-1.28956e-05
1.94989e-05
-1.17007e-05
1.96002e-05
-1.05638e-05
1.96431e-05
-9.48733e-06
1.9632e-05
-8.4731e-06
1.95716e-05
-7.52228e-06
1.94671e-05
-6.63547e-06
1.93235e-05
-5.81267e-06
1.91463e-05
-5.05332e-06
1.89407e-05
-4.35638e-06
1.8712e-05
-3.72032e-06
1.84655e-05
-3.14321e-06
1.82063e-05
-2.62281e-06
1.79392e-05
-2.15658e-06
1.76689e-05
-1.74178e-06
1.74e-05
-1.3755e-06
1.71366e-05
-1.05475e-06
1.68827e-05
-7.76461e-07
1.66423e-05
-5.37585e-07
1.64187e-05
-3.35089e-07
1.62155e-05
-1.65996e-07
1.60358e-05
-2.74141e-08
1.58825e-05
8.34422e-08
1.57584e-05
1.69239e-07
1.56661e-05
2.32518e-07
1.56082e-05
2.75701e-07
1.5587e-05
3.01086e-07
1.56049e-05
3.10859e-07
1.56641e-05
3.071e-07
1.57668e-05
2.91794e-07
1.59151e-05
2.66848e-07
1.61108e-05
2.34116e-07
1.63555e-05
1.95427e-07
1.66499e-05
1.52639e-07
1.69927e-05
1.07729e-07
1.73791e-05
6.30711e-08
1.77933e-05
2.25999e-08
1.81792e-05
1.80946e-05
-1.53842e-05
1.78339e-05
-1.4156e-05
1.81067e-05
-1.2974e-05
1.83169e-05
-1.18415e-05
1.84677e-05
-1.07612e-05
1.85629e-05
-9.73553e-06
1.86063e-05
-8.76609e-06
1.86022e-05
-7.85413e-06
1.85551e-05
-7.00033e-06
1.84697e-05
-6.20486e-06
1.83508e-05
-5.4674e-06
1.82032e-05
-4.78718e-06
1.80318e-05
-4.16299e-06
1.78414e-05
-3.59328e-06
1.76366e-05
-3.07619e-06
1.74221e-05
-2.60956e-06
1.72023e-05
-2.19106e-06
1.69815e-05
-1.81816e-06
1.67637e-05
-1.48822e-06
1.65528e-05
-1.19854e-06
1.63526e-05
-9.46371e-07
1.61666e-05
-7.28964e-07
1.59981e-05
-5.43594e-07
1.58504e-05
-3.87591e-07
1.57265e-05
-2.58354e-07
1.56292e-05
-1.53369e-07
1.55612e-05
-7.02136e-08
1.55251e-05
-6.56015e-09
1.55234e-05
3.98234e-08
1.55586e-05
7.10777e-08
1.56329e-05
8.92563e-08
1.57487e-05
9.63353e-08
1.5908e-05
9.42291e-08
1.6113e-05
8.48112e-08
1.6365e-05
6.99421e-08
1.66648e-05
5.15034e-08
1.70112e-05
3.14609e-08
1.73991e-05
1.20477e-08
1.78127e-05
-3.57666e-09
1.81948e-05
1.8091e-05
-1.52508e-05
1.66394e-05
-1.40941e-05
1.695e-05
-1.29786e-05
1.72014e-05
-1.19075e-05
1.73965e-05
-1.08832e-05
1.75386e-05
-9.90806e-06
1.76311e-05
-8.98366e-06
1.76778e-05
-8.11127e-06
1.76827e-05
-7.29165e-06
1.76501e-05
-6.5251e-06
1.75842e-05
-5.81149e-06
1.74896e-05
-5.15029e-06
1.73706e-05
-4.54058e-06
1.72317e-05
-3.98112e-06
1.70772e-05
-3.47036e-06
1.69114e-05
-3.00652e-06
1.67385e-05
-2.58756e-06
1.65625e-05
-2.21132e-06
1.63874e-05
-1.87547e-06
1.6217e-05
-1.57763e-06
1.60547e-05
-1.31532e-06
1.59043e-05
-1.08606e-06
1.57689e-05
-8.87356e-07
1.56517e-05
-7.16738e-07
1.55559e-05
-5.7179e-07
1.54842e-05
-4.50148e-07
1.54395e-05
-3.49513e-07
1.54245e-05
-2.67654e-07
1.54416e-05
-2.02414e-07
1.54933e-05
-1.51707e-07
1.55822e-05
-1.13517e-07
1.57105e-05
-8.58905e-08
1.58804e-05
-6.69191e-08
1.6094e-05
-5.47196e-08
1.63528e-05
-4.74156e-08
1.66575e-05
-4.3115e-08
1.70069e-05
-3.98864e-08
1.73959e-05
-3.5737e-08
1.78086e-05
-2.86039e-08
1.81877e-05
1.80624e-05
-1.50509e-05
1.55193e-05
-1.3964e-05
1.58631e-05
-1.29137e-05
1.61511e-05
-1.19028e-05
1.63857e-05
-1.09339e-05
1.65697e-05
-1.0009e-05
1.67062e-05
-9.12978e-06
1.67986e-05
-8.2975e-06
1.68504e-05
-7.51299e-06
1.68655e-05
-6.77666e-06
1.68479e-05
-6.08857e-06
1.68015e-05
-5.44838e-06
1.67304e-05
-4.85541e-06
1.66387e-05
-4.3087e-06
1.65305e-05
-3.80697e-06
1.64097e-05
-3.34872e-06
1.62802e-05
-2.93223e-06
1.6146e-05
-2.55562e-06
1.60108e-05
-2.21686e-06
1.58782e-05
-1.91382e-06
1.57517e-05
-1.6443e-06
1.56348e-05
-1.40604e-06
1.55306e-05
-1.19677e-06
1.54425e-05
-1.01422e-06
1.53734e-05
-8.56129e-07
1.53262e-05
-7.2029e-07
1.53037e-05
-6.04521e-07
1.53087e-05
-5.06694e-07
1.53437e-05
-4.24732e-07
1.54114e-05
-3.56617e-07
1.55141e-05
-3.00382e-07
1.56543e-05
-2.54103e-07
1.58342e-05
-2.15889e-07
1.60558e-05
-1.83857e-07
1.63208e-05
-1.5613e-07
1.66297e-05
-1.30815e-07
1.69816e-05
-1.0602e-07
1.73711e-05
-7.9883e-08
1.77825e-05
-5.06574e-08
1.81585e-05
1.80118e-05
-1.47885e-05
1.44715e-05
-1.37698e-05
1.48444e-05
-1.27832e-05
1.51645e-05
-1.18316e-05
1.5434e-05
-1.09172e-05
1.56554e-05
-1.00422e-05
1.58312e-05
-9.20817e-06
1.59645e-05
-8.41637e-06
1.60586e-05
-7.6677e-06
1.61169e-05
-6.96269e-06
1.61429e-05
-6.30153e-06
1.61403e-05
-5.68405e-06
1.6113e-05
-5.10981e-06
1.60645e-05
-4.57803e-06
1.59987e-05
-4.0877e-06
1.59193e-05
-3.63756e-06
1.58301e-05
-3.22616e-06
1.57347e-05
-2.85187e-06
1.56365e-05
-2.51292e-06
1.55392e-05
-2.20742e-06
1.54462e-05
-1.93339e-06
1.53608e-05
-1.6888e-06
1.52861e-05
-1.47158e-06
1.52253e-05
-1.27963e-06
1.51815e-05
-1.11086e-06
1.51574e-05
-9.63201e-07
1.51561e-05
-8.34588e-07
1.51801e-05
-7.22997e-07
1.52322e-05
-6.26442e-07
1.53148e-05
-5.42976e-07
1.54307e-05
-4.70687e-07
1.5582e-05
-4.07692e-07
1.57712e-05
-3.5212e-07
1.60003e-05
-3.02106e-07
1.62708e-05
-2.55775e-07
1.65834e-05
-2.11245e-07
1.69371e-05
-1.66637e-07
1.73265e-05
-1.20134e-07
1.7736e-05
-7.0056e-08
1.81084e-05
1.79417e-05
-1.44678e-05
1.3494e-05
-1.35154e-05
1.3892e-05
-1.25911e-05
1.42402e-05
-1.16975e-05
1.45405e-05
-1.08369e-05
1.47948e-05
-1.00113e-05
1.50056e-05
-9.22234e-06
1.51755e-05
-8.47125e-06
1.53075e-05
-7.75898e-06
1.54046e-05
-7.08618e-06
1.54701e-05
-6.45314e-06
1.55073e-05
-5.85987e-06
1.55197e-05
-5.30605e-06
1.55107e-05
-4.79114e-06
1.54838e-05
-4.31431e-06
1.54425e-05
-3.87453e-06
1.53903e-05
-3.47057e-06
1.53307e-05
-3.10104e-06
1.5267e-05
-2.76438e-06
1.52026e-05
-2.45892e-06
1.51408e-05
-2.18289e-06
1.50847e-05
-1.93446e-06
1.50377e-05
-1.71173e-06
1.50026e-05
-1.51279e-06
1.49825e-05
-1.3357e-06
1.49803e-05
-1.1785e-06
1.49989e-05
-1.03927e-06
1.50409e-05
-9.16078e-07
1.5109e-05
-8.07035e-07
1.52058e-05
-7.10269e-07
1.53339e-05
-6.23927e-07
1.54957e-05
-5.46171e-07
1.56934e-05
-4.75161e-07
1.59292e-05
-4.09055e-07
1.62047e-05
-3.45995e-07
1.65204e-05
-2.84109e-07
1.68752e-05
-2.21532e-07
1.7264e-05
-1.56457e-07
1.76709e-05
-8.72225e-08
1.80392e-05
1.78545e-05
-1.40926e-05
1.25846e-05
-1.32046e-05
1.30041e-05
-1.2341e-05
1.33767e-05
-1.15043e-05
1.37037e-05
-1.06966e-05
1.39871e-05
-9.91982e-06
1.42288e-05
-9.17565e-06
1.44314e-05
-8.46535e-06
1.45972e-05
-7.78992e-06
1.47292e-05
-7.15005e-06
1.48303e-05
-6.54615e-06
1.49034e-05
-5.97833e-06
1.49519e-05
-5.44644e-06
1.49788e-05
-4.95007e-06
1.49874e-05
-4.48861e-06
1.49811e-05
-4.06119e-06
1.49629e-05
-3.6668e-06
1.49363e-05
-3.30423e-06
1.49044e-05
-2.97212e-06
1.48705e-05
-2.669e-06
1.48377e-05
-2.39329e-06
1.48091e-05
-2.14333e-06
1.47877e-05
-1.91741e-06
1.47767e-05
-1.71375e-06
1.47789e-05
-1.53056e-06
1.47972e-05
-1.36602e-06
1.48343e-05
-1.21832e-06
1.48932e-05
-1.08564e-06
1.49763e-05
-9.66178e-07
1.50864e-05
-8.58141e-07
1.52259e-05
-7.59739e-07
1.53973e-05
-6.69181e-07
1.56029e-05
-5.84669e-07
1.58447e-05
-5.04391e-07
1.61244e-05
-4.26513e-07
1.64425e-05
-3.49184e-07
1.67979e-05
-2.70549e-07
1.71854e-05
-1.88818e-07
1.75892e-05
-1.02372e-07