/*--------------------------------*- C++ -*----------------------------------*\
| =========                 |                                                 |
| \\      /  F ield         | OpenFOAM: The Open Source CFD Toolbox           |
|  \\    /   O peration     | Version:  5.0                                   |
|   \\  /    A nd           | Web:      www.OpenFOAM.org                      |
|    \\/     M anipulation  |                                                 |
\*---------------------------------------------------------------------------*/
FoamFile
{
    version     2.0;
    format      ascii;
    class       volVectorField;
    location    "0.25";
    object      U;
}
// * * * * * * * * * * * * * * * * * * * * * * * * * * * * * * * * * * * * * //

dimensions      [0 1 -1 0 0 0 0];

internalField   nonuniform List<vector> 
1935
(
(-0.246745 0.630077 0)
(-0.234672 0.595989 0)
(-0.227374 0.562681 0)
(-0.223573 0.530448 0)
(-0.22218 0.499389 0)
(-0.222285 0.469546 0)
(-0.223167 0.440915 0)
(-0.224274 0.413472 0)
(-0.225205 0.387181 0)
(-0.225683 0.362003 0)
(-0.225535 0.337903 0)
(-0.22466 0.314858 0)
(-0.223019 0.292854 0)
(-0.220606 0.271886 0)
(-0.217443 0.251948 0)
(-0.213568 0.233037 0)
(-0.209031 0.215149 0)
(-0.203888 0.198276 0)
(-0.198201 0.182412 0)
(-0.192031 0.167541 0)
(-0.185439 0.153647 0)
(-0.178482 0.140705 0)
(-0.171217 0.128687 0)
(-0.163696 0.117562 0)
(-0.155965 0.107294 0)
(-0.148069 0.0978471 0)
(-0.140043 0.0891816 0)
(-0.131921 0.0812579 0)
(-0.123731 0.074036 0)
(-0.115497 0.0674767 0)
(-0.10724 0.0615417 0)
(-0.0989832 0.0561947 0)
(-0.0907484 0.0514022 0)
(-0.0825633 0.0471356 0)
(-0.0744626 0.0433717 0)
(-0.0664917 0.0400955 0)
(-0.0587121 0.0373032 0)
(-0.051207 0.0350069 0)
(-0.0440902 0.0332401 0)
(-0.0375214 0.0320604 0)
(-0.0317313 0.0315373 0)
(-0.0270617 0.0318097 0)
(-0.0241208 0.0333043 0)
(-0.212805 0.64049 0)
(-0.176148 0.648078 0)
(-0.135614 0.652072 0)
(-0.0919335 0.651218 0)
(-0.202169 0.603083 0)
(-0.168254 0.607397 0)
(-0.132026 0.608532 0)
(-0.0940454 0.605816 0)
(-0.19647 0.567626 0)
(-0.165031 0.569941 0)
(-0.132265 0.569465 0)
(-0.0986161 0.565842 0)
(-0.194299 0.534036 0)
(-0.165054 0.5352 0)
(-0.135116 0.5339 0)
(-0.104834 0.529967 0)
(-0.194483 0.50218 0)
(-0.167177 0.502753 0)
(-0.139586 0.501138 0)
(-0.111988 0.497273 0)
(-0.196082 0.471923 0)
(-0.170499 0.472275 0)
(-0.144893 0.470668 0)
(-0.119484 0.467109 0)
(-0.198367 0.443142 0)
(-0.174328 0.443514 0)
(-0.15043 0.442126 0)
(-0.126849 0.439022 0)
(-0.200789 0.415728 0)
(-0.178148 0.41628 0)
(-0.155747 0.415244 0)
(-0.133731 0.41268 0)
(-0.202959 0.389589 0)
(-0.181596 0.390424 0)
(-0.160534 0.389817 0)
(-0.139893 0.387836 0)
(-0.204612 0.364643 0)
(-0.184436 0.365824 0)
(-0.164595 0.36569 0)
(-0.145191 0.364307 0)
(-0.205587 0.340827 0)
(-0.186527 0.34239 0)
(-0.167819 0.342747 0)
(-0.149551 0.341963 0)
(-0.205797 0.318095 0)
(-0.187798 0.320058 0)
(-0.170156 0.320912 0)
(-0.152945 0.320719 0)
(-0.205207 0.29642 0)
(-0.188225 0.29879 0)
(-0.171595 0.300136 0)
(-0.155381 0.300517 0)
(-0.203818 0.275783 0)
(-0.187816 0.278557 0)
(-0.172154 0.280382 0)
(-0.156888 0.281315 0)
(-0.201652 0.256172 0)
(-0.1866 0.259337 0)
(-0.171869 0.261622 0)
(-0.157511 0.263076 0)
(-0.198748 0.237575 0)
(-0.184621 0.241113 0)
(-0.17079 0.24383 0)
(-0.157306 0.245772 0)
(-0.195158 0.219979 0)
(-0.181929 0.223866 0)
(-0.168972 0.226984 0)
(-0.156332 0.229378 0)
(-0.190938 0.203376 0)
(-0.178583 0.207581 0)
(-0.166473 0.211067 0)
(-0.154648 0.213873 0)
(-0.186146 0.187752 0)
(-0.17464 0.192243 0)
(-0.16335 0.196061 0)
(-0.152313 0.199241 0)
(-0.180843 0.173094 0)
(-0.170157 0.177837 0)
(-0.159659 0.181951 0)
(-0.14938 0.185466 0)
(-0.175087 0.159381 0)
(-0.16519 0.164343 0)
(-0.155453 0.168717 0)
(-0.145904 0.172528 0)
(-0.168934 0.14659 0)
(-0.159793 0.151739 0)
(-0.150786 0.156337 0)
(-0.141937 0.160406 0)
(-0.162437 0.134694 0)
(-0.154018 0.139996 0)
(-0.145708 0.144784 0)
(-0.137529 0.149075 0)
(-0.155646 0.123661 0)
(-0.147913 0.129086 0)
(-0.140267 0.134031 0)
(-0.132727 0.13851 0)
(-0.148609 0.113458 0)
(-0.141526 0.118977 0)
(-0.13451 0.124049 0)
(-0.127579 0.128684 0)
(-0.141366 0.10405 0)
(-0.134898 0.109637 0)
(-0.128478 0.114809 0)
(-0.122125 0.11957 0)
(-0.133955 0.0954007 0)
(-0.128066 0.101034 0)
(-0.122209 0.10628 0)
(-0.116404 0.111142 0)
(-0.12641 0.0874742 0)
(-0.121064 0.0931346 0)
(-0.115739 0.0984342 0)
(-0.110452 0.103375 0)
(-0.118758 0.0802342 0)
(-0.113923 0.0859054 0)
(-0.109098 0.0912409 0)
(-0.1043 0.0962412 0)
(-0.111025 0.0736449 0)
(-0.106669 0.0793144 0)
(-0.102314 0.0846712 0)
(-0.0979781 0.0897152 0)
(-0.103237 0.0676718 0)
(-0.0993293 0.0733303 0)
(-0.0954166 0.0786972 0)
(-0.0915166 0.0837718 0)
(-0.0954159 0.0622823 0)
(-0.0919294 0.0679235 0)
(-0.0884338 0.0732924 0)
(-0.0849458 0.0783874 0)
(-0.0875894 0.0574468 0)
(-0.0844989 0.0630673 0)
(-0.0813975 0.0684327 0)
(-0.0783 0.0735406 0)
(-0.0797884 0.0531393 0)
(-0.0770726 0.0587384 0)
(-0.0743457 0.0640974 0)
(-0.0716201 0.0692127 0)
(-0.0720524 0.0493394 0)
(-0.0696946 0.0549189 0)
(-0.0673263 0.0602702 0)
(-0.0649572 0.0653888 0)
(-0.064434 0.0460344 0)
(-0.0624226 0.0515969 0)
(-0.0604015 0.0569399 0)
(-0.0583774 0.0620582 0)
(-0.0570031 0.0432208 0)
(-0.0553337 0.0487688 0)
(-0.0536539 0.054102 0)
(-0.051967 0.0592148 0)
(-0.0498541 0.0409085 0)
(-0.0485301 0.0464412 0)
(-0.0471913 0.0517592 0)
(-0.0458375 0.0568573 0)
(-0.0431136 0.0391238 0)
(-0.0421465 0.044632 0)
(-0.0411525 0.0499208 0)
(-0.0401294 0.0549874 0)
(-0.0369525 0.0379078 0)
(-0.0363581 0.043367 0)
(-0.0357127 0.0485988 0)
(-0.0350145 0.0536052 0)
(-0.0316014 0.0373022 0)
(-0.0313886 0.0426649 0)
(-0.0310848 0.047794 0)
(-0.0306936 0.0526987 0)
(-0.0273712 0.0373739 0)
(-0.0275183 0.0425431 0)
(-0.0275209 0.0474898 0)
(-0.0273937 0.0522264 0)
(-0.0247665 0.0383703 0)
(-0.025168 0.0431183 0)
(-0.0253795 0.0477009 0)
(-0.0254297 0.0521244 0)
(-0.0441339 0.643944 0)
(0.00579835 0.627305 0)
(0.0519653 0.60237 0)
(0.0924188 0.570877 0)
(0.126074 0.534813 0)
(0.152523 0.496145 0)
(0.171945 0.45668 0)
(0.184963 0.41792 0)
(0.192469 0.38097 0)
(0.195439 0.346544 0)
(0.194814 0.315034 0)
(0.191439 0.286589 0)
(0.186034 0.261186 0)
(0.179197 0.238687 0)
(0.171408 0.21889 0)
(0.163041 0.201561 0)
(0.154384 0.186453 0)
(0.145647 0.173328 0)
(0.136982 0.161964 0)
(0.128491 0.152159 0)
(0.120242 0.143735 0)
(0.112273 0.136536 0)
(0.104601 0.130431 0)
(0.0972296 0.125304 0)
(0.0901513 0.121061 0)
(0.0833503 0.117622 0)
(0.0768056 0.114922 0)
(0.0704928 0.112907 0)
(0.0643851 0.111534 0)
(0.0584541 0.110772 0)
(0.0526707 0.110597 0)
(0.0470052 0.110994 0)
(0.0414282 0.111955 0)
(0.0359105 0.113479 0)
(0.0304238 0.115568 0)
(0.0249393 0.118222 0)
(0.0194316 0.121429 0)
(0.0139178 0.125133 0)
(0.00844712 0.12909 0)
(0.00334533 0.130725 0)
(-0.0532026 0.59817 0)
(-0.0107036 0.583481 0)
(0.0289838 0.562506 0)
(0.0644096 0.536323 0)
(0.0946691 0.506296 0)
(0.119325 0.473855 0)
(0.138373 0.440364 0)
(0.152156 0.407005 0)
(0.161243 0.374707 0)
(0.166313 0.344129 0)
(0.168067 0.315693 0)
(0.16717 0.289622 0)
(0.164217 0.265988 0)
(0.159725 0.244755 0)
(0.154124 0.225818 0)
(0.147762 0.209027 0)
(0.140916 0.194211 0)
(0.133798 0.181194 0)
(0.126569 0.169804 0)
(0.119344 0.159879 0)
(0.112206 0.151273 0)
(0.105209 0.143855 0)
(0.0983874 0.137511 0)
(0.0917598 0.13214 0)
(0.0853322 0.127658 0)
(0.0791017 0.123992 0)
(0.0730587 0.121082 0)
(0.0671888 0.118877 0)
(0.0614739 0.117339 0)
(0.0558937 0.116435 0)
(0.050426 0.116144 0)
(0.0450476 0.116451 0)
(0.0397346 0.117348 0)
(0.0344632 0.118834 0)
(0.0292095 0.12091 0)
(0.0239492 0.123575 0)
(0.0186607 0.126812 0)
(0.0133637 0.130561 0)
(0.00810798 0.134554 0)
(0.00320702 0.136086 0)
(-0.0629205 0.558281 0)
(-0.0259587 0.545238 0)
(0.00875954 0.527326 0)
(0.0401687 0.50525 0)
(0.0675525 0.479964 0)
(0.0905065 0.452513 0)
(0.10894 0.423923 0)
(0.123023 0.395121 0)
(0.133117 0.366874 0)
(0.13969 0.339766 0)
(0.14326 0.314207 0)
(0.144341 0.29045 0)
(0.143418 0.268625 0)
(0.140923 0.248764 0)
(0.13723 0.230831 0)
(0.132655 0.214744 0)
(0.127454 0.200391 0)
(0.121832 0.18765 0)
(0.115949 0.176394 0)
(0.109928 0.166498 0)
(0.103861 0.157846 0)
(0.097813 0.15033 0)
(0.091832 0.143855 0)
(0.0859476 0.138335 0)
(0.0801776 0.133696 0)
(0.0745298 0.129874 0)
(0.0690045 0.126815 0)
(0.0635961 0.124472 0)
(0.0582946 0.122811 0)
(0.0530869 0.121802 0)
(0.0479576 0.121425 0)
(0.0428894 0.121667 0)
(0.0378639 0.122522 0)
(0.0328622 0.123986 0)
(0.027865 0.126061 0)
(0.0228524 0.128744 0)
(0.017807 0.132017 0)
(0.0127505 0.13581 0)
(0.00773308 0.139837 0)
(0.00305594 0.141263 0)
(-0.0730439 0.522799 0)
(-0.0402832 0.51123 0)
(-0.00940972 0.495803 0)
(0.0188033 0.477011 0)
(0.0437957 0.455533 0)
(0.0652193 0.432138 0)
(0.0829499 0.407606 0)
(0.0970608 0.382662 0)
(0.107776 0.357934 0)
(0.11542 0.333927 0)
(0.120372 0.311018 0)
(0.123026 0.289467 0)
(0.123768 0.269431 0)
(0.122957 0.250986 0)
(0.120912 0.234146 0)
(0.117908 0.218877 0)
(0.114178 0.205117 0)
(0.109916 0.192787 0)
(0.105276 0.181798 0)
(0.100383 0.172057 0)
(0.0953319 0.163477 0)
(0.0901972 0.155971 0)
(0.0850335 0.149463 0)
(0.0798802 0.143881 0)
(0.0747639 0.139161 0)
(0.0697013 0.13525 0)
(0.0647009 0.132099 0)
(0.0597648 0.129669 0)
(0.0548904 0.127927 0)
(0.0500712 0.12685 0)
(0.0452976 0.126417 0)
(0.040558 0.126619 0)
(0.0358392 0.12745 0)
(0.031127 0.128908 0)
(0.0264066 0.130993 0)
(0.0216622 0.133702 0)
(0.0168807 0.137013 0)
(0.0120856 0.140851 0)
(0.00732722 0.14491 0)
(0.00289279 0.146229 0)
(-0.0832394 0.490694 0)
(-0.0537314 0.480495 0)
(-0.0258684 0.467168 0)
(-0.000214977 0.45108 0)
(0.0227971 0.432724 0)
(0.0428776 0.412678 0)
(0.0598985 0.391538 0)
(0.0738792 0.369879 0)
(0.0849573 0.348212 0)
(0.0933561 0.326965 0)
(0.0993521 0.306477 0)
(0.103247 0.286998 0)
(0.105346 0.268695 0)
(0.10594 0.25167 0)
(0.105298 0.235968 0)
(0.103659 0.221593 0)
(0.101231 0.20852 0)
(0.0981903 0.196705 0)
(0.0946838 0.186089 0)
(0.0908322 0.17661 0)
(0.0867332 0.168202 0)
(0.0824639 0.1608 0)
(0.0780843 0.154344 0)
(0.07364 0.148777 0)
(0.0691644 0.144047 0)
(0.064681 0.140108 0)
(0.0602051 0.136921 0)
(0.0557454 0.13445 0)
(0.0513055 0.132669 0)
(0.0468847 0.131557 0)
(0.0424789 0.131099 0)
(0.0380817 0.131285 0)
(0.0336845 0.132111 0)
(0.0292776 0.133577 0)
(0.0248505 0.135683 0)
(0.0203916 0.138424 0)
(0.0158914 0.141776 0)
(0.0113754 0.145658 0)
(0.00689352 0.149746 0)
(0.00271777 0.15096 0)
(-0.0931635 0.461239 0)
(-0.0662337 0.452331 0)
(-0.0407701 0.440831 0)
(-0.0171954 0.427022 0)
(0.00416623 0.411281 0)
(0.0230758 0.394043 0)
(0.0394142 0.375777 0)
(0.0531726 0.356937 0)
(0.064434 0.337941 0)
(0.0733518 0.319152 0)
(0.0801278 0.300867 0)
(0.0849914 0.283317 0)
(0.0881822 0.26667 0)
(0.0899368 0.251039 0)
(0.0904791 0.23649 0)
(0.0900137 0.223054 0)
(0.0887232 0.210733 0)
(0.0867671 0.199508 0)
(0.0842818 0.18935 0)
(0.0813824 0.180216 0)
(0.0781645 0.172064 0)
(0.0747059 0.164847 0)
(0.0710692 0.158518 0)
(0.0673041 0.153036 0)
(0.0634485 0.148357 0)
(0.0595311 0.144447 0)
(0.0555726 0.141272 0)
(0.0515871 0.138804 0)
(0.0475833 0.137022 0)
(0.0435657 0.135909 0)
(0.039535 0.135452 0)
(0.0354893 0.135645 0)
(0.0314245 0.136485 0)
(0.0273349 0.137973 0)
(0.023214 0.140111 0)
(0.019054 0.14289 0)
(0.0148493 0.146287 0)
(0.0106267 0.150212 0)
(0.00643572 0.154325 0)
(0.00253242 0.155432 0)
(-0.10252 0.433921 0)
(-0.0776885 0.426232 0)
(-0.0541837 0.416349 0)
(-0.032325 0.404503 0)
(-0.0123608 0.390989 0)
(0.00552128 0.376147 0)
(0.0212138 0.360344 0)
(0.0346936 0.343947 0)
(0.0460091 0.327298 0)
(0.0552658 0.310702 0)
(0.0626112 0.294418 0)
(0.0682196 0.278656 0)
(0.0722794 0.263576 0)
(0.0749816 0.249295 0)
(0.076512 0.235892 0)
(0.0770445 0.223415 0)
(0.0767385 0.211885 0)
(0.0757359 0.201305 0)
(0.0741617 0.191665 0)
(0.0721234 0.182945 0)
(0.0697124 0.175116 0)
(0.0670051 0.168149 0)
(0.0640649 0.162012 0)
(0.0609431 0.156673 0)
(0.0576808 0.152101 0)
(0.0543103 0.148269 0)
(0.0508562 0.145151 0)
(0.0473371 0.142727 0)
(0.043766 0.140979 0)
(0.0401516 0.139894 0)
(0.0364987 0.139464 0)
(0.0328095 0.139685 0)
(0.0290838 0.140557 0)
(0.0253198 0.142081 0)
(0.0215144 0.144259 0)
(0.0176636 0.147083 0)
(0.013765 0.150526 0)
(0.00984714 0.154494 0)
(0.00595853 0.158628 0)
(0.00233913 0.159626 0)
(-0.111085 0.408369 0)
(-0.0880098 0.401827 0)
(-0.0661465 0.393398 0)
(-0.0457385 0.383272 0)
(-0.0269763 0.371687 0)
(-0.01001 0.358917 0)
(0.0050702 0.345254 0)
(0.0182337 0.330994 0)
(0.0295065 0.31642 0)
(0.0389614 0.301788 0)
(0.0467066 0.287323 0)
(0.0528752 0.273211 0)
(0.0576154 0.259604 0)
(0.0610816 0.246618 0)
(0.0634275 0.234336 0)
(0.0648003 0.222818 0)
(0.0653379 0.2121 0)
(0.0651659 0.2022 0)
(0.0643969 0.193124 0)
(0.0631299 0.184866 0)
(0.0614508 0.177414 0)
(0.0594331 0.170751 0)
(0.0571391 0.164857 0)
(0.0546206 0.159712 0)
(0.0519203 0.155294 0)
(0.0490727 0.151584 0)
(0.0461056 0.148563 0)
(0.0430406 0.146217 0)
(0.0398941 0.144534 0)
(0.0366785 0.143506 0)
(0.0334021 0.143127 0)
(0.0300705 0.143396 0)
(0.026687 0.144315 0)
(0.0232531 0.145887 0)
(0.0197692 0.148113 0)
(0.0162344 0.150987 0)
(0.0126498 0.154478 0)
(0.00904475 0.158487 0)
(0.00546719 0.162638 0)
(0.00214038 0.163524 0)
(-0.118709 0.384312 0)
(-0.0971457 0.378849 0)
(-0.0766944 0.371739 0)
(-0.0575425 0.363142 0)
(-0.0398374 0.353256 0)
(-0.0236998 0.342302 0)
(-0.00920687 0.330518 0)
(0.00361137 0.318145 0)
(0.0147662 0.305416 0)
(0.0243073 0.292549 0)
(0.0323149 0.279738 0)
(0.0388913 0.267148 0)
(0.0441535 0.25492 0)
(0.0482266 0.243164 0)
(0.0512374 0.231968 0)
(0.0533104 0.221397 0)
(0.0545642 0.211496 0)
(0.0551089 0.202295 0)
(0.055045 0.193811 0)
(0.0544626 0.186052 0)
(0.0534414 0.179017 0)
(0.0520509 0.1727 0)
(0.0503511 0.167092 0)
(0.0483932 0.162182 0)
(0.0462202 0.157957 0)
(0.0438681 0.154406 0)
(0.0413665 0.151517 0)
(0.0387393 0.149281 0)
(0.0360058 0.147691 0)
(0.0331808 0.146743 0)
(0.0302759 0.146435 0)
(0.0272994 0.14677 0)
(0.0242577 0.14775 0)
(0.0211553 0.14938 0)
(0.0179955 0.151663 0)
(0.0147805 0.15459 0)
(0.0115145 0.15813 0)
(0.00822754 0.162178 0)
(0.00496671 0.166342 0)
(0.00193828 0.167113 0)
(-0.125307 0.361555 0)
(-0.105079 0.357108 0)
(-0.0858726 0.351205 0)
(-0.0678341 0.343985 0)
(-0.0510797 0.335611 0)
(-0.0357074 0.326267 0)
(-0.0217823 0.316148 0)
(-0.00933399 0.305452 0)
(0.00164213 0.294375 0)
(0.0111796 0.283099 0)
(0.0193379 0.271793 0)
(0.0261964 0.260605 0)
(0.031848 0.249663 0)
(0.0363941 0.239072 0)
(0.0399397 0.228919 0)
(0.0425895 0.219271 0)
(0.044445 0.21018 0)
(0.0456023 0.201685 0)
(0.0461503 0.19381 0)
(0.0461702 0.186573 0)
(0.0457351 0.179983 0)
(0.04491 0.174044 0)
(0.0437519 0.168755 0)
(0.0423103 0.164114 0)
(0.040628 0.160115 0)
(0.0387412 0.156754 0)
(0.0366808 0.154025 0)
(0.0344723 0.151926 0)
(0.0321366 0.150453 0)
(0.029691 0.149607 0)
(0.0271492 0.149389 0)
(0.0245222 0.149804 0)
(0.0218188 0.150858 0)
(0.019046 0.152556 0)
(0.01621 0.154901 0)
(0.0133156 0.157885 0)
(0.0103696 0.161473 0)
(0.0074029 0.165557 0)
(0.00446127 0.169728 0)
(0.0017338 0.170383 0)
(-0.130847 0.339963 0)
(-0.111823 0.336474 0)
(-0.0937378 0.331683 0)
(-0.0767084 0.325711 0)
(-0.0608272 0.318697 0)
(-0.0461743 0.310791 0)
(-0.0328048 0.302158 0)
(-0.0207459 0.292962 0)
(-0.00999815 0.283367 0)
(-0.000537362 0.27353 0)
(0.00768098 0.263597 0)
(0.0147182 0.2537 0)
(0.0206485 0.243955 0)
(0.0255544 0.234461 0)
(0.0295225 0.225303 0)
(0.0326409 0.216548 0)
(0.0349962 0.208253 0)
(0.0366715 0.200459 0)
(0.0377453 0.1932 0)
(0.0382902 0.186499 0)
(0.0383728 0.180373 0)
(0.038053 0.174834 0)
(0.0373845 0.169889 0)
(0.0364147 0.165541 0)
(0.0351851 0.161794 0)
(0.033732 0.158649 0)
(0.0320863 0.156105 0)
(0.0302746 0.154164 0)
(0.0283192 0.152829 0)
(0.0262389 0.152103 0)
(0.0240492 0.15199 0)
(0.0217632 0.152499 0)
(0.0193917 0.153636 0)
(0.016944 0.155409 0)
(0.0144285 0.157821 0)
(0.0118526 0.160864 0)
(0.00922525 0.164501 0)
(0.00657752 0.168617 0)
(0.00395397 0.172789 0)
(0.00152609 0.173324 0)
(-0.13533 0.319446 0)
(-0.117413 0.316857 0)
(-0.100358 0.313092 0)
(-0.0842607 0.308258 0)
(-0.0691959 0.302471 0)
(-0.0552293 0.295859 0)
(-0.0424075 0.288558 0)
(-0.0307547 0.280709 0)
(-0.020274 0.272451 0)
(-0.0109487 0.263919 0)
(-0.00274464 0.25524 0)
(0.0043864 0.246532 0)
(0.0105032 0.2379 0)
(0.0156728 0.229437 0)
(0.0199669 0.221224 0)
(0.0234593 0.213327 0)
(0.0262237 0.205804 0)
(0.028332 0.198701 0)
(0.0298528 0.192055 0)
(0.0308509 0.185894 0)
(0.0313865 0.180243 0)
(0.0315145 0.175119 0)
(0.0312848 0.170535 0)
(0.0307425 0.166501 0)
(0.0299276 0.163025 0)
(0.0288753 0.160115 0)
(0.0276165 0.157775 0)
(0.0261782 0.156011 0)
(0.0245833 0.15483 0)
(0.0228519 0.154238 0)
(0.0210009 0.154244 0)
(0.0190449 0.154857 0)
(0.0169965 0.156086 0)
(0.0148669 0.157941 0)
(0.0126662 0.160424 0)
(0.0104038 0.163526 0)
(0.00809093 0.16721 0)
(0.00575817 0.171356 0)
(0.00344846 0.175523 0)
(0.00131525 0.175928 0)
(-0.138785 0.299939 0)
(-0.121901 0.298193 0)
(-0.105808 0.295376 0)
(-0.0905854 0.29158 0)
(-0.0762945 0.286905 0)
(-0.0629895 0.281459 0)
(-0.0507096 0.275359 0)
(-0.0394763 0.268725 0)
(-0.0292938 0.261676 0)
(-0.0201504 0.25433 0)
(-0.0120204 0.246798 0)
(-0.00486608 0.239186 0)
(0.00136005 0.231588 0)
(0.00671215 0.224091 0)
(0.0112492 0.216771 0)
(0.0150331 0.209694 0)
(0.0181265 0.202916 0)
(0.0205912 0.196486 0)
(0.0224874 0.190444 0)
(0.0238726 0.184822 0)
(0.0248006 0.179649 0)
(0.0253218 0.174947 0)
(0.0254823 0.170735 0)
(0.0253243 0.167027 0)
(0.024886 0.163838 0)
(0.0242013 0.161177 0)
(0.0233007 0.159056 0)
(0.022211 0.157484 0)
(0.0209555 0.15647 0)
(0.0195549 0.156025 0)
(0.0180272 0.156159 0)
(0.0163882 0.156884 0)
(0.0146518 0.158212 0)
(0.0128309 0.160151 0)
(0.010937 0.162708 0)
(0.00898127 0.165871 0)
(0.0069763 0.169601 0)
(0.00495231 0.173772 0)
(0.00295032 0.177928 0)
(0.00110516 0.178188 0)
(-0.141258 0.281394 0)
(-0.125349 0.280434 0)
(-0.110166 0.278489 0)
(-0.095774 0.275641 0)
(-0.0822238 0.271975 0)
(-0.0695606 0.267585 0)
(-0.0578176 0.262571 0)
(-0.0470135 0.257036 0)
(-0.0371534 0.251084 0)
(-0.0282294 0.244818 0)
(-0.0202221 0.238337 0)
(-0.0131021 0.231734 0)
(-0.00683165 0.225096 0)
(-0.00136647 0.218502 0)
(0.00334211 0.212024 0)
(0.00734558 0.205726 0)
(0.0106971 0.199663 0)
(0.01345 0.193884 0)
(0.0156569 0.188431 0)
(0.0173684 0.183341 0)
(0.0186329 0.178644 0)
(0.019496 0.174366 0)
(0.0200002 0.170531 0)
(0.0201849 0.167158 0)
(0.0200859 0.164264 0)
(0.0197359 0.161864 0)
(0.0191644 0.159972 0)
(0.0183976 0.158602 0)
(0.0174591 0.157765 0)
(0.0163699 0.157474 0)
(0.0151485 0.157744 0)
(0.0138117 0.158588 0)
(0.0123746 0.160018 0)
(0.010851 0.162047 0)
(0.009254 0.164677 0)
(0.00759591 0.167901 0)
(0.00589061 0.171675 0)
(0.00416757 0.175868 0)
(0.0024659 0.180005 0)
(0.000901718 0.180107 0)
(-0.142805 0.263772 0)
(-0.127826 0.263539 0)
(-0.11351 0.262397 0)
(-0.099913 0.260413 0)
(-0.087076 0.257664 0)
(-0.0750374 0.254231 0)
(-0.0638257 0.250202 0)
(-0.0534576 0.245665 0)
(-0.0439387 0.240712 0)
(-0.0352642 0.235432 0)
(-0.0274196 0.229914 0)
(-0.020382 0.22424 0)
(-0.0141215 0.218492 0)
(-0.00860217 0.21274 0)
(-0.00378405 0.207053 0)
(0.000376271 0.201491 0)
(0.00392379 0.19611 0)
(0.00690427 0.190957 0)
(0.00936344 0.186076 0)
(0.0113461 0.181505 0)
(0.0128954 0.177277 0)
(0.0140526 0.173422 0)
(0.0148567 0.169965 0)
(0.015344 0.16693 0)
(0.0155483 0.164336 0)
(0.0155005 0.162203 0)
(0.0152288 0.160547 0)
(0.0147591 0.159385 0)
(0.0141145 0.158731 0)
(0.0133161 0.158602 0)
(0.0123829 0.159013 0)
(0.0113322 0.159979 0)
(0.0101799 0.161515 0)
(0.00894075 0.163633 0)
(0.0076289 0.166338 0)
(0.00625773 0.169621 0)
(0.00484213 0.173436 0)
(0.00341063 0.177647 0)
(0.00200025 0.18176 0)
(0.000709232 0.181692 0)
(-0.143488 0.247039 0)
(-0.1294 0.247479 0)
(-0.115916 0.247071 0)
(-0.103082 0.245876 0)
(-0.0909344 0.243962 0)
(-0.0795048 0.241399 0)
(-0.0688185 0.238264 0)
(-0.0588906 0.234634 0)
(-0.0497275 0.23059 0)
(-0.0413265 0.226211 0)
(-0.0336774 0.221575 0)
(-0.0267624 0.216758 0)
(-0.0205578 0.211832 0)
(-0.0150346 0.206865 0)
(-0.0101598 0.201918 0)
(-0.00589727 0.197052 0)
(-0.0022087 0.192317 0)
(0.000945408 0.187763 0)
(0.00360468 0.183432 0)
(0.00580844 0.179365 0)
(0.00759525 0.175596 0)
(0.00900232 0.172156 0)
(0.0100651 0.169075 0)
(0.0108172 0.166377 0)
(0.0112899 0.164085 0)
(0.0115126 0.162222 0)
(0.0115121 0.160806 0)
(0.0113134 0.159855 0)
(0.0109392 0.159389 0)
(0.0104104 0.159424 0)
(0.00974611 0.159979 0)
(0.00896414 0.161069 0)
(0.00808091 0.162712 0)
(0.00711193 0.164919 0)
(0.00607197 0.167697 0)
(0.00497537 0.171036 0)
(0.00383783 0.174889 0)
(0.00268669 0.179114 0)
(0.00155654 0.183197 0)
(0.000529088 0.182954 0)
(-0.14337 0.231173 0)
(-0.130138 0.232228 0)
(-0.117453 0.232491 0)
(-0.105355 0.232016 0)
(-0.0938746 0.230861 0)
(-0.0830394 0.229089 0)
(-0.0728721 0.226766 0)
(-0.0633869 0.223961 0)
(-0.0545906 0.220745 0)
(-0.0464827 0.217189 0)
(-0.039056 0.213362 0)
(-0.032297 0.209333 0)
(-0.0261871 0.205168 0)
(-0.0207029 0.200928 0)
(-0.0158172 0.196674 0)
(-0.0114996 0.19246 0)
(-0.00771771 0.188337 0)
(-0.00443784 0.184353 0)
(-0.00162539 0.180551 0)
(0.00075435 0.176969 0)
(0.00273556 0.173645 0)
(0.0043516 0.170612 0)
(0.0056347 0.167899 0)
(0.00661566 0.165535 0)
(0.00732362 0.163543 0)
(0.00778603 0.161949 0)
(0.00802852 0.160773 0)
(0.00807495 0.160036 0)
(0.00794747 0.159758 0)
(0.00766663 0.159959 0)
(0.00725157 0.160657 0)
(0.00672016 0.161872 0)
(0.00608923 0.16362 0)
(0.00537474 0.165916 0)
(0.00459205 0.168765 0)
(0.00375617 0.172157 0)
(0.0028834 0.176044 0)
(0.00199964 0.180277 0)
(0.00113653 0.184325 0)
(0.00036116 0.183904 0)
(-0.142511 0.216151 0)
(-0.130103 0.217769 0)
(-0.118188 0.218643 0)
(-0.1068 0.218822 0)
(-0.095966 0.218357 0)
(-0.0857114 0.217302 0)
(-0.0760566 0.215717 0)
(-0.067015 0.213662 0)
(-0.058594 0.2112 0)
(-0.0507946 0.208394 0)
(-0.0436123 0.205308 0)
(-0.0370372 0.202003 0)
(-0.0310547 0.19854 0)
(-0.0256458 0.194976 0)
(-0.0207881 0.191367 0)
(-0.0164564 0.187765 0)
(-0.0126231 0.184219 0)
(-0.00925944 0.180775 0)
(-0.00633533 0.177476 0)
(-0.0038204 0.174361 0)
(-0.00168423 0.171467 0)
(0.00010314 0.168828 0)
(0.00157084 0.166475 0)
(0.002747 0.164437 0)
(0.00365862 0.162741 0)
(0.00433134 0.161412 0)
(0.00478939 0.160474 0)
(0.00505555 0.159949 0)
(0.00515123 0.159858 0)
(0.00509654 0.160224 0)
(0.00491041 0.161065 0)
(0.00461072 0.162403 0)
(0.00421443 0.164255 0)
(0.0037378 0.166637 0)
(0.00319656 0.169553 0)
(0.00260622 0.172994 0)
(0.00198343 0.17691 0)
(0.00135239 0.181147 0)
(0.000741219 0.185155 0)
(0.00020436 0.184557 0)
(-0.14097 0.201957 0)
(-0.129355 0.204085 0)
(-0.118181 0.205513 0)
(-0.10748 0.206284 0)
(-0.0972735 0.206444 0)
(-0.0875863 0.206039 0)
(-0.078437 0.205122 0)
(-0.0698386 0.203748 0)
(-0.0617988 0.201972 0)
(-0.0543201 0.199851 0)
(-0.0474001 0.197442 0)
(-0.0410318 0.194802 0)
(-0.0352037 0.191986 0)
(-0.0299008 0.189048 0)
(-0.0251045 0.186039 0)
(-0.020794 0.18301 0)
(-0.0169459 0.180006 0)
(-0.0135355 0.177073 0)
(-0.0105368 0.174252 0)
(-0.00792307 0.171582 0)
(-0.00566754 0.1691 0)
(-0.0037434 0.166841 0)
(-0.0021243 0.164837 0)
(-0.000784481 0.163116 0)
(0.000300948 0.161709 0)
(0.00115584 0.16064 0)
(0.00180298 0.159935 0)
(0.00226404 0.159618 0)
(0.00255962 0.159712 0)
(0.00270929 0.160239 0)
(0.00273162 0.161221 0)
(0.00264434 0.162679 0)
(0.00246439 0.164632 0)
(0.00220814 0.167095 0)
(0.00189156 0.170075 0)
(0.00153049 0.17356 0)
(0.00114171 0.1775 0)
(0.000747417 0.181737 0)
(0.000370904 0.185702 0)
(5.73507e-05 0.184924 0)
(-0.138803 0.188574 0)
(-0.127952 0.19116 0)
(-0.117493 0.193088 0)
(-0.107454 0.194393 0)
(-0.0978579 0.195115 0)
(-0.0887253 0.195298 0)
(-0.080074 0.194986 0)
(-0.0719169 0.194229 0)
(-0.0642622 0.193075 0)
(-0.0571134 0.191578 0)
(-0.0504699 0.189789 0)
(-0.0443269 0.187758 0)
(-0.0386757 0.185538 0)
(-0.0335044 0.183179 0)
(-0.028798 0.180728 0)
(-0.0245391 0.178232 0)
(-0.0207079 0.175737 0)
(-0.0172834 0.173285 0)
(-0.014243 0.170916 0)
(-0.0115634 0.168669 0)
(-0.00922086 0.166581 0)
(-0.00719148 0.164686 0)
(-0.00545145 0.163016 0)
(-0.00397733 0.161603 0)
(-0.00274625 0.160474 0)
(-0.00173601 0.159658 0)
(-0.000925235 0.159181 0)
(-0.000293352 0.159066 0)
(0.000179358 0.159339 0)
(0.000511795 0.160024 0)
(0.000722084 0.161142 0)
(0.000827635 0.162716 0)
(0.000845255 0.164766 0)
(0.000791303 0.167306 0)
(0.000681861 0.170344 0)
(0.000532966 0.173869 0)
(0.000361413 0.177828 0)
(0.000187345 0.18206 0)
(2.47174e-05 0.185981 0)
(-8.29297e-05 0.185023 0)
(-0.136064 0.175982 0)
(-0.125947 0.178978 0)
(-0.116177 0.181352 0)
(-0.10678 0.183136 0)
(-0.0977766 0.184365 0)
(-0.0891856 0.185076 0)
(-0.0810243 0.18531 0)
(-0.0733054 0.18511 0)
(-0.0660375 0.184522 0)
(-0.0592251 0.183593 0)
(-0.052869 0.182368 0)
(-0.0469661 0.180897 0)
(-0.0415103 0.179225 0)
(-0.0364923 0.1774 0)
(-0.0318998 0.175466 0)
(-0.0277185 0.173467 0)
(-0.0239319 0.171447 0)
(-0.0205219 0.169446 0)
(-0.017469 0.167504 0)
(-0.0147529 0.165657 0)
(-0.0123527 0.163943 0)
(-0.0102469 0.162395 0)
(-0.00841407 0.161046 0)
(-0.00683297 0.159927 0)
(-0.00548256 0.159067 0)
(-0.00434228 0.158494 0)
(-0.00339212 0.158235 0)
(-0.00261264 0.158317 0)
(-0.00198504 0.158764 0)
(-0.00149111 0.1596 0)
(-0.0011133 0.160849 0)
(-0.000834593 0.162534 0)
(-0.000638439 0.164675 0)
(-0.0005086 0.167287 0)
(-0.000429001 0.170379 0)
(-0.000383532 0.173937 0)
(-0.000355598 0.177909 0)
(-0.000327249 0.182134 0)
(-0.000292512 0.186023 0)
(-0.000212188 0.18485 0)
(-0.132804 0.164162 0)
(-0.123394 0.16752 0)
(-0.114289 0.170291 0)
(-0.105513 0.172502 0)
(-0.0970836 0.174183 0)
(-0.0890209 0.175369 0)
(-0.0813408 0.176094 0)
(-0.0740557 0.176398 0)
(-0.0671746 0.176322 0)
(-0.0607027 0.175908 0)
(-0.0546419 0.1752 0)
(-0.0489909 0.174239 0)
(-0.0437455 0.173071 0)
(-0.0388986 0.171738 0)
(-0.0344404 0.170283 0)
(-0.0303592 0.168746 0)
(-0.0266411 0.167169 0)
(-0.0232707 0.16559 0)
(-0.0202312 0.164047 0)
(-0.017505 0.162578 0)
(-0.0150734 0.161217 0)
(-0.0129174 0.159998 0)
(-0.0110177 0.158954 0)
(-0.00935498 0.158115 0)
(-0.00790993 0.157512 0)
(-0.00666354 0.157172 0)
(-0.00559711 0.157124 0)
(-0.00469232 0.157393 0)
(-0.00393131 0.158006 0)
(-0.00329666 0.158987 0)
(-0.00277146 0.160362 0)
(-0.00233917 0.162152 0)
(-0.0019836 0.164378 0)
(-0.00168871 0.167057 0)
(-0.00143854 0.170195 0)
(-0.00121702 0.173781 0)
(-0.00100777 0.177761 0)
(-0.00079476 0.181975 0)
(-0.00057654 0.185835 0)
(-0.000325016 0.184435 0)
(-0.129073 0.153092 0)
(-0.120343 0.156767 0)
(-0.111878 0.159888 0)
(-0.103701 0.162478 0)
(-0.0958294 0.164563 0)
(-0.0882814 0.166172 0)
(-0.0810728 0.167339 0)
(-0.0742159 0.168097 0)
(-0.0677197 0.168484 0)
(-0.0615903 0.168538 0)
(-0.0558305 0.168299 0)
(-0.0504405 0.167806 0)
(-0.0454177 0.167099 0)
(-0.0407567 0.166219 0)
(-0.0364501 0.165205 0)
(-0.0324881 0.164096 0)
(-0.0288592 0.16293 0)
(-0.0255505 0.161744 0)
(-0.0225473 0.160576 0)
(-0.0198344 0.159461 0)
(-0.0173952 0.158432 0)
(-0.0152129 0.157524 0)
(-0.01327 0.156768 0)
(-0.011549 0.156195 0)
(-0.0100323 0.155835 0)
(-0.00870231 0.155717 0)
(-0.00754152 0.155869 0)
(-0.00653275 0.156317 0)
(-0.0056591 0.157088 0)
(-0.00490399 0.158207 0)
(-0.00425119 0.1597 0)
(-0.0036847 0.161588 0)
(-0.00318873 0.163893 0)
(-0.00274754 0.166632 0)
(-0.00234538 0.169811 0)
(-0.00196629 0.173419 0)
(-0.00159413 0.177402 0)
(-0.00121452 0.181599 0)
(-0.000826938 0.185425 0)
(-0.000419379 0.183813 0)
(-0.12492 0.14275 0)
(-0.116841 0.146701 0)
(-0.108992 0.150128 0)
(-0.101393 0.153052 0)
(-0.0940613 0.155494 0)
(-0.0870139 0.157482 0)
(-0.0802663 0.159043 0)
(-0.0738307 0.160209 0)
(-0.0677163 0.161014 0)
(-0.0619297 0.161492 0)
(-0.0564747 0.161679 0)
(-0.0513525 0.161612 0)
(-0.0465619 0.161328 0)
(-0.0420992 0.160863 0)
(-0.0379585 0.160255 0)
(-0.0341321 0.159541 0)
(-0.0306105 0.158756 0)
(-0.0273825 0.157937 0)
(-0.0244359 0.157117 0)
(-0.0217571 0.156332 0)
(-0.0193317 0.155615 0)
(-0.0171447 0.154999 0)
(-0.0151803 0.154514 0)
(-0.0134226 0.154192 0)
(-0.0118556 0.154062 0)
(-0.010463 0.154154 0)
(-0.00922852 0.154494 0)
(-0.00813608 0.155112 0)
(-0.00716974 0.156032 0)
(-0.00631379 0.157281 0)
(-0.00555267 0.158884 0)
(-0.00487099 0.160863 0)
(-0.00425338 0.163241 0)
(-0.00368449 0.166033 0)
(-0.00314885 0.169247 0)
(-0.0026307 0.17287 0)
(-0.00211415 0.176849 0)
(-0.0015863 0.181023 0)
(-0.00104626 0.184811 0)
(-0.0004992 0.183005 0)
(-0.120389 0.133113 0)
(-0.112934 0.137301 0)
(-0.105676 0.140995 0)
(-0.0986339 0.144211 0)
(-0.0918236 0.146969 0)
(-0.0852622 0.149292 0)
(-0.0789644 0.151206 0)
(-0.0729423 0.152738 0)
(-0.0672053 0.153919 0)
(-0.0617605 0.15478 0)
(-0.0566124 0.155353 0)
(-0.051763 0.155674 0)
(-0.0472122 0.155774 0)
(-0.0429576 0.15569 0)
(-0.038995 0.155455 0)
(-0.0353181 0.155104 0)
(-0.0319191 0.154671 0)
(-0.0287888 0.15419 0)
(-0.0259165 0.153694 0)
(-0.0232904 0.153217 0)
(-0.0208979 0.152791 0)
(-0.0187256 0.152447 0)
(-0.0167594 0.152216 0)
(-0.0149849 0.152129 0)
(-0.0133873 0.152216 0)
(-0.0119517 0.152504 0)
(-0.0106629 0.153023 0)
(-0.00950609 0.153799 0)
(-0.00846613 0.154859 0)
(-0.00752819 0.156229 0)
(-0.00667743 0.157934 0)
(-0.00589904 0.159998 0)
(-0.00517818 0.162441 0)
(-0.0044999 0.16528 0)
(-0.0038491 0.168521 0)
(-0.00321029 0.172153 0)
(-0.00256787 0.176122 0)
(-0.00191033 0.180268 0)
(-0.00123616 0.18401 0)
(-0.000567067 0.182031 0)
(-0.115523 0.124159 0)
(-0.108664 0.128549 0)
(-0.101972 0.132473 0)
(-0.0954646 0.135944 0)
(-0.0891577 0.138979 0)
(-0.0830672 0.141599 0)
(-0.0772075 0.143826 0)
(-0.0715906 0.145685 0)
(-0.0662259 0.147202 0)
(-0.0611207 0.148408 0)
(-0.05628 0.149331 0)
(-0.0517066 0.150002 0)
(-0.0474014 0.150452 0)
(-0.043363 0.150715 0)
(-0.0395884 0.150821 0)
(-0.0360727 0.150804 0)
(-0.0328097 0.150694 0)
(-0.0297915 0.150525 0)
(-0.027009 0.150329 0)
(-0.0244521 0.150137 0)
(-0.0221095 0.14998 0)
(-0.0199695 0.14989 0)
(-0.0180194 0.149896 0)
(-0.0162462 0.150029 0)
(-0.0146362 0.150317 0)
(-0.0131758 0.15079 0)
(-0.0118511 0.151475 0)
(-0.010648 0.152399 0)
(-0.00955256 0.153589 0)
(-0.00855067 0.155072 0)