/*--------------------------------*- C++ -*----------------------------------*\
| =========                 |                                                 |
| \\      /  F ield         | OpenFOAM: The Open Source CFD Toolbox           |
|  \\    /   O peration     | Version:  5.0                                   |
|   \\  /    A nd           | Web:      www.OpenFOAM.org                      |
|    \\/     M anipulation  |                                                 |
\*---------------------------------------------------------------------------*/
FoamFile
{
    version     2.0;
    format      ascii;
    class       volScalarField;
    location    "0.65";
    object      alpha.water;
}
// * * * * * * * * * * * * * * * * * * * * * * * * * * * * * * * * * * * * * //

dimensions      [0 0 0 0 0 0 0];

internalField   nonuniform List<scalar> 
1915
(
0.999396
0.999608
0.981721
1
0.969876
0.999773
0.971618
0.999422
0.994546
1
0.999914
1
0.999998
0.999999
1
1
1
1
1
1
1.15263e-22
6.38364e-23
7.69046e-23
8.88253e-24
-3.68429e-41
0
2.01121e-16
9.89615e-15
5.30925e-14
-4.62623e-13
-4.81002e-12
-2.79083e-11
-6.5745e-11
-1.22412e-10
1.23384e-07
3.94385e-07
1.9765e-07
1.07048e-20
-4.28192e-20
-1.93316e-06
0.00922759
0.0275162
0.00598831
-1.8232e-19
0
-3.95189e-05
-0.00288307
0.00479299
0.188585
0.556041
0.677929
0.671167
0.655455
0.741902
0.896721
0.97442
0.993003
0.997847
0.964233
0.911844
1.60411e-21
4.14121e-21
1.22352e-21
1.69243e-19
4.23148e-16
4.88994e-14
1.83006e-12
7.09495e-12
4.81182e-12
2.26445e-11
2.30424e-10
2.08118e-09
1.52252e-08
1.21981e-07
7.77538e-07
3.72812e-06
1.65205e-05
6.61696e-05
0.000577649
0.00532082
0.00830289
0.00590545
0.00114495
0.000387473
0.000914272
0.0196137
0.0345476
0.0201174
0.00359496
0.000653186
0.00154574
0.00558968
0.022581
0.0700174
0.332373
0.78297
0.967656
0.99999
0.999989
1
6.37819e-20
5.08588e-19
1.97772e-17
1.07183e-15
4.56807e-14
8.73078e-13
6.94875e-12
5.60448e-11
3.29585e-10
2.17322e-09
1.32607e-08
7.06526e-08
3.4063e-07
1.55796e-06
6.65638e-06
2.62801e-05
0.000100407
0.00142198
0.00415194
0.0049534
0.00342155
2.83111e-05
7.78586e-06
0.000271757
0.00239506
0.00322356
0.0029007
0.00125648
0.000475631
0.000184828
0.000528467
0.00195568
0.00552717
0.0113422
0.0263534
0.276431
0.867081
0.999979
0.999979
0.999865
4.54435e-19
1.25938e-17
4.40378e-16
1.5392e-14
3.87405e-13
4.3131e-12
2.55171e-11
1.85441e-10
1.14596e-09
7.6852e-09
4.57083e-08
2.46278e-07
1.21424e-06
5.48759e-06
2.25966e-05
8.66899e-05
0.00126077
0.00354834
0.00391425
0.00354928
0.000100293
2.38313e-06
-2.04493e-07
4.04678e-08
1.99416e-08
2.85246e-07
9.25216e-07
9.85356e-07
1.22473e-05
4.50085e-05
0.000163428
0.00053201
0.00151157
0.00412703
0.0123678
0.166765
0.865451
0.999958
0.999933
0.999265
6.33287e-19
5.65778e-17
2.35067e-15
6.81325e-14
1.33084e-12
1.11694e-11
4.78129e-11
3.0039e-10
1.78887e-09
1.18236e-08
7.08822e-08
3.89024e-07
1.96911e-06
9.18856e-06
3.91042e-05
0.000651764
0.0030153
0.00338109
0.00354834
0.00137671
2.44389e-06
2.10936e-07
4.08891e-08
3.39064e-08
3.99812e-08
5.62904e-08
5.55537e-08
6.57974e-07
2.95549e-06
1.15776e-05
4.54056e-05
0.000165627
0.000604337
0.00226578
0.0124907
0.467061
0.989979
0.999853
0.999899
0.999984
6.53092e-19
8.01091e-17
3.72918e-15
9.99127e-14
1.77374e-12
1.44894e-11
5.62689e-11
3.13282e-10
1.79021e-09
1.18466e-08
7.19127e-08
4.0352e-07
2.10034e-06
1.01329e-05
4.50081e-05
0.00130101
0.00324053
0.00326136
0.00338793
0.0017503
2.07819e-07
4.55634e-08
4.0603e-08
3.84086e-08
3.5e-08
2.52513e-08
5.54096e-08
1.672e-07
6.25094e-07
2.99755e-06
1.47022e-05
7.22387e-05
0.000361776
0.00194453
0.07016
0.856075
0.998903
0.999838
1
1
4.70053e-19
7.63207e-17
3.79274e-15
1.00226e-13
1.69857e-12
1.71473e-11
7.83317e-11
2.68633e-10
1.41823e-09
8.30097e-09
4.94089e-08
2.78182e-07
1.46436e-06
6.92835e-06
3.11476e-05
0.000792635
0.00301433
0.00325868
0.00333481
0.00319561
0.000444989
4.04346e-08
3.84237e-08
3.61852e-08
3.21493e-08
2.22259e-08
3.0491e-08
5.50395e-08
2.13711e-07
1.27329e-06
8.63751e-06
6.09841e-05
0.000545771
0.00339862
0.49754
0.992405
0.99995
1
1
1
7.38346e-20
1.92233e-17
1.37386e-15
5.24898e-14
1.2545e-12
1.36594e-11
7.35879e-11
2.06271e-10
8.70441e-10
4.64515e-09
2.68239e-08
1.49029e-07
7.79752e-07
3.47257e-06
1.50847e-05
0.000131144
0.001292
0.00305093
0.00318224
0.00264125
6.93193e-05
4.53978e-08
4.06186e-08
8.47135e-08
6.78077e-08
2.0382e-08
2.22185e-08
3.72757e-08
1.50852e-07
1.24616e-06
1.46896e-05
0.000202725
0.00129874
0.190642
0.933736
0.999958
0.999999
1
1
1
-5.69265e-37
1.46303e-20
1.43983e-18
-2.92314e-14
4.75013e-13
6.90744e-12
4.89677e-11
1.7343e-10
4.62447e-10
2.11449e-09
1.13662e-08
6.14067e-08
3.14002e-07
1.43778e-06
8.47886e-06
3.58357e-05
6.4124e-05
0.000694645
0.0012987
0.00047911
5.45141e-08
4.92845e-08
9.38918e-08
1.27202e-07
7.12947e-08
1.83357e-08
2.0319e-08
4.50578e-08
3.73611e-07
4.43033e-06
4.11536e-05
0.000610926
0.0416514
0.786339
0.999739
0.999991
1
1
1
1
0.0404307
0.0070156
-9.30897e-07
-1.83515e-07
-8.39567e-15
2.4866e-12
2.00886e-11
1.01236e-10
2.60709e-10
8.08208e-10
3.87656e-09
2.02478e-08
1.02656e-07
4.89724e-07
2.0929e-06
5.20739e-06
1.3531e-05
2.57829e-05
2.46537e-05
1.68289e-06
3.65133e-07
3.88596e-07
3.93742e-07
1.01253e-07
9.42261e-09
1.03164e-08
1.50151e-08
8.93403e-08
1.39142e-06
1.95746e-05
0.000287666
0.00390441
0.593046
0.999124
0.999962
0.999998
1
1
1
1
1
1
1
1
1
1
1
1
1
1
1
1
1
1
1
1
1
1
1
1
1
0.999993
0.288595
1.14753e-05
1.66204e-07
-5.52638e-09
-3.71739e-12
-1.51038e-12
-2.28442e-09
-3.1721e-09
-2.85897e-09
-2.06927e-09
-1.31731e-09
-7.76712e-10
-4.37547e-10
-2.41278e-10
-1.31336e-10
-7.10242e-11
-3.83149e-11
-2.06398e-11
-1.10876e-11
-5.91445e-12
-3.09847e-12
1
1
1
0.895896
1
1
0.900719
0.187389
1
1
0.642243
0.0231018
1
1
0.439883
0.00072128
1
1
0.323387
2.75283e-06
1
1
0.387727
1.53953e-07
1
1
0.488549
1.36291e-08
1
1
0.887772
0.0141378
1
1
1
0.245675
1
1
1
0.888278
1
1
1
0.999999
1
1
0.999998
0.999998
0.846928
0.999998
0.999998
0.999948
0.0987921
0.468625
0.960928
0.999938
1.00892e-05
0.000621601
0.200518
0.648667
1.65667e-07
1.29371e-06
7.71115e-05
0.0254038
-5.63646e-09
1.40796e-08
1.43833e-06
1.88378e-05
-1.47488e-11
4.42889e-10
-3.28481e-08
4.70458e-07
-9.95505e-13
-1.14672e-11
3.49631e-10
1.1605e-08
-1.54936e-09
-2.50342e-10
-5.52348e-12
2.99113e-10
-1.87279e-09
-9.03981e-10
-9.37206e-13
5.11307e-13
-1.57503e-09
-9.86649e-10
-3.91597e-10
-5.37585e-11
-1.11892e-09
-8.13102e-10
-4.43034e-10
-1.73164e-10
-7.24683e-10
-5.80963e-10
-3.66406e-10
-1.86006e-10
-4.43398e-10
-3.86415e-10
-2.76781e-10
-1.62688e-10
-2.6374e-10
-2.49294e-10
-1.98128e-10
-1.30127e-10
-1.54826e-10
-1.58419e-10
-1.37818e-10
-9.97836e-11
-9.04427e-11
-1.00024e-10
-9.45756e-11
-7.5048e-11
-5.27713e-11
-6.30202e-11
-6.455e-11
-5.59704e-11
-3.07797e-11
-3.96772e-11
-4.39661e-11
-4.15658e-11
-1.79197e-11
-2.4937e-11
-2.98797e-11
-3.07334e-11
-1.037e-11
-1.55865e-11
-2.01927e-11
-2.25465e-11
-5.90712e-12
-9.60727e-12
-1.34679e-11
-1.62979e-11
0.230833
0.000452627
4.46113e-06
-1.05715e-08
-7.06122e-15
7.69479e-13
6.27565e-12
3.40828e-11
1.17402e-10
2.62821e-10
1.09249e-09
5.50598e-09
2.72518e-08
1.06646e-07
3.55173e-07
1.05592e-06
2.70418e-06
4.93597e-06
4.52551e-06
1.261e-06
1.11612e-06
3.35234e-07
7.48885e-08
3.05043e-09
7.32891e-09
9.10295e-09
3.5761e-08
-7.20016e-08
1.02191e-05
0.000159948
0.00200578
0.395406
0.982487
0.999909
0.999992
0.999999
1
1
1
1
0.00055526
0.00424109
0.000251939
-1.41576e-10
1.23053e-15
2.30481e-13
1.69247e-12
8.49486e-12
3.4718e-11
8.71416e-11
2.70881e-10
1.13633e-09
4.71123e-09
1.7866e-08
6.12245e-08
1.87916e-07
4.69991e-07
7.95529e-07
6.38134e-07
3.52145e-07
2.83402e-07
6.8201e-08
6.96504e-10
2.22197e-09
2.82694e-09
3.30553e-09
-2.71739e-07
4.92301e-06
6.43826e-05
0.00124284
0.232429
0.930599
0.999694
0.999978
0.999999
0.999998
0.999997
0.999999
1
1.00001
4.73976e-05
0.000907385
0.00018016
-4.95691e-09
1.06637e-14
8.62319e-14
5.24687e-13
2.36778e-12
9.17916e-12
2.89847e-11
5.77011e-11
1.79046e-10
7.95837e-10
2.90217e-09
9.6366e-09
2.87326e-08
6.86629e-08
1.05462e-07
7.4589e-08
3.02934e-08
1.30537e-08
1.82323e-09
1.81522e-10
6.34637e-10
-2.71442e-09
-2.48441e-07
2.3505e-06
2.90383e-05
0.000778555
0.123399
0.855706
0.999325
0.999951
1
0.999996
0.999995
0.999994
0.999995
1
1.00005
2.73582e-06
1.11714e-05
2.3672e-05
-1.73811e-12
8.3115e-15
8.67026e-14
2.29672e-13
4.20541e-13
6.99714e-13
1.83209e-12
4.52723e-12
1.82538e-11
1.10399e-10
3.80365e-10
1.21078e-09
3.36168e-09
7.54981e-09
1.03625e-08
6.84856e-09
3.08373e-09
3.28221e-10
1.00634e-26
1.20172e-10
-1.25594e-09
-1.82274e-07
8.37876e-07
1.71968e-05
0.000472427
0.0921186
0.785256
0.998964
0.999926
0.999992
0.999997
0.999997
0.999995
0.999994
0.999996
1
1.00017
1.14689e-07
1.43453e-06
-1.84299e-10
-8.53113e-10
9.14272e-15
6.2997e-14
-1.79538e-12
-7.09389e-12
-1.49214e-11
-2.16156e-11
-1.64578e-11
-1.26582e-13
-1.20548e-12
-4.67839e-12
-1.51014e-11
-1.05984e-11
1.59366e-10
3.17373e-12
-3.8011e-11
4.03369e-11
4.19888e-26
-3.26422e-09
-7.5945e-12
-8.25746e-08
1.33549e-07
6.23458e-06
0.000332302
0.0768713
0.751921
0.998709
0.999917
0.99999
0.999998
0.999998
0.999997
0.999994
0.999994
1
1
0.772263
1.35671e-08
1.46764e-07
2.08159e-09
1.09192e-09
1.3326e-14
4.71056e-15
-1.23334e-11
-5.02289e-11
-1.16546e-10
-2.04822e-10
-3.0099e-10
-3.82595e-10
-4.18272e-10
-3.85854e-10
-2.47864e-10
-3.30722e-17
4.14814e-26
0
-2.84407e-09
-7.24035e-09
-1.1979e-08
-1.56774e-08
-3.07231e-09
-6.45592e-08
-2.24867e-07
0.00020849
0.069063
0.71862
0.998462
0.999903
0.999988
0.999998
0.999998
0.999998
0.999995
0.999994
0.999994
1
1
0.397703
2.41554e-09
1.17078e-08
3.22083e-10
1.26353e-09
3.38354e-11
-1.20883e-13
-3.74271e-11
-1.62777e-10
-4.01162e-10
-7.469e-10
-1.16638e-09
-1.60681e-09
-2.01039e-09
-2.38674e-09
-2.8867e-09
-3.78183e-09
-5.37823e-09
-8.00988e-09
-1.18349e-08
-1.64306e-08
-2.10287e-08
-2.20973e-08
-3.0792e-09
-2.82481e-06
0.000110935
0.0992846
0.724073
0.998775
0.999931
0.999988
0.999998
0.999998
0.999998
0.999998
0.999995
0.999994
0.999998
1
1
0.481204
1.45456e-09
2.28339e-09
1.66181e-09
2.85541e-09
1.18833e-10
-3.78836e-29
-7.2225e-11
-3.39093e-10
-8.83907e-10
-1.72434e-09
-2.80271e-09
-4.00101e-09
-5.1717e-09
-6.23669e-09
-7.30248e-09
-8.66037e-09
-1.06283e-08
-1.33281e-08
-1.64723e-08
-1.92127e-08
-2.01554e-08
-1.78332e-08
-4.50717e-07
1.22462e-05
0.145041
0.819276
0.999202
0.999959
0.99999
0.999998
0.999997
0.999997
0.999998
0.999998
0.999997
0.999995
1
1
1
0.961907
1.03843e-09
3.04975e-10
-7.90736e-20
1.23143e-09
9.94834e-11
3.88769e-13
-9.48421e-11
-4.95937e-10
-1.38433e-09
-2.83392e-09
-4.77041e-09
-6.98268e-09
-9.17261e-09
-1.10743e-08
-1.25947e-08
-1.3845e-08
-1.49999e-08
-1.60439e-08
-1.65228e-08
-1.55913e-08
-1.21918e-08
-6.54692e-09
-4.95132e-08
0.270301
0.920121
0.999429
0.999966
0.999992
0.999996
0.999994
0.999996
0.999997
0.999997
0.999998
0.999998
0.999999
1
1
1
1
0.0148183
-1.67254e-13
-2.59714e-08
-5.10678e-09
-8.06138e-10
-1.35628e-10
-8.49598e-11
-4.49689e-10
-1.50295e-09
-3.38452e-09
-6.00694e-09
-9.04408e-09
-1.19938e-08
-1.43374e-08
-1.57141e-08
-1.60296e-08
-1.54007e-08
-1.38881e-08
-1.13481e-08
-7.51672e-09
-2.87085e-09
0.0381739
0.464316
0.966724
0.999607
0.999975
0.999994
0.999997
0.999996
0.999995
0.999994
0.999995
0.999995
0.999995
0.999989
0.999998
1
1
1
1
0.5147
-2.49154e-07
-3.92609e-10
-3.59328e-09
-3.57282e-10
-9.91681e-12
-9.33793e-15
-1.36055e-10
-8.63752e-10
-2.65901e-09
-5.36249e-09
-8.5687e-09
-1.1569e-08
-1.35881e-08
-1.40395e-08
-1.2742e-08
-1.01856e-08
-6.81566e-09
-2.40436e-09
0.0090827
0.220907
0.718494
0.982687
0.999768
0.999983
0.999997
0.999999
0.999997
0.999997
0.999993
0.999984
0.999978
0.999977
0.999946
0.999937
0.999995
1
1
1
1
0.994069
0.407311
5.96638e-06
-2.89538e-07
-1.82739e-08
-2.00081e-11
-2.51686e-10
-7.43138e-14
-8.53762e-20
-5.95432e-10
-2.7271e-09
-5.14454e-09
-7.49528e-09
-8.64554e-09
-7.80285e-09
-5.55766e-09
-1.35426e-09
0.0203592
0.215679
0.618799
0.919776
0.996332
0.999167
0.999976
0.999998
0.999999
0.999999
0.999998
0.999995
0.999967
0.999905
0.999863
0.999681
0.999086
0.999907
0.999999
1
1
1
0.988738
0.999938
0.981045
0.550088
0.0869432
5.49321e-06
2.92258e-07
1.98015e-08
1.58568e-09
8.88793e-11
6.63703e-25
0
-9.57746e-10
-2.35862e-09
-2.33162e-09
-9.14603e-10
0.0274521
0.23564
0.63148
0.91347
0.995387
0.999694
0.999848
0.999947
0.999997
1
1
0.999999
0.999997
0.999954
0.999713
0.999286
0.998197
0.989361
0.998541
0.999997
0.999999
0.999999
0.999999
0.999999
0.767816
0.999689
0.999589
0.995461
0.811844
0.428382
0.160939
0.0470603
0.0047178
0.00507425
0.0102318
0.0221121
0.0429259
0.0796104
0.156977
0.337535
0.646596
0.908721
0.995566
0.999481
0.999871
0.999972
0.999993
0.999999
1
1
1
0.999997
0.999953
0.999496
0.989262
0.940223
0.902701
0.982631
0.999985
0.999996
0.999996
0.999999
0.999997
0.999995
0.618285
0.999589
0.998939
0.998302
0.996701
0.980245
0.883198
0.753264
0.639941
0.622394
0.634116
0.664021
0.712006
0.778627
0.86596
0.955622
0.99726
0.999403
0.999805
0.999942
0.999986
0.999997
0.999999
1
1
1
1
0.999932
0.996797
0.890049
0.579056
0.482518
0.825294
1
1
0.999998
0.999996
0.999994
0.999977
0.999962
0.661075
0.318092
0.762632
0.996701
0.993307
0.991564
0.989077
0.99083
0.991465
0.992514
0.993861
0.99527
0.99665
0.997854
0.998837
0.999472
0.999775
0.999908
0.999965
0.999985
0.999997
0.999999
1
1
1
0.996105
0.945115
0.827883
0.520337
0.20324
0.222943
0.417709
0.962308
1
1
0.999999
0.999998
0.999972
0.999835
0.999707
0.742736
0.000259133
0.0656174
0.338883
0.688624
0.930817
0.990707
0.991293
0.992329
0.993674
0.995125
0.996538
0.997794
0.998788
0.999435
0.999767
0.999908
0.999959
0.999971
0.999974
0.999985
0.974908
0.897298
0.776696
0.631141
0.468724
0.311104
0.151671
0.0650576
0.0986448
0.544091
0.97841
0.999999
1
0.999999
0.999996
0.999755
0.999787
0.998813
0.997697
0.59028
7.70082e-06
8.77651e-05
0.00046993
0.0411719
0.184868
0.429433
0.66548
0.831246
0.926666
0.971032
0.9881
0.98607
0.979711
0.967416
0.946936
0.914803
0.86385
0.780732
0.649376
0.472879
0.304047
0.177164
0.0883341
0.0348008
0.0164868
0.0316677
0.0419836
0.301875
0.91728
0.999997
0.999998
0.999999
0.999999
0.999999
0.999995
0.999547
0.978782
0.930848
0.748294
0.341816
5.3495e-08
2.30258e-06
1.6551e-05
9.86898e-05
0.000360101
0.00205289
0.0313746
0.102475
0.20022
0.290397
0.353517
0.352908
0.339416
0.309352
0.264558
0.208732
0.146108
0.083436
0.0319572
0.0043797
0.000576642
0.000750794
0.00134919
0.00291032
0.00592949
0.0119638
0.245335
0.901014
0.999984
0.999996
0.999997
0.999999
0.999998
0.999995
0.999983
0.999871
0.934013
0.427306
0.115676
0.0899863
4.98813e-09
8.09205e-08
4.81546e-07
2.22404e-06
1.10552e-05
3.19809e-05
9.66397e-05
0.000237043
0.000417555
0.000548364
0.000603673
0.000561269
0.000513144
0.000456177
0.000391193
0.000323821
0.000267566
0.00022
0.000158659
0.00011214
0.000149434
0.000301801
0.000675005
0.0013452
0.00288679
0.00807573
0.330404
0.948755
0.999937
0.999984
0.999989
0.999993
0.999992
0.999981
0.999945
0.999781
0.910098
0.176333
6.61465e-05
0
1.5329e-10
2.66189e-09
1.68992e-08
1.2992e-07
5.52424e-07
1.44478e-06
4.84058e-06
1.32397e-05
2.66716e-05
3.99323e-05
4.83722e-05
4.84607e-05
4.51666e-05
4.0513e-05
3.84705e-05
3.71409e-05
3.50971e-05
3.0782e-05
3.00762e-05
3.89462e-05
6.99092e-05
0.000157845
0.00030702
0.000685351
0.00170728
0.00372245
0.132367
0.730942
0.999342
0.99986
0.999916
0.99994
0.999947
0.999944
0.999747
0.999841
0.965495
0.458709
0.000361288
-6.64603e-08
-4.14221e-26
1.14016e-10
8.26734e-10
5.84356e-09
2.59754e-08
8.17294e-08
2.80553e-07
8.28748e-07
1.8234e-06
2.98515e-06
3.89406e-06
4.3755e-06
4.80106e-06
5.48264e-06
7.0771e-06
8.37546e-06
7.19559e-06
8.06779e-06
1.18136e-05
2.1172e-05
3.80195e-05
6.92626e-05
0.000189954
0.000588567
0.000831662
0.000888545
0.00288925
0.24482
0.867243
0.998633
0.999222
0.999333
0.999645
0.999833
0.999824
0.999937
0.999876
0.93066
0.214822
-5.47191e-06
0
8.29243e-12
7.14478e-11
4.52486e-10
1.98156e-09
7.15413e-09
2.6792e-08
8.21467e-08
1.86837e-07
3.26235e-07
4.87492e-07
7.08219e-07
1.07031e-06
1.73481e-06
3.44075e-06
5.09541e-06
3.61619e-06
4.38472e-06
6.32828e-06
1.1304e-05
2.02085e-05
0.000107001
0.000169146
0.000113664
0.000149935
0.000309609
0.000549614
0.00161
0.270549
0.791377
0.94089
0.969445
0.99437
0.999592
0.999935
0.999947
0.999959
0.99988
0.825631
0.0013342
-4.49935e-11
9.26795e-15
9.4261e-12
8.01151e-11
3.09035e-10
1.06007e-09
3.80689e-09
1.19884e-08
3.07807e-08
6.41672e-08
1.2076e-07
2.47259e-07
5.33427e-07
1.04693e-06
2.21282e-06
4.81962e-06
3.1976e-06
3.49663e-06
4.19954e-06
6.0785e-06
1.0978e-05
3.98654e-05
4.76773e-05
7.31522e-05
0.000100241
0.000145081
0.000260358
0.000541219
0.00161476
0.0684422
0.350557
0.634385
0.82746
0.952344
0.997729
0.999958
0.999969
0.999987
0.990134
0.455709
-6.36628e-11
-1.03532e-11
5.62278e-12
4.94954e-11
1.03649e-10
3.41154e-10
1.01811e-09
3.12159e-09
1.07482e-08
3.32164e-08
6.48179e-08
1.21539e-07
2.29897e-07
1.23496e-06
3.17661e-06
3.26823e-06
3.04192e-06
3.17977e-06
3.37993e-06
4.33311e-06
7.59243e-06
1.59285e-05
6.79803e-05
0.000117827
0.000148614
0.000260485
0.000549745
0.000972572
0.00178502
0.00597836
0.166921
0.512233
0.691107
0.849179
0.979584
0.999964
0.999985
0.999989
0.999701
1
-6.40485e-11
-1.98706e-11
8.9009e-13
2.67697e-11
9.6952e-11
2.1134e-10
3.86905e-10
1.07042e-09
3.08039e-09
8.18938e-09
2.79682e-08
2.86146e-07
2.41291e-06
3.25386e-06
3.41602e-06
2.87128e-06
2.82122e-06
3.00681e-06
3.31742e-06
6.01742e-06
1.49961e-05
3.32634e-05
0.00049451
0.000612572
0.00044539
0.000713061
0.000979491
0.00184704
0.0026472
0.156939
0.842293
0.94843
0.937185
0.87382
0.968041
0.999914
0.999987
0.999997
0.999998
1
-5.75804e-11
-2.4028e-11
-2.66887e-12
7.50536e-12
6.17099e-11
1.44796e-10
2.43679e-10
6.82309e-10
2.19347e-09
1.09025e-08
1.21842e-07
1.75578e-06
3.15713e-06
3.19002e-06
2.868e-06
2.46146e-06
2.72682e-06
3.25773e-06
5.69415e-06
1.52689e-05
4.39569e-05
0.000126709
0.00167338
0.00254795
0.00226009
0.00285008
0.00198879
0.00279895
0.00891345
0.610712
0.972419
0.972081
0.974116
0.97918
0.981539
0.999349
0.999943
0.999996
0.999998
1
-4.92914e-11
-2.52137e-11
-7.32396e-12
1.77824e-12
3.16047e-11
1.07032e-10
2.15247e-10
7.40289e-10
3.10526e-09
1.552e-08
3.34607e-07
2.91981e-06
3.06881e-06
3.15761e-06
1.53812e-06
1.85856e-06
2.37261e-06
3.64838e-06
7.96588e-06
2.38724e-05
7.60236e-05
0.000295701
0.00131703
0.00369405
0.0216928
0.0195608
0.00552452
0.00398614
0.14295
0.894195
0.970539
0.972432
0.972081
0.976228
0.989466
0.997881
0.999803
0.999973
0.999997
1.00008
-4.11663e-11
-2.46402e-11
-9.86489e-12
3.39053e-13
1.94993e-11
9.42675e-11
2.24748e-10
8.36045e-10
3.41852e-09
1.67842e-08
3.04654e-07
2.07643e-06
2.5309e-06
1.53662e-06
9.33587e-07
1.31483e-06
2.05233e-06
3.91937e-06
1.18487e-05
3.81452e-05
0.000142409
0.000620509
0.00235101
0.0558309
0.369274
0.357938
0.0537851
0.00683024
0.496511
0.947958
0.965978
0.96909
0.966593
0.929602
0.914395
0.969324
0.999099
0.999866
0.999987
0.958623
-3.38538e-11
-2.3032e-11
-1.10841e-11
3.18473e-13
1.45425e-11
9.93864e-11
2.60713e-10
7.33995e-10
3.00649e-09
5.9863e-08
3.56698e-07
3.57799e-07
3.59563e-07
3.35813e-07
5.63045e-07
9.15279e-07
1.93726e-06
5.12603e-06
1.70497e-05
6.28277e-05
0.0003083
0.00119007
0.0483488
0.47007
0.706428
0.708227
0.342198
0.0260036
0.658566
0.915503
0.931455
0.807647
0.576843
0.298928
0.273583
0.465579
0.930509
0.999535
0.999951
0.843102
-2.74732e-11
-2.08214e-11
-1.14725e-11
-1.78787e-15
1.13149e-11
1.07035e-10
3.31922e-10
6.43853e-10
3.49754e-09
5.14165e-08
1.1961e-07
5.48807e-08
9.81162e-08
1.88005e-07
3.26575e-07
6.63384e-07
1.66778e-06
5.81295e-06
1.96101e-05
9.56551e-05
0.000318903
0.0246913
0.476734
0.704084
0.702831
0.706464
0.643539
0.291283
0.407659
0.52305
0.371322
0.138982
0.0124721
3.51728e-07
1.05501e-08
0.0148928
0.478761
0.989695
0.999835
0.828221
-2.19608e-11
-1.82794e-11
-1.12548e-11
0
8.07087e-12
9.49125e-11
3.60995e-10
1.01264e-09
5.91007e-09
2.11987e-08
1.37331e-08
2.55633e-08
5.86372e-08
1.08232e-07
1.88146e-07
5.54432e-07
2.18384e-06
4.90615e-06
2.73141e-06
4.6237e-05
0.000869914
0.419842
0.703117
0.70207
0.70286
0.702945
0.70148
0.360813
0.0169492
0.00237918
2.06996e-05
7.90968e-07
4.28407e-08
2.21972e-09
2.54765e-10
1.86235e-10
0.0644873
0.924308
0.999519
0.946154
-1.72038e-11
-1.55778e-11
-1.05666e-11
-4.33894e-13
5.61576e-12
8.0411e-11
3.67705e-10
1.27954e-09
3.47085e-09
4.13677e-09
6.23637e-09
1.45017e-08
3.00069e-08
5.24902e-08
1.10708e-07
1.29649e-06
5.94248e-06
6.47567e-06
2.32276e-06
-2.71433e-06
0.229916
0.700133
0.700389
0.70269
0.702103
0.705646
0.589207
0.0585597
0.000302975
1.91956e-05
1.16332e-06
5.53559e-08
-1.23418e-09
1.37098e-10
1.86235e-10
1.83997e-10
1.84124e-10
0.729185
0.998447
0.975373
)
;

boundaryField
{
    leftWall
    {
        type            zeroGradient;
    }
    rightWall
    {
        type            zeroGradient;
    }
    lowerWall
    {
        type            zeroGradient;
    }
    atmosphere
    {
        type            inletOutlet;
        inletValue      nonuniform 0();
        value           nonuniform 0();
    }
    defaultFaces
    {
        type            empty;
    }
    procBoundary1to0
    {
        type            processor;
        value           nonuniform List<scalar> 
44
(
0.999667
0.982809
0.969878
0.969874
0.976727
0.997612
1
1
1
1
1
1
1
1
1
1
1
1
1
1
1
1
0.662563
0.0356335
1.04553e-06
1.67611e-08
1.43154e-10
-3.69672e-12
-2.44104e-09
-4.76484e-09
-4.85598e-09
-3.69508e-09
-2.37195e-09
-1.36963e-09
-7.40243e-10
-3.84061e-10
-1.94264e-10
-9.78193e-11
-4.90607e-11
-2.44963e-11
-1.21903e-11
-6.03856e-12
-2.96482e-12
-1.42506e-12
)
;
    }
    procBoundary1to3
    {
        type            processor;
        value           nonuniform List<scalar> 
45
(
-1.54323e-12
-3.23057e-12
-5.72625e-12
-8.72766e-12
-1.14636e-11
-1.30849e-11
-1.28224e-11
-9.51514e-12
-1.67512e-12
4.37098e-12
6.40422e-11
3.10493e-10
9.60566e-10
1.73358e-09
1.99488e-09
3.69267e-09
7.04018e-09
1.42559e-08
2.57594e-08
8.06446e-08
1.62794e-06
3.59497e-06
1.03591e-06
9.60099e-07
0.0168958
0.602898
0.695776
0.700047
0.701772
0.70873
0.564217
0.08432
0.000312724
1.78373e-05
-9.6365e-07
-7.52654e-08
1.99946e-09
2.56853e-10
1.2508e-10
1.82574e-10
1.84124e-10
1.84099e-10
0.334127
0.987822
0.97816
)
;
    }
}


// ************************************************************************* //
