/*--------------------------------*- C++ -*----------------------------------*\
| =========                 |                                                 |
| \\      /  F ield         | OpenFOAM: The Open Source CFD Toolbox           |
|  \\    /   O peration     | Version:  5.0                                   |
|   \\  /    A nd           | Web:      www.OpenFOAM.org                      |
|    \\/     M anipulation  |                                                 |
\*---------------------------------------------------------------------------*/
FoamFile
{
    version     2.0;
    format      ascii;
    class       volScalarField;
    location    "0.65";
    object      epsilon;
}
// * * * * * * * * * * * * * * * * * * * * * * * * * * * * * * * * * * * * * //

dimensions      [0 2 -3 0 0 0 0];

internalField   nonuniform List<scalar> 
1915
(
0.258131
0.151156
0.216094
0.253154
0.263411
0.38688
0.313238
0.53241
0.367552
0.699547
0.42158
0.862771
0.474337
1.02509
0.529138
1.20509
0.590719
1.45803
0.650142
2.08363
0.0797624
0.370049
0.374757
0.398694
0.443068
0.505667
0.639488
0.837813
1.08491
1.37366
1.69632
2.05527
2.473
2.99511
3.69061
4.66582
6.09518
8.22085
11.2714
15.2358
19.5935
24.2088
29.2329
34.6505
38.1322
40.231
41.6754
42.921
43.6692
42.1061
40.4545
38.9829
37.4521
36.3158
35.6758
34.8231
32.5524
26.7269
17.8264
5.7559
0.306474
0.273934
0.364484
0.494353
0.649367
0.83247
1.03705
1.24396
1.44278
1.64121
1.86701
2.17213
2.64307
3.41929
4.71352
6.79432
9.74897
12.9531
15.3881
16.8812
17.6308
18.2627
19.183
20.1197
20.8542
21.604
22.2888
22.8418
22.9051
22.6466
22.0958
21.4089
20.7855
20.4094
20.1377
19.297
16.6675
12.9148
10.0826
7.07441
0.489063
0.373065
0.469562
0.60399
0.759448
0.919227
1.07274
1.21694
1.36344
1.54155
1.80041
2.21547
2.89913
4.00162
5.66469
7.87843
10.2414
12.1782
13.6421
14.7994
15.8313
17.0599
18.6446
20.1976
21.5572
22.6618
23.5457
24.5052
25.3611
25.1955
24.0618
22.8945
22.4069
22.8664
23.0907
19.9226
13.5883
9.03874
7.5556
7.5977
0.700088
0.486324
0.556374
0.670585
0.798154
0.92237
1.04116
1.1638
1.31222
1.52431
1.86091
2.41616
3.32073
4.70427
6.57171
8.61797
10.3386
11.7228
13.0048
14.3333
15.8769
17.7881
20.0631
22.5314
24.85
26.4804
27.1665
27.2327
26.9621
26.1917
24.9909
23.6488
22.9178
23.7344
23.4133
16.5917
9.75643
6.47915
5.97013
7.8584
0.886985
0.586603
0.634081
0.7249
0.824194
0.922345
1.02449
1.14492
1.30794
1.55383
1.95034
2.60671
3.67107
5.26139
7.26943
9.17859
10.6192
11.8274
13.0311
14.3978
16.0772
18.0988
20.4582
23.0385
25.4737
26.9685
27.0324
26.1543
25.1736
24.2458
23.1469
21.7618
20.8222
21.0861
17.2883
10.4475
6.53814
4.9352
5.03989
8.06515
1.03284
0.673617
0.714403
0.784637
0.857838
0.936774
1.03087
1.15443
1.3299
1.59579
2.02019
2.71711
3.84545
5.5345
7.65651
9.61698
11.0511
12.1964
13.2823
14.493
15.9147
17.4671
19.0366
20.6587
22.1593
22.9096
22.592
21.588
20.5058
19.5251
18.4167
17.0604
16.0916
14.5415
10.1492
6.58886
4.7617
4.10574
4.50688
8.22298
1.11271
0.763344
0.818111
0.860945
0.901931
0.96255
1.05152
1.17874
1.36197
1.63453
2.05791
2.73784
3.82804
5.47288
7.61935
9.77243
11.3861
12.5475
13.5124
14.4921
15.5197
16.3524
16.738
17.1285
17.6444
17.8593
17.4654
16.5804
15.5345
14.4889
13.3757
12.1997
11.0111
8.64371
6.18562
4.65137
3.87289
3.66941
4.20278
8.33706
1.12685
0.928196
0.995176
0.965749
0.953278
0.991719
1.07641
1.20718
1.3949
1.6656
2.06967
2.69533
3.67555
5.15271
7.14724
9.37228
11.2761
12.5717
13.4702
14.256
14.8912
14.7868
14.0373
13.5215
13.3722
13.2818
12.9411
12.2723
11.3872
10.4193
9.44192
8.4709
7.00471
5.49985
4.40263
3.72694
3.41131
3.42935
4.03756
8.42738
1.10022
1.2521
1.25926
1.08738
1.00069
1.01466
1.09696
1.23223
1.42342
1.68875
2.06632
2.62353
3.46444
4.71138
6.41753
8.43318
10.3975
11.906
12.8627
13.419
13.3293
12.3525
11.2133
10.4172
10.0157
9.79655
9.51073
9.01577
8.31932
7.53629
6.75439
5.84549
4.85509
4.08925
3.55647
3.24817
3.146
3.27729
3.93262
8.41956
1.14715
1.53192
1.57655
1.1884
1.01922
1.02072
1.10661
1.24886
1.44417
1.70413
2.05565
2.54662
3.25163
4.26373
5.64257
7.31017
9.0009
10.3922
11.2404
11.4055
10.7938
9.75827
8.81813
8.12803
7.70725
7.44317
7.17259
6.77012
6.22752
5.63811
5.01903
4.36305
3.80648
3.38758
3.11089
2.97371
2.97722
3.1661
3.83833
8.3137
0.588416
1.02775
0.538178
0.710009
0.510158
0.600235
0.498617
0.561712
0.497049
0.550915
0.501038
0.55224
0.507838
0.558745
0.515698
0.566767
0.523513
0.574314
0.530667
0.580523
0.585307
0.589346
0.593893
0.600186
0.606467
0.606865
0.607955
0.613385
0.624783
0.642452
0.665911
0.694365
0.726946
0.762811
0.801172
0.841291
0.881676
0.921369
0.959704
0.996176
1.03045
1.06237
1.09192
2.80637
2.0821
1.77755
1.5463
0.940576
0.900134
0.829613
0.782823
0.688657
0.71687
0.722455
0.766089
0.625505
0.675148
0.724305
0.83005
0.611213
0.675659
0.756713
0.89514
0.614454
0.690989
0.797865
0.973934
0.623721
0.708582
0.834613
1.05114
0.633238
0.720621
0.846817
1.05461
0.640422
0.726447
0.843762
1.01908
0.644701
0.726857
0.833905
0.97798
0.646484
0.723214
0.820082
0.939568
0.647077
0.718072
0.80543
0.908152
0.64834
0.714307
0.793579
0.88492
0.652218
0.7151
0.787809
0.8715
0.658981
0.723682
0.791475
0.871065
0.660835
0.726669
0.803641
0.886779
0.662993
0.728816
0.809216
0.90562
0.670112
0.737625
0.820241
0.922639
0.685128
0.757196
0.846374
0.957721
0.708985
0.788928
0.888566
1.01368
0.74111
0.83213
0.946162
1.08979
0.780324
0.885081
1.0169
1.18324
0.825343
0.945921
1.09811
1.2905
0.874923
1.0129
1.18719
1.40632
0.927872
1.08352
1.27944
1.52497
0.982094
1.15479
1.37159
1.64202
1.03589
1.22467
1.46081
1.75376
1.08802
1.29144
1.54478
1.85729
1.13751
1.35375
1.62177
1.95047
1.18362
1.4106
1.69054
2.03189
1.22585
1.46138
1.75034
2.10075
1.26399
1.50579
1.8009
2.15681
1.29803
1.54388
1.84232
2.20031
0.943023
1.38313
1.5326
1.12364
0.987748
1.00443
1.10258
1.25467
1.45521
1.7111
2.04023
2.47434
3.06249
3.86738
4.93713
6.23797
7.58401
8.68385
9.2491
9.1495
8.56043
7.81241
7.14026
6.60404
6.22108
5.94207
5.66694
5.31112
4.88205
4.43276
3.97845
3.57116
3.23869
2.99572
2.8483
2.79951
2.85855
3.07537
3.74514
8.14258
0.746518
1.22068
1.27093
0.998361
0.928802
0.972675
1.0869
1.24951
1.45514
1.70772
2.01837
2.40653
2.90171
3.54134
4.35544
5.32986
6.3594
7.19984
7.5847
7.47347
7.04018
6.50346
6.00111
5.57507
5.24183
4.97594
4.70791
4.38405
4.02914
3.69009
3.37958
3.11314
2.90276
2.75658
2.68063
2.68046
2.76841
2.99555
3.65051
7.92599
0.850154
1.13322
1.0686
0.893427
0.869532
0.937187
1.06478
1.23522
1.44372
1.69203
1.98628
2.33706
2.76014
3.27534
3.89662
4.62031
5.3665
5.9677
6.25809
6.20591
5.91876
5.53269
5.15219
4.81844
4.54848
4.32237
4.07572
3.77623
3.48863
3.23406
3.01433
2.83411
2.69685
2.60785
2.57276
2.5982
2.69826
2.92383
3.55634
7.68108
1.09797
1.14922
0.973336
0.827927
0.825243
0.906331
1.0407
1.21396
1.42132
1.66256
1.94
2.25803
2.62355
3.04829
3.5307
4.05611
4.57394
4.98601
5.19679
5.18178
4.99644
4.7235
4.44903
4.21186
4.02215
3.84713
3.61284
3.34957
3.12496
2.94086
2.79083
2.67015
2.5799
2.52462
2.51038
2.5452
2.64463
2.85926
3.46369
7.42179
1.15516
1.18585
0.936842
0.794567
0.798113
0.882746
1.01699
1.18757
1.38933
1.61956
1.87782
2.16426
2.47973
2.82568
3.19668
3.57608
3.92915
4.20033
4.33859
4.33003
4.20534
4.022
3.85124
3.71821
3.61018
3.45954
3.23002
3.0323
2.88465
2.77176
2.67917
2.60106
2.53903
2.49898
2.48903
2.51923
2.60663
2.80165
3.37135
7.16592
1.17553
1.20828
0.931283
0.784465
0.786188
0.867379
0.99562
1.15771
1.34721
1.56008
1.79328
2.04388
2.30909
2.58564
2.86633
3.13654
3.37245
3.54287
3.62302
3.61024
3.52897
3.43298
3.36902
3.32743
3.2633
3.08937
2.9329
2.83443
2.77328
2.72642
2.67896
2.62657
2.57384
2.53062
2.50859
2.52037
2.58461
2.75164
3.27756
6.93082
1.24908
1.22505
0.957194
0.800024
0.790458
0.859678
0.97533
1.12269
1.29366
1.48256
1.68446
1.89464
2.10867
2.32198
2.52798
2.71565
2.86948
2.97314
3.01865
3.01469
2.98874
2.98478
3.00777
3.00186
2.90708
2.81446
2.78333
2.79259
2.81411
2.82272
2.8035
2.75546
2.68957
2.62233
2.57031
2.54918
2.57916
2.71063
3.18628
6.71164
1.31498
1.23528
1.02017
0.853274
0.819426
0.865582
0.959981
1.08517
1.23083
1.38962
1.55537
1.72274
1.88729
2.04527
2.19227
2.32141
2.42423
2.49528
2.53832
2.57092
2.61383
2.68622
2.70977
2.69335
2.68602
2.73696
2.83291
2.94602
3.04179
3.08957
3.07414
3.0016
2.89399
2.77753
2.67499
2.60522
2.58984
2.67904
3.10513
6.47675
1.29256
1.29834
1.12334
0.954376
0.887514
0.897565
0.959766
1.05411
1.16795
1.29238
1.42059
1.54762
1.67033
1.78683
1.89533
1.99269
2.07651
2.15008
2.22126
2.30575
2.39071
2.45348
2.49717
2.5794
2.71732
2.9084
3.13122
3.34662
3.50557
3.56757
3.5196
3.38206
3.19503
2.99821
2.82132
2.68585
2.61381
2.65402
3.0295
6.20491
1.20163
1.38
1.25837
1.09785
0.993708
0.962301
0.985898
1.04378
1.12292
1.21338
1.30843
1.40444
1.50003
1.59513
1.6896
1.78277
1.87576
1.97562
2.07775
2.18168
2.28127
2.39168
2.54485
2.76125
3.04645
3.38934
3.75282
4.07335
4.27702
4.31166
4.17483
3.91408
3.59766
3.28241
3.00436
2.78543
2.64572
2.63043
2.95065
5.90867
1.09976
1.31232
1.34262
1.25479
1.11557
1.05192
1.04144
1.06668
1.11688
1.18153
1.25498
1.33534
1.42241
1.51652
1.61767
1.72677
1.84144
1.96337
2.09255
2.23726
2.41197
2.63012
2.91367
3.28771
3.7551
4.28926
4.82207
5.24753
5.45619
5.38968
5.07533
4.60885
4.09886
3.62091
3.21369
2.89497
2.67875
2.60321
2.86407
5.59826
1.03016
1.16881
1.28884
1.29102
1.22493
1.17493
1.14575
1.14676
1.17851
1.22939
1.29556
1.37572
1.46942
1.57653
1.69696
1.82893
1.97567
2.14273
2.33994
2.57414
2.86075
3.22215
3.68545
4.28029
5.00515
5.80017
6.53795
7.04452
7.16971
6.87158
6.24465
5.46111
4.68032
3.99295
3.43174
3.00206
2.70548
2.56874
2.76811
5.26079
0.988322
1.09384
1.18059
1.22486
1.25863
1.24887
1.23705
1.24855
1.28155
1.33447
1.40988
1.50763
1.6273
1.76843
1.93008
2.11472
2.33523
2.59462
2.90043
3.26679
3.71913
4.29517
5.03759
5.97059
7.08204
8.23643
9.19773
9.69516
9.55444
8.80635
7.67377
6.43376
5.29826
4.36135
3.63276
3.09187
2.71924
2.52543
2.66235
4.885
0.966254
1.06237
1.1432
1.20138
1.24618
1.27406
1.30307
1.34803
1.40578
1.48707
1.59767
1.73973
1.91505
2.12552
2.37426
2.66702
3.01118
3.41429
3.88904
4.45916
5.16719
6.07852
7.26653
8.75395
10.4562
12.0828
13.2133
13.4682
12.7231
11.1877
9.29171
7.43196
5.86897
4.66925
3.78488
3.15033
2.71662
2.47506
2.54964
4.46544
0.961867
1.05875
1.14839
1.22509
1.29205
1.35387
1.42158
1.50523
1.61152
1.74951
1.92648
2.14802
2.41955
2.7468
3.13646
3.5965
4.13613
4.76709
5.50846
6.39618
7.49928
8.93381
10.8376
13.2503
15.8729
18.0506
19.1086
18.6194
16.6928
13.8766
10.8899
8.24872
6.25861
4.84736
3.85945
3.17078
2.70105
2.42432
2.43717
4.00452
0.980106
1.08255
1.18746
1.2903
1.39204
1.49827
1.61846
1.76302
1.94237
2.16763
2.44938
2.79779
3.22324
3.73658
4.34939
5.07415
5.92486
6.91871
8.08103
9.45973
11.1593
13.3864
16.4143
20.3328
24.4702
27.1466
27.4186
25.1676
21.132
16.2171
11.8551
8.55767
6.33515
4.8525
3.85111
3.16233
2.68543
2.38594
2.33643
3.51356
1.02431
1.14002
1.26988
1.40495
1.55215
1.71849
1.91185
2.1447
2.43193
2.78951
3.2336
3.78078
4.44838
5.25467
6.21881
7.36115
8.70375
10.2718
12.0954
14.2243
16.7912
20.1585
24.902
31.3052
37.8187
40.1256
37.892
31.2457
23.3788
16.5156
11.5819
8.27542
6.11723
4.71611
3.78655
3.14555
2.68911
2.37971
2.27215
3.05116
1.0573
1.22046
1.40606
1.58426
1.79447
2.04276
2.33482
2.69134
3.13504
3.68983
4.38062
5.23353
6.27604
7.53738
9.0482
10.8405
12.9491
15.4147
18.275
21.5501
25.3197
30.1815
37.3868
47.8781
57.8269
53.0156
42.1627
31.32
21.7378
15.0725
10.5501
7.59732
5.70992
4.50183
3.6995
3.13581
2.72096
2.42615
2.29084
2.76528
1.10518
1.30183
1.54205
1.81345
2.13669
2.50867
2.934
3.46383
4.13249
4.97644
6.0347
7.34866
8.96123
10.9187
13.2688
16.0588
19.3387
23.1831
27.6697
32.7474
38.1193
44.5536
54.4818
66.3283
64.726
52.4928
39.093
27.6284
19.0722
13.1935
9.32662
6.86453
5.31643
4.32266
3.64936
3.16217
2.79988
2.55622
2.4553
2.68641
1.18051
1.40769
1.69945
2.06735
2.52848
3.0778
3.72521
4.51826
5.51426
6.77863
8.3754
10.3717
12.8363
15.8447
19.4719
23.784
28.8247
34.7141
41.6197
48.4032
53.0689
56.2088
59.6695
60.8929
57.2907
48.7403
34.8719
24.2071
16.6459
11.5991
8.37764
6.37044
5.11141
4.28387
3.69884
3.2588
2.93409
2.75932
2.81155
2.92569
1.28181
1.54523
1.88817
2.33474
2.91864
3.65874
4.5787
5.70584
7.12557
8.93204
11.2088
14.0452
17.5338
21.7657
26.7973
32.6011
38.8465
45.1852
51.2235
54.756
55.5039
54.6125
54.5265
55.6726
55.2907
46.3252
32.2335
22.0002
15.1056
10.6897
7.95035
6.26231
5.18472
4.44166
3.88513
3.44677
3.11105
2.91852
3.05608
3.29027
1.40547
1.70986
2.10634
2.62303
3.29699
4.15497
5.23475
6.59577
8.32013
10.4935
13.1886
16.4679
20.3752
24.9081
29.966
35.2732
40.3289
44.6873
48.1737
50.2503
50.6967
50.4531
51.8988
55.1825
55.6967
46.3839
32.278
21.4989
14.7441
10.6244
8.1209
6.56363
5.52955
4.77872
4.19445
3.72199
3.34334
3.08422
3.06159
3.37796
1.54668
1.8953
2.34501
2.92458
3.66902
4.60864
5.78321
7.25482
9.09686
11.3785
14.147
17.4204
21.173
25.3101
29.6333
33.8231
37.498
40.4271
42.6591
44.2252
45.2414
46.5731
49.5795
53.4912
53.4478
44.686
33.4442
22.9327
15.6902
11.4636
8.87457
7.19652
6.04587
5.20516
4.55958
4.04501
3.63324
3.34372
3.29956
4.07374
1.69651
2.08843
2.58828
3.22292
4.02342
5.01911
6.24481
7.75094
9.59502
11.8252
14.4616
17.4845
20.8215
24.3344
27.8145
31.0084
33.7016
35.8444
37.586
39.1261
40.7281
42.8986
45.8981
48.2654
46.6274
39.7521
31.8459
24.683
17.9353
13.2145
10.0744
7.95264
6.55602
5.59151
4.88898
4.35142
3.9326
3.64707
3.6507
5.00201
1.84785
2.27982
2.82389
3.50408
4.34684
5.37772
6.6244
8.12253
9.91032
12.0144
14.4331
17.124
19.9971
22.9152
25.71
28.2233
30.3754
32.2331
33.9969
35.8961
38.1235
40.7789
43.4861
44.6506
42.279
36.6837
30.7845
25.4117
19.8581
15.1319
10.9606
8.40465
6.84673
5.82577
5.11281
4.58732
4.19078
3.93547
4.01797
6.16024
1.99487
2.46219
3.04342
3.7593
4.63161
5.68106
6.92801
8.39488
10.1026
12.0598
14.2503
16.624
19.0966
21.5608
23.9126
26.0957
28.1564
30.2771
32.7362
35.7857
39.4778
43.3261
46.0363
46.0932
42.0416
35.2635
30.2852
26.7355
20.7099
14.2719
10.5018
8.24809
6.82464
5.87947
5.21931
4.7385
4.38733
4.18748
4.37687
7.42108
2.13296
2.6302
3.24131
3.98378
4.87505
5.93101
7.16551
8.59087
10.2151
12.0349
14.0276
16.1477
18.3338
20.5278
22.7086
24.9408
27.4224
30.494
34.5614
39.8968
46.2454
51.5283
52.2798
48.3903
39.8951
31.5672
26.5525
23.1453
17.8535
12.7299
9.7022
7.84088
6.63331
5.81513
5.23713
4.81692
4.52225
4.39296
4.73346
8.72949
2.25866
2.7801
3.41406
4.17507
5.07685
6.13107
7.34649
8.72849
10.2772
11.9836
13.8265
15.776
17.8073
19.9281
22.2224
24.9024
28.3444
33.0535
39.4807
47.651
56.4538
61.4284
56.4754
44.5109
33.9771
26.7415
22.4563
19.0117
14.6656
11.1756
8.874
7.37991
6.38716
5.70264
5.20993
4.85065
4.61109
4.54931
5.02287
9.71571
2.36959
2.90949
3.55968
4.33216
5.23762
6.28445
7.47783
8.81909
10.3049
11.9266
13.6722
15.5365
17.5432
19.7821
22.46
25.9491
30.7877
37.5467
46.4189
56.5018
64.5944
63.6094
49.8836
37.0636
28.2536
22.282
18.5168
15.5079
12.3437
9.86745
8.12949
6.9532
6.1553
5.59533
5.17968
4.87173
4.67584
4.66448
5.22598
10.278
2.46426
3.01701
3.67722
4.45483
5.3582
6.39337
7.56337
8.86794
10.3041
11.8684
13.5648
15.4208
17.5182
20.0383
23.3122
27.8468
34.2627
43.0127
53.6241
63.3132
65.5757
53.8931
40.3776
30.503
23.5115
18.6705
15.4244
12.9787
10.6775
8.84773
7.52387
6.60795
5.97968
5.53305
5.1816
4.90957
4.74205
4.75732
5.35317
10.4481
2.54192
3.10209
3.76647
4.54333
5.43934
6.459
7.6044
8.87561
10.2729
11.8022
13.4879
15.3961
17.6714
20.5829
24.5582
30.1633
37.9651
48.1182
59.0421
65.2312
56.9542
43.1218
32.706
25.0892
19.619
15.7625
13.0848
11.118
9.45404
8.08474
7.06942
6.36235
5.88122
5.53938
5.23602
4.98556
4.83578
4.85354
5.43431
10.3274
2.60244
3.16485
3.8278
4.59828
5.48174
6.48179
7.60046
8.83954
10.2045
11.7135
13.4144
15.4138
17.9159
21.2569
25.9015
32.3549
40.9683
51.4586
60.7451
58.8434
45.6876
34.6572
26.6113
20.7372
16.4871
13.4504
11.3034
9.7565
8.55442
7.55005
6.76332
6.21295
5.82591
5.5247
5.28473
5.10811
4.97925
4.97467
5.50572
10.0854
2.64628
3.20595
3.86211
4.62072
5.4863
6.46204
7.55048
8.75597
10.0904
11.5853
13.3129
15.4183
18.1535
21.8879
27.0486
33.9573
42.6126
52.2815
57.522
47.4764
36.2915
27.9707
21.8235
17.3079
14.0163
11.6413
9.94828
8.7566
7.85431
7.10696
6.51372
6.06803
5.73518
5.48209
5.31329
5.2506
5.17566
5.12772
5.59492
9.88541
)
;

boundaryField
{
    leftWall
    {
        Cmu             0.09;
        kappa           0.41;
        E               9.8;
        type            epsilonWallFunction;
        value           nonuniform 0();
    }
    rightWall
    {
        Cmu             0.09;
        kappa           0.41;
        E               9.8;
        type            epsilonWallFunction;
        value           nonuniform List<scalar> 
43
(
5.7559
7.07441
7.5977
7.8584
8.06515
8.22298
8.33706
8.42738
8.41956
8.3137
8.14258
7.92599
7.68108
7.42179
7.16592
6.93082
6.71164
6.47675
6.20491
5.90867
5.59826
5.26079
4.885
4.46544
4.00452
3.51356
3.05116
2.76528
2.68641
2.92569
3.29027
3.37796
4.07374
5.00201
6.16024
7.42108
8.72949
9.71571
10.278
10.4481
10.3274
10.0854
9.88541
)
;
    }
    lowerWall
    {
        Cmu             0.09;
        kappa           0.41;
        E               9.8;
        type            epsilonWallFunction;
        value           nonuniform List<scalar> 
66
(
0.258131
0.151156
0.151156
0.253154
0.38688
0.53241
0.699547
0.862771
1.02509
1.20509
1.45803
2.08363
2.80637
2.0821
1.77755
1.5463
0.0797624
0.306474
0.489063
0.700088
0.886985
1.03284
1.11271
1.12685
1.10022
1.14715
0.0797624
0.370049
0.374757
0.398694
0.443068
0.505667
0.639488
0.837813
1.08491
1.37366
1.69632
2.05527
2.473
2.99511
3.69061
4.66582
6.09518
8.22085
11.2714
15.2358
19.5935
24.2088
29.2329
34.6505
38.1322
40.231
41.6754
42.921
43.6692
42.1061
40.4545
38.9829
37.4521
36.3158
35.6758
34.8231
32.5524
26.7269
17.8264
5.7559
)
;
    }
    atmosphere
    {
        type            inletOutlet;
        inletValue      nonuniform 0();
        value           nonuniform 0();
    }
    defaultFaces
    {
        type            empty;
    }
    procBoundary1to0
    {
        type            processor;
        value           nonuniform List<scalar> 
44
(
0.323299
0.224998
0.246006
0.274832
0.305656
0.33595
0.365186
0.393738
0.421126
0.442905
0.447154
0.445993
0.44574
0.448251
0.453331
0.460199
0.468069
0.476286
0.48436
0.49199
0.537025
0.537025
0.542982
0.549255
0.556469
0.560623
0.560522
0.561357
0.565584
0.574134
0.587039
0.603912
0.624206
0.647341
0.672771
0.7
0.728581
0.758111
0.787674
0.816719
0.844941
0.87214
0.89823
0.923213
)
;
    }
    procBoundary1to3
    {
        type            processor;
        value           nonuniform List<scalar> 
45
(
1.11927
1.32818
1.57597
1.87507
2.23195
2.67438
3.22668
3.87097
4.61234
5.45465
6.40084
7.45427
8.62221
9.92334
11.4024
13.1546
15.3571
18.2923
22.324
27.7761
34.6928
42.5689
50.0823
47.8098
37.4574
29.145
22.8403
18.1335
14.6543
12.1038
10.253
8.93073
8.00761
7.24664
6.66522
6.2303
5.89459
5.65419
5.48626
5.38644
5.38432
5.36011
5.31143
5.72566
9.84946
)
;
    }
}


// ************************************************************************* //
