/*--------------------------------*- C++ -*----------------------------------*\
| =========                 |                                                 |
| \\      /  F ield         | OpenFOAM: The Open Source CFD Toolbox           |
|  \\    /   O peration     | Version:  5.0                                   |
|   \\  /    A nd           | Web:      www.OpenFOAM.org                      |
|    \\/     M anipulation  |                                                 |
\*---------------------------------------------------------------------------*/
FoamFile
{
    version     2.0;
    format      ascii;
    class       volScalarField;
    location    "0.65";
    object      k;
}
// * * * * * * * * * * * * * * * * * * * * * * * * * * * * * * * * * * * * * //

dimensions      [0 2 -2 0 0 0 0];

internalField   nonuniform List<scalar> 
1915
(
0.013306
0.00930033
0.0274215
0.0158115
0.0387901
0.0209792
0.0495072
0.0259513
0.0588929
0.0311196
0.0673618
0.035788
0.075314
0.0401476
0.0833338
0.0447249
0.0923712
0.0507664
0.103654
0.0645847
0.0155357
0.0169595
0.0172883
0.0178894
0.0192215
0.0210249
0.0246135
0.0295222
0.0350893
0.0410687
0.0473133
0.0539386
0.0613814
0.0703217
0.0816336
0.0965421
0.11673
0.143678
0.177274
0.214606
0.250282
0.286144
0.323247
0.358522
0.378308
0.390841
0.400237
0.406987
0.401375
0.389082
0.378252
0.368317
0.359854
0.356385
0.356207
0.352512
0.333934
0.287771
0.217404
0.112395
0.0186855
0.0309188
0.0409459
0.0486734
0.0567797
0.0656761
0.0746987
0.0829352
0.0899136
0.0959186
0.102004
0.110099
0.123176
0.145187
0.180439
0.232041
0.297043
0.3601
0.406558
0.442447
0.474476
0.507639
0.546914
0.595905
0.641344
0.675397
0.704761
0.732543
0.743862
0.742158
0.729501
0.712429
0.699531
0.695522
0.690859
0.666708
0.588272
0.46202
0.327785
0.146951
0.0254426
0.0462361
0.0583366
0.0680041
0.0778596
0.087587
0.0966419
0.104779
0.112274
0.119986
0.129446
0.143177
0.164974
0.199257
0.24864
0.310032
0.371458
0.422447
0.469785
0.522662
0.583834
0.654638
0.734104
0.808315
0.865524
0.907033
0.940425
0.975255
1.00448
1.00344
0.974303
0.942457
0.928807
0.939887
0.937538
0.838165
0.641436
0.458647
0.318296
0.154721
0.0323305
0.0600624
0.0729182
0.0830296
0.0928803
0.102458
0.11176
0.121063
0.130933
0.142308
0.15681
0.177285
0.207927
0.252594
0.310358
0.371082
0.422405
0.469486
0.523416
0.589825
0.670553
0.764093
0.864434
0.961821
1.04413
1.10053
1.12897
1.14027
1.14114
1.12576
1.09568
1.0597
1.03982
1.05966
1.0339
0.820122
0.586283
0.424264
0.303807
0.158587
0.0378844
0.0719631
0.0863624
0.0966601
0.106099
0.11554
0.1255
0.136471
0.149011
0.163981
0.183043
0.209297
0.247183
0.299929
0.36324
0.421629
0.468447
0.515245
0.570849
0.639984
0.72427
0.820194
0.922934
1.02541
1.11497
1.17125
1.18421
1.16972
1.15088
1.13118
1.10403
1.06669
1.04125
1.04511
0.910139
0.668147
0.502876
0.392732
0.296702
0.161566
0.0419905
0.0820789
0.0995351
0.11016
0.118879
0.12807
0.138706
0.151258
0.166133
0.184057
0.206641
0.236999
0.27959
0.337515
0.405484
0.465806
0.512931
0.558269
0.609975
0.672807
0.747061
0.82759
0.908458
0.987783
1.05751
1.09801
1.10109
1.0801
1.05458
1.03043
1.00037
0.960554
0.931319
0.87126
0.698288
0.544725
0.445467
0.3727
0.295172
0.163826
0.0443282
0.0914983
0.113938
0.124318
0.131342
0.139813
0.1509
0.16477
0.181552
0.201772
0.226838
0.259567
0.304073
0.363497
0.434356
0.501345
0.552796
0.596306
0.641213
0.69328
0.751579
0.807185
0.852059
0.896963
0.941388
0.96892
0.96953
0.948805
0.919611
0.888538
0.853348
0.813811
0.769236
0.667129
0.552354
0.470758
0.412798
0.361501
0.295825
0.165453
0.045114
0.104188
0.132658
0.139857
0.143113
0.150124
0.16141
0.176377
0.194726
0.216717
0.243453
0.277244
0.321557
0.379339
0.448899
0.520527
0.580518
0.625035
0.663486
0.704588
0.745699
0.768271
0.775148
0.789512
0.812067
0.829625
0.830696
0.813834
0.78517
0.751259
0.71538
0.677103
0.611044
0.535965
0.476149
0.431321
0.394616
0.355237
0.296328
0.16668
0.0440692
0.119268
0.152175
0.154738
0.152972
0.158165
0.169637
0.18563
0.205334
0.228729
0.256582
0.290634
0.333581
0.38793
0.452855
0.521837
0.585544
0.635322
0.671757
0.700924
0.714601
0.704863
0.691947
0.689716
0.698343
0.708211
0.708831
0.695243
0.669534
0.63821
0.605571
0.563192
0.512481
0.470311
0.436996
0.410151
0.384376
0.351441
0.295962
0.166901
0.0453678
0.118253
0.167618
0.164469
0.158373
0.162989
0.175157
0.192294
0.213243
0.237778
0.266376
0.300251
0.341324
0.391529
0.450617
0.513566
0.571863
0.618624
0.649679
0.662499
0.65435
0.635586
0.620089
0.612529
0.613241
0.616575
0.614584
0.601944
0.579765
0.553904
0.524925
0.491352
0.461204
0.436536
0.416537
0.398713
0.378591
0.348953
0.295049
0.165796
0.117222
0.0978183
0.130578
0.121462
0.142673
0.137191
0.153658
0.149769
0.163862
0.160975
0.173559
0.17156
0.182948
0.181859
0.192113
0.191972
0.201074
0.201849
0.209815
0.211465
0.220812
0.229973
0.239138
0.248497
0.257561
0.264849
0.271845
0.27942
0.287987
0.29763
0.308215
0.319515
0.331272
0.343241
0.355194
0.366934
0.378137
0.388606
0.398217
0.406891
0.414596
0.421337
0.427158
0.0663014
0.0544394
0.0490786
0.0448808
0.110949
0.101065
0.0912133
0.0811022
0.130707
0.122605
0.112269
0.102172
0.144858
0.138053
0.128769
0.120464
0.157181
0.151805
0.144466
0.137872
0.168895
0.165164
0.160352
0.157121
0.180411
0.178396
0.176277
0.177606
0.191753
0.191233
0.190725
0.193428
0.202761
0.203625
0.204341
0.206785
0.21342
0.215553
0.217556
0.220058
0.223727
0.226994
0.230321
0.233388
0.233799
0.23814
0.242768
0.247096
0.243873
0.249321
0.25525
0.261212
0.254232
0.261005
0.268202
0.275939
0.264834
0.27373
0.282158
0.291822
0.273879
0.284709
0.296886
0.309449
0.282405
0.294707
0.309315
0.326436
0.291465
0.305378
0.321877
0.341734
0.301773
0.31768
0.336648
0.359411
0.313569
0.331958
0.353876
0.380077
0.3267
0.348033
0.373396
0.403559
0.340842
0.365457
0.394647
0.429189
0.355635
0.383737
0.416964
0.456117
0.370734
0.402412
0.439716
0.483291
0.385823
0.420928
0.462002
0.509683
0.400448
0.438692
0.483208
0.534538
0.414262
0.455319
0.502845
0.557273
0.427035
0.470509
0.520551
0.577474
0.438597
0.484057
0.536085
0.594881
0.448846
0.495839
0.549316
0.609371
0.45774
0.505813
0.560212
0.620935
0.465291
0.514006
0.568826
0.629667
0.471562
0.520506
0.575284
0.635738
0.0504651
0.109061
0.163632
0.159593
0.15758
0.164258
0.177964
0.196434
0.21854
0.243982
0.273022
0.306433
0.345451
0.391347
0.444068
0.500139
0.551934
0.59123
0.61203
0.61286
0.600214
0.583733
0.569565
0.559882
0.555349
0.553117
0.54761
0.534743
0.516137
0.495467
0.473215
0.452246
0.434099
0.418982
0.405932
0.392691
0.375302
0.347043
0.293572
0.163784
0.0732888
0.111971
0.148216
0.149448
0.153145
0.162897
0.178487
0.198261
0.221313
0.247356
0.276496
0.309157
0.346021
0.387752
0.43417
0.482946
0.52867
0.562624
0.577986
0.576213
0.564385
0.549366
0.535229
0.523966
0.516412
0.510834
0.50294
0.490012
0.474426
0.459265
0.444867
0.43189
0.420597
0.410693
0.401174
0.389976
0.373486
0.34533
0.29157
0.161125
0.0945652
0.117994
0.136762
0.140792
0.148066
0.160379
0.177497
0.198206
0.221804
0.24802
0.276829
0.308382
0.342947
0.380755
0.421368
0.463313
0.501914
0.530408
0.544012
0.543539
0.534057
0.520605
0.507218
0.496282
0.488669
0.482754
0.474366
0.462006
0.450323
0.440232
0.431277
0.423267
0.415852
0.408563
0.400421
0.389548
0.372648
0.343677
0.289179
0.158039
0.122201
0.128061
0.133011
0.135679
0.144149
0.157812
0.175678
0.196717
0.220323
0.246183
0.274147
0.304145
0.336169
0.370347
0.405709
0.440607
0.471883
0.495095
0.507057
0.508018
0.501186
0.490411
0.480021
0.472452
0.468042
0.464139
0.45592
0.445979
0.438541
0.432943
0.428111
0.423182
0.417691
0.411184
0.402801
0.390909
0.372548
0.342038
0.286489
0.15472
0.138045
0.138076
0.133328
0.13347
0.141761
0.155647
0.173461
0.194192
0.217257
0.242202
0.268772
0.296727
0.325834
0.355817
0.385843
0.41443
0.439305
0.45767
0.467627
0.469405
0.46531
0.458813
0.454179
0.452936
0.453762
0.451512
0.444017
0.439004
0.436841
0.435653
0.433809
0.430462
0.425277
0.41797
0.40793
0.39383
0.373068
0.340383
0.283451
0.151431
0.152818
0.147677
0.136096
0.133485
0.14087
0.154171
0.17125
0.191031
0.212844
0.236197
0.260692
0.28596
0.311641
0.337319
0.36228
0.385355
0.404946
0.419364
0.427713
0.430612
0.430281
0.430442
0.434065
0.440123
0.444895
0.441778
0.440249
0.442445
0.445937
0.448356
0.448205
0.444886
0.438362
0.428701
0.415636
0.398188
0.374141
0.338698
0.279944
0.148371
0.17393
0.159878
0.143026
0.136678
0.141967
0.153707
0.169327
0.18752
0.207486
0.22864
0.250492
0.272609
0.294608
0.316109
0.336585
0.355224
0.371004
0.383075
0.391425
0.397328
0.403214
0.412148
0.423911
0.434167
0.437711
0.441472
0.449393
0.458888
0.467123
0.471832
0.471743
0.466624
0.456948
0.443286
0.425789
0.403856
0.37568
0.336973
0.276097
0.145385
0.197395
0.176176
0.156699
0.145691
0.147082
0.155824
0.168963
0.184798
0.202303
0.22077
0.239649
0.258512
0.277055
0.295055
0.312243
0.328175
0.342356
0.354674
0.365858
0.377708
0.39179
0.408889
0.422234
0.432783
0.443634
0.458347
0.474905
0.490439
0.501997
0.50726
0.505153
0.496025
0.481109
0.461619
0.43818
0.410593
0.377481
0.33508
0.272209
0.142007
0.215347
0.200633
0.178917
0.163648
0.159555
0.163466
0.172758
0.185297
0.199772
0.215308
0.231304
0.247409
0.26348
0.279513
0.295497
0.311282
0.326795
0.34252
0.359259
0.378368
0.39822
0.415819
0.431327
0.449723
0.471491
0.495441
0.51917
0.539394
0.552596
0.556164
0.549362
0.533483
0.510836
0.483435
0.45241
0.417958
0.379126
0.332644
0.267935
0.138
0.227324
0.229477
0.209345
0.191621
0.181287
0.179475
0.184068
0.192713
0.204
0.216887
0.230748
0.245355
0.260745
0.277078
0.294446
0.312778
0.332091
0.352991
0.374739
0.396916
0.418355
0.440057
0.464494
0.492412
0.523228
0.555238
0.585272
0.608919
0.621612
0.620415
0.605348
0.57922
0.545842
0.508164
0.467791
0.425257
0.379977
0.329116
0.26269
0.133591
0.23782
0.246879
0.2401
0.227214
0.211146
0.204817
0.205325
0.21064
0.219592
0.230967
0.244171
0.259094
0.275826
0.294471
0.314975
0.33721
0.360533
0.384792
0.4095
0.435191
0.462743
0.492511
0.52536
0.562122
0.601904
0.642103
0.678049
0.703461
0.712399
0.701956
0.673744
0.632928
0.585284
0.53474
0.483248
0.431541
0.379271
0.323924
0.256055
0.128826
0.251094
0.255618
0.260164
0.255582
0.246337
0.241126
0.239583
0.242725
0.25071
0.262016
0.276126
0.292864
0.312135
0.333832
0.357717
0.38315
0.409939
0.438327
0.46879
0.501238
0.536195
0.57443
0.616694
0.663636
0.713952
0.763348
0.804577
0.828693
0.828466
0.802088
0.754188
0.693267
0.627397
0.561372
0.497227
0.435619
0.376197
0.316587
0.247773
0.123457
0.26678
0.271334
0.274546
0.275319
0.277917
0.277528
0.278565
0.283903
0.293211
0.306018
0.32249
0.342424
0.365543
0.391503
0.419778
0.450123
0.483402
0.519154
0.557262
0.597977
0.642146
0.69107
0.745877
0.80616
0.870002
0.929764
0.974074
0.990777
0.972404
0.920417
0.844479
0.757209
0.669003
0.585293
0.507657
0.436153
0.37003
0.30681
0.237716
0.117287
0.283933
0.291212
0.29695
0.3014
0.306302
0.311247
0.318184
0.328659
0.341861
0.358867
0.380118
0.405514
0.434838
0.467793
0.504101
0.543642
0.586336
0.631919
0.680357
0.732144
0.788634
0.852003
0.924162
1.00385
1.08542
1.15561
1.19707
1.19494
1.14448
1.05376
0.939575
0.818867
0.704752
0.602583
0.512115
0.431934
0.360391
0.294658
0.226043
0.110191
0.302407
0.313373
0.323625
0.333099
0.342729
0.353286
0.366059
0.382052
0.401738
0.425812
0.454682
0.488433
0.527008
0.570247
0.617931
0.669816
0.72559
0.78493
0.847759
0.914695
0.987741
1.07062
1.16705
1.27537
1.3807
1.45809
1.48384
1.44336
1.34032
1.19337
1.02826
0.866692
0.726573
0.608642
0.508519
0.422482
0.347654
0.280789
0.213295
0.102141
0.323183
0.338001
0.353402
0.369041
0.385354
0.403165
0.423572
0.447614
0.476138
0.509901
0.549426
0.594994
0.646707
0.704501
0.76816
0.837331
0.911544
0.990272
1.07314
1.16056
1.25513
1.36328
1.49265
1.64168
1.78176
1.8569
1.83961
1.72721
1.54191
1.30844
1.08038
0.8834
0.726676
0.60065
0.496673
0.408923
0.333408
0.266693
0.200397
0.0933053
0.34698
0.366298
0.387863
0.410149
0.434346
0.461226
0.49147
0.526213
0.566614
0.61366
0.668058
0.730255
0.800471
0.878696
0.964685
1.05798
1.15792
1.26366
1.3742
1.48888
1.60998
1.74849
1.92116
2.13015
2.31697
2.35341
2.23804
1.97035
1.64358
1.32811
1.06829
0.86468
0.706153
0.581036
0.479271
0.393916
0.320437
0.254827
0.189013
0.0849769
0.367039
0.396482
0.428673
0.458513
0.492348
0.530338
0.572515
0.620778
0.676731
0.741616
0.816327
0.901435
0.997203
1.1036
1.22029
1.34662
1.48168
1.62444
1.77312
1.9243
2.0758
2.24534
2.47033
2.76883
3.00986
2.80273
2.41185
1.99443
1.59081
1.26928
1.01662
0.822237
0.672855
0.555904
0.460883
0.380813
0.311114
0.247647
0.182171
0.0800201
0.38826
0.424714
0.466758
0.511357
0.561021
0.614196
0.670669
0.735871
0.811853
0.900136
1.00185
1.1177
1.2479
1.39237
1.55052
1.72126
1.90321
2.09563
2.2972
2.50001
2.68384
2.87034
3.13287
3.40526
3.28233
2.84509
2.34791
1.88513
1.49604
1.18933
0.954336
0.776805
0.641706
0.535668
0.448805
0.374709
0.309388
0.249485
0.18644
0.0794308
0.413169
0.455375
0.505812
0.564508
0.632086
0.705732
0.785104
0.874171
0.976559
1.09536
1.23237
1.38863
1.56442
1.75963
1.97336
2.20355
2.44689
2.70301
2.97255
3.20242
3.31464
3.3441
3.36802
3.31671
3.12926
2.79012
2.24967
1.78536
1.41131
1.12349
0.908303
0.74841
0.627061
0.530841
0.450644
0.380753
0.31799
0.261243
0.204225
0.0860215
0.441448
0.489689
0.547583
0.616589
0.698676
0.792852
0.898689
1.01619
1.15048
1.30547
1.48274
1.68317
1.90683
2.15279
2.41755
2.69311
2.96039
3.20349
3.40981
3.49624
3.45575
3.34116
3.2538
3.22143
3.14997
2.78806
2.21317
1.73751
1.36935
1.09552
0.895801
0.74932
0.637765
0.547713
0.470738
0.401547
0.336728
0.27431
0.214165
0.0902311
0.472274
0.526688
0.591632
0.668801
0.760121
0.865215
0.984678
1.12068
1.2764
1.45391
1.65329
1.87334
2.11143
2.36242
2.61679
2.85838
3.0641
3.21757
3.3176
3.34752
3.30202
3.22359
3.21218
3.27809
3.25053
2.87476
2.28501
1.76761
1.3883
1.11725
0.923941
0.782946
0.674434
0.585185
0.50741
0.435828
0.366065
0.293513
0.211094
0.0934347
0.504563
0.565074
0.636385
0.72001
0.817431
0.928703
1.05451
1.1971
1.3587
1.54015
1.74012
1.95521
2.17983
2.40548
2.61982
2.80682
2.95039
3.04422
3.09624
3.11273
3.10145
3.1014
3.1718
3.2832
3.2508
2.89416
2.40456
1.88913
1.47623
1.19294
0.992157
0.843861
0.728998
0.634882
0.55338
0.478339
0.404387
0.325501
0.231167
0.106163
0.53674
0.602796
0.679613
0.768293
0.869787
0.984205
1.11186
1.25415
1.4124
1.58657
1.7743
1.97086
2.16911
2.35951
2.5305
2.67032
2.77122
2.83504
2.87358
2.89985
2.92802
2.98241
3.07655
3.15068
3.06888
2.76793
2.39607
2.02012
1.62962
1.32038
1.08989
0.916192
0.786632
0.684732
0.599155
0.521673
0.445636
0.364151
0.265109
0.122069
0.567638
0.638457
0.719706
0.812048
0.915934
1.03127
1.15792
1.2963
1.44673
1.60836
1.77829
1.9514
2.1205
2.27704
2.41232
2.51982
2.59847
2.65543
2.70427
2.75879
2.82958
2.92215
3.02043
3.05542
2.9401
2.67831
2.38252
2.08494
1.75576
1.45189
1.16748
0.969269
0.829849
0.724031
0.637139
0.559503
0.483625
0.401915
0.301092
0.14009
0.596358
0.671055
0.755635
0.850341
0.95518
1.06976
1.19354
1.3261
1.46688
1.6144
1.76557
1.91561
2.05842
2.18775
2.29873
2.39026
2.46743
2.54239
2.63117
2.74672
2.89077
3.04013
3.13865
3.12404
2.93806
2.6252
2.36964
2.15903
1.81299
1.42321
1.16117
0.980945
0.849822
0.748576
0.66457
0.589014
0.51478
0.434424
0.333834
0.158275
0.622244
0.699911
0.786777
0.882714
0.98735
1.09999
1.21973
1.34558
1.47635
1.61018
1.74412
1.87426
1.99639
2.10737
2.20697
2.30017
2.39894
2.52133
2.68607
2.90223
3.15362
3.35086
3.36162
3.19033
2.82891
2.45013
2.19153
1.98714
1.67346
1.34852
1.12806
0.971977
0.854805
0.761684
0.682571
0.610127
0.538135
0.459355
0.358976
0.17547
0.644856
0.724605
0.812802
0.909002
1.01252
1.1224
1.23746
1.35634
1.47751
1.599
1.71836
1.83299
1.94114
2.04351
2.14533
2.25848
2.40184
2.59744
2.85983
3.18069
3.50668
3.66983
3.46923
2.99735
2.54709
2.20628
1.97888
1.77234
1.50213
1.26412
1.08672
0.954436
0.851827
0.767639
0.693757
0.624453
0.554595
0.477265
0.377026
0.187341
0.663942
0.744935
0.833601
0.92924
1.03092
1.13747
1.24752
1.35953
1.47185
1.58272
1.69051
1.79434
1.89543
1.99892
2.11602
2.26509
2.46942
2.74817
3.09792
3.47027
3.74266
3.6849
3.17703
2.65706
2.2628
1.96874
1.76148
1.57623
1.36762
1.18766
1.04555
0.93476
0.845861
0.770264
0.701136
0.634286
0.565811
0.489183
0.38849
0.1935
0.679409
0.760867
0.849233
0.943604
1.04286
1.14568
1.25058
1.35598
1.46034
1.56237
1.66157
1.75916
1.85971
1.97306
2.11579
2.31033
2.57905
2.92981
3.32835
3.66195
3.71684
3.29493
2.76961
2.34613
2.01718
1.76735
1.58164
1.42557
1.2654
1.12471
1.00978
0.917222
0.840584
0.772971
0.707704
0.642154
0.574046
0.496962
0.394708
0.194814
0.691292
0.772504
0.859885
0.95238
1.04874
1.14753
1.24724
1.34637
1.44366
1.53853
1.63188
1.72732
1.83289
1.9626
2.13628
2.37585
2.69646
3.0894
3.4793
3.67281
3.37533
2.85578
2.42487
2.07949
1.80844
1.59955
1.43977
1.30923
1.1871
1.07574
0.981782
0.904192
0.838385
0.778276
0.715725
0.650467
0.58211
0.503298
0.398105
0.192835
0.699738
0.780061
0.86585
0.955942
1.04899
1.14353
1.23807
1.33128
1.42234
1.51157
1.60144
1.69808
1.81269
1.96201
2.16567
2.43946
2.78603
3.17868
3.49378
3.41332
2.93447
2.49208
2.13858
1.85688
1.63497
1.46223
1.32825
1.22103
1.12766
1.04067
0.962583
0.896274
0.837194
0.779763
0.721641
0.66113
0.593002
0.510913
0.401516
0.189806
0.704981
0.783845
0.867511
0.954744
1.04415
1.13426
1.22367
1.31129
1.39686
1.48171
1.57
1.6702
1.79593
1.96463
2.19209
2.48348
2.82593
3.17805
3.3447
2.9844
2.54691
2.19069
1.90387
1.67495
1.49394
1.35204
1.24127
1.15444
1.07973
1.00982
0.94549
0.886732
0.831525
0.777681
0.724987
0.672652
0.607325
0.521018
0.406776
0.187637
)
;

boundaryField
{
    leftWall
    {
        type            kqRWallFunction;
        value           nonuniform 0();
    }
    rightWall
    {
        type            kqRWallFunction;
        value           nonuniform List<scalar> 
43
(
0.112395
0.146951
0.154721
0.158587
0.161566
0.163826
0.165453
0.16668
0.166901
0.165796
0.163784
0.161125
0.158039
0.15472
0.151431
0.148371
0.145385
0.142007
0.138
0.133591
0.128826
0.123457
0.117287
0.110191
0.102141
0.0933053
0.0849769
0.0800201
0.0794308
0.0860215
0.0902311
0.0934347
0.106163
0.122069
0.14009
0.158275
0.17547
0.187341
0.1935
0.194814
0.192835
0.189806
0.187637
)
;
    }
    lowerWall
    {
        type            kqRWallFunction;
        value           nonuniform List<scalar> 
66
(
0.013306
0.00930033
0.00930033
0.0158115
0.0209792
0.0259513
0.0311196
0.035788
0.0401476
0.0447249
0.0507664
0.0645847
0.0663014
0.0544394
0.0490786
0.0448808
0.0155357
0.0186855
0.0254426
0.0323305
0.0378844
0.0419905
0.0443282
0.045114
0.0440692
0.0453678
0.0155357
0.0169595
0.0172883
0.0178894
0.0192215
0.0210249
0.0246135
0.0295222
0.0350893
0.0410687
0.0473133
0.0539386
0.0613814
0.0703217
0.0816336
0.0965421
0.11673
0.143678
0.177274
0.214606
0.250282
0.286144
0.323247
0.358522
0.378308
0.390841
0.400237
0.406987
0.401375
0.389082
0.378252
0.368317
0.359854
0.356385
0.356207
0.352512
0.333934
0.287771
0.217404
0.112395
)
;
    }
    atmosphere
    {
        type            inletOutlet;
        inletValue      nonuniform 0();
        value           nonuniform 0();
    }
    defaultFaces
    {
        type            empty;
    }
    procBoundary1to0
    {
        type            processor;
        value           nonuniform List<scalar> 
44
(
0.0154768
0.0345731
0.0479994
0.0595986
0.0699188
0.0794076
0.0883604
0.0971595
0.106236
0.115954
0.126264
0.13676
0.146986
0.156767
0.1661
0.175058
0.183723
0.192155
0.200378
0.208395
0.218338
0.218338
0.226707
0.235042
0.243415
0.250784
0.256773
0.262629
0.268968
0.276038
0.283849
0.292292
0.301201
0.3104
0.319718
0.329002
0.338122
0.346967
0.355335
0.363115
0.370256
0.376736
0.382564
0.387769
)
;
    }
    procBoundary1to3
    {
        type            processor;
        value           nonuniform List<scalar> 
45
(
0.432135
0.476655
0.525457
0.579773
0.639394
0.707329
0.78424
0.865328
0.949321
1.03481
1.12036
1.20469
1.28705
1.36776
1.44922
1.53722
1.64217
1.77905
1.96394
2.2061
2.49757
2.80662
3.07465
2.98448
2.58556
2.23619
1.94834
1.71552
1.52943
1.38192
1.26574
1.17468
1.10328
1.0362
0.976828
0.923619
0.873123
0.82529
0.778275
0.730861
0.682616
0.620023
0.53312
0.414607
0.18774
)
;
    }
}


// ************************************************************************* //
