/*--------------------------------*- C++ -*----------------------------------*\
| =========                 |                                                 |
| \\      /  F ield         | OpenFOAM: The Open Source CFD Toolbox           |
|  \\    /   O peration     | Version:  5.0                                   |
|   \\  /    A nd           | Web:      www.OpenFOAM.org                      |
|    \\/     M anipulation  |                                                 |
\*---------------------------------------------------------------------------*/
FoamFile
{
    version     2.0;
    format      ascii;
    class       volScalarField;
    location    "0.65";
    object      p;
}
// * * * * * * * * * * * * * * * * * * * * * * * * * * * * * * * * * * * * * //

dimensions      [1 -1 -2 0 0 0 0];

internalField   nonuniform List<scalar> 
1915
(
834.203
838.21
781.085
786.964
730.383
737.516
683.646
691.534
641.401
649.83
601.545
611.776
563.229
576.03
525.709
540.863
488.468
505.081
450.724
478.295
322.928
322.915
322.893
322.874
322.856
322.836
322.815
322.791
322.763
322.728
322.685
322.634
322.573
322.496
322.39
322.246
322.073
321.94
321.997
322.133
321.655
320.31
319.969
319.852
319.252
319.658
322.211
329.211
338.6
356.388
361.168
359.298
367.532
393.394
508.37
1039.82
2104.06
3065.74
3344.91
3130.14
322.878
322.86
322.845
322.83
322.815
322.798
322.779
322.757
322.729
322.693
322.647
322.592
322.526
322.446
322.344
322.209
322.062
321.952
321.836
321.419
320.624
319.748
319.244
318.988
318.974
319.007
318.83
314.41
318.349
320.145
320.218
320.06
319.47
314.824
326.021
641.636
1537.74
2522.52
2977.95
2939.6
322.836
322.817
322.806
322.792
322.774
322.754
322.731
322.703
322.67
322.629
322.581
322.526
322.465
322.399
322.311
322.183
322.043
321.858
321.384
320.377
319.348
318.883
318.784
318.872
319.234
319.368
319.241
318.585
319.355
319.876
320.494
321.339
322.131
321.969
337.548
493.401
1127.66
2013.35
2525.74
2652.57
322.801
322.786
322.774
322.754
322.729
322.7
322.667
322.63
322.589
322.543
322.493
322.442
322.393
322.349
322.283
322.147
321.98
321.583
320.737
319.564
318.802
318.488
318.509
318.743
319.03
319.105
319.01
318.943
319.355
319.919
320.576
321.274
321.759
323.715
347.007
462.788
948.83
1646.82
2089.15
2308.8
322.771
322.761
322.745
322.716
322.679
322.637
322.592
322.544
322.494
322.443
322.392
322.345
322.306
322.284
322.235
322.083
321.788
321.119
320.083
319.019
318.488
318.264
318.315
318.564
318.862
319.011
319.013
319.07
319.413
319.926
320.512
321.032
321.427
324.526
347.913
466.873
893.237
1387.96
1729.72
1971.39
322.739
322.743
322.721
322.675
322.62
322.562
322.504
322.445
322.387
322.331
322.277
322.23
322.194
322.183
322.149
321.947
321.434
320.604
319.518
318.603
318.225
318.088
318.175
318.432
318.732
318.932
319.03
319.153
319.445
319.868
320.341
320.735
321.277
325.413
351.77
495.077
848.822
1201.56
1461.45
1680.31
322.697
322.737
322.704
322.628
322.549
322.474
322.403
322.335
322.27
322.207
322.148
322.096
322.053
322.03
322
321.74
321.081
320.158
319.081
318.262
317.974
317.935
318.077
318.354
318.653
318.881
319.032
319.189
319.44
319.774
320.13
320.49
321.353
325.529
365.922
537.44
803.707
1068.61
1270.6
1449.02
322.634
322.767
322.708
322.569
322.46
322.37
322.289
322.214
322.143
322.074
322.008
321.947
321.889
321.835
321.77
321.528
320.91
319.969
318.874
318.045
317.796
317.858
318.057
318.331
318.617
318.849
319.023
319.189
319.401
319.656
319.923
320.301
321.308
330.22
397.568
562.957
767.051
972.033
1136.48
1277.27
322.413
322.859
322.745
322.482
322.344
322.245
322.161
322.083
322.008
321.934
321.861
321.788
321.712
321.626
321.508
321.272
320.774
319.962
318.903
318.095
317.833
317.92
318.117
318.363
318.617
318.834
319.007
319.165
319.34
319.537
319.77
320.264
322.037
341.422
435.602
576.802
739.436
902.903
1041.29
1153.88
320.925
322.647
322.482
322.308
322.187
322.099
322.021
321.945
321.869
321.792
321.712
321.628
321.535
321.423
321.266
321.006
320.568
319.897
319.053
318.371
318.077
318.109
318.242
318.436
318.646
318.834
318.99
319.128
319.271
319.453
319.747
320.336
322.5
370.329
466.89
586.191
719.58
853.421
971.808
1067.7
404.531
411.136
364.187
370.282
326.016
330.725
289.462
295.347
254.388
263.272
220.116
232.447
185.877
201.341
151.085
169.031
115.437
134.611
79.2931
97.7465
59.041
21.7591
2.36518
-1.02214
-0.910254
-0.987476
-1.0695
-1.13519
-1.19712
-1.25857
-1.31881
-1.37769
-1.43571
-1.49339
-1.5513
-1.61
-1.67002
-1.73176
-1.7955
-1.8614
-1.9297
-1.99994
-2.07197
398.233
398.235
385.347
353.834
362.506
351.583
333.729
321.199
325.037
317.734
315.982
320.558
295.161
298.83
314.216
321.125
269.657
285.607
313.601
321.196
244.499
269.367
309.909
321.107
217.588
246.747
303.163
320.839
188.51
217.273
280.16
319.733
156.152
182.892
232.97
308.637
119.744
145.824
185.079
264.287
78.6331
103.704
137.053
193.053
34.4793
54.3564
83.8755
124.449
3.4919
6.00088
24.6804
56.9898
-1.59259
-7.24966
-15.5625
-7.98895
-0.988827
-1.57911
-7.98126
-23.3208
-0.99122
-1.03842
-1.26307
-4.17401
-1.07813
-1.05586
-1.01809
-1.31629
-1.1515
-1.15754
-1.13259
-1.12326
-1.21378
-1.23194
-1.24538
-1.25951
-1.27425
-1.29266
-1.31503
-1.34585
-1.33368
-1.35084
-1.37161
-1.39909
-1.39138
-1.40713
-1.42563
-1.44796
-1.44778
-1.46165
-1.47778
-1.49636
-1.5037
-1.5155
-1.52909
-1.5444
-1.55996
-1.56984
-1.58109
-1.59354
-1.6173
-1.62564
-1.63507
-1.64534
-1.67637
-1.68373
-1.69205
-1.70102
-1.73771
-1.74477
-1.7528
-1.76146
-1.80166
-1.80916
-1.81779
-1.82716
-1.86843
-1.87706
-1.88714
-1.8982
-1.93823
-1.94855
-1.96073
-1.97438
-2.01089
-2.02341
-2.03821
-2.05511
-2.08507
-2.1006
-2.11852
-2.13913
322.735
321.33
321.904
322.011
321.985
321.933
321.871
321.802
321.728
321.649
321.564
321.47
321.364
321.233
321.057
320.792
320.395
319.845
319.203
318.661
318.373
318.326
318.397
318.533
318.693
318.844
318.972
319.085
319.215
319.426
319.739
317.459
338.145
404.076
491.835
593.904
705.782
817.937
921.258
1006.11
320.084
320.882
321.554
321.741
321.781
321.765
321.72
321.66
321.589
321.509
321.421
321.321
321.205
321.063
320.88
320.627
320.278
319.83
319.329
318.896
318.632
318.54
318.559
318.642
318.754
318.863
318.958
319.056
319.2
319.36
316.43
321.904
367.503
434.316
512.305
601.05
696.677
792.59
884.691
960.563
320.975
321.088
321.391
321.553
321.612
321.612
321.579
321.525
321.457
321.377
321.286
321.182
321.061
320.916
320.734
320.498
320.195
319.826
319.428
319.078
318.842
318.731
318.713
318.754
318.821
318.889
318.959
319.056
319.116
316.176
312.046
344.199
398.329
459.971
529.947
608.056
691.047
774.656
858.958
926.145
321.173
321.205
321.346
321.443
321.485
321.483
321.452
321.401
321.334
321.255
321.163
321.058
320.936
320.791
320.615
320.399
320.134
319.827
319.506
319.219
319.012
318.896
318.855
318.864
318.893
318.928
318.98
318.973
316.036
306.171
328.102
374.615
426.28
482.707
545.816
614.923
687.673
761.895
841.334
898.857
321.227
321.252
321.331
321.371
321.386
321.374
321.34
321.289
321.223
321.144
321.053
320.948
320.828
320.687
320.521
320.324
320.094
319.836
319.572
319.334
319.153
319.038
318.982
318.971
318.975
318.977
318.888
315.925
303.183
318.276
359.16
404.817
452.181
503.74
560.35
621.35
685.308
751.767
826.485
876.618
321.247
321.25
321.294
321.304
321.302
321.28
321.242
321.189
321.124
321.046
320.956
320.853
320.736
320.602
320.448
320.271
320.07
319.852
319.632
319.432
319.271
319.156
319.095
319.08
319.06
318.935
315.527
301.145
312.782
350.629
392.557
433.991
477.17
523.596
573.641
626.989
682.881
741.759
808.983
866.964
321.239
321.218
321.234
321.234
321.223
321.196
321.155
321.101
321.035
320.959
320.871
320.772
320.659
320.533
320.391
320.233
320.059
319.873
319.686
319.515
319.369
319.247
319.193
319.179
319.057
314.955
300.441
310.834
347.411
387.902
425.854
463.232
501.75
542.391
585.668
631.619
679.886
731.043
789.035
857.944
321.134
321.183
321.154
321.157
321.146
321.117
321.075
321.02
320.956
320.882
320.798
320.702
320.595
320.477
320.348
320.208
320.056
319.896
319.736
319.585
319.459
319.31
319.228
319.198
314.028
301.594
314.392
349.538
389.393
426.125
460.274
493.117
525.937
560.074
596.354
635.077
676.209
720.544
771.556
837.62
320.72
321.141
321.055
321.071
321.067
321.041
320.999
320.945
320.883
320.813
320.733
320.641
320.54
320.43
320.314
320.191
320.059
319.918
319.784
319.651
319.557
319.446
318.997
312.335
304.906
321.646
356.73
395.615
432.591
466.287
496.527
523.677
549.618
576.533
605.546
637.072
671.308
709.554
756.213
811.54
318.679
320.902
320.961
320.995
320.986
320.964
320.924
320.869
320.811
320.746
320.671
320.584
320.488
320.387
320.285
320.182
320.073
319.946
319.825
319.723
319.54
318.458
310.475
309.854
329.369
364.565
403.386
441.779
477.747
509.131
534.778
554.896
572.678
591.619
613.066
637.306
664.511
696.114
737.12
783.332
280.189
320.095
320.85
320.957
320.929
320.905
320.861
320.794
320.742
320.688
320.62
320.539
320.448
320.356
320.272
320.19
320.094
319.972
319.745
319.349
315.031
309.742
313.505
333.388
367.594
407.23
448.561
489.04
525.656
554.992
575.436
586.988
595.012
605.162
618.811
635.698
655.645
679.819
713.803
751.677
194.637
283.277
320.163
320.659
320.869
320.885
320.833
320.742
320.699
320.659
320.6
320.52
320.427
320.335
320.261
320.11
319.884
318.837
313.061
305.706
302.705
308.573
328.107
360.337
401.433
446.758
493.441
537.857
576.331
604.915
620.878
621.677
616.943
617.078
622.776
632.432
645.059
661.412
687.519
715.74
103.807
178.677
265.631
310.432
320.258
320.423
320.435
320.535
320.551
320.487
320.368
320.227
320.083
319.958
319.84
317.637
307.921
293.883
282.427
279.032
286.559
305.861
337.242
380.353
431.434
485.041
538.307
587.147
629.866
662.893
678.269
663.158
639.389
626.804
624.87
627.878
633.382
641.723
658.986
679.526
22.3672
69.6919
135.281
213.386
273.308
301.039
313.651
319.161
319.324
318.734
317.386
315.243
311.794
305.519
293.641
273.69
251.722
238.509
236.689
245.214
263.914
294.693
339.895
398.918
464.099
525.461
582.686
637.158
694.812
737.249
748.353
708.431
655.394
631.288
624.671
622.499
621.382
621.598
629.207
646.615
-32.3827
-15.9611
19.0351
67.7547
123.843
178.862
220.382
245.128
252.417
254.197
251.638
245.431
235.298
220.06
201.49
186.586
179.568
180.733
188.633
204.937
233.233
277.128
340.542
422.687
504.165
565.299
626.379
703.565
802.509
833.617
789.4
707.782
643.518
626.996
621.98
616.798
609.69
601.756
599.927
610.819
-17.92
-38.5802
-46.917
-33.6707
-6.90156
27.121
60.6011
86.4722
103.569
114.338
119.285
119.66
116.999
112.822
109.91
110.548
114.469
121.283
133.268
155.462
191.889
244.154
315.919
406.031
487.126
552.821
683.296
834.151
900.789
852.338
722.977
617.365
609.638
617.777
617.925
611.314
598.585
582.503
572.483
573.495
-1.99323
-8.63168
-25.2361
-45.0172
-57.6386
-55.7208
-42.5767
-24.6712
-7.79981
5.76453
14.9497
20.4026
24.3512
28.4292
33.523
40.2394
48.3093
57.5606
69.5111
89.5039
119.473
153.618
190.488
230.518
292.766
455.888
716.215
868.143
822.941
661.683
561.753
549.251
588.743
609.506
613.589
606.339
588.995
566.143
549.387
541.425
-1.20982
-1.59049
-2.42196
-8.22033
-19.867
-33.2795
-45.618
-52.5798
-52.4776
-48.6244
-44.0951
-39.8216
-34.7368
-27.8127
-19.023
-8.68428
2.29185
11.657
17.9985
24.3873
32.6005
39.0093
46.1251
57.3485
112.087
317.74
539.353
625.341
541.372
458.637
482.805
535.762
578.397
600.54
607.348
601.657
583.474
556.762
534.561
523.495
-1.25578
-1.2222
-1.40272
-1.83335
-2.27179
-2.94646
-7.46306
-13.3184
-17.9583
-20.6814
-21.8448
-21.0826
-19.0723
-15.6274
-11.355
-6.83338
-2.76392
0.595409
4.04494
5.69045
6.55927
8.99175
17.6153
30.6502
54.3593
131.912
258.177
324.661
358.988
406.487
467.04
521.219
560.891
584.44
594.771
594.926
579.697
548.336
523.387
518.427
-1.37143
-1.37291
-1.39452
-1.33733
-1.46059
-1.73808
-2.16955
-2.15688
-2.05197
-2.01914
-1.97017
-1.90286
-1.77472
-1.56644
-1.30922
-1.03169
-0.635908
0.849178
4.86166
7.05951
7.59795
8.49095
11.4465
16.5083
23.5784
40.9709
111.52
245.529
332.568
380.264
435.561
489.396
530.551
556.233
570.224
577.497
566.168
531.495
518.62
516.556
-1.43202
-1.46516
-1.49887
-1.48885
-1.52574
-1.54715
-1.44843
-1.37181
-1.31071
-1.23904
-1.13505
-1.00164
-0.832237
-0.608655
-0.321848
0.0446355
0.589476
1.65008
3.6209
5.64659
6.98387
8.28108
10.4175
13.2511
15.0151
15.5879
46.0603
176.879
280.97
322.139
378.14
439.054
484.98
513.488
530.305
541.737
542.089
525.26
516.723
516.481
-1.47508
-1.50676
-1.5433
-1.56842
-1.59953
-1.60887
-1.55339
-1.49475
-1.42745
-1.33811
-1.21849
-1.0661
-0.871855
-0.617937
-0.282906
0.168235
0.816247
1.81926
3.28357
4.93495
6.4255
8.00487
10.1404
12.7626
14.7299
15.352
20.8309
68.6767
160.334
222.85
300.852
375.917
426.569
458.306
478.326
491.691
498.482
500.206
512.864
515.749
-1.5179
-1.54239
-1.56954
-1.59307
-1.61648
-1.62952
-1.61382
-1.57413
-1.5107
-1.42186
-1.30231
-1.14653
-0.943705
-0.676838
-0.323122
0.152445
0.811846
1.75293
3.0115
4.42175
5.88471
7.61001
9.91187
12.7573
15.4661
17.2716
19.9174
24.3454
51.917
127.341
255.907
341.069
380.123
403.675
422.854
437.594
448.541
461.573
490.666
508.173
-1.5617
-1.58062
-1.59985
-1.61615
-1.62975
-1.63519
-1.62251
-1.58828
-1.5307
-1.44748
-1.3339
-1.18414
-0.988397
-0.731817
-0.394238
0.0541133
0.657475
1.47566
2.52826
3.74406
5.12067
6.91846
9.45598
12.4876
15.4876
18.1993
20.9636
23.8422
29.8719
100.819
255.846
367.765
384.761
374.832
375.459
384.351
395.614
411.923
435.454
475.283
-1.60731
-1.62195
-1.63593
-1.64714
-1.65446
-1.65388
-1.63961
-1.6086
-1.558
-1.4847
-1.38468
-1.253
-1.08159
-0.85847
-0.567033
-0.184481
0.319888
0.982254
1.81931
2.80648
3.98128
5.6459
8.23944
11.4188
14.7354
18.2321
21.6934
24.3471
30.9
62.3398
224.702
398.685
401.29
360.754
336.313
332.241
339.245
354.631
374.381
419.258
-1.65647
-1.66796
-1.67845
-1.68652
-1.69078
-1.6885
-1.67604
-1.65094
-1.61077
-1.55307
-1.47522
-1.37382
-1.24258
-1.07237
-0.850886
-0.562461
-0.186575
0.298781
0.899519
1.58226
2.35703
3.57831
5.71111
8.81413
12.8704
17.9133
22.5661
24.2968
30.7769
82.1603
263.285
363.2
340.521
309.222
285.997
276.234
279.28
292.773
313.296
351.879
-1.71062
-1.72037
-1.72914
-1.73603
-1.74
-1.73941
-1.73218
-1.71672
-1.69163
-1.65582
-1.60853
-1.54788
-1.4697
-1.3675
-1.23301
-1.05501
-0.818905
-0.509889
-0.135565
0.250247
0.683121
1.6493
2.90256
4.40997
8.80427
18.6336
25.4894
29.0874
43.5607
154.549
277.268
282.414
257.906
240.58
225.998
215.894
216.702
229.039
253.066
290.993
-1.77075
-1.78033
-1.7893
-1.79726
-1.80374
-1.80812
-1.80965
-1.80795
-1.80297
-1.79518
-1.78565
-1.77415
-1.7585
-1.73398
-1.6941
-1.62845
-1.52089
-1.35471
-1.13598
-0.888135
-0.420321
0.739851
1.96562
2.42187
5.78957
19.3764
31.2245
44.4228
79.2439
200.02
245.259
224.246
203.188
185.461
167.184
154.243
153.364
166.149
194.406
234.538
-1.8374
-1.8484
-1.85953
-1.87086
-1.88263
-1.89519
-1.90908
-1.9252
-1.94497
-1.97043
-2.00411
-2.04761
-2.09973
-2.15627
-2.20971
-2.24662
-2.24493
-2.18114
-2.07027
-1.89859
-1.27517
0.440062
3.76617
11.5427
15.058
12.3664
45.5198
93.8289
137.581
197.281
195.783
174.379
150.028
121.084
97.9239
87.186
89.5758
105.818
138.689
178.881
-1.91063
-1.92459
-1.93971
-1.95658
-1.97616
-1.99975
-2.02907
-2.06637
-2.11447
-2.17683
-2.25713
-2.35798
-2.47845
-2.61329
-2.7515
-2.87449
-2.9526
-2.9612
-2.93739
-2.83554
-1.91408
0.361021
10.0783
37.0608
37.9775
18.7226
68.5429
161.389
206.724
163.858
129.664
95.075
57.743
29.985
21.7791
24.4057
29.2775
49.8531
87.6324
128.257
-1.9901
-2.0084
-2.02911
-2.05334
-2.08272
-2.11949
-2.16651
-2.22726
-2.30581
-2.40669
-2.53433
-2.69143
-2.87646
-3.08164
-3.29085
-3.47902
-3.61252
-3.65645
-3.62734
-3.57764
-2.20601
2.11514
26.4839
50.9585
46.9182
38.4009
81.8474
165.523
135.49
60.5921
33.2164
13.6657
0.816357
-1.11629
-1.31752
-1.57775
-6.68595
4.34858
43.6106
84.1559
-2.07499
-2.09871
-2.12622
-2.15911
-2.19967
-2.25102
-2.31708
-2.40239
-2.51195
-2.65091
-2.82381
-3.03286
-3.27519
-3.5396
-3.80378
-4.03836
-4.20896
-4.22204
-3.90514
-3.46753
-3.88822
10.7795
36.5451
45.8443
45.6407
51.4235
72.5034
74.7231
23.2299
0.0917279
-1.66329
-1.77673
-1.9255
-2.01321
-1.96867
-2.21524
-5.98093
-17.5386
9.16183
45.9209
-2.16367
-2.19345
-2.22852
-2.27092
-2.32353
-2.39023
-2.47579
-2.58559
-2.72515
-2.89975
-3.11353
-3.36769
-3.65769
-3.96967
-4.27815
-4.55782
-4.78946
-4.79563
-4.03092
-3.51111
0.659452
17.5534
31.456
35.5438
40.771
50.1475
39.4404
6.36672
-0.48147
-1.76666
-2.12605
-2.21275
-2.18485
-2.12042
-2.08162
-2.08418
-2.51686
-15.9149
-12.9077
18.1848
)
;

boundaryField
{
    leftWall
    {
        type            calculated;
        value           nonuniform 0();
    }
    rightWall
    {
        type            calculated;
        value           nonuniform List<scalar> 
43
(
3130.14
2939.6
2652.57
2308.8
1971.39
1680.31
1449.02
1277.27
1153.88
1067.7
1006.11
960.563
926.145
898.857
876.618
866.964
857.944
837.62
811.54
783.332
751.677
715.74
679.526
646.615
610.819
573.495
541.425
523.495
518.427
516.556
516.481
515.749
508.173
475.283
419.258
351.879
290.993
234.538
178.881
128.257
84.1559
45.9209
18.1848
)
;
    }
    lowerWall
    {
        type            calculated;
        value           nonuniform List<scalar> 
66
(
857.732
861.744
838.21
786.964
737.516
691.534
649.83
611.776
576.03
540.863
505.081
478.295
422.198
422.201
409.312
375.307
322.928
322.878
322.836
322.801
322.771
322.739
322.697
322.634
322.413
320.925
322.952
322.938
322.917
322.898
322.88
322.86
322.839
322.815
322.786
322.751
322.709
322.657
322.596
322.519
322.414
322.269
322.096
321.964
322.02
322.157
321.896
320.98
320.134
319.876
319.276
319.68
322.167
329.348
343.059
369.489
377.137
375.107
382.972
410.867
529.484
1062.77
2127.44
3089.23
3367.61
3151.61
)
;
    }
    atmosphere
    {
        type            calculated;
        value           nonuniform 0();
    }
    defaultFaces
    {
        type            empty;
    }
    procBoundary1to0
    {
        type            processor;
        value           nonuniform List<scalar> 
44
(
826.257
775.842
728.573
683.709
639.759
597.276
556.059
515.775
475.952
436.702
396.716
357.363
318.729
280.859
243.739
207.132
170.71
134.248
97.9542
62.7123
43.0787
43.0787
13.1081
-0.0502289
-0.842948
-0.927036
-0.995663
-1.05973
-1.12193
-1.18401
-1.24558
-1.30626
-1.36614
-1.42549
-1.48466
-1.54404
-1.60404
-1.66504
-1.72734
-1.79111
-1.85644
-1.9232
-1.99197
-2.06349
)
;
    }
    procBoundary1to3
    {
        type            processor;
        value           nonuniform List<scalar> 
45
(
-2.14717
-2.16096
-2.17891
-2.20047
-2.22484
-2.2541
-2.29006
-2.33298
-2.38531
-2.45042
-2.53267
-2.63736
-2.77024
-2.93706
-3.14288
-3.39097
-3.68106
-4.00704
-4.35468
-4.70187
-5.0394
-5.40706
-5.65471
-4.45214
-4.9033
3.77045
17.581
22.3687
25.8094
29.5892
25.7991
4.69553
-2.33033
-2.35037
-2.21086
-2.21275
-2.22945
-2.20809
-2.18018
-2.15602
-2.08735
-2.32826
-10.6204
-23.5571
1.33975
)
;
    }
}


// ************************************************************************* //
