/*--------------------------------*- C++ -*----------------------------------*\
| =========                 |                                                 |
| \\      /  F ield         | OpenFOAM: The Open Source CFD Toolbox           |
|  \\    /   O peration     | Version:  5.0                                   |
|   \\  /    A nd           | Web:      www.OpenFOAM.org                      |
|    \\/     M anipulation  |                                                 |
\*---------------------------------------------------------------------------*/
FoamFile
{
    version     2.0;
    format      ascii;
    class       surfaceScalarField;
    location    "0.65";
    object      phi;
}
// * * * * * * * * * * * * * * * * * * * * * * * * * * * * * * * * * * * * * //

dimensions      [0 3 -1 0 0 0 0];

internalField   nonuniform List<scalar> 
3731
(
-5.45455e-06
-3.96737e-06
-5.45455e-06
-4.54681e-06
-5.38987e-06
-1.00014e-05
-2.40419e-06
-5.50522e-06
-1.24055e-05
-2.76775e-07
-5.1763e-06
-1.26823e-05
1.05966e-06
-4.29445e-06
-1.16227e-05
1.95865e-06
-3.06814e-06
-9.66401e-06
2.63122e-06
-1.60853e-06
-7.03279e-06
3.3023e-06
-5.29038e-08
-3.73049e-06
4.17801e-06
1.41183e-06
4.47521e-07
5.11464e-06
2.70208e-06
5.56216e-06
7.79269e-06
-7.79269e-06
1.1552e-05
-3.75929e-06
1.17909e-05
-2.38907e-07
9.60625e-06
2.18474e-06
5.96378e-06
3.64248e-06
9.49197e-07
5.0146e-06
-5.54397e-06
6.49319e-06
-1.34236e-05
7.87964e-06
-2.24315e-05
9.00796e-06
-3.21864e-05
9.75489e-06
-4.22193e-05
1.0033e-05
-5.1948e-05
9.72874e-06
-6.04901e-05
8.54216e-06
-6.6611e-05
6.12091e-06
-6.96171e-05
3.00614e-06
-7.09127e-05
1.2956e-06
-7.46135e-05
3.7007e-06
-8.61311e-05
1.15177e-05
-0.000107977
2.18458e-05
-0.000134123
2.61458e-05
-0.000157447
2.33242e-05
-0.000179072
2.16254e-05
-0.000203013
2.39404e-05
-0.000218137
1.51239e-05
-0.00022412
5.98298e-06
-0.000225877
1.75689e-06
-0.00022545
-4.26599e-07
-0.000209479
-1.59713e-05
-0.000198487
-1.09916e-05
-0.000192709
-5.77753e-06
-0.000188831
-3.87895e-06
-0.000186494
-2.33696e-06
-0.000186163
-3.3096e-07
-0.000184787
-1.37566e-06
-0.000177506
-7.28079e-06
-0.000157521
-1.99852e-05
-0.00011838
-3.91414e-05
-6.63273e-05
-5.20524e-05
-1.80258e-05
-4.83015e-05
-1.80258e-05
4.29905e-06
-1.20917e-05
4.10325e-06
-3.56341e-06
1.75761e-06
2.10677e-06
-2.33291e-06
6.27529e-06
-8.47788e-06
9.78748e-06
-1.65922e-05
1.3129e-05
-2.63529e-05
1.62539e-05
-3.73256e-05
1.88524e-05
-4.8985e-05
2.06674e-05
-6.07611e-05
2.15311e-05
-7.20171e-05
2.1289e-05
-8.19334e-05
1.9645e-05
-8.95637e-05
1.61726e-05
-9.46892e-05
1.12463e-05
-9.95045e-05
7.8215e-06
-0.000108848
1.06393e-05
-0.000126799
2.16511e-05
-0.000151792
3.65111e-05
-0.00017621
4.62634e-05
-0.000197024
4.69606e-05
-0.000214589
4.08892e-05
-0.000224425
3.14611e-05
-0.000220318
1.98339e-05
-0.000211484
6.28946e-06
-0.000208587
3.08632e-06
-0.00020826
1.42981e-06
-0.00020595
-2.73656e-06
-0.000205418
-1.65039e-05
-0.000199779
-1.66299e-05
-0.000190654
-1.49029e-05
-0.000183134
-1.13988e-05
-0.000178438
-7.03321e-06
-0.00017382
-4.94892e-06
-0.000165644
-9.55208e-06
-0.000155583
-1.73411e-05
-0.000134392
-4.11763e-05
-0.000102535
-7.09984e-05
-6.74254e-05
-8.71621e-05
-3.12409e-05
-8.4486e-05
-4.92667e-05
-4.35816e-07
-1.16559e-05
-2.65347e-06
-1.34568e-06
-6.70038e-06
6.1537e-06
-1.25804e-05
1.21553e-05
-2.02098e-05
1.74169e-05
-2.92281e-05
2.21473e-05
-3.9135e-05
2.61609e-05
-4.94512e-05
2.91685e-05
-5.97809e-05
3.09972e-05
-6.98325e-05
3.15826e-05
-7.93711e-05
3.08277e-05
-8.81753e-05
2.84492e-05
-9.62408e-05
2.42382e-05
-0.000104474
1.94792e-05
-0.000115396
1.8744e-05
-0.000132182
2.74253e-05
-0.00015321
4.26785e-05
-0.000172747
5.60483e-05
-0.000189049
6.2566e-05
-0.000202367
6.02785e-05
-0.000211037
4.95588e-05
-0.000211631
3.2055e-05
-0.000205055
1.32586e-05
-0.000200253
1.48674e-06
-0.000198
8.33806e-07
-0.000197587
1.01694e-06
-0.000195291
-5.03263e-06
-0.000192669
-1.9126e-05
-0.000183617
-2.56823e-05
-0.000174266
-2.42539e-05
-0.000167877
-1.77876e-05
-0.000163904
-1.10064e-05
-0.000157315
-1.15371e-05
-0.000144853
-2.20146e-05
-0.000127988
-3.42063e-05
-9.99098e-05
-6.92543e-05
-7.34101e-05
-9.74981e-05
-5.21129e-05
-0.000108459
-2.92742e-05
-0.000107325
-7.85409e-05
-3.29291e-06
-8.36293e-06
-7.12758e-06
2.48906e-06
-1.23179e-05
1.1344e-05
-1.91112e-05
1.89487e-05
-2.71561e-05
2.54619e-05
-3.59013e-05
3.08925e-05
-4.48477e-05
3.51073e-05
-5.36644e-05
3.79853e-05
-6.22084e-05
3.95413e-05
-7.05058e-05
3.98801e-05
-7.8725e-05
3.90468e-05
-8.72117e-05
3.6936e-05
-9.66656e-05
3.3692e-05
-0.000108271
3.10849e-05
-0.000123633
3.4106e-05
-0.000142756
4.6548e-05
-0.000159896
5.98186e-05
-0.000173022
6.91742e-05
-0.000182725
7.22694e-05
-0.00018934
6.68926e-05
-0.000191992
5.22116e-05
-0.000190327
3.03896e-05
-0.00018581
8.74119e-06
-0.00018116
-3.16308e-06
-0.000175635
-4.69052e-06
-0.000169229
-5.3899e-06
-0.000161869
-1.23926e-05
-0.000156903
-2.40911e-05
-0.000152255
-3.03313e-05
-0.000147893
-2.86157e-05
-0.000144039
-2.16411e-05
-0.000138972
-1.60734e-05
-0.000127751
-2.27587e-05
-0.000109009
-4.07563e-05
-8.55022e-05
-5.77133e-05
-5.96853e-05
-9.50712e-05
-4.36635e-05
-0.00011352
-3.35259e-05
-0.000118597
-2.1666e-05
-0.000119185
-0.000100207
-4.88562e-06
-3.4773e-06
-9.28516e-06
6.88864e-06
-1.49235e-05
1.69823e-05
-2.20216e-05
2.60469e-05
-2.99361e-05
3.33764e-05
-3.80346e-05
3.8991e-05
-4.59138e-05
4.29865e-05
-5.34206e-05
4.54922e-05
-6.06058e-05
4.67264e-05
-6.76807e-05
4.6955e-05
-7.50261e-05
4.63922e-05
-8.32874e-05
4.51973e-05
-9.34971e-05
4.39018e-05
-0.000106831
4.44192e-05
-0.000123558
5.08329e-05
-0.000140642
6.36316e-05
-0.000153278
7.2455e-05
-0.000161947
7.78425e-05
-0.00016672
7.70427e-05
-0.000167712
6.78846e-05
-0.000165522
5.0022e-05
-0.00016127
2.61376e-05
-0.000155526
2.99681e-06
-0.000147779
-1.09098e-05
-0.000137532
-1.49372e-05
-0.000126891
-1.60319e-05
-0.00011904
-2.02434e-05
-0.000115715
-2.74161e-05
-0.000114332
-3.17136e-05
-0.000112497
-3.04516e-05
-0.00010864
-2.54977e-05
-0.000100387
-2.4326e-05
-8.49874e-05
-3.81586e-05
-6.57531e-05
-5.99906e-05
-4.02785e-05
-8.31878e-05
-2.77319e-05
-0.000107618
-2.24296e-05
-0.000118822
-1.8826e-05
-0.0001222
-1.38549e-05
-0.000124156
-0.000114062
-5.39536e-06
1.91807e-06
-9.20751e-06
1.07009e-05
-1.47598e-05
2.25346e-05
-2.19602e-05
3.32473e-05
-2.96741e-05
4.10904e-05
-3.71989e-05
4.65158e-05
-4.42475e-05
5.00352e-05
-5.08088e-05
5.20536e-05
-5.704e-05
5.29576e-05
-6.32161e-05
5.31312e-05
-6.97597e-05
5.29359e-05
-7.73429e-05
5.27804e-05
-8.69713e-05
5.35303e-05
-9.96709e-05
5.71188e-05
-0.000114807
6.5969e-05
-0.000128454
7.72788e-05
-0.000137936
8.19373e-05
-0.000143431
8.33374e-05
-0.000144901
7.85119e-05
-0.000141962
6.49458e-05
-0.000135842
4.39021e-05
-0.000129081
1.93767e-05
-0.000122113
-3.97116e-06
-0.000113889
-1.91337e-05
-0.000103857
-2.49693e-05
-9.34954e-05
-2.63933e-05
-8.54609e-05
-2.82779e-05
-8.13494e-05
-3.15275e-05
-7.95353e-05
-3.35277e-05
-7.72838e-05
-3.27032e-05
-7.18732e-05
-3.09083e-05
-6.03321e-05
-3.58672e-05
-4.24372e-05
-5.60535e-05
-2.76411e-05
-7.47867e-05
-1.26633e-05
-9.81656e-05
-9.3183e-06
-0.000110963
-9.12951e-06
-0.000119011
-8.59829e-06
-0.000122732
-7.33683e-06
-0.000125417
-0.000121399
-5.32004e-06
7.23811e-06
-6.90514e-06
1.2286e-05
-1.20651e-05
2.76947e-05
-1.96254e-05
4.08076e-05
-2.73807e-05
4.88457e-05
-3.45577e-05
5.36929e-05
-4.1026e-05
5.65034e-05
-4.68995e-05
5.79271e-05
-5.23916e-05
5.84496e-05
-5.77709e-05
5.85105e-05
-6.33914e-05
5.85565e-05
-6.97515e-05
5.91405e-05
-7.74904e-05
6.12693e-05
-8.71631e-05
6.67915e-05
-9.82893e-05
7.70953e-05
-0.000108511
8.75008e-05
-0.000116045
8.94711e-05
-0.000119317
8.66092e-05
-0.000118603
7.7798e-05
-0.000113821
6.01641e-05
-0.000105033
3.51141e-05
-9.59006e-05
1.0244e-05
-8.79528e-05
-1.19189e-05
-8.04757e-05
-2.6611e-05
-7.24292e-05
-3.30157e-05
-6.41727e-05
-3.46498e-05
-5.72977e-05
-3.51529e-05
-5.29268e-05
-3.58985e-05
-5.01568e-05
-3.62977e-05
-4.66334e-05
-3.62265e-05
-3.94556e-05
-3.80862e-05
-2.67436e-05
-4.85791e-05
-1.35229e-05
-6.92742e-05
-2.39313e-07
-8.80703e-05
1.85419e-06
-0.000100259
1.13975e-06
-0.000110248
-5.77698e-07
-0.000117293
-1.69781e-06
-0.000121612
-2.27396e-06
-0.000124841
-0.000123673
-4.58958e-06
1.18277e-05
-1.95846e-06
9.65502e-06
-6.78035e-06
3.25166e-05
-1.56297e-05
4.96571e-05
-2.38506e-05
5.70666e-05
-3.08902e-05
6.07325e-05
-3.69233e-05
6.25365e-05
-4.2221e-05
6.32249e-05
-4.70412e-05
6.32698e-05
-5.1619e-05
6.30884e-05
-5.61947e-05
6.31321e-05
-6.10336e-05
6.39794e-05
-6.6326e-05
6.65617e-05
-7.19638e-05
7.24293e-05
-7.74743e-05
8.26058e-05
-8.30715e-05
9.3098e-05
-8.86887e-05
9.50883e-05
-9.06351e-05
8.85556e-05
-8.81721e-05
7.53349e-05
-8.15557e-05
5.35476e-05
-7.14498e-05
2.50083e-05
-6.16644e-05
4.58565e-07
-5.44525e-05
-1.91308e-05
-4.89191e-05
-3.21445e-05
-4.35511e-05
-3.83837e-05
-3.79941e-05
-4.02068e-05
-3.30167e-05
-4.01304e-05
-2.9284e-05
-3.96311e-05
-2.61558e-05
-3.94259e-05
-2.15818e-05
-4.08006e-05
-1.29868e-05
-4.66812e-05
-1.44361e-07
-6.14215e-05
8.61353e-06
-7.80321e-05
1.034e-05
-8.97968e-05
9.72465e-06
-9.96437e-05
7.65744e-06
-0.000108181
5.1104e-06
-0.000114746
2.91697e-06
-0.000119418
9.45819e-07
-0.00012287
-0.000122727
6.50889e-06
5.31886e-06
1.26811e-05
3.4829e-06
1.3053e-06
4.38925e-05
-1.07332e-05
6.16956e-05
-1.97961e-05
6.61296e-05
-2.6751e-05
6.76875e-05
-3.23446e-05
6.81301e-05
-3.70546e-05
6.79348e-05
-4.11827e-05
6.73979e-05
-4.49252e-05
6.6831e-05
-4.84118e-05
6.66187e-05
-5.17034e-05
6.7271e-05
-5.4671e-05
6.95293e-05
-5.67232e-05
7.44816e-05
-5.69722e-05
8.28547e-05
-5.60495e-05
9.21753e-05
-5.68014e-05
9.58403e-05
-5.72007e-05
8.89548e-05
-5.30351e-05
7.11693e-05
-4.42607e-05
4.47732e-05
-3.5162e-05
1.59096e-05
-2.83134e-05
-6.39003e-06
-2.39685e-05
-2.34756e-05
-2.11686e-05
-3.49445e-05
-1.84728e-05
-4.10796e-05
-1.54402e-05
-4.32395e-05
-1.2459e-05
-4.31115e-05
-9.85047e-06
-4.22396e-05
-6.94856e-06
-4.23278e-05
-1.81962e-06
-4.59295e-05
7.22637e-06
-5.57272e-05
1.44912e-05
-6.86863e-05
1.67278e-05
-8.02687e-05
1.62626e-05
-8.93315e-05
1.45997e-05
-9.79808e-05
1.19997e-05
-0.000105581
8.99349e-06
-0.00011174
6.00367e-06
-0.000116428
2.94908e-06
-0.000119815
-0.000119778
2.65606e-05
-2.12418e-05
2.71737e-05
2.86987e-06
8.06266e-06
6.30035e-05
-6.76573e-06
7.6524e-05
-1.60977e-05
7.54615e-05
-2.26034e-05
7.41932e-05
-2.75596e-05
7.30864e-05
-3.15704e-05
7.19457e-05
-3.49399e-05
7.07674e-05
-3.78157e-05
6.97068e-05
-4.02391e-05
6.90421e-05
-4.21331e-05
6.91649e-05
-4.32024e-05
7.05987e-05
-4.27063e-05
7.39855e-05
-3.95014e-05
7.96498e-05
-3.33616e-05
8.60356e-05
-2.62092e-05
8.86879e-05
-1.95725e-05
8.23182e-05
-1.28368e-05
6.44336e-05
-6.4854e-06
3.84218e-05
-2.4749e-06
1.18992e-05
-1.21544e-07
-8.74346e-06
8.50816e-07
-2.44479e-05
1.26254e-06
-3.53562e-05
1.89899e-06
-4.17159e-05
2.96205e-06
-4.43025e-05
4.19726e-06
-4.43468e-05
5.59742e-06
-4.36397e-05
8.06099e-06
-4.47912e-05
1.30364e-05
-5.0905e-05
1.85652e-05
-6.12559e-05
2.1522e-05
-7.16432e-05
2.11658e-05
-7.99124e-05
1.99762e-05
-8.81419e-05
1.78523e-05
-9.5857e-05
1.49555e-05
-0.000102684
1.16142e-05
-0.000108399
8.05099e-06
-0.000112865
4.22766e-06
-0.000115992
-0.00011555
7.99027e-06
2.10795e-06
1.96221e-06
1.15902e-05
8.76258e-06
1.26982e-06
-3.39983e-08
1.07588e-05
8.77426e-06
5.32325e-07
-1.16758e-06
9.90784e-06
8.31409e-06
6.07836e-08
-1.58061e-06
8.72713e-06
7.64305e-06
-1.02457e-07
-1.42062e-06
7.48306e-06
6.98554e-06
5.66389e-10
-8.54677e-07
6.4196e-06
6.49109e-06
2.88703e-07
-5.10612e-08
5.68747e-06
6.23431e-06
6.70276e-07
8.42512e-07
5.34074e-06
6.22154e-06
1.05697e-06
1.68715e-06
5.37689e-06
6.37661e-06
2.37691e-06
5.68686e-06
2.81447e-06
6.09712e-06
2.95525e-06
6.34375e-06
2.71603e-06
6.22261e-06
2.91496e-06
5.53825e-06
5.15752e-06
6.37545e-06
6.44125e-06
1.00996e-05
7.31782e-06
1.22575e-05
7.98695e-06
1.31954e-05
8.57716e-06
1.31417e-05
9.2506e-06
1.22066e-05
1.01357e-05
1.0568e-05
1.13146e-05
8.41511e-06
1.28292e-05
5.92619e-06
1.46882e-05
3.26261e-06
1.68735e-05
5.65945e-07
1.93475e-05
-2.04346e-06
2.20582e-05
-4.46607e-06
2.49439e-05
-6.62234e-06
2.79378e-05
-8.45149e-06
3.09712e-05
-9.90961e-06
3.39772e-05
-1.09683e-05
3.68843e-05
-1.16123e-05
-1.18399e-05
1.28633e-05
-1.27312e-06
1.68428e-05
-3.97945e-06
2.23971e-05
-5.55433e-06
-6.81495e-06
2.92121e-05
1.24743e-05
-2.98867e-06
1.45269e-05
-6.03201e-06
1.72107e-05
-8.23817e-06
-7.23584e-06
1.76316e-05
1.0632e-05
-3.71282e-06
1.09471e-05
-6.34713e-06
1.05883e-05
-7.87938e-06
-4.79528e-06
8.14777e-06
8.57295e-06
-3.55865e-06
7.66636e-06
-5.44054e-06
5.53253e-06
-5.74555e-06
-2.0643e-06
2.80156e-06
6.65632e-06
-2.73191e-06
4.89653e-06
-3.68075e-06
2.13765e-06
-2.98667e-06
-2.04784e-07
2.7814e-07
5.16096e-06
-1.47326e-06
2.98162e-06
-1.50141e-06
7.21752e-08
-7.72252e-08
1.90577e-06
-2.03837e-06
4.23498e-06
-2.07714e-08
1.91035e-06
8.23225e-07
-1.27876e-06
3.11188e-06
5.34762e-06
-4.72061e-06
3.86984e-06
1.45013e-06
1.73168e-06
2.96138e-06
-1.04047e-06
5.88404e-06
9.5514e-06
-5.24426e-06
4.05119e-06
2.77583e-06
2.26114e-06
4.75143e-06
2.36441e-07
7.90873e-06
1.25714e-05
-2.78358e-06
4.61365e-06
3.84904e-06
3.1666e-06
6.19848e-06
1.5024e-06
9.57293e-06
1.42023e-05
-1.28451e-07
5.36095e-06
4.58521e-06
4.33038e-06
7.22905e-06
3.18777e-06
1.07155e-05
1.51663e-05
2.22375e-06
6.05889e-06
4.87007e-06
5.54499e-06
7.74295e-06
4.95913e-06
1.13014e-05
1.55949e-05
4.5305e-06
6.45725e-06
4.63544e-06
6.5227e-06
7.67749e-06
6.58332e-06
1.12408e-05
1.54398e-05
6.73848e-06
6.31705e-06
3.85663e-06
7.17882e-06
6.81573e-06
7.87544e-06
1.05442e-05
1.46691e-05
8.64612e-06
5.17016e-06
5.06194e-06
7.09756e-06
4.88832e-06
8.72416e-06
8.91756e-06
1.31429e-05
1.02503e-05
9.25823e-06
5.90329e-06
8.10131e-06
6.04524e-06
8.0695e-06
8.94936e-06
1.01292e-05
1.10832e-05
1.13047e-05
6.85615e-06
1.01482e-05
7.20165e-06
1.04678e-05
8.62982e-06
1.05116e-05
1.00853e-05
1.252e-05
7.53161e-06
1.19208e-05
7.8008e-06
1.19638e-05
8.58679e-06
9.34221e-06
1.31333e-05
1.26113e-05
8.06202e-06
1.22108e-05
8.20137e-06
1.22168e-05
8.58082e-06
8.93342e-06
1.26256e-05
1.16012e-05
8.66748e-06
1.11081e-05
8.69442e-06
1.08455e-05
8.84344e-06
9.03119e-06
1.07478e-05
9.71344e-06
9.52205e-06
8.89552e-06
9.51236e-06
8.17323e-06
9.56574e-06
9.67048e-06
7.53393e-06
7.21012e-06
1.0727e-05
5.94376e-06
1.07787e-05
4.64257e-06
1.08669e-05
1.10016e-05
3.31148e-06
4.32526e-06
1.23279e-05
2.56523e-06
1.25387e-05
6.49934e-07
1.27822e-05
1.30768e-05
-1.42527e-06
1.26145e-06
1.43291e-05
-9.87269e-07
1.47875e-05
-3.49559e-06
1.52906e-05
1.58611e-05
-6.27984e-06
-1.80961e-06
1.67047e-05
-4.50718e-06
1.74851e-05
-7.54923e-06
1.83326e-05
1.92724e-05
-1.09606e-05
-4.74545e-06
1.94066e-05
-7.82814e-06
2.05678e-05
-1.13201e-05
2.18246e-05
2.3203e-05
-1.52507e-05
-7.43177e-06
2.23723e-05
-1.08208e-05
2.39568e-05
-1.46643e-05
2.56681e-05
2.75319e-05
-1.89932e-05
-9.78014e-06
2.55301e-05
-1.33885e-05
2.75651e-05
-1.74786e-05
2.97582e-05
3.21338e-05
-2.20806e-05
-1.17254e-05
2.8804e-05
-1.54628e-05
3.13025e-05
-1.96934e-05
3.39888e-05
3.68852e-05
-2.44448e-05
-1.32229e-05
3.21173e-05
-1.69997e-05
3.50793e-05
-2.12671e-05
3.82563e-05
4.16673e-05
-2.60492e-05
-1.42457e-05
3.53947e-05
-1.79754e-05
3.8809e-05
-2.21812e-05
4.2462e-05
4.63689e-05
-2.68827e-05
-1.47822e-05
3.85646e-05
-1.83834e-05
4.24102e-05
-2.24357e-05
4.65144e-05
5.08876e-05
-2.69544e-05
-1.48371e-05
-1.82329e-05
-2.20477e-05
-2.62903e-05
2.97101e-05
-2.17398e-05
1.52504e-05
1.73296e-05
3.28025e-06
7.49736e-05
-6.56671e-06
8.63709e-05
-1.3795e-05
8.26899e-05
-1.90672e-05
7.94654e-05
-2.30914e-05
7.71106e-05
-2.62825e-05
7.51368e-05
-2.88492e-05
7.33341e-05
-3.08681e-05
7.17257e-05
-3.23104e-05
7.04843e-05
-3.30235e-05
6.98781e-05
-3.26564e-05
7.02316e-05
-3.05202e-05
7.18493e-05
-2.55885e-05
7.47182e-05
-1.7258e-05
7.7705e-05
-6.45245e-06
7.78823e-05
4.57263e-06
7.12931e-05
1.34383e-05
5.5568e-05
1.85751e-05
3.32849e-05
2.01178e-05
1.03566e-05
2.0188e-05
-8.81367e-06
1.94755e-05
-2.37355e-05
1.85883e-05
-3.4469e-05
1.79564e-05
-4.1084e-05
1.75765e-05
-4.39226e-05
1.73222e-05
-4.40926e-05
1.76309e-05
-4.39485e-05
1.97009e-05
-4.68613e-05
2.31879e-05
-5.43918e-05
2.5615e-05
-6.3683e-05
2.53546e-05
-7.13828e-05
2.45319e-05
-7.90898e-05
2.29077e-05
-8.65176e-05
2.04381e-05
-9.33874e-05
1.72713e-05
-9.95176e-05
1.35963e-05
-0.000104724
9.54055e-06
-0.000108809
5.08719e-06
-0.000111539
-0.000110463
1.25665e-05
-1.66747e-05
2.28379e-06
2.76124e-05
-4.27154e-06
8.15289e-05
-8.28462e-06
9.0384e-05
-1.21476e-05
8.65529e-05
-1.54751e-05
8.2793e-05
-1.81904e-05
7.98259e-05
-2.03491e-05
7.72956e-05
-2.19911e-05
7.49761e-05
-2.31023e-05
7.28368e-05
-2.35983e-05
7.09803e-05
-2.32967e-05
6.95766e-05
-2.1867e-05
6.88019e-05
-1.87624e-05
6.87447e-05
-1.3249e-05
6.92048e-05
-4.82382e-06
6.92798e-05
6.01951e-06
6.70389e-05
1.73665e-05
5.99461e-05
2.65242e-05
4.64102e-05
3.18234e-05
2.79856e-05
3.36477e-05
8.53234e-06
3.36159e-05
-8.78189e-06
3.26826e-05
-2.28023e-05
3.1391e-05
-3.31774e-05
2.99838e-05
-3.96768e-05
2.8374e-05
-4.23129e-05
2.67054e-05
-4.24239e-05
2.60108e-05
-4.32539e-05
2.70492e-05
-4.78997e-05
2.86921e-05
-5.60347e-05
2.85369e-05
-6.35277e-05
2.80055e-05
-7.08514e-05
2.68347e-05
-7.7919e-05
2.48806e-05
-8.45635e-05
2.21689e-05
-9.06757e-05
1.87964e-05
-9.61452e-05
1.48684e-05
-0.000100796
1.0463e-05
-0.000104404
5.58046e-06
-0.000106656
-0.000104882
-3.47555e-07
-8.17938e-06
-1.09138e-05
3.81786e-05
-1.04936e-05
8.11087e-05
-9.59163e-06
8.9482e-05
-1.03592e-05
8.73204e-05
-1.16841e-05
8.41179e-05
-1.29886e-05
8.11304e-05
-1.40367e-05
7.83436e-05
-1.47124e-05
7.56519e-05
-1.49216e-05
7.30461e-05
-1.45427e-05
7.06014e-05
-1.33914e-05
6.84252e-05
-1.11876e-05
6.65982e-05
-7.5328e-06
6.50899e-05
-1.95682e-06
6.36288e-05
5.82009e-06
6.15029e-05
1.54196e-05
5.74394e-05
2.54736e-05
4.98922e-05
3.39423e-05
3.79416e-05
3.94338e-05
2.24941e-05
4.20235e-05
5.94276e-06
4.26361e-05
-9.39435e-06
4.19875e-05
-2.21535e-05
4.04926e-05
-3.16825e-05
3.82913e-05
-3.74755e-05
3.53032e-05
-3.93248e-05
3.21872e-05
-3.93078e-05
3.05517e-05
-4.16184e-05
3.10937e-05
-4.84417e-05
3.10706e-05
-5.60117e-05
3.07559e-05
-6.3213e-05
2.9951e-05
-7.00465e-05
2.84706e-05
-7.64387e-05
2.62646e-05
-8.23575e-05
2.33653e-05
-8.77763e-05
1.9823e-05
-9.26028e-05
1.56935e-05
-9.66664e-05
1.10222e-05
-9.97326e-05
5.8123e-06
-0.000101446
-9.907e-05
-8.80187e-06
3.42408e-06
-1.51341e-05
4.45108e-05
-1.19645e-05
7.79391e-05
-8.82672e-06
8.63443e-05
-7.58905e-06
8.60828e-05
-7.30772e-06
8.38366e-05
-7.32844e-06
8.11511e-05
-7.30078e-06
7.8316e-05
-7.028e-06
7.53791e-05
-6.37229e-06
7.23904e-05
-5.19872e-06
6.94278e-05
-3.33851e-06
6.6565e-05
-5.67094e-07
6.38268e-05
3.39408e-06
6.11287e-05
8.81946e-06
5.82034e-05
1.58128e-05
5.45096e-05
2.40445e-05
4.92078e-05
3.25644e-05
4.13723e-05
3.99941e-05
3.05119e-05
4.52835e-05
1.72047e-05
4.82346e-05
2.99168e-06
4.91978e-05
-1.03576e-05
4.84844e-05
-2.14401e-05
4.63672e-05
-2.95654e-05
4.29098e-05
-3.4018e-05
3.81758e-05
-3.45908e-05
3.39589e-05
-3.5091e-05
3.31486e-05
-4.08081e-05
3.31919e-05
-4.8485e-05
3.29976e-05
-5.58174e-05
3.24453e-05
-6.26607e-05
3.13432e-05
-6.89444e-05
2.96e-05
-7.46954e-05
2.7202e-05
-7.99595e-05
2.41573e-05
-8.47316e-05
2.04857e-05
-8.89313e-05
1.62094e-05
-9.23902e-05
1.1337e-05
-9.48602e-05
5.83568e-06
-9.59449e-05
-9.32343e-05
-9.12333e-06
1.28256e-05
-1.27306e-05
4.81181e-05
-9.27166e-06
7.44802e-05
-5.74215e-06
8.28148e-05
-3.53109e-06
8.38718e-05
-2.15111e-06
8.24566e-05
-1.12028e-06
8.01203e-05
-1.23884e-07
7.73196e-05
1.03356e-06
7.42217e-05
2.49041e-06
7.09336e-05
4.37014e-06
6.75481e-05
6.81249e-06
6.41227e-05
9.98758e-06
6.06518e-05
1.40859e-05
5.70304e-05
1.92629e-05
5.30263e-05
2.55232e-05
4.82493e-05
3.25694e-05
4.21616e-05
3.97172e-05
3.42245e-05
4.60271e-05
2.42019e-05
5.06985e-05
1.25333e-05
5.33645e-05
3.25631e-07
5.39378e-05
-1.0931e-05
5.23356e-05
-1.98379e-05
4.88428e-05
-2.60725e-05
4.34176e-05
-2.85928e-05
3.72398e-05
-2.84131e-05
3.49961e-05
-3.28472e-05
3.50359e-05
-4.0848e-05
3.49295e-05
-4.83785e-05
3.45173e-05
-5.54052e-05
3.36634e-05
-6.18068e-05
3.22837e-05
-6.75646e-05
3.03346e-05
-7.27464e-05
2.779e-05
-7.74149e-05
2.46396e-05
-8.15812e-05
2.08857e-05
-8.51774e-05
1.65292e-05
-8.80337e-05
1.15444e-05
-8.98754e-05
5.8611e-06
-9.02615e-05
-8.73732e-05
-7.12476e-06
1.79119e-05
-7.77306e-06
4.87664e-05
-4.43134e-06
7.11386e-05
-1.00855e-06
7.93921e-05
1.64159e-06
8.12217e-05
3.75245e-06
8.03458e-05
5.61906e-06
7.82537e-05
7.4538e-06
7.54849e-05
9.40367e-06
7.22718e-05
1.15748e-05
6.87625e-05
1.40578e-05
6.50652e-05
1.69535e-05
6.1227e-05
2.03847e-05
5.72205e-05
2.44825e-05
5.29327e-05
2.9335e-05
4.81739e-05
3.48965e-05
4.26879e-05
4.08943e-05
3.61636e-05
4.67937e-05
2.83251e-05
5.18929e-05
1.91026e-05
5.55206e-05
8.90568e-06
5.71914e-05
-1.3452e-06
5.64463e-05
-1.01858e-05
5.30031e-05
-1.63947e-05
4.73884e-05
-2.0458e-05
3.99579e-05
-2.11622e-05
3.6525e-05
-2.49802e-05
3.67301e-05
-3.30523e-05
3.66606e-05
-4.07785e-05
3.6309e-05
-4.80268e-05
3.55851e-05
-5.46814e-05
3.44437e-05
-6.06654e-05
3.28458e-05
-6.59667e-05
3.07405e-05
-7.06411e-05
2.80871e-05
-7.47615e-05
2.48677e-05
-7.83618e-05
2.10792e-05
-8.13888e-05
1.67176e-05
-8.36721e-05
1.17516e-05
-8.49094e-05
6.10275e-06
-8.46127e-05
-8.12705e-05
-5.48769e-06
1.8679e-05
-2.3015e-06
4.55802e-05
1.1324e-06
6.77047e-05
4.50418e-06
7.60203e-05
7.49159e-06
7.82342e-05
1.01792e-05
7.76581e-05
1.27419e-05
7.5691e-05
1.52965e-05
7.29304e-05
1.79321e-05
6.96362e-05
2.07096e-05
6.5985e-05
2.36733e-05
6.21014e-05
2.68782e-05
5.80222e-05
3.04041e-05
5.36946e-05
3.43449e-05
4.8992e-05
3.87562e-05
4.37625e-05
4.35665e-05
3.78777e-05
4.85071e-05
3.1223e-05
5.31051e-05
2.37274e-05
5.67484e-05
1.54593e-05
5.87932e-05
6.86087e-06
5.87812e-05
-1.33314e-06
5.57192e-05
-7.12392e-06
4.99561e-05
-1.06316e-05
4.24236e-05
-1.29254e-05
3.84402e-05
-1.71788e-05
3.85731e-05
-2.51131e-05
3.84221e-05
-3.29013e-05
3.79913e-05
-4.03477e-05
3.72513e-05
-4.72868e-05
3.62022e-05
-5.36323e-05
3.48278e-05
-5.9291e-05
3.30679e-05
-6.42067e-05
3.08457e-05
-6.8419e-05
2.81128e-05
-7.20286e-05
2.48532e-05
-7.51022e-05
2.10679e-05
-7.76036e-05
1.67591e-05
-7.93633e-05
1.19195e-05
-8.00698e-05
6.49442e-06
-7.91877e-05
-7.47761e-05
-2.6921e-06
1.61268e-05
1.67285e-06
4.12152e-05
5.69534e-06
6.36823e-05
9.80391e-06
7.19117e-05
1.3418e-05
7.46201e-05
1.673e-05
7.43462e-05
1.99379e-05
7.24831e-05
2.31103e-05
6.97582e-05
2.63102e-05
6.64364e-05
2.95603e-05
6.27348e-05
3.28519e-05
5.88098e-05
3.61866e-05
5.46875e-05
3.96036e-05
5.02776e-05
4.31748e-05
4.54209e-05
4.69501e-05
3.99871e-05
5.08402e-05
3.39877e-05
5.45413e-05
2.75218e-05
5.75747e-05
2.06939e-05
5.93773e-05
1.36566e-05
5.91587e-05
7.07955e-06
5.68475e-05
9.7799e-07
5.14116e-05
-1.68796e-06
4.39265e-05
-3.14644e-06
4.07323e-05
-9.73121e-06
4.07918e-05
-1.72383e-05
4.04766e-05
-2.47979e-05
3.98198e-05
-3.22444e-05
3.88714e-05
-3.93994e-05
3.77117e-05
-4.61271e-05
3.63778e-05
-5.22984e-05
3.48284e-05
-5.77416e-05
3.29517e-05
-6.233e-05
3.06412e-05
-6.61085e-05
2.78477e-05
-6.92351e-05
2.45684e-05
-7.18229e-05
2.08129e-05
-7.38481e-05
1.6581e-05
-7.51313e-05
1.18591e-05
-7.53479e-05
6.60454e-06
-7.39331e-05
-6.81715e-05
-3.1466e-06
1.64898e-05
1.25812e-06
3.68105e-05
7.77906e-06
5.71613e-05
1.37301e-05
6.59606e-05
1.85202e-05
6.983e-05
2.27006e-05
7.01658e-05
2.66015e-05
6.85823e-05
3.03068e-05
6.60529e-05
3.3933e-05
6.28101e-05
3.74921e-05
5.91757e-05
4.09207e-05
5.53812e-05
4.41622e-05
5.14462e-05
4.72134e-05
4.72263e-05
5.01374e-05
4.24968e-05
5.30051e-05
3.71194e-05
5.57205e-05
3.12724e-05
5.7909e-05
2.53332e-05
5.90028e-05
1.96002e-05
5.85294e-05
1.41301e-05
5.56256e-05
9.98335e-06
4.92415e-05
7.36203e-06
4.39516e-05
3.60184e-06
4.36157e-05
-2.81048e-06
4.34469e-05
-9.56241e-06
4.28809e-05
-1.66724e-05
4.19318e-05
-2.38488e-05
4.06549e-05
-3.09675e-05
3.91798e-05
-3.79243e-05
3.76447e-05
-4.45919e-05
3.60873e-05
-5.0741e-05
3.44194e-05
-5.60737e-05
3.24638e-05
-6.03744e-05
3.00807e-05
-6.37254e-05
2.72357e-05
-6.63901e-05
2.39544e-05
-6.85416e-05
2.02607e-05
-7.01544e-05
1.61414e-05
-7.10121e-05
1.15299e-05
-7.07364e-05
6.2749e-06
-6.86781e-05
-6.18966e-05
-6.0057e-06
2.23671e-05
5.87743e-07
3.02171e-05
7.45773e-06
5.02914e-05
1.57152e-05
5.77032e-05
2.19085e-05
6.36368e-05
2.71246e-05
6.49497e-05
3.17727e-05
6.39342e-05
3.58937e-05
6.19318e-05
3.9785e-05
5.89188e-05
4.3473e-05
5.54877e-05
4.68387e-05
5.20155e-05
4.97692e-05
4.85158e-05
5.22194e-05
4.47761e-05
5.42448e-05
4.04715e-05
5.59623e-05
3.54019e-05
5.73193e-05
2.99155e-05
5.7766e-05
2.48867e-05
5.6813e-05
2.05533e-05
5.30727e-05
1.78704e-05
4.88011e-05
1.4255e-05
4.69781e-05
9.18505e-06
4.68813e-05
3.69869e-06
4.63737e-05
-2.30294e-06
4.55681e-05
-8.75683e-06
4.4327e-05
-1.54312e-05
4.26968e-05
-2.22186e-05
4.08026e-05
-2.90734e-05
3.88457e-05
-3.59674e-05
3.69944e-05
-4.27407e-05
3.5277e-05
-4.90236e-05
3.35465e-05
-5.43432e-05
3.15368e-05
-5.83647e-05
2.90778e-05
-6.12665e-05
2.61793e-05
-6.34915e-05
2.29192e-05
-6.52815e-05
1.9342e-05
-6.65772e-05
1.54198e-05
-6.70898e-05
1.10387e-05
-6.63553e-05
5.98874e-06
-6.36281e-05
-5.59079e-05
1.29894e-06
2.32919e-05
7.97524e-07
3.07185e-05
6.72228e-06
4.43666e-05
1.6532e-05
4.78935e-05
2.31855e-05
5.69833e-05
2.92833e-05
5.88519e-05
3.45887e-05
5.86287e-05
3.87942e-05
5.77264e-05
4.27089e-05
5.50041e-05
4.63453e-05
5.18514e-05
4.95138e-05
4.8847e-05
5.20615e-05
4.59681e-05
5.39114e-05
4.29262e-05
5.50441e-05
3.93388e-05
5.56098e-05
3.48362e-05
5.57688e-05
2.97565e-05
5.36979e-05
2.69576e-05
5.11388e-05
2.31124e-05
5.03937e-05
1.86154e-05
5.04283e-05
1.42204e-05
5.00869e-05
9.52637e-06
4.94355e-05
4.35008e-06
4.84103e-05
-1.27773e-06
4.69293e-05
-7.27583e-06
4.50018e-05
-1.35036e-05
4.27062e-05
-1.99231e-05
4.02254e-05
-2.65925e-05
3.78179e-05
-3.35598e-05
3.57016e-05
-4.06244e-05
3.38861e-05
-4.7208e-05
3.21363e-05
-5.25934e-05
3.00648e-05
-5.62932e-05
2.74924e-05
-5.8694e-05
2.4527e-05
-6.05262e-05
2.1326e-05
-6.20805e-05
1.79519e-05
-6.32031e-05
1.4354e-05
-6.34919e-05
1.03793e-05
-6.23807e-05
5.7718e-06
-5.90206e-05
-5.01361e-05
4.57491e-06
2.32475e-05
5.41009e-06
2.98833e-05
1.27106e-05
3.70661e-05
1.62074e-05
4.43968e-05
2.22867e-05
5.09041e-05
2.89244e-05
5.22141e-05
3.45723e-05
5.29808e-05
3.847e-05
5.38287e-05
4.22048e-05
5.12694e-05
4.56288e-05
4.84273e-05
4.8545e-05
4.59309e-05
5.08608e-05
4.36523e-05
5.25267e-05
4.12602e-05
5.34076e-05
3.84579e-05
5.29701e-05
3.52738e-05
5.17629e-05
3.09636e-05
5.23579e-05
2.63626e-05
5.30615e-05
2.24087e-05
5.31492e-05
1.85278e-05
5.28846e-05
1.44849e-05
5.22732e-05
1.01378e-05
5.12079e-05
5.41531e-06
4.96222e-05
3.08051e-07
4.7506e-05
-5.15967e-06
4.49265e-05
-1.09242e-05
4.19787e-05
-1.69753e-05
3.89025e-05
-2.35163e-05
3.60606e-05
-3.07179e-05
3.37325e-05
-3.82963e-05
3.18667e-05
-4.53422e-05
3.00955e-05
-5.08222e-05
2.78779e-05
-5.40756e-05
2.50968e-05
-5.59129e-05
2.20516e-05
-5.74811e-05
1.89852e-05
-5.90141e-05
1.59474e-05
-6.01652e-05
1.28378e-05
-6.03824e-05
9.44492e-06
-5.89877e-05
5.44352e-06
-5.50192e-05
-4.46926e-05
7.34274e-06
2.26432e-05
8.62797e-06
2.85981e-05
1.12665e-05
3.44276e-05
1.57634e-05
3.98999e-05
2.19618e-05
4.47056e-05
2.65261e-05
4.76498e-05
3.03568e-05
4.91502e-05
3.47433e-05
4.94422e-05
3.84577e-05
4.75549e-05
4.1248e-05
4.5637e-05
4.35102e-05
4.36687e-05
4.56034e-05
4.1559e-05
4.76468e-05
3.92167e-05
4.97203e-05
3.63844e-05
5.20281e-05
3.2966e-05
5.37721e-05
2.92196e-05
5.45786e-05
2.55562e-05
5.49407e-05
2.20466e-05
5.495e-05
1.85184e-05
5.45714e-05
1.48636e-05
5.37017e-05
1.10075e-05
5.22314e-05
6.8856e-06
5.01186e-05
2.42092e-06
4.74104e-05
-2.45147e-06
4.41766e-05
-7.6904e-06
4.05256e-05
-1.33243e-05
3.6822e-05
-1.98127e-05
3.35881e-05
-2.7484e-05
3.11308e-05
-3.5839e-05
2.92094e-05
-4.34208e-05
2.72712e-05
-4.8884e-05
2.46284e-05
-5.14327e-05
2.14918e-05
-5.27763e-05
1.8421e-05
-5.44103e-05
1.56604e-05
-5.62535e-05
1.31697e-05
-5.76745e-05
1.07618e-05
-5.79745e-05
8.14436e-06
-5.63703e-05
4.92549e-06
-5.18003e-05
-3.97671e-05
9.85689e-06
2.14325e-05
1.15383e-05
2.69167e-05
1.38892e-05
3.20766e-05
1.70615e-05
3.67276e-05
2.13069e-05
4.04603e-05
2.5793e-05
4.31637e-05
3.02507e-05
4.46924e-05
3.47262e-05
4.49667e-05
3.83261e-05
4.3955e-05
4.1435e-05
4.25281e-05
4.42641e-05
4.08396e-05
4.69114e-05
3.89117e-05
4.94506e-05
3.66775e-05
5.17945e-05
3.40405e-05
5.37026e-05
3.10579e-05
5.49949e-05
2.79273e-05
5.57869e-05
2.47642e-05
5.61987e-05
2.16347e-05
5.62031e-05
1.85141e-05
5.57113e-05
1.53554e-05
5.46022e-05
1.21166e-05
5.27574e-05
8.73036e-06
5.013e-05
5.04834e-06
4.6782e-05
8.96593e-07
4.27934e-05
-3.70187e-06
3.83188e-05
-8.84962e-06
3.39653e-05
-1.54593e-05
3.04748e-05
-2.39934e-05
2.80998e-05
-3.34641e-05
2.58699e-05
-4.11909e-05
2.30242e-05
-4.60383e-05
1.94284e-05
-4.78369e-05
1.59816e-05
-4.93295e-05
1.32191e-05
-5.16478e-05
1.11195e-05
-5.4154e-05
9.49033e-06
-5.60453e-05
8.04907e-06
-5.65333e-05
6.41734e-06
-5.47386e-05
4.14537e-06
-4.95284e-05
-3.56217e-05
1.19789e-05
1.97039e-05
1.41086e-05
2.47871e-05
1.66766e-05
2.95086e-05
1.97562e-05
3.3648e-05
2.33438e-05
3.68727e-05
2.72935e-05
3.9214e-05
3.14084e-05
4.05775e-05
3.55111e-05
4.08639e-05
3.91481e-05
4.03181e-05
4.23929e-05
3.92833e-05
4.53311e-05
3.79014e-05
4.80228e-05
3.62201e-05
5.0485e-05
3.42153e-05
5.26457e-05
3.18798e-05
5.44068e-05
2.92968e-05
5.57503e-05
2.65838e-05
5.66739e-05
2.38406e-05
5.71682e-05
2.11404e-05
5.71748e-05
1.85074e-05
5.66004e-05
1.59299e-05
5.53055e-05
1.34114e-05
5.31121e-05
1.09238e-05
4.9898e-05
8.26239e-06
4.57254e-05
5.06919e-06
4.07173e-05
1.30632e-06
3.51435e-05
-3.27582e-06
3.01778e-05
-1.04936e-05
2.65375e-05
-2.03532e-05
2.38543e-05
-3.07809e-05
1.99432e-05
-3.72798e-05
1.47995e-05
-4.08946e-05
1.05991e-05
-4.36364e-05
7.86138e-06
-4.65918e-05
6.19518e-06
-4.99816e-05
5.28308e-06
-5.32419e-05
4.89485e-06
-5.5657e-05
4.6957e-06
-5.63341e-05
4.21602e-06
-5.42589e-05
3.00304e-06
-4.83154e-05
-3.26187e-05
1.37148e-05
1.70724e-05
1.63174e-05
2.21844e-05
1.90663e-05
2.67597e-05
2.21975e-05
3.05169e-05
2.56229e-05
3.34472e-05
2.92483e-05
3.55886e-05
3.29908e-05
3.6835e-05
3.66733e-05
3.71815e-05
4.01216e-05