/*--------------------------------*- C++ -*----------------------------------*\
| =========                 |                                                 |
| \\      /  F ield         | OpenFOAM: The Open Source CFD Toolbox           |
|  \\    /   O peration     | Version:  5.0                                   |
|   \\  /    A nd           | Web:      www.OpenFOAM.org                      |
|    \\/     M anipulation  |                                                 |
\*---------------------------------------------------------------------------*/
FoamFile
{
    version     2.0;
    format      ascii;
    class       volVectorField;
    location    "0.65";
    object      U;
}
// * * * * * * * * * * * * * * * * * * * * * * * * * * * * * * * * * * * * * //

dimensions      [0 1 -1 0 0 0 0];

internalField   nonuniform List<vector> 
1915
(
(-0.110155 -0.0361842 0)
(-0.0432271 -0.0358201 0)
(-0.082487 -0.0574592 0)
(-0.0403156 -0.090701 0)
(-0.041682 -0.0617429 0)
(-0.0192721 -0.128697 0)
(-0.0059287 -0.058029 0)
(0.00134326 -0.140022 0)
(0.0198763 -0.051546 0)
(0.0162971 -0.132397 0)
(0.0375624 -0.0401606 0)
(0.0258717 -0.115452 0)
(0.0505614 -0.0254725 0)
(0.0334841 -0.0900873 0)
(0.0622948 -0.00882802 0)
(0.0421808 -0.0591252 0)
(0.0758836 0.00821803 0)
(0.0544268 -0.0272369 0)
(0.0870735 0.0250295 0)
(0.0749356 0.0468899 0)
(0.0681673 -0.0644138 0)
(0.14339 -0.0468048 0)
(0.178795 -0.0150953 0)
(0.161025 0.00555902 0)
(0.115447 0.0158186 0)
(0.054795 0.023147 0)
(-0.0270045 0.0322529 0)
(-0.130375 0.0414294 0)
(-0.252345 0.0494372 0)
(-0.388007 0.0552587 0)
(-0.531037 0.0583904 0)
(-0.674194 0.0589312 0)
(-0.807691 0.0555781 0)
(-0.91578 0.043253 0)
(-0.980806 0.0176405 0)
(-1.00356 -0.0141364 0)
(-1.02872 -0.0288169 0)
(-1.13084 0.00607907 0)
(-1.33432 0.0994285 0)
(-1.67395 0.108718 0)
(-2.14572 0.0981968 0)
(-2.41404 0.189281 0)
(-2.70255 0.255479 0)
(-3.07998 0.111575 0)
(-3.18727 0.0145742 0)
(-3.22994 -0.0538238 0)
(-3.2907 -0.196225 0)
(-3.0381 -0.66897 0)
(-2.81606 -0.562091 0)
(-2.74416 -0.450225 0)
(-2.7002 -0.363808 0)
(-2.6631 -0.302151 0)
(-2.64906 -0.251329 0)
(-2.6697 -0.20509 0)
(-2.65746 -0.178686 0)
(-2.45641 -0.220531 0)
(-1.96032 -0.336109 0)
(-1.2664 -0.421393 0)
(-0.589937 -0.352638 0)
(-0.102876 -0.0751717 0)
(0.0355187 -0.109315 0)
(0.0733345 -0.0428745 0)
(0.0475283 0.00779413 0)
(0.00379632 0.0396779 0)
(-0.0699962 0.0649821 0)
(-0.172129 0.0902474 0)
(-0.300762 0.115397 0)
(-0.450566 0.137385 0)
(-0.614243 0.15378 0)
(-0.783677 0.162875 0)
(-0.950492 0.163375 0)
(-1.10491 0.152899 0)
(-1.23319 0.126654 0)
(-1.32141 0.0830713 0)
(-1.37827 0.0399007 0)
(-1.46151 0.0381468 0)
(-1.65172 0.110638 0)
(-1.96811 0.251497 0)
(-2.34673 0.358376 0)
(-2.67993 0.375162 0)
(-2.95982 0.333581 0)
(-3.17162 0.271952 0)
(-3.23632 0.230943 0)
(-3.05526 0.126514 0)
(-2.97176 0.0754149 0)
(-2.97299 0.0732882 0)
(-2.96123 0.0592791 0)
(-2.94028 0.0776622 0)
(-2.89998 0.153635 0)
(-2.79346 0.123286 0)
(-2.66133 0.11653 0)
(-2.56713 0.136559 0)
(-2.51652 0.146891 0)
(-2.47496 0.0932968 0)
(-2.37071 -0.0553747 0)
(-2.0842 -0.297485 0)
(-1.64114 -0.594476 0)
(-1.17013 -0.773719 0)
(-0.719188 -0.732264 0)
(-0.279182 -0.350666 0)
(-0.0118687 -0.131998 0)
(-0.00697776 -0.0285661 0)
(-0.0610563 0.0394765 0)
(-0.130808 0.0917761 0)
(-0.228258 0.137448 0)
(-0.348499 0.179871 0)
(-0.485274 0.217534 0)
(-0.631267 0.247192 0)
(-0.779944 0.266475 0)
(-0.926311 0.274013 0)
(-1.06688 0.268215 0)
(-1.19862 0.245556 0)
(-1.31812 0.202251 0)
(-1.42694 0.147508 0)
(-1.55106 0.122978 0)
(-1.74278 0.184639 0)
(-2.02888 0.335328 0)
(-2.33604 0.49281 0)
(-2.59128 0.575249 0)
(-2.81316 0.568597 0)
(-2.97788 0.483813 0)
(-3.05449 0.326464 0)
(-2.98061 0.157964 0)
(-2.87315 0.0388921 0)
(-2.82406 0.0159386 0)
(-2.81952 -0.00659042 0)
(-2.81616 -0.0666734 0)
(-2.78587 -0.244679 0)
(-2.69306 -0.301434 0)
(-2.5493 -0.219394 0)
(-2.43007 -0.16078 0)
(-2.35299 -0.123818 0)
(-2.31221 -0.116836 0)
(-2.26998 -0.159328 0)
(-2.03288 -0.197558 0)
(-1.55107 -0.520853 0)
(-1.1314 -0.869874 0)
(-0.85656 -1.02902 0)
(-0.600281 -1.02308 0)
(-0.2679 -0.686926 0)
(-0.0404284 -0.103602 0)
(-0.0654389 0.00369577 0)
(-0.132881 0.0880911 0)
(-0.218951 0.158324 0)
(-0.326758 0.219608 0)
(-0.448417 0.272717 0)
(-0.576141 0.31578 0)
(-0.703779 0.346534 0)
(-0.82791 0.364059 0)
(-0.94776 0.368491 0)
(-1.06475 0.359408 0)
(-1.18252 0.334517 0)
(-1.30718 0.2934 0)
(-1.44953 0.252975 0)
(-1.63413 0.264916 0)
(-1.89524 0.380006 0)
(-2.17365 0.540562 0)
(-2.38748 0.654076 0)
(-2.55375 0.701791 0)
(-2.67425 0.664077 0)
(-2.7439 0.533876 0)
(-2.74182 0.334947 0)
(-2.68382 0.119449 0)
(-2.60821 -0.00437016 0)
(-2.54223 -0.00818851 0)
(-2.46667 -0.00150969 0)
(-2.3734 -0.0800227 0)
(-2.2724 -0.240403 0)
(-2.20036 -0.30084 0)
(-2.13846 -0.27709 0)
(-2.07686 -0.201522 0)
(-2.02105 -0.132936 0)
(-1.9844 -0.16987 0)
(-1.87611 -0.326348 0)
(-1.35453 -0.487527 0)
(-0.902583 -0.872219 0)
(-0.640327 -1.09674 0)
(-0.534746 -1.17646 0)
(-0.410708 -1.18312 0)
(-0.191591 -0.944369 0)
(-0.053769 -0.0605334 0)
(-0.095399 0.0479693 0)
(-0.167087 0.144671 0)
(-0.259793 0.230244 0)
(-0.369364 0.301834 0)
(-0.485356 0.359129 0)
(-0.600269 0.401687 0)
(-0.710201 0.429468 0)
(-0.814593 0.443691 0)
(-0.915382 0.446308 0)
(-1.01658 0.438659 0)
(-1.12526 0.420963 0)
(-1.25292 0.396757 0)
(-1.41251 0.385768 0)
(-1.62709 0.436127 0)
(-1.89808 0.573728 0)
(-2.11287 0.684656 0)
(-2.26387 0.758599 0)
(-2.36418 0.772673 0)
(-2.40858 0.702532 0)
(-2.3884 0.537021 0)
(-2.33596 0.297274 0)
(-2.26252 0.0640822 0)
(-2.16505 -0.0690427 0)
(-2.03552 -0.0992711 0)
(-1.88384 -0.108708 0)
(-1.74842 -0.162912 0)
(-1.66711 -0.260322 0)
(-1.63676 -0.317348 0)
(-1.62049 -0.304499 0)
(-1.57939 -0.241819 0)
(-1.51444 -0.202971 0)
(-1.45632 -0.306322 0)
(-1.21342 -0.522995 0)
(-0.574527 -0.738243 0)
(-0.403624 -1.06495 0)
(-0.317539 -1.20232 0)
(-0.292479 -1.23966 0)
(-0.245945 -1.25454 0)
(-0.11628 -1.11667 0)
(-0.0559349 -0.0070654 0)
(-0.0992954 0.0911379 0)
(-0.164899 0.202375 0)
(-0.259249 0.303349 0)
(-0.368552 0.381445 0)
(-0.478696 0.438458 0)
(-0.58304 0.477217 0)
(-0.67983 0.500466 0)
(-0.770379 0.511397 0)
(-0.8578 0.513444 0)
(-0.946744 0.509652 0)
(-1.04476 0.503111 0)
(-1.16396 0.501277 0)
(-1.31537 0.524181 0)
(-1.51549 0.606437 0)
(-1.75514 0.72847 0)
(-1.91663 0.792325 0)
(-2.02438 0.827904 0)
(-2.0769 0.799576 0)
(-2.06994 0.684624 0)
(-1.98659 0.485891 0)
(-1.89197 0.239414 0)
(-1.79095 -0.00248976 0)
(-1.68313 -0.154755 0)
(-1.55379 -0.207472 0)
(-1.40568 -0.220431 0)
(-1.26973 -0.249511 0)
(-1.18134 -0.299275 0)
(-1.14364 -0.330206 0)
(-1.1221 -0.320264 0)
(-1.07344 -0.286101 0)
(-0.989208 -0.305903 0)
(-0.885523 -0.480576 0)
(-0.44105 -0.68779 0)
(-0.179748 -0.972461 0)
(-0.118974 -1.12603 0)
(-0.12206 -1.22292 0)
(-0.126836 -1.25586 0)
(-0.122929 -1.27964 0)
(-0.0556624 -1.21786 0)
(-0.0508131 0.0476735 0)
(-0.0797941 0.118032 0)
(-0.127108 0.255962 0)
(-0.224108 0.377964 0)
(-0.336946 0.459853 0)
(-0.444436 0.513013 0)
(-0.541658 0.545748 0)
(-0.629114 0.563533 0)
(-0.709413 0.570969 0)
(-0.786002 0.572397 0)
(-0.863024 0.572103 0)
(-0.946465 0.57529 0)
(-1.04513 0.592004 0)
(-1.16502 0.641578 0)
(-1.30579 0.742501 0)
(-1.48689 0.851914 0)
(-1.62202 0.879539 0)
(-1.6986 0.871045 0)
(-1.71581 0.802531 0)
(-1.67825 0.643247 0)
(-1.57294 0.410005 0)
(-1.43038 0.147876 0)
(-1.30279 -0.0816196 0)
(-1.1966 -0.237808 0)
(-1.08983 -0.302599 0)
(-0.973697 -0.318427 0)
(-0.862514 -0.328609 0)
(-0.780623 -0.345979 0)
(-0.73301 -0.355833 0)
(-0.695473 -0.349984 0)
(-0.632529 -0.350925 0)
(-0.524786 -0.432099 0)
(-0.339303 -0.653185 0)
(-0.00228349 -0.873798 0)
(0.0342936 -1.01951 0)
(0.0353992 -1.13442 0)
(0.00611011 -1.21102 0)
(-0.0165418 -1.2513 0)
(-0.0351476 -1.28026 0)
(-0.0112593 -1.26194 0)
(-0.0476766 0.131805 0)
(-0.0288836 0.118458 0)
(-0.049328 0.308433 0)
(-0.159091 0.459994 0)
(-0.285173 0.540632 0)
(-0.394227 0.585273 0)
(-0.486736 0.60941 0)
(-0.566733 0.620494 0)
(-0.638141 0.623633 0)
(-0.704442 0.623353 0)
(-0.76885 0.62441 0)
(-0.834911 0.632833 0)
(-0.906963 0.658931 0)
(-0.98485 0.720321 0)
(-1.0571 0.827322 0)
(-1.13605 0.937545 0)
(-1.24137 0.957084 0)
(-1.30243 0.906186 0)
(-1.29816 0.790828 0)
(-1.23313 0.584267 0)
(-1.10387 0.296454 0)
(-0.932415 0.0506278 0)
(-0.815983 -0.163452 0)
(-0.730083 -0.305969 0)
(-0.658039 -0.37165 0)
(-0.582008 -0.389432 0)
(-0.505316 -0.390293 0)
(-0.442122 -0.389197 0)
(-0.39595 -0.387809 0)
(-0.349296 -0.393321 0)
(-0.273318 -0.434171 0)
(-0.128758 -0.570556 0)
(0.118409 -0.776584 0)
(0.151704 -0.914203 0)
(0.154546 -1.0221 0)
(0.129542 -1.11864 0)
(0.0923588 -1.18746 0)
(0.0576635 -1.23376 0)
(0.0248331 -1.26793 0)
(0.0178993 -1.26322 0)
(0.0892851 0.202289 0)
(0.205206 0.151794 0)
(0.0869964 0.4212 0)
(-0.0706334 0.566849 0)
(-0.224233 0.628626 0)
(-0.337231 0.656791 0)
(-0.425129 0.668912 0)
(-0.497518 0.671732 0)
(-0.559825 0.669456 0)
(-0.615453 0.665957 0)
(-0.66664 0.665636 0)
(-0.71476 0.674211 0)
(-0.760135 0.700407 0)
(-0.798328 0.757929 0)
(-0.813763 0.855578 0)
(-0.799403 0.958309 0)
(-0.793871 0.990264 0)
(-0.833587 0.916725 0)
(-0.82453 0.755499 0)
(-0.720261 0.506273 0)
(-0.550113 0.207515 0)
(-0.432662 -0.0359993 0)
(-0.361666 -0.223729 0)
(-0.315955 -0.348297 0)
(-0.281812 -0.411635 0)
(-0.242872 -0.432073 0)
(-0.199364 -0.430443 0)
(-0.159408 -0.422024 0)
(-0.12379 -0.41997 0)
(-0.0769726 -0.445508 0)
(0.0122503 -0.527797 0)
(0.187018 -0.676547 0)
(0.237866 -0.818162 0)
(0.242442 -0.914332 0)
(0.226135 -1.01086 0)
(0.192914 -1.09372 0)
(0.151175 -1.15855 0)
(0.108 -1.20679 0)
(0.0642005 -1.24208 0)
(0.0352693 -1.24142 0)
(0.412169 -0.195137 0)
(0.467879 -0.0742721 0)
(0.230179 0.488893 0)
(-0.013891 0.702209 0)
(-0.173502 0.723887 0)
(-0.282351 0.726346 0)
(-0.361751 0.723261 0)
(-0.424444 0.716565 0)
(-0.476422 0.707935 0)
(-0.520655 0.699843 0)
(-0.558424 0.69574 0)
(-0.589584 0.700299 0)
(-0.611925 0.719955 0)
(-0.618862 0.763482 0)
(-0.594975 0.836494 0)
(-0.525104 0.919478 0)
(-0.420561 0.95476 0)
(-0.330274 0.887559 0)
(-0.254173 0.700025 0)
(-0.139469 0.424302 0)
(-0.0467925 0.141124 0)
(-0.00689952 -0.0826867 0)
(0.0122394 -0.248603 0)
(0.0184645 -0.362563 0)
(0.0227329 -0.426606 0)
(0.0338035 -0.451316 0)
(0.0502521 -0.451015 0)
(0.0674021 -0.442546 0)
(0.0884269 -0.448571 0)
(0.135118 -0.497248 0)
(0.234519 -0.60266 0)
(0.302723 -0.731842 0)
(0.307428 -0.817093 0)
(0.298755 -0.906506 0)
(0.273673 -0.991665 0)
(0.236571 -1.06523 0)
(0.191249 -1.12591 0)
(0.141714 -1.17296 0)
(0.0893655 -1.20643 0)
(0.0453902 -1.20371 0)
(0.105748 0.0282998 0)
(0.125759 0.0441493 0)
(0.113836 0.0184727 0)
(0.133081 0.00717231 0)
(0.114782 0.00911834 0)
(0.128331 -0.00862239 0)
(0.1102 0.0023983 0)
(0.117091 -0.0163471 0)
(0.102877 -0.000972362 0)
(0.103719 -0.0173409 0)
(0.0953327 -0.00111997 0)
(0.091588 -0.0130366 0)
(0.0893237 0.00122154 0)
(0.0827382 -0.00524162 0)
(0.0857482 0.00506103 0)
(0.0779832 0.00429108 0)
(0.0846713 0.00938039 0)
(0.0771965 0.01396 0)
(0.0851653 0.0133907 0)
(0.079135 0.0223999 0)
(0.0815855 0.0285632 0)
(0.0812808 0.0324402 0)
(0.0762045 0.0340497 0)
(0.0662283 0.0303315 0)
(0.102073 0.0358968 0)
(0.132631 0.0619959 0)
(0.153426 0.0755715 0)
(0.162128 0.0832798 0)
(0.159496 0.0893351 0)
(0.14752 0.0957517 0)
(0.12843 0.103913 0)
(0.104285 0.114898 0)
(0.0769908 0.129372 0)
(0.0482509 0.147598 0)
(0.0195394 0.169503 0)
(-0.0079187 0.19477 0)
(-0.0331363 0.222899 0)
(-0.055352 0.253268 0)
(-0.074012 0.285173 0)
(-0.0887485 0.317879 0)
(-0.0993508 0.350617 0)
(-0.105799 0.382759 0)
(-0.10803 0.413384 0)
(0.17568 0.00752931 0)
(0.209522 -0.0315796 0)
(0.2586 -0.0599097 0)
(0.330808 -0.0955379 0)
(0.161369 -0.0311266 0)
(0.186125 -0.0644005 0)
(0.210636 -0.0838133 0)
(0.23827 -0.0700577 0)
(0.141956 -0.0406098 0)
(0.148659 -0.072883 0)
(0.153031 -0.0928111 0)
(0.15399 -0.0708715 0)
(0.118977 -0.0431417 0)
(0.113385 -0.0688369 0)
(0.103582 -0.080339 0)
(0.0899118 -0.0400535 0)
(0.0966693 -0.0371768 0)
(0.0830272 -0.0530973 0)
(0.0622468 -0.0523901 0)
(0.0420259 -0.0125341 0)
(0.0786759 -0.0247766 0)
(0.0591836 -0.0302282 0)
(0.0344294 -0.0186374 0)
(0.0137043 0.00752787 0)
(0.0669121 -0.00874309 0)
(0.0433057 -0.00394276 0)
(0.020838 0.0187127 0)
(-0.00474901 0.0367749 0)
(0.0618513 0.00848135 0)
(0.0366433 0.0223872 0)
(0.0169739 0.0530259 0)
(-0.00737447 0.0874611 0)
(0.0628463 0.0247712 0)
(0.0405443 0.0450141 0)
(0.0178799 0.0791298 0)
(0.00471086 0.129577 0)
(0.0677881 0.0387046 0)
(0.0503312 0.0637951 0)
(0.0282451 0.101684 0)
(0.0186668 0.153342 0)
(0.0742546 0.0490014 0)
(0.0625492 0.0779866 0)
(0.0466668 0.117637 0)
(0.0339695 0.168971 0)
(0.0791715 0.0544766 0)
(0.0740833 0.086184 0)
(0.0662144 0.127089 0)
(0.0579125 0.178014 0)
(0.0793876 0.0575221 0)
(0.0812829 0.0886456 0)
(0.0826795 0.128524 0)
(0.0826602 0.177846 0)
(0.0723487 0.0561056 0)
(0.0832713 0.0903498 0)
(0.0931668 0.127213 0)
(0.102262 0.17101 0)
(0.0545068 0.0451442 0)
(0.0753206 0.0841383 0)
(0.0955892 0.124376 0)
(0.116181 0.166999 0)
(0.116512 0.0545171 0)
(0.117656 0.0378146 0)
(0.0787092 0.107659 0)
(0.116816 0.157732 0)
(0.141413 0.073425 0)
(0.132921 0.0703988 0)
(0.133531 0.0793543 0)
(0.107857 0.107905 0)
(0.153484 0.0833987 0)
(0.145238 0.0869619 0)
(0.14308 0.0949275 0)
(0.148023 0.0881905 0)
(0.152581 0.0892003 0)
(0.14643 0.0921197 0)
(0.143739 0.0987904 0)
(0.145214 0.102446 0)
(0.13983 0.0949481 0)
(0.133089 0.095825 0)
(0.128431 0.0989601 0)
(0.12584 0.102677 0)
(0.118156 0.102949 0)
(0.108262 0.102757 0)
(0.0992098 0.10357 0)
(0.0911068 0.105177 0)
(0.0904189 0.114536 0)
(0.0760802 0.114492 0)
(0.0612175 0.114926 0)
(0.045956 0.115877 0)
(0.0590964 0.1305 0)
(0.039859 0.131743 0)
(0.0188356 0.133325 0)
(-0.00399925 0.135405 0)
(0.0263214 0.151104 0)
(0.00226855 0.154703 0)
(-0.0246541 0.15871 0)
(-0.0546178 0.16336 0)
(-0.00611365 0.176204 0)
(-0.0345374 0.183097 0)
(-0.066702 0.190607 0)
(-0.102879 0.199011 0)
(-0.0367541 0.205354 0)
(-0.0688567 0.216305 0)
(-0.105355 0.228173 0)
(-0.146575 0.241255 0)
(-0.0644645 0.237902 0)
(-0.0994052 0.253488 0)
(-0.139187 0.270341 0)
(-0.184156 0.288757 0)
(-0.0884001 0.273068 0)
(-0.125265 0.293683 0)
(-0.167225 0.315928 0)
(-0.214618 0.34009 0)
(-0.107975 0.31 0)
(-0.14583 0.335868 0)
(-0.188866 0.36372 0)
(-0.237397 0.393821 0)
(-0.122823 0.347816 0)
(-0.16076 0.379012 0)
(-0.203816 0.412512 0)
(-0.252268 0.448562 0)
(-0.132774 0.385636 0)
(-0.169928 0.422088 0)
(-0.212023 0.461142 0)
(-0.259282 0.50299 0)
(-0.137808 0.422615 0)
(-0.173392 0.464144 0)
(-0.213628 0.508513 0)
(-0.258696 0.55588 0)
(-0.138144 0.458041 0)
(-0.171359 0.504297 0)
(-0.208947 0.553649 0)
(-0.250932 0.606137 0)
(0.405265 -0.15426 0)
(0.418604 0.0602032 0)
(0.0993083 0.707468 0)
(-0.0430096 0.836842 0)
(-0.152043 0.812021 0)
(-0.235934 0.788115 0)
(-0.299028 0.769941 0)
(-0.348528 0.753814 0)
(-0.388396 0.738536 0)
(-0.420403 0.724978 0)
(-0.444843 0.715434 0)
(-0.460565 0.713258 0)
(-0.464347 0.722686 0)
(-0.449265 0.748242 0)
(-0.402719 0.791455 0)
(-0.310031 0.839541 0)
(-0.170847 0.856042 0)
(-0.0137144 0.791751 0)
(0.126375 0.616668 0)
(0.232437 0.365991 0)
(0.283415 0.114019 0)
(0.290961 -0.0901875 0)
(0.282749 -0.246807 0)
(0.268867 -0.357824 0)
(0.256621 -0.424979 0)
(0.249122 -0.453807 0)
(0.243593 -0.455874 0)
(0.23926 -0.451922 0)
(0.249164 -0.470637 0)
(0.304381 -0.536721 0)
(0.353231 -0.652289 0)
(0.357242 -0.729976 0)
(0.353691 -0.811215 0)
(0.336308 -0.893308 0)
(0.306646 -0.968055 0)
(0.266671 -1.03408 0)
(0.218261 -1.08991 0)
(0.163791 -1.13375 0)
(0.105146 -1.16373 0)
(0.051008 -1.15556 0)
(0.228899 -0.179914 0)
(0.162208 0.299748 0)
(-0.058053 0.822008 0)
(-0.0949906 0.915423 0)
(-0.14604 0.871793 0)
(-0.195142 0.83352 0)
(-0.236301 0.805119 0)
(-0.269666 0.781552 0)
(-0.29588 0.760252 0)
(-0.315054 0.741027 0)
(-0.32652 0.725211 0)
(-0.328543 0.714975 0)
(-0.317728 0.71276 0)
(-0.28816 0.72031 0)
(-0.230519 0.736175 0)
(-0.134674 0.75027 0)
(0.00186031 0.738907 0)
(0.161987 0.669048 0)
(0.310049 0.519886 0)
(0.415296 0.312957 0)
(0.464894 0.0976503 0)
(0.474292 -0.0883865 0)
(0.4648 -0.23682 0)
(0.447505 -0.345677 0)
(0.428094 -0.414084 0)
(0.406661 -0.443835 0)
(0.380448 -0.446875 0)
(0.357612 -0.448499 0)
(0.367537 -0.479267 0)
(0.392302 -0.575793 0)
(0.395165 -0.650579 0)
(0.395623 -0.725186 0)
(0.384419 -0.802622 0)
(0.361916 -0.875219 0)
(0.329257 -0.941378 0)
(0.286808 -1.00053 0)
(0.235821 -1.05092 0)
(0.177578 -1.09032 0)
(0.114728 -1.11583 0)
(0.0531597 -1.10085 0)
(0.0598392 -0.18325 0)
(-0.0876651 0.362179 0)
(-0.167344 0.853474 0)
(-0.133274 0.931629 0)
(-0.136592 0.89599 0)
(-0.152386 0.857769 0)
(-0.170991 0.825999 0)
(-0.187363 0.798154 0)
(-0.199371 0.772202 0)
(-0.205677 0.747765 0)
(-0.204875 0.725656 0)
(-0.19497 0.707212 0)
(-0.172852 0.69364 0)
(-0.133879 0.685058 0)
(-0.0718003 0.678838 0)
(0.0195265 0.666654 0)
(0.140884 0.632643 0)
(0.280726 0.557054 0)
(0.413656 0.427783 0)
(0.513286 0.256792 0)
(0.569133 0.0745583 0)
(0.589455 -0.0917073 0)
(0.587512 -0.229122 0)
(0.571591 -0.332134 0)
(0.545835 -0.396723 0)
(0.508489 -0.421734 0)
(0.461233 -0.420771 0)
(0.429104 -0.426576 0)
(0.421765 -0.499164 0)
(0.423301 -0.575113 0)
(0.427436 -0.646016 0)
(0.421051 -0.719792 0)
(0.404555 -0.789672 0)
(0.379003 -0.853795 0)
(0.34386 -0.91254 0)
(0.299439 -0.965066 0)
(0.246469 -1.0096 0)
(0.185436 -1.04377 0)
(0.120135 -1.0641 0)
(0.0516226 -1.04215 0)
(-0.0629023 -0.0428192 0)
(-0.186738 0.427159 0)
(-0.196349 0.825239 0)
(-0.133145 0.905996 0)
(-0.108889 0.891603 0)
(-0.100542 0.862434 0)
(-0.100017 0.832591 0)
(-0.100585 0.803341 0)
(-0.0989034 0.774251 0)
(-0.0928867 0.745427 0)
(-0.0807853 0.717578 0)
(-0.0606343 0.69157 0)
(-0.0298007 0.667865 0)
(0.0151983 0.645759 0)
(0.078384 0.622355 0)
(0.1629 0.591247 0)
(0.268051 0.541955 0)
(0.385417 0.462574 0)
(0.498161 0.346527 0)
(0.587806 0.201003 0)
(0.644884 0.0450548 0)
(0.671355 -0.101222 0)
(0.6725 -0.223863 0)
(0.652488 -0.315653 0)
(0.613938 -0.370004 0)
(0.55561 -0.381683 0)
(0.490744 -0.371028 0)
(0.446693 -0.422108 0)
(0.446346 -0.498905 0)
(0.452204 -0.569716 0)
(0.449234 -0.642512 0)
(0.437212 -0.711008 0)
(0.417582 -0.77314 0)
(0.389448 -0.830088 0)
(0.352373 -0.882022 0)
(0.306549 -0.928066 0)
(0.25225 -0.966475 0)
(0.189377 -0.994774 0)
(0.123065 -1.00894 0)
(0.0460425 -0.981091 0)
(-0.0915837 0.0887002 0)
(-0.165953 0.476739 0)
(-0.16004 0.780311 0)
(-0.0949491 0.866409 0)
(-0.0595438 0.871367 0)
(-0.0368456 0.852786 0)
(-0.0218719 0.82695 0)
(-0.00888941 0.797917 0)
(0.00523419 0.766846 0)
(0.0225715 0.73453 0)
(0.0447817 0.701813 0)
(0.0735492 0.669332 0)
(0.11095 0.637142 0)
(0.15949 0.604216 0)
(0.221724 0.567955 0)
(0.299095 0.523626 0)
(0.390062 0.46441 0)
(0.48817 0.383189 0)
(0.581938 0.276543 0)
(0.658592 0.149481 0)
(0.709649 0.0149275 0)
(0.732591 -0.110989 0)
(0.725798 -0.214469 0)
(0.690823 -0.289246 0)
(0.631174 -0.324591 0)
(0.548568 -0.315857 0)
(0.468539 -0.342646 0)
(0.466023 -0.421612 0)
(0.473119 -0.493526 0)
(0.471778 -0.56725 0)
(0.462618 -0.636627 0)
(0.447212 -0.698419 0)
(0.424877 -0.754092 0)
(0.39466 -0.804682 0)
(0.356232 -0.850242 0)
(0.309597 -0.889985 0)
(0.254727 -0.922174 0)
(0.19122 -0.944111 0)
(0.12512 -0.951336 0)
(0.0419507 -0.921783 0)
(-0.120915 0.167547 0)
(-0.103429 0.499192 0)
(-0.0903349 0.74328 0)
(-0.0324479 0.828901 0)
(0.00625697 0.84506 0)
(0.0372452 0.834059 0)
(0.0629359 0.811649 0)
(0.0871608 0.783163 0)
(0.112162 0.750763 0)
(0.1395 0.715794 0)
(0.170405 0.679281 0)
(0.206089 0.641752 0)
(0.248039 0.603033 0)
(0.298033 0.561999 0)
(0.357742 0.516487 0)
(0.427699 0.46322 0)
(0.506021 0.397956 0)
(0.587378 0.316699 0)
(0.663247 0.218033 0)
(0.723918 0.106171 0)
(0.761384 -0.00900571 0)
(0.769386 -0.112511 0)
(0.741134 -0.191141 0)
(0.682455 -0.241288 0)
(0.595026 -0.250654 0)
(0.483834 -0.262815 0)
(0.484069 -0.342308 0)
(0.491575 -0.416152 0)
(0.490857 -0.491539 0)
(0.482954 -0.563072 0)
(0.47005 -0.626712 0)
(0.451873 -0.683023 0)
(0.427317 -0.733213 0)
(0.39559 -0.778009 0)
(0.356329 -0.817592 0)
(0.309434 -0.851325 0)
(0.254797 -0.877466 0)
(0.192064 -0.893058 0)
(0.126388 -0.893538 0)
(0.0527274 -0.86492 0)
(-0.162889 0.223329 0)
(-0.041945 0.488697 0)
(-0.0119762 0.710796 0)
(0.0394119 0.795263 0)
(0.0806777 0.816413 0)
(0.1178 0.809342 0)
(0.152063 0.78877 0)
(0.185663 0.760507 0)
(0.219905 0.727118 0)
(0.25569 0.690281 0)
(0.29364 0.651186 0)
(0.334348 0.610261 0)
(0.378703 0.567116 0)
(0.427935 0.520552 0)
(0.483254 0.468833 0)
(0.54477 0.409984 0)
(0.610387 0.341844 0)
(0.675209 0.262676 0)
(0.731961 0.172403 0)
(0.771881 0.075626 0)
(0.787601 -0.0198199 0)
(0.769217 -0.0963141 0)
(0.708731 -0.140592 0)
(0.627461 -0.167369 0)
(0.504976 -0.183187 0)
(0.505725 -0.260198 0)
(0.511055 -0.336016 0)
(0.508957 -0.413503 0)
(0.500502 -0.487655 0)
(0.488038 -0.554454 0)
(0.47207 -0.613688 0)
(0.451598 -0.665685 0)
(0.425434 -0.710991 0)
(0.392686 -0.750409 0)
(0.352974 -0.78441 0)
(0.306254 -0.812535 0)
(0.252478 -0.83306 0)
(0.191504 -0.842885 0)
(0.125476 -0.837122 0)
(0.0741167 -0.800456 0)
(-0.107892 0.174022 0)
(-0.0239331 0.447325 0)
(0.0516749 0.671579 0)
(0.104583 0.758905 0)
(0.15359 0.783992 0)
(0.198545 0.77921 0)
(0.240981 0.759424 0)
(0.282696 0.731186 0)
(0.324513 0.697151 0)
(0.366927 0.659283 0)
(0.409935 0.61897 0)
(0.453401 0.57652 0)
(0.497574 0.531225 0)
(0.543267 0.481665 0)
(0.591539 0.42642 0)
(0.642386 0.364819 0)
(0.693368 0.296714 0)
(0.739214 0.22247 0)
(0.773181 0.14299 0)
(0.7853 0.0639212 0)
(0.77306 -0.00864299 0)
(0.716205 -0.0581643 0)
(0.636095 -0.057009 0)
(0.530718 -0.104579 0)
(0.532606 -0.178757 0)
(0.535145 -0.253762 0)
(0.52949 -0.331909 0)
(0.518346 -0.408292 0)
(0.50376 -0.478505 0)
(0.487286 -0.542127 0)
(0.468655 -0.598549 0)
(0.446561 -0.646978 0)
(0.419327 -0.687763 0)
(0.38587 -0.722123 0)
(0.345947 -0.75094 0)
(0.299709 -0.773922 0)
(0.24717 -0.789331 0)
(0.188125 -0.793959 0)
(0.122405 -0.782169 0)
(0.072891 -0.729496 0)
(-0.0320281 0.142363 0)
(-0.0837028 0.45035 0)
(0.0731915 0.625622 0)
(0.145555 0.706705 0)
(0.212216 0.741043 0)
(0.269472 0.74112 0)
(0.321432 0.723002 0)
(0.370675 0.695693 0)
(0.418357 0.661741 0)
(0.465275 0.623865 0)
(0.510954 0.583931 0)
(0.554442 0.542122 0)
(0.595289 0.497256 0)
(0.633973 0.447437 0)
(0.671699 0.391283 0)
(0.708683 0.329681 0)
(0.741994 0.265091 0)
(0.764785 0.20024 0)
(0.772511 0.136839 0)
(0.747274 0.078006 0)
(0.704681 0.0418305 0)
(0.582065 0.0305669 0)
(0.563689 -0.0317854 0)
(0.566064 -0.0995691 0)
(0.56327 -0.171489 0)
(0.55407 -0.248084 0)
(0.53884 -0.324164 0)
(0.520142 -0.396529 0)
(0.500152 -0.464596 0)
(0.480086 -0.527139 0)
(0.459558 -0.581948 0)
(0.436549 -0.627306 0)
(0.408611 -0.663748 0)
(0.374564 -0.69329 0)
(0.334574 -0.717359 0)
(0.289135 -0.735748 0)
(0.238287 -0.746507 0)
(0.181451 -0.74609 0)
(0.118214 -0.728133 0)
(0.0616723 -0.662235 0)
(0.0097364 0.205478 0)
(-0.104643 0.329901 0)
(0.0320622 0.567903 0)
(0.152693 0.638496 0)
(0.247646 0.681454 0)
(0.318775 0.689785 0)
(0.381186 0.676615 0)
(0.437335 0.653396 0)
(0.488775 0.621223 0)
(0.537829 0.584657 0)
(0.58367 0.54693 0)
(0.624473 0.508304 0)
(0.659116 0.466978 0)
(0.687723 0.420161 0)
(0.711944 0.366384 0)
(0.732499 0.30942 0)
(0.746992 0.254443 0)
(0.741133 0.202767 0)
(0.723893 0.167611 0)
(0.649965 0.136402 0)
(0.608514 0.0930613 0)
(0.604074 0.0366795 0)
(0.601619 -0.0252668 0)
(0.594333 -0.0921847 0)
(0.581775 -0.164281 0)
(0.562636 -0.236924 0)
(0.539168 -0.308437 0)
(0.513652 -0.37887 0)
(0.488692 -0.447097 0)
(0.465817 -0.510237 0)
(0.444288 -0.564462 0)
(0.420961 -0.607009 0)
(0.392415 -0.639037 0)
(0.357664 -0.66395 0)
(0.317704 -0.683858 0)
(0.27356 -0.698426 0)
(0.225286 -0.705167 0)
(0.171864 -0.699837 0)
(0.113175 -0.675302 0)
(0.0553184 -0.600965 0)
(0.035008 0.230972 0)
(0.0388162 0.290907 0)
(-0.0202672 0.539643 0)
(0.140409 0.591718 0)
(0.255635 0.628987 0)
(0.33914 0.636042 0)
(0.410583 0.627489 0)
(0.470604 0.609979 0)
(0.522001 0.580446 0)
(0.570342 0.547201 0)
(0.614227 0.514506 0)
(0.651018 0.482353 0)
(0.679061 0.448205 0)
(0.698262 0.408553 0)
(0.709749 0.362015 0)
(0.713088 0.316146 0)
(0.712956 0.280548 0)
(0.660222 0.234252 0)
(0.645527 0.189388 0)
(0.644279 0.145037 0)
(0.642589 0.096278 0)
(0.636802 0.0424786 0)
(0.626564 -0.0175757 0)
(0.611131 -0.0827304 0)
(0.589029 -0.149516 0)
(0.561537 -0.217074 0)
(0.530281 -0.285993 0)
(0.498171 -0.35644 0)
(0.468767 -0.426668 0)
(0.443946 -0.492077 0)
(0.422244 -0.546722 0)
(0.398844 -0.586334 0)
(0.36927 -0.613503 0)
(0.333376 -0.63403 0)
(0.293584 -0.650716 0)
(0.251545 -0.662648 0)
(0.207192 -0.666396 0)
(0.158957 -0.656749 0)
(0.107022 -0.625615 0)
(0.0526567 -0.540693 0)
(0.0579476 0.238615 0)
(0.0700872 0.300048 0)
(0.0980414 0.3594 0)
(0.192686 0.452736 0)
(0.228288 0.612706 0)
(0.32463 0.633559 0)
(0.404332 0.628807 0)
(0.464759 0.60848 0)
(0.512478 0.575245 0)
(0.557634 0.544348 0)
(0.597868 0.51847 0)
(0.631034 0.494142 0)
(0.656324 0.467592 0)
(0.673746 0.434373 0)
(0.684559 0.390301 0)
(0.653628 0.318955 0)
(0.658009 0.267037 0)
(0.66852 0.227947 0)
(0.673221 0.188872 0)
(0.67222 0.147214 0)
(0.666915 0.101337 0)
(0.656765 0.0499206 0)
(0.640268 -0.00609664 0)
(0.616715 -0.0651572 0)
(0.58675 -0.126568 0)
(0.551276 -0.190317 0)
(0.512128 -0.257612 0)
(0.473414 -0.329512 0)
(0.440174 -0.403833 0)
(0.414346 -0.47336 0)
(0.392893 -0.529099 0)
(0.368654 -0.56488 0)
(0.336674 -0.586469 0)
(0.298875 -0.603283 0)
(0.259724 -0.618411 0)
(0.22117 -0.629475 0)
(0.182614 -0.631667 0)
(0.141668 -0.618645 0)
(0.0985918 -0.581139 0)
(0.0491825 -0.482199 0)
(0.0856818 0.23681 0)
(0.0994735 0.298728 0)
(0.124884 0.351666 0)
(0.166759 0.400915 0)
(0.231235 0.443494 0)
(0.307971 0.477333 0)
(0.356105 0.507751 0)
(0.409709 0.546232 0)
(0.462018 0.521549 0)
(0.501652 0.489648 0)
(0.532257 0.458408 0)
(0.559228 0.429014 0)
(0.584999 0.399467 0)
(0.610722 0.366692 0)
(0.639657 0.330531 0)
(0.666042 0.296484 0)
(0.680684 0.26113 0)
(0.687928 0.225941 0)
(0.690417 0.189526 0)
(0.688397 0.150283 0)
(0.680978 0.1077 0)
(0.666567 0.0618289 0)
(0.644119 0.0124981 0)
(0.613755 -0.0406691 0)
(0.576291 -0.0971646 0)
(0.532449 -0.156887 0)
(0.484712 -0.223013 0)
(0.439453 -0.298413 0)
(0.403683 -0.379712 0)
(0.378021 -0.454272 0)
(0.355818 -0.509973 0)
(0.326994 -0.540211 0)
(0.289593 -0.556014 0)
(0.249761 -0.571549 0)
(0.2129 -0.587994 0)
(0.180272 -0.600568 0)
(0.150139 -0.602872 0)
(0.119003 -0.587423 0)
(0.0865124 -0.543912 0)
(0.0454716 -0.429712 0)
(0.114218 0.224314 0)
(0.130638 0.284952 0)
(0.156577 0.340143 0)
(0.191442 0.38354 0)
(0.23665 0.416169 0)
(0.29252 0.441279 0)
(0.348246 0.45335 0)
(0.404441 0.45039 0)
(0.456144 0.440274 0)
(0.49671 0.42743 0)
(0.533425 0.412344 0)
(0.56722 0.394857 0)
(0.599434 0.374142 0)
(0.630295 0.348784 0)
(0.657262 0.3194 0)
(0.676947 0.288686 0)
(0.689698 0.256862 0)
(0.697274 0.223859 0)
(0.700074 0.189622 0)
(0.697305 0.154269 0)
(0.687719 0.117595 0)
(0.6697 0.0788614 0)
(0.642005 0.0368099 0)
(0.604794 -0.00974544 0)
(0.558964 -0.0602067 0)
(0.505058 -0.11505 0)
(0.447489 -0.181695 0)
(0.396699 -0.264387 0)
(0.362224 -0.355118 0)
(0.33753 -0.433025 0)
(0.307418 -0.484342 0)
(0.261935 -0.506638 0)
(0.218121 -0.520974 0)
(0.180001 -0.54039 0)
(0.149704 -0.561993 0)
(0.127073 -0.578584 0)
(0.108843 -0.582464 0)
(0.0903352 -0.565165 0)
(0.0694147 -0.515551 0)
(0.0422473 -0.385113 0)
(0.136182 0.211519 0)
(0.159605 0.262242 0)
(0.188419 0.313782 0)
(0.222801 0.359771 0)
(0.264514 0.393132 0)
(0.311533 0.41453 0)
(0.361326 0.425694 0)
(0.412577 0.426919 0)
(0.46108 0.420775 0)
(0.503174 0.409893 0)
(0.541058 0.395623 0)
(0.575638 0.378424 0)
(0.607401 0.358037 0)
(0.636062 0.334397 0)
(0.660404 0.308042 0)
(0.679664 0.279449 0)
(0.693707 0.249368 0)
(0.702476 0.219128 0)
(0.705718 0.18935 0)
(0.702555 0.159847 0)
(0.69155 0.130343 0)
(0.670622 0.10034 0)
(0.637732 0.0681668 0)
(0.592496 0.0313621 0)
(0.535167 -0.0106813 0)
(0.46673 -0.0614651 0)
(0.397743 -0.134281 0)
(0.345351 -0.228626 0)
(0.315275 -0.322871 0)
(0.27496 -0.395097 0)
(0.212717 -0.443969 0)
(0.146745 -0.466496 0)
(0.111632 -0.48766 0)
(0.0848448 -0.515766 0)
(0.0688548 -0.545247 0)
(0.0615149 -0.567313 0)
(0.0589606 -0.57341 0)
(0.0556247 -0.554039 0)
(0.047127 -0.497448 0)
(0.0346937 -0.34742 0)
(0.149748 0.202774 0)
(0.182608 0.247017 0)
(0.215116 0.287876 0)
(0.250904 0.325867 0)
(0.291343 0.357702 0)
(0.33454 0.381193 0)
(0.379768 0.394746 0)
(0.425552 0.398143 0)
(0.4694 0.394259 0)
(0.509831 0.385465 0)
(0.546993 0.372984 0)
(0.580995 0.357312 0)
(0.611872 0.338333 0)
(0.63938 0.316112 0)
(0.663007 0.291328 0)
(0.682326 0.265027 0)
(0.697094 0.238616 0)
(0.706854 0.213167 0)
(0.710753 0.18904 0)
(0.707751 0.166225 0)
(0.696325 0.145073 0)
(0.673757 0.125685 0)
(0.636272 0.105795 0)
(0.580546 0.0805119 0)
(0.502385 0.0462142 0)
(0.40566 -0.00123595 0)
(0.316617 -0.0752717 0)
(0.251475 -0.16636 0)
(0.203541 -0.262317 0)
(0.0808916 -0.330818 0)
(0.00124094 -0.394196 0)
(-0.0144341 -0.436784 0)
(-0.0265229 -0.468299 0)
(-0.0304548 -0.50674 0)
(-0.0251312 -0.543454 0)
(-0.0133247 -0.570694 0)
(0.00231263 -0.578534 0)
(0.0154312 -0.555711 0)
(0.0192747 -0.490991 0)
(0.0184179 -0.321304 0)
(0.139934 0.18415 0)
(0.189155 0.231902 0)
(0.233438 0.271254 0)
(0.275636 0.302719 0)
(0.315891 0.327065 0)
(0.356452 0.345386 0)
(0.398338 0.356861 0)
(0.440334 0.360737 0)
(0.480776 0.358618 0)
(0.51889 0.352051 0)
(0.55446 0.341934 0)
(0.587259 0.328681 0)
(0.61709 0.312187 0)
(0.643729 0.292767 0)
(0.666891 0.271356 0)
(0.686293 0.249056 0)
(0.701598 0.227094 0)
(0.712198 0.206554 0)
(0.717102 0.187987 0)
(0.715082 0.171441 0)
(0.704272 0.157589 0)
(0.681118 0.147353 0)
(0.639047 0.138673 0)
(0.563914 0.125143 0)
(0.426611 0.109468 0)
(0.246908 0.0977792 0)
(0.0987798 0.04735 0)
(-0.101365 -0.0550811 0)
(-0.269693 -0.231819 0)
(-0.219588 -0.317743 0)
(-0.202496 -0.374866 0)
(-0.18336 -0.427634 0)
(-0.169804 -0.473824 0)
(-0.1484 -0.518059 0)
(-0.122112 -0.559373 0)
(-0.091683 -0.590547 0)
(-0.0583957 -0.598726 0)
(-0.0294945 -0.568762 0)
(-0.0153147 -0.49438 0)
(-0.00654015 -0.31858 0)
(0.177681 0.0880092 0)