/*--------------------------------*- C++ -*----------------------------------*\
| =========                 |                                                 |
| \\      /  F ield         | OpenFOAM: The Open Source CFD Toolbox           |
|  \\    /   O peration     | Version:  5.0                                   |
|   \\  /    A nd           | Web:      www.OpenFOAM.org                      |
|    \\/     M anipulation  |                                                 |
\*---------------------------------------------------------------------------*/
FoamFile
{
    version     2.0;
    format      ascii;
    class       volScalarField;
    location    "0.4";
    object      alpha.water;
}
// * * * * * * * * * * * * * * * * * * * * * * * * * * * * * * * * * * * * * //

dimensions      [0 0 0 0 0 0 0];

internalField   nonuniform List<scalar> 
1915
(
-5.35508e-13
-3.29976e-13
-1.59562e-13
-5.91102e-14
-1.61478e-14
-3.36491e-15
-5.18983e-16
-2.4238e-17
3.98162e-17
5.33759e-17
6.6647e-17
9.4247e-17
2.2418e-16
1.08826e-15
7.15403e-15
4.83443e-14
3.0349e-13
1.58755e-12
6.44876e-12
2.04911e-11
5.30248e-11
1.11164e-10
2.81666e-10
4.37948e-10
3.84323e-10
-3.54746e-20
-3.38622e-19
-1.86464e-18
-6.93834e-18
-2.11914e-17
-6.34134e-17
-1.90834e-16
-5.21812e-16
-1.20409e-15
-2.4219e-15
-4.50535e-15
-8.43214e-15
-1.68413e-14
-3.48229e-14
-6.85775e-14
-1.20551e-13
-1.82894e-13
-2.3528e-13
-2.53093e-13
-2.24109e-13
-1.6011e-13
-8.98678e-14
-3.81914e-14
-1.16127e-14
-2.28257e-15
-3.06723e-16
-2.64937e-17
3.01503e-18
5.61765e-18
7.40371e-18
1.07062e-17
2.51471e-17
1.27736e-16
8.98607e-16
6.53428e-15
4.70487e-14
3.06027e-13
1.63822e-12
6.78408e-12
2.21082e-11
5.82986e-11
1.27253e-10
2.90073e-10
6.00167e-10
4.364e-10
-1.2994e-20
-1.17402e-19
-6.14692e-19
-2.24916e-18
-7.13759e-18
-2.25366e-17
-6.80531e-17
-1.78874e-16
-3.98943e-16
-7.87743e-16
-1.47963e-15
-2.88058e-15
-5.97882e-15
-1.24479e-14
-2.39432e-14
-4.04553e-14
-5.86181e-14
-7.18274e-14
-7.34494e-14
-6.16395e-14
-4.14746e-14
-2.16298e-14
-8.29192e-15
-2.12629e-15
-2.97372e-16
-2.16006e-17
-6.28983e-19
4.58773e-19
6.94558e-19
1.03684e-18
2.30808e-18
1.16952e-17
8.90875e-17
6.69481e-16
4.7538e-15
3.3826e-14
2.33984e-13
1.37947e-12
6.37902e-12
2.24357e-11
6.11058e-11
1.40497e-10
3.04189e-10
7.24859e-10
4.89051e-10
-3.93736e-21
-3.36835e-20
-1.70091e-19
-6.26029e-19
-2.09152e-18
-6.8543e-18
-2.04232e-17
-5.17249e-17
-1.11771e-16
-2.17613e-16
-4.15269e-16
-8.3746e-16
-1.77295e-15
-3.64926e-15
-6.78805e-15
-1.09927e-14
-1.52354e-14
-1.78703e-14
-1.75181e-14
-1.41077e-14
-9.10131e-15
-4.52656e-15
-1.62852e-15
-3.74905e-16
-4.04176e-17
-8.57828e-19
2.71286e-20
5.45895e-20
8.5101e-20
1.79771e-19
8.49299e-19
6.94314e-18
5.7137e-17
4.28703e-16
3.15518e-15
2.38273e-14
1.75856e-13
1.11941e-12
5.53467e-12
2.09526e-11
6.27912e-11
1.54182e-10
3.38655e-10
7.58e-10
6.0378e-10
-9.4354e-22
-7.71125e-21
-3.80396e-20
-1.42913e-19
-5.00422e-19
-1.66718e-18
-4.85716e-18
-1.1871e-17
-2.48571e-17
-4.75709e-17
-9.12741e-17
-1.87114e-16
-3.97945e-16
-8.0825e-16
-1.46213e-15
-2.28718e-15
-3.0562e-15
-3.45691e-15
-3.27359e-15
-2.55506e-15
-1.60395e-15
-7.78997e-16
-2.74124e-16
-6.15207e-17
-6.2984e-18
4.43149e-21
3.08866e-21
6.00683e-21
1.24546e-20
5.41703e-20
4.51578e-19
4.11028e-18
3.40107e-17
2.64466e-16
2.02038e-15
1.58068e-14
1.23708e-13
8.60053e-13
4.75511e-12
2.01348e-11
6.58117e-11
1.71639e-10
3.68617e-10
7.48359e-10
9.93834e-10
-1.69009e-22
-1.32861e-21
-6.47432e-21
-2.5022e-20
-9.09048e-20
-3.03385e-19
-8.59272e-19
-2.01724e-18
-4.03894e-18
-7.3935e-18
-1.37116e-17
-2.7562e-17
-5.83581e-17
-1.1897e-16
-2.13552e-16
-3.28288e-16
-4.29311e-16
-4.7366e-16
-4.36903e-16
-3.32694e-16
-2.04363e-16
-9.74838e-17
-3.38573e-17
-7.56644e-18
-7.95067e-19
1.9001e-22
3.22945e-22
8.12051e-22
3.52051e-21
2.91328e-20
2.7946e-19
2.53076e-18
2.14928e-17
1.7327e-16
1.36409e-15
1.09527e-14
8.92161e-14
6.69985e-13
4.13212e-12
1.95076e-11
6.92488e-11
1.89345e-10
4.256e-10
7.77464e-10
1.26264e-09
-2.02325e-23
-1.53809e-22
-7.46636e-22
-2.9744e-21
-1.10857e-20
-3.66499e-20
-1.00049e-19
-2.21573e-19
-4.05499e-19
-6.4629e-19
-1.00582e-18
-1.68819e-18
-3.5156e-18
-8.09244e-18
-1.57506e-17
-2.50395e-17
-3.34013e-17
-3.67639e-17
-3.32815e-17
-2.47899e-17
-1.49041e-17
-6.97406e-18
-2.38391e-18
-5.27056e-19
-5.55045e-20
9.99647e-24
4.69152e-23
2.43786e-22
2.09273e-21
2.03597e-20
1.92228e-19
1.7449e-18
1.51747e-17
1.25757e-16
1.0132e-15
8.22678e-15
6.81742e-14
5.42162e-13
3.67734e-12
1.90431e-11
7.15241e-11
2.04222e-10
4.71555e-10
8.86228e-10
1.30985e-09
-1.21888e-24
-8.99703e-24
-4.37414e-23
-1.79251e-22
-6.77741e-22
-2.19352e-21
-5.66205e-21
-1.1229e-20
-1.60218e-20
-1.24715e-20
4.16382e-21
1.16558e-19
2.74057e-19
3.14363e-19
1.78076e-19
4.2816e-22
-3.84279e-19
-6.237e-19
-5.7345e-19
-4.05268e-19
-2.24329e-19
-9.47701e-20
-2.86473e-20
-5.38426e-21
-4.25948e-22
1.49899e-24
1.54729e-23
1.49531e-22
1.53666e-21
1.48691e-20
1.38863e-19
1.26413e-18
1.11341e-17
9.44287e-17
7.77189e-16
6.37013e-15
5.32369e-14
4.41033e-13
3.22489e-12
1.79651e-11
7.14763e-11
2.11051e-10
4.92391e-10
9.48916e-10
1.36987e-09
2.20023e-42
5.73896e-47
-1.49094e-46
-2.82515e-44
-2.26928e-40
-1.87091e-40
-4.50925e-37
-7.32148e-34
-5.61079e-32
-3.60745e-30
-8.38925e-31
2.73737e-23
3.99804e-21
3.04907e-20
8.767e-21
6.44725e-20
3.37761e-20
4.57322e-21
1.19148e-21
2.03517e-22
3.51922e-23
1.19627e-23
4.11918e-24
1.1765e-24
6.48894e-25
6.66352e-25
8.35785e-24
9.55757e-23
9.84793e-22
9.64689e-21
9.17379e-20
8.47515e-19
7.60505e-18
6.60036e-17
5.53615e-16
4.56641e-15
3.8397e-14
3.29676e-13
2.57902e-12
1.5426e-11
6.45592e-11
1.95731e-10
4.79994e-10
9.65047e-10
1.54945e-09
-2.44676e-43
-6.93827e-50
6.10639e-45
7.2631e-43
1.43884e-40
1.30402e-38
4.36852e-37
2.60537e-35
1.61669e-33
1.44049e-30
2.64189e-28
7.64797e-28
5.75549e-27
2.43872e-24
8.15984e-23
4.50397e-22
2.54122e-25
2.63561e-25
1.34169e-25
2.07885e-26
1.41293e-27
1.0645e-28
1.87583e-28
1.76125e-27
2.12325e-26
3.38682e-25
4.09774e-24
4.61609e-23
4.91148e-22
5.02915e-21
4.94949e-20
4.70618e-19
4.33706e-18
3.86557e-17
3.32265e-16
2.79131e-15
2.38621e-14
2.1186e-13
1.77039e-12
1.15387e-11
5.20149e-11
1.63686e-10
4.01659e-10
8.79355e-10
1.60405e-09
-8.86998e-44
-4.1722e-54
-1.38203e-43
7.69128e-44
-5.85179e-41
-1.22246e-37
-1.01918e-35
-6.25114e-34
-3.2563e-32
6.97722e-30
2.44131e-28
4.1412e-28
5.44526e-28
2.82917e-28
2.90808e-28
1.37361e-28
3.45093e-29
1.03033e-29
5.70429e-30
4.55812e-30
4.21911e-30
5.93474e-30
3.80374e-29
5.89087e-28
9.09965e-27
1.21389e-25
1.52218e-24
1.77846e-23
1.98968e-22
2.12164e-21
2.16714e-20
2.13092e-19
2.02406e-18
1.85667e-17
1.64097e-16
1.41337e-15
1.23617e-14
1.13773e-13
1.02041e-12
7.34696e-12
3.66666e-11
1.24954e-10
3.19085e-10
7.19421e-10
1.53179e-09
-1.04556e-44
-1.22301e-48
2.71246e-48
-3.21421e-44
-3.6773e-42
-5.28811e-41
-2.08171e-40
6.54781e-39
3.47984e-37
3.37186e-34
2.33408e-31
4.28141e-30
1.27066e-29
1.83933e-29
1.85844e-29
9.18043e-30
2.5599e-30
8.82002e-31
5.02751e-31
3.82999e-31
3.4819e-31
9.18785e-31
1.20444e-29
2.00086e-28
2.92779e-27
3.93686e-26
5.02124e-25
6.11337e-24
7.0436e-23
7.73708e-22
8.14436e-21
8.24901e-20
8.06017e-19
7.59537e-18
6.88548e-17
6.06213e-16
5.40709e-15
5.13821e-14
4.93132e-13
3.94732e-12
2.23131e-11
8.56129e-11
2.37493e-10
5.40672e-10
1.12464e-09
-6.15789e-60
1.57033e-53
2.13757e-50
2.34008e-48
4.57336e-46
3.90665e-44
1.84191e-42
1.00118e-40
5.04594e-39
1.53804e-36
5.3804e-34
1.02366e-32
3.51157e-32
6.36866e-32
8.364e-32
9.11631e-32
8.64264e-32
5.97625e-32
4.13077e-32
3.23694e-32
4.16705e-32
2.74074e-31
4.51285e-30
6.48927e-29
9.0966e-28
1.2396e-26
1.61106e-25
1.98477e-24
2.32667e-23
2.60281e-22
2.79059e-21
2.88313e-20
2.87699e-19
2.76883e-18
2.56105e-17
2.29173e-16
2.06207e-15
1.98299e-14
2.0011e-13
1.78224e-12
1.15834e-11
5.11759e-11
1.59298e-10
3.86005e-10
8.59559e-10
-4.73247e-62
-2.00875e-54
-2.12767e-50
1.14378e-49
-1.57285e-48
-8.24473e-45
-5.60323e-43
-2.81843e-41
-1.09065e-39
2.22175e-38
1.10509e-35
5.39806e-34
2.4836e-33
5.20858e-33
7.40736e-33
8.31363e-33
8.17677e-33
5.34963e-33
3.66773e-33
3.19219e-33
9.03396e-33
8.97552e-32
1.342e-30
2.00318e-29
2.86263e-28
3.8852e-27
5.03089e-26
6.22827e-25
7.39212e-24
8.37857e-23
9.08364e-22
9.48914e-21
9.58917e-20
9.35826e-19
8.78837e-18
7.96952e-17
7.16945e-16
6.7845e-15
6.91087e-14
6.68522e-13
5.01882e-12
2.62101e-11
9.49054e-11
2.50599e-10
5.58703e-10
-1.80888e-56
-3.58131e-54
2.10781e-53
-1.00677e-49
-8.3381e-48
-5.72443e-47
3.18293e-45
1.79551e-43
7.56819e-42
4.27317e-40
2.90101e-37
2.11052e-35
1.11437e-34
2.53371e-34
3.85104e-34
4.578e-34
4.71887e-34
3.62315e-34
2.56124e-34
3.84208e-34
1.77195e-33
2.74509e-32
4.20264e-31
6.16702e-30
8.68386e-29
1.17355e-27
1.5187e-26
1.88652e-25
2.26017e-24
2.59225e-23
2.84423e-22
3.00413e-21
3.06901e-20
3.02833e-19
2.87975e-18
2.64715e-17
2.3861e-16
2.19004e-15
2.1298e-14
2.09613e-13
1.77709e-12
1.11406e-11
4.82882e-11
1.46313e-10
3.5678e-10
-6.10666e-67
1.56922e-57
5.64803e-55
9.15064e-53
7.79964e-51
5.05809e-49
1.77104e-47
7.73161e-46
2.9176e-44
3.22751e-42
2.02117e-39
3.43976e-37
3.50214e-36
1.05523e-35
1.85907e-35
2.35983e-35
2.48265e-35
1.98731e-35
1.28946e-35
5.1054e-35
5.96285e-34
8.79771e-33
1.30355e-31
1.87245e-30
2.60378e-29
3.48608e-28
4.49393e-27
5.60052e-26
6.72007e-25
7.74453e-24
8.5881e-23
9.19429e-22
9.51985e-21
9.517e-20
9.18025e-19
8.55637e-18
7.74617e-17
6.92429e-16
6.29872e-15
5.87498e-14
5.19103e-13
3.77402e-12
1.99065e-11
7.18531e-11
1.98151e-10
-1.75974e-69
-6.81703e-60
1.92153e-57
3.64665e-55
-3.06766e-53
-3.31148e-50
-1.9154e-48
-8.6943e-47
-3.46179e-45
3.47291e-44
2.14795e-42
1.84061e-39
7.64977e-38
3.45812e-37
7.28065e-37
1.0029e-36
1.06178e-36
9.10169e-37
1.92489e-36
1.35671e-35
1.90525e-34
2.83225e-33
4.10849e-32
5.80408e-31
7.93514e-30
1.0477e-28
1.33822e-27
1.66239e-26
1.98508e-25
2.28777e-24
2.54815e-23
2.74852e-22
2.86716e-21
2.8867e-20
2.8066e-19
2.63628e-18
2.39637e-17
2.10861e-16
1.81538e-15
1.5595e-14
1.32175e-13
1.02595e-12
6.39664e-12
2.77895e-11
9.68168e-11
-1.48609e-62
-4.01671e-60
-7.31405e-58
-8.4192e-56
-6.08365e-54
-3.60443e-53
8.29141e-52
3.92478e-50
1.62785e-48
6.24782e-47
4.17557e-45
5.18117e-42
8.21712e-40
7.48162e-39
2.05415e-38
3.06746e-38
3.26377e-38
4.7268e-38
2.646e-37
3.94168e-36
6.21725e-35
9.40877e-34
1.36554e-32
1.90549e-31
2.56332e-30
3.33048e-29
4.18584e-28
5.08822e-27
6.00166e-26
6.90013e-25
7.68285e-24
8.2637e-23
8.58351e-22
8.60006e-21
8.30075e-20
7.73495e-19
6.94876e-18
5.97483e-17
4.94999e-16
3.9831e-15
3.13484e-14
2.38316e-13
1.61671e-12
8.24387e-12
3.64065e-11
-4.70763e-72
3.09265e-64
6.87397e-62
8.1892e-60
7.12349e-58
4.26161e-56
4.37063e-55
-6.0487e-54
-7.07112e-52
2.52708e-49
1.70008e-47
4.9905e-46
8.50107e-43
5.88992e-41
2.81547e-40
4.81794e-40
6.19712e-40
3.91371e-39
6.23199e-38
1.05556e-36
1.71296e-35
2.65652e-34
3.94714e-33
5.63187e-32
7.73123e-31
1.02267e-29
1.30499e-28
1.6077e-27
1.91296e-26
2.19758e-25
2.43763e-24
2.60943e-23
2.69294e-22
2.67565e-21
2.55534e-20
2.34101e-19
2.05242e-18
1.71849e-17
1.36807e-16
1.03132e-15
7.5153e-15
5.45441e-14
3.85161e-13
2.2266e-12
1.10371e-11
-3.06007e-73
-1.61962e-67
2.42608e-64
4.9101e-62
-6.85752e-61
-1.66145e-57
-7.30712e-56
-2.35005e-54
-5.64206e-53
1.34373e-50
4.97035e-49
1.43633e-47
9.7668e-46
1.4233e-43
1.43689e-42
4.00098e-42
4.00059e-41
7.23072e-40
1.32999e-38
2.3261e-37
3.86966e-36
6.14189e-35
9.32444e-34
1.35694e-32
1.89613e-31
2.54768e-30
3.29478e-29
4.10387e-28
4.92473e-27
5.69358e-26
6.33957e-25
6.79409e-24
7.00173e-23
6.93079e-22
6.58053e-21
5.98329e-20
5.20052e-19
4.3124e-18
3.40443e-17
2.55282e-16
1.77721e-15
1.21998e-14
9.2152e-14
6.61806e-13
3.81907e-12
-4.57805e-69
-1.18732e-66
-1.8202e-64
-1.80686e-62
-1.02222e-60
2.25009e-59
2.16121e-57
1.2305e-55
5.95174e-54
5.11493e-52
1.89092e-50
6.09207e-49
1.7774e-47
4.70722e-46
1.16225e-44
2.69929e-43
5.86966e-42
1.18383e-40
2.24515e-39
4.03046e-38
6.87424e-37
1.11712e-35
1.73385e-34
2.57532e-33
3.66662e-32
5.01028e-31
6.57677e-30
8.2977e-29
1.00651e-27
1.17377e-26
1.31559e-25
1.41632e-24
1.46344e-23
1.44989e-22
1.37557e-21
1.24817e-20
1.08137e-19
8.93139e-19
7.01749e-18
5.23434e-17
3.67137e-16
2.4232e-15
1.65132e-14
1.26483e-13
1.06484e-12
-6.7999e-76
4.21736e-69
1.62086e-66
3.02889e-64
3.68061e-62
3.23967e-60
2.08831e-58
1.23281e-56
8.734e-55
5.29515e-53
1.97613e-51
6.55984e-50
1.9735e-48
5.4328e-47
1.37935e-45
3.25157e-44
7.15765e-43
1.47876e-41
2.87948e-40
5.30407e-39
9.27261e-38
1.54262e-36
2.44775e-35
3.71132e-34
5.38571e-33
7.48878e-32
9.98651e-31
1.27772e-29
1.56881e-28
1.84885e-27
2.09058e-26
2.26563e-25
2.35352e-24
2.34014e-23
2.22259e-22
2.01675e-21
1.74544e-20
1.43754e-19
1.12267e-18
8.25425e-18
5.60768e-17
3.78049e-16
2.71214e-15
1.86073e-14
1.40895e-13
-1.97488e-77
9.37221e-71
9.99468e-68
1.95061e-65
9.78058e-64
-6.74857e-62
9.02806e-60
1.54719e-57
9.10821e-56
3.96357e-54
1.51364e-52
5.17809e-51
1.60521e-49
4.55125e-48
1.18953e-46
2.88464e-45
6.52857e-44
1.38551e-42
2.76855e-41
5.22934e-40
9.36344e-39
1.59312e-37
2.58248e-36
3.99507e-35
5.90572e-34
8.34785e-33
1.12983e-31
1.46474e-30
1.81709e-29
2.16061e-28
2.46005e-27
2.67194e-26
2.77742e-25
2.74167e-24
2.55253e-23
2.27055e-22
1.92831e-21
1.56261e-20
1.20747e-19
8.86304e-19
6.08307e-18
4.50642e-17
3.63655e-16
2.52238e-15
1.88324e-14
-1.0097e-72
-2.6986e-70
-4.11389e-68
-3.48829e-66
-9.39624e-65
1.45554e-62
1.56212e-60
9.8281e-59
5.03631e-57
2.24018e-55
8.80739e-54
3.10245e-52
9.90003e-51
2.8875e-49
7.75971e-48
1.93324e-46
4.49269e-45
9.77177e-44
2.00098e-42
3.86762e-41
7.07187e-40
1.22937e-38
2.03274e-37
3.19019e-36
4.78689e-35
6.85573e-34
9.29901e-33
1.20279e-31
1.48863e-30
1.76289e-29
1.99732e-28
2.16462e-27
2.24326e-26
2.22225e-25
2.10395e-24
1.90248e-23
1.6424e-22
1.35307e-21
1.06304e-20
7.80994e-20
5.71928e-19
4.86309e-18
4.03522e-17
2.82942e-16
2.11057e-15
-6.1807e-81
6.18278e-73
2.50992e-70
4.97759e-68
6.45839e-66
6.15495e-64
6.488e-62
4.03371e-60
2.12532e-58
9.72733e-57
3.93268e-55
1.42296e-53
4.6533e-52
1.3898e-50
3.81941e-49
9.68819e-48
2.2909e-46
5.02995e-45
1.0359e-43
2.01843e-42
3.7297e-41
6.54876e-40
1.09442e-38
1.74324e-37
2.64925e-36
3.84446e-35
5.3311e-34
7.06656e-33
8.95561e-32
1.08522e-30
1.25737e-29
1.39277e-28
1.47463e-27
1.49202e-26
1.44226e-25
1.33162e-24
1.17404e-23
9.88107e-23
7.90804e-22
5.88904e-21
4.85582e-20
4.73676e-19
3.88797e-18
2.77775e-17
2.07209e-16
-6.24555e-83
1.21547e-74
6.73059e-72
1.40758e-69
1.47402e-67
2.45832e-65
1.97528e-63
1.25825e-61
6.78628e-60
3.16434e-58
1.28999e-56
4.62646e-55
1.48971e-53
4.4216e-52
1.21714e-50
3.12367e-49
7.50681e-48
1.69584e-46
3.61266e-45
7.2769e-44
1.38914e-42
2.51809e-41
4.34134e-40
7.12819e-39
1.11584e-37
1.6667e-36
2.37694e-35
3.23805e-34
4.21487e-33
5.24318e-32
6.23364e-31
7.08303e-30
7.69121e-29
7.98033e-28
7.91127e-27
7.49245e-26
6.77792e-25
5.85387e-24
4.70509e-23
3.83872e-22
3.85933e-21
3.84136e-20
3.20018e-19
2.34957e-18
1.77849e-17
-1.82659e-77
-4.35298e-75
-4.77302e-73
-1.89371e-71
3.33829e-69
5.57469e-67
4.3898e-65
2.77037e-63
1.41479e-61
6.33935e-60
2.55045e-58
9.31134e-57
3.11156e-55
9.58525e-54
2.73852e-52
7.29351e-51
1.81863e-49
4.26124e-48
9.41173e-47
1.9647e-45
3.88498e-44
7.2907e-43
1.30054e-41
2.20809e-40
3.57199e-39
5.51028e-38
8.11136e-37
1.13996e-35
1.53009e-34
1.96194e-33
2.40359e-32
2.81371e-31
3.14743e-30
3.36432e-29
3.43641e-28
3.35415e-27
3.12819e-26
2.77479e-25
2.28335e-24
2.13795e-23
2.56483e-22
2.53432e-21
2.16494e-20
1.63866e-19
1.26954e-18
-1.97818e-87
5.69209e-78
2.45037e-75
5.18863e-73
8.46371e-71
8.30055e-69
5.84517e-67
3.51525e-65
1.84467e-63
8.58445e-62
3.58899e-60
1.36222e-58
4.73441e-57
1.51743e-55
4.5118e-54
1.25071e-52
3.24603e-51
7.91567e-50
1.81917e-48
3.95025e-47
8.12234e-46
1.58431e-44
2.93608e-43
5.17634e-42
8.69081e-41
1.39077e-39
2.1228e-38
3.09212e-37
4.30015e-36
5.7112e-35
7.24593e-34
8.78337e-33
1.0174e-31
1.12625e-30
1.19164e-29
1.20523e-28
1.16492e-27
1.05092e-26
9.43943e-26
1.08831e-24
1.35995e-23
1.36554e-22
1.20112e-21
9.40461e-21
7.50943e-20
-5.78598e-90
5.69305e-80
2.56709e-77
5.64207e-75
7.7385e-73
6.842e-71
5.00353e-69
3.12731e-67
1.70685e-65
8.26959e-64
3.60291e-62
1.42629e-60
5.1739e-59
1.73183e-57
5.38e-56
1.55866e-54
4.22842e-53
1.07785e-51
2.58911e-50
5.87531e-49
1.26213e-47
2.57122e-46
4.97489e-45
9.15339e-44
1.60321e-42
2.67537e-41
4.25673e-40
6.46133e-39
9.36115e-38
1.29499e-36
1.7111e-35
2.1601e-34
2.60594e-33
3.00501e-32
3.31297e-31
3.49277e-30
3.51674e-29
3.25724e-28
3.28108e-27
4.67651e-26
5.84406e-25
6.05286e-24
5.51382e-23
4.48293e-22
3.72274e-21
-6.89212e-84
-1.35647e-81
-5.09305e-80
2.16568e-77
4.22556e-75
3.87768e-73
2.95221e-71
1.92332e-69
1.09558e-67
5.54706e-66
2.52864e-64
1.04851e-62
3.98776e-61
1.40057e-59
4.56813e-58
1.39015e-56
3.96252e-55
1.06146e-53
2.67953e-52
6.38951e-51
1.4421e-49
3.0859e-48
6.26978e-47
1.21099e-45
2.22582e-44
3.89662e-43
6.50209e-42
1.0348e-40
1.57155e-39
2.27859e-38
3.15533e-37
4.17462e-36
5.2787e-35
6.38142e-34
7.37785e-33
8.16007e-32
8.59967e-31
8.33909e-30
9.45727e-29
1.59476e-27
2.04713e-26
2.21325e-25
2.10302e-24
1.77381e-23
1.53773e-22
-1.06408e-95
2.0949e-84
7.77436e-82
1.24453e-79
1.53012e-77
1.46647e-75
1.16686e-73
7.95629e-72
4.75103e-70
2.52573e-68
1.21077e-66
5.28687e-65
2.11997e-63
7.85816e-62
2.7072e-60
8.7071e-59
2.62423e-57
7.43471e-56
1.98521e-54
5.00727e-53
1.19529e-51
2.70475e-50
5.80985e-49
1.18605e-47
2.30349e-46
4.25982e-45
7.5067e-44
1.26138e-42
2.02223e-41
3.09477e-40
4.52314e-39
6.31618e-38
8.43053e-37
1.07602e-35
1.31381e-34
1.53517e-33
1.70502e-32
1.75465e-31
2.23601e-30
4.32583e-29
5.84326e-28
6.68514e-27
6.68895e-26
5.83125e-25
5.23984e-24
-5.78747e-99
6.32318e-87
1.62259e-84
2.75295e-82
3.55455e-80
3.57508e-78
2.98642e-76
2.14179e-74
1.348e-72
7.56881e-71
3.8396e-69
1.77733e-67
7.56656e-66
2.98147e-64
1.09296e-62
3.74341e-61
1.20211e-59
3.63002e-58
1.03334e-56
2.77878e-55
7.07169e-54
1.70575e-52
3.9049e-51
8.49377e-50
1.7572e-48
3.46061e-47
6.49272e-46
1.1613e-44
1.98138e-43
3.22661e-42
5.01775e-41
7.45545e-40
1.0589e-38
1.43838e-37
1.86959e-36
2.32637e-35
2.75078e-34
3.01802e-33
4.21499e-32
9.32832e-31
1.35847e-29
1.6708e-28
1.78204e-27
1.59919e-26
1.46222e-25
-1.02942e-91
-1.93685e-89
-1.09134e-87
2.19108e-85
5.05542e-83
5.34229e-81
4.70773e-79
3.57193e-77
2.38503e-75
1.42469e-73
7.70842e-72
3.8141e-70
1.73891e-68
7.34895e-67
2.89295e-65
1.06497e-63
3.67823e-62
1.19515e-60
3.66167e-59
1.05989e-57
2.9033e-56
7.53699e-55
1.85662e-53
4.34453e-52
9.66677e-51
2.04697e-49
4.12828e-48
7.93526e-47
1.45468e-45
2.5448e-44
4.25081e-43
6.78368e-42
1.03486e-40
1.50995e-39
2.10848e-38
2.81941e-37
3.58873e-36
4.21826e-35
6.24372e-34
1.5836e-32
2.56366e-31
3.45825e-30
4.0017e-29
3.66761e-28
3.24459e-27
-1.66205e-106
5.2587e-93
1.5597e-90
2.94441e-88
4.0982e-86
4.55382e-84
4.25206e-82
3.43524e-80
2.45295e-78
1.57285e-76
9.16541e-75
4.89812e-73
2.41751e-71
1.10808e-69
4.73759e-68
1.89623e-66
7.12612e-65
2.52068e-63
8.4098e-62
2.65113e-60
7.90893e-59
2.23578e-57
5.99615e-56
1.52723e-54
3.69765e-53
8.51741e-52
1.86803e-50
3.90358e-49
7.77746e-48
1.47838e-46
2.68272e-45
4.65021e-44
7.70451e-43
1.22087e-41
1.8515e-40
2.68913e-39
3.73611e-38
4.7366e-37
7.0777e-36
2.05599e-34
3.87669e-33
5.90077e-32
7.60884e-31
7.02541e-30
5.25211e-29
-7.94073e-111
1.75165e-96
5.65064e-94
1.13511e-91
1.68866e-89
1.99625e-87
1.97877e-85
1.71176e-83
1.31932e-81
9.18326e-80
5.83551e-78
3.41307e-76
1.8489e-74
9.3219e-73
4.39141e-71
1.939e-69
8.04546e-68
3.14388e-66
1.1591e-64
4.03839e-63
1.33145e-61
4.15916e-60
1.23231e-58
3.4665e-57
9.26636e-56
2.35574e-54
5.69999e-53
1.31359e-51
2.88524e-50
6.04398e-49
1.20827e-47
2.30667e-46
4.20795e-45
7.34026e-44
1.22521e-42
1.95836e-41
2.9988e-40
4.21024e-39
6.40646e-38
1.89355e-36
4.55614e-35
8.21016e-34
1.23682e-32
1.12167e-31
5.667e-31
-3.74547e-102
-1.15792e-99
-1.43769e-97
3.96932e-96
3.04791e-93
3.79799e-91
4.0387e-89
3.77844e-87
3.17373e-85
2.43284e-83
1.71295e-81
1.1155e-79
6.75213e-78
3.81397e-76
2.01684e-74
1.00102e-72
4.67321e-71
2.05585e-69
8.53593e-68
3.34959e-66
1.24378e-64
4.37498e-63
1.45923e-61
4.61928e-60
1.38897e-58
3.97026e-57
1.07962e-55
2.79478e-54
6.892e-53
1.62013e-51
3.63284e-50
7.77527e-49
1.58946e-47
3.1056e-46
5.80385e-45
1.03822e-43
1.77916e-42
2.88224e-41
4.42066e-40
9.77699e-39
3.89402e-37
8.97749e-36
1.84001e-34
1.44061e-33
4.16472e-33
-7.76063e-120
1.43738e-104
4.89241e-102
1.05609e-99
1.76777e-97
2.44341e-95
2.80979e-93
2.89328e-91
2.70826e-89
2.32878e-87
1.85272e-85
1.3746e-83
9.52129e-82
6.17482e-80
3.75772e-78
2.14968e-76
1.15794e-74
5.88137e-73
2.82036e-71
1.27837e-69
5.48262e-68
2.22692e-66
8.57407e-65
3.13177e-63
1.08604e-61
3.57823e-60
1.12088e-58
3.34051e-57
9.47776e-56
2.56164e-54
6.59976e-53
1.62186e-51
3.80412e-50
8.52207e-49
1.82469e-47
3.73685e-46
7.32544e-45
1.37537e-43
2.36409e-42
4.48414e-41
2.05127e-39
6.74176e-38
1.88806e-36
1.49738e-35
2.52671e-35
2.36484e-124
1.55144e-110
-1.60528e-107
1.71726e-105
1.28451e-102
2.93974e-100
4.27558e-98
5.14773e-96
5.52866e-94
5.52255e-92
5.14749e-90
4.49052e-88
3.67625e-86
2.83271e-84
2.05434e-82
1.40299e-80
9.0335e-79
5.48843e-77
3.14945e-75
1.70842e-73
8.76772e-72
4.26037e-70
1.96155e-68
8.56344e-67
3.54724e-65
1.39511e-63
5.21291e-62
1.8517e-60
6.25673e-59
2.01219e-57
6.16304e-56
1.79881e-54
5.00618e-53
1.3293e-51
3.36986e-50
8.1613e-49
1.88957e-47
4.18543e-46
8.85782e-45
1.71632e-43
4.16979e-42
3.1643e-40
1.13566e-38
1.13919e-37
2.32291e-37
-2.22589e-115
-9.11902e-113
-1.33555e-110
-1.00901e-108
-5.00789e-108
-2.52669e-106
1.07385e-104
6.7417e-102
1.33955e-99
1.6368e-97
1.89104e-95
2.05598e-93
2.10387e-91
2.0295e-89
1.84985e-87
1.59202e-85
1.29423e-83
9.93535e-82
7.20572e-80
4.94015e-78
3.20348e-76
1.96598e-74
1.14252e-72
6.2912e-71
3.28424e-69
1.62636e-67
7.64402e-66
3.41187e-64
1.447e-62
5.83424e-61
2.23758e-59
8.1674e-58
2.83879e-56
9.40068e-55
2.9675e-53
8.93426e-52
2.56677e-50
7.04049e-49
1.84472e-47
4.56715e-46
1.06575e-44
4.447e-43
3.83531e-41
5.23202e-40
1.08579e-39
-2.92941e-133
-4.29839e-120
-7.86453e-118
-1.08478e-115
-1.27553e-113
-1.21618e-111
-8.00582e-110
-8.48461e-108
-7.46312e-106
-4.57588e-104
6.2299e-103
1.40941e-100
2.57841e-98
4.02613e-96
5.65596e-94
7.31525e-92
8.78211e-90
9.85312e-88
1.033e-85
1.0147e-83
9.35821e-82
8.11761e-80
6.63274e-78
5.11152e-76
3.71961e-74
2.55845e-72
1.66492e-70
1.02591e-68
5.99057e-67
3.31727e-65
1.74317e-63
8.69791e-62
4.12345e-60
1.85827e-58
7.9647e-57
3.24806e-55
1.26074e-53
4.65893e-52
1.63934e-50
5.49261e-49
1.74188e-47
5.42701e-46
1.99818e-44
5.2361e-43
4.20301e-42
3.73791e-141
-3.02122e-127
-3.73889e-125
-4.50342e-123
-4.32203e-121
-3.57157e-119
-4.14903e-117
-3.52943e-115
-3.28952e-113
-4.52803e-111
-5.35093e-109
-5.02997e-107
-3.65577e-105
-5.52899e-103
-7.92013e-101
-1.0797e-98
-1.38959e-96
-1.68243e-94
-1.9118e-92
-2.0328e-90
-2.01366e-88
-1.84521e-86
-1.54493e-84
-1.15376e-82
-7.26659e-81
-3.19928e-79
3.58793e-78
2.98629e-75
4.56818e-73
5.19251e-71
5.0685e-69
4.45761e-67
3.61021e-65
2.72422e-63
1.92842e-61
1.286e-59
8.10027e-58
4.82658e-56
2.72252e-54
1.45373e-52
7.34285e-51
3.5031e-49
1.57475e-47
6.37498e-46
8.00008e-45
-1.10253e-138
-4.34615e-137
-2.77747e-135
-1.80373e-133
-5.1135e-132
-7.60809e-130
-1.02905e-127
-1.89209e-125
-3.13687e-123
-3.51753e-121
-3.06779e-119
-6.41571e-117
-1.10055e-114
-1.45746e-112
-2.55282e-110
-5.6087e-108
-1.07926e-105
-2.17612e-103
-4.19107e-101
-7.68098e-99
-1.26935e-96
-2.25717e-94
-3.42089e-92
5.12101e-90
-6.71822e-88
-8.44822e-86
-1.01876e-83
-1.15986e-81
-1.24778e-79
-1.26813e-77
-1.21743e-75
-1.10369e-73
-9.44022e-72
-7.60001e-70
-5.72316e-68
-3.96336e-66
-2.39804e-64
-1.02978e-62
3.74876e-61
1.8249e-58
3.29346e-56
4.75891e-54
6.08935e-52
6.83759e-50
-8.5657e-48
3.39243e-155
5.93336e-154
1.96845e-154
2.63661e-154
-4.43167e-149
-2.27072e-147
1.45213e-147
-4.32114e-147
1.15332e-139
1.39856e-133
6.1208e-131
1.74831e-132
2.11139e-125
1.03544e-122
1.98155e-125
2.59839e-126
3.42359e-122
1.36443e-120
-2.68496e-117
2.92999e-114
-5.31367e-113
-4.14834e-110
-1.15937e-106
-6.09897e-105
-2.56481e-102
-2.32938e-99
1.95238e-97
4.46312e-95
1.30693e-92
3.81343e-90
1.03677e-87
2.49217e-85
1.59158e-81
-1.15929e-79
-2.65432e-77
1.2174e-73
-1.29957e-72
-2.25705e-70
-4.09789e-68
-6.98307e-66
-1.12011e-63
-1.68327e-61
-2.36014e-59
-3.06875e-57
-2.15586e-51
)
;

boundaryField
{
    leftWall
    {
        type            zeroGradient;
    }
    rightWall
    {
        type            zeroGradient;
    }
    lowerWall
    {
        type            zeroGradient;
    }
    atmosphere
    {
        type            inletOutlet;
        inletValue      uniform 0;
        value           uniform 0;
    }
    defaultFaces
    {
        type            empty;
    }
    procBoundary2to0
    {
        type            processor;
        value           nonuniform List<scalar> 
46
(
-1.5657e-12
-1.07001e-12
-5.94111e-13
-2.67194e-13
-9.67457e-14
-2.86284e-14
-6.78862e-15
-1.02097e-15
1.63744e-16
3.54161e-16
4.27896e-16
5.14165e-16
7.06944e-16
1.62374e-15
7.38571e-15
4.44033e-14
2.7158e-13
1.39108e-12
5.5809e-12
1.75233e-11
4.47852e-11
9.16874e-11
2.34793e-10
3.75831e-10
3.71337e-10
-8.56464e-20
-8.58691e-19
-4.99078e-18
-1.91608e-17
-5.74632e-17
-1.61668e-16
-4.6963e-16
-1.32586e-15
-3.16188e-15
-6.50049e-15
-1.20825e-14
-2.1862e-14
-4.15665e-14
-8.36865e-14
-1.66289e-13
-3.02078e-13
-4.79199e-13
-6.48616e-13
-7.38055e-13
-6.96069e-13
-6.96069e-13
)
;
    }
    procBoundary2to3
    {
        type            processor;
        value           nonuniform List<scalar> 
43
(
1.34254e-09
4.57582e-10
4.83309e-10
5.2558e-10
6.53363e-10
1.36045e-09
2.07373e-09
1.38589e-09
2.09202e-09
2.34925e-09
2.18305e-09
1.88295e-09
1.79198e-09
1.41034e-09
8.82173e-10
5.99845e-10
3.83222e-10
1.78287e-10
5.46263e-11
1.52102e-11
5.83215e-12
1.13643e-12
1.45816e-13
1.63107e-14
1.58181e-15
1.35675e-16
9.85391e-18
6.01447e-19
3.12902e-20
1.39861e-21
5.38388e-23
1.78957e-24
5.15889e-26
1.28462e-27
2.7193e-29
4.79623e-31
6.89111e-33
7.89702e-35
6.99317e-37
4.50375e-39
1.85144e-41
3.82457e-44
-6.17685e-49
)
;
    }
}


// ************************************************************************* //
