/*--------------------------------*- C++ -*----------------------------------*\
| =========                 |                                                 |
| \\      /  F ield         | OpenFOAM: The Open Source CFD Toolbox           |
|  \\    /   O peration     | Version:  5.0                                   |
|   \\  /    A nd           | Web:      www.OpenFOAM.org                      |
|    \\/     M anipulation  |                                                 |
\*---------------------------------------------------------------------------*/
FoamFile
{
    version     2.0;
    format      ascii;
    class       volScalarField;
    location    "0.4";
    object      epsilon;
}
// * * * * * * * * * * * * * * * * * * * * * * * * * * * * * * * * * * * * * //

dimensions      [0 2 -3 0 0 0 0];

internalField   nonuniform List<scalar> 
1915
(
0.250061
0.25671
0.264007
0.272224
0.281706
0.292873
0.306234
0.322392
0.342057
0.366055
0.395328
0.430937
0.474032
0.52581
0.587435
0.659919
0.743972
0.839843
0.947195
1.06507
1.19196
1.32607
1.46556
1.60855
1.75292
1.19302
0.429239
0.28607
0.233715
0.208977
0.196283
0.189979
0.187491
0.187464
0.189096
0.191876
0.195454
0.199579
0.204068
0.208789
0.213649
0.218595
0.223611
0.228718
0.233977
0.239495
0.245432
0.252003
0.259484
0.268218
0.278628
0.291219
0.306596
0.325471
0.348671
0.37715
0.411982
0.454345
0.505474
0.56658
0.638731
0.722696
0.818786
0.926739
1.04571
1.17445
1.31163
1.4563
1.60801
1.7663
1.18799
0.42258
0.280902
0.229334
0.205031
0.19255
0.186299
0.183743
0.183547
0.184926
0.187381
0.190571
0.194252
0.198251
0.202439
0.206731
0.211077
0.215466
0.219921
0.224507
0.229334
0.234562
0.240405
0.247136
0.255097
0.264706
0.276464
0.290969
0.308926
0.331161
0.35863
0.392418
0.433724
0.483821
0.543975
0.615322
0.698718
0.794565
0.902707
1.02245
1.15282
1.29303
1.44312
1.60431
1.77843
1.17775
0.415172
0.275259
0.224669
0.200922
0.188738
0.182606
0.180033
0.179712
0.180877
0.183041
0.185875
0.189146
0.192685
0.196371
0.200125
0.203901
0.207692
0.211525
0.215466
0.219626
0.224164
0.229292
0.235278
0.242459
0.251245
0.262126
0.275688
0.292627
0.313761
0.340039
0.372553
0.412523
0.461258
0.520087
0.590234
0.672661
0.767895
0.87592
0.996218
1.12808
1.27125
1.4268
1.5978
1.78885
1.16191
0.406474
0.269008
0.219637
0.196572
0.184768
0.178815
0.176276
0.175876
0.176868
0.178782
0.1813
0.184197
0.187315
0.190539
0.193794
0.197042
0.200276
0.203526
0.206862
0.210392
0.214275
0.218715
0.223976
0.230387
0.238347
0.248328
0.260902
0.27675
0.296678
0.321623
0.352678
0.391081
0.438179
0.495369
0.563975
0.64509
0.739396
0.847045
0.967701
1.1009
1.24684
1.40753
1.58784
1.79545
1.14096
0.396528
0.262146
0.214215
0.191944
0.180589
0.174869
0.172409
0.17197
0.172829
0.174533
0.176775
0.179343
0.182083
0.18489
0.187695
0.190461
0.193188
0.195908
0.198688
0.201638
0.204911
0.208707
0.213282
0.218948
0.22609
0.235166
0.246727
0.261439
0.280094
0.303602
0.333054
0.369708
0.414943
0.470223
0.536984
0.61647
0.709543
0.816542
0.937318
1.07161
1.21992
1.38494
1.57309
1.79503
1.11537
0.385444
0.254708
0.208407
0.187022
0.176175
0.170731
0.168388
0.167946
0.168709
0.170241
0.172248
0.174528
0.176938
0.179377
0.181782
0.184122
0.186398
0.188642
0.190924
0.193349
0.196065
0.199267
0.203198
0.208161
0.214521
0.222719
0.233283
0.246847
0.264171
0.286159
0.313896
0.348676
0.39186
0.444987
0.50962
0.587161
0.678661
0.784667
0.905219
1.0402
1.19025
1.35837
1.55196
1.78409
1.08567
0.373357
0.246756
0.202239
0.181811
0.171515
0.166381
0.164184
0.16377
0.164469
0.165864
0.167676
0.169712
0.171837
0.173958
0.176017
0.177987
0.17987
0.1817
0.183543
0.185503
0.187721
0.190383
0.193722
0.198026
0.203643
0.210994
0.220585
0.233021
0.249034
0.269506
0.295492
0.328243
0.36919
0.419925
0.482158
0.55743
0.646952
0.751507
0.871331
1.00641
1.15738
1.3271
1.52317
1.75996
1.05242
0.360429
0.238366
0.195754
0.176334
0.166619
0.161816
0.159787
0.159424
0.160087
0.161376
0.163028
0.16486
0.166746
0.1686
0.170367
0.172024
0.173574
0.175051
0.176519
0.178076
0.179857
0.182039
0.184841
0.188538
0.193458
0.200001
0.208647
0.219975
0.234688
0.253638
0.277853
0.308567
0.34722
0.39544
0.454972
0.527517
0.614533
0.717027
0.835435
0.969832
1.12082
1.29062
1.48619
1.72167
1.01623
0.346841
0.229634
0.189009
0.170628
0.161507
0.157048
0.155201
0.154906
0.155553
0.156764
0.158288
0.159954
0.161644
0.163277
0.164804
0.166203
0.167479
0.168665
0.169821
0.171039
0.172448
0.174211
0.176538
0.179683
0.183958
0.189739
0.19748
0.207729
0.221157
0.23858
0.260995
0.289607
0.325848
0.371365
0.427958
0.497454
0.581506
0.681358
0.797671
0.930604
1.08041
1.24877
1.44124
1.67015
0.977749
0.332787
0.220666
0.182075
0.164742
0.156217
0.152102
0.150441
0.150224
0.150872
0.152025
0.153449
0.154982
0.156514
0.157971
0.159307
0.160501
0.161561
0.162514
0.16342
0.164363
0.165463
0.166872
0.168786
0.171441
0.175129
0.180201
0.187084
0.196293
0.20846
0.224362
0.244952
0.271394
0.30509
0.347679
0.400994
0.466957
0.547386
0.643755
0.756972
0.887333
1.03492
1.20071
1.38864
1.60857
0.937653
0.318474
0.211577
0.175031
0.158735
0.150795
0.147016
0.145537
0.145401
0.146059
0.147171
0.148516
0.149945
0.151354
0.152674
0.153862
0.154902
0.155796
0.156574
0.157288
0.158017
0.15887
0.159989
0.161553
0.163781
0.166944
0.171367
0.177446
0.185662
0.196606
0.211006
0.229762
0.25398
0.285011
0.324456
0.374145
0.436053
0.51213
0.604064
0.713019
0.839488
0.983471
1.14527
1.32715
1.536
0.896618
0.304109
0.202486
0.167963
0.152675
0.145294
0.141834
0.140528
0.140469
0.14114
0.142221
0.143506
0.144853
0.146167
0.147384
0.148465
0.149392
0.15017
0.150823
0.1514
0.151971
0.152637
0.153527
0.154803
0.156668
0.159369
0.163206
0.168542
0.175823
0.185593
0.198526
0.215458
0.237426
0.265703
0.301825
0.347577
0.404942
0.475955
0.562487
0.665967
0.787145
0.926071
1.08255
1.25732
1.45425
0.855317
0.289897
0.193513
0.160958
0.146633
0.139777
0.136609
0.135458
0.135467
0.13615
0.137206
0.138441
0.139724
0.140967
0.142109
0.143115
0.143967
0.144669
0.145243
0.14573
0.146196
0.14673
0.147447
0.148496
0.150061
0.152364
0.155679
0.160339
0.166748
0.175404
0.18692
0.202064
0.221787
0.247268
0.279945
0.321523
0.373937
0.439257
0.519488
0.616312
0.730792
0.863192
1.01311
1.18018
1.3656
0.814393
0.276033
0.184773
0.154103
0.140683
0.134306
0.131398
0.13038
0.130443
0.131131
0.132161
0.133353
0.134585
0.135773
0.136863
0.13782
0.138628
0.139289
0.139821
0.140261
0.140667
0.141117
0.141714
0.142592
0.143914
0.145883
0.148743
0.152794
0.158401
0.166012
0.176181
0.189595
0.207114
0.229808
0.258993
0.296252
0.34343
0.40256
0.475725
0.564814
0.671233
0.79561
0.937681
1.09653
1.27151
0.774452
0.262697
0.176376
0.147484
0.134895
0.128947
0.126261
0.125348
0.125448
0.126129
0.127129
0.128279
0.129466
0.130612
0.131665
0.132594
0.133382
0.134029
0.13455
0.134978
0.135361
0.135769
0.136293
0.137049
0.138184
0.139877
0.142346
0.145859
0.150739
0.157384
0.166286
0.178054
0.193449
0.21342
0.239143
0.272053
0.313851
0.366474
0.431998
0.512452
0.609549
0.724369
0.85708
1.00685
1.17215
0.736036
0.250048
0.168418
0.141177
0.129338
0.123763
0.121258
0.12042
0.120534
0.121194
0.122157
0.123262
0.124406
0.125516
0.126543
0.127456
0.12824
0.128893
0.129428
0.129869
0.130261
0.130661
0.13115
0.131829
0.132826
0.134299
0.136439
0.139481
0.143711
0.149478
0.157209
0.167436
0.180819
0.198184
0.220557
0.249199
0.285634
0.33164
0.389198
0.46037
0.547086
0.650857
0.772437
0.911543
1.06676
0.699619
0.238224
0.160986
0.135253
0.124078
0.118814
0.116447
0.115652
0.115755
0.116379
0.117292
0.118347
0.119445
0.12052
0.121525
0.122431
0.123222
0.123895
0.124458
0.124933
0.125355
0.125774
0.126259
0.126898
0.127799
0.129101
0.130971
0.13361
0.137268
0.142245
0.148911
0.15772
0.169236
0.18416
0.203365
0.227932
0.259179
0.298675
0.348227
0.409809
0.485426
0.576885
0.685497
0.811733
0.954928
0.665596
0.227337
0.154151
0.129773
0.11917
0.114157
0.111882
0.111097
0.111166
0.111734
0.112584
0.113579
0.114627
0.115664
0.116647
0.117548
0.11835
0.119049
0.11965
0.12017
0.120638
0.121095
0.1216
0.122226
0.123069
0.124243
0.125894
0.128194
0.131357
0.135638
0.14135
0.148878
0.158692
0.171378
0.18766
0.208437
0.234812
0.268116
0.309919
0.361999
0.426273
0.504645
0.598782
0.70982
0.83802
0.634278
0.217473
0.147972
0.124789
0.114665
0.109841
0.107616
0.106807
0.106816
0.107309
0.108082
0.109006
0.109994
0.110987
0.111944
0.112838
0.113651
0.114378
0.11502
0.11559
0.116112
0.116618
0.117159
0.117794
0.118605
0.119688
0.121166
0.123186
0.125927
0.129603
0.134477
0.140867
0.149161
0.159837
0.173483
0.190827
0.21276
0.240368
0.274949
0.318012
0.371248
0.436452
0.515378
0.60953
0.719881
0.605897
0.208697
0.142494
0.120344
0.110608
0.105913
0.103693
0.102828
0.102753
0.103151
0.103831
0.104672
0.105591
0.106532
0.107456
0.108336
0.109156
0.109906
0.110587
0.111207
0.111784
0.112345
0.112929
0.113588
0.114387
0.115408
0.116753
0.118545
0.120931
0.124091
0.12824
0.133638
0.140599
0.149508
0.16083
0.175139
0.193135
0.215669
0.243766
0.278632
0.321653
0.374362
0.438356
0.515173
0.6061
0.580612
0.201056
0.137755
0.116474
0.107036
0.10241
0.100155
0.0992035
0.0990201
0.0993045
0.0998762
0.10062
0.101458
0.102337
0.103219
0.104078
0.104895
0.105662
0.106375
0.107039
0.107668
0.108282
0.108913
0.109603
0.110404
0.111385
0.112628
0.114235
0.116328
0.119053
0.122584
0.127132
0.132947
0.140331
0.149647
0.161337
0.175934
0.194083
0.216557
0.24427
0.278285
0.319797
0.370104
0.430529
0.502309
0.558524
0.194582
0.133782
0.11321
0.103981
0.099368
0.0970363
0.0959691
0.0956544
0.0958069
0.096255
0.0968888
0.0976345
0.0984405
0.09927
0.100097
0.100902
0.101675
0.102411
0.103111
0.103784
0.104446
0.10512
0.105841
0.106652
0.107606
0.108772
0.110232
0.112084
0.114447
0.11746
0.121291
0.126135
0.132228
0.139847
0.149324
0.161056
0.175517
0.193267
0.214966
0.241378
0.273371
0.311897
0.357954
0.412521
0.539696
0.189302
0.130603
0.110579
0.101471
0.0968152
0.0943687
0.0931566
0.0926887
0.0926918
0.0930018
0.0935133
0.0941551
0.0948772
0.0956433
0.0964269
0.0972089
0.0979767
0.0987233
0.0994475
0.100154
0.100854
0.101566
0.102316
0.103137
0.104073
0.105178
0.106519
0.108175
0.110238
0.112821
0.116054
0.120089
0.125105
0.131313
0.138957
0.148326
0.159757
0.173644
0.190443
0.210676
0.23493
0.263847
0.298102
0.338365
0.524172
0.185246
0.128245
0.108609
0.0995339
0.0947781
0.0921778
0.0907925
0.09015
0.0899872
0.0901454
0.0905228
0.0910499
0.0916776
0.0923697
0.0930992
0.0938463
0.0945968
0.0953417
0.0960773
0.0968051
0.0975321
0.0982712
0.0990418
0.0998705
0.100791
0.101847
0.103091
0.104584
0.1064
0.108628
0.111367
0.114735
0.118867
0.123918
0.130067
0.137521
0.146513
0.157312
0.170222
0.185582
0.203766
0.225175
0.250225
0.279319
0.512005
0.182454
0.126745
0.10733
0.098195
0.0932805
0.0904858
0.0888985
0.0880601
0.087715
0.0877087
0.0879411
0.0883437
0.0888675
0.0894759
0.0901412
0.0908422
0.0915635
0.0922941
0.0930281
0.0937638
0.0945048
0.0952595
0.0960421
0.0968724
0.0977768
0.0987885
0.0999485
0.101306
0.102917
0.104851
0.107185
0.110006
0.113417
0.117532
0.122479
0.128401
0.135461
0.143835
0.153719
0.165325
0.178876
0.194607
0.212747
0.233511
0.503287
0.180989
0.126149
0.106778
0.0974829
0.0923449
0.0893116
0.0874911
0.0864348
0.0858915
0.0857085
0.0857862
0.0860559
0.0864677
0.086984
0.087576
0.0882211
0.0889022
0.0896067
0.0903264
0.0910571
0.0917992
0.0925574
0.0933412
0.094165
0.0950487
0.0960177
0.0971034
0.0983435
0.0997826
0.101472
0.103472
0.105847
0.108674
0.112035
0.116022
0.120734
0.126279
0.132773
0.140337
0.149097
0.15918
0.170709
0.183798
0.19854
0.498173
0.180945
0.126525
0.106999
0.097429
0.0919928
0.0886703
0.0865823
0.0852844
0.0845265
0.0841553
0.0840699
0.0841998
0.0844932
0.0849108
0.0854222
0.0860031
0.0866348
0.0873027
0.0879968
0.0887105
0.0894414
0.0901912
0.0909654
0.091774
0.0926312
0.093556
0.0945722
0.0957086
0.0969992
0.098483
0.100205
0.102214
0.104567
0.107322
0.110545
0.114304
0.11867
0.123718
0.129519
0.136144
0.143661
0.152125
0.16158
0.172052
0.496921
0.182464
0.127962
0.108051
0.0980679
0.0922442
0.0885733
0.0861781
0.0846126
0.0836235
0.0830534
0.0827977
0.0827825
0.0829531
0.0832677
0.0836933
0.0842038
0.0847786
0.0854015
0.0860603
0.0867467
0.0874558
0.0881864
0.0889409
0.0897255
0.0905499
0.0914277
0.0923766
0.0934181
0.0945777
0.0958848
0.097373
0.0990792
0.101044
0.10331
0.105924
0.108932
0.112381
0.116317
0.120781
0.125813
0.13144
0.137681
0.144544
0.152015
0.499925
0.185744
0.130578
0.110001
0.0994361
0.093116
0.0890255
0.0862775
0.0844159
0.0831782
0.0823995
0.0819682
0.0818051
0.0818509
0.0820601
0.0823972
0.0828336
0.0833465
0.083918
0.0845343
0.0851849
0.0858632
0.0865656
0.0872919
0.0880448
0.0888305
0.0896583
0.0905407
0.0914932
0.0925349
0.0936874
0.0949757
0.0964269
0.0980707
0.0999383
0.102062
0.104473
0.107204
0.110281
0.113729
0.117565
0.121799
0.126428
0.131441
0.136807
0.507763
0.191058
0.134523
0.112928
0.101569
0.0946176
0.0900226
0.0868694
0.0846809
0.0831781
0.0821826
0.0815729
0.0812616
0.0811833
0.0812881
0.0815365
0.0818974
0.082346
0.0828623
0.0834309
0.0840399
0.0846808
0.0853481
0.0860394
0.0867548
0.0874973
0.0882727
0.0890891
0.0899576
0.0908916
0.0919068
0.0930212
0.0942549
0.0956292
0.0971665
0.0988898
0.100821
0.102981
0.105388
0.108053
0.110984
0.11418
0.117629
0.121311
0.125192
0.521265
0.198777
0.139982
0.116914
0.10449
0.0967438
0.091545
0.0879288
0.0853822
0.0835995
0.0823827
0.0815954
0.0811393
0.0809412
0.0809453
0.0811079
0.0813949
0.0817791
0.0822389
0.0827573
0.0833211
0.0839205
0.0845482
0.0852001
0.0858742
0.0865709
0.087293
0.0880452
0.0888345
0.08967
0.0905625
0.0915246
0.0925704
0.0937153
0.0949752
0.0963664
0.0979044
0.0996032
0.101474
0.103525
0.105757
0.108164
0.110733
0.113442
0.116256
0.541634
0.209393
0.147166
0.12203
0.108203
0.0994636
0.0935494
0.0894109
0.0864784
0.0844064
0.0829692
0.0820105
0.081418
0.0811086
0.0810194
0.0811023
0.0813196
0.0816421
0.0820465
0.0825146
0.0830321
0.083588
0.0841742
0.0847847
0.0854161
0.0860666
0.0867365
0.0874279
0.0881442
0.0888909
0.0896747
0.0905036
0.0913871
0.0923356
0.09336
0.0944716
0.0956814
0.0969993
0.0984332
0.0999876
0.101663
0.103454
0.105347
0.107322
0.109349
0.570666
0.22355
0.156298
0.128311
0.112661
0.102704
0.0959586
0.0912445
0.0879078
0.0855475
0.0839001
0.0827841
0.0820698
0.0816625
0.0814918
0.0815042
0.0816591
0.081925
0.0822774
0.0826971
0.0831693
0.0836821
0.0842266
0.0847961
0.0853856
0.0859919
0.0866132
0.0872492
0.0879008
0.0885699
0.0892598
0.0899749
0.0907202
0.091502
0.0923271
0.0932025
0.0941357
0.0951335
0.0962017
0.0973441
0.0985614
0.09985
0.101201
0.102598
0.104018
0.611118
0.242065
0.167571
0.135717
0.117744
0.10633
0.0986489
0.0933251
0.0895857
0.0869549
0.0851214
0.0838727
0.0830592
0.0825737
0.0823374
0.0822922
0.0823944
0.082611
0.0829166
0.0832917
0.0837211
0.0841928
0.0846975
0.0852279
0.0857782
0.0863441
0.0869224
0.0875107
0.0881077
0.0887127
0.0893258
0.0899478
0.0905804
0.0912255
0.0918859
0.0925651
0.0932668
0.093995
0.0947536
0.0955459
0.0963738
0.0972366
0.0981302
0.0990455
0.0999665
0.667241
0.265936
0.181076
0.14406
0.123212
0.11012
0.101438
0.0955101
0.0914025
0.0885447
0.086568
0.0852249
0.0843445
0.0838067
0.0835255
0.0834385
0.0835
0.0836762
0.0839416
0.0842768
0.0846669
0.0851003
0.0855678
0.086062
0.0865768
0.0871073
0.0876492
0.0881989
0.0887532
0.0893094
0.0898647
0.0904172
0.0909647
0.0915057
0.0920389
0.0925634
0.0930791
0.0935864
0.0940865
0.0945812
0.0950726
0.0955627
0.0960524
0.09654
0.0970193
0.7456
0.296264
0.196648
0.152912
0.128649
0.113742
0.104078
0.0976183
0.093227
0.0902209
0.0881678
0.0867843
0.0858794
0.0853218
0.0850202
0.0849096
0.0849439
0.0850893
0.0853213
0.0856215
0.0859758
0.0863736
0.0868062
0.0872668
0.0877495
0.0882491
0.0887611
0.0892811
0.0898047
0.0903277
0.0908454
0.0913531
0.091846
0.0923187
0.0927661
0.0931828
0.0935639
0.0939051
0.0942029
0.0944555
0.0946629
0.0948272
0.0949523
0.0950433
0.0951045
0.856652
0.334014
0.213611
0.161458
0.133409
0.116735
0.106254
0.0994387
0.0949164
0.0918842
0.0898487
0.0884951
0.0876173
0.0870776
0.0867824
0.0866674
0.0866878
0.0868117
0.0870164
0.0872853
0.0876061
0.0879694
0.0883679
0.0887956
0.0892472
0.0897183
0.0902042
0.0907007
0.0912029
0.0917059
0.0922038
0.0926905
0.0931587
0.0936004
0.0940067
0.094368
0.0946742
0.094915
0.0950804
0.095162
0.0951534
0.095052
0.0948597
0.0945841
0.0942377
1.01726
0.379414
0.230332
0.168313
0.13656
0.118516
0.107609
0.100754
0.0963364
0.0934481
0.09155
0.0903097
0.0895166
0.089034
0.0887721
0.0886706
0.0886886
0.088798
0.0889793
0.0892184
0.0895053
0.0898325
0.0901943
0.0905859
0.0910034
0.0914431
0.0919015
0.0923746
0.0928582
0.0933474
0.0938365
0.0943187
0.0947859
0.0952287
0.0956359
0.0959945
0.0962901
0.0965064
0.096626
0.096631
0.0965045
0.0962324
0.0958059
0.0952251
0.094501
1.25325
0.430584
0.243437
0.171277
0.13686
0.118417
0.107796
0.101386
0.0973956
0.0948619
0.0932377
0.0921987
0.0915466
0.091157
0.0909508
0.0908763
0.0908996
0.090998
0.091156
0.091363
0.0916118
0.0918968
0.0922143
0.0925612
0.092935
0.0933333
0.0937537
0.0941936
0.09465
0.0951191
0.0955961
0.0960753
0.0965494
0.0970093
0.0974439
0.0978396
0.0981798
0.0984447
0.0986113
0.0986529
0.0985401
0.0982423
0.0977301
0.0969807
0.095984
1.60796
0.479719
0.246322
0.167092
0.132861
0.11584
0.106597
0.101279
0.098097
0.0961421
0.0949231
0.0941617
0.0936946
0.093423
0.0932858
0.0932446
0.0932748
0.0933603
0.0934906
0.0936588
0.0938604
0.0940921
0.094352
0.0946386
0.0949508
0.0952878
0.0956485
0.0960318
0.0964363
0.0968599
0.0972999
0.0977527
0.0982132
0.098675
0.0991295
0.0995658
0.0999697
0.100323
0.100603
0.10078
0.100819
0.100675
0.100297
0.0996296
0.0986158
2.18727
0.499933
0.226565
0.151622
0.123389
0.110606
0.104137
0.100615
0.0985967
0.0973993
0.0966736
0.0962317
0.0959679
0.0958204
0.0957525
0.0957414
0.0957729
0.0958383
0.0959319
0.0960503
0.0961912
0.0963536
0.0965367
0.0967405
0.0969649
0.0972101
0.0974763
0.0977638
0.0980724
0.098402
0.0987519
0.099121
0.0995073
0.0999082
0.100319
0.100736
0.101149
0.101549
0.101921
0.102245
0.102493
0.102628
0.102598
0.102332
0.101735
3.37407
0.390509
0.164955
0.12228
0.108972
0.103649
0.101183
0.0999217
0.0992298
0.0988322
0.0985976
0.0984588
0.0983794
0.0983388
0.0983248
0.0983303
0.0983508
0.0983838
0.0984275
0.0984812
0.0985444
0.098617
0.0986992
0.0987912
0.0988934
0.0990063
0.0991304
0.0992663
0.0994146
0.0995756
0.09975
0.0999382
0.10014
0.100356
0.100586
0.10083
0.101086
0.101352
0.101628
0.10191
0.102192
0.102468
0.102724
0.102936
0.103058
)
;

boundaryField
{
    leftWall
    {
        Cmu             0.09;
        kappa           0.41;
        E               9.8;
        type            epsilonWallFunction;
        value           nonuniform List<scalar> 
42
(
1.19302
1.18799
1.17775
1.16191
1.14096
1.11537
1.08567
1.05242
1.01623
0.977749
0.937653
0.896618
0.855317
0.814393
0.774452
0.736036
0.699619
0.665596
0.634278
0.605897
0.580612
0.558524
0.539696
0.524172
0.512005
0.503287
0.498173
0.496921
0.499925
0.507763
0.521265
0.541634
0.570666
0.611118
0.667241
0.7456
0.856652
1.01726
1.25325
1.60796
2.18727
3.37407
)
;
    }
    rightWall
    {
        Cmu             0.09;
        kappa           0.41;
        E               9.8;
        type            epsilonWallFunction;
        value           nonuniform 0();
    }
    lowerWall
    {
        Cmu             0.09;
        kappa           0.41;
        E               9.8;
        type            epsilonWallFunction;
        value           nonuniform 0();
    }
    atmosphere
    {
        type            inletOutlet;
        inletValue      uniform 0.1;
        value           uniform 0.1;
    }
    defaultFaces
    {
        type            empty;
    }
    procBoundary2to0
    {
        type            processor;
        value           nonuniform List<scalar> 
46
(
0.260943
0.268292
0.276292
0.285215
0.2954
0.307264
0.321309
0.338136
0.358444
0.383048
0.412876
0.448962
0.492427
0.544427
0.606084
0.678361
0.761929
0.856999
0.963192
1.07946
1.20413
1.33498
1.46945
1.60467
1.73719
1.19336
0.435488
0.290975
0.237946
0.212866
0.200032
0.193732
0.191362
0.191544
0.193465
0.196601
0.200594
0.205186
0.210187
0.215459
0.220905
0.226466
0.232124
0.237896
0.243842
0.243842
)
;
    }
    procBoundary2to3
    {
        type            processor;
        value           nonuniform List<scalar> 
43
(
1.89494
1.929
1.96567
2.00334
2.03786
2.063
2.07171
2.05818
2.01959
1.95716
1.87913
1.78641
1.68328
1.57466
1.46394
1.35171
1.23582
1.11314
0.982468
0.846574
0.711946
0.586453
0.476485
0.385266
0.312835
0.257088
0.215008
0.183547
0.160071
0.142491
0.12923
0.119137
0.111393
0.105431
0.100872
0.0974797
0.0951383
0.0938365
0.093658
0.0947511
0.0972142
0.100693
0.103
)
;
    }
}


// ************************************************************************* //
