/*--------------------------------*- C++ -*----------------------------------*\
| =========                 |                                                 |
| \\      /  F ield         | OpenFOAM: The Open Source CFD Toolbox           |
|  \\    /   O peration     | Version:  5.0                                   |
|   \\  /    A nd           | Web:      www.OpenFOAM.org                      |
|    \\/     M anipulation  |                                                 |
\*---------------------------------------------------------------------------*/
FoamFile
{
    version     2.0;
    format      ascii;
    class       volScalarField;
    location    "0.4";
    object      k;
}
// * * * * * * * * * * * * * * * * * * * * * * * * * * * * * * * * * * * * * //

dimensions      [0 2 -2 0 0 0 0];

internalField   nonuniform List<scalar> 
1915
(
0.185873
0.188888
0.191977
0.195224
0.198727
0.202587
0.206916
0.211828
0.217442
0.223874
0.231234
0.239622
0.249116
0.259763
0.271565
0.284464
0.298329
0.312948
0.328034
0.343249
0.358235
0.372674
0.386331
0.399065
0.410816
0.0444672
0.0733053
0.090049
0.101486
0.110463
0.118058
0.124771
0.130864
0.136484
0.141717
0.146615
0.151207
0.155514
0.159551
0.16333
0.166867
0.170182
0.173301
0.17626
0.179102
0.181884
0.18467
0.187537
0.190573
0.193873
0.197542
0.201692
0.206438
0.211899
0.21819
0.225424
0.233702
0.243103
0.253678
0.26543
0.278301
0.292158
0.306787
0.321896
0.337149
0.352206
0.366793
0.380761
0.394111
0.406934
0.0443266
0.0730893
0.0896692
0.100972
0.109824
0.117292
0.123868
0.12981
0.135265
0.140317
0.14502
0.149404
0.153493
0.157302
0.160847
0.164144
0.167216
0.170091
0.172806
0.175406
0.177949
0.180501
0.18314
0.185954
0.18904
0.192503
0.196455
0.201011
0.20629
0.212409
0.219482
0.227612
0.236883
0.24735
0.259023
0.271848
0.285698
0.30036
0.315544
0.330919
0.346165
0.361055
0.375538
0.389769
0.40404
0.0440603
0.0726714
0.089103
0.100291
0.10904
0.116403
0.122863
0.128676
0.133985
0.138875
0.1434
0.147594
0.151479
0.155074
0.158396
0.161465
0.164303
0.166943
0.16942
0.171783
0.17409
0.176409
0.178818
0.181406
0.18427
0.187516
0.191255
0.195602
0.200676
0.206596
0.213478
0.221427
0.230536
0.240867
0.252438
0.26521
0.279064
0.293794
0.309121
0.324716
0.340279
0.35563
0.370813
0.386153
0.40218
0.0436552
0.0720643
0.088344
0.0994277
0.108089
0.115365
0.121731
0.127434
0.132617
0.137365
0.141733
0.145753
0.149453
0.152851
0.155966
0.158821
0.161439
0.163854
0.166105
0.168241
0.17032
0.172412
0.174595
0.176957
0.179597
0.18262
0.186135
0.190259
0.19511
0.200809
0.207475
0.215218
0.224138
0.234309
0.245764
0.258478
0.27235
0.28719
0.302726
0.31864
0.334644
0.350592
0.366614
0.383201
0.401144
0.0431216
0.0712714
0.0873893
0.0983731
0.106958
0.114162
0.120447
0.126059
0.131135
0.135761
0.139989
0.143857
0.147389
0.150609
0.153536
0.156195
0.158611
0.160819
0.162859
0.164782
0.166646
0.168522
0.170487
0.17263
0.175048
0.177846
0.181132
0.185022
0.189638
0.195102
0.201531
0.209046
0.217756
0.227748
0.239072
0.251725
0.265628
0.280609
0.296413
0.31273
0.329275
0.345921
0.362854
0.380707
0.400529
0.0424695
0.0702978
0.0862394
0.097123
0.105638
0.112778
0.118997
0.124532
0.129518
0.134038
0.138147
0.14188
0.145266
0.148327
0.151087
0.15357
0.155804
0.157825
0.159673
0.161401
0.163067
0.164741
0.166501
0.168435
0.17064
0.173217
0.176277
0.179934
0.184308
0.18952
0.195697
0.202965
0.211451
0.221245
0.232421
0.245003
0.258938
0.274079
0.290188
0.306964
0.324118
0.341517
0.359365
0.37838
0.39983
0.0417095
0.0691521
0.0848994
0.0956784
0.104125
0.111208
0.11737
0.122839
0.127748
0.132179
0.136185
0.139803
0.143062
0.145986
0.1486
0.150929
0.153004
0.154859
0.156538
0.158091
0.159578
0.161067
0.162638
0.164377
0.166379
0.168746
0.171586
0.175013
0.179146
0.184109
0.190032
0.197045
0.205278
0.214849
0.225853
0.238346
0.2523
0.267594
0.284014
0.301269
0.319061
0.337229
0.355939
0.375922
0.398575
0.0408532
0.0678462
0.0833788
0.0940453
0.102421
0.10945
0.11556
0.120972
0.125815
0.13017
0.134089
0.137609
0.140761
0.143569
0.146059
0.148257
0.150195
0.151909
0.153441
0.154842
0.156172
0.157499
0.158899
0.160459
0.162272
0.164439
0.167068
0.170271
0.174168
0.178883
0.184549
0.191302
0.199281
0.20862
0.219433
0.231796
0.245721
0.261125
0.277822
0.295533
0.313948
0.332871
0.352367
0.37309
0.396432
0.0399132
0.0663955
0.0816916
0.0922351
0.100536
0.107509
0.113569
0.11893
0.123716
0.128006
0.131851
0.13529
0.138352
0.141064
0.143451
0.145542
0.147367
0.148963
0.150372
0.151646
0.152842
0.154028
0.155279
0.156679
0.15832
0.160303
0.162732
0.165719
0.169385
0.173854
0.179261
0.185747
0.193458
0.202543
0.213134
0.225334
0.239187
0.254649
0.271568
0.289684
0.308676
0.328278
0.348464
0.369717
0.39327
0.0389033
0.0648185
0.0798559
0.090264
0.0984819
0.105396
0.111405
0.116717
0.121452
0.125685
0.129469
0.132839
0.135828
0.138462
0.140767
0.142771
0.144507
0.14601
0.147322
0.148492
0.149579
0.150648
0.151771
0.153033
0.154522
0.156336
0.158579
0.161363
0.164805
0.169031
0.174176
0.180385
0.187811
0.196611
0.206936
0.218914
0.23262
0.24805
0.265092
0.283513
0.302993
0.323213
0.344027
0.36571
0.389235
0.0378385
0.0631366
0.0778938
0.0881527
0.096278
0.103126
0.109082
0.114344
0.119031
0.123213
0.126944
0.130258
0.133188
0.13576
0.138002
0.139941
0.141609
0.143041
0.14428
0.145372
0.146374
0.147349
0.148369
0.149514
0.150871
0.152535
0.154609
0.157201
0.160428
0.164415
0.169296
0.175218
0.182336
0.190817
0.200823
0.212504
0.225966
0.241246
0.258274
0.276858
0.296692
0.31742
0.338777
0.36081
0.384158
0.0367345
0.0613734
0.0758305
0.0859259
0.0939475
0.100721
0.106617
0.111828
0.116466
0.120602
0.124285
0.127553
0.130436
0.132961
0.135155
0.137048
0.138668
0.140052
0.141239
0.142277
0.143218
0.144124
0.145064
0.146114
0.14736
0.148894
0.150814
0.153229
0.156251
0.160004
0.164619
0.170243
0.177031
0.185154
0.194783
0.206085
0.219192
0.234181
0.251031
0.2696
0.289613
0.310703
0.332509
0.354862
0.378035
0.0356076
0.0595545
0.0736937
0.0836115
0.0915174
0.098207
0.104036
0.10919
0.113778
0.117867
0.121507
0.124734
0.127579
0.130069
0.132231
0.134092
0.135683
0.137038
0.138196
0.1392
0.140103
0.140962
0.141844
0.142822
0.143977
0.1454
0.147185
0.149436
0.152263
0.155787
0.160136
0.165452
0.17189
0.179617
0.188811
0.199649
0.212285
0.226832
0.243319
0.261661
0.281638
0.302903
0.325044
0.347713
0.370844
0.0344741
0.0577069
0.0715134
0.0812402
0.0890177
0.095612
0.101365
0.106456
0.110989
0.11503
0.118629
0.121819
0.124633
0.127097
0.129237
0.131081
0.132658
0.134
0.135146
0.136137
0.137021
0.137854
0.138699
0.139625
0.140711
0.14204
0.143706
0.145808
0.148452
0.151753
0.155836
0.160836
0.166904
0.174202
0.182908
0.193201
0.205253
0.219205
0.235133
0.253017
0.272706
0.293907
0.31621
0.339166
0.362438
0.0333505
0.0558581
0.0693206
0.0788443
0.0864811
0.0929684
0.0986357
0.103655
0.108127
0.112117
0.115672
0.118828
0.121614
0.124058
0.126185
0.128022
0.129596
0.130941
0.13209
0.133083
0.133967
0.134792
0.135619
0.136513
0.137546
0.138801
0.140364
0.14233
0.144801
0.147887
0.151704
0.156384
0.162067
0.168909
0.17708
0.186759
0.198125
0.211338
0.226516
0.243699
0.262815
0.283654
0.305862
0.328973
0.352498
0.0322525
0.0540357
0.0671471
0.076457
0.0839414
0.0903101
0.0958806
0.100819
0.105223
0.109157
0.112666
0.115786
0.118546
0.120972
0.123091
0.124928
0.12651
0.127867
0.129031
0.13004
0.130938
0.131771
0.132595
0.133473
0.134471
0.135666
0.137141
0.138985
0.141294
0.144172
0.147728
0.152085
0.157373
0.163739
0.171342
0.180352
0.190947
0.203299
0.217552
0.233799
0.252044
0.272173
0.293929
0.316907
0.340593
0.0311949
0.0522664
0.0650241
0.0741121
0.0814335
0.0876723
0.093135
0.0979825
0.10231
0.106181
0.109639
0.11272
0.115452
0.117863
0.119976
0.121817
0.123411
0.124787
0.125975
0.127011
0.127933
0.128786
0.129621
0.130496
0.131473
0.132623
0.134023
0.135757
0.137915
0.140592
0.143893
0.147928
0.152819
0.158699
0.165712
0.174017
0.183782
0.195178
0.208364
0.223467
0.240556
0.259607
0.280475
0.30287
0.326355
0.030191
0.0505759
0.062982
0.0718425
0.0789919
0.0850906
0.090435
0.0951816
0.0994237
0.103223
0.106624
0.109661
0.112363
0.114755
0.116863
0.118709
0.120318
0.121717
0.122934
0.124001
0.124956
0.125837
0.126693
0.127575
0.128542
0.129659
0.130996
0.132631
0.134648
0.137135
0.140187
0.143906
0.148402
0.153793
0.160209
0.167792
0.176695
0.187078
0.199099
0.212902
0.228595
0.246228
0.265756
0.287017
0.309707
0.0292528
0.0489878
0.0610497
0.0696802
0.0766507
0.0826002
0.0878165
0.0924524
0.0965998
0.100319
0.103655
0.106642
0.109308
0.111678
0.113777
0.115626
0.11725
0.118672
0.11992
0.121022
0.122013
0.122928
0.123811
0.124708
0.125673
0.126765
0.128049
0.129596
0.131481
0.133787
0.1366
0.140012
0.14412
0.14903
0.154855
0.161719
0.169754
0.179103
0.189911
0.202322
0.216459
0.232411
0.25021
0.269799
0.291009
0.0283903
0.0475235
0.0592538
0.0676553
0.0744426
0.0802356
0.0853152
0.0898313
0.0938746
0.0975057
0.100768
0.103697
0.10632
0.108663
0.110747
0.112596
0.114231
0.115674
0.116951
0.118088
0.119115
0.120066
0.120979
0.121896
0.122865
0.123939
0.125177
0.126644
0.128408
0.130543
0.133127
0.136242
0.139976
0.144419
0.149669
0.155831
0.163018
0.171348
0.180947
0.191941
0.204451
0.218579
0.23439
0.251897
0.271032
0.0276118
0.0462016
0.0576187
0.065796
0.0723984
0.0780298
0.0829655
0.0873536
0.0912842
0.0948179
0.0979988
0.100861
0.103434
0.105741
0.107805
0.109646
0.111286
0.112746
0.114048
0.115216
0.116278
0.117263
0.118206
0.119144
0.120119
0.12118
0.122379
0.123773
0.125424
0.127398
0.129765
0.132598
0.135973
0.13997
0.144671
0.150162
0.156537
0.163891
0.172325
0.181943
0.192846
0.205125
0.218854
0.234069
0.250761
0.026924
0.0450386
0.0561663
0.0641281
0.0705469
0.0760139
0.0808003
0.0850533
0.0888632
0.0922911
0.0953815
0.0981691
0.100682
0.102945
0.10498
0.106806
0.108444
0.109913
0.111234
0.112428
0.113519
0.114535
0.115505
0.116463
0.117445
0.118495
0.119658
0.120985
0.122531
0.124355
0.126517
0.129084
0.13212
0.135695
0.139877
0.144738
0.150351
0.156792
0.164137
0.172465
0.18185
0.192363
0.204062
0.216984
0.231133
0.0263326
0.0440486
0.0549162
0.062675
0.0689148
0.0742169
0.0788505
0.0829628
0.086645
0.0899591
0.0929504
0.0956542
0.0980989
0.100309
0.102305
0.104107
0.105734
0.107204
0.108535
0.109747
0.110861
0.111901
0.112894
0.113868
0.114856
0.115894
0.117024
0.118289
0.119737
0.12142
0.123392
0.125709
0.128428
0.131608
0.135306
0.139582
0.144492
0.150093
0.156442
0.163592
0.171595
0.180494
0.190326
0.20111
0.212846
0.0258422
0.0432443
0.053886
0.0614585
0.0675266
0.0726657
0.0771446
0.0811119
0.0846604
0.0878535
0.0907377
0.0933488
0.0957159
0.0978632
0.0998116
0.10158
0.103186
0.104646
0.105978
0.107198
0.108327
0.109384
0.110393
0.111378
0.112367
0.113393
0.11449
0.115697
0.117054
0.118607
0.120401
0.122486
0.124911
0.127725
0.130977
0.134715
0.138982
0.143823
0.149275
0.155373
0.162147
0.169619
0.177802
0.186698
0.196288
0.025458
0.0426377
0.0530928
0.0604988
0.0664051
0.0713851
0.0757091
0.0795284
0.0829381
0.0860036
0.088773
0.0912831
0.0935635
0.0956386
0.097529
0.0992532
0.100828
0.102268
0.10359
0.10481
0.105943
0.107008
0.108025
0.109014
0.110001
0.111011
0.112075
0.113226
0.114498
0.115929
0.11756
0.119432
0.121586
0.124065
0.12691
0.130157
0.133844
0.138
0.142654
0.147824
0.153524
0.159761
0.166529
0.173813
0.181582
0.0251856
0.0422413
0.0525531
0.0598153
0.0655717
0.0703979
0.0745679
0.078237
0.0815035
0.0844356
0.0870831
0.0894843
0.0916692
0.0936627
0.0954853
0.097155
0.0986876
0.100098
0.1014
0.102607
0.103735
0.104798
0.105814
0.1068
0.107778
0.108769
0.109799
0.110896
0.112088
0.113407
0.114888
0.116565
0.118473
0.120648
0.123123
0.125929
0.129094
0.132641
0.136589
0.140947
0.145719
0.150899
0.156471
0.162408
0.16867
0.0250325
0.0420697
0.052285
0.0594279
0.0650474
0.0697255
0.0737428
0.0772598
0.0803793
0.0831724
0.0856914
0.0879759
0.0900571
0.09196
0.0937053
0.0953105
0.0967907
0.0981598
0.0994305
0.100615
0.101727
0.102779
0.103785
0.10476
0.105723
0.106691
0.107685
0.108728
0.109844
0.11106
0.112404
0.113905
0.115591
0.117492
0.119636
0.122048
0.124749
0.127758
0.131085
0.134737
0.138709
0.14299
0.147558
0.152381
0.157414
0.0250088
0.0421403
0.0523088
0.0593575
0.0648527
0.069388
0.0732533
0.0766161
0.0795845
0.0822332
0.0846173
0.0867779
0.0887473
0.0905511
0.0922099
0.093741
0.095159
0.0964767
0.0977059
0.0988577
0.0999431
0.100973
0.101961
0.102917
0.103858
0.104798
0.105753
0.106744
0.107788
0.108909
0.110129
0.111471
0.112959
0.114617
0.116467
0.118529
0.120822
0.123358
0.126145
0.129185
0.132471
0.135989
0.139715
0.143617
0.147649
0.0251282
0.0424755
0.0526485
0.0596273
0.0650088
0.0694045
0.0731169
0.0763221
0.0791344
0.081633
0.0838756
0.0859053
0.0877554
0.0894519
0.0910157
0.0924637
0.09381
0.0950667
0.0962445
0.0973534
0.0984029
0.0994025
0.100362
0.101293
0.102205
0.103112
0.104027
0.104965
0.105941
0.106974
0.108081
0.109281
0.110594
0.112037
0.113628
0.115385
0.117321
0.119446
0.121765
0.124277
0.126977
0.129849
0.13287
0.136009
0.139225
0.0254093
0.0431035
0.0533327
0.0602626
0.065537
0.0697928
0.0733483
0.0763903
0.0790403
0.0813822
0.0834764
0.0853682
0.0870916
0.0886733
0.0901341
0.0914907
0.0927566
0.0939434
0.0950607
0.0961175
0.0971221
0.0980824
0.0990067
0.0999034
0.100782
0.101652
0.102524
0.103409
0.104321
0.105273
0.106279
0.107353
0.10851
0.109765
0.111132
0.112624
0.114251
0.116021
0.117937
0.119999
0.122199
0.124524
0.126955
0.129461
0.132008
0.0258772
0.0440597
0.0543951
0.0612913
0.0664588
0.0705685
0.0739587
0.076829
0.0793084
0.0814856
0.0834242
0.0851708
0.0867605
0.0882202
0.0895706
0.0908282
0.0920059
0.0931146
0.0941634
0.0951599
0.0961115
0.0970248
0.0979065
0.0987634
0.0996026
0.100432
0.101259
0.102093
0.102944
0.103821
0.104735
0.105697
0.106719
0.107812
0.108985
0.110248
0.11161
0.113076
0.114649
0.116327
0.118104
0.119969
0.121904
0.123885
0.125882
0.0265664
0.045389
0.055875
0.0627425
0.0677939
0.0717436
0.0749547
0.0776406
0.0799386
0.081942
0.0837168
0.0853109
0.08676
0.088091
0.0893244
0.0904761
0.0915587
0.0925823
0.0935552
0.0944843
0.0953759
0.0962354
0.0970683
0.0978799
0.0986756
0.0994611
0.100242
0.101026
0.101818
0.102627
0.10346
0.104325
0.10523
0.106182
0.107189
0.108258
0.109395
0.110603
0.111883
0.113236
0.114656
0.116133
0.117653
0.119197
0.120739
0.0275266
0.0471476
0.0578164
0.0646452
0.0695577
0.073324
0.0763353
0.0788201
0.0809234
0.0827423
0.0843446
0.0857789
0.0870809
0.0882771
0.0893874
0.0904274
0.0914089
0.0923414
0.0932323
0.0940878
0.0949134
0.0957135
0.0964924
0.0972543
0.098003
0.0987426
0.0994774
0.100212
0.10095
0.101697
0.102459
0.103239
0.104043
0.104877
0.105744
0.106649
0.107596
0.108586
0.109621
0.110699
0.111816
0.112966
0.114137
0.115314
0.116478
0.028831
0.0494064
0.0602675
0.0670246
0.0717587
0.0753065
0.0780904
0.080353
0.0822458
0.0838685
0.0852894
0.0865569
0.0877059
0.088762
0.0897445
0.090668
0.0915435
0.0923798
0.0931837
0.0939606
0.0947151
0.095451
0.0961716
0.0968799
0.0975788
0.098271
0.0989592
0.0996461
0.100334
0.101027
0.101726
0.102435
0.103155
0.103891
0.104642
0.105412
0.106201
0.107011
0.10784
0.108687
0.109549
0.110421
0.111296
0.112162
0.113006
0.0305867
0.0522547
0.0632785
0.0698985
0.0743934
0.0776753
0.0801969
0.0822128
0.083878
0.0852925
0.0865236
0.0876181
0.0886094
0.0895215
0.0903726
0.091176
0.091942
0.0926784
0.0933913
0.0940855
0.0947648
0.0954324
0.0960909
0.0967425
0.097389
0.0980323
0.0986739
0.099315
0.099957
0.100601
0.101247
0.101897
0.10255
0.103207
0.103867
0.10453
0.105193
0.105857
0.106517
0.107174
0.107822
0.108459
0.109079
0.109677
0.110242
0.032948
0.0558045
0.066898
0.0732717
0.0774418
0.0803975
0.0826163
0.0843587
0.0857791
0.0869746
0.0880091
0.0889263
0.089757
0.0905231
0.091241
0.0919225
0.0925769
0.093211
0.0938301
0.0944384
0.0950391
0.0956348
0.0962275
0.096819
0.0974104
0.0980028
0.0985969
0.0991931
0.0997915
0.100392
0.100994
0.101596
0.102197
0.102795
0.103387
0.103969
0.104539
0.105091
0.105622
0.106127
0.106602
0.107042
0.107445
0.107807
0.108123
0.0361434
0.0601959
0.0711667
0.0771281
0.080861
0.0834191
0.0852912
0.0867341
0.0878947
0.0888631
0.0896972
0.0904359
0.091106
0.0917267
0.0923119
0.0928719
0.0934143
0.0939451
0.0944687
0.0949886
0.0955076
0.0960279
0.096551
0.0970783
0.0976106
0.0981487
0.0986927
0.0992425
0.0997976
0.100357
0.10092
0.101483
0.102044
0.102599
0.103144
0.103674
0.104182
0.10466
0.105102
0.1055
0.105846
0.106133
0.106357
0.106515
0.106608
0.0405104
0.065604
0.0761069
0.0814208
0.0845774
0.0866596
0.0881426
0.0892642
0.0901556
0.0908945
0.0915296
0.0920931
0.0926068
0.0930861
0.0935422
0.0939832
0.0944153
0.0948433
0.0952707
0.0957004
0.0961348
0.0965756
0.0970243
0.0974819
0.0979493
0.0984269
0.0989148
0.0994129
0.0999206
0.100437
0.100959
0.101486
0.102013
0.102537
0.103052
0.103551
0.104026
0.104467
0.104863
0.105203
0.105473
0.105663
0.105761
0.105762
0.105664
0.0465071
0.0722468
0.0816962
0.0860483
0.0884714
0.0900034
0.0910652
0.0918556
0.0924789
0.0929949
0.0934402
0.0938381
0.0942047
0.0945509
0.0948848
0.0952123
0.0955378
0.0958649
0.0961964
0.0965345
0.0968811
0.0972377
0.0976056
0.0979859
0.0983794
0.0987867
0.099208
0.0996434
0.100093
0.100555
0.101028
0.101511
0.102
0.102492
0.10298
0.103459
0.103919
0.104351
0.10474
0.105072
0.105328
0.105491
0.105541
0.10546
0.105238
0.0548298
0.0804037
0.0878056
0.0908117
0.0923561
0.0932916
0.0939275
0.0943989
0.0947729
0.0950863
0.095361
0.095611
0.0958458
0.0960718
0.0962939
0.0965159
0.0967405
0.0969701
0.0972067
0.097452
0.0977073
0.097974
0.0982532
0.0985459
0.0988531
0.0991756
0.0995138
0.0998683
0.100239
0.100626
0.101029
0.101446
0.101875
0.102314
0.10276
0.103206
0.103646
0.104071
0.104468
0.104824
0.105118
0.105328
0.105425
0.105379
0.105158
0.0671803
0.0903141
0.094022
0.095334
0.0959523
0.0963206
0.0965787
0.0967797
0.0969476
0.0970952
0.0972303
0.0973581
0.0974821
0.0976051
0.0977292
0.0978561
0.0979874
0.0981244
0.0982681
0.0984196
0.09858
0.0987502
0.0989312
0.0991238
0.0993289
0.0995473
0.0997799
0.100027
0.10029
0.100568
0.100863
0.101173
0.101499
0.101839
0.102193
0.102557
0.102929
0.103302
0.103671
0.104026
0.104353
0.104635
0.104847
0.104955
0.104917
0.0894283
0.100324
0.0991647
0.0989561
0.0988784
0.0988602
0.0988721
0.0988975
0.0989288
0.0989629
0.0989985
0.0990353
0.0990734
0.0991131
0.0991547
0.0991987
0.0992454
0.0992952
0.0993487
0.0994061
0.099468
0.0995347
0.0996068
0.0996846
0.0997687
0.0998597
0.0999579
0.100064
0.100178
0.100301
0.100433
0.100575
0.100727
0.100889
0.101062
0.101245
0.101438
0.101641
0.101853
0.102073
0.102299
0.102529
0.102758
0.102977
0.103171
)
;

boundaryField
{
    leftWall
    {
        type            kqRWallFunction;
        value           nonuniform List<scalar> 
42
(
0.0444672
0.0443266
0.0440603
0.0436552
0.0431216
0.0424695
0.0417095
0.0408532
0.0399132
0.0389033
0.0378385
0.0367345
0.0356076
0.0344741
0.0333505
0.0322525
0.0311949
0.030191
0.0292528
0.0283903
0.0276118
0.026924
0.0263326
0.0258422
0.025458
0.0251856
0.0250325
0.0250088
0.0251282
0.0254093
0.0258772
0.0265664
0.0275266
0.028831
0.0305867
0.032948
0.0361434
0.0405104
0.0465071
0.0548298
0.0671803
0.0894283
)
;
    }
    rightWall
    {
        type            kqRWallFunction;
        value           nonuniform 0();
    }
    lowerWall
    {
        type            kqRWallFunction;
        value           nonuniform 0();
    }
    atmosphere
    {
        type            inletOutlet;
        inletValue      uniform 0.1;
        value           uniform 0.1;
    }
    defaultFaces
    {
        type            empty;
    }
    procBoundary2to0
    {
        type            processor;
        value           nonuniform List<scalar> 
46
(
0.18988
0.193115
0.196413
0.199859
0.203546
0.207577
0.212062
0.217114
0.222851
0.229388
0.236836
0.245292
0.254835
0.265513
0.277328
0.290227
0.304085
0.318698
0.333788
0.349019
0.364023
0.378443
0.391966
0.404351
0.4154
0.0444916
0.0733253
0.0902465
0.101843
0.11097
0.118718
0.125594
0.131861
0.137668
0.143101
0.14821
0.153024
0.157562
0.161836
0.165858
0.16964
0.173201
0.176567
0.17977
0.182855
0.182855
)
;
    }
    procBoundary2to3
    {
        type            processor;
        value           nonuniform List<scalar> 
43
(
0.421472
0.419248
0.418551
0.419324
0.421175
0.423412
0.42519
0.425712
0.424427
0.421159
0.416423
0.410285
0.403027
0.394919
0.386025
0.376069
0.364434
0.350369
0.333373
0.31354
0.291629
0.268849
0.24647
0.225501
0.206537
0.189789
0.175207
0.162604
0.151762
0.142471
0.134554
0.127858
0.122248
0.117603
0.113808
0.110763
0.10839
0.106636
0.105472
0.104871
0.104738
0.104679
0.103306
)
;
    }
}


// ************************************************************************* //
