/*--------------------------------*- C++ -*----------------------------------*\
| =========                 |                                                 |
| \\      /  F ield         | OpenFOAM: The Open Source CFD Toolbox           |
|  \\    /   O peration     | Version:  5.0                                   |
|   \\  /    A nd           | Web:      www.OpenFOAM.org                      |
|    \\/     M anipulation  |                                                 |
\*---------------------------------------------------------------------------*/
FoamFile
{
    version     2.0;
    format      ascii;
    class       volScalarField;
    location    "0.4";
    object      nut;
}
// * * * * * * * * * * * * * * * * * * * * * * * * * * * * * * * * * * * * * //

dimensions      [0 2 -1 0 0 0 0];

internalField   nonuniform List<scalar> 
1915
(
0.0124345
0.0125086
0.0125639
0.0126004
0.0126171
0.0126121
0.0125828
0.0125264
0.0124404
0.0123227
0.0121728
0.0119917
0.0117825
0.0115496
0.0112987
0.0110359
0.0107666
0.0104951
0.0102245
0.00995597
0.00968986
0.00942615
0.00916556
0.00891035
0.00866515
0.000149167
0.00112671
0.0025511
0.00396616
0.00525501
0.00639071
0.00737508
0.00822061
0.00894317
0.00955886
0.0100827
0.0105279
0.0109061
0.0112271
0.0114992
0.0117296
0.0119241
0.0120879
0.012225
0.0123388
0.0124318
0.0125055
0.0125606
0.0125966
0.0126121
0.0126049
0.0125719
0.01251
0.0124162
0.0122885
0.0121264
0.0119313
0.0117068
0.011458
0.0111913
0.0109133
0.0106298
0.0103453
0.0100628
0.00978304
0.00950608
0.00923148
0.00895976
0.00869342
0.00843775
0.000148853
0.00113773
0.00257617
0.00400109
0.00529443
0.00643038
0.00741223
0.00825372
0.00897156
0.00958223
0.0101011
0.0105417
0.0109157
0.011233
0.011502
0.0117297
0.0119222
0.0120844
0.0122206
0.012334
0.012427
0.012501
0.0125564
0.0125926
0.0126079
0.0125995
0.012564
0.0124978
0.0123978
0.0122617
0.0120891
0.0118818
0.0116439
0.0113811
0.0111004
0.0108092
0.0105137
0.0102187
0.00992696
0.00963924
0.00935505
0.00907363
0.00879524
0.00852253
0.00826141
0.000148349
0.00114483
0.00259588
0.00402925
0.00532583
0.00646114
0.00744
0.00827722
0.00899031
0.00959637
0.010111
0.0105477
0.0109182
0.0112325
0.0114989
0.0117246
0.0119156
0.0120769
0.0122127
0.0123261
0.0124196
0.0124945
0.012551
0.0125882
0.0126042
0.0125957
0.012559
0.0124902
0.0123856
0.012243
0.012062
0.0118445
0.0115951
0.0113201
0.0110275
0.010725
0.0104196
0.0101164
0.00981824
0.00952567
0.00923793
0.00895384
0.00867339
0.00839924
0.00813785
0.000147618
0.00114987
0.00261115
0.0040509
0.00534918
0.00648288
0.00745826
0.0082912
0.00899985
0.00960171
0.0101125
0.0105459
0.0109136
0.0112255
0.01149
0.0117143
0.0119043
0.0120651
0.0122008
0.0123148
0.0124093
0.0124855
0.0125437
0.0125828
0.0126004
0.012593
0.0125567
0.0124869
0.0123798
0.0122328
0.0120455
0.0118201
0.0115613
0.0112763
0.0109736
0.0106618
0.0103485
0.0100393
0.00973723
0.00944284
0.00915504
0.00887227
0.00859414
0.00832319
0.00806621
0.000146677
0.00115292
0.0026219
0.00406579
0.00536412
0.00649519
0.00746662
0.00829523
0.00899972
0.00959785
0.0101054
0.0105361
0.0109016
0.0112118
0.011475
0.0116983
0.0118878
0.0120486
0.0121847
0.0122996
0.0123954
0.0124735
0.0125339
0.0125754
0.0125956
0.0125906
0.0125562
0.0124874
0.01238
0.012231
0.0120399
0.011809
0.0115432
0.0112503
0.0109395
0.0106202
0.0103009
0.00998777
0.00968411
0.00939061
0.00910591
0.00882802
0.00855605
0.00829221
0.00804337
0.000145539
0.00115389
0.00262791
0.00407356
0.0053702
0.00649758
0.00746457
0.00828882
0.00898942
0.0095843
0.0100893
0.0105179
0.0108819
0.0111909
0.0114533
0.0116762
0.0118657
0.0120268
0.0121638
0.0122799
0.0123775
0.0124579
0.012521
0.0125658
0.0125894
0.012588
0.0125568
0.0124907
0.0123851
0.0122368
0.0120449
0.0118114
0.0115409
0.0112424
0.0109256
0.0106008
0.0102772
0.00996189
0.00965867
0.00936835
0.00908937
0.00881924
0.00855647
0.00830268
0.00806448
0.000144217
0.00115273
0.00262896
0.00407384
0.00536698
0.00648956
0.00745162
0.00827145
0.00896842
0.00956051
0.0100634
0.0104907
0.0108537
0.0111622
0.0114245
0.0116475
0.0118374
0.0119993
0.0121374
0.0122551
0.0123548
0.0124379
0.0125044
0.012553
0.0125811
0.0125846
0.0125584
0.012497
0.0123954
0.01225
0.0120595
0.0118257
0.011554
0.0112528
0.0109325
0.0106039
0.0102775
0.00996149
0.00966029
0.00937492
0.00910365
0.00884336
0.00859191
0.00835006
0.00812378
0.000142727
0.0011494
0.00262487
0.00406636
0.0053541
0.00647074
0.00742734
0.00824267
0.00893626
0.00952599
0.0100274
0.0104539
0.0108166
0.0111252
0.0113878
0.0116115
0.0118023
0.0119653
0.0121049
0.0122245
0.0123266
0.0124127
0.0124831
0.0125364
0.0125699
0.0125796
0.0125602
0.0125058
0.0124109
0.0122713
0.0120851
0.011854
0.0115831
0.011281
0.0109588
0.0106285
0.0103013
0.00998604
0.00968813
0.00940895
0.00914666
0.00889731
0.00865837
0.00842941
0.00821545
0.000141086
0.0011439
0.00261553
0.0040509
0.00533132
0.00644085
0.00739142
0.00820215
0.00889256
0.00948034
0.00998081
0.010407
0.0107701
0.0110793
0.0113429
0.0115678
0.0117599
0.0119244
0.0120657
0.0121875
0.0122923
0.0123818
0.0124563
0.0125148
0.0125548
0.012572
0.0125611
0.012516
0.0124307
0.0123002
0.0121221
0.0118974
0.0116308
0.0113308
0.011009
0.0106782
0.0103506
0.0100363
0.00974148
0.00946821
0.00921477
0.00897715
0.00875133
0.00853584
0.00833428
0.000139312
0.00113625
0.00260089
0.00402737
0.00529848
0.00639972
0.00734371
0.00814971
0.00883711
0.00942329
0.00992328
0.0103498
0.0107137
0.0110242
0.0112893
0.0115157
0.0117096
0.011876
0.0120194
0.0121436
0.0122513
0.0123443
0.0124233
0.0124875
0.0125345
0.0125603
0.0125596
0.0125261
0.0124531
0.0123354
0.0121694
0.0119553
0.0116972
0.0114033
0.011085
0.010756
0.0104294
0.0101165
0.00982459
0.00955674
0.00931156
0.00908479
0.00887137
0.00866815
0.00847669
0.000137426
0.0011265
0.00258096
0.00399575
0.00525562
0.00634738
0.0072842
0.00808532
0.00876983
0.00935475
0.00985467
0.010282
0.0106473
0.0109596
0.0112266
0.0114551
0.0116511
0.0118197
0.0119655
0.0120923
0.012203
0.0122998
0.0123834
0.0124535
0.0125081
0.0125433
0.0125541
0.012534
0.0124762
0.0123745
0.0122248
0.012026
0.0117812
0.0114978
0.011187
0.0108627
0.0105388
0.0102278
0.00993851
0.00967514
0.00943716
0.00922042
0.00901911
0.00882836
0.00864713
0.000135451
0.00111474
0.00255585
0.0039562
0.00520289
0.00628402
0.00721308
0.00800914
0.00869085
0.00927476
0.009775
0.0102036
0.0105708
0.0108853
0.0111547
0.0113857
0.0115842
0.0117554
0.0119038
0.0120334
0.0121472
0.0122477
0.012336
0.0124121
0.0124744
0.0125196
0.0125428
0.0125376
0.0124972
0.0124148
0.0122853
0.0121065
0.01188
0.0116121
0.0113134
0.0109972
0.0106783
0.0103701
0.0100829
0.00982264
0.00959009
0.00938184
0.00919187
0.00901395
0.00884435
0.000133414
0.0011011
0.00252577
0.00390898
0.00514063
0.00621
0.00713073
0.00792152
0.00860048
0.00918358
0.00968444
0.0101147
0.0104841
0.0108012
0.0110735
0.0113075
0.0115089
0.0116829
0.0118341
0.0119666
0.0120837
0.0121879
0.0122808
0.0123627
0.0124327
0.0124878
0.0125238
0.0125346
0.0125133
0.0124528
0.0123471
0.0121926
0.0119896
0.0117427
0.0114611
0.0111574
0.0108464
0.0105422
0.0102569
0.00999815
0.00976858
0.00956627
0.00938576
0.00922016
0.00906362
0.000131339
0.00108577
0.00249102
0.00385454
0.00506939
0.00612592
0.00703773
0.00782302
0.00849922
0.00908165
0.00958337
0.0100155
0.0103875
0.0107077
0.0109832
0.0112204
0.011425
0.0116021
0.0117564
0.011892
0.0120122
0.01212
0.0122173
0.0123048
0.012382
0.0124469
0.0124956
0.0125227
0.0125215
0.0124847
0.0124056
0.0122795
0.012105
0.0118846
0.0116257
0.0113396
0.0110404
0.0107427
0.0104596
0.0102008
0.00997142
0.00977149
0.00959707
0.00944158
0.009298
0.000129257
0.00106896
0.00245205
0.00379348
0.00498988
0.00603256
0.0069349
0.00771442
0.00838779
0.00896961
0.00947234
0.00990659
0.0102815
0.0106049
0.0108839
0.0111246
0.0113327
0.0115132
0.0116707
0.0118094
0.0119329
0.0120441
0.0121454
0.012238
0.012322
0.012396
0.0124568
0.0124999
0.0125188
0.0125066
0.0124561
0.0123616
0.0122198
0.0120313
0.0118011
0.0115386
0.0112563
0.0109687
0.0106895
0.0104303
0.0101985
0.0099968
0.00982366
0.00967389
0.00954051
0.000127195
0.00105094
0.00240939
0.0037266
0.00490306
0.00593096
0.00682327
0.00759672
0.00826713
0.00884833
0.00935212
0.0097886
0.0101665
0.0104934
0.0107761
0.0110205
0.0112323
0.0114163
0.0115772
0.011719
0.0118456
0.0119601
0.0120651
0.0121623
0.0122522
0.0123343
0.0124063
0.0124642
0.0125026
0.0125149
0.0124937
0.0124327
0.0123271
0.0121753
0.0119798
0.0117473
0.0114884
0.0112162
0.0109446
0.0106861
0.0104505
0.0102435
0.0100662
0.00991583
0.00978689
0.000125184
0.00103205
0.00236376
0.00365488
0.00481011
0.00582236
0.00670411
0.00747115
0.00813839
0.00871885
0.00922365
0.00966238
0.0100433
0.0103738
0.0106602
0.0109086
0.0111241
0.0113117
0.011476
0.0116211
0.0117508
0.0118683
0.0119766
0.0120776
0.0121726
0.0122616
0.0123432
0.0124145
0.0124708
0.0125063
0.012514
0.012487
0.0124196
0.0123082
0.0121527
0.0119569
0.0117287
0.0114791
0.0112209
0.010967
0.0107288
0.0105144
0.0103282
0.0101705
0.0100381
0.00012325
0.00101265
0.00231595
0.00357949
0.0047124
0.00570826
0.00657891
0.00733916
0.00800296
0.00858246
0.00908812
0.00952897
0.0099129
0.0102469
0.0105371
0.0107893
0.0110087
0.0112
0.0113677
0.0115159
0.0116485
0.0117688
0.01188
0.0119842
0.0120833
0.0121779
0.0122674
0.01235
0.0124219
0.0124783
0.012513
0.012519
0.0124901
0.0124211
0.0123096
0.0121566
0.0119667
0.011748
0.0115115
0.0112692
0.0110329
0.0108126
0.0106155
0.010445
0.0103012
0.000121422
0.000993149
0.00226689
0.00350176
0.00461151
0.00559035
0.0064494
0.00720245
0.00786244
0.00844067
0.0089469
0.00938964
0.00977634
0.0101136
0.0104075
0.0106635
0.0108866
0.0110815
0.0112526
0.0114039
0.0115392
0.0116621
0.0117757
0.0118825
0.0119847
0.0120835
0.0121791
0.0122705
0.0123553
0.0124296
0.0124881
0.0125245
0.0125324
0.0125058
0.0124404
0.0123345
0.0121897
0.0120108
0.0118057
0.0115847
0.0113587
0.0111384
0.0109327
0.010748
0.0105875
0.000119725
0.000973963
0.00221757
0.00342313
0.00450918
0.00547051
0.00631752
0.00706293
0.00771867
0.00829521
0.00880162
0.00924586
0.00963497
0.00997529
0.0102726
0.0105321
0.0107587
0.010957
0.0111313
0.0112856
0.0114235
0.0115487
0.0116642
0.011773
0.0118773
0.011979
0.0120788
0.0121767
0.0122712
0.0123597
0.012438
0.0125008
0.0125419
0.0125553
0.0125355
0.0124787
0.0123837
0.0122521
0.0120885
0.0119001
0.0116959
0.011486
0.0112796
0.011085
0.0109079
0.000118181
0.000955521
0.00216902
0.00334513
0.00440726
0.00535081
0.00618539
0.00692272
0.00757373
0.00814805
0.00865411
0.00909933
0.00949036
0.00983323
0.0101335
0.0103961
0.010626
0.0108274
0.0110047
0.0111616
0.0113019
0.011429
0.0115462
0.0116564
0.011762
0.0118653
0.0119677
0.0120696
0.0121708
0.0122695
0.0123629
0.0124469
0.0125161
0.0125649
0.0125873
0.0125785
0.012535
0.0124556
0.0123415
0.0121968
0.0120275
0.0118415
0.0116473
0.0114533
0.0112665
0.00011681
0.000938232
0.00212225
0.00326929
0.00430768
0.00523337
0.00605528
0.00678412
0.00742988
0.00800139
0.00850644
0.00895198
0.00934427
0.00968907
0.00999165
0.0102569
0.0104895
0.0106937
0.0108735
0.0110328
0.0111751
0.0113039
0.0114224
0.0115335
0.0116398
0.0117437
0.011847
0.0119508
0.0120556
0.0121608
0.0122646
0.012364
0.012455
0.0125327
0.0125917
0.0126264
0.0126322
0.0126059
0.0125459
0.012453
0.0123302
0.0121824
0.0120158
0.0118378
0.0116552
0.000115632
0.00092247
0.00207821
0.00319711
0.00421234
0.00512041
0.00592957
0.0066496
0.00728958
0.00785762
0.00836091
0.00880597
0.00919871
0.00954463
0.0098488
0.010116
0.0103507
0.010557
0.0107389
0.0109001
0.0110441
0.0111743
0.0112936
0.0114052
0.0115116
0.0116152
0.0117183
0.0118223
0.0119282
0.0120363
0.0121458
0.0122551
0.0123612
0.0124603
0.0125479
0.0126188
0.0126681
0.0126913
0.012685
0.0126475
0.0125786
0.0124804
0.0123562
0.0122109
0.01205
0.000114665
0.000908558
0.00203776
0.00312998
0.00412307
0.00501411
0.00581069
0.00652172
0.00715546
0.00771934
0.00822004
0.00866368
0.0090559
0.00940195
0.00970677
0.00997498
0.0102109
0.0104186
0.010602
0.0107646
0.0109098
0.0110409
0.0111608
0.0112725
0.0113785
0.0114814
0.0115832
0.011686
0.011791
0.0118992
0.0120106
0.0121244
0.0122391
0.012352
0.0124595
0.0125575
0.0126414
0.0127064
0.0127483
0.0127637
0.0127504
0.0127074
0.0126356
0.0125369
0.0124145
0.000113924
0.000896763
0.00200163
0.00306914
0.00404162
0.00491661
0.0057011
0.00640313
0.00703026
0.0075893
0.00808652
0.0085277
0.00891826
0.0092633
0.00956763
0.00983576
0.010072
0.0102802
0.0104642
0.0106275
0.0107734
0.0109049
0.011025
0.0111364
0.0112417
0.0113433
0.0114434
0.011544
0.0116467
0.0117528
0.0118629
0.0119771
0.0120947
0.0122142
0.0123332
0.0124485
0.0125565
0.0126529
0.0127334
0.0127939
0.0128309
0.0128419
0.0128252
0.0127804
0.0127081
0.000113431
0.000887293
0.0019704
0.00301569
0.00396961
0.00483002
0.00560324
0.00629655
0.00691682
0.0074704
0.00796319
0.00840076
0.00878838
0.00913108
0.00943358
0.00970036
0.00993562
0.0101433
0.010327
0.0104902
0.010636
0.0107674
0.0108872
0.010998
0.0111023
0.0112024
0.0113003
0.0113982
0.0114977
0.0116003
0.011707
0.0118184
0.0119345
0.0120547
0.0121777
0.0123014
0.012423
0.0125392
0.0126463
0.0127404
0.0128175
0.0128743
0.0129078
0.0129156
0.0128965
0.000113207
0.000880305
0.00194455
0.00297059
0.00390853
0.00475633
0.00551955
0.0062047
0.00681807
0.00736561
0.007853
0.00828571
0.00866897
0.0090078
0.00930696
0.00957091
0.00980383
0.0100096
0.0101919
0.0103539
0.0104988
0.0106294
0.0107484
0.0108583
0.0109613
0.0110596
0.0111552
0.0112502
0.011346
0.0114444
0.0115464
0.011653
0.0117647
0.0118814
0.0120026
0.0121272
0.0122533
0.0123787
0.0125003
0.0126149
0.012719
0.0128091
0.0128816
0.0129334
0.0129619
0.000113277
0.000875912
0.00192447
0.00293472
0.00385986
0.00469756
0.00545249
0.00613036
0.00673696
0.00727795
0.00775895
0.00818544
0.00856277
0.00889605
0.00919013
0.00944956
0.00967855
0.009881
0.0100605
0.0102202
0.0103632
0.0104922
0.0106098
0.0107181
0.0108195
0.0109159
0.0110091
0.0111011
0.0111932
0.0112871
0.011384
0.0114849
0.0115904
0.0117011
0.0118168
0.0119371
0.0120608
0.0121866
0.0123123
0.0124355
0.0125533
0.0126626
0.0127602
0.0128426
0.0129068
0.000113674
0.00087419
0.0019105
0.00290895
0.00382509
0.0046558
0.0054046
0.0060764
0.00667651
0.00721049
0.00768403
0.00810283
0.00847247
0.0087983
0.00908538
0.00933841
0.00956169
0.00975915
0.00993435
0.0100905
0.0102305
0.0103569
0.0104722
0.0105785
0.0106778
0.010772
0.0108628
0.0109518
0.0110404
0.01113
0.0112218
0.0113168
0.0114157
0.0115192
0.0116275
0.0117404
0.0118574
0.0119777
0.0120999
0.0122223
0.0123428
0.0124588
0.0125676
0.0126663
0.0127517
0.000114438
0.00087519
0.00190298
0.00289425
0.00380589
0.00463332
0.00537861
0.00604578
0.00663979
0.00716626
0.00763116
0.0080406
0.00840059
0.00871689
0.00899485
0.00923941
0.00945502
0.00964567
0.00981495
0.009966
0.0101017
0.0102244
0.0103366
0.0104401
0.0105369
0.0106286
0.0107168
0.0108028
0.0108881
0.0109737
0.0110608
0.0111503
0.0112429
0.0113392
0.0114395
0.0115439
0.0116523
0.011764
0.0118783
0.0119938
0.0121092
0.0122226
0.0123317
0.0124343
0.0125276
0.000115616
0.000878943
0.00190235
0.00289183
0.00380427
0.00463277
0.00537758
0.00604174
0.00663
0.00714827
0.0076031
0.00800126
0.00834941
0.00865384
0.00892035
0.0091542
0.00936002
0.00954193
0.00970352
0.00984792
0.00997787
0.0100958
0.0102038
0.0103037
0.0103973
0.010486
0.0105713
0.0106544
0.0107364
0.0108184
0.0109013
0.0109858
0.0110728
0.0111625
0.0112555
0.0113517
0.0114512
0.0115535
0.0116581
0.0117641
0.0118704
0.0119756
0.0120781
0.0121761
0.0122674
0.000117274
0.000885486
0.00190928
0.00290336
0.00382283
0.00465741
0.00540504
0.00606778
0.00665041
0.00715946
0.0076024
0.00798698
0.00832074
0.00861071
0.00886325
0.00908399
0.00927782
0.00944896
0.00960103
0.00973713
0.00985992
0.00997168
0.0100744
0.0101698
0.0102594
0.0103446
0.0104266
0.0105065
0.0105853
0.0106638
0.0107429
0.0108231
0.0109052
0.0109894
0.011076
0.0111651
0.0112566
0.0113502
0.0114455
0.0115416
0.0116378
0.0117329
0.0118257
0.0119147
0.0119983
0.000119499
0.000894927
0.00192482
0.00293123
0.00386509
0.00471137
0.00546525
0.00612788
0.00670445
0.00720261
0.00763122
0.00799939
0.00831582
0.00858846
0.00882433
0.00902948
0.00920905
0.00936739
0.00950811
0.00963428
0.00974842
0.00985272
0.009949
0.0100388
0.0101236
0.0102046
0.0102827
0.010359
0.0104343
0.0105094
0.0105848
0.0106612
0.0107391
0.0108186
0.0108999
0.0109832
0.0110682
0.0111547
0.011242
0.0113297
0.0114168
0.0115023
0.0115854
0.0116646
0.0117387
0.000122416
0.000907563
0.00195078
0.00297905
0.00393596
0.00480012
0.00556347
0.00622657
0.00679566
0.00728025
0.0076912
0.00803944
0.00833512
0.00858727
0.00880362
0.00899066
0.00915376
0.00929734
0.00942498
0.00953964
0.00964375
0.00973932
0.00982801
0.00991125
0.00999026
0.0100661
0.0101397
0.0102118
0.0102832
0.0103545
0.0104263
0.0104989
0.0105729
0.0106483
0.0107252
0.0108038
0.0108837
0.0109646
0.011046
0.0111271
0.0112073
0.0112854
0.0113605
0.0114315
0.0114971
0.00012619
0.000924096
0.00199019
0.00305235
0.00404259
0.00493109
0.00570632
0.00636901
0.00692756
0.00739437
0.00778314
0.00810708
0.00837809
0.00860635
0.00880029
0.0089668
0.00911137
0.00923841
0.00935143
0.00945322
0.00954604
0.00963171
0.00971173
0.00978736
0.00985964
0.00992948
0.00999767
0.0100649
0.0101318
0.0101988
0.0102664
0.0103351
0.010405
0.0104765
0.0105494
0.0106238
0.0106996
0.0107762
0.0108532
0.0109298
0.0110053
0.0110785
0.0111485
0.0112141
0.011274
0.000131037
0.000946023
0.00204823
0.0031599
0.00419553
0.00511456
0.00590223
0.00656102
0.00710336
0.00754606
0.00790656
0.00820091
0.00844287
0.00864373
0.00881252
0.00895632
0.00908062
0.0091897
0.00928686
0.00937469
0.00945519
0.00953001
0.00960042
0.0096675
0.00973214
0.0097951
0.00985703
0.0099185
0.00998001
0.010042
0.0101048
0.0101689
0.0102343
0.0103014
0.0103701
0.0104404
0.0105121
0.0105849
0.0106584
0.0107317
0.0108042
0.0108748
0.0109423
0.0110055
0.0110632
0.000137245
0.000976364
0.00213389
0.00331595
0.00441098
0.00536502
0.00616178
0.00680874
0.00732532
0.00773472
0.00805914
0.00831773
0.00852603
0.00869617
0.00883744
0.00895685
0.00905965
0.00914982
0.00923033
0.00930347
0.00937097
0.00943421
0.00949426
0.00955202
0.0096082
0.00966341
0.00971819
0.00977298
0.0098282
0.00988421
0.00994132
0.0099998
0.0100599
0.0101217
0.0101853
0.0102508
0.0103179
0.0103865
0.0104562
0.0105265
0.0105965
0.0106655
0.0107322
0.0107956
0.0108541
0.000145192
0.00102092
0.00226326
0.00354483
0.00471442
0.00570296
0.00649778
0.00711763
0.00759342
0.00795696
0.00823583
0.00845205
0.00862233
0.00875903
0.00887117
0.00896527
0.00904607
0.00911701
0.00918063
0.00923881
0.00929298
0.00934424
0.00939344
0.00944126
0.00948828
0.00953496
0.0095817
0.00962888
0.00967681
0.00972577
0.00977602
0.00982778
0.00988126
0.00993659
0.00999388
0.0100532
0.0101144
0.0101775
0.0102422
0.0103081
0.0103748
0.0104416
0.0105076
0.0105718
0.0106331
0.000155325
0.00109099
0.00246751
0.0038907
0.00514722
0.00615667
0.00692379
0.00748987
0.00790293
0.00820482
0.00842787
0.0085956
0.0087246
0.00882641
0.00890901
0.00897796
0.00903714
0.00908929
0.00913639
0.00917988
0.00922081
0.00926001
0.00929809
0.00933557
0.00937285
0.00941029
0.00944817
0.00948677
0.00952633
0.00956706
0.00960918
0.00965286
0.00969827
0.00974554
0.0097948
0.00984611
0.00989951
0.00995497
0.0100124
0.0100717
0.0101326
0.0101948
0.0102579
0.0103213
0.0103845
0.000168268
0.00121285
0.00281698
0.00444193
0.005778
0.00676191
0.00744874
0.00791874
0.00824053
0.00846379
0.00862208
0.00873744
0.00882417
0.00889161
0.00894592
0.00899117
0.00903015
0.00906476
0.00909635
0.00912589
0.00915407
0.00918143
0.0092084
0.00923531
0.00926242
0.00928998
0.00931818
0.00934722
0.00937727
0.00940849
0.00944102
0.00947501
0.0095106
0.00954791
0.00958704
0.0096281
0.00967114
0.00971624
0.00976341
0.00981268
0.00986406
0.00991756
0.00997328
0.0100314
0.0100921
0.000185706
0.00146839
0.00351164
0.00539479
0.00671546
0.00754921
0.00806122
0.00837819
0.00857935
0.00871129
0.00880112
0.00886478
0.00891181
0.00894806
0.0089772
0.00900159
0.00902278
0.00904184
0.0090595
0.00907627
0.00909253
0.00910859
0.00912466
0.00914093
0.00915755
0.00917467
0.0091924
0.00921087
0.00923017
0.0092504
0.00927168
0.0092941
0.00931775
0.00934273
0.00936913
0.00939704
0.00942654
0.00945772
0.00949066
0.00952547
0.00956231
0.00960139
0.00964312
0.00968819
0.00973779
0.000213323
0.00231966
0.00536527
0.0072073
0.00807478
0.00848637
0.00869524
0.00880953
0.00887658
0.00891844
0.0089461
0.00896537
0.00897951
0.00899041
0.00899924
0.00900672
0.00901333
0.00901937
0.00902506
0.00903058
0.00903602
0.00904148
0.00904704
0.00905275
0.00905867
0.00906483
0.0090713
0.0090781
0.00908528
0.00909288
0.00910093
0.00910949
0.00911859
0.00912827
0.00913858
0.00914955
0.00916125
0.00917372
0.00918703
0.00920126
0.00921656
0.00923311
0.00925127
0.00927167
0.0092955
)
;

boundaryField
{
    leftWall
    {
        type            nutkWallFunction;
        Cmu             0.09;
        kappa           0.41;
        E               9.8;
        value           nonuniform List<scalar> 
42
(
1.25672e-05
1.25317e-05
1.24645e-05
1.23617e-05
1.22255e-05
1.20578e-05
1.18604e-05
1.16355e-05
1.13855e-05
1.11132e-05
1.08216e-05
1.05144e-05
1.01952e-05
9.8683e-06
9.53813e-06
9.20928e-06
8.88641e-06
8.57411e-06
8.27681e-06
7.99864e-06
7.74338e-06
7.51441e-06
7.31481e-06
7.14738e-06
7.01491e-06
6.9203e-06
6.86687e-06
6.85858e-06
6.9003e-06
6.99805e-06
7.15938e-06
7.39402e-06
7.71518e-06
8.14137e-06
8.69789e-06
9.41832e-06
1.03477e-05
1.15447e-05
1.3074e-05
1.50204e-05
1.76202e-05
2.16893e-05
)
;
    }
    rightWall
    {
        type            nutkWallFunction;
        Cmu             0.09;
        kappa           0.41;
        E               9.8;
        value           nonuniform 0();
    }
    lowerWall
    {
        type            nutkWallFunction;
        Cmu             0.09;
        kappa           0.41;
        E               9.8;
        value           nonuniform 0();
    }
    atmosphere
    {
        type            calculated;
        value           uniform 0.009;
    }
    defaultFaces
    {
        type            empty;
    }
    procBoundary2to0
    {
        type            processor;
        value           nonuniform List<scalar> 
46
(
0.0124353
0.0125103
0.0125665
0.0126043
0.0126229
0.0126209
0.0125963
0.0125467
0.0124695
0.0123632
0.0122269
0.0120614
0.0118692
0.011654
0.0114209
0.0111753
0.0109224
0.0106665
0.0104105
0.0101563
0.0099044
0.00965532
0.00940985
0.00917009
0.00893983
0.000149288
0.00111115
0.00251911
0.00392307
0.0052065
0.00634131
0.00732791
0.00817752
0.00890516
0.00952634
0.0100557
0.0105062
0.0108893
0.0112147
0.0114908
0.0117245
0.0119217
0.0120876
0.0122262
0.0123409
0.0123409
)
;
    }
    procBoundary2to3
    {
        type            processor;
        value           nonuniform List<scalar> 
43
(
0.00843692
0.00820075
0.00802099
0.0078993
0.00783416
0.00782114
0.00785379
0.00792487
0.00802758
0.00815657
0.00830527
0.00848075
0.00868469
0.00891397
0.00916115
0.00941661
0.00967223
0.00992532
0.0101809
0.0104511
0.0107512
0.0110924
0.0114742
0.011879
0.0122722
0.0126097
0.0128496
0.0129646
0.0129495
0.0128206
0.0126088
0.0123496
0.0120746
0.0118062
0.0115562
0.0113271
0.0111139
0.0109063
0.0106898
0.0104466
0.010156
0.00979408
0.0093252
)
;
    }
}


// ************************************************************************* //
