/*--------------------------------*- C++ -*----------------------------------*\
| =========                 |                                                 |
| \\      /  F ield         | OpenFOAM: The Open Source CFD Toolbox           |
|  \\    /   O peration     | Version:  5.0                                   |
|   \\  /    A nd           | Web:      www.OpenFOAM.org                      |
|    \\/     M anipulation  |                                                 |
\*---------------------------------------------------------------------------*/
FoamFile
{
    version     2.0;
    format      ascii;
    class       volScalarField;
    location    "0.4";
    object      p_rgh;
}
// * * * * * * * * * * * * * * * * * * * * * * * * * * * * * * * * * * * * * //

dimensions      [1 -1 -2 0 0 0 0];

internalField   nonuniform List<scalar> 
1915
(
-1.16489
-1.20034
-1.23877
-1.28015
-1.32458
-1.37211
-1.42269
-1.47616
-1.53226
-1.59061
-1.65073
-1.71215
-1.77442
-1.83732
-1.90086
-1.96551
-2.03212
-2.10197
-2.1766
-2.25754
-2.34603
-2.44272
-2.54742
-2.65852
-2.77334
-0.883898
-0.88648
-0.889206
-0.892976
-0.897726
-0.903533
-0.910477
-0.918634
-0.928076
-0.938878
-0.951115
-0.964865
-0.980208
-0.997229
-1.01601
-1.03666
-1.05926
-1.08395
-1.11091
-1.1404
-1.17266
-1.20779
-1.24575
-1.28661
-1.33047
-1.37739
-1.42737
-1.48026
-1.53583
-1.59373
-1.65349
-1.71467
-1.77684
-1.8398
-1.90364
-1.96886
-2.03643
-2.10765
-2.18408
-2.26724
-2.35828
-2.45777
-2.56546
-2.67996
-2.79829
-0.88683
-0.889318
-0.892664
-0.897005
-0.902261
-0.908498
-0.915802
-0.924255
-0.933942
-0.944942
-0.957336
-0.971206
-0.986632
-1.0037
-1.0225
-1.04313
-1.06569
-1.09033
-1.11721
-1.14653
-1.17848
-1.21313
-1.25053
-1.29079
-1.33403
-1.3803
-1.42962
-1.48189
-1.5369
-1.59431
-1.6537
-1.71462
-1.77669
-1.83973
-1.90389
-1.96976
-2.03835
-2.11105
-2.1894
-2.27486
-2.36851
-2.47074
-2.58123
-2.69867
-2.8206
-0.887988
-0.890505
-0.894403
-0.899278
-0.904992
-0.911613
-0.919233
-0.927945
-0.93784
-0.949006
-0.961529
-0.975495
-0.990988
-1.00809
-1.0269
-1.04751
-1.07002
-1.09457
-1.1213
-1.15036
-1.18189
-1.216
-1.2528
-1.29242
-1.33498
-1.38057
-1.42924
-1.48091
-1.5354
-1.5924
-1.6515
-1.71224
-1.77427
-1.83743
-1.90192
-1.96839
-2.03793
-2.11197
-2.19208
-2.27967
-2.37572
-2.48057
-2.59377
-2.71408
-2.83932
-0.887415
-0.89014
-0.894496
-0.899841
-0.905958
-0.912912
-0.920803
-0.92973
-0.939792
-0.951085
-0.963699
-0.977724
-0.993247
-1.01035
-1.02913
-1.04968
-1.07209
-1.09648
-1.12297
-1.15169
-1.18276
-1.21631
-1.25248
-1.29142
-1.33328
-1.37818
-1.42618
-1.47727
-1.53128
-1.58792
-1.64676
-1.70738
-1.76939
-1.83266
-1.89744
-1.96442
-2.03477
-2.10995
-2.19155
-2.28094
-2.37904
-2.48613
-2.60177
-2.72476
-2.85305
-0.885258
-0.888214
-0.892968
-0.89872
-0.905184
-0.912421
-0.920535
-0.929633
-0.93982
-0.951196
-0.96386
-0.977902
-0.993411
-1.01048
-1.02918
-1.04961
-1.07186
-1.09603
-1.12221
-1.15053
-1.1811
-1.21406
-1.24956
-1.28778
-1.32891
-1.37309
-1.42043
-1.47093
-1.52446
-1.58072
-1.63931
-1.69976
-1.76171
-1.82504
-1.89
-1.95737
-2.02834
-2.10441
-2.18716
-2.27792
-2.37756
-2.48635
-2.6039
-2.72913
-2.86009
-0.881601
-0.884761
-0.889851
-0.895945
-0.902697
-0.910162
-0.91845
-0.927674
-0.937942
-0.94936
-0.962028
-0.976042
-0.991491
-1.00846
-1.02704
-1.0473
-1.06933
-1.09321
-1.11903
-1.14689
-1.17691
-1.20923
-1.24403
-1.28149
-1.32183
-1.36524
-1.41186
-1.46173
-1.51474
-1.57059
-1.62887
-1.68911
-1.75091
-1.81416
-1.87918
-1.94675
-2.01811
-2.09476
-2.17824
-2.26984
-2.3704
-2.4802
-2.59899
-2.72585
-2.85895
-0.87651
-0.879829
-0.885188
-0.891555
-0.89853
-0.906168
-0.91458
-0.923882
-0.934186
-0.945601
-0.958229
-0.972167
-0.987506
-1.00433
-1.02272
-1.04275
-1.06449
-1.08803
-1.11342
-1.14078
-1.1702
-1.20184
-1.23587
-1.27251
-1.31201
-1.35458
-1.4004
-1.44955
-1.50192
-1.55725
-1.61511
-1.67501
-1.73655
-1.79963
-1.86454
-1.9321
-2.00356
-2.08039
-2.1641
-2.25593
-2.35668
-2.46672
-2.58596
-2.7137
-2.84832
-0.870046
-0.873476
-0.879033
-0.885601
-0.892736
-0.900488
-0.908972
-0.918304
-0.928598
-0.939964
-0.952506
-0.96632
-0.981497
-0.99812
-1.01627
-1.036
-1.0574
-1.08052
-1.10543
-1.13222
-1.16098
-1.19188
-1.22509
-1.26085
-1.29942
-1.34106
-1.38597
-1.43426
-1.48586
-1.5405
-1.59775
-1.65714
-1.71825
-1.78096
-1.84558
-1.9129
-1.98413
-2.06072
-2.1441
-2.23545
-2.33562
-2.44505
-2.56385
-2.69161
-2.82698
-0.862273
-0.865769
-0.871456
-0.878152
-0.885383
-0.893192
-0.901695
-0.911009
-0.921247
-0.932518
-0.944926
-0.958567
-0.973529
-0.989896
-1.00774
-1.02712
-1.04811
-1.07075
-1.09511
-1.12126
-1.14931
-1.1794
-1.21171
-1.24651
-1.28406
-1.32465
-1.36851
-1.41578
-1.4664
-1.52014
-1.57658
-1.63523
-1.6957
-1.75783
-1.82191
-1.8887
-1.95933
-2.03517
-2.11759
-2.20773
-2.30646
-2.41438
-2.5318
-2.65859
-2.79373
-0.85326
-0.856782
-0.862533
-0.869291
-0.876556
-0.884366
-0.892838
-0.902087
-0.912222
-0.923353
-0.93558
-0.948998
-0.963695
-0.979749
-0.99723
-1.0162
-1.03671
-1.05881
-1.08255
-1.108
-1.13526
-1.16447
-1.19581
-1.22955
-1.26597
-1.30537
-1.34801
-1.39405
-1.44346
-1.49605
-1.55141
-1.60908
-1.66865
-1.72996
-1.79325
-1.85918
-1.92881
-2.00338
-2.08418
-2.17232
-2.26873
-2.37415
-2.48909
-2.6137
-2.74727
-0.843079
-0.846592
-0.852349
-0.859107
-0.866348
-0.874108
-0.882501
-0.891638
-0.901627
-0.912572
-0.924572
-0.93772
-0.952099
-0.967787
-0.98485
-1.00334
-1.02331
-1.04481
-1.06786
-1.09255
-1.11895
-1.1472
-1.17749
-1.21007
-1.24523
-1.28329
-1.32452
-1.3691
-1.41704
-1.46818
-1.52215
-1.57853
-1.63692
-1.69713
-1.75934
-1.82409
-1.8923
-1.96508
-2.04361
-2.12899
-2.2222
-2.32411
-2.4354
-2.55646
-2.68691
-0.8318
-0.835274
-0.840986
-0.847689
-0.854856
-0.862519
-0.870789
-0.879771
-0.889571
-0.900287
-0.912016
-0.924846
-0.93886
-0.954129
-0.970717
-0.988675
-1.00805
-1.02887
-1.05118
-1.07503
-1.1005
-1.12772
-1.15688
-1.1882
-1.22198
-1.25854
-1.29816
-1.34103
-1.38721
-1.43657
-1.48882
-1.54357
-1.60043
-1.65922
-1.72001
-1.78323
-1.84961
-1.92011
-1.99578
-2.07769
-2.16687
-2.26426
-2.37072
-2.48682
-2.61254
-0.819486
-0.822898
-0.828522
-0.835123
-0.842171
-0.849695
-0.857801
-0.86659
-0.87616
-0.886607
-0.898022
-0.91049
-0.92409
-0.93889
-0.95495
-0.972317
-0.99103
-1.01112
-1.03262
-1.05558
-1.08006
-1.10618
-1.13412
-1.16409
-1.19638
-1.23128
-1.26909
-1.31002
-1.35415
-1.40141
-1.45156
-1.50429
-1.55925
-1.61624
-1.67524
-1.73653
-1.80067
-1.86842
-1.94071
-2.01853
-2.10292
-2.19488
-2.29535
-2.40509
-2.52441
-0.806194
-0.809526
-0.815026
-0.821484
-0.828376
-0.835724
-0.843631
-0.852189
-0.861493
-0.871632
-0.882694
-0.894757
-0.907898
-0.922181
-0.937662
-0.954385
-0.972384
-0.991686
-1.01232
-1.03432
-1.05775
-1.08271
-1.10936
-1.13789
-1.16858
-1.20169
-1.23752
-1.27628
-1.31809
-1.36293
-1.41063
-1.46094
-1.51359
-1.56834
-1.62513
-1.68408
-1.74556
-1.81014
-1.87858
-1.95178
-2.03073
-2.11644
-2.20988
-2.3119
-2.42305
-0.791971
-0.795209
-0.800555
-0.806837
-0.81354
-0.820682
-0.828357
-0.836653
-0.845656
-0.855452
-0.866121
-0.87774
-0.890379
-0.904099
-0.918954
-0.934982
-0.952215
-0.970676
-0.990388
-1.01138
-1.0337
-1.05744
-1.08274
-1.10976
-1.13876
-1.16998
-1.20368
-1.24009
-1.27934
-1.32147
-1.36638
-1.41389
-1.46378
-1.51586
-1.56998
-1.62615
-1.68454
-1.74553
-1.80972
-1.87786
-1.95086
-2.02964
-2.11515
-2.20823
-2.30952
-0.776855
-0.779991
-0.785159
-0.791239
-0.797725
-0.804632
-0.812047
-0.82005
-0.828722
-0.838141
-0.848383
-0.859519
-0.871616
-0.884732
-0.898914
-0.914201
-0.93062
-0.948191
-0.966931
-0.986864
-1.00803
-1.0305
-1.05439
-1.07985
-1.10709
-1.13633
-1.16781
-1.20172
-1.23824
-1.27741
-1.31923
-1.36359
-1.41034
-1.45928
-1.51027
-1.5632
-1.61807
-1.67509
-1.73466
-1.79739
-1.86403
-1.93538
-2.01227
-2.09543
-2.1855
-0.760878
-0.763906
-0.768879
-0.774733
-0.78098
-0.787628
-0.794758
-0.802442
-0.810753
-0.819765
-0.829547
-0.840166
-0.851685
-0.864156
-0.877625
-0.892127
-0.907688
-0.924323
-0.942047
-0.960876
-0.980843
-1.002
-1.02445
-1.0483
-1.07374
-1.10094
-1.13012
-1.16146
-1.19511
-1.23117
-1.26967
-1.31058
-1.35382
-1.39923
-1.44665
-1.49588
-1.54682
-1.5995
-1.65415
-1.71121
-1.77123
-1.83484
-1.90268
-1.97533
-2.05331
-0.744067
-0.746986
-0.75175
-0.757361
-0.763349
-0.769718
-0.77654
-0.783881
-0.791806
-0.800383
-0.809676
-0.819747
-0.830653
-0.842444
-0.855163
-0.868842
-0.883504
-0.899163
-0.91583
-0.933516
-0.952245
-0.972057
-0.993024
-1.01524
-1.03885
-1.064
-1.09085
-1.11957
-1.15029
-1.18314
-1.21817
-1.25543
-1.29487
-1.3364
-1.37986
-1.425
-1.47164
-1.51965
-1.56914
-1.62035
-1.67365
-1.72944
-1.78815
-1.85015
-1.91572
-0.726446
-0.729255
-0.733803
-0.739158
-0.744871
-0.750943
-0.757438
-0.764414
-0.771931
-0.780049
-0.788827
-0.798321
-0.808585
-0.819665
-0.831601
-0.844423
-0.858152
-0.8728
-0.888374
-0.904883
-0.922341
-0.940777
-0.960242
-0.98081
-1.00258
-1.02566
-1.05019
-1.0763
-1.1041
-1.1337
-1.1652
-1.19868
-1.23415
-1.27155
-1.31074
-1.35148
-1.39349
-1.43658
-1.48071
-1.52598
-1.57258
-1.6207
-1.67051
-1.72216
-1.77563
-0.708039
-0.710741
-0.715066
-0.720155
-0.725581
-0.731341
-0.737493
-0.744087
-0.751176
-0.758813
-0.767053
-0.775947
-0.785544
-0.795887
-0.807012
-0.818949
-0.831715
-0.845322
-0.859776
-0.875079
-0.89124
-0.908278
-0.926226
-0.945134
-0.965069
-0.986114
-1.00836
-1.03189
-1.0568
-1.08321
-1.1112
-1.14087
-1.17228
-1.20542
-1.24017
-1.27627
-1.31345
-1.35144
-1.39009
-1.4294
-1.4694
-1.5101
-1.55148
-1.59343
-1.63567
-0.68887
-0.691467
-0.695569
-0.700386
-0.705514
-0.710951
-0.716745
-0.722941
-0.729585
-0.736724
-0.744408
-0.752682
-0.761591
-0.771176
-0.781469
-0.792498
-0.804279
-0.816823
-0.830133
-0.84421
-0.859057
-0.874682
-0.891104
-0.908354
-0.926473
-0.94551
-0.965517
-0.986552
-1.00868
-1.03198
-1.05654
-1.08247
-1.10986
-1.13872
-1.16895
-1.20035
-1.2326
-1.26541
-1.29856
-1.33197
-1.36555
-1.3992
-1.43271
-1.4658
-1.49807
-0.668963
-0.671461
-0.67534
-0.679882
-0.684707
-0.68981
-0.695236
-0.701022
-0.707207
-0.713834
-0.720946
-0.728585
-0.736792
-0.745603
-0.755048
-0.765153
-0.775934
-0.7874
-0.799552
-0.812389
-0.82591
-0.840116
-0.855014
-0.870618
-0.886946
-0.904022
-0.921865
-0.940501
-0.959962
-0.980297
-1.00158
-1.02392
-1.0474
-1.07206
-1.09785
-1.12457
-1.15194
-1.17964
-1.20741
-1.23508
-1.26252
-1.28953
-1.31582
-1.34101
-1.36465
-0.648349
-0.650751
-0.654411
-0.658677
-0.663194
-0.667959
-0.673008
-0.678374
-0.684092
-0.690196
-0.696726
-0.70372
-0.711214
-0.719241
-0.72783
-0.737003
-0.746776
-0.757156
-0.768145
-0.779739
-0.791933
-0.804722
-0.818105
-0.832082
-0.846655
-0.861824
-0.877586
-0.893935
-0.910873
-0.928419
-0.946623
-0.965564
-0.985333
-1.00599
-1.0275
-1.04971
-1.07236
-1.09514
-1.11775
-1.14
-1.16168
-1.18257
-1.20233
-1.22056
-1.23688
-0.627059
-0.62937
-0.632816
-0.636807
-0.641016
-0.645439
-0.650107
-0.655048
-0.660291
-0.665866
-0.671809
-0.678152
-0.684929
-0.692169
-0.699899
-0.70814
-0.716906
-0.726203
-0.736031
-0.746387
-0.757262
-0.768648
-0.780535
-0.792915
-0.805776
-0.819103
-0.832872
-0.847055
-0.861626
-0.876577
-0.891924
-0.907721
-0.924042
-0.940947
-0.95843
-0.976381
-0.994576
-1.01272
-1.03053
-1.04775
-1.06417
-1.07953
-1.0935
-1.1057
-1.11584
-0.605129
-0.607354
-0.61059
-0.614312
-0.618215
-0.622295
-0.626581
-0.631095
-0.63586
-0.640905
-0.646259
-0.651952
-0.658013
-0.664469
-0.671346
-0.678661
-0.686428
-0.694652
-0.703334
-0.712468
-0.722044
-0.73205
-0.742471
-0.753292
-0.764493
-0.776046
-0.787915
-0.800055
-0.812421
-0.824977
-0.83771
-0.850642
-0.863822
-0.8773
-0.891084
-0.905099
-0.919169
-0.933042
-0.946441
-0.959109
-0.970811
-0.981293
-0.990234
-0.997302
-1.00226
-0.582599
-0.584743
-0.587775
-0.591233
-0.594835
-0.598576
-0.602481
-0.606567
-0.610856
-0.615371
-0.620139
-0.625185
-0.630537
-0.636219
-0.642253
-0.648657
-0.655441
-0.662613
-0.670171
-0.678109
-0.686416
-0.695076
-0.704073
-0.713385
-0.722986
-0.732841
-0.742906
-0.753126
-0.763443
-0.773802
-0.784165
-0.794522
-0.804892
-0.815305
-0.82577
-0.836236
-0.846574
-0.856579
-0.866008
-0.874618
-0.882175
-0.888431
-0.89309
-0.89587
-0.89656
-0.559512
-0.561576
-0.56441
-0.567613
-0.57092
-0.574327
-0.577854
-0.581517
-0.585332
-0.58932
-0.593506
-0.597913
-0.602566
-0.607487
-0.612695
-0.618208
-0.624034
-0.63018
-0.636645
-0.643423
-0.6505
-0.657862
-0.665487
-0.673349
-0.68142
-0.689659
-0.698019
-0.706442
-0.71486
-0.72321
-0.731433
-0.739497
-0.747389
-0.755115
-0.762673
-0.770024
-0.777072
-0.783658
-0.789583
-0.794636
-0.798602
-0.801258
-0.80234
-0.801605
-0.798869
-0.535908
-0.537897
-0.540539
-0.543494
-0.546515
-0.549594
-0.552749
-0.555991
-0.559336
-0.562803
-0.566414
-0.570192
-0.574158
-0.578334
-0.582738
-0.587385
-0.592283
-0.597437
-0.602848
-0.608508
-0.614405
-0.620521
-0.626835
-0.633319
-0.639938
-0.646654
-0.653414
-0.66016
-0.666825
-0.673338
-0.679634
-0.685661
-0.691386
-0.696789
-0.701854
-0.706541
-0.710772
-0.714425
-0.71734
-0.719343
-0.720256
-0.719888
-0.718022
-0.714454
-0.709061
-0.51183
-0.513746
-0.516201
-0.518918
-0.521662
-0.524422
-0.52721
-0.530037
-0.532917
-0.535869
-0.538914
-0.542075
-0.545371
-0.548823
-0.552447
-0.556257
-0.560261
-0.564463
-0.568864
-0.573455
-0.578226
-0.58316
-0.588232
-0.593415
-0.598673
-0.603963
-0.609236
-0.614431
-0.619484
-0.624324
-0.628883
-0.633101
-0.636933
-0.640341
-0.643295
-0.645751
-0.647638
-0.648854
-0.64927
-0.648745
-0.647134
-0.644286
-0.640031
-0.634223
-0.626819
-0.487325
-0.489167
-0.491441
-0.49393
-0.496408
-0.498857
-0.501286
-0.503704
-0.506127
-0.508573
-0.511064
-0.513623
-0.516269
-0.519021
-0.521895
-0.524904
-0.528053
-0.531348
-0.534787
-0.538366
-0.542072
-0.545889
-0.549795
-0.553761
-0.557751
-0.561723
-0.565626
-0.569401
-0.572986
-0.576311
-0.579312
-0.581925
-0.584101
-0.585795
-0.586968
-0.587573
-0.587546
-0.586797
-0.585214
-0.58268
-0.579073
-0.574276
-0.568163
-0.560643
-0.55173
-0.46244
-0.464203
-0.4663
-0.468574
-0.4708
-0.472949
-0.475027
-0.477045
-0.479019
-0.480971
-0.482924
-0.4849
-0.486921
-0.489003
-0.491163
-0.493409
-0.495749
-0.498187
-0.50072
-0.503345
-0.506051
-0.508823
-0.511641
-0.514477
-0.517297
-0.520058
-0.522713
-0.525203
-0.527467
-0.52944
-0.531056
-0.532256
-0.532988
-0.533208
-0.532877
-0.531951
-0.530373
-0.528064
-0.52493
-0.520864
-0.515764
-0.509531
-0.502069
-0.493326
-0.483322
-0.437197
-0.438879
-0.440813
-0.442895
-0.444887
-0.44675
-0.448486
-0.450111
-0.451646
-0.453116
-0.454547
-0.455964
-0.457387
-0.458834
-0.460317
-0.461847
-0.463428
-0.465063
-0.46675
-0.468485
-0.47026
-0.472061
-0.47387
-0.475664
-0.47741
-0.47907
-0.480596
-0.481935
-0.483026
-0.483807
-0.484215
-0.48419
-0.483683
-0.48265
-0.481057
-0.478866
-0.476032
-0.472494
-0.468173
-0.462978
-0.456817
-0.449601
-0.441253
-0.431736
-0.421056
-0.411602
-0.413214
-0.415017
-0.416942
-0.418723
-0.420311
-0.421711
-0.422947
-0.424047
-0.425045
-0.425971
-0.426851
-0.427707
-0.428555
-0.429406
-0.430267
-0.431143
-0.432035
-0.432939
-0.433853
-0.434769
-0.435675
-0.436558
-0.437395
-0.438161
-0.43882
-0.439331
-0.439646
-0.439706
-0.439453
-0.438825
-0.437764
-0.436219
-0.434149
-0.43152
-0.428304
-0.42447
-0.419973
-0.414755
-0.408744
-0.401862
-0.39403
-0.38518
-0.375281
-0.364337
-0.38572
-0.387267
-0.388981
-0.390787
-0.392374
-0.393688
-0.394748
-0.395591
-0.396258
-0.396792
-0.397228
-0.397596
-0.397915
-0.398202
-0.398465
-0.398709
-0.398937
-0.399147
-0.399336
-0.3995
-0.399632
-0.399723
-0.399759
-0.399726
-0.399602
-0.399357
-0.398959
-0.398363
-0.397521
-0.396377
-0.394874
-0.392954
-0.390566
-0.387668
-0.384226
-0.380218
-0.37562
-0.370406
-0.364537
-0.357963
-0.350623
-0.342454
-0.333398
-0.323432
-0.312581
-0.359716
-0.361152
-0.362775
-0.364501
-0.365904
-0.366935
-0.367642
-0.368083
-0.368317
-0.368395
-0.368359
-0.368239
-0.368055
-0.36782
-0.367541
-0.367221
-0.366859
-0.366452
-0.365995
-0.365482
-0.364907
-0.364262
-0.363537
-0.36272
-0.361794
-0.360738
-0.359525
-0.358123
-0.35649
-0.354579
-0.352339
-0.349715
-0.346659
-0.343125
-0.339081
-0.334503
-0.329371
-0.32367
-0.317377
-0.310463
-0.302888
-0.294606
-0.285575
-0.27578
-0.265271
-0.333453
-0.334896
-0.336414
-0.338133
-0.339375
-0.34011
-0.340443
-0.340469
-0.340268
-0.3399
-0.339411
-0.338832
-0.33818
-0.337466
-0.336693
-0.335861
-0.334967
-0.334006
-0.33297
-0.331855
-0.330651
-0.329353
-0.327952
-0.326438
-0.324801
-0.323024
-0.321091
-0.318976
-0.31665
-0.314077
-0.311212
-0.308012
-0.304429
-0.300422
-0.295955
-0.291002
-0.285545
-0.279573
-0.273073
-0.26603
-0.258424
-0.250227
-0.241409
-0.231964
-0.221947
-0.3059
-0.308545
-0.310085
-0.311859
-0.312925
-0.313309
-0.313218
-0.312802
-0.31216
-0.311357
-0.310439
-0.309431
-0.308349
-0.307197
-0.305977
-0.304685
-0.303315
-0.301861
-0.300315
-0.298668
-0.296914
-0.295046
-0.293055
-0.290935
-0.288678
-0.286274
-0.283713
-0.280979
-0.278052
-0.274908
-0.271514
-0.267837
-0.263838
-0.259478
-0.254726
-0.249554
-0.243943
-0.237883
-0.231366
-0.224386
-0.216934
-0.208998
-0.200555
-0.191604
-0.18218
-0.276449
-0.282728
-0.284374
-0.286037
-0.28672
-0.286588
-0.285975
-0.285074
-0.283984
-0.282761
-0.28144
-0.280038
-0.278563
-0.277016
-0.275394
-0.273692
-0.2719
-0.270012
-0.268018
-0.265911
-0.263683
-0.261326
-0.258834
-0.2562
-0.25342
-0.250487
-0.247396
-0.24414
-0.240707
-0.237084
-0.23325
-0.229183
-0.224855
-0.220236
-0.215299
-0.210021
-0.204383
-0.198375
-0.191991
-0.185229
-0.178087
-0.170557
-0.162626
-0.154287
-0.145542
-0.248147
-0.258724
-0.259475
-0.260555
-0.260621
-0.259826
-0.258617
-0.257215
-0.255691
-0.254074
-0.252381
-0.250619
-0.248787
-0.246883
-0.244901
-0.242831
-0.240667
-0.238399
-0.236018
-0.233516
-0.230885
-0.228118
-0.22521
-0.222154
-0.218947
-0.215586
-0.212069
-0.208393
-0.204555
-0.200551
-0.19637
-0.192
-0.187425
-0.182626
-0.177584
-0.172283
-0.166708
-0.160852
-0.154711
-0.148283
-0.141569
-0.134563
-0.127254
-0.119629
-0.111654
-0.221865
-0.240142
-0.236758
-0.235815
-0.235027
-0.233602
-0.231826
-0.229943
-0.228007
-0.226019
-0.223977
-0.221877
-0.219714
-0.217481
-0.21517
-0.212771
-0.210275
-0.207673
-0.204956
-0.202117
-0.199147
-0.196041
-0.192791
-0.189395
-0.185849
-0.182152
-0.178304
-0.174306
-0.170161
-0.165867
-0.161425
-0.156831
-0.152079
-0.147162
-0.142071
-0.136799
-0.131339
-0.12569
-0.119852
-0.113827
-0.107617
-0.101223
-0.0946348
-0.0878319
-0.080754
-0.171707
-0.241893
-0.227321
-0.216357
-0.211951
-0.209215
-0.206607
-0.204085
-0.201651
-0.199252
-0.19685
-0.19442
-0.191946
-0.189413
-0.18681
-0.184125
-0.181346
-0.178465
-0.175472
-0.172361
-0.169123
-0.165754
-0.162247
-0.158601
-0.154812
-0.150881
-0.146809
-0.142598
-0.138254
-0.133779
-0.129179
-0.124457
-0.119617
-0.11466
-0.10959
-0.104409
-0.0991221
-0.0937368
-0.0882621
-0.0827089
-0.0770882
-0.0714083
-0.0656668
-0.0598338
-0.0538292
-0.0538221
-0.279707
-0.230986
-0.196692
-0.184845
-0.17899
-0.174589
-0.170954
-0.167778
-0.16484
-0.162011
-0.159218
-0.15642
-0.153585
-0.150695
-0.147732
-0.144684
-0.141542
-0.138295
-0.13494
-0.131469
-0.127878
-0.124166
-0.120331
-0.116373
-0.112293
-0.108095
-0.103783
-0.0993633
-0.0948438
-0.0902333
-0.085542
-0.0807809
-0.0759624
-0.0711001
-0.0662087
-0.0613045
-0.0564044
-0.0515252
-0.0466809
-0.0418792
-0.0371125
-0.0323419
-0.0274718
-0.0222942
)
;

boundaryField
{
    leftWall
    {
        type            fixedFluxPressure;
        gradient        uniform 0;
        value           nonuniform List<scalar> 
42
(
-0.883898
-0.88683
-0.887988
-0.887415
-0.885258
-0.881601
-0.87651
-0.870046
-0.862273
-0.85326
-0.843079
-0.8318
-0.819486
-0.806194
-0.791971
-0.776855
-0.760878
-0.744067
-0.726446
-0.708039
-0.68887
-0.668963
-0.648349
-0.627059
-0.605129
-0.582599
-0.559512
-0.535908
-0.51183
-0.487325
-0.46244
-0.437197
-0.411602
-0.38572
-0.359716
-0.333453
-0.3059
-0.276449
-0.248147
-0.221865
-0.171707
-0.0538221
)
;
    }
    rightWall
    {
        type            fixedFluxPressure;
        gradient        nonuniform 0();
        value           nonuniform 0();
    }
    lowerWall
    {
        type            fixedFluxPressure;
        gradient        nonuniform 0();
        value           nonuniform 0();
    }
    atmosphere
    {
        type            totalPressure;
        rho             rho;
        psi             none;
        gamma           1;
        p0              uniform 0;
        value           nonuniform List<scalar> 
45
(
-0.0700726
-0.18599
-0.173516
-0.165263
-0.159406
-0.154716
-0.150743
-0.147234
-0.144017
-0.140971
-0.138014
-0.13509
-0.132159
-0.129191
-0.126168
-0.123072
-0.119893
-0.116621
-0.11325
-0.109775
-0.106192
-0.1025
-0.0986977
-0.0947865
-0.0907681
-0.086646
-0.0824251
-0.0781118
-0.0737141
-0.0692419
-0.0647071
-0.0601235
-0.0555071
-0.0508764
-0.0462519
-0.0416566
-0.037116
-0.0326577
-0.0283122
-0.0241123
-0.0200941
-0.0162971
-0.0127652
-0.00954849
-0.00670587
)
;
    }
    defaultFaces
    {
        type            empty;
    }
    procBoundary2to0
    {
        type            processor;
        value           nonuniform List<scalar> 
46
(
-1.15558
-1.1913
-1.23006
-1.27188
-1.3168
-1.36482
-1.41586
-1.46975
-1.52619
-1.58478
-1.64505
-1.70652
-1.76877
-1.83154
-1.89486
-1.95913
-2.02515
-2.0941
-2.16741
-2.24658
-2.33281
-2.42668
-2.52786
-2.63539
-2.74688
-0.879225
-0.881842
-0.883939
-0.887133
-0.891346
-0.896683
-0.90323
-0.911055
-0.920225
-0.930809
-0.942879
-0.95651
-0.971781
-0.988774
-1.00757
-1.02827
-1.05096
-1.07575
-1.1028
-1.13242
-1.13242
)
;
    }
    procBoundary2to3
    {
        type            processor;
        value           nonuniform List<scalar> 
43
(
-2.88908
-2.91751
-2.94374
-2.96639
-2.98353
-2.9936
-2.99512
-2.98673
-2.9671
-2.93469
-2.88782
-2.82536
-2.74712
-2.6532
-2.54374
-2.41975
-2.28328
-2.13726
-1.98518
-1.83094
-1.67803
-1.52922
-1.38641
-1.25091
-1.12354
-1.00479
-0.894899
-0.793933
-0.701705
-0.617712
-0.541312
-0.471943
-0.409122
-0.352306
-0.300845
-0.254065
-0.21137
-0.172274
-0.136353
-0.103257
-0.0732886
-0.0474508
-0.0163888
)
;
    }
}


// ************************************************************************* //
