/*--------------------------------*- C++ -*----------------------------------*\
| =========                 |                                                 |
| \\      /  F ield         | OpenFOAM: The Open Source CFD Toolbox           |
|  \\    /   O peration     | Version:  5.0                                   |
|   \\  /    A nd           | Web:      www.OpenFOAM.org                      |
|    \\/     M anipulation  |                                                 |
\*---------------------------------------------------------------------------*/
FoamFile
{
    version     2.0;
    format      ascii;
    class       surfaceScalarField;
    location    "0.4";
    object      phi;
}
// * * * * * * * * * * * * * * * * * * * * * * * * * * * * * * * * * * * * * //

dimensions      [0 3 -1 0 0 0 0];

internalField   nonuniform List<scalar> 
3742
(
1.02242e-05
-6.42071e-05
1.08883e-05
-6.30981e-05
1.15935e-05
-6.19959e-05
1.23519e-05
-6.09152e-05
1.31764e-05
-5.98729e-05
1.40814e-05
-5.88885e-05
1.50824e-05
-5.79832e-05
1.61959e-05
-5.71799e-05
1.74394e-05
-5.65025e-05
1.88317e-05
-5.59752e-05
2.03925e-05
-5.56223e-05
2.21434e-05
-5.54664e-05
2.41076e-05
-5.55267e-05
2.631e-05
-5.58166e-05
2.87775e-05
-5.6339e-05
3.15385e-05
-5.70819e-05
3.46215e-05
-5.80113e-05
3.80535e-05
-5.90645e-05
4.18572e-05
-6.01419e-05
4.60465e-05
-6.11002e-05
5.06205e-05
-6.1748e-05
5.55563e-05
-6.18443e-05
6.08008e-05
-6.11033e-05
6.62506e-05
-5.92084e-05
-5.58403e-05
1.40471e-07
-7.84613e-05
1.36953e-07
-8.12565e-05
2.17192e-07
-8.11461e-05
3.53079e-07
-8.05713e-05
5.38579e-07
-7.98453e-05
7.69417e-07
-7.90492e-05
1.041e-06
-7.82146e-05
1.3484e-06
-7.73567e-05
1.68654e-06
-7.64832e-05
2.05039e-06
-7.55977e-05
2.43521e-06
-7.47008e-05
2.83679e-06
-7.37914e-05
3.25165e-06
-7.28671e-05
3.67725e-06
-7.19251e-05
4.11218e-06
-7.09626e-05
4.55626e-06
-6.99775e-05
5.01073e-06
-6.89687e-05
5.47842e-06
-6.79371e-05
5.96373e-06
-6.68856e-05
6.47204e-06
-6.58192e-05
7.01098e-06
-6.4746e-05
7.58896e-06
-6.36761e-05
8.21606e-06
-6.26229e-05
8.90324e-06
-6.16023e-05
9.66277e-06
-6.06324e-05
1.05078e-05
-5.97334e-05
1.14521e-05
-5.89276e-05
1.25105e-05
-5.82383e-05
1.36984e-05
-5.76903e-05
1.50321e-05
-5.73089e-05
1.65288e-05
-5.71191e-05
1.82073e-05
-5.71448e-05
2.00877e-05
-5.74071e-05
2.2192e-05
-5.79209e-05
2.45445e-05
-5.86914e-05
2.71708e-05
-5.97082e-05
3.00981e-05
-6.09387e-05
3.3353e-05
-6.23194e-05
3.69592e-05
-6.37481e-05
4.09335e-05
-6.50745e-05
4.52798e-05
-6.60943e-05
4.99814e-05
-6.65458e-05
5.49908e-05
-6.61127e-05
6.02181e-05
-6.44357e-05
-6.11484e-05
-7.29045e-08
-7.83885e-05
-1.9793e-07
-8.11315e-05
-2.69586e-07
-8.10744e-05
-2.92569e-07
-8.05483e-05
-2.68869e-07
-7.9869e-05
-2.01417e-07
-7.91167e-05
-9.38802e-08
-7.83222e-05
4.96783e-08
-7.75002e-05
2.25037e-07
-7.66586e-05
4.28054e-07
-7.58007e-05
6.54899e-07
-7.49276e-05
9.02257e-07
-7.40387e-05
1.16754e-06
-7.31324e-05
1.44904e-06
-7.22066e-05
1.74614e-06
-7.12597e-05
2.05935e-06
-7.02907e-05
2.39052e-06
-6.92999e-05
2.74284e-06
-6.82894e-05
3.1207e-06
-6.72635e-05
3.53015e-06
-6.62287e-05
3.97797e-06
-6.51938e-05
4.47235e-06
-6.41704e-05
5.02268e-06
-6.31733e-05
5.63919e-06
-6.22188e-05
6.33288e-06
-6.13261e-05
7.11537e-06
-6.05159e-05
7.99882e-06
-5.9811e-05
8.99582e-06
-5.92353e-05
1.01194e-05
-5.8814e-05
1.13833e-05
-5.85727e-05
1.28016e-05
-5.85374e-05
1.43898e-05
-5.8733e-05
1.61644e-05
-5.91817e-05
1.81439e-05
-5.99004e-05
2.03487e-05
-6.08962e-05
2.28015e-05
-6.2161e-05
2.55269e-05
-6.3664e-05
2.85504e-05
-6.53429e-05
3.18965e-05
-6.70942e-05
3.55854e-05
-6.87634e-05
3.96272e-05
-7.01362e-05
4.40144e-05
-7.0933e-05
4.87108e-05
-7.08091e-05
5.36395e-05
-6.93643e-05
-6.61772e-05
-2.37411e-07
-7.8151e-05
-4.9244e-07
-8.08765e-05
-7.07775e-07
-8.08591e-05
-8.78452e-07
-8.03776e-05
-1.00529e-06
-7.97422e-05
-1.09036e-06
-7.90316e-05
-1.13646e-06
-7.82761e-05
-1.14679e-06
-7.74899e-05
-1.12468e-06
-7.66807e-05
-1.07334e-06
-7.5852e-05
-9.95714e-07
-7.50053e-05
-8.9419e-07
-7.41402e-05
-7.7049e-07
-7.32561e-05
-6.25489e-07
-7.23516e-05
-4.59084e-07
-7.14261e-05
-2.70093e-07
-7.04796e-05
-5.61896e-08
-6.95138e-05
1.86123e-07
-6.85317e-05
4.61437e-07
-6.75388e-05
7.75418e-07
-6.65427e-05
1.13473e-06
-6.55531e-05
1.54729e-06
-6.4583e-05
2.02147e-06
-6.36474e-05
2.5664e-06
-6.27637e-05
3.19173e-06
-6.19514e-05
3.90745e-06
-6.12316e-05
4.72373e-06
-6.06273e-05
5.65089e-06
-6.01625e-05
6.69935e-06
-5.98624e-05
7.87973e-06
-5.97531e-05
9.20298e-06
-5.98607e-05
1.06806e-05
-6.02107e-05
1.23253e-05
-6.08264e-05
1.41511e-05
-6.17262e-05
1.61742e-05
-6.29193e-05
1.84132e-05
-6.44e-05
2.08895e-05
-6.61403e-05
2.3627e-05
-6.80804e-05
2.66506e-05
-7.01178e-05
2.99839e-05
-7.20967e-05
3.36448e-05
-7.3797e-05
3.76376e-05
-7.49257e-05
4.19428e-05
-7.51144e-05
4.65041e-05
-7.39256e-05
-7.08839e-05
-3.70972e-07
-7.77801e-05
-7.51576e-07
-8.04959e-05
-1.09814e-06
-8.05125e-05
-1.40424e-06
-8.00715e-05
-1.66966e-06
-7.94768e-05
-1.89567e-06
-7.88056e-05
-2.08424e-06
-7.80875e-05
-2.2377e-06
-7.73365e-05
-2.35849e-06
-7.65599e-05
-2.44892e-06
-7.57616e-05
-2.51101e-06
-7.49432e-05
-2.54628e-06
-7.4105e-05
-2.55563e-06
-7.32467e-05
-2.53914e-06
-7.23681e-05
-2.49604e-06
-7.14692e-05
-2.42461e-06
-7.05511e-05
-2.32211e-06
-6.96163e-05
-2.18485e-06
-6.8669e-05
-2.00818e-06
-6.77155e-05
-1.7866e-06
-6.67642e-05
-1.51363e-06
-6.58261e-05
-1.18226e-06
-6.49144e-05
-7.84955e-07
-6.40447e-05
-3.13801e-07
-6.32349e-05
2.39308e-07
-6.25045e-05
8.82476e-07
-6.18748e-05
1.62371e-06
-6.13685e-05
2.47087e-06
-6.10097e-05
3.4316e-06
-6.08232e-05
4.51333e-06
-6.08348e-05
5.72337e-06
-6.10707e-05
7.06919e-06
-6.15565e-05
8.55892e-06
-6.23161e-05
1.02019e-05
-6.33692e-05
1.20094e-05
-6.47268e-05
1.39956e-05
-6.63862e-05
1.61779e-05
-6.83226e-05
1.85776e-05
-7.04801e-05
2.12199e-05
-7.27601e-05
2.4132e-05
-7.50088e-05
2.73402e-05
-7.70051e-05
3.08636e-05
-7.84491e-05
3.47045e-05
-7.89553e-05
3.88344e-05
-7.80555e-05
-7.5225e-05
-4.8172e-07
-7.72984e-05
-9.76364e-07
-8.00013e-05
-1.44151e-06
-8.00474e-05
-1.87042e-06
-7.96426e-05
-2.26207e-06
-7.90851e-05
-2.61699e-06
-7.84507e-05
-2.93635e-06
-7.77682e-05
-3.22163e-06
-7.70512e-05
-3.47441e-06
-7.63071e-05
-3.69613e-06
-7.55399e-05
-3.88792e-06
-7.47514e-05
-4.05048e-06
-7.39424e-05
-4.1839e-06
-7.31133e-05
-4.28761e-06
-7.22643e-05
-4.36022e-06
-7.13965e-05
-4.39954e-06
-7.05117e-05
-4.40257e-06
-6.96132e-05
-4.36547e-06
-6.87061e-05
-4.28367e-06
-6.77973e-05
-4.15191e-06
-6.6896e-05
-3.9643e-06
-6.60137e-05
-3.71462e-06
-6.5164e-05
-3.39636e-06
-6.4363e-05
-3.00294e-06
-6.36283e-05
-2.52783e-06
-6.29796e-05
-1.96476e-06
-6.24379e-05
-1.30786e-06
-6.20254e-05
-5.5185e-07
-6.17657e-05
3.07858e-07
-6.16829e-05
1.27517e-06
-6.18021e-05
2.35354e-06
-6.21491e-05
3.54628e-06
-6.27492e-05
4.8569e-06
-6.36267e-05
6.28969e-06
-6.4802e-05
7.85064e-06
-6.62877e-05
9.54862e-06
-6.80841e-05
1.13966e-05
-7.01706e-05
1.3413e-05
-7.24965e-05
1.5622e-05
-7.49691e-05
1.80543e-05
-7.74411e-05
2.07452e-05
-7.9696e-05
2.37304e-05
-8.14344e-05
2.70385e-05
-8.22633e-05
3.06771e-05
-8.16941e-05
-7.91618e-05
-5.74555e-07
-7.67238e-05
-1.16931e-06
-7.94065e-05
-1.73981e-06
-7.94769e-05
-2.27855e-06
-7.91039e-05
-2.7838e-06
-7.85799e-05
-3.25531e-06
-7.79792e-05
-3.69348e-06
-7.733e-05
-4.09897e-06
-7.66457e-05
-4.47251e-06
-7.59336e-05
-4.8147e-06
-7.51977e-05
-5.12587e-06
-7.44402e-05
-5.40595e-06
-7.36623e-05
-5.65431e-06
-7.28649e-05
-5.86976e-06
-7.20489e-05
-6.05044e-06
-7.12158e-05
-6.1938e-06
-7.03684e-05
-6.29661e-06
-6.95104e-05
-6.35506e-06
-6.86476e-05
-6.36473e-06
-6.77876e-05
-6.32076e-06
-6.694e-05
-6.21796e-06
-6.61165e-05
-6.05096e-06
-6.5331e-05
-5.81442e-06
-6.45995e-05
-5.50317e-06
-6.39396e-05
-5.11236e-06
-6.33704e-05
-4.63771e-06
-6.29125e-05
-4.07564e-06
-6.25875e-05
-3.42343e-06
-6.24179e-05
-2.67937e-06
-6.24269e-05
-1.84273e-06
-6.26388e-05
-9.13802e-07
-6.3078e-05
1.06318e-07
-6.37693e-05
1.21613e-06
-6.47366e-05
2.41461e-06
-6.60004e-05
3.70227e-06
-6.75754e-05
5.08253e-06
-6.94644e-05
6.5633e-06
-7.16514e-05
8.15891e-06
-7.40921e-05
9.89221e-06
-7.67024e-05
1.17962e-05
-7.93451e-05
1.39146e-05
-8.18144e-05
1.63004e-05
-8.38202e-05
1.90108e-05
-8.49736e-05
2.20959e-05
-8.47792e-05
-8.26464e-05
-6.52193e-07
-7.60716e-05
-1.33304e-06
-7.87257e-05
-1.99551e-06
-7.88144e-05
-2.63108e-06
-7.84683e-05
-3.2372e-06
-7.79738e-05
-3.81289e-06
-7.74036e-05
-4.35777e-06
-7.67851e-05
-4.87171e-06
-7.61318e-05
-5.35466e-06
-7.54506e-05
-5.80642e-06
-7.47459e-05
-6.22656e-06
-7.402e-05
-6.61432e-06
-7.32746e-05
-6.96847e-06
-7.25107e-05
-7.28729e-06
-7.17301e-05
-7.56851e-06
-7.09346e-05
-7.80934e-06
-7.01275e-05
-8.00648e-06
-6.93133e-05
-8.15618e-06
-6.84979e-05
-8.25433e-06
-6.76895e-05
-8.29657e-06
-6.68977e-05
-8.27846e-06
-6.61346e-05
-8.19562e-06
-6.54139e-05
-8.04391e-06
-6.47512e-05
-7.81962e-06
-6.41638e-05
-7.51966e-06
-6.36703e-05
-7.14173e-06
-6.32904e-05
-6.6845e-06
-6.30447e-05
-6.14785e-06
-6.29545e-05
-5.5329e-06
-6.30419e-05
-4.84221e-06
-6.33295e-05
-4.07971e-06
-6.38405e-05
-3.25057e-06
-6.45985e-05
-2.3608e-06
-6.56263e-05
-1.41648e-06
-6.69447e-05
-4.22752e-07
-6.85691e-05
6.1779e-07
-7.05049e-05
1.70727e-06
-7.27408e-05
2.85526e-06
-7.524e-05
4.0819e-06
-7.7929e-05
5.42109e-06
-8.06843e-05
6.92334e-06
-8.33166e-05
8.65727e-06
-8.55542e-05
1.07082e-05
-8.70245e-05
1.31708e-05
-8.72419e-05
-8.56098e-05
-7.1654e-07
-7.53551e-05
-1.47012e-06
-7.79721e-05
-2.21148e-06
-7.80731e-05
-2.93102e-06
-7.77488e-05
-3.62542e-06
-7.72794e-05
-4.29296e-06
-7.6736e-05
-4.93253e-06
-7.61456e-05
-5.54325e-06
-7.5521e-05
-6.1243e-06
-7.48696e-05
-6.67478e-06
-7.41954e-05
-7.19358e-06
-7.35012e-05
-7.6793e-06
-7.27888e-05
-8.13021e-06
-7.20598e-05
-8.54417e-06
-7.13161e-05
-8.91862e-06
-7.05602e-05
-9.25062e-06
-6.97955e-05
-9.5369e-06
-6.9027e-05
-9.77389e-06
-6.82609e-05
-9.95788e-06
-6.75055e-05
-1.00851e-05
-6.67705e-05
-1.01519e-05
-6.60678e-05
-1.01549e-05
-6.54108e-05
-1.00913e-05
-6.48148e-05
-9.95884e-06
-6.42963e-05
-9.75609e-06
-6.38731e-05
-9.48274e-06
-6.35638e-05
-9.13966e-06
-6.33878e-05
-8.72916e-06
-6.3365e-05
-8.25513e-06
-6.35159e-05
-7.72315e-06
-6.38614e-05
-7.14061e-06
-6.4423e-05
-6.51655e-06
-6.52225e-05
-5.86131e-06
-6.62816e-05
-5.18594e-06
-6.76201e-05
-4.50103e-06
-6.9254e-05
-3.815e-06
-7.1191e-05
-3.13161e-06
-7.34242e-05
-2.44671e-06
-7.59249e-05
-1.74435e-06
-7.86314e-05
-9.92029e-07
-8.14366e-05
-1.35661e-07
-8.4173e-05
9.04982e-07
-8.65948e-05
2.23896e-06
-8.83585e-05
4.00244e-06
-8.90054e-05
-8.7956e-05
-7.69074e-07
-7.4586e-05
-1.58294e-06
-7.71583e-05
-2.39066e-06
-7.72654e-05
-3.18176e-06
-7.69577e-05
-3.95219e-06
-7.6509e-05
-4.69957e-06
-7.59886e-05
-5.42207e-06
-7.54231e-05
-6.11811e-06
-7.4825e-05
-6.78619e-06
-7.42015e-05
-7.42474e-06
-7.35569e-05
-8.03206e-06
-7.28939e-05
-8.60625e-06
-7.22146e-05
-9.14513e-06
-7.1521e-05
-9.64625e-06
-7.0815e-05
-1.01069e-05
-7.00995e-05
-1.0524e-05
-6.93784e-05
-1.08945e-05
-6.86565e-05
-1.12151e-05
-6.79404e-05
-1.14825e-05
-6.72381e-05
-1.16936e-05
-6.65594e-05
-1.18457e-05
-6.59157e-05
-1.19363e-05
-6.53202e-05
-1.1964e-05
-6.47872e-05
-1.19278e-05
-6.43325e-05
-1.18281e-05
-6.39728e-05
-1.16664e-05
-6.37255e-05
-1.14455e-05
-6.36086e-05
-1.11701e-05
-6.36404e-05
-1.08466e-05
-6.38395e-05
-1.04833e-05
-6.42247e-05
-1.00906e-05
-6.48156e-05
-9.68119e-06
-6.5632e-05
-9.26922e-06
-6.66935e-05
-8.87028e-06
-6.8019e-05
-8.50008e-06
-6.96242e-05
-8.17273e-06
-7.15183e-05
-7.89812e-06
-7.36988e-05
-7.67845e-06
-7.61446e-05
-7.50348e-06
-7.88064e-05
-7.3448e-06
-8.15953e-05
-7.14901e-06
-8.43688e-05
-6.83029e-06
-8.69135e-05
-6.26344e-06
-8.89253e-05
-5.27977e-06
-8.9989e-05
-8.95647e-05
-8.11027e-07
-7.3775e-05
-1.67372e-06
-7.62956e-05
-2.53607e-06
-7.6403e-05
-3.38694e-06
-7.61069e-05
-4.22171e-06
-7.56742e-05
-5.03737e-06
-7.5173e-05
-5.83145e-06
-7.4629e-05
-6.60174e-06
-7.40547e-05
-7.3461e-06
-7.34571e-05
-8.0624e-06
-7.28406e-05
-8.74844e-06
-7.22079e-05
-9.40188e-06
-7.15612e-05
-1.00202e-05
-7.09026e-05
-1.06008e-05
-7.02344e-05
-1.11408e-05
-6.95595e-05
-1.16373e-05
-6.88819e-05
-1.20873e-05
-6.82065e-05
-1.24879e-05
-6.75397e-05
-1.28364e-05
-6.68896e-05
-1.31303e-05
-6.62654e-05
-1.33678e-05
-6.56782e-05
-1.35476e-05
-6.51404e-05
-1.36692e-05
-6.46656e-05
-1.37332e-05
-6.42684e-05
-1.37415e-05
-6.39645e-05
-1.36972e-05
-6.37698e-05
-1.36051e-05
-6.37007e-05
-1.34718e-05
-6.37737e-05
-1.33059e-05
-6.40054e-05
-1.31181e-05
-6.44125e-05
-1.29215e-05
-6.50122e-05
-1.27315e-05
-6.58219e-05
-1.25659e-05
-6.68591e-05
-1.24441e-05
-6.81409e-05
-1.23863e-05
-6.9682e-05
-1.24118e-05
-7.14927e-05
-1.25367e-05
-7.3574e-05
-1.27697e-05
-7.59116e-05
-1.31076e-05
-7.84684e-05
-1.35287e-05
-8.11742e-05
-1.39848e-05
-8.39127e-05
-1.4392e-05
-8.65063e-05
-1.46203e-05
-8.8697e-05
-1.44843e-05
-9.0125e-05
-9.03095e-05
-8.43462e-07
-7.29315e-05
-1.74453e-06
-7.53945e-05
-2.65068e-06
-7.54969e-05
-3.55035e-06
-7.52072e-05
-4.43846e-06
-7.47861e-05
-5.31146e-06
-7.43e-05
-6.16633e-06
-7.37741e-05
-7.00028e-06
-7.32207e-05
-7.81063e-06
-7.26468e-05
-8.59479e-06
-7.20564e-05
-9.35011e-06
-7.14526e-05
-1.00739e-05
-7.08374e-05
-1.07636e-05
-7.0213e-05
-1.14162e-05
-6.95818e-05
-1.2029e-05
-6.89467e-05
-1.25991e-05
-6.83117e-05
-1.3124e-05
-6.76816e-05
-1.36011e-05
-6.70626e-05
-1.40283e-05
-6.64624e-05
-1.44038e-05
-6.58899e-05
-1.47266e-05
-6.53555e-05
-1.49964e-05
-6.48706e-05
-1.5214e-05
-6.4448e-05
-1.53811e-05
-6.41013e-05
-1.55011e-05
-6.38446e-05
-1.55785e-05
-6.36924e-05
-1.56198e-05
-6.36594e-05
-1.56333e-05
-6.37602e-05
-1.56293e-05
-6.40093e-05
-1.56207e-05
-6.44212e-05
-1.56225e-05
-6.50104e-05
-1.56525e-05
-6.57918e-05
-1.57312e-05
-6.67804e-05
-1.58811e-05
-6.79909e-05
-1.61262e-05
-6.94369e-05
-1.64904e-05
-7.11285e-05
-1.69953e-05
-7.30691e-05
-1.76561e-05
-7.52507e-05
-1.84776e-05
-7.7647e-05
-1.94465e-05
-8.02052e-05
-2.05241e-05
-8.28351e-05
-2.16349e-05
-8.53954e-05
-2.26551e-05
-8.76767e-05
-2.33991e-05
-8.93811e-05
-9.01002e-05
-8.67362e-07
-7.20642e-05
-1.79738e-06
-7.44646e-05
-2.7375e-06
-7.45568e-05
-3.6759e-06
-7.42688e-05
-4.60717e-06
-7.38549e-05
-5.52731e-06
-7.33798e-05
-6.43281e-06
-7.28686e-05
-7.32041e-06
-7.23331e-05
-8.187e-06
-7.17802e-05
-9.02957e-06
-7.12139e-05
-9.84517e-06
-7.0637e-05
-1.06309e-05
-7.00516e-05
-1.13839e-05
-6.946e-05
-1.21014e-05
-6.88643e-05
-1.27806e-05
-6.82675e-05
-1.3419e-05
-6.76733e-05
-1.40141e-05
-6.70864e-05
-1.45641e-05
-6.65127e-05
-1.50672e-05
-6.59593e-05
-1.55226e-05
-6.54346e-05
-1.59299e-05
-6.49481e-05
-1.629e-05
-6.45105e-05
-1.66045e-05
-6.41335e-05
-1.68764e-05
-6.38293e-05
-1.71102e-05
-6.36108e-05
-1.73119e-05
-6.34908e-05
-1.74892e-05
-6.34822e-05
-1.76517e-05
-6.35977e-05
-1.78113e-05
-6.38497e-05
-1.79823e-05
-6.42503e-05
-1.81812e-05
-6.48115e-05
-1.84277e-05
-6.55453e-05
-1.87441e-05
-6.6464e-05
-1.91551e-05
-6.75799e-05
-1.96877e-05
-6.89043e-05
-2.03695e-05
-7.04468e-05
-2.12266e-05
-7.2212e-05
-2.22808e-05
-7.41965e-05
-2.35445e-05
-7.63833e-05
-2.50146e-05
-7.87351e-05
-2.66641e-05
-8.11856e-05
-2.84319e-05
-8.36277e-05
-3.02091e-05
-8.58996e-05
-3.18235e-05
-8.77666e-05
-8.88999e-05
-8.83696e-07
-7.11805e-05
-1.83428e-06
-7.3514e-05
-2.79957e-06
-7.35915e-05
-3.76762e-06
-7.33008e-05
-4.73274e-06
-7.28897e-05
-5.6906e-06
-7.2422e-05
-6.6373e-06
-7.19219e-05
-7.56919e-06
-7.14013e-05
-8.48282e-06
-7.08666e-05
-9.37487e-06
-7.03218e-05
-1.02422e-05
-6.97696e-05
-1.10817e-05
-6.92121e-05
-1.18906e-05
-6.86511e-05
-1.2666e-05
-6.80889e-05
-1.34053e-05
-6.75281e-05
-1.41064e-05
-6.69722e-05
-1.47671e-05
-6.64257e-05
-1.5386e-05
-6.58938e-05
-1.59621e-05
-6.53832e-05
-1.6495e-05
-6.49016e-05
-1.69855e-05
-6.44576e-05
-1.7435e-05
-6.40611e-05
-1.78462e-05
-6.37223e-05
-1.82232e-05
-6.34524e-05
-1.85713e-05
-6.32626e-05
-1.88978e-05
-6.31643e-05
-1.92113e-05
-6.31687e-05
-1.95226e-05
-6.32864e-05
-1.98446e-05
-6.35277e-05
-2.01925e-05
-6.39024e-05
-2.0584e-05
-6.44199e-05
-2.10398e-05
-6.50896e-05
-2.15831e-05
-6.59207e-05
-2.22405e-05
-6.69226e-05
-2.30405e-05
-6.81043e-05
-2.40134e-05
-6.94739e-05
-2.51892e-05
-7.10361e-05
-2.6595e-05
-7.27906e-05
-2.82508e-05
-7.47274e-05
-3.01639e-05
-7.68221e-05
-3.2321e-05
-7.90285e-05
-3.46786e-05
-8.127e-05
-3.71499e-05
-8.34283e-05
-3.95882e-05
-8.53283e-05
-8.6721e-05
-8.93478e-07
-7.0287e-05
-1.85732e-06
-7.25502e-05
-2.84001e-06
-7.26088e-05
-3.82958e-06
-7.23112e-05
-4.82016e-06
-7.18992e-05
-5.80713e-06
-7.1435e-05
-6.78633e-06
-7.09427e-05
-7.75382e-06
-7.04338e-05
-8.70589e-06
-6.99145e-05
-9.63904e-06
-6.93887e-05
-1.055e-05
-6.88587e-05
-1.14356e-05
-6.83265e-05
-1.2293e-05
-6.77937e-05
-1.31195e-05
-6.72623e-05
-1.39129e-05
-6.67347e-05
-1.46711e-05
-6.62141e-05
-1.53925e-05
-6.57042e-05
-1.60761e-05
-6.52102e-05
-1.67215e-05
-6.47378e-05
-1.73292e-05
-6.4294e-05
-1.79003e-05
-6.38865e-05
-1.84373e-05
-6.35241e-05
-1.89437e-05
-6.32159e-05
-1.94243e-05
-6.29717e-05
-1.98855e-05
-6.28014e-05
-2.03352e-05
-6.27146e-05
-2.0783e-05
-6.27209e-05
-2.12403e-05
-6.28291e-05
-2.17207e-05
-6.30473e-05
-2.224e-05
-6.33831e-05
-2.28164e-05
-6.38435e-05
-2.34709e-05
-6.44351e-05
-2.42274e-05
-6.51642e-05
-2.51127e-05
-6.60372e-05
-2.61565e-05
-6.70606e-05
-2.73905e-05
-6.82399e-05
-2.88474e-05
-6.95793e-05
-3.05584e-05
-7.10796e-05
-3.25502e-05
-7.27356e-05
-3.48401e-05
-7.45322e-05
-3.7429e-05
-7.64395e-05
-4.02935e-05
-7.84055e-05
-4.33733e-05
-8.03485e-05
-4.65563e-05
-8.21454e-05
-8.36183e-05
-8.97778e-07
-6.93893e-05
-1.86861e-06
-7.15794e-05
-2.86197e-06
-7.16155e-05
-3.8659e-06
-7.13073e-05
-4.87441e-06
-7.08907e-05
-5.88273e-06
-7.04267e-05
-6.88648e-06
-6.9939e-05
-7.88155e-06
-6.94387e-05
-8.86407e-06
-6.8932e-05
-9.83044e-06
-6.84223e-05
-1.07773e-05
-6.79119e-05
-1.17016e-05
-6.74022e-05
-1.26006e-05
-6.68948e-05
-1.34717e-05
-6.63912e-05
-1.43129e-05
-6.58935e-05
-1.51226e-05
-6.54044e-05
-1.58995e-05
-6.49273e-05
-1.66432e-05
-6.44665e-05
-1.73538e-05
-6.40272e-05
-1.80324e-05
-6.36154e-05
-1.86808e-05
-6.32381e-05
-1.93022e-05
-6.29027e-05
-1.99008e-05
-6.26173e-05
-2.04821e-05
-6.23904e-05
-2.10531e-05
-6.22303e-05
-2.16224e-05
-6.21453e-05
-2.22001e-05
-6.21432e-05
-2.27982e-05
-6.2231e-05
-2.34305e-05
-6.2415e-05
-2.41129e-05
-6.27007e-05
-2.48638e-05
-6.30927e-05
-2.57039e-05
-6.3595e-05
-2.66569e-05
-6.42112e-05
-2.77494e-05
-6.49447e-05
-2.90109e-05
-6.5799e-05
-3.04737e-05
-6.67771e-05
-3.21717e-05
-6.78813e-05
-3.4139e-05
-6.91123e-05
-3.64075e-05
-7.04671e-05
-3.9003e-05
-7.19367e-05
-4.19402e-05
-7.35023e-05
-4.52153e-05
-7.51304e-05
-4.87966e-05
-7.67672e-05
-5.26116e-05
-7.83304e-05
-7.96988e-05
-8.97704e-07
-6.84916e-05
-1.8703e-06
-7.06068e-05
-2.86857e-06
-7.06172e-05
-3.88062e-06
-7.02952e-05
-4.90042e-06
-6.98709e-05
-5.92311e-06
-6.9404e-05
-6.94419e-06
-6.89179e-05
-7.95948e-06
-6.84234e-05
-8.96506e-06
-6.79264e-05
-9.9573e-06
-6.74301e-05
-1.09329e-05
-6.69363e-05
-1.18888e-05
-6.64462e-05
-1.28226e-05
-6.59611e-05
-1.37318e-05
-6.5482e-05
-1.46147e-05
-6.50106e-05
-1.54701e-05
-6.4549e-05
-1.62971e-05
-6.41002e-05
-1.70958e-05
-6.36678e-05
-1.78668e-05
-6.32562e-05
-1.86117e-05
-6.28705e-05
-1.9333e-05
-6.25167e-05
-2.00344e-05
-6.22013e-05
-2.07207e-05
-6.1931e-05
-2.1398e-05
-6.17131e-05
-2.20738e-05
-6.15545e-05
-2.27571e-05
-6.14621e-05
-2.34583e-05
-6.1442e-05
-2.41895e-05
-6.14998e-05
-2.49647e-05
-6.16399e-05
-2.57996e-05
-6.18659e-05
-2.6712e-05
-6.21803e-05
-2.77222e-05
-6.25848e-05
-2.88531e-05
-6.30803e-05
-3.01301e-05
-6.36676e-05
-3.1582e-05
-6.4347e-05
-3.32403e-05
-6.51188e-05
-3.51388e-05
-6.59828e-05
-3.73129e-05
-6.69382e-05
-3.97979e-05
-6.79822e-05
-4.2626e-05
-6.91086e-05
-4.58231e-05
-7.03052e-05
-4.9403e-05
-7.15505e-05
-5.33606e-05
-7.28096e-05
-5.76626e-05
-7.40284e-05
-7.51269e-05
-8.94356e-07
-6.75973e-05
-1.86452e-06
-6.96366e-05
-2.86284e-06
-6.96189e-05
-3.87764e-06
-6.92805e-05
-4.90288e-06
-6.88456e-05
-5.9337e-06
-6.83732e-05
-6.9656e-06
-6.7886e-05
-7.9944e-06
-6.73946e-05
-9.01621e-06
-6.69046e-05
-1.00275e-05
-6.64188e-05
-1.10249e-05
-6.59388e-05
-1.20059e-05
-6.54653e-05
-1.29678e-05
-6.49992e-05
-1.39087e-05
-6.4541e-05
-1.48272e-05
-6.40921e-05
-1.57223e-05
-6.36539e-05
-1.65936e-05
-6.32289e-05
-1.74417e-05
-6.28198e-05
-1.82676e-05
-6.24303e-05
-1.90734e-05
-6.20647e-05
-1.98622e-05
-6.1728e-05
-2.0638e-05
-6.14254e-05
-2.14062e-05
-6.11628e-05
-2.21733e-05
-6.0946e-05
-2.29471e-05
-6.07808e-05
-2.37367e-05
-6.06724e-05
-2.45529e-05
-6.06259e-05
-2.54076e-05
-6.0645e-05
-2.63145e-05
-6.0733e-05
-2.72889e-05
-6.08914e-05
-2.83481e-05
-6.11212e-05
-2.95111e-05
-6.14218e-05
-3.07995e-05
-6.1792e-05
-3.22373e-05
-6.22298e-05
-3.38516e-05
-6.27328e-05
-3.5672e-05
-6.32984e-05
-3.77311e-05
-6.39236e-05
-4.00639e-05
-6.46054e-05
-4.27067e-05
-6.53394e-05
-4.56954e-05
-6.61198e-05
-4.90636e-05
-6.6937e-05
-5.28382e-05
-6.77759e-05
-5.70354e-05
-6.86124e-05
-6.1654e-05
-6.94098e-05
-7.01144e-05
-8.88767e-07
-6.67085e-05
-1.85322e-06
-6.86722e-05
-2.84761e-06
-6.86245e-05
-3.86055e-06
-6.82675e-05
-4.88614e-06
-6.782e-05
-5.91957e-06
-6.73397e-05
-6.95645e-06
-6.68491e-05
-7.99265e-06
-6.63584e-05
-9.02441e-06
-6.58729e-05
-1.00483e-05
-6.5395e-05
-1.10612e-05
-6.49258e-05
-1.20607e-05
-6.44659e-05
-1.30444e-05
-6.40154e-05
-1.40107e-05
-6.35747e-05
-1.49585e-05
-6.31443e-05
-1.58872e-05
-6.27253e-05
-1.67968e-05
-6.23192e-05
-1.76882e-05
-6.19284e-05
-1.8563e-05
-6.15555e-05
-1.94235e-05
-6.12041e-05
-2.02733e-05
-6.08781e-05
-2.11169e-05
-6.05818e-05
-2.19599e-05
-6.03199e-05
-2.2809e-05
-6.00969e-05
-2.36723e-05
-5.99175e-05
-2.4559e-05
-5.97857e-05
-2.54797e-05
-5.97052e-05
-2.64463e-05
-5.96785e-05
-2.74719e-05
-5.97074e-05
-2.85712e-05
-5.97921e-05
-2.97604e-05
-5.9932e-05
-3.10573e-05
-6.01248e-05
-3.24819e-05
-6.03673e-05
-3.40563e-05
-6.06554e-05
-3.58048e-05
-6.09842e-05
-3.7755e-05
-6.13482e-05
-3.99368e-05
-6.17419e-05
-4.2383e-05
-6.21591e-05
-4.51289e-05
-6.25936e-05
-4.8211e-05
-6.30376e-05
-5.16662e-05
-6.34818e-05
-5.55292e-05
-6.3913e-05
-5.98293e-05
-6.43123e-05
-6.4587e-05
-6.46522e-05
-6.48931e-05
-8.81848e-07
-6.58267e-05
-1.83816e-06
-6.77159e-05
-2.82537e-06
-6.76373e-05
-3.83259e-06
-6.72603e-05
-4.8541e-06
-6.67985e-05
-5.88528e-06
-6.63086e-05
-6.92188e-06
-6.58125e-05
-7.95996e-06
-6.53204e-05
-8.99589e-06
-6.4837e-05
-1.00264e-05
-6.43644e-05
-1.10488e-05
-6.39035e-05
-1.20606e-05
-6.34541e-05
-1.306e-05
-6.30161e-05
-1.40455e-05
-6.25892e-05
-1.50163e-05
-6.21735e-05
-1.59723e-05
-6.17693e-05
-1.69138e-05
-6.13777e-05
-1.7842e-05
-6.10002e-05
-1.87589e-05
-6.06387e-05
-1.96672e-05
-6.02958e-05
-2.05709e-05
-5.99745e-05
-2.14745e-05
-5.96782e-05
-2.2384e-05
-5.94104e-05
-2.33062e-05
-5.91747e-05
-2.42492e-05
-5.89745e-05
-2.52222e-05
-5.88127e-05
-2.62355e-05
-5.86918e-05
-2.73007e-05
-5.86133e-05
-2.84304e-05
-5.85777e-05
-2.96382e-05
-5.85842e-05
-3.09395e-05
-5.86308e-05
-3.23504e-05
-5.87138e-05
-3.38891e-05
-5.88287e-05
-3.55752e-05
-5.89693e-05
-3.74307e-05
-5.91287e-05
-3.94796e-05
-5.92993e-05
-4.17487e-05
-5.94728e-05
-4.42673e-05
-5.96405e-05
-4.70676e-05
-5.97933e-05
-5.01839e-05
-5.99213e-05
-5.36523e-05
-6.00134e-05
-5.75093e-05
-6.0056e-05
-6.17899e-05
-6.00317e-05
-6.65252e-05
-5.99168e-05
-5.96789e-05
-8.74333e-07
-6.49523e-05
-1.82078e-06
-6.67694e-05
-2.79823e-06
-6.66599e-05
-3.79646e-06
-6.6262e-05
-4.81009e-06
-6.57848e-05
-5.83475e-06
-6.52839e-05
-6.8664e-06
-6.47808e-05
-7.90133e-06
-6.42854e-05
-8.93614e-06
-6.38021e-05
-9.96785e-06
-6.33327e-05
-1.09939e-05
-6.28774e-05
-1.20122e-05
-6.24358e-05
-1.30211e-05
-6.20072e-05
-1.40196e-05
-6.15907e-05
-1.50072e-05
-6.11859e-05
-1.5984e-05
-6.07925e-05
-1.69507e-05
-6.0411e-05
-1.79089e-05
-6.0042e-05
-1.88608e-05
-5.96868e-05
-1.98094e-05
-5.93471e-05
-2.07589e-05
-5.90251e-05
-2.1714e-05
-5.87231e-05
-2.26808e-05
-5.84437e-05
-2.36661e-05
-5.81894e-05
-2.46779e-05
-5.79626e-05
-2.57252e-05
-5.77654e-05
-2.6818e-05
-5.7599e-05
-2.79673e-05
-5.7464e-05
-2.9185e-05
-5.736e-05
-3.04841e-05
-5.72852e-05
-3.18783e-05
-5.72366e-05
-3.33825e-05
-5.72096e-05
-3.50126e-05
-5.71985e-05
-3.67861e-05
-5.71958e-05
-3.87218e-05
-5.71931e-05
-4.08403e-05
-5.71808e-05
-4.31644e-05
-5.71487e-05
-4.57191e-05
-5.70857e-05
-4.85321e-05
-5.69803e-05
-5.16333e-05
-5.68201e-05
-5.50548e-05
-5.65919e-05
-5.88303e-05
-5.62805e-05
-6.29937e-05
-5.58683e-05
-6.75777e-05
-5.53328e-05
-5.46449e-05
-8.66739e-07
-6.40856e-05
-1.80213e-06
-6.5834e-05
-2.76777e-06
-6.56942e-05
-3.7543e-06
-6.52755e-05
-4.75678e-06
-6.47823e-05
-5.77116e-06
-6.42695e-05
-6.7937e-06
-6.37583e-05
-7.82095e-06
-6.32582e-05
-8.84978e-06
-6.27733e-05
-9.87749e-06
-6.2305e-05
-1.09018e-05
-6.18531e-05
-1.19209e-05
-6.14167e-05
-1.29336e-05
-6.09945e-05
-1.3939e-05
-6.05853e-05
-1.4937e-05
-6.01879e-05
-1.5928e-05
-5.98015e-05
-1.69131e-05
-5.94259e-05
-1.78941e-05
-5.9061e-05
-1.88734e-05
-5.87075e-05
-1.98544e-05
-5.83662e-05
-2.08411e-05
-5.80384e-05
-2.18386e-05
-5.77256e-05
-2.28527e-05
-5.74296e-05
-2.38903e-05
-5.71518e-05
-2.49591e-05
-5.68938e-05
-2.60678e-05
-5.66567e-05
-2.7226e-05
-5.64408e-05
-2.84441e-05
-5.6246e-05
-2.97332e-05
-5.60709e-05
-3.11051e-05
-5.59132e-05
-3.25726e-05
-5.57691e-05
-3.41488e-05
-5.56334e-05
-3.58478e-05
-5.54995e-05
-3.76844e-05
-5.53591e-05
-3.96746e-05
-5.52029e-05
-4.18354e-05
-5.502e-05
-4.41854e-05
-5.47987e-05
-4.6745e-05
-5.45262e-05
-4.95363e-05
-5.4189e-05
-5.25836e-05
-5.37728e-05
-5.5913e-05
-5.32624e-05
-5.95523e-05
-5.26413e-05
-6.35298e-05
-5.18907e-05
-6.78739e-05
-5.09888e-05
-4.99085e-05
-8.59319e-07
-6.32263e-05
-1.78284e-06
-6.49105e-05
-2.73503e-06
-6.4742e-05
-3.70759e-06
-6.43029e-05
-4.69612e-06
-6.37938e-05
-5.69694e-06
-6.32687e-05
-6.70666e-06
-6.27486e-05
-7.72212e-06
-6.22427e-05
-8.7405e-06
-6.17549e-05
-9.7594e-06
-6.12861e-05
-1.07769e-05
-6.08357e-05
-1.17914e-05
-6.04022e-05
-1.2802e-05
-5.99839e-05
-1.38084e-05
-5.95789e-05
-1.48105e-05
-5.91857e-05
-1.58092e-05
-5.88029e-05
-1.68057e-05
-5.84294e-05
-1.78021e-05
-5.80646e-05
-1.8801e-05
-5.77085e-05
-1.98059e-05
-5.73613e-05
-2.0821e-05
-5.70233e-05
-2.18511e-05
-5.66955e-05
-2.29021e-05
-5.63785e-05
-2.39807e-05
-5.60733e-05
-2.50943e-05
-5.57803e-05
-2.6251e-05
-5.54999e-05
-2.746e-05
-5.52318e-05
-2.8731e-05
-5.4975e-05
-3.00742e-05
-5.47277e-05
-3.15005e-05
-5.44869e-05
-3.30213e-05
-5.42483e-05
-3.46483e-05
-5.40064e-05
-3.63935e-05
-5.37542e-05
-3.82697e-05
-5.3483e-05
-4.02898e-05
-5.31828e-05
-4.24675e-05
-5.28423e-05
-4.48173e-05
-5.24488e-05
-4.73549e-05
-5.19886e-05
-5.00968e-05
-5.14471e-05
-5.30611e-05
-5.08085e-05
-5.62671e-05
-5.00564e-05
-5.97351e-05
-4.91733e-05
-6.34859e-05
-4.814e-05
-6.75397e-05
-4.6935e-05
-4.55336e-05
-8.5205e-07
-6.23742e-05
-1.76306e-06
-6.39995e-05
-2.70047e-06
-6.38046e-05
-3.65714e-06
-6.33463e-05
-4.62929e-06
-6.28216e-05
-5.61369e-06
-6.22843e-05
-6.60727e-06
-6.1755e-05
-7.60722e-06
-6.12428e-05
-8.61103e-06
-6.07511e-05
-9.61663e-06
-6.02805e-05
-1.06224e-05
-5.98299e-05
-1.16271e-05
-5.93974e-05
-1.26302e-05
-5.89808e-05
-1.36315e-05
-5.85776e-05
-1.46315e-05
-5.81857e-05
-1.56312e-05
-5.78032e-05
-1.66321e-05
-5.74284e-05
-1.76364e-05
-5.70603e-05
-1.8647e-05
-5.6698e-05
-1.96673e-05
-5.6341e-05
-2.07015e-05
-5.59892e-05
-2.17544e-05
-5.56426e-05
-2.28317e-05
-5.53012e-05
-2.39397e-05
-5.49653e-05
-2.50854e-05
-5.46346e-05
-2.62766e-05
-5.43087e-05
-2.75216e-05
-5.39867e-05
-2.88295e-05
-5.36672e-05
-3.02096e-05
-5.33476e-05
-3.16718e-05
-5.30247e-05
-3.32262e-05
-5.2694e-05
-3.4883e-05
-5.23497e-05
-3.66526e-05
-5.19846e-05
-3.85455e-05
-5.15901e-05
-4.05721e-05
-5.11562e-05
-4.27431e-05
-5.06713e-05
-4.50693e-05
-5.01226e-05
-4.75617e-05
-4.94962e-05
-5.0232e-05
-4.87768e-05
-5.30921e-05
-4.79484e-05
-5.61545e-05
-4.6994e-05
-5.94321e-05
-4.58956e-05
-6.29375e-05
-4.46346e-05
-6.6682e-05
-4.31904e-05
-4.15407e-05
-8.44633e-07
-6.15296e-05
-1.74249e-06
-6.31017e-05
-2.66393e-06
-6.28832e-05
-3.60307e-06
-6.24071e-05
-4.55676e-06
-6.18679e-05
-5.5222e-06
-6.13188e-05
-6.49668e-06
-6.07805e-05
-7.47771e-06
-6.02618e-05
-8.46313e-06
-5.97657e-05
-9.45118e-06
-5.92925e-05
-1.04406e-05
-5.88405e-05
-1.14305e-05
-5.84075e-05
-1.24206e-05
-5.79907e-05
-1.34111e-05
-5.75871e-05
-1.44028e-05
-5.7194e-05
-1.53969e-05
-5.68091e-05
-1.63952e-05
-5.64302e-05
-1.73999e-05
-5.60555e-05
-1.84141e-05
-5.56838e-05
-1.94412e-05
-5.53139e-05
-2.04853e-05
-5.49451e-05
-2.15511e-05
-5.45768e-05
-2.26439e-05
-5.42084e-05
-2.37698e-05
-5.38394e-05
-2.49352e-05
-5.34692e-05
-2.61473e-05
-5.30965e-05
-2.74139e-05
-5.27202e-05
-2.87431e-05
-5.2338e-05
-3.01433e-05
-5.19474e-05
-3.16234e-05
-5.15446e-05
-3.31922e-05
-5.11251e-05
-3.48587e-05
-5.06832e-05
-3.66317e-05
-5.02116e-05
-3.85196e-05
-4.97022e-05
-4.05308e-05
-4.9145e-05
-4.26732e-05
-4.85289e-05
-4.49543e-05
-4.78415e-05
-4.73816e-05
-4.70689e-05
-4.99621e-05
-4.61964e-05
-5.27025e-05
-4.5208e-05
-5.56093e-05
-4.40872e-05
-5.86885e-05
-4.28164e-05
-6.19454e-05
-4.13778e-05
-6.53833e-05
-3.97525e-05
-3.7921e-05
-8.36555e-07
-6.0693e-05
-1.72045e-06
-6.22178e-05
-2.6248e-06
-6.19788e-05
-3.54493e-06
-6.1487e-05
-4.47831e-06
-6.09346e-05
-5.42252e-06
-6.03746e-05
-6.37521e-06
-5.98278e-05
-7.3342e-06
-5.93028e-05
-8.29764e-06
-5.88023e-05
-9.26412e-06
-5.8326e-05
-1.02327e-05
-5.7872e-05
-1.12029e-05
-5.74373e-05
-1.21748e-05
-5.70188e-05
-1.31489e-05
-5.6613e-05
-1.41262e-05
-5.62167e-05
-1.51082e-05
-5.58271e-05
-1.60969e-05
-5.54415e-05
-1.70947e-05
-5.50578e-05
-1.81046e-05
-5.4674e-05
-1.91299e-05
-5.42886e-05
-2.01748e-05
-5.39003e-05
-2.12436e-05
-5.3508e-05
-2.23415e-05
-5.31106e-05
-2.34739e-05
-5.27071e-05
-2.46468e-05
-5.22962e-05
-2.58669e-05
-5.18765e-05
-2.7141e-05
-5.14461e-05
-2.84764e-05
-5.10026e-05
-2.98808e-05
-5.0543e-05
-3.13617e-05
-5.00637e-05
-3.2927e-05
-4.95598e-05
-3.45843e-05
-4.90259e-05
-3.63409e-05
-4.84551e-05
-3.82036e-05
-4.78394e-05
-4.0179e-05
-4.71696e-05
-4.22727e-05
-4.64352e-05
-4.44898e-05
-4.56244e-05
-4.68343e-05
-4.47244e-05
-4.93098e-05
-4.37209e-05
-5.19187e-05
-4.25991e-05
-5.46626e-05
-4.13432e-05
-5.75422e-05
-3.99369e-05
-6.05563e-05
-3.83636e-05
-6.37023e-05
-3.66065e-05
-3.4649e-05
-8.27164e-07
-5.98659e-05
-1.69597e-06