/*--------------------------------*- C++ -*----------------------------------*\
| =========                 |                                                 |
| \\      /  F ield         | OpenFOAM: The Open Source CFD Toolbox           |
|  \\    /   O peration     | Version:  5.0                                   |
|   \\  /    A nd           | Web:      www.OpenFOAM.org                      |
|    \\/     M anipulation  |                                                 |
\*---------------------------------------------------------------------------*/
FoamFile
{
    version     2.0;
    format      ascii;
    class       volVectorField;
    location    "0.4";
    object      U;
}
// * * * * * * * * * * * * * * * * * * * * * * * * * * * * * * * * * * * * * //

dimensions      [0 1 -1 0 0 0 0];

internalField   nonuniform List<vector> 
1915
(
(0.102314 -0.689658 0)
(0.108989 -0.677511 0)
(0.116038 -0.665374 0)
(0.12357 -0.653408 0)
(0.131709 -0.641787 0)
(0.140603 -0.630716 0)
(0.150406 -0.620419 0)
(0.161284 -0.611137 0)
(0.173412 -0.603122 0)
(0.186979 -0.596634 0)
(0.202184 -0.591925 0)
(0.219241 -0.589234 0)
(0.238381 -0.588761 0)
(0.259854 -0.590639 0)
(0.283925 -0.594892 0)
(0.310881 -0.601381 0)
(0.341014 -0.609737 0)
(0.374615 -0.619286 0)
(0.411946 -0.628972 0)
(0.453207 -0.637291 0)
(0.498483 -0.64225 0)
(0.547678 -0.641361 0)
(0.60039 -0.631708 0)
(0.655981 -0.610154 0)
(0.713005 -0.573367 0)
(0.000812324 -0.846516 0)
(0.00136044 -0.877048 0)
(0.00162422 -0.875537 0)
(0.00278139 -0.869068 0)
(0.0044408 -0.86098 0)
(0.00658432 -0.852153 0)
(0.00916927 -0.842931 0)
(0.0121467 -0.833481 0)
(0.0154649 -0.823888 0)
(0.0190716 -0.81419 0)
(0.0229161 -0.804393 0)
(0.0269521 -0.794481 0)
(0.0311397 -0.784424 0)
(0.0354476 -0.774188 0)
(0.0398552 -0.763736 0)
(0.0443543 -0.753039 0)
(0.0489503 -0.74208 0)
(0.0536643 -0.730858 0)
(0.058532 -0.719401 0)
(0.0636001 -0.707747 0)
(0.0689329 -0.695984 0)
(0.0746273 -0.684207 0)
(0.0807745 -0.672557 0)
(0.0874711 -0.661203 0)
(0.0948426 -0.650334 0)
(0.103019 -0.640162 0)
(0.112139 -0.630924 0)
(0.122349 -0.62287 0)
(0.133804 -0.616261 0)
(0.146668 -0.611368 0)
(0.161112 -0.608457 0)
(0.177321 -0.607781 0)
(0.195494 -0.609558 0)
(0.215847 -0.613941 0)
(0.238613 -0.620977 0)
(0.264048 -0.630544 0)
(0.292421 -0.642279 0)
(0.324007 -0.6555 0)
(0.35907 -0.669108 0)
(0.397827 -0.681514 0)
(0.440406 -0.690572 0)
(0.486769 -0.693559 0)
(0.536591 -0.687218 0)
(0.589229 -0.667906 0)
(0.643617 -0.632025 0)
(-0.000484774 -0.846678 0)
(-0.00150455 -0.876395 0)
(-0.00253377 -0.875567 0)
(-0.00297901 -0.869647 0)
(-0.00296439 -0.862076 0)
(-0.00249233 -0.85373 0)
(-0.00159422 -0.844945 0)
(-0.000309593 -0.835884 0)
(0.00131903 -0.826629 0)
(0.0032487 -0.81722 0)
(0.00543844 -0.807665 0)
(0.00785149 -0.797955 0)
(0.0104574 -0.788068 0)
(0.0132341 -0.777979 0)
(0.0161695 -0.767663 0)
(0.0192627 -0.757104 0)
(0.0225259 -0.746299 0)
(0.0259842 -0.735264 0)
(0.0296759 -0.724036 0)
(0.0336494 -0.712681 0)
(0.0379759 -0.701286 0)
(0.0427346 -0.689971 0)
(0.0480091 -0.678893 0)
(0.0538999 -0.668224 0)
(0.0605149 -0.658166 0)
(0.0679693 -0.64894 0)
(0.0763841 -0.64079 0)
(0.0858855 -0.633973 0)
(0.0966043 -0.628757 0)
(0.108676 -0.625419 0)
(0.122244 -0.624236 0)
(0.137458 -0.625471 0)
(0.15448 -0.629359 0)
(0.173486 -0.636072 0)
(0.19467 -0.645677 0)
(0.21825 -0.658073 0)
(0.24446 -0.672917 0)
(0.273557 -0.689526 0)
(0.305797 -0.706784 0)
(0.341418 -0.72304 0)
(0.380592 -0.736025 0)
(0.423363 -0.742808 0)
(0.46953 -0.73981 0)
(0.518552 -0.722921 0)
(0.569451 -0.687893 0)
(-0.00142337 -0.844864 0)
(-0.00387596 -0.874378 0)
(-0.00619191 -0.873991 0)
(-0.00808912 -0.868569 0)
(-0.00957518 -0.861486 0)
(-0.0106329 -0.853602 0)
(-0.011284 -0.845244 0)
(-0.0115589 -0.836571 0)
(-0.0114912 -0.827664 0)
(-0.0111141 -0.818563 0)
(-0.010459 -0.809279 0)
(-0.00955325 -0.799809 0)
(-0.00841784 -0.790139 0)
(-0.00706618 -0.780253 0)
(-0.00550238 -0.770137 0)
(-0.00372014 -0.759788 0)
(-0.00170196 -0.749215 0)
(0.000581203 -0.738448 0)
(0.00316962 -0.727538 0)
(0.0061145 -0.716562 0)
(0.00947931 -0.705622 0)
(0.0133383 -0.694854 0)
(0.0177727 -0.684415 0)
(0.02287 -0.674489 0)
(0.0287249 -0.665285 0)
(0.0354362 -0.657032 0)
(0.0431058 -0.649975 0)
(0.0518372 -0.644376 0)
(0.0617354 -0.640505 0)
(0.0729071 -0.638645 0)
(0.0854616 -0.639076 0)
(0.0995125 -0.642072 0)
(0.115181 -0.647879 0)
(0.132598 -0.656687 0)
(0.151914 -0.668586 0)
(0.173298 -0.6835 0)
(0.196948 -0.701109 0)
(0.223088 -0.72075 0)
(0.251967 -0.741309 0)
(0.283838 -0.761101 0)
(0.318926 -0.777771 0)
(0.35737 -0.788217 0)
(0.399125 -0.788574 0)
(0.443836 -0.774309 0)
(0.490726 -0.740567 0)
(-0.00211887 -0.841528 0)
(-0.00583619 -0.870911 0)
(-0.00937119 -0.870923 0)
(-0.0125677 -0.86596 0)
(-0.0154054 -0.859335 0)
(-0.0178475 -0.851889 0)
(-0.0199059 -0.843944 0)
(-0.0216027 -0.835655 0)
(-0.0229622 -0.8271 0)
(-0.0240083 -0.818321 0)
(-0.0247631 -0.809333 0)
(-0.0252448 -0.800138 0)
(-0.0254655 -0.790729 0)
(-0.0254304 -0.781098 0)
(-0.0251365 -0.771243 0)
(-0.0245713 -0.76117 0)
(-0.0237128 -0.750901 0)
(-0.022529 -0.740477 0)
(-0.0209785 -0.729961 0)
(-0.0190105 -0.71944 0)
(-0.0165646 -0.709028 0)
(-0.0135733 -0.698865 0)
(-0.00996419 -0.689118 0)
(-0.0056605 -0.679978 0)
(-0.00058208 -0.671655 0)
(0.00535193 -0.664381 0)
(0.0122215 -0.658402 0)
(0.0201066 -0.653978 0)
(0.0290855 -0.651381 0)
(0.0392346 -0.650891 0)
(0.0506285 -0.652791 0)
(0.0633411 -0.65736 0)
(0.0774496 -0.664853 0)
(0.0930386 -0.675474 0)
(0.110206 -0.689335 0)
(0.129073 -0.70639 0)
(0.149789 -0.726352 0)
(0.172545 -0.748592 0)
(0.197573 -0.77202 0)
(0.22514 -0.794956 0)
(0.255526 -0.815004 0)
(0.288981 -0.828947 0)
(0.325642 -0.832696 0)
(0.365404 -0.821341 0)
(0.407794 -0.789464 0)
(-0.00266559 -0.836882 0)
(-0.00746508 -0.866148 0)
(-0.0120894 -0.866506 0)
(-0.0164369 -0.861957 0)
(-0.0204776 -0.855753 0)
(-0.0241581 -0.848719 0)
(-0.027481 -0.841169 0)
(-0.03046 -0.833253 0)
(-0.0331107 -0.825051 0)
(-0.0354483 -0.816605 0)
(-0.037486 -0.807932 0)
(-0.039233 -0.799041 0)
(-0.0406938 -0.78993 0)
(-0.0418659 -0.780601 0)
(-0.0427399 -0.77106 0)
(-0.0432982 -0.761322 0)
(-0.0435153 -0.751419 0)
(-0.0433573 -0.741403 0)
(-0.0427826 -0.731344 0)
(-0.0417423 -0.721339 0)
(-0.0401811 -0.711508 0)
(-0.038039 -0.702 0)
(-0.035253 -0.692983 0)
(-0.0317586 -0.684652 0)
(-0.0274909 -0.677217 0)
(-0.0223868 -0.670908 0)
(-0.016386 -0.66597 0)
(-0.00943273 -0.662658 0)
(-0.00147673 -0.661239 0)
(0.00752523 -0.661989 0)
(0.0176099 -0.665186 0)
(0.0288119 -0.67111 0)
(0.0411648 -0.68002 0)
(0.0547039 -0.692133 0)
(0.069474 -0.70758 0)
(0.0855409 -0.726346 0)
(0.103005 -0.748186 0)
(0.122015 -0.77252 0)
(0.14278 -0.798311 0)
(0.165575 -0.823923 0)
(0.190735 -0.846978 0)
(0.218625 -0.864222 0)
(0.249588 -0.871425 0)
(0.283825 -0.863393 0)
(0.321271 -0.834212 0)
(-0.00310059 -0.831141 0)
(-0.00881214 -0.860229 0)
(-0.014379 -0.860879 0)
(-0.019729 -0.856698 0)
(-0.0248254 -0.850876 0)
(-0.0295993 -0.844223 0)
(-0.0340443 -0.837046 0)
(-0.0381663 -0.829491 0)
(-0.0419726 -0.821638 0)
(-0.0454701 -0.813529 0)
(-0.0486634 -0.805187 0)
(-0.0515543 -0.796623 0)
(-0.0541395 -0.787842 0)
(-0.0564103 -0.778853 0)
(-0.0583519 -0.769669 0)
(-0.0599427 -0.760315 0)
(-0.0611544 -0.75083 0)
(-0.0619524 -0.741273 0)
(-0.0622962 -0.731722 0)
(-0.0621402 -0.72228 0)
(-0.0614349 -0.713072 0)
(-0.0601284 -0.704249 0)
(-0.0581682 -0.695982 0)
(-0.055503 -0.688464 0)
(-0.0520838 -0.681904 0)
(-0.0478659 -0.676528 0)
(-0.0428104 -0.672572 0)
(-0.0368857 -0.670285 0)
(-0.0300688 -0.669926 0)
(-0.022346 -0.671759 0)
(-0.0137132 -0.676058 0)
(-0.00417621 -0.683096 0)
(0.00625175 -0.69313 0)
(0.0175535 -0.706385 0)
(0.0297202 -0.723008 0)
(0.0427635 -0.743016 0)
(0.0567295 -0.766213 0)
(0.0717192 -0.792083 0)
(0.0879107 -0.819667 0)
(0.105578 -0.847418 0)
(0.125099 -0.873042 0)
(0.146953 -0.893334 0)
(0.171693 -0.904045 0)
(0.199861 -0.899822 0)
(0.231879 -0.874385 0)
(-0.00344371 -0.824483 0)
(-0.00991303 -0.853307 0)
(-0.0162758 -0.854188 0)
(-0.0224829 -0.850325 0)
(-0.0284906 -0.844843 0)
(-0.0342157 -0.838537 0)
(-0.0396431 -0.831706 0)
(-0.0447713 -0.824496 0)
(-0.0495997 -0.816983 0)
(-0.0541274 -0.809213 0)
(-0.0583516 -0.80121 0)
(-0.0622668 -0.79299 0)
(-0.0658636 -0.784564 0)
(-0.0691276 -0.775945 0)
(-0.0720398 -0.767154 0)
(-0.0745754 -0.758222 0)
(-0.0767049 -0.749194 0)
(-0.0783938 -0.740135 0)
(-0.0796039 -0.73113 0)
(-0.0802937 -0.722282 0)
(-0.0804202 -0.713722 0)
(-0.0799405 -0.705599 0)
(-0.0788133 -0.698083 0)
(-0.0770005 -0.691364 0)
(-0.0744693 -0.685646 0)
(-0.0711935 -0.681147 0)
(-0.0671551 -0.678095 0)
(-0.0623462 -0.676727 0)
(-0.0567701 -0.677289 0)
(-0.0504425 -0.680033 0)
(-0.0433928 -0.685219 0)
(-0.0356637 -0.693109 0)
(-0.0273104 -0.703955 0)
(-0.0183955 -0.717982 0)
(-0.00898023 -0.735355 0)
(0.00088852 -0.756118 0)
(0.0111983 -0.780123 0)
(0.021996 -0.806932 0)
(0.0334203 -0.835689 0)
(0.0457304 -0.864979 0)
(0.0593313 -0.892657 0)
(0.0747959 -0.915668 0)
(0.0928717 -0.929872 0)
(0.114438 -0.929928 0)
(0.140436 -0.909375 0)
(-0.00370974 -0.817062 0)
(-0.010797 -0.845531 0)
(-0.0178164 -0.846576 0)
(-0.0247409 -0.842977 0)
(-0.0315205 -0.83779 0)
(-0.0380593 -0.831793 0)
(-0.0443339 -0.825281 0)
(-0.0503355 -0.818394 0)
(-0.0560565 -0.811209 0)
(-0.0614887 -0.803774 0)
(-0.0666227 -0.796114 0)
(-0.0714468 -0.788248 0)
(-0.0759461 -0.780193 0)
(-0.0801019 -0.771967 0)
(-0.0838917 -0.763594 0)
(-0.0872892 -0.755112 0)
(-0.0902641 -0.74657 0)
(-0.0927834 -0.738036 0)
(-0.0948118 -0.729598 0)
(-0.096313 -0.721362 0)
(-0.0972511 -0.713457 0)
(-0.0975924 -0.706031 0)
(-0.0973069 -0.69925 0)
(-0.09637 -0.693298 0)
(-0.0947646 -0.688371 0)
(-0.0924823 -0.684677 0)
(-0.0895253 -0.682432 0)
(-0.0859079 -0.681859 0)
(-0.0816581 -0.683188 0)
(-0.076819 -0.686655 0)
(-0.0714506 -0.692502 0)
(-0.0656304 -0.700974 0)
(-0.0594521 -0.712314 0)
(-0.0530225 -0.726741 0)
(-0.0464529 -0.744427 0)
(-0.0398443 -0.765443 0)
(-0.033266 -0.789694 0)
(-0.0267259 -0.816824 0)
(-0.0201354 -0.846103 0)
(-0.0132684 -0.87628 0)
(-0.00571991 -0.90542 0)
(0.00314049 -0.930711 0)
(0.0142109 -0.948259 0)
(0.028659 -0.952925 0)
(0.0479121 -0.938305 0)
(-0.0039103 -0.809015 0)
(-0.011489 -0.83704 0)
(-0.0190357 -0.838184 0)
(-0.0265462 -0.834792 0)
(-0.0339659 -0.829852 0)
(-0.0411874 -0.824125 0)
(-0.04818 -0.817898 0)
(-0.054928 -0.81131 0)
(-0.0614174 -0.804438 0)
(-0.0676336 -0.797328 0)
(-0.0735614 -0.790008 0)
(-0.0791838 -0.782502 0)
(-0.0844814 -0.774827 0)
(-0.0894323 -0.767006 0)
(-0.0940117 -0.759067 0)
(-0.0981923 -0.751051 0)
(-0.101945 -0.743011 0)
(-0.105238 -0.735015 0)
(-0.10804 -0.727153 0)
(-0.110321 -0.719531 0)
(-0.112052 -0.712275 0)
(-0.113209 -0.705527 0)
(-0.113773 -0.699449 0)
(-0.113733 -0.694216 0)
(-0.113086 -0.690014 0)
(-0.111841 -0.687038 0)
(-0.110018 -0.68549 0)
(-0.107652 -0.685576 0)
(-0.104793 -0.687508 0)
(-0.101509 -0.691501 0)
(-0.0978875 -0.697778 0)
(-0.0940353 -0.706562 0)
(-0.0900811 -0.718079 0)
(-0.0861706 -0.732539 0)
(-0.0824597 -0.750114 0)
(-0.0790999 -0.770896 0)
(-0.0762162 -0.794839 0)
(-0.0738762 -0.821672 0)
(-0.0720511 -0.850799 0)
(-0.0705669 -0.881159 0)
(-0.0690513 -0.911075 0)
(-0.0668646 -0.938057 0)
(-0.0630263 -0.95859 0)
(-0.0561642 -0.967921 0)
(-0.0444567 -0.959955 0)
(-0.004055 -0.800461 0)
(-0.0120106 -0.827963 0)
(-0.0199671 -0.829142 0)
(-0.0279425 -0.825901 0)
(-0.0358792 -0.82116 0)
(-0.0436606 -0.81566 0)
(-0.0512493 -0.809684 0)
(-0.0586237 -0.803368 0)
(-0.0657639 -0.796787 0)
(-0.0726499 -0.789989 0)
(-0.0792614 -0.783003 0)
(-0.0855771 -0.775852 0)
(-0.0915743 -0.768559 0)
(-0.0972286 -0.761147 0)
(-0.102514 -0.753649 0)
(-0.107404 -0.746104 0)
(-0.111869 -0.738569 0)
(-0.115882 -0.731113 0)
(-0.119416 -0.723822 0)
(-0.122447 -0.716801 0)
(-0.124952 -0.71017 0)
(-0.126918 -0.704069 0)
(-0.128336 -0.698647 0)
(-0.129207 -0.694072 0)
(-0.129543 -0.690515 0)
(-0.129367 -0.688159 0)
(-0.128715 -0.687188 0)
(-0.127642 -0.687791 0)
(-0.126216 -0.690158 0)
(-0.124526 -0.694482 0)
(-0.122682 -0.70096 0)
(-0.120816 -0.709794 0)
(-0.119085 -0.721187 0)
(-0.117667 -0.735332 0)
(-0.116757 -0.752396 0)
(-0.116549 -0.772485 0)
(-0.117221 -0.795593 0)
(-0.118899 -0.821533 0)
(-0.12162 -0.849841 0)
(-0.125279 -0.879659 0)
(-0.129566 -0.909592 0)
(-0.133889 -0.937527 0)
(-0.137269 -0.960421 0)
(-0.138261 -0.974068 0)
(-0.13482 -0.972917 0)
(-0.00415197 -0.791511 0)
(-0.0123813 -0.818421 0)
(-0.0206422 -0.819572 0)
(-0.0289722 -0.816427 0)
(-0.0373132 -0.811835 0)
(-0.0455411 -0.80652 0)
(-0.0536127 -0.800758 0)
(-0.0615014 -0.794684 0)
(-0.0691823 -0.788371 0)
(-0.0766307 -0.781866 0)
(-0.0838223 -0.7752 0)
(-0.0907324 -0.768397 0)
(-0.0973361 -0.761479 0)
(-0.103607 -0.754473 0)
(-0.10952 -0.74741 0)
(-0.115048 -0.740333 0)
(-0.120165 -0.733295 0)
(-0.124847 -0.726366 0)
(-0.129071 -0.719628 0)
(-0.132819 -0.713183 0)
(-0.136078 -0.707144 0)
(-0.138842 -0.701642 0)
(-0.141112 -0.696819 0)
(-0.142901 -0.692827 0)
(-0.144232 -0.689828 0)
(-0.145143 -0.687985 0)
(-0.145685 -0.687467 0)
(-0.145925 -0.688441 0)
(-0.145949 -0.691076 0)
(-0.145862 -0.69554 0)
(-0.145792 -0.702004 0)
(-0.145891 -0.710643 0)
(-0.146338 -0.721634 0)
(-0.147335 -0.735148 0)
(-0.149107 -0.75134 0)
(-0.151885 -0.770321 0)
(-0.155889 -0.792118 0)
(-0.161303 -0.816614 0)
(-0.168231 -0.843471 0)
(-0.176646 -0.872031 0)
(-0.186328 -0.901184 0)
(-0.196774 -0.929215 0)
(-0.207091 -0.953599 0)
(-0.215882 -0.970781 0)
(-0.221067 -0.975938 0)
(-0.00420843 -0.78226 0)
(-0.0126188 -0.808519 0)
(-0.0210911 -0.809586 0)
(-0.0296775 -0.806485 0)
(-0.0383209 -0.801993 0)
(-0.0468919 -0.796819 0)
(-0.0553425 -0.791234 0)
(-0.063642 -0.785369 0)
(-0.0717613 -0.779297 0)
(-0.0796722 -0.773064 0)
(-0.0873471 -0.7667 0)
(-0.0947592 -0.760229 0)
(-0.101882 -0.753674 0)
(-0.108688 -0.747061 0)
(-0.115154 -0.740421 0)
(-0.121253 -0.733796 0)
(-0.126962 -0.727238 0)
(-0.132261 -0.720813 0)
(-0.137133 -0.7146 0)
(-0.141566 -0.708693 0)
(-0.145553 -0.7032 0)
(-0.149097 -0.698241 0)
(-0.15221 -0.693947 0)
(-0.154912 -0.690458 0)
(-0.157239 -0.68792 0)
(-0.159239 -0.68648 0)
(-0.160976 -0.686287 0)
(-0.162528 -0.687489 0)
(-0.163994 -0.69023 0)
(-0.165491 -0.694654 0)
(-0.167161 -0.700905 0)
(-0.169169 -0.709127 0)
(-0.171708 -0.719468 0)
(-0.175 -0.732076 0)
(-0.179287 -0.747084 0)
(-0.184828 -0.764601 0)
(-0.19188 -0.784673 0)
(-0.200673 -0.807242 0)
(-0.211377 -0.83208 0)
(-0.22405 -0.85871 0)
(-0.238574 -0.886295 0)
(-0.25457 -0.913504 0)
(-0.271293 -0.938343 0)
(-0.287491 -0.957944 0)
(-0.301215 -0.968324 0)
(-0.00423125 -0.772796 0)
(-0.0127405 -0.798353 0)
(-0.0213433 -0.799285 0)
(-0.0300994 -0.796176 0)
(-0.0389546 -0.791738 0)
(-0.0477756 -0.786662 0)
(-0.056511 -0.781216 0)
(-0.0651267 -0.775528 0)
(-0.0735905 -0.769668 0)
(-0.0818714 -0.763681 0)
(-0.0899399 -0.757597 0)
(-0.0977675 -0.751438 0)
(-0.105327 -0.745227 0)
(-0.112592 -0.738987 0)
(-0.119538 -0.73275 0)
(-0.126143 -0.726554 0)
(-0.132387 -0.720448 0)
(-0.138252 -0.714495 0)
(-0.143728 -0.708767 0)
(-0.148808 -0.703353 0)
(-0.153493 -0.69835 0)
(-0.157793 -0.693868 0)
(-0.161727 -0.690027 0)
(-0.165327 -0.686953 0)
(-0.168635 -0.684776 0)
(-0.17171 -0.683626 0)
(-0.174623 -0.683633 0)
(-0.177464 -0.684923 0)
(-0.180339 -0.687619 0)
(-0.183375 -0.691837 0)
(-0.186721 -0.697694 0)
(-0.19055 -0.705305 0)
(-0.195064 -0.714787 0)
(-0.200493 -0.726256 0)
(-0.207091 -0.739823 0)
(-0.215134 -0.755585 0)
(-0.224904 -0.773595 0)
(-0.236671 -0.793836 0)
(-0.250662 -0.81617 0)
(-0.267014 -0.840273 0)
(-0.285723 -0.865549 0)
(-0.306554 -0.891021 0)
(-0.328947 -0.915196 0)
(-0.35188 -0.935879 0)
(-0.373664 -0.94997 0)
(-0.00422722 -0.763194 0)
(-0.0127637 -0.788008 0)
(-0.0214279 -0.788757 0)
(-0.0302786 -0.785595 0)
(-0.0392658 -0.781165 0)
(-0.0482541 -0.776148 0)
(-0.0571895 -0.770803 0)
(-0.0660357 -0.765258 0)
(-0.0747582 -0.75958 0)
(-0.0833244 -0.753812 0)
(-0.0917034 -0.747982 0)
(-0.0998661 -0.74211 0)
(-0.107785 -0.736217 0)
(-0.115436 -0.730326 0)
(-0.122795 -0.724463 0)
(-0.129843 -0.718665 0)
(-0.136563 -0.712977 0)
(-0.142943 -0.707455 0)
(-0.148975 -0.702166 0)
(-0.154661 -0.697189 0)
(-0.160007 -0.692613 0)
(-0.165029 -0.688537 0)
(-0.169754 -0.685069 0)
(-0.174221 -0.682318 0)
(-0.17848 -0.6804 0)
(-0.182597 -0.679429 0)
(-0.18665 -0.679514 0)
(-0.190735 -0.680762 0)
(-0.194964 -0.683271 0)
(-0.199468 -0.687134 0)
(-0.204399 -0.692441 0)
(-0.209935 -0.699276 0)
(-0.216279 -0.707723 0)
(-0.223661 -0.71787 0)
(-0.23234 -0.729798 0)
(-0.242598 -0.743581 0)
(-0.254731 -0.759273 0)
(-0.269037 -0.776878 0)
(-0.28579 -0.796321 0)
(-0.305199 -0.817398 0)
(-0.327368 -0.839711 0)
(-0.352215 -0.862586 0)
(-0.379393 -0.884965 0)
(-0.408164 -0.905269 0)
(-0.437197 -0.921226 0)
(-0.00420316 -0.75352 0)
(-0.0127055 -0.777557 0)
(-0.0213732 -0.77808 0)
(-0.0302542 -0.774823 0)
(-0.0393042 -0.770362 0)
(-0.048387 -0.765363 0)
(-0.0574471 -0.760085 0)
(-0.0664467 -0.754649 0)
(-0.0753503 -0.749122 0)
(-0.0841243 -0.743543 0)
(-0.0927373 -0.737938 0)
(-0.10116 -0.732326 0)
(-0.109367 -0.726723 0)
(-0.117335 -0.721148 0)
(-0.125041 -0.715627 0)
(-0.13247 -0.71019 0)
(-0.139609 -0.704878 0)
(-0.146449 -0.69974 0)
(-0.152988 -0.694836 0)
(-0.159232 -0.690237 0)
(-0.165194 -0.686021 0)
(-0.170895 -0.682276 0)
(-0.17637 -0.679095 0)
(-0.181662 -0.676577 0)
(-0.186827 -0.674818 0)
(-0.191936 -0.673916 0)
(-0.197073 -0.673964 0)
(-0.202336 -0.675047 0)
(-0.207841 -0.677243 0)
(-0.213719 -0.680621 0)
(-0.220124 -0.685243 0)
(-0.227231 -0.691167 0)
(-0.235237 -0.698445 0)
(-0.24437 -0.707131 0)
(-0.254884 -0.717278 0)
(-0.267055 -0.728932 0)
(-0.281186 -0.742132 0)
(-0.297588 -0.756887 0)
(-0.316567 -0.773161 0)
(-0.338392 -0.790832 0)
(-0.363261 -0.80965 0)
(-0.391238 -0.829173 0)
(-0.422193 -0.848694 0)
(-0.455688 -0.867139 0)
(-0.49082 -0.882937 0)
(-0.00416576 -0.743826 0)
(-0.0125833 -0.767061 0)
(-0.0212069 -0.767322 0)
(-0.0300641 -0.763931 0)
(-0.0391174 -0.759402 0)
(-0.0482312 -0.754389 0)
(-0.0573494 -0.749143 0)
(-0.0664337 -0.743784 0)
(-0.0754483 -0.738377 0)
(-0.0843596 -0.732957 0)
(-0.0931365 -0.727548 0)
(-0.101751 -0.722163 0)
(-0.110178 -0.716817 0)
(-0.118396 -0.711525 0)
(-0.126387 -0.706308 0)
(-0.134136 -0.701191 0)
(-0.141635 -0.696208 0)
(-0.148879 -0.691403 0)
(-0.155871 -0.686828 0)
(-0.162621 -0.682543 0)
(-0.169148 -0.678616 0)
(-0.175477 -0.675124 0)
(-0.181648 -0.672148 0)
(-0.187708 -0.669769 0)
(-0.19372 -0.668073 0)
(-0.199755 -0.667138 0)
(-0.205902 -0.667041 0)
(-0.212259 -0.667849 0)
(-0.218943 -0.669619 0)
(-0.226084 -0.672399 0)
(-0.233831 -0.676228 0)
(-0.242352 -0.681135 0)
(-0.25184 -0.687144 0)
(-0.262509 -0.694277 0)
(-0.2746 -0.702555 0)
(-0.288382 -0.711994 0)
(-0.304147 -0.72261 0)
(-0.322209 -0.734402 0)
(-0.342888 -0.747344 0)
(-0.366495 -0.761362 0)
(-0.393298 -0.776301 0)
(-0.423485 -0.79188 0)
(-0.45712 -0.807643 0)
(-0.494044 -0.822889 0)
(-0.533792 -0.836575 0)
(-0.00412128 -0.734152 0)
(-0.0124135 -0.756571 0)
(-0.0209548 -0.75654 0)
(-0.0297434 -0.752983 0)
(-0.0387496 -0.748355 0)
(-0.0478395 -0.743294 0)
(-0.0569574 -0.73805 0)
(-0.0660655 -0.732739 0)
(-0.0751284 -0.727422 0)
(-0.0841131 -0.722131 0)
(-0.0929896 -0.716885 0)
(-0.101731 -0.711695 0)
(-0.110315 -0.706572 0)
(-0.118721 -0.701526 0)
(-0.126934 -0.696572 0)
(-0.134944 -0.69173 0)
(-0.142744 -0.687028 0)
(-0.150335 -0.682502 0)
(-0.157722 -0.678196 0)
(-0.164921 -0.674159 0)
(-0.171953 -0.670452 0)
(-0.17885 -0.667136 0)
(-0.185653 -0.664281 0)
(-0.192415 -0.661956 0)
(-0.199199 -0.660229 0)
(-0.206081 -0.659167 0)
(-0.213148 -0.658827 0)
(-0.220499 -0.659261 0)
(-0.228248 -0.660508 0)
(-0.236522 -0.662598 0)
(-0.245463 -0.665545 0)
(-0.255232 -0.669357 0)
(-0.266007 -0.674032 0)
(-0.277989 -0.67956 0)
(-0.291402 -0.685931 0)
(-0.306495 -0.693131 0)
(-0.323544 -0.701145 0)
(-0.342849 -0.709952 0)
(-0.364731 -0.719519 0)
(-0.389516 -0.729783 0)
(-0.417515 -0.740638 0)
(-0.449003 -0.751897 0)
(-0.484187 -0.763261 0)
(-0.52314 -0.774267 0)
(-0.565753 -0.78423 0)
(-0.00407522 -0.724529 0)
(-0.0122112 -0.746127 0)
(-0.0206405 -0.74578 0)
(-0.0293239 -0.742033 0)
(-0.0382406 -0.737278 0)
(-0.0472596 -0.732144 0)
(-0.0563266 -0.726874 0)
(-0.0654048 -0.721583 0)
(-0.0744599 -0.716326 0)
(-0.0834603 -0.711134 0)
(-0.0923776 -0.706021 0)
(-0.101187 -0.700994 0)
(-0.109868 -0.696058 0)
(-0.118403 -0.691219 0)
(-0.126779 -0.686485 0)
(-0.134989 -0.681873 0)
(-0.143031 -0.677402 0)
(-0.150908 -0.6731 0)
(-0.15863 -0.669002 0)
(-0.166214 -0.66515 0)
(-0.173687 -0.661591 0)
(-0.181084 -0.658378 0)
(-0.188448 -0.655566 0)
(-0.195833 -0.653212 0)
(-0.203305 -0.651371 0)
(-0.21094 -0.650093 0)
(-0.218824 -0.649424 0)
(-0.227054 -0.649399 0)
(-0.23574 -0.650043 0)
(-0.245005 -0.651366 0)
(-0.254981 -0.653367 0)
(-0.265818 -0.656031 0)
(-0.277682 -0.659333 0)
(-0.290753 -0.663239 0)
(-0.305235 -0.667709 0)
(-0.321351 -0.672699 0)
(-0.339353 -0.678161 0)
(-0.359519 -0.684048 0)
(-0.382149 -0.690302 0)
(-0.407562 -0.696855 0)
(-0.436083 -0.703609 0)
(-0.468026 -0.710419 0)
(-0.503686 -0.717064 0)
(-0.543285 -0.723217 0)
(-0.586941 -0.728396 0)
(-0.00403206 -0.714975 0)
(-0.0119895 -0.73576 0)
(-0.0202844 -0.735082 0)
(-0.0288333 -0.731125 0)
(-0.0376252 -0.726223 0)
(-0.0465335 -0.720993 0)
(-0.0555058 -0.715675 0)
(-0.0645069 -0.710378 0)
(-0.0735045 -0.705156 0)
(-0.0824687 -0.700035 0)
(-0.0913732 -0.695025 0)
(-0.100195 -0.690127 0)
(-0.108917 -0.685343 0)
(-0.117523 -0.680671 0)
(-0.126005 -0.676117 0)
(-0.134357 -0.671687 0)
(-0.14258 -0.667397 0)
(-0.150682 -0.663264 0)
(-0.158674 -0.659317 0)
(-0.166579 -0.655586 0)
(-0.174423 -0.652109 0)
(-0.182245 -0.648928 0)
(-0.190089 -0.646087 0)
(-0.198012 -0.643628 0)
(-0.206078 -0.641595 0)
(-0.214362 -0.640027 0)
(-0.222949 -0.638954 0)
(-0.231933 -0.638399 0)
(-0.241418 -0.638372 0)
(-0.25152 -0.638871 0)
(-0.262364 -0.639879 0)
(-0.274085 -0.641365 0)
(-0.286833 -0.643284 0)
(-0.30077 -0.645581 0)
(-0.316074 -0.64819 0)
(-0.332942 -0.65104 0)
(-0.351594 -0.654055 0)
(-0.372274 -0.657155 0)
(-0.395253 -0.660256 0)
(-0.420821 -0.663265 0)
(-0.449285 -0.666074 0)
(-0.48096 -0.668541 0)
(-0.516165 -0.670477 0)
(-0.555191 -0.671615 0)
(-0.598267 -0.671577 0)
(-0.00399497 -0.7055 0)
(-0.0117588 -0.725491 0)
(-0.0199029 -0.724476 0)
(-0.0282941 -0.720298 0)
(-0.0369326 -0.715234 0)
(-0.0456965 -0.709891 0)
(-0.0545364 -0.704505 0)
(-0.0634195 -0.699181 0)
(-0.0723154 -0.693971 0)
(-0.0811968 -0.688895 0)
(-0.0900395 -0.683958 0)
(-0.0988236 -0.679159 0)
(-0.107533 -0.674492 0)
(-0.116157 -0.669951 0)
(-0.124687 -0.665534 0)
(-0.133123 -0.661242 0)
(-0.141468 -0.657083 0)
(-0.149731 -0.653067 0)
(-0.157929 -0.649214 0)
(-0.166083 -0.645545 0)
(-0.174225 -0.642089 0)
(-0.182393 -0.638875 0)
(-0.190632 -0.635937 0)
(-0.198999 -0.633307 0)
(-0.207558 -0.631017 0)
(-0.216381 -0.629092 0)
(-0.22555 -0.627553 0)
(-0.235155 -0.62641 0)
(-0.245294 -0.625663 0)
(-0.256074 -0.625297 0)
(-0.267611 -0.625284 0)
(-0.280028 -0.625581 0)
(-0.293457 -0.626127 0)
(-0.30804 -0.626851 0)
(-0.323931 -0.627667 0)
(-0.341297 -0.628481 0)
(-0.360323 -0.629193 0)
(-0.381215 -0.629693 0)
(-0.404202 -0.62987 0)
(-0.429535 -0.629603 0)
(-0.45748 -0.628761 0)
(-0.488317 -0.62719 0)
(-0.522345 -0.624703 0)
(-0.559854 -0.621054 0)
(-0.601089 -0.615915 0)
(-0.00396571 -0.696107 0)
(-0.0115264 -0.715336 0)
(-0.0195081 -0.713989 0)
(-0.0277238 -0.709583 0)
(-0.0361853 -0.704349 0)
(-0.0447768 -0.698881 0)
(-0.0534523 -0.693412 0)
(-0.0621815 -0.688044 0)
(-0.0709369 -0.682825 0)
(-0.0796934 -0.677771 0)
(-0.0884297 -0.672883 0)
(-0.0971285 -0.668152 0)
(-0.105777 -0.663569 0)
(-0.114365 -0.659123 0)
(-0.122891 -0.654804 0)
(-0.131353 -0.650608 0)
(-0.13976 -0.646533 0)
(-0.148121 -0.642585 0)
(-0.156457 -0.638773 0)
(-0.16479 -0.635112 0)
(-0.173153 -0.631618 0)
(-0.181585 -0.628314 0)
(-0.19013 -0.625221 0)
(-0.198845 -0.622362 0)
(-0.207791 -0.619757 0)
(-0.217037 -0.617423 0)
(-0.226662 -0.615368 0)
(-0.236751 -0.613594 0)
(-0.247394 -0.612091 0)
(-0.258691 -0.610836 0)
(-0.270747 -0.609792 0)
(-0.283671 -0.608904 0)
(-0.29758 -0.608105 0)
(-0.312597 -0.607311 0)
(-0.32885 -0.606421 0)
(-0.346477 -0.605326 0)
(-0.365629 -0.603905 0)
(-0.386471 -0.602027 0)
(-0.409188 -0.599556 0)
(-0.43398 -0.596347 0)
(-0.46106 -0.592243 0)
(-0.490656 -0.587075 0)
(-0.523011 -0.580646 0)
(-0.55837 -0.572716 0)
(-0.596944 -0.562985 0)
(-0.00394448 -0.686795 0)
(-0.0112964 -0.705305 0)
(-0.0191076 -0.703638 0)
(-0.0271338 -0.699008 0)
(-0.0353995 -0.6936 0)
(-0.0437952 -0.688001 0)
(-0.052279 -0.682438 0)
(-0.0608235 -0.677014 0)
(-0.0694039 -0.671769 0)
(-0.077998 -0.666717 0)
(-0.0865872 -0.661854 0)
(-0.0951571 -0.657166 0)
(-0.103697 -0.652638 0)
(-0.112202 -0.648253 0)
(-0.120669 -0.643996 0)
(-0.129103 -0.639855 0)
(-0.137511 -0.635823 0)
(-0.145909 -0.631897 0)
(-0.154315 -0.628079 0)
(-0.162756 -0.624374 0)
(-0.171262 -0.620793 0)
(-0.179873 -0.617347 0)
(-0.188635 -0.61405 0)
(-0.197598 -0.610913 0)
(-0.206824 -0.607948 0)
(-0.216377 -0.605162 0)
(-0.226332 -0.602556 0)
(-0.236766 -0.600122 0)
(-0.247765 -0.597842 0)
(-0.259417 -0.595688 0)
(-0.271818 -0.593616 0)
(-0.285065 -0.591566 0)
(-0.29926 -0.589464 0)
(-0.314506 -0.587219 0)
(-0.330909 -0.584724 0)
(-0.34858 -0.581857 0)
(-0.367636 -0.578487 0)
(-0.388205 -0.574468 0)
(-0.410425 -0.569645 0)
(-0.434444 -0.563856 0)
(-0.460421 -0.556927 0)
(-0.488519 -0.548672 0)
(-0.518913 -0.538889 0)
(-0.55178 -0.527339 0)
(-0.587274 -0.513746 0)
(-0.0039299 -0.677562 0)
(-0.0110692 -0.695406 0)
(-0.0187039 -0.69344 0)
(-0.02653 -0.688595 0)
(-0.0345845 -0.683017 0)
(-0.0427653 -0.677284 0)
(-0.0510343 -0.671622 0)
(-0.0593673 -0.666131 0)
(-0.0677424 -0.660849 0)
(-0.0761403 -0.655783 0)
(-0.0845453 -0.650926 0)
(-0.0929457 -0.646259 0)
(-0.101334 -0.64176 0)
(-0.109707 -0.637406 0)
(-0.118066 -0.633178 0)
(-0.126417 -0.629056 0)
(-0.13477 -0.625027 0)
(-0.143142 -0.621082 0)
(-0.151553 -0.617215 0)
(-0.160028 -0.613425 0)
(-0.168601 -0.609712 0)
(-0.177308 -0.606082 0)
(-0.186195 -0.602537 0)
(-0.195309 -0.599084 0)
(-0.204708 -0.595725 0)
(-0.214454 -0.592457 0)
(-0.224612 -0.589276 0)
(-0.235257 -0.586165 0)
(-0.246465 -0.583103 0)
(-0.258316 -0.580055 0)
(-0.270895 -0.576973 0)
(-0.284288 -0.573796 0)
(-0.298582 -0.570445 0)
(-0.313864 -0.566827 0)
(-0.33022 -0.562833 0)
(-0.347735 -0.558339 0)
(-0.366499 -0.553205 0)
(-0.386602 -0.54728 0)
(-0.408141 -0.540402 0)
(-0.431218 -0.532396 0)
(-0.455935 -0.52308 0)
(-0.482397 -0.512261 0)
(-0.510706 -0.499733 0)
(-0.540969 -0.485269 0)
(-0.573276 -0.468617 0)
(-0.00391919 -0.668406 0)
(-0.0108418 -0.685645 0)
(-0.0182954 -0.683409 0)
(-0.0259126 -0.678364 0)
(-0.0337439 -0.672622 0)
(-0.0416938 -0.666758 0)
(-0.0497285 -0.660997 0)
(-0.0578268 -0.655435 0)
(-0.0659698 -0.650107 0)
(-0.0741409 -0.645017 0)
(-0.0823276 -0.64015 0)
(-0.090521 -0.635485 0)
(-0.0987164 -0.630992 0)
(-0.106913 -0.626645 0)
(-0.115116 -0.622416 0)
(-0.123332 -0.618282 0)
(-0.131574 -0.614223 0)
(-0.139859 -0.610223 0)
(-0.148209 -0.60627 0)
(-0.15665 -0.602356 0)
(-0.165214 -0.598475 0)
(-0.173936 -0.594624 0)
(-0.182858 -0.590801 0)
(-0.192028 -0.587002 0)
(-0.201498 -0.583222 0)
(-0.211323 -0.579455 0)
(-0.221566 -0.575686 0)
(-0.232292 -0.571897 0)
(-0.24357 -0.568059 0)
(-0.255472 -0.564135 0)
(-0.268071 -0.560074 0)
(-0.281444 -0.555815 0)
(-0.295663 -0.55128 0)
(-0.310801 -0.546376 0)
(-0.326926 -0.540995 0)
(-0.344105 -0.535015 0)
(-0.362399 -0.528299 0)
(-0.381871 -0.520694 0)
(-0.402581 -0.512038 0)
(-0.42459 -0.502155 0)
(-0.447953 -0.490863 0)
(-0.472721 -0.47797 0)
(-0.498935 -0.463275 0)
(-0.526635 -0.446567 0)
(-0.555856 -0.42762 0)
(-0.0039086 -0.659333 0)
(-0.0106088 -0.676029 0)
(-0.0178765 -0.673556 0)
(-0.0252777 -0.668329 0)
(-0.0328755 -0.662436 0)
(-0.0405814 -0.65645 0)
(-0.0483651 -0.650594 0)
(-0.0562085 -0.644961 0)
(-0.0640953 -0.639584 0)
(-0.072012 -0.634462 0)
(-0.0799488 -0.629576 0)
(-0.0879 -0.624897 0)
(-0.0958639 -0.620394 0)
(-0.103843 -0.616031 0)
(-0.111843 -0.611778 0)
(-0.119874 -0.607604 0)
(-0.127951 -0.603486 0)
(-0.136092 -0.5994 0)
(-0.144319 -0.59533 0)
(-0.152658 -0.591261 0)
(-0.161139 -0.587181 0)
(-0.169797 -0.583082 0)
(-0.178672 -0.578954 0)
(-0.187806 -0.574789 0)
(-0.197247 -0.570575 0)
(-0.207047 -0.566299 0)
(-0.217261 -0.561942 0)
(-0.227947 -0.557482 0)
(-0.239166 -0.552887 0)
(-0.250981 -0.548116 0)
(-0.263456 -0.54312 0)
(-0.276655 -0.537836 0)
(-0.290641 -0.53219 0)
(-0.305472 -0.526092 0)
(-0.321203 -0.51944 0)
(-0.337882 -0.512115 0)
(-0.355552 -0.503988 0)
(-0.37425 -0.494912 0)
(-0.394008 -0.484731 0)
(-0.414854 -0.473277 0)
(-0.436805 -0.460373 0)
(-0.459869 -0.445837 0)
(-0.484039 -0.429481 0)
(-0.509306 -0.411112 0)
(-0.535648 -0.390536 0)
(-0.00389404 -0.650353 0)
(-0.0103631 -0.66657 0)
(-0.0174393 -0.663893 0)
(-0.0246176 -0.658508 0)
(-0.0319733 -0.65248 0)
(-0.0394238 -0.646383 0)
(-0.0469421 -0.640439 0)
(-0.0545125 -0.634742 0)
(-0.0621212 -0.629317 0)
(-0.0697578 -0.624162 0)
(-0.0774155 -0.61925 0)
(-0.0850916 -0.614549 0)
(-0.0927874 -0.61002 0)
(-0.100508 -0.605625 0)
(-0.108262 -0.601327 0)
(-0.116062 -0.597092 0)
(-0.123923 -0.592889 0)
(-0.131865 -0.588692 0)
(-0.139909 -0.584479 0)
(-0.148081 -0.58023 0)
(-0.156412 -0.575928 0)
(-0.164932 -0.57156 0)
(-0.173679 -0.56711 0)
(-0.182691 -0.562566 0)
(-0.192013 -0.557911 0)
(-0.201689 -0.553127 0)
(-0.211769 -0.548192 0)
(-0.222304 -0.543079 0)
(-0.233347 -0.537754 0)
(-0.244951 -0.532178 0)
(-0.257172 -0.526298 0)
(-0.270063 -0.520056 0)
(-0.283675 -0.513379 0)
(-0.298057 -0.506185 0)
(-0.313249 -0.498376 0)
(-0.329287 -0.489845 0)
(-0.346198 -0.480468 0)
(-0.364 -0.470112 0)
(-0.382705 -0.458632 0)
(-0.402315 -0.445872 0)
(-0.422818 -0.431668 0)
(-0.444193 -0.415853 0)
(-0.466397 -0.398256 0)
(-0.489387 -0.378707 0)
(-0.513094 -0.35704 0)
(-0.00387175 -0.641484 0)
(-0.0100967 -0.657281 0)
(-0.0169744 -0.654435 0)
(-0.0239228 -0.648914 0)
(-0.0310284 -0.64277 0)
(-0.0382136 -0.636577 0)
(-0.0454534 -0.63056 0)
(-0.0527339 -0.624807 0)
(-0.0600442 -0.619343 0)
(-0.0673764 -0.614156 0)
(-0.0747271 -0.609218 0)
(-0.0820968 -0.604489 0)