/*--------------------------------*- C++ -*----------------------------------*\
| =========                 |                                                 |
| \\      /  F ield         | OpenFOAM: The Open Source CFD Toolbox           |
|  \\    /   O peration     | Version:  5.0                                   |
|   \\  /    A nd           | Web:      www.OpenFOAM.org                      |
|    \\/     M anipulation  |                                                 |
\*---------------------------------------------------------------------------*/
FoamFile
{
    version     2.0;
    format      ascii;
    class       surfaceScalarField;
    location    "0.5";
    object      alphaPhi10;
}
// * * * * * * * * * * * * * * * * * * * * * * * * * * * * * * * * * * * * * //

dimensions      [0 3 -1 0 0 0 0];

internalField   nonuniform List<scalar> 
3742
(
-9.26965e-21
7.26492e-21
-8.53351e-21
5.72205e-21
-6.97809e-21
3.96751e-21
-5.11393e-21
2.44155e-21
-3.39613e-21
1.34874e-21
-2.06949e-21
6.78238e-22
-1.17209e-21
3.15132e-22
-6.24482e-22
1.37219e-22
-3.16344e-22
5.66973e-23
-1.53721e-22
2.24444e-23
-7.20813e-23
8.4691e-24
-3.22808e-23
2.44094e-24
-1.11125e-23
-2.24013e-24
2.45704e-23
-2.59319e-23
1.97341e-22
-1.62586e-22
1.16801e-21
-9.39582e-22
6.7349e-21
-5.27934e-21
3.92215e-20
-2.99026e-20
2.34522e-19
-1.75735e-19
1.36925e-18
-1.01777e-18
7.24942e-18
-5.36813e-18
3.30901e-17
-2.43711e-17
1.28816e-16
-9.37431e-17
4.27077e-16
-3.08023e-16
-8.17487e-16
-8.94216e-30
2.59287e-28
-8.43621e-29
1.57453e-27
-5.87932e-28
7.6208e-27
-2.97394e-27
2.94823e-26
-1.3163e-26
1.05902e-25
-5.40981e-26
3.57476e-25
-1.96109e-25
1.06102e-24
-6.01162e-25
2.67624e-24
-1.57171e-24
5.83847e-24
-3.69066e-24
1.16649e-23
-8.38367e-24
2.31311e-23
-1.96597e-23
4.83031e-23
-4.79121e-23
1.05605e-22
-1.14563e-22
2.25209e-22
-2.51752e-22
4.36928e-22
-4.91163e-22
7.47499e-22
-8.39697e-22
1.11697e-21
-1.25178e-21
1.4513e-21
-1.62469e-21
1.63654e-21
-1.83575e-21
1.60001e-21
-1.80734e-21
1.35522e-21
-1.55438e-21
9.94846e-22
-1.17373e-21
6.34828e-22
-7.84613e-22
3.54555e-22
-4.69663e-22
1.75316e-22
-2.55302e-22
7.79703e-23
-1.2792e-22
3.17412e-23
-5.99236e-23
1.20282e-23
-2.65731e-23
4.30384e-24
-1.12626e-23
1.45856e-24
-4.53915e-24
3.95243e-25
-1.394e-24
-2.66667e-25
3.69518e-24
-3.57992e-24
2.96951e-23
-2.5576e-23
1.89793e-22
-1.61519e-22
1.14932e-21
-9.6395e-22
6.81065e-21
-5.5158e-21
4.18016e-20
-3.29151e-20
2.69771e-19
-2.10104e-19
1.71462e-18
-1.32598e-18
9.73837e-18
-7.55794e-18
4.66616e-17
-3.62941e-17
1.86398e-16
-1.44304e-16
6.24369e-16
-4.83036e-16
-1.28405e-15
-1.83673e-30
5.33697e-29
-1.69971e-29
3.17686e-28
-1.16828e-28
1.52987e-27
-6.00266e-28
6.0577e-27
-2.74052e-27
2.23919e-26
-1.14104e-26
7.59214e-26
-4.08816e-26
2.21204e-25
-1.22463e-25
5.42352e-25
-3.13259e-25
1.14934e-24
-7.26293e-25
2.24569e-24
-1.65693e-24
4.42064e-24
-3.95159e-24
9.24614e-24
-9.804e-24
2.04005e-23
-2.35933e-23
4.36532e-23
-5.13948e-23
8.38154e-23
-9.82797e-23
1.40281e-22
-1.63474e-22
2.03706e-22
-2.35549e-22
2.55471e-22
-2.93524e-22
2.76149e-22
-3.16091e-22
2.56982e-22
-2.93988e-22
2.05408e-22
-2.36284e-22
1.40736e-22
-1.64614e-22
8.26709e-23
-1.00101e-22
4.18282e-23
-5.37483e-23
1.84305e-23
-2.58889e-23
7.19913e-24
-1.13845e-23
2.54529e-24
-4.64794e-24
8.30889e-25
-1.7871e-24
2.53588e-25
-6.49096e-25
6.57949e-26
-1.8802e-25
-2.00799e-26
4.11395e-25
-3.6054e-25
3.45758e-24
-2.786e-24
2.2813e-23
-1.91662e-23
1.54124e-22
-1.2746e-22
1.00163e-21
-8.06693e-22
6.29157e-21
-4.98321e-21
4.02647e-20
-3.23944e-20
2.76936e-19
-2.28169e-19
1.92394e-18
-1.57774e-18
1.18257e-17
-9.81522e-18
6.00764e-17
-5.04698e-17
2.48802e-16
-2.09807e-16
8.51253e-16
-7.23687e-16
-1.94109e-15
-3.1782e-31
8.88521e-30
-2.8801e-30
5.19557e-29
-1.96069e-29
2.50574e-28
-1.02726e-28
1.01895e-27
-4.81492e-28
3.85389e-27
-2.01163e-27
1.30198e-26
-7.07597e-27
3.70291e-26
-2.06261e-26
8.77155e-26
-5.13462e-26
1.78629e-25
-1.16705e-25
3.35545e-25
-2.65069e-25
6.42031e-25
-6.35226e-25
1.30897e-24
-1.59604e-24
2.90699e-24
-3.86802e-24
6.30859e-24
-8.37013e-24
1.21142e-23
-1.57179e-23
1.99567e-23
-2.55032e-23
2.83447e-23
-3.56007e-23
3.44627e-23
-4.26797e-23
3.58032e-23
-4.38997e-23
3.17892e-23
-3.86588e-23
2.40394e-23
-2.90905e-23
1.54086e-23
-1.87111e-23
8.3426e-24
-1.03355e-23
3.81966e-24
-4.95742e-24
1.49294e-24
-2.10184e-24
5.0807e-25
-8.04291e-25
1.54341e-25
-2.83353e-25
4.27852e-26
-9.30623e-26
1.04509e-26
-2.59091e-26
-1.99846e-28
3.70637e-26
-2.87505e-26
2.92631e-25
-2.59e-25
1.94969e-24
-1.99843e-24
1.47756e-23
-1.48435e-23
1.06203e-22
-1.04473e-22
7.24718e-22
-6.96646e-22
4.8586e-21
-4.5199e-21
3.44943e-20
-3.08596e-20
2.65595e-19
-2.36879e-19
2.01408e-18
-1.79896e-18
1.3507e-17
-1.22622e-17
7.36046e-17
-6.81478e-17
3.19494e-16
-2.991e-16
1.12659e-15
-1.06662e-15
-2.92662e-15
-4.4403e-32
1.12132e-30
-3.93581e-31
6.45794e-30
-2.66324e-30
3.13707e-29
-1.42437e-29
1.31099e-28
-6.80377e-29
5.0382e-28
-2.82629e-28
1.68344e-27
-9.69938e-28
4.64283e-27
-2.73386e-27
1.05077e-26
-6.55224e-27
2.00935e-26
-1.43566e-26
3.48353e-26
-3.18016e-26
6.14645e-26
-7.4573e-26
1.11891e-25
-1.89383e-25
2.52165e-25
-4.67526e-25
5.81774e-25
-1.0164e-24
1.16321e-24
-1.88721e-24
1.91964e-24
-3.00855e-24
2.71813e-24
-4.08962e-24
3.2403e-24
-4.73236e-24
3.24843e-24
-4.66337e-24
2.75832e-24
-3.90035e-24
1.97755e-24
-2.75577e-24
1.18815e-24
-1.63928e-24
5.93547e-25
-8.21947e-25
2.45541e-25
-3.50704e-25
8.46295e-26
-1.29874e-25
2.48269e-26
-4.2796e-26
6.38518e-27
-1.28281e-26
1.44361e-27
-3.3775e-27
8.04814e-29
2.74343e-27
-2.0791e-27
1.99006e-26
-2.11308e-26
1.50771e-25
-1.81126e-25
1.29833e-24
-1.50798e-24
1.04807e-23
-1.20213e-23
7.99738e-23
-9.0993e-23
5.78408e-22
-6.51143e-22
4.08475e-21
-4.4939e-21
3.02171e-20
-3.20516e-20
2.45873e-19
-2.50839e-19
2.04322e-18
-2.04824e-18
1.49511e-17
-1.51303e-17
8.78655e-17
-9.05294e-17
4.0219e-16
-4.20217e-16
1.46399e-15
-1.53906e-15
-4.42819e-15
-4.69394e-33
9.53614e-32
-4.06193e-32
5.4229e-31
-2.7367e-31
2.66476e-30
-1.49044e-30
1.14244e-29
-7.18829e-30
4.42802e-29
-2.94245e-29
1.45262e-28
-9.77829e-29
3.8465e-28
-2.6344e-28
8.13453e-28
-5.94043e-28
1.38372e-27
-1.20506e-27
1.96475e-27
-2.47149e-27
2.61624e-27
-5.1991e-27
1.58634e-27
-1.34677e-26
4.44949e-27
-3.55379e-26
1.85479e-26
-8.08912e-26
5.19199e-26
-1.51303e-25
9.20686e-26
-2.41793e-25
1.41409e-25
-3.2399e-25
1.72932e-25
-3.63645e-25
1.68739e-25
-3.44377e-25
1.37065e-25
-2.74329e-25
9.2974e-26
-1.82461e-25
5.22127e-26
-1.00539e-25
2.39751e-26
-4.5712e-26
8.9027e-27
-1.72548e-26
2.674e-27
-5.52404e-27
6.6427e-28
-1.54498e-27
1.39536e-28
-3.78517e-28
1.07472e-29
-2.27875e-29
-1.43834e-28
1.21034e-27
-1.55945e-27
1.02658e-26
-1.47887e-26
9.79301e-26
-1.36196e-25
8.85522e-25
-1.20487e-24
7.66767e-24
-1.02312e-23
6.29596e-23
-8.27353e-23
4.87953e-22
-6.31489e-22
3.64276e-21
-4.58639e-21
2.791e-20
-3.38683e-20
2.34356e-19
-2.72489e-19
2.05211e-18
-2.32062e-18
1.61668e-17
-1.83099e-17
1.01649e-16
-1.16072e-16
4.89464e-16
-5.66208e-16
1.83379e-15
-2.12124e-15
-6.43086e-15
-3.336e-34
4.10019e-33
-2.80819e-33
2.30765e-32
-1.88159e-32
1.15009e-31
-1.03698e-31
5.04034e-31
-4.99515e-31
1.95522e-30
-1.99537e-30
6.24094e-30
-6.34873e-30
1.55913e-29
-1.59813e-29
2.93502e-29
-3.21245e-29
3.78108e-29
-5.3578e-29
1.99265e-29
-8.33539e-29
-4.13494e-29
-5.8757e-29
-5.12039e-28
-1.9069e-28
-1.0901e-27
-9.1551e-28
-1.73694e-27
-2.93823e-27
-9.11331e-28
-5.9472e-27
-7.41172e-28
-1.03805e-26
7.92235e-28
-1.43638e-26
2.45935e-27
-1.57908e-26
2.51662e-27
-1.43906e-26
1.92706e-27
-1.0906e-26
1.18456e-27
-6.8146e-27
5.8695e-28
-3.46751e-27
2.31432e-28
-1.42108e-27
7.13032e-29
-4.69202e-28
1.70441e-29
-1.27618e-28
3.16629e-30
-2.92352e-29
-1.18381e-31
-2.44601e-30
-9.65226e-30
6.88464e-29
-1.04524e-28
6.194e-28
-1.08751e-27
6.54373e-27
-1.09687e-26
6.54806e-26
-1.0593e-25
6.28526e-25
-9.84115e-25
5.77716e-24
-8.79837e-24
5.04904e-23
-7.51846e-23
4.15973e-22
-6.06834e-22
3.2617e-21
-4.62429e-21
2.56718e-20
-3.4726e-20
2.1898e-19
-2.80087e-19
1.99843e-18
-2.49951e-18
1.66846e-17
-2.08775e-17
1.10768e-16
-1.39216e-16
5.56953e-16
-7.07389e-16
2.14591e-15
-2.71947e-15
-8.48471e-15
-1.19407e-35
1.82564e-50
-9.71778e-35
4.73149e-53
-6.44122e-34
-1.03573e-49
-3.55496e-33
-1.23785e-49
-1.68798e-32
-6.47795e-52
-6.4961e-32
-5.1462e-50
-1.94017e-31
-4.50282e-47
-4.34348e-31
-2.61805e-44
-6.62887e-31
-6.03696e-40
-4.12451e-31
-1.47269e-37
2.32522e-30
-5.02781e-37
2.20567e-29
-2.83273e-36
3.6335e-29
-2.71388e-31
6.73236e-29
-8.46722e-29
3.46722e-29
-3.3053e-30
3.83128e-29
-3.9245e-30
-4.69606e-29
-1.04697e-28
-1.66368e-28
-2.00795e-29
-1.93351e-28
-3.7567e-30
-1.67344e-28
-7.06203e-31
-1.15714e-28
-1.47963e-31
-6.41926e-29
-5.36962e-32
-2.82049e-29
-1.98619e-32
-9.63856e-30
-6.7802e-33
-2.54381e-30
-8.53817e-33
-5.19389e-31
-5.00126e-32
4.58208e-31
-4.59572e-31
3.54098e-30
-6.09038e-30
3.25755e-29
-6.9607e-29
3.82786e-28
-7.63608e-28
4.19693e-27
-7.98534e-27
4.39429e-26
-8.00189e-26
4.41133e-25
-7.71243e-25
4.2521e-24
-7.1682e-24
3.91234e-23
-6.39829e-23
3.39775e-22
-5.41347e-22
2.78581e-21
-4.30631e-21
2.24438e-20
-3.31957e-20
1.93776e-19
-2.7166e-19
1.83088e-18
-2.4743e-18
1.58886e-17
-2.1597e-17
1.10777e-16
-1.53138e-16
5.75894e-16
-8.01928e-16
2.2854e-15
-3.17642e-15
-1.00578e-14
-4.39545e-53
5.5101e-51
-1.58901e-55
1.022e-53
4.457e-52
-4.88032e-53
6.4961e-52
-4.43232e-52
1.57571e-55
1.6574e-54
7.6375e-52
-4.25011e-52
7.90958e-49
-7.84876e-51
2.94335e-45
-7.83536e-47
1.49446e-41
-1.14155e-40
3.2988e-39
-3.07186e-38
7.7729e-39
-1.72951e-37
5.37295e-38
-7.50886e-38
6.71316e-33
-7.24091e-38
2.46608e-30
-1.42561e-35
5.6693e-32
-1.74742e-33
8.01122e-32
-7.69914e-33
4.85323e-30
-2.45833e-34
3.4279e-31
-6.06647e-37
7.27552e-32
-1.34385e-37
1.64018e-32
-2.23678e-38
5.34976e-33
-2.26476e-38
2.58527e-33
-3.9307e-37
1.04897e-33
-6.62207e-36
7.60869e-34
-1.04398e-34
1.27685e-33
-1.55335e-33
1.20823e-32
-2.19037e-32
1.26134e-31
-3.03393e-31
1.43373e-30
-3.70168e-30
1.87813e-29
-4.39598e-29
2.24047e-28
-4.96123e-28
2.54425e-27
-5.34922e-27
2.75637e-26
-5.51884e-26
2.86011e-25
-5.46889e-25
2.85203e-24
-5.22872e-24
2.72368e-23
-4.81412e-23
2.45744e-22
-4.2073e-22
2.07606e-21
-3.4394e-21
1.69808e-20
-2.7008e-20
1.48203e-19
-2.25173e-19
1.45159e-18
-2.1438e-18
1.40373e-17
-2.02107e-17
1.01034e-16
-1.5326e-16
5.35489e-16
-8.19859e-16
2.18822e-15
-3.34164e-15
-1.08294e-14
-1.08134e-53
7.38441e-52
-2.64702e-56
8.95561e-55
3.13496e-55
1.19242e-56
1.60155e-54
4.36277e-55
-6.82776e-57
3.78831e-54
3.49571e-54
2.12692e-57
4.10459e-53
-1.93372e-56
5.1012e-49
-3.13636e-49
9.36427e-43
-1.46361e-42
2.82184e-40
-3.03347e-40
1.19178e-39
-1.85991e-39
5.42827e-40
-4.33401e-39
7.29969e-40
-1.75204e-38
2.88119e-37
-1.96497e-39
3.77916e-35
-1.03338e-39
1.12366e-34
-4.88868e-40
5.50656e-37
-2.28252e-40
2.74617e-39
-1.40821e-40
1.2057e-39
-1.27568e-40
6.20992e-40
-4.74324e-40
1.14938e-39
-9.76888e-39
3.62788e-38
-1.95316e-37
6.9497e-37
-3.36282e-36
1.24051e-35
-5.43801e-35
2.09643e-34
-8.25667e-34
3.37505e-33
-1.17869e-32
5.29113e-32
-1.57601e-31
7.34774e-31
-2.03028e-30
9.49949e-30
-2.47212e-29
1.17039e-28
-2.87017e-28
1.36997e-27
-3.18016e-27
1.52589e-26
-3.36555e-26
1.62424e-25
-3.41563e-25
1.66097e-24
-3.34385e-24
1.62901e-23
-3.15749e-23
1.50933e-22
-2.83302e-22
1.30298e-21
-2.36972e-21
1.08353e-20
-1.89396e-20
9.65898e-20
-1.61152e-19
9.90766e-19
-1.60605e-18
9.92194e-18
-1.63073e-17
8.068e-17
-1.31609e-16
4.58647e-16
-7.57622e-16
1.90442e-15
-3.16815e-15
-1.06312e-14
-1.14842e-54
4.63356e-53
-1.68184e-57
3.33056e-56
-2.43722e-59
4.31047e-57
-9.17799e-58
2.03311e-55
-8.11297e-57
2.77123e-54
-4.74894e-60
4.55154e-59
5.25564e-59
-4.26229e-60
8.93693e-52
-4.17885e-55
5.11174e-45
-2.20032e-50
1.23384e-42
-2.45869e-45
8.11947e-42
-1.37066e-42
2.47506e-41
-1.22155e-41
9.49423e-41
-2.96983e-41
6.75134e-42
-4.39564e-41
5.48304e-42
-5.13931e-41
3.1161e-42
-3.08121e-41
2.02715e-42
-2.18499e-41
1.99936e-42
-1.63016e-41
2.37363e-42
-2.01407e-41
2.18062e-41
-2.01268e-40
6.36705e-40
-4.31513e-39
1.48158e-38
-7.91448e-38
2.93147e-37
-1.39371e-36
5.4131e-36
-2.30569e-35
9.275e-35
-3.60114e-34
1.47679e-33
-5.34005e-33
2.17226e-32
-7.49364e-32
3.09761e-31
-9.86981e-31
4.15592e-30
-1.23506e-29
5.27818e-29
-1.47324e-28
6.35504e-28
-1.67521e-27
7.26284e-27
-1.81723e-26
7.91629e-26
-1.8889e-25
8.28349e-25
-1.89415e-24
8.32194e-24
-1.8355e-23
7.90434e-23
-1.69376e-22
6.97154e-22
-1.45353e-21
5.8893e-21
-1.18267e-20
5.34433e-20
-1.02133e-19
5.72457e-19
-1.05825e-18
6.25627e-18
-1.1673e-17
5.29832e-17
-1.04119e-16
3.14889e-16
-6.38345e-16
1.34912e-15
-2.64293e-15
-8.44795e-15
-5.40309e-56
7.13573e-66
-3.98385e-59
1.54239e-63
-4.35618e-60
9.28454e-62
-1.37331e-58
1.62765e-60
-7.7946e-58
-2.05036e-68
-6.52491e-64
-3.75463e-64
-1.2239e-60
-2.88695e-60
-3.79473e-55
-3.64233e-56
-2.08695e-50
-2.91339e-52
-1.70351e-47
-3.28878e-48
5.06236e-46
-9.65449e-45
1.29655e-44
-1.59856e-43
5.21585e-44
-5.61214e-43
1.14896e-43
-1.05916e-42
1.8326e-43
-1.43076e-42
1.27934e-43
-1.63273e-42
1.32085e-43
-1.61669e-42
1.52512e-43
-1.39759e-42
3.23092e-43
-4.15593e-42
7.18327e-42
-8.4836e-41
1.85319e-40
-1.69925e-39
3.99559e-39
-3.20266e-38
8.26763e-38
-5.66318e-37
1.58549e-36
-9.4234e-36
2.84446e-35
-1.49103e-34
4.80551e-34
-2.24571e-33
7.62843e-33
-3.20606e-32
1.12014e-31
-4.32192e-31
1.55122e-30
-5.54396e-30
2.03175e-29
-6.78474e-29
2.51674e-28
-7.91015e-28
2.95286e-27
-8.79537e-27
3.29917e-26
-9.37204e-26
3.53676e-25
-9.6413e-25
3.64566e-24
-9.61433e-24
3.56037e-23
-9.1736e-23
3.22016e-22
-8.14061e-22
2.76539e-21
-6.78601e-21
2.53974e-20
-5.93326e-20
2.82063e-19
-6.32738e-19
3.34923e-18
-7.61251e-18
3.19308e-17
-7.62179e-17
2.02052e-16
-5.07585e-16
8.41086e-16
-2.1489e-15
-6.48668e-15
-5.54819e-69
3.72753e-66
-8.00377e-67
8.55103e-64
-1.98072e-67
5.59206e-62
-1.44326e-71
1.09841e-60
-3.8958e-70
-2.01296e-68
-1.34451e-64
-2.41013e-64
-2.01883e-60
-8.58395e-61
-3.17899e-56
-4.56842e-57
-2.70822e-52
-1.98292e-53
-1.36277e-48
-8.52405e-50
-1.20521e-46
-4.30783e-46
-7.66663e-46
-1.03507e-44
-1.63967e-45
-4.19704e-44
-1.79976e-45
-8.46578e-44
-1.00286e-45
-1.16275e-43
6.89972e-46
-1.26984e-43
2.79224e-45
-1.20835e-43
4.69541e-45
-1.36244e-43
4.32264e-44
-1.3667e-42
1.51441e-42
-3.20128e-41
3.98144e-41
-6.33601e-40
9.58395e-40
-1.19477e-38
2.08515e-38
-2.11124e-37
4.16966e-37
-3.52644e-36
7.78095e-36
-5.62434e-35
1.35955e-34
-8.59716e-34
2.21758e-33
-1.24796e-32
3.37818e-32
-1.71525e-31
4.84294e-31
-2.25066e-30
6.55329e-30
-2.82064e-29
8.3627e-29
-3.36816e-28
1.00872e-27
-3.83823e-27
1.15693e-26
-4.19401e-26
1.27232e-25
-4.42833e-25
1.3485e-24
-4.55226e-24
1.3604e-23
-4.516e-23
1.27118e-22
-4.19068e-22
1.11704e-21
-3.63301e-21
1.03671e-20
-3.25047e-20
1.18348e-19
-3.57008e-19
1.53897e-18
-4.71164e-18
1.6463e-17
-5.33053e-17
1.13015e-16
-3.85167e-16
4.80709e-16
-1.6743e-15
-4.94804e-15
-1.43404e-69
1.00448e-66
8.50618e-66
2.42607e-64
1.10048e-63
1.70508e-62
-3.75875e-71
3.65848e-61
-1.50447e-68
-5.1225e-69
-2.09335e-64
-3.16255e-65
-7.8197e-61
-7.43975e-62
-4.29356e-57
-2.65093e-58
-1.90076e-53
-7.90241e-55
-8.03779e-50
-2.09882e-51
-1.36802e-47
-9.21697e-48
-1.22399e-46
-3.39569e-46
-3.45952e-46
-1.74964e-45
-5.47636e-46
-3.97283e-45
-5.94843e-46
-5.79706e-45
-4.9609e-46
-6.67591e-45
-3.98437e-46
-7.3406e-45
-4.57354e-46
-1.86564e-44
-3.38941e-45
-4.456e-43
4.30133e-44
-1.00987e-41
3.48666e-42
-2.06737e-40
1.21472e-40
-3.97758e-39
3.22768e-39
-7.1305e-38
7.34143e-38
-1.20281e-36
1.50162e-36
-1.93399e-35
2.82568e-35
-2.98361e-34
4.89701e-34
-4.39171e-33
7.84656e-33
-6.15137e-32
1.17701e-31
-8.24476e-31
1.65713e-30
-1.05639e-29
2.18931e-29
-1.29104e-28
2.72407e-28
-1.50773e-27
3.21228e-27
-1.68876e-26
3.62314e-26
-1.82747e-25
3.94537e-25
-1.93258e-24
4.11793e-24
-1.99401e-23
4.00209e-23
-1.94969e-22
3.63769e-22
-1.78686e-21
3.44196e-21
-1.6759e-20
4.05105e-20
-1.95158e-19
5.80131e-19
-2.88573e-18
6.99955e-18
-3.66738e-17
5.1888e-17
-2.84601e-16
2.26979e-16
-1.27931e-15
-3.78142e-15
2.00746e-69
2.79785e-71
1.41156e-65
1.07367e-69
7.38848e-64
5.38732e-69
-1.01219e-71
-1.3187e-74
-5.64923e-69
-1.04823e-70
-3.4603e-65
-4.54134e-67
-7.30984e-62
-1.10829e-63
-2.61452e-58
-3.02008e-60
-7.81815e-55
-6.93973e-57
-1.90549e-51
-1.39252e-53
-5.12593e-49
-4.73441e-50
-6.8734e-48
-8.05616e-48
-2.43167e-47
-6.76281e-47
-4.38041e-47
-1.8114e-46
-5.32014e-47
-2.80411e-46
-5.59419e-47
-3.41015e-46
-6.21645e-47
-4.72129e-46
-3.26119e-46
-4.44349e-45
-7.34119e-45
-1.22139e-43
-1.40236e-43
-2.75985e-42
-2.33341e-42
-5.87306e-41
-3.23356e-41
-1.16007e-39
-3.28435e-40
-2.13162e-38
-9.66314e-40
-3.66268e-37
6.14186e-38
-5.96182e-36
2.17975e-36
-9.29299e-35
5.06057e-35
-1.38771e-33
9.68845e-34
-1.98308e-32
1.63912e-32
-2.71354e-31
2.51451e-31
-3.551e-30
3.54002e-30
-4.44175e-29
4.61998e-29
-5.31912e-28
5.63715e-28
-6.10738e-27
6.50053e-27
-6.75681e-26
7.18854e-26
-7.29721e-25
7.63492e-25
-7.74838e-24
7.59721e-24
-7.92332e-23
7.06324e-23
-7.68698e-22
6.79371e-22
-7.72787e-21
8.31758e-21
-1.01231e-19
1.3177e-19
-1.76283e-18
1.7588e-18
-2.50499e-17
1.40494e-17
-2.06053e-16
6.59238e-17
-9.69926e-16
-2.9758e-15
4.47379e-73
1.1642e-71
8.33486e-72
4.4162e-70
-4.0504e-77
4.14639e-69
-1.2849e-74
-3.78462e-76
-1.03572e-70
-1.23773e-72
-4.49764e-67
-4.27488e-69
-1.09701e-63
-8.46168e-66
-2.99409e-60
-1.88387e-62
-6.89073e-57
-3.55159e-59
-1.36672e-53
-5.82385e-56
-9.29175e-51
-1.25513e-52
-2.94545e-49
-1.23044e-49
-1.423e-48
-1.88206e-48
-2.83595e-48
-6.01948e-48
-3.61315e-48
-9.98382e-48
-4.29515e-48
-1.39838e-47
-8.25844e-48
-5.41494e-47
-1.42569e-46
-1.29411e-45
-3.53653e-45
-3.08977e-44
-7.79536e-44
-6.99396e-43
-1.58287e-42
-1.50418e-41
-2.93845e-41
-3.01715e-40
-4.98191e-40
-5.67629e-39
-7.77332e-39
-9.98804e-38
-1.13357e-37
-1.65283e-36
-1.55615e-36
-2.60775e-35
-2.01196e-35
-3.96147e-34
-2.45319e-34
-5.78804e-33
-2.83163e-33
-8.0917e-32
-3.12575e-32
-1.08207e-30
-3.37335e-31
-1.38715e-29
-3.66888e-30
-1.70736e-28
-4.14098e-29
-2.01639e-27
-4.95978e-28
-2.28394e-26
-6.34122e-27
-2.4995e-25
-8.30466e-26
-2.67216e-24
-1.01205e-24
-2.76796e-23
-1.10623e-23
-2.75869e-22
-1.38745e-22
-2.97127e-21
-2.91469e-21
-4.68614e-20
-7.38066e-20
-1.02398e-18
-1.12477e-18
-1.64329e-17
-8.38476e-18
-1.4449e-16
-3.33697e-17
-7.29557e-16
-2.42556e-15
3.56448e-73
1.78334e-72
9.51256e-72
5.24064e-71
-8.28118e-79
1.52456e-69
-3.74353e-76
-4.93723e-78
-1.22368e-72
-1.43837e-74
-4.23125e-69
-4.32524e-71
-8.36416e-66
-7.4499e-68
-1.86455e-62
-1.42754e-64
-3.52049e-59
-2.32797e-61
-5.77729e-56
-3.64889e-58
-9.38484e-53
-4.76705e-55
-8.2637e-51
-9.8161e-52
-5.5274e-50
-3.03494e-50
-1.17404e-49
-1.23874e-49
-1.60506e-49
-2.39889e-49
-2.54109e-49
-6.56071e-49
-2.11028e-48
-1.33399e-47
-5.34479e-47
-3.46429e-46
-1.27755e-45
-7.74948e-45
-2.92892e-44
-1.72542e-43
-6.26652e-43
-3.64754e-42
-1.25246e-41
-7.29308e-41
-2.33343e-40
-1.38593e-39
-4.0386e-39
-2.48527e-38
-6.57103e-38
-4.183e-37
-1.02567e-36
-6.68983e-36
-1.55014e-35
-1.0336e-34
-2.25895e-34
-1.54164e-33
-3.16919e-33
-2.20074e-32
-4.29906e-32
-3.0084e-31
-5.66996e-31
-3.95447e-30
-7.28685e-30
-5.01338e-29
-9.09011e-29
-6.12937e-28
-1.09987e-27
-7.1816e-27
-1.308e-26
-8.01062e-26
-1.52015e-25
-8.48667e-25
-1.61263e-24
-8.44873e-24
-1.54588e-23
-7.98699e-23
-1.93071e-22
-8.64042e-22
-4.95274e-21
-1.7149e-20
-1.4723e-19
-5.10388e-19
-2.41204e-18
-9.67869e-18
-1.97521e-17
-9.48897e-17
-9.36199e-17
-5.3583e-16
-2.00387e-15
6.34596e-74
1.53019e-77
4.67856e-72
6.59453e-76
-2.01379e-80
-5.79704e-82
-3.31608e-78
-2.14782e-78
-8.52589e-75
-6.58986e-75
-2.35827e-71
-1.61321e-71
-4.44183e-68
-2.96892e-68
-9.1963e-65
-5.01181e-65
-1.19212e-61
-1.10509e-61
-3.47431e-58
-1.60785e-59
-4.40454e-55
-2.8915e-58
-1.20776e-52
-5.94723e-55
-1.18243e-51
-1.02577e-52
-2.60709e-51
-9.3043e-52
-4.79448e-51
-4.44807e-51
-2.55196e-50
-8.94991e-50
-6.98999e-49
-3.15862e-48
-1.74135e-47
-7.58489e-47
-4.1162e-46
-1.77085e-45
-9.40032e-45
-3.9332e-44
-2.02239e-43
-8.24761e-43
-4.13476e-42
-1.6425e-41
-8.02634e-41
-3.12801e-40
-1.45771e-39
-5.6741e-39
-2.48148e-38
-9.70697e-38
-4.05589e-37
-1.57668e-36
-6.44624e-36
-2.47012e-35
-9.88321e-35
-3.73955e-34
-1.45548e-33
-5.43598e-33
-2.06699e-32
-7.58692e-32
-2.84744e-31
-1.02039e-30
-3.82622e-30
-1.32985e-29
-5.00429e-29
-1.68772e-28
-6.31771e-28
-2.07569e-27
-7.67339e-27
-2.43378e-26
-8.67382e-26
-2.62125e-25
-8.33045e-25
-2.4188e-24
-6.94087e-24
-1.90373e-23
-8.83945e-23
-1.71456e-22
-3.1611e-21
-4.28705e-21
-1.22133e-19
-1.95401e-19
-2.31085e-18
-4.72167e-18
-2.17379e-17
-5.53754e-17
-1.21682e-16
-3.70249e-16
-1.61347e-15
1.07676e-78
6.63923e-78
-2.24374e-84
2.88159e-76
-1.19655e-83
-5.74074e-82
-9.62234e-79
-1.18526e-78
-4.80673e-75
-1.78149e-75
-1.32803e-71
-2.84919e-72
-2.51716e-68
-4.47975e-69
-4.11155e-65
-8.49194e-66
-4.50773e-62
-1.46798e-62
-4.09461e-61
-1.29917e-59
-6.34881e-59
-3.52151e-58
-2.04776e-55
-9.45077e-57
-4.81765e-54
-3.68853e-55
-2.21349e-53
-1.41948e-53
-1.62384e-52
-4.9186e-52
-5.87422e-51
-1.7653e-50
-1.7823e-49
-5.04199e-49
-4.56973e-48
-1.31383e-47
-1.12338e-46
-3.27416e-46
-2.58873e-45
-7.4661e-45
-5.61196e-44
-1.59836e-43
-1.15907e-42
-3.23348e-42
-2.29349e-41
-6.22815e-41
-4.28948e-40
-1.1445e-39
-7.54518e-39
-1.99669e-38
-1.27026e-37
-3.30846e-37
-2.07321e-36
-5.24982e-36
-3.26869e-35
-8.03158e-35
-4.96042e-34
-1.18577e-33
-7.25321e-33
-1.68753e-32
-1.02702e-31
-2.31589e-31
-1.42243e-30
-3.08228e-30
-1.93903e-29
-4.02003e-29
-2.61542e-28
-5.19683e-28
-3.48413e-27
-6.70711e-27
-4.06419e-26
-8.03525e-26
-3.35417e-25
-7.09395e-25
-2.03027e-24
-4.05091e-24
-2.17941e-23
-2.08196e-23
-1.1629e-21
-6.08011e-22
-6.39742e-20
-5.19735e-20
-1.51733e-18
-1.76652e-18
-1.76187e-17
-2.67648e-17
-1.21128e-16
-2.25291e-16
-1.1929e-15
5.95289e-79
1.0516e-78
-3.21585e-84
4.19725e-77
-9.75396e-84
-1.74342e-81
-2.75273e-80
-4.03565e-78
-1.01032e-76
-4.88045e-75
-9.84802e-74
-5.31758e-72
-4.20115e-70
-4.1421e-69
-5.48654e-66
-3.08533e-66
-9.64009e-63
-4.43537e-63
-9.21117e-61
-4.23651e-61
-1.54378e-59
-2.33005e-59
-3.97772e-58
-1.18849e-57
-1.77978e-56
-6.12629e-56
-7.15384e-55
-2.62928e-54
-3.16561e-53
-9.10471e-53
-1.09609e-51
-2.36678e-51
-3.23153e-50
-6.7005e-50
-9.15721e-49
-1.87741e-48
-2.37509e-47
-4.77353e-47
-5.67555e-46
-1.12603e-45
-1.2698e-44
-2.49097e-44
-2.68608e-43
-5.19971e-43
-5.41892e-42
-1.02693e-41
-1.04033e-40
-1.92793e-40
-1.89099e-39
-3.44595e-39
-3.26819e-38
-5.8433e-38
-5.42734e-37
-9.42169e-37
-8.71758e-36
-1.46085e-35
-1.35477e-34
-2.19566e-34
-2.0314e-33
-3.1968e-33
-2.94025e-32
-4.4926e-32
-4.13164e-31
-6.08675e-31
-5.69962e-30
-7.99212e-30
-8.19129e-29
-1.05592e-28
-1.33319e-27
-1.54912e-27
-1.88618e-26
-2.34926e-26
-1.37063e-25
-2.1361e-25
-4.81274e-25
-7.94726e-25
-2.90832e-24
-1.51629e-24
-2.43815e-22
-5.55768e-23
-2.17498e-20
-8.73385e-21
-7.03923e-19
-4.77176e-19
-1.0788e-17
-9.96571e-18
-9.53314e-17
-1.11333e-16
-7.49978e-16
1.05133e-79
1.33371e-81
-1.65155e-83
-7.77442e-85
-5.05362e-83
-2.42654e-81
-1.29335e-79
-5.73331e-78
-2.30375e-76
-8.4121e-75
-2.78829e-73
-1.02613e-71
-2.55243e-70
-1.12264e-68
-1.15786e-66
-6.07843e-66
-2.2409e-64
-8.42662e-64
-1.66736e-62
-5.33787e-62
-1.00528e-60
-2.80357e-60
-6.40374e-59
-1.30954e-58
-3.69587e-57
-5.84793e-57
-1.78953e-55
-2.30185e-55
-5.38369e-54
-8.34349e-54
-1.56783e-52
-2.86653e-52
-4.95171e-51
-8.62724e-51
-1.45117e-49
-2.32501e-49
-3.8788e-48
-5.89329e-48
-9.63278e-47
-1.41496e-46
-2.24413e-45
-3.20301e-45
-4.92157e-44
-6.84242e-44
-1.0219e-42
-1.38597e-42
-2.02164e-41
-2.67099e-41
-3.79615e-40
-4.88538e-40
-6.73353e-39
-8.4414e-39
-1.13891e-37
-1.38668e-37
-1.86427e-36
-2.19833e-36
-2.96965e-35
-3.39372e-35
-4.59028e-34
-5.10115e-34
-6.84637e-33
-7.42682e-33
-9.68993e-32
-1.0352e-31
-1.28798e-30
-1.35905e-30
-1.88618e-29
-1.76681e-29
-4.19741e-28
-2.89026e-28
-8.76814e-27
-5.58123e-27
-6.56903e-26
-4.77741e-26
-1.03807e-25
-1.24946e-25
-2.61764e-25
-1.49263e-25
-4.45608e-23
-8.16903e-24
-4.74507e-21
-9.03213e-22
-2.27183e-19
-9.03521e-20
-4.82182e-18
-2.72317e-18
-5.70807e-17
-4.1398e-17
-3.65654e-16
-2.28887e-87
7.75453e-82
-2.32822e-85
-5.46909e-85
-6.11286e-83
-1.22397e-81
-1.70245e-79
-3.28164e-78
-3.11355e-76
-6.03495e-75
-9.71533e-73
-8.13718e-72
-2.39104e-69
-1.83674e-68
-4.24285e-67
-5.83286e-66
-3.7036e-65
-1.14282e-64
-2.50458e-63
-6.48587e-63
-1.39268e-61
-3.03451e-61
-7.39557e-60
-1.33457e-59
-3.49547e-58
-6.118e-58
-1.46081e-56
-2.4667e-56
-6.00182e-55
-8.98108e-55
-2.1996e-53
-2.96911e-53
-6.87733e-52
-9.00635e-52
-1.96093e-50
-2.49364e-50
-5.28367e-49
-6.38856e-49
-1.34256e-47
-1.54823e-47
-3.2053e-46
-3.54232e-46
-7.22242e-45
-7.67306e-45
-1.54778e-43
-1.58718e-43
-3.15775e-42
-3.13918e-42
-6.07564e-41
-5.87324e-41
-1.10021e-39
-1.03365e-39
-1.90373e-38
-1.73661e-38
-3.20017e-37
-2.83931e-37
-5.26041e-36
-4.53981e-36
-8.45858e-35
-7.06747e-35
-1.32267e-33
-1.06525e-33
-1.91799e-32
-1.54047e-32
-2.41344e-31
-2.08211e-31
-3.48116e-30
-2.70145e-30
-1.08488e-28
-4.22989e-29
-2.72548e-27
-7.52098e-28
-1.39061e-26
-6.04395e-27
-1.41793e-26
-1.61014e-26
-3.73704e-26
-2.66356e-26
-6.56978e-24
-1.32018e-24
-6.81937e-22
-1.12401e-22
-5.12154e-20
-1.27788e-20
-1.53107e-18
-5.4702e-19
-2.44166e-17
-1.0971e-17
-1.27139e-16
-1.40993e-87
2.05336e-82
-2.4536e-85
-3.02959e-85
-5.83137e-82
-6.39607e-82
-1.59568e-78
-1.68198e-78
-2.80858e-75
-3.21946e-75
-3.32536e-72
-4.84719e-72
-1.18783e-68
-1.11472e-68
-2.01653e-67
-1.41952e-66
-5.35622e-66
-1.03798e-65
-3.16597e-64
-6.16015e-64
-1.55671e-62
-2.92841e-62
-8.2037e-61
-1.27621e-60
-4.0412e-59
-5.58862e-59
-1.76059e-57
-2.18497e-57
-6.85155e-56
-7.9194e-56
-2.43328e-54
-2.67288e-54
-7.83579e-53
-8.20256e-53
-2.28518e-51
-2.25404e-51
-6.23079e-50
-5.7363e-50
-1.60093e-48
-1.40637e-48
-3.86794e-47
-3.28169e-47
-8.87594e-46
-7.26346e-46
-1.95615e-44
-1.53656e-44
-4.10957e-43
-3.12074e-43
-8.0855e-42
-6.05339e-42
-1.49553e-40
-1.11516e-40
-2.66433e-39
-1.96447e-39
-4.64554e-38
-3.34649e-38
-7.93047e-37
-5.53359e-37
-1.31916e-35
-8.80412e-36
-2.13989e-34
-1.3276e-34
-3.25534e-33
-1.91675e-33
-4.26501e-32
-2.69055e-32
-6.13308e-31
-3.58866e-31
-1.68312e-29
-4.75846e-30
-3.6094e-28
-6.22753e-29
-1.8655e-27
-4.70859e-28
-2.383e-27
-1.41032e-27
-7.8353e-27
-4.26663e-27
-1.02794e-24
-2.43094e-25
-8.58679e-23
-1.90921e-23
-8.72742e-21
-1.877e-21
-3.46293e-19
-8.97366e-20
-7.10131e-18
-2.12304e-18
-3.10197e-17
-7.87738e-88
3.17188e-85
-3.06024e-85
-6.05574e-87
-6.19993e-82
-1.87739e-83
-1.64458e-78
-3.44921e-80
-3.16384e-75
-5.06e-77
-4.73128e-72
-6.92517e-74
-3.56573e-69
-6.20331e-71
-3.10367e-68
-6.30072e-69
-5.16588e-67
-5.91024e-67
-3.21492e-65
-3.7208e-65
-1.63316e-63
-2.11813e-63
-8.31559e-62
-1.04001e-61
-3.88036e-60
-4.40796e-60
-1.63746e-58
-1.68716e-58
-6.47914e-57
-6.02728e-57
-2.36733e-55
-2.02591e-55
-7.63411e-54
-6.26857e-54
-2.19391e-52
-1.74516e-52
-5.98948e-51
-4.50131e-51
-1.56625e-49
-1.1213e-49
-3.8733e-48
-2.66952e-48
-9.09452e-47
-6.04927e-47
-2.04887e-45
-1.30635e-45
-4.42981e-44
-2.69328e-44
-9.10224e-43
-5.34508e-43
-1.77649e-41
-1.03033e-41
-3.32958e-40
-1.91515e-40
-6.0684e-39
-3.38196e-39
-1.07703e-37
-5.70797e-38
-1.81229e-36
-9.19491e-37
-2.87128e-35
-1.34717e-35
-4.45112e-34
-1.78949e-34
-6.55426e-33
-2.35283e-33
-9.33857e-32
-3.03685e-32
-1.71303e-30
-3.42655e-31
-2.8267e-29
-3.35925e-30
-1.54495e-28
-2.46086e-29
-2.58741e-28
-9.51395e-29
-2.27858e-27
-8.61813e-28
-1.75324e-25
-6.06528e-26
-1.4799e-23
-4.70864e-24
-1.42838e-21
-3.96013e-22
-6.12384e-20
-1.50096e-20
-1.46695e-18
-3.52213e-19
-5.95746e-18
-3.46023e-89
2.95429e-85
-5.85605e-88
-5.50487e-87
-5.42834e-85
-1.46814e-83
-1.40336e-81
-2.99742e-80
-4.75626e-78
-4.88179e-77
-2.1159e-74
-1.14125e-73
-2.72074e-72
-4.03472e-71
-3.21548e-70
-3.91106e-70
-2.91192e-68
-3.011e-68
-2.11433e-66
-1.98927e-66
-1.34095e-64
-1.12176e-64
-7.06389e-63
-5.53048e-63
-3.20924e-61
-2.43482e-61
-1.32687e-59
-9.70291e-60
-5.16917e-58
-3.52158e-58
-1.88684e-56
-1.17157e-56
-6.16049e-55
-3.63313e-55
-1.79961e-53
-1.06645e-53
-4.99262e-52
-2.94457e-52
-1.32995e-50
-7.58196e-51
-3.37297e-49
-1.84429e-49
-8.13544e-48
-4.27855e-48
-1.86262e-46
-9.48398e-47
-4.06822e-45
-2.0039e-45
-8.62953e-44
-4.04814e-44
-1.78699e-42
-7.92633e-43
-3.52643e-41
-1.48988e-41
-6.61797e-40
-2.56779e-40
-1.21586e-38
-4.09464e-39
-2.0821e-37
-6.41215e-38
-3.08337e-36
-9.03827e-37
-4.33908e-35
-1.01041e-35
-6.39686e-34
-9.90989e-35
-8.74555e-33
-1.09952e-33
-1.12273e-31
-1.4896e-32
-1.37897e-30
-1.80721e-31
-8.59969e-30
-1.22861e-30
-2.07582e-29
-5.57104e-30
-5.52485e-28
-2.05696e-28
-4.3476e-26
-1.51803e-26
-4.35267e-24
-1.21168e-24
-2.96164e-22
-8.78521e-23
-1.05236e-20
-2.80728e-21
-2.61981e-19
-5.79281e-20
-9.29028e-19
-3.40658e-89
1.36191e-85
-5.53572e-87
-3.61676e-90
-1.46613e-83
-9.04605e-87
-2.98954e-80
-1.93462e-83
-4.91008e-77
-3.04142e-80
-1.38351e-73
-3.80814e-77
-1.16885e-72
-7.079e-74
-1.85007e-71
-1.39784e-71
-1.61697e-69
-1.133e-69
-1.17998e-67
-7.82963e-68
-7.27622e-66
-4.64905e-66
-3.90902e-64
-2.33229e-64
-1.87105e-62
-1.0319e-62
-8.05988e-61
-4.10655e-61
-3.12935e-59
-1.50584e-59
-1.1107e-57
-5.11716e-58
-3.71013e-56
-1.62208e-56
-1.1731e-54
-4.80603e-55
-3.44265e-53
-1.33018e-53
-9.42333e-52
-3.46717e-52
-2.44448e-50
-8.59629e-51
-6.05922e-49
-2.04753e-49
-1.43081e-47
-4.68559e-48
-3.20012e-46
-1.01126e-46
-6.91737e-45
-2.03089e-45
-1.47803e-43
-3.9702e-44
-2.94541e-42
-7.83818e-43
-5.21657e-41
-1.33403e-41
-9.16766e-40
-1.65895e-40
-1.61346e-38
-1.67203e-39
-2.25268e-37
-1.84037e-38
-2.36277e-36
-2.68424e-37
-2.47308e-35
-4.87535e-36
-3.472e-34
-9.50956e-35
-6.34037e-33
-1.03825e-33
-7.78836e-32
-3.72309e-33
-2.80203e-31
-8.92414e-33
-1.83591e-30
-4.41759e-31
-1.61419e-28
-3.32774e-29
-1.24388e-26
-2.4041e-27
-1.1652e-24
-1.75517e-25
-6.86066e-23
-1.36391e-23
-2.05597e-21
-4.52966e-22
-4.40693e-20
-9.04644e-21
-1.43122e-19
-1.43504e-92
-6.65555e-95
-3.44449e-90
-2.65149e-91
-8.32973e-87
-7.06967e-88
-1.79616e-83
-1.35527e-84
-2.84948e-80
-1.86375e-81
-3.52891e-77
-2.36864e-78
-4.83618e-75
-3.28331e-75
-6.93155e-73
-4.17263e-73
-6.32814e-71
-3.3484e-71
-4.93253e-69
-2.39224e-69
-3.16226e-67
-1.497e-67
-1.71979e-65
-7.46862e-66
-8.17492e-64
-3.25194e-64
-3.51181e-62
-1.25275e-62
-1.38477e-60
-4.45505e-61
-5.05969e-59
-1.49673e-59