/*--------------------------------*- C++ -*----------------------------------*\
| =========                 |                                                 |
| \\      /  F ield         | OpenFOAM: The Open Source CFD Toolbox           |
|  \\    /   O peration     | Version:  5.0                                   |
|   \\  /    A nd           | Web:      www.OpenFOAM.org                      |
|    \\/     M anipulation  |                                                 |
\*---------------------------------------------------------------------------*/
FoamFile
{
    version     2.0;
    format      ascii;
    class       volScalarField;
    location    "0.5";
    object      alpha.water;
}
// * * * * * * * * * * * * * * * * * * * * * * * * * * * * * * * * * * * * * //

dimensions      [0 0 0 0 0 0 0];

internalField   nonuniform List<scalar> 
1915
(
-5.55717e-16
-4.73894e-16
-3.59683e-16
-2.45096e-16
-1.51582e-16
-8.6143e-17
-4.55569e-17
-2.26897e-17
-1.07552e-17
-4.89471e-18
-2.15133e-18
-9.03739e-19
-2.92031e-19
1.94595e-19
2.56372e-18
1.49122e-17
8.1289e-17
4.44699e-16
2.50323e-15
1.38992e-14
7.08839e-14
3.1484e-13
1.20004e-12
3.94897e-12
1.06318e-11
-1.65666e-23
-9.58497e-23
-4.66445e-22
-1.77526e-21
-6.2008e-21
-2.07748e-20
-6.28475e-20
-1.63646e-19
-3.6851e-19
-7.53744e-19
-1.50537e-18
-3.12822e-18
-6.80149e-18
-1.45945e-17
-2.89291e-17
-5.11414e-17
-7.95434e-17
-1.08268e-16
-1.28712e-16
-1.33593e-16
-1.21128e-16
-9.61596e-17
-6.7164e-17
-4.1607e-17
-2.31189e-17
-1.16832e-17
-5.44967e-18
-2.37952e-18
-9.84651e-19
-3.89831e-19
-1.469e-19
-4.22184e-20
3.72401e-20
4.41706e-19
2.74932e-18
1.5746e-17
8.75831e-17
5.02334e-16
3.04043e-15
1.83485e-14
1.00429e-13
4.69021e-13
1.83776e-12
6.12493e-12
1.64182e-11
-4.00732e-24
-2.27875e-23
-1.09556e-22
-4.24136e-22
-1.52896e-21
-5.18761e-21
-1.54923e-20
-3.93463e-20
-8.6478e-20
-1.74141e-19
-3.48154e-19
-7.33179e-19
-1.61678e-18
-3.47795e-18
-6.80652e-18
-1.17458e-17
-1.77016e-17
-2.31923e-17
-2.63636e-17
-2.59739e-17
-2.21596e-17
-1.63763e-17
-1.05134e-17
-5.90301e-18
-2.93187e-18
-1.30847e-18
-5.33942e-19
-2.02574e-19
-7.24731e-20
-2.45225e-20
-6.62484e-21
4.29297e-21
5.91395e-20
3.77324e-19
2.39303e-18
1.46511e-17
8.64936e-17
5.16491e-16
3.31545e-15
2.18057e-14
1.29132e-13
6.40115e-13
2.60385e-12
8.88059e-12
2.39823e-11
-8.19038e-25
-4.57867e-24
-2.18925e-23
-8.67117e-23
-3.21532e-22
-1.09528e-21
-3.20928e-21
-7.91856e-21
-1.68962e-20
-3.32529e-20
-6.59523e-20
-1.39014e-19
-3.09135e-19
-6.66732e-19
-1.29027e-18
-2.17637e-18
-3.18452e-18
-4.02328e-18
-4.37964e-18
-4.10274e-18
-3.29951e-18
-2.27321e-18
-1.3418e-18
-6.81645e-19
-3.01293e-19
-1.17937e-19
-4.17379e-20
-1.36212e-20
-4.1504e-21
-1.07352e-21
3.10114e-22
5.80341e-21
3.72531e-20
2.62688e-19
1.77549e-18
1.13917e-17
7.13881e-17
4.70998e-16
3.38775e-15
2.43291e-14
1.57026e-13
8.35383e-13
3.56602e-12
1.25542e-11
3.4467e-11
-1.3555e-25
-7.46222e-25
-3.57209e-24
-1.45255e-23
-5.50917e-23
-1.86916e-22
-5.34371e-22
-1.27325e-21
-2.60931e-21
-4.93416e-21
-9.50632e-21
-1.95186e-20
-4.36577e-20
-9.5423e-20
-1.8454e-19
-3.06126e-19
-4.37729e-19
-5.35647e-19
-5.59868e-19
-4.99895e-19
-3.79945e-19
-2.44614e-19
-1.32929e-19
-6.10351e-20
-2.39013e-20
-8.14081e-21
-2.47219e-21
-6.84213e-22
-1.66629e-22
1.68924e-24
4.52778e-22
3.33798e-21
2.67211e-20
2.0234e-19
1.4504e-18
9.85226e-18
6.50388e-17
4.46814e-16
3.38161e-15
2.65315e-14
1.86603e-13
1.0704e-12
4.82584e-12
1.75223e-11
4.9728e-11
-1.70214e-26
-9.24878e-26
-4.45822e-25
-1.86262e-24
-7.17605e-24
-2.40722e-23
-6.67094e-23
-1.51794e-22
-2.91963e-22
-5.09265e-22
-9.04248e-22
-1.65672e-21
-3.75787e-21
-8.72572e-21
-1.75569e-20
-2.91524e-20
-4.1522e-20
-4.9774e-20
-5.01557e-20
-4.27861e-20
-3.07994e-20
-1.85673e-20
-9.29947e-21
-3.85367e-21
-1.32921e-21
-3.89804e-22
-1.00099e-22
-2.25671e-23
-1.25281e-24
3.20958e-23
2.67999e-22
2.37045e-21
2.00052e-20
1.62003e-19
1.24736e-18
9.07497e-18
6.33913e-17
4.5156e-16
3.52434e-15
2.90315e-14
2.19251e-13
1.34412e-12
6.38319e-12
2.37502e-11
7.08648e-11
-1.44153e-27
-7.7483e-27
-3.77764e-26
-1.61886e-25
-6.2889e-25
-2.07062e-24
-5.50748e-24
-1.17055e-23
-2.00188e-23
-2.85846e-23
-3.82827e-23
-2.33481e-23
-6.58706e-23
-2.76165e-22
-7.77381e-22
-1.38593e-21
-2.13947e-21
-2.6287e-21
-2.57584e-21
-2.1001e-21
-1.42893e-21
-8.04364e-22
-3.69928e-22
-1.37458e-22
-4.1273e-23
-1.02383e-23
-2.145e-24
-1.64561e-25
2.18305e-24
1.94542e-23
1.89473e-22
1.76211e-21
1.57501e-20
1.35143e-19
1.10578e-18
8.54736e-18
6.27876e-17
4.60125e-16
3.64414e-15
3.12074e-14
2.49269e-13
1.61181e-12
7.99417e-12
3.04539e-11
9.48077e-11
-6.17644e-29
-3.29104e-28
-1.62727e-27
-7.12786e-27
-2.77086e-26
-8.87467e-26
-2.22637e-25
-4.2106e-25
-5.45134e-25
-2.88772e-25
6.01674e-25
7.49558e-24
1.605e-23
2.5701e-23
1.35528e-23
1.10695e-23
-1.18854e-23
-3.70392e-23
-3.80302e-23
-2.9203e-23
-1.799e-23
-8.92679e-24
-3.52194e-24
-1.08476e-24
-2.58958e-25
-4.79906e-26
1.55282e-27
1.45079e-25
1.26135e-24
1.35243e-23
1.37236e-22
1.33258e-21
1.24344e-20
1.11696e-19
9.60841e-19
7.82536e-18
6.01845e-17
4.52469e-16
3.62713e-15
3.20934e-14
2.65628e-13
1.80234e-12
9.23461e-12
3.61392e-11
1.14941e-10
-2.74213e-46
-6.73798e-49
1.46337e-45
1.74799e-45
5.43486e-54
7.30334e-46
6.41495e-43
3.73323e-40
8.69158e-36
2.13086e-33
4.37966e-33
2.06435e-32
1.95826e-27
1.24633e-24
2.40998e-26
2.87617e-26
1.55923e-24
3.00155e-25
5.59603e-26
1.05315e-26
2.20919e-27
8.05101e-28
2.97861e-28
1.01301e-28
1.27958e-28
7.4692e-28
6.83663e-27
6.95271e-26
8.29634e-25
9.11611e-24
9.55432e-23
9.58104e-22
9.22685e-21
8.56308e-20
7.63746e-19
6.46054e-18
5.12437e-17
3.9157e-16
3.1715e-15
2.89558e-14
2.67484e-13
1.87823e-12
9.78203e-12
3.93186e-11
1.26846e-10
-8.25632e-47
-1.45384e-49
6.88468e-49
6.25308e-48
-2.34277e-50
5.49687e-48
5.50039e-47
5.52939e-43
8.54938e-37
2.32102e-34
1.49895e-33
5.61658e-34
5.96181e-34
1.0291e-31
1.26633e-29
5.60424e-29
3.64134e-30
2.46208e-33
9.81209e-34
1.65957e-34
2.19807e-34
3.96281e-33
6.71874e-32
1.06749e-30
1.61425e-29
2.33606e-28
3.31684e-27
4.20153e-26
4.96142e-25
5.60409e-24
6.03914e-23
6.21529e-22
6.13253e-21
5.83117e-20
5.33817e-19
4.63738e-18
3.76123e-17
2.92384e-16
2.41734e-15
2.31192e-14
2.19859e-13
1.73881e-12
9.77887e-12
3.99945e-11
1.30679e-10
-1.10431e-47
-1.27305e-50
-1.68219e-52
-6.15189e-51
-5.35219e-50
-3.014e-53
1.35451e-52
2.20974e-45
1.03974e-38
2.16063e-36
1.33036e-35
3.19377e-35
1.43357e-34
1.4314e-35
7.66292e-36
3.66293e-36
1.74626e-36
1.09199e-36
1.02019e-36
4.55778e-36
1.0421e-34
2.10374e-33
3.63925e-32
5.911e-31
8.97728e-30
1.27631e-28
1.68487e-27
2.16867e-26
2.64405e-25
3.06754e-24
3.39083e-23
3.5739e-22
3.60662e-21
3.50694e-20
3.28813e-19
2.92967e-18
2.43057e-17
1.92187e-16
1.61767e-15
1.61197e-14
1.67404e-13
1.37908e-12
8.09594e-12
3.40276e-11
1.15512e-10
-6.91856e-49
-4.73252e-52
-6.07982e-53
-2.86669e-51
-3.91511e-50
-6.44933e-55
7.87485e-59
1.12395e-54
1.02043e-48
1.7395e-41
9.78585e-39
8.78988e-38
2.14955e-37
3.23326e-37
3.84949e-37
2.35811e-37
1.71912e-37
1.30408e-37
1.75528e-37
2.11211e-36
4.42604e-35
8.02282e-34
1.41291e-32
2.33645e-31
3.65349e-30
5.43324e-29
7.66692e-28
1.00896e-26
1.26099e-25
1.50098e-24
1.70075e-23
1.83593e-22
1.89671e-21
1.88866e-20
1.81741e-19
1.66673e-18
1.42103e-17
1.14535e-16
9.77035e-16
1.00829e-14
1.1335e-13
1.05034e-12
6.61977e-12
2.74613e-11
8.57975e-11
-1.06422e-61
-2.19145e-59
-1.3098e-57
-2.29576e-56
-4.37281e-70
-1.71139e-67
1.0259e-59
9.68877e-56
2.30539e-51
1.82887e-44
7.04601e-41
1.18762e-39
4.21605e-39
8.01734e-39
1.0877e-38
1.2548e-38
1.25326e-38
1.10376e-38
3.87961e-38
8.53997e-37
1.69342e-35
3.2032e-34
5.64795e-33
9.37042e-32
1.47889e-30
2.2219e-29
3.16119e-28
4.25228e-27
5.44093e-26
6.63658e-25
7.70297e-24
8.51813e-23
9.01807e-22
9.20994e-21
9.12079e-20
8.65832e-19
7.65384e-18
6.34378e-17
5.49115e-16
5.8274e-15
7.15985e-14
7.43311e-13
5.0885e-12
2.17945e-11
6.52669e-11
-5.55493e-62
-1.21521e-59
-7.89293e-58
-1.55038e-56
-2.43135e-74
1.24531e-64
3.18875e-60
1.90555e-56
1.04677e-52
1.59397e-46
3.15774e-42
7.74998e-41
3.18048e-40
6.46132e-40
8.90691e-40
9.73063e-40
9.28788e-40
1.10404e-39
1.31441e-38
3.09108e-37
6.1307e-36
1.15531e-34
2.03845e-33
3.39645e-32
5.39928e-31
8.22658e-30
1.19039e-28
1.63077e-27
2.13222e-26
2.66068e-25
3.16076e-24
3.5806e-23
3.88567e-22
4.07064e-21
4.15272e-20
4.09814e-19
3.79499e-18
3.285e-17
2.9274e-16
3.22225e-15
4.36905e-14
5.11987e-13
3.78427e-12
1.66357e-11
4.93668e-11
-1.49634e-62
-3.44956e-60
-2.40868e-58
-5.16933e-57
-1.28987e-66
-7.94756e-63
3.39459e-61
1.4213e-57
4.6607e-54
8.84687e-49
6.59802e-44
2.49025e-42
1.3019e-41
2.97934e-41
4.3649e-41
5.04409e-41
5.61073e-41
1.61077e-40
4.14274e-39
9.33118e-38
1.92339e-36
3.71293e-35
6.66783e-34
1.12435e-32
1.80251e-31
2.76908e-30
4.05967e-29
5.66623e-28
7.56294e-27
9.64203e-26
1.17186e-24
1.36023e-23
1.51279e-22
1.62309e-21
1.70041e-20
1.74089e-19
1.69557e-18
1.55246e-17
1.45867e-16
1.7275e-15
2.66016e-14
3.49284e-13
2.75824e-12
1.25925e-11
3.78548e-11
-4.16791e-67
-1.52788e-65
-7.61949e-65
-7.65891e-79
4.98566e-71
5.65914e-67
6.10636e-63
1.95516e-59
5.0323e-56
1.22332e-51
3.22388e-46
5.85804e-44
5.00197e-43
1.35006e-42
2.0971e-42
2.56187e-42
3.7119e-42
4.04443e-41
1.0999e-39
2.48251e-38
5.29617e-37
1.04761e-35
1.92819e-34
3.31448e-33
5.38483e-32
8.36432e-31
1.24485e-29
1.77352e-28
2.41707e-27
3.14752e-26
3.91626e-25
4.66327e-24
5.31932e-23
5.83512e-22
6.23101e-21
6.5326e-20
6.60573e-19
6.35568e-18
6.38845e-17
8.62374e-16
1.5921e-14
2.34619e-13
1.96687e-12
9.47992e-12
3.00702e-11
-1.73504e-67
-6.29163e-66
-5.87334e-65
-7.26334e-88
2.02428e-73
6.2788e-69
5.56532e-65
1.47038e-61
3.10805e-58
8.09354e-55
5.7688e-49
8.8681e-46
1.37808e-44
4.43547e-44
7.38265e-44
1.04895e-43
4.61819e-43
1.17902e-41
2.75107e-40
6.20527e-39
1.32978e-37
2.66144e-36
5.00402e-35
8.80297e-34
1.45395e-32
2.28582e-31
3.46022e-30
5.03842e-29
7.0136e-28
9.33198e-27
1.18998e-25
1.4569e-24
1.71132e-23
1.92538e-22
2.08474e-21
2.19232e-20
2.2208e-19
2.1576e-18
2.28021e-17
3.69794e-16
8.75915e-15
1.48099e-13
1.34527e-12
7.05501e-12
2.46101e-11
-2.66001e-68
-7.47739e-67
-2.16356e-65
-1.20884e-75
-1.91021e-72
-5.63834e-69
7.88929e-67
1.68123e-63
4.17561e-59
1.15263e-56
2.83839e-52
6.98712e-48
2.19859e-46
9.02532e-46
1.76116e-45
5.1372e-45
1.17981e-43
3.04952e-42
6.80355e-41
1.50911e-39
3.1742e-38
6.3205e-37
1.19753e-35
2.1435e-34
3.5996e-33
5.73648e-32
8.8259e-31
1.31054e-29
1.8618e-28
2.53166e-27
3.30902e-26
4.17183e-25
5.07698e-24
5.92658e-23
6.57896e-22
6.88716e-21
6.64862e-20
5.96812e-19
6.06416e-18
1.20389e-16
4.00363e-15
8.20624e-14
8.4954e-13
5.07622e-12
2.01777e-11
-2.28531e-73
-9.42681e-72
4.19908e-81
3.09311e-78
1.85981e-74
5.9634e-71
3.04665e-67
5.32354e-63
1.13931e-57
2.03109e-55
1.03678e-54
3.93853e-51
7.38208e-49
6.77081e-48
3.39603e-47
7.40652e-46
2.67796e-44
6.40897e-43
1.50802e-41
3.34932e-40
7.01161e-39
1.39283e-37
2.64454e-36
4.78467e-35
8.16664e-34
1.32226e-32
2.06167e-31
3.10397e-30
4.48754e-29
6.22817e-28
8.32429e-27
1.07763e-25
1.35944e-24
1.66736e-23
1.9638e-22
2.12928e-21
1.91544e-20
1.39224e-19
1.08869e-18
2.5171e-17
1.36794e-15
3.69578e-14
4.68419e-13
3.37629e-12
1.584e-11
-9.93251e-74
-4.12853e-72
2.95853e-78
7.7769e-75
6.71997e-72
3.35771e-69
4.62441e-67
5.72432e-64
6.6081e-59
1.45379e-55
4.56668e-54
7.18864e-53
2.85484e-51
1.11653e-49
4.00511e-48
1.45875e-46
4.08388e-45
1.074e-43
2.68915e-42
6.14496e-41
1.31689e-39
2.66373e-38
5.12292e-37
9.39367e-36
1.63554e-34
2.70251e-33
4.26831e-32
6.49271e-31
9.53275e-30
1.3493e-28
1.84045e-27
2.43079e-26
3.13995e-25
4.0283e-24
5.2537e-23
6.52112e-22
5.72103e-21
2.9691e-20
1.17756e-19
2.39893e-18
3.13178e-16
1.26036e-14
2.10521e-13
1.93581e-12
1.11565e-11
-1.57664e-74
-6.02948e-73
1.52915e-77
4.24939e-74
5.25523e-71
5.81169e-68
4.66154e-65
3.5604e-62
4.10076e-59
3.20661e-57
1.77024e-55
9.32371e-54
4.89367e-52
2.12417e-50
7.38574e-49
1.88852e-47
5.35772e-46
1.50307e-44
3.81879e-43
9.01483e-42
1.99506e-40
4.16391e-39
8.21554e-38
1.5398e-36
2.7465e-35
4.64324e-34
7.45442e-33
1.15007e-31
1.72021e-30
2.49325e-29
3.48756e-28
4.69464e-27
6.08963e-26
7.90147e-25
1.16503e-23
1.86822e-22
1.70497e-21
5.81491e-21
6.91894e-21
1.96455e-20
4.0554e-17
3.06447e-15
7.22619e-14
8.87785e-13
6.54107e-12
-2.00483e-77
-3.14597e-86
1.39961e-77
3.65028e-74
4.94372e-71
5.94603e-68
1.66855e-64
8.53138e-62
6.77906e-60
4.22744e-58
2.20599e-56
1.02066e-54
4.54295e-53
1.78514e-51
6.4801e-50
2.25786e-48
6.82588e-47
1.83496e-45
4.64268e-44
1.11347e-42
2.51748e-41
5.36909e-40
1.08574e-38
2.08904e-37
3.8124e-36
6.56506e-35
1.07407e-33
1.69584e-32
2.60771e-31
3.90471e-30
5.66457e-29
7.86539e-28
1.02261e-26
1.29504e-25
2.08763e-24
4.22545e-23
3.60458e-22
9.02107e-22
5.03817e-22
1.83913e-21
1.83632e-18
5.09114e-16
1.81886e-14
3.0516e-13
2.93917e-12
-1.16925e-77
-1.19548e-89
6.41599e-81
2.74639e-77
7.41424e-74
7.41785e-70
2.38275e-64
7.24918e-62
8.92234e-61
5.075e-59
2.36478e-57
1.03396e-55
4.75182e-54
1.91916e-52
6.99534e-51
2.30964e-49
7.012e-48
1.94197e-46
4.96628e-45
1.20177e-43
2.74522e-42
5.93405e-41
1.22485e-39
2.41855e-38
4.51807e-37
7.93477e-36
1.32942e-34
2.16673e-33
3.45239e-32
5.35193e-31
8.02218e-30
1.15425e-28
1.55145e-27
1.97348e-26
3.00856e-25
5.41002e-24
4.36603e-23
1.14609e-22
9.39678e-23
3.3016e-22
3.93538e-20
6.10488e-17
3.39699e-15
7.5436e-14
9.46984e-13
-3.10706e-78
-7.01484e-83
5.2586e-81
1.73346e-77
3.97317e-74
7.84241e-70
9.53187e-65
1.11812e-62
7.81992e-62
4.6925e-60
2.25001e-58
9.83227e-57
4.3024e-55
1.67976e-53
6.0855e-52
2.05748e-50
6.32554e-49
1.73719e-47
4.41061e-46
1.07977e-44
2.51643e-43
5.56022e-42
1.17352e-40
2.37739e-39
4.60279e-38
8.47117e-37
1.49069e-35
2.53288e-34
4.17352e-33
6.61377e-32
9.89272e-31
1.41118e-29
1.96508e-28
2.59876e-27
3.3769e-26
4.40187e-25
3.35863e-24
9.83189e-24
1.06398e-23
6.00802e-23
1.09166e-20
8.55264e-18
5.37572e-16
1.39517e-14
2.19043e-13
-4.81859e-81
-3.4733e-87
5.85635e-80
1.13962e-76
1.73209e-73
8.86705e-70
6.52478e-67
4.48864e-65
4.37113e-63
2.767e-61
1.59145e-59
7.88568e-58
3.3491e-56
1.28311e-54
4.58353e-53
1.54082e-51
4.7742e-50
1.33104e-48
3.43345e-47
8.54545e-46
2.03182e-44
4.59742e-43
9.90948e-42
2.03711e-40
4.02839e-39
7.74525e-38
1.43725e-36
2.52725e-35
4.23927e-34
6.80848e-33
9.92052e-32
1.29654e-30
1.67683e-29
2.15394e-28
2.42564e-27
2.38841e-26
1.76285e-25
6.1311e-25
7.99855e-25
1.51559e-23
9.13749e-21
2.14091e-18
9.27726e-17
2.29661e-15
4.11552e-14
-4.50766e-81
-6.31258e-87
1.09992e-82
3.25852e-79
4.36802e-75
1.50833e-69
4.4023e-67
2.86848e-66
2.20816e-64
1.47038e-62
8.33409e-61
4.12351e-59
1.82177e-57
7.28113e-56
2.64763e-54
8.81075e-53
2.73131e-51
8.02397e-50
2.21833e-48
5.70936e-47
1.38681e-45
3.21227e-44
7.1101e-43
1.49908e-41
3.01619e-40
5.88433e-39
1.10585e-37
1.89887e-36
2.98915e-35
4.6419e-34
6.54591e-33
7.28946e-32
7.08893e-31
7.87202e-30
1.06557e-28
1.29922e-27
8.60061e-27
2.11773e-26
6.75205e-26
3.81681e-24
2.94517e-21
5.09358e-19
1.84414e-17
3.93499e-16
6.50277e-15
-2.08783e-81
-4.14643e-88
7.29463e-86
2.13715e-82
3.89331e-79
3.23784e-75
4.70413e-70
1.00839e-67
8.23053e-66
5.72889e-64
3.4306e-62
1.72854e-60
7.66841e-59
3.05448e-57
1.12079e-55
3.81113e-54
1.20884e-52
3.58222e-51
9.90763e-50
2.57986e-48
6.38766e-47
1.51949e-45
3.47549e-44
7.50024e-43
1.4997e-41
2.90199e-40
5.72255e-39
9.80355e-38
1.21646e-36
1.21227e-35
1.31317e-34
1.88641e-33
3.44657e-32
7.10306e-31
7.85596e-30
2.67531e-29
2.58463e-29
1.23171e-28
7.62998e-27
5.79202e-25
2.61797e-22
7.51619e-20
3.01411e-18
6.31515e-17
1.02928e-15
7.45432e-93
9.65476e-89
7.00766e-85
1.54394e-81
7.4927e-78
2.55398e-74
2.32617e-71
3.01497e-69
2.42603e-67
1.73893e-65
1.0983e-63
5.50228e-62
2.40413e-60
9.27459e-59
3.29902e-57
1.10814e-55
3.54859e-54
1.07053e-52
3.01823e-51
8.13144e-50
2.11178e-48
5.2816e-47
1.25765e-45
2.87447e-44
5.80653e-43
8.73924e-42
1.00479e-40
1.15884e-39
1.74114e-38
3.02385e-37
5.42263e-36
9.95855e-35
1.95825e-33
2.5743e-32
9.64742e-32
6.2774e-32
2.21555e-31
1.25793e-29
9.49278e-28
6.93535e-26
1.89467e-23
7.90821e-21
3.80233e-19
8.59966e-18
1.34302e-16
0
1.04426e-90
8.40953e-87
4.04601e-83
3.48968e-77
4.89513e-74
6.35168e-73
8.90533e-71
6.78373e-69
3.97326e-67
2.13889e-65
1.00505e-63
4.34886e-62
1.74518e-60
6.51829e-59
2.27581e-57
7.46392e-56
2.31417e-54
6.83482e-53
1.95954e-51
5.73125e-50
1.64553e-48
3.44531e-47
4.60646e-46
5.15711e-45
7.24155e-44
1.26225e-42
2.39102e-41
4.76863e-40
9.23002e-39
1.62405e-37
2.66122e-36
4.13542e-35
3.85083e-34
1.34776e-33
1.42611e-33
1.7677e-32
1.28886e-30
9.61563e-29
6.91309e-27
1.48571e-24
7.19741e-22
3.84038e-20
9.37523e-19
1.50165e-17
-6.56981e-91
-8.16973e-98
1.3178e-89
3.86082e-86
6.14987e-82
9.07248e-77
1.48423e-74
1.18598e-72
7.9975e-71
4.81868e-69
2.60588e-67
1.28324e-65
5.79731e-64
2.42361e-62
9.44076e-61
3.43959e-59
1.17501e-57
3.87116e-56
1.33738e-54
4.65124e-53
1.15285e-51
1.74478e-50
2.03638e-49
2.75976e-48
5.00445e-47
9.57638e-46
2.07292e-44
4.58179e-43
8.1428e-42
1.29507e-40
2.55358e-39
5.34224e-38
5.38123e-37
1.78377e-36
1.89629e-36
1.78317e-35
1.29133e-33
1.01697e-31
7.57294e-30
5.42435e-28
9.74901e-26
5.32245e-23
3.12109e-21
8.27214e-20
1.40225e-18
-2.09726e-90
1.01791e-109
1.67005e-91
4.8074e-88
1.21022e-83
1.13684e-78
1.14542e-76
9.22661e-75
6.50708e-73
4.07709e-71
2.2949e-69
1.17359e-67
5.53642e-66
2.42087e-64
9.82962e-63
3.79333e-61
1.49404e-59
5.98561e-58
1.90564e-56
3.95647e-55
5.60652e-54
7.33548e-53
1.30604e-51
2.51483e-50
5.44295e-49
1.13637e-47
1.84551e-46
2.73344e-45
5.77775e-44
1.872e-42
3.95738e-41
1.61775e-40
2.66016e-41
1.68509e-40
1.12443e-38
9.33719e-37
7.53692e-35
5.99248e-33
4.50589e-31
3.24517e-29
5.0668e-27
3.06124e-24
2.00539e-22
5.73363e-21
1.04476e-19
-2.13086e-90
-9.33577e-98
8.55907e-94
2.52548e-90
7.38319e-86
5.71734e-81
5.7057e-79
4.79418e-77
3.52142e-75
2.30129e-73
1.3579e-71
7.30758e-70
3.59635e-68
1.65508e-66
7.72006e-65
3.59734e-63
1.37675e-61
4.00945e-60
8.00707e-59
1.17556e-57
1.95438e-56
3.85771e-55
8.93988e-54
1.95105e-52
3.17148e-51
4.39311e-50
9.12753e-49
2.70427e-47
4.90871e-46
1.97966e-45
1.05894e-45
2.09276e-45
7.15806e-44
5.66788e-42
4.60268e-40
3.88521e-38
3.19166e-36
2.58589e-34
1.98558e-32
1.45189e-30
1.89055e-28
1.31667e-25
1.00694e-23
3.14063e-22
6.18266e-21
-8.55453e-91
-1.06041e-93
9.73908e-108
7.35324e-90
4.03204e-85
1.69748e-83
1.74129e-81
1.52944e-79
1.1775e-77
8.08822e-76
5.01138e-74
2.8573e-72
1.57842e-70
8.42265e-69
4.07765e-67
1.75105e-65
4.7338e-64
8.1281e-63
1.46734e-61
3.1861e-60
7.90529e-59
1.92387e-57
3.32906e-56
4.36351e-55
8.3046e-54
2.38252e-52
4.56783e-51
2.58351e-50
4.03806e-50
7.11769e-51
2.80933e-49
2.38178e-47
1.84663e-45
1.53161e-43
1.28839e-41
1.12191e-39
9.47624e-38
7.9089e-36
6.28025e-34
4.70273e-32
4.48288e-30
3.90608e-27
3.83944e-25
1.34598e-23
2.90612e-22
-1.82278e-94
-7.11012e-93
-1.05273e-92
1.36329e-94
7.62885e-89
2.53221e-86
2.76345e-84
2.59074e-82
2.12298e-80
1.55599e-78
1.08783e-76
7.34249e-75
4.23504e-73
2.27365e-71
9.24817e-70
2.28531e-68
4.70078e-67
1.11621e-65
3.02995e-64
8.53793e-63
2.12747e-61
3.60766e-60
4.94113e-59
1.08021e-57
2.45537e-56
2.98058e-55
9.9123e-55
2.67603e-57
3.44488e-55
3.71119e-53
3.70518e-51
3.42148e-49
2.86124e-47
2.61222e-45
2.34993e-43
2.14564e-41
1.90008e-39
1.65625e-37
1.37471e-35
1.07177e-33
8.92142e-32
7.15074e-29
1.0698e-26
4.41759e-25
1.07066e-23
-7.13732e-95
-3.40887e-93
-1.77004e-92
-2.86009e-109
1.5768e-94
1.83142e-89
2.08214e-87
1.98852e-85
1.85366e-83
1.83861e-81
1.12412e-79
8.03764e-78
4.71454e-76
1.75162e-74
4.91115e-73
1.33224e-71
4.06115e-70
1.3092e-68
4.43674e-67
1.13282e-65
1.71032e-64
2.60783e-63
7.26802e-62
1.40154e-60
1.29889e-59
3.83626e-59
5.62188e-62
8.78798e-60
9.67094e-58
9.82323e-56
1.09192e-53
1.25149e-51
1.4279e-49
1.61997e-47
1.79902e-45
1.90377e-43
1.93713e-41
1.87861e-39
1.72019e-37
1.46817e-35
1.22219e-33
6.44469e-31
2.04858e-28
1.08039e-26
3.03081e-25
-8.16792e-98
-4.85709e-96
-3.84411e-95
3.40955e-117
1.14153e-98
2.71705e-93
6.18701e-91
6.20029e-89
4.85027e-87
4.88326e-85
4.76181e-83
2.88122e-81
7.84638e-80
2.79071e-78
1.39303e-76
6.24527e-75
2.50118e-73
9.54955e-72
2.28941e-70
3.50714e-69
7.17247e-68
2.00008e-66
3.60156e-65
3.31817e-64
9.74223e-64
4.41131e-67
5.21234e-65
6.47937e-63
9.22662e-61
1.41187e-58
2.08224e-56
3.06483e-54
4.34361e-52
5.84177e-50
7.44175e-48
8.96682e-46
1.02616e-43
1.1069e-41
1.12288e-39
1.06443e-37
9.50175e-36
2.10284e-33
2.35741e-30
1.89058e-28
6.42327e-27
-4.9536e-105
-2.90119e-103
-5.73661e-103
-1.00591e-106
4.94079e-102
4.3759e-97
3.40889e-95
1.63099e-93
7.46594e-92
6.01634e-90
1.00631e-87
7.34021e-86
5.84167e-84
3.58636e-82
1.78882e-80
9.85402e-79
4.7532e-77
1.08021e-75
1.95201e-74
6.57548e-73
1.84799e-71
3.78891e-70
3.78398e-69
8.85944e-69
2.1331e-72
1.37527e-70
2.06545e-68
3.89815e-66
7.58938e-64
1.46709e-61
2.69983e-59
4.70964e-57
7.76636e-55
1.20817e-52
1.77016e-50
2.43956e-48
3.15955e-46
3.84324e-44
4.3895e-42
4.70755e-40
4.68373e-38
5.30493e-36
1.26071e-32
2.19935e-30
9.82966e-29
-1.35167e-105
-9.86547e-104
-4.97929e-103
-2.82042e-103
1.91517e-107
2.35633e-102
2.24385e-100
3.03463e-98
2.6e-96
2.71482e-94
2.06726e-92
1.72346e-90
1.36058e-88
7.34729e-87
4.2237e-85
1.76731e-83
5.80996e-82
2.55512e-80
1.2478e-78
4.00324e-77
8.639e-76
9.5804e-75
2.43357e-74
1.41211e-77
1.92855e-76
2.64561e-74
5.80322e-72
1.37697e-69
3.24846e-67
7.38792e-65
1.60114e-62
3.28913e-60
6.38389e-58
1.16792e-55
2.01017e-53
3.24997e-51
4.92986e-49
7.01015e-47
9.33972e-45
1.16565e-42
1.349e-40
1.49286e-38
1.69345e-35
1.44929e-32
1.02424e-30
-3.66369e-110
-1.16881e-108
-1.02552e-107
-9.68461e-107
7.10305e-114
1.96059e-108
3.60953e-106
3.53443e-104
3.24016e-102
3.75158e-100
3.49818e-98
3.61252e-96
3.25901e-94
1.4804e-92
7.34117e-91
5.15181e-89
3.4014e-87
1.45013e-85
4.25361e-84
1.34066e-82
9.57859e-82
9.42565e-82
1.75583e-83
1.30749e-82
1.01967e-80
1.80076e-78
4.40606e-76
1.24664e-73
3.60515e-71
1.01415e-68
2.72589e-66
6.94898e-64
1.67336e-61
3.79569e-59
8.09159e-57
1.61804e-54
3.03018e-52
5.30784e-50
8.68818e-48
1.32807e-45
1.89512e-43
2.49867e-41
5.37389e-39
3.82356e-35
6.50405e-33
-2.33973e-116
-7.82233e-115
-1.2999e-113
-1.07658e-112
-1.56844e-128
3.11685e-137
-1.65358e-126
5.17793e-121
1.50984e-114
2.07107e-109
9.12866e-107
1.48099e-104
2.25498e-102
2.97955e-100
1.84395e-98
1.2822e-96
1.01964e-94
4.25959e-93
7.07309e-92
2.46069e-91
9.96555e-92
4.96904e-91
4.8656e-90
5.39019e-88
9.22402e-86
2.30895e-83
7.99483e-81
3.15821e-78
1.26399e-75
4.89878e-73
1.80922e-70
6.32452e-68
2.08464e-65
6.46029e-63
1.87769e-60
5.10739e-58
1.29759e-55
3.07409e-53
6.78157e-51
1.39152e-48
2.65342e-46
4.66321e-44
7.69057e-42
1.07495e-38
1.81555e-35
-1.30036e-122
-1.26403e-121
-8.46742e-121
-7.74585e-121
9.26518e-141
4.95739e-137
7.15574e-135
5.6903e-132
1.13127e-128
7.13496e-130
3.63549e-130
6.07057e-132
1.78824e-133
4.10792e-130
9.34201e-127
1.99525e-123
3.99032e-120
6.87187e-117
3.57574e-114
1.04278e-107
2.06547e-104
1.80676e-101
1.34821e-98
8.31329e-96
3.85456e-93
1.73284e-90
9.2892e-88
5.70146e-85
3.64578e-82
2.28985e-79
1.37762e-76
7.85661e-74
4.22492e-71
2.13456e-68
1.01017e-65
4.46573e-63
1.83951e-60
7.04399e-58
2.50222e-55
8.22983e-53
2.50182e-50
7.01796e-48
1.80173e-45
4.88385e-43
1.2068e-38
-1.46993e-133
-1.02337e-133
-8.34979e-133
-5.56412e-132
4.06743e-148
9.24598e-146
1.77316e-142
5.1555e-138
3.06273e-132
7.18586e-130
1.75633e-129
1.17835e-131
8.29707e-135
1.74475e-133
4.1061e-130
9.33772e-127
4.666e-122
4.47111e-120
-8.16969e-125
-5.45469e-118
-4.76403e-117
-5.4517e-115
-8.81798e-112
-1.32753e-108
-1.85777e-105
-2.4137e-102
-2.90807e-99
-3.24552e-96
-3.35184e-93
-3.20019e-90
-2.82206e-87
-2.29646e-84
-1.72289e-81
-1.19055e-78
-7.56872e-76
-4.41994e-73
-2.36507e-70
-1.15412e-67
-5.08381e-65
-1.97198e-62
-6.27651e-60
-1.20338e-57
1.00704e-54
1.34635e-51
4.42741e-43
7.07821e-150
1.46033e-149
8.84553e-149
2.46259e-148
3.11123e-148
3.76074e-148
3.72035e-148
1.35949e-139
6.46246e-133
4.39848e-130
1.30084e-129
9.75366e-132
7.90742e-135
-3.60547e-137
-3.70243e-133
-2.63899e-129
6.86625e-121
3.326e-119
2.04629e-133
1.37199e-129
2.06335e-122
3.4172e-119
4.2791e-125
6.26744e-124
2.97465e-122
4.61829e-118
1.40263e-113
-5.53703e-115
-3.23213e-110
1.53158e-104
-1.10773e-102
-4.3982e-99
2.8302e-95
9.68812e-92
-4.50592e-90
4.81546e-86
7.14946e-82
-5.22488e-80
-6.76655e-77
1.99005e-72
-9.68183e-71
-9.76259e-68
-9.14009e-65
-7.75145e-62
5.91857e-51
)
;

boundaryField
{
    leftWall
    {
        type            zeroGradient;
    }
    rightWall
    {
        type            zeroGradient;
    }
    lowerWall
    {
        type            zeroGradient;
    }
    atmosphere
    {
        type            inletOutlet;
        inletValue      uniform 0;
        value           uniform 0;
    }
    defaultFaces
    {
        type            empty;
    }
    procBoundary2to0
    {
        type            processor;
        value           nonuniform List<scalar> 
46
(
-2.18233e-15
-1.99619e-15
-1.64192e-15
-1.22532e-15
-8.38283e-16
-5.31627e-16
-3.16004e-16
-1.7787e-16
-9.56671e-17
-4.95419e-17
-2.48504e-17
-1.21129e-17
-5.66977e-18
-2.179e-18
3.26683e-19
1.09143e-17
6.61473e-17
3.42296e-16
1.78323e-15
9.12994e-15
4.35435e-14
1.84599e-13
6.87915e-13
2.24826e-12
6.16925e-12
-5.96685e-23
-3.5072e-22
-1.73767e-21
-6.54773e-21
-2.21498e-20
-7.26498e-20
-2.20966e-19
-5.87859e-19
-1.35235e-18
-2.80165e-18
-5.5727e-18
-1.13581e-17
-2.41939e-17
-5.15527e-17
-1.03215e-16
-1.86646e-16
-2.99499e-16
-4.23542e-16
-5.2677e-16
-5.76306e-16
-5.76306e-16
)
;
    }
    procBoundary2to3
    {
        type            processor;
        value           nonuniform List<scalar> 
43
(
2.41901e-11
3.61813e-11
5.15276e-11
7.34856e-11
1.07101e-10
1.55402e-10
2.16485e-10
2.83322e-10
3.38774e-10
3.62756e-10
3.5802e-10
2.66333e-10
1.7829e-10
1.23969e-10
9.12615e-11
7.3086e-11
6.33809e-11
5.71744e-11
5.09043e-11
4.21326e-11
3.00876e-11
1.7175e-11
7.36472e-12
2.28996e-12
5.23912e-13
8.64724e-14
1.42412e-14
1.73902e-15
1.85916e-16
1.71688e-17
1.33117e-18
8.33857e-20
4.19362e-21
1.68172e-22
5.29112e-24
1.27774e-25
2.30711e-27
2.99968e-29
2.66126e-31
1.531e-33
1.39156e-35
1.13007e-38
3.04538e-48
)
;
    }
}


// ************************************************************************* //
