/*--------------------------------*- C++ -*----------------------------------*\
| =========                 |                                                 |
| \\      /  F ield         | OpenFOAM: The Open Source CFD Toolbox           |
|  \\    /   O peration     | Version:  5.0                                   |
|   \\  /    A nd           | Web:      www.OpenFOAM.org                      |
|    \\/     M anipulation  |                                                 |
\*---------------------------------------------------------------------------*/
FoamFile
{
    version     2.0;
    format      ascii;
    class       volScalarField;
    location    "0.5";
    object      p_rgh;
}
// * * * * * * * * * * * * * * * * * * * * * * * * * * * * * * * * * * * * * //

dimensions      [1 -1 -2 0 0 0 0];

internalField   nonuniform List<scalar> 
1915
(
0.285314
0.276468
0.266966
0.256838
0.245996
0.234272
0.221492
0.207542
0.192392
0.17608
0.158651
0.140095
0.120338
0.09927
0.0767989
0.0528667
0.0274037
0.000266138
-0.0287752
-0.0599577
-0.093409
-0.129081
-0.166783
-0.206268
-0.247313
0.328879
0.329014
0.329248
0.329086
0.328579
0.327729
0.326549
0.32502
0.32309
0.320689
0.31776
0.314283
0.310282
0.305801
0.300882
0.295543
0.289768
0.283508
0.276685
0.269208
0.261022
0.252135
0.242608
0.232441
0.221549
0.209791
0.19702
0.183132
0.168087
0.151893
0.134563
0.116077
0.0963732
0.0753624
0.05296
0.0290877
0.00364311
-0.0235355
-0.0526629
-0.0839443
-0.117491
-0.153271
-0.191127
-0.230848
-0.272182
0.307984
0.308057
0.308131
0.307812
0.307134
0.306097
0.304706
0.302947
0.300779
0.298153
0.295028
0.291392
0.287259
0.282659
0.277619
0.27215
0.266232
0.259821
0.25285
0.245252
0.236987
0.228064
0.218499
0.208264
0.197283
0.185446
0.172635
0.15876
0.143767
0.127633
0.110339
0.0918526
0.0721196
0.0510705
0.0286254
0.00468752
-0.020875
-0.0482375
-0.0775979
-0.109129
-0.142923
-0.178966
-0.217138
-0.257232
-0.29898
0.287469
0.287488
0.287419
0.286957
0.286122
0.284908
0.283314
0.281329
0.278929
0.276083
0.272768
0.268978
0.264716
0.259997
0.254833
0.249222
0.243144
0.236563
0.229429
0.221695
0.213336
0.204341
0.194697
0.184364
0.173273
0.161332
0.148443
0.134524
0.119509
0.103352
0.0860135
0.0674526
0.0476192
0.0264505
0.00386417
-0.0202514
-0.0460448
-0.0736958
-0.103391
-0.135285
-0.169466
-0.20593
-0.244573
-0.285184
-0.327446
0.26733
0.267302
0.267099
0.266499
0.26551
0.264125
0.262342
0.260153
0.257545
0.254504
0.251018
0.247081
0.24269
0.237846
0.232549
0.226789
0.220546
0.213791
0.20649
0.19861
0.190126
0.181016
0.171253
0.160792
0.149567
0.137497
0.124495
0.110478
0.0953737
0.0791209
0.0616672
0.0429652
0.0229647
0.0016017
-0.0212127
-0.0456007
-0.0717185
-0.0997456
-0.129862
-0.162217
-0.196899
-0.233914
-0.273152
-0.314386
-0.357253
0.247564
0.247491
0.247163
0.246428
0.245291
0.243745
0.241789
0.23942
0.236634
0.233425
0.229788
0.225713
0.221192
0.216218
0.210781
0.204868
0.198459
0.191532
0.18406
0.17602
0.167386
0.158131
0.14822
0.137605
0.126222
0.113996
0.100845
0.0866862
0.0714404
0.0550359
0.037411
0.0185121
-0.00171493
-0.0233386
-0.0464549
-0.0711929
-0.0977119
-0.12619
-0.156803
-0.189701
-0.224974
-0.262628
-0.302546
-0.344472
-0.388004
0.22817
0.228055
0.22761
0.226747
0.225468
0.223773
0.221661
0.219136
0.216197
0.212843
0.209068
0.204862
0.200213
0.195106
0.189528
0.183462
0.17689
0.169792
0.16215
0.153942
0.145145
0.135729
0.125652
0.114864
0.103304
0.0908995
0.0775715
0.0632357
0.0478081
0.0312097
0.0133709
-0.00576857
-0.0262691
-0.0482058
-0.0716812
-0.0968285
-0.123808
-0.152795
-0.183965
-0.217468
-0.253395
-0.291746
-0.332392
-0.375052
-0.419282
0.209155
0.208996
0.208444
0.20746
0.206049
0.204217
0.201967
0.199305
0.196233
0.192748
0.188845
0.184511
0.179734
0.174495
0.168778
0.162564
0.155835
0.148575
0.140767
0.132395
0.123435
0.113852
0.103603
0.0926347
0.080887
0.0682898
0.0547652
0.0402281
0.024591
0.00776912
-0.0103135
-0.0297242
-0.0505308
-0.0728161
-0.0966885
-0.122284
-0.149763
-0.179299
-0.211067
-0.245217
-0.281836
-0.320916
-0.362315
-0.40573
-0.450681
0.190525
0.190323
0.189673
0.188577
0.187045
0.185088
0.182714
0.179929
0.176733
0.173125
0.169098
0.164639
0.159735
0.154368
0.148518
0.142165
0.135292
0.127883
0.119925
0.111401
0.102287
0.0925447
0.0821272
0.0709805
0.0590442
0.0462501
0.032521
0.017771
0.00190982
-0.0151514
-0.033494
-0.0531922
-0.0743218
-0.0969734
-0.121261
-0.147322
-0.175317
-0.20542
-0.237806
-0.272621
-0.309947
-0.349769
-0.391934
-0.436124
-0.48183
0.172292
0.172044
0.171307
0.170109
0.168467
0.166397
0.163909
0.161008
0.157694
0.153965
0.149815
0.145232
0.140205
0.134715
0.128743
0.122266
0.115266
0.107729
0.0996423
0.0909879
0.0817374
0.0718503
0.0612768
0.0499622
0.0378468
0.0248634
0.010935
-0.00402569
-0.0201112
-0.0374132
-0.0560174
-0.0760046
-0.0974586
-0.120477
-0.145178
-0.171701
-0.200208
-0.230873
-0.263872
-0.299348
-0.337377
-0.377937
-0.420873
-0.465862
-0.51238
0.154466
0.154172
0.153356
0.152067
0.150325
0.148151
0.145556
0.142544
0.139116
0.135268
0.130996
0.126294
0.12115
0.115548
0.109467
0.102883
0.095779
0.0881386
0.0799476
0.0711857
0.0618207
0.0518089
0.0410993
0.0296371
0.0173635
0.00421149
-0.00989728
-0.0250518
-0.0413467
-0.0588758
-0.0777286
-0.0979919
-0.119757
-0.143126
-0.168221
-0.195184
-0.224177
-0.255379
-0.288963
-0.32507
-0.363775
-0.405057
-0.448766
-0.494588
-0.542001
0.137055
0.136714
0.135826
0.134456
0.132625
0.130357
0.127663
0.124547
0.121008
0.117047
0.112662
0.107849
0.102599
0.0968987
0.0907248
0.0840545
0.0768674
0.0691466
0.060875
0.0520284
0.0425715
0.0324588
0.021639
0.0100584
-0.00234159
-0.0156293
-0.0298859
-0.0452029
-0.0616772
-0.0794046
-0.098478
-0.118989
-0.141035
-0.164722
-0.190174
-0.217534
-0.24697
-0.278659
-0.312776
-0.349463
-0.388797
-0.43077
-0.475253
-0.52195
-0.570368
0.120061
0.119679
0.11872
0.117275
0.115367
0.113017
0.110235
0.107026
0.10339
0.0993292
0.0948447
0.0899367
0.0845991
0.078817
0.0725688
0.0658305
0.0585802
0.0507991
0.0424668
0.0335561
0.0240293
0.013841
0.00294137
-0.00872241
-0.0212096
-0.0345913
-0.0489526
-0.0643889
-0.0809993
-0.0988817
-0.118132
-0.138848
-0.161127
-0.185079
-0.210829
-0.238523
-0.268331
-0.300434
-0.335009
-0.3722
-0.412098
-0.454719
-0.499963
-0.547577
-0.597113
0.103476
0.103083
0.102028
0.100528
0.0985536
0.0961342
0.0932813
0.0899979
0.0862854
0.0821468
0.0775865
0.0726067
0.0672023
0.0613592
0.0550556
0.0482674
0.040972
0.0331484
0.0247734
0.0158175
0.00624281
-0.00399473
-0.0149425
-0.0266521
-0.0391846
-0.052615
-0.067033
-0.0825376
-0.0992306
-0.117213
-0.136582
-0.157439
-0.179883
-0.204025
-0.22999
-0.257929
-0.288015
-0.320434
-0.355364
-0.39296
-0.433335
-0.476536
-0.52251
-0.571055
-0.621793
0.0872616
0.086918
0.0857944
0.0842178
0.0821845
0.0797125
0.0768096
0.0734772
0.0697161
0.0655301
0.0609242
0.0559011
0.0504559
0.0445745
0.038236
0.031417
0.0240946
0.0162463
0.00784714
-0.00113371
-0.0107331
-0.0209922
-0.0319555
-0.0436742
-0.0562112
-0.0696455
-0.0840706
-0.0995886
-0.116304
-0.134319
-0.153735
-0.174653
-0.197174
-0.221407
-0.247482
-0.275552
-0.305796
-0.338403
-0.373558
-0.411432
-0.452166
-0.495847
-0.542473
-0.591915
-0.643876
0.0715555
0.0711082
0.0699663
0.0683361
0.0662598
0.0637552
0.060827
0.0574745
0.0536974
0.0494981
0.0448805
0.0398457
0.034388
0.0284938
0.0221439
0.0153163
0.00798853
0.000137069
-0.00826441
-0.0172467
-0.0268446
-0.037096
-0.0480427
-0.0597352
-0.0722379
-0.0856321
-0.100013
-0.115485
-0.132155
-0.150127
-0.169505
-0.190389
-0.212879
-0.237088
-0.263146
-0.291214
-0.321473
-0.354118
-0.389344
-0.427339
-0.468275
-0.512285
-0.559427
-0.609649
-0.662757
0.0562789
0.0557423
0.0545651
0.0528915
0.0507867
0.0482685
0.045339
0.0419953
0.0382342
0.0340552
0.0294589
0.0244437
0.019003
0.0131244
0.00679074
-1.79187e-05
-0.00732361
-0.0151506
-0.0235262
-0.0324806
-0.0420463
-0.0522579
-0.0631548
-0.0747858
-0.0872151
-0.100523
-0.114806
-0.130168
-0.146717
-0.164562
-0.183806
-0.204549
-0.226893
-0.250949
-0.276854
-0.304771
-0.334887
-0.3674
-0.402517
-0.440443
-0.481382
-0.525514
-0.572959
-0.62375
-0.677806
0.0414377
0.0408291
0.0396096
0.0378987
0.0357768
0.0332604
0.0303496
0.0270386
0.0233207
0.0191907
0.0146447
0.00967833
0.0042844
-0.00154775
-0.00783271
-0.0145888
-0.0218381
-0.0296057
-0.0379197
-0.0468096
-0.0563057
-0.0664399
-0.0772488
-0.0887789
-0.101091
-0.114263
-0.128387
-0.143569
-0.159918
-0.177545
-0.196555
-0.217047
-0.23912
-0.26289
-0.288496
-0.316104
-0.345904
-0.378098
-0.412899
-0.450532
-0.49123
-0.535216
-0.582674
-0.633722
-0.688396
0.0270544
0.0263754
0.025117
0.0233747
0.0212435
0.0187397
0.0158613
0.0125998
0.00894436
0.00488456
0.000412187
-0.00447945
-0.00979709
-0.0155495
-0.0217491
-0.0284136
-0.0355655
-0.0432315
-0.0514401
-0.0602202
-0.0696004
-0.0796108
-0.0902854
-0.101667
-0.113812
-0.126791
-0.140693
-0.155623
-0.171692
-0.189012
-0.207686
-0.227812
-0.24949
-0.272835
-0.29799
-0.325121
-0.354419
-0.386086
-0.420344
-0.457431
-0.497603
-0.541125
-0.588235
-0.639129
-0.693957
0.0131464
0.0123974
0.0111047
0.00933624
0.00720119
0.00471585
0.00187711
-0.00132585
-0.00490787
-0.00888365
-0.0132647
-0.0180587
-0.0232715
-0.0289099
-0.0349852
-0.0415154
-0.0485242
-0.0560397
-0.0640908
-0.0727063
-0.0819143
-0.091744
-0.102228
-0.113404
-0.125323
-0.13805
-0.151667
-0.166277
-0.181991
-0.198918
-0.217159
-0.236808
-0.257964
-0.280744
-0.305288
-0.331765
-0.360361
-0.391283
-0.424754
-0.46102
-0.500356
-0.543057
-0.589405
-0.639655
-0.694052
-0.00027376
-0.00109126
-0.00241313
-0.00420306
-0.00633849
-0.00880239
-0.0115985
-0.0147393
-0.0182422
-0.0221248
-0.0264003
-0.0310762
-0.036157
-0.041648
-0.0475602
-0.0539125
-0.0607303
-0.0680425
-0.0758787
-0.084268
-0.0932397
-0.102824
-0.113053
-0.123961
-0.135591
-0.148002
-0.161272
-0.175498
-0.190787
-0.207242
-0.224956
-0.24402
-0.26453
-0.286601
-0.310374
-0.336014
-0.363708
-0.39366
-0.426094
-0.461257
-0.499434
-0.540934
-0.586068
-0.635133
-0.688432
-0.0132015
-0.0140849
-0.0154309
-0.0172373
-0.0193695
-0.0218093
-0.0245604
-0.0276359
-0.0310546
-0.0348351
-0.0389911
-0.0435291
-0.0484518
-0.0537637
-0.059476
-0.0656088
-0.0721887
-0.0792456
-0.0868095
-0.0949114
-0.103583
-0.112857
-0.122765
-0.133338
-0.144615
-0.156646
-0.169505
-0.183282
-0.198075
-0.213977
-0.231072
-0.249446
-0.269189
-0.290415
-0.31326
-0.337888
-0.364484
-0.39325
-0.424402
-0.458183
-0.494876
-0.534792
-0.578248
-0.625561
-0.677065
-0.0256422
-0.0265883
-0.0279532
-0.0297702
-0.031894
-0.0343046
-0.0370052
-0.0400085
-0.0433335
-0.0469994
-0.0510189
-0.0553973
-0.0601358
-0.0652382
-0.0707165
-0.076592
-0.0828921
-0.0896473
-0.0968889
-0.10465
-0.112967
-0.121873
-0.1314
-0.141576
-0.152434
-0.164019
-0.176397
-0.189652
-0.203869
-0.219132
-0.235515
-0.253096
-0.271961
-0.292217
-0.313994
-0.337452
-0.362772
-0.390149
-0.419789
-0.451923
-0.48682
-0.524778
-0.566107
-0.611118
-0.660152
-0.0376109
-0.038616
-0.0399941
-0.0418146
-0.0439222
-0.0462943
-0.0489331
-0.0518508
-0.0550663
-0.0585988
-0.0624602
-0.0666545
-0.0711817
-0.0760456
-0.0812592
-0.0868448
-0.0928307
-0.0992476
-0.106129
-0.113509
-0.121428
-0.12992
-0.139015
-0.148735
-0.159108
-0.170175
-0.181997
-0.194648
-0.208204
-0.222737
-0.238315
-0.255008
-0.272895
-0.292072
-0.312661
-0.334813
-0.358701
-0.384508
-0.412427
-0.442671
-0.475489
-0.511155
-0.549954
-0.592178
-0.638147
-0.0491285
-0.0501879
-0.051573
-0.053389
-0.0554697
-0.0577897
-0.0603499
-0.0631622
-0.0662463
-0.0696215
-0.0732996
-0.0772833
-0.0815722
-0.0861709
-0.0910935
-0.0963634
-0.102009
-0.108062
-0.114555
-0.121526
-0.129014
-0.137052
-0.145664
-0.154871
-0.164693
-0.17517
-0.186358
-0.198322
-0.211131
-0.224849
-0.239535
-0.255254
-0.272074
-0.290079
-0.309377
-0.330108
-0.352431
-0.376515
-0.402534
-0.430684
-0.461186
-0.494284
-0.530229
-0.569278
-0.611716
-0.0602176
-0.0613252
-0.0627107
-0.0645133
-0.0665547
-0.0688058
-0.0712669
-0.0739506
-0.0768784
-0.0800707
-0.0835393
-0.0872867
-0.091313
-0.0956239
-0.100235
-0.10517
-0.110457
-0.116126
-0.12221
-0.128746
-0.135771
-0.143314
-0.151395
-0.160029
-0.169236
-0.179055
-0.189536
-0.20074
-0.212727
-0.225553
-0.239272
-0.253939
-0.269612
-0.286361
-0.304279
-0.323492
-0.344142
-0.36638
-0.390364
-0.416264
-0.444274
-0.474603
-0.507463
-0.543065
-0.581654
-0.0708988
-0.0720471
-0.0734267
-0.0752066
-0.0771955
-0.0793602
-0.0817014
-0.084234
-0.0869822
-0.089968
-0.0932043
-0.0966939
-0.100438
-0.104444
-0.108727
-0.113311
-0.118222
-0.123489
-0.129141
-0.135215
-0.141742
-0.148748
-0.156248
-0.164254
-0.172789
-0.181888
-0.191603
-0.201984
-0.213086
-0.224955
-0.23764
-0.251185
-0.265638
-0.281055
-0.297517
-0.315134
-0.334031
-0.354339
-0.376193
-0.399743
-0.425151
-0.452589
-0.482232
-0.514244
-0.548821
-0.0811899
-0.0823709
-0.0837385
-0.0854872
-0.0874113
-0.0894743
-0.0916783
-0.0940418
-0.0965921
-0.0993538
-0.102341
-0.105557
-0.109004
-0.11269
-0.116631
-0.120846
-0.12536
-0.130199
-0.135392
-0.140972
-0.146967
-0.153396
-0.160273
-0.167607
-0.175423
-0.183755
-0.19265
-0.202154
-0.212313
-0.223168
-0.234758
-0.247119
-0.260288
-0.274311
-0.289256
-0.30522
-0.322309
-0.340635
-0.360312
-0.381461
-0.404219
-0.428724
-0.455117
-0.483516
-0.514058
-0.0911084
-0.0923142
-0.093665
-0.0953755
-0.0972254
-0.0991756
-0.101231
-0.103414
-0.105755
-0.108281
-0.111008
-0.11394
-0.117078
-0.12043
-0.124007
-0.12783
-0.131919
-0.136301
-0.141005
-0.146062
-0.151495
-0.15732
-0.163543
-0.170174
-0.177233
-0.184756
-0.192783
-0.201358
-0.210519
-0.220305
-0.230747
-0.241874
-0.253709
-0.26629
-0.279676
-0.293949
-0.309199
-0.325519
-0.343001
-0.361747
-0.381863
-0.403462
-0.426657
-0.451518
-0.478121
-0.100677
-0.1019
-0.10323
-0.104898
-0.106668
-0.108499
-0.110399
-0.112395
-0.114521
-0.116807
-0.119266
-0.121904
-0.12472
-0.127719
-0.130911
-0.134313
-0.137949
-0.141847
-0.146037
-0.150549
-0.155402
-0.160602
-0.16615
-0.172051
-0.178323
-0.184997
-0.192113
-0.199708
-0.207823
-0.216491
-0.225742
-0.235593
-0.246059
-0.257166
-0.268964
-0.281522
-0.294919
-0.309231
-0.324534
-0.340908
-0.358437
-0.377209
-0.397314
-0.418778
-0.441617
-0.109925
-0.11116
-0.112467
-0.11409
-0.115777
-0.117485
-0.119228
-0.121034
-0.122942
-0.12498
-0.127166
-0.129499
-0.13198
-0.134608
-0.137393
-0.140354
-0.143516
-0.146911
-0.150573
-0.154526
-0.158782
-0.163339
-0.16819
-0.173336
-0.178791
-0.184583
-0.190749
-0.197328
-0.204357
-0.211871
-0.219893
-0.228435
-0.237503
-0.247113
-0.257307
-0.268142
-0.279689
-0.292012
-0.305174
-0.319236
-0.334265
-0.350321
-0.367476
-0.38572
-0.405015
-0.118886
-0.120125
-0.121407
-0.122989
-0.124595
-0.12618
-0.127763
-0.129376
-0.131059
-0.132845
-0.134746
-0.136766
-0.138898
-0.141144
-0.143512
-0.146023
-0.148705
-0.151592
-0.154716
-0.158097
-0.161737
-0.165628
-0.169757
-0.174122
-0.178734
-0.183621
-0.188814
-0.194352
-0.20027
-0.206601
-0.213365
-0.220569
-0.228216
-0.236315
-0.244899
-0.254018
-0.263733
-0.274101
-0.285174
-0.297
-0.309626
-0.323095
-0.337459
-0.352681
-0.368685
-0.127568
-0.12882
-0.130084
-0.131638
-0.133168
-0.134631
-0.13605
-0.137464
-0.138916
-0.140439
-0.142049
-0.143747
-0.145528
-0.147391
-0.149344
-0.151408
-0.153612
-0.155989
-0.158566
-0.161357
-0.164361
-0.167561
-0.170945
-0.174509
-0.178263
-0.18223
-0.186439
-0.190923
-0.195714
-0.200842
-0.206327
-0.212175
-0.218388
-0.224972
-0.231952
-0.23937
-0.247281
-0.255735
-0.264777
-0.274443
-0.284766
-0.295776
-0.307511
-0.319916
-0.332894
-0.135976
-0.137283
-0.138541
-0.140087
-0.141548
-0.142889
-0.144139
-0.145346
-0.146558
-0.147813
-0.149129
-0.150507
-0.151942
-0.153429
-0.154974
-0.156596
-0.158321
-0.160181
-0.162199
-0.164387
-0.166737
-0.169233
-0.17186
-0.174614
-0.177503
-0.180544
-0.183762
-0.187185
-0.190842
-0.194761
-0.19896
-0.203448
-0.208225
-0.213299
-0.218689
-0.224431
-0.230572
-0.237157
-0.244223
-0.251802
-0.259917
-0.268588
-0.277844
-0.287623
-0.297818
-0.144182
-0.145588
-0.146837
-0.148402
-0.149798
-0.15101
-0.152086
-0.153081
-0.154051
-0.155039
-0.156064
-0.157128
-0.158222
-0.159339
-0.160479
-0.161656
-0.162897
-0.164232
-0.165685
-0.167262
-0.168956
-0.170748
-0.172621
-0.174566
-0.176588
-0.178702
-0.180928
-0.183291
-0.18582
-0.188537
-0.19146
-0.194597
-0.197952
-0.201531
-0.205351
-0.209443
-0.213848
-0.218605
-0.223749
-0.229308
-0.235304
-0.241748
-0.24866
-0.25598
-0.263606
-0.15232
-0.153782
-0.154962
-0.156616
-0.157966
-0.159053
-0.159956
-0.160743
-0.161476
-0.162202
-0.162943
-0.163697
-0.164451
-0.165193
-0.16592
-0.166648
-0.167401
-0.168212
-0.169103
-0.170078
-0.171125
-0.172222
-0.173346
-0.174488
-0.175649
-0.176843
-0.178088
-0.179408
-0.180828
-0.182367
-0.184038
-0.185849
-0.187806
-0.189914
-0.19219
-0.194659
-0.197359
-0.200326
-0.203595
-0.207197
-0.211151
-0.215468
-0.220156
-0.225163
-0.230402
-0.160111
-0.161899
-0.162807
-0.164749
-0.166115
-0.167098
-0.16784
-0.168428
-0.168932
-0.169402
-0.169856
-0.170293
-0.170697
-0.171055
-0.171365
-0.171644
-0.171918
-0.172217
-0.172559
-0.172944
-0.173354
-0.173763
-0.174148
-0.1745
-0.174818
-0.175114
-0.175406
-0.175715
-0.17606
-0.176457
-0.176914
-0.177438
-0.178032
-0.178702
-0.179462
-0.18034
-0.181368
-0.182586
-0.184029
-0.185728
-0.187704
-0.189967
-0.192525
-0.195342
-0.198341
-0.166243
-0.170464
-0.170526
-0.173056
-0.174471
-0.175326
-0.17589
-0.176271
-0.176537
-0.176738
-0.176891
-0.176995
-0.177036
-0.177005
-0.176903
-0.176746
-0.176557
-0.17636
-0.176165
-0.175966
-0.175743
-0.175473
-0.175136
-0.174721
-0.17423
-0.173669
-0.173052
-0.172396
-0.171714
-0.171017
-0.170309
-0.169591
-0.168865
-0.168138
-0.167426
-0.166756
-0.166161
-0.165681
-0.165348
-0.165194
-0.165243
-0.165509
-0.166005
-0.166719
-0.167591
-0.16973
-0.180457
-0.178797
-0.182098
-0.183397
-0.183984
-0.184291
-0.184419
-0.184414
-0.184316
-0.184144
-0.183897
-0.183568
-0.183151
-0.182648
-0.182068
-0.181428
-0.180741
-0.180011
-0.179231
-0.178385
-0.177454
-0.176421
-0.175279
-0.174024
-0.172659
-0.171189
-0.169625
-0.167975
-0.16624
-0.164421
-0.162516
-0.160529
-0.158466
-0.156343
-0.154189
-0.152037
-0.149921
-0.147873
-0.145925
-0.144104
-0.142435
-0.140935
-0.139608
-0.138427
-0.173557
-0.192055
-0.187283
-0.191808
-0.192888
-0.193111
-0.193121
-0.19297
-0.192666
-0.192243
-0.191723
-0.191113
-0.19041
-0.189608
-0.188704
-0.187701
-0.186605
-0.185427
-0.184168
-0.182822
-0.181376
-0.179815
-0.178126
-0.176301
-0.174333
-0.172219
-0.169957
-0.167547
-0.164988
-0.162279
-0.159417
-0.1564
-0.153233
-0.149921
-0.146479
-0.142934
-0.139315
-0.135653
-0.131978
-0.128323
-0.12472
-0.121199
-0.117783
-0.11449
-0.111317
-0.180009
-0.209932
-0.194798
-0.201922
-0.203014
-0.202873
-0.202553
-0.202081
-0.201432
-0.200642
-0.199742
-0.198747
-0.197652
-0.196449
-0.195129
-0.193692
-0.19214
-0.190482
-0.188716
-0.186836
-0.184829
-0.182682
-0.180383
-0.177924
-0.175297
-0.172491
-0.169497
-0.166307
-0.162913
-0.15931
-0.155497
-0.151474
-0.147243
-0.142809
-0.138183
-0.133383
-0.128436
-0.123368
-0.11821
-0.112996
-0.107761
-0.102538
-0.0973558
-0.0922492
-0.0872397
-0.153249
-0.267052
-0.213954
-0.217911
-0.216761
-0.215004
-0.213567
-0.212294
-0.211017
-0.209692
-0.208311
-0.206864
-0.205333
-0.2037
-0.201951
-0.200081
-0.198091
-0.195982
-0.193748
-0.191377
-0.188856
-0.186173
-0.183317
-0.180279
-0.17705
-0.173613
-0.169954
-0.166061
-0.161923
-0.157534
-0.152894
-0.148003
-0.142862
-0.137472
-0.131836
-0.125968
-0.119888
-0.113622
-0.107198
-0.100649
-0.0940112
-0.0873195
-0.0806122
-0.0739381
-0.0673464
-0.0147153
-0.394066
-0.26774
-0.246109
-0.236522
-0.230767
-0.226918
-0.224108
-0.221801
-0.21972
-0.217727
-0.215742
-0.213717
-0.211619
-0.209427
-0.207124
-0.204702
-0.202151
-0.199458
-0.19661
-0.193594
-0.190396
-0.187004
-0.183408
-0.179595
-0.17555
-0.171258
-0.166707
-0.161887
-0.15679
-0.151411
-0.145749
-0.139801
-0.133566
-0.127047
-0.120252
-0.113194
-0.105893
-0.0983693
-0.0906493
-0.0827581
-0.074722
-0.0665639
-0.0582951
-0.0499049
)
;

boundaryField
{
    leftWall
    {
        type            fixedFluxPressure;
        gradient        uniform 0;
        value           nonuniform List<scalar> 
42
(
0.328879
0.307984
0.287469
0.26733
0.247564
0.22817
0.209155
0.190525
0.172292
0.154466
0.137055
0.120061
0.103476
0.0872616
0.0715555
0.0562789
0.0414377
0.0270544
0.0131464
-0.00027376
-0.0132015
-0.0256422
-0.0376109
-0.0491285
-0.0602176
-0.0708988
-0.0811899
-0.0911084
-0.100677
-0.109925
-0.118886
-0.127568
-0.135976
-0.144182
-0.15232
-0.160111
-0.166243
-0.16973
-0.173557
-0.180009
-0.153249
-0.0147153
)
;
    }
    rightWall
    {
        type            fixedFluxPressure;
        gradient        nonuniform 0();
        value           nonuniform 0();
    }
    lowerWall
    {
        type            fixedFluxPressure;
        gradient        nonuniform 0();
        value           nonuniform 0();
    }
    atmosphere
    {
        type            totalPressure;
        rho             rho;
        psi             none;
        gamma           1;
        p0              uniform 0;
        value           nonuniform List<scalar> 
45
(
-0.10021
-0.275106
-0.252058
-0.244817
-0.239483
-0.235482
-0.232303
-0.229623
-0.227221
-0.224956
-0.222742
-0.220523
-0.218262
-0.215933
-0.213517
-0.210997
-0.208354
-0.205575
-0.202645
-0.199551
-0.196281
-0.192821
-0.189156
-0.185274
-0.18116
-0.176804
-0.172194
-0.167319
-0.16217
-0.156738
-0.151017
-0.145002
-0.138692
-0.132091
-0.125206
-0.118047
-0.110629
-0.102974
-0.0951087
-0.0870673
-0.0788915
-0.0706313
-0.0623453
-0.054101
-0.045978
)
;
    }
    defaultFaces
    {
        type            empty;
    }
    procBoundary2to0
    {
        type            processor;
        value           nonuniform List<scalar> 
46
(
0.309765
0.300968
0.291503
0.28139
0.270541
0.25878
0.245931
0.231877
0.216602
0.200155
0.182589
0.163898
0.143999
0.122775
0.100132
0.0760196
0.0503842
0.0230972
-0.00606251
-0.0373347
-0.0708522
-0.106561
-0.144247
-0.183667
-0.224617
0.350143
0.350363
0.350785
0.350811
0.350499
0.349853
0.348882
0.347568
0.345851
0.343652
0.340907
0.337593
0.333738
0.32939
0.324596
0.319372
0.313703
0.307545
0.300824
0.293437
0.293437
)
;
    }
    procBoundary2to3
    {
        type            processor;
        value           nonuniform List<scalar> 
43
(
-0.289625
-0.314743
-0.341925
-0.370853
-0.401184
-0.432509
-0.464394
-0.496438
-0.528291
-0.559648
-0.590236
-0.619764
-0.647876
-0.674098
-0.697826
-0.718341
-0.734866
-0.746594
-0.752772
-0.75279
-0.746262
-0.733106
-0.713573
-0.688222
-0.657873
-0.623526
-0.586222
-0.546966
-0.506646
-0.46597
-0.425472
-0.385548
-0.346479
-0.308447
-0.27155
-0.235868
-0.201492
-0.168567
-0.137331
-0.108222
-0.0823197
-0.0608864
-0.0413237
)
;
    }
}


// ************************************************************************* //
