/*--------------------------------*- C++ -*----------------------------------*\
| =========                 |                                                 |
| \\      /  F ield         | OpenFOAM: The Open Source CFD Toolbox           |
|  \\    /   O peration     | Version:  5.0                                   |
|   \\  /    A nd           | Web:      www.OpenFOAM.org                      |
|    \\/     M anipulation  |                                                 |
\*---------------------------------------------------------------------------*/
FoamFile
{
    version     2.0;
    format      ascii;
    class       surfaceScalarField;
    location    "0.5";
    object      phi;
}
// * * * * * * * * * * * * * * * * * * * * * * * * * * * * * * * * * * * * * //

dimensions      [0 3 -1 0 0 0 0];

internalField   nonuniform List<scalar> 
3742
(
1.66785e-05
-5.99114e-05
1.80052e-05
-5.94417e-05
1.93987e-05
-5.90098e-05
2.08631e-05
-5.8621e-05
2.24025e-05
-5.82809e-05
2.40218e-05
-5.79954e-05
2.57257e-05
-5.77706e-05
2.75198e-05
-5.76129e-05
2.94096e-05
-5.75284e-05
3.14008e-05
-5.75229e-05
3.34995e-05
-5.76012e-05
3.57116e-05
-5.77663e-05
3.80427e-05
-5.80194e-05
4.04982e-05
-5.8358e-05
4.30822e-05
-5.8776e-05
4.57979e-05
-5.92621e-05
4.86462e-05
-5.97995e-05
5.16258e-05
-6.03649e-05
5.47321e-05
-6.09286e-05
5.79564e-05
-6.14537e-05
6.12856e-05
-6.18974e-05
6.47011e-05
-6.22107e-05
6.81783e-05
-6.23406e-05
7.1687e-05
-6.22315e-05
-6.18273e-05
5.39945e-07
-6.46047e-05
8.80944e-07
-6.90027e-05
1.26159e-06
-6.94684e-05
1.67659e-06
-6.94203e-05
2.12434e-06
-6.91741e-05
2.60569e-06
-6.88207e-05
3.12214e-06
-6.83994e-05
3.67534e-06
-6.79309e-05
4.2669e-06
-6.74284e-05
4.89832e-06
-6.69012e-05
5.57109e-06
-6.63564e-05
6.28664e-06
-6.58003e-05
7.0464e-06
-6.52382e-05
7.85186e-06
-6.46751e-05
8.7046e-06
-6.41158e-05
9.60634e-06
-6.35648e-05
1.05589e-05
-6.30265e-05
1.15645e-05
-6.25054e-05
1.26255e-05
-6.20061e-05
1.37444e-05
-6.15331e-05
1.49241e-05
-6.10912e-05
1.61678e-05
-6.06854e-05
1.74789e-05
-6.03209e-05
1.88611e-05
-6.00032e-05
2.03185e-05
-5.97382e-05
2.18552e-05
-5.95321e-05
2.34759e-05
-5.93913e-05
2.51854e-05
-5.93224e-05
2.69888e-05
-5.93318e-05
2.88914e-05
-5.94255e-05
3.08987e-05
-5.96084e-05
3.30161e-05
-5.98837e-05
3.52489e-05
-6.02522e-05
3.76021e-05
-6.07112e-05
4.00797e-05
-6.12535e-05
4.26845e-05
-6.18669e-05
4.54176e-05
-6.25326e-05
4.82777e-05
-6.3225e-05
5.12601e-05
-6.3911e-05
5.43562e-05
-6.45499e-05
5.75527e-05
-6.50939e-05
6.08307e-05
-6.54887e-05
6.41652e-05
-6.56751e-05
6.75246e-05
-6.55908e-05
-6.51732e-05
4.58835e-07
-6.50635e-05
7.47191e-07
-6.92911e-05
1.06825e-06
-6.97895e-05
1.41763e-06
-6.97697e-05
1.79521e-06
-6.95516e-05
2.20275e-06
-6.92283e-05
2.64241e-06
-6.88391e-05
3.11637e-06
-6.84049e-05
3.62669e-06
-6.79387e-05
4.17533e-06
-6.74498e-05
4.76414e-06
-6.69452e-05
5.39493e-06
-6.64311e-05
6.06948e-06
-6.59127e-05
6.78957e-06
-6.53952e-05
7.55702e-06
-6.48833e-05
8.37376e-06
-6.43815e-05
9.24186e-06
-6.38946e-05
1.01635e-05
-6.34271e-05
1.11412e-05
-6.29837e-05
1.21774e-05
-6.25693e-05
1.32749e-05
-6.21887e-05
1.44367e-05
-6.18472e-05
1.5666e-05
-6.15502e-05
1.69661e-05
-6.13034e-05
1.83408e-05
-6.11129e-05
1.97939e-05
-6.09852e-05
2.13294e-05
-6.09268e-05
2.29517e-05
-6.09447e-05
2.46652e-05
-6.10454e-05
2.64747e-05
-6.1235e-05
2.8385e-05
-6.15187e-05
3.04011e-05
-6.18998e-05
3.25276e-05
-6.23788e-05
3.47692e-05
-6.29527e-05
3.71294e-05
-6.36138e-05
3.9611e-05
-6.43485e-05
4.22149e-05
-6.51364e-05
4.49396e-05
-6.59497e-05
4.77806e-05
-6.6752e-05
5.07293e-05
-6.74987e-05
5.37725e-05
-6.8137e-05
5.68909e-05
-6.86071e-05
6.00591e-05
-6.88433e-05
6.32445e-05
-6.87762e-05
-6.83363e-05
3.88807e-07
-6.54523e-05
6.30747e-07
-6.9533e-05
8.98108e-07
-7.00568e-05
1.18792e-06
-7.00595e-05
1.50143e-06
-6.98652e-05
1.84124e-06
-6.95681e-05
2.21011e-06
-6.92079e-05
2.61068e-06
-6.88054e-05
3.04544e-06
-6.83735e-05
3.51674e-06
-6.79211e-05
4.0268e-06
-6.74553e-05
4.57779e-06
-6.69821e-05
5.17177e-06
-6.65067e-05
5.81082e-06
-6.60343e-05
6.49702e-06
-6.55695e-05
7.23247e-06
-6.5117e-05
8.01939e-06
-6.46815e-05
8.86006e-06
-6.42677e-05
9.75689e-06
-6.38805e-05
1.07124e-05
-6.35248e-05
1.17292e-05
-6.32055e-05
1.281e-05
-6.29281e-05
1.39579e-05
-6.2698e-05
1.51758e-05
-6.25213e-05
1.64669e-05
-6.24041e-05
1.78347e-05
-6.23529e-05
1.92826e-05
-6.23747e-05
2.08143e-05
-6.24764e-05
2.24336e-05
-6.26647e-05
2.41446e-05
-6.2946e-05
2.59515e-05
-6.33256e-05
2.78586e-05
-6.38068e-05
2.98698e-05
-6.43901e-05
3.19893e-05
-6.50722e-05
3.42202e-05
-6.58447e-05
3.6565e-05
-6.66933e-05
3.90244e-05
-6.75958e-05
4.1597e-05
-6.85223e-05
4.42783e-05
-6.94333e-05
4.706e-05
-7.02804e-05
4.99289e-05
-7.1006e-05
5.2866e-05
-7.15443e-05
5.58456e-05
-7.18229e-05
5.88346e-05
-7.17653e-05
-7.12939e-05
3.28581e-07
-6.57809e-05
5.29526e-07
-6.9734e-05
7.48636e-07
-7.0276e-05
9.84618e-07
-7.02955e-05
1.23995e-06
-7.01205e-05
1.51795e-06
-6.98461e-05
1.82189e-06
-6.95119e-05
2.15483e-06
-6.91384e-05
2.51964e-06
-6.87383e-05
2.91901e-06
-6.83205e-05
3.35552e-06
-6.78918e-05
3.83162e-06
-6.74582e-05
4.34969e-06
-6.70248e-05
4.91204e-06
-6.65966e-05
5.52097e-06
-6.61784e-05
6.17877e-06
-6.57748e-05
6.88772e-06
-6.53905e-05
7.65018e-06
-6.50302e-05
8.46848e-06
-6.46988e-05
9.34504e-06
-6.44013e-05
1.02823e-05
-6.41428e-05
1.12829e-05
-6.39286e-05
1.23494e-05
-6.37645e-05
1.34843e-05
-6.36562e-05
1.46905e-05
-6.36103e-05
1.59707e-05
-6.36332e-05
1.73279e-05
-6.37319e-05
1.8765e-05
-6.39135e-05
2.02852e-05
-6.41849e-05
2.18917e-05
-6.45526e-05
2.3588e-05
-6.50219e-05
2.53774e-05
-6.55962e-05
2.72635e-05
-6.62762e-05
2.92496e-05
-6.70582e-05
3.13385e-05
-6.79336e-05
3.35321e-05
-6.88869e-05
3.58313e-05
-6.9895e-05
3.82345e-05
-7.09255e-05
4.07377e-05
-7.19365e-05
4.3333e-05
-7.28756e-05
4.60076e-05
-7.36806e-05
4.87432e-05
-7.42798e-05
5.15144e-05
-7.45941e-05
5.42882e-05
-7.45391e-05
-7.40292e-05
2.76979e-07
-6.60579e-05
4.41614e-07
-6.98986e-05
6.17429e-07
-7.04518e-05
8.04908e-07
-7.04829e-05
1.00758e-06
-7.03232e-05
1.22936e-06
-7.00679e-05
1.47395e-06
-6.97565e-05
1.74477e-06
-6.94092e-05
2.045e-06
-6.90385e-05
2.37767e-06
-6.86531e-05
2.74564e-06
-6.82598e-05
3.15164e-06
-6.78642e-05
3.5983e-06
-6.74715e-05
4.08815e-06
-6.70865e-05
4.62366e-06
-6.67139e-05
5.20723e-06
-6.63584e-05
5.84122e-06
-6.60245e-05
6.52797e-06
-6.57169e-05
7.26976e-06
-6.54406e-05
8.06886e-06
-6.52004e-05
8.92756e-06
-6.50015e-05
9.84808e-06
-6.48492e-05
1.08327e-05
-6.4749e-05
1.18835e-05
-6.47071e-05
1.30028e-05
-6.47296e-05
1.41927e-05
-6.48231e-05
1.54556e-05
-6.49947e-05
1.67935e-05
-6.52514e-05
1.8209e-05
-6.56003e-05
1.97043e-05
-6.60479e-05
2.12821e-05
-6.65997e-05
2.2945e-05
-6.72591e-05
2.46956e-05
-6.80268e-05
2.65366e-05
-6.88992e-05
2.84703e-05
-6.98673e-05
3.04985e-05
-7.09151e-05
3.26216e-05
-7.20181e-05
3.48386e-05
-7.31425e-05
3.71459e-05
-7.42437e-05
3.95363e-05
-7.5266e-05
4.19983e-05
-7.61426e-05
4.45146e-05
-7.67961e-05
4.70611e-05
-7.71406e-05
4.96059e-05
-7.70839e-05
-7.65317e-05
2.32816e-07
-6.62907e-05
3.65147e-07
-7.00309e-05
5.0211e-07
-7.05887e-05
6.45908e-07
-7.06267e-05
8.00958e-07
-7.04782e-05
9.71669e-07
-7.02386e-05
1.16208e-06
-6.99469e-05
1.37591e-06
-6.96231e-05
1.61664e-06
-6.92793e-05
1.88754e-06
-6.8924e-05
2.19173e-06
-6.8564e-05
2.53217e-06
-6.82046e-05
2.91168e-06
-6.7851e-05
3.33297e-06
-6.75078e-05
3.79863e-06
-6.71796e-05
4.31113e-06
-6.68709e-05
4.87286e-06
-6.65862e-05
5.48609e-06
-6.63302e-05
6.15303e-06
-6.61076e-05
6.87576e-06
-6.59232e-05
7.65631e-06
-6.5782e-05
8.49659e-06
-6.56894e-05
9.39843e-06
-6.56509e-05
1.03635e-05
-6.56722e-05
1.13935e-05
-6.57596e-05
1.249e-05
-6.59196e-05
1.36545e-05
-6.61591e-05
1.48883e-05
-6.64853e-05
1.61931e-05
-6.69051e-05
1.75703e-05
-6.74251e-05
1.90216e-05
-6.80509e-05
2.05487e-05
-6.87862e-05
2.21535e-05
-6.96316e-05
2.38379e-05
-7.05836e-05
2.56036e-05
-7.16331e-05
2.74522e-05
-7.27637e-05
2.93843e-05
-7.39502e-05
3.13991e-05
-7.51574e-05
3.34939e-05
-7.63385e-05
3.56629e-05
-7.7435e-05
3.78962e-05
-7.83759e-05
4.01787e-05
-7.90785e-05
4.24884e-05
-7.94503e-05
4.47957e-05
-7.93912e-05
-7.8798e-05
1.94879e-07
-6.64856e-05
2.98249e-07
-7.01343e-05
4.00235e-07
-7.06907e-05
5.04616e-07
-7.07311e-05
6.16549e-07
-7.05901e-05
7.40834e-07
-7.03629e-05
8.81789e-07
-7.00878e-05
1.04337e-06
-6.97846e-05
1.22928e-06
-6.94652e-05
1.44299e-06
-6.91378e-05
1.68783e-06
-6.88088e-05
1.96691e-06
-6.84837e-05
2.28323e-06
-6.81673e-05
2.63958e-06
-6.78641e-05
3.03863e-06
-6.75786e-05
3.48289e-06
-6.73151e-05
3.97471e-06
-6.7078e-05
4.51629e-06
-6.68718e-05
5.10968e-06
-6.67009e-05
5.75676e-06
-6.65702e-05
6.45926e-06
-6.64845e-05
7.21874e-06
-6.64489e-05
8.03658e-06
-6.64687e-05
8.91399e-06
-6.65496e-05
9.85201e-06
-6.66976e-05
1.08515e-05
-6.69191e-05
1.19133e-05
-6.72209e-05
1.30379e-05
-6.76099e-05
1.42259e-05
-6.80932e-05
1.54781e-05
-6.86773e-05
1.67949e-05
-6.93678e-05
1.81774e-05
-7.01686e-05
1.96264e-05
-7.10806e-05
2.11431e-05
-7.21004e-05
2.27289e-05
-7.32189e-05
2.4385e-05
-7.44197e-05
2.61121e-05
-7.56773e-05
2.79103e-05
-7.69556e-05
2.9778e-05
-7.82062e-05
3.17112e-05
-7.93682e-05
3.37025e-05
-8.03672e-05
3.57398e-05
-8.11158e-05
3.78048e-05
-8.15153e-05
3.98715e-05
-8.1458e-05
-8.08319e-05
1.61969e-07
-6.66475e-05
2.38993e-07
-7.02113e-05
3.0928e-07
-7.0761e-05
3.77934e-07
-7.07998e-05
4.50708e-07
-7.06629e-05
5.32704e-07
-7.04449e-05
6.28444e-07
-7.01836e-05
7.42061e-07
-6.98982e-05
8.77411e-07
-6.96005e-05
1.03813e-06
-6.92985e-05
1.22766e-06
-6.89983e-05
1.44925e-06
-6.87053e-05
1.70595e-06
-6.8424e-05
2.00064e-06
-6.81588e-05
2.336e-06
-6.7914e-05
2.71451e-06
-6.76936e-05
3.13845e-06
-6.7502e-05
3.6099e-06
-6.73432e-05
4.13071e-06
-6.72218e-05
4.70253e-06
-6.71421e-05
5.32677e-06
-6.71088e-05
6.00459e-06
-6.71267e-05
6.73693e-06
-6.7201e-05
7.52446e-06
-6.73371e-05
8.3676e-06
-6.75407e-05
9.26654e-06
-6.7818e-05
1.02213e-05
-6.81756e-05
1.12315e-05
-6.86202e-05
1.22971e-05
-6.91587e-05
1.34175e-05
-6.97977e-05
1.45926e-05
-7.05429e-05
1.58221e-05
-7.13982e-05
1.71062e-05
-7.23647e-05
1.84454e-05
-7.34396e-05
1.98405e-05
-7.4614e-05
2.12924e-05
-7.58717e-05
2.28025e-05
-7.71874e-05
2.43715e-05
-7.85246e-05
2.59995e-05
-7.98342e-05
2.76849e-05
-8.10536e-05
2.94236e-05
-8.21059e-05
3.12075e-05
-8.28997e-05
3.30233e-05
-8.33311e-05
3.48507e-05
-8.32854e-05
-8.26422e-05
1.32734e-07
-6.67803e-05
1.85372e-07
-7.0264e-05
2.26682e-07
-7.08023e-05
2.62744e-07
-7.08358e-05
2.99783e-07
-7.07e-05
3.43116e-07
-7.04882e-05
3.97404e-07
-7.02379e-05
4.66888e-07
-6.99677e-05
5.5552e-07
-6.96892e-05
6.67023e-07
-6.941e-05
8.04905e-07
-6.91362e-05
9.72468e-07
-6.88728e-05
1.1728e-06
-6.86243e-05
1.40877e-06
-6.83948e-05
1.68301e-06
-6.81882e-05
1.99795e-06
-6.80086e-05
2.35573e-06
-6.78597e-05
2.75828e-06
-6.77458e-05
3.20722e-06
-6.76707e-05
3.70393e-06
-6.76388e-05
4.24947e-06
-6.76543e-05
4.84462e-06
-6.77219e-05
5.48983e-06
-6.78463e-05
6.18523e-06
-6.80325e-05
6.93062e-06
-6.82861e-05
7.72551e-06
-6.86129e-05
8.56908e-06
-6.90192e-05
9.4603e-06
-6.95114e-05
1.03979e-05
-7.00963e-05
1.13807e-05
-7.07805e-05
1.24073e-05
-7.15695e-05
1.34767e-05
-7.24675e-05
1.4588e-05
-7.34761e-05
1.57411e-05
-7.45927e-05
1.69363e-05
-7.58091e-05
1.81745e-05
-7.71099e-05
1.94573e-05
-7.84702e-05
2.07867e-05
-7.9854e-05
2.21646e-05
-8.12121e-05
2.35925e-05
-8.24814e-05
2.507e-05
-8.35834e-05
2.65945e-05
-8.44242e-05
2.81589e-05
-8.48955e-05
2.97505e-05
-8.4877e-05
-8.42404e-05
1.05812e-07
-6.68861e-05
1.35488e-07
-7.02936e-05
1.49958e-07
-7.08168e-05
1.56029e-07
-7.08419e-05
1.6023e-07
-7.07042e-05
1.68042e-07
-7.0496e-05
1.84174e-07
-7.0254e-05
2.12909e-07
-6.99965e-05
2.58233e-07
-6.97345e-05
3.23891e-07
-6.94756e-05
4.13399e-07
-6.92257e-05
5.3005e-07
-6.89895e-05
6.76898e-07
-6.87712e-05
8.56754e-07
-6.85746e-05
1.07217e-06
-6.84036e-05
1.32543e-06
-6.82618e-05
1.61854e-06
-6.81529e-05
1.95319e-06
-6.80804e-05
2.33079e-06
-6.80483e-05
2.7524e-06
-6.80604e-05
3.21873e-06
-6.81206e-05
3.73015e-06
-6.82333e-05
4.28662e-06
-6.84027e-05
4.88775e-06
-6.86336e-05
5.53272e-06
-6.89311e-05
6.22035e-06
-6.93006e-05
6.94909e-06
-6.97479e-05
7.71707e-06
-7.02794e-05
8.52217e-06
-7.09014e-05
9.36216e-06
-7.16204e-05
1.02348e-05
-7.24421e-05
1.1138e-05
-7.33707e-05
1.20702e-05
-7.44083e-05
1.30304e-05
-7.55528e-05
1.40184e-05
-7.67971e-05
1.50352e-05
-7.81267e-05
1.60827e-05
-7.95178e-05
1.71642e-05
-8.09355e-05
1.82838e-05
-8.23317e-05
1.94461e-05
-8.36438e-05
2.06557e-05
-8.47929e-05
2.19156e-05
-8.56842e-05
2.32268e-05
-8.62067e-05
2.45855e-05
-8.62357e-05
-8.56367e-05
7.99333e-08
-6.6966e-05
8.75833e-08
-7.03013e-05
7.68011e-08
-7.0806e-05
5.48839e-08
-7.082e-05
2.87518e-08
-7.0678e-05
3.73482e-09
-7.0471e-05
-1.54443e-08
-7.02348e-05
-2.45103e-08
-6.99874e-05
-1.95012e-08
-6.97395e-05
3.28953e-09
-6.94984e-05
4.73281e-08
-6.92697e-05
1.15836e-07
-6.9058e-05
2.11779e-07
-6.88671e-05
3.37853e-07
-6.87007e-05
4.96469e-07
-6.85623e-05
6.89743e-07
-6.84551e-05
9.19474e-07
-6.83826e-05
1.18713e-06
-6.83481e-05
1.49383e-06
-6.8355e-05
1.84032e-06
-6.84069e-05
2.22695e-06
-6.85073e-05
2.65367e-06
-6.866e-05
3.11998e-06
-6.8869e-05
3.62495e-06
-6.91386e-05
4.16719e-06
-6.94733e-05
4.74486e-06
-6.98782e-05
5.35568e-06
-7.03587e-05
5.997e-06
-7.09207e-05
6.66585e-06
-7.15703e-05
7.35908e-06
-7.23137e-05
8.07351e-06
-7.31565e-05
8.80616e-06
-7.41034e-05
9.5545e-06
-7.51566e-05
1.03168e-05
-7.63151e-05
1.10924e-05
-7.75728e-05
1.18822e-05
-7.89164e-05
1.26886e-05
-8.03241e-05
1.3516e-05
-8.17629e-05
1.43708e-05
-8.31865e-05
1.5261e-05
-8.4534e-05
1.61962e-05
-8.57281e-05
1.71862e-05
-8.66742e-05
1.82404e-05
-8.72609e-05
1.93658e-05
-8.73611e-05
-8.6836e-05
5.39526e-08
-6.702e-05
3.99499e-08
-7.02873e-05
5.28402e-09
-7.07713e-05
-4.28059e-08
-7.07719e-05
-9.74512e-08
-7.06234e-05
-1.53133e-07
-7.04153e-05
-2.05232e-07
-7.01827e-05
-2.4957e-07
-6.99431e-05
-2.82276e-07
-6.97068e-05
-2.9974e-07
-6.9481e-05
-2.98606e-07
-6.92709e-05
-2.75778e-07
-6.90808e-05
-2.28434e-07
-6.89144e-05
-1.54045e-07
-6.87751e-05
-5.03839e-08
-6.86659e-05
8.44511e-08
-6.85899e-05
2.52022e-07
-6.85502e-05
4.53529e-07
-6.85496e-05
6.89792e-07
-6.85913e-05
9.61224e-07
-6.86783e-05
1.26781e-06
-6.88139e-05
1.60909e-06
-6.90013e-05
1.98413e-06
-6.92441e-05
2.39147e-06
-6.9546e-05
2.82919e-06
-6.99111e-05
3.29482e-06
-7.03439e-05
3.78542e-06
-7.08493e-05
4.29759e-06
-7.14329e-05
4.82755e-06
-7.21003e-05
5.3713e-06
-7.28574e-05
5.92473e-06
-7.371e-05
6.48396e-06
-7.46626e-05
7.04557e-06
-7.57182e-05
7.60706e-06
-7.68766e-05
8.16721e-06
-7.81329e-05
8.72661e-06
-7.94758e-05
9.28809e-06
-8.08856e-05
9.85713e-06
-8.23319e-05
1.04421e-05
-8.37715e-05
1.10545e-05
-8.51464e-05
1.17087e-05
-8.63823e-05
1.24216e-05
-8.73871e-05
1.32115e-05
-8.80508e-05
1.4097e-05
-8.82465e-05
-8.78337e-05
2.74496e-08
-6.70474e-05
-7.60225e-09
-7.02522e-05
-6.59061e-08
-7.0713e-05
-1.39296e-07
-7.06985e-05
-2.20908e-07
-7.05418e-05
-3.05464e-07
-7.03308e-05
-3.8849e-07
-7.00997e-05
-4.65954e-07
-6.98656e-05
-5.3413e-07
-6.96386e-05
-5.89561e-07
-6.94255e-05
-6.29055e-07
-6.92314e-05
-6.49695e-07
-6.90602e-05
-6.48856e-07
-6.89153e-05
-6.2422e-07
-6.87997e-05
-5.73793e-07
-6.87164e-05
-4.95922e-07
-6.86678e-05
-3.89315e-07
-6.86568e-05
-2.53065e-07
-6.86858e-05
-8.66654e-08
-6.87577e-05
1.0996e-07
-6.88749e-05
3.3643e-07
-6.90403e-05
5.91887e-07
-6.92567e-05
8.74962e-07
-6.95271e-05
1.18375e-06
-6.98547e-05
1.51579e-06
-7.02431e-05
1.86808e-06
-7.06962e-05
2.23704e-06
-7.12183e-05
2.61861e-06
-7.18144e-05
3.00825e-06
-7.24899e-05
3.40114e-06
-7.32503e-05
3.79233e-06
-7.41012e-05
4.17702e-06
-7.50473e-05
4.55091e-06
-7.60921e-05
4.91064e-06
-7.72363e-05
5.25434e-06
-7.84766e-05
5.5822e-06
-7.98037e-05
5.89713e-06
-8.12006e-05
6.20533e-06
-8.26401e-05
6.51689e-06
-8.40831e-05
6.84621e-06
-8.54758e-05
7.2122e-06
-8.67483e-05
7.63817e-06
-8.78131e-05
8.15143e-06
-8.8564e-05
8.78216e-06
-8.88773e-05
-8.86131e-05
1.3718e-09
-6.70488e-05
-5.53097e-08
-7.01956e-05
-1.3788e-07
-7.06305e-05
-2.36053e-07
-7.06003e-05
-3.43594e-07
-7.04342e-05
-4.55637e-07
-7.02187e-05
-5.67963e-07
-6.99874e-05
-6.76747e-07
-6.97568e-05
-7.78462e-07
-6.95369e-05
-8.69853e-07
-6.93341e-05
-9.47941e-07
-6.91533e-05
-1.01004e-06
-6.89981e-05
-1.05376e-06
-6.88716e-05
-1.07704e-06
-6.87765e-05
-1.07817e-06
-6.87152e-05
-1.05577e-06
-6.86902e-05
-1.00886e-06
-6.87037e-05
-9.36838e-07
-6.87579e-05
-8.39524e-07
-6.8855e-05
-7.17184e-07
-6.89973e-05
-5.70553e-07
-6.9187e-05
-4.00866e-07
-6.94264e-05
-2.09892e-07
-6.97181e-05
3.8761e-11
-7.00647e-05
2.2601e-07
-7.04691e-05
4.64502e-07
-7.09347e-05
7.11398e-07
-7.14652e-05
9.62011e-07
-7.20651e-05
1.21115e-06
-7.2739e-05
1.45323e-06
-7.34924e-05
1.6825e-06
-7.43304e-05
1.89327e-06
-7.52581e-05
2.08033e-06
-7.62792e-05
2.23942e-06
-7.73954e-05
2.36783e-06
-7.8605e-05
2.46513e-06
-7.9901e-05
2.53393e-06
-8.12693e-05
2.58068e-06
-8.26869e-05
2.61654e-06
-8.41189e-05
2.65804e-06
-8.55173e-05
2.72772e-06
-8.6818e-05
2.85445e-06
-8.79398e-05
3.0734e-06
-8.8783e-05
3.42558e-06
-8.92295e-05
-8.91439e-05
-2.78193e-08
-6.7021e-05
-1.06201e-07
-7.01172e-05
-2.12098e-07
-7.05246e-05
-3.34386e-07
-7.04781e-05
-4.67028e-07
-7.03016e-05
-6.05475e-07
-7.00803e-05
-7.45783e-07
-6.9847e-05
-8.84373e-07
-6.96182e-05
-1.01796e-06
-6.94033e-05
-1.14353e-06
-6.92086e-05
-1.25837e-06
-6.90385e-05
-1.36005e-06
-6.88964e-05
-1.44648e-06
-6.87851e-05
-1.5159e-06
-6.8707e-05
-1.56688e-06
-6.86642e-05
-1.59838e-06
-6.86587e-05
-1.60974e-06
-6.86923e-05
-1.60069e-06
-6.87669e-05
-1.57138e-06
-6.88843e-05
-1.52242e-06
-6.90462e-05
-1.4549e-06
-6.92545e-05
-1.3704e-06
-6.95109e-05
-1.27105e-06
-6.98175e-05
-1.15957e-06
-7.01762e-05
-1.03927e-06
-7.05894e-05
-9.14109e-07
-7.10598e-05
-7.88683e-07
-7.15906e-05
-6.68212e-07
-7.21855e-05
-5.58482e-07
-7.28488e-05
-4.65741e-07
-7.35851e-05
-3.96512e-07
-7.43997e-05
-3.57326e-07
-7.52973e-05
-3.54327e-07
-7.62822e-05
-3.92764e-07
-7.7357e-05
-4.76335e-07
-7.85214e-05
-6.06409e-07
-7.97709e-05
-7.81121e-07
-8.10946e-05
-9.94379e-07
-8.24736e-05
-1.23484e-06
-8.38785e-05
-1.4849e-06
-8.52672e-05
-1.71975e-06
-8.65831e-05
-1.90657e-06
-8.7753e-05
-2.00407e-06
-8.86855e-05
-1.9624e-06
-8.92711e-05
-8.93824e-05
-5.52183e-08
-6.69658e-05
-1.5884e-07
-7.00136e-05
-2.88626e-07
-7.03948e-05
-4.34883e-07
-7.03318e-05
-5.9213e-07
-7.01443e-05
-7.56189e-07
-6.99162e-05
-9.23428e-07
-6.96798e-05
-1.09055e-06
-6.94511e-05
-1.25455e-06
-6.92393e-05
-1.4127e-06
-6.90504e-05
-1.56258e-06
-6.88886e-05
-1.70207e-06
-6.87569e-05
-1.8294e-06
-6.86578e-05
-1.94313e-06
-6.85933e-05
-2.04219e-06
-6.85652e-05
-2.12587e-06
-6.8575e-05
-2.19386e-06
-6.86243e-05
-2.24622e-06
-6.87146e-05
-2.28347e-06
-6.8847e-05
-2.30655e-06
-6.90231e-05
-2.31687e-06
-6.92442e-05
-2.31635e-06
-6.95114e-05
-2.30745e-06
-6.98264e-05
-2.29322e-06
-7.01904e-05
-2.27732e-06
-7.06053e-05
-2.26408e-06
-7.10731e-05
-2.25847e-06
-7.15962e-05
-2.26618e-06
-7.21778e-05
-2.29349e-06
-7.28215e-05
-2.34724e-06
-7.35314e-05
-2.43464e-06
-7.43123e-05
-2.56303e-06
-7.51689e-05
-2.73949e-06
-7.61057e-05
-2.97032e-06
-7.71262e-05
-3.26041e-06
-7.82314e-05
-3.61235e-06
-7.9419e-05
-4.02553e-06
-8.06815e-05
-4.49494e-06
-8.20042e-05
-5.01005e-06
-8.33634e-05
-5.5535e-06
-8.47237e-05
-6.09992e-06
-8.60367e-05
-6.61468e-06
-8.72382e-05
-7.05294e-06
-8.82473e-05
-7.35898e-06
-8.89651e-05
-8.92753e-05
-8.34131e-08
-6.68824e-05
-2.13151e-07
-6.98838e-05
-3.67401e-07
-7.02405e-05
-5.37723e-07
-7.01615e-05
-7.19304e-07
-6.99628e-05
-9.084e-07
-6.97271e-05
-1.10172e-06
-6.94865e-05
-1.29629e-06
-6.92565e-05
-1.48939e-06
-6.90462e-05
-1.67863e-06
-6.88612e-05
-1.8619e-06
-6.87053e-05
-2.03745e-06
-6.85813e-05
-2.20384e-06
-6.84914e-05
-2.36e-06
-6.84372e-05
-2.50522e-06
-6.842e-05
-2.63916e-06
-6.84411e-05
-2.76186e-06
-6.85016e-05
-2.87375e-06
-6.86027e-05
-2.97569e-06
-6.87451e-05
-3.06896e-06
-6.89299e-05
-3.15528e-06
-6.91578e-05
-3.23689e-06
-6.94298e-05
-3.31654e-06
-6.97467e-05
-3.39755e-06
-7.01094e-05
-3.48389e-06
-7.0519e-05
-3.58015e-06
-7.09768e-05
-3.69165e-06
-7.14847e-05
-3.82442e-06
-7.20451e-05
-3.98514e-06
-7.26607e-05
-4.18117e-06
-7.33354e-05
-4.42031e-06
-7.40731e-05
-4.71064e-06
-7.48785e-05
-5.06015e-06
-7.57562e-05
-5.47627e-06
-7.671e-05
-5.96519e-06
-7.77424e-05
-6.53106e-06
-7.88531e-05
-7.17496e-06
-8.00376e-05
-7.89374e-06
-8.12854e-05
-8.67869e-06
-8.25784e-05
-9.51418e-06
-8.38883e-05
-1.03761e-05
-8.51748e-05
-1.12306e-05
-8.63838e-05
-1.20322e-05
-8.74456e-05
-1.27234e-05
-8.8274e-05
-8.87658e-05
-1.12759e-07
-6.67696e-05
-2.69053e-07
-6.97275e-05
-4.48178e-07
-7.00614e-05
-6.4271e-07
-6.9967e-05
-8.48476e-07
-6.9757e-05
-1.06217e-06
-6.95134e-05
-1.28084e-06
-6.92678e-05
-1.50185e-06
-6.90355e-05
-1.72283e-06
-6.88252e-05
-1.94171e-06
-6.86423e-05
-2.15675e-06
-6.84903e-05
-2.36656e-06
-6.83715e-05
-2.5701e-06
-6.82879e-05
-2.76666e-06
-6.82406e-05
-2.95593e-06
-6.82307e-05
-3.13796e-06
-6.82591e-05
-3.31315e-06
-6.83265e-05
-3.48231e-06
-6.84335e-05
-3.64663e-06
-6.85808e-05
-3.80772e-06
-6.87688e-05
-3.96762e-06
-6.89979e-05
-4.12883e-06
-6.92686e-05
-4.29437e-06
-6.95812e-05
-4.46781e-06
-6.99359e-05
-4.65332e-06
-7.03334e-05
-4.85574e-06
-7.07744e-05
-5.08061e-06
-7.12599e-05
-5.3342e-06
-7.17915e-05
-5.62353e-06
-7.23714e-05
-5.95632e-06
-7.30026e-05
-6.34089e-06
-7.36885e-05
-6.78597e-06
-7.44335e-05
-7.30042e-06
-7.52418e-05
-7.89278e-06
-7.61177e-05
-8.57065e-06
-7.70646e-05
-9.33996e-06
-7.80838e-05
-1.02039e-05
-7.91736e-05
-1.11618e-05
-8.03275e-05
-1.22078e-05
-8.15324e-05
-1.33293e-05
-8.27668e-05
-1.45054e-05
-8.39987e-05
-1.57053e-05
-8.51839e-05
-1.68866e-05
-8.62643e-05
-1.79936e-05
-8.71669e-05
-8.7803e-05
-1.42722e-07
-6.66269e-05
-3.26073e-07
-6.95442e-05
-5.30419e-07
-6.98571e-05
-7.49303e-07
-6.97481e-05
-9.79139e-07
-6.95272e-05
-1.21703e-06
-6.92755e-05
-1.46037e-06
-6.90245e-05
-1.70686e-06
-6.8789e-05
-1.95448e-06
-6.85776e-05
-2.20152e-06
-6.83953e-05
-2.44663e-06
-6.82451e-05
-2.68882e-06
-6.81294e-05
-2.92743e-06
-6.80493e-05
-3.16219e-06
-6.80058e-05
-3.39318e-06
-6.79997e-05
-3.62083e-06
-6.80314e-05
-3.84595e-06
-6.81013e-05
-4.06969e-06
-6.82097e-05
-4.29361e-06
-6.83568e-05
-4.51963e-06
-6.85428e-05
-4.75006e-06
-6.87675e-05
-4.98769e-06
-6.9031e-05
-5.23575e-06
-6.93331e-05
-5.49801e-06
-6.96737e-05
-5.77879e-06
-7.00527e-05
-6.0831e-06
-7.04701e-05
-6.41661e-06
-7.09263e-05
-6.78576e-06
-7.14223e-05
-7.19777e-06
-7.19594e-05
-7.66062e-06
-7.25397e-05
-8.18302e-06
-7.31662e-05
-8.77424e-06
-7.38422e-05
-9.44391e-06
-7.45721e-05
-1.02016e-05
-7.536e-05
-1.10564e-05
-7.62098e-05
-1.20161e-05
-7.71241e-05
-1.30863e-05
-7.81035e-05
-1.42691e-05
-7.91446e-05
-1.55625e-05
-8.02391e-05
-1.69579e-05
-8.13714e-05
-1.84392e-05
-8.25173e-05
-1.9981e-05
-8.36421e-05
-2.15467e-05
-8.46986e-05
-2.30868e-05
-8.56268e-05
-8.63524e-05
-1.72902e-07
-6.6454e-05
-3.83593e-07
-6.93335e-05
-6.13378e-07
-6.96273e-05
-8.56678e-07
-6.95048e-05
-1.11042e-06
-6.92734e-05
-1.37206e-06
-6.90139e-05
-1.63934e-06
-6.87572e-05
-1.91028e-06
-6.85181e-05
-2.18321e-06
-6.83047e-05
-2.45684e-06
-6.81216e-05
-2.73019e-06
-6.79718e-05
-3.0027e-06
-6.78568e-05
-3.27414e-06
-6.77778e-05
-3.54466e-06
-6.77353e-05
-3.81475e-06
-6.77296e-05
-4.08525e-06
-6.77609e-05
-4.35735e-06
-6.78292e-05
-4.63258e-06
-6.79345e-05
-4.91283e-06
-6.80766e-05
-5.20033e-06
-6.82553e-05
-5.49768e-06
-6.84701e-05
-5.80788e-06
-6.87208e-05
-6.13437e-06
-6.90066e-05
-6.48106e-06
-6.9327e-05
-6.85241e-06
-6.96813e-05
-7.25346e-06
-7.0069e-05
-7.68998e-06
-7.04898e-05
-8.16846e-06
-7.09438e-05
-8.69619e-06
-7.14317e-05
-9.28131e-06
-7.19546e-05
-9.93277e-06
-7.25147e-05
-1.06602e-05
-7.31148e-05
-1.1474e-05
-7.37584e-05
-1.23845e-05
-7.44495e-05
-1.34022e-05
-7.51921e-05
-1.45366e-05
-7.59897e-05
-1.57959e-05
-7.68442e-05
-1.71855e-05
-7.7755e-05
-1.87071e-05
-7.87175e-05
-2.03572e-05
-7.97212e-05
-2.21257e-05
-8.07488e-05
-2.39941e-05
-8.17738e-05
-2.59336e-05
-8.27591e-05
-2.79041e-05
-8.36563e-05
-8.44046e-05
-2.0287e-07
-6.62511e-05
-4.40888e-07
-6.90955e-05
-6.96135e-07
-6.93721e-05
-9.63766e-07
-6.92371e-05
-1.24111e-06
-6.89961e-05
-1.52594e-06
-6.87291e-05
-1.81628e-06
-6.84668e-05
-2.11049e-06
-6.82239e-05
-2.40727e-06
-6.80079e-05
-2.70571e-06
-6.78232e-05
-3.00528e-06
-6.76722e-05
-3.30585e-06
-6.75563e-05
-3.60763e-06
-6.7476e-05
-3.91119e-06
-6.74317e-05
-4.21746e-06
-6.74233e-05
-4.52769e-06
-6.74507e-05
-4.84345e-06
-6.75135e-05
-5.16664e-06
-6.76113e-05
-5.49947e-06
-6.77438e-05
-5.84447e-06
-6.79102e-05
-6.20452e-06
-6.81101e-05
-6.58282e-06
-6.83425e-05
-6.98296e-06
-6.86065e-05
-7.40897e-06
-6.8901e-05
-7.86536e-06
-6.92249e-05
-8.35721e-06
-6.95772e-05
-8.89024e-06
-6.99568e-05
-9.47092e-06
-7.03632e-05
-1.01065e-05
-7.07961e-05
-1.08051e-05
-7.1256e-05
-1.15759e-05
-7.1744e-05
-1.24286e-05
-7.22621e-05
-1.33739e-05
-7.2813e-05
-1.44232e-05
-7.34002e-05
-1.55878e-05
-7.40274e-05
-1.68792e-05
-7.46983e-05
-1.83075e-05
-7.54158e-05
-1.98815e-05
-7.6181e-05
-2.16069e-05
-7.69921e-05
-2.34854e-05
-7.78427e-05
-2.55133e-05
-7.8721e-05
-2.76797e-05
-7.96074e-05
-2.99653e-05
-8.04735e-05
-3.23407e-05
-8.12809e-05
-8.19803e-05
-2.32076e-07
-6.6019e-05
-4.97075e-07
-6.88305e-05
-7.77577e-07
-6.90916e-05
-1.06926e-06
-6.89455e-05
-1.36973e-06
-6.86956e-05
-1.67698e-06
-6.84218e-05
-1.9893e-06
-6.81545e-05
-2.30538e-06
-6.79078e-05
-2.62429e-06
-6.7689e-05
-2.94555e-06
-6.75019e-05
-3.26907e-06
-6.73487e-05
-3.59516e-06
-6.72302e-05
-3.92449e-06
-6.71467e-05
-4.25809e-06
-6.70981e-05
-4.5973e-06
-6.70841e-05
-4.94377e-06
-6.71042e-05
-5.29948e-06
-6.71578e-05
-5.66666e-06
-6.72441e-05
-6.04785e-06
-6.73626e-05
-6.44587e-06
-6.75122e-05
-6.86383e-06
-6.76921e-05
-7.30511e-06
-6.79012e-05
-7.77346e-06
-6.81381e-05
-8.27296e-06
-6.84015e-05
-8.80814e-06
-6.86898e-05
-9.38404e-06
-6.90013e-05
-1.00063e-05
-6.93346e-05
-1.06812e-05
-6.96882e-05
-1.1416e-05
-7.00614e-05
-1.22185e-05
-7.04534e-05
-1.30978e-05
-7.08647e-05
-1.40638e-05
-7.12961e-05
-1.51273e-05
-7.17495e-05
-1.63e-05
-7.22275e-05
-1.75943e-05
-7.27331e-05
-1.90227e-05
-7.32699e-05
-2.05976e-05
-7.3841e-05
-2.23302e-05
-7.44484e-05
-2.42302e-05
-7.50921e-05
-2.63041e-05
-7.57688e-05
-2.85543e-05
-7.64707e-05
-3.09779e-05
-7.71838e-05
-3.3565e-05
-7.78864e-05
-3.62974e-05
-7.85485e-05
-7.91302e-05
-2.59773e-07
-6.57593e-05
-5.51062e-07
-6.85392e-05
-8.56384e-07
-6.87862e-05
-1.17164e-06
-6.86302e-05
-1.49453e-06
-6.83727e-05
-1.8232e-06
-6.80932e-05
-2.15616e-06
-6.78216e-05
-2.49242e-06
-6.75716e-05
-2.83146e-06
-6.73499e-05
-3.17323e-06
-6.71602e-05
-3.5181e-06
-6.70038e-05
-3.86686e-06
-6.68814e-05
-4.22065e-06
-6.67929e-05
-4.58094e-06
-6.67379e-05
-4.94949e-06
-6.67156e-05
-5.32838e-06
-6.67253e-05
-5.71992e-06
-6.67662e-05
-6.12671e-06
-6.68373e-05
-6.55159e-06
-6.69377e-05
-6.99763e-06
-6.70662e-05
-7.46816e-06
-6.72216e-05
-7.96673e-06
-6.74026e-05
-8.49719e-06
-6.76077e-05
-9.06368e-06
-6.7835e-05
-9.6707e-06
-6.80827e-05
-1.03232e-05
-6.83488e-05
-1.10267e-05
-6.86311e-05
-1.17872e-05
-6.89277e-05
-1.26116e-05
-6.92369e-05
-1.35078e-05
-6.95573e-05
-1.44842e-05
-6.98882e-05
-1.55508e-05
-7.02296e-05
-1.67182e-05
-7.05821e-05
-1.79983e-05
-7.09474e-05
-1.94038e-05
-7.13276e-05
-2.09481e-05
-7.17256e-05
-2.2645e-05
-7.21441e-05
-2.45081e-05
-7.25854e-05
-2.65498e-05
-7.30503e-05
-2.8781e-05
-7.35376e-05
-3.12097e-05
-7.40421e-05
-3.38397e-05
-7.45538e-05
-3.66698e-05
-7.50564e-05
-3.96922e-05
-7.55261e-05
-7.59305e-05
-2.85047e-07
-6.54742e-05
-6.01606e-07
-6.82227e-05
-9.31128e-07
-6.84567e-05
-1.26928e-06
-6.82921e-05
-1.61367e-06
-6.80283e-05
-1.96245e-06
-6.77444e-05
-2.31438e-06
-6.74696e-05
-2.66879e-06
-6.72171e-05
-3.02558e-06
-6.69932e-05
-3.38517e-06
-6.68006e-05
-3.74844e-06
-6.66405e-05
-4.11666e-06
-6.65132e-05
-4.49145e-06
-6.64181e-05
-4.87472e-06
-6.63546e-05
-5.26867e-06
-6.63216e-05
-5.67576e-06
-6.63183e-05
-6.09866e-06
-6.63433e-05
-6.54027e-06
-6.63957e-05
-7.00372e-06
-6.64742e-05
-7.49231e-06
-6.65776e-05
-8.00956e-06
-6.67044e-05
-8.55917e-06
-6.6853e-05
-9.14506e-06
-6.70218e-05
-9.77141e-06
-6.72087e-05
-1.04427e-05
-6.74115e-05
-1.11636e-05
-6.76278e-05
-1.19396e-05
-6.78551e-05
-1.27764e-05
-6.80909e-05
-1.36805e-05
-6.83328e-05
-1.46593e-05
-6.85786e-05
-1.57209e-05
-6.88266e-05
-1.68748e-05
-6.90757e-05
-1.81313e-05
-6.93256e-05
-1.95021e-05
-6.95766e-05
-2.09999e-05
-6.98298e-05
-2.26384e-05
-7.00871e-05
-2.44322e-05
-7.03503e-05
-2.63961e-05
-7.06214e-05
-2.85449e-05
-7.09015e-05
-3.08926e-05
-7.11899e-05
-3.34514e-05
-7.14833e-05
-3.62307e-05
-7.17744e-05
-3.92363e-05
-7.20507e-05
-4.24692e-05
-7.22932e-05
-7.24751e-05
-3.06977e-07
-6.51673e-05
-6.4755e-07
-6.78821e-05
-1.00051e-06
-6.81038e-05
-1.36069e-06
-6.79319e-05
-1.72533e-06
-6.76637e-05
-2.09258e-06
-6.73771e-05
-2.46139e-06
-6.71008e-05
-2.83147e-06
-6.68471e-05
-3.20318e-06
-6.66214e-05
-3.57748e-06
-6.64263e-05
-3.95576e-06
-6.62622e-05
-4.33982e-06
-6.61291e-05
-4.73176e-06
-6.60262e-05
-5.13395e-06
-6.59524e-05
-5.54899e-06
-6.59066e-05
-5.97971e-06
-6.58875e-05
-6.4291e-06
-6.58939e-05
-6.90036e-06
-6.59245e-05
-7.39684e-06
-6.59777e-05
-7.92208e-06
-6.60523e-05
-8.47973e-06
-6.61467e-05
-9.07363e-06
-6.62591e-05
-9.70776e-06
-6.63877e-05
-1.03863e-05
-6.65302e-05
-1.11136e-05
-6.66842e-05
-1.18943e-05
-6.68471e-05
-1.27335e-05
-6.7016e-05
-1.36365e-05
-6.71878e-05
-1.46097e-05
-6.73597e-05
-1.56596e-05
-6.75286e-05
-1.6794e-05
-6.76921e-05
-1.80217e-05
-6.7848e-05
-1.93524e-05
-6.79949e-05
-2.07972e-05
-6.81318e-05
-2.23683e-05
-6.82587e-05
-2.40793e-05
-6.83761e-05
-2.59448e-05
-6.84848e-05
-2.79802e-05
-6.8586e-05
-3.02015e-05
-6.86802e-05
-3.26244e-05
-6.8767e-05
-3.5264e-05
-6.88437e-05
-3.81336e-05
-6.89048e-05
-4.12442e-05
-6.89401e-05
-4.4603e-05
-6.89344e-05
-6.88651e-05
-3.24895e-07
-6.48424e-05
-6.8813e-07
-6.75189e-05
-1.06362e-06
-6.77283e-05
-1.44468e-06
-6.75508e-05
-1.82795e-06
-6.72804e-05
-2.21151e-06
-6.69936e-05
-2.59457e-06
-6.67178e-05
-2.97728e-06
-6.64643e-05
-3.36057e-06
-6.62381e-05
-3.74596e-06
-6.60409e-05
-4.13543e-06
-6.58728e-05
-4.53129e-06
-6.57333e-05
-4.93615e-06
-6.56213e-05
-5.35281e-06
-6.55357e-05
-5.78428e-06