/*--------------------------------*- C++ -*----------------------------------*\
| =========                 |                                                 |
| \\      /  F ield         | OpenFOAM: The Open Source CFD Toolbox           |
|  \\    /   O peration     | Version:  5.0                                   |
|   \\  /    A nd           | Web:      www.OpenFOAM.org                      |
|    \\/     M anipulation  |                                                 |
\*---------------------------------------------------------------------------*/
FoamFile
{
    version     2.0;
    format      ascii;
    class       volVectorField;
    location    "0.5";
    object      U;
}
// * * * * * * * * * * * * * * * * * * * * * * * * * * * * * * * * * * * * * //

dimensions      [0 1 -1 0 0 0 0];

internalField   nonuniform List<vector> 
1915
(
(0.16566 -0.63989 0)
(0.179034 -0.63448 0)
(0.193079 -0.629458 0)
(0.207836 -0.624882 0)
(0.223345 -0.620808 0)
(0.239653 -0.617299 0)
(0.256809 -0.61442 0)
(0.274867 -0.612237 0)
(0.293884 -0.610815 0)
(0.313921 -0.610215 0)
(0.335039 -0.610488 0)
(0.357299 -0.611668 0)
(0.380759 -0.613767 0)
(0.405476 -0.616763 0)
(0.431503 -0.620591 0)
(0.458879 -0.625139 0)
(0.487629 -0.630234 0)
(0.51775 -0.63564 0)
(0.549211 -0.641052 0)
(0.581943 -0.646095 0)
(0.61584 -0.650329 0)
(0.650739 -0.653258 0)
(0.686422 -0.65434 0)
(0.722599 -0.653009 0)
(0.758929 -0.6487 0)
(0.00370148 -0.694419 0)
(0.00732699 -0.74286 0)
(0.0108702 -0.74769 0)
(0.0149647 -0.747003 0)
(0.0193753 -0.744183 0)
(0.0241253 -0.740199 0)
(0.0292286 -0.735472 0)
(0.0347008 -0.730226 0)
(0.0405579 -0.724603 0)
(0.0468152 -0.718704 0)
(0.053488 -0.712608 0)
(0.0605913 -0.706379 0)
(0.0681398 -0.700078 0)
(0.0761482 -0.693757 0)
(0.0846322 -0.687468 0)
(0.0936088 -0.681257 0)
(0.103097 -0.675174 0)
(0.113117 -0.669265 0)
(0.123691 -0.663578 0)
(0.134843 -0.658162 0)
(0.146601 -0.653066 0)
(0.158998 -0.648343 0)
(0.172069 -0.644046 0)
(0.185847 -0.640237 0)
(0.200374 -0.636975 0)
(0.21569 -0.634327 0)
(0.23184 -0.63236 0)
(0.248874 -0.631144 0)
(0.266843 -0.630747 0)
(0.285802 -0.631232 0)
(0.305805 -0.632651 0)
(0.326907 -0.635041 0)
(0.349165 -0.638408 0)
(0.372629 -0.642727 0)
(0.397349 -0.647924 0)
(0.423362 -0.653873 0)
(0.450689 -0.660381 0)
(0.47933 -0.667185 0)
(0.509255 -0.673946 0)
(0.540396 -0.680245 0)
(0.572646 -0.685591 0)
(0.605843 -0.689429 0)
(0.639765 -0.691154 0)
(0.67412 -0.690131 0)
(0.708543 -0.685719 0)
(0.00314032 -0.699773 0)
(0.00615613 -0.746235 0)
(0.0091298 -0.751457 0)
(0.0125442 -0.751108 0)
(0.0162238 -0.748617 0)
(0.0201986 -0.744976 0)
(0.0244897 -0.740612 0)
(0.0291188 -0.73575 0)
(0.0341067 -0.73053 0)
(0.0394735 -0.725054 0)
(0.0452383 -0.719398 0)
(0.0514197 -0.713627 0)
(0.0580359 -0.707802 0)
(0.0651048 -0.701974 0)
(0.0726445 -0.696195 0)
(0.0806746 -0.690516 0)
(0.0892154 -0.684985 0)
(0.0982886 -0.679652 0)
(0.107917 -0.674567 0)
(0.118124 -0.66978 0)
(0.128939 -0.665344 0)
(0.14039 -0.661313 0)
(0.15251 -0.657747 0)
(0.165332 -0.654705 0)
(0.17889 -0.652252 0)
(0.193222 -0.650457 0)
(0.20837 -0.64939 0)
(0.224374 -0.649124 0)
(0.241282 -0.649728 0)
(0.259139 -0.65127 0)
(0.277995 -0.653801 0)
(0.297898 -0.657359 0)
(0.318899 -0.661949 0)
(0.341044 -0.667541 0)
(0.364376 -0.674054 0)
(0.38893 -0.681348 0)
(0.414725 -0.689212 0)
(0.44176 -0.697358 0)
(0.470004 -0.705409 0)
(0.499395 -0.712907 0)
(0.529825 -0.719307 0)
(0.561129 -0.723994 0)
(0.593087 -0.726295 0)
(0.625402 -0.725502 0)
(0.657703 -0.720902 0)
(0.0026697 -0.704315 0)
(0.00515267 -0.749079 0)
(0.00762337 -0.754614 0)
(0.0104303 -0.754538 0)
(0.0134533 -0.752326 0)
(0.0167281 -0.74899 0)
(0.0202825 -0.744956 0)
(0.024143 -0.74045 0)
(0.0283353 -0.735612 0)
(0.0328834 -0.73054 0)
(0.03781 -0.72531 0)
(0.043137 -0.719987 0)
(0.0488857 -0.71463 0)
(0.0550767 -0.709292 0)
(0.0617311 -0.704024 0)
(0.0688701 -0.698878 0)
(0.0765156 -0.693903 0)
(0.0846898 -0.68915 0)
(0.0934159 -0.684671 0)
(0.102718 -0.680517 0)
(0.112623 -0.676744 0)
(0.123157 -0.673408 0)
(0.13435 -0.670569 0)
(0.146232 -0.668289 0)
(0.158833 -0.666635 0)
(0.172187 -0.665678 0)
(0.186327 -0.66549 0)
(0.201291 -0.666146 0)
(0.217116 -0.667719 0)
(0.233843 -0.670276 0)
(0.251512 -0.673872 0)
(0.270166 -0.678544 0)
(0.289848 -0.684296 0)
(0.310597 -0.691096 0)
(0.332453 -0.698855 0)
(0.355444 -0.707422 0)
(0.379589 -0.716569 0)
(0.404883 -0.725981 0)
(0.431301 -0.735249 0)
(0.458779 -0.743873 0)
(0.487213 -0.751255 0)
(0.516443 -0.756718 0)
(0.546247 -0.759517 0)
(0.576331 -0.758867 0)
(0.606319 -0.753974 0)
(0.00227733 -0.708158 0)
(0.00429472 -0.751453 0)
(0.0063215 -0.757223 0)
(0.00858834 -0.757358 0)
(0.0110245 -0.755378 0)
(0.0136709 -0.752305 0)
(0.0165604 -0.748569 0)
(0.0197243 -0.744391 0)
(0.023192 -0.739909 0)
(0.026991 -0.735221 0)
(0.0311471 -0.730401 0)
(0.0356853 -0.725513 0)
(0.0406296 -0.720615 0)
(0.0460033 -0.71576 0)
(0.0518294 -0.710999 0)
(0.0581311 -0.706383 0)
(0.064931 -0.701963 0)
(0.0722521 -0.69779 0)
(0.0801175 -0.693916 0)
(0.0885507 -0.690395 0)
(0.0975761 -0.687282 0)
(0.107219 -0.684634 0)
(0.117505 -0.682514 0)
(0.12846 -0.680983 0)
(0.14011 -0.680111 0)
(0.152483 -0.679969 0)
(0.165608 -0.680631 0)
(0.179513 -0.682172 0)
(0.19423 -0.684669 0)
(0.209791 -0.688189 0)
(0.226228 -0.69279 0)
(0.243576 -0.698507 0)
(0.26187 -0.705348 0)
(0.281143 -0.713274 0)
(0.301427 -0.722193 0)
(0.322747 -0.731944 0)
(0.345119 -0.742281 0)
(0.368539 -0.752869 0)
(0.392983 -0.763266 0)
(0.418392 -0.772929 0)
(0.444667 -0.781211 0)
(0.471655 -0.78737 0)
(0.499143 -0.790588 0)
(0.52684 -0.789999 0)
(0.554375 -0.784721 0)
(0.00195072 -0.711402 0)
(0.00356275 -0.753412 0)
(0.00519724 -0.75934 0)
(0.00698543 -0.759628 0)
(0.00889909 -0.757833 0)
(0.0109832 -0.754986 0)
(0.013275 -0.751512 0)
(0.0158097 -0.747632 0)
(0.0186196 -0.743481 0)
(0.0217352 -0.739155 0)
(0.0251853 -0.734726 0)
(0.0289972 -0.730258 0)
(0.0331973 -0.725806 0)
(0.0378112 -0.721424 0)
(0.0428635 -0.717161 0)
(0.0483785 -0.71307 0)
(0.0543797 -0.709199 0)
(0.0608901 -0.7056 0)
(0.0679324 -0.702326 0)
(0.0755288 -0.69943 0)
(0.083702 -0.696968 0)
(0.0924742 -0.694997 0)
(0.101868 -0.693579 0)
(0.111904 -0.692777 0)
(0.122605 -0.692661 0)
(0.133992 -0.693301 0)
(0.146087 -0.694774 0)
(0.158912 -0.697155 0)
(0.17249 -0.70052 0)
(0.186844 -0.70494 0)
(0.201999 -0.710472 0)
(0.217981 -0.717155 0)
(0.234815 -0.724993 0)
(0.252528 -0.733949 0)
(0.271146 -0.743927 0)
(0.290688 -0.754756 0)
(0.311169 -0.766178 0)
(0.332586 -0.777836 0)
(0.354917 -0.789261 0)
(0.378113 -0.79987 0)
(0.402084 -0.808966 0)
(0.42669 -0.815743 0)
(0.45173 -0.819311 0)
(0.476931 -0.818717 0)
(0.501933 -0.81299 0)
(0.00167704 -0.714133 0)
(0.00293822 -0.755004 0)
(0.00422523 -0.761015 0)
(0.00558953 -0.761402 0)
(0.00703852 -0.759749 0)
(0.00862035 -0.757089 0)
(0.010376 -0.753844 0)
(0.0123433 -0.750232 0)
(0.0145573 -0.746385 0)
(0.0170509 -0.742397 0)
(0.019855 -0.738338 0)
(0.0229991 -0.734271 0)
(0.0265114 -0.73025 0)
(0.0304192 -0.726327 0)
(0.0347483 -0.722552 0)
(0.0395236 -0.718973 0)
(0.0447689 -0.715642 0)
(0.0505069 -0.712607 0)
(0.0567595 -0.709921 0)
(0.0635475 -0.707636 0)
(0.070891 -0.705809 0)
(0.0788092 -0.704496 0)
(0.0873206 -0.703757 0)
(0.0964424 -0.703656 0)
(0.106191 -0.704261 0)
(0.116581 -0.705644 0)
(0.127629 -0.707878 0)
(0.139349 -0.711041 0)
(0.151754 -0.715209 0)
(0.16486 -0.720453 0)
(0.178682 -0.726833 0)
(0.193237 -0.734386 0)
(0.208541 -0.74312 0)
(0.224615 -0.752996 0)
(0.241476 -0.763916 0)
(0.25914 -0.775704 0)
(0.27762 -0.788091 0)
(0.296916 -0.800704 0)
(0.317013 -0.813048 0)
(0.337871 -0.824506 0)
(0.359416 -0.834331 0)
(0.381529 -0.841662 0)
(0.404031 -0.845531 0)
(0.426676 -0.844902 0)
(0.449128 -0.838709 0)
(0.00144472 -0.716425 0)
(0.00240318 -0.756267 0)
(0.00338062 -0.762294 0)
(0.00436888 -0.762729 0)
(0.00540435 -0.761177 0)
(0.0065375 -0.758668 0)
(0.00781214 -0.755619 0)
(0.00926826 -0.752244 0)
(0.0109429 -0.748673 0)
(0.0128705 -0.744998 0)
(0.0150839 -0.741287 0)
(0.0176141 -0.737601 0)
(0.0204907 -0.733993 0)
(0.0237417 -0.730512 0)
(0.0273938 -0.727207 0)
(0.0314721 -0.724126 0)
(0.0360002 -0.721318 0)
(0.0410001 -0.718831 0)
(0.0464923 -0.716715 0)
(0.0524959 -0.715023 0)
(0.0590282 -0.713808 0)
(0.0661053 -0.713126 0)
(0.0737414 -0.713036 0)
(0.0819491 -0.7136 0)
(0.0907392 -0.714884 0)
(0.100121 -0.716959 0)
(0.110102 -0.719898 0)
(0.120689 -0.723777 0)
(0.131888 -0.728672 0)
(0.143705 -0.734654 0)
(0.156146 -0.741785 0)
(0.169217 -0.750103 0)
(0.182927 -0.759618 0)
(0.197288 -0.770291 0)
(0.212312 -0.782024 0)
(0.22801 -0.79464 0)
(0.244394 -0.807863 0)
(0.261469 -0.821307 0)
(0.279227 -0.834457 0)
(0.297646 -0.846667 0)
(0.316672 -0.857149 0)
(0.336213 -0.864986 0)
(0.356127 -0.869142 0)
(0.376203 -0.868495 0)
(0.396149 -0.861884 0)
(0.00124418 -0.718339 0)
(0.00193987 -0.757235 0)
(0.00263899 -0.763215 0)
(0.00329195 -0.763653 0)
(0.00395838 -0.762163 0)
(0.00468997 -0.759769 0)
(0.00553267 -0.756884 0)
(0.00652792 -0.753716 0)
(0.00771399 -0.750394 0)
(0.00912666 -0.747006 0)
(0.0107997 -0.743619 0)
(0.0127651 -0.740291 0)
(0.0150531 -0.737073 0)
(0.0176922 -0.734014 0)
(0.0207093 -0.73116 0)
(0.024129 -0.728557 0)
(0.0279744 -0.726251 0)
(0.0322664 -0.72429 0)
(0.0370239 -0.722722 0)
(0.0422635 -0.721596 0)
(0.0479999 -0.720965 0)
(0.0542455 -0.720881 0)
(0.0610104 -0.721401 0)
(0.0683024 -0.722586 0)
(0.0761266 -0.724499 0)
(0.0844859 -0.727208 0)
(0.093381 -0.730785 0)
(0.102811 -0.735305 0)
(0.112773 -0.740843 0)
(0.123263 -0.747469 0)
(0.134279 -0.755245 0)
(0.145818 -0.764212 0)
(0.157879 -0.774382 0)
(0.170467 -0.785719 0)
(0.183585 -0.798128 0)
(0.197245 -0.811431 0)
(0.211456 -0.825352 0)
(0.226229 -0.839498 0)
(0.241569 -0.853341 0)
(0.257472 -0.866212 0)
(0.273913 -0.877292 0)
(0.290835 -0.885614 0)
(0.308141 -0.89008 0)
(0.325673 -0.889491 0)
(0.3432 -0.882588 0)
(0.00106642 -0.71992 0)
(0.00153037 -0.75793 0)
(0.00197646 -0.76381 0)
(0.00232807 -0.76421 0)
(0.00266355 -0.762746 0)
(0.00303457 -0.760435 0)
(0.00348845 -0.757683 0)
(0.00406745 -0.754693 0)
(0.00481045 -0.751592 0)
(0.00575379 -0.748464 0)
(0.00693173 -0.745375 0)
(0.00837655 -0.74238 0)
(0.0101186 -0.739529 0)
(0.0121864 -0.736868 0)
(0.014606 -0.734441 0)
(0.0174018 -0.732291 0)
(0.0205953 -0.730463 0)
(0.0242062 -0.729001 0)
(0.0282511 -0.72795 0)
(0.0327445 -0.727359 0)
(0.0376977 -0.727275 0)
(0.0431197 -0.727749 0)
(0.0490163 -0.728836 0)
(0.0553903 -0.73059 0)
(0.0622413 -0.733075 0)
(0.0695661 -0.736353 0)
(0.0773582 -0.740495 0)
(0.085609 -0.745573 0)
(0.0943073 -0.75166 0)
(0.103441 -0.758827 0)
(0.112997 -0.767135 0)
(0.122965 -0.776629 0)
(0.133335 -0.787321 0)
(0.144102 -0.799181 0)
(0.155265 -0.81212 0)
(0.166832 -0.825963 0)
(0.178813 -0.840439 0)
(0.191227 -0.855153 0)
(0.204093 -0.869576 0)
(0.217428 -0.883025 0)
(0.23124 -0.894656 0)
(0.245518 -0.90347 0)
(0.260219 -0.908314 0)
(0.275255 -0.90792 0)
(0.290469 -0.90094 0)
(0.000902477 -0.721202 0)
(0.0011574 -0.75837 0)
(0.00137063 -0.764106 0)
(0.00144851 -0.76443 0)
(0.00148516 -0.762961 0)
(0.00153075 -0.760703 0)
(0.00163338 -0.758053 0)
(0.00183531 -0.755214 0)
(0.00217543 -0.752305 0)
(0.00269006 -0.74941 0)
(0.00341332 -0.746592 0)
(0.00437721 -0.743904 0)
(0.00561163 -0.741394 0)
(0.00714427 -0.739103 0)
(0.00900048 -0.737075 0)
(0.0112032 -0.73535 0)
(0.0137726 -0.733969 0)
(0.0167263 -0.732973 0)
(0.0200788 -0.732406 0)
(0.0238417 -0.732311 0)
(0.0280234 -0.732733 0)
(0.0326289 -0.73372 0)
(0.03766 -0.735321 0)
(0.0431146 -0.737588 0)
(0.0489871 -0.74058 0)
(0.0552679 -0.744357 0)
(0.0619441 -0.748984 0)
(0.0689996 -0.754532 0)
(0.0764152 -0.76107 0)
(0.0841702 -0.76867 0)
(0.0922431 -0.777391 0)
(0.100613 -0.78728 0)
(0.109263 -0.798356 0)
(0.11818 -0.810593 0)
(0.127357 -0.823909 0)
(0.136797 -0.838141 0)
(0.146515 -0.853024 0)
(0.156535 -0.868173 0)
(0.166892 -0.883064 0)
(0.177627 -0.897011 0)
(0.188786 -0.909164 0)
(0.200408 -0.918498 0)
(0.212515 -0.923828 0)
(0.225098 -0.923824 0)
(0.238098 -0.917067 0)
(0.000744571 -0.722202 0)
(0.000805622 -0.758569 0)
(0.000801704 -0.764122 0)
(0.000627498 -0.764339 0)
(0.000391901 -0.762836 0)
(0.000141943 -0.760603 0)
(-7.43839e-05 -0.758029 0)
(-0.000215458 -0.755312 0)
(-0.000242984 -0.752568 0)
(-0.000121239 -0.749878 0)
(0.000183199 -0.747304 0)
(0.000701491 -0.744895 0)
(0.0014625 -0.742696 0)
(0.00249273 -0.740747 0)
(0.00381612 -0.739086 0)
(0.00545391 -0.737753 0)
(0.00742445 -0.736785 0)
(0.00974306 -0.736219 0)
(0.0124218 -0.736095 0)
(0.0154693 -0.736453 0)
(0.0188908 -0.737334 0)
(0.0226877 -0.738782 0)
(0.0268575 -0.74084 0)
(0.0313937 -0.743558 0)
(0.0362854 -0.746988 0)
(0.0415174 -0.751187 0)
(0.0470705 -0.756215 0)
(0.0529214 -0.762139 0)
(0.0590438 -0.769027 0)
(0.0654087 -0.776946 0)
(0.0719862 -0.785958 0)
(0.0787471 -0.796111 0)
(0.0856652 -0.807428 0)
(0.0927195 -0.819892 0)
(0.0998981 -0.83343 0)
(0.107201 -0.847893 0)
(0.114643 -0.863032 0)
(0.122255 -0.878479 0)
(0.130088 -0.893724 0)
(0.138209 -0.908094 0)
(0.146702 -0.920744 0)
(0.155658 -0.930646 0)
(0.165172 -0.936596 0)
(0.175324 -0.937228 0)
(0.186163 -0.931063 0)
(0.000586983 -0.722925 0)
(0.000461605 -0.758531 0)
(0.000252834 -0.763874 0)
(-0.000156618 -0.763957 0)
(-0.00064316 -0.762395 0)
(-0.0011634 -0.760161 0)
(-0.00167136 -0.757638 0)
(-0.00212625 -0.755016 0)
(-0.00249082 -0.752411 0)
(-0.00273053 -0.749899 0)
(-0.0028132 -0.74754 0)
(-0.00270903 -0.74538 0)
(-0.00239067 -0.743462 0)
(-0.00183327 -0.741822 0)
(-0.00101472 -0.740496 0)
(8.41652e-05 -0.739518 0)
(0.00147948 -0.738924 0)
(0.00318405 -0.738747 0)
(0.00520721 -0.739022 0)
(0.00755467 -0.739785 0)
(0.0102283 -0.741073 0)
(0.013226 -0.742924 0)
(0.0165414 -0.745379 0)
(0.0201636 -0.748481 0)
(0.0240769 -0.752276 0)
(0.0282609 -0.756817 0)
(0.0326905 -0.762159 0)
(0.0373362 -0.768364 0)
(0.0421647 -0.775496 0)
(0.0471395 -0.783621 0)
(0.0522228 -0.792799 0)
(0.0573773 -0.803081 0)
(0.0625682 -0.814495 0)
(0.0677671 -0.827033 0)
(0.0729555 -0.840636 0)
(0.0781295 -0.855171 0)
(0.0833036 -0.870412 0)
(0.0885152 -0.886015 0)
(0.0938276 -0.901495 0)
(0.0993324 -0.916208 0)
(0.10515 -0.929329 0)
(0.111425 -0.939849 0)
(0.118324 -0.946564 0)
(0.126022 -0.9481 0)
(0.134683 -0.94294 0)
(0.000428345 -0.723367 0)
(0.000116471 -0.758265 0)
(-0.000290909 -0.76337 0)
(-0.000920066 -0.763299 0)
(-0.00164092 -0.761656 0)
(-0.00241178 -0.759399 0)
(-0.00318865 -0.756903 0)
(-0.00393245 -0.754353 0)
(-0.00460762 -0.75186 0)
(-0.00518126 -0.749499 0)
(-0.00562293 -0.747326 0)
(-0.00590467 -0.745385 0)
(-0.00600104 -0.743715 0)
(-0.0058893 -0.74235 0)
(-0.00554956 -0.741321 0)
(-0.00496506 -0.740661 0)
(-0.00412224 -0.740399 0)
(-0.003011 -0.740565 0)
(-0.00162483 -0.741191 0)
(3.89422e-05 -0.742308 0)
(0.00197901 -0.743947 0)
(0.00418981 -0.746142 0)
(0.00666123 -0.748928 0)
(0.00937835 -0.752343 0)
(0.0123212 -0.756428 0)
(0.0154645 -0.761229 0)
(0.0187782 -0.766796 0)
(0.0222271 -0.773185 0)
(0.0257715 -0.780456 0)
(0.0293684 -0.788672 0)
(0.0329724 -0.797892 0)
(0.0365385 -0.808169 0)
(0.0400239 -0.819537 0)
(0.0433923 -0.831997 0)
(0.0466182 -0.845506 0)
(0.0496925 -0.859952 0)
(0.0526278 -0.875135 0)
(0.0554641 -0.890744 0)
(0.0582749 -0.906332 0)
(0.0611712 -0.921294 0)
(0.0643052 -0.934846 0)
(0.0678707 -0.946015 0)
(0.072102 -0.953629 0)
(0.077264 -0.956327 0)
(0.0836417 -0.952588 0)
(0.000268069 -0.723521 0)
(-0.000231932 -0.757771 0)
(-0.00083962 -0.762609 0)
(-0.00167503 -0.76237 0)
(-0.00261852 -0.760632 0)
(-0.00362433 -0.758335 0)
(-0.00465133 -0.755844 0)
(-0.00566299 -0.753343 0)
(-0.00662593 -0.750938 0)
(-0.00750936 -0.748701 0)
(-0.008285 -0.746686 0)
(-0.00892709 -0.744933 0)
(-0.00941252 -0.743478 0)
(-0.00972102 -0.742351 0)
(-0.00983532 -0.741582 0)
(-0.00974136 -0.741197 0)
(-0.00942841 -0.741222 0)
(-0.00888925 -0.741684 0)
(-0.00812031 -0.74261 0)
(-0.00712192 -0.744025 0)
(-0.00589853 -0.745957 0)
(-0.00445897 -0.748433 0)
(-0.00281678 -0.751483 0)
(-0.000990514 -0.755139 0)
(0.000996021 -0.759436 0)
(0.00311357 -0.764413 0)
(0.00532737 -0.770115 0)
(0.00759731 -0.776591 0)
(0.00987837 -0.783897 0)
(0.0121214 -0.792091 0)
(0.0142746 -0.801232 0)
(0.0162854 -0.811373 0)
(0.0181032 -0.822553 0)
(0.0196835 -0.834784 0)
(0.0209933 -0.84804 0)
(0.0220166 -0.862233 0)
(0.0227611 -0.877194 0)
(0.0232661 -0.89265 0)
(0.0236094 -0.908203 0)
(0.0239149 -0.923298 0)
(0.0243586 -0.93721 0)
(0.0251732 -0.949025 0)
(0.0266506 -0.957626 0)
(0.0291371 -0.961699 0)
(0.033027 -0.959752 0)
(0.000116165 -0.723373 0)
(-0.000572275 -0.75705 0)
(-0.00140067 -0.761592 0)
(-0.00243417 -0.761179 0)
(-0.00358917 -0.759333 0)
(-0.00481679 -0.75698 0)
(-0.00607834 -0.754477 0)
(-0.00734005 -0.752004 0)
(-0.00857102 -0.749663 0)
(-0.00974293 -0.747525 0)
(-0.01083 -0.745639 0)
(-0.011809 -0.744043 0)
(-0.0126595 -0.74277 0)
(-0.013364 -0.741845 0)
(-0.0139082 -0.741295 0)
(-0.014281 -0.741141 0)
(-0.0144747 -0.741408 0)
(-0.0144851 -0.742116 0)
(-0.0143116 -0.743287 0)
(-0.0139576 -0.744944 0)
(-0.0134306 -0.747107 0)
(-0.0127424 -0.749799 0)
(-0.0119097 -0.753045 0)
(-0.0109543 -0.756868 0)
(-0.00990319 -0.761299 0)
(-0.00878916 -0.766369 0)
(-0.00765074 -0.772117 0)
(-0.00653219 -0.778586 0)
(-0.00548313 -0.785825 0)
(-0.00455786 -0.793888 0)
(-0.00381421 -0.802831 0)
(-0.00331155 -0.812708 0)
(-0.00310798 -0.823563 0)
(-0.00325618 -0.835418 0)
(-0.00379808 -0.848264 0)
(-0.00475842 -0.862037 0)
(-0.00613718 -0.876605 0)
(-0.00790109 -0.891737 0)
(-0.00997428 -0.90709 0)
(-0.0122289 -0.922172 0)
(-0.0144765 -0.936332 0)
(-0.0164598 -0.948732 0)
(-0.0178457 -0.958337 0)
(-0.0182245 -0.963912 0)
(-0.0171121 -0.964029 0)
(-4.73493e-05 -0.722927 0)
(-0.000918902 -0.756069 0)
(-0.00196868 -0.760321 0)
(-0.00319995 -0.75973 0)
(-0.00455959 -0.757768 0)
(-0.00599896 -0.755345 0)
(-0.00748237 -0.752815 0)
(-0.00897899 -0.750351 0)
(-0.0104607 -0.748054 0)
(-0.011902 -0.74599 0)
(-0.0132798 -0.744206 0)
(-0.0145738 -0.742736 0)
(-0.0157666 -0.74161 0)
(-0.0168436 -0.740851 0)
(-0.0177938 -0.740479 0)
(-0.0186091 -0.740513 0)
(-0.0192851 -0.740973 0)
(-0.0198208 -0.741876 0)
(-0.0202185 -0.743238 0)
(-0.0204846 -0.745077 0)
(-0.0206296 -0.747409 0)
(-0.0206682 -0.750252 0)
(-0.0206198 -0.753622 0)
(-0.0205089 -0.75754 0)
(-0.0203653 -0.762027 0)
(-0.0202246 -0.767108 0)
(-0.0201285 -0.772815 0)
(-0.0201244 -0.779184 0)
(-0.0202658 -0.786258 0)
(-0.0206112 -0.794085 0)
(-0.0212235 -0.802717 0)
(-0.0221684 -0.812209 0)
(-0.0235111 -0.822607 0)
(-0.0253126 -0.833944 0)
(-0.0276245 -0.846225 0)
(-0.0304822 -0.859413 0)
(-0.0338969 -0.873409 0)
(-0.0378464 -0.888033 0)
(-0.0422644 -0.902997 0)
(-0.0470295 -0.917885 0)
(-0.0519542 -0.932125 0)
(-0.056774 -0.944976 0)
(-0.0611367 -0.955504 0)
(-0.0645953 -0.96258 0)
(-0.0666053 -0.964883 0)
(-0.000219701 -0.72218 0)
(-0.00127259 -0.754811 0)
(-0.00254377 -0.758789 0)
(-0.00397245 -0.758022 0)
(-0.00553205 -0.755939 0)
(-0.00717537 -0.753438 0)
(-0.00887008 -0.750867 0)
(-0.0105885 -0.748396 0)
(-0.0123057 -0.746123 0)
(-0.0139989 -0.744111 0)
(-0.0156481 -0.742403 0)
(-0.0172362 -0.741031 0)
(-0.0187488 -0.740019 0)
(-0.0201749 -0.739388 0)
(-0.0215066 -0.739154 0)
(-0.0227394 -0.739332 0)
(-0.0238719 -0.739937 0)
(-0.0249063 -0.740982 0)
(-0.0258482 -0.74248 0)
(-0.0267067 -0.744442 0)
(-0.0274952 -0.74688 0)
(-0.028231 -0.749806 0)
(-0.028936 -0.753232 0)
(-0.029637 -0.757171 0)
(-0.030366 -0.761637 0)
(-0.0311609 -0.76665 0)
(-0.0320655 -0.772232 0)
(-0.03313 -0.778413 0)
(-0.0344104 -0.785228 0)
(-0.0359688 -0.79272 0)
(-0.0378722 -0.800936 0)
(-0.0401916 -0.809928 0)
(-0.0429989 -0.819744 0)
(-0.0463635 -0.830426 0)
(-0.050347 -0.841992 0)
(-0.0549972 -0.85443 0)
(-0.0603397 -0.867675 0)
(-0.0663684 -0.881593 0)
(-0.073034 -0.895958 0)
(-0.0802324 -0.910427 0)
(-0.0877914 -0.924522 0)
(-0.0954586 -0.937604 0)
(-0.102887 -0.948858 0)
(-0.109624 -0.957285 0)
(-0.115104 -0.961694 0)
(-0.000395838 -0.721123 0)
(-0.00162922 -0.753269 0)
(-0.00312433 -0.756991 0)
(-0.00474928 -0.756053 0)
(-0.006505 -0.753848 0)
(-0.00834578 -0.751264 0)
(-0.0102426 -0.748642 0)
(-0.0121712 -0.746151 0)
(-0.0141095 -0.743885 0)
(-0.016038 -0.741904 0)
(-0.01794 -0.740248 0)
(-0.0198016 -0.738946 0)
(-0.0216119 -0.738017 0)
(-0.0233632 -0.737478 0)
(-0.0250513 -0.737342 0)
(-0.0266749 -0.73762 0)
(-0.0282363 -0.738322 0)
(-0.0297406 -0.739457 0)
(-0.0311965 -0.741034 0)
(-0.0326161 -0.74306 0)
(-0.0340153 -0.745542 0)
(-0.0354139 -0.748486 0)
(-0.0368359 -0.751899 0)
(-0.03831 -0.755787 0)
(-0.03987 -0.760158 0)
(-0.0415554 -0.765025 0)
(-0.0434116 -0.770403 0)
(-0.0454903 -0.776312 0)
(-0.0478494 -0.782781 0)
(-0.0505535 -0.789846 0)
(-0.0536727 -0.797548 0)
(-0.0572824 -0.805934 0)
(-0.0614604 -0.815054 0)
(-0.0662839 -0.824953 0)
(-0.071825 -0.835662 0)
(-0.0781448 -0.847189 0)
(-0.0852856 -0.8595 0)
(-0.0932616 -0.872507 0)
(-0.102047 -0.886041 0)
(-0.111565 -0.899836 0)
(-0.121673 -0.913504 0)
(-0.132148 -0.926514 0)
(-0.142673 -0.938179 0)
(-0.152824 -0.947638 0)
(-0.162054 -0.953856 0)
(-0.00057376 -0.719745 0)
(-0.00198483 -0.751437 0)
(-0.00370557 -0.754922 0)
(-0.00552534 -0.753823 0)
(-0.00747359 -0.751497 0)
(-0.00950588 -0.748826 0)
(-0.0115963 -0.746147 0)
(-0.0137238 -0.743625 0)
(-0.0158694 -0.741353 0)
(-0.018017 -0.739386 0)
(-0.0201532 -0.73776 0)
(-0.0222675 -0.736501 0)
(-0.0243526 -0.735625 0)
(-0.0264046 -0.735143 0)
(-0.0284226 -0.735067 0)
(-0.030409 -0.735401 0)
(-0.0323694 -0.736154 0)
(-0.0343121 -0.737328 0)
(-0.0362488 -0.73893 0)
(-0.0381945 -0.740962 0)
(-0.0401675 -0.743425 0)
(-0.0421897 -0.746323 0)
(-0.0442871 -0.749655 0)
(-0.0464899 -0.753422 0)
(-0.0488332 -0.757628 0)
(-0.0513574 -0.762275 0)
(-0.0541088 -0.767373 0)
(-0.0571398 -0.772933 0)
(-0.0605095 -0.778977 0)
(-0.0642835 -0.78553 0)
(-0.0685342 -0.792629 0)
(-0.0733403 -0.800314 0)
(-0.0787843 -0.808633 0)
(-0.0849504 -0.817633 0)
(-0.0919207 -0.827352 0)
(-0.0997697 -0.837816 0)
(-0.108558 -0.849017 0)
(-0.118322 -0.860906 0)
(-0.129066 -0.873369 0)
(-0.140746 -0.886207 0)
(-0.153259 -0.899121 0)
(-0.16643 -0.911686 0)
(-0.179994 -0.923339 0)
(-0.193579 -0.933362 0)
(-0.206701 -0.94088 0)
(-0.000751422 -0.718041 0)
(-0.00233506 -0.749311 0)
(-0.00428123 -0.75258 0)
(-0.00629358 -0.751328 0)
(-0.00843032 -0.748887 0)
(-0.0106479 -0.746129 0)
(-0.0129232 -0.743389 0)
(-0.0152381 -0.74083 0)
(-0.017577 -0.73854 0)
(-0.019927 -0.736572 0)
(-0.0222782 -0.734957 0)
(-0.0246237 -0.733718 0)
(-0.0269599 -0.732866 0)
(-0.0292866 -0.73241 0)
(-0.0316066 -0.732355 0)
(-0.0339259 -0.732705 0)
(-0.0362532 -0.733462 0)
(-0.0386002 -0.734626 0)
(-0.0409815 -0.736199 0)
(-0.0434146 -0.738179 0)
(-0.0459203 -0.740565 0)
(-0.0485226 -0.743353 0)
(-0.0512489 -0.74654 0)
(-0.0541307 -0.750121 0)
(-0.0572037 -0.754093 0)
(-0.060509 -0.758452 0)
(-0.064093 -0.763199 0)
(-0.068008 -0.768339 0)
(-0.0723129 -0.773883 0)
(-0.0770739 -0.77985 0)
(-0.0823643 -0.786267 0)
(-0.0882645 -0.793167 0)
(-0.0948607 -0.800594 0)
(-0.102243 -0.808592 0)
(-0.110501 -0.817205 0)
(-0.119723 -0.826467 0)
(-0.129988 -0.836394 0)
(-0.141355 -0.846966 0)
(-0.153858 -0.858115 0)
(-0.167493 -0.869706 0)
(-0.182205 -0.881516 0)
(-0.197873 -0.893218 0)
(-0.214301 -0.904363 0)
(-0.231194 -0.914369 0)
(-0.248154 -0.922512 0)
(-0.000926224 -0.716012 0)
(-0.00267502 -0.746888 0)
(-0.00484413 -0.749962 0)
(-0.00704548 -0.74857 0)
(-0.00936562 -0.74602 0)
(-0.0117614 -0.743178 0)
(-0.0142119 -0.740377 0)
(-0.0167019 -0.737777 0)
(-0.019219 -0.735461 0)
(-0.0217536 -0.73348 0)
(-0.0242995 -0.73186 0)
(-0.0268534 -0.730619 0)
(-0.0294157 -0.729766 0)
(-0.0319897 -0.729305 0)
(-0.0345821 -0.729237 0)
(-0.0372022 -0.729562 0)
(-0.0398621 -0.73028 0)
(-0.0425765 -0.731386 0)
(-0.045363 -0.732879 0)
(-0.0482417 -0.734753 0)
(-0.0512354 -0.737004 0)
(-0.05437 -0.739623 0)
(-0.0576741 -0.742604 0)
(-0.0611801 -0.745935 0)
(-0.0649242 -0.749608 0)
(-0.0689474 -0.753614 0)
(-0.0732956 -0.757946 0)
(-0.0780203 -0.762601 0)
(-0.0831795 -0.767582 0)
(-0.0888386 -0.772896 0)
(-0.0950705 -0.778563 0)
(-0.101956 -0.784608 0)
(-0.109584 -0.791065 0)
(-0.118046 -0.797975 0)
(-0.127442 -0.805381 0)
(-0.137868 -0.813324 0)
(-0.149419 -0.82183 0)
(-0.162179 -0.830906 0)
(-0.176209 -0.840517 0)
(-0.191545 -0.85058 0)
(-0.208181 -0.860937 0)
(-0.226059 -0.871345 0)
(-0.245055 -0.881456 0)
(-0.264962 -0.890806 0)
(-0.285487 -0.898807 0)
(-0.00109457 -0.71366 0)
(-0.00299875 -0.744171 0)
(-0.00538586 -0.747069 0)
(-0.00777106 -0.74555 0)
(-0.010268 -0.7429 0)
(-0.0128334 -0.73998 0)
(-0.015448 -0.737122 0)
(-0.0180992 -0.734479 0)
(-0.0207779 -0.732134 0)
(-0.0234779 -0.73013 0)
(-0.0261965 -0.728491 0)
(-0.0289346 -0.727231 0)
(-0.0316961 -0.726352 0)
(-0.0344883 -0.725858 0)
(-0.0373214 -0.725744 0)
(-0.0402082 -0.726008 0)
(-0.0431641 -0.726645 0)
(-0.0462067 -0.727649 0)
(-0.0493563 -0.729013 0)
(-0.0526354 -0.73073 0)
(-0.0560689 -0.732791 0)
(-0.059684 -0.735185 0)
(-0.0635106 -0.7379 0)
(-0.0675817 -0.740923 0)
(-0.0719335 -0.744239 0)
(-0.0766065 -0.747832 0)
(-0.0816455 -0.75169 0)
(-0.0871007 -0.755802 0)
(-0.0930283 -0.760161 0)
(-0.0994916 -0.764768 0)
(-0.106562 -0.769628 0)
(-0.11432 -0.774759 0)
(-0.122852 -0.780186 0)
(-0.132254 -0.785941 0)
(-0.142628 -0.792063 0)
(-0.15408 -0.798591 0)
(-0.166716 -0.805559 0)
(-0.180637 -0.812988 0)
(-0.195934 -0.820868 0)
(-0.212677 -0.829153 0)
(-0.230907 -0.837738 0)
(-0.250625 -0.846447 0)
(-0.271779 -0.855015 0)
(-0.294253 -0.863078 0)
(-0.317858 -0.870159 0)
(-0.0012514 -0.710999 0)
(-0.00329882 -0.741166 0)
(-0.00589668 -0.743906 0)
(-0.00845905 -0.742273 0)
(-0.0111247 -0.739533 0)
(-0.0138493 -0.736545 0)
(-0.016615 -0.733636 0)
(-0.0194117 -0.730954 0)
(-0.0222333 -0.728578 0)
(-0.0250772 -0.726545 0)
(-0.0279447 -0.724877 0)
(-0.0308405 -0.723581 0)
(-0.0337725 -0.722657 0)
(-0.0367517 -0.722103 0)
(-0.0397919 -0.721914 0)
(-0.0429093 -0.722083 0)
(-0.0461223 -0.722601 0)
(-0.0494514 -0.723459 0)
(-0.0529195 -0.72465 0)
(-0.056551 -0.726161 0)
(-0.0603728 -0.727981 0)
(-0.0644133 -0.730097 0)
(-0.0687034 -0.732493 0)
(-0.0732762 -0.735152 0)
(-0.0781681 -0.738055 0)
(-0.0834185 -0.741182 0)
(-0.0890708 -0.744513 0)
(-0.0951732 -0.748031 0)
(-0.101779 -0.751721 0)
(-0.108949 -0.755572 0)
(-0.116752 -0.759582 0)
(-0.125265 -0.763756 0)
(-0.134573 -0.768108 0)
(-0.14477 -0.77266 0)
(-0.155961 -0.777443 0)
(-0.168254 -0.782491 0)
(-0.181764 -0.787837 0)
(-0.196607 -0.793506 0)
(-0.212893 -0.799506 0)
(-0.230721 -0.805814 0)
(-0.250173 -0.812363 0)
(-0.271301 -0.819027 0)
(-0.294118 -0.825608 0)
(-0.318587 -0.831818 0)
(-0.344619 -0.837273 0)
(-0.00139026 -0.708051 0)
(-0.00356678 -0.737883 0)
(-0.00636632 -0.740478 0)
(-0.00909782 -0.738746 0)
(-0.0119225 -0.73593 0)
(-0.014794 -0.732886 0)
(-0.0176955 -0.729935 0)
(-0.0206193 -0.727221 0)
(-0.0235626 -0.724816 0)
(-0.0265266 -0.722753 0)
(-0.0295166 -0.721047 0)
(-0.0325413 -0.719702 0)
(-0.0356127 -0.718715 0)
(-0.0387457 -0.71808 0)
(-0.0419574 -0.717788 0)
(-0.0452672 -0.717829 0)
(-0.0486964 -0.718193 0)
(-0.0522682 -0.718867 0)
(-0.0560075 -0.719841 0)
(-0.0599411 -0.721102 0)
(-0.0640969 -0.722634 0)
(-0.0685046 -0.724423 0)
(-0.0731958 -0.72645 0)
(-0.0782038 -0.728695 0)
(-0.0835645 -0.731136 0)
(-0.0893163 -0.733747 0)
(-0.0955008 -0.736506 0)
(-0.102163 -0.739386 0)
(-0.109355 -0.742365 0)
(-0.117131 -0.745424 0)
(-0.125558 -0.748551 0)
(-0.134707 -0.751738 0)
(-0.14466 -0.754988 0)
(-0.155509 -0.758311 0)
(-0.167354 -0.761726 0)
(-0.180304 -0.765258 0)
(-0.194479 -0.768934 0)
(-0.21 -0.772777 0)
(-0.226992 -0.7768 0)
(-0.245574 -0.780994 0)
(-0.265858 -0.785318 0)
(-0.287934 -0.78968 0)
(-0.311869 -0.793929 0)
(-0.337692 -0.797838 0)
(-0.36539 -0.801092 0)
(-0.00150417 -0.704846 0)
(-0.00379499 -0.734333 0)
(-0.00678594 -0.736793 0)
(-0.00967729 -0.734975 0)
(-0.0126493 -0.7321 0)
(-0.015653 -0.729017 0)
(-0.0186721 -0.72604 0)
(-0.0217017 -0.723305 0)
(-0.0247423 -0.720877 0)
(-0.0277995 -0.718784 0)
(-0.0308827 -0.717036 0)
(-0.034005 -0.715632 0)
(-0.0371825 -0.714567 0)
(-0.0404337 -0.71383 0)
(-0.0437791 -0.713411 0)
(-0.0472411 -0.713296 0)
(-0.0508437 -0.713472 0)
(-0.0546123 -0.713927 0)
(-0.0585739 -0.714646 0)
(-0.0627567 -0.715615 0)
(-0.0671899 -0.716817 0)
(-0.0719043 -0.718234 0)
(-0.0769317 -0.719847 0)
(-0.0823054 -0.721632 0)
(-0.0880608 -0.723566 0)
(-0.094235 -0.72562 0)
(-0.100867 -0.727764 0)
(-0.108001 -0.72997 0)
(-0.115682 -0.732206 0)
(-0.123963 -0.734446 0)
(-0.132903 -0.736666 0)
(-0.142571 -0.73885 0)
(-0.15304 -0.740987 0)
(-0.164398 -0.743074 0)
(-0.176738 -0.745116 0)
(-0.190168 -0.747127 0)
(-0.204804 -0.749123 0)
(-0.220768 -0.75112 0)
(-0.238191 -0.753129 0)
(-0.257203 -0.755145 0)
(-0.277933 -0.757139 0)
(-0.3005 -0.759043 0)
(-0.325004 -0.760739 0)
(-0.351521 -0.762044 0)
(-0.380098 -0.762695 0)
(-0.00158747 -0.701425 0)
(-0.00397907 -0.730532 0)
(-0.00715043 -0.73286 0)
(-0.0101908 -0.730972 0)
(-0.0132959 -0.72806 0)
(-0.0164136 -0.72496 0)
(-0.0195285 -0.721975 0)
(-0.0226384 -0.719234 0)
(-0.0257483 -0.716793 0)
(-0.0288682 -0.714674 0)
(-0.0320123 -0.712882 0)
(-0.0351983 -0.711413 0)
(-0.0384461 -0.710256 0)
(-0.0417778 -0.7094 0)
(-0.0452173 -0.70883 0)
(-0.0487896 -0.708533 0)
(-0.052521 -0.708494 0)
(-0.0564389 -0.708696 0)
(-0.0605719 -0.709126 0)
(-0.0649495 -0.709765 0)
(-0.0696019 -0.710598 0)
(-0.0745602 -0.711604 0)
(-0.0798567 -0.712763 0)
(-0.0855244 -0.71405 0)
(-0.0915979 -0.715438 0)
(-0.0981129 -0.716896 0)
(-0.105107 -0.718393 0)
(-0.112619 -0.719893 0)
(-0.120692 -0.721361 0)
(-0.129375 -0.722763 0)
(-0.13872 -0.724065 0)
(-0.148788 -0.725241 0)
(-0.159648 -0.726267 0)
(-0.171376 -0.727129 0)
(-0.184061 -0.727817 0)
(-0.197802 -0.728331 0)
(-0.212708 -0.728673 0)
(-0.228897 -0.728849 0)
(-0.246496 -0.728862 0)
(-0.265639 -0.728706 0)
(-0.286459 -0.728353 0)
(-0.309089 -0.727751 0)
(-0.33365 -0.726801 0)
(-0.360243 -0.725353 0)
(-0.388952 -0.723187 0)
(-0.00163762 -0.697834 0)
(-0.00411973 -0.726493 0)
(-0.00745982 -0.728688 0)
(-0.010636 -0.72675 0)
(-0.0138563 -0.723828 0)
(-0.0170653 -0.720739 0)
(-0.020249 -0.717772 0)
(-0.0234093 -0.715045 0)
(-0.0265562 -0.712604 0)
(-0.0297048 -0.710466 0)