/*--------------------------------*- C++ -*----------------------------------*\
| =========                 |                                                 |
| \\      /  F ield         | OpenFOAM: The Open Source CFD Toolbox           |
|  \\    /   O peration     | Version:  5.0                                   |
|   \\  /    A nd           | Web:      www.OpenFOAM.org                      |
|    \\/     M anipulation  |                                                 |
\*---------------------------------------------------------------------------*/
FoamFile
{
    version     2.0;
    format      ascii;
    class       surfaceScalarField;
    location    "0.65";
    object      alphaPhi10;
}
// * * * * * * * * * * * * * * * * * * * * * * * * * * * * * * * * * * * * * //

dimensions      [0 3 -1 0 0 0 0];

internalField   nonuniform List<scalar> 
3781
(
-2.36657e-06
2.36657e-06
-4.26491e-06
1.89834e-06
-4.92283e-06
6.57915e-07
-4.61527e-06
-3.07559e-07
-3.81527e-06
-8.00006e-07
-2.79161e-06
-1.02365e-06
-1.69147e-06
-1.10014e-06
-5.92713e-07
-1.09876e-06
4.65396e-07
-1.05811e-06
1.46441e-06
-9.99013e-07
2.39612e-06
-9.31709e-07
3.25735e-06
-8.61228e-07
4.04736e-06
-7.90012e-07
4.76659e-06
-7.19233e-07
5.41612e-06
-6.49531e-07
5.99741e-06
-5.81289e-07
6.51214e-06
-5.14726e-07
6.96207e-06
-4.49934e-07
7.34898e-06
-3.86908e-07
7.67456e-06
-3.25581e-07
7.94046e-06
-2.65895e-07
8.14825e-06
-2.07795e-07
8.29927e-06
-1.51014e-07
8.39399e-06
-9.47271e-08
8.43131e-06
-3.73147e-08
8.40698e-06
2.43253e-08
8.31129e-06
9.56918e-08
8.13881e-06
1.72478e-07
7.87779e-06
2.61023e-07
7.51354e-06
3.64253e-07
7.02833e-06
4.85207e-07
6.40107e-06
6.27262e-07
5.60765e-06
7.93421e-07
4.62255e-06
9.85096e-07
3.422e-06
1.20055e-06
1.98887e-06
1.43313e-06
3.18353e-07
1.67052e-06
-1.57962e-06
1.89797e-06
-3.68735e-06
2.10773e-06
-5.91468e-06
2.32324e-06
-8.59249e-06
2.54403e-06
-1.04817e-05
1.88925e-06
-1.0967e-05
4.86604e-07
-1.51731e-06
-2.10733e-06
4.4739e-06
-2.76894e-06
2.55996e-06
-2.66842e-06
5.57391e-07
-2.18204e-06
-7.93941e-07
-1.4491e-06
-1.53294e-06
-5.85044e-07
-1.88771e-06
3.30826e-07
-2.01601e-06
1.24875e-06
-2.01668e-06
2.13929e-06
-1.94865e-06
2.98612e-06
-1.84584e-06
3.78116e-06
-1.72674e-06
4.52069e-06
-1.60076e-06
5.20315e-06
-1.47247e-06
5.82801e-06
-1.3441e-06
6.39528e-06
-1.21679e-06
6.90521e-06
-1.09122e-06
7.35822e-06
-9.67734e-07
7.75474e-06
-8.46452e-07
8.09513e-06
-7.27298e-07
8.37962e-06
-6.10071e-07
8.60835e-06
-4.94629e-07
8.7815e-06
-3.80947e-07
8.89923e-06
-2.68743e-07
8.96142e-06
-1.56916e-07
8.96735e-06
-4.32413e-08
8.91584e-06
7.58314e-08
8.80691e-06
2.04624e-07
8.63281e-06
3.46573e-07
8.38695e-06
5.06888e-07
8.06034e-06
6.90861e-07
7.64142e-06
9.04129e-07
7.1163e-06
1.15238e-06
6.46902e-06
1.4407e-06
5.68187e-06
1.77225e-06
4.7364e-06
2.14602e-06
3.61553e-06
2.554e-06
2.30748e-06
2.97857e-06
8.155e-07
3.38995e-06
-8.26749e-07
3.74998e-06
-2.47167e-06
4.03936e-06
-3.88212e-06
4.01217e-06
-5.17329e-06
3.0541e-06
-5.83763e-06
1.1915e-06
-1.42698e-06
-1.26337e-06
5.73727e-06
-1.31483e-06
2.61141e-06
-9.62926e-07
2.0549e-07
-4.24943e-07
-1.33192e-06
2.44966e-07
-2.20285e-06
9.90489e-07
-2.63323e-06
1.76539e-06
-2.79092e-06
2.53759e-06
-2.78888e-06
3.28744e-06
-2.6985e-06
4.00366e-06
-2.56207e-06
4.68013e-06
-2.40321e-06
5.31354e-06
-2.23416e-06
5.90195e-06
-2.06088e-06
6.44403e-06
-1.88618e-06
6.93873e-06
-1.7115e-06
7.38524e-06
-1.53773e-06
7.78287e-06
-1.36536e-06
8.13098e-06
-1.19456e-06
8.42887e-06
-1.02518e-06
8.67566e-06
-8.56865e-07
8.87042e-06
-6.89392e-07
9.01239e-06
-5.22916e-07
9.10105e-06
-3.57403e-07
9.1359e-06
-1.91762e-07
9.11604e-06
-2.33826e-08
9.04034e-06
1.51531e-07
8.9075e-06
3.37463e-07
8.71464e-06
5.39433e-07
8.45836e-06
7.63169e-07
8.13412e-06
1.0151e-06
7.73632e-06
1.30194e-06
7.25882e-06
1.62987e-06
6.69553e-06
2.00399e-06
6.04083e-06
2.42695e-06
5.2903e-06
2.89655e-06
4.44181e-06
3.40249e-06
3.49805e-06
3.92232e-06
2.47159e-06
4.41641e-06
1.39708e-06
4.82449e-06
3.74147e-07
5.0623e-06
-4.84404e-07
4.89894e-06
-1.27818e-06
3.84991e-06
-1.95488e-06
1.89629e-06
-9.69452e-07
-3.68648e-07
6.10592e-06
-4.37265e-08
2.28649e-06
4.63503e-07
-3.01739e-07
1.04795e-06
-1.91637e-06
1.67685e-06
-2.83176e-06
2.32819e-06
-3.28457e-06
2.98302e-06
-3.44574e-06
3.62691e-06
-3.43276e-06
4.25038e-06
-3.32197e-06
4.84787e-06
-3.15956e-06
5.416e-06
-2.97134e-06
5.95233e-06
-2.77049e-06
6.45472e-06
-2.56328e-06
6.92107e-06
-2.35253e-06
7.34927e-06
-2.1397e-06
7.73742e-06
-1.92587e-06
8.08381e-06
-1.71176e-06
8.38686e-06
-1.49761e-06
8.64495e-06
-1.28327e-06
8.85628e-06
-1.0682e-06
9.01897e-06
-8.52079e-07
9.13149e-06
-6.35437e-07
9.19294e-06
-4.18847e-07
9.20274e-06
-2.01567e-07
9.16023e-06
1.91286e-08
9.06446e-06
2.47299e-07
8.91442e-06
4.87508e-07
8.70917e-06
7.44685e-07
8.44781e-06
1.02453e-06
8.12916e-06
1.33375e-06
7.75191e-06
1.67918e-06
7.31543e-06
2.06635e-06
6.82036e-06
2.49906e-06
6.26911e-06
2.9782e-06
5.66638e-06
3.49928e-06
5.0198e-06
4.04907e-06
4.34106e-06
4.60106e-06
3.64793e-06
5.10954e-06
2.96979e-06
5.50263e-06
2.36098e-06
5.6711e-06
1.85139e-06
5.40854e-06
1.31832e-06
4.39941e-06
7.25255e-07
2.49847e-06
-3.57769e-07
5.24633e-07
5.58129e-06
1.10172e-06
1.70941e-06
1.74378e-06
-9.43799e-07
2.36094e-06
-2.53353e-06
2.94998e-06
-3.4208e-06
3.51611e-06
-3.85071e-06
4.06217e-06
-3.9918e-06
4.58873e-06
-3.95932e-06
5.09584e-06
-3.82907e-06
5.58351e-06
-3.64724e-06
6.05122e-06
-3.43904e-06
6.49748e-06
-3.21676e-06
6.92005e-06
-2.98584e-06
7.31601e-06
-2.74849e-06
7.68218e-06
-2.50587e-06
8.01557e-06
-2.25926e-06
8.31354e-06
-2.00972e-06
8.57369e-06
-1.75776e-06
8.79366e-06
-1.50325e-06
8.97084e-06
-1.24538e-06
9.10244e-06
-9.83674e-07
9.18626e-06
-7.19261e-07
9.22122e-06
-4.53808e-07
9.20699e-06
-1.8733e-07
9.14324e-06
8.28791e-08
9.02937e-06
3.61166e-07
8.86502e-06
6.5186e-07
8.6506e-06
9.59107e-07
8.38731e-06
1.28782e-06
8.07663e-06
1.64442e-06
7.72044e-06
2.03538e-06
7.32208e-06
2.46472e-06
6.88687e-06
2.93427e-06
6.42245e-06
3.44263e-06
5.93894e-06
3.98279e-06
5.44911e-06
4.5389e-06
4.96829e-06
5.08188e-06
4.51406e-06
5.56377e-06
4.10591e-06
5.91078e-06
3.76352e-06
6.01348e-06
3.47196e-06
5.70011e-06
3.12499e-06
4.74638e-06
2.62192e-06
3.0057e-06
2.71969e-07
1.2508e-06
4.33049e-06
2.14352e-06
8.16687e-07
2.90437e-06
-1.70465e-06
3.54016e-06
-3.16933e-06
4.08392e-06
-3.96455e-06
4.56742e-06
-4.33421e-06
5.01199e-06
-4.43638e-06
5.43041e-06
-4.37774e-06
5.83071e-06
-4.22937e-06
6.21781e-06
-4.03434e-06
6.59367e-06
-3.8149e-06
6.95761e-06
-3.5807e-06
7.30715e-06
-3.33538e-06
7.63859e-06
-3.07994e-06
7.94758e-06
-2.81486e-06
8.23006e-06
-2.54174e-06
8.48252e-06
-2.26219e-06
8.70194e-06
-1.97718e-06
8.88545e-06
-1.68676e-06
9.02978e-06
-1.38972e-06
9.13119e-06
-1.08508e-06
9.18686e-06
-7.74924e-07
9.19572e-06
-4.62669e-07
9.15797e-06
-1.49583e-07
9.07383e-06
1.67018e-07
8.94303e-06
4.91971e-07
8.76577e-06
8.29113e-07
8.54371e-06
1.18117e-06
8.27999e-06
1.55154e-06
7.97824e-06
1.94617e-06
7.64255e-06
2.37107e-06
7.27914e-06
2.82812e-06
6.89662e-06
3.31679e-06
6.50588e-06
3.83336e-06
6.12008e-06
4.36859e-06
5.75412e-06
4.90485e-06
5.42374e-06
5.41226e-06
5.14351e-06
5.844e-06
4.92334e-06
6.13096e-06
4.76118e-06
6.17564e-06
4.61897e-06
5.84232e-06
4.39655e-06
4.96881e-06
3.98103e-06
3.42122e-06
9.87943e-07
1.7879e-06
2.54259e-06
3.04728e-06
-4.42687e-07
3.93345e-06
-2.59082e-06
4.57493e-06
-3.81081e-06
5.06561e-06
-4.45523e-06
5.46794e-06
-4.73654e-06
5.81866e-06
-4.7871e-06
6.13948e-06
-4.69856e-06
6.44445e-06
-4.53434e-06
6.74238e-06
-4.33227e-06
7.0371e-06
-4.10962e-06
7.3283e-06
-3.87189e-06
7.61318e-06
-3.62026e-06
7.88726e-06
-3.35402e-06
8.14495e-06
-3.07254e-06
8.38114e-06
-2.77793e-06
8.59161e-06
-2.47267e-06
8.77287e-06
-2.15843e-06
8.92187e-06
-1.83576e-06
9.03491e-06
-1.50275e-06
9.10721e-06
-1.15739e-06
9.13526e-06
-8.02975e-07
9.11828e-06
-4.45687e-07
9.05738e-06
-8.86849e-08
8.95351e-06
2.70889e-07
8.80657e-06
6.38915e-07
8.61715e-06
1.01853e-06
8.38806e-06
1.41025e-06
8.12444e-06
1.81516e-06
7.83169e-06
2.23892e-06
7.5152e-06
2.68755e-06
7.18325e-06
3.16008e-06
6.84667e-06
3.65337e-06
6.51837e-06
4.16166e-06
6.21291e-06
4.67405e-06
5.94563e-06
5.17213e-06
5.73103e-06
5.62687e-06
5.57994e-06
5.99509e-06
5.49474e-06
6.21616e-06
5.46104e-06
6.20934e-06
5.43079e-06
5.87256e-06
5.30579e-06
5.09381e-06
4.95217e-06
3.77484e-06
1.75323e-06
2.2323e-06
3.10293e-07
3.83946e-06
-2.04985e-06
4.81587e-06
-3.56723e-06
5.43474e-06
-4.42968e-06
5.86307e-06
-4.88356e-06
6.18852e-06
-5.06199e-06
6.45669e-06
-5.05526e-06
6.69426e-06
-4.93612e-06
6.91924e-06
-4.75933e-06
7.14315e-06
-4.55618e-06
7.37073e-06
-4.3372e-06
7.60145e-06
-4.1026e-06
7.83206e-06
-3.85088e-06
8.05749e-06
-3.57945e-06
8.27096e-06
-3.28601e-06
8.46647e-06
-2.97343e-06
8.63921e-06
-2.64541e-06
8.78538e-06
-2.30461e-06
8.90216e-06
-1.95254e-06
8.98579e-06
-1.58638e-06
9.03031e-06
-1.20191e-06
9.03139e-06
-8.04049e-07
8.98879e-06
-4.03091e-07
8.90506e-06
-4.95595e-09
8.78213e-06
3.93817e-07
8.61975e-06
8.01295e-07
8.41858e-06
1.21971e-06
8.18254e-06
1.64629e-06
7.91908e-06
2.07862e-06
7.63512e-06
2.52288e-06
7.33625e-06
2.98642e-06
7.03218e-06
3.46415e-06
6.73537e-06
3.95018e-06
6.4598e-06
4.43723e-06
6.22049e-06
4.91336e-06
6.03222e-06
5.3604e-06
5.90769e-06
5.75139e-06
5.85437e-06
6.04841e-06
5.86962e-06
6.20091e-06
5.93329e-06
6.14567e-06
5.99576e-06
5.81009e-06
5.96532e-06
5.12424e-06
5.70141e-06
4.03876e-06
2.48463e-06
2.72104e-06
-2.41075e-06
4.53464e-06
-3.86337e-06
5.49383e-06
-4.52625e-06
6.05221e-06
-4.98784e-06
6.41479e-06
-5.24587e-06
6.67379e-06
-5.32073e-06
6.87639e-06
-5.25763e-06
7.05172e-06
-5.11125e-06
7.22001e-06
-4.92745e-06
7.39357e-06
-4.72961e-06
7.57608e-06
-4.51961e-06
7.76511e-06
-4.29156e-06
7.95649e-06
-4.04221e-06
8.14489e-06
-3.76786e-06
8.3224e-06
-3.46353e-06
8.48377e-06
-3.1348e-06
8.62384e-06
-2.78548e-06
8.73842e-06
-2.41919e-06
8.82541e-06
-2.03952e-06
8.88167e-06
-1.64264e-06
8.89985e-06
-1.22009e-06
8.87464e-06
-7.78839e-07
8.80669e-06
-3.35147e-07
8.70055e-06
1.01188e-07
8.55948e-06
5.34887e-07
8.3825e-06
9.78275e-07
8.16984e-06
1.43237e-06
7.92661e-06
1.88952e-06
7.66333e-06
2.3419e-06
7.38825e-06
2.79796e-06
7.10552e-06
3.26915e-06
6.82611e-06
3.74356e-06
6.5637e-06
4.21259e-06
6.33271e-06
4.66822e-06
6.14797e-06
5.0981e-06
6.02332e-06
5.48505e-06
5.96962e-06
5.80509e-06
5.99178e-06
6.02625e-06
6.08447e-06
6.10823e-06
6.22642e-06
6.00372e-06
6.37246e-06
5.66405e-06
6.44524e-06
5.05147e-06
6.32386e-06
4.16013e-06
3.03023e-06
2.87958e-06
-2.27326e-06
4.24615e-06
-2.3723e-06
5.01665e-06
-2.53056e-06
5.45045e-06
-2.67843e-06
5.70497e-06
-2.72124e-06
5.88652e-06
-2.71146e-06
6.06221e-06
-2.6831e-06
6.27888e-06
-2.68e-06
6.55747e-06
-2.74059e-06
6.89016e-06
-2.87918e-06
7.24645e-06
-3.07794e-06
7.59059e-06
-3.30128e-06
7.89222e-06
-3.51032e-06
8.10853e-06
-3.64998e-06
8.26987e-06
-3.62498e-06
8.41289e-06
-3.27794e-06
8.53514e-06
-2.90779e-06
8.62831e-06
-2.51239e-06
8.69115e-06
-2.10236e-06
8.72281e-06
-1.67431e-06
8.71553e-06
-1.21281e-06
8.66432e-06
-7.27635e-07
8.57134e-06
-2.4216e-07
8.44348e-06
2.29044e-07
8.28569e-06
6.92681e-07
8.09531e-06
1.16865e-06
7.87156e-06
1.65612e-06
7.62082e-06
2.14025e-06
7.35815e-06
2.60458e-06
7.09294e-06
3.06317e-06
6.82542e-06
3.53667e-06
6.56813e-06
4.00085e-06
6.33592e-06
4.4448e-06
6.14302e-06
4.86112e-06
6.0037e-06
5.23742e-06
5.93064e-06
5.55811e-06
5.93316e-06
5.80257e-06
6.01452e-06
5.94489e-06
6.16843e-06
5.95432e-06
6.37546e-06
5.79669e-06
6.59849e-06
5.44101e-06
6.77873e-06
4.87123e-06
6.82943e-06
4.10943e-06
3.284e-06
3.36728e-07
9.81352e-17
6.05356e-07
4.37868e-17
7.88742e-07
2.49967e-17
8.68529e-07
1.49467e-17
9.07288e-07
5.64692e-15
9.38671e-07
1.84138e-14
1.00079e-06
3.88402e-14
1.12782e-06
6.14352e-14
1.35563e-06
7.67185e-14
1.71656e-06
7.74462e-14
2.23415e-06
6.68656e-14
2.93213e-06
4.66104e-14
3.82925e-06
2.61946e-14
4.88132e-06
1.04609e-14
5.93196e-06
-8.22494e-07
6.78063e-06
-1.05127e-06
7.53164e-06
-1.28307e-06
8.12113e-06
-1.4667e-06
8.50338e-06
-1.56915e-06
8.6399e-06
-1.51421e-06
8.62318e-06
-1.19552e-06
8.54804e-06
-6.52546e-07
8.42947e-06
-1.2359e-07
8.27815e-06
3.80366e-07
8.10177e-06
8.69061e-07
7.89532e-06
1.3751e-06
7.65686e-06
1.89457e-06
7.394e-06
2.40312e-06
7.12902e-06
2.86956e-06
6.87212e-06
3.32007e-06
6.61543e-06
3.79337e-06
6.37483e-06
4.24145e-06
6.16676e-06
4.65286e-06
6.00479e-06
5.02309e-06
5.90249e-06
5.33972e-06
5.87157e-06
5.58904e-06
5.92028e-06
5.75385e-06
6.05104e-06
5.81413e-06
6.25759e-06
5.74777e-06
6.52369e-06
5.53059e-06
6.82208e-06
5.14263e-06
7.11721e-06
4.5761e-06
7.37476e-06
3.85188e-06
3.05632e-06
-4.18008e-17
1.54748e-16
-3.53938e-17
7.15502e-17
-2.47286e-17
4.17488e-17
-1.65863e-17
2.6247e-17
-6.71949e-15
1.53894e-14
-2.29747e-14
4.72024e-14
-5.06987e-14
9.6365e-14
-8.41689e-14
1.52687e-13
-1.10546e-13
1.98292e-13
-1.17532e-13
2.18716e-13
-1.07329e-13
2.0947e-13
-7.97479e-14
1.77084e-13
-4.82059e-14
1.35793e-13
-2.09037e-14
1.0132e-13
7.23583e-08
8.54278e-14
5.74032e-07
9.26556e-14
1.26246e-06
1.06737e-13
2.2622e-06
1.11025e-13
3.63135e-06
8.95087e-14
5.19141e-06
3.72074e-14
6.50279e-06
-2.59308e-07
7.31778e-06
-1.93969e-07
7.80637e-06
1.2893e-08
7.87762e-06
4.10858e-07
7.78532e-06
9.61354e-07
7.56793e-06
1.59249e-06
7.31659e-06
2.14591e-06
7.04313e-06
2.67658e-06
6.78228e-06
3.13041e-06
6.54356e-06
3.55879e-06
6.30192e-06
4.035e-06
6.08131e-06
4.46206e-06
5.8999e-06
4.83426e-06
5.76897e-06
5.15403e-06
5.70099e-06
5.4077e-06
5.70662e-06
5.5834e-06
5.79337e-06
5.66711e-06
5.96332e-06
5.64418e-06
6.21061e-06
5.50048e-06
6.52208e-06
5.21912e-06
6.87798e-06
4.78673e-06
7.25832e-06
4.19576e-06
7.65973e-06
3.45047e-06
2.56819e-06
9.05963e-18
1.15685e-16
-1.36077e-17
7.73288e-17
-1.71452e-17
3.39601e-17
-1.6207e-17
2.18181e-17
-1.26785e-14
2.29936e-14
-4.69816e-14
6.53542e-14
-1.09989e-13
1.26613e-13
-1.94387e-13
1.93941e-13
-2.76773e-13
2.47313e-13
-3.30922e-13
2.70998e-13
-3.41422e-13
2.60533e-13
-3.10218e-13
2.23557e-13
-2.55234e-13
1.7662e-13
-2.04879e-13
1.40275e-13
-1.88419e-13
1.34569e-13
-2.19402e-13
1.75178e-13
-2.8685e-13
2.53337e-13
-3.50913e-13
3.35958e-13
-3.44703e-13
3.86046e-13
-1.84385e-13
3.61001e-13
1.63168e-07
2.49577e-13
9.32486e-07
1.168e-13
2.18051e-06
9.52262e-10
3.92926e-06
5.96997e-09
5.6289e-06
1.62234e-07
6.58926e-06
7.26702e-07
6.69117e-06
1.627e-06
6.62754e-06
2.7402e-06
6.38631e-06
3.37163e-06
6.18251e-06
3.76259e-06
5.95487e-06
4.26264e-06
5.75908e-06
4.65785e-06
5.60907e-06
4.98428e-06
5.51034e-06
5.25276e-06
5.47465e-06
5.44339e-06
5.51203e-06
5.54602e-06
5.62959e-06
5.54955e-06
5.8298e-06
5.44396e-06
6.10679e-06
5.22348e-06
6.44948e-06
4.87643e-06
6.84153e-06
4.39468e-06
7.26827e-06
3.76901e-06
7.72961e-06
2.98913e-06
2.02982e-06
1.13172e-17
6.99285e-17
1.18241e-19
5.31072e-17
-5.51819e-18
1.9998e-17
-7.41026e-18
1.2598e-17
-1.238e-14
2.01816e-14
-4.82347e-14
5.57948e-14
-1.17089e-13
1.04542e-13
-2.12826e-13
1.5504e-13
-3.11129e-13
1.9262e-13
-3.82314e-13
2.07215e-13
-4.07063e-13
1.97118e-13
-3.85441e-13
1.69035e-13
-3.38716e-13
1.36767e-13
-3.06556e-13
1.18828e-13
-3.40026e-13
1.35024e-13
-4.86563e-13
2.02006e-13
-7.73232e-13
3.1749e-13
-1.18334e-12
4.45435e-13
-1.63438e-12
5.12178e-13
-1.98736e-12
4.03496e-13
-2.1934e-12
2.10591e-13
-2.19504e-12
3.9607e-14
9.19401e-10
3.10904e-11
6.76577e-09
4.86828e-11
1.32129e-07
5.41428e-10
7.24493e-07
3.06837e-09
1.99903e-06
3.88201e-09
3.91484e-06
4.30229e-08
5.27413e-06
1.05045e-06
5.76735e-06
3.11288e-06
5.5819e-06
4.44809e-06
5.42856e-06
4.8112e-06
5.32112e-06
5.09172e-06
5.2577e-06
5.31618e-06
5.25452e-06
5.44657e-06
5.32001e-06
5.48054e-06
5.46156e-06
5.40799e-06
5.68311e-06
5.22241e-06
5.97798e-06
4.92862e-06
6.33641e-06
4.518e-06
6.74143e-06
3.98966e-06
7.17496e-06
3.33548e-06
7.62208e-06
2.54202e-06
1.57209e-06
3.722e-18
3.76133e-17
2.29487e-19
2.67573e-17
-1.77081e-18
9.19604e-18
-2.77882e-18
5.66671e-18
-7.71559e-15
1.02602e-14
-3.12872e-14
2.85958e-14
-7.76991e-14
5.24637e-14
-1.43099e-13
7.56902e-14
-2.11512e-13
9.1728e-14
-2.633e-13
9.68173e-14
-2.85294e-13
9.09844e-14
-2.77365e-13
7.81356e-14
-2.563e-13
6.65059e-14
-2.59103e-13
6.86749e-14
-3.43735e-13
9.97604e-14
-5.81584e-13
1.7363e-13
-1.03871e-12
2.904e-13
-1.7488e-12
4.18026e-13
-2.69669e-12
4.81903e-13
-3.84544e-12
3.77144e-13
-5.08466e-12
1.19104e-13
-6.22363e-12
-2.06884e-13
-5.82844e-12
-5.99793e-13
3.84081e-11
4.45822e-12
5.52824e-10
2.05327e-11
3.54308e-09
4.29583e-11
7.10519e-09
1.65232e-10
4.76269e-08
3.94811e-10
6.91428e-07
5.09917e-09
2.14992e-06
8.00514e-09
3.7931e-06
2.78608e-07
4.61727e-06
2.3316e-06
5.0535e-06
4.65548e-06
5.05087e-06
5.31881e-06
5.08355e-06
5.41389e-06
5.17216e-06
5.39193e-06
5.33025e-06
5.24991e-06
5.56319e-06
4.98947e-06
5.86244e-06
4.62937e-06
6.22026e-06
4.16018e-06
6.61629e-06
3.59363e-06
7.02494e-06
2.92683e-06
7.40995e-06
2.15701e-06
1.25812e-06
1.31613e-18
1.74543e-17
7.24863e-20
1.06955e-17
-6.30454e-19
3.48731e-18
-9.77606e-19
2.11005e-18
-3.10418e-15
2.84251e-15
-1.29288e-14
8.15458e-15
-3.21883e-14
1.45265e-14
-5.91212e-14
2.01655e-14
-8.73432e-14
2.36354e-14
-1.09193e-13
2.43337e-14
-1.19488e-13
2.25131e-14
-1.18725e-13
1.9636e-14
-1.17338e-13
1.94695e-14
-1.42169e-13
2.90732e-14
-2.42649e-13
5.82776e-14
-4.90242e-13
1.16799e-13
-9.66703e-13
2.05768e-13
-1.74529e-12
3.04376e-13
-2.87861e-12
3.60326e-13
-4.4051e-12
2.96755e-13
-6.29947e-12
7.08341e-14
-8.45459e-12
-4.26005e-13
-1.0695e-11
-1.34422e-12
-1.26258e-11
-2.71214e-12
6.93645e-12
1.02553e-12
3.82492e-11
1.1812e-11
1.43042e-10
6.02982e-11
5.16889e-10
1.41648e-11
5.43429e-09
1.10288e-10
1.28778e-08
3.28551e-10
1.25284e-07
9.38832e-10
1.3031e-06
6.9234e-09
3.34789e-06
9.4954e-08
4.34432e-06
2.15208e-06
4.98835e-06
4.76984e-06
5.12183e-06
5.25846e-06
5.28778e-06
5.08396e-06
5.51808e-06
4.75917e-06
5.80505e-06
4.34241e-06
6.14451e-06
3.82072e-06
6.51179e-06
3.22636e-06
6.87498e-06
2.56364e-06
7.17805e-06
1.85393e-06
1.0947e-06
2.86964e-19
7.11641e-18
-8.34464e-20
3.44074e-18
-2.46609e-19
1.1861e-18
-3.2944e-19
6.95495e-19
-7.46473e-16
3.37882e-16
-3.15625e-15
1.00886e-15
-7.63259e-15
1.68837e-15
-1.3598e-14
2.15541e-15
-1.9665e-14
2.33331e-15
-2.43175e-14
2.24838e-15
-2.65754e-14
1.98118e-15
-2.71714e-14
1.95455e-15
-3.15891e-14
3.69205e-15
-5.56058e-14
1.06077e-14
-1.31767e-13
2.80076e-14
-3.12683e-13
6.15234e-14
-6.67693e-13
1.12728e-13
-1.27412e-12
1.72044e-13
-2.20934e-12
2.12344e-13
-3.54833e-12
1.89287e-13
-5.34408e-12
5.74748e-14
-7.61305e-12
-4.00139e-13
-1.03509e-11
-1.34017e-12
-1.34895e-11
-2.92101e-12
-1.56049e-11
-4.71676e-12
-1.42207e-11
-5.49237e-12
-8.77919e-13
-4.2632e-13
9.34377e-12
4.04574e-12
9.90876e-11
1.76915e-11
4.12018e-10
1.034e-11
1.28489e-09
3.69843e-11
7.76473e-09
2.92616e-10
8.44485e-08
8.30393e-10
1.0927e-06
8.59525e-09
3.33547e-06
8.75596e-08
4.66484e-06
2.15958e-06
5.36452e-06
4.38425e-06
5.60473e-06
4.51896e-06
5.85652e-06
4.09062e-06
6.15568e-06
3.52155e-06
6.47488e-06
2.90716e-06
6.78023e-06
2.25828e-06
7.00191e-06
1.63226e-06
1.05319e-06
2.92217e-20
2.66256e-18
-9.23675e-20
9.58988e-19
-9.74262e-20
3.73578e-19
-1.07475e-19
2.16783e-19
-8.22788e-17
1.69485e-19
-3.50948e-16
1.87006e-19
-7.86431e-16
3.43242e-19
-1.28394e-15
7.45731e-19
-1.71933e-15
1.54362e-18
-2.00186e-15
3.12391e-18
-2.09922e-15
6.69415e-18
-2.44522e-15
1.34284e-16
-5.44494e-15
9.33552e-16
-1.84978e-14
3.73432e-15
-5.80227e-14
1.07421e-14
-1.52821e-13
2.44896e-14
-3.44963e-13
4.62011e-14
-6.8773e-13
7.29814e-14
-1.24203e-12
9.46995e-14
-2.0728e-12
9.2508e-14
-3.24129e-12
4.11864e-14
-4.80945e-12
-2.17496e-13
-6.85201e-12
-8.43368e-13
-9.44831e-12
-1.93835e-12
-1.24611e-11
-3.5622e-12
-1.53139e-11
-5.5828e-12
-1.64266e-11
-7.35015e-12
-1.38978e-11
-7.33308e-12
2.94422e-12
8.65251e-13
8.36706e-12
4.91644e-12
2.65432e-11
1.8985e-11
3.02883e-10
1.20083e-11
1.104e-09
2.1951e-11
9.29792e-09
2.76251e-10
9.59749e-08
8.20593e-10
1.30178e-06
9.50285e-09
3.89968e-06
1.28683e-07
5.44047e-06
2.18806e-06
6.03912e-06
3.49194e-06
6.29975e-06
3.26092e-06
6.54578e-06
2.66113e-06
6.78206e-06
2.02201e-06
6.9316e-06
1.48272e-06
1.09071e-06
-2.1472e-20
9.42586e-19
-4.38768e-20
2.60248e-19
-3.59391e-20
1.07287e-19
-3.45007e-20
6.50473e-20
-3.98197e-20
6.1793e-20
-6.04997e-20
9.18588e-20
-1.45673e-19
1.86737e-19
-4.00582e-19
3.93263e-19
-1.02178e-18
7.76375e-19
-2.499e-18
1.48451e-18
-6.3875e-18
2.95509e-18
-1.51724e-16
3.61991e-17
-1.24639e-15
2.45025e-16
-5.90494e-15
9.94656e-16
-2.02414e-14
2.92668e-15
-5.56928e-14
6.8464e-15
-1.30355e-13
1.33134e-14
-2.69353e-13
2.18649e-14
-5.0409e-13
2.99881e-14
-8.7029e-13
3.22113e-14
-1.40424e-12
1.97604e-14
-2.14878e-12
-6.67226e-14
-3.17161e-12
-3.48114e-13
-4.55991e-12
-8.62905e-13
-6.37421e-12
-1.69961e-12
-8.59118e-12
-2.93212e-12
-1.1037e-11
-4.58527e-12
-1.27338e-11
-6.20957e-12
-1.11024e-11
-6.14684e-12
-7.35811e-12
-4.56419e-12
-2.73519e-13
-1.88806e-13
6.69338e-12
5.04401e-12
2.46591e-11
3.65099e-12
2.89935e-10
7.41455e-12
1.09235e-09
1.81729e-11
1.02804e-08
2.80987e-10
1.38521e-07
7.05641e-10
1.82223e-06
8.53338e-09
4.67309e-06
1.57681e-07
6.30443e-06
1.77842e-06
6.72238e-06
2.24316e-06
6.89762e-06
1.84678e-06
6.97808e-06
1.40226e-06
1.16533e-06
-2.22247e-20
2.91974e-19
-1.62235e-20
6.63061e-20
-1.17358e-20
2.67277e-20
-1.07498e-20
1.897e-20
-1.42717e-20
2.59481e-20
-2.82127e-20
5.20954e-20
-7.35935e-20
1.12274e-19
-1.9355e-19
2.26916e-19
-4.67347e-19
4.23533e-19
-1.07613e-18
7.54255e-19
-2.55219e-18
1.35074e-18
-3.70188e-17
7.20003e-18
-2.96155e-16
4.20428e-17
-1.42426e-15
1.68972e-16
-4.9991e-15
5.05743e-16
-1.41447e-14
1.21481e-15
-3.41557e-14
2.44334e-15
-7.29884e-14
4.19199e-15
-1.41471e-13
6.10904e-15
-2.53048e-13
7.23342e-15
-4.22831e-13
5.71799e-15
-6.69476e-13
-7.69638e-15
-1.03334e-12
-9.42693e-14
-1.5654e-12
-2.65456e-13
-2.32487e-12
-5.69658e-13
-3.37042e-12
-1.06828e-12
-4.76595e-12
-1.83921e-12
-6.3963e-12
-2.88346e-12
-7.66203e-12
-3.90428e-12
-7.71958e-12
-4.36187e-12
-6.06277e-12
-3.7417e-12
-2.20578e-12
-1.45763e-12
1.07699e-12
3.68016e-13
6.041e-12
2.37775e-12
2.32724e-11
7.36894e-13
2.97392e-10
6.04247e-12
9.96336e-10
1.36146e-11
9.32496e-09
2.58224e-10
1.66414e-07
4.5908e-10
2.20494e-06
8.28249e-09
5.38612e-06
1.41151e-07
6.92803e-06
1.16563e-06
7.07899e-06
1.25128e-06
1.22646e-06
-1.07513e-20
6.70388e-20
-5.00816e-21
1.36147e-20
-3.20337e-21
5.69256e-21
-3.22929e-21
6.28827e-21
-5.91758e-21
1.35113e-20
-1.53369e-20
3.29243e-20
-4.15478e-20
7.31306e-20
-1.03416e-19
1.44873e-19
-2.33968e-19
2.6254e-19
-4.98995e-19
4.49049e-19
-1.06122e-18
7.47605e-19
-6.68541e-18
1.596e-18
-4.60815e-17
5.00012e-18
-2.19202e-16
1.65421e-17
-7.82143e-16
4.75298e-17
-2.27077e-15
1.15746e-16
-5.65556e-15
2.42325e-16
-1.25155e-14
4.41332e-16
-2.52175e-14
6.97745e-16
-4.70834e-14
9.28564e-16
-8.25262e-14
9.19018e-16
-1.37437e-13
2.15948e-16
-2.2886e-13
-1.5682e-14
-3.82623e-13
-5.61563e-14
-6.32653e-13
-1.4e-13
-1.02009e-12
-2.9739e-13
-1.59887e-12
-5.71403e-13
-2.41029e-12
-1.0076e-12
-3.3945e-12
-1.60377e-12
-4.24914e-12
-2.21569e-12
-4.60595e-12
-2.59923e-12
-3.75501e-12
-2.24732e-12
-2.13391e-12
-1.33218e-12
1.78658e-13
6.53069e-14
5.61461e-13
3.54118e-13
5.58827e-12
1.00724e-12
1.85981e-11
4.22533e-13
2.7428e-10
5.19202e-12
7.3566e-10
7.5285e-12
9.01593e-09
1.84297e-10
2.02828e-07
4.56303e-10
2.39521e-06
1.26551e-08
5.88446e-06
1.39135e-07
6.97582e-06
9.4395e-07
1.69166e-06
-3.15743e-21
1.04381e-20
-1.156e-21
2.15187e-21
-7.21574e-22
1.35687e-21
-1.08578e-21
2.96434e-21
-3.02916e-21
8.34215e-21
-9.30591e-21
2.19134e-20
-2.55269e-20
4.93214e-20
-6.14835e-20
9.75523e-20
-1.33833e-19
1.76616e-19
-2.72432e-19
3.02104e-19
-5.36358e-19
4.98374e-19
-1.34927e-18
8.06693e-19
-4.97895e-18
1.32021e-18
-1.94598e-17
2.29817e-18
-6.65342e-17
4.435e-18
-1.95351e-16
9.32774e-18
-5.04023e-16
2.00142e-17
-1.17204e-15
4.103e-17
-2.50808e-15
7.66335e-17
-5.01944e-15
1.24565e-16
-9.51176e-15
1.60806e-16
-1.7232e-14
1.07848e-16
-3.17995e-14
-1.3425e-15
-6.20603e-14
-7.51849e-15
-1.22024e-13
-2.38661e-14
-2.32857e-13
-6.17212e-14
-4.24427e-13
-1.39747e-13
-7.33995e-13
-2.84499e-13
-1.19007e-12
-5.22959e-13
-1.75788e-12
-8.52181e-13
-2.31796e-12
-1.21236e-12
-2.53118e-12
-1.39929e-12
-2.22163e-12
-1.27538e-12
-1.39906e-12
-8.20431e-13
-7.44595e-13
-4.39981e-13
1.8784e-13
7.46731e-14
3.81213e-13
2.28962e-13
5.07688e-12
4.6388e-13
1.24865e-11
1.8021e-13
1.97306e-10
2.85925e-12
6.60094e-10
5.90457e-12
1.33904e-08
8.66709e-11
3.99668e-07
1.12563e-09
2.84884e-06
3.49687e-08
4.30631e-07
-5.6555e-22
9.70682e-22
-1.94688e-22
3.03694e-22
-1.76227e-22
5.39324e-22
-5.09734e-22
1.7876e-21
-1.821e-21
5.47501e-21
-5.92249e-21
1.47192e-20
-1.62289e-20
3.33315e-20
-3.85997e-20
6.63336e-20
-8.32494e-20
1.21706e-19
-1.68445e-19
2.1257e-19
-3.27142e-19
3.59176e-19
-6.21909e-19
5.91851e-19
-1.19562e-18
9.63773e-19
-2.4529e-18
1.59681e-18
-5.61838e-18
2.79662e-18
-1.4198e-17
5.26487e-18
-3.73285e-17
1.03727e-17
-9.66967e-17
2.02913e-17
-2.39693e-16
3.74424e-17
-5.62778e-16
6.21666e-17
-1.2507e-15
8.6625e-17
-2.63928e-15
8.16223e-17
-5.41366e-15
-6.81527e-17
-1.14814e-14
-1.06665e-15
-2.46315e-14
-4.13831e-15
-5.20928e-14
-1.23747e-14
-1.06186e-13
-3.19843e-14
-2.05844e-13
-7.38058e-14
-3.75407e-13
-1.53588e-13
-6.32606e-13
-2.86403e-13
-9.66952e-13
-4.72793e-13
-1.27994e-12
-6.61843e-13
-1.44009e-12
-7.73455e-13
-1.37144e-12
-7.53028e-13
-1.16147e-12
-6.43379e-13
-7.25108e-13
-4.00641e-13
-2.88802e-13
-1.57821e-13
1.2033e-13
5.46358e-14
1.90859e-13
1.0955e-13
2.80904e-12
1.87363e-13
8.71426e-12
1.14377e-13
9.65524e-11
1.28611e-12
1.23176e-09
1.2325e-11
3.62993e-08
7.72991e-11
3.49612e-09
-5.64531e-23
6.11568e-23
-2.809e-23
8.42953e-23
-6.97671e-23
3.11296e-22
-3.00276e-22
1.15058e-21
-1.14902e-21
3.61124e-21
-3.77404e-21
9.79298e-21
-1.02911e-20
2.2244e-20
-2.44112e-20
4.46678e-20
-5.29836e-20
8.3588e-20
-1.08877e-19
1.50281e-19
-2.15683e-19
2.62466e-19
-4.16037e-19
4.46021e-19
-7.93646e-19
7.40418e-19
-1.54569e-18
1.21793e-18
-3.20383e-18
2.03253e-18
-7.21906e-18
3.51181e-18
-1.73238e-17
6.28073e-18
-4.23949e-17
1.13408e-17
-1.02002e-16
1.9898e-17
-2.3649e-16
3.25054e-17
-5.24338e-16
4.6726e-17
-1.11079e-15
5.19767e-17
-2.25496e-15
1.95032e-17
-4.48477e-15
-2.7838e-16
-8.83286e-15
-1.22402e-15
-1.73852e-14
-3.63298e-15
-3.41657e-14
-9.32735e-15
-6.64012e-14
-2.19371e-14
-1.25678e-13
-4.78548e-14
-2.26835e-13
-9.61823e-14
-3.81279e-13
-1.7533e-13
-5.76105e-13
-2.81125e-13
-7.68822e-13
-3.90938e-13
-9.10388e-13
-4.74993e-13
-9.71182e-13
-5.13311e-13
-8.91852e-13
-4.72586e-13
-6.91606e-13
-3.64623e-13
-4.09008e-13
-2.13482e-13
-1.04908e-13
-5.4133e-14
5.78299e-14
2.45628e-14
1.15758e-13
5.64113e-14
1.28392e-12
7.22739e-14
1.355e-11
2.19871e-13
9.19763e-11
1.32503e-12
4.68151e-11
-3.62747e-24
1.66576e-23
-7.70309e-24
4.64388e-23
-3.90899e-23
1.94373e-22
-1.85155e-22
7.40786e-22
-7.1813e-22
2.35179e-21
-2.35695e-21
6.40356e-21
-6.39515e-21
1.45723e-20
-1.52044e-20
2.96049e-20
-3.34746e-20
5.6785e-20
-7.04971e-20
1.05543e-19
-1.4384e-19
1.90853e-19
-2.85307e-19
3.34424e-19
-5.53426e-19
5.67218e-19
-1.06741e-18
9.3753e-19
-2.10211e-18
1.5312e-18
-4.3304e-18
2.50929e-18
-9.37879e-18
4.15874e-18
-2.09893e-17
6.92692e-18
-4.72733e-17
1.1362e-17
-1.04829e-16
1.77973e-17
-2.2591e-16
2.54826e-17
-4.70401e-16
3.0665e-17
-9.45145e-16
2.28459e-17
-1.85314e-15
-5.29117e-17
-3.59257e-15
-3.85129e-16
-6.8993e-15
-1.23647e-15
-1.31662e-14
-3.21854e-15
-2.4981e-14
-7.56277e-15
-4.69466e-14
-1.66146e-14
-8.63253e-14
-3.43434e-14
-1.52089e-13
-6.60745e-14
-2.49375e-13
-1.15633e-13
-3.73107e-13
-1.81253e-13
-5.08027e-13
-2.54629e-13
-6.30952e-13
-3.22234e-13
-7.04371e-13
-3.62941e-13
-7.00014e-13
-3.61267e-13
-6.0841e-13
-3.13005e-13
-4.30008e-13
-2.20094e-13
-2.18592e-13
-1.11351e-13
-3.24615e-14
-1.65057e-14
2.93517e-14
9.22455e-15
1.77535e-13
7.16217e-14
1.40281e-12
3.53084e-14
8.31755e-13
-9.67276e-25
1.16911e-23
-4.0695e-24
2.80927e-23
-2.31294e-23
1.21007e-22
-1.11988e-22
4.69812e-22
-4.36186e-22
1.50183e-21
-1.42845e-21
4.09637e-21
-3.86191e-21
9.34234e-21
-9.24573e-21
1.92798e-20
-2.07828e-20
3.81006e-20
-4.51008e-20
7.34053e-20
-9.50223e-20
1.37297e-19
-1.93901e-19
2.47272e-19
-3.83477e-19
4.27559e-19
-7.4156e-19
7.12677e-19
-1.42547e-18
1.1557e-18
-2.77518e-18
1.84281e-18
-5.54014e-18
2.91161e-18
-1.13419e-17
4.56106e-18
-2.35578e-17
7.02365e-18
-4.89224e-17
1.04413e-17
-1.00307e-16
1.45413e-17
-2.01369e-16
1.79401e-17
-3.94094e-16
1.68098e-17
-7.52862e-16
2.52612e-18
-1.43183e-15
-1.05493e-16
-2.71206e-15
-4.01693e-16
-5.12313e-15
-1.10337e-15
-9.64378e-15
-2.65591e-15
-1.80723e-14
-5.93081e-15
-3.35343e-14
-1.25312e-14
-6.07102e-14
-2.50117e-14
-1.04824e-13
-4.6459e-14
-1.69275e-13
-7.91647e-14
-2.53407e-13
-1.23126e-13
-3.50326e-13
-1.74662e-13
-4.44388e-13
-2.25136e-13
-5.14029e-13
-2.62699e-13
-5.39207e-13
-2.76589e-13
-5.00375e-13
-2.56888e-13
-3.88175e-13
-1.99263e-13
-2.44858e-13
-1.25805e-13
-1.00343e-13
-5.17896e-14
-1.60559e-15
-8.38395e-16
2.57641e-14
7.78717e-15
5.7081e-14
-6.4197e-25
7.69017e-24
-2.29716e-24
1.66641e-23
-1.3331e-23
7.40507e-23
-6.53999e-23
2.91698e-22
-2.55392e-22
9.36079e-22
-8.34738e-22
2.55444e-21
-2.2544e-21
5.84964e-21
-5.46708e-21
1.23297e-20
-1.26308e-20
2.52249e-20
-2.8355e-20
5.04099e-20
-6.16862e-20
9.72195e-20
-1.29179e-19
1.79143e-19
-2.60057e-19
3.1473e-19
-5.06292e-19
5.29476e-19
-9.64197e-19
8.5954e-19
-1.82079e-18
1.35733e-18
-3.44896e-18
2.09696e-18
-6.59217e-18
3.17361e-18
-1.27049e-17
4.68505e-18
-2.45542e-17
6.67425e-18
-4.72436e-17
8.9985e-18
-8.99084e-17
1.10703e-17
-1.68442e-16
1.13872e-17
-3.09769e-16
6.7319e-18
-5.66978e-16
-2.13443e-17
-1.04308e-15
-1.20349e-16
-1.93082e-15
-3.58166e-16
-3.59342e-15
-8.91559e-16
-6.71554e-15
-2.03683e-15
-1.25646e-14
-4.41278e-15
-2.3263e-14
-9.11917e-15
-4.17858e-14
-1.77984e-14
-7.14082e-14
-3.23784e-14
-1.14664e-13
-5.44643e-14
-1.71812e-13
-8.44159e-14
-2.39174e-13
-1.2036e-13
-3.07966e-13
-1.57547e-13
-3.65656e-13
-1.89126e-13
-3.95344e-13
-2.05979e-13
-3.76517e-13
-1.9717e-13
-3.16158e-13
-1.66266e-13
-2.18342e-13
-1.15395e-13
-1.16739e-13
-6.21654e-14
-3.24838e-14
-1.75355e-14
3.822e-15
-3.8719e-25
4.34055e-24
-1.23856e-24
9.58541e-24
-7.37786e-24
4.4321e-23
-3.66161e-23
1.7651e-22
-1.43262e-22