/*--------------------------------*- C++ -*----------------------------------*\
| =========                 |                                                 |
| \\      /  F ield         | OpenFOAM: The Open Source CFD Toolbox           |
|  \\    /   O peration     | Version:  5.0                                   |
|   \\  /    A nd           | Web:      www.OpenFOAM.org                      |
|    \\/     M anipulation  |                                                 |
\*---------------------------------------------------------------------------*/
FoamFile
{
    version     2.0;
    format      ascii;
    class       volScalarField;
    location    "0.65";
    object      alpha.water;
}
// * * * * * * * * * * * * * * * * * * * * * * * * * * * * * * * * * * * * * //

dimensions      [0 0 0 0 0 0 0];

internalField   nonuniform List<scalar> 
1935
(
1
1
1
1
1
1
1
1
1
1
1
1
1
1
1
1
1
1
1
1
1
1
1
1
1
1
1
1
1
1
1
1
1
1
1
1
1
1
1
0.985119
0.965263
1
0.999969
0.999667
1
1
1
1
1
1
1
1
1
1
1
1
1
1
1
1
1
1
1
1
1
1
1
1
1
1
1
1
1
1
1
1
1
1
1
1
1
1
1
0.99587
0.97411
0.986002
0.998752
0.982809
1
1
1
1
1
1
1
1
1
1
1
1
1
1
1
1
1
1
1
1
1
1
1
1
1
1
1
1
1
1
1
1
1
1
1
1
1
1
1
1
0.999113
0.987006
0.976582
0.969878
1
1
1
1
1
1
1
1
1
1
1
1
1
1
1
1
1
1
1
1
1
1
1
1
1
1
1
1
1
1
1
1
1
1
1
1
1
1
1
1
1
0.999472
0.977338
0.969874
1
1
1
1
1
1
1
1
1
1
1
1
1
1
1
1
1
1
1
1
1
1
1
1
1
1
1
1
1
1
1
1
1
1
1
1
1
1
1
1
1
1
0.996773
0.976727
1
1
1
1
1
1
1
1
1
1
1
1
1
1
1
1
1
1
1
1
1
1
1
1
1
1
1
1
1
1
1
1
1
1
1
1
1
1
1
1
1
1
1
0.997612
1
1
1
1
1
1
1
1
1
1
1
1
1
1
1
1
1
1
1
1
1
1
1
1
1
1
1
1
1
1
1
1
1
1
1
1
1
1
1
1
1
1
1
1
1
1
1
1
1
1
1
1
1
1
1
1
1
1
1
1
1
1
1
1
1
1
1
1
1
1
1
1
1
1
1
1
1
1
1
1
1
1
1
1
1
1
1
1
1
0.999992
0.999984
0.999979
0.999975
0.999974
0.999975
0.999977
0.999981
0.999986
0.999991
0.999995
0.999997
0.999999
1
1
1
1
1
1
1
1
1
1
1
1
1
1
1
1
1
1
1
1
1
1
1
1
1
1
1
1
1
1
0.833452
0.833855
0.843794
0.849037
0.847548
0.846648
0.849363
0.858432
0.875894
0.900978
0.929991
0.95807
0.981082
0.995778
0.999969
0.999982
0.99999
0.999996
0.999999
1
1
1
1
1
1
1
1
1
1
1
1
1
1
1
1
1
1
1
1
1
1
1
1
1
0.0696523
0.0938715
0.116429
0.125316
0.126285
0.12692
0.130181
0.139342
0.158053
0.189681
0.23645
0.300191
0.383675
0.489642
0.614058
0.721876
0.818672
0.900121
0.959892
0.992849
0.999993
0.999999
1
1
1
1
1
1
1
1
1
1
1
1
1
1
1
1
1
1
1
1
1
1
-9.48084e-12
-6.82122e-12
-4.07593e-12
-2.4864e-12
-9.65023e-10
-3.23011e-09
-7.02109e-09
-1.14798e-08
-1.48243e-08
-1.54777e-08
-1.38707e-08
-1.0113e-08
-6.0046e-09
-2.56851e-09
0.0024418
0.0376401
0.0955504
0.179343
0.299268
0.461703
0.644088
0.792918
0.904872
0.977005
1
1
1
1
1
1
1
1
1
1
1
1
1
1
1
1
1
1
1
1
-1.04844e-11
-9.93896e-12
-5.95478e-12
-3.96768e-12
-2.50486e-09
-8.06837e-09
-1.70854e-08
-2.79515e-08
-3.74115e-08
-4.25492e-08
-4.21905e-08
-3.72275e-08
-3.01435e-08
-2.42213e-08
-2.25369e-08
-2.65269e-08
-3.45936e-08
-4.2124e-08
-4.13586e-08
-2.23661e-08
0.00813894
0.0618052
0.164045
0.334156
0.572808
0.796733
0.956775
1
1
1
1
1
1
1
1
1
1
1
1
1
1
1
1
1
-8.35372e-12
-8.15739e-12
-3.98543e-12
-2.78979e-12
-3.22916e-09
-9.88462e-09
-2.02424e-08
-3.24348e-08
-4.30564e-08
-4.90969e-08
-4.93447e-08
-4.47343e-08
-3.80715e-08
-3.36039e-08
-3.64454e-08
-5.14721e-08
-8.15495e-08
-1.25632e-07
-1.78048e-07
-2.29494e-07
-2.69431e-07
-2.81894e-07
-2.61082e-09
1.22263e-06
0.00735701
0.0523133
0.165579
0.397902
0.718287
1
1
1
1
1
1
1
1
1
1
1
1
1
1
1
-5.61182e-12
-4.90043e-12
-2.01282e-12
-1.38557e-12
-2.43205e-09
-7.28614e-09
-1.4602e-08
-2.29462e-08
-3.00576e-08
-3.40786e-08
-3.43275e-08
-3.15113e-08
-2.77999e-08
-2.70055e-08
-3.46268e-08
-5.72819e-08
-1.01262e-07
-1.70565e-07
-2.65586e-07
-3.83062e-07
-5.16866e-07
-6.577e-07
-6.54083e-07
-3.6417e-10
1.65818e-07
1.6759e-06
7.26355e-06
3.09536e-05
0.0506048
0.212288
0.481428
0.843624
1
1
1
1
1
1
1
1
1
1
1
1
-3.21443e-12
-2.33021e-12
-8.41426e-13
-5.54575e-13
-1.08401e-09
-3.2572e-09
-6.40855e-09
-9.86599e-09
-1.27242e-08
-1.43013e-08
-1.43804e-08
-1.33443e-08
-1.24612e-08
-1.43819e-08
-2.35742e-08
-4.62686e-08
-8.96333e-08
-1.60355e-07
-2.63444e-07
-4.01944e-07
-5.77511e-07
-7.91318e-07
-1.03776e-06
-1.22318e-06
-2.14739e-09
-2.92922e-08
-1.31784e-08
3.68396e-07
5.0446e-06
2.07622e-05
0.00247778
0.107406
0.406545
0.798121
1
1
1
1
1
1
1
1
1
1
-1.5673e-12
-8.94163e-13
-2.96426e-13
-1.87867e-13
-2.69027e-10
-8.2495e-10
-1.57215e-09
-2.33356e-09
-2.92486e-09
-3.227e-09
-3.21574e-09
-3.04751e-09
-3.32459e-09
-5.54402e-09
-1.25615e-08
-2.8802e-08
-6.00017e-08
-1.12496e-07
-1.92462e-07
-3.05635e-07
-4.57872e-07
-6.56285e-07
-9.066e-07
-1.20385e-06
-1.43307e-06
-1.37123e-06
-9.03245e-08
-5.65106e-09
4.21408e-08
3.63946e-07
1.35666e-06
1.58434e-05
0.000159114
0.0806936
0.369346
0.806496
1
1
1
1
1
1
1
1
-6.57973e-13
-2.78024e-13
-9.48645e-14
-5.7227e-14
-2.91604e-11
-9.22496e-11
-1.64417e-10
-2.24201e-10
-2.59917e-10
-2.69174e-10
-2.56315e-10
-2.75483e-10
-5.73123e-10
-1.8377e-09
-5.49242e-09
-1.3914e-08
-3.04591e-08
-5.9251e-08
-1.04827e-07
-1.71883e-07
-2.65426e-07
-3.92076e-07
-5.59873e-07
-7.76457e-07
-1.03646e-06
-1.30375e-06
-1.44399e-06
-1.25305e-06
-9.33987e-10
-3.34296e-11
-2.14487e-08
3.16641e-07
1.15367e-06
1.33212e-05
4.98071e-05
0.0861217
0.389539
0.859193
1
1
1
1
1
1
-2.48592e-13
-7.48448e-14
-2.83059e-14
-1.66701e-14
-1.35258e-14
-1.56898e-14
-3.05168e-14
-7.06364e-14
-1.5647e-13
-3.40481e-13
-7.89182e-13
-1.72576e-11
-1.32113e-10
-5.89244e-10
-1.91901e-09
-5.05896e-09
-1.14272e-08
-2.29124e-08
-4.17747e-08
-7.04949e-08
-1.11674e-07
-1.68746e-07
-2.47169e-07
-3.53782e-07
-4.94539e-07
-6.7108e-07
-8.73136e-07
-1.02447e-06
-9.20481e-07
-6.37327e-07
-2.49392e-08
-2.82065e-10
2.25026e-09
2.82491e-07
9.98324e-07
1.2341e-05
4.18239e-05
0.113754
0.428893
0.898998
1
1
1
1
-8.73013e-14
-1.95486e-14
-7.72885e-15
-4.71213e-15
-4.60973e-15
-7.15916e-15
-1.53501e-14
-3.43317e-14
-7.23929e-14
-1.48683e-13
-3.19932e-13
-4.26925e-12
-3.17848e-11
-1.43644e-10
-4.77875e-10
-1.29136e-09
-2.99732e-09
-6.18784e-09
-1.16323e-08
-2.02484e-08
-3.30534e-08
-5.13485e-08
-7.80553e-08
-1.16781e-07
-1.71871e-07
-2.48026e-07
-3.50585e-07
-4.72119e-07
-5.71872e-07
-5.87631e-07
-4.73476e-07
-1.78987e-07
-1.52868e-11
3.45024e-09
1.48373e-09
2.59232e-07
7.51302e-07
1.11871e-05
3.09062e-05
0.124029
0.463484
0.941414
1
1
-2.64194e-14
-4.77429e-15
-1.83446e-15
-1.30225e-15
-1.82481e-15
-3.80933e-15
-8.62405e-15
-1.84512e-14
-3.66934e-14
-7.0056e-14
-1.35397e-13
-7.84935e-13
-5.03185e-12
-2.24634e-11
-7.58203e-11
-2.0967e-10
-5.00295e-10
-1.0657e-09
-2.07478e-09
-3.75554e-09
-6.40312e-09
-1.04084e-08
-1.69678e-08
-2.78396e-08
-4.52949e-08
-7.20938e-08
-1.11895e-07
-1.67572e-07
-2.35648e-07
-2.96175e-07
-3.23838e-07
-2.68359e-07
-1.56339e-07
-3.48238e-11
-1.6197e-11
4.34047e-09
-2.04788e-09
2.02833e-07
4.30827e-07
6.81478e-06
0.00156933
0.126676
0.514327
0.977709
1
-5.85062e-15
-9.36995e-16
-3.72866e-16
-4.1098e-16
-9.01791e-16
-2.27708e-15
-5.29538e-15
-1.10714e-14
-2.13206e-14
-3.90037e-14
-6.99272e-14
-1.61996e-13
-5.55807e-13
-2.03664e-12
-6.57591e-12
-1.8348e-11
-4.52267e-11
-1.00919e-10
-2.0799e-10
-4.02174e-10
-7.38551e-10
-1.30033e-09
-2.33785e-09
-4.45471e-09
-8.57054e-09
-1.60423e-08
-2.87524e-08
-4.90264e-08
-7.86615e-08
-1.15438e-07
-1.51814e-07
-1.66244e-07
-1.47263e-07
-9.43713e-08
-5.16458e-08
-1.19477e-11
-1.34098e-11
-4.48214e-10
3.94697e-09
1.04187e-07
2.61523e-07
3.14997e-06
0.0108433
0.163918
0.662563
-8.69981e-16
-1.41345e-16
-8.49713e-17
-1.85185e-16
-5.31352e-16
-1.44292e-15
-3.39116e-15
-7.05975e-15
-1.35465e-14
-2.47209e-14
-4.38068e-14
-7.67482e-14
-1.37163e-13
-2.6358e-13
-5.69256e-13
-1.3642e-12
-3.41809e-12
-8.473e-12
-2.01687e-11
-4.56114e-11
-9.79021e-11
-2.00035e-10
-3.98147e-10
-8.20942e-10
-1.71553e-09
-3.54112e-09
-7.05989e-09
-1.34165e-08
-2.40553e-08
-3.99775e-08
-6.04686e-08
-7.95553e-08
-8.94389e-08
-8.56846e-08
-7.35928e-08
-4.70432e-08
-1.94081e-08
-2.94308e-12
-6.75184e-12
-1.12479e-09
2.87016e-09
4.25439e-08
3.66827e-07
2.59113e-06
0.0356335
-7.67452e-17
-1.90385e-17
-3.23624e-17
-1.07132e-16
-3.34363e-16
-9.2783e-16
-2.18923e-15
-4.57473e-15
-8.87353e-15
-1.64923e-14
-2.98551e-14
-5.30985e-14
-9.41307e-14
-1.71546e-13
-3.34743e-13
-7.13851e-13
-1.62868e-12
-3.80421e-12
-8.76528e-12
-1.95175e-11
-4.16668e-11
-8.51858e-11
-1.67223e-10
-3.22182e-10
-6.15769e-10
-1.17822e-09
-2.25517e-09
-4.27765e-09
-7.92111e-09
-1.40258e-08
-2.32002e-08
-3.46306e-08
-4.58701e-08
-5.4224e-08
-5.81429e-08
-5.41018e-08
-4.29076e-08
-2.62302e-08
-7.04152e-09
-1.11196e-12
-3.94647e-12
-6.6661e-10
3.42557e-09
3.39296e-08
1.04553e-06
-4.56949e-18
-5.05022e-18
-1.79468e-17
-6.63805e-17
-2.12326e-16
-5.93683e-16
-1.40266e-15
-2.95123e-15
-5.82477e-15
-1.11157e-14
-2.0743e-14
-3.79361e-14
-6.83371e-14
-1.23179e-13
-2.27986e-13
-4.4357e-13
-9.11223e-13
-1.94146e-12
-4.17624e-12
-8.86949e-12
-1.8351e-11
-3.67654e-11
-7.12113e-11
-1.34832e-10
-2.52844e-10
-4.70491e-10
-8.71527e-10
-1.60827e-09
-2.94615e-09
-5.29424e-09
-9.14243e-09
-1.47458e-08
-2.17957e-08
-2.9471e-08
-3.65673e-08
-4.10668e-08
-4.1376e-08
-3.67725e-08
-2.68272e-08
-1.42258e-08
-2.23194e-09
-5.95263e-14
-2.1141e-12
-8.87075e-10
1.67611e-08
-1.17493e-18
-2.66539e-18
-1.07995e-17
-4.12826e-17
-1.33618e-16
-3.74847e-16
-8.85982e-16
-1.88232e-15
-3.79947e-15
-7.47743e-15
-1.44089e-14
-2.70931e-14
-4.97014e-14
-8.96777e-14
-1.61689e-13
-2.96627e-13
-5.60284e-13
-1.08914e-12
-2.15474e-12
-4.27373e-12
-8.38897e-12
-1.61575e-11
-3.03958e-11
-5.59143e-11
-1.02572e-10
-1.87719e-10
-3.4324e-10
-6.26632e-10
-1.14141e-09
-2.06385e-09
-3.65152e-09
-6.18295e-09
-9.83151e-09
-1.45618e-08
-2.00268e-08
-2.54276e-08
-2.96371e-08
-3.15515e-08
-2.99385e-08
-2.39372e-08
-1.56983e-08
-6.75467e-09
-1.14964e-10
-1.39959e-12
1.43154e-10
-7.79364e-19
-1.54982e-18
-6.50112e-18
-2.53743e-17
-8.27339e-17
-2.3236e-16
-5.49687e-16
-1.1842e-15
-2.45754e-15
-5.00153e-15
-9.94281e-15
-1.91599e-14
-3.57153e-14
-6.47418e-14
-1.15374e-13
-2.04778e-13
-3.66015e-13
-6.62419e-13
-1.21255e-12
-2.23175e-12
-4.09922e-12
-7.46331e-12
-1.34032e-11
-2.36709e-11
-4.16806e-11
-7.39026e-11
-1.32091e-10
-2.37858e-10
-4.31078e-10
-7.84167e-10
-1.41577e-09
-2.48833e-09
-4.17739e-09
-6.61966e-09
-9.83862e-09
-1.36617e-08
-1.76525e-08
-2.1165e-08
-2.32557e-08
-2.26536e-08
-1.95833e-08
-1.40158e-08
-7.82233e-09
-2.28819e-09
-3.69672e-12
-4.85964e-19
-8.87102e-19
-3.86051e-18
-1.53186e-17
-5.01594e-17
-1.40858e-16
-3.34178e-16
-7.34074e-16
-1.57395e-15
-3.31508e-15
-6.77794e-15
-1.33254e-14
-2.5157e-14
-4.58549e-14
-8.14423e-14
-1.42376e-13
-2.47098e-13
-4.28049e-13
-7.41457e-13
-1.28281e-12
-2.21085e-12
-3.78412e-12
-6.41597e-12
-1.07558e-11
-1.78871e-11
-3.00988e-11
-5.13988e-11
-8.93809e-11
-1.58355e-10
-2.85821e-10
-5.2127e-10
-9.42513e-10
-1.65322e-09
-2.76822e-09
-4.3836e-09
-6.53627e-09
-9.14728e-09
-1.19875e-08
-1.45956e-08
-1.61791e-08
-1.63362e-08
-1.45822e-08
-1.10926e-08
-6.70973e-09
-2.44104e-09
-2.61144e-19
-4.94491e-19
-2.2502e-18
-9.04194e-18
-2.96575e-17
-8.32481e-17
-1.98761e-16
-4.4801e-16
-9.95909e-16
-2.16712e-15
-4.5356e-15
-9.05221e-15
-1.72515e-14
-3.16218e-14
-5.62715e-14
-9.80724e-14
-1.68503e-13
-2.86459e-13
-4.82391e-13
-8.04274e-13
-1.3262e-12
-2.16077e-12
-3.47691e-12
-5.52559e-12
-8.67626e-12
-1.36667e-11
-2.18283e-11
-3.56241e-11
-5.9763e-11
-1.03652e-10
-1.85714e-10
-3.38336e-10
-6.1101e-10
-1.06912e-09
-1.78599e-09
-2.82801e-09
-4.22817e-09
-5.95515e-09
-7.85739e-09
-9.58922e-09
-1.08069e-08
-1.10514e-08
-9.9747e-09
-7.71967e-09
-4.76484e-09
-1.31699e-19
-2.70208e-19
-1.28286e-18
-5.19772e-18
-1.7044e-17
-4.78542e-17
-1.15548e-16
-2.68896e-16
-6.20393e-16
-1.38916e-15
-2.95957e-15
-5.96834e-15
-1.14528e-14
-2.11195e-14
-3.78145e-14
-6.62831e-14
-1.14295e-13
-1.94182e-13
-3.24841e-13
-5.34275e-13
-8.62837e-13
-1.3675e-12
-2.12757e-12
-3.25264e-12
-4.89336e-12
-7.28235e-12
-1.08857e-11
-1.6464e-11
-2.5476e-11
-4.08392e-11
-6.86382e-11
-1.20685e-10
-2.1725e-10
-3.88831e-10
-6.75669e-10
-1.12411e-09
-1.77753e-09
-2.66148e-09
-3.75542e-09
-4.95124e-09
-6.08008e-09
-6.86431e-09
-6.97819e-09
-6.26573e-09
-4.85598e-09
-6.42267e-20
-1.44886e-19
-7.12762e-19
-2.89979e-18
-9.4942e-18
-2.67104e-17
-6.5615e-17
-1.58419e-16
-3.78695e-16
-8.67662e-16
-1.87114e-15
-3.79815e-15
-7.32816e-15
-1.36129e-14
-2.46277e-14
-4.37203e-14
-7.63701e-14
-1.31137e-13
-2.20747e-13
-3.6328e-13
-5.83471e-13
-9.1422e-13
-1.39847e-12
-2.09166e-12
-3.06504e-12
-4.41031e-12
-6.30118e-12
-8.99348e-12
-1.29388e-11
-1.8998e-11
-2.89943e-11
-4.67448e-11
-7.951e-11
-1.39531e-10
-2.4511e-10
-4.20653e-10
-6.94649e-10
-1.09461e-09
-1.63567e-09
-2.30138e-09
-3.03516e-09
-3.71067e-09
-4.13781e-09
-4.1447e-09
-3.69508e-09
-3.06076e-20
-7.60903e-20
-3.84638e-19
-1.56556e-18
-5.11547e-18
-1.44612e-17
-3.6374e-17
-9.13442e-17
-2.25248e-16
-5.24716e-16
-1.13967e-15
-2.32228e-15
-4.50452e-15
-8.44972e-15
-1.55163e-14
-2.80563e-14
-4.99367e-14
-8.71311e-14
-1.48312e-13
-2.45388e-13
-3.93977e-13
-6.13881e-13
-9.2964e-13
-1.3713e-12
-1.97547e-12
-2.78682e-12
-3.87108e-12
-5.34325e-12
-7.35272e-12
-1.01696e-11
-1.43265e-11
-2.096e-11
-3.23986e-11
-5.29747e-11
-8.99151e-11
-1.5406e-10
-2.59991e-10
-4.24988e-10
-6.6543e-10
-9.89316e-10
-1.38753e-09
-1.81639e-09
-2.18933e-09
-2.39783e-09
-2.37195e-09
-1.43049e-20
-3.90377e-20
-2.01095e-19
-8.16349e-19
-2.66292e-18
-7.59274e-18
-1.96718e-17
-5.13513e-17
-1.29786e-16
-3.05443e-16
-6.65452e-16
-1.35922e-15
-2.65372e-15
-5.04441e-15
-9.44621e-15
-1.7471e-14
-3.17659e-14
-5.63543e-14
-9.69125e-14
-1.60942e-13
-2.57843e-13
-3.98949e-13
-5.97596e-13
-8.69315e-13
-1.23218e-12
-1.70735e-12
-2.32017e-12
-3.12787e-12
-4.19195e-12
-5.6128e-12
-7.56251e-12
-1.03848e-11
-1.47878e-11
-2.21716e-11
-3.50906e-11
-5.7788e-11
-9.66646e-11
-1.60435e-10
-2.59416e-10
-4.03199e-10
-5.96336e-10
-8.29548e-10
-1.07144e-09
-1.26906e-09
-1.36963e-09
-6.55859e-21
-1.95337e-20
-1.01786e-19
-4.1107e-19
-1.34021e-18
-3.8712e-18
-1.03769e-17
-2.80363e-17
-7.20504e-17
-1.70295e-16
-3.71018e-16
-7.59434e-16
-1.49596e-15
-2.89386e-15
-5.5495e-15
-1.05216e-14
-1.95304e-14
-3.51213e-14
-6.07459e-14
-1.00738e-13
-1.6021e-13
-2.4493e-13
-3.61236e-13
-5.16058e-13
-7.17031e-13
-9.72733e-13
-1.29299e-12
-1.69736e-12
-2.22376e-12
-2.91302e-12
-3.83308e-12
-5.1038e-12
-6.95282e-12
-9.82352e-12
-1.45607e-11
-2.26812e-11
-3.67046e-11
-6.04691e-11
-9.92398e-11
-1.59265e-10
-2.46279e-10
-3.61771e-10
-4.97888e-10
-6.33797e-10
-7.40243e-10
-2.94735e-21
-9.55121e-21
-5.00301e-20
-2.0057e-19
-6.54964e-19
-1.92545e-18
-5.34818e-18
-1.48285e-17
-3.83852e-17
-9.06107e-17
-1.96987e-16
-4.0435e-16
-8.06208e-16
-1.59388e-15
-3.13908e-15
-6.09843e-15
-1.1516e-14
-2.08772e-14
-3.60858e-14
-5.93653e-14
-9.31157e-14
-1.39779e-13
-2.01758e-13
-2.81418e-13
-3.81156e-13
-5.0352e-13
-6.5136e-13
-8.2865e-13
-1.05622e-12
-1.35273e-12
-1.74927e-12
-2.29422e-12
-3.07189e-12
-4.23384e-12
-6.06122e-12
-9.07437e-12
-1.41985e-11
-2.29782e-11
-3.77907e-11
-6.19353e-11
-9.93287e-11
-1.53228e-10
-2.23785e-10
-3.05041e-10
-3.84061e-10
-1.29913e-21
-4.60531e-21
-2.40951e-20
-9.56887e-20
-3.14019e-19
-9.43513e-19
-2.70798e-18
-7.60414e-18
-1.96057e-17
-4.59651e-17
-9.95537e-17
-2.05198e-16
-4.15466e-16
-8.42033e-16
-1.70391e-15
-3.38008e-15
-6.45497e-15
-1.17164e-14
-2.00962e-14
-3.25686e-14
-5.00425e-14
-7.32736e-14
-1.02836e-13
-1.39148e-13
-1.8254e-13
-2.33327e-13
-2.91893e-13
-3.58753e-13
-4.39897e-13
-5.47646e-13
-6.95057e-13
-9.02593e-13
-1.20454e-12
-1.65861e-12
-2.36538e-12
-3.50707e-12
-5.41632e-12
-8.68429e-12
-1.43069e-11
-2.38397e-11
-3.94616e-11
-6.36868e-11
-9.84378e-11
-1.4338e-10
-1.94264e-10
-5.65596e-22
-2.22649e-21
-1.15215e-20
-4.52414e-20
-1.4992e-19
-4.61544e-19
-1.35708e-18
-3.79483e-18
-9.63501e-18
-2.23113e-17
-4.8071e-17
-9.96574e-17
-2.05347e-16
-4.26738e-16
-8.84348e-16
-1.77849e-15
-3.40712e-15
-6.14561e-15
-1.03873e-14
-1.64707e-14
-2.46265e-14
-3.49387e-14
-4.73565e-14
-6.17387e-14
-7.79043e-14
-9.56814e-14
-1.14943e-13
-1.35627e-13
-1.5855e-13
-1.90116e-13
-2.35625e-13
-3.03364e-13
-4.06726e-13
-5.68333e-13
-8.26573e-13
-1.24887e-12
-1.95759e-12
-3.17672e-12
-5.30795e-12
-9.03852e-12
-1.54575e-11
-2.60846e-11
-4.2634e-11
-6.63068e-11
-9.78193e-11
-2.42902e-22
-1.0388e-21
-5.27348e-21
-2.06348e-20
-6.9869e-20
-2.21839e-19
-6.65485e-19
-1.84595e-18
-4.59955e-18
-1.04508e-17
-2.23654e-17
-4.67378e-17
-9.81601e-17
-2.08431e-16
-4.38047e-16
-8.82496e-16
-1.67776e-15
-2.98326e-15
-4.9359e-15
-7.60721e-15
-1.09974e-14
-1.50193e-14
-1.95249e-14
-2.43486e-14
-2.93341e-14
-3.43557e-14
-3.93276e-14
-4.42041e-14
-4.89873e-14
-5.5811e-14
-6.70682e-14
-8.56482e-14
-1.16169e-13
-1.66925e-13
-2.52418e-13
-3.98236e-13
-6.50787e-13
-1.09613e-12
-1.89469e-12
-3.33989e-12
-5.94333e-12
-1.05225e-11
-1.82138e-11
-3.06496e-11
-4.90607e-11
-1.00505e-22
-4.54657e-22
-2.27156e-21
-8.93672e-21
-3.10777e-20
-1.01292e-19
-3.06316e-19
-8.38737e-19
-2.05833e-18
-4.6468e-18
-1.0028e-17
-2.14383e-17
-4.61622e-17
-9.91213e-17
-2.06965e-16
-4.10843e-16
-7.65349e-16
-1.32863e-15
-2.13511e-15
-3.1769e-15
-4.41419e-15
-5.76885e-15
-7.14283e-15
-8.45597e-15
-9.64882e-15
-1.06868e-14
-1.15587e-14
-1.22697e-14
-1.2837e-14
-1.36624e-14
-1.57829e-14
-2.00025e-14
-2.76984e-14
-4.1555e-14
-6.66069e-14
-1.12204e-13
-1.9585e-13
-3.50796e-13
-6.41028e-13
-1.18968e-12
-2.22819e-12
-4.16739e-12
-7.73577e-12
-1.41788e-11
-2.44963e-11
-3.94492e-23
-1.85045e-22
-9.15356e-22
-3.64872e-21
-1.3042e-20
-4.32933e-20
-1.3073e-19
-3.52561e-19
-8.54509e-19
-1.92835e-18
-4.22679e-18
-9.28158e-18
-2.04921e-17
-4.45147e-17
-9.248e-17
-1.79977e-16
-3.24561e-16
-5.40298e-16
-8.30921e-16
-1.1853e-15
-1.57453e-15
-1.95962e-15
-2.29607e-15
-2.561e-15
-2.74438e-15
-2.84811e-15
-2.88337e-15
-2.8632e-15
-2.8017e-15
-2.75381e-15
-3.02208e-15
-3.80672e-15
-5.45581e-15
-8.71278e-15
-1.51249e-14
-2.78163e-14
-5.30337e-14
-1.03274e-13
-2.03677e-13
-4.05064e-13
-8.09306e-13
-1.61979e-12
-3.28654e-12
-6.51817e-12
-1.21903e-11
-1.45039e-23
-6.95687e-23
-3.42913e-22
-1.39221e-21
-5.1005e-21
-1.70991e-20
-5.12254e-20
-1.36037e-19
-3.26808e-19
-7.41442e-19
-1.65853e-18
-3.73833e-18
-8.40347e-18
-1.82897e-17
-3.74784e-17
-7.10978e-17
-1.23938e-16
-1.98186e-16
-2.91171e-16
-3.94493e-16
-4.95531e-16
-5.80894e-16
-6.40474e-16
-6.69362e-16
-6.68437e-16
-6.43269e-16
-6.03244e-16
-5.54327e-16
-5.01788e-16
-4.51429e-16
-4.62917e-16
-5.81536e-16
-8.79913e-16
-1.53344e-15
-2.95547e-15
-6.07212e-15
-1.29167e-14
-2.78975e-14
-6.05025e-14
-1.31108e-13
-2.83348e-13
-6.25154e-13
-1.37936e-12
-2.97389e-12
-6.03856e-12
-4.93635e-24
-2.39869e-23
-1.18501e-22
-4.91215e-22
-1.8352e-21
-6.16707e-21
-1.82559e-20
-4.77793e-20
-1.14167e-19
-2.61512e-19
-5.97853e-19
-1.37723e-18
-3.12546e-18
-6.7564e-18
-1.35631e-17
-2.49572e-17
-4.18962e-17
-6.41425e-17
-8.97504e-17
-1.1521e-16
-1.36383e-16
-1.49849e-16
-1.54032e-16
-1.49444e-16
-1.38102e-16
-1.22603e-16
-1.05449e-16
-8.84829e-17
-7.28268e-17
-5.9582e-17
-5.57072e-17
-7.02511e-17
-1.15341e-16
-2.26305e-16
-4.98071e-16
-1.1705e-15
-2.83506e-15
-6.91509e-15
-1.67662e-14
-4.01804e-14
-9.71198e-14
-2.35708e-13
-5.69552e-13
-1.34097e-12
-2.96482e-12
-1.53641e-24
-7.5183e-24
-3.73977e-23
-1.58274e-22
-5.99432e-22
-2.00698e-21
-5.85587e-21
-1.51173e-20
-3.60153e-20
-8.34485e-20
-1.94622e-19
-4.55309e-19
-1.03491e-18
-2.20748e-18
-4.32145e-18
-7.68922e-18
-1.24014e-17
-1.81384e-17
-2.41143e-17
-2.92447e-17
-3.2509e-17
-3.33287e-17
-3.17615e-17
-2.83926e-17
-2.40429e-17
-1.9478e-17
-1.5237e-17
-1.16036e-17
-8.66225e-18
-6.38221e-18
-5.25799e-18
-6.63899e-18
-1.22129e-17
-2.79981e-17
-7.25002e-17
-1.99635e-16
-5.60796e-16
-1.56898e-15
-4.32007e-15
-1.17896e-14
-3.18702e-14
-8.57004e-14
-2.28151e-13
-5.89582e-13
-1.42506e-12
-4.31336e-25
-2.11768e-24
-1.06403e-23
-4.58906e-23
-1.75148e-22
-5.81474e-22
-1.66905e-21
-4.25028e-21
-1.01002e-20
-2.3649e-20
-5.6028e-20
-1.32237e-19
-2.99227e-19
-6.27156e-19
-1.19433e-18
-2.05194e-18
-3.17627e-18
-4.43368e-18
-5.59328e-18
-6.39734e-18
)
;

boundaryField
{
    leftWall
    {
        type            zeroGradient;
    }
    rightWall
    {
        type            zeroGradient;
    }
    lowerWall
    {
        type            zeroGradient;
    }
    atmosphere
    {
        type            inletOutlet;
        inletValue      nonuniform 0();
        value           nonuniform 0();
    }
    defaultFaces
    {
        type            empty;
    }
    procBoundary0to1
    {
        type            processor;
        value           nonuniform List<scalar> 
44
(
0.999396
0.981721
0.969876
0.971618
0.994546
0.999914
0.999998
1
1
1
1
1
1
1
1
1
1
1
1
1
1
1
0.999993
0.288595
1.14753e-05
1.66204e-07
-5.52638e-09
-3.71739e-12
-1.51038e-12
-2.28442e-09
-3.1721e-09
-2.85897e-09
-2.06927e-09
-1.31731e-09
-7.76712e-10
-4.37547e-10
-2.41278e-10
-1.31336e-10
-7.10242e-11
-3.83149e-11
-2.06398e-11
-1.10876e-11
-5.91445e-12
-3.09847e-12
)
;
    }
    procBoundary0to2
    {
        type            processor;
        value           nonuniform List<scalar> 
46
(
-6.66176e-18
-6.35165e-18
-5.58658e-18
-4.57465e-18
-3.52407e-18
-2.58184e-18
-1.81796e-18
-1.24208e-18
-8.30414e-19
-5.47126e-19
-3.92232e-19
-4.91846e-19
-1.0377e-18
-2.87219e-18
-9.00723e-18
-2.95743e-17
-9.75975e-17
-3.18131e-16
-1.00834e-15
-3.11105e-15
-9.38878e-15
-2.79972e-14
-8.30677e-14
-2.39168e-13
-6.42639e-13
-1.07428e-25
-5.2793e-25
-2.68436e-24
-1.17626e-23
-4.49946e-23
-1.47525e-22
-4.15638e-22
-1.04225e-21
-2.46453e-21
-5.80811e-21
-1.38989e-20
-3.29139e-20
-7.38798e-20
-1.51898e-19
-2.81253e-19
-4.66613e-19
-6.934e-19
-9.2385e-19
-1.10579e-18
-6.66176e-18
-1.19218e-18
)
;
    }
}


// ************************************************************************* //
