/*--------------------------------*- C++ -*----------------------------------*\
| =========                 |                                                 |
| \\      /  F ield         | OpenFOAM: The Open Source CFD Toolbox           |
|  \\    /   O peration     | Version:  5.0                                   |
|   \\  /    A nd           | Web:      www.OpenFOAM.org                      |
|    \\/     M anipulation  |                                                 |
\*---------------------------------------------------------------------------*/
FoamFile
{
    version     2.0;
    format      ascii;
    class       volScalarField;
    location    "0.65";
    object      epsilon;
}
// * * * * * * * * * * * * * * * * * * * * * * * * * * * * * * * * * * * * * //

dimensions      [0 2 -3 0 0 0 0];

internalField   nonuniform List<scalar> 
1935
(
0.0210056
0.0585601
0.10264
0.153036
0.204772
0.252451
0.296317
0.336324
0.3754
0.41368
0.4499
0.484144
0.5164
0.546702
0.575108
0.601693
0.626541
0.649746
0.671399
0.691594
0.710411
0.727907
0.744092
0.7589
0.772167
0.783857
0.794606
0.803276
0.808904
0.810643
0.807711
0.799321
0.784681
0.763067
0.733958
0.697194
0.653191
0.602834
0.55068
0.497655
0.447795
0.408299
0.366626
0.323299
0.0385672
0.0438701
0.0617935
0.08167
0.10256
0.122426
0.141091
0.158293
0.174446
0.189842
0.204481
0.218413
0.231671
0.244289
0.256299
0.267736
0.278635
0.289032
0.298962
0.308457
0.317544
0.326242
0.334553
0.342465
0.349945
0.357015
0.363949
0.370532
0.376546
0.381756
0.385928
0.388822
0.390179
0.389713
0.387116
0.382062
0.374224
0.363239
0.348648
0.329952
0.307866
0.281842
0.251722
0.224998
0.0527821
0.0432289
0.0553051
0.0699562
0.085216
0.0998259
0.113348
0.125825
0.137468
0.148436
0.158823
0.168695
0.178105
0.187093
0.195696
0.203949
0.211884
0.219534
0.226927
0.234091
0.24105
0.247821
0.254416
0.260836
0.267079
0.273172
0.279203
0.285137
0.290904
0.296413
0.301563
0.306238
0.31031
0.313626
0.316
0.317199
0.316914
0.314693
0.309815
0.301243
0.288392
0.272097
0.255351
0.246006
0.0607966
0.046127
0.0556403
0.0678658
0.0805276
0.0927256
0.104119
0.11467
0.124484
0.133677
0.142345
0.150561
0.158379
0.165847
0.173004
0.179887
0.186532
0.192972
0.199237
0.205356
0.211355
0.217257
0.223079
0.228832
0.234524
0.240191
0.245863
0.25154
0.257198
0.262797
0.268286
0.2736
0.278658
0.283358
0.287565
0.291089
0.293655
0.294845
0.294035
0.290448
0.283829
0.275688
0.269952
0.274832
0.0671343
0.0512217
0.0588038
0.0693405
0.0804211
0.091205
0.101353
0.110786
0.119556
0.127752
0.135459
0.142747
0.149671
0.156277
0.162609
0.168705
0.174603
0.180337
0.185941
0.191448
0.196885
0.20228
0.207655
0.213027
0.218413
0.223844
0.229336
0.234892
0.240504
0.246154
0.25181
0.257431
0.262958
0.268314
0.273392
0.278037
0.282024
0.285027
0.286624
0.286444
0.284752
0.28349
0.287217
0.305656
0.0731992
0.0574459
0.0637069
0.0730311
0.0829988
0.0927744
0.102015
0.110627
0.118639
0.126125
0.133158
0.139803
0.146111
0.152129
0.157898
0.163458
0.168849
0.174106
0.179266
0.184362
0.189427
0.194491
0.199579
0.204714
0.209916
0.21521
0.220605
0.226106
0.231708
0.237399
0.243159
0.248956
0.254745
0.260467
0.26604
0.271344
0.276219
0.280457
0.283853
0.286404
0.288811
0.293377
0.305243
0.33595
0.0779275
0.0643684
0.0700173
0.0785163
0.0876353
0.0965743
0.105021
0.112899
0.120238
0.127105
0.133565
0.139675
0.145484
0.151032
0.156361
0.161509
0.166515
0.171415
0.176248
0.181048
0.18585
0.190686
0.195584
0.200569
0.205661
0.21088
0.216233
0.22172
0.227336
0.233072
0.238913
0.244834
0.250801
0.256771
0.262686
0.268471
0.274033
0.279282
0.28421
0.289099
0.294985
0.304488
0.323377
0.365186
0.081361
0.0721438
0.077815
0.0857972
0.0941734
0.102278
0.109897
0.117004
0.123646
0.129888
0.135786
0.141389
0.146735
0.151863
0.156808
0.161607
0.166295
0.170908
0.175485
0.180062
0.184671
0.189349
0.194123
0.199019
0.204056
0.209246
0.214594
0.220099
0.225751
0.231544
0.237465
0.243497
0.249616
0.255794
0.262004
0.268211
0.274392
0.280562
0.286871
0.293814
0.302665
0.316339
0.341324
0.393738
0.0877458
0.0819607
0.0877683
0.0952071
0.102664
0.109737
0.116363
0.122578
0.128438
0.133998
0.1393
0.144379
0.149264
0.153986
0.158573
0.163057
0.167468
0.171842
0.176212
0.180615
0.185085
0.189657
0.194358
0.199214
0.204237
0.209437
0.214814
0.220364
0.226074
0.231938
0.237952
0.2441
0.250373
0.256761
0.263263
0.269888
0.276673
0.283721
0.291299
0.300046
0.311393
0.328484
0.358546
0.421126
0.109726
0.0973829
0.101362
0.107281
0.113152
0.11877
0.124143
0.1293
0.134269
0.139074
0.143732
0.148259
0.152671
0.156988
0.161229
0.165422
0.16959
0.17376
0.177964
0.182236
0.186609
0.191117
0.195791
0.200648
0.205696
0.210939
0.216375
0.221995
0.227784
0.233738
0.239859
0.24614
0.252582
0.259196
0.266008
0.273065
0.280454
0.288346
0.297087
0.307397
0.320764
0.340373
0.373713
0.442905
0.161886
0.123096
0.120133
0.122269
0.125448
0.12908
0.132929
0.136875
0.140857
0.144843
0.148816
0.152767
0.156694
0.160603
0.164507
0.16843
0.172383
0.176383
0.180458
0.184639
0.188954
0.193439
0.198124
0.203023
0.208131
0.21345
0.218974
0.22469
0.230578
0.23664
0.242888
0.249321
0.255951
0.262811
0.269955
0.27746
0.285456
0.29416
0.303964
0.315607
0.330521
0.351594
0.385138
0.447154
0.241243
0.156025
0.142365
0.13893
0.138663
0.14002
0.14222
0.144894
0.147855
0.151004
0.154284
0.157661
0.161113
0.16463
0.168217
0.171898
0.175671
0.179538
0.183524
0.187657
0.191953
0.196453
0.201194
0.206176
0.211383
0.216807
0.222447
0.228281
0.234288
0.240477
0.246869
0.253467
0.260301
0.267424
0.274913
0.282875
0.291467
0.300938
0.311695
0.324451
0.340487
0.362187
0.394179
0.445993
0.318323
0.175535
0.157492
0.151821
0.150093
0.150168
0.151176
0.152781
0.15481
0.157161
0.15977
0.162595
0.16561
0.168795
0.172136
0.175626
0.179275
0.183064
0.187014
0.191158
0.195478
0.20003
0.204875
0.209997
0.215344
0.220904
0.22668
0.232649
0.238782
0.245111
0.251657
0.258425
0.265464
0.272851
0.280681
0.289084
0.298241
0.308412
0.320002
0.333663
0.350487
0.372325
0.402331
0.44574
0.353459
0.186029
0.164041
0.158859
0.157761
0.157926
0.158631
0.159717
0.161141
0.162883
0.16493
0.167268
0.169887
0.172761
0.17587
0.179208
0.182777
0.18658
0.190624
0.194921
0.199406
0.204081
0.209104
0.214452
0.219989
0.225705
0.231643
0.237764
0.244016
0.250489
0.257183
0.264102
0.27133
0.278958
0.287103
0.295909
0.305572
0.316358
0.328652
0.343036
0.360411
0.382182
0.410478
0.448251
0.364563
0.191696
0.168419
0.163577
0.162989
0.163496
0.164305
0.16528
0.166445
0.167848
0.169529
0.171512
0.173804
0.176381
0.179215
0.182313
0.185732
0.189503
0.19362
0.198054
0.202809
0.207861
0.213326
0.219178
0.225165
0.231166
0.237347
0.243676
0.250001
0.256618
0.263435
0.270455
0.277831
0.285649
0.294052
0.303193
0.313279
0.324575
0.337438
0.352384
0.370153
0.391822
0.418904
0.453331
0.369059
0.194088
0.170671
0.166166
0.166031
0.166967
0.168086
0.169216
0.170398
0.171715
0.173244
0.175038
0.177122
0.179488
0.18212
0.185045
0.188334
0.192021
0.196094
0.200502
0.205264
0.210487
0.216291
0.222572
0.229212
0.23598
0.242897
0.249912
0.256727
0.263548
0.270456
0.277472
0.284937
0.292859
0.301435
0.310813
0.321213
0.332894
0.346189
0.361557
0.379613
0.401221
0.427561
0.460199
0.368375
0.195101
0.171681
0.167275
0.167398
0.168681
0.170144
0.171553
0.172924
0.174343
0.1759
0.177664
0.179676
0.181949
0.18449
0.187337
0.190555
0.194178
0.198195
0.202571
0.207328
0.212587
0.218433
0.224758
0.231494
0.238657
0.246278
0.254138
0.262291
0.270196
0.277904
0.285134
0.292653
0.300539
0.309188
0.318677
0.329267
0.341195
0.35478
0.370443
0.388709
0.410313
0.436274
0.468069
0.365401
0.195416
0.171993
0.167408
0.167552
0.169023
0.170763
0.172467
0.174104
0.175737
0.17745
0.179315
0.181382
0.183682
0.186242
0.189106
0.192329
0.195942
0.199944
0.204317
0.209086
0.214341
0.220145
0.226438
0.233191
0.240464
0.248254
0.256378
0.264956
0.273911
0.282877
0.291707
0.30033
0.308631
0.317269
0.326703
0.337367
0.349404
0.363149
0.378987
0.397393
0.419033
0.44484
0.476286
0.362493
0.195685
0.171889
0.166882
0.166833
0.168324
0.170233
0.172186
0.174097
0.175994
0.177939
0.179997
0.182219
0.184648
0.187322
0.190286
0.193588
0.197258
0.201302
0.205719
0.21053
0.2158
0.221575
0.227834
0.234563
0.241809
0.249571
0.257761
0.266473
0.275701
0.285173
0.294917
0.304885
0.314951
0.324817
0.334767
0.345449
0.357455
0.371265
0.387187
0.40567
0.427345
0.453093
0.48436
0.360541
0.196034
0.17149
0.165884
0.165482
0.166849
0.168813
0.170942
0.173095
0.175259
0.177468
0.179771
0.182216
0.184847
0.187706
0.190838
0.194283
0.198072
0.202217
0.206727
0.211624
0.21695
0.22274
0.228993
0.235705
0.242904
0.2506
0.258762
0.267442
0.276655
0.286273
0.296327
0.306814
0.31775
0.329072
0.340781
0.352692
0.36526
0.3791
0.395049
0.413566
0.435263
0.460941
0.49199
0.358498
0.19616
0.17081
0.164523
0.163666
0.164802
0.166723
0.168947
0.171289
0.173693
0.176164
0.178732
0.181434
0.184311
0.187402
0.190748
0.194387
0.198346
0.202644
0.207295
0.212319
0.217748
0.223605
0.229897
0.236628
0.243813
0.251464
0.259579
0.268186
0.277305
0.286894
0.296981
0.307612
0.318862
0.330766
0.343407
0.3568
0.371067
0.386126
0.402645
0.421155
0.442885
0.46844
0.499136
0.537025
0.35703
0.196108
0.169886
0.162872
0.161502
0.162334
0.164134
0.166382
0.168851
0.171453
0.174162
0.176988
0.179956
0.183096
0.186443
0.190032
0.193897
0.198064
0.202555
0.207385
0.212576
0.218149
0.224122
0.230504
0.237299
0.244518
0.252173
0.26027
0.268828
0.277868
0.287389
0.297427
0.308052
0.319361
0.331453
0.344461
0.358499
0.373758
0.390387
0.408656
0.428377
0.450524
0.475855
0.506111
0.542982
0.356707
0.19599
0.16877
0.160994
0.159078
0.159561
0.161182
0.163391
0.165931
0.16868
0.17159
0.174651
0.17787
0.181271
0.184878
0.188722
0.192831
0.19723
0.20194
0.206979
0.212365
0.218117
0.224248
0.230764
0.237671
0.244976
0.252688
0.260817
0.269377
0.27839
0.287875
0.297876
0.30847
0.319765
0.33189
0.345002
0.359271
0.374926
0.392205
0.411442
0.432914
0.457032
0.483493
0.513522
0.549255
0.357857
0.195895
0.167509
0.15894
0.156462
0.156568
0.157971
0.160092
0.162649
0.165496
0.168564
0.171824
0.17527
0.178914
0.182772
0.186868
0.191225
0.195865
0.200808
0.206073
0.211676
0.217632
0.223951
0.230638
0.237698
0.245135
0.252956
0.261171
0.269792
0.278842
0.288349
0.298362
0.308959
0.320252
0.332377
0.3455
0.359814
0.375553
0.39299
0.412482
0.434456
0.459478
0.488024
0.520326
0.556469
0.360578
0.19586
0.16614
0.156749
0.153703
0.153421
0.154578
0.156574
0.159103
0.162003
0.165184
0.168604
0.172244
0.176103
0.180192
0.184526
0.189123
0.194003
0.199184
0.204683
0.210513
0.216688
0.223216
0.230102
0.237346
0.244953
0.252927
0.261277
0.270015
0.279163
0.288754
0.298837
0.309494
0.320829
0.332982
0.346115
0.360424
0.376138
0.393535
0.412964
0.434872
0.459841
0.488573
0.521834
0.560623
0.36476
0.195873
0.16468
0.154452
0.150841
0.150167
0.151064
0.152907
0.155373
0.158284
0.161537
0.165075
0.168871
0.172915
0.177207
0.181758
0.186581
0.191691
0.197103
0.202834
0.208894
0.215295
0.222045
0.229146
0.236599
0.244404
0.252565
0.26109
0.269991
0.279289
0.289018
0.29923
0.310002
0.321438
0.33367
0.346859
0.361194
0.3769
0.394248
0.413575
0.435316
0.460038
0.488478
0.521546
0.560522
0.370133
0.195889
0.163132
0.152071
0.147909
0.146848
0.147476
0.149147
0.151522
0.154408
0.157694
0.161313
0.165227
0.169419
0.173885
0.178626
0.183653
0.188976
0.194608
0.200562
0.206848
0.213476
0.220451
0.227776
0.235452
0.243475
0.251849
0.260579
0.269679
0.279167
0.28908
0.299468
0.310407
0.321998
0.33437
0.34768
0.362115
0.377898
0.395298
0.414651
0.436386
0.461059
0.489406
0.522394
0.561357
0.37633
0.195841
0.161492
0.149621
0.14493
0.143493
0.143853
0.145339
0.147599
0.150432
0.153717
0.15738
0.161377
0.165683
0.170289
0.175192
0.180396
0.185911
0.191745
0.197909
0.204411
0.21126
0.218458
0.22601
0.233915
0.242168
0.250771
0.259729
0.269052
0.278762
0.288893
0.299496
0.310645
0.322439
0.335008
0.348507
0.363129
0.379104
0.396712
0.416303
0.438326
0.463361
0.492176
0.52579
0.565584
0.382944
0.195667
0.159757
0.147118
0.141926
0.14013
0.140225
0.141519
0.143648
0.146404
0.149659
0.153333
0.157378
0.161765
0.166478
0.171512
0.176867
0.182549
0.188564
0.19492
0.201625
0.208683
0.216099
0.223874
0.232007
0.240497
0.249338
0.258537
0.268102
0.278055
0.288429
0.299275
0.310667
0.322705
0.33552
0.349274
0.36417
0.380455
0.398438
0.418506
0.441159
0.467044
0.497017
0.532211
0.574134
0.389579
0.195313
0.157927
0.144575
0.138919
0.136784
0.13662
0.137718
0.139704
0.142363
0.145563
0.14922
0.153283
0.157718
0.162507
0.167641
0.173118
0.17894
0.185112
0.191641
0.19853
0.205785
0.213408
0.221399
0.229758
0.238482
0.247566
0.257013
0.266831
0.277041
0.287675
0.298786
0.310447
0.32276
0.335863
0.349928
0.365175
0.381881
0.400398
0.421175
0.444793
0.472014
0.503841
0.541601
0.587039
0.395891
0.194747
0.156008
0.142011
0.13593
0.133477
0.133064
0.133966
0.135799
0.138345
0.141469
0.145083
0.149135
0.153588
0.158422
0.163627
0.169197
0.175133
0.181438
0.188115
0.19517
0.202605
0.210422
0.218619
0.227196
0.236149
0.245477
0.255175
0.265252
0.275728
0.286634
0.298024
0.309972
0.322587
0.33601
0.350432
0.366098
0.383323
0.402516
0.424209
0.449097
0.478097
0.51242
0.55366
0.603912
0.401604
0.193952
0.154014
0.139444
0.132978
0.130229
0.129579
0.130285
0.13196
0.13438
0.137409
0.140959
0.144974
0.149419
0.15427
0.159515
0.16515
0.171172
0.177584
0.184388
0.191587
0.199184
0.207178
0.215569
0.224354
0.23353
0.243096
0.253044
0.263383
0.27413
0.285317
0.296997
0.309248
0.322182
0.335955
0.350774
0.366916
0.384742
0.404734
0.427522
0.453945
0.485111
0.522488
0.568009
0.624206
0.406518
0.19293
0.151963
0.136894
0.130082
0.127061
0.126184
0.126697
0.12821
0.130495
0.133414
0.13688
0.140837
0.145247
0.150088
0.155347
0.161019
0.1671
0.173593
0.180498
0.18782
0.195558
0.203713
0.212283
0.221265
0.230654
0.240449
0.250646
0.261247
0.272268
0.283741
0.29572
0.308286
0.321559
0.335706
0.350957
0.367623
0.386124
0.407019
0.431057
0.459239
0.492897
0.533797
0.584266
0.647341
0.410513
0.191698
0.149878
0.134381
0.127261
0.123988
0.122895
0.123221
0.124568
0.12671
0.129508
0.132874
0.136752
0.141106
0.145913
0.15116
0.156842
0.162956
0.169503
0.176486
0.183906
0.191765
0.200062
0.208794
0.217959
0.227552
0.237569
0.248009
0.258869
0.270166
0.28193
0.294217
0.307111
0.320739
0.335284
0.350999
0.368236
0.387475
0.409366
0.434785
0.464915
0.501333
0.546137
0.602086
0.672771
0.413553
0.190298
0.147787
0.131923
0.124527
0.121024
0.119726
0.119869
0.121051
0.123045
0.125712
0.128965
0.132747
0.137025
0.141775
0.146987
0.152654
0.158775
0.165352
0.172387
0.179883
0.18784
0.196258
0.205136
0.21447
0.224254
0.234484
0.245159
0.256277
0.267851
0.279912
0.292516
0.305751
0.319754
0.334721
0.350935
0.368789
0.388827
0.411796
0.438711
0.470945
0.51034
0.559344
0.621172
0.7
0.415724
0.188799
0.145723
0.129537
0.121893
0.118176
0.116687
0.116652
0.117671
0.119514
0.122043
0.125171
0.128845
0.133029
0.137704
0.142858
0.148487
0.154592
0.161174
0.168237
0.175783
0.183817
0.192336
0.201341
0.210827
0.220789
0.231223
0.242125
0.2535
0.265352
0.277716
0.290647
0.30424
0.31864
0.33406
0.35081
0.369328
0.390227
0.414354
0.442865
0.477335
0.519876
0.573294
0.641274
0.728581
0.417383
0.187329
0.143716
0.127232
0.119362
0.115449
0.11378
0.113577
0.114436
0.116128
0.118514
0.12151
0.125063
0.12914
0.133721
0.138799
0.14437
0.150435
0.156998
0.164066
0.171641
0.179727
0.188327
0.197439
0.207061
0.217187
0.227814
0.238939
0.250565
0.262699
0.275374
0.288647
0.302618
0.317441
0.333349
0.350679
0.369916
0.391741
0.417103
0.447304
0.484118
0.529928
0.5879
0.662178
0.758111
0.418038
0.185815
0.141721
0.124985
0.116921
0.112836
0.111004
0.110644
0.11135
0.112892
0.115134
0.117993
0.121417
0.125375
0.129849
0.134833
0.140326
0.146332
0.152855
0.159904
0.167485
0.175603
0.184262
0.193462
0.203202
0.213479
0.224288
0.235628
0.247503
0.259924
0.272919
0.286552
0.300926
0.316207
0.332645
0.350607
0.370624
0.393447
0.420124
0.452102
0.491349
0.540512
0.6031
0.683701
0.787674
0.417197
0.184049
0.139682
0.12277
0.114555
0.110326
0.108352
0.107849
0.108411
0.109809
0.11191
0.114629
0.117918
0.121747
0.126102
0.130979
0.136379
0.142306
0.14877
0.15578
0.163345
0.171473
0.18017
0.189439
0.199281
0.209693
0.220674
0.232224
0.244347
0.257059
0.270388
0.284401
0.299208
0.314987
0.332005
0.350661
0.37153
0.39543
0.423508
0.457345
0.499097
0.551656
0.618851
0.705376
0.816719
0.415076
0.182021
0.137581
0.120575
0.112254
0.107911
0.105815
0.105184
0.105613
0.106876
0.108839
0.11142
0.114573
0.118269
0.122497
0.127255
0.132545
0.138377
0.144765
0.151718
0.159247
0.167365
0.176081
0.185399
0.195325
0.205859
0.217002
0.228755
0.241127
0.254136
0.267815
0.282233
0.29751
0.313834
0.331492
0.350912
0.372714
0.397781
0.42735
0.46313
0.507443
0.563403
0.634997
0.726877
0.844941
0.41186
0.179758
0.13542
0.118394
0.11001
0.105581
0.103384
0.102641
0.10295
0.104086
0.105917
0.108364
0.111381
0.114944
0.119041
0.123673
0.128846
0.134571
0.140864
0.147739
0.155213
0.163302
0.172019
0.181369
0.191363
0.202005
0.2133
0.225252
0.237874
0.251189
0.265235
0.280088
0.295876
0.312799
0.331165
0.351431
0.374258
0.400591
0.431749
0.469551
0.516465
0.575772
0.65133
0.748115
0.87214
0.407699
0.177288
0.133205
0.116225
0.107817
0.103329
0.101052
0.100213
0.100414
0.101433
0.103139
0.105456
0.10834
0.111769
0.115733
0.120235
0.125284
0.130895
0.137084
0.143871
0.151276
0.159316
0.168011
0.177373
0.18742
0.198159
0.209595
0.221742
0.234617
0.248247
0.262682
0.278001
0.294345
0.311928
0.331078
0.35228
0.376236
0.403942
0.436793
0.476702
0.526253
0.58862
0.667874
0.769064
0.89823
0.402719
0.174641
0.130944
0.114068
0.105671
0.101149
0.0988105
0.0978907
0.097996
0.0989072
0.100497
0.10269
0.105445
0.108741
0.112572
0.116942
0.121864
0.127353
0.133432
0.140121
0.147445
0.155427
0.164088
0.17345
0.18353
0.194346
0.205912
0.218249
0.231382
0.24534
0.260183
0.276004
0.292953
0.311261
0.331277
0.353513
0.378708
0.407906
0.442558
0.484658
0.536717
0.60202
0.684688
0.78976
0.923213
0.397036
0.171844
0.128646
0.111924
0.10357
0.0990359
0.0966534
0.095667
0.0956885
0.0965022
0.0979832
0.100059
0.102689
0.105856
0.109555
0.113793
0.118584
0.123948
0.129909
0.136493
)
;

boundaryField
{
    leftWall
    {
        Cmu             0.09;
        kappa           0.41;
        E               9.8;
        type            epsilonWallFunction;
        value           nonuniform List<scalar> 
44
(
0.0210056
0.0385672
0.0527821
0.0607966
0.0671343
0.0731992
0.0779275
0.081361
0.0877458
0.109726
0.161886
0.241243
0.318323
0.353459
0.364563
0.369059
0.368375
0.365401
0.362493
0.360541
0.358498
0.35703
0.356707
0.357857
0.360578
0.36476
0.370133
0.37633
0.382944
0.389579
0.395891
0.401604
0.406518
0.410513
0.413553
0.415724
0.417383
0.418038
0.417197
0.415076
0.41186
0.407699
0.402719
0.397036
)
;
    }
    rightWall
    {
        Cmu             0.09;
        kappa           0.41;
        E               9.8;
        type            epsilonWallFunction;
        value           nonuniform 0();
    }
    lowerWall
    {
        Cmu             0.09;
        kappa           0.41;
        E               9.8;
        type            epsilonWallFunction;
        value           nonuniform List<scalar> 
44
(
0.0210056
0.0585601
0.10264
0.153036
0.204772
0.252451
0.296317
0.336324
0.3754
0.41368
0.4499
0.484144
0.5164
0.546702
0.575108
0.601693
0.626541
0.649746
0.671399
0.691594
0.710411
0.727907
0.744092
0.7589
0.772167
0.783857
0.794606
0.803276
0.808904
0.810643
0.807711
0.799321
0.784681
0.763067
0.733958
0.697194
0.653191
0.602834
0.55068
0.497655
0.447795
0.408299
0.366626
0.323299
)
;
    }
    atmosphere
    {
        type            inletOutlet;
        inletValue      nonuniform 0();
        value           nonuniform 0();
    }
    defaultFaces
    {
        type            empty;
    }
    procBoundary0to1
    {
        type            processor;
        value           nonuniform List<scalar> 
44
(
0.258131
0.216094
0.263411
0.313238
0.367552
0.42158
0.474337
0.529138
0.590719
0.650142
0.588416
0.538178
0.510158
0.498617
0.497049
0.501038
0.507838
0.515698
0.523513
0.530667
0.530667
0.585307
0.589346
0.593893
0.600186
0.606467
0.606865
0.607955
0.613385
0.624783
0.642452
0.665911
0.694365
0.726946
0.762811
0.801172
0.841291
0.881676
0.921369
0.959704
0.996176
1.03045
1.06237
1.09192
)
;
    }
    procBoundary0to2
    {
        type            processor;
        value           nonuniform List<scalar> 
46
(
0.143728
0.151641
0.16026
0.16961
0.179717
0.190603
0.202292
0.214812
0.228195
0.242488
0.257761
0.27412
0.291728
0.310829
0.331796
0.355169
0.381718
0.412534
0.449089
0.493358
0.547914
0.616046
0.701851
0.810299
0.94722
0.390755
0.168925
0.126323
0.109797
0.101512
0.096986
0.094575
0.093535
0.0934839
0.0942096
0.09559
0.0975548
0.100066
0.103107
0.106676
0.110782
0.115441
0.120677
0.126517
0.143728
0.13299
)
;
    }
}


// ************************************************************************* //
