/*--------------------------------*- C++ -*----------------------------------*\
| =========                 |                                                 |
| \\      /  F ield         | OpenFOAM: The Open Source CFD Toolbox           |
|  \\    /   O peration     | Version:  5.0                                   |
|   \\  /    A nd           | Web:      www.OpenFOAM.org                      |
|    \\/     M anipulation  |                                                 |
\*---------------------------------------------------------------------------*/
FoamFile
{
    version     2.0;
    format      ascii;
    class       volScalarField;
    location    "0.65";
    object      nut;
}
// * * * * * * * * * * * * * * * * * * * * * * * * * * * * * * * * * * * * * //

dimensions      [0 2 -1 0 0 0 0];

internalField   nonuniform List<scalar> 
1935
(
3.20116e-05
3.78663e-05
4.56221e-05
5.20827e-05
5.7378e-05
6.15111e-05
6.48669e-05
6.76483e-05
7.01267e-05
7.2416e-05
7.44554e-05
7.62865e-05
7.79348e-05
7.94224e-05
8.0768e-05
8.19878e-05
8.30955e-05
8.41032e-05
8.50215e-05
8.58593e-05
8.66245e-05
8.73231e-05
8.79589e-05
8.85321e-05
8.90392e-05
8.94972e-05
8.99091e-05
9.02316e-05
9.0435e-05
9.04913e-05
9.03724e-05
9.00472e-05
8.94811e-05
8.86374e-05
8.74801e-05
8.59793e-05
8.41225e-05
8.19148e-05
7.9562e-05
7.69498e-05
7.43415e-05
7.21061e-05
6.95348e-05
6.66809e-05
4.78655e-05
0.000200695
0.000313554
0.000406615
0.000474034
0.000530092
0.000577792
0.000618762
0.000653027
0.000682448
0.000708182
0.000730854
0.000750924
0.000768747
0.000784611
0.000798761
0.000811407
0.000822731
0.000832892
0.000842031
0.000850269
0.000857707
0.000864417
0.000870429
0.000875728
0.000880176
0.000882373
0.000882404
0.000880121
0.000875312
0.00086769
0.000856904
0.000842605
0.000824534
0.000802618
0.000777061
0.00074835
0.000717036
0.00068245
0.000643214
0.000605329
0.000584718
0.000561505
0.000478123
5.31404e-05
0.000336028
0.000549486
0.000718514
0.000857745
0.000978954
0.00108505
0.00117884
0.00126147
0.0013345
0.00139929
0.00145688
0.00150812
0.00155371
0.00159427
0.00163035
0.00166242
0.00169093
0.00171625
0.00173872
0.00175863
0.00177624
0.00179172
0.00180511
0.00181638
0.00182517
0.00182984
0.0018299
0.00182475
0.00181376
0.00179619
0.00177127
0.00173827
0.00169658
0.00164594
0.00158653
0.00151916
0.00144513
0.00136578
0.00128243
0.00120043
0.00112678
0.00103109
0.000842885
5.56899e-05
0.000414564
0.00070354
0.000934639
0.00113667
0.00131839
0.00148224
0.00162987
0.00176249
0.00188153
0.00198836
0.00208421
0.00217015
0.00224712
0.00231599
0.00237754
0.00243248
0.00248145
0.00252503
0.00256371
0.00259793
0.00262806
0.00265433
0.00267683
0.00269553
0.00270958
0.00271768
0.00271889
0.00271223
0.00269664
0.00267103
0.00263431
0.00258544
0.00252364
0.00244849
0.00236016
0.00225957
0.00214837
0.00202871
0.00190278
0.00177281
0.00163422
0.00145277
0.00116318
5.75121e-05
0.000445367
0.000783869
0.00107011
0.0013295
0.00156787
0.00178629
0.00198545
0.00216633
0.00233023
0.00247854
0.00261259
0.00273361
0.00284273
0.002941
0.00302937
0.00310872
0.00317984
0.00324345
0.00330016
0.0033505
0.00339491
0.00343366
0.00346685
0.00349438
0.00351509
0.0035279
0.00353166
0.00352513
0.003507
0.00347593
0.0034306
0.00336984
0.00329275
0.00319885
0.00308825
0.00296177
0.00282086
0.0026672
0.00250157
0.00232133
0.00211303
0.00183935
0.00143945
5.91401e-05
0.00044388
0.000814882
0.00114853
0.00145972
0.00175021
0.00201913
0.00226627
0.00249229
0.00269841
0.00288606
0.0030567
0.00321167
0.00335226
0.00347963
0.00359487
0.00369899
0.00379287
0.00387732
0.00395303
0.00402056
0.00408039
0.00413281
0.00417787
0.00421539
0.00424405
0.00426285
0.00427058
0.00426587
0.00424727
0.00421329
0.00416252
0.00409373
0.00400595
0.00389863
0.00377172
0.0036257
0.00346131
0.0032788
0.00307622
0.00284583
0.00256759
0.00220151
0.00168924
6.03302e-05
0.000431001
0.00081958
0.00119239
0.0015496
0.00188699
0.00220145
0.00249194
0.00275892
0.00300362
0.00322752
0.00343216
0.003619
0.00378944
0.00394473
0.00408604
0.00421446
0.00433093
0.0044363
0.00453129
0.00461647
0.0046923
0.00475907
0.00481679
0.00486512
0.00490272
0.00492863
0.0049416
0.00494024
0.00492302
0.00488844
0.00483504
0.00476157
0.00466703
0.00455073
0.00441237
0.00425184
0.0040688
0.00386159
0.00362513
0.00334706
0.00300217
0.00254737
0.00192417
6.11701e-05
0.000414529
0.000814806
0.00122183
0.00161968
0.00199798
0.00235189
0.00268003
0.00298284
0.0032616
0.00351786
0.00375322
0.0039692
0.00416724
0.00434865
0.00451465
0.00466633
0.00480465
0.00493047
0.00504448
0.00514724
0.0052392
0.00532059
0.0053914
0.005451
0.00549823
0.00553208
0.00555133
0.00555458
0.00554033
0.00550708
0.00545339
0.005378
0.00527986
0.00515812
0.0050121
0.00484098
0.00464318
0.00441508
0.00414869
0.00382786
0.00342318
0.00288745
0.00215777
6.28416e-05
0.0003964
0.000813675
0.00125475
0.00168819
0.0021004
0.00248654
0.00284559
0.00317823
0.00348583
0.00376998
0.00403226
0.00427417
0.00449714
0.00470247
0.00489135
0.00506484
0.00522387
0.00536926
0.00550165
0.00562156
0.00572937
0.00582529
0.00590926
0.00598034
0.00603758
0.00607995
0.00610624
0.0061151
0.00610506
0.00607467
0.00602254
0.00594741
0.00584816
0.00572373
0.00557301
0.00539445
0.00518528
0.00494019
0.00464896
0.00429287
0.00383959
0.00323723
0.00241199
6.80189e-05
0.000380975
0.000831158
0.00130786
0.00177046
0.00220815
0.00261819
0.00300061
0.00335649
0.00368728
0.00399448
0.00427957
0.00454395
0.00478891
0.00501568
0.0052254
0.00541901
0.00559733
0.00576112
0.00591095
0.00604727
0.0061704
0.00628049
0.00637736
0.00645994
0.00652734
0.00657855
0.00661239
0.00662756
0.00662268
0.00659633
0.00654718
0.00647397
0.0063755
0.00625049
0.00609742
0.00591406
0.0056967
0.00543882
0.00512897
0.00474753
0.00426188
0.00361878
0.00273214
7.75451e-05
0.000390838
0.000889639
0.00139713
0.00187878
0.00233189
0.00275689
0.00315495
0.00352746
0.00387582
0.00420135
0.00450527
0.00478874
0.00505285
0.00529863
0.00552721
0.00573927
0.00593548
0.00611648
0.00628279
0.00643473
0.00657259
0.00669642
0.0068059
0.00689987
0.00697747
0.00703771
0.00707947
0.00710151
0.0071025
0.0070811
0.00703602
0.00696602
0.00686979
0.00674587
0.00659236
0.00640652
0.00618398
0.00591762
0.00559586
0.00520019
0.00470187
0.00405786
0.00320882
8.8335e-05
0.0004669
0.00101331
0.0015343
0.00202049
0.00247757
0.00290819
0.00331415
0.00369684
0.00405739
0.0043967
0.00471562
0.00501492
0.00529539
0.00555794
0.00580347
0.00603229
0.00624489
0.00644183
0.00662352
0.00679016
0.00694208
0.00707919
0.00720082
0.00730594
0.00739366
0.00746302
0.00751294
0.00754222
0.00754963
0.00753386
0.00749371
0.00742792
0.00733511
0.00721366
0.00706139
0.00687523
0.00665048
0.00638002
0.00605304
0.00565369
0.00515976
0.00454284
0.0037743
9.66285e-05
0.000635066
0.00120055
0.00171448
0.00219309
0.0026444
0.00307254
0.00347964
0.0038668
0.00423462
0.00458349
0.00491373
0.00522572
0.00551991
0.00579688
0.00605711
0.00630086
0.00652827
0.00673972
0.00693558
0.00711606
0.0072813
0.00743101
0.00756431
0.00768019
0.00777783
0.00785626
0.00791442
0.00795118
0.0079654
0.00795579
0.00792121
0.00786043
0.00777201
0.00765422
0.00750472
0.00732027
0.00709617
0.0068257
0.00649942
0.0061047
0.00562604
0.00504773
0.00436225
9.96626e-05
0.000716016
0.00134262
0.00187483
0.00235826
0.00280978
0.00323758
0.00364566
0.0040358
0.00440869
0.00476457
0.00510348
0.00542549
0.00573072
0.00601937
0.00629178
0.00654814
0.00678857
0.00701315
0.00722207
0.00741549
0.00759315
0.00775478
0.00789933
0.00802572
0.00813306
0.00822051
0.00828702
0.00833139
0.00835276
0.00834971
0.00832123
0.00826615
0.00818297
0.00806992
0.0079246
0.00774377
0.00752295
0.00725606
0.00693516
0.00655064
0.00609232
0.00555274
0.00493432
0.000100688
0.000769196
0.00144265
0.00200427
0.00250251
0.00296193
0.00339461
0.00380666
0.00420102
0.00457897
0.00494096
0.00528707
0.00561724
0.00593139
0.00622949
0.00651171
0.00677837
0.00702958
0.00726525
0.00748529
0.00768987
0.00787892
0.00805175
0.00820735
0.0083443
0.00846134
0.00855794
0.00863305
0.00868529
0.00871415
0.00871804
0.00869617
0.00864746
0.00857031
0.00846302
0.00832322
0.0081478
0.00793262
0.00767231
0.00736032
0.00698939
0.00655278
0.00604716
0.00547729
0.000101119
0.00080466
0.00151459
0.00210506
0.00262328
0.00309656
0.00353925
0.00395905
0.00436004
0.00474426
0.00511262
0.00546544
0.00580275
0.00612444
0.00643045
0.00672089
0.00699603
0.00725595
0.00750046
0.0077293
0.00794253
0.00814038
0.00832236
0.00848719
0.00863401
0.00876132
0.00886803
0.00895284
0.0090143
0.00905128
0.00906274
0.00904799
0.00900634
0.00893602
0.00883551
0.00870253
0.00853422
0.00832679
0.00807558
0.00777517
0.00741987
0.00700487
0.00652815
0.0059932
0.000101084
0.000828046
0.00156418
0.00218129
0.00272212
0.00321338
0.0036702
0.00410126
0.00451152
0.00490372
0.00527933
0.00563903
0.0059831
0.00631157
0.00662446
0.0069219
0.0072041
0.00747111
0.00772272
0.00795865
0.00817885
0.00838347
0.00857213
0.00874366
0.00889734
0.00903251
0.00914808
0.0092423
0.00931494
0.00936273
0.00938411
0.00937782
0.00934418
0.00928157
0.00918895
0.00906411
0.00890453
0.00870681
0.00846689
0.0081802
0.00784207
0.00744853
0.00699752
0.00649026
0.000100846
0.000842225
0.00159582
0.00223777
0.00280239
0.00331422
0.00378817
0.00423331
0.00465515
0.00505706
0.005441
0.0058081
0.00615895
0.00649385
0.00681297
0.00711651
0.00740468
0.00767753
0.00793488
0.00817649
0.00840224
0.00861207
0.00880579
0.00898249
0.00914154
0.00928247
0.00940422
0.00950529
0.00958554
0.00964323
0.00967587
0.00968213
0.00966015
0.00960759
0.00952421
0.0094089
0.0092597
0.00907355
0.00884693
0.00857593
0.00825648
0.00788495
0.00745879
0.00697718
0.000100619
0.000846646
0.00161453
0.00227964
0.00286828
0.0034021
0.00389511
0.00435631
0.00479153
0.00520456
0.00559785
0.00597293
0.00633077
0.00667195
0.00699687
0.00730587
0.00759917
0.00787689
0.00813891
0.00838504
0.00861514
0.00882903
0.00902663
0.00920729
0.00937045
0.00951562
0.00964196
0.00974836
0.00983445
0.00989904
0.00994016
0.00995685
0.00994719
0.00990909
0.00983967
0.00973695
0.00959996
0.00942727
0.00921592
0.00896259
0.00866358
0.00831544
0.00791516
0.00746062
0.000100463
0.000843785
0.00162498
0.00231192
0.00292425
0.00348056
0.00399362
0.00447207
0.00492183
0.005347
0.00575038
0.00613393
0.00649895
0.00684635
0.00717677
0.0074907
0.00778848
0.00807028
0.0083361
0.00858582
0.0088193
0.00903632
0.00923687
0.0094205
0.00958676
0.00973516
0.00986505
0.0099756
0.0100663
0.0101363
0.0101842
0.010209
0.0102092
0.0101832
0.0101286
0.010043
0.00992333
0.0097674
0.00957337
0.00933988
0.00906328
0.00874065
0.00836858
0.0079444
0.000100298
0.00083887
0.00163174
0.0023392
0.00297448
0.00355313
0.0040865
0.00458268
0.00504755
0.00548538
0.0058993
0.00629157
0.00666386
0.00701738
0.00735302
0.00767145
0.00797315
0.00825839
0.00852728
0.00877981
0.00901588
0.00923527
0.00943799
0.00962381
0.00979236
0.00994322
0.0100759
0.0101897
0.0102843
0.0103588
0.0104123
0.0104439
0.0104525
0.0104367
0.0103947
0.0103244
0.0102232
0.0100885
0.00991707
0.00970674
0.00945487
0.00916029
0.00881938
0.00842977
0.00798924
0.000100191
0.00083415
0.00163814
0.00236515
0.00302254
0.00362295
0.00417633
0.00469019
0.00517023
0.00562083
0.00604536
0.0064464
0.00682589
0.00718534
0.00752588
0.00784839
0.00815348
0.00844158
0.00871292
0.00896758
0.00920556
0.00942673
0.00963091
0.00981825
0.00998843
0.0101411
0.010276
0.0103925
0.0104902
0.0105687
0.0106271
0.0106648
0.0106809
0.0106742
0.0106434
0.0105867
0.0105021
0.0103874
0.01024
0.0100573
0.00983554
0.00957294
0.00926674
0.00891595
0.00851896
0.000100191
0.000830768
0.00164633
0.00239243
0.00307113
0.00369252
0.00426528
0.00479632
0.0052912
0.00575434
0.00618929
0.00659887
0.00698531
0.00735039
0.00769546
0.0080216
0.00832959
0.00862
0.0088932
0.00914939
0.00938864
0.00961094
0.0098161
0.0100044
0.0101756
0.0103297
0.0104661
0.0105848
0.0106852
0.0107671
0.01083
0.0108732
0.0108961
0.0108979
0.0108774
0.0108334
0.0107642
0.010668
0.0105428
0.0103867
0.0101971
0.00997185
0.00970667
0.00940018
0.00905231
0.000100328
0.000829377
0.00165766
0.00242277
0.00312208
0.00376357
0.00435486
0.00490237
0.00541147
0.00588664
0.00633158
0.00674931
0.00714233
0.00751261
0.00786177
0.00819105
0.00850143
0.00879361
0.00906811
0.00932524
0.00956521
0.00978806
0.00999375
0.0101824
0.0103542
0.0105091
0.0106467
0.010767
0.0108698
0.0109547
0.0110215
0.0110698
0.0110991
0.0111088
0.0110981
0.0110661
0.0110114
0.0109328
0.0108287
0.0106977
0.0105382
0.0103491
0.0101286
0.00987394
0.00958289
0.000100608
0.00083034
0.00167282
0.00245704
0.00317637
0.00383707
0.00444595
0.00500906
0.00553163
0.00601817
0.00647251
0.00689787
0.00729695
0.00767195
0.00802468
0.00835659
0.00866881
0.00896222
0.00923745
0.00949497
0.00973508
0.00995796
0.0101637
0.0103523
0.0105241
0.0106793
0.0108176
0.0109392
0.0110438
0.0111313
0.0112017
0.0112546
0.0112899
0.0113071
0.0113057
0.0112851
0.0112444
0.0111827
0.011099
0.0109925
0.0108622
0.0107078
0.0105288
0.0103247
0.0100965
0.000101016
0.000833791
0.00169194
0.00249546
0.00323424
0.00391329
0.00453882
0.00511661
0.00565182
0.00614898
0.00661206
0.00704444
0.007449
0.00782817
0.00818393
0.00851791
0.00883143
0.00912549
0.0094009
0.00965823
0.00989793
0.0101203
0.0103255
0.0105135
0.010685
0.01084
0.0109786
0.0111009
0.0112069
0.0112966
0.0113701
0.0114273
0.0114681
0.0114924
0.0114999
0.0114903
0.0114631
0.011418
0.0113544
0.011272
0.0111706
0.0110506
0.0109124
0.0107569
0.0105864
0.000101526
0.000839655
0.00171479
0.00253767
0.00329535
0.00399192
0.00463318
0.00522475
0.00577176
0.00627879
0.00674991
0.00718867
0.00759813
0.00798088
0.0083391
0.0086746
0.00898884
0.00928299
0.009558
0.00981458
0.0100533
0.0102745
0.0104786
0.0106658
0.0108363
0.0109906
0.011129
0.0112515
0.0113585
0.01145
0.0115261
0.0115871
0.011633
0.011664
0.01168
0.011681
0.0116671
0.0116382
0.0115944
0.011536
0.0114635
0.0113779
0.0112803
0.0111729
0.0110583
0.000102101
0.000847681
0.00174078
0.00258293
0.00335893
0.0040722
0.00472833
0.00533284
0.00589085
0.00640702
0.00688552
0.00733004
0.00774379
0.00812955
0.00848967
0.00882611
0.0091405
0.00943417
0.00970819
0.00996343
0.0102006
0.0104201
0.0106226
0.0108082
0.0109773
0.0111305
0.0112681
0.0113905
0.0114979
0.0115906
0.011669
0.0117333
0.0117838
0.011821
0.0118451
0.0118564
0.0118554
0.0118426
0.0118185
0.011784
0.0117403
0.011689
0.011632
0.0115719
0.0115119
0.000102704
0.00085748
0.00176912
0.00263025
0.0034239
0.00415309
0.00482327
0.00543994
0.00600822
0.00653286
0.00701811
0.0074678
0.00788529
0.00827351
0.00863497
0.0089718
0.00928578
0.0095784
0.00985087
0.0101042
0.0103392
0.0105565
0.0107566
0.0109402
0.0111074
0.0112589
0.0113952
0.0115169
0.0116242
0.0117177
0.0117977
0.0118649
0.0119196
0.0119626
0.0119943
0.0120156
0.0120272
0.0120301
0.0120255
0.0120148
0.0119998
0.0119825
0.0119656
0.0119519
0.0119444
0.0001033
0.000868581
0.00179889
0.00267848
0.00348905
0.00423338
0.00491685
0.00554495
0.00612286
0.00665536
0.0071468
0.00760112
0.00802183
0.00841199
0.00877428
0.00911098
0.00942401
0.00971501
0.00998535
0.0102361
0.0104684
0.0106828
0.0108801
0.0110609
0.0112257
0.011375
0.0115095
0.0116298
0.0117366
0.0118302
0.0119115
0.0119809
0.0120394
0.0120877
0.0121267
0.0121575
0.0121814
0.0121998
0.0122144
0.0122272
0.0122404
0.0122568
0.0122789
0.0123098
0.0123524
0.000103859
0.000880484
0.00182915
0.00272645
0.00355312
0.00431179
0.00500783
0.00564672
0.00623366
0.00677347
0.0072706
0.00772909
0.00815255
0.0085442
0.00890684
0.0092429
0.00955447
0.00984333
0.010111
0.0103587
0.0105875
0.0107985
0.0109923
0.0111698
0.0113315
0.011478
0.0116101
0.0117286
0.0118342
0.0119275
0.0120094
0.0120807
0.0121423
0.0121954
0.0122413
0.0122812
0.012317
0.0123505
0.012384
0.0124198
0.0124608
0.0125098
0.0125697
0.012643
0.0127321
0.00010436
0.000892704
0.00185901
0.00277304
0.0036149
0.00438711
0.00509501
0.00574407
0.00633951
0.00688617
0.00738855
0.00785078
0.00827659
0.0086693
0.00903187
0.00936685
0.00967648
0.00996268
0.0102271
0.0104712
0.0106961
0.0109029
0.0110927
0.0112661
0.0114241
0.0115673
0.0116964
0.0118125
0.0119163
0.0120087
0.0120907
0.0121633
0.0122277
0.0122851
0.0123373
0.012386
0.0124333
0.0124815
0.0125333
0.0125917
0.0126596
0.0127401
0.0128358
0.0129488
0.0130806
0.000104787
0.000904798
0.00188762
0.00281722
0.00367326
0.00445818
0.00517725
0.00583592
0.00643936
0.00699243
0.00749968
0.0079653
0.0083931
0.00878653
0.00914864
0.00948214
0.0097894
0.0100725
0.0103332
0.010573
0.0107934
0.0109956
0.0111806
0.0113495
0.011503
0.0116422
0.0117679
0.0118809
0.0119824
0.0120734
0.012155
0.0122283
0.0122949
0.0123562
0.0124143
0.0124713
0.0125296
0.012592
0.0126617
0.0127419
0.0128357
0.0129461
0.0130753
0.0132249
0.0133953
0.000105132
0.000916354
0.00191421
0.00285806
0.00372723
0.00452401
0.00525358
0.00592128
0.00653226
0.00709137
0.00760315
0.00807184
0.00850133
0.00889516
0.0092565
0.00958817
0.00989266
0.0101722
0.0104287
0.0106638
0.0108792
0.0110761
0.0112558
0.0114194
0.011568
0.0117025
0.0118241
0.0119335
0.0120321
0.0121211
0.0122017
0.0122753
0.0123436
0.0124084
0.012472
0.0125368
0.0126056
0.0126818
0.0127687
0.0128698
0.0129882
0.0131267
0.013287
0.0134697
0.0136744
0.000105393
0.000926918
0.00193804
0.00289475
0.00377598
0.00458378
0.00532315
0.00599935
0.00661743
0.00718219
0.00769819
0.00816968
0.00860062
0.00899459
0.00935488
0.00968441
0.00998581
0.0102614
0.0105133
0.0107433
0.0109531
0.0111442
0.011318
0.0114758
0.0116188
0.0117481
0.0118648
0.0119702
0.0120654
0.0121518
0.012231
0.0123044
0.0123739
0.0124417
0.0125103
0.0125824
0.0126614
0.0127508
0.0128541
0.012975
0.0131167
0.0132812
0.0134698
0.0136821
0.0139169
0.000105578
0.0009359
0.00195837
0.0029266
0.00381887
0.00463686
0.00538535
0.00606948
0.00669423
0.00726429
0.00778421
0.00825825
0.00869041
0.00908433
0.00944335
0.0097705
0.0100685
0.0103399
0.0105868
0.0108112
0.011015
0.0111999
0.0113673
0.0115187
0.0116555
0.011779
0.0118904
0.0119911
0.0120823
0.0121657
0.0122429
0.0123156
0.012386
0.0124564
0.0125295
0.0126086
0.0126972
0.0127991
0.012918
0.0130577
0.0132209
0.0134093
0.0136233
0.0138617
0.0141225
0.00010572
0.000942391
0.00197448
0.00295311
0.00385548
0.00468283
0.00543974
0.00613122
0.00676224
0.00733721
0.00786074
0.00833711
0.00877032
0.009164
0.00952158
0.00984617
0.0101406
0.0104075
0.0106491
0.0108676
0.011065
0.0112432
0.0114037
0.0115483
0.0116784
0.0117955
0.0119011
0.0119965
0.0120834
0.0121633
0.012238
0.0123097
0.0123804
0.012453
0.0125304
0.012616
0.0127136
0.0128273
0.012961
0.0131181
0.0133011
0.0135111
0.0137476
0.0140087
0.0142918
0.000105773
0.000946153
0.0019868
0.00297487
0.00388638
0.0047222
0.00548671
0.0061848
0.00682126
0.00740067
0.00792749
0.00840597
0.0088401
0.00923341
0.00958942
0.00991132
0.010202
0.0104642
0.0107003
0.0109127
0.0111034
0.0112745
0.0114277
0.011565
0.011688
0.0117983
0.0118975
0.0119872
0.0120692
0.0121452
0.0122171
0.0122873
0.0123581
0.0124325
0.0125137
0.0126053
0.0127115
0.0128363
0.0129836
0.0131568
0.0133578
0.0135871
0.0138433
0.0141239
0.0144269
0.000105702
0.000948687
0.00199625
0.00299235
0.00391182
0.00475509
0.00552635
0.00623033
0.00687174
0.00745511
0.00798482
0.00846503
0.00889969
0.00929246
0.0096468
0.00996596
0.0102528
0.0105102
0.0107407
0.0109467
0.0111305
0.0112942
0.0114399
0.0115695
0.011685
0.011788
0.0118804
0.0119641
0.0120408
0.0121125
0.0121813
0.0122496
0.0123202
0.012396
0.0124806
0.0125778
0.0126919
0.012827
0.012987
0.0131748
0.013392
0.0136382
0.0139116
0.0142094
0.0145298
0.000105526
0.000950335
0.00200328
0.00300594
0.00393207
0.0047817
0.00555879
0.00626794
0.00691371
0.00750057
0.00803281
0.0085145
0.00894955
0.00934161
0.00969414
0.0100104
0.0102933
0.0105458
0.0107706
0.0109701
0.0111468
0.011303
0.0114409
0.0115626
0.0116703
0.0117657
0.0118511
0.0119283
0.0119993
0.0120664
0.0121317
0.0121979
0.0122679
0.0123448
0.0124325
0.0125348
0.0126562
0.0128008
0.0129722
0.0131732
0.0134047
0.0136658
0.0139541
0.0142671
0.0146023
0.000105257
0.000951188
0.00200812
0.00301589
0.00394741
0.00480229
0.00558428
0.00629781
0.00694734
0.00753722
0.00807163
0.00855457
0.00898987
0.00938113
0.00973178
0.0100451
0.010324
0.0105716
0.0107906
0.0109836
0.0111532
0.0113017
0.0114317
0.0115453
0.0116449
0.0117326
0.0118106
0.0118811
0.0119462
0.0120084
0.01207
0.0121338
0.0122028
0.0122806
0.0123709
0.0124778
0.0126058
0.0127589
0.0129406
0.0131533
0.0133973
0.0136713
0.0139729
0.0142989
0.0146464
0.000104907
0.000951287
0.0020109
0.00302243
0.00395808
0.00481711
0.00560306
0.00632021
0.00697289
0.00756531
0.00810156
0.00858553
0.00902094
0.00941135
0.00976014
0.0100705
0.0103456
0.0105883
0.0108015
0.010988
0.0111503
0.0112912
0.0114132
0.0115187
0.0116102
0.0116899
0.0117604
0.0118239
0.0118829
0.0119399
0.0119976
0.0120587
0.0121266
0.0122049
0.0122974
0.0124084
0.0125422
0.0127029
0.0128937
0.0131165
0.0133714
0.0136568
0.0139698
0.0143068
0.0146644
0.000104484
0.000950664
0.00201175
0.00302574
0.00396432
0.00482644
0.00561544
0.00633545
0.00699066
0.00758518
0.00812294
0.00860773
0.00904318
0.00943273
0.00977972
0.0100873
0.0103586
0.0105966
0.0108041
0.0109841
0.0111394
0.0112726
0.0113866
0.0114839
0.0115672
0.011639
0.0117019
0.0117584
0.0118111
0.0118628
0.0119163
0.0119746
0.0120411
0.0121194
0.0122137
0.0123282
0.0124671
0.0126344
0.012833
0.0130645
0.0133288
0.013624
0.0139467
0.0142929
0.0146584
0.000103997
0.000949347
0.00201074
0.00302599
0.00396635
0.00483055
0.00562173
0.00634386
0.00700103
0.00759719
0.00813617
0.00862162
0.00905703
0.00944577
0.00979107
0.010096
0.0103638
0.0105972
0.0107993
0.0109731
)
;

boundaryField
{
    leftWall
    {
        type            nutkWallFunction;
        Cmu             0.09;
        kappa           0.41;
        E               9.8;
        value           nonuniform List<scalar> 
44
(
4.48645e-06
5.8091e-06
6.44916e-06
6.75701e-06
6.97956e-06
7.17872e-06
7.32553e-06
7.42841e-06
7.61692e-06
8.19986e-06
9.34723e-06
3.02059e-06
4.37832e-06
4.90747e-06
5.07115e-06
5.13726e-06
5.12846e-06
5.08657e-06
5.04567e-06
5.01796e-06
4.98885e-06
4.96828e-06
4.96469e-06
4.98291e-06
5.02412e-06
5.0863e-06
5.16503e-06
5.25455e-06
5.34877e-06
5.44205e-06
5.52968e-06
5.60812e-06
5.67497e-06
5.7289e-06
5.76968e-06
5.79869e-06
5.82077e-06
5.82937e-06
5.81824e-06
5.79015e-06
5.74738e-06
5.69166e-06
5.62442e-06
5.54693e-06
)
;
    }
    rightWall
    {
        type            nutkWallFunction;
        Cmu             0.09;
        kappa           0.41;
        E               9.8;
        value           nonuniform 0();
    }
    lowerWall
    {
        type            nutkWallFunction;
        Cmu             0.09;
        kappa           0.41;
        E               9.8;
        value           nonuniform List<scalar> 
44
(
3.32663e-06
4.57509e-06
5.54116e-06
6.33211e-06
6.97061e-06
7.46451e-06
7.86342e-06
8.19235e-06
8.48702e-06
8.75609e-06
8.99498e-06
9.20871e-06
9.40053e-06
9.57321e-06
9.72907e-06
9.87011e-06
9.99801e-06
1.01143e-05
1.02201e-05
1.03166e-05
1.04048e-05
1.04853e-05
1.05585e-05
1.06245e-05
1.06829e-05
1.07342e-05
1.07808e-05
1.08178e-05
1.08416e-05
1.08487e-05
1.0836e-05
1.07999e-05
1.07364e-05
1.06414e-05
1.05105e-05
1.03399e-05
1.01276e-05
9.87248e-06
9.59389e-06
9.28916e-06
8.98168e-06
8.71945e-06
8.42131e-06
8.08587e-06
)
;
    }
    atmosphere
    {
        type            calculated;
        value           nonuniform 0();
    }
    defaultFaces
    {
        type            empty;
    }
    procBoundary0to1
    {
        type            processor;
        value           nonuniform List<scalar> 
44
(
6.17297e-05
0.000313171
0.000514102
0.000704214
0.000849278
0.000968702
0.00107623
0.00118118
0.00129997
0.00148731
0.00210174
0.0028514
0.00359108
0.00426174
0.00486183
0.00541088
0.00593158
0.00644113
0.00695066
0.00746612
0.00746612
0.00749727
0.00807657
0.00866629
0.00925973
0.00984452
0.0104027
0.0109399
0.0114558
0.011947
0.0124095
0.0128391
0.0132323
0.0135866
0.0139003
0.0141726
0.0144036
0.0145959
0.0147512
0.0148711
0.0149576
0.0150129
0.0150392
0.0150393
)
;
    }
    procBoundary0to2
    {
        type            processor;
        value           nonuniform List<scalar> 
46
(
0.0111214
0.0112471
0.0113532
0.0114423
0.0115174
0.0115812
0.0116364
0.0116859
0.0117323
0.0117786
0.0118279
0.0118831
0.0119479
0.012026
0.0121216
0.0122389
0.0123821
0.0125548
0.01276
0.012999
0.0132713
0.0135748
0.0139055
0.0142591
0.0146309
0.000103453
0.000947368
0.00200799
0.00302333
0.00396441
0.00482972
0.00562223
0.0063458
0.00700437
0.00760177
0.00814168
0.00862764
0.009063
0.00945101
0.00979478
0.0100974
0.0103618
0.010591
0.010788
0.0111214
0.0109559
)
;
    }
}


// ************************************************************************* //
