/*--------------------------------*- C++ -*----------------------------------*\
| =========                 |                                                 |
| \\      /  F ield         | OpenFOAM: The Open Source CFD Toolbox           |
|  \\    /   O peration     | Version:  5.0                                   |
|   \\  /    A nd           | Web:      www.OpenFOAM.org                      |
|    \\/     M anipulation  |                                                 |
\*---------------------------------------------------------------------------*/
FoamFile
{
    version     2.0;
    format      ascii;
    class       volScalarField;
    location    "0.65";
    object      p;
}
// * * * * * * * * * * * * * * * * * * * * * * * * * * * * * * * * * * * * * //

dimensions      [1 -1 -2 0 0 0 0];

internalField   nonuniform List<scalar> 
1935
(
447.243
445.829
445.874
447.679
451.003
455.187
459.751
464.491
469.361
474.387
479.631
485.161
491.037
497.309
504.016
511.187
518.844
527.001
535.666
544.84
554.521
564.7
575.368
586.512
598.117
610.157
622.633
635.495
648.716
662.268
676.115
690.214
704.505
718.907
733.299
747.512
761.315
774.47
786.597
797.327
806.31
812.895
819.07
826.257
400.081
398.292
397.802
399.178
402.122
405.894
410.143
414.688
419.461
424.469
429.753
435.365
441.356
447.766
454.628
461.969
469.805
478.149
487.007
496.379
506.26
516.641
527.513
538.862
550.673
562.942
575.638
588.745
602.248
616.119
630.324
644.822
659.558
674.45
689.371
704.138
718.487
732.082
744.556
755.642
764.015
768.181
771.473
775.842
351.955
350.497
350.383
351.607
353.991
357.195
360.965
365.143
369.664
374.52
379.734
385.343
391.382
397.883
404.871
412.362
420.372
428.908
437.975
447.568
457.682
468.305
479.426
491.032
503.111
515.651
528.636
542.053
555.885
570.105
584.68
599.565
614.697
629.981
645.274
660.37
674.983
688.727
701.175
712.004
720.21
724.217
726.316
728.573
303.66
302.708
303.169
304.385
306.42
309.164
312.472
316.246
320.441
325.056
330.108
335.624
341.632
348.152
355.2
362.788
370.924
379.614
388.857
398.647
408.975
419.826
431.187
443.046
455.389
468.203
481.471
495.18
509.311
523.837
538.719
553.904
569.318
584.85
600.342
615.574
630.246
643.969
656.29
666.801
674.754
679.294
681.795
683.709
255.676
255.426
256.295
257.493
259.245
261.584
264.452
267.805
271.636
275.956
280.788
286.153
292.072
298.559
305.619
313.257
321.478
330.284
339.672
349.632
360.149
371.205
382.786
394.88
407.472
420.544
434.079
448.06
462.466
477.264
492.409
507.842
523.475
539.187
554.807
570.111
584.8
598.5
610.775
621.188
629.176
634.266
637.43
639.759
208.03
208.587
209.692
210.792
212.246
214.182
216.603
219.518
222.957
226.951
231.528
236.71
242.511
248.937
255.981
263.642
271.922
280.823
290.338
300.454
311.145
322.39
334.179
346.497
359.329
372.652
386.445
400.688
415.358
430.419
445.817
461.486
477.331
493.221
508.981
524.384
539.141
552.9
565.257
575.802
584.099
589.894
593.88
597.276
160.566
161.837
163.06
164.028
165.181
166.712
168.679
171.144
174.174
177.825
182.135
187.122
192.797
199.155
206.176
213.847
222.175
231.159
240.794
251.061
261.919
273.343
285.328
297.866
310.938
324.509
338.556
353.058
367.995
383.324
398.979
414.898
430.977
447.079
463.027
478.596
493.509
507.439
520.021
530.887
539.704
546.341
551.333
556.059
113.152
114.813
116.053
116.878
117.743
118.885
120.407
122.414
125.024
128.327
132.373
137.176
142.743
149.059
156.076
163.769
172.151
181.228
190.995
201.424
212.448
224.037
236.207
248.962
262.276
276.099
290.399
305.159
320.373
335.987
351.915
368.109
384.462
400.829
417.035
432.858
448.034
462.261
475.21
486.562
496.059
503.63
509.696
515.775
65.639
67.2794
68.4412
69.1228
69.7234
70.4934
71.559
73.0821
75.254
78.2132
82.0085
86.6422
92.1243
98.4417
105.49
113.228
121.696
130.905
140.858
151.51
162.731
174.48
186.817
199.784
213.349
227.422
241.966
256.976
272.483
288.413
304.633
321.139
337.817
354.516
371.062
387.239
402.795
417.448
430.902
442.881
453.179
461.742
468.835
475.952
22.3593
23.5771
24.5073
25.0227
25.3532
25.7059
26.1991
27.0138
28.3797
30.4764
33.3902
37.1815
41.9657
47.8439
54.6861
62.3126
70.7521
80.0346
90.2085
101.199
112.699
124.633
137.158
150.38
164.24
178.561
193.311
208.53
224.333
240.607
257.128
273.987
291.052
308.158
325.137
341.775
357.828
373.034
387.121
399.845
411.031
420.632
428.788
436.702
1.50534
2.12817
2.51453
2.70684
2.80561
2.88386
2.99344
3.20892
3.619
4.30578
5.32801
6.7425
8.64084
11.1264
14.3062
18.7307
24.297
31.1501
39.6811
49.9997
61.4536
73.5117
86.3589
100.049
114.452
129.148
144.123
159.491
175.568
192.197
208.984
226.226
243.739
261.334
278.845
296.055
312.728
328.614
343.452
357.02
369.143
379.741
388.826
396.716
-0.141126
-0.111672
-0.12603
-0.112459
-0.0931979
-0.0821336
-0.0760514
-0.0731309
-0.0722341
-0.0725203
-0.0733867
-0.0744059
-0.0749043
-0.0725391
-0.00247803
0.764883
2.10118
4.1434
7.19853
11.5617
17.3455
25.0864
35.1547
47.5205
62.3437
77.912
93.5857
109.312
125.907
143.079
160.032
177.634
195.64
213.802
231.95
249.853
267.272
283.963
299.669
314.177
327.305
338.937
348.988
357.363
-0.172615
-0.167734
-0.160723
-0.151668
-0.143274
-0.136792
-0.131645
-0.127444
-0.124046
-0.121358
-0.119256
-0.117482
-0.115274
-0.110663
-0.102963
-0.106669
-0.122371
-0.126208
-0.124711
-0.10886
0.165227
1.66758
4.52124
9.46538
17.1251
27.3182
39.9633
55.4919
74.0549
93.2174
110.253
128.311
146.908
165.706
184.594
203.319
221.614
239.241
255.921
271.461
285.657
298.368
309.452
318.729
-0.227602
-0.223922
-0.218174
-0.210178
-0.202349
-0.195535
-0.189892
-0.185323
-0.181687
-0.178815
-0.176497
-0.174436
-0.172085
-0.168501
-0.164465
-0.165198
-0.169683
-0.171698
-0.169874
-0.158907
-0.142786
-0.151016
-0.175344
-0.15839
0.143993
1.69248
5.25074
12.1799
24.5122
40.9165
57.6305
77.4712
97.3294
116.895
136.662
156.359
175.681
194.399
212.169
228.839
244.181
258.057
270.321
280.859
-0.277335
-0.275798
-0.272053
-0.265812
-0.259019
-0.252709
-0.247296
-0.242849
-0.239282
-0.236434
-0.234102
-0.232047
-0.229936
-0.227389
-0.22498
-0.225001
-0.226535
-0.227149
-0.22557
-0.221208
-0.222654
-0.231593
-0.235946
-0.22303
-0.200271
-0.199328
-0.226475
-0.194683
1.44464
5.90812
13.7809
28.053
46.4055
67.1009
88.0821
108.83
129.343
149.352
168.349
186.282
202.865
218.017
231.626
243.739
-0.330106
-0.328761
-0.325521
-0.32035
-0.31466
-0.309197
-0.304329
-0.300188
-0.29676
-0.293947
-0.291606
-0.289575
-0.287671
-0.285743
-0.284183
-0.284016
-0.284675
-0.284827
-0.283826
-0.281725
-0.282117
-0.286297
-0.288308
-0.285528
-0.291083
-0.304511
-0.307282
-0.282301
-0.257028
-0.330157
-0.207796
2.34191
9.25027
21.8769
39.4908
61.0063
82.7079
104.071
124.407
143.755
161.685
178.227
193.288
207.132
-0.383854
-0.382607
-0.379638
-0.37526
-0.370483
-0.365809
-0.361525
-0.357775
-0.354588
-0.351917
-0.349674
-0.347756
-0.346065
-0.34455
-0.343445
-0.343189
-0.343447
-0.343503
-0.343025
-0.342067
-0.342156
-0.344245
-0.345933
-0.345887
-0.349513
-0.356348
-0.35824
-0.354387
-0.369779
-0.377747
-0.357907
-0.380329
-0.448292
1.17863
6.88911
19.2087
36.9629
59.2498
80.6416
101.392
120.707
138.688
155.187
170.71
-0.438739
-0.437337
-0.434558
-0.430792
-0.426751
-0.422765
-0.419051
-0.415737
-0.412873
-0.410443
-0.408401
-0.406683
-0.405238
-0.40405
-0.403243
-0.402992
-0.403098
-0.403201
-0.40313
-0.402964
-0.403454
-0.405039
-0.406639
-0.40746
-0.409436
-0.413134
-0.41599
-0.417823
-0.428277
-0.433891
-0.436687
-0.450145
-0.446391
-0.455155
-0.573545
0.826038
6.57625
19.9418
37.9792
59.9944
80.4423
99.7113
117.398
134.248
-0.494606
-0.492942
-0.490278
-0.486979
-0.48354
-0.480159
-0.476985
-0.474122
-0.471623
-0.469492
-0.46771
-0.466243
-0.465062
-0.464163
-0.463605
-0.463448
-0.463581
-0.463819
-0.464081
-0.464444
-0.465291
-0.466794
-0.468449
-0.469935
-0.47209
-0.475291
-0.478523
-0.481435
-0.487811
-0.494546
-0.500528
-0.510451
-0.512111
-0.523412
-0.530149
-0.551435
-0.664979
1.15597
7.77677
22.3698
41.0789
62.1632
80.544
97.9542
-0.551332
-0.549424
-0.546816
-0.543879
-0.540939
-0.538087
-0.535411
-0.532989
-0.530867
-0.529061
-0.527568
-0.526373
-0.52546
-0.524828
-0.524503
-0.524502
-0.52476
-0.525182
-0.525731
-0.526465
-0.527574
-0.529136
-0.530938
-0.532884
-0.535379
-0.538578
-0.542026
-0.545629
-0.551015
-0.557276
-0.563296
-0.571766
-0.578991
-0.588614
-0.592185
-0.60281
-0.612
-0.636384
-0.72076
1.70094
10.0386
26.0914
44.2246
62.7123
-0.608851
-0.606747
-0.604184
-0.601543
-0.599022
-0.596629
-0.594404
-0.592398
-0.590647
-0.589172
-0.587979
-0.587061
-0.586413
-0.586034
-0.585935
-0.586119
-0.586548
-0.587174
-0.58798
-0.589004
-0.590343
-0.592042
-0.594018
-0.596253
-0.598947
-0.602179
-0.605776
-0.609778
-0.614877
-0.620625
-0.626553
-0.633916
-0.641467
-0.650259
-0.658563
-0.667286
-0.670945
-0.680267
-0.686437
-0.697319
-0.685259
2.5213
12.73
27.9303
43.0787
-0.667127
-0.664883
-0.662383
-0.660001
-0.657838
-0.655843
-0.654019
-0.652394
-0.650997
-0.649845
-0.648947
-0.648303
-0.647913
-0.647777
-0.647901
-0.648284
-0.648904
-0.649737
-0.650776
-0.652045
-0.653598
-0.655462
-0.657612
-0.660053
-0.662886
-0.666161
-0.66983
-0.673943
-0.678787
-0.684151
-0.68985
-0.696331
-0.7031
-0.710695
-0.718721
-0.726885
-0.733928
-0.740195
-0.741148
-0.744453
-0.742617
-0.729577
-0.350306
3.57207
13.1081
-0.726137
-0.723814
-0.721406
-0.719264
-0.717413
-0.715762
-0.714292
-0.713013
-0.711942
-0.711095
-0.710478
-0.710097
-0.709954
-0.710052
-0.710394
-0.71098
-0.711797
-0.712834
-0.714086
-0.71557
-0.717317
-0.719347
-0.721658
-0.724261
-0.727206
-0.730525
-0.734206
-0.738281
-0.742862
-0.747853
-0.753161
-0.758917
-0.764893
-0.771261
-0.777818
-0.784528
-0.790967
-0.796561
-0.800067
-0.8021
-0.801584
-0.795327
-0.776132
-0.785107
-0.0502289
-0.78586
-0.783525
-0.78124
-0.779329
-0.777753
-0.776403
-0.775243
-0.774272
-0.773498
-0.77293
-0.772576
-0.772441
-0.772531
-0.77285
-0.773403
-0.774189
-0.775201
-0.776432
-0.777881
-0.779557
-0.78148
-0.783665
-0.786118
-0.788847
-0.791878
-0.795224
-0.798879
-0.802851
-0.807172
-0.811783
-0.816617
-0.821694
-0.826891
-0.832217
-0.837518
-0.84274
-0.847669
-0.852139
-0.855647
-0.857883
-0.85915
-0.859707
-0.863743
-0.845972
-0.842948
-0.84628
-0.843998
-0.841867
-0.840178
-0.838851
-0.837764
-0.836876
-0.836178
-0.835668
-0.835353
-0.835239
-0.835331
-0.835639
-0.836167
-0.836919
-0.837896
-0.839093
-0.840506
-0.842134
-0.843983
-0.846066
-0.848392
-0.850966
-0.853794
-0.856882
-0.860233
-0.863832
-0.867668
-0.87173
-0.875962
-0.880305
-0.884732
-0.889164
-0.893564
-0.897829
-0.901889
-0.905623
-0.908993
-0.911841
-0.91414
-0.916037
-0.917955
-0.922024
-0.920167
-0.927036
-0.907377
-0.905211
-0.903258
-0.901787
-0.900686
-0.899833
-0.899184
-0.898723
-0.898448
-0.898359
-0.898461
-0.898763
-0.899271
-0.899993
-0.900931
-0.902086
-0.903455
-0.905034
-0.906824
-0.908828
-0.911054
-0.913504
-0.916182
-0.919085
-0.92221
-0.925543
-0.929064
-0.932743
-0.936545
-0.94041
-0.944274
-0.948091
-0.951802
-0.955366
-0.958726
-0.961842
-0.964679
-0.96726
-0.969606
-0.971862
-0.974229
-0.976962
-0.981128
-0.986259
-0.995663
-0.969128
-0.967133
-0.965378
-0.96412
-0.963228
-0.962583
-0.962144
-0.961892
-0.961823
-0.961935
-0.962233
-0.962725
-0.963418
-0.964318
-0.965428
-0.966747
-0.968272
-0.970002
-0.971936
-0.974076
-0.976426
-0.978985
-0.981749
-0.984709
-0.987851
-0.991151
-0.994578
-0.99809
-1.00164
-1.00515
-1.00856
-1.01181
-1.01487
-1.01768
-1.02025
-1.02256
-1.02467
-1.02666
-1.02866
-1.03089
-1.03364
-1.03721
-1.04222
-1.04902
-1.05973
-1.0315
-1.02973
-1.02818
-1.02714
-1.02644
-1.02598
-1.02573
-1.02566
-1.02577
-1.02606
-1.02654
-1.0272
-1.02806
-1.02913
-1.03039
-1.03186
-1.03353
-1.0354
-1.03746
-1.03972
-1.04217
-1.04482
-1.04765
-1.05065
-1.0538
-1.05705
-1.06038
-1.06372
-1.06702
-1.0702
-1.07319
-1.07594
-1.07839
-1.08055
-1.08242
-1.08404
-1.08553
-1.08702
-1.08872
-1.09091
-1.09391
-1.09804
-1.10377
-1.11135
-1.12193
-1.09448
-1.09295
-1.09163
-1.09079
-1.09027
-1.08999
-1.0899
-1.09
-1.09027
-1.09072
-1.09135
-1.09217
-1.09319
-1.0944
-1.09581
-1.09741
-1.09921
-1.1012
-1.10337
-1.10573
-1.10828
-1.111
-1.11388
-1.11691
-1.12004
-1.12325
-1.12647
-1.12965
-1.13272
-1.13559
-1.1382
-1.14048
-1.14242
-1.14399
-1.14525
-1.14627
-1.1472
-1.14825
-1.14965
-1.15172
-1.15479
-1.1592
-1.16531
-1.17343
-1.18401
-1.15801
-1.15675
-1.15567
-1.15504
-1.15469
-1.15457
-1.15463
-1.15487
-1.15529
-1.15589
-1.15666
-1.15762
-1.15877
-1.16012
-1.16165
-1.16338
-1.16529
-1.16738
-1.16966
-1.17211
-1.17473
-1.17751
-1.18043
-1.18347
-1.18658
-1.18974
-1.19286
-1.19589
-1.19874
-1.20134
-1.2036
-1.20548
-1.20695
-1.20801
-1.20873
-1.20922
-1.20965
-1.21026
-1.21134
-1.2132
-1.21617
-1.22059
-1.22678
-1.23502
-1.24558
-1.22207
-1.2211
-1.22026
-1.21982
-1.21965
-1.21967
-1.21988
-1.22026
-1.22081
-1.22154
-1.22244
-1.22353
-1.2248
-1.22626
-1.22791
-1.22974
-1.23175
-1.23394
-1.2363
-1.23882
-1.24151
-1.24433
-1.24728
-1.25032
-1.25342
-1.25652
-1.25955
-1.26244
-1.2651
-1.26746
-1.26942
-1.27094
-1.272
-1.27262
-1.27286
-1.27286
-1.27283
-1.27301
-1.27371
-1.27526
-1.27798
-1.28218
-1.28813
-1.29609
-1.30626
-1.28664
-1.28594
-1.28535
-1.28512
-1.28511
-1.28528
-1.28562
-1.28613
-1.2868
-1.28765
-1.28867
-1.28987
-1.29125
-1.29281
-1.29455
-1.29647
-1.29857
-1.30084
-1.30327
-1.30586
-1.30859
-1.31145
-1.31442
-1.31746
-1.32054
-1.32358
-1.32653
-1.32931
-1.33181
-1.33396
-1.33567
-1.33689
-1.33759
-1.33781
-1.33763
-1.33718
-1.3367
-1.33644
-1.33672
-1.33787
-1.34019
-1.34397
-1.34942
-1.35676
-1.36614
-1.35167
-1.35126
-1.35092
-1.35088
-1.35103
-1.35134
-1.35182
-1.35245
-1.35324
-1.35419
-1.35532
-1.35662
-1.35809
-1.35975
-1.36157
-1.36357
-1.36574
-1.36807
-1.37056
-1.3732
-1.37597
-1.37886
-1.38184
-1.38488
-1.38793
-1.39094
-1.39382
-1.3965
-1.39888
-1.40086
-1.40235
-1.40332
-1.40372
-1.40359
-1.40302
-1.40216
-1.40124
-1.40052
-1.40034
-1.40099
-1.40278
-1.40597
-1.41073
-1.41719
-1.42549
-1.41716
-1.41702
-1.41692
-1.41708
-1.41739
-1.41785
-1.41845
-1.4192
-1.4201
-1.42115
-1.42237
-1.42376
-1.42532
-1.42705
-1.42895
-1.43101
-1.43324
-1.43562
-1.43815
-1.44083
-1.44363
-1.44654
-1.44953
-1.45257
-1.45561
-1.45858
-1.46141
-1.46402
-1.46629
-1.46814
-1.46947
-1.47022
-1.47036
-1.46993
-1.46901
-1.46776
-1.46641
-1.46523
-1.46454
-1.46464
-1.4658
-1.46827
-1.47217
-1.47761
-1.48466
-1.48312
-1.48321
-1.48336
-1.48371
-1.48418
-1.48477
-1.48549
-1.48635
-1.48736
-1.48851
-1.48981
-1.49128
-1.49291
-1.4947
-1.49666
-1.49877
-1.50105
-1.50347
-1.50603
-1.50873
-1.51156
-1.51448
-1.51749
-1.52053
-1.52356
-1.52651
-1.52931
-1.53186
-1.53407
-1.53581
-1.53701
-1.53759
-1.53751
-1.53681
-1.53557
-1.53396
-1.53219
-1.53055
-1.52933
-1.52883
-1.52932
-1.53098
-1.53394
-1.53828
-1.54404
-1.54954
-1.54983
-1.55021
-1.55074
-1.55136
-1.55209
-1.55294
-1.55391
-1.55501
-1.55624
-1.55762
-1.55916
-1.56085
-1.56269
-1.56469
-1.56685
-1.56916
-1.57161
-1.5742
-1.57691
-1.57975
-1.58269
-1.5857
-1.58874
-1.59177
-1.59472
-1.59751
-1.60003
-1.60219
-1.60387
-1.60497
-1.60541
-1.60515
-1.60422
-1.6027
-1.60075
-1.59858
-1.59647
-1.59472
-1.59361
-1.59338
-1.59422
-1.59624
-1.59948
-1.60404
-1.6164
-1.61687
-1.61746
-1.61817
-1.61895
-1.61982
-1.62078
-1.62185
-1.62303
-1.62435
-1.6258
-1.62739
-1.62913
-1.63101
-1.63305
-1.63523
-1.63756
-1.64003
-1.64263
-1.64536
-1.6482
-1.65114
-1.65416
-1.65721
-1.66025
-1.66321
-1.666
-1.66852
-1.67065
-1.67229
-1.67332
-1.67367
-1.67327
-1.67216
-1.67039
-1.66813
-1.66559
-1.66302
-1.66073
-1.659
-1.65807
-1.65811
-1.65922
-1.66149
-1.66504
-1.68369
-1.68432
-1.68513
-1.68601
-1.68694
-1.68793
-1.689
-1.69017
-1.69144
-1.69282
-1.69433
-1.69597
-1.69775
-1.69966
-1.70172
-1.70392
-1.70626
-1.70873
-1.71134
-1.71407
-1.71691
-1.71986
-1.72288
-1.72594
-1.72899
-1.73196
-1.73477
-1.7373
-1.73944
-1.74107
-1.74207
-1.74235
-1.74186
-1.7406
-1.73864
-1.73611
-1.73321
-1.73021
-1.72739
-1.72504
-1.72341
-1.7227
-1.72303
-1.7245
-1.72734
-1.75142
-1.7522
-1.7532
-1.75426
-1.75533
-1.75644
-1.75762
-1.75887
-1.76022
-1.76166
-1.76322
-1.7649
-1.76671
-1.76864
-1.77071
-1.77292
-1.77525
-1.77772
-1.78031
-1.78304
-1.78588
-1.78883
-1.79186
-1.79493
-1.79799
-1.80098
-1.80381
-1.80636
-1.80853
-1.81018
-1.81119
-1.81146
-1.81092
-1.80956
-1.80744
-1.80466
-1.80144
-1.79801
-1.79468
-1.79173
-1.78945
-1.78807
-1.78773
-1.78862
-1.79111
-1.81962
-1.82054
-1.82171
-1.82292
-1.82412
-1.82535
-1.82662
-1.82796
-1.82938
-1.83088
-1.83248
-1.83419
-1.83601
-1.83796
-1.84003
-1.84222
-1.84454
-1.84699
-1.84957
-1.85228
-1.85511
-1.85805
-1.86109
-1.86417
-1.86725
-1.87026
-1.87312
-1.87571
-1.87792
-1.87963
-1.88069
-1.88099
-1.88045
-1.87903
-1.87678
-1.87379
-1.87025
-1.86642
-1.86257
-1.85906
-1.85618
-1.85421
-1.85335
-1.8539
-1.85644
-1.88831
-1.88935
-1.89066
-1.892
-1.89332
-1.89465
-1.89602
-1.89744
-1.89892
-1.90047
-1.90211
-1.90384
-1.90567
-1.90761
-1.90967
-1.91184
-1.91414
-1.91655
-1.9191
-1.92179
-1.9246
-1.92754
-1.93057
-1.93367
-1.93677
-1.9398
-1.9427
-1.94534
-1.94763
-1.94941
-1.95056
-1.95093
-1.95043
-1.949
-1.94665
-1.94347
-1.93963
-1.93539
-1.93106
-1.927
-1.92358
-1.92113
-1.91986
-1.92023
-1.9232
-1.95751
-1.95864
-1.96007
-1.96153
-1.96295
-1.96438
-1.96583
-1.96732
-1.96885
-1.97045
-1.97211
-1.97385
-1.97569
-1.97762
-1.97965
-1.98179
-1.98405
-1.98643
-1.98894
-1.99159
-1.99438
-1.9973
-2.00033
-2.00342
-2.00653
-2.0096
-2.01253
-2.01524
-2.0176
-2.01949
-2.02074
-2.02122
-2.0208
-2.01939
-2.01699
-2.01366
-2.00956
-2.00495
-2.00018
-1.99565
-1.99179
-1.98899
-1.98748
-1.98789
-1.99197
-2.02723
-2.02844
-2.02997
-2.03152
-2.03303
-2.03454
-2.03606
-2.03761
-2.03919
-2.04083
-2.04251
-2.04426
-2.04608
-2.04798
-2.04998
-2.05208
-2.05429
-2.05663
-2.05909
-2.0617
-2.06445
-2.06735
-2.07035
-2.07343
-2.07653
-2.0796
-2.08256
-2.0853
-2.08772
-2.08967
-2.09101
-2.09159
-2.09126
-2.08993
-2.08755
-2.08418
-2.07996
-2.07515
-2.07014
-2.06536
-2.06134
-2.05854
-2.05723
-2.05844
-2.06349
-2.09752
-2.09878
-2.10038
-2.102
-2.10359
-2.10516
-2.10674
-2.10834
-2.10996
-2.11162
-2.11332
-2.11506
-2.11687
-2.11874
-2.1207
-2.12275
-2.12491
-2.12719
-2.12961
-2.13216
)
;

boundaryField
{
    leftWall
    {
        type            calculated;
        value           nonuniform List<scalar> 
44
(
447.243
400.081
351.955
303.66
255.676
208.03
160.566
113.152
65.639
22.3593
1.50534
-0.141126
-0.172615
-0.227602
-0.277335
-0.330106
-0.383854
-0.438739
-0.494606
-0.551332
-0.608851
-0.667127
-0.726137
-0.78586
-0.84628
-0.907377
-0.969128
-1.0315
-1.09448
-1.15801
-1.22207
-1.28664
-1.35167
-1.41716
-1.48312
-1.54954
-1.6164
-1.68369
-1.75142
-1.81962
-1.88831
-1.95751
-2.02723
-2.09752
)
;
    }
    rightWall
    {
        type            calculated;
        value           nonuniform 0();
    }
    lowerWall
    {
        type            calculated;
        value           nonuniform List<scalar> 
44
(
470.786
469.372
469.417
471.223
474.547
478.731
483.295
488.035
492.905
497.93
503.175
508.705
514.581
520.853
527.559
534.73
542.387
550.544
559.209
568.384
578.064
588.244
598.912
610.055
621.66
633.7
646.176
659.038
672.259
685.811
699.659
713.757
728.049
742.45
756.842
771.055
784.859
798.013
810.14
820.521
829.036
836.439
842.612
849.793
)
;
    }
    atmosphere
    {
        type            calculated;
        value           nonuniform 0();
    }
    defaultFaces
    {
        type            empty;
    }
    procBoundary0to1
    {
        type            processor;
        value           nonuniform List<scalar> 
44
(
834.203
781.085
730.383
683.646
641.401
601.545
563.229
525.709
488.468
450.724
404.531
364.187
326.016
289.462
254.388
220.116
185.877
151.085
115.437
79.2931
79.2931
59.041
21.7591
2.36518
-1.02214
-0.910254
-0.987476
-1.0695
-1.13519
-1.19712
-1.25857
-1.31881
-1.37769
-1.43571
-1.49339
-1.5513
-1.61
-1.67002
-1.73176
-1.7955
-1.8614
-1.9297
-1.99994
-2.07197
)
;
    }
    procBoundary0to2
    {
        type            processor;
        value           nonuniform List<scalar> 
46
(
-2.13486
-2.1377
-2.14065
-2.14368
-2.14673
-2.14976
-2.15268
-2.15539
-2.1578
-2.15975
-2.16112
-2.16174
-2.1615
-2.16028
-2.15803
-2.15478
-2.15069
-2.14601
-2.14113
-2.13651
-2.13273
-2.13038
-2.13019
-2.13218
-2.137
-2.16839
-2.16968
-2.17133
-2.17302
-2.17465
-2.17627
-2.17789
-2.17953
-2.18118
-2.18285
-2.18455
-2.18629
-2.18807
-2.18992
-2.19184
-2.19384
-2.19595
-2.19817
-2.20053
-2.13486
-2.20302
)
;
    }
}


// ************************************************************************* //
