/*--------------------------------*- C++ -*----------------------------------*\
| =========                 |                                                 |
| \\      /  F ield         | OpenFOAM: The Open Source CFD Toolbox           |
|  \\    /   O peration     | Version:  5.0                                   |
|   \\  /    A nd           | Web:      www.OpenFOAM.org                      |
|    \\/     M anipulation  |                                                 |
\*---------------------------------------------------------------------------*/
FoamFile
{
    version     2.0;
    format      ascii;
    class       volScalarField;
    location    "0.65";
    object      p_rgh;
}
// * * * * * * * * * * * * * * * * * * * * * * * * * * * * * * * * * * * * * //

dimensions      [1 -1 -2 0 0 0 0];

internalField   nonuniform List<scalar> 
1935
(
470.786
469.372
469.417
471.223
474.547
478.731
483.295
488.035
492.905
497.93
503.175
508.705
514.581
520.853
527.559
534.73
542.387
550.544
559.209
568.384
578.064
588.244
598.912
610.055
621.66
633.7
646.176
659.038
672.259
685.811
699.659
713.757
728.049
742.45
756.842
771.055
784.859
798.013
810.14
820.521
829.036
836.439
842.612
849.793
470.712
468.922
468.432
469.808
472.753
476.524
480.774
485.318
490.092
495.099
500.383
505.996
511.986
518.396
525.259
532.599
540.435
548.779
557.637
567.009
576.89
587.272
598.144
609.493
621.303
633.572
646.268
659.376
672.879
686.749
700.954
715.453
730.189
745.08
760.002
774.768
789.118
802.712
815.186
825.981
832.818
837.824
842.015
845.259
469.673
468.215
468.101
469.325
471.708
474.913
478.682
482.861
487.381
492.237
497.452
503.06
509.1
515.601
522.588
530.08
538.089
546.626
555.692
565.286
575.399
586.022
597.143
608.75
620.828
633.369
646.354
659.771
673.602
687.822
702.397
717.282
732.415
747.698
762.991
778.088
792.701
806.445
818.892
829.721
837.823
840.406
841.279
842.748
468.464
467.512
467.973
469.19
471.225
473.968
477.277
481.05
485.246
489.86
494.912
500.429
506.436
512.956
520.004
527.592
535.728
544.418
553.661
563.452
573.779
584.63
595.992
607.851
620.194
633.007
646.275
659.984
674.116
688.641
703.523
718.709
734.123
749.655
765.147
780.378
795.05
808.773
821.095
831.606
839.559
844.011
842.869
843.553
467.568
467.317
468.186
469.385
471.136
473.476
476.343
479.697
483.527
487.848
492.679
498.044
503.964
510.45
517.51
525.148
533.369
542.175
551.563
561.524
572.04
583.096
594.678
606.772
619.364
632.436
645.971
659.952
674.357
689.155
704.3
719.733
735.367
751.078
766.699
782.002
796.692
810.392
822.666
833.08
841.067
846.158
848.638
846.724
467.009
467.566
468.671
469.77
471.224
473.161
475.581
478.497
481.935
485.929
490.507
495.689
501.49
507.915
514.959
522.62
530.901
539.801
549.317
559.432
570.123
581.369
593.157
605.476
618.308
631.63
645.423
659.666
674.337
689.398
704.795
720.464
736.31
752.199
767.959
783.362
798.119
811.878
824.235
834.78
843.077
848.873
852.858
855.637
466.632
467.902
469.125
470.094
471.247
472.777
474.745
477.21
480.239
483.89
488.2
493.188
498.863
505.221
512.241
519.913
528.24
537.224
546.86
557.127
567.984
579.408
591.393
603.932
617.003
630.575
644.622
659.123
674.06
689.389
705.044
720.963
737.042
753.144
769.092
784.661
799.574
813.505
826.086
836.953
845.77
852.406
857.398
862.125
466.304
467.965
469.205
470.03
470.896
472.037
473.559
475.567
478.176
481.48
485.525
490.329
495.895
502.212
509.228
516.921
525.304
534.38
544.147
554.576
565.6
577.19
589.359
602.114
615.429
629.252
643.552
658.311
673.525
689.14
705.068
721.262
737.614
753.982
770.187
786.01
801.186
815.413
828.362
839.714
849.211
856.782
862.848
868.927
465.878
467.515
468.674
469.354
469.953
470.722
471.788
473.312
475.486
478.447
482.244
486.879
492.363
498.681
505.729
513.468
521.935
531.144
541.098
551.749
562.97
574.72
587.056
600.023
613.589
627.662
642.205
657.215
672.723
688.652
704.872
721.378
738.056
754.755
771.302
787.479
803.034
817.687
831.141
843.121
853.419
861.982
869.074
876.191
395.259
396.657
402.028
404.887
404.552
404.503
406.209
411.076
420.246
433.552
449.431
465.77
480.838
493.284
501.998
509.631
518.074
527.359
537.534
548.525
560.025
571.959
584.485
597.707
611.566
625.888
640.637
655.856
671.659
687.934
704.454
721.314
738.378
755.485
772.463
789.101
805.154
820.36
834.447
847.171
858.357
867.958
876.114
884.028
36.4321
49.0275
60.5648
65.1503
65.7281
66.1202
67.842
72.5862
82.2457
98.5675
122.709
155.634
198.802
253.671
318.355
376.078
429.495
476.611
514.69
541.3
556.286
568.347
581.194
594.884
609.288
623.984
638.958
654.326
670.403
687.032
703.819
721.061
738.575
756.17
773.68
790.891
807.564
823.449
838.288
851.855
863.978
874.576
883.662
891.551
0.401862
0.431317
0.416959
0.43053
0.44979
0.460853
0.466934
0.469852
0.470747
0.47046
0.469595
0.468577
0.468081
0.470448
1.86505
21.7256
54.4751
101.97
170.078
262.553
367.271
455.744
526.542
578.036
605.332
620.901
636.574
652.301
668.896
686.067
703.021
720.623
738.628
756.791
774.938
792.841
810.26
826.952
842.658
857.166
870.293
881.926
891.977
900.352
0.418975
0.423855
0.430866
0.439921
0.448314
0.454793
0.459935
0.464129
0.467522
0.470206
0.472308
0.474085
0.476297
0.480913
0.488613
0.484905
0.469198
0.465356
0.466853
0.482716
5.56691
38.7859
102.063
207.543
356.245
498.778
606.007
647.081
665.644
684.807
701.842
719.901
738.497
757.296
776.184
794.909
813.203
830.83
847.511
863.05
877.246
889.958
901.041
910.318
0.413039
0.416719
0.422467
0.430463
0.43829
0.4451
0.450736
0.455298
0.458927
0.461795
0.464113
0.466177
0.468532
0.472118
0.476153
0.475411
0.470906
0.468863
0.470653
0.481588
0.497683
0.489444
0.465296
0.483034
5.49313
35.8136
111.862
267.478
484.857
681.558
698.272
718.112
737.971
757.536
777.303
797.001
816.323
835.04
852.81
869.481
884.822
898.698
910.963
921.5
0.412813
0.41435
0.418095
0.424336
0.431128
0.437434
0.442842
0.447284
0.450846
0.453691
0.456023
0.45808
0.460193
0.462741
0.465144
0.465108
0.463544
0.462882
0.464396
0.468677
0.467138
0.458103
0.453751
0.467119
0.489991
0.491976
0.468681
0.516807
37.0247
152.962
346.395
610.387
736.554
757.25
778.231
798.978
819.492
839.501
858.498
876.431
893.013
908.166
921.775
933.887
0.41001
0.411355
0.414594
0.419766
0.425455
0.430916
0.435782
0.43992
0.443346
0.446158
0.448498
0.45053
0.452435
0.454362
0.455915
0.456065
0.455375
0.45517
0.456095
0.458093
0.457572
0.453234
0.45104
0.453683
0.449031
0.435583
0.432824
0.458087
0.486817
0.425309
2.36433
82.4953
310.58
612.728
779.606
801.122
822.823
844.187
864.522
883.871
901.8
918.343
933.403
947.248
0.406692
0.40794
0.410908
0.415286
0.420063
0.424737
0.42902
0.432769
0.435956
0.438627
0.44087
0.442788
0.444479
0.445992
0.447092
0.447335
0.447052
0.446955
0.44737
0.448238
0.448029
0.445784
0.443897
0.443709
0.439902
0.433115
0.432236
0.436155
0.420801
0.413086
0.43371
0.42273
0.467915
65.6974
299.373
656.935
827.509
849.796
871.188
891.939
911.253
929.235
945.733
961.257
0.402707
0.404108
0.406887
0.410654
0.414695
0.418681
0.422395
0.425708
0.428572
0.431002
0.433045
0.434762
0.436207
0.437394
0.438198
0.438442
0.438322
0.438195
0.438227
0.438338
0.437769
0.436077
0.434336
0.433333
0.431138
0.427216
0.424242
0.422569
0.413168
0.407555
0.404741
0.391566
0.396024
0.397488
0.309769
74.0617
334.866
743.024
879.424
901.44
921.888
941.157
958.843
975.694
0.398211
0.399875
0.402539
0.405838
0.409277
0.412658
0.415832
0.418695
0.421195
0.423325
0.425108
0.426575
0.427755
0.428654
0.429211
0.429364
0.429226
0.428977
0.428699
0.42831
0.427427
0.425873
0.424148
0.422567
0.420286
0.416928
0.413516
0.410469
0.404185
0.397702
0.392267
0.382366
0.380708
0.369657
0.363559
0.35239
0.265142
103.509
391.21
825.101
933.896
954.981
973.361
990.772
0.393334
0.395242
0.39785
0.400787
0.403727
0.406579
0.409255
0.411677
0.413799
0.415605
0.417098
0.418293
0.419206
0.419838
0.420163
0.420163
0.419904
0.419478
0.418924
0.418182
0.417061
0.415482
0.413655
0.411672
0.409125
0.405854
0.40231
0.398592
0.393111
0.386835
0.380923
0.372731
0.365675
0.356056
0.352482
0.3421
0.333375
0.318839
0.253073
119.694
448.383
915.468
988.89
1007.38
0.388146
0.390249
0.392812
0.395453
0.397974
0.400367
0.402592
0.404599
0.406349
0.407824
0.409017
0.409935
0.410584
0.410963
0.411061
0.410877
0.410448
0.409821
0.409014
0.407989
0.406646
0.404944
0.402962
0.400715
0.398004
0.394746
0.391108
0.387051
0.381884
0.376076
0.370121
0.362813
0.355373
0.346737
0.338433
0.329714
0.326049
0.316931
0.310988
0.306465
1.87478
129.687
525.996
1002.72
1040.08
0.382685
0.384929
0.38743
0.389811
0.391974
0.393969
0.395793
0.397418
0.398815
0.399967
0.400865
0.401509
0.401899
0.402035
0.401911
0.401528
0.400908
0.400075
0.399036
0.397766
0.396213
0.394349
0.392198
0.389754
0.386917
0.383634
0.379952
0.375818
0.370943
0.36554
0.359803
0.353307
0.346557
0.339018
0.331037
0.322927
0.315884
0.309617
0.308669
0.305469
0.307469
0.323539
12.0715
176.533
709.029
0.376981
0.379304
0.381713
0.383854
0.385706
0.387356
0.388827
0.390106
0.391176
0.392024
0.39264
0.393021
0.393164
0.393067
0.392725
0.392139
0.391321
0.390285
0.389033
0.387548
0.385801
0.383771
0.38146
0.378857
0.375911
0.37259
0.368904
0.364823
0.36023
0.355221
0.349891
0.344114
0.338127
0.331763
0.325219
0.318539
0.31213
0.306557
0.303051
0.301017
0.301538
0.307839
0.327391
0.320867
40.3215
0.371059
0.373395
0.37568
0.377591
0.379167
0.380517
0.381677
0.382648
0.383422
0.38399
0.384344
0.384479
0.384389
0.384069
0.383517
0.382731
0.381719
0.380488
0.379039
0.377363
0.375439
0.373254
0.370802
0.368072
0.365041
0.361695
0.358038
0.354064
0.349739
0.345121
0.340276
0.335186
0.329976
0.32464
0.319335
0.314117
0.309202
0.304751
0.301265
0.299037
0.29777
0.297212
0.293181
0.310987
0.31518
0.364941
0.367222
0.369354
0.371043
0.37237
0.373456
0.374344
0.375043
0.375552
0.375867
0.375982
0.375889
0.375582
0.375054
0.374302
0.373325
0.372128
0.370715
0.369087
0.367237
0.365155
0.362829
0.360255
0.357427
0.354338
0.350987
0.347387
0.34355
0.339488
0.335252
0.330904
0.326471
0.32203
0.317621
0.313347
0.309282
0.305548
0.302183
0.299347
0.297064
0.295181
0.293266
0.289197
0.291053
0.284205
0.358649
0.360815
0.362768
0.364239
0.36534
0.366193
0.366842
0.367302
0.367578
0.367667
0.367564
0.367263
0.366754
0.366033
0.365094
0.36394
0.362571
0.360992
0.359202
0.357197
0.354972
0.352521
0.349844
0.34694
0.343816
0.340483
0.336962
0.333282
0.329479
0.325613
0.321747
0.317926
0.314211
0.310641
0.307274
0.304151
0.301309
0.298726
0.296382
0.294133
0.291777
0.289055
0.284897
0.279767
0.270363
0.352212
0.354207
0.355962
0.357219
0.358112
0.358756
0.359196
0.359447
0.359517
0.359405
0.359106
0.358615
0.357922
0.357021
0.355911
0.354592
0.353067
0.351338
0.349404
0.347263
0.344913
0.342354
0.33959
0.33663
0.333489
0.330188
0.326762
0.323249
0.319704
0.316191
0.312778
0.309521
0.306468
0.303647
0.30108
0.298759
0.296647
0.294655
0.29265
0.290415
0.28767
0.284107
0.279107
0.272313
0.261606
0.345662
0.347441
0.348982
0.35003
0.350729
0.351186
0.351439
0.351507
0.351395
0.351104
0.35063
0.349966
0.349104
0.34804
0.346773
0.345305
0.343637
0.341772
0.33971
0.337451
0.334996
0.332347
0.329514
0.326514
0.323369
0.320113
0.316787
0.313444
0.310146
0.306966
0.303975
0.301229
0.29877
0.296611
0.294743
0.293115
0.291629
0.290133
0.288423
0.286231
0.283237
0.279103
0.273386
0.265805
0.255236
0.339036
0.340565
0.34188
0.342722
0.343238
0.343524
0.343611
0.343515
0.343241
0.34279
0.342158
0.341339
0.340325
0.339113
0.337704
0.3361
0.334303
0.332317
0.330142
0.327781
0.325236
0.322514
0.319631
0.316605
0.313469
0.310262
0.307038
0.303859
0.300795
0.297923
0.295315
0.293029
0.291097
0.289521
0.288264
0.28724
0.286305
0.285259
0.283851
0.281779
0.278708
0.274301
0.268185
0.260072
0.2495
0.33237
0.333629
0.334708
0.335347
0.33569
0.335816
0.335752
0.335507
0.335088
0.334493
0.333718
0.332758
0.331608
0.330265
0.328729
0.327004
0.325093
0.322998
0.320724
0.318273
0.315653
0.312875
0.309954
0.306916
0.303797
0.300644
0.297519
0.294492
0.291641
0.289046
0.286781
0.284902
0.283435
0.28237
0.281652
0.281165
0.28073
0.280115
0.279037
0.277178
0.274201
0.269784
0.263596
0.255353
0.244791
0.325704
0.326682
0.327518
0.327955
0.32813
0.328106
0.327899
0.327518
0.326965
0.32624
0.325336
0.324251
0.322978
0.321519
0.319872
0.318041
0.31603
0.313841
0.311481
0.308955
0.306273
0.303448
0.3005
0.297458
0.294362
0.291263
0.28823
0.285339
0.282675
0.280323
0.278358
0.276835
0.275775
0.27516
0.274919
0.274917
0.274952
0.274767
0.274063
0.272513
0.269789
0.265592
0.259639
0.251681
0.241509
0.319072
0.319767
0.320356
0.320592
0.320603
0.320433
0.320091
0.319581
0.318905
0.31806
0.31704
0.315841
0.314461
0.312899
0.311156
0.309234
0.307137
0.30487
0.302438
0.29985
0.297117
0.294255
0.291287
0.288246
0.285173
0.282126
0.279174
0.276401
0.273895
0.271748
0.270038
0.26882
0.268114
0.267894
0.26808
0.268524
0.26901
0.269267
0.268986
0.26784
0.265516
0.26174
0.256283
0.248945
0.239563
0.312505
0.312921
0.31326
0.313298
0.313146
0.312833
0.312361
0.31173
0.310938
0.309982
0.308856
0.307557
0.306082
0.304431
0.302604
0.300605
0.298437
0.296105
0.293616
0.290979
0.288206
0.285316
0.282334
0.279293
0.276241
0.273238
0.270354
0.267677
0.265301
0.263321
0.261822
0.260861
0.260459
0.260587
0.261158
0.262017
0.262941
0.263652
0.263841
0.263187
0.261391
0.258206
0.253449
0.246979
0.23868
0.306022
0.30617
0.306263
0.306106
0.305794
0.305339
0.30474
0.303992
0.303091
0.302034
0.300813
0.299425
0.297867
0.296139
0.294241
0.292177
0.289951
0.287568
0.285034
0.282361
0.279559
0.276647
0.273653
0.270613
0.267576
0.264604
0.261772
0.259169
0.256893
0.255046
0.253717
0.252969
0.252825
0.253259
0.25418
0.255428
0.256779
0.257955
0.258647
0.25855
0.257382
0.25492
0.251013
0.245573
0.238526
0.299626
0.299534
0.299385
0.29904
0.29857
0.297976
0.297252
0.296392
0.29539
0.294238
0.292932
0.291466
0.289837
0.288045
0.286089
0.283972
0.2817
0.279277
0.276711
0.274011
0.271188
0.268262
0.265259
0.262217
0.259187
0.256233
0.253434
0.250881
0.248678
0.246931
0.245734
0.245159
0.245234
0.245934
0.247172
0.248787
0.250554
0.252197
0.253414
0.253912
0.25343
0.251769
0.248803
0.244468
0.238708
0.293321
0.293025
0.292647
0.292119
0.291493
0.290762
0.289917
0.28895
0.287852
0.286616
0.285234
0.2837
0.282012
0.280166
0.278163
0.276007
0.2737
0.271249
0.268661
0.265943
0.263107
0.260171
0.257161
0.254114
0.251083
0.248134
0.245348
0.242823
0.240665
0.238987
0.23789
0.23745
0.237703
0.238633
0.240153
0.242108
0.244275
0.246383
0.248136
0.249249
0.249475
0.248634
0.246621
0.243376
0.238819
0.287127
0.286661
0.286063
0.285355
0.284575
0.283711
0.282749
0.28168
0.280493
0.279179
0.27773
0.276139
0.274401
0.272514
0.270477
0.268292
0.265964
0.263497
0.260896
0.258169
0.255325
0.252382
0.249365
0.246312
0.243273
0.240317
0.237529
0.23501
0.232873
0.231235
0.230203
0.229861
0.230253
0.231369
0.233133
0.235395
0.23794
0.240504
0.242794
0.244527
0.245461
0.24542
0.244302
0.242036
0.238485
0.281069
0.280443
0.279634
0.27875
0.277821
0.276828
0.275756
0.27459
0.273321
0.271938
0.27043
0.268791
0.267015
0.265097
0.263037
0.260837
0.258499
0.256026
0.253423
0.250694
0.247848
0.244902
0.241879
0.238816
0.235765
0.232795
0.229993
0.227463
0.225323
0.223694
0.222692
0.222408
0.222896
0.224156
0.22612
0.228653
0.231549
0.234552
0.237373
0.239722
0.241346
0.242055
0.241731
0.240262
0.23742
0.275138
0.274357
0.273357
0.272305
0.271235
0.270121
0.268943
0.267687
0.266343
0.264897
0.263339
0.261661
0.259855
0.257918
0.255848
0.253644
0.251309
0.248842
0.246246
0.243524
0.240682
0.237734
0.234705
0.231632
0.228567
0.225578
0.222753
0.220199
0.218033
0.216383
0.215372
0.215103
0.215641
0.216999
0.219125
0.221896
0.22512
0.228547
0.231885
0.234832
0.23711
0.238495
0.238835
0.237938
0.235453
0.269314
0.268394
0.267225
0.26602
0.264819
0.26359
0.262314
0.260975
0.25956
0.258058
0.256457
0.254749
0.252924
0.250979
0.24891
0.246716
0.244395
0.241947
0.239369
0.236661
0.233828
0.230883
0.22785
0.224766
0.221685
0.218674
0.21582
0.213227
0.211014
0.209311
0.208251
0.20795
0.208491
0.209906
0.212159
0.215145
0.218682
0.222521
0.226361
0.229879
0.232757
0.234727
0.235582
0.235036
0.232498
0.263581
0.262543
0.26123
0.259888
0.258569
0.257236
0.255869
0.254452
0.252974
0.251422
0.249786
0.248055
0.246221
0.244279
0.242223
0.240049
0.237755
0.235336
0.232787
0.230103
0.227287
0.22435
0.221316
0.218223
0.215125
0.212088
0.209195
0.206548
0.204266
0.202481
0.201335
0.20096
0.201459
0.20289
0.205239
0.208419
0.212258
0.216502
0.220833
0.22489
0.22831
0.230766
0.232032
0.231661
0.228689
0.257924
0.256792
0.255358
0.253901
0.252477
0.251051
0.249602
0.248114
0.246578
0.244983
0.243319
0.241575
0.239743
0.237814
0.235782
0.233641
0.231384
0.229004
0.226492
0.223842
0.221053
0.218131
0.215103
0.212008
0.208897
0.205833
0.202897
0.200188
0.197825
0.195944
0.19469
0.194212
0.194635
0.196038
0.198439
0.20177
0.20587
0.21048
0.215252
0.219781
0.223636
0.226442
0.227951
0.227539
0.223461
0.252326
0.251121
0.249593
0.24804
0.246528
0.245022
0.2435
0.24195
0.240364
0.238733
0.237048
0.2353
0.233479
0.231574
0.229576
0.227477
0.225266
0.222932
0.220466
0.217859
0.215106
0.212213
0.209208
0.20613
0.203026
0.199957
0.197001
0.194256
0.191839
0.189887
0.188545
0.187968
0.188296
0.189629
0.192005
0.195378
0.199598
0.204404
0.209423
0.214195
0.21822
0.221022
0.22233
0.221117
0.21607
0.246762
0.245505
0.243905
0.242278
0.240696
0.239125
0.237544
0.235944
0.234318
0.232662
0.230966
0.22922
0.227415
0.22554
0.223582
0.22153
0.219371
0.21709
0.214677
0.212121
)
;

boundaryField
{
    leftWall
    {
        type            fixedFluxPressure;
        gradient        uniform 0;
        value           nonuniform List<scalar> 
44
(
470.786
470.712
469.673
468.464
467.568
467.009
466.632
466.304
465.878
395.259
36.4321
0.401862
0.418975
0.413039
0.412813
0.41001
0.406692
0.402707
0.398211
0.393334
0.388146
0.382685
0.376981
0.371059
0.364941
0.358649
0.352212
0.345662
0.339036
0.33237
0.325704
0.319072
0.312505
0.306022
0.299626
0.293321
0.287127
0.281069
0.275138
0.269314
0.263581
0.257924
0.252326
0.246762
)
;
    }
    rightWall
    {
        type            fixedFluxPressure;
        gradient        nonuniform 0();
        value           nonuniform 0();
    }
    lowerWall
    {
        type            fixedFluxPressure;
        gradient        uniform 0;
        value           nonuniform List<scalar> 
44
(
470.786
469.372
469.417
471.223
474.547
478.731
483.295
488.035
492.905
497.93
503.175
508.705
514.581
520.853
527.559
534.73
542.387
550.544
559.209
568.384
578.064
588.244
598.912
610.055
621.66
633.7
646.176
659.038
672.259
685.811
699.659
713.757
728.049
742.45
756.842
771.055
784.859
798.013
810.14
820.521
829.036
836.439
842.612
849.793
)
;
    }
    atmosphere
    {
        type            totalPressure;
        rho             rho;
        psi             none;
        gamma           1;
        p0              nonuniform 0();
        value           nonuniform 0();
    }
    defaultFaces
    {
        type            empty;
    }
    procBoundary0to1
    {
        type            processor;
        value           nonuniform List<scalar> 
44
(
857.732
850.426
844.558
843.777
852.138
860.501
869.294
878.861
888.708
898.05
899.366
907.175
917.605
930.104
944.537
960.232
976.423
992.531
1008.25
1023.96
1023.96
1056.04
1071.56
321.504
0.148047
0.301168
0.278543
0.251841
0.241976
0.236392
0.231808
0.228968
0.228012
0.228467
0.229791
0.231444
0.232856
0.233505
0.232996
0.231063
0.227538
0.222195
0.215486
0.207584
)
;
    }
    procBoundary0to2
    {
        type            processor;
        value           nonuniform List<scalar> 
46
(
0.209418
0.206579
0.20363
0.200606
0.197551
0.194525
0.191606
0.188889
0.186486
0.184532
0.183167
0.182538
0.182782
0.184004
0.186255
0.189499
0.193591
0.198269
0.203155
0.207771
0.211555
0.213904
0.214095
0.212107
0.20728
0.241223
0.239929
0.238276
0.236592
0.234957
0.233338
0.231715
0.23008
0.228429
0.226757
0.225057
0.223321
0.221537
0.219692
0.217773
0.215766
0.213658
0.211434
0.20908
0.209418
0.206586
)
;
    }
}


// ************************************************************************* //
