/*--------------------------------*- C++ -*----------------------------------*\
| =========                 |                                                 |
| \\      /  F ield         | OpenFOAM: The Open Source CFD Toolbox           |
|  \\    /   O peration     | Version:  5.0                                   |
|   \\  /    A nd           | Web:      www.OpenFOAM.org                      |
|    \\/     M anipulation  |                                                 |
\*---------------------------------------------------------------------------*/
FoamFile
{
    version     2.0;
    format      ascii;
    class       surfaceScalarField;
    location    "0.65";
    object      phi;
}
// * * * * * * * * * * * * * * * * * * * * * * * * * * * * * * * * * * * * * //

dimensions      [0 3 -1 0 0 0 0];

internalField   nonuniform List<scalar> 
3781
(
-2.3606e-06
2.3606e-06
-4.25782e-06
1.89722e-06
-4.91903e-06
6.61214e-07
-4.61653e-06
-3.02503e-07
-3.8227e-06
-7.93827e-07
-2.8063e-06
-1.0164e-06
-1.71452e-06
-1.09178e-06
-6.25131e-07
-1.08939e-06
4.22688e-07
-1.04782e-06
1.41067e-06
-9.87986e-07
2.33086e-06
-9.20189e-07
3.18032e-06
-8.49459e-07
3.95853e-06
-7.78212e-07
4.66611e-06
-7.07574e-07
5.30424e-06
-6.38133e-07
5.87447e-06
-5.70231e-07
6.37854e-06
-5.04064e-07
6.81824e-06
-4.39709e-07
7.19539e-06
-3.77145e-07
7.51168e-06
-3.16287e-07
7.76873e-06
-2.57054e-07
7.96812e-06
-1.99386e-07
8.11114e-06
-1.43028e-07
8.19832e-06
-8.71799e-08
8.22863e-06
-3.03013e-08
8.19727e-06
3.13581e-08
8.0958e-06
1.01465e-07
7.91858e-06
1.77227e-07
7.65404e-06
2.64539e-07
7.28781e-06
3.66231e-07
6.80243e-06
4.85372e-07
6.17713e-06
6.25305e-07
5.38814e-06
7.88986e-07
4.41034e-06
9.77806e-07
3.2203e-06
1.19004e-06
1.80121e-06
1.41909e-06
1.48457e-07
1.65275e-06
-1.72899e-06
1.87745e-06
-3.81316e-06
2.08416e-06
-6.13601e-06
2.32286e-06
-8.66073e-06
2.52472e-06
-1.05087e-05
1.84794e-06
-1.09593e-05
4.50592e-07
-1.53735e-06
-2.10462e-06
4.46522e-06
-2.76836e-06
2.56096e-06
-2.67114e-06
5.63993e-07
-2.18958e-06
-7.84071e-07
-1.46274e-06
-1.52066e-06
-6.0602e-07
-1.87312e-06
3.01413e-07
-1.99921e-06
1.20981e-06
-1.99779e-06
2.08993e-06
-1.92794e-06
2.92564e-06
-1.82369e-06
3.70907e-06
-1.70362e-06
4.43674e-06
-1.57713e-06
5.1073e-06
-1.44877e-06
5.72039e-06
-1.32067e-06
6.27611e-06
-1.19386e-06
6.77482e-06
-1.06893e-06
7.21697e-06
-9.46214e-07
7.60304e-06
-8.25786e-07
7.93345e-06
-7.07549e-07
8.20843e-06
-5.91265e-07
8.42812e-06
-4.76749e-07
8.59269e-06
-3.63957e-07
8.7023e-06
-2.52633e-07
8.75685e-06
-1.41733e-07
8.75564e-06
-2.90867e-08
8.69804e-06
8.89532e-08
8.58326e-06
2.1625e-07
8.40402e-06
3.56463e-07
8.15393e-06
5.14626e-07
7.82422e-06
6.95938e-07
7.40361e-06
9.05985e-07
6.87854e-06
1.15038e-06
6.23338e-06
1.43414e-06
5.45086e-06
1.76033e-06
4.51297e-06
2.12792e-06
3.40313e-06
2.52893e-06
2.10998e-06
2.9459e-06
6.37898e-07
3.34953e-06
-9.8001e-07
3.70207e-06
-2.64089e-06
3.98374e-06
-4.08795e-06
3.97177e-06
-5.25045e-06
3.01044e-06
-5.94452e-06
1.14467e-06
-1.51257e-06
-1.26358e-06
5.7288e-06
-1.31755e-06
2.61493e-06
-9.69493e-07
2.15936e-07
-4.36443e-07
-1.31712e-06
2.2723e-07
-2.18433e-06
9.65288e-07
-2.61118e-06
1.73162e-06
-2.76555e-06
2.49426e-06
-2.76043e-06
3.2337e-06
-2.66738e-06
3.93885e-06
-2.52884e-06
4.6038e-06
-2.36857e-06
5.22546e-06
-2.1988e-06
5.80211e-06
-2.02541e-06
6.33255e-06
-1.85111e-06
6.81585e-06
-1.67715e-06
7.25124e-06
-1.50432e-06
7.63809e-06
-1.33307e-06
7.97583e-06
-1.16352e-06
8.26377e-06
-9.95495e-07
8.50111e-06
-8.28599e-07
8.68689e-06
-6.62536e-07
8.82035e-06
-4.97418e-07
8.90097e-06
-3.33252e-07
8.92828e-06
-1.69034e-07
8.90143e-06
-2.24476e-09
8.81952e-06
1.70869e-07
8.6811e-06
3.54663e-07
8.48347e-06
5.54101e-07
8.22334e-06
7.74755e-07
7.89636e-06
1.02291e-06
7.49716e-06
1.30518e-06
7.01988e-06
1.62766e-06
6.45868e-06
1.99533e-06
5.80827e-06
2.41075e-06
5.06454e-06
2.87166e-06
4.22571e-06
3.36776e-06
3.29489e-06
3.87671e-06
2.28523e-06
4.35919e-06
1.232e-06
4.7553e-06
2.34854e-07
4.98088e-06
-5.98407e-07
4.80503e-06
-1.36777e-06
3.77981e-06
-2.07567e-06
1.85257e-06
-1.06869e-06
-3.70789e-07
6.09959e-06
-4.91979e-08
2.29334e-06
4.54283e-07
-2.87545e-07
1.03346e-06
-1.8963e-06
1.6558e-06
-2.80667e-06
2.29947e-06
-3.25485e-06
2.94559e-06
-3.41167e-06
3.57986e-06
-3.39469e-06
4.19292e-06
-3.28044e-06
4.7794e-06
-3.11532e-06
5.3361e-06
-2.92527e-06
5.86082e-06
-2.72351e-06
6.3516e-06
-2.5162e-06
6.8065e-06
-2.306e-06
7.22348e-06
-2.09414e-06
7.60068e-06
-1.88153e-06
7.93645e-06
-1.66883e-06
8.22923e-06
-1.4563e-06
8.47749e-06
-1.24375e-06
8.67948e-06
-1.03059e-06
8.83331e-06
-8.16375e-07
8.93747e-06
-6.0157e-07
8.99101e-06
-3.86797e-07
8.99342e-06
-1.71446e-07
8.9441e-06
4.70725e-08
8.84222e-06
2.72753e-07
8.6868e-06
5.10087e-07
8.47699e-06
7.6391e-07
8.21201e-06
1.03973e-06
7.89085e-06
1.34408e-06
7.51238e-06
1.68365e-06
7.07619e-06
2.06385e-06
6.58315e-06
2.48837e-06
6.03589e-06
2.95801e-06
5.43935e-06
3.4682e-06
4.80139e-06
4.00571e-06
4.13398e-06
4.54412e-06
3.45521e-06
5.03797e-06
2.79467e-06
5.41584e-06
2.20641e-06
5.56914e-06
1.71878e-06
5.29266e-06
1.22091e-06
4.27768e-06
6.59465e-07
2.41401e-06
-4.61377e-07
5.21516e-07
5.57807e-06
1.09545e-06
1.71941e-06
1.73275e-06
-9.24845e-07
2.34399e-06
-2.50754e-06
2.926e-06
-3.38868e-06
3.48415e-06
-3.813e-06
4.02133e-06
-3.94886e-06
4.5382e-06
-3.91156e-06
5.03491e-06
-3.77714e-06
5.51163e-06
-3.59204e-06
5.968e-06
-3.38165e-06
6.40279e-06
-3.1583e-06
6.8139e-06
-2.92731e-06
7.19862e-06
-2.69071e-06
7.5538e-06
-2.44932e-06
7.87645e-06
-2.20418e-06
8.16396e-06
-1.95634e-06
8.41397e-06
-1.70632e-06
8.62423e-06
-1.45401e-06
8.7922e-06
-1.19856e-06
8.91511e-06
-9.39284e-07
8.99074e-06
-6.77195e-07
9.01797e-06
-4.14028e-07
8.99651e-06
-1.49985e-07
8.92613e-06
1.1745e-07
8.80632e-06
3.92559e-07
8.63678e-06
6.79631e-07
8.41798e-06
9.8271e-07
8.15124e-06
1.30648e-06
7.83818e-06
1.65714e-06
7.48084e-06
2.04099e-06
7.08274e-06
2.46194e-06
6.6494e-06
2.92172e-06
6.1886e-06
3.41881e-06
5.71065e-06
3.94615e-06
5.22847e-06
4.48789e-06
4.75756e-06
5.01503e-06
4.31564e-06
5.47988e-06
3.92233e-06
5.80915e-06
3.59715e-06
5.89432e-06
3.32445e-06
5.56535e-06
2.99992e-06
4.60221e-06
2.54996e-06
2.86398e-06
1.47061e-07
1.24841e-06
4.32966e-06
2.13687e-06
8.30951e-07
2.89194e-06
-1.67992e-06
3.52089e-06
-3.13648e-06
4.05698e-06
-3.92477e-06
4.53212e-06
-4.28814e-06
4.96765e-06
-4.38439e-06
5.37634e-06
-4.32026e-06
5.76629e-06
-4.16709e-06
6.14253e-06
-3.96828e-06
6.5072e-06
-3.74632e-06
6.85981e-06
-3.51091e-06
7.19809e-06
-3.26559e-06
7.51852e-06
-3.01114e-06
7.81678e-06
-2.74758e-06
8.08874e-06
-2.47615e-06
8.33093e-06
-2.19852e-06
8.54035e-06
-1.91574e-06
8.71427e-06
-1.62793e-06
8.84953e-06
-1.33382e-06
8.94244e-06
-1.03219e-06
8.99009e-06
-7.24853e-07
8.99141e-06
-4.15341e-07
8.94661e-06
-1.0519e-07
8.85603e-06
2.0803e-07
8.71949e-06
5.29103e-07
8.53724e-06
8.61879e-07
8.31098e-06
1.20898e-06
8.04392e-06
1.57353e-06
7.73986e-06
1.9612e-06
7.40304e-06
2.37782e-06
7.03981e-06
2.82517e-06
6.65891e-06
3.30262e-06
6.27138e-06
3.80634e-06
5.89047e-06
4.32706e-06
5.53121e-06
4.84715e-06
5.2094e-06
5.33684e-06
4.93971e-06
5.74957e-06
4.73212e-06
6.01675e-06
4.58458e-06
6.04185e-06
4.45908e-06
5.69085e-06
4.2565e-06
4.80479e-06
3.86678e-06
3.2537e-06
8.28882e-07
1.78672e-06
2.54294e-06
3.04064e-06
-4.22963e-07
3.91935e-06
-2.55863e-06
4.55279e-06
-3.76992e-06
5.03513e-06
-4.40712e-06
5.42877e-06
-4.68177e-06
5.77035e-06
-4.72597e-06
6.0815e-06
-4.63141e-06
6.37626e-06
-4.46185e-06
6.66354e-06
-4.25556e-06
6.9473e-06
-4.03008e-06
7.2274e-06
-3.79101e-06
7.50125e-06
-3.53944e-06
7.76457e-06
-3.27447e-06
8.01183e-06
-2.99483e-06
8.23777e-06
-2.70209e-06
8.43816e-06
-2.39891e-06
8.60956e-06
-2.08714e-06
8.74906e-06
-1.76743e-06
8.85317e-06
-1.43793e-06
8.91717e-06
-1.0962e-06
8.93744e-06
-7.45114e-07
8.9131e-06
-3.91005e-07
8.84533e-06
-3.74192e-08
8.73521e-06
3.1815e-07
8.58275e-06
6.81565e-07
8.38855e-06
1.05607e-06
8.15544e-06
1.44209e-06
7.8886e-06
1.84037e-06
7.59359e-06
2.2562e-06
7.27595e-06
2.69546e-06
6.94405e-06
3.15708e-06
6.60883e-06
3.63784e-06
6.28328e-06
4.13189e-06
5.98204e-06
4.6283e-06
5.72049e-06
5.1087e-06
5.51318e-06
5.54415e-06
5.37098e-06
5.89177e-06
5.29634e-06
6.0914e-06
5.27501e-06
6.06318e-06
5.25937e-06
5.7065e-06
5.15255e-06
4.9116e-06
4.82322e-06
3.58304e-06
1.56128e-06
2.23245e-06
3.10487e-07
3.83184e-06
-2.02235e-06
4.79861e-06
-3.5254e-06
5.40845e-06
-4.37976e-06
5.82804e-06
-4.82671e-06
6.14466e-06
-4.99839e-06
6.40373e-06
-4.98503e-06
6.6318e-06
-4.85948e-06
6.84686e-06
-4.67692e-06
7.06046e-06
-4.46915e-06
7.27745e-06
-4.24708e-06
7.49742e-06
-4.01098e-06
7.71727e-06
-3.75928e-06
7.93224e-06
-3.48944e-06
8.13563e-06
-3.19823e-06
8.32117e-06
-2.88763e-06
8.48402e-06
-2.56176e-06
8.62047e-06
-2.22359e-06
8.72783e-06
-1.8748e-06
8.80267e-06
-1.51276e-06
8.83912e-06
-1.13265e-06
8.83264e-06
-7.38633e-07
8.78288e-06
-3.41248e-07
8.69246e-06
5.30079e-08
8.56348e-06
4.47128e-07
8.39583e-06
8.49213e-07
8.19014e-06
1.26177e-06
7.95026e-06
1.68197e-06
7.6837e-06
2.10692e-06
7.39754e-06
2.54236e-06
7.09749e-06
2.99551e-06
6.79334e-06
3.46122e-06
6.49761e-06
3.93357e-06
6.22433e-06
4.40517e-06
5.98854e-06
4.86409e-06
5.80505e-06
5.29218e-06
5.68657e-06
5.66263e-06
5.64057e-06
5.93777e-06
5.66445e-06
6.06752e-06
5.73829e-06
5.98935e-06
5.81302e-06
5.63176e-06
5.79839e-06
4.92624e-06
5.55653e-06
3.8249e-06
2.25987e-06
2.72585e-06
-2.41536e-06
4.53311e-06
-3.82962e-06
5.48413e-06
-4.47642e-06
6.03589e-06
-4.93153e-06
6.39154e-06
-5.18235e-06
6.64258e-06
-5.24944e-06
6.83594e-06
-5.1784e-06
7.00057e-06
-5.02411e-06
7.15682e-06
-4.83317e-06
7.31735e-06
-4.62968e-06
7.48641e-06
-4.41614e-06
7.66215e-06
-4.18671e-06
7.84075e-06
-3.93789e-06
8.01762e-06
-3.66631e-06
8.18521e-06
-3.36582e-06
8.33676e-06
-3.03918e-06
8.46707e-06
-2.69208e-06
8.57203e-06
-2.32854e-06
8.64963e-06
-1.9524e-06
8.69722e-06
-1.56035e-06
8.7076e-06
-1.14303e-06
8.6751e-06
-7.06133e-07
8.60018e-06
-2.66334e-07
8.48752e-06
1.65674e-07
8.34061e-06
5.94035e-07
8.15866e-06
1.03116e-06
7.94181e-06
1.47862e-06
7.69495e-06
1.92883e-06
7.42871e-06
2.37317e-06
7.15149e-06
2.81957e-06
6.8676e-06
3.2794e-06
6.588e-06
3.74083e-06
6.32639e-06
4.19518e-06
6.09723e-06
4.63433e-06
5.91534e-06
5.04598e-06
5.79454e-06
5.41298e-06
5.74567e-06
5.7115e-06
5.77362e-06
5.90982e-06
5.87308e-06
5.96806e-06
6.02295e-06
5.83948e-06
6.17856e-06
5.47614e-06
6.26376e-06
4.84105e-06
6.16008e-06
3.92857e-06
2.77721e-06
3.4623e-06
-5.87766e-06
5.06706e-06
-5.43437e-06
5.89529e-06
-5.30465e-06
6.39517e-06
-5.43141e-06
6.70354e-06
-5.49072e-06
6.90546e-06
-5.45135e-06
7.0522e-06
-5.32514e-06
7.176e-06
-5.14791e-06
7.29788e-06
-4.95505e-06
7.42905e-06
-4.76085e-06
7.5714e-06
-4.55849e-06
7.72073e-06
-4.33604e-06
7.87191e-06
-4.08907e-06
8.02069e-06
-3.81508e-06
8.16072e-06
-3.50585e-06
8.28528e-06
-3.16374e-06
8.3889e-06
-2.79569e-06
8.46601e-06
-2.40565e-06
8.51566e-06
-2.00205e-06
8.53732e-06
-1.58201e-06
8.52234e-06
-1.12805e-06
8.46408e-06
-6.47873e-07
8.36432e-06
-1.66574e-07
8.23013e-06
2.9986e-07
8.06673e-06
7.57434e-07
7.87177e-06
1.22612e-06
7.64424e-06
1.70616e-06
7.39015e-06
2.18292e-06
7.12467e-06
2.63865e-06
6.85743e-06
3.08681e-06
6.5888e-06
3.54803e-06
6.33127e-06
3.99836e-06
6.09961e-06
4.42684e-06
5.90811e-06
4.82583e-06
5.77099e-06
5.1831e-06
5.70089e-06
5.48307e-06
5.70708e-06
5.70531e-06
5.79277e-06
5.82414e-06
5.95165e-06
5.80918e-06
6.16437e-06
5.62675e-06
6.39406e-06
5.24646e-06
6.58244e-06
4.65267e-06
6.64379e-06
3.86722e-06
3.01611e-06
4.43443e-06
-1.03121e-05
5.34268e-06
-6.34262e-06
6.11527e-06
-6.07724e-06
6.62592e-06
-5.94206e-06
6.90447e-06
-5.76927e-06
7.06324e-06
-5.61012e-06
7.1728e-06
-5.4347e-06
7.2731e-06
-5.24821e-06
7.38399e-06
-5.06594e-06
7.51259e-06
-4.88946e-06
7.657e-06
-4.70289e-06
7.81032e-06
-4.48936e-06
7.96389e-06
-4.24264e-06
8.10465e-06
-3.95584e-06
8.21954e-06
-3.62074e-06
8.32424e-06
-3.26844e-06
8.40755e-06
-2.879e-06
8.46028e-06
-2.45839e-06
8.48185e-06
-2.02361e-06
8.47508e-06
-1.57523e-06
8.43234e-06
-1.08531e-06
8.34534e-06
-5.60874e-07
8.2188e-06
-4.00388e-08
8.06067e-06
4.57991e-07
7.87892e-06
9.39188e-07
7.66834e-06
1.43669e-06
7.42659e-06
1.9479e-06
7.16065e-06
2.44887e-06
6.89301e-06
2.90629e-06
6.63423e-06
3.34558e-06
6.37656e-06
3.8057e-06
6.13571e-06
4.23921e-06
5.92799e-06
4.63456e-06
5.76702e-06
4.9868e-06
5.66633e-06
5.28379e-06
5.63756e-06
5.51184e-06
5.68889e-06
5.65398e-06
5.82267e-06
5.69036e-06
6.03261e-06
5.59924e-06
6.30244e-06
5.35692e-06
6.60491e-06
4.94398e-06
6.90446e-06
4.35313e-06
7.1663e-06
3.60537e-06
2.78627e-06
4.3035e-06
-1.46156e-05
5.12985e-06
-7.16896e-06
6.01434e-06
-6.96174e-06
6.61287e-06
-6.54059e-06
6.89865e-06
-6.05505e-06
7.04071e-06
-5.75217e-06
7.14083e-06
-5.53482e-06
7.24371e-06
-5.35109e-06
7.36098e-06
-5.18321e-06
7.48986e-06
-5.01834e-06
7.62633e-06
-4.83935e-06
7.76661e-06
-4.62964e-06
7.90205e-06
-4.37808e-06
8.01257e-06
-4.06636e-06
8.04272e-06
-3.65089e-06
8.14059e-06
-3.3663e-06
8.22613e-06
-2.96455e-06
8.2855e-06
-2.51775e-06
8.31215e-06
-2.05026e-06
8.29396e-06
-1.55705e-06
8.21818e-06
-1.00953e-06
8.10078e-06
-4.43477e-07
7.95081e-06
1.09928e-07
7.7652e-06
6.43603e-07
7.56547e-06
1.13892e-06
7.33988e-06
1.66229e-06
7.0859e-06
2.20188e-06
6.80964e-06
2.72513e-06
6.54641e-06
3.16953e-06
6.30607e-06
3.58592e-06
6.06375e-06
4.04802e-06
5.84295e-06
4.46002e-06
5.66168e-06
4.81583e-06
5.53139e-06
5.11708e-06
5.46441e-06
5.35077e-06
5.47138e-06
5.50487e-06
5.5597e-06
5.56566e-06
5.73141e-06
5.51865e-06
5.98061e-06
5.35004e-06
6.29413e-06
5.0434e-06
6.65216e-06
4.58595e-06
7.03457e-06
3.97072e-06
7.43742e-06
3.20252e-06
2.29924e-06
-9.31412e-07
-1.36842e-05
1.33201e-06
-9.43237e-06
2.83545e-06
-8.46519e-06
4.03528e-06
-7.7404e-06
5.0052e-06
-7.02496e-06
5.75956e-06
-6.50652e-06
6.36725e-06
-6.1425e-06
6.87735e-06
-5.8612e-06
7.31481e-06
-5.62068e-06
7.68876e-06
-5.3923e-06
7.99927e-06
-5.14987e-06
8.23694e-06
-4.8673e-06
8.3727e-06
-4.51382e-06
8.3621e-06
-4.05574e-06
8.26033e-06
-3.54909e-06
8.12708e-06
-3.23306e-06
8.12707e-06
-2.96454e-06
8.15476e-06
-2.54544e-06
8.15147e-06
-2.04698e-06
8.05699e-06
-1.46257e-06
7.85985e-06
-8.12385e-07
7.72754e-06
-3.11164e-07
7.5804e-06
2.57065e-07
7.40982e-06
8.1418e-07
7.21095e-06
1.33779e-06
6.97111e-06
1.90213e-06
6.69292e-06
2.48007e-06
6.40163e-06
3.01641e-06
6.15154e-06
3.41962e-06
5.94643e-06
3.79103e-06
5.71862e-06
4.27583e-06
5.52276e-06
4.65588e-06
5.3726e-06
4.96599e-06
5.27415e-06
5.21553e-06
5.23885e-06
5.38607e-06
5.27678e-06
5.46694e-06
5.3949e-06
5.44755e-06
5.59568e-06
5.31787e-06
5.87327e-06
5.07245e-06
6.21659e-06
4.70008e-06
6.60935e-06
4.1932e-06
7.03683e-06
3.54325e-06
7.49869e-06
2.74065e-06
1.76117e-06
-1.35488e-06
-1.23293e-05
-3.61392e-08
-1.07511e-05
1.35358e-06
-9.8549e-06
2.61332e-06
-9.00014e-06
3.78315e-06
-8.19477e-06
4.82246e-06
-7.54583e-06
5.72098e-06
-7.04103e-06
6.49267e-06
-6.6329e-06
7.15208e-06
-6.28011e-06
7.70859e-06
-5.94881e-06
8.16719e-06
-5.60845e-06
8.53001e-06
-5.23009e-06
8.80345e-06
-4.78722e-06
9.01557e-06
-4.26784e-06
9.21182e-06
-3.74534e-06
9.33558e-06
-3.35683e-06
9.35186e-06
-2.98083e-06
9.27877e-06
-2.47237e-06
9.03219e-06
-1.8004e-06
8.50368e-06
-9.34057e-07
7.96324e-06
-2.7194e-07
7.5818e-06
7.0274e-08
7.37978e-06
4.59082e-07
7.14135e-06
1.05261e-06
6.80427e-06
1.67487e-06
6.48666e-06
2.21973e-06
6.18808e-06
2.77866e-06
5.93091e-06
3.27358e-06
5.74332e-06
3.60721e-06
5.56803e-06
3.96632e-06
5.34999e-06
4.49387e-06
5.19586e-06
4.81001e-06
5.0877e-06
5.07415e-06
5.02426e-06
5.27897e-06
5.02081e-06
5.38951e-06
5.08606e-06
5.4017e-06
5.22716e-06
5.30644e-06
5.44812e-06
5.09691e-06
5.7423e-06
4.77826e-06
6.10007e-06
4.34231e-06
6.50456e-06
3.7887e-06
6.93777e-06
3.11004e-06
7.38477e-06
2.29366e-06
1.30338e-06
-7.4789e-07
-1.15814e-05
-1.18281e-07
-1.13807e-05
8.57308e-07
-1.08305e-05
1.97063e-06
-1.01134e-05
3.12882e-06
-9.35296e-06
4.24355e-06
-8.66056e-06
5.26482e-06
-8.06229e-06
6.17486e-06
-7.54295e-06
6.97094e-06
-7.0762e-06
7.65615e-06
-6.63401e-06
8.23669e-06
-6.18898e-06
8.72264e-06
-5.71601e-06
9.13194e-06
-5.19651e-06
9.49497e-06
-4.63086e-06
9.82224e-06
-4.07263e-06
1.00494e-05
-3.58396e-06
1.01491e-05
-3.08063e-06
1.0136e-05
-2.45926e-06
1.00261e-05
-1.69049e-06
9.89667e-06
-8.04638e-07
9.68332e-06
-5.85889e-08
9.30127e-06
4.5232e-07
8.71807e-06
1.04227e-06
7.84058e-06
1.93008e-06
6.96189e-06
2.55355e-06
6.3382e-06
2.84341e-06
5.95032e-06
3.16653e-06
5.52128e-06
3.70262e-06
5.30496e-06
3.82353e-06
5.1353e-06
4.13598e-06
4.9698e-06
4.65936e-06
4.89766e-06
4.88215e-06
4.83805e-06
5.13376e-06
4.82188e-06
5.29514e-06
4.85309e-06
5.35831e-06
4.94071e-06
5.31407e-06
5.09729e-06
5.14987e-06
5.32845e-06
4.86575e-06
5.62574e-06
4.48098e-06
5.98153e-06
3.98651e-06
6.37569e-06
3.39455e-06
6.78277e-06
2.70296e-06
7.16657e-06
1.90985e-06
9.90137e-07
-5.57423e-07
-1.1024e-05
-8.84686e-08
-1.18497e-05
7.33599e-07
-1.16526e-05
1.73579e-06
-1.11156e-05
2.82767e-06
-1.04448e-05
3.92618e-06
-9.75906e-06
4.97363e-06
-9.10975e-06
5.93823e-06
-8.50755e-06
6.80564e-06
-7.9436e-06
7.57224e-06
-7.4006e-06
8.2418e-06
-6.85852e-06
8.82449e-06
-6.29868e-06
9.33687e-06
-5.70887e-06
9.79781e-06
-5.09181e-06
1.02028e-05
-4.47759e-06
1.05068e-05
-3.88801e-06
1.06937e-05
-3.26756e-06
1.07858e-05
-2.55144e-06
1.08192e-05
-1.72382e-06
1.08394e-05
-8.24821e-07
1.07841e-05
-3.27917e-09
1.05501e-05
6.86213e-07
1.01604e-05
1.43201e-06
9.75052e-06
2.33992e-06
9.21985e-06
3.0842e-06
8.48254e-06
3.58071e-06
7.4986e-06
4.15047e-06
6.2655e-06
4.93571e-06
5.31797e-06
4.77106e-06
4.91837e-06
4.53559e-06
4.60704e-06
4.97069e-06
4.60866e-06
4.88053e-06
4.65407e-06
5.08835e-06
4.71704e-06
5.23217e-06
4.77831e-06
5.29703e-06
4.89414e-06
5.19825e-06
5.05704e-06
4.98697e-06
5.28437e-06
4.63841e-06
5.568e-06
4.19736e-06
5.90392e-06
3.65058e-06
6.26772e-06
3.03075e-06
6.62768e-06
2.34301e-06
6.9278e-06
1.60973e-06
8.29371e-07
-3.15837e-07
-1.07082e-05
9.20708e-08
-1.22576e-05
8.20717e-07
-1.23812e-05
1.73266e-06
-1.20276e-05
2.74537e-06
-1.14575e-05
3.78955e-06
-1.08032e-05
4.81246e-06
-1.01327e-05
5.77957e-06
-9.47465e-06
6.67132e-06
-8.83534e-06
7.47935e-06
-8.20861e-06
8.20366e-06
-7.58281e-06
8.85079e-06
-6.94579e-06
9.43144e-06
-6.28953e-06
9.95483e-06
-5.61522e-06
1.04134e-05
-4.93615e-06
1.07808e-05
-4.25545e-06
1.10507e-05
-3.53752e-06
1.1244e-05
-2.7447e-06
1.13904e-05
-1.8702e-06
1.15126e-05
-9.47012e-07
1.15699e-05
-6.06438e-08
1.14931e-05
7.62999e-07
1.13026e-05
1.62252e-06
1.1082e-05
2.56046e-06
1.07539e-05
3.41229e-06
1.02217e-05
4.11291e-06
9.55515e-06
4.81703e-06
8.93684e-06
5.55402e-06
7.98843e-06
5.71946e-06
6.64521e-06
5.87882e-06
5.46214e-06
6.15376e-06
4.66054e-06
5.68213e-06
4.52714e-06
5.22176e-06
4.65287e-06
5.10644e-06
4.823e-06
5.1269e-06
5.00024e-06
5.02102e-06
5.15329e-06
4.83391e-06
5.37258e-06
4.41912e-06
5.61921e-06
3.95073e-06
5.91312e-06
3.35667e-06
6.22692e-06
2.71695e-06
6.52692e-06
2.04301e-06
6.74324e-06
1.39341e-06
7.93389e-07
-1.02216e-07
-1.0606e-05
3.30712e-07
-1.26906e-05
1.01793e-06
-1.30684e-05
1.86092e-06
-1.28705e-05
2.79698e-06
-1.23936e-05
3.77311e-06
-1.17794e-05
4.74621e-06
-1.11057e-05
5.68485e-06
-1.04133e-05
6.56871e-06
-9.71919e-06
7.38691e-06
-9.02679e-06
8.13609e-06
-8.33199e-06
8.81852e-06
-7.62822e-06
9.43934e-06
-6.91037e-06
1.00018e-05
-6.17775e-06
1.04997e-05
-5.434e-06
1.09193e-05
-4.67512e-06
1.12604e-05
-3.87865e-06
1.15389e-05
-3.02322e-06
1.17756e-05
-2.10684e-06
1.19815e-05
-1.15298e-06
1.21303e-05
-2.09457e-07
1.21821e-05
7.11214e-07
1.21488e-05
1.65582e-06
1.20722e-05
2.63708e-06
1.19175e-05
3.5669e-06
1.16295e-05
4.40091e-06
1.12471e-05
5.19941e-06
1.085e-05
5.95112e-06
1.01733e-05
6.39614e-06
9.33604e-06
6.71612e-06
8.47e-06
7.01981e-06
7.30947e-06
6.84267e-06
5.85937e-06
6.67187e-06
4.92072e-06
6.0451e-06
4.93914e-06
5.10847e-06
5.17403e-06
4.78613e-06
5.40554e-06
4.6024e-06
5.63604e-06
4.18861e-06
5.8161e-06
3.77068e-06
6.05466e-06
3.11811e-06
6.29272e-06
2.47889e-06
6.52107e-06
1.81467e-06
6.66238e-06
1.25209e-06
8.39889e-07
8.81277e-08
-1.06941e-05
5.84075e-07
-1.31865e-05
1.26129e-06
-1.37456e-05
2.05444e-06
-1.36637e-05
2.92231e-06
-1.32614e-05
3.82841e-06
-1.26854e-05
4.74076e-06
-1.20181e-05
5.63375e-06
-1.13063e-05
6.48897e-06
-1.05744e-05
7.29492e-06
-9.83272e-06
8.04601e-06
-9.08308e-06
8.74111e-06
-8.32334e-06
9.38134e-06
-7.55062e-06
9.96683e-06
-6.76329e-06
1.04933e-05
-5.96048e-06
1.09545e-05
-5.1364e-06
1.13527e-05
-4.27686e-06
1.16993e-05
-3.36981e-06
1.20078e-05
-2.41531e-06
1.22836e-05
-1.42874e-06
1.25106e-05
-4.36484e-07
1.26679e-05
5.53876e-07
1.27625e-05
1.56121e-06
1.2815e-05
2.58449e-06
1.28087e-05
3.57326e-06
1.27133e-05
4.49627e-06
1.25432e-05
5.36945e-06
1.23244e-05
6.16997e-06
1.19475e-05
6.77303e-06
1.14254e-05
7.23824e-06
1.08289e-05
7.61626e-06
9.99063e-06
7.68098e-06
9.07728e-06
7.58522e-06
7.99273e-06
7.12965e-06
6.5652e-06
6.536e-06
5.64212e-06
5.70922e-06
5.70662e-06
4.5379e-06
5.9617e-06
3.93353e-06
6.15791e-06
3.57447e-06
6.3458e-06
2.93022e-06
6.47382e-06
2.35087e-06
6.62647e-06
1.66203e-06
6.69529e-06
1.18326e-06
9.26951e-07
2.55565e-07
-1.09497e-05
8.26904e-07
-1.37578e-05
1.5099e-06
-1.44286e-05
2.26689e-06
-1.44207e-05
3.07595e-06
-1.40705e-05
3.91559e-06
-1.35251e-05
4.76457e-06
-1.28671e-05
5.60395e-06
-1.21456e-05
6.41859e-06
-1.1389e-05
7.19774e-06
-1.06119e-05
7.93481e-06
-9.82016e-06
8.62656e-06
-9.0151e-06
9.27161e-06
-8.19569e-06
9.86859e-06
-7.3603e-06
1.04147e-05
-6.50657e-06
1.09074e-05
-5.62912e-06
1.13494e-05
-4.71895e-06
1.17489e-05
-3.76921e-06
1.21142e-05
-2.78062e-06
1.24483e-05
-1.76286e-06
1.27426e-05
-7.30871e-07
1.29872e-05
3.09312e-07
1.31859e-05
1.36243e-06
1.33489e-05
2.42156e-06
1.34667e-05
3.4554e-06
1.35232e-05
4.43976e-06
1.35225e-05
5.3701e-06
1.34707e-05
6.22182e-06
1.3315e-05
6.92872e-06
1.30463e-05
7.50686e-06
1.27004e-05
7.96221e-06
1.22018e-05
8.17964e-06
1.15905e-05
8.19643e-06
1.07786e-05
7.94159e-06
9.85275e-06
7.46187e-06
8.81832e-06
6.74365e-06
7.47476e-06
5.88147e-06
6.54836e-06
4.85994e-06
6.50406e-06
3.61878e-06
6.64493e-06
2.78935e-06
6.73164e-06
2.26416e-06
6.79917e-06
1.59449e-06
6.78409e-06
1.19835e-06
1.00997e-06
4.07181e-07
-1.13569e-05
1.04505e-06
-1.43957e-05
1.73713e-06
-1.51207e-05
2.46547e-06
-1.5149e-05
3.22364e-06
-1.48286e-05
4.00248e-06
-1.43039e-05
4.79011e-06
-1.36547e-05
5.57393e-06
-1.29294e-05
6.34253e-06
-1.21576e-05
7.08672e-06
-1.1356e-05
7.79991e-06
-1.05334e-05
8.47785e-06
-9.69306e-06
9.11786e-06
-8.83573e-06
9.71788e-06
-7.96034e-06
1.02759e-05
-7.06459e-06
1.0791e-05
-6.14426e-06
1.12658e-05
-5.19368e-06
1.17055e-05
-4.20894e-06
1.21157e-05
-3.19089e-06
1.24985e-05
-2.14567e-06
1.285e-05
-1.08239e-06
1.31659e-05
-6.59957e-09
1.34487e-05
1.07967e-06
1.3703e-05
2.16725e-06
1.39238e-05
3.23451e-06
1.41023e-05
4.26129e-06
1.42377e-05
5.23462e-06
1.43281e-05
6.13146e-06
1.43446e-05
6.91218e-06
1.42797e-05
7.57177e-06
1.41447e-05
8.09728e-06
1.38991e-05
8.42527e-06
1.35408e-05
8.5547e-06
1.30369e-05
8.44553e-06
1.23876e-05
8.1111e-06
1.15653e-05
7.56597e-06
1.06135e-05
6.83328e-06
9.54043e-06
5.93306e-06
8.21753e-06
4.94169e-06
7.25477e-06
3.75211e-06
6.92066e-06
2.59828e-06
6.83514e-06
1.68002e-06
6.80959e-06
1.22389e-06
6.73599e-06
1.08356e-06
1.58274e-06
5.3911e-07
-1.1896e-05
1.22882e-06
-1.50854e-05
1.92543e-06
-1.58173e-05
2.62746e-06
-1.5851e-05
3.3403e-06
-1.55415e-05
4.06423e-06
-1.50278e-05
4.79475e-06
-1.43852e-05
5.52471e-06
-1.36594e-05
6.24621e-06
-1.28791e-05
6.95199e-06
-1.20618e-05
7.63609e-06
-1.12175e-05
8.29406e-06
-1.03511e-05
8.92272e-06
-9.4644e-06
9.5197e-06
-8.55734e-06
1.00834e-05
-7.62827e-06
1.06134e-05
-6.6743e-06
1.11117e-05
-5.69195e-06
1.15818e-05
-4.67909e-06
1.20275e-05
-3.63659e-06
1.24505e-05
-2.56865e-06
1.28495e-05
-1.48145e-06
1.32233e-05
-3.80372e-07
1.35734e-05
7.29508e-07
1.39022e-05
1.8384e-06
1.42071e-05
2.92963e-06
1.44827e-05
3.98572e-06
1.47263e-05
4.991e-06
1.49331e-05
5.92457e-06
1.50867e-05
6.75864e-06
1.51796e-05
7.47882e-06
1.52109e-05
8.06604e-06
1.51559e-05
8.48027e-06
1.5003e-05
8.70756e-06
1.47255e-05
8.72305e-06
1.43039e-05
8.53271e-06
1.37266e-05
8.14328e-06
1.2984e-05
7.57594e-06
1.20528e-05
6.86427e-06
1.09533e-05
6.04116e-06
9.59398e-06
5.11147e-06
8.14984e-06
4.04242e-06
7.12031e-06
2.70954e-06
6.61537e-06
1.72884e-06
6.46291e-06
1.23602e-06
1.56112e-06
6.4867e-07
-1.25446e-05
1.37155e-06
-1.58082e-05
2.06352e-06
-1.65092e-05
2.73793e-06
-1.65254e-05
3.40877e-06
-1.62123e-05
4.08292e-06
-1.5702e-05
4.76128e-06
-1.50635e-05
5.44092e-06
-1.4339e-05
6.11693e-06
-1.35551e-05
6.78395e-06
-1.27288e-05
7.43699e-06
-1.18705e-05
8.0719e-06
-1.0986e-05
8.68541e-06
-1.00779e-05
9.27516e-06
-9.1471e-06
9.83964e-06
-8.19275e-06
1.03786e-05
-7.21321e-06
1.08932e-05
-6.20655e-06
1.13859e-05
-5.17181e-06
1.18592e-05
-4.10997e-06
1.23148e-05
-3.02422e-06
1.27526e-05
-1.91936e-06
1.31729e-05
-8.00669e-07
1.35769e-05
3.25554e-07
1.39657e-05
1.44958e-06
1.43378e-05
2.5575e-06
1.46897e-05
3.6338e-06
1.50181e-05
4.66258e-06
1.53177e-05
5.6249e-06
1.55779e-05
6.49848e-06
1.5791e-05
7.26575e-06
1.59504e-05
7.90659e-06
1.60383e-05
8.39242e-06
1.60395e-05
8.70635e-06
1.59307e-05
8.8319e-06
1.56927e-05
8.77066e-06
1.53071e-05
8.52892e-06
1.47547e-05
8.12832e-06
1.4025e-05
7.59402e-06
1.31072e-05
6.95894e-06
1.19727e-05
6.24602e-06
1.05752e-05
5.43988e-06
8.70601e-06
4.57878e-06
7.15983e-06
3.27502e-06
6.11915e-06
2.27671e-06
1.69688e-06
7.33335e-07
-1.32779e-05
1.46874e-06
-1.65436e-05
2.1449e-06
-1.71854e-05
2.78825e-06
-1.71688e-05
3.41862e-06
-1.68427e-05
4.04704e-06
-1.63304e-05
4.67795e-06
-1.56944e-05
5.31138e-06
-1.49724e-05
5.94478e-06
-1.41885e-05
6.57445e-06
-1.33585e-05
7.19643e-06
-1.24925e-05
7.8071e-06
-1.15966e-05
8.40343e-06
-1.06743e-05
8.98312e-06
-9.72679e-06
9.54473e-06
-8.75435e-06
1.00878e-05
-7.7563e-06
1.06131e-05
-6.73185e-06
1.11221e-05
-5.68087e-06
1.16167e-05
-4.60455e-06
1.20981e-05
-3.50568e-06
1.25672e-05
-2.38841e-06
1.30244e-05
-1.25793e-06
1.34709e-05
-1.20902e-07
1.39071e-05
1.01333e-06
1.43321e-05
2.13253e-06
1.47431e-05
3.22274e-06
1.51369e-05
4.26881e-06
1.55083e-05
5.25349e-06
1.58492e-05
6.15756e-06
1.61518e-05
6.96315e-06
1.64074e-05
7.651e-06
1.66009e-05
8.19893e-06
1.67164e-05
8.59089e-06
1.67335e-05
8.81477e-06
1.66342e-05
8.86999e-06
1.63999e-05
8.76322e-06
1.60154e-05
8.51282e-06
1.54682e-05
8.14126e-06
1.4748e-05
7.67917e-06
1.38467e-05
7.14724e-06
1.27337e-05
6.55292e-06
1.14027e-05
5.90983e-06
9.57345e-06
5.10424e-06
7.34658e-06
4.50358e-06
3.30628e-06
7.90774e-07
-1.40687e-05
1.51794e-06
-1.72708e-05
2.16698e-06
-1.78344e-05
2.77499e-06
-1.77768e-05
3.36519e-06
-1.74329e-05
3.95076e-06
-1.6916e-05
4.53812e-06
-1.62818e-05
5.12919e-06
-1.55635e-05
5.72311e-06
-1.47824e-05
6.31749e-06
-1.39529e-05
6.90936e-06
-1.30844e-05
7.49568e-06
-1.2183e-05
8.07377e-06
-1.12523e-05
8.64151e-06
-1.02945e-05
9.19745e-06
-9.31029e-06
9.74102e-06
-8.29987e-06
1.02725e-05
-7.26333e-06
1.07928e-05
-6.20118e-06
1.13031e-05
-5.11491e-06
1.18046e-05
-4.00716e-06
1.2298e-05
-2.88184e-06
1.27841e-05
-1.74404e-06
1.32636e-05
-6.00391e-07
1.37366e-05
5.40277e-07
1.42023e-05
1.66689e-06
1.46582e-05
2.76676e-06
1.51012e-05
3.82582e-06
1.55264e-05
4.82836e-06
1.59266e-05
5.75728e-06
1.62942e-05
6.59557e-06
1.66196e-05
7.32562e-06
1.68893e-05
7.92921e-06
1.70881e-05
8.39212e-06
1.71983e-05
8.70463e-06
1.7203e-05
8.86525e-06
1.70865e-05
8.87977e-06
1.68365e-05
8.76277e-06
1.64437e-05
8.53406e-06
1.59039e-05
8.21896e-06
1.52135e-05
7.83772e-06
1.43611e-05
7.4053e-06
1.33348e-05
6.93609e-06
1.20214e-05
6.4177e-06
1.05759e-05
5.94902e-06
5.26423e-06
8.1949e-07
-1.48882e-05
1.51902e-06
-1.79703e-05
2.13069e-06
-1.84461e-05
2.69904e-06
-1.83451e-05
3.24855e-06
-1.79824e-05
3.79303e-06
-1.74604e-05
4.33967e-06
-1.68284e-05
4.89145e-06
-1.61152e-05
5.44858e-06
-1.53395e-05
6.00969e-06
-1.4514e-05
6.57257e-06
-1.36473e-05
7.13479e-06
-1.27452e-05
7.69403e-06
-1.18116e-05
8.24836e-06
-1.08488e-05
8.79638e-06
-9.85831e-06
9.33738e-06
-8.84088e-06
9.87128e-06
-7.79724e-06
1.03985e-05
-6.72847e-06
1.09199e-05
-5.6363e-06
1.14362e-05
-4.52345e-06
1.1948e-05
-3.3937e-06
1.2456e-05
-2.25204e-06
1.29606e-05
-1.10491e-06
1.34614e-05
3.94136e-08
1.39575e-05
1.17079e-06
1.44467e-05
2.27761e-06
1.49256e-05
3.34695e-06
1.53894e-05
4.36453e-06
1.58317e-05
5.31496e-06
1.62447e-05
6.1826e-06
1.66188e-05
6.95158e-06
1.69415e-05
7.60646e-06
1.71989e-05
8.13475e-06
1.73754e-05
8.52809e-06
1.74563e-05
8.78436e-06
1.74283e-05
8.90778e-06
1.72817e-05
8.90936e-06
1.70107e-05
8.8051e-06
1.66148e-05
8.61493e-06
1.6095e-05
8.35748e-06
1.54509e-05
8.04937e-06
1.46795e-05
7.70757e-06
1.37574e-05
7.33975e-06
1.27194e-05
6.98703e-06
6.60034e-06
8.19411e-07
-1.57076e-05
1.47432e-06
-1.86253e-05
2.04e-06
-1.90118e-05
2.56473e-06
-1.88698e-05
3.0725e-06
-1.84902e-05
3.5766e-06
-1.79645e-05
4.08424e-06
-1.7336e-05
4.59875e-06
-1.66297e-05
5.121e-06
-1.58618e-05
5.65026e-06
-1.50433e-05
6.18498e-06
-1.4182e-05
6.7232e-06
-1.32834e-05
7.26297e-06
-1.23513e-05
7.80255e-06
-1.13884e-05
8.3406e-06
-1.03964e-05
8.8763e-06
-9.37659e-06
9.40931e-06
-8.33028e-06
9.93973e-06
-7.25891e-06
1.04679e-05
-6.16449e-06
1.09943e-05
-5.04982e-06
1.15193e-05
-3.91866e-06
1.20431e-05
-2.77587e-06
1.25658e-05
-1.62762e-06
1.30868e-05
-4.81627e-07
1.36048e-05
6.52791e-07
1.41175e-05
1.76497e-06
1.46214e-05
2.84309e-06
1.51117e-05
3.87421e-06
1.55822e-05
4.84447e-06
1.60251e-05
5.73968e-06
1.6431e-05
6.54566e-06
1.67885e-05
7.24899e-06
1.70847e-05
7.83859e-06
1.73059e-05
8.30687e-06
1.74392e-05
8.65104e-06
1.74735e-05
8.87347e-06
1.74011e-05
8.98183e-06
1.72182e-05
8.98801e-06
1.69261e-05
8.907e-06
1.65294e-05
8.75425e-06
1.60337e-05
8.54498e-06
1.54461e-05
8.29522e-06
1.4767e-05
8.01881e-06
1.40091e-05
7.74491e-06
7.47544e-06
7.92146e-07
-1.64998e-05
1.38851e-06
-1.92217e-05
1.90135e-06
-1.95247e-05
2.37896e-06
-1.93475e-05
2.84353e-06
-1.89547e-05
3.3071e-06
-1.84281e-05
3.77633e-06
-1.78053e-05
4.25453e-06
-1.71079e-05
4.7428e-06
-1.63501e-05
5.24088e-06
-1.55413e-05
5.74764e-06
-1.46887e-05
6.26153e-06
-1.37973e-05
6.78091e-06
-1.28707e-05
7.30422e-06
-1.19117e-05
7.83021e-06
-1.09224e-05
8.35795e-06