/*--------------------------------*- C++ -*----------------------------------*\
| =========                 |                                                 |
| \\      /  F ield         | OpenFOAM: The Open Source CFD Toolbox           |
|  \\    /   O peration     | Version:  5.0                                   |
|   \\  /    A nd           | Web:      www.OpenFOAM.org                      |
|    \\/     M anipulation  |                                                 |
\*---------------------------------------------------------------------------*/
FoamFile
{
    version     2.0;
    format      ascii;
    class       volVectorField;
    location    "0.65";
    object      U;
}
// * * * * * * * * * * * * * * * * * * * * * * * * * * * * * * * * * * * * * //

dimensions      [0 1 -1 0 0 0 0];

internalField   nonuniform List<vector> 
1935
(
(-0.0194261 0.0152244 0)
(-0.0522711 0.0140246 0)
(-0.0700328 0.00452499 0)
(-0.0694741 -0.00282929 0)
(-0.0605694 -0.00674239 0)
(-0.0473189 -0.00836028 0)
(-0.0321667 -0.00884426 0)
(-0.0165629 -0.00873644 0)
(-0.00129742 -0.00834035 0)
(0.0132429 -0.00781672 0)
(0.0268725 -0.00724348 0)
(0.0395126 -0.00665896 0)
(0.0511363 -0.00607904 0)
(0.0617441 -0.00551094 0)
(0.0713497 -0.0049586 0)
(0.0799733 -0.00442437 0)
(0.0876386 -0.00390953 0)
(0.0943716 -0.00341455 0)
(0.100198 -0.00293928 0)
(0.105144 -0.00248309 0)
(0.109232 -0.00204531 0)
(0.112486 -0.00162503 0)
(0.114927 -0.00121941 0)
(0.11657 -0.000820791 0)
(0.117416 -0.000411846 0)
(0.11744 3.24754e-05 0)
(0.11652 0.000520976 0)
(0.114567 0.00110191 0)
(0.111459 0.00179101 0)
(0.107014 0.00260584 0)
(0.101014 0.00356801 0)
(0.0931877 0.00470591 0)
(0.083217 0.00604886 0)
(0.0707508 0.00761299 0)
(0.0554349 0.00938428 0)
(0.0369603 0.0113008 0)
(0.0151177 0.0132444 0)
(-0.0102632 0.0150754 0)
(-0.0384822 0.0168254 0)
(-0.0689551 0.0193712 0)
(-0.106761 0.0211934 0)
(-0.142286 0.0134198 0)
(-0.161331 -0.00119558 0)
(-0.151432 -0.01929 0)
(-0.0244543 0.0379291 0)
(-0.039339 0.0261689 0)
(-0.0405107 0.00813724 0)
(-0.0352218 -0.00510851 0)
(-0.0264569 -0.0125503 0)
(-0.0149325 -0.016073 0)
(-0.00219158 -0.0173556 0)
(0.010859 -0.0174146 0)
(0.0236728 -0.0168255 0)
(0.0359463 -0.0159119 0)
(0.0475161 -0.0148515 0)
(0.0583072 -0.0137333 0)
(0.0682886 -0.0125997 0)
(0.0774501 -0.0114709 0)
(0.0857908 -0.0103572 0)
(0.0933144 -0.00926451 0)
(0.100027 -0.00819598 0)
(0.105937 -0.00715281 0)
(0.111049 -0.0061345 0)
(0.115369 -0.0051394 0)
(0.118898 -0.00416604 0)
(0.12164 -0.00321351 0)
(0.123596 -0.00227815 0)
(0.124769 -0.00134832 0)
(0.125152 -0.00040054 0)
(0.124732 0.00059888 0)
(0.123521 0.00168975 0)
(0.121445 0.0029112 0)
(0.118412 0.00430103 0)
(0.114312 0.00590757 0)
(0.109005 0.00778465 0)
(0.102316 0.00998669 0)
(0.0940362 0.0125616 0)
(0.0839308 0.0155365 0)
(0.0717446 0.0188973 0)
(0.0572209 0.0225618 0)
(0.0401393 0.0263644 0)
(0.020346 0.0300474 0)
(-0.0019532 0.0333166 0)
(-0.0252339 0.0363534 0)
(-0.0492084 0.0377147 0)
(-0.0696375 0.0285611 0)
(-0.0820932 0.00939588 0)
(-0.0876482 -0.0181938 0)
(-0.0182299 0.056056 0)
(-0.02048 0.02859 0)
(-0.0170247 0.00456716 0)
(-0.010458 -0.0111943 0)
(-0.00176017 -0.0200401 0)
(0.00839961 -0.0243947 0)
(0.0192402 -0.0259935 0)
(0.0302167 -0.025996 0)
(0.0409752 -0.0251263 0)
(0.0513061 -0.0238083 0)
(0.0610951 -0.0222774 0)
(0.0702832 -0.0206557 0)
(0.0788389 -0.0190027 0)
(0.0867426 -0.0173461 0)
(0.0939793 -0.0156996 0)
(0.100537 -0.0140709 0)
(0.106407 -0.0124644 0)
(0.11158 -0.0108813 0)
(0.116047 -0.00932002 0)
(0.119799 -0.00777733 0)
(0.122821 -0.00625061 0)
(0.125101 -0.0047399 0)
(0.12663 -0.00324317 0)
(0.127402 -0.00174865 0)
(0.127409 -0.00023031 0)
(0.126636 0.00135098 0)
(0.125072 0.00303988 0)
(0.122686 0.00488752 0)
(0.119434 0.00695232 0)
(0.115264 0.00929885 0)
(0.110105 0.0119956 0)
(0.103877 0.0151086 0)
(0.0964941 0.0186945 0)
(0.0878764 0.0227863 0)
(0.0779545 0.0273685 0)
(0.0666817 0.032343 0)
(0.0540556 0.037492 0)
(0.0401427 0.0424381 0)
(0.0252061 0.0466232 0)
(0.0103651 0.0493436 0)
(-0.00300365 0.0481364 0)
(-0.0147594 0.0372221 0)
(-0.0252895 0.0164552 0)
(-0.0337847 -0.0141551 0)
(-0.00837636 0.0660341 0)
(-0.003636 0.0270319 0)
(0.00248067 -1.89247e-05 0)
(0.0104536 -0.0171919 0)
(0.0191189 -0.0269559 0)
(0.0282118 -0.0317953 0)
(0.0374594 -0.0335425 0)
(0.0466262 -0.033454 0)
(0.0555453 -0.0323416 0)
(0.0641158 -0.0306944 0)
(0.0722806 -0.0287873 0)
(0.0800039 -0.0267622 0)
(0.0872569 -0.024687 0)
(0.0940119 -0.0225923 0)
(0.10024 -0.0204925 0)
(0.105913 -0.0183968 0)
(0.111006 -0.0163113 0)
(0.115496 -0.0142376 0)
(0.119363 -0.0121739 0)
(0.122582 -0.0101147 0)
(0.125128 -0.00805633 0)
(0.126973 -0.0060013 0)
(0.1281 -0.00395206 0)
(0.128501 -0.0018991 0)
(0.128169 0.000185537 0)
(0.127093 0.00234398 0)
(0.125261 0.00462475 0)
(0.122659 0.00708162 0)
(0.119275 0.00977656 0)
(0.115098 0.0127804 0)
(0.110112 0.0161665 0)
(0.104302 0.0199989 0)
(0.0976709 0.0243263 0)
(0.090242 0.0291685 0)
(0.0820678 0.0344899 0)
(0.0732373 0.0401636 0)
(0.063887 0.0459236 0)
(0.0542121 0.0513043 0)
(0.044513 0.0555716 0)
(0.0354613 0.0576023 0)
(0.0277904 0.0550006 0)
(0.0209038 0.0438859 0)
(0.0134009 0.0232538 0)
(0.00573112 -0.00834026 0)
(0.00198213 0.065564 0)
(0.011768 0.0226163 0)
(0.0201497 -0.00611891 0)
(0.0291809 -0.0236222 0)
(0.0377125 -0.0334771 0)
(0.0458261 -0.0382995 0)
(0.0536292 -0.0399408 0)
(0.0611448 -0.0396744 0)
(0.0683736 -0.0383357 0)
(0.0753179 -0.0364347 0)
(0.0819783 -0.0342552 0)
(0.0883432 -0.0319395 0)
(0.094388 -0.0295525 0)
(0.100077 -0.0271212 0)
(0.105367 -0.0246575 0)
(0.110214 -0.0221721 0)
(0.114576 -0.0196737 0)
(0.11842 -0.0171663 0)
(0.121713 -0.0146479 0)
(0.124421 -0.0121109 0)
(0.126506 -0.00954983 0)
(0.127929 -0.00697184 0)
(0.128664 -0.00438838 0)
(0.128706 -0.00179614 0)
(0.128052 0.000832656 0)
(0.126697 0.00354262 0)
(0.124633 0.00638181 0)
(0.121859 0.00939949 0)
(0.11839 0.0126523 0)
(0.114248 0.01621 0)
(0.109458 0.0201434 0)
(0.104055 0.0245042 0)
(0.0981023 0.0293229 0)
(0.0916955 0.0345962 0)
(0.0849626 0.0402612 0)
(0.0780694 0.0461593 0)
(0.071219 0.0519872 0)
(0.0646465 0.057233 0)
(0.0586135 0.0610964 0)
(0.0534574 0.0623673 0)
(0.049329 0.0590085 0)
(0.0453329 0.04826 0)
(0.0400053 0.0286988 0)
(0.0325533 -0.00185096 0)
(0.0106378 0.0553619 0)
(0.025202 0.0149669 0)
(0.0362367 -0.0135839 0)
(0.0461053 -0.0303317 0)
(0.0543367 -0.0395276 0)
(0.0614549 -0.0438788 0)
(0.0678922 -0.0451822 0)
(0.0738797 -0.044655 0)
(0.0795549 -0.0431034 0)
(0.0850094 -0.0410197 0)
(0.0902939 -0.0386685 0)
(0.0954178 -0.0361726 0)
(0.100359 -0.0335827 0)
(0.105073 -0.030915 0)
(0.109503 -0.0281749 0)
(0.113585 -0.0253747 0)
(0.117265 -0.0225281 0)
(0.120497 -0.0196433 0)
(0.123243 -0.0167197 0)
(0.125462 -0.0137463 0)
(0.127102 -0.010714 0)
(0.128112 -0.00763718 0)
(0.128462 -0.00454257 0)
(0.12815 -0.00143812 0)
(0.127184 0.00170276 0)
(0.125565 0.00492827 0)
(0.123287 0.00828287 0)
(0.120364 0.0118042 0)
(0.116832 0.0155362 0)
(0.112744 0.0195429 0)
(0.108155 0.0238897 0)
(0.103136 0.0286084 0)
(0.097794 0.0337055 0)
(0.0922715 0.0391522 0)
(0.0867425 0.044859 0)
(0.081411 0.0506426 0)
(0.0765014 0.0561815 0)
(0.0722386 0.0609593 0)
(0.0688112 0.0641981 0)
(0.0663249 0.0647749 0)
(0.0645777 0.0610539 0)
(0.0625578 0.0510259 0)
(0.0586413 0.0331849 0)
(0.0512499 0.00522257 0)
(0.0163633 0.0384042 0)
(0.0363614 0.00338493 0)
(0.0505584 -0.0224011 0)
(0.0610664 -0.0371688 0)
(0.0688014 -0.0450294 0)
(0.074887 -0.0485495 0)
(0.0800369 -0.0493421 0)
(0.0846353 -0.0484973 0)
(0.0889201 -0.0467527 0)
(0.0930521 -0.0445546 0)
(0.0971218 -0.0421242 0)
(0.101152 -0.0395476 0)
(0.105118 -0.0368515 0)
(0.108969 -0.0340359 0)
(0.112631 -0.0310949 0)
(0.116023 -0.0280431 0)
(0.119079 -0.024903 0)
(0.121743 -0.0216893 0)
(0.123973 -0.0184054 0)
(0.125726 -0.0150347 0)
(0.126941 -0.0115592 0)
(0.127551 -0.0080037 0)
(0.12752 -0.00441881 0)
(0.126858 -0.000830494 0)
(0.125587 0.00278709 0)
(0.123714 0.00648965 0)
(0.121235 0.0103158 0)
(0.118172 0.0142843 0)
(0.114585 0.018418 0)
(0.110558 0.0227753 0)
(0.106165 0.0274178 0)
(0.101498 0.0323509 0)
(0.0966973 0.0375543 0)
(0.0919359 0.042975 0)
(0.0874129 0.0485021 0)
(0.0833464 0.0539388 0)
(0.079957 0.0589645 0)
(0.0774379 0.0630914 0)
(0.075903 0.0656187 0)
(0.0753083 0.0655901 0)
(0.0752694 0.0617498 0)
(0.0747494 0.0526684 0)
(0.0720287 0.037094 0)
(0.0648988 0.0129821 0)
(0.0200687 0.0168284 0)
(0.0462351 -0.012224 0)
(0.0630649 -0.0326181 0)
(0.0736448 -0.0440553 0)
(0.0806279 -0.0499822 0)
(0.085676 -0.0524087 0)
(0.0896683 -0.0525768 0)
(0.0930711 -0.0513842 0)
(0.0961845 -0.0494748 0)
(0.0992175 -0.0472279 0)
(0.102285 -0.0447985 0)
(0.105412 -0.0422198 0)
(0.108566 -0.0394903 0)
(0.111689 -0.0365923 0)
(0.114696 -0.0335025 0)
(0.11749 -0.0302402 0)
(0.119992 -0.0268421 0)
(0.122139 -0.0233334 0)
(0.123889 -0.0197253 0)
(0.125206 -0.0159928 0)
(0.12602 -0.0120983 0)
(0.126243 -0.00807853 0)
(0.125836 -0.00402144 0)
(0.124826 2.06174e-05 0)
(0.123258 0.00407579 0)
(0.121142 0.0082163 0)
(0.118472 0.0124731 0)
(0.115271 0.016836 0)
(0.11163 0.0212962 0)
(0.107667 0.025911 0)
(0.10346 0.0307472 0)
(0.0991097 0.0357746 0)
(0.0947833 0.0409444 0)
(0.0906733 0.0461839 0)
(0.0869894 0.0513678 0)
(0.0839498 0.0562968 0)
(0.081759 0.0606674 0)
(0.0805738 0.0640421 0)
(0.0804481 0.0658246 0)
(0.081252 0.0652494 0)
(0.0825344 0.0614012 0)
(0.0833123 0.0533383 0)
(0.0819031 0.0402757 0)
(0.0757559 0.0209235 0)
(0.0245326 -0.0105624 0)
(0.0560433 -0.0318755 0)
(0.0732504 -0.0438829 0)
(0.0830442 -0.0508273 0)
(0.0891309 -0.0544475 0)
(0.0932484 -0.055653 0)
(0.0962933 -0.0551566 0)
(0.098767 -0.0536257 0)
(0.101006 -0.0515959 0)
(0.103243 -0.049363 0)
(0.105594 -0.0469977 0)
(0.108067 -0.0444679 0)
(0.110613 -0.0417425 0)
(0.113172 -0.0387891 0)
(0.115651 -0.0355627 0)
(0.117948 -0.032093 0)
(0.119978 -0.0284368 0)
(0.121668 -0.024633 0)
(0.122979 -0.0207113 0)
(0.12389 -0.0166382 0)
(0.124327 -0.0123363 0)
(0.124178 -0.00785726 0)
(0.123401 -0.00334401 0)
(0.122047 0.00111608 0)
(0.120191 0.00556122 0)
(0.117849 0.0100977 0)
(0.114995 0.0147471 0)
(0.111657 0.0194565 0)
(0.10796 0.0241686 0)
(0.104063 0.0289508 0)
(0.100036 0.0338949 0)
(0.0959714 0.0389172 0)
(0.0920603 0.0439398 0)
(0.0885078 0.0488768 0)
(0.0855248 0.0535958 0)
(0.0833213 0.0579048 0)
(0.0820816 0.0615289 0)
(0.0819302 0.064093 0)
(0.0828798 0.0651129 0)
(0.0847641 0.0640061 0)
(0.0871421 0.0601445 0)
(0.0891641 0.0529856 0)
(0.0893658 0.0422637 0)
(0.0852929 0.0278249 0)
(0.036513 -0.0431097 0)
(0.0649628 -0.0521915 0)
(0.0795751 -0.0538692 0)
(0.0884996 -0.0564121 0)
(0.0939335 -0.0580262 0)
(0.0973436 -0.0582129 0)
(0.0996848 -0.0571824 0)
(0.10153 -0.0554003 0)
(0.103239 -0.0533052 0)
(0.105032 -0.0511176 0)
(0.106989 -0.0488341 0)
(0.109086 -0.0463677 0)
(0.111256 -0.043667 0)
(0.113427 -0.0406898 0)
(0.1155 -0.037367 0)
(0.117402 -0.033721 0)
(0.119054 -0.0298186 0)
(0.120357 -0.0257057 0)
(0.121268 -0.0214469 0)
(0.121794 -0.0170144 0)
(0.121862 -0.01228 0)
(0.121347 -0.00731998 0)
(0.120205 -0.00235481 0)
(0.118513 0.00248683 0)
(0.116386 0.00726299 0)
(0.113837 0.0121456 0)
(0.110815 0.0171463 0)
(0.107337 0.0221542 0)
(0.103583 0.027034 0)
(0.0997704 0.0318879 0)
(0.0959286 0.0368721 0)
(0.0921235 0.0418095 0)
(0.0885814 0.0465926 0)
(0.0855128 0.0511327 0)
(0.0831206 0.055297 0)
(0.0816028 0.0589084 0)
(0.0811233 0.0617275 0)
(0.0817819 0.063445 0)
(0.0835682 0.0636847 0)
(0.086312 0.0620215 0)
(0.0896282 0.0580504 0)
(0.0928468 0.0515211 0)
(0.0948479 0.0425885 0)
(0.093594 0.0323299 0)
(0.0605315 -0.0792602 0)
(0.0685121 -0.0623767 0)
(0.0809157 -0.0580148 0)
(0.0902813 -0.0588907 0)
(0.095387 -0.0593842 0)
(0.098135 -0.0589105 0)
(0.0998301 -0.0575463 0)
(0.101214 -0.0556591 0)
(0.102669 -0.05363 0)
(0.104355 -0.0516178 0)
(0.106285 -0.049544 0)
(0.108397 -0.0472697 0)
(0.110589 -0.0447389 0)
(0.112697 -0.0419005 0)
(0.114472 -0.0386299 0)
(0.116023 -0.0349685 0)
(0.117361 -0.0309424 0)
(0.118332 -0.0266006 0)
(0.118875 -0.0220456 0)
(0.119006 -0.0172659 0)
(0.11866 -0.012076 0)
(0.117742 -0.00657597 0)
(0.116232 -0.00109217 0)
(0.114211 0.00416099 0)
(0.111819 0.00924716 0)
(0.109081 0.0144436 0)
(0.105905 0.0197572 0)
(0.102289 0.0250108 0)
(0.0984865 0.0299383 0)
(0.0948037 0.0347364 0)
(0.0911748 0.0397122 0)
(0.087619 0.0444972 0)
(0.0844229 0.0489607 0)
(0.0817929 0.0530279 0)
(0.0799149 0.0565682 0)
(0.0789722 0.0594239 0)
(0.0791106 0.0613941 0)
(0.0804134 0.0622346 0)
(0.0828601 0.0616669 0)
(0.0862969 0.0593901 0)
(0.0904188 0.0551507 0)
(0.0947705 0.0488556 0)
(0.0987805 0.0408077 0)
(0.101982 0.0323542 0)
(0.0718135 -0.121675 0)
(0.0596429 -0.0657167 0)
(0.0784381 -0.0626655 0)
(0.0894077 -0.0619038 0)
(0.0945295 -0.0608622 0)
(0.097047 -0.0596284 0)
(0.0985086 -0.0579391 0)
(0.0998415 -0.055969 0)
(0.101373 -0.0539621 0)
(0.103103 -0.0519799 0)
(0.104955 -0.0498839 0)
(0.106894 -0.0475184 0)
(0.10885 -0.044845 0)
(0.110562 -0.0418177 0)
(0.111375 -0.03837 0)
(0.112481 -0.0349535 0)
(0.113758 -0.0310366 0)
(0.11478 -0.0266833 0)
(0.115441 -0.0221251 0)
(0.115546 -0.0173499 0)
(0.114834 -0.0119701 0)
(0.11346 -0.00606214 0)
(0.111603 -4.52542e-05 0)
(0.109277 0.00565993 0)
(0.10659 0.0111747 0)
(0.103623 0.0168375 0)
(0.100274 0.0225869 0)
(0.0965036 0.0281158 0)
(0.0926839 0.0329407 0)
(0.0892297 0.0374974 0)
(0.0858787 0.0424492 0)
(0.0825847 0.0470059 0)
(0.0797459 0.0510664 0)
(0.0775428 0.0545993 0)
(0.0761322 0.0574655 0)
(0.0756833 0.0595271 0)
(0.0763273 0.0606204 0)
(0.078139 0.0605614 0)
(0.081095 0.0591602 0)
(0.0850611 0.0562062 0)
(0.0898001 0.0515336 0)
(0.0950077 0.0450774 0)
(0.10043 0.0369879 0)
(0.106179 0.0278044 0)
(-0.0299373 -0.2071 0)
(0.00623185 -0.0999743 0)
(0.0305448 -0.0950777 0)
(0.0484181 -0.0845606 0)
(0.0629917 -0.0733821 0)
(0.0746153 -0.0667433 0)
(0.0838171 -0.0629514 0)
(0.0913991 -0.0605389 0)
(0.0978688 -0.058729 0)
(0.103436 -0.0570561 0)
(0.108144 -0.0551712 0)
(0.111917 -0.0527954 0)
(0.114566 -0.0496597 0)
(0.116062 -0.0453542 0)
(0.115081 -0.0396215 0)
(0.111769 -0.0359976 0)
(0.111675 -0.0315944 0)
(0.112064 -0.0267641 0)
(0.112372 -0.0218479 0)
(0.11169 -0.0167731 0)
(0.109432 -0.0110691 0)
(0.107337 -0.0049397 0)
(0.105457 0.00128818 0)
(0.103355 0.00688128 0)
(0.100819 0.0123687 0)
(0.0977268 0.0183711 0)
(0.0941264 0.024696 0)
(0.0901011 0.0307934 0)
(0.0862977 0.0357032 0)
(0.0832195 0.0400573 0)
(0.0802114 0.0451086 0)
(0.0772207 0.0493257 0)
(0.07481 0.0528868 0)
(0.0730699 0.0558473 0)
(0.0721124 0.058018 0)
(0.0720996 0.0592769 0)
(0.0731552 0.0594902 0)
(0.0753548 0.0585286 0)
(0.0786761 0.0562875 0)
(0.0829974 0.052621 0)
(0.0881223 0.047419 0)
(0.0938108 0.0405935 0)
(0.0998969 0.0320948 0)
(0.106532 0.0218066 0)
(-0.0236071 -0.119623 0)
(-0.0112425 -0.10722 0)
(0.0102438 -0.0993989 0)
(0.0274334 -0.0905744 0)
(0.0440323 -0.0819239 0)
(0.0591537 -0.0753976 0)
(0.0723255 -0.0706376 0)
(0.0836549 -0.0669523 0)
(0.09337 -0.0638345 0)
(0.101635 -0.060907 0)
(0.108538 -0.0578408 0)
(0.114114 -0.0543218 0)
(0.118404 -0.0500283 0)
(0.121817 -0.0447149 0)
(0.124508 -0.0391394 0)
(0.126495 -0.0357344 0)
(0.127612 -0.0328104 0)
(0.127295 -0.0278272 0)
(0.125281 -0.0212146 0)
(0.121422 -0.012819 0)
(0.111823 -0.00626247 0)
(0.104661 -0.00294932 0)
(0.101843 0.00266018 0)
(0.0990986 0.00828238 0)
(0.0950911 0.0137896 0)
(0.0906396 0.0200829 0)
(0.0863853 0.0265317 0)
(0.0825628 0.0325267 0)
(0.0796858 0.0372196 0)
(0.0772778 0.0417054 0)
(0.0743684 0.0472849 0)
(0.0717698 0.05124 0)
(0.0699472 0.054328 0)
(0.0687573 0.0567312 0)
(0.0682761 0.0582197 0)
(0.0686653 0.0587107 0)
(0.0700509 0.0580749 0)
(0.0725228 0.0562306 0)
(0.0760626 0.0531703 0)
(0.0805534 0.0487954 0)
(0.085813 0.0430554 0)
(0.0915872 0.0358514 0)
(0.0976273 0.0270296 0)
(0.103792 0.0161919 0)
(-0.0123782 -0.132508 0)
(-0.00798413 -0.120063 0)
(0.00482211 -0.11168 0)
(0.0189585 -0.103037 0)
(0.0345381 -0.0945556 0)
(0.0500771 -0.0872659 0)
(0.0645837 -0.0812499 0)
(0.0776468 -0.0761952 0)
(0.0891649 -0.0717402 0)
(0.0991546 -0.0675452 0)
(0.107677 -0.0632898 0)
(0.114833 -0.0586758 0)
(0.12081 -0.0534598 0)
(0.126012 -0.0475955 0)
(0.130728 -0.0418229 0)
(0.134547 -0.0371896 0)
(0.136786 -0.0325772 0)
(0.137334 -0.0264711 0)
(0.13649 -0.0185671 0)
(0.135125 -0.00877872 0)
(0.132373 0.000279289 0)
(0.128295 0.00536269 0)
(0.12214 0.00978436 0)
(0.113956 0.0177232 0)
(0.0993665 0.0225321 0)
(0.0883046 0.0245255 0)
(0.0825505 0.0293122 0)
(0.0765767 0.0345406 0)
(0.07332 0.0386038 0)
(0.070715 0.0426623 0)
(0.0680627 0.0484879 0)
(0.0667553 0.0521648 0)
(0.06575 0.0551332 0)
(0.0651419 0.0571297 0)
(0.0651837 0.0580245 0)
(0.0659423 0.0578273 0)
(0.0675735 0.05642 0)
(0.070191 0.0537531 0)
(0.0737861 0.0499373 0)
(0.078243 0.0448998 0)
(0.0833843 0.0386908 0)
(0.0888973 0.0312494 0)
(0.0943704 0.0224636 0)
(0.0992698 0.0119603 0)
(-0.00894997 -0.121376 0)
(-0.00616996 -0.125695 0)
(0.00388869 -0.121587 0)
(0.0161969 -0.114748 0)
(0.0304502 -0.106984 0)
(0.0453172 -0.0994761 0)
(0.0598058 -0.0926611 0)
(0.0733345 -0.0865357 0)
(0.0856185 -0.0809164 0)
(0.0965523 -0.0755564 0)
(0.106142 -0.0701953 0)
(0.114477 -0.0645951 0)
(0.121748 -0.058595 0)
(0.128255 -0.0522231 0)
(0.134121 -0.0459168 0)
(0.138947 -0.0400819 0)
(0.142222 -0.0339885 0)
(0.144007 -0.0267365 0)
(0.144748 -0.0180832 0)
(0.145186 -0.00841403 0)
(0.145055 0.000141702 0)
(0.143216 0.0066774 0)
(0.139028 0.013893 0)
(0.13391 0.0239469 0)
(0.127088 0.0336467 0)
(0.118454 0.0395798 0)
(0.107465 0.043282 0)
(0.095129 0.0491295 0)
(0.073575 0.0423162 0)
(0.0675802 0.0440862 0)
(0.0624263 0.0498803 0)
(0.061972 0.0525031 0)
(0.0621581 0.05519 0)
(0.0628493 0.0569716 0)
(0.0635827 0.0575828 0)
(0.0646405 0.0566999 0)
(0.0664202 0.0545971 0)
(0.0690112 0.0511741 0)
(0.0724543 0.0467205 0)
(0.076641 0.0411013 0)
(0.0814119 0.0345413 0)
(0.0863919 0.0270657 0)
(0.0910167 0.0187533 0)
(0.0944158 0.00944501 0)
(-0.00569501 -0.116754 0)
(-0.00291207 -0.130083 0)
(0.0055379 -0.12985 0)
(0.016553 -0.125093 0)
(0.0295236 -0.118396 0)
(0.0433491 -0.111125 0)
(0.0571866 -0.103944 0)
(0.0704619 -0.097081 0)
(0.0828286 -0.0905319 0)
(0.0941113 -0.0841728 0)
(0.104261 -0.0778334 0)
(0.113326 -0.0713492 0)
(0.121433 -0.0646137 0)
(0.128757 -0.0576493 0)
(0.135323 -0.0506705 0)
(0.140848 -0.0437813 0)
(0.14505 -0.0365056 0)
(0.148041 -0.0283238 0)
(0.150207 -0.0191206 0)
(0.15204 -0.00930883 0)
(0.153386 -0.000135665 0)
(0.153325 0.00806688 0)
(0.151431 0.0168125 0)
(0.148744 0.0268501 0)
(0.14517 0.0357898 0)
(0.139519 0.0425424 0)
(0.131556 0.0493506 0)
(0.123545 0.0579682 0)
(0.111764 0.0611818 0)
(0.0987189 0.0578811 0)
(0.0813644 0.0596744 0)
(0.0620212 0.0532292 0)
(0.0596517 0.0552641 0)
(0.0610023 0.0565509 0)
(0.0631145 0.056874 0)
(0.0653891 0.055602 0)
(0.0673828 0.0530994 0)
(0.0697387 0.0487656 0)
(0.0727494 0.0437599 0)
(0.0763587 0.0375884 0)
(0.0804787 0.0307988 0)
(0.084703 0.0234527 0)
(0.0883804 0.0159689 0)
(0.0904262 0.00847949 0)
(-0.00308404 -0.114637 0)
(0.000503846 -0.134463 0)
(0.00841385 -0.137373 0)
(0.0185663 -0.134496 0)
(0.0304166 -0.128887 0)
(0.0431285 -0.122039 0)
(0.056049 -0.114754 0)
(0.0686875 -0.107422 0)
(0.0807085 -0.100179 0)
(0.0919123 -0.0930166 0)
(0.102211 -0.0858531 0)
(0.111603 -0.078591 0)
(0.120151 -0.0711614 0)
(0.127932 -0.0635634 0)
(0.134933 -0.0558724 0)
(0.140982 -0.0480691 0)
(0.145954 -0.0398551 0)
(0.149963 -0.0309298 0)
(0.153293 -0.0212539 0)
(0.156234 -0.0111322 0)
(0.158676 -0.00124676 0)
(0.160035 0.00823217 0)
(0.160064 0.0180342 0)
(0.159347 0.0283845 0)
(0.157954 0.0379524 0)
(0.155073 0.0462473 0)
(0.150544 0.0544402 0)
(0.145663 0.0626328 0)
(0.138613 0.0666984 0)
(0.128828 0.0688038 0)
(0.117464 0.0727011 0)
(0.103366 0.0691341 0)
(0.0905383 0.0614674 0)
(0.0635008 0.0559265 0)
(0.0635491 0.0561276 0)
(0.0667288 0.0544017 0)
(0.0699022 0.0517678 0)
(0.0729217 0.0470351 0)
(0.0752996 0.0417738 0)
(0.0779931 0.0348023 0)
(0.081099 0.0277998 0)
(0.0843118 0.0205406 0)
(0.0870079 0.0140328 0)
(0.0880128 0.00862337 0)
(-0.00108137 -0.114592 0)
(0.00372081 -0.139427 0)
(0.0116921 -0.144673 0)
(0.0213081 -0.143275 0)
(0.032232 -0.138591 0)
(0.0438875 -0.132187 0)
(0.0558142 -0.12494 0)
(0.067634 -0.117333 0)
(0.0790602 -0.109601 0)
(0.0898999 -0.101824 0)
(0.100045 -0.0939947 0)
(0.109459 -0.0860695 0)
(0.118148 -0.0780062 0)
(0.126135 -0.0697889 0)
(0.133392 -0.0614233 0)
(0.139828 -0.0528502 0)
(0.145399 -0.0438808 0)
(0.150206 -0.034346 0)
(0.154437 -0.0242403 0)
(0.15826 -0.0137655 0)
(0.161599 -0.00329207 0)
(0.164124 0.00707893 0)
(0.165711 0.0176602 0)
(0.166665 0.0284884 0)
(0.167048 0.0388534 0)
(0.166407 0.0483889 0)
(0.164608 0.0574703 0)
(0.162242 0.0658367 0)
(0.15847 0.0715484 0)
(0.152544 0.0759537 0)
(0.145282 0.0798318 0)
(0.135917 0.0794631 0)
(0.125339 0.0772229 0)
(0.11014 0.0714725 0)
(0.0991835 0.058106 0)
(0.0715531 0.0524938 0)
(0.0729197 0.0505711 0)
(0.0765481 0.0453147 0)
(0.0792863 0.0402644 0)
(0.0818542 0.0332163 0)
(0.0835644 0.0262692 0)
(0.0854142 0.0187322 0)
(0.0869992 0.0130171 0)
(0.0872546 0.00941449 0)
(0.00064968 -0.116408 0)
(0.00663852 -0.1452 0)
(0.0148877 -0.151992 0)
(0.0241685 -0.151613 0)
(0.0343344 -0.147616 0)
(0.0450376 -0.141593 0)
(0.0559919 -0.134441 0)
(0.0669347 -0.12669 0)
(0.077643 -0.118631 0)
(0.0879494 -0.110404 0)
(0.0977436 -0.102056 0)
(0.106966 -0.0935853 0)
(0.115592 -0.0849713 0)
(0.12361 -0.0761943 0)
(0.130992 -0.067232 0)
(0.137691 -0.058022 0)
(0.143702 -0.0484448 0)
(0.149102 -0.0384051 0)
(0.154014 -0.0279089 0)
(0.158536 -0.0170841 0)
(0.162624 -0.00613701 0)
(0.16611 0.00486103 0)
(0.168942 0.0160158 0)
(0.171272 0.0272757 0)
(0.173128 0.0382274 0)
(0.174272 0.048578 0)
(0.174609 0.0583506 0)
(0.174363 0.0672712 0)
(0.173111 0.0743905 0)
(0.170331 0.0801421 0)
(0.16643 0.0846639 0)
(0.161005 0.0863213 0)
(0.154007 0.086086 0)
(0.144499 0.0823886 0)
(0.134385 0.0753328 0)
(0.119288 0.0661616 0)
(0.109283 0.0506857 0)
(0.0830468 0.0432298 0)
(0.0832688 0.0392091 0)
(0.0856494 0.0315557 0)
(0.0867553 0.0250793 0)
(0.087782 0.0182202 0)
(0.0878045 0.0132858 0)
(0.0874087 0.0106913 0)
(0.00219651 -0.120012 0)
(0.00918302 -0.151753 0)
(0.0177157 -0.159416 0)
(0.026747 -0.159616 0)
(0.0362741 -0.156055 0)
(0.0461335 -0.150309 0)
(0.0561835 -0.143262 0)
(0.0662639 -0.135446 0)
(0.076217 -0.127179 0)
(0.085909 -0.118636 0)
(0.0952391 -0.109899 0)
(0.10414 -0.100996 0)
(0.112569 -0.0919253 0)
(0.1205 -0.0826718 0)
(0.127906 -0.0732081 0)
(0.134761 -0.0634821 0)
(0.141073 -0.0534181 0)
(0.146899 -0.0429616 0)
(0.152318 -0.0321213 0)
(0.15739 -0.0209778 0)
(0.162098 -0.00965164 0)
(0.166367 0.00179535 0)
(0.170178 0.0133668 0)
(0.173609 0.024972 0)
(0.17667 0.0363394 0)
(0.179238 0.0472324 0)
(0.181245 0.0575379 0)
(0.182741 0.0670004 0)
(0.183483 0.0750894 0)
(0.183162 0.0818303 0)
(0.181934 0.0871425 0)
(0.179556 0.090171 0)
(0.175789 0.0910831 0)
(0.170233 0.0892009 0)
(0.163063 0.0849613 0)
(0.153251 0.0780327 0)
(0.143038 0.0681968 0)
(0.127727 0.0568621 0)
(0.116665 0.0413267 0)
(0.0930295 0.0305736 0)
(0.089605 0.0243843 0)
(0.088715 0.0170237 0)
(0.0876985 0.0132618 0)
(0.0869627 0.0123067 0)
(0.0851719 0.0166395 0)
(0.00355303 -0.125164 0)
(0.0112909 -0.15896 0)
(0.0200037 -0.16693 0)
(0.0287858 -0.167335 0)
(0.0377439 -0.163981 0)
(0.0468533 -0.158402 0)
(0.0560826 -0.151439 0)
(0.0653545 -0.143605 0)
(0.0745689 -0.135216 0)
(0.0836268 -0.126462 0)
(0.0924433 -0.117446 0)
(0.100953 -0.108215 0)
(0.109108 -0.0987827 0)
(0.116875 -0.0891434 0)
(0.124227 -0.079275 0)
(0.131149 -0.0691394 0)
(0.137651 -0.0586893 0)
(0.143771 -0.0478941 0)
(0.14956 -0.0367627 0)
(0.15506 -0.0253478 0)
(0.160271 -0.013727 0)
(0.165163 -0.00195932 0)
(0.169739 0.00991142 0)
(0.174038 0.0217809 0)
(0.178064 0.0334492 0)
(0.181752 0.0447152 0)
(0.185049 0.0554176 0)
(0.187936 0.0653216 0)
(0.190258 0.0740805 0)
(0.191826 0.081568 0)
(0.192652 0.0875991 0)
(0.19256 0.0916472 0)
(0.191318 0.0936124 0)
(0.188635 0.0931716 0)
(0.184293 0.0904822 0)
(0.177899 0.0854933 0)
(0.169766 0.0785784 0)
(0.158793 0.0697003 0)
(0.14693 0.0589405 0)
(0.13007 0.0472707 0)
(0.112637 0.0325495 0)
(0.0927245 0.017954 0)
(0.0862212 0.0127292 0)
(0.0831163 0.0120884 0)
(0.0823223 0.0187016 0)
(0.00470723 -0.131631 0)
(0.0129214 -0.166635 0)
(0.02165 -0.174451 0)
(0.0301302 -0.174769 0)
(0.0385499 -0.17144 0)
(0.0469823 -0.165932 0)
(0.055473 -0.159027 0)
(0.0640059 -0.151198 0)
(0.0725272 -0.142748 0)
(0.0809692 -0.133866 0)
(0.089265 -0.124661 0)
(0.0973564 -0.115194 0)
(0.105197 -0.105491 0)
(0.112752 -0.0955549 0)
(0.119996 -0.0853728 0)
(0.126916 -0.0749207 0)
(0.133519 -0.064171 0)
(0.13983 -0.0531077 0)
(0.145884 -0.0417406 0)
(0.151709 -0.0301075 0)
(0.157315 -0.0182654 0)
(0.162696 -0.0062718 0)
(0.167862 0.00580931 0)
(0.172835 0.0178716 0)
(0.177617 0.0297532 0)
(0.18217 0.0412777 0)
(0.18645 0.0522721 0)
(0.190416 0.0625227 0)
(0.193957 0.071766 0)
(0.196944 0.079821 0)
(0.199318 0.0864712 0)
(0.200923 0.0913583 0)
(0.201545 0.094304 0)
(0.200931 0.095099 0)
(0.198823 0.0937872 0)
(0.194937 0.0904448 0)
(0.189136 0.0853503 0)
(0.181035 0.0786736 0)
(0.170934 0.0709049 0)
(0.157919 0.0620436 0)
(0.14229 0.0518436 0)
(0.122706 0.0404316 0)
(0.0973519 0.0222278 0)
(0.0794165 0.0127651 0)
(0.0753303 0.0175573 0)
(0.005638 -0.139157 0)
(0.0140464 -0.174561 0)
(0.0226033 -0.181865 0)
(0.0307039 -0.18189 0)
(0.0385897 -0.178459 0)
(0.0463975 -0.172951 0)
(0.0542212 -0.166078 0)
(0.0620856 -0.158271 0)
(0.0699705 -0.149804 0)
(0.0778338 -0.140855 0)
(0.0856257 -0.131537 0)
(0.093298 -0.121915 0)
(0.100809 -0.112022 0)
(0.108124 -0.10187 0)
(0.115221 -0.0914563 0)
(0.122087 -0.0807692 0)
(0.128724 -0.0697947 0)
(0.135148 -0.0585274 0)
(0.141381 -0.0469789 0)
(0.147445 -0.0351803 0)
(0.153351 -0.0231786 0)
(0.159106 -0.0110305 0)
(0.16472 0.00119294 0)
(0.170207 0.0133884 0)
(0.175565 0.0254164 0)
(0.180771 0.0371188 0)
(0.185786 0.0483274 0)
(0.190563 0.0588472 0)
(0.195015 0.0684572 0)
(0.199038 0.0769627 0)
(0.202544 0.084149 0)
(0.205384 0.0897486 0)
(0.207361 0.093581 0)
(0.208245 0.0954956 0)
(0.207793 0.0954917 0)
(0.205766 0.0936485 0)
(0.20197 0.0901923 0)
(0.196186 0.0853853 0)
(0.188375 0.0795973 0)
(0.17832 0.0729668 0)
(0.165952 0.0656308 0)
(0.150929 0.0579151 0)
(0.130949 0.0487311 0)
(0.109536 0.0375711 0)
(0.0748234 0.018769 0)
(0.00631785 -0.147458 0)
(0.014652 -0.182508 0)
(0.0228538 -0.189045 0)
(0.0304921 -0.188654 0)
(0.0378346 -0.185044 0)
(0.0450531 -0.179494 0)
(0.0522669 -0.172641 0)
(0.0595244 -0.164867 0)
(0.0668283 -0.156417 0)
(0.0741554 -0.147453 0)
(0.0814706 -0.138083 0)
(0.0887355 -0.128372 0)
(0.0959141 -0.118359 0)
(0.102976 -0.108064 0)
(0.1099 -0.0974919 0)
(0.116671 -0.0866406 0)
(0.12329 -0.0755069 0)
(0.129764 -0.0640934 0)
(0.136107 -0.0524143 0)
(0.142336 -0.0404986 0)
(0.14846 -0.0283888 0)
(0.15449 -0.0161408 0)
(0.160435 -0.00382657 0)
(0.166302 0.0084556 0)
(0.172088 0.0205807 0)
(0.177772 0.0324057 0)
(0.18332 0.0437727 0)
(0.188685 0.0545042 0)
(0.193791 0.0644054 0)
(0.198545 0.0732867 0)
(0.202847 0.0809487 0)
(0.206557 0.0871769 0)
(0.209494 0.0918086 0)
(0.211449 0.0947281 0)
(0.212208 0.0959224 0)
(0.211563 0.09546 0)
(0.209342 0.0935177 0)
(0.205399 0.090334 0)
(0.199674 0.0862174 0)
(0.192115 0.0813869 0)
(0.182677 0.0759763 0)
(0.171231 0.0701695 0)
(0.156747 0.0636437 0)
(0.140332 0.0578517 0)
(0.118161 0.0485774 0)
(0.00672469 -0.156229 0)
(0.014744 -0.190257 0)
(0.0224288 -0.195872 0)
(0.0295302 -0.195012 0)
(0.0363136 -0.191195 0)
(0.0429644 -0.185587 0)
(0.0496097 -0.178753 0)
(0.056309 -0.171025 0)
(0.0630783 -0.16262 0)
(0.0699079 -0.153682 0)
(0.0767738 -0.144309 0)
(0.0836465 -0.134567 0)
(0.0904961 -0.124496 0)
(0.097296 -0.114121 0)
(0.104026 -0.103453 0)
(0.110672 -0.0924994 0)
(0.11723 -0.081264 0)
(0.123703 -0.069756 0)
(0.1301 -0.0579927 0)
(0.136429 -0.0460029 0)
(0.1427 -0.0338278 0)
(0.148922 -0.0215218 0)
(0.155099 -0.00915566 0)
(0.161236 0.00317844 0)
(0.167324 0.0153663 0)
(0.173344 0.0272773 0)
(0.179262 0.038766 0)
(0.185032 0.0496708 0)
(0.190582 0.0598169 0)
(0.195827 0.0690279 0)
(0.200663 0.0771232 0)
(0.204955 0.0839236 0)
(0.208541 0.0892859 0)
(0.211236 0.0931144 0)
(0.212851 0.0953896 0)
(0.21321 0.0961656 0)
(0.21217 0.0955799 0)
(0.209632 0.0938264 0)
(0.205563 0.09115 0)
(0.199973 0.0877705 0)
(0.192881 0.0838644 0)
(0.184305 0.0796004 0)
(0.173955 0.0749915 0)
(0.16204 0.0709158 0)
(0.147054 0.0657596 0)
(0.00685173 -0.165151 0)
(0.0143528 -0.197607 0)
(0.0213892 -0.202245 0)
(0.0278921 -0.200918 0)
(0.034099 -0.196902 0)
(0.0401924 -0.191243 0)
(0.0462959 -0.184437 0)
(0.0524709 -0.176773 0)
(0.0587397 -0.168439 0)
(0.065101 -0.159561 0)
(0.0715393 -0.150229 0)
(0.0780321 -0.140504 0)
(0.084555 -0.130427 0)
(0.0910851 -0.120026 0)
(0.0976035 -0.109318 0)
(0.104097 -0.0983154 0)
(0.110558 -0.0870289 0)
(0.116987 -0.0754724 0)
(0.123386 -0.0636663 0)
(0.12976 -0.0516404 0)
(0.136115 -0.0394352 0)
(0.142455 -0.0271041 0)
(0.148783 -0.014715 0)
(0.155095 -0.00235413 0)
(0.161382 0.00987362 0)
(0.167622 0.0218484 0)
(0.173779 0.0334371 0)
(0.179806 0.0444929 0)
(0.185636 0.0548584 0)
(0.191184 0.0643728 0)
(0.196347 0.0728745 0)
(0.201 0.0802091 0)
(0.204993 0.0862505 0)
(0.208162 0.0909138 0)
(0.210344 0.0941728 0)
(0.211388 0.096063 0)
(0.211176 0.0966845 0)
(0.209638 0.0961869 0)
(0.206759 0.0947578 0)
(0.20258 0.0925841 0)
(0.197168 0.0898442 0)
(0.190616 0.0867209 0)
(0.182942 0.0833404 0)
(0.174304 0.0801271 0)
(0.164195 0.0769396 0)
(0.00671192 -0.173918 0)
(0.0135326 -0.204391 0)
(0.0198227 -0.208079 0)
(0.0256796 -0.206333 0)
(0.0312924 -0.202151 0)
(0.0368302 -0.196464 0)
(0.0424053 -0.189706 0)
(0.0480753 -0.182127 0)
(0.0538643 -0.173888 0)
(0.0597754 -0.165102 0)
(0.0657988 -0.155847 0)
(0.0719177 -0.146181 0)
(0.078112 -0.136144 0)
(0.084362 -0.125764 0)
(0.0906508 -0.115064 0)
(0.0969649 -0.10406 0)
(0.103296 -0.092767 0)
(0.109639 -0.081203 0)
(0.115995 -0.0693912 0)
(0.122362 -0.0573624 0)
(0.128743 -0.045157 0)
(0.135139 -0.0328266 0)
(0.141545 -0.0204363 0)
(0.147956 -0.00806634 0)
(0.154356 0.00418704 0)
(0.160719 0.0162135 0)