/*--------------------------------*- C++ -*----------------------------------*\
| =========                 |                                                 |
| \\      /  F ield         | OpenFOAM: The Open Source CFD Toolbox           |
|  \\    /   O peration     | Version:  5.0                                   |
|   \\  /    A nd           | Web:      www.OpenFOAM.org                      |
|    \\/     M anipulation  |                                                 |
\*---------------------------------------------------------------------------*/
FoamFile
{
    version     2.0;
    format      ascii;
    class       surfaceScalarField;
    location    "0.6";
    object      alphaPhi10;
}
// * * * * * * * * * * * * * * * * * * * * * * * * * * * * * * * * * * * * * //

dimensions      [0 3 -1 0 0 0 0];

internalField   nonuniform List<scalar> 
3731
(
-6.26903e-06
-4.22892e-06
-6.2689e-06
-4.92709e-06
-5.20713e-06
-1.12111e-05
-2.1494e-06
-4.66658e-06
-1.33673e-05
4.38159e-07
-3.48858e-06
-1.29371e-05
2.07751e-06
-1.71222e-06
-1.08607e-05
3.23462e-06
6.12911e-07
-7.62612e-06
4.14562e-06
3.29233e-06
-3.48049e-06
5.09141e-06
6.19072e-06
1.61092e-06
6.37416e-06
9.10187e-06
7.98508e-06
8.31467e-06
1.15401e-05
1.62998e-05
3.72277e-28
-9.89927e-28
1.2699e-28
-4.81214e-30
7.12651e-30
1.38432e-29
2.86366e-31
6.37867e-31
-8.42928e-31
8.27918e-31
-1.32567e-29
6.38231e-30
-2.53404e-28
5.95819e-29
-7.54916e-27
1.14073e-27
-1.80454e-25
2.21767e-26
-3.08804e-24
3.24267e-25
-3.97645e-23
3.61254e-24
-4.06176e-22
3.20594e-23
-3.43145e-21
2.354e-22
-2.47794e-20
1.47499e-21
-1.57032e-19
8.09298e-21
-8.91901e-19
3.97342e-20
-4.61665e-18
1.77668e-19
-2.20631e-17
7.33519e-19
-9.83427e-17
2.82586e-18
-4.11979e-16
1.02521e-17
-1.62538e-15
3.53862e-17
-5.95766e-15
1.17504e-16
-1.91074e-14
3.80403e-16
-5.0069e-14
1.35702e-15
-1.19335e-13
6.23893e-15
-3.31828e-13
3.21622e-14
-1.21533e-12
1.78029e-13
-6.06461e-12
1.03559e-12
-3.51289e-11
6.81216e-12
-9.35979e-11
5.23833e-11
-4.69088e-10
4.22416e-10
-3.45161e-09
2.99058e-09
-2.14398e-08
1.81377e-08
-1.3105e-07
6.79075e-08
-4.1427e-07
1.42054e-07
-4.7043e-07
-2.11533e-08
-3.42369e-07
-1.49109e-07
-1.81342e-07
-1.61028e-07
-1.77875e-08
-1.63554e-07
-1.95716e-08
4.38373e-29
-1.80531e-27
-1.73341e-29
2.42718e-29
-9.97859e-29
4.15169e-29
-3.31766e-28
2.07325e-28
-2.61247e-27
1.90542e-27
-2.46372e-26
1.22071e-26
-3.28705e-25
1.18741e-25
-4.0593e-24
1.2264e-24
-4.10396e-23
1.0807e-23
-3.45401e-22
7.972e-23
-2.49667e-21
5.04321e-22
-1.59159e-20
2.80671e-21
-9.13905e-20
1.40288e-20
-4.80624e-19
6.40319e-20
-2.34543e-18
2.70547e-19
-1.07281e-17
1.06988e-18
-4.63406e-17
3.99287e-18
-1.90221e-16
1.41453e-17
-7.46479e-16
4.77338e-17
-2.80317e-15
1.53173e-16
-1.0157e-14
4.60845e-16
-2.5538e-14
1.26488e-15
-4.6851e-14
3.12328e-15
-1.09303e-13
9.80502e-15
-3.59834e-13
4.63391e-14
-1.38873e-12
2.48572e-13
-6.66979e-12
1.49006e-12
-3.40395e-11
9.51879e-12
-1.75487e-10
6.3196e-11
-8.84934e-10
4.19322e-10
-4.36128e-09
2.59262e-09
-1.95454e-08
1.31655e-08
-6.82519e-08
5.10657e-08
-1.79922e-07
1.22954e-07
-9.57785e-07
8.71927e-08
-1.78465e-06
-7.55559e-07
-1.87176e-06
-1.34405e-06
-9.76441e-07
-1.62213e-06
-1.18346e-07
-2.16606e-06
-1.38399e-07
-5.88373e-29
-7.65521e-28
-2.02306e-28
1.35434e-28
-4.55093e-27
2.34638e-27
-4.08229e-26
2.89132e-26
-1.52792e-25
1.3128e-25
-5.15341e-25
3.86453e-25
-2.80709e-24
1.41794e-24
-2.27166e-23
8.30939e-24
-1.82244e-22
5.41325e-23
-1.29383e-21
3.32907e-22
-8.18011e-21
1.86115e-21
-4.68946e-20
9.43785e-21
-2.47202e-19
4.38497e-20
-1.21112e-18
1.88626e-19
-5.56026e-18
7.57724e-19
-2.40635e-17
2.86199e-18
-9.86177e-17
1.02151e-17
-3.84232e-16
3.45571e-17
-1.41792e-15
1.10684e-16
-4.83141e-15
3.31086e-16
-1.46861e-14
8.97154e-16
-3.3216e-14
2.14699e-15
-5.92165e-14
4.95728e-15
-1.29002e-13
1.40655e-14
-3.56936e-13
5.45393e-14
-1.31636e-12
2.59081e-13
-6.03494e-12
1.41732e-12
-2.86404e-11
8.48668e-12
-1.28193e-10
5.30077e-11
-4.95334e-10
3.25491e-10
-1.50235e-09
1.80723e-09
-3.14542e-09
8.54523e-09
-1.67266e-09
3.03498e-08
2.33355e-09
6.6283e-08
-7.40544e-07
-7.60331e-08
-9.47012e-07
-1.02547e-06
-9.22886e-07
-1.73835e-06
-2.00308e-06
-3.29779e-06
-6.90096e-07
-6.65415e-06
-4.94222e-06
-5.73566e-28
3.02444e-27
-4.13481e-27
2.16298e-27
-1.77166e-25
1.00271e-25
-1.86827e-24
1.34145e-24
-6.78746e-24
6.27234e-24
-1.43179e-23
1.47558e-23
-2.84528e-23
2.59828e-23
-8.36628e-23
5.25536e-23
-4.32426e-22
1.82273e-22
-2.71208e-21
8.99496e-22
-1.63387e-20
4.55935e-21
-9.04103e-20
2.19082e-20
-4.61378e-19
9.81844e-20
-2.18851e-18
4.09365e-19
-9.70474e-18
1.59364e-18
-4.04065e-17
5.81643e-18
-1.58592e-16
1.997e-17
-5.89628e-16
6.4664e-17
-2.06388e-15
1.97214e-16
-6.51228e-15
5.56686e-16
-1.74722e-14
1.39563e-15
-3.92746e-14
3.02348e-15
-6.58248e-14
5.88506e-15
-8.06098e-14
1.09174e-14
-1.50653e-13
2.61033e-14
-3.70387e-13
9.00461e-14
-1.32099e-12
4.04941e-13
-4.7297e-12
2.14783e-12
-8.85958e-12
1.20043e-11
7.31606e-11
6.5381e-11
4.38675e-10
3.97016e-10
1.96504e-10
2.72676e-09
2.58148e-09
8.60497e-09
-1.00517e-07
1.41284e-08
-1.66501e-07
-6.18802e-08
-1.43355e-07
-2.83028e-09
-1.13233e-07
-1.02602e-08
2.36673e-08
-1.27598e-07
-9.30174e-07
-2.44868e-06
-1.70263e-05
-4.35888e-27
1.41305e-26
-5.48777e-26
4.3953e-26
-2.99864e-24
1.94813e-24
-4.59825e-23
3.54177e-23
-2.44058e-22
2.27172e-22
-6.50321e-22
6.90283e-22
-1.17076e-21
1.31164e-21
-1.81878e-21
1.94179e-21
-3.11251e-21
2.73732e-21
-7.9769e-21
4.80302e-21
-3.25381e-20
1.34219e-20
-1.57282e-19
5.11362e-20
-7.52425e-19
2.057e-19
-3.41376e-18
7.96812e-19
-1.45804e-17
2.91842e-18
-5.84229e-17
1.00825e-17
-2.19418e-16
3.28721e-17
-7.75042e-16
1.012e-16
-2.57004e-15
2.93296e-16
-7.68705e-15
7.85998e-16
-1.9205e-14
1.87006e-15
-3.93525e-14
3.80365e-15
-7.03946e-14
6.73563e-15
-1.03487e-13
1.14064e-14
-1.08153e-13
1.8947e-14
-1.40487e-13
3.59196e-14
-2.52374e-13
8.29598e-14
-9.43127e-13
2.75604e-13
-4.28341e-12
1.10264e-12
-1.86225e-11
4.84847e-12
-2.05577e-11
9.18529e-11
7.15022e-10
5.73597e-10
-9.80039e-09
4.58727e-09
-2.40171e-08
2.10549e-09
-7.75883e-10
-2.54442e-08
-1.11813e-09
-3.20326e-09
-8.48986e-09
-3.68698e-09
-1.26698e-07
-1.01896e-08
-1.18817e-06
-7.33695e-08
-2.01418e-06
-1.33641e-26
3.96332e-26
-3.83521e-25
4.03502e-25
-2.0518e-23
1.52444e-23
-4.09112e-22
3.49884e-22
-2.86064e-21
2.86609e-21
-1.00699e-20
1.11225e-20
-2.28434e-20
2.65178e-20
-3.94346e-20
4.59967e-20
-5.97798e-20
6.60758e-20
-9.24513e-20
8.91809e-20
-1.7596e-19
1.3198e-19
-4.71074e-19
2.5561e-19
-1.59016e-18
6.56478e-19
-5.76032e-18
1.9075e-18
-2.10144e-17
5.6685e-18
-7.56084e-17
1.67984e-17
-2.64117e-16
4.90464e-17
-8.83699e-16
1.38526e-16
-2.77466e-15
3.67753e-16
-7.88034e-15
9.3629e-16
-1.91381e-14
2.18486e-15
-3.79551e-14
4.37608e-15
-6.2899e-14
7.2992e-15
-9.4958e-14
1.09243e-14
-1.33022e-13
1.67508e-14
-1.38378e-13
2.59264e-14
-3.95931e-14
3.91458e-14
-3.35933e-13
4.32284e-14
-9.31153e-13
-1.4408e-13
1.79147e-12
1.32553e-12
2.49704e-11
3.40303e-11
2.08242e-10
2.40845e-10
-3.08331e-09
2.54013e-09
-6.51244e-11
-9.59802e-11
1.48191e-09
-7.60042e-09
1.49412e-10
-2.34434e-09
1.08065e-10
-4.37116e-09
-8.60223e-10
-1.02114e-08
-4.1585e-08
-3.30867e-08
-2.05581e-06
-3.15054e-26
9.99893e-26
-1.5198e-24
1.90405e-24
-7.80304e-23
6.80481e-23
-1.91113e-21
1.83883e-21
-1.63519e-20
1.79017e-20
-6.90711e-20
8.16828e-20
-1.81786e-19
2.24599e-19
-3.48521e-19
4.35705e-19
-5.5709e-19
6.73612e-19
-8.45711e-19
9.32821e-19
-1.4038e-18
1.31111e-18
-2.89227e-18
2.14452e-18
-7.14976e-18
4.28681e-18
-1.84424e-17
9.33256e-18
-4.72395e-17
1.99452e-17
-1.22937e-16
4.16195e-17
-3.3165e-16
8.77645e-17
-9.18067e-16
1.91081e-16
-2.52632e-15
4.24931e-16
-6.6243e-15
9.72137e-16
-1.55535e-14
2.02988e-15
-3.10081e-14
3.9008e-15
-5.2279e-14
6.60783e-15
-7.80651e-14
9.93319e-15
-1.10732e-13
1.41084e-14
-1.5976e-13
2.05819e-14
-2.87122e-13
2.66992e-14
-5.48587e-13
8.40775e-15
-5.32556e-13
-3.44207e-16
1.42992e-12
5.99104e-13
1.92797e-11
8.93952e-12
-2.3866e-10
1.41688e-10
9.01256e-10
2.80093e-10
2.5488e-09
-2.32359e-11
1.23062e-09
-1.04453e-09
8.65261e-10
-2.45297e-09
1.24461e-09
-5.22274e-09
1.5138e-09
-1.14596e-08
1.20403e-09
-3.40963e-08
-2.05453e-06
-3.05479e-26
9.10573e-26
-5.64954e-24
4.13617e-24
-2.28047e-22
2.1537e-22
-6.31129e-21
6.93644e-21
-5.95498e-20
7.47472e-20
-2.72064e-19
3.66726e-19
-7.56616e-19
1.0643e-18
-1.51889e-18
2.15405e-18
-2.55332e-18
3.47374e-18
-4.11581e-18
5.05178e-18
-7.27439e-18
7.49864e-18
-1.53368e-17
1.27197e-17
-3.57249e-17
2.49874e-17
-8.03968e-17
5.07039e-17
-1.66391e-16
9.55078e-17
-3.23222e-16
1.63208e-16
-6.18261e-16
2.60493e-16
-1.22117e-15
4.06559e-16
-2.54709e-15
6.4708e-16
-5.38499e-15
1.06075e-15
-1.08858e-14
1.9728e-15
-2.03095e-14
3.38393e-15
-3.43578e-14
5.13107e-15
-5.47685e-14
7.53347e-15
-8.93998e-14
1.11285e-14
-1.44121e-13
1.6409e-14
-1.59425e-13
1.78656e-14
-1.36258e-13
1.21882e-14
-1.44771e-13
1.90623e-14
5.59211e-14
1.6921e-13
7.63662e-12
1.51993e-12
1.13388e-11
5.57005e-11
5.82996e-10
4.82403e-11
6.59688e-10
-2.09204e-10
7.05989e-10
-1.14841e-09
1.67195e-09
-3.46932e-09
3.3416e-09
-7.69615e-09
5.99934e-09
-1.70464e-08
3.38273e-08
-6.31469e-08
-2.01928e-06
-6.11436e-26
1.31557e-25
-4.87302e-24
8.46959e-24
-3.95569e-22
4.59941e-22
-1.56186e-20
1.94827e-20
-1.78572e-19
2.49746e-19
-8.82363e-19
1.33998e-18
-2.5882e-18
4.064e-18
-5.42449e-18
8.5613e-18
-9.2402e-18
1.42213e-17
-1.43707e-17
2.05909e-17
-2.3016e-17
2.87834e-17
-4.35018e-17
4.39331e-17
-1.04097e-16
8.21312e-17
-2.68364e-16
1.76187e-16
-5.91873e-16
3.46544e-16
-1.05411e-15
5.70599e-16
-1.62132e-15
8.1229e-16
-2.36117e-15
1.06628e-15
-3.53088e-15
1.38175e-15
-5.69131e-15
1.83531e-15
-9.62924e-15
2.51381e-15
-1.57544e-14
3.51599e-15
-2.41805e-14
5.09408e-15
-3.50142e-14
6.8895e-15
-4.71026e-14
8.98707e-15
-5.80167e-14
1.45861e-14
-6.32227e-14
2.07918e-14
-6.03132e-14
2.03365e-14
-4.90619e-14
2.48901e-14
2.22507e-14
1.10676e-13
-2.84577e-12
7.82767e-13
2.98876e-11
1.00855e-12
9.91154e-11
-5.22508e-11
4.78416e-10
-6.06065e-10
1.85319e-09
-2.82629e-09
4.89565e-09
-7.81692e-09
9.96113e-09
-1.42006e-08
1.85343e-08
-3.08893e-08
1.44937e-07
-3.15197e-07
-1.60284e-06
-8.64442e-25
5.84029e-25
-1.23002e-22
1.29558e-22
-1.37112e-21
1.23592e-21
-3.41752e-20
6.99184e-20
-3.39681e-19
6.42622e-19
-1.67813e-18
3.25429e-18
-5.08186e-18
1.00126e-17
-1.12795e-17
2.18717e-17
-2.06184e-17
3.78481e-17
-3.36746e-17
5.60139e-17
-5.41184e-17
7.72071e-17
-1.01345e-16
1.12518e-16
-2.17316e-16
1.89441e-16
-4.25708e-16
3.38954e-16
-7.59591e-16
5.88591e-16
-1.23722e-15
9.02979e-16
-1.86738e-15
1.25878e-15
-2.79495e-15
1.67766e-15
-4.45665e-15
2.29484e-15
-7.2423e-15
2.89811e-15
-1.08147e-14
3.90738e-15
-1.46042e-14
5.14945e-15
-1.98874e-14
6.69756e-15
-3.10006e-14
9.17359e-15
-6.99318e-14
1.7124e-14
-1.51029e-13
4.2991e-14
-1.92645e-13
6.94624e-14
-1.313e-13
1.16311e-14
-4.25033e-13
4.0838e-13
-1.64238e-12
1.63122e-12
3.21649e-12
-4.53407e-12
1.18049e-10
-1.29479e-10
8.43732e-10
-8.10344e-10
3.33016e-09
-3.39289e-09
9.07948e-09
-1.0118e-08
1.69377e-08
-2.01916e-08
2.90683e-08
-3.58028e-08
4.88086e-08
-6.10723e-08
4.38025e-07
-7.83462e-07
-6.2012e-05
1.28443e-05
1.12726e-05
1.17244e-05
1.74197e-05
1.40644e-05
1.07582e-05
9.77778e-06
1.6011e-05
1.41116e-05
1.05468e-05
9.30214e-06
1.45873e-05
1.38832e-05
1.06361e-05
9.68749e-06
1.34979e-05
1.36442e-05
1.09583e-05
1.05319e-05
1.27998e-05
1.35949e-05
1.13904e-05
1.15321e-05
1.25947e-05
1.38498e-05
1.17893e-05
1.24383e-05
1.29436e-05
1.44098e-05
1.20419e-05
1.30934e-05
1.37547e-05
1.52069e-05
1.20828e-05
1.3418e-05
1.48824e-05
1.61429e-05
1.33952e-05
1.61657e-05
1.30309e-05
1.74525e-05
1.04908e-05
1.84138e-05
2.39345e-07
1.19419e-05
4.10344e-09
2.69222e-07
6.17784e-11
4.81508e-09
7.80267e-13
7.08644e-11
1.86811e-14
9.23638e-13
6.56387e-15
1.37692e-14
-3.41248e-15
-6.07052e-15
-2.07435e-14
-3.14204e-14
-2.1627e-14
-2.67667e-14
-1.51471e-14
-1.48155e-14
-8.6341e-15
-6.48457e-15
-4.32069e-15
-2.4201e-15
-1.9727e-15
-7.94533e-16
-8.38913e-16
-2.2986e-16
-3.35778e-16
-5.6602e-17
-1.27075e-16
-1.04094e-17
-4.55255e-17
-4.74761e-19
-1.53736e-17
1.23964e-18
-4.47637e-18
7.7011e-19
2.85787e-18
-4.45654e-20
-1.85578e-18
1.39327e-05
3.48703e-06
1.92122e-06
-1.37214e-06
1.34978e-08
-7.83451e-08
1.25743e-08
8.90639e-10
1.50126e-05
4.48536e-06
1.4058e-06
3.02953e-07
-9.12418e-09
1.84799e-08
3.37226e-09
-3.72166e-10
1.32475e-05
5.82513e-06
6.76274e-07
2.02988e-06
-2.03084e-10
4.9355e-08
3.02908e-09
-3.69118e-11
1.17067e-05
7.61629e-06
6.27105e-07
4.28277e-06
3.33693e-10
9.1432e-08
3.34023e-09
-2.58907e-11
1.08152e-05
9.60087e-06
1.17926e-06
7.80096e-06
1.50022e-09
4.74345e-07
4.72601e-09
6.19227e-11
1.0807e-05
1.13886e-05
5.14825e-06
1.23672e-05
4.68526e-08
4.28548e-06
5.03805e-08
1.17184e-09
1.15143e-05
1.28179e-05
9.00527e-06
1.48763e-05
1.22297e-06
1.41994e-05
1.26048e-06
1.4021e-08
1.27417e-05
1.38308e-05
1.15294e-05
1.60886e-05
7.90009e-06
1.91973e-05
1.31819e-05
1.22289e-06
1.43239e-05
1.43893e-05
1.37093e-05
1.67033e-05
1.30327e-05
1.98738e-05
2.33747e-05
8.12422e-06
1.60599e-05
1.44951e-05
1.59721e-05
1.67911e-05
1.61481e-05
1.96977e-05
2.31543e-05
1.6369e-05
1.77434e-05
1.42042e-05
1.81121e-05
1.64225e-05
1.87257e-05
1.90841e-05
2.2119e-05
1.97609e-05
1.92174e-05
1.34007e-05
1.99819e-05
1.56579e-05
2.09301e-05
1.81359e-05
2.08237e-05
2.22254e-05
1.77957e-05
4.10859e-06
2.12429e-05
1.22106e-05
2.27064e-05
1.66724e-05
1.92926e-05
2.42375e-05
3.3466e-06
3.58043e-08
1.22961e-05
1.77624e-07
2.1169e-05
3.17927e-06
1.15701e-05
2.44511e-05
3.97814e-08
8.88254e-10
2.12715e-07
5.22412e-09
2.2316e-06
3.097e-08
8.51269e-08
9.35291e-06
9.4864e-10
1.09379e-11
6.13617e-09
6.10455e-11
3.62671e-08
6.72032e-10
4.07373e-09
1.16323e-07
1.18124e-11
1.56401e-13
7.52137e-11
8.41329e-13
7.25955e-10
8.37929e-12
4.7268e-11
4.71606e-09
1.7342e-13
1.15717e-14
1.06368e-12
1.90149e-14
9.37774e-12
1.04789e-13
5.30932e-13
5.62135e-11
3.92215e-15
1.38897e-15
1.43915e-14
8.54558e-15
1.24142e-13
3.48716e-15
7.2816e-15
7.07052e-13
-1.14567e-14
-7.42626e-15
-1.55688e-16
-1.05147e-16
1.82656e-15
1.50491e-15
1.04133e-15
9.78419e-15
-1.65708e-14
-1.36986e-14
-7.76385e-15
-7.03971e-15
-6.10592e-16
-6.18209e-16
1.77513e-16
2.53224e-16
-1.11922e-14
-1.23152e-14
-7.08533e-15
-9.14361e-15
-3.16587e-15
-5.01115e-15
-2.41034e-15
-1.15546e-15
-5.40431e-15
-8.22643e-15
-3.832e-15
-7.46698e-15
-2.13078e-15
-5.87914e-15
-4.21329e-15
-8.65877e-16
-2.10634e-15
-4.63417e-15
-1.51478e-15
-4.84013e-15
-7.71985e-16
-4.61338e-15
-4.04961e-15
-7.57142e-17
-6.86785e-16
-2.3298e-15
-4.40779e-16
-2.71618e-15
-8.32031e-17
-2.95265e-15
-2.97456e-15
2.59942e-16
-1.82189e-16
-1.07658e-15
-6.74888e-17
-1.37691e-15
1.24478e-16
-1.66104e-15
-1.86768e-15
3.36373e-16
-3.25952e-17
-4.64718e-16
2.91387e-17
-6.4582e-16
1.40129e-16
-8.53776e-16
-1.0556e-15
2.75911e-16
2.26607e-18
-1.89126e-16
3.86697e-17
-2.84941e-16
9.95263e-17
-4.09424e-16
-5.52446e-16
1.83851e-16
7.81217e-18
-7.31234e-17
2.60306e-17
-1.1915e-16
5.83317e-17
-1.85464e-16
-2.72049e-16
1.07907e-16
5.22404e-18
-2.6705e-17
1.38688e-17
-4.69877e-17
3.00389e-17
-7.90902e-17
-1.25649e-16
5.70615e-17
2.32486e-18
-8.35445e-18
5.80156e-18
-1.58089e-17
1.2652e-17
-2.87586e-17
-4.93603e-17
2.51085e-17
-5.63166e-20
6.04845e-18
3.08145e-20
1.02344e-17
9.37749e-19
-1.39474e-19
-3.50567e-18
2.92744e-18
-4.88414e-18
-1.09946e-17
-2.15237e-17
-3.64562e-17
3.48894e-14
8.90605e-10
-1.00239e-20
3.48893e-14
-1.0309e-20
2.51983e-21
-8.43714e-20
1.13176e-19
-8.04992e-19
1.73236e-18
-4.06562e-18
9.59124e-18
-1.33441e-17
2.98863e-17
-2.79788e-17
6.23011e-17
-4.0074e-17
9.53869e-17
-5.13334e-17
1.18512e-16
-7.04985e-17
1.37443e-16
-1.1078e-16
1.7991e-16
-1.94385e-16
2.65141e-16
-4.19917e-16
4.57066e-16
-1.3282e-15
1.08353e-15
-3.27013e-15
2.82702e-15
-4.40979e-15
4.85486e-15
-4.47817e-15
5.49053e-15
-4.36639e-15
5.78481e-15
-4.82719e-15
6.94936e-15
-6.71835e-15
8.45707e-15
-1.38112e-14
8.26758e-15
-2.22384e-14
1.44081e-14
-2.47753e-14
1.74494e-14
-6.58441e-14
2.39278e-14
-2.45592e-13
6.11001e-14
-2.52432e-13
3.85752e-14
-2.62155e-12
2.55731e-12
-9.06148e-12
6.91798e-12
2.09857e-11
-3.08955e-11
3.98635e-10
-4.18333e-10
2.53192e-09
-2.54249e-09
9.36301e-09
-8.57803e-09
2.31515e-08
-2.08635e-08
4.21253e-08
-3.87268e-08
6.24929e-08
-6.08287e-08
9.00591e-08
-1.00447e-07
1.79151e-07
-1.90109e-07
1.5805e-06
-2.25277e-06
-0.000168256
1.04985e-12
2.63751e-10
6.0449e-21
4.84749e-13
-5.8589e-21
-1.30185e-19
-3.94981e-20
6.92532e-20
-7.92e-19
1.83268e-18
-4.38944e-18
1.21627e-17
-1.21636e-17
3.66614e-17
-2.3416e-17
7.11327e-17
-3.84743e-17
1.09776e-16
-5.66663e-17
1.54014e-16
-8.24886e-17
2.04639e-16
-1.41912e-16
2.98053e-16
-2.63716e-16
5.72615e-16
-4.91136e-16
1.15579e-15
-1.26159e-15
2.21012e-15
-2.92658e-15
5.18121e-15
-5.06142e-15
9.6625e-15
-1.41619e-14
1.49696e-14
-3.58304e-14
3.00535e-14
-4.46869e-14
4.7991e-14
-4.1283e-14
5.78696e-14
-2.07717e-14
4.70377e-14
-1.74734e-14
2.3723e-14
-3.39386e-14
2.55412e-14
-2.82109e-14
2.87745e-14
-1.10329e-13
1.54018e-13
-8.75238e-13
8.58181e-13
2.3695e-11
-2.1779e-11
3.9478e-10
-3.74191e-10
2.41843e-09
-2.20785e-09
1.12118e-08
-1.03277e-08
3.68406e-08
-3.27727e-08
8.48194e-08
-6.95849e-08
1.45171e-07
-1.11615e-07
2.00418e-07
-1.54843e-07
2.42467e-07
-2.12591e-07
3.11137e-07
-3.59403e-07
7.16844e-07
-9.22524e-07
2.15789e-06
-4.7509e-06
-0.000183395
2.74935e-13
5.91773e-11
7.96773e-16
4.62064e-13
1.2968e-20
8.92661e-16
-1.87224e-20
-8.46387e-19
-1.74511e-19
4.85957e-19
-1.36549e-18
7.83386e-18
-2.94466e-18
2.52403e-17
-1.23492e-18
3.46436e-17
-1.35928e-18
1.32165e-17
-5.79852e-18
2.49138e-17
-1.78911e-17
1.23021e-16
-3.41582e-17
2.95949e-16
-7.75232e-17
6.00256e-16
-2.32684e-16
1.64098e-15
-7.43354e-16
4.72779e-15
-1.12053e-15
1.07409e-14
-1.25265e-15
1.38887e-14
-1.39396e-15
1.57306e-14
-2.14626e-15
2.22872e-14
-2.44336e-15
4.07103e-14
1.36578e-15
5.16763e-14
7.67531e-15
3.79926e-14
2.85978e-14
6.96798e-14
5.03982e-14
7.08059e-14
4.42862e-14
4.79143e-14
1.56694e-11
-1.54466e-11
3.61146e-10
-3.28334e-10
5.13678e-09
-4.85544e-09
2.99613e-08
-2.5884e-08
1.01727e-07
-7.79634e-08
2.74471e-07
-2.03457e-07
5.26871e-07
-3.45475e-07
7.19108e-07
-3.93566e-07
8.91584e-07
-5.30201e-07
1.02994e-06
-1.38086e-06
1.06413e-06
-2.52946e-06
1.05018e-06
-5.324e-06
1.60507e-06
-1.0721e-05
4.0443e-06
-4.7729e-05
-0.000178629
3.90461e-14
3.27616e-11
5.32275e-15
4.93976e-13
4.92513e-17
6.18177e-15
2.50177e-18
4.53539e-17
-1.51711e-19
-2.46516e-18
3.09334e-20
9.32955e-20
2.2763e-19
2.50436e-17
-2.34219e-18
-2.35826e-17
-2.19662e-17
-1.80469e-16
-4.90496e-17
-3.26876e-16
-5.13347e-17
-2.77914e-16
-1.0492e-17
-4.66339e-17
1.22967e-17
5.77467e-16
3.76523e-17
1.61563e-15
1.16496e-16
4.64894e-15
2.79493e-16
1.05779e-14
3.82603e-16
1.37856e-14
4.64621e-16
1.56486e-14
7.38289e-16
2.20136e-14
1.27932e-15
4.01692e-14
1.74109e-15
5.13615e-14
1.53892e-14
2.68021e-14
5.47568e-14
1.72267e-14
4.59557e-14
5.35102e-15
2.12375e-10
-2.12529e-10
4.77991e-09
-4.59306e-09
4.01594e-08
-3.5674e-08
2.19622e-07
-1.85056e-07
5.27912e-07
-3.47058e-07
1.54803e-06
-2.60637e-06
4.70585e-06
-9.89948e-06
9.22654e-06
-1.94485e-05
1.35013e-05
-2.97116e-05
1.55841e-05
-3.9026e-05
1.56552e-05
-4.73971e-05
1.48826e-05
-5.62355e-05
1.43032e-05
-6.97235e-05
1.32648e-05
-8.84104e-05
1.193e-05
-0.000130249
-0.000170228
1.3686e-12
9.64312e-11
3.47549e-14
1.81161e-12
6.54057e-16
3.9889e-14
1.95616e-17
6.96546e-16
2.02318e-18
1.52735e-17
-1.55836e-18
-6.7286e-18
-2.38654e-14
-8.86681e-14
-6.84713e-14
-2.19617e-13
-1.11349e-13
-3.0849e-13
-1.34372e-13
-3.2066e-13
-1.32998e-13
-2.72952e-13
-1.13401e-13
-2.00935e-13
-9.01501e-14
-1.39012e-13
-1.40329e-13
-1.90021e-13
-3.22576e-13
-3.87258e-13
-5.90462e-13
-6.28395e-13
-8.3426e-13
-7.76992e-13
-9.72995e-13
-7.5752e-13
-9.79646e-13
-6.18561e-13
-8.73116e-13
-4.39352e-13
-7.06419e-13
-2.71527e-13
-5.69038e-13
-1.33497e-13
-4.58463e-13
-3.96135e-14
1.14441e-09
-1.14487e-09
3.68874e-08
-3.59015e-08
1.81351e-07
-1.48535e-07
1.6948e-06
-9.476e-07
1.02702e-05
-8.91935e-06
2.31693e-05
-2.07472e-05
3.35386e-05
-2.96319e-05
3.91501e-05
-3.56977e-05
4.2097e-05
-4.14384e-05
4.29138e-05
-4.75793e-05
4.19377e-05
-5.44631e-05
3.97929e-05
-6.25051e-05
3.67535e-05
-7.23402e-05
3.26292e-05
-8.4905e-05
2.64926e-05
-0.000101574
1.74045e-05
-0.000125413
-0.000154976
3.40771e-11
1.23555e-09
9.66606e-13
3.422e-11
2.91687e-14
9.56462e-13
7.61582e-16
1.82496e-14
1.39668e-16
6.13708e-16
1.19335e-16
1.36036e-17
-1.21517e-13
-2.52614e-13
-3.76506e-13
-6.8982e-13
-6.51011e-13
-1.05487e-12
-8.27988e-13
-1.1822e-12
-8.59514e-13
-1.07765e-12
-7.66475e-13
-8.46511e-13
-6.18116e-13
-6.04148e-13
-6.30853e-13
-5.46769e-13
-9.75868e-13
-7.57773e-13
-1.56136e-12
-1.0833e-12
-2.1024e-12
-1.28764e-12
-2.39097e-12
-1.2017e-12
-2.33961e-12
-9.27445e-13
-2.03745e-12
-6.01525e-13
-1.58492e-12
-3.35607e-13
-1.07277e-12
-1.43917e-13
-5.26706e-13
-3.08461e-14
6.21426e-07
-3.54305e-08
5.61341e-06
-2.07838e-06
1.93861e-05
-7.61271e-06
3.92159e-05
-1.40311e-05
4.74476e-05
-1.95888e-05
5.12643e-05
-2.45635e-05
5.1168e-05
-2.95356e-05
5.01695e-05
-3.46992e-05
4.88937e-05
-4.01626e-05
4.7391e-05
-4.60766e-05
4.56062e-05
-5.26783e-05
4.34147e-05
-6.03136e-05
4.05635e-05
-6.9489e-05
3.65597e-05
-8.09012e-05
3.04027e-05
-9.54169e-05
1.9358e-05
-0.000114368
-0.000135618
3.17988e-10
1.49354e-08
1.13299e-11
3.39401e-10
2.9783e-13
1.15254e-11
1.94246e-14
4.80827e-13
9.88464e-16
1.51514e-14
7.71825e-16
1.96537e-16
-2.35434e-13
-3.35715e-13
-7.86201e-13
-1.00944e-12
-1.42508e-12
-1.65565e-12
-1.86759e-12
-1.94748e-12
-1.97151e-12
-1.83327e-12
-1.76513e-12
-1.47399e-12
-1.40285e-12
-1.05299e-12
-1.17747e-12
-7.83646e-13
-1.27746e-12
-7.63825e-13
-1.59135e-12
-8.42584e-13
-1.81346e-12
-8.30425e-13
-1.70653e-12
-6.57035e-13
-1.21866e-12
-3.82974e-13
-6.45066e-13
-1.61198e-13
-9.97852e-14
-1.84975e-14
4.25738e-06
1.95846e-06
1.76963e-05
1.52198e-06
3.8696e-05
-8.23198e-07
5.26161e-05
-4.95964e-06
5.49041e-05
-9.80108e-06
5.52077e-05
-1.43341e-05
5.45779e-05
-1.8959e-05
5.36647e-05
-2.36502e-05
5.25671e-05
-2.8438e-05
5.1287e-05
-3.34191e-05
4.98239e-05
-3.86995e-05
4.81669e-05
-4.44196e-05
4.62642e-05
-5.07756e-05
4.3979e-05
-5.80285e-05
4.10088e-05
-6.65187e-05
3.67607e-05
-7.66531e-05
3.01173e-05
-8.87735e-05
1.8817e-05
-0.000103068
-0.000116801
3.78506e-08
1.20109e-06
1.47135e-09
3.67096e-08
7.17206e-11
1.44319e-09
4.10468e-12
7.01042e-11
2.54496e-13
3.7761e-12
2.16908e-14
2.32654e-13
-1.28326e-13
-1.46035e-13
-7.50157e-13
-7.84303e-13
-1.53846e-12
-1.48801e-12
-2.07252e-12
-1.82254e-12
-2.15869e-12
-1.70332e-12
-1.83464e-12
-1.32512e-12
-1.34625e-12
-8.91114e-13
-9.29067e-13
-6.24989e-13
-7.2693e-13
-3.93653e-13
-5.46459e-13
-2.61751e-13
-2.44394e-13
-1.00946e-13
1.79012e-06
4.51276e-06
1.19811e-05
7.18471e-06
2.70761e-05
9.5741e-06
4.12108e-05
9.58442e-06
5.06124e-05
6.90316e-06
5.6166e-05
3.0889e-06
5.78356e-05
-8.72594e-07
5.78473e-05
-4.96578e-06
5.72286e-05
-9.18277e-06
5.63914e-05
-1.34969e-05
5.536e-05
-1.79276e-05
5.41635e-05
-2.24537e-05
5.28174e-05
-2.7092e-05
5.13137e-05
-3.19154e-05
4.9639e-05
-3.70248e-05
4.77702e-05
-4.25506e-05
4.56437e-05
-4.86488e-05
4.31027e-05
-5.54873e-05
3.98182e-05
-6.32342e-05
3.51864e-05
-7.20213e-05
2.81987e-05
-8.17859e-05
1.72042e-05
-9.20735e-05
-9.95967e-05
2.30105e-06
1.84952e-05
1.3172e-07
2.20937e-06
6.65257e-09
1.26854e-07
3.7673e-10
6.34322e-09
2.40664e-11
3.56777e-10
1.6918e-12
2.26138e-11
1.18331e-13
1.42744e-12
-1.69771e-13
-1.66321e-13
-7.15435e-13
-6.55263e-13
-1.03835e-12
-8.9637e-13
-9.44733e-13
-7.39998e-13
-5.79971e-13
-4.06011e-13
-2.34135e-13
-1.46254e-13
7.27976e-07
5.88279e-06
6.05987e-06
9.43462e-06
1.60024e-05
1.32395e-05
3.13887e-05
1.7369e-05
4.62143e-05
1.90417e-05
5.44641e-05
1.64769e-05
5.83901e-05
1.32491e-05
5.95511e-05
9.95715e-06
5.98351e-05
6.63903e-06
5.97379e-05
3.18685e-06
5.93112e-05
-4.48984e-07
5.8616e-05
-4.27246e-06
5.76897e-05
-8.25641e-06
5.65753e-05
-1.23826e-05
5.52954e-05
-1.66477e-05
5.38718e-05
-2.10301e-05
5.23122e-05
-2.55324e-05
5.06009e-05
-3.02041e-05
4.87117e-05
-3.51356e-05
4.66088e-05
-4.04477e-05
4.42197e-05
-4.62596e-05
4.13813e-05
-5.26485e-05
3.77713e-05
-5.96241e-05
3.2841e-05
-6.70909e-05
2.57777e-05
-7.47226e-05
1.54279e-05
-8.17237e-05
-8.41575e-05
1.24393e-05
3.01677e-05
3.02814e-06
2.98391e-05
2.13276e-06
1.61611e-05
2.5101e-07
3.50075e-06
1.58281e-08
2.35567e-07
1.04939e-09
1.48029e-08
7.39484e-11
9.76963e-10
5.50205e-12
6.828e-11
3.79268e-13
4.46752e-12
1.56433e-07
1.78177e-06
4.77069e-06
1.10654e-05
1.62483e-05
1.84782e-05
2.98439e-05
2.56254e-05
4.03732e-05
2.85003e-05
4.76938e-05
2.67561e-05
5.38635e-05
2.41606e-05
5.80459e-05
2.13495e-05
5.93591e-05
1.84423e-05
6.02434e-05
1.56073e-05
6.07591e-05
1.2738e-05
6.09144e-05
9.80248e-06
6.07885e-05
6.76511e-06
6.03894e-05
3.58593e-06
5.97114e-05
2.29014e-07
5.87645e-05
-3.32552e-06
5.75871e-05
-7.07893e-06
5.62286e-05
-1.10241e-05
5.47252e-05
-1.51443e-05
5.30981e-05
-1.9403e-05
5.13449e-05
-2.37792e-05
4.94371e-05
-2.82965e-05
4.73342e-05
-3.30327e-05
4.4991e-05
-3.81046e-05
4.23362e-05
-4.36048e-05
3.92177e-05
-4.953e-05
3.5344e-05
-5.57503e-05
3.02491e-05
-6.1996e-05
2.33137e-05
-6.77872e-05
1.37488e-05
-7.21587e-05
-6.21739e-05
2.14152e-05
2.85174e-05
2.21955e-05
3.23942e-05
1.81616e-05
3.57274e-05
1.57488e-05
3.78996e-05
1.59087e-05
3.74757e-05
1.62735e-05
3.63715e-05
1.72198e-05
3.47576e-05
1.91007e-05
3.41584e-05
2.32417e-05
3.39367e-05
3.1442e-05
3.48262e-05
4.19386e-05
3.48606e-05
5.01698e-05
3.27361e-05
5.43512e-05
3.01794e-05
5.59536e-05
2.76353e-05
5.75473e-05
2.51995e-05
5.89884e-05
2.27399e-05
6.01234e-05
2.02269e-05
6.08961e-05
1.76726e-05
6.14123e-05
1.50915e-05
6.16723e-05
1.24782e-05
6.16621e-05
9.8127e-06
6.13652e-05
7.06204e-06
6.07671e-05
4.18396e-06
5.98643e-05
1.13183e-06
5.86757e-05
-2.13688e-06
5.72466e-05
-5.6499e-06
5.56367e-05
-9.41418e-06
5.38968e-05
-1.34045e-05
5.20534e-05
-1.75596e-05
5.00987e-05
-2.18245e-05
4.79903e-05
-2.61885e-05
4.56705e-05
-3.07128e-05
4.30883e-05
-3.55224e-05
4.01842e-05
-4.07008e-05
3.6831e-05
-4.61766e-05
3.27785e-05
-5.16978e-05
2.76407e-05
-5.68582e-05
2.09325e-05
-6.1079e-05
1.20479e-05
-6.32742e-05
-4.11458e-05
2.41603e-05
2.65827e-05
2.65784e-05
2.99793e-05
2.94443e-05
3.28885e-05
3.25741e-05
3.51381e-05
3.5647e-05
3.65661e-05
3.85108e-05
3.72323e-05
4.12883e-05
3.72314e-05
4.40476e-05
3.67132e-05
4.6959e-05
3.57191e-05
4.95368e-05
3.42666e-05
5.20105e-05
3.2454e-05
5.43525e-05
3.04372e-05
5.62583e-05
2.82947e-05
5.78013e-05
2.60985e-05
5.91329e-05
2.38695e-05
6.0269e-05
2.16045e-05
6.119e-05
1.93062e-05
6.18769e-05
1.69859e-05
6.23144e-05
1.4654e-05
6.24827e-05
1.23099e-05
6.23576e-05
9.93777e-06
6.19143e-05
7.50531e-06
6.11338e-05
4.96452e-06
6.00115e-05
2.25406e-06
5.85679e-05
-6.93257e-07
5.68549e-05
-3.93684e-06
5.49463e-05
-7.50561e-06
5.2915e-05
-1.13732e-05
5.08037e-05
-1.54483e-05
4.86115e-05
-1.96323e-05
4.62864e-05
-2.38634e-05
4.37462e-05
-2.8173e-05
4.0935e-05
-3.27112e-05
3.78151e-05
-3.75808e-05
3.42935e-05
-4.2655e-05
3.01646e-05
-4.75688e-05
2.51079e-05
-5.18016e-05
1.87305e-05
-5.47016e-05
1.05876e-05
-5.51313e-05
-2.80059e-05
2.62699e-05
2.45498e-05
2.86907e-05
2.75573e-05
3.14773e-05
3.01032e-05
3.45112e-05
3.20847e-05
3.76277e-05
3.34425e-05
4.06898e-05
3.41697e-05
4.36168e-05
3.43131e-05
4.6384e-05
3.39575e-05
4.8996e-05
3.31175e-05
5.142e-05
3.1849e-05
5.36187e-05
3.02586e-05
5.55992e-05
2.8459e-05
5.73543e-05
2.65408e-05
5.88924e-05
2.45607e-05
6.02203e-05
2.25416e-05
6.1335e-05
2.04898e-05
6.22252e-05
1.8416e-05
6.28746e-05
1.63364e-05
6.32629e-05
1.42656e-05
6.33645e-05
1.22084e-05
6.31476e-05
1.01547e-05
6.25779e-05
8.07496e-06
6.16259e-05
5.91651e-06
6.02772e-05
3.6028e-06
5.85437e-05
1.04019e-06
5.64794e-05
-1.87244e-06
5.41811e-05
-5.20741e-06
5.17574e-05
-8.9494e-06
4.92823e-05
-1.29732e-05
4.67852e-05
-1.71352e-05
4.42162e-05
-2.12945e-05
4.14595e-05
-2.54164e-05
3.8445e-05
-2.96968e-05
3.51652e-05
-3.43011e-05
3.15677e-05
-3.90575e-05
2.7489e-05
-4.34901e-05
2.26611e-05
-4.69737e-05
1.67604e-05
-4.88009e-05
9.45245e-06
-4.78233e-05
-2.63628e-05
2.78794e-05
2.11202e-05
3.04334e-05
2.50064e-05
3.3155e-05
2.73826e-05
3.60408e-05
2.91972e-05
3.9017e-05
3.04636e-05
4.19906e-05
3.11879e-05
4.48609e-05
3.14437e-05
4.75719e-05
3.12477e-05
5.01133e-05
3.05771e-05
5.24856e-05
2.94774e-05
5.46695e-05
2.80751e-05
5.66511e-05
2.64776e-05
5.84236e-05
2.47684e-05
5.99823e-05
2.30021e-05
6.13234e-05
2.12005e-05
6.24427e-05
1.93714e-05
6.33297e-05
1.75297e-05
6.39669e-05
1.56995e-05
6.43313e-05
1.39013e-05
6.43931e-05
1.21465e-05
6.41123e-05
1.04354e-05
6.3441e-05
8.74614e-06
6.23303e-05
7.0271e-06
6.07419e-05
5.19114e-06
5.86692e-05
3.11285e-06
5.6135e-05
6.61822e-07
5.32741e-05
-2.34651e-06
5.02761e-05
-5.95139e-06
4.72846e-05
-9.98172e-06
4.43835e-05
-1.42341e-05
4.15423e-05
-1.84533e-05
3.8592e-05
-2.24662e-05
3.54286e-05
-2.65334e-05
3.20793e-05
-3.09518e-05
2.85338e-05
-3.5512e-05
2.46615e-05
-3.96179e-05
2.02308e-05
-4.25429e-05
1.49596e-05
-4.35297e-05
8.52689e-06
-4.13906e-05
-2.38762e-05
2.03601e-05
7.59337e-07
2.88403e-05
7.10489e-06
3.28434e-05
1.60663e-05
3.73303e-05
2.47034e-05
4.03444e-05
2.74483e-05
4.32311e-05
2.83022e-05
4.60311e-05
2.8645e-05
4.86996e-05
2.85803e-05
5.12173e-05
2.80601e-05
5.35753e-05
2.71198e-05
5.5752e-05
2.58987e-05
5.77355e-05
2.44941e-05
5.95206e-05
2.29834e-05
6.11012e-05
2.14214e-05
6.24719e-05
1.983e-05
6.3624e-05
1.82192e-05
6.45423e-05
1.66114e-05
6.5203e-05
1.50386e-05
6.55781e-05
1.35261e-05
6.56329e-05
1.20915e-05
6.51163e-05
8.67111e-06
6.36516e-05
7.23667e-06
6.22646e-05
6.15677e-06
6.07776e-05
5.27783e-06
5.90046e-05
4.88591e-06
5.58919e-05
3.77448e-06
5.2119e-05
1.42644e-06
4.81111e-05
-1.94318e-06
4.43298e-05
-6.19984e-06
4.09272e-05
-1.08309e-05
3.78432e-05
-1.53691e-05
3.47913e-05
-1.94144e-05
3.15971e-05
-2.33389e-05
2.83299e-05
-2.76845e-05
2.50154e-05
-3.21976e-05
2.15401e-05
-3.61426e-05
1.76889e-05
-3.86917e-05
1.31897e-05
-3.90305e-05
7.67925e-06
-3.58802e-05
-1.70043e-05
5.82428e-07
1.5549e-08
4.26387e-06
7.93086e-08
1.22995e-05
1.1178e-07
2.33723e-05
5.45545e-07
3.2337e-05
4.63558e-06
3.79278e-05
9.58773e-06
4.14392e-05
1.24861e-05
4.43711e-05
1.35438e-05
4.73527e-05