/*--------------------------------*- C++ -*----------------------------------*\
| =========                 |                                                 |
| \\      /  F ield         | OpenFOAM: The Open Source CFD Toolbox           |
|  \\    /   O peration     | Version:  5.0                                   |
|   \\  /    A nd           | Web:      www.OpenFOAM.org                      |
|    \\/     M anipulation  |                                                 |
\*---------------------------------------------------------------------------*/
FoamFile
{
    version     2.0;
    format      ascii;
    class       volScalarField;
    location    "0.6";
    object      alpha.water;
}
// * * * * * * * * * * * * * * * * * * * * * * * * * * * * * * * * * * * * * //

dimensions      [0 0 0 0 0 0 0];

internalField   nonuniform List<scalar> 
1915
(
0.999946
0.999383
0.98473
0.99921
0.969747
0.998743
0.96977
0.998431
0.98879
0.999852
0.999759
1
0.99999
0.999999
1
1
1
1
1
1
5.54424e-23
3.01089e-23
6.18362e-24
1.60597e-25
1.866e-25
1.09431e-24
5.85946e-24
6.69733e-23
1.24714e-21
1.93708e-20
2.32769e-19
2.24805e-18
1.81353e-17
1.26092e-16
7.74927e-16
4.29604e-15
2.18341e-14
1.03027e-13
4.55797e-13
1.90484e-12
7.54302e-12
2.79783e-11
9.22214e-11
2.4831e-10
5.66567e-10
1.36137e-09
4.23761e-09
1.83563e-08
9.8847e-08
1.89392e-07
5.31045e-08
-1.77808e-08
-1.11861e-08
0.000127917
0.000806862
0.000573568
0.000193481
5.86821e-20
0
-3.89717e-07
2.13794e-22
8.81572e-24
5.60242e-24
9.42686e-24
6.95288e-23
2.84393e-22
2.0108e-21
2.10154e-20
2.01745e-19
1.64331e-18
1.15861e-17
7.24633e-17
4.10257e-16
2.13648e-15
1.03629e-14
4.72739e-14
2.04308e-13
8.41396e-13
3.32186e-12
1.26128e-11
4.57926e-11
1.28692e-10
2.46379e-10
4.61492e-10
1.40484e-09
4.8175e-09
2.02711e-08
9.00314e-08
4.0057e-07
1.65612e-06
6.31741e-06
2.377e-05
7.65216e-05
0.000273988
0.00379261
0.00964083
0.0113005
0.00963476
0.00310818
-1.76662e-06
3.24755e-22
1.13766e-23
7.407e-23
7.98478e-22
3.24686e-21
8.15083e-21
2.29151e-20
1.25154e-19
9.35186e-19
6.5495e-18
4.09184e-17
2.32071e-16
1.213e-15
5.90699e-15
2.70305e-14
1.16998e-13
4.81435e-13
1.89222e-12
7.11063e-12
2.50952e-11
7.96853e-11
1.99859e-10
3.85608e-10
7.71108e-10
2.25717e-09
7.99821e-09
3.33602e-08
1.44398e-07
6.18701e-07
2.56739e-06
1.01131e-05
3.67943e-05
0.000121198
0.000362907
0.00446092
0.0143561
0.0188279
0.0261416
0.0293842
0.0132685
4.61588e-22
3.21802e-23
1.92536e-21
2.63839e-20
1.1795e-19
2.65803e-19
4.49439e-19
8.44063e-19
2.81708e-18
1.52404e-17
8.922e-17
4.8883e-16
2.47339e-15
1.16638e-14
5.15933e-14
2.15053e-13
8.48261e-13
3.18227e-12
1.13624e-11
3.75921e-11
1.08439e-10
2.59873e-10
4.84028e-10
7.9288e-10
1.80806e-09
5.66916e-09
2.18687e-08
9.08055e-08
3.80099e-07
1.4698e-06
6.63803e-06
3.59538e-05
0.000117556
0.000562191
0.00167202
0.00138309
0.000824749
0.0034822
0.0319591
0.0907142
7.82699e-22
1.78089e-22
2.40582e-20
5.39273e-19
3.50085e-18
1.04769e-17
1.97527e-17
2.94056e-17
4.20856e-17
7.57995e-17
2.27656e-16
9.77206e-16
4.49864e-15
2.0053e-14
8.50124e-14
3.40898e-13
1.28824e-12
4.59258e-12
1.54746e-11
4.82641e-11
1.30845e-10
2.92153e-10
5.46756e-10
8.93282e-10
1.44624e-09
3.26783e-09
1.0436e-08
3.95065e-08
1.58449e-07
6.53746e-07
2.57485e-06
1.13404e-05
9.03989e-05
0.000433282
0.000479632
1.91815e-05
1.92612e-05
2.38453e-05
0.00027872
0.0440338
1.2067e-21
1.42277e-21
1.30469e-19
4.52464e-18
3.91742e-17
1.52245e-16
3.62595e-16
6.34316e-16
9.30139e-16
1.29597e-15
2.01049e-15
4.23189e-15
1.23232e-14
4.14962e-14
1.44497e-13
5.04419e-13
1.73688e-12
5.80498e-12
1.84968e-11
5.44401e-11
1.40898e-10
3.05499e-10
5.48416e-10
8.59011e-10
1.30736e-09
2.23884e-09
5.00987e-09
1.83028e-08
7.033e-08
2.14772e-07
6.51927e-07
2.22598e-06
7.41797e-05
0.000229189
0.00017883
1.82348e-05
1.89467e-05
1.96582e-05
1.43945e-05
-3.62401e-08
2.76997e-21
2.53937e-21
4.41381e-19
2.12582e-17
2.27898e-16
1.06089e-15
2.94408e-15
5.78825e-15
9.13822e-15
1.30124e-14
1.8912e-14
3.24976e-14
7.07499e-14
1.73484e-13
4.28745e-13
1.06309e-12
2.72388e-12
7.259e-12
1.96489e-11
5.19009e-11
1.27172e-10
2.71745e-10
4.93828e-10
7.81969e-10
1.15456e-09
1.77889e-09
3.37208e-09
7.50291e-09
1.54162e-08
3.23958e-08
1.23978e-07
3.12211e-06
5.2856e-05
7.19824e-05
2.7835e-05
1.65596e-05
1.82281e-05
2.19025e-05
2.47618e-05
-1.85537e-07
1.77974e-21
2.74722e-21
1.33628e-18
7.73615e-17
9.05166e-16
4.54667e-15
1.34047e-14
2.76051e-14
4.55995e-14
6.85376e-14
1.06303e-13
1.92205e-13
4.09716e-13
9.0314e-13
1.87202e-12
3.61812e-12
6.75342e-12
1.277e-11
2.53588e-11
5.26271e-11
1.0741e-10
2.0649e-10
3.66307e-10
6.02406e-10
9.69773e-10
1.58299e-09
2.17714e-09
2.23622e-09
1.73647e-09
4.41262e-09
2.371e-08
3.93395e-06
1.7346e-05
1.32559e-05
7.78034e-06
9.85557e-06
1.49471e-05
3.3216e-05
3.94847e-05
-3.37449e-06
4.57441e-23
2.4177e-21
1.82566e-18
1.92545e-16
2.97126e-15
1.67281e-14
5.18456e-14
1.11139e-13
1.8855e-13
2.8176e-13
4.12944e-13
6.72322e-13
1.36336e-12
3.29492e-12
7.61097e-12
1.45452e-11
2.32914e-11
3.38411e-11
4.85931e-11
7.39467e-11
1.21354e-10
2.01912e-10
3.18203e-10
4.73288e-10
6.66114e-10
8.71375e-10
1.05457e-09
1.20694e-09
1.30709e-09
1.67663e-09
4.56208e-08
8.38917e-07
8.77103e-07
1.3365e-06
3.67698e-06
1.25672e-05
3.02356e-05
0.00010475
0.000782085
-0.00222142
9.13191e-22
2.32303e-21
7.2278e-18
7.45041e-16
7.22525e-15
3.88699e-14
1.22383e-13
2.73659e-13
4.9482e-13
7.91352e-13
1.20606e-12
1.9441e-12
3.77013e-12
7.58965e-12
1.35133e-11
2.23064e-11
3.41311e-11
4.99615e-11
7.50796e-11
1.20183e-10
1.87125e-10
2.675e-10
3.64611e-10
5.51198e-10
1.07635e-09
2.5481e-09
4.49262e-09
5.18412e-09
1.76805e-09
5.2216e-09
5.58452e-08
4.18156e-07
1.15516e-06
3.58686e-06
1.2822e-05
4.05149e-05
0.000102356
0.000277378
0.00213894
0.162227
1
1
1
1
1
1
1
1
1
1
1
1
1
1
1
1
1
1
1
1
1
0.999994
0.3234
6.95952e-05
1.22923e-06
-1.67471e-08
2.04241e-10
-5.91798e-13
-3.57778e-10
-2.04341e-09
-1.9616e-09
-1.24881e-09
-6.43099e-10
-2.90457e-10
-1.19982e-10
-4.63704e-11
-1.69604e-11
-5.9001e-12
-1.95445e-12
-6.13723e-13
-1.67059e-13
0
2.59048e-13
1
0.575258
0.0135212
-2.6529e-07
1
0.571061
0.00956529
4.65935e-06
1
0.512776
0.00382711
1.53344e-06
1
0.518655
0.00429962
2.74252e-07
1
0.596864
0.0105085
7.60495e-07
1
0.922972
0.0852789
5.57868e-06
1
1
0.411562
2.07076e-05
1
1
0.970601
0.199637
1
1
0.999999
0.875816
1
1
1
0.999961
1
1
1
0.999999
1
1
0.999997
0.999997
0.741292
0.999993
0.999997
0.999989
0.0521556
0.282172
0.643554
0.951716
1.47576e-05
8.4655e-05
0.0284573
0.169696
1.59915e-07
1.59804e-06
1.31792e-05
7.1174e-05
4.12757e-09
2.02393e-08
-7.90307e-08
9.82125e-07
6.72756e-11
4.32996e-10
3.30846e-09
2.24601e-08
-1.61467e-13
-1.09955e-25
8.486e-11
5.381e-10
-7.76264e-10
-1.10238e-11
0
1.21479e-11
-1.30404e-09
-6.65464e-10
-5.79303e-11
0
-1.05092e-09
-7.64487e-10
-4.10087e-10
-1.92513e-10
-6.2521e-10
-5.48376e-10
-4.17017e-10
-2.88099e-10
-3.13659e-10
-3.12558e-10
-2.84272e-10
-2.37906e-10
-1.40984e-10
-1.55081e-10
-1.59186e-10
-1.51464e-10
-5.85958e-11
-7.00353e-11
-7.90742e-11
-8.33123e-11
-2.29068e-11
-2.95066e-11
-3.62346e-11
-4.16986e-11
-8.50238e-12
-1.17898e-11
-1.56346e-11
-1.95228e-11
-3.01875e-12
-4.49924e-12
-6.42706e-12
-8.68048e-12
-1.01889e-12
-1.63083e-12
-2.50655e-12
-3.65007e-12
-2.96351e-13
-5.07612e-13
-8.3938e-13
-1.31517e-12
3.52602e-15
0
-3.7729e-15
-8.62465e-14
5.20085e-13
9.21049e-13
1.4417e-12
2.04269e-12
-2.55635e-20
2.5371e-19
6.5691e-33
1.67251e-15
2.52315e-14
1.19803e-13
3.91593e-13
8.89154e-13
1.41916e-12
1.78287e-12
2.19763e-12
3.13885e-12
5.17833e-12
9.78992e-12
2.35327e-11
6.42509e-11
1.14034e-10
1.3201e-10
1.29933e-10
1.23387e-10
1.67089e-10
2.74389e-10
5.93497e-10
9.68015e-10
1.75685e-09
8.85926e-09
1.77252e-08
5.46807e-09
7.57388e-09
5.14343e-08
3.55687e-07
2.34379e-06
9.20133e-06
3.01675e-05
8.27153e-05
0.00019003
0.000422319
0.000850367
0.00329061
0.748781
6.02061e-06
2.3613e-09
-2.07996e-15
6.51063e-16
2.88742e-14
2.01304e-13
6.2682e-13
1.26221e-12
2.04169e-12
3.03029e-12
4.28552e-12
6.46767e-12
1.17642e-11
2.20607e-11
4.46504e-11
1.16567e-10
2.43566e-10
4.60709e-10
1.31174e-09
2.32039e-09
2.54279e-09
1.92871e-09
1.19133e-09
1.34668e-09
3.36814e-09
3.35609e-09
4.15677e-09
4.25843e-08
4.15876e-07
2.22799e-06
1.09413e-05
4.2596e-05
0.000124228
0.000288223
0.000570472
0.00103553
0.00188671
0.00323812
0.0103766
0.954553
1.66986e-06
2.01371e-09
-3.46082e-13
-1.32979e-14
6.9555e-15
1.40438e-13
4.26777e-13
6.08456e-13
2.4345e-13
4.79116e-13
2.57621e-12
6.69541e-12
1.4778e-11
4.41216e-11
1.39089e-10
3.48079e-10
4.98355e-10
6.2932e-10
1.02645e-09
2.23351e-09
3.56313e-09
3.61012e-09
7.08252e-09
7.0593e-09
3.40207e-09
2.0167e-09
-1.26109e-08
8.95112e-07
1.33284e-05
5.762e-05
0.000209406
0.000604105
0.00135921
0.00249961
0.00544399
0.00947977
0.0177092
0.0309719
0.146703
0.959636
2.03991e-09
-1.88393e-12
-2.60187e-13
-1.84398e-15
-3.93696e-14
0
-6.72676e-30
-4.18886e-13
-3.38535e-12
-6.54105e-12
-5.97888e-12
-1.08345e-12
-1.22869e-20
-5.7554e-20
-2.26702e-19
-6.52084e-19
-2.13084e-18
-1.38251e-17
-1.0015e-21
-3.66681e-21
5.53783e-12
3.66316e-10
2.1024e-09
1.63327e-09
-7.31741e-08
-5.65928e-08
5.97477e-06
7.71682e-05
0.000376189
0.00806427
0.0503109
0.133468
0.246023
0.348373
0.411218
0.446023
0.500138
0.555591
0.755242
0.975632
-6.97557e-08
1.41931e-10
2.54685e-12
1.9461e-15
-1.51045e-15
-1.13334e-13
-1.55027e-09
-4.0184e-09
-5.96801e-09
-6.63015e-09
-6.08171e-09
-4.84258e-09
-3.62527e-09
-5.36303e-09
-1.18349e-08
-2.0949e-08
-2.87017e-08
-3.21184e-08
-3.07074e-08
-2.58193e-08
-1.96769e-08
-1.47089e-08
-1.06641e-08
-3.61869e-10
1.47682e-06
3.51401e-05
0.00622194
0.0913674
0.288214
0.530914
0.719997
0.851561
0.933615
0.971791
0.984931
0.989282
0.994727
0.999828
1
0.996246
1.45964e-07
-2.34523e-08
-6.60637e-10
2.03196e-12
6.31518e-14
-1.97804e-18
-4.61663e-09
-1.31689e-08
-2.12488e-08
-2.5445e-08
-2.50212e-08
-2.1267e-08
-1.64339e-08
-1.61268e-08
-2.41404e-08
-3.75709e-08
-4.9415e-08
-5.43454e-08
-5.09596e-08
-4.19721e-08
-3.08419e-08
-2.01316e-08
-9.78117e-09
0.0034884
0.0417996
0.175371
0.48133
0.835275
0.999988
0.999999
1
1
1
1
1
1
1
1
1
1
-6.29988e-08
-1.48783e-08
4.91215e-10
-3.52896e-10
-1.09645e-11
-1.59739e-13
-6.48186e-09
-2.02449e-08
-3.4819e-08
-4.3656e-08
-4.43193e-08
-3.8429e-08
-2.96977e-08
-2.4169e-08
-2.54815e-08
-3.08223e-08
-3.40323e-08
-3.13477e-08
-2.20494e-08
-1.15841e-08
-1.77689e-09
0.0270197
0.14144
0.422137
0.773635
0.999674
0.999987
1
1
1
1
1
1
1
1
1
1
1
1
1
1.85487e-05
3.87165e-07
-5.07751e-08
-8.18302e-09
-4.00764e-10
-1.39094e-11
-2.98857e-09
-1.6535e-08
-3.25714e-08
-4.241e-08
-4.28001e-08
-3.55858e-08
-2.57133e-08
-1.74454e-08
-1.35278e-08
-9.96894e-09
-4.35941e-09
0.00698415
0.0917804
0.272467
0.514169
0.736754
0.896531
0.982365
0.999992
1
1
1
1
1
1
0.999999
0.999997
0.999998
0.999999
1
1
1
1
1
0.201597
4.90088e-05
1.20676e-06
5.99716e-08
2.91237e-09
2.70968e-10
-1.18303e-20
-3.70391e-09
-1.4977e-08
-2.132e-08
-1.90366e-08
-1.13508e-08
-4.43597e-09
0.00085857
0.0461596
0.145028
0.331359
0.600737
0.821179
0.945495
0.993504
0.999905
0.999989
0.999912
0.999974
1
1
1
1
1
1
0.999994
0.999994
0.999994
0.999996
0.999999
1
1
1
1.00006
0.894923
0.411943
0.0774337
6.11288e-06
3.43732e-07
2.17795e-08
1.36619e-09
-7.05352e-24
0
-2.50069e-19
0.0313858
0.151764
0.354945
0.572255
0.73328
0.862528
0.959728
0.99797
0.999842
0.999959
0.999993
0.999998
1
0.999997
0.999999
1
1
1
1
1
0.999998
0.999994
0.999994
0.999994
0.999994
0.999999
1
1
1
0.923042
0.999837
0.979509
0.802808
0.589214
0.484732
0.436272
0.3954
0.396654
0.419446
0.504088
0.670311
0.853382
0.965201
0.997843
0.999573
0.999798
0.999933
0.999984
0.999995
0.999998
1
1
1
1
1
1
1
1
1
1
0.999998
0.999994
0.999994
0.999994
0.999995
0.999999
1
1
1
0.669802
0.99999
0.999897
0.999452
0.998182
0.993016
0.987369
0.980636
0.980881
0.984909
0.995083
0.999256
0.999628
0.999859
0.999953
0.999983
0.999992
0.999997
0.999999
1
1
1
1
1
1
1
1
1
1
1
1
1
0.999996
0.999994
0.999994
0.999998
1
1
1
1
0.586628
0.999975
0.999962
0.999887
0.999729
0.999678
0.999841
0.999868
0.999877
0.999897
0.999932
0.999959
0.999978
0.999991
0.999998
0.999999
1
1
1
1
1
1
1
1
1
1
1
1
1
1
1
1
0.999999
0.999996
0.999998
0.999999
1
1
1
1
0.701183
0.999962
0.999883
0.999774
0.999738
0.999768
0.999944
0.999971
0.999979
0.999986
0.999992
0.999996
0.999998
0.999999
1
1
1
1.00001
1.00001
1.00001
1.00001
1.00001
1
1
1
1
1
1
1
1
1
1
0.999999
0.999999
0.999999
0.999999
0.999999
1
1
1
0.773916
0.45224
0.744413
0.951441
0.999796
0.999952
0.99997
0.999978
0.999985
0.999991
0.999995
0.999998
0.999999
1
1
1
1
1
1
1
1
0.999917
0.991695
0.984323
0.988591
1
1
1
0.999995
0.999994
0.999994
0.999997
0.999998
0.999996
0.999999
1
1
1
1
1
0.72726
0.00150871
0.0543037
0.188554
0.414002
0.642388
0.79499
0.86294
0.885506
0.900819
0.919723
0.919227
0.911237
0.8902
0.851634
0.796176
0.731688
0.665562
0.598123
0.527895
0.460328
0.407113
0.377166
0.359436
0.358848
0.373854
0.406518
0.497428
0.726396
0.927425
0.989818
0.999932
0.99993
0.999975
1
1
1
1
1
1
0.636289
5.05973e-06
3.5537e-05
0.000119427
0.000698947
0.0241524
0.0757716
0.126686
0.155682
0.176353
0.202684
0.204156
0.195438
0.171131
0.132968
0.0915292
0.0573457
0.0332678
0.0170468
0.00681213
0.00161431
0.000108568
5.04413e-05
6.79342e-05
6.56165e-05
6.66314e-05
0.000435001
0.0105751
0.0414298
0.132428
0.466308
0.893366
0.999806
0.999994
1
1
1
1
1
1
0.588761
8.5308e-08
2.20284e-08
1.74452e-06
6.04912e-06
2.20446e-05
5.57925e-05
9.1531e-05
0.000110829
0.000119849
0.000129117
0.000124674
0.000113365
9.44735e-05
7.04236e-05
4.78382e-05
3.14396e-05
2.11063e-05
1.41001e-05
8.17412e-06
4.42969e-06
2.75628e-06
2.12103e-06
1.83097e-06
3.98225e-06
5.09668e-06
2.58872e-06
8.92074e-06
4.57386e-05
0.000355192
0.0362484
0.417574
0.951697
1
1
1
1
1
1
1
0.536043
1.70852e-09
1.48213e-08
5.76837e-08
1.44719e-07
5.92451e-07
1.72548e-06
3.12545e-06
4.06166e-06
4.64931e-06
5.14202e-06
4.99277e-06
4.44127e-06
3.67535e-06
2.76947e-06
1.95514e-06
1.36169e-06
9.19745e-07
5.70929e-07
3.22225e-07
1.8838e-07
1.84488e-07
3.10943e-07
6.68026e-07
3.89765e-06
4.17614e-06
1.17201e-06
3.93715e-06
1.18127e-05
4.5748e-05
0.000821355
0.296388
0.882506
1
1
1
1
1
1
0.999998
0.457185
4.72404e-11
3.77337e-10
1.61876e-09
4.42023e-09
1.54012e-08
4.93959e-08
9.70876e-08
1.32605e-07
1.62176e-07
1.91182e-07
1.95237e-07
1.8182e-07
1.52951e-07
1.1653e-07
8.28956e-08
5.74753e-08
3.8721e-08
2.55051e-08
2.49033e-08
3.70372e-08
9.98284e-08
2.19488e-07
5.55554e-07
7.60327e-06
4.19993e-06
8.79195e-07
1.07594e-06
3.10285e-06
3.44294e-05
0.000362536
0.298927
0.900738
1
1
1
1
1
0.999987
0.995663
0.343463
8.92577e-29
1.25232e-11
5.50417e-11
1.57062e-10
5.63873e-10
1.74536e-09
3.55594e-09
5.19549e-09
6.63186e-09
8.04329e-09
8.41368e-09
7.91912e-09
6.70023e-09
5.13416e-09
3.70637e-09
2.67484e-09
2.29964e-09
4.14585e-09
1.29183e-08
2.89386e-08
3.7077e-08
1.44985e-06
7.81476e-06
7.73545e-06
2.9138e-06
5.90521e-07
8.78314e-07
3.69342e-06
3.97736e-05
0.000440147
0.307579
0.940398
1
1
1
1
0.999999
0.99999
0.872914
0.224617
-2.36222e-12
-8.59795e-28
2.4976e-12
7.55969e-12
2.91289e-11
8.27995e-11
1.64418e-10
2.47429e-10
3.30439e-10
4.0908e-10
4.36565e-10
4.18869e-10
3.60371e-10
2.85656e-10
2.39836e-10
2.74367e-10
7.02436e-10
2.82984e-09
4.1429e-09
1.0019e-08
2.10046e-06
8.45435e-06
8.45435e-06
6.77624e-06
1.07622e-07
2.28201e-07
5.96179e-07
4.00368e-06
3.9425e-05
0.000454464
0.252147
0.941235
1
1
1
1
0.999998
0.999679
0.684636
0.121059
-1.28788e-10
-3.57236e-11
-2.15256e-28
4.84336e-14
1.51974e-12
5.03385e-12
1.09623e-11
1.8998e-11
2.79859e-11
3.49839e-11
3.76781e-11
3.69151e-11
3.351e-11
3.23815e-11
5.08888e-11
1.32815e-10
3.33956e-10
6.61198e-10
2.01423e-09
1.63231e-08
3.34211e-06
8.43343e-06
5.86519e-06
2.25984e-07
6.79531e-08
1.13867e-07
4.35105e-07
3.21825e-06
2.86657e-05
0.000309467
0.135927
0.852593
1
1
1
0.999999
0.999992
0.990619
0.505278
0.043739
-1.58507e-10
-8.64576e-11
-2.9673e-11
0
8.12684e-14
9.45142e-14
6.59532e-13
2.86431e-12
5.75987e-12
6.30248e-12
6.19895e-12
6.22603e-12
6.78895e-12
1.06815e-11
3.17764e-11
7.8336e-11
1.25354e-10
3.70279e-10
2.65363e-09
3.61557e-07
9.1717e-07
9.38469e-07
1.66326e-07
9.07809e-09
3.75408e-08
7.50153e-08
2.98517e-07
2.02434e-06
1.60524e-05
0.000159681
0.0421817
0.679722
0.999997
1
0.999999
0.999998
0.999981
0.980449
0.408577
0.00483921
-1.24123e-10
-8.88742e-11
-5.33434e-11
-2.90225e-11
-1.51806e-11
-5.76866e-12
3.31776e-14
3.05703e-13
5.02787e-13
3.98173e-13
2.53165e-13
1.86932e-13
1.04647e-12
5.53142e-12
1.88548e-11
5.10221e-11
8.88995e-11
2.97605e-09
3.1202e-08
5.18423e-08
1.28325e-09
1.38754e-09
1.81109e-09
5.45888e-09
1.13528e-08
3.5693e-08
1.77181e-07
1.18787e-06
8.97561e-06
7.06473e-05
0.00208292
0.419507
0.999967
0.999998
0.999998
0.999998
0.999981
0.981313
0.392123
5.56743e-20
-7.87187e-11
-6.71142e-11
-5.22476e-11
-3.97589e-11
-2.93106e-11
-2.10484e-11
-1.43755e-11
-1.05268e-11
-8.05735e-12
-6.08721e-12
-4.03925e-12
-1.63178e-12
8.87529e-14
3.38449e-12
2.42294e-11
1.1978e-10
6.89046e-10
2.35646e-09
3.78771e-09
2.19197e-10
2.99003e-10
4.7505e-10
1.18122e-09
2.65103e-09
5.67221e-09
2.17522e-08
1.18709e-07
7.31291e-07
5.00982e-06
3.40797e-05
0.000390259
0.159769
0.893035
0.999998
0.999997
0.999994
0.999989
0.999123
0.589587
0.00758724
-4.4091e-11
-4.29461e-11
-3.93946e-11
-3.54039e-11
-3.08152e-11
-2.62668e-11
-2.20822e-11
-1.8852e-11
-1.61364e-11
-1.30608e-11
-8.99832e-12
-3.91241e-12
1.55326e-13
8.26199e-12
5.21194e-11
1.67766e-10
3.39302e-10
4.16289e-10
1.15104e-10
1.34174e-10
2.3889e-10
4.2256e-10
6.95549e-10
1.18822e-09
3.27722e-09
1.37328e-08
7.11516e-08
4.0875e-07
2.59341e-06
1.3654e-05
0.000119949
0.0159933
0.538737
0.999982
0.999995
0.999984
0.99999
0.999954
0.836453
0.0741296
-2.27525e-11
-2.47675e-11
-2.56477e-11
-2.57981e-11
-2.49714e-11
-2.34384e-11
-2.15648e-11
-1.95724e-11
-1.70863e-11
-1.34482e-11
-8.34329e-12
-2.12858e-12
2.12802e-12
2.70619e-11
7.40856e-11
1.13886e-10
1.23983e-10
1.07934e-10
1.05674e-10
1.28339e-10
2.02222e-10
3.56759e-10
6.07385e-10
1.2284e-09
4.20761e-09
2.04292e-08
1.13156e-07
6.6786e-07
3.83136e-06
2.00137e-05
8.91486e-05
0.000532185
0.151201
0.862513
0.999989
0.999984
0.999994
0.999995
0.952473
0.245015
-1.1053e-11
-1.3265e-11
-1.51508e-11
-1.66245e-11
-1.73933e-11
-1.74332e-11
-1.68725e-11
-1.56576e-11
-1.34057e-11
-9.69334e-12
-4.52042e-12
0
1.18146e-11
4.53208e-11
7.48036e-11
8.82395e-11
9.04251e-11
9.20291e-11
1.02232e-10
1.41383e-10
2.36882e-10
4.14564e-10
7.32532e-10
2.29727e-09
1.0478e-08
5.81432e-08
3.6161e-07
2.36034e-06
1.47691e-05
8.44605e-05
0.000333132
0.00114032
0.0211383
0.518374
0.997991
0.999976
0.999994
1
0.993779
0.543653
-5.04378e-12
-6.6023e-12
-8.19839e-12
-9.65462e-12
-1.07064e-11
-1.12067e-11
-1.10893e-11
-1.01539e-11
-8.06216e-12
-4.58575e-12
1.34535e-29
4.22684e-12
2.64618e-11
5.41858e-11
7.27518e-11
8.085e-11
8.53583e-11
9.31541e-11
1.17632e-10
1.82199e-10
2.94685e-10
5.53495e-10
1.33403e-09
5.05098e-09
2.56774e-08
1.63507e-07
1.20237e-06
9.03789e-06
6.45065e-05
0.000345039
0.00133888
0.00446082
0.062832
0.470048
0.961018
0.999996
1
1
1
0.778072
-1.97274e-12
-2.81922e-12
-3.79143e-12
-4.74014e-12
-5.46893e-12
-5.79954e-12
-5.6302e-12
-4.70505e-12
-2.86465e-12
8.40845e-31
3.12497e-12
1.6225e-11
3.85534e-11
5.99499e-11
7.40045e-11
8.02125e-11
8.21336e-11
8.4053e-11
8.7238e-11
1.12331e-10
1.64954e-10
6.68961e-10
3.61142e-09
2.18753e-08
7.1171e-08
4.92189e-07
4.59009e-06
4.21005e-05
0.000276335
0.001386
0.00739934
0.185612
0.606753
0.914474
0.984986
0.999993
0.999999
1
1
0.864129
-2.09274e-13
-4.33743e-13
-7.99149e-13
-1.14036e-12
-1.34454e-12
-1.31497e-12
-8.72604e-13
0
1.98461e-12
6.21815e-12
1.45402e-11
3.04954e-11
5.11049e-11
6.7974e-11
7.56185e-11
7.77689e-11
7.95609e-11
8.11037e-11
7.07921e-11
2.84085e-09
2.53853e-08
2.72082e-09
1.64033e-08
6.90932e-08
4.92962e-07
1.87069e-06
1.49071e-05
0.000227372
0.00193651
0.0556734
0.384123
0.82284
0.999524
0.999914
0.999977
0.999996
0.999999
1
1
0.878966
2.61807e-12
3.0758e-12
3.41287e-12
3.90028e-12
4.87533e-12
6.47741e-12
8.72243e-12
1.16381e-11
1.55581e-11
2.28935e-11
3.67523e-11
5.5148e-11
7.05958e-11
7.64317e-11
7.6381e-11
8.19861e-11
9.9449e-11
1.78453e-10
1.00441e-09
3.16841e-07
1.08658e-06
3.16358e-07
6.18531e-07
4.44581e-07
3.28583e-06
4.23883e-06
0.000109036
0.00219806
0.168926
0.646803
0.966257
0.998191
0.998796
0.999494
0.999914
0.999976
0.999995
0.999999
1
0.871796
)
;

boundaryField
{
    leftWall
    {
        type            zeroGradient;
    }
    rightWall
    {
        type            zeroGradient;
    }
    lowerWall
    {
        type            zeroGradient;
    }
    atmosphere
    {
        type            inletOutlet;
        inletValue      nonuniform 0();
        value           nonuniform 0();
    }
    defaultFaces
    {
        type            empty;
    }
    procBoundary1to0
    {
        type            processor;
        value           nonuniform List<scalar> 
44
(
1
0.991271
0.969748
0.969745
0.976497
0.99785
1
1
1
1
1
1
1
1
1
1
1
1
1
1
1
1
0.752154
0.0572823
1.1907e-05
1.59978e-07
3.54041e-09
7.3943e-12
-4.71935e-13
-3.04599e-09
-3.54191e-09
-2.45454e-09
-1.31247e-09
-5.99819e-10
-2.47278e-10
-9.48301e-11
-3.43777e-11
-1.18519e-11
-3.8861e-12
-1.20876e-12
-3.53672e-13
-9.03211e-14
-1.44379e-15
1.0916e-13
)
;
    }
    procBoundary1to3
    {
        type            processor;
        value           nonuniform List<scalar> 
45
(
7.6045e-13
1.53754e-12
2.73481e-12
4.37909e-12
6.3431e-12
8.60016e-12
1.11459e-11
1.46142e-11
1.92808e-11
2.39368e-11
2.76976e-11
3.0948e-11
3.48802e-11
4.35736e-11
6.12965e-11
8.14856e-11
9.29925e-11
8.68307e-11
8.56118e-11
1.15793e-10
3.45024e-10
1.77154e-09
1.05799e-08
1.69868e-06
5.66839e-06
3.61155e-06
1.08926e-05
1.40033e-05
6.04576e-06
5.09514e-06
1.6618e-05
0.00110007
0.27308
0.815671
0.990297
0.992217
0.99495
0.998194
0.998801
0.999484
0.999809
0.999964
0.999998
0.999999
0.868457
)
;
    }
}


// ************************************************************************* //
