/*--------------------------------*- C++ -*----------------------------------*\
| =========                 |                                                 |
| \\      /  F ield         | OpenFOAM: The Open Source CFD Toolbox           |
|  \\    /   O peration     | Version:  5.0                                   |
|   \\  /    A nd           | Web:      www.OpenFOAM.org                      |
|    \\/     M anipulation  |                                                 |
\*---------------------------------------------------------------------------*/
FoamFile
{
    version     2.0;
    format      ascii;
    class       volScalarField;
    location    "0.6";
    object      epsilon;
}
// * * * * * * * * * * * * * * * * * * * * * * * * * * * * * * * * * * * * * //

dimensions      [0 2 -3 0 0 0 0];

internalField   nonuniform List<scalar> 
1915
(
0.333968
0.20763
0.282663
0.338618
0.344605
0.513229
0.410738
0.711757
0.483685
0.937058
0.555625
1.15503
0.624374
1.37019
0.690926
1.6107
0.760706
1.94344
0.821635
2.56805
0.071763
0.366629
0.37037
0.398065
0.452054
0.532728
0.631116
0.746604
0.879165
1.02899
1.19633
1.38144
1.58432
1.80424
2.03932
2.28638
2.54079
2.79671
3.0474
3.28584
3.50572
3.70273
3.87607
4.03025
4.17744
4.34125
4.56475
4.92959
5.60142
6.93221
9.64984
14.9682
23.8315
35.1847
46.3467
56.1715
61.7299
55.5124
39.1073
5.70902
0.321272
0.36318
0.489277
0.575036
0.646112
0.70402
0.749633
0.784994
0.814119
0.841357
0.870393
0.90401
0.94411
0.991768
1.04725
1.11007
1.17905
1.25258
1.32892
1.40674
1.48579
1.56782
1.65811
1.76816
1.92143
2.16555
2.59773
3.41021
4.9432
7.65901
11.8727
17.3139
23.3505
30.5736
40.4943
43.7169
36.3243
30.9864
27.711
12.1531
0.614915
0.484011
0.549237
0.590414
0.613679
0.626646
0.63444
0.641025
0.650055
0.664288
0.685448
0.714474
0.751756
0.79725
0.85052
0.910769
0.976945
1.04793
1.12283
1.20138
1.28455
1.37537
1.4806
1.61387
1.80219
2.09943
2.61252
3.545
5.238
8.10183
12.2313
16.8533
20.6789
23.2088
22.2876
19.1967
18.3429
19.7781
21.6988
17.397
0.895409
0.577522
0.58063
0.584605
0.584412
0.585326
0.590219
0.600904
0.618895
0.645221
0.680412
0.724645
0.777841
0.83966
0.909479
0.986412
1.06942
1.1575
1.25001
1.34703
1.44989
1.56207
1.69061
1.84909
2.06309
2.38093
2.89343
3.76507
5.26079
7.68141
11.0075
14.3126
16.0811
15.5953
13.4518
13.0446
14.2453
17.4847
19.9535
21.7602
1.10075
0.645184
0.605164
0.589819
0.584336
0.58924
0.604284
0.62944
0.665097
0.711652
0.769292
0.837953
0.917293
1.00665
1.10504
1.21118
1.3237
1.44137
1.5635
1.69033
1.82353
1.96698
2.12817
2.32064
2.56843
2.91371
3.42967
4.23879
5.5243
7.47302
10.0007
12.2831
12.9993
11.8576
10.7805
11.1631
13.3284
17.9449
19.9738
25.8755
1.25502
0.691876
0.626597
0.605855
0.605889
0.623227
0.65555
0.701968
0.762575
0.83771
0.92751
1.0317
1.14953
1.2797
1.42046
1.56971
1.72531
1.88551
2.04937
2.21726
2.39135
2.57626
2.7804
3.01833
3.31462
3.7097
4.26817
5.0873
6.29735
8.01326
10.1362
11.9889
12.4393
11.4198
10.6918
10.867
12.9616
19.1217
20.7073
29.8522
1.36747
0.72203
0.644871
0.628272
0.640883
0.676598
0.732192
0.806685
0.900385
1.01384
1.14715
1.29967
1.46988
1.65545
1.85337
2.06027
2.27288
2.48856
2.70599
2.92564
3.15025
3.38531
3.64034
3.93134
4.28461
4.7425
5.37041
6.25836
7.51183
9.21408
11.2899
13.2147
13.9875
13.2824
12.1656
11.715
13.2702
19.7336
20.5767
32.7295
1.44304
0.740061
0.659688
0.653305
0.683424
0.742325
0.826705
0.93599
1.07096
1.23242
1.42025
1.6331
1.86828
2.12198
2.38966
2.66641
2.94758
3.22949
3.51016
3.79002
4.07221
4.3628
4.6717
5.01519
5.41925
5.92592
6.60309
7.54062
8.82826
10.5297
12.6093
14.722
15.938
15.3378
13.698
12.9159
14.1576
20.4529
20.3648
33.9448
1.48572
0.750028
0.671022
0.678248
0.729191
0.815003
0.932709
1.08234
1.26514
1.48195
1.7321
2.01303
2.3205
2.64907
2.99263
3.34496
3.7002
4.05362
4.40245
4.74665
5.08937
5.43655
5.79718
6.18586
6.62373
7.14337
7.8073
8.69999
9.88328
11.3795
13.1745
15.0575
15.9861
15.2404
13.8545
13.4283
14.6896
20.3647
19.4389
33.0178
1.50717
0.752941
0.678914
0.701361
0.775019
0.890064
1.04387
1.23691
1.4706
1.74535
2.05942
2.40862
2.78691
3.18728
3.60258
4.0259
4.4509
4.87226
5.28635
5.69223
6.09246
6.49201
6.89725
7.32022
7.77362
8.26789
8.8462
9.57671
10.4789
11.5025
12.6287
13.6601
13.9522
13.3602
12.7047
12.9129
14.1243
18.3524
17.6156
30.4989
0.754923
1.36603
0.697793
0.954455
0.669378
0.817445
0.661499
0.775773
0.664424
0.767218
0.671492
0.768519
0.678958
0.770682
0.684979
0.770532
0.688767
0.767374
0.690058
0.761488
0.753394
0.743911
0.734525
0.726085
0.712885
0.699059
0.686409
0.675589
0.666677
0.659467
0.653729
0.649286
0.645993
0.64374
0.64246
0.642134
0.642806
0.644583
0.647648
0.652261
0.658622
0.667074
0.678042
3.01198
1.71145
1.31197
0.993213
1.22103
1.0876
1.12174
0.949101
0.962456
1.03603
1.18873
1.15347
0.907333
1.0507
1.27056
1.33921
0.898124
1.06925
1.33219
1.49656
0.89597
1.06497
1.30459
1.57267
0.891014
1.04749
1.25878
1.55106
0.880812
1.02021
1.19519
1.4091
0.865965
0.986854
1.13108
1.28988
0.84829
0.951263
1.07014
1.19449
0.829407
0.916697
1.01454
1.11511
0.810524
0.884965
0.966459
1.04932
0.793219
0.857382
0.926543
0.99656
0.778852
0.835994
0.89613
0.956966
0.764564
0.82103
0.875924
0.932145
0.746454
0.799271
0.856852
0.919575
0.729127
0.777118
0.832642
0.896722
0.714381
0.757588
0.807685
0.865994
0.702457
0.741859
0.787088
0.839307
0.693086
0.729687
0.771123
0.818416
0.685873
0.720553
0.759372
0.803191
0.680511
0.713997
0.751194
0.792825
0.676766
0.70967
0.746078
0.78662
0.674456
0.707301
0.743637
0.784062
0.673463
0.706707
0.743601
0.78477
0.673747
0.707812
0.745848
0.788241
0.675351
0.710663
0.750213
0.794397
0.678412
0.715323
0.756775
0.803351
0.68313
0.721934
0.76579
0.815377
0.689672
0.730825
0.777634
0.830893
0.698398
0.742416
0.792783
0.850427
0.709736
0.757203
0.811797
0.874592
0.724185
0.77575
0.835301
0.90406
1.24377
0.742606
0.6824
0.722108
0.819478
0.964622
1.15507
1.39123
1.67408
2.00303
2.37481
2.78335
3.22077
3.67883
4.15001
4.62783
5.10659
5.58126
6.0476
6.50328
6.94985
7.39055
7.82654
8.26792
8.71956
9.15899
9.59422
10.0593
10.5335
10.9371
11.2398
11.3734
11.2055
10.9191
10.9678
11.6124
12.6477
15.5405
15.6922
27.1091
1.06444
0.720344
0.682687
0.741847
0.862471
1.03608
1.25995
1.53364
1.85692
2.2278
2.64138
3.08984
3.56369
4.05386
4.55319
5.05662
5.56038
6.061
6.55409
7.03523
7.50482
7.96459
8.40608
8.83692
9.25588
9.61014
9.86099
9.97111
9.97203
9.80206
9.43394
9.01419
8.71813
8.68787
9.03336
9.7852
10.8157
13.0456
13.9384
24.6204
1.00308
0.717728
0.692777
0.767398
0.907545
1.10439
1.35359
1.65272
1.99977
2.39133
2.82138
3.28096
3.75955
4.24775
4.73914
5.23056
5.72094
6.20972
6.6929
7.16242
7.6166
8.05793
8.46528
8.83706
9.1459
9.34291
9.37696
9.11173
8.70263
8.22668
7.70098
7.25978
6.98953
6.94655
7.20126
7.83346
8.89337
10.7472
12.2902
22.9575
1.03488
0.759753
0.729356
0.809696
0.961865
1.17234
1.43299
1.73859
2.0853
2.46884
2.88307
3.31899
3.76612
4.21552
4.66168
5.10275
5.5396
5.97509
6.40645
6.82079
7.20843
7.56785
7.88283
8.13351
8.20443
8.12501
7.89374
7.49331
7.06371
6.63912
6.24388
5.91709
5.70332
5.65545
5.84343
6.35653
7.30154
8.87774
10.9601
21.9497
1.12825
0.856935
0.804361
0.877704
1.02948
1.23728
1.48785
1.77363
2.08995
2.43286
2.79744
3.17597
3.55921
3.93957
4.31226
4.6752
5.02827
5.3746
5.7131
6.03169
6.30986
6.52639
6.66318
6.69145
6.57333
6.39562
6.15008
5.86714
5.57581
5.29227
5.03418
4.8267
4.70264
4.70581
4.89759
5.36386
6.22494
7.6693
10.0041
21.0397
1.26976
1.01618
0.925683
0.972356
1.10258
1.28412
1.49875
1.73795
1.99743
2.27438
2.56571
2.86541
3.16601
3.46157
3.74816
4.02295
4.28313
4.52554
4.74385
4.93226
5.07411
5.14939
5.16294
5.11122
5.01325
4.88449
4.72268
4.54173
4.35838
4.1865
4.04004
3.93746
3.90426
3.97678
4.20836
4.67829
5.50559
6.88311
9.27555
19.9483
1.49664
1.25274
1.09639
1.08678
1.16635
1.29601
1.45377
1.63067
1.82259
2.0269
2.24135
2.46173
2.68217
2.89685
3.10117
3.29095
3.46201
3.61079
3.73646
3.83415
3.89783
3.92301
3.91116
3.86283
3.79187
3.70425
3.60315
3.49621
3.39391
3.30701
3.24711
3.22932
3.27511
3.41615
3.70006
4.19904
5.02284
6.35086
8.66269
18.6367
1.62874
1.4973
1.32297
1.22614
1.22998
1.29121
1.38587
1.50262
1.63457
1.77693
1.92605
2.07843
2.23055
2.37905
2.51966
2.64634
2.7542
2.8413
2.90992
2.9589
2.98484
2.98622
2.96432
2.92379
2.87445
2.81974
2.76307
2.70951
2.66586
2.64037
2.64331
2.6885
2.79581
2.99443
3.32774
3.86004
4.68583
5.95519
8.10943
17.2281
1.44411
1.50383
1.43349
1.3354
1.29348
1.30128
1.34554
1.4138
1.49668
1.58726
1.68091
1.77668
1.87283
1.96652
2.05439
2.1325
2.1971
2.24723
2.28386
2.3063
2.31354
2.30566
2.28429
2.25488
2.22508
2.19681
2.17257
2.15602
2.1522
2.16801
2.21311
2.30131
2.45237
2.69455
3.06783
3.62787
4.45062
5.65062
7.62054
15.8595
1.30976
1.3701
1.35946
1.32555
1.28823
1.27667
1.29403
1.33033
1.37837
1.42977
1.48099
1.53653
1.59489
1.65318
1.70796
1.75581
1.79461
1.82381
1.84364
1.85412
1.85536
1.84801
1.83381
1.81702
1.80399
1.79583
1.79461
1.80318
1.82542
1.86724
1.93813
2.05274
2.23206
2.50451
2.90727
3.4869
4.29966
5.42532
7.212
14.6075
1.20886
1.26806
1.28223
1.26872
1.24654
1.23433
1.2376
1.25349
1.27811
1.30716
1.33821
1.37158
1.40711
1.44334
1.47796
1.50879
1.53444
1.55435
1.56847
1.57686
1.5798
1.57803
1.57309
1.56804
1.56832
1.57533
1.59111
1.61775
1.65769
1.71527
1.79988
1.92793
2.12296
2.41465
2.83763
3.42885
4.22475
5.27439
6.88467
13.4918
1.12851
1.1865
1.21413
1.21797
1.21013
1.2025
1.20097
1.20655
1.21828
1.23441
1.25355
1.27538
1.29972
1.32572
1.352
1.37709
1.39983
1.41945
1.43549
1.44775
1.45635
1.46198
1.46616
1.47158
1.48253
1.50232
1.53321
1.57624
1.6309
1.698
1.78658
1.91659
2.11626
2.41773
2.8529
3.44804
4.21957
5.19113
6.63089
12.5391
1.06515
1.12095
1.15626
1.17296
1.1777
1.17802
1.17905
1.18337
1.19192
1.20459
1.22102
1.24107
1.2646
1.29105
1.31939
1.34837
1.37672
1.40328
1.42708
1.44747
1.46433
1.47837
1.49136
1.50644
1.52812
1.56162
1.61087
1.67518
1.74735
1.81919
1.89969
2.01687
2.20803
2.5093
2.94875
3.53968
4.27793
5.16678
6.44625
11.7569
1.01837
1.07184
1.11136
1.13742
1.15348
1.16415
1.17343
1.1842
1.19827
1.21654
1.2394
1.2671
1.29958
1.33633
1.37633
1.41823
1.46042
1.50118
1.53884
1.57206
1.60033
1.62446
1.64693
1.67234
1.70756
1.76044
1.83856
1.93972
2.041
2.1096
2.15861
2.23672
2.39906
2.68717
3.12194
3.69953
4.39406
5.19327
6.3235
11.119
0.990359
1.04172
1.08421
1.11819
1.14503
1.16798
1.19028
1.21443
1.24221
1.27494
1.31359
1.35868
1.4102
1.46753
1.52943
1.59421
1.65981
1.72385
1.78362
1.83653
1.88122
1.9188
1.95319
1.99184
2.04677
2.13353
2.26393
2.43765
2.59689
2.63764
2.60158
2.59036
2.69107
2.94892
3.36913
3.92336
4.56246
5.26382
6.25113
10.5867
0.983193
1.03274
1.08049
1.12409
1.16211
1.19958
1.23988
1.28463
1.3348
1.39169
1.45672
1.53059
1.61308
1.70316
1.79908
1.89867
1.9995
2.09877
2.19267
2.27627
2.34578
2.403
2.45479
2.51361
2.60114
2.74874
2.98468
3.32341
3.61138
3.52456
3.27234
3.0825
3.07659
3.28684
3.68449
4.20572
4.77707
5.37171
6.21672
10.1201
0.965427
1.03297
1.10128
1.16378
1.21399
1.27011
1.33551
1.4101
1.49355
1.58693
1.69218
1.80977
1.93882
2.07731
2.22234
2.37097
2.5209
2.67014
2.81535
2.94839
3.05695
3.14399
3.22371
3.31647
3.46048
3.72047
4.15176
4.89652
5.5539
4.94834
4.17203
3.66982
3.52104
3.68119
4.05676
4.53791
5.02972
5.50849
6.20773
9.68411
0.935186
1.01814
1.1088
1.20107
1.28985
1.38306
1.48823
1.60738
1.74015
1.88791
2.05328
2.236
2.43363
2.642
2.85558
3.06938
3.28013
3.48329
3.66397
3.80063
3.90115
3.99062
4.08835
4.22172
4.44846
4.89764
5.7623
7.44507
9.13174
6.95412
5.14882
4.22327
3.95393
4.09925
4.46768
4.90537
5.30803
5.6629
6.20914
9.23436
0.902499
0.981892
1.07814
1.19084
1.32158
1.45998
1.61312
1.78493
1.97469
2.18542
2.41882
2.67152
2.93647
3.20332
3.45837
3.68898
3.88707
4.04455
4.14554
4.19398
4.23187
4.28377
4.37233
4.53444
4.8282
5.35274
6.39273
8.08897
9.58283
8.70057
5.71438
4.55536
4.30903
4.51125
4.89315
5.28488
5.59292
5.8197
6.20111
8.70811
0.875749
0.948216
1.03705
1.14232
1.26713
1.41247
1.58041
1.77015
1.97891
2.20659
2.45157
2.70751
2.96425
3.20913
3.42877
3.6144
3.76667
3.89027
3.9852
4.05019
4.09558
4.14037
4.21471
4.35489
4.60606
5.0266
5.72379
6.73422
7.94766
7.45971
5.38604
4.63032
4.59737
4.90581
5.30296
5.64355
5.85848
5.96121
6.16693
8.02182
0.855931
0.921625
1.00097
1.09501
1.2062
1.33832
1.49346
1.67016
1.86487
2.07496
2.29649
2.52218
2.74233
2.94677
3.12739
3.28163
3.41347
3.52766
3.62259
3.69286
3.74064
3.78108
3.83934
3.945
4.13354
4.45425
4.98383
5.77745
6.6487
6.06081
4.96578
4.67986
4.8778
5.2796
5.67445
5.95724
6.08531
6.07902
6.12777
7.40126
0.842495
0.903348
0.975359
1.0599
1.1583
1.27364
1.40787
1.56022
1.72774
1.90704
2.0937
2.28135
2.46256
2.63055
2.78107
2.91372
3.03108
3.13446
3.22077
3.28583
3.33219
3.37311
3.43016
3.53034
3.71056
4.02563
4.54269
5.25194
5.81983
5.32871
4.79951
4.83461
5.18252
5.62616
5.99681
6.22066
6.2734
6.1777
6.09956
7.0253
0.834681
0.892866
0.960006
1.03736
1.1259
1.22734
1.34285
1.47194
1.61238
1.76114
1.91441
2.06737
2.21488
2.35256
2.47788
2.59039
2.69078
2.77878
2.85248
2.91129
2.96075
3.01494
3.09582
3.23325
3.46912
3.85706
4.42949
5.07832
5.42933
5.10279
4.90907
5.11401
5.51538
5.94919
6.28016
6.44911
6.44146
6.27901
6.10471
6.80386
0.831863
0.88876
0.953272
1.02626
1.10829
1.20005
1.30189
1.41315
1.53203
1.65606
1.78225
1.90712
2.02715
2.13941
2.24205
2.33444
2.41666
2.48891
2.55199
2.6096
2.67128
2.75424
2.88394
3.09537
3.43319
3.93989
4.60344
5.24172
5.50047
5.30134
5.27756
5.52004
5.88998
6.27163
6.5528
6.67377
6.62118
6.41499
6.1869
6.81854
0.833085
0.890184
0.954115
1.02536
1.10408
1.19027
1.28361
1.38311
1.4871
1.59344
1.69975
1.80344
1.90201
1.99343
2.0764
2.15065
2.21687
2.27698
2.33501
2.39892
2.48269
2.60802
2.80536
3.11411
3.5783
4.22674
5.01737
5.74761
6.0595
5.97135
5.96257
6.10983
6.35751
6.63775
6.85331
6.93034
6.8441
6.61081
6.36764
7.13098
0.837968
0.896586
0.961756
1.03362
1.11199
1.19637
1.28587
1.37916
1.47446
1.56978
1.663
1.75209
1.8352
1.911
1.97893
2.03957
2.095
2.14935
2.20988
2.28845
2.40329
2.58026
2.85322
3.26215
3.84548
4.619
5.53104
6.38769
6.91265
7.0937
7.11997
7.0212
7.01126
7.10605
7.21836
7.24473
7.12935
6.87905
6.65626
7.68314
0.846369
0.907709
0.975754
1.05039
1.13112
1.21704
1.30685
1.39884
1.49104
1.58139
1.66791
1.74887
1.82298
1.88961
1.94919
2.00357
2.0566
2.11483
2.18847
2.29263
2.44828
2.68244
3.02659
3.51249
4.16382
4.98039
5.91158
6.82401
7.58309
8.24464
8.82491
8.47401
7.97097
7.73016
7.66543
7.61851
7.47381
7.21592
7.04066
8.55587
0.858376
0.923575
0.996015
1.07541
1.16101
1.25159
1.34549
1.44068
1.53495
1.62612
1.71232
1.79212
1.86483
1.9308
1.99179
2.05145
2.11596
2.19466
2.30073
2.45154
2.66802
2.97238
3.38444
3.91765
4.57523
5.3448
6.17875
7.01675
7.84869
8.8297
10.2475
10.6458
9.309
8.50437
8.16403
8.01725
7.84725
7.5979
7.49537
9.71461
0.874273
0.944448
1.02275
1.10878
1.20164
1.29985
1.40147
1.5042
1.60566
1.70367
1.79654
1.88341
1.96457
2.04189
2.11929
2.20341
2.30415
2.43517
2.61365
2.8585
3.18621
3.605
4.11143
4.69454
5.34349
6.0456
6.75164
7.4446
8.16677
9.12684
10.5578
11.8396
10.707
9.21516
8.5984
8.36769
8.19974
7.99417
7.99952
11.1422
0.894505
0.970786
1.05638
1.1509
1.25334
1.36208
1.47502
1.58973
1.70385
1.81541
1.92331
2.02778
2.13093
2.23739
2.35507
2.49603
2.67715
2.91982
3.24736
3.67839
4.21556
4.8348
5.48845
6.13254
6.74709
7.31466
7.84912
8.32468
8.75476
9.40487
10.6098
11.0446
10.2244
9.27402
8.76956
8.58135
8.48308
8.38438
8.58827
12.9913
0.919645
1.00318
1.09752
1.20234
1.31665
1.43884
1.56679
1.69823
1.83109
1.96413
2.09751
2.23361
2.37789
2.54004
2.73525
2.98542
3.31936
3.77017
4.3671
5.11993
5.9969
6.90809
7.72356
8.29348
8.63099
8.84636
8.99801
9.01312
8.85574
8.7922
9.17976
9.16616
8.96711
8.73832
8.62596
8.63192
8.68123
8.74541
9.20961
14.9194
0.950348
1.04232
1.14683
1.26374
1.3922
1.53079
1.67765
1.83098
1.9896
2.15371
2.32593
2.5125
2.72482
2.98142
3.30982
3.74742
4.33889
5.12678
6.13369
7.33721
8.64014
9.83877
10.553
10.7052
10.4357
9.99292
9.4883
8.79391
8.03006
7.66796
7.68882
7.84595
8.02187
8.19739
8.38579
8.60018
8.82112
9.06764
9.79378
16.5932
0.987315
1.08889
1.20499
1.33572
1.4806
1.63857
1.80843
1.98939
2.18191
2.38885
2.61704
2.87934
3.1973
3.60412
4.1466
4.88277
5.86972
7.13867
8.66451
10.3425
11.9628
13.0016
13.1826
12.5754
11.4745
10.2632
9.11503
8.03744
7.34221
7.02967
7.02275
7.22106
7.52887
7.87853
8.23642
8.59722
8.95545
9.36089
10.3189
17.9746
)
;

boundaryField
{
    leftWall
    {
        Cmu             0.09;
        kappa           0.41;
        E               9.8;
        type            epsilonWallFunction;
        value           nonuniform 0();
    }
    rightWall
    {
        Cmu             0.09;
        kappa           0.41;
        E               9.8;
        type            epsilonWallFunction;
        value           nonuniform List<scalar> 
43
(
5.70902
12.1531
17.397
21.7602
25.8755
29.8522
32.7295
33.9448
33.0178
30.4989
27.1091
24.6204
22.9575
21.9497
21.0397
19.9483
18.6367
17.2281
15.8595
14.6075
13.4918
12.5391
11.7569
11.119
10.5867
10.1201
9.68411
9.23436
8.70811
8.02182
7.40126
7.0253
6.80386
6.81854
7.13098
7.68314
8.55587
9.71461
11.1422
12.9913
14.9194
16.5932
17.9746
)
;
    }
    lowerWall
    {
        Cmu             0.09;
        kappa           0.41;
        E               9.8;
        type            epsilonWallFunction;
        value           nonuniform List<scalar> 
66
(
0.333968
0.20763
0.20763
0.338618
0.513229
0.711757
0.937058
1.15503
1.37019
1.6107
1.94344
2.56805
3.01198
1.71145
1.31197
0.993213
0.071763
0.321272
0.614915
0.895409
1.10075
1.25502
1.36747
1.44304
1.48572
1.50717
0.071763
0.366629
0.37037
0.398065
0.452054
0.532728
0.631116
0.746604
0.879165
1.02899
1.19633
1.38144
1.58432
1.80424
2.03932
2.28638
2.54079
2.79671
3.0474
3.28584
3.50572
3.70273
3.87607
4.03025
4.17744
4.34125
4.56475
4.92959
5.60142
6.93221
9.64984
14.9682
23.8315
35.1847
46.3467
56.1715
61.7299
55.5124
39.1073
5.70902
)
;
    }
    atmosphere
    {
        type            inletOutlet;
        inletValue      nonuniform 0();
        value           nonuniform 0();
    }
    defaultFaces
    {
        type            empty;
    }
    procBoundary1to0
    {
        type            processor;
        value           nonuniform List<scalar> 
44
(
0.396561
0.291593
0.322917
0.361372
0.400254
0.437805
0.47321
0.506289
0.536638
0.560235
0.566096
0.567113
0.570669
0.578092
0.588211
0.599367
0.610196
0.619761
0.62745
0.63286
0.688872
0.688872
0.685788
0.681549
0.67551
0.666364
0.656939
0.64814
0.640408
0.633819
0.628281
0.623696
0.61998
0.617061
0.614883
0.613413
0.612652
0.612638
0.613454
0.61524
0.618196
0.622594
0.628663
0.636722
)
;
    }
    procBoundary1to3
    {
        type            processor;
        value           nonuniform List<scalar> 
45
(
0.692018
0.742302
0.798683
0.863976
0.939554
1.03129
1.14363
1.27266
1.41892
1.5824
1.76279
1.95999
2.17495
2.41089
2.67508
2.98138
3.35378
3.83087
4.47019
5.34827
6.5481
8.12392
10.0449
12.1497
14.1477
15.4609
15.5357
14.5715
13.0603
11.3257
9.7103
8.38131
7.47432
6.94641
6.73421
6.78292
7.03003
7.40343
7.83217
8.26798
8.69913
9.13209
9.64189
10.7764
19.0444
)
;
    }
}


// ************************************************************************* //
