/*--------------------------------*- C++ -*----------------------------------*\
| =========                 |                                                 |
| \\      /  F ield         | OpenFOAM: The Open Source CFD Toolbox           |
|  \\    /   O peration     | Version:  5.0                                   |
|   \\  /    A nd           | Web:      www.OpenFOAM.org                      |
|    \\/     M anipulation  |                                                 |
\*---------------------------------------------------------------------------*/
FoamFile
{
    version     2.0;
    format      ascii;
    class       volScalarField;
    location    "0.6";
    object      k;
}
// * * * * * * * * * * * * * * * * * * * * * * * * * * * * * * * * * * * * * //

dimensions      [0 2 -2 0 0 0 0];

internalField   nonuniform List<scalar> 
1915
(
0.0158092
0.0115069
0.0322791
0.0192146
0.0460475
0.0253582
0.0591617
0.0315366
0.0705381
0.0378865
0.0809446
0.0435581
0.0906031
0.0488173
0.0997534
0.0543753
0.109372
0.0616394
0.120572
0.0742529
0.014024
0.0167798
0.0170042
0.0178154
0.0193429
0.0215778
0.0241706
0.0270643
0.0302246
0.0336272
0.0372514
0.0410788
0.0450863
0.0492391
0.0534865
0.0577619
0.0619857
0.0660695
0.0699229
0.0734629
0.0766266
0.0793872
0.081774
0.0838976
0.0859874
0.0884599
0.0920626
0.098189
0.109526
0.131159
0.171372
0.237909
0.325716
0.413281
0.483007
0.535634
0.542523
0.493308
0.392097
0.126089
0.0193077
0.0386503
0.0468379
0.050348
0.0527539
0.0548772
0.0569888
0.059213
0.0617126
0.0646312
0.0680611
0.0720466
0.0765894
0.0816455
0.0871226
0.0928824
0.0987507
0.104531
0.110021
0.115029
0.119398
0.123035
0.125961
0.12839
0.130859
0.134467
0.141314
0.155134
0.181712
0.227538
0.295107
0.378551
0.473114
0.603297
0.81212
0.942985
0.848576
0.748385
0.62361
0.226548
0.0296923
0.0547288
0.0625574
0.0651659
0.0665608
0.068115
0.0702839
0.0732339
0.0770691
0.0818251
0.087471
0.09393
0.101093
0.108821
0.116939
0.125243
0.133499
0.141456
0.14886
0.155477
0.161116
0.165673
0.16919
0.171959
0.174695
0.178839
0.187074
0.20398
0.236166
0.289803
0.363768
0.445201
0.52266
0.604459
0.65579
0.643013
0.643856
0.648595
0.581168
0.282252
0.0381466
0.067294
0.074486
0.0765407
0.0780482
0.0804212
0.0839597
0.0886627
0.0944784
0.10133
0.109124
0.117757
0.127112
0.137049
0.147389
0.157912
0.168355
0.17843
0.187839
0.196299
0.203576
0.209519
0.214127
0.217649
0.220754
0.224811
0.232331
0.247492
0.276139
0.323295
0.385937
0.446927
0.488555
0.510558
0.517263
0.554184
0.608546
0.659812
0.586375
0.325264
0.0438106
0.0770078
0.0845426
0.0870012
0.0894613
0.0932569
0.0985092
0.105097
0.112908
0.121854
0.131853
0.142818
0.154638
0.167161
0.180184
0.193449
0.206651
0.219456
0.231525
0.242546
0.252254
0.260476
0.267179
0.272567
0.277217
0.282299
0.289861
0.303146
0.326472
0.363149
0.409308
0.448235
0.462244
0.457217
0.476011
0.539367
0.631475
0.727736
0.626652
0.363367
0.0478169
0.0841654
0.0929321
0.0965648
0.10047
0.105968
0.113113
0.121762
0.131817
0.143219
0.155913
0.169811
0.18478
0.200623
0.217081
0.233835
0.250524
0.266772
0.282219
0.296546
0.309504
0.320943
0.330863
0.339505
0.347473
0.355891
0.366544
0.381865
0.404599
0.436283
0.472752
0.498964
0.497921
0.481759
0.505131
0.565476
0.663396
0.809514
0.689668
0.397333
0.0506215
0.0890952
0.099633
0.104938
0.110609
0.118038
0.12732
0.138357
0.151098
0.16552
0.181571
0.199129
0.217997
0.237899
0.258491
0.279383
0.300159
0.320411
0.339775
0.357956
0.374754
0.390078
0.404006
0.41688
0.429432
0.442949
0.459384
0.481007
0.509597
0.545334
0.583955
0.612045
0.612391
0.598175
0.602859
0.632792
0.707562
0.864219
0.745675
0.418076
0.0524422
0.0921953
0.104696
0.111932
0.119591
0.129174
0.140879
0.154687
0.170595
0.188591
0.208586
0.230381
0.253678
0.278096
0.303205
0.328551
0.353677
0.378164
0.401657
0.4239
0.444748
0.464176
0.48232
0.499596
0.5168
0.535311
0.557412
0.585687
0.621509
0.66428
0.710391
0.748995
0.760916
0.747319
0.718921
0.720855
0.770564
0.912126
0.763545
0.422508
0.0534199
0.0938873
0.108255
0.117484
0.127266
0.139194
0.15358
0.170476
0.189904
0.211821
0.236052
0.262282
0.290089
0.318992
0.348495
0.37811
0.407378
0.43589
0.463312
0.48942
0.514115
0.537402
0.559413
0.580552
0.601487
0.623279
0.648209
0.679102
0.716776
0.75954
0.804752
0.844284
0.855137
0.82666
0.788464
0.78438
0.817871
0.928387
0.748087
0.410596
0.0538579
0.0944731
0.110484
0.121634
0.133594
0.147983
0.165195
0.185316
0.208346
0.234161
0.262465
0.292807
0.32464
0.357409
0.390594
0.423731
0.456401
0.488238
0.518937
0.548286
0.57621
0.602703
0.627792
0.651812
0.675143
0.697958
0.721867
0.74945
0.780597
0.811623
0.84043
0.859379
0.852164
0.821656
0.796465
0.800927
0.819264
0.88033
0.702995
0.385135
0.133478
0.104756
0.147207
0.130997
0.160905
0.150121
0.174266
0.166363
0.187287
0.181379
0.199985
0.19574
0.212335
0.209597
0.224254
0.222906
0.235602
0.23553
0.246209
0.247301
0.258052
0.267707
0.27639
0.284188
0.289883
0.294321
0.297957
0.301007
0.303565
0.305658
0.307302
0.308525
0.309359
0.309843
0.310025
0.309963
0.309727
0.309403
0.309092
0.308909
0.308952
0.309345
0.310222
0.0695533
0.0480436
0.0401478
0.0331635
0.112395
0.0944236
0.082235
0.0570769
0.137129
0.121286
0.106106
0.0823653
0.156139
0.142503
0.127469
0.10545
0.173269
0.162065
0.149136
0.129346
0.189517
0.180348
0.168366
0.154593
0.205229
0.198309
0.188582
0.180388
0.220298
0.215673
0.208181
0.199539
0.234503
0.231996
0.227111
0.219901
0.247673
0.246969
0.244551
0.239918
0.259667
0.260493
0.260106
0.258053
0.270404
0.272551
0.273863
0.273974
0.280007
0.28327
0.286017
0.287948
0.288677
0.293062
0.297037
0.300511
0.295878
0.302116
0.30736
0.312469
0.300835
0.307993
0.315606
0.323887
0.304638
0.312094
0.32074
0.330887
0.307772
0.315246
0.323942
0.334194
0.310417
0.317894
0.326482
0.336461
0.31263
0.32015
0.328642
0.338352
0.314426
0.322044
0.330535
0.340105
0.31583
0.323602
0.332192
0.341767
0.316879
0.324862
0.333645
0.34337
0.317612
0.325864
0.334936
0.344951
0.318079
0.326659
0.336111
0.346553
0.318343
0.327312
0.337236
0.348175
0.318483
0.327909
0.338359
0.349889
0.318595
0.328535
0.339573
0.351794
0.318785
0.329286
0.340999
0.354012
0.319151
0.330293
0.342771
0.356682
0.319822
0.331696
0.345037
0.359948
0.320939
0.333641
0.347943
0.363956
0.322642
0.336272
0.351634
0.36884
0.0556869
0.0944015
0.111509
0.124536
0.138691
0.155567
0.175588
0.198815
0.225174
0.254426
0.286145
0.319747
0.35459
0.390075
0.425712
0.461112
0.495954
0.529953
0.562836
0.59438
0.624511
0.653183
0.680187
0.705768
0.730015
0.751762
0.771186
0.789691
0.80581
0.815309
0.816355
0.807443
0.786891
0.765936
0.76128
0.773855
0.778478
0.799467
0.652452
0.358399
0.0597976
0.0932025
0.111502
0.126447
0.142728
0.161935
0.18446
0.210282
0.239215
0.270911
0.304838
0.340325
0.376665
0.413254
0.449661
0.48562
0.520952
0.555501
0.589028
0.621245
0.652061
0.681419
0.708692
0.733965
0.757028
0.775521
0.78766
0.791874
0.789224
0.776648
0.752584
0.724517
0.701964
0.692383
0.698031
0.711912
0.71502
0.719578
0.602481
0.338057
0.0678048
0.0930889
0.1116
0.128067
0.146139
0.167232
0.191581
0.219023
0.249264
0.281892
0.316345
0.351924
0.387905
0.423702
0.458958
0.493528
0.527398
0.560583
0.592889
0.623859
0.653309
0.681269
0.706609
0.728981
0.746957
0.758456
0.761271
0.749489
0.729624
0.704767
0.675626
0.649239
0.630357
0.621498
0.623503
0.633436
0.641561
0.642041
0.554795
0.324404
0.0804419
0.095982
0.11302
0.130214
0.149506
0.171722
0.196805
0.224443
0.254292
0.285961
0.318948
0.352607
0.386253
0.419352
0.451603
0.482937
0.513437
0.543302
0.572413
0.600079
0.625718
0.649188
0.669666
0.686076
0.693124
0.692163
0.683061
0.664945
0.644423
0.62296
0.601737
0.582839
0.568547
0.560942
0.561276
0.568529
0.577535
0.578229
0.520216
0.315651
0.0974953
0.103099
0.1169
0.133689
0.153208
0.175308
0.199555
0.22557
0.253064
0.281767
0.311328
0.341216
0.370838
0.399734
0.42764
0.454457
0.480201
0.505076
0.529051
0.551498
0.571315
0.58746
0.598975
0.604553
0.602347
0.596549
0.586752
0.574554
0.56136
0.547858
0.53485
0.523545
0.51539
0.511867
0.514069
0.521791
0.532038
0.53563
0.495405
0.306909
0.121011
0.116964
0.124908
0.139205
0.157172
0.177405
0.199042
0.221709
0.245239
0.269512
0.294346
0.319331
0.343969
0.367882
0.390841
0.412688
0.433282
0.452478
0.469945
0.485406
0.497999
0.506677
0.511767
0.513131
0.511795
0.508571
0.503312
0.496772
0.489792
0.482993
0.47696
0.472442
0.470365
0.47174
0.477407
0.487424
0.499702
0.506045
0.474861
0.295883
0.155701
0.141918
0.140114
0.148396
0.162037
0.178327
0.195862
0.214188
0.233155
0.252676
0.272637
0.292732
0.312545
0.331683
0.34986
0.366832
0.382371
0.39631
0.408645
0.419112
0.427395
0.433298
0.436991
0.438539
0.438736
0.437922
0.436264
0.434172
0.432156
0.430677
0.430156
0.431094
0.434114
0.439935
0.449187
0.461906
0.476136
0.483781
0.455377
0.282497
0.192872
0.176848
0.167239
0.165515
0.171842
0.182316
0.194953
0.208918
0.223749
0.239153
0.254881
0.270651
0.286198
0.301291
0.315666
0.328935
0.340799
0.351166
0.360222
0.36791
0.374052
0.378609
0.381727
0.383737
0.385262
0.386488
0.387588
0.388798
0.390387
0.392643
0.395888
0.400521
0.407047
0.416037
0.427957
0.442649
0.457857
0.465031
0.436025
0.268011
0.211525
0.204023
0.195867
0.189741
0.190036
0.194958
0.202979
0.212929
0.223991
0.235623
0.247464
0.259384
0.271229
0.282782
0.293838
0.30414
0.313429
0.321639
0.328825
0.334949
0.339977
0.343959
0.347063
0.349672
0.352319
0.355089
0.358069
0.361362
0.365076
0.36938
0.374544
0.380976
0.389192
0.399733
0.412944
0.42841
0.443404
0.448784
0.417759
0.253708
0.233009
0.224945
0.217353
0.212851
0.210827
0.212393
0.217192
0.224012
0.232058
0.240524
0.249104
0.258181
0.267514
0.276833
0.285861
0.294339
0.302095
0.309061
0.315228
0.320592
0.325176
0.329063
0.332421
0.335556
0.338918
0.342577
0.346557
0.350838
0.355376
0.360213
0.365601
0.372041
0.380181
0.390633
0.403691
0.418692
0.432426
0.435216
0.401681
0.240326
0.25392
0.247941
0.241618
0.236641
0.233816
0.233769
0.236312
0.24078
0.246581
0.253197
0.26031
0.26783
0.275654
0.2836
0.291439
0.298956
0.30599
0.312439
0.31825
0.3234
0.327911
0.331866
0.335425
0.338839
0.342451
0.346442
0.350782
0.3553
0.359731
0.363916
0.368088
0.37294
0.379392
0.388247
0.39982
0.413245
0.424863
0.424589
0.388206
0.228099
0.272559
0.269455
0.265488
0.261831
0.259452
0.258947
0.260387
0.263515
0.267995
0.273489
0.279715
0.286503
0.293723
0.301213
0.30877
0.316182
0.32326
0.329846
0.335823
0.341122
0.345742
0.349766
0.353372
0.356817
0.360386
0.364412
0.36884
0.37329
0.377096
0.379698
0.381307
0.383
0.386197
0.392034
0.400919
0.411804
0.420591
0.4169
0.377305
0.217437
0.288884
0.288519
0.287211
0.285692
0.284743
0.28494
0.286529
0.289519
0.293801
0.299192
0.305485
0.312517
0.320139
0.328175
0.336406
0.344592
0.352484
0.359851
0.366496
0.372287
0.377189
0.381298
0.384844
0.388171
0.391652
0.395669
0.400324
0.404906
0.407955
0.408023
0.405377
0.401937
0.400059
0.401404
0.406477
0.413991
0.419344
0.41189
0.368938
0.208484
0.303516
0.305555
0.306763
0.307655
0.308786
0.310646
0.313546
0.317638
0.322957
0.329436
0.336949
0.345357
0.354497
0.36416
0.37409
0.383994
0.393554
0.40245
0.410381
0.417117
0.422569
0.426853
0.430293
0.433414
0.436872
0.441193
0.446695
0.452341
0.455022
0.451122
0.441408
0.429804
0.420411
0.415601
0.415819
0.419301
0.420748
0.409208
0.362863
0.201008
0.31754
0.321602
0.32516
0.328597
0.332206
0.336458
0.341709
0.348135
0.35579
0.364664
0.374691
0.385754
0.397667
0.410172
0.422956
0.43566
0.447898
0.45926
0.46931
0.477641
0.484046
0.488677
0.492025
0.494912
0.498488
0.503943
0.511612
0.520397
0.524007
0.513127
0.491091
0.466433
0.44621
0.433457
0.428007
0.427092
0.42436
0.408473
0.358613
0.194628
0.331992
0.337699
0.343881
0.350255
0.356604
0.36385
0.372453
0.382479
0.393859
0.406563
0.420579
0.435781
0.451925
0.468671
0.485611
0.502315
0.518361
0.533296
0.546559
0.557439
0.565392
0.570646
0.57402
0.576793
0.580921
0.588799
0.601647
0.61915
0.627004
0.600061
0.554908
0.509879
0.475056
0.453021
0.441762
0.436607
0.429681
0.40926
0.355635
0.188899
0.34168
0.352362
0.363687
0.374521
0.383771
0.394753
0.407903
0.422985
0.439683
0.457901
0.477676
0.498812
0.520933
0.543539
0.566059
0.587971
0.608893
0.628515
0.646355
0.6613
0.671707
0.677929
0.681598
0.684605
0.69011
0.70287
0.724859
0.765755
0.790712
0.718438
0.628198
0.553566
0.502043
0.47133
0.455531
0.447047
0.436184
0.41106
0.353342
0.183414
0.346479
0.361466
0.378166
0.395356
0.412071
0.429783
0.449694
0.471896
0.496014
0.521943
0.549762
0.579116
0.609388
0.639783
0.669408
0.697528
0.723701
0.747367
0.766681
0.778943
0.78505
0.787969
0.789634
0.79217
0.799744
0.821504
0.868764
0.965507
1.04286
0.860221
0.694896
0.58506
0.52011
0.485107
0.467945
0.457722
0.443305
0.413257
0.351018
0.177607
0.348625
0.364091
0.382974
0.404895
0.429755
0.455571
0.483526
0.513964
0.54639
0.580894
0.617355
0.654972
0.692548
0.728595
0.761365
0.789397
0.811908
0.828133
0.836159
0.836075
0.832608
0.828498
0.825745
0.827097
0.836009
0.857394
0.909605
0.997588
1.05944
0.959563
0.718434
0.590184
0.524518
0.493057
0.478597
0.468123
0.450357
0.415045
0.347657
0.170623
0.35016
0.365154
0.383474
0.404839
0.429506
0.45741
0.488614
0.522559
0.558382
0.595705
0.633987
0.672097
0.708518
0.741546
0.769525
0.791476
0.807629
0.818716
0.824635
0.824921
0.820551
0.81346
0.806538
0.802629
0.804326
0.814235
0.839188
0.881358
0.931933
0.856518
0.669884
0.568237
0.518704
0.497634
0.488133
0.477737
0.456438
0.415475
0.341992
0.161272
0.351613
0.36592
0.38303
0.402915
0.425792
0.452117
0.481924
0.514524
0.548914
0.584322
0.619886
0.654364
0.686299
0.71429
0.737307
0.755108
0.768307
0.777562
0.782541
0.782263
0.776667
0.767249
0.756523
0.747021
0.741211
0.742393
0.756431
0.786972
0.816178
0.73085
0.607335
0.540196
0.511211
0.501997
0.49712
0.48601
0.460588
0.413503
0.332982
0.152978
0.353144
0.366984
0.383127
0.401661
0.422644
0.446449
0.473148
0.502242
0.532851
0.564096
0.595033
0.62453
0.6514
0.674645
0.693685
0.708509
0.719494
0.726777
0.729758
0.727574
0.720211
0.709016
0.69626
0.684519
0.677003
0.678283
0.693417
0.719075
0.724922
0.644114
0.561348
0.521685
0.509549
0.509055
0.506599
0.493614
0.463683
0.410415
0.322911
0.147778
0.354816
0.368516
0.384065
0.401565
0.42103
0.442605
0.466281
0.491682
0.51811
0.544773
0.570824
0.595341
0.617426
0.636366
0.651758
0.663517
0.671688
0.676098
0.676227
0.67165
0.662743
0.651
0.638791
0.629136
0.625932
0.633602
0.653411
0.673157
0.66112
0.594361
0.540329
0.519354
0.517274
0.52071
0.518121
0.502306
0.467927
0.409181
0.316075
0.144777
0.356676
0.37045
0.385781
0.402707
0.421176
0.44115
0.4625
0.484874
0.507705
0.530326
0.552039
0.572118
0.589886
0.604792
0.616478
0.624754
0.629491
0.630492
0.627541
0.62075
0.610995
0.600109
0.590787
0.586489
0.591164
0.607706
0.633021
0.649997
0.632358
0.581537
0.546913
0.535357
0.536022
0.53874
0.53385
0.514663
0.476236
0.412971
0.315553
0.145278
0.358673
0.372778
0.388251
0.405055
0.423064
0.442107
0.46194
0.482182
0.502325
0.521793
0.539999
0.556363
0.570344
0.581494
0.589482
0.594099
0.595225
0.592831
0.587094
0.578655
0.568895
0.560063
0.555206
0.557932
0.571665
0.597555
0.630117
0.652628
0.643966
0.61
0.584473
0.572307
0.568205
0.565617
0.556353
0.533382
0.491313
0.424148
0.322258
0.150159
0.360842
0.375509
0.391448
0.408548
0.426603
0.445341
0.464416
0.483394
0.50177
0.519009
0.534586
0.548004
0.558815
0.566648
0.571241
0.572459
0.570328
0.565087
0.557325
0.548163
0.539432
0.533713
0.534178
0.544174
0.566293
0.600542
0.641536
0.675763
0.687053
0.677089
0.65896
0.635687
0.617938
0.604345
0.587863
0.560296
0.514743
0.444042
0.33689
0.158069
0.363245
0.378682
0.395375
0.41314
0.431698
0.450686
0.46967
0.488151
0.505592
0.52146
0.535253
0.546524
0.554895
0.560091
0.561967
0.560556
0.556125
0.549252
0.540942
0.532739
0.526774
0.525659
0.532177
0.548811
0.57702
0.61614
0.661983
0.704764
0.735282
0.756734
0.770368
0.733974
0.690015
0.657137
0.629039
0.595298
0.546161
0.472554
0.360652
0.170232
0.365975
0.382373
0.40007
0.418823
0.438282
0.458004
0.477471
0.496115
0.513353
0.528632
0.541457
0.551425
0.558246
0.561776
0.562071
0.559436
0.554501
0.548292
0.542284
0.538377
0.538713
0.545317
0.559714
0.58276
0.614576
0.654225
0.697722
0.739351
0.776495
0.816463
0.873465
0.872054
0.785667
0.722217
0.67716
0.635534
0.582841
0.50735
0.392572
0.185678
0.369148
0.38668
0.405604
0.425623
0.446325
0.467193
0.487632
0.507008
0.524692
0.540109
0.552784
0.562382
0.56875
0.571969
0.57242
0.57086
0.568498
0.567018
0.568489
0.575026
0.588179
0.608269
0.634301
0.664862
0.699139
0.736507
0.772797
0.805719
0.835801
0.872996
0.927773
0.965882
0.885997
0.786369
0.724167
0.675349
0.620263
0.54439
0.428809
0.203805
0.372898
0.391722
0.412063
0.433583
0.455812
0.478168
0.499991
0.520591
0.539305
0.55556
0.568939
0.579238
0.586544
0.591313
0.594476
0.597536
0.602615
0.612342
0.629398
0.655592
0.690617
0.731252
0.772326
0.809738
0.842242
0.869248
0.892452
0.909749
0.920183
0.93705
0.976029
0.966891
0.894888
0.816807
0.75718
0.707983
0.653767
0.579563
0.464664
0.226148
0.377362
0.397616
0.419533
0.442741
0.466722
0.490841
0.514385
0.536631
0.556911
0.574701
0.589708
0.601974
0.611988
0.620828
0.630304
0.643052
0.662442
0.692075
0.734672
0.79041
0.855206
0.920183
0.974266
1.00658
1.01877
1.01981
1.01518
1.00065
0.97228
0.944316
0.937044
0.903063
0.859918
0.814571
0.772354
0.730938
0.681568
0.611009
0.497063
0.247849
0.382674
0.404472
0.428087
0.453118
0.479011
0.505092
0.530622
0.554872
0.577217
0.597253
0.614922
0.630674
0.645654
0.6619
0.682507
0.711561
0.753587
0.812266
0.888596
0.979048
1.07418
1.15781
1.20437
1.20892
1.18079
1.1373
1.08767
1.02448
0.953844
0.905412
0.877579
0.855054
0.832117
0.807044
0.779272
0.747077
0.704096
0.63821
0.525739
0.265814
0.38895
0.412376
0.437765
0.464697
0.492594
0.520763
0.548468
0.575019
0.599904
0.622936
0.644454
0.665562
0.68841
0.716448
0.754437
0.807866
0.881354
0.976254
1.08863
1.20867
1.32044
1.39117
1.40356
1.36098
1.2805
1.1866
1.09279
1.00051
0.931031
0.88458
0.855444
0.836566
0.821726
0.80623
0.787051
0.761445
0.72347
0.661461
0.550207
0.280063
)
;

boundaryField
{
    leftWall
    {
        type            kqRWallFunction;
        value           nonuniform 0();
    }
    rightWall
    {
        type            kqRWallFunction;
        value           nonuniform List<scalar> 
43
(
0.126089
0.226548
0.282252
0.325264
0.363367
0.397333
0.418076
0.422508
0.410596
0.385135
0.358399
0.338057
0.324404
0.315651
0.306909
0.295883
0.282497
0.268011
0.253708
0.240326
0.228099
0.217437
0.208484
0.201008
0.194628
0.188899
0.183414
0.177607
0.170623
0.161272
0.152978
0.147778
0.144777
0.145278
0.150159
0.158069
0.170232
0.185678
0.203805
0.226148
0.247849
0.265814
0.280063
)
;
    }
    lowerWall
    {
        type            kqRWallFunction;
        value           nonuniform List<scalar> 
66
(
0.0158092
0.0115069
0.0115069
0.0192146
0.0253582
0.0315366
0.0378865
0.0435581
0.0488173
0.0543753
0.0616394
0.0742529
0.0695533
0.0480436
0.0401478
0.0331635
0.014024
0.0193077
0.0296923
0.0381466
0.0438106
0.0478169
0.0506215
0.0524422
0.0534199
0.0538579
0.014024
0.0167798
0.0170042
0.0178154
0.0193429
0.0215778
0.0241706
0.0270643
0.0302246
0.0336272
0.0372514
0.0410788
0.0450863
0.0492391
0.0534865
0.0577619
0.0619857
0.0660695
0.0699229
0.0734629
0.0766266
0.0793872
0.081774
0.0838976
0.0859874
0.0884599
0.0920626
0.098189
0.109526
0.131159
0.171372
0.237909
0.325716
0.413281
0.483007
0.535634
0.542523
0.493308
0.392097
0.126089
)
;
    }
    atmosphere
    {
        type            inletOutlet;
        inletValue      nonuniform 0();
        value           nonuniform 0();
    }
    defaultFaces
    {
        type            empty;
    }
    procBoundary1to0
    {
        type            processor;
        value           nonuniform List<scalar> 
44
(
0.0177425
0.0402497
0.0565905
0.0704843
0.0827248
0.0939585
0.10444
0.114441
0.124364
0.13462
0.145348
0.156594
0.168144
0.179774
0.191343
0.202755
0.213919
0.224725
0.235028
0.24466
0.255907
0.255907
0.264641
0.272431
0.279051
0.284143
0.288328
0.291813
0.294733
0.297149
0.299081
0.300552
0.301588
0.302221
0.302488
0.302431
0.302103
0.301566
0.300895
0.300179
0.299517
0.299024
0.2988
0.298961
)
;
    }
    procBoundary1to3
    {
        type            processor;
        value           nonuniform List<scalar> 
45
(
0.311724
0.325075
0.339734
0.35625
0.37473
0.396302
0.421405
0.448598
0.477451
0.507376
0.537688
0.56769
0.596793
0.624683
0.651544
0.678342
0.707199
0.741787
0.787535
0.85118
0.939011
1.05357
1.18997
1.33465
1.46757
1.55531
1.56687
1.51064
1.41294
1.29194
1.17004
1.06156
0.978276
0.918576
0.878215
0.852907
0.837692
0.82718
0.816209
0.800817
0.777861
0.741812
0.681347
0.570088
0.290677
)
;
    }
}


// ************************************************************************* //
