/*--------------------------------*- C++ -*----------------------------------*\
| =========                 |                                                 |
| \\      /  F ield         | OpenFOAM: The Open Source CFD Toolbox           |
|  \\    /   O peration     | Version:  5.0                                   |
|   \\  /    A nd           | Web:      www.OpenFOAM.org                      |
|    \\/     M anipulation  |                                                 |
\*---------------------------------------------------------------------------*/
FoamFile
{
    version     2.0;
    format      ascii;
    class       volScalarField;
    location    "0.6";
    object      nut;
}
// * * * * * * * * * * * * * * * * * * * * * * * * * * * * * * * * * * * * * //

dimensions      [0 2 -1 0 0 0 0];

internalField   nonuniform List<scalar> 
1915
(
6.73533e-05
5.73944e-05
0.000331754
9.8129e-05
0.000553774
0.000112763
0.000766936
0.00012576
0.000925821
0.000137862
0.0010613
0.000147838
0.00118327
0.000156534
0.00129618
0.000165208
0.00141526
0.000175949
0.00159243
0.000193227
0.000246652
6.91179e-05
7.02621e-05
7.17592e-05
7.44899e-05
7.86595e-05
8.33122e-05
8.82972e-05
9.35178e-05
9.89032e-05
0.000104394
0.000109938
0.000115475
0.00012094
0.000126254
0.000131334
0.0001361
0.000140474
0.000144395
0.00014782
0.000150738
0.000153187
0.000155268
0.000157185
0.000159295
0.000162226
0.000167106
0.000176018
0.000192743
0.000223341
0.000273907
0.000340324
0.000400655
0.000436897
0.000453033
0.000459687
0.000429124
0.000394539
0.000353812
0.000250633
0.000104431
0.000370192
0.000403536
0.000396746
0.000387654
0.000384983
0.000389917
0.000401985
0.00042102
0.000446834
0.000478988
0.000516769
0.000559187
0.000604918
0.000652307
0.000699454
0.000744372
0.000785105
0.000819773
0.000846532
0.000863535
0.000868967
0.000861202
0.000839044
0.000802088
0.000751466
0.000691866
0.000635149
0.000601176
0.000608382
0.000660163
0.000744896
0.000862735
0.00107142
0.00146585
0.00183064
0.00178413
0.00162675
0.00126304
0.000380081
0.000129037
0.000556954
0.000641268
0.000647331
0.000649737
0.000666356
0.000700752
0.000752995
0.000822342
0.000907109
0.00100461
0.00111138
0.00122351
0.00133681
0.00144703
0.00155004
0.00164184
0.00171852
0.00177618
0.00181089
0.00181873
0.00179608
0.00174002
0.00164902
0.00152406
0.0013711
0.00120562
0.00105633
0.000958321
0.000932968
0.000973687
0.00105845
0.00118893
0.00141685
0.00173664
0.00193845
0.00203401
0.00191428
0.00140091
0.000412137
0.000146262
0.000705711
0.000859988
0.000901913
0.0009381
0.000994458
0.00107491
0.00117739
0.00129805
0.00143223
0.00157512
0.00172223
0.00186949
0.00201321
0.00214971
0.00227517
0.00238533
0.00247547
0.00254038
0.00257456
0.00257251
0.00252923
0.00244085
0.00230568
0.0021259
0.00191043
0.00167897
0.00146417
0.00130451
0.00122461
0.00121782
0.00125602
0.00133584
0.00150431
0.00179013
0.00211895
0.00233968
0.00224091
0.00155087
0.000437573
0.000156933
0.000827234
0.00106297
0.00115498
0.00123268
0.00132835
0.00144529
0.00157932
0.00172508
0.00187781
0.0020339
0.00219073
0.0023462
0.00249822
0.00264422
0.00278079
0.00290356
0.00300719
0.00308561
0.00313225
0.00314056
0.0031044
0.00301885
0.00288124
0.00269288
0.00246158
0.0022048
0.00195121
0.00173642
0.00158824
0.00150769
0.00147213
0.00147933
0.00158668
0.00189163
0.00234545
0.00269262
0.00265613
0.00176943
0.000459246
0.000163966
0.000921471
0.00124047
0.0013852
0.0014994
0.0016216
0.00175656
0.00190086
0.00205069
0.00220369
0.00235877
0.00251547
0.0026732
0.00283071
0.00298578
0.00313503
0.00327396
0.003397
0.0034978
0.00356951
0.00360522
0.00359839
0.00354349
0.0034369
0.00327832
0.00307283
0.00283305
0.00257974
0.00233957
0.00213781
0.00198442
0.00186896
0.00179377
0.00182913
0.00214782
0.00264826
0.00305583
0.00308436
0.00206728
0.000475966
0.000168654
0.000989454
0.0013854
0.00157748
0.00171809
0.00185334
0.00199255
0.00213569
0.00228208
0.00243208
0.00258651
0.00274587
0.00290979
0.00307688
0.00324468
0.00340972
0.00356755
0.00371287
0.00383972
0.00394169
0.00401227
0.00404527
0.00403531
0.00397855
0.00387366
0.00372342
0.00353661
0.00332725
0.00311136
0.00290479
0.00271838
0.00255123
0.00241301
0.0024245
0.00268869
0.00307626
0.00339542
0.00340631
0.00243202
0.000480633
0.000171525
0.00103369
0.00149543
0.00172598
0.00188342
0.002023
0.00216066
0.00230079
0.00244568
0.00259733
0.00275705
0.00292498
0.00310002
0.00328012
0.00346243
0.00364352
0.00381936
0.00398537
0.00413643
0.00426704
0.00437159
0.0044447
0.00448165
0.00447913
0.00443556
0.0043521
0.00423495
0.00409418
0.00393788
0.00377163
0.00360201
0.00342951
0.0032695
0.00327711
0.00339584
0.00362087
0.0037746
0.00366098
0.00257651
0.000473303
0.000172866
0.00105774
0.00157181
0.00183152
0.00199907
0.00213955
0.00227596
0.00241661
0.00256551
0.00272487
0.00289524
0.00307561
0.00326381
0.00345708
0.00365243
0.00384669
0.00403658
0.00421845
0.00438829
0.0045417
0.00467411
0.00478099
0.00485838
0.00490371
0.00491578
0.00489445
0.00484364
0.00477083
0.00467852
0.0045627
0.00442419
0.00426058
0.00411691
0.00403552
0.00403844
0.00412358
0.00409829
0.0038091
0.00259105
0.000459541
0.000173212
0.00106684
0.00161818
0.0018985
0.00207256
0.00221433
0.00235281
0.00249879
0.00265656
0.00282741
0.00301052
0.00320358
0.00340349
0.00360706
0.00381137
0.00401384
0.004212
0.00440327
0.00458475
0.00475308
0.00490469
0.00503582
0.00514279
0.00522351
0.00527728
0.00530281
0.00530152
0.00527851
0.00523339
0.00515416
0.0050337
0.00486584
0.00468431
0.00454788
0.00449379
0.004471
0.00427685
0.00380051
0.00252493
0.000437709
0.00212404
0.000723008
0.00279494
0.00161811
0.00348103
0.00248123
0.0041318
0.00321086
0.0047513
0.00385919
0.00536039
0.0044869
0.00597647
0.00513023
0.00660764
0.00580355
0.00725319
0.0065062
0.00790615
0.00722821
0.00795489
0.00867045
0.00936013
0.0100107
0.0106089
0.0111525
0.0116403
0.0120702
0.0124403
0.0127503
0.013001
0.0131943
0.0133333
0.0134219
0.0134645
0.0134659
0.0134314
0.0133664
0.0132764
0.0131669
0.0130433
0.0129109
0.0127741
0.000144552
0.000121381
0.000110571
9.96597e-05
0.000931129
0.00073779
0.000542582
0.000308923
0.00175841
0.00127788
0.000852394
0.00052933
0.00241825
0.00173945
0.00115096
0.000747285
0.00300849
0.00221075
0.0015026
0.00100613
0.00360782
0.0027487
0.00195559
0.00136768
0.00425436
0.0033789
0.00254267
0.00188813
0.00495882
0.0041034
0.00326352
0.00254305
0.00571531
0.00490851
0.00410418
0.00337403
0.00650814
0.00577068
0.0050297
0.00433696
0.00731658
0.00666208
0.00600166
0.00537456
0.008119
0.00755459
0.00698434
0.00643802
0.00889584
0.00842303
0.00794619
0.00748804
0.00962967
0.00924607
0.00886119
0.0084931
0.0103051
0.0100053
0.00970669
0.00942701
0.0109118
0.0106814
0.0104623
0.010267
0.0114553
0.0112805
0.0111196
0.0109886
0.0119335
0.0118062
0.0116932
0.0116071
0.0123456
0.0122599
0.0121881
0.0121392
0.0126916
0.0126419
0.0126057
0.0125894
0.0129728
0.0129541
0.0129486
0.0129613
0.0131921
0.0131999
0.0132211
0.0132595
0.0133534
0.0133839
0.0134285
0.0134897
0.0134612
0.0135118
0.013577
0.0136586
0.0135207
0.0135892
0.0136731
0.0137734
0.0135374
0.0136223
0.0137233
0.0138414
0.0135172
0.0136172
0.0137345
0.0138696
0.0134656
0.0135801
0.0137133
0.0138648
0.0133886
0.0135174
0.0136659
0.0138331
0.013292
0.0134347
0.013598
0.0137803
0.0131813
0.0133376
0.0135151
0.0137115
0.0130614
0.0132309
0.0134218
0.0136312
0.012937
0.013119
0.0133224
0.0135432
0.000224393
0.00108004
0.00163992
0.00193298
0.00211252
0.00225799
0.00240228
0.00255707
0.00272586
0.00290857
0.00310303
0.00330588
0.00351346
0.00372246
0.00393029
0.00413501
0.00433504
0.00452881
0.00471436
0.00488921
0.00505064
0.0051956
0.00532022
0.00542214
0.00550062
0.00555336
0.00557893
0.00557943
0.00554796
0.00546996
0.00533631
0.00515914
0.00497325
0.00483547
0.00475569
0.00464132
0.00431245
0.0037015
0.0024415
0.000426442
0.000302336
0.00108532
0.00163904
0.00193976
0.00212576
0.00227788
0.00243049
0.00259491
0.00277349
0.00296496
0.00316628
0.0033736
0.00358305
0.00379147
0.00399667
0.00419734
0.00439272
0.00458213
0.00476434
0.00493731
0.00509893
0.00524696
0.00537729
0.00548646
0.00557248
0.00563249
0.00566238
0.00565993
0.00562159
0.00553827
0.00540331
0.00524099
0.00508685
0.00496618
0.00485448
0.00466149
0.00425427
0.0035722
0.00234377
0.000417761
0.000412504
0.00108662
0.001618
0.00192352
0.0021179
0.00227908
0.0024404
0.0026123
0.0027963
0.00299068
0.00319229
0.00339733
0.00360211
0.00380369
0.00400027
0.00419101
0.00437574
0.00455459
0.00472688
0.00489052
0.00504335
0.0051839
0.00530835
0.00541211
0.00549045
0.00554142
0.00556236
0.00554846
0.00550541
0.00543386
0.0053347
0.00522551
0.00511643
0.00500441
0.0048586
0.00460994
0.00416536
0.00345201
0.00225397
0.000412564
0.00056275
0.00109131
0.0015762
0.00188468
0.00209144
0.00226383
0.0024326
0.00260769
0.00279088
0.00298101
0.00317561
0.00337146
0.00356528
0.00375446
0.00393744
0.00411357
0.0042829
0.00444612
0.00460304
0.00475144
0.00488831
0.00501199
0.00512008
0.00520845
0.00527006
0.00530684
0.0053196
0.00531056
0.00529116
0.00526081
0.00521916
0.00516691
0.00510091
0.00500739
0.00485207
0.00457644
0.00411136
0.00338953
0.00222226
0.000408533
0.000758237
0.00111635
0.00152906
0.00183268
0.00205205
0.00223552
0.00240884
0.00258191
0.00275784
0.00293702
0.0031183
0.00329933
0.00347742
0.00365036
0.00381676
0.00397584
0.00412733
0.0042718
0.00440926
0.00453828
0.00465559
0.00475911
0.00484594
0.00491577
0.00496765
0.00500786
0.00503814
0.00506381
0.00508648
0.00510429
0.0051142
0.00511093
0.00508361
0.00501098
0.00485627
0.00456834
0.00409254
0.00336679
0.00220794
0.000402924
0.00103793
0.00121165
0.0015169
0.00179361
0.00201642
0.00220581
0.00237905
0.0025455
0.00270988
0.00287432
0.00303915
0.00320287
0.00336332
0.00351874
0.00366795
0.00381014
0.00394479
0.00407161
0.00418992
0.00429939
0.00439886
0.00448693
0.00456551
0.00463633
0.00470235
0.00476569
0.00482757
0.0048903
0.00495381
0.00501503
0.00506782
0.00510181
0.00510004
0.00503636
0.00487424
0.00457057
0.0040819
0.00334839
0.00218794
0.000394982
0.00145783
0.00144697
0.00161154
0.00182367
0.00202602
0.00220834
0.0023749
0.00253201
0.00268438
0.00283492
0.0029847
0.00313287
0.00327779
0.00341794
0.00355227
0.00368007
0.00380087
0.0039148
0.0040223
0.00412319
0.00421773
0.00430721
0.00439421
0.00448078
0.00456873
0.00465946
0.004754
0.00485252
0.0049525
0.00504789
0.00512858
0.00517934
0.00517874
0.00509897
0.00490781
0.00457299
0.00406215
0.00331671
0.00215443
0.000385391
0.00205557
0.00187991
0.00190269
0.00201084
0.00216076
0.00231684
0.0024682
0.00261423
0.00275653
0.00289683
0.00303564
0.00317195
0.00330493
0.00343409
0.00355923
0.00367975
0.00379529
0.00390615
0.00401329
0.00411714
0.00421877
0.0043202
0.00442409
0.00453276
0.00464728
0.00476766
0.00489319
0.00502111
0.00514514
0.00525502
0.00533629
0.0053701
0.00533363
0.00520226
0.00495327
0.00456847
0.00402639
0.00326822
0.00210997
0.00037524
0.00278846
0.00249116
0.00240863
0.00242636
0.00251278
0.00262878
0.00275579
0.00288617
0.00301699
0.00314798
0.00327885
0.00340815
0.00353522
0.00365971
0.00378246
0.00390391
0.00402413
0.00414318
0.00426091
0.00437809
0.00449638
0.00461808
0.00474579
0.00488023
0.00502075
0.00516565
0.00531134
0.00545097
0.0055735
0.00566406
0.00570486
0.00567627
0.00555885
0.00533698
0.00500258
0.00455313
0.00397578
0.00320791
0.00206115
0.000365278
0.00373074
0.00332387
0.00312756
0.0030761
0.0031053
0.00318014
0.00328084
0.00339489
0.00351618
0.00364159
0.00377097
0.00390434
0.00403836
0.00417214
0.00430602
0.00444078
0.00457676
0.00471358
0.00485083
0.00498895
0.00512921
0.00527348
0.00542334
0.00557714
0.00573056
0.00588158
0.00602313
0.00614351
0.00622667
0.00625405
0.0062069
0.00606861
0.00582797
0.0054835
0.00504495
0.00452474
0.0039141
0.00314215
0.00201349
0.00035585
0.0048002
0.00436315
0.00409765
0.00397245
0.00394716
0.0039846
0.00406098
0.00416261
0.00428149
0.00441396
0.0045572
0.00470696
0.00486008
0.00501519
0.00517222
0.00533125
0.0054917
0.00565228
0.00581171
0.00596941
0.00612566
0.00628136
0.00643694
0.0065898
0.00672981
0.00685699
0.00696014
0.00702299
0.00702581
0.00694883
0.00677489
0.00649273
0.00610207
0.00561829
0.00507009
0.00448238
0.00384538
0.00307616
0.00197008
0.000347073
0.00592461
0.00550741
0.00522476
0.00506582
0.00500639
0.00501857
0.00508099
0.00517973
0.00530578
0.00545336
0.00561738
0.00579242
0.00597406
0.00615939
0.00634652
0.00653366
0.00671851
0.00689836
0.00707071
0.00723385
0.00738722
0.00753105
0.00766523
0.00778667
0.00788453
0.00795547
0.00798576
0.00795631
0.00784726
0.00764153
0.00732436
0.0068883
0.00634294
0.00572115
0.00507071
0.0044264
0.00377307
0.00301331
0.00193222
0.000339345
0.00705147
0.00668353
0.00642079
0.00626261
0.00619603
0.00620295
0.00626679
0.0063749
0.00651784
0.00668809
0.00687863
0.00708263
0.00729401
0.00750774
0.00771964
0.00792578
0.00812222
0.00830506
0.00847095
0.00861762
0.00874421
0.00885094
0.00893778
0.00900196
0.00903415
0.00902261
0.00895377
0.00880827
0.00857209
0.00823634
0.00778533
0.00720911
0.00652357
0.005779
0.00504287
0.00435774
0.00369955
0.00295518
0.00190038
0.00033273
0.00814142
0.00783957
0.00762071
0.00748942
0.00743959
0.00746049
0.00754028
0.00766799
0.00783388
0.00802896
0.00824439
0.00847164
0.00870288
0.0089313
0.00915107
0.00935715
0.00954494
0.0097103
0.00984971
0.00996068
0.0100422
0.0100946
0.010118
0.0101094
0.0100595
0.00995125
0.00976755
0.00949368
0.0091299
0.00868222
0.00812357
0.00743311
0.00663055
0.00578496
0.00498456
0.00427709
0.00362594
0.00290195
0.001874
0.000327044
0.00916318
0.00893573
0.00877653
0.00869074
0.00867441
0.00872309
0.00882889
0.00898182
0.00917139
0.00938722
0.00961903
0.00985707
0.0100925
0.0103178
0.0105269
0.010715
0.0108778
0.0110119
0.0111137
0.0111802
0.0112093
0.011201
0.0111551
0.0110674
0.0109266
0.0107129
0.0104055
0.00999863
0.00951618
0.00898416
0.00834312
0.00755894
0.00665882
0.00573417
0.00489358
0.00418434
0.00355231
0.00285278
0.00185155
0.000322027
0.0100892
0.0099383
0.00984999
0.00982224
0.00984844
0.00993251
0.0100694
0.010249
0.0104594
0.0106895
0.0109285
0.0111666
0.0113951
0.0116071
0.0117969
0.0119604
0.0120944
0.0121959
0.0122615
0.0122861
0.0122646
0.0121961
0.0120804
0.011912
0.0116765
0.0113512
0.0109151
0.0103813
0.00979736
0.00919452
0.00846889
0.00759055
0.00660182
0.00561954
0.00476697
0.00407928
0.00347834
0.00280626
0.00183101
0.000317334
0.0108834
0.0108176
0.0108094
0.0108474
0.0109187
0.0110421
0.0112127
0.0114193
0.0116493
0.0118913
0.0121356
0.0123735
0.012597
0.0127998
0.0129764
0.0131229
0.0132364
0.0133149
0.0133552
0.0133492
0.0132836
0.0131562
0.0129701
0.0127188
0.0123864
0.0119507
0.0113898
0.0107779
0.0101317
0.00938775
0.00851312
0.00751512
0.00644247
0.00543132
0.00460361
0.00396364
0.00340438
0.00276071
0.00181009
0.000312641
0.0115531
0.0115497
0.011608
0.0117125
0.0118481
0.0120198
0.0122295
0.0124685
0.0127246
0.012987
0.0132478
0.013499
0.0137333
0.0139436
0.0141231
0.0142664
0.0143704
0.0144318
0.0144385
0.0143681
0.0142182
0.014003
0.013726
0.013378
0.01294
0.0124015
0.0117883
0.011269
0.0107187
0.0095768
0.00844062
0.00729448
0.00615748
0.00516669
0.00441113
0.00384392
0.00333207
0.00271421
0.00178595
0.000307436
0.0121203
0.0121506
0.0122435
0.0123901
0.0125774
0.012794
0.0130441
0.0133194
0.0136066
0.0138963
0.0141811
0.0144521
0.0147
0.0149147
0.0150854
0.0152029
0.0152627
0.0152607
0.0151789
0.0150005
0.0147432
0.0144211
0.0140353
0.0135779
0.013028
0.0123603
0.0116483
0.0110727
0.0105414
0.0095245
0.00812918
0.00688168
0.00574625
0.00484997
0.00421301
0.00373188
0.00326375
0.00266399
0.00175418
0.000300882
0.0126007
0.0126558
0.0127619
0.0129128
0.0131027
0.0133313
0.0135958
0.0138836
0.0141801
0.0144738
0.0147557
0.0150154
0.0152415
0.0154217
0.0155435
0.0155985
0.0155851
0.015507
0.0153573
0.0151214
0.0147958
0.0143839
0.0138907
0.0133136
0.0126409
0.0118705
0.0110733
0.0103815
0.00983496
0.00885103
0.00749846
0.00627612
0.00526711
0.00454309
0.0040439
0.00363972
0.00320053
0.00260614
0.00170689
0.000291803
0.0129997
0.0130756
0.0131913
0.0133429
0.0135275
0.0137463
0.013996
0.0142658
0.0145413
0.0148094
0.0150592
0.0152793
0.0154578
0.0155828
0.0156444
0.0156377
0.0155638
0.015425
0.0152138
0.0149137
0.0145133
0.014012
0.0134162
0.012731
0.011962
0.0111362
0.0103328
0.00964773
0.00901729
0.00793174
0.00668517
0.00561193
0.00482191
0.0042958
0.0039196
0.00356851
0.00313751
0.00253143
0.00162848
0.000284574
0.0133223
0.0134178
0.0135445
0.0136993
0.0138794
0.0140845
0.0143112
0.0145507
0.0147903
0.0150172
0.0152198
0.0153871
0.0155079
0.0155721
0.0155724
0.0155054
0.0153709
0.0151664
0.0148813
0.0144995
0.0140098
0.0134129
0.0127195
0.0119453
0.0111169
0.0102856
0.00952618
0.00886075
0.00812671
0.00700723
0.00590894
0.00506637
0.00450893
0.00414533
0.00385169
0.00352518
0.00308449
0.00245393
0.00153854
0.000279768
0.0135746
0.0136889
0.0138286
0.0139902
0.0141699
0.0143652
0.0145717
0.0147816
0.0149837
0.0151663
0.0153184
0.0154296
0.0154904
0.0154923
0.0154289
0.0152961
0.0150903
0.0148049
0.0144279
0.0139458
0.0133515
0.012651
0.0118627
0.0110178
0.0101643
0.00936739
0.00867485
0.00803073
0.00724532
0.00623068
0.00535254
0.00474688
0.00436625
0.00410182
0.00384711
0.00352112
0.00305925
0.00239984
0.00147285
0.000277258
0.0137638
0.0138969
0.014051
0.0142221
0.0144051
0.0145954
0.0147874
0.0149731
0.0151425
0.0152845
0.0153891
0.0154467
0.0154487
0.0153872
0.0152557
0.0150479
0.0147573
0.0143745
0.0138882
0.0132893
0.0125776
0.011768
0.0108922
0.0100011
0.00916136
0.00843617
0.00783423
0.00725424
0.00654288
0.00574132
0.00510089
0.00467291
0.00439031
0.00416506
0.00391431
0.00357205
0.00308284
0.00239269
0.00144849
0.00027858
0.013898
0.0140496
0.0142189
0.0144011
0.01459
0.0147792
0.0149616
0.0151289
0.0152711
0.0153781
0.0154399
0.0154475
0.0153923
0.0152663
0.0150616
0.0147703
0.0143835
0.0138914
0.0132852
0.0125622
0.0117323
0.0108244
0.00988923
0.00899644
0.00821957
0.00760314
0.00712212
0.00666938
0.0061593
0.00560828
0.00515629
0.00482471
0.00457051
0.00433778
0.00406484
0.00369457
0.00317426
0.00244919
0.00146782
0.000284576
0.0139846
0.0141544
0.0143393
0.0145334
0.0147295
0.0149198
0.0150959
0.0152487
0.015368
0.0154438
0.0154662
0.015426
0.0153142
0.015122
0.0148406
0.0144608
0.0139736
0.0133711
0.01265
0.0118173
0.0108971
0.00993561
0.00900077
0.00816986
0.00750541
0.00702717
0.00669697
0.00643409
0.0061458
0.0058165
0.00548886
0.00517985
0.00490158
0.00462577
0.0043088
0.00389991
0.00334482
0.00257966
0.00153458
0.000292684
0.0140308
0.0142182
0.0144185
0.0146247
0.0148283
0.0150205
0.0151916
0.0153314
0.0154296
0.0154756
0.0154593
0.015371
0.0152014
0.0149412
0.0145818
0.0141149
0.0135343
0.0128384
0.0120338
0.0111413
0.0102007
0.00927086
0.00842174
0.00771745
0.00719668
0.00686022
0.00667163
0.00655074
0.00641659
0.00625111
0.00605242
0.00572156
0.00537586
0.00502766
0.00464581
0.00418641
0.00359204
0.00278518
0.00166267
0.000304833
0.0140432
0.0142477
0.0144627
0.0146802
0.0148907
0.0150841
0.0152495
0.0153758
0.0154519
0.0154666
0.0154094
0.0152704
0.0150402
0.0147106
0.0142752
0.0137304
0.013078
0.0123282
0.0115035
0.0106408
0.00978967
0.00900401
0.00833085
0.00780184
0.00742986
0.00720717
0.00709098
0.00701146
0.00691389
0.00679469
0.00670064
0.00642909
0.00596782
0.00551996
0.00505499
0.00453413
0.00389605
0.00304905
0.00185049
0.000319402
0.014028
0.0142485
0.014477
0.0147044
0.0149201
0.0151127
0.0152702
0.0153804
0.0154311
0.0154106
0.0153079
0.0151133
0.014819
0.0144197
0.0139149
0.0133109
0.0126238
0.0118825
0.0111286
0.0104107
0.00977208
0.00923694
0.00880725
0.00847446
0.00823276
0.00807527
0.00796093
0.00784817
0.00769835
0.0075153
0.00733761
0.00709174
0.00659839
0.00603938
0.00548911
0.00490561
0.00422273
0.00333648
0.00206874
0.000335504
0.0139907
0.0142257
0.014466
0.0147011
0.0149192
0.0151078
0.0152535
0.015343
0.0153631
0.0153014
0.0151469
0.0148914
0.0145303
0.0140649
0.0135054
0.0128742
0.0122081
0.0115578
0.010979
0.010516
0.0101827
0.00995402
0.00978126
0.00962257
0.00946237
0.00929685
0.00913253
0.00894783
0.00870457
0.00840263
0.00808093
0.00761807
0.00704924
0.00647461
0.00588387
0.00525694
0.00453456
0.00360556
0.00226264
0.000354305
0.013936
0.0141837
0.0144332
0.0146729
0.0148898
0.01507
0.0151987
0.0152615
0.0152441
0.0151341
0.0149215
0.0146013
0.0141754
0.0136567
0.0130721
0.0124661
0.0118983
0.0114338
0.0111234
0.010982
0.0109763
0.0110315
0.0110606
0.0109951
0.0108226
0.0105807
0.0103082
0.00999849
0.00960729
0.00912807
0.00860856
0.00800738
0.00742171
0.00683395
0.00622398
0.00557053
0.00481592
0.003842
0.00241448
0.000370566
0.0138681
0.014126
0.0143816
0.014622
0.0148331
0.0149993
0.0151047
0.0151336
0.0150715
0.0149063
0.0146314
0.0142478
0.013769
0.0132252
0.0126663
0.01216
0.0117796
0.0115823
0.0115859
0.0117576
0.0120192
0.0122624
0.0123705
0.0122868
0.0120245
0.0116493
0.0112215
0.0107416
0.0101971
0.00962178
0.00901478
0.00838657
0.00776848
0.00715091
0.00651743
0.00584071
0.00505804
0.00404273
0.00253999
0.000383237
0.0137904
0.0140554
0.0143134
0.01455
0.0147497
0.0148957
0.0149707
0.0149585
0.0148446
0.0146198
0.0142829
0.013846
0.0133399
0.0128178
0.0123537
0.0120297
0.0119104
0.0120157
0.01231
0.0127126
0.0131174
0.013397
0.0134494
0.0132562
0.0128607
0.0123472
0.0117913
0.0112089
0.0106254
0.010018
0.00937817
0.00872252
0.00807174
0.00742531
0.00676877
0.00606962
0.00526013
0.00420663
0.00264035
0.00039273
)
;

boundaryField
{
    leftWall
    {
        type            nutkWallFunction;
        Cmu             0.09;
        kappa           0.41;
        E               9.8;
        value           nonuniform 0();
    }
    rightWall
    {
        type            nutkWallFunction;
        Cmu             0.09;
        kappa           0.41;
        E               9.8;
        value           nonuniform List<scalar> 
43
(
2.92299e-05
4.14999e-05
4.5098e-05
4.59741e-05
4.89055e-05
5.66059e-05
5.81665e-05
5.84943e-05
5.76089e-05
4.93933e-05
4.753e-05
4.62651e-05
4.54039e-05
4.48405e-05
4.42691e-05
4.35368e-05
4.26276e-05
4.16167e-05
4.05887e-05
3.96018e-05
3.86885e-05
3.78619e-05
3.71298e-05
3.65101e-05
3.59798e-05
3.55004e-05
3.50309e-05
3.45265e-05
3.39121e-05
3.30769e-05
3.23436e-05
3.19658e-05
3.20974e-05
3.42641e-05
3.25671e-05
3.51654e-05
3.42845e-05
3.53249e-05
3.6765e-05
3.85275e-05
4.01661e-05
4.14677e-05
4.24674e-05
)
;
    }
    lowerWall
    {
        type            nutkWallFunction;
        Cmu             0.09;
        kappa           0.41;
        E               9.8;
        value           nonuniform List<scalar> 
66
(
8.16972e-06
6.99495e-06
6.99495e-06
1.17203e-05
1.33567e-05
1.47926e-05
1.61138e-05
1.71936e-05
1.81273e-05
1.90555e-05
2.01928e-05
2.20039e-05
1.67558e-05
1.41089e-05
1.33036e-05
4.85269e-06
0
5.58141e-06
9.45724e-06
1.20648e-05
1.36305e-05
1.46692e-05
1.53671e-05
1.58084e-05
1.60418e-05
1.61456e-05
0
0
5.23848e-08
3.28012e-07
8.28063e-07
1.52019e-06
2.27322e-06
3.06058e-06
3.86694e-06
4.68261e-06
5.50082e-06
6.3167e-06
7.1255e-06
7.92123e-06
8.69625e-06
9.44158e-06
1.01475e-05
1.08043e-05
1.14032e-05
1.19369e-05
1.24016e-05
1.27982e-05
1.31348e-05
1.34296e-05
1.37156e-05
1.40489e-05
1.45251e-05
1.53113e-05
1.66961e-05
1.91273e-05
2.30989e-05
2.86432e-05
3.47458e-05
4.05742e-05
4.5306e-05
4.76272e-05
4.7338e-05
4.42017e-05
3.87604e-05
1.85779e-05
)
;
    }
    atmosphere
    {
        type            calculated;
        value           nonuniform 0();
    }
    defaultFaces
    {
        type            empty;
    }
    procBoundary1to0
    {
        type            processor;
        value           nonuniform List<scalar> 
44
(
7.14435e-05
0.000500025
0.000892562
0.00123729
0.00153879
0.00181482
0.00207456
0.00232812
0.00259387
0.00291133
0.0033587
0.00389157
0.00445881
0.00503153
0.0056019
0.00617294
0.00674953
0.00733368
0.00792324
0.00851255
0.00855592
0.00855592
0.00919112
0.00980076
0.0103747
0.0109045
0.0113891
0.0118245
0.012208
0.0125379
0.0128135
0.0130349
0.0132036
0.0133219
0.0133926
0.0134197
0.0134072
0.0133599
0.0132829
0.0131813
0.0130605
0.0129256
0.0127816
0.0126334
)
;
    }
    procBoundary1to3
    {
        type            processor;
        value           nonuniform List<scalar> 
45
(
0.0126377
0.0128124
0.0130061
0.0132206
0.0134511
0.0137061
0.0139751
0.0142313
0.0144591
0.0146415
0.0147606
0.0147983
0.0147381
0.0145675
0.0142822
0.0138906
0.0134212
0.0129272
0.0124869
0.0121919
0.0121191
0.012297
0.0126872
0.0131951
0.0137011
0.0140812
0.0142225
0.0140949
0.0137574
0.0132636
0.0126886
0.0121011
0.0115237
0.0109323
0.0103076
0.00965225
0.00898367
0.00831782
0.00765531
0.00698087
0.00625995
0.00542325
0.00433329
0.00271426
0.000399297
)
;
    }
}


// ************************************************************************* //
