/*--------------------------------*- C++ -*----------------------------------*\
| =========                 |                                                 |
| \\      /  F ield         | OpenFOAM: The Open Source CFD Toolbox           |
|  \\    /   O peration     | Version:  5.0                                   |
|   \\  /    A nd           | Web:      www.OpenFOAM.org                      |
|    \\/     M anipulation  |                                                 |
\*---------------------------------------------------------------------------*/
FoamFile
{
    version     2.0;
    format      ascii;
    class       volScalarField;
    location    "0.6";
    object      p;
}
// * * * * * * * * * * * * * * * * * * * * * * * * * * * * * * * * * * * * * //

dimensions      [1 -1 -2 0 0 0 0];

internalField   nonuniform List<scalar> 
1915
(
820.752
826.629
765.267
774.015
713.863
724.501
668.196
679.755
627.607
640.198
589.027
604.528
551.071
570.124
512.403
534.742
471.365
495.201
424.366
450.701
288.061
288.041
288.019
287.991
287.955
287.912
287.86
287.8
287.733
287.66
287.581
287.5
287.417
287.336
287.257
287.184
287.118
287.059
287.01
286.97
286.938
286.915
286.9
286.893
286.891
286.894
286.895
286.881
286.817
286.664
286.434
286.084
285.138
283.318
283.705
294.614
318.336
342.948
354.597
355.515
288.017
287.995
287.98
287.955
287.92
287.877
287.824
287.763
287.694
287.619
287.538
287.455
287.371
287.288
287.209
287.136
287.069
287.011
286.961
286.921
286.89
286.868
286.854
286.85
286.853
286.864
286.881
286.899
286.898
286.849
286.74
286.359
284.739
280.72
276.579
282.068
306.883
334.59
351.699
355.091
287.985
287.962
287.945
287.918
287.882
287.835
287.779
287.715
287.643
287.565
287.484
287.4
287.316
287.234
287.156
287.083
287.018
286.96
286.911
286.872
286.841
286.819
286.805
286.801
286.806
286.82
286.844
286.874
286.898
286.888
286.764
286.138
284.013
280.096
276.363
278.421
289.436
308.077
336.985
352.135
287.961
287.932
287.909
287.879
287.838
287.787
287.727
287.659
287.585
287.506
287.424
287.34
287.256
287.175
287.097
287.025
286.959
286.902
286.854
286.814
286.783
286.761
286.748
286.744
286.75
286.765
286.789
286.818
286.837
286.801
286.571
285.738
283.709
280.807
278.917
280.891
284.816
289.795
302.405
330.262
287.936
287.9
287.87
287.834
287.789
287.734
287.671
287.6
287.524
287.443
287.36
287.275
287.191
287.109
287.031
286.959
286.894
286.837
286.789
286.749
286.718
286.696
286.682
286.678
286.682
286.696
286.719
286.744
286.753
286.692
286.408
285.566
283.84
281.602
280.62
281.903
284.032
286.365
287.215
296.693
287.905
287.863
287.826
287.785
287.735
287.677
287.61
287.537
287.458
287.375
287.29
287.204
287.119
287.037
286.959
286.888
286.823
286.767
286.719
286.679
286.648
286.625
286.61
286.604
286.606
286.617
286.636
286.656
286.658
286.59
286.318
285.593
284.227
282.592
281.711
282.389
283.814
285.587
284.756
291.245
287.868
287.821
287.778
287.732
287.678
287.615
287.545
287.469
287.388
287.303
287.217
287.13
287.044
286.962
286.885
286.814
286.75
286.694
286.646
286.606
286.574
286.55
286.533
286.523
286.523
286.529
286.542
286.555
286.552
286.484
286.249
285.678
284.659
283.452
282.75
283.051
284.006
285.424
284.183
289.609
287.827
287.775
287.726
287.675
287.617
287.551
287.478
287.399
287.316
287.229
287.142
287.054
286.969
286.887
286.811
286.74
286.677
286.621
286.573
286.533
286.499
286.473
286.453
286.44
286.435
286.435
286.44
286.447
286.437
286.371
286.176
285.74
285.009
284.161
283.61
283.734
284.358
285.449
284.311
288.801
287.787
287.726
287.673
287.616
287.554
287.485
287.409
287.328
287.243
287.155
287.067
286.98
286.895
286.814
286.738
286.668
286.605
286.55
286.502
286.46
286.425
286.396
286.373
286.356
286.346
286.34
286.338
286.338
286.324
286.263
286.102
285.772
285.248
284.649
284.245
284.287
284.698
285.57
284.736
292.13
287.758
287.678
287.618
287.556
287.49
287.418
287.34
287.257
287.171
287.083
286.995
286.908
286.824
286.744
286.669
286.6
286.538
286.482
286.433
286.391
286.354
286.322
286.295
286.274
286.26
286.248
286.24
286.238
286.225
286.173
286.046
285.798
285.415
284.983
284.673
284.646
284.866
285.464
285.22
296.551
365.317
356.07
322.498
319.515
287.452
287.491
253.849
256.806
221.294
228.539
189.057
200.599
155.994
170.795
121.509
138.295
85.3164
102.906
47.5957
64.5177
25.0076
-3.43781
-3.94997
-1.1143
-0.78842
-0.825069
-0.890822
-0.933165
-0.970831
-1.01153
-1.05535
-1.10228
-1.15279
-1.20731
-1.26611
-1.32934
-1.39704
-1.46919
-1.54567
-1.62625
-1.71063
-1.79844
-1.88927
285.768
290.121
288.022
287.766
290.348
284.077
287.232
287.585
274.431
280.902
287.353
287.554
257.58
277.544
287.265
287.513
239.369
271.149
286.897
287.425
216.128
252.559
284.443
287.189
188.463
220.811
270.774
286.639
157.493
183.927
230.739
275.799
122.912
146.829
179.921
228.283
84.0315
106.549
132.983
165.575
41.2708
61.6196
85.3086
110.719
1.12691
14.359
33.5241
56.1057
-9.87992
-15.6818
-12.625
0.691471
-2.81121
-7.61294
-15.9501
-24.73
-0.927586
-1.28335
-3.06978
-8.1606
-0.784282
-0.816304
-0.976826
-1.23839
-0.869479
-0.844646
-0.779357
-0.782193
-0.924225
-0.91148
-0.879367
-0.857496
-0.959434
-0.947337
-0.93038
-0.913215
-0.995725
-0.978472
-0.958255
-0.936466
-1.03602
-1.01445
-0.989484
-0.961435
-1.08001
-1.05516
-1.02665
-0.994192
-1.12806
-1.10057
-1.06926
-1.03369
-1.18068
-1.15117
-1.11772
-1.07993
-1.2382
-1.20735
-1.17251
-1.13335
-1.30077
-1.26929
-1.23385
-1.19419
-1.36846
-1.33704
-1.3018
-1.26251
-1.44123
-1.41058
-1.37632
-1.33825
-1.51897
-1.48979
-1.45727
-1.42124
-1.60143
-1.57439
-1.54434
-1.51116
-1.68826
-1.66398
-1.63709
-1.60751
-1.77903
-1.75805
-1.73494
-1.70966
-1.8732
-1.85598
-1.83716
-1.81677
287.726
287.63
287.561
287.495
287.425
287.351
287.272
287.188
287.101
287.013
286.926
286.841
286.758
286.68
286.606
286.537
286.474
286.418
286.369
286.325
286.285
286.251
286.221
286.197
286.18
286.166
286.154
286.152
286.143
286.105
286.015
285.828
285.535
285.197
284.926
284.826
284.846
285.002
283.07
310.357
287.615
287.564
287.499
287.432
287.361
287.286
287.206
287.122
287.036
286.949
286.863
286.779
286.698
286.621
286.547
286.479
286.416
286.359
286.309
286.263
286.222
286.186
286.153
286.127
286.11
286.094
286.08
286.08
286.07
286.053
286.025
285.91
285.68
285.418
285.243
285.244
285.38
285.225
276.067
302.858
287.538
287.501
287.437
287.37
287.299
287.224
287.144
287.061
286.975
286.89
286.806
286.724
286.644
286.568
286.496
286.427
286.363
286.306
286.255
286.208
286.164
286.127
286.093
286.066
286.051
286.028
286.01
286.03
286.035
286.065
286.244
286.343
286.223
286.174
286.516
287.379
288.964
290.076
272.868
331.024
287.504
287.449
287.381
287.313
287.242
287.167
287.088
287.006
286.922
286.838
286.756
286.676
286.598
286.523
286.451
286.382
286.316
286.258
286.208
286.16
286.113
286.076
286.038
286.008
286.003
285.973
285.936
286.065
286.316
286.388
286.569
287.012
288.237
291.093
295.849
301.538
307.461
310.843
307.493
427.997
287.464
287.394
287.327
287.259
287.188
287.115
287.039
286.958
286.876
286.794
286.714
286.635
286.558
286.484
286.413
286.342
286.275
286.217
286.17
286.121
286.066
286.031
285.991
285.937
285.972
286.13
286.029
284.898
283.186
282.964
287.276
296.13
308.521
323
338.352
353.245
367.556
384.661
422.521
577.44
287.411
287.329
287.272
287.207
287.139
287.069
286.995
286.916
286.835
286.755
286.678
286.6
286.523
286.45
286.384
286.312
286.242
286.182
286.141
286.095
286.02
285.957
286.024
285.966
285.197
282.863
279.037
279.81
287.521
298.309
310.54
324.8
341.496
360.455
381.444
404.451
431.052
469.25
542.97
708.044
287.351
287.272
287.225
287.156
287.093
287.027
286.956
286.879
286.799
286.722
286.653
286.575
286.497
286.424
286.368
286.294
286.215
286.118
286.059
286.08
286.039
285.196
282.449
277.244
273.518
274.962
280.393
288.128
299.597
313.232
327.745
344.176
363.421
386.003
412.49
443.964
483.095
537.998
631.462
794.587
287.074
287.262
287.224
287.121
287.061
287
286.929
286.853
286.775
286.703
286.646
286.566
286.482
286.392
286.282
286.18
286.119
285.728
283.058
278.497
273.11
268.505
266.154
266.172
267.946
273.511
282.5
292.914
305.707
320.793
337.773
357.24
380.077
407.131
439.368
478.243
526.402
590.254
689.589
839.562
273.637
286.779
286.986
287.072
287.057
286.999
286.926
286.849
286.77
286.69
286.56
286.42
286.325
286.143
284.23
280.654
274.814
267.028
259.431
254.175
250.569
248.794
249.592
253.029
258.813
267.551
278.971
292.39
308.018
325.805
345.663
368.187
394.403
425.37
462.088
505.74
558.211
623.86
720.319
849.254
212.088
259.368
280.965
286.534
286.685
286.71
286.648
286.573
286.476
286.322
284.646
279.858
272.804
264.896
256.149
247.397
238.742
231.267
226.248
223.873
223.622
225.407
229.465
236.059
245.465
257.954
273.212
290.543
309.619
330.288
352.695
377.623
406.342
440.02
479.385
524.983
577.763
640.611
729.958
834.219
140.085
178.632
219.509
247.964
258.471
263.435
265.978
266.123
264.775
260.208
250.067
237.283
225.814
216.497
208.773
202.182
196.892
193.369
191.642
191.752
193.961
198.6
206.025
216.513
230.258
247.229
266.921
288.477
311.16
334.63
359.091
385.535
415.625
450.621
490.765
535.835
586.054
643.755
724.521
813.334
80.246
105.104
131.905
156.763
174.187
185.69
192.454
194.725
193.99
190.314
184.299
177.558
171.685
166.681
162.187
158.31
155.418
153.888
154.137
156.615
161.681
169.653
180.865
195.584
213.912
235.682
260.134
286.134
312.525
338.767
364.849
391.821
422.017
456.945
496.208
538.777
584.44
635.418
705.479
789.035
19.9041
41.4322
63.0628
82.7216
99.1018
111.518
119.558
123.84
125.629
125.794
124.858
122.84
120.054
116.903
113.912
111.662
110.632
111.275
114.08
119.501
127.861
139.459
154.697
173.94
197.334
224.691
254.764
285.398
314.797
342.921
369.768
396.111
425.142
458.826
495.914
534.544
574.304
617.46
676.084
750.398
-26.0749
-17.3476
-1.75967
15.5641
31.7665
45.0759
54.2369
59.7283
63.0684
65.1794
65.9666
65.5894
64.4572
63.0226
61.8935
61.7506
63.1397
66.4911
72.2725
80.9449
92.739
107.834
126.852
150.728
180.285
214.92
253.801
291.994
324.367
351.445
375.521
398.351
424.535
456.14
490.262
524.073
557.188
592.116
640.326
701.71
-16.2624
-27.3871
-34.5046
-33.4031
-25.7318
-16.3836
-9.14158
-4.5599
-0.916695
2.70528
5.60126
7.72766
9.37341
10.7776
12.5042
15.2339
19.3334
24.9096
32.2163
41.6663
53.3193
67.1697
83.9057
105.418
134.341
173.584
224.96
285.528
337.788
371.055
389.247
401.083
420.144
448.806
479.755
508.467
534.804
561.698
600.438
649.614
-1.65161
-5.68975
-11.5408
-17.9234
-24.7019
-29.6469
-32.2495
-33.3186
-32.5997
-30.0324
-26.3718
-22.3947
-18.0528
-13.5229
-8.76084
-3.79132
1.05896
5.42388
9.24929
12.8832
16.6533
20.825
25.6804
32.4079
42.7821
60.0402
93.6403
164.572
264.75
360.992
408.032
407.834
412.463
436.638
464.805
488.851
508.926
528.451
558.398
598.22
-0.867804
-1.13275
-1.25984
-1.4513
-3.75717
-6.54963
-8.59393
-9.78961
-10.163
-9.83889
-8.65955
-7.22649
-5.56648
-3.88492
-2.29018
-0.841217
0.439017
1.54669
2.35698
2.78577
3.02768
3.29303
3.62543
4.0012
4.44203
5.2024
9.25649
22.436
66.7019
214.407
361.719
400.169
398.245
418.833
445.487
466.188
481.235
494.412
515.819
547.021
-0.811792
-0.699685
-0.690154
-0.791874
-1.01381
-0.908841
-0.758038
-0.682369
-0.57117
-0.39372
-0.206071
-0.0126121
0.192395
0.398451
0.624701
0.934765
1.43095
2.13125
2.7751
3.0772
3.13197
3.19171
3.34734
3.53505
3.68075
3.75772
4.3295
6.45791
13.2242
75.1541
220.115
337.052
366.956
394.099
421.959
441.423
453.403
461.698
474.728
496.737
-0.878769
-0.807321
-0.764396
-0.710405
-0.528824
-0.353098
-0.210654
-0.0880611
0.0378487
0.17755
0.327742
0.487763
0.658934
0.840771
1.03958
1.27731
1.59233
2.00529
2.44772
2.78189
2.97938
3.14865
3.35657
3.59679
3.8564
4.1411
4.62141
5.49765
7.45599
15.7981
81.7982
240.745
318.96
363.399
395.426
415.943
427.319
432.887
437.7
450.628
-0.907414
-0.862664
-0.815568
-0.74835
-0.619173
-0.484481
-0.354892
-0.226227
-0.0914176
0.0551312
0.213593
0.383945
0.567358
0.766049
0.986096
1.23982
1.54272
1.89611
2.26419
2.58487
2.84115
3.07467
3.32011
3.59109
3.89782
4.26108
4.75497
5.34635
5.78439
7.0182
41.4132
174.294
275.783
331.391
367.915
391.413
404.917
410.969
407.647
413.181
-0.927066
-0.881651
-0.829168
-0.763784
-0.671674
-0.562394
-0.443409
-0.31744
-0.181454
-0.0322837
0.130149
0.306147
0.496983
0.704978
0.935
1.19463
1.49026
1.81653
2.14776
2.45221
2.72283
2.97735
3.23519
3.50938
3.80551
4.13412
4.53039
4.94164
5.08505
5.08398
24.2776
129.104
236.683
299.192
340.679
368.866
386.953
395.837
388.383
387.198
-0.954748
-0.90508
-0.847383
-0.778582
-0.69254
-0.590933
-0.477575
-0.354337
-0.219654
-0.0716412
0.0901921
0.26647
0.458349
0.667624
0.897399
1.15171
1.4326
1.73438
2.04059
2.33328
2.60729
2.87059
3.13398
3.40398
3.67992
3.96394
4.26842
4.54683
4.6304
4.58753
14.6225
94.7036
201.523
268.204
314.678
348.656
373.169
386.947
377.491
372.257
-0.990976
-0.938531
-0.877723
-0.806336
-0.721221
-0.623092
-0.513481
-0.392921
-0.260382
-0.114587
0.0452046
0.219749
0.410044
0.61741
0.843681
1.09074
1.35868
1.64283
1.93277
2.2174
2.49242
2.76124
3.02768
3.29268
3.55427
3.81234
4.06753
4.27431
4.31528
4.24374
8.88172
63.0097
166.471
238.464
290.265
330.456
362.112
381.359
371.296
365.019
-1.03505
-0.980879
-0.918523
-0.846412
-0.762794
-0.667659
-0.561368
-0.443783
-0.314051
-0.17116
-0.0142985
0.157328
0.344622
0.548627
0.770503
1.01108
1.26968
1.5426
1.82288
2.10297
2.37887
2.65058
2.91794
3.17932
3.4333
3.67978
3.91419
4.09115
4.10563
3.97776
5.57558
34.7934
129.657
209.537
267.383
313.436
351.449
375.64
366.023
361.163
-1.08723
-1.0322
-0.969402
-0.89767
-0.815884
-0.72361
-0.620615
-0.506431
-0.380238
-0.241101
-0.0881581
0.0794419
0.262602
0.462278
0.679367
0.914312
1.16631
1.43246
1.70771
1.98633
2.26385
2.53751
2.80493
3.06404
3.31405
3.55548
3.78337
3.95885
3.98736
3.86215
4.08137
15.5237
91.509
180.976
246.036
296.749
338.569
366.329
360.832
356.786
-1.14778
-1.09286
-1.03064
-0.960201
-0.8807
-0.791549
-0.692232
-0.582105
-0.460315
-0.32591
-0.177939
-0.0154363
0.162608
0.35723
0.569356
0.799447
1.04691
1.30949
1.58319
1.8629
2.14328
2.41933
2.6867
2.94267
3.18707
3.42204
3.64629
3.83304
3.90754
3.85094
4.01245
7.58663
55.4022
152.493
226.817
280.417
322.517
351.549
354.694
351.634
-1.21676
-1.16297
-1.10239
-1.03422
-0.957798
-0.872478
-0.777621
-0.67248
-0.556149
-0.427611
-0.285787
-0.12953
0.0423874
0.23124
0.438206
0.664034
0.908524
1.16999
1.44495
1.72825
2.0133
2.29264
2.55935
2.80923
3.04238
3.26355
3.47971
3.68743
3.84523
3.92996
4.25846
4.98927
29.3102
126.174
211.022
265.828
305.207
333.024
343.553
345.43
-1.29411
-1.24248
-1.18459
-1.11979
-1.04748
-0.967018
-0.877718
-0.778769
-0.669207
-0.547921
-0.413663
-0.265043
-0.100516
0.0815766
0.282853
0.504553
0.747019
1.0091
1.28765
1.57717
1.86949
2.15408
2.42028
2.6612
2.87685
3.07547
3.27572
3.50738
3.78854
4.07569
4.50832
6.36128
19.3455
105.725
202.061
255.808
288.746
312.198
325.114
337.309
-1.37962
-1.33119
-1.27711
-1.21683
-1.14983
-1.0755
-0.99312
-0.901857
-0.800679
-0.688362
-0.56346
-0.424282
-0.268876
-0.0950725
0.0993506
0.31631
0.556855
0.820495
1.10457
1.40353
1.70774
2.0027
2.2719
2.50374
2.69738
2.86521
3.03755
3.26619
3.59419
3.97151
4.67488
9.08795
25.9021
113.741
217.509
254.988
274.745
291.132
303.229
327.552
-1.47297
-1.42875
-1.37962
-1.32509
-1.26474
-1.198
-1.12417
-1.04239
-0.951571
-0.85036
-0.737088
-0.609723
-0.465834
-0.302629
-0.117133
0.0934303
0.331048
0.596269
0.887689
1.201
1.52603
1.84271
2.12428
2.35049
2.51853
2.64718
2.7738
2.94441
3.18571
3.56169
4.64382
13.2298
81.4647
218.451
267.455
258.487
260.595
270.811
286.982
320.28
-1.57363
-1.53466
-1.49162
-1.44414
-1.3919
-1.33439
-1.27097
-1.20078
-1.12268
-1.03519
-0.936413
-0.823936
-0.694795
-0.545496
-0.372189
-0.171043
0.0612169
0.326947
0.627622
0.962866
1.32432
1.68359
1.99369
2.21947
2.35667
2.43201
2.49139
2.56704
2.73252
3.78238
9.00111
38.0326
141.127
253.378
263.449
241.653
238.245
247.73
272.479
318.296
-1.68091
-1.64818
-1.61238
-1.57329
-1.5307
-1.48422
-1.4333
-1.37712
-1.31453
-1.24392
-1.16316
-1.06944
-0.959255
-0.828343
-0.671873
-0.484734
-0.261848
0.00205454
0.313669
0.68129
1.10427
1.5408
1.90219
2.12994
2.22282
2.227
2.23644
2.3693
3.14663
9.53375
43.9865
112.341
183.477
221.868
217.847
205.997
205.763
218.332
253.893
314.515
-1.79389
-1.76833
-1.74088
-1.71151
-1.68017
-1.64665
-1.61054
-1.57112
-1.52725
-1.47725
-1.41874
-1.34852
-1.26249
-1.15553
-1.02163
-0.854005
-0.645266
-0.386323
-0.0624386
0.351533
0.874547
1.43612
1.87669
2.10276
2.12258
2.04915
2.11906
2.66517
9.27549
38.8125
95.6824
141.072
165.301
174.2
169.368
162.625
164.053
179.842
225.533
299.769
)
;

boundaryField
{
    leftWall
    {
        type            calculated;
        value           nonuniform 0();
    }
    rightWall
    {
        type            calculated;
        value           nonuniform List<scalar> 
43
(
355.515
355.091
352.135
330.262
296.693
291.245
289.609
288.801
292.13
296.551
310.357
302.858
331.024
427.997
577.44
708.044
794.587
839.562
849.254
834.219
813.334
789.035
750.398
701.71
649.614
598.22
547.021
496.737
450.628
413.181
387.198
372.257
365.019
361.163
356.786
351.634
345.43
337.309
327.552
320.28
318.296
314.515
299.769
)
;
    }
    lowerWall
    {
        type            calculated;
        value           nonuniform List<scalar> 
66
(
844.294
850.158
826.629
774.015
724.501
679.755
640.198
604.528
570.124
534.742
495.201
450.701
309.734
303.917
288.37
287.79
288.061
288.017
287.985
287.961
287.936
287.905
287.868
287.827
287.787
287.758
288.085
288.065
288.042
288.014
287.979
287.935
287.883
287.824
287.757
287.683
287.605
287.523
287.441
287.359
287.281
287.208
287.141
287.083
287.034
286.993
286.961
286.938
286.924
286.916
286.915
286.917
286.918
286.905
286.841
286.688
286.457
286.107
285.162
283.345
283.747
294.651
318.364
342.972
354.621
355.539
)
;
    }
    atmosphere
    {
        type            calculated;
        value           nonuniform 0();
    }
    defaultFaces
    {
        type            empty;
    }
    procBoundary1to0
    {
        type            processor;
        value           nonuniform List<scalar> 
44
(
811.601
760.016
713.271
668.777
625.578
583.193
541.112
498.681
455.049
410.123
364.312
322.877
285.003
248.588
212.999
177.755
142.304
106.205
69.1333
32.7517
13.0262
13.0262
-1.51612
-1.62457
-0.83269
-0.76809
-0.842498
-0.897098
-0.938654
-0.98073
-1.02538
-1.07239
-1.12206
-1.17486
-1.23115
-1.29115
-1.35501
-1.42279
-1.49445
-1.56985
-1.6488
-1.73104
-1.81628
-1.90421
)
;
    }
    procBoundary1to3
    {
        type            processor;
        value           nonuniform List<scalar> 
45
(
-1.9827
-1.97022
-1.95705
-1.94292
-1.92791
-1.91152
-1.89392
-1.87584
-1.85746
-1.83899
-1.82044
-1.80162
-1.78197
-1.76043
-1.73527
-1.70392
-1.66271
-1.60671
-1.52958
-1.42349
-1.27939
-1.08761
-0.83572
-0.499831
-0.0316572
0.631707
1.35627
1.92962
2.15728
2.06372
1.96198
2.26775
6.87148
31.3083
70.5566
105.418
128.793
142.382
142.795
130.321
116.778
113.38
129.888
182.876
266.691
)
;
    }
}


// ************************************************************************* //
