/*--------------------------------*- C++ -*----------------------------------*\
| =========                 |                                                 |
| \\      /  F ield         | OpenFOAM: The Open Source CFD Toolbox           |
|  \\    /   O peration     | Version:  5.0                                   |
|   \\  /    A nd           | Web:      www.OpenFOAM.org                      |
|    \\/     M anipulation  |                                                 |
\*---------------------------------------------------------------------------*/
FoamFile
{
    version     2.0;
    format      ascii;
    class       volScalarField;
    location    "0.3";
    object      k;
}
// * * * * * * * * * * * * * * * * * * * * * * * * * * * * * * * * * * * * * //

dimensions      [0 2 -2 0 0 0 0];

internalField   nonuniform List<scalar> 
1935
(
0.49867
0.451596
0.408259
0.375027
0.348094
0.320689
0.290511
0.259932
0.232007
0.208282
0.188812
0.172949
0.159977
0.149263
0.140304
0.132721
0.126231
0.120624
0.115743
0.11147
0.107715
0.104404
0.101482
0.0989023
0.0966271
0.0946243
0.0928666
0.09133
0.0899931
0.0888367
0.0878437
0.0869987
0.0862885
0.0857017
0.0852294
0.0848651
0.0846054
0.0844507
0.084406
0.0844819
0.0846889
0.0850066
0.0852912
0.614218
0.72961
0.80468
0.734619
0.547401
0.656572
0.73659
0.746672
0.475571
0.564404
0.652149
0.704355
0.418421
0.477189
0.553315
0.621898
0.378721
0.414419
0.460309
0.514431
0.346209
0.372201
0.400327
0.432474
0.3122
0.33388
0.355855
0.37807
0.276959
0.2943
0.31203
0.329242
0.244363
0.257144
0.270139
0.282645
0.216694
0.225312
0.233988
0.242224
0.194129
0.199507
0.20483
0.209757
0.176008
0.179056
0.181997
0.184604
0.161442
0.162875
0.164194
0.16525
0.149621
0.149955
0.15019
0.15023
0.139906
0.1395
0.13902
0.138404
0.131818
0.130927
0.129987
0.128957
0.125007
0.123812
0.12259
0.121316
0.119213
0.117845
0.116469
0.11507
0.114243
0.112798
0.111359
0.109918
0.109953
0.108497
0.107059
0.105634
0.106229
0.10481
0.103415
0.102043
0.102984
0.101632
0.100308
0.099014
0.100149
0.0988822
0.0976459
0.0964419
0.0976679
0.0964961
0.095355
0.0942467
0.0954955
0.094422
0.0933778
0.0923654
0.0935949
0.0926182
0.0916685
0.0907482
0.0919349
0.0910501
0.0901894
0.0893553
0.0904888
0.0896889
0.0889099
0.0881543
0.0892335
0.08851
0.0878043
0.0871188
0.0881487
0.0874921
0.0868506
0.0862266
0.0872166
0.086617
0.0860303
0.0854589
0.0864213
0.0858685
0.0853271
0.0847994
0.0857491
0.0852326
0.0847268
0.0842339
0.0851882
0.0846972
0.084217
0.08375
0.0847286
0.0842515
0.0837867
0.0833364
0.0843623
0.0838865
0.0834261
0.0829832
0.0840833
0.0835944
0.0831264
0.082681
0.0838875
0.0833682
0.0828791
0.0824207
0.0837722
0.0832011
0.0826753
0.0821933
0.0837353
0.0830847
0.082505
0.0819888
0.0837694
0.0830069
0.0823566
0.0817986
0.0838464
0.0829469
0.0822197
0.0816207
0.0838942
0.0828831
0.0821028
0.0814798
0.605002
0.509698
0.445933
0.407209
0.387592
0.381557
0.385146
0.395264
0.403501
0.392886
0.36209
0.321209
0.279169
0.241105
0.20909
0.183237
0.162705
0.146394
0.133305
0.122661
0.113892
0.106591
0.100465
0.0952953
0.0909042
0.0871416
0.0838725
0.0809725
0.0783259
0.0758241
0.0733639
0.0708441
0.0681606
0.0651984
0.0618176
0.0578282
0.0529314
0.0465514
0.0371547
0.0189939
0.658587
0.558743
0.490084
0.446233
0.420489
0.406808
0.402324
0.406313
0.409606
0.392838
0.356635
0.312498
0.269379
0.231781
0.200994
0.176535
0.15725
0.141949
0.12965
0.119621
0.111343
0.104445
0.098659
0.0937787
0.0896355
0.0860832
0.0829896
0.0802336
0.077703
0.0752934
0.072906
0.0704435
0.0678057
0.0648804
0.0615307
0.0575689
0.0526984
0.0463473
0.0369915
0.0189614
0.695971
0.615981
0.542999
0.493437
0.461109
0.43901
0.424573
0.420491
0.417519
0.392729
0.348891
0.301073
0.257383
0.220948
0.191922
0.16918
0.151328
0.137148
0.125712
0.116357
0.10862
0.102167
0.0967557
0.0921929
0.088318
0.08499
0.082081
0.0794744
0.0770629
0.0747473
0.0724335
0.070029
0.0674372
0.0645493
0.0612311
0.0572971
0.0524535
0.0461315
0.0368171
0.0189183
0.659957
0.649791
0.588305
0.536518
0.499743
0.471786
0.448187
0.433467
0.419775
0.385229
0.335023
0.285306
0.242721
0.208594
0.181975
0.161278
0.145024
0.132058
0.121551
0.112924
0.105771
0.0998015
0.0947942
0.0905707
0.086979
0.0838843
0.0811647
0.0787095
0.0764175
0.0741955
0.0719547
0.0696075
0.0670611
0.0642102
0.0609231
0.0570168
0.0521997
0.0459067
0.0366338
0.0188666
0.563656
0.592572
0.577404
0.542011
0.509917
0.480502
0.455162
0.433319
0.407614
0.364334
0.312245
0.26454
0.225524
0.194996
0.171379
0.152987
0.138451
0.12677
0.117243
0.109386
0.102855
0.097398
0.0928163
0.0889464
0.085646
0.0827879
0.080258
0.0779527
0.075778
0.0736472
0.0714774
0.0691857
0.0666835
0.0638683
0.0606113
0.0567317
0.0519404
0.0456758
0.0364443
0.0188075
0.466931
0.496506
0.50627
0.495415
0.475674
0.45251
0.430674
0.407949
0.37536
0.329922
0.281964
0.240233
0.206815
0.180771
0.160496
0.144533
0.131767
0.121402
0.112885
0.105825
0.0999384
0.0950104
0.0908653
0.087354
0.084345
0.0817209
0.0793763
0.0772161
0.0751543
0.0731109
0.0710088
0.06877
0.0663096
0.0635285
0.0603
0.0564458
0.0516789
0.0454417
0.0362506
0.0187419
0.400166
0.42002
0.431022
0.430035
0.41903
0.402497
0.3838
0.360815
0.328518
0.288672
0.24902
0.215185
0.188086
0.1667
0.149756
0.136177
0.125148
0.116088
0.10858
0.102323
0.0970879
0.0926921
0.0889823
0.0858244
0.0830995
0.0807008
0.078533
0.0765105
0.0745551
0.0725938
0.0705552
0.0683659
0.0659446
0.0631951
0.0599931
0.0561624
0.0514185
0.0452069
0.0360548
0.0186705
0.345383
0.358971
0.366517
0.366244
0.358359
0.345061
0.328091
0.306533
0.278945
0.247796
0.217807
0.191914
0.170614
0.15346
0.13955
0.12817
0.118775
0.110963
0.104436
0.0989651
0.094368
0.0904917
0.0872031
0.0843839
0.0819283
0.0797415
0.077739
0.0758442
0.0739873
0.0721019
0.0701219
0.0679781
0.0655928
0.0628722
0.0596943
0.0558849
0.0511618
0.0449739
0.0358586
0.018594
0.294162
0.303349
0.307917
0.306837
0.300231
0.289174
0.274589
0.256533
0.23518
0.212371
0.190605
0.171395
0.155094
0.141483
0.130159
0.120717
0.112803
0.10615
0.100548
0.0958237
0.0918331
0.0884484
0.0855555
0.0830519
0.0808453
0.0788532
0.0770017
0.0752236
0.0734564
0.0716399
0.0697131
0.0676107
0.0652577
0.062563
0.0594066
0.0556161
0.0509113
0.0447448
0.0356638
0.0185129
0.249653
0.255236
0.257487
0.255799
0.250232
0.241349
0.229746
0.215813
0.200116
0.183801
0.168152
0.153982
0.141569
0.13088
0.121747
0.113962
0.107354
0.101747
0.0969905
0.092955
0.0895234
0.0865899
0.0840582
0.0818407
0.0798589
0.0780421
0.0763262
0.0746527
0.0729659
0.0712113
0.0693321
0.0672665
0.0649422
0.0622703
0.0591325
0.0553582
0.0506692
0.0445214
0.0354717
0.018428
0.214036
0.216927
0.217531
0.215494
0.210839
0.203872
0.194992
0.184597
0.173189
0.161453
0.150075
0.139527
0.130033
0.121644
0.114318
0.10797
0.102505
0.0978175
0.0938144
0.0903943
0.0874623
0.084931
0.08272
0.080756
0.0789729
0.0773107
0.0757146
0.0741335
0.072518
0.0708181
0.068981
0.0669477
0.0646484
0.061996
0.0588739
0.0551131
0.0504371
0.0443051
0.0352836
0.01834
0.186698
0.187774
0.187312
0.185111
0.181177
0.175686
0.168899
0.161122
0.152713
0.144088
0.135642
0.127669
0.120344
0.113746
0.107887
0.102743
0.0982636
0.0943862
0.0910422
0.088156
0.0856571
0.0834747
0.0815416
0.0797973
0.0781864
0.0766586
0.0751669
0.0736666
0.0721133
0.0704613
0.0686609
0.0666556
0.0643776
0.0617415
0.0586322
0.054882
0.0502164
0.0440974
0.0351006
0.0182494
0.165907
0.165823
0.164713
0.162461
0.159069
0.154642
0.149351
0.143406
0.137051
0.130546
0.124134
0.118011
0.112309
0.107104
0.102426
0.0982747
0.0946244
0.0914345
0.0886548
0.0862293
0.0841015
0.0822154
0.0805172
0.0789597
0.077496
0.0760834
0.0746815
0.0732509
0.0717515
0.0701409
0.068372
0.0663906
0.0641305
0.0615076
0.0584082
0.0546659
0.0500079
0.0438991
0.0349238
0.018157
0.149962
0.149154
0.147668
0.145431
0.142447
0.138781
0.134545
0.129881
0.124952
0.119927
0.114966
0.110199
0.105724
0.101604
0.0978691
0.0945247
0.0915567
0.0889369
0.0866279
0.0845871
0.0827706
0.0811343
0.0796359
0.0782359
0.0768962
0.0755808
0.0742555
0.0728846
0.0714314
0.0698561
0.068114
0.0661525
0.0639069
0.0612944
0.0582023
0.0544654
0.0498123
0.043711
0.0347539
0.0180633
0.137551
0.136305
0.134614
0.132434
0.12977
0.126663
0.123189
0.119443
0.115535
0.111578
0.107678
0.103925
0.100387
0.097112
0.0941226
0.0914243
0.0890074
0.0868508
0.0849263
0.0832012
0.0816413
0.080212
0.0788798
0.0776121
0.0763776
0.0751455
0.0738854
0.0725653
0.0711512
0.0696056
0.067886
0.0659408
0.0637068
0.0611018
0.0580145
0.0542805
0.0496301
0.0435336
0.0345917
0.017969
0.127748
0.126251
0.124469
0.122377
0.119978
0.117301
0.114397
0.111331
0.108178
0.105013
0.101908
0.098922
0.0961035
0.0934833
0.0910778
0.0888896
0.0869106
0.0851244
0.0835092
0.0820396
0.0806888
0.0794295
0.0782346
0.0770772
0.075931
0.0747692
0.0735645
0.0722878
0.0709073
0.0693874
0.0676865
0.0657546
0.0635293
0.0609295
0.0578446
0.0541114
0.0494613
0.043367
0.0344361
0.0178792
0.119906
0.118286
0.116493
0.11451
0.112343
0.110012
0.107551
0.105005
0.102425
0.0998596
0.0973569
0.0949565
0.092689
0.0905743
0.0886218
0.0868319
0.0851969
0.0837037
0.0823347
0.0810702
0.0798887
0.0787682
0.0776864
0.0766207
0.0755484
0.0744458
0.0732881
0.0720482
0.0706962
0.0691978
0.0675124
0.0655911
0.0633722
0.0607757
0.0576915
0.0539574
0.0493061
0.0432123
0.0342903
0.0177987
0.113569
0.111915
0.110164
0.108308
0.10635
0.104306
0.1022
0.100061
0.0979227
0.0958173
0.0937755
0.0918224
0.0899769
0.0882504
0.0866476
0.0851666
0.0838002
0.0825372
0.0813636
0.080263
0.0792182
0.0782108
0.0772221
0.0762326
0.0752222
0.0741695
0.0730515
0.0718429
0.070515
0.0690344
0.0673617
0.0654487
0.0632344
0.0606394
0.0575545
0.0538182
0.0491642
0.0430696
0.0341549
0.0177234
0.108401
0.106774
0.105102
0.103382
0.101618
0.0998186
0.0980013
0.0961855
0.0943922
0.0926424
0.0909547
0.0893444
0.0878221
0.0863937
0.0850602
0.0838184
0.0826614
0.0815795
0.0805606
0.0795913
0.078657
0.077742
0.07683
0.0759038
0.0749453
0.0739346
0.0728503
0.0716682
0.0703604
0.0688948
0.0672324
0.0653256
0.0631143
0.0605196
0.0574327
0.0536931
0.0490355
0.0429388
0.03403
0.0176516
0.104152
0.102592
0.101023
0.0994426
0.0978548
0.0962665
0.0946879
0.0931316
0.0916107
0.0901379
0.0887241
0.0873777
0.086104
0.0849051
0.0837798
0.0827239
0.0817307
0.0807915
0.0798959
0.0790321
0.0781873
0.077348
0.0764995
0.0756261
0.0747111
0.073736
0.0726802
0.0715204
0.0702297
0.0687764
0.0671223
0.0652202
0.0630105
0.0604148
0.0573252
0.0535814
0.0489194
0.0428198
0.0339154
0.0175827
0.100631
0.0991618
0.097707
0.0962653
0.0948391
0.0934329
0.0920532
0.0907075
0.0894036
0.0881486
0.0869482
0.0858066
0.0847256
0.0837049
0.0827416
0.0818312
0.0809672
0.0801414
0.0793444
0.0785659
0.0777943
0.0770173
0.0762214
0.0753923
0.0745139
0.0735688
0.0725371
0.0713963
0.07012
0.0686769
0.0670293
0.0651306
0.0629215
0.0603241
0.0572309
0.0534824
0.0488155
0.0427123
0.0338111
0.0175165
0.0976894
0.0963251
0.0949888
0.0936799
0.0923999
0.0911517
0.0899389
0.0887657
0.0876364
0.0865544
0.0855224
0.0845415
0.0836115
0.0827304
0.0818947
0.0810993
0.080338
0.079603
0.0788858
0.0781767
0.0774652
0.0767397
0.0759878
0.0751958
0.0743484
0.0734288
0.0724176
0.0712929
0.0700286
0.0685939
0.0669515
0.0650551
0.0628458
0.0602461
0.0571489
0.0533955
0.0487233
0.0426162
0.0337172
0.0174532
0.0952153
0.0939604
0.0927409
0.0915564
0.0904079
0.0892968
0.0882249
0.0871944
0.0862071
0.0852644
0.0843668
0.0835137
0.0827035
0.0819333
0.0811991
0.0804958
0.079817
0.0791556
0.0785033
0.0778513
0.0771894
0.076507
0.0757919
0.0750312
0.07421
0.073312
0.0723184
0.0712072
0.0699531
0.0685254
0.0668871
0.0649921
0.0627821
0.0601797
0.0570784
0.0533199
0.0486424
0.0425312
0.0336337
0.017393
0.0931209
0.0919746
0.0908666
0.0897968
0.0887656
0.0877735
0.0868213
0.0859099
0.0850396
0.0842104
0.0834215
0.0826713
0.0819575
0.0812766
0.0806243
0.0799954
0.0793837
0.0787824
0.0781836
0.0775787
0.0769583
0.0763118
0.0756278
0.0748936
0.0740948
0.0732153
0.0722365
0.071137
0.0698914
0.0684694
0.0668343
0.0649403
0.0627291
0.0601239
0.0570184
0.0532549
0.0485723
0.0424572
0.0335605
0.017336
0.0913386
0.0902961
0.0892922
0.0883266
0.0873994
0.0865108
0.085661
0.0848497
0.0840767
0.0833411
0.0826413
0.0819752
0.0813399
0.0807317
0.0801463
0.0795783
0.0790218
0.0784701
0.0779157
0.0773502
0.0767644
0.0761483
0.0754906
0.074779
0.0739992
0.0731355
0.0721695
0.0710798
0.0698415
0.0684243
0.0667918
0.0648982
0.0626857
0.0600776
0.0569681
0.0531999
0.0485125
0.0423937
0.0334974
0.0172823
0.0898154
0.0888699
0.0879612
0.0870892
0.086254
0.0854555
0.0846933
0.083967
0.0832757
0.082618
0.0819921
0.0813955
0.080825
0.0802768
0.0797466
0.079229
0.0787184
0.078208
0.0776907
0.0771582
0.0766017
0.0760114
0.0753761
0.0746837
0.0739203
0.0730701
0.072115
0.0710339
0.0698018
0.0683887
0.0667581
0.0648648
0.0626509
0.0600401
0.0569268
0.0531543
0.0484625
0.0423403
0.033444
0.017232
0.0885095
0.0876526
0.08683
0.0860415
0.0852872
0.084567
0.0838803
0.0832264
0.0826042
0.0820121
0.0814481
0.0809095
0.080393
0.0798949
0.0794107
0.0789353
0.078463
0.0779874
0.0775013
0.0769968
0.0764652
0.0758968
0.0752807
0.0746048
0.0738554
0.073017
0.0720713
0.0709976
0.0697707
0.0683611
0.0667322
0.064839
0.0626238
0.0600105
0.0568939
0.0531174
0.0484218
0.0422965
0.0333998
0.0171851
0.0873875
0.0866104
0.0858645
0.0851498
0.0844665
0.0838142
0.0831926
0.0826007
0.0820374
0.0815009
0.0809891
0.0804994
0.0800284
0.0795724
0.079127
0.0786872
0.0782473
0.0778011
0.0773416
0.0768609
0.0763506
0.0758009
0.0752013
0.0745397
0.0738024
0.0729741
0.0720367
0.0709693
0.0697472
0.0683405
0.0667131
0.06482
0.0626036
0.0599882
0.0568687
0.0530888
0.0483898
0.0422619
0.0333646
0.0171419
0.0864223
0.085716
0.0850377
0.0843877
0.0837661
0.0831729
0.0826073
0.0820687
0.0815558
0.0810667
0.0805995
0.0801513
0.0797189
0.0792987
0.0788862
0.0784767
0.0780644
0.0776433
0.0772065
0.0767463
0.0762542
0.0757207
0.0751353
0.0744861
0.0737594
0.0729399
0.0720098
0.070948
0.06973
0.068326
0.0667
0.0648071
0.0625898
0.0599726
0.0568506
0.053068
0.0483663
0.0422361
0.033338
0.0171024
0.0855915
0.084947
0.0843276
0.0837338
0.0831659
0.0826235
0.0821064
0.0816137
0.081144
0.0806957
0.0802665
0.0798539
0.0794547
0.079065
0.0786808
0.0782972
0.0779086
0.0775092
0.0770919
0.0766493
0.076173
0.0756536
0.0750806
0.0744422
0.0737248
0.0729131
0.0719893
0.0709325
0.0697182
0.0683168
0.0666922
0.0647996
0.0625817
0.0599632
0.0568394
0.0530546
0.0483507
0.0422189
0.0333198
0.0170668
0.0848764
0.0842849
0.0837161
0.0831707
0.0826488
0.0821505
0.0816751
0.0812219
0.0807895
0.0803763
0.07998
0.0795981
0.0792274
0.0788642
0.0785044
0.0781432
0.0777752
0.0773944
0.0769942
0.076567
0.0761045
0.0755974
0.0750352
0.0744062
0.073697
0.0728923
0.0719742
0.070922
0.0697112
0.0683122
0.066689
0.0647969
0.0625789
0.0599596
0.0568345
0.0530481
0.0483428
0.0422098
0.0333095
0.0170352
0.0842609
0.0837139
0.0831879
0.0826835
0.0822011
0.0817404
0.081301
0.0808819
0.0804818
0.080099
0.0797313
0.0793761
0.0790303
0.0786902
0.0783516
0.07801
0.07766
0.0772956
0.0769103
0.0764966
0.0760462
0.07555
0.0749974
0.0743769
0.073675
0.0728765
0.0719637
0.0709157
0.0697081
0.0683115
0.0666899
0.0647987
0.0625809
0.0599612
0.0568354
0.0530483
0.048342
0.0422084
0.0333069
0.0170078
0.0837309
0.0832202
0.0827296
0.0822597
0.0818107
0.0813822
0.0809737
0.0805841
0.0802121
0.0798559
0.0795132
0.0791815
0.0788575
0.0785377
0.078218
0.0778936
0.0775595
0.0772097
0.0768375
0.0764358
0.0759962
0.0755097
0.0749658
0.0743529
0.0736577
0.0728649
0.0719568
0.0709128
0.0697085
0.0683143
0.0666945
0.0648044
0.0625872
0.0599677
0.0568419
0.0530545
0.0483481
0.0422143
0.0333116
0.0169845
0.083274
0.0827917
0.0823297
0.0818881
0.081467
0.0810659
0.080684
0.0803202
0.0799728
0.07964
0.0793194
0.0790085
0.078704
0.0784023
0.0780993
0.0777905
0.0774706
0.0771338
0.0767735
0.0763826
0.0759528
0.075475
0.074939
0.074333
0.0736439
0.0728564
0.0719529
0.0709128
0.0697116
0.0683199
0.0667021
0.0648135
0.0625973
0.0599786
0.0568533
0.0530664
0.0483604
0.042227
0.033323
0.0169653
0.0828791
0.0824177
0.0819777
0.0815589
0.081161
0.0807831
0.0804242
0.0800828
0.0797572
0.0794452
0.0791445
0.0788523
0.0785654
0.0782801
0.0779923
0.0776976
0.0773906
0.0770657
0.0767162
0.0763352
0.0759143
0.0754446
0.0749157
0.0743162
0.0736328
0.0728503
0.0719512
0.0709148
0.0697168
0.0683278
0.0667122
0.0648254
0.0626107
0.0599933
0.0568691
0.0530833
0.0483784
0.0422458
0.0333406
0.0169502
0.0825361
0.0820884
0.0816643
0.0812633
0.0808844
0.0805262
0.0801873
0.0798658
0.0795597
0.0792666
0.0789839
0.0787088
0.078438
0.0781677
0.077894
0.0776122
0.0773172
0.0770032
0.0766638
0.0762918
0.0758793
0.075417
0.074895
0.0743015
0.0736235
0.0728459
0.071951
0.0709183
0.0697235
0.0683373
0.0667241
0.0648395
0.0626267
0.060011
0.0568885
0.0531043
0.0484011
0.0422699
0.0333635
0.016939
0.0822358
0.0817947
0.0813811
0.0809935
0.0806301
0.0802888
0.0799675
0.0796639
0.0793755
0.0790997
0.0788337
0.0785745
0.0783186
0.0780624
0.0778018
0.0775321
0.0772483
0.0769446
0.0766146
0.0762512
0.0758465
0.0753913
0.0748757
0.074288
0.0736152
0.0728422
0.0719515
0.0709225
0.069731
0.0683478
0.0667372
0.064855
0.0626444
0.0600309
0.0569105
0.0531285
0.0484275
0.042298
0.0333907
0.0169312
0.0819691
0.0815283
0.0811205
0.0807427
0.080392
0.0800654
0.0797599
0.0794727
0.0792007
0.0789411
0.0786908
0.0784465
0.0782048
0.077962
0.0777137
0.0774556
0.0771823
0.0768884
0.0765673
0.0762121
0.0758148
0.0753664
0.0748569
0.0742748
0.0736071
0.0728386
0.071952
0.0709267
0.0697386
0.0683584
0.0667506
0.0648709
0.0626629
0.0600518
0.0569339
0.0531545
0.048456
0.0423286
0.0334204
0.0169261
0.0817273
0.0812813
0.0808755
0.0805051
0.0801653
0.0798519
0.079561
0.0792891
0.0790326
0.0787884
0.0785529
0.0783229
0.0780947
0.0778645
0.0776281
0.0773809
0.0771178
0.0768332
0.0765207
0.0761733
0.0757832
0.0753413
0.0748378
0.0742611
0.0735983
0.0728343
0.0719517
0.0709302
0.0697454
0.0683683
0.0667633
0.0648863
0.0626809
0.0600723
0.056957
0.0531802
0.0484844
0.0423594
0.0334504
0.0169227
0.0815021
0.0810471
0.0806413
0.0802767
0.0799468
0.0796458
0.0793688
0.0791114
0.0788698
0.0786401
0.0784188
0.0782024
0.0779871
0.0777689
0.0775438
0.0773071
0.0770537
0.076778
0.0764737
0.0761339
0.0757506
0.0753151
0.0748173
0.0742459
0.0735879
0.0728283
0.0719498
0.0709319
0.0697504
0.0683764
0.0667743
0.0649
0.062697
0.0600909
0.0569779
0.0532035
0.0485101
0.0423869
0.0334768
0.016919
0.0812878
0.0808228
0.0804168
0.0800581
0.0797378
0.0794487
0.0791849
0.0789413
0.0787135
0.0784975
0.0782895
0.0780857
0.0778824
0.0776756
0.077461
0.0772341
0.0769898
0.0767225
0.076426
0.0760932
0.0757165
0.075287
0.0747947
0.0742284
0.0735751
0.0728197
0.0719451
0.0709309
0.0697528
0.0683818
0.0667825
0.0649108
0.0627101
0.060106
0.0569948
0.053222
0.0485297
0.0424069
0.0334946
0.0169117
0.0810888
0.0806166
0.0802121
0.0798599
0.079549
0.0792709
0.0790189
0.0787874
0.0785718
0.0783677
0.0781712
0.0779784
0.0777855
0.0775885
0.0773831
0.0771648
0.0769285
0.0766686
0.0763789
0.0760525
0.0756817
0.0752575
0.0747702
0.0742085
0.0735594
0.072808
0.0719371
0.0709262
0.0697513
0.0683833
0.0667867
0.0649173
0.0627188
0.0601164
0.0570063
0.0532337
0.0485403
0.0424142
0.0334942
0.016897
0.0809381
0.0804648
0.0800637
0.0797173
0.0794135
0.0791432
0.0788993
0.0786761
0.0784685
0.0782723
0.0780835
0.0778981
0.0777122
0.0775219
0.0773229
0.0771104
0.0768797
0.0766249
0.07634
0.0760181
0.0756514
0.0752311
0.0747473
0.0741889
0.0735428
0.0727943
0.0719261
0.0709178
0.0697452
0.0683795
0.066785
0.0649176
0.0627208
0.0601198
0.0570105
0.0532376
0.0485419
0.0424095
0.033476
0.0168603
)
;

boundaryField
{
    leftWall
    {
        type            kqRWallFunction;
        value           nonuniform 0();
    }
    rightWall
    {
        type            kqRWallFunction;
        value           nonuniform List<scalar> 
43
(
0.0189939
0.0189614
0.0189183
0.0188666
0.0188075
0.0187419
0.0186705
0.018594
0.0185129
0.018428
0.01834
0.0182494
0.018157
0.0180633
0.017969
0.0178792
0.0177987
0.0177234
0.0176516
0.0175827
0.0175165
0.0174532
0.017393
0.017336
0.0172823
0.017232
0.0171851
0.0171419
0.0171024
0.0170668
0.0170352
0.0170078
0.0169845
0.0169653
0.0169502
0.016939
0.0169312
0.0169261
0.0169227
0.016919
0.0169117
0.016897
0.0168603
)
;
    }
    lowerWall
    {
        type            kqRWallFunction;
        value           nonuniform 0();
    }
    atmosphere
    {
        type            inletOutlet;
        inletValue      uniform 0.1;
        value           nonuniform List<scalar> 
45
(
0.0852912
0.0838942
0.0828831
0.0821028
0.0814798
0.0809381
0.0804648
0.0800637
0.0797173
0.0794135
0.0791432
0.0788993
0.0786761
0.0784685
0.0782723
0.0780835
0.0778981
0.0777122
0.0775219
0.0773229
0.0771104
0.0768797
0.0766249
0.07634
0.0760181
0.0756514
0.0752311
0.0747473
0.0741889
0.0735428
0.0727943
0.0719261
0.0709178
0.0697452
0.0683795
0.066785
0.0649176
0.0627208
0.0601198
0.0570105
0.0532376
0.0485419
0.0424095
0.033476
0.0168603
)
;
    }
    defaultFaces
    {
        type            empty;
    }
    procBoundary3to1
    {
        type            processor;
        value           nonuniform List<scalar> 
45
(
0.539101
0.661053
0.776235
0.803014
0.677892
0.556433
0.468574
0.410224
0.376501
0.362741
0.363727
0.374417
0.389516
0.401615
0.394484
0.366914
0.328272
0.287206
0.249011
0.216165
0.189219
0.167629
0.150426
0.136631
0.125434
0.116226
0.108568
0.102142
0.0967131
0.0920986
0.0881439
0.0847121
0.0816768
0.0789199
0.0763295
0.073799
0.0712236
0.0684959
0.0654979
0.0620871
0.0580714
0.0531491
0.0467412
0.0373044
0.0190145
)
;
    }
    procBoundary3to2
    {
        type            processor;
        value           nonuniform List<scalar> 
43
(
0.414702
0.387272
0.363008
0.341957
0.3206
0.296397
0.270049
0.244084
0.220628
0.200579
0.1839
0.170115
0.158641
0.148986
0.140764
0.133679
0.127511
0.122093
0.117305
0.113053
0.109266
0.105889
0.102878
0.100196
0.0978129
0.0957025
0.0938415
0.0922088
0.0907851
0.0895526
0.088495
0.0875977
0.0868479
0.0862351
0.0857514
0.0853926
0.0851587
0.0850564
0.0851028
0.0853304
0.0857909
0.0865184
0.087319
)
;
    }
}


// ************************************************************************* //
