/*--------------------------------*- C++ -*----------------------------------*\
| =========                 |                                                 |
| \\      /  F ield         | OpenFOAM: The Open Source CFD Toolbox           |
|  \\    /   O peration     | Version:  5.0                                   |
|   \\  /    A nd           | Web:      www.OpenFOAM.org                      |
|    \\/     M anipulation  |                                                 |
\*---------------------------------------------------------------------------*/
FoamFile
{
    version     2.0;
    format      ascii;
    class       volScalarField;
    location    "0.3";
    object      p;
}
// * * * * * * * * * * * * * * * * * * * * * * * * * * * * * * * * * * * * * //

dimensions      [1 -1 -2 0 0 0 0];

internalField   nonuniform List<scalar> 
1935
(
-6.30225
-6.12906
-5.89731
-5.61072
-5.31231
-5.03726
-4.80162
-4.60852
-4.4545
-4.33384
-4.24079
-4.17064
-4.11966
-4.08494
-4.06434
-4.05623
-4.0592
-4.07195
-4.0933
-4.12213
-4.15732
-4.19784
-4.2428
-4.2916
-4.34383
-4.3992
-4.45745
-4.51833
-4.58163
-4.64718
-4.7149
-4.78475
-4.85674
-4.93085
-5.00705
-5.08528
-5.16544
-5.24737
-5.33089
-5.41585
-5.50205
-5.58864
-5.67524
-6.43014
-6.51243
-6.47561
-5.64539
-6.28646
-6.3758
-6.38132
-5.92753
-6.05124
-6.15056
-6.18314
-6.16335
-5.71502
-5.79132
-5.80352
-5.76326
-5.35096
-5.36055
-5.30866
-5.18895
-5.01932
-4.9696
-4.86586
-4.69312
-4.74486
-4.65878
-4.52832
-4.34537
-4.52904
-4.42284
-4.28198
-4.10293
-4.36324
-4.24982
-4.10852
-3.9385
-4.23881
-4.12567
-3.99033
-3.83335
-4.14672
-4.03808
-3.912
-3.76973
-4.08006
-3.978
-3.86242
-3.73481
-4.03389
-3.93927
-3.83427
-3.72034
-4.0047
-3.91777
-3.82282
-3.72115
-3.98999
-3.91057
-3.82482
-3.73381
-3.98773
-3.91532
-3.83772
-3.75587
-3.99616
-3.93001
-3.85954
-3.78566
-4.0138
-3.95319
-3.88903
-3.82229
-4.03957
-3.98394
-3.92554
-3.86529
-4.07254
-4.02155
-3.96847
-3.91403
-4.11173
-4.06512
-4.01685
-3.96748
-4.15605
-4.11348
-4.06947
-4.02444
-4.2045
-4.16554
-4.12525
-4.08403
-4.25641
-4.22063
-4.18366
-4.14591
-4.31142
-4.27853
-4.24462
-4.21012
-4.36938
-4.3392
-4.30822
-4.27681
-4.43013
-4.40257
-4.37439
-4.3459
-4.49344
-4.46841
-4.44287
-4.41706
-4.55905
-4.53641
-4.51329
-4.48992
-4.62675
-4.60629
-4.58539
-4.56424
-4.69643
-4.67795
-4.65909
-4.63998
-4.76808
-4.75145
-4.73448
-4.71731
-4.84177
-4.82689
-4.81173
-4.79642
-4.91754
-4.90435
-4.89095
-4.87746
-4.99537
-4.98384
-4.97217
-4.96043
-5.0752
-5.0653
-5.0553
-5.04525
-5.15691
-5.14857
-5.14018
-5.13174
-5.24034
-5.23352
-5.22665
-5.21975
-5.32534
-5.31997
-5.31458
-5.30916
-5.41176
-5.40784
-5.40388
-5.39988
-5.49952
-5.49705
-5.49452
-5.49192
-5.58806
-5.58725
-5.58627
-5.58514
-5.67704
-5.67816
-5.67893
-5.67942
-0.770972
7.58005
6.03391
5.17633
7.52347
2.41089
-0.328939
-0.38491
-0.308469
-0.283614
-0.291981
-0.31006
-0.333102
-0.360983
-0.392572
-0.426373
-0.460981
-0.494911
-0.526722
-0.555442
-0.580845
-0.60329
-0.623283
-0.641134
-0.656894
-0.670512
-0.682038
-0.691694
-0.699821
-0.706755
-0.712727
-0.717824
-0.722014
-0.72523
-0.727439
-0.728671
-0.728987
-0.728406
-0.727037
-0.725414
-5.45877
-3.65321
-2.3913
-1.21108
1.21873
2.31315
-0.123655
-0.460551
-0.447089
-0.406713
-0.410467
-0.43085
-0.456322
-0.485449
-0.517174
-0.550269
-0.583481
-0.615434
-0.644889
-0.671144
-0.694178
-0.714428
-0.732406
-0.748421
-0.762551
-0.774781
-0.785163
-0.793887
-0.801237
-0.807492
-0.812847
-0.817378
-0.821072
-0.82388
-0.825781
-0.826802
-0.826998
-0.826375
-0.825031
-0.823458
-6.06451
-6.60232
-6.31314
-4.17694
-2.3161
-0.905112
0.000410419
-0.373378
-0.497215
-0.507714
-0.52809
-0.556106
-0.58606
-0.617245
-0.64917
-0.681075
-0.712019
-0.741008
-0.767268
-0.790477
-0.810785
-0.828617
-0.844406
-0.858421
-0.870763
-0.881463
-0.890592
-0.898307
-0.904826
-0.910358
-0.915052
-0.918974
-0.922127
-0.92449
-0.926059
-0.926864
-0.926946
-0.926297
-0.924999
-0.923499
-5.70891
-5.60293
-4.91335
-3.267
-2.40631
-1.78164
-1.0299
-0.48852
-0.518852
-0.61297
-0.661921
-0.696153
-0.728163
-0.759337
-0.789674
-0.818846
-0.846266
-0.871345
-0.893728
-0.913392
-0.930599
-0.945737
-0.959146
-0.971034
-0.981493
-0.990571
-0.998343
-1.00494
-1.01052
-1.01524
-1.01922
-1.0225
-1.02509
-1.02699
-1.02821
-1.02878
-1.02873
-1.02805
-1.02681
-1.0254
-5.03361
-4.74804
-4.10011
-3.10434
-2.36988
-1.88292
-1.39957
-0.921214
-0.745819
-0.794258
-0.83505
-0.862275
-0.888289
-0.914201
-0.939442
-0.9635
-0.985825
-1.006
-1.02389
-1.03959
-1.05339
-1.0656
-1.07646
-1.0861
-1.09459
-1.10196
-1.10829
-1.11366
-1.11821
-1.12205
-1.12525
-1.12786
-1.12987
-1.13129
-1.13215
-1.13247
-1.13228
-1.13155
-1.13035
-1.12903
-4.44551
-4.10239
-3.57728
-2.94643
-2.38407
-1.94891
-1.58597
-1.26722
-1.09042
-1.05234
-1.04732
-1.05289
-1.06517
-1.08077
-1.09756
-1.11425
-1.13001
-1.14438
-1.15723
-1.16864
-1.17881
-1.18793
-1.1961
-1.2034
-1.20984
-1.21543
-1.22023
-1.22431
-1.22777
-1.23067
-1.23306
-1.23496
-1.23637
-1.23731
-1.23779
-1.23784
-1.23749
-1.23671
-1.23556
-1.23433
-4.09301
-3.75583
-3.32574
-2.86784
-2.44651
-2.08886
-1.78653
-1.54071
-1.38547
-1.30895
-1.27128
-1.25518
-1.25151
-1.25461
-1.26115
-1.26916
-1.27749
-1.28554
-1.29307
-1.30004
-1.30647
-1.31239
-1.3178
-1.32267
-1.32699
-1.33075
-1.33399
-1.33674
-1.33906
-1.34098
-1.34253
-1.3437
-1.3445
-1.34494
-1.34503
-1.34481
-1.34429
-1.34345
-1.34233
-1.34119
-3.87119
-3.5748
-3.2292
-2.87006
-2.53559
-2.24064
-1.98636
-1.7803
-1.63566
-1.54547
-1.4904
-1.45798
-1.43999
-1.43079
-1.42685
-1.42592
-1.42669
-1.4284
-1.43065
-1.43319
-1.43588
-1.43858
-1.44118
-1.4436
-1.44578
-1.4477
-1.44935
-1.45075
-1.45192
-1.45285
-1.45354
-1.45397
-1.45415
-1.45408
-1.45377
-1.45326
-1.45257
-1.45167
-1.45059
-1.44954
-3.72941
-3.47535
-3.19413
-2.90564
-2.63183
-2.38501
-2.1702
-1.99282
-1.85887
-1.76445
-1.69941
-1.65519
-1.62539
-1.6053
-1.59171
-1.58246
-1.57615
-1.57192
-1.56917
-1.56748
-1.56653
-1.56606
-1.56588
-1.56588
-1.56594
-1.56604
-1.56613
-1.56619
-1.5662
-1.56613
-1.56595
-1.56564
-1.56519
-1.5646
-1.5639
-1.56311
-1.56223
-1.56127
-1.56023
-1.55927
-3.64709
-3.4292
-3.19549
-2.95822
-2.7307
-2.52228
-2.33857
-2.18374
-2.06032
-1.96616
-1.89565
-1.84327
-1.80438
-1.77539
-1.75364
-1.7372
-1.72472
-1.7152
-1.70791
-1.70228
-1.69788
-1.69437
-1.69152
-1.68916
-1.68719
-1.68553
-1.6841
-1.68285
-1.68172
-1.68066
-1.67963
-1.67858
-1.67751
-1.67641
-1.67531
-1.67423
-1.67319
-1.67215
-1.67115
-1.67028
-3.60539
-3.41819
-3.22102
-3.02206
-2.8302
-2.65239
-2.4934
-2.35634
-2.24258
-2.15082
-2.07792
-2.02041
-1.97514
-1.93948
-1.91136
-1.88915
-1.87154
-1.8575
-1.84621
-1.83701
-1.82941
-1.82306
-1.81771
-1.81315
-1.80927
-1.80594
-1.80307
-1.80056
-1.79833
-1.7963
-1.79442
-1.79265
-1.79097
-1.78938
-1.7879
-1.78654
-1.78533
-1.78423
-1.78326
-1.78248
-3.59034
-3.42885
-3.2607
-3.09154
-2.92771
-2.77442
-2.63537
-2.51289
-2.40785
-2.31962
-2.24647
-2.18631
-2.1371
-2.09697
-2.06432
-2.03775
-2.01606
-1.99825
-1.98349
-1.97113
-1.96067
-1.95176
-1.94412
-1.93756
-1.93192
-1.92705
-1.92283
-1.91912
-1.91584
-1.91289
-1.9102
-1.90773
-1.90547
-1.9034
-1.90155
-1.89993
-1.89855
-1.8974
-1.89646
-1.89576
-3.59326
-3.45307
-3.30823
-3.16284
-3.02153
-2.88815
-2.76549
-2.65529
-2.55829
-2.47432
-2.40253
-2.34174
-2.29065
-2.24794
-2.21235
-2.18268
-2.15788
-2.13701
-2.11934
-2.10425
-2.09129
-2.08012
-2.07048
-2.06214
-2.05492
-2.04865
-2.04318
-2.03837
-2.03409
-2.03027
-2.02681
-2.02369
-2.02088
-2.01837
-2.01617
-2.0143
-2.01277
-2.01156
-2.01066
-2.01004
-3.60892
-3.4863
-3.36039
-3.23425
-3.11127
-2.99427
-2.8853
-2.78574
-2.69629
-2.61712
-2.54791
-2.48803
-2.43665
-2.39282
-2.35552
-2.32378
-2.29669
-2.27345
-2.25341
-2.23607
-2.22101
-2.20793
-2.19656
-2.18667
-2.17806
-2.17054
-2.16394
-2.15811
-2.15293
-2.14829
-2.14413
-2.1404
-2.13708
-2.13416
-2.13165
-2.12956
-2.12789
-2.12663
-2.12576
-2.12521
-3.63411
-3.52605
-3.41572
-3.30538
-3.19752
-3.09415
-2.99683
-2.90668
-2.82442
-2.75038
-2.68456
-2.62663
-2.57605
-2.53211
-2.49403
-2.46101
-2.43232
-2.40733
-2.38549
-2.36638
-2.34965
-2.33502
-2.32221
-2.311
-2.30119
-2.29256
-2.28495
-2.2782
-2.2722
-2.26683
-2.26203
-2.25776
-2.25398
-2.25069
-2.2479
-2.24561
-2.24382
-2.24251
-2.24168
-2.24118
-3.66681
-3.57103
-3.47373
-3.37657
-3.28133
-3.18947
-3.1022
-3.02048
-2.94501
-2.8762
-2.81417
-2.75879
-2.70967
-2.66631
-2.6281
-2.59444
-2.56477
-2.53859
-2.51547
-2.49507
-2.47708
-2.46123
-2.44727
-2.43498
-2.42415
-2.41457
-2.40607
-2.39852
-2.39179
-2.38578
-2.38042
-2.37566
-2.37148
-2.36787
-2.36483
-2.36237
-2.36047
-2.35913
-2.35834
-2.35788
-3.70586
-3.62066
-3.53447
-3.44842
-3.36382
-3.28177
-3.20324
-3.12906
-3.0599
-2.99617
-2.93805
-2.88547
-2.8382
-2.79587
-2.75804
-2.72427
-2.69414
-2.66729
-2.64338
-2.62211
-2.60322
-2.58648
-2.57163
-2.55848
-2.5468
-2.53643
-2.52719
-2.51896
-2.5116
-2.50504
-2.4992
-2.49403
-2.48951
-2.48562
-2.48237
-2.47975
-2.47777
-2.47641
-2.47565
-2.47524
-3.75074
-3.67475
-3.59806
-3.52142
-3.44582
-3.37214
-3.30121
-3.23376
-3.17037
-3.11143
-3.05712
-3.00744
-2.96224
-2.92125
-2.8842
-2.85077
-2.82065
-2.79357
-2.76927
-2.74751
-2.72805
-2.71068
-2.69519
-2.68137
-2.66904
-2.65804
-2.6482
-2.63941
-2.63155
-2.62454
-2.6183
-2.61279
-2.60799
-2.60387
-2.60044
-2.5977
-2.59565
-2.59427
-2.59354
-2.59319
-3.80105
-3.73302
-3.66439
-3.59568
-3.5277
-3.46121
-3.3969
-3.33543
-3.27728
-3.2228
-3.17215
-3.12537
-3.08237
-3.04299
-3.00703
-2.97429
-2.94455
-2.91761
-2.89326
-2.87131
-2.85155
-2.8338
-2.81788
-2.80359
-2.79079
-2.77932
-2.76903
-2.75981
-2.75156
-2.7442
-2.73765
-2.73187
-2.72684
-2.72255
-2.71898
-2.71615
-2.71404
-2.71265
-2.71195
-2.71167
-3.85613
-3.79486
-3.73301
-3.67099
-3.60951
-3.54923
-3.49076
-3.43464
-3.38128
-3.33095
-3.28381
-3.23991
-3.1992
-3.16159
-3.12697
-3.09519
-3.06612
-3.03959
-3.01546
-2.99356
-2.97374
-2.95583
-2.93967
-2.92511
-2.91201
-2.90022
-2.88963
-2.88012
-2.87159
-2.86397
-2.85719
-2.85122
-2.84602
-2.84159
-2.83793
-2.83502
-2.83288
-2.83149
-2.83083
-2.83061
-3.91497
-3.8594
-3.80329
-3.74702
-3.69121
-3.63643
-3.5832
-3.53194
-3.48298
-3.43654
-3.39275
-3.35167
-3.31328
-3.27755
-3.24442
-3.21379
-3.18558
-3.15968
-3.13597
-3.11434
-3.09465
-3.07678
-3.06058
-3.04593
-3.03269
-3.02075
-3.00999
-3.0003
-2.9916
-2.98382
-2.97689
-2.97078
-2.96548
-2.96095
-2.95722
-2.95427
-2.95211
-2.95074
-2.95011
-2.94995
-3.97654
-3.92589
-3.8748
-3.82363
-3.77291
-3.72312
-3.67466
-3.62785
-3.58296
-3.54016
-3.49954
-3.46118
-3.42509
-3.39127
-3.3597
-3.33034
-3.30314
-3.27803
-3.25493
-3.23374
-3.21438
-3.19672
-3.18066
-3.16608
-3.15287
-3.14092
-3.13011
-3.12036
-3.11158
-3.10371
-3.09671
-3.09053
-3.08516
-3.08059
-3.07682
-3.07386
-3.0717
-3.07035
-3.06976
-3.06966
-4.04022
-3.99399
-3.94747
-3.90097
-3.85492
-3.8097
-3.76561
-3.72289
-3.68174
-3.64228
-3.60463
-3.56884
-3.53498
-3.50305
-3.47309
-3.44508
-3.41899
-3.39481
-3.37246
-3.3519
-3.33302
-3.31576
-3.3
-3.28564
-3.27259
-3.26074
-3.25
-3.24028
-3.23151
-3.22364
-3.21661
-3.21042
-3.20504
-3.20046
-3.1967
-3.19375
-3.19161
-3.19029
-3.18973
-3.18969
-4.10588
-4.06377
-4.02151
-3.97933
-3.93758
-3.89653
-3.8564
-3.81738
-3.77961
-3.74322
-3.7083
-3.67493
-3.6432
-3.61314
-3.58481
-3.55821
-3.53335
-3.51022
-3.48877
-3.46897
-3.45074
-3.43401
-3.41869
-3.40469
-3.39191
-3.38027
-3.36969
-3.36008
-3.35139
-3.34357
-3.33659
-3.33043
-3.32509
-3.32055
-3.31682
-3.31391
-3.31181
-3.31052
-3.31001
-3.31001
-4.17368
-4.13544
-4.09714
-4.05893
-4.02108
-3.98378
-3.94719
-3.91147
-3.87674
-3.84313
-3.81073
-3.77966
-3.74998
-3.72177
-3.6951
-3.66998
-3.64645
-3.62449
-3.60407
-3.58517
-3.56771
-3.55163
-3.53686
-3.52331
-3.5109
-3.49955
-3.48919
-3.47976
-3.47121
-3.46351
-3.45663
-3.45056
-3.4453
-3.44083
-3.43717
-3.43432
-3.43227
-3.43103
-3.43056
-3.43061
-4.24373
-4.20909
-4.1744
-4.13976
-4.10537
-4.07139
-4.03795
-4.00517
-3.97319
-3.94213
-3.91211
-3.88322
-3.85556
-3.82922
-3.80425
-3.7807
-3.75858
-3.73788
-3.7186
-3.70068
-3.68409
-3.66875
-3.6546
-3.64157
-3.62959
-3.6186
-3.60853
-3.59934
-3.59099
-3.58346
-3.57673
-3.5708
-3.56565
-3.5613
-3.55773
-3.55496
-3.55298
-3.55181
-3.55138
-3.55147
-4.31592
-4.28452
-4.25306
-4.22158
-4.19026
-4.15922
-4.12858
-4.09848
-4.06904
-4.04039
-4.01264
-3.9859
-3.96027
-3.93581
-3.9126
-3.89067
-3.87002
-3.85067
-3.83257
-3.81571
-3.80004
-3.78549
-3.77202
-3.75956
-3.74805
-3.73746
-3.72773
-3.71883
-3.71073
-3.70342
-3.6969
-3.69114
-3.68616
-3.68195
-3.67851
-3.67584
-3.67395
-3.67284
-3.67246
-3.67257
-4.38988
-4.36139
-4.33279
-4.30413
-4.27555
-4.24717
-4.21912
-4.19152
-4.16449
-4.13816
-4.11265
-4.08805
-4.06445
-4.04191
-4.02048
-4.00019
-3.98106
-3.96306
-3.94619
-3.93041
-3.91567
-3.90194
-3.88917
-3.87731
-3.86632
-3.85617
-3.84682
-3.83826
-3.83046
-3.82343
-3.81714
-3.81161
-3.80683
-3.8028
-3.79951
-3.79697
-3.79517
-3.79412
-3.79379
-3.79394
-4.46527
-4.43939
-4.41338
-4.38728
-4.36122
-4.33533
-4.30972
-4.28453
-4.25985
-4.23582
-4.21252
-4.19004
-4.16846
-4.14783
-4.12818
-4.10954
-4.0919
-4.07525
-4.05959
-4.04487
-4.03108
-4.01817
-4.00611
-3.99488
-3.98443
-3.97476
-3.96584
-3.95766
-3.95021
-3.9435
-3.93751
-3.93224
-3.92769
-3.92386
-3.92074
-3.91834
-3.91665
-3.91568
-3.91539
-3.91556
-4.54189
-4.51841
-4.4948
-4.4711
-4.44744
-4.42395
-4.40072
-4.37787
-4.35551
-4.33373
-4.31261
-4.29222
-4.27263
-4.25385
-4.23593
-4.21888
-4.20269
-4.18735
-4.17286
-4.15919
-4.14632
-4.13423
-4.1229
-4.11231
-4.10244
-4.09328
-4.08483
-4.07709
-4.07003
-4.06368
-4.05802
-4.05305
-4.04876
-4.04516
-4.04224
-4.03999
-4.03841
-4.03752
-4.03727
-4.03746
-4.6198
-4.59859
-4.57726
-4.55588
-4.53455
-4.51338
-4.49248
-4.47193
-4.45181
-4.43222
-4.41321
-4.39483
-4.37713
-4.36014
-4.34387
-4.32832
-4.31351
-4.29943
-4.28607
-4.27341
-4.26145
-4.25018
-4.23958
-4.22966
-4.2204
-4.2118
-4.20387
-4.19659
-4.18998
-4.18402
-4.17873
-4.17408
-4.17008
-4.16673
-4.16401
-4.16193
-4.16047
-4.15966
-4.15945
-4.15967
-4.69919
-4.68016
-4.66106
-4.64192
-4.62286
-4.60395
-4.5853
-4.56695
-4.549
-4.53149
-4.51448
-4.498
-4.48209
-4.46676
-4.45204
-4.43792
-4.42442
-4.41153
-4.39925
-4.38758
-4.37652
-4.36607
-4.35624
-4.34701
-4.33839
-4.33039
-4.32301
-4.31625
-4.31011
-4.30459
-4.29969
-4.2954
-4.29171
-4.28862
-4.28612
-4.2842
-4.28287
-4.28214
-4.28197
-4.2822
-4.7803
-4.76339
-4.74644
-4.72948
-4.71259
-4.69586
-4.67934
-4.66309
-4.64717
-4.63162
-4.61647
-4.60176
-4.58751
-4.57374
-4.56046
-4.54768
-4.53542
-4.52367
-4.51245
-4.50176
-4.49161
-4.482
-4.47294
-4.46444
-4.45651
-4.44915
-4.44236
-4.43615
-4.43051
-4.42546
-4.42097
-4.41704
-4.41368
-4.41086
-4.40858
-4.40684
-4.40563
-4.40498
-4.40485
-4.40509
-4.86327
-4.84841
-4.83353
-4.81864
-4.80383
-4.78914
-4.77463
-4.76033
-4.7463
-4.73256
-4.71914
-4.70607
-4.69336
-4.68105
-4.66913
-4.65763
-4.64656
-4.63594
-4.62576
-4.61605
-4.60681
-4.59807
-4.58982
-4.58208
-4.57486
-4.56817
-4.562
-4.55637
-4.55126
-4.54668
-4.54263
-4.53908
-4.53604
-4.5335
-4.53145
-4.52988
-4.5288
-4.52823
-4.52814
-4.52838
-4.94811
-4.93521
-4.92228
-4.90936
-4.89649
-4.88371
-4.87107
-4.85859
-4.8463
-4.83424
-4.82243
-4.81089
-4.79964
-4.7887
-4.77809
-4.76783
-4.75793
-4.7484
-4.73927
-4.73055
-4.72225
-4.71439
-4.70698
-4.70004
-4.69356
-4.68756
-4.68204
-4.677
-4.67244
-4.66835
-4.66473
-4.66157
-4.65887
-4.6566
-4.65477
-4.65338
-4.65243
-4.65193
-4.65187
-4.65212
-5.0347
-5.02365
-5.01258
-5.0015
-4.99044
-4.97944
-4.96854
-4.95774
-4.94709
-4.9366
-4.92631
-4.91622
-4.90636
-4.89675
-4.88741
-4.87836
-4.86962
-4.8612
-4.85313
-4.84541
-4.83807
-4.83112
-4.82458
-4.81844
-4.81273
-4.80744
-4.80258
-4.79815
-4.79413
-4.79054
-4.78736
-4.78458
-4.7822
-4.78021
-4.77861
-4.77739
-4.77656
-4.77614
-4.77611
-4.77636
-5.12288
-5.11358
-5.10425
-5.0949
-5.08554
-5.07621
-5.06694
-5.05773
-5.04863
-5.03964
-5.03079
-5.0221
-5.01359
-5.00529
-4.9972
-4.98936
-4.98178
-4.97448
-4.96747
-4.96078
-4.95442
-4.9484
-4.94273
-4.93742
-4.93248
-4.92791
-4.92371
-4.91988
-4.91642
-4.91332
-4.91057
-4.90817
-4.90611
-4.90439
-4.90301
-4.90196
-4.90125
-4.9009
-4.9009
-4.90115
-5.21249
-5.20486
-5.19718
-5.18945
-5.18171
-5.17397
-5.16624
-5.15856
-5.15093
-5.14339
-5.13595
-5.12863
-5.12146
-5.11444
-5.10761
-5.10098
-5.09457
-5.08839
-5.08247
-5.07681
-5.07144
-5.06635
-5.06156
-5.05709
-5.05292
-5.04907
-5.04552
-5.0423
-5.03937
-5.03676
-5.03443
-5.0324
-5.03066
-5.02921
-5.02803
-5.02715
-5.02655
-5.02628
-5.0263
-5.02654
-5.30343
-5.29738
-5.29128
-5.28512
-5.27892
-5.2727
-5.26647
-5.26026
-5.25409
-5.24796
-5.24191
-5.23595
-5.2301
-5.22437
-5.2188
-5.21338
-5.20814
-5.20309
-5.19826
-5.19364
-5.18925
-5.1851
-5.18119
-5.17754
-5.17414
-5.17099
-5.1681
-5.16547
-5.16308
-5.16093
-5.15903
-5.15736
-5.15592
-5.15472
-5.15375
-5.15302
-5.15254
-5.15233
-5.15238
-5.15261
-5.39564
-5.39113
-5.38656
-5.3819
-5.3772
-5.37246
-5.3677
-5.36293
-5.35818
-5.35346
-5.34878
-5.34417
-5.33964
-5.3352
-5.33087
-5.32667
-5.32261
-5.31869
-5.31494
-5.31135
-5.30795
-5.30473
-5.3017
-5.29886
-5.29622
-5.29377
-5.29152
-5.28946
-5.28759
-5.28591
-5.28441
-5.28309
-5.28196
-5.28101
-5.28024
-5.27965
-5.27927
-5.27912
-5.27918
-5.2794
-5.48913
-5.48612
-5.48303
-5.47985
-5.47661
-5.47332
-5.46999
-5.46665
-5.46331
-5.45998
-5.45667
-5.45341
-5.45019
-5.44704
-5.44397
-5.44098
-5.43808
-5.43529
-5.43262
-5.43006
-5.42763
-5.42533
-5.42316
-5.42113
-5.41923
-5.41747
-5.41585
-5.41436
-5.413
-5.41177
-5.41067
-5.4097
-5.40886
-5.40814
-5.40755
-5.40711
-5.40682
-5.40671
-5.40679
-5.40698
-5.58383
-5.58236
-5.58078
-5.57909
-5.57732
-5.57549
-5.57361
-5.5717
-5.56978
-5.56784
-5.56591
-5.56399
-5.5621
-5.56024
-5.55841
-5.55663
-5.5549
-5.55323
-5.55162
-5.55008
-5.54861
-5.54721
-5.54589
-5.54465
-5.54348
-5.54238
-5.54137
-5.54042
-5.53956
-5.53876
-5.53804
-5.53738
-5.5368
-5.53629
-5.53586
-5.53551
-5.53526
-5.53515
-5.53521
-5.53535
-5.67971
-5.6798
-5.67971
-5.6795
-5.67919
-5.6788
-5.67836
-5.67787
-5.67734
-5.67679
-5.67622
-5.67564
-5.67504
-5.67445
-5.67385
-5.67326
-5.67268
-5.67211
-5.67155
-5.67101
-5.67048
-5.66997
-5.66949
-5.66902
-5.66857
-5.66815
-5.66775
-5.66737
-5.66701
-5.66667
-5.66634
-5.66604
-5.66576
-5.66549
-5.66525
-5.66503
-5.66483
-5.6647
-5.66468
-5.66474
)
;

boundaryField
{
    leftWall
    {
        type            calculated;
        value           nonuniform 0();
    }
    rightWall
    {
        type            calculated;
        value           nonuniform List<scalar> 
43
(
-0.725414
-0.823458
-0.923499
-1.0254
-1.12903
-1.23433
-1.34119
-1.44954
-1.55927
-1.67028
-1.78248
-1.89576
-2.01004
-2.12521
-2.24118
-2.35788
-2.47524
-2.59319
-2.71167
-2.83061
-2.94995
-3.06966
-3.18969
-3.31001
-3.43061
-3.55147
-3.67257
-3.79394
-3.91556
-4.03746
-4.15967
-4.2822
-4.40509
-4.52838
-4.65212
-4.77636
-4.90115
-5.02654
-5.15261
-5.2794
-5.40698
-5.53535
-5.66474
)
;
    }
    lowerWall
    {
        type            calculated;
        value           nonuniform 0();
    }
    atmosphere
    {
        type            calculated;
        value           nonuniform List<scalar> 
45
(
-5.72904
-5.72904
-5.72904
-5.72904
-5.72904
-5.72904
-5.72904
-5.72904
-5.72904
-5.72904
-5.72904
-5.72904
-5.72904
-5.72904
-5.72904
-5.72904
-5.72904
-5.72904
-5.72904
-5.72904
-5.72904
-5.72904
-5.72904
-5.72904
-5.72904
-5.72904
-5.72904
-5.72904
-5.72904
-5.72904
-5.72904
-5.72904
-5.72904
-5.72904
-5.72904
-5.72904
-5.72904
-5.72904
-5.72904
-5.72904
-5.72904
-5.72904
-5.72904
-5.72904
-5.72904
)
;
    }
    defaultFaces
    {
        type            empty;
    }
    procBoundary3to1
    {
        type            processor;
        value           nonuniform List<scalar> 
45
(
-6.45976
-6.59039
-6.6199
-6.31244
-6.66988
3.13106
8.80667
6.42454
7.02714
8.41679
1.60396
-0.0885522
-0.230237
-0.177402
-0.160017
-0.172458
-0.191538
-0.214351
-0.241996
-0.273797
-0.308268
-0.343872
-0.379112
-0.412589
-0.443279
-0.470798
-0.495307
-0.517171
-0.536646
-0.55379
-0.568593
-0.581147
-0.591704
-0.600622
-0.608251
-0.614824
-0.620426
-0.625038
-0.628605
-0.631098
-0.632544
-0.632999
-0.63248
-0.631099
-0.629428
)
;
    }
    procBoundary3to2
    {
        type            processor;
        value           nonuniform List<scalar> 
43
(
-6.12488
-5.95172
-5.7422
-5.50458
-5.26235
-5.03568
-4.83559
-4.66561
-4.52499
-4.41083
-4.31979
-4.24888
-4.19543
-4.15722
-4.13253
-4.12003
-4.1186
-4.12718
-4.14463
-4.16974
-4.20132
-4.23834
-4.28004
-4.32589
-4.37545
-4.42834
-4.48423
-4.54283
-4.60395
-4.66746
-4.7333
-4.80142
-4.87176
-4.94427
-5.01891
-5.09559
-5.17422
-5.25466
-5.33672
-5.42019
-5.50472
-5.5888
-5.67173
)
;
    }
}


// ************************************************************************* //
