/*--------------------------------*- C++ -*----------------------------------*\
| =========                 |                                                 |
| \\      /  F ield         | OpenFOAM: The Open Source CFD Toolbox           |
|  \\    /   O peration     | Version:  5.0                                   |
|   \\  /    A nd           | Web:      www.OpenFOAM.org                      |
|    \\/     M anipulation  |                                                 |
\*---------------------------------------------------------------------------*/
FoamFile
{
    version     2.0;
    format      ascii;
    class       volScalarField;
    location    "0.3";
    object      p_rgh;
}
// * * * * * * * * * * * * * * * * * * * * * * * * * * * * * * * * * * * * * //

dimensions      [1 -1 -2 0 0 0 0];

internalField   nonuniform List<scalar> 
1935
(
-3.95736
-3.71807
-3.42026
-3.06774
-2.70267
-2.36016
-2.05616
-1.79402
-1.57031
-1.37931
-1.21528
-1.07348
-0.950177
-0.84247
-0.748205
-0.665745
-0.593673
-0.53069
-0.475606
-0.427288
-0.384614
-0.346538
-0.312187
-0.280929
-0.25236
-0.226184
-0.202129
-0.179943
-0.159401
-0.140334
-0.122645
-0.1063
-0.091289
-0.0775938
-0.0651767
-0.0539659
-0.0438467
-0.0346637
-0.026231
-0.018374
-0.0109093
-0.00295314
0.00586784
-4.08028
-3.70141
-2.99782
-2.3956
-3.87038
-3.92124
-1.17119
1.77574
-3.56844
-3.64469
-2.3957
1.39351
-3.16809
-3.22175
-3.12761
-1.97113
-2.73973
-2.74211
-2.65957
-2.13113
-2.34195
-2.29107
-2.17494
-1.93118
-1.99937
-1.91299
-1.78062
-1.5934
-1.71453
-1.60831
-1.46734
-1.28793
-1.47905
-1.36563
-1.22432
-1.05426
-1.28428
-1.17114
-1.0358
-0.878824
-1.1212
-1.01256
-0.886482
-0.744215
-0.982897
-0.880832
-0.765253
-0.637639
-0.864403
-0.76979
-0.664785
-0.550853
-0.762232
-0.6753
-0.580354
-0.478678
-0.673855
-0.594435
-0.508691
-0.417678
-0.597248
-0.524833
-0.447237
-0.365386
-0.530634
-0.464489
-0.394013
-0.320137
-0.472545
-0.411927
-0.347772
-0.281035
-0.421874
-0.366238
-0.307846
-0.247595
-0.377698
-0.326709
-0.273625
-0.219185
-0.339021
-0.292412
-0.244143
-0.194768
-0.304751
-0.262179
-0.218167
-0.173146
-0.273889
-0.234924
-0.194635
-0.153418
-0.245741
-0.209963
-0.172994
-0.135235
-0.219955
-0.187059
-0.153157
-0.118655
-0.196368
-0.166185
-0.135203
-0.103799
-0.174812
-0.147254
-0.119069
-0.0905786
-0.155054
-0.130026
-0.10448
-0.0786733
-0.136824
-0.114176
-0.0910662
-0.0676953
-0.119902
-0.0994399
-0.0785473
-0.0573902
-0.104174
-0.0857034
-0.0668392
-0.0477283
-0.0896348
-0.0730023
-0.0560318
-0.0388565
-0.0763285
-0.0614403
-0.046282
-0.030972
-0.0642881
-0.0510961
-0.0377017
-0.024205
-0.0534976
-0.0419704
-0.0302992
-0.0185614
-0.0438823
-0.0339805
-0.0239803
-0.0139337
-0.035316
-0.0269845
-0.0185877
-0.0101538
-0.0276389
-0.0208159
-0.0139508
-0.00705201
-0.0206789
-0.0153153
-0.00992329
-0.00449635
-0.014293
-0.0103663
-0.00641153
-0.00241264
-0.00837573
-0.0059034
-0.00337522
-0.000777263
-0.00237454
-0.00156097
-0.000580658
0.000546502
0.00406462
0.00294489
0.00217629
0.00168612
274.49
1589.67
1965.17
1895.68
1704.91
645.137
9.25933
2.53912
2.1108
2.06694
2.0534
2.03435
2.01119
1.9833
1.95171
1.91791
1.8833
1.84937
1.81756
1.78884
1.76344
1.74099
1.721
1.70315
1.68739
1.67377
1.66225
1.65259
1.64446
1.63753
1.63156
1.62646
1.62227
1.61905
1.61684
1.61561
1.6153
1.61588
1.61725
1.61887
5.71123
431.905
968.797
866.037
546.948
405.185
73.889
2.70614
2.04856
2.01283
2.00006
1.97887
1.9533
1.92416
1.89243
1.85934
1.82613
1.79417
1.76472
1.73846
1.71543
1.69518
1.6772
1.66119
1.64706
1.63483
1.62445
1.61572
1.60837
1.60212
1.59676
1.59223
1.58854
1.58573
1.58383
1.58281
1.58261
1.58323
1.58458
1.58615
2.0439
15.4628
54.1073
37.65
28.1457
39.7038
61.235
10.3241
2.05569
1.97587
1.94825
1.91951
1.88949
1.8583
1.82637
1.79446
1.76352
1.73453
1.70827
1.68506
1.66476
1.64692
1.63113
1.61712
1.60478
1.59408
1.58495
1.57723
1.57071
1.56518
1.56049
1.55657
1.55341
1.55105
1.54948
1.54868
1.54859
1.54924
1.55054
1.55204
1.02869
2.11203
7.01797
8.8536
7.4739
5.56325
8.06521
7.89078
2.55297
1.93339
1.88056
1.84597
1.81392
1.78275
1.75241
1.72324
1.69582
1.67074
1.64836
1.62869
1.61148
1.59635
1.58294
1.57105
1.56059
1.55151
1.54374
1.53715
1.53156
1.52684
1.52286
1.51959
1.517
1.5151
1.51388
1.5133
1.51335
1.51403
1.51528
1.51669
-1.19154
-0.969547
0.468835
1.6676
1.976
1.88306
1.84988
2.28409
2.13137
1.82737
1.77442
1.74698
1.72096
1.69504
1.6698
1.64575
1.62342
1.60324
1.58536
1.56966
1.55586
1.54365
1.53279
1.52315
1.51466
1.50728
1.50096
1.49559
1.49103
1.4872
1.48399
1.48139
1.47938
1.47795
1.4771
1.47678
1.47697
1.47769
1.47889
1.48021
-1.61693
-1.20504
-0.542901
0.157685
0.656651
0.976189
1.22908
1.44896
1.59095
1.62896
1.62989
1.62414
1.61186
1.59627
1.57947
1.56278
1.54702
1.53265
1.5198
1.50839
1.49822
1.4891
1.48093
1.47363
1.4672
1.4616
1.4568
1.45272
1.44926
1.44636
1.44397
1.44207
1.44066
1.43972
1.43924
1.43919
1.43954
1.44032
1.44147
1.44271
-1.33202
-0.975168
-0.522631
-0.048373
0.365868
0.703799
0.985285
1.21282
1.36072
1.43656
1.47418
1.49027
1.49394
1.49083
1.48429
1.47629
1.46796
1.4599
1.45237
1.44541
1.43898
1.43306
1.42765
1.42278
1.41846
1.41469
1.41146
1.40871
1.40639
1.40447
1.40292
1.40174
1.40094
1.40051
1.40041
1.40064
1.40116
1.402
1.40311
1.40425
-1.05508
-0.755576
-0.406407
-0.0442435
0.289735
0.581781
0.832597
1.03568
1.17897
1.26904
1.32409
1.35652
1.37451
1.3837
1.38765
1.38858
1.38781
1.3861
1.38385
1.3813
1.37862
1.37592
1.37331
1.37089
1.36871
1.3668
1.36514
1.36374
1.36258
1.36165
1.36096
1.36053
1.36035
1.36042
1.36073
1.36123
1.36193
1.36283
1.36391
1.36496
-0.845042
-0.590622
-0.308869
-0.0199142
0.253903
0.500358
0.714662
0.89159
1.02533
1.11974
1.18478
1.229
1.2588
1.27888
1.29247
1.30173
1.30803
1.31227
1.31502
1.31671
1.31766
1.31813
1.3183
1.31831
1.31824
1.31815
1.31806
1.318
1.31799
1.31806
1.31824
1.31855
1.319
1.31958
1.32029
1.32108
1.32195
1.32292
1.32396
1.32492
-0.692547
-0.474622
-0.240837
-0.00350548
0.224022
0.4324
0.616043
0.770816
0.894209
0.98837
1.05888
1.11126
1.15014
1.17913
1.20089
1.21733
1.22981
1.23932
1.24661
1.25224
1.25665
1.26016
1.26301
1.26536
1.26733
1.269
1.27042
1.27167
1.2728
1.27386
1.2749
1.27595
1.27702
1.27811
1.27921
1.28029
1.28134
1.28237
1.28337
1.28425
-0.579873
-0.392668
-0.195492
0.0034741
0.195338
0.373142
0.532132
0.669178
0.782934
0.874694
0.947592
1.0051
1.05038
1.08604
1.11415
1.13637
1.15398
1.16801
1.17931
1.18851
1.1961
1.20245
1.20781
1.21236
1.21625
1.21958
1.22245
1.22496
1.22719
1.22921
1.23109
1.23286
1.23454
1.23613
1.23762
1.23897
1.24019
1.24129
1.24225
1.24304
-0.493172
-0.331686
-0.163528
0.00562826
0.169458
0.322752
0.461796
0.584281
0.689314
0.777544
0.850695
0.910853
0.960068
1.00019
1.03284
1.05942
1.0811
1.09891
1.11368
1.12604
1.1365
1.14541
1.15305
1.1596
1.16525
1.17012
1.17434
1.17804
1.18133
1.18428
1.18697
1.18943
1.1917
1.19376
1.19561
1.19723
1.19861
1.19977
1.2007
1.20141
-0.423776
-0.283589
-0.138748
0.00664362
0.147957
0.281337
0.403996
0.514197
0.611194
0.695165
0.766954
0.827741
0.878831
0.921539
0.957133
0.9868
1.0116
1.03247
1.05015
1.06524
1.07819
1.08936
1.09901
1.10734
1.11456
1.12083
1.1263
1.13112
1.13539
1.13922
1.14267
1.14579
1.14861
1.15112
1.15331
1.15518
1.15671
1.15792
1.15882
1.15945
-0.366451
-0.243833
-0.11792
0.00822419
0.131198
0.248201
0.357168
0.456734
0.546176
0.625348
0.694559
0.754437
0.805816
0.84965
0.886945
0.918687
0.945783
0.969024
0.989058
1.0064
1.02146
1.03454
1.04591
1.0558
1.06441
1.07193
1.07853
1.08436
1.08954
1.09418
1.09834
1.10207
1.10539
1.10831
1.11082
1.11291
1.11458
1.11584
1.11671
1.11726
-0.317977
-0.209921
-0.099583
0.0107555
0.118616
0.22198
0.319301
0.409453
0.491716
0.565752
0.631576
0.689503
0.740083
0.784021
0.822104
0.855122
0.883811
0.908808
0.930645
0.949753
0.96648
0.981119
0.993926
1.00513
1.01495
1.02357
1.03119
1.03793
1.04394
1.0493
1.0541
1.05838
1.06215
1.06544
1.06823
1.07053
1.07232
1.07362
1.07445
1.07495
-0.276326
-0.180546
-0.0832517
0.0139115
0.109155
0.201011
0.288279
0.370001
0.445476
0.514287
0.576311
0.631695
0.68081
0.724173
0.762381
0.796039
0.825712
0.851895
0.87501
0.89541
0.913402
0.929252
0.943208
0.955499
0.966337
0.975916
0.984409
0.991962
0.998696
1.00471
1.01007
1.01482
1.019
1.02261
1.02565
1.02812
1.03001
1.03135
1.03215
1.0326
-0.24034
-0.15514
-0.0689478
0.0171
0.101704
0.183756
0.262286
0.336459
0.405622
0.469352
0.527476
0.580051
0.627322
0.669656
0.707487
0.741256
0.771379
0.798233
0.822147
0.843414
0.862298
0.879046
0.893889
0.907046
0.91872
0.929094
0.938329
0.946566
0.95392
0.960483
0.966324
0.971491
0.976012
0.979897
0.98315
0.985767
0.987751
0.989111
0.989876
0.99028
-0.209478
-0.133494
-0.0567987
0.0198405
0.0954411
0.169116
0.240044
0.307495
0.370885
0.429825
0.484133
0.533815
0.579023
0.620004
0.657057
0.690492
0.720608
0.747687
0.771988
0.793752
0.813208
0.830578
0.846071
0.859888
0.872215
0.883221
0.893056
0.901847
0.909707
0.916722
0.92296
0.928467
0.933271
0.937385
0.940813
0.943554
0.945609
0.946986
0.947719
0.948063
-0.18335
-0.115328
-0.0466917
0.0220145
0.0899938
0.156491
0.220794
0.282269
0.340417
0.394898
0.445543
0.492324
0.535328
0.57471
0.610666
0.643406
0.673143
0.700085
0.724435
0.746391
0.766147
0.783895
0.799822
0.814103
0.826906
0.838382
0.848667
0.857883
0.866133
0.8735
0.880049
0.885824
0.890853
0.895148
0.898714
0.901551
0.90366
0.905046
0.905744
0.906025
-0.161282
-0.100016
-0.03816
0.0238539
0.0853328
0.145613
0.204081
0.260204
0.313569
0.363895
0.411031
0.454936
0.495647
0.533254
0.567876
0.599651
0.628726
0.655252
0.679386
0.701284
0.721108
0.739019
0.755177
0.769734
0.782836
0.794621
0.805214
0.814726
0.823253
0.830875
0.837652
0.843626
0.848822
0.853252
0.85692
0.859826
0.86197
0.863355
0.864018
0.864236
-0.142256
-0.0866906
-0.0305803
0.0256893
0.0815011
0.136279
0.189513
0.240775
0.289735
0.336172
0.379958
0.421042
0.459429
0.495157
0.528293
0.558919
0.587129
0.613031
0.636736
0.658369
0.678057
0.695933
0.71213
0.726782
0.740017
0.751957
0.762719
0.772406
0.781106
0.788892
0.795819
0.801926
0.807235
0.811756
0.81549
0.818438
0.820598
0.821973
0.8226
0.822757
-0.125243
-0.0745932
-0.0235061
0.027667
0.0783884
0.128181
0.176643
0.223444
0.268334
0.311141
0.351755
0.390118
0.426208
0.460026
0.491595
0.520954
0.548157
0.573269
0.596372
0.617556
0.636922
0.654578
0.670637
0.685215
0.698426
0.710382
0.721189
0.73094
0.739717
0.747585
0.754592
0.760771
0.766141
0.770709
0.774474
0.777437
0.779596
0.78095
0.78154
0.781639
-0.109605
-0.063376
-0.0168576
0.0296478
0.0756968
0.120918
0.165009
0.207726
0.24888
0.288334
0.325987
0.361771
0.395639
0.427561
0.457527
0.48554
0.511621
0.535808
0.558151
0.57872
0.597593
0.614861
0.63062
0.644973
0.658023
0.669873
0.680615
0.690335
0.699105
0.70698
0.714003
0.720198
0.72558
0.730152
0.733915
0.736867
0.739006
0.74033
0.740881
0.740927
-0.0952075
-0.0530994
-0.0108386
0.0313395
0.0730907
0.114139
0.154266
0.193288
0.231058
0.267453
0.302373
0.335735
0.367471
0.397527
0.425865
0.452464
0.477321
0.500454
0.521896
0.541698
0.559927
0.576658
0.591979
0.60598
0.618756
0.630396
0.640984
0.650592
0.659282
0.6671
0.674078
0.680235
0.685582
0.69012
0.693847
0.696763
0.698865
0.700149
0.700659
0.700657
-0.0822088
-0.0439748
-0.00567391
0.0325326
0.070388
0.10769
0.144274
0.179995
0.214723
0.248338
0.280734
0.311812
0.34149
0.369694
0.39637
0.421483
0.445018
0.46698
0.487393
0.5063
0.523758
0.539835
0.554608
0.56816
0.580572
0.591922
0.60228
0.611709
0.620255
0.627956
0.634835
0.640905
0.646172
0.650636
0.654296
0.657151
0.659199
0.660434
0.660903
0.660857
-0.0707188
-0.0360724
-0.00138211
0.0332537
0.0676416
0.101625
0.135069
0.167843
0.199822
0.230882
0.26091
0.289798
0.317452
0.343793
0.368761
0.392316
0.414438
0.435131
0.454416
0.47233
0.488925
0.504262
0.51841
0.53144
0.543422
0.554419
0.564489
0.573679
0.582027
0.589556
0.596284
0.602219
0.607364
0.611718
0.615281
0.618052
0.62003
0.621208
0.621634
0.621549
-0.0605983
-0.0291999
0.0022645
0.0337366
0.0650605
0.0961016
0.126736
0.156837
0.186277
0.214931
0.242681
0.26942
0.295054
0.319505
0.342717
0.364652
0.385297
0.404655
0.422746
0.439606
0.455282
0.469828
0.483302
0.495763
0.507265
0.517861
0.527592
0.536493
0.544589
0.551896
0.558424
0.564178
0.569161
0.573371
0.576808
0.579475
0.581369
0.582483
0.582864
0.582745
-0.0514955
-0.0230001
0.00559763
0.034257
0.0628395
0.0912183
0.119272
0.146873
0.173898
0.200224
0.225738
0.250339
0.273943
0.296482
0.317909
0.338195
0.357332
0.375326
0.392199
0.407983
0.422717
0.436448
0.44922
0.46108
0.472068
0.482222
0.491569
0.500132
0.507927
0.514962
0.521244
0.526775
0.531558
0.535592
0.538879
0.541422
0.543219
0.544264
0.5446
0.544452
-0.0430434
-0.0171588
0.00885288
0.0349535
0.0610112
0.0869019
0.112506
0.137704
0.162376
0.186411
0.20971
0.232184
0.253765
0.274397
0.294046
0.312693
0.330333
0.346976
0.36264
0.377354
0.391149
0.404059
0.416116
0.427353
0.437796
0.447469
0.456389
0.464568
0.472014
0.478731
0.484723
0.489992
0.494541
0.498371
0.501485
0.503888
0.505578
0.506548
0.506841
0.506667
-0.0350473
-0.0115647
0.0120468
0.0357451
0.0594027
0.0829006
0.106127
0.128974
0.151336
0.173118
0.194237
0.214623
0.234222
0.252994
0.270914
0.28797
0.30416
0.319493
0.333985
0.347655
0.360524
0.372615
0.383947
0.39454
0.404408
0.413563
0.422013
0.429762
0.436812
0.443168
0.44883
0.453802
0.458087
0.461689
0.464612
0.466861
0.468437
0.469329
0.469579
0.469383
-0.0275463
-0.00633386
0.0149877
0.0363731
0.057703
0.0788696
0.099775
0.120326
0.140437
0.160031
0.179041
0.197417
0.215117
0.232113
0.248386
0.263928
0.278737
0.29282
0.306184
0.31884
0.330799
0.342072
0.352667
0.362592
0.371852
0.380449
0.388385
0.395659
0.402273
0.408227
0.413525
0.41817
0.422167
0.42552
0.428237
0.430323
0.431778
0.432591
0.432799
0.432585
-0.0207403
-0.00171461
0.0173882
0.0365256
0.0555917
0.0744946
0.0931537
0.111494
0.129447
0.146954
0.163966
0.180444
0.196358
0.211685
0.226412
0.240529
0.254033
0.266923
0.279201
0.290868
0.301926
0.312374
0.322213
0.331442
0.340057
0.348057
0.355437
0.362197
0.368336
0.373856
0.37876
0.383053
0.386742
0.389833
0.392333
0.394249
0.395579
0.396312
0.39648
0.396252
-0.0148537
0.00205214
0.0190037
0.0359666
0.0528526
0.069587
0.0861066
0.102353
0.118275
0.133828
0.148975
0.163686
0.177937
0.191709
0.204988
0.217763
0.230027
0.241773
0.252994
0.263683
0.273836
0.283445
0.292503
0.301003
0.308937
0.3163
0.323088
0.329299
0.334932
0.339991
0.344479
0.348404
0.351771
0.35459
0.356867
0.358609
0.359813
0.360466
0.360595
0.360357
-0.0100208
0.0048393
0.0197237
0.0346091
0.049425
0.0641132
0.0786254
0.0929179
0.106952
0.120693
0.134112
0.147183
0.159887
0.172203
0.184118
0.195617
0.206687
0.217316
0.227493
0.237204
0.246439
0.255186
0.263434
0.271172
0.278391
0.285085
0.291249
0.296884
0.301988
0.306567
0.310625
0.31417
0.317209
0.319751
0.321803
0.323369
0.324447
0.32502
0.325114
0.324868
-0.00623767
0.00666674
0.0195874
0.0325115
0.0453843
0.0581613
0.0708063
0.0832863
0.0955705
0.107631
0.119443
0.130983
0.142232
0.15317
0.163779
0.174044
0.183946
0.19347
0.2026
0.211322
0.21962
0.227479
0.234888
0.241835
0.248311
0.25431
0.259829
0.264868
0.26943
0.273518
0.277138
0.280298
0.283007
0.285272
0.287098
0.28849
0.289442
0.289937
0.289997
0.289749
-0.00338488
0.00766546
0.0187351
0.0298194
0.0408765
0.0518728
0.0627805
0.0735732
0.0842251
0.0947118
0.10501
0.115099
0.124958
0.134567
0.143906
0.152956
0.161698
0.170115
0.17819
0.185904
0.193243
0.200192
0.206739
0.212873
0.218586
0.223874
0.228735
0.23317
0.237181
0.240775
0.243957
0.246734
0.249115
0.251105
0.252709
0.253928
0.254756
0.255176
0.255205
0.254956
-0.00128959
0.0080082
0.017335
0.026692
0.0360473
0.0453746
0.0546514
0.0638551
0.0729629
0.0819524
0.0908021
0.099491
0.107999
0.116304
0.124388
0.13223
0.13981
0.147111
0.154116
0.160807
0.16717
0.173192
0.178861
0.184169
0.189109
0.193679
0.197878
0.201707
0.205171
0.208273
0.211021
0.21342
0.215478
0.217198
0.218584
0.219634
0.220342
0.220689
0.220689
0.220444
0.000211173
0.00784637
0.0155236
0.0232471
0.0309918
0.0387361
0.0464604
0.0541445
0.0617678
0.0693096
0.0767495
0.0840674
0.091243
0.0982566
0.105088
0.111719
0.118132
0.124308
0.130232
0.135889
0.141266
0.146352
0.151137
0.155616
0.159783
0.163636
0.167177
0.170406
0.173327
0.175946
0.178267
0.180297
0.182039
0.183496
0.184669
0.185555
0.186147
0.186425
0.1864
0.18616
0.00123277
0.00727664
0.0133769
0.0195381
0.0257391
0.0319609
0.038186
0.044396
0.0505722
0.0566956
0.0627473
0.0687083
0.0745602
0.0802846
0.0858639
0.0912811
0.0965201
0.101566
0.106404
0.111023
0.115412
0.119562
0.123467
0.12712
0.13052
0.133665
0.136556
0.139194
0.141584
0.143729
0.145634
0.147302
0.148736
0.149938
0.150906
0.151636
0.152117
0.152331
0.152283
0.152053
0.0018316
0.00633763
0.0109154
0.0155665
0.0202715
0.0250131
0.0297749
0.0345406
0.0392932
0.0440155
0.0486907
0.0533023
0.0578342
0.0622709
0.0665976
0.0708002
0.0748651
0.07878
0.082534
0.0861177
0.0895232
0.0927441
0.0957753
0.0986133
0.101256
0.103703
0.105954
0.108013
0.109881
0.111563
0.113061
0.114376
0.115511
0.116465
0.117236
0.117818
0.118197
0.118353
0.118286
0.118071
0.00201874
0.00502469
0.00811804
0.0112956
0.0145378
0.0178278
0.0211503
0.0244905
0.0278335
0.0311647
0.0344701
0.0377364
0.0409511
0.0441021
0.047178
0.0501678
0.0530614
0.0558497
0.058525
0.0610806
0.0635113
0.0658127
0.0679813
0.0700146
0.0719114
0.0736714
0.0752956
0.0767857
0.0781437
0.0793717
0.0804714
0.081444
0.0822895
0.0830064
0.0835909
0.084036
0.0843263
0.0844346
0.0843546
0.0841617
0.00185319
0.00332461
0.00491024
0.00659928
0.0083686
0.0101992
0.0120757
0.013984
0.0159111
0.0178453
0.0197759
0.0216931
0.0235882
0.0254528
0.027279
0.0290594
0.0307875
0.0324575
0.0340646
0.035605
0.0370754
0.0384731
0.039796
0.0410428
0.0422126
0.0433056
0.0443224
0.0452643
0.0461324
0.0469279
0.0476519
0.0483048
0.0488862
0.0493944
0.0498261
0.0501744
0.0504241
0.0505385
0.0504808
0.0503372
0.00139576
0.00131128
0.00139683
0.00161038
0.00192105
0.00230673
0.00275095
0.00324072
0.00376557
0.00431696
0.00488779
0.00547205
0.00606448
0.00666037
0.00725546
0.00784592
0.00842838
0.00899998
0.00955831
0.0101013
0.0106272
0.0111346
0.0116221
0.0120888
0.0125342
0.0129582
0.0133607
0.0137422
0.0141031
0.0144438
0.014765
0.0150672
0.0153507
0.0156153
0.01586
0.0160826
0.0162752
0.0164099
0.0164337
0.0163641
)
;

boundaryField
{
    leftWall
    {
        type            fixedFluxPressure;
        gradient        nonuniform 0();
        value           nonuniform 0();
    }
    rightWall
    {
        type            fixedFluxPressure;
        gradient        uniform 0;
        value           nonuniform List<scalar> 
43
(
1.61887
1.58615
1.55204
1.51669
1.48021
1.44271
1.40425
1.36496
1.32492
1.28425
1.24304
1.20141
1.15945
1.11726
1.07495
1.0326
0.99028
0.948063
0.906025
0.864236
0.822757
0.781639
0.740927
0.700657
0.660857
0.621549
0.582745
0.544452
0.506667
0.469383
0.432585
0.396252
0.360357
0.324868
0.289749
0.254956
0.220444
0.18616
0.152053
0.118071
0.0841617
0.0503372
0.0163641
)
;
    }
    lowerWall
    {
        type            fixedFluxPressure;
        gradient        nonuniform 0();
        value           nonuniform 0();
    }
    atmosphere
    {
        type            totalPressure;
        rho             rho;
        psi             none;
        gamma           1;
        p0              uniform 0;
        value           uniform 0;
    }
    defaultFaces
    {
        type            empty;
    }
    procBoundary3to1
    {
        type            processor;
        value           nonuniform List<scalar> 
45
(
-4.17991
-4.1959
-3.74651
-4.02749
-4.37219
1442.56
1926.94
1916.83
1912.73
1899.29
485.217
5.3705
2.46859
2.13722
2.12709
2.1081
2.08815
2.06522
2.03756
2.00576
1.97129
1.93569
1.90045
1.86697
1.83628
1.80876
1.78425
1.76239
1.74291
1.72577
1.71097
1.69841
1.68785
1.67894
1.67131
1.66473
1.65913
1.65452
1.65095
1.64846
1.64702
1.64656
1.64708
1.64846
1.65013
)
;
    }
    procBoundary3to2
    {
        type            processor;
        value           nonuniform List<scalar> 
43
(
-3.78043
-3.54187
-3.26641
-2.96235
-2.65303
-2.35864
-2.09014
-1.85111
-1.6408
-1.4563
-1.29428
-1.15171
-1.02595
-0.914749
-0.816395
-0.729548
-0.653078
-0.585918
-0.526933
-0.474898
-0.428611
-0.38704
-0.349423
-0.315215
-0.28398
-0.255329
-0.228914
-0.204446
-0.181719
-0.160614
-0.141052
-0.122968
-0.106309
-0.091019
-0.0770345
-0.0642735
-0.0526299
-0.0419593
-0.0320625
-0.0227156
-0.0135777
-0.0031128
0.00937808
)
;
    }
}


// ************************************************************************* //
