/*--------------------------------*- C++ -*----------------------------------*\
| =========                 |                                                 |
| \\      /  F ield         | OpenFOAM: The Open Source CFD Toolbox           |
|  \\    /   O peration     | Version:  5.0                                   |
|   \\  /    A nd           | Web:      www.OpenFOAM.org                      |
|    \\/     M anipulation  |                                                 |
\*---------------------------------------------------------------------------*/
FoamFile
{
    version     2.0;
    format      ascii;
    class       surfaceScalarField;
    location    "0.3";
    object      phi;
}
// * * * * * * * * * * * * * * * * * * * * * * * * * * * * * * * * * * * * * //

dimensions      [0 3 -1 0 0 0 0];

internalField   nonuniform List<scalar> 
3782
(
-3.00164e-05
-3.01285e-05
-3.52973e-05
-4.7002e-05
-3.58299e-05
-6.59095e-05
-3.12268e-05
-8.18317e-05
-2.36707e-05
-9.04733e-05
-1.56239e-05
-9.2061e-05
-8.55139e-06
-8.92218e-05
-2.94279e-06
-8.44364e-05
1.24151e-06
-7.92016e-05
4.2263e-06
-7.42109e-05
6.27195e-06
-6.97167e-05
7.60872e-06
-6.57494e-05
8.42054e-06
-6.22475e-05
8.84636e-06
-5.91222e-05
8.98917e-06
-5.62869e-05
8.92514e-06
-5.36693e-05
8.71089e-06
-5.1214e-05
8.3893e-06
-4.88812e-05
7.99326e-06
-4.66438e-05
7.54824e-06
-4.44835e-05
7.0742e-06
-4.23875e-05
6.58676e-06
-4.03465e-05
6.09813e-06
-3.83535e-05
5.61786e-06
-3.64027e-05
5.15305e-06
-3.44893e-05
4.70879e-06
-3.26089e-05
4.28867e-06
-3.07572e-05
3.89495e-06
-2.89302e-05
3.52887e-06
-2.71243e-05
3.19102e-06
-2.53364e-05
2.88149e-06
-2.35642e-05
2.59993e-06
-2.18058e-05
2.34572e-06
-2.00599e-05
2.11815e-06
-1.8326e-05
1.91658e-06
-1.66044e-05
1.74063e-06
-1.48969e-05
1.59059e-06
-1.32068e-05
1.46823e-06
-1.15396e-05
1.37844e-06
-9.90484e-06
1.33318e-06
-8.31933e-06
1.36097e-06
-6.81509e-06
1.52339e-06
-5.46334e-06
-4.49078e-06
-1.90253e-05
-6.43599e-06
-4.1871e-06
2.32669e-05
1.92848e-05
5.44179e-05
9.46899e-05
3.9155e-05
-3.53987e-05
-1.80392e-05
-1.87303e-05
6.59851e-06
-1.38955e-06
3.70771e-05
6.95938e-05
2.37066e-05
-5.9394e-05
-2.45548e-05
-4.54839e-05
-7.31158e-06
-2.71864e-05
1.87795e-05
4.75097e-05
-5.10228e-06
-8.25376e-05
-2.38488e-05
-7.68875e-05
-1.29617e-05
-6.29722e-05
4.86423e-06
2.82799e-05
-4.37424e-05
-9.62299e-05
-1.80922e-05
-9.85855e-05
-1.06061e-05
-9.5044e-05
1.32263e-06
1.7905e-05
-8.46691e-05
-9.94656e-05
-1.06877e-05
-0.000105543
-4.52905e-06
-0.000108665
4.44481e-06
1.65016e-05
-0.000107261
-9.59544e-05
-3.95499e-06
-0.000102101
1.61726e-06
-0.000106683
9.0275e-06
1.8419e-05
-0.000108601
-8.97245e-05
1.33315e-06
-9.45432e-05
6.43592e-06
-9.82977e-05
1.27821e-05
2.04127e-05
-0.000100291
-8.30144e-05
5.14586e-06
-8.63704e-05
9.79199e-06
-8.88645e-05
1.52761e-05
2.15853e-05
-9.00371e-05
-7.68024e-05
7.73739e-06
-7.89416e-05
1.19313e-05
-8.03506e-05
1.66851e-05
2.19616e-05
-8.0727e-05
-7.13796e-05
9.40029e-06
-7.26131e-05
1.31648e-05
-7.32288e-05
1.73008e-05
2.17624e-05
-7.30295e-05
-6.67347e-05
1.03855e-05
-6.73295e-05
1.37596e-05
-6.74063e-05
1.73777e-05
2.11935e-05
-6.68375e-05
-6.27481e-05
1.08861e-05
-6.29042e-05
1.39157e-05
-6.26287e-05
1.71023e-05
2.04042e-05
-6.18394e-05
-5.92794e-05
1.10433e-05
-5.91377e-05
1.37741e-05
-5.86374e-05
1.6602e-05
1.94921e-05
-5.77253e-05
-5.62018e-05
1.09581e-05
-5.58594e-05
1.34317e-05
-5.52187e-05
1.59614e-05
1.85185e-05
-5.42451e-05
-5.34137e-05
1.07025e-05
-5.29372e-05
1.29552e-05
-5.22119e-05
1.52361e-05
1.75214e-05
-5.12148e-05
-5.08396e-05
1.03281e-05
-5.02757e-05
1.23913e-05
-4.95031e-05
1.44635e-05
1.65249e-05
-4.85066e-05
-4.84261e-05
9.87288e-06
-4.78082e-05
1.17735e-05
-4.70141e-05
1.36693e-05
1.55449e-05
-4.6034e-05
-4.61366e-05
9.36568e-06
-4.5489e-05
1.11259e-05
-4.46919e-05
1.28722e-05
1.45921e-05
-4.3739e-05
-4.3946e-05
8.82814e-06
-4.32867e-05
1.04667e-05
-4.24999e-05
1.20853e-05
1.36741e-05
-4.15819e-05
-4.18363e-05
8.2769e-06
-4.11791e-05
9.80947e-06
-4.04125e-05
1.13187e-05
1.27962e-05
-3.95346e-05
-3.97944e-05
7.72481e-06
-3.91498e-05
9.16484e-06
-3.84107e-05
1.05796e-05
1.19621e-05
-3.75767e-05
-3.78105e-05
7.18182e-06
-3.71864e-05
8.54075e-06
-3.64803e-05
9.87352e-06
1.11743e-05
-3.56924e-05
-3.58764e-05
6.6556e-06
-3.52788e-05
7.94307e-06
-3.46094e-05
9.20414e-06
1.0434e-05
-3.38691e-05
-3.39854e-05
6.15173e-06
-3.34182e-05
7.3759e-06
-3.2788e-05
8.57395e-06
9.74191e-06
-3.20959e-05
-3.21312e-05
5.67401e-06
-3.15971e-05
6.84183e-06
-3.10074e-05
7.98425e-06
9.09787e-06
-3.03634e-05
-3.03081e-05
5.22493e-06
-2.98087e-05
6.34241e-06
-2.926e-05
7.43552e-06
8.5012e-06
-2.86633e-05
-2.85112e-05
4.80593e-06
-2.80471e-05
5.87834e-06
-2.75392e-05
6.92758e-06
7.95086e-06
-2.69888e-05
-2.6736e-05
4.41767e-06
-2.63074e-05
5.44972e-06
-2.58397e-05
6.45986e-06
7.44554e-06
-2.53343e-05
-2.4979e-05
4.06026e-06
-2.45855e-05
5.0562e-06
-2.41571e-05
6.03148e-06
6.98378e-06
-2.36954e-05
-2.32374e-05
3.73346e-06
-2.28784e-05
4.69715e-06
-2.24883e-05
5.6414e-06
6.56407e-06
-2.20686e-05
-2.1509e-05
3.43671e-06
-2.11836e-05
4.37173e-06
-2.08307e-05
5.28849e-06
6.18497e-06
-2.04516e-05
-1.97925e-05
3.16927e-06
-1.94998e-05
4.07905e-06
-1.91829e-05
4.97166e-06
5.84514e-06
-1.88431e-05
-1.80871e-05
2.93041e-06
-1.78263e-05
3.81826e-06
-1.75446e-05
4.68993e-06
5.54346e-06
-1.72429e-05
-1.63936e-05
2.71958e-06
-1.61641e-05
3.58881e-06
-1.59169e-05
4.44266e-06
5.27909e-06
-1.56525e-05
-1.47139e-05
2.53661e-06
-1.45157e-05
3.39059e-06
-1.43027e-05
4.22964e-06
5.05168e-06
-1.40753e-05
-1.30523e-05
2.38214e-06
-1.2886e-05
3.22432e-06
-1.27078e-05
4.05147e-06
4.86149e-06
-1.25177e-05
-1.14158e-05
2.25833e-06
-1.12836e-05
3.09215e-06
-1.11421e-05
3.90994e-06
4.70972e-06
-1.09903e-05
-9.81677e-06
2.17026e-06
-9.72331e-06
2.99868e-06
-9.62197e-06
3.8086e-06
4.59867e-06
-9.51093e-06
-8.27775e-06
2.12867e-06
-8.23159e-06
2.95252e-06
-8.17646e-06
3.75346e-06
4.53187e-06
-8.10965e-06
-6.84156e-06
2.15514e-06
-6.85741e-06
2.96837e-06
-6.8572e-06
3.75325e-06
4.51346e-06
-6.8388e-06
-5.59439e-06
2.28619e-06
-5.69222e-06
3.06619e-06
-5.75634e-06
3.81737e-06
4.54619e-06
-5.78907e-06
-4.74497e-06
-4.92746e-06
-5.05112e-06
-5.12717e-06
4.3773e-05
0.000129959
4.57786e-05
0.000133514
4.69623e-05
0.000133288
4.78668e-05
0.000131027
4.85955e-05
0.000127658
4.95167e-05
0.000125069
5.06599e-05
0.000125155
5.09579e-05
0.000125385
5.04973e-05
0.000113609
4.94183e-05
9.68439e-05
4.7407e-05
8.22426e-05
4.46193e-05
7.12213e-05
4.14787e-05
6.309e-05
3.83361e-05
5.69166e-05
3.53816e-05
5.19915e-05
3.26758e-05
4.78853e-05
3.02119e-05
4.43668e-05
2.79595e-05
4.13148e-05
2.58862e-05
3.86599e-05
2.39641e-05
3.63558e-05
2.2172e-05
3.4366e-05
2.04933e-05
3.26587e-05
1.89156e-05
3.12046e-05
1.74288e-05
2.99769e-05
1.60245e-05
2.8951e-05
1.4695e-05
2.81054e-05
1.34325e-05
2.74213e-05
1.22297e-05
2.68832e-05
1.10791e-05
2.64786e-05
9.97326e-06
2.61976e-05
8.90511e-06
2.60321e-05
7.86782e-06
2.59761e-05
6.85501e-06
2.60243e-05
5.86073e-06
2.61715e-05
4.87933e-06
2.64122e-05
3.90551e-06
2.67382e-05
2.93418e-06
2.71373e-05
1.96011e-06
2.75871e-05
9.78449e-07
2.80315e-05
2.8028e-05
4.10711e-05
0.000112594
4.52176e-05
0.000129368
4.72749e-05
0.00013123
4.86025e-05
0.000129699
4.90274e-05
0.000127233
4.96092e-05
0.000124487
5.00418e-05
0.000124722
4.89215e-05
0.000126505
4.68873e-05
0.000115643
4.52406e-05
9.84906e-05
4.29728e-05
8.45104e-05
4.02526e-05
7.39415e-05
3.74018e-05
6.59409e-05
3.4658e-05
5.96605e-05
3.21252e-05
5.45242e-05
2.98176e-05
5.01929e-05
2.77097e-05
4.64747e-05
2.57679e-05
4.32567e-05
2.39627e-05
4.04651e-05
2.22722e-05
3.80463e-05
2.06805e-05
3.59576e-05
1.91765e-05
3.41627e-05
1.77516e-05
3.26295e-05
1.63993e-05
3.13292e-05
1.51136e-05
3.02367e-05
1.38891e-05
2.93299e-05
1.27199e-05
2.85904e-05
1.16004e-05
2.80027e-05
1.05244e-05
2.75546e-05
9.48594e-06
2.7236e-05
8.47893e-06
2.70391e-05
7.49765e-06
2.69574e-05
6.53666e-06
2.69852e-05
5.59089e-06
2.71173e-05
4.65555e-06
2.73475e-05
3.72615e-06
2.76676e-05
2.79829e-06
2.80652e-05
1.86766e-06
2.85178e-05
9.30713e-07
2.89685e-05
2.89587e-05
2.33314e-05
8.41606e-05
3.86574e-05
0.000114042
4.48943e-05
0.000124994
4.74132e-05
0.00012718
4.75186e-05
0.000127128
4.58245e-05
0.000126181
4.48525e-05
0.000125694
4.43454e-05
0.000127012
4.1739e-05
0.00011825
3.95899e-05
0.00010064
3.72997e-05
8.68006e-05
3.48986e-05
7.63425e-05
3.25637e-05
6.82758e-05
3.03941e-05
6.18301e-05
2.84091e-05
5.65093e-05
2.65865e-05
5.20155e-05
2.48945e-05
4.81667e-05
2.33062e-05
4.4845e-05
2.18024e-05
4.19689e-05
2.03705e-05
3.94782e-05
1.90025e-05
3.73256e-05
1.76933e-05
3.5472e-05
1.64391e-05
3.38836e-05
1.5237e-05
3.25313e-05
1.40842e-05
3.13896e-05
1.29774e-05
3.04368e-05
1.1913e-05
2.96547e-05
1.08871e-05
2.90287e-05
9.8951e-06
2.85466e-05
8.93245e-06
2.81987e-05
7.99445e-06
2.79771e-05
7.07652e-06
2.78753e-05
6.17426e-06
2.78875e-05
5.28354e-06
2.8008e-05
4.40044e-06
2.82306e-05
3.52126e-06
2.85468e-05
2.64242e-06
2.8944e-05
1.76064e-06
2.93995e-05
8.74406e-07
2.98547e-05
2.98331e-05
-1.93955e-05
5.98138e-05
5.02968e-06
8.96165e-05
1.90957e-05
0.000110928
2.58415e-05
0.000120435
2.94062e-05
0.000123563
3.14061e-05
0.000124182
3.124e-05
0.00012586
3.15354e-05
0.000126717
3.18571e-05
0.000117928
3.09922e-05
0.000101505
2.97719e-05
8.80209e-05
2.83723e-05
7.77421e-05
2.69593e-05
6.96888e-05
2.55969e-05
6.31925e-05
2.42914e-05
5.78148e-05
2.30321e-05
5.32749e-05
2.18076e-05
4.93912e-05
2.06105e-05
4.60421e-05
1.94373e-05
4.3142e-05
1.82878e-05
4.06277e-05
1.71633e-05
3.84502e-05
1.60657e-05
3.65696e-05
1.49969e-05
3.49524e-05
1.39583e-05
3.357e-05
1.29501e-05
3.23977e-05
1.19718e-05
3.1415e-05
1.1022e-05
3.06045e-05
1.00985e-05
2.99522e-05
9.19857e-06
2.94465e-05
8.31915e-06
2.90781e-05
7.45703e-06
2.88392e-05
6.60893e-06
2.87234e-05
5.77165e-06
2.87248e-05
4.94205e-06
2.88376e-05
4.11713e-06
2.90555e-05
3.29403e-06
2.93699e-05
2.47012e-06
2.97679e-05
1.64327e-06
3.02264e-05
8.13713e-07
3.06843e-05
3.06468e-05
-6.79523e-05
4.3097e-05
-4.66355e-05
6.82997e-05
-2.79699e-05
9.22619e-05
-1.51666e-05
0.000107631
-6.83343e-06
0.00011523
-9.8118e-07
0.000118329
4.62361e-06
0.000120256
1.10695e-05
0.000120271
1.68045e-05
0.000112193
1.94674e-05
9.88418e-05
2.05793e-05
8.6909e-05
2.08993e-05
7.74221e-05
2.07859e-05
6.98023e-05
2.04196e-05
6.35588e-05
1.98903e-05
5.83441e-05
1.92477e-05
5.39175e-05
1.85235e-05
5.01155e-05
1.77402e-05
4.68254e-05
1.69153e-05
4.39669e-05
1.6063e-05
4.14799e-05
1.51951e-05
3.93181e-05
1.43211e-05
3.74436e-05
1.34486e-05
3.5825e-05
1.2583e-05
3.44355e-05
1.17284e-05
3.32524e-05
1.08866e-05
3.22567e-05
1.00588e-05
3.14324e-05
9.24464e-06
3.07663e-05
8.4433e-06
3.02479e-05
7.65334e-06
2.98681e-05
6.87304e-06
2.96195e-05
6.10046e-06
2.9496e-05
5.33361e-06
2.94917e-05
4.57043e-06
2.96008e-05
3.80893e-06
2.9817e-05
3.04721e-06
3.01316e-05
2.28365e-06
3.05315e-05
1.51725e-06
3.09928e-05
7.49578e-07
3.1452e-05
3.13964e-05
-9.99351e-05
3.57706e-05
-8.75162e-05
5.58808e-05
-7.17208e-05
7.64666e-05
-5.64778e-05
9.23884e-05
-4.3263e-05
0.000102015
-3.18949e-05
0.000106961
-2.08626e-05
0.000109223
-8.94728e-06
0.000108356
1.14128e-06
0.000102104
7.46423e-06
9.25189e-05
1.11319e-05
8.32414e-05
1.32779e-05
7.52761e-05
1.45038e-05
6.85764e-05
1.51419e-05
6.29207e-05
1.53871e-05
5.80989e-05
1.53588e-05
5.39458e-05
1.51342e-05
5.03401e-05
1.47662e-05
4.71934e-05
1.42928e-05
4.44402e-05
1.37423e-05
4.20305e-05
1.31362e-05
3.99242e-05
1.24913e-05
3.80884e-05
1.18206e-05
3.64957e-05
1.11338e-05
3.51223e-05
1.04379e-05
3.39483e-05
9.73788e-06
3.29567e-05
9.03698e-06
3.21333e-05
8.3371e-06
3.14662e-05
7.63916e-06
3.09458e-05
6.9434e-06
3.05638e-05
6.2496e-06
3.03133e-05
5.55717e-06
3.01884e-05
4.86531e-06
3.01835e-05
4.17309e-06
3.02931e-05
3.47957e-06
3.05105e-05
2.78385e-06
3.08273e-05
2.08531e-06
3.12301e-05
1.38399e-06
3.16941e-05
6.8241e-07
3.21535e-05
3.20788e-05
-0.000106622
3.37915e-05
-0.000100148
4.94075e-05
-8.89939e-05
6.53123e-05
-7.53403e-05
7.87347e-05
-6.12764e-05
8.79511e-05
-4.76426e-05
9.33273e-05
-3.42057e-05
9.57864e-05
-2.10748e-05
9.52249e-05
-1.00724e-05
9.11019e-05
-2.29569e-06
8.47422e-05
2.89341e-06
7.80523e-05
6.32544e-06
7.18441e-05
8.58655e-06
6.63153e-05
1.00555e-05
6.14517e-05
1.09743e-05
5.718e-05
1.15007e-05
5.34195e-05
1.17402e-05
5.01005e-05
1.17663e-05
4.71672e-05
1.16319e-05
4.45747e-05
1.13759e-05
4.22865e-05
1.10279e-05
4.02721e-05
1.06108e-05
3.85056e-05
1.01419e-05
3.69645e-05
9.63465e-06
3.56295e-05
9.09916e-06
3.44838e-05
8.54291e-06
3.35129e-05
7.97138e-06
3.27048e-05
7.38846e-06
3.20492e-05
6.79688e-06
3.15374e-05
6.19849e-06
3.11622e-05
5.59451e-06
3.09173e-05
4.98566e-06
3.07973e-05
4.37234e-06
3.07969e-05
3.75473e-06
3.09107e-05
3.13291e-06
3.11324e-05
2.50698e-06
3.14533e-05
1.87727e-06
3.18598e-05
1.24473e-06
3.23266e-05
6.12636e-07
3.27856e-05
3.26914e-05
-9.96707e-05
3.31708e-05
-9.54712e-05
4.52079e-05
-8.74298e-05
5.72708e-05
-7.64973e-05
6.78023e-05
-6.42204e-05
7.56742e-05
-5.16285e-05
8.07355e-05
-3.91052e-05
8.32632e-05
-2.72141e-05
8.33337e-05
-1.70915e-05
8.09793e-05
-9.33667e-06
7.69874e-05
-3.67272e-06
7.23883e-05
3.95557e-07
6.77758e-05
3.30014e-06
6.34107e-05
5.36021e-06
5.93917e-05
6.8041e-06
5.57362e-05
7.79137e-06
5.24322e-05
8.43474e-06
4.94571e-05
8.81551e-06
4.67864e-05
8.99367e-06
4.43965e-05
9.01444e-06
4.22657e-05
8.91249e-06
4.0374e-05
8.7147e-06
3.87034e-05
8.442e-06
3.72372e-05
8.11066e-06
3.59609e-05
7.73332e-06
3.48611e-05
7.31971e-06
3.39265e-05
6.87732e-06
3.31472e-05
6.41187e-06
3.25146e-05
5.92772e-06
3.20215e-05
5.42824e-06
3.16617e-05
4.916e-06
3.14296e-05
4.39294e-06
3.13204e-05
3.86062e-06
3.13292e-05
3.32025e-06
3.14511e-05
2.77291e-06
3.16797e-05
2.21964e-06
3.20066e-05
1.66166e-06
3.24178e-05
1.10073e-06
3.28876e-05
5.40699e-07
3.33456e-05
3.32321e-05
-8.9263e-05
3.23967e-05
-8.58312e-05
4.17762e-05
-7.95995e-05
5.10391e-05
-7.10592e-05
5.9262e-05
-6.11268e-05
6.57418e-05
-5.06189e-05
7.02275e-05
-4.01009e-05
7.27452e-05
-3.01339e-05
7.33667e-05
-2.14127e-05
7.2258e-05
-1.43136e-05
6.98884e-05
-8.76305e-06
6.68378e-05
-4.50792e-06
6.35207e-05
-1.28006e-06
6.01829e-05
1.1529e-06
5.69587e-05
2.97285e-06
5.39162e-05
4.31846e-06
5.10866e-05
5.29418e-06
4.84814e-05
5.97908e-06
4.61015e-05
6.43368e-06
4.39419e-05
6.70492e-06
4.19944e-05
6.82961e-06
4.02493e-05
6.83682e-06
3.86962e-05
6.74959e-06
3.73245e-05
6.58623e-06
3.61242e-05
6.36126e-06
3.50861e-05
6.08621e-06
3.42016e-05
5.77023e-06
3.34632e-05
5.4206e-06
3.28643e-05
5.04313e-06
3.2399e-05
4.64252e-06
3.20623e-05
4.22252e-06
3.18496e-05
3.78624e-06
3.17567e-05
3.33623e-06
3.17792e-05
2.87471e-06
3.19126e-05
2.40365e-06
3.21508e-05
1.92498e-06
3.24852e-05
1.4407e-06
3.2902e-05
9.53307e-07
3.33749e-05
4.67161e-07
3.38318e-05
3.36993e-05
-7.95862e-05
3.1256e-05
-7.65087e-05
3.86986e-05
-7.14421e-05
4.59726e-05
-6.46818e-05
5.25017e-05
-5.67737e-05
5.78336e-05
-4.82877e-05
6.17416e-05
-3.97172e-05
6.41747e-05
-3.15267e-05
6.51762e-05
-2.41579e-05
6.48892e-05
-1.78711e-05
6.36016e-05
-1.26892e-05
6.16559e-05
-8.50566e-06
5.93371e-05
-5.1707e-06
5.68479e-05
-2.53523e-06
5.43233e-05
-4.68248e-07
5.18492e-05
1.13904e-06
4.94793e-05
2.37452e-06
4.72459e-05
3.30871e-06
4.51673e-05
3.99807e-06
4.32525e-05
4.48784e-06
4.15046e-05
4.81454e-06
3.99226e-05
5.00765e-06
3.8503e-05
5.09107e-06
3.7241e-05
5.0842e-06
3.61311e-05
5.00279e-06
3.51675e-05
4.85961e-06
3.43447e-05
4.66507e-06
3.36577e-05
4.42768e-06
3.31016e-05
4.15444e-06
3.26722e-05
3.85113e-06
3.23656e-05
3.52257e-06
3.21782e-05
3.1728e-06
3.21064e-05
2.80533e-06
3.21467e-05
2.42322e-06
3.22947e-05
2.02928e-06
3.25447e-05
1.62619e-06
3.28883e-05
1.2167e-06
3.33115e-05
8.03941e-07
3.37877e-05
3.92717e-07
3.4243e-05
3.4092e-05
-7.16316e-05
2.9858e-05
-6.88213e-05
3.58883e-05
-6.45883e-05
4.17396e-05
-5.91244e-05
4.70378e-05
-5.27716e-05
5.14808e-05
-4.59192e-05
5.48892e-05
-3.89409e-05
5.71964e-05
-3.21851e-05
5.84205e-05
-2.59549e-05
5.8659e-05
-2.04419e-05
5.80886e-05
-1.57076e-05
5.69216e-05
-1.17244e-05
5.53539e-05
-8.41994e-06
5.35435e-05
-5.70683e-06
5.16101e-05
-3.4981e-06
4.96405e-05
-1.71477e-06
4.7696e-05
-2.8793e-07
4.58191e-05
8.41179e-07
4.40382e-05
1.72188e-06
4.23718e-05
2.3955e-06
4.0831e-05
2.89644e-06
3.94217e-05
3.25323e-06
3.81462e-05
3.48957e-06
3.70047e-05
3.62507e-06
3.59955e-05
3.67601e-06
3.51165e-05
3.65588e-06
3.43649e-05
3.57593e-06
3.37377e-05
3.44552e-06
3.3232e-05
3.27253e-06
3.28452e-05
3.06361e-06
3.25745e-05
2.8244e-06
3.24174e-05
2.55977e-06
3.23711e-05
2.27397e-06
3.24325e-05
1.97084e-06
3.25978e-05
1.65388e-06
3.28617e-05
1.32647e-06
3.32157e-05
9.91993e-07
3.3646e-05
6.54131e-07
3.41255e-05
3.18091e-07
3.4579e-05
3.441e-05
-6.53094e-05
2.83299e-05
-6.27394e-05
3.33183e-05
-5.91349e-05
3.8135e-05
-5.46251e-05
4.25281e-05
-4.94341e-05
4.62898e-05
-4.38289e-05
4.92839e-05
-3.80802e-05
5.14477e-05
-3.24423e-05
5.27826e-05
-2.71314e-05
5.3348e-05
-2.22961e-05
5.32533e-05
-1.80089e-05
5.26343e-05
-1.42817e-05
5.16267e-05
-1.10889e-05
5.03508e-05
-8.385e-06
4.89062e-05
-6.11658e-06
4.73721e-05
-4.22963e-06
4.5809e-05
-2.67308e-06
4.42625e-05
-1.40063e-06
4.27657e-05
-3.71159e-07
4.13423e-05
4.51287e-07
4.00085e-05
1.09766e-06
3.87753e-05
1.59446e-06
3.76494e-05
1.96431e-06
3.66348e-05
2.22636e-06
3.57335e-05
2.39681e-06
3.49461e-05
2.48936e-06
3.42723e-05
2.51566e-06
3.37113e-05
2.48559e-06
3.32621e-05
2.40761e-06
3.29232e-05
2.28895e-06
3.26932e-05
2.13591e-06
3.25704e-05
1.95396e-06
3.2553e-05
1.74801e-06
3.26384e-05
1.52248e-06
3.28233e-05
1.28149e-06
3.31026e-05
1.02898e-06
3.34682e-05
7.6887e-07
3.3906e-05
5.05339e-07
3.4389e-05
2.43939e-07
3.48404e-05
3.4654e-05
-6.02712e-05
2.67616e-05
-5.79206e-05
3.09678e-05
-5.48017e-05
3.50161e-05
-5.10049e-05
3.87313e-05
-4.66818e-05
4.19667e-05
-4.2018e-05
4.46201e-05
-3.72078e-05
4.66375e-05
-3.24362e-05
4.8011e-05
-2.78624e-05
4.87742e-05
-2.36044e-05
4.89953e-05
-1.97333e-05
4.87632e-05
-1.62793e-05
4.81728e-05
-1.32433e-05
4.73147e-05
-1.06066e-05
4.62695e-05
-8.33955e-06
4.51051e-05
-6.40753e-06
4.3877e-05
-4.77444e-06
4.26294e-05
-3.40519e-06
4.13965e-05
-2.26686e-06
4.0204e-05
-1.3295e-06
3.90711e-05
-5.6621e-07
3.8012e-05
4.67864e-08
3.70364e-05
5.30294e-07
3.61513e-05
9.02344e-07
3.53614e-05
1.17855e-06
3.46699e-05
1.37242e-06
3.40784e-05
1.49562e-06
3.35881e-05
1.55822e-06
3.31995e-05
1.56896e-06
3.29124e-05
1.53547e-06
3.27267e-05
1.46444e-06
3.26415e-05
1.36182e-06
3.26556e-05
1.23298e-06
3.27673e-05
1.08282e-06
3.29735e-05
9.1594e-07
3.32695e-05
7.36737e-07
3.36474e-05
5.49565e-07
3.40932e-05
3.58983e-07
3.45796e-05
1.70835e-07
3.50285e-05
3.48248e-05
-5.61708e-05
2.52071e-05
-5.40178e-05
2.88148e-05
-5.12814e-05
3.22798e-05
-4.8027e-05
3.54768e-05
-4.43602e-05
3.83e-05
-4.04122e-05
4.06721e-05
-3.63233e-05
4.25486e-05
-3.22295e-05
4.39171e-05
-2.82508e-05
4.47956e-05
-2.44818e-05
4.52263e-05
-2.09874e-05
4.52688e-05
-1.78048e-05
4.49902e-05
-1.49485e-05
4.44585e-05
-1.24163e-05
4.37372e-05
-1.01945e-05
4.28833e-05
-8.26266e-06
4.19452e-05
-6.59656e-06
4.09633e-05
-5.17057e-06
3.99705e-05
-3.95923e-06
3.89926e-05
-2.93825e-06
3.80501e-05
-2.08502e-06
3.71587e-05
-1.37893e-06
3.63303e-05
-8.01451e-07
3.55738e-05
-3.36065e-07
3.48961e-05
3.18749e-08
3.43019e-05
3.15263e-07
3.3795e-05
5.25428e-07
3.33779e-05
6.72338e-07
3.30525e-05
7.64791e-07
3.282e-05
8.10581e-07
3.26809e-05
8.16646e-07
3.26354e-05
7.89224e-07
3.2683e-05
7.34e-07
3.28225e-05
6.56229e-07
3.30513e-05
5.60859e-07
3.33649e-05
4.52639e-07
3.37556e-05
3.36249e-07
3.42096e-05
2.16487e-07
3.46993e-05
9.92023e-08
3.51458e-05
3.4924e-05
-5.27336e-05
2.36956e-05
-5.07561e-05
2.68373e-05
-4.83267e-05
2.98504e-05
-4.54935e-05
3.26436e-05
-4.23324e-05
3.51388e-05
-3.89377e-05
3.72774e-05
-3.54122e-05
3.90231e-05
-3.18574e-05
4.03623e-05
-2.83655e-05
4.13036e-05
-2.50127e-05
4.18736e-05
-2.18562e-05
4.21123e-05
-1.89339e-05
4.20679e-05
-1.62667e-05
4.17912e-05
-1.38616e-05
4.13322e-05
-1.17154e-05
4.07371e-05
-9.81741e-06
4.00472e-05
-8.15247e-06
3.92984e-05
-6.70264e-06
3.85206e-05
-5.44883e-06
3.77388e-05
-4.37194e-06
3.69732e-05
-3.45344e-06
3.62402e-05
-2.6759e-06
3.55528e-05
-2.02322e-06
3.49212e-05
-1.48068e-06
3.43535e-05
-1.03493e-06
3.38562e-05
-6.74002e-07
3.34341e-05
-3.87126e-07
3.3091e-05
-1.64657e-07
3.28301e-05
2.04061e-09
3.26533e-05
1.20719e-07
3.25622e-05
1.98378e-07
3.25577e-05
2.41403e-07
3.264e-05
2.55672e-07
3.28082e-05
2.46668e-07
3.30603e-05
2.19579e-07
3.33919e-05
1.79395e-07
3.37957e-05
1.31013e-07
3.4258e-05
7.94205e-08
3.47509e-05
2.91503e-08
3.5196e-05
3.49531e-05
-4.97614e-05
2.22422e-05
-4.79391e-05
2.5015e-05
-4.57606e-05
2.76719e-05
-4.3262e-05
3.0145e-05
-4.0499e-05
3.23758e-05
-3.75411e-05
3.43195e-05
-3.44647e-05
3.59467e-05
-3.13469e-05
3.72446e-05
-2.82594e-05
3.82161e-05
-2.5264e-05
3.88782e-05
-2.24098e-05
3.92582e-05
-1.97326e-05
3.93906e-05
-1.72551e-05
3.93138e-05
-1.49894e-05
3.90665e-05
-1.29384e-05
3.86861e-05
-1.10983e-05
3.82071e-05
-9.4604e-06
3.76604e-05
-8.01274e-06
3.70729e-05
-6.74158e-06
3.64676e-05
-5.6323e-06
3.58639e-05
-4.67013e-06
3.5278e-05
-3.84067e-06
3.47233e-05
-3.13021e-06
3.42107e-05
-2.52591e-06
3.37492e-05
-2.01586e-06
3.33461e-05
-1.58915e-06
3.30073e-05
-1.23578e-06
3.27377e-05
-9.46648e-07
3.25409e-05
-7.13471e-07
3.24201e-05
-5.28695e-07
3.23774e-05
-3.85385e-07
3.24144e-05
-2.77139e-07
3.25318e-05
-1.98004e-07
3.27291e-05
-1.42383e-07
3.30046e-05
-1.04948e-07
3.33545e-05
-8.05805e-08
3.37714e-05
-6.43465e-08
3.42417e-05
-5.17121e-08
3.47383e-05
-4.04815e-08
3.51848e-05
3.49126e-05
-4.71183e-05
2.08539e-05
-4.5434e-05
2.33307e-05
-4.34645e-05
2.57025e-05
-4.12378e-05
2.79182e-05
-3.87956e-05
2.99337e-05
-3.61902e-05
3.1714e-05
-3.34795e-05
3.32359e-05
-3.07227e-05
3.44878e-05
-2.79764e-05
3.54698e-05
-2.52905e-05
3.61923e-05
-2.27069e-05
3.66745e-05
-2.02575e-05
3.69412e-05
-1.7965e-05
3.70213e-05
-1.58434e-05
3.69449e-05
-1.38993e-05
3.67419e-05
-1.21331e-05
3.64409e-05
-1.05409e-05
3.60682e-05
-9.11533e-06
3.56473e-05
-7.84685e-06
3.51991e-05
-6.72463e-06
3.47417e-05
-5.73718e-06
3.42906e-05
-4.87287e-06
3.3859e-05
-4.12026e-06
3.34581e-05
-3.46837e-06
3.30973e-05
-2.90674e-06
3.27845e-05
-2.42559e-06
3.25262e-05
-2.01582e-06
3.23279e-05
-1.66897e-06
3.21941e-05
-1.37723e-06
3.21284e-05
-1.13335e-06
3.21335e-05
-9.30594e-07
3.22117e-05
-7.62674e-07
3.23638e-05
-6.23673e-07
3.25901e-05
-5.07985e-07
3.28889e-05
-4.10248e-07
3.32568e-05
-3.25303e-07
3.36864e-05
-2.48246e-07
3.41647e-05
-1.75028e-07
3.4665e-05
-1.07101e-07
3.51168e-05
3.48055e-05
-4.4714e-05
1.95339e-05
-4.31533e-05
2.177e-05
-4.13616e-05
2.39108e-05
-3.93608e-05
2.59175e-05
-3.71831e-05
2.7756e-05
-3.48684e-05
2.93993e-05
-3.24613e-05
3.08288e-05
-3.00079e-05
3.20345e-05
-2.7553e-05
3.30149e-05
-2.51373e-05
3.37766e-05
-2.27957e-05
3.43329e-05
-2.05565e-05
3.4702e-05
-1.84407e-05
3.49055e-05
-1.64627e-05
3.49669e-05
-1.46309e-05
3.49101e-05
-1.29487e-05
3.47586e-05
-1.14151e-05
3.45346e-05
-1.00262e-05
3.42585e-05
-8.77598e-06
3.39489e-05
-7.65651e-06
3.36222e-05
-6.65912e-06
3.32932e-05
-5.7746e-06
3.29745e-05
-4.99361e-06
3.26771e-05
-4.30685e-06
3.24105e-05
-3.70532e-06
3.2183e-05
-3.1804e-06
3.20013e-05
-2.72389e-06
3.18714e-05
-2.32806e-06
3.17982e-05
-1.98562e-06
3.17859e-05
-1.68973e-06
3.18376e-05
-1.43396e-06
3.19559e-05
-1.2122e-06
3.21421e-05
-1.01867e-06
3.23965e-05
-8.47844e-07
3.27181e-05
-6.94419e-07
3.31033e-05
-5.53303e-07
3.35453e-05
-4.19749e-07
3.40311e-05
-2.90135e-07
3.45354e-05
-1.66063e-07
3.49927e-05
3.46394e-05
-4.24882e-05
1.82831e-05
-4.10398e-05
2.03216e-05
-3.94024e-05
2.22735e-05
-3.75936e-05
2.41087e-05
-3.56386e-05
2.58009e-05
-3.35683e-05
2.7329e-05
-3.14175e-05
2.8678e-05
-2.92226e-05
2.98396e-05
-2.70193e-05
3.08115e-05
-2.48406e-05
3.15979e-05
-2.27157e-05
3.2208e-05
-2.0669e-05
3.26552e-05
-1.87195e-05
3.2956e-05
-1.6881e-05
3.31285e-05
-1.51628e-05
3.31919e-05
-1.35698e-05
3.31656e-05
-1.21032e-05
3.3068e-05
-1.07616e-05
3.29169e-05
-9.54125e-06
3.27285e-05
-8.4369e-06
3.25179e-05
-7.44211e-06
3.22984e-05
-6.54974e-06
3.20821e-05
-5.75223e-06
3.18796e-05
-5.04189e-06
3.17002e-05
-4.41105e-06
3.15521e-05
-3.85218e-06
3.14424e-05
-3.35802e-06
3.13772e-05
-2.92155e-06
3.13618e-05
-2.53608e-06
3.14004e-05
-2.19523e-06
3.14968e-05
-1.8929e-06
3.16535e-05
-1.62327e-06
3.18724e-05
-1.38076e-06
3.2154e-05
-1.15999e-06
3.24973e-05
-9.55793e-07
3.28991e-05
-7.63212e-07
3.33527e-05
-5.7768e-07
3.38455e-05
-3.95767e-07
3.43535e-05
-2.18411e-07
3.48154e-05
3.4421e-05
-4.04005e-05
1.71017e-05
-3.90555e-05
1.89766e-05
-3.75546e-05
2.07726e-05
-3.5912e-05
2.24661e-05
-3.41478e-05
2.40366e-05
-3.22864e-05
2.54675e-05
-3.03552e-05
2.67468e-05
-2.83831e-05
2.78674e-05
-2.63986e-05
2.8827e-05
-2.44288e-05
2.96281e-05
-2.24979e-05
3.02771e-05
-2.06267e-05
3.0784e-05
-1.88321e-05
3.11613e-05
-1.7127e-05
3.14234e-05
-1.55207e-05
3.15856e-05
-1.40189e-05
3.16637e-05
-1.26242e-05
3.16733e-05
-1.13369e-05
3.16296e-05
-1.01551e-05
3.15468e-05
-9.07544e-06
3.14383e-05
-8.09334e-06
3.13163e-05
-7.20334e-06
3.11921e-05
-6.39946e-06
3.10757e-05
-5.67539e-06
3.09761e-05
-5.02466e-06
3.09014e-05
-4.4408e-06
3.08585e-05
-3.91739e-06
3.08538e-05
-3.44817e-06
3.08925e-05
-3.02703e-06
3.09793e-05
-2.64807e-06
3.11178e-05
-2.3056e-06
3.13111e-05
-1.9941e-06
3.15609e-05
-1.70825e-06
3.18682e-05
-1.44289e-06
3.2232e-05
-1.19303e-06
3.26493e-05
-9.53911e-07
3.31136e-05
-7.21157e-07
3.36128e-05
-4.91454e-07
3.41238e-05
-2.64962e-07
3.45889e-05
3.41561e-05
-3.84225e-05
1.59896e-05
-3.71738e-05
1.7728e-05
-3.57956e-05
1.93943e-05
-3.42993e-05
2.09699e-05
-3.27012e-05
2.24385e-05
-3.10207e-05
2.3787e-05
-2.92797e-05
2.50059e-05
-2.75013e-05
2.6089e-05
-2.57085e-05
2.70343e-05
-2.39235e-05
2.7843e-05
-2.21663e-05
2.852e-05
-2.04547e-05
2.90724e-05
-1.88036e-05
2.95102e-05
-1.72246e-05
2.98445e-05
-1.57266e-05
3.00877e-05
-1.43157e-05
3.02528e-05
-1.29953e-05
3.03529e-05
-1.17668e-05
3.04011e-05
-1.06297e-05
3.04097e-05
-9.58198e-06
3.03906e-05
-8.62052e-06
3.03549e-05
-7.74128e-06
3.03129e-05
-6.93956e-06
3.0274e-05
-6.21025e-06
3.02468e-05
-5.54797e-06
3.02391e-05
-4.94715e-06
3.02577e-05
-4.40221e-06
3.03088e-05
-3.90757e-06
3.03979e-05
-3.45773e-06
3.05294e-05
-3.04727e-06
3.07074e-05
-2.67091e-06
3.09347e-05
-2.32348e-06
3.12135e-05
-1.99996e-06
3.15446e-05
-1.69543e-06
3.19275e-05
-1.40515e-06
3.2359e-05
-1.12458e-06
3.2833e-05
-8.4955e-07
3.33377e-05
-5.76858e-07
3.38511e-05
-3.05929e-07
3.4318e-05
3.38502e-05
-3.65334e-05
1.49463e-05
-3.53754e-05
1.65699e-05
-3.41085e-05
1.81274e-05
-3.27426e-05
1.9604e-05
-3.12908e-05
2.09867e-05
-2.97688e-05
2.2265e-05
-2.81941e-05
2.34312e-05
-2.65855e-05
2.44804e-05
-2.49617e-05
2.54104e-05
-2.33407e-05
2.62221e-05
-2.17395e-05
2.69187e-05
-2.0173e-05
2.7506e-05
-1.86542e-05
2.79913e-05
-1.71935e-05
2.83838e-05
-1.57993e-05
2.86935e-05
-1.44775e-05
2.8931e-05
-1.32321e-05
2.91075e-05
-1.2065e-05
2.9234e-05
-1.09766e-05
2.93214e-05
-9.96621e-06
2.93801e-05
-9.03159e-06
2.94202e-05
-8.16986e-06
2.94511e-05
-7.37741e-06
2.94816e-05
-6.65013e-06
2.95196e-05
-5.98354e-06
2.95725e-05
-5.37294e-06
2.96471e-05
-4.81347e-06
2.97494e-05
-4.30019e-06
2.98846e-05
-3.82818e-06
3.00574e-05
-3.39251e-06
3.02717e-05
-2.9883e-06
3.05305e-05
-2.61077e-06
3.0836e-05
-2.25518e-06
3.11891e-05
-1.91692e-06
3.15892e-05
-1.59151e-06
3.20336e-05
-1.27465e-06
3.25161e-05
-9.62412e-07
3.30255e-05
-6.51694e-07
3.35404e-05
-3.41307e-07
3.40076e-05
3.35089e-05
-3.47172e-05
1.39711e-05
-3.36446e-05
1.54973e-05
-3.24798e-05
1.69627e-05
-3.12312e-05
1.83553e-05
-2.99094e-05
1.96649e-05
-2.85275e-05
2.08831e-05
-2.70996e-05
2.20034e-05
-2.5641e-05
2.30218e-05
-2.4167e-05
2.39364e-05
-2.26926e-05
2.47477e-05
-2.12317e-05
2.54579e-05
-1.97973e-05
2.60715e-05
-1.84003e-05
2.65944e-05
-1.70503e-05
2.70338e-05
-1.57547e-05
2.73979e-05
-1.45193e-05
2.76956e-05
-1.33482e-05
2.79363e-05
-1.22436e-05
2.81295e-05
-1.12068e-05
2.82845e-05
-1.02375e-05
2.84108e-05
-9.33441e-06
2.85172e-05
-8.49559e-06
2.86123e-05
-7.71826e-06
2.87042e-05
-6.99914e-06
2.88004e-05
-6.33455e-06
2.89079e-05
-5.7205e-06
2.90331e-05
-5.15279e-06
2.91817e-05
-4.6271e-06
2.93589e-05
-4.13901e-06
2.95693e-05
-3.68406e-06
2.98167e-05
-3.2578e-06
3.01042e-05
-2.85579e-06
3.0434e-05
-2.47364e-06
3.08069e-05
-2.10704e-06
3.12226e-05
-1.75178e-06
3.16783e-05
-1.40382e-06
3.21682e-05
-1.05947e-06
3.26811e-05
-7.15743e-07
3.31967e-05
-3.70973e-07
3.36628e-05
3.31379e-05
-3.29606e-05
1.30626e-05
-3.19686e-05
1.45053e-05
-3.08978e-05
1.58919e-05
-2.97555e-05
1.72129e-05
-2.85504e-05
1.84599e-05
-2.72934e-05
1.9626e-05
-2.59962e-05
2.07061e-05
-2.46711e-05
2.16967e-05
-2.33309e-05
2.25962e-05
-2.19879e-05
2.34047e-05
-2.06539e-05
2.4124e-05
-1.93399e-05
2.47574e-05
-1.80553e-05
2.53098e-05
-1.68085e-05
2.5787e-05
-1.56064e-05
2.61957e-05
-1.44541e-05
2.65434e-05
-1.33558e-05
2.6838e-05
-1.2314e-05
2.70876e-05
-1.13301e-05
2.73006e-05
-1.04045e-05
2.74852e-05
-9.53659e-06
2.76493e-05
-8.72494e-06
2.78007e-05
-7.96753e-06
2.79468e-05
-7.26174e-06
2.80947e-05
-6.60457e-06
2.82507e-05
-5.99264e-06
2.84211e-05
-5.42235e-06
2.86114e-05
-4.8899e-06
2.88264e-05
-4.39136e-06
2.90708e-05
-3.92271e-06
2.93481e-05
-3.4799e-06
2.96614e-05
-3.05885e-06
3.00129e-05
-2.6555e-06
3.04036e-05
-2.26585e-06
3.08329e-05
-1.88595e-06
3.12984e-05
-1.51205e-06
3.17942e-05
-1.14069e-06
3.23098e-05
-7.69011e-07
3.2825e-05
-3.9503e-07
3.32889e-05
3.27429e-05
-3.12522e-05
1.22189e-05
-3.03363e-05
1.35894e-05
-2.93526e-05
1.49082e-05
-2.83072e-05
1.61676e-05
-2.72077e-05
1.73605e-05
-2.60631e-05
1.84814e-05
-2.4883e-05
1.9526e-05
-2.36777e-05
2.04914e-05
-2.24577e-05
2.13762e-05
-2.12335e-05
2.21804e-05
-2.00148e-05
2.29053e-05
-1.88109e-05
2.35536e-05
-1.76301e-05
2.4129e-05
-1.64797e-05
2.46365e-05
-1.53657e-05
2.50817e-05
-1.42931e-05
2.54708e-05
-1.32656e-05
2.58105e-05
-1.2286e-05
2.6108e-05
-1.13557e-05
2.63704e-05
-1.04756e-05
2.6605e-05
-9.64541e-06
2.68191e-05
-8.86426e-06
2.70195e-05
-8.13065e-06
2.72132e-05
-7.44253e-06
2.74065e-05
-6.79742e-06
2.76056e-05
-6.1925e-06
2.78162e-05
-5.62466e-06
2.80435e-05
-5.09059e-06
2.82924e-05
-4.58679e-06
2.8567e-05
-4.10965e-06
2.8871e-05
-3.6555e-06
2.92073e-05