/*--------------------------------*- C++ -*----------------------------------*\
| =========                 |                                                 |
| \\      /  F ield         | OpenFOAM: The Open Source CFD Toolbox           |
|  \\    /   O peration     | Version:  5.0                                   |
|   \\  /    A nd           | Web:      www.OpenFOAM.org                      |
|    \\/     M anipulation  |                                                 |
\*---------------------------------------------------------------------------*/
FoamFile
{
    version     2.0;
    format      ascii;
    class       volVectorField;
    location    "0.3";
    object      U;
}
// * * * * * * * * * * * * * * * * * * * * * * * * * * * * * * * * * * * * * //

dimensions      [0 1 -1 0 0 0 0];

internalField   nonuniform List<vector> 
1935
(
(-0.36346 -0.289019 0)
(-0.526282 -0.36284 0)
(-0.685345 -0.397016 0)
(-0.806486 -0.37141 0)
(-0.865406 -0.299258 0)
(-0.868555 -0.210215 0)
(-0.837225 -0.126671 0)
(-0.790548 -0.0580906 0)
(-0.740206 -0.00578953 0)
(-0.691896 0.0322036 0)
(-0.647753 0.0587058 0)
(-0.608117 0.0764232 0)
(-0.572553 0.0876085 0)
(-0.540377 0.0939806 0)
(-0.510902 0.0968182 0)
(-0.483541 0.0970707 0)
(-0.457835 0.0954404 0)
(-0.433454 0.0924505 0)
(-0.410174 0.0885005 0)
(-0.387845 0.0839024 0)
(-0.366367 0.0789002 0)
(-0.345659 0.0736825 0)
(-0.325657 0.0683943 0)
(-0.306311 0.063149 0)
(-0.287573 0.0580353 0)
(-0.269405 0.0531199 0)
(-0.251767 0.0484505 0)
(-0.234624 0.0440582 0)
(-0.217939 0.0399606 0)
(-0.201683 0.0361658 0)
(-0.185831 0.0326763 0)
(-0.170362 0.0294901 0)
(-0.15526 0.0266018 0)
(-0.140515 0.0240041 0)
(-0.126125 0.0216897 0)
(-0.112093 0.0196523 0)
(-0.0984347 0.0178905 0)
(-0.0851795 0.016413 0)
(-0.0723764 0.0152518 0)
(-0.0601127 0.0144763 0)
(-0.0485523 0.0142264 0)
(-0.0380916 0.0151222 0)
(-0.0302893 0.0194938 0)
(-0.263721 -0.00789651 0)
(-0.134447 0.354304 0)
(0.0127363 0.729024 0)
(0.396597 1.24599 0)
(-0.445277 -0.149963 0)
(-0.280184 0.169655 0)
(-0.116603 0.525143 0)
(0.108883 0.901813 0)
(-0.658709 -0.260463 0)
(-0.548979 -0.0224094 0)
(-0.368524 0.319384 0)
(-0.181857 0.675904 0)
(-0.840549 -0.292212 0)
(-0.822945 -0.137014 0)
(-0.720538 0.111977 0)
(-0.540439 0.423517 0)
(-0.936593 -0.247285 0)
(-0.983369 -0.150035 0)
(-0.980604 0.00996945 0)
(-0.90852 0.233908 0)
(-0.94735 -0.164111 0)
(-1.01753 -0.0898333 0)
(-1.06645 0.0227099 0)
(-1.07727 0.177284 0)
(-0.906158 -0.0799167 0)
(-0.971104 -0.0139627 0)
(-1.02586 0.0770914 0)
(-1.0603 0.195235 0)
(-0.844222 -0.0107786 0)
(-0.894436 0.0497956 0)
(-0.937352 0.127389 0)
(-0.967012 0.222924 0)
(-0.779179 0.0405496 0)
(-0.814453 0.0960384 0)
(-0.843407 0.16298 0)
(-0.862141 0.24145 0)
(-0.718793 0.0763192 0)
(-0.741897 0.126629 0)
(-0.75933 0.184613 0)
(-0.768518 0.249931 0)
(-0.665457 0.0998865 0)
(-0.679526 0.145152 0)
(-0.688597 0.195522 0)
(-0.690973 0.250499 0)
(-0.619083 0.114429 0)
(-0.626758 0.155011 0)
(-0.630122 0.198966 0)
(-0.628066 0.245752 0)
(-0.57868 0.122478 0)
(-0.581935 0.158873 0)
(-0.581527 0.197463 0)
(-0.576742 0.23774 0)
(-0.543064 0.125912 0)
(-0.543296 0.15865 0)
(-0.540445 0.192774 0)
(-0.534048 0.227854 0)
(-0.511155 0.12609 0)
(-0.509332 0.155671 0)
(-0.504922 0.186088 0)
(-0.497624 0.216983 0)
(-0.482078 0.12398 0)
(-0.478868 0.150853 0)
(-0.473487 0.178184 0)
(-0.465745 0.205675 0)
(-0.455174 0.120269 0)
(-0.45105 0.14482 0)
(-0.445099 0.169567 0)
(-0.43721 0.194258 0)
(-0.429978 0.115447 0)
(-0.42528 0.138004 0)
(-0.419042 0.160569 0)
(-0.411201 0.182941 0)
(-0.40617 0.109882 0)
(-0.40115 0.130718 0)
(-0.394825 0.151434 0)
(-0.387161 0.171873 0)
(-0.383535 0.10386 0)
(-0.378375 0.123207 0)
(-0.372103 0.142352 0)
(-0.364702 0.161171 0)
(-0.361914 0.0976049 0)
(-0.356749 0.115659 0)
(-0.350629 0.133463 0)
(-0.34355 0.150915 0)
(-0.341188 0.0912828 0)
(-0.336117 0.108213 0)
(-0.33022 0.124865 0)
(-0.323505 0.141152 0)
(-0.321263 0.0850176 0)
(-0.316358 0.100965 0)
(-0.310738 0.116619 0)
(-0.304418 0.131903 0)
(-0.302061 0.0789027 0)
(-0.297378 0.0939855 0)
(-0.292072 0.108766 0)
(-0.286164 0.123183 0)
(-0.283519 0.073011 0)
(-0.279095 0.0873271 0)
(-0.274129 0.10134 0)
(-0.268639 0.115001 0)
(-0.265582 0.0673978 0)
(-0.261441 0.0810315 0)
(-0.256825 0.094369 0)
(-0.25175 0.107369 0)
(-0.248196 0.0621017 0)
(-0.244351 0.0751273 0)
(-0.240086 0.0878683 0)
(-0.235417 0.100289 0)
(-0.231316 0.0571465 0)
(-0.227768 0.0696296 0)
(-0.223849 0.081842 0)
(-0.219575 0.0937507 0)
(-0.214898 0.0525427 0)
(-0.211646 0.0645411 0)
(-0.208064 0.0762832 0)
(-0.204169 0.0877384 0)
(-0.198907 0.0482919 0)
(-0.195944 0.0598566 0)
(-0.192688 0.0711788 0)
(-0.189157 0.0822307 0)
(-0.183313 0.0443913 0)
(-0.18063 0.0555673 0)
(-0.177689 0.0665144 0)
(-0.174506 0.0772073 0)
(-0.168094 0.0408353 0)
(-0.165681 0.0516638 0)
(-0.163043 0.062277 0)
(-0.160192 0.0726512 0)
(-0.153233 0.0376166 0)
(-0.15108 0.0481369 0)
(-0.148731 0.0584548 0)
(-0.146197 0.068548 0)
(-0.138721 0.0347275 0)
(-0.136817 0.0449778 0)
(-0.134744 0.0550381 0)
(-0.132515 0.0648861 0)
(-0.124553 0.0321608 0)
(-0.122891 0.0421793 0)
(-0.121085 0.0520185 0)
(-0.119149 0.0616555 0)
(-0.110739 0.029912 0)
(-0.109313 0.0397374 0)
(-0.107769 0.0493909 0)
(-0.106119 0.0588494 0)
(-0.0972991 0.0279825 0)
(-0.0961099 0.037654 0)
(-0.0948289 0.0471565 0)
(-0.0934622 0.0564659 0)
(-0.0842727 0.0263856 0)
(-0.0833335 0.0359432 0)
(-0.0823255 0.0453266 0)
(-0.0812485 0.0545119 0)
(-0.0717315 0.025159 0)
(-0.0710745 0.0346408 0)
(-0.0703653 0.0439302 0)
(-0.069594 0.0530063 0)
(-0.0598101 0.0243793 0)
(-0.0595017 0.0338144 0)
(-0.0591387 0.0430184 0)
(-0.0587013 0.0519817 0)
(-0.0487696 0.0241813 0)
(-0.0489333 0.033569 0)
(-0.0489919 0.0426604 0)
(-0.0489258 0.0514753 0)
(-0.0391605 0.0250039 0)
(-0.0399826 0.0341868 0)
(-0.0405519 0.0430193 0)
(-0.0408876 0.0515645 0)
(-0.0324731 0.028357 0)
(-0.0340061 0.0366297 0)
(-0.0350592 0.0446775 0)
(-0.035741 0.0525658 0)
(0.44276 1.36354 0)
(0.465251 1.38176 0)
(0.479181 1.37309 0)
(0.490923 1.34789 0)
(0.50007 1.31306 0)
(0.504566 1.28672 0)
(0.509781 1.28147 0)
(0.538783 1.27252 0)
(0.526336 1.15424 0)
(0.516579 0.982759 0)
(0.502213 0.829955 0)
(0.476944 0.714032 0)
(0.445145 0.629609 0)
(0.411942 0.56678 0)
(0.380176 0.517487 0)
(0.350906 0.476741 0)
(0.324265 0.441902 0)
(0.300005 0.411657 0)
(0.277769 0.385315 0)
(0.257217 0.362436 0)
(0.238085 0.342676 0)
(0.220181 0.325735 0)
(0.203371 0.311332 0)
(0.187554 0.299201 0)
(0.17264 0.289099 0)
(0.158543 0.280803 0)
(0.145177 0.274123 0)
(0.132462 0.2689 0)
(0.120317 0.265006 0)
(0.10867 0.262341 0)
(0.0974483 0.260825 0)
(0.0865831 0.260398 0)
(0.0760073 0.261005 0)
(0.065656 0.262597 0)
(0.0554664 0.265116 0)
(0.045376 0.268482 0)
(0.035325 0.27257 0)
(0.0253175 0.27715 0)
(0.0153824 0.281651 0)
(0.00593823 0.281622 0)
(0.39147 1.28069 0)
(0.449971 1.35135 0)
(0.47624 1.35922 0)
(0.492377 1.33977 0)
(0.503174 1.30654 0)
(0.504363 1.28074 0)
(0.506365 1.28244 0)
(0.51237 1.28954 0)
(0.494994 1.1625 0)
(0.471953 0.99631 0)
(0.452196 0.852173 0)
(0.426688 0.742717 0)
(0.397417 0.660749 0)
(0.36834 0.59726 0)
(0.341223 0.545782 0)
(0.316483 0.502503 0)
(0.293971 0.465351 0)
(0.273345 0.433162 0)
(0.254259 0.405206 0)
(0.236433 0.380965 0)
(0.21967 0.36003 0)
(0.203839 0.342054 0)
(0.188853 0.326725 0)
(0.174646 0.313755 0)
(0.161157 0.302887 0)
(0.148327 0.293894 0)
(0.136094 0.286584 0)
(0.124395 0.280798 0)
(0.113168 0.27641 0)
(0.102353 0.273321 0)
(0.0918906 0.27145 0)
(0.0817232 0.270732 0)
(0.0717942 0.271111 0)
(0.0620489 0.27253 0)
(0.0524342 0.274928 0)
(0.0428975 0.278222 0)
(0.0333877 0.282285 0)
(0.023914 0.286887 0)
(0.0145084 0.291451 0)
(0.0055976 0.291362 0)
(0.109345 1.00474 0)
(0.344888 1.2962 0)
(0.440966 1.33724 0)
(0.476188 1.32675 0)
(0.48545 1.29796 0)
(0.47772 1.26939 0)
(0.45778 1.27897 0)
(0.449274 1.30694 0)
(0.440448 1.20981 0)
(0.413509 1.02118 0)
(0.39035 0.87776 0)
(0.366185 0.770311 0)
(0.34181 0.688163 0)
(0.31882 0.62291 0)
(0.297768 0.569171 0)
(0.278534 0.52379 0)
(0.260793 0.484893 0)
(0.24423 0.451293 0)
(0.228605 0.422186 0)
(0.213752 0.396978 0)
(0.199568 0.375205 0)
(0.185994 0.356476 0)
(0.172992 0.340455 0)
(0.160536 0.326842 0)
(0.1486 0.315375 0)
(0.137152 0.30583 0)
(0.126153 0.298017 0)
(0.115562 0.291782 0)
(0.105336 0.286999 0)
(0.0954299 0.283569 0)
(0.0857973 0.281411 0)
(0.0763929 0.280458 0)
(0.0671719 0.28065 0)
(0.0580901 0.281931 0)
(0.0491048 0.284236 0)
(0.0401728 0.287482 0)
(0.0312525 0.291537 0)
(0.0223596 0.296171 0)
(0.0135258 0.300789 0)
(0.0052004 0.300598 0)
(-0.333507 0.732996 0)
(-0.0704997 1.03995 0)
(0.175565 1.21934 0)
(0.236767 1.26802 0)
(0.27484 1.29041 0)
(0.304705 1.2884 0)
(0.3351 1.28315 0)
(0.309205 1.29687 0)
(0.310222 1.22157 0)
(0.318529 1.04195 0)
(0.307203 0.898714 0)
(0.292493 0.791414 0)
(0.277965 0.708216 0)
(0.263958 0.641443 0)
(0.250559 0.586272 0)
(0.2377 0.539724 0)
(0.22525 0.499918 0)
(0.213106 0.465607 0)
(0.201209 0.435919 0)
(0.189541 0.41021 0)
(0.178107 0.387977 0)
(0.16693 0.368809 0)
(0.156033 0.352355 0)
(0.145437 0.338318 0)
(0.135152 0.32644 0)
(0.125174 0.316503 0)
(0.115492 0.308326 0)
(0.106084 0.301761 0)
(0.096926 0.296685 0)
(0.0879889 0.293001 0)
(0.0792423 0.290628 0)
(0.0706545 0.289499 0)
(0.0621931 0.289554 0)
(0.0538256 0.290736 0)
(0.0455194 0.292978 0)
(0.0372411 0.296195 0)
(0.0289592 0.300256 0)
(0.0206964 0.304923 0)
(0.0124856 0.309583 0)
(0.00478608 0.30926 0)
(-0.776107 0.510159 0)
(-0.588442 0.791751 0)
(-0.334313 1.04194 0)
(-0.197546 1.17974 0)
(-0.103234 1.23663 0)
(-0.0442736 1.26126 0)
(0.0248077 1.28079 0)
(0.0847345 1.27754 0)
(0.132903 1.18121 0)
(0.184038 1.0315 0)
(0.202748 0.900144 0)
(0.207978 0.797564 0)
(0.208285 0.716311 0)
(0.205626 0.650387 0)
(0.201016 0.595682 0)
(0.195094 0.549455 0)
(0.188235 0.509887 0)
(0.18069 0.475741 0)
(0.172651 0.446146 0)
(0.16427 0.420458 0)
(0.155677 0.398177 0)
(0.146978 0.378902 0)
(0.138262 0.362293 0)
(0.129595 0.348065 0)
(0.121023 0.335976 0)
(0.112574 0.325819 0)
(0.104262 0.317426 0)
(0.0960874 0.310655 0)
(0.088045 0.305393 0)
(0.0801234 0.301545 0)
(0.0723076 0.299034 0)
(0.0645798 0.297794 0)
(0.0569203 0.297765 0)
(0.0493083 0.298888 0)
(0.0417221 0.301098 0)
(0.0341388 0.304307 0)
(0.0265374 0.30838 0)
(0.018948 0.313077 0)
(0.011404 0.317758 0)
(0.00436579 0.317262 0)
(-1.03782 0.375854 0)
(-0.940107 0.606742 0)
(-0.779754 0.84495 0)
(-0.624107 1.02196 0)
(-0.486637 1.11623 0)
(-0.370305 1.15945 0)
(-0.260617 1.18404 0)
(-0.143481 1.17799 0)
(-0.0338223 1.10048 0)
(0.049023 0.982783 0)
(0.0961781 0.874118 0)
(0.122979 0.784052 0)
(0.138669 0.710083 0)
(0.147328 0.648667 0)
(0.151356 0.596932 0)
(0.152218 0.552762 0)
(0.150832 0.514663 0)
(0.147811 0.481583 0)
(0.143587 0.452758 0)
(0.138476 0.427615 0)
(0.132721 0.405705 0)
(0.126511 0.386663 0)
(0.119991 0.370181 0)
(0.113273 0.356002 0)
(0.106438 0.343905 0)
(0.0995431 0.333705 0)
(0.0926265 0.325246 0)
(0.0857123 0.318401 0)
(0.0788137 0.313063 0)
(0.0719367 0.309146 0)
(0.0650815 0.306576 0)
(0.0582443 0.30529 0)
(0.0514179 0.305229 0)
(0.0445932 0.306336 0)
(0.0377595 0.308544 0)
(0.0309045 0.311765 0)
(0.0240178 0.315863 0)
(0.0171357 0.320588 0)
(0.0102919 0.325274 0)
(0.00393969 0.324584 0)
(-1.06359 0.345566 0)
(-1.02207 0.524214 0)
(-0.93045 0.708773 0)
(-0.804397 0.864784 0)
(-0.666671 0.966515 0)
(-0.531953 1.0218 0)
(-0.399198 1.04672 0)
(-0.266968 1.03916 0)
(-0.146253 0.987329 0)
(-0.0539914 0.90723 0)
(0.00755336 0.826268 0)
(0.0481529 0.753941 0)
(0.0749929 0.6913 0)
(0.0925908 0.637322 0)
(0.103846 0.590632 0)
(0.110631 0.549999 0)
(0.114182 0.514449 0)
(0.115342 0.483239 0)
(0.114708 0.455804 0)
(0.112719 0.431696 0)
(0.109704 0.410553 0)
(0.105914 0.392071 0)
(0.101546 0.375993 0)
(0.096747 0.362097 0)
(0.0916301 0.350194 0)
(0.0862791 0.340123 0)
(0.0807557 0.331749 0)
(0.0751044 0.324958 0)
(0.0693572 0.319657 0)
(0.0635361 0.315764 0)
(0.0576561 0.313214 0)
(0.0517268 0.311946 0)
(0.0457531 0.311906 0)
(0.0397371 0.313037 0)
(0.0336787 0.315274 0)
(0.0275762 0.318527 0)
(0.0214291 0.322659 0)
(0.0152787 0.327412 0)
(0.00915838 0.332097 0)
(0.00350787 0.331207 0)
(-0.976656 0.340962 0)
(-0.95368 0.479171 0)
(-0.892739 0.619256 0)
(-0.797817 0.740851 0)
(-0.682841 0.82962 0)
(-0.561092 0.884407 0)
(-0.438416 0.910036 0)
(-0.318145 0.907847 0)
(-0.209753 0.876191 0)
(-0.122986 0.82524 0)
(-0.0589934 0.768908 0)
(-0.0128805 0.714311 0)
(0.0200874 0.664032 0)
(0.043545 0.618714 0)
(0.0601083 0.578179 0)
(0.0715936 0.542009 0)
(0.0792803 0.509761 0)
(0.0840834 0.481036 0)
(0.0866709 0.455492 0)
(0.0875419 0.432834 0)
(0.0870767 0.412804 0)
(0.085569 0.395178 0)
(0.083247 0.379757 0)
(0.0802883 0.366363 0)
(0.0768305 0.354845 0)
(0.0729801 0.34507 0)
(0.0688189 0.336925 0)
(0.0644098 0.330313 0)
(0.0598012 0.325153 0)
(0.05503 0.321375 0)
(0.0501249 0.31892 0)
(0.0451074 0.317733 0)
(0.039994 0.317764 0)
(0.0347972 0.318959 0)
(0.029527 0.321254 0)
(0.0241912 0.324559 0)
(0.0187988 0.328734 0)
(0.0133949 0.333517 0)
(0.00801194 0.338195 0)
(0.00307201 0.337107 0)
(-0.866273 0.335188 0)
(-0.846429 0.442541 0)
(-0.799316 0.549392 0)
(-0.726693 0.643775 0)
(-0.636175 0.716749 0)
(-0.536642 0.765809 0)
(-0.434502 0.791945 0)
(-0.334792 0.795966 0)
(-0.243993 0.779514 0)
(-0.167869 0.748549 0)
(-0.107599 0.710706 0)
(-0.0611402 0.670985 0)
(-0.0257759 0.632083 0)
(0.000943909 0.595298 0)
(0.02101 0.561163 0)
(0.0359385 0.529838 0)
(0.0468768 0.5013 0)
(0.0546901 0.47545 0)
(0.0600369 0.452152 0)
(0.0634247 0.43126 0)
(0.0652495 0.412626 0)
(0.065823 0.396104 0)
(0.0653919 0.381559 0)
(0.064152 0.368863 0)
(0.0622587 0.357901 0)
(0.0598354 0.348573 0)
(0.05698 0.340788 0)
(0.0537704 0.334469 0)
(0.0502689 0.32955 0)
(0.0465254 0.325971 0)
(0.0425801 0.323682 0)
(0.0384656 0.322636 0)
(0.0342082 0.322786 0)
(0.0298303 0.324082 0)
(0.0253509 0.326461 0)
(0.0207865 0.329836 0)
(0.0161543 0.334064 0)
(0.0115025 0.338878 0)
(0.00686212 0.343544 0)
(0.00263509 0.342262 0)
(-0.766485 0.325453 0)
(-0.746574 0.409862 0)
(-0.707401 0.49282 0)
(-0.650151 0.567036 0)
(-0.579161 0.62682 0)
(-0.500068 0.669624 0)
(-0.417924 0.695154 0)
(-0.337243 0.704 0)
(-0.262535 0.697774 0)
(-0.197357 0.680167 0)
(-0.142961 0.655575 0)
(-0.0987299 0.627467 0)
(-0.0633125 0.598149 0)
(-0.0352313 0.569054 0)
(-0.0131341 0.541021 0)
(0.00411996 0.514525 0)
(0.017461 0.489822 0)
(0.0276359 0.467033 0)
(0.0352417 0.446192 0)
(0.0407566 0.42728 0)
(0.0445647 0.410247 0)
(0.0469762 0.395024 0)
(0.0482422 0.381533 0)
(0.0485663 0.369697 0)
(0.0481138 0.359439 0)
(0.0470192 0.350688 0)
(0.0453914 0.343379 0)
(0.0433198 0.337456 0)
(0.0408774 0.332865 0)
(0.0381244 0.329561 0)
(0.0351107 0.327503 0)
(0.031878 0.32665 0)
(0.0284616 0.326962 0)
(0.0248919 0.328392 0)
(0.0211959 0.330882 0)
(0.017398 0.334343 0)
(0.0135227 0.338632 0)
(0.00962005 0.343479 0)
(0.00571947 0.348132 0)
(0.00220094 0.346659 0)
(-0.684615 0.312397 0)
(-0.664804 0.380144 0)
(-0.631305 0.446118 0)
(-0.584993 0.505691 0)
(-0.528509 0.555137 0)
(-0.465471 0.59237 0)
(-0.399534 0.616722 0)
(-0.334133 0.62849 0)
(-0.27244 0.628873 0)
(-0.216869 0.620108 0)
(-0.16858 0.604879 0)
(-0.127635 0.58556 0)
(-0.0934839 0.563985 0)
(-0.0653304 0.541474 0)
(-0.0423285 0.51894 0)
(-0.0236867 0.496998 0)
(-0.0087059 0.476051 0)
(0.00321541 0.456353 0)
(0.0125833 0.438056 0)
(0.0198222 0.421243 0)
(0.0252859 0.405942 0)
(0.0292685 0.392152 0)
(0.0320139 0.379848 0)
(0.0337248 0.368998 0)
(0.034569 0.359561 0)
(0.0346858 0.351495 0)
(0.0341906 0.34476 0)
(0.03318 0.339318 0)
(0.0317345 0.335132 0)
(0.0299221 0.332168 0)
(0.0278 0.330396 0)
(0.0254173 0.329784 0)
(0.0228163 0.330296 0)
(0.0200345 0.331891 0)
(0.0171057 0.334512 0)
(0.0140607 0.338074 0)
(0.0109303 0.342433 0)
(0.0077657 0.347314 0)
(0.00459454 0.35195 0)
(0.00177334 0.350292 0)
(-0.619138 0.29734 0)
(-0.599957 0.352888 0)
(-0.5709 0.40665 0)
(-0.532616 0.455555 0)
(-0.486797 0.497085 0)
(-0.435822 0.529646 0)
(-0.382261 0.552556 0)
(-0.328609 0.565893 0)
(-0.277119 0.570415 0)
(-0.229534 0.567504 0)
(-0.186874 0.558852 0)
(-0.149491 0.546098 0)
(-0.117277 0.530646 0)
(-0.0898678 0.513621 0)
(-0.066781 0.495884 0)
(-0.0475034 0.478074 0)
(-0.0315386 0.460654 0)
(-0.01843 0.443951 0)
(-0.00776982 0.428188 0)
(0.000801177 0.41351 0)
(0.00759381 0.400005 0)
(0.0128751 0.387727 0)
(0.0168734 0.376698 0)
(0.0197827 0.366923 0)
(0.0217673 0.358393 0)
(0.022966 0.351095 0)
(0.0234964 0.34501 0)
(0.0234584 0.340118 0)
(0.0229368 0.336398 0)
(0.0220045 0.333829 0)
(0.0207241 0.33239 0)
(0.0191501 0.332057 0)
(0.0173302 0.332802 0)
(0.0153074 0.334587 0)
(0.013121 0.337359 0)
(0.0108071 0.341034 0)
(0.00840188 0.345468 0)
(0.0059567 0.350384 0)
(0.00349704 0.355001 0)
(0.0013552 0.353164 0)
(-0.566482 0.281438 0)
(-0.548276 0.327898 0)
(-0.522803 0.372682 0)
(-0.490548 0.413681 0)
(-0.452631 0.449141 0)
(-0.41066 0.477866 0)
(-0.366439 0.499255 0)
(-0.321756 0.513256 0)
(-0.278242 0.520313 0)
(-0.237202 0.521281 0)
(-0.199506 0.517259 0)
(-0.165605 0.50939 0)
(-0.13562 0.498736 0)
(-0.109444 0.486212 0)
(-0.0868408 0.472575 0)
(-0.0675013 0.458426 0)
(-0.0510923 0.44423 0)
(-0.0372815 0.430339 0)
(-0.025753 0.41701 0)
(-0.0162155 0.40443 0)
(-0.00840631 0.392729 0)
(-0.00209114 0.381995 0)
(0.00293618 0.372286 0)
(0.00685476 0.363639 0)
(0.00981974 0.356073 0)
(0.0119654 0.349599 0)
(0.0134075 0.344219 0)
(0.0142461 0.339929 0)
(0.0145676 0.336723 0)
(0.0144472 0.334592 0)
(0.0139508 0.333523 0)
(0.0131363 0.333501 0)
(0.0120555 0.334504 0)
(0.0107554 0.336499 0)
(0.00927925 0.339437 0)
(0.00766773 0.343234 0)
(0.00596076 0.347749 0)
(0.00420922 0.3527 0)
(0.00243569 0.357294 0)
(0.000948678 0.355281 0)
(-0.523237 0.265432 0)
(-0.506158 0.304994 0)
(-0.48362 0.343026 0)
(-0.455985 0.37804 0)
(-0.424018 0.408783 0)
(-0.388834 0.434354 0)
(-0.35171 0.45425 0)
(-0.313941 0.468356 0)
(-0.276723 0.476913 0)
(-0.241056 0.480456 0)
(-0.207672 0.479712 0)
(-0.177031 0.475489 0)
(-0.149354 0.468581 0)
(-0.124687 0.45972 0)
(-0.102944 0.449542 0)
(-0.0839622 0.438582 0)
(-0.0675306 0.427273 0)
(-0.0534174 0.415963 0)
(-0.0413867 0.404918 0)
(-0.0312091 0.394345 0)
(-0.022669 0.384399 0)
(-0.0155677 0.375194 0)
(-0.00972571 0.366812 0)
(-0.00498231 0.359316 0)
(-0.0011948 0.352745 0)
(0.00176275 0.34713 0)
(0.00400086 0.342489 0)
(0.00561666 0.338836 0)
(0.00669576 0.336176 0)
(0.00731377 0.334512 0)
(0.00753782 0.33384 0)
(0.00742788 0.334153 0)
(0.0070381 0.335434 0)
(0.00641813 0.337655 0)
(0.00561418 0.340769 0)
(0.00466995 0.344695 0)
(0.00362834 0.349293 0)
(0.00253858 0.354279 0)
(0.00141791 0.358849 0)
(0.000555219 0.356657 0)
(-0.486731 0.249743 0)
(-0.470805 0.283969 0)
(-0.450697 0.316813 0)
(-0.426675 0.347201 0)
(-0.399281 0.374215 0)
(-0.369304 0.397174 0)
(-0.337666 0.415667 0)
(-0.305314 0.429554 0)
(-0.273145 0.438957 0)
(-0.241933 0.444211 0)
(-0.212286 0.445806 0)
(-0.184633 0.444316 0)
(-0.159234 0.440337 0)
(-0.136206 0.434443 0)
(-0.115561 0.427157 0)
(-0.0972302 0.418939 0)
(-0.0810909 0.410176 0)
(-0.0669898 0.401193 0)
(-0.0547569 0.39225 0)
(-0.044217 0.383559 0)
(-0.0351979 0.375285 0)
(-0.0275355 0.367557 0)
(-0.021077 0.360477 0)
(-0.0156821 0.354121 0)
(-0.0112234 0.348549 0)
(-0.00758615 0.343804 0)
(-0.00466731 0.339921 0)
(-0.00237452 0.336925 0)
(-0.000625058 0.334832 0)
(0.000655194 0.333655 0)
(0.00153287 0.333398 0)
(0.00206836 0.33406 0)
(0.00231697 0.335631 0)
(0.00232985 0.338088 0)
(0.00215497 0.341385 0)
(0.0018381 0.345445 0)
(0.00142407 0.350126 0)
(0.000959959 0.355146 0)
(0.000448573 0.35969 0)
(0.000171961 0.357316 0)
(-0.455043 0.234588 0)
(-0.440231 0.264613 0)
(-0.422155 0.293394 0)
(-0.401023 0.320138 0)
(-0.377222 0.344162 0)
(-0.351329 0.364947 0)
(-0.32402 0.382158 0)
(-0.295999 0.395658 0)
(-0.267948 0.405497 0)
(-0.240473 0.411888 0)
(-0.214077 0.415163 0)
(-0.189139 0.415734 0)
(-0.16592 0.414048 0)
(-0.144572 0.410552 0)
(-0.125158 0.40567 0)
(-0.10767 0.399787 0)
(-0.0920472 0.393242 0)
(-0.0781955 0.386328 0)
(-0.065997 0.379289 0)
(-0.055322 0.372331 0)
(-0.0460368 0.365622 0)
(-0.0380091 0.359297 0)
(-0.0311119 0.353468 0)
(-0.0252253 0.348221 0)
(-0.0202379 0.343629 0)
(-0.0160469 0.339748 0)
(-0.0125585 0.336622 0)
(-0.00968697 0.334286 0)
(-0.00735415 0.332767 0)
(-0.00548909 0.332085 0)
(-0.00402686 0.332252 0)
(-0.00290775 0.333272 0)
(-0.00207651 0.335141 0)
(-0.00148157 0.337838 0)
(-0.00107418 0.341321 0)
(-0.000807557 0.345516 0)
(-0.000636108 0.350281 0)
(-0.000514903 0.355335 0)
(-0.000465414 0.359873 0)
(-0.00020109 0.357265 0)
(-0.426853 0.220062 0)
(-0.41309 0.246734 0)
(-0.396739 0.272282 0)
(-0.377966 0.296114 0)
(-0.357057 0.317714 0)
(-0.334441 0.336682 0)
(-0.310622 0.352748 0)
(-0.286133 0.365787 0)
(-0.261498 0.375812 0)
(-0.237196 0.382953 0)
(-0.213638 0.387443 0)
(-0.191154 0.389576 0)
(-0.169985 0.389689 0)
(-0.150294 0.388128 0)
(-0.132168 0.385234 0)
(-0.115636 0.381326 0)
(-0.100681 0.376695 0)
(-0.0872503 0.3716 0)
(-0.0752661 0.366265 0)
(-0.0646363 0.360882 0)
(-0.0552599 0.355615 0)
(-0.0470328 0.3506 0)
(-0.0398514 0.345953 0)
(-0.0336154 0.341767 0)
(-0.0282291 0.338121 0)
(-0.0236021 0.33508 0)
(-0.0196502 0.332696 0)
(-0.0162953 0.331012 0)
(-0.013465 0.330063 0)
(-0.0110921 0.329875 0)
(-0.00911469 0.330466 0)
(-0.00747487 0.331845 0)
(-0.00611852 0.334012 0)
(-0.00499461 0.336949 0)
(-0.00405453 0.340618 0)
(-0.00325139 0.344945 0)
(-0.00253988 0.349793 0)
(-0.00187977 0.354886 0)
(-0.00131323 0.35947 0)
(-0.000544565 0.356488 0)
(-0.401276 0.20621 0)
(-0.38849 0.230173 0)
(-0.373629 0.253119 0)
(-0.356826 0.274599 0)
(-0.338297 0.294216 0)
(-0.318368 0.311661 0)
(-0.297421 0.326719 0)
(-0.275865 0.339281 0)
(-0.254105 0.349337 0)
(-0.232523 0.356969 0)
(-0.211454 0.362338 0)
(-0.191178 0.36566 0)
(-0.171912 0.367185 0)
(-0.153813 0.367184 0)
(-0.136978 0.365929 0)
(-0.121459 0.363683 0)
(-0.107265 0.360693 0)
(-0.0943719 0.357184 0)
(-0.0827342 0.353357 0)
(-0.0722887 0.349389 0)
(-0.0629612 0.345435 0)
(-0.0546719 0.341628 0)
(-0.047338 0.338082 0)
(-0.0408767 0.334895 0)
(-0.0352071 0.332148 0)
(-0.030251 0.329912 0)
(-0.0259342 0.328244 0)
(-0.0221862 0.327194 0)
(-0.0189407 0.326801 0)
(-0.0161355 0.327097 0)
(-0.013712 0.328105 0)
(-0.0116151 0.329837 0)
(-0.00979247 0.332297 0)
(-0.00819452 0.335471 0)
(-0.00677357 0.339321 0)
(-0.00548344 0.343777 0)
(-0.00427995 0.348705 0)
(-0.00312817 0.353839 0)
(-0.0020809 0.358483 0)
(-0.000848883 0.355076 0)
(-0.377715 0.193059 0)
(-0.365845 0.214812 0)
(-0.352292 0.235641 0)
(-0.337169 0.2552 0)
(-0.320642 0.273184 0)
(-0.30296 0.289351 0)
(-0.284419 0.303529 0)
(-0.265334 0.315626 0)
(-0.246023 0.325621 0)
(-0.22679 0.333566 0)
(-0.207908 0.339573 0)
(-0.189614 0.343799 0)
(-0.172097 0.346436 0)
(-0.155502 0.347692 0)
(-0.139927 0.347786 0)
(-0.125435 0.346934 0)
(-0.112049 0.345343 0)
(-0.0997696 0.343207 0)
(-0.0885714 0.340704 0)
(-0.0784142 0.337996 0)
(-0.0692455 0.335225 0)
(-0.0610053 0.332519 0)
(-0.0536287 0.329987 0)
(-0.0470485 0.327728 0)
(-0.0411971 0.325824 0)
(-0.0360078 0.324349 0)
(-0.0314158 0.323363 0)
(-0.0273583 0.322919 0)
(-0.0237756 0.323061 0)
(-0.0206103 0.323825 0)
(-0.0178081 0.325235 0)
(-0.0153169 0.32731 0)
(-0.013087 0.330054 0)
(-0.0110706 0.333455 0)
(-0.00922178 0.33748 0)
(-0.00749566 0.342059 0)
(-0.00584965 0.347062 0)
(-0.00425376 0.352235 0)
(-0.00276495 0.356933 0)
(-0.00111558 0.353098 0)
(-0.355766 0.180627 0)
(-0.344757 0.200557 0)
(-0.332374 0.219647 0)
(-0.318712 0.237625 0)
(-0.303898 0.254252 0)
(-0.288127 0.269341 0)
(-0.27163 0.282754 0)
(-0.254653 0.294412 0)
(-0.237447 0.304294 0)
(-0.220256 0.31243 0)
(-0.203302 0.318898 0)
(-0.186783 0.323816 0)
(-0.170862 0.327328 0)
(-0.15567 0.329598 0)
(-0.141301 0.3308 0)
(-0.12782 0.331113 0)
(-0.115261 0.330709 0)
(-0.103638 0.329756 0)
(-0.0929416 0.328409 0)
(-0.0831481 0.326813 0)
(-0.0742221 0.3251 0)
(-0.0661196 0.323386 0)
(-0.0587906 0.32178 0)
(-0.0521811 0.320374 0)
(-0.0462356 0.319252 0)
(-0.0408975 0.318487 0)
(-0.0361109 0.318141 0)
(-0.0318207 0.31827 0)
(-0.0279731 0.31892 0)
(-0.0245162 0.320128 0)
(-0.0213998 0.321923 0)
(-0.0185754 0.324324 0)
(-0.0159962 0.327338 0)
(-0.0136169 0.330956 0)
(-0.0113934 0.335146 0)
(-0.00928286 0.33984 0)
(-0.00724462 0.344911 0)
(-0.00525334 0.35012 0)
(-0.00336578 0.354859 0)
(-0.00134651 0.350617 0)
(-0.335145 0.168916 0)
(-0.324951 0.187331 0)
(-0.313629 0.204976 0)
(-0.301254 0.221638 0)
(-0.287929 0.237131 0)
(-0.273806 0.251306 0)
(-0.259067 0.264055 0)
(-0.243906 0.275311 0)
(-0.228524 0.285051 0)
(-0.213115 0.293293 0)
(-0.197864 0.300095 0)
(-0.182933 0.305541 0)
(-0.168464 0.309743 0)
(-0.15457 0.312831 0)
(-0.14134 0.314944 0)
(-0.128837 0.316229 0)
(-0.117103 0.31683 0)
(-0.106155 0.31689 0)
(-0.0959988 0.316546 0)
(-0.0866214 0.315926 0)
(-0.0780006 0.31515 0)
(-0.0701048 0.314326 0)
(-0.0628961 0.313555 0)
(-0.0563319 0.312926 0)
(-0.0503669 0.312522 0)
(-0.0449537 0.312412 0)
(-0.0400442 0.312662 0)
(-0.0355905 0.313326 0)
(-0.0315447 0.314451 0)
(-0.0278601 0.316076 0)
(-0.0244907 0.318233 0)
(-0.0213918 0.320941 0)
(-0.0185197 0.324209 0)
(-0.0158317 0.328029 0)
(-0.0132864 0.332371 0)
(-0.010843 0.33717 0)
(-0.008463 0.342303 0)
(-0.00612567 0.34754 0)
(-0.00388493 0.352306 0)
(-0.00154403 0.347688 0)
(-0.315642 0.157919 0)
(-0.306225 0.175059 0)
(-0.295872 0.191494 0)
(-0.284646 0.207053 0)
(-0.272629 0.221591 0)
(-0.259941 0.23499 0)
(-0.246728 0.247162 0)
(-0.233146 0.258051 0)
(-0.219354 0.267637 0)
(-0.205511 0.27593 0)
(-0.191768 0.282969 0)
(-0.17826 0.288819 0)
(-0.165107 0.293567 0)
(-0.152409 0.297314 0)
(-0.140246 0.300175 0)
(-0.128679 0.302269 0)
(-0.117749 0.303717 0)
(-0.107481 0.304644 0)
(-0.0978852 0.305165 0)
(-0.0889583 0.305397 0)
(-0.0806874 0.305446 0)
(-0.0730508 0.305413 0)
(-0.0660203 0.305391 0)
(-0.0595626 0.305465 0)
(-0.0536409 0.305712 0)
(-0.0482159 0.306203 0)
(-0.0432466 0.307 0)
(-0.0386914 0.308157 0)
(-0.0345081 0.309722 0)
(-0.0306548 0.311735 0)
(-0.0270899 0.314228 0)
(-0.0237722 0.31722 0)
(-0.0206614 0.320723 0)
(-0.0177177 0.32473 0)
(-0.0149022 0.329211 0)
(-0.0121766 0.334103 0)
(-0.00950498 0.339289 0)
(-0.00687076 0.344546 0)
(-0.00432349 0.349323 0)
(-0.00170874 0.344368 0)
(-0.297097 0.147616 0)
(-0.288418 0.163677 0)
(-0.278955 0.17909 0)
(-0.268763 0.193719 0)
(-0.257904 0.207449 0)
(-0.246478 0.220185 0)
(-0.234603 0.231856 0)
(-0.222403 0.242416 0)
(-0.210008 0.251845 0)
(-0.197547 0.260148 0)
(-0.185144 0.267354 0)
(-0.172913 0.273512 0)
(-0.160954 0.27869 0)
(-0.149356 0.28297 0)
(-0.138188 0.286443 0)
(-0.127508 0.289209 0)
(-0.117356 0.291371 0)
(-0.107758 0.293034 0)
(-0.0987301 0.2943 0)
(-0.0902741 0.295272 0)
(-0.082384 0.296044 0)
(-0.0750456 0.29671 0)
(-0.0682384 0.297354 0)
(-0.0619365 0.298058 0)
(-0.0561105 0.298893 0)
(-0.0507278 0.299928 0)
(-0.0457536 0.301223 0)
(-0.041152 0.302831 0)
(-0.036886 0.3048 0)
(-0.0329183 0.307168 0)
(-0.0292111 0.309968 0)
(-0.0257272 0.313222 0)
(-0.0224293 0.316939 0)
(-0.0192807 0.321113 0)
(-0.0162451 0.325718 0)
(-0.0132869 0.330692 0)
(-0.0103727 0.33592 0)
(-0.00748979 0.341189 0)
(-0.00468256 0.345962 0)
(-0.00183966 0.340715 0)
(-0.279379 0.137993 0)
(-0.271399 0.153133 0)
(-0.262756 0.167677 0)
(-0.253497 0.181517 0)
(-0.243674 0.194559 0)
(-0.233367 0.206726 0)
(-0.222673 0.21796 0)
(-0.211693 0.228223 0)
(-0.200533 0.237497 0)
(-0.1893 0.245783 0)
(-0.178095 0.253103 0)
(-0.167012 0.259494 0)
(-0.156139 0.265011 0)
(-0.14555 0.269718 0)
(-0.135308 0.273693 0)
(-0.125464 0.277017 0)
(-0.116056 0.279778 0)
(-0.107113 0.282066 0)
(-0.0986503 0.283971 0)
(-0.0906749 0.285582 0)
(-0.0831855 0.286985 0)
(-0.0761734 0.288265 0)
(-0.069624 0.289499 0)
(-0.0635175 0.290762 0)
(-0.0578304 0.292124 0)
(-0.0525357 0.293648 0)
(-0.0476041 0.295393 0)
(-0.0430048 0.297409 0)
(-0.0387052 0.299743 0)
(-0.0346723 0.302434 0)
(-0.0308722 0.305513 0)
(-0.0272711 0.309002 0)
(-0.0238349 0.312911 0)
(-0.0205298 0.317235 0)
(-0.0173224 0.321947 0)
(-0.0141795 0.326989 0)
(-0.0110702 0.332249 0)
(-0.00798579 0.33752 0)
(-0.00496507 0.342277 0)
(-0.0019379 0.33679 0)
(-0.262374 0.129035 0)
(-0.255054 0.143385 0)
(-0.247169 0.157186 0)
(-0.238759 0.170351 0)
(-0.229867 0.182802 0)
(-0.22056 0.194478 0)
(-0.210918 0.205329 0)
(-0.201023 0.215324 0)
(-0.190964 0.224446 0)
(-0.180827 0.232695 0)
(-0.170696 0.240088 0)
(-0.160652 0.246653 0)
(-0.150767 0.252435 0)
(-0.141105 0.257486 0)
(-0.131723 0.26187 0)
(-0.122665 0.265657 0)
(-0.113967 0.26892 0)
(-0.105656 0.271737 0)
(-0.09775 0.274187 0)
(-0.0902573 0.276349 0)
(-0.08318 0.2783 0)
(-0.0765137 0.280116 0)
(-0.070248 0.281868 0)
(-0.0643682 0.283627 0)
(-0.0588552 0.285457 0)
(-0.053687 0.287417 0)
(-0.048839 0.289563 0)
(-0.0442844 0.291945 0)
(-0.0399952 0.294607 0)
(-0.0359417 0.297587 0)
(-0.032094 0.300916 0)
(-0.0284212 0.304614 0)
(-0.0248925 0.308693 0)
(-0.0214769 0.313147 0)
(-0.0181437 0.317951 0)
(-0.0148621 0.323048 0)
(-0.0116039 0.328328 0)
(-0.00836378 0.333591 0)
(-0.00517577 0.338319 0)
(-0.00200724 0.332645 0)
(-0.245987 0.120729 0)
(-0.239289 0.134395 0)
(-0.232105 0.147555 0)
(-0.224471 0.160138 0)
(-0.216423 0.172079 0)
(-0.208017 0.183326 0)
(-0.199319 0.193839 0)
(-0.190397 0.203589 0)
(-0.181325 0.212564 0)
(-0.172173 0.220763 0)
(-0.163012 0.228196 0)
(-0.153909 0.23489 0)
(-0.144925 0.240877 0)
(-0.136117 0.246204 0)
(-0.127533 0.250922 0)
(-0.119212 0.255091 0)
(-0.111188 0.258774 0)
(-0.103486 0.262038 0)
(-0.0961225 0.264952 0)
(-0.0891089 0.267586 0)
(-0.082449 0.270011 0)
(-0.0761409 0.272293 0)
(-0.070178 0.274499 0)
(-0.064549 0.276693 0)
(-0.0592389 0.278935 0)
(-0.0542294 0.281281 0)
(-0.0494999 0.283783 0)
(-0.0450275 0.28649 0)
(-0.0407874 0.289443 0)
(-0.0367537 0.29268 0)
(-0.0328995 0.296229 0)
(-0.0291972 0.300111 0)
(-0.0256187 0.304337 0)
(-0.0221359 0.308903 0)
(-0.0187205 0.313782 0)
(-0.0153443 0.318919 0)
(-0.0119814 0.32421 0)
(-0.00862998 0.329455 0)
(-0.00531968 0.334144 0)
(-0.00205158 0.328335 0)
(-0.230137 0.113057 0)
(-0.224024 0.126127 0)
(-0.217492 0.138731 0)
(-0.210572 0.150807 0)
(-0.203293 0.162302 0)
(-0.195705 0.173172 0)
(-0.187859 0.183382 0)