/*--------------------------------*- C++ -*----------------------------------*\
| =========                 |                                                 |
| \\      /  F ield         | OpenFOAM: The Open Source CFD Toolbox           |
|  \\    /   O peration     | Version:  5.0                                   |
|   \\  /    A nd           | Web:      www.OpenFOAM.org                      |
|    \\/     M anipulation  |                                                 |
\*---------------------------------------------------------------------------*/
FoamFile
{
    version     2.0;
    format      ascii;
    class       surfaceScalarField;
    location    "0.4";
    object      alphaPhi10;
}
// * * * * * * * * * * * * * * * * * * * * * * * * * * * * * * * * * * * * * //

dimensions      [0 3 -1 0 0 0 0];

internalField   nonuniform List<scalar> 
3781
(
-3.24257e-06
3.24257e-06
-4.43253e-06
1.18996e-06
-3.71324e-06
-7.19289e-07
-2.06992e-06
-1.64331e-06
-4.39999e-08
-2.02592e-06
2.07059e-06
-2.11459e-06
4.16049e-06
-2.0899e-06
6.16254e-06
-2.00206e-06
8.05812e-06
-1.89558e-06
9.84941e-06
-1.79128e-06
1.15478e-05
-1.69842e-06
1.31681e-05
-1.62032e-06
1.47252e-05
-1.55703e-06
1.62321e-05
-1.50693e-06
1.76998e-05
-1.46768e-06
1.91365e-05
-1.43673e-06
2.05481e-05
-1.41158e-06
2.1938e-05
-1.38986e-06
2.33073e-05
-1.36936e-06
2.46553e-05
-1.34797e-06
2.59789e-05
-1.32365e-06
2.72733e-05
-1.29433e-06
2.85311e-05
-1.25782e-06
2.97428e-05
-1.21172e-06
3.08961e-05
-1.15327e-06
3.19752e-05
-1.07916e-06
3.29605e-05
-9.85252e-07
3.38266e-05
-8.66144e-07
3.4541e-05
-7.14381e-07
3.50588e-05
-5.17762e-07
3.53159e-05
-2.57068e-07
3.52076e-05
1.08206e-07
3.45852e-05
6.2249e-07
3.33436e-05
1.24158e-06
3.13595e-05
1.98405e-06
2.85054e-05
2.85412e-06
2.46768e-05
3.82856e-06
1.98348e-05
4.84202e-06
1.40543e-05
5.78056e-06
7.55462e-06
6.49965e-06
6.79159e-07
6.87546e-06
-6.01278e-06
6.93936e-06
-1.3133e-05
6.46079e-06
2.70541e-06
-2.01719e-06
5.25976e-06
-1.87745e-06
1.05022e-06
-8.72455e-07
-1.72428e-06
6.30749e-07
-3.14652e-06
2.40732e-06
-3.80249e-06
4.30839e-06
-4.01566e-06
6.21986e-06
-4.00137e-06
8.09436e-06
-3.87655e-06
9.90943e-06
-3.71065e-06
1.16593e-05
-3.54116e-06
1.33473e-05
-3.38644e-06
1.49809e-05
-3.2539e-06
1.65687e-05
-3.14479e-06
1.81189e-05
-3.05711e-06
1.96385e-05
-2.98727e-06
2.11328e-05
-2.93106e-06
2.26054e-05
-2.88419e-06
2.4058e-05
-2.84245e-06
2.54904e-05
-2.80183e-06
2.69009e-05
-2.75846e-06
2.82858e-05
-2.70849e-06
2.96394e-05
-2.64796e-06
3.09543e-05
-2.57268e-06
3.22205e-05
-2.47796e-06
3.34257e-05
-2.35843e-06
3.45542e-05
-2.20766e-06
3.55867e-05
-2.01777e-06
3.64993e-05
-1.77879e-06
3.72628e-05
-1.47785e-06
3.78426e-05
-1.09752e-06
3.82012e-05
-6.15669e-07
3.83083e-05
1.02053e-09
3.8134e-05
7.96837e-07
3.75756e-05
1.79996e-06
3.65187e-05
3.04098e-06
3.48283e-05
4.54451e-06
3.23473e-05
6.30957e-06
2.89077e-05
8.28157e-06
2.43692e-05
1.03191e-05
1.86942e-05
1.21747e-05
1.2053e-05
1.35167e-05
4.96133e-06
1.40986e-05
-1.04653e-06
1.27108e-05
6.79613e-06
-5.67273e-07
5.82703e-06
1.69623e-08
4.65978e-07
1.07458e-06
-2.7819e-06
2.50115e-06
-4.57308e-06
4.13668e-06
-5.43803e-06
5.8738e-06
-5.75278e-06
7.63879e-06
-5.76636e-06
9.39195e-06
-5.62971e-06
1.11134e-05
-5.43212e-06
1.27957e-05
-5.22338e-06
1.44382e-05
-5.02899e-06
1.60443e-05
-4.86001e-06
1.76187e-05
-4.71919e-06
1.91662e-05
-4.60464e-06
2.06911e-05
-4.5121e-06
2.21963e-05
-4.43629e-06
2.36837e-05
-4.37157e-06
2.51535e-05
-4.31232e-06
2.66047e-05
-4.25303e-06
2.80346e-05
-4.18833e-06
2.94389e-05
-4.11277e-06
3.08117e-05
-4.02072e-06
3.21451e-05
-3.90611e-06
3.34293e-05
-3.76217e-06
3.46519e-05
-3.58109e-06
3.57979e-05
-3.35362e-06
3.68487e-05
-3.06856e-06
3.7782e-05
-2.7121e-06
3.85712e-05
-2.267e-06
3.91852e-05
-1.71151e-06
3.95881e-05
-1.01857e-06
3.97434e-05
-1.54353e-07
3.96155e-05
9.24808e-07
3.91518e-05
2.26359e-06
3.82894e-05
3.90344e-06
3.69561e-05
5.87778e-06
3.50696e-05
8.19609e-06
3.25343e-05
1.08169e-05
2.92445e-05
1.36089e-05
2.51128e-05
1.63064e-05
2.01589e-05
1.84705e-05
1.47425e-05
1.9515e-05
9.33855e-06
1.82e-05
1.20197e-05
5.13819e-07
5.31321e-06
1.31708e-06
-3.3728e-07
2.51229e-06
-3.97711e-06
3.93825e-06
-5.99905e-06
5.49694e-06
-6.99672e-06
7.12323e-06
-7.37907e-06
8.77421e-06
-7.41734e-06
1.04248e-05
-7.28034e-06
1.20615e-05
-7.06877e-06
1.36778e-05
-6.83972e-06
1.52721e-05
-6.62322e-06
1.68449e-05
-6.43289e-06
1.83984e-05
-6.27263e-06
1.99346e-05
-6.14084e-06
2.14554e-05
-6.03294e-06
2.29621e-05
-5.94292e-06
2.44547e-05
-5.86419e-06
2.59324e-05
-5.79005e-06
2.73932e-05
-5.7138e-06
2.88336e-05
-5.62877e-06
3.0249e-05
-5.52816e-06
3.16331e-05
-5.40484e-06
3.29781e-05
-5.25105e-06
3.4274e-05
-5.05811e-06
3.55089e-05
-4.81601e-06
3.66683e-05
-4.51298e-06
3.77346e-05
-4.13491e-06
3.86873e-05
-3.66473e-06
3.95019e-05
-3.08167e-06
4.01508e-05
-2.36041e-06
4.06027e-05
-1.47041e-06
4.08237e-05
-3.75387e-07
4.07796e-05
9.68894e-07
4.04329e-05
2.61026e-06
3.97429e-05
4.59351e-06
3.86669e-05
6.9537e-06
3.71611e-05
9.70191e-06
3.51765e-05
1.28015e-05
3.26533e-05
1.61321e-05
2.95198e-05
1.94399e-05
2.57183e-05
2.22721e-05
2.13181e-05
2.39151e-05
1.64107e-05
2.31076e-05
1.79372e-05
1.04474e-06
4.26847e-06
2.20151e-06
-1.49405e-06
3.56519e-06
-5.34079e-06
5.03873e-06
-7.47259e-06
6.56576e-06
-8.52375e-06
8.11985e-06
-8.93315e-06
9.68594e-06
-8.98344e-06
1.12548e-05
-8.84915e-06
1.28204e-05
-8.63439e-06
1.43793e-05
-8.39868e-06
1.59299e-05
-8.17377e-06
1.74714e-05
-7.97444e-06
1.9004e-05
-7.80521e-06
2.05278e-05
-7.66463e-06
2.20428e-05
-7.54794e-06
2.35485e-05
-7.44865e-06
2.50438e-05
-7.35952e-06
2.65268e-05
-7.27302e-06
2.79946e-05
-7.18153e-06
2.94431e-05
-7.07733e-06
3.08674e-05
-6.95244e-06
3.2261e-05
-6.79843e-06
3.3616e-05
-6.60606e-06
3.49228e-05
-6.36492e-06
3.61698e-05
-6.06306e-06
3.73433e-05
-5.68648e-06
3.8427e-05
-5.21857e-06
3.94018e-05
-4.63956e-06
4.0246e-05
-3.92585e-06
4.0935e-05
-3.04939e-06
4.14418e-05
-1.97719e-06
4.17374e-05
-6.71003e-07
4.17925e-05
9.13725e-07
4.15782e-05
2.82465e-06
4.10654e-05
5.10627e-06
4.02265e-05
7.79258e-06
3.90343e-05
1.08941e-05
3.74581e-05
1.43777e-05
3.54548e-05
1.81354e-05
3.29567e-05
2.1938e-05
2.98639e-05
2.53648e-05
2.60714e-05
2.77077e-05
2.1406e-05
2.7773e-05
2.38283e-05
1.28356e-06
2.98491e-06
2.78293e-06
-2.99342e-06
4.33299e-06
-6.89086e-06
5.8706e-06
-9.01019e-06
7.38761e-06
-1.00408e-05
8.89347e-06
-1.0439e-05
1.03967e-05
-1.04867e-05
1.19019e-05
-1.03543e-05
1.34102e-05
-1.01427e-05
1.49215e-05
-9.90996e-06
1.64348e-05
-9.68704e-06
1.79489e-05
-9.48856e-06
1.94627e-05
-9.319e-06
2.09749e-05
-9.17684e-06
2.2484e-05
-9.05711e-06
2.39884e-05
-8.95301e-06
2.54857e-05
-8.8568e-06
2.6973e-05
-8.76037e-06
2.84469e-05
-8.65536e-06
2.99028e-05
-8.53323e-06
3.13354e-05
-8.38503e-06
3.27381e-05
-8.2012e-06
3.41033e-05
-7.9712e-06
3.54215e-05
-7.68315e-06
3.66818e-05
-7.32339e-06
3.78713e-05
-6.87599e-06
3.8975e-05
-6.32224e-06
3.99756e-05
-5.64015e-06
4.08537e-05
-4.80395e-06
4.15879e-05
-3.78365e-06
4.21554e-05
-2.54467e-06
4.25321e-05
-1.0477e-06
4.26942e-05
7.51622e-07
4.2619e-05
2.89987e-06
4.22851e-05
5.44023e-06
4.16724e-05
8.40525e-06
4.07609e-05
1.18056e-05
3.95252e-05
1.56133e-05
3.79244e-05
1.97362e-05
3.58839e-05
2.39785e-05
3.32726e-05
2.79761e-05
2.98811e-05
3.10992e-05
2.53539e-05
3.23002e-05
3.00476e-05
1.45896e-06
1.52595e-06
3.2193e-06
-4.75376e-06
4.91324e-06
-8.5848e-06
6.49916e-06
-1.05961e-05
8.00843e-06
-1.155e-05
9.47773e-06
-1.19083e-05
1.09326e-05
-1.19416e-05
1.23876e-05
-1.18093e-05
1.38498e-05
-1.16049e-05
1.53217e-05
-1.13818e-05
1.68033e-05
-1.11687e-05
1.82935e-05
-1.09788e-05
1.97905e-05
-1.08159e-05
2.12919e-05
-1.06782e-05
2.27952e-05
-1.05605e-05
2.42978e-05
-1.04556e-05
2.57964e-05
-1.03554e-05
2.72874e-05
-1.02514e-05
2.87666e-05
-1.01346e-05
3.02293e-05
-9.99591e-06
3.16698e-05
-9.82554e-06
3.30816e-05
-9.61303e-06
3.44572e-05
-9.34673e-06
3.57875e-05
-9.0135e-06
3.70624e-05
-8.59823e-06
3.82697e-05
-8.08336e-06
3.93959e-05
-7.44844e-06
4.04255e-05
-6.66968e-06
4.13413e-05
-5.71975e-06
4.21251e-05
-4.56744e-06
4.27578e-05
-3.1774e-06
4.32202e-05
-1.5101e-06
4.34937e-05
4.78126e-07
4.3561e-05
2.83256e-06
4.34061e-05
5.59514e-06
4.30137e-05
8.7976e-06
4.23672e-05
1.24521e-05
4.14426e-05
1.6538e-05
4.0197e-05
2.09818e-05
3.85486e-05
2.56269e-05
3.63436e-05
3.01811e-05
3.33065e-05
3.41364e-05
2.89536e-05
3.66531e-05
3.64771e-05
1.65355e-06
-1.27597e-07
3.5935e-06
-6.69371e-06
5.37292e-06
-1.03642e-05
6.97941e-06
-1.22026e-05
8.47386e-06
-1.30445e-05
9.91053e-06
-1.3345e-05
1.13253e-05
-1.33563e-05
1.27389e-05
-1.3223e-05
1.41624e-05
-1.30284e-05
1.56005e-05
-1.28199e-05
1.70542e-05
-1.26224e-05
1.85225e-05
-1.24471e-05
2.00033e-05
-1.22967e-05
2.14937e-05
-1.21687e-05
2.29905e-05
-1.20573e-05
2.44902e-05
-1.19552e-05
2.59888e-05
-1.1854e-05
2.74821e-05
-1.17447e-05
2.89655e-05
-1.1618e-05
3.04339e-05
-1.14643e-05
3.18815e-05
-1.12731e-05
3.33018e-05
-1.10334e-05
3.46876e-05
-1.07324e-05
3.60302e-05
-1.03562e-05
3.73203e-05
-9.88826e-06
3.85467e-05
-9.30981e-06
3.96972e-05
-8.5989e-06
4.07579e-05
-7.73039e-06
4.1714e-05
-6.67585e-06
4.25501e-05
-5.40352e-06
4.32508e-05
-3.87814e-06
4.38014e-05
-2.06072e-06
4.41884e-05
9.11912e-08
4.43994e-05
2.62153e-06
4.44232e-05
5.57133e-06
4.42485e-05
8.97225e-06
4.38617e-05
1.2839e-05
4.32405e-05
1.71591e-05
4.23435e-05
2.18788e-05
4.10884e-05
2.6882e-05
3.93144e-05
3.19551e-05
3.67165e-05
3.67342e-05
3.27327e-05
4.06369e-05
4.28121e-05
1.86427e-06
-1.99187e-06
3.9296e-06
-8.75905e-06
5.74949e-06
-1.21841e-05
7.35377e-06
-1.38069e-05
8.82604e-06
-1.45168e-05
1.02308e-05
-1.47497e-05
1.16093e-05
-1.47348e-05
1.29861e-05
-1.45998e-05
1.43747e-05
-1.4417e-05
1.57815e-05
-1.42267e-05
1.72086e-05
-1.40494e-05
1.86552e-05
-1.38937e-05
2.01191e-05
-1.37606e-05
2.1597e-05
-1.36466e-05
2.30854e-05
-1.35456e-05
2.458e-05
-1.34498e-05
2.60763e-05
-1.33504e-05
2.75698e-05
-1.32382e-05
2.90554e-05
-1.31036e-05
3.05276e-05
-1.29365e-05
3.19806e-05
-1.27262e-05
3.3408e-05
-1.24608e-05
3.48029e-05
-1.21273e-05
3.61572e-05
-1.17105e-05
3.74621e-05
-1.11932e-05
3.87077e-05
-1.05555e-05
3.9883e-05
-9.77419e-06
4.09758e-05
-8.82315e-06
4.19731e-05
-7.67322e-06
4.28624e-05
-6.29277e-06
4.36317e-05
-4.64743e-06
4.42706e-05
-2.69962e-06
4.47704e-05
-4.08651e-07
4.51241e-05
2.2679e-06
4.5325e-05
5.37038e-06
4.53664e-05
8.93085e-06
4.52387e-05
1.29668e-05
4.49247e-05
1.74731e-05
4.43902e-05
2.24133e-05
4.3565e-05
2.77072e-05
4.2306e-05
3.32142e-05
4.03287e-05
3.87115e-05
3.70771e-05
4.38886e-05
4.84198e-05
2.07491e-06
-4.06678e-06
4.2307e-06
-1.09148e-05
6.0656e-06
-1.4019e-05
7.65614e-06
-1.53974e-05
9.10285e-06
-1.59635e-05
1.04759e-05
-1.61227e-05
1.18195e-05
-1.60785e-05
1.31608e-05
-1.59411e-05
1.45151e-05
-1.57714e-05
1.58906e-05
-1.56021e-05
1.72899e-05
-1.54488e-05
1.8713e-05
-1.53168e-05
2.01576e-05
-1.52052e-05
2.16203e-05
-1.51094e-05
2.30971e-05
-1.50224e-05
2.45834e-05
-1.49361e-05
2.60743e-05
-1.48413e-05
2.75647e-05
-1.47286e-05
2.90493e-05
-1.45881e-05
3.05224e-05
-1.44096e-05
3.19782e-05
-1.41819e-05
3.34103e-05
-1.3893e-05
3.48121e-05
-1.3529e-05
3.6176e-05
-1.30744e-05
3.74943e-05
-1.25114e-05
3.87579e-05
-1.18191e-05
3.99572e-05
-1.09734e-05
4.10813e-05
-9.94728e-06
4.21191e-05
-8.71108e-06
4.30603e-05
-7.23395e-06
4.38962e-05
-5.48334e-06
4.46207e-05
-3.42407e-06
4.52299e-05
-1.01791e-06
4.57221e-05
1.77568e-06
4.60962e-05
4.99628e-06
4.63505e-05
8.67657e-06
4.64811e-05
1.28361e-05
4.64793e-05
1.7475e-05
4.63248e-05
2.25677e-05
4.5973e-05
2.80591e-05
4.53273e-05
3.38599e-05
4.41859e-05
3.98528e-05
4.21304e-05
4.59441e-05
5.23312e-05
2.30964e-06
-6.37642e-06
4.57925e-06
-1.31844e-05
6.45576e-06
-1.58955e-05
8.06035e-06
-1.7002e-05
9.50785e-06
-1.7411e-05
1.08735e-05
-1.74883e-05
1.2205e-05
-1.741e-05
1.35326e-05
-1.72686e-05
1.48742e-05
-1.71131e-05
1.62397e-05
-1.69675e-05
1.76328e-05
-1.68419e-05
1.90539e-05
-1.67378e-05
2.05008e-05
-1.66521e-05
2.19701e-05
-1.65786e-05
2.34572e-05
-1.65096e-05
2.49574e-05
-1.64362e-05
2.64651e-05
-1.63491e-05
2.7975e-05
-1.62384e-05
2.94811e-05
-1.60943e-05
3.09776e-05
-1.59061e-05
3.24584e-05
-1.56628e-05
3.39174e-05
-1.53519e-05
3.53478e-05
-1.49595e-05
3.67429e-05
-1.44695e-05
3.80954e-05
-1.38638e-05
3.93973e-05
-1.31211e-05
4.06402e-05
-1.22163e-05
4.18143e-05
-1.11214e-05
4.29097e-05
-9.80643e-06
4.39176e-05
-8.24188e-06
4.48324e-05
-6.39808e-06
4.56518e-05
-4.24351e-06
4.63774e-05
-1.74347e-06
4.7013e-05
1.14e-06
4.75638e-05
4.44549e-06
4.8034e-05
8.20634e-06
4.84268e-05
1.24434e-05
4.87434e-05
1.71583e-05
4.8982e-05
2.23292e-05
4.91318e-05
2.79093e-05
4.91628e-05
3.38288e-05
4.90082e-05
4.00074e-05
4.85377e-05
4.64147e-05
5.33104e-05
2.50425e-06
-8.88067e-06
4.86765e-06
-1.55478e-05
6.77939e-06
-1.78073e-05
8.39248e-06
-1.86151e-05
9.83174e-06
-1.88502e-05
1.11776e-05
-1.88341e-05
1.24825e-05
-1.87149e-05
1.37807e-05
-1.85669e-05
1.50934e-05
-1.84258e-05
1.64322e-05
-1.83064e-05
1.78022e-05
-1.82119e-05
1.9204e-05
-1.81397e-05
2.06358e-05
-1.80839e-05
2.20938e-05
-1.80367e-05
2.35735e-05
-1.79892e-05
2.50695e-05
-1.79322e-05
2.65762e-05
-1.78558e-05
2.80876e-05
-1.77498e-05
2.95976e-05
-1.76043e-05
3.11e-05
-1.74085e-05
3.25888e-05
-1.71515e-05
3.40576e-05
-1.68207e-05
3.55003e-05
-1.64022e-05
3.69105e-05
-1.58797e-05
3.82817e-05
-1.5235e-05
3.96074e-05
-1.44467e-05
4.08803e-05
-1.34892e-05
4.20918e-05
-1.23329e-05
4.32327e-05
-1.09473e-05
4.42956e-05
-9.3047e-06
4.5277e-05
-7.37955e-06
4.6179e-05
-5.14553e-06
4.70085e-05
-2.57291e-06
4.77759e-05
3.72616e-07
4.8493e-05
3.72837e-06
4.91707e-05
7.52864e-06
4.98191e-05
1.17951e-05
5.04495e-05
1.65279e-05
5.10773e-05
2.17014e-05
5.17235e-05
2.7263e-05
5.2417e-05
3.31353e-05
5.32027e-05
3.92218e-05
5.41827e-05
4.54346e-05
5.17794e-05
2.67098e-06
-1.15516e-05
5.1423e-06
-1.80192e-05
7.11036e-06
-1.97753e-05
8.74423e-06
-2.0249e-05
1.01786e-05
-2.02846e-05
1.15025e-05
-2.01581e-05
1.27761e-05
-1.99885e-05
1.40395e-05
-1.98303e-05
1.53178e-05
-1.97041e-05
1.66248e-05
-1.96133e-05
1.79664e-05
-1.95535e-05
1.93437e-05
-1.9517e-05
2.07549e-05
-1.94951e-05
2.21962e-05
-1.9478e-05
2.36628e-05
-1.94558e-05
2.5149e-05
-1.94185e-05
2.66489e-05
-1.93557e-05
2.81561e-05
-1.9257e-05
2.96641e-05
-1.91123e-05
3.11666e-05
-1.8911e-05
3.26573e-05
-1.86422e-05
3.41302e-05
-1.82936e-05
3.55792e-05
-1.78512e-05
3.69983e-05
-1.72988e-05
3.8382e-05
-1.66187e-05
3.97254e-05
-1.57901e-05
4.10228e-05
-1.47867e-05
4.22668e-05
-1.35769e-05
4.34481e-05
-1.21287e-05
4.45598e-05
-1.04164e-05
4.56004e-05
-8.42014e-06
4.65755e-05
-6.12064e-06
4.74975e-05
-3.49493e-06
4.8384e-05
-5.13885e-07
4.92541e-05
2.85824e-06
5.01254e-05
6.65742e-06
5.10136e-05
1.09068e-05
5.19374e-05
1.56041e-05
5.29237e-05
2.0715e-05
5.40132e-05
2.61736e-05
5.52658e-05
3.18827e-05
5.6772e-05
3.77156e-05
5.86837e-05
4.35229e-05
4.91598e-05
2.81184e-06
-1.43635e-05
5.42269e-06
-2.06299e-05
7.47361e-06
-2.18262e-05
9.13805e-06
-2.19133e-05
1.05669e-05
-2.17134e-05
1.18639e-05
-2.1455e-05
1.31e-05
-2.12245e-05
1.43229e-05
-2.10532e-05
1.5562e-05
-2.09431e-05
1.68327e-05
-2.0884e-05
1.81417e-05
-2.08623e-05
1.94901e-05
-2.08653e-05
2.08759e-05
-2.08809e-05
2.22954e-05
-2.08973e-05
2.37433e-05
-2.09036e-05
2.52139e-05
-2.0889e-05
2.67009e-05
-2.08425e-05
2.81975e-05
-2.07535e-05
2.9697e-05
-2.06116e-05
3.11927e-05
-2.04066e-05
3.26784e-05
-2.01277e-05
3.41479e-05
-1.9763e-05
3.55956e-05
-1.92987e-05
3.70157e-05
-1.87188e-05
3.84035e-05
-1.80064e-05
3.97559e-05
-1.71425e-05
4.10698e-05
-1.61005e-05
4.23389e-05
-1.48459e-05
4.35535e-05
-1.33433e-05
4.47062e-05
-1.1569e-05
4.57966e-05
-9.51046e-06
4.68332e-05
-7.15722e-06
4.78337e-05
-4.49544e-06
4.8823e-05
-1.5032e-06
4.9828e-05
1.8532e-06
5.08727e-05
5.6128e-06
5.19767e-05
9.80281e-06
5.31619e-05
1.44188e-05
5.44601e-05
1.94169e-05
5.59188e-05
2.47149e-05
5.76063e-05
3.01952e-05
5.96148e-05
3.57071e-05
6.20693e-05
4.10684e-05
4.60743e-05
2.93777e-06
-1.73013e-05
5.73692e-06
-2.34283e-05
7.88956e-06
-2.3978e-05
9.5815e-06
-2.36048e-05
1.09962e-05
-2.31276e-05
1.22586e-05
-2.27171e-05
1.34517e-05
-2.24172e-05
1.46309e-05
-2.2232e-05
1.58287e-05
-2.21404e-05
1.70616e-05
-2.21162e-05
1.8336e-05
-2.21361e-05
1.96528e-05
-2.21814e-05
2.101e-05
-2.22372e-05
2.24034e-05
-2.22898e-05
2.38276e-05
-2.23268e-05
2.52769e-05
-2.23372e-05
2.67447e-05
-2.23092e-05
2.82238e-05
-2.22315e-05
2.97074e-05
-2.20941e-05
3.11885e-05
-2.18866e-05
3.26608e-05
-2.15988e-05
3.41184e-05
-2.12197e-05
3.55558e-05
-2.07351e-05
3.69671e-05
-2.01292e-05
3.83482e-05
-1.93868e-05
3.96985e-05
-1.84921e-05
4.10178e-05
-1.74193e-05
4.23023e-05
-1.61299e-05
4.35413e-05
-1.4582e-05
4.47261e-05
-1.27536e-05
4.58565e-05
-1.06408e-05
4.69431e-05
-8.24376e-06
4.80076e-05
-5.55988e-06
4.9082e-05
-2.57758e-06
5.02014e-05
7.338e-07
5.13955e-05
4.41867e-06
5.26859e-05
8.51244e-06
5.40937e-05
1.30111e-05
5.56493e-05
1.78612e-05
5.73991e-05
2.29651e-05
5.94071e-05
2.81872e-05
6.17526e-05
3.33616e-05
6.45257e-05
3.82953e-05
4.27667e-05
3.07735e-06
-2.03786e-05
6.12029e-06
-2.64639e-05
8.35481e-06
-2.62057e-05
1.00429e-05
-2.52884e-05
1.14248e-05
-2.45061e-05
1.26458e-05
-2.39348e-05
1.37946e-05
-2.35623e-05
1.49318e-05
-2.33648e-05
1.60907e-05
-2.32943e-05
1.72873e-05
-2.33072e-05
1.85271e-05
-2.33693e-05
1.98102e-05
-2.34573e-05
2.1135e-05
-2.3554e-05
2.24968e-05
-2.36431e-05
2.38904e-05
-2.37113e-05
2.53101e-05
-2.37473e-05
2.67492e-05
-2.37385e-05
2.82006e-05
-2.36727e-05
2.96573e-05
-2.35405e-05
3.11126e-05
-2.33316e-05
3.256e-05
-2.30362e-05
3.39943e-05
-2.26443e-05
3.54108e-05
-2.21425e-05
3.6803e-05
-2.15131e-05
3.81669e-05
-2.07433e-05
3.95049e-05
-1.98236e-05
4.08209e-05
-1.87299e-05
4.21136e-05
-1.74187e-05
4.33703e-05
-1.5836e-05
4.4581e-05
-1.39631e-05
4.57491e-05
-1.18086e-05
4.68854e-05
-9.38009e-06
4.80094e-05
-6.6837e-06
4.91558e-05
-3.72361e-06
5.03705e-05
-4.80455e-07
5.16902e-05
3.09912e-06
5.31358e-05
7.06692e-06
5.47246e-05
1.14223e-05
5.64819e-05
1.61039e-05
5.84475e-05
2.09995e-05
6.06767e-05
2.59579e-05
6.32324e-05
3.0806e-05
6.61717e-05
3.53559e-05
3.93974e-05
3.34761e-06
-2.37263e-05
6.57263e-06
-2.96268e-05
8.75025e-06
-2.83279e-05
1.03614e-05
-2.68634e-05
1.16825e-05
-2.57981e-05
1.2855e-05
-2.50786e-05
1.39488e-05
-2.46227e-05
1.5033e-05
-2.441e-05
1.61351e-05
-2.43511e-05
1.72702e-05
-2.43905e-05
1.84427e-05
-2.44835e-05
1.96542e-05
-2.46042e-05
2.09054e-05
-2.47348e-05
2.21918e-05
-2.48539e-05
2.35086e-05
-2.49479e-05
2.48524e-05
-2.5007e-05
2.62168e-05
-2.50159e-05
2.7594e-05
-2.49607e-05
2.89797e-05
-2.48357e-05
3.03661e-05
-2.46274e-05
3.17476e-05
-2.43283e-05
3.31204e-05
-2.39303e-05
3.44789e-05
-2.34196e-05
3.58164e-05
-2.27786e-05
3.71234e-05
-2.19892e-05
3.84294e-05
-2.1076e-05
3.97614e-05
-2.00146e-05
4.1127e-05
-1.87455e-05
4.24742e-05
-1.71548e-05
4.37968e-05
-1.52672e-05
4.51161e-05
-1.31164e-05
4.64444e-05
-1.06992e-05
4.77607e-05
-7.99573e-06
4.90388e-05
-4.99904e-06
5.03476e-05
-1.78478e-06
5.17766e-05
1.67329e-06
5.33466e-05
5.49613e-06
5.50745e-05
9.6943e-06
5.69795e-05
1.41989e-05
5.90925e-05
1.88866e-05
6.14587e-05
2.35918e-05
6.41267e-05
2.8138e-05
6.71265e-05
3.23561e-05
3.60605e-05
4.27203e-06
-2.52917e-05
6.73926e-06
-2.42259e-05
8.52665e-06
-2.38693e-05
1.00308e-05
-2.47164e-05
1.12667e-05
-2.40042e-05
1.23025e-05
-2.25735e-05
1.31432e-05
-2.07434e-05
1.39365e-05
-1.91646e-05
1.46735e-05
-1.78054e-05
1.53837e-05
-1.66297e-05
1.60708e-05
-1.55735e-05
1.67555e-05
-1.46491e-05
1.74617e-05
-1.38863e-05
1.81725e-05
-1.32035e-05
1.88907e-05
-1.25882e-05
1.96283e-05
-1.20654e-05
2.0367e-05
-1.15911e-05
2.10892e-05
-1.11093e-05
2.18155e-05
-1.0654e-05
2.25306e-05
-1.01914e-05
2.32656e-05
-9.7335e-06
2.4066e-05
-9.33065e-06
2.49263e-05
-8.9866e-06
2.58368e-05
-8.6471e-06
2.68369e-05
-8.28808e-06
2.8343e-05
-8.12406e-06
3.0419e-05
-8.23335e-06
3.28573e-05
-8.61813e-06
3.49809e-05
-8.6678e-06
3.70253e-05
-8.32322e-06
3.93868e-05
-7.8056e-06
4.22229e-05
-7.2192e-06
4.53373e-05
-6.58328e-06
4.80639e-05
-5.57517e-06
4.99888e-05
-3.24957e-06
5.16492e-05
1.53381e-07
5.33736e-05
3.78616e-06
5.5203e-05
7.8618e-06
5.72034e-05
1.21984e-05
5.94018e-05
1.66882e-05
6.18354e-05
2.11582e-05
6.45437e-05
2.54296e-05
6.75346e-05
2.93653e-05
3.28021e-05
3.36121e-06
-3.00503e-07
2.5325e-06
-1.87993e-08
3.52482e-06
-7.58813e-10
4.50603e-06
-2.30036e-07
4.92829e-06
-9.18994e-09
4.76845e-06
-4.39813e-10
4.40424e-06
-2.41852e-11
4.15535e-06
-1.48493e-12
3.90878e-06
-9.75489e-14
3.67043e-06
1.15204e-15
3.43931e-06
1.05589e-14
3.24244e-06
2.08491e-11
3.08435e-06
6.90815e-11
2.93412e-06
9.04761e-11
2.80582e-06
1.05106e-10
2.70787e-06
7.99315e-11
2.61395e-06
4.877e-11
2.51136e-06
2.69719e-11
2.42144e-06
1.43447e-11
2.32759e-06
1.25238e-10
2.25398e-06
1.27421e-10
2.231e-06
7.18305e-11
2.24673e-06
3.0475e-11
2.28192e-06
1.17162e-11
2.36383e-06
5.37568e-12
2.75739e-06
6.65616e-12
3.58843e-06
7.46116e-12
4.82012e-06
5.92773e-12
5.84751e-06
3.45375e-12
6.94375e-06
2.38546e-12
8.71717e-06
2.61155e-12
1.21572e-05
2.80668e-12
1.90981e-05
1.69421e-12
3.06227e-05
-2.17917e-07
4.25171e-05
-1.26781e-06
4.98105e-05
-8.25397e-07
5.3032e-05
1.69973e-06
5.51417e-05
5.75578e-06
5.72562e-05
1.00851e-05
5.9493e-05
1.44528e-05
6.19359e-05
1.87147e-05
6.46313e-05
2.27342e-05
6.75658e-05
2.64307e-05
2.96481e-05
1.95839e-08
6.15748e-16
7.84667e-10
3.30417e-16
2.58543e-11
1.06955e-16
9.73222e-09
2.08449e-17
4.65951e-10
5.7076e-18
2.57795e-11
5.64925e-18
1.59355e-12
3.33488e-16
1.07736e-13
8.84311e-16
7.69101e-15
2.49646e-15
-7.73412e-16
1.7569e-14
-7.55416e-15
8.98004e-14
-1.58118e-11
9.37494e-11
-5.53343e-11
2.17556e-10
-7.6362e-11
2.61674e-10
-9.33277e-11
2.26526e-10
-7.45936e-11
1.5973e-10
-4.78145e-11
9.7298e-11
-2.77845e-11
5.40693e-11
-1.55354e-11
2.90426e-11
-1.42749e-10
1.60356e-11
-1.53089e-10
9.69907e-12
-9.11493e-11
6.67084e-12
-4.09536e-11
5.02099e-12
-1.67337e-11
4.12054e-12
-8.19734e-12
3.46063e-12
-1.08994e-11
2.84789e-12
-1.32144e-11
2.31437e-12
-1.14667e-11
1.97297e-12
-7.40501e-12
2.32801e-12
-5.78676e-12
4.19054e-12
-7.36337e-12
7.66512e-12
-9.54282e-12
1.1308e-11
-7.36129e-12
1.2769e-11
6.52504e-08
1.08474e-11
4.32342e-06
5.35725e-12
2.30752e-05
6.67946e-13
4.56455e-05
6.49261e-08
5.36471e-05
2.57805e-06
5.69869e-05
6.8232e-06
5.94486e-05
1.19935e-05
6.19458e-05
1.62196e-05
6.45973e-05
2.00822e-05
6.74323e-05
2.35952e-05
2.66232e-05
-5.06143e-17
6.63518e-16
-6.06013e-17
5.04456e-16
-2.36561e-17
1.29559e-16
-5.10413e-18
4.03009e-17
-1.82639e-18
1.31297e-17
-2.23937e-18
1.08235e-17
-1.58194e-16
9.09896e-16
-4.83503e-16
1.66e-15
-1.52991e-15
5.30399e-15
-1.18283e-14
2.89415e-14
-6.54775e-14
1.31602e-13
-7.33063e-11
8.10291e-11
-1.81198e-10
1.61285e-10
-2.31013e-10
1.82728e-10
-2.11275e-10
1.54476e-10
-1.57094e-10
1.07855e-10
-1.00801e-10
6.62204e-11
-5.89842e-11
3.79654e-11
-3.33721e-11
2.18374e-11
-1.9423e-11
1.36814e-11
-1.24004e-11
9.81353e-12
-9.02319e-12
7.9186e-12
-7.20585e-12
6.81038e-12
-6.2925e-12
5.9436e-12
-5.64534e-12
5.10555e-12
-4.99611e-12
4.2632e-12
-4.40689e-12
3.51876e-12
-4.11639e-12
3.03143e-12
-5.37083e-12
3.47357e-12
-1.08264e-11
6.04234e-12
-2.2574e-11
1.12246e-11
-3.87804e-11
1.75723e-11
-5.21223e-11
2.2033e-11
-5.41045e-11
2.1715e-11
-3.89835e-11
1.61764e-11
-1.05502e-11
1.12476e-11
1.84696e-06
3.2757e-12
1.72343e-05
2.91611e-08
4.93866e-05
8.14502e-07
5.71565e-05
6.67747e-06
6.15676e-05
1.18295e-05
6.45776e-05
1.70665e-05
6.73926e-05
2.07817e-05
7.02722e-05
2.37432e-05
2.61731e-05
1.1706e-16
4.69225e-16
2.94705e-18
4.18488e-16
-1.53698e-17
8.49879e-17
-7.59358e-18
2.59903e-17
-3.57774e-18
1.08722e-17
-3.95592e-18
1.40981e-17
-4.1135e-16
1.03041e-15
-8.874e-16
1.7408e-15
-3.23354e-15
4.83268e-15
-1.96231e-14
2.47424e-14
-9.75227e-14
9.80744e-14
-6.47943e-11
3.0823e-13
-1.37943e-10
7.40591e-13
-1.66148e-10
1.37715e-12
-1.48683e-10
2.13137e-12
-1.09587e-10
2.9679e-12
-7.09146e-11
3.95662e-12
-4.28198e-11
5.03005e-12
-2.59438e-11
6.03036e-12
-1.71343e-11
6.81827e-12
-1.29753e-11
7.29592e-12
-1.10782e-11
7.41049e-12
-1.01092e-11
7.16722e-12
-9.39055e-12
6.62253e-12
-8.62364e-12
5.86101e-12
-7.75145e-12
4.99354e-12
-6.94884e-12
4.17187e-12
-6.56141e-12
3.57075e-12
-8.31492e-12
3.72337e-12
-1.61879e-11
5.57177e-12
-3.42325e-11
9.68009e-12
-6.25312e-11
1.5261e-11
-9.4719e-11
2.00451e-11
-1.20759e-10
2.15497e-11
-1.31887e-10
1.88913e-11
-1.19481e-10
1.37747e-11
-8.00925e-11
4.56628e-12
7.46219e-08
4.21182e-10
1.83044e-06
2.10102e-08
1.21437e-05
1.36611e-07
4.52647e-05
6.75126e-07
6.09703e-05
9.05463e-06
6.66168e-05
1.51512e-05
7.02065e-05
2.01363e-05
2.32036e-05
6.73904e-17
1.79199e-16
2.61405e-18
8.68518e-17
-7.73772e-18
2.10784e-17
-4.52379e-18
8.17692e-18
-2.79658e-18
6.75497e-18
-4.91718e-18
1.54505e-17
-4.52959e-16
6.29259e-16
-9.17052e-16
1.05439e-15
-2.93607e-15
2.26943e-15
-1.68597e-14
8.9685e-15
-7.34706e-14
3.17651e-14
-2.50171e-13
1.01347e-13
-6.44643e-13
2.74032e-13
-1.27663e-12
6.03422e-13
-2.09378e-12
1.13078e-12
-3.07927e-12
1.88526e-12
-4.32655e-12
2.85403e-12
-5.7912e-12
3.95607e-12
-7.30997e-12
5.0499e-12
-8.70867e-12
5.97631e-12
-9.83353e-12
6.60634e-12
-1.05628e-11
6.87121e-12
-1.08347e-11
6.76844e-12
-1.0655e-11
6.34919e-12
-1.00847e-11
5.69625e-12
-9.25162e-12
4.91354e-12
-8.39356e-12
4.1275e-12
-7.87329e-12
3.47495e-12
-9.088e-12
3.19407e-12
-1.5258e-11
3.64622e-12
-3.03331e-11
5.08145e-12
-5.62864e-11
7.29371e-12
-9.09558e-11
9.49331e-12
-1.27995e-10
1.06301e-11
-1.58897e-10
9.985e-12
-1.75153e-10
7.35711e-12
-1.74599e-10
2.83123e-12
-5.41105e-11
-6.98952e-13
2.05007e-08
4.51776e-10
1.54269e-07
3.70493e-09
2.13175e-06
6.0886e-08
1.38499e-05
2.52521e-07
4.32751e-05
8.40572e-07
6.52542e-05
9.36696e-06
1.64985e-05
5.34356e-18
2.20196e-18
-5.97512e-19
2.76315e-18
-2.05695e-18
2.03523e-18
-1.45801e-18
2.35679e-18
-1.75489e-18
5.08182e-18
-5.35654e-18
1.58649e-17
-2.73893e-16
1.94617e-16
-5.5042e-16
3.32858e-16
-1.37111e-15
3.83694e-16
-6.10263e-15
4.37679e-16
-2.38512e-14
5.72739e-16
-8.27007e-14
7.24378e-15
-2.40369e-13
5.44465e-14
-5.64563e-13
2.11399e-13
-1.12222e-12
5.59364e-13
-1.977e-12
1.14877e-12
-3.15457e-12
1.96506e-12
-4.60286e-12
2.92316e-12
-6.18345e-12
3.89079e-12
-7.70632e-12
4.72729e-12
-8.9836e-12
5.32071e-12
-9.87476e-12
5.61015e-12
-1.03096e-11
5.58969e-12
-1.02892e-11
5.29818e-12
-9.87087e-12
4.80217e-12
-9.1656e-12
4.18252e-12
-8.3558e-12
3.52744e-12
-7.70577e-12
2.92367e-12
-7.8448e-12
2.44149e-12
-1.00673e-11
2.11831e-12
-1.61097e-11
1.94836e-12
-2.73632e-11
1.88186e-12
-4.40227e-11
1.83678e-12
-6.46463e-11
1.72475e-12
-8.62951e-11
1.47847e-12
-1.05289e-10
1.05544e-12
-1.18537e-10
4.63164e-13
-1.27607e-10
-1.28752e-12
3.06275e-10
1.0992e-11
3.92243e-09
1.03475e-10
6.40893e-08
2.33619e-09
3.06413e-07
1.33554e-08
1.86772e-06
7.42073e-08
1.32011e-05
3.52752e-07
9.17127e-07
5.3466e-20
1.11769e-18
-1.0469e-19
1.43259e-18
-2.30813e-19
9.55754e-19
-4.45938e-19
1.49677e-18
-1.35835e-18
4.54715e-18
-5.54326e-18
1.56345e-17
-8.43948e-17
3.57484e-17
-1.72199e-16
6.53222e-17
-2.29462e-16
1.02512e-16
-2.95105e-16
1.53156e-16
-4.26968e-16
2.456e-16
-5.88166e-15
4.00433e-15
-4.76133e-14
3.28052e-14
-1.9748e-13
1.33982e-13
-5.5485e-13
3.67021e-13
-1.20483e-12
7.73031e-13
-2.17294e-12
1.34785e-12
-3.40265e-12
2.03512e-12
-4.76529e-12
2.74151e-12
-6.09466e-12
3.36465e-12
-7.23008e-12
3.82052e-12
-8.05149e-12
4.06069e-12
-8.49721e-12
4.07645e-12
-8.5642e-12
3.8925e-12
-8.29616e-12
3.55503e-12
-7.77271e-12
3.1198e-12
-7.10734e-12
2.64304e-12
-6.44688e-12
2.17466e-12
-5.96032e-12
1.75318e-12
-5.81411e-12
1.40283e-12
-6.14089e-12
1.13263e-12
-7.01298e-12
9.37028e-13
-8.42648e-12
7.97781e-13
-1.02945e-11
6.88157e-13
-1.24487e-11
5.77571e-13
-1.46625e-11
4.35809e-13
-1.66787e-11
2.42576e-13
-1.85619e-11
-1.3865e-14
-9.47117e-12
-3.6469e-13
8.88561e-11
4.53955e-12
2.16922e-09
7.64691e-11
1.55124e-08
5.50874e-10
8.83246e-08
3.8036e-09
4.25444e-07
2.33104e-08
8.66756e-08
-3.25729e-21
3.87343e-19
-8.80408e-20
5.3061e-19
-1.24187e-19
3.82461e-19
-3.00735e-19
1.06637e-18
-1.24896e-18
4.16161e-18
-5.49884e-18
1.49872e-17
-1.54035e-17
3.42781e-17
-3.33315e-17
6.01129e-17
-6.02655e-17
9.32025e-17
-1.01437e-16
1.42247e-16
-1.7998e-16
2.30095e-16
-3.20069e-15
2.45597e-15
-2.82856e-14
1.95819e-14
-1.23576e-13
8.09012e-14
-3.59853e-13
2.24631e-13
-8.02048e-13
4.78878e-13
-1.47524e-12
8.43623e-13
-2.34544e-12
1.2849e-12
-3.32446e-12
1.74362e-12
-4.29405e-12
2.15333e-12
-5.13713e-12
2.4583e-12
-5.76376e-12
2.62538e-12
-6.12523e-12
2.64731e-12
-6.21527e-12
2.53897e-12
-6.06207e-12
2.32968e-12
-5.71691e-12
2.05488e-12
-5.24448e-12
1.74918e-12
-4.71588e-12
1.44173e-12
-4.20328e-12
1.15406e-12
-3.77483e-12
9.0002e-13
-3.49003e-12
6.86879e-13
-3.39611e-12
5.16506e-13
-3.52577e-12
3.86288e-13
-3.89505e-12
2.89867e-13
-4.50144e-12
2.17797e-13
-5.32339e-12
1.58498e-13
-6.31835e-12
1.00215e-13
-7.42274e-12
3.24389e-14
-8.21795e-12
-1.83107e-13
-1.88513e-12
-1.1054e-13
6.89977e-11
4.1907e-12
5.97546e-10
2.28578e-11
4.05883e-09
1.73278e-10
2.79873e-08
1.30025e-09
5.41653e-09
-7.53674e-21
2.7692e-20
-4.2149e-20
1.27716e-19
-5.49236e-20
1.85781e-19
-2.23898e-19
9.0748e-19
-1.16074e-18
3.88155e-18
-5.25612e-18
1.41282e-17
-1.45532e-17
3.19294e-17
-3.00019e-17
5.54045e-17
-5.33832e-17
8.61009e-17
-9.16517e-17
1.34003e-16
-1.64044e-16
2.22043e-16
-1.91159e-15
1.48844e-15
-1.64625e-14
1.1064e-14
-7.28507e-14
4.57103e-14
-2.15281e-13
1.2776e-13
-4.86131e-13
2.74106e-13
-9.04104e-13
4.85381e-13
-1.45068e-12
7.42168e-13
-2.07184e-12
1.00997e-12
-2.69287e-12
1.24971e-12
-3.23837e-12
1.42854e-12
-3.64953e-12
1.52696e-12
-3.8937e-12
1.54084e-12
-3.96562e-12
1.47907e-12
-3.88245e-12
1.359e-12
-3.67566e-12
1.20136e-12
-3.38291e-12
1.02619e-12
-3.04172e-12
8.50175e-13
-2.6858e-12
6.85537e-13
-2.34362e-12
5.39986e-13
-2.03842e-12
4.17368e-13
-1.7891e-12
3.18446e-13
-1.6113e-12
2.41605e-13
-1.5181e-12
1.83463e-13
-1.52028e-12
1.39398e-13
-1.6259e-12
1.04081e-13
-1.83916e-12
7.21026e-14
-2.15905e-12
3.8357e-14
-2.67104e-12
-4.49516e-15
-2.82375e-12
-1.02039e-13
1.24569e-12
7.05563e-14
2.20681e-11
1.69443e-12
1.90296e-10
8.17649e-12
1.43072e-09
6.89872e-11
3.15929e-10
-9.89499e-22
-6.13392e-20
-1.18392e-20
1.72016e-20
-2.83616e-20
1.36994e-19
-1.94569e-19
8.27582e-19
-1.08077e-18
3.60188e-18
-4.87387e-18