/*--------------------------------*- C++ -*----------------------------------*\
| =========                 |                                                 |
| \\      /  F ield         | OpenFOAM: The Open Source CFD Toolbox           |
|  \\    /   O peration     | Version:  5.0                                   |
|   \\  /    A nd           | Web:      www.OpenFOAM.org                      |
|    \\/     M anipulation  |                                                 |
\*---------------------------------------------------------------------------*/
FoamFile
{
    version     2.0;
    format      ascii;
    class       volScalarField;
    location    "0.4";
    object      epsilon;
}
// * * * * * * * * * * * * * * * * * * * * * * * * * * * * * * * * * * * * * //

dimensions      [0 2 -3 0 0 0 0];

internalField   nonuniform List<scalar> 
1935
(
0.0308506
0.0791906
0.140939
0.206737
0.266649
0.32609
0.381864
0.438061
0.496255
0.557688
0.623195
0.693191
0.767711
0.846473
0.928951
1.01444
1.10212
1.19109
1.28039
1.36904
1.45604
1.54035
1.62092
1.69668
1.76651
1.82927
1.88379
1.92884
1.9631
1.98506
1.99264
1.98494
1.96974
1.94177
1.89844
1.8386
1.76222
1.67077
1.56747
1.45671
1.33924
1.19232
1.05371
0.902506
0.04707
0.0584667
0.0847984
0.112511
0.137304
0.159247
0.179538
0.199371
0.219554
0.240682
0.26316
0.287222
0.31296
0.340348
0.369264
0.399518
0.430862
0.463015
0.495668
0.528496
0.561163
0.593326
0.624638
0.654753
0.683329
0.710036
0.734563
0.756634
0.776028
0.792605
0.806425
0.819006
0.833922
0.850934
0.870683
0.894458
0.923984
0.961145
1.0073
1.06106
1.11078
1.12076
1.05061
0.86492
0.0568637
0.0614694
0.082425
0.102392
0.120146
0.135953
0.150465
0.164382
0.178272
0.192566
0.207562
0.223445
0.240304
0.25815
0.276937
0.296567
0.31691
0.337805
0.359074
0.380527
0.40196
0.42317
0.443949
0.464093
0.483409
0.501723
0.518893
0.534827
0.549512
0.563055
0.575787
0.588611
0.603571
0.62166
0.644422
0.673928
0.712829
0.764258
0.831279
0.914677
1.00586
1.07296
1.07307
1.0056
0.0675011
0.0709579
0.0875551
0.103384
0.117809
0.131017
0.143376
0.155302
0.167168
0.179268
0.191811
0.204934
0.218704
0.233138
0.24821
0.263858
0.279993
0.296506
0.313273
0.330156
0.347011
0.363691
0.380047
0.395938
0.411234
0.425829
0.439655
0.452701
0.465045
0.476895
0.488671
0.501172
0.515855
0.533991
0.557246
0.587722
0.627975
0.680908
0.749313
0.834231
0.93029
1.01765
1.07207
1.11457
0.0813942
0.0824073
0.0953951
0.107949
0.119891
0.13135
0.142478
0.153465
0.164501
0.175749
0.187333
0.199332
0.211789
0.224709
0.238071
0.251827
0.265911
0.28024
0.294719
0.309242
0.323698
0.337974
0.351957
0.365541
0.378637
0.39118
0.403147
0.414578
0.425606
0.436496
0.447709
0.460012
0.474623
0.492864
0.51637
0.54713
0.587455
0.639839
0.706555
0.788597
0.88331
0.981832
1.07941
1.21395
0.0956595
0.0935681
0.103621
0.113535
0.123523
0.133673
0.143972
0.154435
0.165106
0.176036
0.187269
0.198832
0.210735
0.222968
0.235506
0.248306
0.261312
0.274457
0.287664
0.300848
0.313922
0.326794
0.339377
0.351593
0.363379
0.374701
0.38557
0.396061
0.406343
0.416719
0.427674
0.439954
0.454659
0.473101
0.49685
0.527774
0.567985
0.619697
0.684927
0.764948
0.859583
0.968233
1.10105
1.3117
0.109233
0.1036
0.111116
0.118999
0.12754
0.136744
0.14648
0.156642
0.167167
0.178023
0.189189
0.200647
0.212376
0.224348
0.236528
0.248872
0.261328
0.273839
0.286339
0.298759
0.311026
0.323068
0.334816
0.346213
0.357217
0.36782
0.378057
0.388029
0.397934
0.408096
0.419016
0.431423
0.446343
0.465061
0.489083
0.520182
0.560342
0.611661
0.676186
0.755793
0.852613
0.972152
1.13547
1.41137
0.123006
0.11273
0.117725
0.124004
0.131498
0.140042
0.149402
0.159392
0.169881
0.180779
0.192016
0.203537
0.215293
0.227239
0.239328
0.25151
0.263737
0.275951
0.288098
0.300117
0.311947
0.323531
0.334815
0.345759
0.356339
0.366565
0.376492
0.386241
0.39603
0.406198
0.417253
0.429907
0.445134
0.464182
0.488503
0.5198
0.559996
0.611188
0.675639
0.756015
0.856574
0.987555
1.17863
1.51488
0.139114
0.121588
0.123788
0.128664
0.13534
0.14339
0.152478
0.162359
0.172858
0.183843
0.19521
0.206875
0.218765
0.230816
0.242971
0.255174
0.267373
0.279513
0.291542
0.303407
0.315058
0.326446
0.337532
0.348288
0.358706
0.36881
0.37867
0.388424
0.398298
0.408644
0.419968
0.432968
0.448575
0.467984
0.492615
0.524114
0.564374
0.615549
0.680193
0.761772
0.866402
1.00812
1.22415
1.61976
0.156747
0.130594
0.129741
0.133249
0.13918
0.146787
0.155626
0.165404
0.175911
0.186986
0.198496
0.210333
0.222404
0.234631
0.246943
0.259278
0.271579
0.283792
0.295866
0.307754
0.319412
0.3308
0.341889
0.352661
0.363121
0.373305
0.383294
0.393234
0.40336
0.414025
0.425731
0.43916
0.455204
0.474998
0.499934
0.531606
0.571878
0.622962
0.687655
0.770066
0.877673
1.02716
1.26161
1.7085
0.176401
0.140112
0.135985
0.138069
0.143211
0.150334
0.158884
0.168522
0.179005
0.190143
0.20178
0.213785
0.226049
0.238478
0.250994
0.263526
0.276012
0.288397
0.300631
0.31267
0.324474
0.336011
0.347259
0.358211
0.368881
0.379315
0.3896
0.399887
0.410411
0.421523
0.433716
0.447651
0.464184
0.484388
0.509617
0.541407
0.581574
0.632331
0.696594
0.778794
0.886995
1.03856
1.27631
1.72113
0.197629
0.15033
0.142853
0.143411
0.147647
0.154182
0.162361
0.171791
0.182193
0.193346
0.20507
0.217213
0.229652
0.242282
0.255014
0.267773
0.280492
0.293114
0.305588
0.317871
0.329928
0.341734
0.353271
0.364541
0.375565
0.386398
0.397131
0.407913
0.418975
0.430658
0.443442
0.457964
0.47504
0.495681
0.521186
0.553021
0.592917
0.643007
0.706147
0.786701
0.892424
1.03914
1.263
1.65522
0.219121
0.161158
0.150533
0.149477
0.152663
0.158483
0.166191
0.175333
0.185584
0.196688
0.208438
0.220666
0.233236
0.246035
0.258967
0.271951
0.284919
0.297808
0.31057
0.323162
0.335551
0.347716
0.359646
0.371347
0.382849
0.39421
0.405527
0.416942
0.428675
0.441051
0.45453
0.469721
0.4874
0.50852
0.534283
0.566092
0.605549
0.654621
0.715934
0.793455
0.893963
1.03039
1.22958
1.55061
0.239143
0.172516
0.15922
0.15648
0.158468
0.163453
0.170595
0.179367
0.189388
0.200361
0.212057
0.224295
0.236928
0.249838
0.262925
0.276107
0.289311
0.302474
0.315546
0.328484
0.34126
0.353853
0.366257
0.378483
0.390567
0.402573
0.414599
0.426779
0.439315
0.452512
0.466802
0.48276
0.501116
0.522767
0.548792
0.580529
0.619414
0.667177
0.726101
0.799552
0.893046
1.01637
1.18789
1.44281
0.255943
0.18454
0.169146
0.164645
0.165322
0.169386
0.175886
0.184206
0.193902
0.204643
0.216181
0.228325
0.240927
0.253865
0.267039
0.280365
0.293768
0.307187
0.320568
0.33387
0.347064
0.360135
0.373079
0.38591
0.398667
0.411422
0.424273
0.437348
0.450828
0.464991
0.480232
0.497084
0.516221
0.538469
0.564805
0.59646
0.634694
0.680965
0.737144
0.805936
0.891589
1.00114
1.14649
1.34748
0.269099
0.197911
0.180599
0.174232
0.173568
0.176684
0.182478
0.190244
0.199488
0.209857
0.221094
0.233009
0.245454
0.258309
0.271474
0.284865
0.298409
0.312042
0.325711
0.339375
0.353006
0.36659
0.380127
0.393635
0.407154
0.420759
0.434552
0.448657
0.463238
0.47854
0.494916
0.512838
0.532912
0.555882
0.582622
0.614217
0.651779
0.696481
0.749774
0.813721
0.891454
0.987842
1.11031
1.26957
0.282459
0.214281
0.193971
0.185603
0.18368
0.185854
0.190856
0.197916
0.206522
0.216323
0.227072
0.238587
0.250723
0.263361
0.276402
0.289764
0.303374
0.31717
0.331096
0.345112
0.35919
0.373319
0.387502
0.40176
0.416136
0.4307
0.445553
0.460827
0.476681
0.493327
0.511059
0.530273
0.551485
0.575343
0.602628
0.634228
0.671169
0.714343
0.764797
0.824027
0.894247
0.978747
1.08202
1.20965
0.308879
0.237528
0.210367
0.199614
0.196449
0.197607
0.201644
0.207764
0.21548
0.224476
0.234526
0.245459
0.257131
0.269422
0.282232
0.29548
0.309093
0.323009
0.33717
0.351535
0.366076
0.380784
0.395668
0.410758
0.426095
0.441735
0.457772
0.47436
0.491676
0.5099
0.52924
0.549986
0.572532
0.597371
0.625159
0.656794
0.693208
0.735048
0.782944
0.837869
0.901279
0.975383
1.06284
1.16652
0.374297
0.275485
0.232724
0.218095
0.213159
0.212949
0.215693
0.220524
0.227026
0.234939
0.244063
0.254234
0.265298
0.277127
0.28962
0.302687
0.316258
0.330267
0.344655
0.35938
0.374414
0.389745
0.405394
0.421408
0.437833
0.454693
0.472074
0.49017
0.509204
0.529303
0.550555
0.573124
0.597254
0.623157
0.651111
0.682506
0.71814
0.758719
0.80453
0.855904
0.913466
0.978695
1.05314
1.13836
0.505756
0.3385
0.263888
0.242868
0.235051
0.232845
0.233795
0.236841
0.241692
0.248162
0.256066
0.265233
0.275489
0.286693
0.298731
0.311505
0.324941
0.338974
0.353538
0.368592
0.384114
0.4001
0.416585
0.433639
0.451322
0.469666
0.488746
0.508764
0.529952
0.552372
0.575962
0.600758
0.627
0.654671
0.682187
0.712923
0.747378
0.78638
0.82996
0.87824
0.931041
0.988924
1.05263
1.12324
0.664199
0.368565
0.297205
0.269372
0.257464
0.253246
0.252258
0.253418
0.256459
0.26125
0.267642
0.275481
0.284606
0.294872
0.30616
0.318371
0.331422
0.345236
0.35975
0.374926
0.390753
0.407243
0.424431
0.442392
0.461235
0.481084
0.502009
0.524071
0.547362
0.571931
0.597689
0.624544
0.652721
0.682926
0.714576
0.748847
0.783861
0.82103
0.86158
0.9067
0.954703
1.00563
1.06034
1.11918
1.18203
0.799589
0.397691
0.321205
0.288367
0.275335
0.270465
0.268486
0.268386
0.269965
0.2732
0.278042
0.284402
0.292167
0.301212
0.311421
0.32269
0.334925
0.348046
0.361991
0.37672
0.392224
0.40852
0.425645
0.443679
0.462763
0.483048
0.504627
0.527565
0.551995
0.578103
0.606022
0.635819
0.667471
0.700947
0.737593
0.776305
0.817733
0.860606
0.902101
0.945789
0.987222
1.03025
1.0766
1.12466
1.17509
0.828358
0.396632
0.329767
0.301397
0.290423
0.286112
0.284014
0.283174
0.283596
0.285444
0.288814
0.29371
0.300076
0.307817
0.316819
0.326972
0.338179
0.350356
0.363441
0.377392
0.392192
0.407859
0.424437
0.44202
0.460758
0.480816
0.502324
0.525416
0.550312
0.577335
0.606794
0.638936
0.673793
0.711121
0.750729
0.792203
0.837848
0.886125
0.936029
0.987751
1.02862
1.06619
1.10456
1.14082
1.17961
0.761243
0.372922
0.326685
0.308779
0.300997
0.297416
0.295354
0.294159
0.293913
0.294856
0.297165
0.300919
0.306119
0.312705
0.320579
0.329636
0.339783
0.35094
0.363048
0.376062
0.389967
0.404776
0.420546
0.437379
0.455424
0.474854
0.49584
0.518585
0.543389
0.570649
0.600767
0.634047
0.670599
0.710206
0.752551
0.797499
0.845596
0.89476
0.947585
1.00344
1.05704
1.10513
1.14397
1.16913
1.19737
0.692296
0.357321
0.322061
0.31072
0.305543
0.302861
0.301199
0.300172
0.29987
0.300525
0.302338
0.305433
0.309853
0.315575
0.322532
0.330639
0.339815
0.349991
0.361112
0.373142
0.386065
0.399901
0.414712
0.430603
0.447722
0.46625
0.486387
0.508388
0.532595
0.559432
0.589323
0.622591
0.659375
0.699586
0.743049
0.789713
0.839461
0.891231
0.945611
1.00153
1.05733
1.11008
1.15866
1.19672
1.22524
0.649153
0.354362
0.319894
0.30985
0.305499
0.303303
0.302115
0.30157
0.301669
0.302559
0.304406
0.307331
0.311399
0.316617
0.32295
0.330337
0.338719
0.348041
0.35826
0.369348
0.3813
0.394142
0.407938
0.422797
0.438867
0.456332
0.475414
0.496393
0.519629
0.545541
0.574545
0.606972
0.642997
0.682626
0.725772
0.772351
0.822187
0.874826
0.930187
0.98722
1.04403
1.09763
1.14832
1.19394
1.23136
0.634185
0.361387
0.320504
0.307816
0.302507
0.300144
0.299266
0.29929
0.300031
0.301496
0.303764
0.30692
0.311021
0.316087
0.322107
0.329045
0.336862
0.345522
0.354995
0.365266
0.376343
0.388258
0.401083
0.414927
0.429939
0.446308
0.464265
0.484102
0.506176
0.53089
0.558647
0.58978
0.624505
0.662891
0.704901
0.750434
0.799309
0.851276
0.906209
0.96333
1.02089
1.07672
1.13051
1.17933
1.22151
0.637147
0.373388
0.322715
0.305269
0.297838
0.29475
0.293932
0.294453
0.295887
0.298074
0.300984
0.304635
0.309056
0.314263
0.320251
0.327005
0.3345
0.342718
0.351644
0.361278
0.371638
0.382769
0.394749
0.407688
0.421739
0.437094
0.453989
0.472717
0.493625
0.517101
0.543534
0.573265
0.60654
0.643484
0.684105
0.728315
0.775941
0.826768
0.880585
0.936878
0.994289
1.05139
1.1073
1.1597
1.2071
0.654266
0.387487
0.325401
0.302394
0.292328
0.288179
0.287192
0.288057
0.290108
0.293018
0.296641
0.300919
0.305837
0.311388
0.317567
0.324361
0.331759
0.339754
0.348344
0.357543
0.367382
0.377916
0.38923
0.401441
0.414704
0.429215
0.445215
0.462993
0.48289
0.505281
0.530549
0.559044
0.591045
0.626726
0.666148
0.709259
0.755906
0.805859
0.858826
0.914334
0.971402
1.02884
1.08567
1.14019
1.19091
0.684253
0.402003
0.327839
0.299227
0.286463
0.281119
0.279794
0.280832
0.283359
0.2869
0.291201
0.29613
0.301619
0.307632
0.314148
0.321152
0.328636
0.336598
0.345049
0.354012
0.36353
0.373668
0.384519
0.39621
0.4089
0.422791
0.438127
0.4552
0.474346
0.495939
0.520364
0.547986
0.57912
0.613993
0.652722
0.695307
0.741622
0.791426
0.844357
0.89987
0.95714
1.01508
1.07256
1.12811
1.18034
0.725124
0.415788
0.329599
0.295757
0.280474
0.273938
0.272169
0.273228
0.27607
0.280104
0.284985
0.290513
0.296569
0.303084
0.310013
0.317332
0.325028
0.333104
0.341574
0.350472
0.359848
0.369778
0.380364
0.391742
0.40408
0.417588
0.432516
0.449165
0.467875
0.489026
0.513017
0.540239
0.571048
0.605726
0.644457
0.687298
0.734164
0.784814
0.83883
0.895581
0.954172
1.01347
1.07221
1.1289
1.18203
0.773892
0.428016
0.330439
0.291957
0.274445
0.266792
0.264525
0.265483
0.268491
0.272868
0.2782
0.284229
0.290791
0.297783
0.305137
0.312813
0.320791
0.329071
0.337671
0.346627
0.356
0.365874
0.376361
0.387605
0.399787
0.413129
0.427892
0.44439
0.462978
0.484053
0.508037
0.535358
0.566421
0.601572
0.641066
0.68503
0.733429
0.786036
0.842394
0.901782
0.963171
1.02524
1.0864
1.14505
1.19951
0.827198
0.438171
0.330252
0.287817
0.268401
0.259737
0.256956
0.257721
0.260766
0.265343
0.270986
0.277393
0.284363
0.291762
0.299498
0.307517
0.315788
0.324307
0.333089
0.342175
0.351631
0.36155
0.372052
0.383295
0.395472
0.408818
0.423615
0.440193
0.458931
0.480252
0.504615
0.532494
0.564351
0.600604
0.641589
0.687512
0.738402
0.79406
0.854006
0.917429
0.983145
1.04959
1.11487
1.17683
1.2336
0.881943
0.446046
0.329057
0.283363
0.262362
0.252808
0.249517
0.250026
0.253
0.257647
0.263464
0.270116
0.277373
0.285075
0.293113
0.301414
0.309938
0.318675
0.327637
0.336869
0.346438
0.356445
0.367022
0.378336
0.390598
0.40406
0.419024
0.435847
0.454937
0.476753
0.501799
0.530603
0.563696
0.601576
0.644667
0.693263
0.74747
0.807132
0.871763
0.940473
1.01191
1.08427
1.15529
1.22242
1.283
0.935605
0.45168
0.32697
0.278666
0.256374
0.246048
0.242267
0.242475
0.245293
0.249897
0.25576
0.262523
0.269936
0.277819
0.286047
0.294535
0.303233
0.312123
0.321217
0.330557
0.340216
0.350301
0.360953
0.372353
0.384728
0.398349
0.413546
0.430702
0.450263
0.47273
0.498659
0.528639
0.563277
0.603159
0.648802
0.700599
0.758738
0.823122
0.893271
0.968232
1.0465
1.12602
1.20417
1.27796
1.34424
0.986283
0.455257
0.32416
0.273826
0.250505
0.23952
0.235277
0.235157
0.237751
0.242216
0.248009
0.254757
0.262194
0.270129
0.278422
0.286979
0.295743
0.304689
0.313826
0.323198
0.332881
0.342986
0.353665
0.365112
0.377571
0.391336
0.406763
0.424267
0.444334
0.467512
0.494413
0.525695
0.562043
0.604133
0.652581
0.707881
0.77031
0.839834
0.91599
0.997776
1.08356
1.17104
1.25728
1.33885
1.41211
1.03263
0.457022
0.320809
0.26895
0.24483
0.233294
0.228624
0.228162
0.230481
0.234729
0.240352
0.246969
0.254307
0.262164
0.270393
0.278893
0.287599
0.296484
0.305555
0.314854
0.324462
0.334495
0.345115
0.35653
0.369
0.382842
0.39844
0.416243
0.436778
0.460641
0.488504
0.521092
0.559172
0.603509
0.654819
0.713691
0.780492
0.85525
0.937524
1.02628
1.11977
1.21549
1.31024
1.40019
1.48125
1.07373
0.457223
0.317076
0.264133
0.239418
0.227429
0.222373
0.221567
0.223577
0.227546
0.232917
0.239306
0.246433
0.254093
0.262134
0.270451
0.278974
0.287674
0.296556
0.305665
0.315082
0.324931
0.335383
0.346659
0.359036
0.372854
0.388523
0.406527
0.427432
0.451885
0.480611
0.514407
0.554114
0.600587
0.654632
0.716929
0.787925
0.867702
0.95584
1.05127
1.15218
1.25591
1.35902
1.45743
1.54666
1.10901
0.456078
0.313088
0.25944
0.234311
0.221965
0.216567
0.215426
0.217108
0.220754
0.22581
0.23189
0.238714
0.246074
0.253816
0.261833
0.270055
0.278449
0.287023
0.295821
0.304928
0.314474
0.32464
0.335658
0.347822
0.361494
0.377109
0.395182
0.416318
0.441209
0.470634
0.505453
0.54658
0.594949
0.651449
0.716838
0.79163
0.875952
0.969395
1.07087
1.1785
1.28955
1.40047
1.50699
1.60439
1.13816
0.453771
0.308926
0.254906
0.229523
0.216911
0.211221
0.209765
0.211113
0.214411
0.219107
0.224817
0.231263
0.238238
0.245589
0.253208
0.261023
0.269005
0.27716
0.285535
0.294219
0.303349
0.313112
0.323753
0.335582
0.348978
0.364401
0.382394
0.403595
0.428736
0.458647
0.494242
0.5365
0.586425
0.644979
0.712985
0.791009
0.879206
0.977175
1.08381
1.19721
1.31463
1.43251
1.54659
1.65209
1.16106
0.450446
0.304634
0.250529
0.225039
0.212248
0.206319
0.204576
0.205597
0.208536
0.212844
0.218144
0.224159
0.230686
0.237573
0.244714
0.252038
0.259518
0.267162
0.275018
0.283182
0.291794
0.30105
0.311205
0.322582
0.335578
0.35067
0.368426
0.389511
0.414693
0.444842
0.480921
0.523965
0.575038
0.635161
0.705212
0.785796
0.877088
0.978687
1.08948
1.20759
1.33035
1.45434
1.57551
1.68921
1.17776
0.446216
0.300222
0.24628
0.220814
0.207929
0.201817
0.199823
0.200535
0.203116
0.207027
0.211893
0.217444
0.22348
0.229853
0.236457
0.243228
0.250138
0.257199
0.264464
0.272029
0.280041
0.288702
0.298278
0.309101
0.321581
0.336209
0.353573
0.374359
0.399362
0.429485
0.46573
0.50918
0.560949
0.62211
0.693587
0.776015
0.869587
0.973904
1.08788
1.20969
1.33685
1.46627
1.59434
1.71681
1.18842
0.441191
0.295679
0.242109
0.216782
0.203884
0.197649
0.195444
0.195874
0.198113
0.201629
0.206055
0.211127
0.216648
0.222476
0.228509
0.234685
0.240981
0.247411
0.254031
0.260943
0.268292
0.276292
0.285215
0.2954
0.307264
0.321309
0.338136
0.358444
0.383048
0.412876
0.448962
0.492427
0.544427
0.606084
0.678361
0.761929
0.856999
0.963192
1.07946
1.20413
1.33498
1.46945
1.60467
1.73719
1.19336
0.435488
0.290975
0.237946
0.212866
0.200032
0.193732
0.191362
0.191544
0.193465
0.196601
0.200594
0.205186
0.210187
0.215459
0.220905
0.226466
0.232124
0.237896
0.243842
)
;

boundaryField
{
    leftWall
    {
        Cmu             0.09;
        kappa           0.41;
        E               9.8;
        type            epsilonWallFunction;
        value           nonuniform List<scalar> 
44
(
0.0308506
0.04707
0.0568637
0.0675011
0.0813942
0.0956595
0.109233
0.123006
0.139114
0.156747
0.176401
0.197629
0.219121
0.239143
0.255943
0.269099
0.282459
0.308879
0.374297
0.505756
0.664199
0.799589
0.828358
0.761243
0.692296
0.649153
0.634185
0.637147
0.654266
0.684253
0.725124
0.773892
0.827198
0.881943
0.935605
0.986283
1.03263
1.07373
1.10901
1.13816
1.16106
1.17776
1.18842
1.19336
)
;
    }
    rightWall
    {
        Cmu             0.09;
        kappa           0.41;
        E               9.8;
        type            epsilonWallFunction;
        value           nonuniform 0();
    }
    lowerWall
    {
        Cmu             0.09;
        kappa           0.41;
        E               9.8;
        type            epsilonWallFunction;
        value           nonuniform List<scalar> 
44
(
0.0308506
0.0791906
0.140939
0.206737
0.266649
0.32609
0.381864
0.438061
0.496255
0.557688
0.623195
0.693191
0.767711
0.846473
0.928951
1.01444
1.10212
1.19109
1.28039
1.36904
1.45604
1.54035
1.62092
1.69668
1.76651
1.82927
1.88379
1.92884
1.9631
1.98506
1.99264
1.98494
1.96974
1.94177
1.89844
1.8386
1.76222
1.67077
1.56747
1.45671
1.33924
1.19232
1.05371
0.902506
)
;
    }
    atmosphere
    {
        type            inletOutlet;
        inletValue      nonuniform 0();
        value           nonuniform 0();
    }
    defaultFaces
    {
        type            empty;
    }
    procBoundary0to1
    {
        type            processor;
        value           nonuniform List<scalar> 
44
(
0.793721
0.744855
0.980265
1.26646
1.53349
1.78808
2.03829
2.3021
2.60309
2.91644
2.79233
2.46277
2.1246
1.84549
1.63347
1.4782
1.36668
1.28823
1.23488
1.2009
1.2009
1.24846
1.22778
1.21971
1.22448
1.24149
1.25923
1.25769
1.2488
1.23658
1.22796
1.2303
1.2483
1.28352
1.33508
1.4001
1.47358
1.54941
1.62223
1.68783
1.74389
1.79024
1.82872
1.86245
)
;
    }
    procBoundary0to2
    {
        type            processor;
        value           nonuniform List<scalar> 
46
(
0.250061
0.25671
0.264007
0.272224
0.281706
0.292873
0.306234
0.322392
0.342057
0.366055
0.395328
0.430937
0.474032
0.52581
0.587435
0.659919
0.743972
0.839843
0.947195
1.06507
1.19196
1.32607
1.46556
1.60855
1.75292
1.19302
0.429239
0.28607
0.233715
0.208977
0.196283
0.189979
0.187491
0.187464
0.189096
0.191876
0.195454
0.199579
0.204068
0.208789
0.213649
0.218595
0.223611
0.228718
0.250061
0.233977
)
;
    }
}


// ************************************************************************* //
