/*--------------------------------*- C++ -*----------------------------------*\
| =========                 |                                                 |
| \\      /  F ield         | OpenFOAM: The Open Source CFD Toolbox           |
|  \\    /   O peration     | Version:  5.0                                   |
|   \\  /    A nd           | Web:      www.OpenFOAM.org                      |
|    \\/     M anipulation  |                                                 |
\*---------------------------------------------------------------------------*/
FoamFile
{
    version     2.0;
    format      ascii;
    class       volScalarField;
    location    "0.4";
    object      p_rgh;
}
// * * * * * * * * * * * * * * * * * * * * * * * * * * * * * * * * * * * * * //

dimensions      [1 -1 -2 0 0 0 0];

internalField   nonuniform List<scalar> 
1935
(
925.273
924.254
926.742
931.78
937.943
944.188
949.8
954.736
959.008
962.705
965.938
968.811
971.417
973.841
976.154
978.42
980.697
983.041
985.508
988.153
991.038
994.234
997.821
1001.9
1006.57
1012
1018.35
1025.82
1034.7
1045.33
1058.15
1073.73
1092.47
1114.67
1140.69
1170.69
1204.35
1240.52
1277.13
1311.32
1340.1
1360.85
1369.09
1376.11
924.169
922.32
924.132
928.496
933.834
939.334
944.481
949.115
953.202
956.781
959.926
962.721
965.247
967.585
969.806
971.977
974.162
976.421
978.816
981.41
984.274
987.483
991.127
995.312
1000.16
1005.84
1012.52
1020.43
1029.85
1041.1
1054.57
1070.73
1090.28
1113.59
1141.08
1173
1209.1
1248.28
1288.3
1325.67
1356.3
1377.02
1375.84
1368.51
922.276
921.204
923.199
926.402
930.539
934.971
939.265
943.225
946.777
949.918
952.688
955.147
957.364
959.412
961.361
963.28
965.234
967.291
969.517
971.985
974.771
977.961
981.653
985.963
991.028
997.012
1004.11
1012.57
1022.66
1034.73
1049.16
1066.42
1087.04
1111.54
1140.29
1173.45
1210.71
1251.04
1292.3
1331.03
1362.79
1383.81
1388.44
1374.25
920.4
920.624
922.435
925.038
928.278
931.768
935.192
938.381
941.258
943.807
946.05
948.03
949.808
951.448
953.019
954.589
956.224
957.995
959.975
962.242
964.879
967.979
971.647
976.006
981.199
987.4
994.813
1003.68
1014.29
1026.96
1042.08
1060.04
1081.33
1106.42
1135.64
1169.02
1206.21
1246.18
1286.97
1325.56
1358.08
1381.02
1390.85
1388.67
918.518
919.791
921.609
923.792
926.37
929.097
931.755
934.223
936.441
938.392
940.091
941.575
942.893
944.105
945.277
946.475
947.767
949.224
950.924
952.947
955.384
958.331
961.898
966.211
971.42
977.7
985.256
994.329
1005.2
1018.18
1033.62
1051.88
1073.37
1098.49
1127.5
1160.37
1196.71
1235.58
1275.32
1313.49
1346.99
1372.9
1388.95
1398.85
916.341
918.415
920.363
922.26
924.312
926.394
928.373
930.179
931.776
933.155
934.33
935.331
936.202
936.997
937.779
938.613
939.565
940.708
942.119
943.884
946.093
948.846
952.256
956.451
961.582
967.823
975.377
984.476
995.388
1008.41
1023.86
1042.07
1063.37
1088.1
1116.45
1148.35
1183.41
1220.81
1259.2
1296.68
1330.93
1359.7
1381.81
1403
913.862
916.52
918.648
920.321
921.917
923.422
924.779
925.967
926.974
927.804
928.471
929.004
929.44
929.83
930.234
930.714
931.335
932.17
933.293
934.792
936.758
939.292
942.506
946.53
951.51
957.618
965.049
974.027
984.799
997.643
1012.85
1030.71
1051.51
1075.52
1102.88
1133.48
1166.96
1202.59
1239.27
1275.54
1309.68
1340.16
1366.89
1397.47
911.134
914.264
916.538
917.983
919.142
920.104
920.875
921.474
921.912
922.205
922.373
922.443
922.45
922.441
922.473
922.606
922.903
923.432
924.269
925.498
927.21
929.504
932.493
936.301
941.072
946.97
954.18
962.911
973.393
985.879
1000.64
1017.92
1037.97
1061
1087.12
1116.19
1147.84
1181.42
1215.97
1250.28
1283.03
1313.14
1341.28
1376.27
908.173
911.734
914.094
915.286
916.008
916.439
916.64
916.663
916.54
916.298
915.964
915.569
915.144
914.734
914.392
914.176
914.147
914.369
914.916
915.869
917.315
919.353
922.09
925.646
930.16
935.785
942.694
951.077
961.144
973.124
987.26
1003.78
1022.9
1044.77
1069.47
1096.85
1126.5
1157.78
1189.77
1221.3
1251.09
1278.03
1302.52
1332.93
905.013
908.974
911.366
912.283
912.563
912.465
912.099
911.546
910.856
910.069
909.222
908.345
907.474
906.65
905.924
905.351
904.987
904.894
905.143
905.809
906.977
908.741
911.203
914.477
918.693
923.994
930.537
938.492
948.043
959.398
972.778
988.401
1006.44
1027.03
1050.22
1075.81
1103.38
1132.2
1161.27
1189.29
1214.62
1235.4
1250.27
1263.48
901.653
905.984
908.368
908.999
908.834
908.202
907.257
906.11
904.831
903.473
902.082
900.696
899.351
898.088
896.956
896.005
895.29
894.867
894.802
895.166
896.039
897.51
899.674
902.638
906.521
911.454
917.58
925.041
933.993
944.618
957.124
971.723
988.58
1007.81
1029.43
1053.23
1078.68
1104.99
1130.99
1155.07
1175.01
1187.64
1188.58
1172.4
898.116
902.773
905.117
905.465
904.858
903.679
902.128
900.353
898.445
896.476
894.501
892.565
890.708
888.972
887.402
886.047
884.956
884.182
883.783
883.827
884.386
885.544
887.388
890.015
893.534
898.066
903.734
910.652
918.935
928.736
940.258
953.72
969.305
987.126
1007.19
1029.24
1052.7
1076.62
1099.68
1120.01
1134.92
1140.42
1130.3
1093.62
894.466
899.388
901.665
901.747
900.704
898.962
896.77
894.32
891.738
889.112
886.509
883.981
881.573
879.327
877.289
875.503
874.014
872.867
872.116
871.822
872.05
872.877
874.383
876.651
879.781
883.888
889.077
895.422
902.982
911.875
922.304
934.519
948.749
965.145
983.717
1004.19
1025.9
1047.8
1068.42
1085.76
1097.06
1098.37
1084.14
1046.4
890.774
895.871
898.068
897.918
896.456
894.129
891.249
888.073
884.765
881.434
878.155
874.988
871.986
869.192
866.649
864.402
862.487
860.944
859.82
859.165
859.042
859.52
860.67
862.561
865.283
868.954
873.665
879.441
886.249
894.155
903.38
914.229
927.019
941.989
959.187
978.318
998.647
1019.02
1037.88
1053.26
1062.54
1062.3
1048.29
1015.79
887.192
892.216
894.349
894.039
892.173
889.215
885.562
881.567
877.442
873.313
869.262
865.359
861.667
858.231
855.096
852.307
849.896
847.89
846.333
845.266
844.745
844.843
845.618
847.117
849.425
852.688
857.007
862.324
868.436
875.32
883.243
892.623
903.929
917.575
933.669
951.839
971.267
990.702
1008.56
1022.98
1031.64
1031.68
1019.79
992.797
883.722
888.198
890.265
889.806
887.444
883.701
879.086
874.088
868.972
863.873
858.874
854.058
849.508
845.274
841.403
837.95
834.941
832.383
830.317
828.775
827.811
827.507
827.909
829.016
830.907
833.826
837.925
843.018
848.549
854.327
860.722
868.351
878.004
890.507
906.174
924.336
943.827
963.195
980.836
995.205
1004.37
1006.07
997.667
976.915
880.225
883.434
885.054
884.23
881.188
876.541
870.899
864.972
859.041
853.214
847.55
842.146
837.113
832.481
828.29
824.605
821.422
818.716
816.523
814.849
813.735
813.269
813.473
814.261
815.667
818.035
821.652
826.224
830.713
834.668
838.528
843.088
849.503
859.494
874.46
893.648
914.896
935.942
954.705
970.062
980.657
985.034
981.096
967.265
867.439
821.507
837.676
856.993
857.666
848.937
831.934
812.617
791.542
769.885
747.868
726.181
706.35
687.997
670.903
655.759
642.309
629.562
618.209
607.757
598.389
591.379
587.52
585.517
585.072
591.611
610.119
642.71
673.589
697.303
720.953
750.366
786.331
821.393
844.436
860.699
882.738
906.638
928.297
946.506
959.892
968.003
969.128
962.296
390.677
249.694
292.035
362.297
373.175
346.455
297.883
254.222
216.987
185.61
158.593
136.06
118.297
103.331
90.7105
80.7268
72.4513
64.8325
58.3969
52.5492
47.4312
43.829
41.8319
40.6267
39.8901
43.3661
53.9187
74.3792
94.3551
111.654
133.2
167.993
235.444
376.461
590.344
773.478
851.361
880.787
900.006
921.172
939.099
953.105
960.471
960.867
-0.859452
-0.427773
-0.560805
-0.671761
-0.642875
-0.620672
-0.607709
-0.601701
-0.599316
-0.601712
-0.60838
-0.6187
-0.631572
-0.645166
-0.659425
-0.672027
-0.684716
-0.698532
-0.713057
-0.732616
-0.749234
-0.763694
-0.779917
-0.801915
-0.828796
-0.85608
-0.880327
-0.908884
-0.956095
-1.02212
-1.09964
-1.18876
-1.28774
-1.44358
16.794
157.996
524.432
847.478
892.637
900.425
916.188
936.366
951.79
960.974
-0.635251
-0.580799
-0.584288
-0.578047
-0.55274
-0.530617
-0.514427
-0.501577
-0.491389
-0.484032
-0.479552
-0.481116
-0.486183
-0.49078
-0.494865
-0.499941
-0.507415
-0.517978
-0.531586
-0.548051
-0.567128
-0.588535
-0.612436
-0.639468
-0.669474
-0.701359
-0.735075
-0.772554
-0.815533
-0.862402
-0.910258
-0.955872
-0.990297
-1.01005
-1.18196
-1.57727
4.37634
80.393
501.153
925.707
921.77
927.379
942.398
959.32
971.501
-0.634875
-0.615691
-0.598219
-0.587319
-0.571768
-0.555417
-0.541797
-0.531266
-0.523533
-0.51871
-0.516808
-0.520427
-0.526483
-0.532819
-0.539638
-0.547925
-0.558477
-0.571619
-0.587307
-0.605405
-0.625736
-0.64823
-0.673045
-0.70048
-0.730534
-0.762827
-0.797542
-0.835692
-0.878117
-0.924106
-0.971776
-1.01835
-1.05709
-1.07442
-1.0822
-1.14126
-1.31132
-1.77164
5.37006
45.5824
349.453
930.2
967.724
968.346
980.346
-0.627864
-0.617294
-0.606148
-0.595406
-0.583617
-0.571104
-0.560076
-0.55147
-0.545604
-0.542642
-0.542581
-0.545222
-0.550305
-0.557635
-0.567078
-0.578526
-0.591955
-0.607376
-0.624781
-0.644183
-0.665591
-0.689073
-0.71483
-0.743117
-0.774008
-0.807398
-0.843459
-0.882845
-0.926143
-0.973028
-1.02225
-1.07201
-1.11942
-1.16003
-1.19557
-1.23535
-1.26382
-1.29247
-1.53916
-2.22063
3.14949
64.4653
296.155
913.647
1024.73
-0.627583
-0.620517
-0.611331
-0.600773
-0.590035
-0.579378
-0.570053
-0.562886
-0.558283
-0.556444
-0.557373
-0.560933
-0.566912
-0.575124
-0.585447
-0.597799
-0.612155
-0.628513
-0.646876
-0.667268
-0.689738
-0.714381
-0.741373
-0.770911
-0.803104
-0.837988
-0.87572
-0.916654
-0.961046
-1.00862
-1.05863
-1.11002
-1.16167
-1.21344
-1.26842
-1.32869
-1.38505
-1.42827
-1.47356
-1.55895
-1.75696
-2.30484
-1.56725
60.8491
254.033
-0.63519
-0.627474
-0.617707
-0.607046
-0.596965
-0.58766
-0.579833
-0.574084
-0.570779
-0.570085
-0.572017
-0.576481
-0.583323
-0.592402
-0.603617
-0.616898
-0.632217
-0.649564
-0.66895
-0.690415
-0.714032
-0.739914
-0.768218
-0.799116
-0.832739
-0.869182
-0.908572
-0.951071
-0.996739
-1.04536
-1.09646
-1.14951
-1.20401
-1.26042
-1.32101
-1.38753
-1.45899
-1.53351
-1.60809
-1.67732
-1.73581
-1.83594
-1.99954
-2.30032
-2.61687
-0.644852
-0.635849
-0.625484
-0.614919
-0.605585
-0.59755
-0.591169
-0.586853
-0.584884
-0.585401
-0.588426
-0.593892
-0.601691
-0.611718
-0.623889
-0.63815
-0.654473
-0.67285
-0.693302
-0.715883
-0.740682
-0.767825
-0.797463
-0.829754
-0.864843
-0.902839
-0.943834
-0.987899
-1.03502
-1.08503
-1.13764
-1.19254
-1.24959
-1.30911
-1.37239
-1.44083
-1.51492
-1.59554
-1.68584
-1.78141
-1.86742
-1.95199
-2.026
-2.08812
-2.23169
-0.655738
-0.645405
-0.634651
-0.624507
-0.616063
-0.60926
-0.604239
-0.601277
-0.600585
-0.602274
-0.60637
-0.61283
-0.62158
-0.632541
-0.645652
-0.66087
-0.678174
-0.697567
-0.719078
-0.742775
-0.768761
-0.797168
-0.828144
-0.861845
-0.898417
-0.937967
-0.980558
-1.0262
-1.07487
-1.12641
-1.18063
-1.23734
-1.29648
-1.35835
-1.42367
-1.49336
-1.56809
-1.64892
-1.73793
-1.83445
-1.93375
-2.03924
-2.13588
-2.21183
-2.29684
-0.667249
-0.656112
-0.645404
-0.635955
-0.628472
-0.622838
-0.619074
-0.617356
-0.617839
-0.620613
-0.625706
-0.633095
-0.642735
-0.654571
-0.668559
-0.684671
-0.702901
-0.723261
-0.745795
-0.770581
-0.797734
-0.827387
-0.859687
-0.894787
-0.93283
-0.97392
-1.01809
-1.06532
-1.11555
-1.16863
-1.22441
-1.28274
-1.3436
-1.40716
-1.47394
-1.54455
-1.61959
-1.69977
-1.78598
-1.87833
-1.97561
-2.07952
-2.18472
-2.2878
-2.39139
-0.679346
-0.66804
-0.657891
-0.649352
-0.642856
-0.638309
-0.635683
-0.635084
-0.636624
-0.640378
-0.646375
-0.654613
-0.665064
-0.677697
-0.692485
-0.709416
-0.728497
-0.749758
-0.773257
-0.799084
-0.827359
-0.858218
-0.8918
-0.928251
-0.967709
-1.01027
-1.05595
-1.10471
-1.15643
-1.21097
-1.26817
-1.3279
-1.39009
-1.45486
-1.52255
-1.59362
-1.66859
-1.74801
-1.8323
-1.92147
-2.01511
-2.11382
-2.21565
-2.32007
-2.42842
-0.692119
-0.681299
-0.672139
-0.664658
-0.659147
-0.6556
-0.653988
-0.654379
-0.656857
-0.661484
-0.668293
-0.677292
-0.688474
-0.701824
-0.717331
-0.735
-0.754853
-0.776936
-0.801322
-0.828116
-0.857446
-0.889444
-0.924241
-0.961966
-1.00274
-1.04666
-1.09372
-1.14385
-1.19692
-1.25276
-1.31118
-1.37204
-1.43523
-1.5008
-1.56898
-1.64013
-1.71471
-1.79317
-1.87583
-1.9627
-2.05355
-2.1484
-2.2464
-2.34735
-2.45175
-0.705685
-0.695924
-0.688015
-0.681655
-0.677108
-0.674474
-0.673758
-0.675018
-0.678321
-0.683721
-0.691251
-0.700929
-0.71276
-0.726747
-0.742895
-0.761222
-0.781764
-0.804584
-0.829771
-0.857443
-0.887735
-0.920784
-0.956707
-0.995615
-1.0376
-1.08274
-1.13101
-1.18233
-1.23654
-1.29345
-1.35284
-1.41453
-1.47839
-1.54441
-1.61275
-1.6837
-1.75766
-1.83504
-1.9161
-2.00095
-2.08951
-2.18164
-2.27678
-2.37471
-2.47579
-0.720132
-0.711836
-0.705246
-0.699985
-0.696354
-0.694546
-0.694622
-0.696644
-0.700671
-0.706751
-0.714917
-0.725193
-0.737597
-0.752144
-0.768854
-0.787761
-0.808915
-0.83239
-0.858287
-0.886736
-0.917884
-0.95187
-0.988809
-1.02879
-1.07188
-1.1181
-1.16743
-1.21975
-1.27487
-1.33259
-1.39266
-1.45487
-1.51908
-1.58524
-1.65345
-1.72396
-1.79714
-1.87335
-1.95287
-2.03587
-2.12237
-2.21228
-2.30523
-2.40095
-2.49962
-0.735457
-0.728829
-0.723466
-0.719219
-0.716436
-0.715376
-0.716157
-0.718853
-0.723519
-0.730197
-0.738923
-0.749724
-0.762627
-0.77766
-0.79486
-0.814273
-0.835962
-0.86001
-0.886527
-0.91565
-0.947533
-0.982323
-1.02013
-1.06104
-1.10509
-1.15226
-1.20249
-1.25563
-1.31147
-1.36976
-1.43025
-1.49271
-1.55697
-1.62298
-1.69081
-1.76069
-1.83295
-1.90796
-1.98601
-2.06732
-2.15201
-2.24006
-2.33127
-2.42536
-2.52232
-0.751516
-0.74657
-0.742259
-0.738917
-0.736911
-0.73654
-0.737964
-0.741268
-0.746505
-0.753717
-0.762937
-0.774198
-0.787535
-0.802988
-0.820606
-0.840451
-0.862598
-0.887137
-0.914182
-0.943873
-0.976364
-1.01181
-1.05032
-1.09198
-1.13681
-1.18475
-1.23571
-1.2895
-1.34588
-1.40455
-1.46525
-1.52773
-1.59182
-1.65745
-1.72471
-1.79381
-1.86507
-1.93887
-2.01554
-2.09536
-2.17851
-2.26508
-2.35499
-2.44799
-2.54387
-0.768021
-0.764631
-0.761187
-0.758651
-0.757366
-0.757643
-0.75967
-0.763537
-0.769298
-0.776991
-0.786652
-0.798318
-0.812031
-0.827842
-0.845812
-0.866016
-0.888541
-0.913484
-0.940963
-0.971113
-1.00409
-1.04004
-1.07908
-1.1213
-1.16669
-1.2152
-1.26669
-1.32094
-1.37767
-1.43657
-1.49732
-1.55966
-1.62342
-1.68854
-1.7551
-1.82334
-1.89358
-1.96621
-2.04164
-2.1202
-2.20216
-2.28767
-2.37674
-2.46917
-2.56457
-0.784582
-0.782541
-0.779817
-0.778015
-0.777411
-0.778312
-0.780918
-0.785318
-0.791564
-0.799695
-0.809752
-0.821775
-0.835814
-0.851927
-0.870187
-0.890679
-0.913499
-0.938756
-0.966567
-0.997069
-1.03041
-1.06672
-1.10614
-1.14872
-1.19448
-1.24334
-1.29515
-1.34967
-1.40658
-1.46555
-1.52622
-1.58832
-1.65167
-1.7162
-1.78203
-1.84939
-1.91864
-1.99022
-2.06458
-2.14217
-2.22331
-2.30824
-2.397
-2.48938
-2.58483
-0.800777
-0.799853
-0.797755
-0.796642
-0.796692
-0.798202
-0.801367
-0.806273
-0.812972
-0.821505
-0.831916
-0.844253
-0.858572
-0.874938
-0.89343
-0.914141
-0.937176
-0.96265
-0.990689
-1.02143
-1.055
-1.09156
-1.1312
-1.17399
-1.21994
-1.26898
-1.32092
-1.37553
-1.43247
-1.49138
-1.55189
-1.61369
-1.67658
-1.74053
-1.80564
-1.87218
-1.94054
-2.01122
-2.08476
-2.16168
-2.24242
-2.32725
-2.41623
-2.50908
-2.60508
-0.816207
-0.816192
-0.814674
-0.814221
-0.814907
-0.81701
-0.820715
-0.826102
-0.833223
-0.842123
-0.852852
-0.865464
-0.880021
-0.896595
-0.915267
-0.936133
-0.959303
-0.9849
-1.01305
-1.04391
-1.0776
-1.11426
-1.15399
-1.19687
-1.24288
-1.29194
-1.34389
-1.39846
-1.45533
-1.5141
-1.57439
-1.63588
-1.69835
-1.76176
-1.82622
-1.89203
-1.95963
-2.0296
-2.10256
-2.17915
-2.25989
-2.34511
-2.43483
-2.52868
-2.62576
-0.830542
-0.831265
-0.830314
-0.830505
-0.831809
-0.83449
-0.838716
-0.844561
-0.852077
-0.861314
-0.872328
-0.88518
-0.899937
-0.916675
-0.935476
-0.956437
-0.979668
-1.00529
-1.03346
-1.0643
-1.09797
-1.13461
-1.17432
-1.21716
-1.26312
-1.31212
-1.36398
-1.41845
-1.47519
-1.53381
-1.59391
-1.65514
-1.71728
-1.78024
-1.84417
-1.90937
-1.97635
-2.04577
-2.11839
-2.19495
-2.27608
-2.36214
-2.45312
-2.54853
-2.64726
-0.843526
-0.844851
-0.844477
-0.845296
-0.847208
-0.850452
-0.855181
-0.861463
-0.869351
-0.878899
-0.89017
-0.90323
-0.918151
-0.935011
-0.953893
-0.974891
-0.998112
-1.02368
-1.05174
-1.08246
-1.11599
-1.15248
-1.19205
-1.23475
-1.28058
-1.32943
-1.38116
-1.4355
-1.49213
-1.55064
-1.61064
-1.67174
-1.73367
-1.79635
-1.85988
-1.9246
-1.99109
-2.06012
-2.13257
-2.20936
-2.29123
-2.3786
-2.47137
-2.5689
-2.66992
-0.854973
-0.85679
-0.85701
-0.858446
-0.860954
-0.864748
-0.869961
-0.87666
-0.8849
-0.894739
-0.906241
-0.91948
-0.934531
-0.951472
-0.970387
-0.991365
-1.01451
-1.03994
-1.06781
-1.09828
-1.13154
-1.16779
-1.20714
-1.24962
-1.29522
-1.34387
-1.39543
-1.44965
-1.50622
-1.56473
-1.62476
-1.68589
-1.74781
-1.81037
-1.87367
-1.93805
-2.00416
-2.0729
-2.14535
-2.22261
-2.30557
-2.39468
-2.48976
-2.58997
-2.69396
-0.864764
-0.866975
-0.867808
-0.869844
-0.872935
-0.877262
-0.882941
-0.890039
-0.89861
-0.908717
-0.920428
-0.933817
-0.948963
-0.965945
-0.984845
-1.00575
-1.02876
-1.05399
-1.08158
-1.1117
-1.14463
-1.1806
-1.21968
-1.26186
-1.30716
-1.35554
-1.4069
-1.461
-1.51755
-1.57614
-1.63631
-1.69762
-1.75969
-1.82231
-1.88554
-1.94974
-2.01563
-2.08427
-2.15694
-2.23493
-2.31932
-2.41062
-2.50851
-2.61202
-2.71972
-0.872849
-0.875339
-0.8768
-0.87942
-0.883078
-0.88792
-0.894044
-0.901517
-0.910398
-0.920752
-0.93265
-0.946165
-0.961377
-0.978367
-0.997218
-1.01802
-1.04086
-1.06585
-1.09312
-1.1229
-1.15558
-1.1913
-1.23006
-1.27188
-1.3168
-1.36482
-1.41586
-1.46975
-1.52619
-1.58478
-1.64505
-1.70652
-1.76877
-1.83154
-1.89486
-1.95913
-2.02515
-2.0941
-2.16741
-2.24658
-2.33281
-2.42668
-2.52786
-2.63539
-2.74688
-0.879225
-0.881842
-0.883939
-0.887133
-0.891346
-0.896683
-0.90323
-0.911055
-0.920225
-0.930809
-0.942879
-0.95651
-0.971781
-0.988774
-1.00757
-1.02827
-1.05096
-1.07575
-1.1028
-1.13242
)
;

boundaryField
{
    leftWall
    {
        type            fixedFluxPressure;
        gradient        uniform 0;
        value           nonuniform List<scalar> 
44
(
925.273
924.169
922.276
920.4
918.518
916.341
913.862
911.134
908.173
905.013
901.653
898.116
894.466
890.774
887.192
883.722
880.225
867.439
390.677
-0.859452
-0.635251
-0.634875
-0.627864
-0.627583
-0.63519
-0.644852
-0.655738
-0.667249
-0.679346
-0.692119
-0.705685
-0.720132
-0.735457
-0.751516
-0.768021
-0.784582
-0.800777
-0.816207
-0.830542
-0.843526
-0.854973
-0.864764
-0.872849
-0.879225
)
;
    }
    rightWall
    {
        type            fixedFluxPressure;
        gradient        nonuniform 0();
        value           nonuniform 0();
    }
    lowerWall
    {
        type            fixedFluxPressure;
        gradient        uniform 0;
        value           nonuniform List<scalar> 
44
(
925.273
924.254
926.742
931.78
937.943
944.188
949.8
954.736
959.008
962.705
965.938
968.811
971.417
973.841
976.154
978.42
980.697
983.041
985.508
988.153
991.038
994.234
997.821
1001.9
1006.57
1012
1018.35
1025.82
1034.7
1045.33
1058.15
1073.73
1092.47
1114.67
1140.69
1170.69
1204.35
1240.52
1277.13
1311.32
1340.1
1360.85
1369.09
1376.11
)
;
    }
    atmosphere
    {
        type            totalPressure;
        rho             rho;
        psi             none;
        gamma           1;
        p0              nonuniform 0();
        value           nonuniform 0();
    }
    defaultFaces
    {
        type            empty;
    }
    procBoundary0to1
    {
        type            processor;
        value           nonuniform List<scalar> 
44
(
1396.07
1375.68
1372.12
1394.22
1420.63
1444.51
1457.41
1449.6
1409.24
1316.66
1141.76
1016.09
976.87
960.465
947.906
942.419
942.971
947.244
954.296
963.26
963.26
977.719
993.985
1022.56
901.635
59.8155
-2.39124
-2.37322
-2.47293
-2.53428
-2.55896
-2.58002
-2.60139
-2.62222
-2.64247
-2.66247
-2.68257
-2.70317
-2.72472
-2.74771
-2.77262
-2.79985
-2.8289
-2.85875
)
;
    }
    procBoundary0to2
    {
        type            processor;
        value           nonuniform List<scalar> 
46
(
-1.16489
-1.20034
-1.23877
-1.28015
-1.32458
-1.37211
-1.42269
-1.47616
-1.53226
-1.59061
-1.65073
-1.71215
-1.77442
-1.83732
-1.90086
-1.96551
-2.03212
-2.10197
-2.1766
-2.25754
-2.34603
-2.44272
-2.54742
-2.65852
-2.77334
-0.883898
-0.88648
-0.889206
-0.892976
-0.897726
-0.903533
-0.910477
-0.918634
-0.928076
-0.938878
-0.951115
-0.964865
-0.980208
-0.997229
-1.01601
-1.03666
-1.05926
-1.08395
-1.11091
-1.16489
-1.1404
)
;
    }
}


// ************************************************************************* //
