/*--------------------------------*- C++ -*----------------------------------*\
| =========                 |                                                 |
| \\      /  F ield         | OpenFOAM: The Open Source CFD Toolbox           |
|  \\    /   O peration     | Version:  5.0                                   |
|   \\  /    A nd           | Web:      www.OpenFOAM.org                      |
|    \\/     M anipulation  |                                                 |
\*---------------------------------------------------------------------------*/
FoamFile
{
    version     2.0;
    format      ascii;
    class       surfaceScalarField;
    location    "0.4";
    object      phi;
}
// * * * * * * * * * * * * * * * * * * * * * * * * * * * * * * * * * * * * * //

dimensions      [0 3 -1 0 0 0 0];

internalField   nonuniform List<scalar> 
3781
(
-3.2321e-06
3.2321e-06
-4.44225e-06
1.21015e-06
-3.74786e-06
-6.94395e-07
-2.12768e-06
-1.62017e-06
-1.20341e-07
-2.00734e-06
1.98105e-06
-2.10139e-06
4.0615e-06
-2.08045e-06
6.05735e-06
-1.99586e-06
7.9488e-06
-1.89145e-06
9.73701e-06
-1.7882e-06
1.14326e-05
-1.69556e-06
1.30496e-05
-1.61706e-06
1.46026e-05
-1.55295e-06
1.61043e-05
-1.50177e-06
1.75656e-05
-1.46131e-06
1.89947e-05
-1.42908e-06
2.03974e-05
-1.40265e-06
2.17771e-05
-1.3797e-06
2.31351e-05
-1.35801e-06
2.44706e-05
-1.33552e-06
2.57808e-05
-1.31017e-06
2.70607e-05
-1.2799e-06
2.83032e-05
-1.24253e-06
2.94989e-05
-1.19567e-06
3.06355e-05
-1.13657e-06
3.16974e-05
-1.06193e-06
3.2665e-05
-9.6765e-07
3.35134e-05
-8.4836e-07
3.421e-05
-6.96632e-07
3.47103e-05
-5.00284e-07
3.49501e-05
-2.39806e-07
3.48242e-05
1.25906e-07
3.41902e-05
6.33994e-07
3.29431e-05
1.24717e-06
3.09618e-05
1.98125e-06
2.81211e-05
2.84074e-06
2.43187e-05
3.80241e-06
1.95168e-05
4.80182e-06
1.37899e-05
5.72695e-06
7.35355e-06
6.43634e-06
5.44208e-07
6.80934e-06
-6.56726e-06
7.11147e-06
-1.31562e-05
6.58897e-06
2.63018e-06
-2.02932e-06
5.26142e-06
-1.90571e-06
1.08653e-06
-9.15369e-07
-1.68473e-06
5.729e-07
-3.10844e-06
2.33591e-06
-3.77036e-06
4.22579e-06
-3.99127e-06
6.12889e-06
-3.98355e-06
7.99673e-06
-3.86369e-06
9.80612e-06
-3.70084e-06
1.15507e-05
-3.53275e-06
1.32332e-05
-3.37807e-06
1.48607e-05
-3.24459e-06
1.64417e-05
-3.13389e-06
1.79841e-05
-3.04421e-06
1.9495e-05
-2.97216e-06
2.09795e-05
-2.91367e-06
2.24414e-05
-2.86451e-06
2.38823e-05
-2.82057e-06
2.53021e-05
-2.77785e-06
2.66991e-05
-2.7325e-06
2.80696e-05
-2.68068e-06
2.94082e-05
-2.61846e-06
3.07073e-05
-2.54163e-06
3.19571e-05
-2.44555e-06
3.31454e-05
-2.32486e-06
3.42567e-05
-2.17317e-06
3.52717e-05
-1.98266e-06
3.61668e-05
-1.74344e-06
3.69129e-05
-1.44274e-06
3.74759e-05
-1.06331e-06
3.78194e-05
-5.8332e-07
3.79138e-05
3.14925e-08
3.77264e-05
8.21368e-07
3.71567e-05
1.81687e-06
3.60914e-05
3.04657e-06
3.43976e-05
4.53457e-06
3.19206e-05
6.27943e-06
2.84957e-05
8.2267e-06
2.39861e-05
1.02365e-05
1.83573e-05
1.20652e-05
1.17784e-05
1.33883e-05
4.91188e-06
1.3978e-05
-1.2437e-06
1.27446e-05
6.96235e-06
-5.87252e-07
5.84868e-06
-8.14799e-09
5.07431e-07
1.0329e-06
-2.72579e-06
2.44632e-06
-4.52185e-06
4.07091e-06
-5.39495e-06
5.79844e-06
-5.7188e-06
7.55524e-06
-5.74034e-06
9.30101e-06
-5.60946e-06
1.10155e-05
-5.41528e-06
1.26906e-05
-5.20789e-06
1.43257e-05
-5.01321e-06
1.59239e-05
-4.84276e-06
1.74897e-05
-4.69967e-06
1.90278e-05
-4.58236e-06
2.05425e-05
-4.48683e-06
2.20367e-05
-4.40792e-06
2.35123e-05
-4.34012e-06
2.49697e-05
-4.27788e-06
2.64075e-05
-4.21575e-06
2.78234e-05
-4.14835e-06
2.9213e-05
-4.07027e-06
3.05704e-05
-3.9759e-06
3.1888e-05
-3.85918e-06
3.31558e-05
-3.71338e-06
3.43617e-05
-3.53072e-06
3.54905e-05
-3.30202e-06
3.6524e-05
-3.01617e-06
3.74401e-05
-2.65947e-06
3.82122e-05
-2.21485e-06
3.88097e-05
-1.66081e-06
3.9197e-05
-9.70663e-07
3.93392e-05
-1.10726e-07
3.91992e-05
9.61377e-07
3.87261e-05
2.29003e-06
3.78571e-05
3.91555e-06
3.65211e-05
5.87052e-06
3.46368e-05
8.16375e-06
3.21101e-05
1.07535e-05
2.88375e-05
1.35091e-05
2.4735e-05
1.61676e-05
1.98272e-05
1.82961e-05
1.4487e-05
1.93181e-05
9.23619e-06
1.79954e-05
1.21638e-05
4.96563e-07
5.35211e-06
1.28715e-06
-2.83156e-07
2.47343e-06
-3.91207e-06
3.88888e-06
-5.9373e-06
5.43795e-06
-6.94402e-06
7.05547e-06
-7.33632e-06
8.69822e-06
-7.38309e-06
1.03408e-05
-7.25205e-06
1.19693e-05
-7.0438e-06
1.35772e-05
-6.8158e-06
1.51626e-05
-6.59857e-06
1.67261e-05
-6.40622e-06
1.82695e-05
-6.24309e-06
1.9795e-05
-6.10791e-06
2.13046e-05
-5.99635e-06
2.27992e-05
-5.90257e-06
2.42792e-05
-5.82012e-06
2.57437e-05
-5.74236e-06
2.71906e-05
-5.66265e-06
2.86166e-05
-5.57434e-06
3.0017e-05
-5.47067e-06
3.13856e-05
-5.3445e-06
3.27145e-05
-5.18813e-06
3.39941e-05
-4.99291e-06
3.52122e-05
-4.7489e-06
3.63546e-05
-4.44439e-06
3.74038e-05
-4.0654e-06
3.83394e-05
-3.59502e-06
3.91372e-05
-3.0127e-06
3.97698e-05
-2.29341e-06
4.02063e-05
-1.40712e-06
4.04136e-05
-3.17986e-07
4.03576e-05
1.01737e-06
4.00016e-05
2.646e-06
3.93054e-05
4.61172e-06
3.82272e-05
6.94871e-06
3.67236e-05
9.66736e-06
3.47464e-05
1.27307e-05
3.22369e-05
1.60186e-05
2.91257e-05
1.92789e-05
2.53587e-05
2.20631e-05
2.10123e-05
2.36646e-05
1.61802e-05
2.28274e-05
1.76631e-05
1.0377e-06
4.31442e-06
2.18115e-06
-1.42661e-06
3.53387e-06
-5.26479e-06
4.99751e-06
-7.40095e-06
6.51561e-06
-8.46211e-06
8.06128e-06
-8.88199e-06
9.61901e-06
-8.94083e-06
1.11792e-05
-8.81225e-06
1.27358e-05
-8.6004e-06
1.42852e-05
-8.36522e-06
1.58257e-05
-8.13902e-06
1.73565e-05
-7.93709e-06
1.88779e-05
-7.76441e-06
2.03898e-05
-7.61987e-06
2.18924e-05
-7.49896e-06
2.33853e-05
-7.39539e-06
2.48671e-05
-7.30201e-06
2.63362e-05
-7.2114e-06
2.77895e-05
-7.11596e-06
2.92232e-05
-7.00801e-06
3.06321e-05
-6.8796e-06
3.20099e-05
-6.72233e-06
3.33488e-05
-6.52698e-06
3.46391e-05
-6.28322e-06
3.58694e-05
-5.97917e-06
3.70259e-05
-5.60093e-06
3.80925e-05
-5.13203e-06
3.90504e-05
-4.55287e-06
3.98778e-05
-3.84013e-06
4.05505e-05
-2.96615e-06
4.10419e-05
-1.89847e-06
4.13234e-05
-5.99507e-07
4.13664e-05
9.74421e-07
4.11423e-05
2.87005e-06
4.06231e-05
5.13093e-06
3.97817e-05
7.79017e-06
3.85913e-05
1.08577e-05
3.7022e-05
1.43e-05
3.50313e-05
1.80093e-05
3.25528e-05
2.17574e-05
2.94894e-05
2.51264e-05
2.57402e-05
2.74138e-05
2.11331e-05
2.74345e-05
2.34781e-05
1.28319e-06
3.03123e-06
2.77126e-06
-2.91468e-06
4.31096e-06
-6.80448e-06
5.83963e-06
-8.92962e-06
7.34851e-06
-9.97099e-06
8.84633e-06
-1.03798e-05
1.03411e-05
-1.04356e-05
1.18372e-05
-1.03083e-05
1.33357e-05
-1.00989e-05
1.48364e-05
-9.86595e-06
1.63385e-05
-9.64105e-06
1.78407e-05
-9.43935e-06
1.93421e-05
-9.26577e-06
2.08413e-05
-9.11913e-06
2.23371e-05
-8.99472e-06
2.38276e-05
-8.88589e-06
2.53106e-05
-8.78503e-06
2.67833e-05
-8.68409e-06
2.82421e-05
-8.57476e-06
2.96826e-05
-8.44851e-06
3.10995e-05
-8.29644e-06
3.24861e-05
-8.109e-06
3.38349e-05
-7.87572e-06
3.51364e-05
-7.58479e-06
3.63799e-05
-7.22263e-06
3.75524e-05
-6.77343e-06
3.8639e-05
-6.21864e-06
3.96226e-05
-5.53648e-06
4.0484e-05
-4.70147e-06
4.12019e-05
-3.68405e-06
4.17537e-05
-2.45029e-06
4.21158e-05
-9.61676e-07
4.22651e-05
8.25152e-07
4.21795e-05
2.95572e-06
4.18382e-05
5.47218e-06
4.12221e-05
8.40627e-06
4.03117e-05
1.17681e-05
3.90822e-05
1.55295e-05
3.74932e-05
1.95983e-05
3.54712e-05
2.37793e-05
3.28872e-05
2.77105e-05
2.95345e-05
3.07665e-05
2.50607e-05
3.19083e-05
2.96237e-05
1.46161e-06
1.56962e-06
3.21486e-06
-4.66793e-06
4.90113e-06
-8.49075e-06
6.48013e-06
-1.05086e-05
7.98259e-06
-1.14734e-05
9.4445e-06
-1.18417e-05
1.0891e-05
-1.18821e-05
1.23365e-05
-1.17538e-05
1.37881e-05
-1.15505e-05
1.52485e-05
-1.13263e-05
1.67178e-05
-1.11104e-05
1.8195e-05
-1.09166e-05
1.96784e-05
-1.07491e-05
2.11657e-05
-1.06065e-05
2.26546e-05
-1.04836e-05
2.41424e-05
-1.03736e-05
2.56258e-05
-1.02685e-05
2.71014e-05
-1.01597e-05
2.85649e-05
-1.00383e-05
3.00116e-05
-9.89522e-06
3.14359e-05
-9.72072e-06
3.28313e-05
-9.50435e-06
3.41901e-05
-9.23454e-06
3.55035e-05
-8.89822e-06
3.67613e-05
-8.4804e-06
3.79515e-05
-7.96365e-06
3.90605e-05
-7.32768e-06
4.0073e-05
-6.54894e-06
4.09719e-05
-5.60038e-06
4.17391e-05
-4.45126e-06
4.23558e-05
-3.06695e-06
4.2803e-05
-1.40889e-06
4.30627e-05
5.65409e-07
4.31184e-05
2.9e-06
4.29549e-05
5.63568e-06
4.25578e-05
8.80336e-06
4.19112e-05
1.24148e-05
4.09915e-05
1.64491e-05
3.97568e-05
2.0833e-05
3.81259e-05
2.54102e-05
3.59466e-05
2.98898e-05
3.29459e-05
3.37672e-05
2.86439e-05
3.62103e-05
3.59809e-05
1.65883e-06
-8.92084e-08
3.59608e-06
-6.60518e-06
5.37161e-06
-1.02663e-05
6.97404e-06
-1.21111e-05
8.46356e-06
-1.2963e-05
9.89377e-06
-1.32719e-05
1.13003e-05
-1.32887e-05
1.27042e-05
-1.31576e-05
1.41164e-05
-1.29628e-05
1.5542e-05
-1.27519e-05
1.69823e-05
-1.25507e-05
1.84365e-05
-1.23707e-05
1.99026e-05
-1.22152e-05
2.13778e-05
-1.20817e-05
2.28591e-05
-1.19649e-05
2.43429e-05
-1.18575e-05
2.58255e-05
-1.1751e-05
2.73026e-05
-1.16367e-05
2.87696e-05
-1.15053e-05
3.02214e-05
-1.1347e-05
3.16522e-05
-1.11515e-05
3.30556e-05
-1.09077e-05
3.44242e-05
-1.06031e-05
3.57496e-05
-1.02236e-05
3.70223e-05
-9.75308e-06
3.82313e-05
-9.1727e-06
3.93644e-05
-8.46079e-06
4.04079e-05
-7.59241e-06
4.13469e-05
-6.53939e-06
4.21661e-05
-5.27044e-06
4.28502e-05
-3.75107e-06
4.33848e-05
-1.94346e-06
4.37567e-05
1.93457e-07
4.39546e-05
2.70212e-06
4.39681e-05
5.62223e-06
4.37868e-05
8.98462e-06
4.3398e-05
1.28036e-05
4.27802e-05
1.70668e-05
4.18926e-05
2.17207e-05
4.06535e-05
2.66493e-05
3.89033e-05
3.164e-05
3.63394e-05
3.6331e-05
3.24039e-05
4.01459e-05
4.22452e-05
1.87216e-06
-1.96136e-06
3.93966e-06
-8.67268e-06
5.76029e-06
-1.20869e-05
7.36402e-06
-1.37148e-05
8.83357e-06
-1.44325e-05
1.0233e-05
-1.46714e-05
1.16036e-05
-1.46593e-05
1.29704e-05
-1.45244e-05
1.43471e-05
-1.43395e-05
1.57405e-05
-1.41454e-05
1.71531e-05
-1.39633e-05
1.85844e-05
-1.38021e-05
2.00324e-05
-1.36632e-05
2.14941e-05
-1.35434e-05
2.29659e-05
-1.34367e-05
2.44436e-05
-1.33352e-05
2.5923e-05
-1.32304e-05
2.73994e-05
-1.31131e-05
2.88677e-05
-1.29736e-05
3.03226e-05
-1.28019e-05
3.17583e-05
-1.25872e-05
3.31682e-05
-1.23177e-05
3.45454e-05
-1.19804e-05
3.5882e-05
-1.15602e-05
3.71692e-05
-1.10403e-05
3.83972e-05
-1.04006e-05
3.95549e-05
-9.61849e-06
4.06302e-05
-8.66773e-06
4.16103e-05
-7.51947e-06
4.24823e-05
-6.14246e-06
4.32344e-05
-4.50314e-06
4.38562e-05
-2.56529e-06
4.43396e-05
-2.89902e-07
4.46781e-05
2.36358e-06
4.48664e-05
5.43392e-06
4.48988e-05
8.95223e-06
4.47667e-05
1.29357e-05
4.44539e-05
1.73797e-05
4.39266e-05
2.22479e-05
4.31151e-05
2.74609e-05
4.18772e-05
3.2878e-05
3.99303e-05
3.82779e-05
3.67224e-05
4.33537e-05
4.77871e-05
2.0851e-06
-4.04647e-06
4.24887e-06
-1.08364e-05
6.09004e-06
-1.39281e-05
7.68396e-06
-1.53087e-05
9.13035e-06
-1.58789e-05
1.04993e-05
-1.60403e-05
1.18354e-05
-1.59955e-05
1.31663e-05
-1.58553e-05
1.45082e-05
-1.56813e-05
1.58693e-05
-1.55066e-05
1.72532e-05
-1.53472e-05
1.866e-05
-1.52088e-05
2.00876e-05
-1.50908e-05
2.15329e-05
-1.49887e-05
2.2992e-05
-1.48958e-05
2.44604e-05
-1.48037e-05
2.59334e-05
-1.47034e-05
2.74059e-05
-1.45856e-05
2.88725e-05
-1.44402e-05
3.03275e-05
-1.4257e-05
3.17652e-05
-1.40248e-05
3.31792e-05
-1.37317e-05
3.45628e-05
-1.33639e-05
3.59086e-05
-1.2906e-05
3.72086e-05
-1.23403e-05
3.84541e-05
-1.16462e-05
3.96355e-05
-1.07998e-05
4.0742e-05
-9.77421e-06
4.17624e-05
-8.53989e-06
4.26861e-05
-7.06616e-06
4.35042e-05
-5.32127e-06
4.42105e-05
-3.27158e-06
4.48016e-05
-8.80963e-07
4.52764e-05
1.88877e-06
4.5635e-05
5.07523e-06
4.58773e-05
8.70994e-06
4.60006e-05
1.28124e-05
4.5997e-05
1.73833e-05
4.58469e-05
2.23981e-05
4.55055e-05
2.78022e-05
4.48769e-05
3.35066e-05
4.37605e-05
3.93944e-05
4.17409e-05
4.53733e-05
5.16433e-05
2.3219e-06
-6.36836e-06
4.60685e-06
-1.31214e-05
6.49611e-06
-1.58173e-05
8.10836e-06
-1.6921e-05
9.55797e-06
-1.73285e-05
1.09206e-05
-1.74029e-05
1.22449e-05
-1.73198e-05
1.35618e-05
-1.71722e-05
1.48901e-05
-1.70096e-05
1.62402e-05
-1.68567e-05
1.76167e-05
-1.67236e-05
1.90201e-05
-1.66122e-05
2.04487e-05
-1.65194e-05
2.18992e-05
-1.64392e-05
2.33673e-05
-1.63639e-05
2.48483e-05
-1.62846e-05
2.63368e-05
-1.6192e-05
2.78274e-05
-1.60762e-05
2.93143e-05
-1.59271e-05
3.07917e-05
-1.57343e-05
3.22533e-05
-1.54865e-05
3.36931e-05
-1.51715e-05
3.51045e-05
-1.47753e-05
3.64804e-05
-1.4282e-05
3.78138e-05
-1.36736e-05
3.90968e-05
-1.29292e-05
4.0321e-05
-1.20241e-05
4.1477e-05
-1.09301e-05
4.25545e-05
-9.61743e-06
4.35446e-05
-8.05623e-06
4.44408e-05
-6.21753e-06
4.52408e-05
-4.07154e-06
4.5946e-05
-1.58616e-06
4.65613e-05
1.27352e-06
4.7093e-05
4.54347e-06
4.75474e-05
8.25557e-06
4.7929e-05
1.24308e-05
4.82404e-05
1.70719e-05
4.84797e-05
2.21588e-05
4.86362e-05
2.76457e-05
4.86794e-05
3.34634e-05
4.85425e-05
3.95312e-05
4.80966e-05
4.58191e-05
5.25874e-05
2.51837e-06
-8.88674e-06
4.90563e-06
-1.55087e-05
6.83692e-06
-1.77486e-05
8.4618e-06
-1.85458e-05
9.90543e-06
-1.87722e-05
1.12494e-05
-1.87469e-05
1.25473e-05
-1.86177e-05
1.38347e-05
-1.84595e-05
1.51335e-05
-1.83085e-05
1.64563e-05
-1.81795e-05
1.78087e-05
-1.8076e-05
1.91919e-05
-1.79954e-05
2.06043e-05
-1.79318e-05
2.20425e-05
-1.78774e-05
2.35019e-05
-1.78234e-05
2.49777e-05
-1.77603e-05
2.6464e-05
-1.76783e-05
2.79551e-05
-1.75672e-05
2.94448e-05
-1.74168e-05
3.0927e-05
-1.72165e-05
3.23956e-05
-1.69551e-05
3.38444e-05
-1.66203e-05
3.52671e-05
-1.61979e-05
3.66573e-05
-1.56722e-05
3.80085e-05
-1.50249e-05
3.93143e-05
-1.42351e-05
4.05679e-05
-1.32776e-05
4.17608e-05
-1.21231e-05
4.28838e-05
-1.07404e-05
4.39288e-05
-9.10124e-06
4.48916e-05
-7.18031e-06
4.57732e-05
-4.95318e-06
4.65804e-05
-2.39331e-06
4.73243e-05
5.29637e-07
4.80184e-05
3.84934e-06
4.86759e-05
7.59811e-06
4.93088e-05
1.17978e-05
4.99299e-05
1.64509e-05
5.05544e-05
2.15342e-05
5.12028e-05
2.69973e-05
5.19028e-05
3.27634e-05
5.2698e-05
3.8736e-05
5.36896e-05
4.48275e-05
5.10443e-05
2.68731e-06
-1.1574e-05
5.19153e-06
-1.80129e-05
7.18532e-06
-1.97424e-05
8.83427e-06
-2.01948e-05
1.02748e-05
-2.02127e-05
1.15978e-05
-2.00699e-05
1.28649e-05
-1.98848e-05
1.41175e-05
-1.97121e-05
1.53818e-05
-1.95728e-05
1.66724e-05
-1.94701e-05
1.7996e-05
-1.93996e-05
1.9354e-05
-1.93535e-05
2.07451e-05
-1.93229e-05
2.21657e-05
-1.9298e-05
2.36111e-05
-1.92688e-05
2.50761e-05
-1.92252e-05
2.65546e-05
-1.91568e-05
2.80404e-05
-1.90531e-05
2.95272e-05
-1.89036e-05
3.10084e-05
-1.86978e-05
3.2478e-05
-1.84247e-05
3.39298e-05
-1.80721e-05
3.53578e-05
-1.76259e-05
3.67559e-05
-1.70703e-05
3.81187e-05
-1.63876e-05
3.94412e-05
-1.55575e-05
4.07182e-05
-1.45546e-05
4.19429e-05
-1.33478e-05
4.31063e-05
-1.19038e-05
4.42006e-05
-1.01955e-05
4.52228e-05
-8.20256e-06
4.61772e-05
-5.90757e-06
4.70754e-05
-3.29149e-06
4.79354e-05
-3.30348e-07
4.87783e-05
3.00642e-06
4.96244e-05
6.752e-06
5.04924e-05
1.09298e-05
5.14025e-05
1.55408e-05
5.23814e-05
2.05553e-05
5.34685e-05
2.59102e-05
5.47222e-05
3.15098e-05
5.62308e-05
3.72274e-05
5.81443e-05
4.2914e-05
4.84258e-05
2.83131e-06
-1.44054e-05
5.48375e-06
-2.06653e-05
7.56417e-06
-2.18229e-05
9.24502e-06
-2.18756e-05
1.0681e-05
-2.16486e-05
1.19782e-05
-2.13671e-05
1.32088e-05
-2.11154e-05
1.44217e-05
-2.09251e-05
1.56473e-05
-2.07984e-05
1.69021e-05
-2.07248e-05
1.81931e-05
-2.06907e-05
1.95222e-05
-2.06826e-05
2.08878e-05
-2.06884e-05
2.22861e-05
-2.06963e-05
2.37124e-05
-2.06951e-05
2.51611e-05
-2.06739e-05
2.66259e-05
-2.06217e-05
2.81004e-05
-2.05275e-05
2.95777e-05
-2.03809e-05
3.10514e-05
-2.01715e-05
3.25149e-05
-1.98883e-05
3.39624e-05
-1.95196e-05
3.53881e-05
-1.90516e-05
3.67861e-05
-1.84684e-05
3.81517e-05
-1.77532e-05
3.94818e-05
-1.68876e-05
4.07737e-05
-1.58465e-05
4.20224e-05
-1.45964e-05
4.32189e-05
-1.31004e-05
4.43548e-05
-1.13314e-05
4.54277e-05
-9.27547e-06
4.64441e-05
-6.92397e-06
4.74201e-05
-4.26744e-06
4.83804e-05
-1.2907e-06
4.93542e-05
2.03263e-06
5.03687e-05
5.7375e-06
5.14475e-05
9.85096e-06
5.26147e-05
1.43737e-05
5.39014e-05
1.92686e-05
5.53538e-05
2.44578e-05
5.70376e-05
2.9826e-05
5.90429e-05
3.52221e-05
6.14926e-05
4.04643e-05
4.53484e-05
2.96286e-06
-1.73682e-05
5.81098e-06
-2.35134e-05
7.99106e-06
-2.40029e-05
9.69686e-06
-2.35814e-05
1.11187e-05
-2.30704e-05
1.23831e-05
-2.26315e-05
1.35731e-05
-2.23054e-05
1.47444e-05
-2.20964e-05
1.59308e-05
-2.19847e-05
1.71495e-05
-2.19436e-05
1.84076e-05
-2.19488e-05
1.97065e-05
-2.19814e-05
2.10444e-05
-2.20263e-05
2.24175e-05
-2.20694e-05
2.38207e-05
-2.20983e-05
2.52484e-05
-2.21016e-05
2.66942e-05
-2.20675e-05
2.81512e-05
-2.19845e-05
2.96124e-05
-2.18422e-05
3.1071e-05
-2.16301e-05
3.25206e-05
-2.13378e-05
3.39552e-05
-2.09542e-05
3.53694e-05
-2.04658e-05
3.67574e-05
-1.98564e-05
3.81147e-05
-1.91105e-05
3.94401e-05
-1.82131e-05
4.07345e-05
-1.71409e-05
4.19957e-05
-1.58576e-05
4.32148e-05
-1.43195e-05
4.43825e-05
-1.24991e-05
4.54962e-05
-1.03892e-05
4.65638e-05
-7.99149e-06
4.76041e-05
-5.30781e-06
4.86483e-05
-2.33485e-06
4.97333e-05
9.47568e-07
5.08928e-05
4.57799e-06
5.21534e-05
8.59037e-06
5.35392e-05
1.29879e-05
5.50801e-05
1.77277e-05
5.68201e-05
2.27178e-05
5.88205e-05
2.78256e-05
6.11582e-05
3.28844e-05
6.39217e-05
3.77008e-05
4.20541e-05
3.11665e-06
-2.04849e-05
6.21755e-06
-2.66143e-05
8.46295e-06
-2.62483e-05
1.01549e-05
-2.52734e-05
1.15439e-05
-2.44594e-05
1.27712e-05
-2.38589e-05
1.39233e-05
-2.34574e-05
1.50593e-05
-2.32324e-05
1.62137e-05
-2.31391e-05
1.7403e-05
-2.31329e-05
1.86333e-05
-2.31791e-05
1.99054e-05
-2.32535e-05
2.12175e-05
-2.33384e-05
2.25656e-05
-2.34175e-05
2.39444e-05
-2.34771e-05
2.53483e-05
-2.35055e-05
2.6771e-05
-2.34902e-05
2.82051e-05
-2.34186e-05
2.96438e-05
-2.32809e-05
3.108e-05
-2.30663e-05
3.25072e-05
-2.27649e-05
3.39196e-05
-2.23667e-05
3.53121e-05
-2.18583e-05
3.66786e-05
-2.12229e-05
3.80144e-05
-2.04462e-05
3.93199e-05
-1.95185e-05
4.05996e-05
-1.84206e-05
4.18559e-05
-1.7114e-05
4.30816e-05
-1.55452e-05
4.42674e-05
-1.36848e-05
4.54118e-05
-1.15336e-05
4.65226e-05
-9.10231e-06
4.76187e-05
-6.40387e-06
4.8734e-05
-3.45015e-06
4.99129e-05
-2.314e-07
5.11945e-05
3.29643e-06
5.26067e-05
7.17819e-06
5.41709e-05
1.14236e-05
5.59108e-05
1.59878e-05
5.78642e-05
2.07644e-05
6.00826e-05
2.56072e-05
6.26266e-05
3.03404e-05
6.55525e-05
3.4775e-05
3.8702e-05
3.47192e-06
-2.39568e-05
6.78202e-06
-2.99244e-05
8.9096e-06
-2.83759e-05
1.05029e-05
-2.68667e-05
1.18432e-05
-2.57997e-05
1.30459e-05
-2.50617e-05
1.41812e-05
-2.45927e-05
1.53049e-05
-2.43561e-05
1.64484e-05
-2.42825e-05
1.76261e-05
-2.43106e-05
1.88429e-05
-2.43959e-05
2.00992e-05
-2.45098e-05
2.13938e-05
-2.4633e-05
2.27226e-05
-2.47464e-05
2.40803e-05
-2.48348e-05
2.54614e-05
-2.48866e-05
2.68596e-05
-2.48884e-05
2.82677e-05
-2.48267e-05
2.96789e-05
-2.46921e-05
3.10864e-05
-2.44737e-05
3.24834e-05
-2.41619e-05
3.38643e-05
-2.37477e-05
3.52242e-05
-2.32182e-05
3.65573e-05
-2.25559e-05
3.78585e-05
-2.17474e-05
3.91278e-05
-2.07879e-05
4.03709e-05
-1.96636e-05
4.15949e-05
-1.8338e-05
4.27985e-05
-1.67487e-05
4.39796e-05
-1.48659e-05
4.51431e-05
-1.26972e-05
4.62983e-05
-1.02575e-05
4.74582e-05
-7.56368e-06
4.86489e-05
-4.64092e-06
4.9915e-05
-1.49752e-06
5.12996e-05
1.91191e-06
5.28323e-05
5.64551e-06
5.4534e-05
9.72186e-06
5.64196e-05
1.41023e-05
5.85188e-05
1.86652e-05
6.08711e-05
2.32549e-05
6.35241e-05
2.76873e-05
6.65072e-05
3.1792e-05
3.53851e-05
4.80789e-06
-2.87647e-05
7.56924e-06
-3.26858e-05
9.09618e-06
-2.99029e-05
1.05197e-05
-2.82902e-05
1.18419e-05
-2.71218e-05
1.30723e-05
-2.62921e-05
1.4246e-05
-2.57664e-05
1.54076e-05
-2.55178e-05
1.65806e-05
-2.54555e-05
1.77775e-05
-2.55075e-05
1.90044e-05
-2.56228e-05
2.02637e-05
-2.57692e-05
2.15553e-05
-2.59246e-05
2.28756e-05
-2.60666e-05
2.422e-05
-2.61791e-05
2.55829e-05
-2.62496e-05
2.6958e-05
-2.62635e-05
2.83391e-05
-2.62078e-05
2.97201e-05
-2.6073e-05
3.10946e-05
-2.58483e-05
3.24566e-05
-2.55239e-05
3.37993e-05
-2.50903e-05
3.51167e-05
-2.45356e-05
3.64061e-05
-2.38453e-05
3.76654e-05
-2.30067e-05
3.88896e-05
-2.20121e-05
4.00737e-05
-2.08478e-05
4.12237e-05
-1.94879e-05
4.23559e-05
-1.7881e-05
4.3492e-05
-1.6002e-05
4.46534e-05
-1.38586e-05
4.58585e-05
-1.14626e-05
4.71147e-05
-8.81994e-06
4.84256e-05
-5.95177e-06
4.98099e-05
-2.88181e-06
5.1295e-05
4.26808e-07
5.29144e-05
4.02606e-06
5.47031e-05
7.93314e-06
5.66752e-05
1.21302e-05
5.8857e-05
1.64834e-05
6.12728e-05
2.0839e-05
6.39623e-05
2.49978e-05
6.69334e-05
2.88209e-05
3.21493e-05
8.69885e-06
-3.74635e-05
8.41707e-06
-3.2404e-05
8.69944e-06
-3.01852e-05
1.00606e-05
-2.96514e-05
1.14733e-05
-2.85345e-05
1.28294e-05
-2.76483e-05
1.41337e-05
-2.70706e-05
1.54042e-05
-2.67883e-05
1.66564e-05
-2.67076e-05
1.79076e-05
-2.67587e-05
1.91709e-05
-2.68862e-05
2.04537e-05
-2.70519e-05
2.17567e-05
-2.72276e-05
2.30789e-05
-2.73889e-05
2.44178e-05
-2.7518e-05
2.57663e-05
-2.7598e-05
2.71182e-05
-2.76154e-05
2.847e-05
-2.75597e-05
2.98154e-05
-2.74184e-05
3.11496e-05
-2.71825e-05
3.24676e-05
-2.68419e-05
3.37594e-05
-2.63821e-05
3.50159e-05
-2.57921e-05
3.62397e-05
-2.50691e-05
3.74381e-05
-2.42051e-05
3.85962e-05
-2.31702e-05
3.96873e-05
-2.19389e-05
4.0709e-05
-2.05097e-05
4.17129e-05
-1.88848e-05
4.27587e-05
-1.70479e-05
4.38972e-05
-1.4997e-05
4.51775e-05
-1.27429e-05
4.6625e-05
-1.02674e-05
4.81914e-05
-7.51818e-06
4.97627e-05
-4.45313e-06
5.13234e-05
-1.13384e-06
5.30072e-05
2.34227e-06
5.4831e-05
6.10935e-06
5.68172e-05
1.0144e-05
5.90132e-05
1.42874e-05
6.14241e-05
1.84281e-05
6.40934e-05
2.23285e-05
6.70043e-05
2.591e-05
2.90211e-05
1.40494e-05
-5.15129e-05
8.53428e-06
-2.68889e-05
7.42794e-06
-2.90789e-05
9.17312e-06
-3.13966e-05
1.09221e-05
-3.02835e-05
1.25358e-05
-2.92619e-05
1.40564e-05
-2.85913e-05
1.54811e-05
-2.82129e-05
1.68332e-05
-2.80597e-05
1.81484e-05
-2.8074e-05
1.94534e-05
-2.81912e-05
2.07627e-05
-2.83611e-05
2.20799e-05
-2.85448e-05
2.34071e-05
-2.87162e-05
2.47431e-05
-2.88539e-05
2.60809e-05
-2.89359e-05
2.74165e-05
-2.8951e-05
2.87468e-05
-2.889e-05
3.00669e-05
-2.87385e-05
3.13725e-05
-2.84882e-05
3.2656e-05
-2.81254e-05
3.39047e-05
-2.76307e-05
3.51104e-05
-2.69979e-05
3.62757e-05
-2.62344e-05
3.73941e-05
-2.53235e-05
3.8435e-05
-2.42111e-05
3.93687e-05
-2.28726e-05
4.02108e-05
-2.13518e-05
4.10347e-05
-1.97087e-05
4.19117e-05
-1.79249e-05
4.28861e-05
-1.59714e-05
4.4009e-05
-1.38659e-05
4.53964e-05
-1.16547e-05
4.73355e-05
-9.45733e-06
4.95311e-05
-6.64873e-06
5.14516e-05
-3.05434e-06
5.32428e-05
5.51072e-07
5.50569e-05
4.29527e-06
5.70344e-05
8.16648e-06
5.9208e-05
1.21138e-05
6.15446e-05
1.60916e-05
6.41384e-05
1.97347e-05
6.69382e-05
2.31101e-05
2.60286e-05
1.61655e-06
-5.31294e-05
4.09544e-06
-2.93678e-05
5.56489e-06
-3.05483e-05
7.13584e-06
-3.29675e-05
9.3385e-06
-3.24862e-05
1.14912e-05
-3.14146e-05
1.35676e-05
-3.06677e-05
1.55258e-05
-3.01712e-05
1.73865e-05
-2.99204e-05
1.91658e-05
-2.98532e-05
2.08825e-05
-2.99079e-05
2.25541e-05
-3.00328e-05
2.41931e-05
-3.01837e-05
2.58053e-05
-3.03284e-05
2.73955e-05
-3.04441e-05
2.89689e-05
-3.05093e-05
3.05274e-05
-3.05095e-05
3.20698e-05
-3.04324e-05
3.3594e-05
-3.02627e-05
3.50944e-05
-2.99886e-05
3.65637e-05
-2.95947e-05
3.79992e-05
-2.90662e-05
3.9398e-05
-2.83967e-05
4.07477e-05
-2.75842e-05
4.20325e-05
-2.66084e-05
4.32487e-05
-2.54272e-05
4.44011e-05
-2.40251e-05
4.5489e-05
-2.24397e-05
4.64992e-05
-2.07189e-05
4.74283e-05
-1.88539e-05
4.82699e-05
-1.6813e-05
4.89822e-05
-1.45782e-05
4.94632e-05
-1.21357e-05
4.94623e-05
-9.45649e-06
4.89624e-05
-6.14883e-06
5.03218e-05
-4.41373e-06
5.28582e-05
-1.98531e-06
5.53697e-05
1.78381e-06
5.74961e-05
6.04011e-06
5.96391e-05
9.97074e-06
6.19221e-05
1.38086e-05
6.44244e-05
1.72325e-05
6.70413e-05
2.04932e-05
6.98448e-05
2.32251e-05
2.55224e-05
-6.89002e-06
-4.62394e-05
-7.95723e-07
-3.54621e-05
3.43732e-06
-3.47814e-05
6.10939e-06
-3.56396e-05
8.7229e-06
-3.50997e-05
1.13432e-05
-3.40348e-05
1.38226e-05
-3.31471e-05
1.61657e-05
-3.25143e-05
1.83774e-05
-3.21322e-05
2.04739e-05
-3.19497e-05
2.24747e-05
-3.19087e-05
2.43989e-05
-3.19569e-05
2.62613e-05
-3.20461e-05
2.80728e-05
-3.214e-05
2.98423e-05
-3.22136e-05
3.15785e-05
-3.22455e-05
3.32877e-05
-3.22187e-05
3.49717e-05
-3.21164e-05
3.66303e-05
-3.19213e-05
3.82602e-05
-3.16185e-05
3.98585e-05
-3.1193e-05
4.14235e-05
-3.06312e-05
4.29499e-05
-2.99231e-05
4.44256e-05
-2.90599e-05
4.58386e-05
-2.80214e-05
4.71899e-05
-2.67784e-05
4.84854e-05
-2.53206e-05
4.97164e-05
-2.36707e-05
5.08532e-05
-2.18557e-05
5.18629e-05
-1.98636e-05
5.27103e-05
-1.76605e-05
5.33553e-05
-1.52231e-05
5.37414e-05
-1.25218e-05
5.38571e-05
-9.57228e-06
5.42407e-05
-6.53237e-06
5.39599e-05
-4.13295e-06
5.34496e-05
-1.47501e-06
5.43415e-05
8.91939e-07
5.6952e-05
3.4296e-06
6.02811e-05
6.64166e-06
6.29506e-05
1.11391e-05
6.52594e-05
1.49236e-05
6.76648e-05
1.80879e-05
7.02472e-05
2.06427e-05
2.28706e-05
-4.84748e-06
-4.13919e-05
-7.7556e-07
-3.9534e-05
3.21701e-06
-3.8774e-05
6.22575e-06
-3.86484e-05
9.02891e-06
-3.79029e-05
1.18377e-05
-3.68436e-05
1.45614e-05
-3.58708e-05
1.71611e-05
-3.5114e-05
1.96222e-05
-3.45933e-05
2.19503e-05
-3.42778e-05
2.41603e-05
-3.41187e-05
2.62696e-05
-3.40663e-05
2.8296e-05
-3.40725e-05
3.02548e-05
-3.40988e-05
3.21584e-05
-3.41172e-05
3.40175e-05
-3.41046e-05
3.58394e-05
-3.40406e-05
3.76281e-05
-3.39051e-05
3.93856e-05
-3.36787e-05
4.11114e-05
-3.33443e-05
4.28047e-05
-3.28863e-05
4.44638e-05
-3.22903e-05
4.60839e-05
-3.15432e-05
4.76558e-05
-3.06318e-05
4.91716e-05
-2.95372e-05
5.06319e-05
-2.82387e-05
5.20396e-05
-2.67283e-05
5.33843e-05
-2.50154e-05
5.46374e-05
-2.31088e-05
5.57676e-05
-2.09939e-05
5.67483e-05
-1.86412e-05
5.75582e-05
-1.60331e-05
5.82014e-05
-1.3165e-05
5.8721e-05
-1.00919e-05
5.92027e-05
-7.01402e-06
5.9221e-05
-4.15128e-06
5.90575e-05
-1.31147e-06
5.87457e-05
1.20367e-06
5.84141e-05
3.76124e-06
5.99601e-05
5.09563e-06
6.31078e-05
7.99138e-06
6.62049e-05
1.18265e-05
6.9106e-05
1.51868e-05
7.14438e-05
1.83049e-05
2.05461e-05
-1.98813e-06
-3.94038e-05
5.52831e-07
-4.2075e-05
3.89576e-06
-4.21169e-05
6.94958e-06
-4.17022e-05
9.87474e-06
-4.0828e-05
1.27739e-05
-3.97428e-05
1.56123e-05
-3.87093e-05
1.83504e-05
-3.7852e-05
2.09647e-05
-3.72076e-05
2.34493e-05
-3.67625e-05
2.58106e-05
-3.648e-05
2.8061e-05
-3.63167e-05
3.02168e-05
-3.62282e-05
3.22941e-05
-3.61761e-05
3.43066e-05
-3.61297e-05
3.62653e-05
-3.60633e-05
3.8178e-05
-3.59534e-05
4.00503e-05
-3.57774e-05
4.18857e-05
-3.55142e-05
4.36862e-05
-3.51448e-05
4.54521e-05
-3.46522e-05
4.71824e-05
-3.40206e-05
4.88739e-05
-3.32347e-05
5.0521e-05
-3.22789e-05
5.21195e-05
-3.11356e-05
5.36696e-05
-2.97889e-05
5.51718e-05
-2.82305e-05
5.66171e-05
-2.64607e-05
5.79862e-05
-2.44778e-05
5.92595e-05
-2.22671e-05
6.04266e-05
-1.98083e-05
6.14855e-05
-1.7092e-05
6.24551e-05
-1.41345e-05
6.33616e-05
-1.09984e-05
6.41668e-05
-7.81926e-06
6.47304e-05
-4.71486e-06
6.51092e-05
-1.69023e-06
6.52149e-05
1.09796e-06
6.5409e-05
3.56714e-06
6.49855e-05
5.51916e-06
6.45518e-05
8.42506e-06
6.59486e-05
1.04297e-05
6.98133e-05
1.13221e-05
7.2756e-05
1.53622e-05
1.77947e-05
-6.13473e-07
-3.87904e-05
1.79331e-06
-4.44818e-05
4.89496e-06
-4.52185e-05
7.95728e-06
-4.47645e-05
1.09432e-05
-4.38139e-05
1.38875e-05
-4.2687e-05
1.67757e-05
-4.15975e-05
1.95805e-05
-4.06568e-05
2.22792e-05
-3.99063e-05
2.48608e-05
-3.93441e-05
2.73252e-05
-3.89444e-05
2.96795e-05
-3.86711e-05
3.1936e-05
-3.84847e-05
3.41084e-05
-3.83485e-05
3.62093e-05
-3.82307e-05
3.82493e-05
-3.81033e-05
4.02365e-05
-3.79405e-05
4.2177e-05
-3.77179e-05
4.40757e-05
-3.74128e-05
4.59357e-05
-3.70048e-05
4.77586e-05
-3.64751e-05
4.95445e-05
-3.58066e-05
5.12922e-05
-3.49824e-05
5.29993e-05
-3.3986e-05
5.46648e-05
-3.28011e-05
5.62894e-05
-3.14136e-05
5.78734e-05
-2.98144e-05
5.94114e-05
-2.79987e-05
6.08937e-05
-2.59602e-05
6.2313e-05
-2.36865e-05
6.36703e-05
-2.11656e-05
6.49759e-05
-1.83976e-05
6.62466e-05
-1.54052e-05
6.74943e-05
-1.22461e-05
6.86874e-05
-9.01236e-06
6.97637e-05
-5.79119e-06
7.07139e-05
-2.64043e-06
7.14673e-05
3.44545e-07
7.20039e-05
3.03058e-06
7.2067e-05
5.45604e-06
7.23895e-05
8.10254e-06
7.28674e-05
9.95185e-06
7.25836e-05
1.16059e-05
7.32157e-05
1.473e-05
1.43775e-05
2.30391e-07
-3.90207e-05
2.87756e-06
-4.71289e-05
5.97672e-06
-4.83177e-05
9.05022e-06
-4.7838e-05
1.20515e-05
-4.68152e-05
1.50002e-05
-4.56357e-05
1.78941e-05
-4.44914e-05
2.0717e-05
-4.34796e-05
2.34508e-05
-4.26402e-05
2.60836e-05
-4.19769e-05
2.86111e-05
-4.14719e-05
3.10357e-05
-4.10957e-05
3.33652e-05
-4.08141e-05
3.56097e-05
-4.0593e-05
3.77795e-05
-4.04006e-05
3.98839e-05
-4.02076e-05
4.19303e-05
-3.99869e-05
4.39252e-05
-3.97129e-05
4.58739e-05
-3.93615e-05
4.77801e-05
-3.89111e-05
4.96467e-05
-3.83417e-05
5.14749e-05
-3.76349e-05
5.32656e-05
-3.6773e-05
5.50191e-05
-3.57396e-05
5.67369e-05
-3.45189e-05
5.84213e-05
-3.3098e-05
6.0074e-05
-3.14671e-05
6.16945e-05
-2.96192e-05
6.32813e-05
-2.7547e-05
6.48363e-05
-2.52414e-05
6.63678e-05
-2.26971e-05
6.78903e-05
-1.99201e-05
6.94201e-05
-1.6935e-05
7.09647e-05
-1.37907e-05
7.25082e-05
-1.05558e-05
7.40171e-05
-7.30017e-06
7.54645e-05
-4.08773e-06
7.68007e-05
-9.91659e-07
7.79129e-05
1.91835e-06
7.87022e-05
4.66672e-06
7.94303e-05
7.37442e-06
7.98026e-05
9.57951e-06
7.97167e-05
1.16919e-05
8.04864e-05
1.39603e-05
1.49393e-05
8.61516e-07
-3.98823e-05
3.85011e-06
-5.01175e-05
7.01076e-06
-5.14783e-05
1.0076e-05
-5.09033e-05
1.30521e-05
-4.97912e-05
1.59691e-05
-4.85527e-05
1.88353e-05
-4.73576e-05
2.16424e-05
-4.62868e-05
2.43769e-05
-4.53746e-05
2.70268e-05
-4.46268e-05
2.95853e-05
-4.40304e-05
3.20514e-05
-4.35617e-05
3.44284e-05
-4.31912e-05
3.67229e-05
-4.28875e-05
3.89422e-05
-4.26199e-05
4.10936e-05
-4.23591e-05
4.31838e-05
-4.20772e-05
4.52188e-05
-4.17478e-05
4.72037e-05
-4.13464e-05
4.91428e-05
-4.08502e-05
5.10397e-05
-4.02385e-05
5.28969e-05
-3.94921e-05
5.47171e-05
-3.85932e-05
5.6503e-05
-3.75255e-05
5.82582e-05
-3.62741e-05
5.99871e-05
-3.48269e-05
6.16941e-05
-3.31741e-05
6.33834e-05
-3.13085e-05
6.506e-05
-2.92235e-05
6.67322e-05
-2.69137e-05
6.84135e-05
-2.43784e-05
7.01205e-05
-2.16271e-05
7.18691e-05
-1.86836e-05
7.36669e-05
-1.55884e-05
7.55065e-05
-1.23954e-05
7.73674e-05
-9.16098e-06
7.9219e-05
-5.93935e-06
8.10116e-05
-2.78429e-06
8.2664e-05
2.65955e-07
8.41137e-05
3.21702e-06
8.54039e-05
6.08422e-06
8.6317e-05
8.66643e-06
8.6868e-05
1.11408e-05
8.73401e-05
1.34883e-05
1.52858e-05
1.51098e-06
-4.13932e-05
4.71794e-06
-5.33245e-05
7.89692e-06