/*--------------------------------*- C++ -*----------------------------------*\
| =========                 |                                                 |
| \\      /  F ield         | OpenFOAM: The Open Source CFD Toolbox           |
|  \\    /   O peration     | Version:  5.0                                   |
|   \\  /    A nd           | Web:      www.OpenFOAM.org                      |
|    \\/     M anipulation  |                                                 |
\*---------------------------------------------------------------------------*/
FoamFile
{
    version     2.0;
    format      ascii;
    class       volVectorField;
    location    "0.4";
    object      U;
}
// * * * * * * * * * * * * * * * * * * * * * * * * * * * * * * * * * * * * * //

dimensions      [0 1 -1 0 0 0 0];

internalField   nonuniform List<vector> 
1935
(
(-0.0370946 0.0194756 0)
(-0.0628083 0.00747584 0)
(-0.0609676 -0.00737092 0)
(-0.0424166 -0.0144657 0)
(-0.0162533 -0.016929 0)
(0.0132026 -0.0171479 0)
(0.0432753 -0.0165139 0)
(0.0724215 -0.0154643 0)
(0.100197 -0.0143436 0)
(0.126451 -0.0133029 0)
(0.15128 -0.0124006 0)
(0.174877 -0.0116521 0)
(0.197456 -0.0110501 0)
(0.219217 -0.0105756 0)
(0.240329 -0.0102054 0)
(0.26093 -0.0099159 0)
(0.281119 -0.00968478 0)
(0.300963 -0.00949194 0)
(0.320494 -0.00931927 0)
(0.339716 -0.00915017 0)
(0.358604 -0.00896895 0)
(0.3771 -0.00876021 0)
(0.39512 -0.0085082 0)
(0.412547 -0.00819606 0)
(0.429227 -0.00780475 0)
(0.444964 -0.0073117 0)
(0.459507 -0.00668881 0)
(0.472545 -0.00589887 0)
(0.483666 -0.00489008 0)
(0.492353 -0.00357223 0)
(0.497839 -0.00178571 0)
(0.49935 0.00087965 0)
(0.494259 0.0045298 0)
(0.481242 0.00920162 0)
(0.458772 0.0149504 0)
(0.425055 0.0217501 0)
(0.378359 0.0293702 0)
(0.317498 0.0372271 0)
(0.242436 0.0442735 0)
(0.154891 0.0491803 0)
(0.0583049 0.0509812 0)
(-0.0383555 0.0533918 0)
(-0.159956 0.0401872 0)
(-0.235056 -0.00698273 0)
(-0.0328227 0.0480743 0)
(-0.0313172 0.0149924 0)
(-0.0212682 -0.0113045 0)
(-0.00329679 -0.0255735 0)
(0.020392 -0.0320349 0)
(0.0467334 -0.0340537 0)
(0.0739611 -0.0339558 0)
(0.100956 -0.0328152 0)
(0.127227 -0.0312981 0)
(0.152584 -0.0297521 0)
(0.177017 -0.0283433 0)
(0.200607 -0.0271373 0)
(0.223472 -0.0261441 0)
(0.245732 -0.0253446 0)
(0.267496 -0.0247065 0)
(0.288854 -0.0241922 0)
(0.309867 -0.0237638 0)
(0.330575 -0.0233848 0)
(0.350989 -0.0230204 0)
(0.371095 -0.0226371 0)
(0.390856 -0.0222021 0)
(0.410205 -0.0216817 0)
(0.429052 -0.0210405 0)
(0.447275 -0.0202392 0)
(0.464716 -0.0192326 0)
(0.481178 -0.0179667 0)
(0.496418 -0.0163745 0)
(0.510131 -0.01437 0)
(0.521945 -0.0118376 0)
(0.531411 -0.00860736 0)
(0.537982 -0.00443757 0)
(0.541133 0.00107934 0)
(0.540786 0.00828469 0)
(0.53576 0.0173631 0)
(0.524578 0.0285174 0)
(0.505513 0.0418894 0)
(0.476523 0.0573549 0)
(0.435259 0.0742515 0)
(0.379317 0.0911163 0)
(0.306976 0.105657 0)
(0.218359 0.115172 0)
(0.121863 0.119375 0)
(0.0172459 0.109514 0)
(-0.0623872 0.0519528 0)
(-0.0139528 0.0635733 0)
(-0.00572569 0.00937183 0)
(0.00585519 -0.0231681 0)
(0.0240894 -0.0408827 0)
(0.0461321 -0.0494316 0)
(0.0702787 -0.0525287 0)
(0.095286 -0.0526813 0)
(0.120358 -0.0513562 0)
(0.145082 -0.0494306 0)
(0.169275 -0.0473923 0)
(0.192886 -0.0454906 0)
(0.215941 -0.0438342 0)
(0.238498 -0.0424506 0)
(0.260629 -0.0413225 0)
(0.282398 -0.04041 0)
(0.303858 -0.0396628 0)
(0.325044 -0.039028 0)
(0.345971 -0.0384526 0)
(0.366635 -0.0378853 0)
(0.387007 -0.0372755 0)
(0.407041 -0.0365728 0)
(0.426663 -0.0357254 0)
(0.445778 -0.0346775 0)
(0.464262 -0.0333671 0)
(0.481957 -0.0317228 0)
(0.498671 -0.0296599 0)
(0.514167 -0.0270749 0)
(0.528158 -0.0238391 0)
(0.5403 -0.0197893 0)
(0.550185 -0.0147146 0)
(0.557337 -0.00834957 0)
(0.56122 -0.000353884 0)
(0.561404 0.009732 0)
(0.557246 0.0223462 0)
(0.547935 0.0378927 0)
(0.532527 0.0566926 0)
(0.509957 0.0787971 0)
(0.478988 0.103686 0)
(0.438164 0.129866 0)
(0.385913 0.154517 0)
(0.321044 0.173364 0)
(0.246452 0.181659 0)
(0.166903 0.167312 0)
(0.089855 0.104194 0)
(0.00147441 0.063194 0)
(0.0115584 0.00240842 0)
(0.0258835 -0.0351927 0)
(0.0448944 -0.0561345 0)
(0.0662945 -0.0664936 0)
(0.0890293 -0.0704791 0)
(0.112383 -0.0708992 0)
(0.135877 -0.0694946 0)
(0.159244 -0.0673095 0)
(0.182345 -0.0649368 0)
(0.205129 -0.0626887 0)
(0.22759 -0.0607075 0)
(0.249749 -0.0590355 0)
(0.271639 -0.0576577 0)
(0.293289 -0.0565289 0)
(0.314721 -0.0555896 0)
(0.335945 -0.0547743 0)
(0.356959 -0.0540168 0)
(0.377741 -0.0532512 0)
(0.398252 -0.052412 0)
(0.418437 -0.051433 0)
(0.438217 -0.0502452 0)
(0.457494 -0.0487737 0)
(0.476142 -0.0469353 0)
(0.494008 -0.0446339 0)
(0.510904 -0.041756 0)
(0.526606 -0.0381654 0)
(0.540843 -0.0336956 0)
(0.5533 -0.028142 0)
(0.563608 -0.0212521 0)
(0.571349 -0.0127175 0)
(0.576053 -0.00216227 0)
(0.577263 0.010877 0)
(0.574474 0.026899 0)
(0.567134 0.0463699 0)
(0.55466 0.0696614 0)
(0.536456 0.096888 0)
(0.511888 0.127635 0)
(0.48021 0.160557 0)
(0.440462 0.192847 0)
(0.391437 0.219637 0)
(0.333054 0.233605 0)
(0.26636 0.220992 0)
(0.191235 0.160781 0)
(0.0087761 0.0530392 0)
(0.0222002 -0.00817123 0)
(0.0401986 -0.04893 0)
(0.0606734 -0.0717237 0)
(0.0820625 -0.0830901 0)
(0.103962 -0.0875842 0)
(0.126133 -0.0881994 0)
(0.148399 -0.0868042 0)
(0.17065 -0.0845218 0)
(0.192818 -0.0819974 0)
(0.214866 -0.0795772 0)
(0.23678 -0.0774237 0)
(0.258556 -0.0755891 0)
(0.280198 -0.0740612 0)
(0.301707 -0.0727924 0)
(0.323082 -0.0717168 0)
(0.344311 -0.0707605 0)
(0.365374 -0.069847 0)
(0.386237 -0.068899 0)
(0.40685 -0.0678386 0)
(0.427152 -0.0665859 0)
(0.44706 -0.0650566 0)
(0.466473 -0.063159 0)
(0.485268 -0.06079 0)
(0.503295 -0.0578313 0)
(0.520376 -0.0541442 0)
(0.536299 -0.0495632 0)
(0.550813 -0.0438902 0)
(0.563631 -0.0368869 0)
(0.574424 -0.0282671 0)
(0.582828 -0.0176915 0)
(0.588442 -0.00476136 0)
(0.590863 0.0109948 0)
(0.589682 0.0300854 0)
(0.584493 0.0529858 0)
(0.574903 0.0800621 0)
(0.560538 0.111426 0)
(0.541015 0.146697 0)
(0.515855 0.184646 0)
(0.484313 0.222666 0)
(0.445153 0.256014 0)
(0.396856 0.276849 0)
(0.337261 0.271744 0)
(0.262406 0.221508 0)
(0.0106355 0.0399947 0)
(0.0286063 -0.022707 0)
(0.0504099 -0.0646697 0)
(0.072529 -0.0879317 0)
(0.0941795 -0.0994453 0)
(0.11558 -0.104006 0)
(0.136904 -0.104663 0)
(0.158231 -0.103288 0)
(0.179594 -0.101004 0)
(0.200995 -0.0984587 0)
(0.222422 -0.0960021 0)
(0.243861 -0.0938018 0)
(0.265295 -0.0919133 0)
(0.286709 -0.090325 0)
(0.308084 -0.0889872 0)
(0.329397 -0.08783 0)
(0.350622 -0.0867737 0)
(0.371722 -0.085734 0)
(0.392651 -0.0846248 0)
(0.413355 -0.0833581 0)
(0.433762 -0.0818426 0)
(0.453789 -0.0799809 0)
(0.473336 -0.0776662 0)
(0.49228 -0.0747784 0)
(0.51048 -0.0711797 0)
(0.527765 -0.0667089 0)
(0.54394 -0.0611762 0)
(0.558774 -0.0543571 0)
(0.572008 -0.0459869 0)
(0.583354 -0.035755 0)
(0.592496 -0.0233011 0)
(0.5991 -0.0082123 0)
(0.602833 0.00998241 0)
(0.603372 0.0317819 0)
(0.600408 0.0576493 0)
(0.59366 0.0879336 0)
(0.582864 0.122741 0)
(0.567729 0.161732 0)
(0.547836 0.203822 0)
(0.522441 0.246711 0)
(0.490154 0.286146 0)
(0.448608 0.314841 0)
(0.393583 0.320659 0)
(0.318166 0.286177 0)
(0.0116022 0.0252894 0)
(0.0334878 -0.040392 0)
(0.058159 -0.0822324 0)
(0.0815416 -0.104782 0)
(0.1034 -0.11572 0)
(0.124431 -0.119972 0)
(0.145112 -0.120517 0)
(0.16571 -0.119141 0)
(0.186365 -0.116907 0)
(0.207137 -0.114426 0)
(0.228042 -0.112029 0)
(0.24907 -0.109877 0)
(0.2702 -0.10802 0)
(0.291403 -0.106444 0)
(0.312648 -0.105098 0)
(0.333896 -0.103906 0)
(0.355107 -0.102787 0)
(0.376233 -0.101648 0)
(0.397219 -0.100399 0)
(0.418001 -0.0989418 0)
(0.438506 -0.0971766 0)
(0.458649 -0.0949948 0)
(0.478328 -0.0922769 0)
(0.497427 -0.0888881 0)
(0.515811 -0.0846737 0)
(0.533321 -0.0794535 0)
(0.549777 -0.0730172 0)
(0.56497 -0.0651191 0)
(0.57867 -0.0554746 0)
(0.590623 -0.0437564 0)
(0.600565 -0.0295928 0)
(0.608222 -0.0125659 0)
(0.613329 0.00778908 0)
(0.615645 0.0319556 0)
(0.614936 0.0603806 0)
(0.610999 0.0934004 0)
(0.60363 0.13113 0)
(0.592576 0.173299 0)
(0.57742 0.219012 0)
(0.557369 0.266361 0)
(0.530879 0.311797 0)
(0.495049 0.34916 0)
(0.444367 0.368262 0)
(0.369454 0.354123 0)
(0.0132799 0.00849981 0)
(0.0380251 -0.0604451 0)
(0.0644968 -0.101048 0)
(0.0885698 -0.122021 0)
(0.110434 -0.13189 0)
(0.131106 -0.135578 0)
(0.151251 -0.1359 0)
(0.17125 -0.134502 0)
(0.191316 -0.132348 0)
(0.211554 -0.129989 0)
(0.232002 -0.127724 0)
(0.252659 -0.125693 0)
(0.273503 -0.123936 0)
(0.294499 -0.122433 0)
(0.315606 -0.121129 0)
(0.336775 -0.119946 0)
(0.357953 -0.118796 0)
(0.379086 -0.117586 0)
(0.400108 -0.116216 0)
(0.420953 -0.114586 0)
(0.441541 -0.112586 0)
(0.461787 -0.110099 0)
(0.481592 -0.106995 0)
(0.500845 -0.103127 0)
(0.519418 -0.0983263 0)
(0.537165 -0.0923968 0)
(0.553922 -0.0851111 0)
(0.569502 -0.0762069 0)
(0.5837 -0.065385 0)
(0.596299 -0.0523092 0)
(0.607079 -0.0366046 0)
(0.615825 -0.0178569 0)
(0.622336 0.00438625 0)
(0.626448 0.0305917 0)
(0.627999 0.0611932 0)
(0.626848 0.0965224 0)
(0.622845 0.136718 0)
(0.615773 0.181601 0)
(0.605238 0.230487 0)
(0.590457 0.28191 0)
(0.569864 0.333154 0)
(0.540371 0.379525 0)
(0.495858 0.413367 0)
(0.424921 0.423254 0)
(0.0154536 -0.0105693 0)
(0.0423908 -0.0821557 0)
(0.0699032 -0.120539 0)
(0.0942093 -0.139365 0)
(0.115899 -0.147872 0)
(0.136188 -0.150846 0)
(0.155844 -0.15088 0)
(0.175311 -0.149445 0)
(0.194851 -0.147392 0)
(0.214602 -0.145198 0)
(0.23462 -0.143118 0)
(0.254916 -0.141266 0)
(0.275469 -0.139665 0)
(0.296241 -0.138286 0)
(0.317185 -0.13707 0)
(0.338244 -0.135933 0)
(0.359359 -0.134786 0)
(0.380465 -0.133529 0)
(0.401493 -0.132062 0)
(0.42237 -0.130276 0)
(0.443015 -0.128058 0)
(0.463341 -0.125284 0)
(0.483254 -0.121815 0)
(0.502646 -0.117494 0)
(0.521399 -0.112141 0)
(0.53938 -0.105547 0)
(0.556442 -0.0974718 0)
(0.572419 -0.0876385 0)
(0.58713 -0.0757388 0)
(0.600389 -0.0614337 0)
(0.612017 -0.0443541 0)
(0.621855 -0.0240979 0)
(0.629765 -0.000231624 0)
(0.635656 0.0276935 0)
(0.63944 0.0601009 0)
(0.641045 0.0973241 0)
(0.640381 0.139534 0)
(0.637294 0.186641 0)
(0.631471 0.238171 0)
(0.62226 0.293089 0)
(0.608308 0.349521 0)
(0.586826 0.404366 0)
(0.552021 0.452895 0)
(0.491504 0.488753 0)
(0.0177717 -0.0319653 0)
(0.0464708 -0.105045 0)
(0.0745927 -0.14033 0)
(0.0988945 -0.156628 0)
(0.120325 -0.163605 0)
(0.140222 -0.16578 0)
(0.159405 -0.165482 0)
(0.178362 -0.164 0)
(0.197392 -0.16206 0)
(0.216659 -0.160064 0)
(0.23624 -0.158212 0)
(0.256155 -0.156585 0)
(0.276387 -0.155188 0)
(0.296898 -0.15398 0)
(0.317635 -0.152892 0)
(0.33854 -0.151839 0)
(0.359544 -0.150725 0)
(0.380577 -0.14945 0)
(0.401566 -0.147907 0)
(0.422432 -0.145986 0)
(0.443093 -0.14357 0)
(0.463462 -0.140529 0)
(0.483447 -0.136719 0)
(0.502948 -0.131974 0)
(0.521855 -0.126107 0)
(0.540049 -0.118899 0)
(0.557401 -0.110097 0)
(0.573763 -0.0994146 0)
(0.588978 -0.0865369 0)
(0.602884 -0.0711281 0)
(0.61534 -0.0528336 0)
(0.626235 -0.0312737 0)
(0.635499 -0.00604073 0)
(0.643109 0.0232919 0)
(0.649063 0.0571368 0)
(0.653361 0.0958319 0)
(0.655993 0.139577 0)
(0.656899 0.188358 0)
(0.655912 0.241864 0)
(0.652637 0.299402 0)
(0.6462 0.359798 0)
(0.634682 0.421338 0)
(0.613912 0.482051 0)
(0.573209 0.541492 0)
(0.0199757 -0.0558093 0)
(0.050147 -0.129068 0)
(0.0787523 -0.160447 0)
(0.103027 -0.173912 0)
(0.124213 -0.179221 0)
(0.143726 -0.180516 0)
(0.162433 -0.179839 0)
(0.180864 -0.178292 0)
(0.199358 -0.176475 0)
(0.218109 -0.174701 0)
(0.237213 -0.173115 0)
(0.256701 -0.171757 0)
(0.27656 -0.170609 0)
(0.296754 -0.169616 0)
(0.317228 -0.168698 0)
(0.337916 -0.167764 0)
(0.358749 -0.166715 0)
(0.37965 -0.165448 0)
(0.40054 -0.163853 0)
(0.421338 -0.161818 0)
(0.441959 -0.159223 0)
(0.462319 -0.155936 0)
(0.482326 -0.151807 0)
(0.501887 -0.146668 0)
(0.520903 -0.140323 0)
(0.53927 -0.132547 0)
(0.556875 -0.123081 0)
(0.573593 -0.111625 0)
(0.589282 -0.0978594 0)
(0.603802 -0.0814577 0)
(0.61704 -0.0620894 0)
(0.628933 -0.0394085 0)
(0.639472 -0.0130442 0)
(0.64871 0.0174009 0)
(0.656735 0.0523244 0)
(0.663635 0.0920688 0)
(0.66949 0.136854 0)
(0.674356 0.186707 0)
(0.678249 0.241405 0)
(0.68111 0.300445 0)
(0.682711 0.363045 0)
(0.682439 0.428285 0)
(0.679039 0.495805 0)
(0.669388 0.568725 0)
(0.0218373 -0.0820081 0)
(0.0533602 -0.154262 0)
(0.0825828 -0.181017 0)
(0.106968 -0.191347 0)
(0.127986 -0.194819 0)
(0.147132 -0.19512 0)
(0.165338 -0.193996 0)
(0.1832 -0.192355 0)
(0.201104 -0.190663 0)
(0.219283 -0.189137 0)
(0.237852 -0.187852 0)
(0.256853 -0.186807 0)
(0.276276 -0.185953 0)
(0.296087 -0.185217 0)
(0.316227 -0.18451 0)
(0.33663 -0.183733 0)
(0.357221 -0.182783 0)
(0.377919 -0.181552 0)
(0.398641 -0.17993 0)
(0.419301 -0.177804 0)
(0.439815 -0.175051 0)
(0.460097 -0.171538 0)
(0.48006 -0.167116 0)
(0.499617 -0.16161 0)
(0.518677 -0.154824 0)
(0.537153 -0.146532 0)
(0.554953 -0.136465 0)
(0.571974 -0.124312 0)
(0.588089 -0.109747 0)
(0.603167 -0.092454 0)
(0.617117 -0.0721392 0)
(0.629914 -0.0485052 0)
(0.641612 -0.0212317 0)
(0.652342 0.0100371 0)
(0.662291 0.0456784 0)
(0.671642 0.0860377 0)
(0.680572 0.131346 0)
(0.689248 0.181636 0)
(0.697858 0.23669 0)
(0.706651 0.296016 0)
(0.715965 0.358878 0)
(0.726276 0.424415 0)
(0.738497 0.492193 0)
(0.754389 0.564134 0)
(0.0231876 -0.110177 0)
(0.056161 -0.180598 0)
(0.0863345 -0.202132 0)
(0.111049 -0.208982 0)
(0.131983 -0.210379 0)
(0.15076 -0.209522 0)
(0.168419 -0.207852 0)
(0.185649 -0.206076 0)
(0.202903 -0.204508 0)
(0.22045 -0.203251 0)
(0.238427 -0.202304 0)
(0.25688 -0.20161 0)
(0.275806 -0.201092 0)
(0.295167 -0.200655 0)
(0.314906 -0.200197 0)
(0.334951 -0.199613 0)
(0.355225 -0.198794 0)
(0.375644 -0.197628 0)
(0.39612 -0.196004 0)
(0.416564 -0.193808 0)
(0.43689 -0.190918 0)
(0.457012 -0.187203 0)
(0.476848 -0.182511 0)
(0.496314 -0.17667 0)
(0.515329 -0.169485 0)
(0.533822 -0.160731 0)
(0.551729 -0.150136 0)
(0.568971 -0.137373 0)
(0.585434 -0.1221 0)
(0.600988 -0.104015 0)
(0.61555 -0.0828728 0)
(0.629124 -0.0584412 0)
(0.641822 -0.0304695 0)
(0.653852 0.00134031 0)
(0.665507 0.0373373 0)
(0.677073 0.0778732 0)
(0.688814 0.123188 0)
(0.700986 0.173301 0)
(0.713893 0.227931 0)
(0.727979 0.286481 0)
(0.743897 0.348037 0)
(0.762617 0.411417 0)
(0.785659 0.475354 0)
(0.815488 0.539097 0)
(0.0238971 -0.140072 0)
(0.0587649 -0.2083 0)
(0.0903378 -0.224041 0)
(0.115562 -0.226931 0)
(0.136425 -0.225902 0)
(0.154781 -0.223664 0)
(0.171825 -0.221328 0)
(0.18836 -0.219372 0)
(0.204912 -0.217929 0)
(0.221787 -0.216968 0)
(0.239131 -0.216391 0)
(0.256996 -0.216088 0)
(0.275376 -0.215943 0)
(0.294235 -0.215842 0)
(0.31351 -0.215668 0)
(0.33313 -0.21531 0)
(0.353015 -0.214652 0)
(0.373077 -0.213577 0)
(0.393224 -0.211974 0)
(0.413364 -0.209729 0)
(0.433409 -0.206722 0)
(0.453276 -0.202826 0)
(0.472883 -0.19789 0)
(0.492152 -0.191741 0)
(0.511007 -0.184193 0)
(0.529394 -0.175034 0)
(0.547282 -0.16399 0)
(0.564627 -0.150713 0)
(0.581328 -0.134829 0)
(0.597249 -0.116046 0)
(0.6123 -0.0941789 0)
(0.626507 -0.0690828 0)
(0.640022 -0.0406 0)
(0.653131 -0.0085135 0)
(0.666228 0.0274877 0)
(0.679709 0.0677716 0)
(0.693914 0.112605 0)
(0.70915 0.161992 0)
(0.725768 0.215567 0)
(0.744278 0.272573 0)
(0.765431 0.331866 0)
(0.790269 0.391934 0)
(0.820196 0.450925 0)
(0.857145 0.506754 0)
(0.0237551 -0.171271 0)
(0.061638 -0.237761 0)
(0.0949518 -0.246962 0)
(0.120611 -0.24518 0)
(0.141256 -0.241282 0)
(0.159081 -0.237427 0)
(0.175447 -0.23432 0)
(0.191261 -0.232165 0)
(0.20711 -0.230873 0)
(0.223322 -0.230249 0)
(0.240042 -0.230088 0)
(0.257316 -0.230218 0)
(0.275137 -0.23049 0)
(0.293466 -0.230764 0)
(0.312238 -0.230912 0)
(0.331381 -0.230815 0)
(0.350813 -0.230349 0)
(0.370445 -0.229393 0)
(0.39018 -0.227835 0)
(0.409925 -0.225561 0)
(0.42959 -0.222457 0)
(0.449091 -0.218399 0)
(0.468354 -0.213237 0)
(0.4873 -0.206801 0)
(0.505853 -0.198915 0)
(0.523976 -0.189395 0)
(0.541674 -0.177976 0)
(0.558955 -0.164281 0)
(0.57574 -0.14788 0)
(0.591882 -0.128482 0)
(0.607282 -0.105971 0)
(0.621972 -0.0803086 0)
(0.63613 -0.0514551 0)
(0.650098 -0.0193089 0)
(0.664365 0.0163811 0)
(0.679438 0.0560116 0)
(0.695715 0.0999146 0)
(0.713515 0.148108 0)
(0.733174 0.200158 0)
(0.755176 0.255138 0)
(0.780227 0.3117 0)
(0.809269 0.368107 0)
(0.843417 0.422281 0)
(0.883962 0.471806 0)
(0.0225215 -0.203691 0)
(0.0657788 -0.269853 0)
(0.100434 -0.271043 0)
(0.125822 -0.263632 0)
(0.145876 -0.256486 0)
(0.163056 -0.250889 0)
(0.178765 -0.246993 0)
(0.19394 -0.244687 0)
(0.209195 -0.243621 0)
(0.22485 -0.243409 0)
(0.241036 -0.243731 0)
(0.257787 -0.244354 0)
(0.275093 -0.245097 0)
(0.292913 -0.245797 0)
(0.311182 -0.246312 0)
(0.329827 -0.246516 0)
(0.348767 -0.246278 0)
(0.367911 -0.24547 0)
(0.387161 -0.243981 0)
(0.406424 -0.241697 0)
(0.425608 -0.238508 0)
(0.444632 -0.234297 0)
(0.463423 -0.228918 0)
(0.481905 -0.222197 0)
(0.499998 -0.213971 0)
(0.51767 -0.204098 0)
(0.534964 -0.192343 0)
(0.551945 -0.178301 0)
(0.568578 -0.161464 0)
(0.58473 -0.14153 0)
(0.600311 -0.118457 0)
(0.615359 -0.092307 0)
(0.630047 -0.0631567 0)
(0.644729 -0.0310548 0)
(0.659951 0.00413924 0)
(0.676314 0.0428418 0)
(0.694272 0.0854812 0)
(0.714127 0.13213 0)
(0.736148 0.182329 0)
(0.760728 0.235019 0)
(0.788467 0.288689 0)
(0.820145 0.341467 0)
(0.856573 0.391251 0)
(0.89845 0.43567 0)
(0.0230847 -0.240097 0)
(0.0734254 -0.304944 0)
(0.106339 -0.295636 0)
(0.129709 -0.282208 0)
(0.148701 -0.271918 0)
(0.165307 -0.264666 0)
(0.180629 -0.26 0)
(0.195488 -0.257558 0)
(0.210457 -0.25671 0)
(0.225823 -0.25688 0)
(0.241694 -0.257637 0)
(0.258097 -0.258694 0)
(0.275024 -0.259849 0)
(0.292435 -0.260912 0)
(0.310268 -0.261728 0)
(0.328451 -0.262172 0)
(0.346902 -0.262104 0)
(0.365534 -0.261386 0)
(0.384252 -0.259912 0)
(0.402965 -0.257569 0)
(0.421582 -0.254249 0)
(0.440023 -0.249852 0)
(0.458216 -0.244238 0)
(0.476086 -0.237223 0)
(0.49356 -0.22866 0)
(0.510605 -0.218468 0)
(0.527259 -0.206466 0)
(0.543609 -0.192252 0)
(0.559693 -0.175202 0)
(0.57549 -0.154989 0)
(0.591007 -0.13166 0)
(0.606336 -0.105356 0)
(0.621619 -0.0762187 0)
(0.637123 -0.0443725 0)
(0.653312 -0.00973765 0)
(0.670768 0.0280662 0)
(0.690028 0.0694195 0)
(0.711419 0.114447 0)
(0.735126 0.162711 0)
(0.761443 0.213045 0)
(0.790818 0.263849 0)
(0.823877 0.313203 0)
(0.861173 0.359135 0)
(0.902959 0.3995 0)
(0.0409996 -0.280929 0)
(0.0888175 -0.340097 0)
(0.109896 -0.317346 0)
(0.129077 -0.299082 0)
(0.147194 -0.286489 0)
(0.163861 -0.27776 0)
(0.179553 -0.272187 0)
(0.194824 -0.269357 0)
(0.210105 -0.268436 0)
(0.225645 -0.268693 0)
(0.241552 -0.269605 0)
(0.257888 -0.270842 0)
(0.274657 -0.272183 0)
(0.291827 -0.273407 0)
(0.309353 -0.274348 0)
(0.327164 -0.274882 0)
(0.34517 -0.274856 0)
(0.3633 -0.274123 0)
(0.381469 -0.272584 0)
(0.39959 -0.270123 0)
(0.417591 -0.266641 0)
(0.435388 -0.262052 0)
(0.452882 -0.256222 0)
(0.470003 -0.248965 0)
(0.486752 -0.240144 0)
(0.503096 -0.229751 0)
(0.518953 -0.217654 0)
(0.534257 -0.203441 0)
(0.549147 -0.186389 0)
(0.563971 -0.166198 0)
(0.579004 -0.143002 0)
(0.594477 -0.117019 0)
(0.610587 -0.0885303 0)
(0.627434 -0.0578694 0)
(0.64516 -0.0248627 0)
(0.663957 0.0113469 0)
(0.684246 0.0513037 0)
(0.706569 0.0949595 0)
(0.731148 0.14162 0)
(0.758366 0.189848 0)
(0.788454 0.238057 0)
(0.821919 0.284283 0)
(0.859104 0.326887 0)
(0.899972 0.364047 0)
(0.106859 -0.333696 0)
(0.11666 -0.36973 0)
(0.10508 -0.329746 0)
(0.121422 -0.310726 0)
(0.140285 -0.297171 0)
(0.158316 -0.287389 0)
(0.175637 -0.281055 0)
(0.192389 -0.277932 0)
(0.208738 -0.276911 0)
(0.224981 -0.277168 0)
(0.241309 -0.278117 0)
(0.257879 -0.279405 0)
(0.274716 -0.280804 0)
(0.291804 -0.282059 0)
(0.309146 -0.282997 0)
(0.326668 -0.283502 0)
(0.344255 -0.28341 0)
(0.361871 -0.282561 0)
(0.379453 -0.280871 0)
(0.396905 -0.278214 0)
(0.414196 -0.274498 0)
(0.431225 -0.269659 0)
(0.44783 -0.263577 0)
(0.463938 -0.256071 0)
(0.479706 -0.247005 0)
(0.495126 -0.236451 0)
(0.509873 -0.224304 0)
(0.523549 -0.210174 0)
(0.536493 -0.193227 0)
(0.549673 -0.17328 0)
(0.563749 -0.150582 0)
(0.579335 -0.125356 0)
(0.597109 -0.0976052 0)
(0.616977 -0.0676546 0)
(0.637549 -0.0363742 0)
(0.657681 -0.00326148 0)
(0.67876 0.0329961 0)
(0.701689 0.0737778 0)
(0.726259 0.118763 0)
(0.753418 0.165401 0)
(0.783255 0.211659 0)
(0.816288 0.255282 0)
(0.852645 0.295137 0)
(0.892076 0.329718 0)
(0.279014 -0.44334 0)
(0.118771 -0.344804 0)
(0.0839213 -0.322169 0)
(0.10722 -0.313959 0)
(0.130201 -0.30115 0)
(0.151585 -0.292033 0)
(0.171819 -0.286396 0)
(0.190815 -0.283923 0)
(0.208587 -0.283572 0)
(0.225694 -0.284607 0)
(0.242517 -0.286458 0)
(0.259362 -0.288719 0)
(0.276299 -0.291084 0)
(0.293342 -0.293312 0)
(0.310539 -0.29521 0)
(0.327814 -0.296567 0)
(0.345055 -0.297236 0)
(0.362266 -0.297135 0)
(0.379381 -0.296099 0)
(0.39632 -0.294041 0)
(0.413061 -0.290836 0)
(0.429448 -0.28623 0)
(0.44529 -0.280057 0)
(0.460527 -0.272344 0)
(0.475327 -0.26302 0)
(0.489391 -0.251409 0)
(0.502243 -0.237237 0)
(0.513486 -0.220792 0)
(0.523907 -0.202537 0)
(0.534728 -0.182075 0)
(0.546556 -0.15916 0)
(0.559862 -0.133759 0)
(0.57559 -0.105727 0)
(0.596775 -0.0750019 0)
(0.625043 -0.0443308 0)
(0.651802 -0.0130062 0)
(0.674941 0.0211031 0)
(0.697803 0.0579089 0)
(0.722338 0.0971897 0)
(0.749509 0.139699 0)
(0.77821 0.184181 0)
(0.810027 0.225901 0)
(0.844762 0.26391 0)
(0.882235 0.296617 0)
(0.051553 -0.642872 0)
(0.026288 -0.258657 0)
(0.0537166 -0.307926 0)
(0.0813983 -0.360865 0)
(0.105722 -0.354424 0)
(0.133372 -0.342845 0)
(0.160397 -0.33519 0)
(0.186236 -0.330151 0)
(0.210607 -0.327731 0)
(0.233803 -0.32745 0)
(0.256079 -0.32857 0)
(0.277683 -0.33044 0)
(0.298819 -0.332516 0)
(0.319581 -0.334459 0)
(0.34004 -0.335999 0)
(0.36025 -0.336844 0)
(0.380257 -0.336884 0)
(0.400078 -0.336023 0)
(0.419684 -0.334088 0)
(0.439036 -0.33099 0)
(0.458032 -0.32654 0)
(0.476614 -0.320539 0)
(0.494747 -0.312995 0)
(0.512329 -0.304059 0)
(0.529202 -0.293496 0)
(0.545221 -0.280634 0)
(0.560384 -0.265146 0)
(0.574669 -0.247755 0)
(0.58803 -0.229668 0)
(0.60043 -0.210922 0)
(0.611757 -0.191022 0)
(0.621731 -0.170019 0)
(0.630627 -0.148116 0)
(0.641002 -0.124354 0)
(0.61949 -0.0770378 0)
(0.630722 -0.0289607 0)
(0.657601 0.0108883 0)
(0.692412 0.0482129 0)
(0.7211 0.0848332 0)
(0.747603 0.12277 0)
(0.77611 0.160241 0)
(0.807512 0.196423 0)
(0.839657 0.23266 0)
(0.87437 0.264224 0)
(0.91106 0.290297 0)
(-0.124049 -0.573026 0)
(-0.0389637 -0.329417 0)
(0.0209496 -0.348319 0)
(0.0617369 -0.37389 0)
(0.0941916 -0.368067 0)
(0.127396 -0.355328 0)
(0.15974 -0.345247 0)
(0.190311 -0.338604 0)
(0.219098 -0.334974 0)
(0.246321 -0.333592 0)
(0.272194 -0.33372 0)
(0.296989 -0.334729 0)
(0.320931 -0.336093 0)
(0.344167 -0.337434 0)
(0.366814 -0.338489 0)
(0.388989 -0.339028 0)
(0.410791 -0.338889 0)
(0.432274 -0.337917 0)
(0.453443 -0.335933 0)
(0.474277 -0.332791 0)
(0.494727 -0.328337 0)
(0.514768 -0.322417 0)
(0.534367 -0.314948 0)
(0.55341 -0.305885 0)
(0.571723 -0.294998 0)
(0.589223 -0.281896 0)
(0.605985 -0.266432 0)
(0.622024 -0.248968 0)
(0.637087 -0.229968 0)
(0.650757 -0.209323 0)
(0.66262 -0.186644 0)
(0.67203 -0.161691 0)
(0.67875 -0.134376 0)
(0.682971 -0.105931 0)
(0.683734 -0.0829326 0)
(0.693307 -0.0705678 0)
(0.675042 -0.0365768 0)
(0.675375 0.0206895 0)
(0.700934 0.0714984 0)
(0.741598 0.112457 0)
(0.782007 0.146393 0)
(0.811318 0.177973 0)
(0.840828 0.207725 0)
(0.873446 0.233707 0)
(0.906195 0.258278 0)
(-0.0754773 -0.458811 0)
(-0.0381035 -0.405682 0)
(0.0193872 -0.397618 0)
(0.0604469 -0.400162 0)
(0.0958285 -0.392692 0)
(0.131108 -0.381268 0)
(0.165983 -0.371138 0)
(0.199444 -0.363605 0)
(0.231187 -0.358715 0)
(0.261188 -0.356038 0)
(0.289599 -0.354983 0)
(0.316642 -0.354992 0)
(0.342539 -0.35554 0)
(0.367498 -0.356215 0)
(0.391695 -0.356733 0)
(0.415274 -0.356859 0)
(0.438349 -0.35639 0)
(0.460992 -0.355129 0)
(0.483237 -0.352876 0)
(0.505092 -0.349457 0)
(0.526548 -0.344711 0)
(0.547589 -0.338487 0)
(0.568183 -0.330659 0)
(0.588235 -0.321097 0)
(0.607618 -0.309591 0)
(0.626285 -0.295884 0)
(0.644287 -0.279885 0)
(0.661604 -0.261754 0)
(0.677984 -0.241652 0)
(0.693005 -0.219414 0)
(0.706319 -0.194689 0)
(0.717573 -0.167248 0)
(0.726599 -0.136834 0)
(0.733984 -0.104086 0)
(0.7399 -0.0723685 0)
(0.745013 -0.0465629 0)
(0.742178 -0.025607 0)
(0.749733 -0.0148404 0)
(0.724861 0.0194539 0)
(0.734355 0.0690275 0)
(0.772508 0.125665 0)
(0.808491 0.164714 0)
(0.850856 0.192919 0)
(0.88189 0.215353 0)
(0.910474 0.234619 0)
(-0.0309594 -0.434181 0)
(-0.0148107 -0.441461 0)
(0.0289735 -0.43731 0)
(0.0680405 -0.433309 0)
(0.104748 -0.424303 0)
(0.140945 -0.412773 0)
(0.176725 -0.401969 0)
(0.211472 -0.393238 0)
(0.244772 -0.386926 0)
(0.276454 -0.382804 0)
(0.306539 -0.380418 0)
(0.335159 -0.379258 0)
(0.362498 -0.378827 0)
(0.388764 -0.378707 0)
(0.414149 -0.378579 0)
(0.438805 -0.378177 0)
(0.46285 -0.377262 0)
(0.486363 -0.375603 0)
(0.509401 -0.372978 0)
(0.531999 -0.369195 0)
(0.554168 -0.364077 0)
(0.575908 -0.357462 0)
(0.597191 -0.349195 0)
(0.617958 -0.339115 0)
(0.638138 -0.327027 0)
(0.657706 -0.312741 0)
(0.676689 -0.296171 0)
(0.695049 -0.277359 0)
(0.712597 -0.256322 0)
(0.729066 -0.232893 0)
(0.744242 -0.206793 0)
(0.758082 -0.17788 0)
(0.770634 -0.146237 0)
(0.782318 -0.112412 0)
(0.793093 -0.0781233 0)
(0.801864 -0.0452147 0)
(0.807205 -0.0139858 0)
(0.812235 0.0118561 0)
(0.810981 0.0254308 0)
(0.819761 0.0209029 0)
(0.800922 0.0612817 0)
(0.795556 0.126536 0)
(0.848254 0.170076 0)
(0.883812 0.201125 0)
(0.923765 0.220113 0)
(-0.0154568 -0.421175 0)
(0.00323913 -0.466904 0)
(0.0414685 -0.471415 0)
(0.0794481 -0.466472 0)
(0.116578 -0.456558 0)
(0.153085 -0.444663 0)
(0.189071 -0.433224 0)
(0.224205 -0.423503 0)
(0.258143 -0.41594 0)
(0.290672 -0.410471 0)
(0.321733 -0.406768 0)
(0.351378 -0.404402 0)
(0.379734 -0.402919 0)
(0.406969 -0.401912 0)
(0.433253 -0.401041 0)
(0.458728 -0.400012 0)
(0.483509 -0.398557 0)
(0.507681 -0.396422 0)
(0.531313 -0.393369 0)
(0.554455 -0.389185 0)
(0.577135 -0.383677 0)
(0.599363 -0.376666 0)
(0.621131 -0.367977 0)
(0.642413 -0.357433 0)
(0.663183 -0.344855 0)
(0.683441 -0.330082 0)
(0.703207 -0.313021 0)
(0.722455 -0.29364 0)
(0.741081 -0.271886 0)
(0.758958 -0.247607 0)
(0.776043 -0.220636 0)
(0.7924 -0.190916 0)
(0.808251 -0.15868 0)
(0.823781 -0.124554 0)
(0.838953 -0.0896633 0)
(0.853067 -0.0550738 0)
(0.86543 -0.0210581 0)
(0.876367 0.0108038 0)
(0.883876 0.0377509 0)
(0.889641 0.0571867 0)
(0.888756 0.0755627 0)
(0.896296 0.0740942 0)
(0.9039 0.0845195 0)
(0.87828 0.162911 0)
(0.927688 0.196402 0)
(-0.00889495 -0.418855 0)
(0.0163173 -0.493387 0)
(0.0542723 -0.504511 0)
(0.091935 -0.499634 0)
(0.128945 -0.489036 0)
(0.165232 -0.476619 0)
(0.200913 -0.464563 0)
(0.235848 -0.453996 0)
(0.269798 -0.445373 0)
(0.302567 -0.438716 0)
(0.334054 -0.433798 0)
(0.364254 -0.430268 0)
(0.393236 -0.42773 0)
(0.421114 -0.425799 0)
(0.448022 -0.42413 0)
(0.474078 -0.42241 0)
(0.499385 -0.420351 0)
(0.524028 -0.417683 0)
(0.548078 -0.414152 0)
(0.571592 -0.40953 0)
(0.594608 -0.403607 0)
(0.617151 -0.39619 0)
(0.639231 -0.387092 0)
(0.660855 -0.376131 0)
(0.682029 -0.363138 0)
(0.702781 -0.347966 0)
(0.72314 -0.330511 0)
(0.743115 -0.310706 0)
(0.762685 -0.288471 0)
(0.78184 -0.26369 0)
(0.800638 -0.23627 0)
(0.819229 -0.206257 0)
(0.837823 -0.173904 0)
(0.856608 -0.139795 0)
(0.875527 -0.104761 0)
(0.894248 -0.0696074 0)
(0.91238 -0.0350176 0)
(0.929645 -0.00182701 0)
(0.944643 0.0292819 0)
(0.956329 0.0583597 0)
(0.965069 0.0860675 0)
(0.972985 0.103282 0)
(0.975391 0.115499 0)
(0.976225 0.124064 0)
(0.989633 0.119428 0)
(-0.00267436 -0.424356 0)
(0.0272863 -0.523982 0)
(0.0661645 -0.538307 0)
(0.103603 -0.532842 0)
(0.140022 -0.521387 0)
(0.17561 -0.508352 0)
(0.210581 -0.495715 0)
(0.244916 -0.484444 0)
(0.278458 -0.47495 0)
(0.311037 -0.467292 0)
(0.342537 -0.461309 0)
(0.372911 -0.456719 0)
(0.402176 -0.453179 0)
(0.430397 -0.450336 0)
(0.457665 -0.447851 0)
(0.484069 -0.445405 0)
(0.509695 -0.4427 0)
(0.534619 -0.439452 0)
(0.558909 -0.435399 0)
(0.582622 -0.4303 0)
(0.605804 -0.423934 0)
(0.628493 -0.416097 0)
(0.650718 -0.406596 0)
(0.67251 -0.395253 0)
(0.693905 -0.381905 0)
(0.714953 -0.366413 0)
(0.735712 -0.348671 0)
(0.756232 -0.328599 0)
(0.77656 -0.306117 0)
(0.796773 -0.281151 0)
(0.817002 -0.25367 0)
(0.837439 -0.223761 0)
(0.858299 -0.191693 0)
(0.879746 -0.157939 0)
(0.901782 -0.123163 0)
(0.924226 -0.0880373 0)
(0.946803 -0.0532033 0)
(0.969042 -0.019291 0)
(0.990023 0.0132324 0)
(1.00883 0.044565 0)
(1.02546 0.0752511 0)
(1.03906 0.102047 0)
(1.04794 0.126425 0)
(1.054 0.147151 0)
(1.05731 0.155725 0)
(0.00407733 -0.436904 0)
(0.0370004 -0.557699 0)
(0.0762831 -0.572722 0)
(0.113051 -0.565795 0)
(0.148425 -0.553261 0)
(0.182946 -0.539569 0)
(0.216913 -0.526414 0)
(0.250376 -0.514573 0)
(0.283226 -0.50438 0)
(0.315313 -0.495897 0)
(0.346514 -0.489006 0)
(0.376753 -0.483478 0)
(0.406007 -0.479017 0)
(0.434298 -0.475302 0)
(0.461674 -0.472009 0)
(0.488197 -0.468824 0)
(0.513931 -0.465443 0)
(0.53894 -0.461582 0)
(0.563283 -0.45697 0)
(0.587016 -0.45136 0)
(0.61019 -0.444524 0)
(0.632852 -0.436253 0)
(0.655049 -0.426355 0)
(0.676831 -0.414656 0)
(0.69826 -0.401002 0)
(0.719412 -0.385264 0)
(0.740372 -0.367342 0)
(0.761232 -0.347157 0)
(0.782098 -0.324647 0)
(0.803109 -0.299773 0)
(0.824444 -0.272548 0)
(0.84632 -0.243086 0)
(0.868962 -0.211635 0)
(0.892529 -0.178591 0)
(0.917063 -0.144462 0)
(0.942451 -0.109794 0)
(0.968447 -0.0751083 0)
(0.994634 -0.0408946 0)
(1.02034 -0.00745804 0)
(1.04487 0.0252443 0)
(1.06794 0.0572022 0)
(1.08854 0.0871271 0)
(1.10537 0.116288 0)
(1.11859 0.143878 0)
(1.12742 0.166261 0)
(0.0107858 -0.4566 0)
(0.045356 -0.593184 0)
(0.0839327 -0.606945 0)
(0.119373 -0.598003 0)
(0.15331 -0.584319 0)
(0.186503 -0.570023 0)
(0.219272 -0.556452 0)
(0.251679 -0.544177 0)
(0.283637 -0.533442 0)
(0.315009 -0.524296 0)
(0.345666 -0.516646 0)
(0.375512 -0.5103 0)
(0.404495 -0.505005 0)
(0.432601 -0.500471 0)
(0.459845 -0.496393 0)
(0.48626 -0.492468 0)
(0.511887 -0.488397 0)
(0.536776 -0.483896 0)
(0.560978 -0.478694 0)
(0.584544 -0.472543 0)
(0.607528 -0.465213 0)
(0.629985 -0.456496 0)
(0.651976 -0.446204 0)
(0.673569 -0.434171 0)
(0.694846 -0.420255 0)
(0.715907 -0.404339 0)
(0.736867 -0.386336 0)