/*--------------------------------*- C++ -*----------------------------------*\
| =========                 |                                                 |
| \\      /  F ield         | OpenFOAM: The Open Source CFD Toolbox           |
|  \\    /   O peration     | Version:  5.0                                   |
|   \\  /    A nd           | Web:      www.OpenFOAM.org                      |
|    \\/     M anipulation  |                                                 |
\*---------------------------------------------------------------------------*/
FoamFile
{
    version     2.0;
    format      ascii;
    class       surfaceScalarField;
    location    "1";
    object      alphaPhi10;
}
// * * * * * * * * * * * * * * * * * * * * * * * * * * * * * * * * * * * * * //

dimensions      [0 3 -1 0 0 0 0];

internalField   nonuniform List<scalar> 
3781
(
3.79231e-07
-3.79231e-07
-5.56537e-07
9.35768e-07
-1.88454e-06
1.328e-06
-3.30436e-06
1.41982e-06
-4.75704e-06
1.45268e-06
-6.21759e-06
1.46055e-06
-7.66783e-06
1.45024e-06
-9.08938e-06
1.42155e-06
-1.04635e-05
1.37413e-06
-1.17723e-05
1.30877e-06
-1.29997e-05
1.22739e-06
-1.41323e-05
1.13266e-06
-1.51598e-05
1.0275e-06
-1.60746e-05
9.14779e-07
-1.68716e-05
7.97026e-07
-1.7548e-05
6.76369e-07
-1.81026e-05
5.54573e-07
-1.85357e-05
4.33088e-07
-1.88483e-05
3.12656e-07
-1.9041e-05
1.92641e-07
-1.91101e-05
6.91354e-08
-1.90511e-05
-5.89521e-08
-1.88824e-05
-1.68777e-07
-1.86181e-05
-2.64247e-07
-1.82661e-05
-3.52048e-07
-1.78281e-05
-4.38013e-07
-1.73014e-05
-5.26697e-07
-1.66798e-05
-6.21527e-07
-1.59568e-05
-7.23013e-07
-1.51303e-05
-8.2655e-07
-1.41118e-05
-9.22616e-07
-1.27219e-05
-9.72507e-07
-1.18168e-05
-1.04192e-06
-1.09568e-05
-1.20728e-06
-9.65631e-06
-1.30044e-06
-8.32947e-06
-1.31005e-06
-7.03139e-06
-1.2661e-06
-5.7755e-06
-1.2482e-06
-4.51525e-06
-1.20622e-06
-3.26367e-06
-1.08409e-06
-2.2577e-06
-1.02194e-06
-1.19026e-06
-1.09843e-06
-1.44116e-07
-1.04841e-06
-9.53123e-07
-6.82045e-07
3.02815e-07
-1.8652e-06
2.11893e-06
-3.33764e-06
2.80045e-06
-4.92289e-06
3.00506e-06
-6.52988e-06
3.05967e-06
-8.1131e-06
3.04377e-06
-9.64095e-06
2.97809e-06
-1.10889e-05
2.86955e-06
-1.24382e-05
2.72342e-06
-1.3675e-05
2.54556e-06
-1.47901e-05
2.34246e-06
-1.57781e-05
2.12066e-06
-1.66368e-05
1.88624e-06
-1.73664e-05
1.64439e-06
-1.79688e-05
1.39934e-06
-1.84468e-05
1.1544e-06
-1.88045e-05
9.12242e-07
-1.90465e-05
6.75109e-07
-1.91786e-05
4.44756e-07
-1.92081e-05
2.22178e-07
-1.91471e-05
8.0978e-09
-1.90098e-05
-1.96214e-07
-1.87933e-05
-3.85338e-07
-1.84959e-05
-5.61568e-07
-1.81178e-05
-7.30164e-07
-1.76579e-05
-8.9792e-07
-1.71133e-05
-1.07135e-06
-1.64798e-05
-1.25504e-06
-1.57535e-05
-1.44922e-06
-1.49151e-05
-1.64763e-06
-1.40027e-05
-1.83573e-06
-1.30098e-05
-2.00045e-06
-1.18858e-05
-2.16593e-06
-1.07408e-05
-2.35576e-06
-9.55126e-06
-2.49e-06
-8.17587e-06
-2.53727e-06
-6.97446e-06
-2.50119e-06
-5.81848e-06
-2.43929e-06
-4.74536e-06
-2.31443e-06
-3.72986e-06
-2.14571e-06
-2.75483e-06
-2.06712e-06
-1.94696e-06
-1.96445e-06
-1.22939e-06
-1.80109e-06
-1.54293e-06
-1.25826e-06
1.56107e-06
-2.55587e-06
3.41654e-06
-4.00879e-06
4.25336e-06
-5.5614e-06
4.55768e-06
-7.13037e-06
4.62864e-06
-8.66443e-06
4.57783e-06
-1.01305e-05
4.44416e-06
-1.15062e-05
4.24528e-06
-1.27765e-05
3.99371e-06
-1.39316e-05
3.70068e-06
-1.4966e-05
3.3768e-06
-1.5877e-05
3.03169e-06
-1.66645e-05
2.67368e-06
-1.73296e-05
2.30957e-06
-1.7875e-05
1.94473e-06
-1.83039e-05
1.5833e-06
-1.86204e-05
1.22868e-06
-1.88292e-05
8.83921e-07
-1.89362e-05
5.51811e-07
-1.89487e-05
2.34669e-07
-1.88747e-05
-6.5951e-08
-1.87218e-05
-3.49128e-07
-1.84916e-05
-6.15496e-07
-1.81846e-05
-8.68579e-07
-1.78001e-05
-1.11464e-06
-1.73362e-05
-1.36189e-06
-1.67891e-05
-1.61845e-06
-1.61543e-05
-1.88978e-06
-1.54279e-05
-2.1756e-06
-1.46077e-05
-2.46784e-06
-1.36918e-05
-2.75162e-06
-1.2678e-05
-3.01426e-06
-1.15838e-05
-3.26013e-06
-1.04519e-05
-3.48769e-06
-9.29537e-06
-3.64653e-06
-8.12606e-06
-3.70659e-06
-6.95355e-06
-3.66977e-06
-5.81835e-06
-3.5582e-06
-4.78103e-06
-3.37258e-06
-3.84202e-06
-3.154e-06
-2.97281e-06
-2.93634e-06
-2.25261e-06
-2.68465e-06
-1.70286e-06
-2.35084e-06
-1.93106e-06
-1.53543e-06
3.0965e-06
-2.96396e-06
4.84508e-06
-4.44719e-06
5.73658e-06
-5.98504e-06
6.09554e-06
-7.52073e-06
6.16433e-06
-9.00936e-06
6.06647e-06
-1.04213e-05
5.85612e-06
-1.17375e-05
5.56148e-06
-1.29459e-05
5.20207e-06
-1.40392e-05
4.79402e-06
-1.50138e-05
4.35137e-06
-1.58684e-05
3.88628e-06
-1.66036e-05
3.40886e-06
-1.72212e-05
2.92725e-06
-1.77242e-05
2.44774e-06
-1.81161e-05
1.97519e-06
-1.8401e-05
1.51359e-06
-1.85838e-05
1.06672e-06
-1.86703e-05
6.38274e-07
-1.8667e-05
2.31373e-07
-1.85807e-05
-1.52249e-07
-1.84168e-05
-5.13037e-07
-1.81782e-05
-8.54125e-07
-1.78656e-05
-1.18119e-06
-1.74779e-05
-1.50228e-06
-1.70125e-05
-1.82734e-06
-1.64647e-05
-2.16622e-06
-1.58291e-05
-2.52537e-06
-1.51006e-05
-2.9041e-06
-1.42762e-05
-3.29229e-06
-1.33556e-05
-3.67222e-06
-1.23431e-05
-4.02669e-06
-1.12563e-05
-4.34702e-06
-1.01249e-05
-4.61903e-06
-8.96847e-06
-4.80296e-06
-7.80492e-06
-4.87014e-06
-6.65828e-06
-4.8164e-06
-5.56557e-06
-4.65092e-06
-4.55272e-06
-4.38543e-06
-3.63643e-06
-4.07029e-06
-2.82927e-06
-3.74349e-06
-2.17642e-06
-3.3375e-06
-1.71972e-06
-2.80754e-06
-2.22093e-06
-1.68796e-06
4.78446e-06
-3.23972e-06
6.39684e-06
-4.7778e-06
7.27466e-06
-6.32065e-06
7.63839e-06
-7.83517e-06
7.67885e-06
-9.28745e-06
7.51875e-06
-1.06536e-05
7.22232e-06
-1.19186e-05
6.82641e-06
-1.30731e-05
6.35658e-06
-1.41122e-05
5.83309e-06
-1.50336e-05
5.27287e-06
-1.58375e-05
4.69012e-06
-1.65251e-05
4.09646e-06
-1.7099e-05
3.50115e-06
-1.75625e-05
2.91126e-06
-1.79195e-05
2.33215e-06
-1.81741e-05
1.76826e-06
-1.83313e-05
1.22392e-06
-1.83966e-05
7.03582e-07
-1.83763e-05
2.1103e-07
-1.82764e-05
-2.52116e-07
-1.81018e-05
-6.87656e-07
-1.78552e-05
-1.10075e-06
-1.75372e-05
-1.49917e-06
-1.71466e-05
-1.89292e-06
-1.668e-05
-2.29392e-06
-1.61322e-05
-2.71405e-06
-1.54964e-05
-3.16118e-06
-1.47661e-05
-3.63432e-06
-1.39378e-05
-4.12058e-06
-1.30126e-05
-4.59745e-06
-1.19974e-05
-5.04189e-06
-1.09068e-05
-5.43765e-06
-9.76213e-06
-5.76368e-06
-8.58362e-06
-5.98148e-06
-7.39407e-06
-6.05968e-06
-6.22148e-06
-5.98899e-06
-5.10714e-06
-5.76526e-06
-4.09123e-06
-5.40134e-06
-3.18989e-06
-4.97164e-06
-2.39396e-06
-4.53942e-06
-1.75112e-06
-3.98035e-06
-1.32951e-06
-3.22914e-06
-2.43245e-06
-1.79334e-06
6.5778e-06
-3.45045e-06
8.05396e-06
-5.04548e-06
8.86969e-06
-6.60119e-06
9.1941e-06
-8.10142e-06
9.17907e-06
-9.52325e-06
8.94059e-06
-1.08492e-05
8.54829e-06
-1.20682e-05
8.04538e-06
-1.31738e-05
7.4622e-06
-1.41631e-05
6.82237e-06
-1.50354e-05
6.14515e-06
-1.57917e-05
5.44643e-06
-1.64343e-05
4.73909e-06
-1.69665e-05
4.03332e-06
-1.7392e-05
3.33681e-06
-1.77151e-05
2.65522e-06
-1.794e-05
1.99312e-06
-1.80713e-05
1.35523e-06
-1.81144e-05
7.46751e-07
-1.80756e-05
1.72197e-07
-1.79608e-05
-3.66947e-07
-1.77745e-05
-8.73928e-07
-1.75193e-05
-1.35599e-06
-1.71955e-05
-1.82291e-06
-1.6802e-05
-2.28648e-06
-1.63353e-05
-2.76061e-06
-1.57897e-05
-3.25958e-06
-1.51575e-05
-3.79339e-06
-1.44307e-05
-4.36115e-06
-1.36046e-05
-4.94668e-06
-1.26809e-05
-5.52118e-06
-1.16668e-05
-6.05595e-06
-1.05718e-05
-6.53269e-06
-9.40718e-06
-6.92827e-06
-8.18938e-06
-7.19928e-06
-6.94386e-06
-7.30519e-06
-5.70254e-06
-7.23031e-06
-4.51861e-06
-6.94919e-06
-3.4553e-06
-6.46465e-06
-2.53152e-06
-5.89541e-06
-1.70208e-06
-5.36887e-06
-1.02135e-06
-4.66107e-06
-5.97733e-07
-3.65276e-06
-2.56411e-06
-1.88125e-06
8.45905e-06
-3.62523e-06
9.79793e-06
-5.26961e-06
1.05141e-05
-6.8378e-06
1.07623e-05
-8.32559e-06
1.06669e-05
-9.71975e-06
1.03347e-05
-1.10088e-05
9.83739e-06
-1.21855e-05
9.22207e-06
-1.3246e-05
8.52269e-06
-1.41891e-05
7.76546e-06
-1.50155e-05
6.97153e-06
-1.57272e-05
6.15813e-06
-1.63273e-05
5.33923e-06
-1.68199e-05
4.52583e-06
-1.72092e-05
3.72611e-06
-1.74996e-05
2.94571e-06
-1.76955e-05
2.18898e-06
-1.7801e-05
1.46077e-06
-1.78215e-05
7.67193e-07
-1.77631e-05
1.13855e-07
-1.76323e-05
-4.97762e-07
-1.74336e-05
-1.07261e-06
-1.71694e-05
-1.62027e-06
-1.684e-05
-2.15231e-06
-1.64447e-05
-2.68179e-06
-1.5981e-05
-3.22426e-06
-1.54437e-05
-3.79688e-06
-1.48243e-05
-4.41284e-06
-1.41131e-05
-5.07232e-06
-1.33041e-05
-5.75563e-06
-1.2399e-05
-6.42628e-06
-1.1404e-05
-7.05099e-06
-1.0319e-05
-7.61764e-06
-9.1394e-06
-8.1079e-06
-7.87136e-06
-8.46728e-06
-6.54074e-06
-8.63575e-06
-5.18049e-06
-8.59046e-06
-3.86353e-06
-8.26605e-06
-2.69485e-06
-7.63326e-06
-1.70984e-06
-6.8804e-06
-8.05379e-07
-6.27332e-06
-4.85546e-08
-5.41789e-06
4.04437e-07
-4.10575e-06
-2.61708e-06
-1.96152e-06
1.04206e-05
-3.77444e-06
1.16109e-05
-5.45585e-06
1.21955e-05
-7.03071e-06
1.23371e-05
-8.50403e-06
1.21402e-05
-9.87073e-06
1.17014e-05
-1.11247e-05
1.10914e-05
-1.22619e-05
1.03592e-05
-1.32805e-05
9.54135e-06
-1.4181e-05
8.6659e-06
-1.49649e-05
7.75551e-06
-1.56354e-05
6.82855e-06
-1.61961e-05
5.89993e-06
-1.66517e-05
4.98145e-06
-1.70072e-05
4.08163e-06
-1.72673e-05
3.2058e-06
-1.74359e-05
2.35754e-06
-1.75166e-05
1.54153e-06
-1.75145e-05
7.65117e-07
-1.74364e-05
3.57379e-08
-1.72894e-05
-6.44775e-07
-1.70785e-05
-1.28356e-06
-1.68058e-05
-1.89298e-06
-1.6472e-05
-2.48605e-06
-1.60779e-05
-3.07591e-06
-1.56232e-05
-3.67891e-06
-1.51047e-05
-4.31548e-06
-1.45138e-05
-5.00371e-06
-1.38395e-05
-5.7466e-06
-1.30741e-05
-6.521e-06
-1.22198e-05
-7.28062e-06
-1.12812e-05
-7.98959e-06
-1.02425e-05
-8.65624e-06
-9.0725e-06
-9.27768e-06
-7.75467e-06
-9.78443e-06
-6.30652e-06
-1.00826e-05
-4.75262e-06
-1.01423e-05
-3.20793e-06
-9.80838e-06
-1.84429e-06
-8.995e-06
-7.49766e-07
-7.97397e-06
2.61428e-07
-7.28444e-06
1.10936e-06
-6.26582e-06
1.60644e-06
-4.60283e-06
-2.60163e-06
-2.0348e-06
1.24554e-05
-3.89756e-06
1.34736e-05
-5.6e-06
1.38979e-05
-7.17167e-06
1.39088e-05
-8.62547e-06
1.3594e-05
-9.96303e-06
1.3039e-05
-1.11826e-05
1.23109e-05
-1.22825e-05
1.14592e-05
-1.32627e-05
1.05215e-05
-1.41244e-05
9.52762e-06
-1.48702e-05
8.5013e-06
-1.55036e-05
7.46191e-06
-1.60289e-05
6.42523e-06
-1.64514e-05
5.40394e-06
-1.67767e-05
4.40698e-06
-1.70099e-05
3.43896e-06
-1.71542e-05
2.50189e-06
-1.72125e-05
1.5998e-06
-1.71892e-05
7.41847e-07
-1.70921e-05
-6.13563e-08
-1.69299e-05
-8.06986e-07
-1.67083e-05
-1.50523e-06
-1.64292e-05
-2.17207e-06
-1.6094e-05
-2.82125e-06
-1.57059e-05
-3.464e-06
-1.5269e-05
-4.11575e-06
-1.4784e-05
-4.80053e-06
-1.4244e-05
-5.54371e-06
-1.3637e-05
-6.3536e-06
-1.29544e-05
-7.20354e-06
-1.22014e-05
-8.03359e-06
-1.13827e-05
-8.80812e-06
-1.04596e-05
-9.57865e-06
-9.35243e-06
-1.03817e-05
-7.93522e-06
-1.11908e-05
-6.2772e-06
-1.17186e-05
-4.42146e-06
-1.1008e-05
-2.53824e-06
-1.02499e-05
-8.79639e-07
-9.13997e-06
3.93012e-07
-8.19995e-06
1.52325e-06
-8.41237e-06
2.40294e-06
-7.14536e-06
2.92554e-06
-5.12542e-06
-2.56679e-06
-2.09548e-06
1.45509e-05
-3.98512e-06
1.53632e-05
-5.68883e-06
1.56016e-05
-7.24419e-06
1.54642e-05
-8.67119e-06
1.5021e-05
-9.97675e-06
1.43446e-05
-1.11622e-05
1.34963e-05
-1.22274e-05
1.25244e-05
-1.3173e-05
1.14672e-05
-1.40008e-05
1.03554e-05
-1.47137e-05
9.21417e-06
-1.53154e-05
8.06362e-06
-1.58106e-05
6.92045e-06
-1.62051e-05
5.79844e-06
-1.65054e-05
4.70721e-06
-1.67166e-05
3.65024e-06
-1.68416e-05
2.62684e-06
-1.68813e-05
1.63954e-06
-1.68397e-05
7.00171e-07
-1.67258e-05
-1.75239e-07
-1.6551e-05
-9.8173e-07
-1.63221e-05
-1.73414e-06
-1.60406e-05
-2.45355e-06
-1.57085e-05
-3.15342e-06
-1.53327e-05
-3.83977e-06
-1.49242e-05
-4.52424e-06
-1.44901e-05
-5.23462e-06
-1.40275e-05
-6.0063e-06
-1.35255e-05
-6.85562e-06
-1.29773e-05
-7.75161e-06
-1.23959e-05
-8.61458e-06
-1.17913e-05
-9.41104e-06
-1.10764e-05
-1.02862e-05
-1.00023e-05
-1.14161e-05
-7.7449e-06
-9.59604e-06
-4.65364e-06
-6.69423e-06
-2.54955e-06
-5.64717e-06
-9.78777e-07
-5.35716e-06
2.03543e-07
-4.44711e-06
1.38602e-06
-4.40579e-06
3.03901e-06
-8.00698e-06
3.72207e-06
-7.82415e-06
4.17785e-06
-5.58041e-06
-2.66137e-06
-2.16901e-06
1.67199e-05
-4.09056e-06
1.72848e-05
-5.80212e-06
1.73132e-05
-7.35265e-06
1.70147e-05
-8.76902e-06
1.64374e-05
-1.00619e-05
1.56375e-05
-1.12342e-05
1.46686e-05
-1.22863e-05
1.35765e-05
-1.32185e-05
1.23994e-05
-1.40325e-05
1.11695e-05
-1.47313e-05
9.91295e-06
-1.53185e-05
8.65086e-06
-1.57989e-05
7.40079e-06
-1.61786e-05
6.17814e-06
-1.64652e-05
4.99386e-06
-1.6665e-05
3.84998e-06
-1.67794e-05
2.74123e-06
-1.6807e-05
1.66722e-06
-1.67505e-05
6.43667e-07
-1.66215e-05
-3.0428e-07
-1.64357e-05
-1.1675e-06
-1.62013e-05
-1.96855e-06
-1.59186e-05
-2.7363e-06
-1.55896e-05
-3.48241e-06
-1.52265e-05
-4.20278e-06
-1.48499e-05
-4.9009e-06
-1.44767e-05
-5.6078e-06
-1.41112e-05
-6.3717e-06
-1.37479e-05
-7.21874e-06
-1.33862e-05
-8.11238e-06
-1.30542e-05
-8.94308e-06
-1.2733e-05
-9.71452e-06
-1.21317e-05
-1.02789e-05
-7.94077e-06
-6.09822e-06
-3.34468e-06
-2.26539e-06
-1.94343e-06
-4.13289e-06
-1.02753e-06
-6.47904e-06
-2.35832e-07
-6.0992e-06
5.73573e-07
-5.09064e-06
1.6133e-06
-4.7905e-06
3.89273e-06
-5.00976e-06
4.56167e-06
-5.22438e-06
4.72875e-06
-3.79788e-06
-2.067e-06
-2.17978e-06
1.88997e-05
-4.07574e-06
1.91807e-05
-5.75057e-06
1.8988e-05
-7.26448e-06
1.85286e-05
-8.64838e-06
1.78213e-05
-9.91419e-06
1.69033e-05
-1.10645e-05
1.58189e-05
-1.20984e-05
1.46104e-05
-1.30152e-05
1.33161e-05
-1.38158e-05
1.19701e-05
-1.45027e-05
1.05999e-05
-1.50791e-05
9.22731e-06
-1.55491e-05
7.87075e-06
-1.5919e-05
6.54803e-06
-1.61979e-05
5.27277e-06
-1.63934e-05
4.04547e-06
-1.65058e-05
2.85368e-06
-1.65301e-05
1.69151e-06
-1.64665e-05
5.79998e-07
-1.63297e-05
-4.41031e-07
-1.61422e-05
-1.35504e-06
-1.59132e-05
-2.19753e-06
-1.56401e-05
-3.00943e-06
-1.53238e-05
-3.79868e-06
-1.49818e-05
-4.5447e-06
-1.46456e-05
-5.23695e-06
-1.43447e-05
-5.90834e-06
-1.40911e-05
-6.62433e-06
-1.38798e-05
-7.42677e-06
-1.37128e-05
-8.2692e-06
-1.36739e-05
-8.94598e-06
-1.28788e-05
-7.85954e-06
-6.11287e-06
-4.05846e-06
-2.41428e-06
-1.83269e-06
-2.44764e-06
-3.73345e-06
-1.88864e-06
-5.58553e-06
-1.13804e-06
-7.55184e-06
-2.69716e-07
-7.22708e-06
6.89324e-07
-5.47832e-06
1.57545e-06
-5.07074e-06
1.52487e-06
-2.59862e-06
1.43186e-06
-4.53802e-07
1.22918e-06
-4.17556e-08
-2.18788e-09
-2.10987e-06
2.10095e-05
-3.92546e-06
2.09963e-05
-5.52979e-06
2.05924e-05
-6.98874e-06
1.99876e-05
-8.33213e-06
1.91647e-05
-9.56978e-06
1.81409e-05
-1.07017e-05
1.69508e-05
-1.17242e-05
1.56329e-05
-1.26342e-05
1.42261e-05
-1.34313e-05
1.27672e-05
-1.41174e-05
1.12859e-05
-1.46947e-05
9.80469e-06
-1.51662e-05
8.34222e-06
-1.55376e-05
6.91939e-06
-1.58198e-05
5.55498e-06
-1.60231e-05
4.24876e-06
-1.61471e-05
2.97769e-06
-1.61817e-05
1.7261e-06
-1.61228e-05
5.21155e-07
-1.59878e-05
-5.76124e-07
-1.58027e-05
-1.54004e-06
-1.55776e-05
-2.42235e-06
-1.53047e-05
-3.28177e-06
-1.4981e-05
-4.12112e-06
-1.46253e-05
-4.89817e-06
-1.42808e-05
-5.57779e-06
-1.40095e-05
-6.17374e-06
-1.38452e-05
-6.55146e-06
-1.3574e-05
-6.41509e-06
-1.31339e-05
-5.50817e-06
-1.04891e-05
-3.57434e-06
-3.90132e-06
-1.74267e-06
-2.72718e-06
-1.17143e-06
-3.02917e-06
-2.24668e-06
-4.7864e-06
-5.92292e-06
-4.30543e-06
-7.54814e-06
-2.72069e-06
-8.61281e-06
-1.00514e-06
-8.11626e-06
5.33937e-07
-6.15019e-06
1.86685e-06
-5.49281e-06
4.56579e-07
-1.37361e-06
4.01521e-08
-3.74347e-08
1.58169e-09
-3.21664e-09
-8.92053e-10
-1.90211e-06
2.29116e-05
-3.57107e-06
2.26653e-05
-5.0721e-06
2.20934e-05
-6.46109e-06
2.13765e-05
-7.75859e-06
2.04622e-05
-8.96872e-06
1.9351e-05
-1.00877e-05
1.80698e-05
-1.11081e-05
1.66533e-05
-1.2023e-05
1.51411e-05
-1.28303e-05
1.35744e-05
-1.353e-05
1.19856e-05
-1.41243e-05
1.0399e-05
-1.46142e-05
8.8321e-06
-1.50022e-05
7.30739e-06
-1.53014e-05
5.8542e-06
-1.55269e-05
4.47427e-06
-1.56787e-05
3.12948e-06
-1.57337e-05
1.78105e-06
-1.56508e-05
4.38342e-07
-1.54243e-05
-6.5811e-07
-1.4964e-05
-1.43895e-06
-1.43579e-05
-1.91551e-06
-1.36537e-05
-2.23929e-06
-1.28234e-05
-2.43606e-06
-1.17824e-05
-2.42261e-06
-1.05363e-05
-2.15446e-06
-9.15681e-06
-1.72071e-06
-7.58611e-06
-4.58786e-07
-5.63976e-06
-6.23351e-09
-2.92568e-06
-6.19397e-08
-8.67828e-07
-2.00796e-07
-6.65184e-07
-9.01864e-08
-1.34237e-06
-8.57531e-07
-7.23848e-06
-3.95382e-06
-6.24315e-06
-6.22006e-06
-5.1098e-06
-7.92125e-06
-3.55301e-06
-9.35347e-06
-1.35438e-06
-7.99346e-06
1.14311e-07
-5.18926e-06
9.89818e-07
-5.7322e-06
1.40274e-08
-6.69521e-07
3.29065e-09
-2.11381e-08
2.23563e-09
-1.24547e-09
-5.38089e-10
-1.46411e-06
2.43757e-05
-2.92632e-06
2.41275e-05
-4.29813e-06
2.34652e-05
-5.60717e-06
2.26856e-05
-6.85625e-06
2.17112e-05
-8.04011e-06
2.05349e-05
-9.15412e-06
1.91838e-05
-1.01856e-05
1.76848e-05
-1.11218e-05
1.60774e-05
-1.19486e-05
1.44012e-05
-1.25371e-05
1.25741e-05
-1.28789e-05
9.25814e-06
-1.3164e-05
6.5257e-06
-1.29779e-05
4.70029e-06
-1.24566e-05
3.15222e-06
-1.1693e-05
1.90028e-06
-1.09742e-05
1.01606e-06
-1.03372e-05
4.48802e-07
-9.41631e-06
8.82857e-08
-7.73001e-06
1.93521e-17
-5.80399e-06
7.94541e-18
-4.27735e-06
-2.19926e-15
-3.19442e-06
-2.27701e-14
-2.30513e-06
-2.20328e-13
-1.44773e-06
-2.12842e-12
-6.09089e-07
-2.04469e-11
-3.29681e-08
-1.93473e-10
-1.274e-09
-1.41644e-09
-7.53403e-09
-1.08031e-09
-6.52599e-08
-4.9433e-09
-2.61771e-07
1.3568e-09
-5.84527e-07
3.8687e-09
-5.81111e-06
-1.4485e-06
-5.99286e-06
-3.18113e-06
-6.54263e-06
-4.96343e-06
-6.69331e-06
-5.16262e-06
-2.98033e-06
-8.7076e-06
-1.20827e-06
-1.03795e-05
-3.4627e-08
-7.3255e-06
2.8621e-07
-7.28876e-06
1.28914e-08
-2.01367e-07
2.33859e-09
-7.1915e-09
2.38368e-09
-7.67183e-10
1.25665e-09
-7.04662e-07
2.50804e-05
-1.91444e-06
2.53373e-05
-3.13163e-06
2.46824e-05
-4.35992e-06
2.39139e-05
-5.55981e-06
2.29111e-05
-6.45994e-06
2.1435e-05
-7.5117e-06
1.51319e-05
-7.88868e-06
1.09049e-05
-7.80892e-06
7.03452e-06
-7.22422e-06
3.78169e-06
-6.11599e-06
1.451e-06
-4.92579e-06
2.79401e-07
-3.82763e-06
4.81911e-08
-2.80532e-06
4.64096e-08
-1.86114e-06
4.5509e-08
-1.08469e-06
3.17563e-08
-5.02159e-07
1.71287e-08
-1.14414e-07
6.15133e-09
3.76975e-16
5.16339e-10
6.51142e-17
4.338e-16
-2.31022e-16
1.82694e-16
-2.39422e-15
-3.60618e-17
-2.29464e-14
-2.47535e-15
-2.16738e-13
-2.93975e-14
-2.04241e-12
-3.31151e-13
-1.93992e-11
-3.36834e-12
-1.87404e-10
-2.81578e-11
-1.45646e-09
-1.72584e-10
-2.30187e-09
-4.44742e-10
-8.37241e-09
2.49721e-10
-2.07225e-08
4.30026e-09
-1.09309e-06
-7.89362e-08
-2.57539e-06
-6.71799e-07
-2.62383e-06
-2.75546e-07
-1.83816e-06
-9.07731e-07
-1.88553e-06
-3.85088e-06
-7.2775e-07
-7.678e-06
-1.91301e-06
-9.06029e-06
-8.11011e-07
-8.04315e-06
5.90245e-09
-5.43497e-06
1.42958e-09
-1.47625e-08
1.51765e-09
-4.36609e-09
5.41654e-10
1.51375e-09
1.78976e-07
2.66656e-07
2.48138e-05
-5.47285e-07
2.61512e-05
-1.45598e-06
2.42869e-05
-2.45911e-06
1.6267e-05
-2.98285e-06
9.55746e-06
-2.89492e-06
3.68002e-06
-2.32988e-06
5.04226e-07
-1.59214e-06
1.08637e-07
-9.31736e-07
8.76297e-08
-4.68269e-07
5.63389e-08
-2.44573e-07
2.97928e-08
-1.61184e-07
1.53691e-08
-1.3208e-07
7.25796e-09
-9.48795e-08
3.53359e-09
-5.35316e-08
1.8096e-09
-2.33337e-08
7.97841e-10
-6.60339e-09
2.71287e-10
-5.13367e-10
5.03971e-11
8.55924e-15
1.81791e-12
1.35998e-15
1.94084e-16
-1.21452e-16
1.11423e-15
-5.03485e-15
1.85739e-15
-6.44849e-15
-1.66176e-15
-2.90449e-14
-1.40122e-14
-3.0508e-13
-1.54422e-13
-3.28731e-12
-1.3806e-12
-3.16699e-11
-9.20523e-12
-2.48434e-10
-3.87531e-11
-1.16879e-09
-6.4313e-11
-6.93172e-09
9.01667e-10
-3.36952e-07
7.43786e-10
-3.34512e-07
-3.58715e-08
-6.32896e-08
-3.06089e-08
-2.65172e-07
-4.73275e-08
-7.50783e-07
-3.8819e-07
-3.52108e-06
-3.8485e-06
-3.56622e-06
-8.5059e-06
-2.54962e-06
-9.77669e-06
-8.70168e-07
-9.42002e-06
-2.80019e-09
-7.95518e-07
-1.81724e-10
-2.44402e-08
-4.5758e-09
-5.22702e-09
-9.48333e-08
9.279e-08
1.0339e-06
8.96835e-07
1.53825e-05
5.81726e-07
1.16431e-05
1.27619e-08
4.3307e-06
-2.74161e-07
2.34346e-07
-2.46091e-07
1.04397e-07
-1.74374e-07
5.16375e-08
-1.30352e-07
3.20314e-08
-1.1643e-07
1.83028e-08
-7.91615e-08
1.02989e-08
-4.53043e-08
4.98402e-09
-2.40237e-08
2.14979e-09
-1.1859e-08
9.24648e-10
-5.91097e-09
4.14742e-10
-2.68427e-09
1.85254e-10
-1.06128e-09
7.62952e-11
-3.12979e-10
2.59385e-11
-5.12549e-11
6.26317e-12
-1.77897e-12
7.48221e-13
4.04367e-15
3.51622e-14
8.19562e-15
1.95828e-16
9.01196e-15
3.66737e-15
-6.54293e-15
1.02083e-14
-1.46532e-14
6.62294e-15
-2.5356e-14
-1.16958e-14
-1.4614e-13
-1.20618e-13
-1.4444e-12
-8.74151e-13
-1.35698e-11
-3.93669e-12
-9.98749e-11
-2.6944e-12
-2.53668e-09
9.14403e-11
-4.30979e-08
2.4909e-10
-2.69204e-08
-1.93555e-09
-5.37351e-09
-9.85474e-10
-3.28735e-08
-1.5882e-09
-6.78875e-08
-6.57851e-09
-3.67251e-07
-5.41002e-08
-2.37081e-06
-1.121e-06
-3.69963e-06
-7.2719e-06
-2.91906e-06
-1.03503e-05
-8.56242e-07
-1.05222e-05
-1.87761e-08
-1.5803e-06
-2.58658e-09
-4.82085e-08
-3.49871e-08
1.64519e-08
-4.31393e-07
4.60814e-07
3.71934e-06
1.63948e-07
-1.41694e-07
1.5333e-07
2.18892e-07
2.99004e-08
8.11741e-08
-4.99417e-09
3.87098e-08
-2.12611e-08
2.04015e-08
-2.09112e-08
9.60516e-09
-1.42687e-08
5.08401e-09
-9.23958e-09
2.4844e-09
-5.15345e-09
1.15074e-09
-2.60142e-09
4.58317e-10
-1.25004e-09
1.60023e-10
-5.77674e-10
5.78847e-11
-2.54682e-10
2.24296e-11
-9.87367e-11
8.37007e-12
-3.08945e-11
2.8154e-12
-6.75211e-12
7.64784e-13
-7.32995e-13
1.39127e-13
-2.13618e-14
3.7395e-14
1.27291e-14
1.09134e-15
3.36992e-14
-7.58428e-16
5.92045e-14
5.83137e-15
3.17695e-14
3.04846e-14
-1.10659e-13
3.76403e-14
-1.09072e-13
-1.38263e-14
-2.70407e-13
-6.04872e-14
-2.08751e-12
-1.26182e-13
-2.01075e-11
4.60269e-12
-2.637e-10
5.7835e-11
-9.7516e-09
3.77249e-10
-8.75207e-09
-4.58871e-11
-6.53792e-10
-5.75065e-11
-1.20467e-09
-5.17668e-11
-1.71334e-09
-2.81083e-10
-4.74716e-09
-1.99973e-09
-3.20636e-08
-1.92255e-08
-8.64298e-07
-2.54497e-07
-3.34182e-06
-2.56768e-06
-3.18571e-06
-1.02175e-05
-2.4155e-06
-1.05661e-05
-1.33281e-07
-3.72324e-06
-7.7024e-08
-1.14274e-07
-2.4765e-07
1.63586e-07
-1.08958e-06
1.17318e-06
1.31241e-05
-1.31495e-07
-8.4057e-09
-1.00159e-08
1.52094e-08
-9.30812e-10
1.37576e-08
-3.47937e-09
8.37135e-09
-3.57965e-09
4.0437e-09
-2.39518e-09
1.73109e-09
-1.35904e-09
7.47124e-10
-7.27419e-10
3.06403e-10
-3.47402e-10
1.11016e-10
-1.52207e-10
3.39857e-11
-6.36676e-11
9.23102e-12
-2.61611e-11
2.51743e-12
-9.99422e-12
7.57681e-13
-3.29964e-12
2.30507e-13
-8.53353e-13
6.69851e-14
-1.48365e-13
1.62255e-14
-1.62961e-14
3.85624e-15
1.5697e-14
5.41405e-15
6.80461e-14
-5.89426e-15
1.84892e-13
-1.41849e-14
3.3233e-13
-1.9246e-14
3.33508e-13
-1.65776e-14
-1.30005e-13
-1.19942e-14
-1.53385e-13
9.55332e-15
-9.69017e-13
1.39557e-13
-5.13988e-12
1.93194e-12
-3.38158e-11
1.59201e-11
-2.3599e-09
1.83042e-10
-4.05346e-09
9.38678e-11
-7.64987e-10
4.92641e-11
-2.20523e-10
-1.26764e-12
-7.74658e-11
-6.31981e-12
-1.03504e-10
-8.03875e-11
-1.41357e-09
-8.0401e-10
-1.25067e-08
-8.44292e-09
-1.66736e-07
-1.02683e-07
-2.29396e-06
-7.05982e-07
-2.85363e-06
-9.40734e-06
-2.46697e-06
-1.05088e-05
-4.05004e-07
-5.11108e-06
-3.14177e-07
-2.27615e-07
-7.12906e-07
5.07497e-07
-3.44683e-06
2.78358e-06
2.51739e-05
-7.86858e-09
-2.63458e-10
-5.38462e-09
1.64347e-09
-2.75693e-09
2.05792e-09
-1.23466e-09
1.37523e-09
-5.55018e-10
6.40894e-10
-2.21003e-10
2.46784e-10
-8.04572e-11
9.20185e-11
-2.85458e-11
3.11929e-11
-9.82338e-12
8.52795e-12
-3.48285e-12
1.62191e-12
-1.33337e-12
1.23016e-13
-5.43279e-13
-5.77042e-14
-2.13056e-13
-3.5304e-14
-7.12319e-14
-1.2315e-14
-1.79645e-14
-2.43672e-15
-2.96877e-15
-2.74797e-16
4.43264e-16
4.44202e-16
1.25092e-14
-5.96653e-16
6.12039e-14
-1.0379e-14
2.02645e-13
-3.18722e-14
4.71054e-13
-7.03471e-14
7.11108e-13
-1.23452e-13
4.18998e-13
-1.67483e-13
-1.07631e-12
-1.03029e-13
-1.15669e-12
2.19931e-13
-2.43458e-12
1.58816e-12
-3.84176e-10
2.94853e-11
-6.52774e-10
1.35596e-12
-6.95284e-11
1.41586e-11
-1.68226e-11
2.41474e-13
-1.60519e-11
-4.25616e-14
-5.18367e-12
-4.6209e-13
-4.90877e-11
-2.99776e-11
-4.69749e-10
-3.69088e-10
-4.47997e-09
-4.18666e-09
-5.20584e-08
-5.41632e-08
-4.26833e-07
-3.97479e-07
-3.00842e-06
-7.75823e-06
-2.99668e-06
-9.89617e-06
-6.76984e-07
-5.93186e-06
-6.57582e-07
-3.08678e-07
-1.3299e-06
1.05006e-06
-1.12024e-05
7.20918e-06
-3.29713e-05
3.24072e-05
3.66814e-05
-3.51228e-10
1.14814e-10
-7.18968e-10
2.22398e-10
-4.45968e-10
2.94879e-10
-1.59868e-10
1.92091e-10
-3.23185e-11
8.43568e-11
4.85075e-12
2.9708e-11
8.83273e-12
9.64944e-12
5.59394e-12
2.39378e-12
2.51797e-12
2.94932e-13
9.27344e-13
-9.14601e-14
3.05422e-13
-7.50661e-14
9.04875e-14
-3.26761e-14
2.20702e-14
-1.00741e-14
3.85089e-15
-2.61387e-15
3.60214e-16
-2.71024e-16
-1.04457e-17
-3.37509e-17
2.12738e-16
2.21019e-16
4.15771e-15
-1.27647e-15
2.77202e-14
-1.02566e-14
1.15561e-13
-3.71299e-14
3.35061e-13
-9.94534e-14
6.60695e-13
-2.14975e-13
7.32968e-13
-3.61957e-13
-3.32443e-13
-3.79968e-13
-2.84861e-13
1.72349e-13
-2.32281e-11
8.74371e-13
-5.69211e-11
-2.03295e-12
-1.64566e-11
8.92801e-13
-2.2794e-12
8.50159e-13
-1.80092e-12
5.57811e-15
-1.46066e-12
2.11452e-14
5.05079e-13
1.50958e-14
-1.30315e-11
-9.2925e-12
-2.16853e-10
-1.39588e-10
-2.35317e-09
-1.87871e-09
-2.56006e-08
-2.60146e-08
-1.68853e-07
-2.52498e-07
-3.27576e-06
-5.21774e-06
-3.04995e-06
-9.44221e-06
-9.80865e-07
-5.8432e-06
-1.12178e-06
-3.02093e-07
-1.87385e-06
1.6044e-06
-2.20366e-05
1.51158e-05
-3.35331e-05
3.32009e-05
3.79719e-05
9.32549e-11
2.43358e-11
-3.61033e-11
4.31302e-11
-2.40747e-11
4.39806e-11
1.51219e-12
2.40296e-11
8.2274e-12
9.69968e-12
6.8148e-12
3.01196e-12
4.06627e-12
7.49957e-13
1.87487e-12
5.3388e-14
7.05751e-13
-5.93318e-14
2.2995e-13
-4.04126e-14
6.92234e-14
-1.44362e-14
1.94214e-14
-4.55009e-15
4.69697e-15
-2.98962e-16
8.84704e-16
-1.0474e-17
1.00295e-16
1.62147e-16
5.89697e-17
1.44931e-17
-1.38084e-17
-7.38322e-17
-9.36934e-17
-1.58709e-15
4.69542e-15
-8.33928e-15
3.93868e-14
-3.23578e-14
1.62179e-13
-9.7278e-14
4.30747e-13
-2.41907e-13
7.35968e-13
-4.83315e-13
6.12123e-13
-7.06497e-13
-4.47255e-13
-5.40245e-13
-1.85962e-12
3.73343e-13
-1.74118e-12
2.14577e-13
-9.6939e-13
2.36659e-13
-1.3579e-13
7.07899e-14
-1.13403e-13
2.41453e-15
5.05099e-14
-2.44626e-15
1.13649e-12
-3.67963e-16
-2.51773e-12
-1.81116e-12
-9.41674e-11
-3.23382e-11
-1.31599e-09
-5.57678e-10
-1.6903e-08
-9.73539e-09
-1.28241e-07
-1.39134e-07
-3.11197e-06
-2.04241e-06
-3.84195e-06
-8.12541e-06
-1.54631e-06
-6.05412e-06
-1.77149e-06
-2.80481e-07
-3.4258e-06
2.99022e-06
-2.96393e-05
2.3424e-05
-3.29389e-05
3.61588e-05
3.88812e-05
2.10311e-11
3.67408e-12
6.66176e-12
8.48933e-12
6.31113e-12
6.58582e-12
5.16046e-12
2.82392e-12
3.38676e-12
9.78876e-13
1.90395e-12
2.34643e-13
9.35548e-13
2.2685e-14
3.79927e-13
-2.34101e-14
1.29839e-13
-1.4775e-14
3.93379e-14
-5.88013e-15
1.11438e-14
7.00409e-17
3.0527e-15
1.05255e-16
6.82758e-16
7.5703e-16
1.63146e-16
2.43783e-16
2.14776e-17
4.31928e-17
9.84567e-18
2.07527e-17
-1.6684e-16
-3.9189e-16
-7.0307e-16
-2.08902e-15
-1.56756e-15
-7.85448e-15
-3.94033e-16
-2.49416e-14
3.97703e-14
-7.50955e-14
1.81493e-13
-2.07773e-13
4.53884e-13
-4.75338e-13
6.79667e-13
-8.49183e-13
4.76024e-13
-1.0496e-12
-1.86869e-13
-6.47762e-13
-1.39987e-13
1.67698e-13
-5.14388e-14
1.4811e-13
-8.95008e-15
3.0643e-14
-1.2567e-14
4.94947e-15
-1.44961e-15
1.60645e-16
1.5414e-13
-1.02349e-15
-4.06388e-13
-1.70957e-13
-2.14229e-11
-2.84673e-12
-4.41297e-10
-5.18696e-11
-8.66386e-09
-1.12463e-09
-1.24189e-07
-2.12018e-08
-1.74751e-06
-2.36552e-07
-3.30463e-06
-3.87243e-06
-2.10634e-06
-5.29866e-06
-6.02665e-07
-8.6525e-08
-8.05374e-06
6.26291e-06
-3.13664e-05
2.86277e-05
-3.23311e-05
3.71594e-05
3.98715e-05
3.21101e-12
5.09536e-13
2.57649e-12
1.51745e-12
2.37325e-12
9.45148e-13
1.47481e-12
3.22615e-13
7.92975e-13
8.99225e-14
3.89432e-13
1.21961e-14
1.7285e-13
-2.48479e-15
6.53595e-14
-3.25116e-15
2.12346e-14
5.90016e-16
6.43467e-15
6.48658e-16
1.78444e-15
1.57807e-15
6.63978e-16
7.91858e-16
2.63564e-16
3.42389e-16
3.82119e-17
6.28187e-17
1.86445e-17
2.90687e-17
-6.12993e-17
-9.64798e-17
-3.42199e-16
-5.68306e-16
-1.163e-15
-2.17396e-15
-3.03498e-15
-7.06693e-15
-5.84943e-15
-2.03587e-14
-6.53172e-15
-5.46364e-14
1.86521e-14
-1.44351e-13
1.49089e-13
-3.71763e-13
3.72261e-13
-7.76736e-13
5.12512e-13
-1.22147e-12
3.77069e-13
-1.3022e-12
1.6288e-13
-8.00173e-13
4.51089e-14
-2.92377e-13
9.1748e-16
-6.60971e-14
-1.21824e-15
-9.96392e-16
-1.82043e-15
7.62837e-16
-1.57075e-16
2.45373e-16
-5.73493e-14
4.70895e-16
-1.75404e-12
-8.78528e-14
-4.18615e-11
-2.70094e-12
-9.69737e-10
-9.56007e-11
-1.86298e-08
-2.7342e-09
-1.91975e-07
-4.74754e-08
-2.09202e-06
-5.55379e-07
-9.65376e-08
-3.03251e-06
2.34925e-07
2.30741e-07
-1.48548e-05
1.04433e-05
-3.15472e-05
3.12859e-05
-3.17714e-05
3.7427e-05
4.05369e-05
4.47535e-13
6.74433e-14
5.67299e-13
2.5408e-13
5.10927e-13
1.30658e-13
2.97209e-13
3.94706e-14
1.48608e-13
1.13974e-14
6.84926e-14
2.95933e-15
2.88671e-14
2.31493e-15
1.07636e-14
1.88323e-15
3.52689e-15
2.0233e-15
1.37202e-15
1.42866e-15
7.02877e-16
7.86716e-16
2.41889e-16
3.26181e-16
5.15454e-17
6.08216e-17
2.51135e-17
3.40286e-17
-2.39213e-17
-3.15488e-17
-1.27109e-16
-1.67458e-16
-4.2738e-16
-5.81265e-16
-1.28417e-15
-1.88259e-15
-3.37111e-15
-5.64468e-15
-7.48965e-15
-1.55176e-14
-1.38069e-14
-3.98052e-14
-2.02206e-14
-9.91686e-14
-1.71161e-14
-2.45883e-13
4.32065e-14
-5.6288e-13
1.82631e-13
-1.07589e-12
2.7054e-13
-1.49577e-12
2.36795e-13
-1.43832e-12
1.46697e-13
-9.50076e-13
6.917e-14
-4.53683e-13
2.14545e-14
-1.53884e-13
3.17259e-18
-2.70619e-14
3.40855e-16
-2.98264e-19
-7.18371e-15
1.78365e-14
-7.65745e-14
1.63556e-14
-2.78997e-12
-1.71203e-14
-9.99865e-11
-2.18914e-12
-2.96678e-09
-9.58674e-11
-4.17979e-08
-2.84014e-09
-1.33569e-07
-6.68421e-08
4.29284e-07
-5.07175e-07
-7.239e-07
7.77605e-07
-2.08152e-05
1.38966e-05
-3.1187e-05
3.20321e-05
-3.09697e-05
3.72276e-05
4.06052e-05
5.88273e-14
8.61792e-15
1.044e-13
4.31706e-14
8.93115e-14
2.10244e-14
5.08098e-14
7.80656e-15
2.47937e-14
4.58064e-15
1.12501e-14
2.83331e-15
4.7637e-15
2.01062e-15
2.00132e-15
1.836e-15
1.07065e-15
1.13125e-15
4.99051e-16
6.17604e-16
1.98759e-16
2.11423e-16
4.55102e-17
4.6823e-17
2.53962e-17
3.21924e-17
-1.00644e-17
-1.21692e-17
-5.78979e-17
-6.80608e-17
-1.50154e-16
-1.75447e-16
-4.05543e-16
-4.83636e-16
-1.12494e-15
-1.41398e-15
-2.92596e-15
-4.03087e-15
-6.82916e-15
-1.08086e-14
-1.41864e-14
-2.72722e-14
-2.65915e-14
-6.62287e-14
-4.56183e-14