/*--------------------------------*- C++ -*----------------------------------*\
| =========                 |                                                 |
| \\      /  F ield         | OpenFOAM: The Open Source CFD Toolbox           |
|  \\    /   O peration     | Version:  5.0                                   |
|   \\  /    A nd           | Web:      www.OpenFOAM.org                      |
|    \\/     M anipulation  |                                                 |
\*---------------------------------------------------------------------------*/
FoamFile
{
    version     2.0;
    format      ascii;
    class       volScalarField;
    location    "1";
    object      alpha.water;
}
// * * * * * * * * * * * * * * * * * * * * * * * * * * * * * * * * * * * * * //

dimensions      [0 0 0 0 0 0 0];

internalField   nonuniform List<scalar> 
1935
(
1
1
1
1
1
1
1
1
1
1
1
1
1
1
1
1
1
1
1
1
1
1
1
1
1
1
1
1
1
1
0.99867
0.969148
0.954706
0.994537
1
0.999278
0.996046
0.993603
0.988162
0.965116
0.959441
0.994886
0.994506
0.998397
1
1
1
1
1
1
1
1
1
1
1
1
1
1
1
1
1
1
1
1
1
1
1
1
1
1
1
1
1
0.999463
0.998312
0.999079
1
0.99997
1
0.991814
0.978937
0.978899
0.978899
0.979042
0.981527
0.98133
0.992738
1
1
1
1
1
1
1
1
1
1
1
1
1
1
1
1
1
1
1
1
1
1
1
1
1
1
1
1
1
1
1
1
1
1
1
1
1
0.99992
0.99742
0.99358
0.996385
1
1
1
1
1
1
1
1
1
1
1
1
1
1
1
1
1
1
1
1
1
1
1
1
1
1
1
1
1
1
1
1
1
1
1
1
1
1
1
1
1
1
1
1
1
1
1
1
1
1
1
1
1
1
1
1
1
1
1
1
1
1
1
1
1
1
1
1
1
1
1
1
1
1
1
1
1
1
1
1
1
1
1
1
1
1
1
1
1
1
1
1
1
1
1
1
1
1
1
1
1
1
1
1
1
1
1
1
1
1
1
1
1
1
1
1
1
1
1
1
1
1
1
1
1
1
1
1
1
1
1
1
1
1
1
1
1
1
1
1
1
1
1
1
1
1
1
1
1
1
1
1
1
1
1
1
1
1
1
1
1
1
1
1
1
1
1
1
1
0.999999
0.999998
0.999996
0.999994
0.999993
0.999995
0.999997
1
1
1
1
1
1
1
1
1
1
1
1
1
1
1
1
1
1
1
1
1
1
1
1
1
1
1
1
1
1
1
1
1
1
1
0.999999
0.999998
0.999992
0.999974
0.999932
0.999891
0.999873
0.999887
0.99993
0.999993
0.999999
1
1
1
1
1
1
1
1
1
1
1
1
1
1
1
1
1
1
1
1
1
1
1
1
1
1
1
1
1
1
1
1
0.999999
0.999994
0.999973
0.999898
0.999629
0.998985
0.987239
0.975219
0.96947
0.979495
0.999841
0.999986
0.999997
1
1
1
1
1
1
1
1
1
1
1
1
1
1
1
1
1
1
1
1
1
1
1
1
1
1
1
1
1
0.999999
0.999997
0.999986
0.99994
0.999732
0.998789
0.936732
0.723458
0.551973
0.495224
0.477063
0.51681
0.933775
0.999704
0.999907
0.99998
1
1
1
1
1
1
1
1
1
1
1
1
1
1
1
1
1
1
1
1
1
1
1
1
1
1
0.999999
0.999998
0.999992
0.999972
0.999883
0.999458
0.993323
0.794945
0.387614
0.205948
0.214634
0.21982
0.219849
0.22336
0.516174
0.896186
0.914864
0.924896
1
1
1
1
1
1
1
1
1
1
1
1
1
1
1
1
1
1
1
1
1
1
1
0.999999
0.999998
0.999993
0.999984
0.999962
0.999897
0.999681
0.998861
0.965431
0.635592
0.213093
0.163559
0.162118
0.205515
0.232234
0.226221
0.235612
0.213872
0.243492
0.228046
0.216913
1
1
1
1
1
1
1
1
1
1
1
1
1
1
1
1
1
1
1
0.999998
0.999997
0.999988
0.99997
0.999937
0.999878
0.999783
0.999636
0.997635
0.981515
0.932567
0.781869
0.41543
0.126699
0.130507
0.169851
0.33731
0.33756
0.337579
0.334964
0.323787
0.0972954
0.000187467
2.77416e-05
2.06977e-05
1
1
1
1
1
1
1
1
1
1
1
1
1
1
1
1
1
1
0.999996
0.996382
0.980908
0.955143
0.921078
0.880349
0.826398
0.751135
0.656243
0.543323
0.409775
0.25414
0.0992458
0.0289636
0.0579558
0.243179
0.333383
0.335601
0.33756
0.304271
0.176389
0.24573
0.0520535
0.000349637
6.84391e-05
2.70777e-05
1
1
1
1
1
1
1
1
1
1
1
1
0.971686
0.929933
0.876734
0.808736
0.739672
0.681939
0.622816
0.530967
0.405124
0.298168
0.22335
0.166807
0.114191
0.0622576
0.018956
6.89633e-06
5.39199e-05
9.26326e-05
0.000314583
0.00373488
0.164188
0.319595
0.333434
0.319072
0.238734
0.117302
0.0998122
0.0924574
0.0122439
0.000185059
0.000109218
9.64979e-05
1
1
1
1
1
1
0.990875
0.922699
0.828488
0.708266
0.569792
0.426085
0.315134
0.226797
0.152219
0.0915426
0.0475066
0.0183665
0.00319195
-2.57533e-11
-4.42943e-12
0
7.75965e-12
9.01362e-11
8.8197e-10
8.43592e-09
8.02568e-08
7.59041e-07
6.90493e-06
5.20495e-05
0.000387806
0.0162986
0.113381
0.12605
0.0860786
0.0669058
0.0903342
0.17095
0.200771
0.163125
0.0033413
0.000292799
0.000289563
0.000104036
1
1
1
0.949867
0.818892
0.631263
0.41702
0.248713
0.12929
0.0544311
0.0158736
0.00260842
0.000794171
0.000400507
0.000176712
5.96721e-05
1.44345e-05
1.52297e-06
-8.8244e-08
-6.2956e-10
-9.91457e-11
-1.44171e-27
4.37009e-12
2.10203e-10
2.48931e-09
2.45765e-08
2.26728e-07
1.95398e-06
1.44954e-05
0.000112007
0.00859487
0.0221565
0.00865981
0.00133745
0.00237251
0.0642193
0.199802
0.198728
0.199014
0.0452818
0.0004891
0.000415623
0.000302909
0.00217717
0.953127
0.847966
0.628696
0.348966
0.146393
0.041292
0.0067952
0.00254053
0.00128921
0.000607964
0.000277064
0.000127126
5.58092e-05
2.24073e-05
8.57143e-06
2.3327e-06
4.27232e-07
3.20926e-08
-3.16392e-10
-3.42073e-10
-6.69665e-10
-7.06205e-10
-1.2584e-12
2.35667e-10
3.00685e-09
2.99273e-08
2.61271e-07
2.03105e-06
2.83759e-05
0.00120582
0.00204719
0.000590124
4.09683e-05
0.000172343
0.000885735
0.104876
0.200664
0.199802
0.192699
0.000600343
0.000492392
0.00053819
0.00105818
0.0212687
0.323583
0.170232
0.046415
0.00583147
0.00279909
0.00138135
0.000717767
0.000359167
0.000165259
7.02331e-05
2.86454e-05
1.16181e-05
4.53439e-06
1.57249e-06
4.57358e-07
9.97298e-08
1.35659e-08
2.73708e-10
-2.76876e-12
-1.30492e-09
-3.21376e-09
-5.2128e-09
-2.55681e-09
-9.47156e-12
3.97973e-09
4.31516e-08
3.8625e-07
3.77611e-06
0.000254239
0.000522268
0.000157408
5.40514e-06
1.29594e-05
4.0819e-05
0.000135068
0.000869406
0.0719409
0.197914
0.1791
0.0377964
0.000600343
0.00107369
0.0040981
0.171825
-6.1072e-05
0.00218468
0.00173894
0.000964507
0.000477689
0.000228539
0.000113037
5.13796e-05
2.15455e-05
8.24968e-06
3.00609e-06
1.07988e-06
3.62026e-07
1.06626e-07
2.56031e-08
4.51857e-09
4.49211e-10
-3.69617e-13
-2.34254e-09
-9.00829e-09
-2.1632e-08
-3.42381e-08
-3.00973e-08
7.3869e-25
5.01475e-09
5.72122e-08
5.52232e-07
5.45749e-05
0.000179129
9.36968e-05
6.3653e-06
2.65245e-06
7.66357e-06
1.81167e-05
7.01095e-05
0.00034965
0.00909564
0.192833
0.181384
0.129064
0.0011455
0.0026767
0.0157637
0.451235
-9.58042e-06
0.000326037
0.000286375
0.000164321
8.13885e-05
3.81739e-05
1.7461e-05
7.41012e-06
2.86197e-06
1.01704e-06
3.42618e-07
1.10448e-07
3.27653e-08
8.41769e-09
1.74837e-09
2.71139e-10
-1.15707e-27
-1.3068e-10
-2.93123e-09
-1.15649e-08
-3.13037e-08
-6.01521e-08
-7.56561e-08
-3.73437e-08
5.90524e-24
4.01201e-08
6.57193e-06
3.04365e-05
2.10736e-05
4.27392e-08
8.52385e-08
5.8746e-07
2.02236e-06
7.52514e-06
3.37664e-05
0.000183956
0.00292149
0.100786
0.175134
0.142562
0.00277067
0.00613573
0.0871527
0.746398
0.960607
-7.81641e-07
6.18523e-05
4.82984e-05
2.73811e-05
1.33134e-05
6.11309e-06
2.68266e-06
1.0776e-06
3.91494e-07
1.29868e-07
4.03909e-08
1.194e-08
3.26017e-09
8.01838e-10
1.69039e-10
2.48125e-11
0
-2.30595e-10
-2.1971e-09
-9.17958e-09
-2.68205e-08
-5.80741e-08
-8.90553e-08
-7.90723e-08
0
2.31378e-07
2.68144e-06
2.69559e-06
2.41392e-08
3.47324e-09
1.90485e-08
1.38453e-07
6.17092e-07
2.73915e-06
1.44388e-05
3.84651e-05
0.000628851
0.0760538
0.174501
0.125292
0.00619615
0.0122524
0.245392
0.943296
0.963984
-1.0629e-07
1.06033e-05
8.0462e-06
4.50142e-06
2.15816e-06
9.60932e-07
4.04126e-07
1.55274e-07
5.37868e-08
1.6997e-08
5.0348e-09
1.45599e-09
4.1339e-10
1.16545e-10
2.24121e-11
0
-9.90431e-12
-2.42545e-10
-1.42964e-09
-6.03054e-09
-1.87607e-08
-4.53454e-08
-8.26838e-08
-1.05281e-07
-6.88105e-08
2.39344e-08
8.12818e-08
5.99767e-09
1.21631e-09
2.49869e-10
2.98167e-09
2.08066e-08
1.27703e-07
6.5271e-07
4.39771e-06
2.85097e-05
0.000334878
0.0411744
0.174644
0.141564
0.0123103
0.0275757
0.47627
0.989283
0.975413
-1.44987e-08
1.74952e-06
1.31376e-06
7.24285e-07
3.39535e-07
1.46936e-07
5.97205e-08
2.22394e-08
7.52131e-09
2.37905e-09
7.4539e-10
2.49166e-10
8.13989e-11
3.20898e-11
8.16801e-12
1.64885e-13
-4.7246e-11
-2.77137e-10
-1.12569e-09
-3.74889e-09
-1.13673e-08
-3.02209e-08
-6.35394e-08
-1.01041e-07
-1.09875e-07
-6.0016e-08
-2.30156e-14
-4.80327e-14
-3.29169e-11
-1.11943e-11
1.45626e-10
1.55013e-09
8.59274e-09
4.31432e-08
5.20586e-07
8.34122e-06
0.000111336
0.0131731
0.126871
0.137938
0.0263798
0.100747
0.695753
0.995438
0.985244
-1.82148e-09
2.79828e-07
2.07678e-07
1.12459e-07
5.17056e-08
2.19206e-08
8.75482e-09
3.269e-09
1.16447e-09
4.19474e-10
1.58091e-10
6.97588e-11
4.24518e-11
1.1918e-11
6.02813e-13
-9.79298e-12
-6.25597e-11
-2.56535e-10
-8.77588e-10
-2.59195e-09
-6.90148e-09
-1.74563e-08
-4.16583e-08
-7.88485e-08
-1.11538e-07
-1.08212e-07
-6.24571e-08
-2.2607e-08
-5.48763e-09
-1.01255e-10
0
1.47374e-10
6.55459e-10
4.7678e-09
1.907e-08
2.37772e-07
7.98538e-06
0.000127176
0.00656412
0.0951372
0.0694631
0.225177
0.850133
0.998211
0.995493
-1.64377e-10
4.3115e-08
3.15854e-08
1.68963e-08
7.7237e-09
3.30284e-09
1.37742e-09
5.65696e-10
2.40135e-10
1.01026e-10
7.68348e-11
3.82343e-11
1.27029e-11
8.63895e-13
-2.82531e-12
-1.60801e-11
-5.93706e-11
-2.02054e-10
-6.25738e-10
-1.73745e-09
-4.38461e-09
-1.0456e-08
-2.42218e-08
-5.09773e-08
-8.92435e-08
-1.14967e-07
-1.05468e-07
-6.98281e-08
-3.60967e-08
-1.5077e-08
-4.3308e-09
-6.16619e-13
-6.59505e-11
0
-5.21362e-10
-1.86491e-08
-1.35023e-06
1.41344e-05
0.00218935
0.0125179
0.0929604
0.389291
0.945894
0.999325
0.99755
-6.09149e-14
6.50149e-09
4.73875e-09
2.57343e-09
1.23714e-09
5.747e-10
2.75668e-10
1.2414e-10
9.7234e-11
5.83785e-11
2.96537e-11
9.77258e-12
7.38956e-13
-9.96816e-13
-5.92382e-12
-1.61287e-11
-4.65534e-11
-1.40827e-10
-4.09011e-10
-1.09653e-09
-2.70859e-09
-6.3049e-09
-1.42062e-08
-3.05406e-08
-5.91686e-08
-9.28334e-08
-1.12385e-07
-1.03117e-07
-7.46387e-08
-4.56107e-08
-2.4237e-08
-9.80302e-09
-2.47779e-09
-9.78728e-10
-1.89084e-12
-5.08126e-10
-3.66932e-08
1.92359e-06
0.000133837
0.000680997
0.0869492
0.553174
0.992463
0.999728
0.999284
-1.1381e-17
1.06892e-09
7.95432e-10
4.59679e-10
2.46145e-10
1.20257e-10
9.39778e-11
6.44942e-11
3.84196e-11
1.84748e-11
5.89743e-12
6.06231e-13
-2.13646e-13
-2.71467e-12
-6.03323e-12
-1.26829e-11
-3.17296e-11
-8.86824e-11
-2.46933e-10
-6.49044e-10
-1.59257e-09
-3.68944e-09
-8.22729e-09
-1.77588e-08
-3.60244e-08
-6.34908e-08
-9.16402e-08
-1.04983e-07
-9.70746e-08
-7.64545e-08
-5.43854e-08
-3.71267e-08
-2.18443e-08
-6.55813e-09
-2.05307e-10
4.87642e-09
4.30401e-07
1.65776e-05
4.08747e-05
0.000684074
0.0762536
0.635286
0.999726
0.999859
0.999785
3.36321e-14
2.11669e-10
1.59016e-10
9.33e-11
8.09424e-11
5.75172e-11
3.65661e-11
2.03645e-11
8.62313e-12
3.01562e-12
4.77707e-13
0
-1.14678e-12
-2.63217e-12
-4.55138e-12
-8.40031e-12
-1.92267e-11
-5.09814e-11
-1.38294e-10
-3.60247e-10
-8.8566e-10
-2.06363e-09
-4.61607e-09
-1.00113e-08
-2.0778e-08
-3.92182e-08
-6.35913e-08
-8.50886e-08
-9.37913e-08
-8.82278e-08
-7.4509e-08
-5.97695e-08
-4.61205e-08
-2.31376e-08
-1.17133e-09
1.31549e-08
9.34129e-08
4.52208e-06
0.000100368
0.00144915
0.0920912
0.654945
0.992911
0.999898
0.999879
1.94696e-11
6.00501e-11
5.88595e-11
4.3155e-11
2.9059e-11
1.70971e-11
8.0404e-12
3.3929e-12
1.24898e-12
2.97615e-13
1.0648e-14
-3.67883e-13
-1.05227e-12
-1.8185e-12
-2.81152e-12
-4.83069e-12
-1.04717e-11
-2.68806e-11
-7.19531e-11
-1.87382e-10
-4.64522e-10
-1.09577e-09
-2.47991e-09
-5.4329e-09
-1.14598e-08
-2.25627e-08
-3.95617e-08
-5.91822e-08
-7.43805e-08
-7.99763e-08
-7.63371e-08
-6.74262e-08
-5.60937e-08
-4.31065e-08
-1.00984e-09
-2.23225e-09
1.59018e-07
8.9196e-06
0.000125561
0.00136214
0.0627218
0.603351
0.974068
0.999906
0.999903
1.58776e-11
2.05983e-11
1.79531e-11
1.16827e-11
5.81202e-12
2.64234e-12
1.10112e-12
4.35015e-13
1.37894e-13
8.6588e-15
-7.48912e-14
-3.37995e-13
-6.59568e-13
-1.01317e-12
-1.48056e-12
-2.44914e-12
-5.15422e-12
-1.302e-11
-3.47648e-11
-9.11957e-11
-2.29218e-10
-5.50102e-10
-1.26691e-09
-2.81909e-09
-6.04615e-09
-1.2264e-08
-2.27098e-08
-3.68783e-08
-5.12855e-08
-6.13342e-08
-6.4604e-08
-6.17289e-08
-5.46965e-08
-4.45016e-08
-8.19793e-09
-3.68718e-10
2.52915e-07
6.18929e-06
9.77236e-05
0.000858939
0.020288
0.479538
0.93546
0.999907
0.999911
3.57782e-12
3.91592e-12
2.95158e-12
1.59816e-12
7.22598e-13
3.11708e-13
1.29444e-13
4.88654e-14
8.00292e-15
-2.90421e-15
-8.03931e-14
-1.95137e-13
-3.28971e-13
-4.76732e-13
-6.78093e-13
-1.10422e-12
-2.29888e-12
-5.79285e-12
-1.55747e-11
-4.14328e-11
-1.06126e-10
-2.60236e-10
-6.12629e-10
-1.39126e-09
-3.0431e-09
-6.33253e-09
-1.22206e-08
-2.11301e-08
-3.18559e-08
-4.16269e-08
-4.77649e-08
-4.91259e-08
-4.61439e-08
-4.0046e-08
-1.98895e-08
-3.59829e-09
2.22264e-07
4.60924e-06
5.64849e-05
0.000494197
0.00359913
0.298302
0.826998
0.999912
0.999913
2.98855e-13
4.36061e-13
3.24241e-13
1.71294e-13
7.78185e-14
3.35346e-14
1.38098e-14
4.19548e-15
2.37628e-16
-1.24961e-14
-4.4307e-14
-8.76872e-14
-1.37526e-13
-1.93701e-13
-2.73214e-13
-4.4515e-13
-9.30499e-13
-2.36557e-12
-6.4563e-12
-1.75248e-11
-4.59638e-11
-1.15636e-10
-2.79364e-10
-6.50237e-10
-1.45599e-09
-3.10879e-09
-6.21366e-09
-1.13056e-08
-1.82262e-08
-2.57157e-08
-3.19026e-08
-3.52807e-08
-3.52676e-08
-3.26165e-08
-2.38671e-08
-1.67251e-09
7.55926e-08
1.93058e-06
2.51523e-05
0.000226924
0.00169775
0.112854
0.55014
0.944301
0.999912
2.33946e-14
4.15916e-14
3.14669e-14
1.68178e-14
7.63917e-15
3.27648e-15
1.27722e-15
2.00171e-16
-8.01373e-16
-7.19425e-15
-1.8219e-14
-3.2674e-14
-4.93687e-14
-6.8837e-14
-9.7613e-14
-1.61188e-13
-3.42289e-13
-8.85913e-13
-2.47116e-12
-6.88099e-12
-1.85635e-11
-4.8105e-11
-1.1972e-10
-2.86737e-10
-6.59857e-10
-1.44888e-09
-2.99414e-09
-5.69651e-09
-9.7351e-09
-1.47129e-08
-1.96388e-08
-2.33478e-08
-2.50026e-08
-2.43949e-08
-2.19832e-08
-3.5429e-10
1.77399e-08
5.48379e-07
7.95787e-06
7.7363e-05
0.000607213
0.0257303
0.226711
0.62974
0.962205
1.85253e-15
3.61794e-15
2.77423e-15
1.48913e-15
6.72231e-16
2.84714e-16
8.92643e-17
4.91766e-18
-7.23053e-16
-2.79854e-15
-6.10477e-15
-1.03852e-14
-1.54369e-14
-2.16059e-14
-3.11695e-14
-5.27389e-14
-1.14781e-13
-3.04354e-13
-8.71931e-13
-2.50152e-12
-6.96946e-12
-1.86737e-11
-4.80522e-11
-1.18881e-10
-2.82266e-10
-6.39411e-10
-1.36732e-09
-2.71313e-09
-4.8901e-09
-7.87479e-09
-1.12706e-08
-1.43989e-08
-1.65656e-08
-1.73259e-08
-1.66396e-08
-5.68414e-09
-5.80766e-10
8.90662e-08
1.67119e-06
1.92989e-05
0.000170306
0.00330838
0.0778915
0.238665
0.581112
1.33857e-16
2.81361e-16
2.17675e-16
1.17002e-16
5.24952e-17
2.13715e-17
3.98075e-18
-2.63059e-17
-2.91065e-16
-8.59163e-16
-1.72967e-15
-2.86512e-15
-4.257e-15
-6.06091e-15
-9.00756e-15
-1.5773e-14
-3.53607e-14
-9.62442e-14
-2.83682e-13
-8.40618e-13
-2.42601e-12
-6.7431e-12
-1.8004e-11
-4.61807e-11
-1.13567e-10
-2.66357e-10
-5.90714e-10
-1.22221e-09
-2.31743e-09
-3.96294e-09
-6.06584e-09
-8.32063e-09
-1.02953e-08
-1.15878e-08
-1.19534e-08
-1.12281e-08
-2.02119e-11
6.07821e-09
1.82509e-07
3.03187e-06
3.85606e-05
0.000308378
0.00816275
0.0749577
0.191463
8.54917e-18
1.93357e-17
1.50843e-17
8.12174e-18
3.6043e-18
1.21365e-18
1.00258e-19
-1.6993e-17
-8.56871e-17
-2.20403e-16
-4.24569e-16
-6.98474e-16
-1.05461e-15
-1.55326e-15
-2.41657e-15
-4.42058e-15
-1.01966e-14
-2.83187e-14
-8.55066e-14
-2.61353e-13
-7.81974e-13
-2.25959e-12
-6.27803e-12
-1.67523e-11
-4.28259e-11
-1.04371e-10
-2.40755e-10
-5.20042e-10
-1.03647e-09
-1.87836e-09
-3.06855e-09
-4.514e-09
-6.00604e-09
-7.27947e-09
-8.09477e-09
-8.30132e-09
-6.56822e-09
0
1.26926e-08
3.08046e-07
5.27695e-06
4.94088e-05
0.000229858
0.00520587
0.0820822
4.83285e-19
1.17136e-18
9.20455e-19
4.93633e-19
2.02095e-19
2.59404e-20
-3.28639e-19
-5.55391e-18
-2.07155e-17
-4.917e-17
-9.30067e-17
-1.55222e-16
-2.43637e-16
-3.80549e-16
-6.33362e-16
-1.21955e-15
-2.863e-15
-7.95951e-15
-2.42316e-14
-7.5693e-14
-2.33878e-13
-7.02202e-13
-2.03309e-12
-5.65826e-12
-1.50851e-11
-3.83333e-11
-9.22567e-11
-2.08451e-10
-4.36836e-10
-8.38107e-10
-1.45899e-09
-2.29848e-09
-3.28558e-09
-4.28591e-09
-5.13501e-09
-5.68439e-09
-5.72696e-09
-2.34941e-09
-4.7209e-12
2.0805e-08
4.09336e-07
3.71408e-06
2.32443e-05
0.000136524
0.00748056
2.41363e-20
6.22847e-20
4.8929e-20
2.45081e-20
4.54276e-21
-1.3427e-36
-2.44437e-19
-1.42833e-18
-4.44809e-18
-1.00817e-17
-1.92265e-17
-3.35022e-17
-5.6457e-17
-9.65151e-17
-1.75547e-16
-3.56412e-16
-8.35069e-16
-2.24808e-15
-6.67691e-15
-2.08167e-14
-6.55173e-14
-2.03071e-13
-6.11495e-13
-1.77619e-12
-4.94902e-12
-1.31506e-11
-3.31179e-11
-7.84502e-11
-1.73032e-10
-3.51334e-10
-6.50986e-10
-1.09676e-09
-1.68211e-09
-2.35881e-09
-3.04121e-09
-3.6257e-09
-4.00105e-09
-3.71314e-09
-1.16105e-11
1.04252e-09
2.51919e-08
3.04457e-07
2.17027e-06
1.55392e-05
9.16704e-05
1.05364e-21
2.86532e-21
2.10123e-21
4.55081e-22
0
-1.72951e-20
-9.11653e-20
-3.42731e-19
-9.39567e-19
-2.09117e-18
-4.14132e-18
-7.77606e-18
-1.44725e-17
-2.75541e-17
-5.49071e-17
-1.1667e-16
-2.68977e-16
-6.81306e-16
-1.89293e-15
-5.6541e-15
-1.75931e-14
-5.52949e-14
-1.71621e-13
-5.18523e-13
-1.50974e-12
-4.20164e-12
-1.10976e-11
-2.76194e-11
-6.41977e-11
-1.37971e-10
-2.71896e-10
-4.89259e-10
-8.03938e-10
-1.21011e-09
-1.67632e-09
-2.14817e-09
-2.55613e-09
-2.77354e-09
-2.01942e-09
-2.3192e-11
1.81296e-09
2.57318e-08
1.90561e-07
1.15323e-06
7.09836e-06
3.74587e-23
1.01663e-22
2.46835e-23
-2.09796e-38
-2.11844e-21
-8.88747e-21
-2.94964e-20
-8.71014e-20
-2.19522e-19
-4.908e-19
-1.02672e-18
-2.09544e-18
-4.2889e-18
-8.93926e-18
-1.91011e-17
-4.19943e-17
-9.56257e-17
-2.28502e-16
-5.82668e-16
-1.60215e-15
-4.71867e-15
-1.45395e-14
-4.5542e-14
-1.41543e-13
-4.28655e-13
-1.24824e-12
-3.46102e-12
-9.06367e-12
-2.22284e-11
-5.05849e-11
-1.05975e-10
-2.03459e-10
-3.57679e-10
-5.7701e-10
-8.57403e-10
-1.17888e-09
-1.50607e-09
-1.78384e-09
-1.84685e-09
-8.55094e-10
-2.88931e-11
1.96937e-09
1.58448e-08
9.45546e-08
5.42121e-07
3.27571e-25
9.54193e-25
1.63903e-40
-2.4112e-22
-1.03229e-21
-3.22544e-21
-9.17953e-21
-2.42301e-20
-5.8605e-20
-1.32794e-19
-2.90931e-19
-6.32035e-19
-1.38186e-18
-3.05657e-18
-6.83469e-18
-1.54155e-17
-3.50987e-17
-8.12537e-17
-1.94193e-16
-4.89294e-16
-1.32225e-15
-3.83475e-15
-1.17121e-14
-3.66083e-14
-1.13898e-13
-3.4512e-13
-1.00287e-12
-2.76402e-12
-7.15707e-12
-1.72524e-11
-3.84141e-11
-7.86229e-11
-1.47699e-10
-2.54999e-10
-4.05815e-10
-5.97656e-10
-8.17815e-10
-1.0418e-09
-1.21914e-09
-1.17486e-09
-1.74733e-10
-3.52057e-11
1.17588e-09
7.36844e-09
3.74056e-08
-8.29365e-26
-1.33184e-24
-2.20049e-23
-1.02509e-22
-3.42921e-22
-1.00279e-21
-2.71566e-21
-6.87345e-21
-1.63862e-20
-3.75946e-20
-8.49746e-20
-1.92361e-19
-4.39054e-19
-1.00932e-18
-2.32651e-18
-5.35539e-18
-1.22965e-17
-2.82552e-17
-6.55693e-17
-1.56206e-16
-3.90599e-16
-1.0456e-15
-3.00984e-15
-9.16537e-15
-2.86577e-14
-8.92312e-14
-2.70127e-13
-7.81792e-13
-2.13626e-12
-5.45435e-12
-1.29045e-11
-2.81401e-11
-5.64366e-11
-1.04155e-10
-1.77288e-10
-2.79264e-10
-4.08603e-10
-5.57029e-10
-7.06285e-10
-8.12098e-10
-7.30053e-10
-8.35183e-13
-1.51421e-11
5.10842e-10
2.50304e-09
-3.68947e-25
-1.59114e-24
-7.99349e-24
-2.98745e-23
-9.52069e-23
-2.7459e-22
-7.30966e-22
-1.82014e-21
-4.32198e-21
-1.00301e-20
-2.32263e-20
-5.42421e-20
-1.27795e-19
-3.02071e-19
-7.11988e-19
-1.66708e-18
-3.87472e-18
-8.95932e-18
-2.07203e-17
-4.84019e-17
)
;

boundaryField
{
    leftWall
    {
        type            zeroGradient;
    }
    rightWall
    {
        type            zeroGradient;
    }
    lowerWall
    {
        type            zeroGradient;
    }
    atmosphere
    {
        type            inletOutlet;
        inletValue      nonuniform 0();
        value           nonuniform 0();
    }
    defaultFaces
    {
        type            empty;
    }
    procBoundary0to1
    {
        type            processor;
        value           nonuniform List<scalar> 
44
(
1
1
1
1
1
1
1
1
1
0.999999
0.967172
0.29656
2.04318e-05
2.06977e-05
2.70792e-05
0.00285053
0.173968
0.503066
0.890482
0.958797
0.958797
0.958631
0.934246
0.853029
0.837028
0.905545
0.989038
0.998711
0.99957
0.999809
0.999887
0.999903
0.999911
0.999913
0.999911
0.920927
0.471539
0.177784
0.0271504
0.000216314
1.34719e-05
9.3191e-07
5.6023e-08
3.55271e-09
)
;
    }
    procBoundary0to2
    {
        type            processor;
        value           nonuniform List<scalar> 
46
(
-1.1605e-16
-2.91801e-16
-7.84757e-16
-2.26928e-15
-6.94109e-15
-2.17745e-14
-6.78731e-14
-2.05067e-13
-5.89827e-13
-1.59351e-12
-4.00393e-12
-9.29765e-12
-1.9894e-11
-3.92129e-11
-7.13192e-11
-1.20027e-10
-1.8755e-10
-2.73001e-10
-3.70795e-10
-4.67541e-10
-5.30708e-10
-4.64912e-10
-4.69316e-11
-4.19691e-12
1.26485e-10
-1.1567e-25
-4.7475e-25
-2.01219e-24
-7.18924e-24
-2.2774e-23
-6.53162e-23
-1.71837e-22
-4.23393e-22
-1.00439e-21
-2.35835e-21
-5.5831e-21
-1.33918e-20
-3.23722e-20
-7.82029e-20
-1.8764e-19
-4.46124e-19
-1.0518e-18
-2.4656e-18
-5.76975e-18
-1.1605e-16
-1.35561e-17
)
;
    }
}


// ************************************************************************* //
