/*--------------------------------*- C++ -*----------------------------------*\
| =========                 |                                                 |
| \\      /  F ield         | OpenFOAM: The Open Source CFD Toolbox           |
|  \\    /   O peration     | Version:  5.0                                   |
|   \\  /    A nd           | Web:      www.OpenFOAM.org                      |
|    \\/     M anipulation  |                                                 |
\*---------------------------------------------------------------------------*/
FoamFile
{
    version     2.0;
    format      ascii;
    class       volScalarField;
    location    "1";
    object      epsilon;
}
// * * * * * * * * * * * * * * * * * * * * * * * * * * * * * * * * * * * * * //

dimensions      [0 2 -3 0 0 0 0];

internalField   nonuniform List<scalar> 
1935
(
0.00884399
0.0306657
0.0566711
0.0830704
0.108547
0.132666
0.15566
0.177944
0.199895
0.221795
0.243844
0.266192
0.288969
0.312311
0.33636
0.361278
0.38724
0.414447
0.443136
0.473625
0.506415
0.542494
0.581898
0.624008
0.669639
0.719775
0.775344
0.837052
0.905125
0.978987
1.05703
1.1364
1.21481
1.29147
1.35395
1.39308
1.40428
1.38477
1.32814
1.23064
1.09363
0.921472
0.709092
0.467088
0.0257921
0.0307165
0.0451093
0.0595679
0.0728559
0.0848044
0.0955716
0.105386
0.114464
0.122993
0.131132
0.139028
0.146817
0.154638
0.162633
0.170952
0.179752
0.189205
0.199503
0.210867
0.223584
0.238118
0.254786
0.273466
0.294428
0.318032
0.344619
0.374435
0.407532
0.443661
0.482185
0.522012
0.561665
0.599347
0.631901
0.65593
0.668611
0.667538
0.650313
0.61519
0.561232
0.488224
0.396645
0.291429
0.0479617
0.0370381
0.0471328
0.0583772
0.0686198
0.0775411
0.0852771
0.0920637
0.0981341
0.103692
0.108911
0.113946
0.118941
0.124035
0.129376
0.135115
0.141422
0.148483
0.156513
0.16576
0.176525
0.189195
0.204025
0.221261
0.241244
0.264351
0.290922
0.321186
0.355165
0.39257
0.432731
0.474548
0.516479
0.556565
0.592372
0.621162
0.640294
0.647415
0.64056
0.618206
0.578989
0.521574
0.445933
0.356176
0.0710055
0.0442992
0.0510447
0.0603243
0.0689548
0.0763781
0.0826728
0.0880724
0.0928204
0.0971311
0.101188
0.105152
0.109173
0.113403
0.117997
0.123128
0.128987
0.135798
0.143819
0.153356
0.164777
0.178499
0.194916
0.214477
0.237682
0.265043
0.297009
0.333863
0.3756
0.421808
0.471601
0.52361
0.576008
0.626555
0.672635
0.711373
0.739928
0.755776
0.756984
0.742212
0.710019
0.658077
0.584993
0.494353
0.0949123
0.0520698
0.0556467
0.0632712
0.0706958
0.0771048
0.0824936
0.0870728
0.0910832
0.0947422
0.0982374
0.101736
0.105399
0.109389
0.113881
0.119076
0.125205
0.13254
0.14141
0.15221
0.165419
0.181573
0.201266
0.225174
0.254031
0.28857
0.32941
0.376912
0.431004
0.491046
0.555783
0.623416
0.691713
0.758034
0.819342
0.872327
0.913699
0.940537
0.950832
0.943709
0.918187
0.87099
0.798807
0.704102
0.11973
0.0601986
0.0605993
0.0666668
0.073044
0.0786528
0.0833899
0.0874266
0.0909897
0.0942926
0.0975248
0.10086
0.104469
0.108534
0.113257
0.118876
0.125675
0.133997
0.144266
0.157004
0.172853
0.192544
0.216938
0.247015
0.283831
0.328416
0.381606
0.443819
0.514823
0.593575
0.67826
0.766513
0.855646
0.942621
1.02391
1.09559
1.15365
1.19445
1.21576
1.21761
1.20052
1.16084
1.09337
0.999172
0.145363
0.068562
0.0657234
0.0702749
0.0756911
0.0806241
0.0848621
0.0885257
0.0918189
0.0949464
0.0980973
0.101452
0.105197
0.109536
0.114707
0.120996
0.128756
0.138426
0.150554
0.165834
0.185131
0.209452
0.240011
0.278193
0.325473
0.383245
0.452572
0.533858
0.626528
0.728897
0.838363
0.951909
1.06649
1.17883
1.28496
1.38021
1.45948
1.51786
1.55261
1.56509
1.55895
1.5318
1.47809
1.39952
0.171548
0.0770238
0.0708796
0.0739461
0.0784699
0.0828209
0.0866712
0.0900831
0.0932318
0.0963102
0.0995064
0.103009
0.107022
0.111778
0.117559
0.124713
0.133679
0.145015
0.159434
0.177851
0.201422
0.231523
0.269825
0.318229
0.378715
0.45309
0.542599
0.647476
0.766552
0.897201
1.03582
1.17875
1.32291
1.46512
1.60118
1.72553
1.83141
1.91184
1.96311
1.98787
1.99492
1.98676
1.96182
1.92893
0.197844
0.0854152
0.0759345
0.0775603
0.0812646
0.0851206
0.0886781
0.0919367
0.0950392
0.0981651
0.101502
0.105248
0.109629
0.114913
0.121433
0.129615
0.140001
0.153299
0.170428
0.192582
0.221275
0.258361
0.306083
0.366957
0.443542
0.538042
0.651777
0.784586
0.934408
1.09736
1.26868
1.44426
1.62143
1.79769
1.96899
2.12901
2.26829
2.37638
2.44818
2.48646
2.50682
2.52454
2.5473
2.60596
0.223602
0.0935246
0.0807496
0.0810098
0.0839835
0.0874356
0.0907898
0.0939809
0.097119
0.10037
0.103922
0.107986
0.112811
0.118707
0.126071
0.135415
0.147409
0.16294
0.183174
0.209648
0.244313
0.289607
0.348447
0.424052
0.519573
0.637542
0.77917
0.943655
1.12775
1.32607
1.53258
1.74298
1.95566
2.16952
2.38168
2.58555
2.76635
2.90828
3.00569
3.05813
3.08813
3.13775
3.22635
3.41889
0.24822
0.10117
0.0852234
0.084228
0.0865769
0.0897209
0.0929577
0.0961588
0.0994031
0.102844
0.106672
0.111111
0.116441
0.123018
0.131311
0.141934
0.155707
0.173724
0.197448
0.228819
0.270315
0.325053
0.396719
0.489276
0.606424
0.75087
0.923506
1.12267
1.34372
1.57959
1.82292
2.06942
2.31899
2.57315
2.83135
3.08662
3.31349
3.49352
3.62294
3.69336
3.73471
3.82431
3.99076
4.27733
0.270252
0.107995
0.0891948
0.0871245
0.0889848
0.0919276
0.0951332
0.0984166
0.101829
0.105515
0.109667
0.114527
0.120405
0.127712
0.136995
0.148987
0.164675
0.185396
0.212952
0.249748
0.298874
0.364212
0.450276
0.561757
0.702779
0.876007
1.08181
1.31753
1.57716
1.8519
2.13288
2.41543
2.70104
2.99392
3.2935
3.59026
3.86005
4.08618
4.25937
4.36725
4.44158
4.58937
4.86442
5.27839
0.287956
0.113624
0.0925168
0.0896242
0.0911556
0.0940064
0.0972597
0.100686
0.104315
0.108285
0.112794
0.1181
0.124548
0.132604
0.142901
0.156298
0.17397
0.19752
0.229128
0.271716
0.329051
0.405833
0.507407
0.639101
0.805249
1.00821
1.24766
1.5201
1.81836
2.13216
2.45051
2.76609
3.07586
3.38232
3.70694
4.02802
4.3427
4.63386
4.87376
5.04497
5.19425
5.41838
5.8644
6.4941
0.299144
0.11773
0.0951031
0.0916904
0.0930553
0.0959094
0.0992701
0.10288
0.106758
0.111038
0.115923
0.121686
0.128705
0.137502
0.148797
0.16358
0.183223
0.209617
0.245351
0.293893
0.359731
0.448398
0.566027
0.718416
0.909825
1.142
1.41384
1.72135
2.05672
2.40902
2.76331
3.09331
3.37062
3.68287
4.0229
4.38212
4.75042
5.12219
5.44651
5.68542
5.94253
6.26494
6.71158
7.53575
0.301414
0.120133
0.0969286
0.0932897
0.0946202
0.0975416
0.101044
0.104865
0.109019
0.113635
0.118914
0.125136
0.132707
0.142205
0.154434
0.170512
0.192011
0.221124
0.260863
0.315257
0.38952
0.490009
0.623557
0.79624
1.0119
1.27127
1.57247
1.91144
2.28016
2.66928
3.03412
3.289
3.57219
3.89878
4.26557
4.65977
5.07274
5.49803
5.86992
6.19675
6.56922
6.89243
7.51904
9.01089
0.293772
0.121041
0.0980218
0.0943536
0.0957514
0.0988041
0.102486
0.106542
0.110995
0.11597
0.121652
0.12831
0.13637
0.146484
0.15953
0.176735
0.19986
0.231396
0.274782
0.334587
0.416751
0.528437
0.677112
0.868942
1.10693
1.39027
1.71597
2.077
2.45193
2.80374
3.10986
3.40045
3.71166
4.07562
4.47246
4.88312
5.28934
5.69308
6.09203
6.53276
7.07335
7.41974
8.2096
9.2203
0.281924
0.121651
0.0985165
0.0948446
0.0964358
0.0997337
0.103624
0.10786
0.112566
0.117883
0.123972
0.131034
0.139459
0.150053
0.163748
0.181839
0.206245
0.239716
0.28607
0.350459
0.439534
0.561215
0.723597
0.932687
1.18973
1.48964
1.82209
2.17048
2.51104
2.834
3.15158
3.47037
3.82653
4.25079
4.63839
5.02757
5.38739
5.798
6.27923
6.87586
7.54656
7.99918
8.62686
8.26093
0.27715
0.123399
0.0988133
0.0948717
0.0967294
0.100414
0.104561
0.108692
0.113305
0.118609
0.124738
0.13199
0.140829
0.15193
0.166192
0.184975
0.210341
0.245266
0.293885
0.361826
0.456329
0.585889
0.758807
0.980186
1.24842
1.55299
1.87676
2.20266
2.5183
2.83096
3.15875
3.51312
3.91139
4.34735
4.78098
5.11874
5.45366
5.89095
6.46889
7.23119
7.97261
8.56597
8.28901
7.30072
0.287194
0.125622
0.0988177
0.0944588
0.0961606
0.0994411
0.1031
0.107028
0.1116
0.116993
0.123363
0.130986
0.14025
0.151726
0.166336
0.185532
0.21149
0.247339
0.297415
0.367603
0.465446
0.599658
0.778191
1.00478
1.27516
1.57535
1.88568
2.19084
2.48867
2.79327
3.12283
3.48302
3.87303
4.31421
4.87299
5.28301
5.54314
5.99166
6.6541
7.50092
8.37118
8.57309
7.63142
6.53508
0.311304
0.129382
0.0971503
0.0921522
0.0933522
0.0960742
0.0995083
0.103624
0.108517
0.114237
0.120874
0.128653
0.13798
0.149484
0.164133
0.183419
0.209555
0.245697
0.296229
0.367076
0.465789
0.60084
0.779464
1.00403
1.26848
1.55752
1.85188
2.139
2.42107
2.71131
3.02355
3.36556
3.75077
4.21513
4.76546
5.26788
5.61535
6.10064
6.86412
7.85343
8.91646
8.44504
7.09911
5.96343
0.292379
0.119845
0.0941636
0.0891494
0.0899312
0.092518
0.0959657
0.10012
0.105019
0.110697
0.117243
0.124882
0.134028
0.145336
0.159787
0.178864
0.204737
0.240476
0.290355
0.36011
0.456956
0.58878
0.76194
0.977816
1.22973
1.50288
1.77976
2.04995
2.31593
2.58779
2.87777
3.20047
3.57568
4.02787
4.54614
5.08009
5.5986
6.2015
7.0837
8.20827
9.28438
8.32001
6.74161
5.55893
4.59944
0.261152
0.113677
0.0910838
0.0864295
0.0870003
0.0894146
0.0926827
0.0966032
0.101208
0.106553
0.112755
0.120051
0.128851
0.13979
0.153824
0.172386
0.197537
0.232138
0.280243
0.347185
0.439596
0.56455
0.727544
0.929412
1.16377
1.41734
1.67493
1.92745
2.17624
2.42991
2.70173
3.00972
3.37533
3.82072
4.34526
4.92698
5.55667
6.30129
7.29095
8.48525
9.37151
8.17024
6.49948
5.28493
4.34651
0.232035
0.10907
0.0879208
0.0838909
0.0844699
0.0866735
0.0896174
0.0931436
0.0972958
0.102162
0.107886
0.114717
0.123049
0.133487
0.146925
0.16467
0.188594
0.221331
0.26667
0.329313
0.415195
0.530444
0.679792
0.863858
1.07713
1.30835
1.54468
1.77813
2.00937
2.24676
2.5047
2.80294
3.16466
3.61381
4.16357
4.8139
5.55306
6.42422
7.49557
8.65539
9.27748
7.97092
6.32305
5.10676
4.18308
0.210211
0.10437
0.0852193
0.0816907
0.0822546
0.0842058
0.08679
0.0898811
0.0935384
0.0978757
0.10306
0.109343
0.117105
0.126909
0.139576
0.156282
0.178686
0.209109
0.250757
0.307841
0.38579
0.489466
0.623038
0.787069
0.977202
1.18432
1.39794
1.61133
1.82519
2.04804
2.29527
2.5879
2.95008
3.40632
3.97815
4.69437
5.56138
6.59059
7.77136
8.81383
9.10611
7.74981
6.19284
4.99971
4.08959
0.195518
0.100821
0.0836806
0.0802402
0.0805592
0.0821703
0.0843668
0.0870182
0.090182
0.0939832
0.0985993
0.104281
0.111391
0.120448
0.13219
0.147659
0.168302
0.196114
0.233795
0.284866
0.353663
0.444758
0.561743
0.704942
0.871287
1.0537
1.24404
1.43705
1.63392
1.84359
2.08223
2.37161
2.73607
3.19749
3.7756
4.50924
5.48732
6.79176
8.25698
9.11098
8.94838
7.56235
6.10381
4.94849
4.05344
0.186542
0.0990395
0.0833374
0.0797097
0.0795932
0.080761
0.0825244
0.084725
0.0874002
0.0906693
0.0947083
0.0997602
0.106163
0.114389
0.125095
0.139188
0.157911
0.182948
0.216539
0.261559
0.321468
0.399924
0.49994
0.62265
0.76585
0.924049
1.09144
1.26442
1.44492
1.64237
1.87357
2.1608
2.52792
2.99336
3.57049
4.29084
5.26163
6.7072
8.73825
9.7598
8.82037
7.385
6.04182
4.9413
4.06672
0.181532
0.0985287
0.0837895
0.0799147
0.0793138
0.079995
0.0813004
0.0830466
0.0852448
0.0879979
0.0914699
0.0958882
0.101563
0.108918
0.118529
0.131177
0.147914
0.170142
0.19969
0.238871
0.29042
0.357227
0.441737
0.545054
0.666045
0.801306
0.946878
1.10081
1.26573
1.45155
1.67562
1.96079
2.33079
2.80192
3.38179
4.08771
5.00935
6.38885
8.64885
10.2159
8.51887
7.1734
5.98619
4.96619
4.1232
0.179057
0.0986792
0.0845626
0.080493
0.0794737
0.0797071
0.0805806
0.0819004
0.0836557
0.0859296
0.0888682
0.0926786
0.0976402
0.104128
0.112641
0.123845
0.138621
0.158119
0.183817
0.217551
0.261466
0.31782
0.388577
0.474801
0.576085
0.690544
0.815935
0.951747
1.10173
1.27622
1.49286
1.77527
2.14823
2.6289
3.22355
3.93663
4.81939
6.08043
8.05786
9.20352
7.95443
6.89848
5.91832
5.0106
4.21629
0.178205
0.0991074
0.0853331
0.0811243
0.0797916
0.0796662
0.0801782
0.0811335
0.0825058
0.08436
0.0868228
0.0900781
0.0943739
0.100038
0.107501
0.117323
0.130235
0.147174
0.169321
0.198121
0.235242
0.282443
0.341296
0.412802
0.497048
0.593249
0.700564
0.819781
0.95554
1.11851
1.32655
1.60413
1.9786
2.46978
3.08678
3.82564
4.69764
5.84999
7.34817
7.99657
7.31196
6.59069
5.83609
5.06495
4.3386
0.178445
0.0996313
0.0859519
0.08162
0.080063
0.0796754
0.0799135
0.0805843
0.0816506
0.0831607
0.0852224
0.0879963
0.0916994
0.0966159
0.103113
0.111662
0.122863
0.137473
0.156434
0.180874
0.212087
0.251439
0.300193
0.359276
0.429096
0.509634
0.601095
0.70525
0.827351
0.978178
1.17557
1.44464
1.81529
2.31074
2.94489
3.69957
4.55455
5.57619
6.71058
7.15319
6.77044
6.29832
5.74788
5.12287
4.48213
0.179461
0.100182
0.0863839
0.0819094
0.0801826
0.0796103
0.0796555
0.0801221
0.0809623
0.0822092
0.0839523
0.0863294
0.0895282
0.0937928
0.0994347
0.106847
0.116523
0.129073
0.145241
0.165909
0.192081
0.22482
0.265146
0.313907
0.371704
0.439017
0.516751
0.607314
0.71624
0.854089
1.03821
1.29365
1.65183
2.13893
2.77225
3.52067
4.33555
5.22348
6.11908
6.52209
6.32803
6.03104
5.65446
5.17601
4.63597
0.181052
0.100738
0.0866471
0.0819922
0.0801194
0.0794136
0.0793286
0.0796591
0.0803451
0.081405
0.0829102
0.0849769
0.087765
0.0914825
0.096392
0.102821
0.111173
0.121939
0.13571
0.153174
0.175112
0.202357
0.23574
0.276027
0.323914
0.380176
0.44612
0.52447
0.620712
0.744816
0.913056
1.14935
1.48494
1.94887
2.55946
3.28099
4.04395
4.81999
5.55745
5.9743
5.93677
5.77481
5.54702
5.21091
4.78367
0.183068
0.101285
0.0867721
0.081897
0.0798829
0.0790726
0.0789
0.0791458
0.0797359
0.0806738
0.0820135
0.0838503
0.0863185
0.0895933
0.0938952
0.0994957
0.106725
0.11598
0.127727
0.142511
0.160939
0.183672
0.211389
0.244778
0.284558
0.331643
0.387517
0.454951
0.539109
0.649041
0.79941
1.01198
1.31561
1.74249
2.31025
2.99013
3.70121
4.39422
5.03318
5.47379
5.56363
5.5124
5.41105
5.20935
4.90185
0.185376
0.101809
0.0867838
0.0816559
0.0794969
0.0785966
0.0783631
0.0785597
0.0790977
0.0799653
0.0811999
0.0828771
0.0851076
0.0880373
0.09185
0.0967703
0.103068
0.111064
0.121132
0.133701
0.149251
0.168308
0.191435
0.219239
0.252418
0.291914
0.339224
0.396977
0.469817
0.565654
0.69719
0.883378
1.1498
1.52618
2.03525
2.66089
3.32179
3.95666
4.5305
4.98613
5.18329
5.22425
5.22693
5.14867
4.96215
0.187841
0.102287
0.086696
0.0812945
0.078986
0.0780026
0.0777238
0.0778947
0.0784114
0.0792475
0.0804245
0.0820002
0.0840636
0.0867349
0.0901657
0.0945412
0.100082
0.107049
0.115741
0.1265
0.13971
0.155794
0.175219
0.198517
0.226335
0.259572
0.299635
0.348888
0.41135
0.493698
0.606535
0.765689
0.992749
1.31314
1.74943
2.30542
2.9128
3.50254
4.03071
4.47797
4.76623
4.89411
4.97589
5.00409
4.93541
0.190327
0.102693
0.086514
0.0808301
0.0783703
0.0773078
0.0769931
0.077153
0.0776691
0.0785014
0.0796568
0.0811767
0.0831312
0.0856176
0.0887599
0.0927099
0.0976485
0.103786
0.111366
0.120662
0.131984
0.145675
0.162126
0.181797
0.205267
0.233355
0.267316
0.309195
0.362359
0.432267
0.527482
0.660746
0.84956
1.11494
1.47633
1.94112
2.48235
3.02678
3.5259
3.95775
4.29255
4.50653
4.65138
4.75721
4.79205
0.192712
0.103001
0.0862382
0.0802744
0.0776656
0.0765276
0.0761829
0.0763408
0.0768695
0.0777166
0.0788761
0.0803751
0.0822668
0.0846285
0.0875609
0.0911876
0.0956562
0.101138
0.10783
0.115955
0.125764
0.137539
0.151608
0.168363
0.188313
0.212174
0.24103
0.276594
0.321608
0.380423
0.459756
0.569539
0.723479
0.938396
1.23082
1.60944
2.06441
2.55309
3.0207
3.43542
3.77984
4.04827
4.25497
4.41395
4.52088
0.194899
0.10319
0.0858678
0.0796358
0.0768845
0.0756751
0.0753045
0.0754657
0.0760149
0.0768887
0.0780699
0.079573
0.0814369
0.0837219
0.0865086
0.0898971
0.0940074
0.0989793
0.104973
0.11217
0.120776
0.131024
0.143189
0.157605
0.174708
0.195111
0.219723
0.249946
0.287966
0.337172
0.402706
0.492106
0.615779
0.786749
1.01861
1.32059
1.69
2.1054
2.53062
2.92269
3.26345
3.549
3.79228
3.99484
4.15745
0.19682
0.103244
0.0854029
0.0789218
0.0760375
0.074762
0.0743684
0.0745357
0.0751094
0.0760166
0.0772306
0.0787552
0.080617
0.0828621
0.0855542
0.0887737
0.0926179
0.0972007
0.102653
0.109123
0.11678
0.125819
0.136469
0.149012
0.163818
0.181402
0.202511
0.228271
0.260395
0.301476
0.355377
0.427687
0.526102
0.660384
0.841252
1.07741
1.37059
1.71055
2.07443
2.43226
2.7613
3.0505
3.30436
3.52765
3.72794
0.198432
0.103153
0.0848458
0.0781394
0.075134
0.0737981
0.0733841
0.0735586
0.0741581
0.0751017
0.0763546
0.0779116
0.0797894
0.0820219
0.0846588
0.0877644
0.0914172
0.0957097
0.100749
0.106657
0.113574
0.121661
0.131111
0.142161
0.155121
0.170416
0.188654
0.210726
0.237956
0.272302
0.316624
0.374991
0.452968
0.557664
0.69717
0.878893
1.10653
1.37652
1.67622
1.98608
2.28663
2.56422
2.81467
3.03685
3.23633
0.199708
0.102918
0.084201
0.077296
0.0741828
0.0727926
0.0723602
0.072542
0.0731668
0.0741469
0.075441
0.0770368
0.0789421
0.0811814
0.0837928
0.0868272
0.0903478
0.0944297
0.0991605
0.104641
0.110986
0.118332
0.126838
0.136703
0.148186
0.161634
0.177535
0.19659
0.219811
0.248663
0.285239
0.332465
0.394295
0.475778
0.582797
0.721165
0.894888
1.10385
1.34203
1.59776
1.85681
2.10647
2.33822
2.54711
2.73299
0.200632
0.10254
0.0834751
0.0763992
0.0731918
0.0717534
0.0713046
0.0714929
0.0721411
0.0731561
0.0744911
0.0761279
0.0780676
0.0803267
0.0829339
0.0859293
0.0893637
0.093298
0.097804
0.102964
0.108875
0.115649
0.123419
0.132352
0.142661
0.154628
0.168643
0.185252
0.205225
0.229652
0.260052
0.298512
0.347806
0.411458
0.493612
0.598563
0.729791
0.88856
1.07255
1.27542
1.4878
1.69959
1.90211
2.08905
2.25805
0.201193
0.10203
0.0826766
0.0754569
0.0721687
0.0706881
0.0702242
0.0704179
0.0710869
0.0721338
0.0735074
0.0751848
0.0771618
0.0794485
0.0820661
0.0850461
0.0884292
0.0922649
0.096612
0.101539
0.107125
0.113464
0.120668
0.128874
0.138257
0.149047
0.161552
0.176196
0.193564
0.214461
0.23999
0.27163
0.311314
0.36147
0.424956
0.50481
0.603729
0.723249
0.86285
1.01938
1.18721
1.3593
1.52858
1.68923
1.83799
0.201376
0.101398
0.081815
0.0744772
0.0711209
0.0696039
0.0691263
0.0693239
0.0700105
0.0710854
0.0724939
0.0742094
0.0762236
0.0785415
0.0811788
0.0841597
0.0875171
0.0912913
0.0955308
0.100292
)
;

boundaryField
{
    leftWall
    {
        Cmu             0.09;
        kappa           0.41;
        E               9.8;
        type            epsilonWallFunction;
        value           nonuniform List<scalar> 
44
(
0.00884399
0.0257921
0.0479617
0.0710055
0.0949123
0.11973
0.145363
0.171548
0.197844
0.223602
0.24822
0.270252
0.287956
0.299144
0.301414
0.293772
0.281924
0.27715
0.287194
0.311304
0.292379
0.261152
0.232035
0.210211
0.195518
0.186542
0.181532
0.179057
0.178205
0.178445
0.179461
0.181052
0.183068
0.185376
0.187841
0.190327
0.192712
0.194899
0.19682
0.198432
0.199708
0.200632
0.201193
0.201376
)
;
    }
    rightWall
    {
        Cmu             0.09;
        kappa           0.41;
        E               9.8;
        type            epsilonWallFunction;
        value           nonuniform 0();
    }
    lowerWall
    {
        Cmu             0.09;
        kappa           0.41;
        E               9.8;
        type            epsilonWallFunction;
        value           nonuniform List<scalar> 
44
(
0.00884399
0.0306657
0.0566711
0.0830704
0.108547
0.132666
0.15566
0.177944
0.199895
0.221795
0.243844
0.266192
0.288969
0.312311
0.33636
0.361278
0.38724
0.414447
0.443136
0.473625
0.506415
0.542494
0.581898
0.624008
0.669639
0.719775
0.775344
0.837052
0.905125
0.978987
1.05703
1.1364
1.21481
1.29147
1.35395
1.39308
1.40428
1.38477
1.32814
1.23064
1.09363
0.921472
0.709092
0.467088
)
;
    }
    atmosphere
    {
        type            inletOutlet;
        inletValue      nonuniform 0();
        value           nonuniform 0();
    }
    defaultFaces
    {
        type            empty;
    }
    procBoundary0to1
    {
        type            processor;
        value           nonuniform List<scalar> 
44
(
0.219355
0.183841
0.265456
0.404396
0.610799
0.908165
1.3353
1.9556
2.86103
4.13436
4.88085
5.86028
7.29398
8.67683
10.0257
8.55021
7.18344
6.20479
5.4893
4.96894
4.96894
3.8127
3.61247
3.48026
3.40382
3.3761
3.39412
3.45666
3.56207
3.70757
3.88872
4.09721
4.31775
4.52544
4.68657
4.76586
4.73167
4.56502
4.28675
3.91449
3.42102
2.90069
2.41131
1.97462
)
;
    }
    procBoundary0to2
    {
        type            processor;
        value           nonuniform List<scalar> 
46
(
0.105641
0.111656
0.118429
0.126075
0.134737
0.1446
0.155908
0.168989
0.184286
0.202396
0.224115
0.250491
0.282869
0.322911
0.372561
0.433913
0.508917
0.598926
0.704144
0.823167
0.952878
1.08882
1.22601
1.35986
1.48711
0.201166
0.100656
0.0809012
0.073469
0.0700561
0.0685077
0.0680176
0.0682175
0.0689182
0.0700165
0.0714553
0.0732051
0.0752544
0.0776042
0.0802657
0.0832582
0.0866079
0.090348
0.0945185
0.105641
0.0991664
)
;
    }
}


// ************************************************************************* //
