/*--------------------------------*- C++ -*----------------------------------*\
| =========                 |                                                 |
| \\      /  F ield         | OpenFOAM: The Open Source CFD Toolbox           |
|  \\    /   O peration     | Version:  5.0                                   |
|   \\  /    A nd           | Web:      www.OpenFOAM.org                      |
|    \\/     M anipulation  |                                                 |
\*---------------------------------------------------------------------------*/
FoamFile
{
    version     2.0;
    format      ascii;
    class       volScalarField;
    location    "1";
    object      k;
}
// * * * * * * * * * * * * * * * * * * * * * * * * * * * * * * * * * * * * * //

dimensions      [0 2 -2 0 0 0 0];

internalField   nonuniform List<scalar> 
1935
(
0.00152898
0.00321253
0.00485454
0.00626753
0.00749158
0.00856353
0.00952619
0.0104152
0.0112563
0.0120666
0.0128575
0.0136369
0.0144111
0.0151855
0.0159652
0.0167551
0.0175602
0.0183856
0.0192373
0.0201232
0.0210563
0.022063
0.0231329
0.0242527
0.0254426
0.0267236
0.0281129
0.0296194
0.0312386
0.0329472
0.0347007
0.0364307
0.0380979
0.0396813
0.0409207
0.0416716
0.041859
0.0414342
0.0402623
0.0382374
0.0353316
0.0315144
0.0264657
0.0200397
0.00345544
0.00819627
0.0116999
0.014664
0.0171595
0.0192821
0.0211328
0.0227978
0.0243428
0.0258157
0.0272505
0.0286718
0.0300986
0.0315459
0.0330269
0.0345534
0.0361368
0.0377894
0.0395249
0.0413602
0.0433163
0.0454118
0.0476365
0.0500397
0.0526629
0.0555452
0.0587178
0.062195
0.0659634
0.0699726
0.0741296
0.0783003
0.0823196
0.0859856
0.089021
0.0911438
0.0921011
0.0916786
0.0896508
0.0858257
0.0799887
0.0718526
0.0611209
0.0476143
0.00525678
0.0119162
0.0164191
0.0201476
0.0232708
0.0259135
0.0282029
0.0302483
0.0321347
0.0339247
0.0356633
0.0373836
0.0391109
0.0408657
0.0426657
0.0445279
0.046469
0.0485072
0.050664
0.0529651
0.0554431
0.0581215
0.0610389
0.0642482
0.0678051
0.0717625
0.0761604
0.0810136
0.0862971
0.091934
0.0977898
0.103674
0.109344
0.114512
0.11885
0.122013
0.123668
0.123517
0.121292
0.116743
0.109563
0.0993332
0.0856223
0.0681066
0.0068427
0.0151458
0.0203699
0.0245911
0.0281125
0.0310864
0.0336554
0.0359425
0.0380447
0.0400346
0.0419655
0.043877
0.0457999
0.0477597
0.0497787
0.0518789
0.0540826
0.0564153
0.058907
0.0615945
0.0645236
0.0677369
0.0712964
0.0752735
0.079743
0.0847744
0.0904182
0.0966887
0.103546
0.11088
0.118509
0.126182
0.133591
0.140381
0.146164
0.150535
0.153103
0.153511
0.151457
0.146665
0.138777
0.127223
0.111332
0.0904654
0.00831222
0.0180892
0.0239048
0.0284832
0.0322818
0.0354887
0.0382587
0.0407236
0.0429886
0.0451333
0.0472172
0.0492852
0.0513727
0.0535096
0.0557231
0.05804
0.0604895
0.0631052
0.0659278
0.0690078
0.0724085
0.0761944
0.0804524
0.0852797
0.0907766
0.0970338
0.104114
0.11203
0.120717
0.130022
0.139703
0.149441
0.158862
0.167551
0.175055
0.180909
0.18466
0.185899
0.184291
0.179574
0.171384
0.158974
0.141319
0.117256
0.00970903
0.0208213
0.0271461
0.0320007
0.0360029
0.0393833
0.0423091
0.0449182
0.0473211
0.0496021
0.0518251
0.0540393
0.0562841
0.0585937
0.0609999
0.0635355
0.0662374
0.0691492
0.072325
0.0758326
0.0797569
0.0841894
0.0892478
0.0950627
0.101766
0.109475
0.118264
0.128135
0.138989
0.15061
0.162679
0.174801
0.186542
0.197432
0.206959
0.214592
0.219809
0.222129
0.221189
0.21678
0.208602
0.195748
0.176758
0.149735
0.0110501
0.0233709
0.0301403
0.035218
0.0393771
0.0428942
0.0459495
0.0486853
0.0512149
0.053626
0.0559856
0.0583462
0.0607508
0.0632379
0.0658444
0.0686102
0.071581
0.074813
0.0783767
0.0823611
0.0868787
0.0920537
0.098043
0.105018
0.113149
0.12258
0.133394
0.145569
0.158951
0.173237
0.188014
0.202812
0.217149
0.230518
0.24236
0.252071
0.259038
0.262679
0.262588
0.258644
0.250728
0.237854
0.218125
0.188782
0.012337
0.0257427
0.0328998
0.0381634
0.0424505
0.0460832
0.0492544
0.0521096
0.0547635
0.0573056
0.0598052
0.0623175
0.0648892
0.0675629
0.0703817
0.0733933
0.0766545
0.0802363
0.0842293
0.0887488
0.0939397
0.099968
0.107037
0.115368
0.125172
0.136619
0.149786
0.16461
0.180854
0.198107
0.215848
0.233539
0.250681
0.266762
0.281188
0.293279
0.302291
0.307492
0.308415
0.305032
0.297536
0.285091
0.265626
0.235307
0.0135613
0.0279258
0.035418
0.040841
0.0452406
0.0489799
0.0522631
0.0552377
0.0580191
0.0606975
0.063344
0.0660162
0.0687643
0.0716358
0.0746805
0.0779556
0.0815305
0.0854942
0.0899613
0.0950794
0.101029
0.108029
0.116338
0.126229
0.137958
0.151707
0.167532
0.185304
0.204675
0.225108
0.245969
0.266675
0.286748
0.30571
0.322966
0.33777
0.34917
0.35619
0.358295
0.355485
0.348408
0.336963
0.319066
0.290248
0.0147058
0.0298966
0.0376763
0.0432417
0.0477493
0.051596
0.0549949
0.0580947
0.0610104
0.0638331
0.0666353
0.0694768
0.0724115
0.0754922
0.0787767
0.0823325
0.0862444
0.0906218
0.0956072
0.101385
0.108181
0.116272
0.125979
0.13763
0.151514
0.167815
0.186542
0.207475
0.230138
0.253853
0.277882
0.301621
0.324655
0.34659
0.366908
0.384834
0.399002
0.40807
0.411523
0.409227
0.402357
0.392423
0.37767
0.353929
0.0157569
0.0316386
0.0396669
0.0453692
0.0499912
0.0539551
0.0574803
0.0607157
0.0637766
0.0667544
0.069723
0.0727449
0.0758777
0.0791802
0.0827191
0.0865741
0.0908469
0.0956707
0.10122
0.107722
0.115453
0.124756
0.136016
0.149615
0.165862
0.184917
0.20672
0.23094
0.256967
0.283984
0.311152
0.337863
0.363792
0.38871
0.412257
0.433611
0.450581
0.461715
0.466705
0.465085
0.458563
0.4508
0.44072
0.424803
0.0166676
0.033099
0.0413508
0.047198
0.0519518
0.0560506
0.0597177
0.0631028
0.0663216
0.0694668
0.0726138
0.0758278
0.0791703
0.0827071
0.0865144
0.0906857
0.0953419
0.100643
0.106799
0.114084
0.122834
0.13346
0.146413
0.162117
0.180881
0.202814
0.227766
0.255293
0.284657
0.314915
0.345128
0.37465
0.403229
0.430794
0.45695
0.480686
0.499947
0.513446
0.520564
0.520743
0.515931
0.511458
0.50769
0.501125
0.0173833
0.0342213
0.0426868
0.048699
0.0536089
0.0578633
0.0616884
0.0652363
0.0686245
0.0719475
0.0752828
0.0786981
0.0822593
0.0860392
0.0901244
0.0946233
0.0996775
0.105476
0.112269
0.12038
0.130208
0.142235
0.156971
0.174865
0.196201
0.22101
0.249039
0.279743
0.312292
0.345646
0.37873
0.410678
0.440815
0.468927
0.496331
0.521018
0.542517
0.559482
0.570094
0.573492
0.572768
0.572457
0.57762
0.581966
0.017834
0.0349569
0.043647
0.0498544
0.054948
0.0593769
0.0633726
0.0670924
0.0706583
0.0741679
0.0777005
0.0813256
0.0851133
0.0891435
0.093513
0.0983451
0.103804
0.11011
0.117555
0.126515
0.137453
0.150918
0.167472
0.187569
0.211433
0.238992
0.269888
0.303517
0.338992
0.375256
0.410951
0.443724
0.471025
0.499136
0.527013
0.553549
0.577748
0.599048
0.614114
0.620745
0.625665
0.630367
0.634832
0.647163
0.0179367
0.0352707
0.0442113
0.0506451
0.055944
0.0605592
0.0647312
0.0686285
0.0723807
0.0760884
0.0798303
0.0836751
0.0876952
0.0919793
0.0966341
0.101797
0.107656
0.114465
0.122559
0.132365
0.144411
0.159309
0.177655
0.199888
0.226144
0.256214
0.289644
0.325818
0.363821
0.402748
0.438883
0.465618
0.493114
0.521811
0.550901
0.579004
0.605241
0.629004
0.646103
0.657107
0.667752
0.671533
0.682427
0.719684
0.0176412
0.0351533
0.0443618
0.0510421
0.0565647
0.0613807
0.0657383
0.0698184
0.0737646
0.0776814
0.0816439
0.0857132
0.0899617
0.0944951
0.0994291
0.104912
0.111155
0.118445
0.127162
0.137779
0.15089
0.167162
0.18722
0.211467
0.239911
0.272164
0.307669
0.345545
0.383794
0.419484
0.450925
0.480199
0.509397
0.540263
0.570758
0.59912
0.623914
0.645227
0.662997
0.680003
0.698873
0.702432
0.718081
0.728592
0.0171321
0.0346208
0.0440952
0.0510374
0.056818
0.0618698
0.0664218
0.0706623
0.0747831
0.0789044
0.0830965
0.087393
0.0918481
0.0966154
0.101816
0.1076
0.114197
0.121928
0.131211
0.142575
0.156668
0.174207
0.195845
0.221919
0.252227
0.285971
0.321985
0.35867
0.393999
0.42729
0.459444
0.490525
0.522563
0.557163
0.586283
0.612335
0.632989
0.653528
0.675141
0.700241
0.725176
0.732219
0.736659
0.685475
0.0168646
0.0339547
0.0434909
0.0506999
0.0567589
0.0620836
0.0668457
0.071143
0.0753112
0.0795083
0.0837983
0.0882574
0.0929673
0.0980258
0.10353
0.109634
0.116588
0.124746
0.134558
0.146598
0.161558
0.180186
0.203114
0.230547
0.261989
0.296157
0.331354
0.366078
0.399295
0.431603
0.464252
0.49755
0.532095
0.566935
0.598767
0.62048
0.638447
0.659443
0.685657
0.719132
0.74678
0.759651
0.720464
0.641116
0.0171231
0.0337715
0.0428627
0.050136
0.0563061
0.0615876
0.0662505
0.070545
0.0747712
0.0790811
0.0835544
0.0882633
0.0932637
0.0986103
0.104401
0.110813
0.118117
0.126688
0.136992
0.149621
0.165274
0.184702
0.208462
0.236598
0.268356
0.302178
0.3362
0.369115
0.400752
0.432191
0.464582
0.497824
0.531256
0.56602
0.606181
0.632194
0.644352
0.664951
0.695027
0.731992
0.765669
0.75954
0.688791
0.605297
0.0183273
0.034251
0.0421504
0.0490747
0.0550392
0.0601376
0.0647434
0.0691534
0.0735677
0.0780878
0.0827696
0.0876674
0.0928462
0.0983848
0.104399
0.111078
0.118699
0.127635
0.138353
0.151437
0.16757
0.187446
0.211525
0.239702
0.271065
0.303966
0.336593
0.367909
0.398125
0.428188
0.458867
0.490311
0.523067
0.559295
0.598659
0.630731
0.648263
0.670576
0.70578
0.749539
0.792307
0.753559
0.663403
0.579004
0.0176531
0.0326238
0.0411189
0.0477335
0.0534487
0.058486
0.0631247
0.0676022
0.0720933
0.0766913
0.0814537
0.0864362
0.091713
0.0973786
0.103563
0.110458
0.118337
0.127554
0.138562
0.151914
0.168246
0.188169
0.212034
0.239629
0.269995
0.301554
0.33268
0.362524
0.391314
0.419718
0.448414
0.47818
0.510143
0.545577
0.582796
0.617193
0.646066
0.675767
0.717731
0.768299
0.810869
0.748245
0.647142
0.56145
0.487336
0.0164747
0.0310396
0.0397431
0.0462737
0.0518703
0.0568655
0.0614917
0.0659499
0.0704114
0.0749794
0.079724
0.0847112
0.0900207
0.0957527
0.102041
0.10908
0.117125
0.126499
0.13763
0.151022
0.167242
0.186806
0.20997
0.236469
0.265384
0.295293
0.324788
0.353131
0.380444
0.407295
0.434503
0.463185
0.49461
0.529833
0.567811
0.605826
0.64243
0.681453
0.730105
0.784526
0.817006
0.742357
0.637188
0.551
0.479438
0.0152025
0.0289513
0.0379839
0.0446559
0.0502874
0.0552662
0.0598443
0.06424
0.0686225
0.0731063
0.0777771
0.0827125
0.0879972
0.0937335
0.100053
0.107133
0.115208
0.124579
0.13565
0.148843
0.164656
0.183503
0.20557
0.23058
0.257709
0.285729
0.313441
0.340193
0.366058
0.391628
0.417869
0.446072
0.477616
0.513629
0.553984
0.597349
0.641785
0.68941
0.743598
0.796743
0.815727
0.734881
0.631148
0.545965
0.476486
0.0141782
0.0270406
0.036176
0.0430045
0.0486931
0.0536765
0.0582256
0.0625608
0.0668544
0.0712337
0.0757984
0.0806373
0.0858411
0.0915132
0.0977805
0.104805
0.112797
0.122019
0.132807
0.145552
0.160712
0.178558
0.19924
0.222491
0.247611
0.273571
0.299378
0.324484
0.348982
0.373528
0.399224
0.427482
0.459722
0.497054
0.539912
0.588862
0.64267
0.700913
0.76217
0.80958
0.811645
0.727102
0.628089
0.545104
0.477487
0.0134477
0.0257958
0.0347192
0.0415496
0.04725
0.0522315
0.056756
0.0610355
0.0652406
0.0695062
0.0739426
0.0786478
0.0837184
0.0892587
0.09539
0.10226
0.110053
0.118997
0.129371
0.141499
0.155733
0.17236
0.191481
0.212817
0.235811
0.259624
0.283466
0.30692
0.330144
0.353882
0.379357
0.408053
0.441372
0.480182
0.524788
0.576486
0.639189
0.715429
0.793197
0.830404
0.808723
0.721575
0.627708
0.547623
0.481821
0.0129801
0.0251234
0.0337871
0.0405072
0.0461469
0.0510865
0.0555665
0.0597808
0.0638914
0.0680333
0.0723225
0.076863
0.0817556
0.0871045
0.0930252
0.0996523
0.107147
0.115702
0.125549
0.136949
0.150173
0.16544
0.182829
0.202189
0.223043
0.244702
0.266587
0.288428
0.310476
0.333572
0.359041
0.388428
0.423061
0.463496
0.509576
0.562202
0.626652
0.713458
0.823564
0.868663
0.80722
0.716763
0.629101
0.552852
0.489111
0.0127088
0.0248458
0.0333238
0.0399128
0.0454548
0.0503186
0.0547289
0.0588617
0.0628671
0.0668757
0.0710034
0.0753567
0.0800378
0.0851496
0.0908017
0.0971164
0.104234
0.112318
0.121556
0.132157
0.144327
0.158231
0.173925
0.191291
0.209992
0.229547
0.249538
0.269847
0.290809
0.313363
0.338936
0.369137
0.405247
0.447586
0.495515
0.548965
0.612318
0.697431
0.821386
0.893223
0.795341
0.709755
0.630919
0.560061
0.499044
0.0125689
0.0248203
0.033201
0.0396883
0.0451346
0.0499123
0.0542399
0.0582813
0.0621755
0.0660463
0.0700064
0.0741611
0.0786116
0.0834581
0.0888042
0.0947607
0.10145
0.109009
0.117592
0.12736
0.138472
0.151049
0.165131
0.180634
0.197328
0.214894
0.233079
0.251899
0.271818
0.293859
0.31953
0.350532
0.388194
0.432788
0.483391
0.538848
0.60107
0.680532
0.790879
0.842726
0.76818
0.698733
0.631976
0.568463
0.511243
0.0125145
0.0249561
0.0333027
0.0397262
0.0450982
0.049799
0.0540468
0.0579986
0.0617849
0.0655223
0.0693185
0.0732755
0.0774914
0.0820626
0.0870862
0.0926627
0.0988991
0.105911
0.113822
0.122759
0.132843
0.144163
0.156749
0.170547
0.185408
0.201146
0.217652
0.235067
0.253959
0.275427
0.301052
0.332644
0.371719
0.418604
0.472325
0.530816
0.593358
0.667441
0.753295
0.781718
0.736116
0.685471
0.632114
0.577452
0.525247
0.0125173
0.0251967
0.0335467
0.039935
0.0452562
0.0498978
0.0540789
0.0579525
0.0616428
0.0652596
0.0689051
0.0726764
0.0766672
0.0809691
0.0856727
0.0908692
0.0966524
0.10312
0.110372
0.118509
0.127622
0.137778
0.149003
0.161265
0.174483
0.18857
0.203532
0.219613
0.237456
0.258207
0.283502
0.315259
0.355203
0.403794
0.460164
0.521008
0.583637
0.651181
0.71843
0.737781
0.708611
0.672625
0.631759
0.5866
0.54052
0.0125602
0.0255056
0.0338788
0.0402495
0.0455381
0.0501379
0.0542686
0.0580801
0.0616913
0.065206
0.0687205
0.0723264
0.076112
0.0801633
0.0845645
0.0893984
0.0947477
0.100695
0.107324
0.114712
0.122931
0.132031
0.142036
0.152936
0.164699
0.17731
0.190859
0.205662
0.222402
0.242234
0.266806
0.298101
0.33802
0.387196
0.444865
0.50665
0.568076
0.628967
0.684356
0.703683
0.685735
0.660724
0.630876
0.595326
0.556311
0.0126321
0.0258588
0.0342642
0.0406263
0.045894
0.0504655
0.0545606
0.0583263
0.0618768
0.0653102
0.0687168
0.0721822
0.075789
0.079617
0.0837441
0.0882455
0.0931944
0.0986621
0.104717
0.111423
0.118834
0.126993
0.135923
0.145628
0.156112
0.167411
0.179669
0.19324
0.208809
0.227501
0.250917
0.28103
0.319835
0.368248
0.425557
0.486945
0.546501
0.602042
0.649958
0.672526
0.664865
0.648879
0.628823
0.602709
0.571492
0.0127251
0.0262389
0.0346795
0.0410365
0.0462893
0.0508415
0.0549125
0.0586467
0.0621535
0.0655259
0.0688481
0.0721996
0.0756568
0.0792936
0.0831811
0.0873878
0.0919787
0.0970159
0.102557
0.108654
0.115351
0.122684
0.130675
0.139342
0.148709
0.158847
0.169926
0.182308
0.196651
0.214005
0.23587
0.264123
0.300714
0.347023
0.402361
0.462347
0.520089
0.572033
0.615876
0.642362
0.643978
0.635926
0.624573
0.60751
0.584501
0.0128323
0.0266321
0.0351069
0.0414589
0.0466993
0.0512376
0.0552929
0.0590066
0.0624843
0.0658137
0.0690734
0.0723366
0.0756737
0.0791524
0.0828375
0.0867909
0.0910709
0.0957315
0.100822
0.106387
0.112463
0.11908
0.126261
0.134031
0.14243
0.151542
0.161547
0.172794
0.185882
0.201761
0.221781
0.247661
0.281255
0.32402
0.375948
0.433582
0.489651
0.539611
0.581314
0.61123
0.621421
0.620484
0.616738
0.608201
0.593476
0.0129472
0.0270255
0.0355312
0.0418767
0.0471055
0.0516327
0.0556776
0.0593792
0.0628393
0.0661409
0.069357
0.0725553
0.0758
0.0791526
0.082672
0.086414
0.0904305
0.0947696
0.099474
0.104581
0.110124
0.116128
0.122617
0.129619
0.137181
0.145393
0.154427
0.164602
0.176449
0.19079
0.208801
0.231997
0.262063
0.300407
0.347414
0.401353
0.455476
0.504355
0.545132
0.576855
0.595056
0.601239
0.603856
0.603035
0.596482
0.0130632
0.0274069
0.0359392
0.0422763
0.0474928
0.0520104
0.0560483
0.0597437
0.063195
0.0664808
0.0696692
0.0728225
0.0759992
0.079255
0.082643
0.0862133
0.0900124
0.0940828
0.0984621
0.103183
0.108274
0.113759
0.119662
0.126011
0.132855
0.14028
0.148446
0.157631
0.168286
0.181106
0.197077
0.217488
0.243814
0.27738
0.318734
0.366846
0.417925
0.465688
0.506637
0.539582
0.563139
0.576796
0.585046
0.590461
0.591427
0.0131746
0.0277663
0.03632
0.0426462
0.0478495
0.0523577
0.0563907
0.0600838
0.0635325
0.0668116
0.069985
0.0731098
0.0762393
0.0794239
0.0827112
0.0861461
0.08977
0.0936207
0.0977317
0.102132
0.106846
0.111897
0.117307
0.123106
0.129337
0.136083
0.143481
0.151768
0.161318
0.172698
0.186713
0.204419
0.227064
0.255846
0.291448
0.333371
0.379365
0.425011
0.465883
0.499881
0.526342
0.54572
0.559838
0.570224
0.577064
0.0132769
0.0280959
0.0366652
0.0429779
0.0481666
0.0526651
0.0566938
0.0603869
0.0638372
0.0671163
0.0702841
0.0733934
0.0764928
0.0796276
0.0828407
0.086172
0.0896585
0.0933337
0.0972274
0.101365
0.10577
0.110463
0.115464
0.120801
0.126516
0.132679
0.13941
0.146901
0.155456
0.165527
0.177749
0.192966
0.212192
0.236463
0.266517
0.302291
0.34242
0.384094
0.423848
0.4584
0.486813
0.509461
0.527971
0.542944
0.554922
0.013367
0.0283905
0.036969
0.0432651
0.0484373
0.0529251
0.0569495
0.0606435
0.0640978
0.0673813
0.0705503
0.0736539
0.0767365
0.079839
0.0829999
0.0862548
0.0896366
0.0931749
0.0968964
0.100824
0.104978
0.109378
0.114044
0.118999
0.124283
0.129955
0.136113
0.142914
0.150597
0.159515
0.17016
0.183183
0.199382
0.219611
0.244579
0.274501
0.308706
0.345428
0.382102
0.416079
0.445735
0.470694
0.491822
0.509916
0.526004
0.0134429
0.0286468
0.0372273
0.0435036
0.0486572
0.0531327
0.0571519
0.0608466
0.0643059
0.0675962
0.0707709
0.0738758
0.0769516
0.0800355
0.083162
0.0863629
0.0896674
0.0931019
0.09669
0.100452
0.104408
0.108573
0.112967
0.117611
0.122539
0.127801
0.133476
0.13969
0.146629
0.154561
0.163861
0.175019
0.188644
0.205409
0.225931
0.250554
0.279063
0.310469
0.343067
0.374849
0.404166
0.430153
0.452836
0.472485
0.489961
0.0135035
0.0288631
0.037438
0.0436908
0.0488234
0.0532846
0.057297
0.0609915
0.0644555
0.0677535
0.0709363
0.074047
0.0771232
0.0801987
0.0833046
0.0864695
0.0897193
0.0930775
0.0965651
0.100201
0.104001
0.107981
0.112159
0.116553
0.121192
0.126117
0.131393
0.137117
0.143433
0.150543
0.158726
0.168346
0.179853
0.193758
0.21056
0.23062
0.253971
0.280143
0.308113
0.336485
0.363868
0.389241
0.412095
0.432297
0.450177
0.013548
0.0290379
0.0375997
0.0438253
0.0489342
0.0533791
0.0573826
0.0610751
0.0645427
0.067848
0.0710398
0.0741588
0.0772398
0.0803141
0.0834098
0.0865525
0.0897655
0.0930697
0.0964839
0.100025
0.103707
0.107545
0.111553
0.11575
0.120158
0.124812
0.129763
0.135087
0.140892
0.14733
0.154606
0.162987
0.172798
0.184414
0.198219
0.214528
0.233477
0.254894
0.278229
0.302595
0.326954
0.350364
0.372156
0.391966
0.409847
0.013576
0.0291706
0.0377118
0.0439066
0.0489894
0.0534155
0.0574079
0.0610962
0.0645655
0.0678767
0.071077
0.074205
0.0772934
0.080371
0.0834636
0.0865944
0.0897844
0.0930523
0.0964148
0.0998869
0.103482
0.107213
0.111092
0.115136
0.119363
0.123803
0.128494
0.133496
0.13889
0.144789
0.151344
0.158745
0.167226
0.177057
0.188518
0.201861
0.217241
0.234634
0.253776
0.274151
0.295067
0.315791
0.335701
0.35438
0.371707
0.0135868
0.0292605
0.0377744
0.0439354
0.0489897
0.0533947
0.0573735
0.0610552
0.0645236
0.0678387
0.0710459
0.0741822
0.0772786
0.0803619
0.083456
0.086582
0.0897589
0.0930037
0.0963316
0.0997558
)
;

boundaryField
{
    leftWall
    {
        type            kqRWallFunction;
        value           nonuniform List<scalar> 
44
(
0.00152898
0.00345544
0.00525678
0.0068427
0.00831222
0.00970903
0.0110501
0.012337
0.0135613
0.0147058
0.0157569
0.0166676
0.0173833
0.017834
0.0179367
0.0176412
0.0171321
0.0168646
0.0171231
0.0183273
0.0176531
0.0164747
0.0152025
0.0141782
0.0134477
0.0129801
0.0127088
0.0125689
0.0125145
0.0125173
0.0125602
0.0126321
0.0127251
0.0128323
0.0129472
0.0130632
0.0131746
0.0132769
0.013367
0.0134429
0.0135035
0.013548
0.013576
0.0135868
)
;
    }
    rightWall
    {
        type            kqRWallFunction;
        value           nonuniform 0();
    }
    lowerWall
    {
        type            kqRWallFunction;
        value           nonuniform List<scalar> 
44
(
0.00152898
0.00321253
0.00485454
0.00626753
0.00749158
0.00856353
0.00952619
0.0104152
0.0112563
0.0120666
0.0128575
0.0136369
0.0144111
0.0151855
0.0159652
0.0167551
0.0175602
0.0183856
0.0192373
0.0201232
0.0210563
0.022063
0.0231329
0.0242527
0.0254426
0.0267236
0.0281129
0.0296194
0.0312386
0.0329472
0.0347007
0.0364307
0.0380979
0.0396813
0.0409207
0.0416716
0.041859
0.0414342
0.0402623
0.0382374
0.0353316
0.0315144
0.0264657
0.0200397
)
;
    }
    atmosphere
    {
        type            inletOutlet;
        inletValue      nonuniform 0();
        value           nonuniform 0();
    }
    defaultFaces
    {
        type            empty;
    }
    procBoundary0to1
    {
        type            processor;
        value           nonuniform List<scalar> 
44
(
0.012124
0.0311376
0.0462543
0.0634756
0.0846549
0.111085
0.144104
0.185494
0.238995
0.31075
0.396877
0.486453
0.580933
0.658854
0.715044
0.656761
0.598143
0.554984
0.523505
0.501513
0.501513
0.426255
0.422705
0.42261
0.425407
0.430844
0.438923
0.449718
0.463223
0.479301
0.497652
0.517666
0.538244
0.557675
0.573725
0.584104
0.586711
0.580022
0.564721
0.541086
0.506213
0.466429
0.426226
0.387842
)
;
    }
    procBoundary0to2
    {
        type            processor;
        value           nonuniform List<scalar> 
46
(
0.103288
0.106941
0.110724
0.114653
0.118742
0.123015
0.127503
0.132252
0.137321
0.142795
0.148783
0.155422
0.162879
0.171342
0.181014
0.192083
0.204685
0.218858
0.234495
0.25132
0.268916
0.286786
0.30445
0.321541
0.337865
0.0135796
0.0293078
0.037789
0.0439134
0.0489369
0.0533186
0.0572813
0.0609536
0.0644185
0.0677346
0.0709464
0.0740894
0.077193
0.0802826
0.0833804
0.086506
0.0896767
0.0929081
0.0962137
0.103288
0.0996058
)
;
    }
}


// ************************************************************************* //
