/*--------------------------------*- C++ -*----------------------------------*\
| =========                 |                                                 |
| \\      /  F ield         | OpenFOAM: The Open Source CFD Toolbox           |
|  \\    /   O peration     | Version:  5.0                                   |
|   \\  /    A nd           | Web:      www.OpenFOAM.org                      |
|    \\/     M anipulation  |                                                 |
\*---------------------------------------------------------------------------*/
FoamFile
{
    version     2.0;
    format      ascii;
    class       volScalarField;
    location    "1";
    object      nut;
}
// * * * * * * * * * * * * * * * * * * * * * * * * * * * * * * * * * * * * * //

dimensions      [0 2 -1 0 0 0 0];

internalField   nonuniform List<scalar> 
1935
(
2.37903e-05
3.0289e-05
3.74262e-05
4.25587e-05
4.65342e-05
4.97493e-05
5.24691e-05
5.48654e-05
5.70473e-05
5.90829e-05
6.10158e-05
6.28753e-05
6.46823e-05
6.6453e-05
6.82005e-05
6.99355e-05
7.16676e-05
7.34059e-05
7.51614e-05
7.69491e-05
7.87953e-05
8.07564e-05
8.27667e-05
8.48343e-05
8.70008e-05
8.9297e-05
9.17402e-05
9.43284e-05
9.70327e-05
9.97939e-05
0.000102526
0.000105111
0.000107532
0.000109731
0.000111308
0.000112188
0.000112296
0.000111579
0.000109849
0.000106927
0.00010273
9.70012e-05
8.8901e-05
7.73795e-05
4.16643e-05
0.000196836
0.000273114
0.000324888
0.000363738
0.000394577
0.00042056
0.00044386
0.000465926
0.000487677
0.00050966
0.000532171
0.00055534
0.00057918
0.000603627
0.000628564
0.000653837
0.000679281
0.00070475
0.000730129
0.000755274
0.00077945
0.000801579
0.00082408
0.000847759
0.000873102
0.000900415
0.000929772
0.000960919
0.000993223
0.00102568
0.00105703
0.00108585
0.00111024
0.0011287
0.00113983
0.00114182
0.00113319
0.00111232
0.00107762
0.00102602
0.000951717
0.000847656
0.000700141
5.18546e-05
0.000345041
0.000514778
0.000625815
0.000710257
0.000779406
0.000839457
0.000894451
0.000947048
0.000998919
0.00105103
0.00110384
0.00115747
0.00121175
0.00126634
0.0013207
0.00137421
0.00142619
0.00147601
0.00152314
0.00156723
0.00160697
0.00164352
0.00167904
0.00171518
0.0017533
0.00179442
0.00183908
0.00188715
0.00193766
0.00198889
0.00203844
0.00208342
0.00212045
0.0021461
0.00215699
0.00214968
0.00212087
0.00206704
0.00198413
0.00186595
0.00170261
0.00147961
0.00117208
5.93479e-05
0.000466051
0.000731593
0.00090221
0.00103151
0.00113872
0.00123308
0.00132013
0.00140342
0.0014851
0.00156639
0.00164779
0.00172924
0.00181026
0.00188999
0.00196729
0.00204085
0.00210932
0.0021715
0.00222651
0.00227396
0.00231344
0.00234709
0.00237764
0.00240786
0.00244037
0.00247733
0.00252014
0.0025691
0.00262322
0.00268022
0.00273671
0.00278847
0.00283074
0.00285855
0.00286696
0.00285114
0.00280628
0.00272731
0.00260835
0.00244123
0.0022136
0.00190693
0.00148995
6.5517e-05
0.00056558
0.000924218
0.00115402
0.00132667
0.00147008
0.00159691
0.00171416
0.00182604
0.00193506
0.00204252
0.00214881
0.00225357
0.00235578
0.00245392
0.00254608
0.00263016
0.00270411
0.00276629
0.00281577
0.00285257
0.00287764
0.00289435
0.00290681
0.00291946
0.00293655
0.0029616
0.00299688
0.00304296
0.00309854
0.00316045
0.00322405
0.00328365
0.00333309
0.0033661
0.00337662
0.00335882
0.00330689
0.00321475
0.00307534
0.00287907
0.00261144
0.00225011
0.00175744
7.08584e-05
0.000648146
0.00109443
0.00138246
0.0015971
0.00177481
0.00193195
0.00207704
0.00221492
0.00234836
0.00247861
0.00260581
0.00272914
0.00284694
0.00295688
0.00305619
0.00314197
0.0032116
0.00326328
0.00329644
0.0033121
0.00331304
0.00330448
0.00329261
0.0032839
0.00328434
0.00329861
0.00332944
0.00337711
0.00343935
0.00351162
0.00358764
0.00366017
0.00372168
0.00376486
0.00378287
0.00376928
0.00371779
0.0036218
0.00347353
0.0032622
0.00297076
0.00257178
0.00201953
7.55993e-05
0.000716983
0.00124399
0.00158845
0.00184368
0.00205387
0.00223918
0.00240973
0.00257101
0.00272593
0.00287567
0.00301999
0.0031575
0.00328579
0.00340166
0.00350144
0.00358154
0.00363899
0.00367217
0.00368142
0.00366936
0.00364117
0.0036045
0.00356798
0.00354021
0.00352864
0.00353855
0.00357237
0.00362933
0.0037056
0.00379483
0.00388897
0.00397924
0.00405697
0.00411409
0.00414327
0.00413782
0.00409129
0.00399695
0.00384686
0.00362924
0.00332401
0.00289701
0.00229184
7.985e-05
0.000774331
0.00137438
0.00177264
0.00206683
0.00230775
0.00251918
0.0027129
0.00289508
0.00306877
0.00323496
0.00339302
0.0035409
0.00367537
0.00379232
0.00388725
0.00395599
0.00399552
0.00400486
0.00398576
0.00394306
0.00388482
0.00382148
0.00376422
0.00372346
0.00370749
0.00372139
0.00376646
0.00384023
0.00393689
0.00404815
0.00416428
0.0042752
0.00437136
0.00444422
0.00448625
0.00449065
0.00445101
0.00436082
0.00421254
0.00399389
0.00368183
0.00323686
0.00258342
8.3661e-05
0.000821709
0.0014868
0.00193551
0.00226672
0.00253655
0.00277215
0.00298693
0.00318773
0.00337774
0.00355778
0.00372674
0.00388189
0.00401915
0.00413351
0.00421971
0.00427319
0.00429119
0.00427379
0.00422473
0.00415144
0.0040653
0.00397964
0.00390795
0.00386189
0.00384977
0.00387559
0.00393885
0.00403494
0.00415598
0.00429192
0.00443162
0.004564
0.00467895
0.00476774
0.00482289
0.00483746
0.00480496
0.00471933
0.00457409
0.00435809
0.00404785
0.00359685
0.00290947
8.70451e-05
0.000860125
0.00158212
0.00207736
0.00244333
0.00274022
0.00299813
0.00323203
0.00344942
0.00365368
0.00384541
0.00402306
0.00418319
0.00432086
0.0044302
0.00450526
0.0045413
0.00453608
0.00449117
0.00441268
0.00431117
0.00420129
0.00409919
0.00402021
0.00397651
0.00397552
0.00401942
0.00410543
0.00422674
0.00437363
0.00453462
0.00469754
0.00485056
0.00498324
0.00508714
0.00515511
0.00517946
0.00515318
0.00507092
0.00492849
0.00471814
0.00441705
0.00397883
0.00329754
9.00211e-05
0.000890483
0.00166165
0.00219942
0.00259793
0.00292021
0.00319886
0.00345029
0.00368269
0.00389961
0.00410151
0.00428637
0.00445005
0.00458676
0.00468979
0.0047526
0.0047704
0.00474177
0.00467007
0.00456414
0.00443793
0.00430931
0.004197
0.00411756
0.00408282
0.00409855
0.00416453
0.00427554
0.00442274
0.004595
0.00477991
0.00496451
0.00513628
0.00528481
0.00540237
0.00548225
0.00551445
0.00549195
0.00541087
0.00527091
0.00506737
0.00478252
0.00438037
0.00379704
9.25163e-05
0.000912994
0.00172532
0.00230117
0.00272978
0.00307579
0.00337378
0.00364143
0.0038876
0.00411608
0.00432719
0.00451848
0.00468514
0.00482054
0.00491714
0.00496788
0.004968
0.00491708
0.00482056
0.00469023
0.00454351
0.00440138
0.00428473
0.00421067
0.00418995
0.00422601
0.00431591
0.00445203
0.00462391
0.00481958
0.00502615
0.00522998
0.0054177
0.0055788
0.00570586
0.00579214
0.00582771
0.0058065
0.00572591
0.00558833
0.00539373
0.00512991
0.00476879
0.00428186
9.44458e-05
0.000927607
0.00177259
0.00238153
0.00283749
0.00320547
0.00352141
0.0038041
0.00406306
0.00430235
0.00452219
0.00471976
0.00488962
0.00502434
0.00511556
0.00515566
0.00514
0.00506922
0.00495092
0.00479997
0.0046372
0.00448649
0.00437042
0.00430607
0.00430245
0.0043603
0.00447382
0.00463329
0.00482708
0.00504297
0.00526799
0.00548755
0.00568576
0.00585112
0.00598096
0.00606536
0.00609972
0.00607955
0.00600164
0.0058673
0.0056843
0.00544326
0.00512038
0.00469374
9.56886e-05
0.000934156
0.00180284
0.00243964
0.00292015
0.00330839
0.00364105
0.00393783
0.0042089
0.00445864
0.00468728
0.00489165
0.00506572
0.0052013
0.00528922
0.00532129
0.00529287
0.00520559
0.00506918
0.00490157
0.00472685
0.00457155
0.00445956
0.00440746
0.00442213
0.00450138
0.0046367
0.00481658
0.00502859
0.00526086
0.00550037
0.00572856
0.00592408
0.00608826
0.00621364
0.00629318
0.00632393
0.00630535
0.00623192
0.00609968
0.00592863
0.00570838
0.00540425
0.00500199
9.60644e-05
0.000931985
0.00181492
0.00247448
0.00297691
0.00338386
0.00373216
0.00404224
0.00432502
0.00458529
0.00482331
0.0050356
0.00521557
0.00535437
0.00544203
0.00546965
0.00543245
0.00533279
0.00518229
0.0050018
0.00481853
0.0046614
0.00455535
0.00451619
0.00454858
0.0046474
0.00480164
0.00499841
0.00522461
0.0054691
0.00571357
0.00593251
0.00612636
0.00628551
0.00640342
0.00647504
0.00649916
0.00647654
0.00640051
0.0062712
0.00610885
0.0058885
0.00557432
0.00517319
9.53432e-05
0.000918846
0.00180691
0.00248509
0.00300738
0.00343187
0.00379501
0.00411777
0.00441199
0.00468307
0.00493141
0.00515318
0.0053412
0.00548618
0.00557736
0.00560497
0.0055638
0.00545658
0.00529624
0.00510625
0.00491683
0.00475908
0.00465896
0.00463165
0.00467971
0.00479518
0.00496479
0.00517385
0.00540668
0.00564855
0.00588451
0.00610307
0.00629196
0.00644554
0.0065554
0.00661564
0.00662355
0.00658143
0.00649387
0.00637042
0.00621461
0.00598497
0.00565285
0.00518163
9.3698e-05
0.000886749
0.0017763
0.00247177
0.00301284
0.00345428
0.00383181
0.00416636
0.00447138
0.00475329
0.00501283
0.00524582
0.00544423
0.00559874
0.00569773
0.00573037
0.00569072
0.00558148
0.00541637
0.00522027
0.00502587
0.00486682
0.00477056
0.00475221
0.00481258
0.00494091
0.00512087
0.00533429
0.00556389
0.00579814
0.00602809
0.00624006
0.00642267
0.00657259
0.00666943
0.00671216
0.00669354
0.00662967
0.00653319
0.00641817
0.00627164
0.00603225
0.00566138
0.00511914
9.23594e-05
0.000840871
0.00172276
0.00243849
0.00299745
0.00345462
0.00384608
0.00419092
0.0045052
0.00479676
0.00506659
0.00531134
0.00552345
0.00569218
0.00580447
0.00584812
0.00581604
0.00571027
0.00554474
0.00534562
0.00514782
0.00498735
0.00489317
0.00488039
0.00494818
0.00508294
0.00526521
0.00547571
0.00569801
0.00592213
0.00614095
0.00634195
0.00651463
0.00665402
0.00674903
0.00676916
0.00672673
0.00664372
0.00654075
0.0064365
0.00629546
0.00606309
0.00563592
0.00506699
9.18822e-05
0.000817106
0.00167327
0.00239497
0.00296727
0.00343292
0.00383144
0.00418482
0.00450866
0.00481092
0.00509328
0.00535275
0.00558167
0.00576802
0.00589749
0.00595669
0.00593719
0.00584006
0.00567901
0.00548086
0.00528182
0.00512013
0.00502587
0.00501409
0.00508279
0.00521664
0.00539473
0.005597
0.00580799
0.00601839
0.00622042
0.00640381
0.00655844
0.00668351
0.00678659
0.00680867
0.00674112
0.00664162
0.00653366
0.00642896
0.00630286
0.00605629
0.00559516
0.00504578
9.71083e-05
0.000816043
0.00164589
0.00235208
0.00292053
0.00338788
0.00379118
0.00415345
0.00448866
0.00480398
0.00510096
0.00537649
0.00562284
0.00582781
0.00597642
0.00605413
0.00605116
0.0059673
0.00581557
0.00562276
0.00542561
0.00526303
0.00516618
0.00515035
0.00521322
0.00533898
0.00550605
0.00569524
0.00589217
0.006086
0.00626757
0.00642878
0.00656502
0.00667902
0.00676856
0.00679664
0.00673547
0.00663381
0.00653125
0.00643831
0.00633632
0.00605167
0.00557949
0.00505953
9.59264e-05
0.000799269
0.001616
0.00230023
0.00285895
0.00332751
0.00373702
0.00410814
0.00445413
0.00478189
0.00509303
0.00538438
0.00564817
0.00587215
0.00604097
0.00613922
0.00615579
0.00608918
0.00595115
0.00576767
0.00557514
0.00541235
0.00531047
0.00528525
0.00533515
0.00544565
0.00559672
0.00576994
0.0059507
0.00612673
0.00628847
0.00642999
0.00655039
0.00665089
0.00672407
0.00674859
0.00670992
0.00662735
0.00654493
0.00647219
0.00637369
0.00605629
0.00559085
0.00510356
0.00464723
9.35366e-05
0.000762785
0.00156072
0.00222971
0.00278329
0.00325486
0.00367179
0.00405209
0.00440874
0.00474857
0.00507322
0.0053797
0.00566031
0.00590294
0.00609218
0.00621204
0.0062502
0.00620397
0.00608326
0.00591237
0.00572638
0.00556318
0.00545376
0.00541478
0.00544658
0.005537
0.00566822
0.00582278
0.00598572
0.00614426
0.00628907
0.00641542
0.00652308
0.00661266
0.00667781
0.00670436
0.00668467
0.00663262
0.00658004
0.00652818
0.00641037
0.00607062
0.0056221
0.00517019
0.00475956
8.9643e-05
0.000691626
0.0014769
0.00213937
0.00269438
0.00317158
0.00359663
0.0039875
0.00435593
0.00470831
0.00504638
0.00536733
0.00566374
0.00592371
0.00613208
0.00627303
0.00633407
0.00631091
0.00621025
0.00605465
0.00587684
0.00571336
0.00559482
0.00553916
0.00554924
0.00561598
0.00572419
0.00585773
0.00600182
0.00614374
0.00627433
0.0063891
0.00648745
0.00657016
0.00663393
0.00667118
0.00667558
0.00665852
0.00663917
0.00660073
0.00645509
0.00609772
0.00566993
0.00525323
0.00488479
8.60652e-05
0.000630518
0.00138212
0.0020375
0.00259428
0.00307941
0.00351561
0.00391903
0.00430043
0.00466593
0.00501733
0.0053521
0.00566316
0.00593905
0.00616503
0.00632561
0.00640831
0.00640802
0.0063304
0.0061937
0.00602543
0.00586246
0.0057343
0.00566051
0.00564673
0.00568738
0.00577023
0.0058809
0.00600536
0.00613126
0.00624945
0.00635522
0.00644763
0.00652778
0.00659488
0.00664802
0.00668399
0.00670881
0.00672743
0.00669263
0.00651092
0.00613964
0.00573318
0.00534881
0.00501749
8.32441e-05
0.000594005
0.00129645
0.00193635
0.0024942
0.00298808
0.00343633
0.00385298
0.00424775
0.00462636
0.00499066
0.00533837
0.00566282
0.00595312
0.0061951
0.00637378
0.00647678
0.00649841
0.00644289
0.00632574
0.00617183
0.00601163
0.00587427
0.00578233
0.00574392
0.00575722
0.00581316
0.00589958
0.00600367
0.00611359
0.00622027
0.00631876
0.00640804
0.00648999
0.00656484
0.0066331
0.00670102
0.00678256
0.00685778
0.0068117
0.00657806
0.00619653
0.00580974
0.00545422
0.00515453
8.12866e-05
0.000573575
0.00123284
0.00185265
0.00240797
0.00290839
0.00336734
0.00379625
0.00420353
0.00459437
0.00497052
0.00532991
0.00566634
0.00596949
0.00622592
0.00642119
0.00654316
0.00658563
0.00655139
0.00645346
0.00631376
0.00615949
0.00601751
0.00590897
0.00584624
0.00583205
0.00586032
0.00592142
0.00600416
0.00609747
0.00619245
0.00628419
0.00637213
0.00645913
0.00654534
0.00662957
0.00671699
0.00683029
0.00698574
0.00695833
0.00664875
0.00626099
0.00589543
0.00556698
0.00529435
8.00753e-05
0.000563877
0.00119279
0.00179408
0.00234452
0.00284863
0.00331576
0.0037548
0.00417274
0.00457411
0.00496047
0.00532993
0.0056767
0.00599111
0.00626047
0.00647098
0.00661075
0.00667312
0.00665948
0.00658051
0.00645522
0.00630781
0.00616314
0.00604214
0.00595861
0.00591816
0.00591866
0.00595339
0.00601335
0.00608846
0.00617027
0.00625441
0.0063413
0.00643488
0.00653445
0.00663517
0.00673621
0.00685207
0.00702068
0.00702887
0.00668293
0.00632025
0.00598466
0.00568448
0.00543607
7.94047e-05
0.000561864
0.00117318
0.0017612
0.00230695
0.00281294
0.00328587
0.00373263
0.00415897
0.00456874
0.00496331
0.00534091
0.00569622
0.00602024
0.00630106
0.00652558
0.00668217
0.00676373
0.00677032
0.00671038
0.00660011
0.00646094
0.00631575
0.00618489
0.00608322
0.00601866
0.00599231
0.0060003
0.00603561
0.00608968
0.00615526
0.00622921
0.00631335
0.00641238
0.00652388
0.00663821
0.00674684
0.00685497
0.00698623
0.00694481
0.00667667
0.00636959
0.00607359
0.00580441
0.00557913
7.90947e-05
0.000565573
0.00116973
0.00175083
0.00229405
0.00280162
0.00327889
0.00373145
0.00416412
0.0045802
0.00498089
0.00536465
0.00572662
0.00605854
0.00634936
0.00658671
0.00675926
0.00685952
0.00688626
0.00684578
0.00675159
0.00662246
0.00647922
0.00634143
0.00622448
0.00613805
0.0060858
0.00606635
0.00607467
0.00610403
0.00614895
0.00620818
0.00628513
0.00638543
0.00650457
0.00662867
0.00674523
0.00685351
0.00695015
0.00687764
0.00666963
0.00641639
0.00616186
0.00592516
0.00572294
7.9024e-05
0.000573499
0.00117838
0.00175854
0.00230232
0.00281242
0.00329366
0.00375091
0.00418839
0.00460906
0.00501408
0.00540213
0.00576893
0.00610707
0.0064064
0.00665536
0.00684303
0.00696159
0.0070086
0.00698831
0.00691164
0.00679471
0.00665625
0.00651469
0.00638552
0.00627958
0.00620246
0.00615483
0.00613367
0.00613424
0.00615325
0.0061918
0.00625531
0.00635054
0.00647142
0.00660358
0.00673104
0.00684397
0.00692231
0.00684854
0.00667484
0.00646494
0.00624939
0.00604523
0.00586653
7.91159e-05
0.00058442
0.00119582
0.00178004
0.00232763
0.00284188
0.00332755
0.00378918
0.00423065
0.00465476
0.00506271
0.00545353
0.00582357
0.0061663
0.00647263
0.00673192
0.00693375
0.00707013
0.00713752
0.00713825
0.00708073
0.00697845
0.00684787
0.00670599
0.00656791
0.00644506
0.00634435
0.00626815
0.00621528
0.00618313
0.00617088
0.00618234
0.00622533
0.00630823
0.00642489
0.00656196
0.00669903
0.00681613
0.00688843
0.00683298
0.00668785
0.00651464
0.0063349
0.00616251
0.00600809
7.93213e-05
0.000597402
0.00121947
0.0018117
0.00236601
0.00288627
0.00337731
0.00384358
0.00428882
0.00471578
0.00512579
0.00551826
0.00589024
0.00623615
0.00654802
0.00681625
0.00703109
0.00718455
0.00727221
0.00729465
0.00725789
0.00717276
0.00705333
0.00691483
0.00677149
0.00663477
0.00651236
0.0064079
0.00632194
0.00625401
0.00620591
0.00618437
0.00619989
0.0062624
0.00636811
0.00650424
0.00664691
0.00676784
0.00684128
0.00681355
0.0067013
0.00656193
0.00641563
0.00627399
0.00614471
7.96067e-05
0.000611769
0.00124741
0.00185061
0.00241407
0.00294207
0.0034396
0.00391112
0.00436033
0.00479001
0.00520165
0.00559509
0.00596808
0.00631601
0.00663206
0.00690779
0.00713429
0.00730376
0.00741119
0.00745564
0.00744092
0.00737526
0.00727022
0.00713895
0.00699437
0.00684744
0.00670611
0.00657493
0.00645592
0.00635066
0.00626353
0.00620419
0.00618618
0.00621997
0.00630688
0.0064341
0.00657741
0.00670199
0.00678245
0.00678444
0.00670851
0.00660259
0.00648825
0.00637626
0.00627268
7.99462e-05
0.000626999
0.00127817
0.00189448
0.00246896
0.00300619
0.00351131
0.00398881
0.00444243
0.00487499
0.0052882
0.0056823
0.00605571
0.00640477
0.00672384
0.00700566
0.00724229
0.00742638
0.00755257
0.00761877
0.00762681
0.00758249
0.00749479
0.0073746
0.00723311
0.00708033
0.00692397
0.00676913
0.00661898
0.00647689
0.00634949
0.00624903
0.00619184
0.00619131
0.00624999
0.00635855
0.00649597
0.0066233
0.00671303
0.00674354
0.00670516
0.00663253
0.00654935
0.00646609
0.0063882
8.03159e-05
0.00064264
0.00131058
0.00194145
0.00252834
0.00307598
0.00358963
0.00407384
0.00453238
0.00496818
0.00538313
0.00577785
0.00615138
0.00650098
0.0068221
0.00710868
0.00735385
0.00755088
0.0076944
0.00778146
0.00781229
0.00779048
0.00772255
0.00761702
0.00748308
0.0073294
0.00716305
0.00698923
0.0068119
0.00663578
0.0064692
0.00632636
0.00622606
0.00618518
0.00620928
0.00628848
0.00641007
0.0065363
0.00663536
0.00668797
0.00668625
0.00664758
0.00659535
0.00654038
0.00648804
8.06937e-05
0.000658297
0.00134367
0.00199004
0.00259028
0.00314919
0.00367211
0.00416365
0.00462764
0.00506707
0.00548405
0.00587953
0.00625311
0.00660287
0.00692529
0.00721547
0.00746762
0.00767577
0.00783479
0.00794126
0.00799417
0.00799525
0.00794879
0.00786096
0.00773888
0.00758959
0.00741918
0.00723254
0.00703397
0.00682896
0.00662682
0.00644283
0.00629745
0.00621068
0.00619319
0.00623961
0.00633251
0.0064484
0.00655187
0.00662079
0.00664904
0.00664423
0.00662279
0.00659588
0.00656938
8.10602e-05
0.000673651
0.00137669
0.00203905
0.00265319
0.00322394
0.00375665
0.00425599
0.00472585
0.00516932
0.00558865
0.00598511
0.00635881
0.00670853
0.00703171
0.00732449
0.00758215
0.00779958
0.00797208
0.00809606
0.00816968
0.00819323
0.00816907
0.00810126
0.00799487
0.00785519
0.0076871
0.00749484
0.00728255
0.0070559
0.00682437
0.00660332
0.00641376
0.00627789
0.00621113
0.00621474
0.00627425
0.00636761
0.0064668
0.00654631
0.00659637
0.00662083
0.00662934
0.00662989
0.00662929
8.14001e-05
0.000688476
0.00140903
0.00208749
0.00271579
0.00329863
0.00384144
0.00434889
0.00482493
0.00527274
0.00569473
0.00609243
0.00646639
0.00681601
0.00713954
0.00743411
0.00769597
0.00792092
0.00810479
0.00824412
0.0083366
0.00838148
0.0083796
0.00833322
0.00824556
0.00812022
0.00796075
0.00777046
0.00755297
0.00731353
0.00706104
0.00680999
0.00658074
0.00639636
0.00627602
0.00622763
0.00624415
0.00630644
0.00638903
0.00647066
0.00653566
0.00658202
0.00661549
0.00664129
0.00666621
8.1703e-05
0.000702625
0.00144027
0.00213462
0.00277699
0.00337198
0.00392495
0.00444065
0.00492306
0.00537543
0.00580031
0.00619948
0.00657385
0.00692336
0.00724698
0.00754267
0.00780761
0.00803844
0.00823165
0.00838406
0.00849323
0.00855773
0.00857733
0.00855287
0.00848601
0.00837886
0.00823364
0.00805265
0.00783868
0.00759613
0.00733274
0.00706135
0.00680057
0.00657288
0.00639963
0.00629436
0.00625785
0.00627801
0.00633438
0.00640597
0.00647565
0.00653657
0.00658827
0.00663368
0.00667963
8.19625e-05
0.000715999
0.00147006
0.00217983
0.00283596
0.00344287
0.00400591
0.00452983
0.00501864
0.00547567
0.0059036
0.00630441
0.00667932
0.00702875
0.00735225
0.00764854
0.0079156
0.00815087
0.00835152
0.00851479
0.00863831
0.00872036
0.00876
0.00875708
0.00871204
0.00862578
0.00849936
0.00833405
0.00813173
0.00789569
0.00763217
0.00735182
0.0070707
0.00680938
0.00658953
0.00642849
0.00633405
0.00630223
0.00631932
0.00636733
0.00642932
0.00649431
0.00655686
0.00661601
0.00667595
8.21747e-05
0.000728514
0.00149813
0.00222262
0.00289197
0.00351042
0.00408325
0.0046152
0.00511033
0.00557202
0.00600306
0.0064056
0.00678115
0.00713051
0.00745374
0.00775019
0.00801857
0.00825702
0.00846339
0.00863541
0.00877096
0.00886828
0.00892607
0.00894354
0.00892033
0.0088564
0.00875193
0.0086073
0.00842346
0.0082026
0.00794932
0.00767191
0.00738344
0.00710158
0.00684662
0.00663747
0.006487
0.00639871
0.0063665
0.00637768
0.00641743
0.00647328
0.0065366
0.00660329
0.00667376
8.2337e-05
0.000740078
0.00152424
0.00226257
0.00294446
0.0035739
0.0041561
0.00469578
0.00519702
0.00566325
0.00609736
0.00650165
0.00687787
0.00722714
0.00754996
0.00784622
0.00811522
0.00835578
0.00856635
0.0087452
0.00889055
0.0090008
0.00907454
0.0091107
0.00910842
0.00906708
0.00898621
0.00886555
0.00870527
0.00850658
0.00827253
0.00800916
0.0077265
0.00743885
0.00716385
0.0069199
0.0067225
0.00658077
0.00649575
0.0064612
0.00646652
0.00650036
0.00655322
0.00661896
0.00669502
8.24472e-05
0.00075059
0.00154815
0.00229934
0.00299294
0.00363271
0.00422375
0.00477076
0.00527781
0.00574838
0.00618543
0.00659141
0.00696826
0.00731738
0.00763964
0.00793538
0.00820443
0.00844617
0.00865962
0.00884356
0.00899664
0.00911751
0.00920488
0.00925761
0.00927466
0.00925511
0.00919811
0.00910298
0.00896937
0.00879767
0.0085897
0.00834956
0.00808448
0.00780542
0.00752673
0.00726475
0.00703532
0.00685072
0.0067175
0.00663571
0.00660015
0.00660277
0.00663529
0.006691
0.00676552
8.2503e-05
0.000759933
0.00156966
0.00233264
0.00303706
0.00368642
0.0042857
0.00483954
0.00535201
0.00582662
0.00626642
0.00667395
0.00705133
0.0074002
0.00772174
0.00801666
0.00828524
0.00852734
0.00874252
0.00893002
)
;

boundaryField
{
    leftWall
    {
        type            nutkWallFunction;
        Cmu             0.09;
        kappa           0.41;
        E               9.8;
        value           nonuniform List<scalar> 
44
(
3.28672e-06
5.06405e-06
6.25906e-06
7.1314e-06
7.84347e-06
8.45771e-06
9.00261e-06
9.49189e-06
9.93165e-06
1.03232e-05
1.06681e-05
1.09567e-05
1.11775e-05
1.13139e-05
1.13447e-05
1.12558e-05
1.11006e-05
1.10184e-05
1.11137e-05
4.31174e-06
4.02678e-06
3.5133e-06
2.93466e-06
2.4482e-06
2.08879e-06
1.85275e-06
1.71357e-06
1.64113e-06
1.61282e-06
1.61429e-06
1.6366e-06
1.67391e-06
1.72197e-06
1.77715e-06
1.83595e-06
1.89504e-06
1.95151e-06
2.00312e-06
2.04836e-06
2.08636e-06
2.1166e-06
2.1388e-06
2.15273e-06
2.15808e-06
)
;
    }
    rightWall
    {
        type            nutkWallFunction;
        Cmu             0.09;
        kappa           0.41;
        E               9.8;
        value           nonuniform 0();
    }
    lowerWall
    {
        type            nutkWallFunction;
        Cmu             0.09;
        kappa           0.41;
        E               9.8;
        value           nonuniform List<scalar> 
44
(
2.38701e-06
3.63309e-06
4.52245e-06
5.15919e-06
5.64822e-06
6.04087e-06
6.37065e-06
6.65904e-06
6.91947e-06
7.16028e-06
7.38676e-06
7.60249e-06
7.81006e-06
8.01156e-06
8.20873e-06
8.40309e-06
8.596e-06
8.78873e-06
8.98261e-06
9.17928e-06
9.38128e-06
9.59371e-06
9.81364e-06
1.00379e-05
1.02699e-05
1.05131e-05
1.07696e-05
1.10399e-05
1.1322e-05
1.16111e-05
1.18992e-05
1.21759e-05
1.24357e-05
1.26761e-05
1.28608e-05
1.29713e-05
1.29987e-05
1.29366e-05
1.27632e-05
1.24571e-05
1.20013e-05
1.13693e-05
1.04647e-05
9.16096e-06
)
;
    }
    atmosphere
    {
        type            calculated;
        value           nonuniform 0();
    }
    defaultFaces
    {
        type            empty;
    }
    procBoundary0to1
    {
        type            processor;
        value           nonuniform List<scalar> 
44
(
6.03092e-05
0.000474646
0.00072536
0.000896702
0.00105596
0.0012229
0.00139964
0.00158352
0.00179679
0.00210211
0.00290441
0.00363417
0.00416418
0.00450256
0.00458978
0.00454025
0.00448249
0.00446762
0.00449332
0.00455557
0.00455557
0.00428893
0.00445157
0.00461861
0.00478503
0.00494844
0.00510849
0.00526583
0.0054215
0.00557661
0.00573176
0.00588646
0.00603871
0.00618506
0.00632114
0.0064429
0.00654752
0.00663268
0.00669548
0.00673131
0.00674146
0.00675013
0.00678063
0.00685595
)
;
    }
    procBoundary0to2
    {
        type            processor;
        value           nonuniform List<scalar> 
46
(
0.00908892
0.00921823
0.00931689
0.00938386
0.00941814
0.00941873
0.00938466
0.00931505
0.00920924
0.00906711
0.00888955
0.00867913
0.00844082
0.00818255
0.00791537
0.00765276
0.00740915
0.00719772
0.00702826
0.00690574
0.00683029
0.0067983
0.00680429
0.00684261
0.00690855
8.25013e-05
0.000768015
0.00158861
0.00236229
0.00307659
0.00373473
0.00434158
0.00490169
0.00541913
0.00589743
0.0063397
0.00674859
0.00712635
0.00747482
0.00779543
0.00808924
0.00835688
0.00859866
0.00881454
0.00908892
0.00900424
)
;
    }
}


// ************************************************************************* //
