/*--------------------------------*- C++ -*----------------------------------*\
| =========                 |                                                 |
| \\      /  F ield         | OpenFOAM: The Open Source CFD Toolbox           |
|  \\    /   O peration     | Version:  5.0                                   |
|   \\  /    A nd           | Web:      www.OpenFOAM.org                      |
|    \\/     M anipulation  |                                                 |
\*---------------------------------------------------------------------------*/
FoamFile
{
    version     2.0;
    format      ascii;
    class       volScalarField;
    location    "1";
    object      p;
}
// * * * * * * * * * * * * * * * * * * * * * * * * * * * * * * * * * * * * * //

dimensions      [1 -1 -2 0 0 0 0];

internalField   nonuniform List<scalar> 
1935
(
798.221
795.867
792.257
787.431
781.74
775.343
768.373
760.947
753.179
745.183
737.07
728.948
720.911
713.039
705.394
698.021
690.944
684.172
677.697
671.491
665.512
659.738
654.187
648.831
643.62
638.519
633.494
628.506
623.516
618.462
613.245
608.193
603.378
597.769
592.463
587.106
581.921
577.122
572.728
569.137
566.196
563.315
560.953
558.628
752.459
750.162
746.879
742.298
736.768
730.469
723.534
716.083
708.238
700.123
691.861
683.564
675.335
667.257
659.395
651.794
644.481
637.463
630.735
624.276
618.046
612.044
606.239
600.597
595.081
589.651
584.266
578.884
573.469
567.996
562.51
557.155
551.588
545.448
539.666
534.326
529.592
525.07
521.14
518.127
515.604
513.26
511.327
509.88
707.645
704.871
701.572
697.201
691.845
685.649
678.752
671.283
663.373
655.157
646.764
638.313
629.907
621.634
613.558
605.726
598.165
590.883
583.878
577.134
570.63
564.322
558.206
552.242
546.39
540.602
534.832
529.03
523.157
517.194
511.177
505.143
498.906
492.425
486.254
480.707
475.873
471.606
468.26
465.811
464.011
462.681
462.021
462.015
663.525
659.984
656.247
651.857
646.55
640.377
633.467
625.95
617.964
609.646
601.131
592.54
583.98
575.538
567.28
559.253
551.485
543.988
536.761
529.792
523.062
516.538
510.191
503.987
497.886
491.84
485.798
479.707
473.519
467.199
460.743
454.165
447.412
440.549
433.983
428.049
422.956
418.78
415.679
413.64
412.629
412.417
412.938
414.055
619.707
615.373
610.945
606.305
600.901
594.655
587.667
580.064
571.981
563.557
554.928
546.215
537.527
528.952
520.557
512.387
504.473
496.828
489.451
482.333
475.452
468.779
462.284
455.93
449.679
443.483
437.286
431.031
424.652
418.088
411.291
404.245
396.963
389.578
382.464
376.012
370.539
366.184
363.071
361.339
361.102
361.823
363.197
365.049
575.946
570.854
565.63
560.592
554.985
548.59
541.473
533.749
525.549
517.012
508.271
499.45
490.657
481.978
473.483
465.216
457.207
449.469
442.002
434.793
427.821
421.056
414.472
408.035
401.706
395.434
389.163
382.821
376.322
369.56
362.434
354.884
346.951
338.83
330.91
323.671
317.582
312.841
309.546
308.026
308.677
310.327
312.354
314.736
532.088
526.28
520.24
514.72
508.84
502.242
494.953
487.078
478.743
470.086
461.237
452.318
443.437
434.682
426.119
417.794
409.735
401.953
394.443
387.19
380.169
373.356
366.728
360.256
353.899
347.606
341.317
334.946
328.374
321.442
313.966
305.823
297.071
287.911
278.697
270.09
262.952
257.57
253.903
252.621
254.815
257.793
260.369
263.079
488.031
481.553
474.719
468.682
462.484
455.645
448.153
440.102
431.617
422.833
413.878
404.872
395.922
387.115
378.516
370.168
362.097
354.312
346.802
339.541
332.502
325.668
319.029
312.557
306.212
299.941
293.68
287.332
280.743
273.68
265.844
257.008
247.166
236.348
224.924
214.283
206.092
200.151
195.642
194.045
198.838
204.21
207.32
209.945
443.706
436.61
429.038
422.485
415.945
408.839
401.12
392.874
384.227
375.311
366.253
357.171
348.169
339.331
330.721
322.38
314.333
306.583
299.106
291.864
284.823
277.986
271.356
264.914
258.613
252.398
246.208
239.943
233.411
226.303
218.142
208.445
196.976
183.779
170.388
160.14
154.296
149.292
142.596
137.201
142.651
150.567
153.574
154.672
399.067
391.422
383.203
376.162
369.275
361.887
353.922
345.463
336.638
327.584
318.424
309.272
300.23
291.379
282.779
274.468
266.473
258.793
251.384
244.179
237.139
230.301
223.696
217.306
211.074
204.941
198.862
192.752
186.412
179.466
171.105
160.262
146.938
133.425
125.384
126.455
128.294
124.769
115.964
105.705
98.4552
101.245
100.5
96.2743
353.707
345.601
336.854
329.367
322.131
314.441
306.207
297.511
288.492
279.287
270.02
260.8
251.726
242.875
234.299
226.034
218.116
210.54
203.232
196.073
189.017
182.161
175.582
169.259
163.108
157.067
151.138
145.308
139.46
133.178
124.96
113.126
101.063
98.879
108.514
117.875
119.231
114.247
105.117
95.4545
75.0258
60.4258
51.1389
39.8066
307.459
299.008
289.885
282.007
274.41
266.391
257.853
248.889
239.654
230.289
220.913
211.628
202.528
193.685
185.138
176.922
169.091
161.648
154.467
147.339
140.203
133.275
126.708
120.467
114.411
108.46
102.714
97.3685
92.5106
87.608
79.8523
69.7913
71.418
86.4339
101.286
107.491
103.529
96.0706
87.7221
79.5432
54.4256
29.5367
20.8249
15.5591
260.661
252.024
242.714
234.486
226.505
218.117
209.243
199.996
190.546
181.038
171.564
162.207
153.06
144.194
135.631
127.404
119.628
112.355
105.375
98.2768
90.9488
83.8853
77.4115
71.4363
65.6354
59.8062
54.1725
49.281
45.4983
42.1659
36.8396
36.7372
54.6588
73.3662
78.9475
77.8641
75.7048
70.9064
66.384
56.3572
32.7458
18.1125
14.0288
13.2904
213.623
204.993
195.694
187.134
178.75
169.974
160.739
151.159
141.443
131.729
122.056
112.493
103.085
94.0056
85.2548
76.8479
69.1127
62.2982
56.0208
49.3928
42.2609
35.827
30.6818
26.4637
22.5437
18.6011
14.9212
12.1551
10.2322
8.52231
7.57842
16.9715
34.9978
43.7426
47.0615
50.2116
58.489
61.1918
58.8282
41.8976
19.2976
14.579
13.6746
13.4281
166.89
158.46
149.346
140.426
131.56
122.239
112.316
101.718
90.9435
80.213
69.5976
59.3755
50.2066
42.0881
34.7469
28.1433
22.6597
18.5177
15.3333
12.2
8.80644
6.0572
4.17606
2.80336
1.59785
0.479937
-0.383808
-0.805115
-0.848933
-0.576627
1.49165
6.48754
11.2885
16.9436
23.4491
40.6404
57.7065
61.7586
56.5979
33.5838
16.2632
13.9812
13.6575
13.616
121.218
113.011
104.139
94.3639
83.9526
72.5587
60.4463
48.7137
38.0354
28.6853
20.7681
14.4907
10.1336
6.84078
4.18492
2.11899
0.669764
-0.249601
-0.710079
-0.811586
-0.81712
-0.822137
-0.829113
-0.837474
-0.846526
-0.838585
-0.787145
-0.789154
-0.807344
-0.722177
-0.26892
0.553758
1.51661
3.88737
14.6876
35.4818
51.7215
54.0581
47.5161
26.9027
15.0697
13.8605
13.7624
13.6754
77.3221
68.7164
59.1463
47.2492
35.4783
24.4585
15.3291
9.11074
4.69502
1.74044
0.0460832
-0.623709
-0.758772
-0.800883
-0.823152
-0.837186
-0.847958
-0.857383
-0.861466
-0.860012
-0.85667
-0.854821
-0.854735
-0.856179
-0.858581
-0.857327
-0.846187
-0.84269
-0.845914
-0.792609
-0.655595
-0.682154
-0.807921
0.490638
8.15265
21.0912
34.7503
40.0715
35.3963
18.905
14.6342
13.8961
13.9059
13.6497
36.4122
27.6662
19.265
10.5314
4.73871
1.16789
-0.346068
-0.651408
-0.755079
-0.812636
-0.865633
-0.903368
-0.91903
-0.924183
-0.924894
-0.923171
-0.92045
-0.917563
-0.913844
-0.909923
-0.90651
-0.904232
-0.903116
-0.903002
-0.903279
-0.902118
-0.898256
-0.896568
-0.894682
-0.871895
-0.928555
-0.918854
-0.641189
-0.306684
0.452733
5.56429
21.2122
32.6246
26.3209
15.9598
14.6629
13.9997
13.9702
13.2385
7.51557
2.82265
0.538207
-0.607694
-0.774924
-0.856929
-0.91607
-0.950972
-0.968259
-0.976181
-0.978609
-0.974851
-0.97347
-0.973401
-0.972649
-0.970904
-0.968521
-0.965742
-0.962458
-0.958966
-0.955564
-0.952745
-0.95077
-0.9497
-0.949199
-0.948227
-0.946396
-0.947015
-0.950608
-0.953205
-0.928611
-0.847439
-0.735244
-0.660712
-0.633552
0.117728
10.8638
24.8305
18.6038
14.8515
14.5401
13.8739
14.0007
11.1584
-1.05853
-1.24444
-1.00481
-1.01285
-1.03346
-1.03941
-1.02961
-1.02523
-1.02478
-1.02428
-1.0229
-1.0207
-1.02043
-1.02075
-1.02048
-1.01939
-1.01757
-1.01503
-1.01171
-1.00786
-1.00388
-1.0003
-0.997505
-0.995779
-0.995122
-0.995032
-0.995477
-0.998865
-1.00625
-1.00607
-0.976419
-0.924943
-0.85443
-0.801309
-0.814404
-0.438951
1.98387
12.56
10.0626
9.4564
12.5128
13.6124
14.2255
10.3798
-1.12307
-1.16899
-1.13073
-1.11238
-1.10189
-1.09207
-1.08064
-1.07479
-1.07249
-1.07161
-1.07151
-1.07153
-1.07185
-1.07192
-1.07137
-1.07007
-1.06795
-1.06502
-1.06128
-1.05699
-1.05257
-1.04851
-1.04531
-1.0434
-1.04303
-1.04417
-1.04707
-1.05336
-1.06263
-1.06251
-1.04721
-1.02025
-0.9798
-0.948845
-0.973376
-0.892228
-0.0510547
3.51869
2.23932
1.55588
7.08372
12.9574
13.8984
12.8584
16.2703
-1.17889
-1.18871
-1.17614
-1.16294
-1.15059
-1.14081
-1.13315
-1.12858
-1.12599
-1.12462
-1.12403
-1.12369
-1.12345
-1.12301
-1.1221
-1.1205
-1.11812
-1.11491
-1.11096
-1.10651
-1.10196
-1.09782
-1.09462
-1.09292
-1.09315
-1.09557
-1.10055
-1.1089
-1.1183
-1.1225
-1.11962
-1.11098
-1.09723
-1.09108
-1.11536
-1.1205
-0.905427
-0.374344
-3.81804
-6.90753
0.79542
12.0335
15.8656
19.0345
22.8918
-1.2229
-1.22842
-1.21899
-1.21037
-1.20074
-1.19266
-1.18625
-1.18174
-1.17872
-1.17679
-1.17559
-1.17475
-1.17411
-1.17337
-1.17226
-1.17052
-1.16804
-1.16478
-1.16085
-1.1565
-1.15211
-1.14819
-1.14531
-1.14409
-1.14505
-1.14859
-1.15507
-1.16455
-1.17539
-1.18467
-1.19146
-1.1965
-1.2014
-1.21241
-1.23344
-1.25348
-1.35389
-1.99966
-7.04433
-15.9536
-6.80791
12.0726
23.4426
27.0195
27.1897
-1.26754
-1.26901
-1.26307
-1.25681
-1.24937
-1.24261
-1.23699
-1.23275
-1.22973
-1.22765
-1.22624
-1.22524
-1.22442
-1.22353
-1.22231
-1.22053
-1.21805
-1.21488
-1.21112
-1.20704
-1.20302
-1.19955
-1.1972
-1.19658
-1.19825
-1.20267
-1.21016
-1.2207
-1.23342
-1.24694
-1.26063
-1.27489
-1.29133
-1.31322
-1.33832
-1.35896
-1.46656
-1.75657
-7.07116
-24.8299
-17.25
11.2075
32.1596
32.4013
28.1674
-1.31406
-1.31255
-1.30801
-1.30279
-1.29687
-1.29135
-1.28666
-1.28297
-1.28022
-1.27823
-1.27681
-1.27574
-1.27482
-1.27384
-1.27255
-1.27076
-1.26835
-1.26534
-1.26185
-1.25817
-1.25466
-1.25179
-1.25007
-1.25007
-1.25234
-1.25735
-1.26545
-1.27672
-1.29078
-1.30693
-1.32469
-1.34429
-1.36729
-1.39725
-1.43723
-1.48525
-1.55511
-1.80037
-3.98865
-24.1438
-29.4531
3.39882
31.7507
32.0839
26.5924
-1.3613
-1.3587
-1.35446
-1.34977
-1.34489
-1.34037
-1.33648
-1.33333
-1.33088
-1.32903
-1.32764
-1.32653
-1.32554
-1.32447
-1.32313
-1.32136
-1.31906
-1.31625
-1.3131
-1.30988
-1.30696
-1.30475
-1.30369
-1.30426
-1.30695
-1.31222
-1.32044
-1.33181
-1.3462
-1.36314
-1.3822
-1.40347
-1.42845
-1.4612
-1.50897
-1.58177
-1.67747
-1.79768
-2.66115
-13.0668
-31.8141
-9.95179
21.9682
26.9935
24.3096
-1.40962
-1.40656
-1.40249
-1.3982
-1.39403
-1.39023
-1.38693
-1.38419
-1.38201
-1.38028
-1.37892
-1.37777
-1.37671
-1.37557
-1.3742
-1.37245
-1.37026
-1.36769
-1.3649
-1.36218
-1.35986
-1.35829
-1.35783
-1.35886
-1.36175
-1.36692
-1.37477
-1.38553
-1.39914
-1.41516
-1.43306
-1.45269
-1.4753
-1.50473
-1.54914
-1.62114
-1.72427
-1.8202
-2.25353
-5.81355
-17.8251
-14.3315
10.3394
19.6503
21.5141
-1.45917
-1.45587
-1.45196
-1.44802
-1.44434
-1.44104
-1.43816
-1.43575
-1.43376
-1.43213
-1.43078
-1.4296
-1.42847
-1.42725
-1.42583
-1.42411
-1.42203
-1.4197
-1.41727
-1.41503
-1.41328
-1.4123
-1.41234
-1.41365
-1.41651
-1.42126
-1.42826
-1.43775
-1.44962
-1.46334
-1.47812
-1.49349
-1.51006
-1.53051
-1.56097
-1.61027
-1.68129
-1.75135
-1.8946
-2.66367
-8.37652
-11.9122
1.89292
12.2366
17.0845
-1.50988
-1.5065
-1.50274
-1.49907
-1.49575
-1.4928
-1.49024
-1.48806
-1.48622
-1.48467
-1.48333
-1.4821
-1.48089
-1.4796
-1.47812
-1.4764
-1.47442
-1.4723
-1.47021
-1.46841
-1.46715
-1.46666
-1.46707
-1.46851
-1.47112
-1.47518
-1.48097
-1.48868
-1.49813
-1.5086
-1.51905
-1.52863
-1.53719
-1.54596
-1.55808
-1.5778
-1.60306
-1.61827
-1.63555
-1.71363
-4.91738
-9.31134
-3.98156
5.14944
11.2973
-1.56169
-1.55834
-1.55469
-1.55124
-1.54819
-1.54551
-1.54319
-1.54119
-1.53947
-1.53797
-1.53662
-1.53534
-1.53405
-1.53265
-1.5311
-1.52936
-1.52745
-1.5255
-1.52369
-1.52226
-1.52143
-1.52131
-1.52196
-1.52337
-1.52559
-1.52877
-1.53315
-1.53882
-1.54549
-1.55229
-1.558
-1.56152
-1.56214
-1.55997
-1.55595
-1.55123
-1.54263
-1.51222
-1.41536
-1.39493
-3.7476
-9.53708
-10.3051
-2.79506
4.08684
-1.61454
-1.61125
-1.60772
-1.60444
-1.60161
-1.59915
-1.59701
-1.59516
-1.59354
-1.59208
-1.59071
-1.58936
-1.58797
-1.58646
-1.58481
-1.58301
-1.58114
-1.57931
-1.57772
-1.57659
-1.57607
-1.57622
-1.57699
-1.57826
-1.57998
-1.58222
-1.58514
-1.58874
-1.59262
-1.59581
-1.59703
-1.5951
-1.58913
-1.57861
-1.56333
-1.54283
-1.51371
-1.45621
-1.31445
-1.21636
-2.49845
-8.62491
-15.1583
-11.7742
-4.92418
-1.66838
-1.66517
-1.66176
-1.65864
-1.65599
-1.65371
-1.65173
-1.65
-1.64844
-1.647
-1.6456
-1.64417
-1.64267
-1.64104
-1.63927
-1.63741
-1.63552
-1.63377
-1.63234
-1.63142
-1.63113
-1.63144
-1.63222
-1.63327
-1.63444
-1.63575
-1.63727
-1.63896
-1.64031
-1.64032
-1.63772
-1.63145
-1.62069
-1.60479
-1.58331
-1.55534
-1.51829
-1.45857
-1.34305
-1.2603
-1.79999
-5.7689
-16.3224
-21.1234
-16.4188
-1.72317
-1.72007
-1.71678
-1.71382
-1.71133
-1.70919
-1.70733
-1.70568
-1.70417
-1.70272
-1.70128
-1.69977
-1.69815
-1.6964
-1.69453
-1.69258
-1.69067
-1.68895
-1.68762
-1.68684
-1.68667
-1.68705
-1.68776
-1.68852
-1.68913
-1.68955
-1.68983
-1.68986
-1.68912
-1.6866
-1.68114
-1.67183
-1.65807
-1.63937
-1.61549
-1.58597
-1.54863
-1.4986
-1.42468
-1.37689
-1.57156
-3.14853
-12.4307
-26.75
-29.3739
-1.77889
-1.77593
-1.77277
-1.76995
-1.76758
-1.76555
-1.76377
-1.76217
-1.76067
-1.75921
-1.75772
-1.75614
-1.75443
-1.75258
-1.75061
-1.74859
-1.74665
-1.74494
-1.74365
-1.74293
-1.7428
-1.74316
-1.74372
-1.74416
-1.74422
-1.74383
-1.74302
-1.74171
-1.73937
-1.73507
-1.72777
-1.71674
-1.70158
-1.68206
-1.65825
-1.63024
-1.59666
-1.55547
-1.50757
-1.46775
-1.49447
-2.08123
-6.16621
-21.2155
-35.428
-1.83551
-1.8327
-1.82967
-1.82696
-1.82468
-1.82272
-1.82099
-1.81941
-1.81792
-1.81644
-1.81491
-1.81327
-1.8115
-1.80959
-1.80756
-1.80549
-1.80352
-1.8018
-1.80051
-1.79978
-1.79962
-1.79988
-1.80024
-1.80034
-1.79988
-1.79878
-1.79708
-1.7947
-1.79124
-1.78586
-1.7777
-1.76616
-1.75098
-1.7321
-1.70985
-1.68476
-1.65637
-1.62362
-1.58863
-1.55569
-1.5335
-1.69523
-2.67871
-10.1156
-24.9668
-1.89299
-1.89032
-1.88741
-1.88479
-1.88257
-1.88065
-1.87894
-1.87738
-1.87588
-1.87439
-1.87285
-1.87119
-1.8694
-1.86746
-1.86541
-1.86332
-1.86133
-1.85958
-1.85826
-1.85747
-1.8572
-1.85728
-1.85739
-1.85714
-1.85623
-1.85455
-1.85216
-1.84904
-1.84488
-1.83903
-1.8308
-1.81972
-1.80562
-1.78849
-1.76878
-1.74731
-1.72437
-1.69959
-1.67449
-1.65097
-1.63119
-1.67685
-1.94232
-3.84965
-10.4159
-1.95128
-1.94875
-1.94594
-1.94339
-1.94121
-1.93932
-1.93762
-1.93607
-1.93458
-1.9331
-1.93157
-1.92993
-1.92816
-1.92624
-1.9242
-1.92212
-1.92011
-1.91833
-1.91693
-1.91602
-1.91557
-1.91541
-1.91522
-1.91462
-1.91333
-1.91124
-1.90842
-1.90489
-1.90045
-1.89463
-1.88691
-1.87698
-1.86471
-1.85007
-1.83348
-1.81594
-1.79836
-1.78095
-1.76494
-1.75232
-1.74351
-1.75786
-1.87011
-2.15114
-2.81394
-2.01035
-2.00794
-2.00522
-2.00273
-2.00059
-1.99872
-1.99705
-1.99551
-1.99406
-1.99261
-1.99113
-1.98954
-1.98782
-1.98595
-1.98395
-1.98188
-1.97986
-1.97803
-1.97653
-1.97544
-1.97474
-1.97428
-1.97374
-1.9728
-1.97121
-1.96888
-1.9659
-1.96233
-1.95803
-1.95265
-1.94584
-1.93743
-1.92734
-1.91553
-1.90232
-1.88869
-1.87596
-1.86496
-1.85666
-1.85327
-1.85643
-1.87031
-1.90461
-1.96182
-2.09642
-2.07018
-2.06789
-2.06526
-2.06283
-2.06074
-2.05891
-2.05727
-2.05577
-2.05436
-2.05298
-2.05156
-2.05005
-2.04841
-2.04661
-2.04467
-2.04263
-2.04059
-2.03869
-2.03703
-2.03571
-2.03471
-2.03387
-2.03296
-2.03169
-2.02988
-2.0275
-2.02464
-2.02138
-2.0176
-2.01299
-2.00731
-2.0005
-1.9926
-1.98357
-1.97364
-1.9637
-1.95514
-1.94925
-1.94702
-1.95001
-1.96046
-1.97899
-2.00128
-2.0157
-2.09119
-2.13077
-2.12859
-2.12607
-2.12372
-2.12169
-2.11991
-2.11833
-2.11689
-2.11555
-2.11425
-2.11292
-2.1115
-2.10995
-2.10824
-2.10635
-2.10434
-2.10228
-2.10027
-2.09842
-2.09682
-2.09545
-2.0942
-2.09291
-2.09135
-2.08943
-2.08715
-2.08466
-2.08198
-2.07898
-2.07534
-2.07084
-2.06553
-2.05957
-2.05305
-2.04615
-2.03957
-2.03462
-2.03267
-2.03486
-2.04231
-2.05653
-2.07892
-2.10711
-2.1354
-2.17775
-2.19212
-2.19007
-2.18766
-2.18541
-2.18346
-2.18176
-2.18025
-2.17889
-2.17763
-2.17642
-2.17519
-2.17387
-2.17243
-2.1708
-2.16899
-2.167
-2.16489
-2.16275
-2.16066
-2.15871
-2.15692
-2.15526
-2.15362
-2.15188
-2.14999
-2.148
-2.146
-2.14402
-2.14185
-2.13918
-2.1358
-2.13182
-2.12754
-2.12321
-2.11902
-2.11546
-2.1136
-2.11472
-2.11992
-2.13018
-2.14644
-2.16985
-2.20114
-2.23903
-2.28674
-2.25423
-2.25231
-2.25004
-2.2479
-2.24606
-2.24445
-2.24303
-2.24176
-2.2406
-2.23948
-2.23835
-2.23714
-2.2358
-2.23428
-2.23253
-2.23057
-2.2284
-2.2261
-2.22373
-2.22138
-2.21915
-2.21709
-2.21519
-2.21341
-2.21173
-2.21014
-2.20868
-2.20729
-2.20582
-2.20398
-2.20163
-2.1989
-2.19614
-2.19369
-2.19179
-2.19083
-2.19158
-2.19501
-2.20214
-2.21382
-2.23078
-2.25371
-2.28342
-2.32065
-2.36586
-2.31709
-2.31531
-2.31318
-2.31118
-2.30945
-2.30795
-2.30663
-2.30546
-2.30438
-2.30336
-2.30233
-2.30124
-2.3
-2.29858
-2.29691
-2.29497
-2.29275
-2.29028
-2.28762
-2.28488
-2.28226
-2.27988
-2.27784
-2.27614
-2.27474
-2.27357
-2.27255
-2.2716
-2.27062
-2.26947
-2.2681
-2.26659
-2.26522
-2.26435
-2.26429
-2.26537
-2.26812
-2.27325
-2.28154
-2.29371
-2.31038
-2.33202
-2.35907
-2.39149
-2.42968
-2.38068
-2.37904
-2.37706
-2.3752
-2.37359
-2.37219
-2.37097
-2.36988
-2.36889
-2.36796
-2.36702
-2.36601
-2.36488
-2.36355
-2.36196
-2.36006
-2.35781
-2.35522
-2.35233
-2.34934
)
;

boundaryField
{
    leftWall
    {
        type            calculated;
        value           nonuniform List<scalar> 
44
(
798.221
752.459
707.645
663.525
619.707
575.946
532.088
488.031
443.706
399.067
353.707
307.459
260.661
213.623
166.89
121.218
77.3221
36.4122
7.51557
-1.05853
-1.12307
-1.17889
-1.2229
-1.26754
-1.31406
-1.3613
-1.40962
-1.45917
-1.50988
-1.56169
-1.61454
-1.66838
-1.72317
-1.77889
-1.83551
-1.89299
-1.95128
-2.01035
-2.07018
-2.13077
-2.19212
-2.25423
-2.31709
-2.38068
)
;
    }
    rightWall
    {
        type            calculated;
        value           nonuniform 0();
    }
    lowerWall
    {
        type            calculated;
        value           nonuniform List<scalar> 
44
(
821.764
819.411
815.801
810.975
805.283
798.886
791.917
784.491
776.722
768.726
760.614
752.492
744.455
736.582
728.938
721.564
714.487
707.716
701.241
695.035
689.056
683.281
677.73
672.374
667.164
662.063
657.037
652.05
647.059
642.006
636.757
631.011
625.856
621.184
616.006
610.632
605.371
600.515
595.993
591.86
588.785
586.739
584.367
582.134
)
;
    }
    atmosphere
    {
        type            calculated;
        value           nonuniform 0();
    }
    defaultFaces
    {
        type            empty;
    }
    procBoundary0to1
    {
        type            processor;
        value           nonuniform List<scalar> 
44
(
556.986
509.189
462.315
414.805
366.316
316.895
266.612
215.581
162.746
103.058
32.3683
10.1773
11.9801
12.8342
12.8136
12.5672
8.20721
3.0879
2.58358
8.27276
8.27276
21.314
24.8262
26.9257
28.145
27.1235
25.8509
24.7935
21.6648
16.3945
9.31038
0.337836
-10.8998
-24.6956
-38.4297
-39.9894
-23.2645
-7.78907
-3.23681
-2.39329
-2.25327
-2.34448
-2.41809
-2.47285
)
;
    }
    procBoundary0to2
    {
        type            processor;
        value           nonuniform List<scalar> 
46
(
-2.34646
-2.34391
-2.3418
-2.34018
-2.33901
-2.33816
-2.33747
-2.33685
-2.33626
-2.3357
-2.3352
-2.33479
-2.33465
-2.33507
-2.33639
-2.33895
-2.34313
-2.34938
-2.35827
-2.37039
-2.38621
-2.406
-2.42973
-2.45778
-2.49002
-2.44497
-2.44346
-2.44163
-2.4399
-2.43841
-2.43711
-2.43597
-2.43495
-2.43403
-2.43315
-2.43227
-2.43134
-2.43027
-2.42902
-2.42749
-2.42565
-2.42342
-2.42081
-2.41787
-2.34646
-2.41479
)
;
    }
}


// ************************************************************************* //
