/*--------------------------------*- C++ -*----------------------------------*\
| =========                 |                                                 |
| \\      /  F ield         | OpenFOAM: The Open Source CFD Toolbox           |
|  \\    /   O peration     | Version:  5.0                                   |
|   \\  /    A nd           | Web:      www.OpenFOAM.org                      |
|    \\/     M anipulation  |                                                 |
\*---------------------------------------------------------------------------*/
FoamFile
{
    version     2.0;
    format      ascii;
    class       volScalarField;
    location    "1";
    object      p_rgh;
}
// * * * * * * * * * * * * * * * * * * * * * * * * * * * * * * * * * * * * * //

dimensions      [1 -1 -2 0 0 0 0];

internalField   nonuniform List<scalar> 
1935
(
821.764
819.411
815.801
810.975
805.283
798.886
791.917
784.491
776.722
768.726
760.614
752.492
744.455
736.582
728.938
721.564
714.487
707.716
701.241
695.035
689.056
683.281
677.73
672.374
667.164
662.063
657.037
652.05
647.059
642.006
636.757
631.011
625.856
621.184
616.006
610.632
605.371
600.515
595.993
591.86
588.785
586.739
584.367
582.134
823.089
820.792
817.51
812.928
807.398
801.1
794.165
786.713
778.868
770.754
762.491
754.195
745.966
737.887
730.025
722.424
715.111
708.094
701.366
694.906
688.677
682.674
676.87
671.227
665.711
660.281
654.896
649.515
644.1
638.588
633.022
627.721
622.219
616.077
610.296
604.379
598.736
594.211
590.281
587.279
584.931
582.574
581.445
580.511
825.363
822.589
819.29
814.918
809.562
803.366
796.469
789
781.091
772.875
764.481
756.03
747.625
739.351
731.276
723.444
715.882
708.601
701.596
694.851
688.348
682.04
675.923
669.959
664.107
658.32
652.549
646.748
640.874
634.911
628.894
622.86
616.623
610.142
603.971
598.424
593.581
589.02
585.223
583.104
581.729
580.398
579.738
579.733
828.33
824.789
821.052
816.662
811.355
805.181
798.271
790.754
782.768
774.45
765.935
757.344
748.785
740.343
732.085
724.058
716.29
708.793
701.566
694.597
687.867
681.342
674.995
668.791
662.69
656.645
650.602
644.511
638.323
632.003
625.548
618.97
612.217
605.353
598.787
592.853
587.76
583.585
580.483
578.444
577.434
577.221
577.742
578.859
831.599
827.265
822.836
818.196
812.792
806.546
799.559
791.956
783.873
775.449
766.819
758.106
749.419
740.844
732.448
724.279
716.364
708.719
701.342
694.224
687.344
680.671
674.175
667.822
661.571
655.374
649.178
642.922
636.543
629.979
623.182
616.137
608.854
601.47
594.355
587.903
582.43
578.076
574.963
573.23
572.993
573.714
575.088
576.941
834.925
829.832
824.609
819.57
813.964
807.569
800.451
792.727
784.527
775.99
767.25
758.429
749.635
740.957
732.461
724.194
716.185
708.447
700.98
693.771
686.799
680.035
673.45
667.014
660.684
654.412
648.141
641.8
635.3
628.539
621.413
613.862
605.929
597.809
589.888
582.65
576.561
571.819
568.524
567.004
567.655
569.305
571.332
573.714
838.153
832.346
826.305
820.786
814.905
808.308
801.019
793.143
784.809
776.151
767.302
758.383
749.502
740.747
732.185
723.86
715.8
708.018
700.508
693.256
686.235
679.421
672.793
666.321
659.964
653.672
647.382
641.011
634.439
627.507
620.031
611.888
603.136
593.976
584.762
576.154
569.016
563.633
559.967
558.686
560.881
563.859
566.434
569.145
841.184
834.706
827.871
821.834
815.636
808.797
801.305
793.254
784.769
775.985
767.03
758.025
749.075
740.268
731.668
723.32
715.25
707.465
699.954
692.693
685.654
678.82
672.181
665.709
659.364
653.093
646.833
640.485
633.895
626.832
618.996
610.16
600.317
589.498
578.068
567.412
559.206
553.259
548.754
547.173
551.988
557.362
560.472
563.097
843.945
836.849
829.277
822.724
816.185
809.079
801.36
793.114
784.466
775.55
766.492
757.41
748.408
739.571
730.96
722.619
714.572
706.822
699.346
692.103
685.063
678.225
671.596
665.154
658.852
652.637
646.448
640.182
633.651
626.542
618.381
608.682
597.204
583.977
570.479
559.973
549.433
539.623
530.628
529.242
542.826
550.801
553.812
554.911
846.393
838.748
830.529
823.488
816.602
809.213
801.248
792.789
783.965
774.91
765.75
756.599
747.556
738.706
730.105
721.794
713.799
706.119
698.71
691.505
684.466
677.627
671.022
664.633
658.4
652.267
646.188
640.078
633.738
626.791
618.425
607.561
594.145
580.21
544.437
450.201
375.406
346.522
329.601
337.104
516.187
548.439
547.784
543.592
848.542
840.436
831.689
824.203
816.966
809.277
801.042
792.346
783.327
774.122
764.855
755.636
746.561
737.71
729.134
720.87
712.951
705.375
698.068
690.908
683.852
676.996
670.417
664.094
657.943
651.903
645.972
640.142
634.291
628
619.738
607.694
592.598
492.347
300.622
220.178
225.828
223.407
214.292
206.365
330.686
503.942
503.888
497.515
850.448
841.997
832.874
824.996
817.399
809.379
800.842
791.878
782.642
773.278
763.902
754.617
745.517
736.674
728.127
719.911
712.079
704.636
697.456
690.328
683.192
676.263
669.696
663.456
657.399
651.445
645.694
640.337
635.444
630.424
622.223
594.029
416.735
202.569
190.551
195.974
215.553
222.588
210.978
207.893
170.983
162.161
145.071
133.765
852.251
843.613
834.303
826.075
818.095
809.707
800.833
791.585
782.135
772.628
763.153
753.797
744.65
735.783
727.22
718.994
711.218
703.944
696.964
689.865
682.537
675.468
668.983
662.989
657.153
651.267
645.547
639.473
626.163
593.903
499.514
282.847
130.129
151.087
179.921
277.805
275.793
271.007
264.939
248.306
90.8387
18.8148
14.6368
13.8942
854.264
845.634
836.336
827.775
819.391
810.616
801.381
791.801
782.085
772.371
762.698
753.135
743.726
734.647
725.896
717.489
709.754
702.939
696.66
687.719
670.683
647.76
620.813
590.528
552.08
499.968
435.558
360.523
273.129
171.813
71.7365
36.1489
72.7302
200.018
261.067
265.637
275.168
256.566
172.358
199.806
53.2525
15.4434
14.3591
14.0861
857.039
848.608
839.495
830.575
821.709
812.387
802.464
791.867
781.092
770.362
759.746
749.524
720.834
683.928
639.909
586.423
533.323
489.377
445.429
378.97
288.813
212.322
158.857
118.5
81.0179
44.0941
13.3757
-0.110212
-0.121609
0.177388
2.39869
9.75273
125.18
237.981
254.028
261.317
222.994
143.324
126.104
98.0194
25.3949
14.7989
14.4229
14.3727
861.334
853.127
844.255
834.479
824.068
812.674
793.815
731.675
651.339
553.1
442.799
330.267
243.876
175.269
117.472
70.5434
36.5351
14.0703
2.39008
-0.07147
-0.077004
-0.0820212
-0.0889974
-0.0973588
-0.10641
-0.0984636
-0.0469699
-0.0484769
-0.0621235
0.0564229
0.75793
13.3447
86.088
97.8261
79.0722
85.6905
119.252
181.195
196.701
148.253
18.2803
14.8171
14.7166
14.4924
867.869
859.263
849.693
798.203
682.994
523.793
345.463
206.324
107.593
45.5183
13.3729
2.22685
0.658976
0.305967
0.106954
0.000486822
-0.0460117
-0.0656335
-0.0709889
-0.0694659
-0.0661233
-0.0642746
-0.064188
-0.0656328
-0.068033
-0.0667615
-0.0554611
-0.0505999
-0.0439196
0.0863959
6.9228
17.6066
6.82176
2.33744
10.8169
72.5993
193.336
197.808
193.359
55.4571
15.811
15.0149
14.9357
16.1597
838.456
741.311
548.591
304.715
128.638
36.7196
6.20745
2.32562
1.17008
0.539866
0.208713
0.0449405
-0.0306709
-0.0639017
-0.0762431
-0.079765
-0.0786454
-0.0760909
-0.0723986
-0.0684773
-0.0650654
-0.0627874
-0.0616707
-0.0615562
-0.0618307
-0.0606471
-0.0565903
-0.0534153
-0.0293839
0.983166
1.63377
0.418652
0.234695
0.679634
2.03873
94.565
190.733
201.421
189.146
17.3059
15.9182
15.2936
15.7012
31.9585
297.02
155.549
42.8297
5.48636
2.61447
1.26795
0.616941
0.262195
0.071957
-0.0207215
-0.0602417
-0.0716708
-0.0766083
-0.0791808
-0.0794238
-0.077998
-0.0756917
-0.0729244
-0.0696407
-0.0661494
-0.0627497
-0.0599326
-0.0579554
-0.056883
-0.0563777
-0.0553708
-0.0532338
-0.05083
0.168971
0.405436
0.104602
0.0501992
0.169132
0.268513
0.379736
1.78599
75.9224
202.248
179.24
49.4558
15.9683
15.7244
18.5487
165.306
-0.171499
1.76195
1.58093
0.842038
0.362013
0.120937
0.0217272
-0.0320728
-0.0597858
-0.0718241
-0.0753962
-0.0750157
-0.0754243
-0.0759817
-0.0757856
-0.0747184
-0.072899
-0.0703604
-0.0670443
-0.0631991
-0.0592329
-0.055662
-0.0528678
-0.0511125
-0.0504512
-0.0503118
-0.0502897
-0.0026956
0.107466
0.0270212
-0.0257459
0.0222258
0.0974687
0.160454
0.196426
0.835688
11.5123
195.485
182.184
132.201
14.5385
17.0831
30.0467
437.164
-0.135616
0.152735
0.1515
0.0482772
-0.023826
-0.0570536
-0.0662525
-0.0704127
-0.0726394
-0.073599
-0.0741691
-0.0744253
-0.0748227
-0.0749146
-0.0743739
-0.0730695
-0.0709571
-0.0680203
-0.0642854
-0.0600073
-0.0556042
-0.051578
-0.0483915
-0.0464403
-0.0460303
-0.0471375
-0.0435273
-0.0260469
-0.0446454
-0.0654699
-0.0501255
-0.0226661
0.0192103
0.0556457
0.0572513
0.287988
3.85575
104.898
177.669
144.545
10.8403
20.0656
101.699
757.268
974.031
-0.129896
-0.0740291
-0.0756749
-0.0844115
-0.0868108
-0.0845894
-0.0805266
-0.0776407
-0.0757662
-0.0746753
-0.0741743
-0.0738662
-0.0736311
-0.0731946
-0.0722836
-0.0706909
-0.0683051
-0.0650978
-0.0611464
-0.0567072
-0.0521805
-0.0480676
-0.0449032
-0.0431949
-0.0433426
-0.0455112
-0.0479303
-0.0562611
-0.0684618
-0.0726856
-0.0697831
-0.0610199
-0.0467694
-0.0383948
-0.0504019
-0.030346
0.8039
80.4378
180.242
125.544
8.34352
25.9331
274.273
1009.38
1034.93
-0.119901
-0.11362
-0.107003
-0.102289
-0.0952423
-0.0884861
-0.0826911
-0.0784494
-0.0755408
-0.0736564
-0.0724614
-0.0716319
-0.0709897
-0.0702557
-0.0691376
-0.067406
-0.0649238
-0.0616657
-0.0577353
-0.0533877
-0.0490144
-0.0451211
-0.0422854
-0.0410878
-0.0420077
-0.0454434
-0.0518668
-0.0614296
-0.0722746
-0.081551
-0.088336
-0.093356
-0.0981423
-0.108574
-0.12547
-0.11894
0.118274
44.4783
186.519
141.155
7.86137
43.5645
549.403
1118.33
1103.21
-0.110641
-0.110073
-0.104636
-0.0990525
-0.0920568
-0.0855234
-0.0800061
-0.0758072
-0.0728016
-0.0707317
-0.0693224
-0.0683169
-0.0675007
-0.0666121
-0.0653873
-0.0636062
-0.0611343
-0.0579574
-0.0541995
-0.0501248
-0.0461168
-0.0426667
-0.0403535
-0.0397764
-0.0414593
-0.0458204
-0.0532408
-0.0637777
-0.0764997
-0.0900196
-0.103714
-0.11797
-0.134401
-0.156248
-0.180798
-0.192395
-0.180958
14.6254
140.719
135.75
14.3957
128.804
837.442
1184.05
1168.03
-0.102844
-0.100988
-0.0965373
-0.0914367
-0.0855859
-0.0801007
-0.0754261
-0.0717445
-0.0689938
-0.0670095
-0.0655876
-0.0645198
-0.0636043
-0.0626161
-0.0613254
-0.0595365
-0.0571319
-0.0541151
-0.0506298
-0.0469505
-0.0434506
-0.0405882
-0.0388994
-0.0389485
-0.0412592
-0.0462632
-0.0543018
-0.0655238
-0.0795686
-0.0957052
-0.11347
-0.133066
-0.156065
-0.186027
-0.225989
-0.273737
-0.334229
-0.435266
5.16522
92.1843
55.8091
277.077
1061.63
1241.14
1232.36
-0.0952789
-0.0926154
-0.0883992
-0.0837222
-0.0788557
-0.074342
-0.0704531
-0.0672992
-0.0648532
-0.0630069
-0.0616118
-0.0605044
-0.0595124
-0.0584452
-0.0571078
-0.0553337
-0.0530306
-0.0502234
-0.0470734
-0.0438603
-0.0409431
-0.0387347
-0.0376915
-0.0382995
-0.041039
-0.0463352
-0.0545454
-0.0658772
-0.0802216
-0.0971334
-0.116182
-0.137447
-0.162422
-0.19517
-0.24295
-0.315772
-0.413151
-0.513782
1.37387
4.03136
87.0245
483.674
1219.56
1292.17
1287.24
-0.088284
-0.0852114
-0.0811449
-0.0768599
-0.0726924
-0.0688868
-0.0655872
-0.062855
-0.0606674
-0.0589451
-0.0575766
-0.0564332
-0.0553715
-0.054233
-0.0528559
-0.0511061
-0.0489203
-0.0463469
-0.043561
-0.0408409
-0.0385219
-0.0369588
-0.0365132
-0.0375597
-0.0404903
-0.0457058
-0.053574
-0.0643232
-0.0778955
-0.0938827
-0.111748
-0.131367
-0.153967
-0.183389
-0.227803
-0.299805
-0.40298
-0.49632
-0.75552
-3.59328
98.2708
717.19
1321.73
1340.63
1341.91
-0.0820059
-0.0786977
-0.074788
-0.0708484
-0.0671744
-0.0638685
-0.060995
-0.0585782
-0.0565899
-0.0549644
-0.0536127
-0.0524302
-0.0512985
-0.0500872
-0.0486672
-0.0469381
-0.044868
-0.0425288
-0.0401052
-0.0378667
-0.0361142
-0.0351336
-0.0351822
-0.0365094
-0.0393958
-0.044181
-0.0512178
-0.0607232
-0.0725877
-0.0862782
-0.101029
-0.116375
-0.132919
-0.153355
-0.183806
-0.233101
-0.303531
-0.351375
-0.461194
-0.345363
97.9095
863.484
1378.68
1389.21
1393.96
-0.0763655
-0.0729896
-0.0692244
-0.065558
-0.0622388
-0.0592921
-0.0567296
-0.054548
-0.0527114
-0.0511588
-0.0498133
-0.0485858
-0.0473777
-0.0460845
-0.0446083
-0.0428838
-0.0409113
-0.0387849
-0.0366947
-0.0348947
-0.033643
-0.03315
-0.0335645
-0.0350082
-0.0376419
-0.0417196
-0.0475452
-0.0552905
-0.0647492
-0.0752107
-0.0856471
-0.0952061
-0.103746
-0.112477
-0.12457
-0.144264
-0.169413
-0.178283
-0.0582976
1.79519
128.398
930.056
1419.38
1438.52
1444.64
-0.0713089
-0.0679555
-0.064313
-0.0608596
-0.0578069
-0.0551301
-0.0528046
-0.0508058
-0.0490887
-0.0475914
-0.0462413
-0.0449596
-0.0436638
-0.042273
-0.0407202
-0.0389746
-0.0370681
-0.035115
-0.0333084
-0.0318815
-0.0310447
-0.0309302
-0.031581
-0.0329966
-0.0352231
-0.0384218
-0.0428245
-0.0485285
-0.0552176
-0.0620252
-0.0677361
-0.0712375
-0.0718439
-0.0696544
-0.0655714
-0.0608519
-0.0520108
-0.00855693
0.26197
2.12352
91.1287
890.278
1441.47
1487.45
1494.32
-0.0667653
-0.0634718
-0.0599397
-0.0566652
-0.0538278
-0.0513671
-0.0492324
-0.0473815
-0.0457595
-0.0443001
-0.0429321
-0.0415838
-0.0401866
-0.0386815
-0.0370304
-0.035235
-0.0333569
-0.0315287
-0.0299437
-0.0288117
-0.0282937
-0.0284464
-0.0292145
-0.0304891
-0.0322144
-0.0344651
-0.0373965
-0.0410219
-0.0449213
-0.0481246
-0.0493479
-0.0474136
-0.0414327
-0.0308967
-0.015566
0.00494872
0.0344609
0.101139
0.384431
1.65954
30.4193
734.4
1432.83
1535.86
1542.72
-0.0626715
-0.0594641
-0.0560465
-0.0529354
-0.050282
-0.0480004
-0.0460209
-0.044287
-0.0427345
-0.0412929
-0.0398918
-0.0384653
-0.0369572
-0.0353275
-0.0335639
-0.0316968
-0.0298135
-0.0280621
-0.0266337
-0.0257141
-0.0254174
-0.0257317
-0.0265142
-0.0275635
-0.0287407
-0.0300508
-0.031586
-0.0332877
-0.0346561
-0.0346745
-0.0320919
-0.0258247
-0.0150572
0.000852412
0.0223644
0.0503601
0.0877704
0.154536
0.353264
1.13815
5.5791
474.344
1311.87
1584.44
1589.15
-0.0589927
-0.055898
-0.0526068
-0.0496482
-0.0471514
-0.0450141
-0.0431534
-0.0415028
-0.039992
-0.038548
-0.0371018
-0.0355929
-0.0339751
-0.0322245
-0.0303494
-0.0284034
-0.0264934
-0.0247784
-0.0234456
-0.0226591
-0.0224916
-0.0228704
-0.0235795
-0.0243435
-0.0249588
-0.0253803
-0.0256611
-0.0257039
-0.0249754
-0.0224666
-0.0170161
-0.0077133
0.00605149
0.0247543
0.0486432
0.078203
0.115669
0.168783
0.281315
0.664549
2.91516
186.136
903.848
1544.83
1634.66
-0.0557028
-0.0527434
-0.0495859
-0.0467639
-0.0443927
-0.0423618
-0.0405818
-0.038981
-0.0374867
-0.0360262
-0.0345323
-0.0329494
-0.031239
-0.0293883
-0.0274206
-0.0254044
-0.0234596
-0.0217518
-0.0204635
-0.0197388
-0.0196148
-0.0199704
-0.0205341
-0.0209748
-0.0210388
-0.0206483
-0.0198428
-0.0185288
-0.0161975
-0.0119059
-0.00461831
0.00640368
0.0215636
0.0410818
0.0648987
0.0929472
0.126554
0.168656
0.229318
0.388612
1.27401
43.9358
385.831
1064.58
1622.7
-0.052766
-0.0499534
-0.0469259
-0.0442172
-0.0419379
-0.0399766
-0.0382432
-0.0366658
-0.0351725
-0.0336925
-0.0321615
-0.030527
-0.0287553
-0.0268399
-0.0248113
-0.0227459
-0.0207702
-0.0190516
-0.0177651
-0.017037
-0.0168774
-0.0171323
-0.0174938
-0.0175914
-0.0171384
-0.0160384
-0.0143323
-0.0119612
-0.00849987
-0.00313175
0.00502614
0.0165626
0.0317404
0.0506128
0.072863
0.0979719
0.126377
0.15928
0.19709
0.261424
0.552553
5.97961
137.826
416.72
1011.75
-0.0501343
-0.0474663
-0.0445555
-0.0419351
-0.0397177
-0.0377973
-0.0360874
-0.0345195
-0.0330248
-0.0315355
-0.0299897
-0.0283367
-0.0265437
-0.0246052
-0.0225531
-0.0204655
-0.0184689
-0.0167265
-0.0154035
-0.0146117
-0.0143436
-0.0144263
-0.0145352
-0.0142848
-0.0133746
-0.0116983
-0.00930485
-0.00618674
-0.00202837
0.00381512
0.0120459
0.0231174
0.0372171
0.0543412
0.0740599
0.0955291
0.118482
0.143276
0.168703
0.197467
0.282657
0.733739
14.9283
135.991
343.913
-0.0477572
-0.0452229
-0.042413
-0.0398611
-0.0376863
-0.0357914
-0.0340967
-0.0325387
-0.0310529
-0.0295747
-0.0280436
-0.0264083
-0.0246341
-0.022713
-0.0206733
-0.0185884
-0.016579
-0.0147996
-0.0134043
-0.0124921
-0.0120446
-0.0118853
-0.0116946
-0.011098
-0.00980481
-0.00771584
-0.00489027
-0.00136301
0.00307577
0.0088968
0.016611
0.0265353
0.0388095
0.0534389
0.0700263
0.0875683
0.105157
0.122581
0.138615
0.151794
0.17005
0.239619
0.470519
9.65199
155.179
-0.0455945
-0.0431825
-0.0404631
-0.0379708
-0.0358331
-0.0339632
-0.0322892
-0.0307534
-0.0292955
-0.0278532
-0.0263663
-0.0247817
-0.023061
-0.02119
-0.0191895
-0.0171242
-0.0151044
-0.013272
-0.0117677
-0.0106792
-0.00998449
-0.00951644
-0.00898058
-0.00804104
-0.00644614
-0.00412199
-0.00114502
0.00242445
0.00672722
0.0121085
0.0189144
0.0273221
0.0374125
0.049221
0.0624309
0.0760543
0.0887901
0.0997907
0.108099
0.111528
0.109135
0.101742
0.105772
0.270905
14.5511
-0.0436234
-0.0413277
-0.0386988
-0.0362702
-0.0341773
-0.032344
-0.0307062
-0.0292113
-0.0278026
-0.0264197
-0.0250021
-0.0234938
-0.0218511
-0.020052
-0.0181072
-0.0160693
-0.0140336
-0.0121259
-0.0104723
-0.00915245
-0.00814809
-0.00731345
-0.00639957
-0.00513127
-0.00331806
-0.000934069
0.00191849
0.00517618
0.0089629
0.0135712
0.0192497
0.0260544
0.0339621
0.0429903
0.0529156
0.0628552
0.0714092
0.0772989
0.0795439
0.0765526
0.0661527
0.0481896
0.0296738
0.0423197
0.120957
-0.0418358
-0.0396583
-0.0371299
-0.0347797
-0.0327488
-0.0309709
-0.0293889
-0.0279546
-0.0266144
-0.0253095
-0.0239787
-0.0225633
-0.0210139
-0.0192994
-0.0174183
-0.0154074
-0.013343
-0.011332
-0.00948617
-0.00788038
-0.00650962
-0.00526798
-0.00397027
-0.00241589
-0.00048955
0.00178211
0.00427982
0.0069541
0.00995734
0.0135981
0.0180953
0.0234073
0.0293651
0.0358802
0.0427806
0.0493591
0.0543153
0.0562586
0.0540679
0.0466219
0.0324142
0.0100726
-0.0177805
-0.0440581
-0.0740001
-0.0402297
-0.0381779
-0.0357668
-0.0335155
-0.0315675
-0.0298655
-0.0283583
-0.0270014
-0.0257441
-0.0245292
-0.0232957
-0.0219828
-0.0205352
-0.0189121
-0.0170977
-0.0151095
-0.013001
-0.0108567
-0.00877265
-0.00682417
-0.00503422
-0.00336997
-0.00172664
1.26936e-05
0.00190356
0.00389535
0.00588963
0.00787322
0.0100366
0.0127058
0.0160884
0.0200731
0.0243477
0.028676
0.0328738
0.0364253
0.0382833
0.0371706
0.0319691
0.0217124
0.00545115
-0.0179526
-0.0492158
-0.0869398
-0.133681
-0.0387996
-0.0368822
-0.0346057
-0.0324735
-0.0306283
-0.0290201
-0.0276023
-0.0263344
-0.0251688
-0.0240508
-0.0229198
-0.021714
-0.0203734
-0.0188473
-0.0171033
-0.0151364
-0.0129729
-0.0106686
-0.00830111
-0.00595372
-0.00372121
-0.00165727
0.000242035
0.00201846
0.00370445
0.00528956
0.00675338
0.00813473
0.00961237
0.0114496
0.0137993
0.0165304
0.0192886
0.0217392
0.0236385
0.0245937
0.0238529
0.0204136
0.0132841
0.00160883
-0.0153513
-0.0382815
-0.0679905
-0.1052
-0.150344
-0.0375303
-0.0357519
-0.0336215
-0.0316232
-0.029895
-0.0283918
-0.0270713
-0.025897
-0.0248254
-0.0238044
-0.0227755
-0.0216771
-0.0204457
-0.0190211
-0.0173542
-0.015414
-0.0131959
-0.010725
-0.00805747
-0.00531783
-0.00269748
-0.000324517
0.00171984
0.00342052
0.00481864
0.00598725
0.00700639
0.00795691
0.00894206
0.0100866
0.0114619
0.0129734
0.0143388
0.0152073
0.0152683
0.0141831
0.0114339
0.00630816
-0.00197876
-0.0141524
-0.0308208
-0.0524628
-0.0795083
-0.111926
-0.150113
-0.0363966
-0.0347553
-0.0327733
-0.0309132
-0.0293063
-0.0279102
-0.0266851
-0.0255982
-0.0246107
-0.0236747
-0.0227349
-0.0217305
-0.020597
-0.0192682
-0.0176799
-0.0157781
-0.0135304
-0.0109329
-0.00805174
-0.00506161
)
;

boundaryField
{
    leftWall
    {
        type            fixedFluxPressure;
        gradient        uniform 0;
        value           nonuniform List<scalar> 
44
(
821.764
823.089
825.363
828.33
831.599
834.925
838.153
841.184
843.945
846.393
848.542
850.448
852.251
854.264
857.039
861.334
867.869
838.456
297.02
-0.171499
-0.135616
-0.129896
-0.119901
-0.110641
-0.102844
-0.0952789
-0.088284
-0.0820059
-0.0763655
-0.0713089
-0.0667653
-0.0626715
-0.0589927
-0.0557028
-0.052766
-0.0501343
-0.0477572
-0.0455945
-0.0436234
-0.0418358
-0.0402297
-0.0387996
-0.0375303
-0.0363966
)
;
    }
    rightWall
    {
        type            fixedFluxPressure;
        gradient        nonuniform 0();
        value           nonuniform 0();
    }
    lowerWall
    {
        type            fixedFluxPressure;
        gradient        uniform 0;
        value           nonuniform List<scalar> 
44
(
821.764
819.411
815.801
810.975
805.283
798.886
791.917
784.491
776.722
768.726
760.614
752.492
744.455
736.582
728.938
721.564
714.487
707.716
701.241
695.035
689.056
683.281
677.73
672.374
667.164
662.063
657.037
652.05
647.059
642.006
636.757
631.011
625.856
621.184
616.006
610.632
605.371
600.515
595.993
591.86
588.785
586.739
584.367
582.134
)
;
    }
    atmosphere
    {
        type            totalPressure;
        rho             rho;
        psi             none;
        gamma           1;
        p0              nonuniform 0();
        value           nonuniform 0();
    }
    defaultFaces
    {
        type            empty;
    }
    procBoundary0to1
    {
        type            processor;
        value           nonuniform List<scalar> 
44
(
580.53
579.82
580.032
579.61
578.207
575.874
572.677
568.733
562.986
550.384
510.975
171.588
12.5838
13.4881
13.5224
15.415
146.39
426.809
797.719
914.054
914.054
977.106
1005.68
968.08
996.707
1124.05
1278.01
1344.43
1398.24
1449.63
1499.52
1547.97
1594.67
1639.34
1684.6
1601.93
846.688
332.193
52.0187
0.0712083
-0.136217
-0.190583
-0.202532
-0.193282
)
;
    }
    procBoundary0to2
    {
        type            processor;
        value           nonuniform List<scalar> 
46
(
-0.00217616
0.000377773
0.00248215
0.00409938
0.00527084
0.0061254
0.00681455
0.00743708
0.00802543
0.00857821
0.00908532
0.00949305
0.00963409
0.00921592
0.00789495
0.00533102
0.0011529
-0.00510061
-0.0139909
-0.026109
-0.0419325
-0.0617174
-0.0854515
-0.113494
-0.145736
-0.0353662
-0.0338566
-0.0320215
-0.0302964
-0.0288027
-0.0275024
-0.0263601
-0.0253451
-0.0244209
-0.0235443
-0.0226655
-0.0217275
-0.0206648
-0.0194078
-0.0178868
-0.0160382
-0.0138142
-0.0112018
-0.00826455
-0.00217616
-0.00518397
)
;
    }
}


// ************************************************************************* //
