/*--------------------------------*- C++ -*----------------------------------*\
| =========                 |                                                 |
| \\      /  F ield         | OpenFOAM: The Open Source CFD Toolbox           |
|  \\    /   O peration     | Version:  5.0                                   |
|   \\  /    A nd           | Web:      www.OpenFOAM.org                      |
|    \\/     M anipulation  |                                                 |
\*---------------------------------------------------------------------------*/
FoamFile
{
    version     2.0;
    format      ascii;
    class       surfaceScalarField;
    location    "1";
    object      phi;
}
// * * * * * * * * * * * * * * * * * * * * * * * * * * * * * * * * * * * * * //

dimensions      [0 3 -1 0 0 0 0];

internalField   nonuniform List<scalar> 
3781
(
4.51106e-07
-4.51106e-07
-4.41661e-07
8.92767e-07
-1.74155e-06
1.29989e-06
-3.14277e-06
1.40122e-06
-4.58291e-06
1.44014e-06
-6.03454e-06
1.45163e-06
-7.47805e-06
1.44352e-06
-8.89428e-06
1.41622e-06
-1.0264e-05
1.36972e-06
-1.15689e-05
1.30495e-06
-1.27928e-05
1.22387e-06
-1.3922e-05
1.12917e-06
-1.49458e-05
1.02378e-06
-1.58563e-05
9.10565e-07
-1.66484e-05
7.92079e-07
-1.73189e-05
6.70489e-07
-1.78665e-05
5.47631e-07
-1.82916e-05
4.2502e-07
-1.85949e-05
3.03371e-07
-1.87768e-05
1.81928e-07
-1.88333e-05
5.64069e-08
-1.87624e-05
-7.0887e-08
-1.8583e-05
-1.79349e-07
-1.83095e-05
-2.73518e-07
-1.79487e-05
-3.60795e-07
-1.75019e-05
-4.46825e-07
-1.69658e-05
-5.3605e-07
-1.63343e-05
-6.31571e-07
-1.56009e-05
-7.33313e-07
-1.47647e-05
-8.36206e-07
-1.38326e-05
-9.32143e-07
-1.28474e-05
-9.85189e-07
-1.18055e-05
-1.04188e-06
-1.06009e-05
-1.20458e-06
-9.32131e-06
-1.27964e-06
-8.03512e-06
-1.28619e-06
-6.78195e-06
-1.25316e-06
-5.55138e-06
-1.23057e-06
-4.36662e-06
-1.18476e-06
-3.27249e-06
-1.09413e-06
-2.2343e-06
-1.03819e-06
-1.15404e-06
-1.08026e-06
-1.27263e-07
-1.02678e-06
-9.31645e-07
-6.27661e-07
1.76556e-07
-1.76715e-06
2.03225e-06
-3.21136e-06
2.7441e-06
-4.77816e-06
2.96802e-06
-6.37186e-06
3.03384e-06
-7.94462e-06
3.02439e-06
-9.46365e-06
2.96254e-06
-1.09038e-05
2.85641e-06
-1.2246e-05
2.71185e-06
-1.3476e-05
2.53498e-06
-1.45845e-05
2.33242e-06
-1.55661e-05
2.11074e-06
-1.64184e-05
1.87604e-06
-1.71413e-05
1.63354e-06
-1.77368e-05
1.38749e-06
-1.82076e-05
1.1413e-06
-1.85577e-05
8.97791e-07
-1.87921e-05
6.59352e-07
-1.89165e-05
4.27837e-07
-1.89389e-05
2.04254e-07
-1.88725e-05
-9.95207e-09
-1.87292e-05
-2.14161e-07
-1.85063e-05
-4.02281e-07
-1.82021e-05
-5.77667e-07
-1.78168e-05
-7.46164e-07
-1.73489e-05
-9.14659e-07
-1.67955e-05
-1.08947e-06
-1.61525e-05
-1.27458e-06
-1.54167e-05
-1.46914e-06
-1.45874e-05
-1.66553e-06
-1.36715e-05
-1.848e-06
-1.26529e-05
-2.00374e-06
-1.15337e-05
-2.16111e-06
-1.04004e-05
-2.33786e-06
-9.2285e-06
-2.45158e-06
-8.03485e-06
-2.47985e-06
-6.85465e-06
-2.43336e-06
-5.7213e-06
-2.36393e-06
-4.66743e-06
-2.23863e-06
-3.66542e-06
-2.09614e-06
-2.72021e-06
-1.9834e-06
-1.90817e-06
-1.8923e-06
-1.19159e-06
-1.74336e-06
-1.50132e-06
-1.2139e-06
1.39045e-06
-2.47985e-06
3.29821e-06
-3.90778e-06
4.17203e-06
-5.44079e-06
4.50103e-06
-6.99398e-06
4.58704e-06
-8.51483e-06
4.54524e-06
-9.96946e-06
4.41716e-06
-1.1335e-05
4.22196e-06
-1.25961e-05
3.97291e-06
-1.37427e-05
3.68162e-06
-1.47691e-05
3.35886e-06
-1.56727e-05
3.01431e-06
-1.6453e-05
2.65632e-06
-1.71112e-05
2.29174e-06
-1.76497e-05
1.926e-06
-1.80718e-05
1.56338e-06
-1.83815e-05
1.20748e-06
-1.85837e-05
8.61588e-07
-1.86845e-05
5.28673e-07
-1.86914e-05
2.11154e-07
-1.86122e-05
-8.92182e-08
-1.84544e-05
-3.71976e-07
-1.82189e-05
-6.37723e-07
-1.7906e-05
-8.90583e-07
-1.75148e-05
-1.13733e-06
-1.70432e-05
-1.38633e-06
-1.64873e-05
-1.64537e-06
-1.58429e-05
-1.91897e-06
-1.51066e-05
-2.20537e-06
-1.42774e-05
-2.49473e-06
-1.33545e-05
-2.77089e-06
-1.23372e-05
-3.02109e-06
-1.1247e-05
-3.25132e-06
-1.01271e-05
-3.45772e-06
-8.98882e-06
-3.58987e-06
-7.84466e-06
-3.62402e-06
-6.71176e-06
-3.56626e-06
-5.63741e-06
-3.43828e-06
-4.63322e-06
-3.24282e-06
-3.70547e-06
-3.02388e-06
-2.87295e-06
-2.81592e-06
-2.1837e-06
-2.58154e-06
-1.65813e-06
-2.26894e-06
-1.87138e-06
-1.50022e-06
2.89067e-06
-2.90234e-06
4.70033e-06
-4.36179e-06
5.63148e-06
-5.87876e-06
6.018e-06
-7.39655e-06
6.10482e-06
-8.86984e-06
6.01853e-06
-1.02685e-05
5.81584e-06
-1.15731e-05
5.52653e-06
-1.27712e-05
5.17098e-06
-1.38553e-05
4.76576e-06
-1.48216e-05
4.32513e-06
-1.56686e-05
3.86131e-06
-1.63967e-05
3.38448e-06
-1.70078e-05
2.90281e-06
-1.75045e-05
2.42271e-06
-1.78903e-05
1.94921e-06
-1.81694e-05
1.48657e-06
-1.83467e-05
1.03887e-06
-1.84281e-05
6.10015e-07
-1.84201e-05
2.03216e-07
-1.83294e-05
-1.79891e-07
-1.81613e-05
-5.40143e-07
-1.7918e-05
-8.80989e-07
-1.76e-05
-1.20857e-06
-1.7206e-05
-1.53135e-06
-1.6733e-05
-1.85938e-06
-1.61763e-05
-2.202e-06
-1.55309e-05
-2.56444e-06
-1.47922e-05
-2.94402e-06
-1.39585e-05
-3.32843e-06
-1.30311e-05
-3.69834e-06
-1.2016e-05
-4.03617e-06
-1.09333e-05
-4.33397e-06
-9.81402e-06
-4.57704e-06
-8.67636e-06
-4.72753e-06
-7.53752e-06
-4.76287e-06
-6.42102e-06
-4.68275e-06
-5.3628e-06
-4.49649e-06
-4.38752e-06
-4.2181e-06
-3.50928e-06
-3.90213e-06
-2.73709e-06
-3.58811e-06
-2.11328e-06
-3.20536e-06
-1.67817e-06
-2.70404e-06
-2.14611e-06
-1.65936e-06
4.55003e-06
-3.18657e-06
6.22754e-06
-4.70089e-06
7.1458e-06
-6.22172e-06
7.53883e-06
-7.71677e-06
7.59987e-06
-9.15219e-06
7.45395e-06
-1.05039e-05
7.16752e-06
-1.17563e-05
6.77896e-06
-1.29e-05
6.3147e-06
-1.39297e-05
5.79546e-06
-1.4843e-05
5.23841e-06
-1.56396e-05
4.65788e-06
-1.63207e-05
4.06557e-06
-1.68886e-05
3.47079e-06
-1.73467e-05
2.88075e-06
-1.76985e-05
2.30103e-06
-1.79483e-05
1.73639e-06
-1.8101e-05
1.19153e-06
-1.81621e-05
6.71173e-07
-1.8138e-05
1.79102e-07
-1.80346e-05
-2.83322e-07
-1.78563e-05
-7.18382e-07
-1.76057e-05
-1.13168e-06
-1.72828e-05
-1.53142e-06
-1.68862e-05
-1.92797e-06
-1.64123e-05
-2.33327e-06
-1.58558e-05
-2.75853e-06
-1.52102e-05
-3.21004e-06
-1.44699e-05
-3.68431e-06
-1.36326e-05
-4.16571e-06
-1.27012e-05
-4.62973e-06
-1.16845e-05
-5.05288e-06
-1.05991e-05
-5.41938e-06
-9.46758e-06
-5.70855e-06
-8.30954e-06
-5.88557e-06
-7.14592e-06
-5.92648e-06
-6.00332e-06
-5.82535e-06
-4.92271e-06
-5.57711e-06
-3.94374e-06
-5.19707e-06
-3.07988e-06
-4.76599e-06
-2.31835e-06
-4.34964e-06
-1.70344e-06
-3.82026e-06
-1.30107e-06
-3.10641e-06
-2.34699e-06
-1.76851e-06
6.31854e-06
-3.40137e-06
7.8604e-06
-4.97202e-06
8.71645e-06
-6.50465e-06
9.07146e-06
-7.98417e-06
9.07938e-06
-9.38802e-06
8.8578e-06
-1.06986e-05
8.47814e-06
-1.19046e-05
7.98492e-06
-1.29992e-05
7.40934e-06
-1.39792e-05
6.77546e-06
-1.48437e-05
6.10283e-06
-1.55933e-05
5.40748e-06
-1.62301e-05
4.70241e-06
-1.67572e-05
3.99791e-06
-1.71783e-05
3.30178e-06
-1.74972e-05
2.61995e-06
-1.77182e-05
1.95739e-06
-1.78459e-05
1.31926e-06
-1.78858e-05
7.11097e-07
-1.78441e-05
1.37352e-07
-1.77265e-05
-4.00916e-07
-1.75373e-05
-9.07567e-07
-1.72786e-05
-1.39035e-06
-1.69506e-05
-1.85942e-06
-1.65518e-05
-2.32686e-06
-1.60785e-05
-2.80656e-06
-1.5525e-05
-3.31203e-06
-1.48837e-05
-3.85129e-06
-1.41476e-05
-4.42039e-06
-1.33136e-05
-4.99969e-06
-1.23853e-05
-5.55803e-06
-1.13718e-05
-6.06647e-06
-1.02839e-05
-6.50725e-06
-9.1347e-06
-6.85774e-06
-7.94019e-06
-7.08008e-06
-6.72242e-06
-7.14425e-06
-5.51106e-06
-7.03671e-06
-4.36e-06
-6.72817e-06
-3.33301e-06
-6.22406e-06
-2.44621e-06
-5.65278e-06
-1.65073e-06
-5.14513e-06
-9.97371e-07
-4.47362e-06
-5.91145e-07
-3.51264e-06
-2.47274e-06
-1.85784e-06
8.17638e-06
-3.57682e-06
9.57938e-06
-5.19581e-06
1.03354e-05
-6.73981e-06
1.06155e-05
-8.20582e-06
1.05454e-05
-9.58108e-06
1.02331e-05
-1.08542e-05
9.75126e-06
-1.20176e-05
9.14832e-06
-1.30671e-05
8.45886e-06
-1.40012e-05
7.70956e-06
-1.48203e-05
6.92186e-06
-1.5526e-05
6.1132e-06
-1.61212e-05
5.29767e-06
-1.66097e-05
4.48639e-06
-1.69956e-05
3.68765e-06
-1.7283e-05
2.90737e-06
-1.7476e-05
2.15039e-06
-1.75789e-05
1.42215e-06
-1.7597e-05
7.29171e-07
-1.75366e-05
7.69603e-08
-1.74039e-05
-5.33626e-07
-1.72031e-05
-1.10832e-06
-1.69362e-05
-1.65722e-06
-1.66035e-05
-2.19215e-06
-1.6204e-05
-2.72637e-06
-1.57351e-05
-3.27544e-06
-1.51915e-05
-3.85569e-06
-1.45647e-05
-4.47807e-06
-1.38461e-05
-5.13896e-06
-1.30315e-05
-5.81431e-06
-1.21247e-05
-6.46485e-06
-1.11333e-05
-7.05785e-06
-1.00585e-05
-7.58208e-06
-8.8976e-06
-8.01861e-06
-7.65723e-06
-8.32045e-06
-6.35653e-06
-8.44495e-06
-5.02501e-06
-8.36823e-06
-3.73832e-06
-8.01486e-06
-2.60393e-06
-7.35845e-06
-1.65419e-06
-6.60252e-06
-7.82912e-07
-6.0164e-06
-5.35074e-08
-5.20302e-06
3.82743e-07
-3.94889e-06
-2.5233e-06
-1.93764e-06
1.0114e-05
-3.72404e-06
1.13658e-05
-5.3787e-06
1.19901e-05
-6.92819e-06
1.21649e-05
-8.37871e-06
1.19959e-05
-9.72573e-06
1.15801e-05
-1.09632e-05
1.09888e-05
-1.20869e-05
1.0272e-05
-1.30948e-05
9.46671e-06
-1.39866e-05
8.60144e-06
-1.47639e-05
7.69915e-06
-1.54292e-05
6.77849e-06
-1.59861e-05
5.85452e-06
-1.64388e-05
4.93912e-06
-1.67921e-05
4.04093e-06
-1.70503e-05
3.16556e-06
-1.7217e-05
2.31714e-06
-1.72961e-05
1.50117e-06
-1.72925e-05
7.25593e-07
-1.72132e-05
-2.2789e-09
-1.70653e-05
-6.81532e-07
-1.68533e-05
-1.32032e-06
-1.65791e-05
-1.93143e-06
-1.62434e-05
-2.52788e-06
-1.58469e-05
-3.12292e-06
-1.53893e-05
-3.73302e-06
-1.4867e-05
-4.37799e-06
-1.42716e-05
-5.07343e-06
-1.35929e-05
-5.81764e-06
-1.28254e-05
-6.58182e-06
-1.19738e-05
-7.31642e-06
-1.10437e-05
-7.98796e-06
-1.00196e-05
-8.60623e-06
-8.87418e-06
-9.164e-06
-7.59327e-06
-9.60136e-06
-6.17898e-06
-9.85924e-06
-4.65309e-06
-9.89413e-06
-3.13002e-06
-9.53793e-06
-1.79127e-06
-8.69719e-06
-7.2329e-07
-7.67051e-06
2.56075e-07
-6.99577e-06
1.07503e-06
-6.02197e-06
1.55381e-06
-4.42768e-06
-2.50622e-06
-2.00894e-06
1.2123e-05
-3.84308e-06
1.31999e-05
-5.51717e-06
1.36642e-05
-7.06222e-06
1.371e-05
-8.49219e-06
1.34259e-05
-9.80931e-06
1.28972e-05
-1.10119e-05
1.21914e-05
-1.20983e-05
1.13584e-05
-1.3068e-05
1.04363e-05
-1.39216e-05
9.4551e-06
-1.46614e-05
8.43898e-06
-1.52906e-05
7.40765e-06
-1.58132e-05
6.37709e-06
-1.62341e-05
5.36001e-06
-1.65585e-05
4.36539e-06
-1.6791e-05
3.39805e-06
-1.69346e-05
2.46073e-06
-1.6992e-05
1.55859e-06
-1.69681e-05
7.01693e-07
-1.68709e-05
-9.94665e-08
-1.67091e-05
-8.43419e-07
-1.64877e-05
-1.54171e-06
-1.62085e-05
-2.21056e-06
-1.58732e-05
-2.86325e-06
-1.54851e-05
-3.51095e-06
-1.50486e-05
-4.16956e-06
-1.45636e-05
-4.86301e-06
-1.4023e-05
-5.61401e-06
-1.34157e-05
-6.42489e-06
-1.27361e-05
-7.26148e-06
-1.19926e-05
-8.05985e-06
-1.11903e-05
-8.79033e-06
-1.02912e-05
-9.50525e-06
-9.22891e-06
-1.02263e-05
-7.93298e-06
-1.08973e-05
-6.35186e-06
-1.14404e-05
-4.50533e-06
-1.17407e-05
-2.5937e-06
-1.14496e-05
-8.83749e-07
-1.04071e-05
4.14013e-07
-8.96827e-06
1.49969e-06
-8.08144e-06
2.34484e-06
-6.86712e-06
2.84469e-06
-4.92753e-06
-2.46646e-06
-2.06654e-06
1.41895e-05
-3.92514e-06
1.50585e-05
-5.59878e-06
1.53378e-05
-7.12618e-06
1.52374e-05
-8.52827e-06
1.4828e-05
-9.81258e-06
1.41815e-05
-1.09806e-05
1.33594e-05
-1.20322e-05
1.241e-05
-1.29675e-05
1.13716e-05
-1.37878e-05
1.02754e-05
-1.44954e-05
9.14664e-06
-1.50939e-05
8.00613e-06
-1.55876e-05
6.87076e-06
-1.59819e-05
5.75428e-06
-1.62826e-05
4.66616e-06
-1.64946e-05
3.61003e-06
-1.66199e-05
2.58603e-06
-1.66597e-05
1.59835e-06
-1.66182e-05
6.60266e-07
-1.65054e-05
-2.12262e-07
-1.63325e-05
-1.01633e-06
-1.61055e-05
-1.7687e-06
-1.58258e-05
-2.49031e-06
-1.54957e-05
-3.19334e-06
-1.51231e-05
-3.88354e-06
-1.47189e-05
-4.57373e-06
-1.42895e-05
-5.29247e-06
-1.38311e-05
-6.0724e-06
-1.33341e-05
-6.92191e-06
-1.27958e-05
-7.79973e-06
-1.2235e-05
-8.62069e-06
-1.16645e-05
-9.36084e-06
-1.10131e-05
-1.01567e-05
-1.0145e-05
-1.10944e-05
-8.90099e-06
-1.21413e-05
-7.01189e-06
-1.33294e-05
-4.54659e-06
-1.4206e-05
-1.94606e-06
-1.40501e-05
4.12801e-07
-1.2766e-05
2.12861e-06
-1.06841e-05
3.04323e-06
-8.99606e-06
3.66182e-06
-7.48572e-06
4.08814e-06
-5.35386e-06
-2.54625e-06
-2.13595e-06
1.63254e-05
-4.02341e-06
1.6946e-05
-5.70256e-06
1.7017e-05
-7.22315e-06
1.6758e-05
-8.61292e-06
1.62177e-05
-9.88323e-06
1.54518e-05
-1.10373e-05
1.45135e-05
-1.20753e-05
1.3448e-05
-1.29972e-05
1.22935e-05
-1.3804e-05
1.10822e-05
-1.44981e-05
9.84078e-06
-1.5083e-05
8.59097e-06
-1.55629e-05
7.35071e-06
-1.59438e-05
6.1352e-06
-1.62326e-05
4.95497e-06
-1.64346e-05
3.81198e-06
-1.65505e-05
2.70196e-06
-1.65791e-05
1.62691e-06
-1.65237e-05
6.04916e-07
-1.63972e-05
-3.38779e-07
-1.62152e-05
-1.19829e-06
-1.59848e-05
-1.9991e-06
-1.5706e-05
-2.76919e-06
-1.53816e-05
-3.51765e-06
-1.50254e-05
-4.23978e-06
-1.46578e-05
-4.94135e-06
-1.42946e-05
-5.65571e-06
-1.39391e-05
-6.42791e-06
-1.35882e-05
-7.27272e-06
-1.32493e-05
-8.13866e-06
-1.29645e-05
-8.9055e-06
-1.27595e-05
-9.56586e-06
-1.25488e-05
-1.03674e-05
-1.21095e-05
-1.15336e-05
-1.084e-05
-1.34108e-05
-8.1862e-06
-1.59832e-05
-4.70185e-06
-1.76903e-05
-1.07311e-06
-1.76788e-05
2.20283e-06
-1.60419e-05
4.61783e-06
-1.30991e-05
4.92311e-06
-9.30133e-06
4.84136e-06
-7.40396e-06
5.03628e-06
-5.54878e-06
-3.14591e-06
-2.14343e-06
1.84689e-05
-4.00288e-06
1.88054e-05
-5.6432e-06
1.86573e-05
-7.12523e-06
1.824e-05
-8.48077e-06
1.75733e-05
-9.72249e-06
1.66935e-05
-1.08534e-05
1.56444e-05
-1.18728e-05
1.44675e-05
-1.27793e-05
1.32e-05
-1.3573e-05
1.18758e-05
-1.42557e-05
1.05235e-05
-1.48303e-05
9.16567e-06
-1.53009e-05
7.8213e-06
-1.56735e-05
6.50776e-06
-1.59563e-05
5.23775e-06
-1.61557e-05
4.01134e-06
-1.62709e-05
2.81723e-06
-1.6297e-05
1.65294e-06
-1.62354e-05
5.43318e-07
-1.61029e-05
-4.71284e-07
-1.59217e-05
-1.37943e-06
-1.56996e-05
-2.22127e-06
-1.54331e-05
-3.03566e-06
-1.51249e-05
-3.82587e-06
-1.47944e-05
-4.57028e-06
-1.44734e-05
-5.26236e-06
-1.41898e-05
-5.93927e-06
-1.39588e-05
-6.65888e-06
-1.37943e-05
-7.43724e-06
-1.37252e-05
-8.20777e-06
-1.38462e-05
-8.78443e-06
-1.43001e-05
-9.11203e-06
-1.49404e-05
-9.72707e-06
-1.51857e-05
-1.12883e-05
-1.37928e-05
-1.48037e-05
-1.03824e-05
-1.93936e-05
-5.96918e-06
-2.21036e-05
-1.33076e-06
-2.23173e-05
2.92895e-06
-2.03017e-05
6.43867e-06
-1.66088e-05
6.83906e-06
-9.70173e-06
5.58604e-06
-6.15095e-06
5.21618e-06
-5.17891e-06
-4.29677e-06
-2.07303e-06
2.05419e-05
-3.85053e-06
2.05829e-05
-5.4182e-06
2.0225e-05
-6.84297e-06
1.96648e-05
-8.15572e-06
1.8886e-05
-9.36711e-06
1.79049e-05
-1.0478e-05
1.67553e-05
-1.14852e-05
1.54746e-05
-1.23847e-05
1.40995e-05
-1.3175e-05
1.2666e-05
-1.38569e-05
1.12054e-05
-1.44327e-05
9.7415e-06
-1.49054e-05
8.29401e-06
-1.52807e-05
6.88304e-06
-1.55685e-05
5.52551e-06
-1.57774e-05
4.22029e-06
-1.59057e-05
2.94549e-06
-1.5943e-05
1.69025e-06
-1.58873e-05
4.87682e-07
-1.576e-05
-5.98669e-07
-1.55926e-05
-1.54681e-06
-1.5392e-05
-2.42179e-06
-1.51495e-05
-3.27819e-06
-1.48654e-05
-4.11003e-06
-1.45632e-05
-4.87244e-06
-1.42841e-05
-5.54148e-06
-1.40675e-05
-6.15585e-06
-1.39455e-05
-6.78093e-06
-1.39722e-05
-7.4105e-06
-1.42533e-05
-7.92666e-06
-1.5071e-05
-7.9667e-06
-1.70147e-05
-7.16836e-06
-1.94574e-05
-7.28442e-06
-1.91781e-05
-1.15676e-05
-1.64567e-05
-1.75251e-05
-1.28661e-05
-2.29842e-05
-8.33364e-06
-2.66361e-05
-3.21552e-06
-2.74354e-05
1.86774e-06
-2.53849e-05
6.24215e-06
-2.09832e-05
8.85772e-06
-1.23173e-05
6.51361e-06
-3.80684e-06
4.65636e-06
-3.32167e-06
-6.09785e-06
-1.8723e-06
2.24142e-05
-3.50203e-06
2.22127e-05
-4.96361e-06
2.16865e-05
-6.31563e-06
2.10168e-05
-7.57981e-06
2.01502e-05
-8.76086e-06
1.9086e-05
-9.85587e-06
1.78503e-05
-1.08589e-05
1.64777e-05
-1.17625e-05
1.50031e-05
-1.25623e-05
1.34658e-05
-1.32581e-05
1.19012e-05
-1.38501e-05
1.03335e-05
-1.43411e-05
8.78499e-06
-1.47339e-05
7.27584e-06
-1.504e-05
5.8316e-06
-1.52731e-05
4.45335e-06
-1.5432e-05
3.1044e-06
-1.55011e-05
1.75935e-06
-1.54719e-05
4.58545e-07
-1.5368e-05
-7.02604e-07
-1.52325e-05
-1.68227e-06
-1.50682e-05
-2.58613e-06
-1.486e-05
-3.48635e-06
-1.46091e-05
-4.36094e-06
-1.434e-05
-5.14154e-06
-1.40926e-05
-5.78894e-06
-1.39115e-05
-6.3369e-06
-1.38437e-05
-6.84872e-06
-1.40169e-05
-7.23736e-06
-1.47876e-05
-7.15588e-06
-1.75373e-05
-5.21704e-06
-2.2752e-05
-1.95366e-06
-2.34621e-05
-6.57429e-06
-2.14617e-05
-1.3568e-05
-1.89861e-05
-2.00007e-05
-1.57612e-05
-2.62091e-05
-1.13049e-05
-3.10923e-05
-5.62973e-06
-3.31106e-05
7.65738e-07
-3.17804e-05
5.84598e-06
-2.60635e-05
1.08007e-05
-1.7272e-05
1.66628e-05
-9.66902e-06
1.99499e-05
-6.60868e-06
-7.44499e-06
-1.45649e-06
2.38707e-05
-2.87655e-06
2.36327e-05
-4.20574e-06
2.30157e-05
-5.47479e-06
2.22859e-05
-6.68777e-06
2.13632e-05
-7.83942e-06
2.02376e-05
-8.92226e-06
1.89332e-05
-9.93219e-06
1.74876e-05
-1.08545e-05
1.59254e-05
-1.16829e-05
1.42942e-05
-1.24153e-05
1.26336e-05
-1.30528e-05
1.09711e-05
-1.35864e-05
9.3185e-06
-1.40174e-05
7.70692e-06
-1.43594e-05
6.1736e-06
-1.46305e-05
4.72445e-06
-1.48347e-05
3.30854e-06
-1.49608e-05
1.88551e-06
-1.4994e-05
4.9175e-07
-1.49367e-05
-7.59906e-07
-1.48319e-05
-1.78708e-06
-1.46885e-05
-2.7296e-06
-1.45006e-05
-3.67425e-06
-1.42771e-05
-4.58444e-06
-1.40412e-05
-5.37743e-06
-1.38223e-05
-6.00782e-06
-1.36644e-05
-6.49474e-06
-1.36571e-05
-6.8561e-06
-1.41137e-05
-6.78074e-06
-1.73098e-05
-3.95974e-06
-2.4147e-05
1.62012e-06
-2.55117e-05
-5.88936e-07
-2.35641e-05
-8.52194e-06
-2.21459e-05
-1.49862e-05
-2.08175e-05
-2.13291e-05
-1.84677e-05
-2.8559e-05
-1.42135e-05
-3.53465e-05
-7.87392e-06
-3.94501e-05
-5.22186e-07
-3.91321e-05
5.94333e-06
-3.2529e-05
1.10672e-05
-2.23959e-05
1.3782e-05
-1.23838e-05
1.27873e-05
-5.61397e-06
6.48339e-06
-7.30495e-07
2.46012e-05
-1.90029e-06
2.48025e-05
-3.07303e-06
2.41885e-05
-4.25493e-06
2.34678e-05
-5.42454e-06
2.25328e-05
-6.56034e-06
2.13734e-05
-7.65045e-06
2.00233e-05
-8.67783e-06
1.8515e-05
-9.62896e-06
1.68765e-05
-1.05035e-05
1.51687e-05
-1.13037e-05
1.34338e-05
-1.20271e-05
1.16945e-05
-1.26261e-05
9.91749e-06
-1.31074e-05
8.18818e-06
-1.34932e-05
6.55939e-06
-1.38006e-05
5.03189e-06
-1.4039e-05
3.54695e-06
-1.42361e-05
2.08256e-06
-1.44039e-05
6.59609e-07
-1.44747e-05
-6.89156e-07
-1.44301e-05
-1.8317e-06
-1.43011e-05
-2.85856e-06
-1.41366e-05
-3.83872e-06
-1.39822e-05
-4.73891e-06
-1.38976e-05
-5.46201e-06
-1.41746e-05
-5.73082e-06
-1.55282e-05
-5.14113e-06
-1.80606e-05
-4.32368e-06
-2.18782e-05
-2.96322e-06
-2.62632e-05
4.2532e-07
-2.54589e-05
8.15843e-07
-2.28658e-05
-3.18206e-06
-2.21984e-05
-9.18936e-06
-2.24748e-05
-1.47098e-05
-2.28924e-05
-2.09115e-05
-2.06677e-05
-3.07837e-05
-1.58276e-05
-4.01866e-05
-1.0092e-05
-4.51857e-05
-4.8147e-06
-4.44094e-05
-6.01669e-07
-3.6742e-05
4.93861e-06
-2.79361e-05
5.3136e-06
-1.27588e-05
-2.37447e-06
2.0741e-06
1.99767e-05
2.44077e-07
2.43571e-05
-5.73666e-07
2.56203e-05
-1.56318e-06
2.5178e-05
-2.65391e-06
2.45585e-05
-3.78024e-06
2.36591e-05
-4.93318e-06
2.25264e-05
-6.09428e-06
2.11844e-05
-7.17381e-06
1.95946e-05
-8.1839e-06
1.78866e-05
-9.16278e-06
1.61476e-05
-1.01386e-05
1.44096e-05
-1.10269e-05
1.25828e-05
-1.17123e-05
1.06028e-05
-1.22609e-05
8.73682e-06
-1.27013e-05
6.99983e-06
-1.30242e-05
5.35472e-06
-1.32293e-05
3.75212e-06
-1.33363e-05
2.18954e-06
-1.34351e-05
7.58364e-07
-1.35916e-05
-5.32632e-07
-1.3786e-05
-1.63725e-06
-1.40397e-05
-2.60495e-06
-1.44199e-05
-3.45843e-06
-1.50114e-05
-4.14743e-06
-1.59349e-05
-4.53858e-06
-1.73125e-05
-4.35318e-06
-1.90446e-05
-3.40905e-06
-2.11988e-05
-2.16944e-06
-2.32501e-05
-9.11945e-07
-2.3591e-05
7.66215e-07
-2.23669e-05
-4.08307e-07
-2.08971e-05
-4.65188e-06
-2.01945e-05
-9.89189e-06
-2.45087e-05
-1.03956e-05
-2.61587e-05
-1.92615e-05
-2.21746e-05
-3.47679e-05
-1.78671e-05
-4.44941e-05
-1.33518e-05
-4.9701e-05
-8.94901e-06
-4.88121e-05
-4.18215e-06
-4.15089e-05
-6.08683e-07
-3.15096e-05
-6.70903e-06
-6.65848e-06
-2.01068e-05
1.54719e-05
2.78263e-05
1.05196e-06
2.33051e-05
8.53662e-07
2.58186e-05
8.22955e-08
2.59494e-05
-9.16514e-07
2.55573e-05
-2.05694e-06
2.47995e-05
-3.40415e-06
2.38736e-05
-4.87164e-06
2.26519e-05
-6.04353e-06
2.07664e-05
-7.04312e-06
1.88862e-05
-7.88336e-06
1.69878e-05
-8.54439e-06
1.50707e-05
-9.18635e-06
1.32248e-05
-9.73377e-06
1.11502e-05
-1.01833e-05
9.18633e-06
-1.05588e-05
7.37535e-06
-1.08748e-05
5.67072e-06
-1.11573e-05
4.0346e-06
-1.14511e-05
2.48335e-06
-1.17831e-05
1.09035e-06
-1.22036e-05
-1.12116e-07
-1.27315e-05
-1.10943e-06
-1.34102e-05
-1.92626e-06
-1.4318e-05
-2.55064e-06
-1.55426e-05
-2.9228e-06
-1.71475e-05
-2.93364e-06
-1.90848e-05
-2.41588e-06
-2.11494e-05
-1.34448e-06
-2.31188e-05
-2.00061e-07
-2.43827e-05
3.51942e-07
-2.35553e-05
-6.11775e-08
-2.22341e-05
-1.72948e-06
-2.23053e-05
-4.58066e-06
-2.55237e-05
-6.67352e-06
-2.66493e-05
-9.27e-06
-2.4112e-05
-2.17988e-05
-2.14394e-05
-3.74405e-05
-1.87692e-05
-4.71642e-05
-1.54457e-05
-5.30246e-05
-1.17018e-05
-5.2556e-05
-5.66709e-06
-4.75436e-05
-3.16973e-06
-3.40069e-05
-1.77791e-05
7.95086e-06
-2.84209e-05
2.61138e-05
3.11682e-05
8.8516e-07
2.242e-05
1.80981e-06
2.48939e-05
1.19585e-06
2.65633e-05
-5.04233e-08
2.68036e-05
-1.13608e-06
2.58852e-05
-2.23924e-06
2.49767e-05
-3.46805e-06
2.38807e-05
-4.57308e-06
2.18715e-05
-5.41439e-06
1.97275e-05
-6.03662e-06
1.761e-05
-6.49952e-06
1.55336e-05
-6.80008e-06
1.35253e-05
-7.13478e-06
1.14849e-05
-7.49903e-06
9.55059e-06
-7.87432e-06
7.75062e-06
-8.26509e-06
6.06149e-06
-8.69714e-06
4.46664e-06
-9.20324e-06
2.98944e-06
-9.80312e-06
1.69022e-06
-1.05218e-05
6.06606e-07
-1.13858e-05
-2.45417e-07
-1.24495e-05
-8.62604e-07
-1.37855e-05
-1.21463e-06
-1.54605e-05
-1.24777e-06
-1.74937e-05
-9.0054e-07
-1.97806e-05
-1.28937e-07
-2.20827e-05
9.57657e-07
-2.40924e-05
1.80956e-06
-2.53815e-05
1.64111e-06
-2.60846e-05
6.41877e-07
-2.71163e-05
-6.97785e-07
-2.89674e-05
-2.72953e-06
-3.01344e-05
-5.50656e-06
-2.79289e-05
-1.14755e-05
-2.44501e-05
-2.52776e-05
-2.09116e-05
-4.0979e-05
-1.8732e-05
-4.93438e-05
-1.64008e-05
-5.53558e-05
-1.43951e-05
-5.45617e-05
-1.36564e-05
-4.82823e-05
-1.52822e-05
-3.23811e-05
-2.73714e-05
2.00401e-05
-3.2415e-05
3.11573e-05
3.26342e-05
-3.59437e-06
2.60144e-05
2.58384e-07
2.10412e-05
4.45668e-07
2.63761e-05
-2.95359e-07
2.75446e-05
-1.31641e-06
2.69062e-05
-2.16991e-06
2.58302e-05
-2.63609e-06
2.43469e-05
-3.03241e-06
2.22678e-05
-3.36349e-06
2.00585e-05
-3.62699e-06
1.78735e-05
-3.8422e-06
1.57488e-05
-4.03171e-06
1.37148e-05
-4.29741e-06
1.17506e-05
-4.64433e-06
9.89749e-06
-5.06087e-06
8.16715e-06
-5.551e-06
6.55161e-06
-6.13456e-06
5.0502e-06
-6.83455e-06
3.68942e-06
-7.66342e-06
2.51909e-06
-8.63617e-06
1.57936e-06
-9.77891e-06
8.97324e-07
-1.11389e-05
4.97399e-07
-1.27712e-05
4.17647e-07
-1.47154e-05
6.96431e-07
-1.69611e-05
1.34518e-06
-1.93997e-05
2.3097e-06
-2.18076e-05
3.3655e-06
-2.39471e-05
3.94909e-06
-2.58689e-05
3.56289e-06
-2.77768e-05
2.54976e-06
-2.95637e-05
1.08916e-06
-3.10014e-05
-1.29183e-06
-3.12591e-05
-5.24889e-06
-2.97155e-05
-1.30191e-05
-2.81664e-05
-2.68267e-05
-2.54949e-05
-4.36505e-05
-1.97348e-05
-5.51039e-05
-1.75811e-05
-5.75095e-05
-1.68724e-05
-5.52704e-05
-1.8328e-05
-4.68267e-05
-2.41246e-05
-2.65844e-05
-3.21506e-05
2.8066e-05
-3.40088e-05
3.30155e-05
3.36821e-05
-1.29269e-06
2.7307e-05
-2.26198e-06
2.20104e-05
-1.78396e-06
2.5898e-05
-1.56517e-06
2.73258e-05
-1.57853e-06
2.69196e-05
-1.52024e-06
2.57719e-05
-1.29956e-06
2.41262e-05
-1.13478e-06
2.2103e-05
-1.04892e-06
1.99727e-05
-1.03192e-06
1.78565e-05
-1.09048e-06
1.58073e-05
-1.23078e-06
1.38551e-05
-1.48057e-06
1.20004e-05
-1.84155e-06
1.02585e-05
-2.31014e-06
8.63573e-06
-2.89124e-06
7.1327e-06
-3.59882e-06
5.75777e-06
-4.44756e-06
4.53815e-06
-5.44545e-06
3.51699e-06
-6.60226e-06
2.73616e-06
-7.93769e-06
2.23274e-06
-9.48388e-06
2.04359e-06
-1.12732e-05
2.20698e-06
-1.33193e-05
2.74252e-06
-1.55919e-05
3.61782e-06
-1.79893e-05
4.70709e-06
-2.03426e-05
5.71878e-06
-2.25684e-05
6.17486e-06
-2.47719e-05
5.7664e-06
-2.68514e-05
4.62932e-06
-2.84895e-05
2.72718e-06
-2.93905e-05
-3.90747e-07
-2.91291e-05
-5.51035e-06
-2.78398e-05
-1.43084e-05
-2.65078e-05
-2.81588e-05
-2.47048e-05
-4.54535e-05
-2.08291e-05
-5.89796e-05
-1.91017e-05
-5.92368e-05
-1.92632e-05
-5.51089e-05
-2.22123e-05
-4.38777e-05
-3.10669e-05
-1.77297e-05
-3.44048e-05
3.14038e-05
-3.47092e-05
3.33199e-05
-3.5515e-05
3.4488e-05
3.66898e-05
-6.00956e-07
2.79081e-05
-2.2656e-06
2.3675e-05
-2.26047e-06
2.58929e-05
-1.57059e-06
2.66359e-05
-8.57762e-07
2.62068e-05
-1.67781e-07
2.5082e-05
4.67322e-07
2.34911e-05
9.53319e-07
2.1617e-05
1.28136e-06
1.96446e-05
1.46082e-06
1.76771e-05
1.49743e-06
1.57707e-05
1.39765e-06
1.39549e-05
1.15948e-06
1.22386e-05
7.85288e-07
1.06327e-05
2.77229e-07
9.14378e-06
-3.67779e-07
7.7777e-06
-1.15789e-06
6.54789e-06
-2.1013e-06
5.48157e-06
-3.2023e-06
4.61798e-06
-4.46577e-06
3.99962e-06
-5.9018e-06
3.66877e-06
-7.52507e-06
3.66687e-06
-9.34525e-06
4.02717e-06
-1.13536e-05
4.7509e-06
-1.35081e-05
5.77225e-06
-1.57222e-05
6.92119e-06
-1.78923e-05
7.88895e-06
-1.99893e-05
8.27184e-06
-2.20181e-05
7.79521e-06
-2.37955e-05
6.40676e-06
-2.50233e-05
3.95495e-06
-2.54422e-05
2.8131e-08
-2.489e-05
-6.06255e-06
-2.37498e-05
-1.54486e-05
-2.29006e-05
-2.9008e-05
-2.26406e-05
-4.57136e-05
-2.13872e-05
-6.02331e-05
-2.08569e-05
-5.9767e-05
-2.16445e-05
-5.43213e-05
-2.53568e-05
-4.01654e-05
-3.45372e-05
-8.5493e-06
-3.47528e-05
3.16194e-05
-3.4725e-05
3.32921e-05
-3.53596e-05
3.51226e-05
3.76651e-05
7.96984e-07
2.71111e-05
-1.06883e-06
2.55408e-05
-1.10999e-06
2.59341e-05
-3.57991e-07
2.58839e-05
5.87458e-07
2.52613e-05
1.52597e-06
2.41435e-05
2.35063e-06
2.26664e-05
2.99738e-06
2.09702e-05
3.4546e-06
1.91874e-05
3.72811e-06
1.74035e-05
3.82826e-06
1.56705e-05
3.76557e-06
1.40176e-05
3.54493e-06
1.24592e-05
3.17128e-06
1.10063e-05
2.64778e-06
9.66728e-06
1.97386e-06
8.45162e-06
1.14621e-06
7.37554e-06
1.62062e-07
6.46572e-06
-9.78641e-07
5.75868e-06
-2.27504e-06
5.29601e-06
-3.72689e-06
5.12063e-06
-5.33245e-06
5.27244e-06
-7.08177e-06
5.7765e-06
-8.94903e-06
6.61816e-06
-1.08862e-05
7.70945e-06
-1.28241e-05
8.85907e-06
-1.46966e-05
9.76144e-06
-1.64752e-05
1.00505e-05
-1.81131e-05
9.43305e-06
-1.94398e-05
7.7335e-06
-2.02239e-05
4.73907e-06
-2.02922e-05
9.63549e-08
-1.96567e-05
-6.69805e-06
-1.88218e-05
-1.62835e-05
-1.88592e-05
-2.89706e-05
-2.0442e-05
-4.41308e-05
-2.22947e-05
-5.83803e-05
-2.28979e-05
-5.91639e-05
-2.40548e-05
-5.31644e-05
-2.77885e-05
-3.64317e-05
-3.52777e-05
-1.06013e-06
-3.42025e-05
3.05442e-05
-3.41887e-05
3.32783e-05
-3.47118e-05
3.56456e-05
3.84204e-05
1.37834e-06
2.57328e-05
4.16985e-07
2.65022e-05
5.45706e-07
2.58054e-05
1.29003e-06
2.51396e-05
2.265e-06
2.42864e-05
3.25385e-06
2.31546e-05
4.13717e-06
2.17831e-05
4.85014e-06
2.02573e-05
5.37235e-06
1.86652e-05
5.70379e-06
1.70721e-05
5.85211e-06
1.55222e-05
5.82649e-06
1.40432e-05
5.63389e-06
1.26518e-05
5.28023e-06
1.136e-05
4.76951e-06
1.0178e-05
4.10339e-06
9.11773e-06
3.28235e-06
8.19658e-06
2.30793e-06
7.44013e-06
1.1845e-06
6.88209e-06
-8.07557e-08
6.56127e-06
-1.47786e-06
6.51773e-06
-2.99146e-06
6.78605e-06
-4.59668e-06
7.38171e-06
-6.25579e-06
8.27727e-06
-7.9185e-06
9.37216e-06
-9.52804e-06
1.04686e-05
-1.10371e-05
1.12705e-05
-1.24154e-05
1.14288e-05
-1.36095e-05
1.06271e-05
-1.44945e-05
8.61847e-06
-1.49144e-05
5.15903e-06
-1.47786e-05
-3.9481e-08
-1.41898e-05
-7.28685e-06
-1.36685e-05
-1.68048e-05
-1.4339e-05
-2.83001e-05
-1.76626e-05
-4.08072e-05
-2.28488e-05
-5.31941e-05
-2.47852e-05
-5.72275e-05
-2.64002e-05
-5.15495e-05
-2.95403e-05
-3.32915e-05
-3.48882e-05
4.28776e-06
-3.34594e-05
2.91154e-05
-3.33853e-05
3.32042e-05
-3.37305e-05
3.59908e-05
3.89299e-05
1.44558e-06
2.42872e-05
1.56851e-06
2.63792e-05
2.03137e-06
2.53425e-05
2.83956e-06
2.43314e-05
3.81263e-06
2.33133e-05
4.79544e-06
2.21718e-05
5.68414e-06
2.08944e-05
6.41938e-06
1.9522e-05
6.9764e-06
1.81082e-05
7.34933e-06
1.66992e-05
7.54146e-06
1.53301e-05
7.5593e-06
1.40254e-05
7.40927e-06
1.28018e-05
7.09708e-06
1.16721e-05
6.62728e-06
1.06478e-05
6.00325e-06
9.74176e-06
5.22834e-06
8.97149e-06
4.30764e-06
8.36083e-06
3.24968e-06
7.94005e-06
2.06725e-06
7.74369e-06
7.78517e-07
7.80645e-06
-5.90976e-07
8.15553e-06
-2.0062e-06
8.79694e-06
-3.42241e-06
9.69349e-06
-4.78925e-06
1.0739e-05
-6.05897e-06
1.17383e-05
-7.19666e-06
1.24082e-05
-8.17993e-06
1.24121e-05
-8.97321e-06
1.14204e-05
-9.50198e-06
9.14725e-06
-9.67753e-06
5.33459e-06
-9.46209e-06
-2.54934e-07
-8.95739e-06
-7.79156e-06
-8.50948e-06
-1.72527e-05
-8.73757e-06
-2.8072e-05
-1.07311e-05
-3.88137e-05
-1.63657e-05
-4.75595e-05
-2.25302e-05
-5.1063e-05
-2.68079e-05
-4.72718e-05
-3.06002e-05
-2.94992e-05
-3.43897e-05
8.07722e-06
-3.29571e-05
2.76827e-05
-3.25559e-05
3.28031e-05
-3.26079e-05
3.60428e-05
3.91487e-05
1.42502e-06
2.28622e-05
2.26521e-06
2.5539e-05
3.09537e-06
2.45123e-05
4.03517e-06
2.33916e-05
5.03861e-06
2.23099e-05
6.02065e-06
2.11898e-05
6.90916e-06
2.00059e-05
7.65754e-06
1.87736e-05
8.24215e-06
1.75236e-05
8.65437e-06
1.62869e-05
8.89416e-06
1.50903e-05
8.96541e-06
1.39541e-05
8.8732e-06
1.2894e-05
8.62269e-06
1.19226e-05
8.21872e-06
1.10518e-05
7.66594e-06
1.02945e-05
6.9699e-06
9.66753e-06
6.1385e-06
9.19222e-06
5.18364e-06
8.8949e-06
4.12257e-06
8.80476e-06
2.97923e-06
8.94979e-06
1.7857e-06
9.34906e-06
5.82826e-07
9.99981e-06
-5.81921e-07
1.08582e-05
-1.66048e-06
1.18176e-05
-2.61319e-06
1.2691e-05
-3.41704e-06
1.3212e-05
-4.06452e-06
1.30596e-05
-4.54691e-06
1.19028e-05
-4.8375e-06
9.43784e-06
-4.902e-06
5.39908e-06
-4.73367e-06
-4.23271e-07
-4.39954e-06
-8.12568e-06
-4.06806e-06
-1.75842e-05
-3.97343e-06
-2.81666e-05
-4.35474e-06
-3.84323e-05
-6.0193e-06
-4.58949e-05
-1.02634e-05
-4.68189e-05
-1.48354e-05
-4.26999e-05
-2.97429e-05
-1.45916e-05
-3.39332e-05
1.22675e-05
-3.25534e-05
2.6303e-05
-3.17635e-05
3.20132e-05
-3.14517e-05
3.57309e-05
3.90457e-05
1.40013e-06
2.14621e-05
2.63852e-06
2.43006e-05
3.75003e-06
2.34008e-05
4.83172e-06
2.23099e-05
5.89166e-06
2.12499e-05
6.89314e-06
2.01883e-05
7.79375e-06
1.91053e-05
8.56153e-06
1.80059e-05
9.17767e-06
1.69074e-05
9.63369e-06
1.58309e-05
9.92794e-06
1.47961e-05
1.00625e-05
1.38195e-05
1.00414e-05
1.29152e-05
9.86908e-06
1.20949e-05
9.55063e-06
1.13702e-05
9.09165e-06
1.07535e-05
8.49929e-06
1.02599e-05
7.78351e-06
9.908e-06
6.95864e-06
9.71976e-06
6.04478e-06
9.71862e-06
5.06914e-06
9.92543e-06
4.06687e-06
1.03513e-05
3.08055e-06
1.09861e-05
2.15674e-06
1.1782e-05
1.33896e-06
1.26353e-05