/*--------------------------------*- C++ -*----------------------------------*\
| =========                 |                                                 |
| \\      /  F ield         | OpenFOAM: The Open Source CFD Toolbox           |
|  \\    /   O peration     | Version:  5.0                                   |
|   \\  /    A nd           | Web:      www.OpenFOAM.org                      |
|    \\/     M anipulation  |                                                 |
\*---------------------------------------------------------------------------*/
FoamFile
{
    version     2.0;
    format      ascii;
    class       volVectorField;
    location    "1";
    object      U;
}
// * * * * * * * * * * * * * * * * * * * * * * * * * * * * * * * * * * * * * //

dimensions      [0 1 -1 0 0 0 0];

internalField   nonuniform List<vector> 
1935
(
(0.0084471 -0.00502354 0)
(0.00304908 0.00629937 0)
(-0.0160991 0.00899743 0)
(-0.0350343 0.00933923 0)
(-0.0552549 0.00951448 0)
(-0.0758763 0.00962909 0)
(-0.096575 0.00966899 0)
(-0.117037 0.00959913 0)
(-0.136975 0.00939828 0)
(-0.156112 0.0090613 0)
(-0.174197 0.0085961 0)
(-0.191016 0.00801907 0)
(-0.206397 0.00735069 0)
(-0.220209 0.00661195 0)
(-0.23236 0.0058219 0)
(-0.242792 0.00499648 0)
(-0.251476 0.00414837 0)
(-0.258405 0.00328547 0)
(-0.263588 0.00240428 0)
(-0.267048 0.00148871 0)
(-0.268788 0.000532621 0)
(-0.268686 -0.00043954 0)
(-0.266781 -0.0013257 0)
(-0.263517 -0.0020564 0)
(-0.258983 -0.00272484 0)
(-0.253226 -0.00338835 0)
(-0.24623 -0.00408707 0)
(-0.237924 -0.00484955 0)
(-0.228192 -0.00567309 0)
(-0.216951 -0.00649436 0)
(-0.204351 -0.00716113 0)
(-0.190696 -0.00751589 0)
(-0.176135 -0.00823248 0)
(-0.160204 -0.00996158 0)
(-0.142339 -0.0107206 0)
(-0.123893 -0.0107472 0)
(-0.105708 -0.0104628 0)
(-0.0879057 -0.0104722 0)
(-0.0706468 -0.0102343 0)
(-0.0543468 -0.00953233 0)
(-0.0390472 -0.00920561 0)
(-0.0241232 -0.0100868 0)
(-0.00904769 -0.00989832 0)
(0.0046468 -0.00965559 0)
(-0.00531963 -0.00387988 0)
(-0.015028 0.015403 0)
(-0.0352559 0.0221509 0)
(-0.0569606 0.0240617 0)
(-0.0796507 0.0246927 0)
(-0.10235 0.0247574 0)
(-0.124503 0.0244257 0)
(-0.145691 0.0237388 0)
(-0.165597 0.0227254 0)
(-0.183985 0.0214233 0)
(-0.20069 0.0198801 0)
(-0.215609 0.0181478 0)
(-0.228689 0.0162774 0)
(-0.239918 0.0143147 0)
(-0.249309 0.012298 0)
(-0.256899 0.0102585 0)
(-0.262736 0.0082219 0)
(-0.266884 0.00620931 0)
(-0.269417 0.00423371 0)
(-0.270428 0.00229477 0)
(-0.270063 0.000391993 0)
(-0.268542 -0.00143518 0)
(-0.265954 -0.00311424 0)
(-0.262189 -0.00463272 0)
(-0.25727 -0.00607088 0)
(-0.251191 -0.0075006 0)
(-0.243919 -0.00898473 0)
(-0.235398 -0.0105658 0)
(-0.225572 -0.0122421 0)
(-0.21442 -0.0139456 0)
(-0.201965 -0.0155363 0)
(-0.188093 -0.0167657 0)
(-0.172806 -0.0180221 0)
(-0.156717 -0.0198807 0)
(-0.140169 -0.0210399 0)
(-0.123196 -0.021328 0)
(-0.106128 -0.0209395 0)
(-0.0895557 -0.0204296 0)
(-0.0738918 -0.0194619 0)
(-0.0591599 -0.0182213 0)
(-0.0452621 -0.0173308 0)
(-0.0326386 -0.016956 0)
(-0.0217084 -0.0158166 0)
(-0.0126474 -0.0134647 0)
(-0.0127061 0.00816228 0)
(-0.0253438 0.0284298 0)
(-0.0450625 0.0372354 0)
(-0.0665849 0.040365 0)
(-0.0888197 0.0412416 0)
(-0.110883 0.041001 0)
(-0.132205 0.0400018 0)
(-0.15239 0.0383914 0)
(-0.171171 0.0362734 0)
(-0.188373 0.0337449 0)
(-0.203887 0.0309012 0)
(-0.217657 0.0278321 0)
(-0.229665 0.0246167 0)
(-0.239917 0.0213213 0)
(-0.248441 0.0179988 0)
(-0.255278 0.0146913 0)
(-0.260481 0.011434 0)
(-0.264112 0.00825787 0)
(-0.26625 0.00519026 0)
(-0.266988 0.00225212 0)
(-0.266442 -0.000539693 0)
(-0.264735 -0.0031621 0)
(-0.26193 -0.00561735 0)
(-0.258016 -0.00793885 0)
(-0.252998 -0.0101895 0)
(-0.246852 -0.0124501 0)
(-0.239537 -0.0147959 0)
(-0.230989 -0.0172718 0)
(-0.221151 -0.0198628 0)
(-0.209991 -0.0224764 0)
(-0.197487 -0.0249569 0)
(-0.183599 -0.0271709 0)
(-0.168476 -0.0292596 0)
(-0.152636 -0.0312952 0)
(-0.136468 -0.0326053 0)
(-0.120096 -0.0329606 0)
(-0.103743 -0.032437 0)
(-0.0879004 -0.0313609 0)
(-0.0729943 -0.0296462 0)
(-0.0591726 -0.0277209 0)
(-0.0465332 -0.0259872 0)
(-0.0355397 -0.0241983 0)
(-0.026802 -0.0216722 0)
(-0.0204011 -0.0180953 0)
(-0.0157322 0.0231172 0)
(-0.031195 0.0429218 0)
(-0.0513837 0.0527561 0)
(-0.0729759 0.0567239 0)
(-0.0948493 0.0577125 0)
(-0.116314 0.0570552 0)
(-0.136887 0.0552932 0)
(-0.156227 0.0526934 0)
(-0.174114 0.0494388 0)
(-0.190413 0.045683 0)
(-0.205048 0.0415623 0)
(-0.217983 0.037196 0)
(-0.229213 0.0326851 0)
(-0.238757 0.0281111 0)
(-0.246647 0.0235382 0)
(-0.252928 0.0190171 0)
(-0.257654 0.0145908 0)
(-0.260889 0.0102995 0)
(-0.262711 0.00618085 0)
(-0.263209 0.00226617 0)
(-0.262482 -0.00142609 0)
(-0.260622 -0.00489844 0)
(-0.257682 -0.00817306 0)
(-0.253679 -0.0113062 0)
(-0.248606 -0.014379 0)
(-0.242433 -0.0174898 0)
(-0.235105 -0.0207299 0)
(-0.226548 -0.0241509 0)
(-0.216687 -0.0277287 0)
(-0.205473 -0.031346 0)
(-0.192897 -0.0348173 0)
(-0.178992 -0.0379826 0)
(-0.163946 -0.0408172 0)
(-0.148159 -0.0432107 0)
(-0.131991 -0.0447117 0)
(-0.115668 -0.0450765 0)
(-0.0994634 -0.0443301 0)
(-0.0838226 -0.0426535 0)
(-0.0692317 -0.040142 0)
(-0.0559859 -0.0372967 0)
(-0.0441274 -0.034487 0)
(-0.0339868 -0.0311685 0)
(-0.0263076 -0.0268419 0)
(-0.0212749 -0.0217763 0)
(-0.0169582 0.0401032 0)
(-0.0349257 0.0587395 0)
(-0.0560004 0.068798 0)
(-0.0779183 0.0731043 0)
(-0.0996335 0.0739659 0)
(-0.120647 0.0727513 0)
(-0.140599 0.0701363 0)
(-0.15922 0.0664934 0)
(-0.17634 0.0620781 0)
(-0.191857 0.0570931 0)
(-0.205721 0.0517094 0)
(-0.217915 0.046071 0)
(-0.228448 0.0402968 0)
(-0.237347 0.0344815 0)
(-0.244653 0.0286991 0)
(-0.250416 0.0230072 0)
(-0.254691 0.0174555 0)
(-0.257543 0.0120915 0)
(-0.259046 0.00696205 0)
(-0.259287 0.00210501 0)
(-0.258356 -0.00246327 0)
(-0.256334 -0.00675993 0)
(-0.253269 -0.0108334 0)
(-0.249179 -0.0147612 0)
(-0.244054 -0.0186451 0)
(-0.237859 -0.0226032 0)
(-0.230529 -0.0267455 0)
(-0.221975 -0.0311328 0)
(-0.212104 -0.0357317 0)
(-0.20085 -0.0403934 0)
(-0.188213 -0.0448845 0)
(-0.174273 -0.0489834 0)
(-0.159216 -0.0525519 0)
(-0.143333 -0.0553904 0)
(-0.126927 -0.0571184 0)
(-0.110274 -0.0574887 0)
(-0.0936909 -0.0564788 0)
(-0.0776638 -0.0541362 0)
(-0.0628557 -0.0506358 0)
(-0.0497259 -0.0466696 0)
(-0.0380844 -0.0427433 0)
(-0.0280315 -0.0378368 0)
(-0.0205603 -0.0313701 0)
(-0.0162733 -0.0244437 0)
(-0.0176146 0.0585464 0)
(-0.0376358 0.0758013 0)
(-0.0596447 0.0854495 0)
(-0.0819605 0.0895773 0)
(-0.10362 0.0900137 0)
(-0.124274 0.0880705 0)
(-0.143692 0.0845008 0)
(-0.161678 0.0797576 0)
(-0.178107 0.0741549 0)
(-0.192914 0.0679363 0)
(-0.206071 0.0613012 0)
(-0.217579 0.0544141 0)
(-0.22746 0.0474089 0)
(-0.23575 0.0403917 0)
(-0.242499 0.0334441 0)
(-0.247763 0.0266287 0)
(-0.251598 0.0199989 0)
(-0.254068 0.0136084 0)
(-0.255242 0.00751229 0)
(-0.255206 0.00175451 0)
(-0.25405 -0.00365197 0)
(-0.25185 -0.00873991 0)
(-0.24865 -0.0135811 0)
(-0.244466 -0.0182749 0)
(-0.239288 -0.0229434 0)
(-0.233081 -0.027726 0)
(-0.225778 -0.032755 0)
(-0.217282 -0.0381057 0)
(-0.207475 -0.0437366 0)
(-0.196274 -0.0494588 0)
(-0.18368 -0.0549747 0)
(-0.169796 -0.059998 0)
(-0.154775 -0.0643311 0)
(-0.138775 -0.0677205 0)
(-0.12199 -0.0697753 0)
(-0.104687 -0.0702317 0)
(-0.0871989 -0.0690205 0)
(-0.0701009 -0.0659945 0)
(-0.0543841 -0.0612861 0)
(-0.0408117 -0.0559667 0)
(-0.0288228 -0.0510152 0)
(-0.0181878 -0.0445871 0)
(-0.0102846 -0.0356752 0)
(-0.00645103 -0.0262158 0)
(-0.0181589 0.0780911 0)
(-0.0398156 0.0939127 0)
(-0.0626525 0.102679 0)
(-0.0853207 0.106184 0)
(-0.106937 0.105907 0)
(-0.127269 0.103062 0)
(-0.1462 0.0984363 0)
(-0.163604 0.0925349 0)
(-0.179401 0.0857164 0)
(-0.193554 0.0782564 0)
(-0.206056 0.0703771 0)
(-0.216924 0.0622597 0)
(-0.226192 0.0540508 0)
(-0.233908 0.0458663 0)
(-0.24013 0.0377933 0)
(-0.244918 0.0298968 0)
(-0.24833 0.0222305 0)
(-0.250424 0.0148522 0)
(-0.251265 0.00782637 0)
(-0.250939 0.00120535 0)
(-0.249542 -0.00500094 0)
(-0.247152 -0.0108434 0)
(-0.243811 -0.0164179 0)
(-0.239534 -0.0218437 0)
(-0.234314 -0.0272599 0)
(-0.22813 -0.0328263 0)
(-0.220929 -0.0387028 0)
(-0.212609 -0.0449883 0)
(-0.203036 -0.0516391 0)
(-0.192098 -0.0584204 0)
(-0.179796 -0.0649555 0)
(-0.166244 -0.0709028 0)
(-0.151522 -0.0760662 0)
(-0.135585 -0.080191 0)
(-0.118427 -0.0828637 0)
(-0.100221 -0.0837738 0)
(-0.0812345 -0.0827316 0)
(-0.0621744 -0.0791586 0)
(-0.0446076 -0.0729429 0)
(-0.029876 -0.0658263 0)
(-0.016951 -0.0598938 0)
(-0.0052096 -0.0519679 0)
(0.00358586 -0.0401679 0)
(0.00716437 -0.0271239 0)
(-0.0187261 0.0985526 0)
(-0.0416609 0.11286 0)
(-0.0651444 0.120372 0)
(-0.0880449 0.122892 0)
(-0.109564 0.12165 0)
(-0.129565 0.117751 0)
(-0.148027 0.111978 0)
(-0.164885 0.104868 0)
(-0.180095 0.0968077 0)
(-0.193645 0.0880983 0)
(-0.205545 0.0789797 0)
(-0.215825 0.0696471 0)
(-0.224529 0.0602579 0)
(-0.231713 0.0509362 0)
(-0.237446 0.0417739 0)
(-0.241794 0.0328338 0)
(-0.244812 0.0241661 0)
(-0.24655 0.0158302 0)
(-0.247066 0.00790308 0)
(-0.246448 0.00045139 0)
(-0.244806 -0.00651619 0)
(-0.242227 -0.0130731 0)
(-0.238754 -0.0193418 0)
(-0.234399 -0.025458 0)
(-0.229171 -0.0315687 0)
(-0.22308 -0.0378493 0)
(-0.216108 -0.0444935 0)
(-0.208166 -0.0516395 0)
(-0.199106 -0.0592541 0)
(-0.188788 -0.0670543 0)
(-0.177212 -0.0745655 0)
(-0.164516 -0.0814053 0)
(-0.150674 -0.0875127 0)
(-0.135319 -0.0927878 0)
(-0.118098 -0.0968021 0)
(-0.0988197 -0.0990578 0)
(-0.0775185 -0.098958 0)
(-0.0551809 -0.0951207 0)
(-0.0343271 -0.0870499 0)
(-0.0172623 -0.0774336 0)
(-0.00262003 -0.0702963 0)
(0.01033 -0.0605251 0)
(0.0200726 -0.0451534 0)
(0.023549 -0.0271593 0)
(-0.0193275 0.119829 0)
(-0.0432021 0.132433 0)
(-0.0670954 0.13837 0)
(-0.09005 0.139614 0)
(-0.111368 0.137205 0)
(-0.130992 0.132129 0)
(-0.148981 0.125141 0)
(-0.165318 0.116785 0)
(-0.179985 0.107467 0)
(-0.192987 0.0975047 0)
(-0.204345 0.0871531 0)
(-0.214098 0.0766191 0)
(-0.222298 0.0660702 0)
(-0.229009 0.0556388 0)
(-0.234307 0.0454199 0)
(-0.238266 0.0354709 0)
(-0.24094 0.0258312 0)
(-0.242361 0.0165592 0)
(-0.242577 0.00775003 0)
(-0.24168 -0.000504327 0)
(-0.239807 -0.00819259 0)
(-0.237061 -0.0154183 0)
(-0.233485 -0.0223358 0)
(-0.229091 -0.0290899 0)
(-0.223912 -0.0358189 0)
(-0.218016 -0.0427024 0)
(-0.211449 -0.0499757 0)
(-0.204163 -0.0578394 0)
(-0.196005 -0.0662938 0)
(-0.186812 -0.0750043 0)
(-0.176608 -0.0833601 0)
(-0.16563 -0.0909927 0)
(-0.153743 -0.0982641 0)
(-0.140126 -0.105419 0)
(-0.123621 -0.11169 0)
(-0.102965 -0.115604 0)
(-0.0779311 -0.116286 0)
(-0.050326 -0.112184 0)
(-0.0240518 -0.102248 0)
(-0.00242686 -0.0901595 0)
(0.0153467 -0.0824728 0)
(0.0284176 -0.0702272 0)
(0.0380852 -0.0506927 0)
(0.0414923 -0.0267028 0)
(-0.0199113 0.141808 0)
(-0.0443453 0.152407 0)
(-0.0683519 0.15648 0)
(-0.0911305 0.156224 0)
(-0.112102 0.152503 0)
(-0.131282 0.146172 0)
(-0.148783 0.13793 0)
(-0.164621 0.128313 0)
(-0.178794 0.117733 0)
(-0.191311 0.106522 0)
(-0.2022 0.0949472 0)
(-0.211504 0.0832263 0)
(-0.219277 0.0715368 0)
(-0.22559 0.0600209 0)
(-0.230527 0.0487772 0)
(-0.234172 0.0378527 0)
(-0.236574 0.0272663 0)
(-0.237743 0.0170706 0)
(-0.237706 0.00738822 0)
(-0.236565 -0.00164487 0)
(-0.234495 -0.0100078 0)
(-0.231631 -0.0178481 0)
(-0.228011 -0.0253619 0)
(-0.223641 -0.0326911 0)
(-0.21859 -0.0399371 0)
(-0.21301 -0.0472634 0)
(-0.20705 -0.0549539 0)
(-0.200739 -0.0633043 0)
(-0.193947 -0.0723743 0)
(-0.186505 -0.0817623 0)
(-0.178555 -0.0906676 0)
(-0.170622 -0.0988542 0)
(-0.162526 -0.107445 0)
(-0.15239 -0.116592 0)
(-0.137646 -0.12459 0)
(-0.115484 -0.130544 0)
(-0.0835564 -0.134559 0)
(-0.0460793 -0.131806 0)
(-0.0101909 -0.119707 0)
(0.0209208 -0.102244 0)
(0.0395246 -0.0921414 0)
(0.0490042 -0.0783974 0)
(0.0554929 -0.0559532 0)
(0.0588218 -0.0274254 0)
(-0.0203739 0.164485 0)
(-0.0448774 0.172681 0)
(-0.0686325 0.174625 0)
(-0.0909559 0.172707 0)
(-0.111409 0.167586 0)
(-0.130059 0.159961 0)
(-0.147054 0.150454 0)
(-0.16242 0.139574 0)
(-0.176154 0.127735 0)
(-0.188263 0.115278 0)
(-0.198772 0.102485 0)
(-0.207722 0.0895842 0)
(-0.215166 0.0767633 0)
(-0.221174 0.0641773 0)
(-0.225844 0.0519325 0)
(-0.229272 0.04006 0)
(-0.231502 0.0285427 0)
(-0.232514 0.0174176 0)
(-0.232298 0.00684945 0)
(-0.23097 -0.00295001 0)
(-0.228768 -0.0119376 0)
(-0.225868 -0.0203323 0)
(-0.222296 -0.0283926 0)
(-0.21804 -0.0362394 0)
(-0.213205 -0.0438914 0)
(-0.20806 -0.051459 0)
(-0.202898 -0.0592789 0)
(-0.197863 -0.0677713 0)
(-0.192896 -0.0770643 0)
(-0.187904 -0.0866511 0)
(-0.183364 -0.0954554 0)
(-0.180463 -0.103484 0)
(-0.17841 -0.11238 0)
(-0.174056 -0.122059 0)
(-0.163789 -0.132932 0)
(-0.137644 -0.149534 0)
(-0.0920378 -0.165477 0)
(-0.0406202 -0.16578 0)
(0.00919807 -0.150634 0)
(0.0559502 -0.122649 0)
(0.0690044 -0.0965693 0)
(0.0690185 -0.0807206 0)
(0.067968 -0.0594696 0)
(0.0721628 -0.0305988 0)
(-0.0205137 0.187605 0)
(-0.0444118 0.192981 0)
(-0.0674714 0.192599 0)
(-0.0890182 0.188944 0)
(-0.108767 0.182412 0)
(-0.126809 0.173509 0)
(-0.143291 0.162764 0)
(-0.15823 0.150645 0)
(-0.171605 0.137563 0)
(-0.183407 0.123872 0)
(-0.193649 0.109871 0)
(-0.202369 0.0957988 0)
(-0.20961 0.0818556 0)
(-0.215438 0.0682126 0)
(-0.219959 0.054991 0)
(-0.223296 0.0422023 0)
(-0.225493 0.0297675 0)
(-0.226483 0.0176874 0)
(-0.226205 0.00618965 0)
(-0.224788 -0.00438239 0)
(-0.222558 -0.0139393 0)
(-0.219752 -0.0228272 0)
(-0.216363 -0.0314025 0)
(-0.212334 -0.0397366 0)
(-0.207808 -0.0476941 0)
(-0.203177 -0.0552727 0)
(-0.198904 -0.0628493 0)
(-0.195287 -0.0709729 0)
(-0.192416 -0.0797897 0)
(-0.190458 -0.0886512 0)
(-0.190811 -0.0961557 0)
(-0.195453 -0.102018 0)
(-0.202733 -0.108719 0)
(-0.210335 -0.119335 0)
(-0.207406 -0.147197 0)
(-0.175554 -0.194131 0)
(-0.115453 -0.219374 0)
(-0.0514714 -0.220354 0)
(0.0136143 -0.200739 0)
(0.0747951 -0.162651 0)
(0.0969611 -0.101088 0)
(0.0874657 -0.0782105 0)
(0.0721142 -0.0605229 0)
(0.0741892 -0.0345943 0)
(-0.0200021 0.210438 0)
(-0.0423681 0.212713 0)
(-0.0642296 0.209974 0)
(-0.0846657 0.204655 0)
(-0.103543 0.196806 0)
(-0.120922 0.186724 0)
(-0.136914 0.174831 0)
(-0.151502 0.161557 0)
(-0.164629 0.147297 0)
(-0.176254 0.132423 0)
(-0.186377 0.117255 0)
(-0.195023 0.102041 0)
(-0.202222 0.086994 0)
(-0.208027 0.0723045 0)
(-0.212553 0.058129 0)
(-0.215957 0.0444605 0)
(-0.218298 0.0311194 0)
(-0.219459 0.0180351 0)
(-0.2193 0.0055221 0)
(-0.217957 -0.00585882 0)
(-0.215867 -0.0159241 0)
(-0.213337 -0.0252375 0)
(-0.210298 -0.0342926 0)
(-0.206628 -0.0430686 0)
(-0.202489 -0.0512051 0)
(-0.198367 -0.0585444 0)
(-0.194851 -0.0655095 0)
(-0.192388 -0.0727646 0)
(-0.191372 -0.0804175 0)
(-0.19288 -0.0876984 0)
(-0.200318 -0.0922104 0)
(-0.217699 -0.0920268 0)
(-0.247769 -0.0923836 0)
(-0.280215 -0.121 0)
(-0.251225 -0.180247 0)
(-0.204772 -0.234175 0)
(-0.149227 -0.266405 0)
(-0.0810821 -0.270378 0)
(-0.00558363 -0.244765 0)
(0.0599004 -0.202845 0)
(0.101274 -0.119421 0)
(0.119081 -0.06527 0)
(0.0748269 -0.0566021 0)
(0.0670245 -0.042497 0)
(-0.0182569 0.231961 0)
(-0.0379109 0.231247 0)
(-0.0580885 0.226383 0)
(-0.0771139 0.219665 0)
(-0.0950002 0.210743 0)
(-0.111696 0.199698 0)
(-0.127236 0.186854 0)
(-0.141564 0.172599 0)
(-0.154578 0.157292 0)
(-0.166194 0.141324 0)
(-0.176391 0.125036 0)
(-0.185169 0.108674 0)
(-0.192544 0.0924556 0)
(-0.198536 0.0766326 0)
(-0.20326 0.0614407 0)
(-0.20692 0.046876 0)
(-0.20961 0.0326375 0)
(-0.211184 0.0185594 0)
(-0.21143 0.00504523 0)
(-0.210463 -0.00708351 0)
(-0.208775 -0.0175268 0)
(-0.206715 -0.0271339 0)
(-0.204162 -0.0365335 0)
(-0.200983 -0.0456014 0)
(-0.197356 -0.0537906 0)
(-0.193743 -0.0608195 0)
(-0.19069 -0.0671185 0)
(-0.188716 -0.0734353 0)
(-0.188679 -0.0797777 0)
(-0.1937 -0.0846894 0)
(-0.214556 -0.0832183 0)
(-0.268926 -0.0651665 0)
(-0.333856 -0.0721005 0)
(-0.310145 -0.141222 0)
(-0.279621 -0.206641 0)
(-0.239244 -0.266748 0)
(-0.187907 -0.309726 0)
(-0.120095 -0.317405 0)
(-0.028481 -0.294824 0)
(0.0449664 -0.245669 0)
(0.0883267 -0.157753 0)
(0.157999 -0.0649234 0)
(0.313937 -0.0420114 0)
(0.325627 -0.111029 0)
(-0.014119 0.250479 0)
(-0.0299397 0.24795 0)
(-0.0481004 0.241605 0)
(-0.0654921 0.234043 0)
(-0.0823292 0.224487 0)
(-0.0983496 0.2128 0)
(-0.11348 0.199167 0)
(-0.127659 0.18391 0)
(-0.140729 0.167389 0)
(-0.152567 0.150091 0)
(-0.163139 0.132432 0)
(-0.172388 0.114725 0)
(-0.180285 0.0972491 0)
(-0.186775 0.0802983 0)
(-0.191963 0.0641591 0)
(-0.196081 0.0488304 0)
(-0.199281 0.033895 0)
(-0.201502 0.0190741 0)
(-0.202579 0.00481495 0)
(-0.202463 -0.00786262 0)
(-0.201333 -0.0185009 0)
(-0.199561 -0.0282146 0)
(-0.197248 -0.0378455 0)
(-0.19442 -0.0471721 0)
(-0.191299 -0.0554306 0)
(-0.188223 -0.0621635 0)
(-0.185539 -0.0677629 0)
(-0.183799 -0.0735105 0)
(-0.185251 -0.0789736 0)
(-0.200684 -0.0799909 0)
(-0.280311 -0.0467764 0)
(-0.355234 0.00138272 0)
(-0.32983 -0.0842123 0)
(-0.309066 -0.155971 0)
(-0.291939 -0.22435 0)
(-0.267461 -0.292162 0)
(-0.226811 -0.349856 0)
(-0.156493 -0.387983 0)
(-0.0494085 -0.38953 0)
(0.0226285 -0.317466 0)
(0.0848425 -0.202753 0)
(0.192067 -0.104874 0)
(0.240545 -0.0761909 0)
(0.201268 -0.026401 0)
(-0.00604154 0.263378 0)
(-0.0173912 0.262244 0)
(-0.033397 0.25565 0)
(-0.0490027 0.24785 0)
(-0.0648748 0.237729 0)
(-0.0804352 0.22505 0)
(-0.095349 0.21009 0)
(-0.109563 0.193395 0)
(-0.122807 0.17543 0)
(-0.135023 0.156795 0)
(-0.146258 0.138021 0)
(-0.156464 0.119475 0)
(-0.165363 0.101225 0)
(-0.172575 0.0834961 0)
(-0.178358 0.0666718 0)
(-0.182965 0.0508174 0)
(-0.186548 0.0354064 0)
(-0.189355 0.0200597 0)
(-0.191766 0.00522889 0)
(-0.193556 -0.00792205 0)
(-0.193799 -0.0187442 0)
(-0.192498 -0.0287993 0)
(-0.190354 -0.0389882 0)
(-0.188097 -0.0489403 0)
(-0.186344 -0.0578218 0)
(-0.186125 -0.0650112 0)
(-0.191203 -0.0692381 0)
(-0.22428 -0.0675828 0)
(-0.270829 -0.0557235 0)
(-0.339638 -0.000457863 0)
(-0.347026 0.0564259 0)
(-0.317284 -0.0134506 0)
(-0.300406 -0.0919001 0)
(-0.297663 -0.160922 0)
(-0.305798 -0.225465 0)
(-0.297208 -0.310587 0)
(-0.251847 -0.412039 0)
(-0.174302 -0.468316 0)
(-0.0949362 -0.458893 0)
(-0.0450255 -0.382404 0)
(-0.013296 -0.280882 0)
(0.135994 -0.148802 0)
(0.0698732 -0.0351477 0)
(-0.0887757 0.154836 0)
(0.00395527 0.268651 0)
(-0.000457375 0.273857 0)
(-0.0142891 0.26768 0)
(-0.0279146 0.259254 0)
(-0.0427512 0.247765 0)
(-0.0579304 0.233677 0)
(-0.0732734 0.217811 0)
(-0.0883342 0.200543 0)
(-0.102138 0.181838 0)
(-0.115222 0.162321 0)
(-0.128064 0.142647 0)
(-0.140555 0.123602 0)
(-0.15121 0.104986 0)
(-0.159297 0.087 0)
(-0.165892 0.0700506 0)
(-0.170991 0.0541929 0)
(-0.174463 0.0387247 0)
(-0.176577 0.0232714 0)
(-0.177381 0.00796798 0)
(-0.178723 -0.00754135 0)
(-0.181395 -0.0210579 0)
(-0.184248 -0.0330717 0)
(-0.18818 -0.044189 0)
(-0.194358 -0.0538478 0)
(-0.204279 -0.0604781 0)
(-0.219181 -0.0598012 0)
(-0.23849 -0.047593 0)
(-0.266382 -0.0347093 0)
(-0.30176 -0.017474 0)
(-0.31224 0.0153987 0)
(-0.306939 0.00277043 0)
(-0.292269 -0.0353741 0)
(-0.266005 -0.0961472 0)
(-0.293482 -0.153414 0)
(-0.352053 -0.218009 0)
(-0.317103 -0.36741 0)
(-0.267459 -0.465478 0)
(-0.206181 -0.513811 0)
(-0.147025 -0.502067 0)
(-0.108209 -0.413719 0)
(-0.0439775 -0.326833 0)
(0.0381013 -0.120964 0)
(-0.157278 0.0885427 0)
(-0.361943 0.273185 0)
(0.00470206 0.266163 0)
(0.0170723 0.280565 0)
(0.00621546 0.274262 0)
(-0.00521071 0.26594 0)
(-0.0197456 0.254627 0)
(-0.0356185 0.240687 0)
(-0.0538456 0.225111 0)
(-0.0721793 0.208713 0)
(-0.0861995 0.19199 0)
(-0.0986705 0.176062 0)
(-0.108982 0.162249 0)
(-0.116365 0.147474 0)
(-0.124336 0.125368 0)
(-0.131024 0.103436 0)
(-0.136429 0.0830056 0)
(-0.140926 0.0635227 0)
(-0.144795 0.0444973 0)
(-0.148511 0.0262024 0)
(-0.152381 0.00978944 0)
(-0.157194 -0.00424972 0)
(-0.163436 -0.0158645 0)
(-0.17115 -0.0257453 0)
(-0.181295 -0.033965 0)
(-0.195053 -0.0398926 0)
(-0.213611 -0.0421315 0)
(-0.237216 -0.0379881 0)
(-0.263913 -0.026031 0)
(-0.292042 -0.0121806 0)
(-0.316381 -0.00300583 0)
(-0.319207 5.1322e-05 0)
(-0.306195 -0.00923573 0)
(-0.282065 -0.0463282 0)
(-0.300878 -0.100769 0)
(-0.391344 -0.0992669 0)
(-0.318131 -0.265276 0)
(-0.290327 -0.394498 0)
(-0.262425 -0.492435 0)
(-0.225013 -0.555167 0)
(-0.185323 -0.550289 0)
(-0.153615 -0.489368 0)
(0.0016558 -0.336281 0)
(-0.0867855 -0.000839688 0)
(-0.330559 0.240003 0)
(-0.417322 0.324482 0)
(-0.0150434 0.254161 0)
(0.0291299 0.27852 0)
(0.0200175 0.277311 0)
(0.00960855 0.273137 0)
(-0.00755212 0.266568 0)
(-0.0218466 0.263576 0)
(-0.0372075 0.261771 0)
(-0.052954 0.243051 0)
(-0.0656034 0.221619 0)
(-0.0751428 0.19886 0)
(-0.0819493 0.173609 0)
(-0.0865113 0.148293 0)
(-0.0907139 0.124145 0)
(-0.0952506 0.102244 0)
(-0.100038 0.0822051 0)
(-0.104967 0.0634569 0)
(-0.110229 0.0456475 0)
(-0.116255 0.0289978 0)
(-0.123363 0.0143099 0)
(-0.131859 0.00195813 0)
(-0.142053 -0.0080267 0)
(-0.154389 -0.0157795 0)
(-0.169772 -0.0210395 0)
(-0.189217 -0.0231656 0)
(-0.213469 -0.0212444 0)
(-0.242113 -0.0141679 0)
(-0.272632 -0.00233243 0)
(-0.302105 0.00846005 0)
(-0.325469 0.0098515 0)
(-0.337704 0.000640548 0)
(-0.343434 -0.0198517 0)
(-0.361903 -0.0501011 0)
(-0.385896 -0.0639063 0)
(-0.3981 -0.0939757 0)
(-0.375322 -0.203895 0)
(-0.260877 -0.412171 0)
(-0.247567 -0.520461 0)
(-0.230238 -0.586798 0)
(-0.205674 -0.582835 0)
(-0.174405 -0.52681 0)
(-0.172221 -0.367058 0)
(-0.255407 0.16123 0)
(-0.417497 0.321972 0)
(-0.437785 0.346588 0)
(-0.136763 0.244691 0)
(0.0181254 0.268509 0)
(0.00405048 0.289665 0)
(0.00103273 0.305203 0)
(-0.0108387 0.299518 0)
(-0.0228018 0.28847 0)
(-0.0312808 0.269139 0)
(-0.0370578 0.243756 0)
(-0.0415787 0.218457 0)
(-0.045267 0.193747 0)
(-0.0482334 0.169634 0)
(-0.0506545 0.146866 0)
(-0.0535187 0.125008 0)
(-0.0574617 0.10451 0)
(-0.0623801 0.0854111 0)
(-0.0681841 0.0675357 0)
(-0.0750332 0.0508064 0)
(-0.0832481 0.0354881 0)
(-0.0930559 0.0221573 0)
(-0.104607 0.0112314 0)
(-0.118137 0.00294232 0)
(-0.134105 -0.00253257 0)
(-0.153237 -0.0047981 0)
(-0.176241 -0.00334391 0)
(-0.203453 0.0022186 0)
(-0.234149 0.01174 0)
(-0.266094 0.0233098 0)
(-0.296259 0.0308477 0)
(-0.322888 0.0269618 0)
(-0.346263 0.0149404 0)
(-0.370081 -0.000552761 0)
(-0.392375 -0.022787 0)
(-0.403854 -0.0572787 0)
(-0.398573 -0.132449 0)
(-0.402386 -0.278901 0)
(-0.366056 -0.468136 0)
(-0.247433 -0.563878 0)
(-0.235656 -0.610757 0)
(-0.225274 -0.595679 0)
(-0.211631 -0.517616 0)
(-0.24422 -0.344377 0)
(-0.387739 0.27296 0)
(-0.438909 0.350721 0)
(-0.446375 0.3597 0)
(-0.0494508 0.285029 0)
(-0.00998701 0.206647 0)
(-0.0280929 0.288445 0)
(-0.0204111 0.303117 0)
(-0.0202077 0.295998 0)
(-0.0200495 0.281814 0)
(-0.0181144 0.262822 0)
(-0.0154664 0.239766 0)
(-0.013795 0.215906 0)
(-0.0131065 0.192487 0)
(-0.0133327 0.16996 0)
(-0.0145329 0.148531 0)
(-0.0169864 0.127992 0)
(-0.0208962 0.108587 0)
(-0.0261953 0.0904509 0)
(-0.0328668 0.073578 0)
(-0.0410477 0.058022 0)
(-0.0509491 0.0440743 0)
(-0.0627156 0.0322267 0)
(-0.0764347 0.0229249 0)
(-0.0922735 0.016531 0)
(-0.110572 0.0133995 0)
(-0.1318 0.0139588 0)
(-0.156327 0.0185242 0)
(-0.184134 0.0269543 0)
(-0.214403 0.0382106 0)
(-0.245255 0.0493547 0)
(-0.274822 0.0545921 0)
(-0.303206 0.0500597 0)
(-0.330691 0.038868 0)
(-0.355393 0.0213434 0)
(-0.37301 -0.00763951 0)
(-0.37607 -0.0574372 0)
(-0.364527 -0.149229 0)
(-0.360513 -0.298811 0)
(-0.349633 -0.482899 0)
(-0.263345 -0.618076 0)
(-0.246485 -0.631958 0)
(-0.246301 -0.597642 0)
(-0.249633 -0.492163 0)
(-0.314433 -0.248849 0)
(-0.45769 0.329069 0)
(-0.442918 0.358903 0)
(-0.447202 0.369378 0)
(-0.460273 0.39019 0)
(-0.00733992 0.309722 0)
(-0.015922 0.234462 0)
(-0.033877 0.278436 0)
(-0.0239016 0.291037 0)
(-0.015284 0.286659 0)
(-0.00641862 0.274399 0)
(0.00220345 0.257004 0)
(0.00944393 0.23608 0)
(0.0145934 0.213938 0)
(0.0177903 0.191868 0)
(0.0191517 0.170513 0)
(0.0187545 0.150167 0)
(0.0166119 0.130852 0)
(0.0127233 0.112731 0)
(0.00714065 0.0958882 0)
(-0.000136375 0.0803593 0)
(-0.0091879 0.0662703 0)
(-0.0201359 0.0539163 0)
(-0.0330599 0.0437375 0)
(-0.0480015 0.0361935 0)
(-0.0650455 0.0317263 0)
(-0.0843641 0.0307756 0)
(-0.106154 0.0337374 0)
(-0.130473 0.0407188 0)
(-0.157042 0.0511596 0)
(-0.185031 0.0633911 0)
(-0.213089 0.0740901 0)
(-0.240291 0.0786183 0)
(-0.26661 0.0740728 0)
(-0.291269 0.0606481 0)
(-0.311276 0.037254 0)
(-0.322425 -0.000884145 0)
(-0.320702 -0.0621103 0)
(-0.307602 -0.161424 0)
(-0.298332 -0.310124 0)
(-0.296178 -0.492223 0)
(-0.267383 -0.651641 0)
(-0.265145 -0.645438 0)
(-0.26943 -0.592309 0)
(-0.283917 -0.454426 0)
(-0.374223 -0.132595 0)
(-0.461762 0.34469 0)
(-0.437851 0.360777 0)
(-0.442232 0.376768 0)
(-0.453136 0.401807 0)
(0.0156309 0.299199 0)
(-0.00338806 0.267164 0)
(-0.0188543 0.279115 0)
(-0.00975796 0.28299 0)
(0.00131491 0.277685 0)
(0.0134884 0.265795 0)
(0.024794 0.249375 0)
(0.0341126 0.230139 0)
(0.0410362 0.209842 0)
(0.045598 0.189547 0)
(0.047915 0.169847 0)
(0.0481282 0.151066 0)
(0.0463325 0.133349 0)
(0.0425909 0.116809 0)
(0.0369613 0.10152 0)
(0.0294619 0.0875671 0)
(0.0200604 0.0751144 0)
(0.00870695 0.0644537 0)
(-0.00461708 0.0559933 0)
(-0.0198995 0.0501917 0)
(-0.0371335 0.0475183 0)
(-0.0563206 0.0484244 0)
(-0.0774159 0.0532303 0)
(-0.100223 0.0618554 0)
(-0.12429 0.0734416 0)
(-0.148847 0.0859933 0)
(-0.172958 0.0961758 0)
(-0.196009 0.0999045 0)
(-0.217728 0.0941085 0)
(-0.23691 0.0774303 0)
(-0.250838 0.0478789 0)
(-0.256491 0.0012685 0)
(-0.252086 -0.0688985 0)
(-0.240762 -0.172058 0)
(-0.232626 -0.31503 0)
(-0.234814 -0.489196 0)
(-0.274402 -0.650158 0)
(-0.285489 -0.643967 0)
(-0.297763 -0.579889 0)
(-0.317671 -0.413572 0)
(-0.403767 -0.049395 0)
(-0.439861 0.340344 0)
(-0.427542 0.360988 0)
(-0.43173 0.382635 0)
(-0.439776 0.411095 0)
(0.0207501 0.28498 0)
(0.0103094 0.284059 0)
(0.00262557 0.280075 0)
(0.0106329 0.275577 0)
(0.0219 0.267522 0)
(0.0345146 0.255376 0)
(0.0463987 0.239996 0)
(0.0564216 0.222611 0)
(0.064119 0.204398 0)
(0.0694119 0.186164 0)
(0.0723687 0.168432 0)
(0.0731061 0.151517 0)
(0.0717282 0.13559 0)
(0.0683172 0.120772 0)
(0.0629384 0.107164 0)
(0.0556262 0.0948835 0)
(0.046388 0.0841157 0)
(0.0352276 0.0751437 0)
(0.0221781 0.0683477 0)
(0.00731215 0.0641651 0)
(-0.00926562 0.0630518 0)
(-0.0274106 0.0654174 0)
(-0.0468904 0.0714813 0)
(-0.0673234 0.0810087 0)
(-0.0881553 0.0929612 0)
(-0.108685 0.105211 0)
(-0.128217 0.1145 0)
(-0.146295 0.116979 0)
(-0.162541 0.109337 0)
(-0.175903 0.0892245 0)
(-0.184433 0.0541183 0)
(-0.18621 0.000572668 0)
(-0.180882 -0.0756687 0)
(-0.172093 -0.179019 0)
(-0.16839 -0.309502 0)
(-0.179927 -0.458933 0)
(-0.258303 -0.604434 0)
(-0.299972 -0.627451 0)
(-0.327033 -0.564424 0)
(-0.354901 -0.378043 0)
(-0.40351 0.0203364 0)
(-0.419773 0.321765 0)
(-0.415235 0.360033 0)
(-0.417359 0.38719 0)
(-0.422379 0.417905 0)
(0.0168917 0.270142 0)
(0.0190242 0.287416 0)
(0.0206199 0.277049 0)
(0.02941 0.267295 0)
(0.0408043 0.25692 0)
(0.0531972 0.244565 0)
(0.0649458 0.23027 0)
(0.0750545 0.214664 0)
(0.0830496 0.19848 0)
(0.0887773 0.182309 0)
(0.0922411 0.166578 0)
(0.0935131 0.151572 0)
(0.0926789 0.137473 0)
(0.0898163 0.124416 0)
(0.0849907 0.112522 0)
(0.0782496 0.101927 0)
(0.0696296 0.0928209 0)
(0.0591752 0.0854727 0)
(0.0469649 0.080229 0)
(0.0331273 0.0774888 0)
(0.0178493 0.0776599 0)
(0.0013919 0.0810784 0)
(-0.0158795 0.0878604 0)
(-0.0334711 0.0976495 0)
(-0.0507777 0.109314 0)
(-0.0671624 0.120717 0)
(-0.0820902 0.128719 0)
(-0.0952396 0.129615 0)
(-0.106346 0.119891 0)
(-0.114751 0.0966159 0)
(-0.1193 0.0570549 0)
(-0.118933 -0.00157749 0)
(-0.113792 -0.0816841 0)
(-0.10657 -0.183957 0)
(-0.103238 -0.303318 0)
(-0.110309 -0.426396 0)
(-0.140625 -0.539478 0)
(-0.22912 -0.603016 0)
(-0.328485 -0.533022 0)
(-0.388558 -0.340128 0)
(-0.395834 0.0586723 0)
(-0.406637 0.303921 0)
(-0.40322 0.357135 0)
(-0.401557 0.389463 0)
(-0.403123 0.422051 0)
(0.0127919 0.254314 0)
(0.0234824 0.281383 0)
(0.0323691 0.269813 0)
(0.0432715 0.257827 0)
(0.0553381 0.24625 0)
(0.0676863 0.233955 0)
(0.0792688 0.220668 0)
(0.0893519 0.206644 0)
(0.0975277 0.19231 0)
(0.10362 0.178073 0)
(0.107591 0.164261 0)
(0.109474 0.151116 0)
(0.109329 0.138816 0)
(0.107222 0.127499 0)
(0.103216 0.117294 0)
(0.097368 0.108343 0)
(0.0897352 0.100831 0)
(0.0803935 0.0950052 0)
(0.0694575 0.091171 0)
(0.0571002 0.0896742 0)
(0.043569 0.090855 0)
(0.0292018 0.0949633 0)
(0.0144441 0.102014 0)
(-0.000155885 0.111562 0)
(-0.0139908 0.12245 0)
(-0.026495 0.132606 0)
(-0.0372686 0.139049 0)
(-0.0461504 0.138221 0)
(-0.0531013 0.126529 0)
(-0.0579197 0.100751 0)
(-0.0601437 0.0580587 0)
(-0.0593509 -0.00389561 0)
(-0.0557833 -0.0863857 0)
(-0.0509224 -0.188297 0)
(-0.0476051 -0.302636 0)
(-0.0497917 -0.412971 0)
(-0.0557563 -0.494509 0)
(-0.0477093 -0.504439 0)
(-0.0997707 -0.482767 0)
(-0.386004 -0.27331 0)
(-0.395527 0.112448 0)
(-0.396765 0.289292 0)
(-0.391711 0.350316 0)
(-0.385772 0.388108 0)
(-0.38325 0.422847 0)
(0.0105934 0.238968 0)
(0.0253452 0.269535 0)
(0.0388528 0.25904 0)
(0.0519397 0.246863 0)
(0.0649523 0.235141 0)
(0.0775438 0.22329 0)
(0.089153 0.211044 0)
(0.0993112 0.198482 0)
(0.107716 0.185844 0)
(0.114211 0.1734 0)
(0.118744 0.161394 0)
(0.121326 0.150026 0)
(0.121998 0.139455 0)
(0.120814 0.129815 0)
(0.117833 0.121233 0)
(0.113119 0.113848 0)
(0.106744 0.107833 0)
(0.0988066 0.103406 0)
(0.0894473 0.100826 0)
(0.0788688 0.100377 0)
(0.0673538 0.102324 0)
(0.0552788 0.106827 0)
(0.043119 0.113813 0)
(0.0314283 0.122781 0)
(0.0207775 0.132588 0)
(0.0116455 0.141279 0)
(0.00429907 0.146077 0)
(-0.00127545 0.143618 0)
(-0.00529791 0.130359 0)
(-0.0079981 0.102972 0)
(-0.00949031 0.0585622 0)
(-0.00984326 -0.00505918 0)
(-0.00930059 -0.088726 0)
(-0.00835241 -0.190915 0)
(-0.00753781 -0.304995 0)
(-0.00687308 -0.416279 0)
(-0.00236912 -0.498787 0)
(0.042191 -0.517114 0)
(0.104881 -0.453503 0)
(-0.329395 -0.0196587 0)
(-0.390159 0.173089 0)
(-0.386548 0.280037 0)
(-0.37866 0.340167 0)
(-0.369266 0.382669 0)
(-0.362625 0.419846 0)
(0.00957676 0.224031 0)
(0.0257716 0.25471 0)
(0.0417693 0.245824 0)
(0.0564495 0.234477 0)
(0.0703142 0.223359 0)
(0.0832685 0.212325 0)
(0.0950506 0.201217 0)
(0.105394 0.190062 0)
(0.114099 0.179003 0)
(0.121049 0.168223 0)
(0.126196 0.157902 0)