/*--------------------------------*- C++ -*----------------------------------*\
| =========                 |                                                 |
| \\      /  F ield         | OpenFOAM: The Open Source CFD Toolbox           |
|  \\    /   O peration     | Version:  5.0                                   |
|   \\  /    A nd           | Web:      www.OpenFOAM.org                      |
|    \\/     M anipulation  |                                                 |
\*---------------------------------------------------------------------------*/
FoamFile
{
    version     2.0;
    format      ascii;
    class       volScalarField;
    location    "0.7";
    object      alpha.water;
}
// * * * * * * * * * * * * * * * * * * * * * * * * * * * * * * * * * * * * * //

dimensions      [0 0 0 0 0 0 0];

internalField   nonuniform List<scalar> 
1915
(
-3.53422e-18
-3.52241e-18
-3.26559e-18
-2.84265e-18
-2.34823e-18
-1.8611e-18
-1.43012e-18
-1.07537e-18
-8.69126e-19
-1.10649e-18
-2.51196e-18
-7.68262e-18
-2.58584e-17
-8.78126e-17
-2.93401e-16
-9.54649e-16
-3.00966e-15
-9.18899e-15
-2.72487e-14
-7.89584e-14
-2.26261e-13
-6.53935e-13
-1.91202e-12
-5.33723e-12
-1.27268e-11
-4.55122e-26
-2.32819e-25
-1.21657e-24
-5.39409e-24
-2.03791e-23
-6.54224e-23
-1.82305e-22
-4.62254e-22
-1.13001e-21
-2.77009e-21
-6.79585e-21
-1.61474e-20
-3.58447e-20
-7.25871e-20
-1.32737e-19
-2.1874e-19
-3.25135e-19
-4.36658e-19
-5.31164e-19
-5.86967e-19
-5.91428e-19
-5.46116e-19
-4.6522e-19
-3.68896e-19
-2.7537e-19
-1.95873e-19
-1.34393e-19
-8.99233e-20
-6.1052e-20
-6.90579e-20
-1.8644e-19
-7.43082e-19
-3.22005e-18
-1.36315e-17
-5.52673e-17
-2.13543e-16
-7.84802e-16
-2.74787e-15
-9.21435e-15
-2.99314e-14
-9.6162e-14
-3.13557e-13
-1.03085e-12
-3.16719e-12
-8.08561e-12
-9.807e-27
-5.03743e-26
-2.66428e-25
-1.1876e-24
-4.44579e-24
-1.39994e-23
-3.81682e-23
-9.5144e-23
-2.30885e-22
-5.66405e-22
-1.39137e-21
-3.29032e-21
-7.20591e-21
-1.42695e-20
-2.53245e-20
-4.02451e-20
-5.73496e-20
-7.33958e-20
-8.45458e-20
-8.78735e-20
-8.26402e-20
-7.06081e-20
-5.51463e-20
-3.97167e-20
-2.66639e-20
-1.69104e-20
-1.02753e-20
-6.05419e-21
-3.4768e-21
-3.09621e-21
-1.03126e-20
-5.81759e-20
-3.38235e-19
-1.8393e-18
-9.25092e-18
-4.31739e-17
-1.87715e-16
-7.63753e-16
-2.92989e-15
-1.07947e-14
-3.93456e-14
-1.45895e-13
-5.39682e-13
-1.82161e-12
-5.01806e-12
-1.78349e-27
-9.17607e-27
-4.9012e-26
-2.18658e-25
-8.07317e-25
-2.48038e-24
-6.56378e-24
-1.58973e-23
-3.77837e-23
-9.18052e-23
-2.24948e-22
-5.30482e-22
-1.1516e-21
-2.241e-21
-3.87647e-21
-5.96229e-21
-8.17014e-21
-9.98723e-21
-1.09144e-20
-1.06862e-20
-9.39087e-21
-7.42787e-21
-5.31437e-21
-3.4672e-21
-2.08667e-21
-1.17476e-21
-6.2678e-22
-3.1782e-22
-1.40933e-22
-3.92913e-23
-2.59533e-22
-2.07396e-21
-2.025e-20
-1.59408e-19
-1.08889e-18
-6.59362e-18
-3.57514e-17
-1.75218e-16
-7.89448e-16
-3.33726e-15
-1.41729e-14
-6.12834e-14
-2.60822e-13
-9.83572e-13
-2.97977e-12
-2.62719e-28
-1.35035e-27
-7.26358e-27
-3.22859e-26
-1.16938e-25
-3.47694e-25
-8.80203e-25
-2.02406e-24
-4.58544e-24
-1.08264e-23
-2.6381e-23
-6.2638e-23
-1.36636e-22
-2.64405e-22
-4.49859e-22
-6.74329e-22
-8.93391e-22
-1.04699e-21
-1.08832e-21
-1.00595e-21
-8.27597e-22
-6.068e-22
-3.97839e-22
-2.34845e-22
-1.26219e-22
-6.25887e-23
-2.86427e-23
-1.07551e-23
4.13409e-25
2.21162e-23
2.676e-22
2.00218e-21
1.37489e-20
7.97088e-20
3.93961e-19
1.5328e-18
3.98749e-18
1.38042e-18
-3.13025e-17
-3.02957e-16
-2.38947e-15
-1.67171e-14
-9.89162e-14
-4.60001e-13
-1.61992e-12
-2.93856e-29
-1.50443e-28
-8.12324e-28
-3.58e-27
-1.26321e-26
-3.58784e-26
-8.45915e-26
-1.75688e-25
-3.53456e-25
-7.6506e-25
-1.83841e-24
-4.5529e-24
-1.04345e-23
-2.0769e-23
-3.55633e-23
-5.2766e-23
-6.83535e-23
-7.72919e-23
-7.66497e-23
-6.70094e-23
-5.16832e-23
-3.5159e-23
-2.11218e-23
-1.12592e-23
-5.37111e-24
-2.28802e-24
-7.62796e-25
5.73806e-26
2.23581e-24
2.92506e-23
2.5489e-22
2.20103e-21
1.77356e-20
1.32927e-19
8.68702e-19
4.7903e-18
2.35016e-17
1.09655e-16
4.97606e-16
2.13486e-15
7.36081e-15
1.56371e-14
-7.21171e-16
-1.2504e-13
-7.01802e-13
-2.21841e-30
-1.12754e-29
-6.08925e-29
-2.64628e-28
-9.01189e-28
-2.39483e-27
-4.99624e-27
-8.22575e-27
-1.07341e-26
-1.19838e-26
-1.97421e-26
-8.49697e-26
-3.0926e-25
-7.70465e-25
-1.46952e-24
-2.27448e-24
-2.98487e-24
-3.31599e-24
-3.14849e-24
-2.60038e-24
-1.87498e-24
-1.17893e-24
-6.45615e-25
-3.07967e-25
-1.26622e-25
-3.85624e-26
4.93482e-27
1.64182e-25
2.09215e-24
2.01124e-23
2.06195e-22
1.94267e-21
1.69196e-20
1.34442e-19
9.76275e-19
6.32343e-18
3.54793e-17
1.82049e-16
9.26478e-16
4.71099e-15
2.04619e-14
6.6425e-14
1.51852e-13
1.73946e-13
-5.80755e-14
-8.47792e-32
-4.26286e-31
-2.29339e-30
-9.76807e-30
-3.17454e-29
-7.69682e-29
-1.3317e-28
-1.37848e-28
3.48552e-30
7.32867e-28
6.05795e-27
1.28902e-26
1.48979e-26
1.09836e-26
-3.16285e-27
-1.6596e-26
-3.34894e-26
-4.38773e-26
-4.07334e-26
-3.10015e-26
-2.00538e-26
-1.10671e-26
-5.18023e-27
-1.98262e-27
-4.29702e-28
3.68749e-28
8.94575e-27
9.60279e-26
1.07402e-24
1.27578e-23
1.37674e-22
1.40597e-21
1.35397e-20
1.20267e-19
9.44844e-19
6.47603e-18
4.04441e-17
2.44117e-16
1.42352e-15
7.64975e-15
3.59906e-14
1.32337e-13
3.6152e-13
7.14997e-13
8.75148e-13
-1.07087e-48
1.59547e-48
2.23267e-47
6.6789e-49
4.62731e-50
-1.86268e-49
-6.86384e-49
-1.78473e-45
1.76138e-39
6.1754e-34
1.22401e-30
3.67721e-29
1.57938e-28
6.03869e-29
2.94152e-28
6.88774e-28
6.06986e-28
1.25996e-28
1.14559e-29
3.26756e-30
1.23384e-30
6.93294e-31
6.01315e-31
1.70264e-30
2.58728e-29
2.77851e-28
2.87747e-27
4.13048e-26
5.58279e-25
6.80782e-24
7.80786e-23
8.51175e-22
8.88806e-21
8.7474e-20
7.74515e-19
5.89574e-18
3.91904e-17
2.51062e-16
1.752e-15
1.16796e-14
5.80847e-14
2.23054e-13
6.58936e-13
1.47419e-12
2.41376e-12
-1.98562e-49
-3.46731e-52
9.06885e-53
2.44019e-54
-2.91562e-52
3.23732e-52
4.5706e-45
7.09927e-41
1.72997e-39
4.15532e-39
2.59304e-39
2.54643e-38
1.97811e-36
2.74682e-35
2.30211e-34
9.31495e-34
6.16182e-34
2.46738e-38
2.7544e-38
9.85553e-37
2.4142e-35
5.38971e-34
1.12406e-32
2.2179e-31
4.06642e-30
7.21978e-29
1.20651e-27
1.79257e-26
2.46041e-25
3.16551e-24
3.81649e-23
4.40232e-22
4.91542e-21
5.23406e-20
5.09032e-19
4.34003e-18
3.26147e-17
2.32635e-16
1.72991e-15
1.34776e-14
8.71302e-14
3.55362e-13
1.08428e-12
2.57516e-12
4.58977e-12
-2.10024e-50
-3.74308e-53
-1.62644e-54
-1.53526e-55
-4.40521e-55
-2.96641e-52
8.20409e-51
2.44617e-45
9.49828e-43
1.93515e-41
8.41421e-41
1.2435e-40
7.65885e-41
2.61535e-41
2.52419e-41
2.53423e-41
3.23035e-41
3.10892e-40
1.35232e-38
3.8379e-37
9.56603e-36
2.18096e-34
4.56684e-33
8.89159e-32
1.613e-30
2.72761e-29
4.371e-28
6.68426e-27
9.61606e-26
1.29017e-24
1.6264e-23
1.9661e-22
2.32271e-21
2.64976e-20
2.78402e-19
2.5885e-18
2.17255e-17
1.78074e-16
1.52397e-15
1.30197e-14
9.54973e-14
5.1386e-13
1.71494e-12
4.22525e-12
7.84695e-12
-1.08766e-51
-1.6818e-54
-1.70011e-54
-5.99683e-54
-9.46708e-65
2.55701e-57
2.36482e-54
2.34552e-50
2.34301e-46
1.83794e-44
1.94006e-43
6.98429e-43
1.42355e-42
2.12033e-42
2.5451e-42
2.98801e-42
5.53146e-42
1.07144e-40
3.45652e-39
9.73046e-38
2.51142e-36
5.84567e-35
1.2492e-33
2.49927e-32
4.72465e-31
8.43209e-30
1.41565e-28
2.23593e-27
3.32502e-26
4.64251e-25
6.09718e-24
7.66896e-23
9.46882e-22
1.14477e-20
1.2969e-19
1.30802e-18
1.19033e-17
1.08268e-16
1.08545e-15
1.10514e-14
9.11608e-14
5.41228e-13
2.30988e-12
6.63415e-12
1.31822e-11
-3.41109e-61
-6.12012e-60
-2.96504e-59
0
-1.10477e-62
2.58974e-59
2.42274e-56
6.13171e-53
1.9083e-48
4.97805e-46
8.96571e-45
4.13387e-44
8.99286e-44
1.35183e-43
1.74976e-43
2.37025e-43
8.42716e-43
2.68691e-41
8.75362e-40
2.55097e-38
6.73626e-37
1.60471e-35
3.48694e-34
7.04013e-33
1.34021e-31
2.41765e-30
4.1324e-29
6.68878e-28
1.02433e-26
1.48137e-25
2.0244e-24
2.64612e-23
3.38457e-22
4.26054e-21
5.12636e-20
5.60708e-19
5.53538e-18
5.41185e-17
6.08643e-16
7.58563e-15
7.64628e-14
5.12054e-13
2.32206e-12
7.90417e-12
1.99868e-11
-8.4998e-62
-1.72792e-60
-1.06261e-59
-1.17425e-60
-3.17075e-63
-1.59045e-60
5.17466e-58
1.64806e-54
4.67082e-50
2.39593e-47
5.47253e-46
2.84522e-45
6.43201e-45
9.63292e-45
1.25726e-44
1.97196e-44
1.99443e-43
6.93938e-42
2.11343e-40
6.0398e-39
1.60195e-37
3.87767e-36
8.56162e-35
1.7538e-33
3.39617e-32
6.25637e-31
1.09325e-29
1.80766e-28
2.83027e-27
4.20652e-26
5.96405e-25
8.14528e-24
1.08359e-22
1.40285e-21
1.73613e-20
2.00097e-19
2.14036e-18
2.27312e-17
2.79775e-16
4.15369e-15
5.2946e-14
4.25052e-13
2.1538e-12
7.70141e-12
2.1291e-11
-9.78679e-63
-2.16436e-61
-1.66201e-60
-3.99241e-60
-1.70899e-72
3.77901e-62
7.07647e-60
2.36382e-56
2.40044e-52
5.20467e-49
1.81338e-47
1.18001e-46
2.9683e-46
4.7587e-46
7.0137e-46
1.88015e-45
4.88008e-44
1.60761e-42
4.76742e-41
1.34632e-39
3.56593e-38
8.72732e-37
1.9546e-35
4.04845e-34
7.91671e-33
1.47855e-31
2.63354e-30
4.44537e-29
7.07846e-28
1.06701e-26
1.55009e-25
2.22272e-24
3.15183e-23
4.25846e-22
5.27262e-21
6.01388e-20
6.63279e-19
7.70282e-18
1.07825e-16
1.90527e-15
3.02055e-14
2.96474e-13
1.7325e-12
6.81282e-12
2.0202e-11
-2.42587e-68
-1.71904e-67
-8.81686e-70
-4.78249e-83
-2.68467e-68
1.68221e-63
6.19926e-61
3.94852e-58
1.43119e-54
9.34513e-51
5.39995e-49
4.48849e-48
1.25794e-47
2.17585e-47
3.83608e-47
2.67697e-46
1.0456e-44
3.36719e-43
9.95687e-42
2.7718e-40
7.28521e-39
1.79292e-37
4.07001e-36
8.53759e-35
1.68474e-33
3.17976e-32
5.76949e-31
9.98139e-30
1.61646e-28
2.43217e-27
3.51888e-26
5.24939e-25
8.27408e-24
1.24095e-22
1.55261e-21
1.63139e-20
1.65218e-19
1.95997e-18
3.27144e-17
7.52175e-16
1.48326e-14
1.74391e-13
1.17848e-12
5.16392e-12
1.68132e-11
-5.97953e-69
-6.25047e-68
-6.83468e-68
0
-3.14056e-69
1.96336e-65
1.91722e-62
4.75709e-60
9.8221e-57
1.13716e-52
1.03089e-50
1.07944e-49
3.4917e-49
7.12218e-49
1.93831e-48
4.5697e-47
1.86221e-45
6.10483e-44
1.84228e-42
5.13572e-41
1.34858e-39
3.33908e-38
7.69072e-37
1.63675e-35
3.25371e-34
6.17286e-33
1.13877e-31
2.03425e-30
3.37861e-29
5.02011e-28
6.95796e-27
1.04357e-25
1.91684e-24
3.56834e-23
4.81005e-22
4.47238e-21
3.57812e-20
3.59666e-19
6.84294e-18
2.38004e-16
6.34838e-15
8.85811e-14
6.82726e-13
3.30955e-12
1.16764e-11
-6.43719e-70
-8.68218e-69
-3.56161e-68
-8.22088e-74
2.36227e-69
9.30074e-67
1.04392e-64
1.35626e-62
1.27614e-59
4.88013e-55
8.34379e-53
1.23279e-51
5.42925e-51
1.74375e-50
1.59482e-49
7.31857e-48
2.81912e-46
9.57601e-45
2.95958e-43
8.36121e-42
2.21202e-40
5.52969e-39
1.29519e-37
2.80466e-36
5.62062e-35
1.06785e-33
1.99662e-32
3.70794e-31
6.40016e-30
9.39966e-29
1.21407e-27
1.74825e-26
3.89586e-25
1.02495e-23
1.60531e-22
1.32909e-21
7.6274e-21
5.0204e-20
8.45187e-19
5.12405e-17
2.17782e-15
3.83375e-14
3.40846e-13
1.83298e-12
6.87381e-12
-1.5249e-74
-8.92434e-74
-3.78941e-83
3.63204e-73
7.11097e-68
9.57121e-66
1.11978e-64
8.89107e-64
6.10341e-60
4.30741e-58
1.55215e-56
1.13953e-54
2.58521e-53
5.44177e-52
2.42515e-50
1.02044e-48
3.80501e-47
1.3177e-45
4.12715e-44
1.18454e-42
3.17476e-41
8.04652e-40
1.91984e-38
4.23529e-37
8.56931e-36
1.62923e-34
3.07734e-33
5.95006e-32
1.07801e-30
1.58235e-29
1.90872e-28
2.57873e-27
7.15411e-26
2.83586e-24
5.21181e-23
3.94165e-22
1.6451e-21
6.09264e-21
5.39536e-20
6.04942e-18
5.07022e-16
1.29153e-14
1.42751e-13
8.88852e-13
3.63479e-12
-2.93425e-75
-1.22431e-74
-1.83435e-86
3.13342e-74
2.11583e-68
1.18687e-65
2.68377e-64
1.14129e-63
1.54705e-60
1.00856e-58
1.16071e-57
1.15178e-56
1.02698e-54
7.19778e-53
3.36951e-51
1.2875e-49
4.78075e-48
1.63039e-46
5.09541e-45
1.47366e-43
3.99228e-42
1.02652e-40
2.49316e-39
5.5979e-38
1.14641e-36
2.19118e-35
4.17941e-34
8.36258e-33
1.5898e-31
2.36903e-30
2.74998e-29
3.53482e-28
1.20049e-26
6.55076e-25
1.30311e-23
9.15765e-23
2.99222e-22
6.6608e-22
1.68427e-21
3.06476e-19
6.64609e-17
2.91905e-15
4.59792e-14
3.63996e-13
1.75528e-12
-2.61392e-76
-1.04193e-75
-5.67516e-78
3.29574e-76
6.24222e-72
6.98884e-67
1.63909e-64
2.56195e-63
1.14866e-62
4.80593e-61
2.60961e-59
2.5385e-57
1.61073e-55
7.9358e-54
3.56931e-52
1.49981e-50
5.52669e-49
1.83282e-47
5.66995e-46
1.63673e-44
4.4508e-43
1.15595e-41
2.84661e-40
6.48994e-39
1.35117e-37
2.62545e-36
5.08784e-35
1.04115e-33
2.04839e-32
3.14236e-31
3.66605e-30
4.64112e-29
1.71137e-27
1.01168e-25
1.92005e-24
1.21209e-23
3.5344e-23
6.71182e-23
5.97196e-23
5.1269e-21
4.38387e-18
3.86306e-16
1.00398e-14
1.14829e-13
7.23377e-13
-6.52817e-79
0
2.39909e-81
3.12322e-77
1.89356e-72
8.42414e-68
1.08177e-65
1.56922e-64
9.96585e-64
1.02577e-61
5.35272e-60
2.57526e-58
1.33633e-56
6.88532e-55
3.53748e-53
1.54683e-51
5.62173e-50
1.84266e-48
5.66343e-47
1.63173e-45
4.43881e-44
1.1562e-42
2.86773e-41
6.63201e-40
1.41499e-38
2.84148e-37
5.66972e-36
1.1736e-34
2.32758e-33
3.68869e-32
4.5112e-31
5.77448e-30
1.75637e-28
8.9429e-27
1.66048e-25
1.0559e-24
3.11893e-24
6.29672e-24
6.97556e-24
3.16111e-23
1.65742e-19
3.00912e-17
1.33108e-15
2.44397e-14
2.23042e-13
-1.89796e-79
-3.39816e-97
-4.31124e-83
2.24225e-78
1.26793e-73
5.25983e-69
8.59902e-67
1.38845e-65
9.30261e-65
7.41251e-63
4.45703e-61
2.63291e-59
1.44697e-57
7.11701e-56
3.26652e-54
1.35867e-52
4.94251e-51
1.61561e-49
4.96487e-48
1.44227e-46
3.948e-45
1.02669e-43
2.54551e-42
5.97671e-41
1.31899e-39
2.77085e-38
5.7634e-37
1.20763e-35
2.35195e-34
3.73525e-33
4.78995e-32
6.34679e-31
1.53113e-29
5.81351e-28
1.03585e-26
6.94156e-26
2.19752e-25
4.67932e-25
7.08111e-25
1.04705e-23
1.25619e-20
2.00049e-18
1.10581e-16
3.12482e-15
4.41503e-14
-2.57154e-80
-1.66533e-84
-8.19319e-82
2.40254e-76
1.50987e-72
3.53911e-70
2.81438e-68
5.37691e-67
5.3989e-66
5.14372e-64
3.76882e-62
2.24614e-60
1.13522e-58
5.36173e-57
2.47079e-55
1.03289e-53
3.73754e-52
1.21887e-50
3.76707e-49
1.11216e-47
3.09361e-46
8.05539e-45
1.9874e-43
4.73378e-42
1.085e-40
2.37495e-39
5.1004e-38
1.08156e-36
2.04844e-35
3.11658e-34
3.99768e-33
5.56035e-32
1.22474e-30
3.39159e-29
5.13942e-28
3.34203e-27
1.07278e-26
2.2884e-26
3.41318e-26
1.02949e-23
3.89607e-21
2.42296e-19
8.96799e-18
2.71383e-16
5.39817e-15
-2.57384e-82
-1.65386e-86
2.20072e-82
5.84045e-76
1.94394e-72
9.28049e-71
6.34876e-70
1.20019e-69
2.98244e-67
2.76277e-65
2.26299e-63
1.43955e-61
7.56296e-60
3.55691e-58
1.54624e-56
6.23595e-55
2.30022e-53
7.7502e-52
2.43278e-50
7.27239e-49
2.06673e-47
5.45626e-46
1.34366e-44
3.23161e-43
7.71578e-42
1.75114e-40
3.73701e-39
7.61741e-38
1.35485e-36
1.92047e-35
2.46936e-34
3.99039e-33
9.10197e-32
1.97792e-30
2.36383e-29
1.28508e-28
3.27388e-28
4.29871e-28
5.51668e-28
2.46821e-24
1.03977e-21
4.88304e-20
1.20086e-18
2.66035e-17
5.30373e-16
-1.27548e-82
-3.1354e-87
6.70252e-84
2.02022e-78
8.98479e-74
8.27953e-72
6.54341e-71
1.32788e-70
1.58602e-68
1.51465e-66
1.12515e-64
6.95136e-63
3.77034e-61
1.79619e-59
7.62184e-58
2.99777e-56
1.12001e-54
3.88404e-53
1.2342e-51
3.71678e-50
1.0865e-48
2.97105e-47
7.36223e-46
1.75991e-44
4.43732e-43
1.09643e-41
2.26027e-40
3.74146e-39
5.10566e-38
6.59699e-37
1.40506e-35
4.77407e-34
9.59015e-33
1.17291e-31
8.18869e-31
2.87396e-30
5.75117e-30
6.59506e-30
8.83606e-30
1.21997e-25
1.48558e-22
8.47868e-21
1.9368e-19
3.40105e-18
5.90501e-17
-2.38943e-83
-1.47416e-88
-9.00669e-86
3.64904e-79
1.13313e-76
1.62038e-75
1.88426e-75
5.46415e-72
5.85609e-70
5.89902e-68
4.75583e-66
2.92379e-64
1.50196e-62
6.82435e-61
2.89762e-59
1.16337e-57
4.31873e-56
1.4557e-54
4.54603e-53
1.38104e-51
4.22736e-50
1.25152e-48
3.2481e-47
7.42879e-46
1.84423e-44
5.16815e-43
9.83472e-42
1.04002e-40
8.28972e-40
1.31206e-38
2.09605e-36
1.00377e-34
1.014e-33
3.52597e-33
6.64626e-33
8.87491e-33
9.14483e-33
1.34668e-32
2.47318e-31
3.54359e-27
1.57672e-23
1.11326e-21
2.76792e-20
4.59439e-19
7.20302e-18
0
3.0736e-91
1.31463e-85
8.31226e-80
4.16505e-77
8.61766e-76
2.26418e-75
2.23262e-73
2.10883e-71
1.92455e-69
1.49341e-67
8.89756e-66
4.45736e-64
1.95635e-62
8.05184e-61
3.17043e-59
1.15289e-57
3.82966e-56
1.24186e-54
4.15013e-53
1.35774e-51
4.28257e-50
1.37267e-48
3.42479e-47
5.48517e-46
6.75259e-45
7.76461e-44
8.31809e-43
9.41756e-42
2.25798e-39
2.0297e-37
2.86531e-36
1.15555e-35
2.04455e-35
2.33071e-35
1.20125e-35
1.6744e-35
3.60067e-34
4.17393e-32
7.07243e-29
1.59313e-24
1.35524e-22
3.47261e-21
5.31214e-20
7.69499e-19
-3.95598e-107
-2.23746e-91
9.01923e-86
1.30792e-80
1.81879e-78
1.53406e-77
2.05914e-77
8.1827e-75
7.32738e-73
4.91396e-71
2.97612e-69
1.58923e-67
7.89894e-66
3.68445e-64
1.60636e-62
6.38299e-61
2.23656e-59
7.18748e-58
2.59529e-56
1.32066e-54
6.37163e-53
1.58566e-51
2.15914e-50
2.38019e-49
3.21621e-48
6.14186e-47
1.23149e-45
2.17073e-44
4.94436e-43
4.18389e-41
2.42568e-39
3.40445e-38
1.37209e-37
2.34217e-37
2.61528e-37
2.6061e-37
5.05659e-37
2.9005e-35
2.96223e-33
3.57147e-30
1.18145e-25
1.36007e-23
4.01998e-22
6.40033e-21
8.24186e-20
-5.7818e-91
-2.27913e-97
1.11952e-93
2.20181e-90
7.7643e-87
2.75938e-81
1.40024e-78
1.17165e-76
8.9695e-75
6.17339e-73
3.79122e-71
2.11844e-69
1.10259e-67
5.41431e-66
2.33928e-64
8.24677e-63
2.77728e-61
1.51753e-59
1.11428e-57
3.98376e-56
6.78808e-55
8.09715e-54
1.01884e-52
1.75255e-51
3.81375e-50
8.32978e-49
1.84219e-47
7.20912e-46
5.37725e-44
3.78246e-42
5.07959e-41
1.76395e-40
2.56137e-40
2.4653e-40
1.95793e-40
3.0462e-40
9.39169e-39
8.07763e-37
6.76845e-35
1.01713e-31
6.43608e-27
1.11715e-24
3.89265e-23
6.72814e-22
8.44825e-21
-3.10293e-91
4.29993e-98
1.0543e-93
8.93691e-91
1.49292e-87
9.7587e-83
1.10333e-80
1.00485e-78
8.02203e-77
5.65278e-75
3.57247e-73
2.09437e-71
1.13081e-69
5.14567e-68
1.96577e-66
8.52306e-65
6.54517e-63
4.05654e-61
1.15531e-59
1.82992e-58
2.33666e-57
3.65848e-56
8.94327e-55
2.37257e-53
3.98758e-52
4.29376e-51
1.45827e-48
2.58815e-46
3.97032e-45
1.38302e-44
2.00659e-44
1.51884e-44
7.36686e-46
1.69336e-45
8.12292e-44
2.56616e-42
3.25497e-41
5.17415e-39
9.2928e-37
6.93026e-34
2.2697e-28
7.26186e-26
3.05042e-24
5.94784e-23
7.81081e-22
-1.05248e-91
3.14457e-99
3.67273e-92
3.69563e-89
1.02611e-87
5.58487e-85
6.26993e-83
5.85007e-81
4.75519e-79
3.48757e-77
2.3458e-75
1.36108e-73
6.522e-72
3.02549e-70
1.92478e-68
1.47269e-66
7.40804e-65
1.96392e-63
3.19543e-62
4.68674e-61
1.01567e-59
3.24836e-58
6.94183e-57
8.35948e-56
3.66839e-54
1.38603e-51
3.65905e-50
1.71651e-49
2.73073e-49
2.04935e-49
1.97861e-51
4.80467e-51
5.64771e-49
7.61894e-47
2.06804e-45
1.78992e-44
3.01481e-42
2.59174e-40
1.42256e-38
7.14949e-36
3.3161e-30
3.77378e-27
1.9519e-25
4.34079e-24
6.10484e-23
-1.76508e-92
5.06982e-115
1.62618e-92
4.02417e-89
1.05022e-87
1.8505e-87
2.175e-85
2.09306e-83
1.78013e-81
1.33842e-79
8.69474e-78
4.94374e-76
2.77084e-74
2.08667e-72
1.81353e-70
8.10743e-69
1.76889e-67
2.85579e-66
5.81551e-65
2.07318e-63
6.58289e-62
1.03555e-60
1.11096e-59
1.76967e-57
1.65182e-55
1.8762e-54
5.22399e-54
6.42509e-54
3.17488e-54
3.36559e-55
1.68811e-54
2.40379e-52
1.3746e-50
3.26288e-49
1.79603e-47
1.25249e-45
1.59143e-44
6.04659e-42
2.67266e-39
1.02066e-36
8.31481e-33
1.48726e-28
1.01514e-26
2.64433e-25
4.01247e-24
-2.61687e-95
-4.32019e-94
-1.10329e-93
-7.05445e-111
3.10478e-95
3.31962e-90
3.9253e-88
3.97917e-86
3.3866e-84
2.5333e-82
1.83839e-80
1.3547e-78
1.17477e-76
8.94389e-75
3.41936e-73
7.73554e-72
1.58606e-70
4.39052e-69
1.84706e-67
5.98401e-66
1.00075e-64
1.46805e-63
2.74355e-61
1.22793e-59
7.92275e-59
1.4003e-58
1.11092e-58
9.25025e-62
1.83244e-60
4.12685e-58
4.17196e-56
1.09193e-54
1.18375e-53
1.28413e-52
3.90979e-51
1.18999e-48
3.88445e-46
1.31432e-43
4.36697e-41
1.15045e-38
2.47545e-35
4.00996e-30
4.11366e-28
1.31865e-26
2.20838e-25
-4.13515e-96
-7.95334e-95
-2.5338e-94
-1.28899e-118
2.49182e-98
2.90983e-93
3.26713e-91
2.89278e-89
3.3045e-87
3.31721e-85
2.21063e-83
2.35412e-81
1.56038e-79
5.74979e-78
1.57635e-76
4.23497e-75
1.5015e-73
8.0643e-72
2.9226e-70
4.94633e-69
6.93853e-68
8.37006e-66
4.19716e-64
3.18575e-63
6.2094e-63
5.44499e-63
2.1723e-66
5.44247e-64
1.0693e-61
1.71536e-60
3.64647e-60
4.8358e-60
2.96955e-58
7.89326e-56
2.34842e-53
6.98569e-51
2.23438e-48
7.15644e-46
2.07002e-43
6.70387e-41
4.97489e-37
6.01229e-32
1.22382e-29
5.13585e-28
9.82785e-27
-5.01538e-99
-1.37441e-97
-5.99333e-97
-2.91218e-108
2.89885e-103
2.72247e-97
1.2868e-94
1.14856e-92
6.68228e-91
1.12574e-88
1.70637e-86
8.2448e-85
2.11836e-83
7.95279e-82
4.16791e-80
2.29146e-78
1.44657e-76
5.36647e-75
9.55166e-74
1.45403e-72
1.19152e-70
7.37455e-69
7.46945e-68
1.7439e-67
1.70221e-67
1.373e-72
2.59498e-68
1.98171e-66
1.4051e-65
1.21902e-65
2.39e-64
4.1428e-62
9.1503e-60
2.37502e-57
6.81471e-55
2.14269e-52
6.90525e-50
2.25384e-47
6.93781e-45
1.4278e-42
6.23761e-40
8.91405e-35
2.49775e-31
1.49146e-29
3.37484e-28
-5.79149e-106
-1.74642e-104
-4.49026e-104
-4.11322e-107
1.97555e-105
1.35292e-100
1.03208e-98
4.19193e-97
1.35774e-95
9.59981e-94
2.24389e-91
1.8464e-89
1.63426e-87
9.71197e-86
6.21832e-84
5.52146e-82
2.22622e-80
4.1903e-79
7.89715e-78
7.60754e-76
5.86234e-74
7.19817e-73
1.84437e-72
1.85306e-72
2.60563e-81
1.15416e-78
4.47793e-76
1.66712e-73
5.92343e-71
1.61238e-68
3.26227e-66
7.16613e-64
1.88826e-61
5.62688e-59
1.7625e-56
5.83951e-54
1.95268e-51
6.51741e-49
2.0885e-46
5.48018e-44
1.30376e-41
9.95773e-38
2.91053e-33
2.94734e-31
8.52878e-30
-1.13911e-106
-3.09027e-105
-9.69396e-105
-4.52557e-105
6.51404e-111
5.94839e-106
5.24312e-104
7.34743e-102
6.33572e-100
6.71645e-98
5.08095e-96
4.88323e-94
4.0669e-92
2.63439e-90
1.65498e-88
6.46671e-87
2.11034e-85
1.03958e-83
9.12936e-82
8.13916e-80
1.50103e-78
5.23727e-78
6.05119e-78
2.46e-88
1.25829e-85
6.39063e-83
3.12573e-80
1.47806e-77
6.78348e-75
3.03318e-72
1.32613e-69
5.68763e-67
2.39999e-64
1.00122e-61
4.13618e-59
1.68947e-56
6.77589e-54
2.62143e-51
9.29133e-49
2.50029e-46
7.05896e-44
1.02512e-40
1.14261e-35
3.2256e-33
1.4787e-31
-4.82615e-111
-7.88016e-110
-4.88133e-109
-1.59685e-108
9.24092e-118
4.72496e-112
1.03371e-109
9.29496e-108
8.09795e-106
9.30567e-104
8.75888e-102
1.2317e-99
1.09873e-97
4.73255e-96
2.39221e-94
1.95116e-92
1.31348e-90
1.20995e-88
1.20436e-86
1.50081e-85
3.13534e-85
1.31588e-86
2.91665e-100
7.43523e-92
5.33149e-89
3.68529e-86
2.41578e-83
1.50997e-80
9.04665e-78
5.35037e-75
3.10195e-72
1.65432e-69
6.5155e-67
2.54888e-64
1.00821e-61
4.18108e-59
1.71933e-56
6.97767e-54
2.75805e-51
1.02497e-48
3.17774e-46
7.43838e-44
1.29013e-40
9.1205e-36
2.20405e-33
-1.3868e-116
-1.34031e-115
-6.80842e-115
-1.7519e-114
-9.98276e-135
1.05948e-138
-6.48465e-132
3.88961e-132
1.78038e-121
9.41186e-115
1.93284e-110
3.29031e-108
7.21191e-106
1.01131e-103
5.89402e-102
5.05885e-100
1.32945e-97
6.58106e-96
3.05351e-95
0
-1.75681e-122
0
4.00327e-102
3.0548e-97
4.77683e-94
4.43772e-91
3.93968e-88
3.35559e-85
2.75282e-82
2.18332e-79
1.67991e-76
1.25773e-73
9.18374e-71
6.54824e-68
4.55811e-65
3.08934e-62
2.02577e-59
1.26818e-56
7.37079e-54
3.69856e-51
1.52945e-48
8.88156e-46
1.91325e-42
1.86978e-37
4.72686e-35
-3.55131e-123
-9.41485e-123
-1.80716e-122
-1.18128e-122
-2.27334e-147
5.8901e-145
2.92415e-135
7.76486e-132
2.04057e-130
2.31242e-133
8.0523e-134
2.52259e-134
1.06466e-137
8.7131e-134
7.05306e-130
5.40503e-126
1.6261e-115
-2.90822e-123
-1.1715e-119
-3.17966e-116
-7.68306e-113
-1.60468e-109
-2.69402e-106
-2.84529e-103
1.77852e-102
2.75892e-99
2.30336e-96
2.66848e-93
3.65953e-90
4.83901e-87
6.19402e-84
7.70357e-81
9.34118e-78
1.10768e-74
1.28781e-71
1.47107e-68
1.65409e-65
1.83451e-62
2.0134e-59
2.20079e-56
2.42609e-53
2.7531e-50
1.16669e-45
4.87025e-40
2.23871e-37
-1.81747e-134
-1.77199e-134
-4.21135e-134
-7.6171e-134
1.3109e-147
1.73939e-147
2.5593e-145
1.85821e-139
7.1286e-134
1.10922e-131
3.97757e-131
5.03446e-134
9.66435e-140
1.05755e-137
8.71205e-134
9.94461e-126
6.68661e-123
5.72599e-122
-5.40488e-126
-2.45817e-122
-9.69541e-119
-3.1366e-115
-6.90741e-112
0
2.46708e-122
-3.29671e-115
4.31364e-114
4.66558e-110
4.84503e-106
4.7096e-102
5.21458e-98
3.71924e-95
-8.37648e-94
-2.50957e-90
-7.23336e-87
-2.01177e-83
-5.4078e-80
-1.40943e-76
-3.56703e-73
-8.76674e-70
-2.09663e-66
-4.87458e-63
8.03064e-54
2.18811e-46
5.19662e-41
2.48947e-150
1.30305e-150
3.92206e-150
2.07066e-149
1.49814e-148
1.3134e-147
9.49856e-148
1.17746e-144
1.58882e-137
2.17358e-134
3.41687e-132
8.45786e-135
7.97914e-148
-5.14221e-148
-1.63215e-136
2.3001e-126
4.6035e-123
4.91779e-122
3.26902e-150
0
3.74457e-122
4.15655e-120
3.73602e-150
1.86801e-150
-1.02497e-127
-4.77441e-128
-3.7791e-128
-4.59008e-124
-5.41072e-120
7.30917e-105
5.96299e-98
4.86859e-95
1.19668e-103
2.77215e-107
8.35783e-105
4.69388e-100
3.49949e-97
1.67771e-94
7.71144e-91
5.21359e-87
0
0
0
0
-1.92568e-73
)
;

boundaryField
{
    leftWall
    {
        type            zeroGradient;
    }
    rightWall
    {
        type            zeroGradient;
    }
    lowerWall
    {
        type            zeroGradient;
    }
    atmosphere
    {
        type            inletOutlet;
        inletValue      uniform 0;
        value           uniform 0;
    }
    defaultFaces
    {
        type            empty;
    }
    procBoundary2to0
    {
        type            processor;
        value           nonuniform List<scalar> 
46
(
-1.79012e-17
-1.92072e-17
-1.93096e-17
-1.83587e-17
-1.66706e-17
-1.45997e-17
-1.24445e-17
-1.0423e-17
-9.89975e-18
-1.33836e-17
-2.64987e-17
-6.5667e-17
-1.78963e-16
-5.01905e-16
-1.4119e-15
-3.93442e-15
-1.07932e-14
-2.91076e-14
-7.72821e-14
-2.02407e-13
-5.24503e-13
-1.35755e-12
-3.53239e-12
-8.9076e-12
-1.97978e-11
-1.83418e-25
-9.32134e-25
-4.80508e-24
-2.10973e-23
-8.00789e-23
-2.61098e-22
-7.4047e-22
-1.8987e-21
-4.64189e-21
-1.12895e-20
-2.75193e-20
-6.55655e-20
-1.47579e-19
-3.06051e-19
-5.7766e-19
-9.88798e-19
-1.53537e-18
-2.1664e-18
-2.78519e-18
-3.27396e-18
-3.27396e-18
)
;
    }
    procBoundary2to3
    {
        type            processor;
        value           nonuniform List<scalar> 
43
(
-2.38467e-11
-1.6155e-11
-1.07804e-11
-6.97096e-12
-4.24755e-12
-2.28804e-12
-8.50118e-13
2.98787e-13
2.6196e-12
6.01136e-12
1.09542e-11
1.8668e-11
3.19037e-11
4.65209e-11
4.72007e-11
4.36131e-11
3.39411e-11
2.13486e-11
1.15135e-11
5.95361e-12
2.93414e-12
1.20734e-12
3.47674e-13
6.20005e-14
7.38007e-15
8.38167e-16
1.05346e-16
1.28282e-17
1.22298e-18
1.12286e-19
9.75613e-21
7.57193e-22
4.91997e-23
2.64909e-24
1.1691e-25
4.09157e-27
1.1218e-28
2.72838e-30
1.16121e-31
1.63903e-33
9.50154e-36
1.02111e-38
8.76799e-55
)
;
    }
}


// ************************************************************************* //
