/*--------------------------------*- C++ -*----------------------------------*\
| =========                 |                                                 |
| \\      /  F ield         | OpenFOAM: The Open Source CFD Toolbox           |
|  \\    /   O peration     | Version:  5.0                                   |
|   \\  /    A nd           | Web:      www.OpenFOAM.org                      |
|    \\/     M anipulation  |                                                 |
\*---------------------------------------------------------------------------*/
FoamFile
{
    version     2.0;
    format      ascii;
    class       surfaceScalarField;
    location    "0.7";
    object      alphaPhi10;
}
// * * * * * * * * * * * * * * * * * * * * * * * * * * * * * * * * * * * * * //

dimensions      [0 3 -1 0 0 0 0];

internalField   nonuniform List<scalar> 
3742
(
-1.32589e-24
4.61644e-24
-2.56609e-24
3.79504e-24
-3.61392e-24
2.81346e-24
-4.28317e-24
1.88091e-24
-4.52072e-24
1.12899e-24
-4.38747e-24
5.96967e-25
-4.00188e-24
2.60477e-25
-3.48543e-24
6.89308e-26
-3.19707e-24
-4.10768e-25
-4.53825e-24
-1.97587e-24
-1.13039e-23
-7.98807e-24
-3.73578e-23
-3.58284e-23
-1.33849e-22
-1.61481e-22
-4.76504e-22
-6.96574e-22
-1.6422e-21
-2.85637e-21
-5.41381e-21
-1.11331e-20
-1.6942e-20
-4.12955e-20
-5.0094e-20
-1.46295e-19
-1.39417e-19
-4.97823e-19
-3.63298e-19
-1.64046e-18
-8.78245e-19
-5.30574e-18
-1.91785e-18
-1.71977e-17
-3.30695e-18
-5.60858e-17
-1.30806e-18
-1.73797e-16
-4.58141e-16
7.05549e-32
1.36556e-31
7.10971e-31
7.598e-31
4.51613e-30
4.1029e-30
2.16324e-29
1.83994e-29
8.2256e-29
6.87955e-29
2.59713e-28
2.15278e-28
7.226e-28
5.80819e-28
1.89029e-27
1.42724e-27
4.85605e-27
3.40158e-27
1.22558e-26
8.16535e-27
2.94451e-26
1.95531e-26
6.4982e-26
4.48985e-26
1.28556e-25
9.50814e-26
2.25345e-25
1.81252e-25
3.48331e-25
3.08144e-25
4.73122e-25
4.66548e-25
5.61452e-25
6.29516e-25
5.76048e-25
7.57454e-25
4.99919e-25
8.13516e-25
3.47805e-25
7.80511e-25
1.60945e-25
6.693e-25
-1.47047e-26
5.13375e-25
-1.74371e-25
3.52686e-25
-2.75322e-25
2.17261e-25
-3.13424e-25
1.19768e-25
-3.0287e-25
5.84387e-26
-2.64146e-25
2.42228e-26
-2.14891e-25
7.20935e-27
-1.71659e-25
-3.09208e-27
-2.22563e-25
-9.4923e-26
-6.7367e-25
-5.20081e-25
-2.9514e-24
-3.19903e-24
-1.37995e-23
-1.90987e-23
-6.18868e-23
-1.04663e-22
-2.60828e-22
-5.28131e-22
-1.02638e-21
-2.47176e-21
-3.75316e-21
-1.07872e-20
-1.27144e-20
-4.41748e-20
-3.97998e-20
-1.71177e-19
-1.1485e-19
-6.36296e-19
-3.03627e-19
-2.32032e-18
-7.07718e-19
-8.52854e-18
-1.147e-18
-3.14178e-17
2.4104e-18
-1.07602e-16
-3.04797e-16
1.60272e-32
2.42665e-32
1.64902e-31
1.35643e-31
1.06154e-30
7.41294e-31
5.07817e-30
3.33334e-30
1.90933e-29
1.23137e-29
5.94818e-29
3.76598e-29
1.64172e-28
9.87867e-29
4.30527e-28
2.36261e-28
1.11889e-27
5.52474e-28
2.86227e-27
1.31597e-27
6.94042e-27
3.14949e-27
1.53587e-26
7.22704e-27
3.02914e-26
1.52052e-26
5.27527e-26
2.85544e-26
8.09637e-26
4.74445e-26
1.09457e-25
6.97339e-26
1.30157e-25
9.07869e-26
1.35787e-25
1.0474e-25
1.23634e-25
1.07194e-25
9.72236e-26
9.73797e-26
6.4639e-26
7.85074e-26
3.44748e-26
5.61627e-26
1.22032e-26
3.56773e-26
-1.42708e-27
2.01564e-26
-1.07039e-26
1.01355e-26
-1.32833e-26
4.51093e-27
-1.21606e-26
1.72701e-27
-9.62418e-27
5.07556e-28
-6.94382e-27
5.02962e-29
-7.42448e-27
-3.01507e-27
-2.86944e-26
-2.48017e-26
-1.82669e-25
-2.29655e-25
-1.16961e-24
-1.89855e-24
-6.84719e-24
-1.36353e-23
-3.62519e-23
-8.65878e-23
-1.73959e-22
-4.94966e-22
-7.57654e-22
-2.57887e-21
-2.99416e-21
-1.23666e-20
-1.0728e-20
-5.51875e-20
-3.49668e-20
-2.34038e-19
-1.03577e-19
-9.73256e-19
-2.6562e-19
-4.08668e-18
-4.23032e-19
-1.70078e-17
2.48966e-18
-6.42188e-17
-1.96887e-16
3.01895e-33
3.48816e-33
3.16132e-32
1.95345e-32
2.0511e-31
1.07731e-31
9.74279e-31
4.83507e-31
3.59831e-30
1.75509e-30
1.09561e-29
5.20312e-30
2.95948e-29
1.30779e-29
7.66028e-29
2.97455e-29
1.98838e-28
6.64134e-29
5.12056e-28
1.53993e-28
1.25094e-27
3.67201e-28
2.77601e-27
8.50066e-28
5.45239e-27
1.80101e-27
9.39999e-27
3.37114e-27
1.42239e-26
5.52353e-27
1.89125e-26
7.93458e-27
2.20934e-26
1.00191e-26
2.26743e-26
1.11212e-26
2.04186e-26
1.08702e-26
1.60802e-26
9.36651e-27
1.10136e-26
7.10869e-27
6.49925e-27
4.7457e-27
3.2397e-27
2.78564e-27
1.29155e-27
1.43934e-27
3.28037e-28
6.55955e-28
-9.56668e-29
2.62906e-28
-2.87607e-28
8.97323e-29
-2.69473e-28
2.13598e-29
-1.75062e-28
-3.13948e-31
-6.42103e-29
-2.28571e-29
-5.23019e-28
-5.25282e-28
-4.9258e-27
-7.44089e-27
-5.47174e-26
-1.07043e-25
-4.7555e-25
-1.13692e-24
-3.48877e-24
-9.95152e-24
-2.2079e-23
-7.46392e-23
-1.21554e-22
-4.8932e-22
-5.85317e-22
-2.84752e-21
-2.48817e-21
-1.5019e-20
-9.39537e-21
-7.34773e-20
-3.27802e-20
-3.57702e-19
-9.97222e-20
-1.75864e-18
-1.93669e-19
-8.45043e-18
1.05697e-18
-3.5754e-17
-1.20847e-16
4.53644e-34
3.80286e-34
4.81764e-33
2.12712e-33
3.13369e-32
1.17985e-32
1.46885e-31
5.25911e-32
5.28066e-31
1.86274e-31
1.54721e-30
5.28331e-31
3.99216e-30
1.23869e-30
9.91211e-30
2.54864e-30
2.517e-29
5.0616e-30
6.49301e-29
1.07778e-29
1.60976e-28
2.53892e-29
3.62111e-28
6.14223e-29
7.14221e-28
1.37004e-28
1.22469e-27
2.64363e-28
1.82946e-27
4.36992e-28
2.38762e-27
6.23014e-28
2.72269e-27
7.71487e-28
2.71711e-27
8.29034e-28
2.37472e-27
7.75998e-28
1.81476e-27
6.35182e-28
1.20955e-27
4.54246e-28
7.01347e-28
2.83075e-28
3.52874e-28
1.53391e-28
1.53225e-28
7.22559e-29
5.62777e-29
2.96044e-29
1.60692e-29
1.03846e-29
2.18511e-30
2.66267e-30
-1.82652e-30
-1.37675e-31
4.30354e-30
-2.53515e-30
3.9448e-29
5.5962e-30
6.36366e-28
4.40137e-28
5.91976e-27
7.06184e-27
4.80845e-26
8.55981e-26
3.13396e-25
8.40893e-25
1.66219e-24
6.69347e-24
6.48057e-24
4.29643e-23
1.1754e-23
2.32258e-22
7.45161e-24
1.11764e-21
-8.74128e-23
-5.98621e-22
-7.77295e-22
-6.739e-21
-5.24751e-21
-6.11898e-20
-2.79208e-20
-4.8852e-19
-9.65914e-20
-3.27342e-18
-4.89794e-20
-1.71218e-17
-6.74002e-17
5.10624e-35
2.79561e-35
5.47846e-34
1.55645e-34
3.55312e-33
8.65054e-34
1.63104e-32
3.8084e-33
5.62998e-32
1.30385e-32
1.54414e-31
3.46516e-32
3.61715e-31
7.19947e-32
8.01822e-31
1.17603e-31
1.87705e-30
1.5173e-31
4.80336e-30
1.66912e-31
1.25001e-29
2.70027e-31
2.97467e-29
1.13736e-30
6.08076e-29
4.03675e-30
1.05826e-28
9.77014e-30
1.57967e-28
1.80305e-29
2.03778e-28
2.68834e-29
2.27056e-28
3.38196e-29
2.19407e-28
3.58167e-29
1.84637e-28
3.22124e-29
1.35217e-28
2.50108e-29
8.59713e-29
1.68e-29
4.73677e-29
9.73081e-30
2.26216e-29
4.83931e-30
9.37837e-30
2.0574e-30
3.32905e-30
7.34772e-31
8.68228e-31
1.87238e-31
-4.66158e-32
-1.97251e-32
-9.70688e-32
-4.48254e-31
-3.48851e-31
-3.34304e-30
1.66793e-29
-4.45374e-30
3.17395e-28
3.0896e-28
4.20296e-27
6.26862e-27
4.48611e-26
8.13516e-26
4.08887e-25
8.73444e-25
3.05255e-24
8.21358e-24
1.84181e-23
6.34398e-23
9.60304e-23
4.13808e-22
4.63214e-22
2.4663e-21
2.10679e-21
1.4088e-20
8.46896e-21
7.60764e-20
2.43102e-20
3.36991e-19
3.14541e-20
1.05891e-18
-1.05507e-21
-2.42051e-20
-1.07013e-19
-4.73007e-18
-2.97215e-17
3.83191e-36
1.03956e-36
4.13622e-35
5.73974e-36
2.6588e-34
3.1834e-35
1.18352e-33
1.37564e-34
3.83965e-33
4.50088e-34
9.36033e-33
1.09289e-33
1.74598e-32
1.88578e-33
2.52194e-32
1.93952e-33
3.05953e-32
-7.41624e-35
5.39412e-32
-1.01763e-32
2.45233e-31
-8.1899e-32
9.31981e-31
-1.70862e-31
2.39901e-30
-1.92969e-31
4.68134e-30
-1.38486e-31
7.34306e-30
3.86717e-32
9.67528e-30
1.95943e-31
1.06902e-29
3.80035e-31
9.99667e-30
4.76068e-31
8.04721e-30
4.20022e-31
5.59155e-30
3.01662e-31
3.34537e-30
1.82583e-31
1.718e-30
9.33015e-32
7.55377e-31
3.9908e-32
2.80298e-31
1.37191e-32
7.49969e-32
2.60902e-33
-8.48709e-33
-1.9903e-33
-2.2892e-32
-3.74231e-32
-3.44955e-31
-3.89263e-31
-2.27501e-30
-2.65913e-30
-9.10802e-30
-9.03384e-30
5.49942e-29
1.55713e-28
1.86874e-27
4.34947e-27
2.76316e-26
6.84282e-26
3.04125e-25
8.24714e-25
2.75898e-24
8.05816e-24
2.08448e-23
6.84211e-23
1.30328e-22
5.12365e-22
7.24371e-22
3.43508e-21
3.88638e-21
2.19641e-20
1.98848e-20
1.3568e-19
8.13738e-20
7.13531e-19
2.31598e-19
2.82839e-18
3.7436e-19
8.18159e-18
3.36977e-19
1.41916e-17
-2.48319e-18
1.43954e-37
1.27694e-53
1.5563e-36
-2.09393e-53
9.85024e-36
-3.02548e-52
4.20222e-35
-9.84747e-54
1.24891e-34
-3.68823e-51
2.53504e-34
-2.14954e-48
2.98475e-34
-1.06196e-45
-1.28092e-35
-4.58086e-43
-2.44102e-34
-1.74241e-40
-8.64866e-33
-6.96363e-38
-3.39289e-32
-3.39883e-35
-4.67826e-32
-9.66087e-34
-3.58107e-32
-2.02675e-33
1.06074e-32
-1.52043e-33
5.67357e-32
-3.57418e-33
1.15686e-31
-8.10746e-33
1.51825e-31
-6.88248e-33
1.39934e-31
-1.37379e-33
1.0476e-31
-1.19015e-34
6.60006e-32
-3.21287e-35
3.50934e-32
-1.13943e-35
1.56357e-32
-5.95308e-36
5.61752e-33
-4.77294e-36
1.12429e-33
-1.26284e-35
-9.14817e-34
-1.67312e-34
-2.40663e-33
-1.88376e-33
-2.88624e-32
-1.8905e-32
-2.50414e-31
-1.97746e-31
-2.27575e-30
-1.6873e-30
-1.7188e-29
-8.54526e-30
-8.34064e-29
5.13476e-29
2.00277e-28
2.33215e-27
1.18299e-26
4.40092e-26
1.90404e-25
6.32176e-25
2.12481e-24
7.22226e-24
1.85333e-23
6.6173e-23
1.38602e-22
5.17715e-22
9.60472e-22
3.91537e-21
6.19014e-21
3.03614e-20
3.54095e-20
2.06681e-19
1.69748e-19
1.16129e-18
6.0663e-19
5.05469e-18
1.53836e-18
1.63743e-17
2.54214e-18
3.94353e-17
6.30898e-17
-5.3191e-55
2.3015e-54
-1.5031e-53
4.43251e-57
-7.18579e-55
-1.2095e-57
-3.07e-52
-9.20602e-57
-3.99259e-51
-1.53089e-53
-2.14424e-48
-9.30254e-51
-1.0594e-45
-4.69973e-48
-4.57129e-43
-2.01597e-45
-1.74959e-40
-3.51174e-44
-1.33968e-37
-1.11136e-43
-2.88961e-35
-6.87047e-44
-5.10604e-34
-7.44968e-43
-2.05777e-34
-5.14283e-41
-5.13314e-34
-6.90614e-40
-2.4564e-33
-5.57574e-39
-2.1973e-33
-1.0903e-38
-7.98199e-34
-1.40037e-38
-6.96919e-35
-5.3514e-43
-1.76947e-35
-4.66196e-43
-5.8913e-36
-1.64158e-41
-2.6567e-36
-3.75518e-40
-2.00006e-36
-7.76005e-39
-2.05961e-36
-1.48224e-37
-1.14543e-35
-2.5895e-36
-1.32504e-34
-4.20646e-35
-1.10552e-33
-6.33162e-34
-1.21878e-32
-8.36682e-33
-1.50837e-31
-9.60447e-32
-1.60052e-30
-9.03483e-31
-1.44165e-29
-5.83029e-30
-1.05146e-28
4.58479e-30
-4.78959e-28
1.01069e-27
2.16012e-27
2.27178e-26
9.104e-26
3.72783e-25
1.41145e-24
4.97235e-24
1.51586e-23
5.34601e-23
1.29337e-22
4.71881e-22
1.01523e-21
3.82144e-21
8.32739e-21
3.20947e-20
6.17e-20
2.80456e-19
3.26903e-19
1.79291e-18
1.3023e-18
8.11735e-18
3.87957e-18
2.79417e-17
8.44246e-18
7.29772e-17
1.4122e-16
1.13497e-58
2.36561e-55
-6.07446e-59
4.65906e-58
-4.75984e-59
2.09631e-59
-1.00196e-56
2.01547e-60
-1.53932e-53
-8.99595e-58
-9.3196e-51
-5.68343e-55
-6.90209e-48
-1.46839e-52
-1.81657e-45
-9.74974e-50
-1.12847e-44
-2.57621e-47
-7.7557e-45
-5.09154e-46
-9.35587e-45
-2.15303e-45
-5.68638e-43
-3.1727e-45
-1.7058e-41
-1.9118e-45
-2.63497e-40
-6.18154e-46
-3.42104e-39
-5.75815e-46
-3.10011e-39
-5.57021e-46
-9.41369e-44
-6.79469e-46
-9.46118e-44
-6.1166e-45
-2.64273e-43
-2.14553e-43
-7.77956e-42
-6.02385e-42
-1.82592e-40
-1.40517e-40
-3.9004e-39
-2.97575e-39
-7.81375e-38
-5.74838e-38
-1.42187e-36
-1.02127e-36
-2.45718e-35
-1.65815e-35
-4.08499e-34
-2.46061e-34
-5.94919e-33
-3.33418e-33
-7.60155e-32
-4.03958e-32
-8.70106e-31
-4.15561e-31
-8.7188e-30
-3.18442e-30
-7.46293e-29
-7.58539e-30
-5.00264e-28
3.46853e-28
-1.3315e-27
9.73805e-27
3.26865e-26
1.79959e-25
7.76557e-25
2.66675e-24
1.05343e-23
3.253e-23
1.08833e-22
3.37376e-22
9.96815e-22
3.21183e-21
9.12584e-21
3.04524e-20
8.34358e-20
2.85071e-19
5.93363e-19
2.32141e-18
2.57636e-18
1.22806e-17
8.28275e-18
4.40508e-17
2.01834e-17
1.20781e-16
2.47278e-16
1.19746e-59
1.19029e-56
1.05952e-60
2.03759e-59
1.50322e-61
2.13554e-59
-4.68715e-59
7.68089e-59
-6.87187e-58
-7.80743e-62
-4.8622e-55
-5.07844e-59
-1.54304e-52
-2.09501e-56
-1.27869e-49
-9.70406e-54
-1.37136e-47
-6.67995e-51
-1.74917e-46
-4.73542e-49
-3.92811e-46
-4.85508e-48
-3.38644e-46
-1.70778e-47
-9.4977e-47
-3.39516e-47
-9.21147e-47
-4.81449e-47
-9.50236e-47
-5.58266e-47
-9.83695e-47
-6.31003e-47
-1.54619e-46
-1.10994e-46
-3.24048e-45
-1.91486e-45
-1.15766e-43
-6.08043e-44
-3.15631e-42
-1.62226e-42
-7.65443e-41
-3.92885e-41
-1.67717e-39
-8.53495e-40
-3.36162e-38
-1.68842e-38
-6.19932e-37
-3.08958e-37
-1.04368e-35
-5.24773e-36
-1.62228e-34
-8.21255e-35
-2.36852e-33
-1.17115e-33
-3.20627e-32
-1.4981e-32
-3.91504e-31
-1.65972e-31
-4.22143e-30
-1.45322e-30
-3.96372e-29
-6.74992e-30
-3.11004e-28
8.72244e-29
-1.54941e-27
3.44729e-27
8.68843e-27
7.27093e-26
3.74607e-25
1.19577e-24
6.21109e-24
1.60282e-23
7.60803e-23
1.85793e-22
8.33487e-22
2.06711e-21
9.03463e-21
2.36487e-20
9.33038e-20
2.58766e-19
7.8876e-19
2.29591e-18
4.61746e-18
1.499e-17
1.636e-17
6.47033e-17
4.22568e-17
1.89402e-16
4.04266e-16
5.23826e-61
3.62671e-66
1.08203e-60
7.21597e-65
5.75396e-60
3.62867e-64
-6.54624e-63
-6.50524e-67
-8.38312e-62
-7.92858e-64
-5.02285e-59
-4.98214e-61
-2.14635e-56
-2.17534e-58
-9.69029e-54
-1.00734e-55
-5.36349e-51
-6.43723e-53
-1.88126e-49
-1.24134e-50
-1.26656e-48
-2.14629e-49
-3.5817e-48
-9.65994e-49
-6.54454e-48
-2.06296e-48
-8.55441e-48
-3.04532e-48
-9.9134e-48
-3.85025e-48
-1.19417e-47
-5.05959e-48
-3.56805e-47
-1.67562e-47
-9.51593e-46
-4.94973e-46
-2.96962e-44
-1.55059e-44
-8.31375e-43
-4.29653e-43
-2.07994e-41
-1.07127e-41
-4.65826e-40
-2.3917e-40
-9.55295e-39
-4.83502e-39
-1.8247e-37
-8.99258e-38
-3.25657e-36
-1.55384e-36
-5.39629e-35
-2.49158e-35
-8.25899e-34
-3.67654e-34
-1.16411e-32
-4.92108e-33
-1.49407e-31
-5.81065e-32
-1.70897e-30
-5.66681e-31
-1.71207e-29
-3.64754e-30
-1.46334e-28
1.12516e-29
-8.92998e-28
9.97577e-28
1.58355e-27
2.44467e-26
1.64653e-25
4.50295e-25
3.2301e-24
6.6979e-24
4.47178e-23
8.45525e-23
5.60271e-22
1.03208e-21
7.28693e-21
1.39471e-20
9.12554e-20
1.91481e-19
8.82634e-19
2.02923e-18
5.92224e-18
1.45495e-17
2.74276e-17
7.17933e-17
8.2468e-17
2.62048e-16
6.40002e-16
1.85022e-66
8.78011e-67
1.8372e-65
1.98249e-65
-4.87751e-68
1.26676e-64
-1.50008e-65
1.43015e-65
-7.4695e-64
-2.18721e-65
-4.87549e-61
-1.47639e-62
-2.18906e-58
-6.83211e-60
-7.2306e-56
-3.26885e-57
-8.26834e-53
-1.92699e-54
-6.60671e-51
-5.91087e-52
-6.87155e-50
-1.2957e-50
-2.21807e-49
-6.59537e-50
-4.00867e-49
-1.46535e-49
-5.53402e-49
-2.15605e-49
-6.87937e-49
-2.75264e-49
-9.94115e-49
-4.19095e-49
-6.9336e-48
-3.82036e-48
-2.38578e-46
-1.27526e-46
-7.68909e-45
-3.77171e-45
-2.22065e-43
-1.03438e-43
-5.72208e-42
-2.60727e-42
-1.31622e-40
-5.94597e-41
-2.74686e-39
-1.22741e-39
-5.30323e-38
-2.32882e-38
-9.56693e-37
-4.12052e-37
-1.61291e-35
-6.80499e-36
-2.5326e-34
-1.03886e-34
-3.68491e-33
-1.44645e-33
-4.9176e-32
-1.7998e-32
-5.90757e-31
-1.91391e-31
-6.2495e-30
-1.52035e-30
-5.66018e-29
-2.82853e-30
-3.77427e-28
2.31339e-28
1.67522e-28
6.8812e-27
6.55381e-26
1.40181e-25
1.46871e-24
2.31138e-24
2.25851e-23
3.22839e-23
3.09654e-22
4.25125e-22
4.60134e-21
6.35482e-21
7.16953e-20
1.08555e-19
8.5623e-19
1.47996e-18
6.52183e-18
1.25724e-17
3.29467e-17
6.86301e-17
1.22106e-16
2.65535e-16
7.98373e-16
5.05841e-67
9.82303e-68
6.39195e-66
2.41639e-66
1.07008e-66
1.92982e-65
-1.91996e-66
4.74018e-65
-2.66276e-65
-2.88789e-67
-1.30357e-62
-1.67813e-64
-8.51691e-60
-1.02747e-61
-2.36944e-57
-4.67391e-59
-3.08042e-54
-2.28416e-56
-3.50381e-52
-1.29647e-53
-4.47595e-51
-4.28566e-52
-1.56485e-50
-2.72997e-51
-2.82366e-50
-6.75265e-51
-3.82043e-50
-1.06347e-50
-4.8777e-50
-1.53233e-50
-9.84926e-50
-3.96613e-50
-1.77173e-48
-9.30929e-49
-5.98792e-47
-2.9861e-47
-1.83906e-45
-8.57871e-46
-5.26697e-44
-2.33212e-44
-1.37615e-42
-5.89995e-43
-3.22835e-41
-1.36711e-41
-6.85416e-40
-2.87594e-40
-1.34692e-38
-5.54828e-39
-2.48526e-37
-9.98876e-38
-4.30059e-36
-1.68861e-36
-6.9288e-35
-2.65866e-35
-1.03289e-33
-3.83946e-34
-1.41484e-32
-4.98651e-33
-1.76129e-31
-5.65235e-32
-1.95822e-30
-5.19252e-31
-1.87581e-29
-2.61125e-30
-1.31622e-28
3.9107e-29
1.75312e-29
1.65927e-27
2.3417e-26
3.68499e-26
5.64721e-25
6.43893e-25
9.52808e-24
9.82819e-24
1.43219e-22
1.43896e-22
2.3545e-21
2.38596e-21
4.42902e-20
4.85558e-20
6.76264e-19
8.55152e-19
6.21042e-18
9.02911e-18
3.50571e-17
5.68283e-17
1.38167e-16
2.40691e-16
7.65539e-16
6.1252e-68
2.3662e-73
9.68455e-67
1.8677e-72
3.53081e-66
9.97163e-75
-2.47376e-68
-4.04796e-72
-3.09239e-67
-4.28712e-69
-1.48337e-64
-2.515e-66
-9.43119e-62
-1.47435e-63
-3.07364e-59
-7.38483e-61
-4.38089e-56
-3.42707e-58
-9.01595e-54
-2.3549e-55
-1.64286e-52
-1.26345e-53
-6.73922e-52
-1.02936e-52
-1.29201e-51
-2.84179e-52
-1.84098e-51
-4.83351e-52
-2.75755e-51
-8.36183e-52
-1.33564e-50
-5.54099e-51
-4.21667e-49
-2.02462e-49
-1.36531e-47
-6.33137e-48
-4.10608e-46
-1.81033e-46
-1.16516e-44
-4.86255e-45
-3.06457e-43
-1.22561e-43
-7.3112e-42
-2.86877e-42
-1.57673e-40
-6.14359e-41
-3.13375e-39
-1.20618e-39
-5.85485e-38
-2.20595e-38
-1.03275e-36
-3.80281e-37
-1.70601e-35
-6.16694e-36
-2.60268e-34
-9.25478e-35
-3.61533e-33
-1.24929e-33
-4.55445e-32
-1.47357e-32
-5.23759e-31
-1.47758e-31
-5.36969e-30
-1.0908e-30
-4.03158e-29
2.30951e-30
1.62111e-29
3.47336e-28
7.67675e-27
8.72273e-27
1.8295e-25
1.50664e-25
3.20615e-24
2.29746e-24
5.30939e-23
3.69026e-23
9.98675e-22
7.29355e-22
2.2527e-20
1.8378e-20
4.31812e-19
4.04552e-19
4.88363e-18
5.285e-18
3.18828e-17
3.90703e-17
1.38356e-16
1.86476e-16
6.55023e-16
4.69817e-74
5.66901e-74
4.969e-76
6.60953e-73
-2.99586e-73
7.52958e-73
-4.26861e-72
-7.89325e-74
-4.05878e-69
-4.14608e-71
-1.11561e-66
-2.75615e-68
-1.02739e-63
-1.68043e-65
-4.60905e-61
-8.63454e-63
-4.98173e-58
-4.07041e-60
-2.02378e-55
-2.93265e-57
-5.47451e-54
-2.39771e-55
-2.63688e-53
-2.46522e-54
-5.33266e-53
-7.86592e-54
-8.10293e-53
-1.57754e-53
-1.64006e-52
-4.2408e-53
-2.35602e-51
-9.30765e-52
-8.80581e-50
-3.6661e-50
-2.83743e-48
-1.16464e-48
-8.44365e-47
-3.39652e-47
-2.36117e-45
-9.14145e-46
-6.19937e-44
-2.30756e-44
-1.49766e-42
-5.45458e-43
-3.28461e-41
-1.19e-41
-6.60829e-40
-2.38102e-40
-1.24528e-38
-4.41407e-39
-2.229e-37
-7.71623e-38
-3.78655e-36
-1.28617e-36
-5.96079e-35
-2.01824e-35
-8.35874e-34
-2.84482e-34
-1.03086e-32
-3.42749e-33
-1.17378e-31
-3.53469e-32
-1.29213e-30
-3.18611e-31
-1.10965e-29
-1.41483e-30
1.19384e-29
5.96376e-29
2.44874e-27
2.0055e-27
5.28313e-26
3.29417e-26
8.53526e-25
4.30087e-25
1.46048e-23
6.58406e-24
3.29992e-22
1.6012e-22
9.70953e-21
5.81168e-21
2.32566e-19
1.65328e-19
3.17228e-18
2.58565e-18
2.40634e-17
2.22128e-17
1.16729e-16
1.19083e-16
4.63628e-16
1.6489e-74
5.93308e-75
3.72163e-74
8.93719e-74
-2.955e-75
3.82262e-73
-8.17145e-74
-1.72964e-76
-6.48907e-71
-1.27244e-73
-1.1066e-68
-7.25857e-71
-2.96621e-66
-7.07925e-68
-5.25353e-63
-3.80508e-65
-4.18427e-60
-1.84154e-62
-2.96054e-57
-1.35031e-59
-1.11917e-55
-1.93201e-57
-6.34842e-55
-2.80188e-56
-1.41443e-54
-1.21887e-55
-2.59785e-54
-3.84929e-55
-1.13941e-53
-3.41331e-54
-4.00206e-52
-1.48438e-52
-1.53944e-50
-5.60201e-51
-5.10667e-49
-1.84675e-49
-1.53822e-47
-5.52927e-48
-4.29516e-46
-1.51043e-46
-1.12877e-44
-3.85027e-45
-2.76186e-43
-9.22016e-44
-6.17665e-42
-2.05363e-42
-1.25922e-40
-4.19899e-41
-2.37958e-39
-7.89137e-40
-4.287e-38
-1.39263e-38
-7.50723e-37
-2.37796e-37
-1.23983e-35
-3.92724e-36
-1.77223e-34
-5.84484e-35
-2.07854e-33
-7.15078e-34
-2.18235e-32
-7.24912e-33
-2.5092e-31
-7.12334e-32
-2.73456e-30
-7.06351e-31
6.014e-30
5.45064e-30
8.14968e-28
4.55378e-28
1.50844e-26
7.45045e-27
1.91944e-25
7.33057e-26
2.83554e-24
8.15207e-25
7.42495e-23
2.09832e-23
3.31002e-21
1.32929e-21
1.07266e-19
5.66385e-20
1.74354e-18
1.07854e-18
1.51525e-17
1.06338e-17
8.15018e-17
6.32994e-17
2.65258e-16
2.21073e-75
1.36665e-79
1.87269e-74
8.94446e-79
-1.25849e-77
-6.50616e-79
-1.92415e-75
-8.64159e-76
-3.66407e-74
-8.362e-73
-1.91578e-71
-9.65858e-71
-1.24357e-68
-1.13476e-69
-3.04245e-65
-1.46535e-67
-1.55435e-62
-1.04045e-64
-1.64133e-59
-9.02256e-63
-9.37222e-58
-3.69239e-61
-6.99138e-57
-2.61327e-59
-2.03585e-56
-5.79981e-58
-7.01582e-56
-1.18872e-56
-1.30089e-54
-4.95784e-55
-5.94071e-53
-2.06569e-53
-2.29521e-51
-7.56415e-52
-7.88523e-50
-2.5549e-50
-2.42767e-48
-7.78465e-49
-6.85002e-47
-2.16676e-47
-1.81272e-45
-5.61188e-46
-4.50268e-44
-1.3672e-44
-1.03039e-42
-3.11445e-43
-2.13586e-41
-6.5163e-42
-4.03787e-40
-1.24285e-40
-7.26205e-39
-2.21048e-39
-1.30958e-37
-3.8516e-38
-2.30721e-36
-6.70596e-37
-3.42776e-35
-1.06366e-35
-3.79301e-34
-1.32976e-34
-3.44731e-33
-1.30915e-33
-3.92297e-32
-1.31753e-32
-6.11915e-31
-2.10141e-31
2.43842e-30
-1.79347e-30
2.87582e-28
8.6384e-29
4.54798e-27
1.67678e-27
4.07342e-26
1.25125e-26
4.02632e-25
7.95267e-26
9.71062e-24
1.37998e-24
7.58192e-22
1.73565e-22
3.9108e-20
1.396e-20
8.0363e-19
3.63774e-19
8.08107e-18
4.28932e-18
4.8201e-17
2.89046e-17
1.2926e-16
2.19398e-80
2.55762e-80
-3.15776e-80
1.19503e-79
-2.89477e-79
-3.92717e-79
-6.78883e-76
-2.83803e-76
-1.06325e-72
-4.84553e-73
-2.59226e-71
-1.29543e-70
-2.53374e-70
-2.95589e-69
-2.12749e-67
-3.7609e-68
-4.18451e-65
-3.16637e-65
-1.72835e-63
-1.99393e-63
-1.83601e-61
-2.47818e-62
-6.71707e-60
-2.57873e-61
-1.20504e-58
-2.2665e-59
-3.86876e-57
-1.4982e-57
-1.84778e-55
-6.86274e-56
-7.81975e-54
-2.59288e-54
-3.02391e-52
-9.45625e-53
-1.0558e-50
-3.1631e-51
-3.30707e-49
-9.65775e-50
-9.47347e-48
-2.71902e-48
-2.53903e-46
-7.14428e-47
-6.42071e-45
-1.77239e-45
-1.50535e-43
-4.12717e-44
-3.17995e-42
-8.82924e-43
-6.02166e-41
-1.71278e-41
-1.07647e-39
-3.08065e-40
-1.98914e-38
-5.46875e-39
-3.76217e-37
-9.97756e-38
-5.90074e-36
-1.68642e-36
-6.25594e-35
-2.18202e-35
-4.86917e-34
-2.12859e-34
-5.33181e-33
-2.1699e-33
-1.2989e-31
-4.94296e-32
8.14683e-31
-1.24919e-30
9.64597e-29
5.16132e-30
1.33501e-27
2.90332e-28
8.3329e-27
1.90266e-27
4.64012e-26
6.93969e-27
6.39666e-25
4.13962e-26
9.44025e-23
9.90956e-24
9.5625e-21
1.96869e-21
2.85179e-19
8.55801e-20
3.57565e-18
1.36818e-18
2.46738e-17
1.12631e-17
5.70628e-17
2.90745e-81
2.21633e-81
-1.18611e-80
9.90695e-81
-3.92387e-79
-1.21908e-80
-2.95068e-76
-9.21991e-78
-6.9796e-73
-1.03094e-74
-7.39954e-71
-1.55871e-71
-4.82414e-70
-2.43288e-69
-5.81441e-68
-3.31685e-68
-2.2582e-65
-2.46786e-67
-4.66069e-64
-9.96768e-66
-3.43852e-63
-5.73373e-64
-8.38039e-62
-5.15774e-62
-8.31355e-60
-3.32386e-60
-5.30244e-58
-1.65169e-58
-2.35367e-56
-7.31955e-57
-9.58044e-55
-3.00444e-55
-3.64841e-53
-1.08888e-53
-1.2598e-51
-3.55234e-52
-3.95843e-50
-1.07682e-50
-1.14411e-48
-3.03603e-49
-3.10507e-47
-8.03673e-48
-7.99302e-46
-2.02193e-46
-1.91521e-44
-4.79472e-45
-4.12346e-43
-1.04636e-43
-7.86718e-42
-2.07301e-42
-1.40417e-40
-3.80907e-41
-2.64208e-39
-6.91918e-40
-5.30961e-38
-1.30639e-38
-8.81929e-37
-2.3214e-37
-9.23465e-36
-3.14768e-36
-6.45728e-35
-3.15895e-35
-6.97127e-34
-3.32e-34
-2.5638e-32
-9.21212e-33
1.97306e-31
-3.38438e-31
2.41694e-29
-2.20442e-30
3.00698e-28
2.1497e-29
1.38114e-27
1.82617e-28
4.33469e-27
5.2297e-28
1.84353e-26
7.66736e-28
5.0903e-24
1.95324e-25
1.30414e-21
1.30351e-22
6.72395e-20
1.15904e-20
1.20782e-18
3.01899e-19
1.06206e-17
3.47011e-18
2.2224e-17
2.39148e-82
5.38536e-84
-3.11961e-82
-2.49184e-85
-1.04958e-80
-7.31198e-82
-1.10388e-77
-9.76136e-79
-7.37914e-75
-1.03024e-75
-1.64661e-71
-1.72319e-72
-1.09497e-69
-2.12187e-70
-5.23112e-69
-3.08614e-69
-4.3993e-68
-2.13837e-68
-1.92487e-66
-2.00938e-66
-1.85263e-64
-1.05566e-64
-1.68399e-62
-5.31148e-63
-1.02854e-60
-2.77251e-61
-5.26702e-59
-1.42508e-59
-2.54237e-57
-7.19766e-58
-1.08454e-55
-3.08987e-56
-4.02378e-54
-1.10632e-54
-1.36097e-52
-3.57096e-53
-4.24639e-51
-1.07753e-51
-1.22686e-49
-3.03867e-50
-3.35223e-48
-8.06896e-49
-8.74068e-47
-2.04379e-47
-2.12722e-45
-4.90352e-46
-4.66067e-44
-1.09044e-44
-9.05541e-43
-2.22375e-43
-1.64028e-41
-4.24186e-42
-3.13518e-40
-7.97902e-41
-6.51781e-39
-1.5391e-39
-1.13384e-37
-2.79974e-38
-1.21717e-36
-3.99342e-37
-8.31376e-36
-4.29204e-36
-9.13983e-35
-4.70481e-35
-4.06008e-33
-1.16926e-33
2.7138e-32
-4.32646e-32
3.43219e-30
-4.61218e-31
3.81701e-29
-4.82644e-31
1.5387e-28
7.74872e-30
3.05542e-28
3.28514e-29
3.91347e-28
3.99509e-29
9.74565e-26
1.26701e-27
8.91215e-23
4.05218e-24
9.17809e-21
8.1259e-22
2.73825e-19
3.93395e-20
3.50184e-18
7.35797e-19
6.74907e-18
-5.96959e-87
1.52358e-84
-2.33186e-85
-2.1968e-86
-6.85391e-82
-3.52651e-83
-9.26559e-79
-4.94597e-80
-9.50163e-76
-5.66267e-77
-1.1634e-72
-1.09466e-73
-4.99591e-71
-1.67717e-71
-3.05333e-70
-2.70167e-70
-6.43522e-69
-1.93728e-69
-4.972e-67
-1.53555e-67
-2.62415e-65
-9.17781e-66
-1.42388e-63
-5.37187e-64
-7.91187e-62
-2.93767e-62
-4.64553e-60
-1.44249e-60
-2.49126e-58
-6.5873e-59
-1.07211e-56
-2.70769e-57
-3.92229e-55
-9.71563e-56
-1.31363e-53
-3.13247e-54
-4.08277e-52
-9.46912e-53
-1.17878e-50
-2.6964e-51
-3.22417e-49
-7.21709e-50
-8.43479e-48
-1.83078e-48
-2.06899e-46
-4.41056e-47
-4.61472e-45
-1.00041e-45
-9.26427e-44
-2.11983e-44
-1.74735e-42
-4.25202e-43
-3.41903e-41
-8.38687e-42
-7.10591e-40
-1.65067e-40
-1.25951e-38
-2.98781e-39
-1.43979e-37
-4.35021e-38
-1.0666e-36
-5.01295e-37
-1.1148e-35
-5.8288e-36
-3.93091e-34
-1.19834e-34
1.63523e-33
-3.62707e-33
2.77297e-31
-4.5555e-32
3.18059e-30
-1.59406e-31
1.32785e-29
9.21848e-33
3.00284e-29
1.39324e-30
4.53266e-29
3.95922e-30
7.4984e-28
5.03687e-29
3.44208e-24
1.25918e-25
7.25224e-22
3.61835e-23
3.70847e-20
2.80453e-21
7.68855e-19
9.07815e-20
1.33115e-18
-3.11291e-88
2.00908e-85
-1.86586e-86
-3.62066e-87
-2.86609e-83
-5.90329e-84
-3.46151e-80
-8.75309e-81
-4.70028e-77
-1.48433e-77
-7.91481e-74
-6.24295e-75
-4.03772e-72
-5.5369e-73
-2.62837e-71
-1.07172e-71
-4.48147e-70
-1.13482e-70
-3.39126e-68
-1.06492e-68
-2.27953e-66
-7.67751e-67
-1.46841e-64
-4.54471e-65
-8.37694e-63
-2.29903e-63
-4.39981e-61
-1.08593e-61
-2.13745e-59
-4.97058e-60
-9.03615e-58
-2.05391e-58
-3.30108e-56
-7.34139e-57
-1.10122e-54
-2.36421e-55
-3.44542e-53
-7.20164e-54
-1.00661e-51
-2.08834e-52
-2.76006e-50
-5.68789e-51
-7.17225e-49
-1.44781e-49
-1.76149e-47
-3.48468e-48
-4.01726e-46
-8.05619e-47
-8.42683e-45
-1.7807e-45
-1.68528e-43
-3.74209e-44
-3.44085e-42
-7.67888e-43
-7.06896e-41
-1.54283e-41
-1.22214e-39
-2.7461e-40
-1.45797e-38
-3.89134e-39
-1.22265e-37
-4.57481e-38
-1.25954e-36
-5.69307e-37
-3.05444e-35
-1.09367e-35
2.43939e-35
-2.55919e-34
1.54011e-32
-3.06148e-33
1.96373e-31
-1.37579e-32
8.92159e-31
-2.1991e-32
2.44052e-30
7.24752e-33
5.2903e-30
1.47801e-31
1.47853e-28
2.96155e-29
2.37255e-25
1.95306e-26
4.67529e-23
2.21083e-24
3.06776e-21
1.40531e-22
9.93484e-20
6.1657e-21
1.45261e-19
-8.53799e-89
1.95745e-87
-1.03761e-87
-2.51658e-87
-2.18817e-84
-6.74925e-84
-7.5384e-81
-1.23232e-80
-6.92273e-78
-1.87807e-77
-2.3442e-75
-1.5237e-75
-1.09667e-73
-1.16862e-74
-1.00189e-72
-2.72836e-74
-2.50988e-71
-6.12831e-72
-2.50073e-69
-5.68291e-70
-1.91681e-67
-4.60829e-68
-1.15871e-65
-2.91097e-66
-6.10978e-64
-1.52234e-64
-3.15906e-62
-7.13695e-63
-1.55052e-60
-3.09372e-61
-6.54622e-59
-1.23975e-59
-2.37617e-57
-4.52437e-58
-7.9149e-56
-1.50554e-56
-2.50873e-54
-4.66549e-55
-7.50911e-53
-1.37363e-53
-2.08366e-51
-3.82916e-52
-5.36353e-50
-9.89451e-51
-1.3131e-48
-2.38456e-49
-3.07974e-47
-5.59458e-48
-6.76657e-46
-1.29278e-46
-1.42005e-44
-2.82438e-45
-3.02827e-43
-5.80101e-44
-6.22953e-42
-1.13462e-42
-1.02115e-40
-1.92218e-41
-1.18212e-39
-2.56897e-40
-1.07741e-38
-3.04394e-39
-1.23307e-37
-4.36139e-38
-2.40406e-36
-8.93409e-37
-8.30767e-36
-1.73316e-35
6.2762e-34
-1.76284e-34
8.44878e-33
-7.57216e-34
3.99009e-32
-1.34267e-33
1.09738e-31
-9.03845e-34
2.39488e-31
1.34303e-34
1.39333e-28
1.28812e-29
6.66639e-26
4.5268e-27
5.15448e-24
2.76984e-25
2.34454e-22
1.0029e-23
8.41563e-21
3.42589e-22
9.711e-21
-8.82928e-89
9.4444e-88
-2.44126e-87
-1.47771e-88
-6.34922e-84
-4.01765e-85
-3.56318e-80
-6.41426e-82
-1.54204e-77
-1.68879e-78
-3.88567e-76
-1.5001e-76
-9.04692e-76
-1.19252e-75
-7.9294e-75
-2.63225e-75
-1.22572e-72
-3.21354e-73
-1.31823e-70
-3.04667e-71
-1.11384e-68
-2.2599e-69
-7.22473e-67
-1.3958e-67
-3.95796e-65
-7.55159e-66
-1.95709e-63
-3.58611e-64
-8.95297e-62
-1.51699e-62
-3.74401e-60
-5.94013e-61
-1.40824e-58
-2.20192e-59
-4.8125e-57
-7.55881e-58
-1.54268e-55
-2.37683e-56
-4.72331e-54
-7.07069e-55
-1.34501e-52
-2.03163e-53
-3.4673e-51
-5.439e-52
-8.42633e-50
-1.32106e-50
-2.03982e-48
-3.10048e-49
-4.76275e-47
-7.60885e-48
-1.03151e-45
-1.80825e-46
-2.18002e-44
-3.5994e-45
-4.29202e-43
-5.79239e-44
-6.38279e-42
-7.64639e-43
-6.82379e-41
-9.44687e-42
-7.08725e-40
-1.77216e-40
-1.0444e-38
-5.24362e-39
-1.97157e-37
-1.0137e-37
-1.19299e-36
-1.1766e-36
2.08267e-35
-7.35738e-36
2.63127e-34
-2.19573e-35
9.10968e-34
-3.49935e-35
1.66772e-33
-2.87188e-35
3.19694e-33
-2.14676e-35
3.07847e-29
-4.88646e-32
1.63853e-26
3.28078e-28
9.43116e-25
3.24097e-26
2.82465e-23
1.04171e-24
7.58084e-22
2.56767e-23
6.20184e-22
-2.61745e-90
1.72312e-88
-1.46636e-88
-7.06518e-91
-4.00472e-85
-2.04319e-87
-8.50401e-82
-6.01643e-84
-1.09775e-78
-1.68038e-81
-3.77407e-77
-2.20778e-80
-8.87927e-77
-8.25144e-80
-4.943e-76
-1.07962e-76
-6.55197e-74
-1.17462e-74
-6.52361e-72
-1.17956e-72
-5.0658e-70
-9.43793e-71
-3.33843e-68
-5.79308e-69
-1.90087e-66
-2.97759e-67
-9.32931e-65
-1.3544e-65
-4.09527e-63
-5.74296e-64
-1.69533e-61
-2.29475e-62
-6.57498e-60
-8.4619e-61
-2.29893e-58
-2.83187e-59
-7.38151e-57
-8.77367e-58
-2.30045e-55
-2.63867e-56
-6.86988e-54
-7.96062e-55
-1.8176e-52
-2.30828e-53
-4.30858e-51
-5.84942e-52
-1.06017e-49
-1.3166e-50
-2.82795e-48
-3.23496e-49
-6.8051e-47
-8.78488e-48
-1.29844e-45
-1.61719e-46
-1.8494e-44
-1.66631e-45
-1.84713e-43
-1.30058e-44
-2.22429e-42
-2.06909e-43
-6.58045e-41
-2.75095e-41
-1.65512e-39
-1.20295e-39
-2.19891e-38
-1.20251e-38
-1.0764e-37
-4.01214e-38
3.90707e-37
-6.92991e-38
4.32059e-36
-8.21335e-38
1.25463e-35
-7.24894e-38
2.16465e-35
-8.60309e-38
4.66293e-35
-1.09745e-36
1.36696e-30
-1.10233e-32
2.12161e-27
-1.93915e-29
1.48529e-25
6.57157e-28
4.09431e-24
6.71874e-26
8.67092e-23
1.87568e-24
4.27592e-23
-1.37919e-92
-1.80655e-95
-7.92963e-91
-1.4179e-91
-1.77564e-87
-3.6672e-88
-6.16458e-84
-1.39557e-84
-8.29695e-82
-6.02729e-82
-1.7912e-81
-1.14986e-80
-7.68114e-80
-3.04724e-80
-1.74699e-77
-4.2788e-78
-2.25537e-75
-4.11164e-76
-2.51412e-73
-3.78376e-74
-2.06081e-71
-2.93336e-72
-1.30924e-69
-1.74925e-70
-6.93655e-68
-8.76595e-69
-3.30882e-66
-3.85081e-67
-1.48948e-64
-1.58435e-65
-6.27103e-63
-6.21813e-64
-2.37744e-61
-2.25066e-62
-8.04169e-60
-7.44696e-61
-2.53468e-58
-2.40052e-59
-8.02767e-57
-7.90438e-58
-2.60575e-55
-2.53876e-56
-7.65703e-54
-7.94757e-55
-1.78784e-52
-2.50471e-53
-4.03829e-51
-6.10129e-52
-1.27926e-49
-9.64146e-51
-3.79834e-48
-1.16924e-49
-5.49438e-47
-1.31125e-48
-3.56017e-46