/*--------------------------------*- C++ -*----------------------------------*\
| =========                 |                                                 |
| \\      /  F ield         | OpenFOAM: The Open Source CFD Toolbox           |
|  \\    /   O peration     | Version:  5.0                                   |
|   \\  /    A nd           | Web:      www.OpenFOAM.org                      |
|    \\/     M anipulation  |                                                 |
\*---------------------------------------------------------------------------*/
FoamFile
{
    version     2.0;
    format      ascii;
    class       volScalarField;
    location    "0.7";
    object      nut;
}
// * * * * * * * * * * * * * * * * * * * * * * * * * * * * * * * * * * * * * //

dimensions      [0 2 -1 0 0 0 0];

internalField   nonuniform List<scalar> 
1915
(
0.0108199
0.010953
0.0110718
0.0111798
0.0112802
0.0113762
0.0114713
0.0115686
0.0116711
0.0117817
0.0119026
0.0120349
0.0121787
0.0123324
0.0124924
0.0126538
0.0128101
0.0129555
0.013085
0.0131969
0.0132926
0.0133774
0.0134591
0.013547
0.0136504
0.000100586
0.000944244
0.00200298
0.00301115
0.00393917
0.00478662
0.00555794
0.00625825
0.00689246
0.00746513
0.00798051
0.00844257
0.00885514
0.00922191
0.0095465
0.00983248
0.0100834
0.0103027
0.0104939
0.0106605
0.010806
0.0109337
0.0110471
0.0111497
0.0112449
0.0113363
0.0114273
0.0115213
0.0116216
0.0117309
0.0118515
0.0119849
0.0121311
0.0122886
0.0124543
0.0126232
0.0127895
0.0129476
0.0130928
0.0132233
0.0133401
0.0134473
0.0135517
0.0136612
0.0137842
0.000100085
0.000942502
0.00200045
0.00300846
0.00393688
0.00478517
0.00555764
0.00625926
0.00689479
0.00746862
0.00798486
0.00844736
0.00885981
0.00922584
0.009549
0.00983281
0.0100808
0.0102966
0.0104836
0.0106455
0.0107858
0.0109081
0.0110161
0.0111133
0.0112032
0.0112897
0.0113763
0.0114667
0.011564
0.0116715
0.0117914
0.0119252
0.0120733
0.0122345
0.0124057
0.0125826
0.0127598
0.0129319
0.0130945
0.0132453
0.0133846
0.0135155
0.013643
0.0137737
0.0139149
9.95408e-05
0.000940155
0.00199631
0.00300309
0.00393092
0.0047792
0.0055521
0.00625446
0.00689087
0.00746557
0.00798251
0.00844538
0.00885777
0.00922318
0.00954508
0.00982696
0.0100723
0.0102847
0.0104678
0.0106252
0.0107605
0.0108775
0.01098
0.0110716
0.0111562
0.0112376
0.0113195
0.0114057
0.0114997
0.0116047
0.0117232
0.0118569
0.0120063
0.0121707
0.0123473
0.0125324
0.012721
0.012908
0.0130889
0.013261
0.0134238
0.013579
0.01373
0.0138816
0.0140396
9.89598e-05
0.000937234
0.00199062
0.00299515
0.00392145
0.0047689
0.00554156
0.00624412
0.00688102
0.00745634
0.00797383
0.00843707
0.00884948
0.00921444
0.00953533
0.00981556
0.0100586
0.010268
0.0104474
0.0106005
0.0107311
0.0108429
0.0109399
0.011026
0.0111051
0.0111811
0.0112581
0.0113397
0.0114298
0.0115317
0.0116481
0.0117809
0.0119311
0.012098
0.0122798
0.0124728
0.0126727
0.0128747
0.0130743
0.0132682
0.0134549
0.0136345
0.0138091
0.0139815
0.0141554
9.83489e-05
0.000933776
0.00198346
0.00298477
0.00390864
0.00475448
0.00552626
0.00622853
0.00686556
0.00744126
0.00795922
0.00842284
0.0088354
0.00920012
0.00952028
0.00979919
0.0100403
0.0102471
0.0104232
0.0105724
0.0106985
0.0108054
0.0108971
0.0109777
0.0110511
0.0111216
0.0111932
0.01127
0.0113556
0.0114538
0.0115674
0.0116986
0.0118486
0.0120174
0.0122034
0.0124037
0.0126145
0.012831
0.0130489
0.0132642
0.0134744
0.0136783
0.0138761
0.0140691
0.0142592
9.77152e-05
0.000929822
0.00197491
0.00297206
0.00389266
0.00473616
0.00550646
0.00620797
0.0068448
0.00742068
0.00793905
0.0084031
0.00881595
0.00918069
0.00950045
0.00977844
0.010018
0.0102226
0.0103959
0.0105416
0.0106636
0.0107659
0.0108526
0.0109277
0.0109956
0.0110604
0.0111264
0.0111978
0.0112785
0.0113722
0.0114823
0.011611
0.01176
0.0119295
0.0121187
0.0123253
0.0125457
0.0127756
0.0130106
0.0132463
0.0134791
0.0137064
0.0139269
0.0141402
0.0143466
9.70657e-05
0.000925417
0.00196507
0.00295717
0.00387368
0.00471413
0.00548238
0.0061827
0.00681903
0.00739493
0.00791365
0.0083782
0.00879154
0.00915658
0.00947631
0.00975382
0.00999235
0.0101953
0.0103663
0.010509
0.0106274
0.0107255
0.0108074
0.0108773
0.0109397
0.0109988
0.011059
0.0111246
0.0111998
0.0112885
0.0113942
0.0115195
0.0116662
0.0118354
0.0120264
0.0122376
0.012466
0.0127076
0.0129579
0.0132121
0.0134659
0.0137154
0.0139577
0.0141908
0.0144137
9.64078e-05
0.00092061
0.00195404
0.00294025
0.00385188
0.00468863
0.00545428
0.00615299
0.00678855
0.00736432
0.00788336
0.00834852
0.00876254
0.00912819
0.00944829
0.00972578
0.00996381
0.0101657
0.0103349
0.0104752
0.0105905
0.0106848
0.0107624
0.0108275
0.0108845
0.010938
0.0109923
0.0110518
0.011121
0.011204
0.0113044
0.0114252
0.0115686
0.0117358
0.011927
0.0121409
0.0123752
0.0126262
0.0128894
0.0131598
0.0134323
0.0137022
0.0139651
0.0142177
0.0144574
9.57487e-05
0.000915455
0.00194192
0.00292143
0.00382746
0.00465987
0.00542241
0.00611913
0.00675364
0.00732914
0.0078485
0.00831436
0.0087293
0.00909588
0.00941676
0.00969474
0.00993281
0.0101342
0.0103023
0.0104408
0.0105536
0.0106447
0.0107184
0.0107791
0.0108311
0.010879
0.0109274
0.0109807
0.0110436
0.0111201
0.0112143
0.0113296
0.0114683
0.0116321
0.0118215
0.012036
0.0122737
0.0125313
0.0128045
0.0130882
0.0133769
0.0136648
0.0139468
0.0142181
0.014475
9.50957e-05
0.000910008
0.00192882
0.00290089
0.00380061
0.00462807
0.00538702
0.00608137
0.00671459
0.0072897
0.00780936
0.00827604
0.00869212
0.00905996
0.00938205
0.00966103
0.00989973
0.0101013
0.0102689
0.0104063
0.0105173
0.0106059
0.0106763
0.0107329
0.0107802
0.0108229
0.0108654
0.0109125
0.0109686
0.0110383
0.0111256
0.0112341
0.0113668
0.0115255
0.0117111
0.0119238
0.0121622
0.0124234
0.0127034
0.0129971
0.0132987
0.013602
0.0139009
0.0141899
0.0144639
9.44561e-05
0.000904328
0.00191486
0.00287878
0.00377154
0.00459349
0.00534837
0.00604
0.00667169
0.00724627
0.00776623
0.00823383
0.00865126
0.00902069
0.00934442
0.00962492
0.00986486
0.0100672
0.0102351
0.0103722
0.010482
0.0105688
0.0106365
0.0106897
0.0107328
0.0107705
0.0108074
0.0108481
0.0108974
0.0109597
0.0110394
0.0111403
0.0112655
0.0114174
0.0115972
0.0118056
0.0120418
0.0123035
0.0125868
0.012887
0.013198
0.0135135
0.0138268
0.0141317
0.0144223
9.38368e-05
0.000898476
0.00190016
0.00285529
0.00374047
0.00455637
0.00530674
0.0059953
0.00662521
0.00719914
0.00771938
0.008188
0.00860698
0.00897831
0.0093041
0.00958663
0.0098284
0.0100322
0.0102011
0.0103386
0.0104481
0.0105338
0.0105996
0.01065
0.0106895
0.0107227
0.0107542
0.0107888
0.0108311
0.0108858
0.0109572
0.0110494
0.011166
0.0113094
0.0114814
0.0116832
0.0119144
0.0121733
0.0124564
0.0127592
0.0130758
0.0134
0.0137247
0.0140432
0.014349
9.3245e-05
0.000892515
0.00188485
0.00283061
0.00370765
0.00451699
0.00526243
0.00594758
0.00657548
0.00714861
0.00766908
0.00813878
0.00855949
0.00893301
0.00926125
0.00954631
0.0097905
0.00999647
0.0101671
0.0103057
0.0104158
0.0105011
0.0105659
0.0106143
0.0106508
0.01068
0.0107065
0.0107352
0.0107706
0.0108175
0.0108802
0.0109631
0.0110698
0.0112033
0.0113656
0.0115584
0.0117819
0.0120348
0.0123142
0.0126158
0.0129342
0.0132631
0.0135957
0.0139248
0.0142437
9.26873e-05
0.000886508
0.00186908
0.00280494
0.00367332
0.00447564
0.00521574
0.00589717
0.0065228
0.00709498
0.00761562
0.00808644
0.00850902
0.00888497
0.00921602
0.00950406
0.00975124
0.00996001
0.0101331
0.0102737
0.0103851
0.010471
0.0105355
0.0105827
0.010617
0.0106429
0.0106651
0.0106882
0.0107169
0.0107559
0.0108097
0.0108827
0.0109786
0.0111008
0.0112517
0.0114334
0.0116467
0.0118906
0.0121627
0.0124594
0.0127757
0.0131054
0.0134419
0.0137782
0.0141074
9.21702e-05
0.000880522
0.00185298
0.00277849
0.00363777
0.00443264
0.00516703
0.00584441
0.00646754
0.00703858
0.0075593
0.00803122
0.00845576
0.00883434
0.0091685
0.00945993
0.00971061
0.0099228
0.0100991
0.0102424
0.010356
0.0104434
0.0105085
0.0105553
0.0105882
0.0106117
0.0106301
0.0106483
0.0106707
0.0107021
0.0107469
0.0108095
0.0108939
0.0110038
0.0111418
0.0113106
0.0115112
0.0117434
0.0120051
0.0122933
0.0126034
0.0129299
0.0132664
0.013606
0.0139421
9.16998e-05
0.000874625
0.0018367
0.00275151
0.0036013
0.00438835
0.00511668
0.00578971
0.00641006
0.00697977
0.00750043
0.00797341
0.00839994
0.00878128
0.00911877
0.00941395
0.00966859
0.00988476
0.0100649
0.0102117
0.0103282
0.010418
0.0104846
0.0105321
0.0105646
0.0105864
0.0106019
0.0106158
0.0106325
0.0106566
0.0106926
0.0107448
0.0108174
0.0109141
0.0110379
0.0111922
0.0113782
0.0115961
0.0118445
0.0121209
0.0124212
0.0127405
0.0130728
0.0134117
0.0137507
9.12819e-05
0.000868886
0.00182042
0.00272425
0.00356424
0.00434315
0.00506512
0.0057335
0.00635082
0.00691896
0.00743939
0.00791331
0.0083418
0.00872594
0.00906693
0.00936611
0.00962508
0.00984572
0.0100303
0.0101813
0.0103016
0.0103946
0.0104637
0.0105128
0.0105458
0.0105669
0.0105805
0.0105909
0.0106026
0.01062
0.0106476
0.0106897
0.0107503
0.0108333
0.0109422
0.0110807
0.0112503
0.0114518
0.0116842
0.0119457
0.0122328
0.0125411
0.0128653
0.0131994
0.0135372
9.09215e-05
0.000863375
0.0018043
0.00269699
0.00352695
0.00429748
0.00501281
0.00567627
0.00629028
0.00685661
0.00737658
0.00785126
0.00828159
0.00866851
0.00901305
0.00931639
0.00957997
0.00980549
0.00999498
0.0101508
0.0102757
0.0103727
0.0104452
0.0104968
0.0105313
0.0105528
0.0105655
0.0105734
0.0105811
0.0105926
0.0106125
0.0106449
0.0106938
0.0107632
0.0108566
0.0109783
0.0111303
0.0113134
0.0115277
0.0117715
0.0120423
0.0123361
0.0126484
0.0129736
0.013306
9.06234e-05
0.000858165
0.00178853
0.00267001
0.00348983
0.00425179
0.00496027
0.00561855
0.00622899
0.00679322
0.00731247
0.00778767
0.00821964
0.00860921
0.00895725
0.0092648
0.00953315
0.00976382
0.00995866
0.0101199
0.01025
0.0103518
0.0104285
0.0104836
0.0105207
0.0105436
0.0105563
0.010563
0.0105676
0.0105744
0.0105874
0.0106109
0.0106487
0.0107048
0.0107829
0.0108873
0.0110206
0.0111841
0.0113783
0.0116022
0.0118538
0.01213
0.0124268
0.0127392
0.0130621
9.03918e-05
0.000853325
0.00177329
0.00264362
0.00345328
0.00420659
0.00490805
0.00556095
0.00616754
0.00672938
0.00724759
0.007723
0.00815634
0.0085483
0.00889967
0.00921137
0.0094845
0.00972047
0.00992095
0.0100879
0.0102238
0.0103311
0.0104129
0.0104723
0.010513
0.0105384
0.0105524
0.0105588
0.0105616
0.0105647
0.0105722
0.0105878
0.0106156
0.0106592
0.0107224
0.0108095
0.0109236
0.0110666
0.0112393
0.0114414
0.0116715
0.0119273
0.0122053
0.0125013
0.0128107
9.02303e-05
0.000848926
0.00175877
0.00261815
0.00341774
0.0041624
0.00485676
0.0055041
0.0061066
0.00666575
0.00718256
0.0076578
0.00809212
0.00848614
0.00884055
0.00915615
0.00943397
0.00967523
0.00988146
0.0100545
0.0101964
0.0103098
0.0103973
0.010462
0.0105071
0.010536
0.0105524
0.0105599
0.0105622
0.010563
0.0105661
0.0105753
0.0105943
0.0106266
0.0106759
0.0107465
0.0108416
0.0109636
0.0111139
0.0112928
0.0114995
0.0117324
0.0119888
0.0122651
0.0125573
9.01419e-05
0.000845034
0.00174516
0.00259391
0.00338366
0.00411978
0.00480705
0.00544871
0.00604691
0.00660305
0.00711808
0.00759272
0.00802756
0.00842317
0.00878018
0.00909932
0.00938152
0.0096279
0.00983984
0.010019
0.0101673
0.0102871
0.0103809
0.0104515
0.0105019
0.0105354
0.0105552
0.0105649
0.010568
0.0105679
0.0105683
0.0105725
0.0105842
0.0106068
0.0106436
0.010699
0.0107761
0.0108773
0.011005
0.0111599
0.0113419
0.01155
0.0117823
0.012036
0.0123075
9.01288e-05
0.000841715
0.00173265
0.00257124
0.00335151
0.00407933
0.0047596
0.00539555
0.00598927
0.0065421
0.00705494
0.00752849
0.0079633
0.00835993
0.00871897
0.00904113
0.00932725
0.00957839
0.00979579
0.009981
0.0101358
0.0102622
0.0103627
0.0104397
0.0104961
0.0105349
0.0105593
0.0105724
0.0105775
0.0105779
0.010577
0.010578
0.0105842
0.0105988
0.0106251
0.0106669
0.0107275
0.0108094
0.0109148
0.0110456
0.0112023
0.0113844
0.0115908
0.0118193
0.0120673
9.01925e-05
0.000839028
0.00172143
0.00255047
0.00332177
0.00404166
0.00471514
0.00534543
0.00593456
0.00648381
0.00699406
0.00746598
0.00790014
0.0082971
0.00865747
0.00898194
0.00927135
0.00952669
0.00974912
0.00994005
0.0101011
0.0102342
0.0103415
0.0104253
0.0104883
0.0105331
0.0105628
0.0105803
0.0105887
0.010591
0.0105904
0.0105898
0.0105924
0.010601
0.0106188
0.0106491
0.0106953
0.0107599
0.0108451
0.0109525
0.0110839
0.0112396
0.0114189
0.0116205
0.0118424
9.03339e-05
0.000837034
0.00171169
0.00253195
0.00329493
0.00400742
0.00467446
0.00529925
0.00588375
0.0064292
0.00693646
0.00740619
0.007839
0.00823551
0.00859636
0.0089223
0.00921417
0.00947294
0.00969973
0.00989585
0.0100628
0.0102024
0.0103164
0.0104072
0.010477
0.0105284
0.0105641
0.0105869
0.0105996
0.010605
0.0106061
0.0106055
0.0106063
0.010611
0.0106224
0.0106437
0.0106779
0.0107275
0.0107947
0.0108814
0.0109889
0.0111185
0.0112706
0.0114445
0.0116387
9.05536e-05
0.000835793
0.00170361
0.00251601
0.00327154
0.0039773
0.00463841
0.005258
0.00583794
0.00637942
0.0068833
0.00735026
0.00778098
0.00817616
0.00853653
0.00886292
0.00915622
0.00941745
0.0096477
0.00984824
0.0100205
0.010166
0.0102866
0.0103842
0.0104609
0.0105192
0.0105614
0.0105901
0.0106079
0.0106174
0.0106214
0.0106224
0.0106229
0.0106257
0.010633
0.0106475
0.0106722
0.0107096
0.0107617
0.0108303
0.010917
0.0110229
0.0111487
0.0112949
0.0114609
9.08521e-05
0.000835374
0.00169743
0.00250308
0.00325217
0.0039521
0.00460797
0.00522278
0.00579834
0.00633578
0.00683593
0.00729954
0.00772738
0.00812025
0.00847904
0.00880469
0.00909822
0.00936071
0.0095933
0.00979723
0.00997384
0.0101246
0.0102511
0.0103552
0.0104387
0.0105038
0.0105527
0.0105877
0.0106113
0.0106257
0.0106336
0.0106372
0.0106391
0.0106414
0.0106466
0.0106567
0.0106745
0.0107024
0.0107421
0.0107957
0.0108645
0.0109499
0.0110528
0.0111735
0.0113121
9.12308e-05
0.000835866
0.0016934
0.00249364
0.00323757
0.00393277
0.00458426
0.00519493
0.00576642
0.00629981
0.00679593
0.0072556
0.00767969
0.0080692
0.00842517
0.00874875
0.00904111
0.00930346
0.00953701
0.00974305
0.00992287
0.0100779
0.0102095
0.0103194
0.0104093
0.010481
0.0105366
0.010578
0.0106076
0.0106274
0.0106398
0.0106471
0.0106513
0.0106546
0.0106592
0.010667
0.0106801
0.0107009
0.0107312
0.0107726
0.0108267
0.0108946
0.0109775
0.0110759
0.0111902
9.16936e-05
0.000837397
0.00169189
0.00248832
0.00322864
0.00392049
0.00456874
0.00517604
0.00574391
0.00627333
0.00676515
0.00722025
0.0076397
0.00802467
0.00837647
0.00869646
0.00898604
0.00924661
0.00947953
0.00968613
0.00986775
0.0100257
0.0101614
0.0102762
0.0103717
0.0104495
0.0105113
0.0105591
0.0105947
0.0106202
0.0106376
0.0106489
0.0106562
0.0106615
0.0106666
0.0106735
0.0106839
0.0106998
0.010723
0.0107551
0.0107973
0.0108509
0.0109168
0.0109958
0.0110884
9.22489e-05
0.000840163
0.00169342
0.00248803
0.00322664
0.00391685
0.00456323
0.00516818
0.00573301
0.0062586
0.00674582
0.0071957
0.00760948
0.00798861
0.00833469
0.00864939
0.00893439
0.00919133
0.00942176
0.00962714
0.00980885
0.00996821
0.0101065
0.010225
0.0103251
0.0104082
0.0104758
0.0105294
0.0105708
0.0106018
0.0106242
0.0106399
0.0106507
0.0106585
0.010665
0.0106719
0.010681
0.0106936
0.0107116
0.0107365
0.0107693
0.0108113
0.0108632
0.0109258
0.0109996
9.29132e-05
0.000844471
0.0016988
0.00249406
0.00323336
0.00392403
0.00457024
0.00517403
0.00573648
0.00625839
0.00674066
0.00718451
0.00759144
0.00796324
0.00830186
0.00860936
0.00888774
0.00913896
0.0093648
0.00956691
0.00974677
0.00990571
0.010045
0.0101657
0.0102691
0.0103564
0.0104288
0.0104876
0.0105344
0.0105706
0.0105978
0.0106178
0.0106321
0.0106425
0.0106507
0.0106582
0.0106665
0.0106771
0.0106913
0.0107105
0.0107359
0.0107684
0.0108088
0.0108577
0.0109154
9.37167e-05
0.00085079
0.00170918
0.00250829
0.0032513
0.00394504
0.00459313
0.00519716
0.00575794
0.00627621
0.00675301
0.00718978
0.0075884
0.00795108
0.00828023
0.00857833
0.00884781
0.00909096
0.00930989
0.00950645
0.00968224
0.00983868
0.00997697
0.0100982
0.0102034
0.0102935
0.0103695
0.0104326
0.010484
0.0105248
0.0105564
0.0105804
0.0105981
0.0106111
0.010621
0.0106291
0.010637
0.0106459
0.0106571
0.0106717
0.0106908
0.0107154
0.010746
0.0107832
0.0108272
9.471e-05
0.000859824
0.00172629
0.00253346
0.00328407
0.00398415
0.00463655
0.00524233
0.00580207
0.00631651
0.00678691
0.00721513
0.00760355
0.00795492
0.00827219
0.00855837
0.00881636
0.00904887
0.00925831
0.0094468
0.00961612
0.00976775
0.0099029
0.0100226
0.0101277
0.0102191
0.0102974
0.0103636
0.0104185
0.0104632
0.0104986
0.0105261
0.0105468
0.0105622
0.0105735
0.0105822
0.0105896
0.0105968
0.0106052
0.0106157
0.0106293
0.0106467
0.0106687
0.0106957
0.0107277
9.5974e-05
0.000872585
0.00175258
0.00257345
0.00333677
0.00404729
0.00470686
0.00531595
0.00587496
0.00638482
0.00684727
0.00726478
0.00764044
0.00797769
0.00828018
0.00855151
0.0087951
0.0090141
0.00921128
0.009389
0.00954924
0.00969356
0.00982322
0.00993919
0.0100422
0.010133
0.010212
0.0102799
0.0103372
0.0103847
0.0104232
0.0104535
0.0104768
0.0104942
0.0105067
0.0105158
0.0105224
0.0105279
0.0105334
0.0105398
0.0105481
0.0105589
0.0105728
0.0105902
0.0106113
9.76306e-05
0.000890475
0.00179149
0.00263379
0.00341662
0.00414277
0.00481277
0.00542651
0.00598442
0.006488
0.00693985
0.00734341
0.00770277
0.0080223
0.00830646
0.00855951
0.00878544
0.00898783
0.00916978
0.0093339
0.00948233
0.00961675
0.00973842
0.00984829
0.00994704
0.0100351
0.010113
0.0101809
0.0102392
0.0102884
0.010329
0.0103615
0.0103868
0.0104058
0.0104193
0.0104285
0.0104344
0.0104381
0.0104406
0.0104428
0.0104458
0.0104501
0.0104563
0.0104647
0.0104755
9.98539e-05
0.000915418
0.00184789
0.00272243
0.00353403
0.0042824
0.00496632
0.00558529
0.00614036
0.00663427
0.00707113
0.00745592
0.00779413
0.00809129
0.00835278
0.0085836
0.00878827
0.00897075
0.00913442
0.00928207
0.00941596
0.00953782
0.00964896
0.00975027
0.00984236
0.00992561
0.0100002
0.0100663
0.0101241
0.0101736
0.0102151
0.010249
0.0102757
0.0102959
0.0103102
0.0103195
0.0103247
0.0103267
0.0103264
0.0103248
0.0103226
0.0103207
0.0103194
0.0103193
0.0103203
0.000102883
0.00095013
0.00192899
0.00285149
0.00370475
0.00448347
0.00518437
0.00580725
0.00635505
0.00683303
0.00724787
0.00760687
0.00791734
0.00818624
0.00841992
0.00862408
0.00880366
0.00896287
0.00910524
0.00923365
0.00935038
0.00945716
0.00955527
0.00964557
0.0097286
0.00980465
0.00987381
0.00993606
0.00999133
0.0100396
0.0100807
0.0101149
0.0101424
0.0101633
0.0101783
0.0101879
0.0101927
0.0101935
0.010191
0.0101862
0.0101797
0.0101722
0.0101643
0.0101563
0.0101485
0.000107073
0.000998761
0.00204679
0.00304139
0.00395453
0.00477274
0.00549111
0.00611206
0.00664305
0.0070941
0.00747603
0.00779932
0.00807351
0.00830702
0.0085071
0.00867989
0.00883054
0.0089633
0.00908165
0.00918836
0.0092856
0.00937504
0.00945784
0.00953481
0.00960643
0.00967291
0.00973427
0.00979039
0.00984107
0.0098861
0.00992527
0.00995846
0.00998561
0.0100068
0.0100222
0.0100322
0.0100371
0.0100375
0.010034
0.0100272
0.0100177
0.0100063
0.00999331
0.00997922
0.00996419
0.000113109
0.00106866
0.00222519
0.00333186
0.00432974
0.0051938
0.00592165
0.00652459
0.00701988
0.0074257
0.00775869
0.00803308
0.0082606
0.00845077
0.00861125
0.0087482
0.00886654
0.00897023
0.00906239
0.00914552
0.0092215
0.00929178
0.00935739
0.00941901
0.00947704
0.00953165
0.00958282
0.00963039
0.00967412
0.0097137
0.00974883
0.00977925
0.00980474
0.00982516
0.00984049
0.0098508
0.00985626
0.00985718
0.00985391
0.00984689
0.00983661
0.00982352
0.00980807
0.00979059
0.00977126
0.000122691
0.00117716
0.00252378
0.00381258
0.00492163
0.00581976
0.00652494
0.00707233
0.00749739
0.00782973
0.00809222
0.008302
0.00847175
0.00861093
0.00872664
0.00882428
0.008908
0.00898101
0.00904581
0.00910432
0.00915804
0.00920804
0.00925514
0.00929985
0.00934248
0.00938316
0.00942186
0.00945843
0.00949265
0.00952424
0.00955287
0.00957824
0.00960007
0.00961812
0.00963223
0.00964228
0.00964828
0.00965029
0.00964847
0.00964303
0.00963425
0.00962242
0.00960783
0.00959071
0.00957121
0.000141645
0.00138675
0.00313449
0.00471939
0.00591941
0.00676666
0.00735646
0.00777205
0.00807163
0.00829313
0.00846096
0.00859101
0.00869386
0.00877677
0.00884486
0.00890183
0.00895043
0.00899272
0.00903028
0.0090643
0.0090957
0.00912516
0.00915318
0.00918007
0.00920603
0.00923115
0.0092554
0.00927869
0.00930088
0.00932174
0.00934107
0.00935861
0.00937413
0.00938739
0.00939822
0.00940645
0.00941198
0.00941474
0.00941474
0.00941201
0.00940665
0.00939877
0.00938848
0.0093759
0.00936107
0.000207711
0.00212099
0.00497886
0.00677836
0.00768862
0.00816068
0.00842709
0.00859121
0.00870001
0.00877639
0.00883239
0.00887488
0.00890802
0.0089345
0.00895613
0.00897418
0.00898957
0.00900299
0.00901495
0.00902585
0.00903599
0.00904558
0.0090548
0.00906374
0.00907249
0.00908105
0.00908944
0.00909762
0.00910554
0.00911312
0.00912028
0.00912693
0.00913297
0.00913829
0.00914281
0.00914644
0.00914911
0.00915077
0.00915138
0.0091509
0.00914934
0.00914669
0.00914297
0.00913818
0.00913231
)
;

boundaryField
{
    leftWall
    {
        type            nutkWallFunction;
        Cmu             0.09;
        kappa           0.41;
        E               9.8;
        value           nonuniform List<scalar> 
42
(
4.98028e-06
4.90042e-06
4.81368e-06
4.7211e-06
4.62374e-06
4.52269e-06
4.4191e-06
4.3141e-06
4.20887e-06
4.10455e-06
4.00232e-06
3.90331e-06
3.80866e-06
3.71944e-06
3.63673e-06
3.5615e-06
3.4947e-06
3.43717e-06
3.3897e-06
3.35296e-06
3.32755e-06
3.31394e-06
3.31251e-06
3.3235e-06
3.34704e-06
3.3832e-06
3.43202e-06
3.4937e-06
3.56879e-06
3.65857e-06
3.76558e-06
3.89446e-06
4.05311e-06
4.25415e-06
4.51662e-06
4.86763e-06
5.34398e-06
5.99963e-06
6.93804e-06
8.41381e-06
1.12843e-05
2.09172e-05
)
;
    }
    rightWall
    {
        type            nutkWallFunction;
        Cmu             0.09;
        kappa           0.41;
        E               9.8;
        value           nonuniform 0();
    }
    lowerWall
    {
        type            nutkWallFunction;
        Cmu             0.09;
        kappa           0.41;
        E               9.8;
        value           nonuniform 0();
    }
    atmosphere
    {
        type            calculated;
        value           uniform 0.009;
    }
    defaultFaces
    {
        type            empty;
    }
    procBoundary2to0
    {
        type            processor;
        value           nonuniform List<scalar> 
46
(
0.0108267
0.0109651
0.0110894
0.0112026
0.0113079
0.0114083
0.0115071
0.0116072
0.0117116
0.011823
0.0119434
0.0120742
0.0122152
0.0123648
0.0125195
0.0126739
0.0128214
0.0129557
0.0130717
0.0131672
0.013244
0.0133078
0.0133675
0.0134336
0.0135165
0.000101038
0.000945352
0.00200381
0.00301103
0.00393763
0.00478334
0.00555275
0.00625115
0.00688358
0.00745476
0.00796907
0.0084306
0.00884328
0.00921087
0.00953702
0.00982532
0.0100793
0.0103023
0.0104979
0.0106693
0.0106693
)
;
    }
    procBoundary2to3
    {
        type            processor;
        value           nonuniform List<scalar> 
43
(
0.01378
0.0139297
0.0140735
0.0142092
0.0143349
0.0144486
0.014547
0.0146259
0.0146827
0.0147146
0.0147191
0.0146937
0.0146365
0.0145463
0.0144231
0.0142679
0.0140832
0.0138724
0.0136396
0.0133898
0.0131283
0.0128608
0.012593
0.0123313
0.0120819
0.0118514
0.0116453
0.0114681
0.0113203
0.0111947
0.0110847
0.0109821
0.0108781
0.0107646
0.0106357
0.0104883
0.0103222
0.0101405
0.0099481
0.00975005
0.0095493
0.00934395
0.00912532
)
;
    }
}


// ************************************************************************* //
