/*--------------------------------*- C++ -*----------------------------------*\
| =========                 |                                                 |
| \\      /  F ield         | OpenFOAM: The Open Source CFD Toolbox           |
|  \\    /   O peration     | Version:  5.0                                   |
|   \\  /    A nd           | Web:      www.OpenFOAM.org                      |
|    \\/     M anipulation  |                                                 |
\*---------------------------------------------------------------------------*/
FoamFile
{
    version     2.0;
    format      ascii;
    class       volScalarField;
    location    "0.7";
    object      p;
}
// * * * * * * * * * * * * * * * * * * * * * * * * * * * * * * * * * * * * * //

dimensions      [1 -1 -2 0 0 0 0];

internalField   nonuniform List<scalar> 
1915
(
-2.24331
-2.24782
-2.25269
-2.25792
-2.26356
-2.26962
-2.27613
-2.28312
-2.29062
-2.29863
-2.3072
-2.31632
-2.32602
-2.33632
-2.34724
-2.35882
-2.37112
-2.38418
-2.39812
-2.41303
-2.42907
-2.44639
-2.46521
-2.48573
-2.50823
-2.27112
-2.27223
-2.2735
-2.27482
-2.27613
-2.27745
-2.27881
-2.28022
-2.28172
-2.28332
-2.28505
-2.28693
-2.289
-2.29127
-2.29377
-2.29651
-2.29951
-2.30276
-2.30628
-2.31009
-2.31421
-2.31868
-2.32349
-2.32867
-2.33424
-2.34023
-2.34666
-2.35357
-2.36098
-2.36892
-2.3774
-2.38643
-2.39603
-2.40621
-2.41699
-2.42842
-2.44052
-2.45337
-2.46703
-2.48161
-2.49721
-2.51399
-2.53215
-2.55189
-2.57339
-2.3423
-2.34343
-2.34476
-2.34613
-2.34749
-2.34885
-2.35025
-2.3517
-2.35322
-2.35483
-2.35657
-2.35845
-2.36051
-2.36277
-2.36524
-2.36795
-2.3709
-2.3741
-2.37756
-2.38131
-2.38536
-2.38974
-2.39447
-2.39956
-2.40504
-2.41094
-2.41726
-2.42405
-2.43133
-2.43912
-2.44744
-2.45631
-2.46573
-2.47571
-2.48628
-2.49746
-2.50928
-2.52181
-2.5351
-2.54924
-2.56433
-2.5805
-2.59793
-2.6168
-2.63734
-2.41395
-2.41511
-2.41646
-2.41787
-2.41927
-2.42067
-2.4221
-2.42357
-2.42511
-2.42673
-2.42847
-2.43035
-2.43239
-2.43461
-2.43705
-2.43971
-2.4426
-2.44574
-2.44913
-2.45279
-2.45674
-2.46102
-2.46563
-2.47061
-2.47597
-2.48173
-2.48792
-2.49454
-2.50164
-2.50923
-2.51734
-2.52597
-2.53514
-2.54486
-2.55513
-2.56599
-2.57746
-2.58958
-2.60241
-2.61604
-2.63054
-2.64604
-2.66269
-2.68068
-2.70025
-2.48609
-2.48726
-2.48863
-2.49006
-2.49148
-2.49291
-2.49436
-2.49585
-2.4974
-2.49903
-2.50075
-2.50261
-2.50462
-2.50681
-2.5092
-2.5118
-2.51463
-2.51768
-2.52099
-2.52455
-2.52839
-2.53253
-2.53701
-2.54184
-2.54705
-2.55264
-2.55864
-2.56507
-2.57195
-2.57929
-2.58713
-2.59547
-2.60432
-2.6137
-2.62361
-2.63408
-2.64511
-2.65676
-2.66907
-2.68211
-2.69597
-2.71075
-2.72661
-2.74372
-2.76234
-2.55873
-2.5599
-2.56127
-2.56272
-2.56415
-2.56559
-2.56705
-2.56855
-2.5701
-2.57172
-2.57343
-2.57526
-2.57724
-2.57938
-2.5817
-2.58424
-2.58698
-2.58995
-2.59316
-2.59661
-2.60032
-2.60432
-2.60864
-2.61329
-2.6183
-2.62369
-2.62947
-2.63566
-2.64228
-2.64934
-2.65685
-2.66485
-2.67333
-2.68231
-2.69179
-2.70179
-2.71233
-2.72345
-2.73518
-2.74758
-2.76075
-2.77478
-2.78983
-2.80609
-2.82379
-2.63188
-2.63303
-2.6344
-2.63584
-2.63727
-2.63872
-2.64018
-2.64168
-2.64322
-2.64483
-2.64652
-2.64832
-2.65024
-2.65233
-2.65458
-2.65703
-2.65969
-2.66256
-2.66566
-2.66898
-2.67256
-2.6764
-2.68054
-2.68499
-2.68978
-2.69493
-2.70045
-2.70637
-2.71268
-2.71941
-2.72657
-2.73417
-2.74223
-2.75075
-2.75975
-2.76923
-2.77921
-2.78973
-2.80083
-2.81256
-2.825
-2.83827
-2.85251
-2.86791
-2.88471
-2.70555
-2.70668
-2.70803
-2.70945
-2.71088
-2.71231
-2.71377
-2.71526
-2.71679
-2.71837
-2.72003
-2.72179
-2.72366
-2.72568
-2.72785
-2.73021
-2.73277
-2.73553
-2.73851
-2.7417
-2.74513
-2.7488
-2.75274
-2.75698
-2.76152
-2.7664
-2.77163
-2.77723
-2.78321
-2.78958
-2.79634
-2.80351
-2.81111
-2.81912
-2.82758
-2.83649
-2.84587
-2.85575
-2.86616
-2.87718
-2.88887
-2.90135
-2.91477
-2.92931
-2.94523
-2.77974
-2.78084
-2.78216
-2.78357
-2.78497
-2.78639
-2.78783
-2.7893
-2.79081
-2.79236
-2.79399
-2.7957
-2.79751
-2.79945
-2.80154
-2.8038
-2.80625
-2.80889
-2.81173
-2.81478
-2.81805
-2.82155
-2.82529
-2.82929
-2.83357
-2.83816
-2.84308
-2.84833
-2.85393
-2.8599
-2.86623
-2.87294
-2.88003
-2.88751
-2.8954
-2.9037
-2.91243
-2.92162
-2.93132
-2.94159
-2.9525
-2.96417
-2.97675
-2.99044
-3.00546
-2.85446
-2.85553
-2.85682
-2.85819
-2.85957
-2.86096
-2.86237
-2.86382
-2.8653
-2.86682
-2.86841
-2.87006
-2.87181
-2.87367
-2.87567
-2.87782
-2.88014
-2.88265
-2.88535
-2.88824
-2.89134
-2.89466
-2.89819
-2.90195
-2.90597
-2.91026
-2.91484
-2.91973
-2.92493
-2.93047
-2.93633
-2.94254
-2.9491
-2.95602
-2.9633
-2.97095
-2.97901
-2.98749
-2.99645
-3.00594
-3.01604
-3.02688
-3.03861
-3.0514
-3.0655
-2.92972
-2.93075
-2.932
-2.93333
-2.93468
-2.93604
-2.93742
-2.93883
-2.94028
-2.94177
-2.9433
-2.94491
-2.94659
-2.94836
-2.95026
-2.9523
-2.95449
-2.95685
-2.95939
-2.96212
-2.96504
-2.96816
-2.97148
-2.975
-2.97875
-2.98274
-2.98698
-2.99149
-2.99628
-3.00136
-3.00674
-3.01243
-3.01843
-3.02475
-3.0314
-3.03839
-3.04574
-3.05349
-3.06168
-3.07037
-3.07965
-3.08963
-3.10047
-3.11234
-3.12547
-3.00552
-3.00652
-3.00772
-3.00901
-3.01031
-3.01164
-3.01298
-3.01436
-3.01577
-3.01721
-3.0187
-3.02025
-3.02186
-3.02355
-3.02534
-3.02726
-3.02932
-3.03153
-3.0339
-3.03645
-3.03918
-3.04209
-3.04518
-3.04847
-3.05195
-3.05564
-3.05954
-3.06367
-3.06804
-3.07267
-3.07755
-3.0827
-3.08812
-3.09383
-3.09983
-3.10613
-3.11276
-3.11976
-3.12716
-3.13503
-3.14346
-3.15256
-3.16247
-3.17338
-3.18548
-3.08188
-3.08284
-3.08399
-3.08524
-3.08649
-3.08777
-3.08908
-3.09041
-3.09178
-3.09318
-3.09462
-3.0961
-3.09764
-3.09925
-3.10094
-3.10274
-3.10465
-3.10671
-3.10891
-3.11127
-3.1138
-3.11649
-3.11935
-3.12239
-3.1256
-3.12898
-3.13255
-3.13632
-3.14028
-3.14445
-3.14884
-3.15345
-3.15829
-3.16337
-3.16871
-3.17432
-3.18022
-3.18644
-3.19304
-3.20007
-3.20763
-3.21581
-3.22477
-3.23467
-3.24568
-3.15881
-3.15972
-3.16083
-3.16202
-3.16323
-3.16446
-3.16572
-3.16701
-3.16833
-3.16968
-3.17106
-3.17248
-3.17395
-3.17548
-3.17707
-3.17875
-3.18053
-3.18243
-3.18445
-3.18662
-3.18894
-3.19141
-3.19403
-3.19681
-3.19974
-3.20283
-3.20607
-3.20947
-3.21303
-3.21676
-3.22067
-3.22475
-3.22902
-3.23349
-3.23817
-3.24308
-3.24824
-3.25369
-3.25947
-3.26565
-3.27231
-3.27956
-3.28753
-3.29637
-3.30625
-3.2363
-3.23718
-3.23823
-3.23937
-3.24052
-3.2417
-3.24292
-3.24416
-3.24543
-3.24672
-3.24805
-3.24941
-3.25081
-3.25225
-3.25375
-3.25532
-3.25697
-3.25871
-3.26057
-3.26254
-3.26464
-3.26688
-3.26926
-3.27177
-3.27443
-3.27721
-3.28013
-3.28318
-3.28635
-3.28966
-3.2931
-3.29668
-3.3004
-3.30427
-3.30831
-3.31253
-3.31696
-3.32164
-3.32661
-3.33193
-3.33769
-3.34399
-3.35095
-3.3587
-3.36742
-3.31438
-3.31522
-3.31622
-3.3173
-3.3184
-3.31953
-3.32069
-3.32187
-3.32309
-3.32433
-3.3256
-3.3269
-3.32823
-3.32959
-3.331
-3.33246
-3.33398
-3.33558
-3.33727
-3.33906
-3.34095
-3.34296
-3.34509
-3.34734
-3.34971
-3.3522
-3.35479
-3.35749
-3.36029
-3.3632
-3.36619
-3.36929
-3.37249
-3.37579
-3.37922
-3.38278
-3.38651
-3.39044
-3.39461
-3.39909
-3.40395
-3.40929
-3.41522
-3.42188
-3.42941
-3.39305
-3.39385
-3.39479
-3.39582
-3.39687
-3.39794
-3.39904
-3.40018
-3.40133
-3.40252
-3.40373
-3.40496
-3.40622
-3.40751
-3.40883
-3.41019
-3.41159
-3.41306
-3.41459
-3.4162
-3.4179
-3.41969
-3.42157
-3.42356
-3.42565
-3.42784
-3.43012
-3.43248
-3.43491
-3.43743
-3.44
-3.44265
-3.44535
-3.44812
-3.45097
-3.45392
-3.45698
-3.46019
-3.4636
-3.46725
-3.47124
-3.47564
-3.48056
-3.48613
-3.49247
-3.47232
-3.47308
-3.47398
-3.47495
-3.47594
-3.47695
-3.478
-3.47907
-3.48017
-3.4813
-3.48244
-3.48361
-3.4848
-3.48601
-3.48725
-3.48851
-3.48981
-3.49115
-3.49254
-3.49398
-3.49549
-3.49708
-3.49874
-3.50048
-3.5023
-3.50419
-3.50616
-3.50819
-3.51028
-3.51242
-3.51459
-3.51681
-3.51905
-3.52133
-3.52365
-3.52602
-3.52846
-3.531
-3.53368
-3.53657
-3.53971
-3.54321
-3.54716
-3.55166
-3.55684
-3.5522
-3.55293
-3.55377
-3.55469
-3.55562
-3.55658
-3.55757
-3.55858
-3.55962
-3.56068
-3.56176
-3.56286
-3.56398
-3.56512
-3.56627
-3.56745
-3.56864
-3.56987
-3.57113
-3.57242
-3.57376
-3.57516
-3.57661
-3.57811
-3.57968
-3.5813
-3.58297
-3.58469
-3.58645
-3.58823
-3.59003
-3.59185
-3.59367
-3.59549
-3.59732
-3.59916
-3.60103
-3.60295
-3.60497
-3.60713
-3.6095
-3.61215
-3.61517
-3.61865
-3.62274
-3.63271
-3.6334
-3.6342
-3.63506
-3.63593
-3.63684
-3.63776
-3.63872
-3.63969
-3.64069
-3.64171
-3.64274
-3.64378
-3.64484
-3.64592
-3.647
-3.64811
-3.64923
-3.65036
-3.65153
-3.65272
-3.65394
-3.6552
-3.65649
-3.65782
-3.65919
-3.66059
-3.66202
-3.66346
-3.66492
-3.66637
-3.66782
-3.66925
-3.67065
-3.67203
-3.6734
-3.67476
-3.67613
-3.67755
-3.67905
-3.68071
-3.68258
-3.68474
-3.68728
-3.69035
-3.71385
-3.7145
-3.71525
-3.71606
-3.71688
-3.71773
-3.7186
-3.71949
-3.7204
-3.72133
-3.72228
-3.72324
-3.72422
-3.7252
-3.7262
-3.7272
-3.72821
-3.72923
-3.73026
-3.7313
-3.73236
-3.73343
-3.73451
-3.73562
-3.73675
-3.73789
-3.73904
-3.7402
-3.74137
-3.74252
-3.74366
-3.74477
-3.74584
-3.74688
-3.74786
-3.7488
-3.74971
-3.75059
-3.75148
-3.75241
-3.75343
-3.7546
-3.75598
-3.75768
-3.75981
-3.79562
-3.79625
-3.79696
-3.79771
-3.79848
-3.79927
-3.80008
-3.80091
-3.80176
-3.80263
-3.80351
-3.8044
-3.80531
-3.80622
-3.80713
-3.80805
-3.80898
-3.8099
-3.81083
-3.81176
-3.8127
-3.81363
-3.81457
-3.81551
-3.81645
-3.8174
-3.81833
-3.81926
-3.82017
-3.82106
-3.82192
-3.82274
-3.8235
-3.8242
-3.82484
-3.82542
-3.82593
-3.82639
-3.82682
-3.82725
-3.82772
-3.82828
-3.829
-3.82994
-3.83125
-3.87806
-3.87865
-3.87932
-3.88003
-3.88074
-3.88148
-3.88223
-3.883
-3.88379
-3.88459
-3.8854
-3.88623
-3.88706
-3.88789
-3.88873
-3.88958
-3.89042
-3.89125
-3.89209
-3.89292
-3.89374
-3.89456
-3.89536
-3.89616
-3.89695
-3.89772
-3.89847
-3.8992
-3.89989
-3.90055
-3.90117
-3.90173
-3.90222
-3.90265
-3.90299
-3.90325
-3.90343
-3.90354
-3.90359
-3.90361
-3.90362
-3.90368
-3.90382
-3.90413
-3.90474
-3.96116
-3.96172
-3.96235
-3.96301
-3.96368
-3.96436
-3.96506
-3.96577
-3.96649
-3.96723
-3.96798
-3.96873
-3.96949
-3.97026
-3.97102
-3.97179
-3.97255
-3.9733
-3.97405
-3.97478
-3.9755
-3.97621
-3.9769
-3.97758
-3.97823
-3.97885
-3.97945
-3.98
-3.98052
-3.98099
-3.9814
-3.98175
-3.98202
-3.98221
-3.98231
-3.98232
-3.98223
-3.98205
-3.9818
-3.98148
-3.98113
-3.98078
-3.98047
-3.98027
-3.9803
-4.04494
-4.04547
-4.04606
-4.04668
-4.0473
-4.04792
-4.04857
-4.04922
-4.04989
-4.05056
-4.05125
-4.05194
-4.05263
-4.05332
-4.05401
-4.0547
-4.05538
-4.05606
-4.05672
-4.05737
-4.058
-4.05861
-4.0592
-4.05977
-4.0603
-4.0608
-4.06126
-4.06168
-4.06205
-4.06236
-4.0626
-4.06278
-4.06287
-4.06287
-4.06278
-4.06259
-4.06229
-4.0619
-4.06141
-4.06084
-4.06022
-4.05956
-4.0589
-4.05831
-4.05789
-4.1294
-4.12991
-4.13046
-4.13103
-4.13161
-4.13219
-4.13278
-4.13338
-4.13399
-4.1346
-4.13522
-4.13585
-4.13647
-4.1371
-4.13772
-4.13833
-4.13894
-4.13954
-4.14013
-4.14069
-4.14124
-4.14177
-4.14227
-4.14274
-4.14317
-4.14357
-4.14392
-4.14422
-4.14447
-4.14465
-4.14476
-4.1448
-4.14475
-4.14461
-4.14437
-4.14403
-4.14358
-4.14303
-4.14238
-4.14164
-4.14082
-4.13995
-4.13905
-4.13818
-4.13743
-4.21457
-4.21506
-4.21557
-4.2161
-4.21662
-4.21715
-4.21769
-4.21824
-4.2188
-4.21936
-4.21992
-4.22048
-4.22105
-4.22161
-4.22216
-4.22271
-4.22325
-4.22377
-4.22429
-4.22478
-4.22525
-4.2257
-4.22612
-4.22651
-4.22685
-4.22716
-4.22742
-4.22763
-4.22777
-4.22785
-4.22786
-4.2278
-4.22764
-4.2274
-4.22705
-4.22661
-4.22606
-4.2254
-4.22464
-4.22379
-4.22285
-4.22185
-4.2208
-4.21975
-4.2188
-4.30045
-4.30091
-4.30138
-4.30187
-4.30235
-4.30284
-4.30333
-4.30383
-4.30434
-4.30485
-4.30535
-4.30586
-4.30636
-4.30686
-4.30735
-4.30783
-4.30831
-4.30877
-4.30921
-4.30964
-4.31004
-4.31042
-4.31076
-4.31108
-4.31135
-4.31158
-4.31177
-4.3119
-4.31196
-4.31197
-4.3119
-4.31175
-4.31152
-4.3112
-4.31079
-4.31028
-4.30966
-4.30894
-4.30813
-4.30722
-4.30623
-4.30516
-4.30404
-4.3029
-4.30184
-4.38705
-4.38748
-4.38792
-4.38837
-4.38881
-4.38926
-4.38971
-4.39016
-4.39062
-4.39108
-4.39153
-4.39198
-4.39243
-4.39287
-4.39331
-4.39373
-4.39414
-4.39454
-4.39492
-4.39529
-4.39563
-4.39594
-4.39622
-4.39647
-4.39668
-4.39685
-4.39697
-4.39703
-4.39704
-4.39698
-4.39686
-4.39665
-4.39637
-4.39601
-4.39555
-4.395
-4.39436
-4.39362
-4.39278
-4.39186
-4.39085
-4.38977
-4.38864
-4.38748
-4.38638
-4.47439
-4.47478
-4.47518
-4.47559
-4.476
-4.47641
-4.47682
-4.47724
-4.47765
-4.47806
-4.47847
-4.47887
-4.47927
-4.47966
-4.48004
-4.48041
-4.48077
-4.48111
-4.48143
-4.48174
-4.48202
-4.48228
-4.48251
-4.4827
-4.48286
-4.48297
-4.48304
-4.48305
-4.48301
-4.48291
-4.48274
-4.4825
-4.48218
-4.48179
-4.48131
-4.48075
-4.4801
-4.47936
-4.47854
-4.47763
-4.47665
-4.4756
-4.47449
-4.47336
-4.47228
-4.56247
-4.56283
-4.56319
-4.56357
-4.56394
-4.56432
-4.5647
-4.56507
-4.56545
-4.56582
-4.56619
-4.56654
-4.56689
-4.56723
-4.56756
-4.56788
-4.56819
-4.56848
-4.56875
-4.56901
-4.56924
-4.56945
-4.56963
-4.56977
-4.56988
-4.56995
-4.56998
-4.56995
-4.56987
-4.56974
-4.56954
-4.56928
-4.56895
-4.56855
-4.56807
-4.56751
-4.56687
-4.56616
-4.56536
-4.56449
-4.56355
-4.56255
-4.56149
-4.56042
-4.55938
-4.6513
-4.65162
-4.65195
-4.6523
-4.65265
-4.65299
-4.65334
-4.65369
-4.65403
-4.65436
-4.65469
-4.655
-4.65531
-4.65561
-4.65589
-4.65617
-4.65643
-4.65667
-4.6569
-4.65711
-4.6573
-4.65746
-4.6576
-4.6577
-4.65778
-4.65781
-4.6578
-4.65775
-4.65764
-4.65749
-4.65727
-4.657
-4.65666
-4.65626
-4.65579
-4.65525
-4.65464
-4.65396
-4.65321
-4.65239
-4.6515
-4.65056
-4.64957
-4.64856
-4.6476
-4.74089
-4.74118
-4.74148
-4.7418
-4.74213
-4.74245
-4.74277
-4.74309
-4.7434
-4.7437
-4.74399
-4.74427
-4.74454
-4.74479
-4.74504
-4.74527
-4.74549
-4.74569
-4.74588
-4.74605
-4.7462
-4.74633
-4.74643
-4.7465
-4.74654
-4.74655
-4.74652
-4.74644
-4.74632
-4.74615
-4.74593
-4.74565
-4.74532
-4.74493
-4.74448
-4.74397
-4.7434
-4.74276
-4.74206
-4.74129
-4.74047
-4.7396
-4.73868
-4.73775
-4.73685
-4.83126
-4.83151
-4.83179
-4.83209
-4.8324
-4.83271
-4.83301
-4.8333
-4.83358
-4.83385
-4.83411
-4.83435
-4.83459
-4.83481
-4.83501
-4.83521
-4.83539
-4.83556
-4.83571
-4.83585
-4.83596
-4.83606
-4.83613
-4.83618
-4.8362
-4.83618
-4.83613
-4.83604
-4.83591
-4.83574
-4.83552
-4.83525
-4.83493
-4.83456
-4.83414
-4.83366
-4.83313
-4.83254
-4.83189
-4.83119
-4.83043
-4.82963
-4.82879
-4.82793
-4.82711
-4.9224
-4.92263
-4.9229
-4.9232
-4.9235
-4.92379
-4.92407
-4.92434
-4.9246
-4.92484
-4.92506
-4.92527
-4.92547
-4.92566
-4.92583
-4.92599
-4.92614
-4.92627
-4.9264
-4.9265
-4.9266
-4.92667
-4.92672
-4.92674
-4.92674
-4.92671
-4.92665
-4.92655
-4.92642
-4.92625
-4.92603
-4.92578
-4.92548
-4.92514
-4.92475
-4.92431
-4.92382
-4.92329
-4.9227
-4.92206
-4.92137
-4.92065
-4.91988
-4.9191
-4.91834
-5.01434
-5.01457
-5.01485
-5.01515
-5.01544
-5.01572
-5.01599
-5.01623
-5.01646
-5.01667
-5.01686
-5.01704
-5.0172
-5.01736
-5.0175
-5.01763
-5.01775
-5.01786
-5.01795
-5.01804
-5.0181
-5.01815
-5.01819
-5.0182
-5.01818
-5.01814
-5.01808
-5.01798
-5.01785
-5.01768
-5.01748
-5.01725
-5.01698
-5.01666
-5.01631
-5.01592
-5.01548
-5.015
-5.01448
-5.01391
-5.01329
-5.01264
-5.01195
-5.01124
-5.01055
-5.10708
-5.10737
-5.10766
-5.10798
-5.10827
-5.10853
-5.10877
-5.10899
-5.10918
-5.10936
-5.10952
-5.10966
-5.1098
-5.10992
-5.11003
-5.11013
-5.11023
-5.11031
-5.11039
-5.11045
-5.1105
-5.11053
-5.11055
-5.11055
-5.11052
-5.11048
-5.11041
-5.11032
-5.1102
-5.11005
-5.10987
-5.10965
-5.10941
-5.10914
-5.10883
-5.10848
-5.1081
-5.10768
-5.10722
-5.10672
-5.10618
-5.1056
-5.10499
-5.10437
-5.10375
-5.20066
-5.20105
-5.20141
-5.20173
-5.20201
-5.20225
-5.20246
-5.20263
-5.20279
-5.20293
-5.20305
-5.20316
-5.20326
-5.20335
-5.20344
-5.20352
-5.20359
-5.20365
-5.2037
-5.20375
-5.20378
-5.2038
-5.20381
-5.2038
-5.20377
-5.20373
-5.20366
-5.20358
-5.20347
-5.20333
-5.20318
-5.20299
-5.20278
-5.20255
-5.20228
-5.20199
-5.20166
-5.2013
-5.20091
-5.20049
-5.20003
-5.19953
-5.19901
-5.19847
-5.19793
-5.29503
-5.29565
-5.29611
-5.29646
-5.29671
-5.2969
-5.29705
-5.29718
-5.29728
-5.29737
-5.29745
-5.29753
-5.2976
-5.29767
-5.29773
-5.29779
-5.29784
-5.29788
-5.29792
-5.29795
-5.29797
-5.29798
-5.29798
-5.29796
-5.29793
-5.29789
-5.29783
-5.29776
-5.29766
-5.29755
-5.29741
-5.29726
-5.29709
-5.29689
-5.29668
-5.29643
-5.29617
-5.29587
-5.29555
-5.29521
-5.29483
-5.29443
-5.294
-5.29355
-5.2931
-5.39006
-5.39113
-5.39179
-5.39219
-5.39239
-5.3925
-5.39256
-5.39261
-5.39266
-5.3927
-5.39274
-5.39278
-5.39283
-5.39287
-5.39291
-5.39295
-5.39298
-5.39301
-5.39304
-5.39306
-5.39307
-5.39307
-5.39306
-5.39304
-5.39301
-5.39297
-5.39292
-5.39285
-5.39278
-5.39268
-5.39258
-5.39245
-5.39232
-5.39217
-5.392
-5.39181
-5.39161
-5.39138
-5.39113
-5.39087
-5.39058
-5.39027
-5.38995
-5.3896
-5.38925
-5.48612
-5.4879
-5.48882
-5.48905
-5.48903
-5.48897
-5.48892
-5.48889
-5.48887
-5.48887
-5.48889
-5.48891
-5.48893
-5.48896
-5.48898
-5.48901
-5.48903
-5.48905
-5.48906
-5.48907
-5.48907
-5.48906
-5.48905
-5.48903
-5.489
-5.48896
-5.48892
-5.48887
-5.4888
-5.48873
-5.48865
-5.48856
-5.48846
-5.48835
-5.48823
-5.4881
-5.48796
-5.4878
-5.48763
-5.48745
-5.48725
-5.48705
-5.48683
-5.4866
-5.48636
-5.58699
-5.58877
-5.58971
-5.588
-5.58676
-5.58621
-5.58599
-5.58588
-5.58583
-5.58581
-5.58582
-5.58584
-5.58586
-5.58588
-5.5859
-5.58592
-5.58593
-5.58594
-5.58595
-5.58595
-5.58594
-5.58593
-5.58591
-5.58589
-5.58586
-5.58583
-5.58579
-5.58575
-5.5857
-5.58565
-5.58559
-5.58553
-5.58547
-5.5854
-5.58533
-5.58525
-5.58517
-5.58508
-5.58499
-5.58489
-5.58479
-5.58469
-5.58458
-5.58447
-5.58437
-5.67844
-5.69474
-5.69576
-5.68909
-5.68598
-5.6848
-5.68427
-5.68401
-5.6839
-5.68386
-5.68386
-5.68387
-5.68388
-5.6839
-5.68391
-5.68392
-5.68393
-5.68392
-5.68392
-5.68391
-5.68389
-5.68387
-5.68385
-5.68382
-5.68379
-5.68376
-5.68373
-5.6837
-5.68366
-5.68363
-5.68359
-5.68356
-5.68353
-5.6835
-5.68347
-5.68344
-5.68342
-5.6834
-5.68339
-5.68338
-5.68337
-5.68337
-5.68338
-5.68339
-5.68342
)
;

boundaryField
{
    leftWall
    {
        type            calculated;
        value           nonuniform List<scalar> 
42
(
-2.27112
-2.3423
-2.41395
-2.48609
-2.55873
-2.63188
-2.70555
-2.77974
-2.85446
-2.92972
-3.00552
-3.08188
-3.15881
-3.2363
-3.31438
-3.39305
-3.47232
-3.5522
-3.63271
-3.71385
-3.79562
-3.87806
-3.96116
-4.04494
-4.1294
-4.21457
-4.30045
-4.38705
-4.47439
-4.56247
-4.6513
-4.74089
-4.83126
-4.9224
-5.01434
-5.10708
-5.20066
-5.29503
-5.39006
-5.48612
-5.58699
-5.67844
)
;
    }
    rightWall
    {
        type            calculated;
        value           nonuniform 0();
    }
    lowerWall
    {
        type            calculated;
        value           nonuniform 0();
    }
    atmosphere
    {
        type            calculated;
        value           nonuniform List<scalar> 
45
(
-5.72906
-5.73181
-5.73271
-5.73293
-5.73305
-5.73313
-5.73319
-5.73324
-5.73328
-5.73332
-5.73335
-5.73338
-5.7334
-5.73341
-5.73341
-5.7334
-5.73339
-5.73338
-5.73336
-5.73334
-5.73331
-5.73328
-5.73325
-5.73322
-5.73318
-5.73315
-5.73312
-5.73308
-5.73305
-5.73302
-5.733
-5.73298
-5.73296
-5.73294
-5.73293
-5.73293
-5.73293
-5.73295
-5.73297
-5.733
-5.73303
-5.73308
-5.73314
-5.73322
-5.7333
)
;
    }
    defaultFaces
    {
        type            empty;
    }
    procBoundary2to0
    {
        type            processor;
        value           nonuniform List<scalar> 
46
(
-2.17264
-2.17718
-2.18208
-2.18735
-2.19302
-2.19912
-2.20568
-2.21272
-2.22024
-2.22827
-2.23684
-2.24597
-2.25569
-2.26602
-2.27698
-2.28862
-2.30099
-2.31417
-2.32828
-2.34345
-2.35983
-2.37762
-2.397
-2.41827
-2.44175
-2.20042
-2.20147
-2.20268
-2.20393
-2.20517
-2.20644
-2.20775
-2.20912
-2.21059
-2.21217
-2.21389
-2.21578
-2.21786
-2.22014
-2.22265
-2.22541
-2.22843
-2.23171
-2.23527
-2.23913
-2.23913
)
;
    }
    procBoundary2to3
    {
        type            processor;
        value           nonuniform List<scalar> 
43
(
-2.53315
-2.59707
-2.65988
-2.72174
-2.78281
-2.84327
-2.90326
-2.96286
-3.02216
-3.08121
-3.14013
-3.19903
-3.25806
-3.31741
-3.37729
-3.43799
-3.49977
-3.56288
-3.62758
-3.69408
-3.76254
-3.83309
-3.90581
-3.98072
-4.05778
-4.13693
-4.21803
-4.30092
-4.38542
-4.47132
-4.55847
-4.64675
-4.73606
-4.82638
-4.91767
-5.00993
-5.10318
-5.19742
-5.29266
-5.3889
-5.48612
-5.58426
-5.68344
)
;
    }
}


// ************************************************************************* //
