/*--------------------------------*- C++ -*----------------------------------*\
| =========                 |                                                 |
| \\      /  F ield         | OpenFOAM: The Open Source CFD Toolbox           |
|  \\    /   O peration     | Version:  5.0                                   |
|   \\  /    A nd           | Web:      www.OpenFOAM.org                      |
|    \\/     M anipulation  |                                                 |
\*---------------------------------------------------------------------------*/
FoamFile
{
    version     2.0;
    format      ascii;
    class       volScalarField;
    location    "0.7";
    object      p_rgh;
}
// * * * * * * * * * * * * * * * * * * * * * * * * * * * * * * * * * * * * * //

dimensions      [1 -1 -2 0 0 0 0];

internalField   nonuniform List<scalar> 
1915
(
0.100973
0.0964586
0.0915934
0.086358
0.0807238
0.0746633
0.0681509
0.061161
0.0536678
0.045649
0.0370872
0.0279667
0.0182662
0.00796484
-0.00295934
-0.0145415
-0.0268328
-0.0399021
-0.0538375
-0.0687506
-0.0847822
-0.102107
-0.120928
-0.141448
-0.163951
0.138486
0.137381
0.136107
0.13479
0.133482
0.13216
0.130801
0.129385
0.12789
0.126291
0.124562
0.122676
0.120609
0.118336
0.115838
0.113096
0.110102
0.10685
0.10333
0.0995195
0.0953941
0.0909316
0.0861198
0.0809406
0.0753697
0.0693805
0.062945
0.0560351
0.0486235
0.0406866
0.032208
0.0231764
0.0135798
0.00340021
-0.00738554
-0.0188092
-0.0309154
-0.043763
-0.0574258
-0.0719978
-0.0875996
-0.104384
-0.122547
-0.14228
-0.16378
0.133245
0.132106
0.130783
0.129412
0.128055
0.126687
0.125288
0.12384
0.12232
0.120706
0.118971
0.117086
0.115027
0.112771
0.110296
0.107589
0.104639
0.101439
0.0979774
0.0942337
0.0901824
0.085802
0.0810736
0.0759782
0.0704957
0.0646038
0.0582771
0.0514884
0.0442113
0.0364206
0.0280973
0.0192301
0.00981081
-0.000172274
-0.0107384
-0.0219151
-0.033741
-0.0462675
-0.0595601
-0.0736998
-0.0887899
-0.104962
-0.122387
-0.141265
-0.161801
0.128137
0.126977
0.125622
0.124213
0.122818
0.121416
0.119986
0.118512
0.116974
0.115349
0.113613
0.111738
0.109698
0.107469
0.105032
0.102372
0.0994791
0.0963445
0.0929564
0.0892965
0.0853418
0.0810683
0.0764523
0.0714729
0.0661116
0.0603499
0.054167
0.0475392
0.0404421
0.0328513
0.0247454
0.0161109
0.00693975
-0.00277612
-0.0130504
-0.0239044
-0.0353711
-0.0474941
-0.0603307
-0.0739536
-0.0884552
-0.103954
-0.120605
-0.138598
-0.158167
0.123155
0.121988
0.120616
0.119184
0.117764
0.116338
0.114887
0.113396
0.111847
0.11022
0.108491
0.106634
0.104623
0.102433
0.100045
0.0974439
0.0946191
0.0915616
0.0882604
0.0846995
0.0808584
0.076712
0.0722351
0.0674043
0.0622003
0.0566056
0.050603
0.044174
0.0372979
0.0299533
0.022119
0.0137787
0.00492304
-0.00445567
-0.0143678
-0.0248297
-0.035867
-0.0475166
-0.0598281
-0.072868
-0.0867222
-0.101504
-0.11736
-0.134478
-0.153096
0.118298
0.117134
0.115758
0.114316
0.112884
0.111446
0.109983
0.108484
0.106933
0.105312
0.103599
0.101768
0.0997945
0.0976541
0.0953262
0.092795
0.0900488
0.0870789
0.0838756
0.080426
0.076712
0.0727104
0.0683958
0.0637435
0.0587314
0.0533418
0.0475584
0.0413666
0.0347504
0.0276934
0.0201768
0.0121836
0.00370271
-0.00527468
-0.0147573
-0.0247591
-0.0353013
-0.0464148
-0.0581442
-0.0705501
-0.083715
-0.0977494
-0.112801
-0.129056
-0.146755
0.113563
0.112412
0.111044
0.109604
0.108172
0.106731
0.105267
0.103769
0.102224
0.100617
0.0989262
0.0971297
0.0952025
0.0931207
0.090863
0.0884121
0.0857554
0.0828837
0.079789
0.0764611
0.0728856
0.0690428
0.064909
0.0604592
0.0556697
0.0505203
0.0449951
0.0390802
0.0327634
0.0260327
0.0188737
0.0112714
0.0032147
-0.00530609
-0.0143002
-0.0237807
-0.0337672
-0.0442873
-0.0553829
-0.0671117
-0.0795546
-0.0928216
-0.107061
-0.122462
-0.139265
0.108947
0.107816
0.106467
0.105041
0.103618
0.102185
0.100729
0.0992407
0.0977103
0.0961238
0.0944635
0.0927082
0.0908348
0.0888197
0.0866413
0.084281
0.0817249
0.0789629
0.0759878
0.072792
0.069365
0.0656916
0.0617513
0.0575208
0.0529766
0.0480968
0.0428639
0.0372638
0.0312855
0.0249196
0.0181559
0.010983
0.00339098
-0.00462888
-0.0130866
-0.0219952
-0.031374
-0.0412512
-0.0516677
-0.0626812
-0.0743723
-0.0868525
-0.100271
-0.114818
-0.130737
0.10445
0.103346
0.102024
0.100621
0.099217
0.0978005
0.0963604
0.09489
0.0933813
0.0918227
0.0901987
0.0884906
0.0866771
0.0847358
0.0826449
0.0803852
0.0779409
0.0753007
0.0724574
0.0694049
0.0661361
0.0626401
0.0589013
0.0549
0.050615
0.0460247
0.0411105
0.0358568
0.0302522
0.0242878
0.0179556
0.0112476
0.00415574
-0.00332719
-0.0112105
-0.0195083
-0.02824
-0.0374349
-0.0471349
-0.0573998
-0.0683117
-0.0799832
-0.0925652
-0.106248
-0.121274
0.100068
0.0989958
0.0977086
0.0963373
0.0949602
0.0935684
0.0921523
0.0907071
0.0892266
0.0877016
0.086119
0.0844628
0.0827141
0.0808521
0.0788558
0.0767053
0.0743832
0.0718769
0.0691781
0.0662811
0.0631808
0.05987
0.0563385
0.0525718
0.0485526
0.0442622
0.0396824
0.0347967
0.0295924
0.0240596
0.0181911
0.0119804
0.00542064
-0.00149422
-0.00877284
-0.0164293
-0.0244837
-0.0329666
-0.041922
-0.0514111
-0.0615187
-0.0723583
-0.0840815
-0.0968772
-0.110979
0.0958005
0.0947643
0.0935175
0.0921842
0.0908411
0.089481
0.0880958
0.0866821
0.0852355
0.0837487
0.0822116
0.0806108
0.0789303
0.0771516
0.0752547
0.0732197
0.0710283
0.0686665
0.0661242
0.0633951
0.0604748
0.0573587
0.0540409
0.0505126
0.0467619
0.0427743
0.0385341
0.0340259
0.0292365
0.0241548
0.0187732
0.0130855
0.00708471
0.000764835
-0.00588308
-0.0128733
-0.0202268
-0.0279748
-0.0361628
-0.044854
-0.0541338
-0.0641163
-0.074952
-0.0868248
-0.0999529
0.0916456
0.0906478
0.0894458
0.0881561
0.086853
0.0855306
0.0841823
0.0828056
0.0813975
0.079953
0.0784645
0.0769217
0.0753114
0.0736177
0.0718224
0.0699063
0.0678511
0.0656415
0.063266
0.0607166
0.0579883
0.0550778
0.0519822
0.0486972
0.0452161
0.0415301
0.0376275
0.033496
0.0291237
0.0244998
0.0196161
0.0144662
0.00904229
0.0033364
-0.0026609
-0.00896518
-0.0155979
-0.0225916
-0.0299926
-0.037865
-0.0462939
-0.0553924
-0.0653073
-0.0762139
-0.0883118
0.0876009
0.086643
0.0854891
0.0842474
0.0829894
0.0817101
0.0804036
0.0790685
0.0777031
0.0763043
0.0748671
0.0733839
0.0718445
0.0702359
0.068542
0.0667451
0.0648279
0.0627747
0.0605727
0.0582122
0.0556868
0.0529929
0.0501289
0.0470938
0.0438849
0.0404986
0.0369284
0.0331667
0.0292046
0.0250334
0.0206456
0.0160345
0.011192
0.00610828
0.000771627
-0.00483448
-0.010733
-0.0169572
-0.0235543
-0.0305884
-0.0381437
-0.0463304
-0.0552891
-0.065184
-0.0761969
0.0836637
0.0827467
0.0816433
0.0804532
0.0792443
0.0780122
0.0767517
0.0754622
0.0741432
0.0727933
0.0714098
0.0699875
0.0685191
0.0669941
0.0653993
0.0637194
0.0619384
0.0600415
0.0580151
0.0558482
0.053533
0.0510646
0.0484413
0.0456632
0.0427307
0.0396438
0.0364013
0.0330006
0.0294372
0.0257059
0.0218013
0.0177177
0.0134472
0.00897919
0.00430009
-0.000607684
-0.00576826
-0.011216
-0.0169986
-0.0231798
-0.0298423
-0.037092
-0.0450613
-0.0539031
-0.0637842
0.0798317
0.0789558
0.0779042
0.076768
0.0756112
0.0744296
0.0732186
0.0719784
0.0707093
0.0694116
0.0680841
0.0667239
0.0653259
0.0638825
0.0623833
0.0608156
0.0591661
0.0574211
0.0555676
0.053594
0.051491
0.0492525
0.0468758
0.0443607
0.0417086
0.0389226
0.036005
0.0329577
0.0297808
0.0264732
0.0230324
0.0194554
0.0157359
0.0118639
0.00782525
0.00360217
-0.000830149
-0.00550682
-0.0104759
-0.0158001
-0.0215598
-0.0278555
-0.034811
-0.042568
-0.0512821
0.0761021
0.0752666
0.0742673
0.0731864
0.0720836
0.0709551
0.0697967
0.068609
0.0673934
0.066151
0.0648819
0.063585
0.0622569
0.0608927
0.0594848
0.0580237
0.0564987
0.0548982
0.0532106
0.0514244
0.0495299
0.0475198
0.0453902
0.0431399
0.0407705
0.038286
0.0356912
0.0329909
0.0301889
0.0272879
0.0242895
0.0211933
0.0179966
0.0146914
0.0112646
0.00769923
0.00397083
4.4589e-05
-0.00412668
-0.00860424
-0.0134655
-0.0188054
-0.0247385
-0.0313956
-0.0389225
0.0724716
0.0716754
0.0707279
0.0697027
0.0686554
0.067582
0.0664789
0.0653468
0.0641877
0.0630035
0.0617952
0.0605625
0.059304
0.0580171
0.0566966
0.0553361
0.0539278
0.0524626
0.0509306
0.0493215
0.0476259
0.0458363
0.0439479
0.0419583
0.0398686
0.0376827
0.0354063
0.0330458
0.0306073
0.0280966
0.0255188
0.022877
0.0201719
0.0173987
0.0145472
0.0116021
0.00854082
0.00533025
0.00192528
-0.00173275
-0.00571753
-0.0101184
-0.0150409
-0.0206049
-0.026946
0.0689363
0.0681779
0.0672813
0.0663118
0.0653207
0.0643041
0.0632582
0.0621842
0.0610844
0.0599608
0.0588152
0.057648
0.0564594
0.0552484
0.0540123
0.0527471
0.0514477
0.0501076
0.048719
0.0472736
0.045763
0.0441805
0.0425208
0.0407809
0.0389613
0.0370654
0.0350986
0.0330674
0.0309792
0.0288419
0.026663
0.024449
0.0222032
0.0199248
0.0176073
0.0152383
0.0127981
0.0102569
0.00757318
0.00469194
0.00154404
-0.00195369
-0.00589815
-0.0103989
-0.0155834
0.0654926
0.0647703
0.0639233
0.0630091
0.0620745
0.0611154
0.060128
0.0591138
0.058075
0.0570142
0.0559331
0.0548328
0.0537149
0.0525794
0.0514253
0.0502509
0.0490532
0.0478281
0.0465704
0.0452739
0.0439321
0.0425394
0.041091
0.0395839
0.0380184
0.036397
0.0347244
0.0330069
0.0312518
0.0294682
0.0276649
0.0258506
0.0240311
0.0222089
0.0203817
0.0185407
0.0166697
0.0147434
0.0127247
0.0105638
0.00819712
0.00554879
0.00253092
-0.000957969
-0.0050422
0.0621368
0.0614491
0.0606502
0.0597901
0.0589116
0.05801
0.0570818
0.0561282
0.0551519
0.0541553
0.0531402
0.0521085
0.0510621
0.0500017
0.048928
0.0478407
0.0467385
0.0456196
0.0444811
0.043319
0.0421292
0.0409075
0.03965
0.0383546
0.0370215
0.0356532
0.0342534
0.0328275
0.0313828
0.0299283
0.0284736
0.0270283
0.0256002
0.0241942
0.0228114
0.0214474
0.0200898
0.0187177
0.0172997
0.0157918
0.0141379
0.0122703
0.01011
0.00756183
0.00449946
0.0588653
0.0582105
0.0574578
0.0566504
0.0558269
0.0549823
0.0541131
0.0532207
0.0523075
0.051376
0.0504281
0.0494658
0.0484914
0.0475061
0.0465115
0.0455083
0.0444968
0.0434769
0.0424475
0.041407
0.0403532
0.0392836
0.0381959
0.0370889
0.0359636
0.0348224
0.0336686
0.0325069
0.0313443
0.0301893
0.0290515
0.0279407
0.0268658
0.0258334
0.0248473
0.0239066
0.0230033
0.0221208
0.0212332
0.0203036
0.0192838
0.0181149
0.0167274
0.0150319
0.0128984
0.0556739
0.0550502
0.0543417
0.0535851
0.0528153
0.0520267
0.0512161
0.0503846
0.0495346
0.0486684
0.0477878
0.0468955
0.0459931
0.0450826
0.044166
0.0432447
0.0423202
0.0413935
0.0404651
0.0395351
0.0386031
0.0376683
0.0367298
0.0357879
0.0348447
0.0339028
0.0329654
0.0320369
0.0311239
0.0302344
0.0293775
0.0285627
0.0277995
0.0270955
0.0264561
0.0258831
0.0253725
0.024912
0.024481
0.0240498
0.0235778
0.0230151
0.0223021
0.0213567
0.0200469
0.0525578
0.0519636
0.0512972
0.0505897
0.0498719
0.0491382
0.0483851
0.0476136
0.0468261
0.0460246
0.0452113
0.0443884
0.0435578
0.0427216
0.0418817
0.0410404
0.0401996
0.0393613
0.0385271
0.0376983
0.0368761
0.0360607
0.035253
0.0344548
0.0336691
0.0328989
0.0321478
0.0314203
0.0307226
0.0300621
0.0294474
0.0288877
0.0283923
0.0279692
0.0276248
0.0273625
0.0271815
0.027074
0.0270243
0.0270084
0.0269934
0.0269377
0.0267919
0.0264817
0.0258779
0.049512
0.0489459
0.0483201
0.0476597
0.0469923
0.0463118
0.0456148
0.044902
0.0441759
0.0434381
0.042691
0.0419366
0.0411766
0.0404132
0.0396486
0.038885
0.038125
0.0373708
0.0366249
0.0358897
0.0351671
0.0344583
0.0337657
0.0330923
0.0324417
0.0318177
0.0312244
0.0306665
0.0301501
0.0296822
0.0292707
0.0289243
0.028652
0.0284619
0.0283604
0.0283524
0.0284388
0.0286155
0.0288713
0.0291875
0.0295375
0.0298876
0.0301976
0.0304006
0.0303747
0.0465316
0.0459928
0.0454061
0.0447912
0.0441724
0.0435435
0.0429008
0.0422451
0.0415785
0.0409027
0.04022
0.0395322
0.0388409
0.0381483
0.0374566
0.0367683
0.0360859
0.0354118
0.034749
0.0341007
0.0334689
0.032856
0.0322652
0.0317003
0.0311654
0.0306652
0.030204
0.0297872
0.0294205
0.0291107
0.0288652
0.0286922
0.0286001
0.0285965
0.0286879
0.0288796
0.0291739
0.0295688
0.0300568
0.0306241
0.0312496
0.0319069
0.0325626
0.0331572
0.0335778
0.0436121
0.0431002
0.0425514
0.0419805
0.0414088
0.0408294
0.0402389
0.039638
0.0390285
0.0384123
0.0377916
0.0371677
0.0365426
0.0359182
0.0352967
0.0346805
0.034072
0.0334736
0.0328889
0.0323211
0.0317726
0.0312463
0.030746
0.0302759
0.0298406
0.0294449
0.0290941
0.0287934
0.0285486
0.0283662
0.0282531
0.028217
0.0282654
0.0284054
0.0286432
0.0289841
0.0294312
0.0299838
0.0306367
0.0313799
0.0321977
0.0330693
0.0339675
0.0348396
0.0355815
0.0407488
0.040264
0.0397526
0.0392244
0.0386978
0.0381658
0.0376248
0.0370759
0.0365206
0.0359611
0.0353992
0.0348363
0.0342742
0.0337147
0.0331599
0.0326121
0.0320731
0.031546
0.0310343
0.030541
0.0300688
0.0296209
0.0292014
0.0288146
0.0284651
0.0281582
0.0278992
0.0276937
0.0275471
0.0274656
0.0274557
0.0275244
0.0276783
0.027924
0.0282671
0.0287128
0.0292641
0.029921
0.0306799
0.0315334
0.0324698
0.0334729
0.0345209
0.0355681
0.0365196
0.0379374
0.037481
0.0370065
0.0365197
0.0360359
0.0355484
0.035054
0.0345539
0.0340495
0.0335433
0.0330367
0.0325311
0.0320282
0.0315297
0.0310377
0.0305539
0.0300802
0.0296197
0.0291757
0.028751
0.0283484
0.0279715
0.0276241
0.0273104
0.0270351
0.0268036
0.0266213
0.0264933
0.026425
0.0264222
0.0264909
0.0266373
0.0268673
0.0271866
0.0276005
0.0281134
0.0287278
0.0294441
0.0302598
0.0311694
0.0321635
0.0332297
0.0343505
0.0354858
0.0365513
0.0351744
0.0347482
0.0343106
0.0338633
0.0334197
0.0329735
0.0325221
0.0320669
0.0316097
0.0311529
0.0306975
0.0302452
0.0297974
0.0293559
0.0289224
0.0284982
0.0280852
0.0276864
0.0273047
0.0269426
0.0266032
0.0262899
0.0260064
0.0257568
0.0255457
0.0253783
0.0252595
0.0251942
0.0251876
0.0252453
0.0253725
0.0255745
0.0258564
0.0262231
0.0266792
0.0272285
0.0278731
0.0286134
0.0294477
0.0303714
0.031377
0.032454
0.0335878
0.0347438
0.035847
0.0324566
0.0320633
0.0316625
0.0312524
0.0308456
0.0304366
0.0300242
0.0296098
0.0291958
0.028784
0.0283758
0.0279726
0.0275757
0.0271868
0.0268072
0.0264381
0.0260812
0.025739
0.0254139
0.0251085
0.0248257
0.0245691
0.0243419
0.0241481
0.023992
0.0238784
0.0238117
0.0237965
0.023838
0.0239409
0.0241101
0.0243496
0.0246638
0.0250568
0.0255328
0.0260949
0.0267448
0.0274827
0.0283074
0.0292148
0.0301987
0.0312501
0.0323563
0.0334863
0.0345719
0.0297817
0.0294242
0.0290593
0.0286833
0.0283089
0.0279327
0.0275548
0.0271769
0.0268019
0.026431
0.0260658
0.0257074
0.0253572
0.0250168
0.0246868
0.0243682
0.0240625
0.0237715
0.0234972
0.0232423
0.0230099
0.022803
0.0226249
0.0224789
0.0223693
0.0223
0.0222752
0.0222993
0.022377
0.0225127
0.02271
0.0229724
0.0233033
0.0237066
0.0241856
0.024743
0.02538
0.0260966
0.0268916
0.027762
0.0287027
0.0297057
0.0307597
0.031835
0.0328689
0.0271476
0.0268283
0.0264969
0.0261505
0.0258034
0.0254552
0.0251072
0.0247617
0.0244214
0.0240875
0.0237613
0.023444
0.0231369
0.0228408
0.022556
0.0222832
0.0220233
0.0217779
0.0215488
0.0213388
0.0211506
0.020987
0.0208506
0.0207448
0.0206732
0.0206396
0.0206477
0.0207017
0.0208057
0.0209633
0.0211774
0.0214508
0.0217865
0.0221875
0.0226569
0.0231966
0.0238074
0.0244895
0.0252421
0.0260629
0.0269477
0.0278897
0.028878
0.0298842
0.0308497
0.0245524
0.0242709
0.0239687
0.023646
0.0233207
0.0229958
0.0226731
0.0223558
0.0220462
0.0217459
0.0214557
0.0211764
0.0209087
0.0206527
0.0204086
0.0201768
0.019958
0.0197533
0.0195645
0.019394
0.0192441
0.019117
0.0190154
0.0189425
0.0189015
0.0188958
0.0189288
0.0190042
0.0191257
0.0192961
0.0195176
0.0197924
0.0201231
0.0205122
0.0209621
0.0214745
0.02205
0.022689
0.0233913
0.0241552
0.0249771
0.025851
0.0267672
0.0276999
0.0285932
0.0219935
0.0217449
0.0214649
0.0211588
0.0208494
0.0205426
0.020241
0.0199486
0.0196672
0.0193981
0.0191414
0.0188973
0.0186657
0.0184464
0.0182392
0.0180446
0.0178627
0.0176944
0.017541
0.0174046
0.0172869
0.0171902
0.0171171
0.0170707
0.0170536
0.0170688
0.0171194
0.0172089
0.0173402
0.0175154
0.0177362
0.0180042
0.0183217
0.018691
0.019114
0.019592
0.0201257
0.0207159
0.0213628
0.0220653
0.0228202
0.0236226
0.0244648
0.025323
0.026146
0.0194695
0.0192401
0.0189713
0.0186731
0.0183734
0.0180803
0.0177976
0.0175284
0.0172742
0.0170351
0.0168105
0.0165999
0.0164022
0.0162169
0.0160439
0.015883
0.0157341
0.0155976
0.0154749
0.0153673
0.0152767
0.0152052
0.0151553
0.0151295
0.0151303
0.0151601
0.0152221
0.0153191
0.0154533
0.0156261
0.0158388
0.016093
0.0163907
0.0167339
0.017124
0.017562
0.018049
0.0185862
0.019174
0.0198119
0.0204974
0.0212267
0.0219934
0.0227766
0.0235313
0.0169782
0.0167412
0.0164679
0.0161676
0.0158727
0.0155915
0.0153277
0.0150827
0.0148567
0.0146484
0.0144561
0.0142781
0.014113
0.0139599
0.0138184
0.0136879
0.0135681
0.0134594
0.013363
0.0132801
0.0132122
0.0131615
0.01313
0.0131198
0.0131331
0.0131723
0.01324
0.0133384
0.0134692
0.0136333
0.013832
0.0140667
0.0143391
0.0146509
0.0150029
0.0153965
0.015833
0.0163138
0.0168397
0.0174102
0.0180239
0.0186779
0.0193669
0.0200739
0.0207611
0.0145077
0.0142224
0.0139244
0.013614
0.0133225
0.0130559
0.0128152
0.012599
0.012405
0.0122301
0.0120717
0.0119269
0.0117938
0.0116714
0.0115589
0.0114558
0.0113618
0.0112775
0.0112039
0.011142
0.0110932
0.0110593
0.011042
0.0110431
0.0110646
0.0111085
0.0111768
0.0112714
0.0113935
0.0115439
0.0117239
0.0119345
0.0121772
0.012453
0.012763
0.0131086
0.0134915
0.0139129
0.0143736
0.0148737
0.0154125
0.0159877
0.0165957
0.0172231
0.0178399
0.0120429
0.0116498
0.0112962
0.0109713
0.0106913
0.0104512
0.0102449
0.0100671
0.00991237
0.00977615
0.00965435
0.00954376
0.00944236
0.0093491
0.00926334
0.00918486
0.0091139
0.00905102
0.00899693
0.00895264
0.00891946
0.0088989
0.00889246
0.00890152
0.00892756
0.00897223
0.00903726
0.00912413
0.00923388
0.00936724
0.00952495
0.00970787
0.00991704
0.0101535
0.0104184
0.0107131
0.0110391
0.0113977
0.01179
0.0122164
0.0126761
0.013168
0.0136898
0.0142311
0.0147702
0.00963178
0.00901337
0.00854653
0.00819763
0.0079463
0.00775669
0.0076065
0.00748318
0.00737879
0.00728762
0.00720544
0.00712955
0.00705868
0.0069924
0.00693077
0.0068742
0.00682321
0.00677843
0.00674068
0.00671105
0.00669079
0.00668103
0.00668275
0.00669691
0.00672469
0.00676755
0.00682691
0.00690386
0.006999
0.00711272
0.00724553
0.00739815
0.00757146
0.00776632
0.00798372
0.00822491
0.00849138
0.00878452
0.00910524
0.00945374
0.00982971
0.0102325
0.0106607
0.011108
0.0115585
0.00741286
0.00634548
0.00568273
0.00528415
0.00507999
0.00497348
0.00490759
0.00485789
0.00481438
0.00477241
0.00472991
0.00468655
0.00464295
0.00460008
0.00455904
0.00452085
0.0044864
0.00445666
0.00443269
0.00441556
0.00440612
0.00440496
0.00441267
0.00443006
0.00445818
0.00449812
0.00455068
0.00461636
0.00469542
0.00478813
0.0048949
0.00501621
0.00515259
0.00530468
0.00547333
0.00565971
0.00586508
0.00609039
0.00633618
0.00660268
0.00688985
0.00719728
0.00752471
0.00786801
0.00821661
0.00502853
0.00324222
0.00232831
0.0020902
0.00211564
0.00217739
0.00222607
0.00225791
0.0022725
0.00227169
0.00225923
0.00223907
0.00221451
0.0021881
0.00216179
0.00213711
0.00211537
0.00209776
0.00208524
0.00207841
0.00207758
0.00208311
0.0020955
0.0021154
0.00214335
0.00217973
0.00222479
0.00227871
0.00234158
0.00241348
0.00249452
0.00258483
0.00268466
0.00279443
0.00291471
0.00304622
0.00318964
0.00334549
0.00351409
0.00369559
0.0038898
0.00409668
0.00431638
0.00454623
0.00478043
-0.00130621
-0.00308093
-0.00401875
-0.00230726
-0.00106747
-0.000526507
-0.000297518
-0.000187316
-0.000138323
-0.00012552
-0.000132587
-0.000149498
-0.000170547
-0.000192393
-0.000212916
-0.000230636
-0.00024447
-0.000253704
-0.000258015
-0.000257348
-0.000251665
-0.000240801
-0.00022456
-0.000202878
-0.000175836
-0.000143533
-0.000106017
-6.33685e-05
-1.58042e-05
3.64001e-05
9.30526e-05
0.000154049
0.000219305
0.000288738
0.000362357
0.000440301
0.000522716
0.000609638
0.000700982
0.00079642
0.000895599
0.000998484
0.00110474
0.00121343
0.00132124
0.00266638
-0.0136319
-0.0146462
-0.0079859
-0.00487317
-0.00369236
-0.00316122
-0.00290159
-0.00278728
-0.00274883
-0.00274629
-0.00275879
-0.00277587
-0.00279223
-0.00280525
-0.00281367
-0.00281698
-0.00281513
-0.00280835
-0.00279702
-0.00278149
-0.00276208
-0.00273919
-0.00271329
-0.00268486
-0.0026543
-0.00262199
-0.00258843
-0.00255414
-0.0025196
-0.00248523
-0.00245151
-0.00241901
-0.00238829
-0.00235978
-0.0023339
-0.00231113
-0.00229206
-0.00227726
-0.00226729
-0.00226266
-0.00226412
-0.0022716
-0.00228569
-0.00230699
)
;

boundaryField
{
    leftWall
    {
        type            fixedFluxPressure;
        gradient        uniform 0;
        value           nonuniform List<scalar> 
42
(
0.138486
0.133245
0.128137
0.123155
0.118298
0.113563
0.108947
0.10445
0.100068
0.0958005
0.0916456
0.0876009
0.0836637
0.0798317
0.0761021
0.0724716
0.0689363
0.0654926
0.0621368
0.0588653
0.0556739
0.0525578
0.049512
0.0465316
0.0436121
0.0407488
0.0379374
0.0351744
0.0324566
0.0297817
0.0271476
0.0245524
0.0219935
0.0194695
0.0169782
0.0145077
0.0120429
0.00963178
0.00741286
0.00502853
-0.00130621
0.00266638
)
;
    }
    rightWall
    {
        type            fixedFluxPressure;
        gradient        nonuniform 0();
        value           nonuniform 0();
    }
    lowerWall
    {
        type            fixedFluxPressure;
        gradient        nonuniform 0();
        value           nonuniform 0();
    }
    atmosphere
    {
        type            totalPressure;
        rho             rho;
        psi             none;
        gamma           1;
        p0              uniform 0;
        value           nonuniform List<scalar> 
45
(
-1.9088e-05
-0.00277124
-0.00366653
-0.00389286
-0.00400952
-0.00408675
-0.00414738
-0.00419923
-0.00424435
-0.00428282
-0.00431429
-0.00433848
-0.00435533
-0.00436502
-0.00436785
-0.00436427
-0.00435484
-0.00434013
-0.00432078
-0.00429744
-0.00427077
-0.00424142
-0.00421003
-0.00417723
-0.00414363
-0.00410983
-0.00407642
-0.00404396
-0.00401302
-0.00398419
-0.00395806
-0.00393523
-0.00391634
-0.00390208
-0.00389315
-0.00389029
-0.0038943
-0.00390596
-0.00392608
-0.00395542
-0.00399467
-0.00404435
-0.00410477
-0.00417587
-0.00425705
)
;
    }
    defaultFaces
    {
        type            empty;
    }
    procBoundary2to0
    {
        type            processor;
        value           nonuniform List<scalar> 
46
(
0.106922
0.102379
0.0974825
0.0922108
0.086538
0.0804354
0.0738765
0.0668426
0.0593187
0.0512854
0.0427169
0.0335856
0.0238669
0.0135387
0.00257489
-0.00906253
-0.0214303
-0.0346128
-0.0487226
-0.0638922
-0.0802759
-0.0980573
-0.117446
-0.138711
-0.162188
0.143866
0.142808
0.1416
0.140351
0.13911
0.137847
0.136537
0.135159
0.133691
0.132109
0.130388
0.128502
0.126428
0.124144
0.121631
0.118873
0.115855
0.112571
0.109009
0.105151
0.105151
)
;
    }
    procBoundary2to3
    {
        type            processor;
        value           nonuniform List<scalar> 
43
(
-0.188867
-0.187462
-0.184339
-0.179657
-0.173565
-0.16624
-0.157813
-0.148367
-0.137969
-0.126689
-0.114617
-0.101866
-0.0885796
-0.0749355
-0.0611579
-0.0475051
-0.034243
-0.0216259
-0.00988744
0.000767177
0.0101714
0.0182064
0.024805
0.0299522
0.033684
0.036086
0.0372902
0.0374671
0.036813
0.0355267
0.0337807
0.0317031
0.0293824
0.026873
0.0242024
0.021381
0.018408
0.0152797
0.0119966
0.00856624
0.00502076
0.00143224
-0.00233319
)
;
    }
}


// ************************************************************************* //
