/*--------------------------------*- C++ -*----------------------------------*\
| =========                 |                                                 |
| \\      /  F ield         | OpenFOAM: The Open Source CFD Toolbox           |
|  \\    /   O peration     | Version:  5.0                                   |
|   \\  /    A nd           | Web:      www.OpenFOAM.org                      |
|    \\/     M anipulation  |                                                 |
\*---------------------------------------------------------------------------*/
FoamFile
{
    version     2.0;
    format      ascii;
    class       surfaceScalarField;
    location    "0.7";
    object      phi;
}
// * * * * * * * * * * * * * * * * * * * * * * * * * * * * * * * * * * * * * //

dimensions      [0 3 -1 0 0 0 0];

internalField   nonuniform List<scalar> 
3742
(
4.29061e-07
-7.74096e-06
7.85383e-07
-6.88485e-06
1.16659e-06
-5.98357e-06
1.5698e-06
-5.03495e-06
1.99138e-06
-4.03626e-06
2.42691e-06
-2.98414e-06
2.87101e-06
-1.87458e-06
3.31728e-06
-7.02866e-07
3.75813e-06
5.36472e-07
4.18482e-06
1.84977e-06
4.58728e-06
3.2443e-06
4.95405e-06
4.72796e-06
5.27219e-06
6.30911e-06
5.52732e-06
7.99632e-06
5.70364e-06
9.7982e-06
5.78391e-06
1.17232e-05
5.7495e-06
1.37796e-05
5.5804e-06
1.59757e-05
5.25527e-06
1.83197e-05
4.75153e-06
2.082e-05
4.04539e-06
2.34855e-05
3.11215e-06
2.6325e-05
1.92661e-06
2.93478e-05
4.62344e-07
3.25635e-05
3.59822e-05
-3.00962e-07
-1.38698e-05
-5.80071e-07
-1.50242e-05
-8.30583e-07
-1.5339e-05
-1.05247e-06
-1.5431e-05
-1.24587e-06
-1.54113e-05
-1.41072e-06
-1.53138e-05
-1.54685e-06
-1.51528e-05
-1.65395e-06
-1.49359e-05
-1.73162e-06
-1.46675e-05
-1.77944e-06
-1.43507e-05
-1.79694e-06
-1.39877e-05
-1.78367e-06
-1.35804e-05
-1.73918e-06
-1.31299e-05
-1.66308e-06
-1.26373e-05
-1.55508e-06
-1.21035e-05
-1.41498e-06
-1.15288e-05
-1.24277e-06
-1.09134e-05
-1.0386e-06
-1.02572e-05
-8.02861e-07
-9.55971e-06
-5.36262e-07
-8.82018e-06
-2.39851e-07
-8.03737e-06
8.48626e-08
-7.20957e-06
4.35878e-07
-6.3346e-06
8.10596e-07
-5.40967e-06
1.20571e-06
-4.43137e-06
1.61711e-06
-3.39553e-06
2.03973e-06
-2.29719e-06
2.46746e-06
-1.1306e-06
2.89304e-06
1.10907e-07
3.30794e-06
1.43488e-06
3.70233e-06
2.84991e-06
4.06494e-06
4.36535e-06
4.38302e-06
5.99105e-06
4.64228e-06
7.73708e-06
4.82696e-06
9.61352e-06
4.91986e-06
1.16303e-05
4.90239e-06
1.37971e-05
4.75468e-06
1.61234e-05
4.45568e-06
1.86187e-05
3.9834e-06
2.12923e-05
3.3151e-06
2.41538e-05
2.42762e-06
2.72125e-05
1.2979e-06
3.04775e-05
-9.65624e-08
3.3958e-05
3.76623e-05
-3.16086e-07
-1.35537e-05
-6.14625e-07
-1.47256e-05
-8.87236e-07
-1.50664e-05
-1.13326e-06
-1.51849e-05
-1.35247e-06
-1.5192e-05
-1.54457e-06
-1.51217e-05
-1.70917e-06
-1.49882e-05
-1.84581e-06
-1.47992e-05
-1.95398e-06
-1.45593e-05
-2.03311e-06
-1.42716e-05
-2.08266e-06
-1.39382e-05
-2.10205e-06
-1.3561e-05
-2.09074e-06
-1.31412e-05
-2.04825e-06
-1.26798e-05
-1.97416e-06
-1.21776e-05
-1.86814e-06
-1.16348e-05
-1.73002e-06
-1.10515e-05
-1.55981e-06
-1.04274e-05
-1.3577e-06
-9.76182e-06
-1.12418e-06
-9.05371e-06
-8.60072e-07
-8.30147e-06
-5.66619e-07
-7.50302e-06
-2.45532e-07
-6.6557e-06
1.00907e-07
-5.75612e-06
4.69736e-07
-4.8002e-06
8.57202e-07
-3.78299e-06
1.25864e-06
-2.69863e-06
1.66836e-06
-1.54031e-06
2.0795e-06
-3.00232e-07
2.48398e-06
1.03042e-06
2.87237e-06
2.46152e-06
3.23387e-06
4.00386e-06
3.55614e-06
5.66878e-06
3.82537e-06
7.46786e-06
4.02624e-06
9.41266e-06
4.14205e-06
1.15145e-05
4.15483e-06
1.37843e-05
4.04549e-06
1.62327e-05
3.79406e-06
1.88701e-05
3.37998e-06
2.17064e-05
2.78249e-06
2.47513e-05
1.98101e-06
2.80139e-05
9.55764e-07
3.15028e-05
-3.11555e-07
3.52253e-05
3.91878e-05
-3.26954e-07
-1.32268e-05
-6.40753e-07
-1.44118e-05
-9.31505e-07
-1.47756e-05
-1.19793e-06
-1.49185e-05
-1.43944e-06
-1.49505e-05
-1.65545e-06
-1.49057e-05
-1.8454e-06
-1.47983e-05
-2.00864e-06
-1.4636e-05
-2.14453e-06
-1.44234e-05
-2.25238e-06
-1.41637e-05
-2.33151e-06
-1.38591e-05
-2.38126e-06
-1.35112e-05
-2.40099e-06
-1.31215e-05
-2.39009e-06
-1.26907e-05
-2.34804e-06
-1.22196e-05
-2.27439e-06
-1.17084e-05
-2.16882e-06
-1.11571e-05
-2.03116e-06
-1.0565e-05
-1.86145e-06
-9.93154e-06
-1.65995e-06
-9.2552e-06
-1.42725e-06
-8.53417e-06
-1.1643e-06
-7.76597e-06
-8.72493e-07
-6.9475e-06
-5.53776e-07
-6.07485e-06
-2.10714e-07
-5.14327e-06
1.53369e-07
-4.14707e-06
5.34276e-07
-3.07953e-06
9.26827e-07
-1.93286e-06
1.32472e-06
-6.98126e-07
1.72046e-06
6.34686e-07
2.10525e-06
2.07672e-06
2.46896e-06
3.64016e-06
2.79999e-06
5.33776e-06
3.0853e-06
7.18256e-06
3.31044e-06
9.18753e-06
3.45968e-06
1.13653e-05
3.51616e-06
1.37278e-05
3.46215e-06
1.62868e-05
3.27941e-06
1.90528e-05
2.9495e-06
2.20363e-05
2.45433e-06
2.52465e-05
1.77663e-06
2.86916e-05
9.0063e-07
3.23788e-05
-1.8721e-07
3.63132e-05
4.04979e-05
-3.33936e-07
-1.28928e-05
-6.59085e-07
-1.40867e-05
-9.64188e-07
-1.44705e-05
-1.24737e-06
-1.46353e-05
-1.50766e-06
-1.46903e-05
-1.74425e-06
-1.46691e-05
-1.95633e-06
-1.45862e-05
-2.14311e-06
-1.44492e-05
-2.30377e-06
-1.42628e-05
-2.43753e-06
-1.40299e-05
-2.54357e-06
-1.3753e-05
-2.62114e-06
-1.34336e-05
-2.66947e-06
-1.30731e-05
-2.68787e-06
-1.26723e-05
-2.67569e-06
-1.22318e-05
-2.63237e-06
-1.17518e-05
-2.55744e-06
-1.1232e-05
-2.45059e-06
-1.06719e-05
-2.31167e-06
-1.00705e-05
-2.14074e-06
-9.42613e-06
-1.93815e-06
-8.73676e-06
-1.70455e-06
-7.99957e-06
-1.44102e-06
-7.21103e-06
-1.14912e-06
-6.36675e-06
-8.30978e-07
-5.46141e-06
-4.89433e-07
-4.48861e-06
-1.28128e-07
-3.44084e-06
2.48373e-07
-2.30936e-06
6.34449e-07
-1.0842e-06
1.02334e-06
2.45799e-07
1.40709e-06
1.69299e-06
1.77645e-06
3.2708e-06
2.12083e-06
4.99338e-06
2.4283e-06
6.8751e-06
2.68563e-06
8.93021e-06
2.87845e-06
1.11724e-05
2.99148e-06
1.36148e-05
3.00887e-06
1.62694e-05
2.91455e-06
1.91472e-05
2.69276e-06
2.22581e-05
2.32855e-06
2.56107e-05
1.8084e-06
2.92118e-05
1.12086e-06
3.30663e-05
2.57339e-07
3.71767e-05
4.15423e-05
-3.37451e-07
-1.25554e-05
-6.70345e-07
-1.37538e-05
-9.86224e-07
-1.41546e-05
-1.28265e-06
-1.43389e-05
-1.55831e-06
-1.44146e-05
-1.81213e-06
-1.44153e-05
-2.04311e-06
-1.43552e-05
-2.25029e-06
-1.42421e-05
-2.43271e-06
-1.40803e-05
-2.58943e-06
-1.38732e-05
-2.71955e-06
-1.36229e-05
-2.82219e-06
-1.3331e-05
-2.89649e-06
-1.29988e-05
-2.94165e-06
-1.26272e-05
-2.95691e-06
-1.22166e-05
-2.94161e-06
-1.17671e-05
-2.89515e-06
-1.12784e-05
-2.81705e-06
-1.075e-05
-2.70701e-06
-1.01805e-05
-2.56487e-06
-9.56826e-06
-2.39075e-06
-8.91089e-06
-2.18501e-06
-8.20531e-06
-1.9484e-06
-7.44765e-06
-1.68206e-06
-6.63309e-06
-1.38768e-06
-5.75579e-06
-1.06755e-06
-4.80874e-06
-7.24686e-07
-3.78371e-06
-3.62938e-07
-2.67111e-06
1.28801e-08
-1.46002e-06
3.96902e-07
-1.3822e-07
7.82152e-07
1.30774e-06
1.1605e-06
2.89246e-06
1.52262e-06
4.63127e-06
1.85794e-06
6.53978e-06
2.15479e-06
8.63337e-06
2.40052e-06
1.09267e-05
2.58179e-06
1.34335e-05
2.68498e-06
1.61662e-05
2.69658e-06
1.91356e-05
2.60381e-06
2.23509e-05
2.39514e-06
2.58193e-05
2.06095e-06
2.9546e-05
1.59417e-06
3.35331e-05
9.91037e-07
3.77798e-05
4.22815e-05
-3.37941e-07
-1.22174e-05
-6.7531e-07
-1.34164e-05
-9.98638e-07
-1.38313e-05
-1.30498e-06
-1.40326e-05
-1.59271e-06
-1.41269e-05
-1.86051e-06
-1.41475e-05
-2.1072e-06
-1.41085e-05
-2.33165e-06
-1.40176e-05
-2.53274e-06
-1.38793e-05
-2.70943e-06
-1.36965e-05
-2.8607e-06
-1.34716e-05
-2.98554e-06
-1.32062e-05
-3.08303e-06
-1.29013e-05
-3.15226e-06
-1.2558e-05
-3.19237e-06
-1.21764e-05
-3.20257e-06
-1.17569e-05
-3.18217e-06
-1.12989e-05
-3.13053e-06
-1.08016e-05
-3.04719e-06
-1.02638e-05
-2.93181e-06
-9.68364e-06
-2.78424e-06
-9.05846e-06
-2.60459e-06
-8.38497e-06
-2.39324e-06
-7.659e-06
-2.15094e-06
-6.87539e-06
-1.87889e-06
-6.02784e-06
-1.5788e-06
-5.10883e-06
-1.253e-06
-4.1095e-06
-9.04571e-07
-3.01953e-06
-5.37401e-07
-1.82718e-06
-1.56323e-07
-5.19289e-07
2.32838e-07
9.18595e-07
6.23247e-07
2.50206e-06
1.00702e-06
4.24751e-06
1.37523e-06
6.17158e-06
1.718e-06
8.2906e-06
2.02468e-06
1.062e-05
2.28418e-06
1.3174e-05
2.48534e-06
1.5965e-05
2.61745e-06
1.90035e-05
2.67084e-06
2.22975e-05
2.63747e-06
2.58527e-05
2.51155e-06
2.96719e-05
2.29021e-06
3.37544e-05
1.97411e-06
3.80959e-05
4.26874e-05
-3.35849e-07
-1.18816e-05
-6.74774e-07
-1.30775e-05
-1.00251e-06
-1.35036e-05
-1.31566e-06
-1.37194e-05
-1.61234e-06
-1.38302e-05
-1.89101e-06
-1.38688e-05
-2.1503e-06
-1.38493e-05
-2.38892e-06
-1.3779e-05
-2.60565e-06
-1.36625e-05
-2.7993e-06
-1.35029e-05
-2.96874e-06
-1.33022e-05
-3.11289e-06
-1.3062e-05
-3.23072e-06
-1.27835e-05
-3.32122e-06
-1.24675e-05
-3.38345e-06
-1.21142e-05
-3.41652e-06
-1.17238e-05
-3.41961e-06
-1.12958e-05
-3.39198e-06
-1.08293e-05
-3.33299e-06
-1.03228e-05
-3.24212e-06
-9.77452e-06
-3.11899e-06
-9.18159e-06
-2.96342e-06
-8.54054e-06
-2.77546e-06
-7.84696e-06
-2.55545e-06
-7.09539e-06
-2.30408e-06
-6.2792e-06
-2.02247e-06
-5.39044e-06
-1.71224e-06
-4.41973e-06
-1.3756e-06
-3.35616e-06
-1.01548e-06
-2.1873e-06
-6.35546e-07
-8.99208e-07
-2.40349e-07
5.23407e-07
1.64735e-07
2.09699e-06
5.73442e-07
3.83881e-06
9.78664e-07
5.76636e-06
1.37254e-06
7.89673e-06
1.74663e-06
1.02459e-05
2.09226e-06
1.28284e-05
2.40092e-06
1.56564e-05
2.66477e-06
1.87396e-05
2.87726e-06
2.2085e-05
3.03373e-06
2.56963e-05
3.13198e-06
2.95736e-05
3.17295e-06
3.37135e-05
3.16124e-06
3.81077e-05
4.27429e-05
-3.31605e-07
-1.155e-05
-6.69534e-07
-1.27396e-05
-9.98937e-07
-1.31742e-05
-1.31607e-06
-1.34023e-05
-1.61878e-06
-1.35275e-05
-1.90536e-06
-1.35822e-05
-2.17428e-06
-1.35803e-05
-2.42411e-06
-1.35292e-05
-2.6535e-06
-1.34332e-05
-2.86115e-06
-1.32952e-05
-3.04584e-06
-1.31175e-05
-3.2064e-06
-1.29014e-05
-3.34169e-06
-1.26482e-05
-3.45064e-06
-1.23585e-05
-3.53222e-06
-1.20327e-05
-3.58545e-06
-1.16706e-05
-3.6094e-06
-1.12718e-05
-3.60322e-06
-1.08354e-05
-3.56611e-06
-1.036e-05
-3.49737e-06
-9.84326e-06
-3.39642e-06
-9.28254e-06
-3.26279e-06
-8.67416e-06
-3.09621e-06
-8.01354e-06
-2.8966e-06
-7.295e-06
-2.66415e-06
-6.51165e-06
-2.39935e-06
-5.65523e-06
-2.1031e-06
-4.71597e-06
-1.77674e-06
-3.68253e-06
-1.42213e-06
-2.54191e-06
-1.04174e-06
-1.27958e-06
-6.38739e-07
1.20413e-07
-2.16932e-07
1.67519e-06
2.19188e-07
3.40269e-06
6.64468e-07
5.32108e-06
1.11321e-06
7.44799e-06
1.55932e-06
9.79983e-06
1.99665e-06
1.23911e-05
2.4194e-06
1.52336e-05
2.8226e-06
1.83364e-05
3.20273e-06
2.17049e-05
3.55825e-06
2.53407e-05
3.89024e-06
2.92416e-05
4.2029e-06
3.34008e-05
4.50414e-06
3.78064e-05
4.24411e-05
-3.25617e-07
-1.12244e-05
-6.60366e-07
-1.24048e-05
-9.89029e-07
-1.28455e-05
-1.30757e-06
-1.30838e-05
-1.61366e-06
-1.32214e-05
-1.90542e-06
-1.32905e-05
-2.18118e-06
-1.33046e-05
-2.43939e-06
-1.3271e-05
-2.67859e-06
-1.3194e-05
-2.8974e-06
-1.30764e-05
-3.09448e-06
-1.29204e-05
-3.26859e-06
-1.27273e-05
-3.41853e-06
-1.24983e-05
-3.54314e-06
-1.22339e-05
-3.64131e-06
-1.19345e-05
-3.71198e-06
-1.15999e-05
-3.75414e-06
-1.12297e-05
-3.76681e-06
-1.08228e-05
-3.74906e-06
-1.03777e-05
-3.70004e-06
-9.89229e-06
-3.61894e-06
-9.36365e-06
-3.50505e-06
-8.78806e-06
-3.35775e-06
-8.16083e-06
-3.17658e-06
-7.47617e-06
-2.96122e-06
-6.72701e-06
-2.71155e-06
-5.9049e-06
-2.42772e-06
-4.9998e-06
-2.11017e-06
-4.00007e-06
-1.75971e-06
-2.89237e-06
-1.37756e-06
-1.66172e-06
-9.65425e-07
-2.91716e-07
-5.25479e-07
1.23525e-06
-6.03694e-08
2.93759e-06
4.26814e-07
4.8339e-06
9.32612e-07
6.94219e-06
1.45336e-06
9.27908e-06
1.98548e-06
1.18589e-05
2.52588e-06
1.46932e-05
3.07236e-06
1.77899e-05
3.62423e-06
2.1153e-05
4.18281e-06
2.47822e-05
4.752e-06
2.86725e-05
5.33876e-06
3.2814e-05
5.95354e-06
3.71916e-05
4.17839e-05
-3.18263e-07
-1.09061e-05
-6.48012e-07
-1.20751e-05
-9.73856e-07
-1.25197e-05
-1.29156e-06
-1.27661e-05
-1.59862e-06
-1.29144e-05
-1.89306e-06
-1.2996e-05
-2.17308e-06
-1.30246e-05
-2.43704e-06
-1.3007e-05
-2.68337e-06
-1.29476e-05
-2.91061e-06
-1.28492e-05
-3.11736e-06
-1.27136e-05
-3.3023e-06
-1.25424e-05
-3.46416e-06
-1.23364e-05
-3.60171e-06
-1.20964e-05
-3.71379e-06
-1.18224e-05
-3.79925e-06
-1.15145e-05
-3.85699e-06
-1.11719e-05
-3.88595e-06
-1.07938e-05
-3.88507e-06
-1.03786e-05
-3.85335e-06
-9.92402e-06
-3.78978e-06
-9.42722e-06
-3.6934e-06
-8.88443e-06
-3.5633e-06
-8.29093e-06
-3.39861e-06
-7.64086e-06
-3.19852e-06
-6.9271e-06
-2.96234e-06
-6.14108e-06
-2.68945e-06
-5.27268e-06
-2.37943e-06
-4.31009e-06
-2.032e-06
-3.23979e-06
-1.64713e-06
-2.04659e-06
-1.22505e-06
-7.13791e-07
-7.66263e-07
7.76471e-07
-2.71545e-07
2.44286e-06
2.58115e-07
4.30423e-06
8.21541e-07
6.37876e-06
1.4175e-06
8.68311e-06
2.04499e-06
1.12315e-05
2.70352e-06
1.40347e-05
3.39357e-06
1.70999e-05
4.11703e-06
2.04295e-05
4.87774e-06
2.40214e-05
5.68198e-06
2.78682e-05
6.53887e-06
3.19572e-05
7.46077e-06
3.62697e-05
4.07811e-05
-3.09885e-07
-1.05962e-05
-6.33169e-07
-1.17518e-05
-9.54446e-07
-1.21984e-05
-1.26935e-06
-1.24512e-05
-1.57528e-06
-1.26084e-05
-1.87015e-06
-1.27012e-05
-2.15208e-06
-1.27426e-05
-2.41936e-06
-1.27398e-05
-2.67034e-06
-1.26967e-05
-2.90348e-06
-1.2616e-05
-3.11734e-06
-1.24998e-05
-3.31053e-06
-1.23492e-05
-3.48171e-06
-1.21652e-05
-3.62962e-06
-1.19485e-05
-3.75302e-06
-1.1699e-05
-3.85072e-06
-1.14168e-05
-3.92153e-06
-1.11011e-05
-3.96431e-06
-1.07511e-05
-3.97789e-06
-1.0365e-05
-3.96111e-06
-9.94081e-06
-3.91281e-06
-9.47553e-06
-3.83179e-06
-8.96546e-06
-3.71685e-06
-8.40588e-06
-3.56675e-06
-7.79097e-06
-3.38023e-06
-7.11362e-06
-3.15599e-06
-6.36531e-06
-2.89274e-06
-5.53593e-06
-2.58916e-06
-4.61367e-06
-2.24394e-06
-3.585e-06
-1.85581e-06
-2.43471e-06
-1.42355e-06
-1.14606e-06
-9.45998e-07
2.98916e-07
-4.22051e-07
1.91891e-06
1.49372e-07
3.7328e-06
7.69352e-07
5.75878e-06
1.43908e-06
8.01338e-06
2.16002e-06
1.05105e-05
2.93422e-06
1.32605e-05
3.76463e-06
1.62695e-05
4.6555e-06
1.95387e-05
5.61286e-06
2.30641e-05
6.64491e-06
2.68362e-05
7.7624e-06
3.08397e-05
8.97896e-06
3.50532e-05
3.94488e-05
-3.00799e-07
-1.02954e-05
-6.16481e-07
-1.14361e-05
-9.31762e-07
-1.18831e-05
-1.24221e-06
-1.21407e-05
-1.54517e-06
-1.23055e-05
-1.83849e-06
-1.24079e-05
-2.12024e-06
-1.24609e-05
-2.38863e-06
-1.24714e-05
-2.64199e-06
-1.24433e-05
-2.87872e-06
-1.23793e-05
-3.09732e-06
-1.22812e-05
-3.29635e-06
-1.21502e-05
-3.47445e-06
-1.19872e-05
-3.63029e-06
-1.17926e-05
-3.7626e-06
-1.15667e-05
-3.87012e-06
-1.13092e-05
-3.95163e-06
-1.10196e-05
-4.00588e-06
-1.06968e-05
-4.03162e-06
-1.03393e-05
-4.02757e-06
-9.94487e-06
-3.9924e-06
-9.51071e-06
-3.9247e-06
-9.03316e-06
-3.82301e-06
-8.50758e-06
-3.68574e-06
-7.92824e-06
-3.5112e-06
-7.28817e-06
-3.29755e-06
-6.57895e-06
-3.04283e-06
-5.79065e-06
-2.7449e-06
-4.9116e-06
-2.40143e-06
-3.92847e-06
-2.00997e-06
-2.82617e-06
-1.56789e-06
-1.58814e-06
-1.07243e-06
-1.96552e-07
-5.20663e-07
1.36713e-06
9.05166e-08
3.12161e-06
7.64382e-07
5.0849e-06
1.50444e-06
7.27332e-06
2.31456e-06
9.70039e-06
3.19916e-06
1.23759e-05
4.16348e-06
1.53052e-05
5.2139e-06
1.84883e-05
6.35829e-06
2.19197e-05
7.6064e-06
2.55881e-05
8.97014e-06
2.94759e-05
1.04638e-05
3.35595e-05
3.78083e-05
-2.91293e-07
-1.00041e-05
-5.98535e-07
-1.11288e-05
-9.06686e-07
-1.1575e-05
-1.21131e-06
-1.18361e-05
-1.50974e-06
-1.20071e-05
-1.79979e-06
-1.21178e-05
-2.07951e-06
-1.21812e-05
-2.34707e-06
-1.22038e-05
-2.60076e-06
-1.21896e-05
-2.83897e-06
-1.21411e-05
-3.06014e-06
-1.206e-05
-3.26282e-06
-1.19475e-05
-3.44561e-06
-1.18044e-05
-3.60715e-06
-1.16311e-05
-3.74613e-06
-1.14277e-05
-3.86127e-06
-1.11941e-05
-3.95126e-06
-1.09296e-05
-4.01482e-06
-1.06333e-05
-4.05061e-06
-1.03035e-05
-4.05723e-06
-9.93826e-06
-4.03321e-06
-9.53475e-06
-3.97696e-06
-9.08942e-06
-3.88677e-06
-8.59778e-06
-3.76074e-06
-8.05427e-06
-3.5968e-06
-7.45211e-06
-3.39261e-06
-6.78314e-06
-3.14557e-06
-6.03768e-06
-2.85278e-06
-5.2044e-06
-2.511e-06
-4.27025e-06
-2.11663e-06
-3.22054e-06
-1.66574e-06
-2.03904e-06
-1.15402e-06
-7.08275e-07
-5.76832e-07
7.89933e-07
7.08517e-08
2.47393e-06
7.94387e-07
4.36137e-06
1.59949e-06
6.46822e-06
2.49228e-06
8.8076e-06
3.47941e-06
1.13888e-05
4.56821e-06
1.42164e-05
5.76695e-06
1.72895e-05
7.08509e-06
2.06015e-05
8.5336e-06
2.41395e-05
1.01251e-05
2.78844e-05
1.18743e-05
3.18104e-05
3.58851e-05
-2.81619e-07
-9.72249e-06
-5.79851e-07
-1.08306e-05
-8.80008e-07
-1.12748e-05
-1.17771e-06
-1.15384e-05
-1.47031e-06
-1.17145e-05
-1.75563e-06
-1.18325e-05
-2.03171e-06
-1.19051e-05
-2.29672e-06
-1.19388e-05
-2.54894e-06
-1.19374e-05
-2.78674e-06
-1.19033e-05
-3.00855e-06
-1.18382e-05
-3.2129e-06
-1.17431e-05
-3.39837e-06
-1.16189e-05
-3.56359e-06
-1.14658e-05
-3.70722e-06
-1.12841e-05
-3.82794e-06
-1.10734e-05
-3.92444e-06
-1.08331e-05
-3.99534e-06
-1.05624e-05
-4.03925e-06
-1.02596e-05
-4.05468e-06
-9.92284e-06
-4.04004e-06
-9.54941e-06
-3.99356e-06
-9.1359e-06
-3.91333e-06
-8.67801e-06
-3.79719e-06
-8.17041e-06
-3.64268e-06
-7.60661e-06
-3.44705e-06
-6.97878e-06
-3.20714e-06
-6.2776e-06
-2.91934e-06
-5.4922e-06
-2.57957e-06
-4.61003e-06
-2.18322e-06
-3.6169e-06
-1.72513e-06
-2.49713e-06
-1.19959e-06
-1.23382e-06
-6.00342e-07
1.9068e-07
7.94062e-08
1.79417e-06
8.46958e-07
3.59381e-06
1.71008e-06
5.6051e-06
2.677e-06
7.84069e-06
3.75641e-06
1.03094e-05
4.95757e-06
1.30152e-05
6.29042e-06
1.59567e-05
7.7658e-06
1.91262e-05
9.3956e-06
2.25097e-05
1.1193e-05
2.6087e-05
1.31724e-05
2.98309e-05
3.37077e-05
-2.71984e-07
-9.4505e-06
-5.60871e-07
-1.05417e-05
-8.52411e-07
-1.09833e-05
-1.14233e-06
-1.12484e-05
-1.42804e-06
-1.14288e-05
-1.7074e-06
-1.15531e-05
-1.97848e-06
-1.1634e-05
-2.23946e-06
-1.16778e-05
-2.48863e-06
-1.16882e-05
-2.72435e-06
-1.16675e-05
-2.94509e-06
-1.16174e-05
-3.14935e-06
-1.15389e-05
-3.33572e-06
-1.14325e-05
-3.50281e-06
-1.12987e-05
-3.64929e-06
-1.11376e-05
-3.77381e-06
-1.09489e-05
-3.87502e-06
-1.07319e-05
-3.95153e-06
-1.04859e-05
-4.00187e-06
-1.02093e-05
-4.02447e-06
-9.90024e-06
-4.01765e-06
-9.55624e-06
-3.9795e-06
-9.17405e-06
-3.90793e-06
-8.74958e-06
-3.80054e-06
-8.27781e-06
-3.65458e-06
-7.75257e-06
-3.46689e-06
-7.16646e-06
-3.23384e-06
-6.51065e-06
-2.95123e-06
-5.77482e-06
-2.61421e-06
-4.94705e-06
-2.21728e-06
-4.01383e-06
-1.7542e-06
-2.96022e-06
-1.21799e-06
-1.77004e-06
-6.00946e-07
-4.2637e-07
1.05343e-07
1.08788e-06
9.09942e-07
2.78921e-06
1.8225e-06
4.69254e-06
2.85316e-06
6.81004e-06
4.01249e-06
9.15007e-06
5.31148e-06
1.17162e-05
6.7616e-06
1.45066e-05
8.37484e-06
1.75129e-05
1.01639e-05
2.07207e-05
1.21421e-05
2.41088e-05
1.43237e-05
2.76493e-05
3.13076e-05
-2.62552e-07
-9.18794e-06
-5.41953e-07
-1.02623e-05
-8.2446e-07
-1.07007e-05
-1.10596e-06
-1.09669e-05
-1.38393e-06
-1.11508e-05
-1.65633e-06
-1.12807e-05
-1.92125e-06
-1.13691e-05
-2.17692e-06
-1.14221e-05
-2.42167e-06
-1.14434e-05
-2.65389e-06
-1.14353e-05
-2.87205e-06
-1.13993e-05
-3.07468e-06
-1.13362e-05
-3.26038e-06
-1.12468e-05
-3.42778e-06
-1.11313e-05
-3.57552e-06
-1.09899e-05
-3.70227e-06
-1.08221e-05
-3.80666e-06
-1.06276e-05
-3.88725e-06
-1.04053e-05
-3.94255e-06
-1.0154e-05
-3.97094e-06
-9.87186e-06
-3.97063e-06
-9.55656e-06
-3.93962e-06
-9.20505e-06
-3.87565e-06
-8.81354e-06
-3.77614e-06
-8.37732e-06
-3.63808e-06
-7.89062e-06
-3.45801e-06
-7.34653e-06
-3.23188e-06
-6.73679e-06
-2.95497e-06
-6.05173e-06
-2.62183e-06
-5.28018e-06
-2.22619e-06
-4.40948e-06
-1.76087e-06
-3.42554e-06
-1.21781e-06
-2.31311e-06
-5.8802e-07
-1.05616e-06
1.38319e-07
3.61538e-07
9.7184e-07
1.95569e-06
1.92387e-06
3.74052e-06
3.00626e-06
5.72765e-06
4.23128e-06
7.92505e-06
5.6115e-06
1.0336e-05
7.15972e-06
1.29583e-05
8.88897e-06
1.57837e-05
1.08125e-05
1.87972e-05
1.29439e-05
2.19774e-05
1.5297e-05
2.52962e-05
2.87188e-05
-2.53437e-07
-8.9345e-06
-5.23365e-07
-9.99237e-06
-7.96595e-07
-1.04275e-05
-1.0692e-06
-1.06943e-05
-1.33879e-06
-1.08812e-05
-1.60339e-06
-1.10161e-05
-1.8612e-06
-1.11113e-05
-2.1105e-06
-1.11728e-05
-2.34967e-06
-1.12043e-05
-2.57715e-06
-1.12078e-05
-2.79144e-06
-1.1185e-05
-2.99112e-06
-1.11365e-05
-3.17481e-06
-1.10631e-05
-3.34114e-06
-1.0965e-05
-3.4888e-06
-1.08422e-05
-3.61643e-06
-1.06945e-05
-3.72267e-06
-1.05213e-05
-3.80608e-06
-1.03219e-05
-3.86512e-06
-1.0095e-05
-3.89813e-06
-9.83885e-06
-3.90326e-06
-9.55143e-06
-3.87844e-06
-9.22988e-06
-3.82127e-06
-8.8707e-06
-3.72903e-06
-8.46955e-06
-3.59852e-06
-8.02113e-06
-3.42602e-06
-7.51903e-06
-3.20715e-06
-6.95566e-06
-2.93681e-06
-6.32208e-06
-2.60903e-06
-5.60796e-06
-2.21693e-06
-4.80158e-06
-1.75259e-06
-3.88988e-06
-1.20704e-06
-2.85866e-06
-5.70249e-07
-1.69296e-06
1.68834e-07
-3.77548e-07
1.02217e-06
1.10235e-06
2.00254e-06
2.76016e-06
3.12329e-06
4.6069e-06
4.3982e-06
6.65015e-06
5.84123e-06
8.89299e-06
7.4664e-06
1.13332e-05
9.28765e-06
1.39624e-05
1.13188e-05
1.6766e-05
1.35735e-05
1.97227e-05
1.60651e-05
2.28046e-05
2.59772e-05
-2.44712e-07
-8.68979e-06
-5.0529e-07
-9.7318e-06
-7.6913e-07
-1.01637e-05
-1.03252e-06
-1.0431e-05
-1.29322e-06
-1.06205e-05
-1.54938e-06
-1.076e-05
-1.79928e-06
-1.08613e-05
-2.04131e-06
-1.09308e-05
-2.27391e-06
-1.09716e-05
-2.4956e-06
-1.09861e-05
-2.70493e-06
-1.09756e-05
-2.90053e-06
-1.09409e-05
-3.08106e-06
-1.08826e-05
-3.24519e-06
-1.08009e-05
-3.39162e-06
-1.06958e-05
-3.51902e-06
-1.05671e-05
-3.62602e-06
-1.04143e-05
-3.71119e-06
-1.02367e-05
-3.77298e-06
-1.00332e-05
-3.8097e-06
-9.80214e-06
-3.81945e-06
-9.54167e-06
-3.8001e-06
-9.24922e-06
-3.74919e-06
-8.92161e-06
-3.66387e-06
-8.55487e-06
-3.54081e-06
-8.14419e-06
-3.37609e-06
-7.68375e-06
-3.16511e-06
-7.16664e-06
-2.90247e-06
-6.58471e-06
-2.58185e-06
-5.92858e-06
-2.1959e-06
-5.18753e-06
-1.73614e-06
-4.34964e-06
-1.19292e-06
-3.40189e-06
-5.55362e-07
-2.33052e-06
1.88532e-07
-1.12145e-06
1.05183e-06
2.39051e-07
2.04848e-06
1.7635e-06
3.19314e-06
3.46224e-06
4.50086e-06
5.34243e-06
5.98682e-06
7.40703e-06
7.66613e-06
9.65387e-06
9.55355e-06
1.2075e-05
1.16634e-05
1.46562e-05
1.40094e-05
1.73767e-05
1.66045e-05
2.02095e-05
2.31208e-05
-2.36406e-07
-8.45339e-06
-4.87827e-07
-9.48039e-06
-7.42252e-07
-9.90926e-06
-9.96211e-07
-1.0177e-05
-1.24763e-06
-1.03691e-05
-1.49481e-06
-1.05128e-05
-1.73616e-06
-1.062e-05
-1.97017e-06
-1.06967e-05
-2.19538e-06
-1.07464e-05
-2.4104e-06
-1.07711e-05
-2.61385e-06
-1.07722e-05
-2.80443e-06
-1.07503e-05
-2.98085e-06
-1.07062e-05
-3.14182e-06
-1.06399e-05
-3.28608e-06
-1.05515e-05
-3.41233e-06
-1.04408e-05
-3.51922e-06
-1.03074e-05
-3.60533e-06
-1.01506e-05
-3.6691e-06
-9.96939e-06
-3.70883e-06
-9.7624e-06
-3.72261e-06
-9.52788e-06
-3.70828e-06
-9.26356e-06
-3.66331e-06
-8.96657e-06
-3.58479e-06
-8.63338e-06
-3.46931e-06
-8.25967e-06
-3.31283e-06
-7.84023e-06
-3.11062e-06
-7.36885e-06
-2.85707e-06
-6.83825e-06
-2.54566e-06
-6.24e-06
-2.16872e-06
-5.56448e-06
-1.71741e-06
-4.80095e-06
-1.18162e-06
-3.9377e-06
-5.49895e-07
-2.96224e-06
1.90461e-07
-1.86181e-06
1.05334e-06
-6.23832e-07
2.05364e-06
7.63206e-07
3.20699e-06
2.30889e-06
4.52951e-06
4.01991e-06
6.03743e-06
5.89911e-06
7.74677e-06
7.94453e-06
9.67307e-06
1.01487e-05
1.18311e-05
1.24982e-05
1.42347e-05
1.49732e-05
1.68965e-05
1.75476e-05
2.01893e-05
-2.28513e-07
-8.22488e-06
-4.70992e-07
-9.23793e-06
-7.16022e-07
-9.66424e-06
-9.60394e-07
-9.93263e-06
-1.20223e-06
-1.01272e-05
-1.43999e-06
-1.0275e-05
-1.67224e-06
-1.03877e-05
-1.89761e-06
-1.04714e-05
-2.11475e-06
-1.05293e-05
-2.32236e-06
-1.05635e-05
-2.51917e-06
-1.05753e-05
-2.70396e-06
-1.05656e-05
-2.87548e-06
-1.05346e-05
-3.03253e-06
-1.04828e-05
-3.17387e-06
-1.04102e-05
-3.29825e-06
-1.03165e-05
-3.40435e-06
-1.02013e-05
-3.49076e-06
-1.00642e-05
-3.55595e-06
-9.90421e-06
-3.59822e-06
-9.72014e-06
-3.61565e-06
-9.51045e-06
-3.60607e-06
-9.27314e-06
-3.56695e-06
-9.00569e-06
-3.49534e-06
-8.70498e-06
-3.3878e-06
-8.36722e-06
-3.24024e-06
-7.98779e-06
-3.04786e-06
-7.56123e-06
-2.805e-06
-7.08111e-06
-2.50501e-06
-6.53999e-06
-2.14011e-06
-5.92938e-06
-1.70129e-06
-5.23978e-06
-1.17818e-06
-4.46081e-06
-5.59028e-07
-3.5814e-06
1.69283e-07
-2.59012e-06
1.02117e-06
-1.47572e-06
2.01216e-06
-2.27779e-07
3.15862e-06
1.16243e-06
4.47745e-06
2.70109e-06
5.98569e-06
4.39087e-06
7.70016e-06
6.23006e-06
9.63702e-06
8.21184e-06
1.18115e-05
1.03237e-05
1.42376e-05
1.25471e-05
1.69277e-05
1.48575e-05
1.72243e-05
-2.20995e-07
-8.0039e-06
-4.54725e-07
-9.00421e-06
-6.90379e-07
-9.4286e-06
-9.25029e-07
-9.69799e-06
-1.15701e-06
-9.89523e-06
-1.38499e-06
-1.0047e-05
-1.60768e-06
-1.0165e-05
-1.82388e-06
-1.02552e-05
-2.03237e-06
-1.03208e-05
-2.23198e-06
-1.03639e-05
-2.42153e-06
-1.03858e-05
-2.59988e-06
-1.03872e-05
-2.76589e-06
-1.03686e-05
-2.9184e-06
-1.03303e-05
-3.05625e-06
-1.02723e-05
-3.17821e-06
-1.01945e-05
-3.28302e-06
-1.00965e-05
-3.36929e-06
-9.97794e-06
-3.43552e-06
-9.83798e-06
-3.48003e-06
-9.67563e-06
-3.50093e-06
-9.48955e-06
-3.49604e-06
-9.27802e-06
-3.46286e-06
-9.03887e-06
-3.39845e-06
-8.76939e-06
-3.29938e-06
-8.46629e-06
-3.16158e-06
-8.12559e-06
-2.98027e-06
-7.74254e-06
-2.74982e-06
-7.31156e-06
-2.4636e-06
-6.82621e-06
-2.11385e-06
-6.27913e-06
-1.69156e-06
-5.66207e-06
-1.18637e-06
-4.96601e-06
-5.8647e-07
-4.1813e-06
1.21387e-07
-3.29797e-06
9.51821e-07
-2.30615e-06
1.92067e-06
-1.19662e-06
3.04472e-06
3.83844e-08
4.34135e-06
1.40446e-06
5.82819e-06
2.90403e-06
7.52261e-06
4.53564e-06
9.44132e-06
6.29313e-06
1.15999e-05
8.16509e-06
1.40126e-05
1.01344e-05
1.66916e-05
1.21784e-05
1.42685e-05
-2.1378e-07
-7.79013e-06
-4.38883e-07
-8.77912e-06
-6.65131e-07
-9.20236e-06
-8.89904e-07
-9.47322e-06
-1.11179e-06
-9.67334e-06
-1.32963e-06
-9.82919e-06
-1.54238e-06
-9.9523e-06
-1.74896e-06
-1.00486e-05
-1.94833e-06
-1.01214e-05
-2.13943e-06
-1.01728e-05
-2.32122e-06
-1.0204e-05
-2.49265e-06
-1.02158e-05
-2.65266e-06
-1.02086e-05
-2.80017e-06
-1.01828e-05
-2.93408e-06
-1.01384e-05
-3.05324e-06
-1.00753e-05
-3.15641e-06
-9.99337e-06
-3.24225e-06
-9.8921e-06
-3.3093e-06
-9.77093e-06
-3.35592e-06
-9.62901e-06
-3.38025e-06
-9.46522e-06
-3.38015e-06
-9.27812e-06
-3.35316e-06
-9.06586e-06
-3.2964e-06
-8.82616e-06
-3.20647e-06
-8.55622e-06
-3.07941e-06
-8.25265e-06
-2.91051e-06
-7.91143e-06
-2.69426e-06
-7.52781e-06
-2.42417e-06
-7.0963e-06
-2.09265e-06
-6.61064e-06
-1.69088e-06
-6.06384e-06
-1.20867e-06
-5.44821e-06
-6.34425e-07
-4.75554e-06
4.49364e-08
-3.97733e-06
8.43918e-07
-3.10513e-06
1.77832e-06
-2.13101e-06
2.86498e-06
-1.04827e-06
4.12149e-06
1.47946e-07
5.56572e-06
1.4598e-06
7.21537e-06
2.88599e-06
9.0875e-06
4.421e-06
1.1198e-05
6.05457e-06
1.35612e-05
7.77121e-06
1.61896e-05
9.5501e-06
1.13651e-05
-2.06749e-07
-7.58339e-06
-4.23223e-07
-8.56265e-06
-6.39945e-07
-8.98564e-06
-8.54633e-07
-9.25852e-06
-1.06614e-06
-9.46183e-06
-1.27355e-06
-9.62177e-06
-1.47599e-06
-9.74986e-06
-1.67258e-06
-9.852e-06
-1.86244e-06
-9.93157e-06
-2.04464e-06
-9.99061e-06
-2.21827e-06
-1.00304e-05
-2.38239e-06
-1.00517e-05
-2.53603e-06
-1.0055e-05
-2.6782e-06
-1.00406e-05
-2.80788e-06
-1.00087e-05
-2.92396e-06
-9.95925e-06
-3.02527e-06
-9.89206e-06
-3.11053e-06
-9.80685e-06
-3.17832e-06
-9.70315e-06
-3.22705e-06
-9.58029e-06
-3.25491e-06
-9.43736e-06
-3.25982e-06
-9.2732e-06
-3.23939e-06
-9.08629e-06
-3.19081e-06
-8.87474e-06
-3.11081e-06
-8.63623e-06
-2.99552e-06
-8.36794e-06
-2.84042e-06
-8.06653e-06
-2.64017e-06
-7.72805e-06
-2.38854e-06
-7.34793e-06
-2.07821e-06
-6.92097e-06
-1.70071e-06
-6.44134e-06
-1.24623e-06
-5.90268e-06
-7.03598e-07
-5.29818e-06
-6.01643e-08
-4.62076e-06
6.98142e-07
-3.86343e-06
1.58673e-06
-3.0196e-06
2.62215e-06
-2.08369e-06
3.82179e-06
-1.05169e-06
5.20345e-06
7.81432e-08
6.78486e-06
1.30457e-06
8.5832e-06
2.62266e-06
1.06145e-05
4.02324e-06
1.28933e-05
5.49245e-06
1.54318e-05
7.01151e-06
8.55675e-06
-1.99715e-07
-7.38368e-06
-4.07386e-07
-8.35499e-06
-6.14333e-07
-8.77869e-06
-8.18657e-07
-9.05419e-06
-1.01949e-06
-9.26099e-06
-1.21615e-06
-9.42511e-06
-1.40797e-06
-9.55803e-06
-1.59426e-06
-9.66571e-06
-1.77428e-06
-9.75155e-06
-1.94728e-06
-9.81761e-06
-2.11246e-06
-9.86519e-06
-2.26898e-06
-9.89514e-06
-2.416e-06
-9.90797e-06
-2.5526e-06
-9.90403e-06
-2.67783e-06
-9.8835e-06
-2.79067e-06
-9.84642e-06
-2.89001e-06
-9.79273e-06
-2.97463e-06
-9.72224e-06
-3.04317e-06
-9.63461e-06
-3.0941e-06
-9.52936e-06
-3.12567e-06
-9.40579e-06
-3.1359e-06
-9.26297e-06
-3.12247e-06
-9.09972e-06
-3.08269e-06
-8.91452e-06
-3.01342e-06
-8.7055e-06
-2.91097e-06
-8.47039e-06
-2.77102e-06
-8.20647e-06
-2.58852e-06
-7.91055e-06
-2.35754e-06
-7.5789e-06
-2.07117e-06
-7.20733e-06
-1.72138e-06
-6.79113e-06
-1.29893e-06
-6.32513e-06
-7.93243e-07
-5.80386e-06
-1.92347e-07
-5.22165e-06
5.1712e-07
-4.57289e-06
1.34986e-06
-3.85233e-06
2.32174e-06
-3.05557e-06
3.44957e-06
-2.17951e-06
4.75069e-06
-1.22297e-06
6.24253e-06
-1.87272e-07
7.94207e-06
9.23118e-07
9.8653e-06
2.10001e-06
1.20266e-05
3.3311e-06
1.44385e-05
4.59966e-06
5.88455e-06
-1.92401e-07
-7.19128e-06
-3.90872e-07
-8.15652e-06
-5.87649e-07
-8.58191e-06
-7.81244e-07
-8.86059e-06
-9.71073e-07
-9.07116e-06
-1.15669e-06
-9.23949e-06
-1.33762e-06
-9.37709e-06
-1.51336e-06
-9.48997e-06
-1.68332e-06
-9.58158e-06
-1.84689e-06
-9.65404e-06
-2.0034e-06
-9.70869e-06
-2.15214e-06
-9.7464e-06
-2.29235e-06
-9.76777e-06
-2.42323e-06
-9.77317e-06
-2.5439e-06
-9.76284e-06
-2.65341e-06
-9.73691e-06
-2.75073e-06
-9.69541e-06
-2.83472e-06
-9.63826e-06
-2.90408e-06
-9.56526e-06
-2.95735e-06
-9.47609e-06
-2.99288e-06
-9.37026e-06
-3.00875e-06
-9.2471e-06
-3.00278e-06
-9.10569e-06
-2.97242e-06
-8.94489e-06
-2.91467e-06
-8.76325e-06
-2.82608e-06
-8.55899e-06
-2.70258e-06
-8.32998e-06
-2.53942e-06
-8.0737e-06
-2.33109e-06
-7.78724e-06
-2.07113e-06
-7.46729e-06
-1.75209e-06
-7.11016e-06
-1.3654e-06
-6.71183e-06
-9.01235e-07
-6.26803e-06
-3.485e-07
-5.77439e-06
3.05231e-07
-5.22662e-06
1.07367e-06
-4.62077e-06
1.9717e-06
-3.95359e-06
3.01513e-06
-3.22295e-06
4.22046e-06
-2.4283e-06
5.60439e-06
-1.5712e-06
7.18337e-06
-6.55861e-07
8.97301e-06
3.10379e-07
1.09875e-05
1.31661e-06
1.32391e-05
2.34806e-06
3.38607e-06
-1.84415e-07
-7.00686e-06
-3.73034e-07
-7.9679e-06
-5.59096e-07
-8.39585e-06
-7.41535e-07
-8.67815e-06
-9.20028e-07
-8.89265e-06
-1.09434e-06
-9.06517e-06
-1.26417e-06
-9.20724e-06
-1.42918e-06
-9.32496e-06
-1.58893e-06
-9.42183e-06
-1.74294e-06
-9.50004e-06
-1.89066e-06
-9.56097e-06
-2.0315e-06
-9.60557e-06
-2.1648e-06
-9.63447e-06
-2.28985e-06
-9.64811e-06
-2.40589e-06
-9.64681e-06
-2.51203e-06
-9.63077e-06
-2.60734e-06
-9.60011e-06
-2.69073e-06
-9.55487e-06
-2.76099e-06