/*--------------------------------*- C++ -*----------------------------------*\
| =========                 |                                                 |
| \\      /  F ield         | OpenFOAM: The Open Source CFD Toolbox           |
|  \\    /   O peration     | Version:  5.0                                   |
|   \\  /    A nd           | Web:      www.OpenFOAM.org                      |
|    \\/     M anipulation  |                                                 |
\*---------------------------------------------------------------------------*/
FoamFile
{
    version     2.0;
    format      ascii;
    class       surfaceScalarField;
    location    "0.5";
    object      alphaPhi10;
}
// * * * * * * * * * * * * * * * * * * * * * * * * * * * * * * * * * * * * * //

dimensions      [0 3 -1 0 0 0 0];

internalField   nonuniform List<scalar> 
3782
(
-1.8065e-15
2.63696e-15
-2.74684e-15
3.74327e-15
-4.07701e-15
5.06407e-15
-6.15318e-15
6.80988e-15
-9.37067e-15
9.17208e-15
-1.38763e-14
1.20162e-14
-1.95433e-14
1.49905e-14
-2.55323e-14
1.76632e-14
-2.95086e-14
1.89348e-14
-3.02063e-14
1.7911e-14
-2.65396e-14
1.51742e-14
-1.83891e-14
9.54378e-15
-1.26522e-14
4.66035e-15
-9.08827e-15
1.97231e-15
-7.0521e-15
6.1006e-16
-5.98982e-15
-1.37062e-16
-5.38307e-15
-6.72706e-16
-4.85708e-15
-1.15757e-15
-4.17082e-15
-1.57772e-15
-3.16967e-15
-1.81906e-15
-1.95377e-15
-1.70485e-15
-9.03945e-16
-1.23882e-15
-2.9915e-16
-6.65394e-16
-7.08165e-17
-2.55739e-16
-1.17752e-17
-6.50923e-17
-1.88827e-18
-1.12685e-17
-2.28199e-19
-1.91592e-18
-2.32793e-20
-2.27796e-19
-2.02354e-21
-2.29856e-20
-1.47978e-22
-2.0108e-21
-8.77191e-24
-1.52428e-22
-4.17239e-25
-9.3723e-24
-1.58215e-26
-4.59701e-25
-4.71193e-28
-1.79373e-26
-1.07871e-29
-5.47703e-28
-1.84944e-31
-1.27653e-29
-2.28791e-33
-2.21012e-31
-1.93989e-35
-2.7413e-33
-1.1247e-37
-2.32616e-35
-1.00356e-39
-1.50688e-37
-8.29996e-43
-2.15314e-39
-2.09816e-50
-1.68345e-42
-2.24245e-50
5.57294e-15
-3.47309e-15
1.24386e-14
-7.36931e-15
2.82492e-14
-1.6755e-14
-3.00332e-14
5.02345e-14
8.49952e-15
-5.66754e-15
2.1447e-14
-1.37652e-14
4.6098e-14
-3.07942e-14
-3.87622e-14
5.95513e-14
1.26734e-14
-9.07236e-15
3.44978e-14
-2.42915e-14
5.69593e-14
-4.31627e-14
-4.24351e-14
5.93054e-14
1.79373e-14
-1.35486e-14
4.74824e-14
-3.76674e-14
5.75241e-14
-5.0112e-14
-4.25276e-14
5.56886e-14
2.28245e-14
-1.84555e-14
5.42753e-14
-5.22124e-14
5.68e-14
-5.46652e-14
-4.06475e-14
4.98902e-14
2.64435e-14
-2.41415e-14
5.48821e-14
-6.8942e-14
5.49928e-14
-6.0078e-14
-4.18983e-14
5.56944e-14
2.98953e-14
-3.22153e-14
6.05698e-14
-8.46869e-14
5.39895e-14
-7.8166e-14
-4.41809e-14
5.57178e-14
3.42776e-14
-4.25754e-14
6.58848e-14
-9.32026e-14
6.53828e-14
-1.09685e-13
-4.97854e-14
6.36989e-14
3.72413e-14
-5.31441e-14
6.73778e-14
-1.01463e-13
7.04947e-14
-1.21607e-13
-5.21813e-14
6.00503e-14
3.70966e-14
-6.34891e-14
5.0164e-14
-9.7714e-14
6.53838e-14
-1.18486e-13
-5.38246e-14
5.43488e-14
3.26658e-14
-6.5359e-14
4.63581e-14
-9.82019e-14
6.264e-14
-1.08744e-13
-5.46461e-14
5.20687e-14
2.62404e-14
-5.63651e-14
3.40303e-14
-9.9538e-14
4.6155e-14
-9.8329e-14
-5.53848e-14
4.40228e-14
1.52592e-14
-3.40126e-14
2.44646e-14
-9.15405e-14
2.51506e-14
-9.68294e-14
-5.92169e-14
2.59354e-14
6.07171e-15
-2.08833e-14
1.53381e-14
-5.55984e-14
1.74123e-14
-8.50736e-14
-6.201e-14
1.97005e-14
1.74583e-15
-1.41367e-14
4.92939e-15
-2.85046e-14
7.62133e-15
-4.99271e-14
-5.49548e-14
1.04656e-14
-1.14669e-16
-1.1119e-14
2.09529e-16
-1.86982e-14
1.2067e-15
-2.81217e-14
-3.55778e-14
2.50447e-15
-1.13514e-15
-1.00829e-14
-1.55304e-15
-1.5666e-14
-1.76856e-15
-2.08268e-14
-2.52363e-14
-1.18933e-15
-2.063e-15
-9.66461e-15
-2.86602e-15
-1.52144e-14
-3.35236e-15
-1.95437e-14
-2.17148e-14
-3.6057e-15
-3.03902e-15
-9.16417e-15
-4.41999e-15
-1.51213e-14
-5.27053e-15
-1.99759e-14
-2.27451e-14
-5.30177e-15
-3.88876e-15
-8.00186e-15
-5.9074e-15
-1.45315e-14
-8.06299e-15
-2.12114e-14
-3.4166e-14
-9.99062e-15
-4.14612e-15
-6.01702e-15
-6.80755e-15
-1.28207e-14
-1.12756e-14
-2.0879e-14
-3.89634e-14
-2.93033e-14
-3.8074e-15
-3.71735e-15
-7.35564e-15
-1.02328e-14
-1.28274e-14
-1.95358e-14
-3.63395e-14
-4.00125e-14
-2.87642e-15
-1.7373e-15
-7.41679e-15
-6.47444e-15
-1.42645e-14
-1.39439e-14
-2.07852e-14
-2.80092e-14
-1.64752e-15
-4.92851e-16
-5.47615e-15
-2.24992e-15
-9.72904e-15
-6.13971e-15
-1.18133e-14
-1.41592e-14
-4.72486e-16
-1.00988e-16
-2.00001e-15
-6.57533e-16
-5.02573e-15
-2.50846e-15
-5.79965e-15
-1.05498e-14
-1.11069e-16
-1.69952e-17
-7.35668e-16
-1.21314e-16
-2.62656e-15
-5.66149e-16
-1.7775e-15
-5.55345e-15
-1.8911e-17
-2.26122e-18
-1.37888e-16
-2.15437e-17
-6.48851e-16
-1.37723e-16
-5.47977e-16
-2.05e-15
-2.69638e-18
-2.26311e-19
-2.85988e-17
-2.46887e-18
-1.87964e-16
-2.06168e-17
-1.10924e-16
-7.21891e-16
-2.66058e-19
-1.84761e-20
-3.38935e-18
-2.02582e-19
-3.03301e-17
-1.99827e-18
-1.42476e-17
-1.60482e-16
-2.0994e-20
-1.32089e-21
-2.7686e-19
-1.3934e-20
-3.12915e-18
-1.4427e-19
-1.23992e-18
-2.2674e-17
-1.4953e-21
-7.94488e-23
-1.85885e-20
-8.32597e-22
-2.30283e-19
-8.81056e-21
-8.48933e-20
-2.11689e-18
-9.14174e-23
-3.88524e-24
-1.10119e-21
-4.11716e-23
-1.41437e-20
-4.48588e-22
-4.82479e-21
-1.51889e-19
-4.53366e-24
-1.53347e-25
-5.38814e-23
-1.65109e-24
-7.18177e-22
-1.83225e-23
-2.18639e-22
-8.97159e-21
-1.8147e-25
-4.83508e-27
-2.11819e-24
-5.35801e-26
-2.8502e-23
-6.00469e-25
-7.78801e-24
-4.12484e-22
-5.81471e-27
-1.19407e-28
-6.72587e-26
-1.39042e-27
-8.86193e-25
-1.58279e-26
-2.19791e-25
-1.43506e-23
-1.45691e-28
-2.25643e-30
-1.70962e-27
-2.82271e-29
-2.18633e-26
-3.29611e-28
-4.88594e-27
-3.79322e-25
-2.78035e-30
-3.17086e-32
-3.38772e-29
-4.3643e-31
-4.21315e-28
-5.21963e-30
-8.20151e-29
-7.55401e-27
-3.94207e-32
-3.22881e-34
-5.08356e-31
-5.07255e-33
-6.04044e-30
-6.01483e-32
-9.5861e-31
-1.05601e-28
-4.14107e-34
-3.12039e-36
-5.86295e-33
-6.97224e-35
-6.08191e-32
-4.37245e-34
-6.78415e-33
-8.18389e-31
-7.33995e-36
-4.55793e-38
-1.41559e-34
-5.8739e-37
-3.1763e-34
-2.22474e-36
-6.9116e-35
-7.09552e-33
-8.85123e-38
-6.83114e-41
-6.08316e-37
-1.3063e-39
-1.70961e-36
-6.37831e-39
-4.73327e-37
-7.06442e-35
-1.20812e-40
-8.3623e-48
-1.04884e-39
-3.00433e-45
-4.00642e-39
-9.29409e-43
-4.11717e-40
-4.76992e-37
-8.38473e-48
-3.01272e-45
-9.32422e-43
-4.12389e-40
6.13603e-14
-3.69566e-14
6.26441e-14
-3.41355e-14
6.03165e-14
-2.93678e-14
5.644e-14
-2.17975e-14
5.69303e-14
-2.11553e-14
7.6695e-14
-2.19198e-14
1.28501e-13
-3.47208e-14
1.50215e-13
-3.01233e-14
1.53413e-13
5.48937e-17
1.85578e-13
-5.02986e-15
2.44393e-13
1.17665e-15
5.45033e-13
-1.82134e-13
7.25882e-12
1.61005e-13
8.45934e-12
-6.22595e-13
4.53079e-12
-4.15616e-13
3.72814e-13
-1.62004e-13
5.74127e-14
-2.02533e-14
4.82987e-14
-2.27642e-15
4.90293e-14
-1.16724e-14
7.50449e-13
-2.29159e-14
2.24191e-12
2.33956e-14
2.22375e-12
4.4531e-14
2.15209e-12
2.20783e-14
5.77325e-13
-8.18304e-15
2.67847e-13
-3.06935e-14
9.32032e-13
-8.77358e-13
2.98006e-10
-2.99637e-10
1.47699e-06
-1.49166e-06
7.86825e-05
-6.95315e-06
8.84047e-05
-1.15868e-05
8.75268e-05
-9.70084e-06
8.66988e-05
-7.22071e-06
8.59841e-05
-4.24229e-06
6.60167e-05
-6.87527e-07
2.04233e-06
7.60045e-07
-1.24674e-07
1.59875e-07
-2.61004e-08
6.32469e-08
-3.4896e-09
1.96074e-08
-2.57563e-10
9.08342e-09
4.1224e-10
6.11742e-14
-4.01391e-14
5.98603e-14
-3.55343e-14
5.83593e-14
-3.17955e-14
6.03462e-14
-2.60658e-14
1.39156e-13
-1.63995e-14
2.04324e-13
-2.19898e-13
1.56483e-13
-3.85401e-14
1.49189e-13
-5.06415e-14
2.50285e-12
-4.21663e-13
1.13178e-11
-6.59188e-12
1.44266e-11
-7.96237e-12
1.74341e-11
-5.55368e-12
2.42451e-11
-1.26554e-12
2.45113e-11
-3.27281e-13
2.47266e-11
-1.19756e-13
5.53127e-12
-7.35508e-14
-3.07598e-13
-4.60717e-15
4.42074e-14
-3.83939e-15
5.04942e-13
-7.32297e-15
5.83315e-13
-9.24917e-15
6.80929e-13
1.64624e-14
1.15679e-12
-4.0062e-13
1.63632e-12
-5.60072e-13
1.23556e-12
-1.18944e-12
1.45239e-12
-5.19937e-13
1.54276e-10
-1.53928e-10
3.45924e-08
-3.4734e-08
3.3754e-05
-1.87004e-06
8.63219e-05
-1.11427e-05
8.56437e-05
-1.08689e-05
8.48795e-05
-8.94321e-06
8.41555e-05
-6.5113e-06
8.35122e-05
-3.59353e-06
3.94844e-05
-2.23519e-07
-5.32452e-08
1.37388e-07
-8.23069e-08
2.52532e-07
-8.05122e-09
8.04837e-08
-2.66106e-09
1.20205e-08
-2.6857e-10
8.12472e-09
1.61445e-10
5.72386e-14
-3.99477e-14
5.70659e-14
-3.8709e-14
9.8576e-14
-7.69737e-14
5.54481e-13
-1.99249e-13
1.06666e-12
-9.84861e-13
2.80279e-13
-1.45309e-13
2.28626e-13
-3.85093e-14
1.36067e-12
-1.22059e-12
5.13093e-11
1.15907e-12
8.23565e-11
2.08339e-12
7.77301e-11
1.01968e-12
7.77748e-11
-1.46942e-12
1.06768e-11
-1.76737e-12
-1.92311e-12
-3.14576e-13
2.4992e-12
-6.25025e-14
1.33756e-13
-1.60367e-14
3.41185e-14
-3.56548e-15
1.62151e-13
-5.32991e-15
2.90263e-13
-9.38056e-15
7.69413e-13
-3.60184e-13
7.41117e-11
-7.09424e-11
1.81101e-10
-2.17916e-10
1.16194e-10
-4.52884e-11
2.8784e-11
3.1359e-12
1.52326e-10
-1.24387e-10
1.92885e-08
-1.92864e-08
3.09952e-06
-3.11431e-06
7.13628e-05
-8.8903e-06
8.31627e-05
-1.17363e-05
8.26024e-05
-1.03012e-05
8.20082e-05
-8.35658e-06
8.14482e-05
-5.96498e-06
6.59643e-05
-3.06969e-06
5.8469e-06
9.41187e-08
-2.36117e-07
9.00204e-08
-2.1987e-08
5.3239e-08
-7.8651e-09
1.00196e-07
-1.57289e-09
5.39304e-09
-1.22485e-10
2.68284e-09
3.89597e-11
5.52064e-14
-4.10269e-14
1.40263e-13
-1.27005e-13
2.79072e-12
-2.00678e-12
4.21639e-12
-5.18418e-12
7.92565e-13
-1.52904e-12
2.99323e-13
-1.28066e-13
3.9988e-13
-1.99084e-13
1.03853e-11
1.72158e-11
2.4687e-11
1.14966e-10
4.79756e-11
6.1065e-11
4.58903e-11
-2.7825e-11
1.26066e-11
-5.32678e-13
1.57503e-11
-1.54301e-13
9.40024e-12
-3.85552e-14
3.44518e-12
-1.03116e-15
3.54677e-15
-2.50513e-15
1.13408e-13
-1.9653e-15
2.38622e-13
-7.75507e-15
4.3286e-13
-7.42219e-14
1.52691e-10
-1.52478e-10
1.61867e-09
-2.32349e-10
1.85124e-09
-3.3096e-12
2.92039e-10
-2.39563e-11
3.68922e-10
-1.20833e-10
1.96245e-08
-1.93872e-08
2.41211e-06
-2.41112e-06
5.06801e-05
-8.1126e-06
8.00294e-05
-1.23441e-05
7.97952e-05
-1.1481e-05
7.94199e-05
-9.92467e-06
7.90366e-05
-7.97289e-06
7.81052e-05
-5.04185e-06
2.99277e-05
-1.68738e-06
-8.31221e-08
1.67181e-08
-6.01794e-08
9.37867e-08
-2.73057e-08
7.33763e-08
-4.07012e-09
4.23821e-08
-5.50347e-10
1.55017e-09
-4.09064e-11
5.06801e-10
6.43896e-11
5.02229e-14
-4.19564e-14
2.53991e-12
-2.61827e-12
9.05028e-12
-8.48007e-12
8.33437e-12
-4.52877e-12
7.64405e-13
-8.0776e-13
6.31593e-13
-4.44451e-13
1.42642e-11
-1.39034e-11
3.50843e-10
4.20483e-11
1.3004e-09
-1.57767e-09
7.30825e-10
-6.71222e-10
2.92307e-12
-3.3393e-11
1.50845e-12
-4.24227e-13
4.0889e-13
-6.75669e-15
4.7736e-13
3.59192e-16
2.7649e-13
1.23339e-16
1.57504e-13
1.33212e-14
1.55139e-13
8.41627e-14
2.66367e-13
-1.84886e-14
2.96452e-11
-2.93264e-11
1.4114e-09
-9.70696e-12
1.73052e-09
5.93076e-11
8.45184e-10
1.74567e-10
1.44865e-09
-2.11022e-09
4.69688e-08
-4.566e-08
2.89304e-06
-2.86551e-06
4.39272e-05
-9.77365e-06
7.6181e-05
-1.31792e-05
7.64997e-05
-1.26456e-05
7.63738e-05
-1.13566e-05
7.61904e-05
-9.74391e-06
7.55397e-05
-7.32094e-06
4.60811e-05
-4.02914e-06
2.65197e-08
-2.23307e-07
-5.23868e-08
5.70501e-08
-1.70203e-08
5.37211e-08
-1.71548e-08
6.85391e-08
-1.27485e-09
7.71164e-09
-1.48969e-10
1.23603e-09
-3.26007e-11
3.85091e-10
8.97745e-11
5.58779e-14
-4.27531e-14
6.63472e-12
-4.27759e-12
1.07196e-11
-8.86316e-12
2.104e-12
-3.27124e-12
1.54772e-12
-5.94151e-13
1.59231e-11
-1.53682e-11
1.14172e-09
-1.1397e-09
8.50538e-09
-2.99228e-09
8.10642e-09
-1.96044e-09
1.4399e-09
-9.95651e-10
1.83437e-12
-1.38393e-11
7.69316e-13
-1.32834e-13
4.71078e-13
-5.00815e-16
1.79929e-13
-4.735e-16
2.95827e-13
-7.6273e-13
2.47694e-12
-1.02452e-11
4.83174e-12
-2.28451e-11
7.99106e-12
-3.0767e-12
3.81862e-10
1.86174e-11
5.39848e-10
1.07117e-09
1.22273e-09
4.70793e-10
7.98952e-09
-5.70138e-09
2.21608e-07
-2.17266e-07
8.32201e-06
-3.67015e-06
5.07506e-05
-1.27801e-05
7.21635e-05
-1.44128e-05
7.28783e-05
-1.38876e-05
7.30039e-05
-1.27754e-05
7.30545e-05
-1.1412e-05
7.25266e-05
-9.21758e-06
5.16639e-05
-5.80602e-06
2.18812e-06
-7.0503e-07
-2.20887e-08
5.82841e-09
-1.39145e-09
3.20606e-08
-2.96642e-08
8.52079e-08
-8.09059e-09
2.53315e-08
-1.39298e-09
2.62728e-09
-1.78694e-10
2.83845e-09
-1.81822e-11
2.06429e-10
3.03377e-11
5.58132e-14
-4.34643e-14
9.50048e-12
-5.20051e-12
9.90802e-12
-5.53379e-12
2.39633e-12
-1.02113e-12
2.24659e-12
-5.6129e-13
1.76976e-09
-1.78331e-09
8.92588e-09
-3.26059e-09
8.38147e-09
-3.23332e-09
6.46005e-09
-7.90282e-10
4.9039e-10
-1.55016e-10
2.32897e-12
-6.89299e-13
1.20471e-12
-1.10381e-14
3.37097e-13
-2.59277e-16
3.56255e-12
-3.52062e-12
2.54463e-10
-1.27506e-11
2.78321e-10
-8.7336e-12
3.01281e-10
-2.05048e-11
6.08534e-11
5.81646e-11
8.94154e-10
-9.78279e-10
1.60603e-08
-1.36088e-08
7.30843e-08
-5.56539e-08
2.34468e-06
-1.86236e-06
2.44968e-05
-1.2687e-05
6.38326e-05
-1.5669e-05
6.89395e-05
-1.59607e-05
6.91539e-05
-1.52356e-05
6.94833e-05
-1.42568e-05
6.97718e-05
-1.30394e-05
6.89132e-05
-1.05576e-05
4.73312e-05
-5.28488e-06
2.35121e-06
-9.64243e-07
-1.82424e-08
-9.97627e-09
2.38797e-09
2.2258e-08
-1.61874e-08
8.55376e-08
-1.54053e-08
5.69704e-08
-1.78189e-09
4.39904e-09
-1.05592e-09
2.19991e-09
-1.40784e-10
1.98086e-09
-6.69043e-12
5.34433e-11
4.41847e-12
6.44412e-14
-4.48314e-14
5.09437e-12
-6.77291e-12
1.78413e-12
-4.78138e-12
1.42989e-12
-7.85104e-13
1.29449e-12
-5.44098e-13
1.30683e-08
-4.80342e-09
5.40467e-09
-4.04862e-09
2.45091e-09
-9.22655e-10
1.57872e-10
-4.33374e-11
3.30603e-12
-1.14017e-12
3.52498e-12
-2.08305e-13
1.14761e-12
-1.92145e-16
2.21743e-13
-5.27955e-15
2.89916e-10
-3.24769e-12
3.64651e-10
1.3983e-11
4.13179e-10
9.55607e-13
5.16598e-10
-2.44648e-11
4.30571e-09
-3.89605e-09
1.50826e-07
-1.4763e-07
3.54374e-06
-3.06081e-06
2.0072e-05
-1.35676e-05
5.38522e-05
-1.66576e-05
6.32798e-05
-1.73685e-05
6.48478e-05
-1.72333e-05
6.55638e-05
-1.66768e-05
6.60498e-05
-1.58196e-05
6.64956e-05
-1.47426e-05
6.2442e-05
-1.10954e-05
3.0401e-05
-2.78328e-06
9.31676e-07
-4.36228e-07
-1.74112e-08
-1.72142e-09
3.47547e-08
-4.17977e-09
7.60797e-09
6.67512e-08
-1.92595e-08
8.96959e-08
-4.05171e-09
8.30234e-09
-1.16273e-09
8.97944e-10
-5.27685e-10
1.91492e-09
-5.22762e-11
3.369e-10
-1.8288e-12
2.27574e-11
2.17972e-12
8.22641e-14
-6.77587e-14
7.78346e-12
-1.51212e-11
1.30894e-12
-7.59162e-12
1.34437e-12
-9.39838e-13
1.21471e-12
-5.32564e-13
9.88871e-09
-7.17615e-09
2.68089e-09
-5.62571e-09
4.42039e-11
-1.27654e-10
3.28937e-12
-3.12004e-12
2.36989e-12
-6.11987e-13
2.70494e-12
-8.70685e-13
1.01489e-12
-4.27301e-13
2.11054e-12
-1.29144e-13
5.25779e-11
2.27204e-11
6.09091e-11
7.07536e-11
1.24891e-10
-3.80198e-11
3.27828e-09
-3.16595e-09
1.73442e-06
-1.73482e-06
2.22443e-05
-1.12474e-05
5.42663e-05
-1.60941e-05
5.98857e-05
-1.77136e-05
6.10265e-05
-1.81915e-05
6.15928e-05
-1.83527e-05
6.22388e-05
-1.7837e-05
6.27149e-05
-1.71492e-05
6.14216e-05
-1.48688e-05
4.25678e-05
-4.35714e-06
6.16381e-06
-1.0541e-06
4.39714e-07
-4.29838e-08
2.02706e-08
-3.48335e-09
3.08568e-08
1.00391e-10
1.7203e-08
2.5192e-09
-1.58281e-08
5.50035e-08
-8.61564e-09
1.07212e-08
-8.97998e-10
4.01544e-10
-8.57359e-10
2.64601e-10
-2.63771e-10
1.38981e-09
-2.88674e-11
1.59439e-10
-1.09988e-12
2.86549e-11
1.08143e-12
7.32619e-13
-7.46756e-13
1.04477e-11
-1.6584e-11
2.60887e-12
-9.94484e-12
1.44376e-12
-1.19209e-12
1.31395e-12
-5.23178e-13
5.70527e-09
-6.93934e-09
1.22748e-09
-3.8806e-09
-3.58997e-13
-8.77628e-11
-2.70429e-12
-1.93554e-11
2.49594e-11
-2.52749e-12
3.74375e-11
-9.90424e-13
2.59337e-11
-1.11606e-12
8.55289e-12
2.3149e-11
5.60575e-10
-5.21389e-10
2.2894e-09
-1.64546e-09
6.3673e-09
-4.10379e-09
5.39201e-07
-5.35694e-07
3.77414e-05
-9.06485e-06
5.68619e-05
-1.66378e-05
5.83718e-05
-1.77267e-05
5.91241e-05
-1.87618e-05
5.93963e-05
-1.89263e-05
5.96301e-05
-1.8694e-05
5.91324e-05
-1.73096e-05
4.41801e-05
-6.60583e-06
1.09153e-05
-1.7716e-06
1.09495e-06
-1.00091e-07
4.39566e-08
-3.22247e-09
1.37407e-09
-2.33958e-10
1.1372e-08
4.90102e-10
2.04774e-09
-2.82109e-10
-6.24279e-10
-2.84872e-10
-2.02608e-09
2.8976e-11
-5.58954e-10
2.71843e-10
-1.90219e-10
5.2795e-11
-3.57462e-10
3.1322e-12
-1.28752e-10
3.11675e-10
-1.50201e-11
5.2621e-11
-7.97968e-13
2.23061e-11
2.88455e-13
6.28796e-13
-1.14391e-12
9.44201e-12
-1.68689e-11
2.47886e-12
-6.10831e-12
1.4112e-12
-1.17417e-12
1.27475e-12
-5.1848e-13
8.00993e-09
-8.75617e-09
7.70999e-10
-1.50139e-09
-6.1841e-11
-5.01918e-11
-8.89122e-12
-4.96487e-12
1.30517e-11
-2.06753e-12
1.53736e-11
-2.7203e-12
4.52949e-11
-3.08784e-11
1.89627e-09
-1.81807e-09
5.53275e-08
-5.40633e-08
2.49936e-07
-6.57646e-07
8.36164e-07
-5.91711e-07
1.67263e-05
-6.31038e-07
5.74088e-05
-9.75572e-06
5.73736e-05
-1.63236e-05
5.74277e-05
-1.8044e-05
5.77505e-05
-1.94212e-05
5.75988e-05
-1.91853e-05
4.88322e-05
-1.26905e-05
1.77817e-05
-3.43256e-06
1.86618e-06
-2.56927e-07
1.03173e-07
-8.68065e-09
3.34978e-09
-2.34427e-10
1.99987e-10
-3.94294e-11
2.04823e-10
1.84335e-12
2.81129e-10
-3.08298e-12
8.02944e-12
-2.44936e-12
-2.45178e-10
-3.10786e-11
-3.12277e-10
2.19717e-12
-8.57707e-11
2.21868e-11
-3.33122e-11
2.56724e-12
-6.48852e-11
-2.80418e-12
-3.32777e-11
-5.01732e-12
-7.94399e-12
7.90633e-11
-2.08188e-13
6.64042e-12
8.54108e-14
4.86993e-13
-3.24348e-14
8.31024e-12
-1.60856e-11
2.26857e-12
-9.10483e-12
1.29571e-12
-1.25662e-12
1.17324e-12
-5.37545e-13
1.41826e-08
-1.25339e-08
4.48661e-09
-1.73298e-08
1.31549e-11
-3.10062e-10
2.09995e-11
-1.25243e-11
2.27905e-11
-3.25949e-12
2.66926e-11
-6.08643e-12
7.99683e-09
-8.00071e-09
1.06771e-06
-1.06095e-06
1.5397e-05
-7.97159e-06
2.29385e-05
-1.16911e-05
1.75547e-05
-1.10029e-05
2.72462e-05
-5.07927e-06
3.15114e-05
-3.06867e-06
4.0751e-05
-1.16534e-06
4.56489e-05
-5.04622e-06
4.22177e-05
-5.5323e-06
2.90317e-05
-4.69445e-06
3.68276e-06
-5.12683e-07
2.65253e-07
-1.3515e-08
8.70599e-09
-3.10964e-10
1.99918e-10
-8.19933e-11
4.21412e-11
-3.55768e-11
3.4412e-11
2.27719e-12
3.02528e-12
-9.01679e-13
1.06633e-13
2.10771e-13
-1.11792e-12
-3.20204e-13
-3.05909e-11
-1.51744e-12
-2.81803e-11
-4.03225e-13
-8.85921e-12
3.26266e-12
-6.6603e-12
1.04498e-12
-1.38677e-11
1.017e-12
-2.98247e-11
-1.54419e-12
-4.76439e-12
6.55282e-11
-6.83088e-14
1.93549e-12
1.71981e-14
2.9137e-14
-3.28203e-14
1.75096e-11
-1.63747e-11
7.7096e-12
-3.22561e-11
1.84753e-12
-1.94878e-12
1.76864e-12
-6.04729e-13
1.57957e-08
-1.75062e-08
2.64094e-08
-1.8072e-08
-3.27449e-11
-3.29919e-09
2.63692e-11
-7.44954e-11
3.00715e-11
-6.35725e-12
3.62431e-11
-1.18795e-11
8.95538e-07
-9.03502e-07
2.01321e-05
-9.38277e-06
4.00655e-05
-1.4387e-05
4.14642e-05
-1.31229e-05
4.15545e-05
-1.11229e-05
1.04207e-05
-6.53027e-06
1.25589e-06
-4.45054e-07
4.84853e-08
-2.39293e-08
1.1648e-06
-1.88619e-08
1.24046e-06
-5.62054e-10
5.26534e-07
-1.63137e-11
1.38294e-08
-9.48851e-13
3.15452e-10
-7.24337e-13
2.16964e-11
-4.77157e-12
4.85043e-11
-8.74852e-12
2.71837e-11
4.56948e-12
6.42575e-12
2.00995e-11
-1.01501e-13
8.1216e-13
-2.38284e-13
3.12237e-13
-6.47103e-13
3.20981e-13
-3.85497e-12
6.6931e-13
-4.35169e-12
2.29802e-13
-1.69686e-12
8.28194e-13
-1.3923e-12
8.31265e-13
-2.52584e-12
1.1548e-12
-1.15185e-11
2.01438e-12
-1.72992e-12
1.14025e-11
-1.54924e-14
2.17155e-13
1.70576e-15
2.3298e-14
-3.35765e-14
2.91745e-12
-2.93815e-12
1.38298e-11
-3.3455e-11
4.23985e-12
-7.05423e-12
4.29466e-12
-8.49495e-13
1.49177e-08
-7.46092e-09
2.60108e-08
-1.92373e-08
5.52379e-09
-2.01446e-09
3.128e-11
-2.41098e-10
5.55687e-11
-3.10195e-11
6.26544e-11
-1.84202e-11
1.42814e-05
-2.92725e-06
3.79266e-05
-1.5166e-05
3.88526e-05
-1.53925e-05
3.88172e-05
-1.31153e-05
3.85153e-05
-1.08723e-05
6.54107e-06
-5.86796e-06
3.47181e-08
-1.57452e-07
1.90857e-08
-9.51312e-09
5.72234e-10
-3.76938e-10
1.72703e-11
-7.6609e-12
2.07399e-12
-9.94428e-13
1.55425e-12
-4.88165e-13
1.29086e-12
-3.3204e-13
2.32253e-11
-9.10323e-13
1.54063e-11
5.67413e-12
1.52133e-12
3.70098e-11
-7.23728e-13
8.41006e-12
-2.55814e-13
2.82329e-13
-3.63397e-13
3.58811e-13
-6.05433e-13
6.83317e-13
-7.74784e-13
4.77564e-13
-8.81634e-13
4.38899e-13
-5.80964e-13
6.16056e-13
-6.46173e-13
8.41792e-13
-1.21818e-12
1.29702e-12
-1.89775e-12
1.12189e-12
-1.70609e-13
5.07281e-13
-1.40428e-15
4.76654e-14
3.01482e-16
1.44198e-14
-3.47132e-14
1.40502e-12
-2.81031e-14
1.05245e-11
-3.27709e-11
1.343e-11
-1.74544e-11
1.76976e-11
-5.40544e-12
1.44958e-08
-2.81623e-12
3.72348e-08
-1.05516e-08
1.87091e-08
-2.64003e-08
1.3326e-10
-1.92473e-09
1.85576e-10
-8.76906e-11
1.94979e-10
-2.82012e-11
2.41684e-05
-4.85455e-06
3.52741e-05
-1.74423e-05
3.5408e-05
-1.56085e-05
3.52297e-05
-1.29803e-05
3.47587e-05
-1.04869e-05
4.56233e-06
-5.2658e-06
4.84129e-09
-9.4812e-08
2.82825e-10
-5.7807e-09
7.71514e-12
-1.17458e-10
1.6106e-12
-2.07489e-12
1.06858e-12
-5.11515e-13
7.9706e-13
-2.6588e-13
4.70302e-13
-5.93701e-14
2.93246e-12
4.20487e-12
-1.48161e-11
4.38916e-12
-8.53029e-12
6.92736e-12
-2.28003e-13
4.64263e-14
-3.63052e-13
3.56124e-13
-5.12341e-13
4.39443e-13
-5.16307e-13
6.52247e-13
-3.5718e-13
4.04087e-13
-3.838e-13
4.85136e-13
-3.899e-13
6.21806e-13
-4.93689e-13
8.87694e-13
-6.15338e-13
1.13003e-12
-4.07712e-13
7.91586e-13
-5.85318e-14
2.76376e-13
-2.07129e-16
6.50461e-14
9.43533e-17
5.61119e-15
-3.50329e-14
2.83176e-14
-2.94147e-14
1.46173e-11
-9.15227e-12
5.71499e-12
-1.05391e-11
4.44096e-12
-4.10498e-12
3.30773e-12
-2.98531e-12
2.52441e-08
-1.09951e-08
5.0135e-08
-4.2293e-08
-1.9663e-10
-2.06383e-08
5.86816e-10
-8.92448e-10
6.86133e-10
-1.31917e-10
2.4897e-05
-6.714e-06
3.15095e-05
-1.83715e-05
3.13913e-05
-1.55526e-05
3.1106e-05
-1.27571e-05
3.06623e-05
-1.0087e-05
3.23567e-06
-4.23344e-06
4.82266e-09
-2.09879e-08
1.07705e-10
-1.58168e-09
2.31188e-12
-1.99399e-11
7.79231e-13
-9.32279e-13
3.57261e-13
-2.21147e-13
-4.02236e-14
7.21558e-14
-8.03027e-12
3.06239e-12
-1.57427e-11
1.37427e-11
-7.31851e-12
3.93963e-12
-9.84682e-13
3.51941e-13
-7.20204e-13
5.25257e-13
-4.3883e-13
8.61004e-13
-4.71775e-13
3.65294e-13
-3.67744e-13
3.97387e-13
-3.10544e-13
4.38885e-13
-3.27126e-13
4.98251e-13
-3.73162e-13
6.53428e-13
-4.1886e-13
8.64175e-13
-3.62892e-13
9.62673e-13
-1.65061e-13
7.38799e-13
-3.14698e-14
3.38376e-13
-1.53311e-16
1.10592e-13
2.94936e-16
4.17706e-18
-3.08835e-14
1.49659e-14
-2.65512e-14
2.66353e-12
-1.02835e-13
4.7923e-12
-1.70608e-11
3.70522e-12
4.11238e-12
3.42204e-12
-4.02274e-12
2.21117e-08
-1.12566e-08
5.1802e-08
-6.06965e-08
2.45919e-08
-4.82723e-08
7.07359e-09
-1.23442e-08
7.28395e-09
-3.63792e-10
2.27573e-05
-5.99329e-06
2.70808e-05
-1.9576e-05
2.70593e-05
-1.55939e-05
2.68014e-05
-1.25538e-05
2.45482e-05
-7.8969e-06
1.8638e-08
-1.47475e-06
1.53828e-09
-6.62406e-09
1.4986e-11
-1.09319e-10
-2.37186e-12
-4.49118e-13
-3.15571e-14
-4.67862e-14
-8.21763e-13
1.73469e-13
-4.90764e-12
1.35659e-12
-1.21236e-11
4.70731e-12
-5.34822e-12
1.58991e-12
-6.89426e-13
2.20312e-13
-9.56141e-13
2.67684e-13
-1.00055e-12
8.0649e-13
-4.8908e-13
9.09409e-13
-3.56983e-13
3.11928e-13
-3.37128e-13
3.33798e-13
-3.19115e-13
4.59669e-13
-3.38209e-13
5.1112e-13
-3.75067e-13
6.53975e-13
-3.72987e-13
8.00352e-13
-2.91792e-13
8.49889e-13
-1.55328e-13
7.15376e-13
-3.97059e-14
4.76343e-13
-4.29658e-16
1.4132e-13
3.35854e-15
-2.63652e-15
-2.42663e-14
2.05357e-16
-2.40574e-14
8.51317e-14
-1.8434e-13
4.05129e-12
-5.93135e-11
6.80298e-12
-4.58039e-11
3.62738e-11
-3.48202e-11
3.26642e-08
-2.79934e-11
4.74271e-08
-6.19592e-08
5.30707e-08
-4.80601e-08
1.9413e-08
-1.582e-08
1.92305e-08
-4.42838e-10
1.33454e-05
-1.32235e-06
2.26135e-05
-1.6667e-05
2.19595e-05
-1.49777e-05
2.00929e-05
-1.07304e-05
6.49064e-06
-3.48842e-06
6.72057e-09
-1.03435e-07
1.09751e-10
-7.35992e-12
6.77383e-13
2.04817e-12
-5.90382e-14
1.8607e-13
-4.98982e-13
1.05649e-13
-3.65147e-12
8.27421e-13
-5.56049e-12
2.93181e-12
-1.81375e-12
6.85471e-13
-4.70439e-13
2.53169e-13
-4.64875e-13
2.18486e-13
-1.01256e-12
4.23475e-13
-9.29723e-13
9.2288e-13
-3.60995e-13
5.74236e-13
-3.39177e-13
3.06599e-13
-3.41973e-13
3.54695e-13
-3.30759e-13
4.46614e-13
-3.43385e-13
5.08134e-13
-3.53875e-13
6.18998e-13
-3.33191e-13
7.25214e-13
-2.53751e-13
7.49964e-13
-1.5026e-13
6.78272e-13
-4.47705e-14
4.89317e-13
-1.20795e-15
1.74303e-13
1.18137e-14
-4.45269e-15
-2.54235e-14
-1.68507e-15
-2.75084e-14
5.77166e-13
-7.63101e-13
-6.35187e-12
-8.49373e-11
3.8858e-12
-1.82452e-10
1.28908e-11
-1.69538e-10
1.11099e-11
-1.36543e-10
3.15289e-08
-5.2963e-11
2.11725e-08
-2.52406e-11
1.41501e-08
-1.41914e-08
1.45594e-08
-1.50243e-09
3.38561e-06
-8.28911e-08
1.5041e-05
-3.15765e-06
1.38134e-05
-4.8812e-06
5.20788e-06
-1.32764e-07
1.03428e-07
-1.0317e-09
1.64869e-11
-3.54615e-12
-3.04951e-12
-1.57116e-13
-1.58462e-13
1.87505e-13
-2.13668e-13
1.28814e-13
-1.02286e-12
3.30559e-13
-2.66983e-12
7.5758e-13
-9.14856e-13
2.76923e-13
-4.0697e-13
1.83495e-13
-4.09479e-13
2.52106e-13
-5.02265e-13
3.20323e-13
-6.72088e-13
3.63841e-13
-6.85702e-13
3.24282e-13
-3.81411e-13
3.28461e-13
-3.3232e-13
3.36894e-13
-3.31644e-13
3.61076e-13
-3.28039e-13
4.10796e-13
-3.31352e-13
4.83776e-13
-3.19147e-13
5.66417e-13
-2.86823e-13
6.38284e-13
-2.19716e-13
6.60353e-13
-1.34421e-13
6.28838e-13
-4.45764e-14
4.6249e-13
-1.81004e-15
1.86436e-13
1.72628e-14
-7.99479e-15
-5.62853e-14
1.88961e-14
-5.37952e-14
-5.45494e-13
-1.9594e-13
-4.84644e-11
-3.16212e-11
-3.70606e-11
-8.07931e-11
-1.31967e-11
-8.03394e-11
5.38401e-12
-6.61668e-11
2.34013e-12
-4.0703e-11
3.81532e-12
-1.79362e-11
4.50728e-09
-3.94059e-11
1.382e-09
-2.05996e-09
7.95707e-09
-3.75444e-10
4.52847e-08
-2.15566e-11
1.33799e-07
-1.13399e-13
1.03471e-09
-9.41874e-14
3.0116e-12
-1.03577e-14
-3.98745e-13
1.8839e-14
-1.35211e-13
-2.12422e-13
-2.67541e-13
1.57676e-13
-5.59469e-13
3.03182e-13
-1.06858e-12
5.06754e-13
-4.71557e-13
2.46164e-13
-3.63652e-13
1.69442e-13
-4.23794e-13
2.43006e-13
-4.87189e-13
3.16143e-13
-4.93155e-13
3.69418e-13
-4.18451e-13
3.1249e-13
-4.06306e-13
2.62309e-13
-3.90529e-13
3.17692e-13
-3.24972e-13
3.65285e-13
-3.08046e-13
3.37946e-13
-3.04806e-13
3.73066e-13
-3.0026e-13
4.40492e-13
-2.81369e-13
5.05611e-13
-2.41671e-13
5.54085e-13
-1.85071e-13
5.78472e-13
-1.12921e-13
5.57648e-13
-3.74415e-14
4.24421e-13
-1.48466e-15
1.72586e-13
1.63972e-14
-3.33343e-14
-1.12811e-13
5.69832e-16
-1.65722e-13
-6.32141e-14
-1.64361e-13
-9.04759e-12
-1.75594e-13
-3.27937e-11
-5.27705e-13
-1.60944e-11
-1.43394e-11
-1.35885e-11
-5.08121e-11
-4.27829e-12
-3.20846e-11
-6.83306e-13
-1.29508e-11
6.40308e-13
-3.18684e-11
2.70276e-10
-7.95869e-10
1.20869e-12
-1.06177e-10
6.24562e-14
-2.03986e-11
-2.26188e-15
-4.95086e-14
-4.04e-14
-6.09063e-14
-9.26757e-14
3.36501e-14
-1.67539e-13
9.07052e-14
-2.35304e-13
1.16858e-13
-5.44685e-13
2.72198e-13
-6.623e-13
4.20575e-13
-3.88276e-13
2.33642e-13
-3.49634e-13
1.96072e-13
-4.13008e-13
2.30861e-13
-5.06697e-13
3.09151e-13
-5.31326e-13
3.6549e-13
-4.84507e-13
3.82145e-13
-3.64072e-13
2.68227e-13
-3.65572e-13
2.74944e-13
-3.70456e-13
3.16151e-13
-2.96972e-13
3.37725e-13
-2.75834e-13
3.05711e-13
-2.69729e-13
3.3589e-13
-2.59884e-13
3.85958e-13
-2.38205e-13
4.36995e-13
-2.00945e-13
4.77427e-13
-1.50942e-13
4.98039e-13
-8.92286e-14
4.70883e-13
-2.83578e-14
3.51191e-13
-9.78299e-16
1.46165e-13
1.32296e-14
-9.26255e-14
-8.7404e-14
-8.83639e-14
-9.81175e-14
-6.57892e-14
-1.21392e-13
-7.11846e-14
-1.83337e-13
-3.86716e-13
-2.19299e-13
-1.4509e-11
-2.10005e-13
-1.42454e-11
-8.89385e-13
-1.3033e-11
-1.44538e-11
-5.82739e-12
-1.83273e-11
-1.21973e-11
-1.98904e-11
-6.78029e-11
-5.87257e-12
-1.75919e-11
-2.58261e-12
-8.34081e-13
-1.0461e-12
-8.51392e-13
-2.03511e-14
-1.7628e-13
1.15859e-13
-2.31265e-13
7.89368e-14
-2.8214e-13
1.2271e-13
-4.00729e-13
2.05861e-13
-6.43184e-13
3.14772e-13
-5.26477e-13
3.19739e-13
-3.58453e-13
1.85695e-13
-3.98106e-13
2.23177e-13
-4.76313e-13
2.73145e-13
-5.457e-13
3.34389e-13
-5.44241e-13
3.62989e-13
-3.88098e-13
2.72944e-13
-3.3708e-13
2.42471e-13
-3.31213e-13
2.63636e-13
-3.16378e-13
2.81514e-13
-2.59595e-13
2.76695e-13
-2.38581e-13
2.75048e-13
-2.28631e-13
2.96727e-13
-2.15428e-13
3.2872e-13
-1.94746e-13
3.65256e-13
-1.62542e-13
3.98366e-13
-1.18232e-13
4.10345e-13
-6.50853e-14
3.72781e-13
-1.90659e-14
2.59497e-13
-5.18995e-16
1.03068e-13
7.61201e-15
-5.99035e-14
-3.07245e-14
-6.98611e-14
-4.54857e-14
-7.7185e-14
-9.16158e-14
-9.74632e-14
-1.77571e-13
-1.01893e-13
-2.6851e-13
-1.1027e-13
-2.56606e-13
-8.19448e-13
-2.29232e-13
-7.93064e-12
-5.8609e-14
-1.02907e-11
-7.34794e-14
-6.27669e-13
-5.80005e-14
-6.4781e-12
-2.69258e-14
-4.83483e-13
-1.16958e-13
-4.00307e-13
-4.93699e-14
-3.40205e-13
1.58694e-14
-2.85979e-13
3.31672e-14
-3.38237e-13
1.00626e-13
-3.86766e-13
1.64102e-13
-5.243e-13
2.33428e-13
-5.90421e-13
2.53697e-13
-4.25334e-13
2.25173e-13
-4.024e-13
2.15792e-13
-4.3131e-13
2.39271e-13
-4.93497e-13
2.87669e-13
-4.97062e-13
2.97454e-13
-3.82787e-13
2.38377e-13
-3.11328e-13
2.07046e-13
-2.9556e-13
2.18857e-13
-2.83436e-13
2.36299e-13
-2.55032e-13
2.39253e-13
-2.23762e-13
2.37217e-13
-2.03187e-13
2.45097e-13
-1.88187e-13
2.56015e-13
-1.72417e-13
2.72643e-13
-1.52136e-13
2.92651e-13
-1.24166e-13
3.1065e-13
-8.65733e-14
3.10494e-13
-4.39849e-14
2.6977e-13
-1.15251e-14
1.7619e-13
-2.22403e-16
6.37372e-14
3.29723e-15
-2.30019e-14
-2.35557e-14
-3.91532e-14
-4.16085e-14
-1.03781e-13
-6.80804e-14
-2.81971e-13
-7.38174e-14
-2.88144e-13
-3.71586e-14
-2.37948e-13
-5.66115e-14
-6.9136e-14
-5.23543e-14
-7.09284e-14
-6.1252e-14
-7.34619e-14
-7.57917e-14
-7.6725e-14
-5.97636e-14
-8.47157e-14
-2.3781e-14
-1.84558e-13
-2.18923e-14
-2.00133e-13
-3.45653e-15
-2.22341e-13
2.09662e-14
-3.1312e-13
5.40732e-14
-4.30121e-13
1.29922e-13
-5.06594e-13
1.90785e-13
-5.40712e-13
2.2593e-13
-5.07284e-13
2.27233e-13
-4.21827e-13
2.08592e-13
-4.14468e-13
2.20673e-13
-4.35706e-13
2.39444e-13
-4.311e-13
2.45611e-13
-3.3904e-13
2.03805e-13
-2.74319e-13
1.7481e-13
-2.55982e-13
1.78509e-13
-2.48663e-13
1.93518e-13
-2.33808e-13
2.04501e-13
-2.09971e-13
2.05962e-13
-1.88817e-13
2.0772e-13
-1.68738e-13
2.12268e-13
-1.50264e-13
2.14218e-13
-1.31798e-13
2.17124e-13
-1.11271e-13
2.20193e-13
-8.6617e-14
2.19755e-13
-5.73147e-14
2.07985e-13
-2.73896e-14
1.73198e-13
-6.54475e-15
1.09337e-13
-8.64799e-17
3.6767e-14
1.28533e-15
-2.87512e-14
-1.09161e-14
-5.15883e-14
-1.50524e-14
-5.27689e-14
-1.87751e-14
-4.65181e-14
-2.32884e-14
-4.93131e-14
-2.99208e-14
-5.64705e-14
-3.5022e-14
-9.0374e-14
-3.4788e-14
-1.02215e-13
-3.07225e-14
-1.05588e-13
-2.00619e-14