/*--------------------------------*- C++ -*----------------------------------*\
| =========                 |                                                 |
| \\      /  F ield         | OpenFOAM: The Open Source CFD Toolbox           |
|  \\    /   O peration     | Version:  5.0                                   |
|   \\  /    A nd           | Web:      www.OpenFOAM.org                      |
|    \\/     M anipulation  |                                                 |
\*---------------------------------------------------------------------------*/
FoamFile
{
    version     2.0;
    format      ascii;
    class       volScalarField;
    location    "0.5";
    object      epsilon;
}
// * * * * * * * * * * * * * * * * * * * * * * * * * * * * * * * * * * * * * //

dimensions      [0 2 -3 0 0 0 0];

internalField   nonuniform List<scalar> 
1935
(
1.03489
1.02363
1.01467
1.00901
1.00719
1.00932
1.01511
1.02391
1.03483
1.04688
1.05903
1.07037
1.08015
1.08786
1.0932
1.096
1.09634
1.09362
1.0871
1.07575
1.0582
1.03289
0.998328
0.953533
0.898404
0.834028
0.762697
0.687615
0.612365
0.540293
0.474018
0.415176
0.364432
0.321673
0.286262
0.257278
0.233677
0.214347
0.198058
0.183281
0.167889
0.148847
0.122191
1.0749
1.10977
1.14002
1.1656
1.06521
1.10207
1.13482
1.1634
1.05846
1.09807
1.13418
1.16669
1.05576
1.09897
1.13942
1.17692
1.05767
1.10538
1.15118
1.19478
1.06427
1.11731
1.16943
1.22021
1.07511
1.13419
1.19347
1.25237
1.08937
1.15495
1.222
1.28977
1.10591
1.17818
1.25326
1.33033
1.12342
1.20221
1.28522
1.3716
1.1406
1.22535
1.31571
1.41092
1.15624
1.24604
1.34269
1.44569
1.16942
1.26306
1.36451
1.47371
1.17957
1.27566
1.38014
1.49346
1.18645
1.28367
1.38932
1.50438
1.19015
1.28742
1.39254
1.50691
1.19123
1.28789
1.39097
1.5024
1.18943
1.28556
1.38636
1.49386
1.18427
1.28033
1.37916
1.48249
1.17487
1.27172
1.36951
1.46942
1.15981
1.25844
1.3566
1.4547
1.13716
1.23835
1.33834
1.43669
1.10479
1.20871
1.31152
1.41197
1.06091
1.16683
1.27243
1.37593
1.00467
1.11084
1.21797
1.32401
0.936627
1.04051
1.14675
1.25328
0.858986
0.957678
1.05992
1.16381
0.775313
0.866118
0.961232
1.05902
0.689919
0.770841
0.856338
0.94507
0.607047
0.677056
0.751471
0.829232
0.530163
0.589199
0.652176
0.718276
0.461547
0.510325
0.56243
0.617246
0.402242
0.441954
0.484357
0.528992
0.352265
0.384301
0.418442
0.454355
0.31094
0.336672
0.364011
0.392717
0.277212
0.297877
0.319737
0.342627
0.249873
0.266535
0.284051
0.30231
0.227668
0.241234
0.255362
0.269981
0.209256
0.220522
0.232105
0.243943
0.192999
0.202692
0.212529
0.22242
0.176542
0.18524
0.194084
0.202926
0.156205
0.163915
0.172098
0.180623
0.126429
0.131269
0.136968
0.143674
1.18787
1.20521
1.21735
1.22486
1.22849
1.22915
1.22792
1.22602
1.22475
1.22527
1.22841
1.2344
1.24283
1.25257
1.26192
1.26876
1.27084
1.26619
1.25355
1.23283
1.20516
1.17278
1.13876
1.1077
1.08812
1.09826
1.18433
1.45734
2.30532
5.02793
13.721
38.8828
102.847
250.383
573.31
1265.36
2603.45
3487.19
3059.86
3799.64
1.18929
1.21069
1.22694
1.23837
1.24549
1.24901
1.24996
1.2496
1.24942
1.2508
1.25469
1.26133
1.27019
1.27999
1.28883
1.29442
1.29437
1.28653
1.26972
1.24422
1.21201
1.17635
1.14116
1.11249
1.10239
1.13658
1.2671
1.64739
2.78563
6.26935
16.7163
45.1922
114.6
270.445
605.438
1314.72
2495.46
3174.29
2881.72
3606.52
1.19722
1.22366
1.24481
1.26062
1.27124
1.27718
1.27936
1.27923
1.27856
1.27911
1.28208
1.28776
1.29555
1.30398
1.31108
1.31452
1.31183
1.30064
1.2797
1.24971
1.21367
1.17629
1.14243
1.12067
1.12731
1.19571
1.38585
1.92159
3.44181
7.83338
20.1476
51.8585
126.311
289.674
635.009
1330.21
2261.13
2791.23
2616.68
3322.87
1.21322
1.24578
1.27266
1.29324
1.30723
1.31484
1.31697
1.3153
1.3121
1.30964
1.30953
1.31216
1.31682
1.32192
1.32546
1.3254
1.31932
1.30457
1.27968
1.24566
1.20689
1.17062
1.14337
1.13782
1.17247
1.28165
1.56401
2.3185
4.32611
9.75439
23.9774
58.7219
137.543
306.731
658.96
1292.3
1980.1
2399.27
2303.55
2979.79
1.23805
1.27786
1.3113
1.33702
1.35412
1.36248
1.36303
1.35782
1.34979
1.342
1.33649
1.3337
1.33283
1.33214
1.32969
1.32403
1.31325
1.29435
1.26552
1.22872
1.19026
1.1613
1.15217
1.16972
1.23639
1.40778
1.83939
2.88644
5.48999
12.0483
28.1587
65.7648
148.867
324.954
671.688
1181.5
1709.53
2035.45
1982.56
2609.07
1.27163
1.31983
1.36067
1.39186
1.41181
1.42004
1.41761
1.40717
1.39242
1.37724
1.36415
1.3537
1.34511
1.33637
1.32534
1.31143
1.2941
1.27059
1.23933
1.20623
1.17834
1.16505
1.17299
1.21566
1.33961
1.62594
2.25838
3.68031
6.97706
14.7139
32.6247
72.7925
159.501
335.661
641.46
1050.75
1457.45
1707.03
1677.03
2236.57
1.31301
1.3707
1.4198
1.4569
1.47957
1.48714
1.48115
1.46484
1.44236
1.4181
1.39561
1.37644
1.35983
1.34299
1.32275
1.29883
1.27424
1.24904
1.22141
1.19142
1.17416
1.17864
1.21649
1.31877
1.53675
1.97632
2.8709
4.74905
8.81153
17.7335
37.2812
79.4157
167.206
330.113
591.644
919.262
1227.56
1416.32
1398.41
1880.5
1.36051
1.42871
1.48694
1.53053
1.55612
1.56332
1.55435
1.5325
1.50201
1.46825
1.4368
1.41068
1.38924
1.36874
1.34301
1.30797
1.27427
1.24739
1.21478
1.1926
1.19679
1.23648
1.33078
1.51604
1.8606
2.50124
3.72037
6.11639
10.9828
21.0765
42.1601
85.3643
167.524
314.824
533.769
789.44
1021.34
1163.18
1152
1552.21
1.4118
1.49136
1.55963
1.6105
1.63969
1.64762
1.63734
1.61149
1.57431
1.53346
1.49731
1.46969
1.44978
1.4314
1.40311
1.3502
1.30143
1.26208
1.23937
1.24332
1.28265
1.37286
1.54127
1.83673
2.34715
3.23659
4.82578
7.75982
13.4092
24.6681
47.3301
89.6156
165.932
293.847
470.397
665.406
840.251
945.471
938.881
1257.68
1.46404
1.55559
1.63477
1.69388
1.72773
1.73811
1.72917
1.70262
1.66257
1.62019
1.58802
1.56861
1.55579
1.52813
1.46286
1.39245
1.34058
1.31725
1.32279
1.36231
1.44888
1.60621
1.87285
2.31113
3.02509
4.19663
6.16491
9.61405
15.9872
28.1529
50.8735
92.1098
162.557
268.218
405.061
553.04
684.249
760.67
757.778
999.223
1.51409
1.61787
1.70871
1.77712
1.81679
1.83129
1.82686
1.80403
1.76597
1.72919
1.71375
1.71289
1.70153
1.60247
1.50805
1.44523
1.42075
1.43249
1.48103
1.56913
1.71752
1.96082
2.34987
2.95893
3.89877
5.36794
7.70263
11.6342
18.6415
31.0059
52.932
91.7083
152.372
237.265
342.574
454.443
551.707
605.814
606.105
776.936
1.55872
1.67446
1.77738
1.85614
1.9026
1.92195
1.92403
1.90909
1.87662
1.85023
1.85941
1.8595
1.75114
1.63744
1.5648
1.53458
1.55382
1.62544
1.74357
1.89464
2.11528
2.45651
2.9824
3.77597
4.95424
6.71198
9.43001
13.82
21.0067
33.023
53.7413
87.1357
137.096
204.375
285.121
369.074
440.246
477.646
480.679
589.726
1.59505
1.72175
1.83674
1.92676
1.9811
2.00502
2.01291
2.00795
1.98391
1.96872
1.99246
1.894
1.77344
1.69119
1.65258
1.66783
1.75266
1.92196
2.1603
2.37853
2.66316
3.09687
3.76017
4.74214
6.15907
8.23261
11.2107
15.6353
22.6174
33.9656
52
79.8121
119.9
172.362
233.763
296.276
347.647
372.969
378.14
435.888
1.6209
1.75684
1.8833
1.98549
2.04938
2.07772
2.08875
2.09031
2.07384
2.06232
2.02597
1.90872
1.82151
1.7732
1.77573
1.84738
2.01639
2.32583
2.69201
3.03186
3.3596
3.85817
4.64208
5.80075
7.39744
9.516
12.4016
16.6512
23.0388
32.9376
48.1617
70.7935
102.388
142.769
189.095
235.239
271.769
288.654
295.157
313.236
1.63517
1.77787
1.91447
2.02915
2.10561
2.14035
2.15066
2.15053
2.13594
2.10872
2.0526
1.95894
1.90156
1.88929
1.93781
2.07115
2.32532
2.74865
3.24168
3.63767
4.03107
4.59463
5.44119
6.59586
8.09865
10.0798
12.7201
16.4794
22.0474
30.4364
42.9576
61.0244
85.6056
116.405
151.097
184.83
210.418
221.586
228.546
218.945
1.63789
1.78414
1.9287
2.05577
2.14722
2.19307
2.20255
2.19476
2.17803
2.15638
2.10768
2.04269
2.01883
2.04726
2.1467
2.34387
2.67525
3.18579
3.82324
4.35252
4.75899
5.223
5.90475
6.87556
8.1546
9.84803
12.1428
15.3814
20.0904
27.0153
37.0946
51.2952
70.2218
93.5289
119.312
143.726
161.385
168.735
175.377
149.368
1.63017
1.77617
1.92516
2.06355
2.17219
2.23419
2.24985
2.24299
2.23019
2.22134
2.19693
2.1672
2.18342
2.2602
2.41913
2.68801
3.10022
3.69588
4.46677
5.10502
5.43281
5.66873
6.0549
6.71669
7.70715
9.09268
11.0119
13.7153
17.5904
23.1779
31.1442
42.1526
56.5775
74.0678
93.0699
110.553
122.549
127.303
133.064
100.1
1.61604
1.75622
1.9042
2.05086
2.17751
2.26421
2.2998
2.30817
2.31247
2.32261
2.32946
2.34223
2.40764
2.54441
2.77687
3.1325
3.63697
4.31753
5.14891
5.67028
5.75013
5.70176
5.81423
6.21392
6.94079
8.03504
9.59154
11.7881
14.9024
19.3193
25.5065
33.9172
44.7789
57.7655
71.6254
83.9945
91.9789
94.8923
99.4754
66.4272
1.59796
1.72991
1.87163
2.01831
2.15928
2.27834
2.35458
2.3963
2.43059
2.46723
2.50947
2.57434
2.70112
2.91355
3.23888
3.70069
4.31168
4.99699
5.51757
5.65996
5.47795
5.25815
5.22015
5.45613
5.99028
6.84593
8.08657
9.83552
12.2867
15.708
20.4221
26.7353
34.7835
44.2849
54.2541
62.8722
68.0354
69.6111
72.9884
43.9923
1.5783
1.70073
1.83251
1.97315
2.1186
2.26087
2.38837
2.49253
2.57849
2.65809
2.74162
2.86494
3.06029
3.36556
3.80308
4.38944
4.99342
5.19728
5.24755
5.07052
4.75541
4.49146
4.41452
4.5773
4.99024
5.66626
6.64736
8.01695
9.90654
12.4976
16.0075
20.6401
26.4753
33.2868
40.3227
46.2114
49.4237
50.0641
52.4203
29.2838
1.55852
1.67196
1.79203
1.92099
2.05988
2.20802
2.3629
2.52022
2.67557
2.83017
2.99311
3.1907
3.46455
3.85678
4.36965
4.7948
4.82391
4.6784
4.45699
4.15166
3.83558
3.61788
3.56991
3.71493
4.05466
4.59598
5.36614
6.41978
7.84303
9.75465
12.2969
15.6025
19.7182
24.4745
29.3211
33.2523
35.1624
35.2242
36.8491
19.7425
1.53801
1.64487
1.75399
1.86833
1.99111
2.12545
2.27403
2.43884
2.62154
2.82498
3.05125
3.30817
3.59977
3.91656
4.14126
4.13365
3.96487
3.73204
3.46424
3.18398
2.94718
2.81366
2.81657
2.96314
3.25144
3.68511
4.2813
5.0744
6.11856
7.48855
9.27424
11.5594
14.3716
17.5924
20.8379
23.3976
24.4851
24.265
25.4398
13.5984
1.51363
1.61755
1.71907
1.82016
1.92368
2.03314
2.15239
2.28511
2.43425
2.60112
2.78243
2.96658
3.12882
3.22888
3.2363
3.14822
2.98605
2.78451
2.56892
2.37011
2.22687
2.17023
2.21369
2.35771
2.59959
2.94114
3.39258
3.97454
4.71958
5.67284
6.8889
8.41887
10.279
12.3916
14.5026
16.1315
16.7334
16.4393
17.366
9.65012
1.48009
1.58472
1.68336
1.77621
1.86439
1.94975
2.0346
2.12116
2.21066
2.30199
2.38953
2.46139
2.5006
2.49175
2.44176
2.34459
2.20999
2.05594
1.90431
1.78012
1.70672
1.69878
1.76062
1.8904
2.08554
2.34662
2.67924
3.09507
3.61278
4.25852
5.06417
6.05985
7.25509
8.60194
9.94063
10.9599
11.2944
11.0398
11.8297
7.0935
1.43126
1.5388
1.63858
1.7291
1.80953
1.87961
1.93951
1.98945
2.02915
2.05714
2.07017
2.06341
2.03253
1.98089
1.90588
1.80667
1.69072
1.57138
1.46515
1.38836
1.35337
1.36615
1.42702
1.53349
1.68319
1.8758
2.11394
2.40376
2.75547
3.18362
3.70626
4.34067
5.09253
5.93384
6.76846
7.40256
7.59851
7.42342
8.12313
5.40441
1.36225
1.47248
1.57493
1.66688
1.746
1.8104
1.85859
1.88938
1.90177
1.89486
1.868
1.82119
1.75584
1.67701
1.58379
1.47958
1.372
1.27163
1.1897
1.13563
1.11514
1.12988
1.17847
1.25832
1.36718
1.50411
1.66996
1.86764
2.10244
2.38222
2.71696
3.11651
3.58447
4.10538
4.62344
5.02148
5.14843
5.05115
5.67471
4.25233
1.27147
1.38182
1.48549
1.57907
1.65935
1.72343
1.76877
1.79331
1.79561
1.77495
1.73167
1.6675
1.58599
1.49177
1.38806
1.28062
1.17713
1.08595
1.01453
0.968011
0.948648
0.956099
0.988379
1.04298
1.11776
1.21144
1.32389
1.45621
1.61097
1.79232
2.00576
2.257
2.54856
2.87246
3.19729
3.45351
3.54625
3.50895
4.06059
3.43511
1.16162
1.26817
1.36954
1.4621
1.54227
1.60662
1.65208
1.67612
1.67693
1.65372
1.60694
1.53849
1.4535
1.35594
1.25115
1.14576
1.04699
0.961535
0.894539
0.84893
0.825406
0.822921
0.839438
0.872677
0.920651
0.981977
1.05601
1.14295
1.24391
1.36103
1.4974
1.65647
1.8402
2.04492
2.25341
2.42477
2.49963
2.50283
2.9867
2.83155
1.03913
1.13791
1.23295
1.32075
1.3977
1.4603
1.50531
1.53003
1.53254
1.51198
1.46879
1.40493
1.32524
1.23366
1.13575
1.03791
0.946503
0.866994
0.803218
0.75711
0.728857
0.717375
0.720881
0.737428
0.765268
0.803065
0.849995
0.905807
0.970885
1.04632
1.13391
1.23585
1.35379
1.48643
1.62462
1.74444
1.80863
1.83667
2.25883
2.36943
0.91233
1.00035
1.08582
1.16558
1.23627
1.29461
1.33751
1.36238
1.36734
1.35153
1.31532
1.26117
1.19231
1.11238
1.02639
0.939945
0.858429
0.786318
0.72669
0.681085
0.649669
0.631614
0.625536
0.62988
0.643194
0.664296
0.692358
0.726956
0.768125
0.816412
0.872908
0.939119
1.01646
1.10484
1.1997
1.28706
1.34357
1.38535
1.75279
2.00541
0.789332
0.865065
0.939142
1.00884
1.07125
1.12349
1.16283
1.18696
1.19423
1.18382
1.15593
1.11322
1.05728
0.991256
0.919315
0.846059
0.775882
0.712441
0.658307
0.614859
0.58241
0.560476
0.548093
0.544107
0.547382
0.556944
0.572055
0.592265
0.617462
0.647918
0.684331
0.727789
0.779501
0.839994
0.907193
0.973068
1.02301
1.07109
1.39053
1.71283
0.676409
0.739735
0.802018
0.861028
0.914374
0.959637
0.994545
1.01716
1.02608
1.02064
1.00115
0.969231
0.925928
0.873673
0.815735
0.75573
0.69714
0.642922
0.595239
0.555374
0.523792
0.500325
0.484386
0.475184
0.471885
0.473735
0.480128
0.490661
0.505178
0.523815
0.547047
0.575691
0.610776
0.653076
0.701883
0.752687
0.796507
0.846029
1.12321
1.47463
0.577285
0.629117
0.680307
0.729097
0.773585
0.81184
0.842038
0.86261
0.872387
0.870687
0.858519
0.835838
0.803565
0.763539
0.718223
0.670364
0.622659
0.577459
0.536567
0.50116
0.471804
0.448568
0.431165
0.419104
0.411816
0.408751
0.409444
0.413568
0.420974
0.431735
0.446193
0.464978
0.488958
0.518963
0.555002
0.594664
0.632609
0.680482
0.920196
1.27935
0.49326
0.535083
0.57652
0.616219
0.652704
0.684469
0.710089
0.72834
0.738329
0.739601
0.732604
0.717093
0.693704
0.663756
0.629047
0.591615
0.553504
0.51655
0.482233
0.451596
0.425243
0.403394
0.385979
0.372738
0.363313
0.357331
0.354458
0.354445
0.357172
0.362688
0.371249
0.38335
0.399715
0.421135
0.447966
0.479045
0.511395
0.55577
0.762065
1.11875
0.423828
0.457302
0.490558
0.522566
0.552195
0.57828
0.599717
0.615544
0.625
0.628258
0.624801
0.614524
0.59788
0.575797
0.549559
0.520649
0.490589
0.460792
0.432448
0.406452
0.383392
0.363568
0.347049
0.333739
0.323443
0.315926
0.310964
0.308384
0.308099
0.310149
0.314731
0.322242
0.333273
0.348534
0.368523
0.392809
0.419955
0.459866
0.636412
0.986566
0.367426
0.394123
0.420714
0.446421
0.47037
0.491653
0.509417
0.522943
0.531714
0.535712
0.53442
0.527749
0.516001
0.499817
0.480098
0.457907
0.434365
0.410541
0.387374
0.365612
0.345791
0.328238
0.313104
0.300398
0.290042
0.281907
0.275855
0.271775
0.269613
0.269406
0.271311
0.275642
0.282882
0.293638
0.308441
0.327283
0.349728
0.384858
0.535201
0.877795
0.322065
0.343331
0.364568
0.385196
0.404523
0.421812
0.436374
0.447631
0.455508
0.459553
0.459451
0.455147
0.446842
0.434968
0.42015
0.403141
0.384753
0.365786
0.346968
0.328908
0.312073
0.296785
0.28323
0.271487
0.261552
0.253373
0.246879
0.242007
0.238732
0.237088
0.237204
0.239329
0.24385
0.251275
0.262111
0.27659
0.294928
0.325422
0.453102
0.788323
0.285734
0.302664
0.319613
0.336162
0.351742
0.365711
0.377506
0.386729
0.39332
0.396916
0.397316
0.394482
0.388541
0.379778
0.368614
0.355569
0.341221
0.326158
0.310936
0.296038
0.281859
0.268694
0.256741
0.246112
0.236855
0.228971
0.222437
0.217228
0.213341
0.210814
0.209751
0.21035
0.212919
0.217875
0.225683
0.236707
0.251584
0.277896
0.386428
0.714721
0.256579
0.270072
0.283589
0.296871
0.309418
0.320574
0.329824
0.337076
0.342187
0.344998
0.345412
0.343411
0.339063
0.332538
0.324104
0.314103
0.302935
0.291019
0.278767
0.266556
0.254709
0.243483
0.23307
0.223598
0.215143
0.207742
0.201409
0.196149
0.191975
0.188931
0.187105
0.186656
0.187829
0.190968
0.196487
0.204826
0.216898
0.239655
0.332443
0.654097
0.2328
0.243698
0.254558
0.265325
0.27552
0.28432
0.291219
0.296357
0.299788
0.301542
0.30161
0.299975
0.296653
0.291721
0.285324
0.277669
0.269015
0.259647
0.249861
0.239941
0.23014
0.220675
0.211719
0.203399
0.195807
0.189002
0.18302
0.177891
0.173645
0.17033
0.168028
0.16687
0.16706
0.168882
0.172711
0.179034
0.188944
0.208854
0.289044
0.60412
0.212076
0.221449
0.230639
0.239894
0.248657
0.255628
0.260306
0.263231
0.264838
0.265347
0.264803
0.263175
0.260424
0.25655
0.251604
0.245691
0.238966
0.231611
0.22383
0.215827
0.207794
0.199904
0.192303
0.185107
0.178407
0.172269
0.166745
0.161876
0.157705
0.154286
0.151696
0.150054
0.149532
0.150378
0.152942
0.157743
0.166012
0.183759
0.25426
0.56256
0.189752
0.199269
0.208598
0.218346
0.227695
0.234036
0.236881
0.237704
0.237552
0.23682
0.235556
0.233686
0.23112
0.227801
0.22372
0.218921
0.213488
0.207538
0.20121
0.19465
0.188
0.181395
0.174952
0.168769
0.162926
0.157487
0.152503
0.148017
0.144077
0.140735
0.138065
0.136174
0.135218
0.135425
0.137137
0.140913
0.148078
0.164296
0.227431
0.528615
0.151924
0.161912
0.173097
0.188467
0.208506
0.216998
0.219716
0.220009
0.219305
0.21813
0.216574
0.214573
0.212038
0.208906
0.205158
0.200819
0.195949
0.190641
0.185002
0.179149
0.1732
0.167264
0.16144
0.155813
0.15045
0.145409
0.140735
0.136468
0.132646
0.129316
0.12654
0.124406
0.123048
0.12267
0.123596
0.12642
0.132602
0.147818
0.206435
0.498306
)
;

boundaryField
{
    leftWall
    {
        Cmu             0.09;
        kappa           0.41;
        E               9.8;
        type            epsilonWallFunction;
        value           nonuniform 0();
    }
    rightWall
    {
        Cmu             0.09;
        kappa           0.41;
        E               9.8;
        type            epsilonWallFunction;
        value           nonuniform List<scalar> 
43
(
3799.64
3606.52
3322.87
2979.79
2609.07
2236.57
1880.5
1552.21
1257.68
999.223
776.936
589.726
435.888
313.236
218.945
149.368
100.1
66.4272
43.9923
29.2838
19.7425
13.5984
9.65012
7.0935
5.40441
4.25233
3.43511
2.83155
2.36943
2.00541
1.71283
1.47463
1.27935
1.11875
0.986566
0.877795
0.788323
0.714721
0.654097
0.60412
0.56256
0.528615
0.498306
)
;
    }
    lowerWall
    {
        Cmu             0.09;
        kappa           0.41;
        E               9.8;
        type            epsilonWallFunction;
        value           nonuniform 0();
    }
    atmosphere
    {
        type            inletOutlet;
        inletValue      uniform 0.1;
        value           nonuniform List<scalar> 
45
(
0.1
0.1
0.1
0.1
0.1
0.1
0.1
0.1
0.1
0.208506
0.216998
0.219716
0.220009
0.219305
0.21813
0.216574
0.214573
0.212038
0.208906
0.205158
0.200819
0.195949
0.190641
0.185002
0.179149
0.1732
0.167264
0.16144
0.155813
0.15045
0.145409
0.140735
0.136468
0.132646
0.129316
0.12654
0.124406
0.123048
0.12267
0.123596
0.12642
0.132602
0.147818
0.206435
0.498306
)
;
    }
    defaultFaces
    {
        type            empty;
    }
    procBoundary3to1
    {
        type            processor;
        value           nonuniform List<scalar> 
45
(
1.04712
1.08604
1.11949
1.14792
1.17127
1.19076
1.20489
1.21361
1.21768
1.21801
1.21563
1.21171
1.20745
1.20407
1.20266
1.20396
1.20826
1.21526
1.22405
1.23313
1.24059
1.24437
1.24256
1.23386
1.21778
1.19482
1.16638
1.1347
1.10326
1.07839
1.07383
1.12566
1.32214
1.95548
4.06207
11.1648
33.0012
91.0083
228.319
532.703
1185.5
2550.79
3703.84
3142.11
3879.35
)
;
    }
    procBoundary3to2
    {
        type            processor;
        value           nonuniform List<scalar> 
43
(
0.989075
0.976644
0.965987
0.957991
0.953183
0.951712
0.953385
0.957727
0.964064
0.971614
0.979576
0.987206
0.993871
0.999073
1.00242
1.00357
1.00224
0.997668
0.989003
0.97524
0.955234
0.927835
0.89214
0.84778
0.795178
0.735678
0.671471
0.605307
0.540063
0.478304
0.421947
0.372124
0.329224
0.293053
0.263034
0.238374
0.218172
0.201451
0.187094
0.173715
0.159471
0.14197
0.118508
)
;
    }
}


// ************************************************************************* //
