/*--------------------------------*- C++ -*----------------------------------*\
| =========                 |                                                 |
| \\      /  F ield         | OpenFOAM: The Open Source CFD Toolbox           |
|  \\    /   O peration     | Version:  5.0                                   |
|   \\  /    A nd           | Web:      www.OpenFOAM.org                      |
|    \\/     M anipulation  |                                                 |
\*---------------------------------------------------------------------------*/
FoamFile
{
    version     2.0;
    format      ascii;
    class       volScalarField;
    location    "0.5";
    object      k;
}
// * * * * * * * * * * * * * * * * * * * * * * * * * * * * * * * * * * * * * //

dimensions      [0 2 -2 0 0 0 0];

internalField   nonuniform List<scalar> 
1935
(
0.357849
0.350925
0.344935
0.340133
0.336673
0.334604
0.333871
0.334339
0.335806
0.338033
0.340769
0.343771
0.346828
0.349769
0.352472
0.354851
0.356877
0.358457
0.359469
0.359742
0.359037
0.357058
0.353487
0.348043
0.340549
0.330996
0.319565
0.30662
0.292649
0.278187
0.263734
0.249689
0.236324
0.223778
0.212075
0.201151
0.190859
0.180969
0.171123
0.160756
0.148954
0.134318
0.114911
0.362109
0.365217
0.367303
0.368446
0.355273
0.358536
0.360857
0.362315
0.349501
0.35306
0.355764
0.357686
0.345072
0.34909
0.352346
0.354903
0.342148
0.346796
0.350786
0.354158
0.340771
0.346216
0.351115
0.355479
0.340869
0.347257
0.353222
0.358739
0.342273
0.349715
0.356869
0.363673
0.344739
0.353304
0.361725
0.369907
0.347981
0.357681
0.367393
0.376994
0.351696
0.362485
0.373445
0.384442
0.355592
0.367366
0.379461
0.391757
0.359419
0.372019
0.385069
0.398485
0.362985
0.376216
0.389983
0.404265
0.366166
0.379823
0.394037
0.408867
0.368904
0.382799
0.397193
0.412215
0.371232
0.385225
0.399536
0.41439
0.373119
0.387176
0.401295
0.415745
0.374507
0.388675
0.402593
0.416519
0.375273
0.389685
0.403519
0.416973
0.375199
0.390048
0.404028
0.417237
0.373962
0.389447
0.403863
0.41718
0.371168
0.38743
0.402543
0.416356
0.366421
0.383482
0.399442
0.414048
0.359417
0.377145
0.393924
0.409437
0.35003
0.368145
0.385527
0.401826
0.338376
0.356491
0.374105
0.390864
0.324809
0.3425
0.359898
0.376667
0.309869
0.326746
0.343492
0.3598
0.294187
0.309948
0.325687
0.341131
0.278372
0.292833
0.307332
0.321633
0.262931
0.276025
0.289179
0.302192
0.248217
0.259972
0.271785
0.283489
0.234426
0.244933
0.255484
0.265942
0.221609
0.230995
0.240408
0.249733
0.20971
0.218113
0.226525
0.234853
0.19858
0.206141
0.213693
0.221162
0.187985
0.194838
0.201669
0.208417
0.177555
0.183836
0.19009
0.196262
0.166692
0.17252
0.178346
0.184111
0.154365
0.159777
0.16528
0.17081
0.138842
0.143557
0.148572
0.153854
0.117395
0.120186
0.123431
0.127228
0.368768
0.368235
0.36703
0.365365
0.363458
0.361528
0.359793
0.358456
0.357696
0.357631
0.358284
0.359557
0.361227
0.362962
0.364346
0.364925
0.364252
0.36196
0.35783
0.351858
0.344271
0.335488
0.326079
0.316835
0.309011
0.304785
0.30883
0.329216
0.391311
0.559608
0.977724
1.87835
3.55427
6.38008
10.9119
18.0453
28.1782
32.601
25.591
10.5885
0.363049
0.36301
0.362339
0.361216
0.359829
0.358373
0.35705
0.356068
0.35562
0.35584
0.356756
0.358255
0.360089
0.361899
0.363249
0.363673
0.362714
0.359993
0.355312
0.348739
0.34064
0.331598
0.322299
0.313716
0.307513
0.306598
0.315408
0.345044
0.427263
0.635221
1.11735
2.09711
3.85573
6.76186
11.3646
18.5476
27.328
30.2564
23.7879
10.2319
0.35898
0.359565
0.359513
0.358958
0.358044
0.356937
0.35583
0.354946
0.354514
0.354706
0.355567
0.356982
0.358683
0.36029
0.361364
0.361449
0.360092
0.356895
0.351669
0.344555
0.336079
0.327048
0.31826
0.310988
0.30732
0.310766
0.325396
0.367984
0.475429
0.728054
1.27382
2.32527
4.15442
7.12628
11.7814
18.7236
25.5758
27.4611
21.6612
9.68856
0.356927
0.358277
0.358932
0.358955
0.358437
0.35751
0.356364
0.355257
0.354475
0.35425
0.354669
0.35562
0.356815
0.357863
0.358336
0.357834
0.355936
0.352223
0.34649
0.338923
0.33026
0.321678
0.314167
0.309471
0.309737
0.317669
0.340923
0.401019
0.538875
0.839197
1.44536
2.55931
4.44538
7.46286
12.1401
18.4007
23.4019
24.5583
19.379
9.00611
0.35709
0.359354
0.3608
0.361404
0.361186
0.360243
0.358774
0.357092
0.355566
0.354525
0.354102
0.354179
0.35446
0.354538
0.354009
0.352578
0.349928
0.345621
0.339405
0.331593
0.323201
0.315951
0.311309
0.309948
0.314006
0.328286
0.365503
0.447563
0.620104
0.96854
1.62962
2.79759
4.73583
7.81179
12.3505
17.4018
21.1924
21.7773
17.1159
8.23654
0.359495
0.362821
0.365146
0.366334
0.366322
0.365178
0.363135
0.360584
0.357996
0.355795
0.354167
0.353002
0.352016
0.350774
0.348853
0.346101
0.34244
0.33749
0.331036
0.323937
0.317295
0.312495
0.310268
0.311955
0.322492
0.348529
0.40289
0.510822
0.7204
1.11466
1.82337
3.03496
5.0134
8.05175
12.0517
16.1465
19.0128
19.1641
14.9676
7.42533
0.364001
0.368534
0.371832
0.373622
0.373756
0.372292
0.369549
0.366005
0.362179
0.358547
0.355426
0.352848
0.350545
0.347984
0.344604
0.340311
0.335551
0.330391
0.324564
0.31801
0.312985
0.310662
0.312236
0.321032
0.3415
0.381582
0.456154
0.592599
0.839039
1.27474
2.0223
3.26196
5.23343
8.03163
11.4814
14.7971
16.902
16.738
12.977
6.60776
0.370322
0.376202
0.380577
0.383024
0.3833
0.381528
0.378136
0.373618
0.368496
0.363361
0.3588
0.355056
0.351896
0.34866
0.34439
0.338442
0.332356
0.327015
0.320456
0.315007
0.312899
0.315047
0.323297
0.340931
0.373353
0.429951
0.526966
0.692229
0.972821
1.44451
2.22436
3.46973
5.30268
7.83182
10.7599
13.3742
14.8851
14.5104
11.168
5.80904
0.378055
0.385412
0.390985
0.394186
0.394686
0.392743
0.388909
0.383606
0.377358
0.371052
0.36564
0.361487
0.358337
0.355226
0.35049
0.342042
0.333869
0.326707
0.321478
0.31952
0.321742
0.329624
0.345599
0.37365
0.420077
0.494922
0.614598
0.806042
1.11534
1.61821
2.42697
3.62076
5.30405
7.51114
9.91053
11.9194
12.9918
12.4822
9.54887
5.04562
0.386711
0.395657
0.402565
0.406664
0.407541
0.405658
0.401723
0.396058
0.389187
0.382458
0.377371
0.37411
0.371698
0.367145
0.357294
0.346463
0.337837
0.332767
0.331143
0.333431
0.340846
0.355512
0.38061
0.420722
0.482444
0.57553
0.715325
0.928174
1.26006
1.78136
2.56817
3.70608
5.24331
7.08277
8.97301
10.5049
11.2451
10.6535
8.11679
4.32753
0.395743
0.406358
0.414741
0.419916
0.421358
0.419782
0.416164
0.410701
0.40384
0.397635
0.394539
0.39349
0.390991
0.376878
0.36307
0.35322
0.348148
0.347337
0.350631
0.358104
0.371613
0.394051
0.429268
0.482146
0.558751
0.668542
0.824656
1.05405
1.40135
1.91124
2.64955
3.69927
5.02685
6.52863
8.01083
9.17103
9.65396
9.02167
6.86367
3.66064
0.404581
0.41689
0.426869
0.433313
0.435508
0.434391
0.431381
0.426664
0.420296
0.415256
0.415085
0.413825
0.398714
0.382495
0.371411
0.365576
0.365654
0.371535
0.382051
0.395577
0.415414
0.44564
0.490745
0.555604
0.645722
0.769002
0.939765
1.18123
1.52007
1.99599
2.67314
3.57308
4.68049
5.89825
7.0601
7.92911
8.21806
7.5811
5.7793
3.04889
0.412683
0.42663
0.438277
0.446186
0.449344
0.448726
0.446311
0.442651
0.437163
0.433364
0.434663
0.420846
0.403817
0.391426
0.384383
0.383739
0.390923
0.406897
0.428972
0.448067
0.47251
0.508844
0.562328
0.63752
0.739024
0.875172
1.05071
1.28044
1.59283
2.02529
2.60675
3.36021
4.26632
5.24201
6.147
6.79025
6.93774
6.32621
4.85215
2.49584
0.419591
0.435021
0.44834
0.457901
0.462298
0.462227
0.460151
0.457186
0.452471
0.448877
0.442559
0.425892
0.412748
0.4043
0.401845
0.407144
0.422701
0.451999
0.484545
0.513837
0.540573
0.579801
0.639016
0.722145
0.829282
0.960024
1.12028
1.32867
1.60358
1.97388
2.46436
3.08641
3.81902
4.59362
5.29443
5.76424
5.81275
5.24969
4.06819
2.00546
0.424983
0.441626
0.456514
0.467827
0.473881
0.474628
0.472448
0.469207
0.464556
0.458797
0.449618
0.435458
0.42564
0.421123
0.423422
0.43467
0.45781
0.496303
0.538992
0.571545
0.602571
0.64499
0.705528
0.783677
0.87887
0.99417
1.13366
1.31192
1.54716
1.86009
2.2681
2.77634
3.3647
3.97669
4.51686
4.85508
4.83873
4.33939
3.40983
1.58168
0.428696
0.446158
0.462379
0.475474
0.483492
0.485617
0.483288
0.479003
0.473892
0.468444
0.45965
0.448566
0.442299
0.441918
0.449069
0.465941
0.49526
0.539832
0.592836
0.634992
0.6659
0.698716
0.743847
0.804895
0.881121
0.975423
1.09307
1.24438
1.44316
1.70451
2.04045
2.45277
2.92339
3.40558
3.82045
4.06058
4.00592
3.57706
2.85629
1.2268
0.430743
0.448501
0.465616
0.480372
0.490623
0.494683
0.492962
0.488542
0.483551
0.479146
0.472649
0.465208
0.462919
0.467064
0.479407
0.502038
0.53719
0.587068
0.648681
0.697458
0.720874
0.734449
0.755203
0.791746
0.846506
0.920697
1.01766
1.14429
1.31036
1.52654
1.80096
2.13359
2.50866
2.88755
3.20515
3.37339
3.29946
2.93975
2.38552
0.939616
0.431534
0.448807
0.466092
0.482102
0.494668
0.501627
0.502033
0.499014
0.495489
0.492611
0.488991
0.48562
0.487789
0.497045
0.515245
0.544269
0.585512
0.640008
0.703569
0.741407
0.744995
0.735681
0.734175
0.750411
0.78687
0.843739
0.922536
1.02746
1.16499
1.34233
1.56478
1.83127
2.12846
2.42467
2.66654
2.78245
2.70136
2.40338
1.97758
0.714379
0.431459
0.447743
0.464369
0.480585
0.494988
0.505685
0.510548
0.510851
0.510013
0.509195
0.508545
0.509705
0.516856
0.53191
0.556826
0.59304
0.640819
0.692738
0.730474
0.738867
0.720963
0.69651
0.682316
0.686566
0.711068
0.755357
0.819751
0.906523
1.01968
1.16385
1.34227
1.55344
1.78636
2.01553
2.19774
2.27524
2.19367
1.9472
1.61828
0.541931
0.430983
0.445939
0.461226
0.476653
0.491581
0.50496
0.515448
0.522231
0.526266
0.528941
0.531316
0.537014
0.548981
0.570343
0.602509
0.646412
0.690208
0.704124
0.705135
0.687314
0.656536
0.626718
0.609305
0.609661
0.628542
0.665025
0.718718
0.790635
0.883057
0.998781
1.13965
1.30407
1.4833
1.6573
1.79175
1.84056
1.76184
1.557
1.30099
0.412079
0.430484
0.444087
0.457644
0.471363
0.485242
0.499052
0.512368
0.52463
0.535359
0.544635
0.553425
0.564521
0.581618
0.607856
0.642406
0.670534
0.669993
0.655212
0.632982
0.602561
0.569438
0.542559
0.528736
0.530716
0.548289
0.580258
0.625882
0.685415
0.760019
0.851248
0.96004
1.08491
1.21918
1.34754
1.44337
1.47048
1.39637
1.2254
1.02533
0.315595
0.430059
0.442633
0.45451
0.466042
0.477553
0.489292
0.501409
0.513935
0.526835
0.540164
0.553934
0.568945
0.585836
0.604293
0.615332
0.608636
0.589562
0.564948
0.536633
0.506379
0.478955
0.459926
0.452877
0.458742
0.476733
0.505608
0.544525
0.593335
0.652507
0.722793
0.804553
0.896497
0.99365
1.08467
1.14951
1.16037
1.09202
0.949444
0.793491
0.24485
0.429382
0.44153
0.452248
0.461812
0.470563
0.47887
0.487085
0.495492
0.504249
0.513343
0.522397
0.530503
0.535917
0.53576
0.527876
0.51262
0.49181
0.467895
0.442693
0.418899
0.400201
0.389811
0.389299
0.398598
0.416725
0.442558
0.475293
0.514587
0.5605
0.613279
0.672913
0.738294
0.805782
0.8672
0.907887
0.907009
0.845209
0.726974
0.60629
0.193596
0.427707
0.440124
0.450508
0.458934
0.465576
0.470677
0.474504
0.477295
0.479181
0.480078
0.47955
0.476711
0.47038
0.459635
0.445632
0.42834
0.408669
0.387976
0.36809
0.3514
0.340309
0.336418
0.340164
0.351043
0.368107
0.390401
0.417202
0.448082
0.482863
0.521475
0.563683
0.608523
0.653337
0.692335
0.715063
0.706297
0.651389
0.553961
0.461184
0.156675
0.424027
0.437268
0.448124
0.456461
0.462235
0.46548
0.466278
0.464729
0.460895
0.45476
0.446203
0.435046
0.421277
0.405665
0.388507
0.370093
0.351222
0.333109
0.317327
0.305544
0.299083
0.298561
0.303853
0.314317
0.329113
0.347433
0.368628
0.392234
0.417934
0.445474
0.474486
0.504123
0.532426
0.555326
0.565484
0.551972
0.503836
0.423799
0.352503
0.129933
0.417366
0.431665
0.443494
0.452551
0.458614
0.461534
0.461231
0.45768
0.450911
0.441006
0.428133
0.412605
0.394974
0.376117
0.356436
0.33662
0.317629
0.300623
0.286813
0.277222
0.272458
0.272609
0.277306
0.285902
0.297657
0.311875
0.327962
0.345439
0.363916
0.383039
0.402374
0.421177
0.43798
0.449912
0.451843
0.435978
0.39414
0.328253
0.272998
0.110209
0.407099
0.422327
0.435194
0.445294
0.452279
0.455875
0.455885
0.452199
0.444803
0.433808
0.419476
0.40227
0.382882
0.362141
0.340826
0.319899
0.30044
0.283529
0.270085
0.260726
0.25568
0.254797
0.257636
0.263594
0.272021
0.282301
0.293884
0.306293
0.31911
0.331932
0.344307
0.355585
0.364645
0.369434
0.366343
0.349777
0.313571
0.258981
0.21546
0.0952406
0.393154
0.408904
0.422513
0.433513
0.441485
0.446077
0.447015
0.444121
0.437336
0.426742
0.412592
0.395336
0.375726
0.354588
0.332875
0.311658
0.292026
0.274959
0.261194
0.251147
0.244893
0.242218
0.242701
0.245812
0.250987
0.257679
0.265384
0.273642
0.28203
0.29014
0.297529
0.303631
0.307574
0.307864
0.301918
0.28566
0.254353
0.208717
0.173751
0.0835026
0.376031
0.391774
0.405633
0.417119
0.425781
0.431224
0.433131
0.431281
0.425577
0.416068
0.402979
0.386728
0.368059
0.347765
0.3268
0.306202
0.286985
0.270021
0.255934
0.245056
0.237432
0.232874
0.231032
0.231464
0.233692
0.237244
0.241665
0.246528
0.25143
0.255976
0.259753
0.26227
0.262836
0.260338
0.25289
0.237457
0.210321
0.171796
0.143146
0.0740048
0.356649
0.371875
0.385473
0.396963
0.40589
0.411851
0.414513
0.413638
0.409107
0.400946
0.389351
0.37476
0.357799
0.339181
0.319773
0.300508
0.28228
0.265849
0.251762
0.240317
0.231582
0.225427
0.22159
0.219722
0.219437
0.220335
0.222024
0.22412
0.226254
0.228062
0.229168
0.22915
0.22745
0.223223
0.215053
0.200633
0.176984
0.144137
0.120247
0.0661208
0.336101
0.350418
0.363341
0.37442
0.383224
0.389363
0.392512
0.392437
0.389016
0.382262
0.372335
0.359705
0.344818
0.328296
0.310886
0.293384
0.276553
0.261044
0.247338
0.235718
0.226282
0.218966
0.213589
0.209894
0.207579
0.206319
0.205785
0.205647
0.205577
0.205253
0.204344
0.202485
0.199224
0.193899
0.185428
0.172014
0.151234
0.122944
0.102709
0.0594565
0.315423
0.328592
0.340573
0.350961
0.359359
0.365408
0.36881
0.369344
0.366896
0.361478
0.353247
0.342581
0.329828
0.315503
0.300226
0.284658
0.269433
0.255101
0.242083
0.230648
0.220916
0.21288
0.206429
0.201383
0.197515
0.19457
0.192281
0.190371
0.188563
0.186576
0.184125
0.180901
0.176531
0.170489
0.161925
0.149416
0.130971
0.106352
0.0889487
0.0537604
0.295426
0.307356
0.318276
0.327827
0.335657
0.341446
0.344925
0.345898
0.344256
0.339992
0.333351
0.324502
0.313747
0.301509
0.288292
0.274632
0.261051
0.248008
0.235867
0.224879
0.215178
0.206795
0.199677
0.193705
0.188714
0.184511
0.180884
0.177608
0.174452
0.171181
0.167553
0.163307
0.158135
0.15161
0.143055
0.131322
0.114766
0.093114
0.0778987
0.0488662
0.276632
0.287346
0.297201
0.305883
0.313085
0.318525
0.321966
0.323236
0.322245
0.318997
0.313676
0.306394
0.297394
0.287014
0.275658
0.263759
0.25174
0.239982
0.228796
0.218411
0.208967
0.200519
0.193055
0.186502
0.180749
0.175651
0.171044
0.166749
0.162578
0.158337
0.153824
0.148821
0.14307
0.136223
0.127728
0.116651
0.101627
0.0823866
0.0688425
0.0446563
0.259281
0.268874
0.277735
0.285593
0.29218
0.297245
0.300579
0.302028
0.301506
0.299106
0.294861
0.288877
0.281352
0.272557
0.262813
0.252467
0.241861
0.231308
0.221073
0.211362
0.202309
0.193988
0.18641
0.179542
0.173309
0.167608
0.162316
0.157291
0.152383
0.147434
0.142276
0.136728
0.130574
0.123525
0.115126
0.104611
0.0908465
0.0735848
0.0612988
0.0410407
0.243392
0.251991
0.25997
0.267093
0.27312
0.277822
0.281013
0.282563
0.282409
0.280623
0.277213
0.272269
0.265949
0.25847
0.250086
0.241073
0.231707
0.222245
0.21291
0.203882
0.195291
0.187214
0.179684
0.172691
0.166191
0.160114
0.154367
0.148845
0.143426
0.137983
0.132379
0.12646
0.120047
0.112896
0.104629
0.0946131
0.0819096
0.0662941
0.0549466
0.0379444
0.228829
0.236573
0.243795
0.250292
0.255836
0.260209
0.263232
0.264788
0.264897
0.263548
0.260767
0.256635
0.251283
0.244883
0.237634
0.229755
0.221466
0.212975
0.204471
0.196109
0.188007
0.180247
0.17287
0.165886
0.159275
0.152991
0.14697
0.141131
0.135381
0.129617
0.123726
0.117581
0.11103
0.103866
0.0957711
0.0862198
0.0744364
0.0602161
0.0495727
0.0353015
0.215351
0.222377
0.228977
0.234968
0.240128
0.24422
0.247067
0.248579
0.248795
0.247715
0.24538
0.241868
0.237285
0.231768
0.22547
0.21856
0.211211
0.203591
0.195854
0.188132
0.180533
0.173134
0.165985
0.159109
0.152501
0.146138
0.139978
0.133962
0.128021
0.122072
0.116025
0.109772
0.103184
0.0960849
0.0882054
0.0791069
0.0681473
0.0551331
0.0450326
0.0330523
0.202611
0.209071
0.215197
0.22084
0.225753
0.229636
0.232282
0.233681
0.23387
0.232904
0.230851
0.227791
0.223811
0.219016
0.213519
0.207448
0.200934
0.194105
0.187087
0.179989
0.172905
0.165907
0.159047
0.152356
0.145844
0.139504
0.133311
0.127228
0.121205
0.115178
0.109076
0.102809
0.0962679
0.0893004
0.0816778
0.073032
0.0628289
0.0508781
0.04122
0.0311418
0.190059
0.196147
0.20201
0.207562
0.212492
0.216326
0.218795
0.219976
0.219998
0.218994
0.217069
0.214307
0.210782
0.206567
0.201743
0.196397
0.190624
0.184521
0.178181
0.171695
0.165139
0.158579
0.152065
0.145631
0.139298
0.133069
0.126935
0.120877
0.11486
0.10884
0.102762
0.0965548
0.0901251
0.0833437
0.0760146
0.067827
0.0583318
0.0473314
0.0380542
0.0295226
0.176599
0.18262
0.188595
0.194583
0.200143
0.204309
0.206706
0.20761
0.207351
0.206176
0.204241
0.201635
0.198417
0.194635
0.19034
0.185589
0.180444
0.174976
0.169253
0.163344
0.157311
0.15121
0.145085
0.138969
0.132887
0.12685
0.120859
0.114905
0.10897
0.103025
0.097029
0.090928
0.0846467
0.0780768
0.0710526
0.0633123
0.0544768
0.0443412
0.0354351
0.0281421
0.159662
0.166039
0.172804
0.180409
0.188345
0.193857
0.196526
0.197204
0.196633
0.195228
0.193193
0.190623
0.187564
0.184045
0.180097
0.175756
0.171064
0.166072
0.160831
0.155394
0.14981
0.144125
0.138378
0.132598
0.126808
0.121022
0.115246
0.109476
0.103702
0.097905
0.0920559
0.0861132
0.080017
0.0736784
0.0669594
0.0596397
0.0513938
0.0419972
0.0333915
0.0269896
0.131939
0.137904
0.145388
0.157025
0.175663
0.184623
0.188397
0.18944
0.188969
0.187589
0.18558
0.183061
0.180088
0.176691
0.172899
0.168742
0.164258
0.159488
0.154479
0.149275
0.143921
0.138457
0.132917
0.127329
0.121715
0.116089
0.110457
0.10482
0.0991691
0.0934903
0.0877598
0.0819432
0.0759903
0.0698265
0.0633373
0.0563433
0.0485832
0.0398596
0.0316315
0.0259401
)
;

boundaryField
{
    leftWall
    {
        type            kqRWallFunction;
        value           nonuniform 0();
    }
    rightWall
    {
        type            kqRWallFunction;
        value           nonuniform List<scalar> 
43
(
10.5885
10.2319
9.68856
9.00611
8.23654
7.42533
6.60776
5.80904
5.04562
4.32753
3.66064
3.04889
2.49584
2.00546
1.58168
1.2268
0.939616
0.714379
0.541931
0.412079
0.315595
0.24485
0.193596
0.156675
0.129933
0.110209
0.0952406
0.0835026
0.0740048
0.0661208
0.0594565
0.0537604
0.0488662
0.0446563
0.0410407
0.0379444
0.0353015
0.0330523
0.0311418
0.0295226
0.0281421
0.0269896
0.0259401
)
;
    }
    lowerWall
    {
        type            kqRWallFunction;
        value           nonuniform 0();
    }
    atmosphere
    {
        type            inletOutlet;
        inletValue      uniform 0.1;
        value           nonuniform List<scalar> 
45
(
0.1
0.1
0.1
0.1
0.1
0.1
0.1
0.1
0.1
0.175663
0.184623
0.188397
0.18944
0.188969
0.187589
0.18558
0.183061
0.180088
0.176691
0.172899
0.168742
0.164258
0.159488
0.154479
0.149275
0.143921
0.138457
0.132917
0.127329
0.121715
0.116089
0.110457
0.10482
0.0991691
0.0934903
0.0877598
0.0819432
0.0759903
0.0698265
0.0633373
0.0563433
0.0485832
0.0398596
0.0316315
0.0259401
)
;
    }
    defaultFaces
    {
        type            empty;
    }
    procBoundary3to1
    {
        type            processor;
        value           nonuniform List<scalar> 
45
(
0.365365
0.369637
0.372695
0.374661
0.375608
0.375638
0.374721
0.373062
0.370892
0.368451
0.365979
0.363705
0.361841
0.360565
0.359996
0.360164
0.360993
0.362289
0.363751
0.364994
0.365585
0.365096
0.36316
0.359535
0.354149
0.347116
0.338722
0.329404
0.319802
0.310914
0.304511
0.304498
0.317982
0.364644
0.499241
0.855675
1.67139
3.25027
5.96821
10.3684
17.2962
27.9767
34.3508
26.9406
10.7233
)
;
    }
    procBoundary3to2
    {
        type            processor;
        value           nonuniform List<scalar> 
43
(
0.352253
0.345306
0.339171
0.334082
0.330183
0.327528
0.326082
0.325736
0.326327
0.327658
0.329518
0.331701
0.334022
0.336323
0.338474
0.340367
0.341921
0.343001
0.343452
0.343083
0.341667
0.338953
0.334703
0.328736
0.320978
0.311495
0.300503
0.288349
0.275461
0.26228
0.249204
0.236542
0.224494
0.213157
0.202534
0.192555
0.183078
0.173881
0.164629
0.154807
0.143639
0.130042
0.11271
)
;
    }
}


// ************************************************************************* //
