/*--------------------------------*- C++ -*----------------------------------*\
| =========                 |                                                 |
| \\      /  F ield         | OpenFOAM: The Open Source CFD Toolbox           |
|  \\    /   O peration     | Version:  5.0                                   |
|   \\  /    A nd           | Web:      www.OpenFOAM.org                      |
|    \\/     M anipulation  |                                                 |
\*---------------------------------------------------------------------------*/
FoamFile
{
    version     2.0;
    format      ascii;
    class       volScalarField;
    location    "0.5";
    object      p_rgh;
}
// * * * * * * * * * * * * * * * * * * * * * * * * * * * * * * * * * * * * * //

dimensions      [1 -1 -2 0 0 0 0];

internalField   nonuniform List<scalar> 
1935
(
-0.289625
-0.314743
-0.341925
-0.370853
-0.401184
-0.432509
-0.464394
-0.496438
-0.528291
-0.559648
-0.590236
-0.619764
-0.647876
-0.674098
-0.697826
-0.718341
-0.734866
-0.746594
-0.752772
-0.75279
-0.746262
-0.733106
-0.713573
-0.688222
-0.657873
-0.623526
-0.586222
-0.546966
-0.506646
-0.46597
-0.425472
-0.385548
-0.346479
-0.308447
-0.27155
-0.235868
-0.201492
-0.168567
-0.137331
-0.108222
-0.0823197
-0.0608864
-0.0413237
-0.331419
-0.371901
-0.411545
-0.449619
-0.356727
-0.397284
-0.436853
-0.474648
-0.384204
-0.424928
-0.464492
-0.502
-0.413465
-0.454366
-0.49389
-0.53104
-0.444166
-0.48523
-0.52466
-0.561377
-0.475891
-0.517126
-0.556442
-0.592684
-0.508214
-0.549661
-0.588896
-0.624696
-0.540757
-0.582503
-0.621772
-0.657276
-0.57321
-0.615412
-0.654935
-0.690427
-0.605332
-0.648231
-0.688351
-0.724279
-0.63692
-0.680853
-0.722036
-0.759021
-0.667744
-0.713123
-0.755945
-0.794759
-0.697469
-0.744745
-0.789839
-0.831343
-0.725597
-0.775207
-0.823204
-0.868263
-0.751447
-0.803762
-0.855223
-0.904627
-0.774179
-0.82943
-0.884766
-0.939145
-0.792842
-0.851037
-0.910371
-0.97002
-0.806395
-0.867236
-0.930299
-0.995024
-0.813814
-0.876652
-0.942711
-1.01169
-0.814246
-0.878111
-0.94601
-1.01787
-0.807135
-0.870828
-0.939109
-1.01208
-0.79233
-0.85456
-0.921624
-0.993748
-0.770129
-0.829664
-0.893974
-0.963325
-0.741234
-0.797022
-0.857272
-0.922225
-0.706674
-0.757929
-0.813154
-0.872527
-0.667689
-0.713924
-0.763543
-0.816652
-0.625549
-0.666558
-0.710348
-0.756964
-0.581441
-0.617236
-0.655259
-0.6955
-0.536398
-0.56716
-0.599669
-0.633872
-0.491249
-0.51728
-0.544652
-0.573286
-0.446601
-0.468282
-0.490972
-0.51457
-0.402887
-0.420617
-0.439093
-0.458202
-0.360397
-0.374575
-0.389285
-0.404414
-0.319291
-0.330298
-0.341661
-0.353284
-0.279619
-0.28779
-0.296181
-0.304724
-0.241401
-0.247001
-0.252746
-0.258582
-0.204695
-0.207949
-0.211317
-0.214762
-0.169612
-0.170723
-0.17193
-0.173222
-0.136342
-0.135454
-0.134643
-0.13391
-0.105279
-0.102467
-0.0997071
-0.096983
-0.077613
-0.0731048
-0.068662
-0.0642542
-0.0547671
-0.0489468
-0.0432451
-0.0375505
-0.0326159
-0.0235622
-0.0134468
-0.00155694
-0.487479
-0.523358
-0.553583
-0.576971
-0.592684
-0.600248
-0.599444
-0.590233
-0.572823
-0.547719
-0.515692
-0.477803
-0.435299
-0.38969
-0.342573
-0.295028
-0.248101
-0.203166
-0.161558
-0.124372
-0.0924167
-0.065822
-0.0447264
-0.0296187
-0.0145729
0.0233758
0.0632879
-0.344499
1019.76
2285.1
2320.82
2323.43
2324.26
2302.26
981.517
-9.04975
-29.8571
-18.3228
-16.6098
-11.6134
-0.511891
-0.546671
-0.575331
-0.596684
-0.609875
-0.61441
-0.610129
-0.597099
-0.575599
-0.545977
-0.509175
-0.466382
-0.418794
-0.36838
-0.316452
-0.264368
-0.213603
-0.164637
-0.119371
-0.0793305
-0.0459949
-0.0196529
-0.000306347
0.0126771
0.034285
0.0872015
-0.0396891
203.049
1809.89
2380.19
2383.2
2384.22
2384.86
1997.23
342.758
-24.3318
-23.8658
-18.857
-18.4589
-15.8346
-0.538521
-0.572008
-0.598834
-0.61783
-0.628108
-0.629198
-0.620969
-0.603699
-0.577728
-0.541652
-0.499857
-0.451956
-0.399918
-0.345846
-0.28925
-0.23263
-0.176921
-0.12332
-0.0736589
-0.030256
0.00515908
0.0355168
0.0548448
0.0672563
0.0970837
0.112671
-0.433234
1053.48
2389.1
2443.99
2446.61
2447.83
2438.13
1173.8
3.11708
-26.6632
-20.6919
-18.7105
-18.6238
-17.8154
-0.566751
-0.598806
-0.623555
-0.639748
-0.646781
-0.643956
-0.631237
-0.609167
-0.578831
-0.539556
-0.492216
-0.439807
-0.382088
-0.321382
-0.259844
-0.198927
-0.138538
-0.0798057
-0.0247579
0.022742
0.113469
0.151721
0.151414
0.163815
0.196355
-0.0162345
629.686
2252.87
2505.87
2509.37
2511.14
2515.67
1927.3
251.908
-23.6916
-23.549
-20.5549
-19.6259
-19.0527
-18.8137
-0.596177
-0.626665
-0.64887
-0.662217
-0.66568
-0.658284
-0.640568
-0.609198
-0.527265
-0.493094
-0.466455
-0.425114
-0.361854
-0.295891
-0.229447
-0.164295
-0.0997328
-0.034873
0.0292176
0.142302
0.196736
0.23636
0.256951
0.166173
-0.121663
567.841
2219.92
2569.61
2573.42
2575.61
2579.57
2315.06
654.334
-20.0152
-21.8542
-20.0158
-19.9599
-19.3254
-18.861
-18.9485
-0.626513
-0.655091
-0.675062
-0.68547
-0.685002
-0.672696
-0.649649
-0.445142
-0.0735159
-0.177249
-0.458799
-0.407956
-0.339834
-0.268262
-0.197323
-0.130093
-0.062695
0.0111601
0.105252
0.193897
0.251466
0.260468
0.127564
25.5777
861.073
2419.75
2635.13
2639.3
2642.13
2646.48
2484.61
961.541
-10.9124
-17.7806
-17.3014
-18.1898
-18.6884
-18.0864
-17.9464
-18.2754
-0.657592
-0.684375
-0.702254
-0.709885
-0.705747
-0.688655
-0.262981
-0.104073
-0.062244
-0.235706
-0.457601
-0.392832
-0.318509
-0.239627
-0.152822
-0.0815231
-0.0161807
0.0503696
0.14657
0.189874
0.135583
5.65409
310.153
1681.45
2687.76
2701.28
2706.23
2711.39
2717.57
2488.55
949.182
-6.9906
-14.1379
-14.2905
-15.4216
-17.3785
-17.3069
-16.8016
-16.7937
-17.1698
-0.689425
-0.71477
-0.730976
-0.736126
-0.730126
-0.286923
0.0943469
-0.101464
-0.539469
-0.527686
-0.458074
-0.382873
-0.299431
-0.198736
-0.107345
-0.0487435
0.00619741
0.0546219
0.0900041
44.9907
304.341
1411.88
2691.68
2756.98
2760.11
2775.57
2783.46
2784.04
2179.79
491.239
-10.9644
-10.1393
-10.7547
-12.5399
-15.56
-16.2947
-15.9726
-15.6027
-15.5696
-15.9008
-0.722198
-0.746499
-0.761437
-0.765037
-0.758249
0.351024
0.100136
-0.632606
-0.597785
-0.535862
-0.461682
-0.378291
-0.283926
-0.169209
-0.0749484
-0.0234436
0.0213208
0.0328303
345.907
1651.39
2795.41
2820.48
2822.3
2835.89
2841.61
2847.76
2558.44
1184.31
10.2611
-10.4214
-10.2428
-10.3527
-9.40656
-13.3522
-15.1649
-15.092
-14.7334
-14.4067
-14.2707
-14.5379
-0.756264
-0.780367
-0.794772
-0.798071
-0.790313
0.382718
0.0182937
-0.649831
-0.615484
-0.551468
-0.472438
-0.386201
-0.29034
-0.147168
-0.0180852
-0.0145571
-0.244286
765.548
2654.08
2878.26
2870.76
2900.22
2905.95
2920.91
2693.93
1520
72.0689
-10.0011
-10.2571
-9.86641
-10.6845
-11.8117
-12.3322
-13.78
-14.0862
-13.8533
-13.511
-13.1631
-12.9119
-13.1171
-0.792037
-0.81722
-0.832731
-0.8374
-0.830038
0.382034
-0.0432061
-0.673936
-0.636315
-0.582778
-0.504722
-0.424749
-0.363663
-0.155769
5.72155
0.142912
88.0598
1938.59
2958.43
2965.91
2971.31
2983.04
2888.53
1958.3
225.473
-8.50221
-8.92415
-9.30957
-9.75728
-10.2253
-10.7794
-11.3733
-12.0805
-12.6324
-12.7313
-12.5592
-12.25
-11.8649
-11.5277
-11.6992
-0.8299
-0.857645
-0.876268
-0.884618
-0.88052
0.810129
0.473386
-0.674859
-0.691822
-0.638026
-0.539576
-0.450675
-0.399026
327.06
1182.06
1059.96
792.577
1183.04
1719.97
2281.44
2424.15
2173.95
828.681
-7.06941
-7.70519
-7.99581
-8.37938
-8.85421
-9.31941
-9.7763
-10.2341
-10.6922
-11.1452
-11.432
-11.4705
-11.302
-10.9738
-10.5519
-10.1672
-10.3491
-0.869883
-0.901849
-0.924542
-0.939821
-0.941259
0.796481
1.90764
-0.126386
-0.773832
-0.728674
-0.573983
-0.525409
316.349
2097.57
2456.21
2448.21
1745.84
61.7126
-9.8082
39.9933
57.7061
19.0517
-6.68432
-6.8376
-7.17176
-7.59302
-7.99548
-8.41142
-8.82376
-9.22155
-9.59833
-9.93899
-10.2199
-10.3637
-10.3207
-10.0929
-9.72369
-9.27485
-8.88908
-9.11958
-0.911352
-0.949537
-0.978571
-1.00155
-1.01143
0.654275
1.85571
1.11174
-0.847402
-0.939251
-0.707158
132.902
2043.37
2515.44
2510.62
2503.82
1628.38
43.3657
-7.33342
-6.20536
-5.89774
-5.93823
-6.18313
-6.5279
-6.86302
-7.21536
-7.56729
-7.92769
-8.28043
-8.61303
-8.91002
-9.15011
-9.30516
-9.33035
-9.19415
-8.90474
-8.5105
-8.06938
-7.74217
-8.03975
-0.95338
-0.999263
-1.03644
-1.06843
-1.09332
-0.886055
1.67116
2.0289
-0.466252
-1.1729
-1.21633
519.59
2484.15
2571.96
2565.08
2560.28
1562.69
29.3524
-5.77759
-5.54473
-5.5724
-5.73011
-5.96405
-6.23351
-6.51006
-6.80061
-7.09975
-7.40179
-7.68894
-7.94884
-8.16175
-8.30487
-8.35226
-8.27618
-8.06411
-7.73715
-7.34991
-6.96368
-6.75008
-7.10721
-0.994524
-1.04914
-1.09735
-1.14149
-1.18449
-1.21867
-0.462296
5.21274
1.16466
-1.37162
-1.49523
711.012
2583.65
2627.79
2622.25
2621.23
1513.23
19.7899
-4.88172
-5.06143
-5.24389
-5.42922
-5.63809
-5.86064
-6.09747
-6.34253
-6.59045
-6.82905
-7.04763
-7.23021
-7.35757
-7.40902
-7.36468
-7.21027
-6.94883
-6.61379
-6.2676
-5.97772
-5.90466
-6.29228
-1.03257
-1.09689
-1.15883
-1.21686
-1.27959
-1.33188
-0.161974
5.23299
4.66958
-0.921948
-1.73185
819.069
2673.42
2685.46
2682.63
2686.07
922.758
-4.07977
-4.36616
-4.63642
-4.85069
-5.04589
-5.2422
-5.44247
-5.6449
-5.84667
-6.0401
-6.21712
-6.36587
-6.47164
-6.51777
-6.48811
-6.37044
-6.16199
-5.87833
-5.56345
-5.28597
-5.11395
-5.17188
-5.55305
-1.06467
-1.13863
-1.21299
-1.28616
-1.36716
-1.44652
-0.64635
5.21168
5.11777
0.478743
-2.13825
450.072
2557.15
2749.82
2749.42
1958.17
191.138
-3.82576
-4.07944
-4.29157
-4.48006
-4.65896
-4.83335
-5.00413
-5.16968
-5.32563
-5.46598
-5.58211
-5.66333
-5.69731
-5.67136
-5.57506
-5.40405
-5.16523
-4.88384
-4.61097
-4.41654
-4.359
-4.51037
-4.85365
-1.08745
-1.16999
-1.25536
-1.34036
-1.42971
-1.53939
-1.63989
0.724359
4.47296
0.025432
-2.31118
48.9857
1321.06
2436.08
1734.25
228.209
-3.6486
-3.68693
-3.85094
-4.00592
-4.15193
-4.29482
-4.43413
-4.56753
-4.69123
-4.80024
-4.88773
-4.94561
-4.96484
-4.9361
-4.85116
-4.70538
-4.50138
-4.25345
-3.99306
-3.77373
-3.6607
-3.69416
-3.8913
-4.17779
-1.09801
-1.18696
-1.28074
-1.37576
-1.47415
-1.58872
-1.71469
-1.86583
-2.02302
-1.41761
-2.22821
-1.77311
0.367377
14.9887
-4.32907
-3.53553
-3.45017
-3.56037
-3.66313
-3.75787
-3.85522
-3.9552
-4.05347
-4.14511
-4.22491
-4.28674
-4.32379
-4.32893
-4.29516
-4.21626
-4.08814
-3.91112
-3.69306
-3.45296
-3.22476
-3.05967
-3.01347
-3.10526
-3.30711
-3.53114
-1.09434
-1.18686
-1.28566
-1.39096
-1.50137
-1.62097
-1.75525
-1.89693
-2.05826
-2.24436
-2.29199
-2.70949
-2.9701
-3.20527
-3.32254
-3.41583
-3.41473
-3.439
-3.47385
-3.51852
-3.57277
-3.63188
-3.68972
-3.74034
-3.77773
-3.79572
-3.78819
-3.74945
-3.6746
-3.56023
-3.40558
-3.21452
-2.99814
-2.77739
-2.58529
-2.46711
-2.46679
-2.5857
-2.76678
-2.93281
-1.07561
-1.16848
-1.26848
-1.37613
-1.49197
-1.61663
-1.74925
-1.89349
-2.05285
-2.22569
-2.41927
-2.6216
-2.84294
-3.03671
-3.18389
-3.23966
-3.24407
-3.24371
-3.2496
-3.26484
-3.28776
-3.31361
-3.3367
-3.35134
-3.35197
-3.33324
-3.29029
-3.21901
-3.11647
-2.98146
-2.81559
-2.62484
-2.42157
-2.22634
-2.06883
-1.98642
-2.01141
-2.13395
-2.28428
-2.40257
-1.0423
-1.1323
-1.22958
-1.33457
-1.44768
-1.56922
-1.69949
-1.83883
-1.98698
-2.14495
-2.31217
-2.48426
-2.65336
-2.80119
-2.9088
-2.96339
-2.98132
-2.98465
-2.98492
-2.98694
-2.99058
-2.99285
-2.98959
-2.97637
-2.94889
-2.90312
-2.83565
-2.74391
-2.62654
-2.48396
-2.3192
-2.13914
-1.95593
-1.7881
-1.66065
-1.60286
-1.63729
-1.74918
-1.86894
-1.95158
-0.99619
-1.08053
-1.17166
-1.26991
-1.37544
-1.48829
-1.60829
-1.73509
-1.86796
-2.00556
-2.14588
-2.28505
-2.4158
-2.52696
-2.60857
-2.65803
-2.68221
-2.69132
-2.69257
-2.68951
-2.68249
-2.66987
-2.64903
-2.61705
-2.57105
-2.50842
-2.42707
-2.32574
-2.20426
-2.06413
-1.90908
-1.74601
-1.58591
-1.44446
-1.34166
-1.29954
-1.33347
-1.42822
-1.52195
-1.58002
-0.939962
-1.01665
-1.09923
-1.18786
-1.2825
-1.3829
-1.48859
-1.59877
-1.71227
-1.8274
-1.94182
-2.05205
-2.15296
-2.23855
-2.30384
-2.34796
-2.37411
-2.38691
-2.38998
-2.38515
-2.37267
-2.35169
-2.32075
-2.27814
-2.2222
-2.1515
-2.06506
-1.96258
-1.84478
-1.71374
-1.5734
-1.43013
-1.29332
-1.17564
-1.09244
-1.05991
-1.08851
-1.16482
-1.23785
-1.27996
-0.876703
-0.944659
-1.01742
-1.09499
-1.17719
-1.26358
-1.35355
-1.44616
-1.54016
-1.63394
-1.72543
-1.81199
-1.89037
-1.95744
-2.0108
-2.04981
-2.07555
-2.0897
-2.09362
-2.08801
-2.07292
-2.04792
-2.01227
-1.96513
-1.90572
-1.83346
-1.74817
-1.65027
-1.54099
-1.42269
-1.29916
-1.17598
-1.06088
-0.96372
-0.895995
-0.869419
-0.891295
-0.950829
-1.00781
-1.03986
-0.80938
-0.868321
-0.930989
-0.997302
-1.06697
-1.13953
-1.21434
-1.29054
-1.36703
-1.44246
-1.51522
-1.58345
-1.64518
-1.69864
-1.7425
-1.77608
-1.79934
-1.81254
-1.81588
-1.80943
-1.79308
-1.7666
-1.72967
-1.68198
-1.62333
-1.5537
-1.47346
-1.38343
-1.28514
-1.18096
-1.07434
-0.970022
-0.874157
-0.794284
-0.738858
-0.716329
-0.731999
-0.777627
-0.822283
-0.848007
-0.740481
-0.790704
-0.843703
-0.899346
-0.957333
-1.01724
-1.07849
-1.1404
-1.20208
-1.26251
-1.32049
-1.37472
-1.42397
-1.46709
-1.50303
-1.53105
-1.55064
-1.56145
-1.56322
-1.55574
-1.5388
-1.51227
-1.47606
-1.43017
-1.37474
-1.31012
-1.23695
-1.1563
-1.06978
-0.979637
-0.888882
-0.801419
-0.722093
-0.656588
-0.611081
-0.591703
-0.602466
-0.637264
-0.672549
-0.6942
-0.671882
-0.714026
-0.758179
-0.804175
-0.851759
-0.900581
-0.950206
-1.0001
-1.04959
-1.09792
-1.14421
-1.18756
-1.22708
-1.26185
-1.29098
-1.31369
-1.32931
-1.33729
-1.33721
-1.32876
-1.31174
-1.28604
-1.25172
-1.20893
-1.15802
-1.09952
-1.03423
-0.963319
-0.888328
-0.811291
-0.734778
-0.661955
-0.596592
-0.542958
-0.505575
-0.488947
-0.496223
-0.522947
-0.551189
-0.570127
-0.604925
-0.639779
-0.676052
-0.713584
-0.75216
-0.791526
-0.831372
-0.871301
-0.910821
-0.949352
-0.986248
-1.02085
-1.05244
-1.08024
-1.10345
-1.12134
-1.13322
-1.1385
-1.13675
-1.12764
-1.11099
-1.08675
-1.05501
-1.01602
-0.970211
-0.918219
-0.860904
-0.799399
-0.735144
-0.669916
-0.605862
-0.545523
-0.491823
-0.447978
-0.417327
-0.403233
-0.408249
-0.429136
-0.452161
-0.469219
-0.540491
-0.568875
-0.598241
-0.628461
-0.659365
-0.690776
-0.722476
-0.754169
-0.785482
-0.81598
-0.8452
-0.872603
-0.897584
-0.919473
-0.937586
-0.95125
-0.959837
-0.962808
-0.959744
-0.950363
-0.934503
-0.912133
-0.88337
-0.848495
-0.807974
-0.76246
-0.712803
-0.660061
-0.605518
-0.550696
-0.497367
-0.44756
-0.403551
-0.36778
-0.342746
-0.331014
-0.334704
-0.351465
-0.37067
-0.386356
-0.479072
-0.501785
-0.525164
-0.549118
-0.573528
-0.598275
-0.623198
-0.648069
-0.672592
-0.696414
-0.719305
-0.740724
-0.760169
-0.777081
-0.790872
-0.800958
-0.806793
-0.807906
-0.803935
-0.794633
-0.779865
-0.759616
-0.734007
-0.703319
-0.66801
-0.628708
-0.5862
-0.541437
-0.495529
-0.44976
-0.405581
-0.364617
-0.328647
-0.299551
-0.27923
-0.269683
-0.272706
-0.286597
-0.303013
-0.317607
-0.420862
-0.438656
-0.456886
-0.475498
-0.49442
-0.513576
-0.53285
-0.552065
-0.571001
-0.589432
-0.606969
-0.623385
-0.638224
-0.651002
-0.661214
-0.668361
-0.671982
-0.671687
-0.667172
-0.65823
-0.64475
-0.626728
-0.604284
-0.577685
-0.547353
-0.513857
-0.477896
-0.440288
-0.401976
-0.364026
-0.327627
-0.294083
-0.264801
-0.241247
-0.224898
-0.217347
-0.220141
-0.232045
-0.246397
-0.260018
-0.36586
-0.379405
-0.393231
-0.407313
-0.421615
-0.436091
-0.450662
-0.465191
-0.479501
-0.493412
-0.506683
-0.519035
-0.530121
-0.53954
-0.546864
-0.551673
-0.55359
-0.552299
-0.547554
-0.539183
-0.527099
-0.511308
-0.491928
-0.469203
-0.443509
-0.415334
-0.385273
-0.354011
-0.322329
-0.291109
-0.26132
-0.234018
-0.210323
-0.191398
-0.178411
-0.172658
-0.175487
-0.186002
-0.198768
-0.211426
-0.313927
-0.323812
-0.333889
-0.344159
-0.354609
-0.365211
-0.375911
-0.386614
-0.397191
-0.407484
-0.417301
-0.426401
-0.434501
-0.441269
-0.446346
-0.44938
-0.450064
-0.448149
-0.443438
-0.435795
-0.425154
-0.411532
-0.395047
-0.375917
-0.35446
-0.331082
-0.306268
-0.280578
-0.254652
-0.229209
-0.205042
-0.183006
-0.164001
-0.14896
-0.138823
-0.134665
-0.137663
-0.147165
-0.158638
-0.170287
-0.264865
-0.271616
-0.278517
-0.285594
-0.292862
-0.300309
-0.307891
-0.315539
-0.323166
-0.330634
-0.337766
-0.344364
-0.35019
-0.354964
-0.358385
-0.36016
-0.360042
-0.357833
-0.353382
-0.346584
-0.337397
-0.325852
-0.312062
-0.296216
-0.278576
-0.259465
-0.239268
-0.218433
-0.197477
-0.176984
-0.1576
-0.140016
-0.12496
-0.113185
-0.10546
-0.10268
-0.105878
-0.114581
-0.124925
-0.135503
-0.218507
-0.222557
-0.22674
-0.231117
-0.235762
-0.24069
-0.245851
-0.251177
-0.256585
-0.261955
-0.26713
-0.27193
-0.276145
-0.279531
-0.281834
-0.282815
-0.282277
-0.280066
-0.276069
-0.270213
-0.262479
-0.252911
-0.241613
-0.228744
-0.21451
-0.19916
-0.182994
-0.166363
-0.149683
-0.133423
-0.118105
-0.104287
-0.092553
-0.0835144
-0.0778044
-0.0761751
-0.0795247
-0.0875185
-0.0968186
-0.106277
-0.174693
-0.176319
-0.178054
-0.180041
-0.182517
-0.185535
-0.188968
-0.192702
-0.196632
-0.200628
-0.204544
-0.208206
-0.211415
-0.213959
-0.215626
-0.216227
-0.21561
-0.213659
-0.210294
-0.205471
-0.199192
-0.191506
-0.182509
-0.172328
-0.16112
-0.14907
-0.136406
-0.123404
-0.11039
-0.0977407
-0.0858705
-0.0752222
-0.0662636
-0.0594873
-0.0554155
-0.0546807
-0.0580632
-0.0653435
-0.0736259
-0.0819355
-0.133203
-0.132435
-0.131684
-0.131299
-0.13197
-0.133794
-0.136334
-0.139305
-0.14254
-0.1459
-0.149232
-0.152367
-0.155121
-0.157313
-0.158777
-0.159371
-0.158983
-0.15753
-0.154962
-0.151259
-0.146439
-0.140555
-0.133688
-0.125937
-0.117416
-0.108259
-0.0986374
-0.0887625
-0.0788892
-0.0693103
-0.0603485
-0.0523484
-0.0456767
-0.0407271
-0.0379283
-0.0378118
-0.041057
-0.0475496
-0.0547932
-0.0619259
-0.0940847
-0.0907421
-0.0870348
-0.083684
-0.0827411
-0.0843351
-0.0872098
-0.0904259
-0.0938027
-0.097242
-0.100609
-0.103754
-0.106524
-0.108781
-0.110407
-0.111305
-0.111403
-0.110648
-0.109015
-0.106505
-0.103149
-0.0989963
-0.0941128
-0.0885706
-0.0824486
-0.0758415
-0.0688718
-0.0616974
-0.0545092
-0.0475261
-0.0409887
-0.0351545
-0.0303014
-0.0267354
-0.0248028
-0.0249489
-0.0277766
-0.0332908
-0.0394034
-0.0453425
-0.0595333
-0.0537029
-0.0457299
-0.0362566
-0.0332591
-0.036248
-0.0413987
-0.0458061
-0.0500446
-0.0541822
-0.0580973
-0.06168
-0.0648349
-0.0674788
-0.0695465
-0.0709891
-0.0717706
-0.0718702
-0.0712862
-0.0700374
-0.0681597
-0.0656974
-0.0626982
-0.0592105
-0.0552856
-0.050985
-0.0463918
-0.0416153
-0.0367893
-0.0320662
-0.0276123
-0.0236075
-0.0202491
-0.0177618
-0.0164107
-0.0165542
-0.0187169
-0.0230155
-0.027774
-0.0323251
-0.0311116
-0.0222695
-0.00485454
0.0243696
0.029072
0.0130561
0.00649013
0.000811368
-0.00530709
-0.0113781
-0.0170184
-0.0220856
-0.0265384
-0.0303659
-0.0335708
-0.0361623
-0.0381516
-0.0395535
-0.0403894
-0.0406897
-0.0404905
-0.0398261
-0.0387263
-0.0372176
-0.0353262
-0.0330843
-0.0305373
-0.0277468
-0.0247905
-0.0217577
-0.0187472
-0.0158692
-0.0132504
-0.011045
-0.00945073
-0.00876369
-0.00948713
-0.0119645
-0.0152036
-0.0187714
0.014276
0.039992
0.0887049
0.169718
0.185694
0.135063
0.0956879
0.0721124
0.0555777
0.042371
0.0314914
0.0224101
0.0147049
0.00807037
0.00229515
-0.00276953
-0.0072295
-0.0111624
-0.0146297
-0.0176794
-0.0203462
-0.022653
-0.0246125
-0.0262293
-0.0275022
-0.0284277
-0.0290034
-0.029231
-0.0291165
-0.0286707
-0.0279101
-0.0268599
-0.0255591
-0.0240688
-0.0224799
-0.0209399
-0.0197039
-0.0188712
-0.0175543
-0.0157236
)
;

boundaryField
{
    leftWall
    {
        type            fixedFluxPressure;
        gradient        nonuniform 0();
        value           nonuniform 0();
    }
    rightWall
    {
        type            fixedFluxPressure;
        gradient        uniform 0;
        value           nonuniform List<scalar> 
43
(
-11.6134
-15.8346
-17.8154
-18.8137
-18.9485
-18.2754
-17.1698
-15.9008
-14.5379
-13.1171
-11.6992
-10.3491
-9.11958
-8.03975
-7.10721
-6.29228
-5.55305
-4.85365
-4.17779
-3.53114
-2.93281
-2.40257
-1.95158
-1.58002
-1.27996
-1.03986
-0.848007
-0.6942
-0.570127
-0.469219
-0.386356
-0.317607
-0.260018
-0.211426
-0.170287
-0.135503
-0.106277
-0.0819355
-0.0619259
-0.0453425
-0.0323251
-0.0187714
-0.0157236
)
;
    }
    lowerWall
    {
        type            fixedFluxPressure;
        gradient        nonuniform 0();
        value           nonuniform 0();
    }
    atmosphere
    {
        type            totalPressure;
        rho             rho;
        psi             none;
        gamma           1;
        p0              uniform 0;
        value           nonuniform List<scalar> 
45
(
-0.0380676
-0.0306809
-0.0239156
-0.0176835
-0.0121411
-0.0072403
-0.00340626
-0.00116826
-0.000401506
0
0
0
0
0
0
0
0
0
0
0
0
0
0
0
0
0
0
0
0
0
0
0
0
0
0
0
0
0
0
0
0
0
0
0
0
)
;
    }
    defaultFaces
    {
        type            empty;
    }
    procBoundary3to1
    {
        type            processor;
        value           nonuniform List<scalar> 
45
(
-0.266813
-0.308598
-0.349173
-0.389015
-0.427406
-0.465779
-0.502537
-0.534053
-0.559197
-0.577131
-0.587356
-0.589599
-0.583763
-0.570033
-0.548945
-0.521283
-0.487996
-0.450246
-0.409359
-0.366631
-0.323239
-0.280317
-0.239012
-0.200506
-0.165745
-0.135188
-0.108931
-0.0869766
-0.0700424
-0.0568511
-0.0333465
0.00876718
-0.277492
480.096
2048.61
2258.94
2262.84
2264.41
2272.02
1588.38
94.8612
-30.9912
-10.3524
-9.13716
-3.8181
)
;
    }
    procBoundary3to2
    {
        type            processor;
        value           nonuniform List<scalar> 
43
(
-0.247313
-0.272182
-0.29898
-0.327446
-0.357253
-0.388004
-0.419282
-0.450681
-0.48183
-0.51238
-0.542001
-0.570368
-0.597113
-0.621793
-0.643876
-0.662757
-0.677806
-0.688396
-0.693957
-0.694052
-0.688432
-0.677065
-0.660152
-0.638147
-0.611716
-0.581654
-0.548821
-0.514058
-0.478121
-0.441617
-0.405015
-0.368685
-0.332894
-0.297818
-0.263606
-0.230402
-0.198341
-0.167591
-0.138427
-0.111317
-0.0872397
-0.0673464
-0.0499049
)
;
    }
}


// ************************************************************************* //
