/*--------------------------------*- C++ -*----------------------------------*\
| =========                 |                                                 |
| \\      /  F ield         | OpenFOAM: The Open Source CFD Toolbox           |
|  \\    /   O peration     | Version:  5.0                                   |
|   \\  /    A nd           | Web:      www.OpenFOAM.org                      |
|    \\/     M anipulation  |                                                 |
\*---------------------------------------------------------------------------*/
FoamFile
{
    version     2.0;
    format      ascii;
    class       surfaceScalarField;
    location    "0.5";
    object      phi;
}
// * * * * * * * * * * * * * * * * * * * * * * * * * * * * * * * * * * * * * //

dimensions      [0 3 -1 0 0 0 0];

internalField   nonuniform List<scalar> 
3782
(
-6.10749e-05
7.86459e-05
-6.43631e-05
7.41586e-05
-6.74569e-05
6.95013e-05
-7.03349e-05
6.46702e-05
-7.29822e-05
5.96708e-05
-7.53929e-05
5.4519e-05
-7.75704e-05
4.92395e-05
-7.9527e-05
4.3862e-05
-8.12817e-05
3.84158e-05
-8.28567e-05
3.29237e-05
-8.42722e-05
2.73973e-05
-8.55411e-05
2.18339e-05
-8.66632e-05
1.62168e-05
-8.76212e-05
1.05196e-05
-8.83781e-05
4.71325e-06
-8.88773e-05
-1.22465e-06
-8.90459e-05
-7.29752e-06
-8.88023e-05
-1.34765e-05
-8.80691e-05
-1.96896e-05
-8.67877e-05
-2.58189e-05
-8.4931e-05
-3.17085e-05
-8.25116e-05
-3.71844e-05
-7.95818e-05
-4.20773e-05
-7.62283e-05
-4.62454e-05
-7.25617e-05
-4.95913e-05
-6.87029e-05
-5.20718e-05
-6.47706e-05
-5.36964e-05
-6.08704e-05
-5.45191e-05
-5.70873e-05
-5.46236e-05
-5.34832e-05
-5.41071e-05
-5.00968e-05
-5.30653e-05
-4.69465e-05
-5.15815e-05
-4.4035e-05
-4.97196e-05
-4.13532e-05
-4.75226e-05
-3.8884e-05
-4.50116e-05
-3.66051e-05
-4.21861e-05
-3.44907e-05
-3.90225e-05
-3.25152e-05
-3.54655e-05
-3.06589e-05
-3.14138e-05
-2.89238e-05
-2.66961e-05
-2.73641e-05
-2.10427e-05
-2.61335e-05
-1.40885e-05
-5.42556e-06
8.18245e-05
-5.66726e-05
8.48748e-05
-5.52787e-05
8.77515e-05
-5.35002e-05
-5.13311e-05
9.04105e-05
7.71672e-05
-5.96811e-05
8.00334e-05
-5.81449e-05
8.271e-05
-5.61768e-05
-5.37713e-05
8.51501e-05
7.23137e-05
-6.24935e-05
7.49689e-05
-6.08002e-05
7.74171e-05
-5.8625e-05
-5.59633e-05
7.96092e-05
6.72666e-05
-6.50899e-05
6.96918e-05
-6.32254e-05
7.18933e-05
-6.08265e-05
-5.78894e-05
7.38194e-05
6.204e-05
-6.74591e-05
6.42269e-05
-6.54123e-05
6.61765e-05
-6.27761e-05
-5.95477e-05
6.78347e-05
5.66602e-05
-6.96003e-05
5.86137e-05
-6.73658e-05
6.03225e-05
-6.44848e-05
-6.09554e-05
6.17302e-05
5.11635e-05
-7.15243e-05
5.29028e-05
-6.91052e-05
5.43992e-05
-6.59812e-05
-6.21509e-05
5.55947e-05
4.55903e-05
-7.32526e-05
4.71481e-05
-7.0663e-05
4.84774e-05
-6.73105e-05
-6.31925e-05
4.9519e-05
3.99781e-05
-7.4815e-05
4.13975e-05
-7.20824e-05
4.26182e-05
-6.85312e-05
-6.41553e-05
4.3581e-05
3.43536e-05
-7.62449e-05
3.56834e-05
-7.34122e-05
3.68617e-05
-6.97095e-05
-6.5125e-05
3.78314e-05
2.87265e-05
-7.75741e-05
3.00135e-05
-7.46992e-05
3.12148e-05
-7.09108e-05
-6.61889e-05
3.22787e-05
2.30848e-05
-7.88249e-05
2.43651e-05
-7.59795e-05
2.56431e-05
-7.21888e-05
-6.74221e-05
2.68763e-05
1.7396e-05
-8.00041e-05
1.86858e-05
-7.72693e-05
2.007e-05
-7.35731e-05
-6.8872e-05
2.15199e-05
1.16121e-05
-8.10966e-05
1.29004e-05
-7.85576e-05
1.4387e-05
-7.50597e-05
-7.05457e-05
1.60607e-05
5.67916e-06
-8.20625e-05
6.92288e-06
-7.98013e-05
8.46885e-06
-7.66057e-05
-7.24041e-05
1.03272e-05
-4.5125e-07
-8.28359e-05
6.70529e-07
-8.09231e-05
2.1896e-06
-7.81248e-05
-7.43564e-05
4.14198e-06
-6.80637e-06
-8.33271e-05
-5.9179e-06
-8.18115e-05
-4.55907e-06
-7.94836e-05
-7.62504e-05
-2.66511e-06
-1.3373e-05
-8.34306e-05
-1.28556e-05
-8.23289e-05
-1.18314e-05
-8.05078e-05
-7.7872e-05
-1.02098e-05
-2.00789e-05
-8.30413e-05
-2.00769e-05
-8.23309e-05
-1.95794e-05
-8.10053e-05
-7.89721e-05
-1.84792e-05
-2.67865e-05
-8.20736e-05
-2.74234e-05
-8.1694e-05
-2.7625e-05
-8.08037e-05
-7.93171e-05
-2.728e-05
-3.33025e-05
-8.04796e-05
-3.46563e-05
-8.03403e-05
-3.56746e-05
-7.97854e-05
-7.87379e-05
-3.62539e-05
-3.94049e-05
-7.82592e-05
-4.14923e-05
-7.82529e-05
-4.33679e-05
-7.79097e-05
-7.71612e-05
-4.49446e-05
-4.48746e-05
-7.54619e-05
-4.76482e-05
-7.54793e-05
-5.03387e-05
-7.52192e-05
-7.46198e-05
-5.28801e-05
-4.95269e-05
-7.21803e-05
-5.28829e-05
-7.21234e-05
-5.62723e-05
-7.18298e-05
-7.12424e-05
-5.96497e-05
-5.32346e-05
-6.85369e-05
-5.70295e-05
-6.83285e-05
-6.095e-05
-6.79093e-05
-6.72261e-05
-6.49664e-05
-5.59405e-05
-6.46682e-05
-6.00129e-05
-6.42562e-05
-6.42727e-05
-6.36495e-05
-6.27984e-05
-6.87003e-05
-5.76566e-05
-6.0708e-05
-6.18474e-05
-6.00654e-05
-6.62581e-05
-5.92387e-05
-5.81824e-05
-7.08741e-05
-5.84519e-05
-5.67752e-05
-6.26209e-05
-5.58964e-05
-6.70179e-05
-5.48417e-05
-5.35707e-05
-7.16296e-05
-5.84338e-05
-5.29651e-05
-6.24694e-05
-5.18607e-05
-6.67232e-05
-5.0588e-05
-4.91122e-05
-7.11817e-05
-5.77261e-05
-4.93461e-05
-6.15492e-05
-4.80376e-05
-6.5569e-05
-4.65681e-05
-4.4909e-05
-6.97722e-05
-5.64509e-05
-4.59605e-05
-6.00133e-05
-4.44752e-05
-6.3745e-05
-4.28365e-05
-4.1021e-05
-6.7633e-05
-5.4714e-05
-4.2828e-05
-5.79939e-05
-4.11952e-05
-6.14137e-05
-3.94167e-05
-3.74734e-05
-6.49613e-05
-5.25973e-05
-3.99503e-05
-5.55934e-05
-3.81992e-05
-5.87007e-05
-3.63094e-05
-3.4266e-05
-6.19081e-05
-5.01563e-05
-3.73166e-05
-5.28817e-05
-3.54738e-05
-5.56919e-05
-3.34992e-05
-3.13812e-05
-5.85768e-05
-4.74209e-05
-3.49072e-05
-4.98986e-05
-3.29961e-05
-5.24373e-05
-3.09605e-05
-2.87905e-05
-5.50279e-05
-4.43969e-05
-3.26965e-05
-4.66562e-05
-3.07368e-05
-4.89563e-05
-2.86604e-05
-2.64588e-05
-5.1288e-05
-4.10645e-05
-3.06544e-05
-4.31407e-05
-2.86606e-05
-4.52414e-05
-2.65597e-05
-2.43444e-05
-4.73558e-05
-3.73716e-05
-2.87483e-05
-3.9305e-05
-2.67272e-05
-4.12532e-05
-2.46115e-05
-2.23957e-05
-4.32019e-05
-3.32147e-05
-2.69474e-05
-3.50489e-05
-2.4893e-05
-3.69006e-05
-2.27598e-05
-2.05467e-05
-3.87496e-05
-2.84064e-05
-2.52371e-05
-3.01757e-05
-2.31237e-05
-3.19882e-05
-2.09473e-05
-1.8716e-05
-3.38189e-05
-2.26264e-05
-2.36535e-05
-2.43191e-05
-2.1431e-05
-2.61164e-05
-1.915e-05
-1.68317e-05
-2.80007e-05
-1.53979e-05
-2.23441e-05
-1.68751e-05
-1.99537e-05
-1.8549e-05
-1.74761e-05
-1.49353e-05
-2.04454e-05
-6.11043e-06
-6.95561e-06
-8.02198e-06
-9.39351e-06
9.30727e-05
-5.43033e-05
9.53617e-05
-5.06319e-05
9.72397e-05
-4.65198e-05
9.86845e-05
-4.20462e-05
9.96911e-05
-3.73116e-05
0.000100272
-3.24306e-05
0.000100452
-2.75245e-05
0.00010027
-2.27175e-05
9.9772e-05
-1.81373e-05
9.9018e-05
-1.39163e-05
9.80801e-05
-1.0182e-05
9.70373e-05
-7.03843e-06
9.59667e-05
-4.55565e-06
9.49375e-05
-2.76912e-06
9.40086e-05
-1.68027e-06
9.32275e-05
-1.25868e-06
9.26302e-05
-1.44418e-06
9.22363e-05
-2.14143e-06
9.20397e-05
-3.22016e-06
9.20039e-05
-4.53237e-06
9.20633e-05
-5.94117e-06
9.21521e-05
-7.37643e-06
9.22236e-05
-8.83865e-06
9.22202e-05
-1.03535e-05
9.21339e-05
-1.21071e-05
9.21607e-05
-1.45492e-05
9.23891e-05
-1.70668e-05
9.08253e-05
-1.66625e-05
8.94544e-05
-1.39206e-05
8.84375e-05
-1.21139e-05
8.75278e-05
-1.01165e-05
8.6692e-05
-7.63524e-06
8.59633e-05
-4.6525e-06
8.52748e-05
-1.12635e-06
8.4028e-05
3.48703e-06
7.68199e-05
1.4643e-05
-5.02782e-05
0.000269046
-6.45998e-05
0.000717643
-5.70281e-05
0.00114351
0.00144911
8.75443e-05
-5.66975e-05
8.95401e-05
-5.26276e-05
9.1102e-05
-4.80817e-05
9.2214e-05
-4.31582e-05
9.28815e-05
-3.79791e-05
9.31302e-05
-3.26794e-05
9.30002e-05
-2.73945e-05
9.25383e-05
-2.22556e-05
9.17985e-05
-1.73975e-05
9.08503e-05
-1.29681e-05
8.97802e-05
-9.11195e-06
8.86809e-05
-5.93916e-06
8.76383e-05
-3.51304e-06
8.6726e-05
-1.8568e-06
8.60016e-05
-9.55849e-07
8.55089e-05
-7.65986e-07
8.52846e-05
-1.2199e-06
8.53507e-05
-2.20753e-06
8.56957e-05
-3.56517e-06
8.62628e-05
-5.09939e-06
8.69444e-05
-6.62285e-06
8.7652e-05
-8.08401e-06
8.83433e-05
-9.5299e-06
8.88903e-05
-1.09005e-05
8.90621e-05
-1.22788e-05
8.89581e-05
-1.44452e-05
8.92129e-05
-1.73215e-05
8.74643e-05
-1.4914e-05
8.64449e-05
-1.29012e-05
8.5626e-05
-1.12949e-05
8.48642e-05
-9.3547e-06
8.41621e-05
-6.93314e-06
8.35828e-05
-4.07316e-06
8.31915e-05
-7.35066e-07
8.28977e-05
3.78077e-06
3.28852e-05
6.46556e-05
-6.49623e-05
0.000366894
-8.7225e-05
0.000739905
-7.39849e-05
0.00113027
0.00137513
8.17012e-05
-5.87895e-05
8.33676e-05
-5.42941e-05
8.45763e-05
-4.92904e-05
8.53188e-05
-4.39007e-05
8.56134e-05
-3.82737e-05
8.55036e-05
-3.25695e-05
8.50453e-05
-2.69362e-05
8.42945e-05
-2.15047e-05
8.33068e-05
-1.64098e-05
8.21607e-05
-1.1822e-05
8.09604e-05
-7.9117e-06
7.98146e-05
-4.79329e-06
7.88183e-05
-2.51681e-06
7.80476e-05
-1.08606e-06
7.75527e-05
-4.60974e-07
7.73677e-05
-5.80945e-07
7.75309e-05
-1.38306e-06
7.80752e-05
-2.75187e-06
7.89889e-05
-4.47891e-06
8.01843e-05
-6.29477e-06
8.14825e-05
-7.92101e-06
8.27955e-05
-9.39707e-06
8.41412e-05
-1.08756e-05
8.53896e-05
-1.21489e-05
8.60528e-05
-1.2942e-05
8.69227e-05
-1.53151e-05
8.51405e-05
-1.55394e-05
8.38537e-05
-1.36271e-05
8.31837e-05
-1.22312e-05
8.25924e-05
-1.07036e-05
8.20077e-05
-8.77e-06
8.1467e-05
-6.39242e-06
8.09772e-05
-3.5834e-06
8.02594e-05
-1.72788e-08
7.37353e-05
1.03048e-05
-1.13987e-05
0.00014979
-7.62869e-05
0.000431782
-9.5252e-05
0.00075887
-7.77883e-05
0.00111281
0.00129734
7.55897e-05
-6.05598e-05
7.69079e-05
-5.56123e-05
7.77449e-05
-5.01274e-05
7.81005e-05
-4.42563e-05
7.80078e-05
-3.8181e-05
7.75331e-05
-3.20949e-05
7.67508e-05
-2.61538e-05
7.57237e-05
-2.04777e-05
7.45049e-05
-1.5191e-05
7.31758e-05
-1.04929e-05
7.18648e-05
-6.60069e-06
7.06987e-05
-3.62717e-06
6.97844e-05
-1.60254e-06
6.91997e-05
-5.01412e-07
6.89761e-05
-2.37328e-07
6.91168e-05
-7.21605e-07
6.96629e-05
-1.92925e-06
7.06737e-05
-3.76261e-06
7.21518e-05
-5.95706e-06
7.39768e-05
-8.11979e-06
7.57679e-05
-9.71211e-06
7.74819e-05
-1.1111e-05
7.92346e-05
-1.26284e-05
8.09052e-05
-1.38194e-05
8.13652e-05
-1.3402e-05
8.17429e-05
-1.56929e-05
8.06182e-05
-1.44146e-05
8.014e-05
-1.3149e-05
7.97882e-05
-1.18794e-05
7.94119e-05
-1.03274e-05
7.90301e-05
-8.3882e-06
7.8699e-05
-6.06133e-06
7.84447e-05
-3.32913e-06
7.73941e-05
1.03335e-06
3.31366e-05
5.45623e-05
-4.77292e-05
0.000230655
-9.10533e-05
0.000475106
-0.00010186
0.000769677
-7.81078e-05
0.00108905
0.00121923
6.92847e-05
-6.20098e-05
7.02591e-05
-5.65868e-05
7.07314e-05
-5.05997e-05
7.0709e-05
-4.42339e-05
7.02414e-05
-3.77135e-05
6.94263e-05
-3.12797e-05
6.83479e-05
-2.50754e-05
6.70823e-05
-1.92121e-05
6.56944e-05
-1.38031e-05
6.42367e-05
-9.03518e-06
6.28445e-05
-5.20854e-06
6.16952e-05
-2.47786e-06
6.09204e-05
-8.27769e-07
6.06063e-05
-1.87291e-07
6.07376e-05
-3.6862e-07
6.12394e-05
-1.22335e-06
6.21475e-05
-2.83739e-06
6.35765e-05
-5.19162e-06
6.55644e-05
-7.94492e-06
6.80522e-05
-1.06077e-05
7.02225e-05
-1.18824e-05
7.1896e-05
-1.27844e-05
7.41255e-05
-1.48579e-05
7.45684e-05
-1.42624e-05
7.72869e-05
-1.61205e-05
7.68507e-05
-1.52566e-05
7.65955e-05
-1.41594e-05
7.64937e-05
-1.30472e-05
7.63665e-05
-1.17522e-05
7.61922e-05
-1.0153e-05
7.60208e-05
-8.21685e-06
7.59216e-05
-5.96215e-06
7.56245e-05
-3.03205e-06
5.10464e-05
2.56115e-05
-1.38833e-05
0.000119492
-6.67005e-05
0.000283473
-9.95921e-05
0.000507998
-0.000105164
0.000775248
-7.72268e-05
0.00106112
0.001142
6.28865e-05
-6.31661e-05
6.35508e-05
-5.72511e-05
6.3698e-05
-5.07468e-05
6.33423e-05
-4.38782e-05
6.25514e-05
-3.69225e-05
6.14612e-05
-3.01895e-05
6.02298e-05
-2.38441e-05
5.88664e-05
-1.78487e-05
5.73912e-05
-1.23279e-05
5.58231e-05
-7.46708e-06
5.43436e-05
-3.72907e-06
5.32495e-05
-1.38373e-06
5.27214e-05
-2.99625e-07
5.28524e-05
-3.18301e-07
5.35392e-05
-1.05544e-06
5.45191e-05
-2.20332e-06
5.58092e-05
-4.12744e-06
5.76447e-05
-7.02712e-06
6.01176e-05
-1.04178e-05
6.33978e-05
-1.38879e-05
6.65137e-05
-1.49983e-05
6.84427e-05
-1.47134e-05
7.00107e-05
-1.64259e-05
7.26239e-05
-1.68755e-05
7.26916e-05
-1.61883e-05
7.27338e-05
-1.52988e-05
7.28781e-05
-1.43037e-05
7.2995e-05
-1.31641e-05
7.30628e-05
-1.182e-05
7.31287e-05
-1.0219e-05
7.33214e-05
-8.40945e-06
7.36619e-05
-6.30269e-06
5.82802e-05
1.23496e-05
1.49899e-05
6.89018e-05
-3.53953e-05
0.000169877
-7.75714e-05
0.000325649
-0.000104777
0.000535203
-0.000106184
0.000776656
-7.58633e-05
0.0010308
0.00106614
5.65117e-05
-6.40831e-05
5.6932e-05
-5.76714e-05
5.6831e-05
-5.06458e-05
5.62279e-05
-4.32752e-05
5.51998e-05
-3.58944e-05
5.40261e-05
-2.90158e-05
5.28079e-05
-2.26259e-05
5.13878e-05
-1.64286e-05
4.97273e-05
-1.06674e-05
4.80511e-05
-5.79094e-06
4.66515e-05
-2.32947e-06
4.58134e-05
-5.45612e-07
4.57758e-05
-2.62032e-07
4.67144e-05
-1.25685e-06
4.84196e-05
-2.76071e-06
5.02315e-05
-4.01516e-06
5.21908e-05
-6.08673e-06
5.48228e-05
-9.65913e-06
5.87841e-05
-1.43791e-05
6.17261e-05
-1.68299e-05
6.37813e-05
-1.70535e-05
6.681e-05
-1.77421e-05
6.81351e-05
-1.7751e-05
6.84657e-05
-1.72062e-05
6.88131e-05
-1.65356e-05
6.9173e-05
-1.56587e-05
6.95041e-05
-1.46348e-05
6.9793e-05
-1.3453e-05
7.0084e-05
-1.2111e-05
7.0567e-05
-1.0702e-05
7.13618e-05
-9.20425e-06
6.10978e-05
3.96138e-06
3.03669e-05
4.30805e-05
-8.98919e-06
0.000108258
-4.89353e-05
0.000209823
-8.73147e-05
0.000364028
-0.000109539
0.000557427
-0.000107483
0.000774599
-7.50496e-05
0.000998363
0.000991091
5.02777e-05
-6.48418e-05
5.055e-05
-5.79438e-05
5.03102e-05
-5.04059e-05
4.95835e-05
-4.25485e-05
4.84661e-05
-3.4777e-05
4.73663e-05
-2.7916e-05
4.61608e-05
-2.14204e-05
4.46355e-05
-1.49033e-05
4.2858e-05
-8.88993e-06
4.1275e-05
-4.20797e-06
4.02524e-05
-1.30683e-06
3.99983e-05
-2.91537e-07
4.08078e-05
-1.07157e-06
4.31154e-05
-3.56445e-06
4.65561e-05
-6.20137e-06
4.96937e-05
-7.15274e-06
5.29611e-05
-9.3542e-06
5.72647e-05
-1.39627e-05
6.07517e-05
-1.78661e-05
6.21061e-05
-1.81844e-05
6.34779e-05
-1.84253e-05
6.41252e-05
-1.83894e-05
6.45955e-05
-1.82212e-05
6.51376e-05
-1.77483e-05
6.56439e-05
-1.7042e-05
6.61407e-05
-1.61554e-05
6.66316e-05
-1.51257e-05
6.70937e-05
-1.39152e-05
6.81549e-05
-1.31722e-05
6.88777e-05
-1.14248e-05
5.99583e-05
-2.8486e-07
3.92119e-05
2.47077e-05
9.60807e-06
7.26844e-05
-2.37351e-05
0.000141601
-6.26853e-05
0.000248774
-9.72037e-05
0.000398547
-0.000114249
0.000574472
-0.000109295
0.000769646
-7.47279e-05
0.000963795
0.000916363
4.42843e-05
-6.55451e-05
4.45294e-05
-5.8189e-05
4.42825e-05
-5.0159e-05
4.35659e-05
-4.18319e-05
4.25e-05
-3.37112e-05
4.14843e-05
-2.69002e-05
4.03639e-05
-2.03e-05
3.89414e-05
-1.34807e-05
3.74525e-05
-7.40111e-06
3.63119e-05
-3.06731e-06
3.59773e-05
-9.7231e-07
3.6692e-05
-1.00622e-06
3.87663e-05
-3.14586e-06
4.31369e-05
-7.93498e-06
4.86857e-05
-1.17502e-05
5.29329e-05
-1.14e-05
5.66358e-05
-1.3057e-05
6.04368e-05
-1.77637e-05
6.05722e-05
-1.80015e-05
6.07209e-05
-1.83331e-05
6.10459e-05
-1.87503e-05
6.15504e-05
-1.88939e-05
6.20556e-05
-1.87264e-05
6.25889e-05
-1.82815e-05
6.31501e-05
-1.76032e-05
6.36721e-05
-1.66775e-05
6.47508e-05
-1.62043e-05
6.61129e-05
-1.52774e-05
6.64239e-05
-1.34831e-05
5.92435e-05
-4.24438e-06
4.09372e-05
1.80214e-05
1.59349e-05
4.971e-05
-1.01852e-05
9.88045e-05
-4.27184e-05
0.000174134
-7.98395e-05
0.000285895
-0.000107851
0.000426558
-0.000119735
0.000586357
-0.000111609
0.00076152
-7.45746e-05
0.000926761
0.000841789
3.85988e-05
-6.63125e-05
3.8959e-05
-5.85491e-05
3.88624e-05
-5.00624e-05
3.83097e-05
-4.12792e-05
3.74033e-05
-3.28048e-05
3.65581e-05
-2.6055e-05
3.58065e-05
-1.95484e-05
3.49197e-05
-1.25939e-05
3.40119e-05
-6.49328e-06
3.36527e-05
-2.70818e-06
3.46237e-05
-1.94325e-06
3.72154e-05
-3.59789e-06
4.15103e-05
-7.44082e-06
4.83735e-05
-1.47981e-05
5.49952e-05
-1.83719e-05
5.83148e-05
-1.47197e-05
6.04675e-05
-1.52097e-05
5.92698e-05
-1.6566e-05
5.89931e-05
-1.77248e-05
5.91872e-05
-1.85272e-05
5.94786e-05
-1.90417e-05
5.98306e-05
-1.9246e-05
6.02487e-05
-1.91445e-05
6.07047e-05
-1.87375e-05
6.15612e-05
-1.84597e-05
6.29944e-05
-1.81107e-05
6.38996e-05
-1.71096e-05
6.4348e-05
-1.57258e-05
6.02726e-05
-9.40766e-06
4.66089e-05
9.41928e-06
2.59847e-05
3.86457e-05
-1.51827e-06
7.7213e-05
-3.20801e-05
0.000129366
-6.65468e-05
0.000208601
-9.80529e-05
0.000317401
-0.000119068
0.000447573
-0.000125984
0.000593273
-0.000114444
0.00074998
-7.45396e-05
0.000886856
0.000767249
3.32365e-05
-6.72703e-05
3.38695e-05
-5.91822e-05
3.41096e-05
-5.03026e-05
3.39232e-05
-4.10927e-05
3.33432e-05
-3.22248e-05
3.28625e-05
-2.55743e-05
3.26977e-05
-1.93836e-05
3.26266e-05
-1.25229e-05
3.25484e-05
-6.41509e-06
3.33294e-05
-3.48921e-06
3.66001e-05
-5.21388e-06
4.32887e-05
-1.02865e-05
5.31763e-05
-1.73285e-05
5.99998e-05
-2.16216e-05
5.98147e-05
-1.81868e-05
5.98599e-05
-1.47649e-05
5.8601e-05
-1.39508e-05
5.79002e-05
-1.58652e-05
5.80049e-05
-1.78295e-05
5.82701e-05
-1.87925e-05
5.85596e-05
-1.93311e-05
5.88639e-05
-1.95503e-05
5.93088e-05
-1.95894e-05
6.05452e-05
-1.99739e-05
6.13688e-05
-1.92834e-05
6.32349e-05
-1.99767e-05
6.46691e-05
-1.85438e-05
6.08161e-05
-1.18727e-05
4.78732e-05
3.53521e-06
2.95403e-05
2.77522e-05
6.68143e-06
6.15045e-05
-2.13564e-05
0.000105251
-5.42733e-05
0.000162283
-8.73868e-05
0.000241715
-0.000113879
0.000343893
-0.000129816
0.000463509
-0.000132507
0.000595965
-0.000117556
0.000735029
-7.44535e-05
0.000843754
0.000692796
2.81391e-05
-6.8533e-05
2.9198e-05
-6.02411e-05
2.99712e-05
-5.10758e-05
3.03915e-05
-4.15129e-05
3.04265e-05
-3.22598e-05
3.04437e-05
-2.55915e-05
3.09492e-05
-1.98892e-05
3.18465e-05
-1.34201e-05
3.26308e-05
-7.19947e-06
3.45073e-05
-5.36572e-06
4.0842e-05
-1.15485e-05
5.11784e-05
-2.06229e-05
5.86678e-05
-2.48179e-05
5.80172e-05
-2.0971e-05
5.71965e-05
-1.73661e-05
5.71259e-05
-1.46944e-05
5.66691e-05
-1.34939e-05
5.59905e-05
-1.51866e-05
5.716e-05
-1.8999e-05
5.78821e-05
-1.95146e-05
5.84949e-05
-1.99439e-05
5.93199e-05
-2.03753e-05
6.04054e-05
-2.06748e-05
6.10005e-05
-2.0569e-05
6.26641e-05
-2.0947e-05
6.25923e-05
-1.99049e-05
5.59568e-05
-1.19083e-05
4.27676e-05
1.3165e-06
2.49875e-05
2.13153e-05
3.67439e-06
4.90652e-05
-2.06468e-05
8.58258e-05
-4.81826e-05
0.000132787
-7.86145e-05
0.000192715
-0.000107086
0.000270186
-0.000128605
0.000365411
-0.000140069
0.000474974
-0.000138923
0.000594819
-0.000120435
0.000716541
-7.3855e-05
0.000797174
0.000618941
2.3167e-05
-7.01801e-05
2.47666e-05
-6.18407e-05
2.62329e-05
-5.25421e-05
2.74758e-05
-4.27559e-05
2.83918e-05
-3.31759e-05
2.90092e-05
-2.62088e-05
3.00965e-05
-2.09766e-05
3.2102e-05
-1.54256e-05
3.40165e-05
-9.11401e-06
3.6734e-05
-8.08322e-06
4.71305e-05
-2.19449e-05
5.46171e-05
-2.81095e-05
5.44178e-05
-2.46187e-05
5.40334e-05
-2.05866e-05
5.39544e-05
-1.7287e-05
5.39378e-05
-1.46778e-05
5.3812e-05
-1.33681e-05
5.26773e-05
-1.40519e-05
5.70296e-05
-2.33513e-05
5.84409e-05
-2.09259e-05
5.93845e-05
-2.08875e-05
6.0291e-05
-2.12818e-05
6.08384e-05
-2.12222e-05
6.14342e-05
-2.11648e-05
5.69572e-05
-1.647e-05
4.66521e-05
-9.59991e-06
3.27622e-05
1.98166e-06
1.54459e-05
1.86328e-05
-4.64161e-06
4.14028e-05
-2.70271e-05
7.14507e-05
-5.12277e-05
0.000110026
-7.69276e-05
0.000158486
-0.000103067
0.000218854
-0.000126221
0.000293341
-0.000142674
0.000381864
-0.000149697
0.000481997
-0.000144616
0.000589738
-0.000122202
0.000694127
-7.20715e-05
0.000747043
0.000546869
1.8118e-05
-7.22374e-05
2.0309e-05
-6.40317e-05
2.25495e-05
-5.47827e-05
2.47402e-05
-4.49466e-05
2.6767e-05
-3.52026e-05
2.81637e-05
-2.76055e-05
2.99634e-05
-2.27762e-05
3.3239e-05
-1.87012e-05
3.75094e-05
-1.33844e-05
4.22952e-05
-1.2869e-05
5.03003e-05
-2.995e-05
5.03829e-05
-2.81922e-05
5.00221e-05
-2.42579e-05
4.99807e-05
-2.05452e-05
4.994e-05
-1.72464e-05
4.96067e-05
-1.43445e-05
4.81695e-05
-1.19309e-05
4.37397e-05
-9.62209e-06
4.38538e-05
-2.34655e-05
5.30613e-05
-3.01334e-05
5.74655e-05
-2.52917e-05
5.75257e-05
-2.1342e-05
5.40603e-05
-1.77567e-05
4.56297e-05
-1.27342e-05
3.43508e-05
-5.19114e-06
1.97698e-05
4.98104e-06
2.80196e-06
1.89496e-05
-1.62432e-05
3.76779e-05
-3.70258e-05
6.21854e-05
-5.90963e-05
9.35212e-05
-8.18915e-05
0.000132822
-0.000104723
0.000181318
-0.000126274
0.000240404
-0.000144077
0.000311144
-0.000155377
0.000393164
-0.000157779
0.000484399
-0.000148397
0.000580356
-0.000121632
0.000667362
-6.84181e-05
0.000693829
0.000478451
1.27608e-05
-7.46709e-05
1.55239e-05
-6.67948e-05
1.853e-05
-5.77888e-05
2.16622e-05
-4.80788e-05
2.48481e-05
-3.83886e-05
2.74018e-05
-3.01592e-05
2.99704e-05
-2.53448e-05
3.38831e-05
-2.26139e-05
3.88837e-05
-1.83851e-05
4.33822e-05
-1.73675e-05
4.5439e-05
-3.20068e-05
4.5529e-05
-2.82822e-05
4.54805e-05
-2.42094e-05
4.54255e-05
-2.04901e-05
4.52511e-05
-1.7072e-05
4.47696e-05
-1.3863e-05
4.36454e-05
-1.08066e-05
4.15485e-05
-7.5252e-06
3.77325e-05
-1.96494e-05
3.80341e-05
-3.0435e-05
3.86549e-05
-2.59125e-05
3.57335e-05
-1.84205e-05
2.84889e-05
-1.05122e-05
1.75257e-05
-1.77097e-06
3.89186e-06
8.44274e-06
-1.20873e-05
2.09602e-05
-2.99491e-05
3.68113e-05
-4.92794e-05
5.70082e-05
-6.95997e-05
8.25058e-05
-9.03365e-05
0.000114258
-0.000110793
0.000153278
-0.000130087
0.000200612
-0.000146913
0.00025723
-0.000159398
0.000323629
-0.000165464
0.00039923
-0.000162966
0.000481901
-0.000148861
0.000566251
-0.000117597
0.000636099
-6.2515e-05
0.000638747
0.000415936
6.85308e-06
-7.7382e-05
1.01057e-05
-7.00475e-05
1.38271e-05
-6.15101e-05
1.78845e-05
-5.21362e-05
2.20881e-05
-4.25921e-05
2.60193e-05
-3.40904e-05
2.93595e-05
-2.8685e-05
3.27215e-05
-2.59759e-05
3.67301e-05
-2.23937e-05
3.97114e-05
-2.03487e-05
4.02109e-05
-3.25063e-05
4.03386e-05
-2.84098e-05
4.03517e-05
-2.42226e-05
4.02386e-05
-2.0377e-05
3.99605e-05
-1.67939e-05
3.94733e-05
-1.33757e-05
3.87872e-05
-1.01206e-05
3.77473e-05
-6.4853e-06
3.4939e-05
-1.68411e-05
2.72664e-05
-2.27624e-05
1.94332e-05
-1.80792e-05
1.05147e-05
-9.50203e-06
-3.52636e-07
3.55102e-07
-1.32842e-05
1.11606e-05
-2.81411e-05
2.32996e-05
-4.46755e-05
3.74946e-05
-6.25384e-05
5.46742e-05
-8.12655e-05
7.57354e-05
-0.000100281
0.000101521
-0.000118908
0.000132885
-0.000136353
0.000170724
-0.000151671
0.000215931
-0.00016367
0.000269229
-0.000170876
0.000330835
-0.000171642
0.000399997
-0.000164003
0.000474262
-0.000144945
0.000547193
-0.000109594
0.000600747
-5.45325e-05
0.000583685
0.000361403
1.37646e-07
-8.01848e-05
3.69453e-06
-7.36044e-05
7.97094e-06
-6.57866e-05
1.28464e-05
-5.70117e-05
1.80482e-05
-4.77939e-05
2.2971e-05
-3.90132e-05
2.69003e-05
-3.26143e-05
2.9842e-05
-2.89176e-05
3.25411e-05
-2.50927e-05
3.4528e-05
-2.23356e-05
3.45846e-05
-3.2563e-05
3.47671e-05
-2.85924e-05
3.47912e-05
-2.42466e-05
3.46691e-05
-2.0255e-05
3.44329e-05
-1.65577e-05
3.41846e-05
-1.31275e-05
3.40139e-05
-9.94988e-06
3.3541e-05
-6.01238e-06
2.66692e-05
-9.96934e-06
1.35248e-05
-9.61801e-06
-4.08303e-07
-4.14618e-06
-1.41712e-05
4.26082e-06
-2.8254e-05
1.44379e-05
-4.30693e-05
2.5976e-05
-5.8804e-05
3.90342e-05
-7.5436e-05
5.41266e-05
-9.27056e-05
7.19438e-05
-0.000110161
9.31909e-05
-0.000127207
0.000118567
-0.00014313
0.000148808
-0.000157114
0.000184707
-0.000168228
0.000227045
-0.000175409
0.00027641
-0.000177447
0.000332873
-0.000172961
0.00039551
-0.000160166
0.000461467
-0.000136379
0.000523406
-9.80286e-05
0.000562396
-4.51902e-05
0.000530847
0.000316213
-7.60054e-06
-8.27941e-05
-4.0699e-06
-7.7135e-05
4.04149e-07
-7.02606e-05
5.74667e-06
-6.23543e-05
1.17111e-05
-5.37584e-05
1.7662e-05
-4.49641e-05
2.22294e-05
-3.71818e-05
2.52218e-05
-3.191e-05
2.76686e-05
-2.75395e-05
2.97283e-05
-2.43953e-05
2.8351e-05
-3.11856e-05
2.87281e-05
-2.89695e-05
2.89549e-05
-2.44734e-05
2.90482e-05
-2.03482e-05
2.90618e-05
-1.65714e-05
2.94348e-05
-1.35004e-05
2.9581e-05
-1.00961e-05
2.44899e-05
-9.2126e-07
1.11774e-05
3.34306e-06
-5.62058e-06
7.18002e-06
-2.25826e-05
1.28158e-05
-3.89317e-05
2.061e-05
-5.48358e-05
3.0342e-05
-7.06463e-05
4.17865e-05
-8.65938e-05
5.49817e-05
-0.000102698
7.02305e-05
-0.000118742
8.79878e-05
-0.000134312
0.000108761
-0.000148843
0.000133098
-0.000161648
0.000161613
-0.00017194
0.000194999
-0.000178842
0.000233947
-0.000181395
0.000278963
-0.000178551
0.000330029
-0.000169115
0.000386075
-0.000151565
0.000443917
-0.000123858
0.000495699
-8.41312e-05
0.000522669
-3.55309e-05
0.000482247
0.000280682
-1.64187e-05
-8.48546e-05
-1.33598e-05
-8.01938e-05
-9.22988e-06
-7.43906e-05
-4.03907e-06
-6.75451e-05
2.07179e-06
-5.98692e-05
8.78676e-06
-5.16791e-05
1.49629e-05
-4.33579e-05
1.91005e-05
-3.60476e-05
2.21502e-05
-3.05892e-05
2.47495e-05
-2.69945e-05
2.2241e-05
-2.86771e-05
2.17811e-05
-2.85096e-05
2.28594e-05
-2.55516e-05
2.36769e-05
-2.11657e-05
2.46615e-05
-1.75559e-05
2.50667e-05
-1.39057e-05
1.65677e-05
-1.59708e-06
3.53148e-06
1.21149e-05
-1.25929e-05
1.94675e-05
-2.99042e-05
2.44913e-05
-4.7121e-05
3.00326e-05
-6.37557e-05
3.72447e-05
-7.97816e-05
4.63679e-05
-9.53359e-05
5.73408e-05
-0.000110518
7.01636e-05
-0.000125285
8.49979e-05
-0.000139422
0.000102124
-0.000152551
0.000121891
-0.000164165
0.000144711
-0.000173636
0.000171085
-0.000180239
0.000201601
-0.000183155
0.000236863
-0.000181497
0.000277305
-0.000174322
0.000322854
-0.000160605
0.000372358
-0.000139182
0.000422495
-0.000108869
0.000465386
-6.9575e-05
0.000483375
-2.66058e-05
0.000439277
0.000254077
-2.61172e-05
-8.60174e-05
-2.39911e-05
-8.232e-05
-2.07918e-05
-7.75899e-05
-1.64714e-05
-7.18655e-05
-1.10738e-05
-6.52668e-05
-4.75581e-06
-5.79971e-05
2.26486e-06
-5.03786e-05
9.05726e-06
-4.284e-05
1.46988e-05
-3.62307e-05
1.91807e-05
-3.14765e-05
1.944e-05
-2.89364e-05
1.80552e-05
-2.71249e-05
1.70023e-05
-2.44987e-05
1.85008e-05
-2.26642e-05
1.7487e-05
-1.65422e-05
6.83515e-06
-3.2538e-06
-1.00444e-05
1.52824e-05
-2.55124e-05
2.75829e-05
-4.09815e-05
3.49366e-05
-5.67012e-05
4.0211e-05
-7.23308e-05
4.56622e-05
-8.75659e-05
5.24798e-05
-0.000102252
6.10536e-05
-0.000116331
7.14201e-05
-0.000129752
8.3585e-05
-0.000142394
9.76399e-05
-0.000154029
0.00011376
-0.00016432
0.000132181
-0.000172819
0.00015321
-0.000178974
0.00017724
-0.000182122
0.000204749
-0.000181503
0.000236244
-0.000176285
0.000272087
-0.000165608
0.000312176
-0.000148626
0.000355375
-0.000124598
0.000398467
-9.32425e-05
0.000434031
-5.59724e-05
0.000446105
-1.92033e-05
0.000402508
0.000234873
-3.62549e-05
-8.60163e-05
-3.54301e-05
-8.31448e-05
-3.36545e-05
-7.93655e-05
-3.0844e-05
-7.46759e-05
-2.6975e-05
-6.91358e-05
-2.20933e-05
-6.28787e-05
-1.63389e-05
-5.6133e-05
-9.9232e-06
-4.92557e-05
-3.3652e-06
-4.27887e-05
2.27547e-06
-3.71172e-05
5.95675e-06
-3.26177e-05
7.40796e-06
-2.85761e-05
6.20462e-06
-2.32954e-05
-1.30178e-06
-1.51578e-05
-1.39301e-05
-3.91384e-06
-3.09038e-05
1.37199e-05
-4.5025e-05
2.94036e-05
-5.7838e-05
4.03959e-05
-7.04517e-05
4.75503e-05
-8.32451e-05
5.30045e-05
-9.61245e-05
5.85416e-05
-0.000108829
6.51847e-05
-0.000121111
7.33354e-05
-0.000132784
8.30924e-05
-0.00014369
9.44916e-05
-0.000153654
0.000107604
-0.000162444
0.000122549
-0.000169754
0.000139491
-0.000175194
0.000158651
-0.000178278
0.000180323
-0.000178408
0.000204879
-0.000174882
0.000232719
-0.000166928
0.000264133
-0.00015377
0.000299019
-0.000134752
0.000336357
-0.000109543
0.000373259
-7.86343e-05
0.000403122
-4.44801e-05
0.000411951
-1.37013e-05
0.000371729
0.000221172
-4.6243e-05
-8.47179e-05
-4.69265e-05
-8.24613e-05
-4.68792e-05
-7.94128e-05
-4.60122e-05
-7.5543e-05
-4.42817e-05
-7.08663e-05
-4.17093e-05
-6.54511e-05
-3.84098e-05
-5.94325e-05
-3.4641e-05
-5.30245e-05
-3.09462e-05
-4.64836e-05
-2.80974e-05
-3.99659e-05
-2.72802e-05
-3.34349e-05
-2.95603e-05
-2.6296e-05
-3.55177e-05
-1.7338e-05
-4.52236e-05
-5.45194e-06
-5.83739e-05
9.23649e-06
-7.00358e-05
2.53817e-05
-7.98374e-05
3.92053e-05
-8.87159e-05
4.92744e-05
-9.76063e-05
5.64407e-05
-0.00010687
6.2268e-05
-0.000116429
6.81011e-05
-0.000126008
7.47636e-05
-0.000135309
8.26366e-05
-0.000144085
9.18681e-05
-0.000152127
0.000102533
-0.000159229
0.000114706
-0.000165159
0.000128479
-0.000169635
0.000143968
-0.000172312
0.000161328
-0.000172758
0.000180769
-0.000170441
0.000202562
-0.000164729
0.000227006
-0.000154923
0.000254327
-0.000140351
0.000284447
-0.00012053
0.000316535
-9.54597e-05
0.000348189
-6.61602e-05
0.000373822
-3.56213e-05
0.000381412
-1.00621e-05
0.00034617
0.00021111
-5.54586e-05
-8.21394e-05
-5.76659e-05
-8.02541e-05
-5.94131e-05
-7.76655e-05
-6.06333e-05
-7.43228e-05
-6.12984e-05
-7.02012e-05
-6.1442e-05
-6.53075e-05
-6.11922e-05
-5.96823e-05
-6.08211e-05
-5.33957e-05
-6.07941e-05
-4.65106e-05
-6.17501e-05
-3.901e-05
-6.44646e-05
-3.07204e-05
-6.95573e-05
-2.12032e-05
-7.70266e-05
-9.86864e-06
-8.60394e-05
3.56084e-06
-9.52117e-05
1.84087e-05
-0.000102718
3.2888e-05
-0.00010864
4.51275e-05
-0.000113935
5.45692e-05
-0.000119376
6.18814e-05
-0.00012527
6.81623e-05
-0.000131552
7.43828e-05
-0.000137971
8.11832e-05
-0.000144246
8.89118e-05
-0.000150125
9.77465e-05
-0.000155383
0.000107792
-0.000159806
0.000119128
-0.00016316
0.000131833
-0.000165183
0.00014599
-0.00016556
0.000161706
-0.000163912
0.000179121
-0.000159772
0.000198422
-0.000152591
0.000219825
-0.000141765
0.000243501
-0.000126732
0.000269414
-0.000107155
0.000296959
-8.32443e-05
0.000324278
-5.62736e-05
0.000346852
-2.93373e-05
0.000354475
-7.94873e-06
0.000324782
0.000203161
-6.33494e-05
-7.84396e-05
-6.69071e-05
-7.66964e-05
-7.02644e-05
-7.43083e-05
-7.33807e-05
-7.12064e-05
-7.62475e-05
-6.73344e-05
-7.8905e-05
-6.265e-05
-8.14637e-05
-5.71235e-05
-8.41282e-05
-5.07312e-05
-8.72028e-05
-4.3436e-05
-9.1053e-05
-3.51598e-05
-9.60097e-05
-2.57637e-05
-0.000102156
-1.50567e-05
-0.00010912
-2.90503e-06
-0.00011598
1.04208e-05
-0.000121731
2.41604e-05
-0.000125892
3.7049e-05
-0.000128853
4.80885e-05
-0.000131386
5.71021e-05
-0.000134088
6.4583e-05
-0.000137206
7.12804e-05
-0.000140701
7.78782e-05
-0.000144385
8.48662e-05
-0.000148023
9.25499e-05
-0.000151388
0.000101112
-0.000154266
0.000110669
-0.000156441
0.000121303
-0.000157688
0.00013308
-0.000157759
0.000146062
-0.000156372
0.000160318
-0.000153193
0.000175942
-0.000147827
0.000193056
-0.000139814
0.000211811
-0.000128654
0.000232342
-0.000113899
0.000254658
-9.53167e-05
0.000278377
-7.32053e-05
0.000302167
-4.88619e-05
0.000322508
-2.51837e-05
0.000330797
-6.90237e-06
0.0003065
0.000196259
-6.95271e-05
-7.38789e-05
-7.4124e-05
-7.20995e-05
-7.87192e-05
-6.9713e-05
-8.32869e-05
-6.66387e-05
-8.78212e-05
-6.28002e-05
-9.23446e-05
-5.81267e-05
-9.69159e-05
-5.25522e-05
-0.000101632
-4.60152e-05
-0.000106613
-3.84549e-05
-0.00011196
-2.98132e-05