/*--------------------------------*- C++ -*----------------------------------*\
| =========                 |                                                 |
| \\      /  F ield         | OpenFOAM: The Open Source CFD Toolbox           |
|  \\    /   O peration     | Version:  5.0                                   |
|   \\  /    A nd           | Web:      www.OpenFOAM.org                      |
|    \\/     M anipulation  |                                                 |
\*---------------------------------------------------------------------------*/
FoamFile
{
    version     2.0;
    format      ascii;
    class       volVectorField;
    location    "0.5";
    object      U;
}
// * * * * * * * * * * * * * * * * * * * * * * * * * * * * * * * * * * * * * //

dimensions      [0 1 -1 0 0 0 0];

internalField   nonuniform List<vector> 
1935
(
(0.794993 -0.640862 0)
(0.742619 -0.677322 0)
(0.689557 -0.711814 0)
(0.635768 -0.744082 0)
(0.581302 -0.773914 0)
(0.526296 -0.801199 0)
(0.47097 -0.825922 0)
(0.415585 -0.848174 0)
(0.360401 -0.868133 0)
(0.305628 -0.886031 0)
(0.251386 -0.902113 0)
(0.19769 -0.916573 0)
(0.144453 -0.929493 0)
(0.091525 -0.940788 0)
(0.0387515 -0.950164 0)
(-0.0139544 -0.957113 0)
(-0.0665226 -0.960923 0)
(-0.118638 -0.960728 0)
(-0.169682 -0.955633 0)
(-0.218737 -0.944863 0)
(-0.264659 -0.92793 0)
(-0.306229 -0.904748 0)
(-0.342322 -0.875675 0)
(-0.372054 -0.841488 0)
(-0.394902 -0.803284 0)
(-0.41074 -0.762349 0)
(-0.419825 -0.720009 0)
(-0.422715 -0.677498 0)
(-0.420156 -0.635856 0)
(-0.412963 -0.595877 0)
(-0.401916 -0.558098 0)
(-0.387683 -0.522817 0)
(-0.370782 -0.490133 0)
(-0.351565 -0.460002 0)
(-0.330229 -0.432272 0)
(-0.306812 -0.406725 0)
(-0.281185 -0.383097 0)
(-0.253005 -0.361101 0)
(-0.221627 -0.340463 0)
(-0.185984 -0.321015 0)
(-0.144469 -0.303011 0)
(-0.0950576 -0.287595 0)
(-0.0357479 -0.275706 0)
(0.829362 -0.629357 0)
(0.86166 -0.614212 0)
(0.892397 -0.594941 0)
(0.921108 -0.571467 0)
(0.774952 -0.664747 0)
(0.805142 -0.648064 0)
(0.833635 -0.626726 0)
(0.859942 -0.600667 0)
(0.719613 -0.698038 0)
(0.747467 -0.679644 0)
(0.773475 -0.65604 0)
(0.797129 -0.627169 0)
(0.66338 -0.728954 0)
(0.688742 -0.708679 0)
(0.712121 -0.682609 0)
(0.732986 -0.650697 0)
(0.606381 -0.757309 0)
(0.629196 -0.735003 0)
(0.649925 -0.706288 0)
(0.668016 -0.671127 0)
(0.548853 -0.783031 0)
(0.569185 -0.758594 0)
(0.58739 -0.727104 0)
(0.602896 -0.688537 0)
(0.491117 -0.80618 0)
(0.509155 -0.779589 0)
(0.525111 -0.745283 0)
(0.538403 -0.703246 0)
(0.433526 -0.826945 0)
(0.44957 -0.79829 0)
(0.463692 -0.761253 0)
(0.47531 -0.715813 0)
(0.376406 -0.845628 0)
(0.390836 -0.815143 0)
(0.403641 -0.77562 0)
(0.414254 -0.727014 0)
(0.319994 -0.862606 0)
(0.333222 -0.83069 0)
(0.345273 -0.789116 0)
(0.355617 -0.737789 0)
(0.264382 -0.878271 0)
(0.276791 -0.845502 0)
(0.288621 -0.802524 0)
(0.299414 -0.749162 0)
(0.209499 -0.892952 0)
(0.221369 -0.86008 0)
(0.233391 -0.816559 0)
(0.245214 -0.762104 0)
(0.155121 -0.906835 0)
(0.166558 -0.874746 0)
(0.178969 -0.831725 0)
(0.192149 -0.777353 0)
(0.100919 -0.919881 0)
(0.111803 -0.889543 0)
(0.12452 -0.848187 0)
(0.139037 -0.795241 0)
(0.04654 -0.931782 0)
(0.0564987 -0.904171 0)
(0.0691159 -0.86569 0)
(0.0845611 -0.815599 0)
(-0.00829763 -0.941931 0)
(0.000104898 -0.917946 0)
(0.0118799 -0.883505 0)
(0.0274257 -0.837708 0)
(-0.0636849 -0.94943 0)
(-0.0577057 -0.929782 0)
(-0.0478504 -0.900381 0)
(-0.0334882 -0.860202 0)
(-0.119387 -0.953124 0)
(-0.116849 -0.938212 0)
(-0.110249 -0.914517 0)
(-0.098763 -0.880948 0)
(-0.174743 -0.951758 0)
(-0.176656 -0.941555 0)
(-0.174703 -0.923722 0)
(-0.167952 -0.897178 0)
(-0.228641 -0.944186 0)
(-0.23581 -0.938201 0)
(-0.239677 -0.925808 0)
(-0.239308 -0.905984 0)
(-0.279628 -0.929608 0)
(-0.292478 -0.926944 0)
(-0.302877 -0.919035 0)
(-0.309975 -0.904952 0)
(-0.326109 -0.907733 0)
(-0.344594 -0.907221 0)
(-0.361632 -0.902468 0)
(-0.376522 -0.892648 0)
(-0.366587 -0.878857 0)
(-0.390188 -0.879219 0)
(-0.413356 -0.87613 0)
(-0.435564 -0.86885 0)
(-0.399873 -0.843824 0)
(-0.427677 -0.843843 0)
(-0.455945 -0.840975 0)
(-0.484313 -0.834543 0)
(-0.425245 -0.803905 0)
(-0.456079 -0.802564 0)
(-0.48807 -0.798702 0)
(-0.520984 -0.791691 0)
(-0.442506 -0.760628 0)
(-0.4751 -0.757185 0)
(-0.509305 -0.751447 0)
(-0.544973 -0.742826 0)
(-0.451962 -0.715575 0)
(-0.485097 -0.709587 0)
(-0.520072 -0.701446 0)
(-0.55678 -0.690607 0)
(-0.454311 -0.67022 0)
(-0.486939 -0.661515 0)
(-0.521444 -0.650759 0)
(-0.55774 -0.637458 0)
(-0.450499 -0.625799 0)
(-0.481804 -0.614422 0)
(-0.514887 -0.601081 0)
(-0.549669 -0.585345 0)
(-0.441559 -0.583249 0)
(-0.470981 -0.569398 0)
(-0.501995 -0.553668 0)
(-0.534524 -0.535696 0)
(-0.428479 -0.543194 0)
(-0.455695 -0.527159 0)
(-0.484275 -0.509331 0)
(-0.51414 -0.489414 0)
(-0.412099 -0.505973 0)
(-0.436988 -0.488087 0)
(-0.462997 -0.468495 0)
(-0.490056 -0.446957 0)
(-0.393069 -0.471693 0)
(-0.41566 -0.452296 0)
(-0.439136 -0.431276 0)
(-0.463435 -0.408443 0)
(-0.371839 -0.440288 0)
(-0.392262 -0.419702 0)
(-0.41336 -0.397571 0)
(-0.435071 -0.37375 0)
(-0.348665 -0.411574 0)
(-0.367119 -0.390086 0)
(-0.386062 -0.367133 0)
(-0.405437 -0.342596 0)
(-0.323623 -0.385288 0)
(-0.34035 -0.363144 0)
(-0.357411 -0.339621 0)
(-0.374747 -0.314615 0)
(-0.296607 -0.361108 0)
(-0.311879 -0.338509 0)
(-0.32737 -0.314627 0)
(-0.343005 -0.289371 0)
(-0.267278 -0.338669 0)
(-0.281391 -0.315748 0)
(-0.295663 -0.291666 0)
(-0.309994 -0.266347 0)
(-0.234956 -0.317586 0)
(-0.2482 -0.294363 0)
(-0.261636 -0.270143 0)
(-0.275135 -0.244876 0)
(-0.198426 -0.297518 0)
(-0.210985 -0.273827 0)
(-0.223927 -0.249334 0)
(-0.237109 -0.224058 0)
(-0.155705 -0.278526 0)
(-0.167402 -0.253953 0)
(-0.179878 -0.228747 0)
(-0.193071 -0.203074 0)
(-0.104026 -0.261672 0)
(-0.113836 -0.23561 0)
(-0.124936 -0.20891 0)
(-0.137544 -0.181918 0)
(-0.0402066 -0.247501 0)
(-0.0454907 -0.218487 0)
(-0.0520743 -0.187839 0)
(-0.0604871 -0.155603 0)
(0.948857 -0.54224 0)
(0.974572 -0.506668 0)
(0.996188 -0.466779 0)
(1.0134 -0.423295 0)
(1.02606 -0.377144 0)
(1.03422 -0.329405 0)
(1.03808 -0.281243 0)
(1.03797 -0.233878 0)
(1.03434 -0.188568 0)
(1.02771 -0.146604 0)
(1.01877 -0.109213 0)
(1.00834 -0.0774266 0)
(0.997231 -0.0519802 0)
(0.986213 -0.0332846 0)
(0.975952 -0.0214191 0)
(0.967007 -0.0161406 0)
(0.95981 -0.0168856 0)
(0.954661 -0.0227709 0)
(0.951657 -0.0326108 0)
(0.950578 -0.0450683 0)
(0.950873 -0.0589155 0)
(0.951812 -0.0734217 0)
(0.952672 -0.0885131 0)
(0.952604 -0.104691 0)
(0.951413 -0.123521 0)
(0.959087 -0.147026 0)
(0.97996 -0.163594 0)
(0.931953 -0.179589 0)
(0.927023 -0.14849 0)
(0.919746 -0.128568 0)
(0.909431 -0.107718 0)
(0.899664 -0.0820258 0)
(0.891409 -0.05098 0)
(0.885429 -0.0146346 0)
(0.879963 0.027085 0)
(0.856652 0.08235 0)
(0.348867 2.3116 0)
(-0.853033 7.31807 0)
(-0.700573 11.7936 0)
(-0.30966 15.186 0)
(0.88496 -0.568185 0)
(0.907564 -0.528676 0)
(0.925852 -0.484472 0)
(0.939564 -0.436472 0)
(0.948642 -0.385802 0)
(0.953254 -0.33373 0)
(0.953759 -0.281567 0)
(0.950613 -0.23063 0)
(0.944317 -0.182268 0)
(0.935485 -0.137913 0)
(0.924929 -0.0989488 0)
(0.913598 -0.066461 0)
(0.902426 -0.0411426 0)
(0.892246 -0.0233102 0)
(0.883734 -0.0129104 0)
(0.8774 -0.00956518 0)
(0.873649 -0.0126195 0)
(0.872817 -0.0210097 0)
(0.875003 -0.0332518 0)
(0.879885 -0.0476355 0)
(0.886538 -0.0625699 0)
(0.893801 -0.077463 0)
(0.900848 -0.0925747 0)
(0.906649 -0.107854 0)
(0.912404 -0.123994 0)
(0.936231 -0.14391 0)
(0.908275 -0.188417 0)
(0.894996 -0.160093 0)
(0.888843 -0.135814 0)
(0.881706 -0.119032 0)
(0.872719 -0.0990847 0)
(0.864748 -0.0741504 0)
(0.858474 -0.044224 0)
(0.854021 -0.00868966 0)
(0.849535 0.0383865 0)
(0.82788 0.184916 0)
(-0.191779 3.34438 0)
(-0.98968 7.4897 0)
(-0.931905 11.6679 0)
(-0.478512 14.4773 0)
(0.819142 -0.591178 0)
(0.838335 -0.547458 0)
(0.85298 -0.498696 0)
(0.862873 -0.446012 0)
(0.868065 -0.390772 0)
(0.868885 -0.334474 0)
(0.86587 -0.27857 0)
(0.859605 -0.224426 0)
(0.850626 -0.17344 0)
(0.839593 -0.127195 0)
(0.82743 -0.0873054 0)
(0.815268 -0.0549251 0)
(0.80418 -0.0306428 0)
(0.795052 -0.0146167 0)
(0.788526 -0.00659689 0)
(0.784987 -0.00605049 0)
(0.78478 -0.0122759 0)
(0.788339 -0.0240937 0)
(0.795863 -0.0396391 0)
(0.806921 -0.0566505 0)
(0.819859 -0.073047 0)
(0.833026 -0.0886727 0)
(0.846365 -0.104207 0)
(0.859773 -0.117125 0)
(0.878935 -0.1265 0)
(0.910888 -0.143626 0)
(0.853998 -0.168465 0)
(0.851525 -0.143301 0)
(0.84788 -0.127127 0)
(0.841334 -0.111769 0)
(0.834579 -0.092205 0)
(0.828677 -0.0677236 0)
(0.824468 -0.0381692 0)
(0.820862 -0.00404207 0)
(0.807423 0.0497619 0)
(0.517893 1.11079 0)
(-0.55722 4.11582 0)
(-0.99717 7.65278 0)
(-1.00104 11.4706 0)
(-0.540553 13.6648 0)
(0.75186 -0.610935 0)
(0.767508 -0.562724 0)
(0.778389 -0.509158 0)
(0.784352 -0.451622 0)
(0.785559 -0.39179 0)
(0.782541 -0.331446 0)
(0.776064 -0.272158 0)
(0.766834 -0.215267 0)
(0.755349 -0.162161 0)
(0.742334 -0.114569 0)
(0.728782 -0.0744378 0)
(0.716012 -0.0430353 0)
(0.705306 -0.0207631 0)
(0.697634 -0.00754465 0)
(0.693529 -0.0027915 0)
(0.69306 -0.00576141 0)
(0.696387 -0.0159202 0)
(0.704148 -0.0321465 0)
(0.716828 -0.0521475 0)
(0.733835 -0.0729069 0)
(0.752551 -0.0901938 0)
(0.76981 -0.105069 0)
(0.788672 -0.1187 0)
(0.807767 -0.120686 0)
(0.844149 -0.107958 0)
(0.809347 -0.16982 0)
(0.808745 -0.150818 0)
(0.807944 -0.134397 0)
(0.80454 -0.122188 0)
(0.800016 -0.10702 0)
(0.795873 -0.0873541 0)
(0.79269 -0.0627025 0)
(0.790955 -0.0330945 0)
(0.786182 0.00370007 0)
(0.735709 0.131414 0)
(-0.0742968 2.04318 0)
(-0.81108 4.67327 0)
(-1.03526 7.82258 0)
(-1.02095 11.2619 0)
(-0.546786 12.8593 0)
(0.683803 -0.627351 0)
(0.696001 -0.574382 0)
(0.703243 -0.515774 0)
(0.705427 -0.453236 0)
(0.702821 -0.388815 0)
(0.696206 -0.324684 0)
(0.686611 -0.262474 0)
(0.674797 -0.203265 0)
(0.661313 -0.148468 0)
(0.646979 -0.100151 0)
(0.632561 -0.0605705 0)
(0.619392 -0.0310709 0)
(0.609522 -0.0119241 0)
(0.604022 -0.00266404 0)
(0.603217 -0.00203465 0)
(0.606416 -0.00889824 0)
(0.61324 -0.0233901 0)
(0.624682 -0.0448526 0)
(0.641854 -0.0703441 0)
(0.664717 -0.0943498 0)
(0.688854 -0.108719 0)
(0.709868 -0.115458 0)
(0.736327 -0.118295 0)
(0.744762 -0.132447 0)
(0.755869 -0.173748 0)
(0.762024 -0.158623 0)
(0.763947 -0.142693 0)
(0.763118 -0.132311 0)
(0.76124 -0.120332 0)
(0.759369 -0.104459 0)
(0.757851 -0.0840327 0)
(0.757632 -0.058715 0)
(0.756148 -0.0314195 0)
(0.738771 0.0106728 0)
(0.236125 0.989316 0)
(-0.433048 2.67286 0)
(-0.913461 5.04493 0)
(-1.06983 7.92385 0)
(-1.01836 11.0048 0)
(-0.532828 12.0705 0)
(0.615865 -0.640556 0)
(0.624974 -0.582614 0)
(0.629008 -0.518771 0)
(0.627904 -0.451108 0)
(0.622001 -0.382143 0)
(0.612446 -0.314692 0)
(0.60069 -0.250361 0)
(0.587711 -0.189719 0)
(0.573968 -0.133544 0)
(0.558779 -0.0840585 0)
(0.542898 -0.0453822 0)
(0.529593 -0.0192428 0)
(0.521351 -0.00481797 0)
(0.519405 -0.00112174 0)
(0.523829 -0.00555041 0)
(0.532283 -0.0160221 0)
(0.543095 -0.0343203 0)
(0.558037 -0.0606461 0)
(0.579995 -0.0898656 0)
(0.60975 -0.11306 0)
(0.643762 -0.115987 0)
(0.675309 -0.122114 0)
(0.680879 -0.173455 0)
(0.703996 -0.1794 0)
(0.714042 -0.165841 0)
(0.717743 -0.152172 0)
(0.719074 -0.143549 0)
(0.719784 -0.133702 0)
(0.720363 -0.120481 0)
(0.72114 -0.103209 0)
(0.723133 -0.081237 0)
(0.725351 -0.0587331 0)
(0.721681 -0.0302649 0)
(0.412396 0.510043 0)
(-0.0863141 1.53534 0)
(-0.605342 3.12621 0)
(-0.94789 5.34722 0)
(-1.0937 7.94609 0)
(-1.00304 10.7015 0)
(-0.514978 11.2886 0)
(0.549054 -0.650966 0)
(0.55572 -0.587934 0)
(0.55731 -0.518748 0)
(0.553786 -0.445921 0)
(0.545444 -0.372551 0)
(0.534093 -0.302812 0)
(0.522559 -0.237336 0)
(0.509715 -0.175061 0)
(0.494788 -0.117656 0)
(0.477985 -0.0677011 0)
(0.461701 -0.0303652 0)
(0.450259 -0.00875553 0)
(0.445641 -0.00116819 0)
(0.450103 -0.00554602 0)
(0.463909 -0.0163623 0)
(0.481601 -0.0292263 0)
(0.499342 -0.0499192 0)
(0.521597 -0.0805831 0)
(0.557406 -0.114982 0)
(0.593229 -0.165967 0)
(0.613518 -0.179815 0)
(0.640375 -0.187463 0)
(0.657414 -0.184161 0)
(0.667283 -0.172161 0)
(0.671562 -0.162923 0)
(0.674951 -0.156612 0)
(0.677929 -0.148086 0)
(0.680694 -0.136126 0)
(0.683736 -0.120666 0)
(0.688096 -0.101001 0)
(0.69296 -0.0836388 0)
(0.695561 -0.06267 0)
(0.487429 0.280677 0)
(0.131079 0.941387 0)
(-0.29029 1.94102 0)
(-0.697437 3.52257 0)
(-1.00296 5.60102 0)
(-1.11543 7.93582 0)
(-0.988948 10.3764 0)
(-0.501824 10.5144 0)
(0.484353 -0.659283 0)
(0.489483 -0.591182 0)
(0.489686 -0.51668 0)
(0.484948 -0.438781 0)
(0.475145 -0.361296 0)
(0.464384 -0.290801 0)
(0.453534 -0.224779 0)
(0.44045 -0.159848 0)
(0.423858 -0.0999465 0)
(0.406668 -0.0506424 0)
(0.393199 -0.0173406 0)
(0.386446 -0.00235479 0)
(0.388416 -0.00416126 0)
(0.403689 -0.0204478 0)
(0.433125 -0.0402935 0)
(0.466167 -0.0532967 0)
(0.496532 -0.0750246 0)
(0.533525 -0.118357 0)
(0.581679 -0.183901 0)
(0.593893 -0.187864 0)
(0.606441 -0.189753 0)
(0.617507 -0.184839 0)
(0.623692 -0.178739 0)
(0.628624 -0.17543 0)
(0.633626 -0.171141 0)
(0.638164 -0.163097 0)
(0.6428 -0.15162 0)
(0.648081 -0.135557 0)
(0.654755 -0.119077 0)
(0.662378 -0.107382 0)
(0.669145 -0.0914203 0)
(0.491898 0.140294 0)
(0.256178 0.614715 0)
(-0.0481637 1.2753 0)
(-0.42845 2.32842 0)
(-0.798587 3.91415 0)
(-1.0656 5.79825 0)
(-1.13649 7.90002 0)
(-0.979615 10.0346 0)
(-0.492315 9.74847 0)
(0.422564 -0.666459 0)
(0.427269 -0.59348 0)
(0.427345 -0.51381 0)
(0.422719 -0.431005 0)
(0.412811 -0.349672 0)
(0.403522 -0.279478 0)
(0.393597 -0.2126 0)
(0.380716 -0.144438 0)
(0.366224 -0.0819644 0)
(0.35265 -0.0353373 0)
(0.344612 -0.00903188 0)
(0.345745 -0.00311824 0)
(0.357978 -0.0166879 0)
(0.389834 -0.0513395 0)
(0.440311 -0.0872458 0)
(0.490154 -0.0899867 0)
(0.529618 -0.097304 0)
(0.572064 -0.181049 0)
(0.576138 -0.185545 0)
(0.580831 -0.184392 0)
(0.584164 -0.184602 0)
(0.588278 -0.186976 0)
(0.593294 -0.188059 0)
(0.598024 -0.184697 0)
(0.603088 -0.177076 0)
(0.608677 -0.164548 0)
(0.616275 -0.149502 0)
(0.625559 -0.139204 0)
(0.635783 -0.132305 0)
(0.643514 -0.113762 0)
(0.505784 0.0785991 0)
(0.26732 0.377079 0)
(0.0276418 0.873381 0)
(-0.237071 1.59221 0)
(-0.59064 2.74208 0)
(-0.929672 4.23714 0)
(-1.13177 5.94566 0)
(-1.16077 7.83433 0)
(-0.974482 9.66986 0)
(-0.482349 8.98635 0)
(0.364173 -0.673655 0)
(0.369717 -0.596184 0)
(0.371105 -0.511613 0)
(0.368034 -0.424073 0)
(0.359759 -0.339226 0)
(0.352058 -0.269747 0)
(0.344534 -0.202323 0)
(0.336064 -0.131464 0)
(0.327046 -0.0689435 0)
(0.319576 -0.026732 0)
(0.321094 -0.0103307 0)
(0.33709 -0.0166243 0)
(0.367212 -0.0443132 0)
(0.429251 -0.108193 0)
(0.499965 -0.186508 0)
(0.553661 -0.151417 0)
(0.568916 -0.167517 0)
(0.561586 -0.171521 0)
(0.560777 -0.177894 0)
(0.561866 -0.186118 0)
(0.564171 -0.193024 0)
(0.567089 -0.195708 0)
(0.570628 -0.194015 0)
(0.574939 -0.187041 0)
(0.58141 -0.175546 0)
(0.5898 -0.167048 0)
(0.600461 -0.163768 0)
(0.616153 -0.152441 0)
(0.614437 -0.153203 0)
(0.524164 0.0125628 0)
(0.371059 0.274941 0)
(0.131265 0.622857 0)
(-0.17312 1.13498 0)
(-0.465192 1.96097 0)
(-0.790368 3.10759 0)
(-1.0607 4.48483 0)
(-1.20109 6.04173 0)
(-1.19076 7.73477 0)
(-0.973329 9.27771 0)
(-0.47112 8.22462 0)
(0.309198 -0.682165 0)
(0.316907 -0.600866 0)
(0.321213 -0.511866 0)
(0.321459 -0.419768 0)
(0.31667 -0.331222 0)
(0.312285 -0.262659 0)
(0.308977 -0.197055 0)
(0.306949 -0.125618 0)
(0.305982 -0.0634537 0)
(0.306758 -0.0284509 0)
(0.323572 -0.030613 0)
(0.367529 -0.0603088 0)
(0.433499 -0.115752 0)
(0.567295 -0.21578 0)
(0.570752 -0.18351 0)
(0.564907 -0.151311 0)
(0.552306 -0.152534 0)
(0.546156 -0.162725 0)
(0.545773 -0.178577 0)
(0.547506 -0.189783 0)
(0.550193 -0.195868 0)
(0.553064 -0.19695 0)
(0.556944 -0.192683 0)
(0.562765 -0.18793 0)
(0.571057 -0.187979 0)
(0.583813 -0.181865 0)
(0.610869 -0.192785 0)
(0.611457 -0.186539 0)
(0.52776 -0.0522712 0)
(0.375485 0.176163 0)
(0.183571 0.508502 0)
(-0.0560916 0.939183 0)
(-0.360288 1.50211 0)
(-0.673212 2.31974 0)
(-0.965854 3.39552 0)
(-1.17518 4.66981 0)
(-1.26867 6.08955 0)
(-1.22389 7.5998 0)
(-0.974125 8.85458 0)
(-0.458933 7.46238 0)
(0.257063 -0.693277 0)
(0.268133 -0.609188 0)
(0.276917 -0.516613 0)
(0.282467 -0.420402 0)
(0.283886 -0.327665 0)
(0.284347 -0.260143 0)
(0.286806 -0.199234 0)
(0.291852 -0.129285 0)
(0.29934 -0.0661368 0)
(0.307405 -0.0413694 0)
(0.342365 -0.0768914 0)
(0.422817 -0.146307 0)
(0.542895 -0.250212 0)
(0.54256 -0.213365 0)
(0.537661 -0.175102 0)
(0.533427 -0.147923 0)
(0.527776 -0.139041 0)
(0.526443 -0.158366 0)
(0.528459 -0.176932 0)
(0.536584 -0.185575 0)
(0.543484 -0.190853 0)
(0.549396 -0.194232 0)
(0.555617 -0.198565 0)
(0.563471 -0.202254 0)
(0.578615 -0.203296 0)
(0.601024 -0.247633 0)
(0.565043 -0.193605 0)
(0.472604 -0.07102 0)
(0.326019 0.119381 0)
(0.140649 0.390026 0)
(-0.0720017 0.754645 0)
(-0.314165 1.22297 0)
(-0.59312 1.8269 0)
(-0.877433 2.62861 0)
(-1.1199 3.63688 0)
(-1.27907 4.8079 0)
(-1.33337 6.0965 0)
(-1.25561 7.42928 0)
(-0.971955 8.39673 0)
(-0.443331 6.70179 0)
(0.206584 -0.708036 0)
(0.221828 -0.622595 0)
(0.236236 -0.527798 0)
(0.248724 -0.428528 0)
(0.259011 -0.332047 0)
(0.265628 -0.262976 0)
(0.273185 -0.207521 0)
(0.286326 -0.1455 0)
(0.302958 -0.0784305 0)
(0.317825 -0.0621889 0)
(0.381172 -0.151148 0)
(0.498379 -0.28525 0)
(0.502691 -0.251269 0)
(0.501115 -0.207472 0)
(0.499582 -0.174227 0)
(0.497916 -0.147622 0)
(0.495047 -0.134482 0)
(0.493089 -0.149363 0)
(0.505931 -0.193636 0)
(0.532664 -0.198402 0)
(0.544942 -0.202326 0)
(0.552891 -0.205942 0)
(0.560699 -0.208976 0)
(0.573494 -0.24087 0)
(0.555912 -0.232412 0)
(0.488902 -0.170596 0)
(0.375382 -0.0616061 0)
(0.22979 0.0963135 0)
(0.0555591 0.317853 0)
(-0.142409 0.616 0)
(-0.358415 1.00364 0)
(-0.590509 1.49488 0)
(-0.836051 2.11408 0)
(-1.07229 2.89277 0)
(-1.26206 3.83208 0)
(-1.3751 4.90287 0)
(-1.39145 6.06521 0)
(-1.27824 7.22115 0)
(-0.959008 7.90159 0)
(-0.418921 5.95096 0)
(0.156139 -0.727004 0)
(0.175808 -0.64196 0)
(0.196315 -0.546667 0)
(0.216631 -0.445828 0)
(0.237392 -0.346185 0)
(0.25169 -0.272628 0)
(0.265597 -0.22186 0)
(0.287968 -0.172505 0)
(0.318767 -0.112723 0)
(0.346421 -0.111326 0)
(0.453392 -0.29536 0)
(0.460244 -0.286034 0)
(0.459081 -0.244736 0)
(0.458221 -0.209543 0)
(0.457789 -0.177089 0)
(0.455827 -0.149256 0)
(0.453758 -0.1304 0)
(0.444627 -0.123442 0)
(0.363578 -0.271047 0)
(0.443452 -0.248589 0)
(0.514825 -0.231253 0)
(0.53461 -0.236672 0)
(0.515823 -0.236433 0)
(0.464129 -0.189416 0)
(0.374164 -0.121408 0)
(0.254113 -0.0291097 0)
(0.108307 0.103657 0)
(-0.0575572 0.28608 0)
(-0.241118 0.529799 0)
(-0.438751 0.845963 0)
(-0.645577 1.24673 0)
(-0.856737 1.74565 0)
(-1.06457 2.35961 0)
(-1.25079 3.10376 0)
(-1.38907 3.97522 0)
(-1.45638 4.95217 0)
(-1.43284 5.9926 0)
(-1.28048 6.97055 0)
(-0.925972 7.37052 0)
(-0.380361 5.22622 0)
(0.103926 -0.750147 0)
(0.127688 -0.667439 0)
(0.154124 -0.573607 0)
(0.18226 -0.473247 0)
(0.211647 -0.373811 0)
(0.237689 -0.291357 0)
(0.260793 -0.24363 0)
(0.288216 -0.211677 0)
(0.327433 -0.163549 0)
(0.374459 -0.156948 0)
(0.413265 -0.322661 0)
(0.413344 -0.287135 0)
(0.412684 -0.247122 0)
(0.412788 -0.210073 0)
(0.411658 -0.175831 0)
(0.408747 -0.144446 0)
(0.40628 -0.115821 0)
(0.402339 -0.0864113 0)
(0.351557 -0.232651 0)
(0.329867 -0.354371 0)
(0.35154 -0.298877 0)
(0.345659 -0.223247 0)
(0.299298 -0.152993 0)
(0.21577 -0.0779598 0)
(0.102836 0.0143531 0)
(-0.0327254 0.131117 0)
(-0.187448 0.284615 0)
(-0.357373 0.485104 0)
(-0.538656 0.742661 0)
(-0.72651 1.06742 0)
(-0.915188 1.47033 0)
(-1.09795 1.96298 0)
(-1.26541 2.55685 0)
(-1.40261 3.25901 0)
(-1.49063 4.06444 0)
(-1.51145 4.95255 0)
(-1.4451 5.87351 0)
(-1.25082 6.67339 0)
(-0.865675 6.81211 0)
(-0.32603 4.55042 0)
(0.0481357 -0.776823 0)
(0.075077 -0.698552 0)
(0.106728 -0.608298 0)
(0.142101 -0.510231 0)
(0.179376 -0.411699 0)
(0.216289 -0.32619 0)
(0.252828 -0.27374 0)
(0.279361 -0.248849 0)
(0.309058 -0.212459 0)
(0.349776 -0.194862 0)
(0.362881 -0.330942 0)
(0.362505 -0.28964 0)
(0.362585 -0.247866 0)
(0.362695 -0.209115 0)
(0.3608 -0.17324 0)
(0.357589 -0.138838 0)
(0.355203 -0.104174 0)
(0.353836 -0.0686301 0)
(0.329755 -0.184002 0)
(0.278539 -0.283818 0)
(0.212147 -0.238591 0)
(0.13825 -0.153476 0)
(0.0500811 -0.0585677 0)
(-0.0570149 0.0441174 0)
(-0.182494 0.16062 0)
(-0.324417 0.298819 0)
(-0.480159 0.469254 0)
(-0.646013 0.681893 0)
(-0.817245 0.945929 0)
(-0.988204 1.27062 0)
(-1.15229 1.66568 0)
(-1.30186 2.14086 0)
(-1.42745 2.70441 0)
(-1.51681 3.35952 0)
(-1.55573 4.09942 0)
(-1.52941 4.90106 0)
(-1.41817 5.70387 0)
(-1.18254 6.3305 0)
(-0.776832 6.24316 0)
(-0.259801 3.94763 0)
(-0.0129725 -0.805634 0)
(0.0153882 -0.734052 0)
(0.050536 -0.649884 0)
(0.0916796 -0.556504 0)
(0.136474 -0.460113 0)
(0.183697 -0.37181 0)
(0.228053 -0.313371 0)
(0.253933 -0.281041 0)
(0.276456 -0.24414 0)
(0.303549 -0.219379 0)
(0.309586 -0.3331 0)
(0.309208 -0.28954 0)
(0.309527 -0.24758 0)
(0.3097 -0.208019 0)
(0.308002 -0.170414 0)
(0.306361 -0.133402 0)
(0.305702 -0.0987114 0)
(0.306322 -0.062173 0)
(0.287417 -0.162442 0)
(0.185855 -0.176769 0)
(0.0587937 -0.122753 0)
(-0.0649193 -0.0343331 0)
(-0.187944 0.0705875 0)
(-0.316032 0.18732 0)
(-0.452074 0.318231 0)
(-0.596748 0.469868 0)
(-0.748743 0.650594 0)
(-0.904755 0.868641 0)
(-1.06001 1.13194 0)
(-1.20862 1.44862 0)
(-1.3437 1.82725 0)
(-1.45753 2.27628 0)
(-1.54124 2.8022 0)
(-1.5846 3.40628 0)
(-1.57625 4.07993 0)
(-1.50354 4.796 0)
(-1.34831 5.48325 0)
(-1.07706 5.94984 0)
(-0.665414 5.68611 0)
(-0.189837 3.43669 0)
(-0.080627 -0.834145 0)
(-0.0536227 -0.771314 0)
(-0.0181687 -0.695813 0)
(0.025461 -0.609984 0)
(0.0754238 -0.518182 0)
(0.130301 -0.427544 0)
(0.183207 -0.354872 0)
(0.211186 -0.310583 0)
(0.232769 -0.269599 0)
(0.26174 -0.241227 0)
(0.253891 -0.334125 0)
(0.252938 -0.292062 0)
(0.254199 -0.246629 0)
(0.256007 -0.206425 0)
(0.256846 -0.166762 0)
(0.258551 -0.129566 0)
(0.260065 -0.0987012 0)
(0.261208 -0.0613975 0)
(0.171079 -0.0475769 0)
(0.0278577 -0.0180953 0)
(-0.125494 0.0406828 0)
(-0.272984 0.124568 0)
(-0.414677 0.227486 0)
(-0.554071 0.346411 0)
(-0.694088 0.482236 0)
(-0.835918 0.639038 0)
(-0.978648 0.822567 0)
(-1.11938 1.03896 0)
(-1.25369 1.29456 0)
(-1.37595 1.59623 0)
(-1.47961 1.95154 0)
(-1.55728 2.36798 0)
(-1.60085 2.85105 0)
(-1.60143 3.40093 0)
(-1.54937 4.00733 0)
(-1.43388 4.63897 0)
(-1.24008 5.21695 0)
(-0.944185 5.54609 0)
(-0.543039 5.16372 0)
(-0.125344 3.02612 0)
(-0.15474 -0.858926 0)
(-0.132566 -0.806175 0)
(-0.101148 -0.741258 0)
(-0.0601732 -0.665556 0)
(-0.0104882 -0.581731 0)
(0.045988 -0.493546 0)
(0.109272 -0.408097 0)
(0.152951 -0.342609 0)
(0.180135 -0.292864 0)
(0.212355 -0.259162 0)
(0.200628 -0.30416 0)
(0.193414 -0.295641 0)
(0.197206 -0.246071 0)
(0.203617 -0.200787 0)
(0.210037 -0.163287 0)
(0.215495 -0.13505 0)
(0.216713 -0.098992 0)
(0.0886868 0.0413212 0)
(-0.0349086 0.112563 0)
(-0.18463 0.162575 0)
(-0.338039 0.220805 0)
(-0.486665 0.297628 0)
(-0.629328 0.394282 0)
(-0.767206 0.509596 0)
(-0.901637 0.643688 0)
(-1.03298 0.798747 0)
(-1.16011 0.97836 0)
(-1.28037 1.18677 0)
(-1.38983 1.42881 0)
(-1.48345 1.71014 0)
(-1.55528 2.03732 0)
(-1.59851 2.41698 0)
(-1.60563 2.85391 0)
(-1.56859 3.34758 0)
(-1.47892 3.88642 0)
(-1.32791 4.43658 0)
(-1.10549 4.91633 0)
(-0.79929 5.13777 0)
(-0.423407 4.69386 0)
(-0.0733099 2.71263 0)
(-0.233384 -0.876168 0)
(-0.219421 -0.833717 0)
(-0.1965 -0.780086 0)
(-0.163887 -0.715913 0)
(-0.121599 -0.642761 0)
(-0.0703612 -0.562943 0)
(-0.0112391 -0.47947 0)
(0.0500888 -0.398104 0)
(0.106814 -0.333168 0)
(0.151552 -0.292352 0)
(0.175452 -0.28074 0)
(0.168935 -0.288084 0)
(0.141335 -0.258025 0)
(0.151313 -0.213807 0)
(0.167807 -0.175769 0)
(0.146264 -0.13811 0)
(-0.0322813 0.0592802 0)
(-0.156929 0.2032 0)
(-0.286557 0.282152 0)
(-0.423 0.336226 0)
(-0.560123 0.392421 0)
(-0.694455 0.463821 0)
(-0.824328 0.554209 0)
(-0.949104 0.663603 0)
(-1.06849 0.791959 0)
(-1.18183 0.940411 0)
(-1.28765 1.11112 0)
(-1.38351 1.30695 0)
(-1.46596 1.53151 0)
(-1.53068 1.78933 0)
(-1.57235 2.08588 0)
(-1.58477 2.42687 0)
(-1.56095 2.81638 0)
(-1.49346 3.25343 0)
(-1.37485 3.7261 0)
(-1.19869 4.20035 0)
(-0.960462 4.59692 0)
(-0.658645 4.74306 0)
(-0.31845 4.28634 0)
(-0.0367835 2.4833 0)
(-0.313006 -0.882567 0)
(-0.309778 -0.849481 0)
(-0.298839 -0.806476 0)
(-0.279254 -0.753696 0)
(-0.250551 -0.692024 0)
(-0.21281 -0.623166 0)
(-0.166558 -0.549948 0)
(-0.113307 -0.477245 0)
(-0.0564374 -0.410505 0)
(-0.000417773 -0.353967 0)
(0.0391627 -0.315158 0)
(0.0614033 -0.283823 0)
(0.0601283 -0.263981 0)
(0.0413181 -0.243477 0)
(-0.0601464 -0.158473 0)
(-0.191524 0.0536277 0)
(-0.330997 0.236812 0)
(-0.442841 0.356598 0)
(-0.550431 0.430393 0)
(-0.659806 0.484798 0)
(-0.770732 0.540467 0)
(-0.881218 0.60885 0)
(-0.988978 0.694119 0)
(-1.09219 0.796995 0)
(-1.18948 0.917634 0)
(-1.27951 1.05676 0)
(-1.36058 1.21577 0)
(-1.4304 1.39663 0)
(-1.48601 1.60196 0)
(-1.52365 1.83527 0)
(-1.53866 2.10089 0)
(-1.52541 2.40347 0)
(-1.47747 2.74635 0)
(-1.38802 3.12842 0)
(-1.25067 3.53845 0)
(-1.06127 3.94479 0)
(-0.820359 4.27509 0)
(-0.535054 4.37605 0)
(-0.235535 3.9425 0)
(-0.0149985 2.31966 0)
(-0.389173 -0.876002 0)
(-0.397885 -0.850405 0)
(-0.400818 -0.816175 0)
(-0.397073 -0.773134 0)
(-0.386055 -0.721646 0)
(-0.367615 -0.662744 0)
(-0.342209 -0.598307 0)
(-0.311282 -0.53134 0)
(-0.278142 -0.465733 0)
(-0.248176 -0.404344 0)
(-0.23049 -0.348011 0)
(-0.235979 -0.290126 0)
(-0.270125 -0.216666 0)
(-0.336063 -0.106663 0)
(-0.438652 0.0481726 0)
(-0.548498 0.217182 0)
(-0.640302 0.365155 0)
(-0.717575 0.469973 0)
(-0.792122 0.541656 0)
(-0.869429 0.598549 0)
(-0.95011 0.656166 0)
(-1.03223 0.723777 0)
(-1.11314 0.805357 0)
(-1.19051 0.902172 0)
(-1.26246 1.01477 0)
(-1.32731 1.14385 0)
(-1.38325 1.29043 0)
(-1.42812 1.4559 0)
(-1.45929 1.64213 0)
(-1.47347 1.85168 0)
(-1.46657 2.08778 0)
(-1.4336 2.354 0)
(-1.3688 2.65297 0)
(-1.26609 2.98372 0)
(-1.1202 3.33668 0)
(-0.928904 3.68458 0)
(-0.696422 3.96487 0)
(-0.435454 4.04484 0)
(-0.176523 3.65681 0)
(-0.00469187 2.20196 0)
(-0.457422 -0.85588 0)
(-0.477813 -0.835325 0)
(-0.494661 -0.807208 0)
(-0.507283 -0.771109 0)
(-0.515243 -0.726959 0)
(-0.518503 -0.675117 0)
(-0.517653 -0.616433 0)
(-0.514287 -0.55224 0)
(-0.511461 -0.483981 0)
(-0.513856 -0.412121 0)
(-0.527947 -0.335089 0)
(-0.560468 -0.247052 0)
(-0.614419 -0.138818 0)
(-0.686238 -0.0034401 0)
(-0.765965 0.153129 0)
(-0.8375 0.310191 0)
(-0.892709 0.441988 0)
(-0.938284 0.540463 0)
(-0.982709 0.613806 0)
(-1.03054 0.675369 0)
(-1.0824 0.736728 0)
(-1.13659 0.805239 0)
(-1.19067 0.884621 0)
(-1.24238 0.976572 0)
(-1.28976 1.08203 0)
(-1.33099 1.20179 0)
(-1.36424 1.33669 0)
(-1.38745 1.48773 0)
(-1.39821 1.65619 0)
(-1.39362 1.84383 0)
(-1.37012 2.05294 0)
(-1.32343 2.28611 0)
(-1.24856 2.54536 0)
(-1.14038 2.83006 0)
(-0.994658 3.13289 0)
(-0.810546 3.43206 0)
(-0.594224 3.676 0)
(-0.360884 3.75159 0)
(-0.138697 3.41945 0)
(-0.00179847 2.11271 0)
(-0.514015 -0.823177 0)
(-0.544476 -0.805138 0)
(-0.573477 -0.780273 0)
(-0.600584 -0.747952 0)
(-0.625562 -0.707734 0)
(-0.648501 -0.659383 0)
(-0.669982 -0.602863 0)
(-0.69129 -0.538245 0)
(-0.714568 -0.465432 0)
(-0.742748 -0.383661 0)
(-0.779119 -0.291101 0)
(-0.825964 -0.184588 0)
(-0.882234 -0.0610565 0)
(-0.941935 0.0786235 0)
(-0.996018 0.225717 0)
(-1.03717 0.365382 0)
(-1.06539 0.483714 0)
(-1.08693 0.577672 0)
(-1.1081 0.653239 0)
(-1.1324 0.719643 0)
(-1.16041 0.785152 0)
(-1.1909 0.855464 0)
(-1.22197 0.933943 0)
(-1.25167 1.02249 0)
(-1.27817 1.12226 0)
(-1.29969 1.23411 0)
(-1.31443 1.35876 0)
(-1.32042 1.49693 0)
(-1.31548 1.6495 0)
(-1.29706 1.81762 0)
(-1.26214 2.00281 0)
(-1.2071 2.2069 0)
(-1.12787 2.43142 0)
(-1.02028 2.67625 0)
(-0.881068 2.93641 0)
(-0.710136 3.19575 0)
(-0.514098 3.41347 0)
(-0.308111 3.49401 0)
(-0.116817 3.21914 0)
(-0.00282047 2.0387 0)
(-0.556522 -0.780175 0)
(-0.59452 -0.762511 0)
(-0.632642 -0.738477 0)
(-0.670611 -0.707282 0)
(-0.70828 -0.668213 0)
(-0.7457 -0.62063 0)
(-0.783194 -0.563953 0)
(-0.821417 -0.497619 0)
(-0.861323 -0.420979 0)
(-0.903952 -0.333218 0)
(-0.949971 -0.233409 0)
(-0.998794 -0.120883 0)
(-1.0476 0.00367332 0)
(-1.0915 0.136497 0)
(-1.12523 0.26974 0)
(-1.14636 0.393653 0)
(-1.15728 0.501179 0)
(-1.16316 0.59149 0)
(-1.16868 0.668737 0)
(-1.17649 0.739071 0)
(-1.18722 0.808248 0)
(-1.20012 0.880601 0)
(-1.21383 0.959013 0)
(-1.22677 1.04533 0)
(-1.23735 1.14074 0)
(-1.24391 1.24608 0)
(-1.24477 1.36197 0)
(-1.23812 1.48897 0)
(-1.22202 1.62763 0)
(-1.19427 1.77868 0)
(-1.15235 1.94313 0)
(-1.09334 2.12224 0)
(-1.01402 2.31724 0)
(-0.911136 2.52849 0)
(-0.782212 2.75315 0)
(-0.627446 2.98017 0)
(-0.452827 3.1784 0)
(-0.271825 3.26746 0)
(-0.105267 3.04554 0)
(-0.00543501 1.97138 0)
(-0.58409 -0.729914 0)
(-0.626736 -0.711138 0)
(-0.670472 -0.686313 0)
(-0.715052 -0.654567 0)
(-0.760274 -0.615054 0)
(-0.806001 -0.566962 0)
(-0.852166 -0.50952 0)
(-0.898746 -0.442035 0)
(-0.945672 -0.363929 0)
(-0.992644 -0.274843 0)
(-1.03885 -0.174856 0)
(-1.08264 -0.0648453 0)
(-1.12132 0.0529365 0)
(-1.15183 0.174341 0)
(-1.17177 0.293522 0)
(-1.18109 0.404511 0)
(-1.18242 0.503646 0)
(-1.17963 0.590871 0)
(-1.17612 0.66897 0)
(-1.17391 0.742 0)
(-1.17364 0.813946 0)
(-1.17492 0.888041 0)
(-1.17684 0.966635 0)
(-1.17816 1.05135 0)
(-1.17754 1.14327 0)
(-1.17356 1.24316 0)
(-1.1647 1.35156 0)
(-1.14938 1.46886 0)
(-1.12593 1.59546 0)
(-1.09248 1.73179 0)
(-1.04701 1.87851 0)
(-0.987212 2.03652 0)
(-0.910617 2.20691 0)
(-0.814754 2.39041 0)
(-0.697747 2.58596 0)
(-0.559784 2.78664 0)
(-0.405723 2.96941 0)
(-0.246564 3.06677 0)
(-0.0994518 2.89067 0)
(-0.00838308 1.90603 0)
(-0.597329 -0.675587 0)
(-0.641898 -0.65489 0)
(-0.687977 -0.628463 0)
(-0.735268 -0.595444 0)
(-0.783443 -0.554987 0)
(-0.832135 -0.506288 0)
(-0.880914 -0.448631 0)
(-0.929251 -0.381455 0)
(-0.976447 -0.304463 0)
(-1.02154 -0.217766 0)
(-1.06322 -0.122077 0)
(-1.09981 -0.0189197 0)
(-1.12943 0.089189 0)
(-1.1504 0.198723 0)
(-1.162 0.305595 0)
(-1.16507 0.406206 0)
(-1.16182 0.498588 0)
(-1.15506 0.582887 0)
(-1.14718 0.660935 0)
(-1.1397 0.735403 0)
(-1.1332 0.809036 0)
(-1.12751 0.884205 0)
(-1.12201 0.962741 0)
(-1.11579 1.04597 0)