/*--------------------------------*- C++ -*----------------------------------*\
| =========                 |                                                 |
| \\      /  F ield         | OpenFOAM: The Open Source CFD Toolbox           |
|  \\    /   O peration     | Version:  5.0                                   |
|   \\  /    A nd           | Web:      www.OpenFOAM.org                      |
|    \\/     M anipulation  |                                                 |
\*---------------------------------------------------------------------------*/
FoamFile
{
    version     2.0;
    format      ascii;
    class       surfaceScalarField;
    location    "0.1";
    object      alphaPhi10;
}
// * * * * * * * * * * * * * * * * * * * * * * * * * * * * * * * * * * * * * //

dimensions      [0 3 -1 0 0 0 0];

internalField   nonuniform List<scalar> 
3782
(
2.3842e-35
4.72966e-37
2.77567e-36
-4.84425e-40
3.1499e-37
-8.12703e-39
3.45493e-38
-1.80958e-39
3.63025e-39
-2.9135e-40
3.64759e-40
-4.00564e-41
3.49645e-41
-4.94609e-42
3.18903e-42
-5.60255e-43
2.76011e-43
-5.88071e-44
2.26063e-44
-5.74844e-45
1.74732e-45
-5.24478e-46
1.27107e-46
-4.4697e-47
8.67755e-48
-3.55729e-48
5.72332e-49
-2.64059e-49
3.69167e-50
-1.83466e-50
2.22174e-51
-1.19168e-51
1.23757e-52
-7.20057e-53
6.29079e-54
-4.0334e-54
2.93319e-55
-2.09376e-55
1.26134e-56
-1.00574e-56
4.99375e-58
-4.46382e-58
1.81667e-59
-1.828e-59
6.06338e-61
-6.89805e-61
1.85413e-62
-2.39577e-62
5.18818e-64
-7.65017e-64
1.32698e-65
-2.24388e-65
3.09944e-67
-6.04068e-67
6.60611e-69
-1.49161e-68
1.28411e-70
-3.37672e-70
2.2756e-72
-7.00596e-72
3.67787e-74
-1.33201e-73
5.42228e-76
-2.32198e-75
7.29009e-78
-3.7122e-77
8.94481e-80
-5.44087e-79
1.00269e-81
-7.31379e-81
1.02852e-83
-9.01991e-83
9.67446e-86
-1.02073e-84
8.36679e-88
-1.05955e-86
6.69732e-90
-1.00741e-88
5.89299e-92
-8.77738e-91
5.87199e-94
-7.11622e-93
6.26667e-95
-6.20688e-95
-5.61947e-97
5.66279e-38
1.60525e-36
5.25354e-39
1.18163e-37
4.728e-40
8.78844e-39
6.61552e-40
5.28505e-41
1.60283e-39
1.79207e-37
2.39894e-40
1.29024e-38
2.68643e-41
9.4244e-40
6.98354e-41
3.41757e-42
-3.86998e-40
1.95937e-38
-1.41794e-41
1.36058e-39
-4.42164e-44
9.61133e-41
6.91068e-42
8.76299e-44
-1.02947e-40
2.07806e-39
-5.69953e-42
1.39704e-40
-2.93311e-43
9.58787e-42
6.73223e-43
-1.32579e-44
-1.70898e-41
2.11314e-40
-1.00365e-42
1.38213e-41
-5.75162e-44
9.25769e-43
6.36867e-44
-3.18144e-45
-2.34971e-42
2.05876e-41
-1.39523e-43
1.3121e-42
-8.20529e-45
8.5894e-44
5.79592e-45
-4.75366e-46
-2.87159e-43
1.917e-42
-1.69867e-44
1.19282e-43
-1.00335e-45
7.64596e-45
5.07036e-46
-5.89667e-47
-3.20664e-44
1.70189e-43
-1.87908e-45
1.03614e-44
-1.10593e-46
6.51667e-46
4.255e-47
-6.52248e-48
-3.31428e-45
1.43701e-44
-1.92006e-46
8.58001e-46
-1.12251e-47
5.30629e-47
3.41829e-48
-6.61653e-49
-3.19094e-46
1.15108e-45
-1.82711e-47
6.75694e-47
-1.06008e-48
4.11868e-48
2.62333e-49
-6.23737e-50
-2.87073e-47
8.72499e-47
-1.62585e-48
5.04858e-48
-9.36463e-50
3.04055e-49
1.91918e-50
-5.50117e-51
-2.41642e-48
6.24229e-48
-1.35551e-49
3.57042e-49
-7.75884e-51
2.13015e-50
1.33563e-51
-4.55514e-52
-1.90349e-49
4.20412e-49
-1.05954e-50
2.38423e-50
-6.0361e-52
1.41312e-51
8.82426e-53
-3.54703e-53
-1.40225e-50
2.796e-50
-7.76338e-52
1.54009e-51
-4.41036e-53
8.90004e-53
5.52366e-54
-2.59898e-54
-9.67215e-52
1.7922e-51
-5.32965e-53
9.79137e-53
-3.02564e-54
5.53499e-54
3.26919e-55
-1.79181e-55
-6.26144e-53
1.06538e-52
-3.43975e-54
5.73703e-54
-1.94732e-55
3.24196e-55
1.90675e-56
-1.16177e-56
-3.77592e-54
5.80682e-54
-2.07644e-55
3.12711e-55
-1.17889e-56
1.77442e-56
1.05072e-57
-7.08082e-58
-2.12057e-55
2.93834e-55
-1.17105e-56
1.59191e-56
-6.68808e-58
9.09028e-58
5.42268e-59
-4.05148e-59
-1.10754e-56
1.38032e-56
-6.16149e-58
7.54521e-58
-3.54978e-59
4.35107e-59
2.62255e-60
-2.17996e-60
-5.37184e-58
6.00418e-58
-3.02057e-59
3.32415e-59
-1.76082e-60
1.94282e-60
1.18711e-61
-1.09957e-61
-2.41632e-59
2.41442e-59
-1.378e-60
1.35921e-60
-8.15378e-62
8.08115e-62
5.02293e-63
-5.19339e-63
-1.0067e-60
8.96204e-61
-5.8434e-62
5.15114e-62
-3.52114e-63
3.12733e-63
1.98433e-64
-2.29461e-64
-3.88022e-62
3.06654e-62
-2.30083e-63
1.80719e-63
-1.4167e-64
1.12475e-64
7.31189e-66
-9.47607e-66
-1.38217e-63
9.66094e-64
-8.40432e-65
5.86319e-65
-5.30623e-66
3.75595e-66
2.51096e-67
-3.65491e-67
-4.54592e-65
2.79946e-65
-2.84557e-66
1.75756e-66
-1.84883e-67
1.16369e-67
8.03084e-69
-1.31576e-68
-1.37941e-66
7.45488e-67
-8.9247e-68
4.86444e-68
-5.98913e-69
3.34316e-69
2.39106e-70
-4.4188e-70
-3.85918e-68
1.82316e-68
-2.5915e-69
1.24245e-69
-1.80303e-70
8.90274e-71
6.62538e-72
-1.38389e-71
-9.94998e-70
4.09275e-70
-6.96441e-71
2.92768e-71
-5.04306e-72
2.19719e-72
1.70845e-73
-4.04086e-73
-2.36338e-71
8.43131e-72
-1.73183e-72
6.36391e-73
-1.31036e-73
5.02594e-74
4.10052e-75
-1.10001e-74
-5.17089e-73
1.59383e-73
-3.98475e-74
1.27631e-74
-3.16311e-75
1.06589e-75
9.16453e-77
-2.79196e-76
-1.04214e-74
2.76525e-75
-8.48457e-76
2.36269e-76
-7.09508e-77
2.09703e-77
1.90861e-78
-6.60874e-78
-1.93508e-76
4.40651e-77
-1.67233e-77
4.04009e-78
-1.47937e-78
3.83065e-79
3.70755e-80
-1.45945e-79
-3.31233e-78
6.45833e-79
-3.05257e-79
6.38788e-80
-2.8687e-80
6.50481e-81
6.72652e-82
-3.00837e-81
-5.23213e-80
8.70734e-81
-5.16289e-81
9.35213e-82
-5.17635e-82
1.02841e-82
1.14166e-83
-5.79135e-83
-7.62324e-82
1.08153e-82
-8.09558e-83
1.27013e-83
-8.69639e-84
1.51676e-84
1.8162e-85
-1.04171e-84
-1.02491e-83
1.24007e-84
-1.17744e-84
1.60398e-85
-1.36091e-85
2.0916e-86
2.71578e-87
-1.7514e-86
-1.27168e-85
1.31542e-86
-1.58886e-86
1.88903e-87
-1.98412e-87
2.7065e-88
3.82937e-89
-2.75245e-88
-1.45532e-87
1.29661e-88
-1.98909e-88
2.08705e-89
-2.69418e-89
3.30707e-90
5.55469e-91
-4.04776e-90
-1.53531e-89
1.21455e-90
-2.30942e-90
2.32768e-91
-3.41245e-91
4.31223e-92
7.93701e-93
-5.56211e-92
-1.50146e-91
1.24605e-92
-2.49454e-92
2.67658e-93
-4.0292e-93
5.48962e-94
1.10357e-94
-7.1402e-94
-1.3672e-93
1.39431e-94
-2.51661e-94
3.29471e-95
-4.45784e-95
7.39454e-96
1.61107e-96
-8.61066e-96
-1.31916e-95
1.4582e-95
-2.65638e-96
3.38003e-96
-5.12777e-97
7.62377e-97
1.66946e-97
-1.07206e-97
-1.35579e-97
-3.05947e-98
-6.59743e-99
-1.44682e-99
3.0089e-42
5.17282e-41
2.29342e-43
3.48678e-42
1.69177e-44
2.32673e-43
1.20877e-45
1.5255e-44
8.43849e-47
9.83544e-46
5.78966e-48
6.25464e-47
3.92216e-49
3.93856e-48
2.62727e-50
2.46343e-49
1.73518e-51
1.53123e-50
1.12237e-52
9.43091e-52
7.04836e-54
5.72045e-53
4.25999e-55
3.39039e-54
2.45962e-56
1.94756e-55
1.34897e-57
1.07652e-56
6.99904e-59
5.69235e-58
3.42565e-60
2.86656e-59
1.57849e-61
1.37022e-60
6.83739e-63
6.20183e-62
2.78082e-64
2.65314e-63
1.06081e-65
1.07127e-64
3.79194e-67
4.07793e-66
1.26887e-68
1.46205e-67
3.9707e-70
4.933e-69
1.16083e-71
1.56529e-70
3.16728e-73
4.66881e-72
8.05742e-75
1.30876e-73
1.90949e-76
3.44853e-75
4.21222e-78
8.54676e-77
8.64284e-80
1.99467e-78
1.64815e-81
4.39116e-80
2.9173e-83
9.13747e-82
4.78201e-85
1.80114e-83
7.22622e-87
3.36847e-85
9.9771e-89
5.97642e-87
1.23687e-90
1.00212e-88
1.33061e-92
1.57025e-90
1.15948e-94
2.24014e-92
7.03891e-97
2.74931e-94
1.96575e-99
2.55434e-96
1.21857e-98
2.11784e-43
5.39895e-42
1.71683e-44
3.617e-43
1.31247e-45
2.388e-44
9.59536e-47
1.54678e-45
6.78244e-48
9.83703e-47
4.67265e-49
6.15988e-48
3.15762e-50
3.81234e-49
2.09975e-51
2.33935e-50
1.37262e-52
1.42462e-51
8.77711e-54
8.59132e-53
5.44931e-55
5.10398e-54
3.25864e-56
2.96582e-55
1.86344e-57
1.67279e-56
1.01321e-58
9.09337e-58
5.21624e-60
4.73625e-59
2.53495e-61
2.35266e-60
1.16036e-62
1.11065e-61
4.99496e-64
4.96992e-63
2.01941e-65
2.10385e-64
7.65931e-67
8.41204e-66
2.72258e-68
3.17297e-67
9.06059e-70
1.12786e-68
2.82021e-71
3.77477e-70
8.20212e-73
1.18871e-71
2.22679e-74
3.52058e-73
5.63869e-76
9.80512e-75
1.33082e-77
2.56877e-76
2.92606e-79
6.33579e-78
5.99116e-81
1.47338e-79
1.14196e-82
3.23727e-81
2.02498e-84
6.73787e-83
3.33532e-86
1.33217e-84
5.08387e-88
2.50796e-86
7.11399e-90
4.49925e-88
8.98903e-92
7.66948e-90
9.91887e-94
1.22933e-91
8.9223e-96
1.80622e-93
5.62084e-98
2.29815e-95
1.62941e-100
2.2245e-97
1.10104e-99
9.12142e-45
5.26896e-43
9.26526e-46
3.49099e-44
7.98106e-47
2.27401e-45
6.27469e-48
1.45794e-46
4.64002e-49
9.16337e-48
3.28534e-50
5.66142e-49
2.25381e-51
3.45137e-50
1.50837e-52
2.08291e-51
9.86598e-54
1.24603e-52
6.29007e-55
7.37678e-54
3.88656e-56
4.30254e-55
2.31136e-57
2.45622e-56
1.31432e-58
1.36252e-57
7.10721e-60
7.29392e-59
3.63961e-61
3.74594e-60
1.75973e-62
1.83694e-61
8.01512e-64
8.57001e-63
3.43341e-65
3.79333e-64
1.38139e-66
1.58962e-65
5.21426e-68
6.29621e-67
1.84457e-69
2.35395e-68
6.10926e-71
8.29783e-70
1.89253e-72
2.75544e-71
5.47839e-74
8.61341e-73
1.48064e-75
2.53362e-74
3.73361e-77
7.01251e-76
8.77986e-79
1.82715e-77
1.92501e-80
4.48658e-79
3.93536e-82
1.04011e-80
7.50273e-84
2.28224e-82
1.33394e-85
4.75497e-84
2.21001e-87
9.43958e-86
3.40227e-89
1.79127e-87
4.83266e-91
3.25468e-89
6.2351e-93
5.65131e-91
7.07072e-95
9.28778e-93
6.57841e-97
1.409e-94
4.30717e-99
1.86339e-96
1.29648e-101
1.88342e-98
9.68007e-101
-3.58123e-46
5.00579e-44
8.72168e-48
3.2203e-45
2.52471e-48
2.04361e-46
2.78539e-49
1.29108e-47
2.4193e-50
7.98387e-49
1.87638e-51
4.87152e-50
1.36005e-52
2.93293e-51
9.41348e-54
1.74569e-52
6.28247e-55
1.02873e-53
4.05179e-56
5.99504e-55
2.51886e-57
3.44111e-56
1.5021e-58
1.93379e-57
8.54752e-60
1.05668e-58
4.6194e-61
5.57708e-60
2.36222e-62
2.82668e-61
1.1398e-63
1.36929e-62
5.17858e-65
6.31615e-64
2.21201e-66
2.76635e-65
8.87171e-68
1.14788e-66
3.33733e-69
4.50475e-68
1.17632e-70
1.6696e-69
3.88119e-72
5.8374e-71
1.19762e-73
1.9235e-72
3.45315e-75
5.96946e-74
9.29693e-77
1.74419e-75
2.33597e-78
4.79848e-77
5.47644e-80
1.24377e-78
1.1981e-81
3.04152e-80
2.44714e-83
7.03228e-82
4.6701e-85
1.54195e-83
8.33293e-87
3.21851e-85
1.39022e-88
6.42237e-87
2.16454e-90
1.23014e-88
3.12589e-92
2.26765e-90
4.12548e-94
4.01907e-92
4.81733e-96
6.78847e-94
4.64459e-98
1.06605e-95
3.16637e-100
1.46915e-97
9.91259e-103
1.55408e-99
8.30076e-102
-1.51876e-46
4.64378e-45
-6.45975e-48
2.91595e-46
-2.16903e-49
1.80417e-47
-2.30607e-51
1.10597e-48
4.97881e-52
6.62568e-50
6.66108e-53
3.96689e-51
6.01885e-54
2.34925e-52
4.67945e-55
1.37667e-53
3.34536e-56
8.01206e-55
2.25232e-57
4.60754e-56
1.43949e-58
2.60857e-57
8.74165e-60
1.44586e-58
5.03449e-61
7.79488e-60
2.7425e-62
4.06135e-61
1.4096e-63
2.03348e-62
6.82237e-65
9.73816e-64
3.10453e-66
4.44388e-65
1.32663e-67
1.92679e-66
5.31805e-69
7.9197e-68
1.99807e-70
3.08036e-69
7.02986e-72
1.13209e-70
2.31417e-73
3.92673e-72
7.12209e-75
1.28424e-73
2.04772e-76
3.95771e-75
5.49719e-78
1.14895e-76
1.37749e-79
3.14269e-78
3.22215e-81
8.10619e-80
7.03933e-83
1.97497e-81
1.43772e-84
4.55666e-83
2.74898e-86
9.99125e-85
4.92776e-88
2.09128e-86
8.28886e-90
4.19966e-88
1.30705e-91
8.13169e-90
1.92216e-93
1.52364e-91
2.59951e-95
2.76243e-93
3.13121e-97
4.80717e-95
3.13378e-99
7.83496e-97
2.22759e-101
1.12803e-98
7.25873e-104
1.25148e-100
6.95115e-103
-2.46887e-47
4.16215e-46
-1.22401e-48
2.56313e-47
-5.72902e-50
1.55222e-48
-2.42694e-51
9.28331e-50
-8.80568e-53
5.42424e-51
-2.04336e-54
3.15473e-52
5.33144e-56
1.81187e-53
1.25138e-56
1.03448e-54
1.23256e-57
5.92504e-56
9.6761e-59
3.35115e-57
6.75592e-60
1.8736e-58
4.33724e-61
1.0262e-59
2.59161e-62
5.46722e-61
1.44782e-63
2.81574e-62
7.57387e-65
1.39418e-63
3.71154e-66
6.60606e-65
1.70374e-67
2.98438e-66
7.32421e-69
1.2817e-67
2.94764e-70
5.22089e-69
1.11007e-71
2.0134e-70
3.90988e-73
7.34002e-72
1.28725e-74
2.52653e-73
3.95912e-76
8.2037e-75
1.13699e-77
2.51123e-76
3.04785e-79
7.24554e-78
7.62616e-81
1.97113e-79
1.78185e-82
5.06155e-81
3.8914e-84
1.22924e-82
7.95566e-86
2.83192e-84
1.52569e-87
6.21455e-86
2.75077e-89
1.30577e-87
4.67102e-91
2.64244e-89
7.47034e-93
5.18078e-91
1.12042e-94
9.88637e-93
1.55508e-96
1.8378e-94
1.93504e-98
3.30326e-96
2.01257e-100
5.60227e-98
1.49251e-102
8.44734e-100
5.05954e-105
9.84898e-102
5.69062e-104
-3.13728e-48
3.59237e-47
-1.61771e-49
2.17242e-48
-8.08034e-51
1.29031e-49
-3.83763e-52
7.56037e-51
-1.74214e-53
4.32426e-52
-7.35508e-55
2.4552e-53
-2.77397e-56
1.37561e-54
-8.24532e-58
7.65387e-56
-6.71437e-60
4.25958e-57
1.6894e-60
2.34065e-58
1.98726e-61
1.28618e-59
1.58355e-62
6.93868e-61
1.06402e-63
3.64557e-62
6.3899e-65
1.85835e-63
3.50634e-66
9.10949e-65
1.77588e-67
4.27461e-66
8.3448e-69
1.91319e-67
3.64819e-70
8.14372e-69
1.48616e-71
3.28924e-70
5.6458e-73
1.25827e-71
2.00076e-74
4.55205e-73
6.61438e-76
1.55552e-74
2.03969e-77
5.01631e-76
5.86644e-79
1.52579e-77
1.57377e-80
4.37689e-79
3.93939e-82
1.18475e-80
9.20884e-84
3.0301e-82
2.01331e-85
7.33957e-84
4.12553e-87
1.68961e-85
7.94544e-89
3.71425e-87
1.44266e-90
7.84322e-89
2.47622e-92
1.60177e-90
4.02169e-94
3.18551e-92
6.15936e-96
6.20392e-94
8.78311e-98
1.18525e-95
1.12981e-99
2.20604e-97
1.22124e-101
3.90328e-99
9.44013e-104
6.17854e-101
3.32122e-106
7.58442e-103
4.55876e-105
-3.4898e-49
2.98082e-48
-1.81889e-50
1.77338e-49
-9.25383e-52
1.03482e-50
-4.53301e-53
5.94805e-52
-2.16623e-54
3.33398e-53
-9.98343e-56
1.85408e-54
-4.42195e-57
1.01703e-55
-1.86795e-58
5.5351e-57
-7.22623e-60
3.00902e-58
-2.4096e-61
1.61612e-59
-5.25295e-63
8.65484e-61
9.72234e-65
4.5489e-62
2.25398e-65
2.33659e-63
1.90425e-66
1.17504e-64
1.23266e-67
5.68312e-66
6.87993e-69
2.63876e-67
3.44214e-70
1.171e-68
1.57072e-71
4.94373e-70
6.59552e-73
1.98107e-71
2.56101e-74
7.52136e-73
9.22174e-76
2.70147e-74
3.08444e-77
9.16843e-76
9.5927e-79
2.9377e-77
2.77603e-80
8.88236e-79
7.48065e-82
2.53439e-80
1.87894e-83
6.829e-82
4.40534e-85
1.74054e-83
9.6618e-87
4.20768e-85
1.98792e-88
9.6869e-87
3.85081e-90
2.13533e-88
7.05087e-92
4.53738e-90
1.22475e-93
9.36598e-92
2.02196e-95
1.89294e-93
3.16412e-97
3.77065e-95
4.63591e-99
7.42159e-97
6.15984e-101
1.43408e-98
6.90564e-103
2.65385e-100
5.54301e-105
4.4198e-102
2.01124e-107
5.72158e-104
3.57668e-106
-3.53425e-50
2.37324e-49
-1.84224e-51
1.39173e-50
-9.39887e-53
7.99309e-52
-4.63818e-54
4.51492e-53
-2.24818e-55
2.48433e-54
-1.06193e-56
1.35509e-55
-4.90072e-58
7.28602e-57
-2.21624e-59
3.88609e-58
-9.64947e-61
2.07043e-59
-4.03657e-62
1.08998e-60
-1.57016e-63
5.71516e-62
-5.44111e-65
2.94181e-63
-1.52017e-66
1.47946e-64
-2.01245e-68
7.26759e-66
1.32703e-69
3.43438e-67
1.50504e-70
1.56875e-68
9.83855e-72
6.88021e-70
5.17256e-73
2.87147e-71
2.36947e-74
1.14112e-72
9.74801e-76
4.30225e-74
3.65419e-77
1.53496e-75
1.25799e-78
5.17647e-77
3.99563e-80
1.64874e-78
1.17443e-81
4.95774e-80
3.20193e-83
1.40771e-81
8.11493e-85
3.7779e-83
1.91655e-86
9.60152e-85
4.23098e-88
2.31826e-86
8.76376e-90
5.3422e-88
1.7109e-91
1.18216e-89
3.16353e-93
2.53123e-91
5.56554e-95
5.28991e-93
9.34052e-97
1.08866e-94
1.49216e-98
2.22303e-96
2.24118e-100
4.51889e-98
3.06287e-102
9.08821e-100
3.53604e-104
1.76327e-101
2.915e-106
3.09608e-103
1.07249e-108
4.23271e-105
2.75011e-107
-3.31642e-51
1.80933e-50
-1.72124e-52
1.04804e-51
-8.75016e-54
5.93578e-53
-4.31041e-55
3.30102e-54
-2.09133e-56
1.7863e-55
-9.92882e-58
9.57289e-57
-4.63355e-59
5.05364e-58
-2.13744e-60
2.64558e-59
-9.61786e-62
1.3831e-60
-4.24321e-63
7.14505e-62
-1.80117e-64
3.67779e-63
-7.2667e-66
1.85902e-64
-2.75459e-67
9.18116e-66
-9.48002e-69
4.42675e-67
-2.84719e-70
2.0545e-68
-6.60021e-72
9.20251e-70
-5.58907e-74
3.95407e-71
5.62939e-75
1.61714e-72
4.75929e-76
6.34441e-74
2.5166e-77
2.36837e-75
1.0826e-78
8.36958e-77
4.06205e-80
2.80135e-78
1.36692e-81
8.87386e-80
4.18383e-83
2.65512e-81
1.17451e-84
7.50645e-83
3.04182e-86
2.00763e-84
7.30379e-88
5.09132e-86
1.63385e-89
1.22876e-87
3.42297e-91
2.83705e-89
6.75471e-93
6.30998e-91
1.26301e-94
1.36344e-92
2.2497e-96
2.88992e-94
3.82909e-98
6.06857e-96
6.21298e-100
1.27325e-97
9.48133e-102
2.67963e-99
1.31346e-103
5.62296e-101
1.52591e-105
1.14639e-102
1.24544e-107
2.12621e-104
4.35709e-110
3.07342e-106
2.07314e-108
-2.90904e-52
1.31821e-51
-1.50079e-53
7.55857e-53
-7.5823e-55
4.23029e-54
-3.71403e-56
2.32075e-55
-1.79371e-57
1.23735e-56
-8.49219e-59
6.52665e-58
-3.96302e-60
3.3888e-59
-1.83489e-61
1.74411e-60
-8.3308e-63
8.96156e-62
-3.73527e-64
4.54994e-63
-1.62782e-65
2.30196e-64
-6.84335e-67
1.14391e-65
-2.76581e-68
5.55603e-67
-1.05489e-69
2.63592e-68
-3.78051e-71
1.20422e-69
-1.25349e-72
5.30817e-71
-3.75131e-74
2.24453e-72
-9.84005e-76
9.039e-74
-2.05811e-77
3.48553e-75
-2.28437e-79
1.2785e-76
6.90029e-81
4.44183e-78
6.15071e-82
1.46829e-79
2.82645e-83
4.61479e-81
1.01937e-84
1.37097e-82
3.16375e-86
3.85186e-84
8.75398e-88
1.02577e-85
2.19989e-89
2.59764e-87
5.08249e-91
6.27213e-89
1.08987e-92
1.45252e-90
2.18744e-94
3.25126e-92
4.13996e-96
7.1006e-94
7.4313e-98
1.52927e-95
1.26785e-99
3.28369e-97
2.04478e-101
7.09538e-99
3.05444e-103
1.54978e-100
4.02013e-105
3.40116e-102
4.17223e-107
7.30444e-104
2.61412e-109
1.4347e-105
2.93284e-112
2.19665e-107
1.53822e-109
-2.39635e-53
9.15946e-53
-1.22864e-54
5.21099e-54
-6.16412e-56
2.88816e-55
-2.99791e-57
1.56625e-56
-1.43789e-58
8.24387e-58
-6.76565e-60
4.28795e-59
-3.14207e-61
2.19371e-60
-1.4504e-62
1.11191e-61
-6.58225e-64
5.62441e-63
-2.9599e-65
2.81099e-64
-1.29936e-66
1.39996e-65
-5.53428e-68
6.84916e-67
-2.28344e-69
3.27603e-68
-8.98466e-71
1.53096e-69
-3.3719e-72
6.89159e-71
-1.19749e-73
2.99467e-72
-3.9823e-75
1.24883e-73
-1.24092e-76
4.96193e-75
-3.57942e-78
1.88729e-76
-9.42754e-80
6.8299e-78
-2.23777e-81
2.34252e-79
-4.63737e-83
7.63941e-81
-7.74708e-85
2.36756e-82
-7.7643e-87
6.94341e-84
9.33585e-89
1.92858e-85
8.23987e-90
5.0955e-87
2.98349e-91
1.2871e-88
8.25507e-93
3.10715e-90
1.95266e-94
7.21642e-92
4.11334e-96
1.62638e-93
7.85526e-98
3.59398e-95
1.36373e-99
7.87845e-97
2.11313e-101
1.73361e-98
2.72344e-103
3.86769e-100
2.14594e-105
8.79067e-102
-2.02706e-107
2.02267e-103
-1.2309e-108
4.58782e-105
-2.29233e-110
9.57045e-107
-6.55216e-113
1.55567e-108
1.13381e-110
-1.85825e-54
6.05786e-54
-9.47452e-56
3.42784e-55
-4.72153e-57
1.88571e-56
-2.27958e-58
1.01305e-57
-1.08508e-59
5.27463e-59
-5.06772e-61
2.71067e-60
-2.33747e-62
1.36897e-61
-1.07259e-63
6.84569e-63
-4.84558e-65
3.41483e-64
-2.17296e-66
1.68276e-65
-9.53446e-68
8.26277e-67
-4.07065e-69
3.98586e-68
-1.68942e-70
1.88012e-69
-6.71565e-72
8.66636e-71
-2.56029e-73
3.84895e-72
-9.30194e-75
1.65061e-73
-3.19423e-76
6.79518e-75
-1.04085e-77
2.66618e-76
-3.19575e-79
1.00193e-77
-9.19704e-81
3.58399e-79
-2.48516e-82
1.21561e-80
-6.29438e-84
3.92121e-82
-1.48666e-85
1.20245e-83
-3.27426e-87
3.49263e-85
-6.75086e-89
9.61982e-87
-1.31218e-90
2.52302e-88
-2.42291e-92
6.33333e-90
-4.33682e-94
1.52413e-91
-7.7644e-96
3.54275e-93
-1.4455e-97
8.0303e-95
-2.89034e-99
1.79527e-96
-6.26125e-101
4.00856e-98
-1.44379e-102
9.05217e-100
-3.43226e-104
2.08904e-101
-8.08682e-106
4.95046e-103
-1.78789e-107
1.19639e-104
-3.35823e-109
2.86693e-106
-4.33023e-111
6.34048e-108
-9.89877e-114
1.09265e-109
8.27637e-112
-1.35795e-55
3.80633e-55
-6.89336e-57
2.14764e-56
-3.41528e-58
1.17545e-57
-1.63785e-59
6.26973e-59
-7.73915e-61
3.2361e-60
-3.58719e-62
1.64646e-61
-1.64236e-63
8.22417e-63
-7.4834e-65
4.06492e-64
-3.35965e-66
2.00315e-65
-1.49873e-67
9.74931e-67
-6.55024e-69
4.7274e-68
-2.79011e-70
2.25196e-69
-1.15747e-71
1.04909e-70
-4.60953e-73
4.77647e-72
-1.76525e-74
2.09575e-73
-6.46246e-76
8.88111e-75
-2.24451e-77
3.61368e-76
-7.43053e-79
1.4018e-77
-2.33038e-80
5.20981e-79
-6.89568e-82
1.84369e-80
-1.93122e-83
6.18919e-82
-5.1192e-85
1.97714e-83
-1.28035e-86
6.0086e-85
-3.02771e-88
1.73104e-86
-6.80768e-90
4.73431e-88
-1.46613e-91
1.23462e-89
-3.03909e-93
3.08695e-91
-6.13013e-95
7.41972e-93
-1.21911e-96
1.72863e-94
-2.42436e-98
3.94459e-96
-4.88565e-100
8.92549e-98
-1.00803e-101
2.02976e-99
-2.13902e-103
4.70132e-101
-4.64623e-105
1.12126e-102
-1.01278e-106
2.76715e-104
-2.11639e-108
7.01529e-106
-3.8428e-110
1.77424e-107
-4.86882e-112
4.15742e-109
-1.07161e-114
7.59096e-111
5.96971e-113
-9.35431e-57
2.26798e-56
-4.73523e-58
1.27939e-57
-2.33555e-59
6.98404e-59
-1.11374e-60
3.70729e-60
-5.22847e-62
1.90107e-61
-2.40653e-63
9.59578e-63
-1.09395e-64
4.7502e-64
-4.94931e-66
2.32506e-65
-2.2071e-67
1.13396e-66
-9.78544e-69
5.46029e-68
-4.25385e-70
2.61896e-69
-1.80403e-71
1.23394e-70
-7.45966e-73
5.68576e-72
-2.96499e-74
2.56062e-73
-1.13497e-75
1.11147e-74
-4.16017e-77
4.66033e-76
-1.44943e-78
1.87658e-77
-4.82374e-80
7.20558e-79
-1.52443e-81
2.65143e-80
-4.55746e-83
9.29297e-82
-1.29331e-84
3.0908e-83
-3.48455e-86
9.78701e-85
-8.88704e-88
2.94998e-86
-2.14994e-89
8.43597e-88
-4.9598e-91
2.29262e-89
-1.09839e-92
5.94987e-91
-2.34375e-94
1.48347e-92
-4.86354e-96
3.56482e-94
-9.92497e-98
8.33135e-96
-2.01656e-99
1.91524e-97
-4.13057e-101
4.38842e-99
-8.62219e-103
1.01676e-100
-1.84621e-104
2.41582e-102
-4.04807e-106
5.95428e-104
-8.93711e-108
1.53002e-105
-1.90181e-109
4.06776e-107
-3.53652e-111
1.08545e-108
-4.59962e-113
2.6943e-110
-1.01279e-115
5.21118e-112
4.25252e-114
-6.07307e-58
1.27928e-57
-3.07136e-59
7.23503e-59
-1.51059e-60
3.94933e-60
-7.17322e-62
2.09136e-61
-3.3497e-63
1.06789e-62
-1.53256e-64
5.35923e-64
-6.92239e-66
2.63463e-65
-3.1114e-67
1.27954e-66
-1.3786e-68
6.18774e-68
-6.07461e-70
2.95313e-69
-2.62564e-71
1.40345e-70
-1.10785e-72
6.55079e-72
-4.56076e-74
2.99017e-73
-1.80626e-75
1.33399e-74
-6.89577e-77
5.73633e-76
-2.52339e-78
2.38298e-77
-8.78676e-80
9.508e-79
-2.92612e-81
3.61812e-80
-9.26509e-83
1.3197e-81
-2.77903e-84
4.586e-83
-7.92369e-86
1.51279e-84
-2.14818e-87
4.75298e-86
-5.52127e-89
1.42227e-87
-1.34808e-90
4.04085e-89
-3.14335e-92
1.09217e-90
-7.04536e-94
2.82294e-92
-1.52333e-95
7.02327e-94
-3.20649e-97
1.68839e-95
-6.64392e-99
3.96066e-97
-1.37209e-100
9.17726e-99
-2.8606e-102
2.13038e-100
-6.09008e-104
5.03075e-102
-1.33389e-105
1.22656e-103
-3.00347e-107
3.12476e-105
-6.84149e-109
8.36115e-107
-1.50947e-110
2.33109e-108
-2.92179e-112
6.56198e-110
-3.95693e-114
1.72496e-111
-8.84772e-117
3.53306e-113
2.9898e-115
-3.71413e-59
6.81926e-59
-1.88053e-60
3.87805e-60
-9.24036e-62
2.12243e-61
-4.37683e-63
1.12404e-62
-2.03614e-64
5.72877e-64
-9.27229e-66
2.86482e-65
-4.16632e-67
1.40158e-66
-1.86216e-68
6.76765e-68
-8.204e-70
3.25137e-69
-3.59466e-71
1.54079e-70
-1.54532e-72
7.26797e-72
-6.48727e-74
3.36635e-73
-2.65827e-75
1.52459e-74
-1.04845e-76
6.7478e-76
-3.9885e-78
2.87864e-77
-1.45528e-79
1.1864e-78
-5.05623e-81
4.69658e-80
-1.68132e-82
1.77338e-81
-5.31992e-84
6.41924e-83
-1.5959e-85
2.2142e-84
-4.55492e-87
7.25189e-86
-1.23725e-88
2.26303e-87
-3.18922e-90
6.72936e-89
-7.81763e-92
1.90123e-90
-1.83218e-93
5.11508e-92
-4.133e-95
1.31781e-93
-9.00773e-97
3.27404e-95
-1.9148e-98
7.87947e-97
-4.0159e-100
1.85646e-98
-8.41838e-102
4.33822e-100
-1.78767e-103
1.02076e-101
-3.89254e-105
2.4577e-103
-8.76179e-107
6.15044e-105
-2.03827e-108
1.61982e-106
-4.82319e-110
4.51352e-108
-1.11111e-111
1.31949e-109
-2.25385e-113
3.91761e-111
-3.19858e-115
1.09032e-112
-7.31504e-118
2.36408e-114
2.0733e-116
-2.13826e-60
3.55949e-60
-1.08638e-61
1.96737e-61
-5.34418e-63
1.0826e-62
-2.52974e-64
5.74887e-64
-1.17442e-65
2.93152e-65
-5.33146e-67
1.46414e-66
-2.38638e-68
7.14419e-68
-1.06194e-69
3.43681e-69
-4.6569e-71
1.64356e-70
-2.03079e-72
7.74819e-72
-8.68909e-74
3.63411e-73
-3.63112e-75
1.67312e-74
-1.48147e-76
7.53024e-76
-5.81963e-78
3.31156e-77
-2.20581e-79
1.40357e-78
-8.02206e-81
5.74693e-80
-2.77935e-82
2.26015e-81
-9.22044e-84
8.47872e-83
-2.91215e-85
3.04944e-84
-8.72492e-87
1.04525e-85
-2.48853e-88
3.40263e-87
-6.75945e-90
1.05572e-88
-1.74362e-91
3.12267e-90
-4.281e-93
8.78134e-92
-1.00604e-94
2.35372e-93
-2.2787e-96
6.0492e-95
-4.99553e-98
1.50196e-96
-1.07059e-99
3.62123e-98
-2.27023e-101
8.57459e-100
-4.829e-103
2.02193e-101
-1.04503e-104
4.82445e-103
-2.33061e-106
1.18482e-104
-5.40323e-108
3.04418e-106
-1.30233e-109
8.28956e-108
-3.21176e-111
2.40542e-109
-7.75157e-113
7.37302e-111
-1.65331e-114
2.30841e-112
-2.46682e-116
6.79997e-114
-5.79198e-119
1.56031e-115
1.41723e-117
-1.15791e-61
1.75146e-61
-5.91773e-63
9.72535e-63
-2.92093e-64
5.23473e-64
-1.38461e-65
2.79475e-65
-6.42677e-67
1.42944e-66
-2.91345e-68
7.14716e-68
-1.3011e-69
3.48593e-69
-5.77287e-71
1.67425e-70
-2.52307e-72
7.98589e-72
-1.09629e-73
3.75234e-73
-4.67316e-75
1.75313e-74
-1.94562e-76
8.0366e-76
-7.90896e-78
3.60041e-77
-3.09597e-79
1.57566e-78
-1.16958e-80
6.64481e-80
-4.24044e-82
2.70676e-81
-1.46504e-83
1.05897e-82
-4.84812e-85
3.95184e-84
-1.52791e-86
1.41391e-85
-4.56954e-88
4.82158e-87
-1.30158e-89
1.56178e-88
-3.53249e-91
4.82284e-90
-9.1104e-93
1.42035e-91
-2.2382e-94
3.97933e-93
-5.26867e-96
1.06356e-94
-1.19709e-97
2.72903e-96
-2.63755e-99
6.77686e-98
-5.69512e-101
1.63801e-99
-1.22066e-102
3.9005e-101
-2.63476e-104
9.28629e-103
-5.81339e-106
2.24804e-104
-1.32906e-107
5.63336e-106
-3.17761e-109
1.48643e-107
-7.94778e-111
4.18573e-109
-2.04636e-112
1.2649e-110
-5.18383e-114
4.06476e-112
-1.16469e-115
1.34175e-113
-1.83039e-117
4.18218e-115
-4.42153e-120
1.01518e-116
9.54394e-119
-5.904e-63
8.07675e-63
-3.03748e-64
4.55226e-64
-1.50789e-65
2.44694e-65
-7.17356e-67
1.29012e-66
-3.33573e-68
6.63564e-68
-1.51288e-69
3.32943e-69
-6.75252e-71
1.62688e-70
-2.99193e-72
7.8179e-72
-1.30515e-73
3.72697e-73
-5.65783e-75
1.7488e-74
-2.40561e-76
8.15392e-76
-9.98864e-78
3.72831e-77
-4.04924e-79
1.66536e-78
-1.58076e-80
7.26427e-80
-5.95584e-82
3.05265e-81
-2.15382e-83
1.23887e-82
-7.42334e-85
4.82814e-84
-2.45104e-86
1.79463e-85
-7.70892e-88
6.39531e-87
-2.30147e-89
2.1722e-88
-6.54612e-91
7.00879e-90
-1.77481e-92
2.1564e-91
-4.5752e-94
6.32953e-93
-1.12436e-95
1.76836e-94
-2.65033e-97
4.71695e-96
-6.03874e-99
1.2094e-97
-1.33689e-100
3.00596e-99
-2.90806e-102
7.28902e-101
-6.30015e-104
1.74661e-102
-1.38024e-105
4.20077e-104
-3.1063e-107
1.03222e-105
-7.28469e-109
2.64034e-107
-1.7976e-110
7.15666e-109
-4.67017e-112
2.08434e-110
-1.25671e-113
6.55986e-112
-3.34495e-115
2.20982e-113
-7.92505e-117
7.68907e-115
-1.31325e-118
2.53521e-116
-3.26757e-121
6.50779e-118
6.32835e-120
-2.82788e-64
3.49303e-64
-1.46978e-65
2.00185e-65
-7.34825e-67
1.09142e-66
-3.51633e-68
5.7019e-68
-1.64156e-69
2.93024e-69
-7.46328e-71
1.47902e-70
-3.33535e-72
7.25717e-72
-1.47832e-73
3.49691e-73
-6.4466e-75
1.6696e-74
-2.79218e-76
7.83894e-76
-1.18572e-77
3.65433e-77
-4.91607e-79
1.66959e-78
-1.98958e-80
7.44819e-80
-7.7533e-82
3.24337e-81
-2.91594e-83
1.3602e-82
-1.05258e-84
5.50757e-84
-3.62135e-86
2.14103e-85
-1.19366e-87
7.93711e-87
-3.74827e-89
2.82062e-88
-1.11744e-90
9.55347e-90
-3.17463e-92
3.07397e-91
-8.59999e-94
9.43286e-93
-2.21621e-95
2.76227e-94
-5.44845e-97
7.70292e-96
-1.28613e-98
2.05244e-97
-2.93887e-100
5.26257e-99
-6.53798e-102
1.3102e-100
-1.43291e-103
3.18952e-102
-3.13848e-105
7.69572e-104
-6.98093e-107
1.87084e-105
-1.60318e-108
4.66839e-107
-3.85851e-110
1.21938e-108
-9.8329e-112
3.39606e-110
-2.65514e-113
1.02312e-111
-7.47203e-115
3.35354e-113
-2.09103e-116
1.18416e-114
-5.22749e-118
4.34228e-116
-9.13944e-120
1.51403e-117
-2.34379e-122
4.10834e-119
4.12967e-121
-1.27099e-65
1.41519e-65
-6.69567e-67
8.27389e-67
-3.37989e-68
4.58531e-68
-1.63003e-69
2.42745e-69
-7.65644e-71
1.23011e-70
-3.49664e-72
6.26169e-72
-1.56765e-73
3.09252e-73
-6.96302e-75
1.49753e-74
-3.04042e-76
7.17594e-76
-1.31778e-77
3.37791e-77
-5.59707e-79
1.5774e-78
-2.3202e-80
7.21399e-80
-9.38572e-82
3.21956e-81
-3.65514e-83
1.40185e-82
-1.37354e-84
5.87615e-84
-4.95354e-86
2.37729e-85
-1.70258e-87
9.23106e-87
-5.60642e-89
3.41742e-88
-1.7588e-90
1.21259e-89
-5.23878e-92
4.10031e-91
-1.48728e-93
1.31714e-92
-4.02731e-95
4.03543e-94
-1.03786e-96
1.18011e-95
-2.55332e-98
3.28785e-97
-6.03756e-100
8.75855e-99
-1.38396e-101
2.24768e-100
-3.09472e-103
5.6096e-102
-6.83588e-105
1.3719e-103
-1.51422e-106
3.33517e-105
-3.42082e-108
8.19967e-107
-8.01953e-110
2.07881e-108
-1.98173e-111
5.5466e-110
-5.21769e-113
1.58768e-111
-1.46503e-114
4.94846e-113
-4.31348e-116
1.6893e-114
-1.26966e-117
6.25192e-116
-3.35039e-119
2.41557e-117
-6.18237e-121
8.90381e-119
-1.63461e-123
2.55298e-120
2.651e-122
-5.35619e-67
5.3669e-67
-2.86834e-68
3.21178e-68
-1.46699e-69
1.81418e-69
-7.14237e-71
9.7626e-71
-3.38325e-72
4.97809e-72
-1.55539e-73
2.52544e-73
-7.00952e-75
1.2584e-74
-3.12585e-76
6.13765e-76
-1.3691e-77
2.95803e-77
-5.94762e-79
1.39884e-78
-2.53046e-80
6.55584e-80
-1.05027e-81
3.0066e-81
-4.25209e-83
1.34468e-82
-1.6568e-84
5.86386e-84
-6.22775e-86
2.46049e-85
-2.24615e-87
9.96032e-87
-7.71979e-89
3.86852e-88
-2.54165e-90
1.43207e-89
-7.97179e-92
5.07985e-91
-2.37405e-93
1.71691e-92
-6.73934e-95
5.51215e-94
-1.82515e-96
1.6879e-95
-4.70601e-98
4.93426e-97
-1.15912e-99
1.37471e-98
-2.74673e-101
3.66453e-100
-6.31864e-103
9.42001e-102
-1.42079e-104
2.35848e-103
-3.16423e-106
5.7987e-105
-7.09128e-108
1.42123e-106
-1.62774e-109
3.53565e-108
-3.89695e-111
9.11113e-110
-9.89102e-113
2.48416e-111
-2.69156e-114
7.31006e-113
-7.86089e-116
2.35745e-114
-2.42219e-117
8.38191e-116
-7.50072e-119
3.25092e-117
-2.08963e-120
1.32318e-118
-4.07044e-122
5.15436e-120
-1.10969e-124
1.56101e-121
1.6734e-123
-2.11501e-68
1.90369e-68
-1.15481e-69
1.17014e-69
-6.00058e-71
6.75901e-71
-2.95911e-72
3.70474e-72
-1.41596e-73
1.92098e-73
-6.56711e-75
9.70048e-75
-2.98102e-76
4.88856e-76
-1.33725e-77
2.40696e-77
-5.8856e-79
1.16921e-78
-2.56701e-80
5.56587e-80
-1.09573e-81
2.62295e-81
-4.56009e-83
1.20847e-82
-1.85025e-84
5.42546e-84
-7.2223e-86
2.37337e-85
-2.71875e-87
9.98423e-87
-9.81714e-89
4.05003e-88
-3.37723e-90
1.57554e-89
-1.11277e-91
5.83966e-91
-3.49241e-93
2.07337e-92
-1.04068e-94
7.01252e-94
-2.95612e-96
2.2526e-95
-8.01217e-98
6.90131e-97
-2.06824e-99
2.01871e-98
-5.10305e-101
5.62948e-100
-1.21249e-102
1.50292e-101
-2.80057e-104
3.87301e-103
-6.33526e-106
9.73508e-105
-1.4232e-107
2.4079e-106
-3.22829e-109
5.95355e-108
-7.5323e-111
1.49947e-109
-1.84227e-112
3.92933e-111
-4.80444e-114
1.09515e-112
-1.35165e-115
3.31378e-114
-4.10714e-117
1.10589e-115
-1.32468e-118
4.09526e-117
-4.31611e-120
1.66438e-118
-1.26954e-121
7.13464e-120
-2.61064e-123
2.9362e-121
-7.33806e-126
9.38838e-123
1.03833e-124
-7.82124e-70
6.31216e-70
-4.36733e-71
3.99946e-71
-2.31213e-72
2.37015e-72
-1.15811e-73
1.32733e-73
-5.61097e-75
7.01129e-75
-2.63123e-76
3.5699e-76
-1.2056e-77
1.81292e-77
-5.45093e-79
9.03142e-79
-2.41524e-80
4.43137e-80
-1.05944e-81
2.12778e-81
-4.54438e-83
1.0102e-82
-1.89919e-84
4.6842e-84
-7.73373e-86
2.11465e-85
-3.0282e-87
9.29459e-87