/*--------------------------------*- C++ -*----------------------------------*\
| =========                 |                                                 |
| \\      /  F ield         | OpenFOAM: The Open Source CFD Toolbox           |
|  \\    /   O peration     | Version:  5.0                                   |
|   \\  /    A nd           | Web:      www.OpenFOAM.org                      |
|    \\/     M anipulation  |                                                 |
\*---------------------------------------------------------------------------*/
FoamFile
{
    version     2.0;
    format      ascii;
    class       volScalarField;
    location    "0.1";
    object      alpha.water;
}
// * * * * * * * * * * * * * * * * * * * * * * * * * * * * * * * * * * * * * //

dimensions      [0 0 0 0 0 0 0];

internalField   nonuniform List<scalar> 
1935
(
1.79472e-30
2.0979e-31
2.28044e-32
2.40477e-33
2.44495e-34
2.37029e-35
2.18538e-36
1.90971e-37
1.57567e-38
1.22235e-39
8.87365e-41
5.99539e-42
3.74556e-43
2.13619e-44
1.18356e-45
7.22976e-47
4.24984e-48
2.31863e-49
1.12706e-50
4.92812e-52
1.99135e-53
7.43609e-55
2.55878e-56
8.10236e-58
2.35812e-59
6.302e-61
1.54537e-62
3.47563e-64
7.16822e-66
1.35466e-67
2.34319e-69
3.73371e-71
5.49295e-73
7.45181e-75
9.35043e-77
1.08952e-78
1.1849e-80
1.21046e-82
1.17097e-84
1.09066e-86
1.39214e-88
1.46585e-90
2.787e-91
1.28389e-31
9.63646e-33
7.20913e-34
5.43693e-35
1.48211e-32
1.08299e-33
7.99176e-35
5.96483e-36
1.55585e-33
1.11545e-34
8.11577e-36
5.9944e-37
1.58105e-34
1.09632e-35
7.74066e-37
5.58837e-38
1.55432e-35
1.04642e-36
7.20008e-38
5.09482e-39
1.4602e-36
9.60273e-38
6.47241e-39
4.50621e-40
1.30761e-37
8.41847e-39
5.56967e-40
3.82479e-41
1.11235e-38
7.03103e-40
4.57844e-41
3.10996e-42
8.95808e-40
5.57796e-41
3.58582e-42
2.41646e-43
6.80397e-41
4.18967e-42
2.66801e-43
1.78977e-44
4.85343e-42
2.96876e-43
1.88004e-44
1.26027e-45
3.23589e-43
1.97675e-44
1.25053e-45
8.41368e-47
2.00527e-44
1.23142e-45
7.82383e-47
5.31045e-48
1.13875e-45
7.11763e-47
4.58377e-48
3.1595e-49
6.65234e-47
3.99274e-48
2.51277e-49
1.76649e-50
4.08849e-48
2.40837e-49
1.43099e-50
9.19988e-52
2.35168e-49
1.33012e-50
7.85197e-52
4.92596e-53
1.20118e-50
6.78037e-52
4.03539e-53
2.55439e-54
5.68476e-52
3.24168e-53
1.94624e-54
1.24417e-55
2.50969e-53
1.44737e-54
8.79595e-56
5.69687e-57
1.02895e-54
6.02527e-56
3.71974e-57
2.44911e-58
3.91145e-56
2.33526e-57
1.46999e-58
9.87285e-60
1.37673e-57
8.4157e-59
5.42258e-60
3.7283e-61
4.48143e-59
2.81703e-60
1.86548e-61
1.31783e-62
1.34777e-60
8.75152e-62
5.9809e-63
4.35741e-64
3.74222e-62
2.52182e-63
1.78622e-64
1.34729e-65
9.58831e-64
6.73817e-65
4.96827e-66
3.89502e-67
2.26656e-65
1.66936e-66
1.28711e-67
1.05305e-68
4.94366e-67
3.83582e-68
3.10694e-69
2.66366e-70
9.95385e-69
8.18028e-70
6.99329e-71
6.30891e-72
1.85174e-70
1.62076e-71
1.46942e-72
1.40083e-73
3.1812e-72
2.98775e-73
2.88674e-74
2.92055e-75
5.05998e-74
5.13096e-75
5.31316e-76
5.72902e-77
7.51012e-76
8.21599e-77
9.18569e-78
1.06009e-78
1.0388e-77
1.23466e-78
1.49651e-79
1.85635e-80
1.34446e-79
1.74885e-80
2.30651e-81
3.0894e-82
1.63634e-81
2.34756e-82
3.38154e-83
4.9051e-84
1.88437e-83
3.01056e-84
4.73835e-85
7.50315e-86
2.07362e-85
3.70834e-86
6.46939e-87
1.325e-87
2.31786e-87
5.20531e-88
1.08526e-88
2.27675e-89
3.2666e-89
7.63692e-90
1.67613e-90
3.65714e-91
3.77515e-91
9.46192e-92
2.23073e-92
5.16865e-93
6.72711e-92
1.53612e-92
3.42776e-93
7.42946e-94
3.94328e-36
2.57195e-37
1.72535e-38
1.1379e-39
7.37532e-41
4.71257e-42
2.9805e-43
1.87268e-44
1.17047e-45
7.26087e-47
4.4442e-48
2.66215e-49
1.54715e-50
8.65514e-52
4.63105e-53
2.35849e-54
1.13918e-55
5.20509e-57
2.24554e-58
9.13349e-60
3.49842e-61
1.26067e-62
4.2702e-64
1.35862e-65
4.05792e-67
1.13738e-68
2.99145e-70
7.38546e-72
1.71291e-73
3.73671e-75
7.6792e-77
1.48902e-78
2.72692e-80
4.71341e-82
7.65574e-84
1.15488e-85
1.57608e-87
1.83934e-89
1.61796e-91
7.34164e-94
4.2251e-37
2.76989e-38
1.83729e-39
1.1964e-40
7.64907e-42
4.814e-43
2.99351e-44
1.84565e-45
1.13003e-46
6.8598e-48
4.10836e-49
2.40995e-50
1.3735e-51
7.54799e-53
3.9742e-54
1.99486e-55
9.51021e-57
4.2941e-58
1.83254e-59
7.3797e-61
2.80069e-62
1.00061e-63
3.36229e-65
1.06182e-66
3.14965e-68
8.7729e-70
2.29467e-71
5.63929e-73
1.30351e-74
2.83847e-76
5.83474e-78
1.13468e-79
2.09111e-81
3.65252e-83
6.02556e-85
9.28664e-87
1.30325e-88
1.57418e-90
1.44061e-92
6.78298e-95
4.15753e-38
2.75334e-39
1.80955e-40
1.16529e-41
7.35786e-43
4.566e-44
2.79462e-45
1.69284e-46
1.01676e-47
6.04942e-49
3.55084e-50
2.043e-51
1.14356e-52
6.18187e-54
3.20696e-55
1.58838e-56
7.48153e-58
3.34128e-59
1.41169e-60
5.63264e-62
2.11942e-63
7.51189e-65
2.50546e-66
7.8577e-68
2.316e-69
6.41386e-71
1.66929e-72
4.08597e-74
9.41905e-76
2.049e-77
4.21713e-79
8.23497e-81
1.52952e-82
2.70471e-84
4.54188e-86
7.17e-88
1.03763e-89
1.30099e-91
1.24189e-93
6.07402e-96
3.82561e-39
2.53235e-40
1.64754e-41
1.05217e-42
6.57949e-44
4.03487e-45
2.43635e-46
1.45372e-47
8.58923e-49
5.02277e-50
2.89708e-51
1.63865e-52
9.02541e-54
4.80663e-55
2.45968e-56
1.20318e-57
5.60322e-59
2.47654e-60
1.03637e-61
4.09857e-63
1.52951e-64
5.37939e-66
1.78132e-67
5.54932e-69
1.62559e-70
4.47713e-72
1.15976e-73
2.82845e-75
6.5055e-77
1.41462e-78
2.91737e-80
5.72625e-82
1.07327e-83
1.92457e-85
3.29616e-87
5.34195e-89
7.99221e-91
1.04281e-92
1.04067e-94
5.29138e-97
3.42099e-40
2.2062e-41
1.40561e-42
8.87951e-44
5.48231e-45
3.32884e-46
1.98944e-47
1.17303e-48
6.83786e-50
3.94132e-51
2.23969e-52
1.24814e-53
6.77654e-55
3.56033e-56
1.79903e-57
8.69792e-59
4.00714e-60
1.7535e-61
7.27032e-63
2.85054e-64
1.05522e-65
3.68341e-67
1.21115e-68
3.74845e-70
1.0915e-71
2.99026e-73
7.71168e-75
1.87452e-76
4.30371e-78
9.36037e-80
1.93588e-81
3.82349e-83
7.24178e-85
1.31905e-86
2.30878e-88
3.85033e-90
5.97044e-92
8.12745e-94
8.49804e-96
4.49552e-98
2.98673e-41
1.88495e-42
1.17306e-43
7.2061e-45
4.32346e-46
2.5868e-47
1.52571e-48
8.88434e-50
5.12499e-51
2.92079e-52
1.63927e-53
9.01982e-55
4.83596e-56
2.51014e-57
1.25386e-58
5.99697e-60
2.73503e-61
1.18559e-62
4.87246e-64
1.89466e-65
6.9595e-67
2.41169e-68
7.87611e-70
2.4223e-71
7.01312e-73
1.91168e-74
4.90991e-76
1.19005e-77
2.72883e-79
5.9406e-81
1.23327e-82
2.45393e-84
4.70378e-86
8.71884e-88
1.56302e-89
2.68881e-91
4.33239e-93
6.16846e-95
6.7721e-97
3.72952e-99
2.5163e-42
1.56239e-43
9.53798e-45
5.72861e-46
3.35902e-47
1.95564e-48
1.12093e-49
6.38268e-51
3.63524e-52
2.0434e-53
1.13479e-54
6.18031e-56
3.27884e-57
1.68385e-58
8.32483e-60
3.94259e-61
1.7814e-62
7.65438e-64
3.11974e-65
1.20365e-66
4.38879e-68
1.51034e-69
4.90058e-71
1.49817e-72
4.31414e-74
1.1705e-75
2.99521e-77
7.24248e-79
1.65973e-80
3.61954e-82
7.5505e-84
1.51558e-85
2.94492e-87
5.56584e-89
1.02425e-90
1.82208e-92
3.05857e-94
4.56596e-96
5.27376e-98
3.02451e-100
2.03632e-43
1.24604e-44
7.48336e-46
4.41573e-47
2.54062e-48
1.44679e-49
8.1065e-51
4.50584e-52
2.49811e-53
1.36731e-54
7.48606e-56
4.02541e-57
2.11039e-58
1.07416e-59
5.26445e-61
2.47157e-62
1.1073e-63
4.71947e-65
1.90877e-66
7.3107e-68
2.64725e-69
9.05087e-71
2.91884e-72
8.87322e-74
2.54234e-75
6.86857e-77
1.75199e-78
4.2288e-80
9.69223e-82
2.11934e-83
4.44756e-85
9.01879e-87
1.77957e-88
3.4365e-90
6.50702e-92
1.20008e-93
2.10404e-95
3.30102e-97
4.01851e-99
2.4e-101
1.57998e-44
9.54917e-46
5.65338e-47
3.28245e-48
1.85593e-49
1.03788e-50
5.7074e-52
3.10927e-53
1.68709e-54
9.04192e-56
4.83189e-57
2.53517e-58
1.30222e-59
6.55307e-61
3.17436e-62
1.4768e-63
6.56779e-65
2.77958e-66
1.11635e-67
4.24695e-69
1.52801e-70
5.19262e-72
1.66512e-73
5.03573e-75
1.43624e-76
3.86569e-78
9.83429e-80
2.37106e-81
5.43951e-83
1.19382e-84
2.52354e-86
5.17768e-88
1.0394e-89
2.05526e-91
4.01393e-93
7.69428e-95
1.41249e-96
2.33409e-98
2.99959e-100
1.86505e-102
1.17285e-45
7.01832e-47
4.10494e-48
2.35006e-49
1.3084e-50
7.19652e-52
3.88932e-53
2.08159e-54
1.10952e-55
5.84077e-57
3.06118e-58
1.57551e-59
7.9339e-61
3.90477e-62
1.85034e-63
8.48406e-65
3.73516e-66
1.56491e-67
6.2405e-69
2.36009e-70
8.44365e-72
2.8538e-73
9.10405e-75
2.74037e-76
7.78402e-78
2.08837e-79
5.30209e-81
1.27786e-82
2.937e-84
6.47694e-86
1.38097e-87
2.87163e-89
5.87634e-91
1.19247e-92
2.40795e-94
4.80954e-96
9.26682e-98
1.61617e-99
2.19564e-101
1.42031e-103
8.31035e-47
4.93653e-48
2.85936e-49
1.61769e-50
8.88706e-52
4.81708e-53
2.56335e-54
1.35008e-55
7.07855e-57
3.66485e-58
1.88949e-59
9.56755e-61
4.73882e-62
2.29225e-63
1.06817e-64
4.80754e-66
2.07559e-67
8.53021e-69
3.36326e-70
1.26112e-71
4.4745e-73
1.50265e-74
4.77227e-76
1.43075e-77
4.05035e-79
1.08393e-80
2.74828e-82
6.62653e-84
1.52736e-85
3.38858e-87
7.29816e-89
1.54078e-90
3.22062e-92
6.72252e-94
1.40698e-95
2.93535e-97
5.94929e-99
1.09702e-100
1.57723e-102
1.06007e-104
5.60754e-48
3.316e-49
1.90703e-50
1.06875e-51
5.80629e-53
3.10792e-54
1.63163e-55
8.47236e-57
4.37719e-58
2.23264e-59
1.13384e-60
5.65525e-62
2.75959e-63
1.31556e-64
6.04317e-66
2.67981e-67
1.13983e-68
4.61746e-70
1.79091e-71
6.60396e-73
2.3055e-74
7.65564e-76
2.4153e-77
7.19779e-79
2.02716e-80
5.40732e-82
1.37036e-83
3.30885e-85
7.65701e-87
1.71133e-88
3.72908e-90
8.00784e-92
1.71335e-93
3.68711e-95
8.01733e-97
1.75114e-98
3.74232e-100
7.31442e-102
1.11489e-103
7.78907e-106
3.59487e-49
2.12274e-50
1.21547e-51
6.76477e-53
3.64296e-54
1.92984e-55
1.0016e-56
5.13745e-58
2.62025e-59
1.31896e-60
6.60874e-62
3.25189e-63
1.56554e-64
7.36357e-66
3.3379e-67
1.46115e-68
6.13694e-70
2.45567e-71
9.40399e-73
3.42449e-74
1.1813e-75
3.87296e-77
1.20577e-78
3.54997e-80
9.89187e-82
2.62043e-83
6.63116e-85
1.6025e-86
3.72291e-88
8.38646e-90
1.851e-91
4.04993e-93
8.88919e-95
1.97714e-96
4.47817e-98
1.02654e-99
2.31943e-101
4.82055e-103
7.80961e-105
5.68763e-107
2.18445e-50
1.29234e-51
7.38964e-53
4.0954e-54
2.19154e-55
1.15162e-56
5.92148e-58
3.00628e-59
1.51654e-60
7.54717e-62
3.73734e-63
1.81716e-64
8.64388e-66
4.01713e-67
1.79939e-68
7.78446e-70
3.23178e-71
1.27855e-72
4.84292e-74
1.74502e-75
5.95878e-77
1.9341e-78
5.96317e-80
1.74027e-81
4.81263e-83
1.26654e-84
3.18759e-86
7.68542e-88
1.7885e-89
4.05583e-91
9.06534e-93
2.02244e-94
4.56069e-96
1.05052e-97
2.4838e-99
5.9874e-101
1.43092e-102
3.15638e-104
5.42695e-106
4.11383e-108
1.25531e-51
7.46761e-53
4.2778e-54
2.36758e-55
1.26224e-56
6.59534e-58
3.36727e-59
1.69562e-60
8.47686e-62
4.17837e-63
2.04847e-64
9.85797e-66
4.6405e-67
2.13399e-68
9.45864e-70
4.04936e-71
1.6638e-72
6.51567e-74
2.44356e-75
8.71996e-77
2.95003e-78
9.49168e-80
2.9029e-81
8.41026e-83
2.31149e-84
6.05365e-86
1.51883e-87
3.66064e-89
8.54595e-91
1.95282e-92
4.42202e-94
1.00579e-95
2.32881e-97
5.54981e-99
1.36804e-100
3.46329e-102
8.74502e-104
2.04592e-105
3.73079e-107
2.94037e-109
6.80676e-53
4.08772e-54
2.35401e-55
1.30504e-56
6.95081e-58
3.62041e-59
1.8396e-60
9.20794e-62
4.57117e-63
2.23596e-64
1.08719e-65
5.18703e-67
2.42017e-68
1.10292e-69
4.84424e-71
2.05505e-72
8.36746e-74
3.24758e-75
1.20726e-76
4.27137e-78
1.43314e-79
4.57507e-81
1.38906e-82
3.99821e-84
1.09289e-85
2.85086e-87
7.13872e-89
1.72167e-90
4.03556e-92
9.2985e-94
2.13423e-95
4.95058e-97
1.17706e-98
2.90184e-100
7.45582e-102
1.98147e-103
5.28433e-105
1.31092e-106
2.53467e-108
2.07572e-110
3.47423e-54
2.11591e-55
1.22947e-56
6.8496e-58
3.65509e-59
1.90275e-60
9.64522e-62
4.80953e-63
2.37588e-64
1.15549e-65
5.58236e-67
2.64502e-68
1.2252e-69
5.54164e-71
2.41541e-72
1.01676e-73
4.10782e-75
1.58205e-76
5.83644e-78
2.04961e-79
6.8275e-81
2.1647e-82
6.5308e-84
1.86927e-85
5.08602e-87
1.32246e-88
3.30722e-90
7.98618e-92
1.88058e-93
4.3715e-95
1.01747e-96
2.40782e-98
5.88036e-100
1.49997e-101
4.01727e-103
1.12071e-104
3.15607e-106
8.29946e-108
1.70087e-109
1.44632e-111
1.65975e-55
1.034e-56
6.08634e-58
3.41909e-59
1.83345e-60
9.56497e-62
4.84899e-63
2.41424e-64
1.18926e-65
5.76209e-67
2.77104e-68
1.3062e-69
6.01653e-71
2.70509e-72
1.17176e-73
4.90118e-75
1.96735e-76
7.52789e-78
2.75929e-79
9.62863e-81
3.18777e-82
1.00482e-83
3.01522e-85
8.58966e-87
2.32836e-88
6.03958e-90
1.50954e-91
3.65227e-93
8.64528e-95
2.02852e-96
4.78993e-98
1.15682e-99
2.90259e-101
7.66162e-103
2.13889e-104
6.26279e-106
1.86192e-107
5.18849e-109
1.12662e-110
9.94058e-113
8.06574e-57
4.74875e-58
2.85252e-59
1.62157e-60
8.7654e-62
4.59542e-63
2.33573e-64
1.16384e-65
5.72924e-67
2.77095e-68
1.32897e-69
6.24303e-71
2.86424e-72
1.28211e-73
5.52746e-75
2.30051e-76
9.18682e-78
3.4969e-79
1.27503e-80
4.42609e-82
1.45794e-83
4.57346e-85
1.36633e-86
3.87754e-88
1.04801e-89
2.71407e-91
6.78479e-93
1.64586e-94
3.91864e-96
9.28598e-98
2.2255e-99
5.48717e-101
1.41484e-102
3.86494e-104
1.12467e-105
3.45589e-107
1.0844e-108
3.20106e-110
7.3616e-112
6.73508e-114
3.77041e-58
2.19261e-59
1.26201e-60
7.30194e-62
3.99153e-63
2.10893e-64
1.07745e-65
5.38552e-67
2.65505e-68
1.28441e-69
6.15501e-71
2.8866e-72
1.32128e-73
5.89751e-75
2.53426e-76
1.05097e-77
4.18088e-79
1.5851e-80
5.75602e-82
1.98996e-83
6.52863e-85
2.0402e-86
6.07401e-88
1.71875e-89
4.63586e-91
1.19957e-92
3.0015e-94
7.30502e-96
1.75046e-97
4.19144e-99
1.02e-100
2.56832e-102
6.80677e-104
1.92452e-105
5.83727e-107
1.88208e-108
6.23145e-110
1.94792e-111
4.74256e-113
4.4958e-115
1.65518e-59
9.7769e-61
5.51413e-62
3.11787e-63
1.73073e-64
9.24183e-66
4.75822e-67
2.39136e-68
1.18323e-69
5.73676e-71
2.75195e-72
1.29074e-73
5.90415e-75
2.63186e-76
1.12893e-77
4.67145e-79
1.85368e-80
7.00867e-82
2.53773e-83
8.74735e-85
2.86138e-86
8.91676e-88
2.648e-89
7.47793e-91
2.0145e-92
5.2125e-94
1.30638e-95
3.19203e-97
7.70271e-99
1.86464e-100
4.60948e-102
1.18569e-103
3.23063e-105
9.45487e-107
2.98905e-108
1.01109e-109
3.53141e-111
1.16855e-112
3.0107e-114
2.95508e-116
6.83517e-61
4.11186e-62
2.34627e-63
1.28649e-64
7.14548e-66
3.86729e-67
2.0116e-68
1.01885e-69
5.0703e-71
2.46863e-72
1.18763e-73
5.58044e-75
2.5551e-76
1.13924e-77
4.88507e-79
2.01976e-80
8.00497e-82
3.0221e-83
1.09237e-84
3.75834e-86
1.22708e-87
3.81697e-89
1.13173e-90
3.19241e-92
8.59679e-94
2.22604e-95
5.59213e-97
1.37269e-98
3.33769e-100
8.17251e-102
2.05311e-103
5.39676e-105
1.51204e-106
4.58091e-108
1.5094e-109
5.3557e-111
1.97272e-112
6.90752e-114
1.88245e-115
1.91168e-117
2.65378e-62
1.63e-63
9.47137e-65
5.23304e-66
2.80679e-67
1.54575e-68
8.14299e-70
4.16577e-71
2.08936e-72
1.02352e-73
4.94711e-75
2.33275e-76
1.07083e-77
4.78286e-79
2.05315e-80
8.49344e-82
3.36649e-83
1.27059e-84
4.59012e-86
1.57804e-87
5.14786e-89
1.59997e-90
4.74084e-92
1.33696e-93
3.60182e-95
9.3404e-97
2.35362e-98
5.80773e-100
1.42371e-101
3.52777e-103
9.01006e-105
2.42092e-106
6.97597e-108
2.18799e-109
7.51362e-111
2.79605e-112
1.08582e-113
4.02168e-115
1.15875e-116
1.2166e-118
9.67696e-64
6.09026e-65
3.61155e-66
2.03113e-67
1.08421e-68
5.90496e-70
3.15789e-71
1.63521e-72
8.28216e-74
4.08966e-75
1.98946e-76
9.42967e-78
4.3465e-79
1.94763e-80
8.38153e-82
3.47375e-83
1.37872e-84
5.2084e-86
1.88265e-87
6.47444e-89
2.11243e-90
6.56637e-92
1.94617e-93
5.49167e-95
1.48129e-96
3.84995e-98
9.73752e-100
2.41692e-101
5.97665e-103
1.49937e-104
3.8947e-106
1.07e-107
3.17157e-109
1.02989e-110
3.68571e-112
1.43821e-113
5.88673e-115
2.30537e-116
7.01926e-118
7.6137e-120
3.31231e-65
2.14399e-66
1.30134e-67
7.46427e-69
4.04287e-70
2.15728e-71
1.17418e-72
6.16637e-74
3.15981e-75
1.57554e-76
7.7266e-78
3.68705e-79
1.70909e-80
7.69404e-82
3.32388e-83
1.38195e-84
5.49903e-86
2.08172e-87
7.53732e-89
2.59563e-90
8.47864e-92
2.63837e-93
7.82869e-95
2.21225e-96
5.97917e-98
1.55862e-99
3.95955e-101
9.89152e-103
2.46871e-104
6.27323e-106
1.65787e-107
4.6583e-109
1.42055e-110
4.77607e-112
1.78111e-113
7.28642e-115
3.14249e-116
1.30071e-117
4.18296e-119
4.68389e-121
1.06393e-66
7.108e-68
4.43056e-69
2.59934e-70
1.43483e-71
7.64875e-73
4.19049e-74
2.23594e-75
1.16116e-76
5.85586e-78
2.89964e-79
1.39513e-80
6.51277e-82
2.94966e-83
1.28087e-84
5.34892e-86
2.13645e-87
8.1138e-89
2.94588e-90
1.0169e-91
3.32877e-93
1.0379e-94
3.08589e-96
8.73975e-98
2.36867e-99
6.19716e-101
1.5823e-102
3.98072e-104
1.00323e-105
2.58332e-107
6.94832e-109
1.99725e-110
6.26701e-112
2.18164e-113
8.4773e-115
3.63509e-116
1.65137e-117
7.22125e-119
2.45155e-120
2.83177e-122
3.20674e-68
2.21925e-69
1.42534e-70
8.57891e-72
4.84049e-73
2.62623e-74
1.4374e-75
7.80458e-77
4.11383e-78
2.10148e-79
1.05221e-80
5.1117e-82
2.40641e-83
1.09789e-84
4.79817e-86
2.01498e-87
8.08767e-89
3.08478e-90
1.12424e-91
3.89389e-93
1.27855e-94
3.99794e-96
1.19205e-97
3.38629e-99
9.20968e-101
2.42e-102
6.21396e-104
1.5752e-105
4.01068e-107
1.04696e-108
2.86691e-110
8.43222e-112
2.72283e-113
9.81422e-115
3.97321e-116
1.78542e-117
8.5408e-119
3.94404e-120
1.41275e-121
1.68209e-123
9.07145e-70
6.52706e-71
4.33412e-72
2.68433e-73
1.55245e-74
8.60366e-76
4.74635e-77
2.62582e-78
1.40672e-79
7.28869e-81
3.69511e-82
1.81489e-83
8.62697e-85
3.96978e-86
1.74816e-87
7.39098e-89
2.9844e-90
1.1444e-91
4.19073e-93
1.45776e-94
4.80547e-96
1.50823e-97
4.51339e-99
1.28697e-100
3.51487e-102
9.28198e-104
2.39833e-105
6.12917e-107
1.57734e-108
4.17576e-110
1.16448e-111
3.50529e-113
1.16493e-114
4.34756e-116
1.83355e-117
8.63243e-119
4.34686e-120
2.11886e-121
8.00354e-123
9.8155e-125
2.40976e-71
1.80933e-72
1.24638e-73
7.96753e-75
4.73625e-76
2.68812e-77
1.51123e-78
8.52751e-80
4.6485e-81
2.44587e-82
1.25701e-83
6.24947e-85
3.00309e-86
1.39539e-87
6.19861e-89
2.64125e-90
1.07403e-91
4.14463e-93
1.52645e-94
5.33754e-96
1.76799e-97
5.57408e-99
1.6754e-100
4.79879e-102
1.31698e-103
3.49734e-105
9.09832e-107
2.34529e-108
6.10307e-110
1.63913e-111
4.65633e-113
1.43476e-114
4.90779e-116
1.89642e-117
8.33075e-119
4.10832e-120
2.17692e-121
1.11959e-122
4.45709e-124
5.62611e-126
6.01613e-73
4.73131e-74
3.39265e-75
2.24525e-76
1.37566e-77
8.02097e-79
4.64762e-80
2.6771e-81
1.48637e-82
7.95034e-84
4.14662e-85
2.08911e-86
1.01597e-87
4.77195e-89
2.14059e-90
9.202e-92
3.77192e-93
1.46618e-94
5.43575e-96
1.91228e-97
6.36983e-99
2.01891e-100
6.09938e-102
1.75607e-103
4.84582e-105
1.29481e-106
3.39324e-108
8.8266e-110
2.32354e-111
6.33308e-113
1.83309e-114
5.78271e-116
2.0361e-117
8.14574e-119
3.72667e-120
1.92456e-121
1.07273e-122
5.81831e-124
2.43983e-125
3.16758e-127
1.41325e-74
1.16849e-75
8.75135e-77
6.01387e-78
3.80827e-79
2.28813e-80
1.38283e-81
8.13641e-83
4.6051e-84
2.50635e-85
1.32797e-86
6.78672e-88
3.3436e-89
1.58911e-90
7.20535e-92
3.12789e-93
1.29362e-94
5.06955e-96
1.89357e-97
6.70743e-99
2.24855e-100
7.16971e-102
2.17865e-103
6.309e-105
1.75156e-106
4.71171e-108
1.24447e-109
3.26813e-111
8.70607e-113
2.40889e-114
7.10598e-116
2.29531e-117
8.31926e-119
3.44568e-120
1.64148e-121
8.87486e-123
5.20168e-124
2.97399e-125
1.31287e-126
1.75183e-128
3.12868e-76
2.73036e-77
2.14246e-78
1.53331e-79
1.0063e-80
6.28129e-82
3.9865e-83
2.39741e-84
1.38429e-85
7.67274e-87
4.13363e-88
2.14496e-89
1.07157e-90
5.15813e-92
2.36622e-93
1.03821e-94
4.33598e-96
1.71454e-97
6.45718e-99
2.30478e-100
7.78137e-102
2.49781e-103
7.63908e-105
2.22634e-106
6.22203e-108
1.68587e-109
4.48981e-111
1.19083e-112
3.21136e-114
9.02259e-116
2.71306e-117
8.97417e-119
3.34829e-120
1.43561e-121
7.12017e-123
4.02912e-124
2.4823e-125
1.49533e-126
6.94523e-128
9.51825e-130
6.54089e-78
6.04723e-79
4.9873e-80
3.72805e-81
2.54787e-82
1.71262e-83
1.11497e-84
6.85761e-86
4.0426e-87
2.28382e-88
1.25215e-89
6.6031e-91
3.34796e-92
1.63367e-93
7.58865e-95
3.36814e-96
1.42163e-97
5.67651e-99
2.15715e-100
7.76394e-102
2.64168e-103
8.54204e-105
2.63085e-106
7.72084e-108
2.17324e-109
5.93389e-111
1.59414e-112
4.27187e-114
1.16655e-115
3.3289e-117
1.02052e-118
3.4571e-120
1.32777e-121
5.8927e-123
3.04211e-124
1.8012e-125
1.16601e-126
7.39717e-128
3.61269e-129
5.08172e-131
1.29497e-79
1.27243e-80
1.10642e-81
8.67006e-83
6.30588e-84
4.54109e-85
3.02892e-86
1.90661e-87
1.1484e-88
6.61804e-90
3.69578e-91
1.98229e-92
1.02093e-93
5.05422e-95
2.37924e-96
1.06905e-97
4.5637e-99
1.84142e-100
7.06569e-102
2.56601e-103
8.80431e-105
2.86952e-106
8.90508e-108
2.63298e-109
7.46789e-111
2.0557e-112
5.57308e-114
1.50939e-115
4.17503e-117
1.21032e-118
3.78334e-120
1.31263e-121
5.18943e-123
2.38362e-124
1.28059e-125
7.93111e-127
5.39257e-128
3.60109e-129
1.84825e-130
2.66669e-132
2.43423e-81
2.55082e-82
2.34668e-83
1.95389e-84
1.5777e-85
1.16894e-86
8.00045e-88
5.15842e-89
3.17734e-90
1.86939e-91
1.0642e-92
5.81051e-94
3.04221e-95
1.52919e-96
7.30059e-98
3.32327e-99
1.43586e-100
5.85844e-102
2.27123e-103
8.32774e-105
2.88306e-106
9.47622e-108
2.96467e-109
8.83555e-111
2.52628e-112
7.01365e-114
1.91948e-115
5.25579e-117
1.4729e-118
4.33847e-120
1.38297e-121
4.91439e-123
1.9998e-124
9.5053e-126
5.3131e-127
3.44085e-128
2.45628e-129
1.72575e-130
9.30286e-132
1.37592e-133
4.35982e-83
4.89518e-84
4.89521e-85
4.59944e-86
3.83984e-87
2.92506e-88
2.05653e-89
1.3596e-90
8.57209e-92
5.15361e-93
2.99331e-94
1.66506e-95
8.86929e-97
4.53003e-98
2.19493e-99
1.01292e-100
4.43229e-102
1.82978e-103
7.17153e-105
2.65633e-106
9.28382e-108
3.07886e-109
9.71509e-111
2.91971e-112
8.41898e-114
2.3582e-115
6.51721e-117
1.8046e-118
5.12492e-120
1.53406e-121
4.98717e-123
1.81511e-124
7.60196e-126
3.73843e-127
2.17354e-128
1.4714e-129
1.10233e-130
8.14445e-132
4.60851e-133
6.98314e-135
7.50321e-85
9.63828e-86
1.07889e-86
1.0529e-87
9.0655e-89
7.11927e-90
5.14904e-91
3.4946e-92
2.25766e-93
1.3883e-94
8.23422e-96
4.67024e-97
2.53289e-98
1.31547e-99
6.47316e-101
3.03036e-102
1.34376e-103
5.6162e-105
2.2265e-106
8.3353e-108
2.94233e-109
9.84997e-111
3.13612e-112
9.50811e-114
2.76595e-115
7.8193e-117
2.18282e-118
6.11381e-120
1.75984e-121
5.35399e-123
1.77522e-124
6.61733e-126
2.85209e-127
1.45087e-128
8.77156e-130
6.20479e-131
4.87622e-132
3.78676e-133
2.2479e-134
3.48777e-136
1.43238e-86
1.97109e-87
2.30289e-88
2.33064e-89
2.0786e-90
1.68621e-91
1.25664e-92
8.76719e-94
5.81044e-95
3.65827e-96
2.21771e-97
1.28357e-98
7.0932e-100
3.74854e-101
1.87456e-102
8.90772e-104
4.0051e-105
1.69558e-106
6.80276e-108
2.57523e-109
9.18562e-111
3.10537e-112
9.98029e-114
3.0536e-115
8.96479e-117
2.55859e-118
7.21674e-120
2.04508e-121
5.96769e-123
1.84549e-124
6.24124e-126
2.38271e-127
1.05671e-128
5.55933e-130
3.49388e-131
2.58149e-132
2.12717e-133
1.73537e-134
1.08009e-135
1.71514e-137
2.67479e-88
3.87325e-89
4.73285e-90
4.99622e-91
4.62885e-92
3.88779e-93
2.99081e-94
2.14814e-95
1.46231e-96
9.43662e-98
5.8526e-99
3.45963e-100
1.94952e-101
1.04908e-102
5.3349e-104
2.57477e-105
1.17448e-106
5.03911e-108
2.04699e-109
7.83927e-111
2.82664e-112
9.65405e-114
3.13309e-115
9.67749e-117
2.8682e-118
8.26683e-120
2.3566e-121
6.75819e-123
1.99961e-124
6.2865e-126
2.16859e-127
8.47879e-129
3.86873e-130
2.10445e-131
1.3744e-132
1.06023e-133
9.15551e-135
7.84211e-136
5.11451e-137
8.30828e-139
4.74703e-90
7.28903e-91
9.37924e-92
1.03671e-92
1.00081e-93
8.72371e-95
6.9408e-96
5.1404e-97
3.59907e-98
2.38329e-99
1.51374e-100
9.14719e-102
5.26032e-103
2.88448e-104
1.49263e-105
7.32101e-107
3.38983e-108
1.47474e-109
6.06846e-111
2.35212e-112
8.57708e-114
2.96062e-115
9.70602e-117
3.02763e-118
9.06178e-120
2.63843e-121
7.60368e-123
2.20728e-124
6.62347e-126
2.11729e-127
7.4508e-129
2.98346e-130
1.40043e-131
7.87479e-133
5.34257e-134
4.3009e-135
3.88995e-136
3.49605e-137
2.38763e-138
3.96609e-140
8.01584e-92
1.31448e-92
1.78993e-93
2.07936e-94
2.0979e-95
1.90246e-96
1.56866e-97
1.19999e-98
8.65415e-100
5.88816e-101
3.83427e-102
2.37085e-103
1.39264e-104
7.78782e-106
4.10373e-107
2.04688e-108
9.62634e-110
4.2488e-111
1.77197e-112
6.9545e-114
2.56581e-115
8.9548e-117
2.96677e-118
9.34939e-120
2.82694e-121
8.31773e-123
2.42416e-124
7.12561e-126
2.16914e-127
7.05218e-129
2.5321e-130
1.03849e-131
5.01475e-133
2.91455e-134
2.05346e-135
1.72426e-136
1.63228e-137
1.53799e-138
1.099e-139
1.86608e-141
1.20194e-93
2.11396e-94
3.07142e-95
3.82077e-96
4.07129e-97
3.8739e-98
3.33243e-99
2.64711e-100
1.97574e-101
1.38648e-102
9.29162e-104
5.89949e-105
3.55096e-106
2.03169e-107
1.09336e-108
5.56148e-110
2.66375e-111
1.1955e-112
5.06424e-114
2.01674e-115
7.54191e-117
2.66575e-118
8.9388e-120
2.8483e-121
8.70442e-123
2.58928e-124
7.63494e-126
2.27344e-127
7.02385e-129
2.32101e-130
8.48669e-132
3.55375e-133
1.7565e-134
1.04806e-135
7.61003e-137
6.6269e-138
6.57782e-139
6.58882e-140
4.9914e-141
8.65793e-143
1.26924e-94
1.79373e-95
2.1565e-96
2.24719e-97
2.09978e-98
1.78134e-99
1.39983e-100
1.03534e-101
7.21441e-103
4.80042e-104
3.02724e-105
1.80999e-106
1.02806e-107
5.49409e-109
2.7746e-110
1.31938e-111
5.88766e-113
2.49257e-114
9.9244e-116
3.7132e-117
1.31343e-118
4.4093e-120
1.40839e-121
4.44284e-123
1.37496e-124
4.14237e-126
1.23774e-127
3.73874e-129
1.17371e-130
4.17787e-132
1.74266e-133
8.63381e-135
5.2445e-136
3.88201e-137
3.42732e-138
3.38332e-139
3.25411e-140
2.37537e-141
1.17425e-142
2.09488e-144
)
;

boundaryField
{
    leftWall
    {
        type            zeroGradient;
    }
    rightWall
    {
        type            zeroGradient;
    }
    lowerWall
    {
        type            zeroGradient;
    }
    atmosphere
    {
        type            inletOutlet;
        inletValue      uniform 0;
        value           nonuniform List<scalar> 
45
(
2.787e-91
6.72711e-92
1.53612e-92
3.42776e-93
7.42946e-94
1.26924e-94
1.79373e-95
2.1565e-96
2.24719e-97
2.09978e-98
1.78134e-99
1.39983e-100
1.03534e-101
7.21441e-103
4.80042e-104
3.02724e-105
1.80999e-106
1.02806e-107
5.49409e-109
2.7746e-110
1.31938e-111
5.88766e-113
2.49257e-114
9.9244e-116
3.7132e-117
1.31343e-118
4.4093e-120
1.40839e-121
4.44284e-123
1.37496e-124
4.14237e-126
1.23774e-127
3.73874e-129
1.17371e-130
4.17787e-132
1.74266e-133
8.63381e-135
5.2445e-136
3.88201e-137
3.42732e-138
3.38332e-139
3.25411e-140
2.37537e-141
1.17425e-142
2.09488e-144
)
;
    }
    defaultFaces
    {
        type            empty;
    }
    procBoundary3to1
    {
        type            processor;
        value           nonuniform List<scalar> 
45
(
1.40741e-29
1.02119e-30
7.89635e-32
6.01895e-33
4.60764e-34
3.4282e-35
2.2379e-36
1.52435e-37
1.02354e-38
6.76881e-40
4.42559e-41
2.87255e-42
1.85665e-43
1.19499e-44
7.62847e-46
4.79434e-47
2.93971e-48
1.74299e-49
9.91741e-51
5.38329e-52
2.77558e-53
1.35508e-54
6.25053e-56
2.71962e-57
1.11481e-58
4.30083e-60
1.56022e-61
5.31808e-63
1.70199e-64
5.11132e-66
1.4398e-67
3.80353e-69
9.42444e-71
2.19146e-72
4.78628e-74
9.82938e-76
1.9e-77
3.45788e-79
5.91633e-81
9.46694e-83
1.39903e-84
1.85876e-86
2.09845e-88
1.77624e-90
7.76862e-93
)
;
    }
    procBoundary3to2
    {
        type            processor;
        value           nonuniform List<scalar> 
43
(
2.61848e-29
3.1301e-30
3.53018e-31
3.85784e-32
4.04745e-33
4.04141e-34
3.82622e-35
3.42204e-36
2.87898e-37
2.26742e-38
1.66245e-39
1.12724e-40
7.01035e-42
3.91704e-43
2.27392e-44
1.41731e-45
8.36568e-47
4.58034e-48
2.2546e-49
9.7426e-51
3.85725e-52
1.40571e-53
4.69564e-55
1.43538e-56
4.00943e-58
1.0221e-59
2.37543e-61
5.02899e-63
9.69315e-65
1.70287e-66
2.73367e-68
3.99839e-70
5.33505e-72
6.50626e-74
7.27179e-76
7.47617e-78
7.10565e-80
6.28475e-82
5.21843e-84
4.12927e-86
4.60788e-88
4.4012e-90
1.07813e-90
)
;
    }
}


// ************************************************************************* //
