/*--------------------------------*- C++ -*----------------------------------*\
| =========                 |                                                 |
| \\      /  F ield         | OpenFOAM: The Open Source CFD Toolbox           |
|  \\    /   O peration     | Version:  5.0                                   |
|   \\  /    A nd           | Web:      www.OpenFOAM.org                      |
|    \\/     M anipulation  |                                                 |
\*---------------------------------------------------------------------------*/
FoamFile
{
    version     2.0;
    format      ascii;
    class       volScalarField;
    location    "0.1";
    object      epsilon;
}
// * * * * * * * * * * * * * * * * * * * * * * * * * * * * * * * * * * * * * //

dimensions      [0 2 -3 0 0 0 0];

internalField   nonuniform List<scalar> 
1935
(
0.0870712
0.0870695
0.0870678
0.0870617
0.0870481
0.0870232
0.0869834
0.0869256
0.0868477
0.0867487
0.0866286
0.0864889
0.0863325
0.0861628
0.0859842
0.0858011
0.0856178
0.0854382
0.0852654
0.0851017
0.0849487
0.0848075
0.0846784
0.0845613
0.0844558
0.0843613
0.0842769
0.084202
0.0841358
0.0840775
0.0840266
0.0839828
0.0839457
0.0839156
0.083893
0.0838792
0.0838757
0.0838843
0.0839063
0.08394
0.0839791
0.084011
0.0840236
0.0866838
0.0863114
0.0859603
0.0856498
0.086662
0.0862759
0.0859168
0.0856015
0.08664
0.0862417
0.0858752
0.0855557
0.0866153
0.0862059
0.0858333
0.0855108
0.0865848
0.0861662
0.0857893
0.0854652
0.0865459
0.0861205
0.0857415
0.0854175
0.086496
0.0860671
0.0856885
0.0853667
0.0864331
0.0860045
0.0856293
0.0853118
0.0863557
0.0859316
0.0855632
0.0852524
0.0862631
0.0858481
0.0854896
0.0851881
0.0861556
0.0857541
0.0854089
0.0851189
0.0860345
0.0856505
0.0853215
0.0850451
0.0859015
0.0855387
0.0852285
0.0849675
0.0857594
0.0854206
0.085131
0.0848869
0.0856113
0.0852983
0.0850307
0.0848044
0.0854603
0.0851741
0.0849291
0.0847209
0.0853095
0.0850503
0.0848278
0.0846377
0.0851617
0.0849288
0.0847283
0.0845558
0.0850192
0.0848114
0.0846318
0.0844762
0.0848838
0.0846994
0.0845393
0.0843995
0.0847569
0.0845939
0.0844517
0.0843265
0.084639
0.0844954
0.0843694
0.0842576
0.0845306
0.0844043
0.0842928
0.0841929
0.0844318
0.0843206
0.084222
0.0841328
0.0843421
0.0842442
0.0841569
0.0840771
0.0842613
0.084175
0.0840975
0.0840259
0.0841888
0.0841124
0.0840434
0.0839791
0.0841241
0.0840562
0.0839945
0.0839365
0.0840665
0.0840058
0.0839505
0.0838978
0.0840155
0.0839611
0.083911
0.083863
0.0839708
0.0839215
0.0838759
0.0838318
0.0839319
0.0838869
0.083845
0.0838041
0.0838987
0.0838569
0.0838179
0.0837797
0.0838711
0.0838316
0.0837946
0.0837583
0.0838495
0.0838109
0.083775
0.0837398
0.0838341
0.0837947
0.0837586
0.0837237
0.0838257
0.0837831
0.083745
0.0837092
0.0838244
0.0837753
0.0837331
0.083695
0.0838297
0.0837698
0.083721
0.083679
0.0838389
0.0837639
0.0837058
0.0836586
0.083847
0.0837536
0.0836847
0.083632
0.0838474
0.0837362
0.0836577
0.0836002
0.0838391
0.0837169
0.0836327
0.0835727
0.0853806
0.0851627
0.0849895
0.0848439
0.0847143
0.0845946
0.0844815
0.084374
0.0842722
0.0841767
0.0840878
0.084006
0.0839315
0.0838645
0.0838051
0.0837538
0.0837115
0.0836801
0.083663
0.083666
0.0836983
0.0837744
0.0839163
0.0841556
0.0845379
0.0851262
0.086006
0.0872914
0.0891331
0.0917298
0.0953447
0.100332
0.107181
0.116583
0.129558
0.147683
0.173631
0.212922
0.283966
0.554436
0.0853291
0.0851088
0.0849342
0.084788
0.0846588
0.0845403
0.0844292
0.0843243
0.0842254
0.084133
0.0840473
0.0839686
0.0838972
0.083833
0.0837762
0.0837274
0.0836873
0.083658
0.0836429
0.0836476
0.0836817
0.0837597
0.0839033
0.0841447
0.0845293
0.0851203
0.0860032
0.0872923
0.0891386
0.0917406
0.0953618
0.100357
0.107214
0.116626
0.129612
0.14775
0.173709
0.213003
0.284013
0.554196
0.0852805
0.085058
0.0848819
0.0847351
0.0846063
0.0844889
0.0843796
0.0842769
0.0841808
0.0840912
0.0840085
0.0839327
0.0838641
0.0838026
0.0837484
0.0837018
0.0836639
0.0836366
0.0836233
0.0836299
0.0836657
0.0837454
0.0838909
0.0841343
0.0845212
0.0851148
0.0860009
0.0872939
0.0891447
0.0917521
0.0953797
0.100382
0.107248
0.11667
0.129668
0.147817
0.173786
0.213082
0.284054
0.553918
0.0852337
0.0850095
0.0848321
0.0846848
0.0845562
0.0844398
0.0843321
0.0842317
0.084138
0.0840512
0.0839712
0.0838983
0.0838323
0.0837734
0.0837215
0.0836772
0.0836413
0.0836159
0.0836044
0.0836127
0.0836502
0.0837316
0.0838789
0.0841244
0.0845136
0.08511
0.0859993
0.0872961
0.0891514
0.0917642
0.0953982
0.100408
0.107283
0.116715
0.129723
0.147884
0.173863
0.213158
0.284088
0.553608
0.0851873
0.0849622
0.084784
0.0846363
0.0845081
0.0843927
0.0842866
0.0841883
0.084097
0.0840128
0.0839355
0.0838652
0.0838018
0.0837452
0.0836957
0.0836535
0.0836196
0.083596
0.0835863
0.0835962
0.0836354
0.0837185
0.0838676
0.0841151
0.0845066
0.0851057
0.0859982
0.0872989
0.0891588
0.091777
0.0954174
0.100435
0.107318
0.11676
0.129779
0.147951
0.173938
0.213232
0.284116
0.553267
0.0851402
0.0849151
0.0847367
0.0845891
0.0844615
0.0843472
0.0842428
0.0841465
0.0840576
0.0839759
0.0839012
0.0838334
0.0837725
0.0837183
0.0836709
0.0836308
0.0835988
0.083577
0.0835689
0.0835805
0.0836213
0.083706
0.083857
0.0841064
0.0845003
0.085102
0.0859978
0.0873023
0.0891668
0.0917904
0.0954372
0.100462
0.107354
0.116805
0.129834
0.148017
0.174012
0.213303
0.284138
0.552895
0.0850914
0.0848674
0.0846897
0.0845426
0.0844159
0.084303
0.0842004
0.0841063
0.0840198
0.0839405
0.0838683
0.083803
0.0837444
0.0836925
0.0836473
0.0836091
0.0835789
0.0835589
0.0835524
0.0835656
0.0836079
0.0836943
0.083847
0.0840984
0.0844946
0.085099
0.085998
0.0873064
0.0891754
0.0918045
0.0954574
0.100489
0.107389
0.11685
0.129889
0.148082
0.174085
0.213372
0.284153
0.552494
0.0850404
0.0848187
0.0846424
0.0844965
0.084371
0.0842598
0.0841591
0.0840673
0.0839832
0.0839064
0.0838367
0.0837739
0.0837177
0.0836679
0.0836247
0.0835884
0.0835601
0.0835417
0.0835368
0.0835515
0.0835954
0.0836834
0.0838378
0.0840912
0.0844896
0.0850967
0.0859989
0.0873111
0.0891846
0.091819
0.0954782
0.100517
0.107425
0.116895
0.129944
0.148146
0.174155
0.213437
0.284161
0.552066
0.0849865
0.0847686
0.0845945
0.0844504
0.0843267
0.0842173
0.0841189
0.0840294
0.0839478
0.0838736
0.0838065
0.083746
0.0836921
0.0836445
0.0836033
0.0835689
0.0835423
0.0835255
0.0835221
0.0835383
0.0835837
0.0836732
0.0838293
0.0840846
0.0844853
0.0850951
0.0860004
0.0873164
0.0891944
0.0918341
0.0954994
0.100546
0.107462
0.11694
0.129998
0.148209
0.174224
0.213498
0.284163
0.551611
0.0849297
0.0847167
0.0845459
0.0844042
0.0842827
0.0841756
0.0840795
0.0839925
0.0839136
0.083842
0.0837774
0.0837194
0.0836677
0.0836223
0.083583
0.0835504
0.0835255
0.0835102
0.0835084
0.083526
0.0835728
0.0836639
0.0838217
0.0840788
0.0844817
0.0850941
0.0860026
0.0873223
0.0892048
0.0918496
0.095521
0.100574
0.107498
0.116985
0.130052
0.148271
0.174291
0.213558
0.284159
0.55113
0.0848697
0.0846631
0.0844965
0.0843579
0.0842391
0.0841346
0.0840411
0.0839568
0.0838804
0.0838115
0.0837494
0.0836939
0.0836445
0.0836011
0.0835638
0.083533
0.0835097
0.0834959
0.0834955
0.0835146
0.0835628
0.0836554
0.0838148
0.0840738
0.0844788
0.0850938
0.0860054
0.0873288
0.0892157
0.0918657
0.095543
0.100603
0.107534
0.11703
0.130106
0.148334
0.174359
0.213617
0.284154
0.550619
0.0848068
0.0846078
0.0844463
0.0843115
0.0841958
0.0840942
0.0840035
0.083922
0.0838484
0.0837822
0.0837227
0.0836695
0.0836224
0.0835811
0.0835456
0.0835165
0.0834948
0.0834826
0.0834836
0.083504
0.0835537
0.0836477
0.0838086
0.0840695
0.0844766
0.0850942
0.0860089
0.087336
0.0892272
0.0918824
0.0955657
0.100632
0.107572
0.117075
0.130161
0.148398
0.174431
0.213688
0.284185
0.55022
0.0847415
0.0845512
0.0843956
0.0842651
0.084153
0.0840545
0.0839669
0.0838883
0.0838175
0.083754
0.083697
0.0836463
0.0836013
0.0835621
0.0835285
0.0835011
0.083481
0.0834702
0.0834726
0.0834944
0.0835454
0.0836408
0.0838034
0.084066
0.0844753
0.0850954
0.0860132
0.0873439
0.0892396
0.0918999
0.0955892
0.100663
0.10761
0.117123
0.130218
0.148465
0.174505
0.213761
0.284225
0.549869
0.0846742
0.0844935
0.0843445
0.0842189
0.0841106
0.0840157
0.0839312
0.0838556
0.0837878
0.083727
0.0836726
0.0836242
0.0835814
0.0835442
0.0835124
0.0834867
0.083468
0.0834587
0.0834624
0.0834855
0.0835378
0.0836347
0.0837989
0.0840634
0.0844748
0.0850975
0.0860183
0.0873528
0.0892528
0.0919183
0.0956136
0.100694
0.107649
0.11717
0.130275
0.14853
0.174578
0.213833
0.284261
0.549514
0.0846057
0.0844352
0.0842933
0.084173
0.084069
0.0839777
0.0838966
0.0838241
0.0837592
0.0837011
0.0836493
0.0836032
0.0835626
0.0835273
0.0834973
0.0834732
0.083456
0.083448
0.0834531
0.0834774
0.0835311
0.0836293
0.083795
0.0840613
0.0844749
0.0851001
0.086024
0.0873621
0.0892665
0.0919371
0.0956382
0.100725
0.107688
0.117217
0.13033
0.148594
0.174647
0.2139
0.284291
0.549142
0.0845368
0.0843768
0.0842424
0.0841277
0.0840282
0.0839408
0.0838631
0.0837938
0.0837318
0.0836765
0.0836271
0.0835834
0.0835449
0.0835114
0.0834832
0.0834606
0.0834449
0.0834382
0.0834445
0.0834701
0.083525
0.0836246
0.0837918
0.0840598
0.0844755
0.0851032
0.0860301
0.0873718
0.0892803
0.0919557
0.0956624
0.100756
0.107725
0.117262
0.130383
0.148654
0.174713
0.213962
0.284313
0.548752
0.084468
0.0843189
0.0841922
0.0840833
0.0839885
0.083905
0.0838308
0.0837647
0.0837057
0.0836531
0.0836062
0.0835647
0.0835282
0.0834966
0.08347
0.0834489
0.0834345
0.0834291
0.0834366
0.0834634
0.0835195
0.0836204
0.0837891
0.0840588
0.0844764
0.0851065
0.0860363
0.0873814
0.089294
0.091974
0.095686
0.100785
0.107761
0.117305
0.130433
0.148711
0.174773
0.214017
0.284325
0.548346
0.0844004
0.0842619
0.084143
0.08404
0.0839499
0.0838704
0.0837998
0.0837369
0.0836808
0.0836308
0.0835864
0.0835471
0.0835126
0.0834827
0.0834577
0.0834381
0.083425
0.0834208
0.0834295
0.0834573
0.0835146
0.0836167
0.0837868
0.0840581
0.0844776
0.08511
0.0860425
0.0873908
0.0893072
0.0919916
0.0957085
0.100813
0.107795
0.117345
0.130479
0.148762
0.174827
0.214065
0.284327
0.547926
0.0843344
0.0842063
0.0840951
0.0839981
0.0839127
0.0838373
0.0837702
0.0837105
0.0836573
0.0836099
0.0835678
0.0835306
0.083498
0.0834698
0.0834463
0.0834281
0.0834163
0.0834132
0.0834229
0.0834519
0.0835102
0.0836135
0.0837849
0.0840577
0.084479
0.0851135
0.0860486
0.0873999
0.0893198
0.0920082
0.0957296
0.100839
0.107826
0.117382
0.130522
0.148809
0.174876
0.214106
0.284321
0.547497
0.0842707
0.0841527
0.0840489
0.0839577
0.083877
0.0838056
0.083742
0.0836854
0.083635
0.0835901
0.0835503
0.0835151
0.0834843
0.0834578
0.0834358
0.0834188
0.0834082
0.0834063
0.083417
0.0834469
0.0835063
0.0836107
0.0837832
0.0840575
0.0844804
0.0851169
0.0860543
0.0874084
0.0893316
0.0920237
0.0957492
0.100863
0.107855
0.117416
0.13056
0.148851
0.174918
0.214138
0.284305
0.547061
0.0842097
0.0841012
0.0840046
0.083919
0.083843
0.0837754
0.0837153
0.0836617
0.083614
0.0835716
0.0835339
0.0835007
0.0834717
0.0834467
0.0834261
0.0834104
0.0834009
0.0833999
0.0834116
0.0834425
0.0835028
0.0836082
0.0837818
0.0840574
0.0844819
0.0851202
0.0860597
0.0874164
0.0893424
0.0920378
0.095767
0.100885
0.107881
0.117446
0.130593
0.148887
0.174953
0.214163
0.28428
0.54662
0.0841518
0.0840522
0.0839625
0.0838822
0.0838107
0.0837469
0.08369
0.0836394
0.0835943
0.0835542
0.0835187
0.0834873
0.08346
0.0834365
0.0834172
0.0834026
0.0833941
0.0833942
0.0834067
0.0834385
0.0834996
0.0836059
0.0837806
0.0840573
0.0844832
0.0851232
0.0860647
0.0874236
0.0893522
0.0920505
0.0957829
0.100905
0.107904
0.117472
0.130622
0.148917
0.174981
0.214181
0.284248
0.546178
0.0840973
0.0840058
0.0839225
0.0838475
0.0837802
0.08372
0.0836663
0.0836185
0.0835759
0.0835381
0.0835045
0.0834749
0.0834491
0.083427
0.0834089
0.0833955
0.083388
0.0833889
0.0834023
0.0834348
0.0834968
0.0836039
0.0837796
0.0840573
0.0844844
0.0851258
0.086069
0.0874299
0.0893608
0.0920617
0.0957967
0.100921
0.107923
0.117494
0.130646
0.148942
0.175003
0.21419
0.284207
0.545738
0.0840463
0.0839623
0.083885
0.0838147
0.0837515
0.0836948
0.0836441
0.083599
0.0835588
0.083523
0.0834914
0.0834634
0.0834391
0.0834183
0.0834014
0.0833889
0.0833823
0.0833841
0.0833983
0.0834315
0.0834942
0.0836021
0.0837786
0.0840572
0.0844854
0.0851281
0.0860728
0.0874354
0.0893682
0.0920711
0.0958084
0.100935
0.107939
0.117511
0.130665
0.14896
0.175018
0.214192
0.284158
0.545302
0.0839988
0.0839216
0.0838498
0.0837841
0.0837247
0.0836713
0.0836235
0.0835808
0.0835428
0.0835091
0.0834792
0.0834528
0.0834299
0.0834103
0.0833944
0.0833829
0.0833772
0.0833797
0.0833946
0.0834285
0.0834919
0.0836004
0.0837776
0.0840571
0.0844862
0.0851299
0.0860758
0.0874398
0.0893742
0.0920789
0.0958179
0.100946
0.107952
0.117525
0.130679
0.148972
0.175025
0.214186
0.284103
0.544874
0.0839548
0.0838838
0.0838171
0.0837556
0.0836997
0.0836494
0.0836043
0.083564
0.0835281
0.0834962
0.083468
0.0834431
0.0834214
0.083403
0.0833881
0.0833775
0.0833725
0.0833758
0.0833913
0.0834258
0.0834897
0.0835989
0.0837766
0.0840568
0.0844866
0.0851313
0.0860782
0.0874433
0.0893789
0.0920848
0.0958251
0.100955
0.107961
0.117534
0.130687
0.148979
0.175026
0.214172
0.28404
0.544456
0.0839144
0.0838489
0.0837868
0.0837292
0.0836766
0.0836291
0.0835865
0.0835485
0.0835145
0.0834844
0.0834577
0.0834341
0.0834136
0.0833963
0.0833823
0.0833725
0.0833683
0.0833721
0.0833882
0.0834233
0.0834877
0.0835973
0.0837756
0.0840563
0.0844868
0.0851321
0.0860797
0.0874457
0.0893822
0.0920889
0.09583
0.10096
0.107966
0.117539
0.130691
0.148979
0.17502
0.214152
0.283972
0.544052
0.0838773
0.0838168
0.0837589
0.0837048
0.0836553
0.0836105
0.0835702
0.0835342
0.0835021
0.0834735
0.0834482
0.0834259
0.0834065
0.0833901
0.083377
0.0833679
0.0833644
0.0833688
0.0833854
0.0834209
0.0834858
0.0835958
0.0837745
0.0840556
0.0844866
0.0851324
0.0860805
0.087447
0.089384
0.0920912
0.0958326
0.100963
0.107969
0.11754
0.130689
0.148974
0.175007
0.214124
0.283899
0.543664
0.0838436
0.0837875
0.0837333
0.0836825
0.0836358
0.0835934
0.0835553
0.0835211
0.0834907
0.0834636
0.0834396
0.0834184
0.0834001
0.0833845
0.0833722
0.0833638
0.0833608
0.0833658
0.0833829
0.0834188
0.083484
0.0835943
0.0837734
0.0840548
0.084486
0.0851321
0.0860805
0.0874473
0.0893845
0.0920917
0.0958328
0.100962
0.107967
0.117537
0.130683
0.148962
0.174989
0.21409
0.283821
0.543294
0.083813
0.0837608
0.08371
0.0836621
0.0836179
0.0835778
0.0835416
0.0835092
0.0834803
0.0834545
0.0834317
0.0834116
0.0833942
0.0833794
0.0833678
0.08336
0.0833576
0.083363
0.0833805
0.0834167
0.0834822
0.0835928
0.0837721
0.0840536
0.084485
0.0851312
0.0860797
0.0874464
0.0893835
0.0920904
0.0958309
0.100959
0.107962
0.11753
0.130672
0.148946
0.174963
0.21405
0.283739
0.542946
0.0837855
0.0837367
0.0836888
0.0836436
0.0836017
0.0835636
0.0835292
0.0834984
0.0834708
0.0834463
0.0834246
0.0834054
0.0833888
0.0833748
0.0833638
0.0833566
0.0833546
0.0833605
0.0833783
0.0834148
0.0834805
0.0835913
0.0837706
0.0840523
0.0844836
0.0851298
0.0860781
0.0874445
0.0893811
0.0920873
0.0958267
0.100953
0.107954
0.117518
0.130656
0.148924
0.174933
0.214004
0.283653
0.542621
0.0837609
0.083715
0.0836698
0.0836269
0.0835871
0.0835507
0.0835179
0.0834885
0.0834623
0.0834389
0.0834181
0.0833998
0.083384
0.0833706
0.0833602
0.0833535
0.0833519
0.0833581
0.0833762
0.083413
0.0834789
0.0835897
0.0837691
0.0840507
0.0844819
0.0851278
0.0860757
0.0874416
0.0893774
0.0920825
0.0958203
0.100945
0.107943
0.117503
0.130636
0.148897
0.174896
0.213953
0.283566
0.542321
0.083739
0.0836956
0.0836527
0.0836118
0.0835738
0.0835391
0.0835078
0.0834796
0.0834545
0.0834321
0.0834122
0.0833947
0.0833795
0.0833668
0.0833569
0.0833506
0.0833495
0.083356
0.0833743
0.0834112
0.0834772
0.0835881
0.0837674
0.0840489
0.0844798
0.0851253
0.0860726
0.0874377
0.0893724
0.092076
0.095812
0.100934
0.107929
0.117485
0.130612
0.148865
0.174855
0.213897
0.283476
0.542049
0.0837196
0.0836783
0.0836373
0.0835982
0.0835618
0.0835285
0.0834985
0.0834715
0.0834474
0.0834259
0.0834068
0.0833901
0.0833755
0.0833633
0.0833539
0.083348
0.0833472
0.083354
0.0833725
0.0834096
0.0834756
0.0835865
0.0837657
0.0840468
0.0844774
0.0851222
0.0860688
0.0874328
0.0893662
0.092068
0.0958017
0.100921
0.107912
0.117463
0.130584
0.14883
0.17481
0.213838
0.283386
0.541805
0.0837025
0.0836627
0.0836233
0.0835857
0.0835507
0.0835187
0.0834899
0.0834639
0.0834408
0.0834201
0.0834018
0.0833857
0.0833717
0.08336
0.0833511
0.0833456
0.083345
0.083352
0.0833708
0.0834079
0.083474
0.0835848
0.0837637
0.0840446
0.0844746
0.0851187
0.0860644
0.0874271
0.0893589
0.0920587
0.0957898
0.100906
0.107892
0.117438
0.130552
0.14879
0.17476
0.213775
0.283296
0.541589
0.0836871
0.0836483
0.0836101
0.0835738
0.0835401
0.0835093
0.0834815
0.0834566
0.0834343
0.0834145
0.0833969
0.0833814
0.083368
0.0833568
0.0833483
0.0833431
0.0833429
0.0833501
0.083369
0.0834062
0.0834723
0.083583
0.0837617
0.0840421
0.0844715
0.0851148
0.0860593
0.0874206
0.0893505
0.0920481
0.0957762
0.100889
0.107871
0.117411
0.130518
0.148748
0.174708
0.213709
0.283206
0.541402
0.0836724
0.0836342
0.0835969
0.0835617
0.0835292
0.0834996
0.0834729
0.0834489
0.0834276
0.0834086
0.0833917
0.0833769
0.0833641
0.0833534
0.0833453
0.0833405
0.0833406
0.0833481
0.0833671
0.0834044
0.0834704
0.083581
0.0837594
0.0840393
0.0844681
0.0851105
0.0860537
0.0874135
0.0893414
0.0920363
0.0957614
0.10087
0.107847
0.117382
0.130482
0.148703
0.174653
0.213642
0.283119
0.54124
0.0836571
0.083619
0.0835824
0.0835483
0.0835169
0.0834885
0.083463
0.0834402
0.0834199
0.0834018
0.0833858
0.0833717
0.0833595
0.0833494
0.0833418
0.0833375
0.0833379
0.0833456
0.0833649
0.0834023
0.0834683
0.0835787
0.0837568
0.0840363
0.0844643
0.0851057
0.0860477
0.0874057
0.0893315
0.0920238
0.0957455
0.10085
0.107822
0.117351
0.130444
0.148657
0.174597
0.213576
0.283035
0.541099
0.0836392
0.0836008
0.0835649
0.0835319
0.0835019
0.083475
0.0834509
0.0834294
0.0834103
0.0833933
0.0833783
0.0833651
0.0833538
0.0833444
0.0833373
0.0833335
0.0833344
0.0833425
0.083362
0.0833996
0.0834657
0.083576
0.0837539
0.0840329
0.0844602
0.0851006
0.0860412
0.0873975
0.089321
0.0920106
0.0957291
0.100829
0.107797
0.11732
0.130406
0.148611
0.174543
0.213512
0.282956
0.540968
0.0836164
0.0835775
0.0835424
0.083511
0.0834828
0.0834577
0.0834354
0.0834156
0.083398
0.0833824
0.0833687
0.0833566
0.0833463
0.0833377
0.0833315
0.0833284
0.0833299
0.0833385
0.0833584
0.0833962
0.0834625
0.0835728
0.0837504
0.084029
0.0844557
0.0850951
0.0860344
0.087389
0.0893104
0.0919974
0.0957125
0.100809
0.107772
0.117289
0.130369
0.148568
0.174493
0.213454
0.282885
0.54083
0.0835872
0.0835482
0.0835145
0.083485
0.0834591
0.0834363
0.0834162
0.0833985
0.0833828
0.0833689
0.0833567
0.083346
0.0833369
0.0833294
0.0833242
0.0833219
0.0833241
0.0833333
0.0833537
0.083392
0.0834585
0.0835689
0.0837465
0.0840248
0.084451
0.0850896
0.0860277
0.0873808
0.0893002
0.0919846
0.0956968
0.10079
0.107748
0.117261
0.130336
0.148529
0.174449
0.213407
0.282827
0.540652
0.0835538
0.0835154
0.0834835
0.0834564
0.0834332
0.0834129
0.0833952
0.0833797
0.0833661
0.083354
0.0833434
0.0833342
0.0833264
0.0833202
0.0833159
0.0833146
0.0833176
0.0833275
0.0833486
0.0833873
0.0834541
0.0835648
0.0837424
0.0840206
0.0844463
0.0850843
0.0860216
0.0873734
0.0892912
0.0919736
0.0956833
0.100773
0.107728
0.117237
0.130308
0.148497
0.174415
0.213374
0.282792
0.540391
0.0835259
0.0834885
0.0834585
0.0834335
0.0834124
0.0833942
0.0833785
0.0833647
0.0833526
0.083342
0.0833327
0.0833247
0.0833179
0.0833126
0.0833092
0.0833086
0.0833123
0.0833228
0.0833443
0.0833835
0.0834506
0.0835615
0.0837393
0.0840174
0.084443
0.0850807
0.0860174
0.0873684
0.0892852
0.0919663
0.0956744
0.100762
0.107715
0.11722
0.130286
0.148471
0.174382
0.213333
0.282732
0.540122
)
;

boundaryField
{
    leftWall
    {
        Cmu             0.09;
        kappa           0.41;
        E               9.8;
        type            epsilonWallFunction;
        value           nonuniform 0();
    }
    rightWall
    {
        Cmu             0.09;
        kappa           0.41;
        E               9.8;
        type            epsilonWallFunction;
        value           nonuniform List<scalar> 
43
(
0.554436
0.554196
0.553918
0.553608
0.553267
0.552895
0.552494
0.552066
0.551611
0.55113
0.550619
0.55022
0.549869
0.549514
0.549142
0.548752
0.548346
0.547926
0.547497
0.547061
0.54662
0.546178
0.545738
0.545302
0.544874
0.544456
0.544052
0.543664
0.543294
0.542946
0.542621
0.542321
0.542049
0.541805
0.541589
0.541402
0.54124
0.541099
0.540968
0.54083
0.540652
0.540391
0.540122
)
;
    }
    lowerWall
    {
        Cmu             0.09;
        kappa           0.41;
        E               9.8;
        type            epsilonWallFunction;
        value           nonuniform 0();
    }
    atmosphere
    {
        type            inletOutlet;
        inletValue      uniform 0.1;
        value           nonuniform List<scalar> 
45
(
0.0840236
0.0838391
0.0837169
0.0836327
0.0835727
0.0835259
0.0834885
0.0834585
0.0834335
0.0834124
0.0833942
0.0833785
0.0833647
0.0833526
0.083342
0.0833327
0.0833247
0.0833179
0.0833126
0.0833092
0.0833086
0.0833123
0.0833228
0.0833443
0.0833835
0.0834506
0.0835615
0.0837393
0.0840174
0.084443
0.0850807
0.0860174
0.0873684
0.0892852
0.0919663
0.0956744
0.100762
0.107715
0.11722
0.130286
0.148471
0.174382
0.213333
0.282732
0.540122
)
;
    }
    defaultFaces
    {
        type            empty;
    }
    procBoundary3to1
    {
        type            processor;
        value           nonuniform List<scalar> 
45
(
0.0870762
0.0867087
0.0863498
0.0860071
0.0857018
0.0854361
0.0852206
0.085049
0.0849037
0.0847735
0.0846522
0.0845367
0.0844264
0.0843214
0.0842225
0.0841302
0.084045
0.0839673
0.0838972
0.0838349
0.083781
0.0837364
0.0837028
0.0836837
0.0836848
0.0837153
0.0837896
0.0839295
0.0841668
0.0845469
0.0851325
0.0860092
0.087291
0.0891283
0.0917197
0.0953284
0.100309
0.107148
0.11654
0.129504
0.147617
0.173553
0.21284
0.283912
0.554627
)
;
    }
    procBoundary3to2
    {
        type            processor;
        value           nonuniform List<scalar> 
43
(
0.0874711
0.0874984
0.0875259
0.0875487
0.0875623
0.0875613
0.0875406
0.0874958
0.0874234
0.0873216
0.0871903
0.0870312
0.0868481
0.086646
0.0864309
0.0862089
0.0859859
0.0857672
0.0855572
0.0853589
0.0851745
0.0850051
0.0848511
0.0847121
0.0845876
0.0844767
0.0843784
0.0842915
0.084215
0.0841481
0.0840901
0.0840403
0.0839987
0.0839657
0.0839425
0.0839311
0.0839349
0.0839583
0.0840055
0.084078
0.0841689
0.0842569
0.0843092
)
;
    }
}


// ************************************************************************* //
