/*--------------------------------*- C++ -*----------------------------------*\
| =========                 |                                                 |
| \\      /  F ield         | OpenFOAM: The Open Source CFD Toolbox           |
|  \\    /   O peration     | Version:  5.0                                   |
|   \\  /    A nd           | Web:      www.OpenFOAM.org                      |
|    \\/     M anipulation  |                                                 |
\*---------------------------------------------------------------------------*/
FoamFile
{
    version     2.0;
    format      ascii;
    class       volScalarField;
    location    "0.1";
    object      nut;
}
// * * * * * * * * * * * * * * * * * * * * * * * * * * * * * * * * * * * * * //

dimensions      [0 2 -1 0 0 0 0];

internalField   nonuniform List<scalar> 
1935
(
0.00910823
0.00910911
0.00911
0.00911076
0.00911123
0.00911122
0.00911055
0.00910904
0.00910655
0.00910301
0.00909837
0.00909267
0.009086
0.00907852
0.00907042
0.00906192
0.00905324
0.00904459
0.00903617
0.00902811
0.00902054
0.00901353
0.00900711
0.0090013
0.00899608
0.00899143
0.00898732
0.00898369
0.00898053
0.00897779
0.00897547
0.00897357
0.00897209
0.00897108
0.00897061
0.00897073
0.00897149
0.00897289
0.0089748
0.00897697
0.008979
0.00898045
0.00898111
0.00909006
0.00907434
0.00906037
0.0090481
0.00909009
0.00907373
0.0090593
0.00904668
0.00909012
0.00907314
0.00905825
0.0090453
0.00909005
0.00907248
0.00905715
0.0090439
0.00908976
0.00907164
0.00905594
0.00904243
0.00908909
0.00907053
0.00905453
0.00904083
0.00908791
0.00906903
0.00905284
0.00903903
0.0090861
0.00906706
0.0090508
0.00903699
0.00908355
0.00906453
0.00904836
0.00903465
0.00908021
0.00906142
0.00904548
0.009032
0.00907606
0.0090577
0.00904216
0.00902903
0.00907111
0.00905339
0.00903841
0.00902575
0.00906545
0.00904856
0.00903427
0.0090222
0.00905919
0.00904328
0.00902981
0.00901841
0.00905247
0.00903767
0.0090251
0.00901444
0.00904545
0.00903183
0.00902024
0.00901037
0.00903831
0.00902591
0.00901532
0.00900625
0.00903119
0.00902001
0.00901042
0.00900216
0.00902425
0.00901425
0.00900562
0.00899816
0.00901759
0.00900871
0.009001
0.00899429
0.00901131
0.00900347
0.00899661
0.00899061
0.00900546
0.00899856
0.00899249
0.00898713
0.00900007
0.00899402
0.00898866
0.00898389
0.00899517
0.00898986
0.00898513
0.00898088
0.00899074
0.00898609
0.0089819
0.00897812
0.00898677
0.00898268
0.00897897
0.0089756
0.00898323
0.00897962
0.00897633
0.00897332
0.00898009
0.0089769
0.00897397
0.00897126
0.00897734
0.00897449
0.00897186
0.00896941
0.00897494
0.00897238
0.00897
0.00896778
0.00897289
0.00897056
0.00896839
0.00896634
0.00897118
0.00896902
0.008967
0.0089651
0.00896983
0.00896778
0.00896586
0.00896405
0.00896885
0.00896684
0.00896496
0.00896319
0.00896829
0.00896622
0.00896432
0.00896254
0.00896819
0.00896596
0.00896393
0.00896207
0.00896858
0.00896605
0.0089638
0.00896178
0.00896942
0.00896646
0.00896388
0.00896162
0.00897062
0.00896711
0.00896411
0.00896154
0.00897197
0.00896784
0.00896436
0.00896145
0.00897321
0.00896846
0.00896452
0.00896127
0.00897404
0.00896882
0.00896451
0.008961
0.00897438
0.0089689
0.00896439
0.00896074
0.00903688
0.0090269
0.00901843
0.00901115
0.00900476
0.00899908
0.00899393
0.00898921
0.00898485
0.0089808
0.00897703
0.0089735
0.00897019
0.00896703
0.00896392
0.00896071
0.00895714
0.00895281
0.00894709
0.00893901
0.00892708
0.00890913
0.00888201
0.00884131
0.00878105
0.00869342
0.00856863
0.00839497
0.00815923
0.00784754
0.00744661
0.00694552
0.00633772
0.00562309
0.00480957
0.00391377
0.00295971
0.00197468
0.00098396
0.000121643
0.00903519
0.00902501
0.00901641
0.00900905
0.00900265
0.00899698
0.00899188
0.00898724
0.00898297
0.00897903
0.00897537
0.00897196
0.00896876
0.00896571
0.0089627
0.00895958
0.0089561
0.00895184
0.00894617
0.00893812
0.0089262
0.00890823
0.00888106
0.00884026
0.00877985
0.00869202
0.00856696
0.00839298
0.00815689
0.00784481
0.00744351
0.00694209
0.00633407
0.00561936
0.00480596
0.00391049
0.00295699
0.00197273
0.000982977
0.000121617
0.00903355
0.00902318
0.00901446
0.00900704
0.00900062
0.00899498
0.00898993
0.00898536
0.00898118
0.00897734
0.00897379
0.00897049
0.0089674
0.00896445
0.00896154
0.00895851
0.0089551
0.0089509
0.00894528
0.00893726
0.00892535
0.00890736
0.00888013
0.00883923
0.00877867
0.00869063
0.00856531
0.00839101
0.00815456
0.0078421
0.00744042
0.00693868
0.00633044
0.00561566
0.00480237
0.00390722
0.00295428
0.00197079
0.000982009
0.000121586
0.00903192
0.0090214
0.00901258
0.00900511
0.00899868
0.00899306
0.00898806
0.00898356
0.00897947
0.00897573
0.00897228
0.00896909
0.0089661
0.00896325
0.00896043
0.00895748
0.00895414
0.00895001
0.00894444
0.00893644
0.00892454
0.00890653
0.00887923
0.00883823
0.00877752
0.00868927
0.00856369
0.00838907
0.00815226
0.00783941
0.00743736
0.0069353
0.00632683
0.00561198
0.0047988
0.00390399
0.00295159
0.00196888
0.00098106
0.000121553
0.00903027
0.00901962
0.00901073
0.00900323
0.0089968
0.00899121
0.00898627
0.00898185
0.00897784
0.00897419
0.00897084
0.00896775
0.00896486
0.0089621
0.00895937
0.0089565
0.00895323
0.00894915
0.00894363
0.00893566
0.00892376
0.00890572
0.00887837
0.00883726
0.0087764
0.00868795
0.0085621
0.00838716
0.00814999
0.00783676
0.00743434
0.00693196
0.00632327
0.00560834
0.00479528
0.00390079
0.00294895
0.001967
0.000980136
0.000121518
0.00902854
0.00901781
0.00900889
0.00900138
0.00899497
0.00898942
0.00898454
0.00898019
0.00897627
0.00897271
0.00896946
0.00896646
0.00896367
0.008961
0.00895835
0.00895556
0.00895236
0.00894834
0.00894285
0.0089349
0.008923
0.00890494
0.00887753
0.00883632
0.00877531
0.00868665
0.00856054
0.00838529
0.00814776
0.00783416
0.00743137
0.00692867
0.00631976
0.00560476
0.00479181
0.00389765
0.00294635
0.00196516
0.000979239
0.000121479
0.00902669
0.00901594
0.00900701
0.00899952
0.00899316
0.00898767
0.00898286
0.00897859
0.00897476
0.00897129
0.00896813
0.00896523
0.00896253
0.00895995
0.00895738
0.00895466
0.00895152
0.00894756
0.00894211
0.00893418
0.00892228
0.00890419
0.00887672
0.00883541
0.00877425
0.00868539
0.00855902
0.00838346
0.00814558
0.0078316
0.00742845
0.00692544
0.00631631
0.00560124
0.00478841
0.00389457
0.00294381
0.00196336
0.000978371
0.000121438
0.00902467
0.00901396
0.00900508
0.00899766
0.00899136
0.00898594
0.00898121
0.00897703
0.00897329
0.00896992
0.00896685
0.00896405
0.00896143
0.00895894
0.00895645
0.0089538
0.00895073
0.00894681
0.0089414
0.00893349
0.00892159
0.00890347
0.00887594
0.00883454
0.00877323
0.00868417
0.00855754
0.00838168
0.00814344
0.0078291
0.00742559
0.00692227
0.00631294
0.0055978
0.00478508
0.00389156
0.00294133
0.00196162
0.000977534
0.000121395
0.00902245
0.00901186
0.00900309
0.00899576
0.00898955
0.00898423
0.00897959
0.0089755
0.00897186
0.00896859
0.00896562
0.0089629
0.00896038
0.00895797
0.00895556
0.00895298
0.00894997
0.0089461
0.00894072
0.00893284
0.00892093
0.00890279
0.00887519
0.00883369
0.00877224
0.00868298
0.00855611
0.00837994
0.00814137
0.00782666
0.0074228
0.00691918
0.00630964
0.00559443
0.00478182
0.00388862
0.00293891
0.00195992
0.000976729
0.00012135
0.00902002
0.00900962
0.00900101
0.00899381
0.00898773
0.00898252
0.00897799
0.00897401
0.00897047
0.0089673
0.00896443
0.0089618
0.00895937
0.00895704
0.00895471
0.00895219
0.00894924
0.00894541
0.00894007
0.00893221
0.0089203
0.00890213
0.00887448
0.00883288
0.00877128
0.00868183
0.00855471
0.00837825
0.00813934
0.00782428
0.00742007
0.00691616
0.00630641
0.00559113
0.00477863
0.00388573
0.00293653
0.00195826
0.00097595
0.000121302
0.00901736
0.00900723
0.00899884
0.00899182
0.00898589
0.00898081
0.00897641
0.00897254
0.00896911
0.00896604
0.00896327
0.00896074
0.0089584
0.00895615
0.00895389
0.00895144
0.00894854
0.00894477
0.00893946
0.00893161
0.0089197
0.0089015
0.00887379
0.00883209
0.00877036
0.00868072
0.00855336
0.0083766
0.00813736
0.00782195
0.0074174
0.00691319
0.00630323
0.00558788
0.00477547
0.00388286
0.00293416
0.00195659
0.000975164
0.000121251
0.0090145
0.00900471
0.00899658
0.00898979
0.00898404
0.00897911
0.00897484
0.0089711
0.00896779
0.00896482
0.00896216
0.00895972
0.00895746
0.0089553
0.00895311
0.00895073
0.00894788
0.00894415
0.00893887
0.00893104
0.00891912
0.0089009
0.00887313
0.00883134
0.00876947
0.00867964
0.00855203
0.00837499
0.00813542
0.00781966
0.00741476
0.00691025
0.00630008
0.00558464
0.0047723
0.00387993
0.00293167
0.00195475
0.000974177
0.000121212
0.00901144
0.00900206
0.00899426
0.00898771
0.00898217
0.00897742
0.0089733
0.00896969
0.00896649
0.00896364
0.00896108
0.00895874
0.00895657
0.00895448
0.00895237
0.00895005
0.00894725
0.00894356
0.00893831
0.00893049
0.00891857
0.00890031
0.00887248
0.00883059
0.00876858
0.00867856
0.00855072
0.00837339
0.00813349
0.00781737
0.00741212
0.00690729
0.00629688
0.00558133
0.00476904
0.00387694
0.00292916
0.00195291
0.0009732
0.000121177
0.00900822
0.00899931
0.00899187
0.00898561
0.0089803
0.00897573
0.00897177
0.0089683
0.00896524
0.0089625
0.00896004
0.0089578
0.00895571
0.00895371
0.00895166
0.0089494
0.00894666
0.00894301
0.00893778
0.00892997
0.00891804
0.00889975
0.00887186
0.00882987
0.00876771
0.0086775
0.00854942
0.0083718
0.00813157
0.00781509
0.00740949
0.00690435
0.00629372
0.00557806
0.00476584
0.00387401
0.0029267
0.00195111
0.000972262
0.000121141
0.00900489
0.00899649
0.00898945
0.0089835
0.00897843
0.00897407
0.00897028
0.00896696
0.00896402
0.0089614
0.00895904
0.0089569
0.0089549
0.00895297
0.00895099
0.0089488
0.0089461
0.00894249
0.00893729
0.00892949
0.00891755
0.00889922
0.00887126
0.00882917
0.00876687
0.00867647
0.00854814
0.00837023
0.00812968
0.00781286
0.00740692
0.00690148
0.00629064
0.0055749
0.00476275
0.00387118
0.00292433
0.00194939
0.000971379
0.000121104
0.00900148
0.00899363
0.00898701
0.00898139
0.00897658
0.00897243
0.00896882
0.00896565
0.00896284
0.00896034
0.00895809
0.00895604
0.00895413
0.00895227
0.00895036
0.00894822
0.00894558
0.008942
0.00893683
0.00892903
0.00891708
0.00889872
0.0088707
0.0088285
0.00876606
0.00867548
0.00854692
0.00836873
0.00812786
0.00781071
0.00740445
0.00689873
0.00628768
0.00557187
0.00475981
0.0038685
0.00292209
0.00194778
0.00097056
0.000121065
0.00899805
0.00899076
0.00898458
0.0089793
0.00897476
0.00897083
0.0089674
0.00896438
0.00896171
0.00895932
0.00895718
0.00895522
0.00895339
0.00895162
0.00894977
0.00894769
0.00894509
0.00894155
0.0089364
0.00892861
0.00891665
0.00889825
0.00887017
0.00882788
0.00876531
0.00867454
0.00854576
0.00836731
0.00812614
0.00780867
0.0074021
0.00689613
0.0062849
0.00556902
0.00475704
0.00386598
0.00292
0.00194628
0.000969811
0.000121025
0.00899465
0.00898792
0.00898218
0.00897724
0.00897298
0.00896927
0.00896602
0.00896316
0.00896062
0.00895835
0.00895631
0.00895445
0.0089527
0.008951
0.00894922
0.00894719
0.00894464
0.00894113
0.008936
0.00892822
0.00891626
0.00889783
0.00886969
0.00882731
0.00876461
0.00867368
0.00854468
0.00836598
0.00812453
0.00780677
0.00739992
0.0068937
0.00628231
0.00556637
0.00475448
0.00386366
0.00291808
0.00194491
0.000969135
0.000120985
0.00899132
0.00898515
0.00897984
0.00897524
0.00897125
0.00896776
0.00896469
0.00896199
0.00895958
0.00895743
0.00895549
0.00895372
0.00895205
0.00895042
0.0089487
0.00894672
0.00894422
0.00894074
0.00893564
0.00892787
0.00891589
0.00889744
0.00886924
0.00882679
0.00876397
0.00867288
0.00854369
0.00836476
0.00812305
0.00780502
0.00739791
0.00689147
0.00627993
0.00556395
0.00475213
0.00386154
0.00291633
0.00194367
0.000968534
0.000120943
0.0089881
0.00898246
0.00897757
0.00897331
0.00896958
0.00896631
0.00896342
0.00896087
0.00895859
0.00895656
0.00895472
0.00895303
0.00895144
0.00894988
0.00894822
0.00894629
0.00894383
0.00894039
0.0089353
0.00892755
0.00891556
0.00889708
0.00886885
0.00882631
0.00876339
0.00867216
0.0085428
0.00836366
0.00812172
0.00780344
0.0073961
0.00688946
0.00627778
0.00556176
0.00475002
0.00385963
0.00291476
0.00194256
0.000968012
0.000120901
0.00898502
0.00897989
0.0089754
0.00897146
0.00896799
0.00896492
0.00896221
0.0089598
0.00895765
0.00895573
0.00895399
0.00895239
0.00895087
0.00894937
0.00894777
0.0089459
0.00894347
0.00894006
0.008935
0.00892725
0.00891527
0.00889677
0.00886849
0.0088259
0.00876288
0.00867153
0.00854201
0.00836268
0.00812053
0.00780204
0.00739449
0.00688767
0.00627588
0.00555982
0.00474815
0.00385794
0.00291338
0.0019416
0.000967568
0.000120859
0.00898211
0.00897745
0.00897333
0.0089697
0.00896647
0.00896361
0.00896107
0.0089588
0.00895677
0.00895495
0.0089533
0.00895178
0.00895034
0.00894891
0.00894736
0.00894553
0.00894314
0.00893977
0.00893473
0.00892699
0.00891501
0.00889649
0.00886818
0.00882553
0.00876243
0.00867098
0.00854132
0.00836183
0.0081195
0.00780082
0.00739309
0.00688612
0.00627422
0.00555814
0.00474653
0.00385649
0.00291219
0.00194079
0.000967204
0.000120817
0.00897937
0.00897515
0.00897139
0.00896803
0.00896504
0.00896237
0.00895998
0.00895785
0.00895594
0.00895422
0.00895266
0.00895122
0.00894985
0.00894847
0.00894698
0.00894519
0.00894285
0.0089395
0.00893448
0.00892676
0.00891478
0.00889625
0.00886792
0.00882522
0.00876206
0.00867051
0.00854074
0.00836111
0.00811863
0.00779979
0.0073919
0.0068848
0.00627282
0.00555671
0.00474516
0.00385526
0.0029112
0.00194011
0.00096692
0.000120776
0.00897683
0.008973
0.00896956
0.00896647
0.00896369
0.0089612
0.00895897
0.00895696
0.00895517
0.00895354
0.00895207
0.0089507
0.00894939
0.00894807
0.00894663
0.00894489
0.00894257
0.00893926
0.00893426
0.00892656
0.00891458
0.00889605
0.00886769
0.00882496
0.00876175
0.00867013
0.00854027
0.00836053
0.00811792
0.00779894
0.00739093
0.00688373
0.00627168
0.00555556
0.00474406
0.00385428
0.00291041
0.00193959
0.000966716
0.000120735
0.00897448
0.00897101
0.00896786
0.00896501
0.00896244
0.00896011
0.00895802
0.00895614
0.00895444
0.00895291
0.00895152
0.00895022
0.00894897
0.00894771
0.00894631
0.00894461
0.00894233
0.00893904
0.00893407
0.00892638
0.00891441
0.00889588
0.00886751
0.00882476
0.00876151
0.00866983
0.0085399
0.00836008
0.00811737
0.00779829
0.00739018
0.0068829
0.0062708
0.00555467
0.00474321
0.00385353
0.00290981
0.00193921
0.000966592
0.000120695
0.00897233
0.00896918
0.00896629
0.00896366
0.00896127
0.0089591
0.00895714
0.00895537
0.00895377
0.00895233
0.008951
0.00894977
0.00894858
0.00894737
0.00894601
0.00894435
0.00894211
0.00893885
0.0089339
0.00892622
0.00891427
0.00889574
0.00886737
0.0088246
0.00876133
0.00866962
0.00853964
0.00835975
0.00811698
0.00779783
0.00738965
0.00688231
0.00627018
0.00555404
0.00474262
0.00385301
0.00290942
0.00193898
0.000966547
0.000120656
0.00897037
0.0089675
0.00896485
0.00896242
0.00896019
0.00895816
0.00895632
0.00895466
0.00895315
0.00895179
0.00895053
0.00894936
0.00894823
0.00894706
0.00894574
0.00894412
0.0089419
0.00893867
0.00893375
0.00892609
0.00891415
0.00889563
0.00886727
0.0088245
0.00876121
0.00866949
0.00853948
0.00835956
0.00811674
0.00779755
0.00738933
0.00688196
0.00626981
0.00555368
0.00474228
0.00385273
0.00290922
0.00193889
0.000966579
0.000120619
0.00896859
0.00896597
0.00896353
0.00896127
0.0089592
0.0089573
0.00895557
0.008954
0.00895258
0.00895129
0.0089501
0.00894899
0.0089479
0.00894677
0.0089455
0.00894391
0.00894172
0.00893852
0.00893362
0.00892598
0.00891406
0.00889556
0.0088672
0.00882444
0.00876116
0.00866944
0.00853943
0.0083595
0.00811667
0.00779747
0.00738923
0.00688186
0.0062697
0.00555358
0.0047422
0.00385268
0.00290922
0.00193895
0.000966686
0.000120583
0.00896698
0.00896458
0.00896233
0.00896023
0.00895829
0.00895651
0.00895489
0.0089534
0.00895206
0.00895083
0.0089497
0.00894864
0.0089476
0.00894652
0.00894528
0.00894372
0.00894156
0.00893838
0.0089335
0.00892589
0.00891399
0.00889551
0.00886717
0.00882443
0.00876117
0.00866946
0.00853947
0.00835956
0.00811675
0.00779756
0.00738934
0.00688198
0.00626985
0.00555374
0.00474237
0.00385286
0.0029094
0.00193914
0.000966866
0.000120549
0.00896555
0.00896333
0.00896124
0.00895929
0.00895747
0.00895579
0.00895426
0.00895286
0.00895158
0.00895042
0.00894934
0.00894833
0.00894733
0.00894628
0.00894508
0.00894355
0.00894142
0.00893826
0.00893341
0.00892582
0.00891394
0.00889549
0.00886718
0.00882447
0.00876124
0.00866957
0.00853962
0.00835975
0.00811698
0.00779783
0.00738966
0.00688234
0.00627023
0.00555414
0.00474278
0.00385326
0.00290977
0.00193947
0.000967115
0.000120518
0.00896428
0.00896222
0.00896027
0.00895843
0.00895672
0.00895514
0.00895369
0.00895236
0.00895114
0.00895004
0.00894901
0.00894804
0.00894708
0.00894607
0.0089449
0.00894339
0.00894129
0.00893816
0.00893333
0.00892577
0.00891392
0.00889549
0.00886722
0.00882455
0.00876136
0.00866974
0.00853985
0.00836005
0.00811735
0.00779828
0.00739017
0.00688291
0.00627085
0.00555479
0.00474343
0.00385387
0.00291031
0.00193992
0.000967431
0.000120488
0.00896317
0.00896124
0.0089594
0.00895767
0.00895605
0.00895455
0.00895317
0.0089519
0.00895075
0.00894969
0.00894871
0.00894778
0.00894686
0.00894587
0.00894473
0.00894325
0.00894118
0.00893807
0.00893327
0.00892573
0.00891391
0.00889552
0.00886728
0.00882466
0.00876154
0.00866999
0.00854018
0.00836047
0.00811786
0.00779889
0.00739088
0.0068837
0.0062717
0.00555567
0.00474429
0.00385468
0.00291103
0.00194049
0.000967809
0.000120462
0.00896222
0.00896038
0.00895864
0.00895699
0.00895544
0.00895401
0.00895269
0.00895149
0.00895038
0.00894937
0.00894843
0.00894754
0.00894665
0.0089457
0.00894458
0.00894313
0.00894108
0.00893799
0.00893321
0.0089257
0.00891392
0.00889556
0.00886738
0.00882482
0.00876177
0.0086703
0.00854059
0.00836099
0.00811851
0.00779966
0.00739177
0.00688469
0.00627277
0.00555676
0.00474537
0.00385568
0.0029119
0.00194118
0.000968243
0.000120438
0.00896142
0.00895965
0.00895796
0.00895638
0.00895489
0.00895352
0.00895226
0.0089511
0.00895004
0.00894907
0.00894817
0.00894731
0.00894645
0.00894553
0.00894444
0.00894301
0.00894098
0.00893793
0.00893317
0.00892569
0.00891394
0.00889563
0.0088675
0.00882501
0.00876204
0.00867068
0.00854108
0.00836162
0.00811928
0.00780057
0.00739282
0.00688586
0.00627403
0.00555806
0.00474664
0.00385686
0.00291291
0.00194197
0.000968728
0.000120416
0.00896077
0.00895902
0.00895737
0.00895582
0.00895439
0.00895306
0.00895185
0.00895074
0.00894972
0.00894879
0.00894792
0.00894709
0.00894626
0.00894537
0.0089443
0.0089429
0.00894089
0.00893786
0.00893313
0.00892569
0.00891397
0.00889571
0.00886765
0.00882523
0.00876236
0.00867111
0.00854165
0.00836233
0.00812016
0.00780162
0.00739403
0.00688721
0.00627547
0.00555954
0.00474808
0.00385818
0.00291405
0.00194285
0.000969255
0.000120398
0.00896025
0.00895848
0.00895684
0.00895531
0.00895391
0.00895262
0.00895145
0.00895038
0.0089494
0.0089485
0.00894767
0.00894688
0.00894608
0.00894521
0.00894417
0.00894279
0.00894081
0.0089378
0.0089331
0.00892569
0.00891402
0.00889581
0.00886781
0.00882548
0.00876271
0.00867159
0.00854228
0.00836313
0.00812114
0.00780279
0.00739538
0.0068887
0.00627706
0.00556117
0.00474967
0.00385964
0.00291528
0.00194379
0.000969814
0.000120382
0.00895985
0.00895801
0.00895634
0.00895482
0.00895344
0.00895218
0.00895104
0.00895
0.00894907
0.00894821
0.00894741
0.00894665
0.00894588
0.00894503
0.00894402
0.00894267
0.00894071
0.00893773
0.00893306
0.00892569
0.00891406
0.00889591
0.00886798
0.00882574
0.00876309
0.00867211
0.00854296
0.008364
0.0081222
0.00780405
0.00739683
0.00689031
0.00627878
0.00556291
0.00475136
0.00386118
0.00291659
0.00194478
0.00097039
0.000120369
0.00895952
0.00895757
0.00895585
0.00895431
0.00895293
0.0089517
0.00895059
0.0089496
0.0089487
0.00894788
0.00894712
0.00894639
0.00894565
0.00894484
0.00894385
0.00894253
0.0089406
0.00893765
0.00893301
0.00892568
0.0089141
0.00889601
0.00886816
0.00882601
0.00876348
0.00867265
0.00854367
0.0083649
0.00812332
0.00780538
0.00739835
0.006892
0.00628057
0.00556473
0.00475311
0.00386276
0.00291791
0.00194577
0.000970959
0.000120358
0.00895921
0.00895712
0.00895531
0.00895375
0.00895238
0.00895117
0.0089501
0.00894914
0.00894829
0.00894751
0.00894679
0.0089461
0.0089454
0.00894462
0.00894366
0.00894237
0.00894047
0.00893755
0.00893295
0.00892565
0.00891412
0.0088961
0.00886832
0.00882628
0.00876387
0.00867319
0.00854439
0.00836582
0.00812445
0.00780673
0.0073999
0.00689371
0.00628237
0.00556655
0.00475484
0.0038643
0.00291918
0.0019467
0.000971488
0.000120348
0.00895886
0.00895661
0.00895472
0.00895312
0.00895175
0.00895057
0.00894954
0.00894863
0.00894782
0.00894709
0.00894642
0.00894577
0.00894511
0.00894436
0.00894344
0.00894218
0.00894031
0.00893743
0.00893286
0.00892561
0.00891413
0.00889617
0.00886847
0.00882653
0.00876424
0.00867371
0.00854508
0.00836671
0.00812555
0.00780804
0.0074014
0.00689536
0.00628411
0.00556828
0.00475646
0.00386572
0.00292031
0.0019475
0.000971926
0.000120337
0.00895844
0.00895603
0.00895407
0.00895245
0.00895109
0.00894994
0.00894896
0.0089481
0.00894734
0.00894666
0.00894603
0.00894542
0.0089448
0.00894409
0.0089432
0.00894197
0.00894014
0.00893729
0.00893276
0.00892555
0.00891412
0.00889621
0.00886859
0.00882674
0.00876456
0.00867416
0.00854569
0.0083675
0.00812653
0.00780922
0.00740276
0.00689686
0.00628568
0.00556983
0.00475789
0.00386692
0.0029212
0.00194805
0.000972177
0.000120322
0.00895798
0.00895546
0.00895345
0.00895182
0.00895048
0.00894936
0.00894842
0.0089476
0.00894689
0.00894625
0.00894567
0.0089451
0.00894451
0.00894384
0.00894298
0.00894178
0.00893998
0.00893715
0.00893266
0.00892548
0.00891409
0.00889623
0.00886867
0.00882688
0.0087648
0.0086745
0.00854617
0.00836812
0.00812731
0.00781015
0.00740385
0.00689806
0.00628695
0.0055711
0.00475906
0.00386787
0.00292185
0.00194834
0.000972167
0.0001203
0.00895763
0.00895505
0.00895302
0.00895139
0.00895007
0.00894897
0.00894806
0.00894728
0.00894659
0.00894599
0.00894543
0.00894489
0.00894432
0.00894367
0.00894284
0.00894165
0.00893987
0.00893706
0.00893259
0.00892543
0.00891406
0.00889623
0.0088687
0.00882696
0.00876493
0.0086747
0.00854643
0.00836847
0.00812775
0.0078107
0.00740449
0.00689879
0.00628775
0.00557193
0.00475987
0.00386861
0.00292245
0.00194875
0.000972355
0.000120274
)
;

boundaryField
{
    leftWall
    {
        type            nutkWallFunction;
        Cmu             0.09;
        kappa           0.41;
        E               9.8;
        value           nonuniform 0();
    }
    rightWall
    {
        type            nutkWallFunction;
        Cmu             0.09;
        kappa           0.41;
        E               9.8;
        value           nonuniform List<scalar> 
43
(
8.66975e-06
8.66665e-06
8.66308e-06
8.65912e-06
8.65479e-06
8.65009e-06
8.64504e-06
8.63966e-06
8.63396e-06
8.62793e-06
8.62154e-06
8.61659e-06
8.61215e-06
8.60768e-06
8.60301e-06
8.59813e-06
8.59306e-06
8.58783e-06
8.58249e-06
8.57706e-06
8.57159e-06
8.56611e-06
8.56066e-06
8.55527e-06
8.54998e-06
8.54483e-06
8.53984e-06
8.53507e-06
8.53052e-06
8.52625e-06
8.52227e-06
8.51861e-06
8.5153e-06
8.51233e-06
8.50973e-06
8.50748e-06
8.50555e-06
8.50387e-06
8.50232e-06
8.50069e-06
8.49855e-06
8.49541e-06
8.49203e-06
)
;
    }
    lowerWall
    {
        type            nutkWallFunction;
        Cmu             0.09;
        kappa           0.41;
        E               9.8;
        value           nonuniform 0();
    }
    atmosphere
    {
        type            calculated;
        value           nonuniform List<scalar> 
45
(
0.00898111
0.00897438
0.0089689
0.00896439
0.00896074
0.00895763
0.00895505
0.00895302
0.00895139
0.00895007
0.00894897
0.00894806
0.00894728
0.00894659
0.00894599
0.00894543
0.00894489
0.00894432
0.00894367
0.00894284
0.00894165
0.00893987
0.00893706
0.00893259
0.00892543
0.00891406
0.00889623
0.0088687
0.00882696
0.00876493
0.0086747
0.00854643
0.00836847
0.00812775
0.0078107
0.00740449
0.00689879
0.00628775
0.00557193
0.00475987
0.00386861
0.00292245
0.00194875
0.000972355
0.000120274
)
;
    }
    defaultFaces
    {
        type            empty;
    }
    procBoundary3to1
    {
        type            processor;
        value           nonuniform List<scalar> 
45
(
0.0091075
0.00909012
0.00907501
0.00906151
0.00904959
0.00903864
0.00902888
0.00902055
0.00901334
0.00900698
0.00900128
0.00899608
0.00899128
0.00898682
0.00898266
0.00897877
0.00897513
0.0089717
0.00896842
0.0089652
0.00896189
0.00895823
0.00895383
0.00894805
0.00893993
0.008928
0.00891006
0.008883
0.00884239
0.00878228
0.00869485
0.00857031
0.00839696
0.00816159
0.00785028
0.00744972
0.00694895
0.00634137
0.00562682
0.00481319
0.00391706
0.00296245
0.00197665
0.000984954
0.000121665
)
;
    }
    procBoundary3to2
    {
        type            processor;
        value           nonuniform List<scalar> 
43
(
0.00912969
0.00913166
0.00913369
0.00913557
0.0091371
0.00913803
0.00913809
0.00913707
0.00913475
0.00913103
0.00912584
0.00911922
0.0091113
0.00910228
0.00909242
0.00908203
0.00907139
0.00906079
0.00905048
0.00904067
0.00903148
0.00902302
0.00901533
0.00900841
0.00900224
0.00899677
0.00899196
0.00898776
0.00898411
0.00898098
0.00897835
0.00897621
0.0089746
0.00897357
0.0089732
0.0089736
0.00897485
0.00897694
0.00897976
0.00898295
0.00898596
0.00898816
0.00898918
)
;
    }
}


// ************************************************************************* //
