/*--------------------------------*- C++ -*----------------------------------*\
| =========                 |                                                 |
| \\      /  F ield         | OpenFOAM: The Open Source CFD Toolbox           |
|  \\    /   O peration     | Version:  5.0                                   |
|   \\  /    A nd           | Web:      www.OpenFOAM.org                      |
|    \\/     M anipulation  |                                                 |
\*---------------------------------------------------------------------------*/
FoamFile
{
    version     2.0;
    format      ascii;
    class       volScalarField;
    location    "0.1";
    object      p_rgh;
}
// * * * * * * * * * * * * * * * * * * * * * * * * * * * * * * * * * * * * * //

dimensions      [1 -1 -2 0 0 0 0];

internalField   nonuniform List<scalar> 
1935
(
0.501849
0.469227
0.437176
0.405794
0.37527
0.345649
0.317
0.289401
0.262921
0.237614
0.213525
0.190686
0.169116
0.148819
0.129789
0.112007
0.0954396
0.0800494
0.065794
0.0526294
0.040513
0.0294089
0.0192913
0.0101466
0.00196846
-0.00524896
-0.0115178
-0.0168609
-0.0213122
-0.0249146
-0.0277136
-0.0297482
-0.0310415
-0.0315945
-0.0313866
-0.0303829
-0.0285468
-0.0258577
-0.0223266
-0.0180109
-0.0130521
-0.00769316
-0.00250418
0.507906
0.513174
0.517818
0.521967
0.476332
0.482495
0.488096
0.493191
0.445158
0.45229
0.458845
0.464844
0.41466
0.422702
0.430149
0.437003
0.384955
0.393816
0.402077
0.409723
0.356085
0.365691
0.374693
0.38307
0.328111
0.338389
0.348065
0.357108
0.301102
0.311977
0.322257
0.331902
0.275123
0.286517
0.297329
0.30751
0.25023
0.262065
0.273337
0.283984
0.226469
0.238667
0.250326
0.261369
0.203874
0.216359
0.228332
0.239701
0.182467
0.195165
0.20738
0.219005
0.162261
0.1751
0.187485
0.199298
0.143251
0.156162
0.16865
0.180586
0.125425
0.138341
0.150868
0.162869
0.108756
0.12162
0.134128
0.146139
0.0932136
0.105972
0.118412
0.130389
0.0787599
0.0913701
0.103702
0.115606
0.0653593
0.0777877
0.0899794
0.101779
0.0529795
0.0652023
0.0772295
0.088898
0.0415951
0.0535963
0.0654395
0.0769513
0.0311888
0.0429573
0.0545976
0.0659252
0.0217512
0.0332746
0.0446899
0.0558013
0.0132755
0.0245361
0.035697
0.0465536
0.00575096
0.0167219
0.0275903
0.0381473
-0.000843265
0.00980111
0.020331
0.0305392
-0.00654083
0.00373138
0.0138718
0.023681
-0.0113868
-0.00153747
0.00816176
0.017525
-0.0154327
-0.00605756
0.00315266
0.0120295
-0.0187286
-0.0098753
-0.00119437
0.00716452
-0.0213141
-0.0130229
-0.00490204
0.00291647
-0.0232084
-0.0155112
-0.00797246
-0.000709631
-0.024406
-0.0173277
-0.0103874
-0.00369214
-0.024879
-0.0184406
-0.0121137
-0.00599893
-0.0245859
-0.0188083
-0.0131127
-0.00759672
-0.0234857
-0.0183932
-0.0133537
-0.00846266
-0.0215552
-0.0171776
-0.0128271
-0.00859614
-0.0188054
-0.0151787
-0.0115574
-0.00802859
-0.0152944
-0.012458
-0.00960983
-0.00682751
-0.0111629
-0.00915516
-0.00712199
-0.00512822
-0.00667671
-0.0055417
-0.00436664
-0.00319876
-0.00231931
-0.00204089
-0.00171712
-0.00136999
0.525746
0.529031
0.531693
0.533756
0.535251
0.536218
0.536712
0.536797
0.536541
0.536008
0.535256
0.534334
0.533281
0.532124
0.530885
0.529579
0.528217
0.52681
0.52537
0.523907
0.522436
0.520972
0.51953
0.518126
0.516775
0.515491
0.514287
0.513175
0.51217
0.511281
0.51052
0.509895
0.509411
0.509071
0.508872
0.508805
0.508859
0.509026
0.509297
0.509575
0.497933
0.50219
0.5058
0.50879
0.511185
0.513024
0.514359
0.515252
0.515767
0.515966
0.515906
0.515636
0.515192
0.514604
0.513896
0.513087
0.512194
0.511234
0.510221
0.509173
0.508103
0.507026
0.505958
0.504912
0.5039
0.502935
0.502027
0.501188
0.500428
0.499758
0.499187
0.498722
0.49837
0.498132
0.498007
0.497989
0.498069
0.498241
0.498496
0.498752
0.470492
0.475654
0.480149
0.484008
0.487254
0.489923
0.492066
0.49374
0.495005
0.49592
0.496538
0.496905
0.497056
0.497024
0.496834
0.496512
0.496079
0.495556
0.494965
0.494322
0.493646
0.492951
0.49225
0.491556
0.490878
0.490227
0.489611
0.48904
0.488523
0.488067
0.487682
0.487375
0.487151
0.487014
0.486963
0.486994
0.487099
0.487275
0.487515
0.487747
0.443504
0.44952
0.454848
0.459525
0.463574
0.467029
0.469939
0.472358
0.474341
0.475944
0.477216
0.478197
0.478925
0.479432
0.479746
0.479898
0.479914
0.479819
0.479639
0.479394
0.479102
0.478779
0.478438
0.478087
0.477736
0.477392
0.477062
0.476753
0.476472
0.476226
0.476023
0.47587
0.475773
0.475735
0.475757
0.475836
0.475966
0.476145
0.476368
0.476576
0.417025
0.423845
0.42996
0.435409
0.440215
0.444411
0.448045
0.45117
0.453836
0.456095
0.45799
0.459561
0.460842
0.461868
0.46267
0.463281
0.463732
0.464054
0.464275
0.464416
0.464499
0.464539
0.464546
0.46453
0.464496
0.464451
0.464398
0.464343
0.464291
0.464249
0.464224
0.464221
0.464248
0.464307
0.4644
0.464526
0.46468
0.464861
0.465067
0.465251
0.391113
0.398681
0.40553
0.411704
0.417222
0.422117
0.426435
0.430226
0.433538
0.436417
0.438904
0.441035
0.442845
0.444367
0.445637
0.44669
0.447563
0.448288
0.448896
0.449414
0.44986
0.450251
0.450596
0.450904
0.451177
0.45142
0.451635
0.451825
0.451995
0.452151
0.452297
0.452441
0.452587
0.452741
0.452903
0.453074
0.45325
0.453433
0.453623
0.453783
0.36583
0.374086
0.381613
0.388457
0.394638
0.400188
0.40515
0.409569
0.413491
0.416955
0.42
0.422661
0.42497
0.426964
0.42868
0.430156
0.431432
0.432546
0.433529
0.434409
0.435207
0.435937
0.436609
0.437228
0.437796
0.438316
0.438788
0.439215
0.439598
0.439944
0.440256
0.44054
0.440803
0.441048
0.441277
0.44149
0.441688
0.441872
0.442044
0.442182
0.34124
0.35012
0.358264
0.365723
0.372514
0.37867
0.384231
0.389238
0.393731
0.397745
0.401315
0.404472
0.407252
0.40969
0.411827
0.413706
0.415368
0.416854
0.418197
0.419426
0.420561
0.421617
0.422602
0.423519
0.424371
0.425156
0.425874
0.426526
0.427114
0.427641
0.428112
0.428532
0.428906
0.429237
0.42953
0.429784
0.430002
0.430187
0.430343
0.430457
0.317397
0.326836
0.335537
0.343552
0.350901
0.357612
0.363725
0.369275
0.374297
0.378821
0.382879
0.3865
0.38972
0.392575
0.395109
0.397368
0.399397
0.401237
0.402924
0.404487
0.405944
0.407311
0.408595
0.409797
0.410918
0.411955
0.412908
0.413775
0.414557
0.415257
0.41588
0.416428
0.416907
0.417321
0.417673
0.417967
0.418204
0.418389
0.418528
0.418621
0.294352
0.304284
0.313479
0.321993
0.329843
0.33706
0.343675
0.349721
0.355227
0.360218
0.364724
0.368773
0.372399
0.375643
0.378549
0.381167
0.383543
0.385719
0.387733
0.389612
0.391377
0.393039
0.394606
0.396078
0.397453
0.39873
0.399904
0.400974
0.40194
0.402804
0.403569
0.404239
0.404817
0.405309
0.405718
0.406047
0.406302
0.406487
0.406611
0.406684
0.272149
0.282507
0.292132
0.301086
0.309384
0.317053
0.324121
0.330615
0.336557
0.341972
0.346883
0.35132
0.355318
0.35892
0.362171
0.365124
0.367826
0.370321
0.372644
0.374823
0.376878
0.378819
0.380653
0.382379
0.383995
0.385496
0.386878
0.388139
0.389277
0.390295
0.391193
0.391976
0.392647
0.393212
0.393674
0.394037
0.394309
0.394493
0.394602
0.394657
0.250823
0.261539
0.271533
0.280868
0.289558
0.297627
0.305097
0.311989
0.318321
0.324113
0.329386
0.334172
0.338506
0.342432
0.346
0.349263
0.352268
0.35506
0.357674
0.360136
0.362464
0.364669
0.366754
0.368718
0.370558
0.372268
0.373844
0.375282
0.376581
0.377741
0.378763
0.379652
0.38041
0.381041
0.381552
0.381948
0.382234
0.382418
0.382512
0.38255
0.230401
0.241409
0.25171
0.261369
0.270398
0.278814
0.286635
0.293874
0.300547
0.306668
0.31226
0.317353
0.321986
0.326204
0.33006
0.333606
0.336891
0.339959
0.342844
0.34557
0.348153
0.350603
0.352922
0.355108
0.357156
0.35906
0.360814
0.362416
0.363863
0.365154
0.366291
0.367277
0.368114
0.368808
0.369364
0.369789
0.370089
0.370272
0.370351
0.370371
0.210901
0.222138
0.232689
0.242616
0.25193
0.260641
0.268759
0.276295
0.283258
0.289661
0.295526
0.300886
0.305781
0.310259
0.314372
0.318176
0.321717
0.325039
0.328174
0.331144
0.333964
0.33664
0.339175
0.341564
0.343802
0.345884
0.347802
0.349553
0.351135
0.352546
0.353788
0.354862
0.355772
0.356523
0.35712
0.357571
0.357883
0.358065
0.35813
0.358132
0.192334
0.203742
0.214485
0.224629
0.234175
0.243127
0.251492
0.259272
0.266474
0.27311
0.279205
0.28479
0.28991
0.294615
0.298958
0.302992
0.306766
0.31032
0.313683
0.316877
0.319913
0.322796
0.325527
0.328101
0.330512
0.332753
0.334819
0.336705
0.338408
0.339928
0.341263
0.342417
0.343393
0.344195
0.34483
0.345304
0.345627
0.345806
0.345858
0.345843
0.174705
0.186228
0.197113
0.207421
0.217147
0.22629
0.234847
0.242819
0.250209
0.257031
0.26331
0.269082
0.274392
0.279292
0.283836
0.288076
0.292058
0.295821
0.299391
0.302786
0.306018
0.309088
0.311994
0.314733
0.317298
0.319682
0.321879
0.323884
0.325695
0.32731
0.328729
0.329954
0.330988
0.331836
0.332503
0.332998
0.33333
0.333507
0.333546
0.333514
0.158013
0.169602
0.18058
0.191002
0.200858
0.210138
0.218834
0.226945
0.234474
0.241435
0.247856
0.253776
0.259242
0.264307
0.269024
0.273444
0.277611
0.281559
0.285313
0.288889
0.292293
0.295528
0.29859
0.301474
0.304173
0.306681
0.308992
0.311102
0.313007
0.314705
0.316197
0.317483
0.318568
0.319455
0.320151
0.320663
0.321002
0.321177
0.321204
0.321156
0.142255
0.153865
0.16489
0.175378
0.185313
0.194676
0.203459
0.211657
0.219275
0.22633
0.232853
0.238884
0.244474
0.249675
0.254538
0.259114
0.263441
0.267551
0.271467
0.275199
0.278754
0.282131
0.285327
0.288336
0.29115
0.293764
0.296172
0.29837
0.300354
0.302122
0.303675
0.305014
0.306142
0.307062
0.307782
0.308309
0.308654
0.308825
0.308841
0.308779
0.127426
0.139015
0.150042
0.160548
0.17051
0.179905
0.188722
0.196956
0.204616
0.211722
0.218308
0.224417
0.230101
0.235409
0.240394
0.2451
0.249563
0.253812
0.257865
0.261731
0.265413
0.268911
0.272219
0.275331
0.27824
0.280942
0.283429
0.285698
0.287747
0.289572
0.291175
0.292557
0.293719
0.294667
0.295406
0.295945
0.296294
0.296461
0.296467
0.296392
0.113519
0.125047
0.136032
0.146507
0.156444
0.165818
0.174617
0.18284
0.190498
0.197614
0.204228
0.210383
0.216132
0.221522
0.226603
0.231415
0.235991
0.240354
0.24452
0.248496
0.252283
0.255878
0.259275
0.262469
0.265454
0.268223
0.270771
0.273096
0.275194
0.277063
0.278705
0.280119
0.281309
0.282278
0.283032
0.28358
0.283931
0.284095
0.28409
0.284003
0.100524
0.111952
0.12285
0.133244
0.143104
0.152406
0.161138
0.169303
0.176917
0.184008
0.190617
0.19679
0.202576
0.208024
0.213177
0.218071
0.222735
0.22719
0.231445
0.235507
0.239373
0.243042
0.246506
0.24976
0.252799
0.255616
0.258208
0.260571
0.262704
0.264604
0.266273
0.267711
0.26892
0.269904
0.270669
0.271222
0.271574
0.271734
0.27172
0.271622
0.0884307
0.0997165
0.11048
0.120743
0.130475
0.139654
0.148273
0.156338
0.163871
0.170903
0.177478
0.183642
0.189443
0.194924
0.200126
0.205079
0.209808
0.214328
0.218648
0.222771
0.226693
0.230411
0.233919
0.237212
0.240283
0.243129
0.245746
0.248132
0.250284
0.252202
0.253887
0.255339
0.25656
0.257553
0.258323
0.258879
0.25923
0.259385
0.259363
0.259255
0.0772214
0.0883207
0.0989004
0.108982
0.118536
0.127545
0.136007
0.143935
0.151354
0.158299
0.164815
0.170946
0.176739
0.182231
0.187458
0.192446
0.197216
0.201778
0.206137
0.210295
0.214248
0.217992
0.22152
0.224828
0.227912
0.230767
0.233391
0.235783
0.23794
0.239864
0.241553
0.24301
0.244235
0.245231
0.246002
0.246557
0.246905
0.247055
0.247025
0.246909
0.0668732
0.0777384
0.0880846
0.0979341
0.107263
0.116059
0.124327
0.132084
0.139361
0.146195
0.152629
0.158707
0.164469
0.169951
0.175181
0.180181
0.184965
0.189543
0.193917
0.198084
0.202042
0.205787
0.209312
0.212613
0.215688
0.218534
0.221148
0.22353
0.225679
0.227595
0.229278
0.23073
0.231951
0.232943
0.233711
0.234262
0.234606
0.234749
0.234712
0.234589
0.0573554
0.0679366
0.0779996
0.0875697
0.0966304
0.105176
0.113217
0.120778
0.127889
0.134591
0.140924
0.146929
0.152641
0.15809
0.163299
0.168286
0.17306
0.177627
0.181988
0.186139
0.190077
0.193797
0.197296
0.20057
0.203616
0.206433
0.20902
0.211377
0.213503
0.215399
0.217066
0.218503
0.219713
0.220695
0.221455
0.221999
0.222335
0.222472
0.222429
0.2223
0.0486296
0.0588769
0.0686093
0.0778575
0.0866128
0.0948766
0.102666
0.110008
0.116936
0.123488
0.129703
0.135615
0.141256
0.14665
0.151814
0.156762
0.1615
0.166029
0.17035
0.174458
0.17835
0.182023
0.185472
0.188697
0.191694
0.194465
0.197009
0.199326
0.201416
0.203281
0.20492
0.206334
0.207524
0.208491
0.209237
0.20977
0.210098
0.210228
0.210179
0.210045
0.040652
0.0505179
0.0598774
0.0687676
0.0771879
0.0851462
0.0926644
0.0997714
0.106501
0.112888
0.118966
0.124768
0.130316
0.135631
0.140726
0.145608
0.150282
0.154746
0.158999
0.163038
0.16686
0.17046
0.173838
0.176993
0.179923
0.182631
0.185115
0.187378
0.189419
0.191241
0.192843
0.194225
0.195387
0.196331
0.19706
0.197579
0.197897
0.198019
0.197966
0.197828
0.0333771
0.0428195
0.0517712
0.060275
0.068338
0.0759735
0.0832061
0.0900654
0.0965828
0.10279
0.108716
0.114386
0.11982
0.125032
0.13003
0.134819
0.139399
0.14377
0.147929
0.151873
0.155598
0.159104
0.162389
0.165454
0.168299
0.170926
0.173336
0.175531
0.177512
0.179279
0.180833
0.182175
0.183303
0.184219
0.184925
0.185428
0.185733
0.185848
0.185791
0.185651
0.0267629
0.0357476
0.0442644
0.0523615
0.060052
0.0673526
0.0742892
0.0808898
0.0871827
0.0931948
0.0989501
0.104468
0.109763
0.114845
0.119718
0.124385
0.128844
0.133093
0.13713
0.140952
0.144558
0.147946
0.151118
0.154074
0.156817
0.159348
0.161669
0.163783
0.16569
0.167393
0.168891
0.170183
0.171271
0.172154
0.172834
0.173317
0.173609
0.173716
0.173655
0.173515
0.0207762
0.0292777
0.037341
0.0450178
0.0523256
0.0592828
0.0659143
0.0722455
0.0783003
0.0841003
0.0896642
0.0950063
0.100136
0.10506
0.109779
0.114294
0.118602
0.122702
0.12659
0.130266
0.133728
0.136978
0.140016
0.142846
0.145469
0.147888
0.150107
0.152128
0.153952
0.15558
0.157012
0.158249
0.15929
0.160134
0.160785
0.161246
0.161524
0.161623
0.161559
0.16142
0.0153963
0.0233973
0.0309952
0.0382432
0.0451612
0.0517674
0.0580842
0.0641332
0.0699335
0.0755016
0.0808506
0.0859905
0.090927
0.0956627
0.100198
0.10453
0.108659
0.11258
0.116294
0.119799
0.123096
0.126186
0.129072
0.131758
0.134246
0.136541
0.138645
0.140561
0.14229
0.143835
0.145195
0.146369
0.147357
0.14816
0.148777
0.149214
0.149476
0.149567
0.149502
0.149364
0.0106176
0.0181075
0.0252323
0.0320451
0.0385662
0.044812
0.0508017
0.0565522
0.0620778
0.0673899
0.0724974
0.0774059
0.0821183
0.0866348
0.0909544
0.0950748
0.0989942
0.102711
0.106224
0.109535
0.112645
0.115557
0.118274
0.1208
0.123139
0.125296
0.127273
0.129074
0.130701
0.132154
0.133434
0.13454
0.13547
0.136226
0.136808
0.137218
0.137464
0.137546
0.137481
0.137346
0.00645032
0.0134214
0.0200663
0.0264362
0.0325503
0.0384224
0.0440675
0.0494981
0.0547239
0.0597521
0.0645875
0.0692327
0.0736884
0.0779534
0.0820259
0.085904
0.089586
0.0930715
0.096361
0.0994561
0.102359
0.105075
0.107606
0.109958
0.112135
0.114142
0.115983
0.11766
0.119175
0.12053
0.121723
0.122755
0.123624
0.124329
0.124872
0.125255
0.125482
0.125557
0.125491
0.12536
0.00291723
0.00936052
0.0155156
0.0214304
0.027122
0.0326009
0.0378778
0.0429613
0.047857
0.0525686
0.0570981
0.0614458
0.0656107
0.0695912
0.0733853
0.0769915
0.0804092
0.0836388
0.086682
0.0895412
0.09222
0.0947227
0.0970541
0.0992192
0.101223
0.10307
0.104765
0.106309
0.107706
0.108955
0.110056
0.111008
0.111811
0.112463
0.112964
0.113318
0.113527
0.113593
0.113528
0.113401
4.71058e-05
0.00594866
0.0115978
0.0170381
0.0222841
0.0273428
0.0322212
0.0369244
0.0414549
0.0458137
0.0500007
0.0540148
0.0578544
0.0615174
0.0650025
0.0683089
0.0714369
0.0743878
0.0771642
0.0797694
0.0822075
0.0844833
0.0866019
0.0885687
0.0903889
0.0920671
0.0936071
0.0950118
0.0962826
0.09742
0.0984236
0.0992924
0.100025
0.100621
0.101079
0.101402
0.101592
0.101649
0.101585
0.101464
-0.00213384
0.00320403
0.0083227
0.0132607
0.0180297
0.0226339
0.0270771
0.0313616
0.0354877
0.0394547
0.0432611
0.0469052
0.0503849
0.0536987
0.0568458
0.0598261
0.0626411
0.0652927
0.0677841
0.0701191
0.0723022
0.0743385
0.0762332
0.0779918
0.0796194
0.0811206
0.0824989
0.0837569
0.0848959
0.0859163
0.0868175
0.0875984
0.0882578
0.0887944
0.0892078
0.0894988
0.0896688
0.089718
0.0896555
0.0895413
-0.00361193
0.00113095
0.00568547
0.0100849
0.0143383
0.0184473
0.0224136
0.0262374
0.0299176
0.0334525
0.0368399
0.0400779
0.0431648
0.0460993
0.0488815
0.0515121
0.0539929
0.0563268
0.058517
0.0605677
0.0624835
0.0642693
0.0659305
0.0674723
0.0688995
0.0702165
0.0714265
0.0725319
0.0735336
0.074432
0.0752265
0.0759161
0.0764994
0.0769752
0.0773422
0.0776005
0.0777507
0.0777918
0.0777316
0.0776247
-0.00439564
-0.000287649
0.00366136
0.00747929
0.011173
0.0147422
0.0181871
0.0215066
0.0246989
0.0277618
0.0306932
0.0334912
0.0361543
0.0386822
0.0410752
0.0433347
0.045463
0.0474629
0.0493379
0.0510921
0.0527298
0.0542559
0.0556752
0.0569927
0.0582128
0.0593393
0.0603752
0.0613224
0.0621819
0.062954
0.0636382
0.0642336
0.0647388
0.0651522
0.0654723
0.065698
0.0658288
0.0658625
0.065805
0.0657061
-0.00452285
-0.00109532
0.00220222
0.00539246
0.00848011
0.0114639
0.0143429
0.0171156
0.0197799
0.0223336
0.0247747
0.0271017
0.0293137
0.0314106
0.0333933
0.0352633
0.037023
0.0386752
0.0402231
0.0416703
0.0430209
0.0442793
0.0454497
0.0465364
0.0475435
0.048474
0.0493307
0.050115
0.050828
0.05147
0.0520408
0.0525396
0.0529651
0.0533154
0.0535884
0.0537822
0.0538947
0.053922
0.053868
0.0537772
-0.00406251
-0.00136165
0.00123848
0.00375569
0.00619279
0.00854797
0.01082
0.0130071
0.0151074
0.0171189
0.0190399
0.0208693
0.0226066
0.024252
0.0258065
0.0272716
0.0286494
0.0299423
0.031153
0.0322847
0.0333406
0.0343245
0.03524
0.0360906
0.0368795
0.0376093
0.0382821
0.0388995
0.0394623
0.039971
0.0404256
0.0408257
0.0411702
0.0414569
0.0416834
0.0418465
0.0419422
0.0419645
0.0419139
0.0418314
-0.00314851
-0.00121757
0.000643712
0.00244754
0.00419519
0.0058848
0.00751503
0.00908439
0.0105911
0.0120337
0.0134107
0.0147215
0.0159656
0.0171435
0.0182559
0.0193041
0.0202895
0.0212141
0.0220799
0.0228893
0.0236448
0.0243491
0.0250049
0.025615
0.0261817
0.026707
0.0271927
0.0276401
0.0280502
0.0284238
0.0287614
0.0290629
0.0293276
0.0295536
0.0297379
0.0298763
0.0299622
0.0299853
0.0299399
0.0298648
-0.00202833
-0.000904291
0.000179831
0.00123563
0.00226189
0.00325675
0.00421879
0.00514653
0.00603851
0.00689341
0.00771021
0.00848829
0.00922737
0.0099276
0.0105894
0.0112135
0.0118007
0.0123521
0.0128691
0.0133529
0.0138053
0.0142279
0.0146224
0.0149906
0.0153341
0.0156544
0.0159528
0.0162308
0.0164896
0.0167306
0.0169549
0.0171633
0.0173557
0.017531
0.0176863
0.0178166
0.0179132
0.0179594
0.0179368
0.0178771
-0.00100186
-0.000664575
-0.000337898
-1.15669e-05
0.000312376
0.000631604
0.000944463
0.00124954
0.00154558
0.00183156
0.0021067
0.00237042
0.00262237
0.00286238
0.00309043
0.00330661
0.00351113
0.00370427
0.00388642
0.00405807
0.00421976
0.00437213
0.00451583
0.00465148
0.00477971
0.00490104
0.00501597
0.00512489
0.00522816
0.00532608
0.00541885
0.00550654
0.00558902
0.00566586
0.00573619
0.00579873
0.00585073
0.00588393
0.00588309
0.00585633
)
;

boundaryField
{
    leftWall
    {
        type            fixedFluxPressure;
        gradient        nonuniform 0();
        value           nonuniform 0();
    }
    rightWall
    {
        type            fixedFluxPressure;
        gradient        uniform 0;
        value           nonuniform List<scalar> 
43
(
0.509575
0.498752
0.487747
0.476576
0.465251
0.453783
0.442182
0.430457
0.418621
0.406684
0.394657
0.38255
0.370371
0.358132
0.345843
0.333514
0.321156
0.308779
0.296392
0.284003
0.271622
0.259255
0.246909
0.234589
0.2223
0.210045
0.197828
0.185651
0.173515
0.16142
0.149364
0.137346
0.12536
0.113401
0.101464
0.0895413
0.0776247
0.0657061
0.0537772
0.0418314
0.0298648
0.0178771
0.00585633
)
;
    }
    lowerWall
    {
        type            fixedFluxPressure;
        gradient        nonuniform 0();
        value           nonuniform 0();
    }
    atmosphere
    {
        type            totalPressure;
        rho             rho;
        psi             none;
        gamma           1;
        p0              uniform 0;
        value           uniform 0;
    }
    defaultFaces
    {
        type            empty;
    }
    procBoundary3to1
    {
        type            processor;
        value           nonuniform List<scalar> 
45
(
0.535381
0.540063
0.544258
0.547983
0.551126
0.553852
0.556077
0.557711
0.558782
0.559325
0.559385
0.559016
0.558279
0.557241
0.555968
0.554516
0.552937
0.551268
0.549537
0.54776
0.545947
0.544105
0.54224
0.540362
0.538479
0.536605
0.534752
0.532936
0.531172
0.529479
0.527872
0.526367
0.52498
0.523725
0.522615
0.521662
0.520874
0.520258
0.519814
0.519539
0.519423
0.519451
0.519616
0.519904
0.520206
)
;
    }
    procBoundary3to2
    {
        type            processor;
        value           nonuniform List<scalar> 
43
(
0.495226
0.461225
0.428172
0.395992
0.364642
0.334256
0.304935
0.27676
0.249804
0.224125
0.199768
0.176757
0.155102
0.134797
0.115825
0.0981559
0.0817564
0.0665852
0.0525932
0.0397284
0.0279412
0.0171884
0.00743561
-0.00134359
-0.00916752
-0.0160476
-0.0219918
-0.0270091
-0.0311143
-0.0343305
-0.0366861
-0.038206
-0.0389065
-0.038793
-0.0378579
-0.0360827
-0.0334482
-0.0299489
-0.0256075
-0.0204865
-0.0147264
-0.00854306
-0.00257476
)
;
    }
}


// ************************************************************************* //
