/*--------------------------------*- C++ -*----------------------------------*\
| =========                 |                                                 |
| \\      /  F ield         | OpenFOAM: The Open Source CFD Toolbox           |
|  \\    /   O peration     | Version:  5.0                                   |
|   \\  /    A nd           | Web:      www.OpenFOAM.org                      |
|    \\/     M anipulation  |                                                 |
\*---------------------------------------------------------------------------*/
FoamFile
{
    version     2.0;
    format      ascii;
    class       surfaceScalarField;
    location    "0.1";
    object      phi;
}
// * * * * * * * * * * * * * * * * * * * * * * * * * * * * * * * * * * * * * //

dimensions      [0 3 -1 0 0 0 0];

internalField   nonuniform List<scalar> 
3782
(
2.20948e-05
7.38596e-07
2.17713e-05
-1.44308e-07
2.13963e-05
-1.03278e-06
2.09711e-05
-1.92235e-06
2.04936e-05
-2.80644e-06
1.99632e-05
-3.67812e-06
1.9381e-05
-4.52956e-06
1.87494e-05
-5.35228e-06
1.80723e-05
-6.1376e-06
1.7355e-05
-6.87702e-06
1.66041e-05
-7.56254e-06
1.58269e-05
-8.18712e-06
1.50314e-05
-8.74488e-06
1.4226e-05
-9.23142e-06
1.34187e-05
-9.64382e-06
1.26174e-05
-9.98076e-06
1.18289e-05
-1.02423e-05
1.10593e-05
-1.04297e-05
1.03138e-05
-1.05454e-05
9.5966e-06
-1.05923e-05
8.91098e-06
-1.05743e-05
8.25926e-06
-1.04955e-05
7.64297e-06
-1.036e-05
7.06297e-06
-1.01721e-05
6.51955e-06
-9.93604e-06
6.01253e-06
-9.6556e-06
5.5414e-06
-9.33451e-06
5.10532e-06
-8.9761e-06
4.7033e-06
-8.58337e-06
4.33421e-06
-8.15894e-06
3.99687e-06
-7.70502e-06
3.69006e-06
-7.22349e-06
3.41264e-06
-6.71589e-06
3.16351e-06
-6.18346e-06
2.94176e-06
-5.6273e-06
2.74671e-06
-5.04878e-06
2.57798e-06
-4.45017e-06
2.43565e-06
-3.83601e-06
2.32033e-06
-3.21543e-06
2.2331e-06
-2.60615e-06
2.17493e-06
-2.0403e-06
2.14451e-06
-1.57156e-06
-1.28781e-06
9.83472e-07
2.01007e-05
1.20714e-06
1.94103e-05
1.41296e-06
1.87993e-05
1.82699e-05
1.60095e-06
1.40428e-07
1.9816e-05
4.03584e-07
1.91471e-05
6.45841e-07
1.8557e-05
1.80474e-05
8.68341e-07
-7.05051e-07
1.94883e-05
-4.01799e-07
1.88439e-05
-1.2199e-07
1.82772e-05
1.77893e-05
1.36011e-07
-1.55019e-06
1.91161e-05
-1.20567e-06
1.84993e-05
-8.87316e-07
1.79588e-05
1.74951e-05
-5.93135e-07
-2.38901e-06
1.86986e-05
-2.00281e-06
1.81131e-05
-1.64572e-06
1.76017e-05
1.71647e-05
-1.31528e-06
-3.21543e-06
1.82359e-05
-2.78773e-06
1.76854e-05
-2.39226e-06
1.72062e-05
1.67984e-05
-2.02599e-06
-4.02257e-06
1.77289e-05
-3.55438e-06
1.72172e-05
-3.12151e-06
1.67734e-05
1.63973e-05
-2.72042e-06
-4.8031e-06
1.71797e-05
-4.2963e-06
1.67104e-05
-3.82779e-06
1.63049e-05
1.5963e-05
-3.3935e-06
-5.54942e-06
1.65916e-05
-5.00685e-06
1.61679e-05
-4.50521e-06
1.58032e-05
1.54978e-05
-4.04e-06
-6.25412e-06
1.59687e-05
-5.67948e-06
1.55932e-05
-5.14799e-06
1.52718e-05
1.50046e-05
-4.65475e-06
-6.91015e-06
1.53163e-05
-6.30797e-06
1.49911e-05
-5.75055e-06
1.47143e-05
1.44868e-05
-5.23275e-06
-7.51122e-06
1.46404e-05
-6.88665e-06
1.43665e-05
-6.3078e-06
1.41355e-05
1.39484e-05
-5.76939e-06
-8.05198e-06
1.39475e-05
-7.41064e-06
1.37252e-05
-6.81527e-06
1.35401e-05
1.33938e-05
-6.26058e-06
-8.52825e-06
1.32443e-05
-7.87601e-06
1.3073e-05
-7.26926e-06
1.29334e-05
1.28274e-05
-6.70286e-06
-8.93711e-06
1.25376e-05
-8.27987e-06
1.24157e-05
-7.66696e-06
1.23205e-05
1.22539e-05
-7.09348e-06
-9.2769e-06
1.18338e-05
-8.62038e-06
1.17592e-05
-8.00642e-06
1.17066e-05
1.1678e-05
-7.43047e-06
-9.54722e-06
1.11387e-05
-8.89676e-06
1.11088e-05
-8.28663e-06
1.10965e-05
1.1104e-05
-7.71261e-06
-9.74873e-06
1.04577e-05
-9.10923e-06
1.04693e-05
-8.50739e-06
1.04946e-05
1.0536e-05
-7.93945e-06
-9.88305e-06
9.79543e-06
-9.2588e-06
9.84503e-06
-8.66928e-06
9.90513e-06
9.97794e-06
-8.11119e-06
-9.95255e-06
9.15564e-06
-9.34722e-06
9.23972e-06
-8.77355e-06
9.33145e-06
9.43304e-06
-8.22865e-06
-9.96016e-06
8.54144e-06
-9.37681e-06
8.65637e-06
-8.82194e-06
8.77659e-06
8.90422e-06
-8.29313e-06
-9.90923e-06
7.95518e-06
-9.35026e-06
8.09739e-06
-8.81664e-06
8.24296e-06
8.39392e-06
-8.30635e-06
-9.80335e-06
7.39852e-06
-9.27057e-06
7.5646e-06
-8.76013e-06
7.73251e-06
7.90412e-06
-8.27034e-06
-9.64618e-06
6.87255e-06
-9.14089e-06
7.05931e-06
-8.65506e-06
7.24667e-06
7.43639e-06
-8.18734e-06
-9.44135e-06
6.37786e-06
-8.96436e-06
6.58232e-06
-8.50418e-06
6.78648e-06
6.99191e-06
-8.0597e-06
-9.19236e-06
5.9146e-06
-8.74412e-06
6.13407e-06
-8.31023e-06
6.35258e-06
6.57151e-06
-7.88983e-06
-8.90254e-06
5.48262e-06
-8.48316e-06
5.71468e-06
-8.0759e-06
5.94532e-06
6.17573e-06
-7.68012e-06
-8.57496e-06
5.08147e-06
-8.18428e-06
5.32399e-06
-7.80375e-06
5.56478e-06
5.80486e-06
-7.43289e-06
-8.21243e-06
4.71052e-06
-7.8501e-06
4.96165e-06
-7.49617e-06
5.21086e-06
5.45899e-06
-7.15031e-06
-7.81743e-06
4.36899e-06
-7.48294e-06
4.62716e-06
-7.15536e-06
4.88327e-06
5.13808e-06
-6.83444e-06
-7.3921e-06
4.05607e-06
-7.08488e-06
4.31992e-06
-6.78328e-06
4.58166e-06
4.84194e-06
-6.48713e-06
-6.93831e-06
3.77087e-06
-6.65771e-06
4.03932e-06
-6.38166e-06
4.30561e-06
4.57035e-06
-6.11005e-06
-6.45758e-06
3.51256e-06
-6.20297e-06
3.78471e-06
-5.95204e-06
4.05469e-06
4.32304e-06
-5.70471e-06
-5.95124e-06
3.28034e-06
-5.72204e-06
3.55551e-06
-5.49581e-06
3.82847e-06
4.09977e-06
-5.27252e-06
-5.42053e-06
3.07357e-06
-5.21624e-06
3.35122e-06
-5.01439e-06
3.62664e-06
3.90034e-06
-4.81493e-06
-4.86698e-06
2.89177e-06
-4.68727e-06
3.17152e-06
-4.50958e-06
3.44897e-06
3.72461e-06
-4.33383e-06
-4.2931e-06
2.73471e-06
-4.13782e-06
3.01625e-06
-3.9842e-06
3.29536e-06
3.57254e-06
-3.83213e-06
-3.70373e-06
2.60244e-06
-3.57292e-06
2.88544e-06
-3.4434e-06
3.16584e-06
3.44413e-06
-3.31499e-06
-3.10829e-06
2.4953e-06
-3.00211e-06
2.77927e-06
-2.89669e-06
3.06041e-06
3.33928e-06
-2.79186e-06
-2.52454e-06
2.41369e-06
-2.44299e-06
2.69771e-06
-2.36137e-06
2.97879e-06
3.25751e-06
-2.2796e-06
-1.98401e-06
2.3574e-06
-1.9262e-06
2.63989e-06
-1.86709e-06
2.91968e-06
3.19725e-06
-1.80685e-06
-1.53865e-06
2.32448e-06
-1.50176e-06
2.60299e-06
-1.46213e-06
2.88004e-06
3.15562e-06
-1.42049e-06
-1.27043e-06
-1.2472e-06
-1.22012e-06
-1.19038e-06
1.79069e-06
1.98581e-05
1.95936e-06
1.92911e-05
2.10699e-06
1.87187e-05
2.23395e-06
1.81452e-05
2.34081e-06
1.75762e-05
2.42838e-06
1.70172e-05
2.4976e-06
1.64729e-05
2.54956e-06
1.59468e-05
2.58542e-06
1.54412e-05
2.60633e-06
1.49576e-05
2.61347e-06
1.44966e-05
2.60796e-06
1.40583e-05
2.59092e-06
1.36425e-05
2.56336e-06
1.32486e-05
2.52629e-06
1.2876e-05
2.48064e-06
1.2524e-05
2.42725e-06
1.21919e-05
2.36691e-06
1.1879e-05
2.30033e-06
1.15848e-05
2.22813e-06
1.13087e-05
2.15087e-06
1.10507e-05
2.06904e-06
1.08108e-05
1.98306e-06
1.05897e-05
1.89329e-06
1.03887e-05
1.79999e-06
1.02101e-05
1.70337e-06
1.00571e-05
1.60355e-06
9.9344e-06
1.50057e-06
9.84826e-06
1.39442e-06
9.80659e-06
1.28502e-06
9.819e-06
1.17228e-06
9.89673e-06
1.05605e-06
1.00524e-05
9.36238e-07
1.02994e-05
8.12779e-07
1.06515e-05
6.857e-07
1.11214e-05
5.55132e-07
1.17186e-05
4.21289e-07
1.2445e-05
2.84321e-07
1.32863e-05
1.43884e-07
1.4189e-05
1.48468e-05
1.09494e-06
1.96314e-05
1.29883e-06
1.90872e-05
1.48019e-06
1.85373e-05
1.63948e-06
1.79859e-05
1.77737e-06
1.74383e-05
1.89473e-06
1.68999e-05
1.99256e-06
1.63751e-05
2.07199e-06
1.58674e-05
2.13418e-06
1.5379e-05
2.18032e-06
1.49115e-05
2.2116e-06
1.44653e-05
2.2292e-06
1.40407e-05
2.23422e-06
1.36375e-05
2.22772e-06
1.32551e-05
2.21073e-06
1.2893e-05
2.18417e-06
1.25506e-05
2.14893e-06
1.22272e-05
2.10581e-06
1.19221e-05
2.05556e-06
1.1635e-05
1.99886e-06
1.13654e-05
1.93629e-06
1.11132e-05
1.8684e-06
1.08787e-05
1.79565e-06
1.06625e-05
1.71842e-06
1.0466e-05
1.63706e-06
1.02915e-05
1.55182e-06
1.01423e-05
1.46287e-06
1.00233e-05
1.37036e-06
9.94076e-06
1.27434e-06
9.9026e-06
1.17481e-06
9.91852e-06
1.07178e-06
9.99977e-06
9.65206e-07
1.01589e-05
8.55106e-07
1.04095e-05
7.41545e-07
1.07651e-05
6.24679e-07
1.12383e-05
5.04771e-07
1.18385e-05
3.82166e-07
1.25676e-05
2.57162e-07
1.34112e-05
1.2963e-07
1.43165e-05
1.49764e-05
4.00181e-07
1.93673e-05
6.39733e-07
1.88476e-05
8.5504e-07
1.8322e-05
1.04671e-06
1.77942e-05
1.21553e-06
1.72695e-05
1.36249e-06
1.6753e-05
1.48866e-06
1.6249e-05
1.59522e-06
1.57609e-05
1.68339e-06
1.52909e-05
1.75441e-06
1.48404e-05
1.80949e-06
1.44102e-05
1.84983e-06
1.40004e-05
1.87658e-06
1.36107e-05
1.89083e-06
1.32408e-05
1.89362e-06
1.28902e-05
1.8859e-06
1.25583e-05
1.8686e-06
1.22445e-05
1.84254e-06
1.19482e-05
1.80851e-06
1.1669e-05
1.76721e-06
1.14067e-05
1.71928e-06
1.11612e-05
1.66529e-06
1.09327e-05
1.60576e-06
1.0722e-05
1.54112e-06
1.05306e-05
1.47175e-06
1.03608e-05
1.39796e-06
1.02161e-05
1.32e-06
1.01013e-05
1.23807e-06
1.00227e-05
1.1523e-06
9.98837e-06
1.06279e-06
1.0008e-05
9.69617e-07
1.0093e-05
8.7286e-07
1.02557e-05
7.72638e-07
1.05097e-05
6.69142e-07
1.08686e-05
5.62655e-07
1.13448e-05
4.53574e-07
1.19475e-05
3.42377e-07
1.26787e-05
2.29506e-07
1.35241e-05
1.15075e-07
1.44308e-05
1.50915e-05
-2.90897e-07
1.9065e-05
-1.54243e-08
1.85721e-05
2.33897e-07
1.80727e-05
4.57843e-07
1.75703e-05
6.57381e-07
1.707e-05
8.33615e-07
1.65767e-05
9.87736e-07
1.60949e-05
1.12101e-06
1.56276e-05
1.23472e-06
1.51772e-05
1.33016e-06
1.4745e-05
1.4086e-06
1.43318e-05
1.47128e-06
1.39377e-05
1.51936e-06
1.35626e-05
1.55398e-06
1.32062e-05
1.5762e-06
1.2868e-05
1.58703e-06
1.25475e-05
1.58739e-06
1.22441e-05
1.57817e-06
1.19574e-05
1.56016e-06
1.1687e-05
1.53411e-06
1.14328e-05
1.5007e-06
1.11946e-05
1.46054e-06
1.09728e-05
1.41417e-06
1.07684e-05
1.36208e-06
1.05827e-05
1.30471e-06
1.04182e-05
1.2424e-06
1.02784e-05
1.17549e-06
1.01682e-05
1.10421e-06
1.0094e-05
1.02878e-06
1.00638e-05
9.49384e-07
1.00874e-05
8.66181e-07
1.01762e-05
7.79355e-07
1.03425e-05
6.8914e-07
1.05999e-05
5.95842e-07
1.09619e-05
4.99879e-07
1.14407e-05
4.01781e-07
1.20456e-05
3.02174e-07
1.27783e-05
2.01662e-07
1.36245e-05
1.00572e-07
1.45319e-05
1.5192e-05
-9.7499e-07
1.87247e-05
-6.63737e-07
1.82609e-05
-3.8066e-07
1.77896e-05
-1.24753e-07
1.73144e-05
1.05121e-07
1.68401e-05
3.1019e-07
1.63717e-05
4.91766e-07
1.59133e-05
6.51218e-07
1.54681e-05
7.89928e-07
1.50385e-05
9.09256e-07
1.46257e-05
1.01053e-06
1.42305e-05
1.09502e-06
1.38532e-05
1.16395e-06
1.34937e-05
1.2185e-06
1.31517e-05
1.25975e-06
1.28267e-05
1.28874e-06
1.25185e-05
1.30645e-06
1.22264e-05
1.31376e-06
1.19501e-05
1.31153e-06
1.16893e-05
1.30053e-06
1.14438e-05
1.28146e-06
1.12137e-05
1.25498e-06
1.09993e-05
1.22167e-06
1.08017e-05
1.18207e-06
1.06223e-05
1.13664e-06
1.04636e-05
1.0858e-06
1.03292e-05
1.02992e-06
1.02241e-05
9.69322e-07
1.01546e-05
9.04275e-07
1.01288e-05
8.3504e-07
1.01567e-05
7.61873e-07
1.02493e-05
6.85059e-07
1.04194e-05
6.04938e-07
1.06801e-05
5.21941e-07
1.10449e-05
4.36612e-07
1.1526e-05
3.49621e-07
1.21326e-05
2.61741e-07
1.28662e-05
1.7374e-07
1.37125e-05
8.61204e-08
1.46194e-05
1.52781e-05
-1.64822e-06
1.8347e-05
-1.30181e-06
1.79145e-05
-9.85615e-07
1.74734e-05
-6.98394e-07
1.70271e-05
-4.38853e-07
1.65806e-05
-2.05616e-07
1.61384e-05
2.76589e-09
1.57049e-05
1.87759e-07
1.52832e-05
3.50821e-07
1.48754e-05
4.93392e-07
1.44831e-05
6.16869e-07
1.41071e-05
7.22585e-07
1.37475e-05
8.11813e-07
1.34045e-05
8.8576e-07
1.30777e-05
9.45562e-07
1.2767e-05
9.92287e-07
1.24717e-05
1.02693e-06
1.21917e-05
1.05044e-06
1.19266e-05
1.06367e-06
1.1676e-05
1.06743e-06
1.144e-05
1.06248e-06
1.12186e-05
1.04948e-06
1.10123e-05
1.02907e-06
1.08221e-05
1.00182e-06
1.06496e-05
9.68243e-07
1.04972e-05
9.28803e-07
1.03687e-05
8.83918e-07
1.02689e-05
8.33964e-07
1.02045e-05
7.79289e-07
1.01835e-05
7.20227e-07
1.02157e-05
6.57123e-07
1.03124e-05
5.90359e-07
1.04861e-05
5.20384e-07
1.075e-05
4.47749e-07
1.11175e-05
3.73123e-07
1.16007e-05
2.97314e-07
1.22084e-05
2.2124e-07
1.29422e-05
1.4582e-07
1.37879e-05
7.17082e-08
1.46935e-05
1.53498e-05
-2.3063e-06
1.79328e-05
-1.92582e-06
1.7534e-05
-1.57757e-06
1.71252e-05
-1.26008e-06
1.67097e-05
-9.7187e-07
1.62923e-05
-7.11394e-07
1.5878e-05
-4.77093e-07
1.54706e-05
-2.67404e-07
1.50735e-05
-8.07789e-08
1.46888e-05
8.42962e-08
1.43181e-05
2.2927e-07
1.39621e-05
3.55533e-07
1.36213e-05
4.64415e-07
1.32956e-05
5.57167e-07
1.2985e-05
6.34965e-07
1.26892e-05
6.98911e-07
1.24078e-05
7.50036e-07
1.21406e-05
7.89307e-07
1.18873e-05
8.17625e-07
1.16477e-05
8.35826e-07
1.14218e-05
8.44687e-07
1.12098e-05
8.44925e-07
1.10121e-05
8.37201e-07
1.08298e-05
8.22122e-07
1.06646e-05
8.00244e-07
1.05191e-05
7.72076e-07
1.03968e-05
7.38086e-07
1.03029e-05
6.98706e-07
1.02439e-05
6.54351e-07
1.02279e-05
6.05429e-07
1.02646e-05
5.5237e-07
1.03655e-05
4.95653e-07
1.05428e-05
4.35835e-07
1.08098e-05
3.73578e-07
1.11797e-05
3.09678e-07
1.16646e-05
2.45074e-07
1.2273e-05
1.80821e-07
1.30065e-05
1.17985e-07
1.38507e-05
5.73561e-08
1.47541e-05
1.54071e-05
-2.9447e-06
1.7484e-05
-2.53174e-06
1.7121e-05
-2.15292e-06
1.67464e-05
-1.80656e-06
1.63633e-05
-1.49099e-06
1.59768e-05
-1.20452e-06
1.55915e-05
-9.45451e-07
1.52115e-05
-7.12128e-07
1.48401e-05
-5.02917e-07
1.44796e-05
-3.16252e-07
1.41314e-05
-1.50623e-07
1.37965e-05
-4.58316e-09
1.34752e-05
1.23237e-07
1.31678e-05
2.34122e-07
1.28741e-05
3.29287e-07
1.2594e-05
4.09873e-07
1.23272e-05
4.76945e-07
1.20736e-05
5.31499e-07
1.18328e-05
5.74467e-07
1.16048e-05
6.06713e-07
1.13896e-05
6.29044e-07
1.11874e-05
6.42207e-07
1.09989e-05
6.46895e-07
1.08251e-05
6.43751e-07
1.06678e-05
6.33368e-07
1.05295e-05
6.16299e-07
1.04139e-05
5.93058e-07
1.03262e-05
5.64132e-07
1.02728e-05
5.29999e-07
1.0262e-05
4.91139e-07
1.03035e-05
4.48066e-07
1.04085e-05
4.01351e-07
1.05895e-05
3.51653e-07
1.08595e-05
2.99746e-07
1.12316e-05
2.46543e-07
1.17178e-05
1.9311e-07
1.23264e-05
1.40636e-07
1.30589e-05
9.03205e-08
1.3901e-05
4.30919e-08
1.48013e-05
1.54502e-05
-3.55882e-06
1.70029e-05
-3.11547e-06
1.66777e-05
-2.70799e-06
1.63389e-05
-2.33451e-06
1.59898e-05
-1.9932e-06
1.56354e-05
-1.68222e-06
1.52805e-05
-1.39978e-06
1.49291e-05
-1.14411e-06
1.45845e-05
-9.13516e-07
1.4249e-05
-7.06355e-07
1.39242e-05
-5.21064e-07
1.36112e-05
-3.5616e-07
1.33103e-05
-2.10244e-07
1.30219e-05
-8.1992e-08
1.27459e-05
2.98425e-08
1.24822e-05
1.26426e-07
1.22307e-05
2.08851e-07
1.19911e-05
2.78144e-07
1.17635e-05
3.35266e-07
1.15477e-05
3.81107e-07
1.13438e-05
4.16501e-07
1.11521e-05
4.42223e-07
1.09732e-05
4.58997e-07
1.08084e-05
4.67497e-07
1.06593e-05
4.68354e-07
1.05286e-05
4.62159e-07
1.04201e-05
4.49473e-07
1.03388e-05
4.30834e-07
1.02914e-05
4.06779e-07
1.0286e-05
3.7786e-07
1.03324e-05
3.44669e-07
1.04417e-05
3.07866e-07
1.06263e-05
2.68206e-07
1.08992e-05
2.2657e-07
1.12733e-05
1.83985e-07
1.17604e-05
1.41638e-07
1.23688e-05
1.00843e-07
1.30997e-05
6.29213e-08
1.39389e-05
2.89351e-08
1.48352e-05
1.54791e-05
-4.14408e-06
1.64922e-05
-3.67291e-06
1.62065e-05
-3.2391e-06
1.59051e-05
-2.84061e-06
1.55913e-05
-2.47548e-06
1.52703e-05
-2.14175e-06
1.49467e-05
-1.83754e-06
1.46249e-05
-1.56102e-06
1.43079e-05
-1.3104e-06
1.39984e-05
-1.084e-06
1.36978e-05
-8.80218e-07
1.34074e-05
-6.97519e-07
1.31276e-05
-5.34475e-07
1.28588e-05
-3.89736e-07
1.26011e-05
-2.62037e-07
1.23545e-05
-1.50189e-07
1.21188e-05
-5.30746e-08
1.1894e-05
3.03561e-08
1.16801e-05
1.0108e-07
1.1477e-05
1.6001e-07
1.12848e-05
2.08005e-07
1.11041e-05
2.45866e-07
1.09354e-05
2.74347e-07
1.07799e-05
2.9415e-07
1.06395e-05
3.05941e-07
1.05168e-05
3.10349e-07
1.04157e-05
3.07975e-07
1.03412e-05
2.9941e-07
1.03e-05
2.85246e-07
1.03002e-05
2.66101e-07
1.03515e-05
2.42642e-07
1.04651e-05
2.15613e-07
1.06533e-05
1.85863e-07
1.09289e-05
1.54372e-07
1.13048e-05
1.22277e-07
1.17925e-05
9.08787e-08
1.24002e-05
6.16056e-08
1.3129e-05
3.58838e-08
1.39646e-05
1.48505e-08
1.48563e-05
1.5494e-05
-4.69602e-06
1.59555e-05
-4.20008e-06
1.57106e-05
-3.74266e-06
1.54477e-05
-3.32161e-06
1.51703e-05
-2.93486e-06
1.48835e-05
-2.58039e-06
1.45923e-05
-2.25625e-06
1.43007e-05
-1.96053e-06
1.40122e-05
-1.69143e-06
1.37293e-05
-1.44721e-06
1.34536e-05
-1.22622e-06
1.31864e-05
-1.02691e-06
1.29283e-05
-8.47837e-07
1.26798e-05
-6.87618e-07
1.24409e-05
-5.44971e-07
1.22118e-05
-4.18687e-07
1.19925e-05
-3.07633e-07
1.1783e-05
-2.10752e-07
1.15832e-05
-1.27052e-07
1.13933e-05
-5.55996e-08
1.12134e-05
4.48211e-09
1.1044e-05
5.40156e-08
1.08858e-05
9.37752e-08
1.07401e-05
1.24493e-07
1.06088e-05
1.46866e-07
1.04944e-05
1.61558e-07
1.0401e-05
1.69211e-07
1.03335e-05
1.70461e-07
1.02987e-05
1.65954e-07
1.03047e-05
1.5637e-07
1.03611e-05
1.42448e-07
1.0479e-05
1.2501e-07
1.06707e-05
1.04993e-07
1.09489e-05
8.34741e-08
1.13263e-05
6.16926e-08
1.18142e-05
4.10547e-08
1.24208e-05
2.3097e-08
1.3147e-05
9.31162e-09
1.39784e-05
6.68491e-10
1.48649e-05
1.54946e-05
-5.21051e-06
1.53966e-05
-4.69325e-06
1.51934e-05
-4.21529e-06
1.49697e-05
-3.77442e-06
1.47294e-05
-3.36852e-06
1.44776e-05
-2.99554e-06
1.42193e-05
-2.65349e-06
1.39586e-05
-2.34043e-06
1.36991e-05
-2.05453e-06
1.34433e-05
-1.79401e-06
1.31931e-05
-1.55724e-06
1.29496e-05
-1.34263e-06
1.27137e-05
-1.14872e-06
1.24859e-05
-9.74117e-07
1.22663e-05
-8.1753e-07
1.20553e-05
-6.77738e-07
1.18528e-05
-5.53599e-07
1.16589e-05
-4.44042e-07
1.14737e-05
-3.48066e-07
1.12973e-05
-2.64727e-07
1.11301e-05
-1.93138e-07
1.09724e-05
-1.32462e-07
1.08252e-05
-8.19041e-08
1.06896e-05
-4.07069e-08
1.05675e-05
-8.14794e-09
1.04618e-05
1.6467e-08
1.03763e-05
3.38162e-08
1.03162e-05
4.45779e-08
1.02879e-05
4.94498e-08
1.02998e-05
4.91705e-08
1.03613e-05
4.45448e-08
1.04837e-05
3.64699e-08
1.06788e-05
2.59648e-08
1.09594e-05
1.41974e-08
1.13381e-05
2.50612e-09
1.18259e-05
-7.60067e-09
1.24309e-05
-1.45168e-08
1.31539e-05
-1.67138e-08
1.39806e-05
-1.34739e-08
1.48617e-05
1.54812e-05
-5.68381e-06
1.48199e-05
-5.14901e-06
1.46586e-05
-4.65385e-06
1.44746e-05
-4.19616e-06
1.42717e-05
-3.7738e-06
1.40553e-05
-3.38474e-06
1.38302e-05
-3.02698e-06
1.36009e-05
-2.69858e-06
1.33707e-05
-2.39769e-06
1.31425e-05
-2.12256e-06
1.2918e-05
-1.87153e-06
1.26986e-05
-1.64302e-06
1.24852e-05
-1.43556e-06
1.22784e-05
-1.24776e-06
1.20785e-05
-1.07833e-06
1.18858e-05
-9.26029e-07
1.17005e-05
-7.89727e-07
1.15226e-05
-6.68344e-07
1.13523e-05
-5.60872e-07
1.11899e-05
-4.66361e-07
1.10356e-05
-3.83915e-07
1.089e-05
-3.12685e-07
1.07539e-05
-2.51863e-07
1.06287e-05
-2.00674e-07
1.05163e-05
-1.58375e-07
1.04195e-05
-1.24248e-07
1.03422e-05
-9.75815e-08
1.02895e-05
-7.76557e-08
1.0268e-05
-6.37262e-08
1.02858e-05
-5.50004e-08
1.03526e-05
-5.06122e-08
1.04793e-05
-4.95954e-08
1.06778e-05
-5.08539e-08
1.09607e-05
-5.31355e-08
1.13404e-05
-5.50127e-08
1.18278e-05
-5.489e-08
1.24308e-05
-5.10617e-08
1.315e-05
-4.19508e-08
1.39715e-05
-2.67915e-08
1.48465e-05
1.54544e-05
-6.11271e-06
1.42297e-05
-5.56436e-06
1.41103e-05
-5.05557e-06
1.39658e-05
-4.58423e-06
1.38004e-05
-4.14829e-06
1.36193e-05
-3.74573e-06
1.34276e-05
-3.3746e-06
1.32297e-05
-3.03298e-06
1.30291e-05
-2.71906e-06
1.28285e-05
-2.43109e-06
1.263e-05
-2.16742e-06
1.24349e-05
-1.9265e-06
1.22443e-05
-1.70687e-06
1.20588e-05
-1.50714e-06
1.18788e-05
-1.32602e-06
1.17047e-05
-1.16229e-06
1.15368e-05
-1.01482e-06
1.13751e-05
-8.82522e-07
1.122e-05
-7.64393e-07
1.10717e-05
-6.59482e-07
1.09307e-05
-5.66888e-07
1.07974e-05
-4.85755e-07
1.06728e-05
-4.15264e-07
1.05582e-05
-3.54632e-07
1.04557e-05
-3.03098e-07
1.0368e-05
-2.59921e-07
1.0299e-05
-2.2436e-07
1.02539e-05
-1.95663e-07
1.02393e-05
-1.73042e-07
1.02632e-05
-1.55655e-07
1.03352e-05
-1.42581e-07
1.04662e-05
-1.32789e-07
1.0668e-05
-1.25112e-07
1.0953e-05
-1.18221e-07
1.13335e-05
-1.10603e-07
1.18202e-05
-1.00577e-07
1.24208e-05
-8.63518e-08
1.31358e-05
-6.62518e-08
1.39514e-05
-3.93414e-08
1.48196e-05
1.5415e-05
-6.49457e-06
1.36308e-05
-5.9368e-06
1.35525e-05
-5.41806e-06
1.3447e-05
-4.93639e-06
1.33187e-05
-4.48984e-06
1.31728e-05
-4.07648e-06
1.30143e-05
-3.69442e-06
1.28477e-05
-3.34182e-06
1.26765e-05
-3.0169e-06
1.25036e-05
-2.71795e-06
1.23311e-05
-2.44336e-06
1.21603e-05
-2.19161e-06
1.19925e-05
-1.96124e-06
1.18284e-05
-1.75091e-06
1.16685e-05
-1.55934e-06
1.15131e-05
-1.38532e-06
1.13627e-05
-1.22773e-06
1.12175e-05
-1.08548e-06
1.10778e-05
-9.57594e-07
1.09439e-05
-8.43107e-07
1.08162e-05
-7.41126e-07
1.06954e-05
-6.50791e-07
1.05824e-05
-5.71281e-07
1.04787e-05
-5.01804e-07
1.03862e-05
-4.41588e-07
1.03077e-05
-3.89873e-07
1.02473e-05
-3.45895e-07
1.02099e-05
-3.08869e-07
1.02022e-05
-2.77971e-07
1.02323e-05
-2.52315e-07
1.03095e-05
-2.3093e-07
1.04448e-05
-2.12727e-07
1.06498e-05
-1.96475e-07
1.09368e-05
-1.8077e-07
1.13178e-05
-1.64025e-07
1.18034e-05
-1.44474e-07
1.24012e-05
-1.20236e-07
1.31116e-05
-8.95284e-08
1.39207e-05
-5.12358e-08
1.47813e-05
1.53638e-05
-6.82742e-06
1.30278e-05
-6.26435e-06
1.29894e-05
-5.73939e-06
1.29221e-05
-5.25075e-06
1.283e-05
-4.79662e-06
1.27186e-05
-4.37522e-06
1.25929e-05
-3.98476e-06
1.24572e-05
-3.62347e-06
1.23152e-05
-3.28965e-06
1.21698e-05
-2.98165e-06
1.20231e-05
-2.69791e-06
1.18766e-05
-2.43695e-06
1.17316e-05
-2.19737e-06
1.15888e-05
-1.97784e-06
1.14489e-05
-1.7771e-06
1.13124e-05
-1.59398e-06
1.11796e-05
-1.42736e-06
1.10509e-05
-1.27619e-06
1.09266e-05
-1.13948e-06
1.08072e-05
-1.01629e-06
1.0693e-05
-9.05735e-07
1.05848e-05
-8.0695e-07
1.04837e-05
-7.19117e-07
1.03909e-05
-6.41441e-07
1.03085e-05
-5.73144e-07
1.02394e-05
-5.13449e-07
1.01875e-05
-4.61573e-07
1.0158e-05
-4.16706e-07
1.01573e-05
-3.7799e-07
1.01936e-05
-3.44503e-07
1.02761e-05
-3.15228e-07
1.04155e-05
-2.89024e-07
1.06236e-05
-2.646e-07
1.09123e-05
-2.40488e-07
1.12936e-05
-2.15029e-07
1.1778e-05
-1.86378e-07
1.23725e-05
-1.5257e-07
1.30777e-05
-1.11713e-07
1.38798e-05
-6.25272e-08
1.47321e-05
1.53013e-05
-7.10991e-06
1.24251e-05
-6.54559e-06
1.24251e-05
-6.01809e-06
1.23946e-05
-5.52581e-06
1.23378e-05
-5.06716e-06
1.226e-05
-4.6405e-06
1.21662e-05
-4.24417e-06
1.20609e-05
-3.87652e-06
1.19476e-05
-3.53594e-06
1.18292e-05
-3.22086e-06
1.1708e-05
-2.92979e-06
1.15856e-05
-2.66131e-06
1.14631e-05
-2.41405e-06
1.13416e-05
-2.18675e-06
1.12216e-05
-1.97817e-06
1.11038e-05
-1.78718e-06
1.09886e-05
-1.61268e-06
1.08764e-05
-1.45365e-06
1.07676e-05
-1.30912e-06
1.06626e-05
-1.17815e-06
1.0562e-05
-1.05987e-06
1.04666e-05
-9.53426e-07
1.03772e-05
-8.5801e-07
1.02954e-05
-7.72824e-07
1.02233e-05
-6.97087e-07
1.01637e-05
-6.30012e-07
1.01204e-05
-5.70801e-07
1.00988e-05
-5.1862e-07
1.01051e-05
-4.72589e-07
1.01475e-05
-4.3175e-07
1.02352e-05
-3.95048e-07
1.03788e-05
-3.61294e-07
1.05898e-05
-3.29147e-07
1.08802e-05
-2.97077e-07
1.12616e-05
-2.63361e-07
1.17442e-05
-2.26084e-07
1.23353e-05
-1.832e-07
1.30348e-05
-1.32716e-07
1.38293e-05
-7.31963e-08
1.46725e-05
1.5228e-05
-7.34132e-06
1.1827e-05
-6.77965e-06
1.18634e-05
-6.25315e-06
1.18681e-05
-5.7605e-06
1.18451e-05
-5.30031e-06
1.17998e-05
-4.87114e-06
1.1737e-05
-4.47147e-06
1.16612e-05
-4.09979e-06
1.15759e-05
-3.7546e-06
1.1484e-05
-3.43443e-06
1.13878e-05
-3.13787e-06
1.1289e-05
-2.86356e-06
1.11888e-05
-2.61022e-06
1.10882e-05
-2.3766e-06
1.0988e-05
-2.16155e-06
1.08888e-05
-1.96396e-06
1.0791e-05
-1.78276e-06
1.06952e-05
-1.61697e-06
1.06018e-05
-1.46563e-06
1.05113e-05
-1.32783e-06
1.04242e-05
-1.20272e-06
1.03415e-05
-1.08946e-06
1.02639e-05
-9.87236e-07
1.01932e-05
-8.95268e-07
1.01313e-05
-8.1277e-07
1.00811e-05
-7.38953e-07
1.00466e-05
-6.73005e-07
1.00328e-05
-6.14079e-07
1.00462e-05
-5.61272e-07
1.00947e-05
-5.136e-07
1.01876e-05
-4.69973e-07
1.03352e-05
-4.29163e-07
1.0549e-05
-3.89779e-07
1.08408e-05
-3.50243e-07
1.1222e-05
-3.08771e-07
1.17028e-05
-2.63386e-07
1.22898e-05
-2.11968e-07
1.29834e-05
-1.52433e-07
1.37697e-05
-8.3194e-08
1.46032e-05
1.51448e-05
-7.52156e-06
1.12373e-05
-6.96616e-06
1.1308e-05
-6.44403e-06
1.13459e-05
-5.95413e-06
1.13552e-05
-5.4953e-06
1.1341e-05
-5.06628e-06
1.1308e-05
-4.66575e-06
1.12606e-05
-4.29234e-06
1.12025e-05
-3.94466e-06
1.11363e-05
-3.62138e-06
1.10645e-05
-3.32116e-06
1.09888e-05
-3.04274e-06
1.09104e-05
-2.7849e-06
1.08304e-05
-2.54646e-06
1.07496e-05
-2.32632e-06
1.06686e-05
-2.12341e-06
1.05881e-05
-1.93672e-06
1.05085e-05
-1.76529e-06
1.04304e-05
-1.6082e-06
1.03542e-05
-1.46457e-06
1.02806e-05
-1.33355e-06
1.02104e-05
-1.21433e-06
1.01447e-05
-1.10611e-06
1.0085e-05
-1.00812e-06
1.00333e-05
-9.19579e-07
9.99258e-06
-8.39689e-07
9.9667e-06
-7.67639e-07
9.96075e-06
-7.02571e-07
9.98115e-06
-6.43565e-07
1.00357e-05
-5.89616e-07
1.01336e-05
-5.39604e-07
1.02852e-05
-4.92267e-07
1.05017e-05
-4.46174e-07
1.07947e-05
-3.997e-07
1.11755e-05
-3.51013e-07
1.1654e-05
-2.9808e-07
1.22369e-05
-2.38716e-07
1.2924e-05
-1.70753e-07
1.37017e-05
-9.24621e-08
1.45249e-05
1.50523e-05
-7.65104e-06
1.06597e-05
-7.10526e-06
1.07622e-05
-6.59063e-06
1.08313e-05
-6.10641e-06
1.0871e-05
-5.65168e-06
1.08862e-05
-5.22538e-06
1.08817e-05
-4.82638e-06
1.08616e-05
-4.45346e-06
1.08295e-05
-4.10538e-06
1.07883e-05
-3.78093e-06
1.07401e-05
-3.47887e-06
1.06867e-05
-3.19804e-06
1.06295e-05
-2.93729e-06
1.05696e-05
-2.69551e-06
1.05078e-05
-2.47167e-06
1.04448e-05
-2.26475e-06
1.03812e-05
-2.07379e-06
1.03175e-05
-1.89787e-06
1.02544e-05
-1.73611e-06
1.01924e-05
-1.58765e-06
1.01321e-05
-1.45167e-06
1.00744e-05
-1.32738e-06
1.00204e-05
-1.21401e-06
9.9716e-06
-1.11079e-06
9.93007e-06
-1.01694e-06
9.89872e-06
-9.31676e-07
9.88144e-06
-8.5419e-07
9.88327e-06
-7.83615e-07
9.91058e-06
-7.19021e-07
9.97114e-06
-6.59384e-07
1.0074e-05
-6.03561e-07
1.02294e-05
-5.50262e-07
1.04484e-05
-4.98021e-07
1.07425e-05
-4.45176e-07
1.11227e-05
-3.89852e-07
1.15987e-05
-3.29969e-07
1.2177e-05
-2.63289e-07
1.28572e-05
-1.87567e-07
1.36259e-05
-1.00942e-07
1.44382e-05
1.49513e-05
-7.73068e-06
1.00973e-05
-7.1975e-06
1.0229e-05
-6.69324e-06
1.0327e-05
-6.2174e-06
1.03951e-05
-5.76933e-06
1.04381e-05
-5.34816e-06
1.04605e-05
-4.95296e-06
1.04664e-05
-4.58267e-06
1.04592e-05
-4.23621e-06
1.04418e-05
-3.91248e-06
1.04163e-05
-3.61037e-06
1.03846e-05
-3.32879e-06
1.0348e-05
-3.0667e-06
1.03075e-05
-2.82306e-06
1.02642e-05
-2.5969e-06
1.02186e-05
-2.38728e-06
1.01715e-05
-2.19328e-06
1.01235e-05
-2.01403e-06
1.00752e-05
-1.84869e-06
1.00271e-05
-1.69642e-06
9.97987e-06
-1.55646e-06
9.93447e-06
-1.42802e-06
9.89198e-06
-1.31035e-06
9.85392e-06
-1.2027e-06
9.82241e-06
-1.10431e-06
9.80033e-06
-1.01441e-06
9.79154e-06
-9.3218e-07
9.80105e-06
-8.56764e-07
9.83518e-06
-7.87221e-07
9.90162e-06
-7.22516e-07
1.00093e-05
-6.61488e-07
1.01684e-05
-6.02823e-07
1.03898e-05
-5.45029e-07
1.06847e-05
-4.86412e-07
1.1064e-05
-4.25066e-07
1.15373e-05
-3.58871e-07
1.21107e-05
-2.85543e-07
1.27839e-05
-2.02773e-07
1.3543e-05
-1.08582e-07
1.43439e-05
1.48427e-05
-7.76175e-06
9.55266e-06
-7.24381e-06
9.71109e-06
-6.75246e-06
9.83568e-06
-6.28748e-06
9.93014e-06
-5.84841e-06
9.99904e-06
-5.43463e-06
1.00467e-05
-5.04536e-06
1.00771e-05
-4.67973e-06
1.00936e-05
-4.33681e-06
1.00989e-05
-4.01562e-06
1.00951e-05
-3.71517e-06
1.00842e-05
-3.43448e-06
1.00673e-05
-3.17258e-06
1.00456e-05
-2.92855e-06
1.00201e-05
-2.70145e-06
9.99153e-06
-2.49043e-06
9.96053e-06
-2.29462e-06
9.92773e-06
-2.1132e-06
9.89374e-06
-1.94536e-06
9.85921e-06
-1.79033e-06
9.82483e-06
-1.64735e-06
9.79148e-06
-1.51568e-06
9.7603e-06
-1.39459e-06
9.73283e-06
-1.28335e-06
9.71118e-06
-1.18121e-06
9.69821e-06
-1.08742e-06
9.69776e-06
-1.00117e-06
9.71482e-06
-9.21607e-07
9.75564e-06
-8.47781e-07
9.82781e-06
-7.78655e-07
9.9402e-06
-7.13054e-07
1.01028e-05
-6.49648e-07
1.03263e-05
-5.86926e-07
1.06219e-05
-5.2317e-07
1.10003e-05
-4.56448e-07
1.14706e-05
-3.84614e-07
1.20388e-05
-3.05348e-07
1.27045e-05
-2.16285e-07
1.34539e-05
-1.15341e-07
1.42429e-05
1.47273e-05
-7.74586e-06
9.02816e-06
-7.24542e-06
9.21063e-06
-6.76923e-06
9.35947e-06
-6.31728e-06
9.47818e-06
-5.88935e-06
9.5711e-06
-5.48501e-06
9.64238e-06
-5.10366e-06
9.69579e-06
-4.74459e-06
9.73454e-06
-4.40702e-06
9.7613e-06
-4.09011e-06
9.77822e-06
-3.79298e-06
9.78701e-06
-3.51475e-06
9.78905e-06
-3.25455e-06
9.78544e-06
-3.01153e-06
9.77712e-06
-2.78486e-06
9.76486e-06
-2.57371e-06
9.74938e-06
-2.37731e-06
9.73132e-06
-2.19487e-06
9.71129e-06
-2.02563e-06
9.68996e-06
-1.86887e-06
9.66805e-06
-1.72386e-06
9.64646e-06
-1.5899e-06
9.62633e-06
-1.46628e-06
9.60921e-06
-1.35229e-06
9.5972e-06
-1.24722e-06
9.59315e-06
-1.15031e-06
9.60087e-06
-1.06078e-06
9.62531e-06
-9.77774e-07
9.67264e-06
-9.00354e-07
9.75039e-06
-8.27475e-07
9.86732e-06
-7.57958e-07
1.00333e-05
-6.90463e-07
1.02588e-05
-6.23463e-07
1.05549e-05
-5.5523e-07
1.0932e-05
-4.83813e-07
1.13991e-05
-4.07047e-07
1.1962e-05
-3.22587e-07
1.262e-05
-2.28026e-07
1.33593e-05
-1.21185e-07
1.4136e-05
1.46061e-05
-7.68481e-06
8.52562e-06
-7.20379e-06
8.72959e-06
-6.74467e-06
8.90034e-06
-6.30769e-06
9.04118e-06
-5.8928e-06
9.1562e-06
-5.49975e-06
9.24934e-06
-5.12814e-06
9.32418e-06
-4.7774e-06
9.38381e-06
-4.44689e-06
9.43079e-06
-4.13589e-06
9.46721e-06
-3.84364e-06
9.49476e-06
-3.56938e-06
9.51478e-06
-3.31233e-06
9.52838e-06
-3.07171e-06
9.5365e-06
-2.84677e-06
9.53993e-06
-2.63676e-06
9.53938e-06
-2.44096e-06
9.53551e-06
-2.25863e-06
9.52896e-06
-2.08909e-06
9.52041e-06
-1.93163e-06
9.51059e-06
-1.78558e-06
9.50041e-06
-1.65027e-06
9.49102e-06
-1.52501e-06
9.48396e-06
-1.40914e-06
9.48134e-06
-1.30194e-06
9.48597e-06
-1.20271e-06
9.50165e-06
-1.11065e-06
9.53326e-06
-1.02493e-06
9.58693e-06
-9.44626e-07
9.67009e-06
-8.68685e-07
9.79137e-06
-7.95931e-07
9.9605e-06
-7.25018e-07
1.01879e-05
-6.54418e-07
1.04843e-05
-5.82394e-07
1.086e-05
-5.0699e-07
1.13237e-05
-4.2603e-07
1.18811e-05
-3.37154e-07
1.25311e-05
-2.37924e-07
1.326e-05
-1.26078e-07
1.40241e-05
1.448e-05
-7.5806e-06
8.04651e-06
-7.12054e-06
8.26952e-06
-6.68013e-06
8.45992e-06
-6.25976e-06
8.62081e-06
-5.85958e-06
8.75603e-06
-5.47951e-06
8.86928e-06
-5.11927e-06
8.96396e-06
-4.77847e-06
9.04301e-06
-4.45659e-06
9.1089e-06
-4.15303e-06
9.16365e-06
-3.86716e-06
9.20887e-06
-3.5983e-06
9.24591e-06
-3.34577e-06
9.27584e-06
-3.10888e-06
9.29961e-06
-2.88695e-06
9.318e-06
-2.6793e-06
9.33173e-06
-2.48527e-06
9.34148e-06
-2.30419e-06
9.34788e-06
-2.1354e-06
9.35163e-06
-1.97828e-06
9.35347e-06
-1.83217e-06
9.35431e-06
-1.69644e-06
9.3553e-06
-1.57045e-06
9.35799e-06
-1.45355e-06
9.36445e-06
-1.34507e-06
9.37751e-06
-1.2443e-06
9.40089e-06
-1.15049e-06
9.43946e-06
-1.0628e-06
9.49925e-06
-9.80326e-07
9.5876e-06
-9.02029e-07
9.71306e-06
-8.26733e-07
9.88518e-06
-7.53097e-07