/*--------------------------------*- C++ -*----------------------------------*\
| =========                 |                                                 |
| \\      /  F ield         | OpenFOAM: The Open Source CFD Toolbox           |
|  \\    /   O peration     | Version:  5.0                                   |
|   \\  /    A nd           | Web:      www.OpenFOAM.org                      |
|    \\/     M anipulation  |                                                 |
\*---------------------------------------------------------------------------*/
FoamFile
{
    version     2.0;
    format      ascii;
    class       volScalarField;
    location    "0.9";
    object      alpha.water;
}
// * * * * * * * * * * * * * * * * * * * * * * * * * * * * * * * * * * * * * //

dimensions      [0 0 0 0 0 0 0];

internalField   nonuniform List<scalar> 
1915
(
-1.40812e-17
-2.95177e-17
-6.31477e-17
-1.37625e-16
-3.04588e-16
-6.8283e-16
-1.55165e-15
-3.59686e-15
-8.60672e-15
-2.15001e-14
-5.61295e-14
-1.50931e-13
-4.07474e-13
-1.07515e-12
-2.71394e-12
-6.46276e-12
-1.43975e-11
-2.98279e-11
-5.71006e-11
-1.00193e-10
-1.59845e-10
-2.30488e-10
-2.9954e-10
-3.50782e-10
-3.70723e-10
-1.25008e-26
-5.50958e-26
-2.65376e-25
-1.09843e-24
-3.88394e-24
-1.18307e-23
-3.20017e-23
-8.06618e-23
-1.99342e-22
-4.98339e-22
-1.25826e-21
-3.13564e-21
-7.52684e-21
-1.72044e-20
-3.7442e-20
-7.81765e-20
-1.58477e-19
-3.16311e-19
-6.31076e-19
-1.27693e-18
-2.65133e-18
-5.68934e-18
-1.26344e-17
-2.89251e-17
-6.78043e-17
-1.6157e-16
-3.89322e-16
-9.48108e-16
-2.34662e-15
-5.96082e-15
-1.56583e-14
-4.24358e-14
-1.16854e-13
-3.19433e-13
-8.47061e-13
-2.14061e-12
-5.09479e-12
-1.13292e-11
-2.3372e-11
-4.43838e-11
-7.69623e-11
-1.21074e-10
-1.72199e-10
-2.21316e-10
-2.57489e-10
-2.44268e-27
-1.10057e-26
-5.39755e-26
-2.24104e-25
-7.82818e-25
-2.33228e-24
-6.15167e-24
-1.51592e-23
-3.68229e-23
-9.06612e-23
-2.24444e-22
-5.45887e-22
-1.28186e-21
-2.86047e-21
-6.04052e-21
-1.22145e-20
-2.40336e-20
-4.68305e-20
-9.20611e-20
-1.85867e-19
-3.91082e-19
-8.65003e-19
-2.0132e-18
-4.89939e-18
-1.2333e-17
-3.17319e-17
-8.25937e-17
-2.16131e-16
-5.68486e-16
-1.51126e-15
-4.09254e-15
-1.13384e-14
-3.19749e-14
-9.03831e-14
-2.50869e-13
-6.70653e-13
-1.70153e-12
-4.05433e-12
-8.99828e-12
-1.84541e-11
-3.46898e-11
-5.9359e-11
-9.20686e-11
-1.29298e-10
-1.64641e-10
-4.14599e-28
-1.89892e-27
-9.41076e-27
-3.89256e-26
-1.33481e-25
-3.86697e-25
-9.87606e-25
-2.36092e-24
-5.6077e-24
-1.36239e-23
-3.3342e-23
-7.90972e-23
-1.764e-22
-3.65532e-22
-7.33314e-22
-1.42919e-21
-2.71466e-21
-5.14415e-21
-9.96145e-21
-2.01497e-20
-4.33206e-20
-9.995e-20
-2.4741e-19
-6.50667e-19
-1.78963e-18
-5.06106e-18
-1.4496e-17
-4.15962e-17
-1.18996e-16
-3.39784e-16
-9.73658e-16
-2.81682e-15
-8.24003e-15
-2.42046e-14
-7.03476e-14
-1.98721e-13
-5.36869e-13
-1.36976e-12
-3.26843e-12
-7.2321e-12
-1.47184e-11
-2.7351e-11
-4.61821e-11
-7.07191e-11
-9.82908e-11
-5.81261e-29
-2.67177e-28
-1.32558e-27
-5.42124e-27
-1.81163e-26
-5.05019e-26
-1.22775e-25
-2.77953e-25
-6.2987e-25
-1.49014e-24
-3.62681e-24
-8.6424e-24
-1.92214e-23
-3.88381e-23
-7.08848e-23
-1.19388e-22
-2.09811e-22
-3.84658e-22
-7.34938e-22
-1.50624e-21
-3.37204e-21
-8.30781e-21
-2.24291e-20
-6.53617e-20
-2.0119e-19
-6.39575e-19
-2.05917e-18
-6.61647e-18
-2.10409e-17
-6.60811e-17
-2.05467e-16
-6.35708e-16
-1.96575e-15
-6.07168e-15
-1.8584e-14
-5.55978e-14
-1.60096e-13
-4.37675e-13
-1.12348e-12
-2.68304e-12
-5.91156e-12
-1.19274e-11
-2.19176e-11
-3.65845e-11
-5.54773e-11
-6.22806e-30
-2.84273e-29
-1.40582e-28
-5.65214e-28
-1.82467e-27
-4.81362e-27
-1.07856e-26
-2.18784e-26
-4.40946e-26
-9.64609e-26
-2.32392e-25
-5.76657e-25
-1.34132e-24
-2.77884e-24
-5.08983e-24
-8.30385e-24
-1.21842e-23
-1.69076e-23
-3.07584e-23
-6.61976e-23
-1.62621e-22
-4.52113e-22
-1.39928e-21
-4.71514e-21
-1.68402e-20
-6.2064e-20
-2.30736e-19
-8.50614e-19
-3.07738e-18
-1.08816e-17
-3.76162e-17
-1.27545e-16
-4.2623e-16
-1.40823e-15
-4.59054e-15
-1.46404e-14
-4.51089e-14
-1.32495e-13
-3.66671e-13
-9.46767e-13
-2.26147e-12
-4.95956e-12
-9.92871e-12
-1.80861e-11
-2.99632e-11
-4.50434e-31
-2.03175e-30
-9.96933e-30
-3.91471e-29
-1.2063e-28
-2.93259e-28
-5.68382e-28
-8.86492e-28
-1.13964e-27
-1.25744e-27
-1.97247e-27
-9.30287e-27
-3.4958e-26
-9.13463e-26
-1.87009e-25
-3.18942e-25
-4.72995e-25
-6.18682e-25
-7.22003e-25
-1.06557e-24
-3.46425e-24
-1.31393e-23
-5.28771e-23
-2.24371e-22
-9.8851e-22
-4.42497e-21
-1.97157e-20
-8.60214e-20
-3.63859e-19
-1.48603e-18
-5.85637e-18
-2.23131e-17
-8.25368e-17
-2.9784e-16
-1.05077e-15
-3.61255e-15
-1.19994e-14
-3.80693e-14
-1.14056e-13
-3.19498e-13
-8.29695e-13
-1.98264e-12
-4.33421e-12
-8.63751e-12
-1.56772e-11
-1.64885e-32
-7.3141e-32
-3.54395e-31
-1.34968e-30
-3.91873e-30
-8.53337e-30
-1.32933e-29
-1.22807e-29
-1.39302e-30
9.47777e-29
5.98165e-28
1.45983e-27
1.71847e-27
1.40536e-27
8.56543e-29
-1.72011e-27
-4.19051e-27
-6.69187e-27
-8.17087e-27
-8.34472e-27
-7.50101e-27
-9.23339e-26
-8.77914e-25
-5.94127e-24
-3.66501e-23
-2.16093e-22
-1.22221e-21
-6.59467e-21
-3.37973e-20
-1.64417e-19
-7.59875e-19
-3.34215e-18
-1.40418e-17
-5.66684e-17
-2.20754e-16
-8.31004e-16
-3.00999e-15
-1.04022e-14
-3.39603e-14
-1.03756e-13
-2.9423e-13
-7.6904e-13
-1.84244e-12
-4.03185e-12
-8.04912e-12
-2.37468e-49
3.66007e-49
2.49709e-48
3.76888e-49
1.98805e-52
7.7463e-49
1.80997e-44
5.167e-42
2.32032e-40
1.05161e-34
3.13362e-32
7.03097e-31
1.21288e-29
5.72313e-30
3.00871e-29
8.1497e-29
9.0329e-29
6.48606e-29
1.97165e-29
2.54972e-30
5.57051e-31
2.4999e-31
-5.73859e-28
-5.00837e-26
-6.74863e-25
-6.32377e-24
-5.05446e-23
-3.6215e-22
-2.36888e-21
-1.43039e-20
-8.02779e-20
-4.2051e-19
-2.0653e-18
-9.57178e-18
-4.21517e-17
-1.77184e-16
-7.10789e-16
-2.70798e-15
-9.72391e-15
-3.2645e-14
-1.01719e-13
-2.9235e-13
-7.71345e-13
-1.86253e-12
-4.1099e-12
-4.15699e-50
-8.07917e-52
-8.21079e-54
6.33648e-55
1.49195e-56
1.04023e-50
2.56636e-44
7.6456e-42
5.26527e-41
5.19851e-41
4.30369e-41
4.82041e-40
2.42416e-38
4.20633e-37
4.8164e-36
6.71051e-35
5.53608e-35
1.19852e-35
3.96346e-37
1.15938e-37
1.45437e-36
3.10339e-35
1.26055e-33
2.60578e-32
-1.5178e-27
-7.58571e-26
-1.1678e-24
-1.28708e-23
-1.17491e-22
-9.36927e-22
-6.69554e-21
-4.34284e-20
-2.5788e-19
-1.41428e-18
-7.23103e-18
-3.47366e-17
-1.57358e-16
-6.71368e-16
-2.68508e-15
-1.00058e-14
-3.45402e-14
-1.09932e-13
-3.21485e-13
-8.61844e-13
-2.11354e-12
-4.13138e-51
-7.51862e-53
-2.14793e-54
-6.41739e-55
-4.63008e-56
-1.97129e-57
4.20498e-52
1.66425e-46
2.217e-44
3.02235e-43
1.12015e-42
1.64697e-42
1.30742e-42
7.79286e-43
7.79753e-43
8.93261e-43
1.50775e-42
2.09553e-41
7.99078e-40
2.25767e-38
5.61871e-37
1.25022e-35
2.49459e-34
8.61162e-33
1.61185e-31
-4.89841e-29
-7.5466e-27
-2.31332e-25
-3.63918e-24
-4.28935e-23
-4.19794e-22
-3.5538e-21
-2.65798e-20
-1.78392e-19
-1.08989e-18
-6.13798e-18
-3.21245e-17
-1.56578e-16
-7.09135e-16
-2.97382e-15
-1.15075e-14
-4.09787e-14
-1.34095e-13
-4.02517e-13
-1.10387e-12
-2.02289e-52
-3.43214e-54
-3.26197e-55
-6.53633e-55
-4.55615e-56
-2.1106e-57
9.71248e-58
4.39045e-52
8.43662e-48
3.9763e-46
3.7012e-45
1.3715e-44
3.03145e-44
5.14599e-44
7.07889e-44
9.50065e-44
2.79551e-43
6.94745e-42
2.01773e-40
5.66461e-39
1.44504e-37
3.31654e-36
6.94507e-35
1.34619e-33
2.57895e-32
6.94999e-31
1.01733e-29
-4.58529e-28
-4.65411e-26
-1.1381e-24
-1.76626e-23
-2.12113e-22
-2.10595e-21
-1.79165e-20
-1.34305e-19
-9.08144e-19
-5.63503e-18
-3.22399e-17
-1.69592e-16
-8.16548e-16
-3.61511e-15
-1.47132e-14
-5.50093e-14
-1.88145e-13
-5.83317e-13
-1.48446e-61
-1.83263e-60
-6.84642e-60
-9.27284e-61
-5.01715e-62
2.49291e-62
3.21437e-59
7.15861e-55
1.55276e-49
1.62361e-47
2.18619e-46
9.35857e-46
2.07554e-45
3.24926e-45
4.45882e-45
6.94821e-45
5.30475e-44
1.69673e-42
5.18799e-41
1.46446e-39
3.79717e-38
8.9385e-37
1.91632e-35
3.80789e-34
7.13214e-33
1.26576e-31
2.20722e-30
3.51117e-29
6.50601e-28
1.50568e-27
-2.42063e-25
-6.12672e-24
-9.27704e-23
-1.0507e-21
-9.7859e-21
-7.99803e-20
-6.08294e-19
-4.36776e-18
-2.85994e-17
-1.65789e-16
-8.76848e-16
-4.34752e-15
-1.99955e-14
-8.29408e-14
-3.01599e-13
-3.21044e-62
-4.29925e-61
-1.881e-60
-1.01496e-60
-5.82748e-62
-1.93239e-63
9.23241e-61
1.54887e-56
5.32863e-51
7.93345e-49
1.25327e-47
5.76746e-47
1.30668e-46
2.04727e-46
2.87915e-46
6.38025e-46
1.29027e-44
4.15067e-43
1.21631e-41
3.38478e-40
8.82063e-39
2.1135e-37
4.6291e-36
9.39792e-35
1.80391e-33
3.30636e-32
5.77893e-31
9.59984e-30
1.51287e-28
2.36204e-27
3.5013e-26
4.32262e-25
4.6768e-24
5.29268e-23
6.61518e-22
7.53741e-21
6.60081e-20
4.18886e-19
1.91272e-18
5.78173e-18
6.39615e-19
-2.26617e-16
-3.06832e-15
-2.56246e-14
-1.34255e-13
-3.28418e-63
-4.79001e-62
-2.63481e-61
-4.81546e-61
-2.6117e-62
-9.32305e-64
9.81545e-63
8.69707e-59
6.56598e-53
1.99597e-50
4.31778e-49
2.32622e-48
5.67646e-48
9.40647e-48
1.52224e-47
7.95866e-47
2.77726e-45
8.89127e-44
2.61702e-42
7.25837e-41
1.89678e-39
4.61097e-38
1.03006e-36
2.1283e-35
4.14837e-34
7.75338e-33
1.39441e-31
2.39325e-30
3.88156e-29
5.97456e-28
8.97375e-27
1.37414e-25
2.11323e-24
3.12697e-23
4.50166e-22
6.02557e-21
6.90434e-20
6.55456e-19
5.33344e-18
3.86681e-17
2.514e-16
1.30979e-15
5.02059e-15
1.46212e-14
-1.94755e-14
-8.58134e-69
-4.86572e-68
-1.51675e-68
-5.38059e-70
4.29844e-69
2.62267e-67
8.88849e-65
3.02742e-61
5.42561e-55
4.4904e-52
1.34554e-50
8.44765e-50
2.21383e-49
3.94786e-49
8.42787e-49
1.311e-47
5.16819e-46
1.6899e-44
5.04874e-43
1.40205e-41
3.67575e-40
9.0524e-39
2.06373e-37
4.34493e-36
8.58098e-35
1.6272e-33
3.00585e-32
5.35602e-31
8.93656e-30
1.38078e-28
2.06152e-27
3.21295e-26
5.2277e-25
8.07655e-24
1.15553e-22
1.63235e-21
2.29943e-20
3.0005e-19
3.40951e-18
3.2437e-17
2.48186e-16
1.54775e-15
7.85319e-15
3.18158e-14
1.00638e-13
-1.88119e-69
-1.38741e-68
-1.91502e-68
-6.26192e-70
3.50751e-68
1.95573e-66
2.12521e-65
1.50447e-63
1.23282e-57
6.45026e-54
2.5892e-52
1.90877e-51
5.62042e-51
1.21715e-50
5.71581e-50
2.13279e-48
8.28631e-47
2.79336e-45
8.54356e-44
2.40244e-42
6.35843e-41
1.58971e-39
3.70417e-38
7.95314e-37
1.58694e-35
3.03334e-34
5.73776e-33
1.06894e-31
1.85125e-30
2.84448e-29
4.06093e-28
6.27746e-27
1.18188e-25
2.1949e-24
3.19318e-23
3.95759e-22
5.10538e-21
7.45156e-20
1.19611e-18
1.77461e-17
1.92837e-16
1.4471e-15
7.96318e-15
3.46215e-14
1.24615e-13
-1.88041e-70
-1.7631e-69
-5.29439e-69
-1.39188e-70
6.06889e-68
5.97838e-66
1.15049e-64
1.55054e-63
1.39317e-60
3.39718e-56
2.0948e-54
2.04933e-53
8.11777e-53
3.37214e-52
7.02514e-51
3.13235e-49
1.18477e-47
4.07723e-46
1.26834e-44
3.62052e-43
9.70739e-42
2.4684e-40
5.88356e-39
1.28939e-37
2.59793e-36
4.98503e-35
9.61543e-34
1.88013e-32
3.41235e-31
5.22566e-30
6.98951e-29
1.0158e-27
2.25104e-26
5.8682e-25
9.92529e-24
1.0875e-22
1.05278e-21
1.32117e-20
2.52917e-19
5.92511e-18
1.01278e-16
1.05025e-15
7.04403e-15
3.35955e-14
1.24242e-13
-4.98888e-75
-1.63673e-74
-3.09637e-76
3.34137e-72
4.03115e-68
6.69293e-66
1.70866e-64
2.69555e-63
8.62453e-61
1.9467e-59
4.69271e-58
2.04198e-56
5.47837e-55
2.06147e-53
1.04926e-51
4.18152e-50
1.5583e-48
5.34409e-47
1.66973e-45
4.81706e-44
1.30787e-42
3.38213e-41
8.23426e-40
1.84016e-38
3.74756e-37
7.21964e-36
1.41448e-34
2.89258e-33
5.51335e-32
8.48516e-31
1.072e-29
1.4489e-28
3.84968e-27
1.54134e-25
3.24911e-24
3.48514e-23
2.42245e-22
1.79367e-21
3.12619e-20
1.19603e-18
3.43581e-17
5.24603e-16
4.65846e-15
2.70871e-14
1.1298e-13
-8.28394e-76
-1.82616e-75
-3.1375e-77
5.14849e-76
2.60371e-69
1.53422e-66
8.15096e-65
6.89523e-64
8.31197e-62
2.71379e-60
2.51589e-59
5.87519e-58
4.39348e-56
2.81593e-54
1.28708e-52
5.16092e-51
1.90176e-49
6.38101e-48
1.98097e-46
5.72744e-45
1.56677e-43
4.10446e-42
1.01622e-40
2.31088e-39
4.77462e-38
9.29733e-37
1.84951e-35
3.90982e-34
7.75564e-33
1.21073e-31
1.48889e-30
1.91977e-29
6.03975e-28
3.36995e-26
8.4597e-25
9.60628e-24
6.12763e-23
2.55363e-22
2.06106e-21
1.37706e-19
7.53763e-18
1.73418e-16
2.09928e-15
1.56877e-14
7.98058e-14
-6.74417e-77
-1.70814e-76
-2.64908e-78
9.76549e-78
4.70382e-73
1.10301e-67
1.20499e-65
1.23334e-64
3.9459e-64
2.44464e-62
1.33871e-60
1.10514e-58
5.83317e-57
2.80026e-55
1.34858e-53
5.77341e-52
2.09867e-50
6.91095e-49
2.12884e-47
6.14411e-46
1.68433e-44
4.43871e-43
1.11001e-41
2.56335e-40
5.41121e-39
1.07964e-37
2.19373e-36
4.71803e-35
9.54831e-34
1.52118e-32
1.89024e-31
2.42385e-30
7.91244e-29
4.68217e-27
1.19165e-25
1.40956e-24
9.50247e-24
3.62291e-23
1.0267e-22
6.84018e-21
1.00142e-18
3.69662e-17
6.14464e-16
5.97827e-15
3.84355e-14
-2.31265e-79
-1.62731e-81
1.36432e-80
2.83604e-76
6.02721e-73
7.06858e-69
4.83009e-67
5.62158e-66
4.10653e-65
4.23751e-63
2.16647e-61
9.90629e-60
5.09952e-58
2.63929e-56
1.32537e-54
5.64134e-53
2.03293e-51
6.6546e-50
2.0476e-48
5.93102e-47
1.62873e-45
4.28604e-44
1.0746e-42
2.51978e-41
5.48437e-40
1.13857e-38
2.38856e-37
5.16565e-36
1.03881e-34
1.67848e-33
2.16549e-32
2.84718e-31
7.70001e-30
3.77588e-28
8.75187e-27
9.69844e-26
6.25944e-25
3.14336e-24
6.71156e-24
7.29292e-23
5.81365e-20
4.42444e-18
1.08934e-16
1.40706e-15
1.15191e-14
-5.68607e-80
-3.56481e-82
2.98117e-80
1.33267e-75
1.27355e-72
4.73041e-70
3.44195e-68
4.35578e-67
3.14836e-66
2.51108e-64
1.64164e-62
9.92306e-61
5.24118e-59
2.52335e-57
1.15149e-55
4.74578e-54
1.70909e-52
5.58673e-51
1.72901e-49
5.07842e-48
1.40583e-46
3.68228e-45
9.20297e-44
2.19409e-42
4.95733e-41
1.07749e-39
2.3452e-38
5.08915e-37
9.9402e-36
1.57911e-34
2.09301e-33
2.87801e-32
6.52171e-31
2.32371e-29
4.87465e-28
4.9377e-27
2.82905e-26
1.36087e-25
4.62729e-25
3.6014e-25
7.29776e-22
2.09162e-19
9.76903e-18
1.86852e-16
2.01546e-15
-6.7643e-81
-3.80257e-83
5.5647e-81
1.92078e-75
1.34041e-72
3.92008e-71
9.97358e-70
1.37185e-68
1.75646e-67
1.72375e-65
1.31814e-63
7.77751e-62
3.8633e-60
1.81746e-58
8.27909e-57
3.4044e-55
1.22767e-53
4.0371e-52
1.26171e-50
3.77586e-49
1.06319e-47
2.78538e-46
6.92394e-45
1.67894e-43
3.95506e-42
8.949e-41
1.98365e-39
4.25206e-38
7.92188e-37
1.19487e-35
1.59165e-34
2.38083e-33
5.13075e-32
1.33473e-30
2.26106e-29
2.05759e-28
1.09392e-27
4.50482e-27
1.15318e-26
1.13748e-25
2.20852e-23
2.9026e-21
3.25392e-19
1.17525e-17
1.91614e-16
-1.07347e-82
-5.44311e-85
1.09386e-82
9.0503e-76
3.46845e-73
6.6415e-72
2.81536e-71
4.37358e-71
9.99119e-69
9.40738e-67
7.5559e-65
4.7237e-63
2.46881e-61
1.14722e-59
4.90064e-58
1.95743e-56
7.22694e-55
2.44283e-53
7.7145e-52
2.34246e-50
6.77117e-49
1.79946e-47
4.45137e-46
1.09298e-44
2.72203e-43
6.46515e-42
1.3941e-40
2.72373e-39
4.56442e-38
6.45955e-37
9.94375e-36
2.0553e-34
4.20776e-33
7.85953e-32
9.98467e-31
7.33632e-30
3.40073e-29
9.62501e-29
1.8519e-28
5.15808e-26
1.05752e-23
3.4172e-22
7.39751e-21
3.04387e-19
8.67721e-18
-4.30855e-83
-1.96414e-85
6.28009e-86
8.94152e-79
7.35433e-75
3.71533e-73
2.16594e-72
4.80161e-72
5.26084e-70
5.05605e-68
3.7256e-66
2.26349e-64
1.19781e-62
5.55224e-61
2.32256e-59
9.15064e-58
3.41111e-56
1.16622e-54
3.68368e-53
1.13141e-51
3.40917e-50
9.43779e-49
2.33448e-47
5.68212e-46
1.52785e-44
3.99304e-43
7.91617e-42
1.17187e-40
1.46259e-39
2.14789e-38
8.74245e-37
3.1232e-35
4.64143e-34
4.62839e-33
3.46343e-32
1.66186e-31
5.68367e-31
1.26969e-30
2.00355e-30
3.93039e-27
2.37055e-24
9.0104e-23
1.45622e-21
1.70474e-20
2.59258e-19
-6.69098e-84
-2.78536e-86
6.74887e-86
1.29544e-79
2.20435e-77
2.452e-76
4.55315e-76
1.92992e-73
1.96658e-71
1.96827e-69
1.56278e-67
9.34317e-66
4.6381e-64
2.05363e-62
8.63863e-61
3.45681e-59
1.26551e-57
4.18306e-56
1.30458e-54
4.10555e-53
1.32143e-51
4.01108e-50
1.05209e-48
2.44175e-47
6.36472e-46
1.75569e-44
2.92223e-43
2.74537e-42
2.23753e-41
1.05134e-39
1.33171e-37
4.39171e-36
3.9707e-35
1.59955e-34
4.02771e-34
7.72073e-34
1.13928e-33
1.6151e-33
8.08376e-33
5.46756e-29
2.21988e-25
1.35713e-23
2.77887e-22
3.27261e-21
3.08978e-20
-2.56622e-92
-1.79005e-94
1.26164e-86
2.00666e-80
4.08555e-78
5.57452e-77
2.03894e-76
8.38984e-75
7.50883e-73
6.47346e-71
4.77608e-69
2.74862e-67
1.33649e-65
5.78053e-64
2.37832e-62
9.28313e-61
3.27341e-59
1.06466e-57
3.57488e-56
1.31383e-54
4.63826e-53
1.46547e-51
4.54751e-50
1.04229e-48
1.56841e-47
1.93094e-46
2.15878e-45
2.28338e-44
3.96448e-43
1.56094e-40
8.33578e-39
9.95813e-38
4.42287e-37
1.00265e-36
1.59492e-36
1.38125e-36
1.50108e-36
1.06562e-35
9.51867e-34
1.13529e-30
2.16203e-26
1.57682e-24
3.66614e-23
4.79495e-22
4.637e-21
-1.21549e-91
-5.10462e-94
1.17396e-86
1.42168e-81
9.76257e-80
5.64307e-79
8.54956e-79
3.0109e-76
2.53942e-74
1.62244e-72
9.38899e-71
4.86225e-69
2.37396e-67
1.10447e-65
4.80053e-64
1.84425e-62
6.09156e-61
2.0015e-59
8.76277e-58
5.10625e-56
2.26839e-54
4.72146e-53
5.73462e-52
6.33576e-51
9.33015e-50
1.85379e-48
3.71999e-47
8.19054e-46
3.42509e-44
2.67027e-42
9.92463e-41
1.14696e-39
4.81417e-39
1.00004e-38
1.38831e-38
1.65418e-38
2.62765e-38
7.27559e-37
6.03783e-35
5.80702e-32
1.64168e-27
1.63937e-25
4.3232e-24
6.05576e-23
5.9058e-22
-3.0932e-91
-1.19438e-93
3.0285e-92
7.5517e-90
7.89164e-89
1.1802e-82
5.77513e-80
4.22215e-78
3.08611e-76
2.04336e-74
1.21098e-72
6.59148e-71
3.41969e-69
1.67673e-67
6.82152e-66
2.20139e-64
7.89189e-63
5.72855e-61
4.24602e-59
1.25825e-57
1.8812e-56
2.16851e-55
2.88086e-54
5.2938e-53
1.0983e-51
2.34003e-50
1.62036e-48
1.01546e-46
4.79837e-45
1.84042e-43
1.7336e-42
5.63261e-42
9.0301e-42
9.96964e-42
9.38665e-42
1.31649e-41
2.43414e-40
1.87164e-38
1.38023e-36
1.64678e-33
9.32725e-29
1.44335e-26
4.45007e-25
6.80544e-24
6.89681e-23
-1.36736e-91
-5.46424e-94
6.2582e-92
2.67703e-89
3.56343e-88
4.19787e-84
4.28434e-82
3.70618e-80
2.82538e-78
1.90843e-76
1.17013e-74
6.79086e-73
3.58697e-71
1.51538e-69
5.41399e-68
2.58196e-66
2.44378e-64
1.4183e-62
3.51598e-61
5.07815e-60
6.37472e-59
1.10673e-57
2.99519e-56
6.82294e-55
1.25398e-53
5.32719e-52
3.52824e-49
2.12747e-47
1.43082e-46
3.95027e-46
5.59501e-46
4.24375e-46
5.36327e-47
7.47161e-47
2.8171e-45
7.65953e-44
1.27952e-42
1.50031e-40
2.09202e-38
1.25341e-35
3.45376e-30
1.04581e-27
3.87228e-26
6.64581e-25
7.26298e-24
-3.91649e-92
-1.86293e-94
4.18697e-92
3.00598e-89
5.23964e-88
2.38375e-86
2.51332e-84
2.21593e-82
1.71532e-80
1.21873e-78
8.0169e-77
4.43079e-75
1.96989e-73
8.8271e-72
6.22099e-70
5.25659e-68
2.50781e-66
5.97756e-65
8.9802e-64
1.35017e-62
3.50919e-61
1.08391e-59
1.77507e-58
1.84002e-57
1.04177e-54
1.59346e-52
1.41828e-51
4.75211e-51
6.70379e-51
4.40494e-51
1.73824e-52
1.84339e-52
2.8205e-50
3.05264e-48
6.89455e-47
7.44972e-46
9.78483e-44
7.93694e-42
6.51487e-40
2.39674e-37
5.49466e-32
6.21869e-29
2.86392e-27
5.62045e-26
6.70125e-25
-5.58593e-93
-1.06278e-94
8.33943e-93
8.91079e-90
9.92133e-89
8.12791e-89
8.98882e-87
8.18833e-85
6.66554e-83
4.82373e-81
2.98455e-79
1.57946e-77
8.47712e-76
7.23801e-74
6.63818e-72
2.69014e-70
5.3258e-69
8.23114e-68
1.86098e-66
7.69039e-65
2.04753e-63
2.70626e-62
4.69792e-61
2.16509e-58
8.7571e-57
6.20632e-56
1.32906e-55
1.48033e-55
6.29423e-56
9.16259e-57
7.13392e-56
1.05128e-53
4.51422e-52
1.0848e-50
7.8638e-49
4.29936e-47
4.95049e-46
1.8718e-43
9.2828e-41
2.94662e-38
1.62453e-34
2.83838e-30
1.75927e-28
4.09781e-27
5.40095e-26
-1.06436e-95
-1.4761e-94
-3.54967e-94
-3.28815e-96
5.06531e-98
1.51762e-91
1.68571e-89
1.61541e-87
1.30185e-85
9.22439e-84
6.27727e-82
4.52998e-80
4.27988e-78
3.21895e-76
1.14083e-74
2.41982e-73
4.81334e-72
1.46563e-70
6.72024e-69
1.81839e-67
2.66848e-66
1.01079e-64
2.49712e-62
5.54474e-61
2.31908e-60
3.37369e-60
2.12645e-60
1.08933e-62
8.17579e-62
2.29055e-59
1.92965e-57
3.93395e-56
3.92141e-55
3.99111e-54
7.71236e-53
2.8109e-50
1.11791e-47
4.19773e-45
1.45926e-42
4.24357e-40
7.74978e-37
8.86114e-32
8.50442e-30
2.48036e-28
3.70403e-27
-1.43364e-96
-2.23603e-95
-6.32015e-95
-5.09666e-97
-2.45699e-99
1.3958e-94
1.44252e-92
1.19702e-90
1.32629e-88
1.22957e-86
8.14973e-85
8.89033e-83
5.66543e-81
1.98868e-79
5.17256e-78
1.33745e-76
5.17771e-75
3.04304e-73
9.48091e-72
1.41974e-70
3.01504e-69
6.6721e-67
1.99104e-65
9.96171e-65
1.56564e-64
1.09928e-64
1.30116e-67
1.41999e-64
9.38e-63
5.76755e-62
1.02995e-61
1.16772e-61
1.39341e-61
7.70248e-60
4.53813e-57
2.53767e-54
1.38206e-51
7.44849e-49
3.84866e-46
1.67825e-43
1.04469e-38
1.51974e-33
3.02806e-31
1.17793e-29
2.05452e-28
-1.81119e-99
-3.97266e-98
-1.51938e-97
-8.81848e-100
-3.13994e-102
1.35617e-98
6.1363e-96
4.93114e-94
2.57897e-92
4.80536e-90
6.96088e-88
3.0455e-86
7.49649e-85
2.73301e-83
1.38675e-81
8.20147e-80
5.47853e-78
1.82239e-76
2.91051e-75
4.9051e-74
8.41905e-72
3.751e-70
2.55685e-69
4.64113e-69
3.72735e-69
8.29171e-72
7.32138e-69
1.22535e-67
3.76756e-67
3.55334e-67
1.37154e-65
2.18476e-64
3.71073e-64
8.28033e-62
4.35084e-59
2.27908e-56
1.22571e-53
6.79976e-51
3.89906e-48
2.78644e-45
2.7389e-42
3.84192e-36
7.39553e-33
4.14396e-31
8.71578e-30
-2.80222e-106
-6.24931e-105
-1.49571e-104
-1.21191e-105
8.1384e-106
7.41321e-102
5.20647e-100
1.91971e-98
5.6561e-97
3.86641e-95
8.68459e-93
7.06061e-91
5.94022e-89
3.36314e-87
2.33618e-85
2.12248e-83
7.73792e-82
1.33809e-80
2.55194e-79
4.91374e-77
3.03329e-75
2.59318e-74
5.18789e-74
4.4098e-74
3.00511e-78
1.67989e-86
4.24549e-92
4.15809e-78
3.39695e-72
6.08495e-70
6.76029e-69
9.16184e-69
1.24228e-66
7.61898e-64
4.75625e-61
3.05428e-58
2.06234e-55
1.47903e-52
1.13129e-49
9.37236e-47
9.44617e-44
3.41111e-40
1.03866e-34
9.83437e-33
2.68175e-31
-5.16819e-107
-9.48883e-106
-2.56626e-105
-1.10353e-105
-2.7874e-110
3.22284e-107
2.6634e-105
3.45918e-103
2.84277e-101
2.82192e-99
2.04378e-97
1.91126e-95
1.53855e-93
1.00438e-91
6.11712e-90
2.27086e-88
7.05228e-87
3.39468e-85
4.6258e-83
4.24951e-81
5.89238e-80
1.58621e-79
1.58034e-79
5.28708e-84
9.58608e-102
1.58233e-95
2.79412e-92
4.97209e-89
8.28825e-86
1.34896e-82
2.02725e-79
2.87858e-76
3.81474e-73
4.72647e-70
6.04736e-67
7.65638e-64
9.70966e-61
1.2614e-57
1.71966e-54
2.52466e-51
4.10529e-48
9.40897e-44
4.98629e-37
1.2617e-34
5.82227e-33
-2.44259e-111
-2.94832e-110
-1.49692e-109
-3.87225e-109
0
2.68589e-113
5.44911e-111
4.51079e-109
3.70236e-107
3.9735e-105
3.61711e-103
5.12429e-101
4.29139e-99
1.76691e-97
8.77147e-96
6.83418e-94
4.51571e-92
6.96953e-90
5.87777e-88
5.31919e-87
9.12055e-87
3.44361e-88
1.76856e-94
4.00788e-107
5.28786e-102
1.94909e-98
5.67375e-95
1.41741e-91
3.09577e-88
6.01647e-85
1.05661e-81
1.69924e-78
2.53087e-75
3.55208e-72
4.75542e-69
6.14531e-66
7.72288e-63
9.43178e-60
1.11909e-56
1.48723e-53
2.31787e-50
4.25629e-47
4.32572e-43
4.51501e-37
1.40588e-34
-7.75152e-117
-5.54674e-116
-2.13497e-115
-4.17324e-115
1.21354e-147
1.18865e-138
2.59344e-135
1.55165e-132
8.88862e-127
6.02151e-119
7.82452e-112
1.28812e-109
2.91529e-107
3.86502e-105
2.11996e-103
2.13325e-101
7.49905e-99
2.72253e-97
9.74515e-97
3.27237e-100
1.72415e-120
3.24561e-124
4.19741e-114
5.05301e-110
2.47834e-104
1.17625e-100
4.70115e-97
1.58512e-93
4.61324e-90
1.18139e-86
2.66639e-83
5.37883e-80
9.64603e-77
1.53693e-73
2.24872e-70
3.14661e-67
4.27941e-64
5.73872e-61
7.70456e-58
1.05314e-54
1.49306e-51
2.23878e-48
3.08394e-44
1.29755e-38
3.00866e-36
-1.75814e-123
-3.34692e-123
-4.84367e-123
-2.71287e-123
-1.37947e-145
1.87023e-145
4.6815e-135
1.62222e-132
1.3106e-131
3.9581e-133
6.31793e-137
5.77062e-141
6.2132e-145
7.91689e-161
-2.92902e-142
0
2.98668e-116
-3.82837e-136
-8.2596e-123
-1.22761e-122
0
2.28737e-124
1.60417e-122
4.69903e-119
1.2648e-114
2.98101e-108
2.07987e-104
1.15389e-100
5.49111e-97
2.28895e-93
8.50706e-90
2.86266e-86
8.84228e-83
2.53857e-79
6.85301e-76
1.75873e-72
4.33628e-69
1.03776e-65
2.43534e-62
5.66163e-59
1.31761e-55
3.10341e-52
4.41631e-47
3.35628e-41
1.43279e-38
-9.85302e-135
-7.3153e-135
-1.25562e-134
-1.64355e-134
1.82122e-147
1.70139e-147
4.42905e-148
1.03984e-140
1.07598e-134
2.5092e-132
9.19011e-132
6.51475e-135
4.61291e-144
1.20471e-147
-1.24255e-141
2.45806e-126
1.34507e-123
1.63255e-122
-2.53297e-122
-8.58479e-122
1.05693e-123
3.70251e-122
5.22449e-127
5.04561e-130
5.70012e-125
-3.11149e-119
4.05353e-115
8.65921e-111
1.52536e-106
2.57489e-102
2.81806e-98
6.88754e-97
-2.79477e-96
-1.36568e-92
-5.88491e-89
-2.27828e-85
-8.06132e-82
-2.646e-78
-8.16458e-75
-2.39975e-71
-6.79803e-68
-1.87806e-64
-5.11539e-61
1.41964e-47
4.59937e-42
1.69182e-150
6.25577e-151
1.71417e-150
7.69278e-150
4.39622e-149
3.57032e-148
2.13151e-147
5.74693e-147
6.23207e-140
1.26847e-135
7.11258e-133
1.15724e-136
-4.58538e-148
1.79262e-147
-2.67727e-141
6.10363e-128
1.67935e-124
3.36113e-123
1.37245e-126
6.92462e-131
2.32961e-123
1.22249e-121
1.0023e-126
-8.9175e-146
-2.28145e-129
-3.87728e-136
-2.54101e-131
-2.49792e-126
6.15828e-111
2.59865e-103
2.6337e-98
6.47227e-97
1.07488e-109
6.39553e-109
2.98982e-106
2.03566e-102
2.56544e-98
1.38585e-95
6.95019e-92
5.0635e-88
8.62639e-86
2.11936e-87
0
0
-2.4607e-75
)
;

boundaryField
{
    leftWall
    {
        type            zeroGradient;
    }
    rightWall
    {
        type            zeroGradient;
    }
    lowerWall
    {
        type            zeroGradient;
    }
    atmosphere
    {
        type            inletOutlet;
        inletValue      uniform 0;
        value           uniform 0;
    }
    defaultFaces
    {
        type            empty;
    }
    procBoundary2to0
    {
        type            processor;
        value           nonuniform List<scalar> 
46
(
-6.04229e-17
-1.24267e-16
-2.57861e-16
-5.40118e-16
-1.1428e-15
-2.45012e-15
-5.36643e-15
-1.21799e-14
-2.90889e-14
-7.34748e-14
-1.93661e-13
-5.18083e-13
-1.36456e-12
-3.45194e-12
-8.24822e-12
-1.84364e-11
-3.83393e-11
-7.38293e-11
-1.30804e-10
-2.11366e-10
-3.08999e-10
-4.06472e-10
-4.79893e-10
-5.08153e-10
-4.82656e-10
-5.52267e-26
-2.42639e-25
-1.15388e-24
-4.7525e-24
-1.69697e-23
-5.2736e-23
-1.45821e-22
-3.73475e-22
-9.27748e-22
-2.3106e-21
-5.80783e-21
-1.45026e-20
-3.52444e-20
-8.22173e-20
-1.83508e-19
-3.9352e-19
-8.18008e-19
-1.66694e-18
-3.37117e-18
-6.84479e-18
-6.84479e-18
)
;
    }
    procBoundary2to3
    {
        type            processor;
        value           nonuniform List<scalar> 
43
(
-3.53996e-10
-2.71791e-10
-1.90548e-10
-1.2427e-10
-7.65687e-11
-4.52111e-11
-2.59398e-11
-1.46636e-11
-8.27876e-12
-4.72397e-12
-2.74341e-12
-1.61643e-12
-9.4581e-13
-5.16241e-13
-2.0737e-13
4.83665e-14
3.35418e-13
3.80177e-13
3.68436e-13
3.02837e-13
1.79768e-13
6.78464e-14
1.50525e-14
1.92537e-15
1.36529e-16
5.10582e-18
3.03568e-19
4.44519e-20
5.59672e-21
6.26669e-22
6.66996e-23
6.38926e-24
5.31195e-25
3.74306e-26
2.15158e-27
9.65419e-29
3.37866e-30
1.19162e-31
7.27779e-33
9.45045e-35
5.438e-37
5.97013e-40
1.30411e-55
)
;
    }
}


// ************************************************************************* //
