/*--------------------------------*- C++ -*----------------------------------*\
| =========                 |                                                 |
| \\      /  F ield         | OpenFOAM: The Open Source CFD Toolbox           |
|  \\    /   O peration     | Version:  5.0                                   |
|   \\  /    A nd           | Web:      www.OpenFOAM.org                      |
|    \\/     M anipulation  |                                                 |
\*---------------------------------------------------------------------------*/
FoamFile
{
    version     2.0;
    format      ascii;
    class       volScalarField;
    location    "0.9";
    object      epsilon;
}
// * * * * * * * * * * * * * * * * * * * * * * * * * * * * * * * * * * * * * //

dimensions      [0 2 -3 0 0 0 0];

internalField   nonuniform List<scalar> 
1915
(
0.114
0.120064
0.126761
0.134179
0.142419
0.1516
0.161858
0.173355
0.186279
0.200852
0.217343
0.236081
0.257469
0.282016
0.310358
0.343293
0.381807
0.427096
0.480555
0.543728
0.618191
0.705354
0.806197
0.920996
1.04911
0.2346
0.114264
0.0897255
0.0801103
0.0754923
0.0732517
0.0723888
0.0724362
0.0731468
0.07438
0.0760521
0.0781135
0.0805355
0.0833047
0.0864188
0.0898843
0.0937161
0.0979364
0.102575
0.10767
0.113268
0.119425
0.126207
0.13369
0.141965
0.151135
0.161322
0.172662
0.185319
0.199483
0.215377
0.233273
0.253499
0.276458
0.302644
0.332668
0.367274
0.407352
0.453942
0.508212
0.571392
0.644673
0.729059
0.825187
0.933163
0.233475
0.113194
0.0886283
0.078988
0.0743462
0.0720827
0.0711978
0.0712251
0.0719188
0.0731393
0.0748045
0.0768658
0.0792961
0.0820834
0.0852265
0.0887329
0.092618
0.0969043
0.101621
0.106805
0.1125
0.118758
0.125641
0.133217
0.141569
0.15079
0.160985
0.172277
0.184807
0.19874
0.214265
0.231612
0.25105
0.272908
0.297582
0.325551
0.357394
0.393803
0.435584
0.483652
0.539008
0.602681
0.675652
0.758745
0.852513
0.232459
0.112085
0.0875104
0.0778644
0.0732118
0.0709333
0.0700311
0.0700402
0.0707164
0.0719216
0.0735755
0.0756313
0.0780639
0.0808625
0.084027
0.0875661
0.0914964
0.0958409
0.100629
0.105897
0.111689
0.118052
0.125047
0.132737
0.141198
0.150516
0.160785
0.172117
0.184636
0.198486
0.213834
0.230873
0.249834
0.27099
0.294665
0.32125
0.351212
0.385105
0.42358
0.467387
0.517365
0.574424
0.639505
0.713518
0.797271
0.231353
0.110918
0.0863737
0.0767427
0.0720915
0.0698058
0.068891
0.0688844
0.0695437
0.0707327
0.0723724
0.0744179
0.0768455
0.0796465
0.0828232
0.0863863
0.0903529
0.0947468
0.0995986
0.104945
0.110828
0.117298
0.12441
0.132228
0.140822
0.150272
0.160668
0.17211
0.184711
0.198602
0.213929
0.230863
0.249602
0.27038
0.293471
0.319202
0.347963
0.380213
0.416497
0.457447
0.50379
0.556344
0.615997
0.683684
0.760339
0.23
0.109686
0.085219
0.075624
0.0709864
0.068701
0.0677779
0.0677579
0.0684009
0.0695726
0.0711959
0.0732273
0.075645
0.078442
0.0816222
0.0851981
0.0891895
0.0936226
0.0985287
0.103945
0.109914
0.116487
0.123718
0.13167
0.140412
0.150021
0.160582
0.172189
0.184948
0.198978
0.214412
0.231405
0.250131
0.270795
0.293635
0.318933
0.347021
0.378294
0.413218
0.452342
0.496306
0.545847
0.601797
0.665071
0.736638
0.228389
0.108398
0.0840524
0.0745129
0.0698998
0.0676212
0.0666939
0.0666625
0.0672894
0.0684427
0.0700469
0.0720604
0.0744631
0.0772497
0.0804259
0.0840061
0.088012
0.0924716
0.0974191
0.102894
0.108941
0.11561
0.122957
0.131045
0.139943
0.149726
0.160479
0.172291
0.185264
0.19951
0.215154
0.232336
0.251216
0.271976
0.29483
0.320025
0.347852
0.378656
0.412845
0.450902
0.493395
0.54099
0.594451
0.65464
0.722502
0.22655
0.107066
0.0828812
0.0734145
0.0688356
0.0665698
0.0656417
0.0656003
0.0662113
0.0673448
0.0689273
0.0709189
0.0733012
0.0760708
0.0792352
0.0828107
0.086821
0.0912962
0.0962727
0.101792
0.107903
0.114657
0.122111
0.130331
0.139385
0.149351
0.16031
0.172354
0.185581
0.200099
0.216028
0.233498
0.25266
0.273681
0.296753
0.3221
0.349981
0.380701
0.414621
0.45217
0.493852
0.540261
0.592087
0.650119
0.715228
0.224518
0.105703
0.0817134
0.0723345
0.0677983
0.0655502
0.0646241
0.0645741
0.0651688
0.0662809
0.0678388
0.0698044
0.072161
0.0749068
0.0780513
0.0816125
0.0856164
0.0900952
0.0950877
0.100638
0.106797
0.11362
0.121168
0.129509
0.138712
0.148857
0.160027
0.172315
0.185818
0.200644
0.216907
0.234737
0.254273
0.275674
0.299116
0.324803
0.35297
0.383889
0.417882
0.455326
0.496668
0.542431
0.593224
0.649743
0.712762
0.222327
0.104322
0.080557
0.0712789
0.0667925
0.0645663
0.0636445
0.0635864
0.0641643
0.0652532
0.0667835
0.0687188
0.0710441
0.0737593
0.0768753
0.0804124
0.0843983
0.0888678
0.0938619
0.0994279
0.105619
0.112493
0.120117
0.128559
0.137895
0.148207
0.159581
0.172111
0.185895
0.201043
0.217668
0.235897
0.255865
0.277722
0.301635
0.327791
0.356404
0.387719
0.422021
0.459642
0.500971
0.54646
0.596634
0.652088
0.71348
0.220015
0.102936
0.0794207
0.070254
0.0658232
0.0636223
0.0627063
0.0626404
0.0632006
0.0642642
0.0657637
0.0676643
0.0699525
0.0726297
0.0757087
0.0792113
0.0831673
0.0876135
0.0925934
0.0981571
0.104361
0.111266
0.118943
0.127464
0.136909
0.147365
0.158922
0.171677
0.185731
0.201195
0.218184
0.236823
0.257246
0.279597
0.304034
0.330732
0.359886
0.391717
0.426475
0.464451
0.505976
0.551435
0.601265
0.655957
0.716048
0.217615
0.101557
0.0783129
0.0692664
0.0648958
0.0627225
0.0618132
0.0617394
0.0622804
0.0633164
0.0647816
0.0666429
0.0688882
0.0715202
0.0745532
0.0780106
0.0819239
0.086332
0.0912808
0.0968228
0.103017
0.10993
0.117633
0.126204
0.135729
0.146297
0.158004
0.170952
0.185247
0.201002
0.218333
0.237366
0.258233
0.281076
0.306046
0.333306
0.363035
0.395431
0.430715
0.469135
0.510971
0.556538
0.60619
0.660315
0.719331
0.215161
0.100201
0.0772427
0.0683229
0.0640157
0.0618715
0.0609692
0.0608866
0.0614069
0.0624127
0.06384
0.0656572
0.0678534
0.0704327
0.0734106
0.0768117
0.0806693
0.0850239
0.0899236
0.0954232
0.101585
0.108477
0.116177
0.124765
0.134331
0.144971
0.156786
0.169881
0.18437
0.200367
0.217995
0.237378
0.258649
0.281945
0.307413
0.335206
0.36549
0.39844
0.43425
0.473127
0.515304
0.56103
0.610582
0.66425
0.722338
0.212686
0.0988785
0.0762187
0.0674303
0.0631884
0.061074
0.0601784
0.0600858
0.0605834
0.061556
0.0629416
0.0647097
0.0668508
0.0693698
0.0722832
0.075617
0.0794055
0.0836907
0.0885223
0.0939574
0.10006
0.106903
0.114565
0.123132
0.132698
0.143362
0.155231
0.168417
0.183036
0.19921
0.217065
0.236728
0.258331
0.282008
0.307901
0.336155
0.366922
0.400359
0.436631
0.475914
0.518391
0.564255
0.613709
0.666957
0.7242
0.210222
0.0976034
0.0752498
0.0665954
0.0624198
0.0603349
0.059445
0.0593407
0.0598132
0.0607496
0.0620894
0.0638036
0.0658832
0.0683344
0.0711741
0.0744293
0.0781351
0.0823346
0.0870789
0.0924267
0.0984444
0.105206
0.112794
0.121298
0.130815
0.141449
0.153312
0.16652
0.181194
0.197463
0.215454
0.2353
0.257135
0.281091
0.307301
0.335904
0.367039
0.400846
0.437467
0.477044
0.519721
0.565638
0.614934
0.667738
0.724159
0.207798
0.0963881
0.0743446
0.065825
0.0617155
0.0596591
0.0587733
0.0586554
0.0591
0.0599968
0.0612868
0.0629419
0.064954
0.0673297
0.0700867
0.0732521
0.0768618
0.0809595
0.0855972
0.0908344
0.0967391
0.103387
0.110863
0.11926
0.128676
0.139221
0.15101
0.164163
0.178808
0.195074
0.213096
0.233009
0.254948
0.279049
0.30544
0.334246
0.365597
0.399617
0.436427
0.476142
0.518867
0.5647
0.613724
0.666002
0.721573
0.205445
0.0952447
0.0735115
0.065126
0.0610812
0.0590516
0.0581679
0.0580337
0.0584476
0.0593013
0.0605373
0.0621282
0.0640668
0.0663598
0.069025
0.07209
0.0755905
0.0795706
0.0840824
0.0891861
0.0949504
0.101452
0.108777
0.11702
0.126282
0.136676
0.148319
0.161335
0.175855
0.192014
0.209949
0.229797
0.251696
0.275782
0.302185
0.331023
0.362409
0.396453
0.433256
0.472911
0.515492
0.56106
0.609652
0.661279
0.71592
0.203189
0.094185
0.0727588
0.0645048
0.0605223
0.0585173
0.0576331
0.0574799
0.0578599
0.0586669
0.0598446
0.0613666
0.0632257
0.0654289
0.067994
0.0709482
0.0743271
0.0781744
0.082542
0.0874899
0.0930868
0.0994099
0.106545
0.114588
0.123643
0.133821
0.145243
0.158037
0.172335
0.188274
0.205995
0.225637
0.247339
0.271237
0.29746
0.32613
0.357347
0.3912
0.427776
0.467146
0.509359
0.554447
0.602411
0.653221
0.706809
0.201059
0.0932205
0.0720943
0.0639678
0.0600446
0.0580611
0.0571734
0.0569982
0.057341
0.0580976
0.059213
0.0606612
0.0624353
0.0645421
0.0669991
0.069833
0.0730786
0.076779
0.0809851
0.0857563
0.0911604
0.097274
0.104183
0.111982
0.120775
0.130675
0.141803
0.154288
0.168264
0.183869
0.201245
0.220535
0.241876
0.265405
0.29125
0.319529
0.350348
0.383782
0.419891
0.458731
0.500333
0.544702
0.591814
0.641609
0.693985
0.199082
0.0923624
0.0715258
0.0635213
0.0596532
0.0576878
0.0567935
0.056593
0.0568951
0.0575977
0.0586467
0.0600166
0.0617005
0.0637049
0.0660466
0.0687514
0.0718532
0.0753938
0.0794228
0.0839981
0.0891859
0.0950614
0.101709
0.109222
0.117704
0.127266
0.138029
0.150122
0.163677
0.178836
0.195739
0.214529
0.235345
0.258322
0.283587
0.311255
0.341428
0.374193
0.409589
0.447645
0.488378
0.531776
0.577795
0.626354
0.677329
0.197286
0.0916221
0.0710611
0.0631715
0.0593537
0.0574025
0.0564979
0.0562687
0.0565267
0.0571718
0.0581506
0.059438
0.0610269
0.0629233
0.0651433
0.0677114
0.0706601
0.0740296
0.0778676
0.08223
0.0871808
0.0927928
0.0991479
0.106337
0.114462
0.123631
0.133963
0.145585
0.15863
0.173235
0.189542
0.207691
0.227822
0.250067
0.274553
0.301393
0.330686
0.362513
0.396936
0.433953
0.473558
0.515727
0.560404
0.607494
0.656861
0.1957
0.0910111
0.0707079
0.0629248
0.0591518
0.0572104
0.0562918
0.0560303
0.0562408
0.0568248
0.0577299
0.0589309
0.0604206
0.0622042
0.0642968
0.0667216
0.0695094
0.0726983
0.0763337
0.0804688
0.0851648
0.0904915
0.0965274
0.10336
0.111087
0.119815
0.129658
0.140739
0.15319
0.167144
0.182741
0.200119
0.219416
0.240762
0.264282
0.290087
0.318274
0.348921
0.382085
0.417801
0.456025
0.496712
0.539798
0.585184
0.632727
0.194356
0.0905418
0.0704747
0.062788
0.0590535
0.0571171
0.0561805
0.0558831
0.0560428
0.0565625
0.0573904
0.0585015
0.0598883
0.0615551
0.0635158
0.0657919
0.0684123
0.0714129
0.0748362
0.0787326
0.0831596
0.0881833
0.0938782
0.100328
0.107624
0.115869
0.125173
0.135655
0.147439
0.160658
0.175445
0.191936
0.210266
0.230562
0.252946
0.277527
0.304401
0.333642
0.365308
0.399429
0.436013
0.474976
0.516234
0.559685
0.60519
0.193293
0.0902283
0.0703709
0.0627689
0.0590656
0.0571291
0.0561703
0.0558335
0.055939
0.0563911
0.0571388
0.0581571
0.0594378
0.0609844
0.0628094
0.0649327
0.067381
0.0701874
0.0733918
0.0770408
0.0811882
0.0858957
0.0912328
0.097278
0.104118
0.111849
0.120575
0.130408
0.141469
0.153882
0.167777
0.183285
0.200534
0.21965
0.240751
0.263944
0.289322
0.316959
0.346911
0.37921
0.413861
0.450844
0.490052
0.531353
0.574615
0.192553
0.0900875
0.0704078
0.0628768
0.0591968
0.0572545
0.056269
0.0558889
0.0559369
0.0563185
0.0569831
0.0579058
0.0590778
0.0605016
0.0621882
0.0641557
0.0664285
0.0690371
0.0720179
0.0754138
0.0792746
0.0836571
0.0886255
0.0942523
0.100618
0.107812
0.115932
0.125083
0.135376
0.146932
0.159871
0.174319
0.190398
0.20823
0.227929
0.249598
0.273329
0.299195
0.327251
0.357531
0.390043
0.424769
0.461666
0.500621
0.541449
0.192194
0.0901408
0.0706001
0.0631237
0.0594576
0.0575031
0.0564862
0.0560588
0.0560458
0.0563538
0.0569328
0.0577574
0.0588185
0.0601175
0.0616639
0.0634738
0.0655693
0.0679779
0.0707329
0.0738731
0.0774439
0.0814968
0.0860907
0.0912916
0.0971734
0.103818
0.111314
0.11976
0.12926
0.139922
0.151863
0.165198
0.180045
0.196518
0.214725
0.234769
0.256736
0.280701
0.306718
0.334824
0.36503
0.397324
0.431667
0.467992
0.506205
0.19229
0.0904163
0.0709671
0.0635258
0.0598626
0.0578885
0.0568344
0.0563552
0.0562775
0.0565089
0.0569994
0.0577239
0.0586722
0.0598449
0.06125
0.0629015
0.0648191
0.0670275
0.0695564
0.0724409
0.0757214
0.0794446
0.0836632
0.0884368
0.093832
0.0999228
0.10679
0.114523
0.123215
0.132969
0.143888
0.156082
0.169659
0.184727
0.201389
0.21974
0.239867
0.261842
0.285721
0.311542
0.339323
0.369057
0.400717
0.434248
0.469572
0.192936
0.0909525
0.0715359
0.0641053
0.0604313
0.0584286
0.0573306
0.0567942
0.0566474
0.0567983
0.0571975
0.0578195
0.0586534
0.0596988
0.0609619
0.0624552
0.0641956
0.066205
0.0685096
0.0711405
0.0741337
0.0775304
0.0813775
0.085728
0.0906411
0.0961827
0.102425
0.109448
0.117336
0.126181
0.136077
0.147123
0.15942
0.173067
0.18816
0.20479
0.223039
0.242978
0.264664
0.288138
0.313424
0.340524
0.369421
0.400076
0.432429
0.194266
0.0918027
0.0723441
0.0648934
0.0611912
0.0591479
0.0579971
0.0573965
0.0571749
0.0572409
0.0575452
0.058062
0.0587798
0.0596968
0.0608181
0.0621537
0.0637185
0.0655314
0.0676151
0.0699969
0.0727081
0.0757849
0.0792683
0.0832047
0.087646
0.0926502
0.0982809
0.104608
0.111707
0.119658
0.128547
0.138462
0.149493
0.161732
0.175266
0.19018
0.206552
0.224452
0.243935
0.265048
0.287819
0.31226
0.338368
0.36612
0.395478
0.196457
0.0930414
0.0734449
0.0659339
0.0621801
0.0600801
0.0588643
0.0581898
0.0578854
0.0578604
0.058065
0.0584731
0.0590726
0.0598604
0.0608398
0.0620192
0.0634107
0.0650305
0.0668981
0.0690368
0.0714736
0.0742396
0.0773703
0.0809056
0.0848905
0.0893749
0.0944143
0.100069
0.106405
0.113492
0.121405
0.130222
0.140024
0.150892
0.162905
0.176142
0.190675
0.206571
0.223886
0.242668
0.262953
0.284762
0.308105
0.33298
0.35937
0.199755
0.0947727
0.0749131
0.0672879
0.0634502
0.0612707
0.0599722
0.0592096
0.0588114
0.0586863
0.0587846
0.0590794
0.0595575
0.0602147
0.0610525
0.0620771
0.0632983
0.0647294
0.0663866
0.0682896
0.0704612
0.0729277
0.0757191
0.0788695
0.0824171
0.0864044
0.0908785
0.0958911
0.101499
0.107761
0.114743
0.122513
0.131139
0.140695
0.15125
0.162876
0.175639
0.189602
0.204822
0.221346
0.239217
0.258466
0.279116
0.301184
0.324679
0.204497
0.0971423
0.0768536
0.0690402
0.0650727
0.0627802
0.0613729
0.0605015
0.059993
0.0597553
0.0597377
0.0599125
0.0602653
0.0607899
0.061486
0.0623575
0.0634118
0.0646591
0.0661127
0.0677885
0.0697053
0.0718849
0.0743525
0.0771363
0.0802683
0.0837843
0.0877236
0.0921297
0.0970499
0.102535
0.10864
0.115423
0.122942
0.131261
0.140441
0.150545
0.161633
0.173764
0.186991
0.201366
0.216933
0.233734
0.251804
0.271177
0.291888
0.211146
0.100353
0.0794122
0.0713067
0.0671425
0.0646874
0.0631325
0.0621218
0.061479
0.0611105
0.060964
0.0610099
0.0612316
0.061621
0.0621752
0.0628956
0.0637867
0.0648559
0.0661132
0.067571
0.0692444
0.071151
0.0733112
0.0757482
0.0784883
0.0815607
0.0849981
0.0888362
0.0931143
0.0978745
0.103162
0.109026
0.115516
0.122684
0.130585
0.139272
0.148799
0.15922
0.170586
0.182947
0.196351
0.210847
0.226481
0.243306
0.261376
0.220345
0.104691
0.0827905
0.0742442
0.0697841
0.067092
0.0653317
0.0641367
0.0633257
0.0628014
0.0625082
0.0624135
0.0624974
0.0627484
0.0631606
0.0637322
0.0644646
0.0653619
0.066431
0.0676808
0.0691229
0.0707708
0.0726409
0.0747516
0.0771239
0.0797816
0.082751
0.0860612
0.0897438
0.0938335
0.0983672
0.103384
0.108927
0.115038
0.121764
0.129149
0.137242
0.146089
0.15574
0.166241
0.177645
0.190002
0.203371
0.217815
0.233413
0.233005
0.110558
0.0872676
0.0780612
0.0731553
0.0701136
0.0680623
0.0666189
0.0655929
0.0648799
0.0644182
0.0641691
0.0641077
0.0642176
0.0644885
0.0649146
0.0654936
0.0662264
0.0671161
0.0681687
0.069392
0.0707963
0.0723937
0.0741986
0.0762277
0.0784994
0.0810347
0.0838567
0.0869907
0.0904642
0.094307
0.0985508
0.103229
0.108378
0.114035
0.120238
0.127027
0.134445
0.142535
0.151343
0.160919
0.171318
0.182604
0.194854
0.20816
0.250453
0.118537
0.0932309
0.0830291
0.0774458
0.0738848
0.0714184
0.0696381
0.0683364
0.0673949
0.0667401
0.0663231
0.0661105
0.0660785
0.066211
0.0664971
0.0669301
0.067507
0.0682276
0.0690945
0.0701123
0.071288
0.0726303
0.07415
0.0758595
0.0777732
0.0799073
0.0822798
0.0849103
0.0878204
0.0910335
0.0945747
0.0984707
0.10275
0.107443
0.11258
0.118197
0.124329
0.131013
0.138294
0.14622
0.154845
0.164238
0.174481
0.18568
0.274737
0.129505
0.10122
0.0894873
0.0828621
0.0785273
0.0754722
0.0732414
0.071593
0.0703817
0.0695123
0.068919
0.0685546
0.0683853
0.0683868
0.068542
0.0688392
0.0692713
0.0698347
0.0705287
0.0713551
0.0723177
0.0734224
0.0746767
0.0760898
0.0776723
0.0794364
0.0813957
0.0835654
0.0859618
0.0886029
0.0915081
0.0946981
0.0981952
0.102023
0.106208
0.110776
0.115758
0.121188
0.127104
0.133551
0.140582
0.148264
0.156685
0.165955
0.30929
0.144855
0.111989
0.0978211
0.089574
0.0840965
0.0802284
0.077419
0.0753576
0.0738479
0.0727573
0.0719929
0.0714884
0.071196
0.0710817
0.071121
0.0712972
0.071599
0.0720194
0.0725549
0.0732048
0.0739703
0.0748548
0.0758632
0.0770019
0.0782784
0.0797016
0.0812817
0.0830298
0.0849582
0.0870804
0.0894109
0.0919653
0.0947607
0.0978153
0.101149
0.104784
0.108744
0.113059
0.11776
0.122888
0.128493
0.134638
0.141407
0.148911
0.360401
0.166962
0.126539
0.108343
0.0975693
0.0904612
0.0855404
0.0820532
0.0795547
0.0777591
0.0764756
0.0755731
0.0749608
0.0745751
0.0743712
0.074318
0.0743937
0.0745836
0.0748782
0.0752717
0.0757612
0.0763463
0.0770282
0.0778097
0.0786951
0.0796894
0.0807989
0.0820308
0.0833932
0.0848949
0.0865458
0.0883564
0.0903383
0.0925038
0.0948667
0.097442
0.100247
0.1033
0.106624
0.110246
0.114201
0.118531
0.123294
0.128565
0.134447
0.440635
0.199934
0.145904
0.120853
0.106293
0.097074
0.0909856
0.08686
0.0840164
0.0820352
0.0806498
0.079686
0.0790282
0.0785991
0.0783458
0.0782325
0.0782346
0.0783357
0.0785246
0.0787945
0.0791414
0.0795635
0.0800607
0.0806343
0.0812869
0.0820216
0.0828428
0.0837552
0.0847644
0.0858767
0.0870988
0.088438
0.0899026
0.0915012
0.0932436
0.0951407
0.0972047
0.0994499
0.101893
0.104556
0.107465
0.110656
0.114173
0.118082
0.122468
0.587052
0.251803
0.169861
0.133374
0.113927
0.102654
0.0957604
0.0913765
0.0885042
0.0865801
0.0852719
0.0843776
0.0837701
0.083368
0.0831183
0.0829857
0.0829466
0.0829852
0.0830912
0.0832578
0.0834808
0.0837582
0.0840891
0.084474
0.084914
0.0854112
0.0859682
0.0865879
0.0872741
0.0880306
0.0888618
0.0897727
0.0907684
0.0918547
0.0930381
0.0943258
0.095726
0.0972483
0.0989047
0.10071
0.102683
0.104849
0.107242
0.109907
0.112911
0.965684
0.333597
0.190028
0.138933
0.116407
0.105063
0.0988086
0.0951248
0.0928435
0.0913762
0.0904063
0.0897544
0.0893145
0.0890213
0.0888339
0.0887258
0.0886794
0.0886832
0.0887297
0.0888139
0.0889327
0.0890844
0.089268
0.0894837
0.0897318
0.0900135
0.09033
0.0906829
0.0910744
0.0915066
0.0919819
0.092503
0.0930729
0.0936949
0.0943725
0.0951097
0.0959114
0.0967829
0.0977312
0.0987648
0.0998947
0.101136
0.102508
0.104038
0.105765
3.12983
0.383227
0.165909
0.122373
0.108327
0.1025
0.0996677
0.0981284
0.0972206
0.0966527
0.0962826
0.0960347
0.0958667
0.0957531
0.0956782
0.0956321
0.0956081
0.0956019
0.0956107
0.0956326
0.0956665
0.0957115
0.0957673
0.095834
0.0959115
0.0960002
0.0961004
0.0962127
0.0963378
0.0964763
0.096629
0.0967969
0.0969807
0.0971817
0.0974009
0.0976396
0.0978994
0.098182
0.0984896
0.0988249
0.0991915
0.0995939
0.100038
0.100534
0.101092
)
;

boundaryField
{
    leftWall
    {
        Cmu             0.09;
        kappa           0.41;
        E               9.8;
        type            epsilonWallFunction;
        value           nonuniform List<scalar> 
42
(
0.2346
0.233475
0.232459
0.231353
0.23
0.228389
0.22655
0.224518
0.222327
0.220015
0.217615
0.215161
0.212686
0.210222
0.207798
0.205445
0.203189
0.201059
0.199082
0.197286
0.1957
0.194356
0.193293
0.192553
0.192194
0.19229
0.192936
0.194266
0.196457
0.199755
0.204497
0.211146
0.220345
0.233005
0.250453
0.274737
0.30929
0.360401
0.440635
0.587052
0.965684
3.12983
)
;
    }
    rightWall
    {
        Cmu             0.09;
        kappa           0.41;
        E               9.8;
        type            epsilonWallFunction;
        value           nonuniform 0();
    }
    lowerWall
    {
        Cmu             0.09;
        kappa           0.41;
        E               9.8;
        type            epsilonWallFunction;
        value           nonuniform 0();
    }
    atmosphere
    {
        type            inletOutlet;
        inletValue      uniform 0.1;
        value           uniform 0.1;
    }
    defaultFaces
    {
        type            empty;
    }
    procBoundary2to0
    {
        type            processor;
        value           nonuniform List<scalar> 
46
(
0.114703
0.120687
0.127325
0.134715
0.142974
0.152239
0.162669
0.174453
0.18781
0.203008
0.22037
0.240298
0.263303
0.290038
0.321341
0.358285
0.402221
0.454802
0.517967
0.593837
0.684496
0.791632
0.916092
1.05747
1.21389
0.23568
0.115285
0.0907946
0.0812229
0.0766414
0.074432
0.0735958
0.0736654
0.0743932
0.0756375
0.0773137
0.0793706
0.0817787
0.0845233
0.087601
0.091018
0.0947888
0.0989363
0.103492
0.108497
0.108497
)
;
    }
    procBoundary2to3
    {
        type            processor;
        value           nonuniform List<scalar> 
43
(
1.18891
1.05244
0.957126
0.891378
0.846823
0.817469
0.799015
0.788336
0.783099
0.781501
0.782091
0.783652
0.785133
0.78561
0.784274
0.780429
0.773503
0.763056
0.748788
0.730545
0.708319
0.68224
0.652566
0.619664
0.583996
0.546101
0.506583
0.466395
0.426386
0.38725
0.349605
0.313971
0.280759
0.250258
0.222642
0.197973
0.176223
0.1573
0.141081
0.127452
0.116342
0.107743
0.101729
)
;
    }
}


// ************************************************************************* //
