/*--------------------------------*- C++ -*----------------------------------*\
| =========                 |                                                 |
| \\      /  F ield         | OpenFOAM: The Open Source CFD Toolbox           |
|  \\    /   O peration     | Version:  5.0                                   |
|   \\  /    A nd           | Web:      www.OpenFOAM.org                      |
|    \\/     M anipulation  |                                                 |
\*---------------------------------------------------------------------------*/
FoamFile
{
    version     2.0;
    format      ascii;
    class       volScalarField;
    location    "0.9";
    object      p;
}
// * * * * * * * * * * * * * * * * * * * * * * * * * * * * * * * * * * * * * //

dimensions      [1 -1 -2 0 0 0 0];

internalField   nonuniform List<scalar> 
1915
(
-2.21514
-2.22084
-2.22698
-2.23351
-2.2404
-2.24762
-2.25518
-2.26315
-2.27157
-2.28056
-2.29019
-2.30052
-2.31155
-2.32319
-2.33528
-2.34766
-2.36022
-2.373
-2.38617
-2.40006
-2.41508
-2.43168
-2.45039
-2.47179
-2.49646
-2.24423
-2.24323
-2.2422
-2.24157
-2.24149
-2.24196
-2.24293
-2.24439
-2.24626
-2.24847
-2.25098
-2.25373
-2.25671
-2.25989
-2.26326
-2.26683
-2.27063
-2.2747
-2.27911
-2.28393
-2.28921
-2.29497
-2.30116
-2.30772
-2.31464
-2.32192
-2.32958
-2.33766
-2.34621
-2.3553
-2.365
-2.37539
-2.38647
-2.39815
-2.4103
-2.42277
-2.4355
-2.44854
-2.46206
-2.47627
-2.49152
-2.50823
-2.52682
-2.54771
-2.57135
-2.31801
-2.3171
-2.31616
-2.31561
-2.31559
-2.31608
-2.31707
-2.31852
-2.32038
-2.32257
-2.32505
-2.32779
-2.33077
-2.33397
-2.33738
-2.34101
-2.34488
-2.34903
-2.35352
-2.35841
-2.36375
-2.36953
-2.37572
-2.38228
-2.38922
-2.39654
-2.40427
-2.41245
-2.42112
-2.43032
-2.44011
-2.45051
-2.46154
-2.47314
-2.48522
-2.49767
-2.51045
-2.52362
-2.5373
-2.55169
-2.56702
-2.5836
-2.60174
-2.62177
-2.6441
-2.39226
-2.39144
-2.3906
-2.39013
-2.39015
-2.39067
-2.39167
-2.39311
-2.39494
-2.39711
-2.39957
-2.40229
-2.40527
-2.40848
-2.41193
-2.41561
-2.41955
-2.42378
-2.42835
-2.4333
-2.43866
-2.44445
-2.45063
-2.4572
-2.46415
-2.4715
-2.47928
-2.48753
-2.49627
-2.50554
-2.51537
-2.52576
-2.53671
-2.5482
-2.56015
-2.5725
-2.58523
-2.59838
-2.61205
-2.62639
-2.64159
-2.65786
-2.67539
-2.69446
-2.7154
-2.46699
-2.46625
-2.46549
-2.46509
-2.46517
-2.46572
-2.46672
-2.46815
-2.46997
-2.47212
-2.47456
-2.47727
-2.48024
-2.48346
-2.48693
-2.49066
-2.49465
-2.49894
-2.50355
-2.50853
-2.51391
-2.5197
-2.52588
-2.53244
-2.5394
-2.54677
-2.55458
-2.56286
-2.57164
-2.58093
-2.59074
-2.60107
-2.61193
-2.62327
-2.63507
-2.64726
-2.65985
-2.67287
-2.68637
-2.70049
-2.71537
-2.73116
-2.74801
-2.76609
-2.78562
-2.54219
-2.54152
-2.54085
-2.54051
-2.54063
-2.5412
-2.54222
-2.54364
-2.54545
-2.54758
-2.55
-2.55271
-2.55567
-2.5589
-2.56239
-2.56615
-2.57017
-2.57449
-2.57913
-2.58412
-2.5895
-2.59527
-2.60143
-2.60799
-2.61495
-2.62232
-2.63013
-2.63842
-2.64719
-2.65645
-2.66621
-2.67645
-2.68717
-2.69835
-2.70994
-2.72193
-2.7343
-2.74708
-2.76031
-2.77408
-2.7885
-2.80369
-2.81977
-2.83684
-2.85498
-2.61787
-2.61725
-2.61666
-2.61638
-2.61655
-2.61714
-2.61816
-2.61958
-2.62137
-2.62348
-2.62589
-2.62859
-2.63155
-2.63479
-2.6383
-2.64207
-2.64611
-2.65044
-2.65508
-2.66006
-2.66542
-2.67116
-2.6773
-2.68384
-2.69078
-2.69814
-2.70594
-2.71419
-2.72292
-2.73212
-2.74178
-2.75189
-2.76244
-2.77341
-2.78478
-2.7965
-2.80859
-2.82104
-2.8339
-2.84722
-2.86109
-2.87559
-2.89084
-2.90687
-2.92367
-2.69401
-2.69345
-2.69292
-2.69271
-2.69291
-2.69353
-2.69455
-2.69597
-2.69773
-2.69982
-2.70222
-2.7049
-2.70787
-2.71111
-2.71462
-2.7184
-2.72245
-2.72678
-2.73141
-2.73637
-2.74169
-2.74739
-2.75348
-2.75998
-2.7669
-2.77423
-2.78199
-2.79019
-2.79883
-2.80793
-2.81746
-2.8274
-2.83775
-2.84848
-2.85956
-2.87097
-2.88271
-2.89476
-2.90718
-2.91998
-2.93322
-2.94699
-2.96135
-2.97634
-2.99187
-2.77062
-2.77012
-2.76965
-2.76948
-2.76972
-2.77037
-2.7714
-2.7728
-2.77455
-2.77661
-2.77898
-2.78165
-2.78461
-2.78785
-2.79137
-2.79515
-2.79919
-2.80351
-2.80812
-2.81304
-2.81832
-2.82396
-2.83
-2.83644
-2.8433
-2.85058
-2.85828
-2.86641
-2.87495
-2.8839
-2.89326
-2.903
-2.9131
-2.92355
-2.93431
-2.94536
-2.95669
-2.9683
-2.9802
-2.99243
-3.00502
-3.01801
-3.03147
-3.04543
-3.05978
-2.8477
-2.84724
-2.84683
-2.84672
-2.84699
-2.84765
-2.84869
-2.85008
-2.85181
-2.85386
-2.85621
-2.85885
-2.86179
-2.86502
-2.86853
-2.8723
-2.87633
-2.88063
-2.8852
-2.89008
-2.8953
-2.90087
-2.90684
-2.91321
-2.92
-2.92721
-2.93483
-2.94285
-2.95126
-2.96004
-2.9692
-2.9787
-2.98853
-2.99866
-3.00906
-3.01971
-3.03059
-3.04171
-3.05306
-3.06468
-3.07659
-3.0888
-3.10136
-3.1143
-3.12755
-2.92525
-2.92484
-2.92448
-2.92441
-2.92471
-2.92539
-2.92643
-2.92782
-2.92953
-2.93155
-2.93388
-2.9365
-2.93942
-2.94263
-2.94612
-2.94987
-2.95388
-2.95814
-2.96267
-2.96749
-2.97263
-2.97813
-2.98401
-2.9903
-2.997
-3.00411
-3.01162
-3.01952
-3.02777
-3.03636
-3.04528
-3.05452
-3.06404
-3.07383
-3.08385
-3.09408
-3.10449
-3.11508
-3.12586
-3.13685
-3.14805
-3.15949
-3.17116
-3.18309
-3.1953
-3.00328
-3.0029
-3.00258
-3.00256
-3.00289
-3.00358
-3.00462
-3.006
-3.00769
-3.00969
-3.01199
-3.01459
-3.01749
-3.02067
-3.02413
-3.02786
-3.03183
-3.03605
-3.04052
-3.04528
-3.05033
-3.05574
-3.06151
-3.06769
-3.07427
-3.08127
-3.08865
-3.0964
-3.10448
-3.11287
-3.12154
-3.13049
-3.13969
-3.14912
-3.15874
-3.16852
-3.17843
-3.18848
-3.19867
-3.209
-3.21949
-3.23014
-3.24094
-3.25192
-3.26312
-3.08177
-3.08143
-3.08116
-3.08117
-3.08153
-3.08223
-3.08327
-3.08463
-3.0863
-3.08828
-3.09055
-3.09312
-3.09599
-3.09914
-3.10258
-3.10627
-3.1102
-3.11436
-3.11877
-3.12345
-3.12841
-3.1337
-3.13935
-3.14539
-3.15184
-3.1587
-3.16593
-3.17351
-3.1814
-3.18956
-3.19798
-3.20663
-3.21549
-3.22454
-3.23374
-3.24306
-3.25247
-3.26196
-3.27154
-3.28121
-3.29098
-3.30085
-3.31081
-3.32088
-3.3311
-3.16074
-3.16043
-3.16021
-3.16025
-3.16063
-3.16134
-3.16238
-3.16372
-3.16537
-3.16732
-3.16956
-3.1721
-3.17493
-3.17805
-3.18145
-3.1851
-3.18898
-3.19309
-3.19743
-3.20201
-3.20687
-3.21203
-3.21754
-3.22343
-3.22972
-3.2364
-3.24346
-3.25085
-3.25853
-3.26646
-3.2746
-3.28294
-3.29145
-3.30011
-3.30888
-3.31773
-3.32662
-3.33554
-3.34451
-3.35352
-3.36257
-3.37168
-3.38083
-3.39004
-3.39932
-3.24018
-3.23991
-3.23972
-3.2398
-3.2402
-3.24092
-3.24195
-3.24328
-3.24491
-3.24683
-3.24904
-3.25154
-3.25433
-3.25741
-3.26076
-3.26436
-3.26819
-3.27223
-3.2765
-3.28098
-3.28573
-3.29075
-3.29611
-3.30182
-3.30793
-3.31441
-3.32126
-3.32843
-3.33588
-3.34355
-3.35141
-3.35943
-3.36758
-3.37584
-3.38417
-3.39254
-3.40091
-3.40927
-3.41763
-3.42599
-3.43435
-3.44272
-3.45109
-3.45947
-3.46787
-3.32011
-3.31987
-3.31972
-3.31983
-3.32024
-3.32097
-3.32199
-3.32331
-3.32491
-3.32681
-3.32899
-3.33145
-3.3342
-3.33722
-3.34052
-3.34406
-3.34782
-3.3518
-3.35597
-3.36036
-3.36498
-3.36987
-3.37506
-3.38059
-3.38649
-3.39275
-3.39937
-3.4063
-3.41348
-3.42088
-3.42844
-3.43612
-3.4439
-3.45176
-3.45965
-3.46754
-3.47539
-3.4832
-3.49097
-3.4987
-3.50639
-3.51404
-3.52165
-3.52923
-3.53679
-3.40051
-3.4003
-3.40019
-3.40032
-3.40076
-3.40148
-3.4025
-3.4038
-3.40539
-3.40726
-3.40941
-3.41183
-3.41453
-3.4175
-3.42073
-3.42421
-3.4279
-3.43179
-3.43587
-3.44015
-3.44464
-3.44938
-3.4544
-3.45974
-3.46542
-3.47145
-3.47781
-3.48447
-3.49138
-3.49848
-3.50572
-3.51306
-3.52047
-3.52792
-3.53537
-3.54278
-3.55013
-3.5574
-3.56459
-3.5717
-3.57874
-3.58571
-3.5926
-3.59942
-3.60617
-3.4814
-3.48122
-3.48114
-3.4813
-3.48174
-3.48247
-3.48348
-3.48477
-3.48634
-3.48819
-3.4903
-3.49268
-3.49532
-3.49823
-3.5014
-3.5048
-3.50841
-3.51221
-3.51619
-3.52034
-3.52469
-3.52927
-3.53412
-3.53925
-3.54471
-3.5505
-3.5566
-3.56298
-3.56959
-3.57638
-3.58329
-3.59028
-3.59732
-3.60436
-3.61137
-3.61832
-3.62518
-3.63192
-3.63854
-3.64505
-3.65147
-3.65778
-3.66399
-3.67009
-3.67608
-3.56278
-3.56262
-3.56258
-3.56276
-3.56322
-3.56394
-3.56494
-3.56622
-3.56776
-3.56958
-3.57165
-3.57398
-3.57657
-3.57942
-3.58252
-3.58585
-3.58937
-3.59307
-3.59693
-3.60095
-3.60515
-3.60956
-3.6142
-3.61912
-3.62434
-3.62988
-3.63571
-3.64181
-3.64812
-3.65459
-3.66117
-3.6678
-3.67446
-3.68109
-3.68768
-3.69418
-3.70055
-3.70678
-3.71286
-3.7188
-3.72462
-3.73032
-3.73589
-3.74132
-3.7466
-3.64465
-3.64452
-3.6445
-3.64471
-3.64518
-3.64591
-3.64689
-3.64814
-3.64966
-3.65144
-3.65347
-3.65575
-3.65829
-3.66108
-3.6641
-3.66735
-3.67079
-3.67439
-3.67813
-3.682
-3.68603
-3.69024
-3.69467
-3.69936
-3.70433
-3.7096
-3.71515
-3.72096
-3.72696
-3.73311
-3.73935
-3.74562
-3.75189
-3.75813
-3.7643
-3.77035
-3.77626
-3.78201
-3.78758
-3.79299
-3.79825
-3.80337
-3.80834
-3.81316
-3.81779
-3.72702
-3.72692
-3.72693
-3.72716
-3.72764
-3.72837
-3.72934
-3.73056
-3.73204
-3.73377
-3.73576
-3.73799
-3.74047
-3.74319
-3.74615
-3.74931
-3.75266
-3.75616
-3.75978
-3.76351
-3.76736
-3.77137
-3.77557
-3.78001
-3.78471
-3.78969
-3.79494
-3.80044
-3.80612
-3.81194
-3.81783
-3.82375
-3.82965
-3.83549
-3.84125
-3.84688
-3.85236
-3.85764
-3.86274
-3.86764
-3.87238
-3.87697
-3.8814
-3.88566
-3.8897
-3.80989
-3.80981
-3.80985
-3.81011
-3.8106
-3.81133
-3.81228
-3.81347
-3.81491
-3.81659
-3.81852
-3.8207
-3.82312
-3.82577
-3.82865
-3.83173
-3.83499
-3.83838
-3.84188
-3.84547
-3.84915
-3.85296
-3.85692
-3.86109
-3.86551
-3.87018
-3.87512
-3.88029
-3.88564
-3.89112
-3.89666
-3.90222
-3.90774
-3.9132
-3.91856
-3.92379
-3.92885
-3.93372
-3.93837
-3.94282
-3.94708
-3.95117
-3.9551
-3.95885
-3.96238
-3.89326
-3.8932
-3.89327
-3.89355
-3.89405
-3.89478
-3.89572
-3.89688
-3.89827
-3.8999
-3.90177
-3.90388
-3.90623
-3.90881
-3.91161
-3.9146
-3.91776
-3.92104
-3.92442
-3.92787
-3.93139
-3.935
-3.93874
-3.94264
-3.94676
-3.95112
-3.95572
-3.96055
-3.96555
-3.97068
-3.97586
-3.98105
-3.98621
-3.99129
-3.99626
-4.00111
-4.00578
-4.01025
-4.01451
-4.01854
-4.02237
-4.02601
-4.02948
-4.03277
-4.03584
-3.97714
-3.9771
-3.97719
-3.97749
-3.978
-3.97873
-3.97966
-3.98079
-3.98214
-3.98372
-3.98552
-3.98755
-3.98982
-3.99231
-3.99502
-3.99791
-4.00096
-4.00413
-4.00739
-4.0107
-4.01406
-4.01748
-4.021
-4.02465
-4.02847
-4.03251
-4.03677
-4.04123
-4.04587
-4.05063
-4.05545
-4.06027
-4.06505
-4.06976
-4.07437
-4.07884
-4.08315
-4.08727
-4.09116
-4.09483
-4.09828
-4.10152
-4.10457
-4.10745
-4.11012
-4.06154
-4.06152
-4.06162
-4.06193
-4.06245
-4.06317
-4.06409
-4.06521
-4.06652
-4.06804
-4.06977
-4.07172
-4.07389
-4.07628
-4.07888
-4.08166
-4.08459
-4.08764
-4.09077
-4.09394
-4.09714
-4.10039
-4.10369
-4.10709
-4.11062
-4.11433
-4.11824
-4.12234
-4.1266
-4.13099
-4.13543
-4.13989
-4.1443
-4.14865
-4.15289
-4.15702
-4.16098
-4.16477
-4.16835
-4.17169
-4.17481
-4.17771
-4.18042
-4.18294
-4.18525
-4.14647
-4.14646
-4.14657
-4.14688
-4.1474
-4.14812
-4.14903
-4.15013
-4.15141
-4.15287
-4.15453
-4.15639
-4.15846
-4.16073
-4.16321
-4.16586
-4.16866
-4.17157
-4.17456
-4.17759
-4.18064
-4.18371
-4.1868
-4.18995
-4.19321
-4.1966
-4.20015
-4.20388
-4.20776
-4.21177
-4.21584
-4.21992
-4.22398
-4.22797
-4.23187
-4.23566
-4.23931
-4.24279
-4.24608
-4.24915
-4.252
-4.25462
-4.25704
-4.25926
-4.26127
-4.23193
-4.23193
-4.23205
-4.23236
-4.23287
-4.23359
-4.23449
-4.23557
-4.23682
-4.23823
-4.23981
-4.24158
-4.24354
-4.24569
-4.24802
-4.25053
-4.25319
-4.25596
-4.2588
-4.26168
-4.26457
-4.26746
-4.27035
-4.27326
-4.27623
-4.27931
-4.28251
-4.28587
-4.28937
-4.29299
-4.29668
-4.30041
-4.30412
-4.30777
-4.31135
-4.31482
-4.31816
-4.32137
-4.3244
-4.32724
-4.32986
-4.33226
-4.33445
-4.33644
-4.33821
-4.31794
-4.31794
-4.31807
-4.31837
-4.31888
-4.31959
-4.32048
-4.32153
-4.32274
-4.32411
-4.32562
-4.3273
-4.32914
-4.33116
-4.33335
-4.3357
-4.3382
-4.34081
-4.3435
-4.34622
-4.34895
-4.35166
-4.35435
-4.35703
-4.35974
-4.3625
-4.36536
-4.36834
-4.37145
-4.37469
-4.37801
-4.38138
-4.38475
-4.38809
-4.39136
-4.39453
-4.39761
-4.40055
-4.40335
-4.40598
-4.40841
-4.41064
-4.41266
-4.41448
-4.41605
-4.4045
-4.40451
-4.40464
-4.40494
-4.40544
-4.40614
-4.407
-4.40803
-4.4092
-4.41051
-4.41196
-4.41354
-4.41527
-4.41715
-4.41919
-4.42138
-4.42371
-4.42615
-4.42867
-4.43124
-4.43381
-4.43634
-4.43884
-4.4413
-4.44374
-4.4462
-4.44872
-4.45134
-4.45407
-4.45692
-4.45987
-4.46289
-4.46593
-4.46896
-4.47195
-4.47486
-4.47768
-4.4804
-4.48298
-4.48542
-4.48769
-4.48978
-4.49168
-4.49336
-4.49479
-4.49163
-4.49164
-4.49177
-4.49208
-4.49257
-4.49324
-4.49408
-4.49507
-4.4962
-4.49745
-4.49882
-4.50031
-4.50193
-4.50367
-4.50555
-4.50757
-4.50972
-4.51199
-4.51434
-4.51673
-4.51913
-4.52149
-4.52381
-4.52606
-4.52826
-4.53044
-4.53265
-4.53491
-4.53728
-4.53975
-4.54233
-4.54499
-4.54772
-4.55046
-4.55318
-4.55585
-4.55845
-4.56095
-4.56335
-4.56562
-4.56775
-4.56971
-4.5715
-4.57309
-4.57442
-4.57934
-4.57935
-4.57948
-4.57979
-4.58027
-4.58093
-4.58173
-4.58268
-4.58375
-4.58494
-4.58623
-4.58762
-4.58912
-4.59072
-4.59244
-4.59429
-4.59625
-4.59832
-4.60048
-4.6027
-4.60492
-4.60711
-4.60925
-4.61131
-4.6133
-4.61523
-4.61715
-4.6191
-4.62112
-4.62323
-4.62545
-4.62777
-4.63018
-4.63264
-4.63511
-4.63755
-4.63995
-4.64227
-4.6445
-4.64662
-4.64862
-4.65047
-4.65217
-4.65367
-4.65493
-4.66763
-4.66765
-4.66778
-4.66808
-4.66856
-4.6692
-4.66997
-4.67088
-4.67189
-4.67301
-4.67421
-4.6755
-4.67687
-4.67833
-4.67988
-4.68154
-4.68331
-4.68518
-4.68714
-4.68915
-4.69119
-4.6932
-4.69517
-4.69705
-4.69885
-4.70058
-4.70226
-4.70393
-4.70564
-4.70743
-4.70931
-4.71131
-4.71341
-4.71559
-4.71781
-4.72005
-4.72225
-4.72441
-4.72649
-4.72847
-4.73034
-4.73209
-4.73369
-4.73512
-4.73631
-4.75654
-4.75656
-4.75669
-4.75699
-4.75746
-4.75807
-4.75882
-4.75968
-4.76064
-4.76168
-4.7628
-4.76397
-4.76521
-4.76652
-4.7679
-4.76937
-4.77093
-4.77258
-4.77432
-4.77612
-4.77796
-4.77979
-4.78159
-4.78331
-4.78495
-4.7865
-4.78799
-4.78944
-4.79089
-4.7924
-4.79399
-4.79569
-4.7975
-4.7994
-4.80138
-4.8034
-4.80542
-4.80741
-4.80934
-4.81119
-4.81294
-4.81458
-4.81609
-4.81744
-4.81857
-4.84607
-4.84609
-4.84622
-4.84652
-4.84698
-4.84757
-4.84829
-4.84911
-4.85002
-4.85099
-4.85201
-4.85307
-4.85417
-4.85532
-4.85652
-4.85779
-4.85913
-4.86056
-4.86207
-4.86365
-4.86528
-4.86692
-4.86855
-4.87012
-4.87162
-4.87303
-4.87437
-4.87566
-4.87692
-4.87821
-4.87955
-4.88098
-4.88252
-4.88416
-4.88589
-4.88768
-4.8895
-4.89131
-4.89309
-4.8948
-4.89643
-4.89795
-4.89936
-4.90063
-4.9017
-4.93624
-4.93628
-4.93641
-4.93671
-4.93715
-4.93773
-4.93841
-4.93919
-4.94004
-4.94093
-4.94186
-4.9428
-4.94377
-4.94476
-4.94578
-4.94684
-4.94797
-4.94917
-4.95045
-4.9518
-4.9532
-4.95465
-4.9561
-4.95753
-4.95891
-4.96021
-4.96145
-4.96262
-4.96375
-4.96487
-4.96602
-4.96724
-4.96853
-4.96992
-4.9714
-4.97295
-4.97455
-4.97616
-4.97776
-4.97932
-4.9808
-4.9822
-4.9835
-4.98468
-4.98569
-5.02708
-5.02713
-5.02728
-5.02757
-5.028
-5.02855
-5.02921
-5.02994
-5.03072
-5.03154
-5.03236
-5.03319
-5.03402
-5.03485
-5.03569
-5.03656
-5.03747
-5.03844
-5.03948
-5.0406
-5.04179
-5.04303
-5.04431
-5.0456
-5.04686
-5.04809
-5.04925
-5.05035
-5.0514
-5.05242
-5.05343
-5.05447
-5.05555
-5.05671
-5.05794
-5.05924
-5.06059
-5.06198
-5.06337
-5.06473
-5.06605
-5.0673
-5.06849
-5.06957
-5.07052
-5.1186
-5.11869
-5.11886
-5.11915
-5.11957
-5.12008
-5.12069
-5.12136
-5.12207
-5.1228
-5.12352
-5.12423
-5.12492
-5.1256
-5.12627
-5.12695
-5.12766
-5.12841
-5.12923
-5.13012
-5.13109
-5.13214
-5.13324
-5.13439
-5.13555
-5.1367
-5.1378
-5.13886
-5.13986
-5.14082
-5.14173
-5.14264
-5.14355
-5.1445
-5.14549
-5.14654
-5.14763
-5.14876
-5.1499
-5.15105
-5.15217
-5.15326
-5.15431
-5.15529
-5.15617
-5.21082
-5.21099
-5.21119
-5.21149
-5.21187
-5.21235
-5.21289
-5.21348
-5.2141
-5.21473
-5.21534
-5.21593
-5.21649
-5.21702
-5.21753
-5.21804
-5.21856
-5.21911
-5.21972
-5.22041
-5.22118
-5.22203
-5.22297
-5.22397
-5.22502
-5.22609
-5.22714
-5.22816
-5.22912
-5.23003
-5.23088
-5.23168
-5.23245
-5.23322
-5.23399
-5.23479
-5.23561
-5.23647
-5.23736
-5.23826
-5.23917
-5.24007
-5.24096
-5.24183
-5.24265
-5.30376
-5.30404
-5.30432
-5.30462
-5.30496
-5.30536
-5.30581
-5.3063
-5.30681
-5.30732
-5.30781
-5.30828
-5.30871
-5.30911
-5.30948
-5.30984
-5.3102
-5.31058
-5.31102
-5.31152
-5.31211
-5.31279
-5.31356
-5.31442
-5.31534
-5.3163
-5.31728
-5.31823
-5.31915
-5.32
-5.32078
-5.32149
-5.32214
-5.32274
-5.32332
-5.32389
-5.32447
-5.32507
-5.3257
-5.32636
-5.32705
-5.32776
-5.32848
-5.32922
-5.32996
-5.39734
-5.39782
-5.39822
-5.39854
-5.39882
-5.39911
-5.39944
-5.3998
-5.40018
-5.40056
-5.40093
-5.40128
-5.40159
-5.40187
-5.40213
-5.40237
-5.40261
-5.40286
-5.40316
-5.40351
-5.40394
-5.40446
-5.40507
-5.40577
-5.40655
-5.40738
-5.40824
-5.4091
-5.40992
-5.41068
-5.41137
-5.41198
-5.4125
-5.41296
-5.41337
-5.41375
-5.41412
-5.4145
-5.41491
-5.41535
-5.41584
-5.41636
-5.41692
-5.41751
-5.41816
-5.49216
-5.49266
-5.49313
-5.4933
-5.49338
-5.49351
-5.49369
-5.49391
-5.49415
-5.49441
-5.49466
-5.4949
-5.49512
-5.49531
-5.49549
-5.49565
-5.4958
-5.49597
-5.49616
-5.4964
-5.49671
-5.49709
-5.49755
-5.49809
-5.4987
-5.49936
-5.50005
-5.50075
-5.50142
-5.50205
-5.50261
-5.50309
-5.50349
-5.50382
-5.50409
-5.50432
-5.50453
-5.50475
-5.50499
-5.50526
-5.50557
-5.50593
-5.50634
-5.50678
-5.50732
-5.58916
-5.59059
-5.59085
-5.58947
-5.58866
-5.58843
-5.58843
-5.58852
-5.58865
-5.58881
-5.58897
-5.58913
-5.58929
-5.58943
-5.58955
-5.58967
-5.58978
-5.5899
-5.59004
-5.59021
-5.59042
-5.59069
-5.591
-5.59137
-5.59179
-5.59225
-5.59273
-5.59322
-5.59369
-5.59412
-5.59451
-5.59484
-5.59511
-5.59532
-5.59549
-5.59562
-5.59574
-5.59586
-5.59599
-5.59615
-5.59634
-5.59657
-5.59683
-5.59714
-5.59752
-5.67854
-5.6953
-5.69305
-5.68754
-5.68533
-5.68461
-5.68433
-5.68423
-5.68424
-5.68429
-5.68437
-5.68447
-5.68457
-5.68466
-5.68475
-5.68484
-5.68493
-5.68502
-5.68511
-5.68522
-5.68533
-5.68546
-5.68561
-5.68578
-5.68596
-5.68615
-5.68635
-5.68655
-5.68674
-5.68692
-5.68707
-5.6872
-5.68731
-5.68739
-5.68746
-5.68751
-5.68755
-5.68758
-5.68763
-5.68768
-5.68774
-5.68781
-5.68789
-5.688
-5.68813
)
;

boundaryField
{
    leftWall
    {
        type            calculated;
        value           nonuniform List<scalar> 
42
(
-2.24423
-2.31801
-2.39226
-2.46699
-2.54219
-2.61787
-2.69401
-2.77062
-2.8477
-2.92525
-3.00328
-3.08177
-3.16074
-3.24018
-3.32011
-3.40051
-3.4814
-3.56278
-3.64465
-3.72702
-3.80989
-3.89326
-3.97714
-4.06154
-4.14647
-4.23193
-4.31794
-4.4045
-4.49163
-4.57934
-4.66763
-4.75654
-4.84607
-4.93624
-5.02708
-5.1186
-5.21082
-5.30376
-5.39734
-5.49216
-5.58916
-5.67854
)
;
    }
    rightWall
    {
        type            calculated;
        value           nonuniform 0();
    }
    lowerWall
    {
        type            calculated;
        value           nonuniform 0();
    }
    atmosphere
    {
        type            calculated;
        value           nonuniform List<scalar> 
45
(
-5.72927
-5.73173
-5.73208
-5.73213
-5.73216
-5.7322
-5.73224
-5.73229
-5.73236
-5.73242
-5.73249
-5.73256
-5.73263
-5.7327
-5.73278
-5.73284
-5.73291
-5.73298
-5.73304
-5.7331
-5.73315
-5.7332
-5.73325
-5.73329
-5.73333
-5.73336
-5.73339
-5.73341
-5.73343
-5.73345
-5.73346
-5.73347
-5.73347
-5.73347
-5.73347
-5.73346
-5.73345
-5.73343
-5.73341
-5.73339
-5.73336
-5.73333
-5.73329
-5.73325
-5.7332
)
;
    }
    defaultFaces
    {
        type            empty;
    }
    procBoundary2to0
    {
        type            processor;
        value           nonuniform List<scalar> 
46
(
-2.14161
-2.14718
-2.15322
-2.15965
-2.16645
-2.17359
-2.18107
-2.18893
-2.19726
-2.20616
-2.21573
-2.22596
-2.23686
-2.24831
-2.26018
-2.27229
-2.28452
-2.29691
-2.30964
-2.32306
-2.33758
-2.35372
-2.37211
-2.39344
-2.41855
-2.17096
-2.16987
-2.16873
-2.16803
-2.16789
-2.16831
-2.16926
-2.1707
-2.17258
-2.1748
-2.17732
-2.18008
-2.18305
-2.18619
-2.18952
-2.19304
-2.19679
-2.20082
-2.20518
-2.20994
-2.20994
)
;
    }
    procBoundary2to3
    {
        type            processor;
        value           nonuniform List<scalar> 
43
(
-2.52504
-2.59821
-2.66909
-2.73846
-2.80678
-2.87432
-2.94131
-3.008
-3.07456
-3.14112
-3.20776
-3.27452
-3.34148
-3.40871
-3.47632
-3.54436
-3.61288
-3.68198
-3.75172
-3.8222
-3.89349
-3.96563
-4.03864
-4.11254
-4.18734
-4.26307
-4.33973
-4.41736
-4.49594
-4.57546
-4.6559
-4.73723
-4.81944
-4.90253
-4.98648
-5.07128
-5.15693
-5.24341
-5.33073
-5.41891
-5.50799
-5.59802
-5.68831
)
;
    }
}


// ************************************************************************* //
