/*--------------------------------*- C++ -*----------------------------------*\
| =========                 |                                                 |
| \\      /  F ield         | OpenFOAM: The Open Source CFD Toolbox           |
|  \\    /   O peration     | Version:  5.0                                   |
|   \\  /    A nd           | Web:      www.OpenFOAM.org                      |
|    \\/     M anipulation  |                                                 |
\*---------------------------------------------------------------------------*/
FoamFile
{
    version     2.0;
    format      ascii;
    class       volVectorField;
    location    "0.9";
    object      U;
}
// * * * * * * * * * * * * * * * * * * * * * * * * * * * * * * * * * * * * * //

dimensions      [0 1 -1 0 0 0 0];

internalField   nonuniform List<vector> 
1915
(
(0.143238 0.0603587 0)
(0.15259 0.0674965 0)
(0.162308 0.0751124 0)
(0.172406 0.083174 0)
(0.182893 0.0916426 0)
(0.193775 0.100469 0)
(0.205049 0.109593 0)
(0.216705 0.118947 0)
(0.228724 0.128452 0)
(0.241073 0.138015 0)
(0.253705 0.147534 0)
(0.266558 0.156887 0)
(0.279547 0.165935 0)
(0.29256 0.174519 0)
(0.305456 0.182448 0)
(0.31805 0.189493 0)
(0.330111 0.195385 0)
(0.341345 0.199797 0)
(0.351393 0.202358 0)
(0.359833 0.202648 0)
(0.36619 0.200224 0)
(0.369956 0.194649 0)
(0.370635 0.185541 0)
(0.367804 0.172624 0)
(0.361157 0.155754 0)
(0.00289984 0.0127953 0)
(0.007824 0.0098653 0)
(0.0132215 0.00822792 0)
(0.0188543 0.00720861 0)
(0.024634 0.00657098 0)
(0.0305036 0.0062645 0)
(0.0364605 0.00628824 0)
(0.0425138 0.00665689 0)
(0.0486751 0.00739045 0)
(0.0549572 0.00851007 0)
(0.0613749 0.010036 0)
(0.067945 0.0119866 0)
(0.0746869 0.0143786 0)
(0.0816213 0.0172272 0)
(0.0887687 0.0205458 0)
(0.0961497 0.0243461 0)
(0.103786 0.0286373 0)
(0.111699 0.0334254 0)
(0.11991 0.0387139 0)
(0.128441 0.0445004 0)
(0.13731 0.0507786 0)
(0.146539 0.0575376 0)
(0.156144 0.0647576 0)
(0.166135 0.0724117 0)
(0.17652 0.0804657 0)
(0.187304 0.0888767 0)
(0.198481 0.0975934 0)
(0.210042 0.106556 0)
(0.221965 0.115694 0)
(0.23422 0.124931 0)
(0.246763 0.134178 0)
(0.259538 0.143333 0)
(0.272471 0.152279 0)
(0.28547 0.160882 0)
(0.298418 0.168982 0)
(0.311163 0.176391 0)
(0.323518 0.182884 0)
(0.335255 0.188193 0)
(0.346097 0.192006 0)
(0.355707 0.193965 0)
(0.36369 0.193677 0)
(0.369616 0.19073 0)
(0.37304 0.184733 0)
(0.373513 0.175358 0)
(0.370634 0.162374 0)
(0.00268049 0.0077483 0)
(0.00724927 0.0043141 0)
(0.0122607 0.00249704 0)
(0.017509 0.00135132 0)
(0.0229118 0.00060621 0)
(0.0284162 0.000196898 0)
(0.0340204 0.000114529 0)
(0.0397334 0.000368566 0)
(0.0455667 0.000974971 0)
(0.0515333 0.0019516 0)
(0.0576483 0.00331643 0)
(0.063929 0.00508674 0)
(0.0703943 0.00727845 0)
(0.0770643 0.00990579 0)
(0.0839595 0.012981 0)
(0.0911006 0.016515 0)
(0.0985083 0.020517 0)
(0.106204 0.0249931 0)
(0.114209 0.0299472 0)
(0.122541 0.0353782 0)
(0.131221 0.0412822 0)
(0.140266 0.0476492 0)
(0.149691 0.0544625 0)
(0.159505 0.0617002 0)
(0.169715 0.0693331 0)
(0.180321 0.0773246 0)
(0.19132 0.0856306 0)
(0.202698 0.0941995 0)
(0.214437 0.102972 0)
(0.226505 0.111879 0)
(0.238863 0.120847 0)
(0.251458 0.129787 0)
(0.264223 0.138602 0)
(0.277076 0.147178 0)
(0.289917 0.155379 0)
(0.302617 0.163049 0)
(0.315023 0.17 0)
(0.326942 0.176011 0)
(0.338146 0.180818 0)
(0.348358 0.184114 0)
(0.357252 0.185557 0)
(0.364453 0.184783 0)
(0.369554 0.181422 0)
(0.37212 0.175135 0)
(0.371731 0.165651 0)
(0.00248111 0.00302665 0)
(0.00672303 -0.000880925 0)
(0.0113769 -0.0028807 0)
(0.0162636 -0.00416114 0)
(0.021308 -0.00502398 0)
(0.0264616 -0.00554745 0)
(0.0317236 -0.00574841 0)
(0.0371033 -0.00562257 0)
(0.0426122 -0.00515747 0)
(0.0482636 -0.00433771 0)
(0.0540726 -0.00314723 0)
(0.0600565 -0.00157036 0)
(0.0662341 0.000407543 0)
(0.0726249 0.00279987 0)
(0.0792488 0.00561851 0)
(0.0861265 0.00887382 0)
(0.0932783 0.0125747 0)
(0.100724 0.0167285 0)
(0.108484 0.0213379 0)
(0.116577 0.0264053 0)
(0.12502 0.0319264 0)
(0.133829 0.0378943 0)
(0.143018 0.0442962 0)
(0.152595 0.051114 0)
(0.162565 0.0583238 0)
(0.172928 0.0658949 0)
(0.183677 0.0737906 0)
(0.1948 0.081967 0)
(0.206277 0.0903736 0)
(0.218077 0.0989528 0)
(0.230164 0.107639 0)
(0.242486 0.11636 0)
(0.254984 0.125029 0)
(0.26758 0.133552 0)
(0.280186 0.141815 0)
(0.292687 0.149686 0)
(0.30495 0.157008 0)
(0.316808 0.163595 0)
(0.328065 0.169226 0)
(0.338483 0.173645 0)
(0.347781 0.176556 0)
(0.35563 0.177642 0)
(0.361664 0.176568 0)
(0.365478 0.173016 0)
(0.366658 0.166712 0)
(0.00230085 -0.00140019 0)
(0.00624156 -0.00574597 0)
(0.0105643 -0.00792808 0)
(0.0151124 -0.00934759 0)
(0.0198175 -0.0103345 0)
(0.0246357 -0.0109796 0)
(0.0295671 -0.0113072 0)
(0.0346217 -0.011318 0)
(0.0398113 -0.0110029 0)
(0.0451491 -0.0103491 0)
(0.0506504 -0.00934258 0)
(0.0563323 -0.00796892 0)
(0.0622132 -0.00621454 0)
(0.0683124 -0.00406674 0)
(0.0746495 -0.00151386 0)
(0.0812443 0.00145443 0)
(0.0881168 0.00484686 0)
(0.0952858 0.00867045 0)
(0.10277 0.01293 0)
(0.110587 0.0176276 0)
(0.118753 0.0227624 0)
(0.127284 0.0283294 0)
(0.13619 0.0343192 0)
(0.145479 0.040718 0)
(0.155155 0.0475067 0)
(0.165216 0.0546608 0)
(0.175656 0.06215 0)
(0.186461 0.0699382 0)
(0.19761 0.0779833 0)
(0.209075 0.086237 0)
(0.220819 0.0946447 0)
(0.232793 0.103144 0)
(0.244939 0.111665 0)
(0.257187 0.120125 0)
(0.269453 0.128429 0)
(0.281634 0.136468 0)
(0.293607 0.144109 0)
(0.305226 0.151197 0)
(0.316316 0.157549 0)
(0.326664 0.162948 0)
(0.336024 0.167148 0)
(0.344105 0.169876 0)
(0.350574 0.170844 0)
(0.355063 0.169757 0)
(0.357182 0.166357 0)
(0.00213877 -0.00555388 0)
(0.00580237 -0.0103045 0)
(0.00981874 -0.0126651 0)
(0.0140502 -0.0142239 0)
(0.0184348 -0.0153375 0)
(0.0229331 -0.0161083 0)
(0.0275468 -0.0165674 0)
(0.0322859 -0.0167198 0)
(0.0371625 -0.0165602 0)
(0.04219 -0.0160782 0)
(0.0473836 -0.0152614 0)
(0.0527602 -0.0140969 0)
(0.0583381 -0.0125719 0)
(0.064136 -0.0106744 0)
(0.0701733 -0.00839274 0)
(0.0764692 -0.0057167 0)
(0.0830425 -0.00263706 0)
(0.0899117 0.000853261 0)
(0.0970942 0.00476042 0)
(0.104606 0.00908772 0)
(0.112463 0.0138362 0)
(0.120679 0.0190037 0)
(0.129263 0.0245843 0)
(0.138223 0.030568 0)
(0.14756 0.0369409 0)
(0.157273 0.043684 0)
(0.167354 0.0507738 0)
(0.177789 0.0581814 0)
(0.188557 0.0658727 0)
(0.199629 0.0738084 0)
(0.21097 0.0819435 0)
(0.222533 0.0902266 0)
(0.234262 0.0985991 0)
(0.246089 0.106993 0)
(0.257936 0.115331 0)
(0.269706 0.123519 0)
(0.281286 0.13145 0)
(0.292541 0.138995 0)
(0.303313 0.146001 0)
(0.313411 0.15229 0)
(0.322613 0.157657 0)
(0.33066 0.161873 0)
(0.33725 0.16469 0)
(0.342054 0.165852 0)
(0.344712 0.165116 0)
(0.00199371 -0.00945745 0)
(0.00540267 -0.014579 0)
(0.00913549 -0.0171102 0)
(0.0130709 -0.0188052 0)
(0.0171532 -0.0200448 0)
(0.0213475 -0.0209422 0)
(0.0256564 -0.0215345 0)
(0.0300904 -0.0218312 0)
(0.0346616 -0.0218299 0)
(0.0393836 -0.0215224 0)
(0.0442715 -0.0208982 0)
(0.0493421 -0.0199455 0)
(0.0546132 -0.0186524 0)
(0.0601032 -0.0170072 0)
(0.0658309 -0.0149987 0)
(0.071815 -0.0126165 0)
(0.0780736 -0.00985091 0)
(0.0846242 -0.00669377 0)
(0.0914836 -0.00313816 0)
(0.098667 0.000820922 0)
(0.106189 0.00518664 0)
(0.11406 0.00995923 0)
(0.122291 0.0151362 0)
(0.130888 0.0207118 0)
(0.139851 0.0266766 0)
(0.149177 0.0330175 0)
(0.15886 0.0397171 0)
(0.168883 0.0467538 0)
(0.179226 0.0541014 0)
(0.189862 0.061729 0)
(0.200754 0.0696007 0)
(0.211858 0.0776755 0)
(0.223119 0.085906 0)
(0.234473 0.0942376 0)
(0.245843 0.102606 0)
(0.25714 0.110937 0)
(0.268257 0.119141 0)
(0.279069 0.127113 0)
(0.289431 0.134729 0)
(0.29917 0.141843 0)
(0.308087 0.148285 0)
(0.315947 0.153867 0)
(0.322482 0.158379 0)
(0.327397 0.161599 0)
(0.330369 0.163311 0)
(0.00186385 -0.0131329 0)
(0.00503886 -0.0185905 0)
(0.00850916 -0.0212817 0)
(0.012168 -0.0231068 0)
(0.0159656 -0.0244691 0)
(0.0198712 -0.0254913 0)
(0.0238887 -0.0262161 0)
(0.0280286 -0.0266569 0)
(0.0323031 -0.0268139 0)
(0.0367258 -0.0266812 0)
(0.0413119 -0.0262496 0)
(0.0460778 -0.0255085 0)
(0.0510409 -0.0244466 0)
(0.0562191 -0.0230529 0)
(0.0616308 -0.0213162 0)
(0.0672939 -0.0192259 0)
(0.0732257 -0.016772 0)
(0.0794432 -0.0139452 0)
(0.0859625 -0.0107375 0)
(0.0927981 -0.00714196 0)
(0.0999631 -0.00315326 0)
(0.107468 0.00123152 0)
(0.115322 0.00601317 0)
(0.123528 0.0111896 0)
(0.132089 0.0167563 0)
(0.141 0.0227056 0)
(0.150253 0.0290262 0)
(0.159833 0.0357034 0)
(0.169721 0.0427186 0)
(0.179887 0.0500493 0)
(0.190297 0.0576684 0)
(0.200908 0.0655446 0)
(0.211667 0.0736411 0)
(0.222512 0.0819153 0)
(0.23337 0.0903166 0)
(0.244156 0.0987854 0)
(0.254771 0.107251 0)
(0.265098 0.115629 0)
(0.275005 0.123819 0)
(0.284334 0.131702 0)
(0.292906 0.139142 0)
(0.300513 0.145982 0)
(0.306915 0.152047 0)
(0.311854 0.15715 0)
(0.315044 0.161096 0)
(0.0017471 -0.0166 0)
(0.00470703 -0.0223581 0)
(0.00793407 -0.0251962 0)
(0.0113345 -0.0271435 0)
(0.0148642 -0.028623 0)
(0.0184963 -0.0297659 0)
(0.0222356 -0.0306201 0)
(0.0260928 -0.0312024 0)
(0.0300801 -0.0315156 0)
(0.0342111 -0.0315553 0)
(0.0385008 -0.0313138 0)
(0.0429653 -0.0307815 0)
(0.0476215 -0.0299477 0)
(0.0524868 -0.0288018 0)
(0.0575789 -0.0273327 0)
(0.0629152 -0.0255296 0)
(0.0685123 -0.023382 0)
(0.0743865 -0.0208797 0)
(0.0805531 -0.0180133 0)
(0.0870261 -0.0147741 0)
(0.093818 -0.0111547 0)
(0.100939 -0.00714908 0)
(0.108396 -0.00275311 0)
(0.116193 0.00203504 0)
(0.124331 0.00721524 0)
(0.132805 0.0127848 0)
(0.141607 0.0187386 0)
(0.150722 0.0250685 0)
(0.160131 0.0317634 0)
(0.169806 0.0388086 0)
(0.179713 0.0461858 0)
(0.18981 0.0538726 0)
(0.200047 0.0618427 0)
(0.210365 0.0700642 0)
(0.220694 0.078499 0)
(0.230956 0.0871014 0)
(0.241056 0.0958163 0)
(0.250888 0.104577 0)
(0.26033 0.113305 0)
(0.269242 0.121905 0)
(0.277462 0.130265 0)
(0.28481 0.138258 0)
(0.291074 0.145738 0)
(0.296031 0.152546 0)
(0.299433 0.158506 0)
(0.00164147 -0.0198762 0)
(0.00440319 -0.0258989 0)
(0.00740438 -0.0288695 0)
(0.0105633 -0.0309292 0)
(0.0138409 -0.0325186 0)
(0.0172141 -0.0337764 0)
(0.0206885 -0.0347549 0)
(0.0242747 -0.0354742 0)
(0.027985 -0.035939 0)
(0.0318329 -0.0361467 0)
(0.0358331 -0.0360905 0)
(0.0400012 -0.0357618 0)
(0.0443536 -0.0351506 0)
(0.0489072 -0.0342465 0)
(0.0536791 -0.0330384 0)
(0.0586859 -0.0315155 0)
(0.0639437 -0.0296665 0)
(0.0694681 -0.0274803 0)
(0.0752738 -0.0249463 0)
(0.0813744 -0.0220541 0)
(0.0877816 -0.018794 0)
(0.0945051 -0.0151571 0)
(0.101552 -0.0111361 0)
(0.108925 -0.00672484 0)
(0.116625 -0.00191908 0)
(0.124648 0.00328346 0)
(0.132985 0.00888318 0)
(0.141622 0.0148782 0)
(0.150539 0.0212644 0)
(0.15971 0.0280349 0)
(0.169103 0.0351795 0)
(0.178677 0.0426847 0)
(0.188386 0.0505335 0)
(0.198174 0.0587041 0)
(0.207975 0.0671698 0)
(0.217716 0.0758971 0)
(0.22731 0.0848445 0)
(0.236661 0.0939614 0)
(0.245659 0.103186 0)
(0.254179 0.112442 0)
(0.262081 0.12164 0)
(0.269206 0.130675 0)
(0.275376 0.139424 0)
(0.280398 0.147753 0)
(0.284067 0.155499 0)
(0.00154503 -0.0229764 0)
(0.00412323 -0.0292283 0)
(0.00691422 -0.0323156 0)
(0.00984722 -0.0344771 0)
(0.0128877 -0.0361679 0)
(0.0160162 -0.0375332 0)
(0.0192386 -0.0386296 0)
(0.0225658 -0.0394794 0)
(0.0260097 -0.0400895 0)
(0.0295839 -0.0404586 0)
(0.0333025 -0.0405811 0)
(0.0371808 -0.040449 0)
(0.0412345 -0.0400528 0)
(0.0454798 -0.0393823 0)
(0.0499331 -0.0384267 0)
(0.0546106 -0.0371747 0)
(0.0595278 -0.0356145 0)
(0.0646995 -0.0337343 0)
(0.07014 -0.0315219 0)
(0.0758623 -0.0289653 0)
(0.0818778 -0.0260528 0)
(0.0881958 -0.0227728 0)
(0.094823 -0.0191145 0)
(0.101763 -0.0150682 0)
(0.109016 -0.0106249 0)
(0.116579 -0.0057773 0)
(0.124443 -0.000519611 0)
(0.132594 0.00515223 0)
(0.141014 0.0112404 0)
(0.149678 0.0177451 0)
(0.158555 0.0246642 0)
(0.167609 0.0319924 0)
(0.176794 0.0397213 0)
(0.18606 0.0478384 0)
(0.195347 0.0563268 0)
(0.204587 0.0651638 0)
(0.213702 0.0743198 0)
(0.222606 0.0837569 0)
(0.231201 0.0934269 0)
(0.239379 0.10327 0)
(0.247019 0.113213 0)
(0.253988 0.123169 0)
(0.260138 0.133031 0)
(0.265304 0.142683 0)
(0.269323 0.151979 0)
(0.00145571 -0.0259127 0)
(0.00386312 -0.0323596 0)
(0.00645785 -0.0355475 0)
(0.00917927 -0.0377992 0)
(0.011997 -0.0395821 0)
(0.0148942 -0.0410468 0)
(0.0178775 -0.0422532 0)
(0.0209574 -0.0432261 0)
(0.0241461 -0.0439738 0)
(0.0274565 -0.0444963 0)
(0.0309025 -0.044789 0)
(0.0344987 -0.0448445 0)
(0.0382602 -0.0446538 0)
(0.0422024 -0.0442071 0)
(0.0463412 -0.0434934 0)
(0.050692 -0.0425013 0)
(0.0552699 -0.0412184 0)
(0.0600891 -0.0396321 0)
(0.0651634 -0.0377289 0)
(0.0705054 -0.0354953 0)
(0.0761262 -0.0329174 0)
(0.082035 -0.0299812 0)
(0.0882386 -0.0266727 0)
(0.0947408 -0.0229786 0)
(0.101543 -0.0188856 0)
(0.108641 -0.0143817 0)
(0.116028 -0.00945552 0)
(0.123693 -0.00409724 0)
(0.131616 0.00170141 0)
(0.139776 0.00794715 0)
(0.148144 0.0146447 0)
(0.156687 0.0217965 0)
(0.165363 0.0294019 0)
(0.174126 0.037457 0)
(0.182923 0.0459534 0)
(0.191693 0.0548773 0)
(0.200367 0.064209 0)
(0.20887 0.0739205 0)
(0.217118 0.083975 0)
(0.225018 0.0943243 0)
(0.232469 0.104908 0)
(0.239362 0.11565 0)
(0.245578 0.12646 0)
(0.250983 0.137228 0)
(0.255448 0.147825 0)
(0.0013719 -0.0286946 0)
(0.00361918 -0.035304 0)
(0.00603005 -0.0385768 0)
(0.00855304 -0.0409071 0)
(0.0111612 -0.0427723 0)
(0.0138402 -0.0443275 0)
(0.0165967 -0.0456354 0)
(0.0194414 -0.0467227 0)
(0.022386 -0.0475992 0)
(0.0254431 -0.0482659 0)
(0.0286262 -0.048719 0)
(0.0319491 -0.0489518 0)
(0.0354261 -0.0489558 0)
(0.0390721 -0.0487213 0)
(0.0429022 -0.0482375 0)
(0.0469312 -0.0474925 0)
(0.0511736 -0.0464739 0)
(0.0556433 -0.0451679 0)
(0.0603534 -0.0435602 0)
(0.0653162 -0.0416356 0)
(0.0705429 -0.0393783 0)
(0.0760426 -0.036772 0)
(0.0818222 -0.0337998 0)
(0.0878862 -0.0304449 0)
(0.0942364 -0.0266901 0)
(0.100871 -0.0225189 0)
(0.107783 -0.0179149 0)
(0.114963 -0.0128627 0)
(0.122396 -0.00734804 0)
(0.13006 -0.00135807 0)
(0.137931 0.00511819 0)
(0.145978 0.0120896 0)
(0.154165 0.0195627 0)
(0.162452 0.0275407 0)
(0.170791 0.0360224 0)
(0.179129 0.0450017 0)
(0.187409 0.0544662 0)
(0.195564 0.0643959 0)
(0.203526 0.074762 0)
(0.211218 0.0855247 0)
(0.218559 0.0966319 0)
(0.22546 0.108017 0)
(0.23183 0.119597 0)
(0.237566 0.131269 0)
(0.242568 0.142912 0)
(0.00129209 -0.0313293 0)
(0.00338823 -0.0380714 0)
(0.00562617 -0.0414138 0)
(0.00796271 -0.0438111 0)
(0.0103738 -0.0457486 0)
(0.0128467 -0.047385 0)
(0.0153884 -0.0487854 0)
(0.0180096 -0.049978 0)
(0.0207216 -0.0509737 0)
(0.0235364 -0.0517745 0)
(0.0264668 -0.0523772 0)
(0.0295259 -0.0527759 0)
(0.0327274 -0.0529625 0)
(0.0360854 -0.0529274 0)
(0.0396142 -0.0526599 0)
(0.0433282 -0.0521482 0)
(0.0472411 -0.0513793 0)
(0.0513664 -0.0503389 0)
(0.0557168 -0.0490116 0)
(0.0603046 -0.0473811 0)
(0.0651407 -0.0454297 0)
(0.0702344 -0.0431388 0)
(0.0755932 -0.0404891 0)
(0.0812223 -0.0374604 0)
(0.0871243 -0.034032 0)
(0.0932987 -0.0301833 0)
(0.0997414 -0.0258932 0)
(0.106444 -0.0211414 0)
(0.113394 -0.015908 0)
(0.120575 -0.0101745 0)
(0.127965 -0.00392394 0)
(0.135536 0.00285819 0)
(0.143259 0.0101841 0)
(0.151098 0.0180629 0)
(0.159014 0.0264994 0)
(0.166963 0.0354934 0)
(0.174896 0.0450381 0)
(0.18276 0.0551194 0)
(0.190498 0.0657137 0)
(0.198051 0.0767866 0)
(0.205356 0.0882915 0)
(0.212345 0.100167 0)
(0.21895 0.112335 0)
(0.225097 0.124696 0)
(0.230713 0.137132 0)
(0.00121494 -0.0338219 0)
(0.00316765 -0.0406695 0)
(0.00524233 -0.0440677 0)
(0.0074033 -0.0465207 0)
(0.00962865 -0.0485207 0)
(0.011907 -0.050229 0)
(0.0142457 -0.0517125 0)
(0.0166549 -0.0530006 0)
(0.0191456 -0.0541053 0)
(0.0217293 -0.0550294 0)
(0.0244177 -0.0557703 0)
(0.0272234 -0.0563226 0)
(0.0301592 -0.0566787 0)
(0.0332385 -0.0568293 0)
(0.0364749 -0.0567638 0)
(0.0398821 -0.0564704 0)
(0.0434732 -0.0559357 0)
(0.0472614 -0.0551451 0)
(0.051259 -0.0540824 0)
(0.0554781 -0.05273 0)
(0.0599297 -0.051069 0)
(0.0646235 -0.0490787 0)
(0.0695674 -0.0467374 0)
(0.0747677 -0.0440221 0)
(0.0802282 -0.040909 0)
(0.0859501 -0.0373735 0)
(0.0919314 -0.0333906 0)
(0.0981666 -0.0289353 0)
(0.104646 -0.023983 0)
(0.111357 -0.0185101 0)
(0.118282 -0.0124946 0)
(0.125399 -0.00591646 0)
(0.132683 0.00124122 0)
(0.140106 0.00899202 0)
(0.147635 0.0173453 0)
(0.155235 0.0263053 0)
(0.162869 0.0358693 0)
(0.170493 0.0460266 0)
(0.178067 0.0567572 0)
(0.185543 0.0680297 0)
(0.192878 0.0797999 0)
(0.200022 0.0920087 0)
(0.206927 0.10458 0)
(0.213545 0.117416 0)
(0.219826 0.1304 0)
(0.00113953 -0.0361759 0)
(0.00295547 -0.0431051 0)
(0.00487554 -0.0465464 0)
(0.00687076 -0.0490448 0)
(0.00892087 -0.0510977 0)
(0.0110157 -0.0528687 0)
(0.0131624 -0.0544257 0)
(0.015371 -0.0557994 0)
(0.0176518 -0.0570025 0)
(0.0200154 -0.0580385 0)
(0.022473 -0.0589055 0)
(0.025036 -0.0595986 0)
(0.0277167 -0.0601106 0)
(0.0305275 -0.0604324 0)
(0.0334815 -0.0605539 0)
(0.0365914 -0.060463 0)
(0.0398702 -0.0601463 0)
(0.0433303 -0.0595889 0)
(0.0469838 -0.0587741 0)
(0.0508427 -0.0576834 0)
(0.0549181 -0.0562965 0)
(0.0592202 -0.0545915 0)
(0.0637576 -0.0525445 0)
(0.0685376 -0.0501301 0)
(0.0735655 -0.0473215 0)
(0.0788446 -0.0440911 0)
(0.0843751 -0.04041 0)
(0.0901547 -0.0362495 0)
(0.0961775 -0.0315809 0)
(0.102434 -0.026376 0)
(0.108913 -0.0206086 0)
(0.115596 -0.0142542 0)
(0.122466 -0.00729163 0)
(0.129501 0.000296248 0)
(0.136677 0.00852198 0)
(0.143966 0.0173925 0)
(0.151341 0.0269077 0)
(0.158773 0.0370591 0)
(0.16623 0.047828 0)
(0.173681 0.0591841 0)
(0.181096 0.0710837 0)
(0.188445 0.083468 0)
(0.195697 0.0962607 0)
(0.202822 0.109365 0)
(0.209793 0.122662 0)
(0.00106544 -0.0383937 0)
(0.00275045 -0.0453837 0)
(0.00452369 -0.048857 0)
(0.0063621 -0.0513916 0)
(0.0082467 -0.0534886 0)
(0.0101683 -0.0553132 0)
(0.0121339 -0.0569343 0)
(0.0141528 -0.0583833 0)
(0.0162348 -0.059674 0)
(0.0183896 -0.0608102 0)
(0.0206274 -0.0617909 0)
(0.022959 -0.0626115 0)
(0.0253956 -0.0632651 0)
(0.027949 -0.0637433 0)
(0.0306313 -0.0640359 0)
(0.0334548 -0.0641313 0)
(0.0364318 -0.064016 0)
(0.0395742 -0.0636748 0)
(0.042894 -0.0630906 0)
(0.0464029 -0.0622445 0)
(0.0501123 -0.0611152 0)
(0.0540328 -0.0596797 0)
(0.058174 -0.0579126 0)
(0.0625442 -0.0557864 0)
(0.0671505 -0.0532721 0)
(0.071998 -0.0503392 0)
(0.07709 -0.0469561 0)
(0.0824269 -0.0430904 0)
(0.088007 -0.03871 0)
(0.0938254 -0.0337833 0)
(0.0998748 -0.0282802 0)
(0.106145 -0.0221729 0)
(0.112623 -0.0154369 0)
(0.119296 -0.00805209 0)
(0.126146 -3.69612e-06 0)
(0.133155 0.00871674 0)
(0.140307 0.0181103 0)
(0.14758 0.028169 0)
(0.154957 0.0388746 0)
(0.162419 0.0501961 0)
(0.169949 0.0620891 0)
(0.177532 0.0744936 0)
(0.185152 0.087332 0)
(0.192795 0.100507 0)
(0.200452 0.113897 0)
(0.000992383 -0.0404772 0)
(0.00255194 -0.04751 0)
(0.00418553 -0.0510061 0)
(0.0058754 -0.0535687 0)
(0.00760366 -0.0557019 0)
(0.00936193 -0.0575716 0)
(0.0111567 -0.0592475 0)
(0.0129967 -0.0607618 0)
(0.0148906 -0.0621289 0)
(0.0168476 -0.0633536 0)
(0.018877 -0.0644352 0)
(0.0209884 -0.0653696 0)
(0.0231924 -0.0661505 0)
(0.0254998 -0.0667698 0)
(0.0279221 -0.0672177 0)
(0.0304708 -0.0674827 0)
(0.0331576 -0.0675515 0)
(0.0359941 -0.067409 0)
(0.038992 -0.067038 0)
(0.0421627 -0.0664191 0)
(0.045518 -0.0655306 0)
(0.0490687 -0.0643485 0)
(0.0528255 -0.0628465 0)
(0.0567979 -0.0609958 0)
(0.0609947 -0.0587655 0)
(0.0654233 -0.056123 0)
(0.0700895 -0.0530342 0)
(0.0749975 -0.0494643 0)
(0.0801491 -0.0453783 0)
(0.0855444 -0.0407416 0)
(0.0911812 -0.0355215 0)
(0.0970552 -0.0296873 0)
(0.103161 -0.0232122 0)
(0.109491 -0.0160741 0)
(0.116037 -0.00825645 0)
(0.12279 0.00024979 0)
(0.12974 0.00944579 0)
(0.136879 0.0193232 0)
(0.144198 0.0298628 0)
(0.151691 0.0410324 0)
(0.15935 0.0527859 0)
(0.167174 0.0650612 0)
(0.175159 0.0777791 0)
(0.183304 0.0908406 0)
(0.191614 0.104124 0)
(0.000920345 -0.0424278 0)
(0.00235982 -0.0494886 0)
(0.0038606 -0.0529999 0)
(0.00540983 -0.0555836 0)
(0.00699056 -0.0577457 0)
(0.00859502 -0.0596524 0)
(0.010229 -0.0613742 0)
(0.0119002 -0.062944 0)
(0.0136167 -0.0643768 0)
(0.0153867 -0.0656781 0)
(0.0172187 -0.0668478 0)
(0.0191214 -0.0678824 0)
(0.0211044 -0.0687761 0)
(0.0231778 -0.0695211 0)
(0.025352 -0.0701081 0)
(0.0276382 -0.0705259 0)
(0.0300474 -0.0707617 0)
(0.0325908 -0.0708003 0)
(0.0352796 -0.0706247 0)
(0.0381254 -0.0702154 0)
(0.0411396 -0.0695505 0)
(0.0443339 -0.0686057 0)
(0.0477195 -0.0673539 0)
(0.0513075 -0.0657655 0)
(0.0551082 -0.0638087 0)
(0.0591312 -0.0614493 0)
(0.0633852 -0.0586516 0)
(0.0678776 -0.0553788 0)
(0.0726146 -0.0515938 0)
(0.0776006 -0.0472601 0)
(0.0828389 -0.0423425 0)
(0.0883311 -0.0368088 0)
(0.0940781 -0.0306305 0)
(0.10008 -0.0237839 0)
(0.106336 -0.0162521 0)
(0.112845 -0.00802545 0)
(0.119607 0.000896517 0)
(0.126622 0.0105045 0)
(0.133889 0.0207775 0)
(0.141413 0.0316818 0)
(0.149196 0.0431689 0)
(0.157246 0.0551749 0)
(0.16557 0.0676184 0)
(0.174176 0.0803991 0)
(0.183079 0.0933959 0)
(0.000849754 -0.0442472 0)
(0.00217442 -0.0513243 0)
(0.00354916 -0.0548444 0)
(0.00496549 -0.0574433 0)
(0.00640732 -0.0596276 0)
(0.00786718 -0.0615638 0)
(0.00934993 -0.063323 0)
(0.0108624 -0.0649387 0)
(0.0124118 -0.0664267 0)
(0.0140053 -0.0677929 0)
(0.0156508 -0.0690382 0)
(0.0173561 -0.0701596 0)
(0.0191299 -0.0711516 0)
(0.0209812 -0.0720071 0)
(0.02292 -0.0727172 0)
(0.0249565 -0.0732712 0)
(0.0271013 -0.0736565 0)
(0.0293651 -0.0738586 0)
(0.0317588 -0.0738605 0)
(0.0342936 -0.0736432 0)
(0.0369813 -0.0731847 0)
(0.0398336 -0.0724608 0)
(0.0428627 -0.0714442 0)
(0.0460807 -0.0701051 0)
(0.0494994 -0.0684109 0)
(0.0531309 -0.066327 0)
(0.0569863 -0.0638167 0)
(0.0610766 -0.0608419 0)
(0.0654116 -0.0573644 0)
(0.0700007 -0.0533462 0)
(0.0748519 -0.048751 0)
(0.0799729 -0.0435451 0)
(0.0853707 -0.037699 0)
(0.0910521 -0.0311887 0)
(0.0970239 -0.0239968 0)
(0.103293 -0.016114 0)
(0.109867 -0.00754058 0)
(0.116752 0.00171272 0)
(0.123959 0.0116234 0)
(0.131497 0.0221554 0)
(0.13938 0.0332585 0)
(0.147621 0.0448665 0)
(0.156234 0.0568965 0)
(0.165236 0.0692472 0)
(0.174648 0.0817984 0)
(0.000780989 -0.0459377 0)
(0.00199643 -0.053022 0)
(0.00325206 -0.0565461 0)
(0.00454328 -0.0591547 0)
(0.00585472 -0.061355 0)
(0.00717892 -0.0633137 0)
(0.00851978 -0.0651022 0)
(0.00988318 -0.0667547 0)
(0.0112754 -0.0682875 0)
(0.0127028 -0.0697076 0)
(0.0141725 -0.0710161 0)
(0.0156916 -0.0722109 0)
(0.0172678 -0.0732871 0)
(0.0189094 -0.0742381 0)
(0.0206255 -0.0750555 0)
(0.0224256 -0.0757291 0)
(0.0243197 -0.0762469 0)
(0.026318 -0.0765949 0)
(0.0284312 -0.0767568 0)
(0.0306701 -0.0767138 0)
(0.0330465 -0.0764446 0)
(0.0355724 -0.0759251 0)
(0.0382605 -0.0751285 0)
(0.0411239 -0.074025 0)
(0.0441759 -0.0725824 0)
(0.0474304 -0.0707658 0)
(0.0509012 -0.0685383 0)
(0.0546023 -0.0658617 0)
(0.0585473 -0.062697 0)
(0.0627497 -0.0590057 0)
(0.0672226 -0.054751 0)
(0.0719791 -0.0498985 0)
(0.077032 -0.0444185 0)
(0.0823946 -0.0382868 0)
(0.0880802 -0.0314861 0)
(0.0941027 -0.0240078 0)
(0.100476 -0.015853 0)
(0.107216 -0.00703376 0)
(0.114338 0.00242554 0)
(0.121859 0.0124875 0)
(0.129797 0.0230997 0)
(0.138174 0.0341947 0)
(0.147007 0.0456884 0)
(0.156319 0.0574792 0)
(0.166137 0.0694487 0)
(0.000714605 -0.0475025 0)
(0.00182688 -0.0545877 0)
(0.00297072 -0.0581117 0)
(0.00414478 -0.0607252 0)
(0.00533424 -0.0629356 0)
(0.00653148 -0.0649098 0)
(0.00773949 -0.0667199 0)
(0.00896322 -0.0684003 0)
(0.010208 -0.0699682 0)
(0.0114796 -0.0714311 0)
(0.012784 -0.0727909 0)
(0.0141279 -0.0740462 0)
(0.0155182 -0.0751929 0)
(0.0169624 -0.0762247 0)
(0.0184687 -0.0771339 0)
(0.0200459 -0.077911 0)
(0.0217033 -0.0785445 0)
(0.0234508 -0.0790212 0)
(0.0252986 -0.0793255 0)
(0.0272573 -0.0794394 0)
(0.0293385 -0.0793422 0)
(0.0315544 -0.0790106 0)
(0.0339179 -0.0784185 0)
(0.036443 -0.0775368 0)
(0.0391441 -0.0763338 0)
(0.0420369 -0.0747753 0)
(0.0451372 -0.072825 0)
(0.0484618 -0.0704449 0)
(0.0520278 -0.0675964 0)
(0.0558525 -0.0642411 0)
(0.0599535 -0.0603423 0)
(0.0643488 -0.0558659 0)
(0.0690566 -0.0507821 0)
(0.0740959 -0.045067 0)
(0.079486 -0.038704 0)
(0.085247 -0.031685 0)
(0.0913994 -0.0240121 0)
(0.0979641 -0.0156986 0)
(0.104963 -0.00677014 0)
(0.112419 0.00273441 0)
(0.120355 0.0127619 0)
(0.128795 0.0232437 0)
(0.137762 0.0340955 0)
(0.147281 0.0452167 0)
(0.157382 0.0564909 0)
(0.000651352 -0.048946 0)
(0.00166726 -0.056028 0)
(0.00270708 -0.0595487 0)
(0.00377213 -0.0621624 0)
(0.00484793 -0.0643772 0)
(0.00592666 -0.0663604 0)
(0.00701061 -0.0681843 0)
(0.00810382 -0.0698842 0)
(0.00921076 -0.0714776 0)
(0.0103364 -0.0729728 0)
(0.0114861 -0.0743725 0)
(0.0126657 -0.0756759 0)
(0.0138815 -0.0768795 0)
(0.0151405 -0.077978 0)
(0.0164499 -0.0789641 0)
(0.0178179 -0.079829 0)
(0.0192531 -0.0805621 0)
(0.0207649 -0.0811507 0)
(0.0223629 -0.0815803 0)
(0.0240576 -0.0818336 0)
(0.0258602 -0.0818912 0)
(0.027783 -0.0817307 0)
(0.0298392 -0.0813271 0)
(0.0320429 -0.0806525 0)
(0.0344099 -0.0796763 0)
(0.0369567 -0.0783654 0)
(0.0397011 -0.0766847 0)
(0.0426622 -0.0745973 0)
(0.0458598 -0.0720656 0)
(0.0493146 -0.0690522 0)
(0.0530482 -0.0655209 0)
(0.0570829 -0.0614385 0)
(0.0614416 -0.0567759 0)
(0.0661484 -0.0515097 0)
(0.0712277 -0.045624 0)
(0.0767049 -0.0391115 0)
(0.0826059 -0.0319752 0)
(0.0889568 -0.0242291 0)
(0.0957842 -0.0158997 0)
(0.103115 -0.00702696 0)
(0.110976 0.00233578 0)
(0.119394 0.0121202 0)
(0.128395 0.0222427 0)
(0.138006 0.0326043 0)
(0.148255 0.0430913 0)
(0.000592388 -0.0502745 0)
(0.00151949 -0.0573506 0)
(0.00246354 -0.0608649 0)
(0.00342786 -0.0634745 0)
(0.00439816 -0.0656882 0)
(0.00536667 -0.0676738 0)
(0.00633507 -0.0695041 0)
(0.00730664 -0.0712149 0)
(0.00828504 -0.0728246 0)
(0.00927443 -0.074342 0)
(0.0102796 -0.0757706 0)
(0.0113057 -0.0771103 0)
(0.0123586 -0.0783583 0)
(0.0134444 -0.0795098 0)
(0.0145699 -0.0805586 0)
(0.0157424 -0.0814963 0)
(0.01697 -0.0823132 0)
(0.0182614 -0.0829975 0)
(0.0196257 -0.0835356 0)
(0.0210731 -0.0839115 0)
(0.0226144 -0.0841068 0)
(0.0242618 -0.0841005 0)
(0.0260283 -0.0838689 0)
(0.0279285 -0.0833859 0)
(0.0299785 -0.0826224 0)
(0.0321957 -0.0815471 0)
(0.0345993 -0.0801263 0)
(0.03721 -0.0783251 0)
(0.0400499 -0.0761074 0)
(0.0431425 -0.0734374 0)
(0.0465123 -0.0702804 0)
(0.0501854 -0.0666044 0)
(0.0541886 -0.0623813 0)
(0.0585502 -0.0575888 0)
(0.0632989 -0.0522117 0)
(0.0684648 -0.0462436 0)
(0.0740778 -0.039688 0)
(0.0801685 -0.0325594 0)
(0.0867672 -0.0248849 0)
(0.093904 -0.0167039 0)
(0.101609 -0.00807013 0)
(0.10991 0.000949461 0)
(0.118834 0.0102732 0)
(0.128409 0.0198051 0)
(0.138663 0.0294343 0)
(0.000538929 -0.0514962 0)
(0.00138573 -0.0585644 0)
(0.00224267 -0.0620691 0)
(0.0031146 -0.06467 0)
(0.00398747 -0.066877 0)
(0.0048538 -0.0688585 0)
(0.00571488 -0.0706877 0)
(0.00657335 -0.0724013 0)
(0.00743216 -0.0740183 0)
(0.00829481 -0.0755483 0)
(0.00916544 -0.0769954 0)
(0.0100488 -0.0783602 0)
(0.01095 -0.0796405 0)
(0.0118748 -0.0808325 0)
(0.0128293 -0.0819304 0)
(0.0138202 -0.0829268 0)
(0.0148549 -0.0838126 0)
(0.0159414 -0.0845772 0)
(0.0170884 -0.0852078 0)
(0.0183056 -0.0856897 0)
(0.0196034 -0.0860058 0)
(0.0209934 -0.0861368 0)
(0.0224887 -0.0860607 0)
(0.0241038 -0.0857531 0)
(0.0258548 -0.085187 0)
(0.0277597 -0.0843331 0)
(0.0298384 -0.0831603 0)
(0.0321126 -0.0816355 0)
(0.034606 -0.0797252 0)
(0.037344 -0.0773954 0)
(0.0403537 -0.0746137 0)
(0.0436637 -0.0713497 0)
(0.047304 -0.0675769 0)
(0.0513061 -0.0632743 0)
(0.0557024 -0.0584275 0)
(0.0605261 -0.0530308 0)
(0.0658109 -0.0470882 0)
(0.0715905 -0.0406143 0)
(0.077898 -0.0336359 0)
(0.0847662 -0.0261919 0)
(0.0922264 -0.0183345 0)
(0.100309 -0.0101292 0)
(0.10904 -0.00165494 0)
(0.118447 0.00699629 0)
(0.128555 0.0157183 0)
(0.000492421 -0.0526221 0)
(0.0012681 -0.0596795 0)
(0.00204682 -0.0631703 0)
(0.00283468 -0.0657576 0)
(0.00361802 -0.0679521 0)
(0.00439001 -0.0699227 0)
(0.00515168 -0.0717434 0)
(0.00590519 -0.0734518 0)
(0.00665297 -0.0750675 0)
(0.00739798 -0.0766009 0)
(0.00814389 -0.0780568 0)
(0.00889491 -0.0794363 0)
(0.00965577 -0.0807381 0)
(0.0104316 -0.0819587 0)
(0.0112281 -0.0830933 0)
(0.0120513 -0.0841351 0)
(0.0129079 -0.085076 0)
(0.0138054 -0.0859061 0)
(0.0147519 -0.086614 0)
(0.0157564 -0.087186 0)
(0.0168288 -0.0876067 0)
(0.0179803 -0.0878583 0)
(0.0192234 -0.0879207 0)
(0.0205724 -0.0877717 0)
(0.0220432 -0.0873866 0)
(0.0236538 -0.0867386 0)
(0.0254243 -0.0857991 0)
(0.0273769 -0.0845378 0)
(0.0295361 -0.0829239 0)
(0.0319284 -0.0809262 0)
(0.0345826 -0.0785145 0)
(0.037529 -0.0756608 0)
(0.0407997 -0.0723406 0)
(0.0444285 -0.0685342 0)
(0.0484503 -0.0642286 0)
(0.0529007 -0.0594185 0)
(0.057816 -0.0541082 0)
(0.0632321 -0.048312 0)
(0.0691846 -0.0420559 0)
(0.0757074 -0.0353775 0)
(0.0828331 -0.0283271 0)
(0.0905921 -0.0209673 0)
(0.0990109 -0.0133738 0)
(0.108116 -0.00563395 0)
(0.11793 0.00215125 0)
(0.00045393 -0.0536653 0)
(0.00116826 -0.0607071 0)
(0.00187761 -0.0641782 0)
(0.00258956 -0.0667458 0)
(0.0032911 -0.0689215 0)
(0.00397627 -0.0708743 0)
(0.00464605 -0.0726792 0)
(0.0053023 -0.0743745 0)
(0.00594719 -0.0759808 0)
(0.00658338 -0.0775091 0)
(0.00721412 -0.0789648 0)
(0.00784323 -0.0803495 0)
(0.008475 -0.0816625 0)
(0.00911409 -0.0829011 0)
(0.00976558 -0.0840609 0)
(0.0104351 -0.0851361 0)
(0.0111287 -0.0861191 0)
(0.0118532 -0.0870013 0)
(0.0126161 -0.087772 0)
(0.0134257 -0.0884192 0)
(0.0142914 -0.0889287 0)
(0.0152235 -0.0892845 0)
(0.0162342 -0.0894687 0)
(0.017337 -0.0894612 0)
(0.0185473 -0.0892397 0)
(0.0198826 -0.0887803 0)
(0.0213629 -0.0880573 0)
(0.0230102 -0.0870434 0)
(0.0248491 -0.0857108 0)
(0.0269065 -0.0840314 0)
(0.0292118 -0.0819781 0)
(0.0317961 -0.0795254 0)
(0.0346928 -0.076651 0)
(0.0379367 -0.0733372 0)
(0.0415642 -0.0695721 0)
(0.0456126 -0.0653512 0)
(0.0501193 -0.0606787 0)
(0.0551219 -0.0555685 0)
(0.060657 -0.0500451 0)
(0.0667596 -0.0441443 0)
(0.0734626 -0.0379136 0)
(0.0807964 -0.0314123 0)
(0.0887865 -0.0247115 0)
(0.0974576 -0.0178937 0)
(0.106832 -0.0110538 0)
(0.000424475 -0.0546405 0)
(0.00108705 -0.0616591 0)
(0.00173548 -0.0651023 0)
(0.00237924 -0.0676431 0)
(0.00300633 -0.0697928 0)
(0.00361179 -0.0717208 0)
(0.00419674 -0.0735026 0)
(0.00476309 -0.0751775 0)
(0.00531294 -0.0767667 0)
(0.00584885 -0.0782819 0)
(0.00637382 -0.0797292 0)