/*--------------------------------*- C++ -*----------------------------------*\
| =========                 |                                                 |
| \\      /  F ield         | OpenFOAM: The Open Source CFD Toolbox           |
|  \\    /   O peration     | Version:  5.0                                   |
|   \\  /    A nd           | Web:      www.OpenFOAM.org                      |
|    \\/     M anipulation  |                                                 |
\*---------------------------------------------------------------------------*/
FoamFile
{
    version     2.0;
    format      ascii;
    class       surfaceScalarField;
    location    "0.15";
    object      alphaPhi10;
}
// * * * * * * * * * * * * * * * * * * * * * * * * * * * * * * * * * * * * * //

dimensions      [0 3 -1 0 0 0 0];

internalField   nonuniform List<scalar> 
3781
(
3.36732e-09
-3.36732e-09
2.03006e-06
-2.02669e-06
5.09825e-06
-3.06818e-06
8.4342e-06
-3.33595e-06
1.17606e-05
-3.32637e-06
1.50007e-05
-3.2401e-06
1.81403e-05
-3.13965e-06
2.1186e-05
-3.04568e-06
2.4152e-05
-2.96596e-06
2.70553e-05
-2.90329e-06
2.99138e-05
-2.85859e-06
3.2746e-05
-2.83215e-06
3.55702e-05
-2.82421e-06
3.84054e-05
-2.8352e-06
4.12712e-05
-2.8658e-06
4.41882e-05
-2.91697e-06
4.7178e-05
-2.98987e-06
5.02637e-05
-3.08565e-06
5.34688e-05
-3.2051e-06
5.68168e-05
-3.34806e-06
6.03295e-05
-3.51261e-06
6.40235e-05
-3.69399e-06
6.79067e-05
-3.88327e-06
7.19727e-05
-4.06594e-06
7.61933e-05
-4.22062e-06
8.05118e-05
-4.31849e-06
8.48359e-05
-4.32413e-06
8.90336e-05
-4.19772e-06
9.293e-05
-3.8964e-06
9.63178e-05
-3.38776e-06
9.89825e-05
-2.66468e-06
0.00010058
-1.59705e-06
0.000100673
-9.34909e-08
9.88333e-05
1.8382e-06
9.56214e-05
3.21217e-06
9.17455e-05
3.87668e-06
8.79285e-05
3.81697e-06
8.47275e-05
3.20098e-06
8.23957e-05
2.33183e-06
7.86226e-05
1.52337e-06
7.75409e-05
7.788e-07
7.65569e-05
-3.27887e-07
6.04385e-05
-8.28193e-07
-3.83494e-09
1.66922e-06
-1.67259e-06
4.39134e-06
-4.74881e-06
7.33867e-06
-6.01551e-06
1.03287e-05
-6.32597e-06
1.32831e-05
-6.28083e-06
1.61714e-05
-6.12834e-06
1.89881e-05
-5.95634e-06
2.174e-05
-5.79758e-06
2.44392e-05
-5.66517e-06
2.71003e-05
-5.56441e-06
2.97391e-05
-5.4974e-06
3.2372e-05
-5.46505e-06
3.50159e-05
-5.46806e-06
3.7688e-05
-5.50739e-06
4.04066e-05
-5.58435e-06
4.31903e-05
-5.70068e-06
4.60587e-05
-5.85823e-06
4.90316e-05
-6.0586e-06
5.21288e-05
-6.30228e-06
5.53683e-05
-6.58758e-06
5.87647e-05
-6.90898e-06
6.23259e-05
-7.2552e-06
6.60495e-05
-7.60688e-06
6.99178e-05
-7.93421e-06
7.38921e-05
-8.19497e-06
7.79073e-05
-8.33371e-06
8.18665e-05
-8.28328e-06
8.56383e-05
-7.96951e-06
8.90619e-05
-7.32009e-06
9.19596e-05
-6.28541e-06
9.41594e-05
-4.86444e-06
9.56568e-05
-3.09448e-06
9.65679e-05
-1.00465e-06
9.71197e-05
1.28364e-06
9.68931e-05
3.4364e-06
9.57708e-05
4.99612e-06
9.3964e-05
5.61476e-06
9.19732e-05
5.17479e-06
9.02546e-05
3.85335e-06
8.76017e-05
2.15023e-06
5.77825e-05
6.63116e-07
1.37113e-05
7.15623e-08
6.63264e-06
-3.18037e-08
-1.35848e-07
2.67009e-06
-4.34268e-06
5.7603e-06
-7.83903e-06
8.67225e-06
-8.92746e-06
1.14559e-05
-9.1096e-06
1.41514e-05
-8.97633e-06
1.67748e-05
-8.75178e-06
1.93381e-05
-8.51957e-06
2.18532e-05
-8.31274e-06
2.43335e-05
-8.1454e-06
2.67928e-05
-8.02373e-06
2.92458e-05
-7.95046e-06
3.17077e-05
-7.92694e-06
3.41939e-05
-7.95428e-06
3.67204e-05
-8.03381e-06
3.93033e-05
-8.16729e-06
4.19594e-05
-8.35678e-06
4.47055e-05
-8.60432e-06
4.7558e-05
-8.9111e-06
5.05321e-05
-9.27639e-06
5.36403e-05
-9.69583e-06
5.68906e-05
-1.01592e-05
6.02834e-05
-1.0648e-05
6.38082e-05
-1.11317e-05
6.74399e-05
-1.15659e-05
7.11335e-05
-1.18886e-05
7.48205e-05
-1.20206e-05
7.84042e-05
-1.1867e-05
8.17592e-05
-1.13245e-05
8.47357e-05
-1.02965e-05
8.71703e-05
-8.72003e-06
8.89103e-05
-6.60449e-06
8.98819e-05
-4.0661e-06
9.01847e-05
-1.30744e-06
9.00345e-05
1.43382e-06
8.95837e-05
3.83806e-06
8.89473e-05
5.50794e-06
8.84382e-05
6.10324e-06
8.80555e-05
5.37231e-06
8.54657e-05
3.37797e-06
6.23109e-05
1.09428e-06
1.40361e-05
5.50469e-08
1.9076e-07
-3.63505e-08
6.33036e-07
-3.22211e-08
-7.5835e-08
3.12196e-06
-7.46464e-06
6.47735e-06
-1.11944e-05
9.43156e-06
-1.18817e-05
1.21196e-05
-1.17976e-05
1.46547e-05
-1.15114e-05
1.70936e-05
-1.11907e-05
1.94677e-05
-1.08937e-05
2.17983e-05
-1.06433e-05
2.41024e-05
-1.04495e-05
2.63955e-05
-1.03169e-05
2.86925e-05
-1.02475e-05
3.10081e-05
-1.02425e-05
3.33569e-05
-1.0303e-05
3.57535e-05
-1.04304e-05
3.82126e-05
-1.06264e-05
4.07488e-05
-1.0893e-05
4.33764e-05
-1.12318e-05
4.61084e-05
-1.16431e-05
4.8956e-05
-1.21241e-05
5.19273e-05
-1.26671e-05
5.50246e-05
-1.32566e-05
5.8243e-05
-1.38664e-05
6.15668e-05
-1.44555e-05
6.49662e-05
-1.49652e-05
6.83937e-05
-1.53162e-05
7.17807e-05
-1.54076e-05
7.50344e-05
-1.51207e-05
7.80374e-05
-1.43276e-05
8.06517e-05
-1.29108e-05
8.27317e-05
-1.08001e-05
8.41573e-05
-8.03007e-06
8.48916e-05
-4.80037e-06
8.50427e-05
-1.45856e-06
8.47717e-05
1.61314e-06
8.45021e-05
4.02341e-06
8.44655e-05
5.38666e-06
8.37031e-05
5.16791e-06
7.15049e-05
3.39439e-06
3.36053e-05
7.84273e-07
5.80409e-06
-2.77232e-08
8.60215e-07
-2.70299e-08
8.0671e-08
-3.35517e-08
1.31952e-07
-1.07779e-08
-1.5313e-08
3.31213e-06
-1.07768e-05
6.79455e-06
-1.46768e-05
9.78172e-06
-1.48688e-05
1.2425e-05
-1.44409e-05
1.48647e-05
-1.39511e-05
1.71802e-05
-1.35061e-05
1.94175e-05
-1.3131e-05
2.16068e-05
-1.28325e-05
2.37702e-05
-1.26129e-05
2.59261e-05
-1.24727e-05
2.80905e-05
-1.24119e-05
3.02784e-05
-1.24304e-05
3.2504e-05
-1.25287e-05
3.47812e-05
-1.27076e-05
3.71232e-05
-1.29684e-05
3.95429e-05
-1.33126e-05
4.20519e-05
-1.37409e-05
4.46606e-05
-1.42518e-05
4.73767e-05
-1.48402e-05
5.02043e-05
-1.54947e-05
5.31419e-05
-1.61942e-05
5.61805e-05
-1.69049e-05
5.9301e-05
-1.75761e-05
6.24719e-05
-1.81361e-05
6.56458e-05
-1.849e-05
6.8757e-05
-1.85189e-05
7.17197e-05
-1.80834e-05
7.44271e-05
-1.70349e-05
7.67558e-05
-1.52394e-05
7.858e-05
-1.26243e-05
7.98098e-05
-9.25987e-06
8.0452e-05
-5.44262e-06
8.0607e-05
-1.67865e-06
8.0565e-05
1.51467e-06
8.00022e-05
3.48913e-06
7.15437e-05
3.58831e-06
4.01527e-05
1.62516e-06
9.85168e-06
-8.68603e-09
2.31105e-06
-6.22521e-08
8.58771e-07
-2.36245e-08
1.82704e-07
-1.86623e-08
7.12885e-09
-1.16636e-08
1.4807e-08
-3.19065e-09
-3.58817e-09
3.37771e-06
-1.41545e-05
6.87852e-06
-1.81777e-05
9.86112e-06
-1.78514e-05
1.24716e-05
-1.70514e-05
1.48498e-05
-1.63293e-05
1.70816e-05
-1.5738e-05
1.92206e-05
-1.527e-05
2.13031e-05
-1.4915e-05
2.33554e-05
-1.46653e-05
2.53989e-05
-1.45161e-05
2.74511e-05
-1.44641e-05
2.95277e-05
-1.45071e-05
3.1643e-05
-1.4644e-05
3.38102e-05
-1.48747e-05
3.60414e-05
-1.51996e-05
3.83478e-05
-1.56191e-05
4.07392e-05
-1.61322e-05
4.32231e-05
-1.67358e-05
4.58046e-05
-1.74217e-05
4.84844e-05
-1.81745e-05
5.12581e-05
-1.89678e-05
5.41139e-05
-1.97607e-05
5.70312e-05
-2.04933e-05
5.99782e-05
-2.10831e-05
6.291e-05
-2.14218e-05
6.57664e-05
-2.13753e-05
6.84705e-05
-2.07875e-05
7.09284e-05
-1.94928e-05
7.30321e-05
-1.73432e-05
7.4674e-05
-1.42662e-05
7.57872e-05
-1.03754e-05
7.64187e-05
-6.09015e-06
7.6555e-05
-2.08531e-06
7.20197e-05
9.23378e-07
4.70354e-05
1.44523e-06
1.27848e-05
1.51182e-07
2.15379e-06
-9.3481e-08
8.68863e-07
-3.02964e-08
3.75326e-07
-1.41912e-08
9.80034e-08
-1.05288e-08
1.33335e-08
-6.22404e-09
3.22834e-09
-2.63278e-09
2.78729e-09
-1.00294e-09
1.19899e-10
3.37368e-06
-1.75282e-05
6.82277e-06
-2.16267e-05
9.76628e-06
-2.0795e-05
1.23405e-05
-1.96256e-05
1.46725e-05
-1.86613e-05
1.68445e-05
-1.791e-05
1.89117e-05
-1.73372e-05
2.0913e-05
-1.69162e-05
2.28778e-05
-1.66302e-05
2.48295e-05
-1.64678e-05
2.67872e-05
-1.64218e-05
2.87673e-05
-1.64872e-05
3.07842e-05
-1.66609e-05
3.28506e-05
-1.69411e-05
3.49777e-05
-1.73268e-05
3.71754e-05
-1.78167e-05
3.94515e-05
-1.84083e-05
4.18115e-05
-1.90958e-05
4.42578e-05
-1.9868e-05
4.67888e-05
-2.07055e-05
4.93976e-05
-2.15766e-05
5.20709e-05
-2.2434e-05
5.47876e-05
-2.321e-05
5.75172e-05
-2.38127e-05
6.02185e-05
-2.41231e-05
6.28381e-05
-2.3995e-05
6.53095e-05
-2.32589e-05
6.75519e-05
-2.17352e-05
6.94712e-05
-1.92625e-05
7.09717e-05
-1.57667e-05
7.20057e-05
-1.14093e-05
7.23928e-05
-6.48024e-06
6.1702e-05
-2.49743e-06
2.61314e-05
8.9752e-08
2.65585e-06
-4.21328e-08
4.7004e-07
-2.36745e-08
2.47887e-07
-9.4453e-09
9.59347e-08
-5.68134e-09
1.8144e-08
-3.55972e-09
3.21334e-09
-1.29009e-09
1.33627e-09
-6.08544e-10
6.86766e-10
-4.28935e-10
7.09597e-10
-2.3685e-10
5.23975e-10
3.32696e-06
-2.08551e-05
6.68215e-06
-2.49819e-05
9.56186e-06
-2.36747e-05
1.20924e-05
-2.21561e-05
1.43836e-05
-2.09525e-05
1.65092e-05
-2.00357e-05
1.85217e-05
-1.93497e-05
2.04604e-05
-1.88549e-05
2.23558e-05
-1.85256e-05
2.42325e-05
-1.83446e-05
2.61107e-05
-1.83e-05
2.80073e-05
-1.83838e-05
2.99367e-05
-1.85903e-05
3.19113e-05
-1.89157e-05
3.39415e-05
-1.9357e-05
3.60358e-05
-1.99111e-05
3.82006e-05
-2.05731e-05
4.04395e-05
-2.13346e-05
4.27528e-05
-2.21813e-05
4.51368e-05
-2.30895e-05
4.75831e-05
-2.40229e-05
5.00774e-05
-2.49284e-05
5.2599e-05
-2.57316e-05
5.51195e-05
-2.63331e-05
5.76021e-05
-2.66057e-05
6.00008e-05
-2.63937e-05
6.2259e-05
-2.55171e-05
6.43075e-05
-2.37837e-05
6.60607e-05
-2.10157e-05
6.74274e-05
-1.71334e-05
6.81525e-05
-1.21347e-05
5.5729e-05
-7.04672e-06
1.73445e-05
-1.35859e-06
2.7112e-07
-4.75064e-08
6.7735e-08
-4.40708e-09
4.68228e-08
-2.71051e-09
1.60908e-08
-1.69544e-09
4.09953e-09
-8.9023e-10
1.07982e-09
-3.99243e-10
3.33452e-10
-1.79705e-10
1.55328e-10
-9.28547e-11
1.28795e-10
-8.03388e-11
1.60218e-10
-2.06301e-11
1.91848e-10
3.25335e-06
-2.41085e-05
6.49101e-06
-2.82196e-05
9.29124e-06
-2.64749e-05
1.17709e-05
-2.46358e-05
1.4022e-05
-2.32036e-05
1.6108e-05
-2.21217e-05
1.80766e-05
-2.13182e-05
1.99654e-05
-2.07438e-05
2.1805e-05
-2.03651e-05
2.362e-05
-2.01596e-05
2.54311e-05
-2.01111e-05
2.72554e-05
-2.02081e-05
2.91073e-05
-2.04421e-05
3.09987e-05
-2.08071e-05
3.29393e-05
-2.12976e-05
3.49365e-05
-2.19083e-05
3.69952e-05
-2.26318e-05
3.91175e-05
-2.34569e-05
4.13019e-05
-2.43658e-05
4.35434e-05
-2.5331e-05
4.58324e-05
-2.63119e-05
4.81541e-05
-2.72502e-05
5.04888e-05
-2.80663e-05
5.28106e-05
-2.86549e-05
5.50872e-05
-2.88824e-05
5.72795e-05
-2.85859e-05
5.93395e-05
-2.75771e-05
6.12062e-05
-2.56505e-05
6.2796e-05
-2.26055e-05
6.40089e-05
-1.83463e-05
5.68202e-05
-1.29726e-05
1.81577e-05
-4.33005e-06
-2.80147e-07
-3.0018e-07
-5.37279e-08
-6.22901e-09
7.02948e-09
-1.09392e-09
3.58302e-09
-7.40119e-10
8.73488e-10
-3.6499e-10
2.14537e-10
-1.38322e-10
7.9114e-11
-5.35526e-11
4.32625e-11
-3.02159e-11
2.73641e-11
-2.03035e-11
3.06691e-11
-1.83329e-11
3.76538e-11
9.04773e-12
-1.4903e-11
3.16298e-06
-2.72714e-05
6.27136e-06
-3.1328e-05
8.98324e-06
-2.91868e-05
1.14062e-05
-2.70587e-05
1.36158e-05
-2.54133e-05
1.56652e-05
-2.41711e-05
1.75963e-05
-2.32493e-05
1.9444e-05
-2.25914e-05
2.12374e-05
-2.21586e-05
2.3001e-05
-2.19232e-05
2.47551e-05
-2.18652e-05
2.65167e-05
-2.19697e-05
2.82999e-05
-2.22253e-05
3.01162e-05
-2.26233e-05
3.19744e-05
-2.31559e-05
3.38811e-05
-2.3815e-05
3.58399e-05
-2.45906e-05
3.78515e-05
-2.54685e-05
3.99132e-05
-2.64275e-05
4.20187e-05
-2.74365e-05
4.41578e-05
-2.84509e-05
4.63159e-05
-2.94084e-05
4.84744e-05
-3.02248e-05
5.06101e-05
-3.07905e-05
5.26949e-05
-3.09672e-05
5.46956e-05
-3.05866e-05
5.65712e-05
-2.94527e-05
5.82654e-05
-2.73447e-05
5.96939e-05
-2.4034e-05
5.99865e-05
-1.86397e-05
2.94203e-05
-1.08136e-05
-7.97653e-09
-1.25346e-06
-8.44246e-08
-4.92448e-08
-2.24917e-08
5.557e-11
-7.04934e-10
-2.33114e-10
4.31315e-10
-1.96903e-10
9.7889e-11
-7.96803e-11
1.94259e-11
-2.3669e-11
5.45403e-12
-5.55999e-12
6.23529e-12
-4.80784e-12
5.95512e-12
-4.69726e-12
7.24763e-12
-4.55427e-12
1.09668e-11
-1.39042e-12
-1.78578e-11
3.11526e-06
-3.03867e-05
6.14349e-06
-3.43562e-05
8.8088e-06
-3.18521e-05
1.12124e-05
-2.94623e-05
1.34168e-05
-2.76176e-05
1.54659e-05
-2.62202e-05
1.73966e-05
-2.518e-05
1.92407e-05
-2.44356e-05
2.10261e-05
-2.39439e-05
2.27763e-05
-2.36734e-05
2.45115e-05
-2.36004e-05
2.62485e-05
-2.37066e-05
2.8001e-05
-2.39779e-05
2.97802e-05
-2.44025e-05
3.15944e-05
-2.49701e-05
3.34491e-05
-2.56697e-05
3.53472e-05
-2.64886e-05
3.7288e-05
-2.74093e-05
3.92681e-05
-2.84075e-05
4.128e-05
-2.94485e-05
4.33132e-05
-3.04841e-05
4.53533e-05
-3.14485e-05
4.73827e-05
-3.22542e-05
4.93806e-05
-3.27883e-05
5.13224e-05
-3.2909e-05
5.31795e-05
-3.24437e-05
5.4916e-05
-3.11892e-05
5.64767e-05
-2.89054e-05
5.77808e-05
-2.53381e-05
4.55538e-05
-1.95706e-05
4.61605e-06
-5.84302e-06
-2.36139e-07
-2.67743e-07
-5.2657e-08
-1.18625e-08
-8.50645e-09
3.83983e-10
-8.26353e-10
8.1021e-11
-3.58394e-11
-1.43997e-11
1.21032e-11
-1.4604e-11
7.14898e-12
-7.71684e-12
1.58125e-12
-1.42676e-12
1.07001e-12
-4.94563e-13
1.4417e-12
-9.66452e-13
1.95789e-12
-1.09534e-12
4.43405e-12
-1.47142e-12
4.88878e-13
3.0322e-06
-3.34189e-05
5.94909e-06
-3.72731e-05
8.5399e-06
-3.44429e-05
1.08982e-05
-3.18206e-05
1.30743e-05
-2.97937e-05
1.51037e-05
-2.82496e-05
1.70177e-05
-2.7094e-05
1.88447e-05
-2.62626e-05
2.06101e-05
-2.57094e-05
2.23363e-05
-2.53997e-05
2.40425e-05
-2.53065e-05
2.57447e-05
-2.54088e-05
2.74561e-05
-2.56893e-05
2.91873e-05
-2.61337e-05
3.09459e-05
-2.67286e-05
3.27366e-05
-2.74604e-05
3.45612e-05
-2.83133e-05
3.64185e-05
-2.92666e-05
3.8304e-05
-3.02929e-05
4.02099e-05
-3.13544e-05
4.21256e-05
-3.23998e-05
4.40374e-05
-3.33603e-05
4.59293e-05
-3.41461e-05
4.77829e-05
-3.46419e-05
4.95773e-05
-3.47034e-05
5.12886e-05
-3.4155e-05
5.28854e-05
-3.2786e-05
5.4315e-05
-3.0335e-05
5.53042e-05
-2.63273e-05
2.4128e-05
-1.68116e-05
1.05806e-07
-1.82699e-06
-7.0537e-08
-1.08941e-07
-2.01949e-08
-2.40751e-09
-3.27776e-09
4.02466e-10
-3.93019e-10
1.25882e-10
-5.04285e-11
2.54799e-11
-4.0567e-12
2.71424e-12
1.47761e-12
-1.07486e-12
7.79556e-13
-5.25693e-13
2.66435e-13
6.71288e-14
3.84312e-13
-6.82822e-14
6.35621e-13
-1.45632e-13
1.74095e-12
-1.82977e-13
5.4973e-13
2.94404e-06
-3.63629e-05
5.74884e-06
-4.00779e-05
8.26246e-06
-3.69565e-05
1.05712e-05
-3.41293e-05
1.27149e-05
-3.19374e-05
1.47218e-05
-3.02565e-05
1.6618e-05
-2.89902e-05
1.84284e-05
-2.8073e-05
2.01759e-05
-2.74569e-05
2.1881e-05
-2.71047e-05
2.35616e-05
-2.69871e-05
2.52329e-05
-2.70801e-05
2.69074e-05
-2.73639e-05
2.85949e-05
-2.78212e-05
3.03022e-05
-2.84359e-05
3.20333e-05
-2.91916e-05
3.37893e-05
-3.00693e-05
3.55683e-05
-3.10456e-05
3.73653e-05
-3.20899e-05
3.91723e-05
-3.31615e-05
4.09791e-05
-3.42066e-05
4.27731e-05
-3.51543e-05
4.45399e-05
-3.59129e-05
4.62637e-05
-3.63657e-05
4.79272e-05
-3.6367e-05
4.95111e-05
-3.57389e-05
5.0989e-05
-3.42639e-05
5.23198e-05
-3.16658e-05
4.94636e-05
-2.53978e-05
5.75481e-06
-1.11734e-05
-1.87036e-07
-5.36744e-07
-4.14849e-08
-3.62915e-08
-9.58034e-09
1.77005e-10
-1.22584e-09
3.31146e-10
-1.60376e-10
9.47046e-11
-2.64562e-11
2.23874e-11
-3.34132e-12
4.15196e-12
8.42019e-14
4.74385e-13
2.81271e-13
-5.81403e-14
1.30796e-13
1.1861e-13
1.26007e-13
1.13132e-13
2.09362e-13
7.20041e-14
5.73578e-13
6.04148e-14
1.84816e-13
2.85302e-06
-3.9216e-05
5.54655e-06
-4.27714e-05
7.98145e-06
-3.93914e-05
1.0237e-05
-3.63849e-05
1.23443e-05
-3.40448e-05
1.43255e-05
-3.22377e-05
1.6202e-05
-3.08667e-05
1.7995e-05
-2.9866e-05
1.97249e-05
-2.91868e-05
2.14103e-05
-2.87901e-05
2.30676e-05
-2.86444e-05
2.47109e-05
-2.87234e-05
2.63517e-05
-2.90047e-05
2.7999e-05
-2.94684e-05
2.96589e-05
-3.00958e-05
3.13347e-05
-3.08674e-05
3.3027e-05
-3.17616e-05
3.47332e-05
-3.27518e-05
3.64482e-05
-3.38049e-05
3.81643e-05
-3.48776e-05
3.98717e-05
-3.5914e-05
4.15592e-05
-3.68417e-05
4.32142e-05
-3.75679e-05
4.48237e-05
-3.79752e-05
4.6374e-05
-3.79172e-05
4.78493e-05
-3.72143e-05
4.92271e-05
-3.56417e-05
5.04883e-05
-3.2927e-05
3.12941e-05
-2.59514e-05
2.21661e-07
-5.48988e-06
-6.70295e-08
-2.6632e-07
-1.82897e-08
-1.18058e-08
-4.09039e-09
4.74125e-10
-5.17324e-10
2.36587e-10
-7.00554e-11
5.92517e-11
-1.18597e-11
1.37152e-11
-1.65427e-12
2.71353e-12
-7.01647e-14
4.95076e-13
1.10617e-13
1.17017e-13
8.48242e-14
1.24926e-13
6.28601e-14
1.15041e-13
7.74523e-14
8.71397e-14
1.57975e-13
7.23275e-14
7.07135e-14
2.76067e-06
-4.19766e-05
5.34457e-06
-4.53553e-05
7.69989e-06
-4.17467e-05
9.89922e-06
-3.85842e-05
1.19665e-05
-3.6112e-05
1.39184e-05
-3.41896e-05
1.57723e-05
-3.27206e-05
1.75463e-05
-3.164e-05
1.9258e-05
-3.08985e-05
2.0924e-05
-3.04561e-05
2.25591e-05
-3.02795e-05
2.41762e-05
-3.03405e-05
2.57857e-05
-3.06142e-05
2.73957e-05
-3.10784e-05
2.90116e-05
-3.17117e-05
3.06362e-05
-3.2492e-05
3.22694e-05
-3.33948e-05
3.39085e-05
-3.43909e-05
3.55483e-05
-3.54447e-05
3.71815e-05
-3.65109e-05
3.87994e-05
-3.75318e-05
4.03918e-05
-3.84342e-05
4.19486e-05
-3.91247e-05
4.34592e-05
-3.94858e-05
4.49133e-05
-3.93713e-05
4.62991e-05
-3.86001e-05
4.75967e-05
-3.69392e-05
4.86924e-05
-3.40227e-05
1.65533e-05
-2.24029e-05
8.81727e-08
-1.92264e-06
-3.41318e-08
-1.42837e-07
-9.03551e-09
-4.10642e-09
-1.63828e-09
3.80003e-10
-2.10244e-10
1.39387e-10
-3.10286e-11
3.33063e-11
-5.09207e-12
7.27005e-12
-7.06703e-13
1.45767e-12
-2.2434e-14
3.24655e-13
6.62923e-14
1.3321e-13
5.76843e-14
1.06696e-13
4.07016e-14
8.89259e-14
3.74896e-14
6.57234e-14
4.97885e-14
5.1295e-14
4.32099e-14
2.66789e-06
-4.46445e-05
5.14416e-06
-4.78316e-05
7.4195e-06
-4.40221e-05
9.56007e-06
-4.07248e-05
1.15837e-05
-3.81357e-05
1.35028e-05
-3.61087e-05
1.53312e-05
-3.4549e-05
1.70838e-05
-3.33926e-05
1.87758e-05
-3.25905e-05
2.04218e-05
-3.21021e-05
2.20349e-05
-3.18927e-05
2.36267e-05
-3.19322e-05
2.52064e-05
-3.2194e-05
2.67814e-05
-3.26534e-05
2.83563e-05
-3.32866e-05
2.99332e-05
-3.40689e-05
3.15117e-05
-3.49733e-05
3.30891e-05
-3.59683e-05
3.46603e-05
-3.70159e-05
3.62187e-05
-3.80692e-05
3.77564e-05
-3.90695e-05
3.9265e-05
-3.99428e-05
4.0736e-05
-4.05958e-05
4.21616e-05
-4.09114e-05
4.35343e-05
-4.0744e-05
4.48463e-05
-3.99121e-05
4.60827e-05
-3.81756e-05
4.5428e-05
-3.33681e-05
4.79587e-06
-1.60611e-05
-7.91661e-08
-7.05634e-07
-2.42429e-08
-5.78289e-08
-4.87734e-09
-1.09995e-09
-6.93395e-10
2.6891e-10
-8.74234e-11
7.70514e-11
-1.34611e-11
1.74305e-11
-2.11673e-12
3.60868e-12
-2.66411e-13
7.35075e-13
1.73309e-14
1.9946e-13
4.82608e-14
1.04379e-13
4.08774e-14
8.07591e-14
3.10697e-14
6.91852e-14
2.34438e-14
5.08178e-14
2.35145e-14
3.46067e-14
2.90822e-14
2.57522e-06
-4.72197e-05
4.94592e-06
-5.02023e-05
7.14111e-06
-4.62173e-05
9.22075e-06
-4.28044e-05
1.11976e-05
-4.01125e-05
1.30803e-05
-3.79914e-05
1.48797e-05
-3.63484e-05
1.66082e-05
-3.51211e-05
1.82785e-05
-3.42608e-05
1.99031e-05
-3.37267e-05
2.14937e-05
-3.34833e-05
2.30603e-05
-3.34988e-05
2.46113e-05
-3.3745e-05
2.61528e-05
-3.41949e-05
2.76889e-05
-3.48227e-05
2.92213e-05
-3.56013e-05
3.07492e-05
-3.65012e-05
3.22699e-05
-3.7489e-05
3.37787e-05
-3.85247e-05
3.52697e-05
-3.95602e-05
3.67359e-05
-4.05358e-05
3.81706e-05
-4.13774e-05
3.95669e-05
-4.1992e-05
4.09186e-05
-4.22631e-05
4.22206e-05
-4.2046e-05
4.34674e-05
-4.11589e-05
4.46592e-05
-3.93673e-05
3.16132e-05
-3.41612e-05
2.5382e-07
-9.60317e-06
-4.22105e-08
-4.05204e-07
-1.14376e-08
-2.06683e-08
-2.49277e-09
-2.69303e-11
-3.08477e-10
1.68106e-10
-3.74812e-11
4.1008e-11
-5.85162e-12
8.87573e-12
-8.63795e-13
1.75173e-12
-7.97537e-14
3.72926e-13
3.08865e-14
1.24841e-13
3.68187e-14
7.53268e-14
3.163e-14
6.24306e-14
2.6247e-14
5.45082e-14
1.86654e-14
4.03698e-14
1.45292e-14
2.60227e-14
1.84053e-14
2.4829e-06
-4.97026e-05
4.75001e-06
-5.24694e-05
6.86499e-06
-4.83322e-05
8.8818e-06
-4.48212e-05
1.08088e-05
-4.20395e-05
1.26518e-05
-3.98344e-05
1.4419e-05
-3.81155e-05
1.61202e-05
-3.68223e-05
1.77663e-05
-3.59069e-05
1.93678e-05
-3.53282e-05
2.09347e-05
-3.50502e-05
2.24757e-05
-3.50399e-05
2.39981e-05
-3.52674e-05
2.55072e-05
-3.57041e-05
2.70064e-05
-3.63219e-05
2.84968e-05
-3.70917e-05
2.99777e-05
-3.7982e-05
3.14461e-05
-3.89575e-05
3.2898e-05
-3.99766e-05
3.43281e-05
-4.09902e-05
3.57306e-05
-4.19383e-05
3.70998e-05
-4.27466e-05
3.84303e-05
-4.33225e-05
3.97171e-05
-4.355e-05
4.09556e-05
-4.32844e-05
4.21402e-05
-4.23436e-05
4.32788e-05
-4.05059e-05
2.13713e-05
-3.17799e-05
1.25679e-07
-4.71831e-06
-2.04798e-08
-2.6667e-07
-6.11229e-09
-8.46738e-09
-1.27675e-09
1.66608e-10
-1.33697e-10
9.50397e-11
-1.56885e-11
2.07427e-11
-2.47935e-12
4.27651e-12
-3.27835e-13
8.27964e-13
-6.35175e-15
1.96685e-13
2.9134e-14
8.1579e-14
2.78927e-14
5.51761e-14
2.47801e-14
4.81778e-14
2.02497e-14
3.96054e-14
1.40266e-14
2.81354e-14
9.8336e-15
1.78903e-14
1.19313e-14
2.39101e-06
-5.20937e-05
4.5563e-06
-5.46347e-05
6.59103e-06
-5.0367e-05
8.54333e-06
-4.67735e-05
1.04178e-05
-4.3914e-05
1.22179e-05
-4.16345e-05
1.39494e-05
-3.98471e-05
1.56204e-05
-3.84932e-05
1.72394e-05
-3.75259e-05
1.88155e-05
-3.69044e-05
2.03571e-05
-3.65918e-05
2.18717e-05
-3.65545e-05
2.33653e-05
-3.6761e-05
2.48425e-05
-3.71813e-05
2.6306e-05
-3.77853e-05
2.77565e-05
-3.85422e-05
2.91931e-05
-3.94186e-05
3.06132e-05
-4.03775e-05
3.20129e-05
-4.13764e-05
3.33878e-05
-4.23651e-05
3.47328e-05
-4.32834e-05
3.60434e-05
-4.40572e-05
3.73151e-05
-4.45942e-05
3.85438e-05
-4.47787e-05
3.97244e-05
-4.4465e-05
4.08486e-05
-4.34678e-05
4.18372e-05
-4.14945e-05
1.15002e-05
-2.71157e-05
1.17114e-07
-1.80292e-06
-1.2196e-08
-1.34596e-07
-3.16799e-09
-3.32294e-09
-5.55587e-10
1.50065e-10
-5.73548e-11
5.21559e-11
-6.96026e-12
1.04687e-11
-1.01151e-12
2.00705e-12
-1.04752e-13
3.93081e-13
1.69751e-14
1.11452e-13
2.41128e-14
5.5948e-14
2.10945e-14
4.36519e-14
1.79441e-14
3.54814e-14
1.32385e-14
2.54474e-14
8.75966e-15
1.62912e-14
6.05486e-15
9.92071e-15
6.89901e-15
2.29952e-06
-5.43932e-05
4.36449e-06
-5.66997e-05
6.3189e-06
-5.23214e-05
8.20514e-06
-4.86598e-05
1.00247e-05
-4.57336e-05
1.17788e-05
-4.33886e-05
1.34715e-05
-4.15398e-05
1.5109e-05
-4.01307e-05
1.66982e-05
-3.91151e-05
1.82465e-05
-3.84527e-05
1.97609e-05
-3.81062e-05
2.12476e-05
-3.80412e-05
2.27118e-05
-3.82252e-05
2.41571e-05
-3.86266e-05
2.55856e-05
-3.92138e-05
2.69978e-05
-3.99544e-05
2.83925e-05
-4.08133e-05
2.97672e-05
-4.17523e-05
3.11186e-05
-4.27278e-05
3.24427e-05
-4.36891e-05
3.37354e-05
-4.4576e-05
3.49926e-05
-4.53144e-05
3.62106e-05
-4.58122e-05
3.73857e-05
-4.59537e-05
3.85128e-05
-4.55921e-05
3.95815e-05
-4.45365e-05
3.93586e-05
-4.12716e-05
3.50614e-06
-2.01619e-05
4.64958e-09
-7.46781e-07
-1.11543e-08
-6.08149e-08
-1.6705e-09
-1.24094e-09
-2.44671e-10
1.10419e-10
-2.50038e-11
2.82925e-11
-3.09012e-12
5.31257e-12
-3.97735e-13
9.58134e-13
-1.94619e-14
1.98226e-13
1.95878e-14
6.96899e-14
1.8841e-14
4.18667e-14
1.61897e-14
3.46998e-14
1.18651e-14
2.47916e-14
7.50045e-15
1.49702e-14
4.54196e-15
8.29517e-15
2.95741e-15
4.52311e-15
2.82978e-15
2.2083e-06
-5.66015e-05
4.17416e-06
-5.86655e-05
6.04807e-06
-5.41953e-05
7.86684e-06
-5.04785e-05
9.62914e-06
-4.74959e-05
1.13345e-05
-4.50939e-05
1.29854e-05
-4.31907e-05
1.45863e-05
-4.17316e-05
1.61428e-05
-4.06716e-05
1.76608e-05
-3.99706e-05
1.91459e-05
-3.95913e-05
2.06032e-05
-3.94985e-05
2.2037e-05
-3.96589e-05
2.345e-05
-4.00396e-05
2.48438e-05
-4.06077e-05
2.62186e-05
-4.13291e-05
2.7573e-05
-4.21678e-05
2.89048e-05
-4.30841e-05
3.02109e-05
-4.40338e-05
3.14877e-05
-4.4966e-05
3.27318e-05
-4.58201e-05
3.39393e-05
-4.6522e-05
3.51066e-05
-4.69796e-05
3.62299e-05
-4.7077e-05
3.73044e-05
-4.66666e-05
3.8323e-05
-4.55549e-05
2.9016e-05
-4.16987e-05
2.41109e-07
-1.32912e-05
-2.05167e-08
-4.65263e-07
-5.51261e-09
-2.1709e-08
-8.79264e-10
-3.71648e-10
-1.15955e-10
7.48099e-11
-1.12465e-11
1.50188e-11
-1.34197e-12
2.64683e-12
-1.43809e-13
4.6543e-13
8.36144e-15
1.08304e-13
1.76235e-14
4.69702e-14
1.48458e-14
3.4945e-14
1.1742e-14
2.6606e-14
7.15219e-15
1.62303e-14
3.8285e-15
8.24849e-15
2.03702e-15
3.88515e-15
1.17662e-15
1.82624e-15
8.75635e-16
9.62358e-16
7.01047e-16
2.11712e-06
-5.87186e-05
3.98477e-06
-6.05332e-05
5.77792e-06
-5.59884e-05
7.52787e-06
-5.22285e-05
9.23083e-06
-4.91988e-05
1.08848e-05
-4.67479e-05
1.24911e-05
-4.4797e-05
1.40526e-05
-4.32931e-05
1.55736e-05
-4.21926e-05
1.70586e-05
-4.14556e-05
1.85122e-05
-4.10449e-05
1.99384e-05
-4.09247e-05
2.13404e-05
-4.1061e-05
2.27205e-05
-4.14197e-05
2.40796e-05
-4.19668e-05
2.54174e-05
-4.2667e-05
2.67327e-05
-4.34831e-05
2.80233e-05
-4.43746e-05
2.92862e-05
-4.52968e-05
3.05185e-05
-4.61982e-05
3.17166e-05
-4.70182e-05
3.2877e-05
-4.76824e-05
3.39955e-05
-4.8098e-05
3.50671e-05
-4.81487e-05
3.60862e-05
-4.76856e-05
3.70502e-05
-4.6519e-05
2.15667e-05
-3.95604e-05
1.16247e-07
-7.59415e-06
-9.70205e-09
-3.4664e-07
-2.97075e-09
-9.84141e-09
-4.63817e-10
-4.36954e-11
-5.36703e-11
4.26228e-11
-4.95668e-12
7.49635e-12
-5.58151e-13
1.26176e-12
-4.05527e-14
2.27431e-13
1.35086e-14
6.40146e-14
1.41567e-14
3.37262e-14
1.18829e-14
2.83026e-14
7.92705e-15
1.92942e-14
3.99556e-15
1.00201e-14
1.81209e-15
4.31961e-15
8.31415e-16
1.73214e-15
4.1624e-16
7.00266e-16
2.63548e-16
3.12655e-16
1.81626e-16
2.02575e-06
-6.07443e-05
3.79576e-06
-6.23032e-05
5.50775e-06
-5.77004e-05
7.18757e-06
-5.39083e-05
8.82926e-06
-5.08405e-05
1.04296e-05
-4.83482e-05
1.19885e-05
-4.63559e-05
1.35078e-05
-4.48125e-05
1.49906e-05
-4.36754e-05
1.64402e-05
-4.29052e-05
1.78601e-05
-4.24647e-05
1.92533e-05
-4.23179e-05
2.06222e-05
-4.24299e-05
2.19683e-05
-4.27658e-05
2.32922e-05
-4.32906e-05
2.45933e-05
-4.39681e-05
2.58701e-05
-4.47599e-05
2.71206e-05
-4.56251e-05
2.8342e-05
-4.65182e-05
2.95315e-05
-4.73877e-05
3.06857e-05
-4.81725e-05
3.18009e-05
-4.87975e-05
3.2872e-05
-4.91691e-05
3.38924e-05
-4.9169e-05
3.4854e-05
-4.86473e-05
3.57533e-05
-4.74183e-05
1.42493e-05
-3.57796e-05
1.53308e-07
-3.6144e-06
-4.717e-09
-1.92167e-07
-1.56807e-09
-3.94537e-09
-2.43782e-10
3.36916e-11
-2.25828e-11
2.02495e-11
-2.00997e-12
3.43139e-12
-2.10736e-13
5.75207e-13
-1.94567e-15
1.1437e-13
1.26154e-14
4.15179e-14
1.08254e-14
2.77039e-14
8.77641e-15
2.161e-14
4.90039e-15
1.29168e-14
2.09298e-15
5.80276e-15
8.13241e-16
2.16229e-15
3.22197e-16
7.50719e-16
1.39401e-16
2.64072e-16
7.34958e-17
1.00792e-16
4.74068e-17
1.93389e-06
-6.26782e-05
3.60652e-06
-6.39758e-05
5.23678e-06
-5.93307e-05
6.84518e-06
-5.55167e-05
8.42378e-06
-5.24191e-05
9.96821e-06
-4.98927e-05
1.14774e-05
-4.7865e-05
1.29521e-05
-4.62872e-05
1.43941e-05
-4.51175e-05
1.58059e-05
-4.4317e-05
1.71899e-05
-4.38487e-05
1.85482e-05
-4.36762e-05
1.98824e-05
-4.37641e-05
2.11935e-05
-4.40769e-05
2.24815e-05
-4.45786e-05
2.37455e-05
-4.52321e-05
2.49841e-05
-4.59985e-05
2.61951e-05
-4.68361e-05
2.7376e-05
-4.76991e-05
2.8524e-05
-4.85357e-05
2.96358e-05
-4.92843e-05
3.07073e-05
-4.9869e-05
3.17326e-05
-5.01945e-05
3.27035e-05
-5.01399e-05
3.36083e-05
-4.95521e-05
3.43651e-05
-4.8175e-05
7.30299e-06
-3.01639e-05
9.54699e-08
-1.40721e-06
-3.12463e-09
-9.18105e-08
-8.34194e-10
-1.5835e-09
-1.2399e-10
3.45495e-11
-9.02883e-12
9.91949e-12
-7.57483e-13
1.57377e-12
-6.72604e-14
2.64998e-13
8.54627e-15
6.17786e-14
1.069e-14
2.82602e-14
8.69887e-15
2.36633e-14
5.90383e-15
1.61787e-14
2.76593e-15
8.17634e-15
1.02814e-15
3.1738e-15
3.4949e-16
1.03791e-15
1.21252e-16
3.18465e-16
4.55795e-17
9.87563e-17
2.01881e-17
3.26379e-17
1.28186e-17
1.84129e-06
-6.45195e-05
3.41643e-06
-6.55509e-05
4.96421e-06
-6.08785e-05
6.49985e-06
-5.70523e-05
8.01363e-06
-5.39329e-05
9.50017e-06
-5.13792e-05
1.09574e-05
-4.93223e-05
1.23851e-05
-4.77149e-05
1.37842e-05
-4.65165e-05
1.51559e-05
-4.56888e-05
1.65018e-05
-4.51946e-05
1.78233e-05
-4.49977e-05
1.91213e-05
-4.50621e-05
2.0396e-05
-4.53517e-05
2.16472e-05
-4.58298e-05
2.28738e-05
-4.64587e-05
2.4074e-05
-4.71987e-05
2.52458e-05
-4.80079e-05
2.63868e-05
-4.88401e-05
2.74941e-05
-4.9643e-05
2.85643e-05
-5.03545e-05
2.95931e-05
-5.08977e-05
3.05742e-05
-5.11757e-05
3.14984e-05
-5.1064e-05
3.2351e-05
-5.04047e-05
3.21446e-05
-4.79686e-05
2.10537e-06
-2.24704e-05
3.32173e-08
-6.32013e-07
-3.85953e-09
-4.3041e-08
-4.44117e-10
-6.60468e-10
-5.59168e-11
2.64961e-11
-3.90719e-12
5.42218e-12
-3.12189e-13
7.79342e-13
-1.47696e-14
1.30697e-13
8.54621e-15
3.71906e-14
8.02178e-15
2.11994e-14
6.8983e-15
1.82048e-14
3.79365e-15
1.13357e-14
1.47916e-15
4.93862e-15
4.78869e-16
1.66217e-15
1.44797e-16
4.82002e-16
4.47025e-17
1.32671e-16
1.47352e-17
3.67048e-17
5.54387e-18
1.06364e-17
3.52939e-18
1.74769e-06
-6.62672e-05
3.22482e-06
-6.70281e-05
4.68911e-06
-6.23428e-05
6.15059e-06
-5.85138e-05
7.59791e-06
-5.53802e-05
9.02473e-06
-5.2806e-05
1.0428e-05
-5.07256e-05
1.18067e-05
-4.90936e-05
1.31606e-05
-4.78704e-05
1.44902e-05
-4.70183e-05
1.57961e-05
-4.65005e-05
1.70789e-05
-4.62805e-05
1.8339e-05
-4.63221e-05
1.95761e-05
-4.65888e-05
2.07894e-05
-4.70432e-05
2.19778e-05
-4.7647e-05
2.31393e-05
-4.83603e-05
2.42719e-05
-4.91405e-05
2.53731e-05
-4.99414e-05
2.64402e-05
-5.071e-05
2.74693e-05
-5.13836e-05
2.84558e-05
-5.18842e-05
2.93931e-05
-5.2113e-05
3.0272e-05
-5.1943e-05
3.10784e-05
-5.12111e-05
2.39189e-05
-4.79513e-05
1.78724e-07
-1.52415e-05
-5.81819e-09
-4.49359e-07
-1.91738e-09
-1.47719e-08
-2.3638e-10
-2.53458e-10
-2.69203e-11
1.87796e-11
-1.75361e-12
2.87661e-12
-1.20154e-13
3.89693e-13
1.80242e-15
6.89359e-14
7.49919e-15
2.51141e-14
6.10199e-15
1.87978e-14
4.60073e-15
1.37119e-14
2.18558e-15
7.28937e-15
7.45438e-16
2.78157e-15
2.1385e-16
8.29998e-16
5.83313e-17
2.17308e-16
1.62198e-17
5.43711e-17
4.73607e-18
1.35734e-17
1.53032e-18
3.48874e-18
9.89714e-19
1.65278e-06
-6.792e-05
3.03086e-06
-6.84062e-05
4.41037e-06
-6.37223e-05
5.79625e-06
-5.98997e-05
7.17554e-06
-5.67595e-05
8.54097e-06
-5.41715e-05
9.88862e-06
-5.20732e-05
1.12164e-05
-5.04213e-05
1.25232e-05
-4.91772e-05
1.38087e-05
-4.83038e-05
1.50728e-05
-4.77646e-05
1.63153e-05
-4.7523e-05
1.75358e-05
-4.75427e-05
1.87338e-05
-4.77868e-05
1.99082e-05
-4.82175e-05
2.10574e-05
-4.87962e-05
2.21796e-05
-4.94825e-05
2.32728e-05
-5.02336e-05
2.43343e-05
-5.10029e-05
2.53612e-05
-5.17369e-05
2.63494e-05
-5.23718e-05
2.72934e-05
-5.28282e-05
2.81861e-05
-5.30057e-05
2.90182e-05
-5.27751e-05
2.97781e-05
-5.1971e-05
1.82762e-05
-4.5613e-05
1.17285e-07
-9.22261e-06
-2.91736e-09
-3.32114e-07
-1.01934e-09
-6.98664e-09
-1.18183e-10
-7.18463e-11
-1.24687e-11
1.10794e-11
-7.52491e-13
1.39807e-12
-3.99121e-14
1.86748e-13
5.38763e-15
3.78275e-14
6.14433e-15
1.76095e-14
5.06422e-15
1.61331e-14
2.98842e-15
1.03417e-14
1.16953e-15
4.58236e-15
3.50408e-16
1.49388e-15
9.11271e-17
3.96131e-16
2.28602e-17
9.49372e-17
5.79768e-18
2.18692e-17
1.51632e-18
4.98388e-18
4.2612e-19