/*--------------------------------*- C++ -*----------------------------------*\
| =========                 |                                                 |
| \\      /  F ield         | OpenFOAM: The Open Source CFD Toolbox           |
|  \\    /   O peration     | Version:  5.0                                   |
|   \\  /    A nd           | Web:      www.OpenFOAM.org                      |
|    \\/     M anipulation  |                                                 |
\*---------------------------------------------------------------------------*/
FoamFile
{
    version     2.0;
    format      ascii;
    class       volScalarField;
    location    "0.15";
    object      epsilon;
}
// * * * * * * * * * * * * * * * * * * * * * * * * * * * * * * * * * * * * * //

dimensions      [0 2 -3 0 0 0 0];

internalField   nonuniform List<scalar> 
1935
(
0.0738808
0.19587
0.322122
0.427423
0.515295
0.58996
0.654522
0.711465
0.762912
0.810701
0.856449
0.901612
0.947544
0.995553
1.04694
1.10304
1.1652
1.23477
1.31298
1.40077
1.49852
1.60566
1.72029
1.83872
1.95534
2.0627
2.15224
2.2155
2.24567
2.23897
2.19448
2.11114
1.99277
1.86368
1.72798
1.59465
1.47561
1.38218
1.32166
1.29536
1.29899
1.32314
1.32125
1.22786
0.131638
0.164399
0.201598
0.231162
0.254493
0.27336
0.28909
0.302677
0.314891
0.326337
0.337511
0.348835
0.360691
0.37344
0.387446
0.403082
0.420737
0.440802
0.463637
0.489507
0.518499
0.5504
0.584567
0.619825
0.65443
0.686163
0.712607
0.731614
0.741866
0.743273
0.73695
0.725181
0.712009
0.706221
0.697721
0.68264
0.661693
0.638647
0.619476
0.610666
0.615169
0.631775
0.652037
0.694364
0.183361
0.186894
0.201854
0.212879
0.220796
0.226731
0.231482
0.235637
0.239634
0.243801
0.248388
0.253604
0.259633
0.266654
0.274851
0.284422
0.295571
0.308495
0.323357
0.340233
0.359053
0.379518
0.401029
0.422636
0.443054
0.460776
0.474325
0.482615
0.485383
0.483489
0.478898
0.474251
0.472277
0.475615
0.482518
0.489154
0.493461
0.496997
0.505036
0.525079
0.565648
0.640926
0.767402
0.840392
0.222524
0.207664
0.210426
0.211596
0.211549
0.211019
0.210469
0.210227
0.210529
0.211542
0.213389
0.216168
0.219971
0.224893
0.231036
0.238514
0.247442
0.257919
0.269998
0.283642
0.298671
0.314706
0.331118
0.347017
0.361293
0.372753
0.380355
0.383534
0.382542
0.378665
0.374117
0.371451
0.372797
0.379546
0.391462
0.40747
0.427642
0.45462
0.494553
0.557269
0.658415
0.8427
1.17438
1.38365
0.253386
0.222803
0.217521
0.212505
0.207464
0.202887
0.199047
0.196112
0.194187
0.193333
0.193586
0.194973
0.197525
0.20128
0.206287
0.212604
0.220283
0.229353
0.239791
0.251483
0.26418
0.277454
0.290677
0.303025
0.313545
0.321295
0.325561
0.326133
0.323578
0.319381
0.315793
0.315244
0.319672
0.330485
0.348548
0.375004
0.412525
0.466487
0.546294
0.667227
0.854584
1.14551
1.49746
1.86052
0.278653
0.233126
0.222048
0.21297
0.204651
0.197369
0.191301
0.186529
0.18308
0.180944
0.180097
0.180517
0.182188
0.185108
0.189283
0.194726
0.201443
0.20941
0.218549
0.228697
0.239566
0.250721
0.261569
0.271382
0.279373
0.284832
0.287313
0.286863
0.284228
0.280948
0.279207
0.281334
0.289371
0.305392
0.33191
0.372551
0.432955
0.522058
0.65651
0.864612
1.15624
1.42277
1.59697
1.88062
0.299996
0.24003
0.224474
0.212623
0.202104
0.192975
0.185349
0.179267
0.174709
0.171622
0.169943
0.169611
0.170578
0.172806
0.17627
0.180948
0.186807
0.193785
0.20177
0.210568
0.219887
0.229311
0.238312
0.24628
0.2526
0.256771
0.258565
0.258202
0.256498
0.25495
0.255614
0.260745
0.272771
0.295035
0.332428
0.39171
0.479902
0.613298
0.816639
1.08586
1.32187
1.41976
1.49483
1.71909
0.318501
0.244673
0.225482
0.211635
0.199595
0.189179
0.180445
0.173405
0.168016
0.164195
0.161853
0.160902
0.161267
0.162885
0.165705
0.169675
0.174736
0.1808
0.187733
0.195338
0.203333
0.21135
0.218944
0.225633
0.230967
0.234629
0.236561
0.237082
0.237004
0.23771
0.24107
0.249275
0.265327
0.294296
0.343913
0.420248
0.535363
0.701915
0.904124
1.08353
1.18691
1.23863
1.3228
1.54699
0.3349
0.247872
0.22563
0.210261
0.19712
0.185783
0.176246
0.168497
0.162472
0.158073
0.155189
0.153714
0.153553
0.154623
0.15685
0.160165
0.164487
0.169715
0.17571
0.182282
0.189181
0.196099
0.202686
0.20859
0.213512
0.217295
0.220002
0.222007
0.224065
0.227407
0.233648
0.244794
0.264291
0.298916
0.355991
0.442936
0.564726
0.703129
0.827417
0.919492
0.98141
1.04505
1.17047
1.42283
0.349705
0.250159
0.225292
0.208698
0.19472
0.182703
0.172574
0.164292
0.157777
0.152916
0.149586
0.147665
0.147042
0.14762
0.14931
0.152029
0.155684
0.160171
0.165355
0.171068
0.177104
0.183224
0.189177
0.194734
0.199737
0.204158
0.208159
0.212131
0.216763
0.223114
0.232421
0.246251
0.268134
0.306062
0.367205
0.450915
0.545138
0.633018
0.702859
0.755505
0.806213
0.888448
1.05796
1.37247
0.363283
0.25187
0.224694
0.207062
0.192413
0.179873
0.169293
0.160603
0.153705
0.148474
0.144773
0.14247
0.141444
0.141585
0.142796
0.144982
0.148051
0.151899
0.156407
0.16144
0.166841
0.172448
0.178109
0.18371
0.189221
0.19473
0.200476
0.206862
0.214528
0.224323
0.237002
0.253522
0.277386
0.317882
0.375083
0.4404
0.502015
0.551613
0.588049
0.619893
0.666695
0.762457
0.965367
1.36133
0.376048
0.253232
0.223959
0.205406
0.190194
0.177238
0.166311
0.157308
0.150111
0.144582
0.140577
0.137952
0.136579
0.13634
0.137132
0.138858
0.141427
0.144747
0.148724
0.153256
0.158248
0.163614
0.169299
0.175304
0.181714
0.188724
0.196646
0.205898
0.217093
0.230837
0.247374
0.266788
0.292279
0.331412
0.376566
0.419247
0.452979
0.475694
0.491282
0.510887
0.554101
0.653194
0.86472
1.29302
0.388091
0.254362
0.22316
0.20377
0.188071
0.174776
0.16358
0.154338
0.146911
0.14115
0.136899
0.13401
0.132346
0.131788
0.132227
0.133571
0.135736
0.138647
0.142237
0.146451
0.151251
0.156631
0.162633
0.169365
0.177024
0.185911
0.196406
0.208967
0.224173
0.242376
0.263498
0.285445
0.311484
0.343479
0.372164
0.393244
0.405146
0.409455
0.411946
0.423466
0.461213
0.552896
0.746425
1.1323
0.399543
0.255336
0.222332
0.202165
0.186033
0.172457
0.161049
0.151625
0.144025
0.138085
0.133643
0.130543
0.128645
0.127826
0.127982
0.129024
0.130881
0.133499
0.136845
0.140909
0.145719
0.151347
0.157928
0.165679
0.174909
0.186021
0.199473
0.215784
0.23548
0.258605
0.284537
0.307593
0.332741
0.352552
0.363371
0.365859
0.3616
0.353737
0.348072
0.353795
0.384644
0.462304
0.623204
0.931214
0.410503
0.256204
0.221492
0.200592
0.184067
0.170252
0.158677
0.149116
0.141389
0.135318
0.130731
0.127469
0.12539
0.124369
0.124307
0.125125
0.126767
0.129204
0.132438
0.136511
0.141514
0.147599
0.154997
0.164032
0.175127
0.188794
0.205577
0.226078
0.250775
0.279467
0.309993
0.334102
0.35342
0.358406
0.352311
0.339786
0.323995
0.308328
0.297688
0.299158
0.322948
0.38486
0.510624
0.741393
0.421045
0.256996
0.220648
0.199049
0.182161
0.168138
0.156429
0.146769
0.138952
0.132789
0.1281
0.124721
0.122508
0.121341
0.121125
0.121792
0.123305
0.125664
0.12891
0.133134
0.138494
0.145224
0.153651
0.164209
0.177444
0.193984
0.214477
0.239626
0.269874
0.305135
0.340545
0.365345
0.373495
0.362285
0.341077
0.316754
0.292884
0.272348
0.258768
0.257159
0.274659
0.322175
0.416973
0.584782
0.431223
0.257728
0.219799
0.19753
0.180305
0.166098
0.154282
0.144549
0.136673
0.130451
0.125696
0.12224
0.119939
0.118676
0.118363
0.118948
0.120414
0.122789
0.126155
0.130657
0.136521
0.144061
0.153707
0.166009
0.181642
0.201367
0.225969
0.256261
0.292622
0.335014
0.373731
0.397413
0.391757
0.364801
0.33078
0.297413
0.267977
0.244487
0.229235
0.225433
0.237772
0.273451
0.343604
0.463932
0.441077
0.258409
0.218945
0.196031
0.17849
0.164119
0.152215
0.142433
0.134523
0.12827
0.123479
0.119981
0.117631
0.116317
0.115961
0.116524
0.118014
0.120489
0.124073
0.128967
0.135462
0.143962
0.155
0.16925
0.18753
0.210749
0.239877
0.27586
0.319045
0.368752
0.410349
0.427858
0.407207
0.366262
0.321854
0.281711
0.248494
0.223263
0.207093
0.201727
0.210002
0.236447
0.287964
0.373709
0.450632
0.259044
0.218083
0.19455
0.176711
0.162192
0.150217
0.140402
0.132478
0.126216
0.121416
0.117905
0.115541
0.114216
0.113863
0.11446
0.116037
0.118687
0.122575
0.127959
0.135201
0.144794
0.157382
0.173775
0.194944
0.221972
0.256055
0.298323
0.349333
0.407827
0.451629
0.456316
0.420281
0.367144
0.314406
0.269227
0.233466
0.207238
0.19057
0.184053
0.189158
0.208536
0.246235
0.307224
0.459907
0.259634
0.217212
0.193083
0.174964
0.160313
0.148279
0.138446
0.130523
0.124271
0.119483
0.115984
0.113634
0.112333
0.112024
0.112703
0.114424
0.117313
0.121581
0.127542
0.135634
0.146442
0.160728
0.179449
0.203748
0.234905
0.274377
0.323521
0.383431
0.450906
0.493602
0.482451
0.431274
0.367576
0.308221
0.259352
0.221912
0.195139
0.178195
0.170787
0.173391
0.187349
0.214816
0.258164
0.468913
0.260178
0.216327
0.191628
0.173248
0.158476
0.146396
0.136556
0.128646
0.122418
0.11766
0.114194
0.111884
0.110636
0.110406
0.111209
0.113123
0.116309
0.121025
0.127642
0.136676
0.148811
0.164937
0.186165
0.21383
0.249442
0.294733
0.351285
0.420704
0.493744
0.53106
0.504175
0.439527
0.367241
0.302885
0.251436
0.212951
0.185917
0.16881
0.160676
0.161269
0.171024
0.190863
0.221609
0.262599
0.477658
0.260674
0.215426
0.190184
0.171561
0.156682
0.144566
0.134728
0.126842
0.12065
0.115935
0.112519
0.110269
0.1091
0.108981
0.109943
0.112094
0.115629
0.120851
0.128197
0.138259
0.151829
0.169928
0.193839
0.2251
0.265492
0.317031
0.381516
0.460543
0.53655
0.562896
0.520378
0.444697
0.365925
0.298032
0.244909
0.205855
0.17875
0.161545
0.152797
0.151748
0.158207
0.172307
0.194001
0.222131
0.486148
0.261119
0.214507
0.188749
0.169902
0.154929
0.142787
0.13296
0.125107
0.11896
0.1143
0.110948
0.108777
0.107708
0.107725
0.108879
0.111305
0.115234
0.12102
0.129159
0.140332
0.155439
0.175644
0.202409
0.237494
0.282978
0.341185
0.414253
0.503833
0.580441
0.589263
0.531896
0.447318
0.363719
0.293423
0.239322
0.200057
0.173018
0.155762
0.146495
0.144095
0.147955
0.157714
0.17286
0.192135
0.494384
0.261511
0.213567
0.187321
0.16827
0.153217
0.141058
0.13125
0.123438
0.117345
0.112749
0.109473
0.107395
0.106446
0.106622
0.107997
0.110733
0.1151
0.1215
0.130498
0.142861
0.159606
0.182048
0.211837
0.250968
0.301832
0.367091
0.449406
0.550232
0.623402
0.611838
0.540301
0.448075
0.360742
0.28887
0.234323
0.195126
0.168266
0.15101
0.141313
0.137809
0.139618
0.146087
0.156483
0.169608
0.502368
0.261846
0.212602
0.185899
0.166664
0.151545
0.13938
0.129599
0.121835
0.115803
0.111279
0.108091
0.106119
0.105305
0.105662
0.107285
0.110364
0.115208
0.122272
0.13219
0.145823
0.164308
0.189118
0.222102
0.265496
0.322004
0.394627
0.486741
0.596774
0.660874
0.630293
0.545762
0.446994
0.3569
0.284173
0.229634
0.190743
0.16417
0.146972
0.136942
0.132551
0.13275
0.136729
0.143667
0.152491
0.510104
0.26212
0.21161
0.184479
0.165082
0.149914
0.137753
0.128008
0.120298
0.114334
0.109891
0.106798
0.104944
0.104282
0.10484
0.106735
0.110188
0.115549
0.123327
0.134228
0.149209
0.169536
0.196849
0.233198
0.281075
0.343473
0.423684
0.525668
0.638911
0.689084
0.642386
0.547251
0.443695
0.352017
0.279167
0.225055
0.186687
0.160506
0.143436
0.133172
0.128089
0.12704
0.129141
0.133559
0.139358
0.517594
0.26233
0.210585
0.18306
0.163524
0.148322
0.136178
0.126478
0.118829
0.11294
0.108585
0.105597
0.103872
0.103376
0.104154
0.106346
0.110204
0.116121
0.124662
0.136608
0.15302
0.175295
0.205244
0.245131
0.297712
0.366257
0.454267
0.565673
0.677893
0.709428
0.647433
0.544532
0.438197
0.346112
0.273798
0.22047
0.182814
0.157125
0.14026
0.129862
0.12426
0.122263
0.122957
0.125541
0.129199
0.524847
0.26247
0.209524
0.181637
0.161988
0.146769
0.134656
0.12501
0.117431
0.111623
0.107363
0.104488
0.102904
0.102589
0.103606
0.106119
0.110414
0.116927
0.126282
0.13934
0.157266
0.181598
0.21432
0.257918
0.315425
0.390404
0.486613
0.607882
0.71523
0.723007
0.647282
0.538881
0.431155
0.339444
0.268115
0.215832
0.179037
0.153933
0.137349
0.126917
0.12095
0.118248
0.117901
0.119151
0.121287
0.531875
0.262538
0.208419
0.180207
0.160472
0.145257
0.133188
0.123607
0.116105
0.110386
0.106228
0.103476
0.102044
0.101925
0.1032
0.10606
0.110824
0.117975
0.128197
0.142437
0.161967
0.188468
0.224104
0.271584
0.334228
0.415931
0.520869
0.652678
0.751159
0.733861
0.645297
0.532058
0.423327
0.33229
0.262187
0.211123
0.175307
0.150872
0.134645
0.12427
0.118073
0.114865
0.113758
0.114041
0.115094
0.538705
0.262528
0.207266
0.178767
0.158975
0.143786
0.131777
0.122273
0.114858
0.109235
0.105188
0.102568
0.1013
0.101391
0.102945
0.106178
0.111445
0.119277
0.130423
0.145916
0.167145
0.195935
0.234634
0.286165
0.354133
0.44279
0.557007
0.698743
0.783364
0.743705
0.64282
0.524644
0.414935
0.324726
0.256027
0.20633
0.171597
0.147909
0.132109
0.121876
0.115564
0.112009
0.110358
0.109946
0.110225
0.545382
0.262439
0.206059
0.177314
0.157499
0.14236
0.130428
0.121013
0.113694
0.108177
0.104248
0.10177
0.100679
0.100999
0.102853
0.106486
0.112291
0.120848
0.132977
0.1498
0.172827
0.204035
0.245953
0.301713
0.375166
0.470873
0.594572
0.739121
0.804195
0.748969
0.637976
0.515751
0.405629
0.316643
0.249611
0.201443
0.167896
0.145027
0.129719
0.119701
0.113369
0.109596
0.107565
0.106658
0.106385
0.551982
0.262272
0.204793
0.175848
0.156047
0.140984
0.129148
0.119836
0.112623
0.10722
0.10342
0.101094
0.100194
0.100759
0.102936
0.106998
0.113378
0.122708
0.13588
0.154112
0.17904
0.2128
0.258106
0.318298
0.397408
0.500095
0.632084
0.77294
0.81657
0.747001
0.628636
0.504393
0.395073
0.307967
0.242938
0.196473
0.164208
0.142223
0.127463
0.117721
0.111447
0.107555
0.105269
0.104014
0.103348
0.558639
0.262029
0.203469
0.174377
0.154628
0.139669
0.127949
0.118753
0.111658
0.106377
0.102716
0.100555
0.0998602
0.100689
0.103212
0.107733
0.114725
0.124877
0.139153
0.158875
0.185808
0.222258
0.271136
0.336001
0.421055
0.530953
0.670992
0.804291
0.821138
0.737802
0.614929
0.490786
0.383456
0.298826
0.236084
0.191459
0.160553
0.1395
0.125333
0.115917
0.109762
0.105828
0.103381
0.101884
0.100938
0.565585
0.26172
0.202105
0.172919
0.153261
0.138433
0.126848
0.117781
0.110814
0.105667
0.102154
0.100171
0.0996969
0.10081
0.103703
0.108713
0.116356
0.127377
0.142819
0.164108
0.19315
0.232424
0.285059
0.354869
0.446287
0.564024
0.712695
0.833899
0.82192
0.725628
0.599513
0.4763
0.371414
0.289495
0.229166
0.186454
0.156951
0.136869
0.123328
0.114276
0.108286
0.104368
0.101828
0.100168
0.099023
0.573205
0.261372
0.200751
0.171517
0.15198
0.137305
0.12587
0.116944
0.110114
0.10511
0.101758
0.0999652
0.0997288
0.101146
0.104434
0.109964
0.118294
0.13023
0.146897
0.16983
0.201075
0.243298
0.299857
0.374871
0.473132
0.599731
0.758515
0.864501
0.824146
0.715001
0.585051
0.462223
0.359496
0.280194
0.222274
0.181498
0.153426
0.134337
0.121447
0.112787
0.106995
0.103134
0.10055
0.0987817
0.0974957
0.582152
0.261102
0.199529
0.170252
0.150842
0.136328
0.12505
0.116274
0.109589
0.104737
0.101556
0.0999684
0.0999867
0.101728
0.105437
0.111515
0.120567
0.133461
0.151406
0.176048
0.209582
0.254855
0.315466
0.395857
0.501315
0.637867
0.806117
0.891306
0.828306
0.706734
0.571913
0.448662
0.34772
0.270931
0.215422
0.17661
0.149993
0.131917
0.119694
0.111442
0.10587
0.102094
0.0995001
0.0976617
0.0962742
0.59356
0.261342
0.1987
0.169263
0.149936
0.135565
0.12444
0.115812
0.109277
0.104585
0.101586
0.100218
0.100509
0.102596
0.106749
0.113402
0.123208
0.137096
0.15636
0.182764
0.218651
0.267052
0.331791
0.417597
0.530214
0.676874
0.844477
0.903635
0.827602
0.696582
0.557713
0.434434
0.335572
0.261521
0.208568
0.171798
0.146672
0.129624
0.118076
0.11024
0.104899
0.101222
0.0986394
0.096756
0.0952937
0.609539
0.263396
0.198733
0.168773
0.149391
0.135105
0.124105
0.115614
0.109227
0.104699
0.101894
0.10076
0.101342
0.103796
0.108417
0.115671
0.126255
0.141161
0.161772
0.189967
0.228243
0.279821
0.348736
0.439913
0.559192
0.71365
0.873229
0.906302
0.81706
0.679645
0.539502
0.418105
0.322464
0.251793
0.20171
0.167104
0.143502
0.127488
0.116608
0.109182
0.10407
0.100498
0.0979374
0.0960236
0.0945034
0.629608
0.267927
0.199959
0.16906
0.149391
0.135068
0.124132
0.115749
0.109497
0.105135
0.102531
0.101647
0.102541
0.105387
0.110499
0.118377
0.129758
0.145696
0.167655
0.197635
0.238292
0.293054
0.366194
0.462831
0.588765
0.750457
0.896858
0.89755
0.794537
0.654136
0.516087
0.399158
0.308354
0.241831
0.194934
0.162609
0.140562
0.125561
0.11532
0.108278
0.103381
0.0999082
0.0973701
0.0954322
0.0938636
0.65212
0.276263
0.202805
0.170277
0.150106
0.135599
0.124627
0.116298
0.110156
0.105953
0.103559
0.102943
0.104172
0.107435
0.113067
0.121593
0.133787
0.150754
0.174038
0.205749
0.248707
0.306575
0.383938
0.486261
0.619465
0.788994
0.915789
0.881288
0.764096
0.6224
0.489258
0.378607
0.293625
0.23177
0.18829
0.158322
0.137834
0.123831
0.11421
0.107535
0.102833
0.0994435
0.0969195
0.0949571
0.0933435
0.676937
0.291109
0.20795
0.172732
0.151662
0.136818
0.125701
0.117346
0.111275
0.107218
0.10504
0.104711
0.106306
0.110023
0.116211
0.125415
0.138437
0.156425
0.180983
0.214315
0.259392
0.320123
0.401504
0.509655
0.651372
0.831071
0.932696
0.861769
0.730374
0.588671
0.461108
0.35742
0.278747
0.221825
0.181872
0.154283
0.135337
0.122303
0.113271
0.106933
0.102406
0.0990882
0.0965723
0.09458
0.0929194
0.706004
0.31714
0.216128
0.176927
0.154396
0.138889
0.127463
0.118977
0.112911
0.108977
0.107023
0.10701
0.109013
0.113236
0.120034
0.129964
0.143847
0.162854
0.188624
0.22342
0.270319
0.333429
0.418156
0.531548
0.682505
0.867387
0.931882
0.834703
0.693858
0.553604
0.432397
0.336148
0.264051
0.212174
0.175766
0.15053
0.133087
0.120979
0.112496
0.106465
0.102088
0.098824
0.0963049
0.0942787
0.0925723
0.755888
0.355056
0.227064
0.183412
0.158895
0.142239
0.130155
0.121333
0.115154
0.111289
0.109556
0.109894
0.112367
0.117172
0.124666
0.135408
0.15022
0.170277
0.197222
0.233322
0.281666
0.346443
0.433191
0.549585
0.70659
0.872396
0.894504
0.787786
0.648115
0.514706
0.402429
0.314743
0.249642
0.202915
0.170036
0.147098
0.131096
0.119861
0.111881
0.106119
0.101865
0.0986362
0.0961016
0.0940349
0.0922793
0.779439
0.354394
0.239467
0.192726
0.165603
0.14725
0.13411
0.124629
0.118139
0.114248
0.112717
0.113444
0.116464
0.121958
0.130274
0.141958
0.157823
0.179025
0.207174
0.244478
)
;

boundaryField
{
    leftWall
    {
        Cmu             0.09;
        kappa           0.41;
        E               9.8;
        type            epsilonWallFunction;
        value           nonuniform List<scalar> 
44
(
0.0738808
0.131638
0.183361
0.222524
0.253386
0.278653
0.299996
0.318501
0.3349
0.349705
0.363283
0.376048
0.388091
0.399543
0.410503
0.421045
0.431223
0.441077
0.450632
0.459907
0.468913
0.477658
0.486148
0.494384
0.502368
0.510104
0.517594
0.524847
0.531875
0.538705
0.545382
0.551982
0.558639
0.565585
0.573205
0.582152
0.59356
0.609539
0.629608
0.65212
0.676937
0.706004
0.755888
0.779439
)
;
    }
    rightWall
    {
        Cmu             0.09;
        kappa           0.41;
        E               9.8;
        type            epsilonWallFunction;
        value           nonuniform 0();
    }
    lowerWall
    {
        Cmu             0.09;
        kappa           0.41;
        E               9.8;
        type            epsilonWallFunction;
        value           nonuniform List<scalar> 
44
(
0.0738808
0.19587
0.322122
0.427423
0.515295
0.58996
0.654522
0.711465
0.762912
0.810701
0.856449
0.901612
0.947544
0.995553
1.04694
1.10304
1.1652
1.23477
1.31298
1.40077
1.49852
1.60566
1.72029
1.83872
1.95534
2.0627
2.15224
2.2155
2.24567
2.23897
2.19448
2.11114
1.99277
1.86368
1.72798
1.59465
1.47561
1.38218
1.32166
1.29536
1.29899
1.32314
1.32125
1.22786
)
;
    }
    atmosphere
    {
        type            inletOutlet;
        inletValue      nonuniform 0();
        value           nonuniform 0();
    }
    defaultFaces
    {
        type            empty;
    }
    procBoundary0to1
    {
        type            processor;
        value           nonuniform List<scalar> 
44
(
1.13132
1.09533
1.19454
1.58234
2.06651
2.24976
2.07889
1.8552
1.75011
1.87861
2.08473
2.04185
1.79671
1.46361
1.13335
0.85958
0.652539
0.502232
0.394781
0.317988
0.317988
0.309396
0.25328
0.212955
0.183519
0.161735
0.145414
0.133057
0.123616
0.116349
0.110723
0.106344
0.102922
0.100237
0.0981225
0.0964497
0.09512
0.0940568
0.0932006
0.0925053
0.0919352
0.0914632
0.0910688
0.0907298
)
;
    }
    procBoundary0to2
    {
        type            processor;
        value           nonuniform List<scalar> 
46
(
0.293977
0.359685
0.44682
0.562572
0.717641
0.844177
0.822749
0.716948
0.58963
0.470305
0.370675
0.293157
0.235607
0.194141
0.164744
0.144023
0.129382
0.118952
0.111422
0.105888
0.101727
0.0985121
0.095949
0.0938348
0.0920277
0.783782
0.362491
0.249774
0.203682
0.17423
0.153788
0.139318
0.128891
0.121817
0.117769
0.116434
0.117616
0.121295
0.127628
0.136942
0.149766
0.166888
0.189432
0.218948
0.293977
0.257542
)
;
    }
}


// ************************************************************************* //
