/*--------------------------------*- C++ -*----------------------------------*\
| =========                 |                                                 |
| \\      /  F ield         | OpenFOAM: The Open Source CFD Toolbox           |
|  \\    /   O peration     | Version:  5.0                                   |
|   \\  /    A nd           | Web:      www.OpenFOAM.org                      |
|    \\/     M anipulation  |                                                 |
\*---------------------------------------------------------------------------*/
FoamFile
{
    version     2.0;
    format      ascii;
    class       volScalarField;
    location    "0.15";
    object      k;
}
// * * * * * * * * * * * * * * * * * * * * * * * * * * * * * * * * * * * * * //

dimensions      [0 2 -2 0 0 0 0];

internalField   nonuniform List<scalar> 
1935
(
0.00627519
0.0110681
0.0154409
0.0186559
0.0211413
0.0231458
0.0248139
0.026242
0.0275013
0.0286469
0.0297234
0.0307677
0.0318119
0.0328851
0.0340142
0.0352248
0.0365414
0.037986
0.0395765
0.0413233
0.0432244
0.0452606
0.0473897
0.0495424
0.0516217
0.053507
0.0550656
0.0561703
0.0567198
0.0566557
0.0559604
0.0546063
0.0526083
0.0503435
0.0478961
0.0454028
0.0430834
0.041179
0.0398772
0.0392495
0.0392361
0.039655
0.0397464
0.0380486
0.0102129
0.0226784
0.0309159
0.0369317
0.0415008
0.0450891
0.0479959
0.0504276
0.0525343
0.054429
0.0562001
0.0579197
0.0596487
0.0614407
0.0633439
0.0654026
0.0676556
0.070134
0.0728562
0.0758203
0.0789964
0.0823166
0.0856675
0.0888875
0.0917709
0.0940848
0.0955996
0.096133
0.0955989
0.094042
0.0916312
0.0886046
0.0850539
0.0809168
0.0767556
0.0730557
0.0702176
0.0684832
0.0679437
0.0685504
0.0700606
0.0718416
0.0718984
0.0684994
0.0127497
0.0281844
0.038007
0.0451456
0.0506084
0.0549319
0.0584559
0.0614208
0.0640059
0.0663481
0.0685553
0.070715
0.0729009
0.0751767
0.0775988
0.0802163
0.0830697
0.0861868
0.089576
0.093218
0.0970563
0.100987
0.104854
0.108446
0.11151
0.113778
0.115002
0.115019
0.113806
0.111528
0.108521
0.105203
0.101904
0.098784
0.0959414
0.0935353
0.0918123
0.0910816
0.091613
0.093523
0.0967771
0.101713
0.108264
0.102554
0.0145133
0.0318416
0.042615
0.0503598
0.0562897
0.0610058
0.064873
0.0681484
0.0710245
0.07365
0.0761421
0.0785963
0.0810921
0.0836974
0.0864705
0.0894601
0.0927026
0.0962178
0.100001
0.104015
0.108179
0.112363
0.116381
0.119998
0.122943
0.124942
0.125767
0.125298
0.123589
0.120905
0.117698
0.114479
0.111641
0.109375
0.107789
0.107043
0.107363
0.10902
0.112305
0.117463
0.124778
0.136545
0.15493
0.153224
0.0158319
0.0344517
0.0459123
0.0540674
0.0602869
0.0652372
0.0693109
0.0727791
0.0758431
0.0786577
0.0813451
0.0840041
0.0867165
0.0895507
0.0925639
0.095801
0.0992921
0.103047
0.107048
0.111241
0.115529
0.119762
0.123741
0.127223
0.129939
0.131636
0.132123
0.131334
0.129392
0.126641
0.123606
0.12085
0.118793
0.117672
0.117686
0.119069
0.122098
0.127092
0.134427
0.14451
0.157883
0.174806
0.187897
0.189789
0.0168729
0.0363688
0.0483648
0.0568362
0.0632581
0.0683563
0.0725544
0.0761388
0.0793189
0.0822538
0.0850678
0.087861
0.0907147
0.093696
0.0968587
0.100242
0.10387
0.107742
0.111828
0.116063
0.120337
0.124494
0.128331
0.131614
0.134096
0.135556
0.13585
0.134967
0.133085
0.130594
0.128057
0.126055
0.125044
0.125372
0.127431
0.131604
0.138218
0.147593
0.160429
0.177841
0.197491
0.206397
0.199727
0.191517
0.0177286
0.0378128
0.0502319
0.0589563
0.0655295
0.0707251
0.0749962
0.0786453
0.0818897
0.0848921
0.0877782
0.0906475
0.0935801
0.0966401
0.099877
0.103325
0.106999
0.110891
0.114964
0.119144
0.123317
0.127327
0.130984
0.13407
0.136372
0.137713
0.137996
0.137258
0.135711
0.133762
0.131972
0.130918
0.131125
0.13317
0.137765
0.145498
0.156278
0.170885
0.190245
0.210788
0.220261
0.209982
0.192674
0.178532
0.0184547
0.0389312
0.0516832
0.0606063
0.067292
0.0725511
0.0768615
0.0805401
0.0838115
0.0868417
0.0897573
0.0926567
0.0956177
0.0987011
0.101952
0.105399
0.109051
0.112893
0.116884
0.120948
0.124972
0.12881
0.13229
0.135225
0.13744
0.138805
0.139269
0.138904
0.137934
0.136757
0.135893
0.135888
0.137377
0.141297
0.148756
0.159615
0.174219
0.192199
0.208923
0.216432
0.210128
0.194655
0.178294
0.164487
0.019087
0.0398233
0.0528352
0.0619076
0.0686722
0.0739686
0.0782942
0.0819775
0.0852493
0.0882782
0.0911911
0.0940851
0.0970357
0.1001
0.103319
0.106717
0.110299
0.114045
0.117914
0.12183
0.125691
0.129366
0.132708
0.135566
0.137807
0.139348
0.140179
0.140397
0.140219
0.140008
0.140208
0.141278
0.14393
0.149508
0.158753
0.171529
0.186685
0.199219
0.204198
0.200437
0.189816
0.176788
0.165984
0.156232
0.0196494
0.0405562
0.0537687
0.0629461
0.0697592
0.0750711
0.0793935
0.0830636
0.0863168
0.0893234
0.0922103
0.0950734
0.0979854
0.101001
0.104157
0.107474
0.110955
0.114581
0.118309
0.122073
0.125783
0.12933
0.132596
0.135469
0.13786
0.139731
0.141108
0.1421
0.142913
0.143857
0.145242
0.14735
0.15088
0.157517
0.16783
0.179813
0.189498
0.193448
0.190513
0.182165
0.171574
0.162735
0.158839
0.156949
0.0201586
0.0411762
0.0545426
0.0637875
0.070623
0.075932
0.0802367
0.0838803
0.0871012
0.0900709
0.0929158
0.0957302
0.0985848
0.101531
0.104605
0.107824
0.11119
0.114686
0.118275
0.121901
0.125492
0.128964
0.132231
0.135222
0.137892
0.140246
0.142341
0.144296
0.146303
0.148601
0.151312
0.154486
0.158783
0.166306
0.175677
0.183529
0.186771
0.184178
0.176539
0.166366
0.157148
0.152512
0.155216
0.16376
0.0206318
0.0417186
0.0551994
0.0644783
0.0713124
0.0766014
0.0808756
0.0844818
0.08766
0.0905823
0.093374
0.0961282
0.0989136
0.10178
0.104761
0.107875
0.111124
0.114495
0.117961
0.12148
0.124998
0.128461
0.131818
0.135037
0.138121
0.141111
0.144097
0.147201
0.150607
0.154457
0.158676
0.162987
0.167934
0.17519
0.181486
0.184107
0.181676
0.174434
0.164074
0.153416
0.145794
0.1444
0.151638
0.167855
0.0210735
0.0422006
0.0557625
0.0650469
0.0718586
0.0771129
0.0813456
0.0849056
0.0880339
0.0909018
0.093634
0.096322
0.0990331
0.101816
0.104703
0.107715
0.110856
0.11412
0.117491
0.120943
0.124446
0.127975
0.131514
0.135075
0.138701
0.142473
0.146505
0.15093
0.155911
0.161486
0.167453
0.17276
0.178005
0.18326
0.185208
0.182656
0.175631
0.165209
0.153397
0.142882
0.136545
0.136982
0.145989
0.164144
0.0214896
0.0426369
0.0562519
0.0655178
0.0722896
0.0774963
0.0816781
0.085185
0.0882579
0.0910674
0.0937371
0.0963572
0.0989938
0.101695
0.104495
0.107414
0.110464
0.113648
0.116959
0.120393
0.123943
0.127615
0.131431
0.135441
0.139731
0.144419
0.149638
0.155537
0.162242
0.169661
0.177406
0.183174
0.188292
0.190015
0.187102
0.179931
0.169406
0.156941
0.144495
0.134381
0.128896
0.129961
0.138731
0.155172
0.0218842
0.0430383
0.0566827
0.0659105
0.0726275
0.0777759
0.0818987
0.0853469
0.0883607
0.0911098
0.0937166
0.0962701
0.098836
0.101462
0.104185
0.107028
0.11001
0.113142
0.116436
0.119903
0.123564
0.127456
0.131638
0.136199
0.141266
0.146989
0.153521
0.161023
0.169583
0.178998
0.188351
0.194512
0.197916
0.195311
0.187684
0.176656
0.163578
0.149898
0.137326
0.127704
0.122727
0.123702
0.131261
0.144926
0.0222606
0.0434129
0.0570666
0.0662401
0.0728905
0.0779715
0.0820289
0.0854139
0.0883661
0.0910543
0.0935995
0.0960903
0.0985918
0.101153
0.103812
0.106599
0.109538
0.112652
0.11597
0.119522
0.123358
0.127543
0.132174
0.13738
0.143323
0.150188
0.158144
0.167365
0.177898
0.18956
0.200519
0.206914
0.206912
0.199518
0.187576
0.173418
0.158531
0.14421
0.131812
0.122694
0.118018
0.118584
0.124664
0.135687
0.022621
0.0437663
0.0574126
0.0665192
0.0730934
0.0780998
0.0820866
0.085405
0.0882941
0.0909218
0.0934083
0.0958414
0.0982867
0.100795
0.103406
0.106157
0.10908
0.112212
0.115595
0.119283
0.123351
0.127898
0.133053
0.138986
0.145896
0.153997
0.163481
0.174528
0.187125
0.201089
0.212996
0.219065
0.214919
0.202848
0.18718
0.170564
0.154441
0.139858
0.127796
0.119162
0.114673
0.114752
0.119439
0.128221
0.0229674
0.0441031
0.0577277
0.0667576
0.0732485
0.0781746
0.0820867
0.0853362
0.0881617
0.0907303
0.0931616
0.0955432
0.0979413
0.100409
0.10299
0.105726
0.108661
0.111843
0.115331
0.119203
0.123558
0.128526
0.134274
0.141006
0.148961
0.15838
0.169491
0.182474
0.197257
0.213409
0.226014
0.230206
0.221643
0.205432
0.186716
0.168239
0.151312
0.136711
0.125053
0.11686
0.112498
0.11212
0.115617
0.122538
0.0233008
0.0444262
0.0580173
0.0669632
0.0733656
0.0782077
0.0820423
0.0852214
0.0879833
0.0904947
0.0928749
0.0952115
0.097572
0.100011
0.102579
0.105322
0.108295
0.111559
0.11519
0.119288
0.123978
0.129422
0.135821
0.143418
0.152487
0.163301
0.176127
0.19116
0.208341
0.22701
0.240024
0.240351
0.227297
0.207489
0.186319
0.16646
0.149041
0.134564
0.123322
0.115515
0.111241
0.110461
0.112972
0.118355
0.0236223
0.0447382
0.0582857
0.0671423
0.0734529
0.0782085
0.081964
0.0850721
0.0877712
0.0902279
0.0925613
0.0948598
0.097192
0.0996161
0.102186
0.104957
0.107992
0.111367
0.115176
0.119538
0.124607
0.130573
0.137676
0.146194
0.156439
0.168717
0.183341
0.200523
0.220321
0.241421
0.253834
0.249509
0.232062
0.209134
0.186009
0.165151
0.147466
0.13319
0.12234
0.114859
0.11064
0.10951
0.111199
0.115301
0.0239324
0.0450406
0.0585361
0.0673001
0.0735172
0.0781852
0.0818611
0.0848985
0.0875362
0.0899409
0.0922321
0.094499
0.0968123
0.0992332
0.101821
0.104638
0.107759
0.111271
0.115287
0.119949
0.125433
0.131965
0.139816
0.149305
0.16078
0.174588
0.191081
0.210474
0.232924
0.255257
0.265913
0.257112
0.235785
0.210319
0.18572
0.164189
0.146403
0.13237
0.121874
0.114657
0.110464
0.109023
0.110018
0.113044
0.117546
0.0242316
0.0453349
0.0587712
0.0674407
0.0735639
0.0781444
0.0817413
0.0847091
0.0872874
0.0896432
0.0918969
0.0941389
0.096442
0.0988711
0.101491
0.104372
0.107598
0.111272
0.115523
0.120514
0.126449
0.133582
0.142221
0.152724
0.165478
0.180874
0.199296
0.220951
0.245902
0.268601
0.276025
0.262868
0.238388
0.21101
0.185377
0.163444
0.145685
0.131912
0.121728
0.114724
0.110532
0.10881
0.109209
0.11133
0.114657
0.0245204
0.045622
0.0589931
0.0675673
0.0735973
0.0780916
0.0816109
0.0845111
0.0870325
0.0893431
0.0915641
0.0937875
0.0960888
0.0985368
0.101202
0.104163
0.107514
0.111371
0.115882
0.121228
0.127643
0.13541
0.144872
0.156427
0.1705
0.187533
0.20794
0.231949
0.259535
0.281877
0.284335
0.267075
0.24006
0.211261
0.184939
0.16281
0.145168
0.131663
0.121754
0.11492
0.11071
0.108735
0.108624
0.109982
0.112342
0.024799
0.0459028
0.0592034
0.0676825
0.0736212
0.0780314
0.0814755
0.0843108
0.0867785
0.0890477
0.0912409
0.0934521
0.0957597
0.0982368
0.10096
0.104015
0.107508
0.111569
0.11636
0.122087
0.129008
0.137438
0.147756
0.160396
0.175822
0.194528
0.216961
0.243422
0.273721
0.294615
0.291431
0.27026
0.241051
0.211139
0.184368
0.162197
0.144739
0.131505
0.121843
0.115147
0.110911
0.108711
0.108165
0.108888
0.110457
0.0250676
0.0461779
0.0594035
0.0677887
0.0736386
0.0779676
0.0813398
0.0841136
0.0865313
0.0887634
0.090934
0.0931394
0.0954611
0.0979769
0.100769
0.103933
0.107584
0.111865
0.116958
0.123088
0.13054
0.139659
0.150861
0.164615
0.181424
0.201822
0.226291
0.255263
0.287598
0.305648
0.297293
0.27252
0.241397
0.210632
0.183616
0.161529
0.144311
0.131353
0.121919
0.115343
0.11108
0.108686
0.107773
0.107973
0.108904
0.0253265
0.046448
0.0595946
0.0678877
0.073652
0.0779037
0.0812079
0.0839242
0.0862963
0.088496
0.0906495
0.0928554
0.0951991
0.0977628
0.100635
0.103921
0.107744
0.112263
0.117676
0.12423
0.132235
0.142069
0.15418
0.169075
0.187289
0.209389
0.235867
0.267242
0.299867
0.313977
0.301309
0.273563
0.240983
0.209688
0.182634
0.16075
0.143824
0.131152
0.121936
0.115471
0.111188
0.108632
0.107417
0.107191
0.10761
0.0255761
0.0467138
0.0597779
0.0679812
0.0736639
0.0778428
0.0810837
0.0837472
0.0860785
0.088251
0.090393
0.0926062
0.0949795
0.0976004
0.100564
0.103983
0.107993
0.112766
0.118516
0.125513
0.134093
0.144664
0.157709
0.173766
0.193409
0.217218
0.245665
0.279168
0.310906
0.320011
0.30327
0.273291
0.239798
0.208305
0.181408
0.159831
0.143242
0.130866
0.121867
0.115513
0.111223
0.108537
0.107077
0.10651
0.106522
0.0258166
0.0469762
0.0599547
0.068071
0.0736767
0.077788
0.0809709
0.083587
0.085883
0.0880339
0.0901705
0.0923977
0.0948085
0.0974957
0.100561
0.104126
0.108337
0.113379
0.119484
0.126943
0.136117
0.147446
0.161445
0.178685
0.199774
0.22531
0.255749
0.291372
0.321218
0.324089
0.303666
0.27205
0.238028
0.206566
0.179959
0.158762
0.142545
0.13048
0.121701
0.115463
0.111182
0.1084
0.106747
0.105908
0.105599
0.0260489
0.0472364
0.0601262
0.0681589
0.0736929
0.0777425
0.0808735
0.0834483
0.0857148
0.0878503
0.089988
0.0922363
0.0946927
0.0974554
0.100633
0.104356
0.108781
0.114107
0.120583
0.128522
0.138311
0.150419
0.16539
0.183827
0.206375
0.233658
0.266157
0.303983
0.330961
0.32732
0.303433
0.270356
0.235913
0.204565
0.178316
0.157547
0.14173
0.129989
0.121436
0.115326
0.111071
0.108222
0.106421
0.10537
0.104809
0.0262738
0.0474962
0.0602944
0.0682474
0.0737155
0.0777101
0.080796
0.0833361
0.0855797
0.0877062
0.0898519
0.0921288
0.0946391
0.0974867
0.100788
0.10468
0.109332
0.114957
0.121821
0.130259
0.140682
0.153587
0.169547
0.189192
0.213199
0.242228
0.276871
0.316674
0.339663
0.330224
0.302992
0.26841
0.233536
0.202335
0.176491
0.15619
0.140798
0.129395
0.12108
0.115107
0.110898
0.10801
0.106099
0.104884
0.104127
0.0264931
0.047758
0.0604615
0.0683392
0.0737483
0.0776954
0.0807437
0.0832565
0.0854842
0.0876088
0.0897697
0.092083
0.0946557
0.0975978
0.101032
0.105106
0.109999
0.115937
0.123205
0.132158
0.143234
0.156956
0.173922
0.194782
0.220232
0.250957
0.287718
0.327613
0.345416
0.331904
0.301861
0.26597
0.230797
0.199845
0.174481
0.154695
0.139757
0.128708
0.120642
0.114819
0.110672
0.107769
0.105781
0.104442
0.103532
0.0267096
0.0480259
0.0606308
0.0684383
0.0737961
0.0777041
0.0807233
0.0832166
0.0854361
0.0875662
0.0897499
0.0921078
0.0947518
0.097798
0.101377
0.105643
0.110789
0.117055
0.124742
0.134227
0.145974
0.160531
0.178519
0.200604
0.227475
0.259782
0.29822
0.336538
0.348863
0.331621
0.29943
0.262733
0.22758
0.197067
0.172288
0.153074
0.138619
0.127941
0.120136
0.114475
0.110404
0.107508
0.105468
0.104036
0.103008
0.0269282
0.0483061
0.0608073
0.0685503
0.0738655
0.0777439
0.0807429
0.0832253
0.0854446
0.0875882
0.0898029
0.0922136
0.094938
0.098098
0.101831
0.106303
0.111714
0.11832
0.12644
0.136473
0.148906
0.164315
0.183343
0.20667
0.23497
0.26882
0.308735
0.344519
0.350168
0.329316
0.295674
0.258721
0.223926
0.194037
0.16994
0.151348
0.137403
0.12711
0.119576
0.114087
0.110105
0.107231
0.105162
0.103662
0.102543
0.0271567
0.0486088
0.0609989
0.0686834
0.0739655
0.0778244
0.0808132
0.0832937
0.0855215
0.0876868
0.0899407
0.0924131
0.0952269
0.0985105
0.102409
0.107096
0.112784
0.119742
0.128307
0.1389
0.152032
0.168305
0.188388
0.212983
0.242759
0.278225
0.319637
0.351802
0.350326
0.326043
0.291275
0.254308
0.22002
0.190845
0.167483
0.149545
0.136129
0.126233
0.118977
0.113668
0.109786
0.106947
0.104864
0.103315
0.102126
0.0274084
0.0489497
0.0612179
0.0688495
0.0741086
0.0779587
0.0809474
0.0834357
0.0856807
0.0878765
0.0901784
0.0927212
0.0956336
0.0990502
0.103123
0.108035
0.11401
0.121331
0.130351
0.141512
0.155351
0.172494
0.19364
0.219524
0.250841
0.288112
0.33128
0.359127
0.350661
0.322979
0.286966
0.249872
0.216037
0.187568
0.164956
0.14769
0.134816
0.125327
0.118356
0.113232
0.109456
0.106662
0.104576
0.102993
0.10175
0.0277053
0.0493505
0.0614817
0.0690651
0.0743113
0.0781637
0.0811626
0.0836682
0.0859397
0.0881748
0.0905336
0.0931559
0.0961759
0.0997347
0.103992
0.109137
0.115408
0.123098
0.132579
0.144314
0.158859
0.176868
0.199067
0.226231
0.259123
0.29842
0.343122
0.365483
0.351368
0.320394
0.282886
0.245467
0.211997
0.184221
0.162375
0.145801
0.133484
0.124409
0.117728
0.112793
0.109126
0.106381
0.104302
0.102694
0.101408
0.0280851
0.0498352
0.0618117
0.0693514
0.074595
0.0784603
0.0814797
0.0840121
0.0863193
0.0886028
0.0910275
0.0937385
0.0968752
0.100585
0.105033
0.11042
0.116991
0.125055
0.135
0.147305
0.16255
0.181409
0.204629
0.233017
0.2674
0.308694
0.352461
0.368341
0.350805
0.317225
0.278407
0.240759
0.207748
0.180751
0.159736
0.143893
0.132153
0.1235
0.11711
0.112363
0.108806
0.106113
0.104043
0.102417
0.101097
0.0286158
0.0504163
0.0622283
0.0697335
0.0749857
0.0788742
0.0819234
0.0844916
0.0868435
0.0891848
0.091685
0.094494
0.0977565
0.101625
0.106272
0.111906
0.11878
0.127218
0.137621
0.150486
0.166414
0.186095
0.210293
0.239812
0.275453
0.31804
0.359134
0.36866
0.347685
0.312179
0.272703
0.235322
0.203105
0.177105
0.157044
0.141992
0.130847
0.122622
0.11652
0.111956
0.108505
0.105862
0.103804
0.102163
0.100813
0.029259
0.051183
0.0627959
0.0702416
0.0755124
0.0794351
0.0825224
0.0851346
0.0875398
0.0899482
0.0925338
0.0954508
0.0988487
0.102885
0.107738
0.113622
0.1208
0.129606
0.140454
0.153859
0.170439
0.190905
0.216035
0.246627
0.283407
0.326996
0.364213
0.366003
0.34141
0.304727
0.265403
0.228976
0.198039
0.173306
0.154333
0.14013
0.129606
0.121805
0.115981
0.111587
0.108234
0.105636
0.103587
0.101932
0.100554
0.0299642
0.0522565
0.0635605
0.0709331
0.0762098
0.0801721
0.0833068
0.0859706
0.0884376
0.0909227
0.0936044
0.0966408
0.100185
0.104399
0.109465
0.115603
0.123084
0.132248
0.14352
0.15743
0.174614
0.195807
0.221819
0.253468
0.291429
0.336004
0.367864
0.361267
0.332899
0.295408
0.256935
0.221988
0.192669
0.169409
0.151632
0.138323
0.128429
0.121051
0.115498
0.111269
0.108003
0.105442
0.103396
0.101724
0.100319
0.0307216
0.053825
0.0645691
0.0718381
0.0771215
0.0811178
0.0843027
0.0870265
0.089564
0.0921364
0.0949266
0.0980963
0.101802
0.106207
0.111498
0.117897
0.125679
0.135187
0.146855
0.16122
0.178932
0.200757
0.227559
0.260249
0.299615
0.345561
0.370779
0.355473
0.323263
0.285249
0.247857
0.214649
0.187156
0.1655
0.148986
0.136597
0.127334
0.120369
0.115075
0.110997
0.10781
0.105279
0.103233
0.101542
0.100107
0.0316039
0.0561338
0.0658566
0.0730223
0.0783073
0.0823264
0.0855462
0.0883244
0.0909381
0.0936086
0.0965226
0.0998444
0.103732
0.108349
0.113884
0.120559
0.128647
0.138491
0.150524
0.16528
0.183415
0.205717
0.23311
0.266673
0.307602
0.353624
0.369616
0.34768
0.312611
0.274447
0.238405
0.207149
0.181629
0.161662
0.146443
0.134976
0.126334
0.119768
0.114716
0.110775
0.107655
0.105145
0.103092
0.101379
0.0999162
0.0330823
0.0588282
0.0672553
0.0745437
0.0798902
0.0839116
0.0871294
0.0899241
0.092593
0.0953626
0.0984144
0.101912
0.10601
0.110874
0.116687
0.123666
0.13208
0.142265
0.154638
0.169721
0.188155
0.210717
0.238336
0.272209
0.313979
0.354552
0.360238
0.335075
0.299428
0.262406
0.228437
0.199521
0.176163
0.157955
0.144045
0.133487
0.125444
0.119253
0.114424
0.110602
0.107535
0.105037
0.102972
0.101233
0.0997402
0.0336663
0.0576661
0.0683632
0.076359
0.0819091
0.0859538
0.089154
0.0919172
0.094594
0.0974405
0.100639
0.104337
0.108686
0.113843
0.119984
0.127317
0.136098
0.146645
0.159355
0.174718
)
;

boundaryField
{
    leftWall
    {
        type            kqRWallFunction;
        value           nonuniform List<scalar> 
44
(
0.00627519
0.0102129
0.0127497
0.0145133
0.0158319
0.0168729
0.0177286
0.0184547
0.019087
0.0196494
0.0201586
0.0206318
0.0210735
0.0214896
0.0218842
0.0222606
0.022621
0.0229674
0.0233008
0.0236223
0.0239324
0.0242316
0.0245204
0.024799
0.0250676
0.0253265
0.0255761
0.0258166
0.0260489
0.0262738
0.0264931
0.0267096
0.0269282
0.0271567
0.0274084
0.0277053
0.0280851
0.0286158
0.029259
0.0299642
0.0307216
0.0316039
0.0330823
0.0336663
)
;
    }
    rightWall
    {
        type            kqRWallFunction;
        value           nonuniform 0();
    }
    lowerWall
    {
        type            kqRWallFunction;
        value           nonuniform List<scalar> 
44
(
0.00627519
0.0110681
0.0154409
0.0186559
0.0211413
0.0231458
0.0248139
0.026242
0.0275013
0.0286469
0.0297234
0.0307677
0.0318119
0.0328851
0.0340142
0.0352248
0.0365414
0.037986
0.0395765
0.0413233
0.0432244
0.0452606
0.0473897
0.0495424
0.0516217
0.053507
0.0550656
0.0561703
0.0567198
0.0566557
0.0559604
0.0546063
0.0526083
0.0503435
0.0478961
0.0454028
0.0430834
0.041179
0.0398772
0.0392495
0.0392361
0.039655
0.0397464
0.0380486
)
;
    }
    atmosphere
    {
        type            inletOutlet;
        inletValue      nonuniform 0();
        value           nonuniform 0();
    }
    defaultFaces
    {
        type            empty;
    }
    procBoundary0to1
    {
        type            processor;
        value           nonuniform List<scalar> 
44
(
0.0359596
0.0713838
0.0969728
0.128676
0.157699
0.165285
0.150554
0.134154
0.129816
0.144141
0.168434
0.181971
0.182846
0.174745
0.162488
0.150351
0.140149
0.132112
0.125938
0.12121
0.12121
0.122759
0.118532
0.115137
0.112389
0.110153
0.108321
0.10681
0.105556
0.104506
0.103621
0.102867
0.102218
0.101654
0.101159
0.10072
0.100328
0.0999746
0.0996545
0.0993633
0.0990978
0.0988556
0.0986351
0.0984301
)
;
    }
    procBoundary0to2
    {
        type            processor;
        value           nonuniform List<scalar> 
46
(
0.193341
0.215939
0.243334
0.276586
0.317289
0.347925
0.342817
0.316557
0.282832
0.248735
0.217875
0.191817
0.170837
0.154448
0.141837
0.132157
0.124678
0.118831
0.114198
0.110477
0.107449
0.104953
0.102868
0.101101
0.099576
0.0337634
0.0565065
0.0678278
0.0777388
0.0840797
0.0883131
0.0915697
0.0942943
0.096918
0.0998025
0.103153
0.107094
0.111748
0.117264
0.123808
0.13157
0.140788
0.151758
0.164844
0.193341
0.180489
)
;
    }
}


// ************************************************************************* //
