/*--------------------------------*- C++ -*----------------------------------*\
| =========                 |                                                 |
| \\      /  F ield         | OpenFOAM: The Open Source CFD Toolbox           |
|  \\    /   O peration     | Version:  5.0                                   |
|   \\  /    A nd           | Web:      www.OpenFOAM.org                      |
|    \\/     M anipulation  |                                                 |
\*---------------------------------------------------------------------------*/
FoamFile
{
    version     2.0;
    format      ascii;
    class       volScalarField;
    location    "0.15";
    object      nut;
}
// * * * * * * * * * * * * * * * * * * * * * * * * * * * * * * * * * * * * * //

dimensions      [0 2 -1 0 0 0 0];

internalField   nonuniform List<scalar> 
1935
(
4.79695e-05
5.62887e-05
6.66144e-05
7.32854e-05
7.80636e-05
8.17266e-05
8.46656e-05
8.71127e-05
8.92222e-05
9.11041e-05
9.28405e-05
9.44958e-05
9.61221e-05
9.77634e-05
9.9458e-05
0.000101239
0.000103137
0.000105173
0.000107365
0.000109715
0.000112212
0.000114823
0.000117492
0.000120138
0.000122655
0.000124919
0.000126798
0.00012817
0.000128934
0.000129027
0.000128432
0.00012712
0.000124996
0.000122393
0.000119482
0.000116343
0.000113211
0.000110415
0.000108286
0.000107033
0.000106661
0.000106963
0.00010761
0.000106113
7.13123e-05
0.00028156
0.000426697
0.000531038
0.000609087
0.000669344
0.000717163
0.000756137
0.000788804
0.000817028
0.000842228
0.000865517
0.000887789
0.000909773
0.000932054
0.000955078
0.000979127
0.00100428
0.00103038
0.00105695
0.0010832
0.001108
0.0011299
0.00114724
0.00115821
0.00116106
0.00115426
0.00113686
0.00110872
0.00107087
0.0010254
0.000974337
0.00091442
0.000834411
0.000759942
0.000703654
0.000670621
0.00066092
0.000670681
0.000692562
0.000718118
0.000735246
0.000713524
0.000608175
7.97878e-05
0.000382529
0.000644068
0.000861669
0.00104399
0.00119779
0.00132856
0.00144089
0.00153863
0.00162504
0.00170291
0.00177463
0.00184225
0.00190749
0.00197176
0.00203612
0.0021012
0.00216708
0.00223328
0.00229861
0.00236119
0.00241847
0.00246736
0.00250438
0.0025259
0.00252853
0.00250945
0.00246705
0.00240154
0.00231539
0.00221325
0.00210034
0.00197894
0.00184655
0.00171689
0.00160971
0.00153742
0.00150228
0.00149566
0.00149918
0.00149019
0.00145273
0.00137463
0.00112632
8.51919e-05
0.000439411
0.000776728
0.0010787
0.001348
0.00158731
0.00179963
0.00198822
0.00215648
0.00230776
0.00244523
0.00257191
0.0026905
0.00280344
0.00291272
0.00301986
0.00312574
0.0032305
0.00333342
0.0034329
0.00352642
0.00361062
0.00368149
0.00373456
0.00376521
0.00376909
0.00374271
0.00368408
0.00359354
0.00347434
0.00333251
0.00317536
0.00300896
0.0028367
0.00267117
0.00253084
0.00242587
0.0023529
0.00229525
0.00222832
0.00212822
0.00199124
0.00183951
0.00152711
8.90281e-05
0.000479451
0.000872168
0.00123807
0.00157668
0.00188789
0.00217215
0.00243081
0.00266596
0.00288018
0.00307633
0.00325739
0.00342629
0.00358576
0.00373812
0.00388518
0.00402802
0.00416686
0.00430097
0.0044286
0.00454701
0.00465257
0.00474092
0.0048072
0.00484643
0.00485389
0.00482579
0.00475997
0.00465673
0.00451941
0.00435432
0.00416955
0.00397302
0.00377083
0.00357625
0.00340256
0.00325242
0.00311628
0.00297706
0.00281687
0.00262516
0.00240081
0.00212191
0.00174242
9.19511e-05
0.000510634
0.000948102
0.00136513
0.00175979
0.00213069
0.00247658
0.0027971
0.00309282
0.0033652
0.00361632
0.00384872
0.00406516
0.00426835
0.00446075
0.00464431
0.00482027
0.00498898
0.00514982
0.00530113
0.00544021
0.00556348
0.0056666
0.00574472
0.00579283
0.00580623
0.00578109
0.00571512
0.00560831
0.00546341
0.00528593
0.00508321
0.00486311
0.00463219
0.00440323
0.00418402
0.00397128
0.00375538
0.00352833
0.00329219
0.00303589
0.00269473
0.00224813
0.00175532
9.42917e-05
0.000536112
0.00101166
0.00147128
0.00191223
0.00233286
0.00273105
0.00310519
0.00345451
0.00377923
0.00408049
0.00436014
0.00462049
0.00486406
0.00509324
0.00531003
0.0055158
0.00571106
0.00589537
0.00606726
0.00622427
0.006363
0.00647934
0.00656865
0.00662614
0.0066473
0.00662836
0.0065669
0.00646229
0.00631616
0.00613231
0.00591594
0.00567305
0.00540983
0.00513832
0.00486399
0.00458021
0.0042853
0.00398878
0.00368266
0.00330314
0.00279506
0.0022351
0.00166869
9.62376e-05
0.000557509
0.00106617
0.00156203
0.00204184
0.00250414
0.00294657
0.0033667
0.0037627
0.0041337
0.00447983
0.00480214
0.0051024
0.00538275
0.00564544
0.00589242
0.00612515
0.00634428
0.0065496
0.00673986
0.00691285
0.00706549
0.00719392
0.00729383
0.00736075
0.00739039
0.00737915
0.00732441
0.00722489
0.00708097
0.00689432
0.00666691
0.00640165
0.00610555
0.00579088
0.00545608
0.00510255
0.00473653
0.00434498
0.00389085
0.00334805
0.00275315
0.00216284
0.00157405
9.79042e-05
0.000575825
0.00111351
0.00164048
0.00215315
0.00265052
0.00313027
0.00358954
0.00402573
0.00443702
0.00482264
0.00518286
0.00551883
0.00583228
0.0061252
0.00639947
0.00665657
0.00689728
0.00712154
0.00732835
0.00751572
0.00768083
0.00782012
0.00792957
0.00800503
0.00804253
0.00803866
0.00799081
0.00789738
0.00775795
0.00757223
0.00733817
0.00705438
0.00673012
0.00637162
0.0059783
0.0055542
0.00508005
0.00453546
0.00393233
0.00330413
0.00269161
0.00211843
0.00154393
9.93661e-05
0.000591753
0.00115493
0.00170869
0.00224923
0.00277614
0.00328729
0.00377963
0.00425001
0.00469591
0.00511576
0.00550914
0.00587658
0.00621938
0.00653926
0.00683797
0.00711696
0.00737707
0.00761836
0.00783996
0.00804006
0.008216
0.00836445
0.00848163
0.00856372
0.00860714
0.00860895
0.008567
0.00848008
0.00834794
0.00816863
0.00793532
0.0076411
0.0072961
0.00690354
0.0064534
0.00592848
0.00532051
0.00464756
0.00395307
0.00328621
0.00268271
0.00214629
0.0016153
0.000100674
0.000605843
0.00119158
0.00176853
0.00233293
0.00288487
0.00342255
0.00394284
0.00444225
0.0049177
0.00536703
0.00578917
0.00618412
0.00655278
0.00689655
0.00721703
0.00751559
0.00779306
0.00804953
0.00828415
0.00849516
0.00867998
0.00883537
0.0089578
0.00904382
0.0090905
0.00909583
0.00905884
0.00897983
0.0088595
0.00869437
0.00847238
0.00818018
0.00783056
0.00740538
0.00688341
0.00625378
0.00553457
0.00476994
0.0040184
0.00333375
0.00274557
0.00224608
0.00177295
0.000101876
0.000618561
0.00122445
0.00182162
0.00240644
0.00297961
0.00353961
0.00408336
0.00460716
0.00510755
0.00558188
0.00602858
0.0064472
0.00683825
0.00720286
0.00754244
0.00785822
0.00815094
0.0084206
0.00866626
0.00888607
0.0090774
0.00923706
0.00936178
0.00944869
0.00949595
0.00950315
0.00947139
0.00940348
0.00930147
0.00916028
0.00896155
0.00868401
0.00833479
0.00787209
0.00727638
0.00655782
0.00575675
0.00493162
0.00414627
0.00345248
0.00287298
0.00239322
0.00196114
0.000102987
0.000630126
0.00125404
0.00186877
0.00247104
0.00306206
0.00364065
0.00420381
0.00474775
0.00526876
0.00576382
0.006231
0.00666947
0.00707944
0.00746179
0.00781769
0.00814821
0.00845391
0.00873457
0.00898905
0.00921528
0.00941048
0.00957151
0.00969552
0.00978061
0.00982659
0.00983541
0.00981103
0.00975923
0.00968327
0.00957749
0.00941039
0.00915531
0.00879994
0.00829518
0.00763567
0.00685228
0.00599932
0.0051409
0.00433891
0.00363826
0.0030544
0.0025698
0.00214155
0.000104024
0.000640769
0.0012809
0.00191098
0.00252816
0.00313418
0.00372816
0.00430722
0.00486756
0.00540531
0.00591725
0.00640115
0.00685593
0.00728153
0.00767862
0.00804814
0.00839094
0.00870732
0.00899675
0.00925775
0.00948795
0.0096844
0.00984413
0.00996497
0.0100465
0.0100908
0.0101029
0.0100899
0.0100604
0.0100177
0.00995496
0.00981734
0.00958955
0.00921716
0.00867057
0.0079642
0.00714286
0.0062666
0.00539856
0.00459378
0.0038874
0.00328809
0.00277946
0.00232713
0.000105
0.000650679
0.00130553
0.00194911
0.0025791
0.00319772
0.00380438
0.00439636
0.00496987
0.005521
0.00604639
0.00654364
0.00701151
0.00744973
0.00785877
0.00823938
0.00859212
0.00891697
0.009213
0.00947831
0.00971018
0.00990557
0.0100619
0.0101781
0.0102557
0.0102997
0.0103182
0.010322
0.0103211
0.0103183
0.0102997
0.010192
0.00997498
0.00957896
0.00899848
0.00826594
0.00743282
0.0065588
0.0057015
0.00490624
0.00419753
0.00357846
0.00303678
0.00254968
0.000105922
0.000660013
0.00132833
0.00198393
0.00262499
0.00325423
0.00387132
0.0044737
0.00505766
0.0056193
0.00615519
0.00666288
0.007141
0.00758916
0.00800768
0.00839707
0.00875762
0.0090889
0.00938954
0.00965717
0.00988876
0.0100813
0.0102329
0.010344
0.0104188
0.0104652
0.0104947
0.0105206
0.0105541
0.0105984
0.0106263
0.0105468
0.0103164
0.00988908
0.00928422
0.00854497
0.00772284
0.00687242
0.00604284
0.00526852
0.004564
0.0039283
0.00335441
0.0028335
0.000106799
0.0006689
0.00134968
0.00201606
0.00266681
0.00330505
0.00393072
0.00454145
0.00513361
0.00570335
0.00624729
0.00676293
0.00724889
0.0077047
0.00813055
0.00852674
0.00889323
0.00922917
0.00953269
0.00980096
0.0100307
0.0102193
0.0103657
0.0104726
0.0105467
0.0105993
0.0106446
0.0106977
0.0107696
0.0108632
0.0109251
0.0108679
0.0106115
0.0101514
0.00953281
0.00880353
0.00801067
0.00720053
0.00641204
0.0056689
0.0049774
0.00433397
0.0037366
0.00318938
0.000107635
0.000677441
0.00136986
0.00204606
0.00270537
0.00335132
0.0039841
0.00460151
0.00520004
0.00577594
0.00632589
0.00684747
0.00733928
0.00780085
0.00823225
0.00863357
0.00900443
0.00934354
0.0096485
0.0099161
0.010143
0.010327
0.0104687
0.0105728
0.0106492
0.0107122
0.0107782
0.0108631
0.0109763
0.0111156
0.0112037
0.0111475
0.0108577
0.0103702
0.00974874
0.00904257
0.00829224
0.00753407
0.00679621
0.00609276
0.00542388
0.00478488
0.00417779
0.00361619
0.000108434
0.000685721
0.0013891
0.00207435
0.00274135
0.00339399
0.00403272
0.00465549
0.00525895
0.00583947
0.00639384
0.00691972
0.00741581
0.00788163
0.00831715
0.00872226
0.00909622
0.00943727
0.00974254
0.0100085
0.0102319
0.0104114
0.0105492
0.0106528
0.0107349
0.0108124
0.0109034
0.0110243
0.0111829
0.0113725
0.0114807
0.0113938
0.0110635
0.0105535
0.00993724
0.00926283
0.0085631
0.00786377
0.00718238
0.00652495
0.0058877
0.00526597
0.0046648
0.00410352
0.000109199
0.000693805
0.00140761
0.00210131
0.00277531
0.00343387
0.00407764
0.00470476
0.00531204
0.00589598
0.00645353
0.00698248
0.00748163
0.00795053
0.00838907
0.00879692
0.00917297
0.00951499
0.00981966
0.0100832
0.0103028
0.0104782
0.0106136
0.0107191
0.0108103
0.0109061
0.011026
0.0111858
0.0113938
0.0116334
0.011748
0.0116135
0.0112382
0.0107089
0.0101029
0.00946493
0.00881948
0.00818171
0.00755938
0.00695208
0.00635384
0.00576096
0.00518058
0.00463459
0.000109932
0.000701748
0.00142554
0.00212723
0.00280771
0.00347158
0.00411972
0.00475043
0.00536069
0.00594716
0.00650698
0.0070381
0.00753941
0.00801053
0.00845126
0.00886104
0.00923838
0.00958059
0.00988396
0.0101447
0.0103604
0.0105323
0.0106669
0.0107769
0.0108803
0.0109977
0.0111493
0.0113496
0.0116063
0.0118767
0.0119833
0.0118007
0.0113839
0.0108405
0.010249
0.00964943
0.00905867
0.00848208
0.00791885
0.00736368
0.00680979
0.00625488
0.00570752
0.00518977
0.00473545
0.000110635
0.000709595
0.00144302
0.00215235
0.00283892
0.00350767
0.00415968
0.00479342
0.00540606
0.00599444
0.00655587
0.0070885
0.00759136
0.00806408
0.0085064
0.0089175
0.00929549
0.00963724
0.00993873
0.0101963
0.0104082
0.0105775
0.0107128
0.0108297
0.0109483
0.0110903
0.0112755
0.0115165
0.0118168
0.0121017
0.0121818
0.0119509
0.0115013
0.010951
0.0103775
0.00981695
0.00927919
0.00876124
0.00825525
0.0077524
0.00724593
0.00673519
0.00622954
0.00574991
0.00532643
0.000111309
0.000717385
0.00146017
0.00217686
0.00286926
0.00354256
0.00419809
0.00483449
0.0054491
0.00603896
0.00660158
0.0071353
0.00763928
0.0081132
0.00855668
0.00896862
0.00934673
0.00968745
0.00998655
0.0102406
0.010449
0.0106165
0.0107543
0.0108802
0.0110164
0.0111853
0.0114059
0.0116886
0.0120323
0.0123198
0.0123479
0.0120693
0.0115949
0.0110437
0.0104907
0.00996832
0.0094805
0.00901732
0.0085654
0.00811351
0.00765542
0.00719205
0.00673318
0.00629778
0.00591177
0.000111956
0.000725154
0.00147707
0.00220094
0.00289897
0.00357663
0.00423545
0.00487427
0.00549059
0.00608168
0.00664523
0.00717979
0.00768465
0.0081595
0.00860382
0.00901621
0.00939397
0.00973314
0.0100294
0.0102797
0.0104849
0.0106514
0.0107931
0.0109302
0.011086
0.0112834
0.0115406
0.0118665
0.012255
0.0125309
0.0124933
0.0121666
0.0116711
0.011122
0.0105904
0.0101044
0.00966273
0.00924972
0.00884783
0.0084443
0.00803365
0.00761816
0.00720775
0.00681922
0.00647416
0.000112576
0.000732934
0.00149382
0.00222475
0.00292828
0.00361018
0.00427217
0.00491328
0.00553119
0.00612337
0.00668775
0.00722305
0.00772866
0.00820428
0.00864921
0.00906172
0.00943866
0.00977575
0.0100687
0.0103151
0.0105172
0.0106838
0.0108309
0.0109807
0.0111577
0.0113846
0.0116786
0.0120482
0.012474
0.0127224
0.0126203
0.0122472
0.0117329
0.0111878
0.0106777
0.010226
0.00982639
0.00945869
0.00910227
0.00874352
0.00837781
0.00800851
0.00764546
0.00730332
0.00699974
0.000113171
0.000740757
0.0015105
0.00224842
0.0029574
0.0036435
0.00430862
0.00495198
0.00557145
0.00616472
0.00672992
0.00726594
0.00777229
0.00824859
0.00869393
0.00910622
0.00948188
0.00981636
0.0101055
0.0103479
0.0105472
0.0107146
0.0108685
0.0110325
0.0112317
0.0114884
0.0118177
0.0122276
0.0126666
0.0128756
0.0127195
0.0123075
0.0117796
0.0112415
0.0107533
0.0103338
0.00997225
0.00964497
0.00932921
0.00901102
0.00868658
0.00836011
0.0080412
0.0077426
0.00747847
0.000113742
0.000748661
0.0015272
0.0022721
0.00298655
0.00367685
0.00434513
0.00499078
0.00561189
0.00620632
0.00677242
0.00730923
0.00781633
0.00829326
0.00873883
0.00915055
0.00952443
0.00985575
0.0101407
0.0103788
0.0105757
0.0107447
0.0109065
0.011086
0.0113083
0.0115944
0.0119569
0.0123997
0.0128334
0.0129917
0.0127852
0.0123444
0.0118103
0.011283
0.0108175
0.0104283
0.0101012
0.00980967
0.00952971
0.00924742
0.0089598
0.00867169
0.00839232
0.00813275
0.00790426
0.00011429
0.00075669
0.00154403
0.00229595
0.00301592
0.0037105
0.00438204
0.00503009
0.00565295
0.00624869
0.00681583
0.00735357
0.00786149
0.008339
0.00878459
0.00919535
0.00956692
0.00989446
0.0101746
0.0104083
0.0106031
0.0107746
0.0109453
0.0111413
0.0113874
0.0117028
0.0120972
0.0125696
0.0129836
0.0130746
0.0128215
0.0123608
0.0118268
0.0113134
0.010871
0.0105104
0.0102143
0.00995407
0.00970513
0.00945394
0.00919828
0.00894344
0.00869825
0.00847232
0.00827457
0.000114818
0.0007649
0.00156111
0.00232016
0.00304575
0.00374474
0.00441968
0.00507032
0.00569511
0.00629235
0.00686074
0.00739955
0.00790836
0.00838638
0.00883175
0.00924111
0.00960977
0.00993292
0.0102079
0.010437
0.01063
0.0108046
0.0109852
0.0111985
0.0114687
0.0118136
0.0122403
0.0127421
0.0131239
0.0131393
0.0128413
0.0123639
0.0118324
0.0113341
0.0109147
0.010581
0.0103126
0.0100796
0.00985711
0.00963225
0.00940357
0.00917673
0.00896014
0.00876217
0.00858986
0.000115329
0.000773365
0.00157858
0.00234492
0.00307632
0.0037799
0.00445844
0.00511187
0.00573885
0.00633783
0.00690767
0.00744772
0.00795748
0.00843591
0.00888075
0.0092882
0.0096533
0.00997143
0.0102408
0.0104653
0.0106568
0.0108352
0.0110263
0.0112573
0.0115517
0.0119259
0.0123862
0.0129167
0.0132548
0.0131965
0.0128533
0.0123587
0.0118296
0.0113467
0.0109497
0.0106411
0.0103975
0.0101878
0.00998743
0.00978432
0.0095778
0.00937383
0.00918041
0.00900492
0.00885288
0.000115826
0.000782181
0.00159665
0.0023705
0.00310792
0.00381633
0.00449873
0.00515522
0.00578465
0.00638564
0.00695718
0.00749863
0.00800936
0.00848803
0.00893196
0.00933693
0.00969778
0.0100102
0.0102735
0.0104934
0.0106838
0.0108666
0.0110687
0.0113174
0.0116354
0.0120375
0.0125306
0.0130692
0.0133526
0.0132374
0.0128544
0.0123444
0.0118188
0.0113517
0.0109768
0.0106916
0.0104701
0.0102802
0.010098
0.00991234
0.0097235
0.00953763
0.00936243
0.00920441
0.00906796
0.00011632
0.000791485
0.00161553
0.00239719
0.00314091
0.00385444
0.004541
0.00520087
0.00583307
0.00643636
0.00700983
0.0075528
0.00806447
0.00854314
0.0089857
0.00938752
0.0097434
0.0100495
0.0103065
0.0105217
0.0107114
0.0108991
0.0111125
0.0113785
0.0117185
0.0121453
0.0126631
0.0131876
0.013414
0.0132496
0.0128361
0.0123169
0.0117987
0.0113493
0.0109965
0.0107335
0.0105316
0.0103584
0.0101907
0.0100187
0.00984343
0.00967145
0.0095101
0.00936522
0.00924031
0.000116822
0.000801488
0.00163552
0.00242533
0.00317569
0.0038947
0.00458578
0.00524939
0.0058847
0.00649059
0.00706619
0.00761077
0.00812325
0.00860159
0.00904222
0.00944019
0.00979037
0.0100896
0.0103399
0.0105506
0.01074
0.010933
0.0111579
0.0114408
0.0118013
0.0122493
0.0127849
0.0132818
0.0134394
0.0132291
0.0127951
0.0122748
0.0117689
0.0113395
0.0110095
0.0107676
0.0105833
0.0104239
0.0102674
0.0101057
0.0099405
0.00977877
0.00962759
0.00949226
0.00937558
0.000117354
0.000812523
0.00165695
0.00245529
0.00321269
0.00393761
0.00463365
0.00530141
0.00594018
0.00654897
0.00712688
0.00767306
0.00818616
0.00866373
0.00910178
0.00949516
0.00983893
0.0101308
0.0103743
0.0105807
0.01077
0.0109687
0.0112051
0.0115044
0.0118845
0.012352
0.0129018
0.0133575
0.0134387
0.0131849
0.0127365
0.0122203
0.0117303
0.011323
0.0110162
0.0107948
0.0106262
0.0104782
0.0103302
0.0101757
0.0100176
0.00986312
0.00971911
0.00959044
0.00947937
0.00011795
0.000825057
0.00168013
0.00248734
0.00325231
0.00398368
0.00468519
0.00535757
0.00600021
0.00661216
0.0071925
0.00774019
0.00825359
0.00872984
0.00916461
0.00955265
0.00988939
0.0101736
0.0104102
0.0106125
0.0108022
0.0110066
0.0112543
0.0115697
0.011969
0.0124569
0.0130217
0.0134268
0.013428
0.0131306
0.012668
0.012157
0.0116844
0.0113006
0.0110177
0.0108162
0.0106618
0.0105229
0.010381
0.0102312
0.0100777
0.00992793
0.00978871
0.00966445
0.00955702
0.000118667
0.00083949
0.00170501
0.00252155
0.0032948
0.00403336
0.004741
0.00541854
0.00606547
0.00668084
0.00726366
0.00781268
0.00832594
0.00880022
0.00923096
0.00961296
0.0099422
0.0102185
0.0104484
0.0106469
0.0108371
0.0110471
0.0113055
0.0116361
0.0120544
0.0125652
0.0131444
0.0134881
0.0134145
0.0130724
0.0125932
0.0120867
0.0116325
0.0112736
0.0110152
0.0108331
0.0106914
0.0105596
0.0104216
0.0102744
0.0101234
0.00997644
0.00984016
0.00971865
0.00961338
0.0001196
0.000855274
0.00173056
0.00255736
0.00334008
0.0040869
0.00480155
0.00548494
0.00613663
0.00675567
0.00734096
0.00789101
0.00840356
0.00887514
0.00930109
0.00967646
0.00999793
0.0102665
0.0104901
0.0106852
0.0108759
0.0110908
0.0113583
0.011702
0.012137
0.0126705
0.0132396
0.0135129
0.013383
0.0130018
0.0125082
0.0120084
0.0115752
0.0112434
0.0110103
0.0108469
0.0107164
0.0105898
0.0104537
0.0103074
0.0101573
0.0100116
0.00987692
0.0097569
0.00965277
0.000120908
0.000868511
0.00175367
0.00259312
0.00338745
0.0041442
0.00486709
0.00555722
0.00621425
0.00683724
0.00742492
0.00797561
0.00848681
0.0089549
0.00937534
0.00974365
0.0100574
0.0103187
0.0105367
0.010729
0.01092
0.0111386
0.0114129
0.0117657
0.0122117
0.0127562
0.0132931
0.0134965
0.0133156
0.0129053
0.012406
0.0119202
0.0115133
0.0112114
0.0110043
0.0108588
0.0107378
0.0106147
0.0104789
0.010332
0.0101816
0.0100362
0.00990202
0.00978263
0.0096789
0.000122374
0.00087999
0.00177486
0.00262658
0.00343522
0.0042045
0.00493744
0.00563555
0.00629871
0.00692598
0.007516
0.00806689
0.00857602
0.00903983
0.00945413
0.00981515
0.0101215
0.0103763
0.0105899
0.0107802
0.0109716
0.0111925
0.0114705
0.0118278
0.0122778
0.0128234
0.0133116
0.0134324
0.0132032
0.012776
0.0122837
0.0118216
0.0114471
0.0111778
0.010997
0.0108683
0.0107553
0.0106345
0.0104981
0.0103498
0.0101983
0.0100524
0.0099181
0.00979873
0.00969492
0.000123914
0.00088961
0.00179283
0.00265941
0.00348231
0.00426611
0.00501178
0.00571967
0.00639007
0.00702219
0.00761456
0.00816522
0.00867157
0.00913035
0.00953802
0.0098918
0.0101914
0.0104412
0.0106519
0.0108413
0.0110334
0.0112554
0.011534
0.011891
0.0123393
0.0128782
0.0132991
0.0133285
0.0130533
0.0126188
0.0121437
0.0117142
0.0113782
0.0111444
0.0109899
0.0108766
0.0107699
0.0106499
0.010512
0.0103619
0.010209
0.0100622
0.00992739
0.00980765
0.00970343
0.000125482
0.000895683
0.0018044
0.00268892
0.00352953
0.00432844
0.00508846
0.00580869
0.00648802
0.00712586
0.00772081
0.00827093
0.0087739
0.00922705
0.0096278
0.00997465
0.0102686
0.010515
0.0107247
0.0109151
0.0111086
0.0113309
0.0116076
0.0119604
0.0124034
0.0129316
0.0132657
0.0131967
0.0128768
0.0124399
0.0119906
0.0116017
0.0113094
0.011113
0.0109842
0.0108844
0.0107823
0.0106619
0.0105218
0.0103694
0.010215
0.0100671
0.0099317
0.0098114
0.00970654
0.000127326
0.000894213
0.00180605
0.00271243
0.00357445
0.00439192
0.00516727
0.00590122
0.00659174
0.00723667
0.00783474
0.00838429
0.00888351
0.00933066
0.00972449
0.010065
0.0103547
0.0105996
0.0108107
0.0110042
0.0112005
0.011423
0.0116957
0.0120409
0.0124772
0.0129752
0.0131942
0.0130338
0.0126759
0.012245
0.0118301
0.0114888
0.0112441
0.0110858
0.010981
0.0108926
0.0107932
0.0106711
0.0105282
0.0103734
0.0102172
0.0100683
0.00993221
0.0098113
0.00970585
0.00013031
0.000877238
0.00179287
0.00272669
0.00361508
0.00445521
0.0052494
0.00599815
0.0067007
0.00735442
0.00795653
0.00850578
0.0090012
0.00944236
0.00982965
0.0101648
0.0104518
0.0106974
0.0109123
0.0111111
0.011312
0.0115348
0.0118017
0.0121342
0.0125567
0.0129685
0.0130569
0.0128268
0.0124502
0.0120401
0.0116704
0.0113831
0.0111881
0.0110662
0.0109824
0.0109022
0.0108032
0.0106783
0.0105321
0.0103747
0.0102168
0.0100668
0.00992998
0.00980846
0.00970238
0.000130873
0.000844494
0.00175648
0.00272284
0.00364618
0.00451563
0.00533412
0.00610124
0.00681674
0.00747953
0.0080869
0.00863651
0.00912849
0.00956409
0.00994562
0.0102767
0.0105626
0.0108109
0.0110316
0.0112377
)
;

boundaryField
{
    leftWall
    {
        type            nutkWallFunction;
        Cmu             0.09;
        kappa           0.41;
        E               9.8;
        value           nonuniform List<scalar> 
44
(
6.83368e-06
8.66711e-06
9.64275e-06
1.02585e-05
1.06922e-05
1.10206e-05
1.12822e-05
1.14987e-05
1.16834e-05
1.18449e-05
1.19889e-05
1.2121e-05
1.22427e-05
1.23561e-05
1.24625e-05
1.2563e-05
1.26584e-05
1.27492e-05
1.2836e-05
1.2919e-05
1.29984e-05
1.30746e-05
1.31476e-05
1.32175e-05
1.32846e-05
1.33488e-05
1.34104e-05
1.34695e-05
1.35262e-05
1.35808e-05
1.36339e-05
1.3686e-05
1.37384e-05
1.37929e-05
1.38527e-05
1.39228e-05
1.40119e-05
1.41353e-05
1.42831e-05
1.44432e-05
1.46249e-05
1.53376e-05
9.45839e-06
9.63156e-06
)
;
    }
    rightWall
    {
        type            nutkWallFunction;
        Cmu             0.09;
        kappa           0.41;
        E               9.8;
        value           nonuniform 0();
    }
    lowerWall
    {
        type            nutkWallFunction;
        Cmu             0.09;
        kappa           0.41;
        E               9.8;
        value           nonuniform List<scalar> 
44
(
5.16241e-06
6.86217e-06
8.07675e-06
8.85079e-06
9.39942e-06
9.81626e-06
1.01481e-05
1.04224e-05
1.06575e-05
1.08663e-05
1.10582e-05
1.12408e-05
1.142e-05
1.16007e-05
1.17874e-05
1.19837e-05
1.21931e-05
1.2418e-05
1.26603e-05
1.29202e-05
1.31962e-05
1.34845e-05
1.37784e-05
1.40682e-05
1.43415e-05
1.45841e-05
1.47811e-05
1.49189e-05
1.49869e-05
1.4979e-05
1.48928e-05
1.47234e-05
1.44691e-05
1.41742e-05
1.38472e-05
1.35044e-05
1.3176e-05
1.2899e-05
1.27055e-05
1.26111e-05
1.26092e-05
1.26724e-05
1.26866e-05
1.24372e-05
)
;
    }
    atmosphere
    {
        type            calculated;
        value           nonuniform 0();
    }
    defaultFaces
    {
        type            empty;
    }
    procBoundary0to1
    {
        type            processor;
        value           nonuniform List<scalar> 
44
(
0.00010287
0.000418694
0.000708502
0.00094176
0.00108308
0.00109288
0.00098129
0.000873088
0.000866636
0.000995362
0.00122476
0.00145957
0.0016747
0.0018777
0.00209664
0.00236684
0.00270904
0.00312768
0.00361574
0.00415823
0.00415823
0.00438366
0.00499242
0.00560257
0.00619459
0.00675194
0.00726201
0.00771667
0.00811211
0.00844821
0.00872769
0.00895524
0.00913664
0.00927817
0.00938607
0.0094662
0.0095239
0.00956383
0.00958998
0.00960568
0.00961366
0.0096161
0.0096147
0.00961056
)
;
    }
    procBoundary0to2
    {
        type            processor;
        value           nonuniform List<scalar> 
46
(
0.0114439
0.0116676
0.0119266
0.0122384
0.0126254
0.0129056
0.0128558
0.0125794
0.0122101
0.0118396
0.0115256
0.0112958
0.0111485
0.0110583
0.0109903
0.0109142
0.010813
0.010684
0.0105339
0.0103738
0.0102142
0.0100633
0.00992572
0.00980359
0.00969692
0.0001309
0.000792762
0.00165772
0.00267034
0.00365175
0.00456427
0.00541676
0.00620855
0.00693972
0.00761195
0.00822488
0.00877621
0.00926571
0.00969681
0.0100739
0.0104025
0.0106892
0.0109418
0.0111698
0.0114439
0.011384
)
;
    }
}


// ************************************************************************* //
