/*--------------------------------*- C++ -*----------------------------------*\
| =========                 |                                                 |
| \\      /  F ield         | OpenFOAM: The Open Source CFD Toolbox           |
|  \\    /   O peration     | Version:  5.0                                   |
|   \\  /    A nd           | Web:      www.OpenFOAM.org                      |
|    \\/     M anipulation  |                                                 |
\*---------------------------------------------------------------------------*/
FoamFile
{
    version     2.0;
    format      ascii;
    class       volScalarField;
    location    "0.15";
    object      p;
}
// * * * * * * * * * * * * * * * * * * * * * * * * * * * * * * * * * * * * * //

dimensions      [1 -1 -2 0 0 0 0];

internalField   nonuniform List<scalar> 
1935
(
1871.98
1876.34
1878.66
1878.64
1875.09
1867.88
1857.31
1843.7
1827.27
1808.13
1786.37
1762.02
1735.03
1705.34
1672.84
1637.34
1598.63
1556.43
1510.42
1460.19
1405.31
1345.29
1279.67
1208.03
1130.13
1046
956.131
861.652
764.48
667.414
573.92
488.092
415.972
353.409
299.606
252.266
209.874
172.064
139.054
110.566
85.9589
65.9968
48.5645
40.2213
1822.79
1826.45
1826.77
1824.65
1819.71
1811.68
1800.63
1786.73
1770.11
1750.83
1728.94
1704.42
1677.22
1647.27
1614.41
1578.48
1539.23
1496.38
1449.58
1398.45
1342.53
1281.38
1214.57
1141.75
1062.77
977.796
887.476
793.096
696.711
601.097
509.412
424.65
347.949
286.948
239.156
200.115
165.835
133.197
101.041
69.7587
38.821
14.3915
6.86992
9.92393
1774.14
1778.05
1776.96
1772.88
1766.29
1757.01
1745.01
1730.38
1713.17
1693.39
1671.03
1646.04
1618.34
1587.82
1554.32
1517.65
1477.54
1433.71
1385.8
1333.43
1276.18
1213.63
1145.44
1071.35
991.358
905.774
815.415
721.722
626.85
533.585
445.041
364.291
293.896
236.069
189.033
150.217
115.807
83.0185
52.0588
26.0057
10.3595
4.22288
3.96962
5.26352
1724.89
1729.39
1727.8
1722.56
1714.75
1704.36
1691.4
1675.96
1658.05
1637.64
1614.69
1589.11
1560.82
1529.66
1495.47
1458.02
1417.06
1372.28
1323.34
1269.87
1211.46
1147.77
1078.49
1003.46
922.758
836.812
746.536
653.455
559.768
468.259
381.99
303.771
235.582
178.403
131.287
91.8093
57.7676
29.9325
12.7409
5.23393
2.71407
2.66704
3.05903
3.38687
1675.12
1679.99
1678.25
1672.47
1663.95
1652.81
1639.15
1623.06
1604.55
1583.59
1560.1
1534
1505.16
1473.44
1438.63
1400.53
1358.86
1313.33
1263.59
1209.28
1150.05
1085.56
1015.55
939.922
858.801
772.664
682.463
589.735
496.655
405.936
320.462
242.701
174.277
116.058
68.1889
32.1703
10.9955
3.28696
1.75505
2.0427
2.13419
2.22465
2.54444
2.70362
1624.91
1629.86
1628.1
1622.12
1613.24
1601.68
1587.58
1571.05
1552.1
1530.72
1506.81
1480.28
1451
1418.81
1383.51
1344.89
1302.67
1256.55
1206.21
1151.31
1091.51
1026.49
956.035
880.072
798.755
712.572
622.461
529.906
436.985
346.193
259.948
180.171
109.041
50.8851
14.125
1.15242
0.00742547
0.866611
1.45889
1.67177
1.79877
1.96425
2.18617
2.2879
1574.35
1579.2
1577.48
1571.52
1562.52
1550.76
1536.44
1519.65
1500.44
1478.77
1454.56
1427.72
1398.11
1365.57
1329.91
1290.89
1248.26
1201.72
1150.97
1095.67
1035.5
970.186
899.524
823.462
742.165
656.11
566.183
473.768
380.758
289.164
200.355
116.309
45.7462
5.0723
-1.81013
0.0942943
0.910823
1.23466
1.37355
1.51191
1.63033
1.76815
1.92606
2.01236
1523.59
1528.23
1526.59
1520.78
1511.84
1500.06
1485.68
1468.81
1449.47
1427.65
1403.28
1376.24
1346.42
1313.65
1277.73
1238.45
1195.55
1148.75
1097.75
1042.23
981.903
916.502
845.857
769.93
688.892
603.193
513.648
421.525
328.442
235.432
142.439
57.2292
7.08926
-1.33397
0.498231
0.990624
1.15843
1.23985
1.31391
1.39843
1.50646
1.62616
1.73718
1.80875
1472.78
1477.16
1475.64
1470.06
1461.28
1449.63
1435.33
1418.5
1399.17
1377.33
1352.9
1325.79
1295.87
1262.99
1226.95
1187.53
1144.5
1097.58
1046.49
990.93
930.629
865.352
794.95
719.406
638.893
553.835
464.984
373.523
280.65
185.635
89.1945
18.3897
-0.0310423
0.818353
1.10036
1.11886
1.13642
1.17785
1.24429
1.32716
1.41716
1.50462
1.57755
1.61685
1422.06
1426.18
1424.79
1419.49
1410.96
1399.53
1385.42
1368.74
1349.53
1327.78
1303.41
1276.34
1246.44
1213.55
1177.5
1138.08
1095.05
1048.16
997.13
941.7
881.615
816.667
746.736
671.828
592.125
508.032
420.284
330.051
237.714
139.903
47.0715
4.86185
1.07442
1.09988
1.07539
1.06485
1.08554
1.13006
1.19039
1.25766
1.32385
1.38335
1.42572
1.42517
1371.15
1374.99
1373.76
1368.77
1360.54
1349.4
1335.56
1319.12
1300.13
1278.56
1254.35
1227.42
1197.64
1164.87
1128.93
1089.62
1046.73
999.999
949.195
894.064
834.379
769.966
700.734
626.719
548.114
465.327
379.155
290.775
198.803
98.3059
21.0445
2.33727
1.18419
1.04248
1.01497
1.01404
1.03904
1.07881
1.12585
1.17489
1.22091
1.25795
1.27315
1.22711
1319.93
1323.51
1322.45
1317.78
1309.89
1299.09
1285.59
1269.47
1250.78
1229.48
1205.53
1178.84
1149.28
1116.73
1081.02
1041.95
999.313
952.897
902.47
847.806
788.707
725.032
656.724
583.847
506.611
425.456
341.335
255.214
162.21
61.9685
8.72731
1.62346
1.04518
0.985967
0.966878
0.965797
0.984513
1.01375
1.04756
1.0817
1.11173
1.13083
1.12516
1.05073
1268.74
1272.08
1271.2
1266.85
1259.32
1248.91
1235.79
1220.05
1201.72
1180.78
1157.16
1130.8
1101.57
1069.34
1033.96
995.247
953.009
907.043
857.143
803.108
744.77
682.02
614.836
543.309
467.663
388.413
306.713
222.495
126.255
33.4786
3.69237
1.16551
0.938794
0.926782
0.909447
0.905427
0.917149
0.936953
0.959921
0.982357
1.00009
1.00671
0.99106
0.922175
1217.7
1220.83
1220.11
1216.07
1208.92
1198.91
1186.22
1170.91
1153
1132.47
1109.27
1083.32
1054.51
1022.7
987.765
949.524
907.804
862.423
813.191
759.936
702.518
640.861
574.972
504.96
431.076
353.96
274.89
191.195
91.2194
16.4874
2.15449
0.940367
0.869932
0.860035
0.838403
0.8322
0.838865
0.851392
0.865875
0.879241
0.887951
0.886846
0.868198
0.815016
1166.9
1169.83
1169.27
1165.54
1158.76
1149.18
1136.93
1122.09
1104.65
1084.6
1061.88
1036.42
1008.1
976.821
942.426
904.768
863.687
819.014
770.584
718.245
661.889
601.465
537.006
468.63
396.621
321.793
245.259
160.242
59.3955
7.76615
1.34879
0.786442
0.786071
0.774606
0.754635
0.748802
0.752178
0.759356
0.767456
0.774055
0.776322
0.770251
0.750176
0.706399
1116.42
1119.17
1118.77
1115.33
1108.91
1099.76
1087.99
1073.64
1056.72
1037.19
1015.02
990.113
962.379
931.7
897.945
860.974
820.641
776.792
729.281
677.981
622.806
563.731
500.802
434.145
364.086
291.598
216.938
128.688
34.1748
3.34201
0.805415
0.658815
0.691601
0.678341
0.662569
0.657938
0.65923
0.662685
0.666254
0.668055
0.66585
0.656556
0.635874
0.597707
1066.33
1068.91
1068.65
1065.49
1059.45
1050.73
1039.44
1025.61
1009.23
990.285
968.707
944.423
917.34
887.346
854.319
818.131
778.646
735.726
689.241
639.084
585.193
527.558
466.236
401.356
333.318
263.16
189.222
97.1779
18.3167
1.82556
0.605827
0.58101
0.597913
0.578682
0.565455
0.561654
0.561655
0.562733
0.563338
0.561999
0.556969
0.545943
0.525851
0.492828
1016.7
1019.11
1019
1016.09
1010.41
1002.12
991.326
978.036
962.241
943.904
922.971
899.367
873
843.764
811.546
776.227
737.681
695.782
650.417
601.496
548.974
492.855
433.2
370.153
304.223
236.393
162.08
68.3499
9.81563
1.28401
0.503533
0.491689
0.493361
0.474021
0.463894
0.461032
0.46054
0.46037
0.459303
0.45619
0.449701
0.438135
0.419371
0.391001
967.575
969.834
969.837
967.184
961.845
953.996
943.7
930.964
915.772
898.082
877.837
854.962
829.369
800.957
769.62
735.246
697.72
656.926
612.764
565.161
514.085
459.547
401.612
340.449
276.69
211.029
135.521
44.4171
4.81482
0.677238
0.351394
0.379443
0.378471
0.36453
0.358381
0.356935
0.356675
0.356163
0.354446
0.350634
0.343737
0.332471
0.315339
0.290918
918.997
921.106
921.222
918.802
913.805
906.387
896.596
884.428
869.859
852.845
833.326
811.226
786.459
758.929
728.537
695.177
658.742
619.127
576.244
530.035
480.475
427.581
371.416
312.185
250.614
186.679
109.313
26.3344
1.98903
0.232732
0.210983
0.263794
0.261684
0.25284
0.250212
0.250276
0.250711
0.25051
0.248904
0.245196
0.238656
0.228301
0.213019
0.191937
871.004
872.968
873.184
870.986
866.322
859.332
850.049
838.46
824.534
808.222
789.461
768.175
744.28
717.685
688.296
656.013
620.734
582.366
540.833
496.086
448.11
396.922
342.587
285.354
225.956
163.064
83.975
14.8595
0.998969
0.0872497
0.121431
0.155716
0.147431
0.140879
0.140393
0.141752
0.14314
0.143693
0.142735
0.139703
0.134054
0.125073
0.111759
0.0935863
0.0704353
823.626
825.445
825.753
823.764
819.426
812.862
804.09
793.09
779.824
764.237
746.265
725.83
702.849
677.236
648.902
617.752
583.691
546.633
506.513
463.294
416.967
367.552
315.119
259.989
202.827
140.409
61.232
8.50469
0.715308
0.0389017
0.0348154
0.0443384
0.032646
0.0279169
0.0290199
0.0316883
0.0342584
0.0358955
0.0359714
0.034009
0.0295922
0.0222286
0.0111428
-0.00433185
-0.0239682
776.885
778.562
778.951
777.161
773.143
767.004
758.748
748.347
735.755
720.916
703.759
684.208
662.181
637.594
610.364
580.4
547.613
511.924
473.278
431.647
387.028
339.447
288.994
236.074
181.199
119.069
42.2648
4.5923
0.366468
-0.0753846
-0.0785004
-0.0769288
-0.0857347
-0.0872154
-0.0840443
-0.0797646
-0.0757506
-0.0727632
-0.071371
-0.0719876
-0.0749473
-0.0805935
-0.0894591
-0.10215
-0.11865
730.798
732.334
732.796
731.197
727.495
721.78
714.044
704.252
692.351
678.278
661.962
643.325
622.287
598.768
572.687
543.959
512.498
478.235
441.121
401.132
358.275
312.582
264.173
213.544
160.916
98.9484
27.3247
1.98936
-0.141975
-0.243521
-0.208907
-0.204911
-0.207359
-0.204325
-0.198571
-0.192388
-0.186711
-0.182172
-0.179263
-0.17834
-0.179681
-0.183545
-0.190283
-0.200339
-0.213794
685.377
686.771
687.298
685.883
682.495
677.206
669.996
660.822
649.625
636.338
620.886
603.192
583.176
560.762
535.872
508.425
478.342
445.557
410.027
371.734
330.689
286.93
240.615
192.296
141.653
79.7347
16.4998
0.539708
-0.487893
-0.399674
-0.339266
-0.332043
-0.329102
-0.322205
-0.313999
-0.305854
-0.298408
-0.292193
-0.287639
-0.285051
-0.284662
-0.286685
-0.291365
-0.298996
-0.309678
640.626
641.877
642.463
641.228
638.153
633.292
626.615
618.069
607.59
595.106
580.54
563.815
544.853
523.58
499.92
473.796
445.135
413.877
379.983
343.438
304.257
262.485
218.317
172.288
123.189
61.4555
9.49549
0.0499797
-0.577627
-0.501676
-0.457803
-0.453964
-0.449098
-0.440024
-0.429873
-0.41987
-0.410633
-0.402676
-0.396398
-0.39207
-0.389889
-0.390034
-0.392684
-0.398037
-0.406162
596.544
597.65
598.289
597.23
594.47
590.043
583.906
575.999
566.253
554.59
540.932
525.202
507.325
487.225
464.831
440.068
412.87
383.184
350.974
316.231
278.971
239.25
197.316
153.632
105.765
45.2983
5.46387
-0.100011
-0.598511
-0.588792
-0.573393
-0.574102
-0.568521
-0.558001
-0.546119
-0.534289
-0.523232
-0.513483
-0.505427
-0.499311
-0.495305
-0.493556
-0.4942
-0.497368
-0.5031
553.122
554.08
554.767
553.884
551.443
547.457
541.871
534.618
525.62
514.797
502.069
487.36
470.595
451.701
430.605
407.239
381.541
353.466
322.985
290.094
254.815
217.217
177.61
136.346
89.7406
31.9464
2.8766
-0.310033
-0.691054
-0.702713
-0.69794
-0.697308
-0.68929
-0.676712
-0.662842
-0.649055
-0.636094
-0.62449
-0.614606
-0.606666
-0.600819
-0.597178
-0.595843
-0.596897
-0.60036
510.345
511.149
511.881
511.177
509.063
505.531
500.511
493.926
485.695
475.732
463.955
450.289
434.662
417.001
397.234
375.298
351.137
324.712
296.001
265.008
231.758
196.347
159.145
120.346
75.0469
21.3333
1.01579
-0.734988
-0.854208
-0.839237
-0.831486
-0.824444
-0.811793
-0.796241
-0.779996
-0.764066
-0.749099
-0.735574
-0.723816
-0.714025
-0.706325
-0.700804
-0.697528
-0.696539
-0.697839
468.189
468.828
469.608
469.088
467.316
464.254
459.819
453.922
446.476
437.392
426.586
413.984
399.515
383.11
364.699
344.224
321.635
296.899
269.999
240.943
209.763
176.577
141.808
105.386
61.366
13.3935
-0.224159
-1.17928
-1.04595
-0.984257
-0.966897
-0.952404
-0.934795
-0.916053
-0.897289
-0.879125
-0.862087
-0.846594
-0.832929
-0.821269
-0.811718
-0.804338
-0.799166
-0.796211
-0.795455
426.62
427.08
427.911
427.588
426.179
423.612
419.785
414.598
407.957
399.771
389.955
378.435
365.142
350.012
332.981
313.997
293.016
270.007
244.956
217.875
188.795
157.859
125.491
91.1637
48.2861
7.68795
-0.77259
-1.31388
-1.1828
-1.11561
-1.09532
-1.07738
-1.05677
-1.03547
-1.01437
-0.994004
-0.974884
-0.957401
-0.941815
-0.928284
-0.916893
-0.907684
-0.900668
-0.895825
-0.893116
385.597
385.849
386.745
386.639
385.623
383.585
380.396
375.946
370.133
362.863
354.053
343.631
331.532
317.696
302.068
284.603
265.263
244.018
220.856
195.787
168.844
140.193
110.205
77.6763
36.1702
4.08011
-0.909361
-1.3162
-1.26728
-1.23178
-1.21751
-1.19962
-1.17763
-1.15435
-1.13109
-1.10856
-1.08736
-1.06787
-1.05036
-1.03496
-1.02175
-1.01075
-1.00195
-0.995296
-0.990723
345.064
345.056
346.049
346.193
345.617
344.151
341.64
337.959
332.997
326.661
318.871
309.562
298.672
286.149
271.947
256.028
238.358
218.912
197.677
174.662
149.908
123.609
96.0554
65.2609
25.9254
1.95785
-1.02544
-1.3627
-1.36506
-1.35144
-1.34047
-1.32194
-1.29835
-1.273
-1.2475
-1.22276
-1.19943
-1.17791
-1.15846
-1.14121
-1.12621
-1.11346
-1.10292
-1.09453
-1.08818
304.95
304.578
305.739
306.191
306.12
305.286
303.502
300.626
296.543
291.158
284.4
276.212
266.542
255.347
242.59
228.239
212.266
194.649
175.38
154.468
131.963
108.091
83.0539
54.1159
17.6814
0.450431
-1.24753
-1.47982
-1.49134
-1.48205
-1.46785
-1.44595
-1.41959
-1.39164
-1.36365
-1.33655
-1.31101
-1.28743
-1.26603
-1.24693
-1.23016
-1.2157
-1.20348
-1.19342
-1.18537
265.144
264.237
265.681
266.556
267.087
266.965
265.968
263.939
260.76
256.343
250.625
243.561
235.116
225.255
213.953
201.187
186.934
171.177
153.913
135.151
114.952
93.5765
71.1328
44.1884
11.3467
-0.703368
-1.68454
-1.66368
-1.63879
-1.62114
-1.59889
-1.57135
-1.54117
-1.51013
-1.4794
-1.44982
-1.42201
-1.39633
-1.37297
-1.35204
-1.33352
-1.31738
-1.30354
-1.29187
-1.28219
225.391
223.875
225.722
227.207
228.475
229.165
229.024
227.888
225.64
222.201
217.527
211.588
204.363
195.836
185.993
174.822
162.307
148.439
133.215
116.643
98.7905
79.9497
60.0821
35.1699
6.72731
-1.44358
-2.05744
-1.86273
-1.79028
-1.75923
-1.72913
-1.69628
-1.66225
-1.62803
-1.59448
-1.56237
-1.53225
-1.50446
-1.47916
-1.45641
-1.43619
-1.41842
-1.40299
-1.38977
-1.37854
185.028
183.421
185.811
188.14
190.277
191.881
192.666
192.464
191.167
188.716
185.083
180.259
174.246
167.044
158.657
149.085
138.324
126.37
113.219
98.8714
83.4014
67.095
49.6565
26.719
3.33842
-1.71499
-2.12675
-1.99276
-1.92118
-1.88751
-1.85486
-1.81913
-1.78208
-1.74492
-1.70861
-1.67399
-1.64158
-1.61169
-1.58447
-1.55994
-1.53805
-1.51871
-1.50176
-1.48706
-1.47437
142.848
143.177
145.708
149.409
152.565
155.173
156.936
157.688
157.344
155.868
153.258
149.53
144.706
138.813
131.871
123.9
114.906
104.891
93.8474
81.7722
68.7438
55.0091
39.8979
19.1099
1.15646
-1.7899
-2.10814
-2.07195
-2.03604
-2.00987
-1.97778
-1.94035
-1.90066
-1.86064
-1.82161
-1.78447
-1.74979
-1.71784
-1.68874
-1.66248
-1.639
-1.61816
-1.59978
-1.58368
-1.56962
99.8472
101.964
105.168
110.61
115.331
119.154
121.95
123.652
124.231
123.688
122.052
119.37
115.694
111.075
105.558
99.1773
91.9544
83.8976
75.0019
65.2638
54.7817
43.7801
31.1409
12.9333
-0.113121
-1.89964
-2.16842
-2.17697
-2.15973
-2.13569
-2.1017
-2.06133
-2.01839
-1.97523
-1.93334
-1.89366
-1.85671
-1.82273
-1.79181
-1.76391
-1.73892
-1.71667
-1.69697
-1.67959
-1.66428
53.9948
61.8153
65.1101
72.0195
78.3782
83.6367
87.6029
90.3088
91.8089
92.1615
91.4411
89.7411
87.1495
83.7478
79.6067
74.7796
69.3036
63.1999
56.4728
49.1309
41.3316
33.336
23.6057
8.30404
-1.08266
-2.16173
-2.30786
-2.31546
-2.29781
-2.26763
-2.22767
-2.18235
-2.13521
-2.08848
-2.04357
-2.0013
-1.96211
-1.92618
-1.89354
-1.86409
-1.8377
-1.81416
-1.79326
-1.77473
-1.75829
12.5072
28.5242
30.3388
36.6801
43.0948
48.7983
53.4843
57.0809
59.5102
60.777
60.96
60.207
58.652
56.4141
53.595
50.2753
46.5185
42.3704
37.8555
33.02
28.0997
23.4543
17.0667
4.80206
-1.89969
-2.63895
-2.51312
-2.47545
-2.44437
-2.40271
-2.35401
-2.30237
-2.2504
-2.19985
-2.15186
-2.10705
-2.06573
-2.02797
-1.99373
-1.96287
-1.93522
-1.91054
-1.88858
-1.86905
-1.85162
-2.96159
3.83044
7.79374
12.5036
16.0816
19.3336
22.5719
25.579
28.0681
29.8199
30.6635
30.7214
30.1446
29.0729
27.6326
25.9354
24.0822
22.1444
20.1739
18.2076
16.5071
15.3588
11.809
1.7912
-2.34348
-2.89801
-2.69733
-2.63124
-2.58602
-2.53399
-2.47724
-2.41947
-2.36278
-2.30855
-2.25765
-2.21049
-2.16722
-2.12782
-2.09218
-2.0601
-2.03136
-2.00571
-1.98285
-1.96247
-1.9442
-3.23814
-2.87044
-2.91198
0.317516
4.19452
5.39259
5.31652
5.281
5.77589
6.41721
6.86142
7.09944
7.16164
7.12599
7.08403
7.12927
7.34866
7.80722
8.4933
9.31078
10.5056
12.5679
10.4775
-0.709817
-2.46443
-2.92073
-2.82355
-2.76891
-2.71746
-2.65823
-2.59515
-2.53209
-2.4712
-2.41373
-2.3603
-2.31115
-2.26626
-2.22552
-2.18872
-2.15564
-2.12601
-2.09955
-2.07595
-2.05486
-2.03587
-3.28944
-3.22716
-3.28604
-3.37894
-3.54865
-2.5347
-0.895802
1.08287
2.47891
2.50125
2.22293
2.07727
2.13256
2.42283
2.93455
3.60704
4.37078
5.16174
5.89504
6.46757
)
;

boundaryField
{
    leftWall
    {
        type            calculated;
        value           nonuniform List<scalar> 
44
(
1871.98
1822.79
1774.14
1724.89
1675.12
1624.91
1574.35
1523.59
1472.78
1422.06
1371.15
1319.93
1268.74
1217.7
1166.9
1116.42
1066.33
1016.7
967.575
918.997
871.004
823.626
776.885
730.798
685.377
640.626
596.544
553.122
510.345
468.189
426.62
385.597
345.064
304.95
265.144
225.391
185.028
142.848
99.8472
53.9948
12.5072
-2.96159
-3.23814
-3.28944
)
;
    }
    rightWall
    {
        type            calculated;
        value           nonuniform 0();
    }
    lowerWall
    {
        type            calculated;
        value           nonuniform List<scalar> 
44
(
1895.52
1899.89
1902.21
1902.19
1898.63
1891.42
1880.85
1867.25
1850.81
1831.68
1809.92
1785.56
1758.58
1728.89
1696.38
1660.88
1622.17
1579.98
1533.96
1483.73
1428.85
1368.83
1303.21
1231.58
1153.67
1069.54
979.675
885.196
788.023
690.958
597.463
511.636
439.516
376.952
323.15
275.81
233.418
195.608
162.597
133.813
108.865
88.8657
70.4733
52.1678
)
;
    }
    atmosphere
    {
        type            calculated;
        value           nonuniform 0();
    }
    defaultFaces
    {
        type            empty;
    }
    procBoundary0to1
    {
        type            processor;
        value           nonuniform List<scalar> 
44
(
35.0415
22.0007
9.94054
3.84585
2.50677
2.05246
1.83715
1.72817
1.59348
1.39996
1.12052
0.88875
0.783634
0.709356
0.623185
0.532319
0.441669
0.350112
0.257435
0.164123
0.164123
0.0415743
-0.0478207
-0.138501
-0.230389
-0.323292
-0.417003
-0.511347
-0.606185
-0.701387
-0.796838
-0.892443
-0.98811
-1.08372
-1.17916
-1.27431
-1.3691
-1.46347
-1.55737
-1.65078
-1.74367
-1.836
-1.9277
-2.01862
)
;
    }
    procBoundary0to2
    {
        type            processor;
        value           nonuniform List<scalar> 
46
(
6.87889
8.50506
9.60637
-1.994
-2.97663
-2.97772
-2.9527
-2.90697
-2.84558
-2.7772
-2.70743
-2.63939
-2.57484
-2.51468
-2.45927
-2.40861
-2.36254
-2.32083
-2.28322
-2.24941
-2.2191
-2.19199
-2.16775
-2.14605
-2.12645
-3.3334
-3.29582
-3.3355
-3.35437
-3.37285
-3.46637
-3.71526
-3.81191
-3.79994
-3.73839
-3.66844
-3.59677
-3.54072
-3.50701
-3.49708
-3.51207
-3.55583
-3.6442
-3.75968
6.87889
-3.79027
)
;
    }
}


// ************************************************************************* //
