/*--------------------------------*- C++ -*----------------------------------*\
| =========                 |                                                 |
| \\      /  F ield         | OpenFOAM: The Open Source CFD Toolbox           |
|  \\    /   O peration     | Version:  5.0                                   |
|   \\  /    A nd           | Web:      www.OpenFOAM.org                      |
|    \\/     M anipulation  |                                                 |
\*---------------------------------------------------------------------------*/
FoamFile
{
    version     2.0;
    format      ascii;
    class       volScalarField;
    location    "0.15";
    object      p_rgh;
}
// * * * * * * * * * * * * * * * * * * * * * * * * * * * * * * * * * * * * * //

dimensions      [1 -1 -2 0 0 0 0];

internalField   nonuniform List<scalar> 
1935
(
1895.52
1899.89
1902.21
1902.19
1898.63
1891.42
1880.85
1867.25
1850.81
1831.68
1809.92
1785.56
1758.58
1728.89
1696.38
1660.88
1622.17
1579.98
1533.96
1483.73
1428.85
1368.83
1303.21
1231.58
1153.67
1069.54
979.675
885.196
788.023
690.958
597.463
511.636
439.516
376.952
323.15
275.81
233.418
195.608
162.597
133.813
108.865
88.8657
70.4733
52.1678
1893.42
1897.08
1897.4
1895.28
1890.34
1882.31
1871.26
1857.36
1840.74
1821.46
1799.57
1775.05
1747.85
1717.9
1685.04
1649.11
1609.86
1567.01
1520.21
1469.08
1413.16
1352.01
1285.2
1212.38
1133.4
1048.43
958.107
863.727
767.341
671.727
580.042
495.281
418.58
357.578
309.783
270.743
236.461
203.818
171.664
140.37
101.802
44.6255
13.9465
16.5099
1891.85
1895.77
1894.68
1890.59
1884.01
1874.72
1862.73
1848.1
1830.89
1811.11
1788.75
1763.75
1736.06
1705.54
1672.04
1635.36
1595.26
1551.43
1503.52
1451.15
1393.89
1331.35
1263.16
1189.07
1109.08
1023.49
933.132
839.439
744.567
651.302
562.759
482.009
411.614
353.787
306.742
267.808
233.329
200.593
169.25
133.244
69.7257
12.7604
4.38727
7.17198
1889.69
1894.2
1892.61
1887.37
1879.56
1869.16
1856.21
1840.76
1822.85
1802.44
1779.49
1753.92
1725.62
1694.47
1660.27
1622.82
1581.86
1537.09
1488.15
1434.67
1376.27
1312.58
1243.29
1168.26
1087.56
1001.62
911.34
818.259
724.572
633.063
546.795
468.576
400.386
343.155
295.829
256.327
222
187.108
126.953
47.2088
10.8077
4.28397
3.33273
3.97872
1887.02
1891.88
1890.14
1884.36
1875.84
1864.7
1851.04
1834.95
1816.45
1795.48
1771.99
1745.89
1717.05
1685.33
1650.52
1612.42
1570.75
1525.22
1475.48
1421.17
1361.94
1297.45
1227.44
1151.81
1070.69
984.555
894.355
801.626
708.546
617.828
532.353
454.592
386.098
327.688
279.369
236.8
172.185
75.7363
19.4388
7.63248
4.24891
2.71864
2.78132
2.92985
1883.89
1888.84
1887.07
1881.1
1872.22
1860.65
1846.55
1830.02
1811.08
1789.69
1765.79
1739.26
1709.98
1677.79
1642.49
1603.86
1561.64
1515.53
1465.19
1410.29
1350.48
1285.46
1215.01
1139.05
1057.73
971.551
881.439
788.885
695.963
605.171
518.926
439.134
367.936
306.43
232.649
113.501
26.1129
6.76524
4.16551
2.86222
2.2254
2.24958
2.45563
2.55861
1880.41
1885.27
1883.54
1877.59
1868.59
1856.83
1842.5
1825.72
1806.51
1784.83
1760.63
1733.79
1704.18
1671.64
1635.97
1596.95
1554.32
1507.79
1457.04
1401.74
1341.57
1276.25
1205.59
1129.53
1048.23
962.176
872.248
779.834
686.823
595.229
506.42
422.372
341.855
213.242
60.3595
6.58049
2.95883
2.3575
1.90717
1.83987
1.94067
2.07846
2.23543
2.3278
1876.74
1881.39
1879.75
1873.93
1864.99
1853.22
1838.83
1821.96
1802.62
1780.8
1756.43
1729.4
1699.57
1666.8
1630.89
1591.61
1548.71
1501.91
1450.9
1395.39
1335.06
1269.65
1199.01
1123.08
1042.04
956.345
866.8
774.677
681.594
588.585
495.591
398.208
219.915
40.8385
2.62936
1.90588
1.70867
1.6434
1.67798
1.75546
1.8613
1.9804
2.09147
2.16822
1873.01
1877.4
1875.88
1870.3
1861.52
1849.87
1835.57
1818.73
1799.41
1777.56
1753.14
1726.03
1696.11
1663.23
1627.19
1587.77
1544.74
1497.82
1446.73
1391.17
1330.87
1265.59
1195.19
1119.65
1039.13
954.074
865.223
773.762
680.889
585.874
488.221
281.423
46.6936
2.36136
1.98248
1.67772
1.57858
1.58804
1.64696
1.72827
1.81788
1.90518
1.97828
2.0201
1869.39
1873.5
1872.12
1866.82
1858.29
1846.86
1832.74
1816.06
1796.86
1775.1
1750.74
1723.66
1693.76
1660.88
1624.83
1585.41
1542.38
1495.48
1444.46
1389.03
1328.94
1263.99
1194.06
1119.15
1039.45
955.359
867.611
777.377
685.041
587.23
415.403
102.526
2.95204
1.94028
1.65276
1.5534
1.54449
1.58071
1.63856
1.70523
1.7713
1.83077
1.87325
1.87301
1865.98
1869.82
1868.6
1863.6
1855.38
1844.24
1830.39
1813.96
1794.97
1773.4
1749.19
1722.26
1692.48
1659.71
1623.77
1584.46
1541.56
1494.83
1444.03
1388.9
1329.21
1264.8
1195.57
1121.55
1042.95
960.163
873.99
785.61
693.638
584.263
250.478
13.6264
2.14728
1.68561
1.55204
1.52059
1.53709
1.57464
1.621
1.66982
1.71578
1.75281
1.76803
1.72202
1862.91
1866.5
1865.44
1860.77
1852.88
1842.08
1828.58
1812.46
1793.77
1772.47
1748.52
1721.82
1692.27
1659.72
1624.01
1584.93
1542.3
1495.89
1445.46
1390.79
1331.7
1268.02
1199.71
1126.84
1049.6
968.444
884.324
798.203
705.199
501.726
94.8807
3.1307
1.84248
1.58996
1.52595
1.51287
1.52852
1.55704
1.59066
1.62472
1.65473
1.67383
1.66816
1.59375
1860.33
1863.67
1862.79
1858.44
1850.91
1840.5
1827.38
1811.64
1793.31
1772.37
1748.75
1722.39
1693.16
1660.93
1625.55
1586.84
1544.6
1498.63
1448.73
1394.7
1336.36
1273.61
1206.43
1134.9
1059.25
980.002
898.303
814.085
717.845
348.933
19.2511
2.15171
1.64719
1.54573
1.50815
1.49865
1.50911
1.52865
1.55155
1.57396
1.59168
1.5983
1.58265
1.51377
1858.34
1861.47
1860.75
1856.71
1849.56
1839.55
1826.86
1811.55
1793.64
1773.11
1749.91
1723.96
1695.15
1663.35
1628.41
1590.16
1548.45
1503.06
1453.83
1400.58
1343.16
1281.5
1215.61
1145.6
1071.72
994.601
915.532
831.836
682.314
185.213
4.12082
1.87596
1.57053
1.51393
1.48233
1.47355
1.47966
1.49207
1.50653
1.51989
1.5286
1.52749
1.50884
1.45566
1857.05
1859.98
1859.42
1855.69
1848.91
1839.32
1827.08
1812.23
1794.8
1774.75
1752.03
1726.57
1698.25
1666.97
1632.57
1594.92
1553.84
1509.16
1460.73
1408.39
1352.04
1291.61
1227.15
1158.78
1086.77
1011.94
935.408
850.391
582.12
74.3618
2.66237
1.62117
1.5055
1.47176
1.44637
1.43927
1.44239
1.44952
1.45761
1.46421
1.46647
1.4604
1.44033
1.39655
1856.53
1859.28
1858.88
1855.44
1849.03
1839.88
1828.1
1813.75
1796.83
1777.31
1755.13
1730.23
1702.49
1671.82
1638.06
1601.09
1560.76
1516.91
1469.4
1418.1
1362.92
1303.85
1240.92
1174.26
1104.2
1031.71
957.054
868.803
434.139
18.9014
1.84896
1.4746
1.44692
1.42208
1.40345
1.3982
1.39937
1.40281
1.40637
1.40817
1.40597
1.39667
1.37599
1.33782
1856.88
1859.46
1859.2
1856.04
1849.99
1841.27
1829.98
1816.15
1799.78
1780.83
1759.25
1734.97
1707.89
1677.89
1644.87
1608.68
1569.19
1526.27
1479.79
1429.63
1375.74
1318.1
1256.78
1191.9
1123.86
1053.71
979.768
861.019
267.341
3.99374
1.6386
1.41466
1.39619
1.37107
1.35637
1.35227
1.35221
1.35328
1.35389
1.35255
1.34752
1.33649
1.3164
1.28337
1858.15
1860.56
1860.44
1857.54
1851.85
1843.57
1832.77
1819.48
1803.69
1785.35
1764.42
1740.81
1714.45
1685.21
1652.99
1617.67
1579.13
1537.23
1491.86
1442.94
1390.42
1334.3
1274.65
1211.6
1145.67
1077.84
1003.53
792.166
143.708
2.87015
1.47702
1.35515
1.33874
1.31639
1.30552
1.30251
1.30199
1.30182
1.30075
1.29764
1.29115
1.27958
1.26082
1.23245
1860.39
1862.65
1862.65
1860
1854.66
1846.81
1836.52
1823.78
1808.59
1790.9
1770.65
1747.78
1722.19
1693.77
1662.44
1628.06
1590.54
1549.74
1505.58
1457.98
1406.9
1352.36
1294.43
1233.27
1169.51
1103.85
1028.34
681.354
61.0219
1.94509
1.31249
1.28346
1.27347
1.25781
1.25128
1.24977
1.2495
1.24898
1.24726
1.24345
1.23655
1.22529
1.20816
1.18374
1863.66
1865.77
1865.89
1863.47
1858.47
1851.05
1841.26
1829.09
1814.53
1797.51
1777.99
1755.89
1731.12
1703.59
1673.2
1639.84
1603.41
1563.79
1520.91
1474.7
1425.14
1372.25
1316.08
1256.85
1195.28
1131.35
1053.98
525.017
16.2816
1.36967
1.19382
1.21429
1.20755
1.19773
1.19492
1.19495
1.19538
1.19518
1.19357
1.18986
1.18332
1.17297
1.15768
1.1366
1868
1869.96
1870.18
1867.98
1863.32
1856.33
1847.04
1835.46
1821.53
1805.22
1786.46
1765.17
1741.28
1714.68
1685.29
1653.01
1617.73
1579.36
1537.83
1493.08
1445.11
1393.92
1339.58
1282.35
1222.95
1160.06
1069.26
354.624
3.21541
1.23278
1.14195
1.15576
1.14505
1.13799
1.13741
1.13875
1.14014
1.14069
1.13973
1.1367
1.13105
1.12207
1.10876
1.09058
1.06743
1873.44
1875.26
1875.57
1873.58
1869.24
1862.67
1853.9
1842.9
1829.64
1814.05
1796.08
1775.64
1752.66
1727.05
1698.71
1667.56
1633.5
1596.44
1556.33
1513.11
1466.78
1417.36
1364.93
1309.8
1252.64
1190.22
1015.53
219.723
2.48398
1.18771
1.09705
1.09573
1.08277
1.07778
1.07884
1.0815
1.08407
1.08571
1.08578
1.08382
1.0794
1.07204
1.06095
1.04548
1.02584
1880
1881.68
1882.07
1880.28
1876.26
1870.12
1861.87
1851.47
1838.87
1824.03
1806.88
1787.33
1765.3
1740.71
1713.48
1683.52
1650.73
1615.04
1576.4
1534.77
1490.15
1442.57
1392.11
1339.19
1284.32
1222.19
928.727
115.569
1.85166
1.07701
1.03086
1.027
1.01754
1.01593
1.01908
1.02336
1.02737
1.03036
1.03175
1.03113
1.02817
1.02253
1.01366
1.00097
0.984468
1887.72
1889.25
1889.72
1888.12
1884.41
1878.7
1870.96
1861.17
1849.27
1835.2
1818.88
1800.25
1779.21
1755.69
1729.61
1700.88
1669.42
1635.16
1598.04
1558.05
1515.19
1469.5
1421.09
1370.46
1317.84
1255.87
793.835
46.1988
1.20052
0.938028
0.951129
0.952418
0.949639
0.952606
0.958351
0.964532
0.970209
0.974748
0.977657
0.97858
0.977239
0.973375
0.966637
0.956581
0.943126
1896.6
1897.99
1898.52
1897.1
1893.72
1888.43
1881.22
1872.04
1860.85
1847.56
1832.11
1814.41
1794.4
1771.98
1747.09
1719.65
1689.56
1656.78
1621.25
1582.95
1541.91
1498.15
1451.84
1403.52
1352.87
1290.96
622.59
11.5322
0.816916
0.825965
0.873576
0.8794
0.882156
0.889021
0.897223
0.905367
0.912813
0.919028
0.923582
0.92617
0.926559
0.924535
0.919856
0.912225
0.901543
1906.65
1907.9
1908.49
1907.25
1904.18
1899.32
1892.64
1884.09
1873.62
1861.13
1846.57
1829.84
1810.88
1789.61
1765.95
1739.82
1711.16
1679.9
1646.01
1609.46
1570.28
1528.51
1484.34
1438.31
1389.21
1320.27
432.405
2.18599
0.747742
0.773599
0.809078
0.812177
0.816945
0.826004
0.836153
0.846156
0.855393
0.86335
0.869627
0.873955
0.876137
0.875992
0.873341
0.867989
0.859864
1917.88
1918.99
1919.63
1918.57
1915.81
1911.38
1905.25
1897.34
1887.59
1875.93
1862.27
1846.54
1828.66
1808.56
1786.17
1761.41
1734.21
1704.52
1672.31
1637.57
1600.31
1560.59
1518.66
1474.97
1427.1
1267.31
282.453
1.74669
0.776585
0.737415
0.748371
0.747296
0.752827
0.76334
0.775221
0.787051
0.798108
0.807857
0.815913
0.822028
0.826034
0.827784
0.82714
0.823972
0.81824
1930.29
1931.25
1931.93
1931.05
1928.61
1924.62
1919.04
1911.78
1902.79
1891.96
1879.24
1864.53
1847.76
1828.87
1807.77
1784.41
1758.71
1730.63
1700.15
1667.26
1631.98
1594.38
1554.78
1513.51
1466.91
1185.75
161.657
1.35008
0.712449
0.676736
0.679421
0.679888
0.687881
0.700456
0.714326
0.728113
0.741073
0.752677
0.762561
0.770501
0.776348
0.779989
0.781324
0.78027
0.776807
1943.86
1944.66
1945.39
1944.69
1942.58
1939.04
1934.02
1927.44
1919.21
1909.24
1897.47
1883.8
1868.17
1850.51
1830.75
1808.81
1784.65
1758.22
1729.51
1698.52
1665.27
1629.86
1592.66
1553.86
1508.56
1054.8
74.5114
0.827046
0.590639
0.595264
0.602111
0.609083
0.621722
0.637273
0.653517
0.669447
0.684414
0.697939
0.709697
0.719488
0.727188
0.732708
0.735985
0.736973
0.735674
1958.57
1959.21
1959.99
1959.47
1957.7
1954.64
1950.2
1944.3
1936.86
1927.77
1916.97
1904.37
1889.9
1873.49
1855.08
1834.61
1812.02
1787.28
1760.38
1731.32
1700.14
1666.96
1632.19
1595.77
1551.75
873.357
23.3211
0.36536
0.449487
0.506566
0.523523
0.537983
0.555588
0.574329
0.593093
0.611257
0.628295
0.643788
0.657453
0.669112
0.678664
0.686044
0.691216
0.694171
0.694927
1974.4
1974.86
1975.69
1975.37
1973.96
1971.39
1967.56
1962.38
1955.74
1947.55
1937.73
1926.21
1912.92
1897.79
1880.76
1861.78
1840.79
1817.79
1792.74
1765.65
1736.57
1705.64
1673.27
1638.94
1596.06
659.974
2.73291
0.259839
0.368004
0.432377
0.45248
0.470406
0.491008
0.512304
0.53341
0.553775
0.572895
0.590378
0.605964
0.619495
0.630886
0.640094
0.647111
0.651953
0.654663
1991.31
1991.56
1992.45
1992.35
1991.33
1989.29
1986.1
1981.65
1975.84
1968.57
1959.76
1949.34
1937.24
1923.4
1907.78
1890.31
1870.97
1849.73
1826.56
1801.5
1774.55
1745.9
1715.91
1683.38
1610.3
451.669
1.11106
0.301671
0.340248
0.374029
0.388206
0.406087
0.428083
0.451354
0.474623
0.497146
0.518351
0.537838
0.555352
0.570747
0.583955
0.594954
0.603759
0.610413
0.614986
2009.24
2009.23
2010.23
2010.37
2009.79
2008.33
2005.82
2002.14
1997.17
1990.84
1983.05
1973.74
1962.85
1950.33
1936.12
1920.2
1902.53
1883.09
1861.85
1838.84
1814.08
1787.79
1760.23
1729.44
1538.83
290.168
0.874008
0.316571
0.299968
0.312779
0.323706
0.34224
0.365827
0.391172
0.416676
0.441414
0.46475
0.486267
0.505717
0.522969
0.53797
0.55072
0.561256
0.569647
0.576001
2028.14
2027.76
2028.93
2029.38
2029.31
2028.47
2026.69
2023.81
2019.73
2014.34
2007.59
1999.4
1989.73
1978.53
1965.78
1951.43
1935.45
1917.84
1898.57
1877.66
1855.15
1831.28
1806.24
1777.3
1430.73
160.57
0.588371
0.249905
0.232157
0.241156
0.25534
0.277235
0.303595
0.331543
0.359541
0.386633
0.412173
0.435756
0.457154
0.476254
0.493025
0.507489
0.519704
0.529765
0.537819
2047.89
2046.98
2048.42
2049.3
2049.83
2049.71
2048.71
2046.68
2043.51
2039.09
2033.37
2026.31
2017.86
2008
1996.7
1983.93
1969.68
1953.92
1936.66
1917.9
1897.7
1876.32
1853.88
1826.93
1260.57
68.6512
0.136003
0.121202
0.144046
0.16161
0.183859
0.211391
0.241574
0.272612
0.303349
0.332924
0.360737
0.38642
0.409772
0.430708
0.449222
0.465361
0.479208
0.49088
0.500556
2068.25
2066.72
2068.57
2070.06
2071.33
2072.02
2071.88
2070.75
2068.5
2065.06
2060.38
2054.44
2047.22
2038.69
2028.85
2017.68
2005.16
1991.3
1976.07
1959.5
1941.65
1922.81
1902.94
1878.03
1031.54
18.2531
-0.20295
-0.0192641
0.0526002
0.0836331
0.11373
0.146577
0.180602
0.214823
0.248376
0.280487
0.310602
0.338394
0.363693
0.386444
0.406667
0.424438
0.439865
0.45309
0.464313
2088.55
2086.89
2089.31
2091.65
2093.8
2095.41
2096.19
2095.99
2094.69
2092.24
2088.61
2083.79
2077.77
2070.57
2062.18
2052.61
2041.85
2029.9
2016.75
2002.4
1986.93
1970.62
1953.18
1930.25
770.377
0.87447
-0.21934
-0.0890077
-0.0176455
0.0160143
0.0486673
0.084398
0.121445
0.158611
0.194912
0.22954
0.26195
0.291836
0.319058
0.343588
0.365474
0.38482
0.401762
0.41647
0.429159
2107.61
2107.69
2110.35
2114.12
2117.3
2119.92
2121.69
2122.44
2122.1
2120.63
2118.02
2114.29
2109.47
2103.57
2096.63
2088.66
2079.66
2069.65
2058.61
2046.53
2033.5
2019.77
2004.66
1970.35
521.467
0.31531
-0.142811
-0.107086
-0.0712744
-0.045114
-0.0130226
0.0244103
0.0640991
0.104121
0.143148
0.180285
0.214972
0.246922
0.276022
0.302275
0.325758
0.346604
0.36498
0.38108
0.395138
2126.42
2127.49
2131.26
2136.98
2141.81
2145.68
2148.49
2150.2
2150.78
2150.24
2148.61
2145.93
2142.25
2137.63
2132.11
2125.73
2118.51
2110.45
2101.56
2091.82
2081.33
2070.33
2057.7
1876.03
325.259
0.195623
-0.142537
-0.150371
-0.133167
-0.10913
-0.0751381
-0.034768
0.00817451
0.0513345
0.0932198
0.132902
0.169856
0.203831
0.234749
0.262648
0.287641
0.30989
0.329593
0.346973
0.362285
2128.58
2146.31
2152.45
2160.03
2166.93
2172.37
2176.43
2179.18
2180.7
2181.06
2180.35
2178.65
2176.06
2172.66
2168.52
2163.69
2158.21
2152.1
2145.37
2138.03
2130.23
2122.24
2112.54
1728.59
166.208
-0.0480643
-0.218733
-0.226523
-0.208876
-0.178696
-0.138734
-0.0934169
-0.0462723
0.000458411
0.0453702
0.0876353
0.126822
0.162752
0.1954
0.224847
0.251239
0.274774
0.29568
0.314208
0.330644
1123.26
1744.78
2118.01
2184.56
2193.49
2199.56
2204.82
2208.63
2211.15
2212.47
2212.68
2211.95
2210.41
2208.17
2205.34
2202.01
2198.24
2194.07
2189.54
2184.69
2179.76
2175.14
2168.9
1452.01
58.2255
-0.48482
-0.361244
-0.323556
-0.292474
-0.250819
-0.202116
-0.150479
-0.0985117
-0.0479638
3.13577e-05
0.0448377
0.0861622
0.123923
0.158165
0.189019
0.216671
0.241351
0.263314
0.282846
0.300266
20.9952
359.465
1071.62
1788.89
2149.09
2229.44
2235.3
2239.49
2242.5
2244.21
2245.07
2245.24
2244.72
2243.65
2242.18
2240.41
2238.46
2236.57
2234.69
2232.77
2230.98
2229.89
2226.76
1073.18
9.21967
-0.682885
-0.481906
-0.415815
-0.370594
-0.31856
-0.261814
-0.204042
-0.147352
-0.0931249
-0.0422177
0.00494173
0.0482089
0.0876064
0.123253
0.155332
0.184069
0.209723
0.232582
0.252963
0.27123
-0.958586
-0.590885
21.8062
356.38
974.06
1561.88
1947.31
2147.4
2233.64
2266.33
2278.34
2281.97
2282.3
2282.28
2282.06
2280.04
2277.12
2269.95
2260.27
2249.33
2235.68
2246.05
2285.06
673.753
-0.150637
-0.641414
-0.543987
-0.489348
-0.437905
-0.37867
-0.315587
-0.252528
-0.191643
-0.134169
-0.08074
-0.0315867
0.0132963
0.0540402
0.0908385
0.123921
0.153547
0.180006
0.203607
0.224699
0.243685
-0.945155
-0.882874
-0.94176
-1.03466
-1.20437
152.833
424.04
746.662
1055.95
1292.23
1434.11
1520.44
1556.99
1554.74
1522.54
1465.3
1390.18
1305.96
1215.31
1116.96
)
;

boundaryField
{
    leftWall
    {
        type            fixedFluxPressure;
        gradient        uniform 0;
        value           nonuniform List<scalar> 
44
(
1895.52
1893.42
1891.85
1889.69
1887.02
1883.89
1880.41
1876.74
1873.01
1869.39
1865.98
1862.91
1860.33
1858.34
1857.05
1856.53
1856.88
1858.15
1860.39
1863.66
1868
1873.44
1880
1887.72
1896.6
1906.65
1917.88
1930.29
1943.86
1958.57
1974.4
1991.31
2009.24
2028.14
2047.89
2068.25
2088.55
2107.61
2126.42
2128.58
1123.26
20.9952
-0.958586
-0.945155
)
;
    }
    rightWall
    {
        type            fixedFluxPressure;
        gradient        nonuniform 0();
        value           nonuniform 0();
    }
    lowerWall
    {
        type            fixedFluxPressure;
        gradient        uniform 0;
        value           nonuniform List<scalar> 
44
(
1895.52
1899.89
1902.21
1902.19
1898.63
1891.42
1880.85
1867.25
1850.81
1831.68
1809.92
1785.56
1758.58
1728.89
1696.38
1660.88
1622.17
1579.98
1533.96
1483.73
1428.85
1368.83
1303.21
1231.58
1153.67
1069.54
979.675
885.196
788.023
690.958
597.463
511.636
439.516
376.952
323.15
275.81
233.418
195.608
162.597
133.813
108.865
88.8657
70.4733
52.1678
)
;
    }
    atmosphere
    {
        type            totalPressure;
        rho             rho;
        psi             none;
        gamma           1;
        p0              nonuniform 0();
        value           nonuniform 0();
    }
    defaultFaces
    {
        type            empty;
    }
    procBoundary0to1
    {
        type            processor;
        value           nonuniform List<scalar> 
44
(
35.3926
25.8489
13.9136
5.68552
2.88259
2.32886
2.15559
2.08911
1.99738
1.84816
1.61561
1.4318
1.37525
1.35001
1.31334
1.27244
1.23222
1.19156
1.15025
1.10879
1.10879
1.03857
1.00199
0.964617
0.926531
0.887929
0.849023
0.809993
0.770982
0.732125
0.693544
0.655336
0.617599
0.580454
0.544028
0.508433
0.473754
0.440056
0.407388
0.375783
0.34527
0.315893
0.287731
0.26094
)
;
    }
    procBoundary0to2
    {
        type            processor;
        value           nonuniform List<scalar> 
46
(
1025.37
1069.73
1512.71
294.703
-0.628346
-0.633553
-0.608415
-0.562682
-0.501301
-0.432916
-0.363149
-0.295108
-0.230553
-0.170397
-0.114984
-0.064323
-0.0182563
0.0234481
0.0610623
0.0948761
0.125186
0.152297
0.17653
0.198236
0.21783
-0.923795
-0.88621
-0.925892
-0.944766
-0.963245
-1.05676
-1.30566
-1.4023
-1.39033
16.4826
57.2389
86.5128
100.484
99.3341
86.6293
66.046
41.7608
16.7607
-1.34567
1025.37
-1.38067
)
;
    }
}


// ************************************************************************* //
