/*--------------------------------*- C++ -*----------------------------------*\
| =========                 |                                                 |
| \\      /  F ield         | OpenFOAM: The Open Source CFD Toolbox           |
|  \\    /   O peration     | Version:  5.0                                   |
|   \\  /    A nd           | Web:      www.OpenFOAM.org                      |
|    \\/     M anipulation  |                                                 |
\*---------------------------------------------------------------------------*/
FoamFile
{
    version     2.0;
    format      ascii;
    class       surfaceScalarField;
    location    "0.15";
    object      phi;
}
// * * * * * * * * * * * * * * * * * * * * * * * * * * * * * * * * * * * * * //

dimensions      [0 3 -1 0 0 0 0];

internalField   nonuniform List<scalar> 
3781
(
-1.38693e-08
1.38693e-08
2.01595e-06
-2.02982e-06
5.09313e-06
-3.07718e-06
8.4392e-06
-3.34607e-06
1.17745e-05
-3.33532e-06
1.50219e-05
-3.24741e-06
1.81676e-05
-3.14565e-06
2.12184e-05
-3.05079e-06
2.41889e-05
-2.9705e-06
2.70964e-05
-2.90749e-06
2.99589e-05
-2.86257e-06
3.27949e-05
-2.83594e-06
3.56226e-05
-2.82779e-06
3.84611e-05
-2.8385e-06
4.13299e-05
-2.86871e-06
4.42492e-05
-2.91934e-06
4.72407e-05
-2.99149e-06
5.0327e-05
-3.08628e-06
5.35314e-05
-3.20445e-06
5.68772e-05
-3.34583e-06
6.03858e-05
-3.50854e-06
6.40737e-05
-3.68795e-06
6.79491e-05
-3.87542e-06
7.20061e-05
-4.05692e-06
7.62179e-05
-4.21185e-06
8.05303e-05
-4.31236e-06
8.48544e-05
-4.32414e-06
8.9063e-05
-4.20861e-06
9.29872e-05
-3.92419e-06
9.64239e-05
-3.43666e-06
9.9163e-05
-2.73914e-06
0.000100893
-1.73005e-06
0.000101198
-3.05423e-07
9.95518e-05
1.64668e-06
9.64569e-05
3.09491e-06
9.26048e-05
3.85209e-06
8.87261e-05
3.87868e-06
8.54058e-05
3.32036e-06
8.29467e-05
2.45909e-06
8.12948e-05
1.65183e-06
8.02967e-05
9.98088e-07
8.03764e-05
-7.96874e-08
8.17962e-05
-1.41974e-06
-1.47741e-07
1.66888e-06
-1.65501e-06
4.39501e-06
-4.75596e-06
7.35181e-06
-6.03398e-06
1.03518e-05
-6.34606e-06
1.33155e-05
-6.29898e-06
1.6212e-05
-6.14393e-06
1.90361e-05
-5.9698e-06
2.17948e-05
-5.80949e-06
2.45004e-05
-5.67603e-06
2.71675e-05
-5.57458e-06
2.9812e-05
-5.50706e-06
3.24503e-05
-5.47426e-06
3.50993e-05
-5.47681e-06
3.77763e-05
-5.51554e-06
4.04994e-05
-5.59173e-06
4.3287e-05
-5.70698e-06
4.61586e-05
-5.86308e-06
4.91338e-05
-6.06153e-06
5.22322e-05
-6.30276e-06
5.54714e-05
-6.58506e-06
5.88659e-05
-6.90302e-06
6.24236e-05
-7.24569e-06
6.61425e-05
-7.5943e-06
7.00056e-05
-7.92006e-06
7.3976e-05
-8.1822e-06
7.79908e-05
-8.32721e-06
8.19568e-05
-8.2901e-06
8.5747e-05
-7.9988e-06
8.9205e-05
-7.38223e-06
9.21571e-05
-6.3888e-06
9.44312e-05
-5.01324e-06
9.59913e-05
-3.29007e-06
9.69395e-05
-1.25361e-06
9.75648e-05
1.02134e-06
9.74571e-05
3.20259e-06
9.64446e-05
4.86457e-06
9.46895e-05
5.63377e-06
9.26583e-05
5.35162e-06
9.09668e-05
4.1506e-06
9.01304e-05
2.48823e-06
8.99332e-05
1.19525e-06
8.87228e-05
1.1307e-06
8.50297e-05
2.27337e-06
6.44723e-06
2.67348e-06
-4.32849e-06
5.77315e-06
-7.85562e-06
8.69655e-06
-8.95738e-06
1.14913e-05
-9.14084e-06
1.41972e-05
-9.00484e-06
1.68302e-05
-8.77697e-06
1.94024e-05
-8.54194e-06
2.19259e-05
-8.33302e-06
2.44141e-05
-8.1642e-06
2.6881e-05
-8.04147e-06
2.93413e-05
-7.96737e-06
3.18102e-05
-7.94313e-06
3.43031e-05
-7.96971e-06
3.68358e-05
-8.04833e-06
3.94247e-05
-8.18062e-06
4.20863e-05
-8.36854e-06
4.48372e-05
-8.61396e-06
4.76936e-05
-8.91797e-06
5.06706e-05
-9.27976e-06
5.37806e-05
-9.69499e-06
5.70312e-05
-1.01537e-05
6.04232e-05
-1.06377e-05
6.39466e-05
-1.11177e-05
6.75771e-05
-1.15505e-05
7.12715e-05
-1.18766e-05
7.49635e-05
-1.20192e-05
7.856e-05
-1.18866e-05
8.19396e-05
-1.13784e-05
8.49563e-05
-1.03989e-05
8.74504e-05
-8.88283e-06
8.92683e-05
-6.83117e-06
9.03237e-05
-4.34547e-06
9.06878e-05
-1.61773e-06
9.05801e-05
1.12907e-06
9.0189e-05
3.59367e-06
8.96539e-05
5.3997e-06
8.90972e-05
6.19039e-06
8.86733e-05
5.77553e-06
8.85343e-05
4.28962e-06
8.87777e-05
2.2448e-06
8.93648e-05
6.08164e-07
8.75849e-05
2.91063e-06
7.75744e-05
1.22839e-05
1.73993e-05
3.12692e-06
-7.45541e-06
6.49535e-06
-1.12241e-05
9.46358e-06
-1.19256e-05
1.21645e-05
-1.18418e-05
1.47115e-05
-1.15518e-05
1.71614e-05
-1.12269e-05
1.9546e-05
-1.09265e-05
2.18865e-05
-1.06735e-05
2.42001e-05
-1.04778e-05
2.65024e-05
-1.03438e-05
2.88083e-05
-1.02733e-05
3.11324e-05
-1.02673e-05
3.34895e-05
-1.03267e-05
3.5894e-05
-1.04529e-05
3.83607e-05
-1.06473e-05
4.09039e-05
-1.09118e-05
4.35379e-05
-1.12479e-05
4.62756e-05
-1.16557e-05
4.91281e-05
-1.21323e-05
5.21032e-05
-1.26701e-05
5.52035e-05
-1.32539e-05
5.8424e-05
-1.38583e-05
6.17497e-05
-1.44434e-05
6.51519e-05
-1.49527e-05
6.85845e-05
-1.53093e-05
7.19814e-05
-1.54161e-05
7.52527e-05
-1.51579e-05
7.82845e-05
-1.44102e-05
8.09423e-05
-1.30568e-05
8.30826e-05
-1.10231e-05
8.45816e-05
-8.33019e-06
8.53899e-05
-5.15368e-06
8.55929e-05
-1.82076e-06
8.54233e-05
1.29869e-06
8.51847e-05
3.8322e-06
8.51303e-05
5.45418e-06
8.53759e-05
5.94475e-06
8.58925e-05
5.25895e-06
8.66757e-05
3.50643e-06
8.73205e-05
1.60002e-06
8.6448e-05
1.48064e-06
8.10757e-05
8.28292e-06
6.72562e-05
2.61033e-05
3.54891e-05
3.31818e-06
-1.07736e-05
6.81605e-06
-1.47219e-05
9.8192e-06
-1.49288e-05
1.2477e-05
-1.44996e-05
1.49301e-05
-1.40048e-05
1.72581e-05
-1.35549e-05
1.95074e-05
-1.31758e-05
2.17082e-05
-1.28743e-05
2.38828e-05
-1.26524e-05
2.60494e-05
-1.25104e-05
2.82243e-05
-1.24481e-05
3.04223e-05
-1.24653e-05
3.26578e-05
-1.25622e-05
3.49445e-05
-1.27395e-05
3.72956e-05
-1.29984e-05
3.97239e-05
-1.33401e-05
4.22411e-05
-1.37652e-05
4.48574e-05
-1.4272e-05
4.75805e-05
-1.48553e-05
5.04142e-05
-1.55038e-05
5.33574e-05
-1.61971e-05
5.64012e-05
-1.6902e-05
5.95271e-05
-1.75694e-05
6.27046e-05
-1.81301e-05
6.58877e-05
-1.84923e-05
6.90128e-05
-1.85412e-05
7.19965e-05
-1.81416e-05
7.4735e-05
-1.71487e-05
7.71078e-05
-1.54295e-05
7.89897e-05
-1.2905e-05
8.02849e-05
-9.62543e-06
8.09854e-05
-5.85415e-06
8.12287e-05
-2.06409e-06
8.129e-05
1.23738e-06
8.14791e-05
3.64313e-06
8.1996e-05
4.93731e-06
8.2955e-05
4.98569e-06
8.42455e-05
3.96845e-06
8.50925e-05
2.65942e-06
8.43176e-05
2.37494e-06
8.02541e-05
5.54417e-06
6.95441e-05
1.89929e-05
5.54396e-05
4.02079e-05
5.58173e-05
3.38492e-06
-1.41585e-05
6.90273e-06
-1.82397e-05
9.90251e-06
-1.79285e-05
1.25287e-05
-1.71258e-05
1.49216e-05
-1.63977e-05
1.71674e-05
-1.58008e-05
1.93199e-05
-1.53283e-05
2.14154e-05
-1.49698e-05
2.34804e-05
-1.47174e-05
2.55361e-05
-1.45661e-05
2.76003e-05
-1.45123e-05
2.96886e-05
-1.45536e-05
3.18152e-05
-1.46889e-05
3.39934e-05
-1.49177e-05
3.62353e-05
-1.52403e-05
3.8552e-05
-1.56569e-05
4.09533e-05
-1.61664e-05
4.34467e-05
-1.67654e-05
4.60372e-05
-1.74458e-05
4.87256e-05
-1.81922e-05
5.15075e-05
-1.8979e-05
5.43717e-05
-1.97661e-05
5.72978e-05
-2.04956e-05
6.02551e-05
-2.10874e-05
6.31998e-05
-2.14371e-05
6.60734e-05
-2.14147e-05
6.88009e-05
-2.08691e-05
7.12909e-05
-1.96387e-05
7.34375e-05
-1.75762e-05
7.51328e-05
-1.46003e-05
7.63041e-05
-1.07968e-05
7.69865e-05
-6.53653e-06
7.73763e-05
-2.45391e-06
7.77587e-05
8.55058e-07
7.8439e-05
2.96279e-06
7.96566e-05
3.7197e-06
8.12596e-05
3.3827e-06
8.22378e-05
2.99024e-06
8.14647e-05
3.43254e-06
7.71924e-05
6.64726e-06
6.67265e-05
1.60101e-05
5.26956e-05
3.30237e-05
4.0559e-05
5.23445e-05
7.13007e-05
3.38217e-06
-1.75407e-05
6.8492e-06
-2.17068e-05
9.81048e-06
-2.08898e-05
1.24012e-05
-1.97166e-05
1.47489e-05
-1.87454e-05
1.69362e-05
-1.7988e-05
1.90181e-05
-1.74102e-05
2.10338e-05
-1.69855e-05
2.30126e-05
-1.66963e-05
2.4978e-05
-1.65315e-05
2.69491e-05
-1.64833e-05
2.89422e-05
-1.65467e-05
3.09718e-05
-1.67184e-05
3.30506e-05
-1.69965e-05
3.51899e-05
-1.73796e-05
3.73994e-05
-1.78664e-05
3.96871e-05
-1.84541e-05
4.20585e-05
-1.91367e-05
4.45159e-05
-1.99032e-05
4.70578e-05
-2.07342e-05
4.96776e-05
-2.15988e-05
5.23623e-05
-2.24508e-05
5.50912e-05
-2.32245e-05
5.78346e-05
-2.38308e-05
6.05521e-05
-2.41546e-05
6.31918e-05
-2.40544e-05
6.56884e-05
-2.33657e-05
6.79631e-05
-2.19134e-05
6.99235e-05
-1.95366e-05
7.14734e-05
-1.61502e-05
7.25581e-05
-1.18814e-05
7.32584e-05
-7.23688e-06
7.38341e-05
-3.02956e-06
7.45277e-05
1.61383e-07
7.57653e-05
1.72524e-06
7.74149e-05
2.07007e-06
7.80119e-05
2.78577e-06
7.66397e-05
4.36243e-06
7.133e-05
8.74217e-06
6.1114e-05
1.68633e-05
4.80205e-05
2.91035e-05
3.61149e-05
4.49293e-05
2.58219e-05
6.26375e-05
8.43677e-05
3.33674e-06
-2.08774e-05
6.71036e-06
-2.50804e-05
9.60799e-06
-2.37875e-05
1.21555e-05
-2.22641e-05
1.44631e-05
-2.1053e-05
1.66049e-05
-2.01298e-05
1.86332e-05
-1.94385e-05
2.05874e-05
-1.89396e-05
2.2498e-05
-1.8607e-05
2.43897e-05
-1.84231e-05
2.62824e-05
-1.83761e-05
2.81933e-05
-1.84576e-05
3.01366e-05
-1.86618e-05
3.21249e-05
-1.89848e-05
3.41687e-05
-1.94234e-05
3.62763e-05
-1.99741e-05
3.84543e-05
-2.06321e-05
4.07062e-05
-2.13887e-05
4.30326e-05
-2.22296e-05
4.54298e-05
-2.31314e-05
4.78897e-05
-2.40587e-05
5.03983e-05
-2.49594e-05
5.29352e-05
-2.57614e-05
5.54727e-05
-2.63682e-05
5.79746e-05
-2.66566e-05
6.03958e-05
-2.64756e-05
6.26807e-05
-2.56507e-05
6.47617e-05
-2.39944e-05
6.65551e-05
-2.133e-05
6.79687e-05
-1.75638e-05
6.89687e-05
-1.28814e-05
6.96967e-05
-7.9649e-06
7.04106e-05
-3.74344e-06
7.135e-05
-7.77998e-07
7.22547e-05
8.20547e-07
7.18457e-05
2.47907e-06
6.90741e-05
5.55728e-06
6.30489e-05
1.03877e-05
5.4179e-05
1.76121e-05
4.3779e-05
2.72632e-05
3.33169e-05
3.95656e-05
2.3781e-05
5.44653e-05
1.4497e-05
7.19215e-05
9.59207e-05
3.26433e-06
-2.41417e-05
6.52055e-06
-2.83366e-05
9.33858e-06
-2.66055e-05
1.18353e-05
-2.47608e-05
1.41033e-05
-2.3321e-05
1.62061e-05
-2.22326e-05
1.81913e-05
-2.14238e-05
2.00966e-05
-2.08449e-05
2.19523e-05
-2.04627e-05
2.37833e-05
-2.02541e-05
2.561e-05
-2.02028e-05
2.74496e-05
-2.02972e-05
2.93165e-05
-2.05288e-05
3.12228e-05
-2.08911e-05
3.31781e-05
-2.13787e-05
3.519e-05
-2.1986e-05
3.72633e-05
-2.27054e-05
3.94002e-05
-2.35256e-05
4.15996e-05
-2.44289e-05
4.38564e-05
-2.53882e-05
4.61612e-05
-2.63635e-05
4.84998e-05
-2.72981e-05
5.08527e-05
-2.81142e-05
5.31942e-05
-2.87098e-05
5.54929e-05
-2.89552e-05
5.77098e-05
-2.86925e-05
5.97978e-05
-2.77387e-05
6.16976e-05
-2.58942e-05
6.33274e-05
-2.29598e-05
6.45968e-05
-1.88331e-05
6.55186e-05
-1.38032e-05
6.62869e-05
-8.73319e-06
6.68399e-05
-4.29641e-06
6.68236e-05
-7.61718e-07
6.56831e-05
1.96101e-06
6.22911e-05
5.87111e-06
5.66975e-05
1.11509e-05
4.93323e-05
1.77529e-05
4.10271e-05
2.59173e-05
3.24441e-05
3.58461e-05
2.42075e-05
4.78023e-05
1.65399e-05
6.21329e-05
8.74138e-06
7.972e-05
0.000104525
3.17497e-06
-2.73167e-05
6.30178e-06
-3.14634e-05
9.03113e-06
-2.93348e-05
1.14711e-05
-2.72007e-05
1.36978e-05
-2.55477e-05
1.57643e-05
-2.42991e-05
1.77126e-05
-2.33721e-05
1.95774e-05
-2.27097e-05
2.13877e-05
-2.2273e-05
2.3168e-05
-2.20343e-05
2.49386e-05
-2.19733e-05
2.67164e-05
-2.2075e-05
2.85156e-05
-2.2328e-05
3.03477e-05
-2.27232e-05
3.22217e-05
-2.32527e-05
3.41441e-05
-2.39084e-05
3.61187e-05
-2.468e-05
3.81463e-05
-2.55532e-05
4.02245e-05
-2.65071e-05
4.23471e-05
-2.75108e-05
4.45041e-05
-2.85205e-05
4.66814e-05
-2.94753e-05
4.88604e-05
-3.02932e-05
5.10182e-05
-3.08676e-05
5.31271e-05
-3.10641e-05
5.51541e-05
-3.07195e-05
5.70589e-05
-2.96435e-05
5.87865e-05
-2.76217e-05
6.02538e-05
-2.44272e-05
6.13929e-05
-1.99722e-05
6.22867e-05
-1.4697e-05
6.29711e-05
-9.41754e-06
6.27239e-05
-4.04926e-06
6.1799e-05
1.63238e-07
5.87053e-05
5.0547e-06
5.36495e-05
1.09268e-05
4.72539e-05
1.75466e-05
4.01828e-05
2.48239e-05
3.29996e-05
3.31005e-05
2.61192e-05
4.27265e-05
1.9828e-05
5.40935e-05
1.41642e-05
6.77967e-05
8.81483e-06
8.50694e-05
0.000109239
3.12831e-06
-3.0445e-05
6.17491e-06
-3.451e-05
8.85751e-06
-3.20174e-05
1.12782e-05
-2.96214e-05
1.34999e-05
-2.77695e-05
1.55667e-05
-2.63659e-05
1.75152e-05
-2.53205e-05
1.93771e-05
-2.45717e-05
2.11802e-05
-2.40761e-05
2.2948e-05
-2.38021e-05
2.47006e-05
-2.37259e-05
2.64547e-05
-2.38291e-05
2.82242e-05
-2.40975e-05
3.00203e-05
-2.45192e-05
3.18514e-05
-2.50838e-05
3.37231e-05
-2.57801e-05
3.56383e-05
-2.65952e-05
3.75967e-05
-2.75117e-05
3.95949e-05
-2.85052e-05
4.16257e-05
-2.95417e-05
4.36788e-05
-3.05736e-05
4.57401e-05
-3.15366e-05
4.77923e-05
-3.23454e-05
4.98145e-05
-3.28898e-05
5.17824e-05
-3.3032e-05
5.36674e-05
-3.26045e-05
5.54338e-05
-3.14099e-05
5.70278e-05
-2.92157e-05
5.83742e-05
-2.57736e-05
5.94566e-05
-2.10547e-05
6.04472e-05
-1.56876e-05
6.11231e-05
-1.00934e-05
6.03471e-05
-3.27329e-06
5.78713e-05
2.63899e-06
5.34754e-05
9.45068e-06
4.77615e-05
1.66407e-05
4.14847e-05
2.38234e-05
3.51372e-05
3.11713e-05
2.91132e-05
3.91246e-05
2.37357e-05
4.8104e-05
1.92622e-05
5.8567e-05
1.59012e-05
7.11577e-05
1.40058e-05
8.69648e-05
0.000108049
3.04599e-06
-3.3491e-05
5.98087e-06
-3.74449e-05
8.58854e-06
-3.46251e-05
1.09637e-05
-3.19966e-05
1.31571e-05
-2.99629e-05
1.52043e-05
-2.84131e-05
1.71364e-05
-2.72526e-05
1.89816e-05
-2.64169e-05
2.07652e-05
-2.58598e-05
2.25095e-05
-2.55464e-05
2.42336e-05
-2.545e-05
2.59537e-05
-2.55491e-05
2.76829e-05
-2.58267e-05
2.94317e-05
-2.62681e-05
3.1208e-05
-2.68601e-05
3.30167e-05
-2.75887e-05
3.48595e-05
-2.84381e-05
3.67355e-05
-2.93877e-05
3.86403e-05
-3.04101e-05
4.05665e-05
-3.14679e-05
4.25036e-05
-3.25107e-05
4.44382e-05
-3.34712e-05
4.63544e-05
-3.42615e-05
4.82337e-05
-3.47691e-05
5.00553e-05
-3.48536e-05
5.17949e-05
-3.43441e-05
5.34209e-05
-3.30359e-05
5.48803e-05
-3.06752e-05
5.61293e-05
-2.70226e-05
5.72417e-05
-2.2167e-05
5.83606e-05
-1.68065e-05
5.85754e-05
-1.03082e-05
5.72355e-05
-1.93341e-06
5.37496e-05
6.12486e-06
4.87577e-05
1.44426e-05
4.31349e-05
2.22635e-05
3.74457e-05
2.95126e-05
3.20461e-05
3.6571e-05
2.72493e-05
4.39214e-05
2.33576e-05
5.19957e-05
2.06998e-05
6.12248e-05
1.97316e-05
7.2126e-05
2.13622e-05
8.53342e-05
0.000101348
2.95837e-06
-3.64494e-05
5.78064e-06
-4.02672e-05
8.31064e-06
-3.71551e-05
1.06359e-05
-3.43219e-05
1.27969e-05
-3.21238e-05
1.48216e-05
-3.04378e-05
1.6736e-05
-2.9167e-05
1.85648e-05
-2.82457e-05
2.03307e-05
-2.76257e-05
2.20543e-05
-2.727e-05
2.37533e-05
-2.7149e-05
2.5443e-05
-2.72388e-05
2.71358e-05
-2.75196e-05
2.88416e-05
-2.79739e-05
3.05673e-05
-2.85858e-05
3.23171e-05
-2.93385e-05
3.40922e-05
-3.02132e-05
3.58908e-05
-3.11863e-05
3.77081e-05
-3.22274e-05
3.95366e-05
-3.32963e-05
4.13659e-05
-3.434e-05
4.31837e-05
-3.5289e-05
4.49757e-05
-3.60535e-05
4.6726e-05
-3.65195e-05
4.84171e-05
-3.65447e-05
5.00289e-05
-3.5956e-05
5.15344e-05
-3.45414e-05
5.28878e-05
-3.20285e-05
5.40908e-05
-2.82256e-05
5.53649e-05
-2.34412e-05
5.69161e-05
-1.83577e-05
5.61117e-05
-9.50371e-06
5.39366e-05
2.4164e-07
4.98787e-05
1.01828e-05
4.48989e-05
1.94224e-05
3.97365e-05
2.74259e-05
3.48002e-05
3.4449e-05
3.03703e-05
4.10009e-05
2.6719e-05
4.75727e-05
2.41439e-05
5.45708e-05
2.30163e-05
6.23525e-05
2.38943e-05
7.1248e-05
2.775e-05
8.14784e-05
9.26918e-05
2.8677e-06
-3.93171e-05
5.57809e-06
-4.29776e-05
8.02881e-06
-3.96058e-05
1.03006e-05
-3.65936e-05
1.24249e-05
-3.42482e-05
1.44237e-05
-3.24366e-05
1.63183e-05
-3.10616e-05
1.81298e-05
-3.00572e-05
1.98784e-05
-2.93742e-05
2.15824e-05
-2.89741e-05
2.32585e-05
-2.8825e-05
2.49205e-05
-2.89008e-05
2.65801e-05
-2.91792e-05
2.82462e-05
-2.964e-05
2.99251e-05
-3.02647e-05
3.16202e-05
-3.10337e-05
3.33322e-05
-3.19251e-05
3.50587e-05
-3.29128e-05
3.67948e-05
-3.39635e-05
3.8533e-05
-3.50345e-05
4.02637e-05
-3.60707e-05
4.19757e-05
-3.7001e-05
4.36564e-05
-3.77343e-05
4.52926e-05
-3.81557e-05
4.687e-05
-3.81221e-05
4.83723e-05
-3.74582e-05
4.97763e-05
-3.59454e-05
5.10619e-05
-3.33142e-05
5.22739e-05
-2.94375e-05
5.36704e-05
-2.48377e-05
5.51809e-05
-1.98682e-05
5.37336e-05
-8.0564e-06
5.06304e-05
3.3449e-06
4.63242e-05
1.4489e-05
4.16577e-05
2.40889e-05
3.71155e-05
3.19681e-05
3.29741e-05
3.85904e-05
2.94595e-05
4.45155e-05
2.68098e-05
5.02224e-05
2.52987e-05
5.60819e-05
2.5276e-05
6.23752e-05
2.72432e-05
6.92808e-05
3.19464e-05
7.67751e-05
8.42492e-05
2.77551e-06
-4.20926e-05
5.37559e-06
-4.55776e-05
7.74615e-06
-4.19764e-05
9.96127e-06
-3.88087e-05
1.20452e-05
-3.63321e-05
1.40145e-05
-3.4406e-05
1.58865e-05
-3.29335e-05
1.76788e-05
-3.18495e-05
1.94092e-05
-3.11046e-05
2.1094e-05
-3.06589e-05
2.2748e-05
-3.0479e-05
2.4384e-05
-3.05369e-05
2.60126e-05
-3.08077e-05
2.76418e-05
-3.12692e-05
2.92771e-05
-3.19e-05
3.09214e-05
-3.2678e-05
3.25748e-05
-3.35785e-05
3.42347e-05
-3.45727e-05
3.58961e-05
-3.56249e-05
3.7552e-05
-3.66903e-05
3.91934e-05
-3.77122e-05
4.08107e-05
-3.86182e-05
4.23932e-05
-3.93168e-05
4.39301e-05
-3.96926e-05
4.54104e-05
-3.96023e-05
4.6821e-05
-3.88689e-05
4.81409e-05
-3.72652e-05
4.93813e-05
-3.45546e-05
5.0657e-05
-3.07132e-05
5.21357e-05
-2.63164e-05
5.21589e-05
-1.98914e-05
5.04766e-05
-6.37407e-06
4.71133e-05
6.70818e-06
4.30009e-05
1.86014e-05
3.88414e-05
2.82484e-05
3.49703e-05
3.58391e-05
3.15911e-05
4.19697e-05
2.88875e-05
4.7219e-05
2.70601e-05
5.20499e-05
2.63404e-05
5.68015e-05
2.70183e-05
6.16973e-05
2.94793e-05
6.68198e-05
3.42298e-05
7.20246e-05
7.66912e-05
2.68276e-06
-4.47754e-05
5.17445e-06
-4.80693e-05
7.4644e-06
-4.42663e-05
9.62029e-06
-4.09646e-05
1.16602e-05
-3.8372e-05
1.35964e-05
-3.63421e-05
1.54425e-05
-3.47796e-05
1.72133e-05
-3.36204e-05
1.89239e-05
-3.28152e-05
2.05887e-05
-3.23236e-05
2.22207e-05
-3.21111e-05
2.38316e-05
-3.21477e-05
2.54306e-05
-3.24067e-05
2.7025e-05
-3.28636e-05
2.86195e-05
-3.34946e-05
3.02164e-05
-3.42749e-05
3.18155e-05
-3.51776e-05
3.3414e-05
-3.61712e-05
3.50071e-05
-3.7218e-05
3.65883e-05
-3.82715e-05
3.81497e-05
-3.92736e-05
3.9683e-05
-4.01515e-05
4.11796e-05
-4.08133e-05
4.26308e-05
-4.11439e-05
4.40286e-05
-4.10002e-05
4.53633e-05
-4.02035e-05
4.66163e-05
-3.85182e-05
4.7821e-05
-3.57593e-05
4.91737e-05
-3.20659e-05
5.09365e-05
-2.80792e-05
4.95117e-05
-1.84666e-05
4.72377e-05
-4.10011e-06
4.37531e-05
1.01928e-05
3.99643e-05
2.23902e-05
3.63482e-05
3.18645e-05
3.31188e-05
3.90686e-05
3.04212e-05
4.46673e-05
2.83989e-05
4.92413e-05
2.72104e-05
5.32384e-05
2.70375e-05
5.69744e-05
2.80992e-05
6.06357e-05
3.06654e-05
6.42536e-05
3.50488e-05
6.76412e-05
7.02518e-05
2.58998e-06
-4.73653e-05
4.9753e-06
-5.04547e-05
7.18445e-06
-4.64755e-05
9.27888e-06
-4.30591e-05
1.12715e-05
-4.03646e-05
1.31709e-05
-3.82416e-05
1.49878e-05
-3.65965e-05
1.67342e-05
-3.53668e-05
1.84228e-05
-3.45039e-05
2.00661e-05
-3.3967e-05
2.16756e-05
-3.37206e-05
2.32613e-05
-3.37334e-05
2.48316e-05
-3.3977e-05
2.63927e-05
-3.44247e-05
2.79486e-05
-3.50505e-05
2.95011e-05
-3.58274e-05
3.10497e-05
-3.67262e-05
3.25917e-05
-3.77132e-05
3.41225e-05
-3.87488e-05
3.56362e-05
-3.97852e-05
3.71262e-05
-4.07636e-05
3.85853e-05
-4.16106e-05
4.00065e-05
-4.22345e-05
4.13833e-05
-4.25206e-05
4.27095e-05
-4.23264e-05
4.39785e-05
-4.14725e-05
4.51831e-05
-3.97228e-05
4.63673e-05
-3.69435e-05
4.77369e-05
-3.34355e-05
4.94625e-05
-2.98049e-05
4.74228e-05
-1.64269e-05
4.42804e-05
-9.57673e-07
4.06774e-05
1.37957e-05
3.72144e-05
2.58533e-05
3.4106e-05
3.49729e-05
3.14487e-05
4.17259e-05
2.9332e-05
4.6784e-05
2.78581e-05
5.07153e-05
2.71429e-05
5.39536e-05
2.73185e-05
5.67988e-05
2.85377e-05
5.94165e-05
3.09726e-05
6.18187e-05
3.47909e-05
6.38229e-05
6.49804e-05
2.49744e-06
-4.98628e-05
4.77833e-06
-5.27355e-05
6.90658e-06
-4.86037e-05
8.93761e-06
-4.50901e-05
1.08799e-05
-4.23069e-05
1.27391e-05
-4.01008e-05
1.45233e-05
-3.83806e-05
1.62422e-05
-3.70856e-05
1.79063e-05
-3.6168e-05
1.95262e-05
-3.55869e-05
2.11119e-05
-3.53062e-05
2.26719e-05
-3.52935e-05
2.42136e-05
-3.55187e-05
2.57422e-05
-3.59534e-05
2.72613e-05
-3.65695e-05
2.87719e-05
-3.73381e-05
3.02734e-05
-3.82277e-05
3.17632e-05
-3.92029e-05
3.3237e-05
-4.02227e-05
3.46898e-05
-4.1238e-05
3.61157e-05
-4.21895e-05
3.75089e-05
-4.30038e-05
3.88637e-05
-4.35893e-05
4.01747e-05
-4.38316e-05
4.14364e-05
-4.35881e-05
4.26425e-05
-4.26786e-05
4.38013e-05
-4.08816e-05
4.49685e-05
-3.81107e-05
4.62588e-05
-3.47257e-05
4.69446e-05
-3.04907e-05
4.45484e-05
-1.40307e-05
4.11879e-05
2.4028e-06
3.77629e-05
1.72206e-05
3.46864e-05
2.89298e-05
3.20509e-05
3.76084e-05
2.98906e-05
4.38862e-05
2.8254e-05
4.84205e-05
2.7207e-05
5.17623e-05
2.68275e-05
5.4333e-05
2.72041e-05
5.64222e-05
2.84348e-05
5.81857e-05
3.06182e-05
5.96353e-05
3.38253e-05
6.06158e-05
6.0776e-05
2.40524e-06
-5.2268e-05
4.58342e-06
-5.49137e-05
6.63071e-06
-5.0651e-05
8.59661e-06
-4.7056e-05
1.04859e-05
-4.41962e-05
1.23016e-05
-4.19166e-05
1.40497e-05
-4.01287e-05
1.57378e-05
-3.87737e-05
1.73746e-05
-3.78048e-05
1.89689e-05
-3.71812e-05
2.0529e-05
-3.68664e-05
2.20624e-05
-3.68269e-05
2.35751e-05
-3.70314e-05
2.50718e-05
-3.745e-05
2.6555e-05
-3.80527e-05
2.80257e-05
-3.88088e-05
2.94829e-05
-3.96849e-05
3.09241e-05
-4.06441e-05
3.23456e-05
-4.16441e-05
3.37428e-05
-4.26352e-05
3.51109e-05
-4.35576e-05
3.6445e-05
-4.43379e-05
3.77404e-05
-4.48847e-05
3.89921e-05
-4.50834e-05
4.01945e-05
-4.47905e-05
4.13387e-05
-4.38228e-05
4.24449e-05
-4.19879e-05
4.35886e-05
-3.92543e-05
4.48174e-05
-3.59546e-05
4.38059e-05
-2.94792e-05
4.12996e-05
-1.15243e-05
3.81003e-05
5.60202e-06
3.50205e-05
2.03005e-05
3.23541e-05
3.15962e-05
3.01467e-05
3.98157e-05
2.84067e-05
4.56262e-05
2.71566e-05
4.96706e-05
2.6433e-05
5.2486e-05
2.62823e-05
5.44837e-05
2.67583e-05
5.59462e-05
2.7918e-05
5.7026e-05
2.98096e-05
5.77437e-05
3.24456e-05
5.79798e-05
5.74702e-05
2.31335e-06
-5.45814e-05
4.39028e-06
-5.69906e-05
6.3565e-06
-5.26173e-05
8.25569e-06
-4.89552e-05
1.00894e-05
-4.60298e-05
1.18586e-05
-4.36858e-05
1.35673e-05
-4.18374e-05
1.52215e-05
-4.04279e-05
1.6828e-05
-3.94113e-05
1.83941e-05
-3.87473e-05
1.99268e-05
-3.8399e-05
2.14321e-05
-3.83322e-05
2.29152e-05
-3.85145e-05
2.43797e-05
-3.89145e-05
2.58278e-05
-3.95009e-05
2.726e-05
-4.02409e-05
2.86751e-05
-4.11e-05
3.00708e-05
-4.20398e-05
3.14437e-05
-4.3017e-05
3.27898e-05
-4.39814e-05
3.41051e-05
-4.48728e-05
3.53853e-05
-4.5618e-05
3.66262e-05
-4.61256e-05
3.78235e-05
-4.62807e-05
3.89707e-05
-4.59377e-05
4.00558e-05
-4.49079e-05
4.11059e-05
-4.3038e-05
4.223e-05
-4.03784e-05
4.35909e-05
-3.73155e-05
4.11386e-05
-2.70269e-05
3.83862e-05
-8.77183e-06
3.53079e-05
8.68031e-06
3.25321e-05
2.30763e-05
3.02205e-05
3.39079e-05
2.83733e-05
4.16629e-05
2.69768e-05
4.70227e-05
2.60304e-05
5.06171e-05
2.5546e-05
5.29703e-05
2.55453e-05
5.44845e-05
2.60556e-05
5.54359e-05
2.7105e-05
5.59766e-05
2.87098e-05
5.61389e-05
3.08473e-05
5.58423e-05
5.48913e-05
2.22164e-06
-5.6803e-05
4.1985e-06
-5.89675e-05
6.08344e-06
-5.45022e-05
7.91446e-06
-5.07862e-05
9.69022e-06
-4.78056e-05
1.14101e-05
-4.54057e-05
1.30764e-05
-4.35038e-05
1.46936e-05
-4.2045e-05
1.62669e-05
-4.09846e-05
1.78022e-05
-4.02826e-05
1.93052e-05
-3.99019e-05
2.07808e-05
-3.98078e-05
2.22331e-05
-3.99669e-05
2.36652e-05
-4.03466e-05
2.50783e-05
-4.09141e-05
2.64728e-05
-4.16354e-05
2.78474e-05
-4.24746e-05
2.91999e-05
-4.33923e-05
3.05271e-05
-4.43442e-05
3.18256e-05
-4.52799e-05
3.30918e-05
-4.6139e-05
3.43217e-05
-4.6848e-05
3.55114e-05
-4.73153e-05
3.66565e-05
-4.74258e-05
3.77508e-05
-4.7032e-05
3.87831e-05
-4.59402e-05
3.97775e-05
-4.40324e-05
4.0843e-05
-4.14438e-05
4.21183e-05
-3.85908e-05
3.92326e-05
-2.41412e-05
3.59642e-05
-5.50345e-06
3.28619e-05
1.17826e-05
3.02915e-05
2.56466e-05
2.82603e-05
3.59391e-05
2.67066e-05
4.32165e-05
2.5586e-05
4.81433e-05
2.48748e-05
5.13283e-05
2.45647e-05
5.32804e-05
2.46583e-05
5.43909e-05
2.51643e-05
5.49298e-05
2.60911e-05
5.50498e-05
2.74346e-05
5.47954e-05
2.91604e-05
5.41166e-05
3.11668e-05
5.28848e-05
5.09232e-05
2.1299e-06
-5.89329e-05
4.00754e-06
-6.08451e-05
5.81089e-06
-5.63056e-05
7.57235e-06
-5.25476e-05
9.28809e-06
-4.95213e-05
1.0956e-05
-4.70736e-05
1.2577e-05
-4.51248e-05
1.41542e-05
-4.36222e-05
1.56915e-05
-4.25219e-05
1.71934e-05
-4.17845e-05
1.86644e-05
-4.13729e-05
2.01085e-05
-4.12518e-05
2.15288e-05
-4.13872e-05
2.29275e-05
-4.17453e-05
2.43056e-05
-4.22922e-05
2.56629e-05
-4.29927e-05
2.6998e-05
-4.38098e-05
2.83088e-05
-4.47031e-05
2.95925e-05
-4.56279e-05
3.0846e-05
-4.65333e-05
3.20657e-05
-4.73587e-05
3.32479e-05
-4.80302e-05
3.43882e-05
-4.84556e-05
3.54812e-05
-4.85188e-05
3.65202e-05
-4.80711e-05
3.74996e-05
-4.69196e-05
3.84392e-05
-4.49719e-05
3.93885e-05
-4.23931e-05
4.0062e-05
-3.92644e-05
3.70496e-05
-2.11288e-05
3.3569e-05
-2.02285e-06
3.05578e-05
1.47939e-05
2.82029e-05
2.80015e-05
2.64228e-05
3.77192e-05
2.51179e-05
4.45214e-05
2.4221e-05
4.90402e-05
2.36921e-05
5.18573e-05
2.35083e-05
5.34641e-05
2.36591e-05
5.42401e-05
2.41406e-05
5.44483e-05
2.49486e-05
5.42418e-05
2.60678e-05
5.36763e-05
2.74565e-05
5.27279e-05
2.90254e-05
5.13159e-05
4.93245e-05
2.03788e-06
-6.09708e-05
3.81683e-06
-6.26241e-05
5.53815e-06
-5.80269e-05
7.2287e-06
-5.42382e-05
8.88243e-06
-5.11751e-05
1.04959e-05
-4.86871e-05
1.2069e-05
-4.66979e-05
1.36034e-05
-4.51566e-05
1.51019e-05
-4.40205e-05
1.65679e-05
-4.32505e-05
1.80047e-05
-4.28097e-05
1.94153e-05
-4.26624e-05
2.08021e-05
-4.27739e-05
2.21665e-05
-4.31097e-05
2.3509e-05
-4.36347e-05
2.48291e-05
-4.43128e-05
2.61253e-05
-4.5106e-05
2.73956e-05
-4.59734e-05
2.86373e-05
-4.68696e-05
2.98475e-05
-4.77435e-05
3.10227e-05
-4.8534e-05
3.2159e-05
-4.91665e-05
3.32511e-05
-4.95477e-05
3.4292e-05
-4.95598e-05
3.52734e-05
-4.90524e-05
3.61957e-05
-4.78419e-05
3.70835e-05
-4.58598e-05
3.79269e-05
-4.32365e-05
3.74881e-05
-3.88255e-05
3.43021e-05
-1.79428e-05
3.10082e-05
1.27098e-06
2.82824e-05
1.75197e-05
2.62038e-05
3.00801e-05
2.46722e-05
3.92508e-05
2.35855e-05
4.56081e-05
2.28725e-05
4.97532e-05
2.24857e-05
5.22441e-05
2.2394e-05
5.35558e-05
2.25784e-05
5.40558e-05
2.3027e-05
5.39997e-05
2.37286e-05
5.35403e-05
2.46621e-05
5.27427e-05
2.57858e-05
5.16042e-05
2.70238e-05
5.0078e-05
4.80965e-05
1.94531e-06
-6.29161e-05
3.62576e-06
-6.43045e-05
5.26443e-06
-5.96655e-05
6.88273e-06
-5.58565e-05
8.47258e-06
-5.27649e-05
1.00295e-05
-5.02439e-05
1.15521e-05
-4.82205e-05
1.30412e-05
-4.66456e-05
1.44984e-05
-4.54777e-05
1.5926e-05
-4.46781e-05
1.73264e-05
-4.42101e-05
1.87016e-05
-4.40376e-05
2.00532e-05
-4.41255e-05
2.13821e-05
-4.44385e-05
2.26882e-05
-4.49408e-05
2.39708e-05
-4.55954e-05
2.52284e-05
-4.63636e-05
2.64587e-05
-4.72037e-05
2.76594e-05
-4.80703e-05
2.88275e-05
-4.89116e-05
2.99596e-05
-4.96661e-05
3.10513e-05
-5.02582e-05
3.20967e-05
-5.0593e-05
3.30866e-05
-5.05497e-05
3.40095e-05
-4.99753e-05
3.48726e-05
-4.8705e-05
3.57155e-05
-4.67026e-05
3.65535e-05
-4.40745e-05
3.43452e-05
-3.66173e-05
3.13489e-05
-1.49465e-05
2.84505e-05
4.16938e-06
2.60936e-05
1.98766e-05
2.43029e-05
3.18708e-05
2.29984e-05
4.05553e-05
2.20977e-05
4.65089e-05
2.15346e-05
5.03163e-05
2.1259e-05
5.25197e-05
2.12351e-05
5.35796e-05
2.1439e-05
5.38519e-05
2.18541e-05
5.35846e-05
2.2465e-05
5.29293e-05
2.32491e-05
5.19587e-05
2.41673e-05
5.0686e-05
2.51562e-05
4.90891e-05
4.71322e-05
1.85192e-06
-6.4768e-05
3.4337e-06
-6.58863e-05
4.9889e-06
-6.12207e-05
6.53355e-06
-5.74011e-05
8.05776e-06
-5.42891e-05
9.55597e-06
-5.17421e-05
1.1026e-05
-4.96905e-05
1.24674e-05
-4.80871e-05
1.38809e-05
-4.68912e-05
1.52679e-05
-4.60651e-05
1.66296e-05
-4.55719e-05
1.79675e-05
-4.53755e-05
1.92823e-05
-4.54403e-05
2.05743e-05
-4.57306e-05
2.18432e-05
-4.62097e-05
2.30878e-05
-4.684e-05
2.43064e-05
-4.75822e-05
2.54971e-05
-4.83943e-05
2.66572e-05
-4.92304e-05
2.7784e-05
-5.00384e-05
2.88739e-05
-5.0756e-05
2.99222e-05
-5.13065e-05
3.09223e-05
-5.15931e-05
3.18638e-05
-5.14912e-05
3.27314e-05
-5.0843e-05
3.35354e-05
-4.9509e-05
3.43267e-05
-4.74939e-05
3.52416e-05
-4.49895e-05
3.1744e-05
-3.31196e-05
2.88364e-05
-1.20389e-05
2.6207e-05
6.79872e-06
2.41032e-05
2.19804e-05
2.25247e-05
3.34493e-05
2.13977e-05
4.16822e-05
2.06459e-05
4.72607e-05
2.02023e-05
5.07598e-05
2.00138e-05
5.27083e-05
2.0041e-05
5.35524e-05
2.02568e-05
5.3636e-05
2.06421e-05
5.31993e-05
2.11794e-05
5.2392e-05
2.18464e-05
5.12917e-05
2.26081e-05
4.99243e-05
2.34124e-05
4.82849e-05
4.63579e-05
1.75744e-06
-6.65255e-05
3.23993e-06
-6.73688e-05
4.71059e-06
-6.26914e-05
6.18014e-06
-5.88707e-05
7.63702e-06
-5.5746e-05
9.07469e-06
-5.31798e-05
1.049e-05
-5.11059e-05
1.18817e-05
-4.94787e-05
1.32494e-05
-4.8259e-05
1.45935e-05
-4.74093e-05
1.59147e-05
-4.6893e-05
1.72133e-05
-4.66741e-05
1.84897e-05
-4.67167e-05
1.97435e-05
-4.69843e-05
2.09739e-05
-4.74401e-05
2.21797e-05
-4.80458e-05
2.3359e-05
-4.87616e-05
2.45098e-05
-4.95451e-05
2.56296e-05
-5.03503e-05
2.67155e-05
-5.11242e-05
2.77636e-05
-5.18041e-05
2.8769e-05
-5.23119e-05
2.97245e-05
-5.25486e-05
3.062e-05
-5.23867e-05
3.14391e-05
-5.16621e-05
3.21902e-05
-5.02601e-05
3.29175e-05
-4.82211e-05
3.37162e-05
-4.57883e-05
3.01075e-05
-2.95108e-05
2.69494e-05
-8.88084e-06
2.43085e-05
9.43967e-06
2.22978e-05
2.39911e-05
2.08468e-05
3.49003e-05
1.98506e-05
4.26785e-05
1.92163e-05
4.78949e-05
1.88685e-05
5.11076e-05
1.87492e-05
5.28275e-05
1.88166e-05
5.34851e-05
1.90413e-05
5.34113e-05
1.94027e-05
5.28379e-05
1.98829e-05
5.19118e-05
2.04606e-05
5.07141e-05
2.11053e-05
4.92795e-05
2.17745e-05
4.76157e-05
4.57202e-05
1.66155e-06
-6.8187e-05
3.0436e-06
-6.87509e-05
4.42836e-06
-6.40762e-05
5.82129e-06
-6.02636e-05
7.20923e-06
-5.71339e-05
8.58468e-06
-5.45553e-05
9.94354e-06
-5.24647e-05
1.12836e-05
-5.08187e-05
1.26036e-05
-4.9579e-05
1.3903e-05
-4.87087e-05
1.51817e-05
-4.81716e-05
1.64393e-05
-4.79318e-05
1.76755e-05
-4.79529e-05
1.88896e-05
-4.81984e-05
2.00804e-05
-4.86309e-05
2.12464e-05
-4.92118e-05
2.23858e-05
-4.9901e-05
2.34965e-05
-5.06558e-05
2.45759e-05
-5.14297e-05
2.56209e-05
-5.21692e-05
2.66274e-05
-5.28106e-05
2.75896e-05
-5.32741e-05
2.84999e-05
-5.34589e-05
2.93481e-05
-5.32349e-05
3.01209e-05
-5.24348e-05
3.08215e-05
-5.09607e-05
3.1462e-05
-4.88616e-05
3.18822e-05
-4.62085e-05
2.85287e-05
-2.61573e-05
2.51469e-05
-5.49905e-06
2.24785e-05
1.21081e-05
2.05442e-05
2.59253e-05
1.92056e-05
3.6239e-05
1.8324e-05
4.356e-05
1.77907e-05
4.84283e-05
1.75237e-05
5.13746e-05
1.74624e-05
5.28888e-05
1.75635e-05
5.33841e-05
1.77969e-05
5.31778e-05
1.81416e-05
5.24932e-05
1.85797e-05
5.14737e-05
1.90913e-05
5.02024e-05
1.96504e-05
4.87204e-05
2.02222e-05
4.70439e-05
4.51794e-05
1.56384e-06
-6.97508e-05
2.84362e-06
-7.00306e-05
4.14077e-06
-6.53733e-05
5.4555e-06
-6.15783e-05
6.773e-06
-5.84514e-05
8.08476e-06
-5.5867e-05
9.38567e-06
-5.37656e-05