/*--------------------------------*- C++ -*----------------------------------*\
| =========                 |                                                 |
| \\      /  F ield         | OpenFOAM: The Open Source CFD Toolbox           |
|  \\    /   O peration     | Version:  5.0                                   |
|   \\  /    A nd           | Web:      www.OpenFOAM.org                      |
|    \\/     M anipulation  |                                                 |
\*---------------------------------------------------------------------------*/
FoamFile
{
    version     2.0;
    format      ascii;
    class       volVectorField;
    location    "0.15";
    object      U;
}
// * * * * * * * * * * * * * * * * * * * * * * * * * * * * * * * * * * * * * //

dimensions      [0 1 -1 0 0 0 0];

internalField   nonuniform List<vector> 
1935
(
(-0.00830414 0.00362179 0)
(0.00842011 -0.0136775 0)
(0.0504441 -0.023103 0)
(0.096777 -0.0255496 0)
(0.144313 -0.025358 0)
(0.191325 -0.0244579 0)
(0.237005 -0.0234449 0)
(0.281227 -0.0224939 0)
(0.324166 -0.0216633 0)
(0.36607 -0.0209719 0)
(0.407198 -0.020423 0)
(0.44781 -0.0200149 0)
(0.488171 -0.0197451 0)
(0.528546 -0.0196127 0)
(0.56921 -0.0196189 0)
(0.610447 -0.0197681 0)
(0.652555 -0.0200668 0)
(0.695849 -0.0205236 0)
(0.740658 -0.0211472 0)
(0.787316 -0.021943 0)
(0.836145 -0.0229079 0)
(0.887425 -0.0240237 0)
(0.941343 -0.0252473 0)
(0.997931 -0.0265007 0)
(1.05698 -0.0276602 0)
(1.11793 -0.0285508 0)
(1.1798 -0.0289532 0)
(1.24107 -0.0286145 0)
(1.29966 -0.0272314 0)
(1.35289 -0.0245849 0)
(1.39753 -0.0208095 0)
(1.43141 -0.0146473 0)
(1.44949 -0.00263593 0)
(1.43894 0.0116905 0)
(1.40279 0.024439 0)
(1.35031 0.0317787 0)
(1.2925 0.0318481 0)
(1.23935 0.0262048 0)
(1.19732 0.0184177 0)
(1.16785 0.0114799 0)
(1.14669 0.00245286 0)
(1.13 -0.0231594 0)
(1.12682 -0.0684837 0)
(1.13169 -0.096519 0)
(0.0112038 -0.00360294 0)
(0.0414818 -0.0344336 0)
(0.083475 -0.049231 0)
(0.126507 -0.0534275 0)
(0.169068 -0.053515 0)
(0.210874 -0.0523191 0)
(0.251694 -0.0508283 0)
(0.291507 -0.0494036 0)
(0.330455 -0.0481884 0)
(0.368742 -0.0472389 0)
(0.406591 -0.0465757 0)
(0.444232 -0.0462071 0)
(0.481904 -0.0461392 0)
(0.519849 -0.0463798 0)
(0.55832 -0.0469407 0)
(0.597577 -0.0478375 0)
(0.637892 -0.0490878 0)
(0.679545 -0.0507083 0)
(0.722815 -0.0527077 0)
(0.767975 -0.0550776 0)
(0.815259 -0.0577793 0)
(0.864837 -0.0607267 0)
(0.916763 -0.0637664 0)
(0.970915 -0.0666576 0)
(1.02693 -0.0690538 0)
(1.08411 -0.0704959 0)
(1.14136 -0.0704234 0)
(1.19712 -0.0682124 0)
(1.24938 -0.0632331 0)
(1.29575 -0.0549969 0)
(1.33373 -0.0433457 0)
(1.36082 -0.0276545 0)
(1.37733 -0.00682277 0)
(1.39029 0.0160833 0)
(1.39514 0.0368581 0)
(1.38712 0.0510571 0)
(1.36589 0.0559008 0)
(1.33647 0.0512314 0)
(1.3074 0.0392305 0)
(1.28725 0.0247187 0)
(1.27953 0.0154882 0)
(1.27935 0.0159219 0)
(1.2485 0.0203985 0)
(1.18778 0.0809613 0)
(0.0222872 -0.0307238 0)
(0.0602328 -0.0665608 0)
(0.10337 -0.0801482 0)
(0.144423 -0.0833844 0)
(0.18357 -0.0827317 0)
(0.221585 -0.0808524 0)
(0.25869 -0.0787465 0)
(0.295011 -0.0768076 0)
(0.330724 -0.0752023 0)
(0.366031 -0.0740026 0)
(0.401137 -0.07324 0)
(0.436256 -0.0729298 0)
(0.471606 -0.0730834 0)
(0.50741 -0.0737145 0)
(0.543899 -0.0748404 0)
(0.581305 -0.0764823 0)
(0.619866 -0.0786617 0)
(0.65982 -0.0813945 0)
(0.701392 -0.0846802 0)
(0.744783 -0.0884877 0)
(0.790144 -0.0927352 0)
(0.837543 -0.0972654 0)
(0.886926 -0.101818 0)
(0.938062 -0.106001 0)
(0.990482 -0.109269 0)
(1.04342 -0.110911 0)
(1.09575 -0.110073 0)
(1.14595 -0.105811 0)
(1.19211 -0.0972163 0)
(1.232 -0.083634 0)
(1.2633 -0.064986 0)
(1.28394 -0.0421045 0)
(1.29361 -0.0167346 0)
(1.29486 0.0103672 0)
(1.29083 0.0361022 0)
(1.28373 0.0558032 0)
(1.27521 0.065033 0)
(1.26717 0.0614609 0)
(1.2623 0.0470651 0)
(1.26203 0.0281385 0)
(1.26688 0.0137696 0)
(1.27352 0.0173173 0)
(1.20875 0.0400047 0)
(1.00985 0.0848788 0)
(0.0264637 -0.062998 0)
(0.0695579 -0.102369 0)
(0.114528 -0.112365 0)
(0.154958 -0.113133 0)
(0.192159 -0.110997 0)
(0.227659 -0.108116 0)
(0.262078 -0.105284 0)
(0.295733 -0.102821 0)
(0.328886 -0.100867 0)
(0.361769 -0.0994834 0)
(0.394598 -0.0986994 0)
(0.427584 -0.0985296 0)
(0.460934 -0.0989859 0)
(0.494858 -0.100083 0)
(0.529563 -0.101841 0)
(0.56526 -0.10428 0)
(0.602152 -0.10742 0)
(0.640436 -0.11127 0)
(0.680287 -0.11581 0)
(0.721845 -0.120977 0)
(0.765189 -0.126638 0)
(0.810314 -0.132556 0)
(0.857084 -0.138359 0)
(0.905199 -0.143507 0)
(0.954137 -0.147259 0)
(1.00311 -0.148674 0)
(1.05101 -0.146626 0)
(1.09639 -0.139893 0)
(1.13747 -0.12732 0)
(1.17221 -0.108132 0)
(1.19858 -0.0824125 0)
(1.21508 -0.0516146 0)
(1.22179 -0.0185379 0)
(1.22112 0.0135156 0)
(1.21715 0.0405619 0)
(1.21413 0.0586658 0)
(1.21507 0.0653123 0)
(1.22064 0.0605385 0)
(1.2302 0.0462962 0)
(1.24201 0.0260536 0)
(1.2481 0.00749203 0)
(1.22355 0.045054 0)
(1.09276 0.202393 0)
(0.816047 0.261318 0)
(0.0279256 -0.0982127 0)
(0.0735953 -0.139898 0)
(0.11969 -0.144863 0)
(0.159923 -0.142176 0)
(0.196066 -0.138023 0)
(0.229974 -0.133905 0)
(0.26252 -0.130279 0)
(0.294191 -0.12731 0)
(0.325342 -0.125067 0)
(0.356259 -0.123581 0)
(0.387182 -0.122863 0)
(0.418332 -0.122919 0)
(0.449917 -0.123759 0)
(0.482135 -0.125392 0)
(0.515181 -0.127837 0)
(0.54924 -0.131111 0)
(0.584488 -0.135225 0)
(0.621082 -0.140173 0)
(0.659156 -0.145913 0)
(0.698795 -0.152343 0)
(0.740026 -0.159272 0)
(0.782782 -0.166382 0)
(0.826878 -0.173194 0)
(0.871972 -0.179023 0)
(0.917527 -0.182957 0)
(0.962771 -0.183843 0)
(1.00666 -0.180325 0)
(1.04786 -0.170939 0)
(1.08476 -0.154329 0)
(1.11556 -0.129654 0)
(1.13851 -0.0972595 0)
(1.15259 -0.0594813 0)
(1.15858 -0.0207222 0)
(1.15953 0.013833 0)
(1.16013 0.0399245 0)
(1.16468 0.0560692 0)
(1.17531 0.0618679 0)
(1.19233 0.0568492 0)
(1.21258 0.0395226 0)
(1.21836 0.0170429 0)
(1.18542 0.0221961 0)
(1.10029 0.128753 0)
(0.909972 0.365356 0)
(0.682615 0.505299 0)
(0.0283408 -0.134598 0)
(0.0748106 -0.177989 0)
(0.121054 -0.177383 0)
(0.160985 -0.170727 0)
(0.196457 -0.164157 0)
(0.22933 -0.158547 0)
(0.260575 -0.153984 0)
(0.290784 -0.150447 0)
(0.32039 -0.147903 0)
(0.349726 -0.14633 0)
(0.379064 -0.145708 0)
(0.40864 -0.146027 0)
(0.438666 -0.147282 0)
(0.469336 -0.149477 0)
(0.500833 -0.15262 0)
(0.533322 -0.15672 0)
(0.566954 -0.161777 0)
(0.601855 -0.167763 0)
(0.638116 -0.174607 0)
(0.675784 -0.182167 0)
(0.714838 -0.190193 0)
(0.755171 -0.198289 0)
(0.796565 -0.205875 0)
(0.838663 -0.212142 0)
(0.880938 -0.216024 0)
(0.922667 -0.216194 0)
(0.962903 -0.2111 0)
(1.00046 -0.199079 0)
(1.03393 -0.178615 0)
(1.06173 -0.148832 0)
(1.08234 -0.110445 0)
(1.09508 -0.0669873 0)
(1.10151 -0.0246926 0)
(1.10574 0.0107112 0)
(1.11274 0.0366477 0)
(1.12645 0.0525367 0)
(1.14838 0.0561042 0)
(1.17269 0.0442178 0)
(1.17597 0.0249776 0)
(1.14707 0.0302092 0)
(1.05222 0.0892893 0)
(0.852708 0.279414 0)
(0.669257 0.509059 0)
(0.507649 0.706134 0)
(0.0282156 -0.17123 0)
(0.0744193 -0.215807 0)
(0.120048 -0.209622 0)
(0.159437 -0.198898 0)
(0.194357 -0.18972 0)
(0.226495 -0.182429 0)
(0.256809 -0.176785 0)
(0.285934 -0.172579 0)
(0.314348 -0.169675 0)
(0.342418 -0.167983 0)
(0.370443 -0.167443 0)
(0.398674 -0.168016 0)
(0.427329 -0.169681 0)
(0.4566 -0.172425 0)
(0.48666 -0.176244 0)
(0.517658 -0.181133 0)
(0.549721 -0.187071 0)
(0.582948 -0.19401 0)
(0.617398 -0.201846 0)
(0.65308 -0.210392 0)
(0.68994 -0.219343 0)
(0.727841 -0.22823 0)
(0.766549 -0.236384 0)
(0.805706 -0.242889 0)
(0.84482 -0.246554 0)
(0.883234 -0.245906 0)
(0.920117 -0.239237 0)
(0.95445 -0.224724 0)
(0.985031 -0.200708 0)
(1.01044 -0.166288 0)
(1.02915 -0.122673 0)
(1.04072 -0.0748086 0)
(1.04825 -0.0299718 0)
(1.05721 0.00653276 0)
(1.07173 0.0327263 0)
(1.09485 0.0450005 0)
(1.11587 0.0338706 0)
(1.10983 0.0241186 0)
(1.07452 0.0434984 0)
(0.962164 0.107301 0)
(0.777851 0.247166 0)
(0.595885 0.431079 0)
(0.44523 0.627852 0)
(0.30845 0.85136 0)
(0.0277672 -0.207545 0)
(0.0730649 -0.252782 0)
(0.117577 -0.241278 0)
(0.156206 -0.22664 0)
(0.190573 -0.214833 0)
(0.22212 -0.205763 0)
(0.251728 -0.198928 0)
(0.280029 -0.193961 0)
(0.307512 -0.190622 0)
(0.334565 -0.188755 0)
(0.361503 -0.188255 0)
(0.388587 -0.189049 0)
(0.41604 -0.19109 0)
(0.444053 -0.194346 0)
(0.472788 -0.198795 0)
(0.502382 -0.204411 0)
(0.532942 -0.211153 0)
(0.564541 -0.218945 0)
(0.597211 -0.227648 0)
(0.630932 -0.237034 0)
(0.665623 -0.246741 0)
(0.701129 -0.256239 0)
(0.737208 -0.264779 0)
(0.773517 -0.271358 0)
(0.809607 -0.274684 0)
(0.844898 -0.273173 0)
(0.878676 -0.264991 0)
(0.910088 -0.248182 0)
(0.938115 -0.220931 0)
(0.961306 -0.182288 0)
(0.977733 -0.134065 0)
(0.988107 -0.082216 0)
(0.998214 -0.0349927 0)
(1.01247 0.00158441 0)
(1.03102 0.0231128 0)
(1.03282 0.0101424 0)
(1.01382 0.0210342 0)
(0.95487 0.0596882 0)
(0.842924 0.136692 0)
(0.701996 0.247441 0)
(0.548894 0.381668 0)
(0.405283 0.543983 0)
(0.277496 0.731106 0)
(0.145756 0.980321 0)
(0.0271202 -0.243194 0)
(0.0711299 -0.288579 0)
(0.11423 -0.272137 0)
(0.151938 -0.253868 0)
(0.185706 -0.23952 0)
(0.216718 -0.228652 0)
(0.24575 -0.220562 0)
(0.273396 -0.214757 0)
(0.300138 -0.210913 0)
(0.326364 -0.20881 0)
(0.352397 -0.208293 0)
(0.378501 -0.209257 0)
(0.404901 -0.211623 0)
(0.431785 -0.215336 0)
(0.459307 -0.220351 0)
(0.487591 -0.22662 0)
(0.516725 -0.234075 0)
(0.546763 -0.24261 0)
(0.577712 -0.252052 0)
(0.60953 -0.262129 0)
(0.642117 -0.272431 0)
(0.675303 -0.282371 0)
(0.708851 -0.291136 0)
(0.74244 -0.297652 0)
(0.775664 -0.300549 0)
(0.808021 -0.298157 0)
(0.838907 -0.288545 0)
(0.867621 -0.269626 0)
(0.893252 -0.239379 0)
(0.913908 -0.196757 0)
(0.927487 -0.144094 0)
(0.938139 -0.0890789 0)
(0.951282 -0.0402143 0)
(0.964504 -0.00572541 0)
(0.946778 -0.00586207 0)
(0.91973 0.0276919 0)
(0.85637 0.0819607 0)
(0.761569 0.152629 0)
(0.647172 0.240272 0)
(0.524498 0.347248 0)
(0.402533 0.477631 0)
(0.290235 0.634497 0)
(0.184794 0.823915 0)
(0.0671706 1.09008 0)
(0.0263533 -0.277954 0)
(0.0688567 -0.323025 0)
(0.110386 -0.302075 0)
(0.14707 -0.280511 0)
(0.180183 -0.263773 0)
(0.210671 -0.251142 0)
(0.239193 -0.241771 0)
(0.266292 -0.235079 0)
(0.292423 -0.230671 0)
(0.317965 -0.22827 0)
(0.343236 -0.227678 0)
(0.368499 -0.228751 0)
(0.393976 -0.231381 0)
(0.419849 -0.235485 0)
(0.446265 -0.240993 0)
(0.473334 -0.247828 0)
(0.501131 -0.255898 0)
(0.529689 -0.265063 0)
(0.558998 -0.275113 0)
(0.588998 -0.285738 0)
(0.619573 -0.296482 0)
(0.650552 -0.306709 0)
(0.681703 -0.315556 0)
(0.712729 -0.321891 0)
(0.743272 -0.324288 0)
(0.772898 -0.321011 0)
(0.8011 -0.310044 0)
(0.827321 -0.289156 0)
(0.850598 -0.256034 0)
(0.868129 -0.209628 0)
(0.879871 -0.153365 0)
(0.891832 -0.096596 0)
(0.904299 -0.0452052 0)
(0.895864 -0.0163912 0)
(0.866308 0.0286644 0)
(0.807697 0.0864121 0)
(0.723648 0.155251 0)
(0.625527 0.232639 0)
(0.522101 0.32218 0)
(0.420396 0.428036 0)
(0.325737 0.554438 0)
(0.241779 0.706686 0)
(0.16636 0.897013 0)
(0.0844803 1.16488 0)
(0.0255068 -0.311972 0)
(0.0663798 -0.356336 0)
(0.106256 -0.331283 0)
(0.141843 -0.306748 0)
(0.174242 -0.287783 0)
(0.204183 -0.273446 0)
(0.232218 -0.262793 0)
(0.258829 -0.255179 0)
(0.284433 -0.250156 0)
(0.309388 -0.2474 0)
(0.334001 -0.246672 0)
(0.358528 -0.247793 0)
(0.383183 -0.250622 0)
(0.408143 -0.255049 0)
(0.433542 -0.260972 0)
(0.459481 -0.268289 0)
(0.48602 -0.276876 0)
(0.513178 -0.28656 0)
(0.540928 -0.297097 0)
(0.569198 -0.308136 0)
(0.597864 -0.319183 0)
(0.626755 -0.32956 0)
(0.65565 -0.338362 0)
(0.684282 -0.344417 0)
(0.712334 -0.346254 0)
(0.739434 -0.342084 0)
(0.765168 -0.329816 0)
(0.789126 -0.307032 0)
(0.809953 -0.271109 0)
(0.824345 -0.221204 0)
(0.836017 -0.163008 0)
(0.848827 -0.104573 0)
(0.865165 -0.0465383 0)
(0.839476 0.010754 0)
(0.7864 0.0764666 0)
(0.712875 0.149359 0)
(0.626817 0.224979 0)
(0.536796 0.304576 0)
(0.448826 0.392814 0)
(0.367922 0.493922 0)
(0.29835 0.612673 0)
(0.243621 0.756108 0)
(0.207789 0.937494 0)
(0.186746 1.18594 0)
(0.024606 -0.345286 0)
(0.0637863 -0.388601 0)
(0.101974 -0.359827 0)
(0.136412 -0.332631 0)
(0.168034 -0.311612 0)
(0.19739 -0.295646 0)
(0.224932 -0.283729 0)
(0.251076 -0.275176 0)
(0.276199 -0.269499 0)
(0.300631 -0.266338 0)
(0.324659 -0.265418 0)
(0.348528 -0.266524 0)
(0.372441 -0.269486 0)
(0.396565 -0.274161 0)
(0.421025 -0.280421 0)
(0.44591 -0.288132 0)
(0.471267 -0.297137 0)
(0.497103 -0.307232 0)
(0.52338 -0.318136 0)
(0.550015 -0.329464 0)
(0.576885 -0.340686 0)
(0.60382 -0.351089 0)
(0.630619 -0.359737 0)
(0.657041 -0.365426 0)
(0.682812 -0.366653 0)
(0.707616 -0.361588 0)
(0.731149 -0.348061 0)
(0.753125 -0.32343 0)
(0.771218 -0.285011 0)
(0.783619 -0.232826 0)
(0.796069 -0.174863 0)
(0.81117 -0.1154 0)
(0.826949 -0.0310155 0)
(0.779219 0.045473 0)
(0.714965 0.128954 0)
(0.639327 0.211083 0)
(0.559391 0.289684 0)
(0.481219 0.368024 0)
(0.409362 0.451159 0)
(0.348064 0.54378 0)
(0.301671 0.650802 0)
(0.2753 0.778825 0)
(0.278748 0.937615 0)
(0.317845 1.14093 0)
(0.0236843 -0.377677 0)
(0.0611567 -0.419651 0)
(0.0976609 -0.387544 0)
(0.130918 -0.357997 0)
(0.161711 -0.335113 0)
(0.190439 -0.317621 0)
(0.217465 -0.304485 0)
(0.243145 -0.294997 0)
(0.267808 -0.288646 0)
(0.291755 -0.285042 0)
(0.31525 -0.283878 0)
(0.338521 -0.28491 0)
(0.361759 -0.287937 0)
(0.385116 -0.292788 0)
(0.408709 -0.299303 0)
(0.432615 -0.307317 0)
(0.456871 -0.316642 0)
(0.481472 -0.32704 0)
(0.506373 -0.338199 0)
(0.531489 -0.349699 0)
(0.556694 -0.360979 0)
(0.581833 -0.371302 0)
(0.606721 -0.379705 0)
(0.631148 -0.384965 0)
(0.65488 -0.385555 0)
(0.677659 -0.379616 0)
(0.699334 -0.364892 0)
(0.719584 -0.338504 0)
(0.734879 -0.298059 0)
(0.746806 -0.245556 0)
(0.760226 -0.188873 0)
(0.795813 -0.111021 0)
(0.775317 -0.0110344 0)
(0.718858 0.0872497 0)
(0.653235 0.183285 0)
(0.582324 0.269591 0)
(0.511783 0.347191 0)
(0.446375 0.421041 0)
(0.389836 0.496486 0)
(0.345999 0.578101 0)
(0.319315 0.670219 0)
(0.315668 0.777499 0)
(0.34598 0.904446 0)
(0.420138 1.05108 0)
(0.0227599 -0.409103 0)
(0.0585362 -0.449489 0)
(0.0933798 -0.414413 0)
(0.125438 -0.382803 0)
(0.155359 -0.35824 0)
(0.183413 -0.339337 0)
(0.209892 -0.325041 0)
(0.235092 -0.31464 0)
(0.2593 -0.307607 0)
(0.28278 -0.303531 0)
(0.305774 -0.302082 0)
(0.328489 -0.302986 0)
(0.3511 -0.306016 0)
(0.373748 -0.310971 0)
(0.396537 -0.31766 0)
(0.419533 -0.32589 0)
(0.442764 -0.335441 0)
(0.466218 -0.346042 0)
(0.489846 -0.35735 0)
(0.513561 -0.368917 0)
(0.537244 -0.380158 0)
(0.560752 -0.390312 0)
(0.583924 -0.398403 0)
(0.606579 -0.403192 0)
(0.628521 -0.40314 0)
(0.649564 -0.396364 0)
(0.669735 -0.380529 0)
(0.68824 -0.352656 0)
(0.701348 -0.310943 0)
(0.713901 -0.26004 0)
(0.728566 -0.207882 0)
(0.776526 -0.0925411 0)
(0.722212 0.0183556 0)
(0.662147 0.13318 0)
(0.599768 0.235892 0)
(0.536312 0.322213 0)
(0.476238 0.396171 0)
(0.423239 0.463687 0)
(0.380386 0.530032 0)
(0.351081 0.599408 0)
(0.339428 0.675251 0)
(0.350852 0.76018 0)
(0.394209 0.854814 0)
(0.479356 0.952751 0)
(0.0218443 -0.439541 0)
(0.0559521 -0.478127 0)
(0.0891687 -0.440421 0)
(0.120022 -0.407014 0)
(0.149031 -0.380952 0)
(0.176369 -0.360753 0)
(0.202263 -0.345369 0)
(0.226959 -0.334088 0)
(0.2507 -0.326379 0)
(0.273717 -0.321815 0)
(0.296225 -0.320046 0)
(0.31841 -0.320776 0)
(0.340432 -0.32375 0)
(0.362415 -0.328742 0)
(0.384453 -0.335532 0)
(0.406601 -0.343896 0)
(0.428881 -0.353583 0)
(0.451274 -0.364296 0)
(0.473729 -0.37566 0)
(0.496163 -0.387205 0)
(0.518465 -0.398323 0)
(0.54051 -0.408241 0)
(0.562158 -0.415971 0)
(0.58326 -0.420271 0)
(0.603657 -0.419592 0)
(0.62325 -0.412033 0)
(0.642221 -0.39518 0)
(0.658748 -0.366276 0)
(0.670511 -0.324344 0)
(0.683975 -0.276047 0)
(0.705328 -0.221988 0)
(0.721399 -0.0801441 0)
(0.664611 0.0536204 0)
(0.608384 0.179145 0)
(0.552263 0.283809 0)
(0.497438 0.367627 0)
(0.447756 0.436587 0)
(0.406009 0.496912 0)
(0.374711 0.553695 0)
(0.356711 0.610745 0)
(0.35544 0.670726 0)
(0.375279 0.734891 0)
(0.42243 0.801988 0)
(0.504434 0.864705 0)
(0.0209435 -0.468981 0)
(0.0534195 -0.505586 0)
(0.0850477 -0.465561 0)
(0.114694 -0.430599 0)
(0.142761 -0.403207 0)
(0.169343 -0.381832 0)
(0.194614 -0.365436 0)
(0.218775 -0.353318 0)
(0.242027 -0.344947 0)
(0.264573 -0.339888 0)
(0.286598 -0.337775 0)
(0.308268 -0.338291 0)
(0.329723 -0.34116 0)
(0.351076 -0.346127 0)
(0.372407 -0.352949 0)
(0.393764 -0.361372 0)
(0.415158 -0.371118 0)
(0.436571 -0.38186 0)
(0.45795 -0.3932 0)
(0.479218 -0.404646 0)
(0.500276 -0.415577 0)
(0.521016 -0.425209 0)
(0.54132 -0.43255 0)
(0.561068 -0.436357 0)
(0.580138 -0.435085 0)
(0.598546 -0.426809 0)
(0.61649 -0.409025 0)
(0.630799 -0.379456 0)
(0.642201 -0.338523 0)
(0.655156 -0.293221 0)
(0.694569 -0.211247 0)
(0.664788 -0.0579603 0)
(0.610071 0.0908918 0)
(0.559312 0.222061 0)
(0.509831 0.325768 0)
(0.463528 0.405795 0)
(0.423318 0.469122 0)
(0.391222 0.522054 0)
(0.369191 0.569502 0)
(0.359464 0.614975 0)
(0.364681 0.66063 0)
(0.388063 0.706975 0)
(0.433606 0.752061 0)
(0.505873 0.789415 0)
(0.0200605 -0.497421 0)
(0.0509452 -0.531886 0)
(0.081025 -0.48983 0)
(0.109467 -0.453533 0)
(0.136568 -0.424969 0)
(0.162358 -0.402533 0)
(0.186968 -0.385205 0)
(0.210558 -0.372301 0)
(0.233296 -0.363292 0)
(0.255353 -0.35774 0)
(0.276888 -0.355265 0)
(0.298046 -0.355536 0)
(0.31895 -0.358256 0)
(0.339697 -0.363147 0)
(0.360357 -0.36994 0)
(0.380968 -0.378355 0)
(0.401538 -0.388089 0)
(0.422044 -0.398789 0)
(0.442437 -0.410037 0)
(0.462645 -0.421323 0)
(0.482585 -0.432017 0)
(0.502162 -0.441327 0)
(0.521282 -0.448264 0)
(0.539846 -0.451587 0)
(0.55777 -0.449757 0)
(0.575196 -0.440836 0)
(0.592047 -0.42226 0)
(0.604338 -0.392271 0)
(0.616206 -0.353264 0)
(0.628761 -0.313231 0)
(0.678846 -0.183622 0)
(0.61687 -0.027793 0)
(0.561837 0.129713 0)
(0.515098 0.261316 0)
(0.471778 0.361965 0)
(0.433179 0.437356 0)
(0.401148 0.494819 0)
(0.376976 0.540575 0)
(0.362064 0.579369 0)
(0.358046 0.614509 0)
(0.366799 0.647853 0)
(0.390494 0.679573 0)
(0.431487 0.707598 0)
(0.491947 0.726523 0)
(0.0191961 -0.524861 0)
(0.0485309 -0.557051 0)
(0.0771016 -0.513227 0)
(0.104347 -0.475792 0)
(0.130462 -0.446204 0)
(0.155428 -0.422819 0)
(0.17934 -0.404641 0)
(0.202324 -0.391004 0)
(0.224518 -0.381387 0)
(0.246062 -0.37535 0)
(0.267093 -0.372506 0)
(0.287736 -0.372509 0)
(0.308094 -0.375044 0)
(0.328252 -0.379814 0)
(0.348269 -0.386525 0)
(0.368173 -0.394874 0)
(0.387969 -0.404535 0)
(0.407634 -0.415133 0)
(0.42712 -0.426232 0)
(0.446365 -0.43731 0)
(0.465296 -0.447728 0)
(0.483836 -0.456694 0)
(0.501905 -0.463219 0)
(0.519421 -0.466067 0)
(0.536338 -0.463702 0)
(0.552906 -0.454181 0)
(0.568371 -0.435014 0)
(0.579084 -0.404955 0)
(0.591428 -0.367973 0)
(0.606295 -0.328706 0)
(0.632013 -0.16576 0)
(0.567824 0.00763369 0)
(0.516398 0.168025 0)
(0.474478 0.296692 0)
(0.437161 0.392833 0)
(0.405421 0.463133 0)
(0.380241 0.514801 0)
(0.362372 0.553871 0)
(0.352733 0.584949 0)
(0.352424 0.611205 0)
(0.36268 0.634348 0)
(0.384831 0.654471 0)
(0.420103 0.669707 0)
(0.469184 0.675742 0)
(0.0183502 -0.551305 0)
(0.0461751 -0.581099 0)
(0.0732742 -0.535751 0)
(0.0993303 -0.497357 0)
(0.124444 -0.46688 0)
(0.148558 -0.442652 0)
(0.171739 -0.423705 0)
(0.194083 -0.409392 0)
(0.2157 -0.399203 0)
(0.236706 -0.392697 0)
(0.257216 -0.389482 0)
(0.277332 -0.389201 0)
(0.297144 -0.391524 0)
(0.316723 -0.396134 0)
(0.336115 -0.402719 0)
(0.355345 -0.410954 0)
(0.374411 -0.42049 0)
(0.393289 -0.430936 0)
(0.411937 -0.441841 0)
(0.4303 -0.452672 0)
(0.448317 -0.462786 0)
(0.465922 -0.471391 0)
(0.483049 -0.4775 0)
(0.499626 -0.479878 0)
(0.515649 -0.476983 0)
(0.531416 -0.466858 0)
(0.545158 -0.447256 0)
(0.554889 -0.417381 0)
(0.566499 -0.38161 0)
(0.585482 -0.330941 0)
(0.574138 -0.13969 0)
(0.517618 0.0434135 0)
(0.473687 0.203299 0)
(0.437106 0.327597 0)
(0.405505 0.418789 0)
(0.379674 0.48396 0)
(0.360087 0.530133 0)
(0.347102 0.56317 0)
(0.341249 0.587561 0)
(0.343194 0.606387 0)
(0.35368 0.621299 0)
(0.373427 0.632453 0)
(0.402937 0.638351 0)
(0.442108 0.635721 0)
(0.0175222 -0.576757 0)
(0.0438744 -0.604048 0)
(0.0695364 -0.557402 0)
(0.0944122 -0.518211 0)
(0.118513 -0.48697 0)
(0.141752 -0.462 0)
(0.164171 -0.442362 0)
(0.185843 -0.427431 0)
(0.206852 -0.416707 0)
(0.227293 -0.409753 0)
(0.247258 -0.406172 0)
(0.266835 -0.405599 0)
(0.286095 -0.407688 0)
(0.305098 -0.41211 0)
(0.32388 -0.418531 0)
(0.342459 -0.426611 0)
(0.360828 -0.43598 0)
(0.378967 -0.446233 0)
(0.396835 -0.456907 0)
(0.414384 -0.467461 0)
(0.431562 -0.47725 0)
(0.448315 -0.485482 0)
(0.464582 -0.491172 0)
(0.480303 -0.493082 0)
(0.495526 -0.489653 0)
(0.510491 -0.478883 0)
(0.522287 -0.45891 0)
(0.531691 -0.429654 0)
(0.54157 -0.395338 0)
(0.570973 -0.30963 0)
(0.523278 -0.110144 0)
(0.473357 0.0772524 0)
(0.435328 0.234746 0)
(0.403309 0.354283 0)
(0.376553 0.440479 0)
(0.355592 0.500684 0)
(0.340451 0.541778 0)
(0.331166 0.569486 0)
(0.327955 0.588199 0)
(0.331154 0.60093 0)
(0.341148 0.609318 0)
(0.358252 0.613643 0)
(0.382535 0.612825 0)
(0.413405 0.604411 0)
(0.0167102 -0.601219 0)
(0.0416237 -0.625911 0)
(0.0658803 -0.578176 0)
(0.0895849 -0.538337 0)
(0.112664 -0.506446 0)
(0.135008 -0.480829 0)
(0.156639 -0.460577 0)
(0.177608 -0.445087 0)
(0.19798 -0.43387 0)
(0.217828 -0.426492 0)
(0.237227 -0.422554 0)
(0.256247 -0.421685 0)
(0.274948 -0.423528 0)
(0.293373 -0.427738 0)
(0.311553 -0.433968 0)
(0.329497 -0.441858 0)
(0.347199 -0.451026 0)
(0.364634 -0.461053 0)
(0.381768 -0.471466 0)
(0.398558 -0.48172 0)
(0.414959 -0.491168 0)
(0.430922 -0.499015 0)
(0.446389 -0.504278 0)
(0.46131 -0.505715 0)
(0.475791 -0.501745 0)
(0.489854 -0.490303 0)
(0.499827 -0.469867 0)
(0.50934 -0.441526 0)
(0.518288 -0.410341 0)
(0.551951 -0.269837 0)
(0.485388 -0.0767873 0)
(0.436554 0.110725 0)
(0.401361 0.263523 0)
(0.372711 0.377596 0)
(0.349906 0.458682 0)
(0.332872 0.514104 0)
(0.321207 0.550558 0)
(0.314685 0.57362 0)
(0.313278 0.587575 0)
(0.317079 0.595369 0)
(0.326231 0.598647 0)
(0.340798 0.597826 0)
(0.360545 0.592214 0)
(0.384875 0.580065 0)
(0.411885 0.55918 0)
(0.0159122 -0.624692 0)
(0.0394172 -0.646701 0)
(0.0622967 -0.598073 0)
(0.0848389 -0.557719 0)
(0.106889 -0.525287 0)
(0.128322 -0.499111 0)
(0.149142 -0.478318 0)
(0.169383 -0.462326 0)
(0.18909 -0.450658 0)
(0.20832 -0.442884 0)
(0.22713 -0.438604 0)
(0.245577 -0.437441 0)
(0.263705 -0.439029 0)
(0.281549 -0.443011 0)
(0.29913 -0.449027 0)
(0.316452 -0.456702 0)
(0.333505 -0.465642 0)
(0.350266 -0.475417 0)
(0.366702 -0.485546 0)
(0.382776 -0.495482 0)
(0.398446 -0.504572 0)
(0.413665 -0.512022 0)
(0.428374 -0.516843 0)
(0.44253 -0.517787 0)
(0.456288 -0.513256 0)
(0.469223 -0.501152 0)
(0.477747 -0.480291 0)
(0.487355 -0.452517 0)
(0.497193 -0.421627 0)
(0.51578 -0.244743 0)
(0.44957 -0.0405665 0)
(0.402587 0.143944 0)
(0.369917 0.290183 0)
(0.344396 0.398114 0)
(0.325034 0.474001 0)
(0.311214 0.524863 0)
(0.302276 0.557123 0)
(0.297809 0.576173 0)
(0.297615 0.586175 0)
(0.301626 0.590004 0)
(0.30982 0.58931 0)
(0.322116 0.584639 0)
(0.33816 0.575612 0)
(0.357218 0.561144 0)
(0.377916 0.539612 0)
(0.0151255 -0.647174 0)
(0.0372487 -0.666424 0)
(0.0587759 -0.617087 0)
(0.080164 -0.576344 0)
(0.101181 -0.543468 0)
(0.121689 -0.516819 0)
(0.14168 -0.495556 0)
(0.161168 -0.479119 0)
(0.180186 -0.467042 0)
(0.198774 -0.458901 0)
(0.216975 -0.454297 0)
(0.23483 -0.452846 0)
(0.252373 -0.454176 0)
(0.269629 -0.45792 0)
(0.286611 -0.463705 0)
(0.303318 -0.471146 0)
(0.319737 -0.479837 0)
(0.335845 -0.489339 0)
(0.351612 -0.499167 0)
(0.367002 -0.508768 0)
(0.381977 -0.517487 0)
(0.39649 -0.524525 0)
(0.410474 -0.528881 0)
(0.423893 -0.529296 0)
(0.43693 -0.524155 0)
(0.448541 -0.51141 0)
(0.455989 -0.490104 0)
(0.465117 -0.462181 0)
(0.476282 -0.425106 0)
(0.469639 -0.211859 0)
(0.409918 -0.00340753 0)
(0.368864 0.175238 0)
(0.339894 0.314152 0)
(0.317774 0.415924 0)
(0.30153 0.486809 0)
(0.290392 0.533445 0)
(0.283609 0.561966 0)
(0.280678 0.57758 0)
(0.2813 0.584317 0)
(0.285301 0.584975 0)
(0.292563 0.581205 0)
(0.302922 0.573664 0)
(0.315998 0.562223 0)
(0.331074 0.546235 0)
(0.347026 0.524761 0)
(0.0143478 -0.668661 0)
(0.035112 -0.685084 0)
(0.0553081 -0.635213 0)
(0.0755495 -0.594197 0)
(0.0955304 -0.56097 0)
(0.115103 -0.533927 0)
(0.134247 -0.512262 0)
(0.152965 -0.495436 0)
(0.171272 -0.482994 0)
(0.189197 -0.474518 0)
(0.206768 -0.469608 0)
(0.224015 -0.467879 0)
(0.24096 -0.468953 0)
(0.25762 -0.472453 0)
(0.274 -0.477996 0)
(0.290095 -0.485188 0)
(0.305889 -0.493614 0)
(0.32136 -0.502828 0)
(0.336478 -0.51234 0)
(0.35121 -0.521594 0)
(0.365519 -0.529931 0)
(0.379353 -0.536541 0)
(0.392643 -0.540408 0)
(0.405365 -0.540247 0)
(0.417681 -0.534424 0)
(0.427806 -0.521046 0)
(0.43462 -0.499399 0)
(0.44254 -0.471198 0)
(0.456115 -0.415541 0)
(0.417436 -0.178452 0)
(0.369585 0.0301184 0)
(0.336463 0.202566 0)
(0.311646 0.334904 0)
(0.292734 0.43111 0)
(0.279197 0.497429 0)
(0.270266 0.540238 0)
(0.265183 0.565463 0)
(0.263408 0.578148 0)
(0.264583 0.582193 0)
(0.268474 0.58032 0)
(0.274905 0.57417 0)
(0.283672 0.564492 0)
(0.294408 0.551353 0)
(0.306476 0.534406 0)
(0.318966 0.513136 0)
(0.0135771 -0.689146 0)
(0.0330007 -0.702681 0)
(0.0518832 -0.652444 0)
(0.0709836 -0.611262 0)
(0.0899253 -0.577773 0)
(0.108555 -0.550412 0)
(0.12684 -0.528411 0)
(0.14477 -0.51125 0)
(0.16235 -0.498486 0)
(0.179593 -0.489707 0)
(0.196517 -0.484514 0)
(0.213139 -0.48252 0)
(0.229474 -0.483342 0)
(0.245529 -0.486595 0)
(0.261303 -0.49189 0)
(0.276786 -0.498823 0)
(0.291961 -0.506973 0)
(0.306806 -0.515888 0)
(0.32129 -0.525075 0)
(0.335384 -0.533973 0)
(0.349047 -0.541917 0)
(0.362226 -0.548084 0)
(0.37485 -0.551439 0)
(0.386919 -0.550662 0)
(0.398515 -0.544079 0)
(0.407104 -0.530038 0)
(0.413717 -0.508256 0)
(0.420037 -0.480681 0)
(0.437061 -0.37879 0)
(0.376343 -0.145438 0)
(0.335622 0.0595344 0)
(0.307603 0.226308 0)
(0.285735 0.352876 0)
(0.26929 0.444096 0)
(0.257906 0.50625 0)
(0.250727 0.545595 0)
(0.246974 0.567911 0)
(0.246076 0.578092 0)
(0.247638 0.579915 0)
(0.25139 0.576015 0)
(0.257129 0.56802 0)
(0.264631 0.556746 0)
(0.273563 0.542412 0)
(0.283383 0.524889 0)
(0.29336 0.503924 0)
(0.0128121 -0.708619 0)
(0.0309083 -0.719211 0)
(0.04849 -0.668769 0)
(0.0664536 -0.627525 0)
(0.084354 -0.593858 0)
(0.102034 -0.566254 0)
(0.11945 -0.543981 0)
(0.136581 -0.526538 0)
(0.153419 -0.513495 0)
(0.169965 -0.504445 0)
(0.186227 -0.498993 0)
(0.202211 -0.496748 0)
(0.217923 -0.497325 0)
(0.233364 -0.500333 0)
(0.248526 -0.505376 0)
(0.263396 -0.512044 0)
(0.277955 -0.51991 0)
(0.29218 -0.528519 0)
(0.306042 -0.537374 0)
(0.31951 -0.545909 0)
(0.332544 -0.55345 0)
(0.345084 -0.559162 0)
(0.357065 -0.561989 0)
(0.368517 -0.560571 0)
(0.379357 -0.553173 0)
(0.38657 -0.53835 0)
(0.393278 -0.516491 0)
(0.399227 -0.490466 0)
(0.415528 -0.330715 0)
(0.349489 -0.112143 0)
(0.309115 0.0878029 0)
(0.282233 0.248328 0)
(0.261843 0.36911 0)
(0.247151 0.455476 0)
(0.237426 0.513667 0)
(0.231633 0.549814 0)
(0.228932 0.569533 0)
(0.228717 0.577559 0)
(0.230568 0.577534 0)
(0.234198 0.572004 0)
(0.23939 0.562572 0)
(0.24592 0.5501 0)
(0.25349 0.53492 0)
(0.26165 0.517058 0)
(0.269815 0.496434 0)
(0.0120511 -0.727065 0)
(0.0288272 -0.734666 0)
(0.0451157 -0.684175 0)
(0.0619448 -0.64297 0)
(0.0788023 -0.609208 0)
(0.0955285 -0.581434 0)
(0.11207 -0.558951 0)
(0.128392 -0.541279 0)
(0.144477 -0.527999 0)
(0.160315 -0.518712 0)
(0.175902 -0.513023 0)
(0.191236 -0.510543 0)
(0.206315 -0.510884 0)
(0.221132 -0.51365 0)
(0.235675 -0.518441 0)
(0.249929 -0.524842 0)
(0.263873 -0.532421 0)
(0.277482 -0.54072 0)
(0.290731 -0.549238 0)
(0.303584 -0.557404 0)
(0.316 -0.564533 0)
(0.327913 -0.569776 0)
(0.33926 -0.572056 0)
(0.350102 -0.569979 0)
(0.360065 -0.561753 0)
(0.366217 -0.546181 0)
(0.372958 -0.523907 0)
(0.379507 -0.497264 0)
(0.387309 -0.30015 0)
(0.325003 -0.0775366 0)
(0.28447 0.116568 0)
(0.257993 0.26973 0)
(0.238885 0.384203 0)
(0.225758 0.4656 0)
(0.217453 0.519939 0)
(0.212822 0.5531 0)
(0.210988 0.570482 0)
(0.211331 0.576638 0)
(0.213424 0.575064 0)
(0.216973 0.568214 0)
(0.221758 0.557656 0)
(0.227566 0.54428 0)
(0.234131 0.5285 0)
(0.241083 0.510452 0)
(0.247951 0.490169 0)
(0.0112919 -0.744468 0)
(0.026748 -0.749029 0)
(0.0417446 -0.698646 0)
(0.0574395 -0.65758 0)
(0.0732534 -0.623805 0)
(0.0890245 -0.595933 0)
(0.104688 -0.573302 0)
(0.120197 -0.555453 0)
(0.135522 -0.541979 0)
(0.150642 -0.532485 0)
(0.165545 -0.526584 0)
(0.180219 -0.523886 0)
(0.194655 -0.524 0)
(0.208839 -0.52653 0)
(0.222758 -0.531071 0)
(0.236391 -0.537205 0)
(0.249718 -0.544497 0)
(0.262715 -0.552485 0)
(0.275355 -0.560665 0)
(0.287603 -0.568458 0)
(0.299411 -0.575166 0)
(0.310708 -0.579923 0)
(0.321432 -0.581628 0)
(0.331658 -0.578866 0)
(0.340653 -0.569822 0)
(0.345967 -0.553458 0)
(0.352428 -0.530349 0)
(0.359615 -0.499148 0)
(0.350114 -0.264287 0)
(0.294088 -0.0412159 0)
(0.257358 0.144816 0)
(0.233128 0.289851 0)
(0.216086 0.397906 0)
(0.204696 0.474465 0)
(0.197755 0.525162 0)
(0.194159 0.555569 0)
(0.193074 0.570852 0)
(0.193899 0.575377 0)
(0.196216 0.572495 0)
(0.199737 0.564566 0)
(0.204245 0.55312 0)
(0.209539 0.539059 0)
(0.215383 0.522856 0)
(0.221473 0.504723 0)
(0.227429 0.484768 0)
(0.0105314 -0.760805 0)
(0.0246587 -0.762276 0)
(0.0383571 -0.712161 0)
(0.0529166 -0.671336 0)
(0.0676872 -0.637635 0)
(0.0825049 -0.609737 0)
(0.0972909 -0.587021 0)
(0.111986 -0.569046 0)
(0.126549 -0.555417 0)
(0.140947 -0.545749 0)
(0.155159 -0.539658 0)
(0.169165 -0.536758 0)
(0.182949 -0.536657 0)
(0.196493 -0.538958 0)
(0.209779 -0.543253 0)
(0.222787 -0.549122 0)
(0.235495 -0.556129 0)
(0.24788 -0.563808 0)
(0.259915 -0.571652 0)
(0.271565 -0.579071 0)
(0.282777 -0.585352 0)
(0.293473 -0.589605 0)
(0.303594 -0.590703 0)
(0.313207 -0.587213 0)
(0.32115 -0.57736 0)
(0.325891 -0.560233 0)
(0.331621 -0.53624 0)
(0.339369 -0.491316 0)
(0.301499 -0.228509 0)
(0.257537 -0.00835694 0)
(0.228436 0.169585 0)
(0.208026 0.307371 0)
(0.193514 0.409755 0)
(0.183913 0.481983 0)
(0.178243 0.529384 0)
(0.175567 0.557299 0)
(0.175136 0.570705 0)
(0.176392 0.573799 0)
(0.178933 0.569802 0)
(0.182481 0.560983 0)
(0.186824 0.54883 0)
(0.191776 0.534249 0)
(0.197127 0.51775 0)
(0.202622 0.499602 0)
(0.207953 0.479962 0)
(0.00976623 -0.776046 0)