/*--------------------------------*- C++ -*----------------------------------*\
| =========                 |                                                 |
| \\      /  F ield         | OpenFOAM: The Open Source CFD Toolbox           |
|  \\    /   O peration     | Version:  5.0                                   |
|   \\  /    A nd           | Web:      www.OpenFOAM.org                      |
|    \\/     M anipulation  |                                                 |
\*---------------------------------------------------------------------------*/
FoamFile
{
    version     2.0;
    format      ascii;
    class       volScalarField;
    location    "0.65";
    object      alpha.water;
}
// * * * * * * * * * * * * * * * * * * * * * * * * * * * * * * * * * * * * * //

dimensions      [0 0 0 0 0 0 0];

internalField   nonuniform List<scalar> 
1935
(
-1.54323e-12
-6.42308e-13
-6.62838e-14
8.32305e-13
2.34956e-12
4.73299e-12
8.79116e-12
1.57952e-11
2.75642e-11
4.49344e-11
6.95666e-11
1.03529e-10
1.13317e-10
1.07409e-10
8.90593e-11
6.13137e-11
3.72282e-11
2.35447e-11
1.59752e-11
1.04028e-11
5.73494e-12
2.36258e-12
6.80905e-13
1.41143e-13
2.25446e-14
3.46287e-15
4.76933e-16
6.02855e-17
5.60581e-18
4.90686e-19
4.003e-20
2.90801e-21
1.75277e-22
8.70104e-24
3.54842e-25
1.16028e-26
3.02414e-28
6.56937e-30
2.12168e-31
3.34156e-33
2.00269e-35
2.13917e-38
-3.55311e-62
-3.23057e-12
-5.72625e-12
-8.72766e-12
-1.14636e-11
-1.56272e-12
-3.13561e-12
-5.3018e-12
-7.65096e-12
-4.49327e-13
-1.30158e-12
-2.72819e-12
-4.56197e-12
7.74482e-13
1.73729e-13
-6.8383e-13
-1.93867e-12
3.14179e-12
3.29013e-12
2.30047e-12
7.39714e-13
6.66524e-12
8.14179e-12
8.61382e-12
7.76053e-12
1.2206e-11
1.58611e-11
1.95647e-11
2.15558e-11
2.14767e-11
2.92548e-11
3.95351e-11
4.79621e-11
3.73479e-11
5.30301e-11
7.58095e-11
9.61849e-11
6.36815e-11
9.40443e-11
1.36169e-10
1.74301e-10
1.03241e-10
1.58709e-10
2.26404e-10
2.84964e-10
1.65552e-10
2.56753e-10
3.42309e-10
4.06693e-10
2.55839e-10
3.96849e-10
5.19159e-10
5.42315e-10
2.72177e-10
5.52873e-10
8.14876e-10
7.2708e-10
2.49271e-10
6.78908e-10
8.92567e-10
8.50286e-10
1.87474e-10
6.39552e-10
9.01006e-10
9.04045e-10
1.09146e-10
4.353e-10
8.7225e-10
9.04045e-10
5.61656e-11
1.89225e-10
6.15304e-10
8.91456e-10
3.52637e-11
7.34741e-11
2.67151e-10
6.97359e-10
2.55301e-11
4.66827e-11
9.88558e-11
3.51099e-10
1.69716e-11
3.59055e-11
6.07159e-11
1.39998e-10
8.86875e-12
2.36767e-11
4.49496e-11
7.86989e-11
3.3246e-12
1.12834e-11
2.77217e-11
5.18798e-11
8.66534e-13
3.6109e-12
1.15808e-11
2.699e-11
1.61828e-13
7.93618e-13
3.05014e-12
8.92605e-12
2.86242e-14
1.60747e-13
6.75605e-13
2.1977e-12
4.75437e-15
3.30794e-14
1.63428e-13
5.83332e-13
7.61132e-16
6.62366e-15
3.7846e-14
1.47011e-13
7.86633e-17
8.82706e-16
6.19172e-15
2.78154e-14
7.18556e-18
1.01305e-16
8.52257e-16
4.33192e-15
5.69992e-19
9.67559e-18
9.78946e-17
5.717e-16
4.05807e-20
8.07779e-19
9.80705e-18
6.66398e-17
2.35563e-21
5.54461e-20
8.41793e-19
6.98946e-18
1.05656e-22
2.81315e-21
5.65711e-20
6.24465e-19
3.7702e-24
1.0052e-22
2.74835e-21
4.41864e-20
1.09075e-25
2.43252e-24
8.79217e-23
2.28481e-21
2.68634e-27
4.05332e-26
1.48319e-24
7.36758e-23
6.67275e-29
6.60838e-28
7.20127e-27
8.09267e-25
3.48692e-30
1.65515e-29
2.20842e-30
8.66855e-29
3.87604e-32
1.54179e-31
1.28914e-32
1.06702e-30
2.41861e-34
8.63294e-34
1.33219e-35
2.34137e-33
4.2307e-37
1.48598e-36
7.14022e-42
3.57927e-39
-1.52186e-59
-7.68817e-56
-1.99948e-53
-1.67359e-41
-1.30849e-11
-1.28224e-11
-9.51514e-12
-1.67512e-12
4.37098e-12
6.40422e-11
3.10493e-10
9.60566e-10
1.73358e-09
1.99488e-09
3.69267e-09
7.04018e-09
1.42559e-08
2.57594e-08
8.06446e-08
1.62794e-06
3.59497e-06
1.03591e-06
9.60099e-07
0.0168958
0.602898
0.695776
0.700047
0.701772
0.70873
0.564217
0.08432
0.000312724
1.78373e-05
-9.6365e-07
-7.52654e-08
1.99946e-09
2.56853e-10
1.2508e-10
1.82574e-10
1.84124e-10
1.84099e-10
0.334127
0.987822
0.97816
-9.48861e-12
-1.00657e-11
-8.13882e-12
-2.44082e-12
3.19235e-12
4.49749e-11
2.10005e-10
5.728e-10
1.01949e-09
1.48182e-09
2.29622e-09
3.9237e-09
6.90441e-09
1.26244e-08
9.63439e-08
1.45371e-06
1.70624e-06
6.27882e-07
6.27814e-07
0.10899
0.66913
0.690027
0.697614
0.681453
0.412618
0.0450477
8.58081e-05
-1.14249e-06
-1.46179e-07
-8.13147e-09
-2.7869e-08
-8.44895e-10
1.98839e-10
1.92306e-10
1.87623e-10
1.84473e-10
1.84121e-10
0.0560132
0.953626
0.925805
-6.29739e-12
-7.32349e-12
-6.46332e-12
-2.64751e-12
1.93298e-12
2.73699e-11
1.29661e-10
3.54734e-10
7.11811e-10
1.23122e-09
1.83344e-09
2.45187e-09
3.68071e-09
6.82113e-09
4.16277e-07
1.82673e-06
1.52861e-06
5.03159e-07
6.29962e-07
0.0821373
0.415958
0.642803
0.558767
0.202903
0.000212477
1.58174e-05
-2.70361e-06
2.4813e-08
-2.59864e-08
1.07549e-10
3.09449e-10
3.03746e-10
2.84572e-10
2.66483e-10
2.41271e-10
1.87714e-10
1.8463e-10
1.88555e-10
0.887707
0.748113
-3.37792e-12
-4.52242e-12
-4.47357e-12
-2.2498e-12
9.12862e-13
1.51534e-11
8.11174e-11
2.4239e-10
5.36293e-10
9.98993e-10
1.52557e-09
1.869e-09
2.30679e-09
8.07402e-09
8.46078e-07
1.81722e-06
3.3598e-07
6.04674e-07
0.000120566
0.00482256
0.0444522
0.141254
0.0413198
-4.68817e-05
3.13547e-06
-2.16051e-07
2.74371e-08
-8.71172e-09
7.40543e-10
5.52949e-10
5.22005e-10
5.06776e-10
5.96131e-10
6.29502e-10
4.84079e-10
4.14816e-10
2.0911e-10
1.97554e-10
0.687901
0.546264
-5.81156e-13
-1.65835e-12
-2.20179e-12
-1.23623e-12
5.599e-13
8.62508e-12
5.26246e-11
1.73939e-10
4.13543e-10
8.06533e-10
1.28552e-09
1.58824e-09
1.68437e-09
1.2126e-08
7.83588e-07
9.33959e-07
1.99887e-07
7.00991e-06
0.000795174
3.77386e-05
2.12082e-07
1.44795e-08
2.12521e-07
3.61739e-07
1.43036e-06
4.09972e-07
1.69998e-08
9.5484e-09
1.487e-09
7.37483e-10
7.52347e-10
1.02803e-09
1.33417e-09
1.30772e-09
9.58982e-10
1.05666e-09
6.10256e-10
1.99473e-10
0.308782
0.820059
5.37143e-12
2.51128e-12
5.712e-13
2.339e-13
1.43827e-12
6.72238e-12
3.54718e-11
1.26267e-10
3.21392e-10
6.66672e-10
1.13292e-09
1.45755e-09
6.10836e-10
7.69559e-10
5.66934e-07
1.21718e-07
1.50579e-07
1.62457e-05
0.000233965
9.31111e-06
1.34648e-08
-2.34728e-12
-1.9487e-08
4.0533e-07
2.42624e-06
1.3299e-06
3.81668e-07
6.34196e-08
5.12896e-09
2.08264e-09
1.30338e-09
1.58752e-09
1.90273e-09
1.86396e-09
1.42559e-09
1.74656e-09
1.34346e-09
2.02908e-10
0.0550915
0.905593
1.99886e-11
1.49552e-11
9.51776e-12
5.90528e-12
5.03091e-12
8.11833e-12
2.71314e-11
9.22943e-11
2.50245e-10
5.5084e-10
9.8533e-10
1.28535e-09
4.91922e-10
5.38563e-10
2.20178e-07
7.91357e-09
1.21803e-06
6.69545e-05
8.31755e-07
2.06958e-08
-3.49031e-10
-3.08486e-08
-4.91411e-10
7.83887e-07
5.07317e-05
1.27678e-05
2.00795e-06
2.88347e-07
6.97458e-08
9.90336e-09
1.82937e-09
1.88928e-09
2.07217e-09
2.05068e-09
1.63375e-09
2.02104e-09
2.37177e-09
3.35109e-10
3.40417e-10
0.819675
4.83478e-11
4.08995e-11
2.93551e-11
1.97141e-11
1.48199e-11
1.41061e-11
2.76751e-11
7.07766e-11
1.8951e-10
4.39888e-10
8.17874e-10
9.93451e-10
4.85015e-10
5.89835e-09
2.18045e-08
5.66971e-09
9.22162e-09
6.55771e-05
2.18239e-05
3.33661e-08
-5.39791e-09
1.65926e-25
6.6165e-06
0.000269076
0.000665174
0.000409232
3.20475e-05
1.42344e-06
1.32512e-06
2.40146e-08
2.28139e-09
1.99166e-09
2.04922e-09
2.05215e-09
1.66147e-09
2.00384e-09
3.9219e-09
1.82326e-09
3.35195e-10
0.646722
1.01965e-10
8.91834e-11
6.65189e-11
4.58766e-11
3.24356e-11
2.8385e-11
3.49255e-11
6.75011e-11
1.4168e-10
3.26176e-10
6.26191e-10
6.77908e-10
4.96688e-10
1.18555e-08
4.95126e-09
6.18312e-09
6.13764e-06
1.50054e-06
1.33501e-07
1.53687e-09
4.86092e-10
2.86575e-10
0.000100783
0.000817577
0.000820503
0.000823157
0.000494113
7.58273e-05
2.10774e-06
1.86651e-08
3.01291e-09
2.01043e-09
1.94357e-09
1.93852e-09
1.63642e-09
2.0216e-09
4.50853e-09
2.855e-09
4.67473e-10
0.562696
1.9154e-10
1.73225e-10
1.35579e-10
9.38363e-11
6.78526e-11
5.2562e-11
5.54474e-11
7.56515e-11
1.27826e-10
2.33028e-10
4.58046e-10
4.73901e-10
2.78055e-10
1.10841e-08
4.38804e-09
4.92125e-09
1.70241e-06
7.09277e-08
1.66932e-09
7.94223e-10
6.97126e-10
5.73149e-10
0.000218068
0.000817171
0.000827603
0.000825963
0.000836791
0.000364845
2.16747e-06
4.85843e-08
4.87639e-09
2.04577e-09
1.85293e-09
1.83473e-09
1.6112e-09
2.08404e-09
4.50879e-09
3.34279e-09
6.7546e-10
0.481783
2.98271e-10
2.91112e-10
2.57235e-10
1.94013e-10
1.62569e-10
1.20735e-10
9.76653e-11
1.05847e-10
1.39883e-10
1.99965e-10
3.42241e-10
3.81148e-10
2.65393e-10
2.64633e-09
3.81593e-09
1.63283e-08
8.77945e-09
5.76402e-09
2.44306e-09
1.15375e-09
8.21103e-10
7.01918e-10
7.96231e-05
0.000754581
0.00082459
0.000820767
0.000829496
0.000536398
5.47392e-06
8.75525e-08
6.6402e-09
2.22634e-09
1.7921e-09
1.75395e-09
1.58933e-09
1.73654e-09
4.50709e-09
3.61037e-09
7.56364e-10
0.426514
4.15297e-10
3.88117e-10
3.57833e-10
2.99563e-10
2.85927e-10
2.51801e-10
1.93519e-10
2.00562e-10
1.88134e-10
2.06272e-10
2.29202e-10
2.46532e-10
2.5995e-10
2.74428e-10
5.10467e-10
4.72686e-10
1.26952e-08
6.86084e-08
5.3698e-08
9.15816e-09
1.08991e-09
1.58024e-09
7.16423e-09
0.00013931
0.000837166
0.000824801
0.00083853
0.000296536
1.08969e-06
7.56784e-08
8.53558e-09
2.12005e-09
1.6452e-09
1.63313e-09
1.57249e-09
1.31875e-09
4.3016e-09
3.71728e-09
7.70864e-10
0.445173
5.2641e-10
4.52436e-10
3.46023e-10
2.89354e-10
2.81791e-10
3.08438e-10
3.24605e-10
3.32188e-10
3.01906e-10
2.86466e-10
5.29272e-10
1.01796e-09
6.30992e-10
4.31626e-10
4.68072e-10
4.69689e-10
9.17027e-09
1.55454e-07
1.55476e-07
2.63784e-08
2.12279e-09
7.15261e-09
2.05896e-08
9.43272e-08
0.000412167
0.000827842
0.00058218
3.13667e-05
3.89894e-07
3.32106e-08
4.47362e-09
1.50959e-09
1.20478e-09
1.37014e-09
1.46461e-09
1.21868e-09
3.6713e-09
3.69871e-09
7.75308e-10
0.551742
5.73362e-10
5.69867e-10
3.08068e-10
2.92771e-10
2.85438e-10
2.92771e-10
3.05682e-10
3.37867e-10
4.1676e-10
1.28584e-09
2.7939e-09
2.84389e-09
2.73744e-09
1.06031e-09
4.70679e-10
2.57144e-08
1.58933e-07
1.5996e-07
1.59919e-07
5.42813e-08
8.08771e-09
2.98455e-08
9.38079e-08
2.14902e-07
5.37405e-05
0.000362247
2.85524e-05
1.90185e-08
6.85772e-09
2.03231e-09
1.45805e-09
1.15854e-09
1.08738e-09
1.15282e-09
1.24793e-09
1.16228e-09
3.1846e-09
3.75993e-09
7.67985e-10
0.732597
6.20993e-10
4.08283e-10
9.98233e-10
6.27964e-09
4.61471e-09
2.99734e-10
3.09136e-10
3.31906e-10
4.19119e-10
1.41179e-09
2.79335e-09
2.72964e-09
1.94031e-09
8.74367e-10
5.3063e-10
1.32073e-07
1.56574e-07
1.54845e-07
1.3037e-07
5.33621e-08
5.57537e-08
2.64599e-07
4.92943e-07
1.01966e-06
7.76029e-06
2.55354e-07
4.52726e-08
7.5199e-09
1.79218e-09
1.28495e-09
1.14129e-09
1.08574e-09
1.08066e-09
1.08577e-09
1.12003e-09
1.10266e-09
2.6912e-09
3.79055e-09
7.75308e-10
0.777322
6.43417e-10
4.05433e-10
7.94284e-09
2.28948e-08
2.48839e-08
1.53564e-08
3.81079e-09
3.43199e-10
4.3665e-10
7.29477e-10
8.89352e-10
9.52271e-10
9.29478e-10
9.29507e-10
1.66182e-09
1.78528e-08
5.38006e-08
5.70267e-08
7.15715e-08
9.47646e-08
4.04055e-07
3.22579e-05
4.14035e-05
3.11655e-05
3.32794e-06
2.68408e-07
5.68938e-08
1.24761e-08
3.08226e-09
1.59691e-09
1.17517e-09
1.08472e-09
1.07103e-09
1.06926e-09
1.0749e-09
1.10218e-09
1.42696e-09
8.31511e-10
0.00214516
0.386898
6.88564e-10
4.05433e-10
5.00003e-09
2.15989e-08
2.79492e-08
3.02672e-08
2.4803e-08
8.1328e-09
5.25623e-10
6.73091e-10
8.38736e-10
8.83322e-10
9.55881e-10
9.29507e-10
2.18686e-09
2.43955e-08
3.44868e-08
4.51936e-08
1.03359e-07
3.91481e-06
6.49246e-05
0.000226587
0.000222139
8.419e-05
2.26783e-06
4.85844e-07
1.0808e-07
2.30117e-08
5.88347e-09
2.16039e-09
1.30492e-09
1.12265e-09
1.07248e-09
1.06592e-09
1.06568e-09
1.06897e-09
8.67387e-10
8.03731e-10
0.000496797
0.00350716
7.82208e-10
4.05433e-10
5.56018e-10
4.772e-09
1.87326e-08
3.21289e-08
2.5268e-08
5.84127e-09
1.13e-09
8.35936e-10
1.79778e-06
8.52222e-06
9.83284e-06
9.26101e-06
2.13309e-06
2.48527e-08
7.21594e-07
6.02724e-06
3.32039e-06
0.000177854
0.000227447
0.000226136
0.000224824
0.000120607
3.81224e-06
5.64199e-07
1.18524e-07
2.78185e-08
6.67761e-09
2.41085e-09
1.46143e-09
1.21681e-09
1.13208e-09
1.07398e-09
1.06399e-09
1.06386e-09
8.76472e-10
8.04198e-10
2.48e-07
-2.63838e-07
7.12728e-10
4.10046e-10
2.23053e-10
1.58455e-09
2.53417e-08
3.24942e-08
1.67567e-08
2.15498e-09
1.91268e-09
5.65707e-07
9.12447e-06
9.8946e-06
9.92837e-06
9.91631e-06
4.512e-06
2.72024e-07
8.13278e-07
0.000136648
0.000226159
0.000227447
0.000228887
0.000227447
0.000181508
1.71258e-05
5.65224e-07
1.2677e-07
3.09503e-08
1.02759e-08
4.94543e-09
2.43766e-09
1.6326e-09
1.46908e-09
1.33066e-09
1.15989e-09
1.07234e-09
1.06566e-09
9.18057e-10
7.58746e-10
-4.35958e-09
-4.14452e-08
5.07844e-10
3.45124e-10
2.11193e-10
2.90931e-09
3.23156e-08
3.24942e-08
2.96542e-08
4.14901e-09
2.15498e-09
2.46557e-09
2.76647e-06
9.67237e-06
9.58693e-06
2.85241e-06
4.37131e-07
3.29587e-07
1.50726e-05
0.000188813
0.000220128
0.000227222
0.000229235
0.000100288
3.31675e-07
7.86552e-08
1.21813e-08
3.64886e-09
3.03161e-09
3.99238e-09
3.84342e-09
2.71818e-09
2.28335e-09
1.96239e-09
1.65369e-09
1.34647e-09
1.12374e-09
1.07662e-09
9.16644e-10
7.84676e-10
-8.51219e-09
-6.93008e-09
2.80986e-10
2.56763e-10
2.07215e-10
2.11066e-10
2.31261e-08
3.24942e-08
3.2433e-08
2.9474e-08
5.8827e-09
4.99338e-09
1.97966e-08
7.75549e-07
6.06755e-07
2.52871e-07
5.84571e-07
3.3689e-07
8.81548e-08
3.06205e-06
9.10126e-05
6.89649e-05
2.09376e-06
-1.72725e-08
-3.7147e-09
-2.49419e-09
1.48927e-11
5.30151e-10
1.61581e-09
3.70214e-09
4.37256e-09
4.20996e-09
3.6016e-09
2.74e-09
1.94807e-09
1.48827e-09
1.21918e-09
1.10145e-09
9.69596e-10
8.0123e-10
1.50382e-10
-2.14725e-09
1.45585e-10
2.09857e-10
2.06643e-10
2.07141e-10
6.61517e-10
2.39632e-08
3.23718e-08
3.23344e-08
2.62686e-08
4.9686e-09
1.14003e-09
1.09232e-09
6.48094e-10
4.28567e-10
3.59259e-07
3.91352e-07
1.12173e-07
3.58171e-10
3.58371e-10
3.602e-10
3.7504e-10
3.74098e-10
4.14344e-10
3.94088e-10
4.15553e-10
4.43775e-10
7.24882e-10
1.84845e-09
4.187e-09
4.82736e-09
4.43178e-09
4.05315e-09
2.02555e-09
1.29736e-09
1.26385e-09
1.14006e-09
1.07052e-09
8.49055e-10
8.67161e-10
-2.3445e-11
9.18109e-11
1.5478e-10
2.08035e-10
2.0696e-10
2.0824e-10
1.83013e-09
1.11051e-08
1.92666e-08
1.46026e-08
4.23398e-09
8.95634e-10
7.40998e-10
5.57774e-10
3.75417e-10
3.64791e-10
3.7548e-10
3.55887e-10
3.58151e-10
3.58172e-10
3.58371e-10
3.60259e-10
3.94453e-10
4.04073e-10
4.04679e-10
4.28749e-10
7.10057e-10
1.62263e-09
4.39954e-09
6.55352e-09
5.60307e-09
2.22511e-08
2.11788e-08
2.31252e-08
1.31284e-08
1.82535e-09
1.05788e-09
1.07002e-09
8.23134e-10
5.9012e-10
-8.27821e-10
5.35715e-11
9.83583e-11
1.63484e-10
2.15437e-10
2.66365e-10
2.68046e-10
3.73002e-10
7.84213e-10
1.25184e-09
1.19681e-09
9.42552e-10
7.9096e-10
7.3247e-10
6.36697e-10
4.30549e-10
3.56914e-10
3.52939e-10
3.56778e-10
3.64648e-10
4.10166e-10
4.44439e-10
4.43752e-10
4.19412e-10
4.08542e-10
6.58021e-10
3.46268e-09
8.12558e-09
3.2315e-08
1.96411e-08
1.73051e-08
2.67511e-07
2.76653e-07
4.91437e-08
2.94675e-09
1.10622e-09
8.29935e-10
7.714e-10
7.36979e-10
4.36867e-10
-6.63703e-25
2.17975e-11
4.57842e-11
8.7153e-11
1.50027e-10
2.17756e-10
2.74028e-10
3.25669e-10
3.92717e-10
4.92464e-10
6.17252e-10
6.49642e-10
6.35052e-10
5.92856e-10
5.28e-10
4.48561e-10
3.59189e-10
3.52091e-10
3.64596e-10
4.18132e-10
4.2389e-10
4.23672e-10
3.56246e-10
2.8553e-10
3.44056e-10
-1.62121e-09
1.09077e-08
1.00926e-07
1.09889e-07
2.52777e-07
1.00202e-06
2.84044e-07
1.40899e-07
2.94857e-08
3.66055e-09
6.49765e-10
7.95301e-10
7.44187e-10
7.43767e-10
1.04112e-08
0
6.23662e-12
1.47309e-11
2.94234e-11
5.39229e-11
8.68994e-11
1.24374e-10
1.56768e-10
1.84376e-10
2.24978e-10
2.4279e-10
2.3566e-10
2.16431e-10
1.90068e-10
1.87869e-10
2.03396e-10
2.32715e-10
2.79986e-10
3.41894e-10
3.32937e-10
3.11561e-10
2.24489e-10
1.83909e-10
1.55345e-10
-3.47945e-09
3.06357e-08
2.60013e-07
1.02195e-06
9.09192e-05
0.000149734
0.000251858
0.000737502
0.000568772
2.33209e-05
-1.66784e-07
-6.68122e-08
-3.41159e-09
-1.83746e-10
7.55667e-10
2.39032e-07
-4.07333e-13
1.77875e-12
4.4038e-12
8.76116e-12
1.48685e-11
2.23167e-11
3.03403e-11
3.77791e-11
4.36218e-11
4.855e-11
5.44725e-11
6.37807e-11
7.85886e-11
1.02216e-10
1.3429e-10
1.8716e-10
2.33403e-10
2.2748e-10
2.02822e-10
1.65898e-10
1.15083e-10
8.58631e-11
8.15254e-11
1.19632e-10
1.34508e-09
2.45146e-07
1.36108e-05
0.000127415
0.000717363
0.000735759
0.000738578
0.00074111
0.000742645
0.000624825
5.42111e-05
1.0761e-06
7.81406e-08
6.60638e-09
2.71257e-09
8.46199e-07
2.40144e-06
4.69275e-13
1.17826e-12
2.34402e-12
3.93477e-12
5.8558e-12
8.06839e-12
1.07781e-11
1.45764e-11
2.04716e-11
2.98388e-11
4.43831e-11
6.38702e-11
9.14134e-11
1.30819e-10
1.28614e-10
1.19685e-10
1.02234e-10
7.99365e-11
6.27126e-11
5.05078e-11
4.86258e-11
-2.66016e-10
-5.92094e-10
4.73972e-08
2.5405e-06
0.000435767
0.000699918
0.000720986
0.000738142
0.00074101
0.000742645
0.000742645
0.000742667
0.000212873
1.59868e-06
1.56627e-07
1.71155e-08
1.2098e-08
1.30073e-06
1.2958e-06
9.9265e-14
2.66163e-13
5.5064e-13
9.58783e-13
1.52259e-12
2.38581e-12
3.89786e-12
6.67642e-12
1.15961e-11
1.90561e-11
2.93675e-11
3.92441e-11
4.61015e-11
4.78518e-11
4.72526e-11
4.51199e-11
4.14708e-11
3.70951e-11
3.48613e-11
3.33424e-11
-6.96038e-11
-9.93043e-11
-1.68059e-08
3.87584e-07
0.000515109
0.00066024
0.000669643
0.000521133
0.000114041
4.85987e-07
9.35123e-05
0.000609017
0.000624196
0.000142261
1.59049e-06
1.61793e-07
2.21154e-08
1.71312e-08
1.61243e-06
2.58224e-09
1.68667e-14
4.75949e-14
1.03525e-13
1.97316e-13
3.70047e-13
7.33527e-13
1.51642e-12
3.0461e-12
5.55669e-12
8.95758e-12
1.25659e-11
1.59225e-11
1.86618e-11
2.06677e-11
2.23208e-11
2.22106e-11
2.13528e-11
2.2963e-11
2.34212e-11
6.75955e-13
3.36066e-11
-8.08329e-09
9.99355e-08
0.000311482
0.000710263
0.000693895
0.000123337
3.92853e-07
1.38456e-07
1.32757e-07
2.82665e-07
4.26447e-05
7.18982e-05
5.62827e-05
4.35756e-06
2.76335e-07
1.91339e-08
1.71312e-08
6.14866e-06
-2.12385e-23
2.46347e-15
7.44694e-15
1.77476e-14
3.95659e-14
9.25812e-14
2.27233e-13
5.3558e-13
1.12363e-12
2.04436e-12
3.25634e-12
4.68412e-12
6.26789e-12
7.95854e-12
9.59053e-12
1.07636e-11
1.12248e-11
1.20646e-11
1.86337e-11
1.73304e-11
-9.65009e-12
-3.66554e-09
1.64835e-08
7.95169e-06
0.000717907
0.000714085
0.000146162
9.96634e-08
1.13498e-07
1.22763e-07
1.30719e-07
1.33401e-07
3.8195e-07
2.23367e-06
3.57388e-06
2.27108e-06
1.41085e-07
2.91584e-08
1.69299e-08
1.10634e-05
2.76579e-05
3.22417e-16
1.06755e-15
2.90901e-15
7.87067e-15
2.2612e-14
6.3926e-14
1.60969e-13
3.47459e-13
6.51068e-13
1.09609e-12
1.71165e-12
2.51157e-12
3.43207e-12
4.31344e-12
5.04613e-12
5.75874e-12
9.03973e-12
2.91211e-11
1.89973e-10
2.56845e-09
1.24299e-08
1.16766e-06
0.000340507
0.000717907
0.000655949
1.09862e-07
1.11267e-07
1.09862e-07
1.20315e-07
1.33606e-07
5.53876e-07
8.0745e-07
4.8701e-07
3.5999e-07
7.49083e-08
4.9972e-08
4.11781e-08
-1.29436e-08
1.0753e-05
2.20185e-05
3.9662e-17
1.48548e-16
4.74952e-16
1.54426e-15
5.19016e-15
1.61723e-14
4.31595e-14
9.8335e-14
1.98186e-13
3.6597e-13
6.27116e-13
9.88228e-13
1.41914e-12
1.88415e-12
2.38675e-12
3.52362e-12
9.77398e-12
5.23982e-11
1.28637e-09
1.81367e-08
2.07021e-07
8.51836e-05
0.000697472
0.000717907
0.00020186
1.12876e-07
1.1055e-07
2.29767e-07
1.0369e-06
1.02633e-06
1.00617e-06
4.58838e-07
1.81188e-07
1.25825e-07
6.78151e-08
6.51462e-08
5.09653e-08
4.52778e-08
3.75047e-07
7.34435e-07
4.49442e-18
1.98753e-17
7.58529e-17
2.90633e-16
1.11264e-15
3.81251e-15
1.103e-14
2.73803e-14
6.05873e-14
1.22008e-13
2.23013e-13
3.68486e-13
5.58455e-13
7.98503e-13
1.17278e-12
2.97174e-12
1.3663e-11
8.36437e-12
3.03402e-10
1.12321e-08
2.64159e-07
0.000160336
0.000692561
0.000709379
0.000154405
1.13687e-07
1.17044e-07
4.79209e-07
1.0369e-06
1.04037e-06
8.78669e-07
1.45516e-07
1.19061e-07
8.24164e-08
7.19563e-08
6.94916e-08
6.46707e-08
1.17709e-07
3.56923e-07
2.70318e-06
4.44098e-19
2.42409e-18
1.12598e-17
5.08543e-17
2.2308e-16
8.60464e-16
2.78228e-15
7.66804e-15
1.85112e-14
3.95782e-14
7.53671e-14
1.30347e-13
2.09321e-13
3.23551e-13
6.84352e-13
3.21129e-12
7.1859e-12
9.48134e-11
1.3469e-09
3.41445e-08
5.72038e-07
0.000128323
0.000699801
0.000723204
0.000260227
1.27224e-07
1.31005e-07
1.5276e-07
4.73471e-07
4.91859e-07
1.50867e-07
1.45616e-07
1.457e-07
1.18845e-07
8.17253e-08
6.46847e-08
-1.55506e-08
2.33486e-07
0.000279351
0.00111393
3.61474e-20
2.54144e-19
1.46926e-18
7.96815e-18
4.10484e-17
1.83817e-16
6.81212e-16
2.09862e-15
5.4683e-15
1.22803e-14
2.44413e-14
4.42957e-14
7.43e-14
1.28579e-13
3.96764e-13
2.09371e-12
1.61594e-11
2.1274e-10
3.81392e-09
4.74019e-08
7.09008e-07
6.83148e-05
0.000684265
0.000744828
0.0004687
1.39163e-07
1.39173e-07
1.3796e-07
1.38353e-07
1.49162e-07
1.58487e-07
1.45482e-07
1.33103e-07
1.32219e-07
1.45094e-07
5.27716e-07
9.75941e-05
0.000326401
0.000327212
0.000149651
2.29602e-21
2.17372e-20
1.60391e-19
1.06846e-18
6.65388e-18
3.56393e-17
1.54144e-16
5.34184e-16
1.51496e-15
3.63555e-15
7.64737e-15
1.44135e-14
2.51937e-14
4.95565e-14
2.37837e-13
1.25701e-12
2.032e-11
2.48098e-10
3.98385e-09
5.35383e-08
5.80484e-07
2.04584e-05
0.000520444
0.000757279
0.000774498
0.000161736
1.38172e-07
1.39843e-07
1.50217e-07
1.51302e-07
1.36148e-07
1.55395e-07
1.67725e-07
5.1771e-05
0.000205813
0.000248837
0.000234514
0.000223067
5.76338e-05
0
1.06149e-22
1.43056e-21
1.39413e-20
1.16723e-19
8.99489e-19
5.89201e-18
3.02857e-17
1.20514e-16
3.81883e-16
1.00261e-15
2.25702e-15
4.462e-15
8.12346e-15
1.64543e-14
8.34347e-14
6.94016e-13
1.12742e-11
1.37412e-10
1.96547e-09
2.52531e-08
2.66009e-07
2.4637e-06
0.000203827
0.000774498
0.000780693
0.000779785
0.000516406
1.51806e-07
1.96045e-07
2.0609e-06
1.4224e-05
6.74992e-06
0.000120299
0.000265759
0.000265759
0.000265759
0.000195679
5.59112e-06
-2.10817e-12
-4.72195e-20
3.19616e-24
6.67194e-23
9.02969e-22
9.75905e-21
9.4523e-20
7.717e-19
4.84077e-18
2.28333e-17
8.33764e-17
2.45506e-16
6.04233e-16
1.27888e-15
2.42742e-15
4.63708e-15
1.72974e-14
2.10471e-13
2.06054e-12
3.15958e-11
3.45408e-10
4.264e-09
4.50338e-08
4.28285e-07
3.37071e-06
0.000322257
0.000780199
0.00079381
0.000783956
0.000769493
0.000649292
0.000643765
0.000633796
0.000596026
0.000426379
0.000163536
0.000236723
9.5648e-05
1.02828e-05
1.78698e-08
-2.69491e-11
-5.09579e-19
5.49003e-26
1.95699e-24
3.96419e-23
5.74174e-22
7.07178e-21
7.32257e-20
5.79145e-19
3.36345e-18
1.46568e-17
4.99139e-17
1.38222e-16
3.22219e-16
6.53258e-16
1.22966e-15
2.78947e-15
2.18692e-14
3.41951e-13
2.68954e-12
3.29559e-11
3.47258e-10
4.30539e-09
4.94134e-08
4.55241e-07
2.78163e-06
0.000191872
0.000774886
0.000792918
0.000783488
0.00078183
0.00076944
0.000477738
0.000239369
0.000109114
1.07233e-05
1.89614e-05
3.83179e-07
2.31302e-08
-5.61433e-12
5.02049e-14
6.55916e-14
4.26958e-28
2.97863e-26
1.01926e-24
2.12391e-23
3.38528e-22
4.47746e-21
4.59005e-20
3.41631e-19
1.85068e-18
7.58502e-18
2.45807e-17
6.55704e-17
1.48677e-16
2.97134e-16
5.81203e-16
1.91837e-15
2.8695e-14
5.30088e-13
4.15306e-12
4.07918e-11
4.58228e-10
5.42845e-09
4.94391e-08
2.88912e-07
1.62732e-06
0.000121332
0.000453584
0.000647112
0.00037796
0.000119204
2.11146e-05
2.20125e-06
6.42475e-07
1.37256e-07
8.3536e-08
9.52308e-09
-1.89385e-11
-1.45173e-12
4.15077e-13
3.13562e-13
8.82806e-31
1.60568e-28
1.16362e-26
4.0663e-25
8.85533e-24
1.47624e-22
1.9523e-21
1.90807e-20
1.33278e-19
6.84373e-19
2.71586e-18
8.72737e-18
2.35765e-17
5.46762e-17
1.12702e-16
2.48497e-16
1.60225e-15
4.08313e-14
8.96338e-13
8.06687e-12
5.4318e-11
5.43305e-10
4.55643e-09
3.36156e-08
1.864e-07
7.60928e-07
6.81354e-06
1.83166e-05
5.1209e-06
1.10147e-06
4.56036e-07
1.8412e-07
4.88542e-08
1.18932e-08
3.52927e-09
2.58753e-10
1.60864e-11
2.17761e-11
8.68346e-12
2.08633e-13
8.41989e-40
1.93706e-33
3.65852e-30
4.03974e-28
1.67615e-26
3.92407e-25
6.80484e-24
9.33778e-23
9.51126e-22
7.05254e-21
3.97428e-20
1.7931e-19
6.79223e-19
2.24145e-18
6.54962e-18
1.91749e-17
1.00513e-16
2.0169e-15
5.95882e-14
1.0545e-12
7.8725e-12
5.76465e-11
4.96324e-10
3.9946e-09
2.91832e-08
1.73358e-07
8.5601e-07
2.32064e-06
1.20032e-06
4.61189e-07
2.21984e-07
7.43514e-08
1.45285e-08
5.66299e-09
4.46198e-10
2.17703e-11
1.4076e-11
1.38964e-11
1.6475e-12
3.27456e-15
)
;

boundaryField
{
    leftWall
    {
        type            zeroGradient;
    }
    rightWall
    {
        type            zeroGradient;
    }
    lowerWall
    {
        type            zeroGradient;
    }
    atmosphere
    {
        type            inletOutlet;
        inletValue      uniform 0;
        value           nonuniform List<scalar> 
45
(
0
0
0
0
0
0
0
0
0
0
0
0
0
0
0
0
0
0
0
0
1.91749e-17
1.00513e-16
2.0169e-15
5.95882e-14
1.0545e-12
7.8725e-12
5.76465e-11
4.96324e-10
3.9946e-09
2.91832e-08
1.73358e-07
8.5601e-07
2.32064e-06
1.20032e-06
4.61189e-07
2.21984e-07
7.43514e-08
1.45285e-08
5.66299e-09
4.46198e-10
2.17703e-11
1.4076e-11
0
0
0
)
;
    }
    defaultFaces
    {
        type            empty;
    }
    procBoundary3to1
    {
        type            processor;
        value           nonuniform List<scalar> 
45
(
-3.09847e-12
-5.90712e-12
-9.60727e-12
-1.34679e-11
-1.62979e-11
-1.72038e-11
-1.55778e-11
-1.05666e-11
-4.33894e-13
5.61576e-12
8.0411e-11
3.67705e-10
1.27954e-09
3.47085e-09
4.13677e-09
6.23637e-09
1.45017e-08
3.00069e-08
5.24902e-08
1.10708e-07
1.29649e-06
5.94248e-06
6.47567e-06
2.32276e-06
-2.71433e-06
0.229916
0.700133
0.700389
0.70269
0.702103
0.705646
0.589207
0.0585597
0.000302975
1.91956e-05
1.16332e-06
5.53559e-08
-1.23418e-09
1.37098e-10
1.86235e-10
1.83997e-10
1.84124e-10
0.729185
0.998447
0.975373
)
;
    }
    procBoundary3to2
    {
        type            processor;
        value           nonuniform List<scalar> 
43
(
-6.42639e-13
-2.20992e-13
5.8761e-14
5.72492e-13
1.37482e-12
2.78858e-12
5.36824e-12
9.90352e-12
1.68789e-11
2.64646e-11
3.93603e-11
4.46621e-11
4.31558e-11
3.80144e-11
2.93346e-11
2.02603e-11
1.33675e-11
8.66148e-12
5.31632e-12
2.87078e-12
1.22694e-12
3.69804e-13
7.61938e-14
1.2145e-14
1.67274e-15
2.23624e-16
2.81598e-17
3.01033e-18
3.15588e-19
3.14113e-20
2.80856e-21
2.1007e-22
1.30459e-23
6.74293e-25
2.81629e-26
9.10295e-28
2.15713e-29
3.4744e-31
4.3939e-33
9.70226e-35
4.71948e-37
9.28312e-41
-1.30676e-65
)
;
    }
}


// ************************************************************************* //
