/*--------------------------------*- C++ -*----------------------------------*\
| =========                 |                                                 |
| \\      /  F ield         | OpenFOAM: The Open Source CFD Toolbox           |
|  \\    /   O peration     | Version:  5.0                                   |
|   \\  /    A nd           | Web:      www.OpenFOAM.org                      |
|    \\/     M anipulation  |                                                 |
\*---------------------------------------------------------------------------*/
FoamFile
{
    version     2.0;
    format      ascii;
    class       surfaceScalarField;
    location    "0.65";
    object      alphaPhi10;
}
// * * * * * * * * * * * * * * * * * * * * * * * * * * * * * * * * * * * * * //

dimensions      [0 3 -1 0 0 0 0];

internalField   nonuniform List<scalar> 
3782
(
-6.48758e-17
3.752e-17
-2.84545e-17
1.72733e-17
-3.06659e-18
4.55052e-18
6.88185e-17
-7.5983e-18
1.62192e-16
-2.22079e-17
3.14078e-16
-3.2092e-17
5.77967e-16
-3.58764e-17
1.02752e-15
-2.13982e-17
1.7457e-15
4.00505e-17
2.73767e-15
2.02103e-16
4.05682e-15
5.37879e-16
5.17297e-15
1.18448e-15
5.04892e-15
1.84063e-15
4.36458e-15
2.20407e-15
3.10018e-15
2.19937e-15
1.79197e-15
1.73571e-15
9.69557e-16
1.137e-15
5.70517e-16
7.4167e-16
3.43466e-16
5.25348e-16
1.82846e-16
3.66688e-16
7.41335e-17
2.16665e-16
1.99346e-17
9.44372e-17
3.42256e-18
2.81756e-17
3.97428e-19
5.8386e-18
3.40279e-20
8.94394e-19
2.06762e-21
1.26497e-19
-4.99223e-23
1.56215e-20
-2.95641e-23
1.72822e-21
-4.48114e-24
1.36746e-22
-4.97297e-25
9.80822e-24
-4.41772e-26
6.26396e-25
-3.05728e-27
3.35854e-26
-1.66737e-28
1.35726e-27
-7.23684e-30
3.75878e-29
-2.46761e-31
4.92949e-31
-6.59557e-33
-9.61534e-33
-1.43616e-34
-7.5113e-34
-4.65294e-36
-2.82783e-35
-7.25229e-38
-2.12026e-36
-4.29584e-40
-2.62506e-38
-4.5406e-43
-1.41062e-40
-2.98433e-56
-1.50981e-43
-2.98877e-56
8.22684e-17
-1.42771e-16
1.52563e-16
-2.79496e-16
2.40449e-16
-4.68768e-16
-6.75129e-16
3.25205e-16
4.23856e-17
-7.2913e-17
8.64582e-17
-1.61796e-16
1.48649e-16
-3.01312e-16
-4.77017e-16
2.17124e-16
1.59586e-17
-2.19232e-17
4.00324e-17
-7.0301e-17
7.92256e-17
-1.62396e-16
-2.9797e-16
1.28059e-16
-6.29001e-18
8.31549e-17
8.63163e-18
7.11078e-17
2.87733e-17
-4.22226e-17
-1.31346e-16
5.8359e-17
-2.9099e-17
2.39157e-16
-3.07758e-17
3.0302e-16
-1.91606e-17
2.87884e-16
2.0236e-16
8.0075e-18
-5.00515e-17
4.69659e-16
-6.56597e-17
6.58104e-16
-7.42442e-17
8.29596e-16
9.04276e-16
-6.9682e-17
-5.52673e-17
8.44008e-16
-8.27812e-17
1.24212e-15
-1.12177e-16
1.76321e-15
2.23286e-15
-1.2505e-16
-3.07679e-17
1.47473e-15
-4.60992e-17
2.2702e-15
-6.64895e-17
3.48097e-15
4.75001e-15
-6.96755e-17
6.9596e-17
2.53364e-15
1.26844e-16
4.06494e-15
2.18456e-16
6.50034e-15
9.13128e-15
3.12026e-16
3.42083e-16
4.20003e-15
6.12856e-16
7.01716e-15
1.01735e-15
1.12048e-14
1.56685e-14
1.42455e-15
9.36582e-16
6.5868e-15
1.69836e-15
1.13952e-14
2.7062e-15
1.76077e-14
2.37319e-14
3.59609e-15
2.13826e-15
1.01003e-14
3.7429e-15
1.75722e-14
5.46625e-15
2.55184e-14
3.15128e-14
6.86096e-15
4.40287e-15
1.27898e-14
7.31664e-15
2.51519e-14
9.7883e-15
3.73437e-14
3.98339e-14
1.12753e-14
6.23667e-15
1.22061e-14
1.31753e-14
3.13016e-14
1.74791e-14
4.75879e-14
4.8271e-14
1.64981e-14
7.16544e-15
9.8043e-15
1.7637e-14
3.15166e-14
2.20578e-14
4.60019e-14
4.85399e-14
2.2763e-14
6.39381e-15
5.99154e-15
1.97163e-14
2.6009e-14
2.51458e-14
4.24429e-14
4.6856e-14
2.85455e-14
4.16254e-15
2.81345e-15
1.73807e-14
1.27062e-14
2.63312e-14
3.59173e-14
4.31586e-14
3.17603e-14
2.16697e-15
1.35385e-15
9.03805e-15
4.06433e-15
2.64274e-14
1.80327e-14
3.66803e-14
3.30341e-14
1.30032e-15
8.26131e-16
3.51616e-15
1.69556e-15
1.47481e-14
5.50912e-15
2.10724e-14
2.81834e-14
9.45326e-16
5.21721e-16
2.02182e-15
1.08933e-15
5.57e-15
2.13239e-15
7.33354e-15
1.83946e-14
6.68014e-16
2.69729e-16
1.5121e-15
7.08106e-16
3.026e-15
1.29799e-15
2.68082e-15
8.18605e-15
3.71986e-16
9.66338e-17
1.04119e-15
3.39232e-16
2.14551e-15
7.84862e-16
1.41791e-15
4.29102e-15
1.45342e-16
2.21978e-17
5.25659e-16
1.00814e-16
1.3506e-15
3.29641e-16
7.24258e-16
2.73883e-15
3.8221e-17
3.22281e-18
1.73142e-16
1.79276e-17
5.84796e-16
7.71611e-17
2.31957e-16
1.43861e-15
6.94345e-18
3.26436e-19
3.75164e-17
2.14627e-18
1.54848e-16
1.05519e-17
3.93176e-17
4.80768e-16
1.1432e-18
2.66967e-20
7.1113e-18
2.2233e-19
3.2398e-17
1.24629e-18
5.02299e-18
1.13667e-16
1.72765e-19
3.07823e-22
1.34073e-18
9.35115e-21
7.15337e-18
8.57746e-20
4.32459e-19
2.74799e-17
2.44235e-20
-3.29754e-22
2.38472e-19
-3.05176e-21
1.4688e-18
-1.77957e-20
-6.92541e-20
6.11066e-18
2.18054e-21
-5.92058e-23
2.77303e-20
-7.92051e-22
2.10105e-19
-6.40698e-21
-3.20896e-20
1.0094e-18
1.65618e-22
-6.66195e-24
2.6771e-21
-1.11921e-22
2.44165e-20
-1.12801e-21
-6.65639e-21
1.32667e-19
1.04152e-23
-5.90647e-25
2.05494e-22
-1.18537e-23
2.27108e-21
-1.45423e-22
-1.00698e-21
1.42109e-20
5.54106e-25
-3.98055e-26
1.30019e-23
-9.54912e-25
1.74218e-22
-1.47419e-23
-1.24893e-22
1.27521e-21
2.1984e-26
-1.974e-27
6.22172e-25
-5.40438e-26
1.05881e-23
-1.1103e-24
-1.25012e-23
9.56295e-23
5.71632e-28
-7.50956e-29
1.89597e-26
-2.07226e-27
4.39145e-25
-5.81611e-26
-9.5432e-25
5.37223e-24
7.63201e-30
-2.27131e-30
2.79984e-28
-5.26298e-29
9.42223e-27
-1.95265e-27
-5.17304e-26
1.75259e-25
-6.65783e-32
-5.75723e-32
-1.43003e-30
-9.35177e-31
-3.05748e-29
-3.61894e-29
-1.78988e-27
-2.11124e-28
-5.61022e-33
-1.4043e-33
-1.13597e-31
-1.49189e-32
-6.68745e-30
-2.36573e-31
-2.54195e-29
-3.54186e-28
-2.3794e-34
-7.17497e-35
-1.82662e-33
-3.61368e-34
-5.70456e-32
-1.35487e-33
-2.45878e-31
-1.11767e-29
-2.68817e-35
-8.02216e-37
-2.69286e-35
-3.37651e-36
-1.27142e-33
-2.26431e-35
-4.31569e-33
-2.39116e-31
-2.38387e-37
-4.93501e-39
-2.44542e-37
-1.84698e-38
-2.22191e-35
-1.28458e-37
-3.82662e-35
-4.25721e-33
-1.09708e-39
-8.51654e-42
-1.03509e-39
-3.0746e-41
-1.28729e-37
-1.28244e-40
-7.36772e-38
-3.8237e-35
-1.21881e-42
-4.96189e-53
-1.04761e-42
-7.13311e-50
-1.29291e-40
-9.24808e-47
-1.81032e-43
-7.38061e-38
-4.96487e-53
-7.13807e-50
-9.25521e-47
-1.82365e-43
3.8003e-16
-9.44998e-16
3.31967e-16
-1.01813e-15
6.79796e-17
-8.27443e-16
-6.25129e-16
-1.5897e-16
-1.23252e-15
7.9957e-16
-8.63572e-15
7.3042e-15
-3.65552e-14
3.39867e-14
-1.01071e-13
9.87373e-14
-1.66997e-13
1.78046e-13
-2.72075e-13
2.60172e-13
-4.53661e-13
4.04912e-13
-6.67978e-13
7.06377e-13
-7.29725e-13
1.54272e-12
5.73612e-13
5.28215e-12
3.40291e-12
2.10645e-11
-1.06585e-10
1.43736e-10
-3.98541e-11
-5.11342e-12
1.48614e-11
-1.08398e-11
9.72436e-10
-1.11199e-09
1.08705e-05
-1.37443e-05
2.7526e-05
-7.16822e-05
3.12407e-05
-8.42815e-05
3.07709e-05
-8.37615e-05
2.95856e-05
-8.08769e-05
2.4442e-05
-7.88917e-05
1.45826e-05
-3.42406e-05
2.15663e-06
-2.91777e-06
1.35148e-07
-1.54947e-07
1.09759e-08
-7.75456e-09
1.15612e-09
-4.46229e-10
6.18515e-11
-3.70714e-11
1.75905e-12
-1.40102e-12
1.03517e-13
-4.92017e-14
6.52476e-15
-1.58224e-14
2.74668e-15
-1.30595e-14
1.80182e-15
-1.20835e-14
1.07826e-15
-1.08775e-14
1.59269e-06
-1.11632e-05
3.43453e-07
-5.10351e-05
-4.31352e-05
2.73032e-16
-7.25528e-16
2.58441e-16
-8.45831e-16
8.96665e-17
-7.48307e-16
-3.58138e-16
-2.44531e-16
-7.52613e-16
5.16722e-16
-5.45246e-15
4.82912e-15
-2.12479e-14
2.19962e-14
-5.15918e-14
6.08154e-14
-9.00058e-14
1.21365e-13
-1.40005e-13
2.07973e-13
-2.03771e-13
3.17482e-13
-2.63308e-13
4.53448e-13
-9.81305e-14
9.26388e-13
5.66024e-13
3.81723e-12
-1.41767e-11
2.41803e-11
-2.35471e-11
1.00832e-10
8.90764e-12
2.9195e-12
2.04878e-11
-2.89358e-11
4.45868e-09
-5.55667e-09
1.75178e-05
-1.47744e-05
3.04783e-05
-8.19133e-05
2.99783e-05
-8.32203e-05
2.76285e-05
-8.13236e-05
2.23314e-05
-6.58866e-05
7.75497e-06
-1.46607e-05
2.94845e-06
-1.16416e-06
1.62537e-07
-7.0189e-08
9.31027e-09
-3.37622e-09
4.65547e-10
-1.06727e-10
2.70246e-11
-2.40419e-12
1.67578e-12
-1.44369e-13
5.59045e-14
-3.16878e-14
4.36355e-15
-2.20281e-14
3.21698e-15
-1.58047e-14
2.5987e-15
-1.30418e-14
2.40217e-15
-1.20268e-14
2.32179e-15
-1.08568e-14
7.27624e-07
-3.00493e-07
-2.27877e-09
-4.76552e-05
-4.15656e-05
1.75489e-16
-5.04359e-16
1.80265e-16
-6.44168e-16
8.49199e-17
-6.21304e-16
-1.75592e-16
-2.76824e-16
-3.81648e-16
2.82285e-16
-2.8959e-15
2.85105e-15
-1.10497e-14
1.391e-14
-2.72307e-14
4.08793e-14
-5.33221e-14
8.99395e-14
-8.9145e-14
1.68172e-13
-1.13081e-13
2.58927e-13
-8.95511e-14
3.23642e-13
1.16786e-13
5.50314e-13
1.0904e-12
2.68783e-12
-2.66586e-11
6.773e-11
5.54552e-12
7.83155e-11
4.48884e-11
-1.58417e-12
5.68544e-11
-4.88766e-11
2.06713e-08
-2.61785e-08
1.43622e-05
-3.1426e-06
2.96323e-05
-3.22681e-05
2.46631e-05
-6.33424e-05
1.59947e-05
-3.79616e-05
7.72905e-06
-3.6191e-06
1.2151e-06
-2.5482e-07
7.42544e-08
-1.53508e-08
3.52854e-09
-7.60916e-10
1.67451e-10
-2.8965e-11
6.12559e-12
-1.99854e-12
1.24847e-13
-1.70804e-13
1.21847e-14
-4.23367e-14
6.06769e-15
-3.6747e-14
5.09769e-15
-3.24479e-14
4.16635e-15
-2.57345e-14
3.19497e-15
-1.99987e-14
4.8048e-15
-1.44488e-14
7.04084e-15
-1.33051e-14
3.34757e-07
-9.54512e-15
3.87176e-07
-4.29067e-05
-3.11419e-05
9.14871e-17
-2.80514e-16
1.04653e-16
-4.12096e-16
6.01017e-17
-4.44889e-16
-7.25147e-17
-2.42888e-16
-1.58855e-16
1.40994e-16
-1.38026e-15
1.6153e-15
-5.67537e-15
9.03166e-15
-1.49611e-14
2.92131e-14
-3.10605e-14
6.8978e-14
-5.2436e-14
1.32784e-13
-6.33664e-14
2.06032e-13
-3.97304e-14
2.49744e-13
1.52568e-13
3.10184e-13
4.92198e-13
1.83012e-12
2.64896e-12
6.0676e-11
3.54447e-11
5.471e-11
3.22884e-11
-4.98856e-12
2.48262e-10
-3.47439e-10
4.95513e-08
-9.30816e-08
8.90217e-07
-2.31573e-08
4.73671e-06
-2.9727e-09
6.94811e-06
-2.18786e-10
3.87901e-06
-1.88322e-10
2.68945e-07
-2.18147e-09
1.58194e-08
-1.86097e-09
6.69994e-10
-7.55537e-10
2.36466e-11
-1.04847e-10
8.71365e-13
-1.13363e-11
6.14623e-14
-1.23963e-12
1.3162e-14
-1.38207e-13
9.30609e-15
-5.58492e-14
8.61764e-15
-5.28088e-14
9.56642e-15
-6.53961e-14
8.93876e-15
-6.13056e-14
5.6877e-15
-4.20729e-14
4.29985e-15
-3.79234e-14
3.52508e-15
-1.7563e-14
3.17611e-15
-9.08283e-15
1.59556e-06
-2.86537e-05
-2.37225e-05
2.65551e-17
-4.95596e-17
4.04383e-17
-1.55016e-16
2.5683e-17
-2.24269e-16
-3.06124e-17
-1.36401e-16
-6.37624e-17
1.15398e-16
-6.12221e-16
1.04718e-15
-2.76715e-15
5.99877e-15
-7.71127e-15
2.11538e-14
-1.62819e-14
5.30733e-14
-2.74389e-14
1.06574e-13
-3.09219e-14
1.71524e-13
-1.56895e-14
2.04256e-13
3.68272e-14
1.60128e-13
2.52186e-12
1.64549e-12
2.05971e-11
2.09726e-11
4.7566e-11
2.17109e-13
5.17741e-11
-6.00849e-12
3.29479e-10
-1.37465e-09
3.32065e-08
-2.40187e-08
2.77156e-09
-3.87371e-09
2.20302e-10
-2.48935e-10
1.62718e-11
-9.46677e-12
1.61305e-11
-1.20207e-10
9.3094e-11
-1.19819e-09
9.58887e-11
-1.98338e-09
1.8262e-11
-7.35308e-10
1.39868e-12
-1.00188e-10
1.29998e-13
-1.15494e-11
3.782e-15
-1.22365e-12
7.5378e-15
-1.59098e-13
1.14727e-14
-7.61149e-14
1.65145e-14
-9.55909e-14
1.80365e-14
-1.14841e-13
1.63115e-14
-1.05402e-13
1.11167e-14
-7.30848e-14
1.02541e-14
-7.81638e-14
6.16817e-15
-4.10093e-14
5.6103e-15
-1.00444e-14
2.88328e-06
-8.05249e-06
-3.18121e-05
-4.52449e-17
8.79929e-16
-1.39834e-17
5.77222e-16
-4.97756e-18
3.09315e-16
-9.3952e-18
1.78407e-16
-4.41943e-17
2.72169e-16
-2.57693e-16
9.61565e-16
-1.14811e-15
4.22849e-15
-3.21625e-15
1.5215e-14
-6.46352e-15
4.05893e-14
-9.46193e-15
8.63307e-14
-7.18493e-15
1.45563e-13
4.1111e-15
1.73915e-13
5.12353e-14
8.18618e-14
2.35841e-12
4.76139e-13
1.65347e-11
2.9744e-12
1.5438e-11
6.85629e-13
4.82062e-11
-3.94731e-11
3.1074e-09
-4.98149e-09
7.16692e-09
-6.44564e-09
2.43359e-10
-1.54783e-10
1.4905e-11
-1.5032e-11
1.76675e-12
3.67246e-12
4.70252e-11
-1.4542e-10
1.21835e-10
-1.29018e-09
1.50975e-10
-2.00911e-09
3.18684e-11
-8.72942e-10
2.56568e-12
-1.24402e-10
-1.99955e-13
-1.86086e-11
-1.68052e-13
-1.83919e-12
-2.96245e-15
-5.34609e-13
1.63745e-14
-1.30826e-13
2.25375e-14
-1.25887e-13
2.50124e-14
-1.39934e-13
2.33318e-14
-1.28995e-13
1.72976e-14
-9.28457e-14
1.79492e-14
-1.02991e-13
1.61883e-14
-7.02789e-14
2.15432e-14
-1.70477e-14
1.75174e-06
-1.42207e-14
-2.83127e-05
-1.17911e-16
2.66425e-15
-8.74031e-17
2.3158e-15
-5.39924e-17
1.69989e-15
-4.18289e-17
1.16739e-15
-4.518e-17
9.4587e-16
-9.58056e-17
1.19655e-15
-2.81433e-16
3.72079e-15
-5.35294e-16
1.11137e-14
-7.80886e-17
3.05292e-14
3.58998e-15
6.83932e-14
1.30108e-14
1.18832e-13
2.40434e-14
1.37398e-13
2.90556e-14
5.83163e-14
4.04161e-13
8.16912e-14
1.6329e-11
-7.23785e-13
1.71498e-11
1.46197e-13
5.79321e-11
-9.83705e-12
2.90731e-09
-4.15112e-09
5.77073e-11
-3.57141e-09
7.94313e-12
-1.05139e-10
9.12925e-13
-8.38462e-12
-4.0533e-13
-2.66363e-13
1.19156e-10
-2.64766e-10
2.80443e-10
-1.09766e-09
3.28311e-10
-1.50996e-08
1.07862e-10
-3.79748e-09
1.11626e-11
-2.89098e-10
-2.27419e-12
-4.80768e-11
-6.73478e-13
-2.05512e-11
-9.10629e-14
-2.72137e-12
1.29685e-14
-2.52323e-13
2.66251e-14
-1.47326e-13
2.94673e-14
-1.44372e-13
2.89241e-14
-1.32804e-13
2.42406e-14
-9.80186e-14
3.15374e-14
-1.05788e-13
3.45831e-14
-1.40472e-13
1.10029e-14
-4.52009e-14
3.6401e-15
-1.86231e-14
-2.0431e-05
-6.37556e-17
5.98567e-15
-4.22016e-17
5.65693e-15
-1.84846e-17
4.49507e-15
-8.9045e-19
3.29171e-15
1.6178e-17
2.58323e-15
4.14717e-17
2.33031e-15
2.09685e-16
3.70302e-15
9.50181e-16
9.32528e-15
3.78676e-15
2.23475e-14
1.18233e-14
5.11156e-14
2.45431e-14
9.03777e-14
3.70908e-14
9.28157e-14
3.11263e-14
4.61411e-14
6.75558e-13
4.63357e-13
3.57442e-12
7.25617e-14
3.60567e-12
3.59981e-14
1.85035e-10
-1.91535e-10
2.09581e-09
-1.89496e-09
9.89328e-11
-4.23514e-10
9.56629e-12
-1.26104e-11
1.27982e-12
-6.82079e-13
1.07452e-12
-6.10643e-14
1.25836e-09
-3.73336e-09
4.86207e-09
-4.5078e-08
3.51809e-09
-7.55676e-08
8.03454e-10
-7.84596e-08
-8.01404e-12
-9.08485e-09
-1.3758e-11
-2.45324e-10
-3.94653e-12
-2.50135e-10
-4.44343e-13
-9.58856e-12
-5.72129e-16
-7.03032e-13
2.90254e-14
-1.79518e-13
3.29364e-14
-1.42841e-13
3.33145e-14
-1.30653e-13
2.95439e-14
-9.82299e-14
4.14645e-14
-1.06741e-13
6.08072e-14
-2.08925e-13
3.29141e-14
-8.77485e-14
1.26847e-13
-1.69039e-14
-1.41585e-05
3.98011e-16
1.20179e-14
3.99952e-16
1.16037e-14
3.50015e-16
9.51063e-15
3.02972e-16
7.05981e-15
3.02345e-16
5.28277e-15
3.76202e-16
4.71002e-15
6.7885e-16
5.23062e-15
1.95441e-15
8.94722e-15
5.41642e-15
1.74648e-14
1.49961e-14
3.52699e-14
2.72005e-14
6.29276e-14
3.99602e-14
5.89639e-14
2.62592e-14
4.27308e-14
7.29327e-13
7.54354e-13
7.86152e-13
7.47233e-14
3.5494e-13
2.04368e-14
3.61581e-10
-4.58849e-11
9.87734e-11
-7.0357e-11
1.26853e-11
-5.46534e-12
7.98732e-13
-7.668e-13
1.30142e-13
-8.17793e-14
1.39081e-13
-8.39108e-14
9.37982e-09
-2.02975e-08
1.22284e-08
-6.93407e-08
1.15427e-08
-7.52368e-08
1.18955e-08
-8.0082e-08
1.27977e-09
-7.3797e-08
-3.41919e-10
-1.38975e-08
-3.7847e-11
-7.73757e-10
-1.90821e-12
-4.67714e-11
-7.0798e-14
-2.59111e-12
3.16447e-14
-2.72923e-13
3.64956e-14
-1.4045e-13
3.57391e-14
-1.2291e-13
3.27245e-14
-9.56007e-14
3.44136e-14
-1.08451e-13
6.87741e-14
-2.00363e-13
4.25364e-14
-1.03081e-13
1.40445e-13
-1.2581e-14
-8.96647e-06
1.75615e-15
2.08233e-14
1.77151e-15
2.10177e-14
1.5349e-15
1.84198e-14
1.24347e-15
1.38918e-14
1.12378e-15
1.09929e-14
1.22002e-15
8.63902e-15
1.61989e-15
8.76194e-15
3.01264e-15
1.04706e-14
6.5734e-15
1.62693e-14
1.45112e-14
2.56749e-14
2.57168e-14
4.33284e-14
3.59626e-14
4.11592e-14
5.54558e-14
2.47857e-14
7.57628e-13
4.45722e-13
7.51642e-13
1.11687e-13
7.98777e-13
2.41347e-14
1.04201e-10
-7.54413e-13
5.54695e-12
-8.69019e-13
6.85519e-13
-6.4746e-13
9.57762e-14
-2.97727e-13
3.71169e-14
-1.07507e-13
1.48807e-13
-2.23108e-13
1.14815e-08
-1.64555e-08
2.10152e-08
-7.84017e-08
2.03766e-08
-7.81584e-08
1.95527e-08
-8.23286e-08
1.80656e-08
-7.69458e-08
-5.32089e-10
-3.93102e-08
-7.5837e-11
-1.60619e-09
-4.73396e-12
-1.2063e-10
-2.29555e-13
-7.21313e-12
2.37896e-14
-5.28039e-13
3.92095e-14
-1.4898e-13
3.85994e-14
-1.15633e-13
3.59271e-14
-9.12069e-14
3.73294e-14
-9.83376e-14
6.51141e-14
-1.84851e-13
4.68561e-14
-1.03346e-13
5.54343e-14
-8.98253e-15
-4.85348e-06
4.27733e-15
2.97749e-14
4.80318e-15
3.13208e-14
4.67105e-15
3.04591e-14
4.0741e-15
2.56636e-14
4.03304e-15
2.4065e-14
3.46993e-15
1.94895e-14
3.74585e-15
1.54264e-14
5.0232e-15
1.58205e-14
8.37134e-15
1.79862e-14
1.44831e-14
2.32346e-14
2.45316e-14
3.03302e-14
2.96488e-14
3.07219e-14
3.42876e-14
2.10826e-14
3.67033e-13
3.7593e-14
3.01952e-13
8.2206e-14
1.33506e-12
1.00281e-13
6.82009e-13
-5.51865e-13
5.49087e-13
-1.24155e-12
2.40645e-13
-6.04614e-13
1.28886e-13
-2.83236e-13
1.09574e-13
-2.1486e-13
8.83346e-13
-1.08365e-12
2.15867e-08
-5.58886e-12
3.12371e-08
-5.80595e-08
3.03961e-08
-7.9899e-08
2.6919e-08
-7.94592e-08
2.54091e-08
-8.06213e-08
1.73628e-09
-5.09826e-08
7.369e-12
-1.49133e-09
1.48989e-13
-1.1587e-10
-5.08578e-14
-6.97483e-12
3.54613e-14
-5.97387e-13
4.14632e-14
-1.44851e-13
4.22691e-14
-1.06837e-13
3.95754e-14
-8.59901e-14
4.13464e-14
-6.75773e-14
6.60417e-14
-1.65561e-13
5.37788e-14
-9.24762e-14
3.08868e-14
-4.96133e-15
-2.16603e-06
8.0375e-15
3.81643e-14
8.37043e-15
3.72541e-14
8.7072e-15
3.29721e-14
8.66324e-15
2.97237e-14
9.60199e-15
3.02008e-14
9.44872e-15
3.15726e-14
9.28379e-15
2.70952e-14
1.09765e-14
2.91844e-14
1.1681e-14
2.50834e-14
1.51713e-14
2.35005e-14
1.88673e-14
2.58414e-14
2.17613e-14
2.65287e-14
2.36871e-14
1.98498e-14
4.01617e-14
1.96334e-14
8.25074e-14
1.85181e-14
1.74472e-13
4.90477e-15
4.17127e-12
-9.59261e-14
5.1576e-12
-2.56162e-12
1.91377e-12
-3.35399e-12
3.21559e-13
-8.23023e-13
3.15883e-13
-3.28501e-13
1.33295e-12
-2.29042e-12
9.50151e-12
-1.4322e-11
3.26495e-08
-5.21986e-11
3.88689e-08
-8.96758e-08
3.48415e-08
-7.85152e-08
2.63289e-08
-7.73556e-08
8.28185e-10
-1.6454e-08
6.52547e-11
-7.11277e-10
2.76754e-12
-5.64639e-11
2.02739e-13
-4.21723e-12
6.06307e-14
-4.15091e-13
4.54172e-14
-1.06897e-13
4.65937e-14
-8.86916e-14
4.22183e-14
-7.75512e-14
3.74227e-14
-5.37566e-14
6.98782e-14
-1.33575e-13
6.30586e-14
-7.20013e-14
3.895e-14
4.50507e-17
-1.3552e-07
1.2254e-14
4.30363e-14
1.13708e-14
4.10164e-14
1.01301e-14
3.05736e-14
1.08945e-14
3.23957e-14
1.22965e-14
3.34292e-14
1.53458e-14
3.16278e-14
1.81131e-14
3.34068e-14
2.06694e-14
3.54519e-14
2.11402e-14
3.72158e-14
2.42426e-14
4.10856e-14
6.47332e-14
9.38084e-14
9.3619e-14
7.79112e-14
5.70253e-14
7.10926e-14
4.88956e-14
2.65426e-14
5.10804e-14
1.35061e-14
4.93703e-14
3.84247e-15
8.41423e-12
-1.21708e-12
1.50298e-11
-4.88976e-12
6.45559e-12
-7.5244e-12
9.60615e-13
-1.36526e-12
1.64809e-12
-1.2146e-12
7.3865e-12
-8.55561e-12
2.00521e-11
-1.92037e-11
8.30749e-11
-1.16655e-10
4.53883e-08
-2.735e-08
3.59085e-08
-6.72502e-08
1.0367e-08
-3.02927e-08
6.05977e-10
-1.37832e-09
4.61254e-11
-1.27828e-10
3.25474e-12
-1.049e-11
2.64916e-13
-9.66266e-13
5.57781e-14
-1.52363e-13
4.72003e-14
-7.20263e-14
4.97582e-14
-6.51322e-14
4.60377e-14
-6.02794e-14
3.7135e-14
-4.3648e-14
6.66027e-14
-9.52305e-14
7.02533e-14
-4.85386e-14
3.82679e-14
5.82595e-15
2.80551e-06
1.61665e-14
4.34935e-14
1.84958e-14
4.42364e-14
1.25553e-14
3.69534e-14
1.33243e-14
3.64559e-14
1.46738e-14
3.72651e-14
1.71505e-14
3.47184e-14
2.03476e-14
3.50711e-14
2.67517e-14
3.34636e-14
4.59641e-14
4.0558e-14
1.84219e-13
1.30747e-13
2.48879e-13
2.22512e-13
2.92559e-13
2.04268e-13
2.57637e-13
1.56767e-13
1.35838e-13
4.64219e-14
1.32082e-13
1.45042e-14
1.30426e-11
6.43106e-13
1.60331e-11
-1.50393e-12
1.75376e-11
-4.16964e-12
1.68282e-11
-5.45124e-12
5.54698e-12
-1.33087e-12
1.20641e-11
-7.03055e-12
5.48684e-11
-5.4394e-11
1.33231e-10
-9.83726e-11
5.85587e-10
-4.91322e-10
1.44631e-08
-3.78326e-09
2.34588e-08
-1.38004e-09
1.47318e-09
-2.45783e-10
1.32909e-10
-2.55818e-11
1.03441e-11
-4.36949e-12
8.41347e-13
-6.79274e-13
1.23454e-13
-1.57361e-13
6.2645e-14
-7.55705e-14
5.22372e-14
-5.91018e-14
4.82714e-14
-5.1021e-14
4.44198e-14
-4.38642e-14
3.75214e-14
-3.17322e-14
6.67804e-14
-6.06914e-14
6.62211e-14
-2.28429e-14
3.49368e-14
1.10888e-14
6.10735e-06
1.7044e-14
4.3316e-14
2.06079e-14
3.11814e-14
1.07499e-13
2.07668e-13
3.43017e-13
1.38661e-12
3.18883e-13
1.51907e-12
4.659e-14
3.12255e-13
2.45932e-14
6.20464e-14
2.86511e-14
3.48338e-14
5.2201e-14
3.82954e-14
1.89753e-13
1.15217e-13
2.90952e-13
1.90482e-13
2.8153e-13
2.31534e-13
1.91776e-13
1.26823e-13
1.82788e-13
4.16056e-14
7.42858e-12
1.50775e-13
1.81469e-11
6.69112e-13
1.97171e-11
-6.76589e-13
1.7063e-11
-3.59904e-13
1.26973e-11
-5.8412e-12
2.64546e-11
-2.17918e-11
1.25038e-10
-1.02815e-10
4.388e-10
-3.83315e-10
4.05971e-10
-1.30035e-10
6.06258e-10
2.03597e-10
1.19209e-09
-9.8946e-10
1.94269e-10
-2.99043e-10
2.05074e-11
-6.12403e-11
3.18607e-12
-7.61038e-12
4.90171e-13
-1.46705e-12
1.24183e-13
-2.9916e-13
7.84473e-14
-9.98087e-14
6.88565e-14
-6.47785e-14
5.99477e-14
-5.15219e-14
5.1581e-14
-4.08741e-14
4.51863e-14
-3.07636e-14
3.56975e-14
-2.03906e-14
5.90044e-14
-1.67899e-14
4.61994e-14
1.70171e-14
1.48221e-14
1.57727e-14
5.75745e-06
2.38601e-14
4.18758e-14
1.73648e-14
2.75876e-14
9.47396e-13
5.93523e-13
1.51381e-12
1.63826e-12
1.11507e-12
2.40895e-12
5.07283e-13
2.64097e-12
1.26385e-13
1.2141e-12
3.74931e-14
1.37789e-13
5.11771e-14
4.60902e-14
9.01359e-14
7.55908e-14
1.17957e-13
1.21368e-13
1.32341e-13
2.00923e-13
1.2743e-13
1.14631e-13
1.2097e-13
3.11251e-14
1.09315e-12
1.43749e-13
6.46445e-12
1.3063e-13
1.25783e-11
-1.10955e-14
1.91858e-11
1.60915e-13
3.51351e-11
-1.33136e-11
2.40477e-10
-2.19542e-10
1.27712e-09
-1.02895e-09
5.32953e-09
-8.40629e-09
4.17624e-09
-9.37777e-09
1.17417e-09
-2.40248e-09
1.47864e-10
-6.18625e-10
2.75095e-11
-2.23588e-10
2.81676e-12
-4.62464e-11
6.00243e-13
-7.25765e-12
1.70081e-13
-1.41215e-12
1.01061e-13
-3.09411e-13
8.65235e-14
-1.01464e-13
7.85399e-14
-5.89144e-14
6.99318e-14
-4.33606e-14
5.96932e-14
-3.09691e-14
4.93888e-14
-1.88414e-14
3.75323e-14
-6.77653e-15
5.3974e-14
4.66114e-15
7.78286e-14
1.45739e-14
-5.37217e-08
6.40018e-08
4.1424e-07
2.79091e-14
4.17681e-14
1.87618e-14
2.52093e-14
8.65635e-13
1.96053e-13
1.83565e-12
1.11698e-12
2.03589e-12
1.7875e-12
1.5246e-12
2.31886e-12
1.0047e-12
2.0096e-12
1.42075e-13
5.9881e-13
1.16752e-13
1.02994e-13
9.62802e-14
1.20478e-13
1.04263e-13
1.31227e-13
1.01654e-11
4.29162e-11
6.62426e-12
2.63659e-11
1.3375e-12
5.30079e-12
8.76089e-13
2.06589e-12
6.22416e-12
4.8367e-13
1.38007e-11
-1.9718e-12
7.47926e-11
-5.03702e-11
2.6221e-10
-1.80598e-10
5.07607e-09
-3.47771e-09
2.09547e-08
-1.04303e-08
2.67972e-08
-1.40143e-08
1.81686e-08
-1.47588e-08
-7.94958e-11
-7.83811e-09
5.43126e-11
-1.15197e-09
1.26196e-11
-2.65326e-10
1.68083e-12
-5.30521e-11
3.83296e-13
-9.7013e-12
1.62181e-13
-1.91662e-12
1.18637e-13
-4.06287e-13
1.01789e-13
-1.16778e-13
9.10614e-14
-5.49468e-14
8.12413e-14
-3.46397e-14
7.03825e-14
-2.06285e-14
5.82776e-14
-7.20295e-15
4.55629e-14
5.8649e-15
5.47661e-14
1.49855e-14
7.14274e-14
2.21177e-14
2.22412e-08
1.8147e-09
-1.63097e-09
3.21893e-14
4.03388e-14
2.21054e-14
2.28562e-14
1.25573e-13
3.55954e-14
9.79975e-13
1.18634e-13
1.84825e-12
1.36879e-12
2.04796e-12
1.99698e-12
9.08819e-13
1.51592e-12
4.3583e-13
3.70693e-13
4.11979e-13
1.27786e-13
2.76434e-11
2.10089e-12
9.10071e-10
2.96795e-10
1.24266e-09
3.68204e-10
1.06362e-09
2.96209e-10
5.69948e-10
1.84705e-10
9.77706e-11
3.97331e-11
1.05088e-10
-5.51866e-13
3.24591e-10
-8.47759e-12
2.74593e-09
-1.23798e-09
1.08905e-08
-6.19903e-09
2.95808e-08
-9.66891e-09
3.22916e-08
-1.18773e-08
3.2817e-08
-1.33626e-08
3.00398e-08
-1.08911e-08
1.74545e-09
-4.20631e-09
2.50692e-10
-5.87999e-10
4.91312e-11
-1.54329e-10
8.96858e-12
-3.07455e-11
1.74858e-12
-6.30567e-12
4.32549e-13
-1.3214e-12
1.85661e-13
-2.96338e-13
1.24045e-13
-9.40066e-14
1.10162e-13
-4.84494e-14
9.49303e-14
-2.67541e-14
8.15195e-14
-9.76439e-15
6.90782e-14
4.79444e-15
5.61075e-14
1.84537e-14
7.08763e-14
2.61378e-14
5.47976e-14
2.99446e-14
1.50515e-09
1.37059e-10
-1.34404e-10
3.16184e-14
2.98567e-14
1.91e-14
2.00462e-14
3.79076e-14
1.61035e-14
8.45877e-13
1.20227e-13
1.98195e-12
1.72988e-12
2.45867e-12
1.80638e-12
5.14442e-13
1.15162e-12
5.41203e-13
2.32276e-13
4.78815e-13
1.12837e-13
7.4968e-10
7.68922e-11
1.13799e-09
2.78198e-10
1.27196e-09
2.95707e-10
1.36408e-09
2.49066e-10
1.44053e-09
1.59125e-10
3.03135e-10
2.01842e-11
2.96443e-10
-2.26821e-12
3.37325e-09
-6.99477e-10
3.21039e-08
-4.42976e-09
3.41895e-08
-6.3899e-09
3.57704e-08
-9.97418e-09
3.58416e-08
-1.12387e-08
3.1112e-08
-7.35731e-09
8.83137e-09
-4.92327e-09
6.45201e-10
-6.11535e-10
1.61668e-10
-1.49661e-10
3.21022e-11
-3.41505e-11
6.50381e-12
-7e-12
1.57238e-12
-1.66161e-12
4.48929e-13
-4.86273e-13
2.13108e-13
-1.63611e-13
1.7084e-13
-8.07329e-14
1.46974e-13
-4.24695e-14
1.20001e-13
-1.77952e-14
9.48711e-14
2.72727e-15
7.90986e-14
1.8173e-14
6.44779e-14
3.2328e-14
6.14718e-14
3.84193e-14
6.64963e-14
4.13231e-14
1.20121e-10
1.6351e-11
-1.69042e-11
2.3383e-14
1.56332e-14
1.79643e-14
1.3125e-14
2.36111e-14
1.02897e-14
1.24144e-12
2.25645e-13
2.20786e-12
1.14032e-12
2.72145e-12
1.5816e-12
1.45542e-12
1.29904e-12
7.09693e-13
6.68941e-13
5.89918e-13
1.1992e-13
8.83072e-11
1.82087e-12
9.50439e-10
1.21249e-11
1.20363e-09
1.45462e-10
6.90514e-10
6.92181e-11
1.76682e-10
-2.45738e-12
1.89019e-10
-5.86064e-15
1.95705e-10
-3.36946e-12
2.30193e-08
-3.72398e-12
3.49344e-08
-2.06005e-09
3.5806e-08
-5.22638e-09
3.22694e-08
-5.2086e-09
2.57059e-08
-4.05861e-09
5.42597e-09
-1.323e-09
7.62002e-10
-2.61917e-10
1.81558e-10
-4.44748e-11
3.94897e-11
-1.02464e-11
7.93626e-12
-2.3303e-12
1.78592e-12
-5.79118e-13
6.54502e-13
-3.43094e-13
3.95235e-13
-2.487e-13
3.09404e-13
-1.48095e-13
2.60498e-13
-8.26129e-14
2.06925e-13
-3.42085e-14
1.56762e-13
-2.72938e-15
1.151e-13
2.08082e-14
8.90728e-14
3.53024e-14
7.02287e-14
4.86225e-14
6.54594e-14
5.28329e-14
6.05712e-14
5.5269e-14
1.53401e-11
2.97198e-12
-1.70681e-12
1.33521e-14
6.67112e-15
1.35952e-14
8.24829e-15
1.61439e-14
8.1064e-15
2.24253e-13
1.7431e-14
2.02024e-12
4.86692e-13
2.68638e-12
1.20693e-12
2.986e-12
1.27351e-12
1.72508e-12
1.0063e-12
1.14098e-12
4.68994e-13
2.51465e-12
2.0074e-13
3.06173e-11
7.8744e-13
1.16444e-10
2.15741e-12
6.54581e-11
-8.71341e-13
4.57499e-11
5.788e-13
4.85607e-11
-4.58999e-12
3.80527e-11
-8.20704e-12
2.24471e-11
-4.96133e-12
4.78625e-09
-6.17217e-12
1.45865e-08
-2.97986e-12
6.82601e-09
-7.1352e-13
1.63919e-09
-1.65904e-13
3.19724e-10
-4.7744e-14
5.79957e-11
-3.27814e-14
1.38873e-11
-3.52194e-14
2.99532e-12
-5.75236e-14
8.15406e-13
-1.05111e-13
5.92883e-13
-1.27167e-13
7.07189e-13
-2.1168e-13
6.75031e-13
-2.1488e-13
5.66017e-13
-9.95686e-14
4.16723e-13
-4.42006e-14
2.77218e-13
-1.06918e-14
1.87365e-13
2.82058e-14
1.3568e-13
5.13779e-14
1.01285e-13
5.84163e-14
7.62825e-14
6.81738e-14
6.28209e-14
7.58977e-14
5.72868e-14
7.17586e-14
2.53142e-12
5.03634e-13
5.76601e-13
8.60842e-15
3.06484e-15
1.12736e-14
5.53299e-15
1.3397e-14
6.55428e-15
2.43616e-14
6.87201e-15
7.02331e-13
2.79935e-14
2.26018e-12
3.69506e-13
2.89115e-12
9.01616e-13
3.21469e-12
9.38299e-13
1.41317e-12
5.61618e-13
7.16296e-13
8.94701e-14
1.57597e-12
-4.45231e-15
3.66901e-12
1.04436e-14
2.82551e-12
-3.26776e-14
8.81013e-12
-1.60002e-14
5.28895e-11
-2.10477e-14
6.16268e-11
-6.87834e-15
1.00895e-11
-1.45278e-14
3.9296e-12
-1.23965e-14
9.66449e-13
-1.68949e-14
2.72624e-13
-1.96641e-14
8.27907e-14
-3.6838e-14
7.49166e-14
-2.51668e-14
7.22216e-14
-2.75407e-14
7.17822e-14
-3.20622e-14
7.85955e-14
-6.20257e-14
1.52309e-13
-1.72533e-13
3.80355e-13
-3.1992e-13
9.29313e-13
-5.04043e-13
1.08982e-12
-2.38844e-13
8.27261e-13
1.36502e-13
6.33779e-13
1.09406e-13
4.65596e-13
5.95717e-14
2.00573e-13
2.413e-13
1.43985e-13
1.40114e-13
1.15794e-13
8.81881e-14
8.55024e-14
9.03232e-14
6.4222e-14
1.00543e-13
4.15159e-14
8.97877e-14
3.8121e-13
1.76295e-13
3.78656e-13
5.51769e-15
1.57098e-15
9.68051e-15
3.04754e-15
1.25148e-14
5.14978e-15
1.53446e-14
5.34591e-15
3.89447e-14
5.98164e-15
4.97468e-13
8.63489e-15
1.65502e-12
3.25345e-14
1.54449e-12
1.08575e-13
7.57033e-13
7.89414e-14
1.73179e-13
4.25472e-14
1.33095e-13
7.60536e-15
1.14933e-13
2.13774e-15
7.55026e-14
-2.16018e-15
6.58701e-14
-6.73009e-15
5.61637e-14
-1.35083e-14
5.48334e-14
-1.43514e-14
5.54354e-14
-1.45952e-14
5.66384e-14
-1.36714e-14
5.78363e-14
-1.82937e-14
5.9195e-14
-2.12062e-14
6.3134e-14
-2.5397e-14
6.73497e-14
-2.76259e-14
6.97799e-14
-2.76327e-14
8.25729e-14
-4.26338e-14
2.12155e-13
-1.88777e-13
9.90704e-13
-9.16282e-13
2.634e-12
-1.77924e-12
6.04375e-12
-3.48628e-12
5.87957e-12
1.46873e-13
3.08903e-12
3.16992e-12
3.89266e-12
-1.32215e-13
3.11883e-12
2.26599e-12
2.27833e-12
1.98694e-12
4.90451e-13
1.03123e-12
1.17356e-13
2.56116e-13
8.70461e-14
1.21802e-13
6.27284e-14
1.21329e-13
4.12415e-14
9.96705e-14
5.02071e-14
1.23662e-13
8.48588e-13
3.19705e-15
6.15321e-16
6.37597e-15
1.28696e-15
1.09875e-14
2.52425e-15
1.54583e-14
4.07168e-15
2.08135e-14
4.7137e-15
2.92825e-14
4.60835e-15
6.28617e-14
3.82664e-15
1.14323e-13
2.74166e-15
1.39e-13
3.27889e-15
1.19538e-13
4.22645e-15
9.49006e-14
1.8258e-15
9.02362e-14
-2.2352e-15
8.69637e-14
-6.14986e-15
7.40544e-14
-9.16206e-15
5.61597e-14
-9.72063e-15
5.28393e-14
-1.06084e-14
5.25165e-14
-1.26689e-14
5.42655e-14
-1.53131e-14
5.75909e-14
-2.00885e-14
6.52297e-14
-2.30303e-14
7.13079e-14
-2.53403e-14
7.39419e-14
-2.40988e-14
7.78592e-14
-2.8091e-14
2.36053e-13
-2.00055e-13
1.74178e-12
-1.67943e-12
1.04222e-11
-9.29144e-12
2.89293e-11
-2.03278e-11
7.64618e-11
-4.83173e-11
8.46125e-11
1.52494e-12
3.76621e-11
5.34531e-11
4.31564e-11
4.02395e-12
1.59965e-11
2.35019e-11
1.43049e-12
9.51252e-12
5.297e-13
1.80712e-12
1.74756e-13
6.00056e-13
7.84121e-14
2.12998e-13
4.90773e-14
1.44857e-13
3.23248e-14
1.13151e-13
1.33165e-14
1.30492e-13
8.61904e-13
1.29664e-15
1.34153e-16
2.93968e-15
3.2844e-16
6.06839e-15
6.97158e-16
1.09903e-14
1.40348e-15
1.66067e-14
2.18052e-15
2.24197e-14
2.66734e-15
2.94699e-14
2.37243e-15
3.93351e-14
1.65561e-15
5.29265e-14
1.08145e-15
6.46755e-14
6.79417e-17
6.8978e-14
-1.53413e-15
6.9896e-14
-3.00342e-15
6.65643e-14
-3.96623e-15
6.03078e-14
-4.93794e-15
5.19516e-14
-5.95077e-15
4.70616e-14
-7.85037e-15
4.85897e-14
-1.23181e-14
5.3076e-14
-1.65595e-14
5.9826e-14
-2.02756e-14
6.25255e-14
-1.90303e-14
6.35133e-14
-1.96815e-14
5.94272e-14
-1.69447e-14
9.15356e-14
-5.80973e-14
1.97091e-12
-2.08828e-12
1.96794e-11
-1.97593e-11
1.39212e-10
-1.2638e-10
4.49855e-10
-3.13952e-10
1.45377e-09
-8.88732e-10
1.38486e-09
1.69097e-10
1.68272e-09
2.34749e-10
4.4356e-10
1.25668e-09