/*--------------------------------*- C++ -*----------------------------------*\
| =========                 |                                                 |
| \\      /  F ield         | OpenFOAM: The Open Source CFD Toolbox           |
|  \\    /   O peration     | Version:  5.0                                   |
|   \\  /    A nd           | Web:      www.OpenFOAM.org                      |
|    \\/     M anipulation  |                                                 |
\*---------------------------------------------------------------------------*/
FoamFile
{
    version     2.0;
    format      ascii;
    class       volScalarField;
    location    "0.65";
    object      k;
}
// * * * * * * * * * * * * * * * * * * * * * * * * * * * * * * * * * * * * * //

dimensions      [0 2 -2 0 0 0 0];

internalField   nonuniform List<scalar> 
1935
(
0.432135
0.436359
0.439926
0.442946
0.445522
0.447752
0.449721
0.451504
0.453163
0.454661
0.455911
0.456785
0.457119
0.456706
0.455307
0.452659
0.448483
0.442513
0.434514
0.424314
0.411833
0.397109
0.38032
0.36179
0.341977
0.321447
0.300816
0.280739
0.261942
0.24466
0.228961
0.214773
0.201926
0.190189
0.179305
0.169019
0.159107
0.149384
0.139742
0.13017
0.12078
0.111814
0.103643
0.476655
0.525457
0.579773
0.639394
0.480698
0.529028
0.582521
0.640922
0.483835
0.531412
0.583779
0.640642
0.486215
0.532818
0.583818
0.638895
0.487997
0.533459
0.582917
0.636032
0.489326
0.53354
0.581348
0.632401
0.490341
0.533256
0.579374
0.628335
0.491162
0.532784
0.577236
0.624152
0.491897
0.532289
0.575161
0.620157
0.49254
0.531797
0.573215
0.616447
0.493024
0.531267
0.571387
0.613045
0.493237
0.530604
0.569602
0.609904
0.493016
0.529652
0.567716
0.60689
0.49215
0.528194
0.565508
0.603783
0.49038
0.525954
0.562683
0.60027
0.487408
0.522602
0.558881
0.595957
0.482917
0.517775
0.55369
0.59038
0.476583
0.511094
0.546669
0.583036
0.468114
0.5022
0.537389
0.573417
0.457274
0.490788
0.525466
0.561055
0.443922
0.47665
0.510615
0.545578
0.428047
0.459711
0.492689
0.526757
0.409792
0.440069
0.471728
0.504564
0.389469
0.418016
0.447988
0.479207
0.36756
0.39404
0.421956
0.451156
0.344683
0.368807
0.394332
0.421135
0.321544
0.343102
0.365977
0.390078
0.298861
0.317746
0.337828
0.359036
0.277564
0.293814
0.311094
0.329364
0.258012
0.271856
0.28655
0.302076
0.240311
0.252022
0.264407
0.27746
0.2244
0.234271
0.244655
0.255551
0.210097
0.218413
0.227104
0.23617
0.197141
0.204161
0.211444
0.218988
0.185236
0.191178
0.197298
0.203592
0.174082
0.179121
0.184275
0.18954
0.163412
0.167674
0.172009
0.176415
0.153
0.156566
0.16018
0.163839
0.1427
0.145611
0.148555
0.151532
0.132475
0.134741
0.137031
0.139347
0.12242
0.124033
0.125663
0.127315
0.112785
0.113738
0.114702
0.11568
0.103962
0.104275
0.10459
0.104909
0.707329
0.78424
0.865328
0.949321
1.03481
1.12036
1.20469
1.28705
1.36776
1.44922
1.53722
1.64217
1.77905
1.96394
2.2061
2.49757
2.80662
3.07465
2.98448
2.58556
2.23619
1.94834
1.71552
1.52943
1.38192
1.26574
1.17468
1.10328
1.0362
0.976828
0.923619
0.873123
0.82529
0.778275
0.730861
0.682616
0.620023
0.53312
0.414607
0.18774
0.707142
0.781683
0.859817
0.94026
1.02162
1.10253
1.18188
1.25926
1.33562
1.41439
1.50273
1.61241
1.75849
1.95393
2.19983
2.47425
2.72149
2.83548
2.62517
2.28184
1.99383
1.75776
1.56743
1.41565
1.29534
1.20039
1.12564
1.06215
1.00039
0.949542
0.905222
0.863424
0.822768
0.781788
0.738846
0.69209
0.633098
0.548385
0.42565
0.190993
0.704814
0.77665
0.851532
0.928193
1.00528
1.08152
1.15601
1.22869
1.3011
1.37756
1.46624
1.57943
1.73098
1.92932
2.16702
2.4105
2.58723
2.58706
2.34641
2.04992
1.8069
1.61033
1.45335
1.32911
1.23093
1.15316
1.08803
1.0275
0.974677
0.931555
0.894267
0.859343
0.824877
0.789089
0.749707
0.703786
0.647815
0.566919
0.440141
0.198216
0.700764
0.769646
0.841066
0.913793
0.986542
1.05816
1.12794
1.19618
1.26494
1.33919
1.42762
1.54214
1.69417
1.88673
2.10437
2.30365
2.41151
2.36025
2.12942
1.8723
1.6638
1.49791
1.36748
1.26599
1.18423
1.11486
1.05342
1.00143
0.958458
0.923007
0.892004
0.862864
0.833587
0.802068
0.765681
0.721011
0.664512
0.583795
0.457002
0.209575
0.695425
0.761192
0.829029
0.897759
0.966184
1.03328
1.09857
1.16262
1.22795
1.29987
1.38704
1.50026
1.64772
1.82726
2.01458
2.16454
2.22282
2.14952
1.9523
1.73597
1.5551
1.41343
1.30433
1.21742
1.14165
1.07832
1.02685
0.985707
0.95235
0.924183
0.89893
0.87474
0.849748
0.821734
0.78789
0.74445
0.686721
0.604618
0.477871
0.223148
0.689227
0.751809
0.816033
0.880796
0.944999
1.00776
1.06879
1.12894
1.19096
1.2603
1.34508
1.45462
1.59326
1.75176
1.90446
2.01287
2.03939
1.96654
1.80886
1.6295
1.47022
1.34423
1.24659
1.16704
1.10252
1.05134
1.01189
0.981365
0.95652
0.934789
0.914582
0.894573
0.873078
0.847884
0.816141
0.773927
0.715832
0.634659
0.50619
0.237705
0.682585
0.742004
0.802681
0.863598
0.923773
0.982463
1.03955
1.09606
1.15493
1.22154
1.30271
1.40514
1.5294
1.66401
1.78499
1.86228
1.87143
1.80536
1.6819
1.53557
1.4001
1.28908
1.20081
1.13121
1.07756
1.03765
1.00875
0.987245
0.969541
0.953293
0.937415
0.920941
0.9023
0.879251
0.848888
0.807397
0.749878
0.6702
0.543487
0.25459
0.675897
0.732263
0.789546
0.846839
0.903288
0.958248
1.01175
1.06494
1.12061
1.18343
1.25903
1.35153
1.45899
1.56972
1.66349
1.71825
1.71915
1.66355
1.56627
1.4503
1.33951
1.24567
1.16965
1.10982
1.06534
1.03434
1.01384
0.999846
0.988328
0.97699
0.965055
0.951819
0.93574
0.914453
0.884888
0.843273
0.785073
0.703988
0.573586
0.270893
0.669548
0.723045
0.777167
0.831082
0.884043
0.935567
0.985772
1.03577
1.08802
1.14634
1.21487
1.29574
1.38572
1.4743
1.54564
1.58436
1.58211
1.53836
1.4632
1.37342
1.28555
1.20889
1.14543
1.09547
1.05942
1.03577
1.02214
1.01485
1.00931
1.00285
0.995009
0.985287
0.972101
0.952923
0.924491
0.882887
0.823248
0.738272
0.594754
0.279112
0.663674
0.714531
0.765761
0.816615
0.866447
0.914881
0.96207
1.00899
1.05766
1.11094
1.17159
1.24032
1.31356
1.38266
1.43597
1.46333
1.46037
1.4273
1.37121
1.30366
1.23591
1.17502
1.1236
1.08329
1.05508
1.03795
1.03027
1.02907
1.02964
1.02846
1.02529
1.01986
1.01046
0.994334
0.967962
0.9271
0.866245
0.776582
0.619261
0.287555
0.658344
0.706851
0.755521
0.803685
0.850783
0.896506
0.940988
0.985006
1.03006
1.07813
1.13081
1.18793
1.24615
1.29885
1.33793
1.35702
1.3542
1.32998
1.28937
1.24
1.18932
1.14253
1.10233
1.07084
1.0497
1.03867
1.03665
1.04117
1.0477
1.05224
1.05458
1.0545
1.05005
1.0381
1.01472
0.97513
0.913126
0.8189
0.649586
0.299615
0.653541
0.700032
0.746515
0.792394
0.837178
0.880591
0.922708
0.964069
1.00568
1.04874
1.094
1.14079
1.18629
1.22573
1.25377
1.26668
1.26396
1.24642
1.21755
1.18228
1.14545
1.11074
1.08073
1.05728
1.04231
1.03687
1.04036
1.05057
1.06273
1.07327
1.08205
1.08849
1.09023
1.08366
1.06417
1.02623
0.962775
0.863268
0.683186
0.313141
0.649153
0.69398
0.73867
0.782687
0.82559
0.867109
0.907236
0.946276
0.984796
1.02339
1.06222
1.1004
1.13571
1.16485
1.18452
1.19272
1.18972
1.17666
1.15598
1.13095
1.1047
1.07978
1.05834
1.04212
1.03286
1.03251
1.04128
1.05672
1.07405
1.09095
1.10707
1.12118
1.13047
1.13068
1.11636
1.0809
1.01595
0.909035
0.717216
0.326387
0.644958
0.688474
0.731764
0.774339
0.815789
0.855836
0.894377
0.931506
0.967438
1.00233
1.03595
1.0674
1.09497
1.11651
1.13004
1.13468
1.1311
1.12061
1.10511
1.08686
1.068
1.0503
1.03546
1.02524
1.02138
1.02577
1.03911
1.05855
1.08083
1.10457
1.12874
1.1516
1.16985
1.17857
1.17138
1.1405
1.07579
0.959298
0.750787
0.340481
0.640624
0.683163
0.725424
0.766955
0.807363
0.846347
0.88372
0.919395
0.953326
0.985366
1.01508
1.04161
1.06369
1.07992
1.08922
1.09133
1.08708
1.07784
1.06519
1.0509
1.03654
1.02347
1.01311
1.00716
1.00757
1.01583
1.03213
1.05486
1.08223
1.11289
1.14551
1.1779
1.20631
1.22519
1.22737
1.20425
1.14513
1.02212
0.790076
0.350041
0.63572
0.677573
0.719135
0.759979
0.799718
0.838027
0.874639
0.909331
0.941871
0.971925
0.998957
1.02218
1.04066
1.05351
1.06018
1.06073
1.05598
1.04723
1.03593
1.02355
1.01137
1.00058
0.992576
0.988975
0.991525
1.00167
1.01972
1.04524
1.07716
1.11437
1.15537
1.19751
1.23644
1.26595
1.27805
1.2634
1.21184
1.09349
0.841524
0.373353
0.629728
0.671125
0.712256
0.75271
0.792101
0.830076
0.866307
0.900469
0.932204
0.961069
0.986487
1.00777
1.02419
1.0352
1.04053
1.04037
1.03547
1.027
1.01625
1.00453
0.992991
0.982765
0.975244
0.97201
0.974626
0.984583
1.00291
1.02992
1.06528
1.10819
1.1569
1.2082
1.25693
1.29581
1.31559
1.30526
1.25231
1.13882
0.902566
0.468826
0.62207
0.663164
0.704052
0.744332
0.783619
0.821538
0.857714
0.891753
0.923215
0.95159
0.976296
0.996734
1.01235
1.02272
1.02772
1.02758
1.02295
1.01483
1.0044
0.992817
0.981144
0.970447
0.962015
0.957399
0.958253
0.966312
0.983228
1.01015
1.04749
1.09475
1.15005
1.20956
1.26714
1.3143
1.34056
1.33379
1.28077
1.16722
0.951534
0.490423
0.612153
0.653
0.693732
0.733957
0.773289
0.811337
0.847698
0.881935
0.913565
0.942045
0.96681
0.987335
1.00313
1.01383
1.01933
1.01982
1.01585
1.00827
0.998271
0.986797
0.974683
0.962904
0.952683
0.945555
0.943331
0.948131
0.96221
0.987503
1.02521
1.0753
1.13592
1.20278
1.26887
1.32463
1.3587
1.35835
1.31092
1.20204
0.993342
0.512174
0.599413
0.639962
0.680516
0.72069
0.760096
0.798339
0.835
0.869627
0.901726
0.930761
0.956176
0.977462
0.994178
1.00597
1.01266
1.01437
1.01154
1.00497
0.995657
0.98435
0.971729
0.958655
0.946266
0.936095
0.930119
0.930799
0.940926
0.963226
0.999767
1.0512
1.11591
1.1894
1.26399
1.3293
1.37312
1.38232
1.3436
1.24047
1.03167
0.531617
0.583376
0.623466
0.663699
0.7037
0.743082
0.781448
0.818377
0.853418
0.886082
0.915855
0.942207
0.964625
0.982659
0.995944
1.00427
1.00777
1.00679
1.00183
0.993559
0.982747
0.969914
0.955724
0.941266
0.92806
0.918171
0.914303
0.919738
0.937984
0.972054
1.02344
1.09103
1.1703
1.2531
1.32859
1.38345
1.40353
1.37417
1.27634
1.06592
0.552268
0.563719
0.603076
0.642729
0.682309
0.721435
0.75971
0.796718
0.832013
0.865121
0.895547
0.922781
0.946322
0.965707
0.980561
0.990758
0.996387
0.997618
0.994804
0.988352
0.978709
0.966273
0.951612
0.935678
0.919902
0.906364
0.897942
0.89834
0.9118
0.94233
0.99242
1.06163
1.14559
1.23611
1.32169
1.38769
1.41859
1.39815
1.30525
1.09403
0.573085
0.540329
0.57858
0.617283
0.656076
0.694585
0.732417
0.769162
0.804384
0.837623
0.868399
0.896221
0.920605
0.9411
0.957443
0.969612
0.977518
0.98122
0.980903
0.976787
0.969036
0.957857
0.943625
0.927085
0.909525
0.892965
0.880368
0.875759
0.88403
0.910182
0.957838
1.02744
1.11483
1.21239
1.30736
1.38374
1.42458
1.41228
1.3244
1.11404
0.591513
0.513352
0.550045
0.587338
0.624878
0.662299
0.699216
0.735226
0.769905
0.802806
0.83347
0.861423
0.886202
0.907555
0.925393
0.939484
0.949693
0.955985
0.958385
0.956926
0.951581
0.94233
0.929313
0.913039
0.894578
0.875817
0.859726
0.850523
0.853569
0.87472
0.918834
0.987794
1.0781
1.18159
1.28463
1.36986
1.41906
1.41389
1.33131
1.12396
0.605653
0.483227
0.517866
0.55323
0.588981
0.624765
0.660205
0.69491
0.72847
0.760452
0.790434
0.817934
0.842848
0.864992
0.884077
0.899883
0.912251
0.921065
0.926218
0.927569
0.924911
0.918024
0.906817
0.891528
0.87298
0.852919
0.834319
0.821451
0.819754
0.835428
0.874198
0.939283
1.03041
1.13948
1.25001
1.34291
1.39903
1.40003
1.32322
1.12143
0.614037
0.450694
0.482779
0.515682
0.549084
0.582646
0.616003
0.64878
0.68059
0.710983
0.739695
0.766645
0.791511
0.814021
0.833942
0.851083
0.865274
0.876347
0.884094
0.888234
0.888402
0.884193
0.875279
0.861616
0.843798
0.823562
0.804008
0.789297
0.78442
0.795235
0.827606
0.886303
0.974503
1.08612
1.20165
1.29935
1.36069
1.36735
1.29724
1.10405
0.615213
0.41675
0.445839
0.47579
0.506316
0.537098
0.567777
0.597992
0.627482
0.65607
0.683473
0.709419
0.733654
0.755964
0.776167
0.794109
0.809636
0.822561
0.832625
0.839469
0.842621
0.841518
0.835591
0.824472
0.808613
0.790012
0.771889
0.758196
0.753435
0.762781
0.791689
0.845549
0.926992
1.03124
1.14352
1.241
1.30383
1.31485
1.25221
1.07054
0.607855
0.382568
0.408331
0.434944
0.46216
0.48972
0.517383
0.544914
0.572015
0.598435
0.623927
0.648263
0.671249
0.692728
0.712579
0.730706
0.747005
0.761333
0.773471
0.783095
0.789734
0.792727
0.7912
0.784327
0.772577
0.758086
0.744126
0.734429
0.733025
0.744695
0.773986
0.824844
0.898309
0.990463
1.09001
1.17742
1.23525
1.24725
1.1911
1.02211
0.591174
0.349681
0.37202
0.395202
0.419036
0.44331
0.467805
0.49229
0.516523
0.540272
0.563324
0.585496
0.606645
0.626678
0.645548
0.663248
0.679785
0.695166
0.709376
0.72233
0.733743
0.74284
0.748161
0.748126
0.743059
0.734971
0.727105
0.722467
0.725367
0.740951
0.772796
0.821832
0.886807
0.964707
1.04615
1.11708
1.16474
1.17342
1.12056
0.962503
0.564713
0.319347
0.338383
0.35819
0.37862
0.399506
0.420659
0.44188
0.462964
0.483711
0.503946
0.523528
0.542367
0.560441
0.577796
0.594559
0.610947
0.627286
0.644027
0.661645
0.680187
0.698397
0.713482
0.722685
0.726168
0.725622
0.723473
0.72289
0.728941
0.747029
0.77954
0.82567
0.882581
0.945875
1.0087
1.06301
1.09857
1.10019
1.0462
0.893583
0.528737
0.291957
0.307939
0.324575
0.341754
0.359345
0.377194
0.395136
0.413
0.430622
0.447862
0.46462
0.480863
0.496642
0.512125
0.527639
0.543737
0.561306
0.581637
0.606105
0.634898
0.665211
0.691926
0.711445
0.722939
0.728867
0.731077
0.732814
0.740027
0.758213
0.788239
0.828143
0.875233
0.92525
0.972889
1.01272
1.03556
1.02704
0.966254
0.812336
0.489835
0.267609
0.280877
0.294662
0.308882
0.323435
0.3382
0.353042
0.367823
0.38241
0.396697
0.410625
0.424212
0.437593
0.451086
0.465288
0.481249
0.500708
0.52618
0.560042
0.601764
0.645483
0.683112
0.711124
0.729268
0.739915
0.744915
0.747103
0.753591
0.769579
0.794345
0.825793
0.861849
0.899326
0.934243
0.961208
0.97114
0.950472
0.879935
0.728419
0.445064
0.246151
0.25709
0.26841
0.280052
0.291936
0.303969
0.316043
0.328049
0.339881
0.351465
0.362774
0.373879
0.385002
0.396631
0.409706
0.425943
0.44818
0.480331
0.525269
0.58049
0.636154
0.682096
0.715357
0.738613
0.753506
0.759892
0.761011
0.764677
0.775461
0.792752
0.815287
0.841219
0.86781
0.891201
0.905583
0.902066
0.868642
0.790978
0.653854
0.39239
0.227242
0.236237
0.245497
0.254976
0.264615
0.274342
0.284074
0.293725
0.303216
0.312497
0.321575
0.330564
0.339767
0.349852
0.362145
0.379205
0.405035
0.444628
0.499967
0.565368
0.629291
0.681341
0.719045
0.746623
0.765563
0.773283
0.77226
0.770849
0.77437
0.783416
0.79719
0.813748
0.830187
0.8424
0.844608
0.829408
0.789164
0.717905
0.605248
0.329222
0.210431
0.217838
0.225418
0.233137
0.240955
0.248816
0.256661
0.264424
0.272051
0.279512
0.286843
0.2942
0.301943
0.310902
0.322731
0.34053
0.369247
0.41427
0.476617
0.549036
0.619352
0.676902
0.719188
0.750852
0.773522
0.78369
0.780997
0.773814
0.769243
0.769522
0.774369
0.781803
0.78882
0.791664
0.786025
0.767916
0.734739
0.680762
0.574807
0.25822
0.195226
0.201347
0.207577
0.213895
0.220274
0.226678
0.233067
0.239396
0.24563
0.251758
0.257831
0.264019
0.270736
0.278869
0.2902
0.30804
0.337603
0.384428
0.449606
0.526085
0.601702
0.665004
0.712128
0.747584
0.77389
0.788438
0.787472
0.776897
0.765553
0.757736
0.754343
0.754061
0.754562
0.753434
0.748364
0.737004
0.714513
0.664205
0.540522
0.192425
0.181147
0.186218
0.19136
0.196564
0.201817
0.207102
0.212396
0.217679
0.222933
0.228165
0.233435
0.238914
0.244999
0.252519
0.263125
0.279861
0.307586
0.351902
0.415164
0.492282
0.571899
0.641509
0.694258
0.733124
0.762027
0.780827
0.786473
0.779281
0.766366
0.754278
0.745746
0.740914
0.73846
0.73678
0.733233
0.723371
0.696616
0.629415
0.47883
0.143367
0.167756
0.171944
0.176189
0.180491
0.184852
0.189272
0.193751
0.198288
0.202889
0.207576
0.212413
0.217555
0.223333
0.230427
0.240152
0.25491
0.278638
0.316511
0.372492
0.44504
0.525421
0.601133
0.661362
0.704593
0.735567
0.755294
0.765579
0.766695
0.759956
0.749941
0.74108
0.73459
0.729318
0.723595
0.713577
0.692474
0.646052
0.550352
0.379624
0.114117
0.154716
0.158123
0.161586
0.165116
0.168729
0.172443
0.176278
0.180257
0.184408
0.188773
0.193421
0.198485
0.204223
0.211131
0.220138
0.232875
0.251988
0.281311
0.325202
0.385802
0.459427
0.536277
0.604338
0.655154
0.689925
0.71426
0.729087
0.735155
0.733783
0.727594
0.719538
0.711058
0.701811
0.688483
0.665034
0.624208
0.55098
0.430315
0.267137
0.0889653
0.141829
0.144494
0.14722
0.150028
0.152944
0.156002
0.15924
0.162704
0.166449
0.170541
0.175068
0.180157
0.186018
0.19302
0.201801
0.213365
0.229056
0.250742
0.281272
0.323828
0.380059
0.446914
0.516131
0.577232
0.622875
0.653462
0.672887
0.683438
0.686373
0.683318
0.675897
0.664289
0.647927
0.622637
0.58226
0.519899
0.427916
0.31051
0.191383
0.0726446
0.129089
0.131005
0.132983
0.135047
0.137229
0.139572
0.142127
0.144957
0.148141
0.151772
0.155973
0.160904
0.166799
0.174032
0.183213
0.195079
0.209764
0.227087
0.247907
0.27533
0.312865
0.361815
0.418752
0.476237
0.526434
0.564427
0.590342
0.606164
0.61349
0.612933
0.604594
0.588201
0.562892
0.525369
0.472322
0.400627
0.312891
0.221657
0.148238
0.0614138
0.116733
0.117876
0.119068
0.120328
0.121687
0.12318
0.124858
0.126782
0.129034
0.131722
0.134995
0.139066
0.144276
0.151239
0.161157
0.175567
0.192464
0.209124
0.22527
0.242824
0.264935
0.29457
0.332416
0.375413
0.417978
0.45491
0.48327
0.502426
0.512459
0.513265
0.504373
0.485508
0.455886
0.414458
0.360933
0.296849
0.230021
0.170195
0.120579
0.057543
0.105253
0.105628
0.106022
0.106443
0.106905
0.107424
0.108022
0.10873
0.109587
0.110654
0.112019
0.113834
0.116397
0.120483
0.128992
0.15257
0.175377
0.194361
0.209279
0.222218
0.23585
0.252926
0.275446
0.30331
0.333826
0.362999
0.387389
0.404924
0.41462
0.415871
0.408015
0.390577
0.363213
0.326072
0.280458
0.230494
0.180724
0.122378
0.102787
0.0872577
)
;

boundaryField
{
    leftWall
    {
        type            kqRWallFunction;
        value           nonuniform 0();
    }
    rightWall
    {
        type            kqRWallFunction;
        value           nonuniform List<scalar> 
43
(
0.18774
0.190993
0.198216
0.209575
0.223148
0.237705
0.25459
0.270893
0.279112
0.287555
0.299615
0.313141
0.326387
0.340481
0.350041
0.373353
0.468826
0.490423
0.512174
0.531617
0.552268
0.573085
0.591513
0.605653
0.614037
0.615213
0.607855
0.591174
0.564713
0.528737
0.489835
0.445064
0.39239
0.329222
0.25822
0.192425
0.143367
0.114117
0.0889653
0.0726446
0.0614138
0.057543
0.0872577
)
;
    }
    lowerWall
    {
        type            kqRWallFunction;
        value           nonuniform 0();
    }
    atmosphere
    {
        type            inletOutlet;
        inletValue      uniform 0.1;
        value           nonuniform List<scalar> 
45
(
0.1
0.1
0.1
0.1
0.1
0.1
0.1
0.1
0.1
0.1
0.1
0.1
0.1
0.1
0.1
0.1
0.1
0.1
0.1
0.1
0.15257
0.175377
0.194361
0.209279
0.222218
0.23585
0.252926
0.275446
0.30331
0.333826
0.362999
0.387389
0.404924
0.41462
0.415871
0.408015
0.390577
0.363213
0.326072
0.280458
0.230494
0.180724
0.1
0.1
0.1
)
;
    }
    defaultFaces
    {
        type            empty;
    }
    procBoundary3to1
    {
        type            processor;
        value           nonuniform List<scalar> 
45
(
0.427158
0.471562
0.520506
0.575284
0.635738
0.704981
0.783845
0.867511
0.954744
1.04415
1.13426
1.22367
1.31129
1.39686
1.48171
1.57
1.6702
1.79593
1.96463
2.19209
2.48348
2.82593
3.17805
3.3447
2.9844
2.54691
2.19069
1.90387
1.67495
1.49394
1.35204
1.24127
1.15444
1.07973
1.00982
0.94549
0.886732
0.831525
0.777681
0.724987
0.672652
0.607325
0.521018
0.406776
0.187637
)
;
    }
    procBoundary3to2
    {
        type            processor;
        value           nonuniform List<scalar> 
43
(
0.392409
0.396546
0.400245
0.403574
0.406597
0.409371
0.41194
0.414338
0.416592
0.418643
0.420385
0.421682
0.42237
0.422252
0.421111
0.418713
0.414821
0.409218
0.401723
0.392221
0.38068
0.36718
0.351919
0.335218
0.317505
0.299282
0.281073
0.263495
0.247036
0.231867
0.218022
0.205428
0.193932
0.183331
0.173408
0.163949
0.154772
0.145729
0.136745
0.127833
0.119114
0.110826
0.103318
)
;
    }
}


// ************************************************************************* //
