/*--------------------------------*- C++ -*----------------------------------*\
| =========                 |                                                 |
| \\      /  F ield         | OpenFOAM: The Open Source CFD Toolbox           |
|  \\    /   O peration     | Version:  5.0                                   |
|   \\  /    A nd           | Web:      www.OpenFOAM.org                      |
|    \\/     M anipulation  |                                                 |
\*---------------------------------------------------------------------------*/
FoamFile
{
    version     2.0;
    format      ascii;
    class       volScalarField;
    location    "0.65";
    object      p;
}
// * * * * * * * * * * * * * * * * * * * * * * * * * * * * * * * * * * * * * //

dimensions      [1 -1 -2 0 0 0 0];

internalField   nonuniform List<scalar> 
1935
(
-2.14717
-2.22385
-2.30264
-2.38193
-2.46066
-2.53876
-2.61601
-2.69231
-2.76758
-2.84185
-2.91522
-2.98787
-3.06005
-3.13205
-3.20417
-3.27675
-3.35009
-3.42446
-3.50006
-3.57707
-3.6556
-3.7357
-3.81739
-3.90067
-3.98549
-4.07177
-4.1594
-4.24824
-4.33814
-4.42901
-4.52077
-4.61339
-4.70681
-4.801
-4.89591
-4.99153
-5.08787
-5.18497
-5.28288
-5.38165
-5.48128
-5.58167
-5.68353
-2.16096
-2.17891
-2.20047
-2.22484
-2.23927
-2.25961
-2.2837
-2.3113
-2.31984
-2.34166
-2.36772
-2.39802
-2.40052
-2.42372
-2.45154
-2.48422
-2.48049
-2.50498
-2.53436
-2.56901
-2.55951
-2.58501
-2.61556
-2.65167
-2.63735
-2.66347
-2.69473
-2.7317
-2.71385
-2.74014
-2.77158
-2.80875
-2.78891
-2.81491
-2.84598
-2.88268
-2.86255
-2.88778
-2.91791
-2.95349
-2.93488
-2.95886
-2.98751
-3.02137
-3.00611
-3.02839
-3.05507
-3.08667
-3.07654
-3.09674
-3.12104
-3.14994
-3.14654
-3.16439
-3.18599
-3.21186
-3.21653
-3.23186
-3.25057
-3.2732
-3.28694
-3.29969
-3.31544
-3.33476
-3.35816
-3.36837
-3.38122
-3.39727
-3.43053
-3.43836
-3.44846
-3.4614
-3.50435
-3.51003
-3.51763
-3.52772
-3.57983
-3.58367
-3.58912
-3.5967
-3.65712
-3.65947
-3.66317
-3.66868
-3.73629
-3.73752
-3.73989
-3.7438
-3.81735
-3.81782
-3.81927
-3.82202
-3.90029
-3.90034
-3.90123
-3.90316
-3.98507
-3.98502
-3.98563
-3.98704
-4.07157
-4.07168
-4.07226
-4.07338
-4.15958
-4.16004
-4.16079
-4.16183
-4.24884
-4.24972
-4.25075
-4.25188
-4.33909
-4.34032
-4.34163
-4.34293
-4.43013
-4.43154
-4.43303
-4.43451
-4.52188
-4.52328
-4.5248
-4.52639
-4.61433
-4.61557
-4.617
-4.61857
-4.70754
-4.70854
-4.70978
-4.71125
-4.80154
-4.80231
-4.80334
-4.80464
-4.89632
-4.89693
-4.89778
-4.8989
-4.99189
-4.99241
-4.99313
-4.9941
-5.08824
-5.08872
-5.08938
-5.09022
-5.18536
-5.18585
-5.18646
-5.18721
-5.28329
-5.28378
-5.28436
-5.28504
-5.38206
-5.38253
-5.38307
-5.38367
-5.48166
-5.48209
-5.48256
-5.48308
-5.582
-5.58236
-5.58277
-5.58319
-5.68378
-5.68404
-5.68433
-5.68462
-2.2541
-2.29006
-2.33298
-2.38531
-2.45042
-2.53267
-2.63736
-2.77024
-2.93706
-3.14288
-3.39097
-3.68106
-4.00704
-4.35468
-4.70187
-5.0394
-5.40706
-5.65471
-4.45214
-4.9033
3.77045
17.581
22.3687
25.8094
29.5892
25.7991
4.69553
-2.33033
-2.35037
-2.21086
-2.21275
-2.22945
-2.20809
-2.18018
-2.15602
-2.08735
-2.32826
-10.6204
-23.5571
1.33975
-2.34487
-2.38671
-2.43729
-2.49943
-2.57682
-2.67401
-2.79634
-2.94952
-3.13909
-3.36957
-3.64308
-3.95735
-4.30409
-4.66931
-5.03675
-5.40387
-5.80558
-6.27361
-6.5852
-4.00016
6.56701
13.1914
14.1383
14.0784
10.1622
-0.0410718
-2.63731
-2.75954
-2.56955
-2.39118
-2.34203
-2.31999
-2.29519
-2.2767
-2.25039
-2.17354
-2.39574
-5.51564
-20.9239
-6.55477
-2.43538
-2.48254
-2.54015
-2.61132
-2.69986
-2.81027
-2.94763
-3.11722
-3.32393
-3.57123
-3.85957
-4.18428
-4.53431
-4.89431
-5.25089
-5.59933
-5.9547
-6.449
-7.78301
-5.59573
3.17137
8.24948
6.83139
1.75676
-3.39522
-3.0398
-2.98019
-2.86684
-2.68522
-2.55395
-2.48541
-2.43894
-2.40181
-2.37795
-2.36508
-2.33193
-2.32818
-2.8554
-13.2347
-9.44852
-2.52488
-2.57668
-2.64037
-2.71923
-2.81703
-2.93805
-3.08694
-3.26835
-3.48617
-3.74241
-4.03538
-4.3577
-4.69547
-5.03083
-5.34865
-5.64105
-5.91754
-6.2832
-7.13814
-6.72755
-4.40223
-1.37362
-2.85434
-3.4813
-3.38382
-3.31432
-3.13149
-2.96721
-2.8117
-2.69408
-2.61248
-2.55094
-2.50259
-2.46919
-2.45014
-2.42092
-2.35131
-2.58208
-9.93201
-9.01272
-2.61238
-2.66794
-2.73649
-2.82133
-2.92609
-3.0547
-3.21129
-3.3997
-3.6227
-3.88066
-4.16972
-4.48015
-4.79588
-5.09731
-5.3678
-5.59859
-5.80045
-6.05087
-6.38797
-6.15693
-5.69053
-5.02585
-3.89791
-3.64251
-3.53923
-3.40305
-3.22495
-3.06378
-2.92274
-2.80834
-2.71937
-2.64866
-2.59213
-2.55058
-2.52302
-2.48707
-2.41237
-2.53001
-6.32768
-6.49653
-2.69701
-2.75527
-2.82723
-2.91613
-3.02537
-3.15849
-3.31898
-3.50984
-3.73263
-3.98621
-4.26493
-4.55738
-4.84644
-5.11193
-5.33642
-5.51305
-5.65862
-5.82106
-5.80792
-5.53477
-5.19561
-4.82021
-4.37576
-3.97724
-3.72103
-3.50001
-3.30607
-3.14588
-3.01065
-2.89869
-2.80756
-2.73292
-2.67217
-2.62624
-2.59576
-2.56435
-2.50491
-2.60379
-3.88407
-1.82413
-2.77817
-2.83795
-2.91177
-3.00276
-3.11401
-3.24864
-3.40952
-3.59877
-3.81684
-4.0613
-4.32532
-4.59669
-4.85812
-5.08985
-5.27458
-5.40505
-5.49266
-5.55074
-5.47437
-5.26169
-5.01816
-4.74197
-4.44568
-4.12657
-3.82837
-3.56504
-3.35662
-3.20029
-3.07524
-2.97016
-2.8807
-2.80537
-2.7432
-2.69642
-2.66953
-2.66017
-2.64573
-2.6502
-3.28664
-0.470073
-2.85549
-2.91561
-2.98977
-3.08093
-3.19184
-3.32524
-3.48336
-3.66754
-3.87731
-4.10929
-4.35612
-4.60571
-4.84165
-5.04549
-5.20119
-5.30158
-5.3527
-5.34232
-5.25254
-5.09421
-4.90329
-4.69264
-4.47677
-4.21283
-3.91117
-3.62863
-3.39612
-3.23112
-3.11942
-3.02732
-2.94209
-2.86665
-2.80259
-2.75252
-2.72189
-2.7112
-2.69589
-2.64337
-2.99239
-0.87461
-2.92882
-2.98815
-3.06121
-3.15075
-3.25927
-3.38901
-3.54169
-3.71797
-3.9167
-4.13407
-4.36273
-4.59133
-4.80497
-4.98716
-5.12353
-5.20679
-5.23789
-5.20535
-5.1117
-4.97888
-4.81772
-4.64707
-4.47496
-4.25559
-3.99304
-3.73214
-3.47504
-3.27443
-3.15852
-3.07836
-2.99655
-2.91946
-2.85152
-2.79516
-2.75507
-2.73126
-2.69887
-2.62688
-2.82759
-0.729118
-2.99823
-3.05571
-3.1264
-3.21277
-3.31706
-3.44113
-3.58625
-3.75256
-3.93849
-4.14009
-4.35042
-4.55922
-4.75334
-4.91844
-5.04168
-5.11502
-5.136
-5.1028
-5.01987
-4.89983
-4.75269
-4.59556
-4.44551
-4.28299
-4.06687
-3.82244
-3.57145
-3.35037
-3.21825
-3.13448
-3.04946
-2.9675
-2.89348
-2.82939
-2.77859
-2.74101
-2.69554
-2.61936
-2.74866
-0.80496
-3.06398
-3.11873
-3.18596
-3.26791
-3.36652
-3.48336
-3.61931
-3.7742
-3.94626
-4.13164
-4.32401
-4.5143
-4.69118
-4.84231
-4.95639
-5.02531
-5.04582
-5.01798
-4.94652
-4.83959
-4.70453
-4.55131
-4.41024
-4.2998
-4.1305
-3.88108
-3.62935
-3.43496
-3.307
-3.20064
-3.10313
-3.01259
-2.93062
-2.85824
-2.79798
-2.74963
-2.6951
-2.61771
-2.73707
-1.33697
-3.12653
-3.17783
-3.24077
-3.31736
-3.40925
-3.51772
-3.6434
-3.78591
-3.9435
-4.11263
-4.28767
-4.46074
-4.62218
-4.7615
-4.86881
-4.9365
-4.96092
-4.94178
-4.88275
-4.79025
-4.67032
-4.52867
-4.38372
-4.27876
-4.15426
-3.92481
-3.68073
-3.52742
-3.40083
-3.26948
-3.15556
-3.05422
-2.96307
-2.88204
-2.8131
-2.75615
-2.69535
-2.62205
-2.7658
-1.22631
-3.18657
-3.23384
-3.2919
-3.36248
-3.44697
-3.5464
-3.66119
-3.79083
-3.9337
-4.08672
-4.24507
-4.40206
-4.54945
-4.67833
-4.78013
-4.84791
-4.87771
-4.86857
-4.82287
-4.74557
-4.6422
-4.51707
-4.3774
-4.24694
-4.12596
-3.95273
-3.7739
-3.63051
-3.4771
-3.32973
-3.20325
-3.09145
-2.99065
-2.90017
-2.82106
-2.75336
-2.68766
-2.63267
-2.79355
0.122643
-3.24488
-3.28773
-3.34049
-3.40464
-3.48137
-3.5715
-3.67525
-3.79205
-3.92039
-4.05768
-4.19997
-4.34173
-4.47607
-4.59539
-4.69224
-4.76032
-4.79558
-4.79649
-4.76432
-4.70274
-4.6163
-4.50853
-4.3812
-4.24268
-4.1142
-3.9893
-3.85929
-3.70075
-3.53033
-3.37824
-3.24538
-3.12538
-3.01524
-2.91369
-2.81979
-2.73286
-2.65868
-2.62852
-2.6536
4.7909
-3.30238
-3.34055
-3.38774
-3.44524
-3.51405
-3.59485
-3.68775
-3.79214
-3.9066
-4.02892
-4.15592
-4.28323
-4.40525
-4.51555
-4.6076
-4.67564
-4.71569
-4.72595
-4.70701
-4.66156
-4.59332
-4.50282
-4.38928
-4.25979
-4.13153
-4.01873
-3.88956
-3.72834
-3.56744
-3.42094
-3.28672
-3.1614
-3.0431
-2.92965
-2.81662
-2.7007
-2.60587
-2.58544
-2.16267
13.0148
-3.36
-3.39338
-3.43491
-3.48567
-3.54655
-3.61812
-3.70049
-3.79306
-3.89453
-4.00292
-4.11562
-4.22933
-4.33979
-4.44159
-4.52891
-4.59629
-4.63995
-4.65822
-4.65146
-4.62173
-4.57114
-4.49505
-4.39129
-4.27138
-4.15212
-4.03559
-3.90326
-3.75649
-3.61002
-3.47011
-3.33687
-3.20922
-3.08603
-2.96484
-2.83933
-2.69892
-2.55818
-2.51252
-2.18303
13.1779
-3.41863
-3.44727
-3.4832
-3.52733
-3.58041
-3.64298
-3.71521
-3.7966
-3.88601
-3.98162
-4.08123
-4.18269
-4.28273
-4.37675
-4.4593
-4.52504
-4.57023
-4.59475
-4.59939
-4.58378
-4.54878
-4.48666
-4.39462
-4.28583
-4.17538
-4.06324
-3.93976
-3.80609
-3.66978
-3.53561
-3.40511
-3.27856
-3.15584
-3.03623
-2.91684
-2.79111
-2.66057
-2.60386
-2.77749
-2.07725
-3.47903
-3.50311
-3.53366
-3.57143
-3.61706
-3.67108
-3.7337
-3.80463
-3.883
-3.96716
-4.05526
-4.14572
-4.23612
-4.32281
-4.40086
-4.4647
-4.50944
-4.53978
-4.56096
-4.56271
-4.53662
-4.48515
-4.40998
-4.32033
-4.22217
-4.11709
-4.00303
-3.87973
-3.75201
-3.62395
-3.49778
-3.37467
-3.25548
-3.14082
-3.03042
-2.92273
-2.82009
-2.7448
-2.72722
-2.4566
-3.54188
-3.56167
-3.58713
-3.61892
-3.65761
-3.70367
-3.75737
-3.81865
-3.88692
-3.96066
-4.03835
-4.11899
-4.2008
-4.28055
-4.35502
-4.42024
-4.4699
-4.50713
-4.5379
-4.54999
-4.53413
-4.49777
-4.44234
-4.37207
-4.28918
-4.19578
-4.09219
-3.97951
-3.86106
-3.7403
-3.61974
-3.50122
-3.38621
-3.27571
-3.16952
-3.06625
-2.96288
-2.85084
-2.71665
-2.53249
-3.60774
-3.6236
-3.64434
-3.67057
-3.70284
-3.7416
-3.78714
-3.8395
-3.89837
-3.96277
-4.03111
-4.10231
-4.17601
-4.25026
-4.3229
-4.39192
-4.45188
-4.49365
-4.51967
-4.5377
-4.53721
-4.51838
-4.48553
-4.43696
-4.37309
-4.29599
-4.20708
-4.10784
-4.00091
-3.88931
-3.77575
-3.66251
-3.55152
-3.44363
-3.33792
-3.23139
-3.11712
-2.97731
-2.79404
-2.59707
-3.67705
-3.68942
-3.7059
-3.72707
-3.75348
-3.78562
-3.8238
-3.86812
-3.91841
-3.97407
-4.03409
-4.09764
-4.16406
-4.2327
-4.30235
-4.37134
-4.4367
-4.48553
-4.51491
-4.53786
-4.55195
-4.55358
-4.54358
-4.51815
-4.47644
-4.42011
-4.35024
-4.26808
-4.17574
-4.07586
-3.97102
-3.86381
-3.75657
-3.65021
-3.54343
-3.43245
-3.30892
-3.15312
-2.94737
-2.74074
-3.75002
-3.75945
-3.77223
-3.78894
-3.81017
-3.83644
-3.86814
-3.90545
-3.9483
-3.99638
-4.0491
-4.10593
-4.16651
-4.23022
-4.29568
-4.36123
-4.42451
-4.48061
-4.52488
-4.55857
-4.58846
-4.61168
-4.62259
-4.61961
-4.60228
-4.57047
-4.52406
-4.46339
-4.38973
-4.30499
-4.21118
-4.11083
-4.00705
-3.90181
-3.79392
-3.67922
-3.54917
-3.38389
-3.16575
-2.95322
-3.82657
-3.83365
-3.8434
-3.85637
-3.87318
-3.89443
-3.92056
-3.95189
-3.98848
-4.03023
-4.07687
-4.1281
-4.18364
-4.24296
-4.30511
-4.36876
-4.43211
-4.49265
-4.54777
-4.59802
-4.64444
-4.68501
-4.71715
-4.73925
-4.7498
-4.7472
-4.72985
-4.6964
-4.64692
-4.58221
-4.50249
-4.40911
-4.30763
-4.20371
-4.09557
-3.97826
-3.84343
-3.67165
-3.44457
-3.22241
-3.90648
-3.91174
-3.91911
-3.92909
-3.94231
-3.95941
-3.98092
-4.00726
-4.03863
-4.07511
-4.11664
-4.1631
-4.21434
-4.27007
-4.32975
-4.39252
-4.45715
-4.52213
-4.58615
-4.6489
-4.71023
-4.76927
-4.82462
-4.87467
-4.9173
-4.94969
-4.96826
-4.96891
-4.95054
-4.91264
-4.84986
-4.75961
-4.65732
-4.55762
-4.45199
-4.33334
-4.19474
-4.01838
-3.78589
-3.55481
-3.98946
-3.99335
-3.9989
-4.00658
-4.017
-4.0308
-4.04859
-4.07086
-4.09795
-4.13006
-4.16731
-4.20972
-4.2573
-4.30998
-4.36754
-4.42951
-4.49521
-4.56383
-4.63481
-4.70805
-4.78374
-4.86187
-4.942
-5.0229
-5.10203
-5.17522
-5.23672
-5.27854
-5.29858
-5.29413
-5.23772
-5.12888
-5.02785
-4.94874
-4.85886
-4.74377
-4.60205
-4.42232
-4.18895
-3.95428
-4.07519
-4.07809
-4.08231
-4.08828
-4.09659
-4.10787
-4.12274
-4.14175
-4.16535
-4.19384
-4.22745
-4.26636
-4.3107
-4.36054
-4.41591
-4.47668
-4.54266
-4.61371
-4.68999
-4.77221
-4.8615
-4.95907
-5.06553
-5.17988
-5.29863
-5.41732
-5.52894
-5.62344
-5.696
-5.73563
-5.7284
-5.65582
-5.52108
-5.40306
-5.31916
-5.20762
-5.05934
-4.87408
-4.643
-4.41098
-4.16329
-4.16554
-4.16886
-4.17364
-4.18043
-4.18983
-4.20246
-4.21889
-4.23963
-4.26507
-4.29553
-4.33126
-4.37249
-4.41939
-4.47216
-4.53095
-4.59603
-4.66794
-4.74779
-4.8375
-4.93975
-5.05733
-5.19146
-5.34042
-5.50277
-5.68073
-5.87272
-6.06461
-6.23058
-6.34314
-6.40646
-6.39092
-6.22249
-6.01113
-5.86103
-5.72006
-5.55003
-5.35169
-5.1234
-4.89896
-4.25322
-4.25516
-4.25795
-4.26199
-4.26775
-4.27581
-4.28674
-4.30113
-4.31949
-4.34228
-4.36987
-4.40255
-4.44056
-4.48417
-4.53364
-4.58938
-4.6521
-4.7231
-4.80474
-4.90066
-5.01566
-5.15389
-5.31551
-5.50156
-5.73034
-6.01624
-6.3346
-6.6381
-6.88161
-7.05207
-7.14516
-7.13337
-6.96696
-6.70241
-6.45847
-6.24637
-6.03393
-5.81374
-5.5876
-5.37267
-4.34436
-4.34623
-4.34882
-4.35246
-4.3576
-4.36472
-4.37437
-4.38711
-4.40346
-4.42386
-4.4487
-4.47827
-4.51282
-4.55259
-4.59791
-4.64938
-4.70818
-4.77657
-4.85847
-4.95987
-5.08778
-5.24627
-5.43432
-5.67787
-6.0186
-6.43734
-6.82712
-7.13877
-7.3661
-7.51805
-7.61538
-7.64379
-7.53686
-7.27932
-6.9762
-6.70183
-6.44445
-6.20222
-5.98017
-5.76356
-4.4361
-4.43808
-4.44066
-4.44416
-4.44893
-4.45541
-4.46408
-4.47544
-4.48998
-4.50812
-4.53022
-4.55654
-4.58727
-4.62262
-4.66294
-4.709
-4.76252
-4.82688
-4.90803
-5.01452
-5.15476
-5.33179
-5.55319
-5.88252
-6.35138
-6.81361
-7.16059
-7.43434
-7.65217
-7.80223
-7.88387
-7.89881
-7.81861
-7.60466
-7.3065
-7.00492
-6.71899
-6.4612
-6.24835
-5.98469
-4.52813
-4.53024
-4.5329
-4.53636
-4.5409
-4.54688
-4.55472
-4.56484
-4.57767
-4.59358
-4.61288
-4.63575
-4.66234
-4.69278
-4.72742
-4.76721
-4.81448
-4.87392
-4.95354
-5.06359
-5.21169
-5.40345
-5.67927
-6.09505
-6.61307
-7.01846
-7.32057
-7.59626
-7.82346
-7.97649
-8.04771
-8.03715
-7.93302
-7.72455
-7.44248
-7.13452
-6.8281
-6.54511
-6.30503
-6.01753
-4.62037
-4.62257
-4.62527
-4.62867
-4.63298
-4.63849
-4.64551
-4.65441
-4.66553
-4.67918
-4.69557
-4.71486
-4.73708
-4.76233
-4.79094
-4.82406
-4.86467
-4.91879
-4.99588
-5.10585
-5.25461
-5.46153
-5.79335
-6.26595
-6.73155
-7.06836
-7.36588
-7.6514
-7.88106
-8.03083
-8.09073
-8.05822
-7.93098
-7.71372
-7.42968
-7.10818
-6.77171
-6.4416
-6.1395
-5.85356
-4.713
-4.71516
-4.71779
-4.72103
-4.72503
-4.72999
-4.73614
-4.74376
-4.75311
-4.76442
-4.77786
-4.79347
-4.81127
-4.8313
-4.85391
-4.88038
-4.91449
-4.96313
-5.03609
-5.14137
-5.28576
-5.50771
-5.86692
-6.33058
-6.71072
-7.00818
-7.30519
-7.58521
-7.80668
-7.94722
-7.99558
-7.94827
-7.80699
-7.57982
-7.28405
-6.93944
-6.5579
-6.15068
-5.77524
-5.57312
-4.80625
-4.80826
-4.8107
-4.81365
-4.81721
-4.82149
-4.82667
-4.83292
-4.84044
-4.84937
-4.85981
-4.87177
-4.88522
-4.90021
-4.91725
-4.93702
-4.96509
-5.00772
-5.07373
-5.16922
-5.30428
-5.52156
-5.86715
-6.27474
-6.59512
-6.85861
-7.13037
-7.38857
-7.59211
-7.71968
-7.75776
-7.70167
-7.55274
-7.31758
-7.0088
-6.64021
-6.21581
-5.74813
-5.37077
-5.32168
-4.90032
-4.9021
-4.90425
-4.9068
-4.90981
-4.91332
-4.91744
-4.92225
-4.92789
-4.93442
-4.94189
-4.95027
-4.95952
-4.96965
-4.98116
-4.99566
-5.01722
-5.05202
-5.10708
-5.18677
-5.30166
-5.49173
-5.79497
-6.14497
-6.41461
-6.63068
-6.855
-7.0759
-7.25192
-7.36048
-7.38707
-7.32528
-7.17396
-6.93751
-6.62961
-6.26953
-5.86841
-5.46101
-5.20061
-5.2474
-4.99532
-4.99683
-4.99864
-5.00073
-5.00312
-5.00582
-5.00883
-5.01221
-5.01599
-5.02019
-5.02482
-5.02984
-5.03519
-5.04094
-5.04753
-5.05644
-5.0708
-5.09553
-5.13595
-5.19504
-5.28129
-5.43131
-5.67506
-5.97088
-6.19924
-6.36568
-6.52472
-6.68861
-6.82435
-6.90541
-6.9175
-6.85495
-6.71594
-6.50367
-6.2365
-5.93952
-5.62675
-5.35318
-5.27459
-5.36523
-5.09125
-5.09251
-5.09396
-5.0956
-5.09738
-5.09927
-5.10123
-5.10326
-5.10533
-5.10741
-5.10946
-5.11143
-5.11329
-5.11508
-5.11712
-5.1204
-5.12701
-5.14041
-5.16457
-5.20161
-5.25625
-5.35647
-5.5291
-5.7656
-5.97599
-6.10973
-6.20593
-6.30486
-6.3939
-6.44223
-6.44032
-6.38898
-6.28413
-6.11788
-5.91343
-5.70551
-5.52091
-5.39826
-5.38921
-5.44728
-5.18809
-5.18912
-5.19025
-5.19147
-5.19269
-5.19387
-5.19492
-5.19579
-5.19639
-5.19664
-5.19648
-5.19584
-5.19466
-5.19298
-5.19098
-5.18914
-5.18854
-5.19122
-5.20008
-5.21717
-5.2435
-5.29304
-5.39618
-5.55846
-5.73393
-5.873
-5.96515
-6.01436
-6.05569
-6.08014
-6.06663
-6.01784
-5.94159
-5.8298
-5.7105
-5.61506
-5.54981
-5.51637
-5.52252
-5.55329
-5.28578
-5.28661
-5.28748
-5.28835
-5.28912
-5.28973
-5.29007
-5.29003
-5.28949
-5.28832
-5.2864
-5.28362
-5.27993
-5.27536
-5.27008
-5.26436
-5.25849
-5.25318
-5.25036
-5.25252
-5.26079
-5.27682
-5.31827
-5.40701
-5.53117
-5.63874
-5.72405
-5.77977
-5.80304
-5.81506
-5.80149
-5.7628
-5.73299
-5.70108
-5.66052
-5.63882
-5.63075
-5.62696
-5.63213
-5.63844
-5.3843
-5.38497
-5.38563
-5.38623
-5.38668
-5.3869
-5.38676
-5.38612
-5.38483
-5.3827
-5.37955
-5.37519
-5.36954
-5.36267
-5.35496
-5.347
-5.33867
-5.32951
-5.32036
-5.31347
-5.31142
-5.31534
-5.32597
-5.35651
-5.42367
-5.50072
-5.55012
-5.57364
-5.59555
-5.63168
-5.66805
-5.69029
-5.70699
-5.70852
-5.70304
-5.70067
-5.69958
-5.69917
-5.69659
-5.69119
-5.48361
-5.48414
-5.48465
-5.48507
-5.48534
-5.48535
-5.48499
-5.48412
-5.48254
-5.48002
-5.47631
-5.47113
-5.46424
-5.4555
-5.44539
-5.43647
-5.42941
-5.42037
-5.41071
-5.40121
-5.39469
-5.3938
-5.39922
-5.40987
-5.43134
-5.4788
-5.52983
-5.56084
-5.5974
-5.64835
-5.68953
-5.71073
-5.72428
-5.73248
-5.73592
-5.73856
-5.7379
-5.73529
-5.72996
-5.72302
-5.58364
-5.58408
-5.58449
-5.58483
-5.58504
-5.58504
-5.58474
-5.58402
-5.58269
-5.58051
-5.57713
-5.57208
-5.56453
-5.55232
-5.53419
-5.52375
-5.5274
-5.52241
-5.51616
-5.51041
-5.50629
-5.50574
-5.51042
-5.52029
-5.5342
-5.5553
-5.58856
-5.63217
-5.66888
-5.69365
-5.71261
-5.72767
-5.73967
-5.74723
-5.74937
-5.7478
-5.74447
-5.74741
-5.75333
-5.74574
-5.68494
-5.68525
-5.68555
-5.6858
-5.68597
-5.68603
-5.6859
-5.68552
-5.68474
-5.68332
-5.68079
-5.67626
-5.66743
-5.64724
-5.60588
-5.59113
-5.59881
-5.60998
-5.61833
-5.62432
-5.62958
-5.63533
-5.6425
-5.65185
-5.66362
-5.6779
-5.69561
-5.71652
-5.73354
-5.74648
-5.75617
-5.76209
-5.76321
-5.75919
-5.75066
-5.73814
-5.72193
-5.72888
-5.78993
-5.75383
)
;

boundaryField
{
    leftWall
    {
        type            calculated;
        value           nonuniform 0();
    }
    rightWall
    {
        type            calculated;
        value           nonuniform List<scalar> 
43
(
1.33975
-6.55477
-9.44852
-9.01272
-6.49653
-1.82413
-0.470073
-0.87461
-0.729118
-0.80496
-1.33697
-1.22631
0.122643
4.7909
13.0148
13.1779
-2.07725
-2.4566
-2.53249
-2.59707
-2.74074
-2.95322
-3.22241
-3.55481
-3.95428
-4.41098
-4.89896
-5.37267
-5.76356
-5.98469
-6.01753
-5.85356
-5.57312
-5.32168
-5.2474
-5.36523
-5.44728
-5.55329
-5.63844
-5.69119
-5.72302
-5.74574
-5.75383
)
;
    }
    lowerWall
    {
        type            calculated;
        value           nonuniform 0();
    }
    atmosphere
    {
        type            calculated;
        value           nonuniform List<scalar> 
45
(
-5.73515
-5.73532
-5.7355
-5.73568
-5.73587
-5.73607
-5.73627
-5.73644
-5.73658
-5.73666
-5.73664
-5.73651
-5.73622
-5.73574
-5.73504
-5.73409
-5.73291
-5.73159
-5.73032
-5.72947
-5.72904
-5.72904
-5.72904
-5.72904
-5.72904
-5.72904
-5.72904
-5.72904
-5.72906
-5.72921
-5.73003
-5.73394
-5.74232
-5.73591
-5.73168
-5.73031
-5.72947
-5.72912
-5.72907
-5.72904
-5.72904
-5.72904
-5.72997
-5.73611
-5.74556
)
;
    }
    defaultFaces
    {
        type            empty;
    }
    procBoundary3to1
    {
        type            processor;
        value           nonuniform List<scalar> 
45
(
-2.07197
-2.08507
-2.1006
-2.11852
-2.13913
-2.16367
-2.19345
-2.22852
-2.27092
-2.32353
-2.39023
-2.47579
-2.58559
-2.72515
-2.89975
-3.11353
-3.36769
-3.65769
-3.96967
-4.27815
-4.55782
-4.78946
-4.79563
-4.03092
-3.51111
0.659452
17.5534
31.456
35.5438
40.771
50.1475
39.4404
6.36672
-0.48147
-1.76666
-2.12605
-2.21275
-2.18485
-2.12042
-2.08162
-2.08418
-2.51686
-15.9149
-12.9077
18.1848
)
;
    }
    procBoundary3to2
    {
        type            processor;
        value           nonuniform List<scalar> 
43
(
-2.137
-2.2138
-2.2912
-2.36865
-2.4462
-2.52344
-2.60015
-2.67622
-2.7516
-2.82632
-2.90048
-2.97423
-3.04774
-3.12127
-3.19503
-3.26928
-3.34422
-3.42007
-3.497
-3.57514
-3.65459
-3.73538
-3.81754
-3.90106
-3.98591
-4.07205
-4.15943
-4.24798
-4.33766
-4.42842
-4.52018
-4.61288
-4.70641
-4.80068
-4.89563
-4.99125
-5.08757
-5.18465
-5.28255
-5.38132
-5.48097
-5.58139
-5.68331
)
;
    }
}


// ************************************************************************* //
