/*--------------------------------*- C++ -*----------------------------------*\
| =========                 |                                                 |
| \\      /  F ield         | OpenFOAM: The Open Source CFD Toolbox           |
|  \\    /   O peration     | Version:  5.0                                   |
|   \\  /    A nd           | Web:      www.OpenFOAM.org                      |
|    \\/     M anipulation  |                                                 |
\*---------------------------------------------------------------------------*/
FoamFile
{
    version     2.0;
    format      ascii;
    class       volScalarField;
    location    "0.65";
    object      p_rgh;
}
// * * * * * * * * * * * * * * * * * * * * * * * * * * * * * * * * * * * * * //

dimensions      [1 -1 -2 0 0 0 0];

internalField   nonuniform List<scalar> 
1935
(
0.197113
0.18576
0.172901
0.160156
0.148583
0.138275
0.129432
0.122186
0.116608
0.112678
0.110299
0.109296
0.10943
0.110422
0.111962
0.11373
0.115429
0.116801
0.117635
0.117774
0.117114
0.115602
0.113224
0.109999
0.10598
0.10125
0.0959239
0.0901532
0.0840864
0.0778377
0.0714789
0.0650621
0.0586364
0.0522548
0.045964
0.039788
0.03372
0.02773
0.0217766
0.0158181
0.00986561
0.00402115
-0.00242579
0.183326
0.16537
0.143816
0.119443
0.17034
0.150001
0.12591
0.0983062
0.1557
0.133882
0.107824
0.0775245
0.141568
0.11836
0.0905402
0.0578654
0.12876
0.10427
0.07489
0.0402362
0.117522
0.0920251
0.0614707
0.025357
0.108092
0.0819763
0.0507147
0.0137497
0.100649
0.0743535
0.0429122
0.00574858
0.0952805
0.0692754
0.0382089
0.00151228
0.0919761
0.0667444
0.0366146
0.00103578
0.0906354
0.0666557
0.0380048
0.00414939
0.091058
0.0687754
0.0420957
0.0104968
0.0929465
0.0727393
0.0484455
0.0195431
0.0959303
0.0780804
0.0564844
0.0306105
0.0996008
0.0842762
0.0655688
0.0429331
0.103543
0.090798
0.0750456
0.0557262
0.107366
0.0971498
0.0843026
0.0682516
0.110728
0.102894
0.0927969
0.0798577
0.113348
0.107664
0.100064
0.0899812
0.115013
0.111175
0.105731
0.0981506
0.115589
0.11324
0.109545
0.104035
0.115013
0.113782
0.111408
0.1075
0.113268
0.112797
0.111341
0.1086
0.110376
0.110327
0.10944
0.107507
0.106395
0.106452
0.105839
0.104432
0.101448
0.10134
0.100754
0.0996356
0.095741
0.09528
0.0945276
0.0934909
0.0895455
0.0886656
0.0876373
0.0865136
0.0831371
0.0819064
0.0806013
0.079298
0.076718
0.0753029
0.0738149
0.0723324
0.070376
0.0689722
0.0674469
0.0658622
0.0641158
0.0628775
0.0614528
0.0598763
0.0579039
0.0569048
0.0556672
0.0541985
0.0517138
0.0509452
0.0499163
0.0486137
0.0455473
0.0449456
0.0440949
0.0429697
0.0394226
0.0389102
0.0381828
0.0372139
0.0333539
0.0328704
0.0322144
0.0313686
0.0273404
0.0268555
0.0262395
0.0254874
0.0213682
0.0208812
0.0202984
0.0196239
0.0154132
0.0149428
0.0144037
0.0138054
0.00948816
0.0090588
0.00858157
0.00806829
0.00369152
0.00332307
0.00292034
0.00249356
-0.00267121
-0.00293589
-0.00321955
-0.00351552
0.09018
0.0542238
0.0113015
-0.0410298
-0.106133
-0.188391
-0.293072
-0.425953
-0.592774
-0.79859
-1.04668
-1.33676
-1.66272
-2.01034
-2.3574
-2.69131
-3.05436
-3.308
-2.10561
37.0099
1418.07
1649.39
1664.18
1671.66
1691.73
1349.51
204.512
0.746337
0.0356866
0.131166
0.131356
0.114836
0.136189
0.164101
0.188267
0.256931
0.0160273
774.229
2292.21
2294.47
0.064734
0.0228947
-0.0276789
-0.0898261
-0.16721
-0.264404
-0.386734
-0.539912
-0.729479
-0.959953
-1.23346
-1.54773
-1.89446
-2.25968
-2.62691
-2.99076
-3.39186
-3.86249
-4.17408
260.771
1619.71
1676.63
1695.84
1656.88
1005.82
110.807
-0.0211421
-0.352684
-0.160298
0.0184051
0.0675136
0.0896156
0.114418
0.132907
0.159221
0.236069
0.0138656
131.729
2277.05
2224.45
0.0401613
-0.00700141
-0.0646089
-0.135782
-0.224317
-0.334729
-0.472091
-0.641682
-0.848386
-1.09569
-1.38403
-1.70874
-2.05876
-2.41875
-2.77432
-3.11927
-3.47538
-3.97222
-5.30592
200.011
1034.34
1600.42
1391.17
506.024
-0.394206
-0.525138
-0.511339
-0.391239
-0.209742
-0.0784071
-0.00987022
0.0365977
0.0737335
0.0975906
0.11046
0.143614
0.147363
-0.379864
2184.6
1843.16
0.0172042
-0.0345973
-0.098291
-0.17715
-0.274943
-0.395962
-0.544857
-0.726261
-0.944085
-1.20033
-1.49329
-1.81561
-2.15338
-2.48873
-2.80442
-3.09435
-3.3746
-3.73959
-4.28988
8.06163
111.028
359.889
104.621
-1.05827
-0.833772
-0.772785
-0.589335
-0.425152
-0.269615
-0.151999
-0.0703971
-0.00885856
0.0394935
0.0728931
0.0919439
0.121161
0.190779
-0.0399945
1739.56
1380.79
-0.00313622
-0.0586966
-0.127246
-0.212087
-0.316839
-0.445453
-0.602041
-0.790451
-1.01345
-1.27141
-1.56047
-1.8709
-2.18663
-2.48803
-2.75651
-2.98691
-3.19068
-3.42335
-1.706
-3.44932
-3.08073
-2.41657
-1.28811
-1.03232
-0.926257
-0.792734
-0.615655
-0.454507
-0.31349
-0.199088
-0.110118
-0.0394074
0.0171149
0.0586684
0.0862286
0.122176
0.196874
0.0792387
801.164
2133.71
-0.0199831
-0.078237
-0.150195
-0.239102
-0.348342
-0.481458
-0.641952
-0.832805
-1.0556
-1.30918
-1.5879
-1.88034
-2.16941
-2.43489
-2.65787
-2.83569
-2.98118
-3.10059
-2.50518
-2.83284
-2.51854
-2.14318
-1.69878
-1.29912
-1.03751
-0.819421
-0.628014
-0.468677
-0.333602
-0.221654
-0.130525
-0.0558812
0.00486403
0.0507954
0.0812782
0.112682
0.172122
0.0732435
146.127
2422.73
-0.0327247
-0.0925046
-0.166328
-0.257315
-0.368566
-0.503196
-0.664076
-0.853323
-1.07139
-1.31585
-1.57987
-1.85124
-2.11268
-2.3444
-2.52853
-2.65959
-2.74387
-2.62166
-2.72664
-2.51619
-2.27271
-1.99661
-1.70024
-1.37897
-0.943787
-0.784572
-0.60567
-0.454048
-0.329604
-0.224687
-0.13525
-0.0599145
0.00224685
0.0490271
0.0759239
0.0852787
0.0997272
0.0952487
-0.541194
2250.4
-0.0409908
-0.101113
-0.175276
-0.266431
-0.377348
-0.510746
-0.668865
-0.853042
-1.06281
-1.29479
-1.54162
-1.79122
-2.02715
-2.23097
-2.38664
-2.48707
-2.53818
-2.34344
-2.37668
-2.27962
-2.08881
-1.87814
-1.64367
-0.641773
0.773582
0.336496
-0.491516
-0.412617
-0.301194
-0.21276
-0.127584
-0.052151
0.0119144
0.0619773
0.0926089
0.1033
0.118617
0.17113
-0.177893
1820.32
-0.0446332
-0.103958
-0.177022
-0.266564
-0.375079
-0.504821
-0.657501
-0.833781
-1.03252
-1.24988
-1.47854
-1.70714
-1.92078
-2.10294
-2.23933
-2.32258
-2.33602
-2.31684
-2.22713
-2.09468
-1.93353
-1.76288
-1.30039
0.984281
1.25527
1.52381
0.832837
-0.171758
-0.268264
-0.194123
-0.112351
-0.0352666
0.0326738
0.0890306
0.129123
0.152937
0.185328
0.257312
0.0566032
1623.45
-0.0437034
-0.101189
-0.17187
-0.258249
-0.362534
-0.486607
-0.631722
-0.79803
-0.98396
-1.18556
-1.3959
-1.60469
-1.79881
-1.96388
-2.08714
-2.16048
-2.17645
-2.14807
-2.06534
-1.94531
-1.79817
-1.64103
-0.847336
1.08347
1.33039
1.56997
1.85293
0.68102
-0.257332
-0.179807
-0.0949252
-0.0129691
0.0610475
0.125137
0.175945
0.213524
0.259
0.335178
0.20587
1424.17
-0.0384579
-0.0932094
-0.160439
-0.242396
-0.341008
-0.45784
-0.593795
-0.748684
-0.92074
-1.10613
-1.2985
-1.48879
-1.66566
-1.81679
-1.93086
-1.99975
-2.02028
-1.99245
-1.921
-1.81407
-1.67901
-1.52579
-1.14406
1.00643
1.38734
1.6252
1.90331
1.21181
-0.264937
-0.174856
-0.0775956
0.0129295
0.0948984
0.16728
0.227538
0.275896
0.330432
0.407818
0.288451
1290.82
-0.0293652
-0.0806572
-0.143605
-0.220195
-0.312082
-0.420551
-0.546233
-0.688747
-0.846328
-1.01546
-1.1905
-1.36357
-1.52502
-1.66433
-1.77164
-1.83933
-1.86372
-1.8444
-1.78542
-1.69305
-1.57315
-1.4315
-1.28653
-0.750554
1.53316
1.72435
2.01091
0.487246
-0.300289
-0.172075
-0.0583648
0.0429547
0.134103
0.21513
0.284073
0.341026
0.401826
0.475124
0.331373
1379.27
-0.0170815
-0.0643561
-0.122417
-0.192992
-0.277482
-0.376915
-0.491703
-0.621351
-0.764214
-0.917233
-1.07559
-1.23257
-1.37996
-1.50884
-1.61065
-1.67843
-1.7082
-1.69859
-1.65289
-1.57601
-1.47271
-1.34756
-1.20785
-1.07716
0.348569
1.83796
1.23895
-0.361707
-0.306385
-0.160138
-0.0337533
0.0780417
0.178831
0.269315
0.348422
0.416125
0.481835
0.536827
0.375931
1750.28
-0.00240932
-0.0452608
-0.0980188
-0.162173
-0.238903
-0.329028
-0.432778
-0.549578
-0.677917
-0.815205
-0.957494
-1.09925
-1.23359
-1.35291
-1.44977
-1.51777
-1.5526
-1.5535
-1.52133
-1.4601
-1.3738
-1.26597
-1.13842
-0.999518
-0.697648
0.426569
-0.524335
-0.458214
-0.287833
-0.135759
-0.00290509
0.117093
0.227231
0.32878
0.422681
0.509617
0.583804
0.613966
0.588873
2381.08
0.0137542
-0.0244157
-0.0716072
-0.129089
-0.197905
-0.278716
-0.371617
-0.476003
-0.590463
-0.712783
-0.839781
-0.967086
-1.08911
-1.19941
-1.29147
-1.35907
-1.39904
-1.40931
-1.39044
-1.34525
-1.277
-1.1858
-1.07151
-0.940275
-0.789687
-0.701746
-0.573278
-0.412185
-0.251303
-0.104796
0.0294156
0.154738
0.273043
0.386489
0.499519
0.615437
0.710273
0.730704
1.15347
2591.46
0.0304828
-0.00289969
-0.0444003
-0.0951141
-0.155979
-0.227583
-0.30999
-0.402577
-0.504042
-0.61243
-0.725129
-0.838843
-0.949307
-1.0511
-1.13842
-1.20575
-1.24928
-1.26755
-1.26073
-1.23093
-1.17929
-0.995304
-0.860567
-0.775335
-0.750364
-0.644193
-0.512587
-0.36596
-0.219522
-0.0796169
0.0536198
0.181266
0.304452
0.425645
0.551157
0.691564
0.832304
0.877963
8.4733
1327.03
0.0468995
0.0182537
-0.0176568
-0.0617286
-0.114787
-0.177357
-0.249598
-0.331052
-0.420485
-0.516096
-0.615707
-0.717168
-0.817206
-0.911223
-0.993772
-1.05943
-1.10459
-1.12907
-1.13351
-1.1047
-0.858483
-0.236679
-0.160037
-0.528842
-0.702009
-0.596035
-0.473861
-0.340486
-0.204238
-0.0700754
0.0604166
0.186971
0.309688
0.429291
0.548683
0.67442
0.804957
0.861667
2.40797
13.5303
0.0622334
0.0381462
0.0076043
-0.0301514
-0.0757407
-0.129709
-0.192349
-0.263356
-0.341738
-0.4259
-0.507639
-0.574318
-0.660077
-0.748785
-0.852055
-0.923351
-0.965629
-0.977197
-1.00796
-0.392253
-0.190718
-0.143884
-0.0733548
-0.352398
-0.667429
-0.573831
-0.461357
-0.338375
-0.210731
-0.0826838
0.0434862
0.166596
0.285784
0.400445
0.510845
0.618529
0.721168
0.796465
0.814915
1.08373
0.0758241
0.0560271
0.0305655
-0.00122078
-0.039824
-0.0858541
-0.139616
-0.200946
-0.26922
-0.340918
-0.38768
-0.465529
-0.547223
-0.627014
-0.721012
-0.801561
-0.84926
-0.395577
-0.102846
-0.110281
-0.08922
-0.0580656
-0.168665
-0.692478
-0.66944
-0.57763
-0.474379
-0.361771
-0.243348
-0.122589
-0.00203815
0.116486
0.231495
0.341993
0.44818
0.551455
0.654818
0.766861
0.901027
1.08506
0.0871083
0.0712509
0.0505075
0.0242823
-0.00787768
-0.0466332
-0.0921817
-0.144639
-0.203515
-0.267919
-0.326055
-0.371765
-0.445773
-0.544888
-0.62644
-0.695854
-0.701399
-0.101863
-0.0122941
-0.00414085
0.00377624
-0.453358
-0.789458
-0.741829
-0.6782
-0.601134
-0.512224
-0.412981
-0.30605
-0.194458
-0.0808999
0.0323414
0.143336
0.251216
0.356933
0.463461
0.577727
0.717539
0.900778
1.09775
0.09566
0.0832909
0.0668139
0.0456441
0.0193137
-0.01279
-0.0509697
-0.0953029
-0.145675
-0.201344
-0.261307
-0.322004
-0.389058
-0.459034
-0.527439
-0.597356
-0.66366
-0.701282
-0.399179
-0.505224
-0.771345
-0.78093
-0.770881
-0.74545
-0.703729
-0.647398
-0.577519
-0.495355
-0.403017
-0.30313
-0.1983
-0.0910921
0.0161471
0.122505
0.229283
0.340263
0.463796
0.619592
0.825342
1.03196
0.101283
0.0918515
0.079066
0.0623565
0.0411301
0.0149466
-0.0167179
-0.0540234
-0.0969038
-0.145064
-0.197802
-0.254623
-0.315207
-0.378924
-0.443002
-0.508429
-0.572777
-0.629308
-0.673576
-0.70727
-0.737163
-0.760375
-0.771294
-0.768312
-0.750983
-0.719168
-0.672757
-0.612082
-0.538414
-0.453675
-0.359863
-0.259521
-0.155742
-0.0505025
0.057383
0.172078
0.302137
0.467414
0.685551
0.89808
0.104044
0.0969671
0.0872145
0.0742458
0.057434
0.0361969
0.0100952
-0.0211962
-0.0578092
-0.0996005
-0.146252
-0.197478
-0.253018
-0.312344
-0.37449
-0.438138
-0.501493
-0.562031
-0.617157
-0.667399
-0.713825
-0.75439
-0.786537
-0.80863
-0.81918
-0.816585
-0.799227
-0.765766
-0.716282
-0.651567
-0.571788
-0.478412
-0.376925
-0.273042
-0.164942
-0.0476387
0.0871907
0.258973
0.48605
0.708199
0.104186
0.0989266
0.0915594
0.0815808
0.0683609
0.0512649
0.0297497
0.00341793
-0.0279555
-0.0644368
-0.105967
-0.152427
-0.203662
-0.259393
-0.319074
-0.381845
-0.446476
-0.511457
-0.575479
-0.638226
-0.69956
-0.758598
-0.813953
-0.864003
-0.90663
-0.939002
-0.957559
-0.958112
-0.939795
-0.901901
-0.838121
-0.747828
-0.646449
-0.546937
-0.441318
-0.322667
-0.184069
-0.00771173
0.22478
0.455862
0.102008
0.0981174
0.0925656
0.0848864
0.0744705
0.0606674
0.0428769
0.0206107
-0.00647625
-0.038594
-0.075838
-0.118247
-0.165828
-0.218513
-0.276069
-0.338041
-0.403736
-0.472366
-0.543344
-0.616581
-0.692268
-0.770403
-0.850529
-0.931431
-1.01057
-1.08371
-1.14484
-1.18662
-1.20608
-1.19856
-1.14509
-1.03684
-0.936265
-0.857254
-0.767388
-0.652301
-0.510579
-0.330851
-0.097437
0.137185
0.0978257
0.0949258
0.0907062
0.084731
0.0764248
0.0651489
0.0502785
0.0312637
0.00767089
-0.0208219
-0.0544378
-0.0933463
-0.137681
-0.187528
-0.242892
-0.303664
-0.369644
-0.440692
-0.516978
-0.599196
-0.688486
-0.786057
-0.892516
-1.00688
-1.12548
-1.24322
-1.35166
-1.0714
-0.898761
-0.512657
1.51915
0.888312
-1.25084
-1.23074
-1.14642
-1.03462
-0.886321
-0.701058
-0.468985
-0.237962
0.0920321
0.0897748
0.0864601
0.0816759
0.0748867
0.065487
0.0528594
0.0364252
0.0156894
-0.00974919
-0.0402093
-0.075943
-0.117166
-0.164072
-0.216836
-0.275629
-0.34071
-0.412621
-0.492471
-0.582182
-0.684431
-0.802013
-0.936144
-1.08509
-1.24641
-1.36755
-1.07575
1.24026
1.1525
1.05192
0.999364
1.02143
0.689005
-1.52535
-1.60114
-1.46441
-1.29468
-1.09636
-0.86448
-0.633432
0.0851639
0.0832271
0.0804337
0.0763987
0.0706337
0.0625793
0.0516469
0.0372611
0.0188963
-0.00389529
-0.0314808
-0.0641568
-0.102176
-0.145781
-0.195252
-0.250992
-0.313707
-0.384714
-0.466348
-0.562274
-0.677271
-0.815505
-0.977123
-1.16296
-1.38094
0.210788
1.03727
0.825082
0.655922
0.497891
0.411895
0.423684
0.590186
-1.44141
-2.11315
-1.9073
-1.69547
-1.4753
-1.24357
-1.02867
0.0778733
0.0759957
0.0734085
0.0697646
0.0646334
0.0575122
0.0478562
0.0351159
0.0187724
-0.00163014
-0.0264684
-0.0560407
-0.090591
-0.130361
-0.175683
-0.227155
-0.285955
-0.354337
-0.436237
-0.537637
-0.665552
-0.82404
-1.01217
-1.25393
0.679283
0.901703
0.553463
-0.414281
-2.44006
-3.09368
-2.78003
-0.531041
-0.357057
-2.2286
-2.54695
-2.27889
-2.02212
-1.77991
-1.55082
-1.34132
0.0707445
0.0687688
0.0661828
0.0626879
0.057919
0.0514404
0.0427696
0.0314065
0.0168678
-0.00127618
-0.0233751
-0.0496918
-0.080425
-0.115776
-0.156093
-0.202154
-0.25567
-0.320036
-0.401183
-0.507674
-0.647917
-0.82498
-1.04589
0.02673
1.35332
0.817392
-2.09844
-2.92573
-3.1447
-3.29478
-3.37575
-3.19996
-2.98805
-2.84441
-2.78004
-2.49683
-2.21206
-1.95427
-1.71382
-1.47784
0.0641251
0.0620111
0.0593478
0.0558932
0.051353
0.0453683
0.0375322
0.0274118
0.0145826
-0.00133094
-0.0206245
-0.0435
-0.0700873
-0.100527
-0.135164
-0.174958
-0.222225
-0.28167
-0.361293
-0.47134
-0.619459
-0.81112
-1.05054
1.79072
1.25516
-1.75566
-2.72787
-3.00349
-3.23065
-3.38364
-3.45484
-3.44315
-3.33052
-3.1159
-2.83981
-2.54162
-2.23572
-1.95278
-1.66202
-1.29839
0.0580761
0.055883
0.0531792
0.049782
0.045468
0.0399604
0.0329347
0.024037
0.0129177
-0.000727816
-0.0171262
-0.0364087
-0.0586329
-0.0838777
-0.112488
-0.145609
-0.186221
-0.24034
-0.317428
-0.427385
-0.5761
-0.777627
0.476552
1.76783
1.01265
-2.3894
-2.68691
-2.97244
-3.20205
-3.35175
-3.40969
-3.376
-3.25025
-3.03359
-2.75088
-2.4295
-2.09307
-1.76321
-1.41079
-1.0722
0.0524463
0.0502873
0.0476519
0.044413
0.0404146
0.0354601
0.0293084
0.0216901
0.0123378
0.00102316
-0.0124099
-0.0280266
-0.0458251
-0.0658491
-0.0884671
-0.114937
-0.149042
-0.197687
-0.27064
-0.375837
-0.51933
-0.336733
2.21897
1.85259
-0.984281
-2.2422
-2.53922
-2.81867
-3.03629
-3.17689
-3.22535
-3.18064
-3.04068
-2.81377
-2.51828
-2.17368
-1.79221
-1.38502
-1.008
-0.804172
0.0470025
0.044993
0.0425521
0.0396002
0.0360432
0.0317571
0.0265807
0.0203281
0.0128137
0.0038823
-0.00655922
-0.0185224
-0.0319678
-0.04696
-0.0640002
-0.0837636
-0.111843
-0.154472
-0.220475
-0.315911
-0.44975
0.109065
2.34392
2.01787
-0.993255
-2.00481
-2.27655
-2.533
-2.73383
-2.86139
-2.90024
-2.84772
-2.69891
-2.46393
-2.1552
-1.78662
-1.36225
-0.894308
-0.515783
-0.455324
0.0415509
0.0397718
0.0376241
0.0350682
0.0320637
0.0285492
0.0244365
0.0196185
0.0139865
0.00745467
-1.57094e-05
-0.00840241
-0.0176458
-0.0277782
-0.0392846
-0.0537905
-0.0753452
-0.110149
-0.165202
-0.244731
-0.356964
0.0836682
2.60177
2.36731
-0.188011
-1.68818
-1.91249
-2.13327
-2.30771
-2.41618
-2.44446
-2.38269
-2.23137
-1.99505
-1.68734
-1.32734
-0.926618
-0.517985
1.1204
5.19389
0.0359967
0.0344822
0.0326793
0.0305812
0.0281911
0.0255003
0.0224841
0.0191057
0.0153265
0.0111211
0.00649198
0.00147556
-0.00387848
-0.00962086
-0.0162169
-0.0251285
-0.0394853
-0.0642141
-0.104615
-0.163489
-0.24641
-0.056625
2.79557
2.80415
1.1879
-1.33367
-1.4927
-1.65661
-1.79234
-1.87335
-1.88539
-1.8229
-1.68395
-1.47169
-1.20445
-0.905557
-0.104902
1.31872
1.40138
0.418272
0.0303346
0.0290798
0.0276254
0.0259908
0.0242122
0.0223242
0.0203549
0.0183268
0.0162608
0.0141833
0.0121318
0.0101557
0.00829621
0.00650897
0.00446637
0.00118867
-0.00542122
-0.0188189
-0.042956
-0.0797439
-0.131689
-0.130206
2.25532
3.23058
3.10829
-0.160626
-1.08363
-1.18255
-1.27154
-1.31987
-1.31803
-1.26659
-1.16168
-0.731402
0.261194
0.689244
0.800567
0.864647
0.0272608
-0.32569
0.0246087
0.0235858
0.0224483
0.0212355
0.0200077
0.0188317
0.0177767
0.0169137
0.0163162
0.0160596
0.0162199
0.0168663
0.0180411
0.0197188
0.0217225
0.0235612
0.0241611
0.0214829
0.0126286
-0.00434005
-0.0294173
-0.0675131
0.877948
3.68743
3.54422
3.40042
1.93672
-0.800873
-0.841969
-0.856702
-0.779857
-0.769993
-0.102437
0.766846
0.886144
0.981583
0.681894
-0.274556
-0.309816
-0.340584
0.0188749
0.0180473
0.0171766
0.016314
0.0155346
0.0149261
0.014587
0.0146281
0.0151704
0.0163407
0.0182631
0.0210422
0.0247327
0.0292995
0.0345768
0.0402953
0.0461739
0.0514772
0.0542984
0.0521669
0.0441035
0.030105
0.00425016
1.6054
3.90804
3.8726
3.73507
3.60271
2.94245
2.90114
2.86188
2.70042
1.8312
0.470215
0.898615
0.17271
-0.271603
-0.322201
-0.327472
-0.333779
0.0131703
0.0125033
0.0118431
0.0112455
0.01079
0.0105738
0.0107137
0.0113489
0.0126404
0.0147687
0.0179242
0.0222784
0.0279283
0.0347974
0.0425083
0.0504761
0.0588023
0.0679634
0.0771101
0.0840046
0.0860716
0.0823969
0.0739579
0.0559555
1.00839
4.07499
4.12282
4.04845
4.01761
3.91467
2.30542
0.997872
0.27883
-0.253228
-0.203325
-0.301134
-0.30198
-0.301699
-0.299117
-0.293718
0.00753942
0.00700247
0.00649629
0.00607388
0.00580926
0.00579606
0.00615273
0.0070287
0.00860947
0.0111223
0.0148333
0.0200181
0.0269072
0.0356484
0.0457518
0.054678
0.0617307
0.0707697
0.0804318
0.0899387
0.0964585
0.097377
0.0921944
0.0828605
0.068733
0.677935
2.44952
3.48014
1.96711
0.496711
-0.082556
-0.207511
-0.229613
-0.240585
-0.244317
-0.247368
-0.246758
-0.244143
-0.238818
-0.231872
0.00205046
0.0016077
0.00119806
0.000860754
0.000652344
0.000647246
0.000943039
0.00166857
0.00299854
0.00517976
0.00856165
0.0136066
0.0211568
0.0333661
0.0514952
0.0619363
0.058292
0.0632767
0.0695311
0.075274
0.0794018
0.07995
0.075292
0.0655888
0.0525328
0.0346339
0.0351507
0.0557248
-0.0546144
-0.101812
-0.124377
-0.140953
-0.153707
-0.161479
-0.163664
-0.162108
-0.158784
-0.161722
-0.167646
-0.160054
-0.00382776
-0.00414466
-0.00444009
-0.00469103
-0.00486484
-0.00491875
-0.00479535
-0.00441149
-0.00363223
-0.00221134
0.000319688
0.00484525
0.0136835
0.0338673
0.0752255
0.0899781
0.0822981
0.0711314
0.0627788
0.056794
0.0515252
0.0457804
0.0386082
0.0292815
0.0176535
0.00419767
-0.00964262
-0.0222426
-0.0456214
-0.0627515
-0.0738051
-0.0805563
-0.0820161
-0.078053
-0.0695452
-0.0570352
-0.0408236
-0.047766
-0.108817
-0.0727241
)
;

boundaryField
{
    leftWall
    {
        type            fixedFluxPressure;
        gradient        nonuniform 0();
        value           nonuniform 0();
    }
    rightWall
    {
        type            fixedFluxPressure;
        gradient        uniform 0;
        value           nonuniform List<scalar> 
43
(
2294.47
2224.45
1843.16
1380.79
2133.71
2422.73
2250.4
1820.32
1623.45
1424.17
1290.82
1379.27
1750.28
2381.08
2591.46
1327.03
13.5303
1.08373
1.08506
1.09775
1.03196
0.89808
0.708199
0.455862
0.137185
-0.237962
-0.633432
-1.02867
-1.34132
-1.47784
-1.29839
-1.0722
-0.804172
-0.455324
5.19389
0.418272
-0.32569
-0.340584
-0.333779
-0.293718
-0.231872
-0.160054
-0.0727241
)
;
    }
    lowerWall
    {
        type            fixedFluxPressure;
        gradient        nonuniform 0();
        value           nonuniform 0();
    }
    atmosphere
    {
        type            totalPressure;
        rho             rho;
        psi             none;
        gamma           1;
        p0              uniform 0;
        value           nonuniform List<scalar> 
45
(
-0.00610511
-0.00627836
-0.00645756
-0.00664375
-0.00683195
-0.00702695
-0.00722535
-0.0074028
-0.00754083
-0.00761689
-0.00760394
-0.00747064
-0.00718211
-0.00670208
-0.00599768
-0.00504947
-0.00387148
-0.00254642
-0.00128186
-0.000431114
0
0
0
0
0
0
0
0
0
0
0
0
0
0
0
0
0
0
0
0
0
0
-0.00093183
-0.00707079
-0.0165193
)
;
    }
    defaultFaces
    {
        type            empty;
    }
    procBoundary3to1
    {
        type            processor;
        value           nonuniform List<scalar> 
45
(
0.207584
0.194492
0.178961
0.16104
0.140431
0.115885
0.0861107
0.0510409
0.00864274
-0.0439686
-0.110669
-0.196235
-0.306027
-0.445584
-0.620183
-0.833959
-1.0881
-1.37806
-1.68999
-1.99834
-2.27531
-2.49637
-2.50133
-1.74608
-1.23773
526.522
1614.23
1628.72
1638.05
1641.94
1659.38
1383.51
142.003
2.48805
0.556616
0.156154
0.0669359
0.0947033
0.159139
0.19794
0.195374
-0.237303
1646.92
2263.11
2241.66
)
;
    }
    procBoundary3to2
    {
        type            processor;
        value           nonuniform List<scalar> 
43
(
0.20728
0.195812
0.18434
0.173436
0.163044
0.153593
0.145291
0.138274
0.13259
0.128207
0.125036
0.122942
0.121739
0.121203
0.121101
0.121206
0.121303
0.121191
0.120699
0.119701
0.118118
0.115914
0.113077
0.109615
0.105559
0.100962
0.0958899
0.0904047
0.0845642
0.0784287
0.072067
0.0655691
0.05904
0.0525759
0.0462427
0.0400637
0.0340174
0.0280523
0.0221111
0.0161474
0.010175
0.00430133
-0.00220525
)
;
    }
}


// ************************************************************************* //
