/*--------------------------------*- C++ -*----------------------------------*\
| =========                 |                                                 |
| \\      /  F ield         | OpenFOAM: The Open Source CFD Toolbox           |
|  \\    /   O peration     | Version:  5.0                                   |
|   \\  /    A nd           | Web:      www.OpenFOAM.org                      |
|    \\/     M anipulation  |                                                 |
\*---------------------------------------------------------------------------*/
FoamFile
{
    version     2.0;
    format      ascii;
    class       surfaceScalarField;
    location    "0.65";
    object      phi;
}
// * * * * * * * * * * * * * * * * * * * * * * * * * * * * * * * * * * * * * //

dimensions      [0 3 -1 0 0 0 0];

internalField   nonuniform List<scalar> 
3782
(
4.21764e-05
-1.16576e-05
4.44537e-05
-1.10796e-05
4.64187e-05
-1.01318e-05
4.80421e-05
-8.84528e-06
4.92922e-05
-7.25337e-06
5.01471e-05
-5.3958e-06
5.05922e-05
-3.3144e-06
5.062e-05
-1.05327e-06
5.02294e-05
1.34268e-06
4.94253e-05
3.82856e-06
4.82177e-05
6.35969e-06
4.66213e-05
8.89116e-06
4.46551e-05
1.13775e-05
4.23422e-05
1.37721e-05
3.971e-05
1.60268e-05
3.67901e-05
1.80911e-05
3.36194e-05
1.99134e-05
3.024e-05
2.14415e-05
2.67003e-05
2.26254e-05
2.30541e-05
2.34201e-05
1.93606e-05
2.37903e-05
1.56826e-05
2.37146e-05
1.20846e-05
2.31893e-05
8.62962e-06
2.22314e-05
5.37632e-06
2.08788e-05
2.37525e-06
1.91886e-05
-3.34108e-07
1.72324e-05
-2.72527e-06
1.50899e-05
-4.78524e-06
1.28404e-05
-6.51315e-06
1.05584e-05
-7.91829e-06
8.31139e-06
-9.01809e-06
6.15945e-06
-9.83609e-06
4.15669e-06
-1.04006e-05
2.35277e-06
-1.07439e-05
7.94107e-07
-1.0902e-05
-4.76367e-07
-1.09142e-05
-1.42129e-06
-1.08228e-05
-2.01353e-06
-1.06717e-05
-2.24312e-06
-1.05039e-05
-2.12528e-06
-1.03577e-05
-1.70794e-06
-1.02616e-05
-1.07628e-06
-3.49595e-07
-1.44161e-05
4.43204e-05
-1.75446e-05
4.89344e-05
-2.10471e-05
5.38318e-05
5.90138e-05
-2.49307e-05
-1.35521e-05
4.67928e-05
-1.63477e-05
5.17301e-05
-1.94724e-05
5.69565e-05
6.24668e-05
-2.29254e-05
-1.22698e-05
4.89309e-05
-1.46841e-05
5.41443e-05
-1.73751e-05
5.96475e-05
6.54288e-05
-2.03371e-05
-1.06106e-05
5.06962e-05
-1.26013e-05
5.6135e-05
-1.48132e-05
6.18594e-05
6.78506e-05
-1.7235e-05
-8.61597e-06
5.20588e-05
-1.01507e-05
5.76698e-05
-1.18485e-05
6.35572e-05
6.96953e-05
-1.36932e-05
-6.3333e-06
5.29962e-05
-7.38859e-06
5.8725e-05
-8.54786e-06
6.47165e-05
7.09379e-05
-9.79039e-06
-3.8126e-06
5.34944e-05
-4.37393e-06
5.92864e-05
-4.98052e-06
6.53231e-05
7.15649e-05
-5.60758e-06
-1.10542e-06
5.35466e-05
-1.16704e-06
5.9348e-05
-1.21669e-06
6.53727e-05
7.15746e-05
-1.22633e-06
1.73613e-06
5.31531e-05
2.1719e-06
5.89122e-05
2.67419e-06
6.48704e-05
7.09753e-05
3.27348e-06
4.6609e-06
5.23207e-05
5.58457e-06
5.79885e-05
6.62583e-06
6.38292e-05
6.97845e-05
7.81656e-06
7.61867e-06
5.10617e-05
9.01464e-06
5.65926e-05
1.0575e-05
6.22687e-05
6.80274e-05
1.23322e-05
1.05597e-05
4.93932e-05
1.2407e-05
5.47452e-05
1.4461e-05
6.02147e-05
6.57349e-05
1.67534e-05
1.34341e-05
4.73366e-05
1.57073e-05
5.2472e-05
1.82245e-05
5.76976e-05
6.29434e-05
2.1016e-05
1.61913e-05
4.49174e-05
1.88607e-05
4.98026e-05
2.18064e-05
5.47519e-05
5.96931e-05
2.50567e-05
1.87789e-05
4.21652e-05
2.18107e-05
4.67708e-05
2.51464e-05
5.14162e-05
5.6028e-05
2.88114e-05
2.11425e-05
3.91138e-05
2.44986e-05
4.34146e-05
2.81815e-05
4.77332e-05
5.1996e-05
3.22135e-05
2.32252e-05
3.58019e-05
2.68629e-05
3.9777e-05
3.08458e-05
4.37503e-05
4.76492e-05
3.51926e-05
2.49698e-05
3.22737e-05
2.88406e-05
3.59061e-05
3.30708e-05
3.95202e-05
4.30448e-05
3.76752e-05
2.63201e-05
2.8579e-05
3.037e-05
3.18562e-05
3.47887e-05
3.51014e-05
3.82459e-05
3.95876e-05
2.72256e-05
2.47735e-05
3.13941e-05
2.76877e-05
3.59366e-05
3.05589e-05
3.33217e-05
4.08608e-05
2.76456e-05
2.09182e-05
3.18668e-05
2.34664e-05
3.64625e-05
2.59632e-05
2.83473e-05
4.14369e-05
2.75546e-05
1.70782e-05
3.17585e-05
1.92626e-05
3.63323e-05
2.13894e-05
2.34022e-05
4.12775e-05
2.69474e-05
1.33202e-05
3.10616e-05
1.51483e-05
3.55362e-05
1.69148e-05
1.8568e-05
4.03704e-05
2.58416e-05
9.70996e-06
2.97948e-05
1.11952e-05
3.40937e-05
1.26159e-05
1.3926e-05
3.87358e-05
2.42798e-05
6.30906e-06
2.80047e-05
7.47024e-06
3.20556e-05
8.56507e-06
9.55279e-06
3.64287e-05
2.23266e-05
3.17108e-06
2.57642e-05
4.03267e-06
2.95028e-05
4.82648e-06
5.5172e-06
3.35384e-05
2.0065e-05
3.38558e-07
2.31676e-05
9.30049e-07
2.65416e-05
1.45248e-06
1.87583e-06
3.0183e-05
1.75878e-05
-2.1594e-06
2.03223e-05
-1.80445e-06
2.32945e-05
-1.5197e-06
-1.3302e-06
2.65005e-05
1.49892e-05
-4.30816e-06
1.73382e-05
-4.15351e-06
1.98883e-05
-4.06978e-06
-4.07764e-06
2.26357e-05
1.23565e-05
-6.1063e-06
1.43179e-05
-6.11485e-06
1.64424e-05
-6.19426e-06
-6.36138e-06
1.87261e-05
9.76871e-06
-7.56366e-06
1.1353e-05
-7.6991e-06
1.30629e-05
-7.9042e-06
-8.19264e-06
1.48942e-05
7.29474e-06
-8.69898e-06
8.52278e-06
-8.92713e-06
9.84099e-06
-9.22242e-06
-9.59587e-06
1.12442e-05
4.99533e-06
-9.53761e-06
5.89563e-06
-9.82741e-06
6.85367e-06
-1.01805e-05
-1.06056e-05
7.86336e-06
2.92512e-06
-1.011e-05
3.53175e-06
-1.0434e-05
4.16746e-06
-1.08162e-05
-1.12633e-05
4.82517e-06
1.13462e-06
-1.04505e-05
1.48602e-06
-1.07854e-05
1.84206e-06
-1.11722e-05
-1.1616e-05
2.19473e-06
-3.29575e-07
-1.05972e-05
-1.91051e-07
-1.09239e-05
-6.78554e-08
-1.12953e-05
-1.17151e-05
3.12746e-08
-1.42669e-06
-1.05918e-05
-1.45497e-06
-1.08956e-05
-1.51381e-06
-1.12365e-05
-1.16165e-05
-1.61238e-06
-2.12654e-06
-1.04788e-05
-2.2722e-06
-1.07499e-05
-2.45848e-06
-1.10502e-05
-1.13802e-05
-2.69467e-06
-2.41737e-06
-1.03045e-05
-2.62885e-06
-1.05384e-05
-2.88536e-06
-1.07937e-05
-1.10696e-05
-3.19596e-06
-2.31508e-06
-1.01147e-05
-2.5413e-06
-1.03122e-05
-2.81096e-06
-1.0524e-05
-1.07482e-05
-3.13235e-06
-1.87231e-06
-9.95034e-06
-2.06701e-06
-1.01175e-05
-2.29767e-06
-1.02933e-05
-1.04749e-05
-2.57103e-06
-1.18409e-06
-9.84254e-06
-1.31173e-06
-9.9899e-06
-1.46286e-06
-1.01422e-05
-1.0296e-05
-1.64174e-06
-3.85173e-07
-4.27509e-07
-4.7782e-07
-5.37503e-07
-2.97154e-05
7.23565e-05
-3.496e-05
7.95485e-05
-4.0639e-05
8.71277e-05
-4.67103e-05
9.51e-05
-5.31093e-05
0.000103459
-5.97387e-05
0.000112172
-6.64536e-05
0.000121146
-7.30371e-05
0.000130186
-7.91654e-05
0.000138915
-8.43601e-05
0.000146674
-8.79368e-05
0.0001524
-8.89784e-05
0.000154547
-8.63919e-05
0.000151141
-7.9109e-05
0.000140089
-6.63681e-05
0.000119594
-4.78161e-05
8.81688e-05
-2.31871e-05
4.37509e-05
6.85207e-06
-1.76947e-05
4.08229e-05
-0.000110209
4.3549e-05
-0.000124422
4.40368e-05
-0.000125081
4.42379e-05
-0.000124306
4.43136e-05
-0.00012309
4.41991e-05
-0.000121597
4.38648e-05
-0.000119867
4.33319e-05
-0.000117709
4.23169e-05
-0.000114235
3.82494e-05
-0.000105626
3.58351e-05
-8.89816e-05
3.27493e-05
-8.06885e-05
2.79916e-05
-7.9762e-05
2.32566e-05
-7.81171e-05
1.93882e-05
-7.48305e-05
1.66961e-05
-7.05256e-05
1.36908e-05
-6.66886e-05
8.23013e-06
-6.33591e-05
4.27947e-06
-5.92054e-05
1.80701e-06
-5.92042e-05
1.73065e-07
-5.33274e-05
-4.43183e-05
-2.71605e-05
7.65916e-05
-3.17735e-05
8.41615e-05
-3.67279e-05
9.20821e-05
-4.19672e-05
0.000100339
-4.74079e-05
0.0001089
-5.29289e-05
0.000117693
-5.83537e-05
0.000126571
-6.34258e-05
0.000135258
-6.77739e-05
0.000143263
-7.08695e-05
0.00014977
-7.19921e-05
0.000153523
-7.02355e-05
0.00015279
-6.46089e-05
0.000145515
-5.4246e-05
0.000129726
-3.86682e-05
0.000104016
-1.80433e-05
6.75439e-05
6.37848e-06
1.93291e-05
3.09541e-05
-4.22703e-05
4.3102e-05
-0.000122357
4.3922e-05
-0.000125242
4.41072e-05
-0.000125266
4.42138e-05
-0.000124412
4.42409e-05
-0.000123117
4.41567e-05
-0.000121513
4.39142e-05
-0.000119624
4.26307e-05
-0.000116425
3.78813e-05
-0.000109486
3.07958e-05
-9.85406e-05
2.81468e-05
-8.63325e-05
2.70851e-05
-7.96267e-05
2.44438e-05
-7.71208e-05
2.13071e-05
-7.49804e-05
1.8452e-05
-7.19753e-05
1.60431e-05
-6.81167e-05
1.30696e-05
-6.37151e-05
8.48355e-06
-5.8773e-05
6.54315e-06
-5.7265e-05
1.93588e-06
-5.45969e-05
-8.82042e-08
-5.13033e-05
-4.44065e-05
-2.3949e-05
8.02034e-05
-2.78512e-05
8.80638e-05
-3.19962e-05
9.62271e-05
-3.63139e-05
0.000104657
-4.07037e-05
0.00011329
-4.50223e-05
0.000122011
-4.90672e-05
0.000130616
-5.25526e-05
0.000138743
-5.508e-05
0.00014579
-5.61096e-05
0.000150799
-5.49505e-05
0.000152364
-5.08068e-05
0.000148647
-4.29134e-05
0.000137621
-3.07516e-05
0.000117564
-1.42803e-05
8.75445e-05
5.74583e-06
4.75178e-05
2.68941e-05
-1.81918e-06
4.43915e-05
-5.97677e-05
4.28851e-05
-0.00012085
4.35442e-05
-0.000125901
4.36912e-05
-0.000125413
4.37355e-05
-0.000124457
4.37435e-05
-0.000123125
4.36523e-05
-0.000121422
4.139e-05
-0.000117362
3.60142e-05
-0.000111049
2.82778e-05
-0.000101749
2.2968e-05
-9.32308e-05
2.14793e-05
-8.48439e-05
2.10911e-05
-7.92385e-05
1.99822e-05
-7.60119e-05
1.83532e-05
-7.33514e-05
1.66594e-05
-7.02815e-05
1.50941e-05
-6.65514e-05
1.35857e-05
-6.22068e-05
1.2352e-05
-5.75394e-05
9.18714e-06
-5.41001e-05
3.05668e-06
-4.84665e-05
4.66772e-07
-4.87134e-05
-4.39397e-05
-2.01651e-05
8.31335e-05
-2.32942e-05
9.11929e-05
-2.6565e-05
9.94979e-05
-2.98952e-05
0.000107987
-3.31698e-05
0.000116564
-3.62289e-05
0.00012507
-3.88528e-05
0.00013324
-4.07424e-05
0.000140633
-4.15002e-05
0.000146548
-4.06219e-05
0.000149921
-3.75195e-05
0.000149261
-3.16072e-05
0.000142734
-2.24645e-05
0.000128478
-1.00396e-05
0.00010514
5.14774e-06
7.23572e-05
2.17766e-05
3.08889e-05
3.74983e-05
-1.75408e-05
4.80475e-05
-7.03168e-05
4.20977e-05
-0.000114901
4.2641e-05
-0.000126444
4.27316e-05
-0.000125504
4.27285e-05
-0.000124453
4.23245e-05
-0.000122721
3.78601e-05
-0.000116958
3.05081e-05
-0.00011001
2.31388e-05
-0.00010368
1.84782e-05
-9.70886e-05
1.59178e-05
-9.06704e-05
1.5511e-05
-8.44371e-05
1.58392e-05
-7.95667e-05
1.58236e-05
-7.59963e-05
1.53341e-05
-7.28619e-05
1.45624e-05
-6.95099e-05
1.36412e-05
-6.56302e-05
1.25561e-05
-6.11217e-05
1.10552e-05
-5.60384e-05
7.67526e-06
-5.07202e-05
4.34678e-06
-4.5138e-05
2.13397e-06
-4.65006e-05
-4.18057e-05
-1.58982e-05
8.53384e-05
-1.82098e-05
9.35045e-05
-2.05622e-05
0.00010185
-2.28637e-05
0.000110289
-2.49887e-05
0.000118689
-2.67682e-05
0.00012685
-2.79769e-05
0.000134448
-2.83217e-05
0.000140978
-2.74367e-05
0.000145663
-2.48976e-05
0.000147382
-2.02755e-05
0.000144639
-1.32497e-05
0.000135709
-3.77201e-06
0.000119001
7.77762e-06
9.35899e-05
2.04794e-05
5.96554e-05
3.27706e-05
1.85977e-05
4.23663e-05
-2.71366e-05
4.60616e-05
-7.40122e-05
4.09343e-05
-0.000109773
3.96454e-05
-0.000125155
4.05283e-05
-0.000126387
3.90777e-05
-0.000123003
3.21408e-05
-0.000115784
2.30348e-05
-0.000107852
1.68107e-05
-0.000103786
1.28145e-05
-9.96839e-05
1.08673e-05
-9.51414e-05
1.03887e-05
-9.01918e-05
1.10709e-05
-8.51193e-05
1.21088e-05
-8.06046e-05
1.28658e-05
-7.67533e-05
1.31614e-05
-7.31576e-05
1.30359e-05
-6.93844e-05
1.2526e-05
-6.51203e-05
1.15548e-05
-6.01505e-05
9.86555e-06
-5.43492e-05
7.22119e-06
-4.80759e-05
5.54335e-06
-4.34602e-05
4.03447e-06
-4.49918e-05
-3.77713e-05
-1.12423e-05
8.67903e-05
-1.27097e-05
9.49719e-05
-1.41202e-05
0.000103261
-1.53759e-05
0.000111544
-1.63465e-05
0.00011966
-1.68616e-05
0.000127365
-1.67039e-05
0.00013429
-1.56059e-05
0.00013988
-1.32599e-05
0.000143317
-9.35336e-06
0.000143475
-3.64359e-06
0.00013893
3.92313e-06
0.000128142
1.30787e-05
0.000109845
2.31335e-05
8.35351e-05
3.29666e-05
4.98223e-05
4.10651e-05
1.04992e-05
4.55456e-05
-3.16171e-05
4.34638e-05
-7.19305e-05
3.57392e-05
-0.000102049
2.75241e-05
-0.00011694
2.18213e-05
-0.000120684
1.65531e-05
-0.000117735
1.20661e-05
-0.000111297
9.07633e-06
-0.000104862
6.76178e-06
-0.000101471
5.85281e-06
-9.87749e-05
6.17634e-06
-9.54649e-05
7.30978e-06
-9.13253e-05
8.88979e-06
-8.66993e-05
1.04558e-05
-8.21707e-05
1.16744e-05
-7.79718e-05
1.24373e-05
-7.39204e-05
1.27628e-05
-6.97099e-05
1.2685e-05
-6.50426e-05
1.21662e-05
-5.96317e-05
1.09968e-05
-5.31799e-05
8.942e-06
-4.60211e-05
7.84803e-06
-4.23662e-05
4.85486e-06
-4.19986e-05
-3.29164e-05
-6.29361e-06
8.74764e-05
-6.90743e-06
9.55857e-05
-7.37282e-06
0.000103726
-7.58947e-06
0.000111761
-7.42797e-06
0.000119498
-6.72597e-06
0.000126663
-5.28647e-06
0.000132851
-2.88465e-06
0.000137478
7.09621e-07
0.000139723
5.68243e-06
0.000138502
1.20921e-05
0.00013252
1.97629e-05
0.000120471
2.81884e-05
0.00010142
3.65005e-05
7.5223e-05
4.35198e-05
4.2803e-05
4.78721e-05
6.14691e-06
4.81255e-05
-3.18705e-05
4.2814e-05
-6.66189e-05
3.35059e-05
-9.27405e-05
2.41116e-05
-0.000107546
1.64382e-05
-0.00011301
1.05773e-05
-0.000111874
6.36232e-06
-0.000107082
4.2614e-06
-0.000102761
3.54763e-06
-0.000100757
4.02035e-06
-9.92476e-05
5.49916e-06
-9.69437e-05
7.47912e-06
-9.33052e-05
9.47489e-06
-8.8695e-05
1.11812e-05
-8.3877e-05
1.24809e-05
-7.92714e-05
1.33639e-05
-7.48035e-05
1.38915e-05
-7.02375e-05
1.41783e-05
-6.53294e-05
1.44083e-05
-5.98617e-05
1.49446e-05
-5.37162e-05
1.6109e-05
-4.71855e-05
1.55109e-05
-4.17682e-05
5.07213e-06
-3.15598e-05
-2.78443e-05
-1.14811e-06
8.73981e-05
-9.15794e-07
9.53534e-05
-4.51847e-07
0.000103262
3.42425e-07
0.000110967
1.58914e-06
0.000118252
3.43515e-06
0.000124817
6.04674e-06
0.000130239
9.59513e-06
0.000133929
1.42247e-05
0.000135093
1.99973e-05
0.00013273
2.68115e-05
0.000125706
3.43164e-05
0.000112966
4.18615e-05
9.38745e-05
4.85214e-05
6.85631e-05
5.32006e-05
3.81238e-05
5.47868e-05
4.56066e-06
5.23163e-05
-2.94e-05
4.56259e-05
-5.99286e-05
3.61705e-05
-8.32851e-05
2.66856e-05
-9.8061e-05
1.87281e-05
-0.000105053
1.28829e-05
-0.000106029
9.13393e-06
-0.000103333
7.55088e-06
-0.000101178
7.19576e-06
-0.000100402
7.66456e-06
-9.97164e-05
9.06189e-06
-9.8341e-05
1.10325e-05
-9.52758e-05
1.28417e-05
-9.05042e-05
1.42127e-05
-8.5248e-05
1.51777e-05
-8.02364e-05
1.57818e-05
-7.54075e-05
1.60895e-05
-7.05452e-05
1.62053e-05
-6.54451e-05
1.62764e-05
-5.99329e-05
1.64675e-05
-5.39072e-05
1.65176e-05
-4.72356e-05
1.38353e-05
-3.90858e-05
5.8026e-06
-2.35272e-05
-2.20417e-05
4.101e-06
8.65706e-05
5.15684e-06
9.42975e-05
6.51716e-06
0.000101902
8.27526e-06
0.000109209
1.0542e-05
0.000115985
1.34424e-05
0.000121917
1.71062e-05
0.000126576
2.16472e-05
0.000129388
2.71262e-05
0.000129614
3.34954e-05
0.000126361
4.05278e-05
0.000118673
4.77592e-05
0.000105735
5.44789e-05
8.71548e-05
5.97977e-05
6.32443e-05
6.27828e-05
3.51387e-05
6.26264e-05
4.71706e-06
5.87931e-05
-2.55667e-05
5.16089e-05
-5.27444e-05
4.25428e-05
-7.42189e-05
3.34639e-05
-8.89821e-05
2.57797e-05
-9.73686e-05
2.0173e-05
-0.000100422
1.67805e-05
-9.99405e-05
1.52805e-05
-9.9678e-05
1.48018e-05
-9.99234e-05
1.49777e-05
-9.98923e-05
1.58233e-05
-9.91866e-05
1.72176e-05
-9.66701e-05
1.84256e-05
-9.17122e-05
1.91093e-05
-8.59317e-05
1.94312e-05
-8.05583e-05
1.94348e-05
-7.54111e-05
1.91441e-05
-7.02545e-05
1.85898e-05
-6.48908e-05
1.7798e-05
-5.91411e-05
1.66813e-05
-5.27905e-05
1.48087e-05
-4.53629e-05
1.10357e-05
-3.53129e-05
5.29946e-06
-1.77909e-05
-1.67422e-05
9.36726e-06
8.50199e-05
1.12116e-05
9.24531e-05
1.34222e-05
9.96914e-05
1.60841e-05
0.000106547
1.92931e-05
0.000112776
2.31496e-05
0.00011806
2.77449e-05
0.00012198
3.31375e-05
0.000123996
3.93146e-05
0.000123437
4.61411e-05
0.000119534
5.33045e-05
0.00011151
6.02826e-05
9.87568e-05
6.63662e-05
8.10712e-05
7.07508e-05
5.88597e-05
7.26769e-05
3.32127e-05
7.15821e-05
5.81182e-06
6.72806e-05
-2.12652e-05
6.0285e-05
-4.57488e-05
5.18428e-05
-6.57768e-05
4.33506e-05
-8.04899e-05
3.59693e-05
-8.99873e-05
3.0514e-05
-9.49666e-05
2.72734e-05
-9.66999e-05
2.5502e-05
-9.79065e-05
2.45833e-05
-9.90047e-05
2.43336e-05
-9.96426e-05
2.45564e-05
-9.94095e-05
2.50893e-05
-9.72029e-05
2.54283e-05
-9.20512e-05
2.52918e-05
-8.57952e-05
2.48485e-05
-8.0115e-05
2.40939e-05
-7.46565e-05
2.30027e-05
-6.91633e-05
2.15547e-05
-6.34428e-05
1.97126e-05
-5.72991e-05
1.73464e-05
-5.04243e-05
1.41835e-05
-4.22001e-05
9.94112e-06
-3.10705e-05
5.06647e-06
-1.29163e-05
-1.16757e-05
1.45707e-05
8.27813e-05
1.71588e-05
8.98651e-05
2.01632e-05
9.6687e-05
2.36588e-05
0.000103051
2.77247e-05
0.00010871
3.24352e-05
0.00011335
3.78451e-05
0.00011657
4.39641e-05
0.000117877
5.07203e-05
0.000116681
5.79173e-05
0.000112337
6.51947e-05
0.000104232
7.20174e-05
9.19341e-05
7.77173e-05
7.53713e-05
8.15929e-05
5.49841e-05
8.30418e-05
3.17637e-05
8.1698e-05
7.15567e-06
7.75698e-05
-1.71371e-05
7.11834e-05
-3.93623e-05
6.35167e-05
-5.811e-05
5.56711e-05
-7.26443e-05
4.86125e-05
-8.29286e-05
4.31215e-05
-8.94756e-05
3.9665e-05
-9.32435e-05
3.7497e-05
-9.57384e-05
3.60294e-05
-9.75371e-05
3.51606e-05
-9.87737e-05
3.4652e-05
-9.89009e-05
3.41333e-05
-9.66842e-05
3.33491e-05
-9.1267e-05
3.2387e-05
-8.4833e-05
3.11753e-05
-7.89034e-05
2.96159e-05
-7.30971e-05
2.76418e-05
-6.71891e-05
2.52271e-05
-6.10281e-05
2.23631e-05
-5.44351e-05
1.89993e-05
-4.70605e-05
1.49776e-05
-3.81784e-05
1.01272e-05
-2.622e-05
4.92303e-06
-7.71214e-06
-6.75271e-06
1.96372e-05
7.98976e-05
2.29164e-05
8.65858e-05
2.6651e-05
9.29524e-05
3.0904e-05
9.87981e-05
3.57367e-05
0.000103877
4.11988e-05
0.000107887
4.73121e-05
0.000110457
5.40462e-05
0.000111143
6.12867e-05
0.000109441
6.88003e-05
0.000104823
7.62105e-05
9.68223e-05
8.30008e-05
8.51438e-05
8.85656e-05
6.98065e-05
9.2306e-05
5.12437e-05
9.37483e-05
3.03214e-05
9.26551e-05
8.24892e-06
8.91123e-05
-1.35943e-05
8.35863e-05
-3.38363e-05
7.68449e-05
-5.13687e-05
6.97619e-05
-6.55613e-05
6.3136e-05
-7.63027e-05
5.7606e-05
-8.39455e-05
5.35741e-05
-8.92116e-05
5.06833e-05
-9.28477e-05
4.86591e-05
-9.55128e-05
4.71326e-05
-9.72473e-05
4.57499e-05
-9.75182e-05
4.39827e-05
-9.49169e-05
4.20851e-05
-8.93695e-05
4.03497e-05
-8.30976e-05
3.83818e-05
-7.69355e-05
3.59787e-05
-7.0694e-05
3.30444e-05
-6.42549e-05
2.95736e-05
-5.75573e-05
2.56359e-05
-5.04974e-05
2.1314e-05
-4.27385e-05
1.65406e-05
-3.3405e-05
1.09585e-05
-2.0638e-05
4.72182e-06
-1.47544e-06
-2.03089e-06
2.44966e-05
7.6417e-05
2.84092e-05
8.26732e-05
3.28052e-05
8.85564e-05
3.77355e-05
9.38678e-05
4.32438e-05
9.8369e-05
4.9357e-05
0.000101774
5.60688e-05
0.000103745
6.33182e-05
0.000103894
7.09631e-05
0.000101796
7.87542e-05
9.70322e-05
8.63217e-05
8.92548e-05
9.31873e-05
7.82781e-05
9.88161e-05
6.41777e-05
0.000102702
4.73575e-05
0.000104469
2.85548e-05
0.000103953
8.76523e-06
0.000101255
-1.08966e-05
9.67579e-05
-2.93392e-05
9.10586e-05
-4.56694e-05
8.48408e-05
-5.93436e-05
7.87515e-05
-7.02134e-05
7.33004e-05
-7.84944e-05
6.87576e-05
-8.46688e-05
6.51263e-05
-8.92164e-05
6.22769e-05
-9.26635e-05
5.99481e-05
-9.49184e-05
5.74627e-05
-9.50328e-05
5.45339e-05
-9.1988e-05
5.1866e-05
-8.67016e-05
4.93919e-05
-8.06234e-05
4.66134e-05
-7.4157e-05
4.32664e-05
-6.7347e-05
3.92315e-05
-6.02199e-05
3.45119e-05
-5.28377e-05
2.92433e-05
-4.52288e-05
2.36583e-05
-3.71535e-05
1.78649e-05
-2.76116e-05
1.15946e-05
-1.43678e-05
4.51049e-06
5.60872e-06
2.47959e-06
2.90814e-05
7.23923e-05
3.35656e-05
7.81891e-05
3.85515e-05
8.35705e-05
4.40774e-05
8.83419e-05
5.01707e-05
9.22757e-05
5.68377e-05
9.51072e-05
6.40495e-05
9.65336e-05
7.1723e-05
9.62201e-05
7.97006e-05
9.38181e-05
8.77323e-05
8.90005e-05
9.54697e-05
8.15174e-05
0.000102482
7.12656e-05
0.000108305
5.83548e-05
0.000112513
4.31496e-05
0.000114801
2.62673e-05
0.000115046
8.5203e-06
0.000113337
-9.18769e-06
0.000109968
-2.59709e-05
0.000105393
-4.10938e-05
0.000100136
-5.40862e-05
9.47039e-05
-6.47818e-05
8.95183e-05
-7.33088e-05
8.48492e-05
-7.99997e-05
8.07596e-05
-8.51268e-05
7.70904e-05
-8.89943e-05
7.36661e-05
-9.14941e-05
6.99918e-05
-9.13585e-05
6.63532e-05
-8.83495e-05
6.30721e-05
-8.34206e-05
5.97721e-05
-7.73234e-05
5.60444e-05
-7.04292e-05
5.161e-05
-6.29126e-05
4.63074e-05
-5.49172e-05
4.00927e-05
-4.6623e-05
3.30777e-05
-3.82138e-05
2.55771e-05
-2.96529e-05
1.8019e-05
-2.00535e-05
1.08609e-05
-7.20964e-06
4.09752e-06
1.23721e-05
6.57711e-06
3.33239e-05
6.78798e-05
3.8315e-05
7.3198e-05
4.38175e-05
7.8068e-05
4.98573e-05
8.23021e-05
5.64467e-05
8.56864e-05
6.35745e-05
8.79795e-05
7.11936e-05
8.89144e-05
7.92064e-05
8.82073e-05
8.74488e-05
8.55756e-05
9.56801e-05
8.07692e-05
0.000103582
7.36159e-05
0.000110773
6.40744e-05
0.000116853
5.22747e-05
0.000121464
3.85384e-05
0.000124355
2.3376e-05
0.00012543
7.44537e-06
0.000124757
-8.51466e-06
0.000122552
-2.37657e-05
0.000119145
-3.76873e-05
0.000114934
-4.98743e-05
0.000110309
-6.01572e-05
0.000105635
-6.86345e-05
0.000101198
-7.55632e-05
9.70794e-05
-8.10081e-05
9.29838e-05
-8.48986e-05
8.86076e-05
-8.71179e-05
8.41207e-05
-8.68716e-05
7.98601e-05
-8.40889e-05
7.57554e-05
-7.93158e-05
7.14869e-05
-7.30549e-05
6.67036e-05
-6.56459e-05
6.11099e-05
-5.73189e-05
5.44845e-05
-4.82918e-05
4.66813e-05
-3.88198e-05
3.76507e-05
-2.91831e-05
2.75943e-05
-1.95966e-05
1.73861e-05
-9.84538e-06
7.70992e-06
2.46654e-06
1.36066e-06
1.87214e-05
7.93777e-06
3.71539e-05
6.29395e-05
4.25845e-05
6.77673e-05
4.85291e-05
7.21235e-05
5.50016e-05
7.58296e-05
6.20006e-05
7.86874e-05
6.95002e-05
8.04797e-05
7.744e-05
8.09747e-05
8.57125e-05
7.99348e-05
9.41538e-05
7.71344e-05
0.000102538
7.23852e-05
0.000110579
6.55744e-05
0.000117946
5.67081e-05
0.000124291
4.5929e-05
0.000129314
3.35155e-05
0.000132806
1.98846e-05
0.00013469
5.56149e-06
0.000135019
-8.84377e-06
0.000133942
-2.26887e-05
0.000131687
-3.54325e-05
0.000128547
-4.67342e-05
0.000124856
-5.64662e-05
0.000120961
-6.47398e-05
0.000117018
-7.16205e-05
0.000113028
-7.70181e-05
0.000108794
-8.0664e-05
0.000104076
-8.24005e-05
9.91585e-05
-8.19538e-05
9.42833e-05
-7.92138e-05
8.93749e-05
-7.44074e-05
8.41829e-05
-6.7863e-05
7.84043e-05
-5.98673e-05
7.1756e-05
-5.06707e-05
6.40001e-05
-4.05359e-05
5.49405e-05
-2.97602e-05
4.44099e-05
-1.86526e-05
3.22969e-05
-7.48352e-06
1.90074e-05
3.44408e-06
6.88038e-06
1.45935e-05
-1.47114e-06
2.70729e-05
6.46664e-06
4.04967e-05
5.76354e-05
4.62966e-05
6.19674e-05
5.26067e-05
6.58133e-05
5.94305e-05
6.90058e-05
6.67545e-05
7.13634e-05
7.45412e-05
7.26931e-05
8.272e-05
7.27959e-05
9.11785e-05
7.14763e-05
9.9756e-05
6.85568e-05
0.000108243
6.38984e-05
0.000116386
5.74314e-05
0.000123894
4.92001e-05
0.000130475
3.9348e-05
0.000135875
2.81158e-05
0.000139915
1.58448e-05
0.00014253
2.94638e-06
0.00014377
-1.00839e-05
0.000143727
-2.2646e-05
0.00014252
-3.4225e-05
0.000140432
-4.46465e-05
0.000137772
-5.38066e-05
0.000134811
-6.17782e-05
0.000131544
-6.83538e-05
0.000127828
-7.33026e-05
0.000123609
-7.64449e-05
0.000118927
-7.77178e-05
0.00011393
-7.69576e-05
0.000108727
-7.40104e-05
0.000103265
-6.89456e-05
9.73611e-05
-6.19589e-05
9.07796e-05
-5.32858e-05
8.32989e-05
-4.319e-05
7.4748e-05
-3.1985e-05
6.50359e-05
-2.00481e-05
5.41921e-05
-7.80878e-06
4.24362e-05
4.27238e-06
3.02775e-05
1.56027e-05
1.99411e-05
2.493e-05
1.98776e-05
2.71364e-05
2.63442e-05
4.32737e-05
5.20368e-05
4.9368e-05
5.58731e-05
5.59642e-05
5.92172e-05
6.30559e-05
6.19141e-05
7.062e-05
6.37992e-05
7.86101e-05
6.4703e-05
8.69496e-05
6.44564e-05
9.55255e-05
6.29004e-05
0.000104184
5.98987e-05
0.00011273
5.53523e-05
0.000120932
4.9229e-05
0.000128538
4.1594e-05
0.00013531
3.25759e-05
0.00014104
2.23865e-05
0.000145573
1.1311e-05
0.00014883
-3.10701e-07
0.000150853
-1.21062e-05
0.000151724
-2.35175e-05
0.000151526
-3.40269e-05
0.000150515
-4.3635e-05
0.000148891
-5.21824e-05
0.000146724
-5.96112e-05
0.000144056
-6.56866e-05
0.000140811
-7.00572e-05
0.000136983
-7.26172e-05
0.000132644
-7.33786e-05
0.00012785
-7.21636e-05
0.000122622
-6.8782e-05
0.000116895
-6.32185e-05
0.000110525
-5.55896e-05
0.00010334
-4.61008e-05
9.51879e-05
-3.50376e-05
8.59772e-05
-2.27743e-05
7.57139e-05
-9.78481e-06
6.45467e-05
3.35839e-06
5.28483e-05
1.59708e-05
4.13082e-05
2.71428e-05
3.08084e-05
3.54298e-05
1.78818e-05
4.00631e-05
4.4226e-05
4.54051e-05
4.62194e-05
5.17134e-05
4.95648e-05
5.85106e-05
5.242e-05
6.57825e-05
5.46422e-05
7.34978e-05
5.60839e-05
8.16039e-05
5.65969e-05
9.00217e-05
5.60385e-05
9.86412e-05
5.42809e-05
0.000107317
5.12227e-05
0.000115866
4.68031e-05
0.000124081
4.10144e-05
0.000131765
3.39102e-05
0.000138719
2.56219e-05
0.000144766
1.63398e-05
0.000149775
6.30165e-06
0.000153659
-4.19508e-06
0.0001564
-1.48471e-05
0.000158046
-2.51633e-05
0.000158739
-3.47194e-05
0.000158625
-4.35211e-05
0.000157851
-5.14086e-05
0.00015643
-5.81904e-05
0.000154387
-6.36434e-05
0.000151744
-6.74146e-05
0.000148574
-6.94465e-05
0.000144857
-6.96617e-05
0.000140537
-6.78435e-05
0.000135562
-6.38079e-05
0.000129841
-5.74966e-05
0.000123237
-4.89861e-05
0.000115615
-3.84788e-05
0.000106873
-2.62954e-05
9.69711e-05
-1.28725e-05
8.59511e-05
1.23517e-06
7.3959e-05
1.53505e-05
6.12489e-05
2.86808e-05
4.80729e-05
4.03188e-05
3.42044e-05
4.92983e-05
1.86789e-05
5.55886e-05
6.29049e-05
4.6815e-05
4.02652e-05
5.32501e-05
4.31297e-05
6.01575e-05
4.55126e-05
6.75154e-05
4.72843e-05
7.52864e-05
4.8313e-05
8.34131e-05
4.84702e-05
9.18152e-05
4.76364e-05
0.000100387
4.57094e-05
0.000108995
4.26143e-05
0.000117482
3.83159e-05
0.000125668
3.28285e-05
0.000133376
2.62021e-05
0.000140453
1.85448e-05
0.000146769
1.00245e-05
0.000152202
8.68517e-07
0.000156659
-8.65167e-06
0.000160041
-1.82298e-05
0.000162365
-2.74866e-05
0.000163818
-3.61732e-05
0.000164456
-4.41583e-05
0.000164399
-5.13519e-05
0.000163698
-5.74892e-05
0.00016238
-6.23257e-05
0.000160561
-6.5596e-05
0.000158247
-6.71325e-05
0.000155335
-6.67498e-05
0.000151707
-6.42152e-05
0.000147234
-5.93345e-05
0.000141763
-5.20253e-05
0.000135134
-4.23577e-05
0.000127221
-3.05653e-05
0.000117952
-1.70269e-05
0.000107319
-2.2397e-06
9.53745e-05
1.318e-05
8.22358e-05
2.84892e-05
6.80529e-05
4.28637e-05
5.28964e-05
5.54754e-05
3.65365e-05
6.56582e-05
1.86263e-05
7.34989e-05
8.15312e-05
4.74392e-05
3.42628e-05
5.39083e-05
3.66607e-05
6.08289e-05
3.8592e-05
6.81733e-05
3.99398e-05
7.58988e-05
4.05875e-05
8.39448e-05
4.04242e-05
9.22309e-05
3.93503e-05
0.000100656
3.72846e-05
0.000109097
3.41724e-05
0.000117419
2.9994e-05
0.000125477
2.47711e-05
0.000133117
1.85623e-05
0.000140198
1.1463e-05
0.000146599
3.62387e-06
0.000152217
-4.7493e-06
0.000156981
-1.34159e-05
0.000160842
-2.20912e-05
0.000163806
-3.04506e-05
0.000165926
-3.82925e-05
0.000167283
-4.55157e-05
0.000167983
-5.2052e-05
0.000168127
-5.76334e-05
0.00016777
-6.19687e-05
0.000166969
-6.47943e-05
0.000165681
-6.58444e-05
0.000163774
-6.48434e-05
0.000161067
-6.15078e-05
0.000157339
-5.56065e-05
0.000152352
-4.70381e-05
0.000145891
-3.58972e-05
0.000137822
-2.24966e-05
0.000128104
-7.30886e-06
0.000116759
9.10606e-06
0.000103856
2.60822e-05
8.9519e-05
4.28266e-05
7.38847e-05
5.8498e-05
5.70291e-05
7.2331e-05
3.88851e-05
8.38022e-05
1.93778e-05
9.30062e-05
0.000100909
4.72346e-05
2.83057e-05
5.36398e-05
3.02554e-05
6.04726e-05
3.17592e-05
6.77005e-05
3.27119e-05
7.52765e-05
3.30114e-05
8.31381e-05
3.25625e-05
9.12061e-05
3.12823e-05
9.93842e-05
2.91065e-05
0.000107561
2.59956e-05
0.000115615
2.19405e-05
0.000123418
1.69672e-05
0.000130845
1.11359e-05
0.000137766
4.54131e-06
0.000144069
-2.67889e-06
0.000149664
-1.03445e-05
0.000154494
-1.82456e-05
0.000158548
-2.61449e-05
0.000161894
-3.3797e-05
0.00016459
-4.09879e-05
0.000166712
-4.76386e-05
0.000168311
-5.36509e-05
0.000169459
-5.87809e-05
0.000170218
-6.27278e-05
0.0001706
-6.51765e-05
0.000170537
-6.57809e-05
0.000169859
-6.41659e-05
0.00016831
-5.99581e-05
0.000165565
-5.2862e-05
0.000161278
-4.27512e-05
0.000155157
-2.97765e-05
0.000147058
-1.43976e-05
0.000136985
2.7646e-06
0.000125008
2.10827e-05
0.000111222
3.98684e-05
9.57823e-05
5.82665e-05
7.88838e-05
7.53966e-05
6.06806e-05
9.05342e-05
4.12451e-05
0.000103238
2.0674e-05
0.000113577
0.000121583
4.61864e-05
2.24897e-05
5.24281e-05
2.40138e-05
5.90706e-05
2.51166e-05
6.60774e-05
2.57051e-05
7.33992e-05
2.56897e-05
8.09726e-05
2.49891e-05
8.87202e-05
2.35347e-05
9.65513e-05
2.12754e-05
0.000104364
1.81831e-05
0.000112048
1.42566e-05
0.00011949
9.52456e-06
0.00012658
4.04606e-06
0.00013321
-2.08865e-06
0.000139288
-8.75626e-06
0.000144745
-1.58022e-05
0.00014955
-2.30502e-05
0.000153715
-3.031e-05
0.000157308
-3.73901e-05
0.000160444
-4.41242e-05
0.000163202
-5.03961e-05
0.00016562
-5.60685e-05
0.000167753
-6.09142e-05
0.00016965
-6.46247e-05
0.0001713
-6.68263e-05
0.000172596
-6.70778e-05
0.000173312
-6.4881e-05
0.000173096
-5.97424e-05
0.000171521
-5.12875e-05
0.000168118
-3.93477e-05
0.000162491
-2.41501e-05
0.000154481
-6.38682e-06
0.000144174
1.30708e-05
0.000131713
3.3544e-05
0.000117179
5.44026e-05
0.00010079
7.4656e-05
8.28445e-05
9.33416e-05
6.36017e-05
0.000109777
4.3216e-05
0.000123623
2.18042e-05
0.000134989
0.000143387
4.43157e-05
1.69098e-05
5.02952e-05
1.80343e-05
5.66462e-05
1.87656e-05
6.33297e-05
1.90216e-05
7.02948e-05
1.87247e-05
7.74784e-05
1.78055e-05
8.48058e-05
1.62072e-05
9.21917e-05
1.38895e-05
9.95423e-05
1.08325e-05
0.000106759
7.04013e-06
0.000113742
2.54159e-06
0.000120396
-2.60768e-06
0.000126633
-8.32633e-06
0.000132385
-1.4508e-05
0.000137608
-2.10251e-05
0.000142294
-2.77365e-05
0.000146478
-3.44943e-05
0.000150241
-4.11523e-05
0.000153691
-4.75747e-05
0.000156929
-5.36339e-05
0.000160031
-5.91702e-05
0.000163061
-6.39444e-05
0.000166054
-6.76181e-05
0.000168971
-6.97436e-05
0.000171652
-6.9758e-05
0.000173784
-6.70134e-05
0.000174931
-6.0889e-05
0.000174611
-5.09675e-05
0.000172259
-3.69958e-05
0.000167342
-1.92338e-05
0.000159616
1.33949e-06
0.000149281
2.34062e-05
0.00013653
4.62942e-05
0.000121358
6.95751e-05
0.000104146
9.18675e-05
8.5366e-05
0.000112122
6.53885e-05
0.000129755
4.44009e-05
0.000144611
2.24607e-05
0.000156929
0.000165848
4.16824e-05
1.16561e-05
4.7306e-05
1.24106e-05
5.32697e-05
1.2802e-05
5.95329e-05
1.27584e-05
6.60444e-05
1.22131e-05
7.27426e-05
1.11074e-05
7.95558e-05
9.39398e-06
8.64043e-05
7.04106e-06
9.32022e-05
4.03465e-06
9.98612e-05
3.81141e-07
0.000106294
-3.89157e-06
0.000112421
-8.73439e-06
0.000118173
-1.4078e-05
0.0001235
-1.98356e-05
0.000128383
-2.59079e-05
0.000132836
-3.2189e-05
0.000136912
-3.8571e-05
0.000140707
-4.4947e-05
0.000144341
-5.12085e-05
0.000147938
-5.72312e-05
0.000151608
-6.28401e-05
0.00015543
-6.77669e-05
0.000159426
-7.16132e-05
0.000163502
-7.38197e-05
0.000167406
-7.36627e-05
0.000170734
-7.03407e-05
0.000173011
-6.31664e-05
0.000173861
-5.18178e-05
0.00017279
-3.59249e-05
0.000169225
-1.56681e-05
0.000162653
7.91161e-06
0.000152672