/*--------------------------------*- C++ -*----------------------------------*\
| =========                 |                                                 |
| \\      /  F ield         | OpenFOAM: The Open Source CFD Toolbox           |
|  \\    /   O peration     | Version:  5.0                                   |
|   \\  /    A nd           | Web:      www.OpenFOAM.org                      |
|    \\/     M anipulation  |                                                 |
\*---------------------------------------------------------------------------*/
FoamFile
{
    version     2.0;
    format      ascii;
    class       volScalarField;
    location    "0.1";
    object      alpha.water;
}
// * * * * * * * * * * * * * * * * * * * * * * * * * * * * * * * * * * * * * //

dimensions      [0 0 0 0 0 0 0];

internalField   nonuniform List<scalar> 
1935
(
1
1
1
1
1
1
1
1
1
1
1
1
1
1
1
1
1
1
1
1
1
1
1
1
1
0.999984
0.999948
0.999914
0.999923
0.999609
0.991584
0.974509
0.952717
0.89944
0.67397
0.141758
-0.000405075
-0.000147526
-3.80953e-05
-8.69563e-06
-1.32847e-06
-1.4894e-07
-1.76117e-08
-2.58267e-09
1
0.999999
1
1
1
1
1
1
1
1
1
1
1
1
1
1
1
1
1
1
1
1
1
1
1
0.999997
0.999969
0.999784
0.999059
0.994279
0.974038
0.87116
0.479382
0.0890424
0.0382289
0.0482506
0.0298399
0.00559522
0.00121806
0.000377128
9.91333e-05
2.09168e-05
3.31665e-06
3.43002e-07
1
1
1
1
1
1
1
1
1
1
1
1
1
1
1
1
1
1
1
1
1
1
1
1
1
0.999981
0.999794
0.998936
0.993998
0.964788
0.831978
0.417282
0.0703419
0.0113782
0.00398947
0.00317255
0.00656671
0.00629471
0.00191431
0.000298209
6.21539e-05
1.31957e-05
2.07577e-06
2.30179e-07
1
1
1
1
1
1
1
1
1
1
1
1
1
1
1
1
1
1
1
1
1
1
1
1
1
0.999964
0.999358
0.994616
0.957975
0.744772
0.280025
0.0472087
0.0124144
0.00359252
0.000997899
0.000305917
0.000198887
0.000408961
0.000563363
0.000250235
2.82905e-05
5.39491e-06
9.79196e-07
1.14713e-07
1
1
1
1
1
1
1
1
1
1
1
1
1
1
1
1
1
1
1
1
1
1
1
1
1
1
0.99908
0.965384
0.702729
0.20587
0.0247365
0.0079486
0.00324696
0.00115941
0.00033417
9.13974e-05
3.21174e-05
3.01873e-05
3.20433e-05
4.37579e-05
1.60408e-05
2.24773e-06
4.28834e-07
5.34537e-08
1
1
1
1
1
1
1
1
1
1
1
1
1
1
1
1
1
1
1
1
1
1
1
1
1
1
0.995108
0.77171
0.232215
0.0202663
0.00725773
0.0028564
0.000926197
0.000299816
9.66584e-05
2.87263e-05
9.28615e-06
6.75188e-06
7.09535e-06
4.95812e-06
3.16161e-06
9.81175e-07
1.88816e-07
2.55852e-08
1
1
1
1
1
1
1
1
1
1
1
1
1
1
1
1
1
1
1
1
1
1
1
1
1
1
0.928567
0.416994
0.0298281
0.0074707
0.00265876
0.000903715
0.000298529
9.28422e-05
2.88428e-05
9.43444e-06
2.95097e-06
1.65398e-06
1.58601e-06
1.19718e-06
6.96287e-07
3.26829e-07
8.05436e-08
1.21681e-08
1
1
1
1
1
1
1
1
1
1
1
1
1
1
1
1
1
1
1
1
1
1
1
1
1
1
0.754199
0.144026
0.0107211
0.00323464
0.0010143
0.000314811
9.80418e-05
3.00527e-05
9.24432e-06
3.1233e-06
1.00523e-06
4.47473e-07
3.64842e-07
2.86979e-07
1.76362e-07
9.39121e-08
3.27229e-08
6.23705e-09
1
1
1
1
1
1
1
1
1
1
1
1
1
1
1
1
1
1
1
1
1
1
1
1
1
0.995893
0.520364
0.0372694
0.00570457
0.0016125
0.000454456
0.000128168
3.65444e-05
1.05479e-05
3.15455e-06
1.02461e-06
3.62371e-07
1.34417e-07
8.85746e-08
6.90852e-08
4.59478e-08
2.57745e-08
1.27993e-08
3.50065e-09
1
1
1
1
1
1
1
1
1
1
1
1
1
1
1
1
1
1
1
1
1
1
1
1
1
0.939254
0.325602
0.0124302
0.00329996
0.000874849
0.000229061
5.9534e-05
1.55129e-05
4.11812e-06
1.15003e-06
3.61195e-07
1.33596e-07
4.45051e-08
2.32294e-08
1.69049e-08
1.1836e-08
7.3085e-09
4.40241e-09
1.92672e-09
1
1
1
1
1
1
1
1
1
1
1
1
1
1
1
1
1
1
1
1
1
1
1
1
1
0.85971
0.191009
0.00780431
0.00195623
0.000487768
0.000119845
2.91097e-05
7.05417e-06
1.73632e-06
4.49684e-07
1.31001e-07
4.51335e-08
1.6054e-08
6.80576e-09
4.32678e-09
3.05016e-09
2.08596e-09
1.43194e-09
9.84385e-10
1
1
1
1
1
1
1
1
1
1
1
1
1
1
1
1
1
1
1
1
1
1
1
1
1
0.76433
0.105458
0.00504096
0.0011918
0.000279174
6.45744e-05
1.47741e-05
3.3745e-06
7.75384e-07
1.85798e-07
4.97385e-08
1.60399e-08
6.20446e-09
2.369e-09
1.28704e-09
9.13289e-10
6.77036e-10
4.9098e-10
4.53688e-10
1
1
1
1
1
1
1
1
1
1
1
1
1
1
1
1
1
1
1
1
1
1
1
1
1
0.656307
0.0532509
0.0033604
0.000747431
0.000164255
3.57801e-05
7.73476e-06
1.67698e-06
3.63411e-07
8.09829e-08
2.00675e-08
6.07263e-09
2.49102e-09
9.84376e-10
4.78934e-10
3.14475e-10
2.47714e-10
2.12296e-10
1.83157e-10
1
1
1
1
1
1
1
1
1
1
1
1
1
1
1
1
1
1
1
1
1
1
1
1
1
0.55055
0.0259802
0.00231438
0.000485647
9.98906e-05
2.04555e-05
4.17653e-06
8.58343e-07
1.76455e-07
3.72622e-08
8.65433e-09
2.49546e-09
9.78433e-10
4.3356e-10
2.21676e-10
1.39221e-10
1.01018e-10
7.87334e-11
5.60023e-11
1
1
1
1
1
1
1
1
1
1
1
1
1
1
1
1
1
1
1
1
1
1
1
1
1.00001
0.443169
0.0125231
0.00164021
0.000323821
6.2408e-05
1.20263e-05
2.32094e-06
4.51783e-07
8.84568e-08
1.7905e-08
4.04439e-09
1.16229e-09
4.34338e-10
2.20868e-10
1.06133e-10
5.44994e-11
3.28553e-11
2.1426e-11
1.46188e-11
1
1
1
1
1
1
1
1
1
1
1
1
1
1
1
1
1
1
1
1
1
1
1
1
0.973883
0.357696
0.00641646
0.00116944
0.00021677
3.93905e-05
7.18266e-06
1.31586e-06
2.43478e-07
4.55982e-08
8.94415e-09
2.02076e-09
5.88244e-10
2.55702e-10
1.15264e-10
4.3436e-11
1.76373e-11
8.94124e-12
5.34922e-12
3.46393e-12
1
1
1
1
1
1
1
1
1
1
1
1
1
1
1
1
1
1
1
1
1
1
1
1
0.944409
0.285866
0.00483936
0.00084134
0.000146398
2.51342e-05
4.34732e-06
7.57911e-07
1.33592e-07
2.40706e-08
4.62639e-09
1.08075e-09
3.27701e-10
1.57509e-10
5.71725e-11
1.69985e-11
5.78294e-12
2.47056e-12
1.30047e-12
7.7562e-13
1
1
1
1
1
1
1
1
1
1
1
1
1
1
1
1
1
1
1
1
1
1
1
1
0.910275
0.223123
0.00363714
0.000601242
9.90251e-05
1.61231e-05
2.65429e-06
4.4157e-07
7.44016e-08
1.29638e-08
2.48248e-09
6.02243e-10
2.20252e-10
9.35402e-11
2.73916e-11
7.0214e-12
2.02857e-12
7.17337e-13
3.1975e-13
1.69712e-13
1
1
1
1
1
1
1
1
1
1
1
1
1
1
1
1
1
1
1
1
1
1
1
1
0.870308
0.169711
0.00271206
0.00042814
6.68474e-05
1.03544e-05
1.62731e-06
2.58814e-07
4.1908e-08
7.11305e-09
1.3863e-09
3.47308e-10
1.51606e-10
5.37252e-11
1.31877e-11
3.04198e-12
7.64236e-13
2.24479e-13
8.23501e-14
3.7438e-14
1
1
1
1
1
1
1
1
1
1
1
1
1
1
1
1
1
1
1
1
1
1
1
1
0.826556
0.126156
0.00198321
0.000303692
4.49856e-05
6.64564e-06
9.98705e-07
1.52131e-07
2.38055e-08
3.96782e-09
8.06997e-10
2.16522e-10
1.00128e-10
3.00325e-11
6.43807e-12
1.36959e-12
3.07135e-13
7.65923e-14
2.29237e-14
8.60936e-15
1
1
1
1
1
1
1
1
1
1
1
1
1
1
1
1
1
1
1
1
1
1
1
1
0.777202
0.0900558
0.00145241
0.000213617
3.00646e-05
4.24627e-06
6.10792e-07
8.93925e-08
1.36013e-08
2.2542e-09
4.78852e-10
1.60655e-10
6.45698e-11
1.62361e-11
3.20703e-12
6.35915e-13
1.30083e-13
2.83813e-14
7.03853e-15
2.13608e-15
8.11111e-16
1
1
1
1
1
1
1
1
1
1
1
1
1
1
1
1
1
1
1
1
1
1
1
1
0.724623
0.0619272
0.00106479
0.000150015
2.00617e-05
2.70922e-06
3.73277e-07
5.29207e-08
7.82171e-09
1.30732e-09
2.85017e-10
1.17458e-10
4.02934e-11
8.75043e-12
1.62295e-12
3.02289e-13
5.72991e-14
1.12497e-14
2.38784e-15
5.88668e-16
1.82571e-16
1
1
1
1
1
1
1
1
1
1
1
1
1
1
1
1
1
1
1
1
1
1
1
1
0.665946
0.0398488
0.00078024
0.000105511
1.34285e-05
1.73376e-06
2.29329e-07
3.1554e-08
4.54838e-09
7.79268e-10
1.75471e-10
8.06697e-11
2.42066e-11
4.67406e-12
8.25485e-13
1.45777e-13
2.59039e-14
4.67758e-15
8.80396e-16
1.81851e-16
4.52882e-17
1
1
1
1
1
1
1
1
1
1
1
1
1
1
1
1
1
1
1
1
1
1
1
1
0.606035
0.0240381
0.000580057
7.55527e-05
9.14894e-06
1.12682e-06
1.44093e-07
1.90195e-08
2.68377e-09
4.81011e-10
1.19766e-10
5.46349e-11
1.41366e-11
2.47278e-12
4.1945e-13
7.06803e-14
1.18759e-14
2.00289e-15
3.44051e-16
6.20488e-17
1.2633e-17
1
1
1
1
1
1
1
1
1
1
1
1
1
1
1
1
1
1
1
1
1
1
1
1
0.540229
0.013268
0.000436991
5.51279e-05
6.3692e-06
7.4827e-07
9.20551e-08
1.16333e-08
1.61748e-09
3.013e-10
1.01189e-10
3.72401e-11
7.96998e-12
1.31461e-12
2.13049e-13
3.42923e-14
5.47431e-15
8.70578e-16
1.39138e-16
2.27057e-17
3.94911e-18
1
1
1
1
1
1
1
1
1
1
1
1
1
1
1
1
1
1
1
1
1
1
1
1
0.475758
0.00724024
0.000337627
4.12456e-05
4.55145e-06
5.09469e-07
5.97547e-08
7.23275e-09
9.97322e-10
1.886e-10
7.80292e-11
2.42828e-11
4.51186e-12
6.9996e-13
1.08118e-13
1.66023e-14
2.52226e-15
3.80202e-16
5.7176e-17
8.64637e-18
1.34259e-18
1
1
1
1
1
1
1
1
1
1
1
1
1
1
1
1
1
1
1
1
1
1
1
1.00001
0.409203
0.00369222
0.000268507
3.12061e-05
3.29479e-06
3.51845e-07
3.91701e-08
4.55508e-09
6.26398e-10
1.17684e-10
5.37186e-11
1.50593e-11
2.49403e-12
3.67793e-13
5.43453e-14
7.96749e-15
1.15365e-15
1.65372e-16
2.35529e-17
3.34646e-18
4.78617e-19
1
1
1
1
1
1
1
1
1
1
1
1
1
1
1
1
1
1
1
1
1
1
1
0.985358
0.356097
0.00215738
0.000215799
2.31739e-05
2.34738e-06
2.40235e-07
2.55644e-08
2.87579e-09
4.01097e-10
7.66043e-11
3.60258e-11
8.86483e-12
1.32496e-12
1.88527e-13
2.67698e-14
3.75457e-15
5.19265e-16
7.09877e-17
9.61699e-18
1.29402e-18
1.73572e-19
1
1
1
1
1
1
1
1
1
1
1
1
1
1
1
1
1
1
1
1
1
1
1
0.965385
0.30687
0.00170822
0.000166802
1.68571e-05
1.63462e-06
1.60325e-07
1.63694e-08
1.79522e-09
2.60575e-10
5.98851e-11
2.44166e-11
4.92597e-12
6.81111e-13
9.39035e-14
1.28229e-14
1.72331e-15
2.28098e-16
2.98086e-17
3.85351e-18
4.93458e-19
6.26845e-20
1
1
1
1
1
1
1
1
1
1
1
1
1
1
1
1
1
1
1
1
1
1
1
0.944768
0.261089
0.00133472
0.000124681
1.2007e-05
1.1106e-06
1.04107e-07
1.02022e-08
1.09993e-09
1.65776e-10
5.39731e-11
1.63651e-11
2.64183e-12
3.45611e-13
4.5581e-14
5.96194e-15
7.67162e-16
9.72158e-17
1.21583e-17
1.50276e-18
1.83699e-19
2.22183e-20
1
1
1
1
1
1
1
1
1
1
1
1
1
1
1
1
1
1
1
1
1
1
1
0.921355
0.219218
0.000986894
9.16095e-05
8.38112e-06
7.35605e-07
6.55478e-08
6.16363e-09
6.5822e-10
1.00182e-10
4.14546e-11
1.01799e-11
1.40597e-12
1.72613e-13
2.16055e-14
2.69147e-15
3.30599e-16
4.00534e-17
4.79242e-18
5.66684e-19
6.62321e-20
7.64959e-21
1
1
1
1
1
1
1
1
1
1
1
1
1
1
1
1
1
1
1
1
1
1
1
0.895053
0.181281
0.000698762
6.59883e-05
5.70509e-06
4.72649e-07
3.98132e-08
3.60168e-09
3.85779e-10
5.88807e-11
2.66154e-11
5.71637e-12
7.06634e-13
8.3198e-14
9.91517e-15
1.174e-15
1.37373e-16
1.58877e-17
1.81701e-18
2.05505e-19
2.29776e-20
2.53798e-21
1
1
1
1
1
1
1
1
1
1
1
1
1
1
1
1
1
1
1
1
1
1
1
0.86586
0.147141
0.000498558
4.63161e-05
3.75624e-06
2.92065e-07
2.31126e-08
2.02158e-09
2.24866e-10
3.81646e-11
1.64403e-11
2.90745e-12
3.30817e-13
3.80179e-14
4.34159e-15
4.89886e-16
5.46398e-17
6.03059e-18
6.58921e-19
7.12625e-20
7.62374e-21
8.0592e-22
1
1
1
1
1
1
1
1
1
1
1
1
1
1
1
1
1
1
1
1
1
1
1
0.833665
0.116702
0.000351824
3.14433e-05
2.36711e-06
1.70947e-07
1.26724e-08
1.08086e-09
1.27723e-10
3.69411e-11
1.02287e-11
1.35178e-12
1.48136e-13
1.64312e-14
1.79912e-15
1.93912e-16
2.06426e-17
2.17522e-18
2.2708e-19
2.34839e-20
2.4042e-21
2.4336e-22
1
1
1
1
1
1
1
1
1
1
1
1
1
1
1
1
1
1
1
1
1
1
1
0.798261
0.0899544
0.000241351
2.04244e-05
1.40747e-06
9.258e-08
6.49954e-09
5.45139e-10
6.78305e-11
2.96183e-11
5.9878e-12
6.39988e-13
6.48819e-14
6.79363e-15
7.07265e-16
7.26176e-17
7.37104e-18
7.41265e-19
7.39202e-20
7.3096e-21
7.16223e-22
6.94459e-23
1
1
1
1
1
1
1
1
1
1
1
1
1
1
1
1
1
1
1
1
1
1
1
0.759482
0.0668789
0.000158076
1.2475e-05
7.72924e-07
4.62103e-08
3.04984e-09
2.5806e-10
3.27892e-11
1.74549e-11
3.05383e-12
2.9222e-13
2.76181e-14
2.69993e-15
2.64604e-16
2.57245e-17
2.48107e-18
2.37639e-19
2.26122e-20
2.13694e-21
2.00385e-22
1.86165e-23
1
1
1
1
1
1
1
1
1
1
1
1
1
1
1
1
1
1
1
1
1
1
1
0.717174
0.0473986
9.6234e-05
6.97187e-06
3.7817e-07
2.02821e-08
1.30481e-09
1.17239e-10
2.70595e-11
9.00279e-12
1.28626e-12
1.23233e-13
1.11583e-14
1.02131e-15
9.3823e-17
8.59408e-18
7.84456e-19
7.13618e-20
6.46793e-21
5.83619e-22
5.23581e-23
4.66142e-24
1
0.999999
1
1
1
1
1
1
1
1
1
1
1
1
1
1
1
1
1
1
1
1
1
0.671278
0.031412
5.21397e-05
3.44081e-06
1.58519e-07
7.58321e-09
5.1218e-10
5.0916e-11
2.2671e-11
4.62891e-12
5.18725e-13
4.81652e-14
4.20159e-15
3.62566e-16
3.12262e-17
2.68814e-18
2.31535e-19
1.99556e-20
1.71991e-21
1.4804e-22
1.27026e-23
1.084e-24
1
0.999997
0.999998
0.999999
1
1
1
1
1
1
1
1
1
1
1
1
1
1
1
1
1
1
1
0.621785
0.0188508
2.35187e-05
1.46622e-06
5.48607e-08
2.61198e-09
1.80095e-10
2.35359e-11
1.43293e-11
2.32042e-12
2.10685e-13
1.7811e-14
1.47304e-15
1.19632e-16
9.65123e-18
7.79517e-19
6.32359e-20
5.15561e-21
4.22109e-22
3.46451e-23
2.84369e-24
2.32746e-25
1
0.999988
0.999994
0.999997
0.999999
0.999999
1
1
1
1
1
1
1
1
1
1
1
1
1
1
1
1
1
0.568555
0.00968946
8.06347e-06
5.68514e-07
1.68831e-08
8.61407e-10
6.04007e-11
1.80255e-11
7.66315e-12
1.09506e-12
8.41973e-14
6.29866e-15
4.81809e-16
3.64172e-17
2.73988e-18
2.07167e-19
1.58091e-20
1.21866e-21
9.47952e-23
7.4236e-24
5.83473e-25
4.5861e-26
1
0.999957
0.999976
0.999989
0.999995
0.999997
0.999998
0.999999
0.999999
0.999999
0.999999
0.999999
0.999999
0.999999
0.999999
0.999999
0.999999
0.999999
0.999999
0.999999
0.999999
0.999999
0.999999
0.511456
0.00394596
1.66531e-06
2.39742e-07
5.25393e-09
2.83778e-10
2.0191e-11
9.8567e-12
3.95389e-12
5.07484e-13
3.21437e-14
2.10719e-15
1.45756e-16
1.01082e-17
7.0479e-19
4.97749e-20
3.57258e-21
2.60655e-22
1.92954e-23
1.44469e-24
1.08967e-25
8.24359e-27
1
0.999849
0.999913
0.999959
0.999979
0.999988
0.999993
0.999995
0.999996
0.999997
0.999997
0.999997
0.999997
0.999997
0.999997
0.999997
0.999996
0.999996
0.999995
0.999995
0.999995
0.999995
0.999995
0.45025
0.00121462
-4.84552e-07
1.2792e-07
1.77355e-09
8.33326e-11
8.61741e-12
5.92834e-12
1.93672e-12
1.9887e-13
1.10511e-14
6.44089e-16
3.96999e-17
2.50184e-18
1.61109e-19
1.06337e-20
7.19767e-22
4.98658e-23
3.52584e-24
2.53324e-25
1.84016e-26
1.34439e-27
1.00002
0.999467
0.999681
0.999839
0.999914
0.999949
0.999967
0.999976
0.999981
0.999984
0.999986
0.999986
0.999986
0.999986
0.999985
0.999984
0.999982
0.999981
0.999979
0.999977
0.999976
0.999975
0.999977
0.384239
0.000203914
-1.01938e-06
7.46235e-08
5.25116e-10
7.97852e-12
6.05549e-12
5.07317e-12
8.73555e-13
6.30083e-14
3.24007e-15
1.69498e-16
9.32341e-18
5.34874e-19
3.19222e-20
1.97879e-21
1.27047e-22
8.4192e-24
5.72627e-25
3.97337e-26
2.7951e-27
1.98036e-28
1.00006
0.998153
0.998822
0.999373
0.999649
0.999784
0.999852
0.99989
0.999912
0.999925
0.999931
0.999934
0.999933
0.999931
0.999927
0.999922
0.999915
0.999908
0.9999
0.999893
)
;

boundaryField
{
    leftWall
    {
        type            zeroGradient;
    }
    rightWall
    {
        type            zeroGradient;
    }
    lowerWall
    {
        type            zeroGradient;
    }
    atmosphere
    {
        type            inletOutlet;
        inletValue      nonuniform 0();
        value           nonuniform 0();
    }
    defaultFaces
    {
        type            empty;
    }
    procBoundary0to1
    {
        type            processor;
        value           nonuniform List<scalar> 
44
(
-3.0162e-10
1.60637e-08
1.27257e-08
7.12494e-09
3.59763e-09
1.78423e-09
1.00969e-09
9.33067e-10
9.31988e-10
8.33669e-10
6.26729e-10
3.56626e-10
1.32963e-10
3.91837e-11
9.90562e-12
2.25341e-12
4.7639e-13
9.6434e-14
1.91721e-14
3.83695e-15
3.83695e-15
1.50576e-16
2.9363e-17
7.9564e-18
2.25913e-18
6.67774e-19
2.09429e-19
6.89378e-20
2.33203e-20
7.93519e-21
2.66887e-21
8.75731e-22
2.77607e-22
8.43477e-23
2.43934e-23
6.67143e-24
1.71501e-24
4.12e-25
9.19758e-26
1.8975e-26
3.59778e-27
6.23638e-28
9.83697e-29
1.40741e-29
)
;
    }
    procBoundary0to2
    {
        type            processor;
        value           nonuniform List<scalar> 
46
(
0.999889
0.999886
0.999894
0.312756
0.000123799
3.19177e-08
3.53093e-08
1.15877e-10
3.48336e-12
5.47603e-12
3.76402e-12
3.25955e-13
1.67009e-14
7.85283e-16
3.71815e-17
1.85665e-18
9.81146e-20
5.46694e-21
3.19505e-22
1.9531e-23
1.24855e-24
8.2219e-26
5.53623e-27
3.78752e-28
2.61848e-29
1.00023
0.994386
0.995642
0.997551
0.998562
0.999075
0.99934
0.999496
0.999588
0.999641
0.999668
0.999679
0.999677
0.999667
0.999648
0.999625
0.999596
0.999565
0.999532
0.999889
0.999501
)
;
    }
}


// ************************************************************************* //
