/*--------------------------------*- C++ -*----------------------------------*\
| =========                 |                                                 |
| \\      /  F ield         | OpenFOAM: The Open Source CFD Toolbox           |
|  \\    /   O peration     | Version:  5.0                                   |
|   \\  /    A nd           | Web:      www.OpenFOAM.org                      |
|    \\/     M anipulation  |                                                 |
\*---------------------------------------------------------------------------*/
FoamFile
{
    version     2.0;
    format      ascii;
    class       volScalarField;
    location    "0.1";
    object      epsilon;
}
// * * * * * * * * * * * * * * * * * * * * * * * * * * * * * * * * * * * * * //

dimensions      [0 2 -3 0 0 0 0];

internalField   nonuniform List<scalar> 
1935
(
0.170584
0.319323
0.462371
0.574336
0.658637
0.722009
0.770282
0.808147
0.839262
0.866427
0.891784
0.917015
0.943516
0.972549
1.00538
1.04339
1.0882
1.14162
1.20563
1.28189
1.37086
1.47045
1.57427
1.67019
1.74098
1.7686
1.74055
1.65595
1.54878
1.44932
1.37011
1.32475
1.3233
1.36957
1.38466
1.30813
1.25258
1.12806
0.977194
0.839754
0.727018
0.631816
0.543787
0.449962
0.249072
0.263082
0.292308
0.313438
0.328022
0.33829
0.345895
0.351987
0.357355
0.362537
0.36791
0.373767
0.38036
0.38795
0.396838
0.407397
0.420093
0.43549
0.454193
0.476706
0.50314
0.532755
0.56346
0.591593
0.612614
0.623049
0.623088
0.617395
0.614899
0.617029
0.615532
0.611362
0.608992
0.61409
0.620861
0.630663
0.659996
0.69145
0.712614
0.693217
0.629029
0.55149
0.486164
0.42885
0.319276
0.281457
0.278237
0.275188
0.271773
0.268697
0.26638
0.265009
0.264637
0.265249
0.266809
0.26929
0.272703
0.277106
0.282624
0.289453
0.297866
0.308184
0.320715
0.33562
0.352691
0.371057
0.388959
0.403847
0.413199
0.416219
0.415477
0.41601
0.422476
0.436184
0.453266
0.473632
0.500555
0.537114
0.573731
0.589595
0.60499
0.642801
0.67217
0.660443
0.594167
0.515966
0.459503
0.421626
0.369461
0.296996
0.275475
0.259724
0.247219
0.237588
0.230498
0.225601
0.222571
0.221121
0.221023
0.222108
0.224277
0.2275
0.23182
0.237347
0.244246
0.252698
0.26283
0.274583
0.287541
0.300739
0.312598
0.321188
0.325052
0.324646
0.32323
0.325289
0.334133
0.351908
0.378542
0.4138
0.457848
0.516423
0.584723
0.619907
0.594583
0.572408
0.570964
0.550733
0.499947
0.447317
0.414183
0.399955
0.406027
0.306711
0.273249
0.249655
0.231647
0.218078
0.208125
0.201103
0.196454
0.193734
0.192601
0.192808
0.194188
0.196659
0.200204
0.204867
0.21073
0.217866
0.226268
0.235739
0.245766
0.255416
0.263374
0.26827
0.269417
0.267935
0.267027
0.2703
0.280649
0.300983
0.332002
0.370169
0.420085
0.487116
0.552913
0.576434
0.533653
0.479818
0.456353
0.436259
0.405079
0.377655
0.366827
0.374382
0.43355
0.312248
0.27056
0.241853
0.220295
0.20417
0.192333
0.183884
0.178117
0.174489
0.172589
0.172116
0.172862
0.174701
0.177573
0.181465
0.186388
0.192334
0.199206
0.206737
0.214408
0.221407
0.226735
0.229522
0.229626
0.228458
0.228751
0.233124
0.243907
0.263762
0.291288
0.327658
0.377778
0.43285
0.471617
0.469005
0.426983
0.385408
0.364244
0.348789
0.331805
0.321651
0.326776
0.351823
0.45502
0.315206
0.267648
0.235499
0.211573
0.193723
0.180584
0.171117
0.164525
0.160199
0.157682
0.156637
0.156827
0.15809
0.16033
0.163489
0.167524
0.172367
0.177873
0.183758
0.189556
0.194628
0.198287
0.200077
0.200227
0.200214
0.202121
0.207463
0.217491
0.233499
0.25731
0.291467
0.331374
0.365654
0.381694
0.370361
0.340247
0.313233
0.297662
0.287121
0.279412
0.280031
0.295998
0.335223
0.472344
0.316689
0.264818
0.230286
0.204739
0.185689
0.17162
0.161402
0.154176
0.149292
0.146262
0.144723
0.144415
0.14515
0.146802
0.149278
0.152497
0.156357
0.160693
0.165243
0.169629
0.173399
0.176147
0.177744
0.178666
0.180324
0.18417
0.190689
0.199612
0.212827
0.234494
0.262204
0.288007
0.305202
0.308862
0.297104
0.277142
0.260064
0.249617
0.243583
0.242144
0.249829
0.273877
0.32629
0.48675
0.317387
0.262262
0.226034
0.199346
0.179443
0.164692
0.153905
0.146182
0.140843
0.137381
0.135415
0.134664
0.134924
0.136043
0.137906
0.140408
0.143431
0.146815
0.150343
0.153742
0.156735
0.15916
0.161131
0.163291
0.166921
0.172967
0.181251
0.189654
0.201198
0.21958
0.238443
0.251974
0.258151
0.255809
0.245496
0.232016
0.221019
0.214494
0.2121
0.215106
0.227959
0.259113
0.326549
0.49905
0.3177
0.260057
0.222587
0.19508
0.174555
0.159297
0.148071
0.139952
0.134242
0.130416
0.128082
0.126946
0.126787
0.127441
0.128774
0.130672
0.133015
0.135666
0.138463
0.14124
0.14388
0.146411
0.149135
0.152795
0.158516
0.16686
0.177133
0.18527
0.195593
0.209042
0.218948
0.223408
0.222997
0.21787
0.20905
0.19948
0.192172
0.188414
0.188712
0.194915
0.211796
0.24974
0.336162
0.50981
0.317842
0.258191
0.219782
0.191669
0.170682
0.155037
0.143469
0.135032
0.129016
0.124885
0.122236
0.120768
0.120249
0.120504
0.121393
0.122799
0.124612
0.126726
0.129042
0.131493
0.134097
0.13704
0.140753
0.146033
0.153853
0.164473
0.176483
0.184897
0.193818
0.200986
0.202888
0.201004
0.196649
0.190239
0.182595
0.175427
0.170421
0.168548
0.170715
0.179099
0.198805
0.241711
0.341177
0.519515
0.317928
0.256618
0.21748
0.188913
0.167582
0.151644
0.13981
0.131119
0.124853
0.120468
0.117556
0.115807
0.114984
0.114907
0.115435
0.116454
0.117873
0.119622
0.121663
0.12402
0.126826
0.130388
0.135234
0.142185
0.152094
0.165045
0.178896
0.188336
0.194938
0.19511
0.190257
0.183795
0.17694
0.169896
0.163081
0.157409
0.153857
0.153218
0.156554
0.166144
0.187037
0.230828
0.327725
0.52837
0.318007
0.255295
0.215579
0.186671
0.165086
0.14893
0.136893
0.128005
0.12154
0.11695
0.113822
0.111842
0.110771
0.110426
0.11067
0.111399
0.112543
0.114069
0.115999
0.118436
0.12161
0.125924
0.131979
0.140621
0.152635
0.168097
0.184248
0.195176
0.198314
0.191475
0.180926
0.17093
0.162294
0.154833
0.148539
0.143792
0.141151
0.141265
0.145197
0.155111
0.175545
0.216356
0.300732
0.536564
0.318101
0.254168
0.213983
0.184817
0.163047
0.146734
0.134547
0.125509
0.11889
0.114138
0.110838
0.108673
0.107403
0.10685
0.106879
0.1074
0.108367
0.109783
0.111725
0.114366
0.118018
0.123165
0.130475
0.140827
0.155007
0.173213
0.192212
0.204589
0.203228
0.189797
0.174415
0.16153
0.151466
0.143619
0.137597
0.133403
0.13131
0.131826
0.135912
0.145465
0.164244
0.199834
0.268126
0.544237
0.318215
0.253193
0.212615
0.183253
0.161351
0.144927
0.132634
0.123488
0.116754
0.111879
0.108445
0.106136
0.104714
0.104002
0.103875
0.104257
0.105125
0.106519
0.108562
0.111493
0.115694
0.121723
0.130317
0.142414
0.158859
0.180047
0.202372
0.215614
0.20899
0.189591
0.170115
0.154797
0.1435
0.135241
0.129306
0.125413
0.123617
0.12428
0.128198
0.136923
0.153356
0.182865
0.235247
0.55149
0.31835
0.252331
0.211415
0.181901
0.159907
0.14341
0.131048
0.121828
0.115013
0.110048
0.106515
0.104099
0.102564
0.101737
0.101503
0.101801
0.10263
0.104065
0.106274
0.109552
0.114346
0.121286
0.131186
0.145068
0.163892
0.188291
0.214215
0.227224
0.214954
0.19033
0.167423
0.150049
0.137661
0.128965
0.122987
0.119222
0.117547
0.118173
0.121707
0.129333
0.143142
0.166645
0.205281
0.558394
0.318501
0.251552
0.210338
0.180704
0.15865
0.142109
0.129706
0.120441
0.113573
0.108547
0.104945
0.102453
0.100838
0.0999329
0.0996319
0.0998891
0.100726
0.102249
0.104668
0.108328
0.113742
0.121609
0.132831
0.148536
0.169836
0.197619
0.227202
0.238633
0.220626
0.191553
0.165826
0.146731
0.133384
0.124248
0.118144
0.114391
0.112713
0.113179
0.116199
0.122612
0.133827
0.151956
0.179687
0.565003
0.318662
0.250835
0.209352
0.179621
0.157528
0.140967
0.128545
0.119257
0.112361
0.107298
0.103652
0.10111
0.0994428
0.0984893
0.0981534
0.0984036
0.0992834
0.100927
0.103585
0.107652
0.113699
0.122501
0.135056
0.152613
0.176462
0.207791
0.240778
0.249235
0.225686
0.192922
0.164922
0.144413
0.13024
0.120683
0.114407
0.110591
0.108831
0.109058
0.111505
0.116715
0.125561
0.139206
0.158783
0.571355
0.318826
0.250163
0.208433
0.178623
0.156507
0.139942
0.127519
0.118227
0.11132
0.10624
0.10257
0.1
0.098303
0.0973252
0.0969794
0.0972488
0.0981966
0.0999853
0.102902
0.107388
0.114077
0.123817
0.13771
0.157131
0.18356
0.218473
0.254186
0.258573
0.229958
0.194211
0.16442
0.142773
0.127905
0.117964
0.1115
0.107579
0.105687
0.105638
0.107507
0.1116
0.118406
0.12849
0.142181
0.577476
0.318988
0.249523
0.207565
0.177688
0.155562
0.139004
0.126593
0.11731
0.110408
0.105326
0.101649
0.0990671
0.0973587
0.0963755
0.0960397
0.0963478
0.0973826
0.0993329
0.102521
0.107435
0.114768
0.125447
0.140676
0.161961
0.190958
0.229385
0.266867
0.26638
0.233362
0.195286
0.16412
0.141577
0.126138
0.115864
0.109216
0.10517
0.103124
0.102789
0.104114
0.107222
0.112343
0.119688
0.129231
0.583383
0.319142
0.248907
0.206736
0.176804
0.154675
0.138134
0.125743
0.11648
0.109592
0.10452
0.100848
0.0982688
0.0965634
0.0955897
0.095279
0.0956408
0.0967765
0.0989003
0.102368
0.107715
0.115693
0.127307
0.143869
0.167009
0.198538
0.240327
0.278457
0.272631
0.235935
0.196095
0.163894
0.140659
0.124765
0.114212
0.107398
0.103228
0.101024
0.100416
0.101252
0.103524
0.107295
0.112582
0.11922
0.12665
0.589088
0.319286
0.248308
0.205939
0.175959
0.153835
0.137316
0.124953
0.115716
0.108851
0.103797
0.10014
0.097573
0.0958815
0.0949288
0.0946548
0.0950818
0.0963288
0.0986347
0.102389
0.108171
0.116792
0.129339
0.14723
0.172214
0.206235
0.251178
0.288768
0.277483
0.237812
0.196648
0.16367
0.139905
0.123658
0.112885
0.105931
0.101648
0.0992965
0.0984421
0.0988563
0.100441
0.103153
0.10692
0.111523
0.116538
0.594595
0.319414
0.247721
0.205168
0.175148
0.153033
0.136541
0.12421
0.115004
0.108167
0.103139
0.0995028
0.0969561
0.0952867
0.0943637
0.0941353
0.0946361
0.0960025
0.0984969
0.102542
0.10876
0.118024
0.131501
0.150719
0.177542
0.214033
0.261871
0.297749
0.28124
0.239177
0.196988
0.163409
0.13924
0.122728
0.111789
0.104729
0.100352
0.0978732
0.096807
0.0968696
0.0979015
0.0997988
0.102445
0.105633
0.109029
0.59991
0.319526
0.247144
0.204419
0.174366
0.152265
0.135803
0.123506
0.114335
0.107531
0.102531
0.0989216
0.0964007
0.0947597
0.0938731
0.0936972
0.0942786
0.0957706
0.0984589
0.102798
0.109454
0.11936
0.133766
0.154308
0.182976
0.221946
0.272341
0.305472
0.284243
0.240198
0.19715
0.163084
0.138609
0.121908
0.110858
0.103726
0.0992806
0.0966993
0.0954592
0.0952377
0.0958355
0.097114
0.0989394
0.101131
0.103433
0.605035
0.319618
0.246572
0.203688
0.173609
0.151525
0.135096
0.122837
0.113702
0.106933
0.101965
0.0983858
0.0958948
0.0942868
0.0934416
0.0933236
0.0939912
0.095614
0.0985008
0.103137
0.110233
0.12078
0.136114
0.157982
0.188506
0.230003
0.282489
0.311966
0.286707
0.240949
0.197139
0.162671
0.137973
0.121155
0.110044
0.102876
0.0983878
0.095731
0.094355
0.0939104
0.0941738
0.0949882
0.0962168
0.0977042
0.0992565
0.609972
0.319688
0.246004
0.202974
0.172875
0.150812
0.134419
0.122198
0.113102
0.106368
0.101435
0.097888
0.0954298
0.0938583
0.0930585
0.0930029
0.0937612
0.0955196
0.0986094
0.103547
0.111084
0.122274
0.138533
0.161727
0.194119
0.238199
0.292217
0.317307
0.288665
0.24141
0.196927
0.162143
0.137305
0.120434
0.109311
0.102141
0.0976378
0.0949325
0.0934558
0.0928415
0.092852
0.093322
0.0941178
0.0951066
0.0961388
0.614724
0.319734
0.245436
0.202272
0.172161
0.150124
0.133767
0.121586
0.11253
0.105834
0.100936
0.0974231
0.095
0.0934676
0.0927164
0.0927268
0.0935802
0.0954787
0.098776
0.104019
0.112001
0.123834
0.141018
0.165534
0.199797
0.246494
0.301493
0.321696
0.2901
0.24152
0.196477
0.161477
0.136582
0.119723
0.108634
0.101495
0.0970024
0.0942736
0.0927279
0.0919889
0.0918117
0.0920286
0.0925119
0.0931466
0.0938154
0.61929
0.319753
0.244866
0.201583
0.171465
0.149457
0.13314
0.121001
0.111985
0.105327
0.100465
0.0969877
0.0946012
0.0931101
0.0924102
0.0924901
0.0934426
0.0954861
0.0989961
0.104549
0.112981
0.125459
0.143568
0.169402
0.205527
0.254817
0.310459
0.325519
0.291041
0.241264
0.195775
0.160661
0.135793
0.119007
0.107995
0.100918
0.0964591
0.0937295
0.0921417
0.0913149
0.0910013
0.0910343
0.0912926
0.0916756
0.0920885
0.623672
0.319744
0.244294
0.200903
0.170786
0.148811
0.132536
0.120439
0.111464
0.104845
0.10002
0.0965794
0.0942308
0.0927829
0.0921369
0.0922896
0.0933455
0.0955391
0.0992677
0.105137
0.114024
0.127152
0.146186
0.173332
0.211307
0.263146
0.319383
0.329217
0.291668
0.240699
0.194838
0.159699
0.134933
0.118276
0.107382
0.100393
0.0959899
0.0932789
0.0916718
0.0907867
0.0903763
0.0902771
0.090374
0.0905777
0.0908094
0.627869
0.319705
0.243718
0.200231
0.170122
0.148184
0.131953
0.119901
0.110968
0.104388
0.0996002
0.0961965
0.0938871
0.0924842
0.0918946
0.0921236
0.0932875
0.0956371
0.0995918
0.105787
0.115137
0.12892
0.14888
0.177334
0.217154
0.271574
0.32837
0.332856
0.292107
0.239888
0.193689
0.158597
0.134002
0.117527
0.106786
0.0999106
0.0955807
0.0929047
0.0912963
0.0903759
0.0898989
0.0897057
0.0896873
0.0897629
0.0898655
0.631878
0.319635
0.243136
0.199566
0.169472
0.147575
0.131391
0.119384
0.110493
0.103953
0.0992039
0.0958382
0.0935692
0.0922131
0.0916827
0.0919917
0.0932689
0.0957815
0.0999712
0.106502
0.116327
0.130776
0.151665
0.181419
0.223067
0.280071
0.337293
0.336432
0.292389
0.238846
0.192337
0.15736
0.133001
0.116757
0.106202
0.0994616
0.0952206
0.0925929
0.0909974
0.0900593
0.089538
0.0892787
0.0891779
0.0891617
0.0891714
0.635702
0.319533
0.242546
0.198906
0.168834
0.146982
0.130847
0.118888
0.110041
0.103541
0.0988308
0.0955039
0.0932768
0.0919696
0.0915014
0.0918949
0.0932914
0.0959754
0.100411
0.107291
0.117607
0.132736
0.154562
0.185606
0.229048
0.288586
0.346008
0.33976
0.292382
0.237513
0.190764
0.155989
0.131934
0.115968
0.105627
0.0990413
0.0949017
0.0923325
0.0907607
0.0898176
0.0892685
0.088963
0.0888031
0.0887204
0.0886624
0.63934
0.319396
0.241945
0.198249
0.168206
0.146405
0.130322
0.118412
0.10961
0.103152
0.0984808
0.095194
0.0930103
0.0917545
0.0913521
0.0918352
0.0933581
0.0962235
0.100919
0.108166
0.118993
0.134824
0.157601
0.189927
0.235113
0.297074
0.354365
0.342614
0.291904
0.235808
0.188953
0.154487
0.13081
0.115164
0.105065
0.0986473
0.0946187
0.0921156
0.090575
0.0896362
0.0890705
0.088733
0.0885302
0.0883985
0.0882902
0.642796
0.31922
0.241332
0.197592
0.167588
0.145842
0.129815
0.117956
0.1092
0.102785
0.0981545
0.0949093
0.0927712
0.0915698
0.0912374
0.0918161
0.093474
0.0965324
0.101503
0.109139
0.120505
0.137069
0.160823
0.194432
0.241306
0.305536
0.362195
0.344738
0.290785
0.233671
0.1869
0.15287
0.129642
0.114356
0.104518
0.0982801
0.0943692
0.091937
0.0904325
0.0895039
0.0889293
0.0885691
0.0883343
0.0881654
0.0880186
0.646071
0.319001
0.240702
0.196936
0.166979
0.145295
0.129327
0.11752
0.108812
0.102441
0.0978533
0.0946516
0.0925619
0.0914186
0.0911615
0.0918429
0.0936457
0.0969109
0.102176
0.110227
0.122168
0.139508
0.164283
0.199196
0.247708
0.314011
0.369282
0.345891
0.288913
0.231094
0.184639
0.151174
0.128457
0.113558
0.103994
0.0979428
0.0941531
0.0917943
0.0903284
0.0894132
0.0888341
0.0884569
0.0881971
0.0879987
0.0878211
0.649164
0.318733
0.240055
0.196278
0.166379
0.144762
0.128857
0.117106
0.108448
0.102123
0.0975795
0.0944241
0.0923863
0.0913059
0.0911304
0.0919231
0.0938824
0.0973702
0.102952
0.11145
0.124008
0.142183
0.168049
0.204323
0.254459
0.322611
0.375378
0.345876
0.286277
0.228157
0.182252
0.149454
0.127286
0.112788
0.103503
0.0976406
0.0939726
0.0916872
0.0902602
0.0893594
0.0887776
0.0883865
0.0881056
0.0878822
0.0876787
0.652072
0.31841
0.239388
0.19562
0.165789
0.144245
0.128408
0.116716
0.10811
0.101833
0.0973372
0.0942317
0.0922505
0.0912392
0.0911532
0.0920674
0.0941965
0.0979248
0.103848
0.112827
0.126055
0.14514
0.172199
0.209949
0.261771
0.33156
0.380328
0.344698
0.283062
0.225054
0.179872
0.147788
0.126172
0.112069
0.103059
0.097381
0.0938322
0.091618
0.0902279
0.0893402
0.0887555
0.088351
0.0880505
0.0878044
0.0875775
0.654793
0.318027
0.238699
0.19496
0.165209
0.143747
0.127981
0.116351
0.107801
0.101576
0.0971321
0.0940816
0.0921633
0.0912289
0.0912423
0.0922903
0.0946044
0.0985929
0.104884
0.114381
0.128336
0.14842
0.176808
0.216227
0.269941
0.341214
0.384241
0.342745
0.279704
0.222085
0.177663
0.146254
0.125152
0.111422
0.102674
0.0971738
0.0937386
0.0915909
0.0902336
0.0893556
0.0887655
0.0883463
0.0880258
0.0877573
0.0875079
0.657333
0.317586
0.237993
0.194302
0.164642
0.143268
0.127579
0.116017
0.107527
0.101359
0.096973
0.0939845
0.0921376
0.0912902
0.0914151
0.0926115
0.0951283
0.099398
0.106083
0.116137
0.130875
0.152053
0.181934
0.223295
0.279309
0.351942
0.387441
0.340755
0.276771
0.219556
0.175759
0.14491
0.124255
0.110865
0.102363
0.0970303
0.0937008
0.0916123
0.0902812
0.0894072
0.0888072
0.0883699
0.0880272
0.0877353
0.087463
0.659736
0.317105
0.237279
0.193649
0.164088
0.14281
0.127206
0.115719
0.107296
0.101193
0.0968723
0.0939554
0.092191
0.0914438
0.0916957
0.0930582
0.0957975
0.100371
0.107477
0.118119
0.133689
0.156046
0.187585
0.231216
0.290153
0.363749
0.389876
0.33929
0.274616
0.217597
0.174193
0.143764
0.123491
0.110412
0.10214
0.096964
0.0937298
0.0916902
0.0903757
0.0894976
0.088881
0.0884207
0.0880523
0.0877345
0.087438
0.662147
0.31663
0.236582
0.19301
0.163551
0.142377
0.126868
0.115464
0.107119
0.101091
0.0968474
0.0940149
0.0923479
0.0917182
0.0921166
0.0936668
0.0966516
0.101552
0.109101
0.120357
0.136791
0.160382
0.193701
0.239891
0.302455
0.375819
0.391062
0.338246
0.273064
0.216027
0.17285
0.142764
0.122846
0.110069
0.102021
0.0969905
0.0938383
0.091834
0.0905233
0.08963
0.088988
0.0884979
0.0880989
0.0877521
0.0874293
0.66491
0.316251
0.235926
0.192386
0.163029
0.14197
0.126569
0.115265
0.107012
0.101073
0.0969224
0.0941914
0.0926414
0.0921517
0.0927217
0.0944864
0.0977436
0.102996
0.111008
0.122888
0.140189
0.165019
0.200146
0.249023
0.31562
0.387249
0.39141
0.337125
0.271496
0.214412
0.171494
0.141812
0.122297
0.109845
0.102023
0.0971279
0.094041
0.0920538
0.0907304
0.0898078
0.0891293
0.0886011
0.0881657
0.0877858
0.0874335
0.668886
0.316344
0.235448
0.191807
0.162529
0.141596
0.126325
0.11514
0.106998
0.101168
0.0971293
0.0945222
0.093115
0.0927945
0.0935687
0.0955824
0.0991452
0.104776
0.113267
0.125767
0.143902
0.169905
0.206746
0.258203
0.328731
0.398133
0.391894
0.335401
0.269172
0.212221
0.169853
0.140807
0.12183
0.10976
0.102173
0.0973993
0.0943546
0.0923604
0.0910028
0.0900338
0.0893053
0.0887292
0.0882506
0.0878325
0.0874486
0.675821
0.317792
0.235468
0.191385
0.162098
0.141286
0.126162
0.11512
0.107111
0.101411
0.0975099
0.0950551
0.093824
0.0937115
0.0947332
0.097041
0.100952
0.106996
0.115978
0.129077
)
;

boundaryField
{
    leftWall
    {
        Cmu             0.09;
        kappa           0.41;
        E               9.8;
        type            epsilonWallFunction;
        value           nonuniform List<scalar> 
44
(
0.170584
0.249072
0.319276
0.369461
0.406027
0.43355
0.45502
0.472344
0.48675
0.49905
0.50981
0.519515
0.52837
0.536564
0.544237
0.55149
0.558394
0.565003
0.571355
0.577476
0.583383
0.589088
0.594595
0.59991
0.605035
0.609972
0.614724
0.61929
0.623672
0.627869
0.631878
0.635702
0.63934
0.642796
0.646071
0.649164
0.652072
0.654793
0.657333
0.659736
0.662147
0.66491
0.668886
0.675821
)
;
    }
    rightWall
    {
        Cmu             0.09;
        kappa           0.41;
        E               9.8;
        type            epsilonWallFunction;
        value           nonuniform 0();
    }
    lowerWall
    {
        Cmu             0.09;
        kappa           0.41;
        E               9.8;
        type            epsilonWallFunction;
        value           nonuniform List<scalar> 
44
(
0.170584
0.319323
0.462371
0.574336
0.658637
0.722009
0.770282
0.808147
0.839262
0.866427
0.891784
0.917015
0.943516
0.972549
1.00538
1.04339
1.0882
1.14162
1.20563
1.28189
1.37086
1.47045
1.57427
1.67019
1.74098
1.7686
1.74055
1.65595
1.54878
1.44932
1.37011
1.32475
1.3233
1.36957
1.38466
1.30813
1.25258
1.12806
0.977194
0.839754
0.727018
0.631816
0.543787
0.449962
)
;
    }
    atmosphere
    {
        type            inletOutlet;
        inletValue      nonuniform 0();
        value           nonuniform 0();
    }
    defaultFaces
    {
        type            empty;
    }
    procBoundary0to1
    {
        type            processor;
        value           nonuniform List<scalar> 
44
(
0.0864281
0.338065
0.384004
0.4009
0.408887
0.416012
0.427774
0.451624
0.499115
0.585461
0.60719
0.559403
0.486549
0.402505
0.326391
0.265306
0.218769
0.184243
0.158907
0.140322
0.140322
0.133766
0.121239
0.112158
0.105526
0.10065
0.097054
0.0943987
0.0924393
0.0909958
0.0899344
0.0891554
0.0885842
0.0881654
0.0878578
0.0876315
0.0874645
0.0873412
0.0872508
0.0871851
0.0871386
0.0871073
0.0870874
0.0870762
)
;
    }
    procBoundary0to2
    {
        type            processor;
        value           nonuniform List<scalar> 
46
(
0.147975
0.175005
0.213325
0.267026
0.340983
0.408777
0.392772
0.332439
0.265354
0.209052
0.167748
0.139679
0.121424
0.109815
0.10248
0.0978134
0.0947853
0.0927571
0.0913416
0.0903071
0.0895148
0.0888806
0.0883512
0.08789
0.0874711
0.68577
0.3216
0.236255
0.191295
0.161847
0.14112
0.126146
0.115259
0.1074
0.101853
0.098116
0.0958486
0.094837
0.0949839
0.0963111
0.0989745
0.103293
0.109796
0.11929
0.147975
0.132957
)
;
    }
}


// ************************************************************************* //
