/*--------------------------------*- C++ -*----------------------------------*\
| =========                 |                                                 |
| \\      /  F ield         | OpenFOAM: The Open Source CFD Toolbox           |
|  \\    /   O peration     | Version:  5.0                                   |
|   \\  /    A nd           | Web:      www.OpenFOAM.org                      |
|    \\/     M anipulation  |                                                 |
\*---------------------------------------------------------------------------*/
FoamFile
{
    version     2.0;
    format      ascii;
    class       volScalarField;
    location    "0.1";
    object      k;
}
// * * * * * * * * * * * * * * * * * * * * * * * * * * * * * * * * * * * * * //

dimensions      [0 2 -2 0 0 0 0];

internalField   nonuniform List<scalar> 
1935
(
0.0105403
0.0149507
0.0192867
0.0223864
0.0246096
0.0262377
0.0274606
0.0284121
0.0291887
0.0298608
0.030481
0.0310892
0.031718
0.0323956
0.033149
0.0340064
0.0349982
0.0361569
0.0375138
0.0390906
0.0408834
0.0428409
0.044842
0.0466804
0.0480796
0.0487515
0.0484778
0.0471633
0.0451386
0.0431133
0.041308
0.0400258
0.0395187
0.0400089
0.0408527
0.0406111
0.0395944
0.0374216
0.0342066
0.030651
0.0274242
0.024612
0.022003
0.0192257
0.0151447
0.0301987
0.0389946
0.0448272
0.0488511
0.0517076
0.0537978
0.0553881
0.0566615
0.0577462
0.0587355
0.0597005
0.0606992
0.0617839
0.0630053
0.0644163
0.0660715
0.0680241
0.0703141
0.0729476
0.0758641
0.0788975
0.0817445
0.0839716
0.0851023
0.0848057
0.0831274
0.0804971
0.0771215
0.0735917
0.0708091
0.0693901
0.0694672
0.0703472
0.0706678
0.0690126
0.0636754
0.0578155
0.0550131
0.0533545
0.0507702
0.0472316
0.0436153
0.0395654
0.017958
0.03703
0.0476358
0.0545273
0.0592679
0.0626541
0.0651635
0.0671064
0.068693
0.0700698
0.0713429
0.0725938
0.0738901
0.0752932
0.0768633
0.0786612
0.0807464
0.0831694
0.0859549
0.0890744
0.0924095
0.0957141
0.0985962
0.100556
0.101125
0.100125
0.0979109
0.0952325
0.0927253
0.0906426
0.0894204
0.0893818
0.0906094
0.0928054
0.0940862
0.0910892
0.0844404
0.0780636
0.073758
0.0710034
0.0668387
0.0618525
0.0573388
0.0524796
0.0198499
0.0412245
0.0528643
0.0603048
0.0653954
0.0690416
0.0717675
0.0739055
0.0756772
0.0772356
0.0786914
0.0801293
0.0816202
0.0832283
0.0850155
0.0870422
0.0893628
0.0920152
0.0950008
0.0982558
0.101616
0.104789
0.107354
0.108828
0.108831
0.107369
0.105015
0.102614
0.100813
0.0999984
0.100527
0.102326
0.105034
0.108963
0.11288
0.11066
0.0994545
0.0877384
0.0810507
0.0772389
0.073272
0.0691251
0.0652973
0.0607379
0.0211833
0.0440233
0.0563418
0.0641236
0.0694163
0.0732072
0.0760548
0.0783062
0.0801891
0.0818591
0.0834281
0.0849811
0.0865891
0.0883151
0.0902184
0.0923537
0.0947653
0.0974748
0.100461
0.103631
0.106796
0.10965
0.111792
0.112809
0.112443
0.110861
0.10873
0.106828
0.105778
0.106127
0.107982
0.110454
0.113972
0.118947
0.122492
0.118905
0.105298
0.0905853
0.082554
0.0787468
0.075694
0.072822
0.0701091
0.0662994
0.022168
0.0459775
0.0587697
0.0667828
0.0722024
0.0760767
0.0789913
0.0813042
0.0832474
0.0849775
0.0866056
0.088216
0.0898772
0.0916489
0.0935852
0.0957324
0.098123
0.100763
0.103612
0.106563
0.10942
0.111897
0.113645
0.114346
0.113869
0.112496
0.110866
0.109581
0.10914
0.110093
0.111896
0.114495
0.118437
0.121991
0.122105
0.115295
0.10221
0.090037
0.083193
0.0797653
0.0773513
0.0753742
0.0735443
0.070508
0.0229275
0.0473914
0.0605221
0.0686969
0.0741991
0.0781208
0.0810684
0.0834088
0.0853766
0.0871287
0.0887751
0.0903977
0.092062
0.0938232
0.0957285
0.0978156
0.100106
0.102593
0.105225
0.107894
0.110414
0.112539
0.113996
0.11457
0.114243
0.113366
0.112462
0.111851
0.111745
0.112396
0.114029
0.116816
0.11943
0.11999
0.116994
0.10933
0.0987652
0.0897146
0.084258
0.0812058
0.0791713
0.0777218
0.0765211
0.0742266
0.0235356
0.0484486
0.0618224
0.0701093
0.075664
0.0796101
0.0825689
0.0849139
0.0868817
0.0886289
0.0902638
0.0918659
0.0934967
0.0952066
0.0970365
0.0990159
0.101158
0.103447
0.105832
0.108209
0.110422
0.112276
0.113582
0.114227
0.114289
0.114149
0.114171
0.114354
0.114431
0.114857
0.116586
0.118503
0.118723
0.116556
0.111853
0.104644
0.0964955
0.089819
0.0855169
0.0828917
0.0811839
0.0801377
0.0795068
0.0780961
0.0240385
0.0492642
0.0628121
0.0711736
0.0767586
0.0807128
0.0836681
0.0860025
0.0879538
0.0896779
0.0912813
0.0928406
0.0944138
0.0960465
0.097774
0.0996199
0.101592
0.103673
0.105814
0.107931
0.109903
0.111595
0.112899
0.113798
0.11445
0.115229
0.116347
0.117564
0.11792
0.118302
0.11966
0.119825
0.117678
0.113645
0.108192
0.101717
0.0953072
0.0902099
0.0867791
0.0845951
0.0832499
0.0826492
0.0827224
0.0826463
0.0244659
0.0499119
0.0635834
0.0719907
0.0775888
0.081539
0.0844806
0.0867944
0.0887186
0.0904081
0.0919676
0.0934709
0.0949726
0.0965146
0.0981279
0.0998324
0.101634
0.103517
0.105446
0.107358
0.109172
0.110817
0.112261
0.113566
0.114951
0.116759
0.119065
0.121422
0.122078
0.122489
0.122788
0.120852
0.116794
0.111623
0.105925
0.100115
0.0948605
0.0907768
0.0879752
0.0861975
0.0852452
0.0851708
0.0861585
0.088205
0.0248382
0.0504421
0.0642007
0.0726321
0.07823
0.0821672
0.0850877
0.0873743
0.089265
0.0909134
0.0924222
0.0938629
0.0952872
0.0967339
0.0982315
0.0997986
0.101442
0.103155
0.104913
0.106684
0.108429
0.110133
0.111836
0.113663
0.115871
0.118757
0.122272
0.125673
0.126797
0.127124
0.12573
0.121692
0.116209
0.110361
0.104647
0.0993637
0.0948726
0.0914481
0.0890964
0.0876638
0.0870873
0.0875382
0.0894392
0.0935586
0.0251728
0.0508902
0.0647068
0.0731442
0.0787303
0.0826466
0.0855404
0.0877951
0.0896484
0.0912524
0.0927078
0.0940838
0.0954301
0.0967835
0.0981715
0.0996135
0.101121
0.102695
0.104333
0.106028
0.107787
0.109646
0.111704
0.114134
0.117217
0.121201
0.125954
0.13042
0.132283
0.132124
0.128585
0.122597
0.116001
0.109714
0.104052
0.099156
0.0951689
0.0921778
0.0901437
0.0889795
0.0887014
0.0895357
0.091962
0.0967321
0.0254768
0.051276
0.0651279
0.0735565
0.079121
0.0830099
0.0858724
0.0880923
0.0899063
0.091465
0.0928672
0.0941804
0.0954525
0.0967196
0.0980094
0.0993441
0.100741
0.102215
0.103781
0.105463
0.107306
0.109395
0.111876
0.11496
0.11894
0.124032
0.130087
0.135771
0.138539
0.137382
0.131513
0.123741
0.116195
0.109558
0.103932
0.099297
0.0956392
0.0929348
0.0911209
0.0901464
0.0900617
0.0910855
0.0936216
0.0982011
0.0257571
0.0516156
0.0654847
0.0738926
0.0794274
0.0832832
0.0861108
0.0882938
0.0900678
0.0915819
0.0929332
0.0941875
0.0953919
0.0965822
0.0977879
0.0990351
0.100349
0.101758
0.103297
0.105018
0.107003
0.109378
0.112328
0.116095
0.120983
0.127198
0.134628
0.141716
0.145344
0.142719
0.134544
0.125156
0.116753
0.109779
0.10414
0.0996611
0.0962131
0.0936975
0.0920323
0.0911794
0.0911938
0.0922588
0.0946832
0.0988422
0.0260184
0.0519204
0.0657928
0.0741704
0.0796686
0.0834866
0.0862763
0.0884209
0.090155
0.0916261
0.0929297
0.0941304
0.0952748
0.0963993
0.0975357
0.0987154
0.0999724
0.101348
0.102899
0.104702
0.106872
0.109571
0.113018
0.117484
0.123289
0.13065
0.139518
0.148159
0.152379
0.147931
0.137601
0.126775
0.117586
0.110273
0.104565
0.100162
0.0968406
0.0944465
0.0928773
0.0920921
0.0921342
0.0931452
0.0953516
0.0990164
0.0262645
0.0521988
0.0660637
0.0744036
0.0798596
0.0836357
0.086385
0.0884902
0.0901849
0.091615
0.0928747
0.0940276
0.0951201
0.0961899
0.0972717
0.0984024
0.0996254
0.100996
0.102589
0.104506
0.106892
0.109941
0.113901
0.119073
0.125802
0.13433
0.14469
0.15494
0.159276
0.152813
0.140559
0.128487
0.118591
0.11094
0.105123
0.100737
0.0974833
0.0951632
0.0936511
0.0928931
0.0929122
0.0938073
0.095734
0.098858
0.0264979
0.052457
0.0663062
0.0746027
0.0800121
0.0837433
0.08645
0.0885151
0.090171
0.0915623
0.092782
0.0938929
0.0949416
0.095967
0.0970076
0.0981061
0.0993149
0.100703
0.102362
0.104418
0.107041
0.110453
0.114934
0.120812
0.128464
0.138175
0.150052
0.16188
0.165764
0.157212
0.143302
0.130184
0.119669
0.111694
0.105744
0.101335
0.0981103
0.0958309
0.0943475
0.0935877
0.0935494
0.09429
0.0959011
0.0984607
0.0267205
0.0526997
0.0665268
0.0747759
0.0801355
0.0838192
0.086482
0.0885065
0.0901243
0.0914789
0.0926623
0.0937366
0.0947487
0.0957394
0.0967507
0.097831
0.0990421
0.100465
0.102209
0.10442
0.107292
0.111075
0.116076
0.122656
0.131225
0.14212
0.155539
0.168785
0.171641
0.161043
0.145749
0.131776
0.120737
0.112465
0.106374
0.101919
0.0986974
0.0964358
0.0949613
0.0941802
0.0940638
0.0946312
0.0959197
0.0979392
0.0269336
0.0529301
0.0667305
0.0749295
0.0802372
0.0838717
0.0864894
0.0884731
0.0900536
0.0913735
0.0925238
0.0935664
0.0945486
0.0955129
0.0965049
0.0975791
0.0988056
0.100277
0.102119
0.104496
0.107625
0.11178
0.117296
0.124567
0.134039
0.146101
0.161031
0.175374
0.176757
0.164274
0.147857
0.133203
0.121732
0.1132
0.106972
0.102461
0.0992267
0.0969684
0.0954899
0.0946758
0.0944721
0.0948648
0.0958492
0.0973864
0.0271383
0.0531508
0.0669209
0.0750683
0.0803229
0.0839073
0.0864794
0.0884222
0.0899662
0.0912532
0.0923734
0.0933885
0.0943463
0.0952914
0.0962726
0.0973502
0.0986024
0.100134
0.102082
0.104632
0.10802
0.112545
0.118568
0.126517
0.136869
0.15006
0.166426
0.18145
0.181037
0.166907
0.149611
0.134432
0.122613
0.113861
0.107509
0.10294
0.0996866
0.0974235
0.0959337
0.0950816
0.0947905
0.0950195
0.0957334
0.0968699
0.0273352
0.0533633
0.0671008
0.0751958
0.0803971
0.083931
0.0864574
0.0883596
0.0898679
0.0911236
0.0922163
0.0932075
0.0941457
0.0950774
0.0960548
0.0971435
0.0984296
0.100028
0.10209
0.104816
0.108463
0.113353
0.119874
0.128483
0.139689
0.15396
0.171656
0.186895
0.184498
0.168988
0.151026
0.13545
0.123358
0.114425
0.107966
0.103344
0.100071
0.0978002
0.0962964
0.0954064
0.0950341
0.0951184
0.0956031
0.0964157
0.0974335
0.0275247
0.0535688
0.0672718
0.0753148
0.080463
0.0839468
0.0864278
0.08829
0.0897636
0.0909895
0.0920569
0.0930272
0.0939498
0.0948729
0.0958521
0.0969581
0.0982842
0.0999548
0.102135
0.105039
0.108943
0.114192
0.121199
0.130451
0.142483
0.157785
0.176685
0.191666
0.187228
0.170599
0.152139
0.136263
0.123958
0.114879
0.108334
0.103669
0.100379
0.0981009
0.0965841
0.0956597
0.0952164
0.0951775
0.095477
0.0960327
0.0967444
0.0277071
0.0537679
0.0674353
0.0754269
0.0805229
0.0839576
0.086394
0.088217
0.089657
0.0908544
0.0918984
0.0928505
0.0937608
0.0946793
0.0956648
0.096793
0.0981639
0.0999112
0.102211
0.105294
0.109453
0.115054
0.122535
0.132414
0.145246
0.161539
0.181501
0.19577
0.189375
0.171845
0.152998
0.136885
0.124412
0.11522
0.108609
0.103913
0.100613
0.098331
0.0968045
0.0958517
0.0953492
0.0952093
0.0953599
0.0957218
0.0962022
0.0278826
0.053961
0.0675919
0.0755334
0.0805787
0.0839655
0.0863584
0.0881434
0.0895508
0.0907213
0.0917436
0.0926797
0.0935804
0.0944976
0.0954932
0.0966474
0.098067
0.099894
0.102316
0.105577
0.109988
0.115933
0.123878
0.134368
0.147981
0.165237
0.186092
0.199263
0.191097
0.172819
0.153643
0.137332
0.124726
0.115451
0.108794
0.10408
0.100778
0.0984977
0.0969662
0.0959921
0.0954427
0.0952229
0.0952566
0.0954694
0.0957797
0.0280514
0.0541482
0.0677423
0.0756351
0.0806315
0.0839719
0.0863229
0.0880711
0.0894474
0.0905922
0.0915945
0.0925166
0.0934101
0.0943288
0.0953376
0.0965211
0.0979923
0.0999017
0.102447
0.105886
0.110545
0.116829
0.125227
0.136313
0.150691
0.168901
0.190432
0.202172
0.192497
0.173572
0.154098
0.137617
0.124909
0.115577
0.108896
0.104178
0.100881
0.098609
0.097078
0.0960897
0.0955051
0.0952237
0.095168
0.0952676
0.0954513
0.0282136
0.0543299
0.0678869
0.0757326
0.080682
0.083978
0.0862888
0.0880017
0.0893481
0.0904687
0.0914527
0.0923624
0.0932509
0.0941735
0.0951981
0.0964137
0.0979393
0.0999332
0.102603
0.106219
0.111123
0.117739
0.126581
0.138249
0.153378
0.172536
0.194493
0.204541
0.193604
0.174111
0.154367
0.137747
0.124968
0.115607
0.108921
0.104212
0.100932
0.0986733
0.0971484
0.0961528
0.0955428
0.0952154
0.095092
0.0951064
0.0951955
0.0283693
0.0545063
0.0680258
0.0758263
0.0807308
0.0839845
0.0862568
0.0879361
0.0892542
0.0903521
0.0913191
0.0922183
0.0931036
0.0940323
0.0950752
0.0963255
0.0979079
0.0999884
0.102784
0.106577
0.111724
0.118667
0.127942
0.140179
0.156041
0.176133
0.198272
0.206455
0.194422
0.174423
0.154451
0.137728
0.124913
0.115549
0.108878
0.104193
0.100937
0.0986988
0.0971851
0.0961882
0.0955615
0.0952003
0.0950263
0.0949767
0.0949948
0.0285186
0.0546774
0.0681594
0.0759164
0.0807782
0.0839917
0.0862276
0.0878751
0.0891665
0.0902431
0.0911948
0.092085
0.092969
0.0939058
0.0949692
0.0962566
0.0978983
0.100068
0.102991
0.106961
0.112348
0.119613
0.129313
0.142105
0.158679
0.179668
0.201841
0.208076
0.194975
0.174516
0.154356
0.137572
0.124754
0.115414
0.108778
0.104129
0.100905
0.0986929
0.0971952
0.0962021
0.0955655
0.0951801
0.0949686
0.0948708
0.0948353
0.0286615
0.0548434
0.0682878
0.0760031
0.0808244
0.0839999
0.0862014
0.087819
0.0890854
0.0901424
0.0910801
0.0919631
0.0928475
0.0937944
0.0948806
0.0962076
0.0979114
0.100172
0.103225
0.107373
0.113
0.120583
0.1307
0.144033
0.161298
0.183144
0.20532
0.209592
0.195351
0.174429
0.154104
0.137292
0.124504
0.115213
0.108628
0.104027
0.100844
0.0986628
0.097185
0.0961997
0.0955585
0.0951563
0.0949171
0.0947829
0.0947064
0.0287981
0.0550042
0.0684109
0.0760864
0.0808694
0.0840093
0.0861786
0.0877681
0.0890113
0.0900503
0.0909758
0.0918531
0.0927398
0.0936989
0.0948103
0.0961796
0.0979482
0.100303
0.103488
0.107816
0.113683
0.121582
0.132109
0.145971
0.163912
0.186609
0.208771
0.211053
0.195621
0.174202
0.153719
0.136904
0.124174
0.114955
0.108438
0.103896
0.100761
0.0986146
0.0971599
0.0961856
0.0955438
0.0951303
0.0948704
0.0947085
0.0946003
0.0289284
0.0551597
0.0685288
0.0761663
0.0809134
0.0840199
0.0861592
0.0877228
0.0889446
0.0899673
0.0908823
0.0917557
0.0926466
0.0936202
0.0947593
0.0961737
0.0980105
0.100463
0.103784
0.108295
0.114404
0.122617
0.133548
0.147926
0.166527
0.190062
0.212162
0.212474
0.195811
0.173857
0.153216
0.136422
0.123775
0.114649
0.108217
0.103743
0.100661
0.098554
0.0971248
0.0961638
0.0955243
0.0951033
0.0948279
0.0946445
0.0945112
0.0290524
0.0553101
0.0686416
0.0762429
0.0809563
0.0840319
0.0861435
0.0876832
0.0888856
0.0898939
0.0908002
0.0916717
0.0925689
0.0935594
0.0947289
0.0961919
0.0981006
0.100656
0.104117
0.108816
0.11517
0.123697
0.135028
0.14991
0.169144
0.193488
0.215452
0.213798
0.195883
0.173377
0.152596
0.135852
0.123317
0.114306
0.107971
0.103575
0.100551
0.098486
0.0970841
0.096138
0.0955026
0.0950768
0.0947895
0.0945889
0.0944352
0.0291702
0.0554554
0.0687494
0.0763163
0.0809984
0.0840454
0.0861318
0.08765
0.088835
0.0898309
0.0907306
0.0916022
0.0925081
0.0935181
0.0947214
0.0962366
0.0982217
0.100884
0.104492
0.109384
0.115989
0.124834
0.136563
0.151934
0.171773
0.196873
0.218593
0.214947
0.195771
0.172735
0.151856
0.135204
0.122811
0.113934
0.107709
0.103398
0.100437
0.0984155
0.097042
0.0961115
0.0954814
0.0950525
0.0947555
0.0945406
0.0943699
0.029282
0.055596
0.0688523
0.0763867
0.0810398
0.084061
0.0861247
0.0876236
0.0887937
0.0897793
0.0906745
0.0915488
0.0924661
0.0934988
0.0947394
0.0963111
0.0983778
0.101154
0.104914
0.110009
0.116872
0.126043
0.138169
0.154019
0.174429
0.200219
0.221532
0.215833
0.195413
0.17191
0.150999
0.134488
0.122269
0.113544
0.10744
0.103219
0.100324
0.0983473
0.0970025
0.0960878
0.0954632
0.0950319
0.0947266
0.0944992
0.0943137
0.0293878
0.055732
0.0689506
0.0764543
0.0810811
0.0840792
0.0861228
0.0876052
0.0887627
0.0897407
0.0906341
0.0915138
0.0924456
0.0935045
0.0947866
0.0964199
0.0985739
0.10147
0.105392
0.110698
0.117832
0.127339
0.139871
0.156194
0.177142
0.203539
0.224196
0.216367
0.194762
0.170897
0.150042
0.133725
0.121706
0.113148
0.107172
0.103045
0.100217
0.098286
0.0969697
0.0960701
0.0954506
0.0950169
0.0947038
0.0944649
0.0942659
0.0294876
0.0558638
0.0690446
0.0765197
0.0811229
0.0841009
0.0861275
0.0875962
0.088744
0.0897172
0.0906119
0.0915003
0.0924504
0.0935398
0.0948683
0.0965688
0.0988168
0.101841
0.105934
0.111463
0.118882
0.128742
0.141696
0.158498
0.179961
0.206869
0.226503
0.216477
0.193814
0.169729
0.149021
0.132942
0.121142
0.11276
0.106915
0.102884
0.100123
0.0982367
0.0969476
0.096062
0.0954465
0.0950096
0.0946883
0.0944382
0.0942263
0.0295815
0.0559915
0.0691343
0.0765832
0.0811661
0.0841273
0.0861403
0.0875987
0.0887402
0.0897121
0.0906116
0.0915128
0.0924856
0.0936105
0.0949912
0.0967653
0.0991146
0.102276
0.10655
0.112315
0.120035
0.13027
0.143675
0.160982
0.182961
0.210282
0.228397
0.216157
0.192633
0.168483
0.147995
0.132176
0.1206
0.112392
0.106678
0.102743
0.100048
0.0982047
0.0969408
0.0960669
0.0954534
0.0950119
0.0946815
0.0944196
0.0941948
0.0296695
0.056115
0.0692199
0.0766455
0.0812117
0.0841602
0.0861635
0.0876156
0.0887548
0.0897295
0.0906385
0.0915574
0.0925584
0.0937249
0.0951644
0.0970194
0.0994781
0.102785
0.107251
0.113264
0.121304
0.131942
0.145835
0.1637
0.186243
0.213893
0.229911
0.215537
0.191379
0.16728
0.147034
0.131465
0.120101
0.11206
0.106473
0.102631
0.0999989
0.0981959
0.0969539
0.0960886
0.0954744
0.0950259
0.0946847
0.0944099
0.0941715
0.0297525
0.0562343
0.0693015
0.0767072
0.0812613
0.0842018
0.0862003
0.0876508
0.0887927
0.0897756
0.0906996
0.0916423
0.0926781
0.0938936
0.0953998
0.0973441
0.0999209
0.103382
0.108049
0.114324
0.1227
0.133767
0.148196
0.166699
0.189923
0.217819
0.23115
0.214871
0.190263
0.166238
0.146194
0.130835
0.119659
0.111775
0.10631
0.102556
0.0999841
0.0982167
0.0969921
0.096131
0.0955123
0.0950536
0.0946991
0.0944096
0.0941565
0.0298333
0.0563506
0.0693799
0.0767693
0.0813166
0.084255
0.0862547
0.0877099
0.0888608
0.0898584
0.0908044
0.0917785
0.0928575
0.0941307
0.095713
0.0977562
0.10046
0.104085
0.108961
0.115505
0.124229
0.135746
0.150756
0.169991
0.194087
0.22204
0.23208
0.214346
0.189405
0.1654
0.145483
0.130288
0.11928
0.111544
0.106198
0.10253
0.100012
0.0982743
0.0970607
0.096198
0.0955696
0.0950967
0.0947257
0.0944193
0.0941499
0.0299187
0.0564657
0.069457
0.0768343
0.0813808
0.0843242
0.0863326
0.0878003
0.0889681
0.0899886
0.0909656
0.0919805
0.0931128
0.0944546
0.0961242
0.0982773
0.101119
0.104916
0.110007
0.116823
0.125895
0.137868
0.153482
0.173523
0.198697
0.226229
0.232482
0.213885
0.188711
0.164674
0.14484
0.129795
0.118956
0.111375
0.106148
0.102562
0.100092
0.0983757
0.097165
0.0962933
0.0956488
0.0951565
0.0947652
0.094439
0.0941515
0.0300242
0.0565855
0.0695322
0.0769028
0.0814569
0.0844149
0.0864421
0.0879321
0.0891269
0.0901808
0.0911995
0.092267
0.0934652
0.094889
0.0966595
0.0989358
0.101926
0.105902
0.111211
0.118294
0.127703
0.140112
0.156311
0.177163
0.203494
0.23002
0.232425
0.213256
0.187906
0.163861
0.144152
0.129306
0.118676
0.111271
0.106172
0.102664
0.100234
0.0985283
0.09731
0.0964199
0.0957516
0.0952339
0.0948178
0.0944687
0.0941604
0.0301862
0.05673
0.0696212
0.0769826
0.0815521
0.0845363
0.0865946
0.0881194
0.0893536
0.0904534
0.0915271
0.0926616
0.0939413
0.0954638
0.0973523
0.0997678
0.102921
0.107085
0.112611
0.119948
0.129664
0.14246
0.159174
0.180745
0.208114
0.233407
0.232197
0.212233
0.186683
0.162728
0.143292
0.128772
0.118431
0.111242
0.106282
0.102849
0.100447
0.098739
0.0975001
0.0965802
0.0958791
0.0953291
0.0948831
0.0945072
0.0941763
0.0304531
0.0569317
0.0697456
0.0770948
0.0816849
0.0847064
0.0868092
0.0883826
0.0896699
0.09083
0.0919744
0.0931931
0.0945737
0.0962159
0.0982443
0.10082
0.104153
0.108514
0.114254
0.121825
)
;

boundaryField
{
    leftWall
    {
        type            kqRWallFunction;
        value           nonuniform List<scalar> 
44
(
0.0105403
0.0151447
0.017958
0.0198499
0.0211833
0.022168
0.0229275
0.0235356
0.0240385
0.0244659
0.0248382
0.0251728
0.0254768
0.0257571
0.0260184
0.0262645
0.0264979
0.0267205
0.0269336
0.0271383
0.0273352
0.0275247
0.0277071
0.0278826
0.0280514
0.0282136
0.0283693
0.0285186
0.0286615
0.0287981
0.0289284
0.0290524
0.0291702
0.029282
0.0293878
0.0294876
0.0295815
0.0296695
0.0297525
0.0298333
0.0299187
0.0300242
0.0301862
0.0304531
)
;
    }
    rightWall
    {
        type            kqRWallFunction;
        value           nonuniform 0();
    }
    lowerWall
    {
        type            kqRWallFunction;
        value           nonuniform List<scalar> 
44
(
0.0105403
0.0149507
0.0192867
0.0223864
0.0246096
0.0262377
0.0274606
0.0284121
0.0291887
0.0298608
0.030481
0.0310892
0.031718
0.0323956
0.033149
0.0340064
0.0349982
0.0361569
0.0375138
0.0390906
0.0408834
0.0428409
0.044842
0.0466804
0.0480796
0.0487515
0.0484778
0.0471633
0.0451386
0.0431133
0.041308
0.0400258
0.0395187
0.0400089
0.0408527
0.0406111
0.0395944
0.0374216
0.0342066
0.030651
0.0274242
0.024612
0.022003
0.0192257
)
;
    }
    atmosphere
    {
        type            inletOutlet;
        inletValue      nonuniform 0();
        value           nonuniform 0();
    }
    defaultFaces
    {
        type            empty;
    }
    procBoundary0to1
    {
        type            processor;
        value           nonuniform List<scalar> 
44
(
0.0171522
0.0331693
0.0444811
0.0522407
0.0578888
0.0624715
0.0668547
0.0720512
0.0793966
0.090649
0.0994202
0.103106
0.105007
0.105091
0.104351
0.103236
0.101909
0.100565
0.0993418
0.0982935
0.0982935
0.0984563
0.0974586
0.0966874
0.0960984
0.0956466
0.0952987
0.0950285
0.0948161
0.0946463
0.094508
0.0943931
0.094296
0.094213
0.0941414
0.0940797
0.0940268
0.0939824
0.093946
0.0939173
0.093896
0.0938817
0.0938734
0.0938703
)
;
    }
    procBoundary0to2
    {
        type            processor;
        value           nonuniform List<scalar> 
46
(
0.131801
0.144903
0.16201
0.184128
0.21228
0.236506
0.231901
0.210594
0.184762
0.161109
0.14218
0.12816
0.118214
0.11129
0.106484
0.103122
0.100735
0.0990091
0.0977353
0.0967738
0.0960306
0.0954411
0.0949599
0.0945535
0.0941974
0.0307988
0.0572991
0.0699537
0.0772661
0.0818846
0.0849565
0.0871161
0.0887503
0.090104
0.0913392
0.0925718
0.0938956
0.0954013
0.0971903
0.0993871
0.102151
0.105687
0.110261
0.116215
0.131801
0.123993
)
;
    }
}


// ************************************************************************* //
