/*--------------------------------*- C++ -*----------------------------------*\
| =========                 |                                                 |
| \\      /  F ield         | OpenFOAM: The Open Source CFD Toolbox           |
|  \\    /   O peration     | Version:  5.0                                   |
|   \\  /    A nd           | Web:      www.OpenFOAM.org                      |
|    \\/     M anipulation  |                                                 |
\*---------------------------------------------------------------------------*/
FoamFile
{
    version     2.0;
    format      ascii;
    class       volScalarField;
    location    "0.1";
    object      nut;
}
// * * * * * * * * * * * * * * * * * * * * * * * * * * * * * * * * * * * * * //

dimensions      [0 2 -1 0 0 0 0];

internalField   nonuniform List<scalar> 
1935
(
5.86156e-05
6.29996e-05
7.24052e-05
7.85319e-05
8.27573e-05
8.58128e-05
8.81078e-05
8.98999e-05
9.13636e-05
9.2622e-05
9.37649e-05
9.48606e-05
9.59633e-05
9.71188e-05
9.83683e-05
9.97509e-05
0.000101304
0.000103063
0.000105054
0.000107284
0.000109734
0.000112333
0.000114956
0.000117421
0.000119501
0.000120945
0.000121519
0.000120894
0.000118399
0.000115425
0.000112087
0.00010884
0.000106216
0.000105189
0.000108478
0.00011347
0.000112643
0.000111727
0.000107766
0.000100689
9.31035e-05
8.62871e-05
8.01271e-05
7.39318e-05
8.28783e-05
0.00031198
0.000468177
0.000576997
0.00065477
0.000711316
0.000753056
0.00078442
0.00080857
0.000827823
0.000843922
0.000858217
0.000871793
0.000885557
0.000900293
0.000916677
0.000935245
0.000956291
0.000979687
0.00100465
0.0010295
0.00105158
0.00106732
0.00107271
0.00106399
0.00103889
0.000998118
0.000944583
0.00087054
0.000789941
0.00073311
0.000708826
0.000713166
0.000725277
0.000723921
0.000679676
0.000552898
0.000435081
0.000382226
0.000369586
0.000368799
0.000364057
0.000352158
0.000328524
9.09058e-05
0.000438467
0.000733999
0.000972393
0.00116326
0.00131486
0.00143466
0.00152936
0.00160478
0.00166591
0.0017169
0.00176125
0.00180188
0.00184123
0.00188136
0.00192391
0.00197001
0.00202004
0.00207331
0.00212765
0.00217912
0.00222205
0.00224936
0.00225342
0.00222742
0.00216773
0.00207662
0.00196204
0.00183163
0.00169527
0.00158768
0.0015181
0.00147617
0.00144319
0.00138863
0.00126655
0.0010607
0.000853224
0.000728419
0.000687014
0.00067669
0.000667324
0.000643949
0.00058789
9.59826e-05
0.000514995
0.00091303
0.00126018
0.00155688
0.00180568
0.00201109
0.00217899
0.00231582
0.00242799
0.0025215
0.00260172
0.00267333
0.00274033
0.002806
0.00287289
0.00294259
0.0030155
0.00309045
0.00316435
0.00323198
0.00328615
0.00331814
0.00331865
0.00327939
0.0031959
0.00307068
0.00291331
0.00273753
0.00255741
0.00240268
0.00227733
0.0021686
0.00206915
0.00196124
0.00177784
0.0014972
0.00121037
0.00103549
0.000974931
0.000966484
0.000961388
0.00092649
0.000830141
9.94656e-05
0.000568694
0.00104555
0.00148231
0.00187214
0.00221176
0.00250134
0.0027442
0.00294586
0.00311294
0.00325242
0.00337104
0.00347492
0.00356943
0.00365899
0.00374695
0.00383543
0.00392498
0.00401431
0.00410005
0.00417664
0.00423653
0.00427065
0.00426928
0.00422356
0.0041283
0.00398458
0.00379986
0.00358814
0.00336784
0.00316084
0.00296625
0.00278294
0.00261407
0.00244231
0.00220744
0.00186994
0.00153915
0.00134406
0.00127928
0.00127299
0.00126378
0.00120595
0.00105669
0.000102013
0.000609302
0.00114891
0.00165967
0.00212982
0.00255125
0.00291975
0.00323539
0.0035017
0.00372462
0.00391131
0.00406928
0.00420573
0.00432714
0.00443896
0.00454536
0.00464906
0.00475101
0.00485021
0.00494353
0.00502573
0.0050896
0.00512649
0.00512695
0.00508198
0.00498553
0.0048359
0.00463581
0.00439524
0.00413573
0.00386856
0.00360077
0.00334179
0.00309427
0.00284523
0.00255088
0.00220201
0.00189306
0.00171011
0.00164175
0.00162291
0.00158965
0.00148967
0.00127173
0.000103974
0.000641279
0.0012317
0.00180355
0.00234196
0.00283527
0.00327542
0.00365909
0.00398739
0.00426487
0.00449825
0.0046953
0.00486389
0.00501138
0.00514411
0.00526709
0.00538374
0.00549564
0.00560239
0.00570147
0.00578834
0.00585657
0.00589826
0.00590456
0.00586648
0.0057772
0.00563177
0.00542726
0.00516724
0.00486918
0.00454797
0.00421367
0.00387392
0.00354374
0.00322742
0.00290464
0.00258022
0.0023126
0.00214655
0.00206705
0.00201899
0.00194143
0.0017804
0.0014792
0.000105545
0.000667073
0.00129893
0.00192099
0.00251664
0.00307179
0.00357526
0.0040206
0.00440638
0.00473539
0.00501348
0.00524822
0.00544783
0.00562029
0.00577272
0.00591095
0.00603918
0.00615976
0.00627309
0.00637748
0.00646926
0.00654294
0.0065915
0.00660669
0.00657973
0.00650327
0.00636993
0.00617189
0.00590393
0.00557863
0.00521684
0.00482012
0.00440465
0.00400612
0.00364562
0.00331714
0.00302382
0.00279189
0.00263677
0.00253874
0.00244968
0.00231352
0.00207728
0.00168228
0.000106844
0.000688203
0.00135392
0.00201701
0.00266004
0.0032674
0.00382551
0.00432526
0.00476277
0.00513898
0.00545857
0.00572865
0.00595746
0.00615343
0.0063243
0.00647667
0.00661556
0.00674418
0.00686377
0.00697356
0.00707081
0.0071509
0.00720761
0.00723328
0.00721952
0.00715904
0.00704357
0.00686293
0.0065987
0.0062604
0.00586878
0.0054194
0.00494624
0.00450265
0.0041183
0.003793
0.00352352
0.00331376
0.00315979
0.00303664
0.00289972
0.00269689
0.00237683
0.00188252
0.00010795
0.00070572
0.00139914
0.00209554
0.00277734
0.003428
0.00403227
0.00457884
0.00506166
0.00547986
0.00583687
0.00613912
0.00639471
0.00661229
0.00680015
0.00696556
0.00711433
0.00725052
0.00737624
0.0074916
0.00759467
0.00768161
0.00774682
0.00778322
0.00778318
0.00774018
0.00764642
0.00749093
0.00723951
0.00690374
0.0064911
0.00600356
0.0054952
0.00502861
0.00463494
0.00431511
0.00405988
0.00385924
0.003697
0.00354349
0.00335534
0.00308252
0.00267516
0.00208296
0.000108912
0.000720472
0.00143675
0.00216026
0.00287367
0.00356001
0.00420281
0.00478907
0.00531089
0.00576576
0.00615583
0.00648679
0.00676644
0.00700355
0.0072068
0.0073841
0.00754198
0.0076853
0.00781699
0.00793793
0.0080469
0.00814065
0.00821411
0.00826085
0.0082745
0.00825006
0.0081809
0.00805427
0.00782587
0.00750423
0.00707872
0.00656914
0.00604667
0.0055742
0.00518075
0.00486642
0.00461772
0.00441642
0.00423875
0.00405147
0.00381118
0.00346904
0.00297853
0.00230903
0.000109776
0.00073313
0.00146844
0.00221403
0.00295301
0.00366831
0.00434269
0.00496188
0.00551647
0.0060025
0.00642098
0.00677682
0.00707748
0.00733173
0.00754858
0.00773645
0.00790255
0.00805247
0.00818986
0.00831627
0.00843104
0.00853136
0.00861269
0.00866942
0.00869693
0.00869238
0.00865092
0.00855713
0.00836222
0.00805952
0.00762676
0.00710988
0.00658918
0.00612264
0.00573537
0.00542597
0.00517848
0.00497024
0.00477313
0.00455154
0.00426206
0.00385752
0.0032974
0.00256966
0.000110559
0.000744105
0.00149532
0.0022588
0.00301821
0.00375658
0.00445622
0.00510195
0.00568322
0.00619487
0.00663691
0.00701354
0.00733185
0.00760058
0.007829
0.00802596
0.00819926
0.00835512
0.00849786
0.00862955
0.00874995
0.00885664
0.00894557
0.00901225
0.00905415
0.00907099
0.0090605
0.00900443
0.0088503
0.00856543
0.00812953
0.00761677
0.00710892
0.00665616
0.00627885
0.00597415
0.00572504
0.00550701
0.00528986
0.00503712
0.00470631
0.00425357
0.00364608
0.002886
0.000111279
0.000753771
0.00151845
0.00229649
0.00307213
0.00382863
0.00454808
0.0052147
0.00581708
0.00634915
0.00681009
0.00720347
0.00753609
0.00781662
0.00805453
0.00825905
0.00843851
0.0085997
0.00874743
0.00888426
0.00901025
0.0091233
0.00921993
0.00929697
0.00935416
0.00939399
0.0094174
0.00940369
0.00929295
0.0090204
0.0085839
0.00808283
0.0075949
0.00716094
0.0067962
0.00649659
0.00624518
0.0060173
0.00578258
0.00550526
0.00514534
0.00466412
0.00403755
0.00327936
0.000111948
0.000762425
0.00153868
0.00232868
0.00311721
0.0038878
0.0046225
0.00530515
0.00592375
0.00647155
0.0069471
0.00735349
0.00769725
0.00798702
0.00823243
0.00844308
0.00862773
0.00879365
0.00894614
0.00908807
0.00921978
0.00933944
0.00944422
0.00953236
0.009606
0.00967046
0.00973011
0.00976218
0.00969201
0.00942406
0.0089881
0.00850288
0.00803876
0.00762657
0.00727631
0.00698283
0.00673003
0.00649437
0.00624686
0.00595395
0.00557966
0.00509171
0.00447473
0.00375087
0.000112576
0.000770296
0.00155668
0.00235665
0.00315546
0.00393693
0.00468315
0.00537779
0.00600845
0.00656793
0.00705432
0.00747036
0.0078224
0.00811908
0.00837021
0.00858568
0.00877467
0.00894489
0.00910198
0.0092491
0.00938678
0.00951345
0.009627
0.00972715
0.00981846
0.00990907
0.0100067
0.0100861
0.0100483
0.00977722
0.00934227
0.00887456
0.00843559
0.00804649
0.00771199
0.00742602
0.00717377
0.00693378
0.00667958
0.00638107
0.00600731
0.00553286
0.00494975
0.00428468
0.000113168
0.000777568
0.00157298
0.0023814
0.0031885
0.00397835
0.00473315
0.00543649
0.0060758
0.00664356
0.00713758
0.0075604
0.00791825
0.00821983
0.00847512
0.00869432
0.00888696
0.00906112
0.00922275
0.00937521
0.00951916
0.00965331
0.00977625
0.00988929
0.00999936
0.0101174
0.0102542
0.0103805
0.0103632
0.0100822
0.00964842
0.0091982
0.00878388
0.00841777
0.00809965
0.00782254
0.00757324
0.00733294
0.00707846
0.0067839
0.00642377
0.00597902
0.00544719
0.0048557
0.000113731
0.000784383
0.00158799
0.00240374
0.00321763
0.00401395
0.00477504
0.00548451
0.00612972
0.006703
0.00720203
0.00762924
0.00799085
0.00829566
0.00855384
0.00877588
0.00897163
0.00914948
0.00931564
0.00947358
0.00962407
0.00976605
0.00989889
0.0100255
0.0101551
0.0103015
0.0104784
0.0106486
0.0106383
0.0103424
0.00990998
0.0094762
0.00908479
0.00874047
0.00843862
0.00817147
0.00792746
0.00769074
0.0074418
0.00715923
0.00682278
0.00641881
0.00594839
0.00543691
0.000114268
0.000790851
0.00160202
0.00242427
0.00324383
0.0040452
0.00481084
0.00552448
0.00617345
0.0067501
0.00725205
0.00768175
0.00804548
0.00835218
0.00861224
0.00883642
0.00903486
0.00921622
0.00938688
0.0095504
0.00970758
0.00985762
0.0100006
0.0101411
0.0102907
0.0104657
0.0106822
0.0108898
0.0108746
0.0105617
0.010131
0.00971218
0.00934123
0.00901675
0.00873044
0.00847385
0.00823709
0.00800724
0.00776853
0.00750382
0.00719756
0.00684033
0.00643503
0.00600342
0.000114782
0.000797054
0.00161531
0.00244344
0.00326786
0.00407323
0.00484216
0.00555848
0.00620961
0.00678797
0.00729124
0.00772196
0.00808654
0.00839411
0.00865528
0.00888106
0.00908189
0.00926661
0.00944173
0.00961083
0.00977471
0.00993282
0.010086
0.0102405
0.0104099
0.0106129
0.0108672
0.0111035
0.0110733
0.0107439
0.0103157
0.00991027
0.0095571
0.00925012
0.00897812
0.0087322
0.00850401
0.00828346
0.0080582
0.00781495
0.00754203
0.00723307
0.00689156
0.00653513
0.000115274
0.000803053
0.00162803
0.00246158
0.00329028
0.0040989
0.0048702
0.00558812
0.00624024
0.00681907
0.00732247
0.00775312
0.00811761
0.00842528
0.00868699
0.00891401
0.00911697
0.00930493
0.00948442
0.00965901
0.00982946
0.00999546
0.0101587
0.0103268
0.0105154
0.0107452
0.0110346
0.0112897
0.011237
0.0108933
0.0104684
0.0100748
0.00973673
0.00944475
0.00918553
0.00894991
0.00873099
0.00852116
0.00831114
0.00809086
0.00785164
0.00758914
0.00730661
0.00701758
0.00674613
0.000115746
0.000808887
0.00164028
0.00247893
0.00331149
0.00412284
0.00489585
0.00561462
0.00626687
0.00684532
0.00734799
0.00777778
0.0081415
0.00844874
0.00871059
0.00893857
0.00914351
0.00933456
0.0095183
0.00969818
0.00987495
0.0100485
0.0102213
0.0104025
0.0106096
0.0108645
0.0111856
0.0114494
0.0113697
0.0110144
0.0105934
0.01021
0.00988451
0.00960508
0.00935695
0.0091309
0.00892132
0.00872277
0.0085285
0.00833099
0.00812375
0.00790367
0.00767331
0.00744245
0.00722811
0.000116199
0.000814582
0.00165216
0.00249566
0.00333178
0.0041455
0.00491978
0.00563887
0.00629068
0.00686813
0.00736948
0.00779787
0.00816038
0.00846682
0.00872855
0.0089573
0.00916408
0.00935811
0.00954592
0.00973084
0.00991358
0.0100943
0.0102762
0.0104698
0.0106942
0.0109727
0.0113218
0.0115847
0.0114766
0.0111122
0.0106949
0.0103199
0.0100047
0.00973552
0.00949677
0.00927929
0.00907865
0.00889119
0.00871218
0.00853601
0.00835772
0.00817479
0.00798887
0.00780667
0.00763961
0.000116634
0.000820155
0.00166373
0.00251188
0.00335136
0.0041672
0.00494246
0.00566153
0.00631251
0.00688857
0.00738821
0.00781485
0.00817584
0.00848126
0.00874272
0.00897215
0.00918068
0.00937756
0.00956923
0.0097589
0.00994718
0.0101345
0.0103249
0.0105303
0.0107711
0.0110716
0.0114443
0.0116983
0.0115627
0.0111907
0.0107764
0.0104082
0.0101011
0.00984025
0.00960924
0.00939921
0.00920675
0.00902966
0.00886473
0.00870772
0.00855464
0.00840317
0.00825398
0.00811125
0.00798232
0.00011705
0.000825619
0.00167502
0.00252768
0.00337038
0.00418818
0.00496422
0.00568305
0.00633297
0.00690739
0.00740508
0.00782977
0.00818908
0.00849337
0.00875448
0.00898453
0.00919473
0.00939435
0.00958968
0.00978376
0.00997715
0.0101706
0.010369
0.0105854
0.0108416
0.0111629
0.0115537
0.0117917
0.011632
0.0112532
0.0108409
0.010478
0.0101774
0.00992312
0.00969838
0.00949464
0.00930941
0.00914162
0.00898917
0.00884877
0.00871696
0.00859138
0.00847175
0.00836026
0.00826128
0.000117449
0.000830988
0.00168606
0.00254313
0.00338894
0.00420859
0.0049853
0.00570377
0.00635249
0.00692512
0.00742076
0.00784339
0.00820096
0.00850408
0.00876482
0.00899547
0.00920732
0.00940957
0.00960834
0.00980649
0.0100046
0.0102036
0.0104093
0.0106362
0.0109069
0.0112477
0.0116505
0.0118666
0.0116863
0.0113016
0.0108905
0.0105319
0.0102366
0.00998763
0.00976788
0.00956932
0.00939027
0.00923054
0.00908882
0.00896239
0.00884805
0.00874325
0.00864687
0.00855956
0.00848352
0.000117831
0.000836271
0.00169689
0.00255826
0.00340712
0.00422855
0.00500587
0.0057239
0.00637136
0.00694216
0.00743568
0.00785624
0.00821206
0.00851404
0.00877446
0.00900574
0.00921922
0.00942399
0.00962601
0.0098279
0.0100302
0.0102344
0.010447
0.0106836
0.010968
0.011327
0.0117352
0.0119247
0.0117269
0.011337
0.0109272
0.0105725
0.0102817
0.0100369
0.00982107
0.00962667
0.00945277
0.00929984
0.00916709
0.00905212
0.00895181
0.00886331
0.00878482
0.00871584
0.008657
0.000118197
0.000841481
0.00170752
0.00257312
0.00342496
0.00424814
0.00502604
0.00574361
0.0063898
0.00695876
0.0074502
0.00786871
0.00822284
0.00852374
0.00878391
0.00901587
0.00923099
0.00943821
0.00964327
0.0098486
0.0100547
0.0102636
0.0104827
0.0107285
0.0110258
0.0114013
0.0118101
0.0119705
0.0117556
0.0113611
0.0109529
0.010602
0.0103152
0.0100738
0.00986091
0.00966976
0.00950004
0.00935273
0.00922733
0.00912157
0.00903227
0.00895632
0.00889134
0.00883597
0.00878976
0.000118545
0.000846621
0.00171797
0.00258773
0.00344251
0.00426742
0.00504589
0.00576302
0.00640795
0.00697513
0.00746452
0.00788107
0.0082336
0.00853353
0.00879354
0.00902628
0.00924305
0.00945267
0.00966059
0.00986905
0.0100787
0.0102918
0.010517
0.0107717
0.0110812
0.0114717
0.0118793
0.0120091
0.0117757
0.0113764
0.0109697
0.0106226
0.0103393
0.0101006
0.00988997
0.00970131
0.00953493
0.00939217
0.00927268
0.00917419
0.00909341
0.00902694
0.00897197
0.00892651
0.00888936
0.000118878
0.000851696
0.00172824
0.0026021
0.00345979
0.00428642
0.00506549
0.00578221
0.00642594
0.00699139
0.00747883
0.00789353
0.00824458
0.00854367
0.00880366
0.00903727
0.00925576
0.00946772
0.00967835
0.00988966
0.0101024
0.0103195
0.0105505
0.0108139
0.0111352
0.0115403
0.0119459
0.012044
0.0117904
0.0113852
0.0109797
0.0106361
0.010356
0.0101195
0.00991048
0.00972366
0.0095599
0.00942079
0.009306
0.00921318
0.00913888
0.00907946
0.00903177
0.00899339
0.00896261
0.000119195
0.000856706
0.00173836
0.00261626
0.00347684
0.00430521
0.00508489
0.00580126
0.00644386
0.00700767
0.00749328
0.00790625
0.00825598
0.00855439
0.00881452
0.00904913
0.00926939
0.00948367
0.00969684
0.00991073
0.0101262
0.010347
0.0105836
0.0108556
0.0111886
0.0116081
0.0120108
0.0120769
0.011802
0.0113896
0.0109847
0.0106442
0.010367
0.0101322
0.00992429
0.00973882
0.0095771
0.0094409
0.00932982
0.00924139
0.00917196
0.00911771
0.00907524
0.0090418
0.00901537
0.000119496
0.000861658
0.00174833
0.00263023
0.00349369
0.0043238
0.00510415
0.00582022
0.00646178
0.00702408
0.007508
0.0079194
0.00826798
0.0085659
0.00882633
0.00906209
0.00928421
0.00950079
0.00971637
0.00993257
0.0101505
0.0103746
0.0106167
0.0108971
0.0112417
0.0116754
0.0120742
0.0121081
0.011811
0.0113904
0.0109858
0.0106484
0.0103737
0.0101401
0.00993299
0.00974846
0.00958835
0.00945447
0.00934634
0.00926128
0.00919549
0.00914497
0.00910615
0.00907609
0.00905255
0.000119782
0.000866564
0.00175818
0.00264403
0.00351037
0.00434226
0.00512332
0.00583918
0.00647982
0.00704074
0.00752312
0.00793314
0.00828078
0.0085784
0.00883934
0.00907641
0.00930049
0.00951936
0.00973721
0.00995546
0.0101755
0.0104027
0.0106499
0.0109386
0.0112947
0.0117422
0.0121357
0.0121367
0.0118168
0.011388
0.0109838
0.0106495
0.0103771
0.0101446
0.00993786
0.009754
0.00959516
0.00946318
0.00935738
0.00927492
0.00921183
0.00916398
0.00912767
0.00909985
0.00907814
0.000120052
0.000871443
0.00176793
0.00265771
0.00352693
0.00436062
0.00514247
0.00585823
0.00649807
0.00705777
0.00753881
0.00794766
0.00829458
0.00859215
0.00885381
0.00909236
0.0093185
0.00953965
0.00975962
0.00997964
0.0102014
0.0104313
0.0106836
0.0109805
0.0113478
0.0118084
0.0121947
0.0121615
0.0118188
0.0113825
0.0109796
0.0106485
0.0103783
0.0101465
0.00993998
0.0097566
0.00959882
0.00946841
0.00936449
0.00928404
0.00922294
0.00917696
0.00914233
0.00911593
0.00909532
0.000120308
0.000876315
0.00177762
0.0026713
0.0035434
0.00437895
0.00516168
0.00587746
0.00651667
0.00707535
0.00755527
0.0079632
0.00830965
0.00860742
0.00887004
0.00911025
0.00933854
0.00956195
0.00978387
0.0100054
0.0102286
0.0104608
0.0107178
0.0110228
0.0114011
0.0118738
0.0122501
0.0121811
0.0118164
0.0113743
0.0109735
0.0106461
0.0103779
0.0101467
0.00994025
0.00975726
0.0096004
0.00947131
0.00936893
0.00929004
0.0092304
0.00918571
0.00915215
0.00912657
0.00910653
0.00012055
0.000881206
0.00178727
0.00268483
0.00355985
0.00439733
0.00518106
0.00589702
0.0065358
0.00709369
0.00757275
0.00798003
0.0083263
0.00862454
0.00888836
0.00913042
0.00936094
0.00958657
0.00981024
0.0100329
0.0102571
0.0104914
0.0107528
0.0110656
0.0114547
0.0119386
0.0123004
0.0121939
0.0118093
0.0113637
0.0109665
0.0106428
0.0103766
0.0101458
0.00993945
0.00975682
0.00960079
0.00947285
0.00937175
0.00929406
0.00923546
0.00919161
0.00915866
0.00913349
0.00911366
0.000120777
0.000886135
0.00179692
0.00269834
0.00357633
0.00441585
0.00520073
0.00591709
0.00655569
0.00711307
0.00759157
0.00799851
0.00834492
0.00864392
0.00890918
0.00915326
0.00938606
0.00961379
0.00983899
0.0100625
0.0102873
0.0105231
0.0107888
0.0111092
0.0115089
0.0120028
0.0123442
0.0121994
0.0117984
0.0113519
0.010959
0.0106392
0.0103748
0.0101445
0.00993824
0.009756
0.00960075
0.00947383
0.00937377
0.009297
0.00923912
0.00919575
0.00916308
0.00913799
0.00911808
0.000120993
0.000891118
0.00180656
0.00271187
0.00359291
0.00443464
0.00522089
0.00593791
0.00657662
0.00713382
0.00761211
0.00801908
0.00836596
0.00866603
0.00893297
0.00917918
0.00941426
0.00964395
0.00987037
0.0100943
0.0103193
0.0105564
0.0108259
0.011154
0.0115647
0.0120673
0.0123811
0.0121987
0.0117851
0.0113399
0.0109517
0.0106355
0.0103728
0.0101431
0.00993719
0.00975544
0.00960095
0.00947494
0.00937572
0.0092996
0.00924214
0.00919896
0.00916627
0.00914101
0.00912082
0.000121201
0.000896155
0.0018162
0.00272544
0.00360969
0.00445386
0.0052418
0.00595981
0.00659901
0.00715641
0.00763488
0.00804226
0.00838997
0.00869141
0.00896024
0.00920867
0.00944594
0.00967734
0.00990462
0.0101285
0.0103532
0.0105912
0.0108644
0.0112003
0.0116229
0.0121329
0.0124115
0.0121943
0.0117715
0.0113281
0.0109441
0.0106315
0.010371
0.0101422
0.00993684
0.00975571
0.00960199
0.00947676
0.00937817
0.00930245
0.00924512
0.00920185
0.0091689
0.00914326
0.0091226
0.000121416
0.000901233
0.00182579
0.00273906
0.00362679
0.00447377
0.00526379
0.00598323
0.00662336
0.00718141
0.0076605
0.00806869
0.0084176
0.00872069
0.00899156
0.00924222
0.00948151
0.0097143
0.00994201
0.0101654
0.0103894
0.0106278
0.0109042
0.011248
0.0116845
0.0121984
0.0124334
0.0121871
0.0117571
0.0113152
0.0109353
0.0106268
0.0103691
0.010142
0.00993761
0.00975733
0.00960439
0.0094798
0.00938161
0.00930601
0.00924854
0.00920491
0.00917144
0.0091452
0.00912393
0.000121667
0.000906275
0.00183524
0.00275279
0.00364445
0.00449476
0.0052874
0.00600878
0.00665033
0.00720952
0.00768968
0.00809911
0.00844956
0.00875454
0.00902755
0.00928033
0.00952138
0.00975515
0.0099828
0.0102053
0.0104281
0.0106662
0.0109452
0.0112965
0.011748
0.0122564
0.0124388
0.0121722
0.0117374
0.0112976
0.0109232
0.0106204
0.010367
0.0101426
0.00993991
0.00976074
0.00960861
0.0094845
0.00938645
0.00931067
0.00925273
0.00920845
0.00917423
0.00914719
0.00912514
0.000122018
0.000911215
0.00184433
0.00276664
0.00366296
0.00451735
0.00531329
0.00603724
0.00668078
0.0072416
0.00772331
0.00813437
0.00848666
0.00879369
0.00906882
0.00932352
0.00956595
0.00980022
0.0100274
0.0102485
0.0104697
0.0107068
0.0109869
0.0113435
0.0118081
0.0122966
0.0124216
0.012141
0.0117047
0.0112705
0.0109052
0.0106114
0.0103646
0.0101443
0.00994401
0.00976633
0.00961504
0.00949123
0.00939302
0.00931668
0.00925794
0.0092127
0.00917746
0.00914943
0.00912643
0.000122605
0.000915608
0.00185281
0.00278076
0.00368284
0.00454232
0.0053424
0.00606958
0.00671568
0.00727865
0.00776233
0.00817538
0.00852974
0.00883889
0.009116
0.00937229
0.00961562
0.00984993
0.0100762
0.0102958
0.0105151
0.0107503
0.0110293
0.0113871
0.0118578
0.0123152
0.0123819
0.0120866
0.0116526
0.01123
0.0108796
0.0105989
0.0103614
0.0101469
0.00995001
0.00977428
0.00962391
0.00950022
0.00940151
0.00932425
0.00926431
0.00921778
0.00918127
0.00915202
0.00912794
0.000123502
0.000917926
0.00185928
0.00279502
0.00370467
0.00457062
0.00537582
0.00610696
0.00675618
0.00732176
0.00780778
0.00822309
0.00857965
0.00889086
0.0091697
0.00942714
0.00967087
0.00990478
0.0101301
0.0103482
)
;

boundaryField
{
    leftWall
    {
        type            nutkWallFunction;
        Cmu             0.09;
        kappa           0.41;
        E               9.8;
        value           nonuniform List<scalar> 
44
(
8.80008e-06
1.04688e-05
1.13511e-05
1.19019e-05
1.22727e-05
1.25384e-05
1.27388e-05
1.28967e-05
1.30255e-05
1.31338e-05
1.32273e-05
1.33107e-05
1.3386e-05
1.34549e-05
1.35188e-05
1.35786e-05
1.3635e-05
1.36886e-05
1.37397e-05
1.37886e-05
1.38354e-05
1.38802e-05
1.39233e-05
1.39645e-05
1.4004e-05
1.40419e-05
1.40781e-05
1.41128e-05
1.41458e-05
1.41774e-05
1.42073e-05
1.42358e-05
1.42628e-05
1.42884e-05
1.43125e-05
1.43352e-05
1.43565e-05
1.43765e-05
1.43953e-05
1.44136e-05
1.44329e-05
1.44567e-05
1.44931e-05
1.45528e-05
)
;
    }
    rightWall
    {
        type            nutkWallFunction;
        Cmu             0.09;
        kappa           0.41;
        E               9.8;
        value           nonuniform 0();
    }
    lowerWall
    {
        type            nutkWallFunction;
        Cmu             0.09;
        kappa           0.41;
        E               9.8;
        value           nonuniform List<scalar> 
44
(
6.6985e-06
7.95109e-06
8.99372e-06
9.66081e-06
1.01081e-05
1.04216e-05
1.065e-05
1.08239e-05
1.09634e-05
1.10825e-05
1.1191e-05
1.12963e-05
1.1404e-05
1.15187e-05
1.16447e-05
1.17861e-05
1.19473e-05
1.21324e-05
1.2345e-05
1.25869e-05
1.28553e-05
1.31411e-05
1.34258e-05
1.36813e-05
1.3872e-05
1.39625e-05
1.39257e-05
1.37475e-05
1.34674e-05
1.31803e-05
1.2918e-05
1.2728e-05
1.26521e-05
1.27264e-05
1.28558e-05
1.28735e-05
6.00567e-06
5.5381e-06
4.81672e-06
3.97195e-06
3.15505e-06
2.3967e-06
1.64714e-06
7.90511e-07
)
;
    }
    atmosphere
    {
        type            calculated;
        value           nonuniform 0();
    }
    defaultFaces
    {
        type            empty;
    }
    procBoundary0to1
    {
        type            processor;
        value           nonuniform List<scalar> 
44
(
0.000306355
0.000292898
0.000463722
0.000612667
0.000737613
0.000844308
0.000940356
0.00103454
0.0011367
0.0012632
0.0014651
0.00171034
0.00203963
0.00246948
0.0030026
0.00361545
0.00427252
0.0049402
0.00558937
0.00619677
0.00619677
0.00652206
0.00705082
0.00750155
0.00787616
0.00818025
0.00842176
0.00860963
0.00875286
0.0088599
0.00893828
0.00899447
0.00903386
0.00906078
0.00907869
0.00909021
0.00909734
0.00910157
0.00910395
0.00910524
0.00910596
0.00910646
0.00910693
0.0091075
)
;
    }
    procBoundary0to2
    {
        type            processor;
        value           nonuniform List<scalar> 
46
(
0.0105655
0.0107981
0.0110735
0.0114269
0.011894
0.0123152
0.0123227
0.0120066
0.0115782
0.0111745
0.0108459
0.0105833
0.0103579
0.0101507
0.00995804
0.00978462
0.0096352
0.00951142
0.00941188
0.00933331
0.00927185
0.00922373
0.00918566
0.00915499
0.00912969
0.000124489
0.000918803
0.00186416
0.00280878
0.00372858
0.00460306
0.00541459
0.00615048
0.00680339
0.00737199
0.00786068
0.00827842
0.00863721
0.00895031
0.00923052
0.00948862
0.00973223
0.00996545
0.0101898
0.0105655
0.010407
)
;
    }
}


// ************************************************************************* //
