/*--------------------------------*- C++ -*----------------------------------*\
| =========                 |                                                 |
| \\      /  F ield         | OpenFOAM: The Open Source CFD Toolbox           |
|  \\    /   O peration     | Version:  5.0                                   |
|   \\  /    A nd           | Web:      www.OpenFOAM.org                      |
|    \\/     M anipulation  |                                                 |
\*---------------------------------------------------------------------------*/
FoamFile
{
    version     2.0;
    format      ascii;
    class       volScalarField;
    location    "0.1";
    object      p_rgh;
}
// * * * * * * * * * * * * * * * * * * * * * * * * * * * * * * * * * * * * * //

dimensions      [1 -1 -2 0 0 0 0];

internalField   nonuniform List<scalar> 
1935
(
1546.65
1549.1
1549.63
1547.49
1541.91
1532.68
1519.83
1503.53
1483.91
1461.09
1435.13
1406.07
1373.87
1338.45
1299.65
1257.25
1210.93
1160.27
1104.74
1043.64
976.207
901.611
819.169
728.681
631.049
529.041
427.812
335.722
259.307
196.277
143.554
102.002
74.6913
55.4206
42.0086
12.6576
4.85347
3.17489
2.68624
2.53786
2.47285
2.43602
2.41185
2.39658
1545.33
1547.19
1546.44
1542.88
1536.32
1526.48
1513.29
1496.8
1477.07
1454.16
1428.11
1398.92
1366.52
1330.83
1291.68
1248.81
1201.89
1150.48
1094
1031.74
962.931
886.771
802.67
710.622
611.86
509.615
409.45
318.005
241.736
182.721
135.582
92.8466
44.2277
10.35
5.45887
5.38445
4.2253
2.77184
2.59833
2.53467
2.47551
2.43549
2.40969
2.39463
1544.32
1546.14
1544.38
1539.39
1531.6
1520.86
1507.05
1490.13
1470.08
1446.92
1420.62
1391.15
1358.42
1322.32
1282.64
1239.13
1191.41
1139.01
1081.35
1017.72
947.367
869.595
783.979
690.796
591.688
490.33
392.317
303.753
229.684
170.031
118.201
54.7098
10.7512
3.84038
2.79212
2.37108
2.72772
2.92027
2.5632
2.44
2.41629
2.39415
2.3785
2.36929
1543.5
1545.67
1543.67
1537.9
1529.23
1517.71
1503.24
1485.79
1465.31
1441.78
1415.13
1385.3
1352.18
1315.63
1275.44
1231.32
1182.89
1129.67
1071.08
1006.44
935.066
856.337
769.968
676.404
577.464
476.717
378.652
288.11
210.156
133.814
47.4282
9.46799
4.27808
2.91748
2.39774
2.10496
2.00529
2.10741
2.2927
2.34487
2.33382
2.33159
2.32754
2.3253
1543
1545.46
1543.54
1537.53
1528.41
1516.39
1501.45
1483.57
1462.71
1438.81
1411.82
1381.65
1348.18
1311.25
1270.64
1226.05
1177.11
1123.35
1064.21
999.049
927.236
848.235
761.837
668.542
570.118
469.346
368.683
270.819
160.11
43.095
6.61693
3.82826
2.90814
2.47564
2.2639
2.1066
2.02881
2.05884
2.14958
2.23011
2.25835
2.26553
2.26823
2.27063
1543
1545.59
1543.84
1537.87
1528.63
1516.38
1501.17
1483.02
1461.88
1437.72
1410.46
1380.01
1346.26
1309.04
1268.13
1223.23
1173.99
1119.95
1060.58
995.312
923.557
844.858
759.073
666.725
569.416
468.33
364.243
226.161
60.869
6.79444
4.0898
2.9467
2.41253
2.25791
2.18661
2.10669
2.0579
2.0702
2.11976
2.16614
2.19124
2.20118
2.20511
2.20852
1543.65
1546.25
1544.72
1538.95
1529.78
1517.52
1502.24
1483.97
1462.69
1438.37
1410.94
1380.32
1346.39
1308.99
1267.91
1222.86
1173.51
1119.44
1060.15
995.136
923.879
846.013
761.477
670.881
575.583
474.579
352.264
138.276
11.4218
4.60532
3.05491
2.44931
2.24512
2.18327
2.14534
2.09928
2.06834
2.07006
2.09409
2.11859
2.133
2.13854
2.13938
2.13976
1545.09
1547.65
1546.32
1540.84
1531.9
1519.79
1504.6
1486.36
1465.08
1440.72
1413.23
1382.55
1348.56
1311.11
1270
1224.97
1175.71
1121.84
1062.92
998.492
928.14
851.597
768.92
680.882
588.508
488.663
309.668
58.1401
6.778
3.47628
2.56391
2.27095
2.18045
2.14688
2.11852
2.08582
2.06177
2.0562
2.06405
2.0736
2.07799
2.07659
2.07102
2.06409
1547.44
1549.92
1548.81
1543.65
1535.03
1523.19
1508.22
1490.15
1468.99
1444.72
1417.31
1386.68
1352.76
1315.39
1274.39
1229.55
1180.58
1127.13
1068.84
1005.3
936.206
861.408
781.104
696.246
607.208
507.936
237.115
20.7047
5.10482
2.94101
2.37809
2.21065
2.15211
2.12276
2.09604
2.06759
2.04502
2.03349
2.03032
2.02874
2.024
2.01446
1.99988
1.98073
1550.77
1553.19
1552.27
1547.47
1539.21
1527.73
1513.08
1495.29
1474.37
1450.31
1423.08
1392.64
1358.9
1321.75
1281.02
1236.53
1188.02
1135.21
1077.77
1015.38
947.841
875.109
797.552
716.277
630.459
508.206
166.107
10.3495
4.08682
2.65786
2.29568
2.18088
2.13153
2.10091
2.07283
2.04512
2.02173
2.00524
1.99389
1.98348
1.97041
1.95225
1.92679
1.89092
1555.21
1557.54
1556.81
1552.36
1544.5
1533.43
1519.17
1501.75
1481.16
1457.42
1430.49
1400.35
1366.93
1330.13
1289.81
1245.83
1197.96
1145.97
1089.59
1028.58
962.814
892.376
817.786
740.209
657.101
495.127
109.315
7.82982
3.42122
2.47554
2.23968
2.15399
2.10895
2.07648
2.04675
2.01839
1.99337
1.97274
1.95512
1.93763
1.91725
1.89087
1.8541
1.7984
1560.83
1563.09
1562.53
1558.41
1550.96
1540.33
1526.52
1509.53
1489.36
1466.02
1439.51
1409.78
1376.8
1340.47
1300.71
1257.38
1210.32
1159.32
1104.17
1044.72
980.899
912.884
841.325
767.291
686.188
468.809
67.7934
6.05025
2.9739
2.34815
2.19148
2.12364
2.08148
2.04798
2.01692
1.98757
1.96084
1.93689
1.91453
1.8916
1.86556
1.83319
1.78939
1.72388
1567.67
1569.85
1569.45
1565.65
1558.6
1548.42
1535.09
1518.58
1498.91
1476.06
1450.04
1420.83
1388.4
1352.67
1313.59
1271.06
1224.94
1175.07
1121.31
1063.53
1001.74
936.183
867.578
796.711
716.938
428.78
38.9032
4.84009
2.67126
2.2545
2.14521
2.08872
2.04907
2.01523
1.98337
1.95319
1.92504
1.89861
1.87282
1.84603
1.81628
1.78091
1.73612
1.67604
1575.76
1577.87
1577.61
1574.1
1567.45
1557.72
1544.88
1528.9
1509.77
1487.48
1462.04
1433.44
1401.65
1366.63
1328.35
1286.73
1241.67
1193.06
1140.78
1084.76
1025.05
961.916
896.101
827.897
749.125
382.818
21.9759
4.00813
2.46588
2.18068
2.09857
2.0496
2.01215
1.9785
1.94637
1.91573
1.88659
1.85844
1.83032
1.80105
1.76919
1.73279
1.68938
1.63586
1585.12
1587.16
1587.02
1583.78
1577.5
1568.22
1555.89
1540.46
1521.91
1500.23
1475.44
1447.52
1416.47
1382.26
1344.87
1304.27
1260.38
1213.11
1162.39
1108.19
1050.56
989.8
926.591
860.549
782.683
328.191
12.718
3.44664
2.32151
2.11737
2.05084
2.00693
1.97138
1.9383
1.90634
1.8756
1.84591
1.8167
1.78718
1.75655
1.72377
1.6874
1.64562
1.59619
1595.77
1597.74
1597.69
1594.7
1588.78
1579.94
1568.12
1553.26
1535.32
1514.3
1490.2
1463.03
1432.79
1399.47
1363.08
1323.58
1280.93
1235.09
1185.99
1133.63
1078.08
1019.65
958.919
894.736
798.857
281.553
8.11129
3.06062
2.21032
2.05867
2.00164
1.9613
1.92734
1.8951
1.86365
1.83312
1.80328
1.77361
1.7435
1.71242
1.67961
1.644
1.60419
1.55841
1607.72
1609.61
1609.65
1606.88
1601.3
1592.89
1581.58
1567.29
1549.98
1529.65
1506.3
1479.94
1450.58
1418.22
1382.89
1344.57
1303.24
1258.88
1211.44
1160.95
1107.47
1051.33
992.995
930.592
812.12
238.939
6.78105
2.77401
2.11582
2.00066
1.95054
1.91293
1.88049
1.84926
1.81856
1.78852
1.75893
1.72935
1.69933
1.66852
1.63635
1.60203
1.5645
1.52223
1620.97
1622.79
1622.9
1620.34
1615.08
1607.09
1596.27
1582.56
1565.91
1546.3
1523.73
1498.22
1469.79
1438.46
1404.25
1367.18
1327.23
1284.39
1238.66
1190.04
1138.64
1084.75
1028.75
968.085
820.576
197.869
5.73445
2.53124
2.02956
1.94201
1.89721
1.862
1.8311
1.80105
1.77131
1.74205
1.7131
1.68409
1.65472
1.62471
1.59361
1.56086
1.52572
1.48658
1635.55
1637.29
1637.46
1635.09
1630.13
1622.54
1612.23
1599.1
1583.11
1564.23
1542.48
1517.86
1490.4
1460.15
1427.12
1391.34
1352.82
1311.55
1267.54
1220.82
1171.47
1119.83
1066.11
1007.17
822.262
159.501
4.88652
2.32906
1.95027
1.88246
1.84165
1.80871
1.77943
1.75071
1.72218
1.69399
1.66604
1.63802
1.60969
1.58083
1.55105
1.51999
1.48718
1.45083
1651.44
1653.11
1653.33
1651.14
1646.47
1639.27
1629.45
1616.9
1601.58
1583.45
1562.53
1538.84
1512.39
1483.25
1451.44
1417
1379.94
1340.27
1298
1253.17
1205.89
1156.47
1105
1047.78
818.062
125.518
4.16973
2.16042
1.87589
1.82147
1.78391
1.75327
1.72574
1.69856
1.67148
1.64465
1.61798
1.59124
1.56422
1.53672
1.50837
1.47898
1.4483
1.41499
1668.66
1670.25
1670.52
1668.49
1664.1
1657.29
1647.94
1635.97
1621.31
1603.95
1583.88
1561.13
1535.73
1507.72
1477.16
1444.08
1408.5
1370.44
1329.92
1286.98
1241.76
1194.55
1145.3
1089.83
805.362
94.8588
3.59549
2.01559
1.80354
1.7584
1.72397
1.69586
1.6703
1.6449
1.6195
1.59425
1.56908
1.54381
1.51826
1.49224
1.46541
1.43756
1.40908
1.37895
1.34511
1687.2
1688.71
1689.02
1687.15
1683.02
1676.58
1667.7
1656.3
1642.31
1625.72
1606.51
1584.71
1560.37
1533.52
1504.23
1472.51
1438.42
1401.97
1363.2
1322.15
1278.96
1233.94
1186.9
1133.22
785.601
69.1031
3.11469
1.88644
1.73066
1.69265
1.66184
1.63665
1.61336
1.58999
1.56647
1.54295
1.51941
1.49571
1.47173
1.44729
1.42212
1.39591
1.36905
1.3417
1.3116
1707.06
1708.49
1708.83
1707.11
1703.24
1697.15
1688.73
1677.89
1664.57
1648.75
1630.41
1609.57
1586.29
1560.61
1532.59
1502.25
1469.65
1434.81
1397.77
1358.58
1317.41
1274.56
1229.67
1177.81
754.867
47.2681
2.69228
1.7656
1.65549
1.62411
1.59774
1.57595
1.55521
1.53405
1.51252
1.49083
1.469
1.44696
1.4246
1.40182
1.3784
1.35406
1.32892
1.30337
1.27639
1728.23
1729.58
1729.95
1728.36
1724.73
1718.99
1711.02
1700.74
1688.09
1673.03
1655.56
1635.69
1613.48
1588.98
1562.22
1533.27
1502.15
1468.91
1433.58
1396.24
1357.05
1316.34
1273.57
1223.55
717.612
30.5081
2.32723
1.65136
1.57823
1.55367
1.53236
1.51422
1.49617
1.4773
1.45782
1.438
1.41794
1.3976
1.37693
1.35586
1.33425
1.31186
1.28867
1.26489
1.24002
1750.7
1751.97
1752.36
1750.9
1747.51
1742.11
1734.59
1724.86
1712.87
1698.57
1681.96
1663.07
1641.94
1618.6
1593.12
1565.54
1535.91
1504.27
1470.65
1435.13
1397.91
1359.28
1318.57
1270.35
667.694
18.3059
2.02918
1.54593
1.50148
1.48319
1.46682
1.45215
1.43671
1.42007
1.4026
1.38465
1.36637
1.34779
1.32887
1.30957
1.28978
1.26932
1.2481
1.22623
1.2034
1774.46
1775.66
1776.06
1774.73
1771.57
1766.51
1759.43
1750.25
1738.9
1725.37
1709.63
1691.71
1671.64
1649.48
1625.27
1599.07
1570.92
1540.88
1508.97
1475.27
1439.97
1403.38
1364.63
1318.25
613.175
11.0839
1.81036
1.45487
1.42845
1.41492
1.40234
1.39048
1.3773
1.36271
1.34716
1.33104
1.31455
1.29774
1.28061
1.26312
1.24514
1.22653
1.20721
1.18722
1.16638
1799.51
1800.63
1801.05
1799.84
1796.91
1792.18
1785.53
1776.89
1766.2
1753.42
1738.54
1721.58
1702.58
1681.59
1658.64
1633.82
1607.16
1578.7
1548.5
1516.61
1483.22
1448.6
1411.7
1367.15
549.568
6.59383
1.66942
1.38099
1.36158
1.35012
1.33967
1.32969
1.31833
1.30553
1.29177
1.27742
1.26269
1.24766
1.23233
1.21663
1.20044
1.18362
1.16611
1.14794
1.12902
1825.83
1826.88
1827.31
1826.22
1823.51
1819.11
1812.89
1804.79
1794.74
1782.7
1768.67
1752.67
1734.73
1714.9
1693.22
1669.76
1644.57
1617.7
1589.18
1559.08
1527.59
1494.9
1459.79
1397.01
497.784
4.56488
1.57604
1.31922
1.30008
1.28847
1.27877
1.26988
1.25991
1.24869
1.23659
1.22395
1.21095
1.19766
1.1841
1.17017
1.15574
1.14066
1.1249
1.10852
1.09146
1853.41
1854.38
1854.82
1853.85
1851.36
1847.27
1841.49
1833.92
1824.5
1813.2
1800.01
1784.96
1768.07
1749.39
1728.97
1706.86
1683.12
1657.8
1630.94
1602.6
1572.97
1542.2
1508.87
1418.76
446.113
3.95015
1.47808
1.25946
1.24058
1.22852
1.21898
1.2108
1.20198
1.19218
1.18165
1.17066
1.15934
1.14776
1.13593
1.12374
1.11104
1.09767
1.08365
1.06904
1.05381
1882.23
1883.12
1883.57
1882.7
1880.43
1876.66
1871.29
1864.24
1855.45
1844.88
1832.53
1818.42
1802.58
1785.05
1765.87
1745.1
1722.79
1698.99
1673.75
1647.13
1619.32
1590.42
1558.89
1438.3
394.377
3.39972
1.36973
1.19722
1.1811
1.16897
1.15964
1.15211
1.14435
1.1359
1.12689
1.11751
1.10785
1.09794
1.08778
1.07729
1.06628
1.05463
1.04234
1.0295
1.01607
1912.26
1913.07
1913.53
1912.76
1910.69
1907.24
1902.29
1895.75
1887.58
1877.74
1866.22
1853.04
1838.23
1821.84
1803.9
1784.45
1763.56
1741.26
1717.6
1692.66
1666.63
1639.59
1609.83
1452.1
343.737
2.85033
1.26622
1.13466
1.12137
1.10937
1.1004
1.09356
1.08684
1.07971
1.07222
1.06444
1.05641
1.04815
1.03964
1.0308
1.02145
1.0115
1.00095
0.989867
0.978199
1943.47
1944.22
1944.67
1944
1942.14
1938.99
1934.44
1928.42
1920.87
1911.75
1901.05
1888.8
1875.02
1859.75
1843.03
1824.91
1805.41
1784.59
1762.49
1739.21
1714.94
1689.72
1661.72
1459.47
294.814
2.36325
1.17249
1.07296
1.06132
1.04947
1.04099
1.0349
1.02927
1.02349
1.01753
1.01138
1.005
0.998386
0.991508
0.984283
0.976577
0.968302
0.959472
0.95012
0.940188
1975.85
1976.52
1976.97
1976.4
1974.73
1971.88
1967.74
1962.23
1955.29
1946.88
1937
1925.67
1912.91
1898.76
1883.25
1866.43
1848.32
1828.96
1808.42
1786.78
1764.25
1740.81
1714.53
1459.83
247.99
1.99404
1.08658
1.01142
1.00047
0.988893
0.981065
0.97588
0.971429
0.967083
0.962709
0.958227
0.95355
0.948618
0.943387
0.937781
0.9317
0.925086
0.917945
0.910289
0.902055
2009.37
2009.96
2010.4
2009.92
2008.45
2005.89
2002.16
1997.15
1990.81
1983.11
1974.04
1963.63
1951.88
1938.83
1924.52
1908.98
1892.24
1874.35
1855.34
1835.34
1814.52
1792.82
1768.22
1452.4
203.697
1.69561
1.00516
0.948648
0.938059
0.927077
0.920234
0.916209
0.913139
0.910363
0.907679
0.904946
0.902033
0.898839
0.895297
0.891338
0.886892
0.881926
0.876446
0.870447
0.863867
2043.98
2044.49
2044.92
2044.53
2043.25
2040.99
2037.65
2033.14
2027.4
2020.4
2012.14
2002.63
1991.88
1979.92
1966.8
1952.53
1937.16
1920.71
1903.24
1884.85
1865.7
1845.7
1822.75
1436.21
162.511
1.44423
0.926159
0.883505
0.87331
0.863514
0.858171
0.855704
0.854312
0.853316
0.852463
0.851575
0.850496
0.8491
0.847297
0.845022
0.84223
0.83891
0.835064
0.830681
0.825709
2079.66
2080.09
2080.51
2080.2
2079.11
2077.14
2074.2
2070.19
2065.05
2058.74
2051.27
2042.64
2032.87
2022
2010.05
1997.04
1983.02
1968.01
1952.06
1935.25
1917.76
1899.44
1878.13
1410.32
125.009
1.22532
0.847195
0.81476
0.805478
0.79778
0.794657
0.794279
0.794953
0.796008
0.797164
0.798237
0.799066
0.799519
0.799494
0.798933
0.79781
0.796127
0.793889
0.791083
0.787668
2116.36
2116.7
2117.12
2116.9
2115.99
2114.32
2111.77
2108.26
2103.72
2098.1
2091.41
2083.65
2074.84
2065.02
2054.22
2042.47
2029.79
2016.2
2001.74
1986.51
1970.66
1954.02
1934.38
1373.78
91.6567
1.02202
0.764258
0.740856
0.733816
0.729522
0.729542
0.731893
0.73508
0.738497
0.741874
0.745044
0.747868
0.75022
0.752006
0.753178
0.753726
0.753664
0.753001
0.751729
0.749821
2154.05
2154.31
2154.71
2154.58
2153.87
2152.5
2150.34
2147.32
2143.37
2138.44
2132.53
2125.63
2117.77
2108.99
2099.32
2088.79
2077.42
2065.24
2052.27
2038.6
2024.4
2009.45
1991.51
1325.77
62.8592
0.813271
0.671682
0.660383
0.657962
0.658686
0.662871
0.668613
0.674757
0.680841
0.686654
0.692069
0.696983
0.701293
0.704922
0.707839
0.710053
0.711587
0.712461
0.712678
0.712229
2192.7
2192.87
2193.26
2193.22
2192.72
2191.64
2189.88
2187.34
2183.97
2179.72
2174.58
2168.55
2161.65
2153.9
2145.34
2136.02
2125.93
2115.13
2103.62
2091.52
2078.96
2065.72
2049.53
1265.53
39.0787
0.589676
0.565808
0.573603
0.578861
0.586052
0.595196
0.604816
0.614234
0.623207
0.631618
0.639401
0.64649
0.65281
0.658309
0.66298
0.666847
0.669949
0.67232
0.67398
0.674936
2232.21
2232.31
2232.74
2232.83
2232.54
2231.76
2230.38
2228.32
2225.51
2221.93
2217.56
2212.39
2206.43
2199.71
2192.26
2184.12
2175.31
2165.87
2155.83
2145.28
2134.36
2122.8
2108.39
1191.96
20.8863
0.383088
0.453368
0.484679
0.499571
0.513513
0.527648
0.54119
0.553945
0.565873
0.576952
0.587169
0.596485
0.604848
0.612232
0.618652
0.624154
0.628795
0.632632
0.635696
0.638002
2272.23
2272.18
2272.84
2273.23
2273.25
2272.83
2271.85
2270.26
2268.01
2265.07
2261.44
2257.11
2252.09
2246.39
2240.05
2233.08
2225.54
2217.45
2208.86
2199.86
2190.56
2180.68
2168.04
1103.89
8.97361
0.251136
0.354643
0.401935
0.424371
0.443339
0.461467
0.478438
0.494305
0.509109
0.522849
0.535514
0.547073
0.557489
0.566756
0.574912
0.582027
0.588182
0.593464
0.597919
0.601524
2313.05
2312.48
2313.31
2314.15
2314.67
2314.71
2314.21
2313.14
2311.46
2309.16
2306.24
2302.71
2298.6
2293.91
2288.66
2282.87
2276.59
2269.85
2262.71
2255.24
2247.54
2239.35
2228.46
999.956
3.08394
0.203567
0.286383
0.33194
0.355754
0.376708
0.397273
0.416944
0.435579
0.453114
0.469465
0.484565
0.498361
0.51082
0.521953
0.531824
0.540526
0.548165
0.554869
0.560679
0.565478
2354.43
2353.14
2354.18
2355.44
2356.49
2357.11
2357.19
2356.71
2355.64
2354
2351.79
2349.06
2345.83
2342.12
2337.94
2333.32
2328.29
2322.88
2317.17
2311.22
2305.12
2298.66
2289.66
877.696
0.811765
0.200884
0.242189
0.272222
0.292102
0.312817
0.334765
0.356652
0.377848
0.398012
0.416918
0.434419
0.450429
0.464915
0.477898
0.489459
0.49972
0.508806
0.516853
0.523866
0.52991
2395.11
2391.5
2393.93
2396.59
2398.41
2399.64
2400.33
2400.46
2400.03
2399.06
2397.59
2395.68
2393.34
2390.58
2387.43
2383.92
2380.1
2375.99
2371.66
2367.17
)
;

boundaryField
{
    leftWall
    {
        type            fixedFluxPressure;
        gradient        uniform 0;
        value           nonuniform List<scalar> 
44
(
1546.65
1545.33
1544.32
1543.5
1543
1543
1543.65
1545.09
1547.44
1550.77
1555.21
1560.83
1567.67
1575.76
1585.12
1595.77
1607.72
1620.97
1635.55
1651.44
1668.66
1687.2
1707.06
1728.23
1750.7
1774.46
1799.51
1825.83
1853.41
1882.23
1912.26
1943.47
1975.85
2009.37
2043.98
2079.66
2116.36
2154.05
2192.7
2232.21
2272.23
2313.05
2354.43
2395.11
)
;
    }
    rightWall
    {
        type            fixedFluxPressure;
        gradient        nonuniform 0();
        value           nonuniform 0();
    }
    lowerWall
    {
        type            fixedFluxPressure;
        gradient        uniform 0;
        value           nonuniform List<scalar> 
44
(
1546.65
1549.1
1549.63
1547.49
1541.91
1532.68
1519.83
1503.53
1483.91
1461.09
1435.13
1406.07
1373.87
1338.45
1299.65
1257.25
1210.93
1160.27
1104.74
1043.64
976.207
901.611
819.169
728.681
631.049
529.041
427.812
335.722
259.307
196.277
143.554
102.002
74.6913
55.4206
42.0086
12.6576
4.85347
3.17489
2.68624
2.53786
2.47285
2.43602
2.41185
2.39658
)
;
    }
    atmosphere
    {
        type            totalPressure;
        rho             rho;
        psi             none;
        gamma           1;
        p0              nonuniform 0();
        value           nonuniform 0();
    }
    defaultFaces
    {
        type            empty;
    }
    procBoundary0to1
    {
        type            processor;
        value           nonuniform List<scalar> 
44
(
2.38728
2.3862
2.36582
2.3285
2.27898
2.21883
2.14807
2.06537
1.96805
1.85436
1.71148
1.62345
1.59643
1.56956
1.53678
1.50527
1.4744
1.4427
1.41054
1.37834
1.37834
1.30988
1.27888
1.2465
1.21328
1.17923
1.14446
1.10919
1.0736
1.03784
1.00192
0.965831
0.929562
0.893131
0.856602
0.82006
0.783588
0.747253
0.711111
0.675218
0.639617
0.604322
0.569511
0.535381
)
;
    }
    procBoundary0to2
    {
        type            processor;
        value           nonuniform List<scalar> 
46
(
2362.71
2358.09
2351.36
734.477
0.594602
0.189217
0.197172
0.212569
0.228735
0.249423
0.272902
0.297152
0.321025
0.343864
0.365298
0.385146
0.403327
0.419815
0.434646
0.447905
0.459714
0.470201
0.479464
0.48774
0.495226
2436.79
2425.26
2428.63
2434.85
2438.79
2441.27
2442.79
2443.64
2443.89
2443.62
2442.89
2441.78
2440.31
2438.48
2436.32
2433.87
2431.18
2428.31
2425.32
2362.71
2422.27
)
;
    }
}


// ************************************************************************* //
