/*--------------------------------*- C++ -*----------------------------------*\
| =========                 |                                                 |
| \\      /  F ield         | OpenFOAM: The Open Source CFD Toolbox           |
|  \\    /   O peration     | Version:  5.0                                   |
|   \\  /    A nd           | Web:      www.OpenFOAM.org                      |
|    \\/     M anipulation  |                                                 |
\*---------------------------------------------------------------------------*/
FoamFile
{
    version     2.0;
    format      ascii;
    class       volVectorField;
    location    "0.1";
    object      U;
}
// * * * * * * * * * * * * * * * * * * * * * * * * * * * * * * * * * * * * * //

dimensions      [0 1 -1 0 0 0 0];

internalField   nonuniform List<vector> 
1935
(
(0.00122069 -0.00208464 0)
(0.0185183 -0.0130305 0)
(0.0525538 -0.0192702 0)
(0.0908589 -0.021342 0)
(0.130473 -0.0215615 0)
(0.169941 -0.0210663 0)
(0.208511 -0.0203117 0)
(0.245933 -0.0195138 0)
(0.282255 -0.0187895 0)
(0.31767 -0.0182003 0)
(0.352449 -0.0177753 0)
(0.386898 -0.0175262 0)
(0.421347 -0.0174569 0)
(0.456139 -0.0175696 0)
(0.491636 -0.0178693 0)
(0.528227 -0.0183669 0)
(0.56634 -0.0190834 0)
(0.60646 -0.0200481 0)
(0.649128 -0.0212992 0)
(0.694946 -0.0228813 0)
(0.744533 -0.0247997 0)
(0.798357 -0.0269857 0)
(0.856559 -0.0292772 0)
(0.918633 -0.0313422 0)
(0.982994 -0.032547 0)
(1.04615 -0.0318805 0)
(1.10231 -0.0277042 0)
(1.14431 -0.016554 0)
(1.1543 0.00118546 0)
(1.1289 0.0176699 0)
(1.08352 0.0244681 0)
(1.03548 0.0166699 0)
(0.997059 -0.00745585 0)
(0.976892 -0.0478036 0)
(0.993213 -0.0973295 0)
(1.05969 -0.155498 0)
(1.19633 -0.150388 0)
(1.13289 -0.00887773 0)
(0.926684 0.061104 0)
(0.70368 0.0750558 0)
(0.554167 0.0506335 0)
(0.431044 0.0471161 0)
(0.314408 0.0485071 0)
(0.199595 0.0486658 0)
(0.0129619 -0.0122086 0)
(0.0392631 -0.0321406 0)
(0.072675 -0.0414659 0)
(0.107295 -0.0446256 0)
(0.141776 -0.0450467 0)
(0.175775 -0.0443216 0)
(0.209078 -0.0431592 0)
(0.241635 -0.0419308 0)
(0.273539 -0.0408464 0)
(0.304965 -0.0400224 0)
(0.33613 -0.0395214 0)
(0.367279 -0.0393769 0)
(0.398676 -0.0396105 0)
(0.430606 -0.0402435 0)
(0.463374 -0.0413048 0)
(0.497323 -0.0428365 0)
(0.532834 -0.0448977 0)
(0.570341 -0.0475591 0)
(0.610317 -0.0508909 0)
(0.653256 -0.0549288 0)
(0.699592 -0.0595967 0)
(0.749577 -0.0646142 0)
(0.803052 -0.069373 0)
(0.859126 -0.0727567 0)
(0.915762 -0.0729335 0)
(0.969378 -0.0673092 0)
(1.01456 -0.053019 0)
(1.0452 -0.0282998 0)
(1.06486 0.0022192 0)
(1.07351 0.0273423 0)
(1.0715 0.0387318 0)
(1.06671 0.0381551 0)
(1.06251 0.0325967 0)
(1.05002 0.0167141 0)
(0.999912 -0.0199333 0)
(1.00969 -0.026687 0)
(1.09468 0.0255882 0)
(1.16491 0.13705 0)
(1.07131 0.218235 0)
(0.892933 0.201751 0)
(0.710663 0.169976 0)
(0.54881 0.150058 0)
(0.407817 0.142002 0)
(0.274971 0.134876 0)
(0.0204699 -0.0353272 0)
(0.051583 -0.0573026 0)
(0.0845878 -0.0653095 0)
(0.116369 -0.0677897 0)
(0.146882 -0.0677584 0)
(0.176576 -0.0666145 0)
(0.205632 -0.0650697 0)
(0.234172 -0.0635293 0)
(0.262348 -0.0622347 0)
(0.290338 -0.0613267 0)
(0.318337 -0.0608858 0)
(0.346552 -0.0609604 0)
(0.375206 -0.061587 0)
(0.404538 -0.062804 0)
(0.434812 -0.0646626 0)
(0.46632 -0.0672317 0)
(0.499388 -0.0705993 0)
(0.534375 -0.0748614 0)
(0.571656 -0.0800947 0)
(0.61158 -0.0862997 0)
(0.654393 -0.0932954 0)
(0.700117 -0.100573 0)
(0.748347 -0.107105 0)
(0.797985 -0.111111 0)
(0.846962 -0.109848 0)
(0.891967 -0.0996822 0)
(0.9284 -0.0775656 0)
(0.952099 -0.0449626 0)
(0.964555 -0.0097367 0)
(0.972366 0.0180151 0)
(0.982758 0.0330733 0)
(0.996475 0.0365233 0)
(1.00924 0.0325648 0)
(1.00089 0.0270088 0)
(0.95915 -0.0289653 0)
(0.889425 -0.122724 0)
(0.862531 -0.0328311 0)
(0.845522 0.136321 0)
(0.804569 0.279537 0)
(0.713064 0.319917 0)
(0.59859 0.282837 0)
(0.487925 0.251942 0)
(0.37946 0.235294 0)
(0.27078 0.223742 0)
(0.0236271 -0.0629675 0)
(0.0576512 -0.084867 0)
(0.090658 -0.0896599 0)
(0.120658 -0.0903468 0)
(0.14843 -0.0892821 0)
(0.174958 -0.0874522 0)
(0.200743 -0.085436 0)
(0.226076 -0.0835943 0)
(0.25119 -0.0821523 0)
(0.276292 -0.0812458 0)
(0.301576 -0.0809555 0)
(0.327232 -0.0813337 0)
(0.353456 -0.0824249 0)
(0.380452 -0.0842801 0)
(0.408441 -0.0869674 0)
(0.437666 -0.0905759 0)
(0.468389 -0.0952121 0)
(0.500887 -0.100982 0)
(0.535427 -0.107948 0)
(0.572224 -0.116054 0)
(0.611364 -0.124989 0)
(0.652703 -0.134007 0)
(0.695707 -0.141687 0)
(0.739269 -0.145669 0)
(0.781567 -0.142458 0)
(0.819824 -0.12765 0)
(0.850128 -0.0982927 0)
(0.869843 -0.0581273 0)
(0.882704 -0.0182042 0)
(0.896572 0.0122571 0)
(0.913809 0.0293791 0)
(0.930116 0.0302392 0)
(0.926761 0.0233113 0)
(0.913351 0.0354342 0)
(0.876984 0.0181114 0)
(0.795598 -0.046247 0)
(0.686491 -0.0079521 0)
(0.603062 0.160254 0)
(0.552365 0.314038 0)
(0.516441 0.364873 0)
(0.474146 0.347018 0)
(0.411831 0.320638 0)
(0.336939 0.307062 0)
(0.252371 0.298592 0)
(0.0245414 -0.0925505 0)
(0.0597762 -0.112931 0)
(0.092606 -0.113377 0)
(0.121411 -0.111516 0)
(0.147317 -0.109002 0)
(0.171571 -0.106309 0)
(0.19489 -0.103786 0)
(0.217707 -0.101688 0)
(0.240338 -0.100182 0)
(0.263031 -0.0993756 0)
(0.285993 -0.0993327 0)
(0.309411 -0.1001 0)
(0.333461 -0.101722 0)
(0.358319 -0.104257 0)
(0.38417 -0.107784 0)
(0.411204 -0.112401 0)
(0.439621 -0.118224 0)
(0.469613 -0.125351 0)
(0.501346 -0.133817 0)
(0.534912 -0.14349 0)
(0.570275 -0.153928 0)
(0.607185 -0.164164 0)
(0.645072 -0.172451 0)
(0.682949 -0.175992 0)
(0.719404 -0.170742 0)
(0.752122 -0.151779 0)
(0.777406 -0.116534 0)
(0.794921 -0.0704613 0)
(0.811284 -0.0258016 0)
(0.829886 0.00679055 0)
(0.845319 0.0201892 0)
(0.839712 0.0114338 0)
(0.825801 0.0291606 0)
(0.793943 0.0598797 0)
(0.735948 0.0652281 0)
(0.640958 0.0535686 0)
(0.519274 0.106517 0)
(0.431191 0.225902 0)
(0.400294 0.333584 0)
(0.398517 0.376154 0)
(0.388267 0.372333 0)
(0.355444 0.36175 0)
(0.30361 0.358845 0)
(0.236907 0.359221 0)
(0.024404 -0.122585 0)
(0.059637 -0.140801 0)
(0.091929 -0.136473 0)
(0.119783 -0.131619 0)
(0.144365 -0.12732 0)
(0.16698 -0.123563 0)
(0.188459 -0.120441 0)
(0.209333 -0.118062 0)
(0.229983 -0.11651 0)
(0.250696 -0.115841 0)
(0.271698 -0.116087 0)
(0.293177 -0.117279 0)
(0.315299 -0.119453 0)
(0.338218 -0.122665 0)
(0.362081 -0.126994 0)
(0.387036 -0.132541 0)
(0.413217 -0.139415 0)
(0.44074 -0.147696 0)
(0.469678 -0.157376 0)
(0.500022 -0.168247 0)
(0.53164 -0.179741 0)
(0.564219 -0.190714 0)
(0.597208 -0.199182 0)
(0.629806 -0.202056 0)
(0.661046 -0.194928 0)
(0.688668 -0.172519 0)
(0.709391 -0.132491 0)
(0.72658 -0.0814401 0)
(0.745322 -0.0329135 0)
(0.759193 -0.00133447 0)
(0.752139 -0.000969525 0)
(0.74421 0.0226046 0)
(0.714879 0.0609872 0)
(0.662498 0.102882 0)
(0.597142 0.122196 0)
(0.511509 0.13348 0)
(0.416575 0.180988 0)
(0.352169 0.262604 0)
(0.334784 0.336463 0)
(0.340564 0.372675 0)
(0.339938 0.382402 0)
(0.320434 0.387523 0)
(0.283271 0.397583 0)
(0.229179 0.410123 0)
(0.0237268 -0.152232 0)
(0.0582107 -0.168021 0)
(0.0896603 -0.158959 0)
(0.116655 -0.150958 0)
(0.140242 -0.144664 0)
(0.161659 -0.139675 0)
(0.181768 -0.13584 0)
(0.201155 -0.133115 0)
(0.220244 -0.131486 0)
(0.23935 -0.130941 0)
(0.258718 -0.131474 0)
(0.278538 -0.133085 0)
(0.29897 -0.135793 0)
(0.320147 -0.139644 0)
(0.34219 -0.144709 0)
(0.365201 -0.151079 0)
(0.38926 -0.158846 0)
(0.414415 -0.168062 0)
(0.440658 -0.178669 0)
(0.467899 -0.190382 0)
(0.495934 -0.202528 0)
(0.524419 -0.213829 0)
(0.552848 -0.222149 0)
(0.580625 -0.224233 0)
(0.607146 -0.215447 0)
(0.629786 -0.190283 0)
(0.647142 -0.146624 0)
(0.664547 -0.0920436 0)
(0.681132 -0.0392776 0)
(0.684591 -0.0179216 0)
(0.681552 0.00836444 0)
(0.656522 0.048476 0)
(0.609012 0.102301 0)
(0.552544 0.147706 0)
(0.494482 0.173396 0)
(0.428997 0.192959 0)
(0.363809 0.230764 0)
(0.322123 0.286026 0)
(0.311115 0.336675 0)
(0.315152 0.36885 0)
(0.315077 0.387738 0)
(0.302327 0.405288 0)
(0.275182 0.427682 0)
(0.231049 0.454226 0)
(0.0227732 -0.18101 0)
(0.056084 -0.194285 0)
(0.0864926 -0.180777 0)
(0.112661 -0.169668 0)
(0.135452 -0.161291 0)
(0.155973 -0.154954 0)
(0.175061 -0.150305 0)
(0.193316 -0.147158 0)
(0.211184 -0.145396 0)
(0.229 -0.144937 0)
(0.247019 -0.145722 0)
(0.265434 -0.147717 0)
(0.284398 -0.150916 0)
(0.304031 -0.155346 0)
(0.324427 -0.16106 0)
(0.345652 -0.168132 0)
(0.367739 -0.176628 0)
(0.390678 -0.186563 0)
(0.414397 -0.197825 0)
(0.438743 -0.210059 0)
(0.463467 -0.222506 0)
(0.488213 -0.233797 0)
(0.512535 -0.241717 0)
(0.536052 -0.242945 0)
(0.558388 -0.232726 0)
(0.576507 -0.205612 0)
(0.592047 -0.159788 0)
(0.608824 -0.102992 0)
(0.624001 -0.0488313 0)
(0.639192 -0.0163084 0)
(0.621211 0.027095 0)
(0.580108 0.0851767 0)
(0.526619 0.142927 0)
(0.475776 0.187043 0)
(0.428803 0.213711 0)
(0.380751 0.234563 0)
(0.337497 0.264106 0)
(0.310642 0.302181 0)
(0.302582 0.338756 0)
(0.303978 0.367457 0)
(0.303864 0.39145 0)
(0.296165 0.417598 0)
(0.277906 0.450719 0)
(0.243893 0.492055 0)
(0.021704 -0.208667 0)
(0.053628 -0.21944 0)
(0.0828912 -0.201874 0)
(0.108249 -0.18781 0)
(0.130365 -0.17735 0)
(0.150192 -0.169605 0)
(0.16851 -0.164067 0)
(0.185905 -0.160425 0)
(0.202825 -0.158466 0)
(0.219613 -0.158036 0)
(0.236525 -0.159021 0)
(0.25376 -0.161346 0)
(0.271462 -0.164976 0)
(0.289739 -0.169909 0)
(0.308664 -0.176176 0)
(0.328274 -0.183825 0)
(0.348562 -0.192889 0)
(0.369474 -0.203341 0)
(0.39089 -0.215017 0)
(0.412616 -0.227495 0)
(0.434376 -0.239953 0)
(0.455825 -0.250972 0)
(0.476592 -0.258316 0)
(0.496519 -0.258686 0)
(0.515324 -0.247336 0)
(0.529984 -0.219148 0)
(0.54467 -0.17295 0)
(0.560851 -0.114274 0)
(0.593158 -0.0590707 0)
(0.600607 -0.00953497 0)
(0.568662 0.0540829 0)
(0.518876 0.122694 0)
(0.468328 0.180657 0)
(0.425269 0.220232 0)
(0.387469 0.244373 0)
(0.352349 0.263389 0)
(0.322992 0.286087 0)
(0.30494 0.313404 0)
(0.298726 0.341145 0)
(0.299239 0.366961 0)
(0.300367 0.393176 0)
(0.298167 0.424586 0)
(0.289848 0.465915 0)
(0.269153 0.521163 0)
(0.0206211 -0.2351 0)
(0.0510786 -0.243438 0)
(0.0791598 -0.222232 0)
(0.103719 -0.205424 0)
(0.125233 -0.192943 0)
(0.144502 -0.183773 0)
(0.162229 -0.177295 0)
(0.178969 -0.173096 0)
(0.195155 -0.170877 0)
(0.211126 -0.170413 0)
(0.227139 -0.171536 0)
(0.243387 -0.174128 0)
(0.260012 -0.178116 0)
(0.27711 -0.18347 0)
(0.294737 -0.190191 0)
(0.312905 -0.198294 0)
(0.331581 -0.207776 0)
(0.350677 -0.218567 0)
(0.370042 -0.230448 0)
(0.389458 -0.242947 0)
(0.408645 -0.255195 0)
(0.427287 -0.265756 0)
(0.4451 -0.272432 0)
(0.462153 -0.272023 0)
(0.478085 -0.259933 0)
(0.49036 -0.231811 0)
(0.504889 -0.187098 0)
(0.521996 -0.131685 0)
(0.569124 -0.0676614 0)
(0.561143 0.00316436 0)
(0.519695 0.085138 0)
(0.470376 0.1595 0)
(0.426666 0.213482 0)
(0.390553 0.247454 0)
(0.360268 0.268164 0)
(0.334005 0.28394 0)
(0.313292 0.301095 0)
(0.300661 0.321166 0)
(0.296203 0.342902 0)
(0.297313 0.365825 0)
(0.30091 0.391974 0)
(0.305023 0.425269 0)
(0.308457 0.470817 0)
(0.306502 0.535724 0)
(0.0195658 -0.260501 0)
(0.0485501 -0.266497 0)
(0.0754454 -0.242031 0)
(0.0992109 -0.222694 0)
(0.120162 -0.208275 0)
(0.138955 -0.197688 0)
(0.156212 -0.190237 0)
(0.172439 -0.185428 0)
(0.188048 -0.182888 0)
(0.203365 -0.182327 0)
(0.21864 -0.183523 0)
(0.234062 -0.186313 0)
(0.249764 -0.190588 0)
(0.265833 -0.196281 0)
(0.282313 -0.203361 0)
(0.299198 -0.211806 0)
(0.316436 -0.221576 0)
(0.333918 -0.232553 0)
(0.351475 -0.244474 0)
(0.368886 -0.256823 0)
(0.38588 -0.268704 0)
(0.402186 -0.278694 0)
(0.417616 -0.284676 0)
(0.432454 -0.283624 0)
(0.446107 -0.271289 0)
(0.456777 -0.244149 0)
(0.471422 -0.201955 0)
(0.491411 -0.151225 0)
(0.536149 -0.0743213 0)
(0.517502 0.0207612 0)
(0.473466 0.117375 0)
(0.430723 0.192382 0)
(0.394342 0.241177 0)
(0.364728 0.270052 0)
(0.340467 0.286982 0)
(0.320468 0.299285 0)
(0.305378 0.311885 0)
(0.296413 0.326635 0)
(0.293698 0.343631 0)
(0.29617 0.363246 0)
(0.302727 0.387236 0)
(0.313294 0.418742 0)
(0.329522 0.462416 0)
(0.354336 0.525985 0)
(0.018547 -0.284986 0)
(0.0460916 -0.288724 0)
(0.0718155 -0.261337 0)
(0.0947846 -0.23968 0)
(0.115182 -0.223423 0)
(0.13354 -0.211448 0)
(0.150394 -0.203007 0)
(0.166202 -0.197547 0)
(0.181343 -0.19463 0)
(0.196124 -0.193909 0)
(0.210784 -0.195113 0)
(0.225501 -0.198032 0)
(0.240404 -0.202519 0)
(0.255571 -0.20847 0)
(0.271035 -0.215816 0)
(0.286778 -0.224501 0)
(0.302737 -0.234442 0)
(0.318791 -0.24548 0)
(0.33477 -0.257309 0)
(0.350458 -0.269381 0)
(0.365612 -0.280794 0)
(0.380012 -0.290161 0)
(0.393572 -0.29548 0)
(0.406744 -0.29395 0)
(0.418537 -0.281827 0)
(0.428187 -0.256275 0)
(0.44241 -0.21701 0)
(0.466083 -0.167681 0)
(0.499662 -0.0754749 0)
(0.472452 0.0415408 0)
(0.432005 0.147002 0)
(0.397007 0.220143 0)
(0.367672 0.264127 0)
(0.343785 0.288523 0)
(0.324494 0.301971 0)
(0.309096 0.311007 0)
(0.297895 0.319808 0)
(0.291583 0.330294 0)
(0.290439 0.343127 0)
(0.294312 0.358949 0)
(0.303281 0.379066 0)
(0.318523 0.40551 0)
(0.343349 0.441012 0)
(0.384046 0.489383 0)
(0.0175803 -0.308465 0)
(0.0437433 -0.310049 0)
(0.0683279 -0.280065 0)
(0.0905018 -0.256306 0)
(0.110345 -0.238335 0)
(0.128282 -0.225025 0)
(0.144772 -0.215601 0)
(0.160219 -0.209464 0)
(0.174967 -0.206126 0)
(0.189298 -0.205191 0)
(0.203437 -0.206339 0)
(0.217552 -0.209319 0)
(0.231762 -0.213943 0)
(0.246138 -0.220071 0)
(0.260705 -0.227598 0)
(0.275441 -0.236428 0)
(0.290273 -0.24644 0)
(0.305082 -0.257437 0)
(0.319703 -0.269076 0)
(0.333937 -0.28079 0)
(0.347575 -0.291684 0)
(0.360453 -0.300429 0)
(0.372579 -0.305155 0)
(0.384501 -0.303312 0)
(0.394705 -0.29174 0)
(0.403804 -0.268171 0)
(0.416917 -0.232101 0)
(0.445606 -0.180027 0)
(0.463107 -0.0707168 0)
(0.430767 0.0630709 0)
(0.396066 0.172486 0)
(0.368181 0.242765 0)
(0.344882 0.282602 0)
(0.325883 0.303389 0)
(0.310653 0.313851 0)
(0.298739 0.320025 0)
(0.290351 0.325628 0)
(0.285991 0.332529 0)
(0.286067 0.341574 0)
(0.290898 0.353388 0)
(0.301099 0.368766 0)
(0.318175 0.388614 0)
(0.34518 0.41351 0)
(0.387037 0.442715 0)
(0.0166705 -0.330977 0)
(0.0415186 -0.330505 0)
(0.0650011 -0.298217 0)
(0.086383 -0.272561 0)
(0.105664 -0.253005 0)
(0.123179 -0.238426 0)
(0.13932 -0.22804 0)
(0.154438 -0.221215 0)
(0.168839 -0.217425 0)
(0.18278 -0.216227 0)
(0.196468 -0.217262 0)
(0.210059 -0.220238 0)
(0.223662 -0.22493 0)
(0.237343 -0.23116 0)
(0.25112 -0.238788 0)
(0.264966 -0.247681 0)
(0.278812 -0.257681 0)
(0.292541 -0.268556 0)
(0.306001 -0.279938 0)
(0.319017 -0.291246 0)
(0.331416 -0.301609 0)
(0.343085 -0.309764 0)
(0.354116 -0.313979 0)
(0.365055 -0.311949 0)
(0.373884 -0.30111 0)
(0.382631 -0.27953 0)
(0.394172 -0.247179 0)
(0.426713 -0.187182 0)
(0.427725 -0.0607322 0)
(0.394092 0.0839754 0)
(0.365437 0.193883 0)
(0.343383 0.260893 0)
(0.32499 0.297319 0)
(0.310038 0.31524 0)
(0.298084 0.32324 0)
(0.288856 0.326991 0)
(0.282551 0.329889 0)
(0.279606 0.333715 0)
(0.280493 0.339333 0)
(0.285724 0.347248 0)
(0.296064 0.357839 0)
(0.312884 0.371221 0)
(0.33848 0.386719 0)
(0.376147 0.401701 0)
(0.0158179 -0.352564 0)
(0.0394193 -0.350129 0)
(0.0618389 -0.315796 0)
(0.0824331 -0.288432 0)
(0.10114 -0.267418 0)
(0.118224 -0.251647 0)
(0.134014 -0.240331 0)
(0.148814 -0.232819 0)
(0.162894 -0.228552 0)
(0.176483 -0.227053 0)
(0.189769 -0.227924 0)
(0.202895 -0.230838 0)
(0.215961 -0.235533 0)
(0.229024 -0.241798 0)
(0.242101 -0.249456 0)
(0.255165 -0.258341 0)
(0.268147 -0.268262 0)
(0.280941 -0.278956 0)
(0.293412 -0.290034 0)
(0.305408 -0.300916 0)
(0.316793 -0.310755 0)
(0.327497 -0.318367 0)
(0.337678 -0.322152 0)
(0.347797 -0.320028 0)
(0.355433 -0.309914 0)
(0.364005 -0.290176 0)
(0.374213 -0.26127 0)
(0.407533 -0.189063 0)
(0.395123 -0.0473974 0)
(0.362851 0.103667 0)
(0.339369 0.211642 0)
(0.321863 0.275367 0)
(0.307388 0.308975 0)
(0.295689 0.32462 0)
(0.286351 0.330634 0)
(0.279204 0.332372 0)
(0.274451 0.332997 0)
(0.272495 0.334188 0)
(0.273819 0.336767 0)
(0.278975 0.341114 0)
(0.288701 0.34732 0)
(0.304119 0.355041 0)
(0.326863 0.363059 0)
(0.358972 0.368351 0)
(0.0150193 -0.373272 0)
(0.0374403 -0.368956 0)
(0.0588348 -0.332805 0)
(0.0786473 -0.303907 0)
(0.0967687 -0.281558 0)
(0.113405 -0.264672 0)
(0.128833 -0.252467 0)
(0.143313 -0.244278 0)
(0.157081 -0.239521 0)
(0.170339 -0.23769 0)
(0.183256 -0.238355 0)
(0.195959 -0.241156 0)
(0.208541 -0.245798 0)
(0.221052 -0.252037 0)
(0.233505 -0.259665 0)
(0.245875 -0.268482 0)
(0.2581 -0.278269 0)
(0.270084 -0.288738 0)
(0.281709 -0.299485 0)
(0.292848 -0.309934 0)
(0.303393 -0.319271 0)
(0.313312 -0.326385 0)
(0.322805 -0.329802 0)
(0.332167 -0.327631 0)
(0.338777 -0.318199 0)
(0.347185 -0.300012 0)
(0.356437 -0.274026 0)
(0.387007 -0.186666 0)
(0.366709 -0.0316227 0)
(0.336371 0.121755 0)
(0.317042 0.226444 0)
(0.302992 0.28694 0)
(0.291616 0.318178 0)
(0.282491 0.33201 0)
(0.275216 0.336438 0)
(0.269677 0.336533 0)
(0.266073 0.335268 0)
(0.264774 0.33423 0)
(0.266235 0.33418 0)
(0.270972 0.335399 0)
(0.279614 0.337796 0)
(0.293013 0.34079 0)
(0.312233 0.342977 0)
(0.33821 0.341464 0)
(0.0142697 -0.393144 0)
(0.0355712 -0.387017 0)
(0.0559769 -0.349249 0)
(0.0750151 -0.318974 0)
(0.0925396 -0.295406 0)
(0.10871 -0.277485 0)
(0.123759 -0.264435 0)
(0.137909 -0.255586 0)
(0.151362 -0.250334 0)
(0.164298 -0.24815 0)
(0.176864 -0.248575 0)
(0.189175 -0.251219 0)
(0.201312 -0.255759 0)
(0.213322 -0.26192 0)
(0.225215 -0.269465 0)
(0.236968 -0.278166 0)
(0.248525 -0.287777 0)
(0.259802 -0.297989 0)
(0.270699 -0.308389 0)
(0.281109 -0.318407 0)
(0.29095 -0.327265 0)
(0.300213 -0.33392 0)
(0.309122 -0.337008 0)
(0.317767 -0.334796 0)
(0.323481 -0.325902 0)
(0.331591 -0.308763 0)
(0.340109 -0.284465 0)
(0.364962 -0.183364 0)
(0.341225 -0.014897 0)
(0.313527 0.138081 0)
(0.29751 0.238794 0)
(0.286237 0.296224 0)
(0.277296 0.325433 0)
(0.270193 0.337813 0)
(0.264535 0.340988 0)
(0.260232 0.339765 0)
(0.257469 0.336954 0)
(0.256577 0.334059 0)
(0.25796 0.33179 0)
(0.262061 0.330361 0)
(0.269376 0.329586 0)
(0.280503 0.328803 0)
(0.296046 0.326656 0)
(0.316128 0.320721 0)
(0.0135628 -0.412219 0)
(0.0337995 -0.404339 0)
(0.0532503 -0.365134 0)
(0.071523 -0.333621 0)
(0.0884418 -0.308944 0)
(0.104129 -0.290064 0)
(0.11878 -0.276218 0)
(0.132584 -0.266731 0)
(0.145714 -0.260987 0)
(0.158326 -0.258435 0)
(0.17055 -0.258592 0)
(0.182488 -0.261046 0)
(0.194211 -0.265442 0)
(0.20576 -0.271482 0)
(0.217144 -0.2789 0)
(0.228342 -0.287445 0)
(0.239305 -0.296846 0)
(0.249961 -0.306779 0)
(0.260225 -0.316824 0)
(0.270007 -0.326419 0)
(0.279245 -0.33482 0)
(0.287949 -0.341044 0)
(0.296348 -0.343819 0)
(0.304314 -0.341538 0)
(0.309278 -0.333001 0)
(0.317024 -0.316454 0)
(0.324956 -0.292829 0)
(0.344574 -0.176455 0)
(0.318125 0.00215046 0)
(0.293344 0.152639 0)
(0.280154 0.249104 0)
(0.271135 0.303665 0)
(0.26412 0.331141 0)
(0.258605 0.342362 0)
(0.254209 0.34456 0)
(0.250852 0.342296 0)
(0.248698 0.338242 0)
(0.248034 0.333832 0)
(0.249205 0.329736 0)
(0.252572 0.326133 0)
(0.258498 0.322813 0)
(0.267378 0.319133 0)
(0.279506 0.313941 0)
(0.294493 0.30534 0)
(0.0128919 -0.430528 0)
(0.0321122 -0.420948 0)
(0.0506396 -0.380465 0)
(0.068157 -0.347842 0)
(0.0844639 -0.322153 0)
(0.0996523 -0.302388 0)
(0.113887 -0.287795 0)
(0.127326 -0.277698 0)
(0.14012 -0.271469 0)
(0.152403 -0.268541 0)
(0.164288 -0.268412 0)
(0.175864 -0.270646 0)
(0.187193 -0.274866 0)
(0.198312 -0.280749 0)
(0.209228 -0.288005 0)
(0.219922 -0.296361 0)
(0.230352 -0.305528 0)
(0.240456 -0.315166 0)
(0.250162 -0.324852 0)
(0.259395 -0.334034 0)
(0.268109 -0.341996 0)
(0.276325 -0.34781 0)
(0.284271 -0.35028 0)
(0.291598 -0.347898 0)
(0.29597 -0.339571 0)
(0.303337 -0.323306 0)
(0.311044 -0.299607 0)
(0.325843 -0.166625 0)
(0.297214 0.0188862 0)
(0.275309 0.165462 0)
(0.264538 0.25767 0)
(0.257333 0.309613 0)
(0.251846 0.335621 0)
(0.24758 0.345923 0)
(0.244166 0.347371 0)
(0.241533 0.344303 0)
(0.239818 0.339269 0)
(0.239264 0.333647 0)
(0.240159 0.328081 0)
(0.242784 0.322742 0)
(0.247389 0.317438 0)
(0.254235 0.311614 0)
(0.263395 0.304338 0)
(0.274217 0.294133 0)
(0.0122508 -0.4481 0)
(0.0304969 -0.436865 0)
(0.0481301 -0.395248 0)
(0.0649037 -0.361628 0)
(0.0805953 -0.33502 0)
(0.0952721 -0.31444 0)
(0.109072 -0.299148 0)
(0.122131 -0.288468 0)
(0.134574 -0.281766 0)
(0.146519 -0.278461 0)
(0.158062 -0.278033 0)
(0.169282 -0.280026 0)
(0.180233 -0.284044 0)
(0.190945 -0.28974 0)
(0.201424 -0.296807 0)
(0.211656 -0.30495 0)
(0.221602 -0.313862 0)
(0.231209 -0.323196 0)
(0.240417 -0.332522 0)
(0.249163 -0.341301 0)
(0.257412 -0.348841 0)
(0.265194 -0.35426 0)
(0.272732 -0.356428 0)
(0.279456 -0.353913 0)
(0.283374 -0.345677 0)
(0.290313 -0.329484 0)
(0.298021 -0.304891 0)
(0.307905 -0.154124 0)
(0.278042 0.0349694 0)
(0.259015 0.176704 0)
(0.250282 0.264751 0)
(0.244548 0.314344 0)
(0.240282 0.33912 0)
(0.237 0.348705 0)
(0.234352 0.349591 0)
(0.232272 0.345915 0)
(0.230874 0.340127 0)
(0.230361 0.333557 0)
(0.230965 0.326834 0)
(0.232904 0.320139 0)
(0.236344 0.313327 0)
(0.241439 0.305953 0)
(0.248105 0.297246 0)
(0.255999 0.286387 0)
(0.0116343 -0.464954 0)
(0.0289434 -0.452106 0)
(0.0457097 -0.409488 0)
(0.0617514 -0.374974 0)
(0.0768264 -0.347531 0)
(0.0909818 -0.326201 0)
(0.104333 -0.310257 0)
(0.116995 -0.299025 0)
(0.129074 -0.291865 0)
(0.14067 -0.288185 0)
(0.151868 -0.28745 0)
(0.162734 -0.289188 0)
(0.173315 -0.292983 0)
(0.183637 -0.298472 0)
(0.193707 -0.305327 0)
(0.203508 -0.313237 0)
(0.213009 -0.321882 0)
(0.222165 -0.330904 0)
(0.230922 -0.339874 0)
(0.23923 -0.348259 0)
(0.247061 -0.35539 0)
(0.254453 -0.360426 0)
(0.261616 -0.36229 0)
(0.267772 -0.359623 0)
(0.271368 -0.351392 0)
(0.277839 -0.335145 0)
(0.28582 -0.30836 0)
(0.289972 -0.139589 0)
(0.260196 0.0501633 0)
(0.244059 0.186444 0)
(0.237086 0.270542 0)
(0.232566 0.31807 0)
(0.229285 0.341833 0)
(0.226777 0.350869 0)
(0.224724 0.351347 0)
(0.223067 0.347228 0)
(0.221902 0.340874 0)
(0.221393 0.333578 0)
(0.221728 0.325965 0)
(0.223075 0.318234 0)
(0.225537 0.310295 0)
(0.229177 0.301815 0)
(0.234046 0.29217 0)
(0.23929 0.280895 0)
(0.244699 0.267022 0)
(0.0110389 -0.481108 0)
(0.0274439 -0.466688 0)
(0.0433686 -0.42319 0)
(0.0586902 -0.387877 0)
(0.0731496 -0.359675 0)
(0.0867764 -0.337655 0)
(0.0996675 -0.321105 0)
(0.111918 -0.309351 0)
(0.12362 -0.301751 0)
(0.134858 -0.297702 0)
(0.145704 -0.296657 0)
(0.156216 -0.29813 0)
(0.166434 -0.301689 0)
(0.176381 -0.306954 0)
(0.186059 -0.313581 0)
(0.195457 -0.321245 0)
(0.204544 -0.329613 0)
(0.213284 -0.33832 0)
(0.22163 -0.346936 0)
(0.229538 -0.354936 0)
(0.23699 -0.361672 0)
(0.244026 -0.366333 0)
(0.250844 -0.367894 0)
(0.256461 -0.365056 0)
(0.259847 -0.356759 0)
(0.265765 -0.340373 0)
(0.274118 -0.309391 0)
(0.271319 -0.123687 0)
(0.243268 0.0640802 0)
(0.230166 0.194671 0)
(0.224742 0.275178 0)
(0.22124 0.320957 0)
(0.218747 0.343912 0)
(0.216844 0.352544 0)
(0.21525 0.352739 0)
(0.213917 0.34831 0)
(0.212923 0.341544 0)
(0.212404 0.333706 0)
(0.212511 0.325422 0)
(0.213369 0.316915 0)
(0.215049 0.308145 0)
(0.217541 0.298883 0)
(0.220874 0.288686 0)
(0.224649 0.276988 0)
(0.227966 0.2639 0)
(0.0104627 -0.496575 0)
(0.0259931 -0.480624 0)
(0.0410994 -0.436358 0)
(0.0557126 -0.400332 0)
(0.0695585 -0.371443 0)
(0.0826518 -0.34879 0)
(0.095073 -0.331676 0)
(0.106902 -0.319431 0)
(0.118215 -0.311409 0)
(0.129086 -0.307 0)
(0.139575 -0.305647 0)
(0.149732 -0.30685 0)
(0.159592 -0.310163 0)
(0.169172 -0.315193 0)
(0.178475 -0.32158 0)
(0.18749 -0.328988 0)
(0.19619 -0.337073 0)
(0.204542 -0.345464 0)
(0.212507 -0.353731 0)
(0.220048 -0.361357 0)
(0.22715 -0.367708 0)
(0.233863 -0.372003 0)
(0.240361 -0.37326 0)
(0.245471 -0.370243 0)
(0.248755 -0.361842 0)
(0.254064 -0.345288 0)
(0.262834 -0.306753 0)
(0.251902 -0.107282 0)
(0.227221 0.0762647 0)
(0.217238 0.201362 0)
(0.213161 0.278778 0)
(0.210482 0.323151 0)
(0.208601 0.34549 0)
(0.207154 0.353839 0)
(0.205904 0.353851 0)
(0.204814 0.349216 0)
(0.203948 0.34216 0)
(0.203417 0.333927 0)
(0.203341 0.325146 0)
(0.203816 0.316067 0)
(0.204888 0.306697 0)
(0.206527 0.296882 0)
(0.208694 0.286345 0)
(0.211166 0.27464 0)
(0.213279 0.261618 0)
(0.00990462 -0.511367 0)
(0.0245872 -0.493925 0)
(0.0388963 -0.448995 0)
(0.0528122 -0.412336 0)
(0.0660476 -0.382825 0)
(0.0786046 -0.359592 0)
(0.090549 -0.341956 0)
(0.101947 -0.329251 0)
(0.112863 -0.320827 0)
(0.123358 -0.316069 0)
(0.133486 -0.314412 0)
(0.143287 -0.315342 0)
(0.152791 -0.318405 0)
(0.162012 -0.323192 0)
(0.170953 -0.329333 0)
(0.179601 -0.336478 0)
(0.187934 -0.344277 0)
(0.195922 -0.352354 0)
(0.203532 -0.360278 0)
(0.210731 -0.367538 0)
(0.217511 -0.373516 0)
(0.223926 -0.377454 0)
(0.230126 -0.378408 0)
(0.234758 -0.375206 0)
(0.238024 -0.366647 0)
(0.242646 -0.349986 0)
(0.251646 -0.299387 0)
(0.232655 -0.0915371 0)
(0.212489 0.0863597 0)
(0.205359 0.206566 0)
(0.202339 0.281516 0)
(0.200253 0.324816 0)
(0.198801 0.3467 0)
(0.19767 0.354855 0)
(0.196662 0.354756 0)
(0.195747 0.349993 0)
(0.194975 0.34274 0)
(0.194435 0.334224 0)
(0.19422 0.325081 0)
(0.194406 0.315585 0)
(0.19502 0.305783 0)
(0.19603 0.295585 0)
(0.19738 0.284807 0)
(0.198906 0.273169 0)
(0.20013 0.260492 0)
(0.00936379 -0.525494 0)
(0.023223 -0.506601 0)
(0.0367539 -0.461104 0)
(0.0499834 -0.423885 0)
(0.0626121 -0.393813 0)
(0.0746316 -0.370052 0)
(0.0860945 -0.351933 0)
(0.0970547 -0.338796 0)
(0.107566 -0.329991 0)
(0.11768 -0.324898 0)
(0.127442 -0.322943 0)
(0.136886 -0.323604 0)
(0.146036 -0.326414 0)
(0.154905 -0.330954 0)
(0.163493 -0.336845 0)
(0.171789 -0.343725 0)
(0.179771 -0.351238 0)
(0.187415 -0.359003 0)
(0.19469 -0.36659 0)
(0.201569 -0.373495 0)
(0.208048 -0.379112 0)
(0.214188 -0.382703 0)
(0.22011 -0.383358 0)
(0.224297 -0.379975 0)
(0.227621 -0.371228 0)
(0.231675 -0.35462 0)
(0.240537 -0.286296 0)
(0.215754 -0.0773042 0)
(0.199697 0.0944989 0)
(0.194729 0.210587 0)
(0.192287 0.283661 0)
(0.190525 0.326147 0)
(0.189307 0.347679 0)
(0.188357 0.355692 0)
(0.187498 0.355525 0)
(0.186698 0.350683 0)
(0.185991 0.343296 0)
(0.185445 0.334579 0)
(0.185132 0.325175 0)
(0.185106 0.315379 0)
(0.185386 0.305273 0)
(0.185938 0.294812 0)
(0.186704 0.28388 0)
(0.187564 0.272287 0)
(0.18817 0.259901 0)
(0.0088386 -0.538965 0)
(0.0218966 -0.518658 0)
(0.0346672 -0.472685 0)
(0.0472207 -0.434976 0)
(0.0592474 -0.4044 0)
(0.0707295 -0.380158 0)
(0.081708 -0.361595 0)
(0.0922261 -0.348057 0)
(0.102328 -0.338892 0)
(0.112056 -0.333478 0)
(0.121449 -0.331233 0)
(0.130535 -0.331629 0)
(0.139333 -0.334188 0)
(0.147855 -0.338482 0)
(0.156098 -0.34412 0)
(0.164052 -0.350736 0)
(0.171698 -0.357964 0)
(0.179013 -0.365422 0)
(0.18597 -0.37268 0)
(0.192547 -0.379242 0)
(0.198744 -0.38451 0)
(0.204628 -0.387766 0)
(0.21028 -0.388124 0)
(0.214063 -0.384566 0)
(0.217457 -0.375553 0)
(0.221088 -0.359157 0)
(0.229521 -0.269889 0)
(0.202541 -0.0645923 0)
(0.189328 0.101091 0)
(0.18532 0.213985 0)
(0.182964 0.285572 0)
(0.181229 0.327363 0)
(0.18006 0.348568 0)
(0.179168 0.356446 0)
(0.178377 0.356221 0)
(0.177641 0.351323 0)
(0.176974 0.343841 0)
(0.176425 0.334979 0)
(0.176047 0.325385 0)
(0.175875 0.315372 0)
(0.175918 0.305053 0)
(0.176148 0.294419 0)
(0.176507 0.283399 0)
(0.176903 0.271872 0)
(0.17709 0.259731 0)
(0.00832673 -0.551787 0)
(0.0206037 -0.530104 0)
(0.0326307 -0.483739 0)
(0.0445188 -0.445605 0)
(0.055949 -0.414582 0)
(0.0668952 -0.389905 0)
(0.077388 -0.370935 0)
(0.087461 -0.357023 0)
(0.0971494 -0.347521 0)
(0.106489 -0.341801 0)
(0.11551 -0.339278 0)
(0.124237 -0.339414 0)
(0.132686 -0.341725 0)
(0.140864 -0.345774 0)
(0.148769 -0.351163 0)
(0.156391 -0.357516 0)
(0.163713 -0.364464 0)
(0.170712 -0.371621 0)
(0.177366 -0.37856 0)
(0.183655 -0.384789 0)
(0.189584 -0.389722 0)
(0.195227 -0.392654 0)
(0.200619 -0.392728 0)
(0.204049 -0.388991 0)
(0.20751 -0.379679 0)
(0.210984 -0.363537 0)
(0.219256 -0.251869 0)
(0.193081 -0.0532877 0)
(0.181026 0.107282 0)
(0.176863 0.217346 0)
(0.174166 0.287595 0)
(0.172235 0.328658 0)
(0.170966 0.349488 0)
(0.170037 0.357194 0)
(0.169252 0.356893 0)
(0.16854 0.351939 0)
(0.167895 0.344381 0)
(0.167347 0.335408 0)
(0.166931 0.325672 0)
(0.166665 0.315503 0)
(0.166549 0.305034 0)
(0.16656 0.294288 0)
(0.166648 0.283227 0)
(0.166733 0.271774 0)
(0.166643 0.259851 0)
(0.00782569 -0.563965 0)
(0.0193403 -0.540943 0)
(0.0306395 -0.494268 0)
(0.0418726 -0.455772 0)
(0.0527123 -0.424354 0)
(0.0631253 -0.399285 0)
(0.0731325 -0.379943 0)
(0.0827588 -0.365688 0)
(0.0920317 -0.35587 0)
(0.10098 -0.34986 0)
(0.109628 -0.347069 0)
(0.117997 -0.346954 0)
(0.126098 -0.349023 0)
(0.133936 -0.352832 0)
(0.141509 -0.357974 0)
(0.148806 -0.364069 0)
(0.155812 -0.370742 0)
(0.162507 -0.377606 0)
(0.168868 -0.384236 0)
(0.174881 -0.390144 0)
(0.180553 -0.394757 0)
(0.185964 -0.39738 0)
(0.191094 -0.397175 0)
(0.194213 -0.393245 0)
(0.197704 -0.383651 0)
(0.201175 -0.36766 0)
(0.209313 -0.236583 0)
(0.185647 -0.042337 0)
(0.173677 0.113635 0)
(0.168819 0.221147 0)
(0.165586 0.289944 0)
(0.163356 0.330156 0)
(0.161906 0.350516 0)
(0.160884 0.35799 0)
(0.160065 0.357576 0)
(0.159353 0.352549 0)
(0.15872 0.344917 0)
(0.158178 0.335851 0)
(0.157746 0.326005 0)
(0.157428 0.315719 0)
(0.157218 0.305146 0)
(0.157092 0.29433 0)
(0.157008 0.283259 0)
(0.156899 0.271885 0)
(0.156636 0.260151 0)
(0.0073339 -0.575502 0)
(0.018103 -0.551181 0)
(0.0286898 -0.504274 0)
(0.039278 -0.465474 0)
(0.0495335 -0.43371 0)
(0.0594166 -0.408293 0)
(0.0689393 -0.388615 0)
(0.0781185 -0.374043 0)
(0.0869749 -0.36393 0)
(0.0955303 -0.357648 0)
(0.103805 -0.354602 0)
(0.111815 -0.354245 0)
(0.11957 -0.35608 0)
(0.127071 -0.359654 0)
(0.134317 -0.364555 0)
(0.141296 -0.370397 0)
(0.147994 -0.376802 0)
(0.154392 -0.383382 0)
(0.160471 -0.389713 0)
(0.166217 -0.395314 0)
(0.171642 -0.399618 0)
(0.176826 -0.401944 0)
(0.181693 -0.401466 0)
(0.184542 -0.397328 0)
(0.188034 -0.387414 0)
(0.19143 -0.371295 0)
(0.19916 -0.225198 0)
(0.177879 -0.031746 0)
(0.166092 0.12046 0)
(0.160609 0.225447 0)
(0.156928 0.292669 0)
(0.154398 0.331896 0)
(0.152755 0.351688 0)
(0.151624 0.35886 0)
(0.150756 0.358287 0)
(0.150034 0.353162 0)
(0.149412 0.345446 0)
(0.148886 0.336294 0)
(0.148459 0.326356 0)
(0.148125 0.31598 0)
(0.14787 0.305332 0)
(0.147673 0.294475 0)
(0.147494 0.283414 0)