/*--------------------------------*- C++ -*----------------------------------*\
| =========                 |                                                 |
| \\      /  F ield         | OpenFOAM: The Open Source CFD Toolbox           |
|  \\    /   O peration     | Version:  5.0                                   |
|   \\  /    A nd           | Web:      www.OpenFOAM.org                      |
|    \\/     M anipulation  |                                                 |
\*---------------------------------------------------------------------------*/
FoamFile
{
    version     2.0;
    format      ascii;
    class       surfaceScalarField;
    location    "0.3";
    object      alphaPhi10;
}
// * * * * * * * * * * * * * * * * * * * * * * * * * * * * * * * * * * * * * //

dimensions      [0 3 -1 0 0 0 0];

internalField   nonuniform List<scalar> 
3781
(
-3.07774e-06
3.07774e-06
-2.89738e-06
-1.80365e-07
-7.91598e-07
-2.10578e-06
2.01337e-06
-2.80497e-06
5.00755e-06
-2.99418e-06
7.90508e-06
-2.89753e-06
1.06001e-05
-2.69503e-06
1.30791e-05
-2.47898e-06
1.53661e-05
-2.287e-06
1.74987e-05
-2.13264e-06
1.95168e-05
-2.01803e-06
2.14565e-05
-1.9397e-06
2.33485e-05
-1.89202e-06
2.52176e-05
-1.8691e-06
2.70831e-05
-1.86546e-06
2.89592e-05
-1.87618e-06
3.08562e-05
-1.89691e-06
3.27799e-05
-1.92371e-06
3.47328e-05
-1.95295e-06
3.6714e-05
-1.98117e-06
3.87189e-05
-2.00496e-06
4.07398e-05
-2.02087e-06
4.27651e-05
-2.02525e-06
4.47792e-05
-2.01417e-06
4.67625e-05
-1.98329e-06
4.86902e-05
-1.92766e-06
5.05317e-05
-1.84155e-06
5.22498e-05
-1.71809e-06
5.37984e-05
-1.5486e-06
5.51199e-05
-1.32143e-06
5.61371e-05
-1.01727e-06
5.67421e-05
-6.04965e-07
5.67753e-05
-3.32356e-08
5.59124e-05
8.62959e-07
5.39462e-05
1.96613e-06
5.06234e-05
3.3228e-06
4.56958e-05
4.92761e-06
3.89875e-05
6.70828e-06
3.04985e-05
8.48908e-06
2.05322e-05
9.96621e-06
9.78448e-06
1.07478e-05
-8.14345e-07
1.05988e-05
-9.5975e-06
9.44237e-06
5.78263e-06
-7.81321e-07
3.85907e-06
3.48068e-07
-1.30975e-06
2.4003e-06
-4.15802e-06
4.933e-06
-5.33767e-06
7.56963e-06
-5.63081e-06
1.01534e-05
-5.48125e-06
1.26142e-05
-5.15589e-06
1.49351e-05
-4.79989e-06
1.71288e-05
-4.48066e-06
1.92202e-05
-4.22409e-06
2.12373e-05
-4.03514e-06
2.32063e-05
-3.90869e-06
2.51498e-05
-3.83551e-06
2.70861e-05
-3.80542e-06
2.90293e-05
-3.80867e-06
3.09895e-05
-3.83631e-06
3.29729e-05
-3.88034e-06
3.49827e-05
-3.93349e-06
3.70188e-05
-3.98903e-06
3.90781e-05
-4.04056e-06
4.11549e-05
-4.08175e-06
4.32402e-05
-4.10613e-06
4.53218e-05
-4.10687e-06
4.73842e-05
-4.07653e-06
4.94077e-05
-4.00682e-06
5.13684e-05
-3.88832e-06
5.32369e-05
-3.7101e-06
5.4978e-05
-3.45914e-06
5.65488e-05
-3.11949e-06
5.78983e-05
-2.67086e-06
5.89671e-05
-2.08608e-06
5.96925e-05
-1.33036e-06
6.00186e-05
-3.59308e-07
5.9956e-05
9.25517e-07
5.934e-05
2.58217e-06
5.79739e-05
4.68886e-06
5.5595e-05
7.3065e-06
5.18617e-05
1.04416e-05
4.63816e-05
1.39691e-05
3.88272e-05
1.75206e-05
2.918e-05
2.0395e-05
1.80966e-05
2.16822e-05
7.20034e-06
2.04319e-05
1.47141e-05
7.78318e-07
3.08075e-06
2.32255e-06
-2.85398e-06
4.43043e-06
-6.2659e-06
6.79171e-06
-7.69894e-06
9.20108e-06
-8.04019e-06
1.15621e-05
-7.84229e-06
1.38369e-05
-7.43069e-06
1.60193e-05
-6.98225e-06
1.81202e-05
-6.58156e-06
2.01579e-05
-6.26181e-06
2.21523e-05
-6.02951e-06
2.41218e-05
-5.87822e-06
2.60824e-05
-5.79606e-06
2.80466e-05
-5.7697e-06
3.00241e-05
-5.78611e-06
3.20211e-05
-5.8333e-06
3.40411e-05
-5.9004e-06
3.60852e-05
-5.97751e-06
3.81515e-05
-6.05542e-06
4.02363e-05
-6.12527e-06
4.23328e-05
-6.17826e-06
4.44319e-05
-6.20528e-06
4.65217e-05
-6.19661e-06
4.85867e-05
-6.14162e-06
5.06083e-05
-6.02839e-06
5.25634e-05
-5.84339e-06
5.44242e-05
-5.57095e-06
5.61577e-05
-5.19262e-06
5.77244e-05
-4.68622e-06
5.90781e-05
-4.02452e-06
6.01655e-05
-3.17348e-06
6.09256e-05
-2.09043e-06
6.129e-05
-7.23749e-07
6.12122e-05
1.00334e-06
6.06186e-05
3.17577e-06
5.94249e-05
5.88255e-06
5.75289e-05
9.20251e-06
5.47981e-05
1.31723e-05
5.10454e-05
1.77219e-05
4.60048e-05
2.25612e-05
3.93761e-05
2.70236e-05
3.10934e-05
2.99649e-05
2.17838e-05
2.97415e-05
2.39928e-05
1.45369e-06
1.62706e-06
3.46197e-06
-4.86226e-06
5.73214e-06
-8.53606e-06
8.06265e-06
-1.00295e-05
1.03514e-05
-1.03289e-05
1.25675e-05
-1.00584e-05
1.47098e-05
-9.57298e-06
1.67883e-05
-9.06074e-06
1.88174e-05
-8.61069e-06
2.08126e-05
-8.25698e-06
2.27883e-05
-8.0052e-06
2.47571e-05
-7.84708e-06
2.67296e-05
-7.76852e-06
2.87137e-05
-7.75378e-06
3.07151e-05
-7.78752e-06
3.27373e-05
-7.8555e-06
3.47816e-05
-7.94478e-06
3.68476e-05
-8.04344e-06
3.89325e-05
-8.14031e-06
4.10317e-05
-8.22453e-06
4.31386e-05
-8.28515e-06
4.5244e-05
-8.31072e-06
4.73363e-05
-8.28889e-06
4.94008e-05
-8.20607e-06
5.14193e-05
-8.04696e-06
5.33702e-05
-7.79421e-06
5.5227e-05
-7.42781e-06
5.69588e-05
-6.92443e-06
5.85291e-05
-6.25643e-06
5.98952e-05
-5.39062e-06
6.10084e-05
-4.28672e-06
6.18138e-05
-2.89585e-06
6.22503e-05
-1.16021e-06
6.22591e-05
9.94538e-07
6.17808e-05
3.65408e-06
6.07569e-05
6.90643e-06
5.91315e-05
1.08279e-05
5.68482e-05
1.54556e-05
5.38336e-05
2.07365e-05
4.99566e-05
2.64382e-05
4.49763e-05
3.20039e-05
3.85753e-05
3.63659e-05
3.05801e-05
3.77366e-05
3.34923e-05
1.69447e-06
-6.74114e-08
4.07857e-06
-7.24636e-06
6.52737e-06
-1.09849e-05
8.87768e-06
-1.23798e-05
1.1105e-05
-1.25562e-05
1.32318e-05
-1.21852e-05
1.52878e-05
-1.1629e-05
1.72976e-05
-1.10706e-05
1.92801e-05
-1.05932e-05
2.12495e-05
-1.02264e-05
2.32166e-05
-9.97236e-06
2.51899e-05
-9.82038e-06
2.71757e-05
-9.75423e-06
2.91783e-05
-9.75639e-06
3.12006e-05
-9.80985e-06
3.3244e-05
-9.89889e-06
3.53083e-05
-1.00091e-05
3.73918e-05
-1.0127e-05
3.94916e-05
-1.024e-05
4.16027e-05
-1.03356e-05
4.37184e-05
-1.04009e-05
4.58301e-05
-1.04224e-05
4.79265e-05
-1.03853e-05
4.99936e-05
-1.02732e-05
5.20143e-05
-1.00677e-05
5.39679e-05
-9.74781e-06
5.58296e-05
-9.28957e-06
5.75704e-05
-8.66521e-06
5.91562e-05
-7.84225e-06
6.0548e-05
-6.78235e-06
6.17012e-05
-5.43998e-06
6.25666e-05
-3.76118e-06
6.30896e-05
-1.68323e-06
6.32153e-05
8.68769e-07
6.2891e-05
3.97839e-06
6.2068e-05
7.7295e-06
6.07033e-05
1.21926e-05
5.87577e-05
1.74012e-05
5.61822e-05
2.3312e-05
5.28844e-05
2.97361e-05
4.86682e-05
3.62201e-05
4.3179e-05
4.18551e-05
3.59265e-05
4.49892e-05
4.30175e-05
1.84231e-06
-1.90972e-06
4.44273e-06
-9.84679e-06
6.9944e-06
-1.35365e-05
9.3478e-06
-1.47332e-05
1.15289e-05
-1.47373e-05
1.35956e-05
-1.42519e-05
1.55969e-05
-1.36303e-05
1.7566e-05
-1.30397e-05
1.95238e-05
-1.2551e-05
2.14832e-05
-1.21858e-05
2.34523e-05
-1.19415e-05
2.54362e-05
-1.18043e-05
2.7438e-05
-1.17561e-05
2.94597e-05
-1.17781e-05
3.15021e-05
-1.18522e-05
3.35649e-05
-1.19617e-05
3.56472e-05
-1.20913e-05
3.77466e-05
-1.22265e-05
3.986e-05
-1.23534e-05
4.19825e-05
-1.24581e-05
4.41078e-05
-1.25262e-05
4.62276e-05
-1.25422e-05
4.83314e-05
-1.24891e-05
5.0406e-05
-1.23478e-05
5.24353e-05
-1.2097e-05
5.43998e-05
-1.17122e-05
5.6276e-05
-1.11659e-05
5.80369e-05
-1.0426e-05
5.96507e-05
-9.45605e-06
6.10815e-05
-8.21311e-06
6.22887e-05
-6.64727e-06
6.3228e-05
-4.70048e-06
6.38512e-05
-2.30635e-06
6.41091e-05
6.10855e-07
6.39545e-05
4.13298e-06
6.33436e-05
8.34038e-06
6.22367e-05
1.32995e-05
6.05939e-05
1.90439e-05
5.83623e-05
2.55437e-05
5.54459e-05
3.26524e-05
5.16522e-05
4.00138e-05
4.66158e-05
4.68915e-05
3.9724e-05
5.1881e-05
5.26219e-05
1.96884e-06
-3.87856e-06
4.67433e-06
-1.25523e-05
7.24513e-06
-1.61073e-05
9.56251e-06
-1.70506e-05
1.16905e-05
-1.68652e-05
1.37079e-05
-1.62694e-05
1.56723e-05
-1.55947e-05
1.76188e-05
-1.49862e-05
1.95672e-05
-1.44994e-05
2.15282e-05
-1.41467e-05
2.35069e-05
-1.39202e-05
2.55059e-05
-1.38032e-05
2.75259e-05
-1.37761e-05
2.9567e-05
-1.38192e-05
3.16287e-05
-1.39139e-05
3.37098e-05
-1.40428e-05
3.58087e-05
-1.41902e-05
3.7923e-05
-1.43408e-05
4.00495e-05
-1.44798e-05
4.21837e-05
-1.45923e-05
4.43198e-05
-1.46623e-05
4.64501e-05
-1.46726e-05
4.8565e-05
-1.4604e-05
5.06522e-05
-1.4435e-05
5.26965e-05
-1.41413e-05
5.46796e-05
-1.36953e-05
5.65796e-05
-1.30659e-05
5.8371e-05
-1.22174e-05
6.00243e-05
-1.11094e-05
6.15065e-05
-9.6953e-06
6.27808e-05
-7.92152e-06
6.38071e-05
-5.72679e-06
6.45429e-05
-3.04215e-06
6.49449e-05
2.08804e-07
6.49711e-05
4.10683e-06
6.45812e-05
8.7303e-06
6.37362e-05
1.41445e-05
6.23929e-05
2.03872e-05
6.04901e-05
2.74465e-05
5.79211e-05
3.52215e-05
5.44831e-05
4.34518e-05
4.97941e-05
5.15805e-05
4.31688e-05
5.85063e-05
6.2276e-05
2.08299e-06
-5.96155e-06
4.81785e-06
-1.52871e-05
7.34061e-06
-1.86301e-05
9.58525e-06
-1.92952e-05
1.16478e-05
-1.89278e-05
1.36179e-05
-1.82395e-05
1.55535e-05
-1.75302e-05
1.74868e-05
-1.69195e-05
1.94341e-05
-1.64467e-05
2.14026e-05
-1.61152e-05
2.33947e-05
-1.59123e-05
2.54105e-05
-1.5819e-05
2.7449e-05
-1.58146e-05
2.95088e-05
-1.58791e-05
3.15885e-05
-1.59935e-05
3.36864e-05
-1.61407e-05
3.58005e-05
-1.63043e-05
3.79286e-05
-1.64689e-05
4.00677e-05
-1.66189e-05
4.22138e-05
-1.67385e-05
4.43619e-05
-1.68103e-05
4.65049e-05
-1.68157e-05
4.86342e-05
-1.67333e-05
5.07384e-05
-1.65392e-05
5.28036e-05
-1.62064e-05
5.48124e-05
-1.57042e-05
5.67445e-05
-1.49979e-05
5.85758e-05
-1.40487e-05
6.0279e-05
-1.28126e-05
6.18235e-05
-1.12398e-05
6.31759e-05
-9.27398e-06
6.43006e-05
-6.85146e-06
6.51601e-05
-3.90163e-06
6.57167e-05
-3.47817e-07
6.59336e-05
3.88995e-06
6.57746e-05
8.88925e-06
6.5203e-05
1.47161e-05
6.41752e-05
2.1415e-05
6.26276e-05
2.89941e-05
6.04507e-05
3.73984e-05
5.74405e-05
4.6462e-05
5.32093e-05
5.58117e-05
4.70265e-05
6.4689e-05
7.17126e-05
2.18346e-06
-8.14501e-06
4.88988e-06
-1.79936e-05
7.31499e-06
-2.10552e-05
9.45999e-06
-2.14402e-05
1.14469e-05
-2.09147e-05
1.33684e-05
-2.0161e-05
1.52774e-05
-1.94392e-05
1.72005e-05
-1.88426e-05
1.9149e-05
-1.83952e-05
2.11263e-05
-1.80925e-05
2.31317e-05
-1.79178e-05
2.51634e-05
-1.78506e-05
2.72186e-05
-1.78699e-05
2.9295e-05
-1.79555e-05
3.13904e-05
-1.80889e-05
3.35028e-05
-1.82531e-05
3.56303e-05
-1.84318e-05
3.77707e-05
-1.86093e-05
3.99215e-05
-1.87698e-05
4.20794e-05
-1.88964e-05
4.424e-05
-1.89709e-05
4.63974e-05
-1.8973e-05
4.85437e-05
-1.88796e-05
5.06688e-05
-1.86643e-05
5.27597e-05
-1.82973e-05
5.48004e-05
-1.77449e-05
5.67716e-05
-1.69691e-05
5.86507e-05
-1.59279e-05
6.04123e-05
-1.45742e-05
6.20281e-05
-1.28556e-05
6.34679e-05
-1.07138e-05
6.46999e-05
-8.08348e-06
6.56918e-05
-4.89348e-06
6.64113e-05
-1.06736e-06
6.68274e-05
3.47388e-06
6.69095e-05
8.80712e-06
6.66261e-05
1.49995e-05
6.59389e-05
2.21022e-05
6.47922e-05
3.01408e-05
6.30897e-05
3.91009e-05
6.06516e-05
4.89001e-05
5.71265e-05
5.93368e-05
5.18137e-05
7.00018e-05
8.02191e-05
2.26645e-06
-1.04115e-05
4.89741e-06
-2.06245e-05
7.18984e-06
-2.33476e-05
9.21811e-06
-2.34685e-05
1.11229e-05
-2.28195e-05
1.29935e-05
-2.20316e-05
1.48749e-05
-2.13207e-05
1.67867e-05
-2.07543e-05
1.87346e-05
-2.03431e-05
2.07181e-05
-2.0076e-05
2.2734e-05
-1.99337e-05
2.47782e-05
-1.98948e-05
2.68468e-05
-1.99384e-05
2.89364e-05
-2.00451e-05
3.10444e-05
-2.01969e-05
3.31684e-05
-2.03771e-05
3.53066e-05
-2.057e-05
3.74573e-05
-2.076e-05
3.96183e-05
-2.09308e-05
4.17872e-05
-2.10652e-05
4.39602e-05
-2.1144e-05
4.61327e-05
-2.11455e-05
4.82977e-05
-2.10446e-05
5.04464e-05
-2.08129e-05
5.25668e-05
-2.04177e-05
5.46441e-05
-1.98222e-05
5.66601e-05
-1.89851e-05
5.85934e-05
-1.78612e-05
6.042e-05
-1.64008e-05
6.21138e-05
-1.45494e-05
6.36473e-05
-1.22473e-05
6.49928e-05
-9.42894e-06
6.61225e-05
-6.02321e-06
6.70101e-05
-1.95494e-06
6.76308e-05
2.85322e-06
6.79613e-05
8.47659e-06
6.79786e-05
1.49823e-05
6.7656e-05
2.24248e-05
6.69558e-05
3.08409e-05
6.58143e-05
4.02425e-05
6.41096e-05
5.06047e-05
6.15953e-05
6.18511e-05
5.77437e-05
7.38535e-05
8.66259e-05
2.3697e-06
-1.27812e-05
4.93114e-06
-2.3186e-05
7.10393e-06
-2.55204e-05
9.03878e-06
-2.54033e-05
1.08896e-05
-2.46703e-05
1.27389e-05
-2.38809e-05
1.46228e-05
-2.32046e-05
1.65534e-05
-2.26849e-05
1.85314e-05
-2.23211e-05
2.05523e-05
-2.20969e-05
2.26102e-05
-2.19916e-05
2.46992e-05
-2.19838e-05
2.68139e-05
-2.20532e-05
2.89502e-05
-2.21814e-05
3.11048e-05
-2.23515e-05
3.32752e-05
-2.25475e-05
3.54596e-05
-2.27545e-05
3.76566e-05
-2.29569e-05
3.98646e-05
-2.31388e-05
4.20819e-05
-2.32824e-05
4.43057e-05
-2.33678e-05
4.65323e-05
-2.3372e-05
4.8756e-05
-2.32684e-05
5.09689e-05
-2.30259e-05
5.31602e-05
-2.2609e-05
5.53158e-05
-2.19777e-05
5.7418e-05
-2.10873e-05
5.94462e-05
-1.98893e-05
6.13769e-05
-1.83315e-05
6.31854e-05
-1.63579e-05
6.48464e-05
-1.39083e-05
6.63351e-05
-1.09176e-05
6.76283e-05
-7.31639e-06
6.8705e-05
-3.03169e-06
6.95473e-05
2.01091e-06
7.01403e-05
7.88357e-06
7.04717e-05
1.46509e-05
7.05305e-05
2.2366e-05
7.03045e-05
3.10669e-05
6.97753e-05
4.07717e-05
6.89067e-05
5.14733e-05
6.76241e-05
6.31337e-05
6.5765e-05
7.57126e-05
8.93477e-05
2.43181e-06
-1.5213e-05
4.86205e-06
-2.56162e-05
6.87406e-06
-2.75324e-05
8.6892e-06
-2.72185e-05
1.04649e-05
-2.6446e-05
1.22726e-05
-2.56886e-05
1.41381e-05
-2.50701e-05
1.6066e-05
-2.46128e-05
1.80518e-05
-2.43069e-05
2.00877e-05
-2.41328e-05
2.21651e-05
-2.4069e-05
2.42763e-05
-2.4095e-05
2.64148e-05
-2.41917e-05
2.85755e-05
-2.43421e-05
3.07546e-05
-2.45306e-05
3.29496e-05
-2.47425e-05
3.51586e-05
-2.49635e-05
3.73805e-05
-2.51789e-05
3.96146e-05
-2.53728e-05
4.18597e-05
-2.55275e-05
4.41143e-05
-2.56225e-05
4.63758e-05
-2.56335e-05
4.86399e-05
-2.55325e-05
5.09e-05
-2.5286e-05
5.31465e-05
-2.48555e-05
5.5366e-05
-2.41973e-05
5.75416e-05
-2.32629e-05
5.96528e-05
-2.20005e-05
6.16769e-05
-2.03556e-05
6.359e-05
-1.8271e-05
6.53688e-05
-1.56871e-05
6.69917e-05
-1.25406e-05
6.84402e-05
-8.76485e-06
6.96992e-05
-4.29068e-06
7.07582e-05
9.51873e-07
7.16118e-05
7.02996e-06
7.22598e-05
1.40029e-05
7.27086e-05
2.19172e-05
7.29731e-05
3.08023e-05
7.30801e-05
4.06648e-05
7.30737e-05
5.14796e-05
7.30301e-05
6.31774e-05
7.3103e-05
7.56397e-05
8.87251e-05
2.46948e-06
-1.76824e-05
4.73302e-06
-2.78797e-05
6.56825e-06
-2.93677e-05
8.25798e-06
-2.89082e-05
9.955e-06
-2.8143e-05
1.1717e-05
-2.74506e-05
1.35592e-05
-2.69123e-05
1.54789e-05
-2.65326e-05
1.74669e-05
-2.62949e-05
1.9512e-05
-2.61779e-05
2.16034e-05
-2.61604e-05
2.37316e-05
-2.62231e-05
2.58888e-05
-2.63489e-05
2.80692e-05
-2.65225e-05
3.02684e-05
-2.67298e-05
3.24837e-05
-2.69577e-05
3.47133e-05
-2.71931e-05
3.69566e-05
-2.74222e-05
3.92132e-05
-2.76295e-05
4.14831e-05
-2.77974e-05
4.37659e-05
-2.79052e-05
4.60601e-05
-2.79278e-05
4.83632e-05
-2.78355e-05
5.06699e-05
-2.75926e-05
5.29719e-05
-2.71575e-05
5.52568e-05
-2.64822e-05
5.7508e-05
-2.5514e-05
5.97047e-05
-2.41972e-05
6.1824e-05
-2.24749e-05
6.38424e-05
-2.02895e-05
6.57382e-05
-1.75829e-05
6.74925e-05
-1.4295e-05
6.90914e-05
-1.03637e-05
7.05257e-05
-5.725e-06
7.17926e-05
-3.15032e-07
7.28959e-05
5.92665e-06
7.38471e-05
1.30517e-05
7.46681e-05
2.10963e-05
7.53954e-05
3.0075e-05
7.60872e-05
3.9973e-05
7.68336e-05
5.07332e-05
7.77744e-05
6.22367e-05
7.91326e-05
7.42815e-05
8.6578e-05
2.48104e-06
-2.01635e-05
4.54304e-06
-2.99417e-05
6.18854e-06
-3.10132e-05
7.74899e-06
-3.04686e-05
9.36459e-06
-2.97586e-05
1.10775e-05
-2.91635e-05
1.2892e-05
-2.87268e-05
1.47988e-05
-2.84393e-05
1.67839e-05
-2.828e-05
1.88331e-05
-2.8227e-05
2.09332e-05
-2.82605e-05
2.30732e-05
-2.83631e-05
2.52442e-05
-2.85199e-05
2.74393e-05
-2.87177e-05
2.96539e-05
-2.89444e-05
3.18849e-05
-2.91887e-05
3.41306e-05
-2.94389e-05
3.63908e-05
-2.96823e-05
3.86656e-05
-2.99043e-05
4.09559e-05
-3.00878e-05
4.32625e-05
-3.02118e-05
4.55855e-05
-3.02508e-05
4.79238e-05
-3.01738e-05
5.02742e-05
-2.9943e-05
5.26298e-05
-2.95131e-05
5.49792e-05
-2.88316e-05
5.73055e-05
-2.78404e-05
5.95874e-05
-2.64791e-05
6.18006e-05
-2.46881e-05
6.39213e-05
-2.24102e-05
6.59284e-05
-1.95899e-05
6.78057e-05
-1.61723e-05
6.95433e-05
-1.21013e-05
7.11382e-05
-7.3199e-06
7.25948e-05
-1.77165e-06
7.39256e-05
4.59591e-06
7.5152e-05
1.18253e-05
7.63078e-05
1.99405e-05
7.74435e-05
2.89393e-05
7.86327e-05
3.87837e-05
7.99801e-05
4.93859e-05
8.16276e-05
6.05891e-05
8.37603e-05
7.21488e-05
8.37317e-05
2.46444e-06
-2.26279e-05
4.28815e-06
-3.17655e-05
5.73342e-06
-3.24584e-05
7.16306e-06
-3.18983e-05
8.69641e-06
-3.1292e-05
1.03583e-05
-3.08254e-05
1.21424e-05
-3.05109e-05
1.40326e-05
-3.03295e-05
1.60107e-05
-3.02582e-05
1.80595e-05
-3.02758e-05
2.01638e-05
-3.03648e-05
2.23108e-05
-3.05102e-05
2.44907e-05
-3.06998e-05
2.66958e-05
-3.09228e-05
2.89209e-05
-3.11694e-05
3.11626e-05
-3.14304e-05
3.34193e-05
-3.16956e-05
3.5691e-05
-3.19539e-05
3.79785e-05
-3.21918e-05
4.02835e-05
-3.23927e-05
4.26078e-05
-3.25361e-05
4.49532e-05
-3.25962e-05
4.73204e-05
-3.25411e-05
4.97084e-05
-3.2331e-05
5.21126e-05
-3.19173e-05
5.45224e-05
-3.12414e-05
5.69206e-05
-3.02386e-05
5.92839e-05
-2.88424e-05
6.15861e-05
-2.69903e-05
6.38014e-05
-2.46255e-05
6.59087e-05
-2.16973e-05
6.78939e-05
-1.81575e-05
6.97512e-05
-1.39586e-05
7.14835e-05
-9.05218e-06
7.31021e-05
-3.39023e-06
7.46271e-05
3.0709e-06
7.60882e-05
1.03641e-05
7.75269e-05
1.85018e-05
7.90007e-05
2.74656e-05
8.05878e-05
3.71967e-05
8.23899e-05
4.75838e-05
8.45312e-05
5.84477e-05
8.71516e-05
6.95285e-05
8.04872e-05
2.41394e-06
-2.50419e-05
3.96003e-06
-3.33115e-05
5.19919e-06
-3.36976e-05
6.50083e-06
-3.31999e-05
7.95444e-06
-3.27456e-05
9.56604e-06
-3.2437e-05
1.13188e-05
-3.22637e-05
1.31903e-05
-3.22011e-05
1.51585e-05
-3.22263e-05
1.72032e-05
-3.23206e-05
1.93075e-05
-3.2469e-05
2.14572e-05
-3.26599e-05
2.36413e-05
-3.28839e-05
2.58515e-05
-3.3133e-05
2.80819e-05
-3.33999e-05
3.0329e-05
-3.36775e-05
3.25911e-05
-3.39578e-05
3.48683e-05
-3.42311e-05
3.71618e-05
-3.44854e-05
3.9474e-05
-3.4705e-05
4.18079e-05
-3.48699e-05
4.41665e-05
-3.49548e-05
4.6553e-05
-3.49275e-05
4.89689e-05
-3.47469e-05
5.14123e-05
-3.43607e-05
5.38745e-05
-3.37036e-05
5.63374e-05
-3.27015e-05
5.87748e-05
-3.12798e-05
6.11564e-05
-2.93719e-05
6.34535e-05
-2.69226e-05
6.56437e-05
-2.38874e-05
6.77145e-05
-2.02282e-05
6.96643e-05
-1.59084e-05
7.15019e-05
-1.08898e-05
7.32454e-05
-5.1337e-06
7.49217e-05
1.39454e-06
7.65669e-05
8.71891e-06
7.82267e-05
1.6842e-05
7.99605e-05
2.57317e-05
8.18445e-05
3.53127e-05
8.39704e-05
4.54579e-05
8.64395e-05
5.59786e-05
8.93505e-05
6.66175e-05
7.70563e-05
2.3144e-06
-2.73563e-05
3.54639e-06
-3.45435e-05
4.58378e-06
-3.4735e-05
5.76742e-06
-3.43835e-05
7.14832e-06
-3.41265e-05
8.71323e-06
-3.40019e-05
1.04356e-05
-3.3986e-05
1.22875e-05
-3.4053e-05
1.42433e-05
-3.41821e-05
1.62808e-05
-3.4358e-05
1.83811e-05
-3.45694e-05
2.05292e-05
-3.4808e-05
2.27129e-05
-3.50676e-05
2.49232e-05
-3.53433e-05
2.71538e-05
-3.56305e-05
2.94007e-05
-3.59243e-05
3.1662e-05
-3.62191e-05
3.39378e-05
-3.6507e-05
3.62297e-05
-3.67772e-05
3.85402e-05
-3.70155e-05
4.08731e-05
-3.72028e-05
4.32328e-05
-3.73146e-05
4.56246e-05
-3.73193e-05
4.80536e-05
-3.71759e-05
5.0522e-05
-3.68292e-05
5.30236e-05
-3.62052e-05
5.55394e-05
-3.52173e-05
5.80386e-05
-3.3779e-05
6.0485e-05
-3.18183e-05
6.28448e-05
-2.92824e-05
6.50934e-05
-2.6136e-05
6.72194e-05
-2.23543e-05
6.9226e-05
-1.7915e-05
7.11283e-05
-1.27921e-05
7.29508e-05
-6.95626e-06
7.47274e-05
-3.82017e-07
7.64987e-05
6.94764e-06
7.83119e-05
1.50287e-05
8.02255e-05
2.38182e-05
8.23101e-05
3.32281e-05
8.46451e-05
4.31228e-05
8.73094e-05
5.33143e-05
9.03663e-05
6.35606e-05
7.35794e-05
2.1369e-06
-2.94932e-05
3.0363e-06
-3.54429e-05
3.89412e-06
-3.55928e-05
4.97893e-06
-3.54684e-05
6.29853e-06
-3.54461e-05
7.82236e-06
-3.55257e-05
9.51609e-06
-3.56797e-05
1.13477e-05
-3.58846e-05
1.32888e-05
-3.61233e-05
1.53155e-05
-3.63847e-05
1.74079e-05
-3.66617e-05
1.95497e-05
-3.69497e-05
2.17281e-05
-3.72461e-05
2.39334e-05
-3.75487e-05
2.61587e-05
-3.78557e-05
2.83994e-05
-3.8165e-05
3.06534e-05
-3.84731e-05
3.29204e-05
-3.8774e-05
3.52019e-05
-3.90587e-05
3.75005e-05
-3.9314e-05
3.98199e-05
-3.95222e-05
4.21653e-05
-3.966e-05
4.45439e-05
-3.96978e-05
4.69651e-05
-3.95971e-05
4.94375e-05
-3.93016e-05
5.19592e-05
-3.8727e-05
5.45103e-05
-3.77683e-05
5.70535e-05
-3.63222e-05
5.95438e-05
-3.43086e-05
6.19401e-05
-3.16786e-05
6.42143e-05
-2.84102e-05
6.63566e-05
-2.44966e-05
6.83754e-05
-1.99337e-05
7.02932e-05
-1.47098e-05
7.21414e-05
-8.80454e-06
7.39607e-05
-2.20128e-06
7.57959e-05
5.11249e-06
7.76938e-05
1.31308e-05
7.97094e-05
2.18026e-05
8.19076e-05
3.10298e-05
8.43566e-05
4.06739e-05
8.71165e-05
5.05545e-05
9.02249e-05
6.04522e-05
7.01246e-05
1.84506e-06
-3.13382e-05
2.43343e-06
-3.60313e-05
3.157e-06
-3.63164e-05
4.17008e-06
-3.64814e-05
5.44172e-06
-3.67177e-05
6.92986e-06
-3.70138e-05
8.59583e-06
-3.73457e-05
1.04052e-05
-3.76939e-05
1.23282e-05
-3.80463e-05
1.43396e-05
-3.83962e-05
1.64189e-05
-3.87409e-05
1.8549e-05
-3.90799e-05
2.07167e-05
-3.94138e-05
2.29114e-05
-3.97434e-05
2.51254e-05
-4.00697e-05
2.73536e-05
-4.03932e-05
2.95934e-05
-4.07128e-05
3.18439e-05
-4.10246e-05
3.41059e-05
-4.13207e-05
3.63813e-05
-4.15894e-05
3.86733e-05
-4.18142e-05
4.09863e-05
-4.1973e-05
4.33284e-05
-4.20398e-05
4.5714e-05
-4.19826e-05
4.81613e-05
-4.17488e-05
5.0676e-05
-4.12417e-05
5.32375e-05
-4.03298e-05
5.57996e-05
-3.88843e-05
5.83052e-05
-3.68142e-05
6.07032e-05
-3.40766e-05
6.29612e-05
-3.06682e-05
6.50713e-05
-2.66066e-05
6.7049e-05
-2.19114e-05
6.89258e-05
-1.65866e-05
7.07402e-05
-1.06189e-05
7.25407e-05
-4.00184e-06
7.43775e-05
3.27573e-06
7.62947e-05
1.12136e-05
7.83432e-05
1.97541e-05
8.05833e-05
2.87897e-05
8.30746e-05
3.81826e-05
8.58632e-05
4.77658e-05
8.89692e-05
5.73462e-05
6.67179e-05
1.41177e-06
-3.275e-05
1.7771e-06
-3.63966e-05
2.4318e-06
-3.69711e-05
3.4015e-06
-3.74511e-05
4.6352e-06
-3.79514e-05
6.08926e-06
-3.84679e-05
7.72492e-06
-3.89813e-05
9.50731e-06
-3.94763e-05
1.14061e-05
-3.9945e-05
1.33957e-05
-4.03857e-05
1.54549e-05
-4.08002e-05
1.75667e-05
-4.11916e-05
1.9717e-05
-4.1564e-05
2.18946e-05
-4.1921e-05
2.40908e-05
-4.22658e-05
2.62997e-05
-4.26021e-05
2.85181e-05
-4.29311e-05
3.07442e-05
-4.32506e-05
3.29776e-05
-4.35541e-05
3.52189e-05
-4.38307e-05
3.74694e-05
-4.40645e-05
3.97307e-05
-4.42343e-05
4.20092e-05
-4.43181e-05
4.4324e-05
-4.42973e-05
4.67077e-05
-4.41322e-05
4.91787e-05
-4.37124e-05
5.17168e-05
-4.28675e-05
5.42635e-05
-4.14307e-05
5.67456e-05
-3.92961e-05
5.90996e-05
-3.64305e-05
6.12884e-05
-3.28568e-05
6.33078e-05
-2.86259e-05
6.51831e-05
-2.37866e-05
6.6957e-05
-1.83604e-05
6.86742e-05
-1.2336e-05
7.03938e-05
-5.72148e-06
7.21759e-05
1.49375e-06
7.40575e-05
9.33198e-06
7.60865e-05
1.77251e-05
7.83208e-05
2.65554e-05
8.08135e-05
3.56899e-05
8.35993e-05
4.498e-05
8.66828e-05
5.42627e-05
6.33605e-05
8.61199e-07
-3.36112e-05
1.16792e-06
-3.67033e-05
1.8213e-06
-3.76243e-05
2.76433e-06
-3.83938e-05
3.95931e-06
-3.9146e-05
5.37275e-06
-3.98809e-05
6.96951e-06
-4.05776e-05
8.71544e-06
-4.12218e-05
1.05802e-05
-4.18094e-05
1.25381e-05
-4.23433e-05
1.45679e-05
-4.28297e-05
1.66522e-05
-4.32756e-05
1.87766e-05
-4.36881e-05
2.09292e-05
-4.40733e-05
2.31e-05
-4.44363e-05
2.52821e-05
-4.4784e-05
2.74715e-05
-4.51202e-05
2.96654e-05
-4.54441e-05
3.18617e-05
-4.57499e-05
3.4059e-05
-4.60274e-05
3.62557e-05
-4.62604e-05
3.84479e-05
-4.64256e-05
4.06346e-05
-4.65036e-05
4.28368e-05
-4.6498e-05
4.51085e-05
-4.64018e-05
4.7488e-05
-4.60896e-05
4.99577e-05
-4.53353e-05
5.24412e-05
-4.39125e-05
5.48459e-05
-4.16994e-05
5.70938e-05
-3.86771e-05
5.9144e-05
-3.49057e-05
6.09997e-05
-3.04804e-05
6.27009e-05
-2.54867e-05
6.43051e-05
-1.99634e-05
6.58628e-05
-1.38933e-05
6.74532e-05
-7.31169e-06
6.91384e-05
-1.89067e-07
7.09517e-05
7.51893e-06
7.29432e-05
1.57336e-05
7.51705e-05
2.43282e-05
7.76749e-05
3.31858e-05
8.04722e-05
4.2183e-05
8.35444e-05
5.11908e-05
8.68681e-05
6.0037e-05
6.85901e-05
3.2463e-07
-3.39358e-05
7.81958e-07
-3.716e-05
1.47459e-06
-3.83152e-05
2.38032e-06
-3.9297e-05
3.5166e-06
-4.02792e-05
4.87015e-06
-4.12311e-05
6.4108e-06
-4.2115e-05
8.1045e-06
-4.29123e-05
9.92041e-06
-4.36224e-05
1.18326e-05
-4.42529e-05
1.38198e-05
-4.48146e-05
1.58644e-05
-4.53182e-05
1.79518e-05
-4.57736e-05
2.00694e-05
-4.6189e-05
2.22051e-05
-4.65701e-05
2.43512e-05
-4.6928e-05
2.65029e-05
-4.72696e-05
2.86558e-05
-4.75942e-05
3.08059e-05
-4.78965e-05
3.29493e-05
-4.81663e-05
3.50816e-05
-4.83872e-05
3.71905e-05
-4.85281e-05
3.9257e-05
-4.85626e-05
4.12948e-05
-4.85253e-05
4.33971e-05
-4.84895e-05
4.56273e-05
-4.83049e-05
4.79731e-05
-4.76684e-05
5.03204e-05
-4.62498e-05
5.25624e-05
-4.39327e-05
5.45874e-05
-4.06957e-05
5.6348e-05
-3.66573e-05
5.78481e-05
-3.19697e-05
5.91681e-05
-2.67935e-05
6.04682e-05
-2.12511e-05
6.18398e-05
-1.52568e-05
6.34273e-05
-8.89523e-06
6.48645e-05
-1.75683e-06
6.68889e-05
5.49507e-06
6.89517e-05
1.3671e-05
7.12819e-05
2.19981e-05
7.39175e-05
3.05502e-05
7.68149e-05
3.92855e-05
7.99169e-05
4.80889e-05
8.32277e-05
5.67262e-05
6.50812e-05
4.3566e-08
-3.39794e-05
8.58697e-07
-3.7972e-05
1.57807e-06
-3.90211e-05
2.38647e-06
-4.00852e-05
3.41492e-06
-4.1284e-05
4.67388e-06
-4.24647e-05
6.13264e-06
-4.35485e-05
7.75215e-06
-4.45081e-05
9.4992e-06
-4.53479e-05
1.13469e-05
-4.60816e-05
1.32737e-05
-4.6725e-05
1.52618e-05
-4.72918e-05
1.72962e-05
-4.77944e-05
1.93638e-05
-4.82436e-05
2.14492e-05
-4.86421e-05
2.3544e-05
-4.90084e-05
2.56422e-05
-4.93517e-05
2.77364e-05
-4.96691e-05
2.98189e-05
-4.99551e-05
3.18827e-05
-5.02e-05
3.39217e-05
-5.03903e-05
3.59078e-05
-5.04746e-05
3.77731e-05
-5.03799e-05
3.95049e-05
-5.01864e-05
4.13773e-05
-5.02595e-05
4.34434e-05
-5.02721e-05
4.56251e-05
-4.97708e-05
4.76786e-05
-4.82344e-05
4.95294e-05
-4.57207e-05
5.10096e-05
-4.21059e-05
5.21746e-05
-3.77359e-05
5.24763e-05
-3.12018e-05
4.98676e-05
-2.05375e-05
4.6102e-05
-1.2026e-05
4.05822e-05
-4.72337e-06
3.85526e-05
-1.18747e-06
3.82459e-05
-2.35106e-07
3.64692e-05
6.39443e-07
3.90757e-05
1.54866e-06
4.84292e-05
3.73735e-06
6.05406e-05
9.62515e-06
6.73096e-05
2.25564e-05
7.50745e-05
4.03173e-05
7.95393e-05
5.22917e-05
6.1443e-05
3.41795e-07
-3.43212e-05
1.71415e-06
-3.93097e-05
2.28023e-06
-3.94774e-05
2.82219e-06
-4.04676e-05
3.65398e-06
-4.19329e-05
4.76898e-06
-4.33882e-05
6.11519e-06
-4.47081e-05
7.63579e-06
-4.58559e-05
9.29274e-06
-4.68505e-05
1.10562e-05
-4.77112e-05
1.29037e-05
-4.84581e-05
1.48128e-05
-4.9102e-05
1.67675e-05
-4.96578e-05
1.87512e-05
-5.01408e-05
2.07413e-05
-5.05433e-05
2.2729e-05
-5.08998e-05
2.47042e-05
-5.12181e-05
2.66469e-05
-5.14815e-05
2.85429e-05
-5.16891e-05
3.03878e-05
-5.18365e-05
3.22228e-05
-5.19741e-05
3.40915e-05
-5.20471e-05
3.54792e-05
-5.13651e-05
3.6314e-05
-4.5966e-05
3.76064e-05
-4.16735e-05
3.97259e-05
-4.33925e-05
4.21507e-05
-4.77022e-05
4.36746e-05
-4.72805e-05
4.38499e-05
-4.17353e-05
3.93647e-05
-2.89464e-05
2.89121e-05
-1.22285e-05
1.62319e-05
-2.24799e-06
8.46196e-06
-3.52943e-07
3.91787e-06
-4.93796e-08
1.45156e-06
-6.79035e-09
2.65352e-07
-9.6478e-10
3.04239e-08
-1.30392e-10
5.15469e-07
5.52388e-09
1.36808e-06
4.43189e-08
3.4484e-06
1.29298e-07
9.2117e-06
3.22477e-07
2.28082e-05
6.52311e-07
4.65435e-05
2.48124e-06
6.14639e-05
1.51946e-05
4.60299e-05
1.76318e-06
-3.60849e-05
3.51045e-06
-3.68486e-05
2.94531e-06
-2.358e-05
2.91139e-06
-1.88678e-05
3.44573e-06
-1.92165e-05
4.41503e-06
-2.1313e-05
5.68087e-06
-2.45326e-05
7.14478e-06
-2.83067e-05
8.76053e-06
-3.22423e-05
1.04776e-05
-3.61314e-05
1.22664e-05
-3.96118e-05
1.40836e-05
-4.24705e-05
1.59079e-05
-4.45095e-05
1.77278e-05
-4.60039e-05
1.949e-05
-4.60785e-05
2.11689e-05
-4.54216e-05
2.27128e-05
-4.40152e-05
2.39543e-05
-4.14515e-05
2.47664e-05
-3.78381e-05
2.49817e-05
-3.30763e-05
2.45061e-05
-2.81359e-05
2.25918e-05
-2.27742e-05
1.80653e-05
-1.51078e-05
1.31008e-05
-1.7662e-06
1.45092e-05
-1.91776e-07
1.83851e-05
-1.89305e-06
2.24116e-05
-8.60582e-06
2.11904e-05
-7.22808e-06
1.38057e-05
-7.81816e-07
4.99838e-06
-8.67103e-08
2.65545e-06
-9.60607e-09
4.09953e-07
-1.1034e-09
5.73383e-08
-1.40762e-10
7.98751e-09
-1.96925e-11
1.12904e-09
-2.55705e-12
1.63538e-10
-2.69587e-13
3.10833e-11
-1.23951e-14
5.38176e-09
3.86617e-11
4.84255e-08
1.13935e-09
1.69826e-07
6.42619e-09
4.63794e-07
2.5002e-08
1.01171e-06
8.87515e-08
3.04228e-06
2.75415e-07
1.28857e-05
8.59857e-07
3.09497e-06
3.8888e-06
-1.43413e-05
1.90077e-06
-4.54156e-06
6.185e-07
-1.4575e-07
5.43619e-07
-3.22413e-09
6.29419e-07
-6.42864e-11
9.29637e-07
-1.33616e-12
1.42385e-06
-3.01659e-14
2.11311e-06
-6.36925e-16
3.00182e-06
4.89846e-17
4.07404e-06
6.47542e-17
5.2418e-06
3.19029e-16
6.4128e-06
-1.08026e-07
7.47151e-06
-1.47981e-06
8.2499e-06
-2.58691e-06
8.64028e-06
-2.18246e-06
8.65147e-06
-7.55472e-07
8.2878e-06
-4.6981e-08
7.40704e-06
-3.14981e-09
6.2212e-06
-2.19859e-10
4.8049e-06
-1.33256e-11
3.4532e-06
1.46415e-13
1.96243e-06
1.83064e-13
1.98049e-06
1.20236e-13
2.14285e-07
7.16925e-14
2.28699e-08
1.88737e-13
2.59159e-07
4.2476e-13
1.04391e-06
3.68765e-12
8.79927e-07
1.39369e-11
9.80737e-08
3.34855e-11
1.127e-08
2.04699e-11
1.31568e-09
9.33336e-12
1.701e-10
4.10352e-12
2.37207e-11
1.58411e-12
3.42802e-12
5.79737e-13
4.44639e-13
2.02389e-13
4.35729e-14
6.19379e-14
1.62783e-14
1.2568e-14
3.79524e-11
5.98997e-14
1.14773e-09
3.2058e-11
7.25107e-09
3.35458e-10
3.14044e-08
1.87001e-09
1.10257e-07
8.01442e-09
3.5319e-07
3.05407e-08
1.06928e-06
1.2392e-07
4.9638e-07
1.21341e-06
1.0931e-16
1.49039e-07
3.70553e-17
3.28978e-09
5.41876e-18
6.56537e-11
1.35053e-18
1.36724e-12
6.04378e-18
3.10431e-14
3.9233e-17
7.84912e-16
9.22669e-17
1.8758e-17
1.29229e-16
-1.10498e-17
2.32636e-16
-1.62018e-17
4.35316e-16
-8.81873e-17
2.16087e-15
5.13262e-09
2.16688e-12
8.10346e-08
1.21488e-11
1.46081e-07
2.31875e-11
1.33014e-07
2.72481e-11
5.04725e-08
2.35364e-11
3.40706e-09
1.83081e-11
2.4511e-10
1.18704e-11
1.8305e-11
6.94597e-12
1.18157e-12
3.79786e-12
-8.42701e-14
2.16327e-12
-1.11419e-13
1.14971e-12
-7.78845e-14
5.9187e-13
-4.96138e-14
4.08561e-13
-1.38243e-13
7.70954e-13
-3.2333e-13
1.5842e-12
-2.89338e-12
8.25701e-12
-1.17768e-11
2.04653e-11
-3.20416e-11
2.06597e-11
-2.24428e-11
1.39085e-11
-1.13491e-11
8.01483e-12
-5.59107e-12
4.18901e-12
-2.69465e-12
1.96143e-12
-1.25149e-12
8.53529e-13
-5.60616e-13
3.4448e-13
-2.44052e-13
1.2071e-13
-1.01986e-13
3.13417e-14
-9.74133e-15
2.75145e-15
3.11008e-11
8.01225e-13
3.53994e-10
1.47655e-11
2.12782e-09
1.23532e-10
9.46499e-09
6.97123e-10
3.67739e-08
3.2758e-09
1.43675e-07
1.54313e-08
7.1275e-08
-2.13131e-17
2.5817e-17
-7.82701e-18
3.92127e-17
-1.07364e-18
5.41696e-18
-2.32655e-19
2.38572e-18
-1.12357e-18
1.35634e-17
-8.1804e-18