/*--------------------------------*- C++ -*----------------------------------*\
| =========                 |                                                 |
| \\      /  F ield         | OpenFOAM: The Open Source CFD Toolbox           |
|  \\    /   O peration     | Version:  5.0                                   |
|   \\  /    A nd           | Web:      www.OpenFOAM.org                      |
|    \\/     M anipulation  |                                                 |
\*---------------------------------------------------------------------------*/
FoamFile
{
    version     2.0;
    format      ascii;
    class       volScalarField;
    location    "0.3";
    object      epsilon;
}
// * * * * * * * * * * * * * * * * * * * * * * * * * * * * * * * * * * * * * //

dimensions      [0 2 -3 0 0 0 0];

internalField   nonuniform List<scalar> 
1935
(
0.0342386
0.101861
0.195897
0.285385
0.357509
0.418254
0.471989
0.522084
0.571247
0.621603
0.674781
0.732014
0.794224
0.862085
0.936045
1.01632
1.1029
1.1955
1.29357
1.39626
1.50245
1.61071
1.71937
1.82649
1.92993
2.02736
2.11637
2.19443
2.25904
2.30769
2.33777
2.34629
2.32918
2.29913
2.25136
2.18179
2.08811
1.96975
1.82851
1.66947
1.50166
1.33401
1.16532
1.05367
0.0499985
0.0808331
0.121562
0.155721
0.18239
0.203882
0.222135
0.2387
0.254719
0.270991
0.288078
0.306383
0.326202
0.347756
0.3712
0.396625
0.424056
0.453446
0.484669
0.517517
0.551697
0.586833
0.622469
0.658081
0.69309
0.726877
0.758811
0.78828
0.814728
0.837709
0.856946
0.872446
0.88501
0.903602
0.927763
0.959509
1.00207
1.06004
1.13945
1.24665
1.3823
1.51898
1.55901
1.40863
0.0719088
0.0954547
0.123549
0.146261
0.163742
0.177447
0.188789
0.198913
0.208651
0.218573
0.229056
0.240357
0.252655
0.266071
0.280682
0.296529
0.313611
0.331886
0.351268
0.371623
0.392767
0.414472
0.436463
0.458425
0.480019
0.500893
0.520703
0.539144
0.555989
0.571136
0.584687
0.597066
0.6094
0.625025
0.646336
0.676372
0.719385
0.781286
0.87024
0.996878
1.17072
1.38132
1.55562
1.59406
0.0960788
0.114261
0.134898
0.150843
0.16319
0.173038
0.18136
0.188946
0.196381
0.204068
0.212277
0.221187
0.23092
0.24155
0.253123
0.26565
0.279116
0.293475
0.308646
0.324515
0.340931
0.357708
0.374628
0.391444
0.407898
0.423727
0.43869
0.452598
0.46535
0.476987
0.487766
0.498276
0.509678
0.524245
0.544549
0.573717
0.615807
0.67604
0.761149
0.879782
1.04151
1.24837
1.47346
1.6803
0.11762
0.13135
0.146339
0.157351
0.166106
0.173493
0.180125
0.186486
0.19294
0.199745
0.207076
0.215054
0.223759
0.233238
0.243517
0.254596
0.266452
0.279036
0.292274
0.306058
0.320254
0.334695
0.349188
0.36352
0.37747
0.39082
0.403384
0.415036
0.42575
0.435655
0.445106
0.454792
0.465909
0.480453
0.501005
0.530693
0.573426
0.633936
0.717846
0.831903
0.984253
1.18344
1.43626
1.76941
0.135257
0.14431
0.154734
0.162297
0.168722
0.174647
0.180412
0.186273
0.192423
0.199005
0.20612
0.21384
0.222215
0.231277
0.241038
0.251495
0.262625
0.27438
0.286691
0.299458
0.312555
0.325828
0.339099
0.352172
0.364846
0.376932
0.388278
0.3988
0.408526
0.417649
0.4266
0.436144
0.447523
0.462655
0.484147
0.51515
0.559554
0.621963
0.707661
0.8228
0.975334
1.17801
1.45774
1.88613
0.149488
0.153424
0.159687
0.164841
0.16992
0.175168
0.180681
0.186539
0.192817
0.199573
0.206854
0.214697
0.223133
0.232183
0.241856
0.25215
0.263043
0.274496
0.286443
0.298794
0.31143
0.324204
0.336947
0.349472
0.36159
0.373131
0.383963
0.394034
0.403414
0.412346
0.421324
0.431179
0.443202
0.459304
0.482138
0.514921
0.561637
0.627029
0.716624
0.837024
0.99733
1.21414
1.52683
2.0375
0.16178
0.159576
0.161842
0.165241
0.169627
0.174737
0.180421
0.18662
0.193315
0.200503
0.208193
0.216399
0.225141
0.234434
0.24429
0.254712
0.265685
0.277178
0.289133
0.301466
0.314066
0.32679
0.339475
0.351937
0.363994
0.375483
0.386286
0.396374
0.405847
0.414993
0.424355
0.434823
0.447741
0.465042
0.489417
0.524202
0.573537
0.642472
0.737117
0.865174
1.03784
1.27602
1.62904
2.22444
0.17288
0.163566
0.162029
0.164089
0.168165
0.173451
0.179561
0.18631
0.193602
0.201385
0.209639
0.218364
0.227571
0.237278
0.247504
0.258257
0.269535
0.281314
0.293546
0.306157
0.319038
0.332053
0.345037
0.357808
0.370182
0.381995
0.393139
0.403595
0.413487
0.423136
0.43313
0.444408
0.45836
0.476961
0.50291
0.539694
0.591627
0.664114
0.763971
0.900252
1.08668
1.34898
1.74687
2.43792
0.183394
0.166035
0.160965
0.161967
0.165936
0.171552
0.178214
0.185619
0.193602
0.20207
0.210977
0.220313
0.230088
0.240325
0.251049
0.262282
0.274032
0.286286
0.299008
0.31213
0.32555
0.339132
0.352709
0.366095
0.379098
0.391549
0.403334
0.414439
0.425002
0.435369
0.446163
0.458362
0.473396
0.493266
0.520684
0.559254
0.613432
0.688924
0.793156
0.93637
1.13453
1.41765
1.85548
2.64342
0.193825
0.167499
0.1592
0.159331
0.163289
0.169294
0.17655
0.184648
0.193355
0.202542
0.212143
0.22214
0.232545
0.243387
0.254704
0.266528
0.278882
0.291766
0.305154
0.318986
0.333167
0.347559
0.361991
0.376267
0.39018
0.403545
0.416237
0.428233
0.439677
0.45093
0.462639
0.475812
0.491904
0.51293
0.54159
0.581551
0.637337
0.714809
0.821727
0.968978
1.17363
1.46736
1.92172
2.7326
0.204723
0.168394
0.157136
0.156516
0.160502
0.166905
0.17475
0.183528
0.192948
0.202845
0.21314
0.223811
0.234874
0.246367
0.25834
0.27084
0.283904
0.297547
0.311755
0.326476
0.341619
0.357046
0.372579
0.388004
0.403095
0.41764
0.431486
0.444594
0.457099
0.469369
0.482065
0.49621
0.513271
0.53525
0.564803
0.605578
0.662063
0.740075
0.847322
0.994573
1.1984
1.48837
1.92712
2.6721
0.216472
0.169098
0.155117
0.153826
0.157849
0.164625
0.173016
0.182418
0.192492
0.203049
0.213997
0.225315
0.237027
0.249181
0.261842
0.275073
0.288924
0.303427
0.318579
0.334339
0.350619
0.36728
0.384134
0.400948
0.417464
0.433432
0.44866
0.463075
0.476791
0.49017
0.503878
0.518942
0.536818
0.559475
0.58949
0.630367
0.686479
0.76339
0.868386
1.01144
1.20734
1.48093
1.88065
2.51552
0.229579
0.169981
0.153433
0.151515
0.155561
0.162662
0.17152
0.181457
0.192093
0.203221
0.214748
0.226657
0.238981
0.251781
0.265136
0.279126
0.293817
0.309254
0.325449
0.342371
0.359937
0.378007
0.396381
0.414804
0.432979
0.450603
0.467427
0.483327
0.498382
0.512938
0.527655
0.543551
0.562055
0.585075
0.615094
0.655307
0.709951
0.784155
0.884518
1.01981
1.20244
1.45195
1.80323
2.32664
0.244643
0.171405
0.152344
0.14981
0.153843
0.161184
0.170399
0.180745
0.191818
0.203403
0.215411
0.227831
0.240707
0.254117
0.268152
0.282908
0.298466
0.314889
0.3322
0.350379
0.36935
0.388973
0.40904
0.429269
0.449318
0.468819
0.487443
0.504996
0.521508
0.537297
0.55301
0.569648
0.588595
0.611667
0.64119
0.680089
0.732298
0.802427
0.896264
1.02124
1.1874
1.40949
1.71183
2.13836
0.262359
0.173717
0.15209
0.148912
0.152852
0.16031
0.169731
0.18033
0.19169
0.203597
0.215969
0.228807
0.242165
0.256133
0.270819
0.28633
0.302765
0.320199
0.33867
0.358169
0.378629
0.399913
0.421808
0.44401
0.466129
0.487713
0.508335
0.527707
0.545793
0.562878
0.579594
0.596918
0.616176
0.63907
0.667733
0.704805
0.753845
0.818916
0.904983
1.0182
1.1665
1.36085
1.61785
1.9647
0.283437
0.177203
0.152875
0.148975
0.152687
0.160085
0.169523
0.180193
0.191673
0.203758
0.216374
0.229532
0.243296
0.257768
0.273065
0.289309
0.306612
0.325062
0.344709
0.365557
0.387549
0.410557
0.434368
0.458668
0.483018
0.506875
0.529686
0.551048
0.570843
0.589323
0.607106
0.625145
0.6447
0.667341
0.694988
0.729989
0.775458
0.834976
0.912737
1.01379
1.14436
1.31253
1.52967
1.81272
0.308405
0.182029
0.154847
0.150089
0.153367
0.160477
0.169714
0.180256
0.191686
0.203807
0.216552
0.229937
0.244037
0.258958
0.274827
0.291776
0.309927
0.32938
0.350195
0.372387
0.39591
0.420649
0.446406
0.472869
0.499568
0.525859
0.551046
0.574582
0.596263
0.616307
0.635327
0.654256
0.674283
0.69683
0.723593
0.756643
0.798552
0.852577
0.922222
1.01163
1.12572
1.27051
1.45387
1.68663
0.337269
0.188185
0.158085
0.152269
0.154838
0.16139
0.170185
0.180399
0.191617
0.203645
0.216418
0.229956
0.244334
0.25966
0.276067
0.293692
0.312667
0.333097
0.355052
0.378554
0.403567
0.429991
0.457652
0.486271
0.51537
0.544216
0.571949
0.597867
0.621676
0.643571
0.664168
0.684381
0.705317
0.728237
0.754594
0.786152
0.825071
0.87426
0.936672
1.01575
1.11545
1.24031
1.39585
1.58924
0.369104
0.19555
0.162655
0.155497
0.157011
0.162698
0.170803
0.180497
0.191359
0.203186
0.21591
0.229546
0.244162
0.259866
0.276788
0.295069
0.314845
0.336225
0.359283
0.384043
0.410477
0.438492
0.467951
0.498633
0.530096
0.561545
0.591966
0.620502
0.646781
0.670987
0.693742
0.715923
0.738532
0.762652
0.789491
0.820509
0.857482
0.903027
0.959687
1.0304
1.11838
1.22703
1.36022
1.5228
0.401739
0.204205
0.168748
0.159818
0.15984
0.164314
0.171476
0.18047
0.19085
0.202395
0.215017
0.228717
0.243553
0.259625
0.277056
0.295987
0.316554
0.338866
0.362994
0.388965
0.416745
0.446245
0.477352
0.509924
0.543605
0.577594
0.61078
0.642197
0.671422
0.698633
0.72443
0.749608
0.775002
0.801514
0.830127
0.862013
0.898544
0.942
0.994784
1.05949
1.13872
1.23494
1.35063
1.48906
1.6546
0.431729
0.214975
0.176921
0.165502
0.163431
0.166273
0.172216
0.180336
0.190129
0.201328
0.213815
0.227565
0.242623
0.259071
0.277023
0.296618
0.317984
0.341227
0.366413
0.393566
0.422647
0.453552
0.486172
0.520419
0.556043
0.592345
0.628266
0.662845
0.695657
0.726841
0.756909
0.786468
0.816084
0.846505
0.878595
0.913209
0.951204
0.994323
1.04526
1.10628
1.17947
1.26651
1.36893
1.48855
1.62813
0.454758
0.229845
0.18841
0.173217
0.168141
0.168782
0.173171
0.180228
0.189331
0.200134
0.212465
0.226266
0.241557
0.258405
0.276908
0.297196
0.319388
0.343579
0.369831
0.398161
0.428526
0.460813
0.494896
0.530657
0.567874
0.606089
0.644596
0.682653
0.719882
0.756318
0.792274
0.828007
0.863552
0.899665
0.937428
0.97724
1.01879
1.06357
1.11481
1.17442
1.24399
1.32471
1.41717
1.52115
1.63863
0.466671
0.252198
0.205466
0.184132
0.174569
0.172185
0.174584
0.180353
0.188655
0.199009
0.211163
0.225013
0.240548
0.25782
0.276912
0.297936
0.320993
0.346166
0.373512
0.403038
0.434709
0.468449
0.50416
0.541571
0.580151
0.619836
0.660748
0.702684
0.745361
0.788578
0.832384
0.876459
0.919667
0.963287
1.00953
1.05804
1.10553
1.15356
1.20702
1.26747
1.33607
1.41424
1.50047
1.58981
1.68589
0.474951
0.288589
0.231487
0.199793
0.183443
0.176921
0.176819
0.181075
0.188477
0.198338
0.2103
0.224196
0.239981
0.257702
0.27744
0.299276
0.323279
0.349526
0.378073
0.408899
0.441975
0.477341
0.515111
0.55476
0.594647
0.635355
0.678602
0.724955
0.774176
0.825563
0.879231
0.934146
0.986108
1.03836
1.09432
1.1492
1.19992
1.25061
1.30661
1.37156
1.44702
1.53396
1.62548
1.69848
1.77232
0.508234
0.346762
0.270049
0.221745
0.195534
0.183573
0.180479
0.18306
0.189525
0.198896
0.210685
0.224662
0.240729
0.258957
0.279457
0.302259
0.327369
0.354862
0.38481
0.417116
0.45174
0.488904
0.529342
0.57226
0.613142
0.654315
0.699857
0.751046
0.80761
0.867712
0.931943
0.99394
1.04782
1.09867
1.15055
1.20202
1.25596
1.31242
1.37226
1.44044
1.51818
1.60799
1.70992
1.80437
1.88723
0.612236
0.429677
0.321349
0.24982
0.210964
0.192494
0.18611
0.186999
0.192609
0.201594
0.213334
0.227519
0.243946
0.262794
0.284243
0.308245
0.334631
0.363458
0.394864
0.428591
0.464566
0.503003
0.544235
0.586993
0.629845
0.674182
0.722746
0.777638
0.837555
0.898214
0.958243
1.01128
1.0594
1.10292
1.14877
1.20153
1.26134
1.32478
1.39133
1.46499
1.5481
1.64132
1.74206
1.84714
1.95282
0.785765
0.505593
0.358646
0.280387
0.228035
0.202472
0.192305
0.191043
0.195453
0.203884
0.215502
0.229877
0.246788
0.266264
0.28837
0.313027
0.340072
0.36952
0.401441
0.435713
0.472115
0.510469
0.550321
0.591949
0.637139
0.684936
0.735077
0.788402
0.843204
0.896877
0.948336
0.997136
1.04294
1.08529
1.12923
1.18059
1.2414
1.30992
1.38492
1.46712
1.55789
1.65853
1.76814
1.88
1.98606
0.927943
0.507509
0.392441
0.301031
0.241576
0.211234
0.197861
0.194447
0.197422
0.204951
0.216028
0.230126
0.247038
0.26655
0.288543
0.31294
0.339736
0.368909
0.40036
0.43416
0.470116
0.508018
0.548154
0.591463
0.638426
0.687511
0.737337
0.787789
0.838571
0.888199
0.935406
0.980222
1.02275
1.06366
1.10662
1.15663
1.21721
1.28911
1.37175
1.46412
1.56541
1.67541
1.79317
1.91291
2.02677
0.951586
0.496991
0.391669
0.304188
0.248374
0.217737
0.203055
0.198309
0.200167
0.206803
0.217186
0.230756
0.247195
0.266263
0.287871
0.312016
0.338677
0.367768
0.399225
0.433085
0.46923
0.507585
0.548419
0.592426
0.639699
0.688925
0.73861
0.788026
0.83678
0.883856
0.928217
0.969652
1.00879
1.04735
1.08877
1.13769
1.19848
1.27375
1.36395
1.46761
1.58204
1.70439
1.83169
1.95867
2.07883
0.805195
0.423153
0.352641
0.290544
0.24645
0.219888
0.206208
0.201387
0.202839
0.20901
0.218972
0.232186
0.248322
0.26715
0.288563
0.312549
0.339101
0.368172
0.399745
0.433856
0.470485
0.509638
0.551474
0.596242
0.643805
0.693202
0.743155
0.792588
0.840569
0.88601
0.927975
0.966323
1.00212
1.03781
1.07721
1.12519
1.18684
1.26612
1.36469
1.48127
1.612
1.75148
1.89342
2.0307
2.15671
0.667029
0.365717
0.314214
0.271462
0.239283
0.21865
0.207605
0.203853
0.205666
0.211898
0.221812
0.234951
0.251026
0.269843
0.291301
0.315374
0.342064
0.37137
0.403305
0.437921
0.475242
0.51529
0.558099
0.60365
0.651635
0.701272
0.751427
0.800821
0.848107
0.891976
0.931526
0.966817
0.999308
1.03199
1.06922
1.11641
1.17939
1.26324
1.37094
1.5021
1.65229
1.81432
1.97853
2.13423
2.2722
0.601096
0.341428
0.28864
0.254801
0.231011
0.215905
0.208061
0.206087
0.208886
0.215683
0.225951
0.239345
0.255641
0.274694
0.296424
0.320811
0.347867
0.377615
0.410089
0.445337
0.483385
0.524223
0.567784
0.613877
0.662079
0.711625
0.761396
0.809989
0.855845
0.897544
0.934266
0.966308
0.995483
1.02522
1.06038
1.10693
1.17141
1.2599
1.37676
1.52312
1.6955
1.88515
2.08041
2.26677
2.43058
0.592566
0.337145
0.274362
0.242812
0.223872
0.212967
0.208123
0.208173
0.212338
0.220089
0.231065
0.245023
0.261807
0.281317
0.303503
0.328358
0.355904
0.386173
0.419202
0.455023
0.493634
0.53497
0.578866
0.625007
0.672858
0.721587
0.770029
0.816718
0.860058
0.898684
0.931955
0.960436
0.986252
1.01317
1.04642
1.09241
1.15821
1.25078
1.37583
1.53642
1.73131
1.95338
2.18893
2.42178
2.63304
0.618606
0.34243
0.267309
0.234945
0.21844
0.210394
0.208009
0.209998
0.215666
0.224594
0.23652
0.25127
0.26874
0.288865
0.31162
0.337009
0.365056
0.395792
0.429243
0.465411
0.504247
0.545615
0.589257
0.634743
0.681424
0.72838
0.774396
0.818015
0.857735
0.892385
0.921586
0.946203
0.968629
0.992859
1.02434
1.06969
1.13631
1.23177
1.363
1.53515
1.7502
2.00544
2.29126
2.58918
2.8772
0.66772
0.351981
0.264469
0.230045
0.214533
0.208286
0.207756
0.211418
0.21853
0.22869
0.241666
0.257321
0.275573
0.296378
0.319723
0.345614
0.374069
0.405107
0.438727
0.474889
0.513486
0.554304
0.596988
0.641003
0.685597
0.729778
0.772315
0.811831
0.847016
0.876976
0.901655
0.922216
0.941273
0.962944
0.992715
1.03721
1.10389
1.20066
1.33531
1.51488
1.74503
2.02956
2.36869
2.75226
3.15131
0.730824
0.362606
0.263813
0.227071
0.211775
0.206583
0.207367
0.212363
0.220732
0.232034
0.246026
0.262571
0.281587
0.303033
0.326891
0.353158
0.381838
0.412923
0.446373
0.4821
0.519926
0.559558
0.60055
0.642275
0.683905
0.724409
0.762597
0.797235
0.827261
0.852108
0.872054
0.888537
0.904331
0.923569
0.951629
0.994953
1.06084
1.15719
1.29226
1.47441
1.71249
2.01755
2.40404
2.88212
3.42809
0.800313
0.372499
0.264117
0.22529
0.209846
0.205225
0.206883
0.212867
0.222234
0.234487
0.249349
0.266658
0.286316
0.308266
0.332472
0.358913
0.387562
0.418375
0.451268
0.486092
0.522602
0.560425
0.599037
0.637741
0.675667
0.711798
0.745033
0.774329
0.798905
0.818526
0.833787
0.84635
0.859077
0.876022
0.902338
0.944144
1.0084
1.10279
1.23558
1.41574
1.65418
1.96794
2.3871
2.95271
3.67576
0.870554
0.380924
0.264798
0.224292
0.20856
0.204199
0.20639
0.213042
0.223123
0.236079
0.251588
0.269455
0.289551
0.311793
0.336116
0.362466
0.39078
0.420971
0.452902
0.486363
0.52104
0.556495
0.592143
0.627247
0.660935
0.692248
0.720222
0.744029
0.76318
0.77775
0.788603
0.797565
0.807504
0.822315
0.846842
0.886798
0.948707
1.0399
1.16843
1.34326
1.57609
1.88769
2.3216
2.95569
3.86356
0.937831
0.387795
0.265682
0.223895
0.207837
0.203537
0.206
0.213038
0.223555
0.236943
0.25284
0.271009
0.29129
0.313562
0.337726
0.363689
0.391344
0.420556
0.451134
0.482808
0.515206
0.547836
0.580078
0.61119
0.640334
0.666648
0.689337
0.707799
0.721817
0.731743
0.73865
0.744449
0.751944
0.764797
0.787487
0.825292
0.884308
0.971464
1.09447
1.26203
1.48597
1.78895
2.22198
2.89483
3.95842
0.999868
0.393352
0.266786
0.22404
0.207653
0.20328
0.205812
0.212999
0.223695
0.237252
0.253267
0.271468
0.291659
0.313681
0.337396
0.362667
0.389342
0.417237
0.446111
0.475642
0.505407
0.534881
0.56344
0.590367
0.614882
0.636257
0.65389
0.667392
0.676771
0.682622
0.68615
0.689268
0.694621
0.705577
0.72623
0.761451
0.816974
0.899485
1.01663
1.17712
1.39234
1.6833
2.1009
2.76665
3.88766
1.05539
0.397945
0.268176
0.224699
0.207985
0.203443
0.20589
0.21303
0.223683
0.237167
0.253047
0.271018
0.290849
0.312346
0.335331
0.359622
0.385024
0.411306
0.438184
0.465301
0.49219
0.51831
0.543065
0.565814
0.585821
0.602511
0.615477
0.624563
0.629993
0.632472
0.633248
0.63415
0.637611
0.646675
0.665041
0.69717
0.748442
0.825316
0.935417
1.08762
1.29321
1.57157
1.96816
2.59028
3.63277
1.10382
0.401951
0.2699
0.225826
0.208781
0.204001
0.206245
0.213183
0.223607
0.236811
0.252332
0.269837
0.289063
0.309783
0.331786
0.354848
0.378726
0.403154
0.427817
0.452346
0.47624
0.498934
0.519899
0.538556
0.554344
0.566828
0.575758
0.581146
0.583353
0.583147
0.581747
0.580847
0.582629
0.589794
0.605638
0.63419
0.680431
0.750528
0.851996
0.993752
1.18667
1.44728
1.81122
2.36418
3.27741
1.14519
0.405788
0.271956
0.227325
0.209941
0.204876
0.206832
0.21345
0.223501
0.236255
0.25123
0.268068
0.286479
0.30621
0.327022
0.348655
0.370818
0.393219
0.415516
0.437312
)
;

boundaryField
{
    leftWall
    {
        Cmu             0.09;
        kappa           0.41;
        E               9.8;
        type            epsilonWallFunction;
        value           nonuniform List<scalar> 
44
(
0.0342386
0.0499985
0.0719088
0.0960788
0.11762
0.135257
0.149488
0.16178
0.17288
0.183394
0.193825
0.204723
0.216472
0.229579
0.244643
0.262359
0.283437
0.308405
0.337269
0.369104
0.401739
0.431729
0.454758
0.466671
0.474951
0.508234
0.612236
0.785765
0.927943
0.951586
0.805195
0.667029
0.601096
0.592566
0.618606
0.66772
0.730824
0.800313
0.870554
0.937831
0.999868
1.05539
1.10382
1.14519
)
;
    }
    rightWall
    {
        Cmu             0.09;
        kappa           0.41;
        E               9.8;
        type            epsilonWallFunction;
        value           nonuniform 0();
    }
    lowerWall
    {
        Cmu             0.09;
        kappa           0.41;
        E               9.8;
        type            epsilonWallFunction;
        value           nonuniform List<scalar> 
44
(
0.0342386
0.101861
0.195897
0.285385
0.357509
0.418254
0.471989
0.522084
0.571247
0.621603
0.674781
0.732014
0.794224
0.862085
0.936045
1.01632
1.1029
1.1955
1.29357
1.39626
1.50245
1.61071
1.71937
1.82649
1.92993
2.02736
2.11637
2.19443
2.25904
2.30769
2.33777
2.34629
2.32918
2.29913
2.25136
2.18179
2.08811
1.96975
1.82851
1.66947
1.50166
1.33401
1.16532
1.05367
)
;
    }
    atmosphere
    {
        type            inletOutlet;
        inletValue      nonuniform 0();
        value           nonuniform 0();
    }
    defaultFaces
    {
        type            empty;
    }
    procBoundary0to1
    {
        type            processor;
        value           nonuniform List<scalar> 
44
(
0.91255
1.04686
1.52356
1.94143
2.33483
2.7022
3.07537
3.50138
4.02688
4.6344
4.6149
4.1671
3.63792
3.16386
2.76768
2.44485
2.18629
1.98341
1.82972
1.72102
1.72102
1.85281
1.79215
1.77422
1.79517
1.85576
1.95451
2.04977
2.09089
2.1358
2.19187
2.27019
2.38924
2.56408
2.80614
3.12441
3.51773
3.96935
4.45842
4.96809
5.41492
5.57349
5.28569
4.76934
)
;
    }
    procBoundary0to2
    {
        type            processor;
        value           nonuniform List<scalar> 
46
(
0.458125
0.477466
0.494846
0.509771
0.521813
0.53067
0.53623
0.53863
0.538308
0.536044
0.532979
0.530634
0.530925
0.536202
0.549342
0.573917
0.61444
0.676656
0.767779
0.89655
1.07327
1.31138
1.63541
2.1038
2.84807
1.18016
0.409932
0.27427
0.229047
0.211317
0.205942
0.207556
0.213772
0.223339
0.235514
0.249796
0.265808
0.283238
0.301805
0.321237
0.341252
0.361553
0.381818
0.401692
0.458125
0.42078
)
;
    }
}


// ************************************************************************* //
