/*--------------------------------*- C++ -*----------------------------------*\
| =========                 |                                                 |
| \\      /  F ield         | OpenFOAM: The Open Source CFD Toolbox           |
|  \\    /   O peration     | Version:  5.0                                   |
|   \\  /    A nd           | Web:      www.OpenFOAM.org                      |
|    \\/     M anipulation  |                                                 |
\*---------------------------------------------------------------------------*/
FoamFile
{
    version     2.0;
    format      ascii;
    class       volScalarField;
    location    "0.3";
    object      k;
}
// * * * * * * * * * * * * * * * * * * * * * * * * * * * * * * * * * * * * * //

dimensions      [0 2 -2 0 0 0 0];

internalField   nonuniform List<scalar> 
1935
(
0.0037896
0.00716612
0.01108
0.0142358
0.0165517
0.0183791
0.019923
0.0213108
0.022631
0.0239459
0.0252979
0.0267153
0.0282161
0.0298101
0.0315012
0.0332872
0.0351611
0.0371112
0.0391211
0.0411708
0.0432364
0.0452911
0.0473056
0.0492484
0.0510867
0.0527863
0.0543129
0.055632
0.0567093
0.0575104
0.0579986
0.0581281
0.0578337
0.0573328
0.0565313
0.0553564
0.0537584
0.0517098
0.0492169
0.0463404
0.0432155
0.0399745
0.0365868
0.0341636
0.00538588
0.0149657
0.0224143
0.02822
0.0327305
0.0363492
0.0394008
0.0421375
0.0447409
0.0473336
0.0499961
0.0527787
0.0557109
0.0588059
0.0620642
0.0654754
0.0690198
0.0726695
0.0763894
0.0801384
0.0838703
0.087535
0.0910792
0.0944482
0.0975864
0.10044
0.102958
0.105097
0.106818
0.108099
0.108931
0.109322
0.109281
0.108708
0.107803
0.106685
0.105538
0.104637
0.104356
0.105109
0.10706
0.109172
0.107854
0.099927
0.00683429
0.0189745
0.0274307
0.0342046
0.0397152
0.0443151
0.0483136
0.051965
0.0554611
0.0589365
0.0624812
0.0661519
0.0699801
0.0739783
0.0781437
0.082461
0.0869044
0.0914394
0.0960238
0.100609
0.105142
0.109564
0.113814
0.117831
0.121552
0.124919
0.12788
0.130393
0.13243
0.133987
0.135082
0.135769
0.136125
0.136212
0.136203
0.136234
0.136436
0.136933
0.137884
0.139551
0.14223
0.145494
0.146616
0.141737
0.00828551
0.021998
0.0309708
0.0381533
0.0441983
0.0494407
0.0541458
0.0585338
0.0627765
0.0669984
0.0712842
0.075687
0.0802355
0.0849388
0.089791
0.0947736
0.0998577
0.105006
0.110173
0.115309
0.120357
0.125256
0.129943
0.134352
0.138422
0.142094
0.145319
0.148061
0.150307
0.152071
0.153404
0.154399
0.155194
0.155957
0.15693
0.158302
0.160193
0.162606
0.165412
0.168429
0.171565
0.174707
0.176931
0.175982
0.00948131
0.0244457
0.033732
0.0411504
0.0475564
0.0532947
0.0585933
0.0636331
0.0685559
0.0734653
0.0784326
0.0835015
0.0886942
0.0940155
0.0994564
0.104996
0.110605
0.116246
0.121872
0.127434
0.132875
0.138132
0.143144
0.147844
0.152172
0.15607
0.159496
0.162424
0.164853
0.166819
0.1684
0.169729
0.170993
0.172424
0.174332
0.17696
0.180449
0.184759
0.189608
0.194515
0.199015
0.20294
0.206413
0.208498
0.0104126
0.0262744
0.0358295
0.0434954
0.050246
0.0564403
0.0622842
0.0679288
0.0734877
0.0790425
0.0846475
0.0903351
0.0961194
0.102
0.107966
0.113996
0.120061
0.126122
0.132138
0.138058
0.143826
0.149384
0.154666
0.159612
0.164159
0.168256
0.171866
0.174971
0.177587
0.179768
0.181621
0.183311
0.185065
0.187163
0.189965
0.193759
0.198723
0.204824
0.21174
0.218868
0.22552
0.23133
0.236606
0.240658
0.0111318
0.0275947
0.0373857
0.0453492
0.0524826
0.059142
0.0655189
0.0717433
0.0779064
0.0840699
0.0902725
0.0965348
0.102864
0.109255
0.115695
0.122163
0.128632
0.135066
0.141425
0.147661
0.153721
0.159546
0.165074
0.170245
0.174999
0.179289
0.183083
0.186374
0.18919
0.191605
0.19375
0.19582
0.198074
0.20083
0.204479
0.209357
0.215682
0.223463
0.232408
0.241915
0.25121
0.259714
0.26742
0.273049
0.0117344
0.0285543
0.0385564
0.046858
0.0544118
0.061554
0.0684624
0.0752501
0.0819902
0.0887278
0.0954879
0.102281
0.109109
0.115964
0.122833
0.129697
0.136529
0.143299
0.149969
0.156494
0.162823
0.1689
0.174664
0.180055
0.185017
0.189505
0.193493
0.196982
0.200014
0.202679
0.205129
0.207584
0.210333
0.213724
0.21816
0.224028
0.231592
0.240918
0.251789
0.263678
0.275827
0.287513
0.298287
0.305949
0.012266
0.0292802
0.0394908
0.0481573
0.0561524
0.0637852
0.0712188
0.0785512
0.0858397
0.0931151
0.100391
0.107672
0.114953
0.122228
0.129484
0.136703
0.143866
0.150942
0.1579
0.164696
0.171282
0.177604
0.183603
0.18922
0.194399
0.199097
0.203293
0.206995
0.210256
0.21318
0.215937
0.218769
0.221988
0.225966
0.23111
0.237857
0.246511
0.2572
0.269801
0.283897
0.298819
0.313811
0.328129
0.338975
0.0127602
0.0298736
0.0403131
0.0493614
0.0578017
0.0659184
0.0738608
0.0817118
0.0895143
0.0972867
0.105034
0.112756
0.120446
0.128097
0.135699
0.14324
0.150702
0.158061
0.165288
0.172343
0.179182
0.18575
0.19199
0.197842
0.203252
0.208177
0.212597
0.216527
0.220025
0.22321
0.226266
0.229452
0.233096
0.237589
0.243345
0.250831
0.260386
0.272194
0.286218
0.302151
0.319435
0.337361
0.355148
0.370448
0.013243
0.0304161
0.0411238
0.0505656
0.0594454
0.0680305
0.0764577
0.0847958
0.0930742
0.101301
0.109476
0.117593
0.125648
0.133636
0.14155
0.149382
0.157119
0.164742
0.172226
0.179535
0.186627
0.193448
0.199942
0.206048
0.211709
0.216881
0.221544
0.225714
0.229458
0.232902
0.236242
0.239749
0.243765
0.248687
0.254939
0.263001
0.273234
0.285865
0.300913
0.318149
0.337081
0.357006
0.377052
0.395303
0.0137406
0.0309794
0.0420082
0.0518505
0.0611553
0.0701837
0.0790625
0.0878473
0.096556
0.105189
0.113741
0.122207
0.130583
0.138867
0.147057
0.155151
0.163141
0.171013
0.178745
0.186307
0.193656
0.200742
0.207507
0.213887
0.219822
0.225265
0.230192
0.234618
0.238612
0.242307
0.245907
0.24969
0.254006
0.259257
0.265865
0.274308
0.284958
0.298058
0.313653
0.331535
0.3512
0.371834
0.392235
0.410138
0.0142704
0.0316208
0.0430261
0.053266
0.0629699
0.0724038
0.0816876
0.0908662
0.0999488
0.10893
0.117804
0.126565
0.135213
0.143751
0.152182
0.160508
0.168728
0.176832
0.184803
0.192614
0.200226
0.207588
0.21464
0.221317
0.227552
0.23329
0.2385
0.243194
0.247438
0.251368
0.255194
0.259198
0.263732
0.269195
0.276005
0.284614
0.295399
0.308597
0.324247
0.34212
0.361654
0.381871
0.40121
0.416923
0.0148535
0.0323952
0.0442283
0.0548523
0.064919
0.0747098
0.0843414
0.0938515
0.103244
0.11251
0.121645
0.130647
0.139518
0.148266
0.156901
0.16543
0.173856
0.182176
0.190376
0.198434
0.206312
0.21396
0.221317
0.228312
0.234872
0.24093
0.246445
0.251416
0.255908
0.260056
0.26407
0.268235
0.272898
0.278453
0.285312
0.293868
0.304511
0.317455
0.332714
0.350026
0.368771
0.387869
0.4056
0.419145
0.0155133
0.0333539
0.045653
0.0566337
0.0670142
0.0771015
0.0870138
0.0967849
0.106417
0.115902
0.125236
0.134422
0.143466
0.152383
0.161185
0.169887
0.178497
0.187015
0.195435
0.203734
0.211878
0.21982
0.227496
0.234831
0.241741
0.248146
0.253985
0.259248
0.263987
0.268334
0.272501
0.276769
0.28148
0.287013
0.29376
0.302081
0.312342
0.324731
0.339235
0.35557
0.373094
0.390715
0.40675
0.418621
0.0162744
0.0345424
0.047322
0.0586131
0.0692442
0.0795562
0.0896732
0.0996297
0.109428
0.119064
0.128537
0.137853
0.147024
0.156069
0.165005
0.173852
0.182622
0.191322
0.199947
0.208479
0.216887
0.225125
0.233129
0.240821
0.248105
0.254883
0.261073
0.266641
0.271631
0.276168
0.280462
0.284791
0.289487
0.294909
0.301423
0.30936
0.31905
0.330655
0.344146
0.359231
0.375288
0.391281
0.405674
0.416252
0.0171577
0.035995
0.0492327
0.0607654
0.0715691
0.0820245
0.0922653
0.10233
0.112224
0.121947
0.131502
0.140899
0.150155
0.159292
0.168333
0.177299
0.186209
0.195072
0.203888
0.212641
0.221304
0.229833
0.238167
0.246226
0.253905
0.261083
0.26765
0.273547
0.2788
0.283531
0.287946
0.292322
0.296974
0.302239
0.308453
0.315918
0.324917
0.335601
0.347932
0.361632
0.376125
0.390478
0.403342
0.412873
0.0181724
0.0377199
0.0513449
0.0630289
0.0739166
0.0844299
0.0947141
0.104813
0.114738
0.124491
0.13408
0.143518
0.152826
0.162027
0.171147
0.180213
0.189245
0.198254
0.207244
0.216203
0.225106
0.233913
0.242569
0.250997
0.259084
0.266688
0.273662
0.279919
0.285464
0.290415
0.29498
0.299427
0.304058
0.309181
0.315097
0.322079
0.330353
0.340082
0.351221
0.363525
0.376486
0.389285
0.400764
0.409406
0.0193027
0.0396752
0.0535689
0.0653013
0.0761834
0.0866737
0.096929
0.107
0.116901
0.12664
0.136227
0.145677
0.155013
0.164259
0.173444
0.182594
0.191734
0.200877
0.210027
0.219174
0.228297
0.23736
0.246318
0.255101
0.263601
0.271649
0.279065
0.285723
0.291611
0.296844
0.301629
0.306231
0.310928
0.315997
0.321696
0.328263
0.335888
0.344731
0.35476
0.365771
0.37733
0.388731
0.398979
0.406822
0.0204968
0.0417435
0.05576
0.0674457
0.0782466
0.0886481
0.0988177
0.108813
0.118652
0.128348
0.137911
0.147358
0.15671
0.165994
0.175237
0.184467
0.193709
0.202977
0.212276
0.221597
0.230919
0.240211
0.249438
0.25855
0.267447
0.275949
0.283836
0.290948
0.297258
0.302879
0.308018
0.312926
0.317855
0.323038
0.32869
0.335007
0.342146
0.350268
0.359363
0.369278
0.379646
0.389845
0.399005
0.406075
0.0216624
0.0437195
0.0577336
0.0693137
0.0799877
0.0902589
0.100307
0.110198
0.119956
0.129595
0.139127
0.148568
0.15794
0.167265
0.176571
0.185886
0.195234
0.204628
0.214073
0.223559
0.233066
0.242563
0.252023
0.26142
0.270679
0.279619
0.287995
0.295624
0.302469
0.30864
0.314335
0.319778
0.325175
0.330717
0.336571
0.342889
0.349783
0.357406
0.365803
0.374874
0.384304
0.393522
0.401726
0.408007
0.411395
0.0226738
0.0453323
0.0593081
0.0707878
0.0813284
0.0914553
0.101368
0.111146
0.120819
0.130402
0.13991
0.149356
0.15876
0.168143
0.177529
0.186944
0.196412
0.205944
0.215542
0.225196
0.234886
0.244576
0.254243
0.263878
0.273434
0.282756
0.291615
0.29983
0.30736
0.314304
0.32083
0.327108
0.333274
0.339477
0.345854
0.3525
0.35945
0.366816
0.37476
0.383218
0.391913
0.400312
0.407681
0.413167
0.415904
0.0233958
0.046314
0.060374
0.0718347
0.0822678
0.0922525
0.10203
0.111697
0.121293
0.130835
0.140335
0.149806
0.159264
0.168729
0.178219
0.18776
0.197372
0.207062
0.21683
0.226666
0.236547
0.24644
0.256315
0.266157
0.275929
0.285539
0.294848
0.303723
0.31213
0.320132
0.327838
0.335325
0.342601
0.349804
0.357107
0.364507
0.371833
0.379203
0.386936
0.394987
0.403094
0.410788
0.417361
0.421862
0.423596
0.0237561
0.0465079
0.0609691
0.0725505
0.0829
0.092736
0.102373
0.111936
0.121469
0.130987
0.1405
0.150017
0.159554
0.169127
0.178753
0.188452
0.198237
0.208113
0.218077
0.228116
0.238211
0.248341
0.258488
0.268592
0.278532
0.288323
0.298036
0.307662
0.317172
0.326556
0.335847
0.344971
0.353677
0.3622
0.370919
0.379669
0.387716
0.395248
0.402953
0.41078
0.41848
0.425731
0.431631
0.434706
0.43482
0.0241022
0.0459381
0.0613477
0.0731989
0.0834242
0.0930683
0.102556
0.112027
0.121519
0.131037
0.140586
0.150174
0.159811
0.169521
0.179321
0.189221
0.199223
0.209329
0.219536
0.229823
0.240173
0.250602
0.261151
0.271683
0.28178
0.291637
0.301728
0.312215
0.32305
0.334086
0.345345
0.356571
0.366862
0.37685
0.387117
0.39665
0.404834
0.412364
0.420021
0.428135
0.436535
0.444847
0.451389
0.452246
0.450047
0.025489
0.0451332
0.0621629
0.0742907
0.0841829
0.0935294
0.102855
0.112267
0.121763
0.131323
0.140947
0.15064
0.160409
0.170291
0.180318
0.190484
0.200766
0.211163
0.221679
0.232269
0.242914
0.253688
0.264807
0.276033
0.286181
0.295943
0.306386
0.317809
0.330109
0.342862
0.356163
0.368616
0.379038
0.38849
0.397693
0.406306
0.414762
0.422964
0.430913
0.439197
0.447643
0.456176
0.464212
0.468333
0.467788
0.0292359
0.0462393
0.0649334
0.0765746
0.0855861
0.0944292
0.103577
0.112986
0.122565
0.132245
0.142018
0.151885
0.161826
0.171929
0.182254
0.192763
0.203373
0.214081
0.224909
0.235771
0.246641
0.257593
0.268733
0.279721
0.2902
0.30058
0.311571
0.32366
0.336506
0.349201
0.361458
0.371956
0.381123
0.389045
0.397034
0.405815
0.415226
0.424485
0.433366
0.442345
0.4515
0.46051
0.46848
0.474488
0.4776
0.0344211
0.0535062
0.0697671
0.0807026
0.087831
0.0957204
0.104421
0.113627
0.12315
0.132883
0.142783
0.152827
0.163001
0.173344
0.183881
0.194567
0.205329
0.216154
0.227053
0.237983
0.248876
0.259695
0.270332
0.280902
0.291881
0.303027
0.314316
0.32597
0.337624
0.348756
0.359172
0.368757
0.377412
0.385035
0.392581
0.401034
0.410558
0.420615
0.430799
0.441026
0.451271
0.461396
0.470817
0.478104
0.481784
0.0382389
0.0627279
0.0779286
0.084563
0.0899432
0.0970101
0.105241
0.114145
0.123469
0.133091
0.14294
0.152981
0.163217
0.173604
0.184108
0.194696
0.205358
0.216075
0.226814
0.237588
0.248339
0.259017
0.269722
0.280719
0.292134
0.303583
0.314778
0.325754
0.336484
0.346683
0.356114
0.364788
0.372697
0.379931
0.387153
0.395195
0.404502
0.41496
0.426217
0.437854
0.449504
0.46087
0.471468
0.480072
0.485261
0.0380374
0.0653683
0.0798531
0.0857483
0.0913644
0.0983796
0.106454
0.115178
0.124325
0.133783
0.143486
0.1534
0.163503
0.173748
0.18412
0.194617
0.205224
0.215902
0.226622
0.237388
0.248167
0.258941
0.269803
0.280953
0.292422
0.303884
0.315014
0.325705
0.33592
0.345477
0.354188
0.362022
0.369086
0.37567
0.382361
0.389906
0.398897
0.409528
0.42158
0.434538
0.447692
0.460405
0.472029
0.481562
0.487856
0.0337583
0.0601521
0.0762577
0.0846261
0.0918522
0.0995303
0.107799
0.116518
0.125575
0.134911
0.144486
0.154277
0.164259
0.174396
0.184671
0.195081
0.205617
0.216253
0.226971
0.237777
0.248658
0.259617
0.270708
0.282012
0.293504
0.304958
0.316094
0.326711
0.336654
0.345733
0.353783
0.360792
0.366955
0.372696
0.37865
0.385572
0.394159
0.4048
0.417433
0.43154
0.44622
0.460479
0.473338
0.483746
0.490727
0.0299338
0.0555154
0.0721612
0.0830337
0.0920774
0.100734
0.109447
0.118326
0.127402
0.136687
0.146182
0.155884
0.16578
0.175846
0.186066
0.196435
0.206946
0.217586
0.228348
0.239237
0.250252
0.261399
0.27269
0.284132
0.295659
0.307095
0.318197
0.32871
0.338383
0.34698
0.354347
0.360507
0.365729
0.370528
0.375614
0.381802
0.38987
0.400345
0.413306
0.428307
0.444422
0.460377
0.474867
0.486613
0.494569
0.028187
0.0529339
0.0697552
0.0822339
0.0927052
0.102297
0.111539
0.12069
0.129886
0.139205
0.148691
0.158361
0.168219
0.178255
0.18846
0.198827
0.209351
0.220028
0.230855
0.241834
0.252966
0.264244
0.275653
0.287152
0.298649
0.309977
0.320899
0.331132
0.340376
0.348367
0.354963
0.360226
0.364479
0.3683
0.372462
0.377836
0.38526
0.395355
0.408326
0.423855
0.441091
0.458753
0.475277
0.489169
0.499175
0.0280864
0.0521006
0.0691185
0.0825607
0.0939878
0.104305
0.114036
0.123498
0.132883
0.142314
0.151861
0.161564
0.171438
0.181486
0.191706
0.202093
0.212645
0.223359
0.234235
0.245269
0.256454
0.267769
0.279174
0.290599
0.301925
0.312976
0.323508
0.333226
0.341818
0.349026
0.354733
0.35904
0.362309
0.365156
0.368385
0.372896
0.379554
0.38903
0.40163
0.417193
0.435059
0.454151
0.473057
0.490125
0.503869
0.0290088
0.0526064
0.0698719
0.0838687
0.0958593
0.106661
0.116776
0.12653
0.136135
0.145728
0.155393
0.165182
0.175118
0.185211
0.195465
0.205878
0.216449
0.227175
0.238052
0.249071
0.260213
0.271442
0.282695
0.293877
0.304848
0.315414
0.325326
0.334291
0.342015
0.34827
0.352978
0.356279
0.358564
0.360463
0.362783
0.36641
0.372198
0.380823
0.392656
0.407687
0.425533
0.445541
0.466856
0.488242
0.507855
0.0305805
0.0541017
0.0716195
0.0858719
0.0981243
0.109193
0.119568
0.129561
0.139376
0.149148
0.158962
0.168867
0.178891
0.189047
0.199339
0.209768
0.22033
0.231022
0.241834
0.252748
0.263732
0.274734
0.285673
0.296431
0.306849
0.316723
0.325803
0.333813
0.340495
0.345666
0.3493
0.351572
0.352896
0.353895
0.355351
0.358106
0.362961
0.370558
0.381283
0.395245
0.412362
0.432577
0.455986
0.482433
0.510146
0.0324954
0.0562453
0.0739883
0.0882791
0.100578
0.111744
0.12226
0.132419
0.142407
0.152343
0.162302
0.172326
0.18244
0.192654
0.202969
0.213386
0.223897
0.234495
0.245161
0.25587
0.266576
0.27721
0.287674
0.297835
0.307521
0.316522
0.3246
0.331508
0.337033
0.341048
0.343578
0.344837
0.345248
0.345417
0.34608
0.348012
0.351936
0.358427
0.367844
0.380358
0.396139
0.41577
0.440602
0.472177
0.509796
0.0345168
0.0587481
0.0766653
0.0908527
0.103058
0.114202
0.124761
0.135011
0.145115
0.155174
0.165247
0.175365
0.185544
0.195787
0.206092
0.216453
0.226857
0.23729
0.247727
0.258129
0.268437
0.278571
0.288418
0.297832
0.306638
0.314631
0.321592
0.327312
0.331629
0.334474
0.335923
0.336222
0.335797
0.33523
0.335198
0.3364
0.339472
0.34491
0.35302
0.363979
0.378117
0.396555
0.421974
0.458245
0.506798
0.0364885
0.0614009
0.079426
0.0934311
0.105468
0.116511
0.127038
0.137308
0.147464
0.157588
0.167722
0.177887
0.188084
0.198309
0.208552
0.218799
0.229031
0.239225
0.249345
0.259342
0.269146
0.278665
0.287775
0.296328
0.30415
0.311049
0.316836
0.321342
0.32446
0.326176
0.326612
0.326039
0.324885
0.323696
0.323092
0.323698
0.326071
0.330635
0.337649
0.347271
0.359891
0.376979
0.402367
0.442571
0.502529
0.0383209
0.0640627
0.0821319
0.0959236
0.107761
0.118661
0.129102
0.139329
0.149471
0.159594
0.169726
0.179873
0.190027
0.200172
0.210289
0.220356
0.230344
0.240221
0.249941
0.259446
0.268654
0.277464
0.28575
0.293365
0.300143
0.305915
0.310523
0.313845
0.315824
0.316498
0.316026
0.314701
0.312944
0.311266
0.310233
0.310404
0.312277
0.316237
0.322518
0.33127
0.342896
0.359008
0.384088
0.426901
0.496671
0.0399678
0.0666368
0.0847061
0.0982888
0.109926
0.120665
0.130982
0.141115
0.151182
0.161238
0.171299
0.181358
0.191398
0.201393
0.211314
0.221129
0.230801
0.240286
0.249532
0.258468
0.267007
0.275041
0.282448
0.289086
0.294804
0.29946
0.302935
0.305148
0.306088
0.305843
0.304603
0.30267
0.300447
0.298411
0.29708
0.296969
0.298549
0.3022
0.308183
0.316675
0.328058
0.343802
0.368306
0.411159
0.485006
0.04141
0.0690541
0.0871081
0.100511
0.111969
0.122543
0.132713
0.142711
0.15265
0.162576
0.172497
0.182399
0.192253
0.202027
0.211682
0.221175
0.230461
0.239488
0.248193
0.256503
0.264321
0.271538
0.27804
0.283702
0.288383
0.291973
0.294394
0.29561
0.295656
0.294648
0.292795
0.290397
0.287837
0.28556
0.284047
0.283783
0.285234
0.288805
0.294812
0.30349
0.3152
0.331161
0.355136
0.395687
0.46537
0.0426449
0.0712639
0.0893148
0.102584
0.11389
0.124308
0.134317
0.144151
0.153917
0.163659
0.17338
0.183058
0.19266
0.202145
0.211468
0.220576
0.229415
0.237925
0.24604
0.253683
0.260753
0.267136
0.272734
0.277437
0.28114
0.283761
0.285255
0.285623
0.284931
0.283318
0.280999
0.278269
0.275486
0.273065
0.271455
0.271123
0.272539
0.276143
0.282321
0.291378
0.303635
0.31993
0.342977
0.379627
0.441663
0.043683
0.0732284
0.0913078
0.104494
0.115683
0.125957
0.1358
0.145447
0.155007
0.164521
0.17399
0.183389
0.19268
0.201818
0.210752
0.219423
0.227765
0.235714
0.243199
0.25014
)
;

boundaryField
{
    leftWall
    {
        type            kqRWallFunction;
        value           nonuniform List<scalar> 
44
(
0.0037896
0.00538588
0.00683429
0.00828551
0.00948131
0.0104126
0.0111318
0.0117344
0.012266
0.0127602
0.013243
0.0137406
0.0142704
0.0148535
0.0155133
0.0162744
0.0171577
0.0181724
0.0193027
0.0204968
0.0216624
0.0226738
0.0233958
0.0237561
0.0241022
0.025489
0.0292359
0.0344211
0.0382389
0.0380374
0.0337583
0.0299338
0.028187
0.0280864
0.0290088
0.0305805
0.0324954
0.0345168
0.0364885
0.0383209
0.0399678
0.04141
0.0426449
0.043683
)
;
    }
    rightWall
    {
        type            kqRWallFunction;
        value           nonuniform 0();
    }
    lowerWall
    {
        type            kqRWallFunction;
        value           nonuniform List<scalar> 
44
(
0.0037896
0.00716612
0.01108
0.0142358
0.0165517
0.0183791
0.019923
0.0213108
0.022631
0.0239459
0.0252979
0.0267153
0.0282161
0.0298101
0.0315012
0.0332872
0.0351611
0.0371112
0.0391211
0.0411708
0.0432364
0.0452911
0.0473056
0.0492484
0.0510867
0.0527863
0.0543129
0.055632
0.0567093
0.0575104
0.0579986
0.0581281
0.0578337
0.0573328
0.0565313
0.0553564
0.0537584
0.0517098
0.0492169
0.0463404
0.0432155
0.0399745
0.0365868
0.0341636
)
;
    }
    atmosphere
    {
        type            inletOutlet;
        inletValue      nonuniform 0();
        value           nonuniform 0();
    }
    defaultFaces
    {
        type            empty;
    }
    procBoundary0to1
    {
        type            processor;
        value           nonuniform List<scalar> 
44
(
0.0310289
0.0761099
0.123802
0.162782
0.198396
0.231271
0.263132
0.296368
0.333453
0.375482
0.405033
0.416581
0.420736
0.422245
0.421798
0.419703
0.416601
0.413325
0.410782
0.409873
0.409873
0.410911
0.415131
0.422094
0.431978
0.445229
0.461715
0.476175
0.482185
0.486892
0.490592
0.493924
0.498326
0.504628
0.513029
0.523441
0.535225
0.547516
0.560559
0.57559
0.589382
0.59044
0.57039
0.539101
)
;
    }
    procBoundary0to2
    {
        type            processor;
        value           nonuniform List<scalar> 
46
(
0.25644
0.262004
0.26674
0.270557
0.273378
0.275149
0.275854
0.275526
0.27425
0.272179
0.269529
0.26658
0.263666
0.26117
0.259512
0.259143
0.260533
0.264157
0.270466
0.279839
0.292581
0.309159
0.331116
0.363047
0.414702
0.0445482
0.0749191
0.0930675
0.10622
0.117323
0.127469
0.137146
0.146594
0.155923
0.165176
0.174352
0.183428
0.192361
0.201102
0.209594
0.217775
0.22558
0.23294
0.23978
0.25644
0.246021
)
;
    }
}


// ************************************************************************* //
