/*--------------------------------*- C++ -*----------------------------------*\
| =========                 |                                                 |
| \\      /  F ield         | OpenFOAM: The Open Source CFD Toolbox           |
|  \\    /   O peration     | Version:  5.0                                   |
|   \\  /    A nd           | Web:      www.OpenFOAM.org                      |
|    \\/     M anipulation  |                                                 |
\*---------------------------------------------------------------------------*/
FoamFile
{
    version     2.0;
    format      ascii;
    class       volScalarField;
    location    "0.3";
    object      nut;
}
// * * * * * * * * * * * * * * * * * * * * * * * * * * * * * * * * * * * * * //

dimensions      [0 2 -1 0 0 0 0];

internalField   nonuniform List<scalar> 
1935
(
3.77498e-05
4.53736e-05
5.64018e-05
6.39113e-05
6.89668e-05
7.26863e-05
7.5687e-05
7.82889e-05
8.06915e-05
8.30216e-05
8.53586e-05
8.77493e-05
9.02178e-05
9.27727e-05
9.5411e-05
9.81215e-05
0.000100886
0.000103682
0.000106482
0.000109258
0.00011198
0.000114617
0.000117138
0.000119512
0.000121707
0.000123695
0.000125446
0.000126932
0.000128123
0.000128991
0.000129501
0.000129608
0.000129242
0.000128673
0.000127754
0.000126405
0.000124561
0.000122173
0.000119227
0.000115767
0.000111931
0.000107807
0.000103382
9.96934e-05
5.22154e-05
0.000249372
0.000371957
0.000460268
0.000528622
0.000583249
0.000628977
0.000669465
0.000707278
0.000744092
0.000780914
0.000818268
0.00085632
0.000894973
0.000933937
0.000972791
0.00101104
0.00104815
0.00108359
0.00111686
0.00114751
0.00117515
0.0011994
0.00121997
0.00123661
0.0012491
0.00125728
0.00126107
0.00126044
0.00125544
0.00124621
0.00123288
0.00121446
0.00117703
0.00112738
0.00106757
0.00100037
0.000929585
0.000860171
0.00079759
0.000746261
0.000706177
0.000671535
0.000637988
5.84584e-05
0.000339459
0.000548122
0.000719914
0.000866954
0.000996043
0.00111277
0.00122181
0.00132678
0.00143026
0.00153391
0.00163859
0.00174447
0.0018512
0.00195801
0.00206382
0.00216738
0.00226736
0.00236244
0.00245141
0.00253313
0.00260664
0.00267109
0.00272579
0.00277018
0.00280386
0.00282657
0.00283822
0.00283892
0.00282896
0.00280877
0.00277856
0.00273664
0.00267164
0.00258321
0.00246961
0.00232882
0.00215998
0.00196623
0.0017582
0.00155515
0.00137923
0.00124366
0.00113424
6.43063e-05
0.000381164
0.000639941
0.000868524
0.00107736
0.00127137
0.00145489
0.00163199
0.00180608
0.00197969
0.0021544
0.00233091
0.00250908
0.00268811
0.00286667
0.00304304
0.00321529
0.00338142
0.00353945
0.00368754
0.00382401
0.0039474
0.00405645
0.00415015
0.0042277
0.00428854
0.00433239
0.00435924
0.0043694
0.00436346
0.00434216
0.00430588
0.00425302
0.00417559
0.00407022
0.00393111
0.00375046
0.00352001
0.00323525
0.00290202
0.00254352
0.00220051
0.00191211
0.00165879
6.87859e-05
0.000409465
0.000699789
0.00096855
0.00122539
0.00147343
0.0017154
0.00195417
0.00219235
0.00243183
0.00267366
0.00291798
0.00316412
0.00341069
0.00365577
0.00389708
0.00413215
0.00435849
0.00457366
0.00477542
0.00496172
0.00513079
0.00528114
0.00541156
0.00552113
0.00560928
0.00567578
0.00572079
0.00574488
0.00574895
0.00573408
0.00570088
0.00564801
0.00556912
0.00545953
0.00531065
0.00511064
0.00484629
0.00450736
0.00409334
0.00362165
0.00313207
0.00266984
0.00221115
7.21441e-05
0.000430538
0.000746686
0.0010491
0.00134671
0.00164157
0.00193523
0.00222946
0.00252589
0.00282553
0.00312861
0.00343452
0.00374189
0.00404869
0.00435246
0.00465044
0.00493978
0.00521764
0.00548132
0.00572835
0.00595653
0.00616395
0.00634903
0.00651052
0.00664755
0.0067596
0.00684664
0.00690906
0.00694774
0.00696396
0.00695913
0.00693409
0.00688773
0.00681439
0.00670828
0.00655891
0.00635181
0.00607074
0.00570193
0.00523979
0.0046931
0.00408843
0.00345631
0.00276357
7.46049e-05
0.000446685
0.000787742
0.00112284
0.00145891
0.00179712
0.00213828
0.00248333
0.00283297
0.00318729
0.0035456
0.00390646
0.00426778
0.00462693
0.00498098
0.0053268
0.00566127
0.00598139
0.00628433
0.00656757
0.00682887
0.00706635
0.00727848
0.00746412
0.0076225
0.00775335
0.00785685
0.00793372
0.00798522
0.008013
0.00801884
0.00800383
0.00796704
0.00790312
0.00780496
0.00766083
0.00745445
0.00716744
0.00678347
0.00629261
0.00569478
0.00499992
0.00421541
0.00329327
7.66027e-05
0.000459852
0.000826693
0.00119589
0.00157084
0.00195151
0.00233808
0.00273086
0.0031297
0.0035338
0.00394161
0.00435091
0.00475896
0.00516264
0.00555864
0.00594362
0.00631431
0.00666766
0.00700085
0.00731142
0.00759724
0.00785656
0.00808801
0.00829064
0.00846393
0.00860787
0.00872298
0.00881033
0.00887159
0.00890883
0.00892418
0.00891904
0.00889267
0.00884009
0.00875211
0.00861687
0.00841646
0.00813066
0.0077407
0.00723247
0.00659759
0.00583045
0.00491561
0.00378723
7.83261e-05
0.000471736
0.00086625
0.001272
0.0016875
0.00211109
0.00254226
0.00298066
0.00342539
0.00387485
0.00432674
0.00477821
0.005226
0.00566665
0.00609664
0.00651252
0.00691101
0.00728911
0.00764413
0.00797375
0.00827606
0.00854951
0.008793
0.00900585
0.00918785
0.0093393
0.0094611
0.00955471
0.00962223
0.00966614
0.00968897
0.0096924
0.00967593
0.00963489
0.00955852
0.0094347
0.00924413
0.0089648
0.00857535
0.00805747
0.00739531
0.00657013
0.00554718
0.00424188
7.99047e-05
0.000483747
0.000908664
0.00135391
0.0018121
0.00227961
0.00275505
0.00323734
0.00372491
0.00421549
0.0047062
0.00519374
0.00567454
0.00614498
0.00660144
0.00704051
0.007459
0.00785405
0.0082232
0.00856437
0.00887589
0.00915654
0.00940552
0.00962249
0.00980758
0.00996147
0.0100854
0.0101813
0.0102517
0.0102994
0.0103273
0.0103375
0.0103297
0.0102994
0.0102356
0.0101251
0.00994741
0.00967894
0.00929559
0.00877491
0.00809453
0.0072254
0.00611794
0.0046723
8.14336e-05
0.000497091
0.000956059
0.00144428
0.0019477
0.00246042
0.00298001
0.00350467
0.00403223
0.00455993
0.00508452
0.00560247
0.0061101
0.00660374
0.00707987
0.00753517
0.00796668
0.00837176
0.00874822
0.0090943
0.00940867
0.00969046
0.00993925
0.0101551
0.0103384
0.0104904
0.0106126
0.0107073
0.0107774
0.0108263
0.0108571
0.0108723
0.0108719
0.0108515
0.0108005
0.0107046
0.0105425
0.010289
0.00991739
0.00940134
0.00871322
0.00781734
0.00665817
0.00514667
8.3002e-05
0.000512934
0.00101073
0.00154593
0.00209716
0.00265611
0.00321933
0.00378439
0.00434872
0.0049093
0.00546277
0.00600554
0.006534
0.00704461
0.00753399
0.00799909
0.00843718
0.00884595
0.00922354
0.00956857
0.0098801
0.0101577
0.0104013
0.0106114
0.0107889
0.0109353
0.0110524
0.011143
0.0112103
0.011258
0.0112896
0.0113079
0.0113132
0.0113018
0.0112633
0.0111827
0.0110384
0.0108036
0.0104495
0.00994635
0.00926291
0.00836049
0.00718498
0.00566566
8.46664e-05
0.000532168
0.00107411
0.00166002
0.00226083
0.00286595
0.00347112
0.00407361
0.00467072
0.00525945
0.00583653
0.00639853
0.00694201
0.00746364
0.00796032
0.00842928
0.00886812
0.0092749
0.00964816
0.00998695
0.0102908
0.0105597
0.010794
0.0109947
0.0111631
0.0113009
0.0114105
0.0114947
0.011557
0.0116015
0.0116321
0.0116516
0.0116611
0.0116572
0.0116306
0.0115654
0.0114402
0.0112274
0.0108963
0.010415
0.00974991
0.00886221
0.00770331
0.00621909
8.64903e-05
0.000555654
0.00114743
0.00178722
0.00243828
0.00308825
0.00373259
0.00436869
0.0049941
0.00560608
0.0062016
0.0067775
0.00733061
0.00785787
0.0083565
0.00882407
0.00925856
0.00965844
0.0100227
0.0103509
0.010643
0.0108995
0.0111214
0.0113099
0.0114667
0.011594
0.0116941
0.0117703
0.0118263
0.0118662
0.0118941
0.0119133
0.0119252
0.0119271
0.0119108
0.0118604
0.011755
0.0115666
0.0112636
0.0108125
0.0101787
0.00932527
0.0082108
0.00679581
8.85358e-05
0.000584132
0.00123128
0.00192687
0.00262724
0.0033193
0.003999
0.00466434
0.00531338
0.0059438
0.00655291
0.00713787
0.00769579
0.00822396
0.00871992
0.0091816
0.00960742
0.00999631
0.0103478
0.0106618
0.010939
0.0111804
0.0113874
0.0115618
0.0117055
0.0118209
0.0119107
0.011978
0.0120267
0.0120609
0.012085
0.0121024
0.012115
0.0121208
0.0121127
0.012076
0.0119899
0.0118272
0.011556
0.011142
0.0105508
0.00974764
0.00869835
0.00737568
9.08561e-05
0.000618168
0.00132516
0.00207636
0.00282318
0.0035533
0.00426391
0.00495395
0.00562214
0.00626662
0.00688505
0.0074749
0.00803359
0.00855869
0.00904813
0.00950024
0.0099139
0.0102885
0.0106242
0.0109214
0.0111814
0.0114058
0.0115964
0.0117554
0.0118853
0.0119884
0.0120674
0.0121257
0.0121667
0.0121948
0.0122142
0.0122287
0.0122404
0.0122481
0.0122459
0.0122208
0.0121528
0.0120158
0.0117784
0.0114066
0.0108664
0.0101254
0.00915502
0.00793706
9.34774e-05
0.000658047
0.00142696
0.0022307
0.0030192
0.00378251
0.0045195
0.00523009
0.00591358
0.0065685
0.00719281
0.00778421
0.00834043
0.00885935
0.00933928
0.00977898
0.0101778
0.0105358
0.0108535
0.0111322
0.0113735
0.0115796
0.011753
0.0118963
0.0120122
0.0121032
0.0121719
0.0122213
0.012255
0.0122769
0.0122914
0.0123022
0.0123118
0.0123196
0.0123209
0.0123048
0.0122526
0.0121399
0.0119367
0.0116099
0.0111262
0.0104551
0.00957175
0.00846339
9.63709e-05
0.000703465
0.00153227
0.00238217
0.00320623
0.0039978
0.00475723
0.00548512
0.00618107
0.00684381
0.00747151
0.00806209
0.00861352
0.00912403
0.00959231
0.0100176
0.0103999
0.0107397
0.0110382
0.0112972
0.0115191
0.0117066
0.0118627
0.0119905
0.0120929
0.0121725
0.0122317
0.0122731
0.0123001
0.0123164
0.0123262
0.0123332
0.0123399
0.0123464
0.0123491
0.0123389
0.0122998
0.0122089
0.0120384
0.0117568
0.0113321
0.0107349
0.00994248
0.008944
9.9426e-05
0.000752829
0.00163372
0.00252043
0.00337354
0.00418928
0.00496853
0.0057118
0.00641864
0.00708776
0.00771744
0.00830579
0.00885104
0.00935179
0.00980719
0.010217
0.0105818
0.0109027
0.0111815
0.0114207
0.0116232
0.0117923
0.0119316
0.0120445
0.0121343
0.0122036
0.0122545
0.0122893
0.0123108
0.0123226
0.0123285
0.0123322
0.0123361
0.0123406
0.012343
0.0123362
0.0123066
0.0122338
0.0120927
0.0118542
0.0114877
0.010965
0.0102637
0.00937262
0.000102439
0.000801981
0.00172037
0.00263287
0.00350949
0.0043471
0.00514536
0.00590378
0.00662136
0.00729667
0.00792801
0.00851371
0.00905231
0.00954285
0.00998496
0.010379
0.0107262
0.0110283
0.0112877
0.0115077
0.0116916
0.0118432
0.0119665
0.0120656
0.0121441
0.0122044
0.0122485
0.0122781
0.0122957
0.0123046
0.0123083
0.0123101
0.012312
0.0123147
0.012316
0.0123102
0.0122868
0.0122276
0.012111
0.0119108
0.0115987
0.0111473
0.010534
0.00974567
0.000105127
0.000842418
0.00177771
0.00270554
0.0036025
0.0044622
0.00528087
0.006056
0.00678569
0.00746821
0.00810196
0.00868553
0.00921789
0.00969858
0.0101278
0.0105067
0.0108369
0.0111211
0.0113623
0.0115642
0.0117308
0.0118664
0.0119752
0.0120619
0.0121302
0.0121829
0.0122216
0.0122477
0.0122633
0.0122715
0.0122753
0.0122774
0.0122793
0.0122813
0.0122815
0.0122754
0.0122546
0.0122044
0.0121062
0.0119376
0.0116728
0.0112859
0.0107539
0.0100616
0.00920591
0.000107171
0.00086034
0.00178933
0.00272494
0.00364245
0.00452729
0.00537002
0.0061652
0.00690974
0.00760165
0.00823952
0.00882234
0.00934965
0.0098216
0.0102391
0.010604
0.0109187
0.0111866
0.0114113
0.011597
0.0117484
0.0118698
0.0119661
0.0120419
0.0121015
0.0121476
0.012182
0.0122062
0.012222
0.0122322
0.0122391
0.0122446
0.0122493
0.0122527
0.0122529
0.0122459
0.0122249
0.012179
0.0120927
0.0119473
0.0117202
0.0113875
0.010927
0.0103212
0.0095618
0.000108327
0.00083991
0.00174116
0.00268114
0.00362267
0.00453809
0.00541031
0.00623025
0.00699348
0.00769787
0.00834235
0.00892653
0.00945063
0.00991562
0.0103232
0.010676
0.0109772
0.0112309
0.0114413
0.0116133
0.0117517
0.0118615
0.0119475
0.0120145
0.0120666
0.012107
0.0121381
0.0121618
0.0121802
0.0121954
0.0122092
0.0122219
0.012233
0.0122409
0.0122434
0.0122364
0.0122139
0.012168
0.0120871
0.011956
0.0117555
0.0114645
0.0110623
0.0105296
0.00985517
0.000108839
0.000771889
0.00162825
0.00257273
0.00354312
0.00449514
0.00540273
0.00625262
0.00703892
0.00775939
0.00841348
0.00900158
0.00952481
0.00998508
0.010385
0.0107281
0.0110184
0.0112604
0.0114592
0.01162
0.0117481
0.0118489
0.0119277
0.0119887
0.0120352
0.0120705
0.0120989
0.0121236
0.0121469
0.0121707
0.0121955
0.0122201
0.0122413
0.012257
0.0122654
0.0122617
0.0122377
0.0121883
0.012107
0.0119819
0.0117967
0.0115342
0.0111748
0.0106976
0.0100933
0.00011008
0.000658126
0.00146323
0.00241363
0.0034145
0.00440623
0.00535345
0.00623779
0.00705132
0.00779153
0.00845841
0.00905321
0.00957812
0.0100362
0.0104312
0.0107674
0.0110496
0.011283
0.0114731
0.0116256
0.0117461
0.0118408
0.0119159
0.0119746
0.0120172
0.0120479
0.0120742
0.0121015
0.0121323
0.0121677
0.012208
0.0122496
0.0122836
0.0123093
0.0123248
0.0123215
0.0122926
0.0122371
0.0121517
0.0120279
0.0118524
0.0116104
0.0112814
0.0108375
0.0102852
0.000115049
0.000528693
0.00128785
0.00224005
0.00326187
0.00428873
0.00527557
0.00619665
0.00704053
0.00780365
0.00848633
0.00909063
0.00961988
0.0100785
0.0104715
0.0108039
0.0110811
0.0113089
0.0114933
0.0116404
0.011756
0.0118473
0.0119224
0.0119831
0.0120216
0.0120468
0.0120718
0.0121035
0.0121438
0.0121929
0.0122504
0.0123036
0.0123402
0.0123633
0.0123718
0.0123605
0.0123272
0.012268
0.0121782
0.0120521
0.0118791
0.0116473
0.0113423
0.0109403
0.0104356
0.000125649
0.000447841
0.00118087
0.00211244
0.00312494
0.00416906
0.00518795
0.00614403
0.00701936
0.00780768
0.00850887
0.00912547
0.00966151
0.0101233
0.0105173
0.0108491
0.0111241
0.0113486
0.0115295
0.0116729
0.0117848
0.0118724
0.0119426
0.0119966
0.0120338
0.012061
0.0120885
0.0121239
0.0121679
0.0122184
0.0122711
0.0123127
0.01234
0.0123509
0.0123499
0.0123357
0.0123021
0.0122411
0.0121484
0.0120207
0.0118511
0.0116286
0.0113386
0.0109696
0.0105126
0.000135706
0.000509623
0.00122145
0.00209055
0.00304465
0.00407273
0.005103
0.00608243
0.00698339
0.00779464
0.00851415
0.0091442
0.00968946
0.0101567
0.0105527
0.0108843
0.0111576
0.0113796
0.0115578
0.0116986
0.0118075
0.0118905
0.0119514
0.0119969
0.0120343
0.0120658
0.012096
0.0121297
0.0121668
0.0122054
0.0122429
0.0122735
0.0122918
0.0122941
0.0122834
0.0122604
0.0122202
0.0121554
0.0120606
0.0119318
0.0117647
0.0115523
0.0112831
0.0109428
0.0105186
0.000141818
0.000697782
0.00139271
0.00213792
0.00301388
0.00400971
0.00503797
0.00603054
0.00694961
0.00777842
0.00851219
0.00915276
0.00970534
0.0101762
0.0105724
0.0109017
0.0111718
0.0113903
0.0115646
0.0117014
0.0118066
0.0118856
0.0119446
0.0119911
0.0120309
0.0120647
0.0120944
0.012123
0.0121515
0.0121786
0.0122017
0.012218
0.0122231
0.0122137
0.0121901
0.0121526
0.0120981
0.0120216
0.0119187
0.0117848
0.0116167
0.0114098
0.0111565
0.0108433
0.0104566
0.000136841
0.000773799
0.00146523
0.00217546
0.00302475
0.00400055
0.0050229
0.00602055
0.00694973
0.00778912
0.00853152
0.00917786
0.00973312
0.010204
0.0105985
0.0109252
0.0111922
0.0114073
0.0115778
0.0117108
0.0118126
0.0118888
0.011946
0.0119916
0.0120306
0.0120638
0.0120917
0.0121158
0.0121368
0.0121535
0.0121636
0.0121646
0.0121534
0.0121273
0.0120852
0.0120264
0.011949
0.0118502
0.0117275
0.0115794
0.011402
0.0111932
0.0109478
0.0106558
0.010304
0.000127381
0.000769566
0.00148415
0.00221839
0.00308101
0.00405464
0.0050719
0.00606728
0.00699683
0.00783741
0.00858037
0.00922589
0.00977881
0.0102462
0.0106365
0.0109585
0.011221
0.0114318
0.0115985
0.0117283
0.0118277
0.0119027
0.0119597
0.0120048
0.0120425
0.0120743
0.0121003
0.0121205
0.0121349
0.0121418
0.012139
0.0121236
0.0120934
0.0120457
0.0119789
0.0118913
0.0117813
0.0116479
0.0114916
0.0113149
0.0111167
0.0108958
0.0106497
0.0103713
0.0100492
0.000120899
0.000758446
0.0014915
0.00228582
0.00318887
0.0041768
0.00519289
0.00618136
0.00710283
0.00793543
0.00867057
0.00930827
0.0098534
0.0103133
0.0106964
0.0110117
0.0112681
0.0114736
0.011636
0.0117626
0.01186
0.0119343
0.0119914
0.0120364
0.0120731
0.0121033
0.0121268
0.0121432
0.0121509
0.0121478
0.0121313
0.0120983
0.0120465
0.0119732
0.0118757
0.0117515
0.0115991
0.0114189
0.0112142
0.0109915
0.0107584
0.0105137
0.0102575
0.00998545
0.00968835
0.000118959
0.000738604
0.00151719
0.0023886
0.00334825
0.00436218
0.00538153
0.0063611
0.00726868
0.00808608
0.00880632
0.00943001
0.00996231
0.0104107
0.0107837
0.0110903
0.0113392
0.0115385
0.0116961
0.0118192
0.0119144
0.0119877
0.0120444
0.0120888
0.0121242
0.0121521
0.0121722
0.0121833
0.0121833
0.0121692
0.0121377
0.0120858
0.0120103
0.0119078
0.0117746
0.0116072
0.0114036
0.0111655
0.0108993
0.0106156
0.0103276
0.0100474
0.00977206
0.00950064
0.00922653
0.000119811
0.000724622
0.00156714
0.0025265
0.00355129
0.00459768
0.00562351
0.00659379
0.00748438
0.00828209
0.00898262
0.00958787
0.0101036
0.0105375
0.0108981
0.0111943
0.0114345
0.011627
0.0117793
0.0118985
0.011991
0.0120624
0.0121175
0.0121603
0.0121932
0.0122173
0.0122322
0.0122362
0.0122266
0.0121998
0.0121521
0.0120798
0.0119788
0.0118445
0.0116719
0.011456
0.0111944
0.01089
0.0105519
0.0101954
0.00983933
0.00950289
0.00920106
0.00892736
0.00867803
0.00012243
0.000727357
0.00164374
0.00269449
0.00378598
0.00486651
0.00590018
0.00686141
0.00773395
0.00850998
0.00918843
0.00977291
0.01027
0.0106877
0.0110346
0.0113194
0.0115503
0.0117354
0.0118818
0.0119965
0.0120853
0.0121537
0.012206
0.0122455
0.0122741
0.0122927
0.0123003
0.0122951
0.0122738
0.0122327
0.0121675
0.0120736
0.0119459
0.0117782
0.0115636
0.0112959
0.0109722
0.0105964
0.0101806
0.0097442
0.00931151
0.00890856
0.0085612
0.00828612
0.00806774
0.000126048
0.00074842
0.00174554
0.0028849
0.00403926
0.005152
0.00619325
0.00714571
0.00800034
0.00875452
0.00941045
0.00997365
0.0104516
0.0108526
0.0111855
0.0114585
0.0116799
0.0118571
0.0119972
0.0121066
0.012191
0.0122552
0.0123031
0.0123375
0.0123601
0.0123712
0.0123697
0.0123533
0.0123189
0.0122622
0.0121786
0.0120626
0.0119075
0.0117055
0.0114481
0.0111276
0.0107408
0.0102928
0.00979844
0.00928107
0.00876997
0.00829791
0.00790021
0.00761073
0.00743261
0.000130039
0.000785198
0.00186755
0.00308885
0.00429903
0.00543995
0.00648742
0.00743128
0.00826879
0.009002
0.00963625
0.0101789
0.0106383
0.0110232
0.0113423
0.0116039
0.0118157
0.011985
0.0121185
0.0122221
0.0123011
0.0123599
0.0124021
0.01243
0.012445
0.0124471
0.012435
0.0124064
0.0123579
0.0122851
0.0121829
0.0120447
0.0118625
0.0116268
0.0113273
0.0109554
0.010508
0.00999164
0.00942365
0.008831
0.00824725
0.00771126
0.00726762
0.00696209
0.00682313
0.000133981
0.000833884
0.00200283
0.00329743
0.00455521
0.00571948
0.00677136
0.00770673
0.0085282
0.00924193
0.00985601
0.0103795
0.0108216
0.0111914
0.0114977
0.0117484
0.0119511
0.0121126
0.0122392
0.0123366
0.0124096
0.0124623
0.0124978
0.0125182
0.0125246
0.0125167
0.0124933
0.0124521
0.0123894
0.0123009
0.0121805
0.0120211
0.0118131
0.0115455
0.0112066
0.0107874
0.0102853
0.00970871
0.00907756
0.00842191
0.00777878
0.00719177
0.0067134
0.00640056
0.00628875
0.000137645
0.000890744
0.00214414
0.00350278
0.00480013
0.00598306
0.00703758
0.00796464
0.00877136
0.00946737
0.0100632
0.0105692
0.0109956
0.0113517
0.0116462
0.0118868
0.0120809
0.012235
0.0123549
0.0124459
0.0125126
0.0125587
0.012587
0.0125994
0.0125968
0.0125788
0.0125443
0.0124908
0.0124147
0.0123114
0.0121744
0.0119955
0.0117641
0.0114678
0.0110941
0.010634
0.0100864
0.00946127
0.0087816
0.00808014
0.00739611
0.00677557
0.00627626
0.00596417
0.0058827
0.000140925
0.000952468
0.00228509
0.0036987
0.00502853
0.00622609
0.00728183
0.00820098
0.00899438
0.00967457
0.0102541
0.0107446
0.011157
0.0115007
0.0117845
0.012016
0.0122022
0.0123493
0.0124627
0.0125476
0.012608
0.0126475
0.0126686
0.0126731
0.0126617
0.0126342
0.0125892
0.0125246
0.0124367
0.0123204
0.0121688
0.011973
0.0117217
0.0114015
0.0109995
0.0105072
0.00992475
0.0092649
0.00855354
0.00782593
0.00712127
0.00648415
0.00597538
0.00566597
0.00560864
0.000143787
0.00101599
0.00242052
0.00388083
0.00523731
0.00644632
0.00750233
0.00841419
0.0091958
0.0098621
0.0104273
0.0109042
0.0113042
0.011637
0.0119113
0.0121346
0.0123136
0.0124543
0.0125618
0.0126408
0.0126954
0.0127286
0.012743
0.0127401
0.0127209
0.0126849
0.012631
0.0125569
0.0124593
0.0123327
0.01217
0.0119617
0.0116958
0.0113587
0.0109374
0.0104237
0.00981893
0.0091377
0.0084081
0.00766742
0.00695663
0.00631972
0.00581104
0.0054993
0.00544564
0.000146231
0.00107845
0.00254647
0.00404643
0.00542503
0.0066432
0.00769901
0.00860437
0.00937575
0.0100301
0.0105829
0.0110481
0.0114372
0.0117605
0.0120264
0.0122424
0.0124151
0.01255
0.0126522
0.012726
0.0127753
0.0128031
0.0128117
0.0128025
0.0127766
0.012734
0.0126732
0.0125923
0.0124877
0.012354
0.0121842
0.0119684
0.0116945
0.0113489
0.0109188
0.0103963
0.00978335
0.00909562
0.00836233
0.00762171
0.00691428
0.00628039
0.0057673
0.00543999
0.00536538
0.000148278
0.00113713
0.00266003
0.004194
0.00559143
0.00681723
0.00787271
0.0087725
0.00953521
0.0101794
0.0107218
0.0111768
0.0115567
0.0118716
0.0121303
0.0123401
0.0125072
0.0126372
0.0127349
0.0128043
0.0128491
0.0128726
0.0128767
0.012863
0.0128324
0.0127849
0.0127195
0.0126341
0.0125254
0.0123883
0.0122157
0.011998
0.0117233
0.0113782
0.0109502
0.0104317
0.00982459
0.00914416
0.00841961
0.00768914
0.00699227
0.00636504
0.0058452
0.00548626
0.00535666
0.000149964
0.00118933
0.00275905
0.00432295
0.00573696
0.00696941
0.00802466
0.00891982
0.00967534
0.0103111
0.0108447
0.0112913
0.0116633
0.0119713
0.0122239
0.0124283
0.0125908
0.0127168
0.0128109
0.0128771
)
;

boundaryField
{
    leftWall
    {
        type            nutkWallFunction;
        Cmu             0.09;
        kappa           0.41;
        E               9.8;
        value           nonuniform List<scalar> 
44
(
5.30836e-06
6.33516e-06
7.12709e-06
7.83119e-06
8.3611e-06
8.74848e-06
9.03461e-06
9.26654e-06
9.46568e-06
9.64653e-06
9.81951e-06
9.99416e-06
1.01763e-05
1.03724e-05
1.05893e-05
1.08332e-05
1.11085e-05
1.14151e-05
1.17457e-05
1.20835e-05
1.24028e-05
1.26723e-05
1.28606e-05
1.29533e-05
1.30417e-05
1.33936e-05
1.45134e-05
9.85287e-06
1.09318e-05
1.08764e-05
9.6587e-06
8.49314e-06
7.93237e-06
7.89946e-06
8.19858e-06
8.69596e-06
9.28257e-06
9.88072e-06
1.04452e-05
1.09543e-05
1.14001e-05
1.1782e-05
1.2103e-05
1.23688e-05
)
;
    }
    rightWall
    {
        type            nutkWallFunction;
        Cmu             0.09;
        kappa           0.41;
        E               9.8;
        value           nonuniform 0();
    }
    lowerWall
    {
        type            nutkWallFunction;
        Cmu             0.09;
        kappa           0.41;
        E               9.8;
        value           nonuniform List<scalar> 
44
(
3.96977e-06
5.52285e-06
6.8658e-06
7.76362e-06
8.35353e-06
8.78723e-06
9.13526e-06
9.4355e-06
9.7112e-06
9.97701e-06
1.0242e-05
1.05115e-05
1.07883e-05
1.10735e-05
1.1367e-05
1.16676e-05
1.19735e-05
1.22824e-05
1.25915e-05
1.28977e-05
1.31979e-05
1.34888e-05
1.37669e-05
1.4029e-05
1.42717e-05
1.44919e-05
1.46864e-05
1.4852e-05
1.49856e-05
1.50841e-05
1.51437e-05
1.51595e-05
1.51236e-05
1.50623e-05
1.49636e-05
1.48176e-05
1.46161e-05
1.43529e-05
1.40248e-05
1.36345e-05
1.3195e-05
1.272e-05
1.22004e-05
1.18133e-05
)
;
    }
    atmosphere
    {
        type            calculated;
        value           nonuniform 0();
    }
    defaultFaces
    {
        type            empty;
    }
    procBoundary0to1
    {
        type            processor;
        value           nonuniform List<scalar> 
44
(
9.49552e-05
0.000498007
0.000905391
0.00122838
0.00151724
0.00178143
0.00202625
0.00225771
0.0024851
0.00273796
0.00319934
0.00374808
0.00437935
0.00507172
0.00578544
0.00648448
0.00714456
0.00775202
0.00830007
0.00878527
0.00878527
0.00820176
0.00865442
0.0090376
0.00935532
0.00961361
0.00981642
0.00995566
0.0100078
0.00998957
0.00988258
0.00967165
0.00935427
0.00893826
0.00844147
0.00789242
0.00732915
0.00679699
0.00634314
0.00600178
0.00577357
0.00562947
0.00553967
0.00548435
)
;
    }
    procBoundary0to2
    {
        type            processor;
        value           nonuniform List<scalar> 
46
(
0.012919
0.0129394
0.0129404
0.0129237
0.0128901
0.0128397
0.0127718
0.0126846
0.0125749
0.012438
0.0122672
0.0120532
0.0117846
0.0114488
0.0110336
0.0105311
0.00994231
0.00928109
0.00857496
0.00786115
0.00717834
0.00655957
0.00603361
0.00563851
0.00543454
0.000151343
0.0012323
0.00284224
0.00443338
0.00586237
0.00710075
0.00815597
0.0090474
0.0097971
0.010426
0.0109525
0.0113921
0.0117578
0.01206
0.0123076
0.0125079
0.012667
0.0127901
0.0128817
0.012919
0.0129459
)
;
    }
}


// ************************************************************************* //
