/*--------------------------------*- C++ -*----------------------------------*\
| =========                 |                                                 |
| \\      /  F ield         | OpenFOAM: The Open Source CFD Toolbox           |
|  \\    /   O peration     | Version:  5.0                                   |
|   \\  /    A nd           | Web:      www.OpenFOAM.org                      |
|    \\/     M anipulation  |                                                 |
\*---------------------------------------------------------------------------*/
FoamFile
{
    version     2.0;
    format      ascii;
    class       volScalarField;
    location    "0.3";
    object      p;
}
// * * * * * * * * * * * * * * * * * * * * * * * * * * * * * * * * * * * * * //

dimensions      [1 -1 -2 0 0 0 0];

internalField   nonuniform List<scalar> 
1935
(
1500.68
1502.84
1509.16
1518.07
1526.7
1534.31
1540.81
1546.48
1551.68
1556.65
1561.57
1566.49
1571.48
1576.51
1581.58
1586.65
1591.68
1596.64
1601.49
1606.21
1610.79
1615.26
1619.67
1624.12
1628.75
1633.8
1639.56
1646.46
1655.03
1665.99
1680.28
1699.1
1724.34
1756.84
1798.03
1848.95
1910.07
1980.23
2055.6
2129.52
2193.68
2241.21
2267.39
2275.92
1451.4
1451.91
1458.02
1465.45
1472.99
1479.96
1486.22
1491.89
1497.18
1502.24
1507.18
1512.07
1516.93
1521.77
1526.57
1531.32
1535.98
1540.54
1544.97
1549.28
1553.48
1557.6
1561.72
1565.96
1570.49
1575.55
1581.48
1588.71
1597.79
1609.44
1624.53
1644.07
1669.01
1701.77
1743.36
1795.23
1858.13
1931.42
2012.01
2093.18
2164.51
2215.08
2236.91
2232.38
1401.61
1403.71
1408.26
1414.05
1420.16
1426.1
1431.68
1436.94
1441.95
1446.76
1451.44
1456
1460.46
1464.82
1469.07
1473.21
1477.21
1481.08
1484.82
1488.45
1492.01
1495.57
1499.21
1503.09
1507.41
1512.44
1518.53
1526.12
1535.8
1548.26
1564.36
1585.09
1611.49
1645.25
1687.61
1739.78
1802.39
1874.96
1955.06
2037.2
2112.19
2168.77
2197.19
2198.23
1350.93
1354.24
1358.39
1363.18
1368.22
1373.22
1378.07
1382.76
1387.3
1391.7
1395.95
1400.05
1404
1407.78
1411.39
1414.83
1418.1
1421.21
1424.19
1427.07
1429.92
1432.82
1435.9
1439.31
1443.3
1448.13
1454.18
1461.91
1471.89
1484.81
1501.49
1522.88
1549.97
1584
1626.24
1677.7
1738.82
1809.03
1886.23
1966.06
2041.61
2104.25
2145.89
2166.64
1299.09
1303.29
1307.4
1311.59
1315.91
1320.23
1324.51
1328.72
1332.84
1336.84
1340.68
1344.33
1347.78
1351.01
1354.02
1356.81
1359.4
1361.8
1364.07
1366.25
1368.41
1370.67
1373.16
1376.05
1379.59
1384.07
1389.86
1397.42
1407.31
1420.2
1436.86
1458.19
1485.08
1518.59
1559.8
1609.54
1668.13
1735.06
1808.67
1885.75
1961.45
2029.69
2084.34
2126.39
1246.1
1250.88
1254.98
1258.75
1262.56
1266.4
1270.26
1274.12
1277.91
1281.57
1285.05
1288.31
1291.32
1294.06
1296.53
1298.74
1300.72
1302.49
1304.12
1305.65
1307.18
1308.82
1310.73
1313.07
1316.1
1320.1
1325.44
1332.58
1342.05
1354.48
1370.61
1391.24
1417.22
1449.43
1488.78
1535.97
1591.22
1654.14
1723.5
1797.13
1871.84
1943.6
2008.2
2068.46
1191.98
1197.1
1201.12
1204.52
1207.95
1211.46
1215.03
1218.63
1222.17
1225.57
1228.75
1231.66
1234.28
1236.58
1238.57
1240.27
1241.7
1242.91
1243.95
1244.9
1245.84
1246.9
1248.23
1250.01
1252.48
1255.91
1260.67
1267.18
1275.95
1287.58
1302.74
1322.16
1346.62
1376.85
1413.61
1457.5
1508.68
1566.82
1631.05
1699.89
1771.31
1842.85
1912.24
1984.52
1136.72
1142
1145.83
1148.93
1152.07
1155.33
1158.71
1162.12
1165.47
1168.64
1171.57
1174.18
1176.45
1178.37
1179.94
1181.18
1182.12
1182.82
1183.34
1183.74
1184.15
1184.66
1185.43
1186.64
1188.5
1191.3
1195.35
1201.07
1208.91
1219.44
1233.27
1251.07
1273.49
1301.16
1334.72
1374.65
1421.04
1473.6
1531.62
1593.96
1659.18
1725.6
1792.29
1865.85
1080.34
1085.61
1089.19
1092.02
1094.95
1098.05
1101.28
1104.55
1107.73
1110.72
1113.42
1115.76
1117.73
1119.3
1120.49
1121.32
1121.83
1122.07
1122.11
1122.03
1121.92
1121.92
1122.14
1122.78
1124.02
1126.11
1129.37
1134.14
1140.88
1150.07
1162.27
1178.07
1198.04
1222.7
1252.55
1287.94
1328.91
1375.1
1425.77
1479.77
1535.55
1591.2
1645.39
1703.27
1022.9
1028.02
1031.29
1033.9
1036.68
1039.65
1042.77
1045.91
1048.95
1051.76
1054.25
1056.36
1058.05
1059.31
1060.16
1060.62
1060.73
1060.56
1060.17
1059.63
1059.06
1058.56
1058.25
1058.31
1058.9
1060.25
1062.63
1066.35
1071.82
1079.47
1089.8
1103.32
1120.52
1141.81
1167.54
1197.97
1233
1272.14
1314.45
1358.42
1401.75
1441.07
1472.15
1492.75
963.932
968.787
971.728
974.146
976.8
979.674
982.688
985.715
988.612
991.252
993.542
995.422
996.856
997.835
998.372
998.497
998.255
997.702
996.907
995.952
994.931
993.95
993.127
992.6
992.526
993.091
994.524
997.102
1001.16
1007.1
1015.35
1026.35
1040.51
1058.13
1079.43
1104.54
1133.23
1164.81
1198.03
1230.8
1259.7
1279
1279.44
1243.54
903.22
907.711
910.312
912.562
915.104
917.877
920.781
923.68
926.428
928.898
930.999
932.666
933.866
934.587
934.841
934.658
934.085
933.178
932.007
930.652
929.202
927.755
926.418
925.308
924.555
924.306
924.744
926.094
928.639
932.72
938.712
946.992
957.889
971.62
988.274
1007.84
1029.97
1053.77
1077.69
1099.13
1113.81
1114.46
1088.79
1012.16
841.095
845.143
847.41
849.495
851.909
854.56
857.335
860.091
862.682
864.983
866.901
868.371
869.355
869.839
869.833
869.366
868.485
867.247
865.719
863.979
862.113
860.212
858.37
856.683
855.252
854.181
853.597
853.669
854.621
856.74
860.35
865.774
873.28
883.01
894.941
908.939
924.56
940.769
955.828
966.944
969.634
956.82
917.748
835.197
777.663
781.2
783.143
785.036
787.282
789.775
792.393
794.99
797.417
799.55
801.292
802.577
803.362
803.628
803.381
802.648
801.474
799.917
798.043
795.928
793.653
791.305
788.965
786.714
784.618
782.737
781.132
779.902
779.214
779.301
780.446
782.934
786.987
792.695
799.955
808.531
817.917
827.035
834.122
836.471
829.977
808.673
764.711
688.384
713.051
716.018
717.631
719.274
721.291
723.582
726.013
728.433
730.691
732.659
734.234
735.345
735.944
736.005
735.529
734.54
733.081
731.209
728.989
726.497
723.812
721.016
718.186
715.385
712.656
710.002
707.407
704.89
702.547
700.567
699.204
698.725
699.334
701.091
703.846
707.293
710.907
713.658
713.898
709.212
696.121
669.884
624.809
555.002
647.399
649.737
650.989
652.288
654.006
656.05
658.265
660.494
662.58
664.385
665.801
666.747
667.168
667.032
666.331
665.088
663.341
661.146
658.569
655.686
652.577
649.324
646.003
642.676
639.364
636.011
632.505
628.756
624.784
620.735
616.859
613.433
610.669
608.627
607.145
605.883
604.334
601.591
596.223
586.235
568.862
540.49
497.029
434.899
580.851
582.478
583.31
584.156
585.51
587.264
589.239
591.262
593.171
594.816
596.077
596.862
597.109
596.776
595.848
594.342
592.293
589.757
586.8
583.498
579.937
576.204
572.383
568.554
564.736
560.81
556.529
551.662
546.13
540.048
533.688
527.375
521.37
515.759
510.396
504.95
498.963
491.68
481.969
468.332
448.733
420.555
380.988
328.03
513.553
514.339
514.677
514.976
515.911
517.338
519.043
520.843
522.563
524.042
525.145
525.769
525.838
525.301
524.134
522.346
519.972
517.064
513.689
509.927
505.87
501.614
497.267
492.953
488.739
484.436
479.607
473.81
466.842
458.799
450.013
440.918
431.867
423.002
414.196
405.187
395.572
384.735
371.898
356.118
336.055
309.898
275.721
232.398
445.66
445.428
445.195
444.895
445.361
446.411
447.805
449.348
450.856
452.151
453.085
453.539
453.421
452.666
451.237
449.138
446.403
443.08
439.236
434.956
430.34
425.497
420.564
415.767
411.306
406.926
401.901
395.466
387.257
377.369
366.256
354.533
342.697
330.965
319.212
307.313
294.917
281.46
266.569
249.961
230.957
208.298
180.471
146.753
377.315
375.958
375.075
374.148
374.07
374.658
375.673
376.908
378.162
379.243
379.985
380.251
379.93
378.936
377.216
374.769
371.629
367.842
363.473
358.612
353.369
347.855
342.239
336.918
332.392
328.373
323.678
317.031
307.848
296.25
282.889
268.669
254.289
240.049
225.742
211.54
197.142
181.678
165.368
148.917
132.418
114.851
94.4206
70.5084
308.752
306.434
304.758
303.111
302.345
302.343
302.879
303.728
304.667
305.488
306.004
306.056
305.51
304.255
302.208
299.373
295.785
291.483
286.53
281.018
275.065
268.754
262.227
256.153
251.732
248.745
245.208
238.95
229.067
215.729
199.897
183.037
166.253
149.905
133.398
117.555
102.096
84.8581
66.9405
50.6753
37.3923
26.2826
14.6035
1.75144
-13.3777
240.718
237.715
234.995
232.361
230.602
229.748
229.609
229.935
230.468
230.969
231.22
231.03
230.235
228.691
226.257
222.952
218.827
213.895
208.201
201.836
194.926
187.425
179.225
171.544
167.406
166.848
166.115
161.247
150.955
135.636
116.877
97.5378
79.735
63.7398
47.9494
33.7945
20.3572
4.54841
-13.3973
-30.33
-44.222
-54.5425
-61.2792
-63.6204
-65.2002
174.163
170.983
166.853
162.49
158.988
156.691
155.449
154.938
154.834
154.85
154.721
154.202
153.088
151.17
148.174
144.184
139.291
133.465
126.731
119.219
111.121
102.019
91.0498
80.7409
77.8971
82.6077
87.5263
85.7196
76.0466
60.0939
40.9956
23.7257
11.2101
3.37983
-2.01998
-5.45564
-9.57866
-16.1153
-25.2377
-37.9513
-55.5255
-78.0827
-99.3964
-110.896
-111.02
109.843
108.721
101.238
93.1075
87.2971
83.563
81.2433
79.7432
78.689
77.8238
76.9083
75.7003
74.0164
71.5488
67.8098
63.0634
57.5747
51.3137
44.3736
37.0888
29.9106
21.9097
11.1622
1.76309
2.63103
12.8332
23.4752
25.7308
19.3446
8.58892
-0.230827
-3.27103
-4.48036
-4.97621
-4.66984
-4.40862
-4.42963
-4.86451
-5.86767
-8.25395
-13.7217
-24.5812
-44.3363
-75.9417
-107.647
52.4487
54.2193
40.3067
29.8073
24.9266
22.2454
20.3499
18.6485
16.936
15.215
13.4075
11.4273
9.31473
6.76807
3.26158
-0.675571
-4.49617
-8.11419
-11.3153
-13.5247
-14.2005
-14.1042
-14.3835
-13.2016
-10.2196
-5.86568
-0.783173
1.64099
0.51512
-2.48129
-4.09341
-3.93136
-3.89725
-4.18996
-4.37916
-4.33355
-4.27651
-4.344
-4.60013
-5.0133
-5.51652
-6.11792
-7.38097
-15.2299
-36.5236
15.6506
13.889
3.94207
0.740779
-0.0605032
-0.346802
-0.554679
-0.892719
-1.44215
-2.23704
-3.267
-4.45309
-5.64177
-6.80623
-7.90894
-8.73649
-9.14815
-9.15684
-8.80968
-8.0785
-6.98175
-5.81557
-4.14766
-3.58884
-3.53232
-3.42504
-3.34035
-3.35797
-3.40899
-3.68339
-3.96873
-3.96345
-3.96638
-4.08907
-4.25495
-4.36858
-4.41375
-4.48073
-4.59235
-4.72378
-4.85989
-5.01167
-5.23796
-5.91321
-7.69129
-1.96996
-2.00859
-2.25601
-2.40098
-2.4101
-2.42557
-2.46225
-2.51045
-2.56365
-2.6212
-2.67968
-2.7373
-2.77815
-2.81203
-2.85373
-2.89936
-2.93922
-2.98261
-3.03537
-3.09682
-3.15261
-3.26121
-3.30927
-3.2641
-3.26621
-3.30531
-3.36406
-3.43521
-3.52462
-3.66913
-3.84807
-3.99268
-4.08096
-4.19646
-4.33225
-4.44987
-4.53985
-4.64173
-4.76533
-4.89874
-5.02656
-5.13785
-5.2154
-5.28083
-5.55377
-2.71107
-2.48509
-2.48265
-2.49083
-2.47419
-2.46047
-2.4576
-2.46399
-2.4776
-2.49631
-2.51886
-2.54494
-2.57284
-2.6007
-2.62937
-2.66037
-2.69753
-2.74418
-2.80158
-2.86902
-2.94902
-3.05545
-3.19109
-3.30925
-3.37241
-3.42994
-3.49444
-3.57343
-3.66869
-3.78897
-3.92912
-4.06418
-4.17492
-4.29368
-4.41848
-4.53362
-4.64002
-4.75472
-4.88473
-5.02496
-5.166
-5.29841
-5.41039
-5.49314
-5.59665
-2.65324
-2.6116
-2.56548
-2.5533
-2.54494
-2.54115
-2.54541
-2.55745
-2.57584
-2.59917
-2.62616
-2.65547
-2.68681
-2.71929
-2.75339
-2.79033
-2.83298
-2.88383
-2.94366
-3.01316
-3.09294
-3.18585
-3.29172
-3.3921
-3.46439
-3.53
-3.60047
-3.6831
-3.78131
-3.89491
-4.02087
-4.14424
-4.26021
-4.37942
-4.5009
-4.6184
-4.73288
-4.85224
-4.98067
-5.1166
-5.25585
-5.39458
-5.53053
-5.66265
-5.79766
-2.68156
-2.65405
-2.62824
-2.61542
-2.61096
-2.61216
-2.62048
-2.63598
-2.65753
-2.6839
-2.71389
-2.74627
-2.78008
-2.81562
-2.85355
-2.89492
-2.94101
-2.99376
-3.05446
-3.12321
-3.19998
-3.2844
-3.37407
-3.46013
-3.5375
-3.61191
-3.69078
-3.77907
-3.87807
-3.98861
-4.1074
-4.2268
-4.34392
-4.46247
-4.58252
-4.70162
-4.82035
-4.94246
-5.07039
-5.20397
-5.34205
-5.48303
-5.62616
-5.77229
-5.92556
-2.71985
-2.70504
-2.68951
-2.67959
-2.67702
-2.68034
-2.69019
-2.70669
-2.72902
-2.75608
-2.78684
-2.82026
-2.85576
-2.89331
-2.93346
-2.97705
-3.02528
-3.07952
-3.14064
-3.20873
-3.28346
-3.36403
-3.44802
-3.53163
-3.6122
-3.6927
-3.77733
-3.86934
-3.96953
-4.07753
-4.19171
-4.30795
-4.42419
-4.54152
-4.66022
-4.7796
-4.9001
-5.02368
-5.15205
-5.28594
-5.42552
-5.5703
-5.7192
-5.87144
-6.02887
-2.78115
-2.76534
-2.75376
-2.74644
-2.74548
-2.75049
-2.76171
-2.77914
-2.80215
-2.8298
-2.86116
-2.89545
-2.93217
-2.97132
-3.01325
-3.05868
-3.10853
-3.16381
-3.22512
-3.29251
-3.36555
-3.4434
-3.52456
-3.60682
-3.68911
-3.77289
-3.86072
-3.95459
-4.05477
-4.16077
-4.27136
-4.38433
-4.49839
-4.61381
-4.73091
-4.84964
-4.97043
-5.09456
-5.22356
-5.35867
-5.50076
-5.65002
-5.80521
-5.96431
-6.12644
-2.84552
-2.8306
-2.82118
-2.81595
-2.81654
-2.82309
-2.83561
-2.85402
-2.87776
-2.90602
-2.93799
-2.973
-3.01067
-3.051
-3.0943
-3.14112
-3.19218
-3.24813
-3.30937
-3.37587
-3.44724
-3.52276
-3.60149
-3.68242
-3.76505
-3.85026
-3.93948
-4.03376
-4.13311
-4.23689
-4.34413
-4.45365
-4.56479
-4.67774
-4.79281
-4.91016
-5.03031
-5.15437
-5.28394
-5.42059
-5.56556
-5.71938
-5.88101
-6.04785
-6.21734
-2.9113
-2.89811
-2.89084
-2.88761
-2.88971
-2.89758
-2.91121
-2.93042
-2.95474
-2.98347
-3.0159
-3.05147
-3.08987
-3.13107
-3.17534
-3.2231
-3.27485
-3.33101
-3.39181
-3.45719
-3.5268
-3.60014
-3.67671
-3.75606
-3.83813
-3.92345
-4.01276
-4.1064
-4.20408
-4.30514
-4.40888
-4.51474
-4.62257
-4.73262
-4.84517
-4.96052
-5.0793
-5.2028
-5.33275
-5.47094
-5.6189
-5.77743
-5.94586
-6.12154
-6.30074
-2.97778
-2.96724
-2.96215
-2.9608
-2.96432
-2.97331
-2.98781
-3.00762
-3.0323
-3.06127
-3.09393
-3.12983
-3.16868
-3.21044
-3.2553
-3.30358
-3.3556
-3.4116
-3.47168
-3.53574
-3.60353
-3.67474
-3.74915
-3.82671
-3.90754
-3.99198
-4.08026
-4.17226
-4.26746
-4.36525
-4.46522
-4.56727
-4.67156
-4.77837
-4.88796
-5.00072
-5.11754
-5.23999
-5.37
-5.5095
-5.6603
-5.82374
-5.99965
-6.18558
-6.37674
-3.04478
-3.03754
-3.03446
-3.03479
-3.03961
-3.04956
-3.06472
-3.08492
-3.10978
-3.1388
-3.1715
-3.20748
-3.24649
-3.28848
-3.33356
-3.38198
-3.43391
-3.48945
-3.54858
-3.61118
-3.67706
-3.7461
-3.81831
-3.89384
-3.97288
-4.0556
-4.14189
-4.23132
-4.32328
-4.4173
-4.51325
-4.61137
-4.71198
-4.81531
-4.92153
-5.03117
-5.14549
-5.26641
-5.39605
-5.53649
-5.68989
-5.85835
-6.04251
-6.24026
-6.44584
-3.1124
-3.10856
-3.10714
-3.10891
-3.11486
-3.1256
-3.14126
-3.16169
-3.18657
-3.2155
-3.24808
-3.28395
-3.32289
-3.36481
-3.40979
-3.45797
-3.50946
-3.56423
-3.62218
-3.68318
-3.7471
-3.81395
-3.88388
-3.95715
-4.03393
-4.11422
-4.19769
-4.28375
-4.37182
-4.46164
-4.5534
-4.6475
-4.7443
-4.84386
-4.94632
-5.0524
-5.16375
-5.28267
-5.41146
-5.55236
-5.70799
-5.88131
-6.07401
-6.28436
-6.5058
-3.18047
-3.17966
-3.17954
-3.18253
-3.18944
-3.20081
-3.21681
-3.23734
-3.26214
-3.29088
-3.3232
-3.35881
-3.39748
-3.43909
-3.48366
-3.53128
-3.58199
-3.6357
-3.69226
-3.75153
-3.81344
-3.87808
-3.94567
-4.01645
-4.09055
-4.1678
-4.24774
-4.32979
-4.4135
-4.49887
-4.5863
-4.67628
-4.76902
-4.86447
-4.96277
-5.06493
-5.173
-5.28951
-5.41687
-5.55752
-5.71462
-5.89197
-6.09216
-6.31376
-6.54873
-3.24843
-3.25006
-3.25097
-3.25502
-3.26273
-3.2746
-3.29084
-3.31138
-3.33603
-3.36448
-3.39643
-3.43161
-3.46981
-3.51089
-3.5548
-3.60158
-3.65122
-3.70361
-3.75859
-3.81604
-3.87592
-3.93834
-4.00349
-4.07157
-4.14257
-4.21625
-4.29212
-4.36971
-4.44879
-4.52958
-4.61258
-4.69824
-4.7866
-4.87753
-4.97136
-5.06941
-5.17401
-5.28768
-5.4128
-5.55205
-5.70919
-5.88871
-6.09366
-6.32245
-6.56527
-3.31549
-3.319
-3.32077
-3.32575
-3.33415
-3.34644
-3.36285
-3.38336
-3.4078
-3.43589
-3.46736
-3.50196
-3.53949
-3.57981
-3.62282
-3.6685
-3.71681
-3.76766
-3.82093
-3.87649
-3.93433
-3.99451
-4.05714
-4.12227
-4.18981
-4.25948
-4.33089
-4.40376
-4.47812
-4.5543
-4.63274
-4.71374
-4.79727
-4.88332
-4.97249
-5.06639
-5.16729
-5.2775
-5.39925
-5.53553
-5.69057
-5.86923
-6.07479
-6.30513
-6.54866
-3.38087
-3.38577
-3.38833
-3.39416
-3.40319
-3.41586
-3.43243
-3.4529
-3.47709
-3.50477
-3.53567
-3.56955
-3.60622
-3.64553
-3.68737
-3.73169
-3.77844
-3.82757
-3.879
-3.93264
-3.98846
-4.04639
-4.10638
-4.16832
-4.23205
-4.29739
-4.36413
-4.43225
-4.50191
-4.57342
-4.6471
-4.72309
-4.80141
-4.88235
-4.96681
-5.05643
-5.15311
-5.25879
-5.3757
-5.50708
-5.65731
-5.83121
-6.03214
-6.25771
-6.49516
-3.44396
-3.44981
-3.45322
-3.45984
-3.46949
-3.48256
-3.49929
-3.51969
-3.54362
-3.57085
-3.6011
-3.63415
-3.66979
-3.70787
-3.74827
-3.79094
-3.83589
-3.8831
-3.93258
-3.98426
-4.03803
-4.09366
-4.15087
-4.20941
-4.26913
-4.33
-4.39207
-4.45551
-4.52052
-4.58729
-4.65596
-4.72666
-4.79963
-4.87545
-4.95516
-5.04008
-5.13167
-5.23156
-5.34201
-5.46629
-5.60853
-5.77328
-5.96376
-6.17727
-6.40005
-3.50448
-3.51082
-3.51517
-3.52261
-3.53289
-3.54636
-3.56323
-3.58353
-3.60714
-3.63386
-3.6634
-3.69552
-3.72999
-3.76663
-3.80535
-3.84614
-3.88904
-3.93416
-3.98155
-4.03116
-4.08272
-4.13585
-4.19012
-4.24518
-4.30091
-4.35743
-4.41501
-4.47391
-4.5343
-4.59623
-4.65977
-4.72511
-4.79274
-4.86342
-4.93805
-5.01761
-5.10315
-5.19606
-5.29845
-5.41338
-5.54461
-5.69632
-5.87158
-6.06809
-6.27294
-3.56241
-3.56874
-3.57418
-3.58248
-3.59343
-3.60728
-3.62423
-3.64433
-3.66751
-3.69358
-3.72228
-3.75334
-3.78649
-3.82155
-3.85844
-3.8972
-3.93794
-3.98083
-4.02595
-4.0732
)
;

boundaryField
{
    leftWall
    {
        type            calculated;
        value           nonuniform List<scalar> 
44
(
1500.68
1451.4
1401.61
1350.93
1299.09
1246.1
1191.98
1136.72
1080.34
1022.9
963.932
903.22
841.095
777.663
713.051
647.399
580.851
513.553
445.66
377.315
308.752
240.718
174.163
109.843
52.4487
15.6506
-1.96996
-2.71107
-2.65324
-2.68156
-2.71985
-2.78115
-2.84552
-2.9113
-2.97778
-3.04478
-3.1124
-3.18047
-3.24843
-3.31549
-3.38087
-3.44396
-3.50448
-3.56241
)
;
    }
    rightWall
    {
        type            calculated;
        value           nonuniform 0();
    }
    lowerWall
    {
        type            calculated;
        value           nonuniform List<scalar> 
44
(
1524.22
1526.38
1532.71
1541.62
1550.24
1557.85
1564.35
1570.02
1575.22
1580.2
1585.11
1590.04
1595.02
1600.06
1605.13
1610.2
1615.23
1620.18
1625.03
1629.75
1634.34
1638.81
1643.22
1647.66
1652.3
1657.34
1663.1
1670
1678.57
1689.54
1703.82
1722.65
1747.88
1780.38
1821.57
1872.49
1933.61
2003.77
2079.14
2153.06
2217.23
2264.76
2290.55
2296.15
)
;
    }
    atmosphere
    {
        type            calculated;
        value           nonuniform 0();
    }
    defaultFaces
    {
        type            empty;
    }
    procBoundary0to1
    {
        type            processor;
        value           nonuniform List<scalar> 
44
(
2297.56
2222.96
2194.63
2186.77
2178.59
2152.16
2093.38
1987.77
1816.67
1556.12
1170.33
866.244
698.785
572.211
454.919
351.746
261.495
180.418
107.551
43.1292
43.1292
-31.1035
-69.9787
-105.771
-122.633
-72.8652
-15.7698
-6.41267
-5.74179
-5.92331
-6.08338
-6.19397
-6.2921
-6.38795
-6.48042
-6.56804
-6.65178
-6.72828
-6.78294
-6.80308
-6.7829
-6.72221
-6.60965
-6.45976
)
;
    }
    procBoundary0to2
    {
        type            processor;
        value           nonuniform List<scalar> 
46
(
-4.12227
-4.17264
-4.2238
-4.2754
-4.32736
-4.37989
-4.4333
-4.48785
-4.54365
-4.60071
-4.6591
-4.71914
-4.78144
-4.84672
-4.91571
-4.98907
-5.0676
-5.15243
-5.24536
-5.34903
-5.46674
-5.60221
-5.75875
-5.93613
-6.12488
-3.61761
-3.62366
-3.63038
-3.63962
-3.65124
-3.66543
-3.68237
-3.70214
-3.72472
-3.74995
-3.7776
-3.80739
-3.83906
-3.87243
-3.90744
-3.94415
-3.98272
-4.0233
-4.06599
-4.12227
-4.11066
)
;
    }
}


// ************************************************************************* //
