/*--------------------------------*- C++ -*----------------------------------*\
| =========                 |                                                 |
| \\      /  F ield         | OpenFOAM: The Open Source CFD Toolbox           |
|  \\    /   O peration     | Version:  5.0                                   |
|   \\  /    A nd           | Web:      www.OpenFOAM.org                      |
|    \\/     M anipulation  |                                                 |
\*---------------------------------------------------------------------------*/
FoamFile
{
    version     2.0;
    format      ascii;
    class       volScalarField;
    location    "0.3";
    object      p_rgh;
}
// * * * * * * * * * * * * * * * * * * * * * * * * * * * * * * * * * * * * * //

dimensions      [1 -1 -2 0 0 0 0];

internalField   nonuniform List<scalar> 
1935
(
1524.22
1526.38
1532.71
1541.62
1550.24
1557.85
1564.35
1570.02
1575.22
1580.2
1585.11
1590.04
1595.02
1600.06
1605.13
1610.2
1615.23
1620.18
1625.03
1629.75
1634.34
1638.81
1643.22
1647.66
1652.3
1657.34
1663.1
1670
1678.57
1689.54
1703.82
1722.65
1747.88
1780.38
1821.57
1872.49
1933.61
2003.77
2079.14
2153.06
2217.23
2264.76
2290.55
2296.15
1522.03
1522.54
1528.65
1536.08
1543.62
1550.59
1556.85
1562.52
1567.81
1572.87
1577.81
1582.7
1587.56
1592.4
1597.2
1601.95
1606.61
1611.17
1615.6
1619.91
1624.11
1628.23
1632.35
1636.59
1641.12
1646.18
1652.11
1659.34
1668.42
1680.07
1695.16
1714.7
1739.64
1772.4
1813.99
1865.86
1928.76
2002.05
2082.64
2163.81
2235.14
2285.71
2307.42
2300.59
1519.33
1521.43
1525.97
1531.76
1537.88
1543.81
1549.4
1554.66
1559.66
1564.48
1569.16
1573.72
1578.18
1582.54
1586.79
1590.92
1594.93
1598.8
1602.54
1606.17
1609.73
1613.28
1616.93
1620.81
1625.13
1630.16
1636.24
1643.84
1653.52
1665.98
1682.08
1702.8
1729.21
1762.97
1805.32
1857.5
1920.11
1992.67
2072.78
2154.92
2229.91
2286.48
2314.91
2315.94
1515.73
1519.04
1523.2
1527.98
1533.02
1538.02
1542.87
1547.57
1552.11
1556.51
1560.76
1564.86
1568.8
1572.58
1576.19
1579.63
1582.9
1586.01
1588.99
1591.87
1594.72
1597.62
1600.7
1604.12
1608.1
1612.93
1618.98
1626.71
1636.69
1649.61
1666.3
1687.68
1714.77
1748.81
1791.05
1842.51
1903.62
1973.84
2051.04
2130.87
2206.41
2269.05
2310.69
2331.44
1510.98
1515.18
1519.29
1523.48
1527.81
1532.13
1536.4
1540.61
1544.74
1548.73
1552.57
1556.22
1559.67
1562.9
1565.91
1568.7
1571.29
1573.69
1575.96
1578.14
1580.3
1582.56
1585.05
1587.94
1591.48
1595.96
1601.75
1609.31
1619.2
1632.09
1648.76
1670.08
1696.97
1730.48
1771.69
1821.43
1880.02
1946.95
2020.56
2097.64
2173.35
2241.58
2296.23
2338.29
1505.08
1509.86
1513.96
1517.72
1521.53
1525.38
1529.24
1533.1
1536.89
1540.55
1544.03
1547.29
1550.29
1553.03
1555.51
1557.72
1559.7
1561.47
1563.09
1564.63
1566.16
1567.8
1569.7
1572.05
1575.07
1579.08
1584.42
1591.56
1601.02
1613.46
1629.59
1650.22
1676.2
1708.41
1747.76
1794.94
1850.2
1913.12
1982.48
2056.11
2130.82
2202.58
2267.18
2327.43
1498.05
1503.17
1507.18
1510.59
1514.01
1517.52
1521.1
1524.7
1528.24
1531.63
1534.81
1537.72
1540.34
1542.64
1544.64
1546.34
1547.77
1548.98
1550.02
1550.96
1551.91
1552.97
1554.3
1556.08
1558.54
1561.98
1566.73
1573.24
1582.01
1593.64
1608.8
1628.23
1652.68
1682.91
1719.68
1763.57
1814.74
1872.88
1937.11
2005.95
2077.38
2148.91
2218.31
2290.59
1489.87
1495.15
1498.98
1502.08
1505.22
1508.49
1511.86
1515.27
1518.62
1521.8
1524.72
1527.33
1529.61
1531.52
1533.09
1534.33
1535.28
1535.97
1536.49
1536.9
1537.3
1537.81
1538.58
1539.79
1541.66
1544.45
1548.51
1554.22
1562.07
1572.6
1586.43
1604.22
1626.64
1654.32
1687.88
1727.8
1774.19
1826.75
1884.77
1947.12
2012.33
2078.75
2145.44
2219
1480.58
1485.85
1489.43
1492.26
1495.19
1498.29
1501.52
1504.79
1507.97
1510.96
1513.66
1516
1517.97
1519.54
1520.73
1521.56
1522.07
1522.31
1522.35
1522.27
1522.16
1522.16
1522.38
1523.02
1524.26
1526.35
1529.61
1534.38
1541.12
1550.31
1562.51
1578.31
1598.28
1622.94
1652.79
1688.18
1729.15
1775.34
1826.01
1880.01
1935.78
1991.44
2045.63
2103.51
1470.22
1475.35
1478.62
1481.23
1484
1486.98
1490.09
1493.24
1496.28
1499.09
1501.58
1503.68
1505.37
1506.64
1507.48
1507.94
1508.06
1507.89
1507.49
1506.96
1506.38
1505.88
1505.58
1505.63
1506.23
1507.58
1509.95
1513.68
1519.14
1526.79
1537.12
1550.65
1567.85
1589.14
1614.87
1645.3
1680.33
1719.47
1761.78
1805.74
1849.07
1888.4
1919.48
1940.08
1458.77
1463.62
1466.56
1468.98
1471.63
1474.51
1477.52
1480.55
1483.45
1486.09
1488.38
1490.26
1491.69
1492.67
1493.21
1493.33
1493.09
1492.54
1491.74
1490.79
1489.77
1488.78
1487.96
1487.44
1487.36
1487.93
1489.36
1491.94
1496
1501.94
1510.19
1521.19
1535.35
1552.97
1574.27
1599.38
1628.07
1659.65
1692.86
1725.63
1754.53
1773.84
1774.28
1738.37
1446.21
1450.7
1453.3
1455.55
1458.09
1460.87
1463.77
1466.67
1469.42
1471.89
1473.99
1475.66
1476.86
1477.58
1477.83
1477.65
1477.07
1476.17
1475
1473.64
1472.19
1470.74
1469.41
1468.3
1467.54
1467.3
1467.73
1469.08
1471.63
1475.71
1481.7
1489.98
1500.88
1514.61
1531.26
1550.83
1572.96
1596.76
1620.67
1642.12
1656.8
1657.45
1631.77
1555.15
1432.68
1436.73
1439
1441.08
1443.5
1446.15
1448.92
1451.68
1454.27
1456.57
1458.49
1459.96
1460.94
1461.43
1461.42
1460.96
1460.07
1458.84
1457.31
1455.57
1453.7
1451.8
1449.96
1448.27
1446.84
1445.77
1445.19
1445.26
1446.21
1448.33
1451.94
1457.36
1464.87
1474.6
1486.53
1500.53
1516.15
1532.36
1547.42
1558.53
1561.22
1548.41
1509.34
1426.79
1418.3
1421.84
1423.78
1425.68
1427.92
1430.42
1433.03
1435.63
1438.06
1440.19
1441.93
1443.22
1444
1444.27
1444.02
1443.29
1442.12
1440.56
1438.68
1436.57
1434.29
1431.95
1429.61
1427.36
1425.26
1423.38
1421.77
1420.54
1419.86
1419.94
1421.09
1423.58
1427.63
1433.34
1440.6
1449.17
1458.56
1467.68
1474.76
1477.11
1470.62
1449.31
1405.35
1329.03
1403.2
1406.17
1407.78
1409.42
1411.44
1413.73
1416.16
1418.58
1420.84
1422.81
1424.38
1425.49
1426.09
1426.15
1425.68
1424.69
1423.23
1421.36
1419.14
1416.65
1413.96
1411.16
1408.33
1405.53
1402.8
1400.15
1397.56
1395.04
1392.7
1390.72
1389.35
1388.87
1389.48
1391.24
1393.99
1397.44
1401.06
1403.81
1404.05
1399.36
1386.27
1360.03
1314.96
1245.15
1387.51
1389.85
1391.1
1392.4
1394.12
1396.17
1398.38
1400.61
1402.7
1404.5
1405.92
1406.86
1407.28
1407.15
1406.45
1405.2
1403.46
1401.26
1398.68
1395.8
1392.69
1389.44
1386.12
1382.79
1379.48
1376.13
1372.62
1368.87
1364.9
1360.85
1356.97
1353.55
1350.78
1348.74
1347.26
1346
1344.45
1341.71
1336.34
1326.35
1308.98
1280.61
1237.14
1175.01
1371.4
1373.02
1373.86
1374.7
1376.06
1377.81
1379.79
1381.81
1383.72
1385.36
1386.62
1387.41
1387.66
1387.32
1386.39
1384.89
1382.84
1380.3
1377.35
1374.04
1370.48
1366.75
1362.93
1359.1
1355.28
1351.36
1347.08
1342.21
1336.68
1330.59
1324.23
1317.92
1311.92
1306.31
1300.94
1295.5
1289.51
1282.23
1272.52
1258.88
1239.28
1211.1
1171.53
1118.58
1355
1355.78
1356.12
1356.42
1357.36
1358.78
1360.49
1362.29
1364.01
1365.49
1366.59
1367.21
1367.28
1366.75
1365.58
1363.79
1361.42
1358.51
1355.13
1351.37
1347.32
1343.06
1338.71
1334.4
1330.18
1325.88
1321.05
1315.26
1308.29
1300.24
1291.46
1282.36
1273.31
1264.45
1255.64
1246.63
1237.02
1226.18
1213.34
1197.56
1177.5
1151.34
1117.17
1073.84
1338.48
1338.25
1338.01
1337.71
1338.18
1339.23
1340.62
1342.17
1343.67
1344.97
1345.9
1346.36
1346.24
1345.48
1344.05
1341.96
1339.22
1335.9
1332.05
1327.77
1323.16
1318.31
1313.38
1308.58
1304.12
1299.74
1294.72
1288.28
1280.07
1270.19
1259.07
1247.35
1235.51
1223.78
1212.03
1200.13
1187.73
1174.28
1159.39
1142.78
1123.77
1101.12
1073.29
1039.57
1321.98
1320.62
1319.74
1318.81
1318.74
1319.32
1320.34
1321.57
1322.83
1323.91
1324.65
1324.92
1324.6
1323.6
1321.88
1319.43
1316.29
1312.51
1308.14
1303.28
1298.03
1292.52
1286.9
1281.58
1277.05
1273.04
1268.34
1261.69
1252.51
1240.91
1227.55
1213.33
1198.95
1184.71
1170.41
1156.21
1141.81
1126.34
1110.03
1093.58
1077.08
1059.52
1039.09
1015.17
1305.75
1303.43
1301.75
1300.1
1299.34
1299.33
1299.87
1300.72
1301.66
1302.48
1303
1303.05
1302.5
1301.25
1299.2
1296.36
1292.78
1288.47
1283.52
1278.01
1272.05
1265.74
1259.21
1253.12
1248.7
1245.71
1242.18
1235.92
1226.04
1212.71
1196.87
1180.01
1163.22
1146.88
1130.38
1114.54
1099.05
1081.85
1063.94
1047.67
1034.39
1023.28
1011.6
998.751
983.621
1290.53
1287.52
1284.78
1282.13
1280.37
1279.51
1279.37
1279.7
1280.24
1280.74
1281
1280.81
1280.02
1278.47
1276.04
1272.73
1268.6
1263.67
1257.96
1251.59
1244.66
1237.14
1228.91
1221.17
1216.99
1216.42
1215.73
1210.9
1200.62
1185.31
1166.51
1147.1
1129.22
1113.17
1097.42
1083.43
1067.02
1054.35
1036.41
1019.48
1005.59
995.27
988.534
986.194
984.614
1277.28
1274.01
1269.75
1265.28
1261.73
1259.42
1258.2
1257.72
1257.65
1257.7
1257.59
1257.09
1255.99
1254.07
1251.07
1247.06
1242.15
1236.29
1229.5
1221.91
1213.71
1204.49
1193.29
1182.57
1179.39
1184.11
1189.34
1187.72
1178.03
1161.77
1142.03
1117.19
1057.67
976.753
850.464
744.99
720.158
654.179
623.964
675.893
800.793
976.065
1003.78
992.38
992.102
1266.76
1264.96
1256.35
1247.36
1241.24
1237.52
1235.41
1234.19
1233.42
1232.79
1232.07
1231
1229.39
1226.97
1223.19
1218.36
1212.73
1206.22
1198.91
1191.06
1183.17
1174.25
1161.7
1125.84
1098.02
1116.86
1154.53
1166.43
1146.94
1066.21
876.034
580.056
314.923
161.66
9.50118
-3.24977
-3.27241
-0.56519
3.59412
17.2549
61.4328
173.475
411.972
800.27
1049.41
1263.68
1237.09
1083.5
973.26
953.813
974.593
1015.17
1058.56
1098.19
1129.79
1153.55
1169.35
1177.14
1181.13
1175.66
1165.41
1150.5
1126.38
1089.89
1036.74
971.08
888.215
738.784
484.8
373.488
421.969
569.45
615.143
504.994
270.516
17.4425
-2.71817
-2.68576
-2.97884
-3.16843
-3.12235
-3.0653
-3.13451
-3.39013
-3.73788
-4.02066
-3.93033
-2.69396
45.3864
299.084
911.605
575.378
232.412
125.521
114.97
132.855
169.479
217.869
273.324
333.51
391.916
443.091
481.824
509.884
499.4
470.566
428.429
368.731
298.324
219.974
151.043
88.4118
11.6022
-2.32282
-2.26789
-2.29486
-2.08162
-2.09202
-2.14296
-2.41747
-2.70314
-2.69747
-2.70036
-2.82304
-2.98892
-3.10255
-3.14772
-3.21471
-3.32639
-3.45619
-3.58465
-3.69331
-3.70728
-3.62538
-2.33417
51.3726
-0.687255
-0.934675
-1.07964
-1.08876
-1.10423
-1.14091
-1.18911
-1.24231
-1.29986
-1.35834
-1.41596
-1.4569
-1.49074
-1.53239
-1.57802
-1.61788
-1.66128
-1.71404
-1.77548
-1.83128
-1.93988
-1.98794
-1.94277
-1.94487
-1.98398
-2.04281
-2.11423
-2.20419
-2.34839
-2.52701
-2.67147
-2.75969
-2.87515
-3.01092
-3.12854
-3.21851
-3.32039
-3.44399
-3.57738
-3.70475
-3.81284
-3.87483
-3.87527
-3.74059
-1.3339
-1.10793
-1.10549
-1.11366
-1.09702
-1.08331
-1.08043
-1.08682
-1.10043
-1.11914
-1.14169
-1.16782
-1.19598
-1.22411
-1.25287
-1.28378
-1.3208
-1.3673
-1.42458
-1.49194
-1.57191
-1.67831
-1.81394
-1.93209
-1.99526
-2.05281
-2.11748
-2.19679
-2.29207
-2.4122
-2.55219
-2.68715
-2.79783
-2.91655
-3.04133
-3.15646
-3.26286
-3.37756
-3.50756
-3.6478
-3.78882
-3.92103
-4.03175
-4.10721
-4.17551
-1.21973
-1.17809
-1.13196
-1.11979
-1.11143
-1.10764
-1.11189
-1.12394
-1.14233
-1.16566
-1.19265
-1.22205
-1.25387
-1.28686
-1.32112
-1.35792
-1.40028
-1.45084
-1.51045
-1.57982
-1.65952
-1.75239
-1.85823
-1.9586
-2.0309
-2.09654
-2.16711
-2.24981
-2.34801
-2.46157
-2.58748
-2.7108
-2.82674
-2.94593
-3.0674
-3.18489
-3.29937
-3.41873
-3.54715
-3.68309
-3.82234
-3.96105
-4.09694
-4.22831
-4.35952
-1.19118
-1.16367
-1.13786
-1.12504
-1.12058
-1.12177
-1.1301
-1.14559
-1.16715
-1.19352
-1.22351
-1.25599
-1.29032
-1.32645
-1.36461
-1.40583
-1.45161
-1.50402
-1.56446
-1.63304
-1.7097
-1.79407
-1.88372
-1.96977
-2.04714
-2.12158
-2.20047
-2.28877
-2.38778
-2.4983
-2.61707
-2.73646
-2.85356
-2.97211
-3.09214
-3.21124
-3.32997
-3.45208
-3.58001
-3.71359
-3.85167
-3.99264
-4.13577
-4.28185
-4.43469
-1.17208
-1.15726
-1.14173
-1.13181
-1.12924
-1.13256
-1.14241
-1.15891
-1.18124
-1.2083
-1.23906
-1.27255
-1.30847
-1.34654
-1.38694
-1.43044
-1.4784
-1.53234
-1.59322
-1.66115
-1.73578
-1.8163
-1.90026
-1.98387
-2.06444
-2.14495
-2.2296
-2.32161
-2.4218
-2.52979
-2.64395
-2.76019
-2.87642
-2.99375
-3.11244
-3.23182
-3.35232
-3.4759
-3.60427
-3.73816
-3.87774
-4.02252
-4.17142
-4.32366
-4.48104
-1.17544
-1.15963
-1.14806
-1.14074
-1.13978
-1.14479
-1.156
-1.17343
-1.19644
-1.22409
-1.25545
-1.28978
-1.32678
-1.36631
-1.40846
-1.45385
-1.50351
-1.55855
-1.61968
-1.68695
-1.75992
-1.83773
-1.91886
-2.00112
-2.08342
-2.1672
-2.25504
-2.34891
-2.44909
-2.55508
-2.66567
-2.77863
-2.89268
-3.0081
-3.1252
-3.24393
-3.36472
-3.48885
-3.61785
-3.75296
-3.89505
-4.0443
-4.1995
-4.3586
-4.52072
-1.18134
-1.16643
-1.15701
-1.15177
-1.15237
-1.15891
-1.17144
-1.18984
-1.21358
-1.24184
-1.27381
-1.30884
-1.34669
-1.38726
-1.4307
-1.4775
-1.52844
-1.58423
-1.64536
-1.71178
-1.78311
-1.8586
-1.93733
-2.01826
-2.10089
-2.1861
-2.27532
-2.3696
-2.46894
-2.57272
-2.67996
-2.78947
-2.90061
-3.01356
-3.12863
-3.24599
-3.36613
-3.49019
-3.61976
-3.75641
-3.90139
-4.0552
-4.21683
-4.38367
-4.55316
-1.18811
-1.17493
-1.16766
-1.16442
-1.16652
-1.17439
-1.18802
-1.20724
-1.23156
-1.26028
-1.29271
-1.3283
-1.36679
-1.40812
-1.45246
-1.50021
-1.55188
-1.60796
-1.6687
-1.73404
-1.80363
-1.87697
-1.95353
-2.03288
-2.11495
-2.20027
-2.28958
-2.38322
-2.4809
-2.58196
-2.6857
-2.79156
-2.89939
-3.00943
-3.12198
-3.23733
-3.35612
-3.47961
-3.60956
-3.74776
-3.89571
-4.05424
-4.22267
-4.39834
-4.57754
-1.19503
-1.18449
-1.1794
-1.17805
-1.18157
-1.19056
-1.20506
-1.22487
-1.24955
-1.27852
-1.31119
-1.34709
-1.38598
-1.4278
-1.47269
-1.52096
-1.57295
-1.62892
-1.68897
-1.75301
-1.82079
-1.892
-1.96641
-2.04397
-2.1248
-2.20924
-2.29752
-2.38951
-2.48472
-2.58251
-2.68248
-2.78452
-2.88881
-2.99563
-3.10521
-3.21797
-3.33479
-3.45724
-3.58725
-3.72676
-3.87755
-4.041
-4.2169
-4.40283
-4.59395
-1.20192
-1.19469
-1.1916
-1.19194
-1.19675
-1.2067
-1.22187
-1.24207
-1.26692
-1.29594
-1.32864
-1.36463
-1.40365
-1.44566
-1.49076
-1.53917
-1.59109
-1.64661
-1.70574
-1.76833
-1.83421
-1.90325
-1.97546
-2.05099
-2.13003
-2.21275
-2.29904
-2.38847
-2.48043
-2.57444
-2.67039
-2.76851
-2.86913
-2.97245
-3.07867
-3.18831
-3.30263
-3.42355
-3.5532
-3.69364
-3.84703
-4.01549
-4.19966
-4.3974
-4.60298
-1.20887
-1.20504
-1.20361
-1.20539
-1.21134
-1.22208
-1.23773
-1.25816
-1.28304
-1.31198
-1.34455
-1.38043
-1.41937
-1.46129
-1.50627
-1.55445
-1.60594
-1.66071
-1.71866
-1.77966
-1.84358
-1.91043
-1.98036
-2.05363
-2.13041
-2.2107
-2.29417
-2.38023
-2.4683
-2.55812
-2.64987
-2.74398
-2.84077
-2.94033
-3.04279
-3.14887
-3.26023
-3.37914
-3.50794
-3.64884
-3.80446
-3.97778
-4.17049
-4.38083
-4.60227
-1.21571
-1.2149
-1.21478
-1.21777
-1.22468
-1.23605
-1.25205
-1.27258
-1.29738
-1.32612
-1.35845
-1.39405
-1.43272
-1.47433
-1.5189
-1.56653
-1.61723
-1.67094
-1.7275
-1.78678
-1.84869
-1.91333
-1.98091
-2.0517
-2.12579
-2.20304
-2.28298
-2.36503
-2.44874
-2.53411
-2.62154
-2.71152
-2.80426
-2.89971
-2.99801
-3.10017
-3.20824
-3.32475
-3.45211
-3.59276
-3.74986
-3.92721
-4.1274
-4.34899
-4.58395
-1.22187
-1.22349
-1.22441
-1.22846
-1.23617
-1.24804
-1.26428
-1.28482
-1.30947
-1.33792
-1.36987
-1.40505
-1.44325
-1.48433
-1.52824
-1.57502
-1.62466
-1.67705
-1.73203
-1.78948
-1.84936
-1.91178
-1.97693
-2.04501
-2.11601
-2.18969
-2.26556
-2.34315
-2.42223
-2.50302
-2.58602
-2.67167
-2.76003
-2.85097
-2.94479
-3.04285
-3.14745
-3.26112
-3.38623
-3.52549
-3.68263
-3.86215
-4.0671
-4.29589
-4.53863
-1.22655
-1.23006
-1.23183
-1.23681
-1.24521
-1.2575
-1.27391
-1.29443
-1.31886
-1.34695
-1.37842
-1.41302
-1.45056
-1.49087
-1.53388
-1.57956
-1.62787
-1.67873
-1.73199
-1.78756
-1.8454
-1.90558
-1.96821
-2.03334
-2.10087
-2.17054
-2.24195
-2.31483
-2.38919
-2.46536
-2.5438
-2.62481
-2.70834
-2.79438
-2.88355
-2.97745
-3.07836
-3.18856
-3.31032
-3.4466
-3.60163
-3.7803
-3.98585
-4.21617
-4.4597
-1.22897
-1.23388
-1.23644
-1.24227
-1.2513
-1.26397
-1.28054
-1.30101
-1.3252
-1.35288
-1.38378
-1.41766
-1.45433
-1.49364
-1.53548
-1.5798
-1.62655
-1.67568
-1.72711
-1.78075
-1.83657
-1.8945
-1.95449
-2.01643
-2.08016
-2.14549
-2.21224
-2.28036
-2.35002
-2.42153
-2.49521
-2.5712
-2.64952
-2.73046
-2.81492
-2.90454
-3.00122
-3.1069
-3.22381
-3.35519
-3.50542
-3.67932
-3.88024
-4.10579
-4.34325
-1.22853
-1.23438
-1.23779
-1.24441
-1.25406
-1.26713
-1.28386
-1.30426
-1.32819
-1.35542
-1.38568
-1.41872
-1.45436
-1.49244
-1.53284
-1.57552
-1.62046
-1.66767
-1.71715
-1.76884
-1.82261
-1.87823
-1.93544
-1.99398
-2.0537
-2.11457
-2.17664
-2.24008
-2.30509
-2.37186
-2.44053
-2.51123
-2.5842
-2.66003
-2.73973
-2.82465
-2.91624
-3.01613
-3.12658
-3.25086
-3.3931
-3.55785
-3.74832
-3.96181
-4.18457
-1.22493
-1.23126
-1.23561
-1.24305
-1.25333
-1.2668
-1.28367
-1.30397
-1.32758
-1.3543
-1.38384
-1.41597
-1.45043
-1.48708
-1.52579
-1.56658
-1.60949
-1.6546
-1.70199
-1.7516
-1.80316
-1.85629
-1.91056
-1.96562
-2.02135
-2.07787
-2.13545
-2.19435
-2.25474
-2.31668
-2.38021
-2.44555
-2.51319
-2.58386
-2.65849
-2.73805
-2.82359
-2.9165
-3.0189
-3.13382
-3.26505
-3.41676
-3.59202
-3.78852
-3.99333
-1.21813
-1.22446
-1.22989
-1.2382
-1.24915
-1.263
-1.27995
-1.30005
-1.32322
-1.34929
-1.378
-1.40906
-1.44221
-1.47727
-1.51416
-1.55292
-1.59366
-1.63655
-1.68167
-1.72892
)
;

boundaryField
{
    leftWall
    {
        type            fixedFluxPressure;
        gradient        uniform 0;
        value           nonuniform List<scalar> 
44
(
1524.22
1522.03
1519.33
1515.73
1510.98
1505.08
1498.05
1489.87
1480.58
1470.22
1458.77
1446.21
1432.68
1418.3
1403.2
1387.51
1371.4
1355
1338.48
1321.98
1305.75
1290.53
1277.28
1266.76
1263.68
911.605
51.3726
-1.3339
-1.21973
-1.19118
-1.17208
-1.17544
-1.18134
-1.18811
-1.19503
-1.20192
-1.20887
-1.21571
-1.22187
-1.22655
-1.22897
-1.22853
-1.22493
-1.21813
)
;
    }
    rightWall
    {
        type            fixedFluxPressure;
        gradient        nonuniform 0();
        value           nonuniform 0();
    }
    lowerWall
    {
        type            fixedFluxPressure;
        gradient        uniform 0;
        value           nonuniform List<scalar> 
44
(
1524.22
1526.38
1532.71
1541.62
1550.24
1557.85
1564.35
1570.02
1575.22
1580.2
1585.11
1590.04
1595.02
1600.06
1605.13
1610.2
1615.23
1620.18
1625.03
1629.75
1634.34
1638.81
1643.22
1647.66
1652.3
1657.34
1663.1
1670
1678.57
1689.54
1703.82
1722.65
1747.88
1780.38
1821.57
1872.49
1933.61
2003.77
2079.14
2153.06
2217.23
2264.76
2290.55
2296.15
)
;
    }
    atmosphere
    {
        type            totalPressure;
        rho             rho;
        psi             none;
        gamma           1;
        p0              nonuniform 0();
        value           nonuniform 0();
    }
    defaultFaces
    {
        type            empty;
    }
    procBoundary0to1
    {
        type            processor;
        value           nonuniform List<scalar> 
44
(
2317.99
2293.44
2312.32
2351.57
2390.48
2411.14
2399.45
2340.92
2216.91
2003.45
1665.17
1409.23
1290.37
1212.85
1145.07
1091.86
1052.04
1021.86
1000.37
987.796
987.796
965.895
979.836
997.357
1034.3
842.781
56.1069
-3.26934
-4.12863
-4.47135
-4.58919
-4.64573
-4.68634
-4.72377
-4.75722
-4.78525
-4.80888
-4.82474
-4.81811
-4.77633
-4.69134
-4.5667
-4.39403
-4.17991
)
;
    }
    procBoundary0to2
    {
        type            processor;
        value           nonuniform List<scalar> 
46
(
-1.77799
-1.82836
-1.87951
-1.93111
-1.98308
-2.03561
-2.08901
-2.14356
-2.19937
-2.25643
-2.31482
-2.37486
-2.43716
-2.50244
-2.57143
-2.64479
-2.72332
-2.80814
-2.90108
-3.00475
-3.12246
-3.25793
-3.41446
-3.59181
-3.78043
-1.208
-1.21406
-1.22077
-1.23002
-1.24163
-1.25582
-1.27276
-1.29254
-1.31511
-1.34034
-1.36799
-1.39778
-1.42945
-1.46282
-1.49783
-1.53454
-1.57311
-1.61369
-1.65638
-1.77799
-1.70105
)
;
    }
}


// ************************************************************************* //
