/*--------------------------------*- C++ -*----------------------------------*\
| =========                 |                                                 |
| \\      /  F ield         | OpenFOAM: The Open Source CFD Toolbox           |
|  \\    /   O peration     | Version:  5.0                                   |
|   \\  /    A nd           | Web:      www.OpenFOAM.org                      |
|    \\/     M anipulation  |                                                 |
\*---------------------------------------------------------------------------*/
FoamFile
{
    version     2.0;
    format      ascii;
    class       surfaceScalarField;
    location    "0.3";
    object      phi;
}
// * * * * * * * * * * * * * * * * * * * * * * * * * * * * * * * * * * * * * //

dimensions      [0 3 -1 0 0 0 0];

internalField   nonuniform List<scalar> 
3781
(
-3.10125e-06
3.10125e-06
-2.95625e-06
-1.44992e-07
-8.83289e-07
-2.07297e-06
1.89686e-06
-2.78015e-06
4.87038e-06
-2.97352e-06
7.75088e-06
-2.88051e-06
1.04313e-05
-2.6804e-06
1.2897e-05
-2.46574e-06
1.51715e-05
-2.27449e-06
1.72919e-05
-2.12042e-06
1.92978e-05
-2.00586e-06
2.12252e-05
-1.92742e-06
2.31048e-05
-1.87956e-06
2.49612e-05
-1.8564e-06
2.68137e-05
-1.85246e-06
2.86765e-05
-1.86284e-06
3.05597e-05
-1.88317e-06
3.24692e-05
-1.90951e-06
3.44074e-05
-1.93825e-06
3.63734e-05
-1.96593e-06
3.83625e-05
-1.98919e-06
4.03671e-05
-2.00456e-06
4.23755e-05
-2.00844e-06
4.43724e-05
-1.9969e-06
4.63381e-05
-1.96563e-06
4.82478e-05
-1.90969e-06
5.00711e-05
-1.82335e-06
5.17709e-05
-1.69977e-06
5.33011e-05
-1.53026e-06
5.46043e-05
-1.30318e-06
5.56034e-05
-9.99129e-07
5.61906e-05
-5.87181e-07
5.62058e-05
-1.51827e-08
5.53244e-05
8.81365e-07
5.33463e-05
1.97812e-06
5.00218e-05
3.32455e-06
4.51078e-05
4.91402e-06
3.84343e-05
6.67345e-06
3.00053e-05
8.42902e-06
2.0126e-05
9.87926e-06
9.48586e-06
1.06402e-05
-1.00734e-06
1.04932e-05
-1.05084e-05
9.5011e-06
6.1218e-06
-8.16723e-07
3.91797e-06
2.83735e-07
-1.24545e-06
2.30626e-06
-4.09549e-06
4.81276e-06
-5.28665e-06
7.4288e-06
-5.58956e-06
9.99553e-06
-5.44724e-06
1.24419e-05
-5.12682e-06
1.47501e-05
-4.77388e-06
1.6932e-05
-4.45639e-06
1.90123e-05
-4.2007e-06
2.10185e-05
-4.01207e-06
2.29766e-05
-3.88557e-06
2.49091e-05
-3.8121e-06
2.68343e-05
-3.78152e-06
2.87659e-05
-3.78408e-06
3.07139e-05
-3.81089e-06
3.26847e-05
-3.85393e-06
3.46812e-05
-3.90598e-06
3.67033e-05
-3.96033e-06
3.8748e-05
-4.01064e-06
4.08094e-05
-4.05061e-06
4.28787e-05
-4.07383e-06
4.49437e-05
-4.0735e-06
4.6989e-05
-4.04221e-06
4.89951e-05
-3.97171e-06
5.0938e-05
-3.8526e-06
5.27886e-05
-3.67397e-06
5.45117e-05
-3.42282e-06
5.60647e-05
-3.08324e-06
5.73965e-05
-2.63498e-06
5.84482e-05
-2.05091e-06
5.91575e-05
-1.29646e-06
5.94692e-05
-3.26833e-07
5.93946e-05
9.55892e-07
5.8765e-05
2.60778e-06
5.73845e-05
4.70507e-06
5.49921e-05
7.30644e-06
5.12498e-05
1.04157e-05
4.57734e-05
1.39054e-05
3.82458e-05
1.74069e-05
2.86596e-05
2.02264e-05
1.76777e-05
2.1475e-05
6.9558e-06
2.0223e-05
1.45255e-05
7.44276e-07
3.17369e-06
2.25519e-06
-2.75637e-06
4.33448e-06
-6.17478e-06
6.67085e-06
-7.62302e-06
9.05991e-06
-7.97862e-06
1.14043e-05
-7.79161e-06
1.3665e-05
-7.38751e-06
1.5835e-05
-6.9439e-06
1.79247e-05
-6.54613e-06
1.9952e-05
-6.22797e-06
2.19363e-05
-5.99637e-06
2.38959e-05
-5.84513e-06
2.58463e-05
-5.76255e-06
2.78002e-05
-5.73536e-06
2.97667e-05
-5.7506e-06
3.17521e-05
-5.79635e-06
3.376e-05
-5.86178e-06
3.5791e-05
-5.93705e-06
3.78437e-05
-6.01302e-06
3.9914e-05
-6.08092e-06
4.19954e-05
-6.132e-06
4.40788e-05
-6.15723e-06
4.61522e-05
-6.14694e-06
4.82006e-05
-6.09055e-06
5.0205e-05
-5.97619e-06
5.21428e-05
-5.79034e-06
5.39862e-05
-5.51737e-06
5.57022e-05
-5.13887e-06
5.72517e-05
-4.63271e-06
5.85885e-05
-3.97175e-06
5.96597e-05
-3.12209e-06
6.04044e-05
-2.04124e-06
6.07554e-05
-6.77794e-07
6.06667e-05
1.04455e-06
6.00647e-05
3.20978e-06
5.88648e-05
5.905e-06
5.69645e-05
9.20678e-06
5.42312e-05
1.3149e-05
5.04786e-05
1.7658e-05
4.54444e-05
2.24412e-05
3.88372e-05
2.68335e-05
3.06075e-05
2.97047e-05
2.13973e-05
2.94332e-05
2.36703e-05
1.4281e-06
1.74559e-06
3.39917e-06
-4.72743e-06
5.63828e-06
-8.41389e-06
7.94362e-06
-9.92837e-06
1.02121e-05
-1.02471e-05
1.24115e-05
-9.9911e-06
1.45399e-05
-9.51585e-06
1.66063e-05
-9.01031e-06
1.86246e-05
-8.56445e-06
2.06098e-05
-8.21314e-06
2.25759e-05
-7.96248e-06
2.45353e-05
-7.80452e-06
2.64981e-05
-7.72535e-06
2.84721e-05
-7.70939e-06
3.04629e-05
-7.74141e-06
3.24738e-05
-7.80727e-06
3.45062e-05
-7.89413e-06
3.65593e-05
-7.99018e-06
3.86306e-05
-8.08434e-06
4.07156e-05
-8.16588e-06
4.28075e-05
-8.22392e-06
4.48974e-05
-8.2471e-06
4.69736e-05
-8.22315e-06
4.90216e-05
-8.13853e-06
5.10234e-05
-7.97801e-06
5.29573e-05
-7.72424e-06
5.47972e-05
-7.35726e-06
5.65121e-05
-6.85379e-06
5.80657e-05
-6.18627e-06
5.94156e-05
-5.32164e-06
6.05133e-05
-4.21983e-06
6.13043e-05
-2.83224e-06
6.17281e-05
-1.10157e-06
6.17267e-05
1.04595e-06
6.12414e-05
3.6951e-06
6.02141e-05
6.93226e-06
5.85892e-05
1.08317e-05
5.63102e-05
1.5428e-05
5.33031e-05
2.0665e-05
4.94369e-05
2.63075e-05
4.44731e-05
3.17973e-05
3.81054e-05
3.60724e-05
3.01777e-05
3.73609e-05
3.30616e-05
1.67079e-06
7.47946e-08
4.01906e-06
-7.07569e-06
6.43699e-06
-1.08318e-05
8.76229e-06
-1.22537e-05
1.09693e-05
-1.24541e-05
1.30794e-05
-1.21013e-05
1.51215e-05
-1.15579e-05
1.71193e-05
-1.10081e-05
1.90911e-05
-1.05363e-05
2.10507e-05
-1.01727e-05
2.30085e-05
-9.92029e-06
2.49725e-05
-9.76854e-06
2.69487e-05
-9.70159e-06
2.89414e-05
-9.70209e-06
3.09533e-05
-9.75325e-06
3.29855e-05
-9.83947e-06
3.50378e-05
-9.94647e-06
3.71087e-05
-1.0061e-05
3.91949e-05
-1.01706e-05
4.12918e-05
-1.02628e-05
4.33927e-05
-1.03248e-05
4.5489e-05
-1.03434e-05
4.75695e-05
-1.03037e-05
4.96205e-05
-1.01894e-05
5.16247e-05
-9.98229e-06
5.35618e-05
-9.6613e-06
5.5407e-05
-9.2025e-06
5.71314e-05
-8.57819e-06
5.87012e-05
-7.756e-06
6.00773e-05
-6.69778e-06
6.12157e-05
-5.35825e-06
6.20674e-05
-3.68391e-06
6.25785e-05
-1.61264e-06
6.26947e-05
9.29697e-07
6.23642e-05
4.02562e-06
6.1539e-05
7.75746e-06
6.0177e-05
1.21937e-05
5.82391e-05
1.73658e-05
5.56764e-05
2.32278e-05
5.2396e-05
2.95879e-05
4.82025e-05
3.59907e-05
4.27464e-05
4.15285e-05
3.55494e-05
4.4558e-05
4.24973e-05
1.81847e-06
-1.74367e-06
4.38564e-06
-9.64287e-06
6.90794e-06
-1.33541e-05
9.23707e-06
-1.45828e-05
1.13981e-05
-1.46151e-05
1.34481e-05
-1.41513e-05
1.54353e-05
-1.35451e-05
1.73923e-05
-1.29651e-05
1.93394e-05
-1.24833e-05
2.1289e-05
-1.21223e-05
2.32488e-05
-1.188e-05
2.52233e-05
-1.17431e-05
2.72157e-05
-1.16939e-05
2.92274e-05
-1.17138e-05
3.12592e-05
-1.17851e-05
3.33109e-05
-1.18911e-05
3.53812e-05
-1.20168e-05
3.7468e-05
-1.21478e-05
3.95679e-05
-1.22705e-05
4.16763e-05
-1.23712e-05
4.37869e-05
-1.24354e-05
4.58915e-05
-1.2448e-05
4.79797e-05
-1.23919e-05
5.00384e-05
-1.22481e-05
5.20516e-05
-1.19955e-05
5.39999e-05
-1.16096e-05
5.58601e-05
-1.10627e-05
5.7605e-05
-1.03231e-05
5.92033e-05
-9.35428e-06
6.06191e-05
-8.11355e-06
6.18122e-05
-6.55136e-06
6.27385e-05
-4.61021e-06
6.33503e-05
-2.22446e-06
6.35993e-05
6.8067e-07
6.34391e-05
4.18582e-06
6.28269e-05
8.36972e-06
6.17236e-05
1.3297e-05
6.00904e-05
1.89991e-05
5.78744e-05
2.54437e-05
5.49801e-05
3.24822e-05
5.12151e-05
3.97557e-05
4.62165e-05
4.65272e-05
3.93779e-05
5.13966e-05
5.20231e-05
1.94554e-06
-3.68922e-06
4.61988e-06
-1.23172e-05
7.16299e-06
-1.58972e-05
9.45703e-06
-1.68768e-05
1.15653e-05
-1.67234e-05
1.35662e-05
-1.61521e-05
1.55164e-05
-1.54953e-05
1.74506e-05
-1.48993e-05
1.93881e-05
-1.44209e-05
2.1339e-05
-1.40732e-05
2.33081e-05
-1.38491e-05
2.52976e-05
-1.37326e-05
2.73079e-05
-1.37043e-05
2.93389e-05
-1.37449e-05
3.139e-05
-1.38361e-05
3.34598e-05
-1.3961e-05
3.55468e-05
-1.41037e-05
3.76484e-05
-1.42495e-05
3.97615e-05
-1.43837e-05
4.18817e-05
-1.44914e-05
4.40032e-05
-1.4557e-05
4.61185e-05
-1.45633e-05
4.8218e-05
-1.44913e-05
5.02895e-05
-1.43196e-05
5.2318e-05
-1.4024e-05
5.42853e-05
-1.35769e-05
5.61696e-05
-1.29471e-05
5.79457e-05
-1.20992e-05
5.95841e-05
-1.09927e-05
6.10519e-05
-9.58138e-06
6.23126e-05
-7.81206e-06
6.33266e-05
-5.62415e-06
6.40517e-05
-2.94957e-06
6.44454e-05
2.86954e-07
6.44664e-05
4.1648e-06
6.40755e-05
8.76061e-06
6.32347e-05
1.41378e-05
6.19017e-05
2.03321e-05
6.00161e-05
2.73293e-05
5.74716e-05
3.50267e-05
5.40661e-05
4.31612e-05
4.94186e-05
5.11746e-05
4.28472e-05
5.7968e-05
6.16037e-05
2.06075e-06
-5.74997e-06
4.76654e-06
-1.5023e-05
7.2632e-06
-1.83939e-05
9.48539e-06
-1.9099e-05
1.15287e-05
-1.87667e-05
1.34823e-05
-1.81057e-05
1.54036e-05
-1.74166e-05
1.73244e-05
-1.68201e-05
1.92604e-05
-1.63569e-05
2.12185e-05
-1.60313e-05
2.32007e-05
-1.58313e-05
2.52066e-05
-1.57385e-05
2.72351e-05
-1.57328e-05
2.92847e-05
-1.57944e-05
3.13535e-05
-1.5905e-05
3.344e-05
-1.60474e-05
3.55421e-05
-1.62058e-05
3.76576e-05
-1.63649e-05
3.97834e-05
-1.65094e-05
4.19156e-05
-1.66236e-05
4.40491e-05
-1.66905e-05
4.61773e-05
-1.66914e-05
4.82913e-05
-1.66053e-05
5.03801e-05
-1.64084e-05
5.24297e-05
-1.60736e-05
5.44231e-05
-1.55703e-05
5.634e-05
-1.4864e-05
5.81564e-05
-1.39156e-05
5.98453e-05
-1.26815e-05
6.13761e-05
-1.11122e-05
6.27156e-05
-9.15164e-06
6.38286e-05
-6.73709e-06
6.46779e-05
-3.79894e-06
6.52267e-05
-2.61812e-07
6.54388e-05
3.9527e-06
6.52791e-05
8.92033e-06
6.47117e-05
1.47051e-05
6.36943e-05
2.13495e-05
6.21641e-05
2.88595e-05
6.00126e-05
3.71782e-05
5.70363e-05
4.61374e-05
5.28485e-05
5.53625e-05
4.67201e-05
6.40964e-05
7.09699e-05
2.16281e-06
-7.91278e-06
4.84218e-06
-1.77024e-05
7.24259e-06
-2.07943e-05
9.36596e-06
-2.12224e-05
1.13341e-05
-2.07348e-05
1.32391e-05
-2.00108e-05
1.51337e-05
-1.93112e-05
1.7044e-05
-1.87304e-05
1.89809e-05
-1.82938e-05
2.09473e-05
-1.79977e-05
2.29423e-05
-1.78263e-05
2.49637e-05
-1.77598e-05
2.70086e-05
-1.77777e-05
2.90744e-05
-1.78602e-05
3.11588e-05
-1.79894e-05
3.32597e-05
-1.81484e-05
3.53751e-05
-1.83213e-05
3.75029e-05
-1.84927e-05
3.96404e-05
-1.8647e-05
4.17845e-05
-1.87677e-05
4.39307e-05
-1.88367e-05
4.60732e-05
-1.88339e-05
4.82043e-05
-1.87365e-05
5.03141e-05
-1.85181e-05
5.23897e-05
-1.81492e-05
5.44153e-05
-1.75959e-05
5.63717e-05
-1.68204e-05
5.82366e-05
-1.57805e-05
5.99844e-05
-1.44294e-05
6.15872e-05
-1.27149e-05
6.30148e-05
-1.05792e-05
6.42357e-05
-7.95803e-06
6.5218e-05
-4.78124e-06
6.59301e-05
-9.73932e-07
6.63416e-05
3.54117e-06
6.6423e-05
8.83896e-06
6.61436e-05
1.49845e-05
6.54664e-05
2.20267e-05
6.43366e-05
2.99893e-05
6.2659e-05
3.88558e-05
6.02546e-05
4.85419e-05
5.67725e-05
5.88446e-05
5.1513e-05
6.9356e-05
7.94092e-05
2.2478e-06
-1.01606e-05
4.85364e-06
-2.03082e-05
7.12257e-06
-2.30632e-05
9.12992e-06
-2.32297e-05
1.10162e-05
-2.26211e-05
1.28704e-05
-2.1865e-05
1.47373e-05
-2.11781e-05
1.66359e-05
-2.0629e-05
1.85717e-05
-2.02296e-05
2.05439e-05
-1.99699e-05
2.25489e-05
-1.98313e-05
2.45824e-05
-1.97933e-05
2.66403e-05
-1.98356e-05
2.87191e-05
-1.9939e-05
3.08158e-05
-2.00862e-05
3.29283e-05
-2.02608e-05
3.50545e-05
-2.04474e-05
3.71924e-05
-2.06307e-05
3.93402e-05
-2.07947e-05
4.14952e-05
-2.09226e-05
4.36538e-05
-2.09954e-05
4.58114e-05
-2.09915e-05
4.79613e-05
-2.08864e-05
5.00947e-05
-2.06515e-05
5.21999e-05
-2.02544e-05
5.42623e-05
-1.96583e-05
5.62639e-05
-1.88219e-05
5.81834e-05
-1.77e-05
5.99969e-05
-1.62429e-05
6.16784e-05
-1.43964e-05
6.32005e-05
-1.21013e-05
6.45355e-05
-9.29309e-06
6.56563e-05
-5.90201e-06
6.65369e-05
-1.85451e-06
6.71532e-05
2.92485e-06
6.74829e-05
8.50926e-06
6.75038e-05
1.49636e-05
6.71904e-05
2.23401e-05
6.65061e-05
3.06737e-05
6.53879e-05
3.99739e-05
6.37151e-05
5.02147e-05
6.12413e-05
6.13183e-05
5.74395e-05
7.31578e-05
8.57543e-05
2.35311e-06
-1.25137e-05
4.89072e-06
-2.28458e-05
7.04064e-06
-2.52132e-05
8.95482e-06
-2.51439e-05
1.07871e-05
-2.44534e-05
1.26198e-05
-2.36977e-05
1.44887e-05
-2.3047e-05
1.64055e-05
-2.25458e-05
1.83706e-05
-2.21947e-05
2.03795e-05
-2.19787e-05
2.24258e-05
-2.18777e-05
2.45035e-05
-2.1871e-05
2.66071e-05
-2.19391e-05
2.87322e-05
-2.20641e-05
3.08753e-05
-2.22293e-05
3.30338e-05
-2.24194e-05
3.52059e-05
-2.26195e-05
3.739e-05
-2.28147e-05
3.95844e-05
-2.29892e-05
4.17875e-05
-2.31257e-05
4.39966e-05
-2.32044e-05
4.62079e-05
-2.32028e-05
4.8416e-05
-2.30945e-05
5.06133e-05
-2.28488e-05
5.27891e-05
-2.24303e-05
5.49296e-05
-2.17988e-05
5.70175e-05
-2.09098e-05
5.9032e-05
-1.97146e-05
6.09501e-05
-1.81609e-05
6.27468e-05
-1.61931e-05
6.43969e-05
-1.37514e-05
6.58758e-05
-1.0772e-05
6.71605e-05
-7.18675e-06
6.82306e-05
-2.92462e-06
6.90688e-05
2.08672e-06
6.96608e-05
7.91719e-06
6.99954e-05
1.4629e-05
7.00626e-05
2.2273e-05
6.98512e-05
3.0885e-05
6.93436e-05
4.04816e-05
6.85042e-05
5.1054e-05
6.72585e-05
6.2564e-05
6.54437e-05
7.49726e-05
8.84242e-05
2.41767e-06
-1.49314e-05
4.82532e-06
-2.52534e-05
6.81512e-06
-2.7203e-05
8.60998e-06
-2.69388e-05
1.03673e-05
-2.62107e-05
1.21583e-05
-2.54886e-05
1.40084e-05
-2.48971e-05
1.5922e-05
-2.44594e-05
1.78945e-05
-2.41672e-05
1.99177e-05
-2.4002e-05
2.1983e-05
-2.39431e-05
2.40826e-05
-2.39706e-05
2.62096e-05
-2.40662e-05
2.83588e-05
-2.42133e-05
3.05262e-05
-2.43967e-05
3.27092e-05
-2.46023e-05
3.49057e-05
-2.4816e-05
3.71146e-05
-2.50236e-05
3.93349e-05
-2.52095e-05
4.15656e-05
-2.53563e-05
4.3805e-05
-2.54439e-05
4.60508e-05
-2.54486e-05
4.82989e-05
-2.53425e-05
5.05428e-05
-2.50927e-05
5.27733e-05
-2.46608e-05
5.49775e-05
-2.40031e-05
5.71387e-05
-2.3071e-05
5.92367e-05
-2.18125e-05
6.12485e-05
-2.01728e-05
6.31505e-05
-1.80951e-05
6.49193e-05
-1.55202e-05
6.65333e-05
-1.2386e-05
6.7974e-05
-8.6275e-06
6.9227e-05
-4.17757e-06
7.02822e-05
1.03153e-06
7.11348e-05
7.06449e-06
7.17857e-05
1.39782e-05
7.2242e-05
2.18167e-05
7.25196e-05
3.06074e-05
7.26458e-05
4.03554e-05
7.26653e-05
5.10346e-05
7.26535e-05
6.25758e-05
7.27631e-05
7.4863e-05
8.77617e-05
2.45784e-06
-1.73892e-05
4.69959e-06
-2.74952e-05
6.51316e-06
-2.90165e-05
8.18306e-06
-2.86087e-05
9.86189e-06
-2.78895e-05
1.16071e-05
-2.72338e-05
1.34336e-05
-2.67236e-05
1.53387e-05
-2.63646e-05
1.7313e-05
-2.61415e-05
1.93451e-05
-2.60341e-05
2.14241e-05
-2.6022e-05
2.35402e-05
-2.60867e-05
2.56857e-05
-2.62117e-05
2.78544e-05
-2.6382e-05
3.00418e-05
-2.65842e-05
3.2245e-05
-2.68054e-05
3.4462e-05
-2.70331e-05
3.66921e-05
-2.72536e-05
3.89347e-05
-2.74522e-05
4.11898e-05
-2.76114e-05
4.34569e-05
-2.7711e-05
4.57347e-05
-2.77265e-05
4.80209e-05
-2.76286e-05
5.03105e-05
-2.73823e-05
5.25958e-05
-2.69461e-05
5.48648e-05
-2.62721e-05
5.71013e-05
-2.53075e-05
5.92849e-05
-2.3996e-05
6.13925e-05
-2.22804e-05
6.34007e-05
-2.01032e-05
6.52873e-05
-1.74068e-05
6.70337e-05
-1.41324e-05
6.86258e-05
-1.02196e-05
7.00549e-05
-5.60665e-06
7.13186e-05
-2.32148e-07
7.24213e-05
5.96177e-06
7.33753e-05
1.30242e-05
7.42032e-05
2.09888e-05
7.49423e-05
2.98683e-05
7.56512e-05
3.96464e-05
7.64202e-05
5.02656e-05
7.73884e-05
6.16076e-05
7.87776e-05
7.34738e-05
8.5581e-05
2.47169e-06
-1.98609e-05
4.51216e-06
-2.95357e-05
6.1366e-06
-3.0641e-05
7.67792e-06
-3.015e-05
9.27584e-06
-2.94874e-05
1.09721e-05
-2.89301e-05
1.2771e-05
-2.85225e-05
1.46629e-05
-2.82565e-05
1.6634e-05
-2.81126e-05
1.86699e-05
-2.80699e-05
2.07574e-05
-2.81094e-05
2.28851e-05
-2.82145e-05
2.50442e-05
-2.83707e-05
2.72276e-05
-2.85654e-05
2.94303e-05
-2.87869e-05
3.16491e-05
-2.90242e-05
3.38821e-05
-2.92661e-05
3.61288e-05
-2.95003e-05
3.83893e-05
-2.97127e-05
4.06644e-05
-2.98864e-05
4.29546e-05
-3.00012e-05
4.52602e-05
-3.00322e-05
4.75805e-05
-2.99489e-05
4.99124e-05
-2.97143e-05
5.225e-05
-2.92837e-05
5.45825e-05
-2.86046e-05
5.68936e-05
-2.76186e-05
5.91623e-05
-2.62647e-05
6.13643e-05
-2.44825e-05
6.34756e-05
-2.22145e-05
6.54747e-05
-1.94059e-05
6.73452e-05
-1.6003e-05
6.90774e-05
-1.19517e-05
7.06682e-05
-7.1975e-06
7.21226e-05
-1.68657e-06
7.34536e-05
4.63081e-06
7.46833e-05
1.17944e-05
7.58461e-05
1.9826e-05
7.69928e-05
2.87215e-05
7.81977e-05
3.84415e-05
7.95652e-05
4.88981e-05
8.1237e-05
5.99358e-05
8.33969e-05
7.13139e-05
8.27049e-05
2.45667e-06
-2.23176e-05
4.25867e-06
-3.13377e-05
5.68402e-06
-3.20663e-05
7.09589e-06
-3.15619e-05
8.61257e-06
-3.10041e-05
1.02584e-05
-3.0576e-05
1.20271e-05
-3.02911e-05
1.39025e-05
-3.01319e-05
1.58665e-05
-3.00766e-05
1.79018e-05
-3.01052e-05
1.99931e-05
-3.02008e-05
2.21278e-05
-3.03492e-05
2.42957e-05
-3.05386e-05
2.64889e-05
-3.07586e-05
2.87021e-05
-3.1e-05
3.09315e-05
-3.12537e-05
3.31755e-05
-3.15101e-05
3.54335e-05
-3.17584e-05
3.77064e-05
-3.19855e-05
3.99955e-05
-3.21755e-05
4.23025e-05
-3.23083e-05
4.46293e-05
-3.2359e-05
4.69769e-05
-3.22964e-05
4.93446e-05
-3.2082e-05
5.17287e-05
-3.16678e-05
5.41199e-05
-3.09958e-05
5.65019e-05
-3.00006e-05
5.88517e-05
-2.86145e-05
6.1143e-05
-2.67738e-05
6.33499e-05
-2.44214e-05
6.54506e-05
-2.15066e-05
6.74306e-05
-1.7983e-05
6.92841e-05
-1.38052e-05
7.1014e-05
-8.92743e-06
7.26321e-05
-3.3046e-06
7.41588e-05
3.10406e-06
7.56245e-05
1.03287e-05
7.70711e-05
1.83795e-05
7.85562e-05
2.72363e-05
8.01584e-05
3.68393e-05
8.19794e-05
4.70771e-05
8.41431e-05
5.77722e-05
8.67882e-05
6.86688e-05
7.94335e-05
2.40615e-06
-2.47237e-05
3.9307e-06
-3.28622e-05
5.15248e-06
-3.32881e-05
6.43883e-06
-3.28482e-05
7.87752e-06
-3.24428e-05
9.47412e-06
-3.21726e-05
1.12119e-05
-3.20289e-05
1.30687e-05
-3.19887e-05
1.50226e-05
-3.20305e-05
1.70536e-05
-3.21362e-05
1.91448e-05
-3.22919e-05
2.12819e-05
-3.24864e-05
2.34539e-05
-3.27106e-05
2.56522e-05
-3.29569e-05
2.78706e-05
-3.32185e-05
3.01055e-05
-3.34885e-05
3.23547e-05
-3.37593e-05
3.46181e-05
-3.40218e-05
3.68966e-05
-3.42641e-05
3.91923e-05
-3.44712e-05
4.15079e-05
-3.46239e-05
4.38465e-05
-3.46975e-05
4.62111e-05
-3.4661e-05
4.8604e-05
-3.4475e-05
5.10247e-05
-3.40884e-05
5.34658e-05
-3.34369e-05
5.59107e-05
-3.24455e-05
5.83338e-05
-3.10377e-05
6.07049e-05
-2.91449e-05
6.29946e-05
-2.6711e-05
6.51797e-05
-2.36918e-05
6.72473e-05
-2.00506e-05
6.91955e-05
-1.57534e-05
7.10332e-05
-1.07651e-05
7.27785e-05
-5.04995e-06
7.44591e-05
1.4235e-06
7.61112e-05
8.67655e-06
7.7781e-05
1.67097e-05
7.95278e-05
2.54895e-05
8.14278e-05
3.49393e-05
8.35727e-05
4.49322e-05
8.60635e-05
5.52814e-05
8.89982e-05
6.57341e-05
7.59773e-05
2.30371e-06
-2.70274e-05
3.51671e-06
-3.40752e-05
4.54181e-06
-3.43132e-05
5.71415e-06
-3.40206e-05
7.08258e-06
-3.38112e-05
8.63377e-06
-3.37238e-05
1.03416e-05
-3.37367e-05
1.21788e-05
-3.38259e-05
1.41201e-05
-3.39718e-05
1.61435e-05
-3.41596e-05
1.82304e-05
-3.43788e-05
2.03655e-05
-3.46215e-05
2.25369e-05
-3.48819e-05
2.47352e-05
-3.51552e-05
2.69538e-05
-3.54371e-05
2.91884e-05
-3.57231e-05
3.14369e-05
-3.60078e-05
3.36988e-05
-3.62837e-05
3.59753e-05
-3.65406e-05
3.82687e-05
-3.67646e-05
4.05823e-05
-3.69374e-05
4.29203e-05
-3.70354e-05
4.52877e-05
-3.70284e-05
4.76903e-05
-3.68776e-05
5.0132e-05
-3.65301e-05
5.26089e-05
-3.59138e-05
5.5104e-05
-3.49406e-05
5.75878e-05
-3.35214e-05
6.00238e-05
-3.15809e-05
6.23774e-05
-2.90646e-05
6.46228e-05
-2.59372e-05
6.67481e-05
-2.21759e-05
6.87559e-05
-1.77612e-05
7.06613e-05
-1.26704e-05
7.24892e-05
-6.87782e-06
7.42736e-05
-3.60912e-07
7.60557e-05
6.89446e-06
7.78828e-05
1.48826e-05
7.98125e-05
2.35597e-05
8.19154e-05
3.28365e-05
8.4271e-05
4.25767e-05
8.69579e-05
5.25945e-05
9.00388e-05
6.26532e-05
7.24757e-05
2.11987e-06
-2.91473e-05
3.0083e-06
-3.49637e-05
3.86244e-06
-3.51673e-05
4.94136e-06
-3.50995e-05
6.25132e-06
-3.51212e-05
7.76258e-06
-3.5235e-05
9.44196e-06
-3.54161e-05
1.12584e-05
-3.56424e-05
1.31844e-05
-3.58978e-05
1.51964e-05
-3.61716e-05
1.72746e-05
-3.6457e-05
1.9403e-05
-3.67499e-05
2.15687e-05
-3.70477e-05
2.37618e-05
-3.73483e-05
2.5975e-05
-3.76502e-05
2.82034e-05
-3.79515e-05
3.04445e-05
-3.82489e-05
3.26976e-05
-3.85369e-05
3.49637e-05
-3.88066e-05
3.72447e-05
-3.90456e-05
3.95439e-05
-3.92367e-05
4.18659e-05
-3.93574e-05
4.42173e-05
-3.93798e-05
4.66079e-05
-3.92682e-05
4.90484e-05
-3.89706e-05
5.15404e-05
-3.84058e-05
5.40671e-05
-3.74673e-05
5.65929e-05
-3.60473e-05
5.90727e-05
-3.40607e-05
6.1464e-05
-3.14559e-05
6.37373e-05
-2.82105e-05
6.58818e-05
-2.43204e-05
6.79053e-05
-1.97847e-05
6.98303e-05
-1.45954e-05
7.16885e-05
-8.73607e-06
7.35208e-05
-2.19314e-06
7.53724e-05
5.04286e-06
7.72899e-05
1.2965e-05
7.9327e-05
2.15227e-05
8.15475e-05
3.06159e-05
8.402e-05
4.01042e-05
8.68048e-05
4.98096e-05
8.99385e-05
5.95195e-05
6.8996e-05
1.82048e-06
-3.09678e-05
2.41445e-06
-3.55576e-05
3.14641e-06
-3.58993e-05
4.15968e-06
-3.61128e-05
5.42408e-06
-3.63856e-05
6.90004e-06
-3.6711e-05
8.55104e-06
-3.70671e-05
1.03442e-05
-3.74355e-05
1.22507e-05
-3.78043e-05
1.42462e-05
-3.81671e-05
1.63102e-05
-3.85211e-05
1.84262e-05
-3.88659e-05
2.05805e-05
-3.9202e-05
2.27626e-05
-3.95304e-05
2.49643e-05
-3.98519e-05
2.71801e-05
-4.01673e-05
2.9407e-05
-4.04758e-05
3.16437e-05
-4.07736e-05
3.38903e-05
-4.10533e-05
3.61481e-05
-4.13035e-05
3.84196e-05
-4.15081e-05
4.07082e-05
-4.1646e-05
4.30205e-05
-4.16922e-05
4.53708e-05
-4.16185e-05
4.77796e-05
-4.13794e-05
5.02578e-05
-4.0884e-05
5.27897e-05
-3.99992e-05
5.53315e-05
-3.85891e-05
5.7826e-05
-3.65551e-05
6.02201e-05
-3.385e-05
6.24795e-05
-3.04699e-05
6.45951e-05
-2.6436e-05
6.65818e-05
-2.17714e-05
6.8471e-05
-1.64846e-05
7.03014e-05
-1.05665e-05
7.21218e-05
-4.0135e-06
7.39827e-05
3.18197e-06
7.59281e-05
1.10196e-05
7.80056e-05
1.94451e-05
8.02737e-05
2.83479e-05
8.27926e-05
3.75853e-05
8.56095e-05
4.69927e-05
8.87423e-05
5.63867e-05
6.55643e-05
1.38524e-06
-3.2353e-05
1.78285e-06
-3.59552e-05
2.45982e-06
-3.65762e-05
3.43476e-06
-3.70877e-05
4.66199e-06
-3.76128e-05
6.10274e-06
-3.81517e-05
7.72153e-06
-3.86859e-05
9.48557e-06
-3.91996e-05
1.13658e-05
-3.96846e-05
1.33375e-05
-4.01387e-05
1.53799e-05
-4.05635e-05
1.7476e-05
-4.0962e-05
1.9612e-05
-4.13379e-05
2.17763e-05
-4.16947e-05
2.39598e-05
-4.20354e-05
2.61562e-05
-4.23637e-05
2.83617e-05
-4.26813e-05
3.05741e-05
-4.2986e-05
3.27925e-05
-4.32717e-05
3.50168e-05
-4.35277e-05
3.72474e-05
-4.37387e-05
3.94847e-05
-4.38833e-05
4.17324e-05
-4.39399e-05
4.40076e-05
-4.38937e-05
4.63452e-05
-4.37169e-05
4.87711e-05
-4.33099e-05
5.12725e-05
-4.25006e-05
5.37945e-05
-4.11111e-05
5.62638e-05
-3.90245e-05
5.86147e-05
-3.62009e-05
6.08072e-05
-3.26624e-05
6.2836e-05
-2.84647e-05
6.47254e-05
-2.36609e-05
6.65179e-05
-1.82771e-05
6.82584e-05
-1.23069e-05
7.00063e-05
-5.76147e-06
7.18222e-05
1.3661e-06
7.37436e-05
9.09818e-06
7.58118e-05
1.73769e-05
7.8081e-05
2.60787e-05
8.06062e-05
3.50602e-05
8.34238e-05
4.41751e-05
8.65345e-05
5.3276e-05
6.21829e-05
8.51127e-07
-3.32041e-05
1.22442e-06
-3.63285e-05
1.91244e-06
-3.72643e-05
2.86237e-06
-3.80376e-05
4.04865e-06
-3.87991e-05
5.44541e-06
-3.95485e-05
7.02181e-06
-4.02623e-05
8.7461e-06
-4.09239e-05
1.05893e-05
-4.15278e-05
1.25266e-05
-4.2076e-05
1.45372e-05
-4.25741e-05
1.6604e-05
-4.30288e-05
1.87126e-05
-4.34465e-05
2.08509e-05
-4.3833e-05
2.30084e-05
-4.41928e-05
2.51776e-05
-4.4533e-05
2.73542e-05
-4.48578e-05
2.95348e-05
-4.51666e-05
3.17169e-05
-4.54538e-05
3.38986e-05
-4.57095e-05
3.60778e-05
-4.59179e-05
3.82495e-05
-4.6055e-05
4.04087e-05
-4.6099e-05
4.25707e-05
-4.60557e-05
4.47892e-05
-4.59355e-05
4.71135e-05
-4.56342e-05
4.95364e-05
-4.49235e-05
5.19885e-05
-4.35632e-05
5.43776e-05
-4.14136e-05
5.66237e-05
-3.84471e-05
5.86823e-05
-3.4721e-05
6.0555e-05
-3.03373e-05
6.22796e-05
-2.53854e-05
6.39122e-05
-1.99097e-05
6.55003e-05
-1.3895e-05
6.71181e-05
-7.37935e-06
6.88466e-05
-3.62319e-07
7.07126e-05
7.23218e-06
7.27554e-05
1.53341e-05
7.50247e-05
2.38093e-05
7.75645e-05
3.25205e-05
8.03942e-05
4.13454e-05
8.34899e-05
5.01803e-05
8.68346e-05
5.88382e-05
6.72035e-05
3.63522e-07
-3.35677e-05
9.23507e-07
-3.68885e-05
1.65871e-06
-3.79995e-05
2.56712e-06
-3.8946e-05
3.68832e-06
-3.99203e-05
5.01953e-06
-4.08797e-05
6.53506e-06
-4.17778e-05
8.20305e-06
-4.25919e-05
9.99382e-06
-4.33185e-05
1.18822e-05
-4.39644e-05
1.38474e-05
-4.45393e-05
1.58722e-05
-4.50535e-05
1.7942e-05
-4.55163e-05
2.0044e-05
-4.59351e-05
2.21658e-05
-4.63146e-05
2.42989e-05
-4.66661e-05
2.64383e-05
-4.69972e-05
2.85792e-05
-4.73076e-05
3.07176e-05
-4.75921e-05
3.28496e-05
-4.78415e-05
3.49717e-05
-4.804e-05
3.70721e-05
-4.81554e-05
3.91288e-05
-4.81558e-05
4.11444e-05
-4.80714e-05
4.31947e-05
-4.79858e-05
4.53595e-05
-4.7799e-05
4.76388e-05
-4.72027e-05
4.9946e-05
-4.58704e-05
5.2172e-05
-4.36395e-05
5.42272e-05
-4.05023e-05
5.60663e-05
-3.65602e-05
5.77042e-05
-3.19752e-05
5.91938e-05
-2.68751e-05
6.06052e-05
-2.13211e-05
6.19865e-05
-1.52763e-05
6.34313e-05
-8.82415e-06
6.50268e-05
-1.95779e-06
6.68324e-05
5.42655e-06
6.88982e-05
1.32684e-05
7.12659e-05
2.14417e-05
7.39319e-05
2.98544e-05
7.68466e-05
3.84307e-05
7.99598e-05
4.70671e-05
8.32858e-05
5.55122e-05
6.3687e-05
1.60267e-07
-3.37279e-05
1.12506e-06
-3.78533e-05
1.88658e-06
-3.8761e-05
2.68448e-06
-3.97439e-05
3.68873e-06
-4.09246e-05
4.92099e-06
-4.2112e-05
6.35189e-06
-4.32087e-05
7.94359e-06
-4.41836e-05
9.66317e-06
-4.50381e-05
1.14845e-05
-4.57857e-05
1.33869e-05
-4.64417e-05
1.53529e-05
-4.70196e-05
1.73685e-05
-4.75319e-05
1.94208e-05
-4.79874e-05
2.14941e-05
-4.8388e-05
2.35792e-05
-4.87512e-05
2.56707e-05
-4.90887e-05
2.77625e-05
-4.93993e-05
2.98482e-05
-4.96778e-05
3.19229e-05
-4.99162e-05
3.39842e-05
-5.01012e-05
3.60172e-05
-5.01884e-05
3.798e-05
-5.01185e-05
3.98495e-05
-4.99408e-05
4.17118e-05
-4.98481e-05
4.36609e-05
-4.97482e-05
4.57014e-05
-4.92432e-05
4.774e-05
-4.79091e-05
4.96682e-05
-4.55677e-05
5.14064e-05
-4.22405e-05
5.29271e-05
-3.80809e-05
5.42693e-05
-3.33174e-05
5.54813e-05
-2.80871e-05
5.66263e-05
-2.24661e-05
5.77882e-05
-1.64382e-05
5.90625e-05
-1.00985e-05
6.0502e-05
-3.39725e-06
6.22666e-05
3.66192e-06
6.45011e-05
1.10339e-05
6.71748e-05
1.8768e-05
7.01379e-05
2.68913e-05
7.32588e-05
3.53099e-05
7.65218e-05
4.38041e-05
7.99039e-05
5.213e-05
6.02466e-05
5.67326e-07
-3.42953e-05
2.16514e-06
-3.94511e-05
2.7653e-06
-3.93612e-05
3.28599e-06
-4.02646e-05
4.10322e-06
-4.17418e-05
5.2103e-06
-4.3219e-05
6.54271e-06
-4.45411e-05
8.04502e-06
-4.56859e-05
9.67826e-06
-4.66713e-05
1.14152e-05
-4.75227e-05
1.32355e-05
-4.82619e-05
1.51223e-05
-4.89064e-05
1.70628e-05
-4.94725e-05
1.90456e-05
-4.99701e-05
2.10518e-05
-5.03942e-05
2.30717e-05
-5.07711e-05
2.51e-05
-5.1117e-05
2.71288e-05
-5.14281e-05
2.91495e-05
-5.16985e-05
3.11547e-05
-5.19215e-05
3.31433e-05
-5.20898e-05
3.51075e-05
-5.21526e-05
3.70142e-05
-5.20253e-05
3.88307e-05
-5.17573e-05
4.05847e-05
-5.16021e-05
4.22855e-05
-5.1449e-05
4.39396e-05
-5.08973e-05
4.55081e-05
-4.94776e-05
4.69388e-05
-4.69984e-05
4.81937e-05
-4.34953e-05
4.93029e-05
-3.91902e-05
5.03803e-05
-3.43948e-05
5.13736e-05
-2.90804e-05
5.22626e-05
-2.3355e-05
5.32765e-05
-1.74521e-05
5.44138e-05
-1.12359e-05
5.56324e-05
-4.61583e-06
5.72849e-05
2.00943e-06
5.96723e-05
8.6465e-06
6.27736e-05
1.56666e-05
6.62859e-05
2.33791e-05
7.00632e-05
3.15325e-05
7.39133e-05
3.9954e-05
7.74694e-05
4.8574e-05
5.69629e-05
2.29601e-06
-3.65913e-05
4.45892e-06
-4.1614e-05
4.26343e-06
-3.91657e-05
4.26668e-06
-4.02679e-05
4.87004e-06
-4.23452e-05
5.86328e-06
-4.42123e-05
7.10762e-06
-4.57855e-05
8.52499e-06
-4.71032e-05
1.00697e-05
-4.8216e-05
1.17149e-05
-4.91679e-05
1.34402e-05
-4.99872e-05
1.52297e-05
-5.06959e-05
1.70723e-05
-5.13151e-05
1.89591e-05
-5.18569e-05
2.08742e-05
-5.23093e-05
2.28087e-05
-5.27056e-05
2.4755e-05
-5.30632e-05
2.67031e-05
-5.33762e-05
2.8643e-05
-5.36384e-05
3.05619e-05
-5.38404e-05
3.24425e-05
-5.39704e-05
3.42779e-05
-5.3988e-05
3.61389e-05
-5.38863e-05
3.81309e-05
-5.37493e-05
4.00023e-05
-5.34735e-05
4.1441e-05
-5.28876e-05
4.25173e-05
-5.19736e-05
4.34047e-05
-5.0365e-05
4.41964e-05
-4.77901e-05
4.49342e-05
-4.42331e-05
4.57617e-05
-4.00178e-05
4.67577e-05
-3.53908e-05
4.76591e-05
-2.99818e-05
4.94547e-05
-2.51505e-05
5.25406e-05
-2.0538e-05
5.59163e-05
-1.46116e-05
5.76778e-05
-6.37726e-06
5.81395e-05
1.54769e-06
5.8347e-05
8.43902e-06
5.92011e-05
1.48126e-05
6.14937e-05
2.10864e-05
6.53765e-05
2.76497e-05
7.07279e-05
3.46026e-05
7.55176e-05
4.37843e-05
5.31499e-05
7.34939e-06
-4.39407e-05
8.33165e-06
-4.25963e-05
6.26249e-06
-3.70965e-05
5.65169e-06
-3.96571e-05
6.02702e-06
-4.27205e-05
6.8747e-06
-4.506e-05
8.00151e-06
-4.69123e-05
9.31622e-06
-4.8418e-05
1.07679e-05
-4.96678e-05
1.23202e-05
-5.07202e-05
1.39477e-05
-5.16147e-05
1.56354e-05
-5.23835e-05
1.73655e-05
-5.30452e-05
1.9128e-05
-5.36194e-05
2.09348e-05
-5.41161e-05
2.27825e-05
-5.45533e-05
2.46531e-05
-5.49338e-05
2.65393e-05
-5.52625e-05
2.84364e-05
-5.55355e-05
3.03241e-05
-5.57281e-05
3.21491e-05
-5.57954e-05
3.38771e-05
-5.57159e-05
3.59289e-05
-5.59381e-05
3.82713e-05
-5.60917e-05
4.01732e-05
-5.53754e-05
4.12073e-05
-5.39218e-05
4.15569e-05
-5.23231e-05
4.16949e-05
-5.0503e-05
4.18679e-05
-4.79631e-05
4.30863e-05
-4.54514e-05
4.62009e-05
-4.31324e-05
5.04423e-05
-3.96322e-05
5.40488e-05
-3.35883e-05
5.68796e-05
-2.79813e-05
5.90579e-05
-2.27164e-05
6.08381e-05
-1.63917e-05
6.28114e-05
-8.35053e-06
6.45539e-05
-1.94817e-07
6.5733e-05
7.25988e-06
6.65115e-05
1.40342e-05
6.72358e-05
2.03621e-05
6.84278e-05
2.64577e-05
7.03544e-05
3.2676e-05
7.26416e-05
4.1497e-05
4.85721e-05
1.79498e-05
-6.18904e-05
1.1423e-05
-3.60695e-05
7.3824e-06
-3.30559e-05
7.10241e-06
-3.93771e-05
7.51521e-06
-4.31333e-05
8.2152e-06
-4.57599e-05
9.1629e-06
-4.786e-05
1.03218e-05
-4.95768e-05
1.16494e-05
-5.09954e-05
1.31007e-05
-5.21715e-05
1.46476e-05
-5.31616e-05
1.62738e-05
-5.40097e-05
1.79477e-05
-5.4719e-05
1.96522e-05
-5.53239e-05
2.14207e-05
-5.58847e-05
2.32471e-05
-5.63796e-05
2.50996e-05
-5.67863e-05
2.69695e-05
-5.71325e-05
2.8858e-05
-5.7424e-05
3.07344e-05
-5.76045e-05
3.25806e-05
-5.76415e-05
3.46726e-05
-5.7808e-05
3.7253e-05
-5.85186e-05
4.03319e-05
-5.91706e-05
4.24336e-05
-5.74771e-05
4.37422e-05
-5.52304e-05
4.47288e-05
-5.33097e-05
4.6145e-05
-5.19191e-05
4.83846e-05
-5.02028e-05
5.08807e-05
-4.79475e-05
5.31718e-05
-4.54235e-05
5.53311e-05
-4.17915e-05
5.80054e-05
-3.62626e-05
6.05191e-05
-3.04951e-05
6.25023e-05
-2.46996e-05
6.4224e-05
-1.81134e-05
6.63162e-05
-1.04427e-05
6.85755e-05
-2.45411e-06
7.0626e-05
5.20935e-06
7.22566e-05
1.24036e-05
7.34142e-05
1.92046e-05
7.40464e-05
2.58255e-05
7.4114e-05
3.26085e-05
7.53522e-05
4.02589e-05
4.67559e-05
7.86492e-06
-6.97554e-05
6.2825e-06
-3.44871e-05
6.13335e-06
-3.29068e-05
6.82306e-06
-4.00668e-05