/*--------------------------------*- C++ -*----------------------------------*\
| =========                 |                                                 |
| \\      /  F ield         | OpenFOAM: The Open Source CFD Toolbox           |
|  \\    /   O peration     | Version:  5.0                                   |
|   \\  /    A nd           | Web:      www.OpenFOAM.org                      |
|    \\/     M anipulation  |                                                 |
\*---------------------------------------------------------------------------*/
FoamFile
{
    version     2.0;
    format      ascii;
    class       volVectorField;
    location    "0.3";
    object      U;
}
// * * * * * * * * * * * * * * * * * * * * * * * * * * * * * * * * * * * * * //

dimensions      [0 1 -1 0 0 0 0];

internalField   nonuniform List<vector> 
1935
(
(-0.0389067 0.0188711 0)
(-0.0520242 -0.00182624 0)
(-0.0292932 -0.0181423 0)
(0.00630983 -0.0227043 0)
(0.0484527 -0.0237287 0)
(0.0903598 -0.0225173 0)
(0.130143 -0.0205213 0)
(0.166951 -0.0185006 0)
(0.200757 -0.016734 0)
(0.232032 -0.0153041 0)
(0.261374 -0.0142131 0)
(0.289344 -0.0134255 0)
(0.316422 -0.0128918 0)
(0.343006 -0.0125627 0)
(0.369412 -0.0123942 0)
(0.395877 -0.0123482 0)
(0.422573 -0.0123918 0)
(0.449614 -0.0124959 0)
(0.477059 -0.0126341 0)
(0.504916 -0.0127814 0)
(0.533148 -0.0129136 0)
(0.561665 -0.0130063 0)
(0.59033 -0.0130344 0)
(0.618953 -0.012971 0)
(0.647284 -0.0127872 0)
(0.675007 -0.0124501 0)
(0.701734 -0.0119225 0)
(0.726983 -0.0111597 0)
(0.750169 -0.0101054 0)
(0.770551 -0.00868464 0)
(0.787227 -0.0067667 0)
(0.798764 -0.00414173 0)
(0.804404 0.000107286 0)
(0.798954 0.00598215 0)
(0.779417 0.0138432 0)
(0.742714 0.0238206 0)
(0.685335 0.0358179 0)
(0.604031 0.0493022 0)
(0.497039 0.0627069 0)
(0.365686 0.0730237 0)
(0.215857 0.0763734 0)
(0.0614187 0.0710867 0)
(-0.0909545 0.0585702 0)
(-0.236079 0.0140712 0)
(-0.019865 0.0443834 0)
(-0.00661666 -0.00340123 0)
(0.0169521 -0.032207 0)
(0.0504139 -0.0440977 0)
(0.0874236 -0.0474283 0)
(0.124639 -0.0463311 0)
(0.160506 -0.0434694 0)
(0.194437 -0.0402655 0)
(0.226421 -0.0373661 0)
(0.256749 -0.0350214 0)
(0.285819 -0.0332833 0)
(0.314024 -0.032107 0)
(0.341716 -0.0314098 0)
(0.369185 -0.0311008 0)
(0.396661 -0.0310933 0)
(0.424313 -0.0313083 0)
(0.452256 -0.0316751 0)
(0.480554 -0.0321295 0)
(0.509229 -0.0326125 0)
(0.538257 -0.033068 0)
(0.567576 -0.0334407 0)
(0.597079 -0.0336749 0)
(0.626619 -0.0337117 0)
(0.656 -0.0334876 0)
(0.684973 -0.0329324 0)
(0.713231 -0.0319662 0)
(0.740397 -0.0304964 0)
(0.766016 -0.0284126 0)
(0.789536 -0.0255772 0)
(0.810295 -0.0218105 0)
(0.82751 -0.0168461 0)
(0.840322 -0.0103032 0)
(0.847385 -0.0013739 0)
(0.849536 0.0104731 0)
(0.84515 0.0258272 0)
(0.831729 0.0451749 0)
(0.806116 0.0688473 0)
(0.764138 0.0965781 0)
(0.700453 0.126677 0)
(0.60925 0.155179 0)
(0.486346 0.175518 0)
(0.335214 0.180797 0)
(0.168962 0.165685 0)
(0.0197614 0.111152 0)
(0.0026667 0.0417543 0)
(0.0193833 -0.0198359 0)
(0.0460954 -0.0543261 0)
(0.0783022 -0.0691994 0)
(0.112347 -0.073139 0)
(0.146273 -0.0715605 0)
(0.179179 -0.0677284 0)
(0.210776 -0.0634382 0)
(0.241118 -0.0595549 0)
(0.270427 -0.0564255 0)
(0.298983 -0.054128 0)
(0.327063 -0.0526079 0)
(0.354912 -0.0517547 0)
(0.38273 -0.0514418 0)
(0.410674 -0.0515453 0)
(0.438853 -0.0519509 0)
(0.467336 -0.0525553 0)
(0.496154 -0.0532644 0)
(0.525299 -0.0539913 0)
(0.554732 -0.0546527 0)
(0.584379 -0.0551665 0)
(0.614128 -0.055448 0)
(0.643831 -0.0554077 0)
(0.673295 -0.0549473 0)
(0.702279 -0.0539574 0)
(0.730489 -0.0523133 0)
(0.757567 -0.0498704 0)
(0.783082 -0.0464576 0)
(0.806521 -0.0418674 0)
(0.82728 -0.0358412 0)
(0.844651 -0.0280483 0)
(0.857835 -0.0180642 0)
(0.86581 -0.005396 0)
(0.867905 0.010817 0)
(0.86328 0.0314647 0)
(0.850809 0.0574788 0)
(0.829205 0.089654 0)
(0.796907 0.128243 0)
(0.751783 0.172175 0)
(0.690634 0.21783 0)
(0.608788 0.257662 0)
(0.502106 0.280229 0)
(0.371611 0.271024 0)
(0.23263 0.207733 0)
(0.0107707 0.0274114 0)
(0.0330704 -0.0391071 0)
(0.0640793 -0.0779316 0)
(0.0970438 -0.094366 0)
(0.129793 -0.0982585 0)
(0.161681 -0.0959827 0)
(0.192535 -0.0912658 0)
(0.222419 -0.0861261 0)
(0.251511 -0.0815371 0)
(0.280023 -0.0778854 0)
(0.308168 -0.0752494 0)
(0.336136 -0.0735559 0)
(0.364088 -0.0726672 0)
(0.392153 -0.0724267 0)
(0.420425 -0.072681 0)
(0.448968 -0.0732876 0)
(0.477815 -0.0741174 0)
(0.506969 -0.0750524 0)
(0.536408 -0.0759825 0)
(0.566081 -0.0768016 0)
(0.595908 -0.0774031 0)
(0.625779 -0.0776765 0)
(0.655547 -0.077503 0)
(0.685027 -0.076752 0)
(0.713989 -0.0752767 0)
(0.74215 -0.0729101 0)
(0.769171 -0.0694595 0)
(0.794648 -0.0646985 0)
(0.818101 -0.0583577 0)
(0.838972 -0.0501103 0)
(0.856612 -0.0395547 0)
(0.870291 -0.0261983 0)
(0.879157 -0.00945429 0)
(0.88238 0.0114917 0)
(0.87914 0.0375428 0)
(0.86859 0.0696518 0)
(0.84993 0.108655 0)
(0.822404 0.154952 0)
(0.785186 0.207899 0)
(0.736987 0.264715 0)
(0.675224 0.318813 0)
(0.595455 0.358054 0)
(0.492275 0.363251 0)
(0.365 0.30728 0)
(0.0121175 0.0102342 0)
(0.0397943 -0.0629838 0)
(0.0747229 -0.103416 0)
(0.108928 -0.119561 0)
(0.141191 -0.122527 0)
(0.171874 -0.119301 0)
(0.201406 -0.113801 0)
(0.230157 -0.108074 0)
(0.258424 -0.10308 0)
(0.286431 -0.0991826 0)
(0.314347 -0.0964353 0)
(0.342304 -0.0947403 0)
(0.370398 -0.0939364 0)
(0.398703 -0.093845 0)
(0.427268 -0.0942914 0)
(0.456119 -0.0951138 0)
(0.485264 -0.0961646 0)
(0.514691 -0.0973075 0)
(0.544364 -0.0984141 0)
(0.574229 -0.0993588 0)
(0.604206 -0.100014 0)
(0.634186 -0.100246 0)
(0.664029 -0.0999074 0)
(0.693558 -0.0988382 0)
(0.722556 -0.0968562 0)
(0.750753 -0.0937545 0)
(0.777831 -0.0892954 0)
(0.803407 -0.0832029 0)
(0.827035 -0.0751523 0)
(0.848197 -0.0647575 0)
(0.8663 -0.0515559 0)
(0.880681 -0.0349943 0)
(0.890593 -0.0144249 0)
(0.895261 0.0109531 0)
(0.89393 0.0420389 0)
(0.885872 0.0797437 0)
(0.870448 0.124837 0)
(0.847108 0.177672 0)
(0.815298 0.237708 0)
(0.774167 0.302669 0)
(0.721882 0.367134 0)
(0.654608 0.42041 0)
(0.565355 0.443617 0)
(0.445666 0.408181 0)
(0.0129153 -0.00867584 0)
(0.0438035 -0.0898261 0)
(0.081039 -0.130339 0)
(0.115893 -0.144825 0)
(0.147728 -0.146158 0)
(0.177569 -0.141758 0)
(0.206238 -0.135529 0)
(0.23429 -0.129395 0)
(0.262089 -0.124212 0)
(0.289856 -0.12027 0)
(0.317726 -0.117576 0)
(0.345783 -0.116001 0)
(0.374077 -0.115364 0)
(0.402641 -0.11547 0)
(0.43149 -0.11613 0)
(0.460627 -0.11717 0)
(0.490042 -0.118429 0)
(0.519712 -0.11976 0)
(0.549597 -0.121018 0)
(0.579641 -0.122063 0)
(0.609768 -0.122749 0)
(0.639874 -0.122919 0)
(0.669829 -0.122402 0)
(0.699466 -0.121009 0)
(0.728579 -0.118525 0)
(0.756917 -0.114705 0)
(0.784176 -0.109269 0)
(0.81 -0.101897 0)
(0.83397 -0.0922148 0)
(0.855607 -0.0797854 0)
(0.874369 -0.0640949 0)
(0.889654 -0.044542 0)
(0.900799 -0.0204345 0)
(0.907112 0.00903164 0)
(0.907921 0.0447354 0)
(0.902573 0.0875424 0)
(0.890492 0.138164 0)
(0.871149 0.196929 0)
(0.843958 0.263405 0)
(0.808003 0.33575 0)
(0.761466 0.409581 0)
(0.700628 0.476021 0)
(0.618119 0.518517 0)
(0.502049 0.510171 0)
(0.013947 -0.0290553 0)
(0.046677 -0.118341 0)
(0.0847452 -0.157885 0)
(0.119377 -0.169893 0)
(0.150498 -0.169241 0)
(0.179571 -0.163618 0)
(0.20761 -0.156756 0)
(0.235235 -0.150369 0)
(0.262809 -0.145153 0)
(0.290526 -0.141303 0)
(0.318482 -0.138768 0)
(0.346721 -0.137389 0)
(0.375257 -0.136965 0)
(0.404093 -0.13729 0)
(0.433221 -0.138168 0)
(0.462627 -0.139417 0)
(0.492292 -0.140869 0)
(0.522186 -0.142367 0)
(0.552271 -0.143756 0)
(0.582492 -0.144883 0)
(0.612779 -0.145585 0)
(0.643038 -0.145686 0)
(0.673147 -0.144992 0)
(0.702952 -0.143285 0)
(0.732262 -0.140319 0)
(0.76084 -0.135814 0)
(0.788403 -0.129451 0)
(0.814614 -0.120869 0)
(0.839084 -0.109649 0)
(0.861369 -0.0953108 0)
(0.880971 -0.0772986 0)
(0.897346 -0.0549727 0)
(0.909907 -0.0276095 0)
(0.918039 0.00560188 0)
(0.921155 0.0455234 0)
(0.918665 0.09299 0)
(0.910029 0.148686 0)
(0.894705 0.212966 0)
(0.872027 0.285569 0)
(0.840933 0.365131 0)
(0.799457 0.448295 0)
(0.743751 0.528066 0)
(0.666173 0.590907 0)
(0.552797 0.613525 0)
(0.0151481 -0.0507244 0)
(0.0488599 -0.147547 0)
(0.0866463 -0.185239 0)
(0.120297 -0.194353 0)
(0.150383 -0.191678 0)
(0.178645 -0.184961 0)
(0.206148 -0.177638 0)
(0.233482 -0.171158 0)
(0.260962 -0.166045 0)
(0.288731 -0.16239 0)
(0.31684 -0.160087 0)
(0.345297 -0.158949 0)
(0.374086 -0.158762 0)
(0.403187 -0.159314 0)
(0.432577 -0.160404 0)
(0.462231 -0.161849 0)
(0.492123 -0.163477 0)
(0.522224 -0.165125 0)
(0.552496 -0.166631 0)
(0.582891 -0.167828 0)
(0.613348 -0.168542 0)
(0.643781 -0.168577 0)
(0.674082 -0.167718 0)
(0.704111 -0.165721 0)
(0.733691 -0.162308 0)
(0.762603 -0.157166 0)
(0.790579 -0.14994 0)
(0.817305 -0.140228 0)
(0.842416 -0.127574 0)
(0.865499 -0.111461 0)
(0.886101 -0.0912984 0)
(0.903729 -0.0664175 0)
(0.917864 -0.0360736 0)
(0.927969 0.000547529 0)
(0.933535 0.0442969 0)
(0.934043 0.0959952 0)
(0.928998 0.156327 0)
(0.917875 0.225711 0)
(0.899986 0.304103 0)
(0.874228 0.390644 0)
(0.838602 0.483018 0)
(0.78925 0.5762 0)
(0.71847 0.660144 0)
(0.610691 0.716781 0)
(0.0164234 -0.0735658 0)
(0.0504456 -0.176741 0)
(0.0871204 -0.211775 0)
(0.119235 -0.217859 0)
(0.148043 -0.213345 0)
(0.175434 -0.205787 0)
(0.202421 -0.198228 0)
(0.229509 -0.19183 0)
(0.256935 -0.186944 0)
(0.28478 -0.183569 0)
(0.313049 -0.181553 0)
(0.341714 -0.180687 0)
(0.370734 -0.18075 0)
(0.400072 -0.181528 0)
(0.429691 -0.182822 0)
(0.45956 -0.184451 0)
(0.489649 -0.18624 0)
(0.519932 -0.188025 0)
(0.550374 -0.189638 0)
(0.580935 -0.190903 0)
(0.611563 -0.191633 0)
(0.642185 -0.191617 0)
(0.672708 -0.190618 0)
(0.703006 -0.188366 0)
(0.732917 -0.184555 0)
(0.762239 -0.178837 0)
(0.790723 -0.170822 0)
(0.818071 -0.160071 0)
(0.843941 -0.146096 0)
(0.86795 -0.128347 0)
(0.889681 -0.106206 0)
(0.908693 -0.0789878 0)
(0.924529 -0.0459345 0)
(0.936727 -0.00623396 0)
(0.94486 0.0409553 0)
(0.948491 0.0964466 0)
(0.947201 0.160937 0)
(0.940537 0.234926 0)
(0.927898 0.318581 0)
(0.908318 0.411528 0)
(0.88005 0.512446 0)
(0.839675 0.618276 0)
(0.780208 0.722786 0)
(0.685298 0.814852 0)
(0.0176844 -0.09742 0)
(0.0514339 -0.205375 0)
(0.086373 -0.237047 0)
(0.116586 -0.24018 0)
(0.14397 -0.234153 0)
(0.170442 -0.226075 0)
(0.196895 -0.218529 0)
(0.223723 -0.212388 0)
(0.251073 -0.207848 0)
(0.278963 -0.20483 0)
(0.307353 -0.203147 0)
(0.336181 -0.202577 0)
(0.365385 -0.202898 0)
(0.394911 -0.203901 0)
(0.424711 -0.205392 0)
(0.454751 -0.207193 0)
(0.484999 -0.209134 0)
(0.51543 -0.211048 0)
(0.546016 -0.212764 0)
(0.576725 -0.214102 0)
(0.607516 -0.214862 0)
(0.638331 -0.214818 0)
(0.669091 -0.213714 0)
(0.699687 -0.211255 0)
(0.729975 -0.207105 0)
(0.759768 -0.200883 0)
(0.788832 -0.192165 0)
(0.816888 -0.180476 0)
(0.843611 -0.165297 0)
(0.868642 -0.146052 0)
(0.891598 -0.122107 0)
(0.912083 -0.092766 0)
(0.929703 -0.0572704 0)
(0.944071 -0.0148171 0)
(0.95484 0.0354205 0)
(0.961678 0.0942444 0)
(0.96427 0.16236 0)
(0.962297 0.240324 0)
(0.955356 0.32847 0)
(0.942812 0.426802 0)
(0.923519 0.534796 0)
(0.89515 0.651071 0)
(0.852847 0.772955 0)
(0.782237 0.89715 0)
(0.0188679 -0.122305 0)
(0.051814 -0.233236 0)
(0.0845262 -0.260953 0)
(0.112599 -0.261364 0)
(0.138474 -0.254228 0)
(0.163983 -0.245976 0)
(0.18986 -0.238695 0)
(0.216379 -0.232985 0)
(0.243596 -0.228908 0)
(0.271468 -0.226322 0)
(0.299913 -0.225018 0)
(0.328839 -0.22477 0)
(0.358163 -0.225361 0)
(0.387815 -0.226592 0)
(0.417741 -0.228277 0)
(0.4479 -0.230245 0)
(0.47826 -0.232331 0)
(0.508798 -0.234372 0)
(0.539494 -0.236197 0)
(0.570324 -0.237618 0)
(0.60126 -0.238428 0)
(0.632259 -0.238389 0)
(0.663258 -0.237223 0)
(0.694168 -0.234614 0)
(0.724861 -0.230193 0)
(0.755169 -0.223547 0)
(0.784872 -0.214213 0)
(0.813703 -0.201684 0)
(0.841351 -0.185411 0)
(0.867477 -0.164799 0)
(0.891725 -0.139205 0)
(0.913742 -0.107932 0)
(0.933193 -0.0702341 0)
(0.949766 -0.0253274 0)
(0.963201 0.0275889 0)
(0.973282 0.089291 0)
(0.979824 0.160471 0)
(0.98269 0.241699 0)
(0.981751 0.333378 0)
(0.976839 0.435698 0)
(0.967659 0.548558 0)
(0.953559 0.671511 0)
(0.933386 0.804025 0)
(0.901808 0.947734 0)
(0.0199228 -0.14811 0)
(0.0515746 -0.260015 0)
(0.0816599 -0.283332 0)
(0.107441 -0.281388 0)
(0.131757 -0.273602 0)
(0.15626 -0.265536 0)
(0.181508 -0.258772 0)
(0.20765 -0.253666 0)
(0.23466 -0.250168 0)
(0.262437 -0.248092 0)
(0.290859 -0.247217 0)
(0.319808 -0.247322 0)
(0.34918 -0.2482 0)
(0.378892 -0.249665 0)
(0.408881 -0.251545 0)
(0.439101 -0.253679 0)
(0.469521 -0.255911 0)
(0.500119 -0.258083 0)
(0.530881 -0.260024 0)
(0.561796 -0.261547 0)
(0.592846 -0.262436 0)
(0.624006 -0.262441 0)
(0.655232 -0.261268 0)
(0.686453 -0.258575 0)
(0.717565 -0.253964 0)
(0.748413 -0.246983 0)
(0.778794 -0.237131 0)
(0.808447 -0.223865 0)
(0.837069 -0.206607 0)
(0.864333 -0.18475 0)
(0.889905 -0.157649 0)
(0.913469 -0.124622 0)
(0.934745 -0.0849461 0)
(0.953497 -0.0378725 0)
(0.969555 0.0173585 0)
(0.982826 0.0814778 0)
(0.993268 0.155134 0)
(1.00094 0.238851 0)
(1.006 0.33299 0)
(1.00874 0.437701 0)
(1.00968 0.552863 0)
(1.00962 0.678021 0)
(1.01024 0.812609 0)
(1.01266 0.957366 0)
(0.0208194 -0.174483 0)
(0.0507111 -0.285189 0)
(0.0778463 -0.303882 0)
(0.101259 -0.300087 0)
(0.123997 -0.292145 0)
(0.147462 -0.284622 0)
(0.17203 -0.278619 0)
(0.19773 -0.274282 0)
(0.224458 -0.271475 0)
(0.252063 -0.269986 0)
(0.280384 -0.269591 0)
(0.30928 -0.27008 0)
(0.338627 -0.271265 0)
(0.368329 -0.272974 0)
(0.398315 -0.275053 0)
(0.428534 -0.277355 0)
(0.458953 -0.279735 0)
(0.489555 -0.282043 0)
(0.520331 -0.284113 0)
(0.55128 -0.285758 0)
(0.582398 -0.286759 0)
(0.613678 -0.286856 0)
(0.645094 -0.285739 0)
(0.676599 -0.28304 0)
(0.708112 -0.278331 0)
(0.739497 -0.271119 0)
(0.770562 -0.260857 0)
(0.801051 -0.246963 0)
(0.830658 -0.228834 0)
(0.859058 -0.205851 0)
(0.885929 -0.177381 0)
(0.910987 -0.142769 0)
(0.934002 -0.101333 0)
(0.954814 -0.0523738 0)
(0.97334 0.00480882 0)
(0.98961 0.0708801 0)
(1.00372 0.146416 0)
(1.0159 0.231844 0)
(1.02656 0.32739 0)
(1.03633 0.433009 0)
(1.04622 0.548271 0)
(1.05774 0.672192 0)
(1.07335 0.803116 0)
(1.0958 0.938887 0)
(0.0215565 -0.201149 0)
(0.049209 -0.308382 0)
(0.0731092 -0.322453 0)
(0.0941254 -0.317412 0)
(0.115287 -0.309824 0)
(0.137694 -0.303194 0)
(0.161541 -0.298187 0)
(0.186745 -0.294778 0)
(0.213129 -0.292773 0)
(0.240492 -0.291946 0)
(0.268644 -0.292082 0)
(0.297415 -0.29299 0)
(0.326667 -0.294501 0)
(0.356292 -0.296467 0)
(0.386207 -0.298751 0)
(0.416359 -0.301224 0)
(0.446713 -0.303757 0)
(0.477254 -0.306208 0)
(0.507981 -0.308421 0)
(0.5389 -0.310212 0)
(0.570022 -0.31136 0)
(0.601355 -0.311599 0)
(0.632898 -0.310604 0)
(0.664629 -0.307987 0)
(0.696491 -0.303283 0)
(0.728375 -0.295953 0)
(0.760097 -0.285399 0)
(0.791397 -0.270991 0)
(0.821959 -0.252095 0)
(0.851445 -0.228092 0)
(0.879534 -0.198369 0)
(0.905963 -0.162316 0)
(0.930551 -0.11931 0)
(0.953208 -0.0687199 0)
(0.97394 -0.00991983 0)
(0.992883 0.0576726 0)
(1.01026 0.134539 0)
(1.02645 0.22098 0)
(1.04202 0.317044 0)
(1.05779 0.42243 0)
(1.07498 0.536343 0)
(1.09522 0.657279 0)
(1.12075 0.782785 0)
(1.15413 0.909336 0)
(0.0221548 -0.227815 0)
(0.0470148 -0.329206 0)
(0.0674249 -0.338918 0)
(0.0860702 -0.333336 0)
(0.105689 -0.326621 0)
(0.127045 -0.321225 0)
(0.150155 -0.317438 0)
(0.174828 -0.31511 0)
(0.200821 -0.314012 0)
(0.227889 -0.31392 0)
(0.25581 -0.314638 0)
(0.284393 -0.315999 0)
(0.313486 -0.317858 0)
(0.342966 -0.320092 0)
(0.372745 -0.322588 0)
(0.402762 -0.325237 0)
(0.432982 -0.327925 0)
(0.463392 -0.330527 0)
(0.493994 -0.332896 0)
(0.524803 -0.334854 0)
(0.555843 -0.336183 0)
(0.587139 -0.336613 0)
(0.618712 -0.33581 0)
(0.65057 -0.333365 0)
(0.682689 -0.328779 0)
(0.714988 -0.321457 0)
(0.747296 -0.310736 0)
(0.779342 -0.295926 0)
(0.810783 -0.27636 0)
(0.84125 -0.251418 0)
(0.87041 -0.220528 0)
(0.898012 -0.183142 0)
(0.923915 -0.138719 0)
(0.948102 -0.0867118 0)
(0.970664 -0.0265852 0)
(0.99183 0.0421503 0)
(1.01194 0.119872 0)
(1.03146 0.206748 0)
(1.05106 0.302643 0)
(1.07164 0.407014 0)
(1.09442 0.518767 0)
(1.12092 0.636069 0)
(1.15294 0.756169 0)
(1.19245 0.875361 0)
(0.0225981 -0.254146 0)
(0.0439992 -0.34724 0)
(0.0607347 -0.353189 0)
(0.077121 -0.347869 0)
(0.0952835 -0.342549 0)
(0.115634 -0.33871 0)
(0.138019 -0.336354 0)
(0.16215 -0.335249 0)
(0.187723 -0.335156 0)
(0.214452 -0.335867 0)
(0.242091 -0.337213 0)
(0.270431 -0.339057 0)
(0.299303 -0.341284 0)
(0.328575 -0.343798 0)
(0.358151 -0.34651 0)
(0.387964 -0.349336 0)
(0.417978 -0.352181 0)
(0.448178 -0.354938 0)
(0.478571 -0.35747 0)
(0.509177 -0.359611 0)
(0.540029 -0.361148 0)
(0.571167 -0.361812 0)
(0.602634 -0.361265 0)
(0.634471 -0.359084 0)
(0.666699 -0.354735 0)
(0.699276 -0.347559 0)
(0.732048 -0.336805 0)
(0.764723 -0.321706 0)
(0.796912 -0.301549 0)
(0.828195 -0.275722 0)
(0.858206 -0.243708 0)
(0.886696 -0.205051 0)
(0.913564 -0.159315 0)
(0.938861 -0.106058 0)
(0.962768 -0.0448438 0)
(0.985593 0.0247182 0)
(1.00778 0.102902 0)
(1.02985 0.189759 0)
(1.0525 0.284992 0)
(1.07665 0.387855 0)
(1.10342 0.497042 0)
(1.13411 0.610562 0)
(1.1701 0.72563 0)
(1.21265 0.838709 0)
(0.0226894 -0.27971 0)
(0.0399412 -0.362066 0)
(0.052998 -0.365262 0)
(0.0673684 -0.36109 0)
(0.0842312 -0.357667 0)
(0.103666 -0.355679 0)
(0.125366 -0.354938 0)
(0.148959 -0.35518 0)
(0.174091 -0.356176 0)
(0.200447 -0.357749 0)
(0.227757 -0.359764 0)
(0.255798 -0.362117 0)
(0.284389 -0.364729 0)
(0.313391 -0.36753 0)
(0.342697 -0.370463 0)
(0.372237 -0.373464 0)
(0.401968 -0.376463 0)
(0.431875 -0.37937 0)
(0.461964 -0.382066 0)
(0.492259 -0.384395 0)
(0.522796 -0.386152 0)
(0.553626 -0.387078 0)
(0.584809 -0.386838 0)
(0.616423 -0.385005 0)
(0.648544 -0.381016 0)
(0.681193 -0.374138 0)
(0.714241 -0.3635 0)
(0.747369 -0.348223 0)
(0.780113 -0.327534 0)
(0.811976 -0.300835 0)
(0.842537 -0.26769 0)
(0.871539 -0.227767 0)
(0.898919 -0.180767 0)
(0.924805 -0.126375 0)
(0.949466 -0.0642573 0)
(0.973294 0.00587565 0)
(0.99681 0.0842096 0)
(1.02058 0.170707 0)
(1.04529 0.264942 0)
(1.07179 0.366011 0)
(1.1011 0.472479 0)
(1.13429 0.582316 0)
(1.17235 0.692858 0)
(1.21594 0.800897 0)
(0.0218967 -0.303829 0)
(0.0345893 -0.373387 0)
(0.0443058 -0.3753 0)
(0.0570585 -0.373171 0)
(0.0728456 -0.372082 0)
(0.0914823 -0.372185 0)
(0.112548 -0.373208 0)
(0.135611 -0.374894 0)
(0.160281 -0.377048 0)
(0.186222 -0.37953 0)
(0.213152 -0.382247 0)
(0.240836 -0.385132 0)
(0.269086 -0.388141 0)
(0.297751 -0.391236 0)
(0.32672 -0.394387 0)
(0.355913 -0.397558 0)
(0.385282 -0.400702 0)
(0.414809 -0.403749 0)
(0.444496 -0.406597 0)
(0.474361 -0.409102 0)
(0.504442 -0.411074 0)
(0.534787 -0.412263 0)
(0.565465 -0.412351 0)
(0.596586 -0.41093 0)
(0.628303 -0.407425 0)
(0.660733 -0.401011 0)
(0.693793 -0.390655 0)
(0.727125 -0.375312 0)
(0.760159 -0.354125 0)
(0.792284 -0.326519 0)
(0.823 -0.292172 0)
(0.852032 -0.250923 0)
(0.879367 -0.20265 0)
(0.905223 -0.147183 0)
(0.929964 -0.0842957 0)
(0.954066 -0.0137944 0)
(0.978125 0.0644413 0)
(1.00273 0.15033 0)
(1.02853 0.243352 0)
(1.05629 0.34248 0)
(1.08691 0.446211 0)
(1.12128 0.55257 0)
(1.16007 0.659119 0)
(1.20356 0.763076 0)
(0.0193916 -0.325406 0)
(0.027853 -0.381245 0)
(0.0350497 -0.383709 0)
(0.0467008 -0.384385 0)
(0.0616643 -0.38594 0)
(0.0796158 -0.388293 0)
(0.10008 -0.391179 0)
(0.122599 -0.394378 0)
(0.146767 -0.397738 0)
(0.172238 -0.401166 0)
(0.198723 -0.404611 0)
(0.22598 -0.408048 0)
(0.253816 -0.411465 0)
(0.282074 -0.414858 0)
(0.310632 -0.418222 0)
(0.339402 -0.421552 0)
(0.368329 -0.424827 0)
(0.397387 -0.427994 0)
(0.426569 -0.430968 0)
(0.455885 -0.43362 0)
(0.485361 -0.435772 0)
(0.51503 -0.437189 0)
(0.544948 -0.437582 0)
(0.575243 -0.436594 0)
(0.606168 -0.433682 0)
(0.637985 -0.427918 0)
(0.670698 -0.418033 0)
(0.703895 -0.402738 0)
(0.736862 -0.381056 0)
(0.76883 -0.352447 0)
(0.799196 -0.316752 0)
(0.827668 -0.274043 0)
(0.854297 -0.224428 0)
(0.879416 -0.167905 0)
(0.903489 -0.104338 0)
(0.927088 -0.0336368 0)
(0.950898 0.0442833 0)
(0.975533 0.129372 0)
(1.00155 0.221044 0)
(1.02965 0.318161 0)
(1.06064 0.419185 0)
(1.09525 0.522255 0)
(1.13395 0.625231 0)
(1.17677 0.725754 0)
(0.0144893 -0.343054 0)
(0.0201194 -0.386297 0)
(0.0261057 -0.391151 0)
(0.0371664 -0.395061 0)
(0.051503 -0.39938 0)
(0.0688174 -0.404045 0)
(0.0886578 -0.408843 0)
(0.110574 -0.413596 0)
(0.134163 -0.418196 0)
(0.159078 -0.422597 0)
(0.185027 -0.426793 0)
(0.211768 -0.430798 0)
(0.239103 -0.434635 0)
(0.266871 -0.43833 0)
(0.294937 -0.441903 0)
(0.323202 -0.44538 0)
(0.351602 -0.448763 0)
(0.380101 -0.452022 0)
(0.408681 -0.455083 0)
(0.437334 -0.457831 0)
(0.466065 -0.460095 0)
(0.494878 -0.461652 0)
(0.523776 -0.462248 0)
(0.552864 -0.461638 0)
(0.582513 -0.459394 0)
(0.613211 -0.454484 0)
(0.645101 -0.445294 0)
(0.677712 -0.430167 0)
(0.710134 -0.407954 0)
(0.741396 -0.378173 0)
(0.770775 -0.340902 0)
(0.79797 -0.296534 0)
(0.823133 -0.245475 0)
(0.846741 -0.187907 0)
(0.86936 -0.123756 0)
(0.891666 -0.053047 0)
(0.914483 0.0242985 0)
(0.938456 0.108365 0)
(0.964036 0.198556 0)
(0.991844 0.293607 0)
(1.02263 0.391962 0)
(1.05703 0.491914 0)
(1.09528 0.591641 0)
(1.13725 0.689104 0)
(0.00744724 -0.35551 0)
(0.0126466 -0.389981 0)
(0.0189692 -0.398406 0)
(0.029743 -0.405464 0)
(0.0434716 -0.41244 0)
(0.0600636 -0.419387 0)
(0.0791633 -0.426108 0)
(0.100352 -0.432439 0)
(0.123234 -0.438306 0)
(0.147463 -0.443707 0)
(0.172751 -0.44868 0)
(0.198856 -0.453277 0)
(0.225579 -0.457553 0)
(0.252754 -0.461558 0)
(0.280233 -0.465336 0)
(0.3079 -0.468943 0)
(0.335683 -0.472411 0)
(0.363536 -0.475725 0)
(0.391422 -0.478822 0)
(0.419314 -0.481594 0)
(0.447192 -0.483873 0)
(0.475015 -0.485422 0)
(0.50268 -0.486017 0)
(0.530187 -0.4856 0)
(0.558014 -0.484034 0)
(0.586975 -0.480204 0)
(0.617433 -0.471976 0)
(0.648849 -0.457138 0)
(0.680063 -0.434319 0)
(0.709881 -0.403148 0)
(0.737458 -0.364037 0)
(0.762517 -0.317823 0)
(0.785364 -0.265275 0)
(0.806647 -0.20677 0)
(0.827027 -0.142227 0)
(0.847296 -0.071838 0)
(0.86848 0.00451183 0)
(0.891298 0.0871066 0)
(0.916136 0.175454 0)
(0.943566 0.268216 0)
(0.974239 0.363917 0)
(1.00858 0.461051 0)
(1.04649 0.558033 0)
(1.08773 0.652906 0)
(1.13196 0.744292 0)
(-3.84346e-05 -0.361833 0)
(0.00786056 -0.394493 0)
(0.0157567 -0.406096 0)
(0.0261087 -0.415574 0)
(0.0389334 -0.424941 0)
(0.0545216 -0.434123 0)
(0.0726431 -0.442788 0)
(0.0928975 -0.450728 0)
(0.114881 -0.457892 0)
(0.138246 -0.464323 0)
(0.162704 -0.470103 0)
(0.188015 -0.47532 0)
(0.213982 -0.480062 0)
(0.240435 -0.484397 0)
(0.267211 -0.488381 0)
(0.294172 -0.492108 0)
(0.321238 -0.495645 0)
(0.348353 -0.498987 0)
(0.375459 -0.502079 0)
(0.402508 -0.504819 0)
(0.429466 -0.507038 0)
(0.456254 -0.508444 0)
(0.482598 -0.508777 0)
(0.508268 -0.508247 0)
(0.533794 -0.507266 0)
(0.560365 -0.504682 0)
(0.588624 -0.497645 0)
(0.617966 -0.483166 0)
(0.64698 -0.45963 0)
(0.674286 -0.426861 0)
(0.698977 -0.38572 0)
(0.720892 -0.337562 0)
(0.74055 -0.28346 0)
(0.758714 -0.224008 0)
(0.776145 -0.158989 0)
(0.793825 -0.0889969 0)
(0.812829 -0.0139857 0)
(0.834071 0.066911 0)
(0.858413 0.153001 0)
(0.886459 0.242706 0)
(0.91844 0.334741 0)
(0.953999 0.428173 0)
(0.992226 0.52261 0)
(1.03307 0.615677 0)
(1.07652 0.705677 0)
(-0.00570068 -0.363175 0)
(0.00921111 -0.402553 0)
(0.0190729 -0.414283 0)
(0.0280885 -0.424886 0)
(0.0392495 -0.436548 0)
(0.0533544 -0.448142 0)
(0.0701791 -0.458907 0)
(0.0892504 -0.468548 0)
(0.110111 -0.477058 0)
(0.132395 -0.484548 0)
(0.155812 -0.491158 0)
(0.180127 -0.497022 0)
(0.205146 -0.502259 0)
(0.230707 -0.506958 0)
(0.256625 -0.511165 0)
(0.282736 -0.515031 0)
(0.308954 -0.518661 0)
(0.335216 -0.522056 0)
(0.361439 -0.525163 0)
(0.387552 -0.527893 0)
(0.413532 -0.530081 0)
(0.439294 -0.53133 0)
(0.464384 -0.531218 0)
(0.488352 -0.530132 0)
(0.511632 -0.52931 0)
(0.535428 -0.52775 0)
(0.560509 -0.521816 0)
(0.58636 -0.507526 0)
(0.611533 -0.482998 0)
(0.634668 -0.448236 0)
(0.655072 -0.404551 0)
(0.672903 -0.353902 0)
(0.6889 -0.297771 0)
(0.703453 -0.236892 0)
(0.717507 -0.17065 0)
(0.732816 -0.100508 0)
(0.749426 -0.0264883 0)
(0.768814 0.0526664 0)
(0.793782 0.136427 0)
(0.824894 0.22298 0)
(0.860733 0.311311 0)
(0.898869 0.40093 0)
(0.938951 0.490542 0)
(0.98117 0.57855 0)
(1.02423 0.665696 0)
(-0.00634368 -0.366655 0)
(0.021151 -0.415799 0)
(0.0315031 -0.42188 0)
(0.0367556 -0.432642 0)
(0.0449835 -0.447053 0)
(0.0571415 -0.461454 0)
(0.0724815 -0.474555 0)
(0.0902329 -0.486047 0)
(0.109816 -0.496018 0)
(0.130835 -0.504668 0)
(0.153 -0.5122 0)
(0.176085 -0.518791 0)
(0.199916 -0.524597 0)
(0.224341 -0.529735 0)
(0.24917 -0.534208 0)
(0.274223 -0.538243 0)
(0.299406 -0.541985 0)
(0.324646 -0.545406 0)
(0.349835 -0.548439 0)
(0.374882 -0.55099 0)
(0.399762 -0.552923 0)
(0.424366 -0.553724 0)
(0.448286 -0.552599 0)
(0.471505 -0.549994 0)
(0.494001 -0.548484 0)
(0.515566 -0.54721 0)
(0.536233 -0.541729 0)
(0.556234 -0.527014 0)
(0.574992 -0.500906 0)
(0.591676 -0.463546 0)
(0.606262 -0.416588 0)
(0.619797 -0.363128 0)
(0.632863 -0.304834 0)
(0.64438 -0.242344 0)
(0.655106 -0.174081 0)
(0.669684 -0.103165 0)
(0.68329 -0.0295565 0)
(0.699997 0.04769 0)
(0.724742 0.127924 0)
(0.759502 0.209801 0)
(0.801353 0.293205 0)
(0.846579 0.379443 0)
(0.895 0.466465 0)
(0.941339 0.551736 0)
(0.983513 0.634429 0)
(0.0112389 -0.378951 0)
(0.0505643 -0.434005 0)
(0.0537427 -0.427332 0)
(0.0508063 -0.438278 0)
(0.0549965 -0.455904 0)
(0.0652497 -0.473062 0)
(0.079287 -0.488262 0)
(0.0958336 -0.50139 0)
(0.114177 -0.512698 0)
(0.133893 -0.522475 0)
(0.154703 -0.530958 0)
(0.176385 -0.538337 0)
(0.198805 -0.544784 0)
(0.22179 -0.550417 0)
(0.245216 -0.555125 0)
(0.268971 -0.55923 0)
(0.292899 -0.562898 0)
(0.316903 -0.566059 0)
(0.340864 -0.568641 0)
(0.364692 -0.570533 0)
(0.388221 -0.571679 0)
(0.41105 -0.57145 0)
(0.433193 -0.568755 0)
(0.456967 -0.564329 0)
(0.482348 -0.562127 0)
(0.503228 -0.560814 0)
(0.517996 -0.554788 0)
(0.529405 -0.538651 0)
(0.539682 -0.510542 0)
(0.548705 -0.470946 0)
(0.557645 -0.42132 0)
(0.570379 -0.367444 0)
(0.581828 -0.310134 0)
(0.591501 -0.250423 0)
(0.622457 -0.200269 0)
(0.676479 -0.147737 0)
(0.707982 -0.0733451 0)
(0.713744 0.0021844 0)
(0.716098 0.0732068 0)
(0.718689 0.154801 0)
(0.738969 0.249256 0)
(0.776796 0.34657 0)
(0.83812 0.441953 0)
(0.90261 0.528804 0)
(0.954762 0.611378 0)
(0.0810309 -0.407611 0)
(0.106453 -0.460952 0)
(0.0854179 -0.424847 0)
(0.0699229 -0.435471 0)
(0.0696648 -0.458276 0)
(0.0777675 -0.478908 0)
(0.0901268 -0.496446 0)
(0.105185 -0.511278 0)
(0.12219 -0.52389 0)
(0.140616 -0.534766 0)
(0.160071 -0.544148 0)
(0.180331 -0.55223 0)
(0.201286 -0.559263 0)
(0.222556 -0.565313 0)
(0.244282 -0.570156 0)
(0.266665 -0.574211 0)
(0.289398 -0.577719 0)
(0.312325 -0.580584 0)
(0.335423 -0.582716 0)
(0.358631 -0.584014 0)
(0.381556 -0.584318 0)
(0.403008 -0.582983 0)
(0.42444 -0.578574 0)
(0.452497 -0.572756 0)
(0.481082 -0.569892 0)
(0.499531 -0.565574 0)
(0.506288 -0.55796 0)
(0.507962 -0.540874 0)
(0.509891 -0.512576 0)
(0.511817 -0.475266 0)
(0.535353 -0.440626 0)
(0.597499 -0.408645 0)
(0.639273 -0.349324 0)
(0.676432 -0.298038 0)
(0.706826 -0.244385 0)
(0.733448 -0.170476 0)
(0.756226 -0.0807998 0)
(0.777946 0.00447275 0)
(0.796372 0.0739796 0)
(0.807525 0.130588 0)
(0.816293 0.182009 0)
(0.826872 0.239879 0)
(0.852268 0.313082 0)
(0.861218 0.455879 0)
(0.913125 0.577415 0)
(0.253697 -0.523009 0)
(0.181268 -0.483254 0)
(0.0914593 -0.402676 0)
(0.086801 -0.428222 0)
(0.0876574 -0.459061 0)
(0.0942089 -0.483229 0)
(0.104325 -0.502315 0)
(0.117209 -0.517672 0)
(0.132393 -0.530367 0)
(0.149313 -0.541031 0)
(0.167499 -0.550112 0)
(0.186702 -0.558037 0)
(0.206862 -0.565649 0)
(0.227182 -0.572104 0)
(0.248061 -0.577189 0)
(0.269946 -0.581243 0)
(0.292249 -0.585164 0)
(0.314743 -0.589124 0)
(0.337462 -0.592762 0)
(0.360383 -0.595963 0)
(0.383048 -0.59848 0)
(0.404383 -0.600998 0)
(0.432518 -0.618746 0)
(0.472538 -0.643077 0)
(0.502462 -0.630217 0)
(0.523158 -0.601498 0)
(0.534534 -0.57483 0)
(0.545838 -0.554023 0)
(0.571838 -0.531432 0)
(0.599531 -0.511436 0)
(0.626955 -0.489543 0)
(0.657044 -0.443577 0)
(0.685418 -0.379114 0)
(0.717114 -0.317572 0)
(0.744472 -0.257458 0)
(0.766345 -0.185962 0)
(0.788846 -0.100277 0)
(0.815416 -0.0119818 0)
(0.842314 0.0700594 0)
(0.86495 0.144515 0)
(0.881858 0.21228 0)
(0.892594 0.27536 0)
(0.898926 0.335284 0)
(0.902311 0.399667 0)
(0.925485 0.469774 0)
(0.248088 -0.745778 0)
(0.0371398 -0.335145 0)
(0.0588893 -0.300687 0)
(0.0778395 -0.410967 0)
(0.0915304 -0.473885 0)
(0.11093 -0.510948 0)
(0.131203 -0.538017 0)
(0.150489 -0.559304 0)
(0.169101 -0.576474 0)
(0.187153 -0.590107 0)
(0.205459 -0.601436 0)
(0.224464 -0.610967 0)
(0.242918 -0.617356 0)
(0.262482 -0.623657 0)
(0.284154 -0.631368 0)
(0.308545 -0.639631 0)
(0.334661 -0.646049 0)
(0.361505 -0.650732 0)
(0.389584 -0.655044 0)
(0.418164 -0.657294 0)
(0.447595 -0.657401 0)
(0.47726 -0.658964 0)
(0.504883 -0.659445 0)
(0.52693 -0.652307 0)
(0.544259 -0.63179 0)
(0.563382 -0.606196 0)
(0.583147 -0.584182 0)
(0.601749 -0.570133 0)
(0.623774 -0.553173 0)
(0.646059 -0.529688 0)
(0.667647 -0.502451 0)
(0.686087 -0.460429 0)
(0.705524 -0.402834 0)
(0.728635 -0.340574 0)
(0.750917 -0.276405 0)
(0.771452 -0.205172 0)
(0.794508 -0.124158 0)
(0.822986 -0.0392679 0)
(0.854869 0.0440483 0)
(0.886435 0.124074 0)
(0.914758 0.201002 0)
(0.937367 0.276365 0)
(0.952937 0.352287 0)
(0.963727 0.428385 0)
(0.972003 0.488849 0)
(-0.143135 -0.804571 0)
(-0.0682679 -0.353604 0)
(0.0115796 -0.37403 0)
(0.0747642 -0.446986 0)
(0.111197 -0.494256 0)
(0.139244 -0.523356 0)
(0.163814 -0.544627 0)
(0.185945 -0.561993 0)
(0.206558 -0.576867 0)
(0.22642 -0.589829 0)
(0.246231 -0.601397 0)
(0.26648 -0.611802 0)
(0.287368 -0.621024 0)
(0.309555 -0.630005 0)
(0.332733 -0.638529 0)
(0.356765 -0.645749 0)
(0.381615 -0.651232 0)
(0.407422 -0.655632 0)
(0.434198 -0.659341 0)
(0.461334 -0.66151 0)
(0.489038 -0.662612 0)
(0.516281 -0.663737 0)
(0.540445 -0.664999 0)
(0.558771 -0.659951 0)
(0.574402 -0.644157 0)
(0.59269 -0.62235 0)
(0.613036 -0.602315 0)
(0.632398 -0.586833 0)
(0.649038 -0.569323 0)
(0.664316 -0.545922 0)
(0.67737 -0.515027 0)
(0.688453 -0.473322 0)
(0.700679 -0.419269 0)
(0.716172 -0.358698 0)