/*--------------------------------*- C++ -*----------------------------------*\
| =========                 |                                                 |
| \\      /  F ield         | OpenFOAM: The Open Source CFD Toolbox           |
|  \\    /   O peration     | Version:  5.0                                   |
|   \\  /    A nd           | Web:      www.OpenFOAM.org                      |
|    \\/     M anipulation  |                                                 |
\*---------------------------------------------------------------------------*/
FoamFile
{
    version     2.0;
    format      ascii;
    class       volScalarField;
    location    "0.5";
    object      alpha.water;
}
// * * * * * * * * * * * * * * * * * * * * * * * * * * * * * * * * * * * * * //

dimensions      [0 0 0 0 0 0 0];

internalField   nonuniform List<scalar> 
1935
(
1
1
1
1
1
1
1
1
1
1
1
1
1
1
1
1
1
1
1
1
1
1
1
1
1
1
1
1
1
1
1
1
1
1
1
1
1
1
1
1
0.990662
0.925298
1
1
1
1
1
1
1
1
1
1
1
1
1
1
1
1
1
1
1
1
1
1
1
1
1
1
1
1
1
1
1
1
1
1
1
1
1
1
1
1
1
1
0.999815
0.973235
0.970387
0.994695
1
1
1
1
1
1
1
1
1
1
1
1
1
1
1
1
1
1
1
1
1
1
1
1
1
1
1
1
1
1
1
1
1
1
1
1
1
1
1
1
1
0.999977
0.964153
0.964157
1
1
1
1
1
1
1
1
1
1
1
1
1
1
1
1
1
1
1
1
1
1
1
1
1
1
1
1
1
1
1
1
1
1
1
1
1
1
1
1
1
1
0.987337
0.964147
1
1
1
1
1
1
1
1
1
1
1
1
1
1
1
1
1
1
1
1
1
1
1
1
1
1
1
1
1
1
1
1
1
1
1
1
1
1
1
1
1
1
1
0.991671
1
1
1
1
1
1
1
1
1
1
1
1
1
1
1
1
1
1
1
1
1
1
1
1
1
1
1
1
1
1
1
1
1
1
1
1
1
1
1
1
1
1
1
0.999999
1
1
1
1
1
1
1
1
1
1
1
1
1
1
1
1
1
1
1
1
1
1
1
1
1
1
1
1
1
1
1
1
1
1
1
1
1
1
1
1
1
1
1
1
1
1
1
1
1
1
1
1
1
1
1
1
1
1
1
1
1
1
1
1
1
1
1
1
1
1
1
1
1
1
1
1
1
1
1
1
1
1
1
1
1
1
1
1
1
1
1
1
1
1
1
1
1
1
1
1
1
1
1
1
1
1
1
1
1
1
1
1
1
1
1
1
1
1
1
1
1
1
1
1
1
1
1
1
1
1
1
1
1
1
1
1
1
1
1
1
1
1
1
1
1
1
1
1
1
1
1
1
1
1
1
1
1
1
1
1
1
1
1
1
1
1
1
1
1
1
1
1
1
1
1
1
1
1
1
1
1
1
1
1
1
1
1
1
1
1
1
1
1
1
1
1
1
1
1
1
1
1
1
1
1
1
1
1
1
1
1
1
1
1
1
1
1
1
1
1
1
0.999998
0.999998
0.999998
0.999999
1
1
1
1
1
1
1
1
1
1
1
1
1
1
1
1
1
1
1
1
1
1
1
1
1
1
1
1
1
1
1
1
1
1
1
1
1
1
1
0.983565
0.9621
0.967681
0.979326
0.991481
0.998903
0.999971
0.999976
0.999979
0.999982
0.999984
0.999986
0.999988
0.999989
0.99999
0.999991
0.999992
0.999993
0.999994
0.999995
0.999996
0.999997
0.999998
0.999998
0.999999
0.999999
1
1
1
1
1
1
1
1
1
1
1
1
1
1
1
1
1
1
0.373912
0.309395
0.326753
0.37212
0.445452
0.543475
0.633163
0.687877
0.723691
0.749497
0.769245
0.78403
0.794738
0.802568
0.808814
0.814712
0.820959
0.82807
0.836791
0.847907
0.861985
0.879238
0.899404
0.921774
0.945157
0.967675
0.986556
0.997917
0.999998
0.999999
1
1
1
1
1
1
1
1
1
1
1
1
1
1
-1.39738e-11
-6.16982e-12
-2.75811e-12
-1.05281e-12
-4.39712e-09
-4.35911e-09
0.00807662
0.0275394
0.0433368
0.0563682
0.0674662
0.0764678
0.0833833
0.088666
0.0930441
0.0973733
0.102165
0.107872
0.115259
0.125303
0.139117
0.157979
0.183365
0.217262
0.262579
0.323771
0.407592
0.520455
0.651015
0.773275
0.883047
0.963773
0.998407
1
1
1
1
1
1
1
1
1
1
1
-3.37674e-11
-2.44204e-11
-1.07458e-11
-4.6555e-12
-3.14648e-08
-7.98904e-08
-1.74783e-07
-1.98943e-07
-1.43534e-07
-7.61639e-08
-3.2879e-08
-1.87009e-08
-3.8025e-08
-9.70582e-08
-1.93174e-07
-3.14053e-07
-4.37469e-07
-5.7575e-07
-7.70269e-07
-1.00903e-06
-1.21806e-06
-1.33052e-06
-1.31967e-06
-1.18012e-06
-9.56659e-07
-6.79246e-07
-3.87922e-07
-1.30581e-07
0.00998719
0.0528795
0.128403
0.273657
0.537672
0.827895
0.998229
1
1
1
1
1
1
1
1
1
-2.87735e-11
-2.62699e-11
-9.49284e-12
-4.34182e-12
-3.96679e-08
-1.04383e-07
-2.1451e-07
-2.40519e-07
-1.73589e-07
-9.42088e-08
-4.21351e-08
-2.91828e-08
-7.43155e-08
-1.99176e-07
-4.05402e-07
-6.6284e-07
-9.34147e-07
-1.2433e-06
-1.65208e-06
-2.16111e-06
-2.68393e-06
-3.09541e-06
-3.30218e-06
-3.27291e-06
-3.03508e-06
-2.64787e-06
-2.17785e-06
-1.68811e-06
-1.23025e-06
-8.34835e-07
-5.10553e-07
-2.53409e-07
0.00171588
0.0237531
0.129669
0.556316
0.985407
1
1
1
1
1
1
1
-1.66285e-11
-1.56281e-11
-4.66189e-12
-2.23632e-12
-1.78116e-08
-4.81668e-08
-5.29386e-08
-3.97201e-08
-2.38151e-08
-1.22818e-08
-5.71862e-09
-1.59946e-08
-7.38978e-08
-2.11545e-07
-4.35923e-07
-7.19688e-07
-1.02107e-06
-1.34121e-06
-1.71639e-06
-2.15381e-06
-2.59971e-06
-2.96945e-06
-3.19434e-06
-3.24629e-06
-3.1372e-06
-2.90293e-06
-2.5849e-06
-2.21847e-06
-1.83277e-06
-1.45565e-06
-1.10811e-06
-7.99768e-07
-5.3673e-07
-7.94202e-11
1.84306e-07
0.0177354
0.0864089
0.298361
0.831864
1
1
1
1
1
-6.24488e-12
-5.50855e-12
-1.61289e-12
-7.98978e-13
-4.37253e-13
-2.96529e-13
-1.23803e-12
-3.57703e-12
-8.15489e-12
-2.19179e-11
-6.92515e-11
-9.53465e-09
-5.08098e-08
-1.47046e-07
-3.05032e-07
-5.0801e-07
-7.24823e-07
-9.32809e-07
-1.12574e-06
-1.30161e-06
-1.45077e-06
-1.55748e-06
-1.60956e-06
-1.60576e-06
-1.55535e-06
-1.47198e-06
-1.36717e-06
-1.24737e-06
-1.11638e-06
-9.79926e-07
-8.4464e-07
-7.13183e-07
-5.81427e-07
-1.20048e-07
-8.97867e-11
8.31901e-08
4.97727e-07
2.60179e-06
0.0674357
0.227395
0.638237
0.996113
1
1
-1.75076e-12
-1.39125e-12
-4.87536e-13
-2.59933e-13
-1.7006e-13
-1.57402e-13
-7.98196e-13
-2.32832e-12
-5.33055e-12
-1.38737e-11
-4.24257e-11
-4.38953e-09
-2.31789e-08
-6.71371e-08
-1.40113e-07
-2.355e-07
-3.38497e-07
-4.31903e-07
-5.01873e-07
-5.41337e-07
-5.50547e-07
-5.35334e-07
-5.04248e-07
-4.65789e-07
-4.26541e-07
-3.90456e-07
-3.59066e-07
-3.32223e-07
-3.09069e-07
-2.88845e-07
-2.71026e-07
-2.5519e-07
-2.44032e-07
-2.27731e-07
-9.31041e-08
-3.29166e-09
-2.47347e-09
1.00201e-08
1.0424e-06
3.15022e-06
0.0315848
0.13515
0.39091
0.864294
-8.47328e-13
-5.24442e-13
-1.95041e-13
-1.02716e-13
-7.52939e-14
-9.15604e-14
-4.229e-13
-1.19775e-12
-2.68505e-12
-6.61583e-12
-1.91366e-11
-1.22233e-09
-6.40149e-09
-1.85887e-08
-3.90659e-08
-6.63352e-08
-9.66211e-08
-1.25356e-07
-1.48728e-07
-1.64621e-07
-1.728e-07
-1.74493e-07
-1.71739e-07
-1.66741e-07
-1.61396e-07
-1.57041e-07
-1.54386e-07
-1.53587e-07
-1.54412e-07
-1.56424e-07
-1.59095e-07
-1.62012e-07
-1.66107e-07
-1.72467e-07
-1.73339e-07
-1.24334e-07
-2.93263e-09
-5.32042e-10
-1.34492e-09
1.53591e-08
5.62762e-07
1.81068e-06
0.00477698
0.0676477
0.161305
-3.09386e-13
-1.39527e-13
-5.54781e-14
-3.16014e-14
-3.09163e-14
-5.46328e-14
-2.00089e-13
-5.22158e-13
-1.10804e-12
-2.47047e-12
-6.40259e-12
-1.65215e-10
-8.40117e-10
-2.44131e-09
-5.1866e-09
-8.97176e-09
-1.34244e-08
-1.80802e-08
-2.25709e-08
-2.67405e-08
-3.06656e-08
-3.45979e-08
-3.8872e-08
-4.38123e-08
-4.96624e-08
-5.65448e-08
-6.44492e-08
-7.32443e-08
-8.27118e-08
-9.25884e-08
-1.02599e-07
-1.12541e-07
-1.22745e-07
-1.34373e-07
-1.49287e-07
-1.6534e-07
-1.70786e-07
-1.03065e-07
-1.99642e-11
-6.77401e-10
-4.40604e-09
5.98482e-09
6.28223e-08
5.89743e-07
4.8815e-07
-7.68748e-14
-2.44698e-14
-1.08048e-14
-8.55513e-15
-1.45752e-14
-3.58505e-14
-1.00957e-13
-2.29395e-13
-4.43347e-13
-8.43864e-13
-1.77077e-12
-4.31545e-12
-1.18756e-11
-3.33908e-11
-8.82651e-11
-2.12087e-10
-4.6153e-10
-9.1656e-10
-1.67853e-09
-2.86371e-09
-4.59313e-09
-6.98046e-09
-1.01202e-08
-1.4078e-08
-1.88843e-08
-2.45312e-08
-3.09738e-08
-3.81343e-08
-4.5911e-08
-5.41877e-08
-6.28385e-08
-7.1745e-08
-8.08881e-08
-9.12503e-08
-1.03633e-07
-1.2043e-07
-1.42865e-07
-1.58549e-07
-1.59659e-07
-1.26768e-07
-3.69727e-12
-6.71655e-12
-3.52596e-09
-8.5425e-10
8.69767e-10
-1.05831e-14
-2.70344e-15
-1.75899e-15
-3.15133e-15
-8.90263e-15
-2.53712e-14
-6.17385e-14
-1.2535e-13
-2.2387e-13
-3.75523e-13
-6.27803e-13
-1.18703e-12
-3.02812e-12
-9.45119e-12
-2.87565e-11
-7.7632e-11
-1.84309e-10
-3.90355e-10
-7.50229e-10
-1.32834e-09
-2.19403e-09
-3.41548e-09
-5.05362e-09
-7.15715e-09
-9.75926e-09
-1.28764e-08
-1.65088e-08
-2.06428e-08
-2.52544e-08
-3.03115e-08
-3.57736e-08
-4.15892e-08
-4.77083e-08
-5.41366e-08
-6.18973e-08
-7.13434e-08
-8.42718e-08
-1.01918e-07
-1.22841e-07
-1.37001e-07
-1.27583e-07
-9.84415e-08
-3.16738e-08
-5.31064e-12
-2.79796e-11
-5.63545e-16
-3.05315e-16
-5.52157e-16
-1.87429e-15
-6.23713e-15
-1.84024e-14
-4.29544e-14
-8.38766e-14
-1.46665e-13
-2.41857e-13
-3.89189e-13
-6.63111e-13
-1.44909e-12
-4.14749e-12
-1.24387e-11
-3.39446e-11
-8.18461e-11
-1.75902e-10
-3.42429e-10
-6.13086e-10
-1.02265e-09
-1.60622e-09
-2.3964e-09
-3.42103e-09
-4.70165e-09
-6.25309e-09
-8.0838e-09
-1.0197e-08
-1.25923e-08
-1.52664e-08
-1.82124e-08
-2.14175e-08
-2.4861e-08
-2.85168e-08
-3.23615e-08
-3.70084e-08
-4.26928e-08
-5.00906e-08
-6.00868e-08
-7.19392e-08
-8.17176e-08
-8.42962e-08
-7.47693e-08
-5.76385e-08
-3.68504e-08
-5.93427e-17
-8.6133e-17
-3.17553e-16
-1.298e-15
-4.48382e-15
-1.32963e-14
-3.06743e-14
-5.93827e-14
-1.04266e-13
-1.75294e-13
-2.90789e-13
-4.97433e-13
-9.80821e-13
-2.37281e-12
-6.3097e-12
-1.61718e-11
-3.78114e-11
-8.00246e-11
-1.54569e-10
-2.75659e-10
-4.59012e-10
-7.20651e-10
-1.0757e-09
-1.5374e-09
-2.11652e-09
-2.82118e-09
-3.6571e-09
-4.62816e-09
-5.73705e-09
-6.98571e-09
-8.37523e-09
-9.90506e-09
-1.1572e-08
-1.33696e-08
-1.52883e-08
-1.73159e-08
-1.96385e-08
-2.25735e-08
-2.6267e-08
-3.0886e-08
-3.62167e-08
-4.11349e-08
-4.39132e-08
-4.33407e-08
-3.91518e-08
1.20826e-17
-3.81846e-17
-2.11191e-16
-9.17309e-16
-3.20185e-15
-9.45949e-15
-2.1575e-14
-4.15818e-14
-7.37813e-14
-1.27271e-13
-2.18405e-13
-3.7985e-13
-7.07664e-13
-1.49145e-12
-3.44923e-12
-8.03559e-12
-1.774e-11
-3.62731e-11
-6.85618e-11
-1.20528e-10
-1.98686e-10
-3.09648e-10
-4.59634e-10
-6.5408e-10
-8.97413e-10
-1.19301e-09
-1.5433e-09
-1.95005e-09
-2.41463e-09
-2.93823e-09
-3.52194e-09
-4.16663e-09
-4.87262e-09
-5.63942e-09
-6.46545e-09
-7.34766e-09
-8.2815e-09
-9.26112e-09
-1.04237e-08
-1.19211e-08
-1.38036e-08
-1.59612e-08
-1.8087e-08
-1.97222e-08
-2.04495e-08
-1.38522e-18
-2.58572e-17
-1.46103e-16
-6.43144e-16
-2.24523e-15
-6.57774e-15
-1.4796e-14
-2.84467e-14
-5.13236e-14
-9.14382e-14
-1.62787e-13
-2.89545e-13
-5.25734e-13
-1.00855e-12
-2.05273e-12
-4.2712e-12
-8.68745e-12
-1.67995e-11
-3.05663e-11
-5.2309e-11
-8.45458e-11
-1.29792e-10
-1.90369e-10
-2.68251e-10
-3.64985e-10
-4.81678e-10
-6.1905e-10
-7.7754e-10
-9.57428e-10
-1.15894e-09
-1.38232e-09
-1.62783e-09
-1.89571e-09
-2.18615e-09
-2.49917e-09
-2.83459e-09
-3.19197e-09
-3.5706e-09
-3.96955e-09
-4.39055e-09
-4.85298e-09
-5.40566e-09
-6.08346e-09
-6.85409e-09
-7.62278e-09
-3.7144e-18
-1.78643e-17
-9.98417e-17
-4.41451e-16
-1.53446e-15
-4.44404e-15
-9.8522e-15
-1.89817e-14
-3.51033e-14
-6.49695e-14
-1.20003e-13
-2.18249e-13
-3.92392e-13
-7.10847e-13
-1.31413e-12
-2.45995e-12
-4.56343e-12
-8.21745e-12
-1.41829e-11
-2.33466e-11
-3.66537e-11
-5.50271e-11
-7.92897e-11
-1.10103e-10
-1.47934e-10
-1.93048e-10
-2.45536e-10
-3.05357e-10
-3.72391e-10
-4.46495e-10
-5.27538e-10
-6.15425e-10
-7.10108e-10
-8.11576e-10
-9.19848e-10
-1.03496e-09
-1.15695e-09
-1.28587e-09
-1.42179e-09
-1.56479e-09
-1.71523e-09
-1.8749e-09
-2.04922e-09
-2.24749e-09
-2.4778e-09
-2.87469e-18
-1.17113e-17
-6.6498e-17
-2.94633e-16
-1.0164e-15
-2.90345e-15
-6.35128e-15
-1.23499e-14
-2.36162e-14
-4.55612e-14
-8.70348e-14
-1.61228e-13
-2.88867e-13
-5.06405e-13
-8.79958e-13
-1.52247e-12
-2.60905e-12
-4.38483e-12
-7.16083e-12
-1.1296e-11
-1.71673e-11
-2.5132e-11
-3.54904e-11
-4.8455e-11
-6.41338e-11
-8.25291e-11
-1.03551e-10
-1.27044e-10
-1.52812e-10
-1.80655e-10
-2.10385e-10
-2.41848e-10
-2.74928e-10
-3.09549e-10
-3.45674e-10
-3.83302e-10
-4.22458e-10
-4.632e-10
-5.0561e-10
-5.49807e-10
-5.95943e-10
-6.4423e-10
-6.95067e-10
-7.49325e-10
-8.0871e-10
-1.85038e-18
-7.41309e-18
-4.3006e-17
-1.90285e-16
-6.49582e-16
-1.82768e-15
-3.9579e-15
-7.83989e-15
-1.56228e-14
-3.14092e-14
-6.16888e-14
-1.15756e-13
-2.07019e-13
-3.56392e-13
-5.98254e-13
-9.88251e-13
-1.61097e-12
-2.58464e-12
-4.0596e-12
-6.20856e-12
-9.20847e-12
-1.32169e-11
-1.83486e-11
-2.46569e-11
-3.21265e-11
-4.06766e-11
-5.01749e-11
-6.04574e-11
-7.1349e-11
-8.26832e-11
-9.43153e-11
-1.0613e-10
-1.18045e-10
-1.30008e-10
-1.41994e-10
-1.53999e-10
-1.66038e-10
-1.78136e-10
-1.90334e-10
-2.02679e-10
-2.1523e-10
-2.28057e-10
-2.41246e-10
-2.54918e-10
-2.6927e-10
-1.09663e-18
-4.55273e-18
-2.69101e-17
-1.18424e-16
-3.99082e-16
-1.10559e-15
-2.38358e-15
-4.86068e-15
-1.01431e-14
-2.11634e-14
-4.24178e-14
-8.01715e-14
-1.43106e-13
-2.44091e-13
-4.0355e-13
-6.54287e-13
-1.04661e-12
-1.65146e-12
-2.55872e-12
-3.86864e-12
-5.67675e-12
-8.0555e-12
-1.10377e-11
-1.46069e-11
-1.86973e-11
-2.3203e-11
-2.79934e-11
-3.29304e-11
-3.78841e-11
-4.2744e-11
-4.74254e-11
-5.18707e-11
-5.60469e-11
-5.99418e-11
-6.35584e-11
-6.691e-11
-7.00162e-11
-7.28994e-11
-7.55826e-11
-7.80885e-11
-8.04385e-11
-8.2653e-11
-8.47522e-11
-8.67578e-11
-8.86969e-11
-6.1697e-19
-2.7113e-18
-1.62296e-17
-7.07578e-17
-2.34986e-16
-6.41591e-16
-1.38822e-15
-2.94425e-15
-6.43772e-15
-1.38408e-14
-2.80933e-14
-5.32269e-14
-9.48097e-14
-1.61211e-13
-2.66087e-13
-4.31996e-13
-6.94033e-13
-1.10131e-12
-1.71379e-12
-2.59328e-12
-3.7899e-12
-5.32786e-12
-7.19554e-12
-9.34339e-12
-1.16902e-11
-1.41358e-11
-1.65756e-11
-1.89143e-11
-2.10748e-11
-2.3003e-11
-2.46681e-11
-2.60594e-11
-2.71817e-11
-2.80508e-11
-2.86884e-11
-2.91184e-11
-2.93649e-11
-2.94495e-11
-2.93911e-11
-2.92054e-11
-2.89046e-11
-2.84979e-11
-2.79918e-11
-2.73901e-11
-2.66949e-11
-3.33566e-19
-1.56164e-18
-9.39908e-18
-4.04568e-17
-1.32287e-16
-3.56863e-16
-7.82775e-16
-1.74029e-15
-3.97138e-15
-8.72174e-15
-1.78054e-14
-3.37012e-14
-5.99359e-14
-1.0214e-13
-1.70047e-13
-2.80214e-13
-4.58297e-13
-7.3892e-13
-1.16131e-12
-1.76052e-12
-2.55632e-12
-3.54397e-12
-4.69052e-12
-5.93845e-12
-7.21542e-12
-8.44648e-12
-9.56542e-12
-1.05223e-11
-1.12868e-11
-1.18474e-11
-1.22081e-11
-1.2384e-11
-1.23966e-11
-1.22703e-11
-1.20294e-11
-1.16959e-11
-1.12891e-11
-1.08247e-11
-1.03153e-11
-9.7704e-12
-9.19692e-12
-8.59957e-12
-7.98111e-12
-7.34262e-12
-6.68378e-12
-1.74137e-19
-8.66866e-19
-5.20823e-18
-2.20699e-17
-7.10598e-17
-1.90196e-16
-4.27677e-16
-1.00049e-15
-2.36464e-15
-5.25851e-15
-1.07388e-14
-2.02665e-14
-3.60482e-14
-6.19108e-14
-1.04845e-13
-1.76867e-13
-2.96096e-13
-4.85499e-13
-7.68237e-13
-1.16025e-12
-1.66259e-12
-2.25696e-12
-2.90675e-12
-3.56365e-12
-4.1771e-12
-4.70345e-12
-5.11217e-12
-5.38811e-12
-5.53036e-12
-5.54904e-12
-5.46125e-12
-5.28731e-12
-5.04781e-12
-4.76166e-12
-4.44502e-12
-4.11092e-12
-3.76933e-12
-3.42757e-12
-3.09069e-12
-2.76202e-12
-2.4435e-12
-2.13614e-12
-1.84003e-12
-1.5546e-12
-1.27897e-12
-8.78259e-20
-4.61897e-19
-2.75163e-18
-1.14547e-17
-3.63599e-17
-9.71341e-17
-2.26332e-16
-5.56435e-16
-1.34888e-15
-3.01404e-15
-6.13354e-15
-1.15369e-14
-2.05862e-14
-3.58496e-14
-6.21857e-14
-1.0785e-13
-1.84713e-13
-3.06527e-13
-4.84876e-13
-7.23851e-13
-1.01577e-12
-1.34035e-12
-1.66816e-12
-1.96723e-12
-2.21e-12
-2.3783e-12
-2.46511e-12
-2.47346e-12
-2.41366e-12
-2.29997e-12
-2.14769e-12
-1.97112e-12
-1.78237e-12
-1.59089e-12
-1.40357e-12
-1.22504e-12
-1.05808e-12
-9.04152e-13
-7.63696e-13
-6.36501e-13
-5.21886e-13
-4.18937e-13
-3.26436e-13
-2.42554e-13
-1.67172e-13
-4.27049e-20
-2.35195e-19
-1.38107e-18
-5.64058e-18
-1.76944e-17
-4.75332e-17
-1.15762e-16
-2.97309e-16
-7.31783e-16
-1.63282e-15
-3.30343e-15
-6.19937e-15
-1.11454e-14
-1.9806e-14
-3.53662e-14
-6.30728e-14
-1.09983e-13
-1.83316e-13
-2.87479e-13
-4.20861e-13
-5.74136e-13
-7.31367e-13
-8.7381e-13
-9.84754e-13
-1.05336e-12
-1.0762e-12
-1.05658e-12
-1.00232e-12
-9.2335e-13
-8.29588e-13
-7.29603e-13
-6.30009e-13
-5.35391e-13
-4.48556e-13
-3.7091e-13
-3.02863e-13
-2.44162e-13
-1.94156e-13
-1.51967e-13
-1.1658e-13
-8.68533e-14
-6.14951e-14
-3.96125e-14
-1.71391e-14
-3.56193e-32
-1.99432e-20
-1.13888e-19
-6.5597e-19
-2.6274e-18
-8.17631e-18
-2.22736e-17
-5.69693e-17
-1.51413e-16
-3.74923e-16
-8.31554e-16
-1.67097e-15
-3.136e-15
-5.71091e-15
-1.04175e-14
-1.91908e-14
-3.50707e-14
-6.18034e-14
-1.02586e-13
-1.58209e-13
-2.25489e-13
-2.97057e-13
-3.62988e-13
-4.13688e-13
-4.42636e-13
-4.47783e-13
-4.31293e-13
-3.98143e-13
-3.54398e-13
-3.0581e-13
-2.56988e-13
-2.11123e-13
-1.70078e-13
-1.34665e-13
-1.04965e-13
-8.06117e-14
-6.10053e-14
-4.54584e-14
-3.32726e-14
-2.37694e-14
-1.62184e-14
-9.97638e-15
-3.30191e-15
9.48775e-16
1.39529e-14
5.50893e-14
-8.8984e-21
-5.21591e-20
-2.93568e-19
-1.15386e-18
-3.58047e-18
-9.97505e-18
-2.67965e-17
-7.28901e-17
-1.80182e-16
-3.96008e-16
-7.90566e-16
-1.48896e-15
-2.76263e-15
-5.19558e-15
-9.86279e-15
-1.83509e-14
-3.24042e-14
-5.31245e-14
-7.99919e-14
-1.10288e-13
-1.39471e-13
-1.6251e-13
-1.75573e-13
-1.77181e-13
-1.68319e-13
-1.51687e-13
-1.30621e-13
-1.0819e-13
-8.66928e-14
-6.75348e-14
-5.13531e-14
-3.82354e-14
-2.79396e-14
-2.00661e-14
-1.41727e-14
-9.839e-15
-6.69201e-15
-4.39972e-15
-2.67756e-15
-1.00915e-15
1.8619e-16
4.32517e-15
2.1229e-14
6.72856e-14
1.78282e-13
-3.76874e-21
-2.24534e-20
-1.23173e-19
-4.75912e-19
-1.48194e-18
-4.25313e-18
-1.19447e-17
-3.28861e-17
-8.0672e-17
-1.75367e-16
-3.48237e-16
-6.61062e-16
-1.25651e-15
-2.44076e-15
-4.75367e-15
-8.93219e-15
-1.5671e-14
-2.51901e-14
-3.6805e-14
-4.88187e-14
-5.89472e-14
-6.51272e-14
-6.62942e-14
-6.26726e-14
-5.54945e-14
-4.64142e-14
-3.69607e-14
-2.82261e-14
-2.08029e-14
-1.48751e-14
-1.03641e-14
-7.05951e-15
-4.7119e-15
-3.08573e-15
-1.98219e-15
-1.24343e-15
-7.41224e-16
-3.61227e-16
-1.39138e-34
6.82122e-16
4.5184e-15
1.7316e-14
5.52078e-14
1.61573e-13
4.43331e-13
-1.5031e-21
-9.0198e-21
-4.81628e-20
-1.83491e-19
-5.77501e-19
-1.71571e-18
-4.99558e-18
-1.37829e-17
-3.34045e-17
-7.17559e-17
-1.42024e-16
-2.73022e-16
-5.33829e-16
-1.06975e-15
-2.12307e-15
-3.99424e-15
-6.90955e-15
-1.0823e-14
-1.52664e-14
-1.93904e-14
-2.22497e-14
-2.31874e-14
-2.21053e-14
-1.94427e-14
-1.59222e-14
-1.22529e-14
-8.93889e-15
-6.23167e-15
-4.18055e-15
-2.71466e-15
-1.71435e-15
-1.05666e-15
-6.37144e-16
-3.75947e-16
-2.15533e-16
-1.15011e-16
-3.23878e-17
5.19642e-17
5.0142e-16
2.61511e-15
1.05855e-14
3.93287e-14
1.35468e-13
4.26708e-13
1.21602e-12
-5.5908e-22
-3.35224e-21
-1.74241e-20
-6.57424e-20
-2.1067e-19
-6.48901e-19
-1.93824e-18
-5.31485e-18
-1.26863e-17
-2.69221e-17
-5.3247e-17
-1.04113e-16
-2.09814e-16
-4.31959e-16
-8.6655e-16
-1.61921e-15
-2.74417e-15
-4.16816e-15
-5.65297e-15
-6.84912e-15
-7.43819e-15
-7.2771e-15
-6.46046e-15
-5.25083e-15
-3.94553e-15
-2.76872e-15
-1.83231e-15
-1.15389e-15
-6.96937e-16
-4.06402e-16
-2.30013e-16
-1.26843e-16
-6.82508e-17
-3.54682e-17
-1.63621e-17
-4.93955e-19
3.01588e-17
2.21128e-16
1.09673e-15
5.10682e-15
2.26564e-14
9.13432e-14
3.31211e-13
1.07225e-12
3.02071e-12
-1.91651e-22
-1.14063e-21
-5.7797e-21
-2.17197e-20
-7.13345e-20
-2.27334e-19
-6.88841e-19
-1.86513e-18
-4.37466e-18
-9.17244e-18
-1.81753e-17
-3.62632e-17
-7.52628e-17
-1.582e-16
-3.18193e-16
-5.86469e-16
-9.68872e-16
-1.42176e-15
-1.84835e-15
-2.13003e-15
-2.18233e-15
-1.99619e-15
-1.64192e-15
-1.22532e-15
-8.38283e-16
-5.31627e-16
-3.16004e-16
-1.7787e-16
-9.56671e-17
-4.95419e-17
-2.48504e-17
-1.21129e-17
-5.66977e-18
-2.179e-18
3.26683e-19
1.09143e-17
6.61473e-17
3.42296e-16
1.78323e-15
9.12994e-15
4.35435e-14
1.84599e-13
6.87915e-13
2.24826e-12
6.16925e-12
-5.96685e-23
-3.5072e-22
-1.73767e-21
-6.54773e-21
-2.21498e-20
-7.26498e-20
-2.20966e-19
-5.87859e-19
-1.35235e-18
-2.80165e-18
-5.5727e-18
-1.13581e-17
-2.41939e-17
-5.15527e-17
-1.03215e-16
-1.86646e-16
-2.99499e-16
-4.23542e-16
-5.2677e-16
-5.76306e-16
)
;

boundaryField
{
    leftWall
    {
        type            zeroGradient;
    }
    rightWall
    {
        type            zeroGradient;
    }
    lowerWall
    {
        type            zeroGradient;
    }
    atmosphere
    {
        type            inletOutlet;
        inletValue      nonuniform 0();
        value           nonuniform 0();
    }
    defaultFaces
    {
        type            empty;
    }
    procBoundary0to1
    {
        type            processor;
        value           nonuniform List<scalar> 
44
(
1
0.998009
0.976527
0.970636
0.990132
1
1
1
1
1
1
1
1
1
1
1
1
1
1
1
1
0.427484
0.0104368
1.03842e-08
-1.17935e-14
-1.61051e-08
-3.21715e-08
-2.00461e-08
-8.25735e-09
-2.73799e-09
-8.75655e-10
-2.84645e-10
-9.0609e-11
-2.59068e-11
-6.00288e-12
-1.01135e-12
-9.4884e-14
2.25949e-14
1.6129e-13
4.33412e-13
1.12745e-12
3.09515e-12
7.41963e-12
1.45486e-11
)
;
    }
    procBoundary0to2
    {
        type            processor;
        value           nonuniform List<scalar> 
46
(
-5.55717e-16
-4.73894e-16
-3.59683e-16
-2.45096e-16
-1.51582e-16
-8.6143e-17
-4.55569e-17
-2.26897e-17
-1.07552e-17
-4.89471e-18
-2.15133e-18
-9.03739e-19
-2.92031e-19
1.94595e-19
2.56372e-18
1.49122e-17
8.1289e-17
4.44699e-16
2.50323e-15
1.38992e-14
7.08839e-14
3.1484e-13
1.20004e-12
3.94897e-12
1.06318e-11
-1.65666e-23
-9.58497e-23
-4.66445e-22
-1.77526e-21
-6.2008e-21
-2.07748e-20
-6.28475e-20
-1.63646e-19
-3.6851e-19
-7.53744e-19
-1.50537e-18
-3.12822e-18
-6.80149e-18
-1.45945e-17
-2.89291e-17
-5.11414e-17
-7.95434e-17
-1.08268e-16
-1.28712e-16
-5.55717e-16
-1.33593e-16
)
;
    }
}


// ************************************************************************* //
