/*--------------------------------*- C++ -*----------------------------------*\
| =========                 |                                                 |
| \\      /  F ield         | OpenFOAM: The Open Source CFD Toolbox           |
|  \\    /   O peration     | Version:  5.0                                   |
|   \\  /    A nd           | Web:      www.OpenFOAM.org                      |
|    \\/     M anipulation  |                                                 |
\*---------------------------------------------------------------------------*/
FoamFile
{
    version     2.0;
    format      ascii;
    class       surfaceScalarField;
    location    "0.5";
    object      alphaPhi10;
}
// * * * * * * * * * * * * * * * * * * * * * * * * * * * * * * * * * * * * * //

dimensions      [0 3 -1 0 0 0 0];

internalField   nonuniform List<scalar> 
3781
(
-2.90288e-06
2.90288e-06
-4.62067e-06
1.71779e-06
-4.66096e-06
4.02875e-08
-3.67148e-06
-9.89484e-07
-2.17017e-06
-1.50131e-06
-4.27579e-07
-1.74259e-06
1.39213e-06
-1.81971e-06
3.20953e-06
-1.81741e-06
4.97569e-06
-1.76615e-06
6.66543e-06
-1.68974e-06
8.26758e-06
-1.60215e-06
9.77902e-06
-1.51143e-06
1.12014e-05
-1.4224e-06
1.25392e-05
-1.33779e-06
1.37982e-05
-1.25898e-06
1.49846e-05
-1.1864e-06
1.61044e-05
-1.11984e-06
1.7163e-05
-1.05861e-06
1.81647e-05
-1.00169e-06
1.91125e-05
-9.47788e-07
2.00079e-05
-8.95369e-07
2.08505e-05
-8.42652e-07
2.16381e-05
-7.87604e-07
2.2366e-05
-7.27889e-07
2.30268e-05
-6.60792e-07
2.36099e-05
-5.83067e-07
2.41006e-05
-4.90669e-07
2.44786e-05
-3.78091e-07
2.47158e-05
-2.3718e-07
2.47694e-05
-5.35483e-08
2.45718e-05
1.97616e-07
2.40672e-05
5.04535e-07
2.31984e-05
8.68794e-07
2.18961e-05
1.30233e-06
2.00903e-05
1.80579e-06
1.77155e-05
2.37485e-06
1.4725e-05
2.99042e-06
1.11123e-05
3.61269e-06
6.92715e-06
4.18519e-06
2.28998e-06
4.63717e-06
-2.64501e-06
5.02731e-06
-8.27108e-06
5.34457e-06
-1.25848e-05
4.3137e-06
7.89679e-07
-2.20229e-06
5.10517e-06
-2.46886e-06
1.98436e-06
-1.93777e-06
-4.90798e-07
-8.83727e-07
-2.04353e-06
4.90034e-07
-2.87507e-06
2.0389e-06
-3.29146e-06
3.67255e-06
-3.45336e-06
5.32052e-06
-3.46538e-06
6.94333e-06
-3.38896e-06
8.51703e-06
-3.26344e-06
1.00282e-05
-3.11336e-06
1.14708e-05
-2.95398e-06
1.28431e-05
-2.79472e-06
1.41465e-05
-2.64121e-06
1.5384e-05
-2.49641e-06
1.65591e-05
-2.36152e-06
1.76756e-05
-2.2364e-06
1.8737e-05
-2.12001e-06
1.97459e-05
-2.01058e-06
2.07039e-05
-1.90578e-06
2.16113e-05
-1.80278e-06
2.24669e-05
-1.69824e-06
2.32676e-05
-1.58832e-06
2.40083e-05
-1.46856e-06
2.46813e-05
-1.33382e-06
2.52763e-05
-1.17802e-06
2.57795e-05
-9.93907e-07
2.6174e-05
-7.72568e-07
2.64399e-05
-5.0303e-07
2.65578e-05
-1.71519e-07
2.65129e-05
2.42523e-07
2.62645e-05
7.5297e-07
2.57582e-05
1.37504e-06
2.49369e-05
2.12366e-06
2.3732e-05
3.01067e-06
2.20665e-05
4.04039e-06
1.9858e-05
5.19893e-06
1.70299e-05
6.44076e-06
1.35361e-05
7.67901e-06
9.39781e-06
8.77545e-06
4.79664e-06
9.63882e-06
3.18485e-07
9.94643e-06
-3.40358e-06
7.76348e-06
3.24795e-06
-1.08619e-06
6.19136e-06
-7.83805e-07
1.68198e-06
-1.03139e-09
-1.27357e-06
1.06624e-06
-3.1108e-06
2.35556e-06
-4.16439e-06
3.77795e-06
-4.71384e-06
5.26793e-06
-4.94334e-06
6.77747e-06
-4.97492e-06
8.27462e-06
-4.88612e-06
9.73843e-06
-4.72725e-06
1.1156e-05
-4.53091e-06
1.25201e-05
-4.3181e-06
1.38276e-05
-4.10225e-06
1.5078e-05
-3.8916e-06
1.62724e-05
-3.69076e-06
1.74126e-05
-3.50176e-06
1.85009e-05
-3.32473e-06
1.95394e-05
-3.15845e-06
2.05294e-05
-3.00058e-06
2.14716e-05
-2.84797e-06
2.23655e-05
-2.69668e-06
2.32092e-05
-2.54201e-06
2.39994e-05
-2.3785e-06
2.47307e-05
-2.19984e-06
2.53956e-05
-1.99872e-06
2.59842e-05
-1.76662e-06
2.64839e-05
-1.49361e-06
2.68793e-05
-1.168e-06
2.71524e-05
-7.76091e-07
2.7283e-05
-3.021e-07
2.72519e-05
2.73614e-07
2.70331e-05
9.71756e-07
2.65955e-05
1.81265e-06
2.5904e-05
2.81516e-06
2.49199e-05
3.99472e-06
2.36019e-05
5.35842e-06
2.19059e-05
6.89496e-06
1.97871e-05
8.55957e-06
1.72101e-05
1.0256e-05
1.41736e-05
1.1812e-05
1.08224e-05
1.29899e-05
7.47297e-06
1.3296e-05
3.96601e-06
1.11573e-05
6.32563e-06
-4.68683e-08
6.23822e-06
5.8236e-07
1.05275e-06
1.51549e-06
-2.2067e-06
2.63272e-06
-4.22803e-06
3.88301e-06
-5.41467e-06
5.21892e-06
-6.04976e-06
6.6019e-06
-6.32631e-06
8.00091e-06
-6.37394e-06
9.39278e-06
-6.27798e-06
1.07608e-05
-6.09523e-06
1.20935e-05
-5.86364e-06
1.33839e-05
-5.60851e-06
1.46281e-05
-5.34646e-06
1.58245e-05
-5.08799e-06
1.6973e-05
-4.83922e-06
1.80742e-05
-4.603e-06
1.91293e-05
-4.3798e-06
2.01391e-05
-4.1683e-06
2.11043e-05
-3.96579e-06
2.20247e-05
-3.76839e-06
2.28993e-05
-3.57124e-06
2.37258e-05
-3.36847e-06
2.45005e-05
-3.1532e-06
2.52181e-05
-2.91748e-06
2.58715e-05
-2.65211e-06
2.64514e-05
-2.3465e-06
2.69462e-05
-1.98846e-06
2.73422e-05
-1.56401e-06
2.76234e-05
-1.05731e-06
2.77721e-05
-4.5074e-07
2.77697e-05
2.75971e-07
2.75967e-05
1.14478e-06
2.7232e-05
2.17735e-06
2.66539e-05
3.39331e-06
2.58407e-05
4.80782e-06
2.47724e-05
6.42676e-06
2.34296e-05
8.23775e-06
2.17935e-05
1.01957e-05
1.98471e-05
1.22024e-05
1.75829e-05
1.40761e-05
1.50538e-05
1.5519e-05
1.23597e-05
1.59902e-05
9.22584e-06
1.44658e-05
9.63744e-06
8.22111e-07
5.41611e-06
1.69056e-06
1.84301e-07
2.77012e-06
-3.28625e-06
3.94596e-06
-5.40388e-06
5.18426e-06
-6.65298e-06
6.46437e-06
-7.32986e-06
7.76883e-06
-7.63078e-06
9.08107e-06
-7.68617e-06
1.03863e-05
-7.5832e-06
1.16723e-05
-7.38128e-06
1.29301e-05
-7.12138e-06
1.41533e-05
-6.83167e-06
1.5338e-05
-6.53116e-06
1.64821e-05
-6.23217e-06
1.75849e-05
-5.94203e-06
1.86463e-05
-5.66436e-06
1.96665e-05
-5.39995e-06
2.06456e-05
-5.14743e-06
2.15836e-05
-4.90376e-06
2.24797e-05
-4.66452e-06
2.33325e-05
-4.42403e-06
2.41394e-05
-4.17542e-06
2.48968e-05
-3.9106e-06
2.55995e-05
-3.62018e-06
2.62408e-05
-3.29338e-06
2.68121e-05
-2.91785e-06
2.73032e-05
-2.47953e-06
2.77018e-05
-1.96262e-06
2.79941e-05
-1.3496e-06
2.81649e-05
-6.21499e-07
2.81985e-05
2.4234e-07
2.80797e-05
1.26356e-06
2.77939e-05
2.46311e-06
2.7328e-05
3.85929e-06
2.66707e-05
5.46506e-06
2.58138e-05
7.28366e-06
2.47508e-05
9.30082e-06
2.34746e-05
1.14719e-05
2.19745e-05
1.37025e-05
2.02327e-05
1.5818e-05
1.82315e-05
1.75202e-05
1.59272e-05
1.82945e-05
1.30982e-05
1.72948e-05
1.35315e-05
1.3272e-06
4.08891e-06
2.55102e-06
-1.03952e-06
3.80244e-06
-4.53766e-06
5.05367e-06
-6.6551e-06
6.29968e-06
-7.89899e-06
7.54569e-06
-8.57587e-06
8.79336e-06
-8.87844e-06
1.00385e-05
-8.93133e-06
1.12738e-05
-8.81845e-06
1.24912e-05
-8.59873e-06
1.36841e-05
-8.31428e-06
1.48474e-05
-7.99497e-06
1.59777e-05
-7.66145e-06
1.70729e-05
-7.32738e-06
1.81319e-05
-7.00105e-06
1.91542e-05
-6.68665e-06
2.01395e-05
-6.3852e-06
2.10873e-05
-6.0953e-06
2.19972e-05
-5.81362e-06
2.2868e-05
-5.53528e-06
2.36979e-05
-5.25393e-06
2.44843e-05
-4.96185e-06
2.52236e-05
-4.64992e-06
2.5911e-05
-4.30757e-06
2.65403e-05
-3.92266e-06
2.71039e-05
-3.48141e-06
2.75926e-05
-2.96827e-06
2.7996e-05
-2.36598e-06
2.83021e-05
-1.65576e-06
2.84984e-05
-8.1778e-07
2.85722e-05
1.68562e-07
2.85118e-05
1.32391e-06
2.83075e-05
2.66746e-06
2.79517e-05
4.21508e-06
2.744e-05
5.97671e-06
2.6771e-05
7.95267e-06
2.59445e-05
1.01273e-05
2.4958e-05
1.24584e-05
2.38004e-05
1.48601e-05
2.2441e-05
1.71773e-05
2.0816e-05
1.91452e-05
1.87889e-05
2.03215e-05
1.60703e-05
2.00134e-05
1.7326e-05
1.64134e-06
2.44757e-06
3.20984e-06
-2.60802e-06
4.65388e-06
-5.98171e-06
5.9895e-06
-7.99072e-06
7.25274e-06
-9.16223e-06
8.47768e-06
-9.80082e-06
9.68401e-06
-1.00848e-05
1.08778e-05
-1.01252e-05
1.20575e-05
-9.99811e-06
1.32185e-05
-9.75978e-06
1.43564e-05
-9.45217e-06
1.54675e-05
-9.10604e-06
1.65491e-05
-8.74307e-06
1.75995e-05
-8.3778e-06
1.86177e-05
-8.01917e-06
1.96028e-05
-7.67175e-06
2.05542e-05
-7.33668e-06
2.14714e-05
-7.01245e-06
2.23533e-05
-6.69549e-06
2.31985e-05
-6.38051e-06
2.40052e-05
-6.06062e-06
2.47707e-05
-5.72741e-06
2.54917e-05
-5.37092e-06
2.61637e-05
-4.97958e-06
2.67813e-05
-4.54021e-06
2.73378e-05
-4.03789e-06
2.78254e-05
-3.45589e-06
2.82352e-05
-2.77582e-06
2.85574e-05
-1.97799e-06
2.87817e-05
-1.04207e-06
2.88982e-05
5.21267e-08
2.88982e-05
1.32383e-06
2.87757e-05
2.79e-06
2.85272e-05
4.46354e-06
2.81529e-05
6.35105e-06
2.76556e-05
8.44997e-06
2.70388e-05
1.07442e-05
2.6302e-05
1.31952e-05
2.54326e-05
1.57294e-05
2.43913e-05
1.82187e-05
2.30862e-05
2.04503e-05
2.13258e-05
2.20819e-05
1.87456e-05
2.25937e-05
2.12631e-05
1.8865e-06
5.61071e-07
3.75867e-06
-4.48019e-06
5.37712e-06
-7.60016e-06
6.78532e-06
-9.39892e-06
8.06153e-06
-1.04384e-05
9.26932e-06
-1.10086e-05
1.0444e-05
-1.12594e-05
1.15986e-05
-1.12797e-05
1.27347e-05
-1.11343e-05
1.38502e-05
-1.08753e-05
1.49422e-05
-1.05442e-05
1.60086e-05
-1.01724e-05
1.70475e-05
-9.78201e-06
1.80578e-05
-9.38813e-06
1.90387e-05
-9.00003e-06
1.99894e-05
-8.62241e-06
2.09091e-05
-8.25639e-06
2.17969e-05
-7.90028e-06
2.26517e-05
-7.55027e-06
2.34719e-05
-7.20073e-06
2.42556e-05
-6.84435e-06
2.50004e-05
-6.47216e-06
2.5703e-05
-6.07354e-06
2.63596e-05
-5.63619e-06
2.69655e-05
-5.14613e-06
2.75152e-05
-4.5876e-06
2.80024e-05
-3.94303e-06
2.84197e-05
-3.19316e-06
2.87594e-05
-2.31762e-06
2.90131e-05
-1.29584e-06
2.91735e-05
-1.08233e-07
2.92346e-05
1.26268e-06
2.91931e-05
2.83149e-06
2.90488e-05
4.6079e-06
2.88049e-05
6.59492e-06
2.84679e-05
8.78702e-06
2.8044e-05
1.1168e-05
2.75353e-05
1.3704e-05
2.69307e-05
1.6334e-05
2.61899e-05
1.89595e-05
2.52133e-05
2.14268e-05
2.37887e-05
2.35066e-05
2.15043e-05
2.48781e-05
2.51079e-05
2.13001e-06
-1.56894e-06
4.26099e-06
-6.61117e-06
6.01655e-06
-9.35573e-06
7.46752e-06
-1.08499e-05
8.73958e-06
-1.17105e-05
9.92629e-06
-1.21953e-05
1.10742e-05
-1.24073e-05
1.21985e-05
-1.2404e-05
1.33008e-05
-1.22366e-05
1.43799e-05
-1.19543e-05
1.54342e-05
-1.15985e-05
1.64629e-05
-1.1201e-05
1.74652e-05
-1.07843e-05
1.84405e-05
-1.03635e-05
1.93883e-05
-9.94783e-06
2.0308e-05
-9.54208e-06
2.11987e-05
-9.14711e-06
2.20594e-05
-8.76098e-06
2.28887e-05
-8.37961e-06
2.36851e-05
-7.99709e-06
2.44466e-05
-7.60583e-06
2.51709e-05
-7.19646e-06
2.58552e-05
-6.75788e-06
2.64963e-05
-6.27729e-06
2.70904e-05
-5.74021e-06
2.76331e-05
-5.13037e-06
2.81198e-05
-4.42964e-06
2.85448e-05
-3.61817e-06
2.89022e-05
-2.67504e-06
2.91859e-05
-1.57954e-06
2.93904e-05
-3.12786e-07
2.95124e-05
1.14076e-06
2.95505e-05
2.79335e-06
2.9507e-05
4.65143e-06
2.93878e-05
6.71406e-06
2.92026e-05
8.97223e-06
2.8961e-05
1.14096e-05
2.86688e-05
1.39961e-05
2.83216e-05
1.66813e-05
2.78889e-05
1.93923e-05
2.72863e-05
2.20294e-05
2.63246e-05
2.44682e-05
2.46152e-05
2.65875e-05
2.83449e-05
2.39333e-06
-3.96227e-06
4.76263e-06
-8.98046e-06
6.60905e-06
-1.12022e-05
8.05637e-06
-1.22972e-05
9.29621e-06
-1.29503e-05
1.04524e-05
-1.33515e-05
1.15753e-05
-1.35302e-05
1.26753e-05
-1.3504e-05
1.37511e-05
-1.33124e-05
1.48007e-05
-1.3004e-05
1.58241e-05
-1.26219e-05
1.68214e-05
-1.21983e-05
1.77928e-05
-1.17558e-05
1.87384e-05
-1.13091e-05
1.96579e-05
-1.08673e-05
2.05507e-05
-1.04349e-05
2.14161e-05
-1.00124e-05
2.22526e-05
-9.59752e-06
2.30588e-05
-9.18586e-06
2.38331e-05
-8.77137e-06
2.45736e-05
-8.34627e-06
2.52781e-05
-7.90098e-06
2.59443e-05
-7.42411e-06
2.65696e-05
-6.90262e-06
2.71512e-05
-6.32182e-06
2.76862e-05
-5.66532e-06
2.81714e-05
-4.9148e-06
2.86032e-05
-4.05e-06
2.89777e-05
-3.04957e-06
2.92908e-05
-1.8926e-06
2.95389e-05
-5.60888e-07
2.97207e-05
9.58961e-07
2.98368e-05
2.67722e-06
2.98911e-05
4.59714e-06
2.98918e-05
6.71339e-06
2.98517e-05
9.01229e-06
2.97843e-05
1.1477e-05
2.97008e-05
1.40797e-05
2.96075e-05
1.67746e-05
2.94943e-05
1.95055e-05
2.93146e-05
2.22091e-05
2.89503e-05
2.48325e-05
2.81376e-05
2.74001e-05
3.02755e-05
2.76421e-06
-6.72648e-06
5.42974e-06
-1.1646e-05
7.32638e-06
-1.30988e-05
8.72344e-06
-1.36943e-05
9.91529e-06
-1.41422e-05
1.10495e-05
-1.44858e-05
1.21666e-05
-1.46473e-05
1.32647e-05
-1.46021e-05
1.43364e-05
-1.43841e-05
1.53791e-05
-1.40467e-05
1.63939e-05
-1.36367e-05
1.73824e-05
-1.31868e-05
1.83453e-05
-1.27187e-05
1.9283e-05
-1.22467e-05
2.01952e-05
-1.17795e-05
2.10814e-05
-1.13212e-05
2.19406e-05
-1.08716e-05
2.27713e-05
-1.04281e-05
2.35715e-05
-9.98609e-06
2.43395e-05
-9.53938e-06
2.50734e-05
-9.08017e-06
2.57713e-05
-8.59884e-06
2.64311e-05
-8.08396e-06
2.7051e-05
-7.52248e-06
2.7629e-05
-6.8999e-06
2.81639e-05
-6.20016e-06
2.86542e-05
-5.40517e-06
2.90988e-05
-4.49451e-06
2.94956e-05
-3.44646e-06
2.98428e-05
-2.23973e-06
3.01386e-05
-8.56674e-07
3.0384e-05
7.13539e-07
3.05809e-05
2.48032e-06
3.07342e-05
4.44384e-06
3.08538e-05
6.59379e-06
3.09564e-05
8.90968e-06
3.10592e-05
1.13741e-05
3.11789e-05
1.39601e-05
3.13353e-05
1.66182e-05
3.1544e-05
1.92967e-05
3.181e-05
2.19431e-05
3.21251e-05
2.45174e-05
3.24786e-05
2.70467e-05
2.97931e-05
3.32028e-06
-1.00468e-05
6.24296e-06
-1.45685e-05
8.00358e-06
-1.48592e-05
9.24016e-06
-1.49307e-05
1.03439e-05
-1.52458e-05
1.14415e-05
-1.55833e-05
1.25419e-05
-1.57477e-05
1.36265e-05
-1.56867e-05
1.4683e-05
-1.54405e-05
1.57097e-05
-1.50734e-05
1.67093e-05
-1.46363e-05
1.76841e-05
-1.41615e-05
1.8635e-05
-1.36696e-05
1.95621e-05
-1.31738e-05
2.04648e-05
-1.26822e-05
2.13422e-05
-1.21986e-05
2.2193e-05
-1.17224e-05
2.30151e-05
-1.12502e-05
2.38063e-05
-1.07773e-05
2.45644e-05
-1.02975e-05
2.52875e-05
-9.80325e-06
2.59737e-05
-9.28505e-06
2.66214e-05
-8.73164e-06
2.72292e-05
-8.13033e-06
2.77966e-05
-7.46726e-06
2.83237e-05
-6.72726e-06
2.88116e-05
-5.89307e-06
2.92615e-05
-4.94445e-06
2.96746e-05
-3.85951e-06
3.0051e-05
-2.61614e-06
3.0391e-05
-1.19665e-06
3.07e-05
4.045e-07
3.09783e-05
2.20206e-06
3.12322e-05
4.18991e-06
3.14718e-05
6.35422e-06
3.17177e-05
8.6638e-06
3.19896e-05
1.11022e-05
3.23064e-05
1.36433e-05
3.27001e-05
1.62245e-05
3.32073e-05
1.87895e-05
3.38711e-05
2.12793e-05
3.47546e-05
2.36339e-05
3.59862e-05
2.58151e-05
2.78403e-05
4.59481e-06
-1.21613e-05
7.01009e-06
-1.29543e-05
8.32706e-06
-1.24912e-05
9.46245e-06
-1.31524e-05
1.05979e-05
-1.45594e-05
1.16846e-05
-1.61176e-05
1.27598e-05
-1.68219e-05
1.38181e-05
-1.67441e-05
1.48503e-05
-1.64719e-05
1.58575e-05
-1.608e-05
1.68432e-05
-1.56213e-05
1.78085e-05
-1.51264e-05
1.87535e-05
-1.4614e-05
1.9677e-05
-1.40969e-05
2.05779e-05
-1.35828e-05
2.14548e-05
-1.30751e-05
2.23053e-05
-1.25727e-05
2.3127e-05
-1.20716e-05
2.39169e-05
-1.1567e-05
2.46727e-05
-1.10531e-05
2.5392e-05
-1.05224e-05
2.60727e-05
-9.96562e-06
2.67131e-05
-9.37202e-06
2.73124e-05
-8.72953e-06
2.78705e-05
-8.02535e-06
2.83892e-05
-7.24593e-06
2.88718e-05
-6.37566e-06
2.93224e-05
-5.39499e-06
2.97464e-05
-4.2835e-06
3.01483e-05
-3.01808e-06
3.05288e-05
-1.57712e-06
3.09039e-05
2.942e-08
3.12656e-05
1.84034e-06
3.16244e-05
3.83106e-06
3.19869e-05
5.99174e-06
3.23786e-05
8.27213e-06
3.28192e-05
1.06615e-05
3.33237e-05
1.31388e-05
3.39334e-05
1.56147e-05
3.46959e-05
1.80271e-05
3.56696e-05
2.03056e-05
3.69377e-05
2.23658e-05
3.86329e-05
2.41199e-05
2.54689e-05
2.85338e-06
3.14776e-16
2.60515e-06
1.09226e-16
3.1803e-06
4.60559e-17
4.26177e-06
1.78898e-17
5.76618e-06
7.63923e-14
7.49648e-06
7.71378e-14
8.9639e-06
-4.22396e-06
1.01215e-05
-5.09167e-06
1.11985e-05
-5.65409e-06
1.22332e-05
-6.01182e-06
1.32285e-05
-6.23228e-06
1.41734e-05
-6.33461e-06
1.50711e-05
-6.33892e-06
1.59348e-05
-6.27419e-06
1.67808e-05
-6.17121e-06
1.76248e-05
-6.05779e-06
1.8475e-05
-5.94664e-06
1.93419e-05
-5.8451e-06
2.02439e-05
-5.76446e-06
2.11984e-05
-5.71541e-06
2.22148e-05
-5.70407e-06
2.32917e-05
-5.73052e-06
2.4415e-05
-5.78666e-06
2.55593e-05
-5.85779e-06
2.66855e-05
-5.92158e-06
2.77355e-05
-5.94302e-06
2.8622e-05
-5.8605e-06
2.92145e-05
-5.54685e-06
2.96699e-05
-4.73882e-06
3.01036e-05
-3.45185e-06
3.05366e-05
-2.01014e-06
3.09673e-05
-4.01288e-07
3.14259e-05
1.38179e-06
3.18995e-05
3.35744e-06
3.23913e-05
5.49997e-06
3.29357e-05
7.72777e-06
3.35498e-05
1.00474e-05
3.42344e-05
1.24542e-05
3.50409e-05
1.48083e-05
3.6018e-05
1.70499e-05
3.72244e-05
1.90992e-05
3.87395e-05
2.08507e-05
4.06665e-05
2.21929e-05
2.29778e-05
-1.42146e-16
1.10414e-15
-5.08696e-17
3.85255e-16
-2.38007e-17
1.83568e-16
-1.05929e-17
8.57755e-17
-4.97084e-14
5.85766e-13
-5.33975e-14
1.48921e-12
2.19662e-07
3.26976e-12
5.51439e-07
3.70517e-12
8.02281e-07
2.63613e-12
1.04168e-06
1.37006e-12
1.27142e-06
5.76441e-13
1.48046e-06
3.18435e-13
1.66712e-06
6.27282e-13
1.83917e-06
1.54826e-12
2.00954e-06
2.97513e-12
2.19305e-06
4.663e-12
2.39959e-06
6.25171e-12
2.64331e-06
7.90295e-12
2.94997e-06
1.01293e-11
3.3526e-06
1.26703e-11
3.8906e-06
1.45426e-11
4.61245e-06
1.50217e-11
5.57987e-06
1.39905e-11
6.88231e-06
1.16419e-11
8.65456e-06
8.67901e-12
1.10876e-05
5.57993e-12
1.43497e-05
2.82583e-12
1.83128e-05
8.17589e-13
2.22628e-05
-1.23082e-06
2.56509e-05
-1.32326e-06
2.85583e-05
-1.18614e-06
3.05538e-05
-6.21916e-07
3.13833e-05
6.79237e-07
3.20542e-05
2.68658e-06
3.26918e-05
4.86235e-06
3.34022e-05
7.01739e-06
3.42019e-05
9.24767e-06
3.5061e-05
1.15951e-05
3.60531e-05
1.38162e-05
3.7217e-05
1.5886e-05
3.86021e-05
1.77142e-05
4.02773e-05
1.91754e-05
4.23135e-05
2.01567e-05
2.04971e-05
-3.67247e-17
9.72146e-16
-9.6788e-17
4.8998e-16
-6.52603e-17
1.82191e-16
-3.85763e-17
8.96048e-17
-3.28538e-13
8.23976e-13
-9.76984e-13
2.13237e-12
-2.31985e-12
4.23684e-12
-2.80263e-12
4.67547e-12
-2.14247e-12
3.33376e-12
-1.2046e-12
1.77844e-12
-5.50344e-13
7.77595e-13
-3.30586e-13
5.24326e-13
-7.08072e-13
1.29608e-12
-1.89844e-12
3.36418e-12
-3.95701e-12
6.61845e-12
-6.71615e-12
1.04391e-11
-9.7364e-12
1.4163e-11
-1.32945e-11
1.81035e-11
-1.83967e-11
2.30352e-11
-2.48514e-11
2.87478e-11
-3.08438e-11
3.39041e-11
-3.45391e-11
3.69192e-11
-3.50219e-11
3.69211e-11
-3.19353e-11
3.39979e-11
-2.6337e-11
2.89588e-11
-1.89853e-11
2.28652e-11
-1.09924e-11
1.67051e-11
-3.74985e-12
1.12112e-11
6.39719e-07
6.76469e-12
2.79125e-06
3.56683e-12
6.65456e-06
1.50387e-12
1.40008e-05
3.81768e-13
2.37497e-05
1.43555e-08
3.06433e-05
8.74743e-07
3.27325e-05
3.07969e-06
3.38074e-05
5.94252e-06
3.48268e-05
8.22825e-06
3.58556e-05
1.05662e-05
3.70349e-05
1.2637e-05
3.837e-05
1.45508e-05
3.98996e-05
1.61846e-05
4.16853e-05
1.73897e-05
4.37634e-05
1.80786e-05
1.80855e-05
1.15528e-16
4.88686e-16
-7.74413e-18
3.64826e-16
-3.67978e-17
1.0617e-16
-2.78739e-17
5.18403e-17
-3.41943e-13
4.09169e-13
-1.10231e-12
1.07741e-12
-2.6707e-12
1.14566e-12
-3.39879e-12
8.38887e-13
-2.71232e-12
4.92942e-13
-1.60209e-12
2.48809e-13
-7.71741e-13
1.13028e-13
-5.7126e-13
3.07517e-13
-1.54521e-12
1.37875e-12
-4.37615e-12
3.82245e-12
-9.36954e-12
7.61387e-12
-1.60489e-11
1.21266e-11
-2.36062e-11
1.6561e-11
-3.26758e-11
2.08856e-11
-4.50049e-11
2.5579e-11
-6.08202e-11
3.05928e-11
-7.77757e-11
3.50119e-11
-9.20453e-11
3.7667e-11
-1.00388e-10
3.78381e-11
-1.01291e-10
3.54998e-11
-9.51239e-11
3.11664e-11
-8.34349e-11
2.55577e-11
-6.81869e-11
1.9308e-11
-5.15533e-11
1.3025e-11
-3.63445e-11
8.25056e-12
-2.43709e-11
5.71017e-12
-1.50191e-11
3.51311e-12
-7.57888e-12
1.59708e-12
1.40758e-07
3.36488e-13
2.01847e-06
1.09166e-09
1.08744e-05
3.81034e-08
2.93044e-05
6.36717e-07
3.4848e-05
5.11025e-06
3.66621e-05
8.75222e-06
3.8101e-05
1.11981e-05
3.96018e-05
1.305e-05
4.12544e-05
1.4532e-05
4.31266e-05
1.55175e-05
4.52146e-05
1.59906e-05
1.57469e-05
3.75291e-17
1.68531e-16
-3.35944e-18
1.43005e-16
-1.49776e-17
4.15672e-17
-1.28821e-17
2.05567e-17
-1.44244e-13
1.10669e-17
-4.97847e-13
7.29634e-18
-6.62859e-13
2.94981e-17
-5.77709e-13
8.27838e-17
-3.90205e-13
1.83803e-16
-2.22027e-13
4.81127e-16
-1.12439e-13
1.47846e-15
-3.38507e-13
1.97635e-13
-1.66999e-12
1.02089e-12
-5.07188e-12
2.85943e-12
-1.10283e-11
5.73136e-12
-1.91225e-11
9.20593e-12
-2.83759e-11
1.26404e-11
-3.88363e-11
1.56132e-11
-5.16004e-11
1.80231e-11
-6.69961e-11
1.9845e-11
-8.33853e-11
2.09442e-11
-9.78668e-11
2.11317e-11
-1.0777e-10
2.0321e-11
-1.11642e-10
1.86084e-11
-1.09447e-10
1.6223e-11
-1.0217e-10
1.34138e-11
-9.12956e-11
1.03809e-11
-7.84293e-11
7.36594e-12
-6.47919e-11
5.02456e-12
-5.10627e-11
3.57653e-12
-3.82867e-11
2.23228e-12
-2.69604e-11
8.24225e-13
-1.75603e-11
-1.96522e-13
1.04953e-09
2.45675e-11
3.91166e-08
3.89706e-11
1.47113e-06
2.67601e-09
7.21506e-06
1.70971e-08
2.18996e-05
2.7789e-07
3.71952e-05
4.4299e-06
4.08499e-05
9.39521e-06
4.28412e-05
1.25407e-05
4.48078e-05
1.3551e-05
4.68861e-05
1.39123e-05
1.34667e-05
5.69904e-18
4.54365e-17
-4.74178e-18
3.87548e-17
-5.41586e-18
1.37821e-17
-4.65894e-18
7.33062e-18
-3.60416e-18
4.71434e-18
-3.14701e-18
4.24607e-18
-1.60014e-17
2.08639e-17
-5.4065e-17
5.89828e-17
-1.39883e-16
1.31013e-16
-4.17601e-16
3.30903e-16
-1.44304e-15
9.81473e-16
-2.14802e-13
9.8409e-14
-1.22659e-12
5.03088e-13
-3.77673e-12
1.40915e-12
-8.28619e-12
2.84014e-12
-1.45226e-11
4.60257e-12
-2.17099e-11
6.36511e-12
-2.91578e-11
7.79326e-12
-3.65896e-11
8.65961e-12
-4.38393e-11
8.89133e-12
-5.04664e-11
8.55637e-12
-5.57704e-11
7.81059e-12
-5.91284e-11
6.83397e-12
-6.03052e-11
5.77968e-12
-5.95037e-11
4.74845e-12
-5.7181e-11
3.78801e-12
-5.38154e-11
2.91184e-12
-4.97493e-11
2.1348e-12
-4.50103e-11
1.52545e-12
-3.96132e-11
1.08496e-12
-3.39617e-11
6.57726e-13
-2.83444e-11
1.76267e-13
-2.26453e-11
-6.7552e-13
-4.55746e-12
-3.16137e-13
3.30654e-11
1.34666e-12
2.69484e-09
1.70037e-11
1.97197e-08
6.86178e-11
2.97308e-07
3.54671e-10
6.50211e-06
2.30625e-08
1.98654e-05
1.32132e-07
4.01655e-05
2.20763e-06
4.63589e-05
8.63038e-06
4.89805e-05
1.12907e-05
1.11871e-05
4.69287e-19
2.17044e-17
-2.03907e-18
1.55544e-17
-1.85805e-18
5.97107e-18
-1.62312e-18
3.14675e-18
-1.47548e-18
2.27037e-18
-1.74521e-18
2.69071e-18
-1.07364e-17
1.20535e-17
-3.66068e-17
3.3063e-17
-9.52936e-17
7.17775e-17
-2.76278e-16
1.7127e-16
-9.26769e-16
4.79652e-16
-1.03956e-13
2.96505e-14
-5.89673e-13
1.5019e-13
-1.82109e-12
4.21483e-13
-4.02739e-12
8.55122e-13
-7.13588e-12
1.39973e-12
-1.07636e-11
1.96153e-12
-1.43547e-11
2.44215e-12
-1.73711e-11
2.77099e-12
-1.94479e-11
2.92003e-12
-2.04645e-11
2.9008e-12
-2.0527e-11
2.75056e-12
-1.98875e-11
2.5157e-12
-1.88436e-11
2.2383e-12
-1.76563e-11
1.94828e-12
-1.6506e-11
1.66163e-12
-1.54859e-11
1.38393e-12
-1.46138e-11
1.11896e-12
-1.3832e-11
8.8037e-13
-1.30676e-11
6.63755e-13
-1.23197e-11
4.2031e-13
-1.16141e-11
1.20896e-13
-1.1086e-11
-3.03755e-13
-1.02744e-11
-6.70837e-13
-4.13164e-12
-4.07438e-13
1.18709e-11
9.27884e-13
7.49182e-11
5.56661e-12
4.27434e-10
2.37597e-12
2.33509e-08
1.63243e-10
1.55195e-07
3.47904e-10
3.62207e-06
1.30521e-08
1.43677e-05
3.53143e-08
3.49259e-05
1.11719e-07
4.57072e-06
-1.61979e-19
7.9841e-18
-1.09264e-18
4.40226e-18
-8.59928e-19
1.82744e-18
-7.01487e-19
1.04461e-18
-6.97037e-19
1.0073e-18
-1.06841e-18
1.73725e-18
-5.9378e-18
6.17753e-18
-1.95762e-17
1.56165e-17
-4.98335e-17
3.20751e-17
-1.36824e-16
6.91968e-17
-4.34642e-16
1.73485e-16
-3.01434e-14
4.32949e-15
-1.69845e-13
2.1283e-14
-5.26688e-13
5.97529e-14
-1.17473e-12
1.22538e-13
-2.10587e-12
2.04344e-13
-3.22356e-12
2.94238e-13
-4.37774e-12
3.80429e-13
-5.41735e-12
4.54434e-13
-6.2341e-12
5.1295e-13
-6.78331e-12
5.57291e-13
-7.08132e-12
5.91282e-13
-7.18742e-12
6.18723e-13
-7.18069e-12
6.41317e-13
-7.13921e-12
6.5756e-13
-7.12579e-12
6.6283e-13
-7.1804e-12
6.50822e-13
-7.3167e-12
6.16336e-13
-7.51778e-12
5.58227e-13
-7.7495e-12
4.72061e-13
-7.9897e-12
3.40612e-13
-8.23297e-12
1.51229e-13
-8.5324e-12
-1.15428e-13
-8.92568e-12
-4.41474e-13
-9.00039e-12
-7.28967e-13
-6.46759e-12
-6.79056e-13
-1.50824e-13
-1.73519e-14
2.06379e-12
1.48431e-13
1.58402e-10
6.92142e-12
5.04238e-10
2.34167e-12
1.34787e-08
1.02904e-10
4.8602e-08
2.22575e-10
9.10927e-07
2.338e-09
7.41153e-06
2.03978e-08
2.72387e-08
-1.81925e-19
2.02906e-18
-3.72144e-19
8.22927e-19
-2.80011e-19
3.81625e-19
-2.36189e-19
3.03557e-19
-3.05739e-19
5.10085e-19
-6.70907e-19
1.22572e-18
-2.92853e-18
3.35476e-18
-8.84571e-18
7.38935e-18
-2.12528e-17
1.38269e-17
-5.27421e-17
2.54662e-17
-1.50108e-16
5.16924e-17
-4.20808e-15
1.21828e-16
-2.30433e-14
3.24105e-16
-7.1588e-14
8.80536e-16
-1.61606e-13
2.2473e-15
-2.95497e-13
5.20765e-15
-4.65285e-13
1.09112e-14
-6.56859e-13
2.08167e-14
-8.56556e-13
3.65131e-14
-1.05676e-12
5.94279e-14
-1.25853e-12
9.04599e-14
-1.47098e-12
1.29599e-13
-1.70847e-12
1.75603e-13
-1.98698e-12
2.25794e-13
-2.32073e-12
2.76062e-13
-2.71973e-12
3.21131e-13
-3.18818e-12
3.55199e-13
-3.72311e-12
3.72875e-13
-4.31252e-12
3.69895e-13
-4.93823e-12
3.41092e-13
-5.58524e-12
2.77863e-13
-6.24712e-12
1.73354e-13
-6.94427e-12
2.99407e-14
-7.73541e-12
-2.10656e-13
-8.72617e-12
-4.9563e-13
-9.78251e-12
-7.85007e-13
-1.0137e-11
-9.78221e-13
-6.12102e-12
-7.08582e-13
7.18126e-13
8.25242e-14
2.78945e-12
2.50434e-13
9.69844e-11
8.85303e-12
3.18505e-10
1.26893e-12
2.6538e-09
1.21667e-11
2.29906e-08
7.40883e-11
-1.54672e-11
-7.30019e-20
2.89383e-19
-7.85719e-20
9.70311e-20
-6.11533e-20
6.6435e-20
-6.92461e-20
1.19488e-19
-1.5287e-19
3.32879e-19
-4.60592e-19
9.27291e-19
-1.53187e-18
2.19515e-18
-4.00539e-18
4.32449e-18
-8.73461e-18
7.48362e-18
-1.84724e-17
1.21545e-17
-4.25406e-17
1.96662e-17
-1.12638e-16
3.59766e-17
-3.33976e-16
8.87648e-17
-1.00474e-15
2.67829e-16
-2.82497e-15
7.87237e-16
-7.18344e-15
2.05095e-15
-1.64704e-14
4.69211e-15
-3.43312e-14
9.55661e-15
-6.57694e-14
1.76147e-14
-1.17033e-13
2.98039e-14
-1.95277e-13
4.68248e-14
-3.08043e-13
6.89254e-14
-4.62665e-13
9.57124e-14
-6.657e-13
1.26026e-13
-9.22464e-13
1.57909e-13
-1.23668e-12
1.88705e-13
-1.61019e-12
2.15283e-13
-2.04246e-12
2.34342e-13
-2.53011e-12
2.42592e-13
-3.06751e-12
2.36268e-13
-3.6494e-12
2.10666e-13
-4.27242e-12
1.61798e-13
-4.93786e-12
8.90085e-14
-5.70582e-12
-7.66521e-15
-6.62901e-12
-1.95142e-13
-7.86113e-12
-4.14104e-13
-9.47184e-12
-6.7202e-13
-1.06627e-11
-9.39031e-13
-1.08976e-11
-1.11308e-12
-8.73079e-12
-9.49672e-13
1.11643e-13
9.34683e-15
1.25091e-12
1.30888e-13
1.20605e-11
8.18714e-13
8.34857e-11
2.70085e-12
-1.71692e-14
-1.36699e-20
1.61374e-20
-1.00208e-20
1.16956e-20
-1.09102e-20
2.22324e-20
-2.71923e-20
7.56144e-20
-9.78475e-20
2.47945e-19
-3.37685e-19
7.1526e-19
-9.62967e-19
1.62554e-18
-2.2383e-18
3.08317e-18
-4.49612e-18
5.22943e-18
-8.36472e-18
8.35811e-18
-1.5335e-17
1.30289e-17
-3.14991e-17
2.14964e-17
-8.66104e-17
4.54719e-17
-2.89435e-16
1.25919e-16
-9.37551e-16
3.65134e-16
-2.68137e-15
9.62512e-16
-6.71533e-15
2.23877e-15
-1.49475e-14
4.63305e-15
-3.00941e-14
8.66354e-15
-5.56599e-14
1.48525e-14
-9.57975e-14
2.3626e-14
-1.55069e-13
3.52069e-14
-2.38156e-13
4.95179e-14
-3.49582e-13
6.6116e-14
-4.93479e-13
8.41687e-14
-6.73421e-13
1.02481e-13
-8.92292e-13
1.19569e-13
-1.15216e-12
1.33754e-13
-1.4542e-12
1.4322e-13
-1.79886e-12
1.45923e-13
-2.18648e-12
1.39566e-13
-2.61723e-12
1.22098e-13
-3.09086e-12
9.25284e-14
-3.60926e-12
5.12947e-14
-4.24299e-12
-2.26587e-16
-5.02025e-12
-1.15573e-13
-6.07211e-12
-2.54284e-13
-7.51125e-12
-4.35969e-13
-9.25451e-12
-6.55056e-13
-1.05238e-11
-8.23786e-13
-9.98269e-12
-8.09262e-13
-7.78916e-12
-5.91009e-13
-2.53626e-12
-1.75646e-13
1.49658e-13
1.31258e-14
1.26147e-14
-9.1141e-22
1.79529e-21
-1.264e-21
3.51676e-21
-3.66777e-21
1.35809e-20
-1.69363e-20
5.5472e-20
-7.08056e-20
1.88631e-19
-2.50703e-19
5.46997e-19
-6.81589e-19
1.22966e-18
-1.5175e-18
2.3149e-18
-2.97678e-18
3.94751e-18
-5.43651e-18
6.44026e-18
-9.58717e-18
1.03616e-17
-1.77448e-17
1.71832e-17
-4.18126e-17
3.2832e-17
-1.28221e-16
7.69302e-17
-4.09764e-16
1.98011e-16
-1.1859e-15
4.90797e-16
-3.01991e-15
1.10843e-15
-6.82993e-15
2.26225e-15
-1.39474e-14
4.20477e-15
-2.61237e-14
7.19603e-15
-4.54777e-14
1.14584e-14
-7.43971e-14
1.71277e-14
-1.15413e-13
2.421e-14
-1.71077e-13
3.25511e-14
-2.43859e-13
4.18244e-14
-3.3608e-13
5.15389e-14
-4.49882e-13
6.10631e-14
-5.87207e-13
6.96571e-14
-7.49823e-13
7.64947e-14
-9.39405e-13
8.06616e-14
-1.15765e-12
8.11787e-14
-1.40609e-12
7.71495e-14
-1.6857e-12
6.7987e-14
-1.99652e-12
5.3556e-14
-2.33812e-12
3.41567e-14
-2.75641e-12
1.05779e-14
-3.27307e-12
-3.55422e-14
-3.94884e-12
-1.05661e-13
-4.86666e-12
-1.90631e-13
-5.97645e-12
-2.82748e-13
-6.95146e-12
-3.55677e-13
-7.3142e-12
-3.62623e-13
-6.60697e-12
-2.95237e-13
-5.16897e-12
-1.79901e-13
-7.29817e-14
-1.13809e-22
-3.88705e-22
-3.86932e-22
1.65736e-21
-2.20899e-21
9.55245e-21
-1.2059e-20
4.13437e-20
-5.17749e-20
1.41925e-19
-1.83006e-19
4.10121e-19
-4.89575e-19
9.12284e-19
-1.07754e-18
1.71184e-18
-2.11879e-18
2.95387e-18
-3.94142e-18
4.95129e-18
-7.16311e-18
8.25161e-18
-1.33132e-17
1.39306e-17
-2.83193e-17
2.5181e-17
-7.34601e-17
5.14661e-17
-2.0835e-16
1.15354e-16
-5.66937e-16
2.60238e-16
-1.40166e-15
5.55742e-16
-3.12575e-15
1.09761e-15
-6.34205e-15
2.00021e-15
-1.18493e-14
3.38198e-15
-2.06234e-14
5.34616e-15
-3.37771e-14
7.96022e-15
-5.25092e-14
1.12381e-14
-7.80531e-14
1.51278e-14
-1.11637e-13
1.95069e-14
-1.54459e-13
2.41859e-14
-2.07686e-13
2.89168e-14
-2.7246e-13
3.34061e-14
-3.49928e-13
3.73251e-14
-4.41285e-13
4.03183e-14
-5.47803e-13
4.2019e-14
-6.70778e-13
4.20914e-14
-8.11362e-13
4.029e-14
-9.7038e-13
3.65025e-14
-1.14822e-12
3.0762e-14
-1.34475e-12
2.32608e-14
-1.5754e-12
1.43079e-14
-1.86879e-12
4.23717e-15
-2.24196e-12
-1.59351e-14
-2.71413e-12
-4.34745e-14
-3.27113e-12
-6.90666e-14
-3.80858e-12
-8.37189e-14
-4.1584e-12
-8.08172e-14
-4.18452e-12
-5.49373e-14
-1.54476e-14
2.63036e-23
4.7579e-23
-1.81183e-22
1.1887e-21
-1.5057e-21
6.95681e-21
-8.60592e-21
3.04354e-20
-3.70359e-20
1.04428e-19
-1.29812e-19
2.99362e-19
-3.42352e-19
6.57378e-19
-7.48895e-19
1.23203e-18
-1.48678e-18
2.16464e-18
-2.8368e-18
3.75277e-18
-5.33391e-18
6.4975e-18
-1.00835e-17
1.12337e-17
-2.02803e-17
1.98177e-17
-4.5871e-17
3.69184e-17
-1.13266e-16
7.29245e-17
-2.80473e-16
1.47149e-16
-6.55556e-16
2.8996e-16
-1.41425e-15
5.42539e-16
-2.81188e-15
9.53584e-16
-5.18605e-15
1.57321e-15
-8.94893e-15
2.44509e-15
-1.4571e-14
3.59828e-15
-2.25604e-14
5.04035e-15
-3.34424e-14
6.75291e-15
-4.77441e-14
8.69022e-15
-6.59859e-14
1.07808e-14
-8.86828e-14
1.29316e-14
-1.16353e-13
1.5033e-14
-1.49532e-13
1.69647e-14
-1.88797e-13
1.86006e-14
-2.34773e-13
1.98163e-14
-2.88132e-13
2.05011e-14
-3.49542e-13
2.05729e-14
-4.19614e-13
1.99899e-14
-4.98835e-13
1.87556e-14
-5.87505e-13
1.69222e-14
-6.85708e-13
1.45856e-14
-7.9339e-13
1.18776e-14
-9.23007e-13
9.02461e-15
-1.08968e-12
6.36984e-15
-1.3004e-12
4.33227e-15
-1.54636e-12
3.45961e-15
-1.79801e-12
4.17194e-15
-2.00627e-12
7.199e-15
1.29564e-14
-3.29406e-24
1.36414e-22
-1.26319e-22
8.66042e-22
-1.04606e-21
4.98114e-21
-5.99017e-21
2.18416e-20