/*--------------------------------*- C++ -*----------------------------------*\
| =========                 |                                                 |
| \\      /  F ield         | OpenFOAM: The Open Source CFD Toolbox           |
|  \\    /   O peration     | Version:  5.0                                   |
|   \\  /    A nd           | Web:      www.OpenFOAM.org                      |
|    \\/     M anipulation  |                                                 |
\*---------------------------------------------------------------------------*/
FoamFile
{
    version     2.0;
    format      ascii;
    class       volScalarField;
    location    "0.5";
    object      epsilon;
}
// * * * * * * * * * * * * * * * * * * * * * * * * * * * * * * * * * * * * * //

dimensions      [0 2 -3 0 0 0 0];

internalField   nonuniform List<scalar> 
1935
(
0.025269
0.0660256
0.119171
0.187105
0.25519
0.319677
0.384984
0.447354
0.507574
0.566258
0.623795
0.680518
0.736673
0.792403
0.847747
0.902645
0.956946
1.01042
1.06276
1.11361
1.16256
1.20913
1.25282
1.29308
1.32933
1.36093
1.38719
1.40732
1.42035
1.42482
1.42353
1.41652
1.40124
1.37617
1.34039
1.29339
1.23516
1.16639
1.0883
1.00114
0.897206
0.794197
0.704675
0.608928
0.0421751
0.0485661
0.0701216
0.096322
0.123259
0.148905
0.17309
0.196071
0.218295
0.240066
0.261607
0.283085
0.304605
0.326222
0.347941
0.369726
0.391506
0.413183
0.434633
0.455718
0.476285
0.496174
0.515217
0.53325
0.550108
0.565636
0.579692
0.59215
0.602913
0.61203
0.621125
0.630497
0.63999
0.649704
0.659902
0.670972
0.683301
0.69704
0.71152
0.723452
0.722174
0.694453
0.620135
0.522394
0.0550855
0.0496121
0.0661722
0.0855298
0.104374
0.122152
0.138845
0.154629
0.169783
0.184549
0.19912
0.213642
0.228211
0.242884
0.257675
0.272569
0.287524
0.302479
0.317354
0.332062
0.346505
0.360586
0.374206
0.387273
0.399707
0.411442
0.422439
0.432696
0.44227
0.451367
0.460671
0.47073
0.481935
0.494798
0.509988
0.528322
0.550691
0.577831
0.609656
0.64345
0.669608
0.672067
0.640517
0.597215
0.0633592
0.0559757
0.0701002
0.0857172
0.100955
0.115412
0.12905
0.141979
0.154376
0.166422
0.178271
0.190048
0.201841
0.213704
0.225658
0.237699
0.249801
0.261919
0.273998
0.285971
0.297768
0.309321
0.32056
0.331427
0.341875
0.35188
0.361444
0.370615
0.379505
0.388348
0.397611
0.407815
0.419466
0.433174
0.449677
0.469829
0.494522
0.524466
0.559618
0.597819
0.632246
0.65212
0.655285
0.667646
0.0760216
0.0656887
0.0772186
0.0901247
0.102889
0.1152
0.126986
0.138278
0.149168
0.15977
0.170194
0.180538
0.190876
0.201254
0.211697
0.222205
0.232759
0.243328
0.253868
0.264328
0.274655
0.284797
0.294705
0.304339
0.313675
0.322712
0.331476
0.340042
0.348547
0.357227
0.366476
0.376779
0.388649
0.402697
0.419637
0.440257
0.465344
0.495485
0.530639
0.56929
0.607384
0.639976
0.671463
0.732721
0.0910855
0.0777008
0.0863405
0.0967853
0.107485
0.118111
0.128524
0.138672
0.148563
0.158248
0.167793
0.177267
0.186727
0.19621
0.205738
0.215312
0.22492
0.234536
0.244125
0.253648
0.263065
0.272334
0.281422
0.290304
0.29897
0.307436
0.315744
0.323982
0.332299
0.340928
0.350223
0.360635
0.372657
0.386866
0.403922
0.424534
0.449391
0.479014
0.513475
0.552009
0.592929
0.635957
0.69078
0.793542
0.106762
0.0903425
0.0964466
0.104689
0.113617
0.122856
0.132181
0.141452
0.150603
0.159631
0.168566
0.17745
0.186323
0.195215
0.204141
0.213102
0.222087
0.231076
0.240041
0.248951
0.257774
0.266481
0.275049
0.283466
0.291733
0.299876
0.30795
0.31605
0.324326
0.333005
0.342408
0.352958
0.365115
0.379412
0.396452
0.416874
0.441308
0.470275
0.504065
0.542689
0.586411
0.638464
0.712927
0.852375
0.121494
0.102845
0.106795
0.113193
0.12069
0.128842
0.137323
0.145908
0.154478
0.162992
0.171458
0.179899
0.188343
0.19681
0.20531
0.213841
0.222394
0.230951
0.239489
0.247986
0.256416
0.264761
0.273007
0.281152
0.289206
0.297205
0.305208
0.313314
0.321671
0.330492
0.340071
0.350798
0.3631
0.377466
0.394442
0.414617
0.43859
0.466934
0.500207
0.539151
0.585609
0.645516
0.736882
0.910451
0.136083
0.114833
0.116955
0.121951
0.128434
0.13583
0.143699
0.151752
0.159843
0.167924
0.175994
0.184068
0.192166
0.200299
0.208471
0.21668
0.224916
0.233162
0.241401
0.249615
0.257789
0.265911
0.273976
0.281991
0.289975
0.297969
0.306035
0.314272
0.322821
0.331877
0.341708
0.352664
0.365145
0.379594
0.396511
0.416441
0.439972
0.467752
0.500597
0.539879
0.588679
0.655045
0.760776
0.967726
0.147876
0.125866
0.126803
0.130942
0.136873
0.143838
0.151289
0.158914
0.166582
0.174264
0.181968
0.189709
0.197498
0.205343
0.213243
0.221191
0.229177
0.237188
0.24521
0.253232
0.261246
0.269248
0.277241
0.285241
0.293274
0.301384
0.309636
0.318123
0.326974
0.336367
0.346537
0.357796
0.370514
0.385093
0.401987
0.421709
0.444842
0.472092
0.504487
0.543864
0.594158
0.664829
0.780656
1.01619
0.156657
0.136521
0.136826
0.140632
0.146413
0.153168
0.160287
0.167503
0.174745
0.182023
0.189359
0.196771
0.204263
0.211837
0.219486
0.227204
0.234979
0.242802
0.250662
0.258556
0.266482
0.274446
0.28246
0.290547
0.298739
0.307083
0.315644
0.324507
0.333788
0.343639
0.354263
0.365926
0.378973
0.39376
0.410702
0.43028
0.453065
0.479792
0.511615
0.550632
0.601143
0.67285
0.789734
1.01939
0.166605
0.149002
0.148331
0.152076
0.157833
0.164315
0.170982
0.177687
0.184435
0.19127
0.198217
0.205287
0.212477
0.219779
0.227184
0.234685
0.242271
0.249935
0.257675
0.265493
0.273396
0.281399
0.289525
0.297802
0.30627
0.314978
0.323987
0.333375
0.34324
0.353708
0.364939
0.377149
0.390651
0.405763
0.422858
0.442386
0.464891
0.491094
0.522176
0.560278
0.609565
0.67877
0.787489
0.983514
0.192372
0.167494
0.163673
0.16696
0.172137
0.177768
0.183571
0.189525
0.195657
0.201988
0.208515
0.215224
0.222098
0.229121
0.236281
0.24357
0.250981
0.258513
0.266171
0.273963
0.281909
0.290033
0.298366
0.306948
0.315824
0.325044
0.334666
0.344756
0.355392
0.366676
0.378719
0.391669
0.405796
0.421387
0.43878
0.458388
0.480714
0.506409
0.5366
0.573292
0.620164
0.684313
0.779911
0.936083
0.263618
0.200166
0.187131
0.187895
0.190738
0.194245
0.198449
0.203285
0.208627
0.214367
0.220422
0.226735
0.233267
0.239993
0.246897
0.253971
0.261214
0.268633
0.27624
0.284055
0.292108
0.300435
0.309081
0.318093
0.327524
0.337427
0.347853
0.358853
0.370481
0.38283
0.395949
0.409907
0.424868
0.441135
0.459013
0.47887
0.501153
0.526391
0.555594
0.590518
0.634181
0.691948
0.773246
0.894076
0.397323
0.255582
0.222266
0.217128
0.214935
0.21454
0.216092
0.219348
0.223691
0.228728
0.234241
0.240107
0.24626
0.252661
0.259289
0.266137
0.273213
0.280532
0.288117
0.296001
0.304227
0.312845
0.321914
0.331496
0.34165
0.352432
0.363889
0.376052
0.388905
0.402622
0.417166
0.432449
0.448502
0.465638
0.484205
0.504507
0.526926
0.551817
0.580014
0.612946
0.652949
0.703866
0.771587
0.864181
0.538842
0.296408
0.26196
0.247782
0.239871
0.236199
0.235502
0.237195
0.240516
0.244838
0.249804
0.255221
0.260992
0.267067
0.273424
0.280062
0.286995
0.294253
0.301873
0.309902
0.318398
0.32743
0.337074
0.347408
0.358502
0.370413
0.383195
0.396882
0.411197
0.42666
0.443122
0.460171
0.477617
0.495783
0.515217
0.536009
0.55866
0.583406
0.610658
0.641509
0.677652
0.721734
0.77726
0.84803
0.650953
0.330334
0.283944
0.265326
0.25743
0.254256
0.253451
0.254228
0.256452
0.259838
0.264066
0.2689
0.274202
0.279904
0.285978
0.292424
0.299263
0.306532
0.314282
0.322576
0.331491
0.341117
0.351558
0.362927
0.375345
0.388936
0.403825
0.42013
0.437356
0.45532
0.474493
0.494034
0.513437
0.532815
0.553397
0.574408
0.59732
0.622091
0.648085
0.676744
0.709018
0.746558
0.79135
0.845155
0.649078
0.329445
0.289452
0.276028
0.271091
0.269397
0.269003
0.269524
0.271012
0.273459
0.276729
0.280666
0.285157
0.290139
0.295584
0.301495
0.307894
0.314825
0.322351
0.330554
0.339541
0.349444
0.360426
0.372687
0.386465
0.402009
0.419453
0.438531
0.459671
0.481856
0.505647
0.529791
0.553317
0.575928
0.599548
0.620867
0.644812
0.669977
0.693377
0.719454
0.747382
0.778472
0.813862
0.854195
0.615414
0.320731
0.289628
0.282513
0.281241
0.281706
0.282521
0.283454
0.284744
0.286601
0.289085
0.292166
0.295799
0.299955
0.304624
0.309819
0.31557
0.32193
0.328974
0.336803
0.345549
0.355375
0.36649
0.37914
0.3936
0.410116
0.428757
0.449225
0.471739
0.49673
0.524998
0.554762
0.584076
0.6135
0.644072
0.672568
0.700701
0.729816
0.748268
0.771936
0.793973
0.818313
0.844916
0.873555
0.588402
0.316742
0.289891
0.286239
0.287353
0.28943
0.291364
0.293
0.294576
0.296356
0.298501
0.301083
0.30413
0.307658
0.311689
0.316256
0.321405
0.327201
0.333733
0.341115
0.349495
0.359055
0.370014
0.382623
0.39714
0.413762
0.432538
0.453325
0.476365
0.502556
0.532729
0.565789
0.60016
0.63566
0.671421
0.707304
0.74143
0.779624
0.808006
0.835282
0.84972
0.868428
0.886167
0.903337
0.571366
0.318383
0.291478
0.288361
0.290214
0.293044
0.295732
0.298051
0.300129
0.302177
0.30437
0.306822
0.309609
0.312788
0.316412
0.320536
0.325223
0.330554
0.33663
0.343573
0.351539
0.36071
0.371302
0.383547
0.397668
0.413839
0.432137
0.452595
0.475555
0.501893
0.532321
0.566254
0.602516
0.640569
0.679765
0.720016
0.761164
0.802228
0.839366
0.874884
0.903522
0.926731
0.938265
0.94408
0.954772
0.563879
0.323825
0.293959
0.28932
0.290561
0.29333
0.296322
0.299139
0.301744
0.304235
0.306735
0.309351
0.312174
0.315282
0.318745
0.322639
0.327044
0.332051
0.337771
0.344332
0.351889
0.360621
0.370729
0.382424
0.395909
0.411354
0.428888
0.448669
0.471082
0.496835
0.526463
0.559662
0.595611
0.63375
0.673637
0.715033
0.758598
0.803749
0.845948
0.88335
0.918836
0.948931
0.974543
0.987068
0.997576
0.559293
0.330388
0.296415
0.289101
0.288842
0.290934
0.293819
0.296892
0.299935
0.302909
0.305852
0.308829
0.311912
0.31518
0.318709
0.322583
0.326892
0.331737
0.337231
0.343508
0.350718
0.359034
0.368643
0.379741
0.392521
0.407164
0.423842
0.442781
0.46435
0.489081
0.517353
0.549013
0.583501
0.620342
0.65911
0.699594
0.742375
0.787262
0.830989
0.871657
0.909822
0.942549
0.971907
0.993945
1.01291
0.557893
0.337089
0.298206
0.287626
0.285392
0.286425
0.288899
0.291999
0.295337
0.298743
0.302159
0.305588
0.30907
0.312661
0.316432
0.320466
0.324852
0.329694
0.335108
0.341225
0.348193
0.356176
0.365352
0.375909
0.388036
0.401923
0.417773
0.435831
0.456427
0.479955
0.50668
0.536527
0.569117
0.604033
0.64093
0.679496
0.719956
0.762183
0.804387
0.845075
0.883324
0.91782
0.950092
0.976915
0.999624
0.560886
0.343532
0.299019
0.284917
0.28053
0.280324
0.282194
0.285136
0.288618
0.292351
0.296193
0.300083
0.304015
0.30802
0.312148
0.316471
0.321074
0.326055
0.331528
0.33762
0.344474
0.352248
0.361112
0.371247
0.382843
0.396097
0.411222
0.428461
0.448101
0.47044
0.495671
0.52376
0.554447
0.587379
0.622211
0.658671
0.696629
0.735866
0.775383
0.814066
0.850867
0.884938
0.916626
0.944537
0.969793
0.569098
0.349489
0.298765
0.281101
0.274568
0.273079
0.274246
0.276896
0.280378
0.284316
0.288492
0.29279
0.297161
0.301603
0.306142
0.310834
0.31575
0.320982
0.326634
0.332829
0.339702
0.347404
0.356101
0.365969
0.377196
0.38998
0.404535
0.421094
0.439908
0.461211
0.485158
0.511739
0.540776
0.57198
0.605022
0.639583
0.675431
0.712253
0.74934
0.785825
0.820794
0.853497
0.883812
0.91125
0.936363
0.582601
0.354755
0.297485
0.276367
0.267795
0.265056
0.26548
0.267747
0.271113
0.275132
0.279532
0.284152
0.288905
0.293756
0.29871
0.303801
0.309085
0.314641
0.320565
0.326969
0.333983
0.341749
0.350428
0.360191
0.371223
0.383722
0.397896
0.413966
0.432156
0.452667
0.475631
0.501062
0.528839
0.558734
0.59045
0.623656
0.658029
0.6932
0.728621
0.763568
0.797227
0.828877
0.858172
0.884834
0.90905
0.60071
0.35912
0.295266
0.270913
0.260459
0.25654
0.256217
0.258042
0.261197
0.265188
0.269701
0.274543
0.279595
0.284797
0.29013
0.29561
0.301277
0.307195
0.313448
0.320141
0.327393
0.33534
0.344137
0.353949
0.364958
0.377358
0.391352
0.407151
0.424962
0.444968
0.467294
0.491976
0.51894
0.548013
0.578938
0.611396
0.645033
0.679442
0.714105
0.748381
0.781546
0.812908
0.841984
0.868454
0.892258
0.622218
0.362402
0.292209
0.264914
0.252759
0.247746
0.246692
0.248038
0.250911
0.25478
0.259305
0.264266
0.269525
0.274999
0.280651
0.286479
0.292509
0.298792
0.305401
0.312428
0.319986
0.328204
0.337229
0.347223
0.358363
0.370838
0.384848
0.400596
0.418282
0.438079
0.460116
0.484452
0.511052
0.539792
0.570458
0.602759
0.63634
0.670777
0.70556
0.740077
0.773646
0.805579
0.835302
0.862377
0.886557
0.645711
0.364487
0.288419
0.258521
0.244854
0.238838
0.237079
0.237927
0.240466
0.244138
0.248584
0.25357
0.25894
0.264598
0.270493
0.276608
0.282956
0.289577
0.296534
0.30391
0.31181
0.320355
0.329687
0.339964
0.351359
0.364057
0.378257
0.394157
0.411952
0.431818
0.453893
0.478254
0.504904
0.533762
0.564656
0.597329
0.631441
0.666569
0.702201
0.737734
0.772491
0.805769
0.836916
0.86538
0.890748
0.669825
0.365344
0.284008
0.251863
0.236871
0.229947
0.227518
0.227862
0.230029
0.233443
0.237735
0.242658
0.248049
0.253801
0.259853
0.266178
0.272781
0.27969
0.286961
0.29467
0.302913
0.311808
0.321491
0.332116
0.343854
0.356888
0.371415
0.387633
0.405738
0.425911
0.4483
0.473005
0.50006
0.529422
0.560959
0.594447
0.62957
0.665915
0.702969
0.740125
0.776694
0.811945
0.845153
0.875658
0.902911
0.693397
0.365025
0.279098
0.245053
0.228922
0.221184
0.218126
0.21797
0.219741
0.222851
0.226923
0.231708
0.237035
0.242793
0.248915
0.255366
0.262145
0.269274
0.276802
0.2848
0.29336
0.302594
0.312636
0.323636
0.335765
0.349205
0.364153
0.38081
0.399375
0.420037
0.442956
0.468254
0.495992
0.526161
0.558665
0.593313
0.629812
0.667763
0.706654
0.745871
0.784705
0.822385
0.858121
0.891157
0.920819
0.715521
0.363632
0.273808
0.238196
0.221099
0.212643
0.209004
0.20836
0.209721
0.212493
0.216296
0.220876
0.226064
0.231745
0.237849
0.244339
0.251208
0.258478
0.26619
0.274413
0.283237
0.29277
0.303144
0.31451
0.327037
0.340909
0.356325
0.373488
0.392606
0.413875
0.43747
0.463531
0.492145
0.523332
0.557028
0.59307
0.63119
0.671
0.711993
0.753543
0.794919
0.835311
0.873865
0.90974
0.942151
0.735543
0.361296
0.268253
0.23138
0.213484
0.204405
0.200235
0.199126
0.200075
0.202486
0.205979
0.210302
0.215284
0.220813
0.226817
0.23326
0.240133
0.247455
0.255267
0.263637
0.272651
0.28242
0.293073
0.304762
0.317657
0.331944
0.347826
0.365513
0.385217
0.407145
0.431488
0.458402
0.487996
0.520317
0.555325
0.592886
0.632748
0.674538
0.71775
0.761748
0.805778
0.848989
0.890473
0.929311
0.964625
0.753024
0.358149
0.26253
0.224678
0.206139
0.196531
0.191888
0.190342
0.190886
0.192925
0.196081
0.200103
0.204826
0.210138
0.215969
0.222283
0.229075
0.236361
0.244186
0.252614
0.261734
0.271656
0.282512
0.294455
0.307656
0.322306
0.338611
0.356788
0.377058
0.399637
0.424729
0.452508
0.483101
0.516577
0.55292
0.592013
0.633625
0.677389
0.722801
0.769214
0.815851
0.861827
0.906183
0.947933
0.986122
0.7677
0.35431
0.256715
0.218143
0.199108
0.189065
0.184008
0.182061
0.182218
0.183884
0.186686
0.190379
0.1948
0.19984
0.205435
0.21155
0.218181
0.225348
0.233097
0.241494
0.250629
0.260613
0.271582
0.283689
0.297111
0.312042
0.328694
0.347288
0.368055
0.391223
0.417005
0.445591
0.477127
0.511697
0.549304
0.589849
0.63311
0.67873
0.7262
0.774865
0.823927
0.872466
0.919482
0.963935
1.00481
0.779436
0.34988
0.250865
0.211809
0.192417
0.18203
0.176622
0.174316
0.174109
0.175411
0.177856
0.181202
0.185291
0.19002
0.195326
0.201182
0.207584
0.214557
0.222148
0.230426
0.239485
0.249438
0.260421
0.272595
0.286137
0.301247
0.318142
0.337051
0.358212
0.381862
0.408227
0.437509
0.469868
0.505403
0.54413
0.585964
0.63069
0.677953
0.727243
0.777891
0.829079
0.879863
0.929204
0.976022
1.01925
0.788197
0.344938
0.245013
0.205691
0.18607
0.175428
0.169734
0.167115
0.166576
0.167533
0.169625
0.172618
0.176358
0.180748
0.18573
0.191278
0.197395
0.204109
0.21147
0.219552
0.228448
0.238277
0.24918
0.261317
0.274873
0.29005
0.307072
0.326174
0.347601
0.371599
0.398405
0.428231
0.461249
0.49757
0.537221
0.580122
0.626065
0.674695
0.725494
0.777782
0.830723
0.883349
0.934597
0.983354
1.02852
0.794016
0.339547
0.239177
0.199786
0.180058
0.169248
0.163332
0.16045
0.159614
0.160252
0.162007
0.164651
0.168037
0.172073
0.176704
0.181912
0.187702
0.194106
0.201177
0.208993
0.217652
0.227275
0.238005
0.250007
0.26347
0.278601
0.295628
0.314792
0.336345
0.360543
0.387628
0.417825
0.451313
0.488212
0.528557
0.572273
0.619152
0.668835
0.720797
0.774346
0.828629
0.882661
0.935358
0.98559
1.03224
0.796982
0.333753
0.233362
0.194081
0.174358
0.163461
0.157387
0.154293
0.153202
0.15355
0.15499
0.1573
0.160337
0.164014
0.168284
0.173131
0.178564
0.18462
0.191356
0.198852
0.207211
0.216555
0.227032
0.238811
0.252082
0.267058
0.283971
0.303068
0.324608
0.348851
0.376051
0.406437
0.440197
0.477459
0.518261
0.56253
0.610058
0.660478
0.713257
0.767691
0.822913
0.877923
0.931626
0.982887
1.03059
0.797218
0.327594
0.227563
0.188555
0.16894
0.158031
0.151861
0.148606
0.147302
0.147397
0.148549
0.150544
0.153246
0.156572
0.160479
0.164956
0.170017
0.175701
0.182069
0.189205
0.197214
0.206222
0.216379
0.227857
0.240849
0.255573
0.272263
0.291173
0.312567
0.336711
0.363865
0.394267
0.42811
0.465528
0.506561
0.551139
0.599047
0.649915
0.703198
0.75818
0.813984
0.869601
0.923933
0.975849
1.02424
0.794878
0.3211
0.221774
0.183183
0.163768
0.152919
0.14671
0.143343
0.141869
0.141747
0.142643
0.14435
0.146737
0.149726
0.153279
0.157388
0.162071
0.167372
0.173353
0.180102
0.187726
0.196354
0.206138
0.217252
0.229894
0.244282
0.260656
0.279273
0.300402
0.324317
0.351283
0.381543
0.415301
0.452691
0.493759
0.538433
0.586497
0.637572
0.691106
0.74637
0.802482
0.858428
0.913115
0.965429
1.0143
0.790138
0.314301
0.215985
0.177941
0.158808
0.148081
0.141888
0.138454
0.136853
0.136551
0.137225
0.138673
0.140769
0.143442
0.146656
0.150408
0.154719
0.159635
0.165222
0.171569
0.178786
0.187005
0.196378
0.207082
0.219316
0.233301
0.249282
0.267518
0.288283
0.311858
0.338515
0.368504
0.402033
0.439246
0.480192
0.524799
0.572849
0.623958
0.677566
0.732939
0.789187
0.845302
0.900206
0.952812
1.00209
0.783187
0.307228
0.210191
0.172806
0.154026
0.143479
0.137347
0.133892
0.132201
0.131756
0.132241
0.133461
0.135296
0.137677
0.140574
0.143985
0.147937
0.152475
0.157671
0.163613
)
;

boundaryField
{
    leftWall
    {
        Cmu             0.09;
        kappa           0.41;
        E               9.8;
        type            epsilonWallFunction;
        value           nonuniform List<scalar> 
44
(
0.025269
0.0421751
0.0550855
0.0633592
0.0760216
0.0910855
0.106762
0.121494
0.136083
0.147876
0.156657
0.166605
0.192372
0.263618
0.397323
0.538842
0.650953
0.649078
0.615414
0.588402
0.571366
0.563879
0.559293
0.557893
0.560886
0.569098
0.582601
0.60071
0.622218
0.645711
0.669825
0.693397
0.715521
0.735543
0.753024
0.7677
0.779436
0.788197
0.794016
0.796982
0.797218
0.794878
0.790138
0.783187
)
;
    }
    rightWall
    {
        Cmu             0.09;
        kappa           0.41;
        E               9.8;
        type            epsilonWallFunction;
        value           nonuniform 0();
    }
    lowerWall
    {
        Cmu             0.09;
        kappa           0.41;
        E               9.8;
        type            epsilonWallFunction;
        value           nonuniform List<scalar> 
44
(
0.025269
0.0660256
0.119171
0.187105
0.25519
0.319677
0.384984
0.447354
0.507574
0.566258
0.623795
0.680518
0.736673
0.792403
0.847747
0.902645
0.956946
1.01042
1.06276
1.11361
1.16256
1.20913
1.25282
1.29308
1.32933
1.36093
1.38719
1.40732
1.42035
1.42482
1.42353
1.41652
1.40124
1.37617
1.34039
1.29339
1.23516
1.16639
1.0883
1.00114
0.897206
0.794197
0.704675
0.608928
)
;
    }
    atmosphere
    {
        type            inletOutlet;
        inletValue      nonuniform 0();
        value           nonuniform 0();
    }
    defaultFaces
    {
        type            empty;
    }
    procBoundary0to1
    {
        type            processor;
        value           nonuniform List<scalar> 
44
(
0.532028
0.475988
0.604823
0.756648
0.912207
1.05414
1.19623
1.34465
1.51361
1.69236
1.5937
1.39412
1.21246
1.07788
0.989031
0.935295
0.907298
0.898465
0.90415
0.92272
0.92272
0.962321
0.994539
1.02215
1.01761
0.991563
0.958415
0.930467
0.913184
0.90762
0.912712
0.926479
0.946549
0.970425
0.995637
1.01988
1.04116
1.0579
1.06908
1.07427
1.07369
1.06811
1.05874
1.04712
)
;
    }
    procBoundary0to2
    {
        type            processor;
        value           nonuniform List<scalar> 
46
(
0.170413
0.178205
0.187142
0.197403
0.209189
0.222722
0.238249
0.256035
0.276359
0.299506
0.325758
0.355373
0.388568
0.425493
0.466204
0.510633
0.558563
0.609607
0.663201
0.718607
0.774936
0.83119
0.886316
0.939268
0.989075
0.774234
0.299914
0.204391
0.16776
0.149396
0.139075
0.133048
0.129608
0.127864
0.12731
0.127639
0.128662
0.130264
0.132381
0.134985
0.138079
0.141689
0.145866
0.15068
0.170413
0.156222
)
;
    }
}


// ************************************************************************* //
