/*--------------------------------*- C++ -*----------------------------------*\
| =========                 |                                                 |
| \\      /  F ield         | OpenFOAM: The Open Source CFD Toolbox           |
|  \\    /   O peration     | Version:  5.0                                   |
|   \\  /    A nd           | Web:      www.OpenFOAM.org                      |
|    \\/     M anipulation  |                                                 |
\*---------------------------------------------------------------------------*/
FoamFile
{
    version     2.0;
    format      ascii;
    class       volScalarField;
    location    "0.5";
    object      k;
}
// * * * * * * * * * * * * * * * * * * * * * * * * * * * * * * * * * * * * * //

dimensions      [0 2 -2 0 0 0 0];

internalField   nonuniform List<scalar> 
1935
(
0.0030956
0.00538607
0.00798508
0.0107874
0.0132668
0.0154169
0.0174497
0.0192865
0.0209799
0.0225664
0.0240692
0.0255057
0.0268888
0.0282269
0.0295248
0.0307844
0.0320054
0.0331853
0.0343203
0.0354052
0.0364339
0.0373994
0.0382941
0.0391094
0.0398362
0.0404645
0.0409828
0.0413781
0.0416326
0.0417195
0.0416948
0.0415576
0.0412579
0.040764
0.0400537
0.0391111
0.0379274
0.0365052
0.0348556
0.032967
0.030641
0.0282488
0.0260843
0.0236652
0.00481326
0.0107549
0.016691
0.0222272
0.0273474
0.0319327
0.0359763
0.0396345
0.0430006
0.046141
0.0491062
0.0519337
0.0546503
0.0572735
0.0598139
0.0622758
0.0646589
0.0669597
0.0691715
0.0712859
0.0732932
0.0751826
0.0769427
0.078562
0.0800291
0.0813328
0.0824626
0.0834083
0.0841587
0.084696
0.0849737
0.0850223
0.0848394
0.0844244
0.0837865
0.0829439
0.0819264
0.0807702
0.0794813
0.0779198
0.0754248
0.071292
0.0658522
0.0587145
0.0057525
0.0140508
0.0211825
0.0278541
0.033916
0.0394281
0.0444346
0.0490162
0.053252
0.0572097
0.0609443
0.0644993
0.0679066
0.0711887
0.0743595
0.077426
0.0803896
0.0832475
0.0859937
0.0886198
0.0911159
0.0934711
0.0956741
0.0977139
0.09958
0.101263
0.102756
0.104053
0.10515
0.106041
0.106714
0.107191
0.107475
0.107574
0.107494
0.107241
0.106815
0.10621
0.105372
0.1041
0.10175
0.097517
0.0916311
0.083721
0.00631527
0.0167317
0.0246288
0.0317816
0.038384
0.044478
0.050098
0.0552962
0.0601323
0.064664
0.0689427
0.0730115
0.0769041
0.0806452
0.084251
0.087731
0.0910886
0.0943225
0.097428
0.100398
0.103224
0.105895
0.108403
0.110737
0.112889
0.114853
0.116625
0.118204
0.119593
0.120797
0.12182
0.12269
0.123422
0.124025
0.124504
0.124848
0.125024
0.124966
0.124546
0.123502
0.121297
0.117315
0.111667
0.104141
0.00713026
0.018984
0.0275249
0.0350439
0.0420008
0.0484939
0.0545567
0.0602209
0.0655259
0.0705154
0.075233
0.079718
0.0840034
0.0881144
0.0920692
0.0958786
0.0995481
0.103078
0.106466
0.109707
0.112792
0.115715
0.118467
0.121042
0.123433
0.125638
0.127655
0.129489
0.131147
0.132641
0.133986
0.135215
0.136348
0.137398
0.138366
0.139228
0.139927
0.140357
0.14034
0.139592
0.13768
0.134194
0.129187
0.122349
0.00804279
0.0211693
0.0301604
0.0379444
0.04516
0.0519571
0.0583696
0.0644122
0.0701059
0.0754806
0.0805709
0.0854116
0.0900336
0.0944621
0.0987157
0.102807
0.106743
0.110525
0.114154
0.117625
0.120934
0.124075
0.127043
0.129833
0.132441
0.134868
0.137117
0.139194
0.141112
0.142886
0.144536
0.146099
0.147596
0.149043
0.150435
0.151741
0.152888
0.153753
0.154138
0.153767
0.152295
0.149448
0.145224
0.139018
0.00893999
0.0231638
0.032545
0.0405652
0.0480173
0.0550885
0.0618102
0.068183
0.0742137
0.0799219
0.0853359
0.0904867
0.0954034
0.100111
0.104627
0.108967
0.113138
0.117144
0.120987
0.124665
0.128176
0.131517
0.134684
0.137677
0.140494
0.143138
0.145614
0.147933
0.150108
0.152159
0.154105
0.155983
0.157818
0.159621
0.161387
0.163079
0.164618
0.165877
0.166663
0.166728
0.165796
0.163669
0.160267
0.154668
0.00974332
0.0248556
0.0346142
0.0429134
0.0506457
0.058015
0.0650452
0.0717271
0.0780613
0.0840639
0.0897615
0.0951841
0.10036
0.105313
0.110064
0.114625
0.119007
0.123216
0.127253
0.131122
0.13482
0.13835
0.141709
0.144899
0.147923
0.150784
0.153492
0.156056
0.158492
0.160819
0.16306
0.165241
0.167393
0.169526
0.171628
0.173662
0.175551
0.177172
0.178353
0.178883
0.178544
0.177184
0.174654
0.169801
0.0105066
0.026166
0.0363229
0.045001
0.0531101
0.0608398
0.0682026
0.0751883
0.0818021
0.0880664
0.0940124
0.099672
0.105075
0.110245
0.115202
0.119961
0.124533
0.128925
0.133142
0.137187
0.141065
0.144776
0.148323
0.151711
0.154944
0.158029
0.160975
0.163793
0.166499
0.169109
0.171644
0.174125
0.176584
0.179026
0.181439
0.183785
0.185991
0.187948
0.189508
0.190502
0.190768
0.190195
0.188637
0.184972
0.0111031
0.02705
0.0376793
0.0468914
0.0555107
0.0636801
0.0714048
0.0786893
0.0855594
0.0920541
0.0982149
0.104079
0.109678
0.115036
0.120175
0.12511
0.129852
0.13441
0.138793
0.143005
0.147054
0.150943
0.154679
0.158268
0.161718
0.165036
0.168232
0.171318
0.174306
0.17721
0.180048
0.182833
0.185596
0.188338
0.191047
0.193684
0.196186
0.198453
0.200366
0.201797
0.202634
0.20282
0.202312
0.200543
0.011537
0.0275236
0.0387791
0.0487475
0.0580287
0.0667052
0.0748027
0.0823682
0.0894652
0.0961582
0.102502
0.108541
0.114308
0.11983
0.125128
0.130218
0.135114
0.139825
0.144363
0.148735
0.152951
0.15702
0.160949
0.164748
0.168427
0.171995
0.175462
0.178836
0.18213
0.185351
0.188509
0.191613
0.194689
0.197735
0.200736
0.203659
0.206443
0.209003
0.21124
0.21306
0.214395
0.215225
0.21557
0.215239
0.0120235
0.0276657
0.0398468
0.0508686
0.0609298
0.0701156
0.0785447
0.0863429
0.0936236
0.100478
0.106974
0.113158
0.119068
0.12473
0.130166
0.135393
0.140426
0.145279
0.149964
0.154493
0.158877
0.16313
0.167263
0.171287
0.175215
0.179057
0.182821
0.186516
0.190147
0.193717
0.197228
0.200677
0.204086
0.207448
0.21075
0.213959
0.217022
0.219859
0.222389
0.224544
0.226278
0.22758
0.228433
0.228548
0.0132495
0.0277236
0.0413946
0.0537538
0.0645502
0.0741037
0.0827368
0.0906771
0.0980806
0.105053
0.111666
0.117968
0.123995
0.129774
0.135327
0.140675
0.145833
0.150817
0.155644
0.160328
0.164886
0.169332
0.173683
0.177954
0.182157
0.186304
0.190402
0.194455
0.198464
0.202428
0.206335
0.210169
0.213939
0.217641
0.22126
0.224767
0.228113
0.231218
0.234014
0.23645
0.238493
0.240129
0.241303
0.241697
0.0163736
0.0288256
0.044581
0.0581924
0.0693375
0.0789176
0.0875314
0.0954838
0.102933
0.109974
0.116667
0.123055
0.129173
0.135046
0.140699
0.14615
0.15142
0.156528
0.161493
0.166334
0.171071
0.175724
0.180313
0.184855
0.189366
0.193856
0.198332
0.202792
0.207229
0.211641
0.216004
0.220281
0.224451
0.228524
0.232486
0.236311
0.239952
0.243321
0.246359
0.249027
0.251301
0.25317
0.254578
0.255267
0.0215246
0.0337936
0.0510301
0.0649747
0.0757135
0.0848184
0.0930934
0.100894
0.1083
0.115352
0.122085
0.128529
0.134712
0.140659
0.146391
0.151932
0.157302
0.162526
0.167627
0.172627
0.177552
0.182427
0.187276
0.19212
0.196977
0.201857
0.206764
0.21169
0.216605
0.221535
0.226431
0.231217
0.235836
0.240308
0.24464
0.248805
0.25276
0.256399
0.25966
0.262512
0.264934
0.266927
0.268455
0.269334
0.0263433
0.044139
0.0609081
0.0730979
0.0827913
0.0913102
0.0992079
0.106785
0.114097
0.121129
0.127881
0.134365
0.140601
0.14661
0.152415
0.158039
0.163508
0.16885
0.174094
0.179267
0.1844
0.189523
0.194667
0.199857
0.205112
0.210442
0.215851
0.221332
0.226773
0.232304
0.237849
0.243239
0.24836
0.25324
0.257957
0.262439
0.2667
0.27063
0.274102
0.277086
0.279564
0.281552
0.283035
0.283904
0.0298378
0.0533023
0.0686186
0.0792869
0.0886755
0.097211
0.105099
0.112512
0.119632
0.126526
0.133199
0.13965
0.145884
0.151916
0.157767
0.163462
0.169028
0.174496
0.179898
0.18527
0.190646
0.196064
0.201562
0.207175
0.212937
0.218875
0.225011
0.231356
0.237733
0.244058
0.250442
0.256601
0.262341
0.267637
0.272769
0.277454
0.281987
0.286215
0.289776
0.292812
0.295255
0.297108
0.298366
0.299
0.0297507
0.0559904
0.0723002
0.0836909
0.093535
0.102356
0.110357
0.117762
0.124771
0.131507
0.138016
0.144315
0.150417
0.15634
0.162105
0.167738
0.173269
0.178731
0.184162
0.189602
0.195098
0.2007
0.206465
0.212453
0.218732
0.225365
0.232368
0.239629
0.247234
0.254849
0.262602
0.270095
0.277012
0.283235
0.289232
0.294095
0.299041
0.303606
0.306868
0.30979
0.311981
0.313514
0.314397
0.314606
0.0287151
0.0566614
0.0739454
0.086543
0.0972012
0.106589
0.114979
0.122596
0.129664
0.136346
0.142736
0.148886
0.154829
0.160593
0.166207
0.171702
0.177112
0.182475
0.187833
0.193235
0.198735
0.204396
0.210288
0.216488
0.223074
0.230106
0.237577
0.24536
0.253476
0.262003
0.271119
0.280255
0.288821
0.296931
0.304808
0.311578
0.317665
0.323358
0.325689
0.32845
0.32992
0.330872
0.331154
0.330657
0.0278736
0.056919
0.0747121
0.0882256
0.09962
0.109569
0.118388
0.126314
0.133567
0.14032
0.146696
0.152773
0.158607
0.164243
0.169719
0.175075
0.180351
0.185591
0.190842
0.196161
0.201606
0.207249
0.213164
0.219431
0.226123
0.233285
0.240904
0.248895
0.257286
0.266286
0.276077
0.286267
0.296344
0.306199
0.315554
0.324334
0.332064
0.340113
0.34503
0.348931
0.349189
0.349629
0.349004
0.347371
0.0273382
0.0569658
0.0749965
0.0890873
0.101024
0.111436
0.120651
0.128905
0.136402
0.143309
0.149757
0.155842
0.161635
0.167195
0.172573
0.177818
0.182976
0.188098
0.193236
0.19845
0.203804
0.209371
0.215224
0.221441
0.228084
0.235192
0.242761
0.250762
0.259251
0.268434
0.278455
0.289067
0.299849
0.310588
0.321052
0.331179
0.3409
0.349916
0.357232
0.36342
0.367308
0.369291
0.3681
0.365001
0.362421
0.0271005
0.0567937
0.0749604
0.0893812
0.101671
0.112424
0.121964
0.130516
0.138264
0.145363
0.151939
0.158094
0.163907
0.169449
0.174778
0.17995
0.18502
0.190042
0.195075
0.200179
0.205423
0.210875
0.21661
0.222698
0.229197
0.236146
0.243561
0.251453
0.259895
0.269048
0.279008
0.289608
0.300527
0.311537
0.322459
0.333192
0.343865
0.354251
0.36319
0.370285
0.376237
0.380335
0.382816
0.381867
0.380069
0.0269539
0.0565135
0.0747044
0.0892885
0.101779
0.112751
0.122526
0.131315
0.139286
0.146577
0.153304
0.159565
0.165445
0.171014
0.176339
0.181481
0.186498
0.191449
0.196394
0.201399
0.206529
0.211854
0.217443
0.223365
0.229677
0.236422
0.243634
0.25135
0.259644
0.268628
0.278357
0.288715
0.29946
0.31038
0.321307
0.332146
0.343007
0.353767
0.363553
0.371916
0.379035
0.38432
0.388263
0.390064
0.39077
0.0269094
0.0561903
0.0743193
0.0889544
0.101528
0.112613
0.122528
0.13148
0.139621
0.147074
0.153946
0.160325
0.166294
0.171923
0.17728
0.182427
0.187426
0.192337
0.197223
0.202148
0.207179
0.212383
0.217829
0.223581
0.2297
0.236235
0.243233
0.250741
0.258827
0.267568
0.276991
0.287008
0.297437
0.308088
0.318805
0.329473
0.340114
0.350639
0.360533
0.369416
0.377107
0.383369
0.388585
0.392078
0.394232
0.0270062
0.0558879
0.0738948
0.0885011
0.101068
0.112173
0.122141
0.131175
0.139421
0.14699
0.153977
0.160464
0.166525
0.172229
0.17764
0.18282
0.187831
0.192733
0.197589
0.202462
0.207419
0.212525
0.217848
0.223452
0.229398
0.235742
0.242537
0.249835
0.257696
0.266172
0.275274
0.284933
0.29501
0.305338
0.315764
0.32617
0.336494
0.346637
0.356294
0.365166
0.373019
0.379702
0.38534
0.38965
0.392933
0.0272696
0.0556626
0.0735092
0.0880237
0.100509
0.111555
0.121494
0.130534
0.138816
0.146445
0.153506
0.160073
0.166214
0.171991
0.177465
0.182695
0.18774
0.19266
0.197515
0.202367
0.207281
0.212322
0.217556
0.223046
0.228856
0.235043
0.241665
0.248775
0.256425
0.264653
0.273462
0.282797
0.292548
0.302573
0.312726
0.322877
0.332928
0.34276
0.352159
0.360885
0.368719
0.375518
0.381293
0.385966
0.389702
0.0276993
0.0555511
0.0732158
0.0875828
0.0999197
0.110834
0.120673
0.129649
0.137901
0.145532
0.152619
0.159231
0.165427
0.171265
0.1768
0.182086
0.187179
0.192136
0.197015
0.201876
0.206781
0.211793
0.216976
0.222395
0.228113
0.234188
0.240679
0.24764
0.255117
0.263139
0.271709
0.280783
0.290273
0.300058
0.310004
0.319976
0.329851
0.3395
0.348748
0.357393
0.365234
0.37212
0.378004
0.382858
0.386761
0.0282698
0.0555639
0.0730346
0.0872025
0.0993299
0.110051
0.119727
0.128575
0.136739
0.144317
0.151383
0.157999
0.164221
0.170099
0.175682
0.181022
0.186169
0.191176
0.196098
0.200992
0.205917
0.210935
0.216109
0.2215
0.227172
0.233184
0.239594
0.246455
0.253811
0.261687
0.270087
0.278977
0.288286
0.297914
0.307737
0.317625
0.327444
0.337054
0.346293
0.354979
0.362928
0.369983
0.376058
0.381112
0.385169
0.0289396
0.0556876
0.0729558
0.0868766
0.0987405
0.109214
0.118673
0.127342
0.135366
0.142842
0.149842
0.156424
0.162638
0.16853
0.174145
0.179528
0.184726
0.189788
0.194764
0.199709
0.20468
0.209734
0.214933
0.220337
0.226008
0.232005
0.238386
0.245201
0.252493
0.260288
0.268591
0.277377
0.286591
0.296147
0.305936
0.315833
0.325702
0.3354
0.344764
0.353622
0.361796
0.369126
0.375495
0.380834
0.385123
0.029662
0.0558936
0.0729492
0.0865802
0.0981349
0.108316
0.117515
0.125962
0.133803
0.141135
0.14803
0.154541
0.160715
0.166594
0.172218
0.177628
0.182868
0.187981
0.193015
0.198022
0.203054
0.208167
0.213419
0.21887
0.224579
0.230605
0.237003
0.243824
0.251109
0.258885
0.267161
0.27592
0.285118
0.294682
0.304516
0.314502
0.32451
0.334391
0.343984
0.353119
0.361616
0.369311
0.376064
0.381776
0.386391
0.0303942
0.0561477
0.0729763
0.0862814
0.0974916
0.107347
0.116253
0.124444
0.132067
0.139222
0.145976
0.152382
0.158484
0.164321
0.169929
0.175347
0.180612
0.185767
0.190856
0.195925
0.201026
0.206211
0.211536
0.217058
0.222835
0.228924
0.23538
0.242251
0.249578
0.257391
0.265701
0.274497
0.283745
0.293383
0.303327
0.313467
0.323676
0.333807
0.3437
0.35318
0.362068
0.370189
0.377388
0.383539
0.388556
0.0311012
0.0564168
0.0730001
0.0859513
0.0967924
0.106299
0.114888
0.122797
0.130177
0.137125
0.143709
0.14998
0.155981
0.161747
0.167314
0.172715
0.177986
0.183167
0.188297
0.193423
0.198591
0.203851
0.209258
0.214865
0.22073
0.226906
0.233447
0.240401
0.24781
0.255702
0.264091
0.272974
0.282323
0.292085
0.302185
0.312522
0.322971
0.333391
0.343619
0.35348
0.36279
0.371367
0.37904
0.385664
0.391126
0.0317573
0.0566727
0.0729907
0.0855687
0.0960266
0.105171
0.113428
0.12104
0.128156
0.134875
0.141264
0.147374
0.153246
0.158914
0.164412
0.16977
0.175024
0.180209
0.185364
0.190531
0.195756
0.201086
0.206573
0.212268
0.218227
0.224501
0.231144
0.238201
0.245714
0.253713
0.262214
0.271216
0.280697
0.290614
0.300896
0.31145
0.322157
0.332876
0.343447
0.353691
0.363423
0.372451
0.380595
0.387691
0.393608
0.0323451
0.0568932
0.0729269
0.0851217
0.0951922
0.103971
0.111889
0.119193
0.126032
0.132505
0.13868
0.144607
0.150325
0.155869
0.16127
0.16656
0.171769
0.176934
0.182091
0.18728
0.192544
0.197929
0.203484
0.209259
0.215307
0.22168
0.228426
0.235592
0.243219
0.251336
0.259961
0.269097
0.278725
0.288806
0.299277
0.310049
0.321007
0.332013
0.342907
0.353511
0.363633
0.373079
0.381658
0.389196
0.395544
0.0328538
0.0570616
0.072796
0.0846066
0.0942938
0.10271
0.110291
0.117283
0.123838
0.130055
0.136
0.141724
0.147267
0.152663
0.157943
0.163137
0.168276
0.173393
0.178526
0.18371
0.18899
0.194408
0.200012
0.205851
0.211974
0.218431
0.225272
0.23254
0.240274
0.248506
0.257253
0.266519
0.276289
0.286528
0.297176
0.308146
0.31933
0.33059
0.341766
0.352681
0.363141
0.372946
0.381901
0.389821
0.396548
0.0332776
0.057166
0.0725916
0.0840249
0.0933405
0.101404
0.108654
0.115339
0.121608
0.127561
0.133266
0.138774
0.144125
0.149352
0.154487
0.15956
0.164601
0.169644
0.174724
0.179877
0.185144
0.190569
0.196196
0.202073
0.208248
0.21477
0.221684
0.229035
0.23686
0.245189
0.254041
0.26342
0.273313
0.283686
0.294481
0.305617
0.316984
0.328448
0.33985
0.351011
0.361736
0.371823
0.381072
0.389295
0.396325
0.0336143
0.0571984
0.0723118
0.0833814
0.0923428
0.10007
0.107002
0.113386
0.119373
0.125062
0.130522
0.135804
0.140948
0.14599
0.15096
0.155889
0.160808
0.165749
0.170748
0.175841
0.181067
0.186468
0.192089
0.197975
0.204173
0.21073
0.21769
0.225096
0.232985
0.241385
0.250314
0.259776
0.26976
0.280232
0.291136
0.302391
0.313889
0.325497
0.337055
0.348385
0.359291
0.36957
0.379021
0.387452
0.394694
0.0338644
0.0571535
0.0719569
0.0826818
0.0913107
0.0987211
0.105351
0.111448
0.117161
0.122589
0.127803
0.132854
0.137784
0.142627
0.147416
0.152182
0.156956
0.161772
0.166664
0.171668
0.176823
0.18217
0.187753
0.193617
0.199806
0.206365
0.213339
0.220768
0.228686
0.237122
0.246093
0.255603
0.265638
0.276167
0.287132
0.298454
0.310024
0.321709
0.33335
0.344767
0.355767
0.366144
0.375698
0.384238
0.391594
0.0340296
0.0570282
0.0715285
0.0819309
0.090252
0.097369
0.103718
0.109542
0.114993
0.120169
0.125141
0.129961
0.134671
0.139307
0.143904
0.148492
0.153104
0.157773
0.162534
0.167423
0.17248
0.177744
0.183259
0.189068
0.195214
0.201743
0.208695
0.21611
0.224022
0.232458
0.241432
0.250949
0.260994
0.271533
0.282511
0.293845
0.305428
0.317125
0.328776
0.340203
0.35121
0.361595
0.371158
0.37971
0.387085
0.0341133
0.0568208
0.0710283
0.0811323
0.089172
0.0960203
0.102109
0.107681
0.112886
0.117821
0.122559
0.127151
0.131642
0.136069
0.140465
0.144865
0.1493
0.153806
0.158417
0.163169
0.168103
0.173258
0.178676
0.1844
0.190473
0.196937
0.203833
0.2112
0.219069
0.227467
0.236406
0.24589
0.255902
0.266409
0.277353
0.28865
0.300191
0.31184
0.323438
0.334805
0.345746
0.356059
0.365548
0.374029
0.381341
0.0341191
0.0565311
0.0704577
0.0802882
0.0880729
0.0946783
0.100531
0.105872
0.110847
0.115557
0.120071
0.124444
0.12872
0.132938
0.137132
0.141337
0.145587
0.149917
0.154363
0.158961
0.163752
0.168774
0.174071
0.179683
0.185653
0.192023
0.198833
0.206118
0.213912
0.222236
0.231105
0.24052
0.250463
0.260899
0.271767
0.282985
0.29444
0.305995
0.317489
0.328741
0.339558
0.349741
0.359094
0.367441
0.374629
0.0340516
0.0561599
0.0698181
0.079399
0.0869548
0.0933428
0.0989838
0.104114
0.108881
0.113381
0.117686
0.121851
0.12592
0.129933
0.133926
0.137936
0.141996
0.146143
0.150413
0.154844
0.159476
0.164349
0.169503
0.174981
0.180825
0.187075
0.193771
0.200947
0.208635
0.216857
0.225626
0.234941
0.244785
0.255119
0.265883
0.27699
0.288328
0.299757
0.311114
0.322219
0.332877
0.342893
0.352076
0.360256
0.36729
0.0339156
0.0557089
0.0691108
0.0784648
0.0858162
0.0920111
0.0974637
0.102407
0.106984
0.111293
0.115405
0.119375
0.123248
0.127064
0.130863
0.134679
0.138549
0.14251
0.146599
0.150855
0.155317
0.160026
0.165024
0.170351
0.176049
0.182158
0.188718
0.195763
0.203322
0.211419
0.220065
0.229258
0.23898
0.249193
0.259833
0.270813
0.282019
0.293307
0.304516
0.315462
0.325953
0.335795
0.344805
0.352817
0.359702
0.033716
0.0551807
0.0683376
0.077485
0.0846546
0.0906792
0.0959657
0.100742
0.105151
0.109288
0.113224
0.117014
0.120704
0.124335
0.127946
0.131575
0.135259
0.139035
0.142942
0.147018
)
;

boundaryField
{
    leftWall
    {
        type            kqRWallFunction;
        value           nonuniform List<scalar> 
44
(
0.0030956
0.00481326
0.0057525
0.00631527
0.00713026
0.00804279
0.00893999
0.00974332
0.0105066
0.0111031
0.011537
0.0120235
0.0132495
0.0163736
0.0215246
0.0263433
0.0298378
0.0297507
0.0287151
0.0278736
0.0273382
0.0271005
0.0269539
0.0269094
0.0270062
0.0272696
0.0276993
0.0282698
0.0289396
0.029662
0.0303942
0.0311012
0.0317573
0.0323451
0.0328538
0.0332776
0.0336143
0.0338644
0.0340296
0.0341133
0.0341191
0.0340516
0.0339156
0.033716
)
;
    }
    rightWall
    {
        type            kqRWallFunction;
        value           nonuniform 0();
    }
    lowerWall
    {
        type            kqRWallFunction;
        value           nonuniform List<scalar> 
44
(
0.0030956
0.00538607
0.00798508
0.0107874
0.0132668
0.0154169
0.0174497
0.0192865
0.0209799
0.0225664
0.0240692
0.0255057
0.0268888
0.0282269
0.0295248
0.0307844
0.0320054
0.0331853
0.0343203
0.0354052
0.0364339
0.0373994
0.0382941
0.0391094
0.0398362
0.0404645
0.0409828
0.0413781
0.0416326
0.0417195
0.0416948
0.0415576
0.0412579
0.040764
0.0400537
0.0391111
0.0379274
0.0365052
0.0348556
0.032967
0.030641
0.0282488
0.0260843
0.0236652
)
;
    }
    atmosphere
    {
        type            inletOutlet;
        inletValue      nonuniform 0();
        value           nonuniform 0();
    }
    defaultFaces
    {
        type            empty;
    }
    procBoundary0to1
    {
        type            processor;
        value           nonuniform List<scalar> 
44
(
0.0216282
0.0461072
0.0687564
0.0899312
0.108667
0.125086
0.140508
0.156005
0.173154
0.19366
0.211462
0.225765
0.240042
0.254445
0.269042
0.283804
0.298775
0.314011
0.32949
0.345462
0.345462
0.358771
0.375132
0.389061
0.394972
0.395057
0.392381
0.389671
0.388221
0.388354
0.389883
0.392388
0.395353
0.39825
0.400591
0.401956
0.402029
0.400611
0.397631
0.393152
0.387358
0.380541
0.373071
0.365365
)
;
    }
    procBoundary0to2
    {
        type            processor;
        value           nonuniform List<scalar> 
46
(
0.151305
0.155843
0.160673
0.165836
0.171375
0.17733
0.183738
0.190634
0.198048
0.206003
0.21451
0.223568
0.233157
0.243238
0.253749
0.2646
0.275673
0.286827
0.297896
0.308697
0.319039
0.328731
0.337594
0.345475
0.352253
0.0334583
0.0545791
0.0675008
0.0764598
0.0834675
0.0893426
0.0944838
0.0991147
0.103375
0.107358
0.111135
0.114761
0.118282
0.121741
0.125176
0.128627
0.132131
0.135727
0.139453
0.151305
0.143351
)
;
    }
}


// ************************************************************************* //
