/*--------------------------------*- C++ -*----------------------------------*\
| =========                 |                                                 |
| \\      /  F ield         | OpenFOAM: The Open Source CFD Toolbox           |
|  \\    /   O peration     | Version:  5.0                                   |
|   \\  /    A nd           | Web:      www.OpenFOAM.org                      |
|    \\/     M anipulation  |                                                 |
\*---------------------------------------------------------------------------*/
FoamFile
{
    version     2.0;
    format      ascii;
    class       volScalarField;
    location    "0.5";
    object      nut;
}
// * * * * * * * * * * * * * * * * * * * * * * * * * * * * * * * * * * * * * //

dimensions      [0 2 -1 0 0 0 0];

internalField   nonuniform List<scalar> 
1935
(
3.41305e-05
3.95434e-05
4.81539e-05
5.59742e-05
6.20744e-05
6.6915e-05
7.11826e-05
7.48339e-05
7.8046e-05
8.09381e-05
8.35838e-05
8.60355e-05
8.83305e-05
9.04943e-05
9.25441e-05
9.44903e-05
9.63389e-05
9.80919e-05
9.9749e-05
0.000101308
0.000102764
0.000104112
0.000105346
0.000106458
0.00010744
0.000108282
0.000108971
0.000109494
0.000109828
0.000109941
0.00010991
0.000109729
0.000109332
0.000108674
0.00010772
0.000106442
0.000104815
0.000102827
0.000100471
9.77026e-05
9.41797e-05
9.04304e-05
8.68987e-05
8.27748e-05
4.94386e-05
0.00021435
0.000357565
0.000461623
0.000546078
0.000616315
0.000672983
0.00072107
0.000762338
0.000798155
0.000829594
0.000857482
0.00088245
0.000904977
0.000925425
0.000944062
0.000961083
0.000976622
0.000990771
0.00100358
0.00101509
0.00102528
0.00103416
0.00104169
0.00104783
0.00105254
0.00105575
0.00105738
0.00105727
0.00105486
0.00104624
0.00103187
0.0010122
0.000987332
0.00095744
0.000922799
0.000884053
0.00084234
0.00079907
0.000755316
0.000708971
0.00065869
0.000629357
0.00059393
5.40652e-05
0.000358145
0.000610267
0.000816399
0.000991878
0.00114539
0.00127984
0.0013984
0.00150321
0.00159614
0.00167878
0.00175253
0.00181857
0.00187788
0.00193127
0.00197943
0.00202287
0.00206201
0.00209716
0.00212856
0.00215636
0.00218066
0.00220151
0.0022189
0.00223278
0.00224304
0.00224954
0.002252
0.00224993
0.00224212
0.00222483
0.00219676
0.00215708
0.00210488
0.00203916
0.00195913
0.00186467
0.001757
0.00163912
0.00151574
0.00139152
0.00127347
0.00117977
0.00105628
5.66521e-05
0.000450118
0.000778772
0.00106054
0.00131346
0.0015427
0.00175035
0.00193825
0.00210803
0.0022613
0.0023996
0.00252442
0.00263713
0.00273897
0.00283102
0.00291421
0.00298935
0.00305707
0.00311791
0.00317227
0.00322049
0.00326276
0.00329923
0.00332995
0.00335489
0.00337391
0.00338677
0.00339302
0.00339186
0.00338167
0.00335909
0.00332201
0.00326835
0.00319595
0.00310247
0.00298582
0.00284474
0.00267985
0.00249466
0.00229626
0.00209438
0.00189944
0.00171262
0.00146198
6.01889e-05
0.000493772
0.000883022
0.00122638
0.00154308
0.00183723
0.00210951
0.00236039
0.00259055
0.00280102
0.00299306
0.00316801
0.00332725
0.00347209
0.00360376
0.00372334
0.00383179
0.00392993
0.00401845
0.00409793
0.00416881
0.00423142
0.00428602
0.0043327
0.00437147
0.00440218
0.00442451
0.00443785
0.00444114
0.00443253
0.00440874
0.00436722
0.00430508
0.00421915
0.00410606
0.00396266
0.00378677
0.0035783
0.00334047
0.00308057
0.00280881
0.00253246
0.00223694
0.00183867
6.39156e-05
0.000519076
0.000948205
0.00133884
0.00170766
0.00205703
0.00238578
0.00269272
0.00297743
0.00324023
0.00348197
0.0037038
0.00390702
0.00409295
0.00426285
0.00441792
0.00455921
0.00468766
0.00480409
0.00490919
0.00500354
0.00508757
0.00516162
0.00522586
0.00528033
0.00532486
0.00535908
0.00538224
0.0053931
0.00538962
0.00536848
0.00532681
0.00526119
0.00516779
0.00504246
0.00488129
0.00468131
0.0044416
0.0041643
0.003855
0.00352054
0.00316078
0.00274776
0.00219188
6.73755e-05
0.000534527
0.00098838
0.00141465
0.00182639
0.00222315
0.00260132
0.00295792
0.00329137
0.00360128
0.00388809
0.00415275
0.00439646
0.00462051
0.00482618
0.00501471
0.00518724
0.00534479
0.00548828
0.0056185
0.00573613
0.00584171
0.00593564
0.00601816
0.00608936
0.00614907
0.00619685
0.00623186
0.00625273
0.00625726
0.00624213
0.00620404
0.00613938
0.00604385
0.00591277
0.00574159
0.00552659
0.00526577
0.00495947
0.00461008
0.00421877
0.00377604
0.00324256
0.00252587
7.03238e-05
0.000540639
0.00100972
0.00146423
0.00191274
0.00235106
0.00277287
0.00317344
0.00355016
0.00390206
0.00422927
0.00453254
0.00481297
0.00507181
0.00531034
0.00552984
0.00573148
0.00591636
0.00608547
0.00623971
0.00637982
0.00650645
0.00662007
0.006721
0.00680934
0.00688493
0.00694731
0.00699557
0.00702822
0.00704301
0.00703666
0.00700522
0.00694532
0.00685228
0.00672101
0.00654641
0.00632396
0.00605028
0.00572339
0.00534156
0.00489921
0.00437706
0.00372565
0.00285013
7.30068e-05
0.000536597
0.00101528
0.00149452
0.00197659
0.00245257
0.00291334
0.00335281
0.0037677
0.00415671
0.00451976
0.00485747
0.00517085
0.0054611
0.00572949
0.00597729
0.00620571
0.00641592
0.00660896
0.0067858
0.00694728
0.00709411
0.00722685
0.00734588
0.00745133
0.00754306
0.00762059
0.00768296
0.00772863
0.00775529
0.00775971
0.00773759
0.00768566
0.007599
0.00747222
0.00729976
0.00707625
0.00679677
0.00645669
0.00604986
0.00556386
0.00497017
0.00420961
0.00318201
7.50299e-05
0.000523202
0.00100767
0.0015113
0.00202619
0.00253732
0.00303313
0.00350682
0.00395502
0.00437643
0.00477092
0.00513903
0.00548169
0.00580005
0.00609532
0.00636878
0.00662165
0.00685512
0.0070703
0.00726822
0.0074498
0.00761581
0.00776689
0.00790346
0.0080257
0.0081335
0.00822637
0.00830332
0.0083628
0.00840248
0.00841913
0.00840846
0.00836708
0.00829
0.00817164
0.00800604
0.00778703
0.00750815
0.00716214
0.00673876
0.00621963
0.00556872
0.00471873
0.00356192
7.64673e-05
0.000499406
0.000989167
0.00152077
0.00206989
0.00261453
0.0031418
0.00364535
0.00412236
0.00457182
0.00499371
0.00538854
0.00575716
0.00610064
0.00642015
0.00671691
0.00699215
0.00724706
0.0074828
0.00770045
0.00790099
0.00808525
0.00825394
0.00840754
0.00854625
0.00867
0.00877828
0.00887015
0.00894403
0.00899763
0.00902777
0.00903025
0.00900156
0.00893673
0.00883013
0.00867553
0.00846607
0.00819394
0.00784965
0.0074197
0.00688168
0.00619596
0.00529591
0.00409017
7.80942e-05
0.000462309
0.000963379
0.00153137
0.00211691
0.00269275
0.00324732
0.00377608
0.00427729
0.0047505
0.00519582
0.00561377
0.00600513
0.00637086
0.00671206
0.00702988
0.00732551
0.00760015
0.00785496
0.00809106
0.00830948
0.00851111
0.0086967
0.00886677
0.00902158
0.00916105
0.00928472
0.00939164
0.00948029
0.00954846
0.00959308
0.00961004
0.00959573
0.00954533
0.00945329
0.00931329
0.00911801
0.00885866
0.00852421
0.00809923
0.00755977
0.00686731
0.0059637
0.00477989
8.21301e-05
0.000412992
0.000942221
0.00155757
0.00217853
0.00278016
0.0033561
0.00390456
0.00442499
0.0049174
0.00538206
0.00581945
0.00623026
0.00661532
0.00697562
0.00731222
0.00762624
0.00791884
0.00819119
0.00844441
0.00867957
0.00889761
0.0090993
0.00928521
0.00945561
0.00961045
0.00974929
0.00987119
0.00997468
0.0100577
0.0101174
0.0101499
0.0101511
0.0101168
0.0100416
0.00991918
0.00974221
0.00950136
0.00918491
0.00877696
0.00825443
0.00758361
0.00671926
0.00561654
9.15285e-05
0.000373603
0.000955867
0.00162204
0.00226851
0.00288562
0.00347473
0.00403642
0.00457069
0.00507764
0.00555751
0.0060107
0.00643773
0.00683928
0.00721616
0.0075693
0.00789973
0.00820857
0.00849695
0.00876598
0.00901675
0.00925023
0.00946722
0.0096683
0.00985376
0.0100236
0.0101773
0.010314
0.0104322
0.0105302
0.0106054
0.010654
0.0106716
0.0106546
0.0105977
0.0104953
0.01034
0.0101226
0.00983153
0.00945156
0.00896229
0.0083367
0.00754338
0.00655928
0.000104947
0.000402145
0.00105444
0.00174991
0.00240038
0.00301796
0.00360945
0.00417677
0.00471901
0.00523569
0.0057267
0.00619215
0.0066323
0.00704758
0.00743859
0.00780609
0.00815102
0.00847438
0.00877726
0.00906079
0.00932602
0.00957396
0.00980542
0.010021
0.010221
0.0104053
0.0105736
0.010725
0.0108577
0.0109705
0.0110613
0.0111263
0.0111609
0.0111617
0.0111242
0.0110432
0.0109121
0.0107221
0.010462
0.0101186
0.00967471
0.00911044
0.00840619
0.00755477
0.00011591
0.000591558
0.00127455
0.00194081
0.00257178
0.0031769
0.00376131
0.00432674
0.00487133
0.00539334
0.00589187
0.00636647
0.00681699
0.00724353
0.00764644
0.0080263
0.0083839
0.00872017
0.00903614
0.0093329
0.00961152
0.00987298
0.0101181
0.0103476
0.0105616
0.0107602
0.0109429
0.0111088
0.0112558
0.0113834
0.01149
0.0115715
0.0116232
0.0116417
0.0116237
0.0115645
0.0114588
0.0112986
0.0110731
0.0107713
0.01038
0.00988516
0.00927588
0.0085541
0.000123091
0.000774073
0.00149243
0.00213239
0.0027491
0.00334504
0.00392236
0.00448143
0.00502262
0.00554494
0.00604691
0.00652728
0.00698529
0.0074206
0.00783325
0.00822358
0.00859221
0.00893996
0.0092678
0.00957677
0.00986793
0.0101423
0.0104007
0.0106439
0.0108721
0.0110855
0.0112838
0.0114662
0.0116302
0.0117736
0.0118967
0.011995
0.0120639
0.0120992
0.0121003
0.0120616
0.011981
0.0118515
0.011661
0.0114024
0.0110657
0.0106416
0.0101245
0.00952023
0.000122727
0.00085642
0.00162534
0.00228374
0.00290452
0.00350006
0.0040746
0.00463078
0.00516991
0.00569175
0.00619504
0.00667844
0.00714092
0.0075819
0.00800119
0.00839897
0.00877572
0.00913215
0.00946918
0.00978784
0.0100892
0.0103744
0.0106443
0.0108999
0.0111419
0.0113705
0.0115855
0.0117848
0.0119678
0.0121309
0.0122742
0.0123928
0.0124815
0.0125362
0.0125578
0.0125377
0.0124816
0.0123823
0.012223
0.0120054
0.0117208
0.0113635
0.0109307
0.0104285
0.000120586
0.0009009
0.00169912
0.00238598
0.00302348
0.00362971
0.00421142
0.00477215
0.00531405
0.00583776
0.00634286
0.00682846
0.00729374
0.0077382
0.00816164
0.00856419
0.00894631
0.00930866
0.00965215
0.00997784
0.0102869
0.0105804
0.0108595
0.0111253
0.0113785
0.0116196
0.0118479
0.012061
0.0122579
0.0124376
0.0126009
0.0127422
0.0128538
0.0129342
0.0129825
0.0129909
0.0129613
0.0128943
0.0127583
0.0125777
0.0123383
0.0120404
0.0116812
0.0112644
0.000118837
0.000920558
0.00173297
0.00244739
0.00310827
0.00373312
0.00432934
0.00490095
0.00545056
0.00597956
0.00648833
0.00697671
0.00744442
0.00789126
0.00831726
0.00872269
0.00910806
0.00947413
0.00982184
0.0101523
0.0104667
0.0107663
0.0110523
0.0113257
0.0115874
0.0118376
0.0120755
0.0122989
0.0125064
0.0126986
0.0128764
0.0130356
0.0131694
0.0132747
0.0133474
0.0133851
0.0133849
0.0133538
0.0132599
0.0131186
0.0129148
0.0126685
0.0123705
0.0120221
0.000117725
0.000917321
0.00173668
0.00247707
0.00316498
0.00381381
0.00443004
0.00501758
0.00557922
0.00611684
0.00663156
0.00712399
0.00759448
0.00804337
0.00847104
0.00887804
0.0092651
0.00963311
0.00998312
0.0103163
0.010634
0.0109374
0.0112279
0.0115064
0.0117736
0.0120297
0.0122738
0.0125042
0.0127198
0.0129213
0.0131093
0.0132809
0.0134301
0.0135534
0.0136469
0.0137096
0.013741
0.0137364
0.0136833
0.0135866
0.013439
0.0132442
0.0129971
0.0127005
0.0123814
0.000117222
0.000896464
0.00172036
0.00248517
0.00320185
0.00387796
0.00451795
0.00512504
0.00570194
0.00625089
0.00677362
0.00727143
0.00774537
0.00819635
0.00862523
0.00903294
0.0094205
0.00978899
0.0101397
0.0104738
0.0107928
0.0110979
0.0113905
0.0116715
0.0119416
0.0122008
0.0124484
0.0126833
0.0129046
0.0131127
0.0133079
0.0134877
0.0136473
0.013783
0.013892
0.0139735
0.0140283
0.0140522
0.0140335
0.0139695
0.0138653
0.0137196
0.0135339
0.013296
0.0130323
0.000116908
0.000870006
0.00169448
0.0024819
0.00322773
0.00393272
0.0045985
0.00522726
0.00582144
0.00638352
0.00691572
0.00741997
0.00789796
0.00835119
0.00878104
0.00918886
0.00957599
0.00994381
0.0102937
0.0106272
0.0109457
0.0112507
0.0115433
0.0118246
0.0120952
0.0123552
0.0126042
0.0128414
0.0130663
0.0132789
0.0134791
0.0136647
0.0138318
0.0139765
0.014097
0.0141923
0.0142635
0.0143073
0.0143147
0.0142819
0.0142117
0.0141035
0.0139595
0.0137769
0.0135679
0.000116815
0.000842986
0.00166697
0.00247599
0.00325068
0.00398483
0.00467702
0.00532821
0.00594052
0.00651656
0.00705897
0.00757025
0.00805264
0.00850822
0.00893885
0.00934632
0.00973233
0.0100985
0.0104466
0.0107781
0.0110946
0.0113977
0.0116886
0.0119683
0.0122375
0.0124965
0.0127452
0.012983
0.0132097
0.0134249
0.0136283
0.0138178
0.0139904
0.0141427
0.0142719
0.0143779
0.0144606
0.0145179
0.0145434
0.0145338
0.0144895
0.0144118
0.0143037
0.0141622
0.0139929
0.000117029
0.000818298
0.00164351
0.00247413
0.00327712
0.00403982
0.00475792
0.00543119
0.00606145
0.00665142
0.00720412
0.00772249
0.00820932
0.00866716
0.00909836
0.00950511
0.00988944
0.0102533
0.0105986
0.0109271
0.0112404
0.0115403
0.0118279
0.0121046
0.0123709
0.0126275
0.0128743
0.0131111
0.0133378
0.0135539
0.0137588
0.0139507
0.0141272
0.0142851
0.0144222
0.0145366
0.0146283
0.0146958
0.0147348
0.0147422
0.0147178
0.0146628
0.0145794
0.0144668
0.0143285
0.000117601
0.000797877
0.00162778
0.00248073
0.00331134
0.00410137
0.00484408
0.00553827
0.00618554
0.00678873
0.00735119
0.00787629
0.00836726
0.00882711
0.00925859
0.00966425
0.0100465
0.0104074
0.0107493
0.0110739
0.0113832
0.0116788
0.0119622
0.0122345
0.0124968
0.0127496
0.0129931
0.0132275
0.0134525
0.0136677
0.0138724
0.0140651
0.0142435
0.0144053
0.0145479
0.0146697
0.0147693
0.0148453
0.014895
0.014916
0.0149073
0.0148697
0.0148048
0.0147131
0.014597
0.000118524
0.000782888
0.00162176
0.002498
0.00335538
0.00417113
0.00493665
0.00565009
0.00631292
0.00692815
0.00749945
0.00803056
0.00852513
0.00898654
0.00941792
0.00982215
0.0102019
0.0105596
0.0108975
0.0112177
0.0115223
0.0118129
0.0120912
0.0123584
0.0126155
0.0128634
0.0131024
0.0133328
0.0135544
0.0137669
0.0139695
0.014161
0.0143394
0.0145026
0.0146485
0.0147751
0.014881
0.0149645
0.0150233
0.0150552
0.0150592
0.0150355
0.0149852
0.0149092
0.0148095
0.000119736
0.000773728
0.00162587
0.00252621
0.00340929
0.00424889
0.00503518
0.00576592
0.00644258
0.00706841
0.00764737
0.00818357
0.00868101
0.00914342
0.00957426
0.00997669
0.0103536
0.0107077
0.0110413
0.0113568
0.0116563
0.0119414
0.0122139
0.0124753
0.0127265
0.0129684
0.0132017
0.0134265
0.013643
0.0138509
0.0140495
0.0142376
0.0144136
0.0145758
0.0147221
0.0148508
0.0149601
0.0150484
0.0151136
0.0151539
0.015168
0.0151553
0.0151164
0.0150522
0.0149642
0.000121139
0.000770137
0.00163934
0.00256415
0.00347157
0.00433303
0.00513794
0.00588394
0.00657264
0.00720752
0.00779287
0.00833313
0.00883262
0.00929541
0.00972523
0.0101255
0.0104993
0.0108495
0.0111787
0.0114892
0.0117832
0.0120625
0.0123289
0.0125837
0.0128282
0.0130634
0.0132897
0.0135077
0.0137174
0.0139187
0.014111
0.0142934
0.0144645
0.0146228
0.0147666
0.0148941
0.0150036
0.0150935
0.0151619
0.015207
0.0152275
0.0152224
0.0151918
0.0151362
0.0150569
0.000122632
0.000771408
0.00166058
0.00260966
0.00353983
0.00442107
0.00524247
0.00600174
0.00670068
0.00734309
0.00793355
0.00847681
0.00897752
0.00944003
0.00986833
0.010266
0.0106365
0.0109826
0.0113071
0.0116124
0.0119008
0.012174
0.0124339
0.0126818
0.012919
0.0131465
0.0133648
0.0135746
0.0137759
0.0139687
0.0141526
0.0143269
0.0144905
0.014642
0.0147801
0.0149031
0.0150095
0.0150975
0.0151656
0.0152119
0.0152351
0.0152341
0.0152084
0.0151584
0.0150849
0.000124126
0.000776611
0.00168762
0.00266019
0.00361131
0.00451022
0.00534604
0.00611666
0.00682417
0.00747264
0.00806696
0.00861222
0.00911333
0.00957492
0.0100012
0.010396
0.0107628
0.0111046
0.0114243
0.0117243
0.0120068
0.0122738
0.0125268
0.0127674
0.0129968
0.0132158
0.0134252
0.0136255
0.0138169
0.0139995
0.0141729
0.0143368
0.0144902
0.0146322
0.0147616
0.0148769
0.0149768
0.0150596
0.0151239
0.015168
0.0151905
0.0151902
0.0151664
0.0151191
0.0150489
0.00012555
0.000784761
0.00171843
0.00271323
0.00368331
0.0045978
0.00544604
0.0062262
0.00694067
0.00759384
0.00819088
0.00873718
0.00923792
0.00969797
0.0101218
0.0105133
0.0108761
0.0112135
0.0115282
0.0118227
0.0120993
0.0123597
0.0126057
0.0128386
0.0130595
0.0132694
0.013469
0.0136586
0.0138388
0.0140095
0.0141707
0.014322
0.014463
0.014593
0.0147108
0.0148156
0.0149059
0.0149806
0.015038
0.0150768
0.0150955
0.0150929
0.0150683
0.0150213
0.0149521
0.000126855
0.00079493
0.00175118
0.00276655
0.00375352
0.00468152
0.00554025
0.00632824
0.00704818
0.00770475
0.00830344
0.00884989
0.00934955
0.00980749
0.0102284
0.0106163
0.010975
0.0113076
0.0116172
0.0119061
0.0121765
0.0124303
0.0126689
0.0128937
0.0131057
0.0133058
0.0134946
0.0136727
0.0138403
0.0139977
0.0141451
0.0142821
0.0144087
0.0145244
0.0146285
0.0147202
0.0147985
0.0148623
0.0149103
0.0149411
0.0149535
0.0149463
0.0149184
0.0148695
0.0147996
0.000128012
0.000806306
0.00178432
0.00281837
0.00382015
0.00475963
0.00562701
0.00642119
0.00714517
0.00780394
0.00840327
0.00894906
0.00944698
0.00990231
0.0103199
0.0107039
0.0110582
0.011386
0.0116903
0.0119734
0.0122375
0.0124843
0.0127153
0.0129316
0.0131342
0.0133238
0.0135012
0.0136667
0.0138207
0.0139637
0.0140958
0.0142171
0.0143277
0.0144274
0.0145159
0.0145926
0.0146568
0.0147077
0.0147442
0.0147651
0.0147691
0.0147551
0.0147221
0.0146696
0.0145974
0.000129004
0.000818213
0.00181668
0.00286742
0.00388194
0.00483096
0.00570522
0.006504
0.00723067
0.00789051
0.00848954
0.00903391
0.0095295
0.00998177
0.0103957
0.0107755
0.0111252
0.0114481
0.0117469
0.0120241
0.0122817
0.0125213
0.0127443
0.0129517
0.0131444
0.0133231
0.0134882
0.0136404
0.01378
0.0139075
0.0140233
0.0141277
0.0142211
0.0143035
0.014375
0.0144353
0.014484
0.0145205
0.0145439
0.0145532
0.0145473
0.0145249
0.0144853
0.0144276
0.0143517
0.000129824
0.000830108
0.00184741
0.00291284
0.00393816
0.00489487
0.00577431
0.0065762
0.00730427
0.00796409
0.00856195
0.0091042
0.00959694
0.0100458
0.0104557
0.0108312
0.0111762
0.0114939
0.0117872
0.0120583
0.0123093
0.0125415
0.0127562
0.0129544
0.0131367
0.0133038
0.0134561
0.0135943
0.0137187
0.01383
0.0139286
0.0140153
0.0140906
0.0141548
0.0142084
0.0142514
0.0142837
0.0143047
0.014314
0.0143106
0.0142934
0.0142615
0.0142139
0.0141499
0.014069
0.00013047
0.000841573
0.00187595
0.00295417
0.00398846
0.00495115
0.00583419
0.00663778
0.00736603
0.00802482
0.00862068
0.00916019
0.00964958
0.0100946
0.0105004
0.0108714
0.0112115
0.011524
0.0118117
0.0120767
0.0123209
0.0125455
0.0127518
0.0129403
0.0131119
0.013267
0.013406
0.0135296
0.0136382
0.0137327
0.0138137
0.0138821
0.0139387
0.0139843
0.0140195
0.0140446
0.0140598
0.0140649
0.0140593
0.0140424
0.0140132
0.0139708
0.0139142
0.0138426
0.0137557
0.000130946
0.00085229
0.00190195
0.00299121
0.00403282
0.00499992
0.00588511
0.0066891
0.0074164
0.00807321
0.00866633
0.00920251
0.00968815
0.0101291
0.0105305
0.0108969
0.0112322
0.0115395
0.0118216
0.0120804
0.0123177
0.0125347
0.0127323
0.012911
0.0130716
0.0132143
0.0133396
0.0134482
0.0135407
0.0136179
0.013681
0.0137308
0.0137686
0.0137953
0.0138119
0.013819
0.013817
0.0138058
0.0137851
0.0137543
0.0137125
0.0136589
0.0135924
0.0135124
0.0134184
0.000131259
0.000862029
0.00192522
0.00302394
0.00407139
0.00504152
0.00592756
0.00673078
0.00745612
0.0081101
0.00869979
0.00923214
0.00971368
0.0101503
0.0105473
0.0109091
0.0112395
0.0115417
0.0118182
0.012071
0.0123015
0.0125107
0.0126996
0.0128684
0.0130177
0.0131479
0.0132593
0.0133527
0.0134289
0.0134888
0.0135337
0.0135649
0.0135839
0.0135919
0.0135901
0.0135793
0.0135601
0.0135327
0.0134968
0.0134519
0.0133973
0.013332
0.0132551
0.0131659
0.013064
0.000131414
0.000870626
0.0019457
0.00305244
0.00410446
0.0050764
0.00596218
0.00676361
0.00748609
0.00813651
0.00872219
0.00925028
0.00972742
0.0101596
0.010552
0.0109092
0.0112349
0.0115321
0.0118032
0.0120501
0.0122739
0.0124756
0.0126558
0.0128147
0.0129529
0.0130704
0.013168
0.0132462
0.013306
0.0133487
0.0133756
0.0133885
0.0133889
0.0133784
0.0133585
0.0133303
0.0132943
0.013251
0.0132002
0.0131414
0.0130738
0.0129966
0.0129089
0.01281
0.0126994
0.00013142
0.000877975
0.00196334
0.00307686
0.00413233
0.00510506
0.00598961
0.0067884
0.00750728
0.00815352
0.00873472
0.0092582
0.00973073
0.0101583
0.0105463
0.010899
0.0112201
0.0115125
0.0117785
0.0120197
0.0122371
0.0124314
0.0126032
0.0127525
0.0128796
0.0129848
0.0130686
0.0131318
0.0131755
0.0132012
0.0132106
0.0132055
0.0131878
0.0131595
0.0131222
0.013077
0.0130249
0.0129663
0.012901
0.0128286
0.0127484
0.0126594
0.0125608
0.0124519
0.0123322
0.000131286
0.000884006
0.00197819
0.00309733
0.00415529
0.00512794
0.00601049
0.00680594
0.00752065
0.00816224
0.0087386
0.00925723
0.00972502
0.0101481
0.0105316
0.0108799
0.0111967
0.0114846
0.0117458
0.0119816
0.012193
0.0123804
0.0125441
0.0126841
0.0128006
0.0128938
0.0129643
0.013013
0.0130411
0.0130503
0.0130426
0.0130202
0.0129852
0.0129398
0.0128857
0.0128245
0.0127571
0.0126839
0.0126049
0.0125196
0.0124272
0.0123269
0.0122177
0.0120989
0.01197
0.00013102
0.00088868
0.00199027
0.00311399
0.00417359
0.00514544
0.00602537
0.00681696
0.00752705
0.00816367
0.00873495
0.0092486
0.00971161
0.0101301
0.0105093
0.0108535
0.0111662
0.01145
0.0117067
0.0119377
0.0121436
0.0123246
0.0124808
0.0126121
0.0127186
0.0128004
0.0128582
0.0128929
0.012906
0.0128995
0.0128755
0.0128366
0.0127851
0.0127235
0.0126537
0.0125774
0.0124956
0.0124089
0.0123172
0.0122199
0.0121164
0.0120055
0.0118863
0.011758
0.0116204
0.000130632
0.000891981
0.00199962
0.00312695
0.00418744
0.00515787
0.00603469
0.00682203
0.00752723
0.00815868
0.00872478
0.00923341
0.00969168
0.0101057
0.0104808
0.0108211
0.0111301
0.0114101
0.011663
0.0118896
)
;

boundaryField
{
    leftWall
    {
        type            nutkWallFunction;
        Cmu             0.09;
        kappa           0.41;
        E               9.8;
        value           nonuniform List<scalar> 
44
(
4.78566e-06
5.98936e-06
6.54586e-06
6.85519e-06
7.27701e-06
7.71852e-06
8.12613e-06
8.47215e-06
8.78649e-06
9.02339e-06
9.19128e-06
9.37544e-06
9.82193e-06
1.08768e-05
5.58716e-06
7.31847e-06
8.46279e-06
8.43523e-06
8.10396e-06
7.82965e-06
7.6527e-06
7.57346e-06
7.5244e-06
7.50951e-06
7.54193e-06
7.62986e-06
7.77226e-06
7.95938e-06
8.17633e-06
8.40713e-06
8.63779e-06
8.85752e-06
9.05888e-06
9.23727e-06
9.39015e-06
9.51649e-06
9.61623e-06
9.68991e-06
9.73844e-06
9.76295e-06
9.76467e-06
9.74489e-06
9.70495e-06
9.64622e-06
)
;
    }
    rightWall
    {
        type            nutkWallFunction;
        Cmu             0.09;
        kappa           0.41;
        E               9.8;
        value           nonuniform 0();
    }
    lowerWall
    {
        type            nutkWallFunction;
        Cmu             0.09;
        kappa           0.41;
        E               9.8;
        value           nonuniform List<scalar> 
44
(
3.56081e-06
4.77283e-06
5.83264e-06
6.77566e-06
7.50094e-06
8.07064e-06
8.5698e-06
8.99366e-06
9.36493e-06
9.69792e-06
1.00015e-05
1.0282e-05
1.05439e-05
1.07903e-05
1.10231e-05
1.12437e-05
1.14528e-05
1.16507e-05
1.18374e-05
1.20127e-05
1.21762e-05
1.23273e-05
1.24654e-05
1.25897e-05
1.26993e-05
1.27932e-05
1.287e-05
1.29282e-05
1.29656e-05
1.29783e-05
1.29747e-05
1.29546e-05
1.29106e-05
1.28376e-05
1.27319e-05
1.259e-05
1.2409e-05
1.21874e-05
1.19243e-05
1.16144e-05
1.12189e-05
1.07949e-05
1.03925e-05
9.92097e-06
)
;
    }
    atmosphere
    {
        type            calculated;
        value           nonuniform 0();
    }
    defaultFaces
    {
        type            empty;
    }
    procBoundary0to1
    {
        type            processor;
        value           nonuniform List<scalar> 
44
(
7.91313e-05
0.000401961
0.000703463
0.000961988
0.00116506
0.00133585
0.00148534
0.00162896
0.00178275
0.00199448
0.00252524
0.00329045
0.00427707
0.00540582
0.00658676
0.00775051
0.00885486
0.00987713
0.0108066
0.0116406
0.0116406
0.0120381
0.0127347
0.0133279
0.0137973
0.0141658
0.0144579
0.0146871
0.014854
0.0149553
0.0149892
0.0149568
0.0148617
0.0147093
0.0145058
0.0142577
0.0139714
0.0136535
0.0133105
0.0129493
0.0125773
0.012202
0.0118314
0.0114736
)
;
    }
    procBoundary0to2
    {
        type            processor;
        value           nonuniform List<scalar> 
46
(
0.0120905
0.0122658
0.0124152
0.0125386
0.0126358
0.012707
0.0127529
0.0127745
0.0127736
0.0127522
0.0127128
0.0126583
0.0125913
0.0125145
0.0124301
0.0123399
0.012245
0.012146
0.0120428
0.0119349
0.0118213
0.011701
0.0115729
0.0114363
0.0112907
0.00013013
0.000893918
0.00200631
0.00313631
0.00419698
0.00516547
0.00603879
0.00682163
0.00752178
0.00814798
0.00870891
0.0092126
0.00966625
0.0100761
0.0104472
0.010784
0.0110896
0.0113663
0.0116157
0.0120905
0.0118387
)
;
    }
}


// ************************************************************************* //
