/*--------------------------------*- C++ -*----------------------------------*\
| =========                 |                                                 |
| \\      /  F ield         | OpenFOAM: The Open Source CFD Toolbox           |
|  \\    /   O peration     | Version:  5.0                                   |
|   \\  /    A nd           | Web:      www.OpenFOAM.org                      |
|    \\/     M anipulation  |                                                 |
\*---------------------------------------------------------------------------*/
FoamFile
{
    version     2.0;
    format      ascii;
    class       volScalarField;
    location    "0.5";
    object      p;
}
// * * * * * * * * * * * * * * * * * * * * * * * * * * * * * * * * * * * * * //

dimensions      [1 -1 -2 0 0 0 0];

internalField   nonuniform List<scalar> 
1935
(
626.663
624.61
626.138
630.197
636.116
642.415
648.516
654.06
658.96
663.203
666.842
669.969
672.685
675.094
677.299
679.395
681.473
683.613
685.891
688.377
691.137
694.232
697.726
701.683
706.174
711.278
717.093
723.738
731.367
740.206
750.401
762.113
775.49
790.684
807.811
826.804
847.317
868.652
889.744
909.141
926.398
938.669
942.923
949.019
578.874
576.135
576.805
580.162
585.047
590.523
596.02
601.208
605.933
610.137
613.83
617.07
619.933
622.507
624.883
627.15
629.394
631.697
634.136
636.784
639.71
642.982
646.671
650.847
655.592
660.994
667.159
674.213
682.3
691.574
702.317
714.712
728.96
745.273
763.746
784.326
806.68
830.046
853.146
874.154
891.703
902.641
899.74
896.77
529.811
528.099
529.324
531.817
535.578
540.021
544.67
549.207
553.46
557.344
560.84
563.975
566.801
569.386
571.808
574.145
576.479
578.886
581.443
584.224
587.302
590.749
594.64
599.054
604.078
609.811
616.366
623.877
632.496
642.395
653.809
666.945
682.008
699.149
718.428
739.75
762.744
786.631
810.116
831.33
848.509
859.221
858.788
855.229
480.822
480.142
481.691
483.89
486.963
490.598
494.466
498.325
502.021
505.466
508.63
511.521
514.174
516.646
518.999
521.305
523.639
526.072
528.681
531.538
534.718
538.294
542.347
546.957
552.218
558.232
565.116
573.006
582.053
592.426
604.324
617.955
633.501
651.078
670.702
692.229
715.253
739.004
762.27
783.359
800.49
811.732
814.663
814.07
432.055
432.647
434.31
436.326
438.922
441.946
445.178
448.438
451.601
454.59
457.371
459.948
462.349
464.621
466.821
469.014
471.268
473.656
476.249
479.119
482.34
485.988
490.142
494.886
500.312
506.525
513.64
521.79
531.12
541.791
553.979
567.867
583.607
601.286
620.888
642.24
664.937
688.27
711.174
732.221
749.834
762.458
768.997
773.393
383.306
385.135
386.949
388.83
391.073
393.625
396.343
399.094
401.777
404.33
406.723
408.962
411.072
413.097
415.092
417.118
419.241
421.531
424.057
426.89
430.105
433.776
437.981
442.802
448.332
454.669
461.926
470.229
479.714
490.53
502.835
516.786
532.507
550.058
569.399
590.347
612.521
635.292
657.761
678.764
697.023
711.396
721.659
732.235
334.47
337.298
339.332
341.149
343.137
345.327
347.636
349.964
352.229
354.38
356.4
358.297
360.101
361.855
363.613
365.438
367.394
369.549
371.972
374.733
377.905
381.561
385.777
390.631
396.212
402.612
409.937
418.303
427.835
438.668
450.944
464.797
480.331
497.584
516.503
536.907
558.443
580.56
602.503
623.331
642.059
657.955
671.5
687.845
285.577
289.159
291.374
293.132
294.925
296.845
298.842
300.831
302.742
304.535
306.204
307.768
309.26
310.73
312.235
313.836
315.599
317.593
319.886
322.549
325.65
329.263
333.457
338.31
343.9
350.314
357.647
366.001
375.489
386.233
398.356
411.982
427.195
444.023
462.407
482.173
502.996
524.382
545.679
566.103
584.872
601.537
617.005
637.139
236.636
240.757
243.021
244.672
246.304
248.037
249.819
251.555
253.176
254.655
256.001
257.245
258.429
259.61
260.848
262.211
263.765
265.579
267.722
270.264
273.274
276.82
280.97
285.793
291.36
297.749
305.041
313.324
322.696
333.26
345.129
358.417
373.206
389.512
407.279
426.349
446.412
467
487.52
507.247
525.45
541.67
556.62
576.171
187.666
192.053
194.203
195.681
197.172
198.797
200.464
202.034
203.428
204.636
205.687
206.626
207.508
208.397
209.363
210.477
211.809
213.429
215.408
217.815
220.719
224.186
228.276
233.052
238.576
244.912
252.129
260.297
269.493
279.803
291.326
304.181
318.459
334.168
351.258
369.6
388.883
408.634
428.275
447.039
464.046
478.435
489.874
502.195
138.302
142.482
144.355
145.503
146.799
148.387
150.053
151.547
152.768
153.734
154.505
155.146
155.725
156.317
157.001
157.857
158.96
160.382
162.194
164.469
167.276
170.675
174.721
179.466
184.96
191.252
198.395
206.436
215.426
225.431
236.535
248.876
262.568
277.607
293.957
311.549
330.058
348.967
367.71
385.398
400.853
412.495
418.09
414.528
88.2099
91.5434
92.8907
93.3705
94.3902
96.1021
97.954
99.4556
100.505
101.203
101.663
101.975
102.221
102.487
102.866
103.447
104.31
105.529
107.179
109.338
112.074
115.445
119.498
124.269
129.794
136.107
143.239
151.209
160.037
169.751
180.425
192.259
205.306
219.628
235.197
252.046
269.822
287.921
305.871
322.679
336.972
346.855
349.369
339.221
38.7682
40.7535
41.1113
40.9338
42.0697
44.4022
46.7612
48.323
49.119
49.4583
49.5467
49.4903
49.3709
49.2796
49.3155
49.5739
50.1302
51.0502
52.4089
54.287
56.7599
59.8893
63.7217
68.2936
73.6396
79.7974
86.7943
94.6205
103.25
112.637
122.818
134.164
146.517
160.133
175.002
191.31
208.548
225.927
243.293
259.6
273.457
283.1
286.021
278.917
8.67932
8.00859
8.09517
8.22679
9.12466
10.6083
11.7477
12.365
12.4496
12.2618
11.9616
11.6041
11.2297
10.8911
10.6469
10.5514
10.6397
10.9411
11.4996
12.3744
13.6328
15.3469
17.5924
20.454
24.0363
28.474
33.9069
40.389
47.8383
55.9867
64.651
74.2843
85.6619
98.1681
112.194
128.42
145.758
162.763
179.998
196.282
210.315
220.658
225.244
221.928
-0.00351214
0.279807
0.211163
0.153721
0.158226
0.136353
0.193729
0.391252
0.506802
0.550993
0.555779
0.531471
0.486903
0.435093
0.390838
0.367609
0.372963
0.412915
0.49833
0.64533
0.874644
1.21224
1.68983
2.34785
3.24018
4.44279
6.04368
8.07287
10.5174
13.5343
17.0305
21.6402
28.574
37.2069
47.3647
62.2146
79.8454
96.7448
114.88
132.144
147.137
158.919
165.673
165.892
0.13416
0.132735
0.145833
0.161235
0.174932
0.177499
0.165695
0.144854
0.123587
0.104252
0.0888071
0.0766723
0.0668866
0.0589023
0.0525292
0.0476418
0.0440283
0.0414445
0.0398301
0.039227
0.0395832
0.0406719
0.0420856
0.043218
0.0432943
0.0419681
0.0402738
0.0431722
0.0908192
0.396342
0.918294
1.67317
1.7241
1.26925
-2.03663
3.03189
14.8952
27.0881
45.5508
64.8417
82.1144
96.7199
106.541
110.956
0.0287947
0.057743
0.0741526
0.0853834
0.0949398
0.103712
0.119824
0.136434
0.146101
0.15199
0.155935
0.158476
0.159827
0.160114
0.159427
0.157823
0.155332
0.151975
0.147776
0.14277
0.137012
0.130638
0.123952
0.117532
0.11241
0.111207
0.122351
0.159709
0.161283
0.0391335
-0.0961255
-0.151857
-0.237695
-1.18565
-4.27602
-9.05412
-16.8273
-25.868
-19.0651
-4.49865
12.8264
31.1318
45.3188
55.4129
-0.0111258
0.000886372
0.0107745
0.0200599
0.0281193
0.036154
0.0468821
0.0566946
0.0629983
0.0667902
0.0689828
0.070025
0.0701358
0.0694404
0.0680286
0.0659724
0.0633251
0.0601299
0.0564307
0.0522769
0.0477393
0.0429559
0.0382011
0.0339557
0.030983
0.0307368
0.0368535
0.0539388
0.0581634
0.0320412
0.0188012
0.0544669
0.0909297
-0.0893677
-0.535934
-1.42984
-5.38284
-14.6795
-30.2942
-43.5366
-44.8575
-33.5011
-19.3658
-3.51755
-0.0675473
-0.0588869
-0.0504253
-0.0414131
-0.0333571
-0.0257766
-0.0180663
-0.0114967
-0.00701522
-0.00436003
-0.00306498
-0.0028118
-0.00341416
-0.00475026
-0.00672281
-0.00924868
-0.0122604
-0.0157019
-0.0195187
-0.0236488
-0.0280053
-0.0324443
-0.0367253
-0.0404819
-0.0432346
-0.0443912
-0.0430566
-0.0388292
-0.0416277
-0.0579649
-0.0735638
-0.0762494
-0.0646938
-0.0421028
-0.00639959
-0.144517
-0.772797
-1.21113
-5.66776
-16.1843
-34.2023
-52.2567
-61.1373
-54.4089
-0.127906
-0.120556
-0.112206
-0.103169
-0.0950355
-0.087586
-0.0806824
-0.0749186
-0.0707578
-0.0681208
-0.0667546
-0.0664436
-0.0670345
-0.0684122
-0.0704792
-0.0731492
-0.0763472
-0.0800088
-0.0840744
-0.0884765
-0.0931199
-0.0978588
-0.102479
-0.106705
-0.110248
-0.112908
-0.114691
-0.116381
-0.12317
-0.138241
-0.154153
-0.16455
-0.172124
-0.182673
-0.185097
-0.18906
-0.23629
-0.214958
-0.533861
-1.61471
-4.82333
-13.532
-27.475
-44.4167
-0.190572
-0.183337
-0.174923
-0.166022
-0.158076
-0.150955
-0.144623
-0.139412
-0.135563
-0.133045
-0.131712
-0.131416
-0.132035
-0.133467
-0.135622
-0.138421
-0.141786
-0.145654
-0.149963
-0.154645
-0.159605
-0.16471
-0.169787
-0.17465
-0.179159
-0.183327
-0.187443
-0.192422
-0.201086
-0.214867
-0.229898
-0.243464
-0.259473
-0.285259
-0.315172
-0.348394
-0.402141
-0.39407
-0.337305
-0.405829
-0.773402
-1.81211
-2.80203
-7.8751
-14.9114
-0.25518
-0.247479
-0.238914
-0.230204
-0.22258
-0.215928
-0.210204
-0.205579
-0.202168
-0.199952
-0.198835
-0.198711
-0.199481
-0.20106
-0.203373
-0.206345
-0.209908
-0.214001
-0.218565
-0.22353
-0.228812
-0.2343
-0.239869
-0.245412
-0.250902
-0.256476
-0.262515
-0.269798
-0.279863
-0.293412
-0.308814
-0.325213
-0.345034
-0.372494
-0.406947
-0.450911
-0.510201
-0.546576
-0.563485
-0.604473
-0.588422
-0.68342
-0.868007
-1.45222
-2.22919
-0.32129
-0.313078
-0.304423
-0.295952
-0.288699
-0.282537
-0.277385
-0.273309
-0.270357
-0.268501
-0.267671
-0.267783
-0.268758
-0.270529
-0.273032
-0.276205
-0.279987
-0.284322
-0.289153
-0.294418
-0.300042
-0.305942
-0.312038
-0.318285
-0.324732
-0.331575
-0.339206
-0.348254
-0.35963
-0.373798
-0.390249
-0.408909
-0.431192
-0.459288
-0.493805
-0.536586
-0.589499
-0.639741
-0.694842
-0.76709
-0.819578
-0.908916
-0.931365
-0.947024
-1.00818
-0.388839
-0.380204
-0.371625
-0.363479
-0.356629
-0.350944
-0.346309
-0.342731
-0.340214
-0.338723
-0.338194
-0.338561
-0.339763
-0.341745
-0.344457
-0.347846
-0.35186
-0.356446
-0.361552
-0.367122
-0.373097
-0.379423
-0.386055
-0.392998
-0.40034
-0.408302
-0.417251
-0.427698
-0.440261
-0.455329
-0.472893
-0.493199
-0.517228
-0.546317
-0.581139
-0.622626
-0.671377
-0.723199
-0.782707
-0.857061
-0.936728
-1.03471
-1.1055
-1.18768
-1.29223
-0.45781
-0.448939
-0.440641
-0.432927
-0.426512
-0.421285
-0.417118
-0.413985
-0.411866
-0.410716
-0.41048
-0.411102
-0.412536
-0.414739
-0.41767
-0.421285
-0.425538
-0.430378
-0.435756
-0.441627
-0.447951
-0.454696
-0.461851
-0.469451
-0.477606
-0.486538
-0.496582
-0.508168
-0.521768
-0.537742
-0.556289
-0.577773
-0.602951
-0.632764
-0.667853
-0.708788
-0.755868
-0.807595
-0.86603
-0.934853
-1.01164
-1.10025
-1.18603
-1.28126
-1.38071
-0.528228
-0.519366
-0.511545
-0.504359
-0.498407
-0.493617
-0.489871
-0.48713
-0.485362
-0.484519
-0.484551
-0.485413
-0.487072
-0.489496
-0.492649
-0.496493
-0.500982
-0.506069
-0.511709
-0.517869
-0.524527
-0.531674
-0.539323
-0.547524
-0.556398
-0.56616
-0.577116
-0.589641
-0.604129
-0.620914
-0.640273
-0.662586
-0.688459
-0.71861
-0.753624
-0.79398
-0.839933
-0.891043
-0.948244
-1.01308
-1.08465
-1.16411
-1.24607
-1.33345
-1.42356
-0.600141
-0.591556
-0.584357
-0.577765
-0.572292
-0.567918
-0.564551
-0.562151
-0.560685
-0.560106
-0.560373
-0.561454
-0.563325
-0.565961
-0.569331
-0.573398
-0.578112
-0.583428
-0.58931
-0.595738
-0.60271
-0.610233
-0.618333
-0.62707
-0.636567
-0.647028
-0.65874
-0.672039
-0.687269
-0.704736
-0.724724
-0.747587
-0.773822
-0.804008
-0.838668
-0.87823
-0.922952
-0.972806
-1.02827
-1.08999
-1.15753
-1.23093
-1.30767
-1.38817
-1.4711
-0.673601
-0.665538
-0.659038
-0.653069
-0.648077
-0.644099
-0.641073
-0.638971
-0.637761
-0.637407
-0.637877
-0.639151
-0.641215
-0.64405
-0.647626
-0.651899
-0.656817
-0.662337
-0.668434
-0.675105
-0.682362
-0.690226
-0.698728
-0.707932
-0.717954
-0.728995
-0.741327
-0.755259
-0.771094
-0.789101
-0.809537
-0.832717
-0.859057
-0.889046
-0.92315
-0.96175
-1.00509
-1.05325
-1.10649
-1.1651
-1.22885
-1.29746
-1.36954
-1.44469
-1.52176
-0.748636
-0.741289
-0.735494
-0.73014
-0.725621
-0.722018
-0.719304
-0.717465
-0.716476
-0.716312
-0.716956
-0.718401
-0.72064
-0.723658
-0.727419
-0.731874
-0.736966
-0.742659
-0.748941
-0.755825
-0.763335
-0.771499
-0.780348
-0.789943
-0.8004
-0.811916
-0.82475
-0.83919
-0.855497
-0.873901
-0.894617
-0.917916
-0.944158
-0.973769
-1.00717
-1.04468
-1.08651
-1.13275
-1.18355
-1.23902
-1.29903
-1.36327
-1.43085
-1.50107
-1.57289
-0.825228
-0.818722
-0.813587
-0.808814
-0.804748
-0.801501
-0.799079
-0.797478
-0.796684
-0.796686
-0.797483
-0.799079
-0.801476
-0.804657
-0.808579
-0.813183
-0.818415
-0.824246
-0.830679
-0.837744
-0.845472
-0.853892
-0.863031
-0.872946
-0.883752
-0.895646
-0.908879
-0.923711
-0.940366
-0.959027
-0.979869
-1.00312
-1.02911
-1.05821
-1.09079
-1.12712
-1.16736
-1.21159
-1.25987
-1.31228
-1.36872
-1.42891
-1.49218
-1.55779
-1.62485
-0.903312
-0.897696
-0.893148
-0.888907
-0.885269
-0.882363
-0.880217
-0.878837
-0.878223
-0.878376
-0.879311
-0.881046
-0.883586
-0.886909
-0.890961
-0.895679
-0.901012
-0.906945
-0.913497
-0.92071
-0.928621
-0.937253
-0.946627
-0.956794
-0.967871
-0.980056
-0.993588
-1.0087
-1.02558
-1.04437
-1.06521
-1.08829
-1.1139
-1.14239
-1.17407
-1.20916
-1.24777
-1.28995
-1.33576
-1.38524
-1.43834
-1.4948
-1.55407
-1.61548
-1.67822
-0.982776
-0.978033
-0.973994
-0.970232
-0.966995
-0.964415
-0.962534
-0.961368
-0.960924
-0.961221
-0.962288
-0.964154
-0.966822
-0.970263
-0.974414
-0.979211
-0.98461
-0.990613
-0.997255
-1.00459
-1.01265
-1.02145
-1.031
-1.04135
-1.05263
-1.06502
-1.07876
-1.09405
-1.11105
-1.12985
-1.15057
-1.17337
-1.19853
-1.22634
-1.25706
-1.29086
-1.32783
-1.368
-1.41144
-1.45818
-1.5082
-1.56125
-1.61687
-1.67446
-1.73334
-1.06347
-1.05954
-1.05594
-1.05261
-1.04975
-1.04748
-1.04586
-1.0449
-1.04463
-1.04507
-1.04626
-1.04825
-1.05104
-1.05457
-1.05879
-1.06364
-1.06907
-1.07512
-1.08183
-1.08925
-1.09742
-1.10635
-1.11602
-1.1265
-1.1379
-1.15042
-1.16428
-1.17965
-1.19667
-1.21539
-1.23591
-1.25837
-1.28301
-1.31009
-1.33982
-1.37233
-1.40768
-1.44592
-1.48712
-1.53134
-1.57854
-1.6285
-1.68082
-1.73498
-1.79044
-1.14524
-1.14202
-1.1388
-1.13587
-1.13336
-1.13139
-1.13002
-1.12927
-1.12917
-1.12976
-1.13109
-1.1332
-1.13608
-1.13969
-1.14396
-1.14883
-1.15428
-1.16035
-1.1671
-1.17459
-1.18284
-1.19184
-1.20159
-1.21213
-1.22359
-1.23616
-1.25006
-1.26544
-1.2824
-1.30097
-1.32123
-1.3433
-1.36738
-1.39369
-1.42242
-1.45365
-1.48744
-1.52387
-1.56301
-1.60493
-1.64957
-1.69676
-1.74614
-1.79727
-1.84972
-1.22791
-1.22531
-1.22243
-1.21986
-1.21768
-1.21601
-1.21489
-1.21435
-1.21443
-1.21517
-1.21664
-1.21887
-1.22184
-1.2255
-1.22979
-1.23466
-1.24011
-1.24619
-1.25297
-1.26051
-1.2688
-1.27784
-1.2876
-1.29815
-1.30961
-1.32217
-1.33605
-1.35137
-1.36821
-1.38659
-1.40655
-1.42819
-1.45169
-1.47722
-1.50494
-1.53494
-1.56728
-1.60204
-1.63931
-1.67915
-1.72151
-1.76623
-1.81303
-1.86156
-1.91142
-1.31133
-1.30924
-1.30668
-1.30445
-1.30259
-1.30121
-1.30034
-1.30001
-1.30027
-1.30118
-1.30278
-1.30512
-1.30816
-1.31187
-1.31618
-1.32104
-1.32649
-1.33257
-1.33937
-1.34692
-1.35523
-1.36426
-1.37399
-1.38449
-1.39591
-1.40842
-1.42223
-1.43745
-1.45413
-1.47228
-1.49191
-1.5131
-1.536
-1.56076
-1.58752
-1.61636
-1.64736
-1.68062
-1.71621
-1.7542
-1.79454
-1.83712
-1.88171
-1.92802
-1.97569
-1.39536
-1.3937
-1.39145
-1.38953
-1.38798
-1.38688
-1.38626
-1.38615
-1.3866
-1.38766
-1.38941
-1.39185
-1.39497
-1.39871
-1.40302
-1.40789
-1.41332
-1.41941
-1.42622
-1.43377
-1.44206
-1.45105
-1.46072
-1.47114
-1.48248
-1.49491
-1.50862
-1.52371
-1.5402
-1.55809
-1.57737
-1.59811
-1.62041
-1.64443
-1.67028
-1.69807
-1.72788
-1.7598
-1.79391
-1.83027
-1.86887
-1.90961
-1.95234
-1.9968
-2.04262
-1.47991
-1.47859
-1.47662
-1.47502
-1.47376
-1.47293
-1.47255
-1.47266
-1.47331
-1.47454
-1.47642
-1.47897
-1.48216
-1.48594
-1.49026
-1.49512
-1.50057
-1.50666
-1.51346
-1.521
-1.52925
-1.53816
-1.54775
-1.55809
-1.56933
-1.58167
-1.59527
-1.6102
-1.62648
-1.64409
-1.66301
-1.68329
-1.70503
-1.72836
-1.75341
-1.78027
-1.80903
-1.83977
-1.87258
-1.90753
-1.94464
-1.98386
-2.02504
-2.06796
-2.11224
-1.56487
-1.56383
-1.56215
-1.56084
-1.55986
-1.5593
-1.55917
-1.55949
-1.56033
-1.56173
-1.56375
-1.5664
-1.56966
-1.57348
-1.57783
-1.58271
-1.58817
-1.59427
-1.60106
-1.60856
-1.61675
-1.62559
-1.63509
-1.64535
-1.65651
-1.66875
-1.68221
-1.69696
-1.71302
-1.73034
-1.7489
-1.76875
-1.78997
-1.8127
-1.83704
-1.8631
-1.89094
-1.92067
-1.95237
-1.98614
-2.02202
-2.06
-2.09993
-2.14159
-2.18463
-1.65018
-1.64937
-1.64796
-1.64693
-1.64624
-1.64593
-1.64604
-1.64658
-1.6476
-1.64916
-1.65132
-1.65408
-1.65742
-1.6613
-1.66569
-1.67061
-1.67609
-1.68219
-1.68897
-1.69643
-1.70455
-1.71332
-1.72277
-1.73296
-1.74404
-1.75617
-1.76948
-1.78404
-1.79987
-1.81691
-1.83514
-1.85461
-1.87538
-1.89759
-1.92134
-1.94671
-1.97378
-2.00265
-2.03343
-2.06624
-2.10117
-2.13818
-2.17715
-2.21783
-2.25993
-1.73579
-1.73517
-1.73403
-1.73327
-1.73284
-1.73279
-1.73312
-1.73387
-1.73507
-1.7368
-1.73909
-1.74196
-1.7454
-1.74936
-1.75382
-1.75879
-1.76431
-1.77042
-1.77717
-1.78458
-1.79265
-1.80139
-1.8108
-1.82095
-1.83195
-1.84396
-1.8571
-1.87147
-1.88708
-1.90387
-1.92183
-1.94097
-1.96138
-1.98316
-2.00643
-2.03125
-2.05769
-2.08586
-2.11591
-2.14799
-2.18222
-2.21854
-2.25682
-2.29681
-2.33825
-1.82166
-1.8212
-1.82032
-1.81982
-1.81965
-1.81984
-1.8204
-1.82134
-1.82271
-1.82459
-1.82702
-1.83002
-1.83358
-1.83765
-1.84221
-1.84725
-1.8528
-1.85892
-1.86563
-1.873
-1.88104
-1.8898
-1.89922
-1.90934
-1.92026
-1.93213
-1.94511
-1.95931
-1.97473
-1.99133
-2.00906
-2.02795
-2.04806
-2.06953
-2.09243
-2.11684
-2.1428
-2.17044
-2.19994
-2.23151
-2.26528
-2.30118
-2.33904
-2.37861
-2.41968
-1.90778
-1.90745
-1.90681
-1.90656
-1.90665
-1.90707
-1.90784
-1.90896
-1.9105
-1.91253
-1.91511
-1.91826
-1.92196
-1.92617
-1.93084
-1.93596
-1.94156
-1.94768
-1.95438
-1.96172
-1.96979
-1.97859
-1.98806
-1.99817
-2.00902
-2.02078
-2.03363
-2.04768
-2.06296
-2.0794
-2.09697
-2.11566
-2.13556
-2.15678
-2.17943
-2.20354
-2.22917
-2.25646
-2.28562
-2.31689
-2.35041
-2.38612
-2.42381
-2.46323
-2.50418
-1.99414
-1.99392
-1.9935
-1.99347
-1.99378
-1.99443
-1.9954
-1.99671
-1.99843
-2.00063
-2.00338
-2.00669
-2.01055
-2.01489
-2.01969
-2.02491
-2.03058
-2.03674
-2.04346
-2.05085
)
;

boundaryField
{
    leftWall
    {
        type            calculated;
        value           nonuniform List<scalar> 
44
(
626.663
578.874
529.811
480.822
432.055
383.306
334.47
285.577
236.636
187.666
138.302
88.2099
38.7682
8.67932
-0.00351214
0.13416
0.0287947
-0.0111258
-0.0675473
-0.127906
-0.190572
-0.25518
-0.32129
-0.388839
-0.45781
-0.528228
-0.600141
-0.673601
-0.748636
-0.825228
-0.903312
-0.982776
-1.06347
-1.14524
-1.22791
-1.31133
-1.39536
-1.47991
-1.56487
-1.65018
-1.73579
-1.82166
-1.90778
-1.99414
)
;
    }
    rightWall
    {
        type            calculated;
        value           nonuniform 0();
    }
    lowerWall
    {
        type            calculated;
        value           nonuniform List<scalar> 
44
(
650.207
648.154
649.681
653.741
659.659
665.958
672.06
677.603
682.504
686.746
690.386
693.512
696.228
698.638
700.843
702.939
705.016
707.156
709.434
711.921
714.68
717.776
721.27
725.227
729.717
734.822
740.636
747.281
754.911
763.749
773.945
785.656
799.033
814.228
831.355
850.347
870.861
892.196
913.287
932.685
949.722
960.455
966.466
972.562
)
;
    }
    atmosphere
    {
        type            calculated;
        value           nonuniform 0();
    }
    defaultFaces
    {
        type            empty;
    }
    procBoundary0to1
    {
        type            processor;
        value           nonuniform List<scalar> 
44
(
963.255
900.524
849.124
811.877
781.255
751.297
718.548
678.447
624.86
544.328
397.421
307.343
258.38
208.463
157.751
108.632
59.5196
7.69167
-43.5735
-55.8969
-55.8969
-24.6348
-3.14599
-1.21134
-1.31882
-1.45471
-1.50908
-1.55343
-1.59881
-1.64493
-1.69223
-1.74138
-1.79276
-1.84655
-1.90294
-1.96213
-2.02425
-2.08934
-2.15746
-2.22867
-2.30309
-2.38085
-2.46197
-2.54637
)
;
    }
    procBoundary0to2
    {
        type            processor;
        value           nonuniform List<scalar> 
46
(
-2.05897
-2.06781
-2.07732
-2.08744
-2.09829
-2.11001
-2.12279
-2.13674
-2.15189
-2.1682
-2.18563
-2.20419
-2.22394
-2.24501
-2.26748
-2.29142
-2.31688
-2.34402
-2.37306
-2.40424
-2.43769
-2.47336
-2.51107
-2.55055
-2.5916
-2.08073
-2.08059
-2.08036
-2.08052
-2.08103
-2.08188
-2.08306
-2.08459
-2.08652
-2.08892
-2.09185
-2.09532
-2.09933
-2.10381
-2.10873
-2.11407
-2.11984
-2.1261
-2.13292
-2.05897
-2.1404
)
;
    }
}


// ************************************************************************* //
