/*--------------------------------*- C++ -*----------------------------------*\
| =========                 |                                                 |
| \\      /  F ield         | OpenFOAM: The Open Source CFD Toolbox           |
|  \\    /   O peration     | Version:  5.0                                   |
|   \\  /    A nd           | Web:      www.OpenFOAM.org                      |
|    \\/     M anipulation  |                                                 |
\*---------------------------------------------------------------------------*/
FoamFile
{
    version     2.0;
    format      ascii;
    class       volScalarField;
    location    "0.5";
    object      p_rgh;
}
// * * * * * * * * * * * * * * * * * * * * * * * * * * * * * * * * * * * * * //

dimensions      [1 -1 -2 0 0 0 0];

internalField   nonuniform List<scalar> 
1935
(
650.207
648.154
649.681
653.741
659.659
665.958
672.06
677.603
682.504
686.746
690.386
693.512
696.228
698.638
700.843
702.939
705.016
707.156
709.434
711.921
714.68
717.776
721.27
725.227
729.717
734.822
740.636
747.281
754.911
763.749
773.945
785.656
799.033
814.228
831.355
850.347
870.861
892.196
913.287
932.685
949.722
960.455
966.466
972.562
649.505
646.766
647.436
650.792
655.677
661.153
666.65
671.839
676.564
680.767
684.461
687.7
690.564
693.138
695.513
697.78
700.024
702.327
704.766
707.414
710.34
713.613
717.301
721.478
726.222
731.624
737.79
744.844
752.93
762.205
772.948
785.342
799.591
815.904
834.377
854.957
877.311
900.677
923.776
944.785
962.321
971.383
968.281
967.026
647.529
645.816
647.041
649.534
653.296
657.739
662.387
666.924
671.178
675.062
678.558
681.692
684.518
687.104
689.525
691.863
694.196
696.603
699.161
701.942
705.02
708.467
712.357
716.771
721.795
727.528
734.084
741.595
750.214
760.113
771.527
784.663
799.726
816.867
836.146
857.467
880.461
904.349
927.834
949.048
966.226
976.936
972.29
968.732
645.627
644.946
646.495
648.694
651.767
655.402
659.27
663.129
666.825
670.271
673.435
676.325
678.979
681.45
683.803
686.11
688.443
690.877
693.485
696.343
699.522
703.099
707.151
711.762
717.022
723.036
729.92
737.81
746.858
757.23
769.128
782.759
798.305
815.882
835.507
857.033
880.057
903.808
927.075
948.163
965.295
976.537
977.383
972.971
643.947
644.539
646.201
648.217
650.813
653.838
657.069
660.33
663.493
666.481
669.262
671.839
674.24
676.512
678.712
680.905
683.16
685.547
688.14
691.01
694.231
697.879
702.033
706.777
712.204
718.416
725.532
733.681
743.012
753.682
765.87
779.758
795.498
813.178
832.78
854.131
876.828
900.161
923.066
944.112
961.725
974.349
980.888
983.521
642.285
644.114
645.928
647.808
650.051
652.604
655.321
658.072
660.756
663.308
665.702
667.94
670.05
672.076
674.07
676.096
678.22
680.509
683.035
685.869
689.084
692.754
696.959
701.781
707.31
713.647
720.905
729.207
738.692
749.509
761.814
775.764
791.485
809.036
828.377
849.326
871.5
894.271
916.739
937.742
956.001
970.374
980.638
991.213
640.536
643.364
645.397
647.214
649.202
651.393
653.701
656.029
658.294
660.446
662.466
664.363
666.166
667.92
669.679
671.504
673.46
675.614
678.037
680.799
683.971
687.627
691.842
696.697
702.277
708.678
716.003
724.368
733.9
744.733
757.009
770.863
786.396
803.649
822.568
842.972
864.509
886.626
908.568
929.397
948.125
964.02
977.565
993.911
638.729
642.311
644.526
646.285
648.077
649.997
651.994
653.984
655.894
657.687
659.357
660.92
662.413
663.883
665.387
666.988
668.752
670.746
673.039
675.701
678.803
682.415
686.61
691.462
697.052
703.466
710.799
719.153
728.642
739.385
751.509
765.134
780.348
797.176
815.559
835.325
856.148
877.534
898.831
919.256
938.025
954.69
970.157
990.291
636.875
640.996
643.26
644.912
646.543
648.276
650.059
651.795
653.415
654.894
656.241
657.484
658.669
659.849
661.088
662.45
664.004
665.818
667.961
670.503
673.513
677.059
681.209
686.032
691.6
697.988
705.28
713.563
722.935
733.499
745.368
758.657
773.445
789.752
807.518
826.589
846.651
867.239
887.759
907.487
925.69
941.909
956.859
976.41
634.993
639.379
641.53
643.007
644.498
646.124
647.791
649.361
650.754
651.963
653.013
653.952
654.834
655.724
656.689
657.803
659.135
660.755
662.734
665.142
668.046
671.512
675.602
680.378
685.902
692.238
699.455
707.623
716.819
727.129
738.652
751.508
765.786
781.494
798.584
816.926
836.209
855.96
875.602
894.365
911.372
925.762
937.2
949.522
633.137
637.318
639.19
640.338
641.634
643.223
644.888
646.382
647.603
648.57
649.341
649.981
650.56
651.152
651.836
652.693
653.795
655.217
657.029
659.305
662.111
665.51
669.557
674.302
679.795
686.087
693.23
701.271
710.261
720.267
731.37
743.711
757.404
772.443
788.792
806.384
824.894
843.803
862.545
880.234
895.689
907.33
912.925
909.364
631.199
634.531
635.878
636.358
637.378
639.091
640.943
642.444
643.494
644.191
644.651
644.964
645.21
645.476
645.855
646.436
647.299
648.518
650.168
652.327
655.062
658.434
662.487
667.258
672.783
679.096
686.228
694.198
703.026
712.74
723.414
735.248
748.295
762.617
778.185
795.035
812.811
830.91
848.86
865.668
879.961
889.844
892.358
882.21
620.644
609.944
613.6
620.305
628.624
635.343
638.334
639.898
640.696
641.037
641.127
641.072
640.953
640.863
640.899
641.158
641.715
642.636
643.995
645.873
648.347
651.477
655.31
659.882
665.228
671.387
678.384
686.21
694.839
704.227
714.407
725.753
738.106
751.722
766.591
782.9
800.137
817.516
834.883
851.189
865.046
874.689
877.61
870.506
248.624
206.662
217.858
247.024
294.855
359.073
417.613
453.247
476.253
492.581
504.919
514.025
520.503
525.175
528.929
532.608
536.695
541.547
547.687
555.676
565.945
578.701
593.852
611.031
629.578
648.427
665.944
679.697
688.478
696.628
705.292
714.926
726.303
738.809
752.835
769.061
786.399
803.404
820.639
836.923
850.956
861.299
865.885
862.569
0.686636
0.969956
0.901312
0.843869
0.848372
0.826498
6.45237
20.0686
31.0759
40.1046
47.761
53.943
58.6663
62.2568
65.231
68.1926
71.5016
75.4762
80.6545
87.7268
97.4804
110.822
128.803
152.831
184.968
228.359
287.751
367.595
460.056
547.365
626.545
686.812
717.624
727.356
737.513
752.363
769.994
786.893
805.028
822.293
837.286
849.067
855.821
856.04
0.874276
0.87285
0.885949
0.901351
0.915024
0.917556
0.905681
0.884822
0.863596
0.844311
0.828898
0.816774
0.806974
0.798946
0.792502
0.787525
0.78382
0.781134
0.779376
0.778597
0.778798
0.779804
0.781225
0.782461
0.782702
0.781581
0.780103
0.783191
8.21522
40.2342
96.5963
204.749
400.006
614.135
736.769
743.147
755.011
767.204
785.666
804.957
822.23
836.835
846.657
851.071
0.819341
0.848289
0.864699
0.87593
0.885455
0.894176
0.910202
0.92679
0.93651
0.942462
0.946448
0.949
0.950315
0.950503
0.949653
0.947846
0.945141
0.941539
0.937018
0.93161
0.925439
0.918739
0.911891
0.905494
0.900559
0.899663
0.911178
0.948922
0.950858
0.829021
0.694018
0.63849
1.90798
18.3641
98.9217
431.09
762.194
764.678
771.481
786.048
803.373
821.678
835.865
845.959
0.83032
0.842332
0.85222
0.861506
0.86955
0.877559
0.888283
0.898107
0.904424
0.908225
0.910424
0.911457
0.911519
0.910708
0.909108
0.906813
0.903912
0.900448
0.896434
0.891912
0.887
0.881905
0.876962
0.872672
0.869791
0.869742
0.876126
0.89352
0.898068
0.872263
0.859315
0.89524
0.931924
0.752078
0.305666
14.3201
68.0943
236.965
669.815
797.909
796.588
807.944
822.08
837.928
0.82527
0.83393
0.842392
0.851404
0.85946
0.867041
0.874751
0.881321
0.885802
0.888457
0.889752
0.889997
0.889358
0.887936
0.885822
0.883116
0.87991
0.876283
0.872295
0.868008
0.863518
0.858984
0.854656
0.850903
0.848195
0.847113
0.848541
0.852876
0.850194
0.833978
0.8185
0.815932
0.827605
0.850607
0.886418
0.748374
0.120465
-0.31599
55.3726
187.528
535.95
837.094
831.68
838.409
0.81676
0.82411
0.83246
0.841497
0.84963
0.85708
0.863984
0.869747
0.873908
0.876545
0.877911
0.878218
0.87761
0.876191
0.874055
0.871295
0.867999
0.86425
0.860118
0.855679
0.851027
0.846302
0.841711
0.837522
0.834016
0.83139
0.829636
0.827972
0.821204
0.806153
0.790258
0.779875
0.772312
0.761778
0.759481
0.755603
0.708374
0.729717
0.411789
-0.667067
25.9286
114.957
342.38
772.181
0.806424
0.813659
0.822073
0.830974
0.83892
0.846041
0.852373
0.857584
0.861433
0.863951
0.865284
0.865579
0.864955
0.863511
0.861335
0.85851
0.855114
0.851217
0.846885
0.842187
0.837219
0.832113
0.827038
0.82218
0.817676
0.813512
0.809399
0.804421
0.795757
0.781974
0.76694
0.753371
0.737358
0.711565
0.681652
0.648479
0.594852
0.602926
0.65969
0.591183
0.224155
-0.813315
2.95283
60.499
146.746
0.794632
0.802334
0.810898
0.819608
0.827232
0.833885
0.839608
0.844233
0.847644
0.84986
0.850977
0.851101
0.850331
0.848749
0.846434
0.843458
0.83989
0.835792
0.831224
0.826254
0.820968
0.815475
0.809902
0.804354
0.798858
0.793277
0.78723
0.779937
0.769862
0.756303
0.74089
0.724481
0.704649
0.677177
0.642708
0.598727
0.539432
0.503128
0.486327
0.445338
0.461385
0.366398
0.181871
-0.401794
-1.17886
0.781829
0.790041
0.798695
0.807166
0.81442
0.820582
0.825734
0.829809
0.832762
0.834617
0.835447
0.835336
0.83436
0.832589
0.830086
0.826913
0.823131
0.818795
0.813963
0.808698
0.803071
0.797168
0.791069
0.784818
0.778366
0.771517
0.763878
0.754822
0.743438
0.729261
0.7128
0.69413
0.671838
0.64373
0.609199
0.5664
0.513462
0.463203
0.4081
0.335889
0.28354
0.194202
0.17175
0.156093
0.0949367
0.76808
0.776716
0.785295
0.793441
0.800291
0.805976
0.810611
0.814189
0.816706
0.818197
0.818726
0.818359
0.817157
0.815174
0.812463
0.809074
0.80506
0.800473
0.795367
0.789797
0.78382
0.777493
0.770859
0.763914
0.756568
0.748603
0.73965
0.729198
0.71663
0.701556
0.683986
0.663673
0.639637
0.610541
0.575709
0.534212
0.485445
0.433603
0.374071
0.299701
0.220045
0.122092
0.0513828
-0.0307576
-0.135308
0.75341
0.762282
0.770579
0.778294
0.784709
0.789936
0.794103
0.797236
0.799355
0.800504
0.80074
0.800118
0.798685
0.796482
0.793551
0.789935
0.785683
0.780843
0.775464
0.769593
0.763269
0.756523
0.749366
0.741766
0.733609
0.724675
0.714628
0.70304
0.689437
0.67346
0.65491
0.633422
0.60824
0.578422
0.543328
0.502387
0.455301
0.403565
0.345118
0.27628
0.19948
0.110867
0.025098
-0.0701046
-0.169532
0.737798
0.746659
0.754481
0.761667
0.767619
0.772408
0.776155
0.778895
0.780664
0.781507
0.781475
0.780612
0.778953
0.77653
0.773376
0.769532
0.765043
0.759957
0.754316
0.748157
0.741498
0.73435
0.726701
0.7185
0.709625
0.699862
0.688905
0.676379
0.66189
0.645102
0.625742
0.603427
0.577552
0.547398
0.512382
0.472024
0.426068
0.374954
0.317748
0.252906
0.181332
0.101863
0.0198969
-0.0674795
-0.157586
0.721198
0.729783
0.736983
0.743574
0.749047
0.753421
0.756789
0.759188
0.760655
0.761233
0.760966
0.759885
0.758015
0.755379
0.752008
0.747942
0.743227
0.737912
0.73203
0.725601
0.71863
0.711107
0.703006
0.694268
0.684771
0.67431
0.662598
0.649298
0.634068
0.616599
0.596611
0.573747
0.547511
0.517324
0.482663
0.443099
0.398376
0.348522
0.293054
0.231338
0.163795
0.0903901
0.0136407
-0.0668533
-0.149784
0.703566
0.711629
0.718129
0.724098
0.729089
0.733068
0.736094
0.738196
0.739406
0.73976
0.73929
0.738016
0.735952
0.733117
0.729541
0.725268
0.72035
0.71483
0.708733
0.702062
0.694804
0.686941
0.678438
0.669235
0.659212
0.648171
0.635839
0.621906
0.606072
0.588064
0.567628
0.544448
0.518108
0.488118
0.454014
0.415413
0.372076
0.323915
0.27067
0.212064
0.148311
0.0797024
0.00761375
-0.0675352
-0.144599
0.684877
0.692224
0.698018
0.703372
0.707892
0.711495
0.714208
0.716048
0.717037
0.717201
0.716557
0.715112
0.712873
0.709855
0.706094
0.701639
0.696546
0.690853
0.684571
0.677688
0.670177
0.662014
0.653164
0.64357
0.633112
0.621597
0.608762
0.594323
0.578015
0.559611
0.538895
0.515596
0.489354
0.459742
0.426344
0.388831
0.347001
0.300757
0.249963
0.194493
0.134477
0.0702387
0.00266164
-0.0675608
-0.139385
0.665154
0.67166
0.676794
0.681568
0.685634
0.68888
0.691302
0.692904
0.693698
0.693695
0.692899
0.691303
0.688905
0.685724
0.681802
0.677198
0.671967
0.666136
0.659702
0.652638
0.64491
0.63649
0.62735
0.617436
0.606629
0.594735
0.581503
0.566671
0.550015
0.531355
0.510513
0.487258
0.461272
0.432172
0.399594
0.36326
0.323017
0.278793
0.230509
0.178101
0.121659
0.0614744
-0.00179465
-0.0674132
-0.134464
0.644466
0.650083
0.65463
0.658872
0.66251
0.665416
0.667562
0.668942
0.669556
0.669403
0.668468
0.666733
0.664192
0.66087
0.656817
0.6521
0.646767
0.640834
0.634281
0.627069
0.619158
0.610526
0.601152
0.590985
0.579907
0.567723
0.554191
0.539076
0.522194
0.503405
0.482571
0.459491
0.433879
0.40539
0.373712
0.338623
0.300012
0.25783
0.212021
0.162535
0.109435
0.0529796
-0.0062938
-0.0677006
-0.130443
0.622932
0.627675
0.631715
0.635477
0.638713
0.641294
0.643175
0.644341
0.644784
0.644488
0.64342
0.641555
0.638886
0.635446
0.631294
0.626498
0.621098
0.615095
0.608453
0.601122
0.593063
0.584263
0.57471
0.564356
0.553081
0.54069
0.526952
0.511658
0.494661
0.475857
0.455141
0.432335
0.407179
0.379373
0.348651
0.314845
0.277877
0.237704
0.194272
0.147525
0.0975096
0.0444587
-0.0111635
-0.068752
-0.127636
0.600704
0.604638
0.608239
0.611569
0.614431
0.616698
0.61832
0.619277
0.619551
0.61911
0.617912
0.615922
0.61314
0.609606
0.605385
0.60054
0.595103
0.589056
0.582349
0.574926
0.566754
0.55783
0.548152
0.537675
0.526275
0.513757
0.4999
0.484523
0.467507
0.448782
0.428265
0.405803
0.381164
0.354088
0.32436
0.291849
0.256496
0.218255
0.177055
0.132838
0.0856412
0.0356772
-0.0166442
-0.0708039
-0.126263
0.577949
0.581166
0.584384
0.587321
0.589831
0.591796
0.593164
0.593912
0.594014
0.593425
0.592092
0.589983
0.587102
0.583495
0.579229
0.574362
0.56891
0.56284
0.556088
0.548597
0.540345
0.531343
0.521596
0.511058
0.4996
0.487026
0.473128
0.457747
0.440792
0.422216
0.401957
0.379887
0.355806
0.329492
0.300772
0.269541
0.235742
0.199314
0.160173
0.118262
0.0736173
0.0264293
-0.0229508
-0.0740849
-0.126537
0.554838
0.55744
0.560314
0.562889
0.565065
0.566737
0.567853
0.568392
0.568316
0.567572
0.566103
0.563879
0.56091
0.557247
0.552956
0.548084
0.542633
0.536553
0.529773
0.522238
0.513941
0.504905
0.495141
0.484598
0.47314
0.460571
0.446696
0.431373
0.414535
0.396158
0.3762
0.354555
0.331058
0.305522
0.277802
0.247806
0.215466
0.180704
0.143434
0.1036
0.06124
0.016516
-0.0302887
-0.0788131
-0.128671
0.531529
0.533617
0.536173
0.538408
0.540265
0.541651
0.542518
0.542843
0.542584
0.54168
0.540074
0.53774
0.534692
0.530985
0.526681
0.521815
0.516371
0.510287
0.50349
0.495934
0.487625
0.478598
0.468863
0.458362
0.446951
0.434434
0.420626
0.405405
0.388724
0.370579
0.35095
0.329755
0.306855
0.282094
0.25534
0.226499
0.195495
0.162238
0.126642
0.0886587
0.0483157
0.00573877
-0.0388548
-0.0851671
-0.13283
0.508162
0.509827
0.51208
0.513994
0.515545
0.51665
0.517271
0.517379
0.516931
0.515863
0.514119
0.511677
0.508558
0.504814
0.500502
0.495642
0.490203
0.484116
0.47731
0.469753
0.461464
0.452482
0.442811
0.432385
0.42105
0.408614
0.394904
0.379816
0.363322
0.345435
0.326154
0.30542
0.283115
0.259097
0.233243
0.205453
0.175642
0.143724
0.109612
0.0732549
0.0346616
-0.00608228
-0.0488119
-0.0932691
-0.139092
0.484853
0.486173
0.488135
0.489741
0.490997
0.49183
0.492205
0.492095
0.491454
0.490219
0.488337
0.48579
0.482601
0.478823
0.474499
0.469636
0.464193
0.458101
0.451295
0.443758
0.435514
0.426599
0.417012
0.406672
0.395425
0.383085
0.369494
0.354563
0.338279
0.32067
0.301749
0.281471
0.259732
0.2364
0.211354
0.184494
0.155734
0.12499
0.0921769
0.0572261
0.0201181
-0.0190957
-0.0602803
-0.103196
-0.147484
0.461694
0.462734
0.464412
0.465725
0.466696
0.467263
0.467395
0.467067
0.466234
0.464832
0.462813
0.460161
0.456902
0.453081
0.448733
0.443852
0.438395
0.432295
0.4255
0.417998
0.409813
0.400975
0.391468
0.381209
0.370049
0.357812
0.344355
0.3296
0.313544
0.296223
0.277657
0.25781
0.236586
0.213862
0.189521
0.163466
0.135617
0.105891
0.0741898
0.0404222
0.00453698
-0.0334367
-0.0733706
-0.115031
-0.158074
0.43876
0.43957
0.440973
0.442004
0.4427
0.443006
0.442901
0.44236
0.441338
0.439772
0.437617
0.434858
0.43152
0.42764
0.423247
0.41833
0.412848
0.406741
0.399965
0.392508
0.384385
0.375612
0.366167
0.355972
0.344892
0.332765
0.319456
0.304892
0.289071
0.272029
0.253792
0.234329
0.213552
0.191346
0.1676
0.142227
0.115152
0.0862856
0.0555074
0.0226939
-0.0122308
-0.0492444
-0.0882106
-0.128894
-0.170991
0.416104
0.416725
0.417863
0.418623
0.419051
0.419104
0.418769
0.418022
0.416818
0.415095
0.412804
0.40993
0.406495
0.402534
0.398071
0.393101
0.387585
0.381473
0.374723
0.367314
0.359243
0.350503
0.341086
0.330937
0.319938
0.307935
0.294787
0.280416
0.264814
0.24802
0.230063
0.210923
0.190515
0.168728
0.145461
0.12064
0.0941971
0.0660289
0.0359831
0.00389693
-0.0303254
-0.0666536
-0.104931
-0.144919
-0.186362
0.393769
0.394231
0.395112
0.395611
0.395779
0.395588
0.395033
0.394092
0.392717
0.390841
0.38841
0.385406
0.381851
0.377781
0.373225
0.368183
0.362629
0.356515
0.349796
0.342434
0.334385
0.325634
0.316205
0.306085
0.295171
0.283302
0.270317
0.256121
0.240701
0.224102
0.206368
0.187484
0.167368
0.145904
0.122997
0.0985909
0.0726286
0.0449935
0.0154925
-0.0160823
-0.0498477
-0.0857549
-0.123614
-0.163183
-0.204247
0.371779
0.372107
0.372745
0.372994
0.372912
0.372488
0.371723
0.370599
0.36906
0.36703
0.36445
0.361298
0.357597
0.353393
0.348722
0.343597
0.337996
0.331876
0.325182
0.317838
0.309765
0.300968
0.291503
0.28139
0.270541
0.25878
0.245931
0.231877
0.216602
0.200155
0.182589
0.163898
0.143999
0.122775
0.100132
0.0760196
0.0503842
0.0230972
-0.00606251
-0.0373347
-0.0708522
-0.106561
-0.144247
-0.183667
-0.224617
0.350143
0.350363
0.350785
0.350811
0.350499
0.349853
0.348882
0.347568
0.345851
0.343652
0.340907
0.337593
0.333738
0.32939
0.324596
0.319372
0.313703
0.307545
0.300824
0.293437
)
;

boundaryField
{
    leftWall
    {
        type            fixedFluxPressure;
        gradient        uniform 0;
        value           nonuniform List<scalar> 
44
(
650.207
649.505
647.529
645.627
643.947
642.285
640.536
638.729
636.875
634.993
633.137
631.199
620.644
248.624
0.686636
0.874276
0.819341
0.83032
0.82527
0.81676
0.806424
0.794632
0.781829
0.76808
0.75341
0.737798
0.721198
0.703566
0.684877
0.665154
0.644466
0.622932
0.600704
0.577949
0.554838
0.531529
0.508162
0.484853
0.461694
0.43876
0.416104
0.393769
0.371779
0.350143
)
;
    }
    rightWall
    {
        type            fixedFluxPressure;
        gradient        nonuniform 0();
        value           nonuniform 0();
    }
    lowerWall
    {
        type            fixedFluxPressure;
        gradient        uniform 0;
        value           nonuniform List<scalar> 
44
(
650.207
648.154
649.681
653.741
659.659
665.958
672.06
677.603
682.504
686.746
690.386
693.512
696.228
698.638
700.843
702.939
705.016
707.156
709.434
711.921
714.68
717.776
721.27
725.227
729.717
734.822
740.636
747.281
754.911
763.749
773.945
785.656
799.033
814.228
831.355
850.347
870.861
892.196
913.287
932.685
949.722
960.455
966.466
972.562
)
;
    }
    atmosphere
    {
        type            totalPressure;
        rho             rho;
        psi             none;
        gamma           1;
        p0              nonuniform 0();
        value           nonuniform 0();
    }
    defaultFaces
    {
        type            empty;
    }
    procBoundary0to1
    {
        type            processor;
        value           nonuniform List<scalar> 
44
(
986.799
971.014
964.081
971.847
991.057
1010.28
1024.61
1031.6
1025.1
991.654
892.256
850.332
849.969
849.104
847.9
848.748
850.066
849.137
849.244
888.769
888.769
402.136
8.8495
-0.10821
-0.161897
-0.243505
-0.243095
-0.232114
-0.221653
-0.211422
-0.201845
-0.193605
-0.187051
-0.18237
-0.179754
-0.179385
-0.181388
-0.185817
-0.192701
-0.202105
-0.214152
-0.228961
-0.246545
-0.266813
)
;
    }
    procBoundary0to2
    {
        type            processor;
        value           nonuniform List<scalar> 
46
(
0.285314
0.276468
0.266966
0.256838
0.245996
0.234272
0.221492
0.207542
0.192392
0.17608
0.158651
0.140095
0.120338
0.09927
0.0767989
0.0528667
0.0274037
0.000266138
-0.0287752
-0.0599577
-0.093409
-0.129081
-0.166783
-0.206268
-0.247313
0.328879
0.329014
0.329248
0.329086
0.328579
0.327729
0.326549
0.32502
0.32309
0.320689
0.31776
0.314283
0.310282
0.305801
0.300882
0.295543
0.289768
0.283508
0.276685
0.285314
0.269208
)
;
    }
}


// ************************************************************************* //
