/*--------------------------------*- C++ -*----------------------------------*\
| =========                 |                                                 |
| \\      /  F ield         | OpenFOAM: The Open Source CFD Toolbox           |
|  \\    /   O peration     | Version:  5.0                                   |
|   \\  /    A nd           | Web:      www.OpenFOAM.org                      |
|    \\/     M anipulation  |                                                 |
\*---------------------------------------------------------------------------*/
FoamFile
{
    version     2.0;
    format      ascii;
    class       surfaceScalarField;
    location    "0.5";
    object      phi;
}
// * * * * * * * * * * * * * * * * * * * * * * * * * * * * * * * * * * * * * //

dimensions      [0 3 -1 0 0 0 0];

internalField   nonuniform List<scalar> 
3781
(
-2.90229e-06
2.90229e-06
-4.62099e-06
1.7187e-06
-4.66395e-06
4.29663e-08
-3.67603e-06
-9.87927e-07
-2.17632e-06
-1.4997e-06
-4.35083e-07
-1.74124e-06
1.38356e-06
-1.81864e-06
3.20012e-06
-1.81657e-06
4.96563e-06
-1.76551e-06
6.65487e-06
-1.68924e-06
8.2566e-06
-1.60174e-06
9.76764e-06
-1.51104e-06
1.11896e-05
-1.42198e-06
1.25269e-05
-1.3373e-06
1.37853e-05
-1.25839e-06
1.4971e-05
-1.18569e-06
1.609e-05
-1.11899e-06
1.71476e-05
-1.05761e-06
1.81482e-05
-1.00056e-06
1.90947e-05
-9.46532e-07
1.99887e-05
-8.94001e-07
2.08299e-05
-8.41191e-07
2.1616e-05
-7.8607e-07
2.23423e-05
-7.26304e-07
2.30014e-05
-6.59176e-07
2.35829e-05
-5.81442e-07
2.40719e-05
-4.89054e-07
2.44484e-05
-3.76501e-07
2.46841e-05
-2.35627e-07
2.47361e-05
-5.20126e-08
2.4537e-05
1.99086e-07
2.40314e-05
5.05615e-07
2.31619e-05
8.69449e-07
2.18594e-05
1.30248e-06
2.00542e-05
1.80529e-06
1.76806e-05
2.37354e-06
1.46925e-05
2.98814e-06
1.10831e-05
3.60935e-06
6.90227e-06
4.18086e-06
2.27033e-06
4.63194e-06
-2.79429e-06
5.06462e-06
-8.28025e-06
5.48596e-06
-1.25863e-05
4.30608e-06
7.82279e-07
-2.20252e-06
5.10481e-06
-2.47059e-06
1.98677e-06
-1.94046e-06
-4.87164e-07
-8.88176e-07
-2.04021e-06
4.84147e-07
-2.87203e-06
2.03168e-06
-3.28877e-06
3.66417e-06
-3.45113e-06
5.31119e-06
-3.46359e-06
6.93322e-06
-3.38753e-06
8.50625e-06
-3.26227e-06
1.00169e-05
-3.11234e-06
1.14588e-05
-2.953e-06
1.28305e-05
-2.79368e-06
1.41332e-05
-2.64001e-06
1.53698e-05
-2.49501e-06
1.6544e-05
-2.35986e-06
1.76595e-05
-2.23447e-06
1.87197e-05
-2.11779e-06
1.97272e-05
-2.00809e-06
2.06837e-05
-1.90304e-06
2.15895e-05
-1.79981e-06
2.24434e-05
-1.69508e-06
2.32423e-05
-1.585e-06
2.39812e-05
-1.46514e-06
2.46523e-05
-1.33033e-06
2.52454e-05
-1.17451e-06
2.57467e-05
-9.90419e-07
2.61394e-05
-7.69147e-07
2.64035e-05
-4.99728e-07
2.65199e-05
-1.6838e-07
2.64735e-05
2.45424e-07
2.62237e-05
7.55456e-07
2.57162e-05
1.37693e-06
2.48939e-05
2.12474e-06
2.36886e-05
3.01067e-06
2.20231e-05
4.03896e-06
1.98156e-05
5.1957e-06
1.69896e-05
6.43538e-06
1.34991e-05
7.67126e-06
9.36577e-06
8.76532e-06
4.80276e-06
9.62763e-06
3.11694e-07
9.97702e-06
-3.46771e-06
8.08549e-06
3.25645e-06
-1.08753e-06
6.19234e-06
-7.85957e-07
1.68519e-06
-4.13017e-09
-1.26899e-06
1.06174e-06
-3.10608e-06
2.34967e-06
-4.15996e-06
3.77081e-06
-4.70991e-06
5.25969e-06
-4.94001e-06
6.76828e-06
-4.97218e-06
8.26461e-06
-4.88386e-06
9.72768e-06
-4.72534e-06
1.11445e-05
-4.52919e-06
1.25079e-05
-4.31641e-06
1.38147e-05
-4.10044e-06
1.50642e-05
-3.88955e-06
1.62576e-05
-3.68839e-06
1.73967e-05
-3.499e-06
1.84838e-05
-3.32156e-06
1.95209e-05
-3.15484e-06
2.05093e-05
-2.99656e-06
2.14499e-05
-2.84357e-06
2.2342e-05
-2.69192e-06
2.31839e-05
-2.53696e-06
2.39721e-05
-2.37323e-06
2.47014e-05
-2.1944e-06
2.53642e-05
-1.99318e-06
2.59508e-05
-1.76105e-06
2.64484e-05
-1.48808e-06
2.68419e-05
-1.16258e-06
2.7113e-05
-7.70866e-07
2.72418e-05
-2.97165e-07
2.72091e-05
2.78141e-07
2.69888e-05
9.75695e-07
2.655e-05
1.81577e-06
2.58576e-05
2.81715e-06
2.48731e-05
3.9952e-06
2.35551e-05
5.35695e-06
2.18597e-05
6.89102e-06
1.97425e-05
8.55261e-06
1.71682e-05
1.02456e-05
1.41357e-05
1.17979e-05
1.07908e-05
1.29725e-05
7.4893e-06
1.32785e-05
4.10179e-06
1.1473e-05
6.56665e-06
-4.8149e-08
6.24049e-06
5.8022e-07
1.05682e-06
1.51226e-06
-2.20104e-06
2.62824e-06
-4.22206e-06
3.87724e-06
-5.40895e-06
5.21194e-06
-6.04461e-06
6.59383e-06
-6.32189e-06
7.99187e-06
-6.37023e-06
9.38287e-06
-6.27486e-06
1.075e-05
-6.09252e-06
1.2082e-05
-5.86113e-06
1.33716e-05
-5.606e-06
1.46149e-05
-5.34376e-06
1.58103e-05
-5.08497e-06
1.69577e-05
-4.83574e-06
1.80577e-05
-4.599e-06
1.91114e-05
-4.37524e-06
2.01197e-05
-4.16317e-06
2.10832e-05
-3.96009e-06
2.20018e-05
-3.76218e-06
2.28745e-05
-3.56457e-06
2.36989e-05
-3.3614e-06
2.44715e-05
-3.14582e-06
2.5187e-05
-2.90987e-06
2.58382e-05
-2.64437e-06
2.64158e-05
-2.33871e-06
2.69085e-05
-1.98073e-06
2.73023e-05
-1.55644e-06
2.75815e-05
-1.05002e-06
2.77282e-05
-4.4386e-07
2.7724e-05
2.82274e-07
2.75495e-05
1.15029e-06
2.71835e-05
2.18177e-06
2.66043e-05
3.39627e-06
2.57907e-05
4.80886e-06
2.47223e-05
6.42533e-06
2.33801e-05
8.23322e-06
2.17453e-05
1.01874e-05
1.98011e-05
1.21898e-05
1.75403e-05
1.40587e-05
1.5016e-05
1.54968e-05
1.23309e-05
1.59636e-05
9.35242e-06
1.44515e-05
9.93031e-06
8.21109e-07
5.41938e-06
1.68873e-06
1.89199e-07
2.76721e-06
-3.27951e-06
3.94177e-06
-5.39662e-06
5.17877e-06
-6.64595e-06
6.45763e-06
-7.32348e-06
7.76096e-06
-7.62522e-06
9.07218e-06
-7.68145e-06
1.03765e-05
-7.57916e-06
1.16617e-05
-7.3777e-06
1.29185e-05
-7.118e-06
1.41408e-05
-6.82825e-06
1.53245e-05
-6.52748e-06
1.64676e-05
-6.22804e-06
1.75692e-05
-5.93733e-06
1.86292e-05
-5.659e-06
1.96478e-05
-5.39388e-06
2.06253e-05
-5.14064e-06
2.15615e-05
-4.89627e-06
2.24556e-05
-4.65637e-06
2.33064e-05
-4.41529e-06
2.41111e-05
-4.16618e-06
2.48663e-05
-3.90096e-06
2.55667e-05
-3.61026e-06
2.62056e-05
-3.28329e-06
2.67746e-05
-2.9077e-06
2.72633e-05
-2.46946e-06
2.76597e-05
-1.95276e-06
2.79497e-05
-1.34011e-06
2.81184e-05
-6.12538e-07
2.81501e-05
2.50557e-07
2.80297e-05
1.27076e-06
2.77425e-05
2.46895e-06
2.72754e-05
3.86332e-06
2.66175e-05
5.46677e-06
2.57604e-05
7.2824e-06
2.46978e-05
9.29588e-06
2.34227e-05
1.14625e-05
2.19246e-05
1.36879e-05
2.01856e-05
1.57976e-05
1.81886e-05
1.74938e-05
1.58899e-05
1.82623e-05
1.30831e-05
1.72583e-05
1.34963e-05
1.3271e-06
4.09228e-06
2.54987e-06
-1.03358e-06
3.80006e-06
-4.52969e-06
5.04991e-06
-6.64647e-06
6.29452e-06
-7.89056e-06
7.5392e-06
-8.56816e-06
8.78565e-06
-8.87168e-06
1.00297e-05
-8.92552e-06
1.1264e-05
-8.81341e-06
1.24805e-05
-8.5942e-06
1.36724e-05
-8.30995e-06
1.48347e-05
-7.99055e-06
1.59639e-05
-7.65669e-06
1.7058e-05
-7.32207e-06
1.81157e-05
-6.99503e-06
1.91365e-05
-6.67982e-06
2.01201e-05
-6.37751e-06
2.10662e-05
-6.08673e-06
2.19741e-05
-5.8042e-06
2.28428e-05
-5.52507e-06
2.36705e-05
-5.24301e-06
2.44547e-05
-4.95032e-06
2.51916e-05
-4.63791e-06
2.58766e-05
-4.29521e-06
2.65034e-05
-3.91009e-06
2.70645e-05
-3.46878e-06
2.75507e-05
-2.95573e-06
2.79517e-05
-2.3537e-06
2.82555e-05
-1.64393e-06
2.84496e-05
-8.06607e-07
2.85213e-05
1.78827e-07
2.84591e-05
1.33294e-06
2.82532e-05
2.67486e-06
2.78962e-05
4.22034e-06
2.73837e-05
5.97925e-06
2.67143e-05
7.95177e-06
2.5888e-05
1.01222e-05
2.49023e-05
1.24482e-05
2.37463e-05
1.4844e-05
2.23894e-05
1.71545e-05
2.0768e-05
1.91152e-05
1.8746e-05
2.02843e-05
1.6034e-05
1.99703e-05
1.72805e-05
1.64177e-06
2.45051e-06
3.20929e-06
-2.6011e-06
4.65205e-06
-5.97245e-06
5.98619e-06
-7.98061e-06
7.24788e-06
-9.15225e-06
8.47135e-06
-9.79162e-06
9.67635e-06
-1.00767e-05
1.0869e-05
-1.01182e-05
1.20476e-05
-9.99201e-06
1.32076e-05
-9.75423e-06
1.43445e-05
-9.44682e-06
1.54545e-05
-9.10054e-06
1.6535e-05
-8.73714e-06
1.75841e-05
-8.3712e-06
1.86008e-05
-8.01174e-06
1.95843e-05
-7.66336e-06
2.05341e-05
-7.32727e-06
2.14494e-05
-7.00201e-06
2.23292e-05
-6.68405e-06
2.31723e-05
-6.36813e-06
2.39767e-05
-6.04741e-06
2.47398e-05
-5.71348e-06
2.54583e-05
-5.35641e-06
2.61278e-05
-4.96465e-06
2.67427e-05
-4.52503e-06
2.72966e-05
-4.02263e-06
2.77816e-05
-3.44075e-06
2.81889e-05
-2.76099e-06
2.85086e-05
-1.96369e-06
2.87306e-05
-1.02856e-06
2.88449e-05
6.45685e-08
2.8843e-05
1.33483e-06
2.87187e-05
2.7991e-06
2.84689e-05
4.47019e-06
2.80935e-05
6.3546e-06
2.75957e-05
8.44964e-06
2.69788e-05
1.07391e-05
2.62425e-05
1.31845e-05
2.53744e-05
1.57121e-05
2.43351e-05
1.81938e-05
2.30331e-05
2.04171e-05
2.12771e-05
2.20403e-05
1.87033e-05
2.25441e-05
2.1208e-05
1.8871e-06
5.63415e-07
3.75859e-06
-4.47259e-06
5.37583e-06
-7.58969e-06
6.78244e-06
-9.38722e-06
8.05689e-06
-1.04267e-05
9.26301e-06
-1.09977e-05
1.04362e-05
-1.12499e-05
1.15895e-05
-1.12715e-05
1.27245e-05
-1.1127e-05
1.38389e-05
-1.08686e-05
1.49299e-05
-1.05378e-05
1.59951e-05
-1.01657e-05
1.70328e-05
-9.77485e-06
1.80418e-05
-9.38019e-06
1.90211e-05
-8.99111e-06
1.99702e-05
-8.61238e-06
2.08881e-05
-8.24518e-06
2.1774e-05
-7.88789e-06
2.26266e-05
-7.53673e-06
2.34446e-05
-7.1861e-06
2.4226e-05
-6.82875e-06
2.49682e-05
-6.45572e-06
2.56682e-05
-6.05643e-06
2.63222e-05
-5.61859e-06
2.69254e-05
-5.12824e-06
2.74724e-05
-4.56962e-06
2.79568e-05
-3.92518e-06
2.83715e-05
-3.17568e-06
2.87085e-05
-2.30076e-06
2.89599e-05
-1.27988e-06
2.91179e-05
-9.34963e-08
2.9177e-05
1.27578e-06
2.91336e-05
2.84244e-06
2.89877e-05
4.61611e-06
2.87426e-05
6.59967e-06
2.84048e-05
8.7875e-06
2.79806e-05
1.11632e-05
2.74721e-05
1.3693e-05
2.68683e-05
1.63159e-05
2.6129e-05
1.89331e-05
2.51548e-05
2.13913e-05
2.37339e-05
2.34612e-05
2.14551e-05
2.48229e-05
2.50437e-05
2.13083e-06
-1.56742e-06
4.26152e-06
-6.60328e-06
6.01593e-06
-9.3441e-06
7.46507e-06
-1.08364e-05
8.73506e-06
-1.16967e-05
9.91983e-06
-1.21825e-05
1.10661e-05
-1.23961e-05
1.2189e-05
-1.23943e-05
1.32901e-05
-1.22282e-05
1.4368e-05
-1.19465e-05
1.54212e-05
-1.1591e-05
1.64486e-05
-1.11932e-05
1.74496e-05
-1.07759e-05
1.84236e-05
-1.03541e-05
1.93698e-05
-9.93738e-06
2.02878e-05
-9.53037e-06
2.11767e-05
-9.13407e-06
2.20354e-05
-8.7466e-06
2.28626e-05
-8.36391e-06
2.36567e-05
-7.98016e-06
2.44157e-05
-7.58779e-06
2.51374e-05
-7.17745e-06
2.58191e-05
-6.7381e-06
2.64574e-05
-6.25694e-06
2.70487e-05
-5.71951e-06
2.75887e-05
-5.10957e-06
2.80725e-05
-4.40899e-06
2.84947e-05
-3.59795e-06
2.88495e-05
-2.65553e-06
2.91307e-05
-1.56104e-06
2.93328e-05
-2.95647e-07
2.94525e-05
1.15609e-06
2.94887e-05
2.80629e-06
2.94434e-05
4.66133e-06
2.93229e-05
6.72022e-06
2.91366e-05
8.97378e-06
2.88944e-05
1.14055e-05
2.8602e-05
1.39854e-05
2.82551e-05
1.66628e-05
2.78232e-05
1.9365e-05
2.72222e-05
2.19923e-05
2.62631e-05
2.44203e-05
2.45579e-05
2.65281e-05
2.82732e-05
2.39479e-06
-3.96221e-06
4.76434e-06
-8.97283e-06
6.60948e-06
-1.11892e-05
8.05449e-06
-1.22814e-05
9.29177e-06
-1.2934e-05
1.04457e-05
-1.33364e-05
1.15667e-05
-1.35171e-05
1.26652e-05
-1.34929e-05
1.37396e-05
-1.33026e-05
1.4788e-05
-1.2995e-05
1.58101e-05
-1.2613e-05
1.68061e-05
-1.21892e-05
1.77763e-05
-1.1746e-05
1.87205e-05
-1.12983e-05
1.96384e-05
-1.08553e-05
2.05295e-05
-1.04215e-05
2.13929e-05
-9.99751e-06
2.22274e-05
-9.58111e-06
2.30315e-05
-9.16798e-06
2.38035e-05
-8.75211e-06
2.45414e-05
-8.32575e-06
2.52433e-05
-7.87937e-06
2.59069e-05
-7.40162e-06
2.65294e-05
-6.87947e-06
2.71081e-05
-6.29827e-06
2.76402e-05
-5.64164e-06
2.81225e-05
-4.89129e-06
2.85515e-05
-4.02696e-06
2.89233e-05
-3.02733e-06
2.92338e-05
-1.87149e-06
2.94794e-05
-5.41269e-07
2.96588e-05
9.76653e-07
2.97729e-05
2.69224e-06
2.98254e-05
4.60887e-06
2.98244e-05
6.72113e-06
2.97831e-05
9.01515e-06
2.97148e-05
1.14738e-05
2.96306e-05
1.40695e-05
2.95371e-05
1.67563e-05
2.9424e-05
1.94781e-05
2.92449e-05
2.21715e-05
2.88816e-05
2.47836e-05
2.80708e-05
2.73389e-05
3.02009e-05
2.7672e-06
-6.72941e-06
5.4339e-06
-1.16395e-05
7.32844e-06
-1.30838e-05
8.72223e-06
-1.36752e-05
9.91084e-06
-1.41226e-05
1.10423e-05
-1.44679e-05
1.21573e-05
-1.46321e-05
1.32537e-05
-1.45892e-05
1.43238e-05
-1.43727e-05
1.53651e-05
-1.40363e-05
1.63786e-05
-1.36265e-05
1.73657e-05
-1.31763e-05
1.83272e-05
-1.27075e-05
1.92633e-05
-1.22345e-05
2.0174e-05
-1.17659e-05
2.10585e-05
-1.1306e-05
2.19158e-05
-1.08548e-05
2.27443e-05
-1.04097e-05
2.35423e-05
-9.96601e-06
2.4308e-05
-9.51774e-06
2.50393e-05
-9.05713e-06
2.57346e-05
-8.57457e-06
2.63916e-05
-8.05868e-06
2.70086e-05
-7.49645e-06
2.75837e-05
-6.87341e-06
2.81156e-05
-6.1735e-06
2.8603e-05
-5.37869e-06
2.90446e-05
-4.46857e-06
2.94387e-05
-3.42142e-06
2.97832e-05
-2.21595e-06
3.00764e-05
-8.34495e-07
3.03193e-05
7.33776e-07
3.0514e-05
2.49753e-06
3.06654e-05
4.45749e-06
3.07832e-05
6.60328e-06
3.08842e-05
8.91411e-06
3.09859e-05
1.13722e-05
3.11046e-05
1.39508e-05
3.12602e-05
1.66007e-05
3.14683e-05
1.927e-05
3.17337e-05
2.19061e-05
3.20482e-05
2.44691e-05
3.24011e-05
2.69859e-05
2.97181e-05
3.32853e-06
-1.00579e-05
6.25374e-06
-1.45647e-05
8.00999e-06
-1.484e-05
9.24155e-06
-1.49067e-05
1.03407e-05
-1.52217e-05
1.14344e-05
-1.55617e-05
1.25324e-05
-1.573e-05
1.3615e-05
-1.56718e-05
1.46696e-05
-1.54274e-05
1.56947e-05
-1.50613e-05
1.66928e-05
-1.46246e-05
1.7666e-05
-1.41496e-05
1.86154e-05
-1.36569e-05
1.95409e-05
-1.31599e-05
2.04419e-05
-1.2667e-05
2.13176e-05
-1.21817e-05
2.21665e-05
-1.17037e-05
2.29866e-05
-1.12297e-05
2.37755e-05
-1.0755e-05
2.45313e-05
-1.02735e-05
2.52518e-05
-9.77768e-06
2.59354e-05
-9.25809e-06
2.65802e-05
-8.70355e-06
2.71852e-05
-8.10138e-06
2.77495e-05
-7.43776e-06
2.82736e-05
-6.69756e-06
2.87585e-05
-5.86357e-06
2.92055e-05
-4.91558e-06
2.96157e-05
-3.83165e-06
2.99894e-05
-2.58969e-06
3.03269e-05
-1.17195e-06
3.06331e-05
4.27573e-07
3.09092e-05
2.22142e-06
3.11612e-05
4.20544e-06
3.1399e-05
6.36553e-06
3.16431e-05
8.67002e-06
3.19135e-05
1.11017e-05
3.2229e-05
1.36353e-05
3.26215e-05
1.62082e-05
3.31274e-05
1.87641e-05
3.37896e-05
2.12439e-05
3.46709e-05
2.35878e-05
3.58993e-05
2.57575e-05
2.77706e-05
4.70566e-06
-1.47636e-05
7.3157e-06
-1.71748e-05
8.58896e-06
-1.61133e-05
9.6233e-06
-1.59411e-05
1.06625e-05
-1.62609e-05
1.17291e-05
-1.66283e-05
1.28011e-05
-1.6802e-05
1.38551e-05
-1.67258e-05
1.48829e-05
-1.64552e-05
1.58861e-05
-1.60646e-05
1.68682e-05
-1.56066e-05
1.78304e-05
-1.51118e-05
1.87727e-05
-1.45991e-05
1.96937e-05
-1.4081e-05
2.05921e-05
-1.35654e-05
2.14662e-05
-1.30557e-05
2.23136e-05
-1.25511e-05
2.31315e-05
-1.20476e-05
2.39171e-05
-1.15406e-05
2.46677e-05
-1.10241e-05
2.53809e-05
-1.04909e-05
2.60547e-05
-9.93192e-06
2.66877e-05
-9.33656e-06
2.72792e-05
-8.6929e-06
2.78297e-05
-7.98828e-06
2.83414e-05
-7.20926e-06
2.88182e-05
-6.34038e-06
2.92647e-05
-5.36203e-06
2.96857e-05
-4.25264e-06
3.00849e-05
-2.98896e-06
3.04633e-05
-1.55026e-06
3.08347e-05
5.61579e-08
3.11946e-05
1.86147e-06
3.15517e-05
3.84836e-06
3.19124e-05
6.00488e-06
3.2302e-05
8.28034e-06
3.27411e-05
1.06626e-05
3.32442e-05
1.31322e-05
3.38523e-05
1.56001e-05
3.46129e-05
1.80035e-05
3.55843e-05
2.02725e-05
3.68493e-05
2.23228e-05
3.85398e-05
2.4067e-05
2.54061e-05
7.82972e-06
-2.25933e-05
8.31261e-06
-1.76577e-05
8.86091e-06
-1.66616e-05
9.88486e-06
-1.6965e-05
1.09704e-05
-1.73464e-05
1.2014e-05
-1.76719e-05
1.3015e-05
-1.7803e-05
1.39994e-05
-1.77103e-05
1.49755e-05
-1.74312e-05
1.5945e-05
-1.70341e-05
1.6907e-05
-1.65686e-05
1.78587e-05
-1.60636e-05
1.87973e-05
-1.55376e-05
1.97195e-05
-1.50032e-05
2.06221e-05
-1.4468e-05
2.15017e-05
-1.39353e-05
2.23547e-05
-1.3404e-05
2.31771e-05
-1.28701e-05
2.39654e-05
-1.23289e-05
2.47159e-05
-1.17746e-05
2.54254e-05
-1.12003e-05
2.60912e-05
-1.05978e-05
2.67119e-05
-9.95727e-06
2.72873e-05
-9.26829e-06
2.78191e-05
-8.52e-06
2.83113e-05
-7.70149e-06
2.87714e-05
-6.80052e-06
2.92083e-05
-5.79889e-06
2.96316e-05
-4.67598e-06
3.00504e-05
-3.40774e-06
3.04711e-05
-1.97099e-06
3.0898e-05
-3.70725e-07
3.13536e-05
1.40587e-06
3.18256e-05
3.37634e-06
3.23157e-05
5.51481e-06
3.28579e-05
7.7382e-06
3.34705e-05
1.005e-05
3.41538e-05
1.2449e-05
3.49584e-05
1.47955e-05
3.59335e-05
1.70284e-05
3.71372e-05
1.90688e-05
3.86487e-05
2.08113e-05
4.05708e-05
2.21449e-05
2.29216e-05
1.01445e-05
-3.27379e-05
8.23599e-06
-1.57491e-05
8.62615e-06
-1.70518e-05
1.00562e-05
-1.83951e-05
1.12953e-05
-1.85855e-05
1.22565e-05
-1.86331e-05
1.31243e-05
-1.86708e-05
1.40123e-05
-1.85983e-05
1.49241e-05
-1.8343e-05
1.58584e-05
-1.79684e-05
1.68035e-05
-1.75137e-05
1.77498e-05
-1.70099e-05
1.86906e-05
-1.64783e-05
1.96201e-05
-1.59327e-05
2.05328e-05
-1.53807e-05
2.14229e-05
-1.48255e-05
2.22851e-05
-1.42663e-05
2.31149e-05
-1.36998e-05
2.39076e-05
-1.31216e-05
2.4659e-05
-1.2526e-05
2.53649e-05
-1.19062e-05
2.60224e-05
-1.12553e-05
2.66302e-05
-1.05651e-05
2.71892e-05
-9.82729e-06
2.77028e-05
-9.03363e-06
2.81773e-05
-8.1759e-06
2.86225e-05
-7.24576e-06
2.90474e-05
-6.22378e-06
2.94579e-05
-5.08647e-06
2.9875e-05
-3.82491e-06
3.03178e-05
-2.41379e-06
3.08055e-05
-8.58393e-07
3.13644e-05
8.47013e-07
3.1981e-05
2.75974e-06
3.2616e-05
4.87983e-06
3.33238e-05
7.03038e-06
3.41225e-05
9.2513e-06
3.49804e-05
1.1591e-05
3.59705e-05
1.38054e-05
3.71323e-05
1.58665e-05
3.85147e-05
1.76864e-05
4.01864e-05
1.91395e-05
4.22178e-05
2.01135e-05
2.04471e-05
9.53327e-07
-3.36912e-05
3.86216e-06
-1.86579e-05
5.99153e-06
-1.91811e-05
8.20596e-06
-2.06095e-05
1.03636e-05
-2.07431e-05
1.21722e-05
-2.04417e-05
1.32712e-05
-1.97697e-05
1.40873e-05
-1.94144e-05
1.49206e-05
-1.91763e-05
1.58045e-05
-1.88523e-05
1.67228e-05
-1.84321e-05
1.76585e-05
-1.79456e-05
1.85993e-05
-1.74191e-05
1.95354e-05
-1.68688e-05
2.04575e-05
-1.63028e-05
2.13566e-05
-1.57246e-05
2.22252e-05
-1.51349e-05
2.30575e-05
-1.45321e-05
2.38479e-05
-1.3912e-05
2.45908e-05
-1.32689e-05
2.52812e-05
-1.25966e-05
2.59153e-05
-1.18894e-05
2.64916e-05
-1.11414e-05
2.70111e-05
-1.03468e-05
2.74772e-05
-9.49968e-06
2.78946e-05
-8.59334e-06
2.82771e-05
-7.62821e-06
2.86535e-05
-6.60023e-06
2.90267e-05
-5.45959e-06
2.94379e-05
-4.23613e-06
2.99346e-05
-2.91048e-06
3.05496e-05
-1.47342e-06
3.1228e-05
1.68651e-07
3.20116e-05
1.97613e-06
3.28106e-05
4.08081e-06
3.37331e-05
6.10782e-06
3.47485e-05
8.23596e-06
3.57763e-05
1.05632e-05
3.69533e-05
1.26284e-05
3.82867e-05
1.45331e-05
3.98137e-05
1.61594e-05
4.15964e-05
1.73569e-05
4.36701e-05
1.80398e-05
1.80413e-05
-4.40417e-06
-2.9287e-05
2.71665e-07
-2.33338e-05
3.8532e-06
-2.27627e-05
6.40282e-06
-2.31592e-05
8.61442e-06
-2.29547e-05
1.05454e-05
-2.23727e-05
1.24189e-05
-2.16432e-05
1.41061e-05
-2.11016e-05
1.56041e-05
-2.06744e-05
1.69859e-05
-2.02341e-05
1.82956e-05
-1.97418e-05
1.95537e-05
-1.92037e-05
2.07694e-05
-1.86348e-05
2.19463e-05
-1.80457e-05
2.30849e-05
-1.74414e-05
2.41836e-05
-1.68233e-05
2.52395e-05
-1.61909e-05
2.62489e-05
-1.55415e-05
2.72067e-05
-1.48698e-05
2.81066e-05
-1.41688e-05
2.89403e-05
-1.34303e-05
2.96967e-05
-1.26458e-05
3.03604e-05
-1.18051e-05
3.09083e-05
-1.08948e-05
3.13032e-05
-9.89456e-06
3.14764e-05
-8.7665e-06
3.12844e-05
-7.43622e-06
3.05284e-05
-5.84428e-06
2.95299e-05
-4.4611e-06
2.91404e-05
-3.84661e-06
2.935e-05
-3.12003e-06
2.98355e-05
-1.95892e-06
3.05987e-05
-5.94566e-07
3.17193e-05
8.5553e-07
3.29751e-05
2.82499e-06
3.41704e-05
4.91253e-06
3.53555e-05
7.0508e-06
3.66053e-05
9.31349e-06
3.80218e-05
1.12119e-05
3.95213e-05
1.30336e-05
4.11716e-05
1.45092e-05
4.30414e-05
1.54871e-05
4.51256e-05
1.59556e-05
1.57075e-05
-2.37323e-06
-2.69138e-05
2.23166e-07
-2.59302e-05
3.21034e-06
-2.57498e-05
5.75838e-06
-2.57072e-05
8.09743e-06
-2.52938e-05
1.03237e-05
-2.4599e-05
1.24986e-05
-2.38181e-05
1.45227e-05
-2.31257e-05
1.63654e-05
-2.2517e-05
1.80594e-05
-2.19282e-05
1.96435e-05
-2.13259e-05
2.11444e-05
-2.07046e-05
2.25779e-05
-2.00683e-05
2.39528e-05
-1.94207e-05
2.52742e-05
-1.87627e-05
2.6544e-05
-1.80931e-05
2.7762e-05
-1.74088e-05
2.89257e-05
-1.67052e-05
3.00311e-05
-1.59752e-05
3.10721e-05
-1.52097e-05
3.20399e-05
-1.43982e-05
3.29224e-05
-1.35282e-05
3.37023e-05
-1.2585e-05
3.43564e-05
-1.15488e-05
3.48543e-05
-1.03925e-05
3.51655e-05
-9.07767e-06
3.52897e-05
-7.56044e-06
3.53165e-05
-5.87102e-06
3.53037e-05
-4.44838e-06
3.50345e-05
-3.57735e-06
3.45032e-05
-2.58874e-06
3.36676e-05
-1.12328e-06
3.26767e-05
3.96299e-07
3.18479e-05
1.68431e-06
3.2665e-05
2.00795e-06
3.40344e-05
3.54311e-06
3.57865e-05
5.29873e-06
3.76814e-05
7.41855e-06
3.92972e-05
9.59608e-06
4.09512e-05
1.13795e-05
4.27674e-05
1.26931e-05
4.47275e-05
1.3527e-05
4.68025e-05
1.38805e-05
1.34313e-05
-1.02531e-06
-2.58885e-05
8.65415e-07
-2.78209e-05
3.35796e-06
-2.82424e-05
5.82949e-06
-2.81787e-05
8.23856e-06
-2.77028e-05
1.06016e-05
-2.6962e-05
1.29078e-05
-2.61243e-05
1.50963e-05
-2.53142e-05
1.71356e-05
-2.45563e-05
1.90356e-05
-2.38282e-05
2.08199e-05
-2.31102e-05
2.25099e-05
-2.23946e-05
2.41207e-05
-2.16791e-05
2.56624e-05
-2.09624e-05
2.71416e-05
-2.02419e-05
2.85619e-05
-1.95135e-05
2.99248e-05
-1.87717e-05
3.12292e-05
-1.80096e-05
3.24721e-05
-1.72182e-05
3.3649e-05
-1.63866e-05
3.47529e-05
-1.55021e-05
3.57745e-05
-1.45498e-05
3.67017e-05
-1.35123e-05
3.75215e-05
-1.23686e-05
3.82232e-05
-1.10943e-05
3.88106e-05
-9.66507e-06
3.93231e-05
-8.07293e-06
3.98356e-05
-6.38355e-06
4.02661e-05
-4.87886e-06
4.0378e-05
-3.68921e-06
4.01635e-05
-2.37427e-06
3.96952e-05
-6.5498e-07
3.88977e-05
1.19386e-06
3.79115e-05
2.67047e-06
3.62562e-05
3.66332e-06
3.4702e-05
5.09724e-06
3.54749e-05
4.52581e-06
3.8182e-05
4.71147e-06
4.03121e-05
7.46601e-06
4.26684e-05
9.02315e-06
4.4777e-05
1.05845e-05
4.68006e-05
1.15034e-05
4.89232e-05
1.17579e-05
1.11748e-05
-3.30656e-07
-2.55578e-05
1.4701e-06
-2.96217e-05
3.81225e-06
-3.05845e-05
6.2429e-06
-3.06094e-05
8.67128e-06
-3.01312e-05
1.10775e-05
-2.93683e-05
1.34364e-05
-2.84832e-05
1.57058e-05
-2.75836e-05
1.78595e-05
-2.67099e-05
1.98956e-05
-2.58643e-05
2.18255e-05
-2.50402e-05
2.36627e-05
-2.42317e-05
2.54185e-05
-2.34349e-05
2.71019e-05
-2.26458e-05
2.87192e-05
-2.18591e-05
3.02745e-05
-2.10688e-05
3.17701e-05
-2.02672e-05
3.32061e-05
-1.94457e-05
3.45814e-05
-1.85935e-05
3.58931e-05
-1.76984e-05
3.71374e-05
-1.67464e-05
3.83094e-05
-1.57217e-05
3.94039e-05
-1.46068e-05
4.04179e-05
-1.33826e-05
4.13546e-05
-1.2031e-05
4.22304e-05
-1.05409e-05
4.30798e-05
-8.92233e-06
4.39339e-05
-7.23766e-06
4.46989e-05
-5.64382e-06
4.51913e-05
-4.18167e-06
4.54078e-05
-2.59072e-06
4.54606e-05
-7.07752e-07
4.53756e-05
1.27878e-06
4.50661e-05
2.98003e-06
4.43291e-05
4.40035e-06
4.3853e-05
5.57332e-06
4.30238e-05
5.35498e-06
4.19013e-05
5.83401e-06
4.07857e-05
8.58154e-06
4.35996e-05
6.20932e-06
4.63341e-05
7.85004e-06
4.91048e-05
8.73265e-06
5.17107e-05
9.15199e-06
8.98723e-06
1.95484e-07
-2.57533e-05
2.08713e-06
-3.15133e-05
4.41011e-06
-3.29075e-05
6.82755e-06
-3.30268e-05
9.25208e-06
-3.25557e-05
1.16589e-05
-3.17751e-05
1.40268e-05
-3.0851e-05
1.63275e-05
-2.98844e-05
1.85411e-05
-2.89235e-05
2.06613e-05
-2.79845e-05
2.26912e-05
-2.707e-05
2.46375e-05
-2.6178e-05
2.65075e-05
-2.53049e-05
2.83075e-05
-2.44457e-05
3.00425e-05
-2.35942e-05
3.17164e-05
-2.27427e-05
3.33317e-05
-2.18826e-05
3.48897e-05
-2.10036e-05
3.63905e-05
-2.00943e-05
3.78337e-05
-1.91416e-05
3.92184e-05
-1.81311e-05
4.05438e-05
-1.70471e-05
4.18106e-05
-1.58735e-05
4.30223e-05
-1.45944e-05
4.41884e-05
-1.31971e-05
4.53257e-05
-1.16781e-05
4.64552e-05
-1.00518e-05
4.75811e-05
-8.36357e-06
4.86294e-05
-6.69218e-06
4.94887e-05
-5.04092e-06
5.0168e-05
-3.27002e-06
5.07639e-05
-1.30366e-06
5.1313e-05
7.29677e-07
5.17017e-05
2.59133e-06
5.18736e-05
4.22849e-06
5.19698e-05
5.47707e-06
5.1394e-05
5.93077e-06
5.03117e-05
6.91638e-06
5.04751e-05
8.41812e-06
4.92671e-05
7.41731e-06
4.80462e-05
9.07096e-06
5.04779e-05
6.30099e-06
5.39187e-05
5.71116e-06
5.64955e-05
6.41048e-06
5.21276e-06
5.91526e-07
-2.63448e-05
2.66968e-06
-3.35915e-05
5.04731e-06
-3.52851e-05
7.47096e-06
-3.54505e-05
9.8825e-06
-3.49673e-05
1.22694e-05
-3.41621e-05
1.46214e-05
-3.3203e-05
1.69228e-05
-3.21858e-05
1.91602e-05
-3.11608e-05
2.13264e-05
-3.01508e-05
2.34202e-05
-2.91639e-05
2.54437e-05
-2.82015e-05
2.74001e-05
-2.72614e-05
2.92932e-05
-2.63388e-05
3.11263e-05
-2.54273e-05
3.29025e-05
-2.45189e-05
3.46242e-05
-2.36042e-05
3.62932e-05
-2.26726e-05
3.7911e-05
-2.17121e-05
3.94789e-05
-2.07096e-05
4.09987e-05
-1.96508e-05
4.24729e-05
-1.85213e-05
4.39056e-05
-1.73062e-05
4.5304e-05
-1.59928e-05
4.66789e-05
-1.4572e-05
4.80439e-05
-1.3043e-05
4.941e-05
-1.14179e-05
5.07714e-05
-9.72497e-06
5.20803e-05
-8.00106e-06
5.32793e-05
-6.23993e-06
5.43825e-05
-4.3732e-06
5.54541e-05
-2.37526e-06
5.65187e-05
-3.34937e-07
5.75121e-05
1.598e-06
5.8398e-05
3.34256e-06
5.91126e-05
4.7625e-06
5.93054e-05
5.73793e-06
5.93349e-05
6.88684e-06
5.97599e-05
7.9932e-06
5.9094e-05
8.08313e-06
5.95337e-05
8.63132e-06
5.91489e-05
6.68577e-06
5.84177e-05
6.44233e-06
5.88714e-05
5.95681e-06
2.29406e-06
9.52354e-07
-2.72972e-05
3.21212e-06
-3.58512e-05
5.6582e-06
-3.77312e-05
8.08912e-06
-3.78814e-05
1.04796e-05
-3.73578e-05
1.28349e-05
-3.65173e-05
1.51569e-05
-3.55251e-05
1.74407e-05
-3.44695e-05
1.96785e-05
-3.33987e-05
2.18646e-05
-3.23368e-05
2.39955e-05
-3.12949e-05
2.60706e-05
-3.02765e-05
2.80901e-05
-2.92809e-05
3.00556e-05
-2.83043e-05
3.19688e-05
-2.73404e-05
3.38316e-05
-2.63817e-05
3.56461e-05
-2.54188e-05
3.74145e-05
-2.4441e-05
3.9139e-05
-2.34366e-05
4.08223e-05
-2.23929e-05
4.24679e-05
-2.12964e-05
4.40803e-05
-2.01337e-05
4.56659e-05
-1.88918e-05
4.72331e-05
-1.756e-05
4.87922e-05
-1.61312e-05
5.03539e-05
-1.46048e-05
5.19245e-05
-1.29886e-05
5.3498e-05
-1.12985e-05
5.50483e-05
-9.55131e-06
5.65502e-05
-7.74189e-06
5.80181e-05
-5.8411e-06
5.94918e-05
-3.84892e-06
6.09868e-05
-1.82998e-06
6.24707e-05
1.14177e-07
6.39072e-05
1.90605e-06
6.52155e-05
3.4542e-06
6.6239e-05
4.71438e-06
6.71924e-05
5.93352e-06
6.81994e-05
6.98614e-06
6.87895e-05
7.49308e-06
6.96695e-05
7.75129e-06
6.95232e-05
6.83207e-06
6.95196e-05
6.44594e-06
7.01332e-05
5.34319e-06
2.54437e-06
1.29358e-06
-2.85908e-05
3.70629e-06
-3.82639e-05
6.19885e-06
-4.02238e-05
8.6215e-06
-4.0304e-05
1.09797e-05
-3.9716e-05
1.32947e-05
-3.88323e-05
1.55786e-05
-3.7809e-05
1.7834e-05
-3.67249e-05
2.00579e-05
-3.56226e-05
2.2246e-05
-3.45249e-05
2.43948e-05
-3.34436e-05
2.65016e-05
-3.23834e-05
2.85651e-05
-3.13445e-05
3.0585e-05
-3.03241e-05
3.25616e-05
-2.93171e-05
3.4496e-05
-2.83161e-05
3.63898e-05
-2.73125e-05
3.8245e-05
-2.62962e-05
4.00643e-05
-2.5256e-05
4.18513e-05
-2.41799e-05
4.36105e-05
-2.30556e-05
4.53475e-05
-2.18707e-05
4.70696e-05
-2.0614e-05
4.87856e-05
-1.9276e-05
5.05051e-05
-1.78506e-05
5.22369e-05
-1.63366e-05
5.39862e-05
-1.47379e-05
5.57507e-05
-1.3063e-05
5.75193e-05
-1.13199e-05
5.92844e-05
-9.50701e-06
6.10594e-05
-7.61612e-06
6.28697e-05
-5.65916e-06
6.47253e-05
-3.68565e-06
6.66078e-05
-1.76824e-06
6.84863e-05
2.7547e-08
7.03034e-05
1.63701e-06
7.1989e-05
3.02885e-06
7.36359e-05
4.28656e-06
7.5282e-05
5.34004e-06
7.67664e-05
6.00872e-06
7.81977e-05
6.31999e-06
7.90685e-05
5.96132e-06
8.00172e-05
5.49718e-06
8.09468e-05
4.41364e-06
2.77061e-06
1.61828e-06
-3.0209e-05
4.13791e-06
-4.07836e-05
6.63675e-06
-4.27226e-05
9.02634e-06
-4.26936e-05
1.13386e-05
-4.20282e-05
1.36058e-05
-4.10995e-05
1.58463e-05
-4.00495e-05
1.80669e-05
-3.89455e-05
2.02678e-05
-3.78235e-05
2.24463e-05
-3.67034e-05
2.45987e-05
-3.5596e-05
2.6722e-05
-3.45066e-05
2.88137e-05
-3.34362e-05
3.08723e-05
-3.23827e-05
3.28972e-05
-3.1342e-05
3.48886e-05
-3.03075e-05
3.68477e-05
-2.92716e-05
3.87763e-05
-2.82249e-05
4.06774e-05
-2.71571e-05
4.25548e-05
-2.60573e-05
4.44134e-05
-2.49142e-05
4.62595e-05
-2.37168e-05
4.81007e-05
-2.24551e-05
4.99455e-05
-2.11207e-05
5.1803e-05
-1.97081e-05
5.36815e-05
-1.82151e-05
5.55867e-05
-1.66432e-05
5.75205e-05
-1.49968e-05
5.94811e-05
-1.32805e-05
6.14703e-05
-1.14961e-05
6.35003e-05
-9.64611e-06
6.55882e-05
-7.74714e-06
6.77412e-05
-5.83861e-06
6.99479e-05
-3.9749e-06
7.2185e-05
-2.20955e-06
7.44148e-05
-5.92851e-07
7.65993e-05
8.44399e-07
7.87694e-05
2.11643e-06
8.0935e-05
3.1745e-06
8.30225e-05
3.92118e-06
8.5015e-05
4.32754e-06
8.67152e-05
4.26106e-06
8.83129e-05
3.89949e-06
8.96506e-05
3.07599e-06
1.91366e-06
1.9178e-06
-3.21268e-05
4.48849e-06
-4.33542e-05
6.9483e-06
-4.51824e-05
9.27834e-06
-4.50237e-05
1.1531e-05
-4.42808e-05
1.37436e-05
-4.33121e-05
1.59365e-05
-4.22424e-05
1.81181e-05
-4.1127e-05
2.02898e-05
-3.99952e-05
2.245e-05
-3.88635e-05
2.45955e-05
-3.77415e-05
2.67228e-05
-3.6634e-05
2.88292e-05
-3.55426e-05
3.09125e-05
-3.4466e-05
3.29714e-05
-3.34009e-05
3.50057e-05
-3.23419e-05
3.70161e-05
-3.1282e-05
3.90042e-05
-3.0213e-05
4.09729e-05
-2.91258e-05
4.29262e-05
-2.80105e-05
4.4869e-05
-2.6857e-05
4.68078e-05
-2.56556e-05
4.87501e-05
-2.43974e-05
5.07042e-05
-2.30749e-05
5.2679e-05
-2.16829e-05
5.46827e-05
-2.02187e-05
5.67222e-05
-1.86827e-05
5.88025e-05
-1.70771e-05
6.09275e-05
-1.54055e-05
6.31035e-05
-1.36721e-05
6.53419e-05
-1.18845e-05
6.76551e-05
-1.00604e-05
7.00485e-05
-8.23199e-06
7.25152e-05
-6.4416e-06
7.50385e-05
-4.7329e-06
7.7593e-05
-3.1473e-06
8.01533e-05
-1.71589e-06
8.27219e-05
-4.52163e-07
8.52916e-05
6.0476e-07
8.78179e-05
1.39486e-06
9.0265e-05
1.88045e-06
9.25317e-05
1.9944e-06
9.46425e-05
1.78872e-06
9.65088e-05
1.20964e-06
3.2013e-07
2.17585e-06
-3.43027e-05
4.7395e-06
-4.59179e-05
7.1197e-06
-4.75626e-05
9.36767e-06
-4.72716e-05
1.15489e-05
-4.64621e-05
1.37009e-05
-4.54641e-05
1.58421e-05
-4.43836e-05
1.79805e-05
-4.32654e-05
2.01178e-05
-4.21325e-05
2.22526e-05
-4.09983e-05
2.43819e-05
-3.98708e-05
2.65026e-05
-3.87547e-05
2.86117e-05
-3.76516e-05
3.07067e-05
-3.65611e-05
3.27862e-05
-3.54804e-05
3.48495e-05
-3.44051e-05
3.68969e-05
-3.33294e-05
3.89301e-05
-3.22462e-05
4.09517e-05
-3.11474e-05
4.29655e-05
-3.00243e-05
4.49766e-05
-2.88681e-05
4.69913e-05
-2.76703e-05
4.90167e-05
-2.64229e-05
5.10612e-05
-2.51194e-05
5.31333e-05
-2.3755e-05
5.52415e-05
-2.2327e-05
5.73938e-05
-2.08349e-05
5.95973e-05
-1.92805e-05
6.18589e-05
-1.76672e-05
6.41872e-05
-1.60004e-05
6.65926e-05
-1.42898e-05
6.90849e-05
-1.25527e-05
7.16686e-05
-1.08157e-05
7.43397e-05
-9.11271e-06
7.70865e-05
-7.47962e-06
7.98906e-05
-5.95142e-06
8.27327e-05
-4.55803e-06
8.5603e-05
-3.32247e-06
8.84856e-05
-2.27782e-06
9.13463e-05
-1.46584e-06
9.41473e-05
-9.20467e-07
9.68228e-05
-6.81118e-07
9.93505e-05
-7.38996e-07
0.000101674
-1.11405e-06
-1.7781e-06
2.37576e-06
-3.66784e-05
4.87836e-06
-4.84205e-05
7.14838e-06
-4.98326e-05
9.29836e-06
-4.94216e-05
1.13994e-05
-4.85631e-05
1.34848e-05
-4.75495e-05