/*--------------------------------*- C++ -*----------------------------------*\
| =========                 |                                                 |
| \\      /  F ield         | OpenFOAM: The Open Source CFD Toolbox           |
|  \\    /   O peration     | Version:  5.0                                   |
|   \\  /    A nd           | Web:      www.OpenFOAM.org                      |
|    \\/     M anipulation  |                                                 |
\*---------------------------------------------------------------------------*/
FoamFile
{
    version     2.0;
    format      ascii;
    class       volVectorField;
    location    "0.5";
    object      U;
}
// * * * * * * * * * * * * * * * * * * * * * * * * * * * * * * * * * * * * * //

dimensions      [0 1 -1 0 0 0 0];

internalField   nonuniform List<vector> 
1935
(
(-0.0275989 0.0182925 0)
(-0.0590317 0.0126554 0)
(-0.0710051 0.000898301 0)
(-0.0606171 -0.00765445 0)
(-0.0423351 -0.0113038 0)
(-0.0188512 -0.0128206 0)
(0.0067241 -0.0130717 0)
(0.0328401 -0.012858 0)
(0.0584403 -0.0123226 0)
(0.0831185 -0.0116408 0)
(0.106621 -0.010913 0)
(0.128838 -0.0101905 0)
(0.149762 -0.00950219 0)
(0.169439 -0.00886322 0)
(0.187946 -0.00827979 0)
(0.20537 -0.00775215 0)
(0.2218 -0.00727662 0)
(0.237317 -0.00684683 0)
(0.251993 -0.00645447 0)
(0.265879 -0.00608968 0)
(0.27901 -0.00574126 0)
(0.291395 -0.00539667 0)
(0.303016 -0.00504188 0)
(0.313824 -0.004661 0)
(0.323735 -0.0042357 0)
(0.332623 -0.003744 0)
(0.340308 -0.00315798 0)
(0.346549 -0.0024378 0)
(0.350997 -0.00151692 0)
(0.353308 -0.000232304 0)
(0.352494 0.00148831 0)
(0.347643 0.00372774 0)
(0.338052 0.00651773 0)
(0.322852 0.00980524 0)
(0.301046 0.0135679 0)
(0.271625 0.0177491 0)
(0.23373 0.0221557 0)
(0.186861 0.0263992 0)
(0.131267 0.0299687 0)
(0.0670253 0.0323504 0)
(0.000427588 0.0352969 0)
(-0.079558 0.0391234 0)
(-0.162836 0.0250443 0)
(-0.20359 -0.00784592 0)
(-0.0292144 0.0449832 0)
(-0.0368807 0.0228368 0)
(-0.03303 -0.000324862 0)
(-0.0212655 -0.0155048 0)
(-0.0035111 -0.023497 0)
(0.0176679 -0.0274851 0)
(0.0405693 -0.0290021 0)
(0.0641013 -0.029134 0)
(0.087506 -0.0284591 0)
(0.11035 -0.0273502 0)
(0.132377 -0.0260306 0)
(0.153454 -0.024636 0)
(0.173528 -0.0232493 0)
(0.192602 -0.0219189 0)
(0.210709 -0.0206699 0)
(0.227898 -0.0195119 0)
(0.244223 -0.0184432 0)
(0.259736 -0.0174543 0)
(0.274482 -0.0165298 0)
(0.288493 -0.0156494 0)
(0.301782 -0.014789 0)
(0.314344 -0.0139202 0)
(0.32615 -0.0130101 0)
(0.337143 -0.0120211 0)
(0.347232 -0.0109094 0)
(0.356291 -0.0096228 0)
(0.36415 -0.0080974 0)
(0.370592 -0.00625029 0)
(0.375351 -0.0039703 0)
(0.378086 -0.00108042 0)
(0.3787 0.00257832 0)
(0.376763 0.00714176 0)
(0.371563 0.0127022 0)
(0.36232 0.0193468 0)
(0.348154 0.0271621 0)
(0.328035 0.0361462 0)
(0.300812 0.0460984 0)
(0.265283 0.0565133 0)
(0.220449 0.0665695 0)
(0.165553 0.0750602 0)
(0.103445 0.082107 0)
(0.0368731 0.0868038 0)
(-0.0297972 0.0700331 0)
(-0.0726392 0.0218087 0)
(-0.0182023 0.0629494 0)
(-0.0147547 0.0205698 0)
(-0.00685613 -0.00936198 0)
(0.00674568 -0.0276171 0)
(0.0238712 -0.0379994 0)
(0.0434158 -0.0433704 0)
(0.0643358 -0.0455828 0)
(0.0858371 -0.0458666 0)
(0.107353 -0.0449903 0)
(0.128518 -0.0434507 0)
(0.149095 -0.0415645 0)
(0.168946 -0.0395328 0)
(0.188003 -0.0374826 0)
(0.20624 -0.0354908 0)
(0.223664 -0.0335999 0)
(0.240299 -0.0318278 0)
(0.256175 -0.0301753 0)
(0.271325 -0.02863 0)
(0.285773 -0.0271699 0)
(0.299536 -0.0257653 0)
(0.312615 -0.0243791 0)
(0.324996 -0.0229679 0)
(0.336641 -0.0214806 0)
(0.34749 -0.0198587 0)
(0.357452 -0.018034 0)
(0.366404 -0.0159268 0)
(0.374188 -0.013443 0)
(0.380603 -0.0104703 0)
(0.385412 -0.00687396 0)
(0.388327 -0.00249823 0)
(0.389092 0.00286211 0)
(0.387394 0.00942064 0)
(0.382817 0.0173793 0)
(0.374889 0.0269315 0)
(0.363091 0.0382339 0)
(0.346856 0.0513541 0)
(0.325579 0.0661571 0)
(0.298614 0.0821471 0)
(0.265329 0.0983089 0)
(0.225164 0.112908 0)
(0.179017 0.123954 0)
(0.130552 0.126914 0)
(0.0805566 0.106512 0)
(0.0355887 0.0523542 0)
(-0.00488862 0.070271 0)
(0.00319894 0.0154245 0)
(0.0140444 -0.0182881 0)
(0.0290428 -0.0393008 0)
(0.0461085 -0.0515708 0)
(0.0646682 -0.0580877 0)
(0.0841545 -0.0608939 0)
(0.104072 -0.06136 0)
(0.124033 -0.0603782 0)
(0.143755 -0.0585354 0)
(0.163042 -0.0562179 0)
(0.181763 -0.0536793 0)
(0.199843 -0.0510842 0)
(0.217245 -0.0485355 0)
(0.233959 -0.046092 0)
(0.24999 -0.0437808 0)
(0.265353 -0.0416058 0)
(0.280062 -0.0395533 0)
(0.29413 -0.0375964 0)
(0.307561 -0.035697 0)
(0.320347 -0.0338075 0)
(0.332465 -0.0318707 0)
(0.343875 -0.0298197 0)
(0.354514 -0.027577 0)
(0.364293 -0.0250529 0)
(0.373096 -0.0221437 0)
(0.380776 -0.0187288 0)
(0.387153 -0.014669 0)
(0.392015 -0.0098038 0)
(0.395115 -0.00395216 0)
(0.3962 0.00310224 0)
(0.395001 0.0115908 0)
(0.391226 0.021746 0)
(0.38457 0.0337827 0)
(0.374724 0.0478713 0)
(0.361392 0.064087 0)
(0.344297 0.0823067 0)
(0.323171 0.102048 0)
(0.297745 0.122253 0)
(0.267729 0.140975 0)
(0.233282 0.155153 0)
(0.195838 0.158937 0)
(0.155068 0.140471 0)
(0.110668 0.0887366 0)
(0.00571605 0.065032 0)
(0.0173939 0.00784061 0)
(0.0312602 -0.0290152 0)
(0.0476237 -0.0516306 0)
(0.0649342 -0.0649646 0)
(0.082935 -0.0721683 0)
(0.101409 -0.075359 0)
(0.120113 -0.0759553 0)
(0.138817 -0.0748999 0)
(0.157327 -0.072828 0)
(0.175489 -0.0701705 0)
(0.193193 -0.0672193 0)
(0.210369 -0.064169 0)
(0.226975 -0.0611445 0)
(0.242991 -0.0582194 0)
(0.258413 -0.0554295 0)
(0.273243 -0.0527823 0)
(0.287485 -0.0502635 0)
(0.30114 -0.0478425 0)
(0.314203 -0.0454744 0)
(0.326659 -0.0431023 0)
(0.338482 -0.0406572 0)
(0.349627 -0.0380582 0)
(0.360032 -0.0352111 0)
(0.369614 -0.0320075 0)
(0.378265 -0.0283229 0)
(0.385851 -0.0240148 0)
(0.392212 -0.0189216 0)
(0.39716 -0.0128625 0)
(0.400488 -0.00563864 0)
(0.401974 0.00297185 0)
(0.401397 0.013205 0)
(0.398543 0.0252932 0)
(0.393213 0.0394438 0)
(0.385232 0.0558105 0)
(0.374466 0.0744433 0)
(0.360814 0.0951981 0)
(0.344191 0.117588 0)
(0.324485 0.140565 0)
(0.301475 0.162177 0)
(0.274874 0.179111 0)
(0.244428 0.185531 0)
(0.208315 0.171527 0)
(0.163627 0.126287 0)
(0.0115253 0.0522516 0)
(0.027584 -0.00360215 0)
(0.0451554 -0.0415694 0)
(0.0631704 -0.0647008 0)
(0.0809728 -0.0783403 0)
(0.0987102 -0.0857649 0)
(0.116485 -0.0890936 0)
(0.134273 -0.0897196 0)
(0.151981 -0.0885769 0)
(0.169491 -0.0863104 0)
(0.186694 -0.0833722 0)
(0.203505 -0.0800784 0)
(0.219863 -0.076645 0)
(0.235731 -0.073214 0)
(0.251086 -0.069871 0)
(0.265917 -0.0666592 0)
(0.280219 -0.0635891 0)
(0.293989 -0.0606463 0)
(0.30722 -0.0577969 0)
(0.319901 -0.0549906 0)
(0.332012 -0.0521626 0)
(0.343524 -0.0492341 0)
(0.354391 -0.0461118 0)
(0.364555 -0.0426876 0)
(0.373938 -0.0388373 0)
(0.382442 -0.034419 0)
(0.389949 -0.0292724 0)
(0.396319 -0.0232181 0)
(0.401391 -0.0160597 0)
(0.404989 -0.00758688 0)
(0.40693 0.00242367 0)
(0.407039 0.0142005 0)
(0.405161 0.0279611 0)
(0.401172 0.0438905 0)
(0.394987 0.0621126 0)
(0.386567 0.0826455 0)
(0.375912 0.105325 0)
(0.363018 0.129678 0)
(0.347818 0.154723 0)
(0.33005 0.178657 0)
(0.309091 0.19839 0)
(0.283659 0.208687 0)
(0.250635 0.201243 0)
(0.205297 0.165877 0)
(0.0138865 0.0358992 0)
(0.0349154 -0.0187781 0)
(0.0563875 -0.0561341 0)
(0.0762142 -0.0786612 0)
(0.0946203 -0.0918686 0)
(0.112253 -0.0990716 0)
(0.129536 -0.102299 0)
(0.146637 -0.10284 0)
(0.163566 -0.101569 0)
(0.180268 -0.0991101 0)
(0.196669 -0.0959187 0)
(0.212711 -0.092324 0)
(0.228346 -0.0885563 0)
(0.243545 -0.0847696 0)
(0.258288 -0.0810581 0)
(0.272562 -0.0774703 0)
(0.286358 -0.0740188 0)
(0.299667 -0.0706886 0)
(0.312479 -0.067443 0)
(0.324778 -0.0642272 0)
(0.33654 -0.0609698 0)
(0.347735 -0.0575837 0)
(0.35832 -0.0539656 0)
(0.368239 -0.0499957 0)
(0.377424 -0.0455368 0)
(0.385789 -0.0404333 0)
(0.39323 -0.0345104 0)
(0.39963 -0.027575 0)
(0.404853 -0.0194191 0)
(0.408755 -0.00982558 0)
(0.411188 0.00142615 0)
(0.412019 0.0145508 0)
(0.411139 0.0297437 0)
(0.408481 0.0471597 0)
(0.40402 0.0668877 0)
(0.397784 0.0889142 0)
(0.389831 0.113065 0)
(0.380201 0.138903 0)
(0.36884 0.16556 0)
(0.355438 0.191499 0)
(0.339159 0.214116 0)
(0.318139 0.229146 0)
(0.288385 0.230018 0)
(0.243398 0.20788 0)
(0.0153624 0.0169358 0)
(0.0409452 -0.0374046 0)
(0.0658914 -0.0727166 0)
(0.087327 -0.0935118 0)
(0.106213 -0.105591 0)
(0.123739 -0.112191 0)
(0.140638 -0.115121 0)
(0.157217 -0.115478 0)
(0.173546 -0.11403 0)
(0.189604 -0.111361 0)
(0.205347 -0.107921 0)
(0.220738 -0.104045 0)
(0.235747 -0.0999726 0)
(0.250353 -0.0958644 0)
(0.264542 -0.0918204 0)
(0.278304 -0.0878918 0)
(0.291627 -0.0840918 0)
(0.3045 -0.0804041 0)
(0.31691 -0.0767893 0)
(0.328836 -0.0731887 0)
(0.340254 -0.0695258 0)
(0.351135 -0.0657067 0)
(0.361437 -0.0616202 0)
(0.371113 -0.057137 0)
(0.3801 -0.0521101 0)
(0.388327 -0.0463732 0)
(0.39571 -0.0397405 0)
(0.402152 -0.0320086 0)
(0.407545 -0.0229607 0)
(0.411771 -0.0123763 0)
(0.414717 -4.05466e-05 0)
(0.416285 0.0142438 0)
(0.416407 0.0306464 0)
(0.415055 0.0492887 0)
(0.412251 0.0702219 0)
(0.408073 0.0934017 0)
(0.402624 0.118652 0)
(0.395983 0.145584 0)
(0.388125 0.173471 0)
(0.378755 0.201094 0)
(0.366999 0.226478 0)
(0.350813 0.246544 0)
(0.325825 0.256744 0)
(0.284011 0.250655 0)
(0.0170681 -0.00475248 0)
(0.046595 -0.0590581 0)
(0.0744485 -0.0910201 0)
(0.0970016 -0.109026 0)
(0.116013 -0.119384 0)
(0.133292 -0.125113 0)
(0.149831 -0.127629 0)
(0.166 -0.12774 0)
(0.181869 -0.126073 0)
(0.197421 -0.123167 0)
(0.21263 -0.119469 0)
(0.227477 -0.115317 0)
(0.241952 -0.110956 0)
(0.256045 -0.106548 0)
(0.269747 -0.102197 0)
(0.283051 -0.0979536 0)
(0.295946 -0.0938304 0)
(0.308419 -0.0898087 0)
(0.320453 -0.0858463 0)
(0.332027 -0.0818813 0)
(0.343115 -0.0778334 0)
(0.353689 -0.0736036 0)
(0.363713 -0.0690744 0)
(0.373144 -0.0641101 0)
(0.381931 -0.0585563 0)
(0.390018 -0.0522396 0)
(0.397341 -0.0449666 0)
(0.403825 -0.0365259 0)
(0.409391 -0.0266945 0)
(0.41395 -0.0152499 0)
(0.417415 -0.00198494 0)
(0.419722 0.013278 0)
(0.420835 0.0306818 0)
(0.420759 0.050313 0)
(0.419551 0.0721828 0)
(0.41733 0.096213 0)
(0.414246 0.122227 0)
(0.410427 0.149885 0)
(0.405916 0.178593 0)
(0.40053 0.207445 0)
(0.393572 0.235106 0)
(0.38327 0.259724 0)
(0.365629 0.278986 0)
(0.332006 0.290301 0)
(0.0189635 -0.0291985 0)
(0.0525132 -0.0833307 0)
(0.0827294 -0.110561 0)
(0.105632 -0.124749 0)
(0.124209 -0.132953 0)
(0.140993 -0.137719 0)
(0.157143 -0.139824 0)
(0.172973 -0.139681 0)
(0.188484 -0.137766 0)
(0.203632 -0.134595 0)
(0.218404 -0.130622 0)
(0.232802 -0.126192 0)
(0.24683 -0.121549 0)
(0.260489 -0.116857 0)
(0.273776 -0.112217 0)
(0.286686 -0.107679 0)
(0.299208 -0.103252 0)
(0.311328 -0.0989136 0)
(0.323025 -0.0946198 0)
(0.334276 -0.0903059 0)
(0.345057 -0.0858891 0)
(0.355338 -0.081267 0)
(0.365089 -0.0763181 0)
(0.374274 -0.0709024 0)
(0.382855 -0.0648617 0)
(0.390791 -0.0580191 0)
(0.39804 -0.0501769 0)
(0.404555 -0.0411182 0)
(0.410284 -0.030615 0)
(0.415166 -0.0184429 0)
(0.419143 -0.00440278 0)
(0.422178 0.0116607 0)
(0.424267 0.0298669 0)
(0.425437 0.0502665 0)
(0.42577 0.0728266 0)
(0.425424 0.0974263 0)
(0.4246 0.123885 0)
(0.423482 0.151897 0)
(0.422215 0.180957 0)
(0.420825 0.210398 0)
(0.418993 0.239396 0)
(0.415674 0.267099 0)
(0.408227 0.293181 0)
(0.389535 0.319709 0)
(0.0208262 -0.0566265 0)
(0.0599856 -0.110326 0)
(0.0915831 -0.130918 0)
(0.11356 -0.14023 0)
(0.130954 -0.14612 0)
(0.14696 -0.15008 0)
(0.162672 -0.151899 0)
(0.178194 -0.151526 0)
(0.193394 -0.149333 0)
(0.208193 -0.14586 0)
(0.22259 -0.141589 0)
(0.236607 -0.136871 0)
(0.250264 -0.131948 0)
(0.263565 -0.126978 0)
(0.276512 -0.122057 0)
(0.289097 -0.117234 0)
(0.301311 -0.112511 0)
(0.313133 -0.107863 0)
(0.324541 -0.103241 0)
(0.335508 -0.0985806 0)
(0.346008 -0.0937966 0)
(0.356014 -0.0887859 0)
(0.365499 -0.0834252 0)
(0.374436 -0.0775735 0)
(0.382798 -0.0710724 0)
(0.390561 -0.0637459 0)
(0.39771 -0.0553966 0)
(0.404226 -0.0458044 0)
(0.41009 -0.0347368 0)
(0.415274 -0.021966 0)
(0.419745 -0.00729982 0)
(0.423499 0.00939054 0)
(0.426557 0.0282114 0)
(0.428961 0.0491749 0)
(0.430804 0.072199 0)
(0.432282 0.0971038 0)
(0.433649 0.123701 0)
(0.435135 0.1517 0)
(0.437 0.180607 0)
(0.439522 0.209868 0)
(0.442871 0.238912 0)
(0.44703 0.267354 0)
(0.451799 0.295726 0)
(0.457116 0.328001 0)
(0.0238111 -0.0895982 0)
(0.0716698 -0.141035 0)
(0.101462 -0.151546 0)
(0.120561 -0.155179 0)
(0.136139 -0.159103 0)
(0.15123 -0.162645 0)
(0.16648 -0.164339 0)
(0.181669 -0.163734 0)
(0.196528 -0.161207 0)
(0.210966 -0.157382 0)
(0.225007 -0.152785 0)
(0.238692 -0.147768 0)
(0.252043 -0.14256 0)
(0.265065 -0.13731 0)
(0.277753 -0.132107 0)
(0.290096 -0.126994 0)
(0.30208 -0.121967 0)
(0.313678 -0.116994 0)
(0.32486 -0.112023 0)
(0.335595 -0.10699 0)
(0.345855 -0.101811 0)
(0.355612 -0.0963833 0)
(0.364843 -0.0905853 0)
(0.373526 -0.0842786 0)
(0.381647 -0.0773105 0)
(0.389204 -0.0695124 0)
(0.396206 -0.0606932 0)
(0.402673 -0.0506333 0)
(0.408623 -0.0390956 0)
(0.414066 -0.0258462 0)
(0.418997 -0.0106939 0)
(0.423456 0.00645633 0)
(0.427489 0.025702 0)
(0.431137 0.0470311 0)
(0.434488 0.0703046 0)
(0.437765 0.0952532 0)
(0.441281 0.121689 0)
(0.445272 0.14933 0)
(0.450081 0.177596 0)
(0.456203 0.205919 0)
(0.464178 0.233723 0)
(0.474692 0.260529 0)
(0.488889 0.286375 0)
(0.509281 0.312984 0)
(0.0409044 -0.131685 0)
(0.0907123 -0.174436 0)
(0.110379 -0.170077 0)
(0.125328 -0.168308 0)
(0.13962 -0.171083 0)
(0.154108 -0.174657 0)
(0.168833 -0.176414 0)
(0.183484 -0.175662 0)
(0.197816 -0.172866 0)
(0.211786 -0.168765 0)
(0.225441 -0.163917 0)
(0.238819 -0.158665 0)
(0.251926 -0.153223 0)
(0.264752 -0.147729 0)
(0.277278 -0.142269 0)
(0.289482 -0.136884 0)
(0.301336 -0.131564 0)
(0.312804 -0.126271 0)
(0.323848 -0.120953 0)
(0.334427 -0.115546 0)
(0.344507 -0.109969 0)
(0.354058 -0.104122 0)
(0.363054 -0.0978851 0)
(0.371481 -0.0911262 0)
(0.379335 -0.0837008 0)
(0.386633 -0.0754529 0)
(0.39342 -0.0662045 0)
(0.399757 -0.0557383 0)
(0.40571 -0.0438145 0)
(0.411339 -0.0301963 0)
(0.416675 -0.0146796 0)
(0.42181 0.00280935 0)
(0.426829 0.0222612 0)
(0.431758 0.0437741 0)
(0.436643 0.0671311 0)
(0.441725 0.0918938 0)
(0.44738 0.117902 0)
(0.453777 0.144913 0)
(0.461281 0.172149 0)
(0.470537 0.198969 0)
(0.482247 0.22468 0)
(0.497336 0.248503 0)
(0.51715 0.269716 0)
(0.543924 0.287694 0)
(0.0970703 -0.180797 0)
(0.113865 -0.199286 0)
(0.113924 -0.179636 0)
(0.127282 -0.175634 0)
(0.142469 -0.178681 0)
(0.156966 -0.18274 0)
(0.170729 -0.184954 0)
(0.184173 -0.184349 0)
(0.19754 -0.181534 0)
(0.210818 -0.177374 0)
(0.223998 -0.172457 0)
(0.237054 -0.167119 0)
(0.249951 -0.161565 0)
(0.262648 -0.155934 0)
(0.275101 -0.150316 0)
(0.287265 -0.144751 0)
(0.299089 -0.139231 0)
(0.310523 -0.133717 0)
(0.321517 -0.128157 0)
(0.33202 -0.122491 0)
(0.341984 -0.11664 0)
(0.351367 -0.110506 0)
(0.360141 -0.103972 0)
(0.368293 -0.0969109 0)
(0.375831 -0.0891883 0)
(0.382794 -0.0806668 0)
(0.38926 -0.0711938 0)
(0.395349 -0.0605717 0)
(0.401183 -0.0485598 0)
(0.406889 -0.0348971 0)
(0.412571 -0.0193638 0)
(0.418322 -0.0019061 0)
(0.424327 0.0174876 0)
(0.430664 0.0390136 0)
(0.437191 0.0623909 0)
(0.444129 0.0868494 0)
(0.451984 0.112282 0)
(0.460733 0.138568 0)
(0.470718 0.164545 0)
(0.482681 0.189547 0)
(0.497323 0.212781 0)
(0.515554 0.233213 0)
(0.538564 0.249704 0)
(0.568002 0.26073 0)
(0.194837 -0.249154 0)
(0.107618 -0.184013 0)
(0.105814 -0.17656 0)
(0.126965 -0.176586 0)
(0.14524 -0.179969 0)
(0.159632 -0.183808 0)
(0.171647 -0.188321 0)
(0.18322 -0.188571 0)
(0.19534 -0.186188 0)
(0.207867 -0.182292 0)
(0.220606 -0.177535 0)
(0.233408 -0.172272 0)
(0.246174 -0.166726 0)
(0.258826 -0.161055 0)
(0.271291 -0.155358 0)
(0.283489 -0.149688 0)
(0.295342 -0.14404 0)
(0.306785 -0.138376 0)
(0.317759 -0.132651 0)
(0.328204 -0.126806 0)
(0.338061 -0.120767 0)
(0.347278 -0.114441 0)
(0.355826 -0.107714 0)
(0.3637 -0.100469 0)
(0.370929 -0.0925849 0)
(0.377581 -0.0839453 0)
(0.38376 -0.074412 0)
(0.389612 -0.0637849 0)
(0.395221 -0.0519269 0)
(0.400728 -0.0385673 0)
(0.406434 -0.0234163 0)
(0.412669 -0.00663124 0)
(0.41972 0.0118475 0)
(0.427728 0.0325376 0)
(0.436212 0.0554696 0)
(0.445165 0.0794326 0)
(0.455392 0.104291 0)
(0.46647 0.130094 0)
(0.478797 0.154858 0)
(0.493176 0.178038 0)
(0.510173 0.198793 0)
(0.530581 0.215911 0)
(0.555335 0.228157 0)
(0.585502 0.233788 0)
(-0.0115856 -0.48727 0)
(0.0370555 -0.161508 0)
(0.0657707 -0.193884 0)
(0.0958123 -0.22918 0)
(0.125446 -0.231586 0)
(0.152337 -0.227042 0)
(0.171999 -0.212125 0)
(0.18314 -0.203619 0)
(0.193929 -0.198343 0)
(0.20549 -0.193058 0)
(0.217621 -0.187393 0)
(0.230073 -0.18149 0)
(0.242665 -0.175481 0)
(0.255256 -0.169441 0)
(0.267724 -0.163399 0)
(0.279941 -0.157352 0)
(0.291793 -0.151275 0)
(0.303194 -0.145125 0)
(0.314073 -0.138844 0)
(0.324354 -0.13237 0)
(0.333962 -0.125639 0)
(0.342836 -0.118586 0)
(0.350938 -0.111138 0)
(0.358264 -0.103209 0)
(0.364845 -0.0947044 0)
(0.370739 -0.0855215 0)
(0.376017 -0.0755502 0)
(0.380952 -0.06454 0)
(0.386034 -0.0528964 0)
(0.39112 -0.0403528 0)
(0.396984 -0.0260035 0)
(0.404569 -0.0100774 0)
(0.41323 0.00756449 0)
(0.422848 0.0276586 0)
(0.433422 0.0490997 0)
(0.445104 0.0703647 0)
(0.458272 0.0933153 0)
(0.471668 0.118699 0)
(0.486389 0.142428 0)
(0.50302 0.164225 0)
(0.521985 0.182974 0)
(0.54398 0.197248 0)
(0.569632 0.205988 0)
(0.599545 0.207487 0)
(-0.0827407 -0.320282 0)
(-0.0251096 -0.223636 0)
(0.031555 -0.227117 0)
(0.0691332 -0.236788 0)
(0.100248 -0.236991 0)
(0.127976 -0.234139 0)
(0.153155 -0.231974 0)
(0.176418 -0.230719 0)
(0.197378 -0.229303 0)
(0.216363 -0.226632 0)
(0.234137 -0.222545 0)
(0.251127 -0.217398 0)
(0.267514 -0.211569 0)
(0.283375 -0.205291 0)
(0.298732 -0.198681 0)
(0.313577 -0.191791 0)
(0.327877 -0.184648 0)
(0.341587 -0.177253 0)
(0.35465 -0.169562 0)
(0.366992 -0.161508 0)
(0.378516 -0.153024 0)
(0.389096 -0.144057 0)
(0.398563 -0.134569 0)
(0.406671 -0.124528 0)
(0.413003 -0.113884 0)
(0.416821 -0.102515 0)
(0.417331 -0.0902106 0)
(0.416067 -0.0765697 0)
(0.395325 -0.0601372 0)
(0.385844 -0.045187 0)
(0.386805 -0.0297286 0)
(0.391934 -0.0130717 0)
(0.399924 0.00419252 0)
(0.411703 0.0241031 0)
(0.429052 0.0449742 0)
(0.445622 0.064209 0)
(0.460332 0.085089 0)
(0.476522 0.107241 0)
(0.494896 0.127265 0)
(0.513854 0.14731 0)
(0.53453 0.164645 0)
(0.557793 0.176935 0)
(0.583865 0.183305 0)
(0.613188 0.181937 0)
(-0.0391196 -0.291546 0)
(-0.0191491 -0.267445 0)
(0.0247556 -0.262504 0)
(0.0596214 -0.263082 0)
(0.0913925 -0.259266 0)
(0.121448 -0.252369 0)
(0.150462 -0.244479 0)
(0.178092 -0.237884 0)
(0.20344 -0.232389 0)
(0.226563 -0.226972 0)
(0.248007 -0.221203 0)
(0.268215 -0.21507 0)
(0.287459 -0.208671 0)
(0.30589 -0.202082 0)
(0.323595 -0.195337 0)
(0.340617 -0.188439 0)
(0.356967 -0.181372 0)
(0.372627 -0.174099 0)
(0.387553 -0.166555 0)
(0.401678 -0.158654 0)
(0.414907 -0.150295 0)
(0.427106 -0.141364 0)
(0.438086 -0.131724 0)
(0.447585 -0.121187 0)
(0.455233 -0.109474 0)
(0.460553 -0.0961237 0)
(0.463382 -0.0804643 0)
(0.465403 -0.0624185 0)
(0.463547 -0.0482516 0)
(0.461829 -0.0443881 0)
(0.457339 -0.0401814 0)
(0.45193 -0.029014 0)
(0.441796 -0.0140832 0)
(0.414367 0.00556899 0)
(0.421222 0.0338201 0)
(0.43739 0.0567791 0)
(0.45635 0.0786284 0)
(0.483538 0.100061 0)
(0.505702 0.116811 0)
(0.526474 0.132718 0)
(0.549764 0.14538 0)
(0.574698 0.154392 0)
(0.600825 0.159209 0)
(0.629521 0.156149 0)
(-0.019053 -0.286496 0)
(-0.00551179 -0.29128 0)
(0.0277693 -0.291889 0)
(0.0599785 -0.290671 0)
(0.0917171 -0.285546 0)
(0.122864 -0.27759 0)
(0.153397 -0.268621 0)
(0.18276 -0.260297 0)
(0.21028 -0.252762 0)
(0.235859 -0.245558 0)
(0.259772 -0.238392 0)
(0.282334 -0.231171 0)
(0.303783 -0.22389 0)
(0.324279 -0.216553 0)
(0.343928 -0.209145 0)
(0.362796 -0.201637 0)
(0.380915 -0.193981 0)
(0.398285 -0.186112 0)
(0.41488 -0.177944 0)
(0.430651 -0.169368 0)
(0.445522 -0.160255 0)
(0.45939 -0.150454 0)
(0.472114 -0.139782 0)
(0.483527 -0.128004 0)
(0.493451 -0.114823 0)
(0.501783 -0.0998779 0)
(0.508784 -0.0828811 0)
(0.515681 -0.0644148 0)
(0.521875 -0.0487148 0)
(0.525813 -0.0381654 0)
(0.525044 -0.0257871 0)
(0.520789 -0.00734806 0)
(0.512931 0.0111519 0)
(0.499755 0.0147057 0)
(0.496329 0.00656613 0)
(0.450422 0.033226 0)
(0.446571 0.0595761 0)
(0.481944 0.0882576 0)
(0.508615 0.10699 0)
(0.540187 0.122739 0)
(0.569684 0.13272 0)
(0.595629 0.137977 0)
(0.6227 0.137827 0)
(0.651852 0.130463 0)
(-0.0114895 -0.276275 0)
(0.00408035 -0.309912 0)
(0.0339092 -0.317592 0)
(0.0647968 -0.317267 0)
(0.0962336 -0.312047 0)
(0.127517 -0.303881 0)
(0.158368 -0.294512 0)
(0.188312 -0.285191 0)
(0.216865 -0.27629 0)
(0.243865 -0.267724 0)
(0.269405 -0.259358 0)
(0.293662 -0.25111 0)
(0.316805 -0.242941 0)
(0.338963 -0.234813 0)
(0.360235 -0.226683 0)
(0.380688 -0.218491 0)
(0.400363 -0.210166 0)
(0.419274 -0.201622 0)
(0.437414 -0.192752 0)
(0.454755 -0.183428 0)
(0.471254 -0.173503 0)
(0.486853 -0.16281 0)
(0.501485 -0.151153 0)
(0.515088 -0.138312 0)
(0.527648 -0.124055 0)
(0.539266 -0.1082 0)
(0.550289 -0.0907852 0)
(0.561407 -0.0725271 0)
(0.57219 -0.055732 0)
(0.580605 -0.0411598 0)
(0.585023 -0.0250768 0)
(0.586616 -0.00516338 0)
(0.58649 0.0160535 0)
(0.583598 0.0329811 0)
(0.579581 0.0454019 0)
(0.566058 0.0493239 0)
(0.560139 0.0235721 0)
(0.568101 0.0152159 0)
(0.508175 0.0836941 0)
(0.543794 0.106568 0)
(0.579462 0.1195 0)
(0.614282 0.125789 0)
(0.651829 0.123876 0)
(0.681547 0.114041 0)
(-0.00643499 -0.276214 0)
(0.0122412 -0.329359 0)
(0.0413357 -0.342462 0)
(0.0717285 -0.343359 0)
(0.10278 -0.338286 0)
(0.133739 -0.329977 0)
(0.164332 -0.320204 0)
(0.194235 -0.310087 0)
(0.223117 -0.300125 0)
(0.250811 -0.290438 0)
(0.277315 -0.281013 0)
(0.302702 -0.271807 0)
(0.327069 -0.262777 0)
(0.350503 -0.253869 0)
(0.373079 -0.24502 0)
(0.394855 -0.236152 0)
(0.415869 -0.227177 0)
(0.436147 -0.21799 0)
(0.455695 -0.20847 0)
(0.474511 -0.198478 0)
(0.492585 -0.18786 0)
(0.509903 -0.176443 0)
(0.526463 -0.164043 0)
(0.542285 -0.150473 0)
(0.557445 -0.135572 0)
(0.572107 -0.119274 0)
(0.586549 -0.101735 0)
(0.601074 -0.0835323 0)
(0.615245 -0.0658362 0)
(0.627611 -0.0487921 0)
(0.637298 -0.0303965 0)
(0.645283 -0.00946233 0)
(0.652668 0.0125043 0)
(0.658705 0.0325704 0)
(0.662876 0.0501659 0)
(0.663878 0.0624973 0)
(0.660847 0.0626406 0)
(0.653521 0.068299 0)
(0.640249 0.0680733 0)
(0.658028 0.02576 0)
(0.600052 0.0802041 0)
(0.62264 0.101724 0)
(0.670809 0.107937 0)
(0.704163 0.100662 0)
(0.739787 0.0857185 0)
(-0.00260369 -0.28027 0)
(0.019012 -0.350777 0)
(0.0488564 -0.367737 0)
(0.0792611 -0.369443 0)
(0.109933 -0.364377 0)
(0.140359 -0.355855 0)
(0.170406 -0.345691 0)
(0.199913 -0.334953 0)
(0.22868 -0.324187 0)
(0.256573 -0.313619 0)
(0.283544 -0.303314 0)
(0.309604 -0.293272 0)
(0.334792 -0.283459 0)
(0.359154 -0.273823 0)
(0.382737 -0.264293 0)
(0.405582 -0.254782 0)
(0.427723 -0.245191 0)
(0.449188 -0.235405 0)
(0.469995 -0.225298 0)
(0.490162 -0.214725 0)
(0.509707 -0.203531 0)
(0.528652 -0.191553 0)
(0.547041 -0.178622 0)
(0.564941 -0.164586 0)
(0.582466 -0.149335 0)
(0.599775 -0.132852 0)
(0.617056 -0.115289 0)
(0.634411 -0.0970283 0)
(0.651489 -0.0786313 0)
(0.667449 -0.0600496 0)
(0.681906 -0.040252 0)
(0.695541 -0.0187548 0)
(0.709117 0.00333923 0)
(0.722276 0.0241116 0)
(0.734434 0.0428068 0)
(0.74484 0.0577815 0)
(0.750583 0.0668603 0)
(0.751608 0.0792131 0)
(0.752996 0.0907337 0)
(0.75704 0.083363 0)
(0.747108 0.0716895 0)
(0.760339 0.0197657 0)
(0.746104 0.0277599 0)
(0.726282 0.0705301 0)
(0.764213 0.0635016 0)
(0.000783446 -0.288552 0)
(0.0249913 -0.374224 0)
(0.055858 -0.393796 0)
(0.0863623 -0.395663 0)
(0.116594 -0.39031 0)
(0.146364 -0.381461 0)
(0.175715 -0.37093 0)
(0.20463 -0.35972 0)
(0.233017 -0.34837 0)
(0.260783 -0.337145 0)
(0.287872 -0.326156 0)
(0.314258 -0.31543 0)
(0.339942 -0.304954 0)
(0.364937 -0.294679 0)
(0.389263 -0.284537 0)
(0.412945 -0.274443 0)
(0.436009 -0.264293 0)
(0.45848 -0.253971 0)
(0.480385 -0.243348 0)
(0.501755 -0.232284 0)
(0.522626 -0.220629 0)
(0.543048 -0.20823 0)
(0.563089 -0.19494 0)
(0.58284 -0.180632 0)
(0.602421 -0.165224 0)
(0.621974 -0.148712 0)
(0.641623 -0.131201 0)
(0.661399 -0.112915 0)
(0.681083 -0.0941114 0)
(0.700255 -0.0747183 0)
(0.718799 -0.0542609 0)
(0.737159 -0.0326407 0)
(0.755808 -0.010668 0)
(0.774601 0.0103487 0)
(0.793103 0.0295582 0)
(0.810642 0.045843 0)
(0.82529 0.0585239 0)
(0.837226 0.0718781 0)
(0.849382 0.0843765 0)
(0.86044 0.0892412 0)
(0.86817 0.0914377 0)
(0.875627 0.0751056 0)
(0.872006 0.0601853 0)
(0.873867 0.0268747 0)
(0.891621 -0.0220067 0)
(0.00406609 -0.300676 0)
(0.030359 -0.399539 0)
(0.0619689 -0.420543 0)
(0.0923426 -0.421917 0)
(0.121978 -0.415971 0)
(0.150985 -0.406683 0)
(0.179554 -0.395802 0)
(0.207772 -0.384234 0)
(0.235626 -0.372475 0)
(0.263063 -0.360785 0)
(0.29003 -0.349291 0)
(0.316488 -0.338041 0)
(0.342412 -0.327032 0)
(0.367793 -0.316228 0)
(0.392632 -0.305568 0)
(0.416938 -0.294972 0)
(0.440727 -0.284339 0)
(0.464023 -0.273559 0)
(0.486855 -0.262505 0)
(0.509259 -0.251044 0)
(0.531285 -0.239037 0)
(0.552997 -0.226344 0)
(0.574474 -0.212835 0)
(0.595817 -0.198403 0)
(0.617143 -0.182978 0)
(0.638574 -0.16655 0)
(0.660207 -0.14918 0)
(0.682072 -0.130987 0)
(0.704067 -0.11209 0)
(0.726025 -0.0924505 0)
(0.747967 -0.071898 0)
(0.770191 -0.0505187 0)
(0.792988 -0.0289175 0)
(0.816296 -0.00800844 0)
(0.839804 0.0114373 0)
(0.862984 0.028612 0)
(0.884776 0.0431492 0)
(0.905277 0.0566497 0)
(0.92582 0.0682615 0)
(0.945521 0.0753881 0)
(0.96366 0.0793403 0)
(0.978627 0.0741505 0)
(0.989021 0.0688272 0)
(1.00046 0.0562753 0)
(1.00803 0.0363138 0)
(0.00734667 -0.316413 0)
(0.0351022 -0.426295 0)
(0.0668955 -0.447602 0)
(0.0967479 -0.447961 0)
(0.125575 -0.441214 0)
(0.153715 -0.431429 0)
(0.181444 -0.420228 0)
(0.20891 -0.4084 0)
(0.236147 -0.39637 0)
(0.263128 -0.384373 0)
(0.289811 -0.372532 0)
(0.316152 -0.360902 0)
(0.342116 -0.349491 0)
(0.367679 -0.338274 0)
(0.392827 -0.327199 0)
(0.41756 -0.316194 0)
(0.441886 -0.305167 0)
(0.465822 -0.294014 0)
(0.489399 -0.282618 0)
(0.512655 -0.270856 0)
(0.535646 -0.258599 0)
(0.558441 -0.245723 0)
(0.581125 -0.232112 0)
(0.603799 -0.217671 0)
(0.626574 -0.202338 0)
(0.649562 -0.186092 0)
(0.672854 -0.168961 0)
(0.696499 -0.151006 0)
(0.720485 -0.132289 0)
(0.74479 -0.112813 0)
(0.769494 -0.0925633 0)
(0.794814 -0.0717065 0)
(0.820936 -0.0507137 0)
(0.847836 -0.0302523 0)
(0.875294 -0.0109588 0)
(0.902931 0.00655859 0)
(0.930149 0.0219641 0)
(0.956899 0.035668 0)
(0.983672 0.0470562 0)
(1.01 0.0548201 0)
(1.03535 0.0589379 0)
(1.0583 0.0572737 0)
(1.07839 0.0532939 0)
(1.09675 0.0438736 0)
(1.11057 0.029934 0)
(0.0105467 -0.335571 0)
(0.0390789 -0.453924 0)
(0.0703993 -0.474483 0)
(0.0993145 -0.473499 0)
(0.12712 -0.465882 0)
(0.154296 -0.45562 0)
(0.181142 -0.44416 0)
(0.207822 -0.432163 0)
(0.234388 -0.419977 0)
(0.260831 -0.407802 0)
(0.287114 -0.395747 0)
(0.313196 -0.383866 0)
(0.339037 -0.372175 0)
(0.364607 -0.360657 0)
(0.389884 -0.349271 0)
(0.41486 -0.337953 0)
(0.439538 -0.326622 0)
(0.46393 -0.315186 0)
(0.488066 -0.303537 0)
(0.511984 -0.291565 0)
(0.53574 -0.279154 0)
(0.559404 -0.266191 0)
(0.583062 -0.252575 0)
(0.606812 -0.238221 0)
(0.630762 -0.22307 0)
(0.655016 -0.207096 0)
(0.67967 -0.190305 0)
(0.704796 -0.172729 0)
(0.730442 -0.154411 0)
(0.75666 -0.135385 0)
(0.783558 -0.115714 0)
(0.811302 -0.0955898 0)
(0.840022 -0.0753934 0)
(0.869712 -0.0556346 0)
(0.900224 -0.036831 0)
(0.931291 -0.0194703 0)
(0.962543 -0.00389225 0)
(0.993841 0.0098498 0)
(1.02526 0.0212801 0)
(1.05647 0.0296031 0)
(1.087 0.034437 0)
(1.11591 0.0348329 0)
(1.14268 0.0318808 0)
(1.16715 0.0245094 0)
(1.18813 0.013647 0)
(0.0134656 -0.357801 0)
(0.0420905 -0.48179 0)
(0.0723229 -0.5007 0)
(0.0999542 -0.498255 0)
(0.126568 -0.489834 0)
(0.152698 -0.479186 0)
(0.178621 -0.467556 0)
(0.204483 -0.455482 0)
(0.230334 -0.443241 0)
(0.25617 -0.430993 0)
(0.28196 -0.418833 0)
(0.307665 -0.406813 0)
(0.333245 -0.39495 0)
(0.358668 -0.383234 0)
(0.383909 -0.371635 0)
(0.408955 -0.360098 0)
(0.433805 -0.348554 0)
(0.458471 -0.336922 0)
(0.482976 -0.325108 0)
(0.50736 -0.313011 0)
(0.531677 -0.300531 0)
(0.555995 -0.287568 0)
(0.580397 -0.274032 0)
(0.604979 -0.259847 0)
(0.629842 -0.244958 0)
(0.655092 -0.229337 0)
(0.680828 -0.21298 0)
(0.70714 -0.195907 0)
(0.734113 -0.178155 0)
(0.761834 -0.159779 0)
(0.790421 -0.140875 0)
(0.820009 -0.121636 0)
(0.850696 -0.102376 0)
(0.882487 -0.0834985 0)
(0.915287 -0.0654274 0)
(0.948905 -0.0485712 0)
(0.983088 -0.0332634 0)
(1.01766 -0.019725 0)
(1.05251 -0.00834557 0)
(1.08733 0.000343578 0)
(1.1217 0.00594761 0)
(1.15495 0.00793255 0)
(1.18653 0.00654968 0)
(1.21599 0.00145214 0)
(1.24268 -0.00687898 0)
(0.0158825 -0.382555 0)
(0.0439744 -0.509271 0)
(0.0726259 -0.525859 0)
(0.0987399 -0.522016 0)
(0.124049 -0.512959 0)
(0.149069 -0.502063 0)
(0.174025 -0.490371 0)
(0.199028 -0.478312 0)
(0.224114 -0.466102 0)
(0.249275 -0.453871 0)
(0.274484 -0.441699 0)
(0.299703 -0.429632 0)
(0.324896 -0.417691 0)
(0.350029 -0.40587 0)
(0.375079 -0.394148 0)
(0.400031 -0.38248 0)
(0.424881 -0.37081 0)
(0.449639 -0.359065 0)
(0.474327 -0.347167 0)
(0.498981 -0.335027 0)
(0.523654 -0.322557 0)
(0.548411 -0.30967 0)
(0.573332 -0.296289 0)
(0.598508 -0.282345 0)
(0.624038 -0.26779 0)
(0.650024 -0.252596 0)
(0.676572 -0.236756 0)
(0.703782 -0.220286 0)
(0.731756 -0.203225 0)
(0.7606 -0.185636 0)
(0.79043 -0.167628 0)
(0.821362 -0.149382 0)
(0.853476 -0.13116 0)
(0.886787 -0.113288 0)
(0.921231 -0.0961185 0)
(0.956671 -0.0799973 0)
(0.992919 -0.0652364 0)
(1.02979 -0.0521026 0)
(1.0671 -0.0409269 0)
(1.10455 -0.0320946 0)
(1.14177 -0.0259363 0)
(1.17821 -0.0227925 0)
(1.21335 -0.0226736 0)
(1.2467 -0.0257186 0)
(1.27774 -0.0317351 0)
(0.0176334 -0.409116 0)
(0.0446647 -0.535819 0)
(0.0713976 -0.549692 0)
(0.0958747 -0.544652 0)
(0.119819 -0.535174 0)
(0.143679 -0.524189 0)
(0.167618 -0.51255 0)
(0.191709 -0.500594 0)
(0.215967 -0.488495 0)
(0.240378 -0.476358 0)
(0.264914 -0.46425 0)
(0.289541 -0.452216 0)
(0.314224 -0.440277 0)
(0.338932 -0.428433 0)
(0.363642 -0.416669 0)
(0.38834 -0.404952 0)
(0.413022 -0.393234 0)
(0.437696 -0.381456 0)
(0.462381 -0.369549 0)