/*--------------------------------*- C++ -*----------------------------------*\
| =========                 |                                                 |
| \\      /  F ield         | OpenFOAM: The Open Source CFD Toolbox           |
|  \\    /   O peration     | Version:  5.0                                   |
|   \\  /    A nd           | Web:      www.OpenFOAM.org                      |
|    \\/     M anipulation  |                                                 |
\*---------------------------------------------------------------------------*/
FoamFile
{
    version     2.0;
    format      ascii;
    class       surfaceScalarField;
    location    "0.15";
    object      alphaPhi10;
}
// * * * * * * * * * * * * * * * * * * * * * * * * * * * * * * * * * * * * * //

dimensions      [0 3 -1 0 0 0 0];

internalField   nonuniform List<scalar> 
3742
(
2.59569e-06
-1.37814e-06
2.51908e-06
-3.23226e-06
2.77043e-06
-1.86202e-05
6.13233e-08
-4.0583e-06
2.17176e-10
-9.70255e-09
1.09075e-16
1.2673e-12
-8.05916e-17
7.48989e-16
-2.58973e-16
4.34653e-17
-3.73107e-16
1.93387e-16
-2.40301e-16
3.73495e-16
-8.48204e-17
2.06269e-16
-1.3487e-17
6.27688e-17
-1.35464e-18
8.76559e-18
-1.29322e-19
8.07857e-19
-1.15569e-20
7.58197e-20
-9.82729e-22
6.8425e-21
-8.1478e-23
5.92246e-22
-6.64662e-24
5.03457e-23
-5.35146e-25
4.24898e-24
-4.25469e-26
3.57421e-25
-3.34053e-27
3.00063e-26
-2.58668e-28
2.51714e-27
-1.96631e-29
2.11066e-28
-1.46071e-30
1.76547e-29
1.47169e-30
7.11569e-19
-1.95877e-18
5.954e-21
-2.68243e-20
-2.01846e-20
2.73551e-18
-1.45588e-17
1.37788e-16
-6.66865e-15
8.28263e-16
-9.671e-13
3.68989e-15
-1.21966e-10
3.52928e-16
-1.8924e-08
8.19819e-16
-4.52513e-08
7.5735e-15
-1.52487e-08
2.24655e-14
2.11196e-08
5.31855e-14
7.72266e-08
7.27959e-14
1.26778e-07
7.21352e-14
1.64221e-07
7.90701e-14
1.66337e-07
1.9927e-13
1.45153e-07
1.10107e-13
1.06368e-07
5.14855e-14
6.56735e-08
2.26236e-14
8.4928e-08
3.13406e-14
4.75639e-08
1.06143e-14
1.08267e-08
1.85635e-14
1.47985e-08
8.36583e-14
1.68965e-07
2.03851e-13
1.43482e-08
-4.1717e-11
2.97409e-13
-6.43671e-10
1.03887e-15
2.76596e-13
-2.77118e-16
-3.24154e-18
-1.271e-16
4.08594e-17
-1.8729e-16
1.53137e-16
-1.26084e-16
1.65589e-16
-3.40788e-17
8.68935e-17
-4.41826e-18
1.76302e-17
-3.70746e-19
2.044e-18
-3.14412e-20
1.62447e-19
-2.60562e-21
1.36381e-20
-2.08723e-22
1.14303e-21
-1.64323e-23
9.34941e-23
-1.28198e-24
7.56525e-24
-9.93477e-26
6.10611e-25
-7.64702e-27
4.92941e-26
-5.84474e-28
3.98198e-27
-4.43019e-29
3.21965e-28
-3.31815e-30
2.60416e-29
-2.44914e-31
2.10242e-30
1.6927e-31
5.77281e-20
-1.09825e-18
3.31513e-21
-3.0145e-20
-3.39858e-19
4.20145e-18
-1.27766e-17
2.02967e-16
-4.39934e-17
1.34568e-15
-6.71991e-17
6.742e-15
7.23647e-18
8.59494e-16
1.69155e-16
2.04702e-15
5.66937e-16
1.4646e-14
9.5493e-16
4.44776e-14
1.8379e-16
1.02127e-13
-1.08908e-15
1.73457e-13
-2.30353e-15
1.73172e-13
-3.73366e-15
1.9914e-13
-1.19802e-14
5.01558e-13
-7.7117e-15
2.69345e-13
-3.92947e-15
1.24294e-13
-1.77347e-15
4.81887e-14
-1.45133e-15
3.96211e-14
-7.34703e-16
2.20879e-14
-1.14124e-15
4.96564e-14
-4.06799e-15
2.09511e-13
-4.80367e-15
4.6087e-13
-4.19361e-11
2.14251e-13
2.21377e-13
6.66453e-14
-1.62967e-17
4.84149e-14
-1.58873e-16
-4.20535e-19
-1.97491e-16
8.69905e-17
-1.51307e-16
1.53012e-16
-7.02299e-17
8.83785e-17
-1.17606e-17
3.55783e-17
-1.19253e-18
4.14252e-18
-8.66904e-20
3.84839e-19
-6.61688e-21
2.77048e-20
-5.10204e-22
2.13312e-21
-3.86997e-23
1.67883e-22
-2.91054e-24
1.30976e-23
-2.1825e-25
1.01807e-24
-1.63363e-26
7.92347e-26
-1.21958e-27
6.18262e-27
-9.07329e-29
4.83491e-28
-6.71658e-30
3.78781e-29
-4.93156e-31
2.96963e-30
-3.58379e-32
2.32468e-31
1.8148e-32
3.47326e-20
-6.11964e-22
3.33131e-21
1.81147e-20
-5.87282e-19
3.42048e-18
-2.71754e-17
1.46577e-16
-1.43734e-16
1.00212e-15
-4.94132e-16
7.08552e-15
-3.73548e-17
9.83065e-16
-4.49982e-17
2.39079e-15
-1.44271e-16
1.74222e-14
-1.47336e-16
5.12261e-14
5.69952e-17
1.14725e-13
2.27909e-16
1.7939e-13
1.71853e-16
1.80579e-13
1.36064e-16
2.53242e-13
1.64159e-16
6.09662e-13
3.4559e-16
3.20454e-13
3.64701e-16
1.46892e-13
6.23666e-16
6.45188e-14
6.29467e-16
4.71118e-14
2.41125e-15
2.96951e-14
1.71981e-14
9.48268e-14
6.62648e-14
3.46471e-13
5.78325e-14
7.47915e-13
3.93693e-14
7.81628e-13
7.36549e-14
2.65889e-13
-2.72471e-16
4.47961e-15
-2.72523e-16
-3.49852e-19
-2.23309e-16
9.83384e-17
-1.12547e-16
1.4519e-16
-3.28926e-17
4.30265e-17
-3.15405e-18
1.03612e-17
-2.53738e-19
7.25063e-19
-1.68278e-20
5.60941e-20
-1.18737e-21
3.8826e-21
-8.63432e-23
2.84052e-22
-6.26423e-24
2.14366e-23
-4.53894e-25
1.61822e-24
-3.29363e-26
1.22197e-25
-2.39341e-27
9.25473e-27
-1.73925e-28
7.033e-28
-1.26229e-29
5.35863e-29
-9.1335e-31
4.09052e-30
-6.569e-32
3.12417e-31
-4.68696e-33
2.38201e-32
1.81041e-33
7.71416e-24
1.58036e-22
-1.14524e-21
1.12259e-20
-3.29536e-19
1.26873e-18
-1.6006e-17
3.56164e-17
-1.01343e-16
4.14306e-16
-5.65823e-16
5.6564e-15
-5.35666e-17
6.13143e-16
-7.32517e-17
1.71788e-15
-1.81991e-16
1.3379e-14
7.73635e-16
3.68606e-14
3.88855e-15
7.55951e-14
6.20624e-15
9.89867e-14
1.15097e-14
1.05324e-13
3.41088e-14
2.11556e-13
2.14613e-14
4.7608e-13
1.16964e-14
2.49266e-13
6.13775e-15
1.14386e-13
5.4251e-15
5.00515e-14
4.2283e-15
3.19969e-14
1.72362e-14
3.14861e-14
8.40906e-14
1.19654e-13
2.58438e-13
3.8564e-13
4.20064e-13
7.68258e-13
2.60261e-13
8.05299e-13
1.0259e-14
3.17938e-13
-3.21545e-16
5.28834e-17
-3.21901e-16
8.73582e-21
-2.56786e-16
9.43057e-17
-6.0327e-17
7.86053e-17
-9.85e-18
1.34562e-17
-6.02185e-19
1.64697e-18
-4.14591e-20
8.66782e-20
-2.65134e-21
6.2423e-21
-1.79022e-22
4.38301e-22
-1.25388e-23
3.16994e-23
-8.82624e-25
2.35456e-24
-6.22749e-26
1.75025e-25
-4.40887e-27
1.30067e-26
-3.13011e-28
9.68352e-28
-2.22486e-29
7.22647e-29
-1.58096e-30
5.40218e-30
-1.12095e-31
4.04237e-31
-7.90831e-33
3.02371e-32
-5.54124e-34
2.25614e-33
1.67676e-34
-8.25258e-25
2.46005e-22
-1.6902e-22
1.43284e-20
-4.52248e-20
5.92151e-19
-1.8072e-18
1.57297e-17
-2.19521e-17
2.32031e-16
-2.42226e-16
3.04354e-15
-1.5256e-17
1.59286e-16
-6.19046e-18
7.05699e-16
6.84396e-16
5.23623e-15
3.07152e-15
1.38391e-14
6.13839e-15
2.627e-14
8.67582e-15
3.59595e-14
2.15642e-14
5.1141e-14
5.78e-14
1.24898e-13
3.53541e-14
2.42233e-13
1.88155e-14
1.26541e-13
9.56422e-15
5.75332e-14
7.17063e-15
2.38433e-14
8.42389e-15
1.11285e-14
3.92776e-14
1.97853e-14
1.61507e-13
7.78482e-14
4.3433e-13
2.28695e-13
6.69048e-13
4.32157e-13
4.46722e-13
4.56136e-13
1.68129e-16
1.93983e-13
-3.80613e-16
-3.40606e-18
-2.41353e-16
4.04506e-18
-1.42415e-16
4.08261e-17
-1.76932e-17
1.95304e-17
-1.5424e-18
1.85926e-18
-7.77787e-20
1.20357e-19
-5.15192e-21
6.84566e-21
-3.34044e-22
5.27262e-22
-2.24079e-23
3.93068e-23
-1.55001e-24
2.92546e-24
-1.07673e-25
2.19961e-25
-7.49034e-27
1.64171e-26
-5.22345e-28
1.21818e-27
-3.65044e-29
9.01807e-29
-2.55318e-30
6.6708e-30
-1.78476e-31
4.93112e-31
-1.24467e-32
3.64134e-32
-8.63782e-34
2.68321e-33
-5.95504e-35
1.96949e-34
1.43799e-35
2.48705e-22
2.18464e-22
1.40833e-20
1.13805e-20
2.7997e-19
3.26666e-19
2.32489e-18
6.4351e-18
2.3741e-17
8.60107e-17
2.19987e-18
7.72414e-16
1.92015e-17
8.93746e-18
2.40198e-16
7.2317e-20
9.38988e-16
1.57789e-18
2.41124e-15
2.4194e-17
4.19749e-15
2.6301e-16
7.26984e-15
2.01655e-15
2.09927e-14
1.057e-14
4.72436e-14
3.50295e-14
2.83458e-14
6.0915e-14
1.47552e-14
3.14449e-14
7.0235e-15
1.40967e-14
3.8012e-15
5.73248e-15
7.96749e-15
2.1209e-15
3.78902e-14
1.3647e-15
1.3943e-13
3.46397e-15
3.47684e-13
7.56773e-15
5.245e-13
1.04864e-14
3.65039e-13
8.07141e-15
-2.14739e-16
2.52179e-15
-2.16811e-16
-1.33368e-18
-7.84401e-17
1.44409e-18
-2.9481e-17
2.34046e-18
-2.13494e-18
1.48902e-18
-1.12381e-19
8.00352e-20
-6.64565e-21
4.08505e-21
-4.79399e-22
3.42781e-22
-3.31117e-23
3.21513e-23
-2.296e-24
2.71657e-24
-1.61289e-25
2.1867e-25
-1.12755e-26
1.71839e-26
-7.8471e-28
1.31757e-27
-5.45142e-29
9.93282e-29
-3.78391e-30
7.41175e-30
-2.62301e-31
5.49443e-31
-1.81438e-32
4.05274e-32
-1.25053e-33
2.976e-33
-8.5699e-35
2.17458e-34
-5.83094e-36
1.57924e-35
1.13857e-36
3.51988e-22
-1.1383e-44
1.64329e-20
-2.04137e-42
3.76824e-19
-1.78473e-40
5.289e-18
-1.13583e-38
5.01204e-17
-6.10349e-37
6.47856e-19
-2.87172e-35
6.18729e-21
-1.28101e-33
1.63686e-19
-5.53502e-32
3.04926e-18
-2.29917e-30
3.98279e-17
-9.02825e-29
3.6122e-16
-3.3033e-27
2.20565e-15
-1.11651e-25
8.40904e-15
-3.46624e-24
1.66778e-14
-9.82653e-23
9.77692e-15
-2.5236e-21
4.97845e-15
-5.84097e-20
2.31092e-15
-1.34104e-18
9.85874e-16
-2.1364e-17
7.43392e-16
-6.53461e-17
2.26422e-15
-3.29193e-16
6.13973e-15
-4.55826e-16
1.10927e-14
-4.31504e-16
1.2012e-14
-2.24911e-16
6.02812e-15
-7.6548e-17
-1.41702e-17
-4.05553e-18
-2.95821e-17
-2.15133e-19
-4.33787e-18
3.25717e-20
-1.49765e-18
3.09326e-20
-7.35229e-20
1.90463e-20
-4.46467e-21
1.15839e-21
-3.3174e-22
1.14507e-22
-3.00893e-23
1.19286e-23
-2.45058e-24
1.39829e-24
-1.87452e-25
1.38464e-25
-1.38594e-26
1.24921e-26
-9.99412e-28
1.08343e-27
-7.08708e-29
8.85188e-29
-4.97402e-30
6.94353e-30
-3.46704e-31
5.3146e-31
-2.40304e-32
4.00258e-32
-1.65662e-33
2.97834e-33
-1.1351e-34
2.1945e-34
-7.71894e-36
1.6022e-35
-5.20402e-37
1.15874e-36
8.29597e-38
-8.21491e-45
-3.16812e-45
-1.19117e-42
-8.58416e-43
-9.30529e-41
-8.66112e-41
-5.55396e-39
-5.89743e-39
-2.83286e-37
-3.32617e-37
-1.38385e-35
-1.5162e-35
-6.68023e-34
-6.26828e-34
-3.14985e-32
-2.45197e-32
-1.41438e-30
-9.16287e-31
-5.91716e-29
-3.25253e-29
-2.27605e-27
-1.08642e-27
-7.98792e-26
-3.4048e-26
-2.54281e-24
-1.00331e-24
-7.29144e-23
-2.78938e-23
-1.87662e-21
-7.19888e-22
-4.75283e-20
-1.27579e-20
-1.31592e-18
-7.26496e-20
-2.21568e-17
-5.23105e-19
-1.73492e-16
-7.73174e-18
-3.224e-16
-1.15207e-16
-1.48349e-16
-2.38729e-16
-8.01882e-18
-2.82329e-16
-5.59042e-18
-2.2734e-16
-3.06278e-19
-8.18321e-17
-7.41101e-19
-3.6207e-18
-3.76015e-19
-1.07314e-22
-7.54534e-20
1.44207e-24
-2.41838e-20
2.65239e-22
-2.1302e-21
1.80449e-22
-1.95661e-22
2.86174e-23
-1.69999e-23
4.48751e-24
-1.63763e-24
5.37457e-25
-1.37904e-25
6.30724e-26
-1.11333e-26
6.12451e-27
-9.33215e-28
5.65263e-28
-7.30338e-29
5.43196e-29
-5.42796e-30
4.77913e-30
-3.92228e-31
4.04349e-31
-2.78495e-32
3.2685e-32
-1.95157e-33
2.54804e-33
-1.35275e-34
1.93966e-34
-9.28094e-36
1.44998e-35
-6.29982e-37
1.06733e-36
-4.22922e-38
7.74529e-38
5.54207e-39
-8.79378e-45
5.62566e-45
-8.9859e-44
4.58361e-43
-1.16176e-41
2.53671e-41
-1.05961e-39
1.0494e-39
-6.81276e-38
2.90934e-38
-3.47278e-36
1.5096e-37
-1.59624e-34
-3.73868e-35
-6.91391e-33
-2.83754e-33
-2.86268e-31
-1.32592e-31
-1.12234e-29
-5.64487e-30
-4.11443e-28
-2.18493e-28
-1.38525e-26
-7.68548e-27
-4.30408e-25
-2.46444e-25
-1.73756e-23
-7.22388e-24
-1.47197e-21
-2.29712e-22
-1.63656e-20
-7.60443e-21
-3.60963e-20
-4.62372e-20
-3.99299e-19
-1.1238e-19
-1.51032e-17
-1.11888e-19
-1.83594e-16
-5.42533e-20
-3.45204e-16
-3.66187e-21
-3.54964e-16
-1.39492e-21
-2.65022e-16
-1.23789e-21
-2.27855e-17
-9.41572e-22
-1.56093e-21
-3.93304e-22
-7.15996e-22
-1.10054e-22
-9.80358e-22
-2.28802e-24
-4.6987e-22
8.35109e-24
-6.93516e-23
2.94081e-24
-8.8785e-24
8.57091e-25
-9.1198e-25
1.78247e-25
-9.28298e-26
2.50031e-26
-7.99267e-27
3.12356e-27
-6.5249e-28
3.12346e-28
-5.37267e-29
2.88775e-29
-4.20483e-30
2.58078e-30
-3.38768e-31
2.19334e-31
-2.6208e-32
1.95182e-32
-1.93675e-33
1.66957e-33
-1.39272e-34
1.3887e-34
-9.81748e-36
1.10521e-35
-6.80508e-37
8.50694e-37
-4.64436e-38
6.38479e-38
-3.12313e-39
4.69122e-39
3.37996e-40
1.9529e-44
1.38447e-44
2.07429e-42
3.75707e-43
1.2193e-40
3.09889e-42
4.26557e-39
1.71444e-40
2.63509e-38
6.53791e-39
-8.2892e-36
2.16451e-37
-2.44168e-34
6.25756e-36
-3.23902e-33
1.57315e-34
-1.39159e-31
3.33548e-33
-5.84029e-30
5.63926e-32
-2.24982e-28
6.40346e-31
-7.91144e-27
2.15542e-31
-2.55437e-25
-1.94126e-28
-7.56647e-24
-5.40367e-27
-4.17545e-22
-1.355e-25
-1.35763e-20
-3.64603e-24
-4.60998e-20
-9.54577e-23
-4.85915e-20
-6.9834e-22
-3.62402e-20
-1.99623e-21
-1.91776e-21
-3.64863e-21
-2.04126e-21
-2.70068e-21
-3.29517e-22
-2.27007e-21
-2.88081e-22
-8.51603e-22
-7.52805e-22
-1.02713e-22
-8.27133e-22
-3.00918e-23
-1.28791e-22
-2.43611e-24
-9.00681e-23
-3.01879e-25
-1.08924e-23
5.26933e-25
-2.2537e-24
5.03675e-26
-3.73486e-25
2.40341e-26
-4.47823e-26
6.00627e-27
-5.01165e-27
9.84768e-28
-4.56576e-28
1.39018e-28
-3.84234e-29
1.50636e-29
-3.11907e-30
1.46107e-30
-2.40454e-31
1.31108e-31
-1.86622e-32
1.10166e-32
-1.42895e-33
9.04633e-34
-1.13499e-34
7.38904e-35
-8.60997e-36
6.41751e-36
-6.27496e-37
5.39827e-37
-4.44616e-38
4.37001e-38
-3.07886e-39
3.39845e-39
-2.08902e-40
2.55757e-40
1.87223e-41
1.6355e-44
-1.41885e-50
2.64775e-43
-3.44017e-48
2.13262e-41
-4.26863e-46
1.05029e-39
-2.07091e-44
4.22226e-38
-8.99468e-43
1.43167e-36
-4.30043e-41
4.13686e-35
-1.77718e-39
9.95959e-34
-7.24297e-38
1.8975e-32
-2.84632e-36
2.41588e-31
-1.03943e-34
9.08745e-32
-3.48133e-33
-9.6857e-29
-1.0665e-31
-2.87547e-28
-3.4371e-30
-6.1065e-27
-7.50995e-29
-1.44078e-25
-1.76783e-27
-5.63283e-24
-5.09605e-26
-1.14122e-22
-1.05516e-24
-5.70341e-22
-6.10404e-24
-1.54761e-21
-1.57938e-23
-3.53791e-21
-2.88481e-23
-3.59021e-21
-2.23505e-23
-2.56316e-21
-3.99751e-23
-3.76095e-22
-1.42738e-23
-1.0235e-22
-6.16052e-24
-2.75599e-23
-1.38965e-24
-1.00917e-23
-1.89771e-25
-4.32231e-24
-1.6275e-26
-2.0562e-25
1.0157e-26
-6.44845e-26
7.40164e-28
-1.38649e-26
5.40111e-28
-1.95134e-27
1.73428e-28
-2.41421e-28
3.35798e-29
-2.35329e-29
5.29122e-30
-2.07692e-30
6.22248e-31
-1.73449e-31
6.44318e-32
-1.35461e-32
6.12701e-33
-1.02657e-33
5.33107e-34
-7.63986e-35
4.37003e-35
-5.81878e-36
3.47857e-36
-4.51478e-37
2.77479e-37
-3.47305e-38
2.30398e-38
-2.56373e-39
1.94074e-39
-1.82366e-40
1.5876e-40
-1.26e-41
1.24339e-41
9.35874e-43
-1.42636e-50
7.51778e-53
-3.46674e-48
1.2305e-50
-8.95304e-47
1.25495e-48
-3.96759e-45
2.99855e-47
-2.44003e-43
-4.28849e-45
-1.35339e-41
-1.3598e-43
-9.89048e-40
-3.65498e-42
-4.70798e-38
-1.34329e-40
-2.44433e-36
-3.95119e-39
-1.01782e-34
-1.21979e-37
-3.54629e-33
-3.915e-36
-1.09166e-31
-1.14339e-34
-3.54499e-30
-1.91926e-33
-7.75911e-29
-4.00697e-32
-1.95287e-27
-9.3005e-31
-8.58078e-26
-1.96596e-29
-1.22969e-24
-4.41603e-28
-5.14595e-24
-9.69443e-27
-1.26328e-23
-8.51004e-26
-3.10468e-23
-3.15318e-25
-3.55721e-23
-5.92764e-25
-2.1444e-23
-6.90319e-25
-1.27773e-23
-5.8779e-25
-4.79512e-24
-2.36136e-25
-1.15759e-24
-4.12852e-26
-3.5132e-25
-6.04548e-27
-1.05607e-25
-7.6056e-28
-3.51281e-27
1.03114e-28
-1.57216e-27
2.1091e-29
-4.41966e-28
9.83539e-30
-7.37314e-29
4.1884e-30
-1.01778e-29
9.70886e-31
-1.07357e-30
1.73276e-31
-1.0037e-31
2.2406e-32
-8.71271e-33
2.4939e-33
-6.99841e-34
2.49901e-34
-5.38011e-35
2.27196e-35
-4.00743e-36
1.94156e-36
-2.95599e-37
1.58111e-37
-2.20036e-38
1.24521e-38
-1.67394e-39
9.73935e-40
-1.28554e-40
7.83294e-41
-9.55172e-42
6.49063e-42
-6.80997e-43
5.33739e-43
4.18198e-44
5.48786e-52
1.63382e-52
1.12776e-49
1.80858e-50
4.03723e-48
8.53965e-49
-4.70977e-46
2.41868e-47
-7.86137e-46
8.42742e-46
-2.91335e-44
2.41688e-44
-2.6055e-42
5.85949e-43
-3.12363e-41
1.19454e-41
-1.88333e-39
1.96274e-40
-1.24643e-37
2.29848e-39
-4.00088e-36
7.75361e-39
-1.20296e-34
-7.74609e-37
-1.78501e-33
-1.38426e-35
-4.72012e-32
-3.59092e-34
-9.25144e-31
-8.24461e-33
-1.88363e-29
-1.71238e-31
-6.98165e-28
-3.5558e-30
-1.5209e-26
-8.36686e-29
-1.17237e-25
-1.04816e-27
-3.7295e-25
-5.17537e-27
-6.41888e-25
-1.13565e-26
-7.11186e-25
-1.42505e-26
-5.30945e-25
-1.28037e-26
-1.48185e-25
-6.17459e-27
-3.4548e-26
-1.20018e-27
-1.13549e-26
-1.92009e-28
-3.34328e-27
-3.30651e-29
-2.6744e-28
6.94432e-31
-3.55726e-29
1.71581e-30
-1.16242e-29
1.32332e-31
-2.3584e-30
8.18212e-32
-3.6862e-31
2.32047e-32
-4.26491e-32
4.78783e-33
-4.27265e-33
6.92159e-34
-3.89599e-34
8.39712e-35
-3.25004e-35
8.97805e-36
-2.56455e-36
8.59053e-37
-1.93997e-37
7.64131e-38
-1.43913e-38
6.41859e-39
-1.05154e-39
5.21358e-40
-7.72949e-41
4.09671e-41
-5.7475e-42
3.18173e-42
-4.40942e-43
2.4878e-43
-3.26294e-44
2.04953e-44
1.6617e-45
8.14868e-52
-4.037e-57
7.80621e-50
-1.10187e-54
3.33941e-48
-8.21007e-53
1.55855e-46
-4.25279e-51
5.61016e-45
-1.69744e-49
1.64004e-43
-6.84891e-48
3.92599e-42
-2.16552e-46
7.43768e-41
-6.36962e-45
9.91479e-40
-1.82517e-43
3.77337e-39
-5.16109e-42
-2.53145e-37
-1.43825e-40
-1.77855e-36
-6.08345e-39
-2.11569e-35
-1.11763e-37
-5.42505e-34
-2.80195e-36
-7.62633e-33
-5.40391e-35
-1.61498e-31
-1.14842e-33
-5.091e-30
-2.42518e-32
-1.52665e-28
-5.71899e-31
-1.7682e-27
-8.05735e-30
-7.11745e-27
-4.90247e-29
-1.3493e-26
-1.27766e-28
-1.58734e-26
-1.78151e-28
-1.32623e-26
-1.69771e-28
-4.21121e-27
-1.04904e-28
-1.00474e-27
-2.58341e-29
-3.55432e-28
-5.15727e-30
-1.33196e-28
-1.19448e-30
-2.34966e-29
-1.05235e-31
-5.82357e-31
7.2161e-32
-2.45633e-31
1.40888e-33
-6.24093e-32
1.24825e-33
-1.12622e-32
4.47856e-34
-1.45274e-33
1.09544e-34
-1.58052e-34
1.8061e-35
-1.53347e-35
2.4273e-36
-1.34139e-36
2.81142e-37
-1.09814e-37
2.86375e-38
-8.53331e-39
2.67971e-39
-6.42956e-40
2.34457e-40
-4.7428e-41
1.9592e-41
-3.45426e-42
1.58587e-42
-2.50829e-43
1.24774e-43
-1.85641e-44
9.65234e-45
-1.3992e-45
7.49541e-46
6.03511e-47
-4.07874e-57
4.1739e-59
-1.68251e-55
8.49972e-57
-1.91613e-53
7.25058e-55
-1.01038e-51
2.96782e-53
-5.92296e-50
3.53006e-52
-2.68097e-48
5.90333e-51
-9.47167e-47
1.56417e-51
-3.05436e-45
-5.10292e-48
-9.20975e-44
-2.42438e-46
-6.87164e-42
-8.66179e-45
-8.08611e-41
-2.81557e-43
-3.26988e-39
-1.14354e-41
-1.14404e-37
-2.68716e-40
-2.92029e-36
-6.9026e-39
-5.36642e-35
-1.38125e-37
-1.15745e-33
-3.02977e-36
-3.41203e-32
-6.63148e-35
-1.037e-30
-1.50337e-33
-1.50102e-29
-2.39067e-32
-7.61687e-29
-2.02017e-31
-1.66163e-28
-7.45161e-31
-2.13577e-28
-1.35138e-30
-2.02116e-28
-1.50965e-30
-8.44574e-29
-1.26886e-30
-2.3915e-29
-5.478e-31
-9.72995e-30
-1.33208e-31
-4.21537e-30
-3.26315e-32
-8.67426e-31
-5.01855e-33
-6.9356e-33
5.24753e-34
-3.99751e-33
1.76838e-35
-1.33344e-33
1.41096e-35
-2.85105e-34
6.79668e-36
-4.1821e-35
2.03691e-36
-5.01852e-36
3.92355e-37
-5.25243e-37
5.95231e-38
-4.87783e-38
7.58651e-39
-4.18382e-39
8.34819e-40
-3.37653e-40
8.30344e-41
-2.613e-41
7.65212e-42
-1.96341e-42
6.6575e-43
-1.44558e-43
5.55128e-44
-1.04915e-44
4.49093e-45
-7.59564e-46
3.53584e-46
-5.56045e-47
2.733e-47
2.10515e-48
3.89563e-58
4.55978e-61
6.79114e-56
5.70524e-59
4.23814e-54
3.05383e-57
6.81961e-53
9.05794e-56
1.44539e-51
3.17811e-54
4.65957e-52
9.31202e-53
-1.9836e-48
2.15115e-51
-1.89587e-47
4.01673e-50
-2.6191e-46
5.13e-49
-8.92259e-45
7.41303e-49
-2.91869e-43
-1.71336e-46
-1.00853e-41
-6.52519e-45
-2.81534e-40
-1.80542e-43
-7.53956e-39
-4.95454e-42
-1.43796e-37
-1.04455e-40
-3.13371e-36
-2.38469e-39
-8.78784e-35
-5.50742e-38
-2.49497e-33
-1.12746e-36
-4.7358e-32
-1.82925e-35
-3.67486e-31
-2.49122e-34
-1.13743e-30
-1.99393e-33
-1.85793e-30
-7.14437e-33
-1.99442e-30
-1.23422e-32
-1.53286e-30
-1.28677e-32
-5.64406e-31
-1.00124e-32
-2.20638e-31
-3.50673e-33
-9.03186e-32
-7.39588e-34
-1.83018e-32
-1.3118e-34
-2.46624e-34
-3.83594e-36
-5.94654e-35
4.39917e-37
-2.22132e-35
1.99722e-37
-5.86417e-36
7.75276e-38
-1.00286e-36
3.01377e-38
-1.35209e-37
6.98825e-39
-1.54985e-38
1.22394e-39
-1.54814e-39
1.7473e-40
-1.40619e-40
2.10762e-41
-1.19089e-41
2.25651e-42
-9.57058e-43
2.21321e-43
-7.39074e-44
2.02707e-44
-5.561e-45
1.75863e-45
-4.0844e-46
1.47063e-46
-2.96729e-47
1.18769e-47
-2.13453e-48
9.37469e-49
7.22274e-50
2.62959e-60
-3.84957e-67
2.88205e-58
-1.20652e-64
1.30678e-56
-9.90405e-63
6.22114e-55
-5.7184e-61
2.31715e-53
-2.83414e-59
6.53112e-52
-1.61768e-57
1.44707e-50
-8.82081e-56
2.14989e-49
-4.10913e-54
3.56216e-49
-1.61803e-52
-9.90424e-47
-6.00731e-51
-4.11452e-46
-2.81564e-49
-6.09876e-45
-6.35551e-48
-2.27782e-43
-2.13594e-46
-5.97871e-42
-5.8102e-45
-1.05482e-40
-1.25501e-43
-2.54729e-39
-3.03464e-42
-6.78846e-38
-7.65882e-41
-1.4963e-36
-1.49307e-39
-3.23466e-35
-2.34439e-38
-5.56604e-34
-3.33666e-37
-4.25028e-33
-3.41717e-36
-1.28183e-32
-1.74901e-35
-1.97012e-32
-4.19918e-35
-1.98615e-32
-5.62757e-35
-1.31896e-32
-5.21581e-35
-4.39848e-33
-3.71914e-35
-1.53368e-33
-1.30963e-35
-3.7e-34
-3.01973e-36
-7.98871e-36
-2.61324e-37
-2.14468e-36
5.43713e-39
-3.08734e-37
4.63748e-39
-9.53163e-38
6.25899e-40
-1.97164e-38
3.45726e-40
-3.05452e-39
1.00269e-40
-3.90232e-40
2.08385e-41
-4.25264e-41
3.40205e-42
-4.14275e-42
4.57232e-43
-3.71783e-43
5.34697e-44
-3.134e-44
5.64024e-45
-2.51403e-45
5.49355e-46
-1.94796e-46
5.0159e-47
-1.46494e-47
4.36486e-48
-1.07686e-48
3.65404e-49
-7.813e-50
2.95234e-50
2.33436e-51
-3.87017e-67
2.05973e-69
-1.96644e-65
4.88581e-67
-2.91427e-63
4.82623e-65
-3.47482e-61
2.7013e-63
-6.93568e-60
8.57313e-62
-1.62537e-57
7.48752e-61
-6.43555e-56
-1.86714e-59
-1.76508e-54
-6.65736e-58
-1.49279e-52
-4.49318e-56
-5.27049e-51
-2.07547e-54
-2.47129e-49
-6.27852e-53
-6.53763e-48
-1.56414e-51
-2.22399e-46
-5.53475e-50
-6.09744e-45
-1.59472e-48
-1.30339e-43
-3.63424e-47
-3.49888e-42
-9.33068e-46
-9.38081e-41
-2.55382e-44
-1.91326e-39
-4.94556e-43
-3.7567e-38
-7.32718e-42
-7.19398e-37
-9.69538e-41
-7.93478e-36
-1.2439e-39
-3.56652e-35
-1.35424e-38
-7.46363e-35
-8.34397e-38
-9.59758e-35
-2.34519e-37
-9.52123e-35
-3.35879e-37
-6.13819e-35
-3.09347e-37
-2.54801e-35
-1.99612e-37
-6.40802e-36
-4.79455e-38
-2.83643e-37
-4.90373e-39
-2.86533e-38
-9.17436e-41
-2.94086e-39
2.22931e-41
-1.19047e-39
4.39838e-42
-3.11801e-40
2.94173e-42
-5.71024e-41
1.13445e-42
-8.30148e-42
2.89523e-43
-1.00308e-42
5.54105e-44
-1.06234e-43
8.45646e-45
-1.02126e-44
1.09672e-45
-9.12134e-46
1.25978e-46
-7.67409e-47
1.31898e-47
-6.17288e-48
1.2794e-48
-4.79765e-49
1.16931e-49
-3.61157e-50
1.0226e-50
-2.66145e-51
8.56569e-52
6.93806e-53
2.253e-68
4.36901e-72
4.57605e-66
6.42034e-70
3.93184e-64
4.44937e-68
1.70009e-62
1.79287e-66
1.89491e-61
4.21968e-65
-3.49468e-60
1.04214e-63
-7.80043e-59
2.97789e-62
-1.66882e-57
4.66351e-61
-4.66086e-56
-1.0588e-60
-2.11163e-54
-4.82162e-58
-5.5444e-53
-1.33133e-56
-1.76766e-51
-4.25647e-55
-6.34412e-50
-1.59874e-53
-1.75364e-48
-4.77636e-52
-3.75642e-47
-1.16028e-50
-1.13865e-45
-3.16804e-49
-3.21703e-44
-9.34205e-48
-6.29236e-43
-1.8487e-46
-9.98272e-42
-2.79834e-45
-1.58816e-40
-3.61536e-44
-2.82248e-39
-4.31492e-43
-3.74267e-38
-5.05044e-42
-2.1429e-37
-5.14962e-41
-5.14265e-37
-3.14115e-40
-6.79455e-37
-8.96019e-40
-6.59825e-37
-1.28121e-39
-3.25866e-37
-1.14836e-39
-6.89662e-38
-6.47553e-40
-7.74527e-39
-1.09987e-40
-5.96439e-40
-5.65885e-42
-3.78463e-41
1.32543e-43
-1.18238e-41
4.30384e-44
-3.85673e-42
1.73813e-44
-8.6956e-43
9.84372e-45
-1.47563e-43
3.22502e-45
-2.01478e-44
7.45875e-46
-2.35485e-45
1.32168e-46
-2.45483e-46
1.93382e-47
-2.34768e-47
2.45333e-48
-2.09107e-48
2.79322e-49
-1.76269e-49
2.90682e-50
-1.42612e-50
2.81903e-51
-1.10992e-51
2.59279e-52
-8.3618e-53
2.26953e-53
1.89881e-54
2.94874e-71
-5.30902e-79
4.20972e-69
-1.96606e-76
2.60818e-67
-2.26593e-74
8.37473e-66
-1.81807e-72
2.64276e-64
-1.50026e-70
9.25754e-63
-1.12466e-68
1.72752e-61
-7.11876e-67
-5.66943e-61
-3.91427e-65
-1.29949e-58
-3.69645e-63
-4.37821e-58
-9.64355e-62
-1.42164e-56
-3.57293e-60
-6.17647e-55
-1.4717e-58
-2.03558e-53
-5.07443e-57
-5.56309e-52
-1.53477e-55
-1.18442e-50
-3.91944e-54
-3.99817e-49
-1.1349e-52
-1.17853e-47
-3.57936e-51
-2.40159e-46
-7.6508e-50
-3.85037e-45
-1.25389e-48
-5.39507e-44
-1.74674e-47
-7.69899e-43
-2.20132e-46
-1.23269e-41
-2.73699e-45
-1.57317e-40
-3.45999e-44
-9.26643e-40
-3.33877e-43
-2.28085e-39
-1.56538e-42
-2.98257e-39
-3.25069e-42
-2.78862e-39
-3.64801e-42
-1.0458e-39
-2.86114e-42
-1.35198e-40
-1.08852e-42
-1.12858e-41
-1.37234e-43
-6.70198e-43
-4.5037e-45
-8.59608e-44
4.48743e-46
-3.60222e-44
1.12926e-46
-1.05695e-44
6.23894e-47
-2.16303e-45
2.81614e-47
-3.41419e-46
8.17769e-48
-4.48036e-47
1.72815e-48
-5.13554e-48
2.91022e-49
-5.319e-49
4.14343e-50
-5.06475e-50
5.19506e-51
-4.51534e-51
5.86216e-52
-3.83211e-52
6.08912e-53
-3.10752e-53
5.94014e-54
-2.41914e-54
5.4729e-55
4.78523e-56
-5.31503e-79
6.00306e-82
-4.10048e-77
1.79728e-79
-1.36722e-74
2.39187e-77
-7.13996e-73
1.69592e-75
-1.50639e-70
7.54157e-74
-1.13992e-68
1.95793e-72
-7.23243e-67
5.43714e-72
-3.98604e-65
-3.2425e-69
-3.66828e-63
-1.68362e-67
-1.00106e-61
-4.74003e-66
-3.66958e-60
-1.83247e-64
-1.5317e-58
-8.123e-63
-5.27765e-57
-2.99418e-61
-1.58943e-55
-9.66806e-60
-4.05171e-54
-2.64713e-58
-1.4218e-52
-8.1589e-57
-4.49743e-51
-2.75058e-55
-9.91606e-50
-6.36551e-54
-1.72987e-48
-1.12096e-52
-2.55985e-47
-1.67785e-51
-3.58566e-46
-2.21713e-50
-5.81109e-45
-2.67144e-49
-1.0566e-43
-3.13663e-48
-1.12858e-42
-3.89413e-47
-4.56739e-42
-4.49916e-46
-8.16463e-42
-2.91404e-45
-8.75572e-42
-7.77829e-45
-6.70307e-42
-9.67879e-45
-1.80925e-42
-7.51696e-45
-2.29283e-43
-2.47233e-45
-1.62435e-44
-1.9584e-46
-1.55244e-45
-5.67332e-50
-2.76391e-46
1.2086e-48
-9.92457e-47
2.73153e-49
-2.57147e-47
1.86946e-49
-4.82756e-48
7.17018e-50
-7.25924e-49
1.86788e-50
-9.29727e-50
3.70694e-51
-1.05597e-50
6.03414e-52
-1.08621e-51
8.44883e-53
-1.03355e-52
1.04571e-53
-9.27914e-54
1.1747e-54
-7.89885e-55
1.22691e-55
-6.40603e-56
1.19881e-56
1.10281e-57
8.17379e-81
4.58986e-85
2.24086e-78
1.10788e-82
2.44479e-76
1.01649e-80
1.48475e-74
5.60061e-79
4.93063e-73
2.05208e-77
1.68027e-72
4.35187e-76
-6.19822e-70
1.56147e-75
-3.83557e-69
-3.70037e-73
-1.71292e-67
-2.00522e-71
-4.32398e-66
-5.39567e-70
-2.20458e-64
-2.83522e-68
-9.39221e-63
-1.29929e-66
-3.24621e-61
-4.96665e-65
-9.86011e-60
-1.67623e-63
-2.7028e-58
-5.06134e-62
-1.0082e-56
-1.66492e-60
-3.44265e-55
-6.03708e-59
-8.16828e-54
-1.52935e-57
-1.5454e-52
-2.89143e-56
-2.5064e-51
-4.62492e-55
-3.55596e-50
-6.51582e-54
-4.63522e-49
-8.28719e-53
-6.6073e-48
-9.89189e-52
-1.2195e-46
-1.18122e-50
-1.85653e-45
-1.42532e-49
-1.1097e-44
-1.37009e-48
-2.43848e-44
-7.01777e-48
-2.71131e-44
-1.63226e-47
-1.96939e-44
-1.92131e-47
-3.90892e-45
-1.42915e-47
-2.8899e-46
-4.03475e-48
-1.51164e-47
-1.65108e-49
-1.47418e-48
4.66997e-51
-6.99147e-49
1.69843e-51
-2.42346e-49
8.99284e-52
-5.61805e-50
4.90841e-52
-9.92404e-51
1.64441e-52
-1.44745e-51
3.95806e-53
-1.82832e-52
7.52947e-54
-2.05491e-53
1.19598e-54
-2.10711e-54
1.64427e-55
-2.01959e-55
2.01904e-56
-1.81814e-56
2.28042e-57
-1.54703e-57
2.38123e-58
2.32039e-59
4.98882e-84
-2.73639e-92
9.42942e-82
-1.02329e-89
7.99591e-80
-1.33208e-87
4.00241e-78
-1.96262e-85
1.08609e-76
-2.19039e-83
4.78353e-76
-1.83635e-81
-7.05685e-74
-1.40088e-79
-2.89606e-73
-1.17445e-77
-1.65196e-71
-6.56249e-76
-9.25462e-70
-3.6439e-74
-3.97067e-68
-1.75182e-72
-1.49509e-66
-7.48703e-71
-4.91817e-65
-2.84449e-69
-1.54764e-63
-1.00903e-67
-5.18868e-62
-3.6162e-66
-2.017e-60
-1.26631e-64
-7.54085e-59
-4.84099e-63
-1.93729e-57
-1.42861e-61
-3.91995e-56
-3.00848e-60
-6.79636e-55
-5.33135e-59
-1.03644e-53
-8.35454e-58
-1.4223e-52
-1.18574e-56
-1.90681e-51
-1.54989e-55
-2.90831e-50
-1.93659e-54
-4.93405e-49
-2.51095e-53
-5.61544e-48
-3.49643e-52
-2.70893e-47
-3.7783e-51
-5.57517e-47
-1.86253e-50
-6.09588e-47
-3.71783e-50
-4.22819e-47
-3.70776e-50
-5.66456e-48
-2.40473e-50
-3.21099e-49
-4.55773e-51
-3.26648e-50
-6.69599e-53
-4.19554e-51
2.34661e-53
-1.74756e-51
4.61148e-54
-5.28483e-52
2.53113e-54
-1.13204e-52
1.15771e-54
-1.92402e-53
3.50685e-55
-2.74662e-54
7.99213e-56
-3.41596e-55
1.46622e-56
-3.81543e-56
2.27104e-57
-3.94241e-57
3.08817e-58
-3.78216e-58
3.80826e-59
-3.39987e-59
4.28377e-60
4.45377e-61
-8.96848e-92
1.59415e-95
-1.64271e-90
4.84401e-93
-1.33386e-87
4.73006e-91
-2.07824e-85
2.92469e-89
-1.0701e-83
1.97324e-87
-1.84559e-81
7.63721e-86
-1.41934e-79
5.42357e-85
-1.08271e-77
-1.51162e-82
-6.68406e-76
-1.38411e-80
-3.70917e-74
-8.25696e-79
-1.78273e-72
-4.249e-77
-7.58788e-71
-1.93759e-75
-2.88342e-69
-7.89551e-74
-1.02763e-67
-3.02054e-72
-3.7201e-66
-1.17448e-70
-1.43949e-64
-4.39689e-69
-6.11006e-63
-1.74724e-67
-1.7819e-61
-6.17499e-66
-3.98763e-60
-1.4457e-64
-7.64388e-59
-2.80719e-63
-1.30614e-57
-4.79784e-62
-2.0129e-56
-7.42916e-61
-2.82235e-55
-1.05958e-59
-3.94262e-54
-1.4074e-58
-6.85685e-53
-1.78024e-57
-1.46533e-51
-2.29814e-56
-1.81194e-50
-3.32652e-55
-7.68825e-50
-4.54836e-54
-1.29477e-49
-3.05459e-53
-1.27269e-49
-7.18343e-53
-6.88356e-50
-7.19498e-53
-6.13253e-51
-3.83817e-53
-4.85364e-52
-3.57992e-54
-5.72557e-53
5.59155e-56
-1.07029e-53
4.37161e-56
-3.91539e-54
9.9087e-57
-1.06621e-54
6.39083e-57
-2.16562e-55
2.55222e-57
-3.5595e-56
7.15562e-58
-4.96891e-57
1.5482e-58
-6.1334e-58
2.74573e-59
-6.88975e-59
4.20347e-60
-7.09901e-60
5.70647e-61
-6.78956e-61
6.97346e-62
7.80305e-63
2.09437e-94
5.77543e-99
4.234e-92
7.77033e-97
4.04175e-90
6.48906e-95
3.73291e-88
6.7762e-93
1.85112e-86
4.51281e-91
1.61489e-85
2.11734e-89
-5.20452e-83
6.59985e-88
-1.14875e-81
7.53638e-87
-1.49124e-80
-6.30577e-85
-8.19627e-79
-5.02657e-83
-4.05437e-77
-2.67454e-81
-1.83889e-75
-1.30356e-79
-7.63308e-74
-5.82088e-78
-3.06313e-72
-2.5153e-76
-1.20603e-70
-1.06722e-74
-4.62655e-69
-4.29399e-73
-2.26107e-67
-1.7146e-71
-7.5875e-66
-7.66725e-70
-1.87261e-64
-2.03921e-68
-3.91227e-63
-4.37804e-67
-7.26835e-62
-8.19623e-66
-1.23228e-60
-1.38367e-64
-1.92513e-59
-2.14434e-63
-2.76238e-58
-3.08219e-62
-3.79402e-57
-4.16645e-61
-6.13963e-56
-5.50685e-60
-1.46358e-54
-7.55892e-59
-2.74275e-53
-1.05396e-57
-1.60396e-52
-1.117e-56
-2.89818e-52
-5.85175e-56
-2.76513e-52
-1.25244e-55
-8.60402e-53
-1.20954e-55
-7.09269e-54
-5.68473e-56
-5.64085e-55
-2.45117e-57
-5.53318e-56
2.22102e-58
-2.31371e-56
5.37301e-59
-8.15308e-57
2.74873e-59
-2.04296e-57
1.49814e-59
-3.95315e-58
5.35188e-60
-6.29868e-59
1.40014e-60
-8.72528e-60
2.90445e-61
-1.07596e-60
5.07354e-62
-1.20057e-61
7.66417e-63
-1.23412e-62
1.02684e-63
1.25312e-64
3.27078e-98
-9.49533e-107
5.67421e-96
-5.33456e-104
9.16718e-94
-1.23024e-101
8.36803e-92
-1.51058e-99
5.03377e-90
-2.01888e-97
1.92802e-88
-2.25821e-95
2.62692e-87
-2.13243e-93
-2.29179e-85
-1.7507e-91
-3.88481e-84
-2.22474e-89
-4.4159e-83
-8.57812e-88
-2.3089e-81
-4.98856e-86
-1.19549e-79
-2.78278e-84
-5.74322e-78
-1.44487e-82
-2.58241e-76
-7.03161e-81
-1.09499e-74
-3.22752e-79
-4.38836e-73
-1.40558e-77
-2.32123e-71
-5.95716e-76
-9.31306e-70
-2.86075e-74
-2.57798e-68
-9.24325e-73
-5.92324e-67
-2.26672e-71
-1.20066e-65
-4.78081e-70
-2.21159e-64
-9.05887e-69
-3.75094e-63
-1.57799e-67
-5.8688e-62
-2.56309e-66
-8.63832e-61
-3.91609e-65
-1.31285e-59
-5.68736e-64
-2.38809e-58
-8.16585e-63
-4.84669e-57
-1.26507e-61