/*--------------------------------*- C++ -*----------------------------------*\
| =========                 |                                                 |
| \\      /  F ield         | OpenFOAM: The Open Source CFD Toolbox           |
|  \\    /   O peration     | Version:  5.0                                   |
|   \\  /    A nd           | Web:      www.OpenFOAM.org                      |
|    \\/     M anipulation  |                                                 |
\*---------------------------------------------------------------------------*/
FoamFile
{
    version     2.0;
    format      ascii;
    class       volScalarField;
    location    "0.15";
    object      epsilon;
}
// * * * * * * * * * * * * * * * * * * * * * * * * * * * * * * * * * * * * * //

dimensions      [0 2 -3 0 0 0 0];

internalField   nonuniform List<scalar> 
1915
(
0.293977
0.359685
0.44682
0.562572
0.717641
0.844177
0.822749
0.716948
0.58963
0.470305
0.370675
0.293157
0.235607
0.194141
0.164744
0.144023
0.129382
0.118952
0.111422
0.105888
0.101727
0.0985121
0.095949
0.0938348
0.0920277
0.783782
0.362491
0.249774
0.203682
0.17423
0.153788
0.139318
0.128891
0.121817
0.117769
0.116434
0.117616
0.121295
0.127628
0.136942
0.149766
0.166888
0.189432
0.218948
0.257542
0.308121
0.374422
0.460932
0.573296
0.71701
0.784697
0.727699
0.630682
0.52309
0.422653
0.338194
0.271905
0.222208
0.185985
0.15996
0.141334
0.127953
0.118248
0.111108
0.105758
0.101658
0.0984364
0.0958323
0.0936641
0.0918041
0.789443
0.370929
0.252427
0.20461
0.177142
0.157388
0.142704
0.132073
0.124917
0.121034
0.120145
0.121999
0.126548
0.13395
0.14452
0.158766
0.177451
0.201663
0.232872
0.273041
0.324894
0.392001
0.478516
0.586268
0.681387
0.684394
0.626488
0.545301
0.458152
0.37661
0.307229
0.251969
0.209858
0.178616
0.155742
0.139044
0.126799
0.117729
0.110915
0.105704
0.101636
0.0983889
0.0957334
0.0935068
0.0915925
0.801039
0.361102
0.247297
0.19806
0.172277
0.155526
0.142814
0.133051
0.126501
0.12323
0.123033
0.125739
0.131365
0.140072
0.152145
0.168044
0.188471
0.214426
0.247228
0.28861
0.340525
0.404856
0.482211
0.559612
0.599349
0.588099
0.538383
0.471763
0.401516
0.335977
0.279746
0.234281
0.198965
0.172194
0.152139
0.137151
0.125897
0.117366
0.110812
0.105697
0.101635
0.0983475
0.0956336
0.0933469
0.0913801
0.820277
0.341868
0.236144
0.189847
0.165436
0.150488
0.140074
0.132634
0.127919
0.125954
0.12675
0.130352
0.136893
0.146573
0.159669
0.176585
0.197909
0.224443
0.257174
0.297162
0.345154
0.40043
0.458243
0.50583
0.524923
0.50832
0.465626
0.411192
0.354667
0.302081
0.25663
0.219321
0.189743
0.166785
0.149145
0.135617
0.125199
0.117108
0.110754
0.1057
0.101624
0.0982869
0.0955128
0.0931685
0.0911539
0.845888
0.325028
0.224867
0.182206
0.159549
0.146158
0.137552
0.131965
0.128867
0.128208
0.130047
0.13452
0.141809
0.15213
0.165745
0.182992
0.204306
0.230207
0.261204
0.29758
0.33887
0.382827
0.423879
0.452539
0.459093
0.441222
0.405668
0.361958
0.316814
0.274658
0.237827
0.207076
0.182159
0.16233
0.146685
0.134363
0.124627
0.116888
0.110684
0.105666
0.101566
0.0981791
0.0953494
0.0929549
0.0909013
0.875598
0.317694
0.217932
0.176747
0.155056
0.142662
0.135328
0.131166
0.129434
0.129935
0.132707
0.137893
0.145684
0.156291
0.169938
0.18687
0.20734
0.231559
0.25957
0.290999
0.324627
0.357751
0.385654
0.40215
0.402239
0.385651
0.356958
0.322388
0.286574
0.252765
0.222754
0.197185
0.175972
0.158647
0.144611
0.133265
0.124082
0.116623
0.110537
0.105544
0.101422
0.0979946
0.0951218
0.0926903
0.0906102
0.897997
0.315951
0.21486
0.173932
0.152392
0.14027
0.133516
0.130183
0.129368
0.130727
0.134207
0.139897
0.147951
0.158538
0.171821
0.187933
0.206948
0.228808
0.253203
0.279368
0.305811
0.330047
0.348595
0.357697
0.354904
0.340622
0.317914
0.290802
0.262455
0.23525
0.210599
0.1891
0.170807
0.155473
0.142727
0.132172
0.123444
0.116223
0.110243
0.105282
0.101154
0.0977059
0.0948099
0.0923603
0.0902703
0.90728
0.315677
0.214001
0.173144
0.151428
0.139118
0.132377
0.129295
0.128885
0.130688
0.134542
0.140451
0.148498
0.158783
0.171389
0.186338
0.20355
0.222778
0.243502
0.26481
0.285265
0.302859
0.3152
0.320083
0.316356
0.304568
0.286754
0.265522
0.243015
0.22097
0.200515
0.182216
0.166238
0.152503
0.140811
0.130922
0.122593
0.115599
0.109738
0.104833
0.100729
0.0972891
0.0943974
0.0919534
0.0898739
0.905558
0.315136
0.214103
0.173583
0.151731
0.139072
0.132015
0.128759
0.128312
0.130144
0.134008
0.139819
0.147577
0.157305
0.168999
0.182584
0.197872
0.214498
0.231864
0.24907
0.264883
0.277787
0.286191
0.288811
0.285123
0.275622
0.261658
0.244948
0.226931
0.208885
0.191717
0.175961
0.161855
0.149443
0.138656
0.129366
0.121423
0.114674
0.108967
0.10416
0.100121
0.0967278
0.0938732
0.0914626
0.0894161
0.895799
0.31367
0.214299
0.17449
0.15271
0.139753
0.132272
0.12861
0.127821
0.129358
0.132916
0.138341
0.14556
0.154518
0.165138
0.17727
0.190656
0.204884
0.219357
0.233269
0.245621
0.255304
0.261265
0.262744
0.259503
0.251932
0.24093
0.227644
0.213053
0.198107
0.183542
0.16985
0.157312
0.146053
0.136093
0.127388
0.119857
0.113398
0.107899
0.103244
0.0993182
0.0960146
0.0932334
0.0908859
0.0888963
0.880474
0.31114
0.214103
0.175297
0.153815
0.140706
0.132835
0.128691
0.127402
0.128435
0.131462
0.136283
0.142767
0.150799
0.160246
0.170908
0.182493
0.194585
0.206631
0.217946
0.227743
0.235213
0.239648
0.240575
0.237886
0.231863
0.223115
0.21242
0.20046
0.18795
0.175493
0.163534
0.15237
0.142172
0.133021
0.124927
0.117859
0.111753
0.106525
0.10208
0.098322
0.0951527
0.0924818
0.0902271
0.0883176
0.861479
0.307671
0.213315
0.175664
0.154645
0.141535
0.13337
0.128765
0.126927
0.127356
0.129721
0.133797
0.139417
0.146426
0.154652
0.163871
0.17378
0.183988
0.194004
0.203258
0.211134
0.217038
0.220472
0.22113
0.218951
0.214137
0.207104
0.198395
0.188495
0.177953
0.167261
0.156818
0.146913
0.137742
0.129415
0.121982
0.11544
0.109755
0.104863
0.100689
0.0971486
0.0941561
0.0916299
0.0894954
0.0876874
0.840243
0.303484
0.211921
0.17545
0.154971
0.141972
0.133615
0.128614
0.126245
0.126044
0.127692
0.130955
0.135645
0.141587
0.148588
0.156415
0.164777
0.173315
0.181608
0.189185
0.195564
0.200295
0.20302
0.203522
0.201762
0.19788
0.192168
0.185017
0.176783
0.167886
0.15873
0.149662
0.140953
0.132801
0.12533
0.118609
0.112657
0.107454
0.102958
0.0991065
0.0958279
0.0930485
0.0906964
0.0887052
0.0870163
0.81779
0.298817
0.210014
0.174658
0.154721
0.141891
0.13342
0.128094
0.125242
0.124433
0.125363
0.127799
0.131547
0.136422
0.142227
0.148733
0.155671
0.162721
0.169524
0.175696
0.180854
0.184654
0.186827
0.18721
0.185774
0.182615
0.177941
0.172035
0.165208
0.157735
0.149955
0.142166
0.134611
0.127475
0.120886
0.114918
0.109601
0.10493
0.100874
0.0973833
0.0943999
0.091861
0.0897048
0.0878742
0.0863178
0.794818
0.293876
0.207729
0.173379
0.153936
0.141284
0.132746
0.127154
0.123873
0.1225
0.122745
0.124382
0.127217
0.131065
0.135733
0.141007
0.146641
0.15236
0.15786
0.162828
0.166958
0.169983
0.171695
0.17197
0.17078
0.168195
0.164365
0.159506
0.153869
0.147651
0.141122
0.134528
0.128082
0.121948
0.116246
0.111049
0.106392
0.102278
0.0986858
0.0955792
0.0929105
0.0906285
0.0886819
0.0870223
0.0856065
0.771826
0.288824
0.205202
0.171736
0.152714
0.140221
0.131634
0.125818
0.122161
0.120278
0.119892
0.120785
0.122766
0.125656
0.129274
0.133422
0.137882
0.142417
0.146776
0.150703
0.153955
0.15632
0.157637
0.15781
0.156813
0.154695
0.15157
0.1476
0.14298
0.137879
0.132484
0.126999
0.1216
0.116428
0.11159
0.107152
0.103151
0.0995959
0.096473
0.0937555
0.0914072
0.0893872
0.0876545
0.0861697
0.0848972
0.74917
0.283787
0.202555
0.169859
0.15118
0.13881
0.130177
0.124166
0.12018
0.117846
0.116895
0.117116
0.118325
0.120351
0.123025
0.126168
0.129591
0.133092
0.136462
0.139495
0.141997
0.143802
0.144783
0.144864
0.144024
0.142296
0.139765
0.136553
0.132807
0.128688
0.124308
0.119828
0.115391
0.111115
0.107088
0.103371
0.099997
0.0969784
0.0943088
0.0919695
0.0899336
0.0881704
0.0866478
0.0853351
0.0842039
0.727089
0.27886
0.199888
0.167863
0.149457
0.137172
0.128487
0.122303
0.118032
0.115305
0.113861
0.113494
0.114026
0.115296
0.117147
0.119419
0.121948
0.124564
0.127095
0.129374
0.131247
0.132585
0.133286
0.133292
0.132584
0.131186
0.129159
0.126594
0.123604
0.120313
0.116819
0.113226
0.109646
0.106174
0.102882
0.0998221
0.0970247
0.0945026
0.0922546
0.0902688
0.0885269
0.0870063
0.0856833
0.0845347
0.0835385
0.70578
0.274104
0.197272
0.165839
0.147649
0.135418
0.126677
0.120339
0.115822
0.112761
0.110897
0.110028
0.109985
0.110613
0.111769
0.113308
0.115089
0.116967
0.118803
0.120462
0.121821
0.122779
0.123256
0.123206
0.122613
0.121492
0.119888
0.117867
0.115512
0.112916
0.110171
0.107335
0.104494
0.10172
0.0990711
0.0965902
0.0943036
0.0922247
0.0903553
0.0886894
0.0872149
0.0859165
0.0847775
0.0837809
0.0829104
0.685436
0.269557
0.194753
0.163852
0.145839
0.133641
0.124841
0.118368
0.113643
0.110303
0.10809
0.106807
0.106288
0.106387
0.106971
0.107912
0.109084
0.110367
0.111644
0.112807
0.113758
0.114416
0.114721
0.114634
0.11414
0.113251
0.111995
0.110423
0.108593
0.106573
0.104432
0.102226
0.100001
0.097814
0.0957097
0.0937222
0.0918742
0.0901783
0.0886389
0.0872536
0.0860157
0.0849155
0.0839416
0.0830824
0.0823262
0.666187
0.265245
0.192363
0.161951
0.144086
0.131909
0.123055
0.116467
0.111569
0.107999
0.105503
0.103885
0.102983
0.102659
0.102787
0.103252
0.103944
0.104759
0.1056
0.106378
0.107014
0.107445
0.107622
0.107513
0.107106
0.106406
0.105434
0.104223
0.102815
0.101259
0.0996055
0.0979016
0.0961761
0.0944678
0.0928109
0.0912321
0.08975
0.0883765
0.0871169
0.0859719
0.0849382
0.0840105
0.0831817
0.0824442
0.0817899
0.648023
0.261184
0.190126
0.160171
0.142439
0.130276
0.121373
0.114686
0.109646
0.105892
0.10317
0.101287
0.100085
0.0994305
0.0992055
0.0993035
0.0996264
0.100084
0.100593
0.101081
0.101482
0.101746
0.101831
0.101714
0.101381
0.100834
0.100086
0.0991596
0.0980846
0.0968948
0.0956253
0.0943104
0.092981
0.0916543
0.0903562
0.0891076
0.0879238
0.0868154
0.0857881
0.0848443
0.0839835
0.0832032
0.0824995
0.0818678
0.0813029
0.630847
0.257379
0.188062
0.158538
0.140927
0.128774
0.119826
0.113057
0.107901
0.104001
0.101103
0.0990143
0.0975816
0.096675
0.0961822
0.0960037
0.0960503
0.0962418
0.0965064
0.096781
0.0970121
0.0971561
0.0971802
0.0970623
0.0967911
0.0963654
0.0957925
0.095087
0.0942691
0.093362
0.0923904
0.0913792
0.0903513
0.0893218
0.0883057
0.0873189
0.0863738
0.0854794
0.0846417
0.0838638
0.0831469
0.0824906
0.0818932
0.0813523
0.0808648
0.614607
0.253828
0.186175
0.157061
0.139561
0.127417
0.11843
0.111591
0.106343
0.102327
0.0992929
0.0970486
0.0954422
0.0943472
0.0936555
0.0932733
0.0931178
0.0931159
0.0932038
0.0933262
0.093437
0.0934987
0.0934832
0.0933709
0.0931509
0.0928199
0.0923815
0.0918445
0.0912221
0.0905301
0.0897857
0.0890062
0.0882082
0.0874066
0.0866088
0.0858266
0.0850698
0.084346
0.083661
0.0830182
0.0824198
0.0818667
0.0813586
0.0808949
0.0804736
0.599359
0.250532
0.184458
0.155734
0.138339
0.126203
0.117183
0.110288
0.104966
0.100862
0.0977235
0.0953623
0.0936271
0.0923936
0.091557
0.0910274
0.0907266
0.090587
0.09055
0.0905662
0.0905942
0.090601
0.0905616
0.0904582
0.0902801
0.0900226
0.0896865
0.0892767
0.0888016
0.0882717
0.0876988
0.0870951
0.0864725
0.0858419
0.085212
0.0845883
0.0839788
0.08339
0.082827
0.0822934
0.0817918
0.0813238
0.0808903
0.0804914
0.0801264
0.585212
0.247497
0.182905
0.154546
0.137249
0.125124
0.116078
0.109139
0.103759
0.099587
0.0963716
0.093924
0.0920945
0.0907608
0.0898201
0.0891854
0.088782
0.0885457
0.0884221
0.0883654
0.0883378
0.0883093
0.0882568
0.0881638
0.0880198
0.087819
0.0875604
0.0872461
0.0868813
0.0864728
0.0860287
0.0855575
0.0850679
0.0845679
0.0840651
0.0835635
0.0830688
0.0825862
0.0821203
0.0816745
0.0812516
0.0808536
0.080482
0.0801374
0.0798199
0.572241
0.244727
0.181506
0.153486
0.136283
0.12417
0.115105
0.108131
0.102709
0.098486
0.0952136
0.0927031
0.0908058
0.0894002
0.0883857
0.087677
0.0872018
0.0868986
0.0867157
0.0866099
0.0865457
0.0864951
0.0864365
0.0863542
0.0862376
0.0860805
0.0858805
0.0856379
0.0853557
0.085038
0.0846905
0.0843192
0.0839302
0.0835297
0.0831233
0.0827161
0.0823107
0.0819117
0.0815229
0.0811476
0.0807886
0.080448
0.0801275
0.0798282
0.0795505
0.560475
0.242221
0.180253
0.152546
0.13543
0.123332
0.114254
0.107256
0.101802
0.097542
0.0942284
0.0916729
0.0897272
0.0882709
0.0872045
0.0864441
0.0859193
0.0855702
0.0853471
0.0852084
0.0851205
0.0850566
0.0849961
0.0849239
0.0848293
0.0847058
0.0845501
0.0843613
0.0841408
0.0838912
0.0836163
0.0833202
0.0830077
0.0826831
0.0823511
0.0820159
0.0816801
0.0813468
0.0810193
0.0807005
0.0803932
0.0800994
0.079821
0.0795594
0.079315
0.549929
0.239978
0.179141
0.151717
0.134682
0.122602
0.113517
0.106502
0.101025
0.0967401
0.0933979
0.0908111
0.0888319
0.0873405
0.0862382
0.0854423
0.0848833
0.084503
0.0842527
0.0840922
0.083989
0.0839173
0.0838571
0.0837936
0.0837164
0.0836186
0.0834962
0.0833478
0.0831735
0.0829748
0.0827544
0.0825151
0.0822604
0.0819939
0.081719
0.0814391
0.0811573
0.0808755
0.0805966
0.0803231
0.0800575
0.0798017
0.0795578
0.0793271
0.0791103
0.540638
0.238006
0.178166
0.150995
0.134036
0.121973
0.112886
0.105861
0.100371
0.0960688
0.0927083
0.0901013
0.0881002
0.0865857
0.0854594
0.0846396
0.0840576
0.0836561
0.0833874
0.0832123
0.0830991
0.0830227
0.0829635
0.0829072
0.0828433
0.0827647
0.0826672
0.0825487
0.0824087
0.0822479
0.082068
0.0818712
0.0816601
0.0814375
0.0812061
0.0809689
0.0807283
0.0804866
0.0802457
0.0800079
0.0797754
0.0795501
0.079334
0.0791284
0.0789341
0.532656
0.236328
0.177342
0.150386
0.133489
0.121443
0.112357
0.105327
0.0998296
0.0955202
0.0921508
0.0895334
0.0875204
0.0859925
0.0848518
0.0840168
0.0834199
0.0830043
0.0827232
0.0825381
0.082418
0.0823383
0.08228
0.0822288
0.0821744
0.0821096
0.08203
0.0819331
0.0818179
0.0816845
0.0815342
0.0813685
0.0811894
0.0809992
0.0808001
0.0805946
0.0803849
0.0801732
0.0799611
0.0797505
0.0795435
0.0793419
0.0791473
0.0789613
0.0787847
0.526099
0.235011
0.176705
0.149906
0.133049
0.121011
0.111924
0.104894
0.0993985
0.0950907
0.0917223
0.0891045
0.0870892
0.085557
0.08441
0.0835673
0.0829617
0.0825373
0.0822479
0.0820558
0.0819304
0.0818478
0.0817893
0.0817409
0.0816924
0.0816367
0.081569
0.0814866
0.0813882
0.0812737
0.0811437
0.0809994
0.0808423
0.0806744
0.0804976
0.080314
0.0801256
0.0799345
0.0797423
0.0795508
0.0793616
0.0791765
0.0789973
0.0788252
0.0786613
0.521307
0.23421
0.176338
0.149598
0.132733
0.120681
0.111589
0.104562
0.0990761
0.0947811
0.0914257
0.0888193
0.0868126
0.0852856
0.0841407
0.0832973
0.0826887
0.0822599
0.0819653
0.0817679
0.0816381
0.0815522
0.081492
0.081444
0.0813978
0.0813466
0.0812854
0.0812113
0.0811229
0.0810195
0.0809015
0.0807698
0.0806256
0.0804704
0.0803061
0.0801345
0.0799576
0.0797772
0.0795953
0.0794135
0.0792336
0.0790572
0.0788859
0.0787214
0.0785646
0.519186
0.234275
0.17642
0.149548
0.132577
0.120464
0.111351
0.10433
0.098864
0.0945968
0.0912704
0.0886908
0.0867064
0.0851966
0.0840636
0.0832272
0.0826216
0.0821926
0.0818956
0.0816946
0.0815605
0.0814706
0.0814071
0.0813567
0.0813096
0.0812586
0.0811989
0.0811275
0.0810425
0.0809432
0.0808296
0.080702
0.0805615
0.0804094
0.0802471
0.0800765
0.0798995
0.0797182
0.0795348
0.0793512
0.0791694
0.0789913
0.0788187
0.0786533
0.0784963
0.521708
0.235936
0.1773
0.149916
0.132645
0.12038
0.111211
0.104194
0.0987641
0.0945463
0.091272
0.0887407
0.0867976
0.0853207
0.0842121
0.0833926
0.0827973
0.0823732
0.0820771
0.0818741
0.0817363
0.0816417
0.0815732
0.0815181
0.0814666
0.081412
0.0813493
0.0812754
0.0811881
0.0810864
0.0809697
0.0808381
0.0806921
0.0805324
0.0803605
0.0801779
0.0799867
0.0797894
0.0795885
0.079387
0.0791877
0.078993
0.0788055
0.0786274
0.0784602
0.532589
0.240605
0.179611
0.150968
0.133026
0.120441
0.11116
0.104144
0.0987738
0.0946386
0.0914508
0.0889991
0.087124
0.0857018
0.084635
0.0838455
0.0832701
0.0828578
0.082567
0.0823647
0.0822242
0.0821247
0.0820501
0.0819883
0.0819299
0.0818685
0.0817991
0.0817183
0.0816239
0.0815141
0.081388
0.0812447
0.0810841
0.0809062
0.0807116
0.0805016
0.0802782
0.0800442
0.0798035
0.0795604
0.0793197
0.0790858
0.0788628
0.0786541
0.078462
0.558849
0.250807
0.184344
0.15304
0.133786
0.120619
0.111148
0.104143
0.0988763
0.0948783
0.0918295
0.0895036
0.0877346
0.0863977
0.0853962
0.0846545
0.0841122
0.083721
0.0834421
0.0832445
0.0831037
0.0830003
0.0829196
0.0828502
0.0827835
0.0827133
0.0826348
0.0825446
0.0824398
0.0823184
0.0821783
0.0820178
0.0818353
0.0816295
0.0813993
0.0811448
0.0808672
0.0805695
0.0802566
0.079936
0.0796162
0.0793065
0.0790151
0.0787481
0.0785091
0.615272
0.270728
0.192686
0.156306
0.134796
0.120735
0.111031
0.104098
0.0990276
0.0952597
0.0924316
0.0902988
0.0886894
0.087479
0.0865743
0.085904
0.0854122
0.0850548
0.0847967
0.0846102
0.0844734
0.084369
0.0842839
0.084208
0.0841336
0.0840548
0.0839673
0.0838676
0.0837524
0.0836191
0.0834647
0.0832859
0.0830791
0.0828404
0.0825658
0.082252
0.0818969
0.0815016
0.0810713
0.0806173
0.0801567
0.0797105
0.0792968
0.0789282
0.0786097
0.733237
0.306237
0.2051
0.160097
0.135348
0.120276
0.110488
0.103834
0.0991509
0.0957702
0.0932858
0.0914397
0.0900605
0.0890294
0.0882609
0.0876911
0.0872714
0.0869638
0.0867385
0.0865721
0.0864462
0.0863462
0.0862613
0.0861827
0.0861041
0.0860203
0.0859276
0.0858224
0.0857016
0.085562
0.0853994
0.0852093
0.0849854
0.0847203
0.0844047
0.0840284
0.0835807
0.0830537
0.0824462
0.0817713
0.0810621
0.0803738
0.0797493
0.0792124
0.0787684
0.976885
0.36186
0.218322
0.161415
0.133571
0.118209
0.108998
0.103115
0.0991681
0.0964167
0.0944443
0.0930031
0.0919379
0.0911464
0.0905578
0.0901209
0.0897976
0.0895583
0.0893803
0.0892457
0.0891404
0.0890535
0.0889766
0.0889031
0.088828
0.0887475
0.0886583
0.0885576
0.0884425
0.0883097
0.0881549
0.0879724
0.0877542
0.087489
0.0871612
0.0867494
0.0862257
0.0855563
0.0847093
0.0836746
0.0825054
0.0813805
0.080401
0.0796018
0.0789763
1.51924
0.425222
0.217927
0.15294
0.126192
0.113167
0.106051
0.101813
0.0991114
0.0972942
0.0960225
0.0951074
0.094437
0.0939411
0.0935726
0.0932986
0.0930946
0.0929421
0.0928269
0.0927376
0.0926655
0.0926038
0.092547
0.092491
0.0924327
0.0923695
0.0922993
0.0922202
0.0921302
0.0920268
0.0919066
0.0917647
0.0915934
0.0913811
0.091109
0.0907463
0.0902425
0.0895149
0.0884367
0.0868469
0.0846828
0.0827458
0.0812038
0.0800422
0.0791924
3.21951
0.38517
0.167568
0.124497
0.110568
0.104747
0.101881
0.100288
0.0993151
0.098678
0.0982389
0.0979256
0.0976974
0.0975291
0.0974046
0.0973123
0.0972439
0.0971931
0.0971547
0.097125
0.0971007
0.0970794
0.0970593
0.0970387
0.0970166
0.096992
0.0969642
0.0969325
0.0968963
0.0968547
0.0968065
0.0967499
0.0966818
0.0965969
0.0964851
0.0963261
0.0960752
0.095627
0.0947176
0.0926548
0.0874715
0.0841251
0.0818877
0.0803699
0.0793324
)
;

boundaryField
{
    leftWall
    {
        Cmu             0.09;
        kappa           0.41;
        E               9.8;
        type            epsilonWallFunction;
        value           nonuniform List<scalar> 
42
(
0.783782
0.789443
0.801039
0.820277
0.845888
0.875598
0.897997
0.90728
0.905558
0.895799
0.880474
0.861479
0.840243
0.81779
0.794818
0.771826
0.74917
0.727089
0.70578
0.685436
0.666187
0.648023
0.630847
0.614607
0.599359
0.585212
0.572241
0.560475
0.549929
0.540638
0.532656
0.526099
0.521307
0.519186
0.521708
0.532589
0.558849
0.615272
0.733237
0.976885
1.51924
3.21951
)
;
    }
    rightWall
    {
        Cmu             0.09;
        kappa           0.41;
        E               9.8;
        type            epsilonWallFunction;
        value           nonuniform 0();
    }
    lowerWall
    {
        Cmu             0.09;
        kappa           0.41;
        E               9.8;
        type            epsilonWallFunction;
        value           nonuniform 0();
    }
    atmosphere
    {
        type            inletOutlet;
        inletValue      uniform 0.1;
        value           nonuniform List<scalar> 
45
(
0.1
0.1
0.1
0.1
0.1
0.1
0.1
0.1
0.1
0.1
0.1
0.1
0.1
0.1
0.1
0.1
0.1
0.1
0.1
0.1
0.1
0.1
0.1
0.1
0.1
0.1
0.1
0.1
0.1
0.1
0.1
0.1
0.1
0.1
0.1
0.1
0.1
0.1
0.1
0.1
0.0874715
0.0841251
0.0818877
0.0803699
0.0793324
)
;
    }
    defaultFaces
    {
        type            empty;
    }
    procBoundary2to0
    {
        type            processor;
        value           nonuniform List<scalar> 
46
(
0.281666
0.346443
0.433191
0.549585
0.70659
0.872396
0.894504
0.787786
0.648115
0.514706
0.402429
0.314743
0.249642
0.202915
0.170036
0.147098
0.131096
0.119861
0.111881
0.106119
0.101865
0.0986362
0.0961016
0.0940349
0.0922793
0.779439
0.354394
0.239467
0.192726
0.165603
0.14725
0.13411
0.124629
0.118139
0.114248
0.112717
0.113444
0.116464
0.121958
0.130274
0.141958
0.157823
0.179025
0.207174
0.244478
0.244478
)
;
    }
    procBoundary2to3
    {
        type            processor;
        value           nonuniform List<scalar> 
43
(
0.0904322
0.0901633
0.0899081
0.0896557
0.0893952
0.0891169
0.0888117
0.0884719
0.088092
0.0876687
0.0872019
0.0866941
0.086151
0.0855804
0.0849922
0.0843971
0.083806
0.083229
0.0826749
0.0821509
0.0816618
0.0812108
0.0807992
0.0804268
0.0800922
0.0797935
0.0795283
0.0792938
0.0790876
0.0789074
0.0787512
0.0786176
0.0785058
0.0784158
0.0783481
0.0783044
0.078287
0.0782983
0.0783401
0.0784103
0.0784985
0.0785797
0.0786194
)
;
    }
}


// ************************************************************************* //
