/*--------------------------------*- C++ -*----------------------------------*\
| =========                 |                                                 |
| \\      /  F ield         | OpenFOAM: The Open Source CFD Toolbox           |
|  \\    /   O peration     | Version:  5.0                                   |
|   \\  /    A nd           | Web:      www.OpenFOAM.org                      |
|    \\/     M anipulation  |                                                 |
\*---------------------------------------------------------------------------*/
FoamFile
{
    version     2.0;
    format      ascii;
    class       volScalarField;
    location    "0.15";
    object      nut;
}
// * * * * * * * * * * * * * * * * * * * * * * * * * * * * * * * * * * * * * //

dimensions      [0 2 -1 0 0 0 0];

internalField   nonuniform List<scalar> 
1915
(
0.0114439
0.0116676
0.0119266
0.0122384
0.0126254
0.0129056
0.0128558
0.0125794
0.0122101
0.0118396
0.0115256
0.0112958
0.0111485
0.0110583
0.0109903
0.0109142
0.010813
0.010684
0.0105339
0.0103738
0.0102142
0.0100633
0.00992572
0.00980359
0.00969692
0.0001309
0.000792762
0.00165772
0.00267034
0.00365175
0.00456427
0.00541676
0.00620855
0.00693972
0.00761195
0.00822488
0.00877621
0.00926571
0.00969681
0.0100739
0.0104025
0.0106892
0.0109418
0.0111698
0.011384
0.0115968
0.0118225
0.0120723
0.0123554
0.0126748
0.0127838
0.0126194
0.0123262
0.0119876
0.01167
0.0114157
0.0112403
0.0111332
0.0110661
0.0110065
0.0109292
0.0108229
0.0106883
0.010534
0.0103711
0.0102099
0.010058
0.00991983
0.00979718
0.00968996
0.000131329
0.000752068
0.00158247
0.00258164
0.00359652
0.00456262
0.00546409
0.00629541
0.00705321
0.00774214
0.0083644
0.00892019
0.00940978
0.00983887
0.0102141
0.0105428
0.0108324
0.0110912
0.0113276
0.0115504
0.0117704
0.0119986
0.0122432
0.0124948
0.0126631
0.0126116
0.012404
0.0121219
0.011824
0.0115598
0.011359
0.0112271
0.0111475
0.0110918
0.0110316
0.0109476
0.0108331
0.0106916
0.0105324
0.0103666
0.0102039
0.0100512
0.00991253
0.00978944
0.00968179
0.000132215
0.000747423
0.00159128
0.002569
0.00358686
0.00457966
0.0055145
0.00637531
0.00715912
0.00786746
0.00850096
0.00906112
0.00955236
0.00998206
0.0103583
0.0106893
0.0109831
0.0112478
0.0114907
0.0117191
0.0119389
0.012155
0.0123696
0.0125404
0.0125753
0.0124704
0.012262
0.012002
0.0117424
0.0115227
0.011362
0.0112575
0.0111901
0.0111333
0.0110639
0.010968
0.0108427
0.0106931
0.0105288
0.0103601
0.010196
0.0100427
0.00990372
0.00978037
0.00967244
0.000133526
0.000787253
0.00168299
0.00265825
0.00366559
0.00465831
0.00560416
0.00648402
0.00728844
0.00801234
0.0086537
0.00921534
0.00970479
0.0101312
0.010504
0.0108325
0.0111251
0.0113895
0.0116318
0.011857
0.0120672
0.0122599
0.0124216
0.0125179
0.0125091
0.0123915
0.0121955
0.0119625
0.0117378
0.0115521
0.0114163
0.0113232
0.0112536
0.0111849
0.0110994
0.0109879
0.01085
0.0106918
0.0105223
0.0103511
0.0101859
0.0100322
0.00989311
0.00976975
0.0096618
0.000135069
0.000854579
0.00181662
0.00281019
0.00381411
0.00480156
0.00574677
0.00663028
0.00744028
0.00816578
0.00880611
0.00936505
0.00985017
0.0102712
0.0106383
0.0109616
0.0112494
0.011509
0.0117453
0.0119612
0.0121557
0.0123224
0.0124457
0.0125018
0.0124716
0.0123576
0.0121838
0.0119818
0.0117888
0.0116274
0.0115035
0.0114085
0.0113259
0.0112382
0.0111327
0.0110038
0.0108529
0.0106862
0.010512
0.0103386
0.0101727
0.010019
0.00988028
0.00975727
0.00964961
0.000136677
0.000914857
0.00194207
0.00296941
0.00398305
0.00496962
0.00591085
0.00678946
0.00759292
0.00831323
0.00894841
0.00950172
0.0099805
0.0103946
0.0107545
0.0110705
0.0113512
0.0116031
0.0118304
0.0120341
0.0122116
0.0123555
0.0124529
0.0124887
0.0124539
0.0123538
0.0122063
0.0120351
0.0118684
0.0117226
0.0116007
0.0114953
0.0113939
0.0112841
0.0111576
0.0110117
0.0108487
0.0106746
0.0104965
0.0103216
0.0101556
0.0100026
0.0098647
0.0097425
0.00963556
0.00013766
0.000962329
0.00204813
0.00311046
0.00413822
0.00512639
0.00606277
0.00693387
0.00772883
0.00844093
0.00906836
0.00961422
0.0100856
0.0104921
0.0108444
0.0111526
0.0114252
0.0116684
0.0118856
0.0120771
0.0122397
0.0123669
0.012449
0.012477
0.0124472
0.0123646
0.0122425
0.0120975
0.0119504
0.0118127
0.0116867
0.0115671
0.0114457
0.0113145
0.0111689
0.011008
0.0108349
0.0106549
0.0104743
0.010299
0.0101339
0.00998226
0.00984582
0.00972502
0.00961933
0.000137973
0.000999672
0.00213309
0.00322692
0.00426919
0.00526007
0.00619198
0.0070548
0.00783986
0.00854189
0.00915983
0.00969695
0.0101602
0.0105589
0.0109036
0.011204
0.0114685
0.011703
0.0119106
0.0120913
0.0122424
0.0123583
0.0124327
0.0124599
0.0124385
0.0123726
0.0122713
0.0121462
0.0120123
0.011878
0.0117454
0.0116118
0.0114725
0.0113233
0.0111622
0.0109898
0.0108094
0.0106258
0.0104443
0.0102699
0.0101067
0.00995732
0.00982315
0.00970445
0.00960063
0.000137776
0.00102797
0.002198
0.00331755
0.00437247
0.00536594
0.00629371
0.00714829
0.00792303
0.00861416
0.00922161
0.00974912
0.0102037
0.0105944
0.0109314
0.0112242
0.0114809
0.0117071
0.0119058
0.0120773
0.0122193
0.0123278
0.0123983
0.0124272
0.0124138
0.0123612
0.0122756
0.0121645
0.0120391
0.0119058
0.011767
0.0116221
0.0114692
0.0113068
0.0111348
0.010955
0.0107705
0.0105858
0.0104054
0.0102335
0.0100734
0.00992731
0.00979632
0.0096805
0.00957921
0.000137211
0.00104845
0.00224506
0.00338393
0.00444844
0.00544335
0.00636679
0.00721329
0.00797783
0.00865795
0.00925459
0.00977207
0.0102175
0.0105999
0.0109291
0.0112143
0.0114631
0.0116812
0.0118715
0.0120346
0.012169
0.0122716
0.0123393
0.0123696
0.0123622
0.0123189
0.012244
0.0121427
0.0120231
0.0118905
0.0117476
0.0115954
0.011434
0.0112637
0.0110858
0.0109026
0.0107175
0.0105343
0.010357
0.0101892
0.0100336
0.00989196
0.00976511
0.00965301
0.00955499
0.000136379
0.00106221
0.00227646
0.00342828
0.00449877
0.00549337
0.0064118
0.00725016
0.00800471
0.00867406
0.00925999
0.00976734
0.0102035
0.0105773
0.0108983
0.0111755
0.0114163
0.011626
0.0118079
0.0119627
0.0120896
0.0121865
0.012251
0.0122814
0.0122773
0.01224
0.0121722
0.012078
0.0119631
0.0118321
0.011688
0.0115328
0.0113678
0.0111947
0.0110155
0.0108329
0.0106504
0.0104713
0.0102992
0.0101371
0.00998732
0.00985126
0.00972953
0.00962201
0.00952799
0.00013536
0.00107025
0.00229414
0.00345284
0.00452555
0.00551771
0.00643007
0.00725993
0.00800456
0.0086634
0.00923886
0.00973617
0.0101629
0.0105279
0.0108404
0.0111092
0.0113414
0.0115424
0.0117154
0.0118616
0.0119807
0.0120713
0.0121317
0.0121607
0.0121578
0.0121239
0.0120611
0.0119724
0.0118621
0.0117342
0.0115918
0.0114375
0.0112734
0.0111018
0.0109254
0.010747
0.0105699
0.0103973
0.0102323
0.0100775
0.00993486
0.00980549
0.00968984
0.0095877
0.00949838
0.000134213
0.00107346
0.00229992
0.00345987
0.00453105
0.00551848
0.00642347
0.00724418
0.0079787
0.00862711
0.00919226
0.00967967
0.010097
0.0104529
0.0107567
0.0110166
0.0112398
0.0114315
0.0115953
0.0117325
0.0118434
0.0119272
0.0119826
0.012009
0.0120058
0.0119739
0.0119148
0.0118309
0.0117256
0.0116024
0.0114643
0.0113142
0.0111546
0.0109882
0.0108179
0.0106466
0.0104774
0.0103134
0.0101573
0.0100112
0.00987688
0.00975521
0.0096465
0.00955049
0.0094665
0.000132979
0.0010727
0.00229566
0.00345179
0.00451786
0.00549824
0.0063944
0.00720511
0.00792909
0.00856692
0.00912176
0.00959929
0.0100071
0.0103539
0.0106486
0.0108994
0.0111133
0.0112955
0.0114497
0.0115777
0.0116802
0.0117568
0.0118069
0.01183
0.0118259
0.0117952
0.0117393
0.0116602
0.0115604
0.0114433
0.0113116
0.0111682
0.0110159
0.0108576
0.010696
0.0105342
0.0103751
0.0102214
0.0100755
0.00993934
0.00981435
0.00970124
0.00960021
0.00951095
0.0094328
0.000131692
0.00106878
0.00228323
0.00343116
0.00448889
0.00546001
0.00634589
0.00714566
0.00785852
0.00848542
0.00902975
0.00949728
0.00989554
0.0102331
0.0105185
0.01076
0.0109644
0.0111371
0.0112817
0.0114006
0.0114947
0.0115642
0.011609
0.0116287
0.0116235
0.0115939
0.0115411
0.0114668
0.0113733
0.0112634
0.0111397
0.0110051
0.0108622
0.010714
0.0105633
0.0104127
0.0102652
0.0101231
0.00998861
0.00986336
0.0097485
0.00964462
0.00955182
0.00946977
0.00939785
0.000130376
0.00106246
0.00226447
0.00340063
0.00444728
0.0054072
0.0062815
0.00706944
0.00777055
0.00838609
0.00891961
0.00937689
0.00976538
0.0100935
0.0103696
0.0106018
0.0107967
0.0109599
0.0110953
0.0112053
0.0112914
0.0113542
0.0113939
0.0114105
0.0114043
0.011376
0.0113265
0.0112574
0.0111708
0.011069
0.0109545
0.01083
0.0106982
0.0105617
0.0104231
0.0102852
0.0101504
0.010021
0.00989866
0.00978495
0.00968075
0.00958653
0.0095023
0.00942775
0.00936229
0.00012905
0.00105441
0.00224112
0.00336279
0.00439621
0.0053434
0.00620506
0.00698048
0.00766936
0.00827317
0.00879557
0.00924234
0.00962084
0.0099393
0.010206
0.0104289
0.0106145
0.0107685
0.010895
0.0109966
0.0110753
0.0111319
0.0111671
0.011181
0.0111743
0.0111475
0.0111017
0.0110382
0.010959
0.010866
0.0107616
0.0106483
0.0105284
0.0104046
0.0102793
0.0101549
0.0100336
0.00991736
0.00980771
0.00970587
0.00961259
0.0095282
0.00945268
0.00938572
0.00932679
0.000127731
0.00104522
0.00221473
0.00332004
0.00433872
0.00527211
0.00612048
0.00688298
0.00755939
0.00815129
0.00866241
0.00909851
0.00946688
0.00977561
0.0100329
0.0102464
0.010423
0.0105681
0.0106861
0.01078
0.0108518
0.0109029
0.0109341
0.010946
0.0109391
0.0109143
0.0108725
0.010815
0.0107435
0.0106599
0.0105662
0.0104646
0.0103575
0.0102471
0.0101355
0.0100251
0.0099176
0.00981475
0.00971787
0.00962793
0.00954551
0.00947087
0.00940395
0.00934448
0.00929198
0.000126433
0.00103541
0.00218663
0.00327447
0.00427753
0.00519657
0.00603138
0.00678093
0.00744497
0.00802509
0.00852504
0.00895056
0.00930883
0.00960787
0.00985576
0.0100602
0.0102279
0.0103645
0.0104745
0.0105611
0.0106267
0.0106729
0.0107007
0.010711
0.0107045
0.0106821
0.0106446
0.0105934
0.01053
0.010456
0.0103733
0.0102839
0.0101897
0.0100929
0.00999529
0.00989882
0.00980509
0.00971549
0.00963113
0.00955277
0.00948088
0.00941566
0.00935703
0.00930476
0.00925845
0.00012517
0.00102536
0.00215789
0.00322782
0.00421493
0.00511952
0.00594094
0.00667788
0.00732999
0.0078988
0.00838803
0.00880335
0.00915187
0.00944149
0.00968027
0.00987584
0.010035
0.0101635
0.010266
0.0103459
0.0104059
0.0104478
0.0104728
0.010482
0.0104763
0.0104566
0.0104237
0.010379
0.0103237
0.0102594
0.0101877
0.0101104
0.0100292
0.00994576
0.00986185
0.00977898
0.00969853
0.00962164
0.0095492
0.00948182
0.00941989
0.00936353
0.00931269
0.00926718
0.00922668
0.000123951
0.00101537
0.00212933
0.00318139
0.00415268
0.00504314
0.00585167
0.00657668
0.00721763
0.00777595
0.00825525
0.0086611
0.00900052
0.00928133
0.00951155
0.00969881
0.00984999
0.00997096
0.0100665
0.0101403
0.0101952
0.0102333
0.0102561
0.0102646
0.0102601
0.0102432
0.0102151
0.0101769
0.0101296
0.0100748
0.0100138
0.00994826
0.00987946
0.00980889
0.00973796
0.00966793
0.00959992
0.00953486
0.00947345
0.00941621
0.00936342
0.0093152
0.00927152
0.00923222
0.00919706
0.000122778
0.00100563
0.00210148
0.00313614
0.0040921
0.00496904
0.00576546
0.00647946
0.00711028
0.00765917
0.00812961
0.00852703
0.00885833
0.00913126
0.00935378
0.00953355
0.00967751
0.00979167
0.00988097
0.00994936
0.00999984
0.0100347
0.0100556
0.0100639
0.0100607
0.0100469
0.0100235
0.00999146
0.00995197
0.00990617
0.00985528
0.00980059
0.00974337
0.00968468
0.00962567
0.00956736
0.00951065
0.00945628
0.00940482
0.00935667
0.00931208
0.00927116
0.0092339
0.00920018
0.00916984
0.000121649
0.000996236
0.00207469
0.00309267
0.00403405
0.0048983
0.00568357
0.00638764
0.0070095
0.00755021
0.00801304
0.00840329
0.0087277
0.00899391
0.00920986
0.0093832
0.00952095
0.00962923
0.00971318
0.0097769
0.00982363
0.00985583
0.00987536
0.00988366
0.0098819
0.00987108
0.00985215
0.00982603
0.0097937
0.00975616
0.00971445
0.00966962
0.0096227
0.00957461
0.00952618
0.00947823
0.00943148
0.0093865
0.00934375
0.00930358
0.00926618
0.00923166
0.00920003
0.00917123
0.00914514
0.000120564
0.000987234
0.00204917
0.00305138
0.0039791
0.00483162
0.00560678
0.00630206
0.0069162
0.00745001
0.00790658
0.008291
0.00860985
0.00887068
0.00908133
0.00924947
0.00938217
0.00948567
0.00956524
0.00962518
0.0096689
0.00969903
0.00971758
0.00972613
0.00972589
0.00971789
0.00970305
0.00968223
0.00965628
0.00962604
0.00959238
0.00955614
0.00951815
0.00947918
0.00943985
0.00940079
0.00936255
0.00932561
0.00929032
0.00925696
0.00922572
0.0091967
0.00916993
0.00914539
0.009123
0.00011953
0.000978686
0.00202506
0.00301253
0.00392758
0.00476939
0.00553551
0.00622314
0.00683076
0.00735895
0.00781056
0.00819047
0.00850511
0.00876188
0.00896855
0.00913276
0.00926163
0.00936147
0.0094377
0.00949476
0.00953622
0.00956487
0.00958285
0.00959181
0.00959305
0.00958762
0.00957639
0.00956018
0.0095397
0.0095157
0.00948887
0.00945988
0.00942939
0.00939802
0.00936629
0.00933465
0.00930352
0.00927328
0.00924422
0.00921658
0.00919052
0.00916615
0.0091435
0.00912258
0.00910335
0.000118557
0.000970676
0.00200255
0.00297635
0.00387977
0.0047119
0.00547002
0.00615108
0.00675329
0.00727701
0.00772485
0.00810148
0.00841314
0.00866709
0.00887101
0.00903249
0.00915869
0.00925597
0.00932984
0.00938488
0.00942479
0.00945248
0.00947022
0.00947973
0.00948236
0.00947918
0.00947104
0.00945869
0.00944279
0.00942394
0.00940272
0.00937968
0.00935534
0.00933017
0.00930461
0.009279
0.00925367
0.00922891
0.00920497
0.00918203
0.00916025
0.00913973
0.00912052
0.00910264
0.00908609
0.000117653
0.000963302
0.00198181
0.00294308
0.00383594
0.00465939
0.00541051
0.00608598
0.00668379
0.00720405
0.00764915
0.00802353
0.00833327
0.00858547
0.0087877
0.00894751
0.00907203
0.0091677
0.00924008
0.00929385
0.00933283
0.00936002
0.00937778
0.00938792
0.00939181
0.00939055
0.00938498
0.00937579
0.00936359
0.00934889
0.00933218
0.0093139
0.00929446
0.00927424
0.00925359
0.0092328
0.00921211
0.00919175
0.00917192
0.0091528
0.0091345
0.00911713
0.00910075
0.00908539
0.00907106
0.000116822
0.000956662
0.00196304
0.002913
0.0037964
0.00461221
0.00535727
0.00602807
0.00662236
0.00714001
0.00758319
0.00795617
0.00826482
0.00851609
0.00871747
0.00887644
0.0090001
0.00909491
0.00916649
0.0092196
0.00925812
0.00928516
0.00930314
0.00931393
0.00931895
0.00931929
0.0093158
0.00930914
0.00929986
0.00928844
0.00927527
0.00926072
0.00924512
0.00922878
0.00921197
0.00919494
0.00917789
0.00916101
0.00914444
0.00912835
0.00911284
0.00909801
0.00908392
0.00907062
0.00905811
0.00011607
0.000950861
0.00194651
0.0028865
0.00376166
0.0045709
0.00531087
0.00597784
0.00656935
0.00708508
0.00752699
0.00789915
0.00820729
0.00845823
0.00865933
0.00881802
0.00894138
0.00903587
0.00910715
0.00916002
0.00919844
0.00922556
0.00924388
0.0092553
0.00926129
0.00926294
0.0092611
0.00925643
0.00924943
0.00924053
0.00923008
0.00921839
0.00920575
0.00919239
0.00917854
0.0091644
0.00915017
0.00913597
0.00912194
0.00910822
0.0090949
0.00908208
0.00906981
0.00905814
0.0090471
0.000115401
0.000946048
0.0019326
0.00286422
0.00373253
0.00453641
0.0052723
0.00593627
0.00652566
0.00703997
0.00748101
0.00785269
0.00816062
0.00841149
0.00861259
0.0087713
0.00889467
0.00898914
0.0090604
0.00911329
0.00915179
0.00917912
0.00919781
0.00920982
0.00921661
0.00921932
0.00921878
0.00921563
0.00921036
0.00920338
0.00919498
0.00918546
0.00917503
0.00916392
0.0091523
0.00914035
0.00912822
0.00911605
0.00910395
0.00909203
0.00908038
0.00906909
0.00905822
0.00904782
0.00903792
0.000114821
0.000942463
0.00192194
0.00284716
0.00371039
0.00451036
0.00524331
0.0059051
0.00649292
0.00700612
0.00744641
0.00781762
0.00812527
0.00837601
0.00857706
0.00873576
0.00885914
0.00895364
0.00902494
0.0090779
0.00911654
0.0091441
0.00916314
0.00917563
0.00918308
0.00918661
0.00918705
0.00918506
0.00918109
0.00917553
0.00916866
0.00916073
0.00915194
0.00914247
0.00913248
0.00912213
0.00911153
0.00910083
0.00909012
0.0090795
0.00906906
0.00905888
0.00904902
0.00903954
0.00903047
0.000114345
0.000940524
0.00191557
0.00283706
0.00369752
0.00449544
0.0052268
0.00588725
0.00647387
0.00698597
0.00742526
0.00779556
0.00810243
0.00835251
0.00855304
0.00871133
0.0088344
0.00892868
0.00899984
0.00905275
0.00909143
0.00911913
0.00913842
0.00915127
0.00915921
0.00916335
0.00916454
0.0091634
0.00916039
0.00915587
0.0091501
0.00914332
0.00913569
0.00912738
0.00911854
0.00910928
0.00909974
0.00909003
0.00908025
0.00907048
0.00906083
0.00905137
0.00904216
0.00903326
0.00902472
0.000114006
0.000940936
0.00191526
0.0028367
0.0036976
0.00449595
0.00522735
0.00588728
0.0064728
0.00698334
0.00742076
0.00778909
0.00809402
0.00834232
0.0085413
0.0086983
0.00882034
0.00891382
0.00898442
0.00903694
0.00907541
0.00910304
0.00912241
0.00913547
0.00914374
0.00914832
0.00915005
0.00914954
0.00914723
0.00914346
0.00913848
0.00913249
0.00912567
0.00911815
0.00911005
0.00910151
0.00909261
0.00908349
0.00907422
0.00906491
0.00905565
0.00904653
0.00903761
0.00902897
0.00902065
0.000113881
0.000944817
0.00192372
0.0028505
0.00371643
0.00451855
0.00525195
0.00591201
0.00649598
0.00700369
0.00743746
0.00780179
0.00810273
0.00834731
0.00854301
0.00869723
0.00881702
0.00890875
0.00897802
0.0090296
0.00906743
0.0090947
0.00911391
0.009127
0.00913543
0.00914031
0.00914242
0.00914237
0.00914058
0.00913736
0.00913296
0.00912754
0.00912127
0.00911426
0.00910663
0.00909848
0.00908992
0.00908105
0.00907196
0.00906275
0.00905352
0.00904437
0.00903539
0.00902666
0.00901825
0.000114125
0.00095374
0.00194498
0.00288509
0.0037627
0.00457315
0.00531081
0.00597115
0.0065521
0.00705438
0.0074813
0.0078382
0.00813182
0.00836964
0.0085594
0.00870864
0.00882438
0.00891294
0.00897981
0.00902963
0.00906624
0.00909271
0.00911145
0.00912435
0.00913279
0.00913783
0.00914023
0.00914054
0.00913917
0.00913641
0.00913246
0.00912749
0.00912163
0.00911498
0.00910765
0.00909973
0.0090913
0.00908245
0.00907329
0.0090639
0.00905439
0.00904489
0.0090355
0.00902634
0.00901751
0.000115012
0.00096956
0.00198445
0.00294995
0.00384904
0.00467397
0.00541819
0.00607787
0.00665247
0.00714459
0.00755931
0.00790342
0.00818472
0.00841136
0.00859145
0.00873263
0.00884189
0.00892537
0.0089884
0.0090354
0.00907001
0.00909514
0.00911305
0.00912549
0.00913377
0.00913887
0.00914149
0.00914213
0.00914117
0.00913884
0.00913535
0.00913082
0.00912537
0.00911908
0.00911203
0.0091043
0.00909596
0.00908708
0.00907774
0.00906803
0.00905805
0.00904793
0.00903783
0.00902792
0.00901834
0.000117012
0.000994046
0.00204919
0.00305866
0.00399371
0.00484105
0.0055934
0.00624903
0.00681076
0.00728468
0.00767884
0.00800226
0.00826421
0.00847372
0.00863923
0.00876844
0.00886814
0.00894422
0.00900165
0.00904454
0.00907622
0.00909935
0.00911598
0.00912768
0.00913562
0.00914068
0.00914347
0.00914445
0.00914392
0.00914211
0.00913915
0.00913517
0.00913026
0.00912447
0.00911787
0.0091105
0.00910243
0.00909368
0.00908431
0.00907436
0.00906391
0.00905309
0.0090421
0.00903118
0.00902056
0.000120995
0.00102911
0.00215011
0.00323264
0.00422439
0.00510295
0.00586185
0.00650492
0.00704179
0.00748458
0.00784588
0.00813775
0.00837123
0.00855618
0.00870124
0.00881391
0.00890057
0.00896662
0.00901651
0.00905386
0.0090816
0.00910199
0.00911683
0.00912744
0.00913482
0.00913972
0.00914264
0.00914396
0.00914392
0.00914271
0.00914044
0.0091372
0.00913304
0.00912801
0.00912217
0.00911552
0.00910811
0.00909993
0.00909098
0.00908125
0.00907072
0.00905944
0.00904762
0.00903561
0.00902379
0.000128428
0.00108028
0.00231084
0.00351253
0.00458772
0.00550202
0.00625621
0.00686765
0.00735863
0.00775064
0.00806228
0.00830897
0.00850326
0.00865541
0.00877377
0.00886522
0.00893536
0.00898879
0.00902922
0.00905963
0.00908237
0.00909928
0.00911177
0.00912089
0.00912744
0.00913198
0.00913491
0.00913652
0.00913699
0.00913645
0.00913499
0.00913265
0.00912948
0.00912551
0.00912076
0.00911526
0.00910901
0.00910202
0.00909428
0.00908571
0.00907612
0.00906522
0.00905314
0.00904032
0.00902737
0.000141344
0.00116909
0.00259639
0.0039902
0.00517117
0.00610301
0.00681569
0.00735599
0.00776651
0.00808039
0.00832184
0.00850838
0.00865276
0.00876444
0.00885064
0.00891693
0.0089677
0.00900642
0.00903583
0.00905812
0.00907496
0.00908767
0.00909724
0.00910441
0.00910975
0.00911363
0.00911634
0.00911806
0.00911892
0.00911899
0.00911833
0.00911695
0.00911489
0.00911215
0.00910873
0.00910465
0.00909993
0.00909465
0.00908896
0.00908298
0.00907638
0.00906774
0.00905675
0.00904398
0.00903038
0.000163607
0.00137563
0.00321499
0.00490005
0.00614537
0.00699755
0.00757404
0.0079708
0.00825129
0.00845489
0.00860592
0.00871974
0.00880638
0.00887271
0.0089236
0.00896265
0.00899259
0.00901552
0.00903307
0.0090465
0.0090568
0.00906472
0.00907082
0.00907553
0.00907917
0.00908195
0.00908402
0.00908548
0.0090864
0.00908682
0.00908675
0.00908621
0.00908517
0.00908364
0.00908157
0.00907896
0.00907579
0.00907224
0.00906882
0.00906673
0.00906722
0.00906425
0.00905663
0.00904531
0.00903193
0.000209795
0.00218923
0.00510403
0.00690401
0.0077989
0.00825529
0.00850843
0.00866184
0.00876205
0.00883138
0.00888135
0.00891836
0.00894627
0.00896753
0.00898383
0.00899636
0.00900602
0.00901346
0.00901922
0.00902368
0.00902716
0.00902989
0.00903204
0.00903374
0.0090351
0.00903617
0.009037
0.00903762
0.00903806
0.00903831
0.00903838
0.00903828
0.00903798
0.00903747
0.00903672
0.00903567
0.00903427
0.00903247
0.00903063
0.00903111
0.00904841
0.00905558
0.00905331
0.00904446
0.00903197
)
;

boundaryField
{
    leftWall
    {
        type            nutkWallFunction;
        Cmu             0.09;
        kappa           0.41;
        E               9.8;
        value           nonuniform List<scalar> 
42
(
9.6602e-06
9.71231e-06
9.81873e-06
9.98759e-06
1.02015e-05
1.04386e-05
1.06058e-05
1.06709e-05
1.06537e-05
1.05763e-05
1.04559e-05
1.03057e-05
1.01352e-05
9.95161e-06
9.75994e-06
9.56399e-06
9.36668e-06
9.17019e-06
8.97648e-06
8.78763e-06
8.60521e-06
8.42955e-06
8.26019e-06
8.09703e-06
7.9411e-06
7.79394e-06
7.65685e-06
7.53062e-06
7.41593e-06
7.31363e-06
7.2248e-06
7.15129e-06
7.09758e-06
7.0747e-06
7.10562e-06
7.23163e-06
7.52483e-06
8.11861e-06
9.23777e-06
1.11852e-05
1.45056e-05
2.1212e-05
)
;
    }
    rightWall
    {
        type            nutkWallFunction;
        Cmu             0.09;
        kappa           0.41;
        E               9.8;
        value           nonuniform 0();
    }
    lowerWall
    {
        type            nutkWallFunction;
        Cmu             0.09;
        kappa           0.41;
        E               9.8;
        value           nonuniform 0();
    }
    atmosphere
    {
        type            calculated;
        value           nonuniform List<scalar> 
45
(
0.009
0.009
0.009
0.009
0.009
0.009
0.009
0.009
0.009
0.009
0.009
0.009
0.009
0.009
0.009
0.009
0.009
0.009
0.009
0.009
0.009
0.009
0.009
0.009
0.009
0.009
0.009
0.009
0.009
0.009
0.009
0.009
0.009
0.009
0.009
0.009
0.009
0.009
0.009
0.009
0.00904841
0.00905558
0.00905331
0.00904446
0.00903197
)
;
    }
    defaultFaces
    {
        type            empty;
    }
    procBoundary2to0
    {
        type            processor;
        value           nonuniform List<scalar> 
46
(
0.011312
0.0115348
0.0118017
0.0121342
0.0125567
0.0129685
0.0130569
0.0128268
0.0124502
0.0120401
0.0116704
0.0113831
0.0111881
0.0110662
0.0109824
0.0109022
0.0108032
0.0106783
0.0105321
0.0103747
0.0102168
0.0100668
0.00992998
0.00980846
0.00970238
0.000130873
0.000844494
0.00175648
0.00272284
0.00364618
0.00451563
0.00533412
0.00610124
0.00681674
0.00747953
0.0080869
0.00863651
0.00912849
0.00956409
0.00994562
0.0102767
0.0105626
0.0108109
0.0110316
0.0112377
0.0112377
)
;
    }
    procBoundary2to3
    {
        type            processor;
        value           nonuniform List<scalar> 
43
(
0.0096045
0.00959699
0.00958838
0.00957877
0.00956808
0.00955615
0.00954274
0.00952761
0.00951054
0.00949134
0.00946996
0.00944641
0.00942085
0.00939354
0.00936484
0.00933522
0.00930518
0.00927523
0.00924589
0.00921763
0.00919081
0.00916575
0.00914265
0.0091216
0.00910265
0.00908575
0.00907082
0.00905775
0.00904641
0.00903671
0.00902854
0.00902184
0.00901657
0.00901271
0.00901023
0.0090091
0.00900924
0.00901047
0.00901251
0.00901485
0.00901689
0.00901801
0.00901816
)
;
    }
}


// ************************************************************************* //
