/*--------------------------------*- C++ -*----------------------------------*\
| =========                 |                                                 |
| \\      /  F ield         | OpenFOAM: The Open Source CFD Toolbox           |
|  \\    /   O peration     | Version:  5.0                                   |
|   \\  /    A nd           | Web:      www.OpenFOAM.org                      |
|    \\/     M anipulation  |                                                 |
\*---------------------------------------------------------------------------*/
FoamFile
{
    version     2.0;
    format      ascii;
    class       volScalarField;
    location    "0.15";
    object      p;
}
// * * * * * * * * * * * * * * * * * * * * * * * * * * * * * * * * * * * * * //

dimensions      [1 -1 -2 0 0 0 0];

internalField   nonuniform List<scalar> 
1915
(
6.87889
8.50506
9.60637
-1.994
-2.97663
-2.97772
-2.9527
-2.90697
-2.84558
-2.7772
-2.70743
-2.63939
-2.57484
-2.51468
-2.45927
-2.40861
-2.36254
-2.32083
-2.28322
-2.24941
-2.2191
-2.19199
-2.16775
-2.14605
-2.12645
-3.3334
-3.29582
-3.3355
-3.35437
-3.37285
-3.46637
-3.71526
-3.81191
-3.79994
-3.73839
-3.66844
-3.59677
-3.54072
-3.50701
-3.49708
-3.51207
-3.55583
-3.6442
-3.75968
-3.79027
-3.80621
-3.79066
-2.74231
-3.30615
-3.48726
-3.17539
-3.11055
-3.0474
-2.96959
-2.88982
-2.81291
-2.74035
-2.67286
-2.61077
-2.55407
-2.50251
-2.45578
-2.41356
-2.37549
-2.34124
-2.3105
-2.28292
-2.25819
-2.23597
-2.21586
-3.38201
-3.36416
-3.38165
-3.4033
-3.42863
-3.46281
-3.51542
-3.54578
-3.56039
-3.59859
-3.67525
-3.73737
-3.76352
-3.76558
-3.752
-3.72559
-3.69098
-3.66761
-3.68627
-3.73613
-3.79634
-3.8763
-3.8828
-3.70811
-3.60491
-3.39311
-3.2706
-3.17198
-3.07845
-2.99035
-2.90865
-2.83336
-2.76437
-2.70148
-2.64436
-2.59261
-2.5458
-2.50352
-2.46538
-2.43102
-2.40009
-2.37227
-2.34723
-2.32465
-2.30416
-3.43469
-3.43262
-3.43827
-3.45391
-3.47953
-3.51285
-3.54972
-3.57818
-3.59508
-3.60224
-3.61227
-3.62736
-3.64086
-3.65178
-3.66072
-3.66857
-3.6773
-3.69177
-3.71678
-3.7469
-3.78106
-3.82336
-3.8452
-3.79496
-3.64406
-3.48505
-3.3639
-3.25958
-3.16349
-3.07444
-2.99244
-2.91731
-2.84878
-2.78648
-2.72997
-2.6788
-2.63251
-2.59065
-2.55283
-2.51867
-2.48783
-2.46
-2.43487
-2.41212
-2.39143
-3.48886
-3.4968
-3.49847
-3.50725
-3.52452
-3.54922
-3.57754
-3.60254
-3.62175
-3.63624
-3.64998
-3.66397
-3.67611
-3.68573
-3.6932
-3.69953
-3.7063
-3.71568
-3.72879
-3.74324
-3.75672
-3.76595
-3.75991
-3.7179
-3.62129
-3.51293
-3.41299
-3.31819
-3.22819
-3.14358
-3.06496
-2.99257
-2.92631
-2.86591
-2.81101
-2.76117
-2.71598
-2.675
-2.63786
-2.60421
-2.57374
-2.54614
-2.52112
-2.49841
-2.47769
-3.5401
-3.5527
-3.55423
-3.55974
-3.57041
-3.58619
-3.60502
-3.62361
-3.64028
-3.65521
-3.66919
-3.68185
-3.69237
-3.70046
-3.70648
-3.7112
-3.71561
-3.7208
-3.72707
-3.73294
-3.73569
-3.73169
-3.71402
-3.67348
-3.60667
-3.52645
-3.44323
-3.36056
-3.27941
-3.20166
-3.12851
-3.06051
-2.99782
-2.94036
-2.88786
-2.83999
-2.79639
-2.7567
-2.72059
-2.68774
-2.65789
-2.63074
-2.60606
-2.58356
-2.56299
-3.58676
-3.59709
-3.60225
-3.60755
-3.61506
-3.6255
-3.63808
-3.65136
-3.66422
-3.67626
-3.68737
-3.6972
-3.70531
-3.71153
-3.71609
-3.71948
-3.72221
-3.72461
-3.72645
-3.72653
-3.72284
-3.71239
-3.69092
-3.65405
-3.60094
-3.53658
-3.46663
-3.39448
-3.32238
-3.25228
-3.1855
-3.12278
-3.06447
-3.01061
-2.96109
-2.91566
-2.87406
-2.83599
-2.8012
-2.76942
-2.74041
-2.71393
-2.68976
-2.66766
-2.64738
-3.62568
-3.63561
-3.64334
-3.64971
-3.65637
-3.66435
-3.67358
-3.68339
-3.69307
-3.70218
-3.71046
-3.7176
-3.7233
-3.72745
-3.73019
-3.73178
-3.7324
-3.73202
-3.73018
-3.72585
-3.71747
-3.70303
-3.67998
-3.64601
-3.60076
-3.54663
-3.48691
-3.42423
-3.36076
-3.29828
-3.2381
-3.18101
-3.12745
-3.07758
-3.03137
-2.9887
-2.94936
-2.91318
-2.87993
-2.84943
-2.82146
-2.79584
-2.77235
-2.7508
-2.73096
-3.66015
-3.67018
-3.67948
-3.68707
-3.69394
-3.70104
-3.70856
-3.7162
-3.72357
-3.73035
-3.73629
-3.74113
-3.74461
-3.74665
-3.74739
-3.74697
-3.74538
-3.74237
-3.73744
-3.72971
-3.71804
-3.70107
-3.6773
-3.64556
-3.60567
-3.55895
-3.50739
-3.45288
-3.39721
-3.3419
-3.28811
-3.23661
-3.18788
-3.14212
-3.09938
-3.05962
-3.02274
-2.9886
-2.95708
-2.92801
-2.90124
-2.87662
-2.85396
-2.83309
-2.8138
-3.69264
-3.7026
-3.71271
-3.72125
-3.72857
-3.73544
-3.74206
-3.7483
-3.75398
-3.75892
-3.76292
-3.76575
-3.76724
-3.76737
-3.76624
-3.76394
-3.76033
-3.75508
-3.74767
-3.73741
-3.72351
-3.7051
-3.68132
-3.65157
-3.61584
-3.57488
-3.52993
-3.48239
-3.43361
-3.38481
-3.33698
-3.29081
-3.24675
-3.20503
-3.16577
-3.12898
-3.09462
-3.06263
-3.03292
-3.0054
-2.97995
-2.95644
-2.93473
-2.91465
-2.89602
-3.72467
-3.73437
-3.74477
-3.75388
-3.76158
-3.76838
-3.77444
-3.7797
-3.78413
-3.78761
-3.78997
-3.79109
-3.79088
-3.7894
-3.78671
-3.7828
-3.77746
-3.77033
-3.76097
-3.7489
-3.73361
-3.71458
-3.69134
-3.66358
-3.63135
-3.5951
-3.55567
-3.51404
-3.47124
-3.42823
-3.3858
-3.34455
-3.30488
-3.26703
-3.23114
-3.19727
-3.16543
-3.13561
-3.10777
-3.08186
-3.05779
-3.03548
-3.0148
-2.99561
-2.97772
-3.7572
-3.76653
-3.77691
-3.78626
-3.79409
-3.80076
-3.80636
-3.81092
-3.81439
-3.81669
-3.81772
-3.81744
-3.81589
-3.81313
-3.80917
-3.80393
-3.79714
-3.7885
-3.7777
-3.76445
-3.74846
-3.72944
-3.70714
-3.68138
-3.65221
-3.61995
-3.58516
-3.54857
-3.51093
-3.473
-3.43539
-3.39859
-3.36295
-3.32871
-3.296
-3.26493
-3.23555
-3.20787
-3.1819
-3.15762
-3.13499
-3.11392
-3.09434
-3.07608
-3.05899
-3.79091
-3.79983
-3.80999
-3.81925
-3.82694
-3.83331
-3.83848
-3.84244
-3.84515
-3.84652
-3.84652
-3.8452
-3.84266
-3.83895
-3.83401
-3.82769
-3.81976
-3.81001
-3.79827
-3.78441
-3.76828
-3.74973
-3.72861
-3.70481
-3.67838
-3.64954
-3.61871
-3.58641
-3.55321
-3.51967
-3.48629
-3.45345
-3.42146
-3.39053
-3.3608
-3.33237
-3.30533
-3.27972
-3.25559
-3.23292
-3.21172
-3.19193
-3.17347
-3.15619
-3.13993
-3.82636
-3.83483
-3.84459
-3.85348
-3.86081
-3.86677
-3.87146
-3.87487
-3.87693
-3.87757
-3.87684
-3.87483
-3.87165
-3.86727
-3.8616
-3.85447
-3.84573
-3.83528
-3.82306
-3.80905
-3.7932
-3.77542
-3.7556
-3.73369
-3.70971
-3.68383
-3.65637
-3.62772
-3.5983
-3.56856
-3.53887
-3.50953
-3.48081
-3.45287
-3.42587
-3.3999
-3.37506
-3.35142
-3.32905
-3.30797
-3.28819
-3.26966
-3.25233
-3.23604
-3.22062
-3.86392
-3.87192
-3.88112
-3.88948
-3.89632
-3.90181
-3.90602
-3.90891
-3.9104
-3.91052
-3.90933
-3.90693
-3.90335
-3.89852
-3.89231
-3.88461
-3.87536
-3.86455
-3.85224
-3.83844
-3.82317
-3.80633
-3.78787
-3.76772
-3.74593
-3.72262
-3.69803
-3.67248
-3.6463
-3.61982
-3.59333
-3.56708
-3.54125
-3.51601
-3.49147
-3.46776
-3.44497
-3.42319
-3.4025
-3.38295
-3.36455
-3.34727
-3.33104
-3.31573
-3.30114
-3.90379
-3.91129
-3.91988
-3.92767
-3.93401
-3.93904
-3.94279
-3.94521
-3.94628
-3.94606
-3.9446
-3.94196
-3.9381
-3.93291
-3.9263
-3.91823
-3.90873
-3.89789
-3.88579
-3.8725
-3.85799
-3.84221
-3.82507
-3.80655
-3.78669
-3.76559
-3.74347
-3.72057
-3.69716
-3.6735
-3.64979
-3.62623
-3.60297
-3.58012
-3.55781
-3.53615
-3.51525
-3.49522
-3.47612
-3.45803
-3.44096
-3.42488
-3.40972
-3.39535
-3.38156
-3.94605
-3.95307
-3.96107
-3.96833
-3.97422
-3.97881
-3.98214
-3.98418
-3.98496
-3.98452
-3.98288
-3.98004
-3.97591
-3.97042
-3.96354
-3.9553
-3.94583
-3.93524
-3.92363
-3.91102
-3.89739
-3.88267
-3.86679
-3.84974
-3.83157
-3.81239
-3.7924
-3.77179
-3.75078
-3.72955
-3.70827
-3.68706
-3.66604
-3.64532
-3.62501
-3.60522
-3.58606
-3.56765
-3.55006
-3.53336
-3.51755
-3.50261
-3.48846
-3.47498
-3.46196
-3.99072
-3.99728
-4.00477
-4.01154
-4.01699
-4.02117
-4.02413
-4.02587
-4.02644
-4.02583
-4.02403
-4.02097
-4.01661
-4.01091
-4.00393
-3.99579
-3.98661
-3.97651
-3.96556
-3.95374
-3.94101
-3.9273
-3.91257
-3.89683
-3.88015
-3.86267
-3.84454
-3.82593
-3.80701
-3.7879
-3.76871
-3.74955
-3.73051
-3.71167
-3.69315
-3.67505
-3.65751
-3.64061
-3.62444
-3.60904
-3.59443
-3.58055
-3.56735
-3.55469
-3.54238
-4.03778
-4.04393
-4.05092
-4.0572
-4.0622
-4.066
-4.06865
-4.07017
-4.07056
-4.0698
-4.06782
-4.06458
-4.06007
-4.05434
-4.0475
-4.03968
-4.031
-4.02155
-4.01132
-4.0003
-3.98841
-3.97563
-3.96193
-3.94738
-3.93206
-3.91609
-3.89962
-3.88278
-3.86567
-3.84841
-3.83105
-3.81367
-3.79635
-3.77919
-3.76228
-3.74574
-3.72969
-3.71421
-3.69936
-3.68519
-3.67167
-3.65878
-3.64644
-3.63454
-3.6229
-4.08724
-4.093
-4.09946
-4.10523
-4.1098
-4.11326
-4.11566
-4.11699
-4.11723
-4.1163
-4.11417
-4.11083
-4.10633
-4.10077
-4.09427
-4.08695
-4.07888
-4.07009
-4.06057
-4.05027
-4.03916
-4.02722
-4.01449
-4.00103
-3.98696
-3.97237
-3.95739
-3.94211
-3.9266
-3.91093
-3.89515
-3.87933
-3.86354
-3.84788
-3.83245
-3.81735
-3.80268
-3.78852
-3.7749
-3.76185
-3.74935
-3.73735
-3.72579
-3.71458
-3.70355
-4.13909
-4.14444
-4.15038
-4.15565
-4.15984
-4.16301
-4.16519
-4.16634
-4.1664
-4.16532
-4.16311
-4.1598
-4.15547
-4.15023
-4.14419
-4.13742
-4.12996
-4.1218
-4.11292
-4.10328
-4.09288
-4.08174
-4.06992
-4.0575
-4.04458
-4.03126
-4.01761
-4.0037
-3.98958
-3.97529
-3.9609
-3.94645
-3.93204
-3.91775
-3.90367
-3.88991
-3.87653
-3.86358
-3.8511
-3.83908
-3.8275
-3.8163
-3.80545
-3.79486
-3.7844
-4.19322
-4.19818
-4.20363
-4.20847
-4.21232
-4.21524
-4.2172
-4.21814
-4.21803
-4.21685
-4.21465
-4.21148
-4.20744
-4.20261
-4.19707
-4.19084
-4.18394
-4.17633
-4.16802
-4.15898
-4.14926
-4.13889
-4.12795
-4.11651
-4.10467
-4.09249
-4.08003
-4.06732
-4.05441
-4.04135
-4.02819
-4.01499
-4.00183
-3.98881
-3.97599
-3.96346
-3.95126
-3.93944
-3.92799
-3.91689
-3.90613
-3.89565
-3.88544
-3.87542
-3.86548
-4.24947
-4.25407
-4.25911
-4.26357
-4.26712
-4.26978
-4.2715
-4.27225
-4.27201
-4.27082
-4.26873
-4.26581
-4.26212
-4.25773
-4.25266
-4.24692
-4.24049
-4.23338
-4.22558
-4.21712
-4.20805
-4.19843
-4.18833
-4.17782
-4.16697
-4.15581
-4.1444
-4.13276
-4.12094
-4.10898
-4.09693
-4.08488
-4.0729
-4.06105
-4.0494
-4.038
-4.02689
-4.01607
-4.00554
-3.99527
-3.98524
-3.97542
-3.96578
-3.95629
-3.94685
-4.30772
-4.312
-4.31666
-4.32078
-4.32403
-4.32642
-4.32792
-4.32853
-4.32825
-4.32715
-4.32527
-4.32265
-4.31934
-4.31535
-4.31069
-4.30535
-4.29933
-4.29266
-4.28535
-4.27745
-4.26902
-4.26012
-4.25082
-4.24116
-4.23121
-4.22098
-4.21051
-4.19985
-4.18902
-4.17808
-4.16709
-4.15612
-4.14522
-4.13446
-4.12388
-4.11352
-4.10338
-4.09346
-4.08374
-4.07421
-4.06484
-4.05561
-4.0465
-4.03751
-4.02855
-4.36789
-4.37185
-4.37615
-4.37993
-4.38288
-4.38502
-4.38636
-4.38691
-4.3867
-4.38577
-4.38414
-4.38182
-4.37884
-4.37517
-4.37084
-4.36583
-4.36018
-4.35391
-4.34708
-4.33972
-4.33191
-4.32371
-4.31516
-4.30631
-4.29718
-4.28781
-4.27823
-4.26847
-4.25858
-4.24861
-4.23861
-4.22864
-4.21876
-4.209
-4.1994
-4.18996
-4.18068
-4.17155
-4.16256
-4.15369
-4.14491
-4.13622
-4.12762
-4.11911
-4.11062
-4.42989
-4.43354
-4.43748
-4.44092
-4.44359
-4.44554
-4.44679
-4.44737
-4.44728
-4.44653
-4.44512
-4.44305
-4.4403
-4.43688
-4.4328
-4.42808
-4.42276
-4.41689
-4.41053
-4.40372
-4.39653
-4.38901
-4.38118
-4.37308
-4.36474
-4.35619
-4.34744
-4.33855
-4.32956
-4.3205
-4.31144
-4.30241
-4.29346
-4.28461
-4.27588
-4.26726
-4.25874
-4.25032
-4.24197
-4.23369
-4.22545
-4.21728
-4.20916
-4.20111
-4.19309
-4.49364
-4.49698
-4.50056
-4.50368
-4.50612
-4.50794
-4.50916
-4.50978
-4.5098
-4.50918
-4.50791
-4.50598
-4.50339
-4.50015
-4.49628
-4.49184
-4.48687
-4.48142
-4.47555
-4.46931
-4.46274
-4.45588
-4.44875
-4.44138
-4.4338
-4.42602
-4.41808
-4.41002
-4.40187
-4.39368
-4.38549
-4.37734
-4.36923
-4.3612
-4.35324
-4.34534
-4.33751
-4.32971
-4.32195
-4.3142
-4.30648
-4.29879
-4.29114
-4.28355
-4.27598
-4.55902
-4.56207
-4.56531
-4.56816
-4.57041
-4.57213
-4.57331
-4.57395
-4.57399
-4.57341
-4.5722
-4.57034
-4.56786
-4.56478
-4.56115
-4.55702
-4.55242
-4.54743
-4.54208
-4.53641
-4.53046
-4.52425
-4.5178
-4.51113
-4.50426
-4.49723
-4.49006
-4.48278
-4.47543
-4.46805
-4.46067
-4.4533
-4.44596
-4.43866
-4.43139
-4.42415
-4.41692
-4.4097
-4.40247
-4.39523
-4.388
-4.38077
-4.37358
-4.36644
-4.35933
-4.62596
-4.62875
-4.63171
-4.63431
-4.63639
-4.63799
-4.63909
-4.63965
-4.63964
-4.63903
-4.63781
-4.636
-4.63364
-4.63075
-4.62739
-4.6236
-4.61943
-4.61492
-4.6101
-4.605
-4.59965
-4.59406
-4.58825
-4.58224
-4.57605
-4.56972
-4.56326
-4.55672
-4.55012
-4.54349
-4.53684
-4.53019
-4.52355
-4.51691
-4.51027
-4.50362
-4.49695
-4.49026
-4.48353
-4.47678
-4.47001
-4.46325
-4.45651
-4.44981
-4.44315
-4.69446
-4.69703
-4.69973
-4.70211
-4.704
-4.70543
-4.70637
-4.70678
-4.70665
-4.70597
-4.70474
-4.703
-4.70078
-4.69813
-4.69508
-4.69167
-4.68793
-4.6839
-4.6796
-4.67503
-4.67024
-4.66522
-4.66
-4.6546
-4.64905
-4.64336
-4.63758
-4.63172
-4.62581
-4.61986
-4.6139
-4.60791
-4.6019
-4.59587
-4.58981
-4.58371
-4.57756
-4.57137
-4.56513
-4.55884
-4.55254
-4.54622
-4.53993
-4.53368
-4.52746
-4.76452
-4.76689
-4.76937
-4.7715
-4.77317
-4.77437
-4.7751
-4.77533
-4.77506
-4.77431
-4.77309
-4.77145
-4.76942
-4.76702
-4.76429
-4.76125
-4.75792
-4.75433
-4.75049
-4.74641
-4.74211
-4.73761
-4.73292
-4.72809
-4.72312
-4.71804
-4.71288
-4.70766
-4.70239
-4.69709
-4.69174
-4.68637
-4.68095
-4.67548
-4.66996
-4.66438
-4.65874
-4.65302
-4.64725
-4.64143
-4.63558
-4.62971
-4.62387
-4.61807
-4.6123
-4.8361
-4.83831
-4.84056
-4.84244
-4.84384
-4.84479
-4.84528
-4.84532
-4.84493
-4.84414
-4.84296
-4.84144
-4.83959
-4.83744
-4.835
-4.83229
-4.82932
-4.8261
-4.82266
-4.81899
-4.81513
-4.8111
-4.80691
-4.80259
-4.79817
-4.79367
-4.7891
-4.78447
-4.7798
-4.77509
-4.77033
-4.76552
-4.76065
-4.75572
-4.75071
-4.74562
-4.74045
-4.73521
-4.72989
-4.72453
-4.71913
-4.71373
-4.70834
-4.70299
-4.69769
-4.90915
-4.91121
-4.91322
-4.91484
-4.91597
-4.91666
-4.91694
-4.91682
-4.91634
-4.91552
-4.91439
-4.91298
-4.91128
-4.90933
-4.90712
-4.90468
-4.902
-4.89909
-4.89598
-4.89269
-4.88923
-4.88562
-4.88189
-4.87807
-4.87417
-4.8702
-4.86618
-4.86212
-4.85801
-4.85385
-4.84963
-4.84535
-4.84099
-4.83655
-4.83203
-4.82741
-4.8227
-4.81791
-4.81305
-4.80815
-4.80321
-4.79827
-4.79335
-4.78847
-4.78364
-4.98361
-4.98552
-4.98731
-4.98867
-4.98956
-4.99002
-4.99011
-4.98986
-4.9893
-4.98846
-4.98736
-4.98601
-4.98443
-4.98261
-4.98058
-4.97833
-4.97587
-4.97323
-4.97042
-4.96746
-4.96436
-4.96116
-4.95788
-4.95452
-4.95111
-4.94765
-4.94415
-4.94061
-4.93701
-4.93336
-4.92964
-4.92584
-4.92196
-4.91798
-4.91391
-4.90974
-4.90548
-4.90114
-4.89674
-4.89229
-4.88783
-4.88336
-4.87892
-4.87453
-4.8702
-5.05946
-5.06124
-5.06282
-5.06397
-5.06465
-5.06493
-5.06486
-5.06449
-5.06384
-5.06295
-5.06183
-5.0605
-5.05896
-5.05723
-5.05531
-5.05321
-5.05094
-5.04853
-5.04599
-5.04334
-5.0406
-5.03779
-5.03492
-5.03201
-5.02906
-5.02607
-5.02304
-5.01997
-5.01684
-5.01364
-5.01037
-5.00701
-5.00356
-5.00002
-4.99637
-4.99263
-4.9888
-4.98491
-4.98096
-4.97698
-4.973
-4.96902
-4.96508
-4.96119
-4.95737
-5.13677
-5.13842
-5.13984
-5.14083
-5.14135
-5.14146
-5.14124
-5.14072
-5.13996
-5.13898
-5.13779
-5.13643
-5.13489
-5.13319
-5.13135
-5.12937
-5.12727
-5.12507
-5.12279
-5.12044
-5.11803
-5.11559
-5.11311
-5.1106
-5.10807
-5.1055
-5.10289
-5.10023
-5.09751
-5.09472
-5.09185
-5.08889
-5.08584
-5.08269
-5.07945
-5.07612
-5.07272
-5.06926
-5.06577
-5.06226
-5.05876
-5.05529
-5.05186
-5.04849
-5.04519
-5.21561
-5.21712
-5.21843
-5.21931
-5.21969
-5.21963
-5.21923
-5.21854
-5.21762
-5.2165
-5.21522
-5.21379
-5.21222
-5.21054
-5.20876
-5.20689
-5.20495
-5.20296
-5.20092
-5.19885
-5.19675
-5.19464
-5.19251
-5.19036
-5.18818
-5.18598
-5.18373
-5.18143
-5.17907
-5.17664
-5.17412
-5.17152
-5.16883
-5.16606
-5.1632
-5.16027
-5.15729
-5.15426
-5.15121
-5.14817
-5.14516
-5.1422
-5.13929
-5.13646
-5.13367
-5.29574
-5.29725
-5.29854
-5.29938
-5.29961
-5.29935
-5.29873
-5.29782
-5.29671
-5.29544
-5.29404
-5.29254
-5.29095
-5.2893
-5.28758
-5.28583
-5.28405
-5.28225
-5.28043
-5.27862
-5.27679
-5.27497
-5.27314
-5.27129
-5.26942
-5.26753
-5.26559
-5.2636
-5.26154
-5.25943
-5.25723
-5.25496
-5.25262
-5.2502
-5.24771
-5.24517
-5.24258
-5.23997
-5.23736
-5.23477
-5.23224
-5.22979
-5.22741
-5.22511
-5.22285
-5.37662
-5.37877
-5.38015
-5.38094
-5.38095
-5.3804
-5.37949
-5.37834
-5.37704
-5.37563
-5.37415
-5.37261
-5.37103
-5.36942
-5.3678
-5.36618
-5.36455
-5.36294
-5.36133
-5.35973
-5.35815
-5.35657
-5.35498
-5.35339
-5.35178
-5.35014
-5.34846
-5.34674
-5.34497
-5.34314
-5.34124
-5.33929
-5.33728
-5.3352
-5.33308
-5.33091
-5.3287
-5.32648
-5.32426
-5.3221
-5.32003
-5.31809
-5.31624
-5.31447
-5.31274
-5.45874
-5.46208
-5.46341
-5.46386
-5.46342
-5.46243
-5.46117
-5.45978
-5.45834
-5.45686
-5.45536
-5.45385
-5.45234
-5.45083
-5.44933
-5.44785
-5.44639
-5.44495
-5.44353
-5.44213
-5.44074
-5.43937
-5.43799
-5.43661
-5.43522
-5.43381
-5.43237
-5.43089
-5.42938
-5.42782
-5.42622
-5.42458
-5.4229
-5.42117
-5.4194
-5.41758
-5.41574
-5.41386
-5.41198
-5.41017
-5.40853
-5.40711
-5.40581
-5.40458
-5.40337
-5.54404
-5.54876
-5.54897
-5.54794
-5.54654
-5.54502
-5.54349
-5.54199
-5.54052
-5.53908
-5.53767
-5.53627
-5.53488
-5.53351
-5.53216
-5.53084
-5.52954
-5.52826
-5.52701
-5.52577
-5.52456
-5.52336
-5.52216
-5.52097
-5.51977
-5.51856
-5.51733
-5.51609
-5.51483
-5.51355
-5.51225
-5.51092
-5.50957
-5.50819
-5.50678
-5.50532
-5.50382
-5.50224
-5.50058
-5.49891
-5.49765
-5.49682
-5.49614
-5.49548
-5.49481
-5.62806
-5.64656
-5.64068
-5.63382
-5.63024
-5.62823
-5.62664
-5.62521
-5.62388
-5.62259
-5.62133
-5.62009
-5.61886
-5.61765
-5.61645
-5.61528
-5.61412
-5.61299
-5.61188
-5.61079
-5.60971
-5.60865
-5.6076
-5.60656
-5.60553
-5.60451
-5.60349
-5.60247
-5.60146
-5.60045
-5.59944
-5.59844
-5.59743
-5.59641
-5.59537
-5.59428
-5.5931
-5.59171
-5.58982
-5.58745
-5.58652
-5.58664
-5.58689
-5.58699
-5.58696
-5.67743
-5.76691
-5.73999
-5.72161
-5.71518
-5.71226
-5.71026
-5.7087
-5.70737
-5.70616
-5.70502
-5.70392
-5.70285
-5.70181
-5.70078
-5.69977
-5.69878
-5.69781
-5.69686
-5.69593
-5.69502
-5.69413
-5.69326
-5.69241
-5.69159
-5.69079
-5.69001
-5.68927
-5.68855
-5.68786
-5.6872
-5.68656
-5.68593
-5.6853
-5.68462
-5.68384
-5.68283
-5.6813
-5.67845
-5.67361
-5.67272
-5.67584
-5.67796
-5.67917
-5.67997
)
;

boundaryField
{
    leftWall
    {
        type            calculated;
        value           nonuniform List<scalar> 
42
(
-3.3334
-3.38201
-3.43469
-3.48886
-3.5401
-3.58676
-3.62568
-3.66015
-3.69264
-3.72467
-3.7572
-3.79091
-3.82636
-3.86392
-3.90379
-3.94605
-3.99072
-4.03778
-4.08724
-4.13909
-4.19322
-4.24947
-4.30772
-4.36789
-4.42989
-4.49364
-4.55902
-4.62596
-4.69446
-4.76452
-4.8361
-4.90915
-4.98361
-5.05946
-5.13677
-5.21561
-5.29574
-5.37662
-5.45874
-5.54404
-5.62806
-5.67743
)
;
    }
    rightWall
    {
        type            calculated;
        value           nonuniform 0();
    }
    lowerWall
    {
        type            calculated;
        value           nonuniform 0();
    }
    atmosphere
    {
        type            calculated;
        value           nonuniform List<scalar> 
45
(
-5.73793
-5.76248
-5.75906
-5.75622
-5.75406
-5.75227
-5.75073
-5.74936
-5.74812
-5.74698
-5.74591
-5.74489
-5.74391
-5.74296
-5.74204
-5.74115
-5.74027
-5.73942
-5.73858
-5.73776
-5.73697
-5.7362
-5.73546
-5.73475
-5.73408
-5.73344
-5.73284
-5.73229
-5.73177
-5.7313
-5.73087
-5.73049
-5.73015
-5.72986
-5.72961
-5.72941
-5.72926
-5.72914
-5.72907
-5.72905
-5.72904
-5.72904
-5.72904
-5.72904
-5.72904
)
;
    }
    defaultFaces
    {
        type            empty;
    }
    procBoundary2to0
    {
        type            processor;
        value           nonuniform List<scalar> 
46
(
10.5056
12.5679
10.4775
-0.709817
-2.46443
-2.92073
-2.82355
-2.76891
-2.71746
-2.65823
-2.59515
-2.53209
-2.4712
-2.41373
-2.3603
-2.31115
-2.26626
-2.22552
-2.18872
-2.15564
-2.12601
-2.09955
-2.07595
-2.05486
-2.03587
-3.28944
-3.22716
-3.28604
-3.37894
-3.54865
-2.5347
-0.895802
1.08287
2.47891
2.50125
2.22293
2.07727
2.13256
2.42283
2.93455
3.60704
4.37078
5.16174
5.89504
6.46757
6.46757
)
;
    }
    procBoundary2to3
    {
        type            processor;
        value           nonuniform List<scalar> 
43
(
-2.10857
-2.19748
-2.28542
-2.37249
-2.4587
-2.54408
-2.6287
-2.71261
-2.7959
-2.87865
-2.96094
-3.04286
-3.12447
-3.20584
-3.28705
-3.36814
-3.44918
-3.53022
-3.61132
-3.69252
-3.7739
-3.85549
-3.93736
-4.01954
-4.10208
-4.18501
-4.26837
-4.35217
-4.43645
-4.52123
-4.60654
-4.6924
-4.77884
-4.86588
-4.95356
-5.04189
-5.13089
-5.22058
-5.31099
-5.40214
-5.4941
-5.58683
-5.68054
)
;
    }
}


// ************************************************************************* //
