/*--------------------------------*- C++ -*----------------------------------*\
| =========                 |                                                 |
| \\      /  F ield         | OpenFOAM: The Open Source CFD Toolbox           |
|  \\    /   O peration     | Version:  5.0                                   |
|   \\  /    A nd           | Web:      www.OpenFOAM.org                      |
|    \\/     M anipulation  |                                                 |
\*---------------------------------------------------------------------------*/
FoamFile
{
    version     2.0;
    format      ascii;
    class       volScalarField;
    location    "0.15";
    object      p_rgh;
}
// * * * * * * * * * * * * * * * * * * * * * * * * * * * * * * * * * * * * * //

dimensions      [1 -1 -2 0 0 0 0];

internalField   nonuniform List<scalar> 
1915
(
1025.37
1069.73
1512.71
294.703
-0.628346
-0.633553
-0.608415
-0.562682
-0.501301
-0.432916
-0.363149
-0.295108
-0.230553
-0.170397
-0.114984
-0.064323
-0.0182563
0.0234481
0.0610623
0.0948761
0.125186
0.152297
0.17653
0.198236
0.21783
-0.923795
-0.88621
-0.925892
-0.944766
-0.963245
-1.05676
-1.30566
-1.4023
-1.39033
16.4826
57.2389
86.5128
100.484
99.3341
86.6293
66.046
41.7608
16.7607
-1.34567
-1.38067
-1.3966
-1.38105
73.2508
37.0149
-1.05595
-0.765883
-0.700946
-0.637797
-0.559987
-0.480207
-0.403304
-0.330738
-0.26325
-0.201165
-0.144457
-0.0928977
-0.0461749
-0.00395003
0.0341185
0.0683644
0.0991131
0.126688
0.151416
0.173639
0.193748
-0.906466
-0.888617
-0.906114
-0.927759
-0.953092
-0.987266
-1.03988
-1.07024
-1.08485
-1.12305
-1.19972
-1.26184
-1.28799
-1.29004
-1.27647
-1.25005
-1.21544
-1.19207
-1.21073
-1.26059
-1.3208
-1.40076
-1.40726
-1.23257
-1.11728
-0.917597
-0.795064
-0.696443
-0.602908
-0.514813
-0.43311
-0.357818
-0.288831
-0.225944
-0.168822
-0.117066
-0.0702556
-0.0279781
0.0101587
0.0445199
0.0754476
0.10327
0.128309
0.150894
0.171379
-0.892608
-0.890532
-0.896182
-0.911823
-0.937444
-0.970769
-1.00763
-1.03609
-1.05299
-1.06015
-1.07019
-1.08528
-1.09878
-1.1097
-1.11865
-1.1265
-1.13522
-1.14969
-1.1747
-1.20482
-1.23898
-1.28129
-1.30314
-1.25289
-1.10198
-0.942972
-0.821818
-0.717495
-0.621403
-0.532355
-0.450353
-0.375226
-0.306697
-0.244397
-0.187891
-0.136719
-0.0904238
-0.0485679
-0.0107448
0.0234151
0.0542511
0.0820831
0.107219
0.129968
0.150654
-0.879616
-0.887554
-0.889229
-0.898008
-0.915275
-0.939972
-0.968296
-0.993294
-1.0125
-1.027
-1.04074
-1.05473
-1.06687
-1.0765
-1.08398
-1.09029
-1.09706
-1.10644
-1.11954
-1.13399
-1.14748
-1.15672
-1.15071
-1.1087
-1.01207
-0.903687
-0.803748
-0.708945
-0.618946
-0.534331
-0.455718
-0.383322
-0.317062
-0.256667
-0.201763
-0.151928
-0.106729
-0.0657525
-0.0286139
0.00503339
0.035508
0.0631097
0.0881253
0.11084
0.131551
-0.863074
-0.87567
-0.877194
-0.882704
-0.893377
-0.909158
-0.927991
-0.946581
-0.963248
-0.978184
-0.992158
-1.00483
-1.01535
-1.02344
-1.02947
-1.03418
-1.03859
-1.04378
-1.05004
-1.05591
-1.05867
-1.05468
-1.03703
-0.996508
-0.92967
-0.849416
-0.766201
-0.683528
-0.602375
-0.524629
-0.451474
-0.383474
-0.32079
-0.263324
-0.210825
-0.162957
-0.119358
-0.079668
-0.0435551
-0.0107129
0.0191439
0.0462863
0.0709752
0.0934705
0.11404
-0.841312
-0.851645
-0.856806
-0.8621
-0.869619
-0.880049
-0.892638
-0.905912
-0.918778
-0.930818
-0.941928
-0.95176
-0.959864
-0.966087
-0.970657
-0.974042
-0.976765
-0.979164
-0.981004
-0.981089
-0.977394
-0.966959
-0.945498
-0.908642
-0.855521
-0.791133
-0.721182
-0.649032
-0.576934
-0.506835
-0.440052
-0.377335
-0.319023
-0.265168
-0.215644
-0.170216
-0.128611
-0.0905453
-0.0557501
-0.0239703
0.00503817
0.0315126
0.0556845
0.0777874
0.0980623
-0.811189
-0.821117
-0.828848
-0.835211
-0.841877
-0.849855
-0.859085
-0.868895
-0.878574
-0.887685
-0.895966
-0.903108
-0.908806
-0.912958
-0.915699
-0.917285
-0.917906
-0.917525
-0.915683
-0.911349
-0.902978
-0.888533
-0.865481
-0.831519
-0.786263
-0.732136
-0.672418
-0.609738
-0.546263
-0.483788
-0.4236
-0.366509
-0.31295
-0.263081
-0.216875
-0.174199
-0.134869
-0.0986821
-0.0654364
-0.0349311
-0.00696636
0.0186585
0.0421444
0.0636991
0.0835396
-0.77596
-0.785995
-0.795291
-0.802886
-0.809748
-0.81685
-0.824369
-0.832018
-0.839381
-0.846158
-0.852107
-0.856945
-0.860418
-0.862465
-0.863202
-0.86278
-0.861192
-0.858187
-0.853248
-0.845519
-0.833852
-0.81688
-0.793117
-0.761369
-0.721484
-0.674767
-0.623198
-0.568691
-0.513021
-0.457712
-0.40392
-0.352426
-0.303689
-0.257928
-0.215193
-0.175436
-0.138553
-0.104417
-0.072888
-0.0438189
-0.0170536
0.0075719
0.0302285
0.0511
0.070384
-0.73812
-0.748074
-0.758188
-0.76672
-0.774042
-0.780916
-0.787537
-0.793777
-0.799452
-0.804394
-0.808396
-0.811227
-0.812714
-0.812841
-0.811717
-0.809412
-0.805806
-0.800553
-0.793141
-0.782889
-0.768989
-0.750573
-0.726793
-0.697046
-0.661315
-0.620356
-0.575408
-0.527867
-0.47908
-0.430281
-0.38245
-0.336283
-0.292221
-0.250507
-0.211246
-0.174454
-0.140094
-0.108103
-0.0783962
-0.0508742
-0.0254227
-0.00191265
0.0197988
0.0398756
0.0585026
-0.699155
-0.708856
-0.719258
-0.728367
-0.736063
-0.742867
-0.748921
-0.754187
-0.758611
-0.762089
-0.764457
-0.765569
-0.765366
-0.763879
-0.761191
-0.757281
-0.75194
-0.74481
-0.735454
-0.723387
-0.708094
-0.689062
-0.665822
-0.638068
-0.605829
-0.569584
-0.530151
-0.48852
-0.445719
-0.402709
-0.360285
-0.319037
-0.279365
-0.241516
-0.205623
-0.17175
-0.13991
-0.11009
-0.0822528
-0.056341
-0.0322778
-0.00996582
0.0107132
0.0299081
0.0477993
-0.660031
-0.669362
-0.679746
-0.689091
-0.696927
-0.703591
-0.709193
-0.713749
-0.717224
-0.719527
-0.720556
-0.720275
-0.718723
-0.715959
-0.712007
-0.70676
-0.69997
-0.691329
-0.680529
-0.667279
-0.651289
-0.632275
-0.609971
-0.584213
-0.555043
-0.522781
-0.487996
-0.451401
-0.413768
-0.375831
-0.33822
-0.301421
-0.265783
-0.231539
-0.198837
-0.167768
-0.138383
-0.110705
-0.0847364
-0.0604561
-0.0378198
-0.0167569
0.00283067
0.0210821
0.0381799
-0.621432
-0.630343
-0.640509
-0.649763
-0.657458
-0.663832
-0.668995
-0.672959
-0.675672
-0.677041
-0.677038
-0.67572
-0.67318
-0.669466
-0.664527
-0.658205
-0.650278
-0.640529
-0.62879
-0.614925
-0.598798
-0.580252
-0.559128
-0.53533
-0.508898
-0.480061
-0.449227
-0.416923
-0.383723
-0.350187
-0.316805
-0.283972
-0.251982
-0.221047
-0.191314
-0.162889
-0.135847
-0.110241
-0.0861029
-0.063442
-0.0422405
-0.0224488
-0.00398394
0.0132881
0.0295572
-0.583895
-0.592363
-0.60212
-0.611013
-0.618338
-0.624296
-0.628991
-0.632403
-0.634456
-0.635098
-0.634366
-0.632364
-0.62918
-0.624805
-0.619133
-0.612003
-0.603265
-0.59281
-0.580591
-0.566581
-0.550731
-0.53295
-0.513134
-0.491218
-0.467236
-0.441362
-0.4139
-0.385246
-0.355834
-0.326091
-0.296396
-0.267065
-0.23834
-0.210403
-0.183395
-0.157427
-0.132588
-0.108954
-0.0865807
-0.0655018
-0.0457183
-0.0271949
-0.00985784
0.00642492
0.0218523
-0.547785
-0.555785
-0.564984
-0.573346
-0.580188
-0.585677
-0.589885
-0.592771
-0.594269
-0.594385
-0.593194
-0.590795
-0.587216
-0.582386
-0.576176
-0.568475
-0.559223
-0.548418
-0.536102
-0.52231
-0.507031
-0.4902
-0.471735
-0.451589
-0.429791
-0.406481
-0.381896
-0.356347
-0.330169
-0.303689
-0.2772
-0.250944
-0.225118
-0.199874
-0.175339
-0.151626
-0.128835
-0.107058
-0.0863693
-0.0668178
-0.0484159
-0.0311356
-0.0149079
0.000399606
0.0149944
-0.513304
-0.52081
-0.529393
-0.537183
-0.543531
-0.548561
-0.552307
-0.554726
-0.5558
-0.555574
-0.554118
-0.55148
-0.547619
-0.542431
-0.535818
-0.527745
-0.518247
-0.507406
-0.495312
-0.482016
-0.467507
-0.451722
-0.434589
-0.41607
-0.396202
-0.375106
-0.352984
-0.330088
-0.306682
-0.283017
-0.259311
-0.235749
-0.212482
-0.189637
-0.167329
-0.14567
-0.12477
-0.104732
-0.08564
-0.0675498
-0.0504775
-0.0343964
-0.0192387
-0.00487137
0.00891846
-0.480533
-0.487544
-0.495549
-0.50281
-0.508697
-0.513293
-0.51662
-0.51866
-0.519437
-0.518993
-0.51736
-0.514518
-0.510391
-0.504899
-0.498013
-0.48978
-0.480307
-0.469717
-0.458105
-0.445501
-0.431871
-0.417149
-0.401271
-0.384221
-0.366047
-0.346872
-0.326877
-0.306269
-0.285258
-0.264031
-0.242746
-0.221536
-0.200518
-0.179799
-0.159487
-0.139695
-0.120538
-0.102123
-0.0845379
-0.0678351
-0.0520275
-0.0370854
-0.0229405
-0.00946173
0.00356386
-0.449462
-0.456023
-0.463509
-0.470282
-0.475728
-0.479914
-0.482871
-0.484617
-0.485183
-0.484575
-0.482772
-0.479715
-0.475347
-0.469652
-0.462677
-0.45453
-0.445349
-0.435252
-0.424299
-0.412484
-0.399752
-0.386042
-0.371311
-0.355571
-0.338895
-0.321411
-0.30328
-0.284673
-0.265748
-0.246639
-0.227457
-0.208296
-0.189249
-0.170411
-0.151889
-0.133797
-0.116249
-0.0993512
-0.0831822
-0.0677865
-0.0531679
-0.0392913
-0.0260886
-0.013435
-0.00112527
-0.42008
-0.426236
-0.43322
-0.4395
-0.444505
-0.448304
-0.450952
-0.452473
-0.452867
-0.452102
-0.450122
-0.446881
-0.442371
-0.436645
-0.429806
-0.421986
-0.413307
-0.403849
-0.393625
-0.382599
-0.370715
-0.35793
-0.344238
-0.329683
-0.314359
-0.298392
-0.281921
-0.265079
-0.247977
-0.230709
-0.21335
-0.195972
-0.178654
-0.161489
-0.144583
-0.128047
-0.111992
-0.09651
-0.0816666
-0.0674913
-0.0539765
-0.041082
-0.0287425
-0.0168448
-0.00519924
-0.392395
-0.398155
-0.404615
-0.410382
-0.414958
-0.418418
-0.420816
-0.422149
-0.422379
-0.421453
-0.419324
-0.415986
-0.411489
-0.405929
-0.399427
-0.3921
-0.38403
-0.375244
-0.365724
-0.355427
-0.344314
-0.332377
-0.319645
-0.306188
-0.29211
-0.277526
-0.262546
-0.247263
-0.231753
-0.216081
-0.200303
-0.184482
-0.168695
-0.153033
-0.1376
-0.122501
-0.107833
-0.0936698
-0.0800577
-0.0670094
-0.0545062
-0.0425056
-0.0309482
-0.0197368
-0.00870426
-0.366377
-0.371732
-0.37767
-0.382943
-0.387128
-0.390302
-0.392484
-0.393631
-0.393688
-0.392613
-0.390398
-0.387085
-0.382756
-0.377518
-0.371477
-0.364709
-0.357249
-0.349091
-0.340206
-0.330566
-0.320165
-0.309025
-0.297205
-0.284788
-0.271871
-0.258549
-0.244901
-0.23099
-0.216867
-0.202582
-0.188187
-0.173744
-0.159331
-0.145039
-0.130964
-0.117198
-0.103817
-0.0908743
-0.0783942
-0.0663737
-0.0547866
-0.0435917
-0.0327391
-0.0221506
-0.0116846
-0.341917
-0.346878
-0.352334
-0.357173
-0.361024
-0.36394
-0.365901
-0.366846
-0.366733
-0.365554
-0.363347
-0.360179
-0.356138
-0.351312
-0.345769
-0.339543
-0.332637
-0.325034
-0.316717
-0.307684
-0.297959
-0.287589
-0.276647
-0.265216
-0.253375
-0.241195
-0.228729
-0.216022
-0.203115
-0.190051
-0.176887
-0.163689
-0.150534
-0.137507
-0.124692
-0.11216
-0.0999663
-0.0881398
-0.0766868
-0.0655926
-0.0548275
-0.0443558
-0.0341394
-0.0241201
-0.0141826
-0.318851
-0.323455
-0.328492
-0.332959
-0.336508
-0.339163
-0.340887
-0.341636
-0.341397
-0.340202
-0.338111
-0.33519
-0.331507
-0.327115
-0.322044
-0.3163
-0.309875
-0.302761
-0.294964
-0.286508
-0.277438
-0.267816
-0.257715
-0.247206
-0.23635
-0.225196
-0.213781
-0.202143
-0.19032
-0.178359
-0.166319
-0.154268
-0.142281
-0.130431
-0.118782
-0.107386
-0.0962736
-0.085455
-0.0749226
-0.0646551
-0.0546245
-0.0448032
-0.0351663
-0.0256748
-0.0162375
-0.297049
-0.301325
-0.305989
-0.310112
-0.313364
-0.31575
-0.317251
-0.317855
-0.317583
-0.31648
-0.314598
-0.311982
-0.308668
-0.304678
-0.300015
-0.294677
-0.288664
-0.28199
-0.274681
-0.266782
-0.25835
-0.24945
-0.240146
-0.230493
-0.220536
-0.210308
-0.199844
-0.189178
-0.17835
-0.167411
-0.156421
-0.145445
-0.134549
-0.123789
-0.113212
-0.102847
-0.0927065
-0.0827864
-0.0730713
-0.0635389
-0.054166
-0.044935
-0.0358338
-0.0268406
-0.0178848
-0.27642
-0.280382
-0.284684
-0.288465
-0.291416
-0.293555
-0.294892
-0.295443
-0.295236
-0.294304
-0.292672
-0.290357
-0.287368
-0.283706
-0.27937
-0.274366
-0.268714
-0.262446
-0.255608
-0.248255
-0.240447
-0.232243
-0.223694
-0.214839
-0.205713
-0.196343
-0.186762
-0.177004
-0.167114
-0.157141
-0.147143
-0.137177
-0.127294
-0.117537
-0.107931
-0.0984896
-0.089212
-0.0800865
-0.0710951
-0.0622182
-0.0534398
-0.0447525
-0.0361554
-0.027641
-0.0191549
-0.256879
-0.260529
-0.264466
-0.267905
-0.270578
-0.272525
-0.273778
-0.274354
-0.274266
-0.273518
-0.272108
-0.270031
-0.267282
-0.263862
-0.25978
-0.255063
-0.249746
-0.243878
-0.237513
-0.230708
-0.223518
-0.215991
-0.208164
-0.200067
-0.191727
-0.18317
-0.174428
-0.165537
-0.156541
-0.147486
-0.138423
-0.129398
-0.120448
-0.111598
-0.102862
-0.0942412
-0.0857265
-0.0773039
-0.068957
-0.0606711
-0.0524383
-0.0442605
-0.0361458
-0.0280973
-0.0200735
-0.23832
-0.241662
-0.245238
-0.248359
-0.250801
-0.252617
-0.253839
-0.254464
-0.254477
-0.253858
-0.25259
-0.25066
-0.248068
-0.244826
-0.240965
-0.236523
-0.231552
-0.226103
-0.220231
-0.213988
-0.207418
-0.200556
-0.193429
-0.186061
-0.178475
-0.170698
-0.16276
-0.154698
-0.146552
-0.138364
-0.130174
-0.122015
-0.113912
-0.105879
-0.0979172
-0.0900235
-0.0821861
-0.0743912
-0.0666261
-0.0588824
-0.0511597
-0.0434674
-0.0358202
-0.0282289
-0.0206622
-0.22063
-0.223678
-0.226924
-0.229768
-0.232022
-0.233738
-0.234926
-0.235559
-0.235601
-0.235023
-0.233808
-0.231953
-0.229472
-0.226394
-0.222763
-0.218627
-0.214036
-0.209041
-0.20369
-0.198022
-0.192071
-0.185859
-0.179408
-0.172739
-0.165874
-0.158841
-0.151668
-0.144391
-0.137045
-0.129664
-0.122279
-0.114912
-0.107574
-0.100272
-0.0930042
-0.0857617
-0.0785339
-0.0713093
-0.0640799
-0.0568437
-0.0496064
-0.0423835
-0.0351934
-0.0280526
-0.0209384
-0.203736
-0.206523
-0.20948
-0.21208
-0.214164
-0.215762
-0.216863
-0.217425
-0.21741
-0.216796
-0.21558
-0.213774
-0.211408
-0.208522
-0.205162
-0.201374
-0.197204
-0.192691
-0.187872
-0.182774
-0.177421
-0.171829
-0.166018
-0.160009
-0.153824
-0.14749
-0.141036
-0.134494
-0.127893
-0.121259
-0.114611
-0.107963
-0.10132
-0.0946809
-0.0880409
-0.0813915
-0.074723
-0.0680277
-0.0613022
-0.05455
-0.0477822
-0.0410178
-0.0342778
-0.0275828
-0.0209179
-0.187617
-0.190181
-0.192886
-0.195258
-0.197151
-0.19858
-0.19952
-0.199937
-0.199805
-0.199119
-0.197893
-0.196153
-0.193936
-0.191283
-0.188233
-0.184823
-0.181087
-0.177054
-0.172748
-0.168188
-0.163389
-0.158371
-0.153151
-0.147752
-0.142198
-0.136516
-0.130732
-0.124874
-0.118963
-0.113018
-0.107048
-0.101059
-0.0950518
-0.0890214
-0.0829608
-0.0768617
-0.0707167
-0.0645222
-0.0582795
-0.0519967
-0.0456886
-0.0393767
-0.0330834
-0.0268323
-0.0206161
-0.172267
-0.174643
-0.177117
-0.179252
-0.180916
-0.182118
-0.182844
-0.183074
-0.182807
-0.182054
-0.18084
-0.179199
-0.177164
-0.174767
-0.172036
-0.168997
-0.165672
-0.162081
-0.158237
-0.154157
-0.149856
-0.145354
-0.140673
-0.135835
-0.130866
-0.125791
-0.120633
-0.115412
-0.110143
-0.104835
-0.0994921
-0.0941139
-0.0886961
-0.0832319
-0.0777132
-0.0721323
-0.0664851
-0.0607718
-0.0549984
-0.0491765
-0.0433237
-0.0374632
-0.0316176
-0.0258135
-0.02005
-0.15765
-0.159862
-0.162109
-0.163991
-0.165393
-0.166337
-0.166829
-0.166873
-0.166485
-0.165689
-0.164515
-0.162991
-0.161142
-0.158989
-0.156548
-0.153837
-0.150869
-0.147655
-0.144209
-0.140546
-0.136686
-0.132651
-0.128462
-0.124146
-0.119724
-0.115219
-0.110648
-0.106024
-0.101354
-0.0966401
-0.0918807
-0.0870708
-0.0822032
-0.0772692
-0.0722609
-0.0671725
-0.0620032
-0.0567573
-0.0514448
-0.0460804
-0.0406834
-0.0352781
-0.029887
-0.0245388
-0.0192374
-0.143702
-0.14576
-0.147776
-0.149395
-0.150527
-0.151217
-0.151492
-0.151375
-0.150892
-0.150074
-0.148947
-0.14753
-0.145838
-0.143884
-0.141678
-0.13923
-0.136549
-0.133647
-0.130539
-0.127243
-0.12378
-0.120174
-0.116448
-0.112623
-0.10872
-0.104754
-0.100736
-0.0966714
-0.0925601
-0.0883989
-0.0841813
-0.0798994
-0.0755439
-0.071106
-0.0665791
-0.0619603
-0.0572526
-0.052464
-0.0476079
-0.0427014
-0.0377653
-0.0328241
-0.0278997
-0.0230214
-0.0181961
-0.130358
-0.132267
-0.134054
-0.135422
-0.136307
-0.136773
-0.136863
-0.136612
-0.136052
-0.135211
-0.134109
-0.13276
-0.131174
-0.12936
-0.127324
-0.125074
-0.122621
-0.119979
-0.117166
-0.114204
-0.111112
-0.107913
-0.104627
-0.101271
-0.0978595
-0.0944014
-0.0909001
-0.0873541
-0.0837582
-0.0801049
-0.0763849
-0.0725883
-0.0687058
-0.0647297
-0.0606562
-0.0564861
-0.0522258
-0.047887
-0.0434855
-0.0390407
-0.0345739
-0.0301093
-0.0256676
-0.0212767
-0.0169436
-0.117591
-0.119365
-0.120948
-0.122101
-0.122781
-0.12306
-0.122991
-0.122617
-0.121971
-0.12108
-0.119962
-0.11863
-0.117092
-0.115358
-0.113435
-0.111334
-0.109069
-0.106656
-0.104116
-0.101468
-0.0987293
-0.0959189
-0.0930513
-0.090138
-0.087186
-0.0841971
-0.0811684
-0.0780934
-0.0749634
-0.0717683
-0.0684976
-0.0651415
-0.0616921
-0.0581444
-0.0544981
-0.0507576
-0.0469327
-0.0430377
-0.0390906
-0.0351122
-0.0311245
-0.0271505
-0.0232084
-0.0193225
-0.0154967
-0.105457
-0.107107
-0.108527
-0.109516
-0.110031
-0.110145
-0.109921
-0.109408
-0.108645
-0.107661
-0.106479
-0.105113
-0.103576
-0.101878
-0.100032
-0.098052
-0.0959536
-0.0937548
-0.0914725
-0.0891228
-0.0867195
-0.0842742
-0.0817957
-0.0792883
-0.0767522
-0.0741834
-0.0715744
-0.0689157
-0.066197
-0.0634074
-0.0605369
-0.0575776
-0.054524
-0.0513747
-0.0481325
-0.0448052
-0.0414049
-0.0379479
-0.0344542
-0.0309455
-0.0274448
-0.0239733
-0.0205451
-0.0171787
-0.0138715
-0.0940205
-0.0955326
-0.0968422
-0.0977227
-0.0980974
-0.0980428
-0.0976393
-0.0969514
-0.09603
-0.0949132
-0.0936287
-0.0921967
-0.090633
-0.0889522
-0.0871695
-0.0853005
-0.0833611
-0.0813659
-0.0793276
-0.077257
-0.0751621
-0.0730484
-0.0709176
-0.0687681
-0.0665946
-0.0643893
-0.0621424
-0.0598435
-0.0574818
-0.0550477
-0.0525331
-0.0499326
-0.047244
-0.0444688
-0.0416122
-0.0386839
-0.0356973
-0.0326703
-0.0296242
-0.0265833
-0.023572
-0.0206096
-0.0177043
-0.014866
-0.0120834
-0.0830366
-0.084549
-0.0858412
-0.0866765
-0.086911
-0.0866521
-0.0860239
-0.0851205
-0.0840098
-0.0827395
-0.0813421
-0.0798404
-0.0782526
-0.0765948
-0.074882
-0.0731283
-0.0713458
-0.0695445
-0.0677323
-0.0659142
-0.0640929
-0.062268
-0.0604358
-0.0585902
-0.056723
-0.0548247
-0.0528852
-0.0508945
-0.0488432
-0.0467237
-0.0445305
-0.0422611
-0.0399156
-0.0374971
-0.0350118
-0.0324693
-0.0298831
-0.0272713
-0.0246572
-0.0220705
-0.0195419
-0.0170891
-0.0147106
-0.0124038
-0.0101469
-0.0719609
-0.0741062
-0.0754899
-0.0762769
-0.0762956
-0.075744
-0.0748278
-0.0736791
-0.0723769
-0.0709695
-0.0694866
-0.0679481
-0.0663696
-0.0647643
-0.0631438
-0.0615177
-0.0598933
-0.0582761
-0.0566695
-0.0550742
-0.0534883
-0.0519075
-0.0503248
-0.0487322
-0.0471209
-0.0454816
-0.0438053
-0.0420836
-0.0403094
-0.0384774
-0.0365848
-0.0346307
-0.0326162
-0.0305441
-0.0284191
-0.0262487
-0.0240437
-0.0218205
-0.0196047
-0.0174384
-0.0153733
-0.0134292
-0.0115819
-0.00980939
-0.00807761
-0.0612675
-0.0646103
-0.0659349
-0.0663903
-0.0659516
-0.0649584
-0.063697
-0.0623122
-0.0608663
-0.0593869
-0.0578879
-0.0563785
-0.0548666
-0.053359
-0.051862
-0.0503803
-0.0489177
-0.0474763
-0.0460566
-0.0446565
-0.0432719
-0.0418964
-0.040523
-0.0391438
-0.0377513
-0.0363378
-0.0348965
-0.0334211
-0.031907
-0.0303512
-0.0287524
-0.02711
-0.0254243
-0.0236955
-0.0219245
-0.020113
-0.0182654
-0.0163907
-0.0145129
-0.0126973
-0.0110608
-0.00963735
-0.00833807
-0.00710816
-0.00590313
-0.0528989
-0.0576165
-0.0578237
-0.0567974
-0.0553952
-0.0538781
-0.0523451
-0.0508424
-0.0493771
-0.04794
-0.0465223
-0.0451204
-0.0437345
-0.0423664
-0.0410183
-0.0396924
-0.0383907
-0.0371139
-0.0358611
-0.0346297
-0.0334153
-0.0322127
-0.0310164
-0.0298209
-0.028621
-0.0274118
-0.0261886
-0.0249482
-0.0236881
-0.0224069
-0.0211038
-0.0197777
-0.0184266
-0.0170467
-0.0156327
-0.0141777
-0.012673
-0.0110984
-0.00943098
-0.0077669
-0.00650572
-0.00567499
-0.0049905
-0.00433496
-0.00366732
-0.0423705
-0.0608744
-0.05499
-0.0481307
-0.0445548
-0.0425407
-0.0409557
-0.0395268
-0.0381891
-0.0369019
-0.035641
-0.0343976
-0.0331696
-0.0319578
-0.0307637
-0.029589
-0.0284351
-0.0273026
-0.0261911
-0.025099
-0.0240239
-0.0229634
-0.0219152
-0.0208769
-0.0198465
-0.0188221
-0.0178022
-0.016786
-0.015773
-0.0147633
-0.0137562
-0.0127502
-0.0117413
-0.0107218
-0.00967804
-0.00858923
-0.00741458
-0.00602545
-0.00413155
-0.00175867
-0.000827987
-0.000948619
-0.00120339
-0.00129732
-0.00126751
0.00368246
-0.0858055
-0.0588788
-0.0405023
-0.0340667
-0.0311469
-0.0291558
-0.0275885
-0.0262583
-0.0250525
-0.0239132
-0.0228146
-0.0217447
-0.020698
-0.0196716
-0.0186642
-0.0176756
-0.0167056
-0.0157544
-0.0148223
-0.0139098
-0.0130179
-0.0121475
-0.0113
-0.0104765
-0.00967806
-0.00890591
-0.00816104
-0.00744415
-0.00675513
-0.00609237
-0.00545148
-0.00482297
-0.0041879
-0.0035103
-0.00272656
-0.00171931
-0.000189454
0.00265786
0.00749617
0.00838443
0.00527245
0.00314971
0.00194312
0.0011419
)
;

boundaryField
{
    leftWall
    {
        type            fixedFluxPressure;
        gradient        uniform 0;
        value           nonuniform List<scalar> 
42
(
-0.923795
-0.906466
-0.892608
-0.879616
-0.863074
-0.841312
-0.811189
-0.77596
-0.73812
-0.699155
-0.660031
-0.621432
-0.583895
-0.547785
-0.513304
-0.480533
-0.449462
-0.42008
-0.392395
-0.366377
-0.341917
-0.318851
-0.297049
-0.27642
-0.256879
-0.23832
-0.22063
-0.203736
-0.187617
-0.172267
-0.15765
-0.143702
-0.130358
-0.117591
-0.105457
-0.0940205
-0.0830366
-0.0719609
-0.0612675
-0.0528989
-0.0423705
0.00368246
)
;
    }
    rightWall
    {
        type            fixedFluxPressure;
        gradient        nonuniform 0();
        value           nonuniform 0();
    }
    lowerWall
    {
        type            fixedFluxPressure;
        gradient        nonuniform 0();
        value           nonuniform 0();
    }
    atmosphere
    {
        type            totalPressure;
        rho             rho;
        psi             none;
        gamma           1;
        p0              uniform 0;
        value           nonuniform List<scalar> 
45
(
-0.00888882
-0.0334445
-0.0300241
-0.0271794
-0.0250197
-0.0232311
-0.0216898
-0.0203238
-0.0190849
-0.0179398
-0.0168655
-0.0158453
-0.0148672
-0.0139223
-0.0130041
-0.0121086
-0.0112331
-0.0103768
-0.00953998
-0.00872396
-0.0079308
-0.00716302
-0.00642345
-0.00571498
-0.00504046
-0.00440251
-0.00380349
-0.00324543
-0.00272993
-0.00225824
-0.00183118
-0.00144923
-0.00111251
-0.00082091
-0.00057421
-0.000372234
-0.000215027
-0.000102705
-3.44249e-05
-5.21517e-06
0
0
0
0
0
)
;
    }
    defaultFaces
    {
        type            empty;
    }
    procBoundary2to0
    {
        type            processor;
        value           nonuniform List<scalar> 
46
(
2235.68
2246.05
2285.06
673.753
-0.150637
-0.641414
-0.543987
-0.489348
-0.437905
-0.37867
-0.315587
-0.252528
-0.191643
-0.134169
-0.08074
-0.0315867
0.0132963
0.0540402
0.0908385
0.123921
0.153547
0.180006
0.203607
0.224699
0.243685
-0.945155
-0.882874
-0.94176
-1.03466
-1.20437
152.833
424.04
746.662
1055.95
1292.23
1434.11
1520.44
1556.99
1554.74
1522.54
1465.3
1390.18
1305.96
1215.31
1116.96
1116.96
)
;
    }
    procBoundary2to3
    {
        type            processor;
        value           nonuniform List<scalar> 
43
(
0.235714
0.212127
0.190116
0.169597
0.150548
0.132947
0.116747
0.101885
0.0882875
0.0758753
0.0645729
0.0543087
0.0450147
0.0366268
0.0290863
0.0223402
0.0163393
0.0110356
0.00638004
0.00232234
-0.00118685
-0.00419444
-0.00674366
-0.00887292
-0.0106154
-0.0119992
-0.0130482
-0.0137827
-0.0142214
-0.0143824
-0.0142842
-0.0139464
-0.0133892
-0.0126312
-0.011689
-0.010576
-0.00930347
-0.00788289
-0.00632944
-0.00467062
-0.00295236
-0.00113872
0.000573221
)
;
    }
}


// ************************************************************************* //
