/*--------------------------------*- C++ -*----------------------------------*\
| =========                 |                                                 |
| \\      /  F ield         | OpenFOAM: The Open Source CFD Toolbox           |
|  \\    /   O peration     | Version:  5.0                                   |
|   \\  /    A nd           | Web:      www.OpenFOAM.org                      |
|    \\/     M anipulation  |                                                 |
\*---------------------------------------------------------------------------*/
FoamFile
{
    version     2.0;
    format      ascii;
    class       volVectorField;
    location    "0.15";
    object      U;
}
// * * * * * * * * * * * * * * * * * * * * * * * * * * * * * * * * * * * * * //

dimensions      [0 1 -1 0 0 0 0];

internalField   nonuniform List<vector> 
1915
(
(0.0573911 -0.673687 0)
(0.0568161 -0.67352 0)
(0.0562625 -0.669447 0)
(0.0572137 -0.658774 0)
(0.0582208 -0.634873 0)
(-0.0243896 -0.354001 0)
(-0.0894522 -0.122529 0)
(-0.132556 0.0600084 0)
(-0.160059 0.202124 0)
(-0.175691 0.31015 0)
(-0.182232 0.389069 0)
(-0.18199 0.443515 0)
(-0.176865 0.478167 0)
(-0.168415 0.49753 0)
(-0.15786 0.505589 0)
(-0.146096 0.505592 0)
(-0.133744 0.500029 0)
(-0.121222 0.490735 0)
(-0.108809 0.479029 0)
(-0.0966903 0.465848 0)
(-0.084992 0.451848 0)
(-0.073798 0.43748 0)
(-0.063167 0.423043 0)
(-0.053136 0.408737 0)
(-0.0437221 0.394688 0)
(-0.000830386 -0.804074 0)
(0.0449073 -0.671228 0)
(0.0574467 -0.740791 0)
(0.0159366 -0.776153 0)
(-0.0221258 -0.791013 0)
(-0.0587656 -0.769681 0)
(-0.052419 -0.744885 0)
(-0.0396511 -0.723672 0)
(-0.0258025 -0.708009 0)
(-0.0130675 -0.695838 0)
(-0.00110793 -0.685421 0)
(0.00966307 -0.677619 0)
(0.0195564 -0.67234 0)
(0.0285496 -0.669319 0)
(0.0365875 -0.668203 0)
(0.0435839 -0.66859 0)
(0.0494352 -0.670042 0)
(0.0540124 -0.672071 0)
(0.0569768 -0.674205 0)
(0.05799 -0.675939 0)
(0.0573897 -0.676121 0)
(0.0517369 -0.675925 0)
(0.0447002 -0.673164 0)
(0.0339715 -0.654984 0)
(0.00925717 -0.564524 0)
(-0.119699 -0.278975 0)
(-0.163284 -0.0692012 0)
(-0.194437 0.0941395 0)
(-0.213831 0.221925 0)
(-0.222763 0.319203 0)
(-0.223696 0.39007 0)
(-0.218785 0.438674 0)
(-0.209794 0.469309 0)
(-0.198155 0.486096 0)
(-0.18496 0.492651 0)
(-0.170991 0.491902 0)
(-0.156775 0.486095 0)
(-0.14266 0.476891 0)
(-0.128873 0.465496 0)
(-0.115561 0.452773 0)
(-0.10282 0.439329 0)
(-0.0907098 0.42558 0)
(-0.0792668 0.411802 0)
(-0.0685123 0.398179 0)
(-0.0584482 0.384829 0)
(0.0119873 -0.832145 0)
(0.0677368 -0.749035 0)
(0.0972543 -0.725788 0)
(0.0810029 -0.727644 0)
(0.0559034 -0.743511 0)
(0.0309919 -0.76303 0)
(0.0108014 -0.774439 0)
(-0.00319563 -0.763572 0)
(-0.00967944 -0.742137 0)
(-0.0107787 -0.719407 0)
(-0.00488509 -0.703068 0)
(0.00479448 -0.692473 0)
(0.0150875 -0.685601 0)
(0.0248384 -0.681536 0)
(0.0332331 -0.679658 0)
(0.0396438 -0.679368 0)
(0.0435497 -0.68003 0)
(0.0442005 -0.680992 0)
(0.0409171 -0.681227 0)
(0.0383459 -0.679625 0)
(0.0320052 -0.674485 0)
(0.0204031 -0.66696 0)
(0.0188548 -0.667964 0)
(-0.0403359 -0.631864 0)
(-0.147922 -0.431249 0)
(-0.22224 -0.211436 0)
(-0.249946 -0.0316395 0)
(-0.26545 0.115022 0)
(-0.272501 0.231508 0)
(-0.272276 0.32035 0)
(-0.266221 0.384837 0)
(-0.255871 0.428839 0)
(-0.2426 0.456402 0)
(-0.22755 0.471343 0)
(-0.211596 0.476953 0)
(-0.195354 0.475885 0)
(-0.179235 0.470171 0)
(-0.163506 0.461329 0)
(-0.148335 0.450469 0)
(-0.133828 0.438389 0)
(-0.120048 0.425655 0)
(-0.107028 0.412654 0)
(-0.0947827 0.399642 0)
(-0.083314 0.386791 0)
(-0.0726103 0.374214 0)
(0.0166132 -0.874131 0)
(0.0611218 -0.80809 0)
(0.0910726 -0.738913 0)
(0.0943438 -0.714346 0)
(0.0829796 -0.712609 0)
(0.0638366 -0.719266 0)
(0.042634 -0.725415 0)
(0.0242082 -0.726137 0)
(0.0112407 -0.724085 0)
(0.00385454 -0.722446 0)
(0.000408557 -0.72037 0)
(-0.001172 -0.716034 0)
(-0.00183841 -0.709916 0)
(-0.00210358 -0.703428 0)
(-0.00256935 -0.697121 0)
(-0.00376483 -0.690869 0)
(-0.00607281 -0.684471 0)
(-0.0100106 -0.67829 0)
(-0.0166754 -0.672898 0)
(-0.0270694 -0.666965 0)
(-0.0438294 -0.657857 0)
(-0.0721894 -0.639767 0)
(-0.117067 -0.59682 0)
(-0.187905 -0.50406 0)
(-0.262231 -0.353667 0)
(-0.306681 -0.175774 0)
(-0.324697 -0.0144102 0)
(-0.330308 0.121335 0)
(-0.328017 0.229962 0)
(-0.319831 0.312795 0)
(-0.307269 0.372767 0)
(-0.291697 0.413614 0)
(-0.274264 0.439209 0)
(-0.255883 0.453129 0)
(-0.237226 0.458409 0)
(-0.218756 0.457483 0)
(-0.200772 0.45222 0)
(-0.183464 0.444024 0)
(-0.166945 0.43393 0)
(-0.151279 0.422686 0)
(-0.136495 0.410823 0)
(-0.122599 0.398704 0)
(-0.109584 0.386573 0)
(-0.0974319 0.374588 0)
(-0.0861162 0.362859 0)
(0.00935442 -0.90962 0)
(0.0354087 -0.84249 0)
(0.0564571 -0.759959 0)
(0.0685229 -0.718745 0)
(0.0685178 -0.703191 0)
(0.0589566 -0.700666 0)
(0.0438864 -0.702313 0)
(0.0274563 -0.703272 0)
(0.0124776 -0.702625 0)
(-6.74731e-05 -0.70074 0)
(-0.0104781 -0.69794 0)
(-0.0193654 -0.694143 0)
(-0.0271679 -0.68969 0)
(-0.0343056 -0.685075 0)
(-0.0413401 -0.68049 0)
(-0.0488457 -0.675772 0)
(-0.0574249 -0.670576 0)
(-0.0678984 -0.664515 0)
(-0.0816443 -0.656867 0)
(-0.100457 -0.645632 0)
(-0.126942 -0.62711 0)
(-0.16478 -0.595163 0)
(-0.216486 -0.537828 0)
(-0.278733 -0.441083 0)
(-0.335022 -0.303924 0)
(-0.369434 -0.149987 0)
(-0.383343 -0.00531419 0)
(-0.384069 0.11944 0)
(-0.376085 0.22055 0)
(-0.362256 0.298193 0)
(-0.344623 0.354708 0)
(-0.324724 0.393445 0)
(-0.303696 0.417973 0)
(-0.282349 0.431592 0)
(-0.261235 0.437103 0)
(-0.240711 0.436754 0)
(-0.220996 0.432287 0)
(-0.202216 0.425016 0)
(-0.18444 0.415917 0)
(-0.167693 0.405699 0)
(-0.151975 0.394866 0)
(-0.137265 0.383762 0)
(-0.123535 0.37262 0)
(-0.110749 0.361595 0)
(-0.0988668 0.350791 0)
(-0.00306182 -0.924895 0)
(0.00558835 -0.854451 0)
(0.016088 -0.777266 0)
(0.0276647 -0.728827 0)
(0.0323673 -0.703255 0)
(0.0293096 -0.692418 0)
(0.0201465 -0.689052 0)
(0.00747945 -0.688309 0)
(-0.00649033 -0.687816 0)
(-0.0205145 -0.686701 0)
(-0.0340958 -0.684689 0)
(-0.0470637 -0.681779 0)
(-0.0594274 -0.678128 0)
(-0.0714341 -0.673936 0)
(-0.0835327 -0.669212 0)
(-0.0962937 -0.663706 0)
(-0.110416 -0.656907 0)
(-0.126837 -0.647977 0)
(-0.146866 -0.635514 0)
(-0.172188 -0.617038 0)
(-0.204626 -0.588777 0)
(-0.245685 -0.545097 0)
(-0.294916 -0.478582 0)
(-0.347049 -0.38317 0)
(-0.39129 -0.260911 0)
(-0.418816 -0.127436 0)
(-0.429373 0.000527719 0)
(-0.426986 0.113239 0)
(-0.41552 0.206201 0)
(-0.398026 0.27863 0)
(-0.376866 0.332069 0)
(-0.353771 0.369255 0)
(-0.329945 0.393289 0)
(-0.30619 0.40712 0)
(-0.283015 0.413295 0)
(-0.26073 0.413885 0)
(-0.239507 0.410513 0)
(-0.219436 0.404417 0)
(-0.20055 0.396524 0)
(-0.182846 0.387509 0)
(-0.166299 0.377853 0)
(-0.150867 0.367888 0)
(-0.136502 0.357839 0)
(-0.123152 0.347857 0)
(-0.110765 0.338049 0)
(-0.0136905 -0.915774 0)
(-0.0181489 -0.854567 0)
(-0.0164205 -0.786343 0)
(-0.0106012 -0.736821 0)
(-0.00695734 -0.705583 0)
(-0.00806248 -0.68819 0)
(-0.0141499 -0.679519 0)
(-0.0241554 -0.675439 0)
(-0.0367296 -0.673288 0)
(-0.0507813 -0.671587 0)
(-0.0655699 -0.669578 0)
(-0.0806487 -0.666899 0)
(-0.0958464 -0.663429 0)
(-0.11126 -0.659095 0)
(-0.127212 -0.653702 0)
(-0.144193 -0.646823 0)
(-0.162853 -0.637741 0)
(-0.184034 -0.625346 0)
(-0.208773 -0.607954 0)
(-0.238178 -0.583072 0)
(-0.273122 -0.547284 0)
(-0.313657 -0.496439 0)
(-0.357924 -0.426341 0)
(-0.401089 -0.334984 0)
(-0.436073 -0.225921 0)
(-0.457519 -0.109381 0)
(-0.464706 0.0032932 0)
(-0.459937 0.104099 0)
(-0.446271 0.188709 0)
(-0.426573 0.25581 0)
(-0.403229 0.306246 0)
(-0.378042 0.342095 0)
(-0.352277 0.365918 0)
(-0.326765 0.38026 0)
(-0.302024 0.387384 0)
(-0.278359 0.389173 0)
(-0.25593 0.387129 0)
(-0.234811 0.382413 0)
(-0.215015 0.375903 0)
(-0.196522 0.368242 0)
(-0.179288 0.359892 0)
(-0.163253 0.351175 0)
(-0.148356 0.342309 0)
(-0.134532 0.333446 0)
(-0.121716 0.324696 0)
(-0.0185679 -0.892065 0)
(-0.0324215 -0.845451 0)
(-0.0387743 -0.78631 0)
(-0.0399736 -0.739262 0)
(-0.040395 -0.705968 0)
(-0.0429174 -0.684408 0)
(-0.0487734 -0.671328 0)
(-0.0579611 -0.663617 0)
(-0.069901 -0.65889 0)
(-0.083884 -0.655524 0)
(-0.0992876 -0.652487 0)
(-0.115671 -0.649153 0)
(-0.132816 -0.645126 0)
(-0.15073 -0.640071 0)
(-0.169621 -0.63357 0)
(-0.189859 -0.62501 0)
(-0.211956 -0.613496 0)
(-0.236529 -0.597776 0)
(-0.264228 -0.576135 0)
(-0.295577 -0.546333 0)
(-0.330656 -0.505692 0)
(-0.368664 -0.451445 0)
(-0.407365 -0.381524 0)
(-0.442839 -0.295976 0)
(-0.470336 -0.19844 0)
(-0.486422 -0.0961113 0)
(-0.490404 0.00303519 0)
(-0.483711 0.0927586 0)
(-0.468694 0.169249 0)
(-0.447845 0.231027 0)
(-0.423384 0.278438 0)
(-0.397071 0.312973 0)
(-0.370184 0.336665 0)
(-0.343586 0.35164 0)
(-0.317822 0.35986 0)
(-0.293217 0.363005 0)
(-0.269941 0.362445 0)
(-0.248067 0.359257 0)
(-0.227607 0.354262 0)
(-0.208529 0.348073 0)
(-0.190778 0.34113 0)
(-0.174286 0.333745 0)
(-0.158981 0.326135 0)
(-0.144788 0.318451 0)
(-0.131637 0.310808 0)
(-0.0196008 -0.86255 0)
(-0.0395652 -0.82772 0)
(-0.0526204 -0.777799 0)
(-0.0602185 -0.735089 0)
(-0.0656058 -0.702192 0)
(-0.0712826 -0.678603 0)
(-0.0787942 -0.66248 0)
(-0.0887153 -0.651676 0)
(-0.101019 -0.644283 0)
(-0.11539 -0.638805 0)
(-0.131447 -0.63415 0)
(-0.148872 -0.629537 0)
(-0.16748 -0.624367 0)
(-0.187249 -0.618098 0)
(-0.208302 -0.610124 0)
(-0.230881 -0.599683 0)
(-0.25531 -0.585784 0)
(-0.281944 -0.567149 0)
(-0.311057 -0.542202 0)
(-0.342683 -0.509095 0)
(-0.376377 -0.465889 0)
(-0.410945 -0.410936 0)
(-0.444226 -0.343487 0)
(-0.473174 -0.264512 0)
(-0.494546 -0.177303 0)
(-0.506084 -0.0871567 0)
(-0.507269 0.000143937 0)
(-0.499071 0.0798068 0)
(-0.483307 0.148658 0)
(-0.462061 0.205256 0)
(-0.437299 0.249625 0)
(-0.410659 0.282789 0)
(-0.383382 0.306309 0)
(-0.35634 0.321913 0)
(-0.330104 0.331264 0)
(-0.305023 0.335828 0)
(-0.28129 0.33683 0)
(-0.258991 0.335251 0)
(-0.23814 0.331855 0)
(-0.218707 0.327213 0)
(-0.200634 0.321744 0)
(-0.18385 0.315751 0)
(-0.168277 0.309446 0)
(-0.153836 0.302983 0)
(-0.140452 0.29648 0)
(-0.0192786 -0.830071 0)
(-0.0425565 -0.804477 0)
(-0.0603281 -0.762615 0)
(-0.0731113 -0.724712 0)
(-0.0831962 -0.693549 0)
(-0.0925264 -0.669458 0)
(-0.10258 -0.651549 0)
(-0.114163 -0.638451 0)
(-0.127573 -0.628745 0)
(-0.142794 -0.621173 0)
(-0.159674 -0.614702 0)
(-0.178047 -0.608495 0)
(-0.197799 -0.601838 0)
(-0.218907 -0.594055 0)
(-0.241429 -0.584417 0)
(-0.265486 -0.572076 0)
(-0.291226 -0.55602 0)
(-0.318755 -0.535051 0)
(-0.348035 -0.507808 0)
(-0.378757 -0.472865 0)
(-0.410184 -0.428918 0)
(-0.441011 -0.375111 0)
(-0.469332 -0.31146 0)
(-0.492821 -0.239283 0)
(-0.509228 -0.161415 0)
(-0.517058 -0.0818647 0)
(-0.515975 -0.00492144 0)
(-0.506705 0.0657456 0)
(-0.490671 0.127566 0)
(-0.469588 0.179237 0)
(-0.445151 0.220597 0)
(-0.418832 0.252318 0)
(-0.391796 0.275568 0)
(-0.364894 0.291722 0)
(-0.338711 0.302154 0)
(-0.313616 0.308117 0)
(-0.289825 0.310686 0)
(-0.26744 0.310738 0)
(-0.246488 0.308966 0)
(-0.226945 0.305901 0)
(-0.208759 0.301937 0)
(-0.191859 0.297362 0)
(-0.176169 0.292386 0)
(-0.161609 0.287165 0)
(-0.148105 0.281821 0)
(-0.018494 -0.796732 0)
(-0.0432506 -0.777807 0)
(-0.0640535 -0.742545 0)
(-0.0806684 -0.709149 0)
(-0.0946497 -0.680261 0)
(-0.107388 -0.656598 0)
(-0.120134 -0.637863 0)
(-0.133718 -0.623241 0)
(-0.14858 -0.611724 0)
(-0.164894 -0.602306 0)
(-0.18268 -0.594071 0)
(-0.201899 -0.5862 0)
(-0.222507 -0.577939 0)
(-0.244488 -0.568546 0)
(-0.267853 -0.557239 0)
(-0.29262 -0.543153 0)
(-0.318785 -0.525319 0)
(-0.346257 -0.502672 0)
(-0.374778 -0.474103 0)
(-0.403831 -0.438561 0)
(-0.432552 -0.395236 0)
(-0.459684 -0.343795 0)
(-0.483623 -0.284652 0)
(-0.502605 -0.219189 0)
(-0.515054 -0.149784 0)
(-0.519977 -0.0795233 0)
(-0.517193 -0.0116408 0)
(-0.507285 0.0510469 0)
(-0.491388 0.106489 0)
(-0.470909 0.153557 0)
(-0.447284 0.191993 0)
(-0.421806 0.222216 0)
(-0.395538 0.245083 0)
(-0.36929 0.261662 0)
(-0.343636 0.273068 0)
(-0.31896 0.280349 0)
(-0.295493 0.284426 0)
(-0.273356 0.28607 0)
(-0.25259 0.285899 0)
(-0.233185 0.284396 0)
(-0.215096 0.281927 0)
(-0.198261 0.278765 0)
(-0.182609 0.275115 0)
(-0.168064 0.271133 0)
(-0.154553 0.266947 0)
(-0.0175984 -0.763511 0)
(-0.042739 -0.749248 0)
(-0.0653041 -0.719127 0)
(-0.084528 -0.689612 0)
(-0.10145 -0.663053 0)
(-0.116989 -0.640298 0)
(-0.132137 -0.621382 0)
(-0.147633 -0.605853 0)
(-0.163951 -0.593015 0)
(-0.181358 -0.582087 0)
(-0.199983 -0.572285 0)
(-0.21987 -0.562851 0)
(-0.241026 -0.553045 0)
(-0.263439 -0.54212 0)
(-0.287082 -0.529296 0)
(-0.311898 -0.513747 0)
(-0.337766 -0.494591 0)
(-0.364459 -0.470924 0)
(-0.391582 -0.441875 0)
(-0.418518 -0.406706 0)
(-0.444387 -0.364959 0)
(-0.468056 -0.316621 0)
(-0.488213 -0.26229 0)
(-0.503525 -0.203266 0)
(-0.51288 -0.141511 0)
(-0.51562 -0.0794258 0)
(-0.511678 -0.0194781 0)
(-0.501547 0.036163 0)
(-0.486144 0.0858723 0)
(-0.466623 0.128694 0)
(-0.444191 0.164334 0)
(-0.419965 0.193035 0)
(-0.394895 0.215408 0)
(-0.369727 0.232269 0)
(-0.345015 0.244505 0)
(-0.32114 0.252975 0)
(-0.298344 0.258451 0)
(-0.276763 0.261597 0)
(-0.256454 0.262955 0)
(-0.237421 0.262956 0)
(-0.219634 0.261936 0)
(-0.20304 0.26015 0)
(-0.187578 0.257797 0)
(-0.17318 0.25503 0)
(-0.159778 0.25198 0)
(-0.0167346 -0.730899 0)
(-0.0416333 -0.719802 0)
(-0.0650423 -0.693574 0)
(-0.0858807 -0.667237 0)
(-0.104825 -0.642818 0)
(-0.122443 -0.621157 0)
(-0.139481 -0.602448 0)
(-0.15655 -0.586463 0)
(-0.174094 -0.572727 0)
(-0.192408 -0.560636 0)
(-0.21167 -0.549536 0)
(-0.23197 -0.538746 0)
(-0.25334 -0.527575 0)
(-0.275768 -0.515315 0)
(-0.299199 -0.501232 0)
(-0.32352 -0.484571 0)
(-0.348534 -0.464567 0)
(-0.373932 -0.440474 0)
(-0.399253 -0.411631 0)
(-0.423854 -0.377544 0)
(-0.446911 -0.337993 0)
(-0.467442 -0.293147 0)
(-0.484391 -0.243655 0)
(-0.496755 -0.190672 0)
(-0.503744 -0.135802 0)
(-0.504929 -0.0809187 0)
(-0.500316 -0.0279213 0)
(-0.49033 0.0215129 0)
(-0.475723 0.0661 0)
(-0.457442 0.105043 0)
(-0.436493 0.138043 0)
(-0.41383 0.165221 0)
(-0.390287 0.187003 0)
(-0.36654 0.204 0)
(-0.343105 0.216902 0)
(-0.32035 0.226398 0)
(-0.298522 0.233127 0)
(-0.277765 0.237645 0)
(-0.258153 0.24042 0)
(-0.239706 0.241832 0)
(-0.222407 0.242181 0)
(-0.206217 0.241706 0)
(-0.191089 0.240594 0)
(-0.176963 0.238997 0)
(-0.16378 0.237045 0)
(-0.0159418 -0.699171 0)
(-0.0402619 -0.690141 0)
(-0.063865 -0.666823 0)
(-0.0855456 -0.643014 0)
(-0.105718 -0.620448 0)
(-0.124709 -0.599892 0)
(-0.143057 -0.581599 0)
(-0.161247 -0.565467 0)
(-0.179662 -0.551169 0)
(-0.198583 -0.538238 0)
(-0.218198 -0.526127 0)
(-0.23861 -0.514241 0)
(-0.259857 -0.501957 0)
(-0.281923 -0.488629 0)
(-0.304731 -0.473597 0)
(-0.328132 -0.456199 0)
(-0.351889 -0.435787 0)
(-0.375655 -0.411769 0)
(-0.398953 -0.383655 0)
(-0.421169 -0.35113 0)
(-0.441564 -0.314129 0)
(-0.459315 -0.27291 0)
(-0.473581 -0.2281 0)
(-0.483608 -0.18069 0)
(-0.488833 -0.131978 0)
(-0.488981 -0.0834308 0)
(-0.484104 -0.0365173 0)
(-0.474571 0.00746131 0)
(-0.460999 0.0474917 0)
(-0.444165 0.0829157 0)
(-0.424904 0.113446 0)
(-0.404024 0.139123 0)
(-0.382244 0.160232 0)
(-0.360165 0.177221 0)
(-0.338258 0.190617 0)
(-0.316871 0.20096 0)
(-0.296245 0.208768 0)
(-0.276533 0.2145 0)
(-0.257819 0.218551 0)
(-0.240137 0.221249 0)
(-0.223488 0.222863 0)
(-0.207848 0.223608 0)
(-0.193182 0.223661 0)
(-0.179443 0.223169 0)
(-0.166581 0.22226 0)
(-0.0152064 -0.668392 0)
(-0.0387666 -0.660711 0)
(-0.0621239 -0.639582 0)
(-0.0840606 -0.617759 0)
(-0.10482 -0.59675 0)
(-0.124562 -0.577223 0)
(-0.143666 -0.559437 0)
(-0.162506 -0.54336 0)
(-0.181398 -0.528758 0)
(-0.200585 -0.515265 0)
(-0.220237 -0.502421 0)
(-0.240451 -0.489714 0)
(-0.261262 -0.476593 0)
(-0.282644 -0.462492 0)
(-0.304505 -0.446834 0)
(-0.326679 -0.429055 0)
(-0.348914 -0.408623 0)
(-0.370857 -0.385076 0)
(-0.392053 -0.358062 0)
(-0.411945 -0.327393 0)
(-0.429893 -0.293098 0)
(-0.445219 -0.255464 0)
(-0.457264 -0.21506 0)
(-0.465461 -0.172717 0)
(-0.469409 -0.129477 0)
(-0.468934 -0.0864891 0)
(-0.464114 -0.0448918 0)
(-0.455267 -0.00569793 0)
(-0.442898 0.0302924 0)
(-0.427645 0.0625386 0)
(-0.410196 0.0907753 0)
(-0.391228 0.114988 0)
(-0.371356 0.135359 0)
(-0.351103 0.152207 0)
(-0.330891 0.165924 0)
(-0.311043 0.176929 0)
(-0.29179 0.185629 0)
(-0.273287 0.192398 0)
(-0.255626 0.197564 0)
(-0.238855 0.201406 0)
(-0.222989 0.204158 0)
(-0.208019 0.206015 0)
(-0.193924 0.20714 0)
(-0.180672 0.207674 0)
(-0.16822 0.20774 0)
(-0.0145121 -0.638561 0)
(-0.0371864 -0.631804 0)
(-0.0600073 -0.612344 0)
(-0.0817701 -0.592094 0)
(-0.10262 -0.57238 0)
(-0.122601 -0.553777 0)
(-0.141983 -0.536529 0)
(-0.161046 -0.520637 0)
(-0.180039 -0.505928 0)
(-0.199158 -0.492104 0)
(-0.218544 -0.478779 0)
(-0.23828 -0.465514 0)
(-0.258387 -0.451835 0)
(-0.278831 -0.437251 0)
(-0.299513 -0.421274 0)
(-0.320262 -0.403432 0)
(-0.340828 -0.383299 0)
(-0.360878 -0.360519 0)
(-0.379996 -0.334848 0)
(-0.397695 -0.306183 0)
(-0.41344 -0.274604 0)
(-0.42668 -0.240395 0)
(-0.436902 -0.204052 0)
(-0.44368 -0.166261 0)
(-0.446731 -0.127851 0)
(-0.445949 -0.0897219 0)
(-0.44142 -0.0527592 0)
(-0.433414 -0.0177524 0)
(-0.422346 0.0146657 0)
(-0.408735 0.044053 0)
(-0.393145 0.0701696 0)
(-0.376138 0.092966 0)
(-0.358232 0.112549 0)
(-0.339879 0.129136 0)
(-0.321452 0.143013 0)
(-0.303243 0.154495 0)
(-0.285468 0.163899 0)
(-0.268282 0.171521 0)
(-0.251782 0.17763 0)
(-0.236026 0.182461 0)
(-0.221043 0.186214 0)
(-0.206838 0.189062 0)
(-0.193404 0.191155 0)
(-0.18072 0.192622 0)
(-0.168754 0.193584 0)
(-0.0138575 -0.609747 0)
(-0.0355431 -0.603632 0)
(-0.0576249 -0.585465 0)
(-0.0789081 -0.566475 0)
(-0.0994765 -0.547839 0)
(-0.119302 -0.530058 0)
(-0.138573 -0.513352 0)
(-0.1575 -0.497734 0)
(-0.176268 -0.483068 0)
(-0.195027 -0.469106 0)
(-0.213887 -0.455523 0)
(-0.232911 -0.441944 0)
(-0.252108 -0.427964 0)
(-0.271436 -0.413167 0)
(-0.290793 -0.397143 0)
(-0.310013 -0.379507 0)
(-0.328861 -0.35992 0)
(-0.347035 -0.338115 0)
(-0.364171 -0.313923 0)
(-0.379855 -0.2873 0)
(-0.393647 -0.258349 0)
(-0.405109 -0.227333 0)
(-0.413845 -0.194673 0)
(-0.419535 -0.160927 0)
(-0.42198 -0.126754 0)
(-0.421116 -0.0928561 0)
(-0.417032 -0.0599234 0)
(-0.409952 -0.0285728 0)
(-0.400215 0.000694014 0)
(-0.38824 0.0275161 0)
(-0.374486 0.0516803 0)
(-0.359416 0.073116 0)
(-0.343463 0.0918745 0)
(-0.327012 0.108098 0)
(-0.310387 0.121986 0)
(-0.29385 0.133773 0)
(-0.277601 0.143698 0)
(-0.261787 0.151993 0)
(-0.24651 0.158874 0)
(-0.231837 0.164535 0)
(-0.217804 0.169145 0)
(-0.204431 0.172858 0)
(-0.191723 0.175805 0)
(-0.179671 0.17811 0)
(-0.168254 0.179882 0)
(-0.0132174 -0.582043 0)
(-0.0338558 -0.576364 0)
(-0.0550546 -0.559217 0)
(-0.0756475 -0.541246 0)
(-0.0956665 -0.523516 0)
(-0.115044 -0.50647 0)
(-0.133909 -0.490299 0)
(-0.152414 -0.475018 0)
(-0.170693 -0.460514 0)
(-0.188857 -0.446575 0)
(-0.206987 -0.432926 0)
(-0.225125 -0.419247 0)
(-0.243271 -0.405194 0)
(-0.261375 -0.390418 0)
(-0.279336 -0.374577 0)
(-0.297 -0.357359 0)
(-0.314153 -0.338498 0)
(-0.330533 -0.317795 0)
(-0.345829 -0.295137 0)
(-0.359698 -0.270517 0)
(-0.371784 -0.244043 0)
(-0.381744 -0.21595 0)
(-0.389273 -0.186589 0)
(-0.394134 -0.156409 0)
(-0.396186 -0.125932 0)
(-0.395394 -0.0957066 0)
(-0.391839 -0.0662703 0)
(-0.385707 -0.0381067 0)
(-0.377273 -0.0116147 0)
(-0.366872 0.0129103 0)
(-0.354875 0.0352814 0)
(-0.34166 0.0554171 0)
(-0.327587 0.0733291 0)
(-0.31298 0.0891029 0)
(-0.298117 0.102874 0)
(-0.28323 0.11481 0)
(-0.268501 0.125087 0)
(-0.25407 0.133884 0)
(-0.240039 0.141372 0)
(-0.226477 0.147708 0)
(-0.213433 0.153035 0)
(-0.200933 0.157484 0)
(-0.188996 0.161173 0)
(-0.177621 0.164213 0)
(-0.166797 0.166707 0)
(-0.0125505 -0.5555 0)
(-0.0321269 -0.550109 0)
(-0.0523552 -0.533793 0)
(-0.0721195 -0.516666 0)
(-0.0914091 -0.499716 0)
(-0.110132 -0.483337 0)
(-0.128375 -0.467693 0)
(-0.146244 -0.452796 0)
(-0.163836 -0.438546 0)
(-0.18123 -0.424762 0)
(-0.198484 -0.411207 0)
(-0.215622 -0.397607 0)
(-0.232632 -0.383671 0)
(-0.249463 -0.369105 0)
(-0.266019 -0.353627 0)
(-0.282157 -0.336985 0)
(-0.297694 -0.318969 0)
(-0.312403 -0.299434 0)
(-0.326027 -0.278306 0)
(-0.338287 -0.255598 0)
(-0.348901 -0.231417 0)
(-0.357599 -0.205965 0)
(-0.364152 -0.179531 0)
(-0.368383 -0.152476 0)
(-0.370193 -0.12521 0)
(-0.369564 -0.0981631 0)
(-0.366569 -0.0717551 0)
(-0.361359 -0.0463662 0)
(-0.354154 -0.0223149 0)
(-0.345223 0.000156092 0)
(-0.334863 0.0208842 0)
(-0.323379 0.0397841 0)
(-0.311068 0.0568411 0)
(-0.298201 0.0720992 0)
(-0.285016 0.0856451 0)
(-0.271715 0.0975932 0)
(-0.258461 0.108073 0)
(-0.245385 0.117218 0)
(-0.232586 0.12516 0)
(-0.220137 0.132026 0)
(-0.208091 0.137935 0)
(-0.196483 0.142996 0)
(-0.185339 0.147314 0)
(-0.174669 0.150989 0)
(-0.164469 0.154115 0)
(-0.0118581 -0.530142 0)
(-0.030368 -0.524926 0)
(-0.0495831 -0.509308 0)
(-0.0684315 -0.492911 0)
(-0.0868751 -0.476656 0)
(-0.104804 -0.460897 0)
(-0.122271 -0.445774 0)
(-0.139355 -0.431297 0)
(-0.156123 -0.417375 0)
(-0.172631 -0.403849 0)
(-0.188916 -0.390515 0)
(-0.204989 -0.377138 0)
(-0.220831 -0.363469 0)
(-0.236389 -0.34926 0)
(-0.251573 -0.334278 0)
(-0.26626 -0.318318 0)
(-0.280291 -0.301219 0)
(-0.293477 -0.282871 0)
(-0.305608 -0.263228 0)
(-0.316461 -0.242314 0)
(-0.325813 -0.220227 0)
(-0.333458 -0.19714 0)
(-0.339221 -0.173287 0)
(-0.342973 -0.148957 0)
(-0.344642 -0.124473 0)
(-0.344223 -0.100173 0)
(-0.341777 -0.0763863 0)
(-0.337427 -0.0534126 0)
(-0.331349 -0.0315076 0)
(-0.323755 -0.0108717 0)
(-0.314884 0.0083538 0)
(-0.30498 0.026085 0)
(-0.294285 0.0422907 0)
(-0.283026 0.0569852 0)
(-0.271403 0.070219 0)
(-0.259592 0.0820671 0)
(-0.247737 0.0926203 0)
(-0.23596 0.101977 0)
(-0.224354 0.110238 0)
(-0.212993 0.117502 0)
(-0.201933 0.123867 0)
(-0.191215 0.129425 0)
(-0.180871 0.134266 0)
(-0.170918 0.138479 0)
(-0.161359 0.142149 0)
(-0.0111895 -0.505986 0)
(-0.0286243 -0.500852 0)
(-0.0468032 -0.485837 0)
(-0.0646791 -0.470094 0)
(-0.0821982 -0.45448 0)
(-0.0992369 -0.439309 0)
(-0.11583 -0.424707 0)
(-0.132031 -0.410677 0)
(-0.14789 -0.397139 0)
(-0.163444 -0.383952 0)
(-0.178714 -0.370938 0)
(-0.193701 -0.357893 0)
(-0.208381 -0.344603 0)
(-0.222701 -0.330859 0)
(-0.236582 -0.316466 0)
(-0.249916 -0.301258 0)
(-0.26257 -0.285108 0)
(-0.27439 -0.267932 0)
(-0.285204 -0.249703 0)
(-0.294837 -0.23045 0)
(-0.303116 -0.21026 0)
(-0.309882 -0.189276 0)
(-0.315003 -0.167689 0)
(-0.318385 -0.14573 0)
(-0.319977 -0.123654 0)
(-0.319781 -0.101728 0)
(-0.317848 -0.0802105 0)
(-0.314276 -0.0593403 0)
(-0.309205 -0.0393239 0)
(-0.302803 -0.0203274 0)
(-0.29526 -0.00247354 0)
(-0.286771 0.0141581 0)
(-0.277533 0.0295269 0)
(-0.267732 0.0436275 0)
(-0.257538 0.0564839 0)
(-0.247102 0.0681417 0)
(-0.236551 0.0786621 0)
(-0.225996 0.0881151 0)
(-0.215524 0.096576 0)
(-0.205207 0.104122 0)
(-0.195103 0.110831 0)
(-0.185256 0.11678 0)
(-0.175703 0.122046 0)
(-0.166466 0.126707 0)
(-0.157553 0.130838 0)
(-0.010578 -0.483026 0)
(-0.0269428 -0.477929 0)
(-0.0440684 -0.463448 0)
(-0.0609349 -0.448302 0)
(-0.0774766 -0.433285 0)
(-0.0935663 -0.418678 0)
(-0.109225 -0.404594 0)
(-0.124492 -0.391032 0)
(-0.139399 -0.377921 0)
(-0.15397 -0.365134 0)
(-0.168215 -0.352514 0)
(-0.182127 -0.339882 0)
(-0.195679 -0.327053 0)
(-0.208822 -0.313848 0)
(-0.221486 -0.300104 0)
(-0.233579 -0.285683 0)
(-0.244991 -0.270484 0)
(-0.255596 -0.254444 0)
(-0.265258 -0.237544 0)
(-0.273839 -0.219814 0)
(-0.281205 -0.201329 0)
(-0.287236 -0.182209 0)
(-0.291832 -0.162608 0)
(-0.294924 -0.14271 0)
(-0.296477 -0.12272 0)
(-0.296495 -0.102847 0)
(-0.295022 -0.0832977 0)
(-0.292136 -0.064263 0)
(-0.287947 -0.0459107 0)
(-0.282589 -0.0283795 0)
(-0.276211 -0.0117756 0)
(-0.26897 0.00382662 0)
(-0.261025 0.0183827 0)
(-0.252528 0.0318747 0)
(-0.243623 0.0443078 0)
(-0.234437 0.0557064 0)
(-0.225084 0.066109 0)
(-0.215661 0.0755638 0)
(-0.206251 0.0841255 0)
(-0.196923 0.0918531 0)
(-0.187733 0.0988081 0)
(-0.178726 0.105054 0)
(-0.169942 0.110656 0)
(-0.161408 0.115681 0)
(-0.153135 0.120196 0)
(-0.00999561 -0.461239 0)
(-0.0253201 -0.45619 0)
(-0.0413874 -0.4422 0)
(-0.0572305 -0.427602 0)
(-0.0727713 -0.413141 0)
(-0.0878866 -0.399075 0)
(-0.102588 -0.385502 0)
(-0.116902 -0.372422 0)
(-0.130848 -0.359766 0)
(-0.144438 -0.347422 0)
(-0.157673 -0.335248 0)
(-0.170543 -0.323084 0)
(-0.18302 -0.310771 0)
(-0.195059 -0.298152 0)
(-0.2066 -0.285089 0)
(-0.217566 -0.271466 0)
(-0.227865 -0.2572 0)
(-0.237398 -0.242241 0)
(-0.246056 -0.226576 0)
(-0.253731 -0.210234 0)
(-0.260321 -0.193278 0)
(-0.265732 -0.175806 0)
(-0.269892 -0.157945 0)
(-0.27275 -0.139842 0)
(-0.274282 -0.121661 0)
(-0.274495 -0.103569 0)
(-0.273423 -0.085731 0)
(-0.271129 -0.0683019 0)
(-0.2677 -0.0514188 0)
(-0.263243 -0.0351981 0)
(-0.257874 -0.0197319 0)
(-0.25172 -0.00508842 0)
(-0.244908 0.00868683 0)
(-0.237564 0.0215686 0)
(-0.229807 0.0335499 0)
(-0.221746 0.0446396 0)
(-0.21348 0.0548593 0)
(-0.205096 0.0642404 0)
(-0.196669 0.0728217 0)
(-0.188264 0.0806469 0)
(-0.179935 0.0877643 0)
(-0.171729 0.0942254 0)
(-0.163685 0.100084 0)
(-0.155833 0.105399 0)
(-0.148185 0.110228 0)
(-0.00938771 -0.440613 0)
(-0.0237094 -0.435638 0)
(-0.0387347 -0.422112 0)
(-0.0535673 -0.408022 0)
(-0.0681157 -0.394082 0)
(-0.0822635 -0.380534 0)
(-0.0960145 -0.367464 0)
(-0.109384 -0.354871 0)
(-0.122381 -0.342689 0)
(-0.135011 -0.330816 0)
(-0.147271 -0.31912 0)
(-0.159146 -0.30746 0)
(-0.17061 -0.295694 0)
(-0.181624 -0.283685 0)
(-0.192137 -0.271313 0)
(-0.202084 -0.258479 0)
(-0.211392 -0.245112 0)
(-0.219979 -0.231171 0)
(-0.227761 -0.216647 0)
(-0.234654 -0.201565 0)
(-0.240578 -0.185976 0)
(-0.245464 -0.169963 0)
(-0.249257 -0.153628 0)
(-0.25192 -0.137091 0)
(-0.253438 -0.120484 0)
(-0.253816 -0.103942 0)
(-0.253085 -0.0875974 0)
(-0.251294 -0.0715771 0)
(-0.248512 -0.0559941 0)
(-0.244822 -0.0409464 0)
(-0.240319 -0.0265144 0)
(-0.235102 -0.01276 0)
(-0.229275 0.000272225 0)
(-0.222941 0.0125533 0)
(-0.216198 0.0240685 0)
(-0.209139 0.034816 0)
(-0.201851 0.0448053 0)
(-0.194409 0.0540549 0)
(-0.186884 0.0625909 0)
(-0.179333 0.0704454 0)
(-0.17181 0.0776551 0)
(-0.164359 0.0842615 0)
(-0.157019 0.0903096 0)
(-0.14982 0.0958481 0)
(-0.142778 0.100928 0)
(-0.00873591 -0.421181 0)
(-0.0220801 -0.416258 0)
(-0.0360985 -0.403163 0)
(-0.0499531 -0.389547 0)
(-0.0635419 -0.376101 0)
(-0.0767511 -0.363052 0)
(-0.0895769 -0.350479 0)
(-0.102026 -0.338375 0)
(-0.114104 -0.326678 0)
(-0.125809 -0.315289 0)
(-0.137135 -0.304091 0)
(-0.148069 -0.292954 0)
(-0.158586 -0.281751 0)
(-0.168654 -0.270358 0)
(-0.178228 -0.258671 0)
(-0.187256 -0.246603 0)
(-0.195678 -0.234092 0)
(-0.20343 -0.221102 0)
(-0.210446 -0.207626 0)
(-0.216658 -0.193683 0)
(-0.222008 -0.179318 0)
(-0.226442 -0.164596 0)
(-0.22992 -0.149604 0)
(-0.232415 -0.134439 0)
(-0.233917 -0.119207 0)
(-0.234431 -0.104018 0)
(-0.233983 -0.088982 0)
(-0.232613 -0.0742016 0)
(-0.230374 -0.0597716 0)
(-0.227334 -0.0457751 0)
(-0.223566 -0.0322821 0)
(-0.219152 -0.0193488 0)
(-0.214174 -0.0070179 0)
(-0.208718 0.00468038 0)
(-0.202865 0.0157269 0)
(-0.196694 0.0261129 0)
(-0.190279 0.035839 0)
(-0.183688 0.0449144 0)
(-0.176982 0.0533554 0)
(-0.170217 0.0611845 0)
(-0.16344 0.0684296 0)
(-0.156694 0.0751232 0)
(-0.150017 0.0813023 0)
(-0.14344 0.087008 0)
(-0.136979 0.092284 0)
(-0.00807442 -0.402983 0)
(-0.0204585 -0.398031 0)
(-0.033513 -0.385314 0)
(-0.04643 -0.37214 0)
(-0.0590995 -0.359167 0)
(-0.0714061 -0.346606 0)
(-0.0833394 -0.334524 0)
(-0.0949016 -0.322909 0)
(-0.106093 -0.3117 0)
(-0.116912 -0.300805 0)
(-0.127352 -0.290113 0)
(-0.137399 -0.279506 0)
(-0.147034 -0.268866 0)
(-0.156228 -0.258085 0)
(-0.164945 -0.247066 0)
(-0.173142 -0.235732 0)
(-0.180771 -0.224027 0)
(-0.187782 -0.21192 0)
(-0.194121 -0.199403 0)
(-0.199738 -0.186491 0)
(-0.204586 -0.173221 0)
(-0.208626 -0.159647 0)
(-0.211828 -0.145839 0)
(-0.214171 -0.131878 0)
(-0.21565 -0.117852 0)
(-0.216271 -0.10385 0)
(-0.216053 -0.0899635 0)
(-0.21503 -0.0762779 0)
(-0.213244 -0.0628727 0)
(-0.210748 -0.049819 0)
(-0.207602 -0.0371781 0)
(-0.203871 -0.0250007 0)
(-0.199623 -0.013327 0)
(-0.194927 -0.00218733 0)
(-0.189851 0.00839712 0)
(-0.184462 0.0184133 0)
(-0.178823 0.027856 0)
(-0.172995 0.0367274 0)
(-0.167032 0.0450364 0)
(-0.160983 0.0527981 0)
(-0.154893 0.0600329 0)
(-0.148803 0.0667663 0)
(-0.142748 0.0730282 0)
(-0.136757 0.078853 0)
(-0.130849 0.0842777 0)
(-0.00745188 -0.386016 0)
(-0.0189094 -0.380932 0)
(-0.0310455 -0.368531 0)
(-0.0430641 -0.355768 0)
(-0.0548505 -0.343252 0)
(-0.0662866 -0.331169 0)
(-0.077358 -0.319573 0)
(-0.0880644 -0.308445 0)
(-0.0984048 -0.297725 0)
(-0.108377 -0.287324 0)
(-0.117975 -0.277138 0)
(-0.127188 -0.267058 0)
(-0.136 -0.256975 0)
(-0.144386 -0.24679 0)
(-0.152317 -0.236414 0)
(-0.159759 -0.225776 0)
(-0.166674 -0.214827 0)
(-0.173021 -0.203536 0)
(-0.178758 -0.191894 0)
(-0.183847 -0.179913 0)
(-0.188251 -0.167622 0)
(-0.191941 -0.155068 0)
(-0.194894 -0.142308 0)
(-0.197096 -0.129408 0)
(-0.198543 -0.116443 0)
(-0.199241 -0.103486 0)
(-0.199208 -0.0906127 0)
(-0.198467 -0.0778963 0)
(-0.197055 -0.0654039 0)
(-0.195014 -0.0531966 0)
(-0.192391 -0.0413284 0)
(-0.18924 -0.0298449 0)
(-0.185617 -0.0187837 0)
(-0.181576 -0.00817406 0)
(-0.177177 0.00196189 0)
(-0.172475 0.0116088 0)
(-0.167524 0.0207578 0)
(-0.162378 0.029406 0)
(-0.157083 0.037557 0)
(-0.151686 0.0452199 0)
(-0.146226 0.0524093 0)
(-0.14074 0.0591446 0)
(-0.135264 0.0654498 0)
(-0.129825 0.0713534 0)
(-0.124438 0.0768866 0)
(-0.00689413 -0.370211 0)
(-0.0174902 -0.364924 0)
(-0.0287559 -0.352791 0)
(-0.0399136 -0.340413 0)
(-0.0508458 -0.32834 0)
(-0.0614378 -0.316725 0)
(-0.0716739 -0.305607 0)
(-0.0815531 -0.294961 0)
(-0.0910748 -0.284725 0)
(-0.100237 -0.274813 0)
(-0.109036 -0.265127 0)
(-0.117462 -0.255564 0)
(-0.125502 -0.246023 0)
(-0.133138 -0.236411 0)
(-0.140345 -0.226647 0)
(-0.147096 -0.216664 0)
(-0.15336 -0.206416 0)
(-0.159106 -0.195874 0)
(-0.164302 -0.185029 0)
(-0.168915 -0.173887 0)
(-0.17292 -0.162474 0)
(-0.176294 -0.150827 0)
(-0.179019 -0.138995 0)
(-0.181085 -0.127033 0)
(-0.18249 -0.115003 0)
(-0.18324 -0.102968 0)
(-0.183349 -0.0909915 0)
(-0.182836 -0.0791353 0)
(-0.181732 -0.0674573 0)