/*--------------------------------*- C++ -*----------------------------------*\
| =========                 |                                                 |
| \\      /  F ield         | OpenFOAM: The Open Source CFD Toolbox           |
|  \\    /   O peration     | Version:  5.0                                   |
|   \\  /    A nd           | Web:      www.OpenFOAM.org                      |
|    \\/     M anipulation  |                                                 |
\*---------------------------------------------------------------------------*/
FoamFile
{
    version     2.0;
    format      ascii;
    class       surfaceScalarField;
    location    "0.6";
    object      alphaPhi10;
}
// * * * * * * * * * * * * * * * * * * * * * * * * * * * * * * * * * * * * * //

dimensions      [0 3 -1 0 0 0 0];

internalField   nonuniform List<scalar> 
3782
(
3.53801e-17
-6.54599e-18
8.56965e-17
-1.77659e-17
1.92671e-16
-4.18171e-17
4.08542e-16
-8.76716e-17
8.1672e-16
-1.65565e-16
1.52035e-15
-2.84702e-16
2.60146e-15
-4.47678e-16
4.01463e-15
-6.33094e-16
5.62273e-15
-7.52281e-16
7.2534e-15
-7.14988e-16
7.53023e-15
-3.38147e-16
6.87151e-15
3.72085e-16
5.17813e-15
9.46501e-16
3.31015e-15
1.14994e-15
2.16608e-15
1.05306e-15
1.60642e-15
9.47268e-16
1.25187e-15
9.13385e-16
9.42732e-16
9.03613e-16
6.3314e-16
8.37325e-16
3.38047e-16
6.60708e-16
1.31193e-16
4.05674e-16
3.69737e-17
1.89383e-16
7.21273e-18
6.70471e-17
8.22333e-19
1.66699e-17
4.00581e-20
3.19769e-18
-8.35065e-21
5.63e-19
-2.88951e-21
7.37906e-20
-4.09236e-22
8.56811e-21
-4.36445e-23
6.40256e-22
-3.9073e-24
4.08909e-23
-2.9524e-25
2.20285e-24
-1.76873e-26
9.17502e-26
-8.41883e-28
2.19737e-27
-3.28012e-29
-1.56327e-29
-1.0268e-30
-3.85895e-30
-2.49304e-32
-2.0153e-31
-4.66518e-34
-6.77837e-33
-1.10444e-35
-1.70523e-34
-1.87431e-37
-6.24561e-36
-1.08394e-39
-8.565e-38
-1.01546e-42
-4.95041e-40
-4.49576e-54
-6.74235e-43
-4.4994e-54
-1.63442e-17
7.62319e-17
-3.58342e-17
1.51242e-16
-6.89966e-17
2.69254e-16
4.33638e-16
-1.18593e-16
-4.19415e-17
1.81491e-16
-8.72552e-17
3.52008e-16
-1.61616e-16
6.16937e-16
1.01073e-15
-2.83011e-16
-9.19457e-17
3.92055e-16
-1.81335e-16
7.37561e-16
-3.39639e-16
1.31033e-15
2.34207e-15
-6.6392e-16
-1.77951e-16
7.86331e-16
-3.51849e-16
1.46402e-15
-7.36584e-16
2.8459e-15
5.82613e-15
-1.63269e-15
-3.20345e-16
1.50352e-15
-6.9698e-16
2.92287e-15
-1.6978e-15
6.51241e-15
1.37974e-14
-3.58121e-15
-5.7031e-16
2.79581e-15
-1.37577e-15
5.97486e-15
-3.30171e-15
1.35884e-14
2.47429e-14
-6.25629e-15
-9.76989e-16
5.04275e-15
-2.47062e-15
1.16112e-14
-4.8413e-15
2.36449e-14
3.40559e-14
-6.72813e-15
-1.55595e-15
8.72124e-15
-3.48205e-15
2.05403e-14
-5.52905e-15
3.46624e-14
4.1075e-14
-6.04533e-15
-2.07068e-15
1.38296e-14
-4.05648e-15
3.20757e-14
-4.70091e-15
4.61289e-14
4.32621e-14
-4.48984e-15
-1.93777e-15
2.03143e-14
-3.02645e-15
4.36037e-14
-2.91211e-15
5.59852e-14
4.40156e-14
-2.51373e-15
-6.70535e-16
2.50042e-14
-6.2286e-16
5.23891e-14
-3.34072e-16
6.16438e-14
4.44759e-14
-1.06185e-16
1.58224e-15
2.45962e-14
2.87781e-15
5.38952e-14
3.69689e-15
6.35335e-14
4.72067e-14
5.75405e-15
3.85877e-15
2.09506e-14
6.86048e-15
5.19943e-14
8.78516e-15
6.30417e-14
5.0344e-14
1.2871e-14
5.18612e-15
1.37017e-14
1.01659e-14
4.51778e-14
1.38385e-14
6.0815e-14
4.93596e-14
1.49776e-14
4.53761e-15
6.90585e-15
1.29716e-14
2.90916e-14
1.82784e-14
5.69573e-14
4.66881e-14
1.87901e-14
2.99363e-15
3.71841e-15
1.19857e-14
1.26892e-14
2.09855e-14
4.40993e-14
4.15439e-14
2.07269e-14
2.21523e-15
2.71068e-15
6.69456e-15
5.72332e-15
1.74306e-14
2.25574e-14
2.91563e-14
2.34459e-14
2.03414e-15
2.17964e-15
4.23728e-15
4.10084e-15
1.1877e-14
8.4222e-15
1.84853e-14
1.68734e-14
1.99544e-15
1.66257e-15
3.79944e-15
3.32447e-15
6.91856e-15
5.3967e-15
1.07717e-14
1.22539e-14
1.80645e-15
1.08112e-15
3.62812e-15
2.49135e-15
6.15145e-15
4.25744e-15
7.29438e-15
9.87651e-15
1.35742e-15
5.39458e-16
3.17173e-15
1.52646e-15
5.79299e-15
3.13915e-15
5.2739e-15
9.80905e-15
8.0169e-16
1.99209e-16
2.29405e-15
7.10956e-16
4.90197e-15
1.83945e-15
3.50662e-15
8.84586e-15
3.56232e-16
5.03753e-17
1.24338e-15
2.24625e-16
3.176e-15
7.14859e-16
1.63657e-15
6.4783e-15
1.07937e-16
7.57082e-18
4.57241e-16
4.32219e-17
1.39986e-15
1.69301e-16
4.82332e-16
3.31395e-15
2.5707e-17
7.05821e-19
1.33824e-16
5.86224e-18
4.88122e-16
2.9326e-17
1.02294e-16
1.34616e-15
5.70334e-18
-3.49437e-20
3.56375e-17
1.26688e-19
1.44904e-16
2.14413e-18
1.0775e-17
4.30404e-16
9.63134e-19
-3.33321e-20
8.05475e-18
-2.4382e-19
4.01923e-17
-9.77347e-19
-2.4251e-18
1.34017e-16
1.4634e-19
-6.15063e-21
1.53745e-18
-7.04138e-20
8.72394e-18
-4.34035e-19
-1.62157e-18
3.13114e-17
1.27821e-20
-7.27804e-22
1.84389e-19
-1.13728e-20
1.35134e-18
-9.21704e-20
-4.25805e-19
5.81671e-18
8.77394e-22
-6.37928e-23
1.66298e-20
-1.24796e-21
1.5301e-19
-1.29142e-20
-7.28486e-20
7.75448e-19
4.61898e-23
-4.63815e-24
1.09009e-21
-1.06614e-22
1.26946e-20
-1.36388e-21
-9.31019e-21
7.76798e-20
1.90156e-24
-2.62157e-25
5.37276e-23
-7.06429e-24
7.83567e-22
-1.14322e-22
-9.71618e-22
5.85192e-21
4.79526e-26
-1.0949e-26
1.70579e-24
-3.30042e-25
3.30901e-23
-7.11784e-24
-8.12272e-23
3.19184e-22
1.00137e-28
-3.67184e-28
1.36238e-26
-1.06857e-26
5.1202e-25
-3.08897e-25
-5.12667e-24
8.0581e-24
-4.88074e-29
-1.02232e-29
-1.70425e-27
-2.42331e-28
-4.2304e-26
-8.73851e-27
-2.2955e-25
-5.26727e-25
-2.09397e-30
-2.37928e-31
-7.03214e-29
-4.13099e-30
-2.88763e-27
-1.47657e-28
-6.55807e-27
-6.94629e-26
-5.92121e-32
-4.89159e-33
-1.2933e-30
-6.26117e-32
-6.7097e-29
-1.31712e-30
-8.84228e-29
-3.29014e-27
-1.56818e-33
-1.68085e-34
-1.73035e-32
-1.54374e-33
-5.44465e-31
-1.20765e-32
-9.35097e-31
-6.55734e-29
-8.79869e-35
-1.99131e-36
-4.57481e-34
-1.48579e-35
-4.9444e-33
-1.53192e-34
-1.55671e-32
-8.75236e-31
-8.7679e-37
-1.30192e-38
-3.89504e-36
-8.10808e-38
-6.80966e-35
-7.23748e-37
-1.5674e-34
-1.53074e-32
-8.16645e-39
-2.55226e-41
-9.04207e-39
-1.24211e-40
-6.741e-37
-1.02742e-39
-4.24493e-37
-1.56481e-34
-8.80691e-42
-4.66871e-51
-8.68514e-42
-4.47491e-48
-1.03603e-39
-3.8822e-45
-5.24886e-42
-4.25516e-37
-4.67321e-51
-4.47958e-48
-3.88668e-45
-5.2736e-42
-1.9522e-16
7.41657e-16
-3.14241e-16
1.09865e-15
-5.12518e-16
1.62944e-15
-7.90791e-16
2.36544e-15
-1.10794e-15
3.13143e-15
-1.45191e-15
3.76918e-15
-1.85258e-15
4.31629e-15
-2.49454e-15
5.01481e-15
-3.88122e-15
6.63623e-15
-6.08672e-15
9.39684e-15
-8.33776e-15
1.18489e-14
-9.22538e-15
1.26583e-14
-1.18007e-14
1.38154e-14
-3.75409e-14
3.49778e-14
-2.29006e-13
2.03419e-13
-1.47007e-12
1.30376e-12
-8.50987e-12
7.46655e-12
-4.19781e-11
3.54532e-11
-3.23698e-10
2.06425e-10
-1.02539e-09
3.30318e-10
-1.04777e-08
9.14958e-09
-7.76054e-09
-4.7841e-09
-1.41369e-09
-1.04353e-08
8.80062e-10
-4.18076e-09
9.89391e-09
-9.46836e-09
3.17281e-07
-3.31003e-07
4.91662e-06
-4.9366e-06
2.71448e-05
-5.26178e-05
3.74532e-05
-8.34236e-05
4.17292e-05
-8.72079e-05
4.11157e-05
-8.67143e-05
3.98304e-05
-8.37695e-05
3.85076e-05
-7.8931e-05
3.69422e-05
-7.20909e-05
3.50545e-05
-6.4116e-05
3.21259e-05
-5.46263e-05
2.76723e-05
-4.43505e-05
2.13052e-05
-3.4242e-05
1.25116e-05
-2.50881e-05
-1.37124e-05
-5.18692e-16
1.88028e-15
-9.33081e-16
3.15022e-15
-1.57222e-15
4.95296e-15
-2.30947e-15
6.90345e-15
-2.93536e-15
8.39761e-15
-3.45029e-15
9.16065e-15
-4.06164e-15
9.62728e-15
-5.83631e-15
1.11183e-14
-9.27211e-15
1.61299e-14
-1.21621e-14
2.06244e-14
-1.28107e-14
2.16163e-14
-1.39606e-14
1.96901e-14
-3.23954e-14
3.46517e-14
-1.75189e-13
1.67404e-13
-1.02973e-12
1.01793e-12
-6.03944e-12
5.90515e-12
-3.20075e-11
3.04842e-11
-1.93336e-10
1.28913e-10
1.63481e-10
7.44356e-11
-5.72182e-09
1.28634e-08
-2.72861e-08
2.22439e-08
2.08808e-08
-8.64274e-08
4.46023e-08
-7.34756e-08
3.17563e-08
-8.00555e-09
1.27478e-07
-1.083e-07
4.83567e-06
-5.06333e-06
3.08119e-05
-4.90588e-05
4.28513e-05
-8.10175e-05
4.53667e-05
-8.53293e-05
4.44121e-05
-8.58751e-05
4.31821e-05
-8.52192e-05
4.10963e-05
-8.16256e-05
3.82531e-05
-7.19402e-05
3.44605e-05
-5.15748e-05
3.27942e-05
-4.79954e-05
3.08521e-05
-4.89412e-05
2.72164e-05
-4.06695e-05
2.12199e-05
-2.82435e-05
1.26062e-05
-1.64742e-05
-2.83385e-06
-1.4173e-15
5.01993e-15
-2.60559e-15
9.04892e-15
-3.83261e-15
1.31752e-14
-4.94229e-15
1.57918e-14
-5.6943e-15
1.7076e-14
-6.32137e-15
1.74288e-14
-7.71627e-15
1.83019e-14
-1.21807e-14
2.36466e-14
-1.6952e-14
3.19153e-14
-1.84794e-14
3.50833e-14
-1.76068e-14
3.25272e-14
-2.11244e-14
3.33076e-14
-6.09323e-14
8.9575e-14
-2.76898e-13
4.45449e-13
-1.45888e-12
2.56993e-12
-7.4398e-12
1.38458e-11
-2.928e-11
6.0855e-11
1.23505e-10
1.09867e-11
-1.54415e-09
1.5107e-09
8.72753e-08
-8.42402e-08
6.14864e-07
-5.87828e-07
1.26061e-06
-1.05095e-06
8.59211e-07
-2.83219e-08
4.30144e-07
2.82254e-07
1.22276e-06
-9.2557e-07
2.47745e-05
-2.98623e-05
4.51351e-05
-7.2845e-05
4.84519e-05
-8.41237e-05
4.67576e-05
-8.40757e-05
4.47905e-05
-8.33049e-05
3.77988e-05
-6.38475e-05
2.42323e-05
-3.25495e-05
1.27484e-05
-4.76789e-06
1.04493e-05
-2.66511e-07
1.36646e-05
-9.43448e-09
2.06175e-05
-1.06086e-05
2.32713e-05
-2.46305e-05
1.86332e-05
-2.35904e-05
1.13319e-05
-9.17084e-06
6.43355e-06
-3.59637e-15
1.29306e-14
-5.83166e-15
2.13883e-14
-7.096e-15
2.66503e-14
-7.94162e-15
2.85616e-14
-8.60109e-15
2.75169e-14
-1.00722e-14
2.80878e-14
-1.37889e-14
3.27004e-14
-2.00611e-14
4.28453e-14
-2.27676e-14
4.92474e-14
-2.35059e-14
4.88295e-14
-2.39146e-14
4.49063e-14
-2.92513e-14
5.81313e-14
-7.51596e-14
1.79048e-13
-4.06775e-13
9.78957e-13
-2.55313e-12
5.89489e-12
-1.33937e-11
3.09156e-11
1.29111e-11
6.30716e-11
1.41791e-10
-3.36232e-10
1.88649e-07
-1.91214e-07
1.56468e-06
-1.58482e-06
8.5101e-06
-1.87848e-05
1.32236e-05
-5.78779e-05
6.22675e-06
-3.94965e-05
2.30893e-06
-5.27461e-06
5.68322e-06
-4.44216e-06
4.00885e-05
-3.84814e-05
4.98179e-05
-7.21764e-05
4.58854e-05
-7.47517e-05
3.72035e-05
-5.41298e-05
2.00167e-05
-2.29336e-05
5.47826e-06
-2.18442e-06
4.0965e-06
-1.41722e-07
2.75867e-07
-7.13228e-09
9.77671e-09
-3.15922e-10
3.56511e-10
-1.08507e-11
2.17002e-06
-3.15135e-13
1.11419e-05
-3.37607e-14
1.37567e-05
-1.7211e-05
8.26789e-06
-3.66679e-06
1.13579e-05
-6.78041e-15
2.60957e-14
-8.94257e-15
3.49092e-14
-1.0614e-14
3.91553e-14
-1.11471e-14
4.2318e-14
-1.18132e-14
4.25846e-14
-1.44668e-14
4.36048e-14
-2.04042e-14
5.18516e-14
-2.51334e-14
6.17319e-14
-2.72799e-14
6.4218e-14
-2.8319e-14
6.1823e-14
-3.04339e-14
6.11605e-14
-2.95824e-14
8.17318e-14
-3.70003e-14
2.37461e-13
-2.39232e-13
1.57507e-12
1.42674e-13
8.43363e-12
9.24578e-12
5.18818e-11
1.05389e-09
-7.53385e-10
2.11602e-07
-2.09473e-07
2.70898e-06
-2.76639e-06
1.88997e-05
-3.41356e-05
3.24974e-05
-6.57635e-05
3.87754e-05
-6.88702e-05
2.67892e-05
-6.69808e-05
3.7986e-06
-4.29058e-05
1.28541e-05
-1.32954e-05
3.04732e-05
-1.27629e-05
2.5859e-05
-1.72571e-06
1.49399e-05
-1.33348e-07
4.35318e-06
-9.48137e-09
2.33323e-06
-6.20917e-10
1.49205e-07
-3.76022e-11
7.46346e-09
-2.13095e-12
3.27032e-10
-9.61479e-14
1.1126e-11
-1.17228e-14
2.80511e-13
-6.2145e-15
8.51967e-15
-2.85076e-14
1.67009e-14
-8.78311e-15
8.54862e-06
-2.90262e-06
4.88087e-06
4.64552e-07
1.79527e-05
-8.19177e-15
3.75025e-14
-9.80696e-15
3.97058e-14
-1.17081e-14
4.32923e-14
-1.53643e-14
4.86454e-14
-1.76929e-14
6.18403e-14
-1.94813e-14
7.26357e-14
-2.37687e-14
6.98434e-14
-2.65754e-14
7.28764e-14
-2.76154e-14
7.30523e-14
-2.97894e-14
7.11982e-14
-3.17769e-14
7.28576e-14
-2.28693e-14
9.69775e-14
-6.30843e-14
3.17132e-13
-7.20901e-13
3.81176e-12
9.22261e-14
1.27833e-11
5.12214e-11
-3.20548e-14
7.79202e-08
-7.82987e-08
2.9549e-06
-3.07978e-06
2.24577e-05
-3.91313e-05
3.45326e-05
-6.84258e-05
3.94959e-05
-7.04323e-05
3.98671e-05
-6.87178e-05
3.93731e-05
-6.65321e-05
1.5353e-05
-5.79097e-05
2.23021e-06
-7.65081e-06
1.41148e-06
-8.80538e-07
1.36508e-07
-7.9148e-08
9.71241e-09
-5.39319e-09
6.50111e-10
-3.47898e-10
3.86644e-11
-2.00712e-11
2.12117e-12
-9.87056e-13
1.03412e-13
-6.03836e-14
7.69496e-15
-1.36265e-14
3.92465e-15
-8.99178e-15
3.5078e-15
-6.85114e-15
9.54925e-15
-1.05045e-14
4.94329e-14
-2.12148e-14
1.79607e-06
-3.337e-15
3.65016e-06
2.51518e-06
2.54303e-05
-7.53077e-15
4.06593e-14
-8.70698e-15
4.10812e-14
-1.02604e-14
4.4827e-14
-1.30191e-14
5.00796e-14
-2.06911e-14
7.00373e-14
-2.14546e-14
8.46187e-14
-2.20766e-14
7.93793e-14
-2.39267e-14
7.60778e-14
-2.52763e-14
7.68838e-14
-2.64424e-14
7.63954e-14
-2.3747e-14
7.98857e-14
-3.94346e-14
1.26401e-13
-6.42152e-13
9.42614e-13
-1.42673e-11
1.38986e-11
2.6732e-12
1.19002e-11
6.0266e-13
-1.28503e-12
1.04711e-06
-1.12539e-06
1.91252e-05
-3.17827e-05
3.40305e-05
-6.88781e-05
3.80226e-05
-7.21583e-05
3.85027e-05
-7.0581e-05
3.81356e-05
-6.82219e-05
3.44508e-05
-6.26952e-05
1.09786e-05
-3.00046e-05
8.66462e-07
-1.07211e-06
7.80557e-08
-9.7425e-08
5.34389e-09
-6.6345e-09
3.45009e-10
-3.88538e-10
2.03016e-11
-2.17027e-11
1.03375e-12
-1.12885e-12
5.18065e-14
-6.37391e-14
6.37446e-15
-2.03473e-14
4.69338e-15
-1.21049e-14
4.3714e-15
-9.2047e-15
4.13561e-15
-7.79626e-15
1.43115e-14
-3.49089e-14
1.62438e-14
-2.37625e-14
5.38661e-15
6.62254e-16
3.48123e-06
1.19732e-06
2.93784e-05
-6.05184e-15
4.1734e-14
-7.09975e-15
4.27668e-14
-8.45292e-15
4.64362e-14
-1.30471e-14
5.51435e-14
-1.71843e-14
9.09206e-14
-1.64346e-14
9.08471e-14
-1.64523e-14
8.15706e-14
-1.79244e-14
8.18955e-14
-1.92091e-14
8.27077e-14
-2.2037e-14
8.34933e-14
-2.77504e-14
8.53662e-14
2.49482e-15
1.52651e-13
-5.4188e-13
1.55056e-12
-1.07954e-12
1.06453e-11
2.85568e-13
8.97969e-13
1.10426e-12
-2.00357e-12
9.26922e-06
-1.03983e-05
3.1589e-05
-6.36098e-05
3.61528e-05
-7.26258e-05
3.67172e-05
-7.19891e-05
3.61986e-05
-6.98842e-05
3.32013e-05
-6.49527e-05
1.87394e-05
-3.12391e-05
1.02539e-06
-2.74706e-06
8.61229e-08
-9.46453e-08
6.68577e-09
-5.88648e-09
3.92836e-10
-3.73899e-10
2.19263e-11
-1.83407e-11
1.08381e-12
-9.51666e-13
4.34866e-14
-1.04548e-13
1.17147e-14
-5.58304e-14
1.17979e-14
-4.3987e-14
1.1216e-14
-4.19834e-14
9.01036e-15
-2.60798e-14
1.27487e-14
-2.56817e-14
4.62824e-14
-5.9477e-14
3.67764e-14
-2.50677e-14
2.91973e-14
1.24146e-15
1.36763e-06
4.14039e-07
3.09849e-05
-4.37431e-15
4.31204e-14
-5.11979e-15
4.45221e-14
-6.29105e-15
4.80816e-14
-2.57503e-14
7.56205e-14
-1.37069e-14
2.16204e-13
-1.21384e-14
8.78554e-14
-1.09195e-14
8.089e-14
-1.15423e-14
8.70285e-14
-1.17217e-14
8.72723e-14
-1.21906e-14
8.85382e-14
-2.28123e-14
1.00672e-13
7.59699e-14
2.36206e-13
-6.174e-13
1.32991e-11
1.51131e-12
1.0856e-11
4.49261e-13
-1.19593e-13
1.09868e-11
-1.46207e-11
2.02795e-05
-1.53526e-05
3.35929e-05
-7.5115e-05
3.50411e-05
-7.28425e-05
3.42177e-05
-7.05295e-05
3.02476e-05
-6.5385e-05
1.7512e-05
-3.04153e-05
2.67846e-06
-2.49027e-06
9.35291e-08
-1.29763e-07
5.2334e-09
-5.35642e-09
2.75588e-10
-2.58894e-10
1.8651e-11
-1.35037e-11
9.7247e-13
-9.08253e-13
7.77358e-14
-1.60096e-13
4.0977e-14
-1.09869e-13
4.25708e-14
-9.81769e-14
4.61798e-14
-9.54736e-14
4.7261e-14
-9.25531e-14
3.66476e-14
-6.46022e-14
4.14567e-14
-3.99539e-14
1.10043e-13
-8.83454e-14
1.21528e-13
-3.29135e-14
1.12884e-13
2.79255e-15
3.89344e-07
2.46952e-08
3.13579e-05
-1.24434e-15
5.28626e-14
-1.15438e-13
7.24564e-13
-1.61923e-13
4.28533e-12
-5.63633e-14
4.64675e-12
-7.20118e-15
2.46578e-13
-5.14692e-15
8.39086e-14
-2.81404e-14
1.0491e-13
-2.94152e-13
6.79329e-12
-1.38742e-13
2.30304e-11
-1.20388e-15
2.28239e-11
2.03242e-15
1.10028e-13
1.31427e-13
1.26299e-13
4.12687e-12
1.65048e-11
7.21623e-12
9.36164e-12
4.72183e-12
-2.98153e-13
9.2751e-11
-1.05051e-10
2.16243e-05
-5.11528e-06
3.25205e-05
-5.71999e-05
3.10793e-05
-6.9546e-05
2.66559e-05
-6.4965e-05
1.22468e-05
-2.06985e-05
2.52845e-06
-1.44162e-06
1.30653e-07
-6.93841e-08
5.44195e-09
-3.52028e-09
2.77553e-10
-1.45568e-10
1.35251e-11
-8.52903e-12
8.07966e-13
-7.70376e-13
1.03467e-13
-2.03221e-13
7.02314e-14
-1.39585e-13
7.42885e-14
-1.28143e-13
8.03757e-14
-1.20778e-13
8.53983e-14
-1.15142e-13
8.31593e-14
-1.01862e-13
6.76192e-14
-7.3694e-14
6.83451e-14
-3.92187e-14
1.79774e-13
-1.29378e-13
1.80972e-13
-4.11631e-14
1.68928e-13
8.30448e-15
2.29517e-08
1.74371e-09
3.6887e-05
-1.09183e-15
1.25261e-13
-1.79147e-15
3.80462e-12
9.65036e-15
4.57552e-12
3.03722e-14
4.91922e-12
3.74842e-16
2.84652e-13
3.35537e-15
8.79455e-14
2.51765e-14
8.89247e-14
1.96585e-12
1.25405e-11
3.781e-12
3.78144e-11
2.86857e-12
3.60568e-11
2.81772e-12
2.90182e-11
5.34498e-13
4.51208e-12
8.77598e-12
1.40486e-11
9.88262e-12
1.54989e-12
8.08464e-12
-2.74466e-13
7.71398e-10
-8.7038e-10
4.79264e-06
-6.34837e-10
2.08775e-05
-8.25708e-06
2.08408e-05
-2.37544e-05
7.1507e-06
-1.32488e-06
1.50721e-06
-6.81228e-08
7.2485e-08
-5.60839e-09
3.36534e-09
-1.25468e-09
1.30367e-10
-2.28475e-10
6.2277e-12
-2.60551e-11
4.52301e-13
-2.75416e-12
1.12994e-13
-4.20257e-13
9.21068e-14
-1.83735e-13
9.77846e-14
-1.48582e-13
1.02728e-13
-1.39543e-13
1.04804e-13
-1.26782e-13
1.058e-13
-1.13559e-13
1.01912e-13
-9.53639e-14
8.70701e-14
-6.58695e-14
8.43152e-14
-3.45622e-14
2.97304e-13
-1.3549e-13
3.2724e-13
-2.1562e-14
3.10898e-13
1.88858e-14
1.59661e-09
1.47399e-10
4.51031e-05
9.55111e-14
1.7623e-13
2.48352e-13
2.92414e-12
3.75337e-13
4.75297e-12
4.5875e-13
5.14024e-12
6.91756e-14
2.67777e-12
1.5282e-14
1.2478e-13
2.76858e-14
9.36048e-14
4.80403e-12
5.71396e-12
7.90953e-12
2.48343e-11
1.11227e-11
3.77607e-11
1.10473e-11
3.33018e-11
9.24746e-13
2.97376e-11
3.88106e-12
3.99315e-12
3.26709e-12
4.37322e-13
1.16744e-12
-1.59349e-13
6.64199e-10
-4.96814e-13
2.99353e-11
-6.59605e-13
3.09387e-07
-2.3311e-12
1.38374e-06
-2.76944e-10
6.31424e-08
-4.47913e-09
2.92423e-09
-6.46661e-09
2.71412e-10
-3.34884e-09
6.60051e-11
-1.19202e-09
3.17807e-12
-1.88035e-10
5.6464e-13
-4.65611e-11
7.52935e-14
-3.20334e-12
9.32907e-14
-5.70297e-13
1.18002e-13
-2.16664e-13
1.26731e-13
-1.7122e-13
1.27972e-13
-1.55448e-13
1.26294e-13
-1.33054e-13
1.21457e-13
-1.08483e-13
1.13212e-13
-8.53431e-14
9.49171e-14
-5.54286e-14
8.9181e-14
-2.57518e-14
3.68191e-13
-5.08062e-14
4.48413e-13
1.09106e-13
4.15977e-13
4.02583e-14
1.33531e-10
1.42776e-11
4.96133e-05
1.28376e-13
1.98224e-13
3.14475e-13
7.05377e-13
9.78414e-13
4.39628e-12
4.16871e-13
1.66682e-12
1.4634e-12
7.22528e-12
7.25648e-14
6.34154e-13
2.54104e-14
1.64445e-13
2.71065e-13
5.50872e-12
8.69626e-12
1.5555e-11
1.52603e-11
2.92399e-11
2.02765e-11
3.23825e-11
6.37732e-12
1.45105e-11
-7.82091e-13
3.36305e-12
1.13384e-12
7.45974e-13
8.49388e-13
-1.70587e-13
5.50806e-13
-5.10793e-13
3.71025e-13
-5.48737e-13
4.27847e-13
-2.47751e-12
1.32842e-11
-2.88502e-10
2.03446e-10
-4.64112e-09
1.1945e-09
-7.3e-09
1.46888e-09
-2.22586e-09
2.85019e-10
-3.11631e-10
1.43591e-10
-1.28104e-09
-1.18136e-11
-1.01634e-10
-1.40519e-12
-1.58556e-11
-8.71703e-14
-2.0305e-12
1.22728e-13
-4.56456e-13
1.61197e-13
-2.27784e-13
1.62726e-13
-1.75437e-13
1.52554e-13
-1.39927e-13
1.39267e-13
-1.03348e-13
1.24554e-13
-7.4298e-14
1.02513e-13
-4.32019e-14
9.81628e-14
-1.36476e-14
2.6014e-13
1.21991e-14
3.34429e-13
2.5084e-13
1.81293e-13
1.17826e-13
1.28227e-11
1.6521e-12
3.56549e-05
8.68285e-14
1.47528e-13
2.75244e-13
6.14239e-13
5.69523e-13
1.91291e-12
3.72094e-13
1.58287e-12
1.18784e-12
2.75178e-12
3.0137e-13
1.43127e-12
6.57579e-10
2.52181e-09
4.52471e-11
1.17373e-09
6.27351e-12
5.47921e-11
1.52089e-11
1.82095e-11
1.26291e-11
7.45851e-12
4.75381e-12
1.93157e-12
8.9203e-13
2.50806e-12
8.89642e-13
9.19205e-13
1.05624e-12
-7.56627e-14
8.02798e-13
-2.91618e-13
6.60502e-13
-4.8427e-13
1.32692e-11
-1.51202e-11
4.42418e-10
-7.04231e-10
6.56671e-09
-9.36974e-09
2.03343e-08
-6.43828e-08
1.54314e-08
-8.6723e-08
1.33557e-09
-2.06228e-08
-3.65242e-10
-3.36485e-09
-4.01323e-11
-4.81706e-10
-6.00031e-12
-5.28862e-11
-9.09769e-13
-7.65462e-12
5.37718e-15
-1.31097e-12
1.7564e-13
-3.48566e-13
1.93201e-13
-1.84019e-13
1.81643e-13
-1.34054e-13
1.62428e-13
-9.36142e-14
1.44343e-13
-6.07284e-14
1.18928e-13
-2.72985e-14
1.09981e-13
3.32971e-15
1.75303e-13
3.31185e-14
3.00488e-13
3.3841e-13
8.66434e-14
2.01785e-13
1.65185e-12
1.62597e-13
-4.13119e-09
7.36719e-14
4.667e-14
5.6613e-13
1.68104e-12
4.47229e-13
1.74782e-12
4.98534e-13
1.24758e-12
1.50832e-12
1.45801e-12
1.28303e-09
2.20383e-09
1.74679e-09
3.27503e-09
6.33407e-10
4.04716e-09
5.29843e-11
7.23339e-10
2.51439e-12
6.54616e-11
1.42294e-12
7.68417e-12
1.84245e-12
1.33308e-12
2.16874e-12
3.6328e-13
1.25901e-12
8.79634e-14
9.73911e-13
-3.95765e-14
8.66076e-13
-2.38846e-13
1.3189e-12
-9.79345e-13
2.17944e-10
-2.36499e-10
1.32863e-08
-1.36279e-08
5.57923e-08
-5.44405e-08
7.15987e-08
-8.25008e-08
7.57807e-08
-8.7458e-08
8.4087e-09
-6.4124e-08
-6.22303e-10
-8.01182e-09
-7.9106e-11
-1.16051e-09
-1.14367e-11
-1.26264e-10
-1.77097e-12
-1.87574e-11
-1.26202e-13
-2.95616e-12
1.55555e-13
-5.63867e-13
1.93828e-13
-1.85361e-13
1.90006e-13
-1.10224e-13
1.77398e-13
-7.03667e-14
1.64111e-13
-4.06551e-14
1.47867e-13
-7.9967e-15
1.30509e-13
2.33974e-14
1.14184e-13
5.36241e-14
3.15314e-13
2.81978e-13
6.57781e-14
2.84172e-13
1.98785e-13
5.3911e-14
-2.76693e-09
4.70222e-14
2.28957e-14
1.90001e-12
1.25317e-12
2.28889e-12
7.38698e-12
1.14035e-12
2.23374e-12
1.11887e-12
1.27647e-12
1.22813e-09
1.2574e-09
2.37229e-09
3.29777e-09
3.78312e-10
4.29933e-09
5.82848e-11
7.81882e-10
1.01701e-11
1.13074e-10
2.40647e-12
1.54635e-11
1.10632e-12
2.80912e-12
9.65269e-13
7.81462e-13
1.22756e-12
2.68492e-13
1.13191e-12
-2.91393e-14
1.06644e-12
-2.94959e-13
1.02712e-11
-1.07952e-11
3.04201e-09
-3.26191e-09
7.17625e-08
-3.0539e-08
9.13556e-08
-7.04618e-08
9.48884e-08
-8.33611e-08
9.49802e-08
-8.58958e-08
2.67825e-08
-8.10404e-08
4.6281e-10
-5.0108e-09
3.31308e-11
-9.12718e-10
3.91441e-12
-1.04681e-10
3.14134e-13
-1.64158e-11
1.12194e-13
-2.69835e-12
1.58937e-13
-5.2465e-13
1.73263e-13
-1.60241e-13
1.72165e-13
-8.25847e-14
1.65808e-13
-4.89551e-14
1.61479e-13
-2.1592e-14
1.54474e-13
9.46975e-15
1.39826e-13
4.38092e-14
1.21774e-13
7.7607e-14
2.41945e-13
1.74568e-13
1.25502e-13
1.66709e-13
2.14062e-13
3.96001e-14
-2.18402e-09
3.16496e-14
1.7502e-14
1.34008e-12
1.11517e-12
3.94393e-12
7.2253e-12
2.81306e-12
7.24733e-12
2.68238e-12
1.24959e-12
5.51856e-10
6.51373e-11
2.61162e-09
7.24345e-10
2.65736e-09
4.97334e-09
1.94539e-09
1.07171e-08
2.85414e-10
1.79049e-09
4.51138e-11
2.58171e-10
7.55566e-12
4.1542e-11
1.92285e-12
7.01296e-12
1.40531e-12
9.72024e-13
1.83782e-12
-2.45667e-13
4.07022e-12
-2.40357e-12
1.93014e-10
-1.99892e-10
4.502e-08
-2.1782e-08
1.08965e-07
-5.2473e-08
1.17451e-07
-7.46208e-08
1.15177e-07
-7.75558e-08
9.13847e-08
-5.66542e-08
4.65338e-09
-1.59892e-08
7.75124e-10
-1.38878e-09
7.94427e-11
-2.61573e-10
1.13384e-11
-3.55584e-11
1.69534e-12
-5.8994e-12
3.58046e-13
-1.04726e-12
1.88787e-13
-2.44799e-13
1.67309e-13
-1.00682e-13
1.62177e-13
-5.94501e-14
1.56113e-13
-3.33488e-14
1.53093e-13
-6.98598e-15
1.53859e-13
2.3173e-14
1.45756e-13
6.23962e-14
1.24234e-13
1.05657e-13
1.08963e-13
9.27683e-14
4.36111e-14
9.9744e-14
5.02781e-15
1.41615e-13
-2.18403e-09
2.16183e-14
1.49921e-14
1.13516e-12
1.08872e-13
6.80389e-12
4.44468e-12
8.90048e-12
6.88286e-12
6.99569e-12
2.98699e-12
6.68352e-11
4.6188e-12
7.08493e-10
7.95956e-11
2.35423e-08
5.6734e-09
2.93697e-08
1.82447e-08
1.76906e-08
1.54226e-08
7.04208e-09
1.06475e-08
1.96723e-09
3.7112e-09
2.21144e-10
1.75795e-09
4.42486e-11
1.76023e-10
3.94293e-11
4.20437e-12
8.8645e-11
-5.10843e-11
4.32189e-09
-4.41836e-09
1.16843e-07
-3.41458e-08
1.36063e-07
-6.71538e-08
1.28371e-07
-6.33468e-08
9.55172e-08
-4.38756e-08
1.57536e-08
-1.47931e-08
1.37502e-09
-1.739e-09
2.48366e-10
-2.52492e-10
3.33859e-11
-4.44603e-11
5.4293e-12
-6.73811e-12
9.7533e-13
-1.18707e-12
2.80664e-13
-2.70399e-13
1.78942e-13
-1.14211e-13
1.69195e-13
-7.4019e-14
1.62004e-13
-4.85898e-14
1.54689e-13
-2.27472e-14
1.50186e-13
5.2955e-15
1.4938e-13
3.65677e-14
1.47971e-13
7.69202e-14
1.26415e-13
1.33432e-13
1.16067e-13
1.01231e-13
1.39217e-13
1.04438e-13
1.25508e-09
6.82649e-09
-9.28952e-10
1.80124e-14
1.27247e-14
1.09975e-13
2.04738e-14
4.31411e-12
2.05368e-12
6.6743e-12
6.27088e-12
2.48285e-12
2.40599e-12
6.47235e-12
2.33069e-13
7.97643e-11
5.99071e-12
2.05246e-08
4.95245e-09
2.92353e-08
1.0929e-08
3.29379e-08
1.25045e-08
3.36169e-08
1.06515e-08
3.0048e-08
7.97404e-09
1.44371e-08
3.89251e-09
6.40667e-10
5.33395e-10
1.12279e-09
-4.68684e-10
1.25598e-09
-1.89052e-10
7.56014e-08
-1.41068e-10
1.46587e-07
-1.93252e-08
1.15252e-07
-2.20417e-08
7.11042e-08
-1.47626e-08
1.63101e-08
-2.2835e-09
1.98471e-09
-3.79238e-10
2.88736e-10
-5.10047e-11
4.82879e-11
-7.88115e-12
7.70845e-12
-1.50385e-12
1.39243e-12
-3.5099e-13
3.51945e-13
-1.41655e-13
2.0358e-13
-1.01773e-13
1.86347e-13
-8.689e-14
1.80068e-13
-6.58178e-14
1.72623e-13
-4.12321e-14
1.62883e-13
-1.30801e-14
1.53198e-13
1.80655e-14
1.47803e-13
5.1117e-14
1.46282e-13
9.16498e-14
1.32064e-13
1.56311e-13
1.23517e-13
1.26226e-13
2.80084e-13
1.31556e-13
1.01877e-09
9.28076e-09
2.20514e-10
1.56114e-14
1.08364e-14
2.75111e-14
1.23884e-14
1.75206e-12
4.83417e-14
2.75393e-12
2.3453e-13
7.53214e-13
3.02836e-13
8.77049e-13
5.43299e-14
6.52193e-12
3.20771e-13
4.86879e-09
8.92834e-11
2.81668e-08
1.154e-09
3.34933e-08
7.90798e-09
3.64001e-08
8.33363e-09
3.89686e-08
6.08501e-09
4.06111e-08
2.83898e-09
1.27264e-08
-4.12753e-10
1.06916e-09
-1.97102e-10
7.8485e-10
-8.24315e-11
6.423e-10
-3.24705e-11
1.13966e-08
-5.14404e-11
1.75557e-08
-1.07323e-11
2.73502e-09
-1.53208e-12
4.49217e-10
-4.45711e-13
6.09372e-11
-2.06333e-13
1.01206e-11
-1.95534e-13
1.89262e-12
-1.59612e-13
5.02134e-13
-1.16894e-13
2.45626e-13
-1.08545e-13
1.9681e-13
-1.06306e-13
1.93582e-13
-9.45361e-14
1.966e-13
-8.09739e-14
1.92221e-13
-6.06598e-14
1.84268e-13
-3.37733e-14
1.73709e-13
-2.74546e-15
1.59952e-13
3.15912e-14
1.48846e-13
6.76339e-14
1.45981e-13
1.08445e-13
1.36451e-13
1.79728e-13
1.20935e-13
1.60627e-13
8.43192e-14
1.09172e-13
1.32701e-09
1.14856e-08
9.07958e-10
1.45678e-14
1.03167e-14
2.01445e-14
1.32946e-14
6.27486e-14
1.23641e-14
1.56307e-13
1.60679e-14
1.72716e-13
2.85234e-14
1.58543e-13
4.36983e-14
4.17203e-13
5.72315e-14
8.49363e-11
4.60249e-12
2.19061e-09
6.41159e-11
1.42966e-08
9.55914e-11
2.90495e-08
5.77972e-10
3.29172e-08
2.81173e-09
1.3158e-08
2.34858e-10
3.35927e-10
-2.26441e-10
1.6465e-10
-8.61489e-11
9.20676e-11
-1.65602e-11
6.26476e-11
-4.34296e-12
1.2368e-11
-1.3782e-12
1.82074e-12
-2.81974e-13
4.2085e-13
-1.00749e-13
2.33076e-13
-1.7409e-13
1.97129e-13
-2.18596e-13
1.97627e-13
-2.28517e-13
1.98098e-13
-1.7397e-13
1.94179e-13
-1.27186e-13
1.9465e-13
-1.2322e-13
1.98201e-13
-1.24074e-13
2.01057e-13
-1.07114e-13
2.06073e-13
-7.77357e-14
2.05482e-13
-5.5397e-14
2.00463e-13
-2.69559e-14
1.90351e-13
9.3613e-15
1.7386e-13
4.83056e-14
1.5568e-13
8.72884e-14
1.40952e-13
1.28679e-13
1.36466e-13
1.95614e-13
1.42539e-13
1.98238e-13
1.12653e-13
1.1161e-13
5.83555e-10
2.91065e-10
5.12252e-10
1.69173e-14
7.87187e-15
2.71331e-14
1.35416e-14
3.61309e-14
1.88471e-14
4.8624e-14
2.13588e-14
6.43445e-14
2.59004e-14
7.94763e-14
2.79135e-14
1.08209e-13
2.70979e-14
4.5539e-12
1.50719e-13
6.75085e-11
2.1706e-12
1.61728e-10
3.9646e-12
1.09126e-09
1.1197e-11
1.91441e-09
-3.2006e-12
6.79015e-10
-1.18055e-11
1.189e-10
-2.17447e-12
2.35998e-11
-3.36252e-13
5.92875e-12
-6.74805e-14
1.69525e-12
-3.72952e-14
3.96084e-13
-6.36585e-14
2.1337e-13
-7.65544e-14
2.31907e-13
-1.1283e-13
2.5898e-13
-1.5845e-13
2.7833e-13
-1.77334e-13
2.65173e-13
-1.80465e-13
2.3731e-13
-1.55949e-13
2.13314e-13
-1.25832e-13
2.16964e-13
-1.40954e-13
2.35275e-13
-1.56151e-13
2.36044e-13
-9.74279e-14
2.46195e-13
-8.17836e-14
2.46997e-13
-6.80219e-14
2.44217e-13
-2.94106e-14
2.27003e-13
2.7007e-14
1.71268e-13
7.78947e-14
1.39444e-13
1.10471e-13
1.18008e-13
1.41425e-13
1.20759e-13
1.92595e-13
1.09035e-13
2.20131e-13
1.93545e-14
1.24322e-13
6.89133e-11
3.17951e-11
-5.31508e-12
1.43408e-14
4.1801e-15
2.82819e-14
9.23712e-15
4.44392e-14
1.63658e-14
5.3499e-14
1.95732e-14
6.08771e-14
2.08289e-14
6.85426e-14
2.05956e-14
7.36972e-14
1.90807e-14
2.00508e-13
1.14546e-14
2.30794e-12
3.41176e-14
6.26423e-12
3.54034e-14
1.74154e-11
4.40897e-14
1.43517e-11
-1.15536e-13
2.57536e-12
-2.32488e-14
4.22352e-13
-1.51241e-14
1.15693e-13
-2.28056e-14
8.95758e-14
-2.77167e-14
9.55539e-14
-3.66187e-14
1.04202e-13
-6.05636e-14
1.82878e-13
-1.27483e-13
2.71661e-13
-1.52911e-13
3.0709e-13
-1.6757e-13
3.16593e-13
-1.63689e-13
2.93899e-13
-1.45594e-13
2.39449e-13
-1.04873e-13
2.30768e-13
-1.31094e-13
3.68896e-13
-2.79934e-13
5.38775e-13
-3.08751e-13
4.53173e-13
8.95662e-15
4.4123e-13
1.35052e-14
4.29684e-13
-2.79703e-14
3.5403e-13
-1.48213e-14
2.33454e-13
5.15976e-14
1.62795e-13
1.39834e-13
1.33825e-13
1.33738e-13
1.13593e-13
1.52937e-13
9.32455e-14
1.94646e-13
8.71702e-14
1.97254e-13
-1.74424e-14
1.40411e-13
1.83567e-11
1.51113e-11
-5.62644e-12
7.73638e-15
1.26578e-15
1.76476e-14
2.97505e-15
3.30486e-14
6.15692e-15
4.73921e-14
9.95045e-15
5.72886e-14
1.40521e-14
6.60946e-14
1.41587e-14
6.90228e-14
1.22475e-14
6.71e-14
8.69747e-15
8.29951e-14
4.54173e-15
1.12857e-13
1.15851e-15
1.63712e-13
-2.42795e-15
6.91457e-14
-7.8681e-15
6.26376e-14
-9.91916e-15
6.61559e-14
-1.31093e-14
6.93743e-14
-1.96188e-14
7.78633e-14
-2.83058e-14
1.24546e-13
-5.95856e-14
2.25485e-13
-1.10307e-13
2.70755e-13
-1.34275e-13
2.90152e-13
-1.44093e-13
2.9008e-13
-1.39283e-13
2.46916e-13
-1.11315e-13
1.60497e-13
-6.93387e-14
1.46012e-13
-9.09344e-14
4.1869e-13
-4.09662e-13
1.71224e-12
-1.67958e-12
3.04881e-12
-1.65736e-12
1.88763e-12
1.34602e-12
9.42811e-13
1.12357e-12
6.37135e-13
4.98862e-13
3.91088e-13
1.0014e-14
3.11902e-13
9.75521e-14
2.09292e-12
9.45749e-12
4.61743e-12
6.77891e-11
1.41346e-12
1.88349e-11
1.22783e-13
1.47411e-12
5.77352e-14
2.26026e-13
2.62976e-14
1.4736e-13
7.03433e-12
8.72565e-12
1.73998e-12
3.18586e-15
2.98151e-16
6.57109e-15
6.05158e-16
1.25239e-14
1.05981e-15
2.2185e-14
1.83456e-15
3.60764e-14
2.94232e-15
5.08131e-14
4.61451e-15
5.7211e-14
4.61605e-15
6.02186e-14
3.2152e-15
5.4827e-14
6.21996e-16
4.76319e-14
-1.32351e-15
4.81884e-14
-3.23052e-15
5.05501e-14
-5.7972e-15
5.57259e-14
-1.02805e-14
6.47451e-14
-1.64929e-14
8.21461e-14
-2.89348e-14
1.27201e-13
-5.79777e-14
2.01316e-13
-7.71573e-14
2.37868e-13
-1.08492e-13
2.43688e-13
-1.07825e-13
2.33533e-13
-1.0652e-13
1.6807e-13
-6.80826e-14
1.00643e-13
-4.6825e-14
8.69935e-14
-5.67918e-14
2.58051e-13
-2.65812e-13
2.6536e-12
-2.82384e-12
1.31759e-11
-1.29158e-11
2.46716e-11
-1.36102e-11
1.47986e-11
1.14982e-11
6.09748e-12