/*--------------------------------*- C++ -*----------------------------------*\
| =========                 |                                                 |
| \\      /  F ield         | OpenFOAM: The Open Source CFD Toolbox           |
|  \\    /   O peration     | Version:  5.0                                   |
|   \\  /    A nd           | Web:      www.OpenFOAM.org                      |
|    \\/     M anipulation  |                                                 |
\*---------------------------------------------------------------------------*/
FoamFile
{
    version     2.0;
    format      ascii;
    class       volScalarField;
    location    "0.6";
    object      p;
}
// * * * * * * * * * * * * * * * * * * * * * * * * * * * * * * * * * * * * * //

dimensions      [1 -1 -2 0 0 0 0];

internalField   nonuniform List<scalar> 
1935
(
-1.9827
-2.07822
-2.1752
-2.27302
-2.37103
-2.46865
-2.56534
-2.66064
-2.75416
-2.84564
-2.93493
-3.02202
-3.10704
-3.1902
-3.27181
-3.35222
-3.43183
-3.51105
-3.59022
-3.66969
-3.74971
-3.83048
-3.91214
-3.99474
-4.0783
-4.16279
-4.24812
-4.33419
-4.42091
-4.5082
-4.59599
-4.68423
-4.77287
-4.86192
-4.95141
-5.0414
-5.13196
-5.22316
-5.31507
-5.40771
-5.50111
-5.59535
-5.68971
-1.97022
-1.95705
-1.94292
-1.92791
-2.06953
-2.06065
-2.05147
-2.0422
-2.17048
-2.16604
-2.16203
-2.15878
-2.2723
-2.27241
-2.27371
-2.27667
-2.37429
-2.37891
-2.38552
-2.39472
-2.47573
-2.48471
-2.49646
-2.51177
-2.57596
-2.58899
-2.60557
-2.62663
-2.6744
-2.69107
-2.71198
-2.73824
-2.77059
-2.79033
-2.81494
-2.84568
-2.86418
-2.88637
-2.91392
-2.94823
-2.95498
-2.97892
-3.00858
-3.04547
-3.04299
-3.06797
-3.09887
-3.13726
-3.12835
-3.1537
-3.185
-3.22386
-3.21135
-3.23642
-3.26735
-3.30571
-3.29234
-3.31661
-3.34647
-3.38346
-3.37178
-3.39481
-3.42305
-3.45794
-3.45018
-3.47166
-3.49788
-3.53015
-3.52803
-3.54779
-3.57175
-3.6011
-3.60581
-3.62378
-3.64539
-3.67166
-3.6839
-3.70013
-3.71941
-3.7426
-3.76264
-3.77725
-3.79434
-3.81458
-3.84228
-3.85545
-3.87058
-3.88817
-3.92295
-3.93489
-3.94837
-3.9637
-4.00471
-4.01563
-4.02776
-4.04126
-4.08754
-4.0976
-4.10864
-4.12071
-4.17136
-4.18067
-4.19081
-4.20179
-4.25607
-4.26469
-4.27406
-4.28415
-4.34155
-4.34951
-4.35816
-4.36747
-4.42769
-4.435
-4.44295
-4.45153
-4.51441
-4.52108
-4.52833
-4.53618
-4.60165
-4.60769
-4.61426
-4.62136
-4.68935
-4.69478
-4.70068
-4.70705
-4.77747
-4.78232
-4.78756
-4.79321
-4.86602
-4.87031
-4.87492
-4.87986
-4.95502
-4.95876
-4.96276
-4.96703
-5.04453
-5.04776
-5.05117
-5.05478
-5.13463
-5.13736
-5.14023
-5.14323
-5.2254
-5.22767
-5.23003
-5.23247
-5.3169
-5.31875
-5.32065
-5.32259
-5.40916
-5.41062
-5.41211
-5.41361
-5.50221
-5.50331
-5.50443
-5.50556
-5.59613
-5.59692
-5.59773
-5.59853
-5.69008
-5.69046
-5.69084
-5.69124
-1.91152
-1.89392
-1.87584
-1.85746
-1.83899
-1.82044
-1.80162
-1.78197
-1.76043
-1.73527
-1.70392
-1.66271
-1.60671
-1.52958
-1.42349
-1.27939
-1.08761
-0.83572
-0.499831
-0.0316572
0.631707
1.35627
1.92962
2.15728
2.06372
1.96198
2.26775
6.87148
31.3083
70.5566
105.418
128.793
142.382
142.795
130.321
116.778
113.38
129.888
182.876
266.691
-2.03279
-2.02385
-2.01603
-2.00984
-2.00577
-2.00417
-2.00514
-2.00837
-2.01297
-2.01721
-2.01827
-2.0118
-1.99148
-1.94869
-1.87236
-1.75031
-1.57239
-1.32793
-0.995782
-0.534684
0.242552
1.32446
2.17545
2.38099
2.17541
2.05963
4.47886
20.9096
49.6128
77.9836
103.049
119.872
123.218
108.986
88.3545
66.8629
53.754
67.5337
124.726
213.386
-2.15676
-2.15704
-2.16028
-2.16733
-2.17907
-2.19626
-2.21938
-2.24847
-2.28291
-2.32102
-2.3596
-2.39306
-2.41245
-2.40492
-2.35397
-2.24334
-2.06752
-1.83364
-1.55107
-1.27887
-0.663876
1.99244
2.94978
2.98086
2.87806
3.23532
11.4423
31.7706
54.5597
74.344
83.7104
73.7758
49.6967
29.5023
24.3739
19.8537
-0.972258
1.01071
56.6131
145.16
-2.28232
-2.29227
-2.30717
-2.32832
-2.35704
-2.39456
-2.44186
-2.49947
-2.5671
-2.64318
-2.72385
-2.80127
-2.86195
-2.88624
-2.84938
-2.7272
-2.5179
-2.25112
-1.92438
-1.44981
-0.897843
-3.32965
-1.8098
2.50867
5.38682
5.33254
17.1897
31.3352
40.8641
37.7777
22.8204
6.72876
-1.81218
-2.03866
-2.38409
-2.81199
-15.2403
-39.7774
-5.19437
76.3494
-2.40815
-2.42796
-2.45489
-2.49067
-2.53714
-2.59609
-2.66911
-2.75732
-2.86094
-2.97851
-3.10514
-3.2297
-3.33212
-3.38434
-3.35136
-3.18368
-2.85862
-2.47726
-2.17503
-1.30341
-3.81871
-7.46143
-9.12096
-5.69427
0.818855
0.302057
10.0087
12.3252
7.53338
-1.25614
-2.84386
-3.00598
-3.16935
-3.17636
-3.11935
-3.22698
-5.07266
-27.4667
-42.722
21.4546
-2.53284
-2.56244
-2.60137
-2.65188
-2.71635
-2.79719
-2.8967
-3.01676
-3.15829
-3.32003
-3.4959
-3.67082
-3.81751
-3.90044
-3.87682
-3.63316
-3.01599
-2.76209
-4.96182
-6.77392
-5.11147
-6.61598
-8.92131
-8.38392
-7.76219
-6.1801
-4.19262
-3.73552
-3.45024
-3.34355
-3.4386
-3.43718
-3.26185
-3.18044
-3.1397
-3.10511
-3.50192
-7.77
-44.3923
-18.3699
-2.65497
-2.69394
-2.74445
-2.80924
-2.89127
-2.99361
-3.11937
-3.27136
-3.45139
-3.65863
-3.88601
-4.11524
-4.31447
-4.44403
-4.46085
-4.25453
-3.50555
-3.45805
-9.26492
-8.15073
-7.1623
-8.32901
-7.55818
-4.75435
-4.36287
-4.06321
-3.94718
-3.84916
-3.74647
-3.61364
-3.47855
-3.37764
-3.2571
-3.18344
-3.14363
-3.06844
-2.90363
-3.2749
-15.4887
-30.687
-2.77321
-2.82077
-2.88195
-2.95998
-3.05833
-3.18077
-3.33123
-3.51356
-3.73063
-3.98214
-4.26014
-4.54348
-4.79836
-4.97448
-4.91041
-4.22532
-6.22773
-8.3011
-8.54947
-8.46486
-9.30523
-8.44498
-4.00078
-3.79265
-3.97756
-3.92333
-3.91324
-3.84403
-3.74085
-3.61894
-3.49573
-3.39269
-3.29773
-3.22444
-3.16998
-3.08351
-2.86671
-2.97359
-7.08878
-20.8188
-2.88638
-2.9414
-3.01187
-3.10143
-3.21403
-3.35401
-3.52614
-3.7353
-3.98549
-4.27743
-4.60382
-4.94387
-5.26677
-5.54215
-5.60204
-4.08937
-4.61525
-6.03068
-7.48556
-8.59885
-7.30884
-3.40255
-3.98197
-4.27633
-4.11328
-4.03743
-3.97731
-3.88288
-3.77072
-3.65361
-3.53999
-3.4371
-3.34471
-3.26874
-3.21364
-3.16641
-3.07358
-2.96584
-4.23351
-4.31425
-2.99354
-3.05458
-3.13252
-3.23131
-3.35523
-3.50905
-3.69817
-3.92834
-4.20449
-4.52835
-4.89512
-5.29009
-5.68636
-6.04885
-6.45388
-7.6654
-6.64539
-1.28485
-2.04546
-3.19342
-1.23626
-3.91292
-4.54356
-4.39165
-4.2674
-4.16162
-4.05846
-3.94474
-3.82463
-3.70381
-3.58723
-3.47943
-3.38239
-3.29977
-3.23594
-3.18874
-3.12086
-2.98204
-3.51107
-1.37435
-3.09411
-3.15947
-3.24266
-3.34794
-3.47958
-3.6425
-3.84232
-4.08532
-4.37648
-4.71727
-5.10274
-5.51882
-5.93909
-6.33087
-6.77291
-7.81363
-7.32094
-1.74979
4.89881
1.70007
-5.0109
-4.93697
-4.7075
-4.55088
-4.40658
-4.274
-4.14698
-4.01825
-3.8879
-3.75877
-3.63446
-3.51848
-3.41283
-3.31911
-3.23881
-3.17005
-3.09378
-2.99466
-3.27613
0.888926
-3.18785
-3.25568
-3.34191
-3.45061
-3.58602
-3.75269
-3.95591
-4.20244
-4.49656
-4.83822
-5.22102
-5.62978
-6.04
-6.43113
-6.83643
-7.35505
-7.2247
-6.9717
-6.75991
-6.16791
-5.50047
-5.1394
-4.88658
-4.69424
-4.53104
-4.38326
-4.24139
-4.10003
-3.95878
-3.81982
-3.68596
-3.55961
-3.44185
-3.33243
-3.22946
-3.13101
-3.04856
-3.01699
-2.96485
10.2061
-3.27502
-3.34351
-3.4304
-3.5396
-3.67501
-3.84015
-4.03948
-4.28037
-4.56677
-4.89599
-5.26033
-5.64355
-6.02105
-6.36715
-6.6714
-6.93
-6.94829
-6.70804
-6.49708
-6.18731
-5.73816
-5.31195
-4.99826
-4.79547
-4.64136
-4.4921
-4.34189
-4.19109
-4.04037
-3.89193
-3.74813
-3.61044
-3.47883
-3.35145
-3.22305
-3.08914
-2.98846
-3.02076
-2.51394
21.5502
-3.35617
-3.42361
-3.50905
-3.61624
-3.74853
-3.90726
-4.09752
-4.32633
-4.59577
-4.9024
-5.23861
-5.58847
-5.92858
-6.23277
-6.47787
-6.646
-6.67491
-6.56767
-6.44087
-6.20466
-5.82888
-5.40344
-5.06707
-4.87528
-4.75047
-4.60835
-4.45436
-4.29708
-4.13897
-3.98248
-3.82987
-3.68206
-3.53838
-3.3964
-3.24924
-3.08669
-2.94041
-2.93195
-2.40285
13.2916
-3.43206
-3.49693
-3.57897
-3.68158
-3.80696
-3.95606
-4.13434
-4.34699
-4.59328
-4.87078
-5.17415
-5.48892
-5.79248
-6.06149
-6.2735
-6.41065
-6.45063
-6.41445
-6.33103
-6.14246
-5.844
-5.50756
-5.20424
-5.01982
-4.89391
-4.74747
-4.58866
-4.4263
-4.26278
-4.10052
-3.94172
-3.78723
-3.63651
-3.48789
-3.33624
-3.16826
-2.9775
-2.88164
-3.33332
-0.562665
-3.5037
-3.56466
-3.64148
-3.73694
-3.85218
-3.98992
-4.15451
-4.34646
-4.56302
-4.80863
-5.08133
-5.36544
-5.63757
-5.87897
-6.07035
-6.19627
-6.24719
-6.24531
-6.18361
-6.04157
-5.833
-5.59306
-5.38676
-5.23057
-5.0744
-4.91268
-4.74953
-4.58507
-4.41963
-4.25526
-4.09408
-3.9372
-3.78476
-3.63589
-3.4873
-3.33191
-3.16404
-3.03623
-3.19935
-2.25217
-3.57238
-3.6285
-3.69899
-3.78615
-3.89149
-4.01817
-4.16703
-4.33515
-4.52495
-4.74551
-4.99166
-5.24459
-5.48678
-5.70599
-5.88226
-6.00253
-6.06128
-6.08232
-6.06383
-5.98251
-5.83061
-5.67038
-5.55522
-5.42417
-5.25744
-5.09418
-4.93651
-4.77772
-4.61685
-4.45582
-4.29684
-4.1415
-3.99051
-3.84306
-3.69597
-3.54285
-3.37528
-3.19233
-3.06337
-2.66149
-3.63939
-3.69021
-3.75401
-3.83304
-3.92955
-4.04648
-4.18186
-4.3277
-4.49055
-4.68818
-4.91294
-5.14236
-5.36643
-5.5666
-5.7252
-5.83812
-5.90952
-5.95226
-5.96952
-5.92659
-5.8482
-5.77112
-5.68711
-5.56905
-5.42803
-5.29
-5.15251
-5.01022
-4.86272
-4.71197
-4.56048
-4.41049
-4.26299
-4.11659
-3.96773
-3.80982
-3.63072
-3.41465
-3.16882
-2.85472
-3.70578
-3.75096
-3.80767
-3.878
-3.96434
-4.06959
-4.19053
-4.31721
-4.45946
-4.63345
-4.82746
-5.02906
-5.23802
-5.43535
-5.59099
-5.70051
-5.78472
-5.83331
-5.85264
-5.85834
-5.8502
-5.8254
-5.77447
-5.69619
-5.60518
-5.5085
-5.40424
-5.29007
-5.16594
-5.03354
-4.89568
-4.75525
-4.61352
-4.46878
-4.31757
-4.15464
-3.96999
-3.74798
-3.47771
-3.21023
-3.77246
-3.81181
-3.86104
-3.92188
-3.99605
-4.08564
-4.19065
-4.30263
-4.42095
-4.55916
-4.72375
-4.90727
-5.09178
-5.26527
-5.41704
-5.54327
-5.64867
-5.7206
-5.75901
-5.79518
-5.82874
-5.85306
-5.85464
-5.83507
-5.80121
-5.75545
-5.6967
-5.62306
-5.53357
-5.42901
-5.31203
-5.18608
-5.05276
-4.91101
-4.75837
-4.59131
-4.40321
-4.18088
-3.90599
-3.64533
-3.84033
-3.87396
-3.9158
-3.96722
-4.02937
-4.10318
-4.18877
-4.28373
-4.38883
-4.50507
-4.63091
-4.77106
-4.92632
-5.08117
-5.22947
-5.37049
-5.4936
-5.5945
-5.67693
-5.75419
-5.83048
-5.89697
-5.94956
-5.98904
-6.01663
-6.03164
-6.03128
-6.0117
-5.9697
-5.9042
-5.81679
-5.71068
-5.5882
-5.4499
-5.29525
-5.12269
-4.92795
-4.69737
-4.40955
-4.12064
-3.91016
-3.93851
-3.97349
-4.01625
-4.06767
-4.12828
-4.19801
-4.27593
-4.36194
-4.46052
-4.56956
-4.68048
-4.79796
-4.93503
-5.08845
-5.23495
-5.36824
-5.4908
-5.60613
-5.71952
-5.83254
-5.94302
-6.04959
-6.15164
-6.2479
-6.33498
-6.40684
-6.45591
-6.4753
-6.46096
-6.41237
-6.33162
-6.22166
-6.08542
-5.92517
-5.74221
-5.5351
-5.28942
-4.98293
-4.66578
-3.98245
-4.0062
-4.03517
-4.07034
-4.11252
-4.16224
-4.21961
-4.28446
-4.35686
-4.43802
-4.52681
-4.62367
-4.73422
-4.86184
-4.99878
-5.13616
-5.27206
-5.40772
-5.545
-5.68649
-5.83403
-5.98827
-6.1496
-6.31793
-6.49099
-6.66243
-6.82131
-6.95404
-7.04833
-7.09619
-7.09429
-7.04313
-6.94571
-6.80769
-6.63519
-6.43376
-6.20627
-5.94215
-5.62052
-5.2887
-4.05738
-4.07738
-4.10135
-4.13018
-4.16461
-4.20527
-4.25251
-4.30661
-4.36795
-4.43725
-4.51491
-4.60211
-4.70121
-4.81278
-4.93433
-5.06324
-5.19874
-5.34143
-5.49287
-5.65555
-5.83244
-6.0268
-6.24214
-6.48061
-6.73978
-7.00946
-7.27134
-7.50254
-7.68312
-7.80077
-7.84942
-7.82846
-7.7404
-7.59384
-7.39998
-7.17028
-6.91385
-6.62773
-6.29781
-5.96346
-4.13482
-4.15191
-4.172
-4.19581
-4.22404
-4.25734
-4.29625
-4.34126
-4.39296
-4.45209
-4.51945
-4.59611
-4.68338
-4.78208
-4.89204
-5.01282
-5.14457
-5.28836
-5.44632
-5.62196
-5.82054
-6.04944
-6.31727
-6.63023
-6.98601
-7.36933
-7.75121
-8.09415
-8.3678
-8.55675
-8.65386
-8.65734
-8.57089
-8.40607
-8.17957
-7.91017
-7.61515
-7.30166
-6.96698
-6.63553
-4.21439
-4.22933
-4.24656
-4.26663
-4.29017
-4.31781
-4.35014
-4.38778
-4.43142
-4.48182
-4.53989
-4.60668
-4.68336
-4.77092
-4.87002
-4.98117
-5.10523
-5.24386
-5.40006
-5.57914
-5.79011
-6.04666
-6.36498
-6.75677
-7.22019
-7.73394
-8.25375
-8.71666
-9.07983
-9.33103
-9.46592
-9.48229
-9.38487
-9.1891
-8.91746
-8.5962
-8.25139
-7.90256
-7.56068
-7.22567
-4.29562
-4.309
-4.32418
-4.34159
-4.36173
-4.38518
-4.41253
-4.44441
-4.48153
-4.52467
-4.57473
-4.6327
-4.69967
-4.77663
-4.86444
-4.96394
-5.07627
-5.20341
-5.34925
-5.52151
-5.73454
-6.01044
-6.37452
-6.84425
-7.41921
-8.07627
-8.75378
-9.34259
-9.77714
-10.0658
-10.2196
-10.2324
-10.1094
-9.87027
-9.54287
-9.15963
-8.75426
-8.35977
-8.00762
-7.61061
-4.37803
-4.39023
-4.4039
-4.41938
-4.43709
-4.45747
-4.48109
-4.50852
-4.54044
-4.57758
-4.62076
-4.67085
-4.72876
-4.79531
-4.87122
-4.95719
-5.05416
-5.16408
-5.29163
-5.44737
-5.65183
-5.93558
-6.3301
-6.85381
-7.51217
-8.30442
-9.16649
-9.90377
-10.3777
-10.6613
-10.814
-10.8104
-10.6535
-10.3658
-9.97901
-9.52878
-9.05265
-8.59013
-8.19392
-7.69736
-4.46125
-4.47244
-4.4849
-4.49889
-4.51472
-4.53278
-4.55352
-4.57745
-4.60516
-4.63727
-4.67447
-4.71744
-4.76684
-4.82319
-4.88685
-4.95804
-5.03721
-5.126
-5.22981
-5.36216
-5.54901
-5.82477
-6.21685
-6.73714
-7.42669
-8.35596
-9.44456
-10.2882
-10.7233
-10.9885
-11.1277
-11.1086
-10.9253
-10.5985
-10.1605
-9.64662
-9.09079
-8.53368
-8.02109
-7.44039
-4.54508
-4.55533
-4.56668
-4.57936
-4.59362
-4.60974
-4.6281
-4.64911
-4.67325
-4.70099
-4.73287
-4.76934
-4.81076
-4.85731
-4.90888
-4.96517
-5.02599
-5.09268
-5.17155
-5.2789
-5.44283
-5.69299
-6.04377
-6.51046
-7.20316
-8.2207
-9.37969
-10.2384
-10.6616
-10.914
-11.0607
-11.0457
-10.8562
-10.5103
-10.0378
-9.46722
-8.81135
-8.08444
-7.38791
-6.92948
-4.62944
-4.63874
-4.64901
-4.66043
-4.67321
-4.68756
-4.70377
-4.72216
-4.74307
-4.76686
-4.79387
-4.82433
-4.85836
-4.89578
-4.9361
-4.97852
-5.02245
-5.06924
-5.12645
-5.21161
-5.35013
-5.56103
-5.84853
-6.23916
-6.83512
-7.7521
-8.83089
-9.69886
-10.1649
-10.4245
-10.5833
-10.5857
-10.4092
-10.0641
-9.57468
-8.96266
-8.2213
-7.33517
-6.52633
-6.42337
-4.7143
-4.72262
-4.73179
-4.74196
-4.75326
-4.76588
-4.78003
-4.79592
-4.8138
-4.83389
-4.85636
-4.88129
-4.90856
-4.93775
-4.96809
-4.99851
-5.02832
-5.05929
-5.09993
-5.16638
-5.27695
-5.44265
-5.66488
-5.9574
-6.38748
-7.06825
-7.9969
-8.84697
-9.37421
-9.64214
-9.77465
-9.77984
-9.61862
-9.29203
-8.83177
-8.2743
-7.62624
-6.86718
-6.15004
-6.15857
-4.79963
-4.80697
-4.81503
-4.82392
-4.83374
-4.84464
-4.85674
-4.87021
-4.88517
-4.90176
-4.92002
-4.93988
-4.96107
-4.98303
-5.00486
-5.02548
-5.04448
-5.06418
-5.09203
-5.13993
-5.21963
-5.33819
-5.49746
-5.69897
-5.96756
-6.37851
-7.03232
-7.80699
-8.42818
-8.75151
-8.85371
-8.84296
-8.6951
-8.39869
-8.00467
-7.5563
-7.04926
-6.54304
-6.28622
-6.32673
-4.88545
-4.89182
-4.89877
-4.90638
-4.91473
-4.92391
-4.93401
-4.94512
-4.95731
-4.97061
-4.98498
-5.00026
-5.01611
-5.03193
-5.04689
-5.06011
-5.07138
-5.08255
-5.09887
-5.12815
-5.17774
-5.25226
-5.35402
-5.48334
-5.6381
-5.83952
-6.17104
-6.67993
-7.22884
-7.63936
-7.83488
-7.82688
-7.70007
-7.45563
-7.11945
-6.75198
-6.37362
-6.14696
-6.13412
-6.17913
-4.97181
-4.97723
-4.98309
-4.98945
-4.99636
-5.00387
-5.01205
-5.02091
-5.03049
-5.04075
-5.05161
-5.06288
-5.0742
-5.08504
-5.0947
-5.10246
-5.10805
-5.11249
-5.11885
-5.13183
-5.15602
-5.19453
-5.24884
-5.31917
-5.40226
-5.48966
-5.60286
-5.807
-6.09282
-6.377
-6.55819
-6.5918
-6.51625
-6.37853
-6.19701
-6.04106
-5.93205
-5.94855
-6.04082
-6.12247
-5.0588
-5.0633
-5.06812
-5.07328
-5.07882
-5.08476
-5.09112
-5.0979
-5.10508
-5.11261
-5.12038
-5.1282
-5.13577
-5.14265
-5.14827
-5.15203
-5.15353
-5.15307
-5.15207
-5.15309
-5.15899
-5.17218
-5.19389
-5.22379
-5.26011
-5.2981
-5.32516
-5.35642
-5.44549
-5.55953
-5.63077
-5.66754
-5.66887
-5.64109
-5.62045
-5.67614
-5.77511
-5.85074
-5.93715
-5.99368
-5.14653
-5.15017
-5.15402
-5.15807
-5.16235
-5.16684
-5.17154
-5.17643
-5.18147
-5.18659
-5.19168
-5.19658
-5.20106
-5.20479
-5.20734
-5.2082
-5.20695
-5.20342
-5.19804
-5.19196
-5.18694
-5.1849
-5.18742
-5.19473
-5.20557
-5.21808
-5.22846
-5.23175
-5.23058
-5.24317
-5.28778
-5.35704
-5.41861
-5.46863
-5.53331
-5.61644
-5.70838
-5.78974
-5.84846
-5.87299
-5.23512
-5.23799
-5.24096
-5.24403
-5.24718
-5.25039
-5.25364
-5.25688
-5.26006
-5.2631
-5.2659
-5.26833
-5.27024
-5.27139
-5.2715
-5.27024
-5.26726
-5.26229
-5.25519
-5.24624
-5.23643
-5.22733
-5.22066
-5.21765
-5.21844
-5.2224
-5.22933
-5.23925
-5.25111
-5.26619
-5.29335
-5.33917
-5.39535
-5.45817
-5.53405
-5.61655
-5.6923
-5.74814
-5.77775
-5.78487
-5.32466
-5.32686
-5.32908
-5.33131
-5.33352
-5.33566
-5.3377
-5.33957
-5.3412
-5.3425
-5.34339
-5.34374
-5.34343
-5.34234
-5.34031
-5.33722
-5.33305
-5.32782
-5.3211
-5.3125
-5.30236
-5.29203
-5.28291
-5.2767
-5.27447
-5.27649
-5.28294
-5.29476
-5.3132
-5.33877
-5.37183
-5.41338
-5.46296
-5.51876
-5.57858
-5.63615
-5.68318
-5.71442
-5.72758
-5.72735
-5.41519
-5.41683
-5.41844
-5.41999
-5.42146
-5.42277
-5.42388
-5.4247
-5.42515
-5.42513
-5.42451
-5.42316
-5.42096
-5.4178
-5.41361
-5.40844
-5.40283
-5.39792
-5.39318
-5.38729
-5.38007
-5.37199
-5.36443
-5.35887
-5.35665
-5.35858
-5.36496
-5.37617
-5.39294
-5.4161
-5.44587
-5.48162
-5.52185
-5.56431
-5.60597
-5.6428
-5.67134
-5.68956
-5.69595
-5.69424
-5.50673
-5.50793
-5.50907
-5.51013
-5.51106
-5.51182
-5.51232
-5.51249
-5.51222
-5.51141
-5.50988
-5.50749
-5.50404
-5.49939
-5.49321
-5.48485
-5.47513
-5.4699
-5.46955
-5.46773
-5.46491
-5.46136
-5.45772
-5.45498
-5.45431
-5.45665
-5.46249
-5.47198
-5.48526
-5.50254
-5.52389
-5.54888
-5.57633
-5.60464
-5.63127
-5.6541
-5.67132
-5.68192
-5.68516
-5.68384
-5.59937
-5.60022
-5.60103
-5.60177
-5.6024
-5.60286
-5.6031
-5.60305
-5.6026
-5.60164
-5.6
-5.59745
-5.59373
-5.5884
-5.57981
-5.563
-5.53604
-5.52799
-5.54425
-5.54887
-5.55135
-5.55391
-5.55614
-5.55811
-5.5604
-5.56367
-5.56849
-5.57517
-5.58379
-5.59435
-5.60678
-5.62085
-5.63601
-5.65135
-5.6656
-5.67748
-5.6861
-5.69112
-5.69254
-5.69122
-5.69164
-5.69207
-5.69246
-5.69281
-5.69309
-5.69324
-5.69323
-5.69299
-5.6924
-5.69131
-5.68941
-5.68619
-5.68071
-5.67123
-5.65316
-5.6138
-5.54288
-5.53244
-5.56986
-5.60413
-5.62612
-5.64173
-5.65404
-5.66392
-5.67188
-5.67848
-5.68423
-5.68957
-5.69471
-5.69963
-5.70419
-5.70818
-5.71144
-5.7139
-5.71554
-5.71641
-5.71666
-5.71652
-5.71633
-5.71677
)
;

boundaryField
{
    leftWall
    {
        type            calculated;
        value           nonuniform 0();
    }
    rightWall
    {
        type            calculated;
        value           nonuniform List<scalar> 
43
(
266.691
213.386
145.16
76.3494
21.4546
-18.3699
-30.687
-20.8188
-4.31425
-1.37435
0.888926
10.2061
21.5502
13.2916
-0.562665
-2.25217
-2.66149
-2.85472
-3.21023
-3.64533
-4.12064
-4.66578
-5.2887
-5.96346
-6.63553
-7.22567
-7.61061
-7.69736
-7.44039
-6.92948
-6.42337
-6.15857
-6.32673
-6.17913
-6.12247
-5.99368
-5.87299
-5.78487
-5.72735
-5.69424
-5.68384
-5.69122
-5.71677
)
;
    }
    lowerWall
    {
        type            calculated;
        value           nonuniform 0();
    }
    atmosphere
    {
        type            calculated;
        value           nonuniform List<scalar> 
45
(
-5.73641
-5.73645
-5.7365
-5.73656
-5.73663
-5.73671
-5.73678
-5.73682
-5.73684
-5.7368
-5.7367
-5.7365
-5.7362
-5.73576
-5.73516
-5.73438
-5.73344
-5.73237
-5.73125
-5.73024
-5.72956
-5.72936
-5.72904
-5.72904
-5.72904
-5.72904
-5.72904
-5.72904
-5.72904
-5.72904
-5.72904
-5.72904
-5.72904
-5.72904
-5.72904
-5.72904
-5.72904
-5.72904
-5.72904
-5.72904
-5.72904
-5.72904
-5.72904
-5.72904
-5.72904
)
;
    }
    defaultFaces
    {
        type            empty;
    }
    procBoundary3to1
    {
        type            processor;
        value           nonuniform List<scalar> 
45
(
-1.88927
-1.8732
-1.85598
-1.83716
-1.81677
-1.79389
-1.76833
-1.74088
-1.71151
-1.68017
-1.64665
-1.61054
-1.57112
-1.52725
-1.47725
-1.41874
-1.34852
-1.26249
-1.15553
-1.02163
-0.854005
-0.645266
-0.386323
-0.0624386
0.351533
0.874547
1.43612
1.87669
2.10276
2.12258
2.04915
2.11906
2.66517
9.27549
38.8125
95.6824
141.072
165.301
174.2
169.368
162.625
164.053
179.842
225.533
299.769
)
;
    }
    procBoundary3to2
    {
        type            processor;
        value           nonuniform List<scalar> 
43
(
-1.99446
-2.08661
-2.1801
-2.27435
-2.36885
-2.46311
-2.55671
-2.64926
-2.74046
-2.8301
-2.91804
-3.0043
-3.08896
-3.17219
-3.25424
-3.33539
-3.41595
-3.49623
-3.57653
-3.65711
-3.73818
-3.81991
-3.90242
-3.98578
-4.07
-4.15508
-4.24094
-4.32753
-4.41475
-4.50252
-4.59077
-4.67944
-4.76852
-4.85801
-4.94794
-5.03837
-5.12935
-5.22096
-5.31325
-5.40626
-5.5
-5.59457
-5.68936
)
;
    }
}


// ************************************************************************* //
