/*--------------------------------*- C++ -*----------------------------------*\
| =========                 |                                                 |
| \\      /  F ield         | OpenFOAM: The Open Source CFD Toolbox           |
|  \\    /   O peration     | Version:  5.0                                   |
|   \\  /    A nd           | Web:      www.OpenFOAM.org                      |
|    \\/     M anipulation  |                                                 |
\*---------------------------------------------------------------------------*/
FoamFile
{
    version     2.0;
    format      ascii;
    class       volVectorField;
    location    "0.6";
    object      U;
}
// * * * * * * * * * * * * * * * * * * * * * * * * * * * * * * * * * * * * * //

dimensions      [0 1 -1 0 0 0 0];

internalField   nonuniform List<vector> 
1935
(
(-0.0550566 0.338832 0)
(-0.0627774 0.356624 0)
(-0.0681761 0.373632 0)
(-0.0710069 0.389642 0)
(-0.0710568 0.404381 0)
(-0.0681576 0.417531 0)
(-0.0622008 0.428716 0)
(-0.0531552 0.437512 0)
(-0.041085 0.443459 0)
(-0.0261689 0.446076 0)
(-0.00871698 0.444892 0)
(0.0108225 0.439474 0)
(0.0318673 0.429465 0)
(0.0537133 0.414616 0)
(0.0755499 0.394823 0)
(0.0964934 0.370152 0)
(0.115634 0.340865 0)
(0.132092 0.30743 0)
(0.145092 0.27053 0)
(0.154038 0.231036 0)
(0.158577 0.189956 0)
(0.158627 0.148371 0)
(0.154378 0.107365 0)
(0.146262 0.0679569 0)
(0.134907 0.0310371 0)
(0.121064 -0.00268972 0)
(0.105515 -0.0327407 0)
(0.0889908 -0.0588653 0)
(0.0721206 -0.0810128 0)
(0.0554177 -0.0992853 0)
(0.039285 -0.11389 0)
(0.0240423 -0.125095 0)
(0.00996565 -0.133191 0)
(-0.00267495 -0.138478 0)
(-0.0135838 -0.141256 0)
(-0.0224243 -0.141839 0)
(-0.0288258 -0.140569 0)
(-0.0324127 -0.137845 0)
(-0.0328641 -0.134139 0)
(-0.030011 -0.130008 0)
(-0.0239697 -0.126088 0)
(-0.0153007 -0.123099 0)
(-0.00515392 -0.121381 0)
(-0.0736715 0.381468 0)
(-0.0953679 0.425734 0)
(-0.120982 0.472749 0)
(-0.150833 0.522275 0)
(-0.0805645 0.403132 0)
(-0.101385 0.451546 0)
(-0.126065 0.503075 0)
(-0.154924 0.557455 0)
(-0.0849454 0.423957 0)
(-0.104671 0.476461 0)
(-0.128147 0.532453 0)
(-0.155687 0.59164 0)
(-0.0865339 0.443673 0)
(-0.104896 0.500158 0)
(-0.126842 0.560494 0)
(-0.152666 0.624362 0)
(-0.0850722 0.461954 0)
(-0.101752 0.52224 0)
(-0.121779 0.586718 0)
(-0.145419 0.655046 0)
(-0.0803473 0.478409 0)
(-0.0949748 0.542235 0)
(-0.112638 0.610561 0)
(-0.13356 0.683014 0)
(-0.0722109 0.492585 0)
(-0.084373 0.5596 0)
(-0.0991784 0.63137 0)
(-0.116792 0.707492 0)
(-0.0606016 0.503972 0)
(-0.0698541 0.573727 0)
(-0.0812746 0.648428 0)
(-0.0949607 0.727629 0)
(-0.04557 0.512018 0)
(-0.0514566 0.583967 0)
(-0.058958 0.66097 0)
(-0.0680938 0.742534 0)
(-0.027303 0.516157 0)
(-0.0293819 0.589656 0)
(-0.0324535 0.668228 0)
(-0.0364545 0.751318 0)
(-0.00614541 0.515834 0)
(-0.00402065 0.590156 0)
(-0.00221353 0.669473 0)
(-0.000577333 0.753157 0)
(0.017389 0.510548 0)
(0.0240334 0.584897 0)
(0.0310675 0.664066 0)
(0.0387152 0.747348 0)
(0.0426248 0.499893 0)
(0.0539968 0.573428 0)
(0.0664749 0.651521 0)
(0.0803486 0.733379 0)
(0.0687388 0.483592 0)
(0.0849093 0.555456 0)
(0.102887 0.631539 0)
(0.123011 0.710965 0)
(0.094778 0.461538 0)
(0.115659 0.530882 0)
(0.139009 0.604053 0)
(0.165194 0.680096 0)
(0.1197 0.433822 0)
(0.145028 0.499836 0)
(0.173429 0.569253 0)
(0.205277 0.641054 0)
(0.142427 0.400754 0)
(0.171759 0.462691 0)
(0.204695 0.527589 0)
(0.241604 0.594395 0)
(0.161909 0.36288 0)
(0.194617 0.420075 0)
(0.231369 0.479784 0)
(0.272524 0.540943 0)
(0.177216 0.320991 0)
(0.212496 0.372896 0)
(0.252144 0.426873 0)
(0.296498 0.481866 0)
(0.187632 0.276099 0)
(0.224547 0.322317 0)
(0.26602 0.370189 0)
(0.312352 0.418685 0)
(0.19274 0.229374 0)
(0.230285 0.26968 0)
(0.272443 0.311257 0)
(0.319471 0.353132 0)
(0.192451 0.182063 0)
(0.229622 0.216401 0)
(0.271333 0.251669 0)
(0.317804 0.286974 0)
(0.187004 0.135413 0)
(0.222851 0.163887 0)
(0.263054 0.192987 0)
(0.3078 0.221919 0)
(0.176935 0.0906008 0)
(0.210617 0.113466 0)
(0.248367 0.136684 0)
(0.290348 0.159566 0)
(0.163018 0.0486581 0)
(0.19385 0.0663121 0)
(0.228372 0.0840695 0)
(0.266727 0.101347 0)
(0.146181 0.0104085 0)
(0.173677 0.0233698 0)
(0.204412 0.03621 0)
(0.23851 0.0484448 0)
(0.1274 -0.0235805 0)
(0.151289 -0.0147028 0)
(0.177923 -0.00614081 0)
(0.207405 0.00170898 0)
(0.107587 -0.053018 0)
(0.127808 -0.0475676 0)
(0.15027 -0.0425901 0)
(0.175051 -0.0384072 0)
(0.0875135 -0.0778605 0)
(0.104172 -0.0751842 0)
(0.122592 -0.0730936 0)
(0.142824 -0.0718488 0)
(0.0677918 -0.0982486 0)
(0.0811102 -0.0977333 0)
(0.0957571 -0.0978737 0)
(0.111754 -0.0988786 0)
(0.048883 -0.114449 0)
(0.0591511 -0.115546 0)
(0.0703714 -0.117329 0)
(0.0825444 -0.119967 0)
(0.0311326 -0.126798 0)
(0.0386662 -0.129031 0)
(0.0468364 -0.131953 0)
(0.0556267 -0.135692 0)
(0.0148198 -0.135655 0)
(0.0199345 -0.138627 0)
(0.0254267 -0.142263 0)
(0.0312681 -0.146663 0)
(0.000208973 -0.141384 0)
(0.00320798 -0.144763 0)
(0.00637466 -0.148765 0)
(0.00967298 -0.153467 0)
(-0.0124093 -0.144338 0)
(-0.0112348 -0.147852 0)
(-0.0100613 -0.151938 0)
(-0.00892937 -0.15665 0)
(-0.022693 -0.144877 0)
(-0.0230525 -0.148302 0)
(-0.0235482 -0.152241 0)
(-0.0242227 -0.15673 0)
(-0.0302512 -0.143382 0)
(-0.0318384 -0.146537 0)
(-0.0336679 -0.150142 0)
(-0.0357837 -0.154222 0)
(-0.0346726 -0.140291 0)
(-0.0371468 -0.143032 0)
(-0.0399413 -0.146157 0)
(-0.0431013 -0.149679 0)
(-0.0355892 -0.136118 0)
(-0.0385603 -0.138342 0)
(-0.0418979 -0.140882 0)
(-0.0456481 -0.143741 0)
(-0.032785 -0.13147 0)
(-0.03581 -0.133129 0)
(-0.0392076 -0.135032 0)
(-0.0430234 -0.137174 0)
(-0.0263534 -0.127052 0)
(-0.0289584 -0.128165 0)
(-0.0318908 -0.129453 0)
(-0.0351922 -0.130903 0)
(-0.0168931 -0.123675 0)
(-0.0186387 -0.124359 0)
(-0.0206103 -0.125161 0)
(-0.0228384 -0.12606 0)
(-0.00569645 -0.121725 0)
(-0.00629224 -0.122152 0)
(-0.00696685 -0.12266 0)
(-0.00773171 -0.123222 0)
(-0.187251 0.576876 0)
(-0.231566 0.636054 0)
(-0.282065 0.696037 0)
(-0.338916 0.756021 0)
(-0.402217 0.815039 0)
(-0.471988 0.87194 0)
(-0.548133 0.925371 0)
(-0.630391 0.973753 0)
(-0.718248 1.01522 0)
(-0.810774 1.04754 0)
(-0.906363 1.06791 0)
(-1.00231 1.07279 0)
(-1.09423 1.05753 0)
(-1.17541 1.01626 0)
(-1.23647 0.942248 0)
(-1.26618 0.829311 0)
(-1.25389 0.674214 0)
(-1.19319 0.478199 0)
(-1.083 0.245929 0)
(-0.923244 -0.0153258 0)
(-0.705651 -0.294301 0)
(-0.443878 -0.546794 0)
(-0.202425 -0.694865 0)
(0.0135005 -0.747293 0)
(0.195746 -0.765604 0)
(0.348399 -0.814476 0)
(0.459082 -0.902195 0)
(0.458994 -0.918774 0)
(0.452331 -0.927151 0)
(0.443057 -0.926279 0)
(0.43196 -0.910066 0)
(0.419962 -0.875684 0)
(0.406666 -0.822983 0)
(0.39164 -0.753182 0)
(0.373556 -0.670414 0)
(0.348232 -0.578367 0)
(0.310476 -0.481112 0)
(0.254595 -0.387396 0)
(0.183063 -0.305841 0)
(0.105969 -0.226676 0)
(-0.190234 0.617505 0)
(-0.233351 0.682715 0)
(-0.28265 0.748954 0)
(-0.338337 0.815354 0)
(-0.400554 0.880874 0)
(-0.469364 0.944261 0)
(-0.544705 1.00402 0)
(-0.626316 1.05832 0)
(-0.713595 1.10494 0)
(-0.805351 1.14098 0)
(-0.899363 1.16258 0)
(-0.991706 1.16449 0)
(-1.07587 1.13964 0)
(-1.14199 1.07928 0)
(-1.17691 0.974291 0)
(-1.16583 0.81828 0)
(-1.09636 0.611654 0)
(-0.96279 0.362365 0)
(-0.767608 0.0799621 0)
(-0.521498 -0.226554 0)
(-0.216847 -0.553137 0)
(0.0699774 -0.817378 0)
(0.214262 -0.907454 0)
(0.314696 -0.925701 0)
(0.407357 -0.906557 0)
(0.488043 -0.887894 0)
(0.488352 -0.903897 0)
(0.48452 -0.916744 0)
(0.477698 -0.923005 0)
(0.468453 -0.916863 0)
(0.456633 -0.895417 0)
(0.441046 -0.857526 0)
(0.420098 -0.802694 0)
(0.392107 -0.731304 0)
(0.360853 -0.644522 0)
(0.330945 -0.54593 0)
(0.297116 -0.436612 0)
(0.247556 -0.323687 0)
(0.180928 -0.216436 0)
(0.108367 -0.0991327 0)
(-0.189468 0.6571 0)
(-0.230847 0.72833 0)
(-0.278289 0.800844 0)
(-0.332024 0.873717 0)
(-0.392222 0.94583 0)
(-0.458967 1.01582 0)
(-0.5322 1.08202 0)
(-0.611612 1.1423 0)
(-0.696432 1.19387 0)
(-0.785036 1.23287 0)
(-0.874289 1.25378 0)
(-0.958533 1.24874 0)
(-1.02846 1.20722 0)
(-1.07048 1.11674 0)
(-1.06743 0.965677 0)
(-1.0008 0.748116 0)
(-0.855353 0.469244 0)
(-0.623933 0.144556 0)
(-0.306553 -0.213813 0)
(0.0774376 -0.596046 0)
(0.464954 -0.923633 0)
(0.546893 -0.943056 0)
(0.55471 -0.929035 0)
(0.542131 -0.928101 0)
(0.511765 -0.882545 0)
(0.510997 -0.888283 0)
(0.509442 -0.90233 0)
(0.504983 -0.912907 0)
(0.497977 -0.914136 0)
(0.487851 -0.903211 0)
(0.473122 -0.879028 0)
(0.451409 -0.83959 0)
(0.417453 -0.783228 0)
(0.362579 -0.708258 0)
(0.302604 -0.617701 0)
(0.267388 -0.515843 0)
(0.243929 -0.399628 0)
(0.211794 -0.270178 0)
(0.159741 -0.135914 0)
(0.101094 0.0226811 0)
(-0.184411 0.695097 0)
(-0.223397 0.772216 0)
(-0.268187 0.850888 0)
(-0.319014 0.930131 0)
(-0.376047 1.00875 0)
(-0.43936 1.08525 0)
(-0.508858 1.15775 0)
(-0.58412 1.22371 0)
(-0.664104 1.27955 0)
(-0.746595 1.31999 0)
(-0.827284 1.33712 0)
(-0.898479 1.31949 0)
(-0.947964 1.25213 0)
(-0.959066 1.11856 0)
(-0.912162 0.904946 0)
(-0.786233 0.605597 0)
(-0.562453 0.231191 0)
(-0.237309 -0.187109 0)
(0.173188 -0.631307 0)
(0.525527 -0.949472 0)
(0.547014 -0.955199 0)
(0.548244 -0.94028 0)
(0.547882 -0.924544 0)
(0.545658 -0.909573 0)
(0.527557 -0.877931 0)
(0.527105 -0.885845 0)
(0.52547 -0.899012 0)
(0.521301 -0.906115 0)
(0.514336 -0.904394 0)
(0.502823 -0.89246 0)
(0.482348 -0.867503 0)
(0.446513 -0.822417 0)
(0.385084 -0.761543 0)
(0.283644 -0.676381 0)
(0.206755 -0.600228 0)
(0.170052 -0.502849 0)
(0.162507 -0.375463 0)
(0.152031 -0.230549 0)
(0.123549 -0.0730906 0)
(0.078412 0.122172 0)
(-0.174532 0.730804 0)
(-0.210358 0.813532 0)
(-0.251565 0.898074 0)
(-0.298358 0.983385 0)
(-0.350872 1.06818 0)
(-0.409127 1.15083 0)
(-0.472932 1.22915 0)
(-0.541686 1.30005 0)
(-0.613981 1.3589 0)
(-0.686902 1.3985 0)
(-0.754897 1.4078 0)
(-0.808405 1.37102 0)
(-0.833119 1.26858 0)
(-0.811262 1.08069 0)
(-0.723687 0.792025 0)
(-0.546947 0.395975 0)
(-0.252267 -0.0908361 0)
(0.16515 -0.592788 0)
(0.51305 -0.982986 0)
(0.534002 -0.978777 0)
(0.536187 -0.957132 0)
(0.536073 -0.937764 0)
(0.535246 -0.920065 0)
(0.533595 -0.903063 0)
(0.531935 -0.88149 0)
(0.535708 -0.883981 0)
(0.536455 -0.895367 0)
(0.532729 -0.901301 0)
(0.524045 -0.898727 0)
(0.504719 -0.884261 0)
(0.457554 -0.852495 0)
(0.396112 -0.781448 0)
(0.355949 -0.564618 0)
(0.2917 -0.441484 0)
(0.240722 -0.419544 0)
(0.195994 -0.485887 0)
(0.093009 -0.348056 0)
(0.0876266 -0.200646 0)
(0.0860178 -0.0259635 0)
(0.0518033 0.187545 0)
(-0.159364 0.7634 0)
(-0.191162 0.851286 0)
(-0.227735 0.941205 0)
(-0.26922 1.03204 0)
(-0.315674 1.12241 0)
(-0.367006 1.21048 0)
(-0.422862 1.29372 0)
(-0.482382 1.36832 0)
(-0.543726 1.4283 0)
(-0.603274 1.46413 0)
(-0.654445 1.46114 0)
(-0.686532 1.39914 0)
(-0.684667 1.25469 0)
(-0.632088 1.00571 0)
(-0.512095 0.635485 0)
(-0.296479 0.136257 0)
(0.0834705 -0.471815 0)
(0.486334 -1.00069 0)
(0.51121 -1.00316 0)
(0.51482 -0.980627 0)
(0.515928 -0.959373 0)
(0.516886 -0.94 0)
(0.516989 -0.921022 0)
(0.516634 -0.901665 0)
(0.518017 -0.882781 0)
(0.529525 -0.884462 0)
(0.541731 -0.899731 0)
(0.533205 -0.902017 0)
(0.513412 -0.893721 0)
(0.474771 -0.831008 0)
(0.427091 -0.712293 0)
(0.361754 -0.634062 0)
(0.308878 -0.550039 0)
(0.281377 -0.470441 0)
(0.26683 -0.423983 0)
(0.281455 -0.419544 0)
(0.224716 -0.332946 0)
(0.0388553 -0.159693 0)
(0.044624 0.014707 0)
(0.0423715 0.237737 0)
(-0.138549 0.791959 0)
(-0.165378 0.884359 0)
(-0.196178 0.978931 0)
(-0.230979 1.07447 0)
(-0.269702 1.16945 0)
(-0.312078 1.26181 0)
(-0.357515 1.34856 0)
(-0.404821 1.42505 0)
(-0.451708 1.48372 0)
(-0.493987 1.51245 0)
(-0.524557 1.49298 0)
(-0.532725 1.40124 0)
(-0.504929 1.21063 0)
(-0.426539 0.895189 0)
(-0.279076 0.429099 0)
(-0.0125255 -0.210993 0)
(0.466104 -0.972047 0)
(0.485617 -1.02239 0)
(0.490257 -1.00445 0)
(0.491188 -0.983197 0)
(0.492617 -0.961868 0)
(0.493848 -0.941341 0)
(0.494595 -0.921305 0)
(0.495397 -0.901799 0)
(0.496589 -0.885906 0)
(0.489466 -0.894778 0)
(0.474644 -0.901155 0)
(0.456127 -0.865554 0)
(0.427425 -0.81823 0)
(0.389961 -0.762128 0)
(0.356641 -0.701598 0)
(0.327641 -0.635436 0)
(0.303505 -0.552929 0)
(0.290303 -0.474264 0)
(0.274975 -0.415318 0)
(0.247755 -0.376994 0)
(0.237678 -0.335164 0)
(0.0343903 -0.0111734 0)
(0.00467784 0.0565854 0)
(0.0556043 0.27312 0)
(-0.111898 0.815472 0)
(-0.132785 0.911537 0)
(-0.156642 1.00979 0)
(-0.18335 1.10891 0)
(-0.212636 1.20717 0)
(-0.243985 1.30224 0)
(-0.276492 1.39057 0)
(-0.308594 1.46656 0)
(-0.337611 1.52105 0)
(-0.359111 1.53948 0)
(-0.366331 1.50077 0)
(-0.350375 1.3785 0)
(-0.302773 1.14463 0)
(-0.219322 0.770362 0)
(-0.0870542 0.22118 0)
(0.277638 -0.542119 0)
(0.459206 -1.03271 0)
(0.464983 -1.02622 0)
(0.465245 -1.00668 0)
(0.466122 -0.985381 0)
(0.467385 -0.963524 0)
(0.468644 -0.941755 0)
(0.470523 -0.920266 0)
(0.471841 -0.903034 0)
(0.4732 -0.88413 0)
(0.446148 -0.886492 0)
(0.423762 -0.875055 0)
(0.400843 -0.844522 0)
(0.379896 -0.804877 0)
(0.359756 -0.753998 0)
(0.343702 -0.689583 0)
(0.331559 -0.618541 0)
(0.321632 -0.540052 0)
(0.313762 -0.461928 0)
(0.298316 -0.388958 0)
(0.263799 -0.308507 0)
(0.244849 -0.189953 0)
(0.163984 0.0227178 0)
(-0.023218 0.0489268 0)
(0.0792334 0.31775 0)
(-0.0794513 0.832888 0)
(-0.0934453 0.93157 0)
(-0.109237 1.03229 0)
(-0.126516 1.13356 0)
(-0.144768 1.23342 0)
(-0.163172 1.32916 0)
(-0.180462 1.41664 0)
(-0.194698 1.48927 0)
(-0.2029 1.53641 0)
(-0.20065 1.54166 0)
(-0.182017 1.48243 0)
(-0.140413 1.33228 0)
(-0.0718799 1.06393 0)
(0.0168247 0.645612 0)
(0.0983283 0.0144071 0)
(0.430229 -1.02311 0)
(0.438049 -1.04074 0)
(0.439277 -1.02693 0)
(0.43943 -1.00796 0)
(0.440166 -0.986527 0)
(0.441276 -0.963857 0)
(0.443154 -0.94117 0)
(0.44486 -0.922937 0)
(0.445404 -0.90603 0)
(0.417837 -0.863043 0)
(0.406685 -0.853461 0)
(0.394781 -0.847961 0)
(0.383796 -0.827814 0)
(0.376861 -0.792934 0)
(0.372022 -0.743922 0)
(0.368117 -0.681514 0)
(0.364252 -0.610374 0)
(0.359249 -0.533 0)
(0.352548 -0.453407 0)
(0.340602 -0.371634 0)
(0.320303 -0.275002 0)
(0.312278 -0.14198 0)
(0.431724 0.00815526 0)
(0.0468054 0.209594 0)
(0.0844653 0.371848 0)
(-0.0415304 0.843177 0)
(-0.0477781 0.943254 0)
(-0.0545207 1.04502 0)
(-0.0612403 1.14676 0)
(-0.0671584 1.24622 0)
(-0.0711262 1.34025 0)
(-0.0715213 1.42407 0)
(-0.0661157 1.49021 0)
(-0.0518502 1.52678 0)
(-0.0246226 1.51615 0)
(0.0204246 1.43532 0)
(0.0876742 1.25935 0)
(0.179291 0.965205 0)
(0.296448 0.529221 0)
(0.436697 -0.0930499 0)
(0.416845 -1.0328 0)
(0.414442 -1.03961 0)
(0.41349 -1.02631 0)
(0.413812 -1.00767 0)
(0.414761 -0.98581 0)
(0.416399 -0.963124 0)
(0.41785 -0.944246 0)
(0.418958 -0.925828 0)
(0.393138 -0.87902 0)
(0.389759 -0.850569 0)
(0.39644 -0.846077 0)
(0.402435 -0.843155 0)
(0.407927 -0.826601 0)
(0.414138 -0.793434 0)
(0.419377 -0.744244 0)
(0.421725 -0.680696 0)
(0.419671 -0.606573 0)
(0.412058 -0.525797 0)
(0.398314 -0.442027 0)
(0.3773 -0.355375 0)
(0.347988 -0.255994 0)
(0.318796 -0.12028 0)
(0.361151 0.0827364 0)
(0.0508855 0.435145 0)
(0.0873442 0.453584 0)
(0.00121226 0.845404 0)
(0.0033916 0.945524 0)
(0.00643953 1.04678 0)
(0.0110653 1.14717 0)
(0.0182883 1.24409 0)
(0.0295454 1.33389 0)
(0.0467332 1.41124 0)
(0.0721183 1.46802 0)
(0.108347 1.49161 0)
(0.158408 1.46385 0)
(0.224903 1.36226 0)
(0.308475 1.16439 0)
(0.406211 0.853285 0)
(0.512668 0.418802 0)
(0.60717 -0.157331 0)
(0.445242 -0.926726 0)
(0.392392 -1.04003 0)
(0.388296 -1.02623 0)
(0.389008 -1.00564 0)
(0.390978 -0.984931 0)
(0.392062 -0.966983 0)
(0.391003 -0.947199 0)
(0.368652 -0.900354 0)
(0.378152 -0.874813 0)
(0.400729 -0.864667 0)
(0.426557 -0.863492 0)
(0.449669 -0.858709 0)
(0.469068 -0.840379 0)
(0.484743 -0.804647 0)
(0.49536 -0.751113 0)
(0.499015 -0.681471 0)
(0.493826 -0.599416 0)
(0.478177 -0.509546 0)
(0.450987 -0.416175 0)
(0.411665 -0.320351 0)
(0.360628 -0.213693 0)
(0.303337 -0.068433 0)
(0.272844 0.168715 0)
(0.042004 0.566335 0)
(0.110625 0.53885 0)
(0.0477823 0.838807 0)
(0.0588346 0.937561 0)
(0.0720924 1.0367 0)
(0.0884129 1.13393 0)
(0.10897 1.22625 0)
(0.135393 1.30949 0)
(0.169777 1.3779 0)
(0.214117 1.42329 0)
(0.270203 1.43301 0)
(0.339267 1.38952 0)
(0.420987 1.27235 0)
(0.511821 1.06305 0)
(0.604246 0.751969 0)
(0.684765 0.343002 0)
(0.724762 -0.146828 0)
(0.610594 -0.683006 0)
(0.431749 -1.00376 0)
(0.370691 -1.02742 0)
(0.364289 -1.00989 0)
(0.367078 -0.990883 0)
(0.350133 -0.963 0)
(0.34272 -0.929212 0)
(0.371868 -0.916069 0)
(0.41512 -0.908847 0)
(0.45936 -0.903712 0)
(0.49985 -0.899413 0)
(0.534232 -0.888828 0)
(0.561875 -0.864388 0)
(0.582267 -0.821693 0)
(0.594078 -0.759454 0)
(0.595325 -0.678975 0)
(0.583757 -0.583833 0)
(0.557166 -0.479037 0)
(0.513772 -0.369657 0)
(0.452926 -0.258111 0)
(0.376774 -0.138286 0)
(0.28917 0.0167378 0)
(0.176458 0.266884 0)
(0.00619858 0.691887 0)
(0.1831 0.612538 0)
(0.0968998 0.822863 0)
(0.116993 0.918867 0)
(0.140534 1.01437 0)
(0.168451 1.10678 0)
(0.201933 1.19269 0)
(0.242703 1.2674 0)
(0.292917 1.32493 0)
(0.35389 1.35802 0)
(0.426821 1.3544 0)
(0.510857 1.29841 0)
(0.602893 1.17298 0)
(0.695799 0.964417 0)
(0.778114 0.668978 0)
(0.833493 0.297791 0)
(0.837406 -0.120761 0)
(0.750269 -0.534623 0)
(0.597089 -0.812042 0)
(0.460042 -0.95887 0)
(0.385855 -1.00346 0)
(0.370667 -0.980978 0)
(0.37208 -0.963037 0)
(0.403107 -0.967844 0)
(0.456104 -0.973199 0)
(0.514889 -0.967793 0)
(0.56849 -0.957071 0)
(0.613681 -0.94505 0)
(0.651137 -0.926046 0)
(0.680639 -0.892613 0)
(0.700972 -0.839712 0)
(0.710388 -0.765284 0)
(0.706613 -0.670098 0)
(0.687018 -0.557503 0)
(0.648907 -0.432707 0)
(0.589891 -0.301449 0)
(0.508938 -0.167718 0)
(0.409399 -0.0292838 0)
(0.293182 0.131851 0)
(0.0993939 0.369243 0)
(-0.0364631 0.791906 0)
(0.32487 0.658627 0)
(0.147014 0.797329 0)
(0.176014 0.889282 0)
(0.209547 0.979773 0)
(0.24852 1.06595 0)
(0.29401 1.14407 0)
(0.347854 1.20902 0)
(0.410841 1.25471 0)
(0.485203 1.27464 0)
(0.571407 1.25912 0)
(0.666772 1.19433 0)
(0.766032 1.06733 0)
(0.860037 0.869137 0)
(0.936071 0.600109 0)
(0.979694 0.274404 0)
(0.975708 -0.0786816 0)
(0.911305 -0.414703 0)
(0.805843 -0.668562 0)
(0.697206 -0.829691 0)
(0.613236 -0.919799 0)
(0.567653 -0.954626 0)
(0.563691 -0.983581 0)
(0.5856 -1.01886 0)
(0.622702 -1.03763 0)
(0.669139 -1.02831 0)
(0.717961 -1.00977 0)
(0.758352 -0.989983 0)
(0.792116 -0.962537 0)
(0.818392 -0.919215 0)
(0.834929 -0.854447 0)
(0.839334 -0.765643 0)
(0.828972 -0.653143 0)
(0.800961 -0.520107 0)
(0.752458 -0.371948 0)
(0.680992 -0.215088 0)
(0.585593 -0.0550163 0)
(0.469719 0.10639 0)
(0.337537 0.275185 0)
(0.131125 0.490018 0)
(-0.128296 0.938371 0)
(0.517118 0.655242 0)
(0.196358 0.762292 0)
(0.233799 0.849057 0)
(0.276629 0.933411 0)
(0.325646 1.01237 0)
(0.381937 1.08221 0)
(0.446273 1.1372 0)
(0.519048 1.17141 0)
(0.602657 1.1784 0)
(0.698013 1.15125 0)
(0.801578 1.08037 0)
(0.905765 0.956581 0)
(1.00078 0.774244 0)
(1.07492 0.535399 0)
(1.11665 0.253525 0)
(1.11741 -0.0470428 0)
(1.07476 -0.333321 0)
(1.00215 -0.568588 0)
(0.920897 -0.737323 0)
(0.848162 -0.842382 0)
(0.806103 -0.915652 0)
(0.793224 -0.984862 0)
(0.801358 -1.04315 0)
(0.821198 -1.07947 0)
(0.847693 -1.07808 0)
(0.885744 -1.0532 0)
(0.918534 -1.02823 0)
(0.946353 -0.993553 0)
(0.967092 -0.940409 0)
(0.977822 -0.863069 0)
(0.975778 -0.758692 0)
(0.958102 -0.627395 0)
(0.921854 -0.472364 0)
(0.864373 -0.299512 0)
(0.78376 -0.116361 0)
(0.679795 0.069819 0)
(0.556166 0.253843 0)
(0.424763 0.432881 0)
(0.296355 0.617012 0)
(-0.127069 0.900656 0)
(1.11306 0.682233 0)
(0.243065 0.718184 0)
(0.2882 0.798856 0)
(0.339322 0.876273 0)
(0.397055 0.947405 0)
(0.46237 1.00871 0)
(0.535044 1.05484 0)
(0.61533 1.0786 0)
(0.705148 1.07339 0)
(0.805749 1.03554 0)
(0.913064 0.960869 0)
(1.01906 0.843255 0)
(1.11428 0.678782 0)
(1.18874 0.4695 0)
(1.23391 0.226553 0)
(1.2447 -0.0314898 0)
(1.22215 -0.280802 0)
(1.1758 -0.496465 0)
(1.11598 -0.662599 0)
(1.06357 -0.782615 0)
(1.03136 -0.88905 0)
(1.01638 -0.979481 0)
(1.01507 -1.04888 0)
(1.02097 -1.09544 0)
(1.034 -1.10672 0)
(1.05821 -1.08617 0)
(1.08336 -1.05893 0)
(1.10502 -1.0178 0)
(1.11949 -0.954691 0)
(1.12362 -0.864228 0)
(1.11455 -0.7435 0)
(1.08932 -0.592521 0)
(1.04493 -0.414725 0)
(0.978921 -0.21691 0)
(0.889984 -0.00824687 0)
(0.778841 0.201547 0)
(0.649438 0.40386 0)
(0.513168 0.591363 0)
(0.387991 0.754528 0)
(0.113752 0.913975 0)
(0.491305 1.33121 0)
(0.285277 0.665702 0)
(0.337187 0.739583 0)
(0.395533 0.809543 0)
(0.460789 0.872583 0)
(0.53349 0.925199 0)
(0.613413 0.962746 0)
(0.700679 0.977973 0)
(0.794157 0.962295 0)
(0.8936 0.913789 0)
(0.998178 0.835545 0)
(1.10137 0.725843 0)
(1.19594 0.581008 0)
(1.27249 0.399443 0)
(1.3241 0.19019 0)
(1.34732 -0.0332223 0)
(1.34417 -0.252908 0)
(1.32141 -0.449996 0)
(1.28551 -0.609862 0)
(1.25516 -0.746217 0)
(1.23553 -0.865861 0)
(1.22267 -0.967134 0)
(1.2151 -1.04889 0)
(1.21186 -1.10194 0)
(1.21754 -1.11759 0)
(1.23033 -1.10752 0)
(1.24711 -1.08135 0)
(1.2617 -1.03443 0)
(1.26929 -0.96132 0)
(1.2666 -0.85737 0)
(1.25055 -0.719701 0)
(1.21786 -0.548269 0)
(1.16535 -0.346885 0)
(1.09047 -0.123452 0)
(0.992044 0.111036 0)
(0.870713 0.344162 0)
(0.72978 0.563733 0)
(0.57533 0.759412 0)
(0.418684 0.920281 0)
(0.207031 1.05472 0)
(0.185021 1.47871 0)
(0.321115 0.605782 0)
(0.378664 0.672281 0)
(0.443019 0.73434 0)
(0.514556 0.789053 0)
(0.593529 0.83307 0)
(0.679579 0.862197 0)
(0.77296 0.870865 0)
(0.869925 0.85145 0)
(0.964608 0.800247 0)
(1.05889 0.721721 0)
(1.15263 0.615621 0)
(1.2437 0.480206 0)
(1.32367 0.318581 0)
(1.38437 0.138773 0)
(1.42201 -0.0551085 0)
(1.43875 -0.250151 0)
(1.43819 -0.432052 0)
(1.42716 -0.588496 0)
(1.41774 -0.726025 0)
(1.40839 -0.849539 0)
(1.39947 -0.95728 0)
(1.39134 -1.043 0)
(1.38632 -1.09786 0)
(1.38682 -1.12196 0)
(1.39221 -1.12063 0)
(1.40112 -1.09486 0)
(1.40828 -1.04266 0)
(1.40928 -0.96001 0)
(1.40051 -0.842637 0)
(1.37834 -0.687584 0)
(1.33894 -0.494802 0)
(1.27873 -0.268627 0)
(1.19501 -0.0181512 0)
(1.08654 0.243887 0)
(0.953622 0.502731 0)
(0.79852 0.743879 0)
(0.625016 0.955267 0)
(0.438326 1.13024 0)
(0.231093 1.2761 0)
(0.0837366 1.55213 0)
(0.348754 0.539736 0)
(0.410436 0.598401 0)
(0.479086 0.652213 0)
(0.554952 0.69839 0)
(0.638084 0.733841 0)
(0.727872 0.755145 0)
(0.824452 0.758927 0)
(0.923826 0.741073 0)
(1.01795 0.694119 0)
(1.1088 0.617239 0)
(1.19842 0.513111 0)
(1.28219 0.384605 0)
(1.35634 0.238507 0)
(1.41981 0.0760149 0)
(1.47209 -0.0980601 0)
(1.50706 -0.273403 0)
(1.52778 -0.437575 0)
(1.53839 -0.585464 0)
(1.54232 -0.719918 0)
(1.54237 -0.84317 0)
(1.53947 -0.948779 0)
(1.53383 -1.03336 0)
(1.52928 -1.09223 0)
(1.52688 -1.12341 0)
(1.52826 -1.12601 0)
(1.53182 -1.10015 0)
(1.534 -1.04358 0)
(1.53087 -0.952205 0)
(1.51834 -0.821555 0)
(1.49196 -0.648466 0)
(1.44723 -0.433048 0)
(1.38024 -0.180452 0)
(1.28839 0.0988316 0)
(1.17059 0.390215 0)
(1.02738 0.677016 0)
(0.860757 0.943263 0)
(0.673928 1.17599 0)
(0.470824 1.36854 0)
(0.26188 1.52342 0)
(0.0795847 1.71104 0)
(0.366809 0.469312 0)
(0.43084 0.519972 0)
(0.50172 0.565526 0)
(0.579499 0.603368 0)
(0.664009 0.630713 0)
(0.754575 0.644775 0)
(0.85026 0.64345 0)
(0.951068 0.6251 0)
(1.05046 0.583701 0)
(1.14264 0.513336 0)
(1.22999 0.414927 0)
(1.31152 0.294361 0)
(1.38449 0.158321 0)
(1.44725 0.00890355 0)
(1.50218 -0.151849 0)
(1.54713 -0.314722 0)
(1.57937 -0.467282 0)
(1.60455 -0.60645 0)
(1.61842 -0.731973 0)
(1.62524 -0.846149 0)
(1.62578 -0.946947 0)
(1.6244 -1.02927 0)
(1.62241 -1.08898 0)
(1.62177 -1.12249 0)
(1.62366 -1.12755 0)
(1.62708 -1.10183 0)
(1.62927 -1.04156 0)
(1.6263 -0.941722 0)
(1.61334 -0.797203 0)
(1.58516 -0.6046 0)
(1.53671 -0.364515 0)
(1.46401 -0.0833977 0)
(1.36498 0.226474 0)
(1.23915 0.548401 0)
(1.08788 0.863893 0)
(0.913643 1.15575 0)
(0.719744 1.41021 0)
(0.510166 1.61886 0)
(0.299571 1.77772 0)
(0.107573 1.92023 0)
(0.374612 0.396484 0)
(0.4392 0.439264 0)
(0.510311 0.476894 0)
(0.587804 0.507 0)
(0.671308 0.52711 0)
(0.760125 0.53483 0)
(0.85326 0.528228 0)
(0.950191 0.506023 0)
(1.04932 0.466529 0)
(1.14762 0.402942 0)
(1.23843 0.31339 0)
(1.31797 0.204966 0)
(1.38884 0.0803988 0)
(1.45402 -0.0613059 0)
(1.50879 -0.214074 0)
(1.55203 -0.362681 0)
(1.58415 -0.502378 0)
(1.60858 -0.630938 0)
(1.62685 -0.748176 0)
(1.63929 -0.855228 0)
(1.64797 -0.950494 0)
(1.6537 -1.03038 0)
(1.65842 -1.09021 0)
(1.66425 -1.12563 0)
(1.67219 -1.13273 0)
(1.68139 -1.10701 0)
(1.68902 -1.04274 0)
(1.69044 -0.933425 0)
(1.67997 -0.773054 0)
(1.65168 -0.55824 0)
(1.60046 -0.290625 0)
(1.5228 0.021504 0)
(1.4174 0.363559 0)
(1.28495 0.716477 0)
(1.12789 1.06009 0)
(0.949384 1.37626 0)
(0.752768 1.65068 0)
(0.542378 1.87358 0)
(0.329286 2.03855 0)
(0.131679 2.15662 0)
(0.372182 0.323204 0)
(0.435671 0.358416 0)
(0.505261 0.388621 0)
(0.58067 0.411696 0)
(0.661405 0.425465 0)
(0.74672 0.427835 0)
(0.835669 0.416979 0)
(0.927349 0.391389 0)
(1.02077 0.349391 0)
(1.11387 0.288897 0)
(1.2036 0.210111 0)
(1.286 0.112343 0)
(1.3588 -0.0043462 0)
(1.42096 -0.135263 0)
(1.4727 -0.271398 0)
(1.51317 -0.406361 0)
(1.54403 -0.535684 0)
(1.56808 -0.656659 0)
(1.58745 -0.76828 0)
(1.60344 -0.870649 0)
(1.61703 -0.962638 0)
(1.62938 -1.04099 0)
(1.64234 -1.10138 0)
(1.65762 -1.13901 0)
(1.67582 -1.14822 0)
(1.6954 -1.12207 0)
(1.71233 -1.0524 0)
(1.72057 -0.930916 0)
(1.71339 -0.75105 0)
(1.68476 -0.510147 0)
(1.63022 -0.211645 0)
(1.5475 0.1338 0)
(1.43638 0.508917 0)
(1.29893 0.892327 0)
(1.1386 1.26248 0)
(0.959128 1.60081 0)
(0.763605 1.89325 0)
(0.5561 2.13047 0)
(0.343882 2.30831 0)
(0.144867 2.41583 0)
(0.360083 0.25131 0)
(0.420982 0.279366 0)
(0.487516 0.302685 0)
(0.559321 0.319391 0)
(0.635839 0.327577 0)
(0.716302 0.32541 0)
(0.799765 0.31124 0)
(0.88518 0.283641 0)
(0.971351 0.241252 0)
(1.05649 0.182813 0)
(1.13854 0.108268 0)
(1.21552 0.0183313 0)
(1.28507 -0.0860676 0)
(1.34498 -0.202161 0)
(1.39395 -0.324866 0)
(1.43248 -0.448365 0)
(1.46247 -0.568583 0)
(1.48628 -0.683096 0)
(1.50609 -0.790652 0)
(1.52377 -0.890598 0)
(1.54095 -0.981586 0)
(1.55945 -1.06089 0)
(1.5813 -1.12437 0)
(1.608 -1.16623 0)
(1.63929 -1.17856 0)
(1.67197 -1.15122 0)
(1.69963 -1.07313 0)
(1.71414 -0.934689 0)
(1.70807 -0.730039 0)
(1.67632 -0.458551 0)
(1.61627 -0.126238 0)
(1.52755 0.25366 0)
(1.41135 0.661287 0)
(1.27103 1.07331 0)
(1.11078 1.46729 0)
(0.934499 1.82491 0)
(0.744899 2.13314 0)
(0.544976 2.38444 0)
(0.340179 2.57723 0)
(0.1486 2.68716 0)
(0.339352 0.182509 0)
(0.396338 0.203893 0)
(0.458455 0.220885 0)
(0.5253 0.231846 0)
(0.596286 0.235114 0)
(0.670641 0.229087 0)
(0.747424 0.212312 0)
(0.82555 0.183541 0)
(0.90377 0.141731 0)
(0.980549 0.0861386 0)
(1.05421 0.0167524 0)
(1.12307 -0.0658872 0)
(1.18527 -0.160711 0)
(1.239 -0.265396 0)
(1.2833 -0.376153 0)
(1.3186 -0.488967 0)
(1.34639 -0.600743 0)
(1.3687 -0.709465 0)
(1.38779 -0.813918 0)
(1.40602 -0.913242 0)
(1.42588 -1.00616 0)
(1.45005 -1.09014 0)
(1.48111 -1.16062 0)
(1.52035 -1.20991 0)
(1.56613 -1.2265 0)
(1.61246 -1.19583 0)
(1.64937 -1.10378 0)
(1.66623 -0.941143 0)
(1.65595 -0.705255 0)
(1.61612 -0.399098 0)
(1.54738 -0.0315881 0)
(1.45158 0.381647 0)
(1.33147 0.818909 0)
(1.19139 1.25569 0)
(1.03572 1.66932 0)
(0.86816 2.04234 0)
(0.690853 2.36331 0)
(0.505716 2.62697 0)
(0.316095 2.83406 0)
(0.142425 2.95364 0)
(0.31146 0.118342 0)
(0.363412 0.133617 0)
(0.419945 0.144884 0)
(0.480644 0.15073 0)
(0.54492 0.149722 0)
(0.612009 0.140475 0)
(0.680985 0.121731 0)
(0.750776 0.092417 0)
(0.820161 0.0517076 0)
(0.88776 -0.000890787 0)
(0.952101 -0.0653668 0)
(1.01171 -0.141203 0)
(1.06511 -0.227313 0)
(1.11105 -0.321804 0)
(1.14893 -0.42208 0)
(1.1791 -0.525468 0)
(1.20274 -0.629825 0)
(1.2217 -0.733725 0)
(1.23835 -0.836371 0)
(1.25554 -0.937267 0)
(1.27665 -1.03551 0)
(1.30537 -1.12863 0)
(1.34487 -1.21088 0)
(1.39604 -1.27119 0)
(1.45525 -1.29238 0)
(1.51292 -1.25391 0)
(1.55442 -1.13901 0)
(1.56639 -0.942479 0)
(1.54409 -0.668894 0)
(1.49047 -0.326138 0)
(1.41044 0.0749339 0)
(1.3076 0.517377 0)
(1.18624 0.978607 0)
(1.05096 1.43396 0)
(0.90579 1.86149 0)
(0.75371 2.24487 0)
(0.596294 2.57445 0)
(0.434427 2.8473 0)
(0.268571 3.06622 0)
(0.124621 3.19596 0)
(0.278234 0.0600982 0)
(0.324301 0.0699206 0)
(0.374347 0.0761249 0)
(0.427968 0.0775185 0)
(0.484593 0.0728874 0)
(0.543487 0.0610551 0)
(0.603758 0.0409501 0)
(0.664378 0.0116708 0)
(0.724194 -0.0274539 0)
(0.781956 -0.0767899 0)
(0.836362 -0.136308 0)
(0.886133 -0.205549 0)
(0.930097 -0.283594 0)
(0.967345 -0.369046 0)
(0.99748 -0.460186 0)
(1.02079 -0.555339 0)
(1.03831 -0.653252 0)
(1.05176 -0.753307 0)
(1.06365 -0.855533 0)
(1.07731 -0.960305 0)
(1.09697 -1.06747 0)
(1.12719 -1.17453 0)
(1.17145 -1.27353 0)
(1.22981 -1.34808 0)
(1.29684 -1.37332 0)
(1.35928 -1.32059 0)
(1.3963 -1.17039 0)
(1.39293 -0.927903 0)
(1.35003 -0.61198 0)
(1.27924 -0.235126 0)
(1.18914 0.193507 0)
(1.08353 0.657654 0)
(0.966608 1.13477 0)
(0.842624 1.60087 0)
(0.715091 2.03518 0)
(0.586147 2.42284 0)
(0.456687 2.756 0)
(0.326707 3.03384 0)
(0.193342 3.26079 0)
(0.0926136 3.38755 0)
(0.241686 0.00872419 0)
(0.281359 0.0138334 0)
(0.324362 0.0157025 0)
(0.37032 0.0133474 0)
(0.4187 0.00576211 0)
(0.468815 -0.00803211 0)
(0.519833 -0.0289287 0)
(0.570799 -0.0576793 0)
(0.620653 -0.0948367 0)
(0.668259 -0.140695 0)
(0.712462 -0.195233 0)
(0.752147 -0.258096 0)
(0.786328 -0.328599 0)
(0.814267 -0.405795 0)
(0.835631 -0.488631 0)
(0.850627 -0.576237 0)
(0.860099 -0.668236 0)
(0.865645 -0.764995 0)
(0.869784 -0.867711 0)
(0.876156 -0.978087 0)
(0.889411 -1.09705 0)
(0.914236 -1.22169 0)
(0.953392 -1.34067 0)
(1.00623 -1.43133 0)
(1.06744 -1.45982 0)
(1.11965 -1.38493 0)
(1.13487 -1.18394 0)
(1.10678 -0.884771 0)
(1.04046 -0.529416 0)
(0.958024 -0.128411 0)
(0.86772 0.317482 0)
(0.769879 0.793709 0)
(0.66706 1.27783 0)
(0.563137 1.74653 0)
(0.461161 2.18029 0)
(0.36292 2.56584 0)
(0.269128 2.89661 0)
(0.179361 3.17282 0)
(0.0775805 3.39695 0)
(0.0250656 3.51542 0)
(0.203781 -0.0352592 0)
(0.236918 -0.0340568 0)
(0.272718 -0.0357411 0)
(0.310839 -0.0411062 0)
(0.350799 -0.0509664 0)
(0.391977 -0.0661177 0)
(0.433619 -0.0872905 0)
(0.474856 -0.115101 0)
(0.514726 -0.15 0)
(0.552207 -0.192231 0)
(0.586259 -0.241794 0)
(0.615881 -0.298439 0)
(0.64018 -0.361705 0)