/*--------------------------------*- C++ -*----------------------------------*\
| =========                 |                                                 |
| \\      /  F ield         | OpenFOAM: The Open Source CFD Toolbox           |
|  \\    /   O peration     | Version:  5.0                                   |
|   \\  /    A nd           | Web:      www.OpenFOAM.org                      |
|    \\/     M anipulation  |                                                 |
\*---------------------------------------------------------------------------*/
FoamFile
{
    version     2.0;
    format      ascii;
    class       volScalarField;
    location    "0.35";
    object      alpha.water;
}
// * * * * * * * * * * * * * * * * * * * * * * * * * * * * * * * * * * * * * //

dimensions      [0 0 0 0 0 0 0];

internalField   nonuniform List<scalar> 
1935
(
1.93101e-08
1.87673e-08
6.33348e-08
1.09077e-07
1.11758e-07
5.91916e-08
2.92311e-08
1.81349e-08
1.62043e-08
1.48014e-08
1.0992e-08
6.08707e-09
2.40339e-09
4.5066e-10
8.98281e-11
2.76214e-11
7.67544e-12
7.58993e-13
6.26439e-14
4.56242e-15
3.12979e-16
1.99581e-17
1.14931e-18
5.86483e-20
2.61736e-21
1.01396e-22
3.38061e-24
9.83087e-26
2.51374e-27
5.79378e-29
1.21096e-30
2.27574e-32
3.82252e-34
5.72629e-36
7.68404e-38
9.20855e-40
9.70408e-42
8.65797e-44
6.53538e-46
4.07875e-48
2.06379e-50
8.28829e-53
2.17768e-55
1.10391e-08
2.65631e-05
2.94014e-05
1.63427e-05
7.00491e-08
3.01982e-05
2.5419e-05
8.03377e-06
5.28395e-08
5.58175e-08
0.000241989
7.49239e-05
5.0731e-08
3.60033e-05
0.000252342
0.000156809
5.89212e-08
6.87781e-08
7.96916e-05
0.000274249
1.78879e-07
8.70676e-08
8.02663e-05
0.000274249
1.74792e-07
1.49382e-07
1.29988e-05
0.000229862
7.71259e-08
1.63209e-07
6.9814e-07
0.000169807
7.27496e-08
3.41903e-07
9.29707e-07
3.11696e-06
6.91887e-08
3.19475e-07
1.3296e-06
4.11325e-06
5.16898e-08
2.42369e-07
1.03075e-06
3.56577e-06
2.8941e-08
1.37315e-07
5.90571e-07
2.34174e-06
1.1629e-08
5.24375e-08
2.14901e-07
8.33116e-07
2.02012e-09
8.49528e-09
3.37196e-08
1.28404e-07
2.45226e-10
9.54718e-10
3.74547e-09
1.45606e-08
5.58397e-11
1.3373e-10
4.07477e-10
1.51347e-09
2.66567e-11
5.54496e-11
1.04034e-10
2.32585e-10
3.48248e-12
1.53014e-11
4.76685e-11
1.12241e-10
2.9755e-13
1.39584e-12
5.66693e-12
2.07136e-11
2.24292e-14
1.08943e-13
4.5708e-13
1.78876e-12
1.60011e-15
8.12003e-15
3.5449e-14
1.42023e-13
1.06787e-16
5.69735e-16
2.6255e-15
1.09625e-14
6.46466e-18
3.64327e-17
1.78557e-16
7.84723e-16
3.47572e-19
2.0795e-18
1.08597e-17
5.04658e-17
1.6405e-20
1.04694e-19
5.82035e-19
2.8412e-18
6.79022e-22
4.64846e-21
2.74626e-20
1.36751e-19
2.46547e-23
1.81259e-22
1.13096e-21
5.61946e-21
7.91828e-25
6.26367e-24
4.09931e-23
1.96797e-22
2.28656e-26
1.94397e-25
1.31084e-24
5.85748e-24
5.99041e-28
5.48168e-27
3.73275e-26
1.48588e-25
1.43764e-29
1.41535e-28
9.37785e-28
3.29557e-27
3.13031e-31
3.34824e-30
2.06425e-29
7.39931e-29
6.1495e-33
7.34603e-32
3.94689e-31
1.29333e-30
1.07737e-34
1.48045e-33
6.89748e-33
1.48421e-32
1.70051e-36
2.34224e-35
1.13647e-34
2.87571e-34
2.4711e-38
3.28863e-37
1.49759e-36
5.95524e-36
3.36744e-40
4.25135e-39
1.32033e-38
1.13022e-37
3.832e-42
5.04262e-41
9.2201e-41
1.95686e-39
3.14527e-44
5.0805e-43
1.22068e-42
3.08575e-41
2.14652e-46
4.39116e-45
1.44383e-44
4.46615e-43
1.17688e-48
3.09521e-47
1.58015e-46
6.14097e-45
5.12936e-51
1.72153e-49
1.86155e-48
8.99453e-47
1.86523e-53
4.4001e-52
3.05519e-50
1.86155e-48
8.05146e-07
1.05524e-06
1.42367e-05
6.62123e-06
0.00724689
0.330012
0.91352
0.956834
0.964645
0.967177
0.889699
0.402015
0.0400465
0.00437196
0.0011446
0.000270425
5.67758e-05
1.11756e-05
2.05753e-06
3.54118e-07
5.71198e-08
8.79351e-09
1.38459e-09
2.44319e-10
6.60592e-11
1.57823e-11
2.04969e-12
2.07821e-13
1.94834e-14
1.651e-15
1.25404e-16
8.47833e-18
5.0528e-19
2.61914e-20
1.15895e-21
4.26184e-23
1.25103e-24
2.7458e-26
3.98753e-28
2.80313e-30
3.03268e-06
4.35289e-05
0.000230969
0.00122502
0.0579154
0.678556
0.945098
0.953682
0.956835
0.944629
0.63905
0.101338
0.00918352
0.00264238
0.000625012
0.000139214
2.89968e-05
5.65367e-06
1.03136e-06
1.76114e-07
2.83514e-08
4.43023e-09
7.47636e-10
1.42934e-10
4.96406e-11
9.21477e-12
1.05027e-12
1.08504e-13
1.02492e-14
8.73728e-16
6.68438e-17
4.55816e-18
2.74412e-19
1.43932e-20
6.45705e-22
2.41279e-23
7.21552e-25
1.61825e-26
2.4096e-28
1.73978e-30
4.02876e-06
0.000336311
0.00163333
0.0268679
0.328392
0.776853
0.81154
0.874154
0.876721
0.718471
0.237167
0.0218038
0.00398084
0.0011973
0.000296717
6.58206e-05
1.36153e-05
2.63237e-06
4.7613e-07
8.07895e-08
1.30539e-08
2.11107e-09
3.86028e-10
1.12592e-10
3.01109e-11
4.39183e-12
4.97651e-13
5.19054e-14
4.91601e-15
4.20371e-16
3.23014e-17
2.21533e-18
1.3433e-19
7.10782e-21
3.22247e-22
1.2193e-23
3.70066e-25
8.44457e-27
1.28294e-28
9.46579e-31
1.24029e-05
5.33475e-05
0.0231632
0.260452
0.764041
0.792352
0.541783
0.334887
0.292361
0.141406
0.0330849
0.0131056
0.0023413
0.000513094
0.00012954
2.88129e-05
5.91575e-06
1.13362e-06
2.03292e-07
3.43776e-08
5.61652e-09
9.83979e-10
2.10408e-10
7.66327e-11
1.51609e-11
1.90901e-12
2.18044e-13
2.27461e-14
2.15242e-15
1.84136e-16
1.4175e-17
9.75327e-19
5.94194e-20
3.16381e-21
1.44579e-22
5.52413e-24
1.69648e-25
3.926e-27
6.06423e-29
4.55429e-31
3.05319e-05
3.43881e-05
0.185163
0.714064
0.796915
0.794258
0.745933
0.196931
0.0448978
0.0185988
0.00713877
0.00349088
0.00103779
0.000227679
5.33022e-05
1.17682e-05
2.39181e-06
4.53493e-07
8.06291e-08
1.36546e-08
2.32278e-09
4.5345e-10
1.53867e-10
4.10267e-11
6.18154e-12
7.70388e-13
8.7886e-14
9.12674e-15
8.60692e-16
7.34942e-17
5.65579e-18
3.8961e-19
2.38004e-20
1.2727e-21
5.85036e-23
2.25238e-24
6.98239e-26
1.6342e-27
2.55762e-29
1.9456e-31
4.44324e-05
4.59501e-05
0.320986
0.792389
0.795508
0.797096
0.796244
0.437136
0.0339235
0.00742832
0.0027969
0.000976773
0.000339221
8.88835e-05
2.07603e-05
4.50065e-06
9.03004e-07
1.69061e-07
2.98943e-08
5.12464e-09
9.60551e-10
2.76008e-10
9.20043e-11
1.69864e-11
2.31923e-12
2.87295e-13
3.25016e-14
3.35071e-15
3.1428e-16
2.67372e-17
2.05337e-18
1.41393e-19
8.64786e-21
4.63749e-22
2.14133e-23
8.29462e-25
2.59131e-26
6.12141e-28
9.68118e-30
7.42856e-32
0.000160063
4.66513e-05
0.125127
0.757747
0.795992
0.79512
0.79618
0.794499
0.168371
0.00365416
0.000985225
0.000402305
0.000122428
3.25544e-05
7.57521e-06
1.61509e-06
3.18771e-07
5.8944e-08
1.03944e-08
1.90645e-09
4.58678e-10
1.6819e-10
3.94324e-11
5.99944e-12
8.039e-13
9.84109e-14
1.10086e-14
1.12474e-15
1.04765e-16
8.86798e-18
6.78841e-19
4.66745e-20
2.85538e-21
1.53419e-22
7.10966e-24
2.76847e-25
8.70786e-27
2.07388e-28
3.30934e-30
2.55473e-32
0.000565808
5.29351e-05
7.85811e-05
0.487795
0.795256
0.79618
0.79618
0.79618
0.453195
0.0132477
0.000598145
0.000136398
4.44277e-05
1.14552e-05
2.61208e-06
5.43386e-07
1.05147e-07
1.92299e-08
3.51566e-09
7.5218e-10
2.73158e-10
7.81847e-11
1.34655e-11
1.94289e-12
2.55843e-13
3.08535e-14
3.40897e-15
3.44842e-16
3.18715e-17
2.68225e-18
2.04534e-19
1.40348e-20
8.58424e-22
4.61953e-23
2.1478e-24
8.40466e-26
2.66062e-27
6.38532e-29
1.02727e-30
7.96466e-33
0.000345374
0.000909599
0.000558608
0.0308581
0.555273
0.795169
0.79618
0.795169
0.489702
0.0139107
0.000369098
6.08058e-05
1.54129e-05
3.82043e-06
8.37661e-07
1.69723e-07
3.23605e-08
5.99019e-09
1.2361e-09
4.09661e-10
1.33182e-10
2.63162e-11
4.08911e-12
5.75692e-13
7.43879e-14
8.8324e-15
9.6364e-16
9.6493e-17
8.84767e-18
7.40259e-19
5.62304e-20
3.85091e-21
2.35516e-22
1.26958e-23
5.92315e-25
2.32962e-26
7.42308e-28
1.79519e-29
2.91109e-31
2.2641e-33
3.1983e-05
0.000983244
0.00167806
0.00221842
0.0791913
0.423619
0.590616
0.532799
0.322047
0.0252075
0.000228001
2.55805e-05
4.58789e-06
1.15037e-06
2.44271e-07
4.88187e-08
9.3546e-09
1.88572e-09
5.71689e-10
1.98857e-10
4.50576e-11
7.52921e-12
1.1274e-12
1.55234e-13
1.96977e-14
2.30444e-15
2.4841e-16
2.4636e-17
2.2423e-18
1.86617e-19
1.4129e-20
9.66315e-22
5.91294e-23
3.19487e-24
1.49658e-25
5.91943e-27
1.89947e-28
4.63072e-30
7.57002e-32
5.90057e-34
1.22368e-05
0.000208683
0.00114501
0.00178724
0.00363019
0.0272353
0.0700767
0.0520387
0.044218
0.0283898
0.00105149
3.80329e-05
5.2427e-06
5.38441e-07
6.71786e-08
1.30773e-08
2.67824e-09
7.34509e-10
2.6289e-10
6.75479e-11
1.21611e-11
1.9273e-12
2.81388e-13
3.79802e-14
4.74199e-15
5.47478e-16
5.83888e-17
5.74244e-18
5.19427e-19
4.30505e-20
3.25231e-21
2.22371e-22
1.36282e-23
7.38808e-25
3.47813e-26
1.38469e-27
4.47813e-29
1.10123e-30
1.81542e-32
1.41679e-34
8.65256e-06
5.33837e-05
0.000439669
0.000931844
0.00135603
0.00257568
0.0041039
0.00420372
0.0031813
0.00661218
0.000702184
1.86839e-05
2.35164e-06
1.24661e-07
1.71632e-08
3.30116e-09
7.98922e-10
3.09746e-10
8.82361e-11
1.71587e-11
2.87335e-12
4.4331e-13
6.34265e-14
8.4216e-15
1.03744e-15
1.18473e-16
1.25264e-17
1.22393e-18
1.10213e-19
9.11122e-21
6.87861e-22
4.70858e-23
2.89415e-24
1.57622e-25
7.46657e-27
2.99527e-28
9.77214e-30
2.4259e-31
4.03459e-33
3.14846e-35
2.98815e-06
1.34038e-05
0.000122445
0.000413824
0.000602504
0.000584577
0.000850827
0.000937931
0.000740104
0.000140353
5.80194e-06
-1.06799e-08
8.06624e-08
1.7017e-08
3.42673e-09
8.22559e-10
2.41055e-10
9.63337e-11
2.08349e-11
3.69638e-12
6.02907e-13
9.14033e-14
1.28981e-14
1.69331e-15
2.0652e-16
2.33929e-17
2.45814e-18
2.39156e-19
2.14832e-20
1.77491e-21
1.34152e-22
9.2093e-24
5.68616e-25
3.11574e-26
1.48713e-27
6.01877e-29
1.98306e-30
4.97371e-32
8.34801e-34
6.50193e-36
4.719e-07
1.77149e-06
3.41448e-05
0.000107079
0.000123689
0.000118595
0.000167339
0.000190373
0.000156871
3.72341e-05
1.43686e-06
8.65365e-08
1.44822e-08
3.66652e-09
8.07854e-10
2.19025e-10
7.93176e-11
2.18891e-11
4.1738e-12
7.12132e-13
1.13161e-13
1.69703e-14
2.37136e-15
3.08538e-16
3.74007e-17
4.2187e-18
4.42131e-19
4.29687e-20
3.86161e-21
3.19525e-22
2.42258e-23
1.6709e-24
1.03812e-25
5.73222e-27
2.76073e-28
1.12872e-29
3.75985e-31
9.53514e-33
1.6154e-34
1.2521e-36
5.53056e-08
3.79744e-07
5.33599e-06
1.2946e-05
1.75561e-05
2.33947e-05
3.00219e-05
3.45974e-05
2.96316e-05
8.73552e-06
3.62769e-07
1.70044e-08
3.98239e-09
8.51767e-10
1.83291e-10
5.75133e-11
2.13487e-11
4.35461e-12
7.81606e-13
1.29638e-13
2.01085e-14
2.95506e-15
4.04814e-16
5.16141e-17
6.22034e-18
7.00005e-19
7.32719e-20
7.12089e-21
6.40856e-22
5.32502e-23
4.06014e-24
2.81993e-25
1.76658e-26
9.84789e-28
4.79354e-29
1.98252e-30
6.6837e-32
1.71499e-33
2.93166e-35
2.24536e-37
5.6083e-09
6.7604e-08
5.46841e-07
1.18563e-06
1.91236e-06
3.04499e-06
4.64274e-06
5.58456e-06
4.95139e-06
1.80289e-06
8.54612e-08
4.33988e-09
8.59242e-10
1.82001e-10
4.75234e-11
1.59709e-11
4.12174e-12
7.80227e-13
1.37284e-13
2.24657e-14
3.43667e-15
4.96387e-16
6.68932e-17
8.40167e-18
9.99148e-19
1.11171e-19
1.1525e-20
1.11141e-21
9.9496e-23
8.31128e-24
6.37914e-25
4.46585e-26
2.82364e-27
1.59066e-28
7.83331e-30
3.28067e-31
1.12057e-32
2.91206e-34
5.02575e-36
3.78293e-38
7.14618e-10
8.63766e-09
3.97311e-08
7.32136e-08
1.48483e-07
3.0861e-07
6.17647e-07
8.00366e-07
7.33421e-07
3.27899e-07
1.73039e-08
9.99583e-10
1.76432e-10
3.75729e-11
1.0412e-11
3.42834e-12
6.85477e-13
1.28789e-13
2.25284e-14
3.66404e-15
5.56846e-16
7.98384e-17
1.06797e-17
1.33295e-18
1.57047e-19
1.73269e-20
1.78412e-21
1.71214e-22
1.52835e-23
1.2757e-24
9.80564e-26
6.89041e-27
4.38311e-28
2.48988e-29
1.23917e-30
5.25538e-32
1.8208e-33
4.80432e-35
8.41166e-37
6.3003e-39
3.10031e-10
9.82404e-10
1.86324e-09
4.086e-09
1.25229e-08
3.40684e-08
6.90579e-08
9.94067e-08
9.6459e-08
4.73819e-08
3.10287e-09
1.93349e-10
3.18136e-11
7.54866e-12
2.09807e-12
5.17718e-13
1.04818e-13
1.97875e-14
3.46686e-15
5.63644e-16
8.55207e-17
1.22276e-17
1.63027e-18
2.02848e-19
2.38378e-20
2.62511e-21
2.70078e-22
2.59301e-23
2.319e-24
1.9383e-25
1.49491e-26
1.05621e-27
6.76962e-29
3.88265e-30
1.95479e-31
8.40176e-33
2.95438e-34
7.91921e-36
1.40837e-37
1.04895e-39
7.36319e-11
1.4543e-10
1.61186e-10
3.63984e-10
1.26384e-09
3.46181e-09
7.34264e-09
1.12179e-08
1.10996e-08
5.94318e-09
5.03954e-10
3.662e-11
5.67639e-12
1.31491e-12
3.30141e-13
7.21124e-14
1.49343e-14
2.84716e-15
5.02144e-16
8.19889e-17
1.2474e-17
1.78574e-18
2.38193e-19
2.96494e-20
3.48571e-21
3.8421e-22
3.95946e-23
3.81168e-24
3.4224e-25
2.87624e-26
2.23371e-27
1.59164e-28
1.03043e-29
5.97878e-31
3.04965e-32
1.32969e-33
4.74805e-35
1.29313e-36
2.33616e-38
1.71942e-40
7.5967e-12
2.3038e-11
3.16566e-11
4.57863e-11
1.27704e-10
3.27987e-10
7.19783e-10
1.14179e-09
1.19389e-09
6.7811e-10
7.55462e-11
6.97592e-12
1.1011e-12
1.83377e-13
4.1449e-14
9.44275e-15
1.99377e-15
3.85359e-16
6.86865e-17
1.1307e-17
1.73147e-18
2.49063e-19
3.33481e-20
4.16583e-21
4.91381e-22
5.43564e-23
5.62484e-24
5.4417e-25
4.91527e-26
4.16049e-27
3.25842e-28
2.34462e-29
1.53498e-30
9.01894e-32
4.66466e-33
2.06468e-34
7.49121e-36
2.0743e-37
3.8103e-39
2.76454e-41
6.18848e-13
2.17104e-12
7.07614e-12
1.59499e-11
2.56018e-11
4.25486e-11
8.22021e-11
1.10901e-10
1.43684e-10
7.25323e-11
1.1216e-11
1.17552e-12
1.53003e-13
2.28791e-14
4.90558e-15
1.16278e-15
2.50659e-16
4.92633e-17
8.90189e-18
1.48216e-18
2.29172e-19
3.32253e-20
4.47888e-21
5.63075e-22
6.68154e-23
7.43588e-24
7.7442e-25
7.54498e-26
6.86911e-27
5.86588e-28
4.6399e-29
3.37598e-30
2.23762e-31
1.33266e-32
6.99462e-34
3.14499e-35
1.16009e-36
3.26759e-38
6.10656e-40
4.35734e-42
4.97832e-14
1.83535e-13
6.77156e-13
2.58755e-12
7.92671e-12
1.70814e-11
2.1599e-11
1.62331e-11
1.61554e-11
8.0772e-12
1.33226e-12
1.42425e-13
1.68458e-14
2.65985e-15
5.48783e-16
1.35303e-16
2.98191e-17
5.97185e-18
1.09664e-18
1.85151e-19
2.89819e-20
4.24604e-21
5.77747e-22
7.32784e-23
8.76812e-24
9.83903e-25
1.03343e-25
1.0159e-26
9.3386e-28
8.05807e-29
6.44652e-30
4.74871e-31
3.1899e-32
1.92744e-33
1.02736e-34
4.69523e-36
1.76159e-37
5.0493e-39
9.604e-41
6.72525e-43
3.73543e-15
1.46677e-14
5.47753e-14
2.09135e-13
8.34663e-13
2.64916e-12
4.00066e-12
3.2253e-12
2.14042e-12
7.05657e-13
1.4033e-13
1.46771e-14
1.75727e-15
2.90255e-16
6.0991e-17
1.49371e-17
3.37183e-18
6.89072e-19
1.28821e-19
2.20987e-20
3.5093e-21
5.2069e-22
7.16706e-23
9.19078e-24
1.11124e-24
1.25979e-25
1.33696e-26
1.32836e-27
1.23486e-28
1.0782e-29
8.73495e-31
6.52153e-32
4.44405e-33
2.72646e-34
1.47681e-35
6.86362e-37
2.62025e-38
7.64521e-40
1.48037e-41
1.01538e-43
2.54841e-16
1.06159e-15
4.07826e-15
1.53558e-14
5.82362e-14
1.88403e-13
3.35254e-13
3.61842e-13
2.35616e-13
5.74523e-14
1.23751e-14
1.34447e-15
1.71613e-16
2.97039e-17
6.50789e-18
1.57356e-18
3.63873e-19
7.59464e-20
1.44726e-20
2.52647e-21
4.07716e-22
6.13769e-23
8.56217e-24
1.11216e-24
1.36121e-25
1.56175e-26
1.67735e-27
1.68699e-28
1.58813e-29
1.4049e-30
1.15389e-31
8.74011e-33
6.04697e-34
3.76944e-35
2.07598e-36
9.81597e-38
3.81413e-39
1.13306e-40
2.23382e-42
1.4982e-44
1.53821e-17
6.83511e-17
2.73522e-16
1.03219e-15
3.82486e-15
1.22881e-14
2.25868e-14
2.50242e-14
1.81787e-14
4.40969e-15
9.95126e-16
1.1625e-16
1.57383e-17
2.85869e-18
6.50323e-19
1.58817e-19
3.7606e-20
8.0205e-21
1.55938e-21
2.77344e-22
4.55444e-23
6.96656e-24
9.86485e-25
1.29992e-25
1.61307e-26
1.87576e-27
2.04173e-28
2.08136e-29
1.98664e-30
1.78253e-31
1.48571e-32
1.14268e-33
8.0325e-35
5.09056e-36
2.85191e-37
1.37238e-38
5.4288e-40
1.6422e-41
3.29642e-43
2.15867e-45
7.95872e-19
3.79938e-18
1.61881e-17
6.26058e-17
2.32411e-16
7.63768e-16
1.47859e-15
1.67697e-15
1.27194e-15
3.18305e-16
7.62379e-17
9.48708e-18
1.35975e-18
2.59491e-19
6.14274e-20
1.54027e-20
3.73288e-21
8.13853e-22
1.61551e-22
2.93002e-23
4.90143e-24
7.62722e-25
1.09772e-25
1.46936e-26
1.85097e-27
2.18432e-28
2.41251e-29
2.49558e-30
2.41767e-31
2.20233e-32
1.86433e-33
1.45701e-34
1.04127e-35
6.71227e-37
3.82671e-38
1.87457e-39
7.55027e-41
2.32577e-42
4.75301e-44
3.03525e-46
3.49213e-20
1.7934e-19
8.31729e-19
3.40519e-18
1.29776e-17
4.40919e-17
9.10811e-17
1.08305e-16
8.56107e-17
2.16786e-17
5.51307e-18
7.31178e-19
1.11029e-19
2.22831e-20
5.50109e-21
1.43847e-21
3.56721e-22
7.95367e-23
1.61287e-23
2.98525e-24
5.0914e-25
8.0681e-26
1.18144e-26
1.60813e-27
2.05874e-28
2.46813e-29
2.76884e-30
2.90918e-31
2.86307e-32
2.64992e-33
2.27995e-34
1.81168e-35
1.31696e-36
8.63855e-38
5.0131e-39
2.50033e-40
1.02546e-41
3.21656e-43
6.69118e-45
4.16264e-47
1.30231e-21
7.20119e-21
3.71534e-20
1.66142e-19
6.65458e-19
2.35447e-18
5.27231e-18
6.66068e-18
5.43988e-18
1.39816e-18
3.77606e-19
5.33956e-20
8.59532e-21
1.81566e-21
4.68373e-22
1.29556e-22
3.28785e-23
7.5011e-24
1.55483e-24
2.9388e-25
5.11372e-26
8.25877e-27
1.23155e-27
1.70615e-28
2.22175e-29
2.70831e-30
3.08869e-31
3.29887e-32
3.3005e-33
3.10587e-34
2.71758e-35
2.19669e-36
1.62489e-37
1.08489e-38
6.40986e-40
3.25534e-41
1.3595e-42
4.34186e-44
9.19146e-46
5.56608e-48
4.13343e-23
2.46421e-22
1.449e-21
7.29162e-21
3.14205e-20
1.17569e-19
2.87286e-19
3.88468e-19
3.28111e-19
8.56743e-20
2.45794e-20
3.70683e-21
6.32827e-22
1.40889e-22
3.83986e-23
1.1262e-23
2.92697e-24
6.83786e-25
1.44974e-25
2.8e-26
4.97403e-27
8.19285e-28
1.24505e-28
1.75681e-29
2.32875e-30
2.88855e-31
3.35125e-32
3.64084e-33
3.70536e-34
3.5471e-35
3.15777e-36
2.59756e-37
1.95576e-38
1.32942e-39
7.99788e-41
4.13614e-42
1.75878e-43
5.71815e-45
1.23146e-46
7.25501e-49
1.13278e-24
7.40254e-24
4.96852e-23
2.88826e-22
1.36581e-21
5.48558e-21
1.47913e-20
2.15997e-20
1.87889e-20
5.00353e-21
1.52558e-21
2.45425e-22
4.44429e-23
1.04597e-23
3.13157e-24
9.44985e-25
2.51964e-25
6.03294e-26
1.30932e-26
2.58571e-27
4.69215e-28
7.88715e-29
1.22227e-29
1.75769e-30
2.37316e-31
2.9971e-32
3.5394e-33
3.91345e-34
4.05333e-35
3.9489e-36
3.57806e-37
2.9961e-38
2.29665e-39
1.58958e-40
9.73795e-42
5.12795e-43
2.21993e-44
7.34571e-46
1.60876e-47
9.21727e-50
3.02841e-26
2.27194e-25
1.66213e-24
1.04502e-23
5.4788e-23
2.40158e-22
7.21508e-22
1.14485e-21
1.02892e-21
2.99648e-22
9.04186e-23
1.55469e-23
2.98699e-24
7.43969e-25
2.4838e-25
7.66312e-26
2.09933e-26
5.15748e-27
1.14678e-27
2.31736e-28
4.29826e-29
7.37769e-30
1.16657e-30
1.71063e-31
2.35371e-32
3.02805e-33
3.64162e-34
4.09965e-35
4.32298e-36
4.28757e-37
3.95515e-38
3.37195e-39
2.63186e-40
1.85489e-41
1.15709e-42
6.20381e-44
2.73372e-45
9.20406e-47
2.04897e-48
1.14149e-50
7.72284e-28
6.40032e-27
5.42432e-26
3.7623e-25
2.04049e-24
9.86172e-24
3.34419e-23
5.79312e-23
5.40315e-23
1.79591e-23
5.14166e-24
9.45082e-25
1.93235e-25
5.35469e-26
1.89554e-26
6.01062e-27
1.69446e-27
4.27647e-28
9.75168e-29
2.01797e-29
3.82819e-30
6.71361e-31
1.08373e-31
1.62123e-32
2.27431e-33
2.98178e-34
3.65324e-35
4.18887e-36
4.49823e-37
4.54293e-38
4.26724e-39
3.70448e-40
2.94428e-41
2.11299e-42
1.34207e-43
7.32515e-45
3.28486e-46
1.12494e-47
2.54434e-49
1.37828e-51
1.62839e-29
1.53421e-28
1.59148e-27
1.29448e-26
7.54092e-26
3.77664e-25
1.47654e-24
2.80532e-24
2.72625e-24
1.04304e-24
2.81604e-25
5.5306e-26
1.20558e-26
3.86251e-27
1.39631e-27
4.56399e-28
1.32615e-28
3.44276e-29
8.05948e-30
1.70932e-30
3.31875e-31
5.95017e-32
9.81066e-33
1.49791e-33
2.14324e-34
2.86464e-35
3.57665e-36
4.1781e-37
4.57006e-38
4.70061e-39
4.49646e-40
3.975e-41
3.21702e-42
2.35074e-43
1.52005e-44
8.44425e-46
3.85255e-47
1.34151e-48
3.08103e-50
1.62314e-52
2.48498e-31
2.85245e-30
4.10487e-29
4.12184e-28
2.69401e-27
1.35919e-26
6.2239e-26
1.30227e-25
1.32555e-25
5.83392e-26
1.49029e-26
3.12659e-27
7.30941e-28
2.69236e-28
9.94755e-29
3.35843e-29
1.00743e-29
2.69374e-30
6.48084e-31
1.40997e-31
2.80371e-32
5.14211e-33
8.66431e-34
1.35072e-34
1.97192e-35
2.68778e-36
3.42072e-37
4.07183e-38
4.53729e-39
4.75345e-40
4.63077e-41
4.16871e-42
3.43522e-43
2.55556e-44
1.68203e-45
9.5082e-47
4.41204e-48
1.5615e-49
3.63962e-51
1.86528e-53
3.65963e-33
4.50402e-32
8.72512e-31
1.20787e-29
9.09996e-29
4.85289e-28
2.48283e-27
5.8345e-27
6.20947e-27
3.1352e-27
7.64263e-28
1.72014e-28
4.79852e-29
1.8044e-29
6.86363e-30
2.39795e-30
7.43713e-31
2.05083e-31
5.0763e-32
1.13389e-32
2.31088e-33
4.3381e-34
7.47368e-35
1.19011e-35
1.77333e-36
2.46558e-37
3.19929e-38
3.88119e-39
4.40634e-40
4.70209e-41
4.66509e-42
4.27626e-43
3.58762e-44
2.71673e-45
1.81967e-46
1.0464e-47
4.93678e-49
1.77507e-50
4.19642e-52
2.09304e-54
8.50983e-35
1.17124e-33
1.3485e-32
3.22397e-31
2.91363e-30
1.72788e-29
9.43713e-29
2.52176e-28
2.81136e-28
1.62257e-28
3.98618e-29
9.5093e-30
3.08486e-30
1.16943e-30
4.5938e-31
1.6637e-31
5.34246e-32
1.52115e-32
3.87779e-33
8.90085e-34
1.8605e-34
3.57708e-35
6.30407e-36
1.02579e-36
1.56056e-37
2.21384e-38
2.92933e-39
3.62219e-40
4.19e-41
4.5544e-42
4.60155e-43
4.29457e-44
3.6676e-45
2.82644e-46
1.92607e-47
1.12637e-48
5.40102e-50
1.97206e-51
4.72556e-53
2.29506e-55
1.83771e-36
2.86035e-35
3.68902e-34
7.59061e-33
8.84701e-32
5.8898e-31
3.45311e-30
1.05202e-29
1.23399e-29
8.12843e-30
2.27693e-30
5.7314e-31
1.89426e-31
7.34709e-32
2.98754e-32
1.12334e-32
3.7397e-33
1.10068e-33
2.89265e-34
6.82863e-35
1.46497e-35
2.88644e-36
5.20625e-37
8.66e-38
1.34551e-38
1.94799e-39
2.62887e-40
3.31364e-41
3.90563e-42
4.32414e-43
4.44877e-44
4.22675e-45
3.67372e-46
2.88055e-47
1.99649e-48
1.18695e-49
5.78234e-51
2.14293e-52
5.2015e-54
2.46137e-56
3.67877e-38
6.56107e-37
9.57434e-36
1.53987e-34
2.55066e-33
1.92763e-32
1.22079e-31
4.24353e-31
5.26605e-31
3.94155e-31
1.2605e-31
3.35628e-32
1.1238e-32
4.48356e-33
1.89119e-33
7.39323e-34
2.55456e-34
7.78e-35
2.10979e-35
5.12643e-36
1.12955e-36
2.28207e-37
4.21475e-38
7.16945e-39
1.13798e-39
1.68178e-40
2.31515e-41
2.97498e-42
3.57287e-43
4.02901e-44
4.22046e-45
4.08137e-46
3.60949e-47
2.87877e-48
2.02869e-49
1.22568e-50
6.06372e-52
2.27975e-53
5.60147e-55
2.58437e-57
6.8346e-40
1.41751e-38
2.36658e-37
3.0538e-36
6.99369e-35
6.08593e-34
4.18814e-33
1.65874e-32
2.18953e-32
1.85465e-32
6.64825e-33
1.87685e-33
6.46338e-34
2.66256e-34
1.16717e-34
4.74968e-35
1.70509e-35
5.3784e-36
1.50628e-36
3.77013e-37
8.53752e-38
1.7697e-38
3.3484e-39
5.82701e-40
9.45183e-41
1.42623e-41
2.00308e-42
2.6243e-43
3.21148e-44
3.68841e-45
3.93345e-46
3.87098e-47
3.48254e-48
2.82435e-49
2.02298e-50
1.24158e-51
6.2349e-53
2.37682e-54
5.90755e-56
2.65941e-58
1.18913e-41
2.90928e-40
5.61144e-39
8.21188e-38
1.83775e-36
1.86672e-35
1.39979e-34
6.25913e-34
8.98409e-34
8.43485e-34
3.37823e-34
1.01304e-34
3.61055e-35
1.54084e-35
7.03128e-36
2.98167e-36
1.11309e-36
3.63944e-37
1.05349e-37
2.71814e-38
6.33031e-39
1.34709e-39
2.6125e-40
4.65318e-41
7.71613e-42
1.18916e-42
1.70429e-43
2.27685e-44
2.83931e-45
3.32121e-46
3.60553e-47
3.61036e-48
3.30338e-49
2.72338e-50
1.98189e-51
1.23507e-52
6.29258e-54
2.43092e-55
6.1077e-57
2.68479e-59
1.99377e-43
5.79625e-42
1.29645e-40
2.1561e-39
4.73887e-38
5.62159e-37
4.60237e-36
2.28168e-35
3.66936e-35
3.69281e-35
1.65789e-35
5.28092e-36
1.95148e-36
8.64131e-37
4.1168e-37
1.82565e-37
7.11099e-38
2.41206e-38
7.22122e-39
1.92193e-39
4.60625e-40
1.00688e-40
2.00262e-41
3.65251e-42
6.19448e-43
9.7537e-44
1.42691e-44
1.94428e-45
2.47108e-46
2.94408e-47
3.2535e-48
3.31448e-49
3.08365e-50
2.58361e-51
1.90958e-52
1.20776e-53
6.23984e-55
2.44145e-56
6.19685e-58
2.66154e-60
3.50424e-45
1.19117e-43
3.07412e-42
5.83218e-41
1.23432e-39
1.68332e-38
1.46507e-37
7.69848e-37
1.24122e-36
1.24052e-36
6.28271e-37
2.13593e-37
8.37789e-38
3.88517e-38
1.92169e-38
8.84313e-39
3.57989e-39
1.31822e-39
4.20832e-40
1.18275e-40
2.97274e-41
6.79013e-42
1.40494e-42
2.65434e-43
4.65382e-44
7.55297e-45
1.13663e-45
1.59083e-46
2.07361e-47
2.53272e-48
2.86726e-49
2.99044e-50
2.84523e-51
2.42253e-52
1.81813e-53
1.16659e-54
6.1078e-56
2.41846e-57
6.1963e-59
2.60219e-61
8.99455e-47
3.50448e-45
1.19144e-43
3.07504e-42
5.83416e-41
7.83855e-40
7.67763e-39
5.70324e-38
2.39449e-37
4.3917e-37
1.57548e-37
6.2729e-38
2.91234e-38
1.40456e-38
6.26133e-39
2.46305e-39
8.4907e-40
2.57982e-40
6.96996e-41
1.69585e-41
3.75447e-42
7.56109e-43
1.39688e-43
2.39656e-44
3.81385e-45
5.71375e-46
7.99204e-47
1.04245e-47
1.27439e-48
1.44781e-49
1.51898e-50
1.45948e-51
1.28074e-52
1.11475e-53
8.5441e-55
5.5929e-56
2.98389e-57
1.20244e-58
3.12937e-60
1.30407e-62
)
;

boundaryField
{
    leftWall
    {
        type            zeroGradient;
    }
    rightWall
    {
        type            zeroGradient;
    }
    lowerWall
    {
        type            zeroGradient;
    }
    atmosphere
    {
        type            inletOutlet;
        inletValue      uniform 0;
        value           nonuniform List<scalar> 
45
(
0
0
4.4001e-52
3.05519e-50
1.86155e-48
8.99455e-47
3.50448e-45
1.19144e-43
3.07504e-42
5.83416e-41
7.83855e-40
7.67763e-39
5.70324e-38
2.39449e-37
4.3917e-37
1.57548e-37
6.2729e-38
2.91234e-38
1.40456e-38
6.26133e-39
2.46305e-39
8.4907e-40
2.57982e-40
6.96996e-41
1.69585e-41
3.75447e-42
7.56109e-43
1.39688e-43
2.39656e-44
3.81385e-45
5.71375e-46
7.99204e-47
1.04245e-47
1.27439e-48
1.44781e-49
1.51898e-50
1.45948e-51
1.28074e-52
1.11475e-53
8.5441e-55
5.5929e-56
2.98389e-57
1.20244e-58
3.12937e-60
1.30407e-62
)
;
    }
    defaultFaces
    {
        type            empty;
    }
    procBoundary3to1
    {
        type            processor;
        value           nonuniform List<scalar> 
45
(
8.99256e-09
1.03359e-08
1.97344e-06
1.86293e-06
3.09413e-08
1.2712e-07
3.41016e-07
4.856e-07
2.09271e-06
0.00363305
0.0564132
0.510896
0.946915
0.969796
0.974387
0.966853
0.749302
0.161661
0.00754016
0.00196379
0.000480854
0.000101952
2.02822e-05
3.77322e-06
6.55412e-07
1.06545e-07
1.65206e-08
2.45133e-09
4.12287e-10
7.37992e-11
2.31451e-11
3.71053e-12
3.65895e-13
3.37499e-14
2.83184e-15
2.1286e-16
1.42206e-17
8.3609e-19
4.26725e-20
1.85472e-21
6.68091e-23
1.91512e-24
4.08693e-26
5.74397e-28
3.89335e-30
)
;
    }
    procBoundary3to2
    {
        type            processor;
        value           nonuniform List<scalar> 
43
(
1.50823e-08
5.37093e-09
1.98487e-08
3.69022e-08
2.85937e-08
4.12369e-09
2.28324e-09
3.97235e-09
3.59473e-09
3.23445e-09
2.42769e-09
1.37698e-09
5.24368e-10
1.06285e-10
1.33814e-11
4.84224e-12
5.23792e-13
4.65254e-14
3.45751e-15
2.44489e-16
1.85267e-17
1.32752e-18
8.08999e-20
3.83629e-21
1.28516e-22
2.97814e-24
5.73134e-26
5.46576e-28
1.24744e-29
2.5565e-31
4.78172e-33
8.02901e-35
1.18765e-36
1.54747e-38
1.78184e-40
1.79267e-42
1.51703e-44
1.05918e-46
5.95599e-49
2.57433e-51
7.96549e-54
1.22583e-56
-4.96137e-63
)
;
    }
}


// ************************************************************************* //
