/*--------------------------------*- C++ -*----------------------------------*\
| =========                 |                                                 |
| \\      /  F ield         | OpenFOAM: The Open Source CFD Toolbox           |
|  \\    /   O peration     | Version:  5.0                                   |
|   \\  /    A nd           | Web:      www.OpenFOAM.org                      |
|    \\/     M anipulation  |                                                 |
\*---------------------------------------------------------------------------*/
FoamFile
{
    version     2.0;
    format      ascii;
    class       surfaceScalarField;
    location    "0.35";
    object      alphaPhi10;
}
// * * * * * * * * * * * * * * * * * * * * * * * * * * * * * * * * * * * * * //

dimensions      [0 3 -1 0 0 0 0];

internalField   nonuniform List<scalar> 
3782
(
-4.66936e-13
2.38469e-12
-6.92326e-13
4.00239e-12
-5.80188e-12
3.52845e-12
-6.8076e-12
3.7852e-12
-6.15317e-12
7.12647e-13
-3.77716e-12
-5.59694e-13
-2.61397e-12
-3.58687e-13
-2.56029e-12
1.26718e-12
-2.99383e-12
1.78995e-12
-2.91517e-12
1.07857e-12
-2.30476e-12
-3.46794e-13
-1.12968e-12
-1.44186e-12
-3.16937e-13
-1.15307e-12
-5.09554e-14
-3.79954e-13
-5.81648e-15
-6.49475e-14
-7.23164e-16
-8.35489e-15
-7.29339e-17
-1.87028e-15
-5.44985e-18
-1.95625e-16
-3.46741e-19
-1.63227e-17
-2.08544e-20
-1.16295e-18
-1.18538e-21
-7.81005e-20
-6.16971e-23
-4.92684e-21
-2.87043e-24
-2.8264e-22
-1.17787e-25
-1.43953e-23
-4.26852e-27
-6.42884e-25
-1.35854e-28
-2.52443e-26
-3.82594e-30
-8.65571e-28
-9.62722e-32
-2.61083e-29
-2.212e-33
-7.00321e-31
-4.69996e-35
-1.69954e-32
-9.12314e-37
-3.7748e-34
-1.61121e-38
-7.57315e-36
-2.57314e-40
-1.3651e-37
-3.71457e-42
-2.19889e-39
-4.83865e-44
-3.16534e-41
-5.61568e-46
-4.0562e-43
-5.6589e-48
-4.56398e-45
-4.86398e-50
-4.31574e-47
-3.48054e-52
-3.41859e-49
-1.99848e-54
-2.2104e-51
-8.76349e-57
-1.12624e-53
-3.68737e-59
-4.34234e-56
-1.07847e-58
3.58432e-12
-1.57795e-12
1.69604e-09
-2.15158e-10
2.07234e-09
8.61542e-10
9.21567e-10
9.08627e-11
3.01761e-12
-1.67151e-12
1.74811e-09
-1.88867e-11
1.15596e-09
1.4901e-09
1.29271e-09
3.53761e-10
2.88629e-12
-2.0902e-12
6.22713e-10
-6.38896e-10
8.84771e-09
1.44141e-09
5.83874e-09
4.45673e-09
4.23583e-12
-3.71925e-12
1.18202e-09
-2.63642e-12
9.82935e-09
6.30601e-11
5.69116e-09
2.68906e-09
1.87789e-12
-3.00032e-12
8.50039e-12
-6.67863e-12
4.78057e-09
-8.96794e-10
4.86085e-09
7.39113e-09
1.17316e-13
-1.07641e-11
3.31396e-11
-3.2338e-11
1.17384e-09
-5.73127e-10
2.28053e-09
7.02586e-09
4.42253e-12
-1.08099e-11
3.55287e-11
-4.69835e-11
-1.66646e-10
-2.32056e-10
-9.89388e-10
2.39531e-09
7.85178e-12
-1.02695e-11
1.50927e-11
-3.63606e-11
-1.26089e-11
-1.5022e-10
-7.40552e-10
-4.67978e-09
8.01928e-12
-1.17888e-11
3.7076e-11
-4.3381e-11
9.77819e-11
-1.46829e-10
-4.5197e-10
-3.81332e-11
5.60458e-12
-1.18933e-11
2.83816e-11
-4.53978e-11
1.23898e-10
-1.53436e-10
-4.59089e-10
3.07605e-10
-5.76943e-13
-9.88023e-12
2.08e-12
-3.96008e-11
2.55837e-11
-1.41555e-10
-4.47284e-10
1.51302e-10
-5.9632e-12
-5.02218e-12
-2.38724e-11
-2.07871e-11
-8.70867e-11
-7.77936e-11
-2.611e-10
-2.79967e-10
-5.15182e-12
-1.49626e-12
-2.26197e-11
-6.42811e-12
-9.01205e-11
-2.47392e-11
-8.63842e-11
-3.26831e-10
-1.79703e-12
-2.61013e-13
-7.82748e-12
-1.17749e-12
-3.10518e-11
-4.64106e-12
-1.63305e-11
-1.13012e-10
-3.21426e-13
-2.75914e-14
-1.45855e-12
-1.34556e-13
-5.92506e-12
-5.52656e-13
-1.96551e-12
-2.17952e-11
-3.61694e-14
-2.65695e-15
-1.65484e-13
-1.07036e-14
-7.06118e-13
-4.56867e-14
-1.66076e-13
-2.64751e-12
-5.73336e-15
-2.71826e-16
-1.6211e-14
-9.65089e-16
-6.24246e-14
-3.251e-15
-1.15573e-14
-2.34524e-13
-8.5342e-16
-2.06447e-17
-3.47031e-15
-7.47603e-17
-1.06268e-14
-2.39942e-16
-6.67899e-16
-2.75604e-14
-7.35729e-17
-1.32709e-18
-3.19887e-16
-4.81594e-18
-1.24819e-15
-1.51225e-17
-3.82659e-17
-4.26541e-15
-5.40372e-18
-8.10415e-20
-2.43048e-17
-2.96336e-19
-9.84732e-17
-9.16929e-19
-2.12284e-18
-3.69325e-16
-3.75582e-19
-4.70978e-21
-1.76238e-18
-1.74565e-20
-7.39772e-18
-5.34162e-20
-1.09746e-19
-2.85937e-17
-2.4668e-20
-2.51947e-22
-1.21623e-19
-9.49532e-22
-5.36721e-19
-2.85485e-21
-4.74501e-21
-2.16568e-18
-1.4815e-21
-1.20842e-23
-7.70583e-21
-4.63397e-23
-3.61529e-20
-1.34844e-22
-1.36693e-22
-1.5409e-19
-7.93269e-23
-5.12835e-25
-4.3701e-22
-1.99935e-24
-2.18392e-21
-5.48948e-24
5.72404e-25
-9.93024e-21
-3.73971e-24
-1.93357e-26
-2.19104e-23
-7.65079e-26
-1.16515e-22
-1.90944e-25
4.35723e-25
-5.68328e-22
-1.55508e-25
-6.42355e-28
-9.79509e-25
-2.56753e-27
-5.57397e-24
-5.39414e-27
3.61793e-26
-2.86575e-23
-5.66303e-27
-1.8958e-29
-3.84262e-26
-7.61214e-29
-2.33774e-25
-1.14769e-28
2.02456e-27
-1.26418e-24
-1.81993e-28
-5.03125e-31
-1.33487e-27
-2.01416e-30
-8.66175e-27
-1.28206e-30
9.10385e-29
-4.92295e-26
-5.2233e-30
-1.22233e-32
-4.1375e-29
-4.85199e-32
-2.86299e-28
3.298e-32
3.51878e-30
-1.71383e-27
-1.36308e-31
-2.75651e-34
-1.17096e-30
-1.07908e-33
-8.61339e-30
2.86265e-33
1.22732e-31
-5.43164e-29
-3.28111e-33
-5.69963e-36
-3.04436e-32
-2.18284e-35
-2.40169e-31
1.2104e-34
4.56512e-33
-1.60971e-30
-7.18201e-35
-1.07706e-37
-7.22796e-34
-4.00122e-37
-6.12963e-33
3.90763e-36
1.55754e-34
-5.07065e-32
-1.42512e-36
-1.84958e-39
-1.59061e-35
-6.55653e-39
-1.42419e-34
1.11689e-37
4.84531e-36
-1.47952e-33
-2.51734e-38
-2.89251e-41
-3.39784e-37
-9.57515e-41
-3.20263e-36
3.0165e-39
1.82664e-37
-3.94964e-35
-3.9671e-40
-4.12932e-43
-5.58491e-39
-1.25334e-42
-7.20797e-38
7.42637e-41
6.04059e-39
-1.04675e-36
-5.70025e-42
-5.33514e-45
-7.98124e-41
-1.45709e-44
-1.49735e-39
1.66773e-42
1.72954e-40
-2.56872e-38
-7.68904e-44
-6.03748e-47
-1.0499e-42
-1.49525e-46
-2.84054e-41
4.15561e-44
4.37686e-42
-5.76075e-40
-9.67532e-46
-5.9692e-49
-1.29256e-44
-1.33239e-48
-4.98539e-43
1.11697e-45
9.88051e-44
-1.17795e-41
-8.11635e-48
-5.07822e-51
-1.39569e-46
-1.01837e-50
-8.35941e-45
2.37429e-47
1.99552e-45
-2.19011e-43
-5.66311e-50
-3.62617e-53
-1.27957e-48
-5.77374e-53
-1.24471e-46
4.26335e-49
3.63496e-47
-3.68623e-45
-3.15629e-52
-2.13091e-55
-9.82368e-51
4.13973e-56
-1.65486e-48
6.82994e-51
6.07569e-49
-5.6435e-47
-1.38006e-54
-1.57758e-57
-6.40818e-53
3.41254e-56
-2.02687e-50
1.05099e-52
9.64497e-51
-8.07034e-49
-5.0857e-57
-9.60428e-55
-2.58202e-52
-1.19328e-50
9.59304e-11
2.13472e-10
9.57294e-11
4.63762e-10
1.29488e-09
6.96894e-09
1.31302e-09
9.61555e-10
7.07577e-06
2.76647e-06
4.30869e-05
6.46217e-05
5.1308e-05
8.47396e-05
5.20998e-05
9.01985e-05
5.26724e-05
9.41935e-05
5.24398e-05
9.67721e-05
3.50004e-05
7.25607e-05
1.94258e-06
1.36434e-05
-6.51684e-07
2.71433e-06
-1.17173e-07
8.28397e-07
-2.17236e-08
2.0879e-07
-4.38457e-09
4.96546e-08
-8.43077e-10
1.08414e-08
-1.57068e-10
2.19871e-09
-2.84991e-11
4.1803e-10
-4.96893e-12
7.47672e-11
-8.01905e-13
1.25882e-11
-1.08079e-13
2.00315e-12
-5.68382e-15
3.05021e-13
3.77472e-15
4.44387e-14
1.60822e-15
8.09013e-15
2.4333e-16
1.19479e-15
2.39559e-17
1.45166e-16
2.21475e-18
1.59006e-17
1.84799e-19
1.58138e-18
1.3736e-20
1.42387e-19
9.0208e-22
1.15534e-20
5.17655e-23
8.39034e-22
2.55579e-24
5.4017e-23
1.06225e-25
3.04263e-24
3.60051e-27
1.47229e-25
9.48113e-29
5.96189e-27
1.78941e-30
1.94218e-28
2.0757e-32
4.7729e-30
1.00542e-34
7.83961e-32
6.27352e-34
4.70764e-10
3.89278e-10
7.77901e-09
1.11784e-08
4.97046e-08
8.44086e-08
5.54935e-07
3.71969e-07
1.75748e-05
2.16835e-05
4.40587e-05
7.6449e-05
4.73676e-05
8.09731e-05
4.8798e-05
8.78135e-05
4.97971e-05
9.34152e-05
4.32686e-05
8.31818e-05
1.05684e-05
2.72605e-05
-7.27366e-07
3.60104e-06
-2.04932e-07
1.10649e-06
-4.93017e-08
3.40632e-07
-1.17542e-08
9.0741e-08
-2.5444e-09
2.20229e-08
-5.13234e-10
4.87456e-09
-9.86006e-11
9.97125e-10
-1.81101e-11
1.90418e-10
-3.13759e-12
3.41059e-11
-4.95671e-13
5.75207e-12
-6.20054e-14
9.21734e-13
-4.72189e-15
1.43699e-13
3.70479e-15
2.33527e-14
1.01016e-15
4.39974e-15
1.14979e-16
6.09929e-16
1.16241e-17
7.33583e-17
1.08234e-18
8.01013e-18
9.0496e-20
7.94615e-19
6.74148e-21
7.14168e-20
4.43949e-22
5.78867e-21
2.55588e-23
4.20267e-22
1.26667e-24
2.70709e-23
5.28746e-26
1.52692e-24
1.80104e-27
7.40529e-26
4.76893e-29
3.00826e-27
9.05592e-31
9.84067e-29
1.05751e-32
2.43061e-30
5.15672e-35
4.01568e-32
3.22967e-34
3.96886e-09
1.09423e-09
1.05718e-07
4.32645e-08
5.09933e-07
6.83401e-07
8.13735e-06
1.32621e-05
3.64997e-05
6.90892e-05
4.56077e-05
7.3489e-05
4.05589e-05
5.13394e-05
4.18465e-05
5.22483e-05
3.8523e-05
5.30741e-05
1.84485e-05
2.80282e-05
5.28229e-07
3.38038e-06
-2.50759e-07
1.48536e-06
-6.89763e-08
4.55145e-07
-1.96771e-08
1.37608e-07
-5.25377e-09
3.7096e-08
-1.21897e-09
9.06076e-09
-2.57914e-10
2.0203e-09
-5.10595e-11
4.1525e-10
-9.50303e-12
7.94377e-11
-1.63923e-12
1.42337e-11
-2.51262e-13
2.40882e-12
-2.52549e-14
3.92539e-13
3.89948e-15
6.25665e-14
2.5558e-15
1.30382e-14
4.5458e-16
2.1601e-15
5.01731e-17
2.851e-16
5.15819e-18
3.39957e-17
4.80591e-19
3.68997e-18
4.0154e-20
3.64212e-19
2.99111e-21
3.26027e-20
1.97086e-22
2.63444e-21
1.136e-23
1.90849e-22
5.64024e-25
1.2278e-23
2.36029e-26
6.92348e-25
8.0655e-28
3.36019e-26
2.14406e-29
1.36742e-27
4.09066e-31
4.48572e-29
4.80325e-33
1.11225e-30
2.35566e-35
1.8464e-32
1.4909e-34
1.48685e-09
1.85133e-09
2.20734e-08
1.26903e-08
6.77607e-06
8.34072e-06
3.15083e-05
6.12286e-05
3.41517e-05
7.42065e-05
3.32862e-05
7.464e-05
1.20301e-05
5.65989e-05
1.04561e-05
1.50253e-05
8.88765e-06
8.17116e-06
3.11804e-06
2.75403e-06
5.76297e-07
6.53189e-07
-1.91103e-08
4.44024e-07
-2.76192e-08
1.74053e-07
-7.54713e-09
5.16419e-08
-2.088e-09
1.4231e-08
-5.13035e-10
3.49504e-09
-1.13072e-10
7.79613e-10
-2.29354e-11
1.60058e-10
-4.30538e-12
3.05476e-11
-7.36732e-13
5.47342e-12
-1.0447e-13
9.35236e-13
-9.77535e-15
1.58643e-13
4.65666e-15
3.05854e-14
1.44353e-15
6.40328e-15
1.80575e-16
9.44995e-16
2.02831e-17
1.22493e-16
2.08803e-18
1.44569e-17
1.93857e-19
1.55557e-18
1.61486e-20
1.52427e-19
1.20034e-21
1.35623e-20
7.89837e-23
1.09053e-21
4.55e-24
7.87018e-23
2.25957e-25
5.04953e-24
9.46518e-27
2.84287e-25
3.24018e-28
1.37909e-26
8.63531e-30
5.61583e-28
1.65288e-31
1.84547e-29
1.94812e-33
4.58865e-31
9.58455e-36
7.64431e-33
6.18402e-35
3.5633e-09
3.23044e-09
1.00533e-08
5.1647e-09
2.67446e-05
3.07435e-05
3.64821e-05
7.36916e-05
3.6139e-05
7.49407e-05
3.57832e-05
7.54839e-05
2.14662e-05
7.17523e-05
3.45325e-06
3.12245e-05
1.81443e-06
5.2442e-06
8.83885e-07
1.90221e-06
2.05741e-07
5.6575e-07
2.41547e-08
1.52842e-07
-5.17748e-09
5.85302e-08
-2.56867e-09
1.87472e-08
-7.59302e-10
5.17051e-09
-1.95595e-10
1.26963e-09
-4.44425e-11
2.81531e-10
-9.1581e-12
5.73677e-11
-1.71517e-12
1.08869e-11
-2.83167e-13
1.95288e-12
-3.21935e-14
3.45282e-13
5.21607e-15
6.59099e-14
3.06047e-15
1.59755e-14
5.41711e-16
2.69779e-15
6.6467e-17
3.78632e-16
7.50883e-18
4.83222e-17
7.68755e-19
5.63283e-18
7.09509e-20
5.9972e-19
5.88173e-21
5.82395e-20
4.3552e-22
5.14269e-21
2.85755e-23
4.10926e-22
1.64298e-24
2.95081e-23
8.15105e-26
1.88619e-24
3.41407e-27
1.05929e-25
1.1696e-28
5.13228e-27
3.12179e-30
2.08985e-28
5.98808e-32
6.87511e-30
7.07395e-34
1.71296e-31
3.4834e-36
2.86082e-33
2.31406e-35
3.28244e-09
4.81243e-09
3.23132e-09
4.24409e-09
2.98655e-05
2.73719e-05
3.61577e-05
6.83367e-05
3.69564e-05
7.4535e-05
3.67519e-05
7.59742e-05
3.36713e-05
7.51352e-05
4.83052e-06
5.97986e-05
9.3048e-07
9.74026e-06
2.21214e-07
1.8214e-06
7.22032e-08
3.95303e-07
1.15903e-08
9.90759e-08
-3.10767e-10
2.60079e-08
-6.99756e-10
7.05455e-09
-2.52855e-10
1.83097e-09
-6.84794e-11
4.37632e-10
-1.58817e-11
9.53e-11
-3.27866e-12
1.91422e-11
-6.05391e-13
3.60597e-12
-8.72257e-14
6.59467e-13
-1.29955e-15
1.26033e-13
4.96514e-15
3.122e-14
1.32923e-15
6.60445e-15
1.83293e-16
1.0139e-15
2.2557e-17
1.39289e-16
2.52938e-18
1.74831e-17
2.56686e-19
2.00902e-18
2.35138e-20
2.11325e-19
1.93718e-21
2.03116e-20
1.42719e-22
1.77801e-21
9.32758e-24
1.41052e-22
5.34791e-25
1.00707e-23
2.6485e-26
6.40954e-25
1.10848e-27
3.58909e-26
3.79808e-29
1.7362e-27
1.01472e-30
7.0678e-29
1.94931e-32
2.32723e-30
2.30615e-34
5.80898e-32
1.13492e-36
9.72204e-34
7.85356e-36
5.78384e-09
4.25901e-09
7.54793e-09
4.1926e-09
2.12211e-05
7.39394e-06
3.38137e-05
5.45095e-05
3.6375e-05
7.23361e-05
3.71501e-05
7.55099e-05
3.66206e-05
7.58817e-05
2.53294e-05
7.16188e-05
5.28856e-07
3.51134e-05
1.52111e-07
1.9296e-06
1.62895e-08
4.11399e-07
2.71582e-09
6.33441e-08
3.55826e-11
1.30934e-08
-1.94539e-10
2.84942e-09
-7.95611e-11
6.41147e-10
-2.219e-11
1.43098e-10
-5.16071e-12
3.01031e-11
-1.05285e-12
5.9357e-12
-1.80434e-13
1.12436e-12
-1.8498e-14
2.17753e-13
6.18501e-15
5.53232e-14
2.59346e-15
1.40121e-14
4.23726e-16
2.37489e-15
5.69074e-17
3.49158e-16
6.95342e-18
4.69357e-17
7.70976e-19
5.78677e-18
7.74609e-20
6.54958e-19
7.03645e-21
6.80065e-20
5.75656e-22
6.46469e-21
4.21709e-23
5.60674e-22
2.74401e-24
4.4142e-23
1.56824e-25
3.13276e-24
7.75073e-27
1.98502e-25
3.24084e-28
1.10829e-26
1.11046e-29
5.35345e-28
2.96923e-31
2.1791e-29
5.71139e-33
7.18324e-31
6.76421e-35
1.79665e-32
3.3237e-37
3.01343e-34
2.42924e-36
4.22688e-09
8.11166e-09
1.59076e-08
8.14209e-09
6.65629e-06
7.83102e-07
2.66754e-05
1.66394e-05
3.46613e-05
6.46994e-05
3.62796e-05
7.42262e-05
3.67235e-05
7.59151e-05
3.41174e-05
7.47318e-05
3.4986e-06
4.67307e-05
1.48126e-07
3.105e-06
3.2328e-09
4.97846e-07
-8.72116e-10
5.18262e-08
-2.37795e-10
6.6827e-09
-7.36078e-11
1.09456e-09
-2.43959e-11
2.13243e-10
-6.58395e-12
4.36555e-11
-1.49587e-12
8.79219e-12
-2.89511e-13
1.7185e-12
-4.20683e-14
3.45958e-13
5.1866e-15
8.78242e-14
3.91456e-15
2.51924e-14
8.20672e-16
4.87918e-15
1.20637e-16
7.67461e-16
1.59997e-17
1.09818e-16
1.92948e-18
1.44437e-17
2.11415e-19
1.7487e-18
2.10287e-20
1.94897e-19
1.89411e-21
1.99729e-20
1.53878e-22
1.87766e-21
1.12097e-23
1.61352e-22
7.26287e-25
1.26091e-23
4.13839e-26
8.8975e-25
2.04165e-27
5.61482e-26
8.53107e-29
3.12716e-27
2.92403e-30
1.50911e-28
7.82691e-32
6.14566e-30
1.50777e-33
2.02931e-31
1.78766e-35
5.08873e-33
8.76612e-38
8.55694e-35
6.88036e-37
5.04056e-10
-3.76581e-10
5.44776e-08
2.92845e-08
7.84901e-07
1.1003e-07
1.10462e-05
1.43721e-06
2.57936e-05
2.10159e-05
3.30293e-05
6.35139e-05
3.46965e-05
7.49713e-05
3.16779e-05
7.02238e-05
3.69668e-06
3.66842e-05
7.89167e-09
3.65868e-06
-7.9486e-09
4.75179e-07
-1.55419e-09
3.8097e-08
-1.95223e-10
3.2547e-09
-3.08046e-11
3.83419e-10
-6.95559e-12
6.4548e-11
-1.69549e-12
1.22334e-11
-3.64516e-13
2.36277e-12
-6.01559e-14
4.8733e-13
1.74325e-15
1.25028e-13
4.68204e-15
3.91192e-14
1.30009e-15
8.82226e-15
2.13205e-16
1.48517e-15
3.06629e-17
2.25138e-16
4.01094e-18
3.14239e-17
4.77628e-19
4.04822e-18
5.17814e-20
4.81636e-19
5.10448e-21
5.2889e-20
4.56343e-22
5.35234e-21
3.68485e-23
4.9792e-22
2.67165e-24
4.24223e-23
1.72506e-25
3.2929e-24
9.80796e-27
2.3121e-25
4.83383e-28
1.45432e-26
2.01995e-29
8.08673e-28
6.93025e-31
3.90226e-29
1.85818e-32
1.59131e-30
3.58658e-34
5.26808e-32
4.25815e-36
1.3255e-33
2.08314e-38
2.23599e-35
1.79251e-37
-7.12833e-11
-1.18582e-09
3.78548e-09
5.95193e-09
1.71871e-07
4.49338e-08
1.62849e-06
5.21917e-08
1.03579e-05
8.58882e-07
2.34238e-05
7.49675e-06
2.03154e-05
1.6847e-05
1.21213e-05
1.23527e-05
2.05665e-06
8.23812e-06
-1.79246e-07
3.92455e-06
-1.3793e-08
2.82764e-07
-1.27166e-09
2.25169e-08
-8.96361e-11
1.69425e-09
-9.50814e-12
1.41765e-10
-1.55047e-12
1.87444e-11
-3.40281e-13
3.30762e-12
-6.37558e-14
6.11763e-13
-2.37113e-15
1.56783e-13
4.44742e-15
5.32474e-14
1.63306e-15
1.39814e-14
3.06052e-16
2.53887e-15
4.79817e-17
4.05762e-16
6.82084e-18
5.98076e-17
8.83038e-19
8.16104e-18
1.04231e-19
1.03173e-18
1.12154e-20
1.20806e-19
1.09858e-21
1.30877e-20
9.77035e-23
1.30955e-21
7.85735e-24
1.20698e-22
5.68031e-25
1.02078e-23
3.66122e-26
7.87974e-25
2.0802e-27
5.51195e-26
1.02557e-28
3.45992e-27
4.2911e-30
1.92308e-28
1.47523e-31
9.29023e-30
3.96553e-33
3.79801e-31
7.67386e-35
1.26194e-32
9.12542e-37
3.18905e-34
4.45093e-39
5.40062e-36
4.31386e-38
1.24093e-09
-1.31358e-09
-4.18696e-10
-2.66655e-09
9.55471e-09
6.91835e-09
8.33358e-08
2.34904e-08
8.75129e-07
-5.80535e-08
2.44157e-06
9.39083e-08
2.67326e-06
5.93992e-07
1.70213e-06
6.32896e-07
8.06878e-07
5.8236e-07
4.15412e-08
1.68456e-06
-8.09903e-09
2.13824e-07
-2.44617e-10
1.17804e-08
-1.36315e-11
9.07586e-10
-1.32662e-12
5.89397e-11
-1.85146e-13
7.10444e-12
-3.82032e-14
1.08094e-12
-3.62596e-15
1.75843e-13
2.94747e-15
6.42717e-14
1.47659e-15
1.93202e-14
3.31154e-16
3.82278e-15
5.79168e-17
6.42779e-16
9.07972e-18
9.96799e-17
1.29086e-18
1.43557e-17
1.66981e-19
1.92163e-18
1.96834e-20
2.3902e-19
2.1147e-21
2.76039e-20
2.0685e-22
2.95612e-21
1.83775e-23
2.92986e-22
1.47723e-24
2.67997e-23
1.06814e-25
2.25355e-24
6.89096e-27
1.73273e-25
3.92173e-28
1.20937e-26
1.93805e-29
7.58718e-28
8.13308e-31
4.22145e-29
2.80561e-32
2.04449e-30
7.56854e-34
8.39035e-32
1.46925e-35
2.80146e-33
1.74986e-37
7.11799e-35
8.49656e-40
1.211e-36
9.62828e-39
-8.05678e-10
-8.42314e-10
-2.08532e-10
-2.05272e-09
7.95624e-10
-6.58283e-10
-2.19125e-08
4.53946e-09
-1.52361e-07
-2.38991e-08
-1.62246e-07
-1.15367e-07
-5.97406e-08
6.57449e-08
-5.6329e-08
1.67653e-07
-1.0957e-07
2.57575e-07
-4.85668e-08
1.88581e-07
-6.92334e-09
5.35826e-08
-3.25948e-10
3.46031e-09
-2.21226e-11
2.35147e-10
-2.02538e-12
2.08521e-11
-2.01846e-13
2.52265e-12
-1.14686e-14
3.73871e-13
3.32829e-16
6.49798e-14
5.53825e-16
2.3295e-14
1.93957e-16
5.05836e-15
4.36168e-17
8.9237e-16
8.17243e-18
1.45057e-16
1.34146e-18
2.20098e-17
1.96547e-19
3.11346e-18
2.59504e-20
4.10468e-19
3.10334e-21
5.03908e-20
3.36952e-22
5.75538e-21
3.32295e-23
6.1073e-22
2.97215e-24
6.00898e-23
2.40317e-25
5.4662e-24
1.74717e-26
4.57912e-25
1.13315e-27
3.51349e-26
6.48307e-29
2.45119e-27
3.2209e-30
1.53957e-28
1.35885e-31
8.58891e-30
4.71163e-33
4.1766e-31
1.2769e-34
1.72308e-32
2.48725e-36
5.7888e-34
2.96396e-38
1.4804e-35
1.42754e-40
2.53181e-37
2.00016e-39
-1.11927e-09
-2.99609e-10
-2.51238e-09
-7.55857e-10
-7.05431e-09
-1.23109e-09
-3.73878e-08
-2.08162e-11
-1.09384e-07
-5.68861e-09
-2.46638e-07
-3.38702e-08
-2.63544e-07
-7.31322e-09
-2.37371e-07
3.55763e-08
-1.47051e-07
7.44693e-08
-4.10965e-08
6.04821e-08
-2.51158e-09
1.39982e-08
-1.55483e-10
1.13686e-09
-1.29748e-11
7.32033e-11
-1.37246e-12
6.36162e-12
-1.60126e-13
7.45718e-13
-1.78551e-14
1.06248e-13
-1.865e-15
2.32052e-14
-1.83102e-16
5.97105e-15
-1.08889e-17
1.11614e-15
1.03897e-18
1.87773e-16
5.22646e-19
2.9583e-17
1.17646e-19
4.40797e-18
2.01822e-20
6.13624e-19
2.92694e-21
7.97077e-20
3.72101e-22
9.68822e-21
4.21693e-23
1.09774e-21
4.29189e-24
1.15748e-22
3.93295e-25
1.13346e-23
3.24211e-26
1.02784e-24
2.39502e-27
8.59635e-26
1.5745e-28
6.59552e-27
9.11432e-30
4.60824e-28
4.57474e-31
2.90302e-29
1.94722e-32
1.62664e-30
6.8019e-34
7.95488e-32
1.85359e-35
3.304e-33
3.62009e-37
1.11832e-34
4.3012e-39
2.88153e-36
2.03322e-41
4.95583e-38
3.87832e-40
-4.00331e-10
-6.08567e-11
-9.91177e-10
-1.55642e-10
-5.36086e-09
-2.3161e-10
-1.71744e-08
-2.55948e-10
-3.46088e-08
-1.76551e-09
-7.59305e-08
-6.14902e-09
-9.80459e-08
-4.74226e-09
-9.10834e-08
6.26148e-09
-5.22196e-08
1.56985e-08
-1.16218e-08
1.38232e-08
-9.22154e-10
3.04766e-09
-5.81258e-11
2.57025e-10
-4.67578e-12
1.74991e-11
-4.878e-13
1.55584e-12
-5.47585e-14
1.76066e-13
-6.24861e-15
2.46386e-14
-8.42586e-16
6.62681e-15
-1.1306e-16
1.30612e-15
-1.38361e-17
2.29064e-16
-1.50152e-18
3.73309e-17
-1.38132e-19
5.71851e-18
-9.17663e-21
8.31195e-19
-1.03803e-22
1.12974e-19
9.8059e-23
1.43268e-20
2.13075e-23
1.72282e-21
3.07708e-24
1.93698e-22
3.60524e-25
2.02959e-23
3.62269e-26
1.97802e-24
3.186e-27
1.78834e-25
2.4681e-28
1.49671e-26
1.68237e-29
1.15079e-27
1.00155e-30
8.06887e-29
5.13743e-32
5.10796e-30
2.22283e-33
2.87979e-31
7.85304e-35
1.41862e-32
2.1524e-36
5.94067e-34
4.19678e-38
2.0284e-35
4.91178e-40
5.27094e-37
2.18606e-42
9.11794e-39
7.02572e-41
-8.14283e-11
-7.53563e-12
-2.23333e-10
-1.7064e-11
-1.06431e-09
-1.26736e-11
-2.89073e-09
-7.04393e-11
-6.81296e-09
-3.4693e-10
-1.52513e-08
-1.10252e-09
-2.2636e-08
-1.11578e-09
-2.15697e-08
9.3722e-10
-1.24608e-08
2.64575e-09
-2.63349e-09
2.52424e-09
-2.16717e-10
5.66925e-10
-1.43906e-11
5.16056e-11
-1.20863e-12
3.65387e-12
-1.25463e-13
3.24795e-13
-1.26267e-14
3.55033e-14
-1.71609e-15
6.12594e-15
-2.61881e-16
1.39928e-15
-3.75605e-17
2.56712e-16
-5.00293e-18
4.39677e-17
-6.1783e-19
7.0375e-18
-7.09619e-20
1.05836e-18
-7.44322e-21
1.50765e-19
-7.03988e-22
2.01002e-20
-6.00698e-23
2.50362e-21
-4.44894e-24
2.96029e-22
-2.6804e-25
3.27917e-23
-1.06701e-26
3.39145e-24
1.19307e-28
3.26895e-25
7.898e-29
2.93083e-26
9.76989e-30
2.45495e-27
8.41117e-31
1.89209e-28
5.75428e-32
1.3319e-29
3.22182e-33
8.47767e-31
1.47098e-34
4.81268e-32
5.34014e-36
2.39036e-33
1.46594e-37
1.01035e-34
2.7714e-39
3.48442e-36
2.95251e-41
9.14402e-38
7.52395e-44
1.59316e-39
1.20354e-41
-1.01593e-11
-6.43143e-13
-2.94568e-11
-1.22568e-12
-1.19542e-10
-6.28497e-13
-3.78753e-10
-1.17138e-11
-1.01002e-09
-5.50678e-11
-2.41168e-09
-1.61362e-10
-3.98077e-09
-1.8484e-10
-3.89456e-09
1.25793e-10
-2.32056e-09
3.80375e-10
-5.05943e-10
3.95534e-10
-4.49255e-11
9.0571e-11
-3.11007e-12
8.97743e-12
-2.61458e-13
6.57135e-13
-2.4389e-14
5.5929e-14
-2.70699e-15
6.03891e-15
-4.26733e-16
1.35003e-15
-6.69021e-17
2.55904e-16
-9.82349e-18
4.64438e-17
-1.34443e-18
7.87407e-18
-1.71936e-19
1.24701e-18
-2.06998e-20
1.85453e-19
-2.31639e-21
2.61145e-20
-2.399e-22
3.44238e-21
-2.32813e-23
4.24398e-22
-2.09323e-24
4.95623e-23
-1.73505e-25
5.42906e-24
-1.32187e-26
5.5616e-25
-9.22773e-28
5.31977e-26
-5.92494e-29
4.74211e-27
-3.45422e-30
3.95686e-28
-1.81959e-31
3.0448e-29
-8.62477e-33
2.14486e-30
-3.6639e-34
1.36939e-31
-1.38654e-35
7.81554e-33
-4.6033e-37
3.9112e-34
-1.28982e-38
1.66903e-35
-2.80682e-40
5.82081e-37
-4.06214e-42
1.54628e-38
-1.4828e-44
2.7255e-40
2.03899e-42
-8.75034e-13
-4.26673e-14
-2.86695e-12
-5.31985e-14
-1.10169e-11
-1.75379e-13
-4.01002e-11
-1.53456e-12
-1.26825e-10
-6.92448e-12
-3.29811e-10
-1.83435e-11
-5.89193e-10
-2.48932e-11
-5.90071e-10
1.60454e-11
-3.65758e-10
4.8657e-11
-8.26985e-11
5.35532e-11
-8.00619e-12
1.27449e-11
-5.71037e-13
1.3537e-12
-4.53972e-14
9.93961e-14
-3.86554e-15
7.54908e-15
-5.57829e-16
1.07859e-15
-9.28393e-17
2.25502e-16
-1.47886e-17
4.29966e-17
-2.20123e-18
7.80483e-18
-3.05394e-19
1.31952e-18
-3.96525e-20
2.07981e-19
-4.86029e-21
3.07416e-20
-5.5597e-22
4.29903e-21
-5.91816e-23
5.62634e-22
-5.93994e-24
6.88862e-23
-5.5681e-25
7.99404e-24
-4.85755e-26
8.70981e-25
-3.93761e-27
8.88507e-26
-2.96006e-28
8.47497e-27
-2.07185e-29
7.54435e-28
-1.33335e-30
6.28705e-29
-7.83311e-32
4.84136e-30
-4.15982e-33
3.41983e-31
-1.96851e-34
2.19391e-32
-8.12521e-36
1.26069e-33
-2.83091e-37
6.3643e-35
-7.90206e-39
2.74442e-36
-1.61797e-40
9.68586e-38
-2.06357e-42
2.60621e-39
-5.53907e-45
4.6528e-41
3.44253e-43
-8.51864e-14
-1.73685e-15
-2.66632e-13
-2.88157e-17
-9.56951e-13
-1.75381e-14
-4.28076e-12
-1.48036e-13
-1.59652e-11
-6.61168e-13
-4.25127e-11
-1.85538e-12
-7.77942e-11
-2.9263e-12
-7.86547e-11
2.0716e-12
-5.0629e-11
5.69145e-12
-1.18011e-11
6.56872e-12
-1.23234e-12
1.60415e-12
-8.78953e-14
1.7317e-13
-5.84696e-15
1.16864e-14
-6.31829e-16
9.96861e-16
-1.05785e-16
1.76225e-16
-1.79819e-17
3.45883e-17
-2.90665e-18
6.70631e-18
-4.37822e-19
1.22403e-18
-6.13811e-20
2.07447e-19
-8.04884e-21
3.27007e-20
-9.96563e-22
4.82568e-21
-1.15261e-22
6.72987e-22
-1.24266e-23
8.7783e-23
-1.26567e-24
1.07118e-23
-1.20711e-25
1.23915e-24
-1.07439e-26
1.34679e-25
-8.9107e-28
1.37175e-26
-6.87181e-29
1.30786e-27
-4.94477e-30
1.16527e-28
-3.27652e-31
9.73469e-30
-1.98288e-32
7.52628e-31
-1.08383e-33
5.34622e-32
-5.26643e-35
3.45453e-33
-2.22311e-36
2.00258e-34
-7.87757e-38
1.02138e-35
-2.22101e-39
4.4557e-37
-4.55405e-41
1.5925e-38
-5.72861e-43
4.34202e-40
-1.37591e-45
7.85405e-42
5.71634e-44
-1.526e-14
-6.83751e-17
-3.65492e-14
1.34567e-16
-1.15327e-13
2.44149e-16
-5.25211e-13
-1.06169e-14
-1.9662e-12
-5.38086e-14
-5.17901e-12
-1.65418e-13
-9.61404e-12
-2.95696e-13
-9.613e-12
2.53158e-13
-6.29135e-12
6.01397e-13
-1.49322e-12
7.20435e-13
-1.59426e-13
1.75378e-13
-1.01575e-14
1.71974e-14
-7.14996e-16
1.19933e-15
-1.03615e-16
1.35205e-16
-1.80971e-17
2.44925e-17
-3.14439e-18
4.94796e-18
-5.16374e-19
9.74881e-19
-7.87776e-20
1.79707e-19
-1.11616e-20
3.06643e-20
-1.47703e-21
4.8545e-21
-1.84404e-22
7.18114e-22
-2.15026e-23
1.0025e-22
-2.3385e-24
1.30793e-23
-2.40419e-25
1.59604e-24
-2.31729e-26
1.84617e-25
-2.08715e-27
2.00734e-26
-1.75417e-28
2.04673e-27
-1.37271e-29
1.95526e-28
-1.00349e-30
1.74745e-29
-6.76143e-32
1.46615e-30
-4.16305e-33
1.14e-31
-2.31527e-34
8.15546e-33
-1.14416e-35
5.31482e-34
-4.90715e-37
3.11173e-35
-1.76395e-38
1.60505e-36
-5.03393e-40
7.08958e-38
-1.04114e-41
2.56801e-39
-1.30928e-43
7.10049e-41
-2.91439e-46
1.30264e-42
9.30661e-45
-1.56033e-15
-1.84155e-18
-5.18358e-15
2.99254e-17
-1.40547e-14
2.21357e-16
-5.87757e-14
7.03456e-16
-2.15692e-13
-9.10158e-16
-5.65181e-13
-1.11366e-14
-1.0634e-12
-2.25215e-14
-1.03767e-12
2.88883e-14
-6.89351e-13
5.90687e-14
-1.59475e-13
6.99654e-14
-1.52996e-14
1.67636e-14
-9.52003e-16
1.51091e-15
-9.62761e-17
1.37589e-16
-1.56071e-17
1.74584e-17
-2.81887e-18
3.17023e-18
-5.0145e-19
6.60118e-19
-8.38177e-20
1.3252e-19
-1.29728e-20
2.47643e-20
-1.86007e-21
4.27034e-21
-2.48643e-22
6.81445e-22
-3.13178e-23
1.01411e-22
-3.68187e-24
1.42205e-23
-4.03709e-25
1.86183e-24
-4.1851e-26
2.27904e-25
-4.06995e-27
2.64375e-26
-3.70141e-28
2.88351e-27
-3.14395e-29
2.95063e-28
-2.48874e-30
2.83089e-29
-1.84204e-31
2.54316e-30
-1.25767e-32
2.14708e-31
-7.85182e-34
1.68181e-32
-4.42989e-35
1.21354e-33
-2.2213e-36
7.98683e-35
-9.66621e-38
4.72828e-36
-3.52404e-39
2.46896e-37
-1.01905e-40
1.10514e-38
-2.13134e-42
4.05994e-40
-2.6928e-44
1.13917e-41
-5.64419e-47
2.12115e-43
1.48464e-45
-1.2607e-16
8.94092e-20
-5.00006e-16
3.48078e-18
-1.91326e-15
2.85361e-17
-5.74851e-15
1.73698e-16
-1.87196e-14
5.15283e-16
-5.47017e-14
1.16391e-15
-1.05216e-13
1.131e-15
-9.53442e-14
3.12856e-15
-6.45134e-14
6.08332e-15
-1.40571e-14
7.06779e-15
-1.22076e-15
1.70771e-15
-1.03481e-16
1.57477e-16
-1.278e-17
1.5514e-17
-2.15823e-18
2.09449e-18
-4.02766e-19
3.83946e-19
-7.34759e-20
8.23618e-20
-1.25259e-20
1.68954e-20
-1.97069e-21
3.21095e-21
-2.86478e-22
5.61371e-22
-3.87491e-23
9.05909e-23
-4.93116e-24
1.36064e-23
-5.8521e-25
1.92249e-24
-6.47536e-26
2.53349e-25
-6.77278e-27
3.11984e-26
-6.64716e-28
3.63933e-27
-6.10374e-29
3.99183e-28
-5.2378e-30
4.10909e-29
-4.19183e-31
3.9679e-30
-3.139e-32
3.59029e-31
-2.16996e-33
3.05553e-32
-1.37261e-34
2.41503e-33
-7.8509e-36
1.76019e-34
-3.99284e-37
1.17141e-35
-1.76278e-38
7.01989e-37
-6.52008e-40
3.71425e-38
-1.912e-41
1.68611e-39
-4.04978e-43
6.28644e-41
-5.15614e-45
1.79103e-42
-1.02743e-47
3.38673e-44
2.31823e-46
-1.02468e-17
2.23662e-20
-4.30511e-17
3.41823e-19
-1.75745e-16
2.5145e-18
-6.61942e-16
1.46519e-17
-2.14256e-15
7.39583e-17
-5.11098e-15
2.65902e-16
-8.58319e-15
5.02135e-16
-8.81742e-15
6.46536e-16
-6.30907e-15
7.29987e-16
-1.39555e-15
6.34226e-16
-1.24094e-16
1.63776e-16
-1.19136e-17
1.579e-17
-1.57158e-18
1.64292e-18
-2.74862e-19
2.33277e-19
-5.30882e-20
4.43109e-20
-9.94912e-21
9.64059e-21
-1.73334e-21
2.02588e-21
-2.77782e-22
3.92654e-22
-4.10247e-23
6.97987e-23
-5.62613e-24
1.14237e-23
-7.24747e-25
1.7367e-24
-8.69716e-26
2.47954e-25
-9.72601e-27
3.29799e-26
-1.0277e-27
4.0964e-27
-1.01901e-28
4.81723e-28
-9.45545e-30
5.32622e-29
-8.20264e-31
5.52739e-30
-6.63982e-32
5.38295e-31
-5.03209e-33
4.91487e-32
-3.52288e-34
4.2236e-33
-2.2582e-35
3.37352e-34
-1.30968e-36
2.48696e-35
-6.7575e-38
1.67556e-36
-3.02776e-39
1.01746e-37
-1.13674e-40
5.45969e-39
-3.38285e-42
2.51541e-40
-7.26373e-44
9.52359e-42
-9.33943e-46
2.75644e-43
-1.77925e-48
5.29559e-45
3.53964e-47
-7.82949e-19
2.48396e-21
-3.44477e-18
2.87307e-20
-1.42778e-17
2.00315e-19
-5.65572e-17
1.11269e-18
-2.04116e-16
5.27931e-18
-5.47329e-16
1.97628e-17
-8.62858e-16
4.91476e-17
-8.39351e-16
7.50333e-17
-5.78382e-16
7.62074e-17
-1.32437e-16
5.15641e-17
-1.24989e-17
1.42396e-17
-1.28316e-18
1.46321e-18
-1.7859e-19
1.61912e-19
-3.25593e-20
2.41856e-20
-6.49052e-21
4.79849e-21
-1.25081e-21
1.06172e-21
-2.2315e-22
2.29071e-22
-3.65032e-23
4.53905e-23
-5.48854e-24
8.22488e-24
-7.64751e-25
1.36881e-24
-9.99206e-26
2.11178e-25
-1.21476e-26
3.05446e-26
-1.37532e-27
4.11074e-27
-1.47043e-28
5.16243e-28
-1.47503e-29
6.13408e-29
-1.38475e-30
6.85132e-30
-1.21566e-31
7.18253e-31
-9.96207e-33
7.06759e-32
-7.64675e-34
6.52275e-33
-5.425e-35
5.66881e-34
-3.52604e-36
4.58212e-35
-2.07469e-37
3.42089e-36
-1.08655e-38
2.33587e-37
-4.94343e-40
1.43865e-38
-1.8849e-41
7.83531e-40
-5.69587e-43
3.66614e-41
-1.24088e-44
1.41027e-42
-1.61376e-46
4.14844e-44
-2.94938e-49
8.10001e-46
5.28011e-48
-5.41724e-20
2.04118e-22
-2.49441e-19
2.08975e-21
-1.06246e-18
1.43097e-20
-4.28232e-18
7.87139e-20
-1.54405e-17
3.6267e-19
-4.34849e-17
1.30542e-18
-7.15205e-17
3.28342e-18
-7.09276e-17
5.3629e-18
-4.79253e-17
5.85984e-18
-1.15991e-17
3.88693e-18
-1.17424e-18
1.14683e-18
-1.28279e-19
1.26667e-19
-1.88258e-20
1.48873e-20
-3.58322e-21
2.34215e-21
-7.38433e-22
4.84998e-22
-1.46609e-22
1.10336e-22
-2.68353e-23
2.44893e-23
-4.48988e-24
4.97185e-24
-6.88714e-25
9.20446e-25
-9.76986e-26
1.56126e-25
-1.2973e-26
2.4501e-26
-1.60083e-27
3.59841e-27
-1.83814e-28
4.91114e-28
-1.99175e-29
6.24944e-29
-2.02434e-30
7.51862e-30
-1.92531e-31
8.49997e-31
-1.7125e-32
9.01819e-32
-1.42223e-33
8.98148e-33
-1.10673e-34
8.39183e-34
-7.9635e-36
7.38633e-35
-5.25215e-37
6.04972e-36
-3.13731e-38
4.57923e-37
-1.66876e-39
3.17215e-38
-7.7136e-41
1.98326e-39
-2.98861e-42
1.09709e-40
-9.17544e-44
5.21627e-42
-2.02941e-45
2.03963e-43
-2.67264e-47
6.09994e-45
-4.69571e-50
1.21079e-46
7.68909e-49
-3.35076e-21
1.36214e-23
-1.62323e-20
1.328e-22
-7.13445e-20
9.14169e-22
-2.91793e-19
5.05497e-21
-1.06192e-18
2.33164e-20
-3.04149e-18
8.48657e-20
-5.24257e-18
2.17213e-19
-5.32169e-18
3.60268e-19
-3.66781e-18
4.04145e-19
-9.4465e-19
2.73777e-19
-1.02693e-19
8.66225e-20
-1.19333e-20
1.02653e-20
-1.84762e-21
1.28155e-21
-3.67517e-22
2.12581e-22
-7.84813e-23
4.60185e-23
-1.60812e-23
1.0851e-23
-3.02555e-24
2.48184e-24
-5.18743e-25
5.17258e-25
-8.13349e-26
9.8035e-26
-1.17693e-26
1.69833e-26
-1.59125e-27
2.71668e-27
-1.99661e-28
4.05978e-28
-2.32911e-29
5.63041e-29
-2.56188e-30
7.27394e-30
-2.64203e-31