/*--------------------------------*- C++ -*----------------------------------*\
| =========                 |                                                 |
| \\      /  F ield         | OpenFOAM: The Open Source CFD Toolbox           |
|  \\    /   O peration     | Version:  5.0                                   |
|   \\  /    A nd           | Web:      www.OpenFOAM.org                      |
|    \\/     M anipulation  |                                                 |
\*---------------------------------------------------------------------------*/
FoamFile
{
    version     2.0;
    format      ascii;
    class       volScalarField;
    location    "0.35";
    object      k;
}
// * * * * * * * * * * * * * * * * * * * * * * * * * * * * * * * * * * * * * //

dimensions      [0 2 -2 0 0 0 0];

internalField   nonuniform List<scalar> 
1935
(
0.482818
0.489136
0.493499
0.493819
0.488974
0.478862
0.464853
0.447233
0.427651
0.407777
0.388305
0.368482
0.346775
0.32218
0.295094
0.267125
0.240195
0.215743
0.194449
0.176369
0.161213
0.148575
0.138055
0.129305
0.122035
0.116002
0.110996
0.106838
0.103376
0.100484
0.0980622
0.0960317
0.094333
0.0929225
0.0917709
0.0908634
0.0902024
0.0898124
0.0897513
0.090131
0.0911672
0.0933052
0.0972831
0.51776
0.54772
0.566859
0.570132
0.533663
0.573687
0.600741
0.607684
0.547794
0.599045
0.636135
0.650297
0.55674
0.620283
0.671321
0.696468
0.557775
0.633256
0.700731
0.740815
0.548443
0.631391
0.712769
0.771453
0.530561
0.612248
0.700638
0.777201
0.505492
0.58088
0.669781
0.756016
0.476308
0.540653
0.623288
0.714564
0.446787
0.496927
0.564115
0.647552
0.419972
0.457001
0.504893
0.567433
0.396117
0.424738
0.457452
0.497606
0.37277
0.397879
0.423121
0.449575
0.347063
0.37107
0.394314
0.416459
0.318012
0.3407
0.363162
0.384732
0.286954
0.307041
0.327496
0.347769
0.25632
0.272846
0.289955
0.307271
0.228209
0.240993
0.254283
0.26783
0.203732
0.213184
0.222956
0.232885
0.183099
0.189867
0.196788
0.203749
0.165988
0.170718
0.175487
0.180218
0.151887
0.155114
0.158314
0.161438
0.140282
0.142411
0.144484
0.14647
0.130732
0.132063
0.133329
0.134512
0.122877
0.123632
0.124321
0.124937
0.116422
0.116766
0.117047
0.117265
0.11112
0.111177
0.111177
0.111122
0.106759
0.106622
0.106433
0.106198
0.103162
0.102899
0.102588
0.102238
0.100184
0.0998413
0.0994559
0.0990363
0.0977083
0.0973179
0.0968889
0.0964306
0.0956441
0.0952257
0.0947729
0.094294
0.0939219
0.0934857
0.0930192
0.0925298
0.0924904
0.0920389
0.0915616
0.0910647
0.0913131
0.0908425
0.0903508
0.0898438
0.0903681
0.0898674
0.0893516
0.0888255
0.0896484
0.0890983
0.0885401
0.0879788
0.0891663
0.0885348
0.0879045
0.0872813
0.0889608
0.0881966
0.0874454
0.0867175
0.0891144
0.0881313
0.0871783
0.0862785
0.0897956
0.0884295
0.0871322
0.0859567
0.091412
0.0892419
0.0873227
0.0857279
0.0951248
0.0906071
0.0876156
0.0855245
0.554436
0.522519
0.486601
0.452215
0.418522
0.386931
0.359045
0.335806
0.318473
0.30797
0.304223
0.306046
0.311455
0.317856
0.321507
0.317857
0.304589
0.283103
0.257057
0.23034
0.205648
0.184208
0.166173
0.151135
0.138513
0.12776
0.118436
0.110211
0.102847
0.0961643
0.0900228
0.0842995
0.0788708
0.0735966
0.0683029
0.0627568
0.0566125
0.0492562
0.0391481
0.0216453
0.58816
0.545485
0.499862
0.458276
0.419554
0.385133
0.35581
0.332265
0.315337
0.305401
0.301908
0.303383
0.307752
0.312455
0.314171
0.308944
0.295008
0.273882
0.248979
0.223738
0.200464
0.180179
0.162991
0.148534
0.136299
0.125806
0.116666
0.108584
0.101342
0.0947728
0.088744
0.083135
0.0778223
0.0726644
0.0674862
0.062054
0.0560235
0.0487854
0.0388172
0.0216278
0.629034
0.574481
0.51835
0.468801
0.424977
0.387315
0.356077
0.331743
0.31467
0.304714
0.30094
0.301672
0.304796
0.307844
0.307659
0.300859
0.286173
0.265232
0.241252
0.21727
0.195238
0.175989
0.159579
0.145673
0.133819
0.123596
0.114657
0.106737
0.0996382
0.0932052
0.0873105
0.081836
0.0766577
0.0716328
0.0665843
0.0612784
0.0553725
0.0482628
0.0384457
0.0215849
0.678022
0.612041
0.544553
0.486333
0.436532
0.394796
0.360993
0.335194
0.317268
0.306621
0.302047
0.301682
0.303337
0.304588
0.302406
0.293929
0.27828
0.257282
0.233972
0.211011
0.190032
0.171686
0.155976
0.142583
0.131102
0.121155
0.112432
0.104694
0.0977599
0.0914846
0.0857453
0.0804249
0.0753986
0.0705214
0.0656149
0.0604454
0.0546724
0.0476984
0.0380399
0.0215169
0.733477
0.659528
0.579826
0.512103
0.45528
0.408564
0.3714
0.343334
0.323835
0.311941
0.306185
0.304404
0.304098
0.303019
0.298615
0.288214
0.271343
0.250036
0.227138
0.204964
0.184853
0.167286
0.152203
0.139289
0.128171
0.118506
0.110015
0.10248
0.0957327
0.0896375
0.0840746
0.0789271
0.0740685
0.0693519
0.0645973
0.0595715
0.0539369
0.0471028
0.0376068
0.0214258
0.786539
0.716145
0.624213
0.546244
0.481513
0.428998
0.38769
0.356656
0.334968
0.321448
0.314222
0.310641
0.307579
0.303533
0.296454
0.283733
0.26532
0.243421
0.220679
0.199077
0.179673
0.162779
0.148263
0.135803
0.125044
0.115672
0.107431
0.100121
0.093585
0.0876927
0.0823268
0.0773697
0.0726928
0.068147
0.0635514
0.0586736
0.0531799
0.0464867
0.0371539
0.0213142
0.830427
0.7825
0.677554
0.588202
0.514795
0.455829
0.409735
0.375141
0.350864
0.335643
0.326793
0.320448
0.313839
0.306415
0.296053
0.280438
0.260066
0.237271
0.214456
0.193256
0.17444
0.158143
0.144154
0.132134
0.12174
0.112678
0.104709
0.0976487
0.091348
0.0856815
0.0805323
0.0757813
0.0712976
0.0669299
0.0624971
0.0577685
0.0524148
0.0458606
0.0366884
0.0211846
0.829745
0.842229
0.74045
0.637002
0.554162
0.48835
0.43705
0.398426
0.371244
0.354669
0.344519
0.333905
0.322755
0.311473
0.297094
0.277954
0.255226
0.231303
0.208272
0.187378
0.169086
0.153348
0.139871
0.128293
0.11828
0.109549
0.101879
0.0950954
0.0890558
0.0836373
0.0787229
0.0741911
0.0699087
0.065723
0.0614535
0.0568721
0.0516547
0.0452346
0.0362175
0.0210397
0.798084
0.84621
0.79521
0.688592
0.597847
0.525576
0.469012
0.425999
0.395366
0.377707
0.367705
0.350789
0.334051
0.31806
0.298801
0.275607
0.250295
0.225173
0.201909
0.181317
0.163546
0.148368
0.135412
0.124296
0.114687
0.106318
0.0989767
0.092498
0.0867449
0.0815953
0.0769309
0.072628
0.0685513
0.0645479
0.0604386
0.0559992
0.0509115
0.044618
0.0357479
0.0208818
0.73573
0.802065
0.81336
0.740397
0.644784
0.5669
0.505224
0.457614
0.422048
0.400766
0.391833
0.370886
0.347768
0.325588
0.300361
0.272699
0.244776
0.218559
0.195176
0.174966
0.157766
0.143186
0.130785
0.120165
0.110996
0.103022
0.0960414
0.0898967
0.0844538
0.0795909
0.0751881
0.0711196
0.0672489
0.0634239
0.0594684
0.0551629
0.0501959
0.0440192
0.0352854
0.0207129
0.645056
0.723966
0.771168
0.764914
0.694607
0.61314
0.545842
0.494276
0.451724
0.422571
0.409755
0.389795
0.363064
0.333181
0.300919
0.268584
0.238239
0.211201
0.187926
0.168251
0.151723
0.137808
0.126015
0.115935
0.107247
0.0997045
0.0931179
0.0873342
0.082222
0.0776593
0.0735245
0.0696908
0.0660219
0.0623678
0.0585566
0.0543744
0.0495168
0.0434451
0.034835
0.0205349
0.549615
0.614533
0.676174
0.71106
0.704416
0.649235
0.582635
0.530451
0.482344
0.44375
0.424709
0.405237
0.376067
0.337996
0.29888
0.262456
0.230268
0.202893
0.180075
0.161152
0.145426
0.132265
0.121145
0.111656
0.103491
0.0964176
0.0902546
0.0848545
0.0800881
0.075833
0.0719669
0.0683631
0.0648872
0.061393
0.0577139
0.0536423
0.0488812
0.0429015
0.0344008
0.0203495
0.479947
0.517711
0.559671
0.598233
0.618131
0.610805
0.574864
0.531952
0.490855
0.456639
0.437014
0.416717
0.380541
0.335351
0.291544
0.252943
0.220383
0.19356
0.171658
0.153721
0.138933
0.126622
0.11624
0.107392
0.0997905
0.0932175
0.0875019
0.0825012
0.0780881
0.0741408
0.0705374
0.0671532
0.0638574
0.060509
0.0569476
0.0529725
0.0482941
0.0423924
0.0339863
0.0201579
0.438218
0.460689
0.483245
0.505499
0.523082
0.529731
0.52122
0.500716
0.476579
0.456117
0.440139
0.413137
0.369967
0.321714
0.277183
0.239262
0.208122
0.182926
0.162567
0.145994
0.132351
0.120984
0.111396
0.103221
0.0962135
0.0901641
0.0849103
0.0803149
0.0762532
0.0726056
0.0692525
0.0660726
0.0629406
0.0597216
0.0562622
0.0523686
0.0477585
0.0419207
0.0335937
0.0199613
0.405464
0.425152
0.442324
0.457017
0.468928
0.475944
0.476035
0.46908
0.457166
0.442623
0.422025
0.387932
0.343305
0.297471
0.256389
0.22192
0.193863
0.171244
0.152961
0.138037
0.125706
0.115391
0.106667
0.0992235
0.0928344
0.0873189
0.0825283
0.0783316
0.0746081
0.071244
0.0681226
0.0651277
0.0621404
0.0590331
0.0556592
0.0518319
0.0472757
0.0414876
0.0332242
0.0197602
0.367891
0.38742
0.404428
0.418438
0.429279
0.435926
0.437345
0.433041
0.422907
0.406393
0.381296
0.346348
0.30609
0.266688
0.231795
0.202518
0.178555
0.159074
0.143172
0.130066
0.119143
0.109944
0.102127
0.0954378
0.089684
0.0847088
0.0803777
0.076569
0.0731683
0.0700658
0.0671526
0.0643202
0.0614569
0.0584426
0.0551376
0.0513616
0.0468452
0.0410922
0.0328731
0.0195717
0.324893
0.342397
0.35787
0.370952
0.38086
0.386659
0.387449
0.382526
0.371429
0.353711
0.329016
0.298497
0.265714
0.234345
0.206535
0.182931
0.163303
0.147069
0.133597
0.122333
0.112834
0.104762
0.0978587
0.0919257
0.0868042
0.0823597
0.0784723
0.0750303
0.0719276
0.0690622
0.0663335
0.0636415
0.0608826
0.0579442
0.0546931
0.0509551
0.0464665
0.0407371
0.0325505
0.0193967
0.281765
0.295723
0.30814
0.318651
0.326313
0.330299
0.329854
0.324402
0.313643
0.297603
0.276839
0.252846
0.227949
0.20426
0.18302
0.164638
0.149005
0.135783
0.124589
0.115071
0.106937
0.0999544
0.0939389
0.0887392
0.084227
0.080288
0.0768163
0.0737117
0.0708781
0.0682225
0.0656539
0.0630809
0.0604081
0.0575298
0.0543192
0.0506076
0.0461362
0.0404206
0.0322576
0.0192309
0.24309
0.253251
0.262294
0.269689
0.27471
0.276739
0.275256
0.269913
0.260633
0.247678
0.231741
0.213981
0.195807
0.178417
0.162545
0.148477
0.136208
0.125582
0.116397
0.108453
0.101574
0.0956072
0.0904249
0.0859134
0.0819697
0.0784973
0.0754043
0.0726021
0.0700056
0.067532
0.0650996
0.0626256
0.0600222
0.0571903
0.0540087
0.0503134
0.0458505
0.0401407
0.0319941
0.0190717
0.210845
0.217797
0.223903
0.228599
0.23141
0.231938
0.22988
0.225078
0.217578
0.207676
0.195921
0.183075
0.169962
0.15727
0.14545
0.134719
0.12513
0.116639
0.109158
0.102586
0.0968224
0.0917732
0.0873485
0.0834628
0.0800332
0.076979
0.0742214
0.0716839
0.0692921
0.0669732
0.0646548
0.0622619
0.0597134
0.0569161
0.0537536
0.0500666
0.0456051
0.0398947
0.0317587
0.0189173
0.184982
0.189566
0.19342
0.196139
0.197414
0.19701
0.194771
0.19065
0.184738
0.177276
0.168643
0.159308
0.149756
0.140395
0.131512
0.123277
0.115764
0.108984
0.102914
0.0975087
0.0927141
0.0884706
0.0847148
0.0813813
0.0784033
0.0757137
0.073246
0.070935
0.0687167
0.0665276
0.0643032
0.0619757
0.0594698
0.0566973
0.0535463
0.0498611
0.0453956
0.03968
0.0315494
0.0187667
0.16453
0.167443
0.169735
0.171136
0.171455
0.170555
0.168369
0.164899
0.160237
0.15456
0.148117
0.141198
0.134094
0.127059
0.120284
0.1139
0.107981
0.10256
0.0976422
0.0932117
0.0892392
0.0856856
0.0825047
0.0796453
0.0770535
0.0746742
0.0724518
0.0703313
0.0682579
0.0661762
0.0640286
0.0617533
0.05928
0.0565247
0.0533791
0.0496911
0.0452176
0.0394934
0.0313641
0.0186197
0.148394
0.150147
0.151393
0.151956
0.151713
0.15059
0.14856
0.145647
0.141925
0.137521
0.132599
0.127343
0.121937
0.116544
0.111298
0.106297
0.101605
0.0972596
0.093274
0.0896454
0.0863566
0.0833801
0.0806809
0.0782187
0.0759499
0.0738294
0.0718111
0.0698487
0.067895
0.0659014
0.0638162
0.0615822
0.0591335
0.0563894
0.053245
0.0495509
0.0450671
0.0393322
0.0312009
0.0184764
0.135628
0.136576
0.137128
0.137163
0.136602
0.135404
0.133562
0.131102
0.128084
0.124596
0.12075
0.116667
0.112467
0.108263
0.104147
0.100193
0.0964505
0.0929527
0.089714
0.0867347
0.0840033
0.0814993
0.0791951
0.0770589
0.0750553
0.0731473
0.0712968
0.0694642
0.0676087
0.0656872
0.0636524
0.0614512
0.0590209
0.0562838
0.0531377
0.0494356
0.0449402
0.0391936
0.0310584
0.0183372
0.125487
0.125884
0.125976
0.125679
0.124944
0.123746
0.122088
0.119994
0.117509
0.114696
0.111633
0.108401
0.105085
0.101761
0.0984944
0.0953387
0.0923322
0.0894993
0.0868517
0.0843899
0.0821049
0.0799804
0.0779946
0.0761217
0.0743329
0.0725978
0.0708839
0.0691575
0.0673824
0.0655197
0.0635258
0.0613506
0.0589342
0.0562012
0.0530517
0.0493408
0.0448337
0.0390754
0.0309349
0.0182027
0.117423
0.117443
0.117232
0.11673
0.115905
0.114745
0.113255
0.111455
0.10938
0.107075
0.104596
0.101999
0.0993422
0.0966795
0.0940573
0.0915131
0.0890742
0.086758
0.0845726
0.0825172
0.0805843
0.0787606
0.0770281
0.0753656
0.0737495
0.0721538
0.070551
0.0689111
0.0672019
0.0653874
0.0634268
0.0612726
0.0588667
0.0561361
0.0529824
0.0492629
0.0447446
0.0389754
0.0308294
0.0180736
0.11101
0.110778
0.11037
0.109746
0.108884
0.10778
0.106438
0.104877
0.103121
0.101205
0.0991678
0.0970493
0.0948902
0.092728
0.0905949
0.088517
0.0865131
0.0845948
0.0827667
0.0810272
0.0793693
0.0777816
0.0762491
0.0747539
0.073276
0.0717928
0.0702801
0.068711
0.0670558
0.065281
0.0633479
0.0612107
0.0588133
0.0560841
0.0529263
0.0491989
0.0446707
0.038892
0.0307406
0.0179505
0.105906
0.105511
0.104982
0.104292
0.103427
0.102385
0.101174
0.0998054
0.0983009
0.0966847
0.0949843
0.0932287
0.0914461
0.0896624
0.0878999
0.0861762
0.0845038
0.0828898
0.0813362
0.0798406
0.0783963
0.0769931
0.0756182
0.0742559
0.0728886
0.0714963
0.0700569
0.0685459
0.0669353
0.0651934
0.0632832
0.0611603
0.0587699
0.0560418
0.0528806
0.0491465
0.0446101
0.0388238
0.0306675
0.0178341
0.101833
0.101337
0.10074
0.100022
0.0991744
0.0981979
0.0970986
0.0958881
0.0945815
0.0931972
0.0917549
0.0902753
0.0887779
0.0872806
0.0857986
0.0843434
0.082923
0.0815412
0.0801983
0.0788909
0.0776125
0.0763539
0.0751034
0.0738469
0.0725684
0.0712497
0.0698703
0.0684071
0.0668336
0.0651194
0.0632286
0.0611179
0.0587337
0.0560069
0.0528431
0.0491041
0.0445615
0.0387694
0.0306092
0.017725
0.0985647
0.0980129
0.0973829
0.096661
0.0958427
0.0949295
0.0939273
0.0928455
0.0916959
0.090492
0.0892484
0.0879795
0.086699
0.0854192
0.08415
0.082899
0.0816708
0.0804669
0.0792862
0.0781247
0.0769759
0.0758311
0.0746792
0.0735074
0.0723007
0.071042
0.0697119
0.0682883
0.0667459
0.0650552
0.063181
0.0610812
0.0587029
0.0559778
0.0528128
0.0490704
0.0445236
0.0387279
0.0305649
0.0176234
0.0959227
0.0953434
0.0947031
0.0939925
0.0932091
0.0923553
0.0914364
0.0904603
0.089436
0.0883738
0.0872843
0.0861777
0.0850636
0.0839502
0.082844
0.0817496
0.0806692
0.0796027
0.078548
0.0775005
0.0764537
0.0753991
0.0743262
0.0732226
0.0720742
0.0708647
0.0695754
0.0681851
0.066669
0.0649983
0.0631388
0.0610488
0.0586762
0.0559536
0.0527886
0.0490447
0.0444959
0.0386987
0.0305339
0.01753
0.0937684
0.093179
0.0925416
0.0918499
0.0911029
0.0903031
0.0894556
0.0885666
0.0876435
0.0866938
0.0857254
0.0847455
0.0837607
0.0827764
0.0817967
0.0808238
0.0798585
0.0788996
0.0779439
0.0769865
0.0760209
0.0750385
0.0740292
0.0729812
0.0718806
0.0707118
0.0694566
0.0680942
0.0666006
0.0649474
0.0631009
0.0610201
0.0586534
0.0559341
0.0527705
0.0490267
0.0444777
0.038681
0.0305154
0.0174449
0.0919965
0.091406
0.0907778
0.0901076
0.0893953
0.0886437
0.0878571
0.0870406
0.0862
0.085341
0.0844693
0.08359
0.0827074
0.081825
0.0809449
0.0800681
0.0791939
0.0783203
0.0774436
0.0765584
0.0756581
0.0747343
0.073777
0.0727746
0.0717136
0.0705787
0.0693522
0.0680137
0.0665394
0.0649017
0.063067
0.0609949
0.0586344
0.0559192
0.0527582
0.0490162
0.044469
0.0386743
0.030509
0.0173685
0.0905271
0.0899382
0.0893204
0.0886708
0.0879898
0.08728
0.0865452
0.0857895
0.0850173
0.0842327
0.0834397
0.0826419
0.0818418
0.0810414
0.0802416
0.0794421
0.0786414
0.0778367
0.077024
0.0761977
0.0753508
0.0744751
0.0735607
0.0725962
0.0715683
0.070462
0.0692599
0.067942
0.0664847
0.0648607
0.063037
0.0609734
0.0586194
0.0559091
0.0527519
0.0490132
0.0444693
0.0386783
0.0305139
0.017301
0.0892994
0.0887097
0.0880996
0.0874669
0.0868124
0.0861384
0.0854477
0.0847434
0.0840288
0.0833065
0.0825792
0.0818488
0.081117
0.0803843
0.0796506
0.0789147
0.0781746
0.0774269
0.0766671
0.0758896
0.0750872
0.0742517
0.0733733
0.0724407
0.071441
0.0703592
0.0691782
0.0678781
0.066436
0.0648245
0.0630111
0.0609559
0.0586087
0.055904
0.0527517
0.0490177
0.0444784
0.0386923
0.0305295
0.0172425
0.0882662
0.0876687
0.0870599
0.0864384
0.0858048
0.0851606
0.0845076
0.0838476
0.0831825
0.0825138
0.0818427
0.0811701
0.0804963
0.079821
0.0791433
0.0784614
0.0777726
0.0770731
0.0763582
0.075622
0.0748575
0.0740563
0.0732088
0.0723037
0.0713283
0.0702678
0.0691054
0.0678213
0.0663928
0.064793
0.0629894
0.0609425
0.0586025
0.0559041
0.0527577
0.0490293
0.0444959
0.0387158
0.0305551
0.0171929
0.08739
0.0867721
0.0861549
0.0855369
0.084918
0.0842982
0.0836777
0.0830568
0.0824358
0.0818147
0.0811935
0.0805718
0.0799492
0.0793244
0.0786958
0.0780611
0.077417
0.0767597
0.076084
0.0753841
0.0746528
0.0738818
0.0730614
0.0721807
0.071227
0.0701856
0.0690399
0.0677705
0.0663547
0.0647658
0.0629717
0.0609332
0.0586007
0.0559093
0.0527694
0.0490477
0.044521
0.0387478
0.0305894
0.0171519
0.0866393
0.0859819
0.0853426
0.0847187
0.084108
0.0835079
0.0829164
0.0823314
0.0817511
0.0811741
0.080599
0.0800244
0.0794486
0.07887
0.0782861
0.0776943
0.077091
0.0764719
0.0758319
0.075165
0.0744639
0.0737205
0.0729251
0.0720668
0.0711331
0.0701095
0.0689796
0.067724
0.0663203
0.0647422
0.0629576
0.0609276
0.0586028
0.0559188
0.0527862
0.0490717
0.0445526
0.0387868
0.030631
0.017119
0.0859862
0.0852624
0.0845832
0.0839428
0.0833342
0.0827506
0.0821861
0.0816355
0.0810948
0.0805605
0.0800298
0.0795002
0.0789693
0.0784345
0.0778932
0.077342
0.0767773
0.0761945
0.0755884
0.0749528
0.0742806
0.0735636
0.0727922
0.0719556
0.0710414
0.0700353
0.0689209
0.0676791
0.0662877
0.0647204
0.0629455
0.0609243
0.0586077
0.0559314
0.0528065
0.0490998
0.0445887
0.0388306
0.0306776
0.0170933
0.0854051
0.0845796
0.0838408
0.0831737
0.0825628
0.0819942
0.0814564
0.0809406
0.0804395
0.0799477
0.079461
0.0789758
0.0784889
0.0779972
0.0774975
0.0769862
0.0764592
0.0759121
0.0753394
0.0747349
0.0740915
0.0734009
0.0726538
0.0718393
0.0709451
0.069957
0.0688588
0.0676315
0.0662531
0.0646974
0.0629329
0.0609211
0.0586131
0.055945
0.052828
0.0491293
0.0446263
0.038876
0.0307255
0.017073
0.0848725
0.0839081
0.0830932
0.0823938
0.0817797
0.0812269
0.080717
0.0802363
0.0797749
0.0793252
0.0788818
0.0784401
0.0779962
0.0775465
0.0770875
0.0766153
0.0761258
0.075614
0.0750747
0.0745014
0.0738871
0.0732236
0.0725014
0.0717099
0.0708367
0.0698679
0.0687871
0.0675757
0.0662116
0.0646688
0.0629159
0.0609146
0.058616
0.0559565
0.0528475
0.0491564
0.0446611
0.0389178
0.0307695
0.0170547
0.0843707
0.0832508
0.0823614
0.0816355
0.0810232
0.0804886
0.0800064
0.079559
0.0791341
0.0787228
0.0783184
0.0779158
0.0775107
0.0770992
0.0766773
0.0762411
0.0757861
0.0753074
0.0747994
0.0742558
0.0736694
0.0730321
0.0723344
0.0715656
0.0707136
0.0697644
0.0687018
0.0675072
0.0661585
0.0646299
0.06289
0.0609004
0.0586124
0.0559624
0.0528617
0.0491779
0.0446887
0.0389498
0.0307997
0.0170358
0.0839319
0.0827113
0.0817863
0.081055
0.0804521
0.0799344
0.0794734
0.0790494
0.0786492
0.0782634
0.0778849
0.0775085
0.0771295
0.0767439
0.0763476
0.0759363
0.0755056
0.0750504
0.074565
0.074043
0.0734772
0.0728593
0.0721801
0.0714287
0.0705931
0.0696594
0.0686113
0.0674304
0.0660947
0.0645782
0.0628498
0.060871
0.058593
0.0559521
0.0528596
0.0491826
0.0446982
0.0389609
0.030806
0.0169951
)
;

boundaryField
{
    leftWall
    {
        type            kqRWallFunction;
        value           nonuniform 0();
    }
    rightWall
    {
        type            kqRWallFunction;
        value           nonuniform List<scalar> 
43
(
0.0216453
0.0216278
0.0215849
0.0215169
0.0214258
0.0213142
0.0211846
0.0210397
0.0208818
0.0207129
0.0205349
0.0203495
0.0201579
0.0199613
0.0197602
0.0195717
0.0193967
0.0192309
0.0190717
0.0189173
0.0187667
0.0186197
0.0184764
0.0183372
0.0182027
0.0180736
0.0179505
0.0178341
0.017725
0.0176234
0.01753
0.0174449
0.0173685
0.017301
0.0172425
0.0171929
0.0171519
0.017119
0.0170933
0.017073
0.0170547
0.0170358
0.0169951
)
;
    }
    lowerWall
    {
        type            kqRWallFunction;
        value           nonuniform 0();
    }
    atmosphere
    {
        type            inletOutlet;
        inletValue      uniform 0.1;
        value           nonuniform List<scalar> 
45
(
0.1
0.1
0.0906071
0.0876156
0.0855245
0.0839319
0.0827113
0.0817863
0.081055
0.0804521
0.0799344
0.0794734
0.0790494
0.0786492
0.0782634
0.0778849
0.0775085
0.0771295
0.0767439
0.0763476
0.0759363
0.0755056
0.0750504
0.074565
0.074043
0.0734772
0.0728593
0.0721801
0.0714287
0.0705931
0.0696594
0.0686113
0.0674304
0.0660947
0.0645782
0.0628498
0.060871
0.058593
0.0559521
0.0528596
0.0491826
0.0446982
0.0389609
0.030806
0.0169951
)
;
    }
    defaultFaces
    {
        type            empty;
    }
    procBoundary3to1
    {
        type            processor;
        value           nonuniform List<scalar> 
45
(
0.476873
0.503338
0.524918
0.537878
0.539182
0.527344
0.504218
0.476775
0.448568
0.420092
0.391484
0.364558
0.341265
0.323181
0.311706
0.307267
0.30906
0.315253
0.323295
0.329166
0.327302
0.314682
0.292687
0.265311
0.236938
0.210685
0.187999
0.169071
0.153437
0.140433
0.129435
0.119945
0.1116
0.104135
0.0973601
0.0911271
0.0853101
0.0797847
0.0744117
0.0690184
0.0633727
0.0571279
0.0496661
0.0394327
0.0216373
)
;
    }
    procBoundary3to2
    {
        type            processor;
        value           nonuniform List<scalar> 
43
(
0.448748
0.448119
0.446314
0.442318
0.435818
0.4274
0.417032
0.404647
0.390757
0.375746
0.359472
0.341301
0.320641
0.29755
0.272951
0.248297
0.224984
0.203951
0.185582
0.169852
0.156517
0.145264
0.135788
0.127819
0.121128
0.115516
0.110809
0.106859
0.103536
0.100736
0.0983731
0.0963821
0.094713
0.09333
0.0922114
0.0913501
0.0907574
0.0904694
0.0905592
0.091155
0.0924724
0.0948435
0.098435
)
;
    }
}


// ************************************************************************* //
