/*--------------------------------*- C++ -*----------------------------------*\
| =========                 |                                                 |
| \\      /  F ield         | OpenFOAM: The Open Source CFD Toolbox           |
|  \\    /   O peration     | Version:  5.0                                   |
|   \\  /    A nd           | Web:      www.OpenFOAM.org                      |
|    \\/     M anipulation  |                                                 |
\*---------------------------------------------------------------------------*/
FoamFile
{
    version     2.0;
    format      ascii;
    class       volScalarField;
    location    "0.35";
    object      nut;
}
// * * * * * * * * * * * * * * * * * * * * * * * * * * * * * * * * * * * * * //

dimensions      [0 2 -1 0 0 0 0];

internalField   nonuniform List<scalar> 
1935
(
0.00667831
0.00659762
0.00657631
0.00660097
0.0066606
0.00674738
0.00686309
0.00703005
0.00726084
0.00755829
0.00791168
0.00830034
0.00870565
0.00912314
0.00956345
0.0100408
0.0105563
0.0110863
0.0115824
0.0119846
0.0122432
0.0123364
0.0122763
0.0120997
0.0118535
0.0115799
0.0113093
0.0110591
0.0108367
0.0106434
0.0104772
0.0103351
0.0102138
0.0101104
0.0100222
0.00994653
0.00988067
0.00982083
0.00976112
0.00969179
0.00959704
0.00945251
0.00921775
0.00659795
0.0065814
0.00659659
0.00660482
0.00653621
0.00653894
0.00656532
0.0065703
0.00653567
0.00656161
0.00660328
0.00661086
0.00657833
0.00662959
0.0066937
0.00671353
0.00664791
0.00672238
0.00681378
0.00685624
0.00673294
0.00681935
0.00693639
0.00700995
0.00682392
0.00690732
0.00704628
0.00715719
0.00694644
0.00699665
0.0071409
0.00729704
0.00712369
0.00711243
0.00722468
0.00740334
0.00737516
0.00728745
0.00731903
0.00746441
0.00770489
0.00755455
0.00748369
0.00752041
0.00809313
0.00791597
0.00777432
0.00769305
0.00850718
0.00833138
0.00816901
0.00802761
0.00892641
0.00875645
0.00859791
0.0084478
0.00935476
0.00917864
0.00901946
0.00887142
0.00981122
0.00961525
0.00943978
0.00928035
0.0103095
0.0100899
0.00988803
0.00970226
0.0108395
0.0106073
0.0103837
0.0101699
0.0113601
0.0111378
0.0109117
0.0106849
0.0118089
0.0116209
0.011418
0.0112034
0.0121252
0.0119878
0.0118288
0.0116504
0.0122732
0.012189
0.0120818
0.0119525
0.0122541
0.0122132
0.012152
0.0120701
0.0121008
0.0120872
0.0120577
0.0120112
0.0118624
0.0118605
0.011847
0.0118207
0.0115864
0.0115852
0.0115755
0.0115566
0.0113085
0.0113022
0.0112897
0.0112702
0.0110502
0.011037
0.011019
0.0109958
0.0108207
0.0108013
0.0107779
0.0107505
0.010622
0.010598
0.0105705
0.0105396
0.0104523
0.0104251
0.0103949
0.0103618
0.0103082
0.0102792
0.0102475
0.0102132
0.0101859
0.0101561
0.0101238
0.0100891
0.0100823
0.0100523
0.0100199
0.00998526
0.00999443
0.00996472
0.00993252
0.0098981
0.00991974
0.00989065
0.00985883
0.00982465
0.00985566
0.00982769
0.00979642
0.00976241
0.0097991
0.00977321
0.00974296
0.00970912
0.00974546
0.00972375
0.00969574
0.00966249
0.00968728
0.00967412
0.00965124
0.00961999
0.00961226
0.00961655
0.00960494
0.00957897
0.00949837
0.00954043
0.00955276
0.00953821
0.00928576
0.00943559
0.00949787
0.0095032
0.00658666
0.00652377
0.00642188
0.00626643
0.00603633
0.00572738
0.00535137
0.00493682
0.00452995
0.004181
0.00392458
0.00376934
0.00370319
0.00370542
0.00375251
0.00381641
0.00388096
0.00395394
0.00406231
0.00424104
0.00451959
0.00491132
0.00540688
0.00597252
0.00655422
0.00708727
0.00750856
0.00776793
0.00783563
0.00770483
0.00738897
0.00691517
0.00631578
0.00562014
0.00484847
0.0040083
0.00309304
0.00208415
0.000982408
0.000112286
0.00652804
0.00642041
0.00628045
0.00610208
0.00586461
0.005565
0.00521132
0.00482981
0.00446299
0.00415534
0.00393542
0.00380814
0.00376131
0.00377652
0.00383308
0.00390668
0.00398514
0.00407784
0.00421122
0.00441739
0.00472136
0.00513147
0.00563391
0.00619211
0.00675178
0.00725057
0.00762969
0.00784409
0.00786903
0.00770171
0.00735814
0.00686638
0.00625818
0.00556125
0.00479378
0.00396137
0.00305607
0.00205872
0.000970163
0.000112248
0.00654814
0.00638847
0.00620277
0.00599591
0.00575028
0.00545914
0.0051275
0.00477808
0.00444814
0.00417622
0.00398605
0.00388064
0.00384908
0.0038753
0.00394036
0.00402359
0.00411583
0.00422783
0.00438565
0.00461846
0.00494655
0.00537296
0.00587919
0.00642589
0.00695876
0.00741819
0.0077501
0.00791507
0.00789376
0.0076877
0.00731551
0.00680599
0.00618998
0.00549321
0.00473153
0.00390849
0.00301474
0.00203055
0.000956867
0.000112139
0.00664231
0.00643376
0.00619882
0.00596092
0.00570439
0.00542032
0.0051104
0.00479185
0.00449522
0.00425312
0.00408592
0.00399623
0.00397495
0.00400862
0.00408032
0.00417201
0.00427659
0.00440662
0.0045877
0.00484573
0.00519587
0.00563553
0.00614142
0.00667164
0.00717224
0.00758681
0.00786649
0.00797794
0.0079076
0.00766141
0.00726053
0.00673416
0.00611181
0.00541689
0.00466265
0.00385049
0.00296971
0.00200009
0.000942702
0.00011196
0.00679514
0.00655682
0.00627541
0.00600577
0.00573572
0.00545641
0.00516643
0.00487657
0.00461004
0.00439321
0.00424373
0.00416401
0.00414623
0.00418164
0.00425707
0.0043547
0.00446945
0.00461589
0.00481874
0.00510005
0.00546945
0.00591838
0.00641884
0.00692665
0.00738881
0.00775272
0.00797531
0.00802973
0.0079084
0.00762168
0.00719293
0.00665131
0.00602457
0.00533337
0.00458822
0.00378833
0.00292172
0.00196782
0.000927874
0.000111715
0.00698685
0.00675949
0.00643749
0.0061363
0.00585017
0.00557201
0.00529828
0.00503407
0.00479471
0.00460044
0.00446454
0.00438873
0.00436715
0.00439875
0.00447371
0.00457363
0.0046959
0.00485685
0.00507965
0.00538186
0.00576695
0.00622019
0.006709
0.00718758
0.00760455
0.00791186
0.00807282
0.00806746
0.00789422
0.00756764
0.00711279
0.00655823
0.0059294
0.00524392
0.00450943
0.00372302
0.00287155
0.00193426
0.0009126
0.000111409
0.00720995
0.00704538
0.00668986
0.00635606
0.00605062
0.00576881
0.00550584
0.00526241
0.00504719
0.00487356
0.00474838
0.00466891
0.00463769
0.00466244
0.00473239
0.00483015
0.00495686
0.00513025
0.00537099
0.00569118
0.0060875
0.00653892
0.00700876
0.00745036
0.00781493
0.00805979
0.00815518
0.00808828
0.00786342
0.00749883
0.00702062
0.00645605
0.00582771
0.00514997
0.00442756
0.00365559
0.00281997
0.0018999
0.000897094
0.000111051
0.00740705
0.00736492
0.00703631
0.00666291
0.00633513
0.00604536
0.0057871
0.00555804
0.00536201
0.00520712
0.00509221
0.00500167
0.00495627
0.004972
0.0050324
0.00512369
0.00525213
0.00543621
0.00569281
0.00602745
0.00642944
0.00687161
0.00731395
0.00771005
0.00801479
0.00819172
0.00821856
0.00808965
0.00781487
0.00741537
0.00691743
0.00634626
0.00572116
0.00505307
0.00434395
0.00358711
0.00276776
0.00186524
0.00088156
0.000110645
0.00756139
0.00761096
0.00741793
0.00704266
0.00669578
0.00639658
0.00613816
0.00591632
0.00573166
0.00559131
0.00548991
0.0053816
0.00532035
0.00532416
0.00537032
0.00545182
0.00558048
0.00577418
0.00604445
0.0063891
0.00678983
0.00721392
0.00761916
0.00796071
0.00819833
0.0083027
0.00825936
0.00806961
0.00774814
0.00731803
0.00680476
0.00623071
0.00561157
0.00495483
0.00425989
0.0035186
0.00271565
0.00183074
0.000866191
0.000110201
0.00765756
0.00776033
0.00773075
0.00747135
0.00712051
0.00681491
0.00655325
0.00633179
0.00614574
0.00600338
0.00591445
0.00580184
0.00572782
0.00571491
0.0057415
0.0058111
0.00593978
0.00614258
0.00642388
0.00677292
0.00716396
0.00755977
0.00791748
0.00819534
0.00835931
0.00838789
0.00827454
0.00802698
0.00766364
0.00720834
0.00668466
0.00611154
0.00550086
0.00485685
0.00417666
0.003451
0.00266433
0.00179682
0.00085116
0.000109722
0.00766643
0.00782394
0.00789963
0.00784395
0.00759381
0.00729162
0.00702403
0.00680015
0.00659967
0.0064316
0.006327
0.00623573
0.00616969
0.00613547
0.00613785
0.00619519
0.00632527
0.00653735
0.00682655
0.00717309
0.00754461
0.00790095
0.0082004
0.00840607
0.00849128
0.0084429
0.00826199
0.0079617
0.00756283
0.00708856
0.00655962
0.00599106
0.00539097
0.00476065
0.00409542
0.00338517
0.0026144
0.00176387
0.000836619
0.000109215
0.00770297
0.00779681
0.00790963
0.00798717
0.0079558
0.00776559
0.00751922
0.00730062
0.00708291
0.00687794
0.00674774
0.00667523
0.00661931
0.00655781
0.00653615
0.0065861
0.00672406
0.00694858
0.00724298
0.0075796
0.00792121
0.00822675
0.00845793
0.0085845
0.00858822
0.00846441
0.00822098
0.00787504
0.0074482
0.00696164
0.00643246
0.00587163
0.00528374
0.00466761
0.00401717
0.00332184
0.00256636
0.00173218
0.000822698
0.000108683
0.00792429
0.00787199
0.00788483
0.0079254
0.0079687
0.00795631
0.00783064
0.00765288
0.00746765
0.00728857
0.0071734
0.00711371
0.00703087
0.00694046
0.00690657
0.00696227
0.00711582
0.00735544
0.00765381
0.00797546
0.00827881
0.00852372
0.00867876
0.00872229
0.00864517
0.00845077
0.00815252
0.00776977
0.00732324
0.00683101
0.00630608
0.00575552
0.00518084
0.00457892
0.00394276
0.00326161
0.00252064
0.00170203
0.000809503
0.000108131
0.00830787
0.00817311
0.00806889
0.00799953
0.00796973
0.00795931
0.00792292
0.00783769
0.00772956
0.0076298
0.00755826
0.00747267
0.00735142
0.00725201
0.00723209
0.00731425
0.00749499
0.0077515
0.00804806
0.00834391
0.00859806
0.0087751
0.00885054
0.00881206
0.00865911
0.00840255
0.00805964
0.00765007
0.00719221
0.00670034
0.00618334
0.00564475
0.00508365
0.00449552
0.00387283
0.00320494
0.00247754
0.00167361
0.000797111
0.000107561
0.00873068
0.00858092
0.00843968
0.00831428
0.00821507
0.00814971
0.00810131
0.00804965
0.00798639
0.00791467
0.00782224
0.00769494
0.00756679
0.00749649
0.00752176
0.00765002
0.00786537
0.00813573
0.00842034
0.00867761
0.00887065
0.00897175
0.00896552
0.00884897
0.0086296
0.00832278
0.00794725
0.00752126
0.00705972
0.00657323
0.00606676
0.00554101
0.00499325
0.00441809
0.00380782
0.00315211
0.00243722
0.00164694
0.000785489
0.000106974
0.00913248
0.00897561
0.00882203
0.00867334
0.00854057
0.00843353
0.0083453
0.00826412
0.00817722
0.00807376
0.00794777
0.00781678
0.00772691
0.00771903
0.0078098
0.00799132
0.00823693
0.00850863
0.00876495
0.008968
0.00908843
0.00910832
0.00902213
0.00883525
0.00856096
0.00821685
0.00782086
0.00738828
0.00693014
0.00645288
0.00595851
0.00544565
0.00491044
0.00434709
0.00374797
0.00310314
0.00239946
0.00162133
0.000773176
0.000106419
0.00952887
0.00934625
0.00916537
0.0089824
0.00881457
0.00866693
0.00853462
0.00840936
0.00828326
0.00815293
0.00802724
0.00793537
0.00791305
0.0079805
0.00813613
0.0083591
0.0086155
0.00886585
0.00907239
0.00920486
0.00924384
0.0091818
0.00902213
0.00877644
0.00846095
0.00809289
0.00768754
0.00725637
0.00680646
0.00634083
0.00585918
0.00535877
0.00483512
0.00428239
0.00369319
0.00305801
0.00236428
0.00159698
0.00076111
0.000105896
0.00996271
0.00974102
0.00951609
0.00928872
0.00907694
0.0088846
0.0087099
0.00854969
0.00840293
0.00827489
0.00818181
0.00814906
0.00819647
0.00832651
0.00852339
0.00875768
0.00899303
0.00919316
0.00932788
0.00937691
0.00933133
0.00919278
0.00897112
0.00868111
0.00833893
0.00795938
0.00755394
0.00713011
0.0066915
0.00623857
0.00576942
0.00528054
0.00476727
0.0042239
0.00364341
0.00301674
0.00233181
0.00157422
0.00074986
0.000105396
0.0104545
0.0102009
0.00993525
0.00966971
0.00941914
0.00918947
0.0089835
0.0088038
0.0086552
0.00854722
0.00849469
0.00851266
0.0086059
0.0087635
0.0089609
0.00916567
0.00934408
0.009467
0.00951395
0.0094749
0.00934984
0.00914675
0.00887856
0.00856002
0.00820491
0.00782429
0.00742565
0.00701294
0.00658711
0.00614685
0.00568938
0.00521085
0.00470668
0.00417145
0.00359853
0.00297929
0.00230216
0.00155335
0.000739736
0.000104913
0.0109741
0.0107129
0.0104322
0.0101513
0.00988264
0.00963496
0.00941537
0.00923088
0.00908945
0.00900051
0.00897331
0.00901215
0.0091105
0.00924967
0.00940244
0.00953886
0.00963186
0.00966144
0.00961671
0.00949596
0.00930496
0.00905436
0.00875689
0.00842483
0.00806827
0.0076943
0.00730683
0.0069071
0.00649421
0.00606587
0.00561887
0.00514938
0.00465305
0.00412479
0.00355839
0.00294563
0.00227539
0.00153454
0.00073084
0.000104442
0.0114491
0.0112094
0.0109485
0.0106827
0.0104237
0.010182
0.0099672
0.00978842
0.00965408
0.00957106
0.0095427
0.00956562
0.00962737
0.00970751
0.00978158
0.00982601
0.0098222
0.00975891
0.00963268
0.00944682
0.00920925
0.00893013
0.00861967
0.00828649
0.00793684
0.0075743
0.00720012
0.00681365
0.00641298
0.00599533
0.00555744
0.00509566
0.00460596
0.00408363
0.00352281
0.00291566
0.00225152
0.00151785
0.000723166
0.000103982
0.0117975
0.0116033
0.0113876
0.0111616
0.0109355
0.0107195
0.0105233
0.0103557
0.0102238
0.0101316
0.0100784
0.0100575
0.0100559
0.0100559
0.0100394
0.00999052
0.00989853
0.00975875
0.00957204
0.00934342
0.00908012
0.00878987
0.00847946
0.0081539
0.00781616
0.00746728
0.00710671
0.00673276
0.00634302
0.00593462
0.00550444
0.00504914
0.004565
0.00404765
0.00349157
0.00288928
0.00223051
0.00150328
0.000716671
0.000103531
0.0119642
0.0118242
0.0116631
0.0114877
0.0113055
0.0111246
0.0109532
0.0107981
0.0106646
0.0105544
0.0104657
0.0103917
0.0103224
0.0102456
0.0101496
0.0100257
0.00986888
0.00967822
0.00945609
0.00920693
0.00893591
0.00864778
0.00834615
0.00803315
0.00770947
0.00737449
0.00702669
0.00666389
0.00628356
0.00588295
0.00545919
0.00500924
0.00452969
0.0040165
0.00346444
0.00286634
0.00221229
0.00149079
0.000711298
0.000103089
0.0119449
0.011852
0.0117395
0.0116107
0.0114702
0.0113235
0.0111761
0.0110329
0.0108972
0.0107699
0.0106493
0.010531
0.0104087
0.0102756
0.0101256
0.00995464
0.00976114
0.00954567
0.00931042
0.00905833
0.00879227
0.00851445
0.00822615
0.00792756
0.00761797
0.00729591
0.00695938
0.00660611
0.00623364
0.00583946
0.00542096
0.00497538
0.00449961
0.00398988
0.0034412
0.00284668
0.00219674
0.00148029
0.000706987
0.000102658
0.0117792
0.0117179
0.0116395
0.0115448
0.0114361
0.0113163
0.0111888
0.0110564
0.0109214
0.0107843
0.0106445
0.0104999
0.0103475
0.0101843
0.0100078
0.00981658
0.00961059
0.00939059
0.00915794
0.00891405
0.00865999
0.00839624
0.00812258
0.00783812
0.00754141
0.00723062
0.00690365
0.00655828
0.00619226
0.00580329
0.00538905
0.00494702
0.00447434
0.00396745
0.0034216
0.00283015
0.00218376
0.0014717
0.000703677
0.000102238
0.0115264
0.0114814
0.0114221
0.011348
0.0112597
0.0111585
0.011046
0.010924
0.0107937
0.010656
0.0105108
0.0103578
0.010196
0.0100246
0.00984288
0.00965071
0.0094483
0.00923613
0.0090147
0.0087843
0.00854483
0.00829575
0.00803601
0.00776422
0.00747861
0.00717728
0.00685818
0.00651924
0.00615842
0.00577366
0.00536284
0.00492367
0.00445349
0.00394893
0.00340544
0.00281656
0.00217321
0.00146492
0.000701304
0.000101833
0.0112424
0.0112029
0.0111519
0.0110882
0.0110116
0.0109223
0.0108211
0.010709
0.0105868
0.0104553
0.010315
0.010166
0.0100086
0.00984267
0.00966838
0.00948582
0.00929513
0.00909634
0.00888932
0.00867363
0.00844853
0.00821292
0.00796541
0.00770436
0.00742798
0.00713438
0.00682164
0.00648789
0.00613124
0.00574983
0.00534175
0.00490487
0.00443671
0.00393405
0.00339249
0.00280576
0.00216497
0.00145985
0.000699802
0.000101445
0.0109658
0.0109264
0.0108777
0.0108185
0.0107483
0.010667
0.0105747
0.010472
0.0103595
0.0102378
0.0101075
0.0099689
0.00982246
0.00966842
0.00950693
0.00933803
0.0091616
0.0089773
0.00878458
0.0085826
0.00837026
0.00814621
0.00790892
0.00765671
0.00738782
0.00710045
0.00679283
0.00646322
0.0061099
0.00573118
0.00532529
0.00489024
0.00442369
0.00392254
0.00338255
0.00279758
0.00215889
0.00145638
0.000699105
0.000101076
0.0107172
0.0106759
0.0106272
0.0105701
0.0105038
0.0104282
0.0103433
0.0102493
0.0101467
0.0100357
0.00991684
0.00979049
0.0096569
0.00951622
0.00936845
0.00921341
0.00905072
0.00887977
0.00869973
0.00850953
0.00830791
0.00809341
0.00786446
0.00761941
0.00735655
0.00707419
0.00677067
0.00644438
0.00609374
0.00571717
0.00531301
0.00487942
0.00441413
0.00391419
0.00337544
0.00279186
0.00215486
0.0014544
0.000699146
0.000100727
0.0105035
0.0104604
0.0104114
0.0103555
0.0102923
0.0102214
0.0101428
0.0100566
0.00996293
0.00986206
0.00975421
0.00963954
0.00951813
0.0093899
0.00925465
0.00911196
0.00896125
0.00880169
0.00863229
0.00845184
0.00825898
0.00805224
0.00783004
0.00759076
0.00733277
0.00705446
0.00675426
0.00643065
0.00608216
0.00570731
0.00530454
0.00487209
0.00440779
0.00390876
0.00337095
0.00278844
0.00215272
0.0014538
0.000699863
0.000100401
0.0103239
0.0102798
0.0102309
0.0101763
0.0101158
0.0100491
0.00997601
0.00989657
0.00981083
0.00971884
0.00962063
0.00951616
0.0094053
0.00928778
0.00916318
0.00903089
0.00889015
0.00874
0.00857931
0.0084068
0.00822108
0.00802064
0.00780392
0.00756933
0.00731531
0.0070403
0.00674281
0.0064214
0.00607466
0.0057012
0.00529953
0.00486797
0.00440441
0.00390606
0.00336892
0.00278716
0.00215235
0.00145447
0.000701193
0.000100099
0.0101744
0.0101301
0.0100817
0.0100287
0.00997085
0.00990787
0.00983964
0.00976607
0.00968711
0.00960266
0.0095126
0.00941672
0.0093147
0.00920609
0.0090903
0.00896658
0.00883402
0.00869156
0.008538
0.00837199
0.0081921
0.00799682
0.00778461
0.00755391
0.00730317
0.00703091
0.00673567
0.00641609
0.0060708
0.00569847
0.00529768
0.00486679
0.00440377
0.00390588
0.00336917
0.00278788
0.00215361
0.00145632
0.000703079
9.98227e-05
0.0100502
0.0100061
0.0099586
0.00990733
0.009852
0.00979242
0.00972844
0.00965993
0.00958672
0.00950864
0.00942541
0.00933668
0.00924198
0.00914074
0.00903222
0.00891556
0.00878975
0.00865364
0.00850597
0.00834534
0.0081703
0.00797934
0.00777092
0.00754349
0.00729554
0.00702561
0.00673229
0.00641425
0.00607019
0.0056988
0.0052987
0.00486832
0.00440566
0.00390802
0.00337153
0.00279043
0.00215637
0.00145922
0.000705465
9.95729e-05
0.00994653
0.00990302
0.00985658
0.00980697
0.00975398
0.00969743
0.00963716
0.00957299
0.0095047
0.009432
0.00935451
0.00927177
0.0091832
0.00908811
0.00898567
0.00887491
0.00875474
0.00862396
0.00848124
0.00832517
0.00815426
0.007967
0.00776183
0.00753723
0.0072917
0.00702381
0.00673217
0.00641547
0.00607246
0.00570185
0.00530231
0.00487229
0.00440984
0.0039123
0.00337581
0.00279466
0.0021605
0.0014631
0.000708297
9.93506e-05
0.00985968
0.00981675
0.00977129
0.00972316
0.00967222
0.00961831
0.00956125
0.00950083
0.00943675
0.00936864
0.00929605
0.00921841
0.00913505
0.00904519
0.00894792
0.00884219
0.00872686
0.00860066
0.00846222
0.0083101
0.0081428
0.00795878
0.00775649
0.00753441
0.00729104
0.00702498
0.00673484
0.00641935
0.00607726
0.00570733
0.00530824
0.00487847
0.0044161
0.0039185
0.00338183
0.00280041
0.00216587
0.00146783
0.000711521
9.91563e-05
0.00978644
0.00974388
0.00969913
0.00965216
0.0096029
0.00955123
0.00949694
0.00943976
0.00937934
0.00931522
0.00924688
0.00917367
0.00909484
0.00900953
0.00891677
0.00881544
0.00870435
0.00858218
0.00844754
0.00829895
0.00813489
0.0079538
0.00775413
0.00753436
0.00729299
0.00702861
0.00673987
0.00642549
0.00608424
0.0057149
0.00531618
0.00488658
0.00442419
0.00392639
0.00338939
0.0028075
0.00217231
0.0014733
0.000715075
9.89901e-05
0.00972415
0.00968157
0.00963708
0.00959085
0.00954287
0.00949304
0.00944111
0.00938676
0.00932955
0.00926897
0.00920441
0.00913514
0.00906034
0.0089791
0.00889036
0.00879299
0.00868572
0.00856722
0.00843604
0.00829068
0.00812961
0.00795125
0.00775403
0.00753643
0.00729696
0.00703419
0.00674678
0.00643346
0.00609301
0.00572423
0.00532582
0.00489631
0.00443381
0.00393572
0.00339825
0.00281571
0.00217965
0.0014794
0.000718892
9.88516e-05
0.00967049
0.00962738
0.00958262
0.00953661
0.00948946
0.00944107
0.00939116
0.0093393
0.00928499
0.00922761
0.00916647
0.00910079
0.00902967
0.00895214
0.00886711
0.00877337
0.00866965
0.00855454
0.0084266
0.00828429
0.00812605
0.0079503
0.00775545
0.00753996
0.00730234
0.00704115
0.00675506
0.0064428
0.00610314
0.00573489
0.00533678
0.00490732
0.00444466
0.00394619
0.00340813
0.00282479
0.00218768
0.00148594
0.000722885
9.87393e-05
0.00962335
0.00957921
0.00953359
0.00948728
0.00944054
0.00939325
0.00934505
0.00929542
0.00924375
0.00918931
0.00913135
0.00906899
0.0090013
0.00892723
0.00884565
0.00875532
0.00865493
0.00854305
0.00841819
0.00827881
0.00812331
0.0079501
0.00775758
0.00754419
0.00730842
0.00704884
0.00676409
0.00645291
0.00611408
0.00574639
0.00534858
0.00491917
0.00445631
0.0039574
0.00341868
0.00283443
0.00219613
0.00149273
0.000726933
9.86506e-05
0.00958073
0.00953534
0.00948846
0.00944145
0.00939476
0.0093483
0.00930158
0.00925397
0.00920471
0.009153
0.00909797
0.0090387
0.00897418
0.00890333
0.00882498
0.00873787
0.00864062
0.0085318
0.0084099
0.00827333
0.00812051
0.00794979
0.00775957
0.00754828
0.00731439
0.00705645
0.00677311
0.00646308
0.00612514
0.00575808
0.00536061
0.00493129
0.00446824
0.00396888
0.00342944
0.00284421
0.00220462
0.00149945
0.000730845
9.85809e-05
0.00954111
0.00949496
0.00944687
0.00939906
0.0093523
0.0093065
0.00926107
0.00921524
0.00916814
0.00911886
0.00906646
0.00900995
0.00894828
0.00888034
0.00880492
0.00872072
0.00862635
0.00852036
0.0084012
0.00826728
0.00811697
0.00794864
0.00776065
0.00755141
0.00731939
0.00706312
0.00678122
0.0064724
0.00613543
0.00576907
0.00537206
0.0049429
0.00447972
0.00397995
0.00343981
0.00285357
0.00221263
0.00150567
0.000734377
9.85203e-05
0.00950481
0.0094594
0.00941087
0.00936265
0.00931596
0.00927077
0.00922642
0.00918205
0.00913669
0.00908936
0.00903906
0.00898477
0.0089254
0.00885981
0.00878677
0.00870496
0.00861298
0.00850934
0.00839249
0.00826082
0.00811268
0.00794642
0.00776039
0.00755299
0.00732266
0.00706793
0.00678741
0.00647978
0.00614379
0.00577821
0.00538173
0.00495285
0.00448969
0.00398964
0.00344888
0.00286166
0.00221935
0.00151054
0.000736761
9.84619e-05
0.00947759
0.00943471
0.00938687
0.0093389
0.00929252
0.00924783
0.00920419
0.00916071
0.00911638
0.0090702
0.00902113
0.00896815
0.00891014
0.00884595
0.00877435
0.00869399
0.00860347
0.0085013
0.00838589
0.00825564
0.00810889
0.00794397
0.00775924
0.00755306
0.00732389
0.00707023
0.0067907
0.00648395
0.00614873
0.0057838
0.00538782
0.0049593
0.0044963
0.0039962
0.00345513
0.00286728
0.00222391
0.00151352
0.000737792
9.83417e-05
)
;

boundaryField
{
    leftWall
    {
        type            nutkWallFunction;
        Cmu             0.09;
        kappa           0.41;
        E               9.8;
        value           nonuniform 0();
    }
    rightWall
    {
        type            nutkWallFunction;
        Cmu             0.09;
        kappa           0.41;
        E               9.8;
        value           nonuniform List<scalar> 
43
(
6.54221e-06
6.53525e-06
6.51814e-06
6.49101e-06
6.45459e-06
6.40985e-06
6.35774e-06
6.29924e-06
6.23523e-06
6.16648e-06
6.09366e-06
6.0174e-06
5.93822e-06
5.85649e-06
5.77243e-06
5.69315e-06
5.61917e-06
5.54876e-06
5.48078e-06
5.41455e-06
5.34969e-06
5.28606e-06
5.22375e-06
5.16295e-06
5.10396e-06
5.0471e-06
4.99269e-06
4.94102e-06
4.89238e-06
4.847e-06
4.80509e-06
4.76683e-06
4.73239e-06
4.70188e-06
4.67536e-06
4.65284e-06
4.63421e-06
4.61926e-06
4.60754e-06
4.59829e-06
4.58995e-06
4.58131e-06
4.56274e-06
)
;
    }
    lowerWall
    {
        type            nutkWallFunction;
        Cmu             0.09;
        kappa           0.41;
        E               9.8;
        value           nonuniform 0();
    }
    atmosphere
    {
        type            calculated;
        value           nonuniform List<scalar> 
45
(
0.009
0.009
0.00943559
0.00949787
0.0095032
0.00947759
0.00943471
0.00938687
0.0093389
0.00929252
0.00924783
0.00920419
0.00916071
0.00911638
0.0090702
0.00902113
0.00896815
0.00891014
0.00884595
0.00877435
0.00869399
0.00860347
0.0085013
0.00838589
0.00825564
0.00810889
0.00794397
0.00775924
0.00755306
0.00732389
0.00707023
0.0067907
0.00648395
0.00614873
0.0057838
0.00538782
0.0049593
0.0044963
0.0039962
0.00345513
0.00286728
0.00222391
0.00151352
0.000737792
9.83417e-05
)
;
    }
    defaultFaces
    {
        type            empty;
    }
    procBoundary3to1
    {
        type            processor;
        value           nonuniform List<scalar> 
45
(
0.00683207
0.00673727
0.00670613
0.0067117
0.00672273
0.00672341
0.00669281
0.00661833
0.00647792
0.00625364
0.00593466
0.0055343
0.00508524
0.00463589
0.00424137
0.003943
0.0037547
0.00366581
0.00365372
0.00369203
0.00374766
0.00379916
0.00385271
0.00393617
0.00408739
0.00434011
0.00471235
0.005199
0.005769
0.00636867
0.00693124
0.00738972
0.00768929
0.00779572
0.00769851
0.0074087
0.00695244
0.00636238
0.0056692
0.00489485
0.00404857
0.00312507
0.00210647
0.000993422
0.000112252
)
;
    }
    procBoundary3to2
    {
        type            processor;
        value           nonuniform List<scalar> 
43
(
0.00685163
0.00675816
0.00672379
0.0067394
0.00679805
0.00689166
0.00703125
0.00722852
0.00748557
0.00779625
0.00814769
0.00852612
0.00892445
0.0093463
0.0098018
0.0102963
0.0108184
0.0113338
0.0117912
0.0121371
0.0123345
0.0123749
0.0122787
0.0120842
0.0118346
0.0115665
0.011305
0.0110641
0.0108495
0.0106619
0.0104996
0.0103597
0.0102395
0.0101363
0.0100475
0.00997049
0.0099021
0.00983784
0.00977065
0.00968932
0.00957738
0.00941452
0.00917988
)
;
    }
}


// ************************************************************************* //
