/*--------------------------------*- C++ -*----------------------------------*\
| =========                 |                                                 |
| \\      /  F ield         | OpenFOAM: The Open Source CFD Toolbox           |
|  \\    /   O peration     | Version:  5.0                                   |
|   \\  /    A nd           | Web:      www.OpenFOAM.org                      |
|    \\/     M anipulation  |                                                 |
\*---------------------------------------------------------------------------*/
FoamFile
{
    version     2.0;
    format      ascii;
    class       volScalarField;
    location    "0.35";
    object      p_rgh;
}
// * * * * * * * * * * * * * * * * * * * * * * * * * * * * * * * * * * * * * //

dimensions      [1 -1 -2 0 0 0 0];

internalField   nonuniform List<scalar> 
1935
(
-3.97808
-4.00609
-4.01827
-4.00718
-3.96886
-3.90042
-3.79834
-3.66554
-3.5049
-3.31787
-3.10719
-2.87938
-2.64333
-2.40826
-2.1816
-1.96809
-1.77021
-1.58898
-1.42406
-1.27433
-1.13868
-1.0162
-0.905869
-0.806675
-0.717707
-0.638005
-0.566408
-0.501745
-0.443094
-0.389837
-0.341517
-0.297715
-0.258017
-0.222023
-0.189355
-0.159645
-0.13251
-0.107535
-0.0842703
-0.0623111
-0.041478
-0.020689
0.00712991
-4.14198
-4.21601
-4.31123
-4.41202
-4.17997
-4.25454
-4.37065
-4.47857
-4.20318
-4.35779
-3.87489
-4.3629
-4.19898
-4.26842
-3.85819
-4.20085
-4.16706
-4.33801
-4.28037
-3.89483
-4.10266
-4.28024
-4.21569
-3.83914
-3.99887
-4.17869
-4.29284
-3.84821
-3.86103
-4.04175
-4.18912
-3.83019
-3.69196
-3.87217
-4.03328
-4.1549
-3.49114
-3.66548
-3.83483
-3.97887
-3.25891
-3.41578
-3.57657
-3.72786
-3.00295
-3.13135
-3.26525
-3.39878
-2.73557
-2.8294
-2.92462
-3.0184
-2.46996
-2.52936
-2.58501
-2.63354
-2.21635
-2.24567
-2.26758
-2.2785
-1.98083
-1.9861
-1.98188
-1.96516
-1.76597
-1.75341
-1.73051
-1.69503
-1.57232
-1.54734
-1.51207
-1.46504
-1.39899
-1.36594
-1.32314
-1.26984
-1.24398
-1.20617
-1.15944
-1.10362
-1.10518
-1.06497
-1.0169
-0.961189
-0.980942
-0.939913
-0.892182
-0.838196
-0.869866
-0.82906
-0.782678
-0.731264
-0.770758
-0.730928
-0.686534
-0.63807
-0.682612
-0.644355
-0.602343
-0.556933
-0.604323
-0.56805
-0.528573
-0.48616
-0.534489
-0.500379
-0.463439
-0.423958
-0.471684
-0.439746
-0.405327
-0.368781
-0.41487
-0.385083
-0.353214
-0.319634
-0.363463
-0.335861
-0.306577
-0.275936
-0.317081
-0.291722
-0.265007
-0.237182
-0.2753
-0.252201
-0.227969
-0.202793
-0.237632
-0.216732
-0.194864
-0.172196
-0.203608
-0.184812
-0.165206
-0.144959
-0.172841
-0.156068
-0.138661
-0.120784
-0.144987
-0.130192
-0.114941
-0.0993786
-0.119677
-0.106824
-0.0936824
-0.0803594
-0.0964697
-0.085507
-0.0744148
-0.0632573
-0.074857
-0.0657013
-0.0566172
-0.047597
-0.054315
-0.0468502
-0.03982
-0.0330192
-0.0341426
-0.0281527
-0.0235073
-0.0192594
-0.0106106
-0.00556273
-0.00508378
-0.00485945
0.0241268
0.0266624
0.0167593
0.0103261
-4.49482
-4.50656
-4.44173
-4.4776
12.0969
761.989
2116.42
2217.19
2243.29
2258.22
2085.62
944.808
95.7248
12.6318
5.32392
3.37585
2.92537
2.84119
2.82945
2.8271
2.82112
2.8102
2.79591
2.7796
2.76182
2.74325
2.72525
2.70925
2.69588
2.68474
2.67506
2.66648
2.65931
2.65417
2.65162
2.65175
2.65424
2.6587
2.6643
2.66937
-4.5413
-4.45873
-3.94952
-1.72773
132.628
1618.07
2259.79
2286.22
2300.37
2278.19
1544.42
246.192
24.1542
8.74204
4.05454
2.96942
2.75011
2.7202
2.72447
2.72922
2.72796
2.72113
2.71063
2.69779
2.68326
2.6679
2.65298
2.63965
2.62836
2.61881
2.61049
2.60326
2.5974
2.59342
2.59169
2.59224
2.59483
2.59917
2.60456
2.60944
-4.59259
-3.83357
-0.550852
60.9801
800.56
1905.22
1997.25
2161.42
2175.72
1787.39
591.427
56.0683
11.9748
5.28755
3.18538
2.68639
2.60298
2.60631
2.6208
2.63058
2.63346
2.63058
2.6236
2.61383
2.60231
2.59009
2.57825
2.56755
2.55827
2.55026
2.54337
2.53762
2.53326
2.53058
2.52973
2.53067
2.53325
2.53734
2.54238
2.54698
-4.63382
-4.71854
53.9281
654.496
1930.27
2002.52
1369.11
848.243
744.574
362.53
86.397
35.3992
8.07057
3.55413
2.67912
2.48884
2.47656
2.49755
2.51797
2.53139
2.53776
2.53836
2.53463
2.52793
2.51947
2.51036
2.50145
2.49326
2.48595
2.4796
2.47427
2.47008
2.4672
2.46572
2.46568
2.46698
2.46956
2.47342
2.47811
2.48241
-4.64015
-4.93528
478.438
1860.08
2074.09
2066.3
1939.61
512.623
118.039
50.309
20.5613
11.0454
4.75204
2.75832
2.39039
2.34255
2.36345
2.39269
2.41635
2.43237
2.44144
2.44489
2.44413
2.44049
2.43515
2.42908
2.42293
2.41708
2.41177
2.40719
2.40353
2.40092
2.39943
2.39904
2.3997
2.40134
2.40396
2.40763
2.412
2.41601
-4.60564
-4.85308
857.916
2126
2131.48
2131.35
2125.57
1166.59
91.8211
21.5793
9.34493
4.51506
2.89294
2.32099
2.21306
2.22487
2.259
2.29125
2.31636
2.33398
2.34504
2.35086
2.35281
2.3521
2.34976
2.34654
2.34295
2.33935
2.33605
2.33334
2.3314
2.33035
2.33016
2.33074
2.33202
2.33398
2.33666
2.34019
2.34427
2.34798
-4.13919
-3.80638
342.358
2088.03
2192.89
2184.05
2181.33
2173.82
461.136
11.5172
4.53386
2.98039
2.27093
2.09697
2.08908
2.12209
2.15962
2.19212
2.21754
2.23606
2.24865
2.25658
2.26107
2.26315
2.2636
2.26301
2.26182
2.26042
2.25916
2.25835
2.25815
2.25859
2.25959
2.26104
2.26289
2.26516
2.26793
2.27135
2.27517
2.27858
-2.78271
-3.98501
-3.98531
1377.71
2250.79
2247.72
2239.83
2233.73
1270.92
38.1894
3.40577
2.22841
2.00484
1.96112
1.98622
2.02473
2.06189
2.09363
2.11895
2.13814
2.15217
2.16216
2.16912
2.17382
2.17686
2.17873
2.17985
2.18064
2.18145
2.18254
2.18402
2.18585
2.18791
2.19015
2.19252
2.19511
2.198
2.20135
2.20493
2.20805
-3.28526
-1.71768
-2.19321
87.3061
1611.93
2307.85
2304.53
2293.23
1407.11
40.1539
2.49994
1.93437
1.84093
1.84692
1.88536
1.9261
1.96281
1.99413
2.01962
2.03976
2.05545
2.06762
2.07702
2.08422
2.08973
2.09398
2.09739
2.10037
2.10325
2.10619
2.10924
2.11232
2.11535
2.11829
2.12117
2.12408
2.12713
2.13043
2.13379
2.13663
-4.00359
-1.27332
0.912844
2.92935
232.933
1260.13
1757.09
1582.69
951.341
73.8245
1.8298
1.72043
1.70643
1.73503
1.78095
1.82364
1.86083
1.89258
1.919
1.94068
1.95843
1.97296
1.98483
1.99451
2.00244
2.00906
2.01478
2.01996
2.02484
2.02953
2.034
2.0382
2.0421
2.04569
2.04907
2.05232
2.05554
2.05883
2.06198
2.06455
-3.83091
-3.32372
-0.566894
1.27925
6.62318
78.6062
210.893
158.564
134.855
86.2107
4.3103
1.66564
1.60629
1.62635
1.67266
1.71664
1.75523
1.78855
1.81689
1.84087
1.86115
1.87826
1.8927
1.90488
1.91528
1.92432
1.93237
1.93971
1.94649
1.95276
1.95851
1.96371
1.96838
1.9726
1.97646
1.98007
1.98349
1.98678
1.98973
1.99203
-3.50915
-3.45636
-2.34721
-0.969665
0.098248
3.66634
9.52491
11.7156
9.375
20.8425
3.29229
1.46695
1.45399
1.49706
1.55259
1.60213
1.64492
1.68178
1.71339
1.74051
1.76377
1.78372
1.80085
1.81566
1.82861
1.84011
1.85046
1.85986
1.86839
1.87608
1.88295
1.88904
1.89443
1.89925
1.9036
1.90757
1.91119
1.91448
1.91725
1.9193
-3.10288
-3.13141
-2.80364
-1.87334
-1.24582
-1.17005
0.145962
1.25682
1.42043
0.507318
0.866866
1.1415
1.25108
1.34223
1.41817
1.47935
1.53002
1.5727
1.60898
1.64003
1.6667
1.68972
1.70972
1.72726
1.74283
1.75678
1.76934
1.78063
1.79073
1.79967
1.80753
1.81443
1.82049
1.82589
1.83071
1.83504
1.83886
1.84214
1.84473
1.84655
-2.66957
-2.67295
-2.52745
-2.19194
-1.9723
-1.73566
-1.18806
-0.58066
-0.0941025
0.150017
0.581992
0.877
1.05489
1.18371
1.27951
1.35372
1.41357
1.46307
1.5047
1.5401
1.57047
1.59678
1.6198
1.64017
1.65835
1.67464
1.68923
1.70221
1.71367
1.7237
1.73245
1.74009
1.7468
1.75275
1.75803
1.76268
1.76667
1.76994
1.77235
1.77399
-2.27225
-2.23375
-2.13775
-1.98134
-1.77446
-1.48714
-1.10844
-0.674252
-0.250855
0.109049
0.453872
0.716048
0.904012
1.0435
1.14951
1.23277
1.30003
1.35556
1.40215
1.44175
1.47581
1.50546
1.53156
1.55474
1.57543
1.59389
1.61029
1.62474
1.63738
1.64838
1.65793
1.66626
1.67358
1.68005
1.68576
1.6907
1.69482
1.69804
1.70024
1.70183
-1.92996
-1.8649
-1.76358
-1.62047
-1.43008
-1.18435
-0.881854
-0.54568
-0.206501
0.107857
0.387373
0.612436
0.787365
0.924267
1.03291
1.12057
1.19251
1.25243
1.30303
1.34628
1.38371
1.4165
1.4455
1.47128
1.49424
1.51461
1.53258
1.5483
1.56199
1.57385
1.58415
1.59315
1.60104
1.608
1.61407
1.61924
1.62345
1.62661
1.6286
1.63014
-1.64153
-1.56142
-1.45275
-1.3116
-1.13525
-0.922603
-0.677075
-0.411746
-0.143285
0.112207
0.340979
0.534048
0.692712
0.822763
0.929747
1.01841
1.09257
1.15521
1.20869
1.25486
1.29515
1.33066
1.36214
1.39013
1.41497
1.43692
1.45618
1.47299
1.48759
1.50025
1.51127
1.52089
1.52933
1.53671
1.54309
1.54844
1.55269
1.55578
1.55758
1.55898
-1.40147
-1.31481
-1.2052
-1.07046
-0.910149
-0.725711
-0.521622
-0.306178
-0.0897712
0.11747
0.306843
0.472909
0.615375
0.736511
0.839246
0.926502
1.00093
1.06482
1.1201
1.16836
1.21083
1.24844
1.28186
1.31153
1.33781
1.36097
1.38127
1.39898
1.41439
1.42778
1.43945
1.44965
1.45857
1.46632
1.47294
1.4784
1.48266
1.48565
1.48728
1.48844
-1.20202
-1.11478
-1.00905
-0.88414
-0.740753
-0.581036
-0.408968
-0.230336
-0.0518247
0.12005
0.279808
0.423944
0.551504
0.663133
0.760237
0.844535
0.917803
0.981723
1.03779
1.08725
1.1311
1.17009
1.20479
1.23561
1.26289
1.28694
1.30804
1.32649
1.34259
1.35663
1.36889
1.37959
1.38891
1.39694
1.40372
1.40923
1.41344
1.41631
1.41777
1.41867
-1.03538
-0.95102
-0.852082
-0.738448
-0.611311
-0.472841
-0.326247
-0.1756
-0.0253591
0.120182
0.257381
0.383748
0.498161
0.600537
0.691458
0.771897
0.843006
0.90596
0.961848
1.01161
1.056
1.09563
1.13097
1.16242
1.19032
1.21496
1.23665
1.2557
1.27237
1.28696
1.29971
1.31082
1.32043
1.32864
1.3355
1.341
1.34512
1.34784
1.34914
1.34979
-0.895017
-0.815517
-0.724499
-0.622164
-0.509806
-0.389328
-0.2632
-0.134323
-0.00577337
0.119488
0.238905
0.350592
0.453461
0.547125
0.631732
0.707787
0.775999
0.837146
0.891984
0.941192
0.985348
1.02494
1.06038
1.09202
1.12018
1.14517
1.16726
1.18674
1.20386
1.21888
1.23199
1.24338
1.25318
1.26149
1.26834
1.27377
1.27778
1.28034
1.28147
1.2819
-0.775438
-0.701614
-0.618642
-0.526889
-0.427579
-0.322272
-0.21282
-0.101312
0.0100549
0.119147
0.224072
0.323352
0.416005
0.501539
0.579868
0.651205
0.71595
0.774592
0.827643
0.875587
0.918865
0.957869
0.99295
1.02442
1.05257
1.07767
1.09997
1.11972
1.13713
1.15242
1.16576
1.17731
1.18719
1.19549
1.20228
1.20759
1.21146
1.21385
1.21483
1.21505
-0.672457
-0.604405
-0.529083
-0.446921
-0.358991
-0.266511
-0.170847
-0.0735256
0.0238355
0.119635
0.212419
0.300994
0.384502
0.462434
0.534585
0.600992
0.661855
0.717473
0.768184
0.814335
0.856259
0.894267
0.928645
0.959656
0.987544
1.01253
1.03484
1.05467
1.07219
1.08759
1.10101
1.11259
1.12244
1.13066
1.13733
1.1425
1.14621
1.14844
1.14927
1.14931
-0.583289
-0.520752
-0.452474
-0.378865
-0.300794
-0.219178
-0.135025
-0.0494772
0.0362316
0.120857
0.203245
0.28242
0.357648
0.428448
0.494573
0.555967
0.612714
0.664987
0.71301
0.757023
0.79727
0.833986
0.867393
0.897696
0.925089
0.949754
0.971859
0.991564
1.00902
1.02435
1.03771
1.0492
1.05893
1.06701
1.07351
1.07852
1.08206
1.08414
1.08484
1.08471
-0.506028
-0.44863
-0.386733
-0.320661
-0.251077
-0.178663
-0.104184
-0.0285302
0.0473213
0.122375
0.195702
0.26651
0.334186
0.398312
0.458644
0.51509
0.567667
0.616466
0.661625
0.7033
0.741658
0.776865
0.809078
0.838451
0.86513
0.889251
0.910943
0.930329
0.947525
0.962644
0.975797
0.98709
0.996628
1.00451
1.01083
1.01566
1.01905
1.02098
1.02156
1.02128
-0.438955
-0.386329
-0.330178
-0.270717
-0.208438
-0.143868
-0.0776203
-0.0104201
0.0569357
0.123644
0.188963
0.252263
0.313054
0.37099
0.425857
0.477551
0.526047
0.571379
0.613616
0.652846
0.689171
0.722694
0.753523
0.781763
0.807518
0.830887
0.851966
0.870847
0.887621
0.902381
0.915218
0.926231
0.935517
0.943174
0.949292
0.953944
0.95717
0.958963
0.959432
0.959031
-0.380339
-0.332191
-0.281246
-0.227628
-0.171718
-0.113954
-0.0548573
0.0049651
0.0648607
0.12419
0.182375
0.238932
0.29348
0.345744
0.39554
0.442758
0.487345
0.52929
0.568607
0.605333
0.639514
0.67121
0.700486
0.72741
0.752054
0.774486
0.794775
0.81299
0.829201
0.843482
0.855913
0.866578
0.875569
0.882975
0.88888
0.893353
0.896426
0.898089
0.898457
0.897949
-0.328706
-0.284807
-0.238637
-0.190267
-0.140028
-0.0883083
-0.0355613
0.0177035
0.0709627
0.123721
0.175541
0.226058
0.274981
0.322089
0.36722
0.410261
0.451134
0.489793
0.526216
0.560398
0.592352
0.622102
0.649684
0.67514
0.698515
0.719855
0.739209
0.756627
0.772161
0.785872
0.797824
0.808093
0.816755
0.823892
0.829577
0.833868
0.83679
0.83833
0.838607
0.838008
-0.283048
-0.243174
-0.201414
-0.157831
-0.112735
-0.0664788
-0.019455
0.0279213
0.0752434
0.122139
0.168281
0.213398
0.257262
0.299689
0.340531
0.379669
0.417009
0.452483
0.486044
0.517663
0.547328
0.575045
0.600827
0.624698
0.646684
0.666815
0.685123
0.701643
0.716415
0.729484
0.740904
0.750736
0.759044
0.765895
0.771349
0.775453
0.778224
0.779645
0.779838
0.779164
-0.242697
-0.206593
-0.168913
-0.129735
-0.0893528
-0.0480844
-0.00625409
0.0358138
0.0778136
0.11947
0.160541
0.200815
0.24011
0.278264
0.315137
0.350608
0.384575
0.416959
0.447699
0.476755
0.504102
0.529732
0.553646
0.575853
0.596367
0.615206
0.632389
0.64794
0.661886
0.674261
0.685105
0.694467
0.702395
0.70894
0.71415
0.718059
0.720675
0.721978
0.722094
0.721359
-0.20708
-0.17448
-0.140588
-0.105492
-0.0694631
-0.0327702
0.00433288
0.0416044
0.0788204
0.115777
0.152291
0.188192
0.223325
0.257543
0.290715
0.322721
0.353461
0.382851
0.410828
0.437345
0.462374
0.485898
0.50791
0.528409
0.547402
0.564895
0.580901
0.595431
0.608504
0.620143
0.630376
0.639235
0.646756
0.652974
0.657922
0.661622
0.664076
0.66526
0.665304
0.664523
-0.175622
-0.146305
-0.115964
-0.0846846
-0.0526995
-0.0202188
0.0125709
0.0454954
0.0783916
0.111106
0.143491
0.175406
0.206712
0.237277
0.266978
0.295701
0.323352
0.349851
0.375137
0.399164
0.4219
0.443326
0.463429
0.482204
0.499649
0.515767
0.530559
0.544034
0.556198
0.567066
0.576653
0.584978
0.592063
0.597927
0.60259
0.606066
0.608347
0.609411
0.609387
0.608573
-0.147813
-0.121627
-0.0946572
-0.0669734
-0.0387563
-0.0101591
0.018687
0.0476578
0.076632
0.105488
0.134103
0.162354
0.190116
0.217269
0.243701
0.269309
0.294008
0.317725
0.340403
0.362001
0.382487
0.40184
0.420046
0.437096
0.452985
0.46771
0.481269
0.49366
0.504887
0.514951
0.523859
0.531617
0.538232
0.543714
0.548068
0.5513
0.553399
0.554341
0.554255
0.553419
-0.123281
-0.100115
-0.0763649
-0.0520689
-0.0273581
-0.0023387
0.0228984
0.0482618
0.0736559
0.0989792
0.124125
0.148981
0.173438
0.197388
0.220732
0.243379
0.265255
0.286296
0.306453
0.325688
0.343974
0.36129
0.377621
0.392957
0.407291
0.420615
0.432924
0.444213
0.454475
0.463706
0.471902
0.479058
0.485171
0.490238
0.494259
0.497229
0.499135
0.499954
0.499811
0.498965
-0.101741
-0.0814843
-0.0607918
-0.0396703
-0.0182093
0.0035182
0.0254462
0.0475024
0.0696058
0.091667
0.11359
0.135277
0.156629
0.177554
0.197966
0.217789
0.236958
0.255423
0.273141
0.290081
0.306218
0.321535
0.336018
0.349656
0.362441
0.374363
0.385412
0.39558
0.404854
0.413223
0.420674
0.427194
0.432771
0.437396
0.441058
0.44375
0.445454
0.446148
0.445956
0.445112
-0.0828806
-0.0653984
-0.0475859
-0.0294239
-0.0109722
0.00771624
0.0265892
0.0455844
0.0646292
0.0836432
0.102542
0.121238
0.13965
0.157697
0.17531
0.192426
0.208994
0.224972
0.240328
0.255035
0.269076
0.282435
0.2951
0.30706
0.318305
0.328825
0.338608
0.347639
0.355902
0.363381
0.370056
0.375908
0.380919
0.385074
0.388356
0.390755
0.392252
0.392824
0.392589
0.391759
-0.0662983
-0.0514479
-0.0363443
-0.0209516
-0.00531002
0.0105392
0.026551
0.042669
0.0588277
0.0749558
0.09098
0.106828
0.122429
0.137721
0.152648
0.167161
0.181222
0.194798
0.207865
0.220404
0.232402
0.243845
0.254724
0.265028
0.274746
0.283867
0.292376
0.300256
0.307489
0.314051
0.319922
0.325078
0.329496
0.333158
0.336044
0.33814
0.339427
0.339882
0.339613
0.338809
-0.0515415
-0.039212
-0.026692
-0.013935
-0.000967752
0.0121758
0.0254555
0.0388206
0.0522134
0.0655727
0.0788372
0.0919476
0.104849
0.117493
0.129836
0.141844
0.153488
0.164745
0.175599
0.186036
0.196045
0.205618
0.214745
0.223416
0.231621
0.239347
0.246577
0.253294
0.259477
0.265101
0.270142
0.274577
0.278382
0.281533
0.284011
0.2858
0.286879
0.287224
0.286934
0.286168
-0.0382025
-0.028358
-0.0183718
-0.00819048
0.00216907
0.0126785
0.0233017
0.0339941
0.044706
0.0553864
0.0659855
0.076457
0.0867591
0.096856
0.106717
0.116317
0.125637
0.134661
0.143379
0.151781
0.159861
0.167609
0.175019
0.182082
0.188787
0.195122
0.201069
0.206611
0.211727
0.216392
0.220585
0.22428
0.227453
0.230083
0.232149
0.233633
0.234512
0.234761
0.234461
0.233749
-0.0260262
-0.018721
-0.0112931
-0.00368784
0.00408274
0.0119923
0.0200071
0.0280871
0.0361895
0.0442721
0.0522956
0.0602245
0.0680284
0.0756815
0.0831625
0.0904545
0.0975444
0.104423
0.111083
0.117519
0.123724
0.129693
0.13542
0.140897
0.146114
0.15106
0.155719
0.160074
0.164107
0.167797
0.171122
0.174062
0.176594
0.178697
0.180352
0.18154
0.182236
0.182408
0.182119
0.181484
-0.0148708
-0.0102427
-0.00546037
-0.000472361
0.00470323
0.0100323
0.0154775
0.0209997
0.0265605
0.0321244
0.0376603
0.0431415
0.0485458
0.0538551
0.0590547
0.0641333
0.0690828
0.0738972
0.0785717
0.0831023
0.087485
0.0917155
0.095789
0.0996994
0.103439
0.106998
0.110363
0.113523
0.116461
0.119162
0.121609
0.123784
0.12567
0.127249
0.128504
0.129414
0.129951
0.130073
0.129818
0.12929
-0.00383487
-0.002368
-0.000548804
0.00162409
0.00408654
0.00677017
0.00961745
0.0125804
0.0156189
0.0187001
0.0217973
0.0248895
0.0279597
0.0309945
0.0339836
0.0369193
0.0397959
0.0426094
0.0453562
0.0480335
0.0506385
0.0531685
0.0556202
0.0579895
0.0602712
0.0624587
0.0645446
0.0665202
0.0683764
0.0701033
0.0716903
0.0731265
0.0744004
0.0755
0.0764121
0.0771202
0.0775927
0.0777699
0.0776331
0.0772926
0.00660212
0.00442467
0.00318545
0.0025618
0.002368
0.00247518
0.00279753
0.00327579
0.00386806
0.004544
0.00528132
0.00606338
0.0068776
0.00771441
0.00856652
0.00942844
0.0102959
0.0111656
0.0120346
0.0129005
0.0137612
0.0146146
0.0154585
0.0162907
0.0171084
0.0179088
0.0186888
0.0194454
0.0201753
0.0208754
0.0215425
0.0221735
0.0227654
0.023315
0.0238184
0.0242694
0.0246507
0.0249138
0.0249891
0.0248853
)
;

boundaryField
{
    leftWall
    {
        type            fixedFluxPressure;
        gradient        nonuniform 0();
        value           nonuniform 0();
    }
    rightWall
    {
        type            fixedFluxPressure;
        gradient        uniform 0;
        value           nonuniform List<scalar> 
43
(
2.66937
2.60944
2.54698
2.48241
2.41601
2.34798
2.27858
2.20805
2.13663
2.06455
1.99203
1.9193
1.84655
1.77399
1.70183
1.63014
1.55898
1.48844
1.41867
1.34979
1.2819
1.21505
1.14931
1.08471
1.02128
0.959031
0.897949
0.838008
0.779164
0.721359
0.664523
0.608573
0.553419
0.498965
0.445112
0.391759
0.338809
0.286168
0.233749
0.181484
0.12929
0.0772926
0.0248853
)
;
    }
    lowerWall
    {
        type            fixedFluxPressure;
        gradient        nonuniform 0();
        value           nonuniform 0();
    }
    atmosphere
    {
        type            totalPressure;
        rho             rho;
        psi             none;
        gamma           1;
        p0              uniform 0;
        value           nonuniform List<scalar> 
45
(
-0.000225042
-4.01099e-05
0
0
0
0
0
0
0
0
0
0
0
0
0
0
0
0
0
0
0
0
0
0
0
0
0
0
0
0
0
0
0
0
0
0
0
0
0
0
0
0
0
0
0
)
;
    }
    defaultFaces
    {
        type            empty;
    }
    procBoundary3to1
    {
        type            processor;
        value           nonuniform List<scalar> 
45
(
-3.94035
-4.09635
-4.22235
-4.32392
-4.39989
-4.44629
-4.46257
-4.44216
-4.39468
3.80341
121.735
1142.1
2122.25
2180.4
2201.3
2194.87
1708.32
369.792
19.4592
7.20452
3.9451
3.13585
2.96943
2.93553
2.92424
2.91265
2.89719
2.87875
2.85856
2.83724
2.8155
2.79463
2.77607
2.7605
2.74759
2.73653
2.72685
2.71873
2.7128
2.70959
2.70922
2.7114
2.71574
2.72138
2.72654
)
;
    }
    procBoundary3to2
    {
        type            processor;
        value           nonuniform List<scalar> 
43
(
-3.79901
-3.81699
-3.81951
-3.80151
-3.75919
-3.69038
-3.59312
-3.46933
-3.32151
-3.15196
-2.96392
-2.76253
-2.55432
-2.34595
-2.14293
-1.94916
-1.76703
-1.59768
-1.44125
-1.2974
-1.16573
-1.04574
-0.936807
-0.838224
-0.749167
-0.668692
-0.595825
-0.529684
-0.469535
-0.414763
-0.36484
-0.319312
-0.27781
-0.240006
-0.205569
-0.174126
-0.145278
-0.118635
-0.0938157
-0.0705066
-0.0488078
-0.0288828
-0.00373027
)
;
    }
}


// ************************************************************************* //
