/*--------------------------------*- C++ -*----------------------------------*\
| =========                 |                                                 |
| \\      /  F ield         | OpenFOAM: The Open Source CFD Toolbox           |
|  \\    /   O peration     | Version:  5.0                                   |
|   \\  /    A nd           | Web:      www.OpenFOAM.org                      |
|    \\/     M anipulation  |                                                 |
\*---------------------------------------------------------------------------*/
FoamFile
{
    version     2.0;
    format      ascii;
    class       surfaceScalarField;
    location    "0.35";
    object      phi;
}
// * * * * * * * * * * * * * * * * * * * * * * * * * * * * * * * * * * * * * //

dimensions      [0 3 -1 0 0 0 0];

internalField   nonuniform List<scalar> 
3782
(
-4.4737e-05
5.66481e-05
-5.1206e-05
4.65439e-05
-5.76235e-05
3.51887e-05
-6.37054e-05
2.24348e-05
-6.91646e-05
8.58333e-06
-7.37032e-05
-5.92866e-06
-7.68481e-05
-2.08864e-05
-7.82311e-05
-3.56755e-05
-7.75872e-05
-4.97237e-05
-7.47937e-05
-6.24525e-05
-7.00116e-05
-7.31597e-05
-6.37532e-05
-8.11728e-05
-5.67217e-05
-8.62318e-05
-4.95924e-05
-8.8574e-05
-4.28648e-05
-8.87723e-05
-3.68241e-05
-8.74881e-05
-3.15757e-05
-8.52897e-05
-2.71065e-05
-8.25855e-05
-2.33394e-05
-7.96283e-05
-2.01735e-05
-7.65494e-05
-1.75078e-05
-7.34046e-05
-1.52541e-05
-7.02112e-05
-1.33411e-05
-6.69729e-05
-1.17136e-05
-6.36957e-05
-1.03278e-05
-6.0393e-05
-9.14819e-06
-5.7083e-05
-8.14451e-06
-5.3784e-05
-7.2907e-06
-5.05104e-05
-6.56423e-06
-4.72719e-05
-5.94585e-06
-4.40737e-05
-5.41932e-06
-4.09171e-05
-4.97119e-06
-3.78005e-05
-4.59058e-06
-3.47212e-05
-4.26877e-06
-3.16766e-05
-3.99878e-06
-2.86644e-05
-3.77499e-06
-2.56835e-05
-3.59249e-06
-2.27345e-05
-3.44561e-06
-1.98194e-05
-3.32442e-06
-1.69407e-05
-3.20572e-06
-1.40981e-05
-3.02897e-06
-1.12773e-05
-2.63263e-06
-8.38717e-06
-4.57299e-06
6.19578e-05
-2.71657e-05
6.59705e-05
-8.71621e-06
6.84971e-05
1.20496e-05
3.41726e-05
6.90331e-05
5.22656e-05
-3.28873e-05
5.69346e-05
-1.33852e-05
6.0278e-05
8.70619e-06
3.27115e-05
6.17391e-05
4.13924e-05
-3.9091e-05
4.69146e-05
-1.89074e-05
5.11613e-05
4.45947e-06
2.9911e-05
5.39619e-05
2.88504e-05
-4.55067e-05
3.5355e-05
-2.5412e-05
4.11699e-05
-1.35544e-06
2.47604e-05
4.63205e-05
1.51046e-05
-5.2028e-05
2.27485e-05
-3.30559e-05
3.0634e-05
-9.24097e-06
1.69035e-05
3.84908e-05
3.53221e-07
-5.83099e-05
8.57028e-06
-4.12729e-05
1.80851e-05
-1.87557e-05
6.67118e-06
2.83174e-05
-1.55587e-05
-6.36376e-05
-7.74523e-06
-4.90864e-05
2.11898e-06
-2.86199e-05
-4.42749e-06
1.32177e-05
-3.18288e-05
-6.74842e-05
-2.50035e-05
-5.59118e-05
-1.54488e-05
-3.81746e-05
-1.48451e-05
-5.03116e-06
-4.78833e-05
-6.93245e-05
-4.26875e-05
-6.11076e-05
-3.35028e-05
-4.73592e-05
-2.75211e-05
-2.08268e-05
-6.31362e-05
-6.86407e-05
-6.06831e-05
-6.35607e-05
-5.3838e-05
-5.42043e-05
-3.96102e-05
-4.17489e-05
-7.6526e-05
-6.52744e-05
-7.76802e-05
-6.24066e-05
-7.52746e-05
-5.66098e-05
-4.68713e-05
-6.80135e-05
-8.67327e-05
-5.97145e-05
-9.12098e-05
-5.79296e-05
-9.35583e-05
-5.42613e-05
-4.79335e-05
-9.24961e-05
-9.30859e-05
-5.28604e-05
-9.97354e-05
-5.128e-05
-0.000105558
-4.84387e-05
-4.37907e-05
-0.000109701
-9.579e-05
-4.56444e-05
-0.000103269
-4.3801e-05
-0.000110681
-4.10267e-05
-3.6928e-05
-0.000117544
-9.56529e-05
-3.87638e-05
-0.000102933
-3.65212e-05
-0.000110421
-3.35384e-05
-2.95317e-05
-0.000117817
-9.364e-05
-3.26119e-05
-0.000100148
-3.00133e-05
-0.000106878
-2.68079e-05
-2.27994e-05
-0.00011361
-9.05674e-05
-2.73342e-05
-9.60901e-05
-2.44906e-05
-0.00010175
-2.11476e-05
-1.7176e-05
-0.000107374
-8.69995e-05
-2.29202e-05
-9.15415e-05
-1.99486e-05
-9.6119e-05
-1.65701e-05
-1.27024e-05
-0.000100593
-8.3272e-05
-1.92764e-05
-8.6945e-05
-1.62756e-05
-9.05677e-05
-1.29474e-05
-9.24003e-06
-9.40301e-05
-7.95467e-05
-1.62791e-05
-8.25002e-05
-1.33222e-05
-8.53443e-05
-1.01034e-05
-6.59235e-06
-8.7992e-05
-7.58766e-05
-1.38071e-05
-7.82572e-05
-1.09415e-05
-8.04935e-05
-7.86704e-06
-4.56886e-06
-8.2517e-05
-7.22604e-05
-1.17579e-05
-7.41924e-05
-9.00947e-06
-7.59636e-05
-6.09589e-06
-3.01161e-06
-7.75208e-05
-6.86812e-05
-1.00497e-05
-7.02613e-05
-7.42933e-06
-7.16769e-05
-4.68027e-06
-1.80101e-06
-7.28875e-05
-6.51262e-05
-8.61917e-06
-6.64265e-05
-6.12906e-06
-6.75671e-05
-3.53966e-06
-8.51361e-07
-6.85168e-05
-6.1594e-05
-7.4181e-06
-6.26677e-05
-5.05538e-06
-6.35912e-05
-2.61613e-06
-1.02454e-07
-6.43401e-05
-5.80919e-05
-6.40918e-06
-5.89795e-05
-4.16776e-06
-5.97284e-05
-1.86725e-06
4.88458e-07
-6.03193e-05
-5.46311e-05
-5.56215e-06
-5.53649e-05
-3.43395e-06
-5.59716e-05
-1.26049e-06
9.5351e-07
-5.64367e-05
-5.12214e-05
-4.85119e-06
-5.18279e-05
-2.8274e-06
-5.23191e-05
-7.69319e-07
1.31795e-06
-5.26836e-05
-4.7869e-05
-4.25405e-06
-4.83706e-05
-2.32588e-06
-4.87678e-05
-3.72086e-07
1.60246e-06
-4.90523e-05
-4.45757e-05
-3.75206e-06
-4.49906e-05
-1.91097e-06
-4.53119e-05
-5.07634e-08
1.82383e-06
-4.55333e-05
-4.13393e-05
-3.32985e-06
-4.16828e-05
-1.56748e-06
-4.19428e-05
2.09271e-07
1.99565e-06
-4.21146e-05
-3.81555e-05
-2.97483e-06
-3.84399e-05
-1.28301e-06
-3.86505e-05
4.19771e-07
2.12874e-06
-3.87836e-05
-3.50192e-05
-2.67685e-06
-3.52546e-05
-1.04766e-06
-3.54249e-05
5.90095e-07
2.23166e-06
-3.55279e-05
-3.19256e-05
-2.42784e-06
-3.21196e-05
-8.53675e-07
-3.22571e-05
7.27551e-07
2.31107e-06
-3.23365e-05
-2.88707e-05
-2.22155e-06
-2.90292e-05
-6.95187e-07
-2.91393e-05
8.37715e-07
2.37217e-06
-2.92004e-05
-2.58518e-05
-2.0533e-06
-2.59791e-05
-5.67842e-07
-2.60663e-05
9.24883e-07
2.4192e-06
-2.61134e-05
-2.28683e-05
-1.91949e-06
-2.29679e-05
-4.68247e-07
-2.30358e-05
9.9278e-07
2.45628e-06
-2.30729e-05
-1.99221e-05
-1.81671e-06
-1.99973e-05
-3.93072e-07
-2.00503e-05
1.04577e-06
2.48874e-06
-2.00828e-05
-1.70178e-05
-1.73969e-06
-1.70736e-05
-3.37171e-07
-1.71195e-05
1.09164e-06
2.52623e-06
-1.7157e-05
-1.41615e-05
-1.67622e-06
-1.42095e-05
-2.89248e-07
-1.4266e-05
1.14812e-06
2.58925e-06
-1.4329e-05
-1.13567e-05
-1.59684e-06
-1.14245e-05
-2.21446e-07
-1.15357e-05
1.25926e-06
2.723e-06
-1.16694e-05
-8.56591e-06
-1.41811e-06
-8.73794e-06
-4.94262e-08
-9.02412e-06
1.54545e-06
3.02317e-06
-9.32428e-06
-5.43262e-06
-6.31014e-06
-7.08904e-06
-7.66986e-06
6.67631e-05
6.34735e-05
6.2873e-05
8.34459e-05
6.00597e-05
9.24303e-05
5.83823e-05
9.29206e-05
5.6725e-05
9.34221e-05
5.61734e-05
9.45265e-05
5.62088e-05
9.51028e-05
5.62479e-05
9.63149e-05
5.65065e-05
9.8096e-05
5.71366e-05
0.000100166
5.80798e-05
0.000102273
5.88894e-05
0.000104649
5.91261e-05
0.000108241
6.00014e-05
0.000111156
6.0247e-05
0.000109388
5.91767e-05
0.000104131
5.73357e-05
9.66277e-05
5.49058e-05
8.8384e-05
5.20139e-05
8.08062e-05
4.88603e-05
7.44517e-05
4.5632e-05
6.92784e-05
4.24506e-05
6.50518e-05
3.93765e-05
6.15585e-05
3.64306e-05
5.86551e-05
3.36134e-05
5.62506e-05
3.09177e-05
5.4283e-05
2.83342e-05
5.27044e-05
2.58524e-05
5.14754e-05
2.34618e-05
5.05633e-05
2.11514e-05
4.99401e-05
1.89098e-05
4.95816e-05
1.67258e-05
4.94664e-05
1.45883e-05
4.95747e-05
1.2486e-05
4.9888e-05
1.0407e-05
5.03884e-05
8.33941e-06
5.10565e-05
6.27097e-06
5.18664e-05
4.18951e-06
5.27731e-05
2.08739e-06
5.36564e-05
5.3565e-05
5.9889e-05
6.53236e-05
5.60247e-05
8.73102e-05
5.44145e-05
9.40405e-05
5.3347e-05
9.3988e-05
5.23218e-05
9.44473e-05
5.23061e-05
9.45422e-05
5.24519e-05
9.4957e-05
5.27547e-05
9.6012e-05
5.33268e-05
9.7524e-05
5.42928e-05
9.92004e-05
5.54056e-05
0.00010116
5.58326e-05
0.000104222
5.59812e-05
0.000108092
5.62184e-05
0.000110919
5.55475e-05
0.000110059
5.43258e-05
0.000105352
5.27969e-05
9.81566e-05
5.08171e-05
9.03637e-05
4.83998e-05
8.32235e-05
4.57045e-05
7.71471e-05
4.28969e-05
7.20859e-05
4.00871e-05
6.78616e-05
3.73316e-05
6.4314e-05
3.46549e-05
6.13318e-05
3.20651e-05
5.88404e-05
2.95627e-05
5.67853e-05
2.71448e-05
5.51223e-05
2.48062e-05
5.3814e-05
2.25404e-05
5.2829e-05
2.034e-05
5.21405e-05
1.81968e-05
5.17248e-05
1.61024e-05
5.15608e-05
1.40477e-05
5.16293e-05
1.20236e-05
5.19121e-05
1.00202e-05
5.23918e-05
8.02712e-06
5.30495e-05
6.03354e-06
5.386e-05
4.02893e-06
5.47777e-05
2.00648e-06
5.56789e-05
5.55715e-05
5.39048e-05
6.53807e-05
5.03148e-05
9.09002e-05
4.9991e-05
9.43643e-05
4.93687e-05
9.46104e-05
4.93073e-05
9.45087e-05
4.94789e-05
9.43706e-05
4.97e-05
9.4736e-05
5.01601e-05
9.55519e-05
5.09702e-05
9.67138e-05
5.206e-05
9.81107e-05
5.30445e-05
0.000100176
5.32183e-05
0.000104048
5.27243e-05
0.000108586
5.17208e-05
0.000111923
5.05627e-05
0.000111217
4.95117e-05
0.000106403
4.83051e-05
9.93632e-05
4.66914e-05
9.19774e-05
4.46741e-05
8.52409e-05
4.23866e-05
7.94345e-05
3.99659e-05
7.45066e-05
3.75057e-05
7.03218e-05
3.50591e-05
6.67605e-05
3.26527e-05
6.37382e-05
3.02986e-05
6.11946e-05
2.80016e-05
5.90823e-05
2.5763e-05
5.73608e-05
2.3582e-05
5.5995e-05
2.14558e-05
5.49552e-05
1.93805e-05
5.42158e-05
1.7351e-05
5.37543e-05
1.53613e-05
5.35506e-05
1.34046e-05
5.35859e-05
1.14737e-05
5.3843e-05
9.56046e-06
5.4305e-05
7.65619e-06
5.49538e-05
5.75184e-06
5.57643e-05
3.83851e-06
5.66911e-05
1.91059e-06
5.76068e-05
5.74821e-05
4.98848e-05
6.18164e-05
4.77097e-05
9.30753e-05
4.74657e-05
9.46083e-05
4.7493e-05
9.45831e-05
4.76886e-05
9.43131e-05
4.78003e-05
9.42589e-05
4.81443e-05
9.4392e-05
4.85188e-05
9.51774e-05
4.92151e-05
9.60176e-05
4.97947e-05
9.75311e-05
4.99712e-05
9.99991e-05
5.00016e-05
0.000104018
4.86175e-05
0.00010997
4.68289e-05
0.000113711
4.55966e-05
0.000112449
4.47679e-05
0.000107232
4.38321e-05
0.000100299
4.25238e-05
9.32858e-05
4.08484e-05
8.69162e-05
3.89216e-05
8.13613e-05
3.68562e-05
7.6572e-05
3.47292e-05
7.24489e-05
3.25848e-05
6.8905e-05
3.04478e-05
6.58752e-05
2.83328e-05
6.33096e-05
2.62484e-05
6.11667e-05
2.41998e-05
5.94095e-05
2.21889e-05
5.80059e-05
2.0216e-05
5.69281e-05
1.82799e-05
5.61519e-05
1.63781e-05
5.56561e-05
1.45072e-05
5.54215e-05
1.26627e-05
5.54304e-05
1.08392e-05
5.56665e-05
9.0303e-06
5.61139e-05
7.22886e-06
5.67552e-05
5.42743e-06
5.75658e-05
3.61876e-06
5.84997e-05
1.79882e-06
5.94268e-05
5.92809e-05
4.65827e-05
5.37245e-05
4.62226e-05
9.34354e-05
4.6434e-05
9.43968e-05
4.67997e-05
9.42174e-05
4.70394e-05
9.40733e-05
4.71899e-05
9.41084e-05
4.72543e-05
9.43276e-05
4.76278e-05
9.48038e-05
4.76556e-05
9.59899e-05
4.77811e-05
9.74056e-05
4.73648e-05
0.000100415
4.56801e-05
0.000105702
4.34233e-05
0.000112227
4.1589e-05
0.000115546
4.06462e-05
0.000113392
4.0084e-05
0.000107794
3.93658e-05
0.000101017
3.83001e-05
9.43514e-05
3.69181e-05
8.82982e-05
3.53161e-05
8.29634e-05
3.35806e-05
7.83074e-05
3.17701e-05
7.42594e-05
2.99197e-05
7.07553e-05
2.80513e-05
6.77435e-05
2.61798e-05
6.51811e-05
2.43158e-05
6.30307e-05
2.24667e-05
6.12586e-05
2.06371e-05
5.98354e-05
1.88299e-05
5.87353e-05
1.70461e-05
5.79357e-05
1.52858e-05
5.74165e-05
1.35475e-05
5.71598e-05
1.18288e-05
5.71491e-05
1.0126e-05
5.73693e-05
8.43436e-06
5.78056e-05
6.74845e-06
5.84411e-05
5.06247e-06
5.92517e-05
3.37097e-06
6.01912e-05
1.67199e-06
6.11257e-05
6.09529e-05
4.16836e-05
4.03583e-05
4.47741e-05
9.03449e-05
4.58854e-05
9.32855e-05
4.64665e-05
9.36363e-05
4.6846e-05
9.36938e-05
4.71093e-05
9.38451e-05
4.71823e-05
9.42547e-05
4.70653e-05
9.49208e-05
4.70083e-05
9.60468e-05
4.65081e-05
9.79058e-05
4.50815e-05
0.000101842
4.17639e-05
0.00010902
3.84722e-05
0.000115519
3.66663e-05
0.000117352
3.59121e-05
0.000114146
3.54571e-05
0.000108249
3.48543e-05
0.00010162
3.39788e-05
9.5227e-05
3.28587e-05
8.94182e-05
3.15599e-05
8.42622e-05
3.01392e-05
7.97281e-05
2.86359e-05
7.57628e-05
2.70756e-05
7.23156e-05
2.54765e-05
6.93425e-05
2.38531e-05
6.68046e-05
2.22166e-05
6.46672e-05
2.05761e-05
6.28991e-05
1.89384e-05
6.14731e-05
1.73084e-05
6.03653e-05
1.56893e-05
5.95547e-05
1.40831e-05
5.90227e-05
1.24903e-05
5.87526e-05
1.09101e-05
5.87293e-05
9.34052e-06
5.89389e-05
7.77845e-06
5.93677e-05
6.22013e-06
5.99994e-05
4.6615e-06
6.08104e-05
3.09901e-06
6.17537e-05
1.53296e-06
6.26918e-05
6.24858e-05
2.75224e-05
2.60536e-05
4.29742e-05
7.48931e-05
4.48928e-05
9.13668e-05
4.58838e-05
9.26453e-05
4.64999e-05
9.30777e-05
4.69087e-05
9.34363e-05
4.71175e-05
9.40459e-05
4.69022e-05
9.51361e-05
4.61391e-05
9.681e-05
4.50232e-05
9.90217e-05
4.25437e-05
0.000104321
3.7877e-05
0.000113687
3.39936e-05
0.000119402
3.20084e-05
0.000119337
3.11787e-05
0.000114976
3.07013e-05
0.000108727
3.01778e-05
0.000102144
2.94891e-05
9.59157e-05
2.86325e-05
9.02748e-05
2.76364e-05
8.52584e-05
2.65289e-05
8.08356e-05
2.53319e-05
7.69598e-05
2.40627e-05
7.35848e-05
2.27364e-05
7.06689e-05
2.13664e-05
6.81746e-05
1.99648e-05
6.60688e-05
1.85419e-05
6.4322e-05
1.71062e-05
6.29089e-05
1.56643e-05
6.18073e-05
1.42213e-05
6.09977e-05
1.2781e-05
6.04631e-05
1.13454e-05
6.01882e-05
9.91539e-06
6.01593e-05
8.49048e-06
6.03638e-05
7.06924e-06
6.07889e-05
5.64955e-06
6.14191e-05
4.22913e-06
6.22308e-05
2.80637e-06
6.31765e-05
1.38381e-06
6.41143e-05
6.38696e-05
7.27603e-06
1.37465e-05
3.28324e-05
4.93368e-05
4.25163e-05
8.16829e-05
4.45003e-05
9.06614e-05
4.54543e-05
9.21236e-05
4.60432e-05
9.28474e-05
4.63805e-05
9.37086e-05
4.63622e-05
9.51544e-05
4.54743e-05
9.76979e-05
4.32094e-05
0.000101287
3.91011e-05
0.00010843
3.30645e-05
0.000119723
2.88728e-05
0.000123594
2.68314e-05
0.000121378
2.59815e-05
0.000115826
2.55574e-05
0.000109151
2.51924e-05
0.000102509
2.47518e-05
9.63563e-05
2.4198e-05
9.08286e-05
2.35271e-05
8.59292e-05
2.27456e-05
8.16171e-05
2.18633e-05
7.78421e-05
2.0892e-05
7.45561e-05
1.98449e-05
7.1716e-05
1.87355e-05
6.9284e-05
1.75767e-05
6.72275e-05
1.63802e-05
6.55186e-05
1.51559e-05
6.41332e-05
1.39122e-05
6.3051e-05
1.26558e-05
6.22541e-05
1.13918e-05
6.1727e-05
1.0124e-05
6.1456e-05
8.85464e-06
6.14287e-05
7.58466e-06
6.16338e-05
6.31425e-06
6.20593e-05
5.04299e-06
6.26904e-05
3.77038e-06
6.35034e-05
2.49676e-06
6.44501e-05
1.22678e-06
6.53843e-05
6.50964e-05
-4.6899e-06
-2.39045e-06
1.71175e-05
2.75295e-05
3.60085e-05
6.27919e-05
4.1519e-05
8.51508e-05
4.32595e-05
9.03831e-05
4.39889e-05
9.21181e-05
4.44019e-05
9.32956e-05
4.46534e-05
9.49028e-05
4.38051e-05
9.85463e-05
3.92443e-05
0.000105847
3.19495e-05
0.000115725
2.57046e-05
0.000125968
2.20703e-05
0.000127229
2.04956e-05
0.000122953
1.99684e-05
0.000116353
1.98389e-05
0.000109281
1.97995e-05
0.000102548
1.97155e-05
9.64403e-05
1.9531e-05
9.10131e-05
1.92251e-05
8.62351e-05
1.87935e-05
8.20488e-05
1.82411e-05
7.83946e-05
1.75785e-05
7.52186e-05
1.68196e-05
7.24749e-05
1.5979e-05
7.01245e-05
1.50713e-05
6.81353e-05
1.41097e-05
6.64803e-05
1.31056e-05
6.51373e-05
1.20691e-05
6.40875e-05
1.10084e-05
6.33148e-05
9.93007e-06
6.28054e-05
8.83911e-06
6.2547e-05
7.7392e-06
6.25286e-05
6.63285e-06
6.27401e-05
5.52178e-06
6.31704e-05
4.40724e-06
6.3805e-05
3.29053e-06
6.46201e-05
2.17388e-06
6.55668e-05
1.06389e-06
6.64943e-05
6.61603e-05
-2.38836e-05
-2.02558e-05
-5.41397e-06
9.0599e-06
1.88794e-05
3.84985e-05
3.51979e-05
6.88323e-05
3.90977e-05
8.64833e-05
4.03756e-05
9.08402e-05
4.06512e-05
9.302e-05
4.04494e-05
9.51046e-05
3.98888e-05
9.91069e-05
3.46407e-05
0.000111095
2.433e-05
0.000126035
1.71117e-05
0.000133186
1.40024e-05
0.000130338
1.30997e-05
0.000123855
1.3144e-05
0.000116308
1.35352e-05
0.000108889
1.39915e-05
0.000102092
1.43799e-05
9.60519e-05
1.46389e-05
9.07541e-05
1.47438e-05
8.61302e-05
1.46903e-05
8.21022e-05
1.44861e-05
7.85988e-05
1.4145e-05
7.55597e-05
1.3684e-05
7.29359e-05
1.31207e-05
7.06879e-05
1.24718e-05
6.87842e-05
1.17525e-05
6.71995e-05
1.09763e-05
6.59135e-05
1.01546e-05
6.49092e-05
9.29712e-06
6.41724e-05
8.41175e-06
6.36908e-05
7.50489e-06
6.34538e-05
6.58156e-06
6.3452e-05
5.64575e-06
6.36759e-05
4.70074e-06
6.41154e-05
3.74944e-06
6.47563e-05
2.79494e-06
6.55746e-05
1.8413e-06
6.65204e-05
8.96795e-07
6.74388e-05
6.70571e-05
-5.31207e-05
-3.51487e-05
-3.3524e-05
-1.05368e-05
-1.1556e-05
1.65305e-05
1.37658e-05
4.35105e-05
2.98155e-05
7.04336e-05
3.44434e-05
8.62123e-05
3.46917e-05
9.27717e-05
3.22566e-05
9.75397e-05
2.85405e-05
0.000102823
2.38231e-05
0.000115813
1.38964e-05
0.000135962
7.12206e-06
0.000139961
4.75528e-06
0.000132705
4.68257e-06
0.000123928
5.54659e-06
0.000115444
6.68814e-06
0.000107748
7.81147e-06
0.000100968
8.78642e-06
9.50769e-05
9.56026e-06
8.99803e-05
1.01195e-05
8.5571e-05
1.0471e-05
8.17507e-05
1.06318e-05
7.84379e-05
1.06236e-05
7.55679e-05
1.0469e-05
7.30905e-05
1.01898e-05
7.09671e-05
9.80583e-06
6.91681e-05
9.33482e-06
6.76706e-05
8.79204e-06
6.64563e-05
8.19064e-06
6.55106e-05
7.54173e-06
6.48213e-05
6.85459e-06
6.43779e-05
6.13692e-06
6.41715e-05
5.39515e-06
6.41937e-05
4.63475e-06
6.44363e-05
3.86052e-06
6.48897e-05
3.07704e-06
6.55397e-05
2.28912e-06
6.63625e-05
1.50253e-06
6.73069e-05
7.27076e-07
6.82142e-05
6.77842e-05
-8.57696e-05
-4.18751e-05
-7.22145e-05
-2.40919e-05
-5.38728e-05
-1.81129e-06
-3.22299e-05
2.18676e-05
-8.13634e-06
4.63401e-05
7.91584e-06
7.01602e-05
1.3008e-05
8.76795e-05
1.06343e-05
9.99134e-05
4.42403e-06
0.000109033
-2.27248e-06
0.000122509
-7.2426e-06
0.000140932
-8.48674e-06
0.000141205
-7.41534e-06
0.000131633
-5.31249e-06
0.000121825
-2.93556e-06
0.000113068
-6.65661e-07
0.000105478
1.3359e-06
9.89668e-05
3.01395e-06
9.33989e-05
4.36587e-06
8.86284e-05
5.41354e-06
8.45234e-05
6.18871e-06
8.09756e-05
6.72548e-06
7.79012e-05
7.05686e-06
7.52366e-05
7.21327e-06
7.29341e-05
7.2218e-06
7.09586e-05
7.10602e-06
6.92839e-05
6.88621e-06
6.78904e-05
6.57975e-06
6.67628e-05
6.20143e-06
6.58889e-05
5.76383e-06
6.52589e-05
5.27757e-06
6.48642e-05
4.75174e-06
6.46973e-05
4.19417e-06
6.47513e-05
3.61178e-06
6.50188e-05
3.0109e-06
6.54905e-05
2.39773e-06
6.61529e-05
1.77868e-06
6.69815e-05
1.16109e-06
6.79245e-05
5.56217e-07
6.88191e-05
6.83404e-05
-0.000111086
-4.04903e-05
-0.00010762
-2.75578e-05
-9.89082e-05
-1.05228e-05
-8.65471e-05
9.50654e-06
-7.16763e-05
3.14693e-05
-5.63367e-05
5.48205e-05
-4.56106e-05
7.69535e-05
-4.05173e-05
9.482e-05
-4.04508e-05
0.000108967
-4.11724e-05
0.000123231
-3.57268e-05
0.000135487
-2.80992e-05
0.000133577
-2.17101e-05
0.000125244
-1.63765e-05
0.000116492
-1.19319e-05
0.000108623
-8.2505e-06
0.000101796
-5.23461e-06
9.59509e-05
-2.79121e-06
9.09555e-05
-8.34136e-07
8.66713e-05
7.12728e-07
8.29765e-05
1.9148e-06
7.97735e-05
2.82742e-06
7.69885e-05
3.49711e-06
7.45669e-05
3.96302e-06
7.24682e-05
4.25794e-06
7.06637e-05
4.40918e-06
6.91327e-05
4.43967e-06
6.78599e-05
4.36877e-06
6.68337e-05
4.21294e-06
6.60448e-05
3.9862e-06
6.54856e-05
3.70057e-06
6.51498e-05
3.3665e-06
6.50314e-05
2.99321e-06
6.51246e-05
2.58906e-06
6.54229e-05
2.16188e-06
6.59177e-05
1.71936e-06
6.65954e-05
1.26937e-06
6.74315e-05
8.20467e-07
6.83734e-05
3.8505e-07
6.92545e-05
6.87254e-05
-0.000123784
-3.425e-05
-0.000127521
-2.38208e-05
-0.000127832
-1.02116e-05
-0.000124654
6.32789e-06
-0.000118328
2.5144e-05
-0.000109207
4.56994e-05
-9.90732e-05
6.68196e-05
-8.99927e-05
8.57395e-05
-8.23915e-05
0.000101366
-7.29743e-05
0.000113814
-5.86676e-05
0.00012118
-4.52374e-05
0.000120147
-3.47706e-05
0.000114777
-2.67279e-05
0.000108449
-2.04512e-05
0.000102346
-1.54969e-05
9.68421e-05
-1.15571e-05
9.20111e-05
-8.40955e-06
8.78079e-05
-5.88967e-06
8.41514e-05
-3.87346e-06
8.09603e-05
-2.26601e-06
7.8166e-05
-9.93356e-07
7.57159e-05
2.8293e-09
7.35707e-05
7.6907e-07
7.1702e-05
1.34283e-06
7.00899e-05
1.75467e-06
6.87208e-05
2.02987e-06
6.75847e-05
2.1896e-06
6.66739e-05
2.25186e-06
6.59825e-05
2.23211e-06
6.55054e-05
2.14371e-06
6.52382e-05
1.99846e-06
6.51766e-05
1.80693e-06
6.53161e-05
1.57887e-06
6.5651e-05
1.3235e-06
6.6173e-05
1.04987e-06
6.6869e-05
7.67064e-07
6.77143e-05
4.84455e-07
6.8656e-05
2.13528e-07
6.95254e-05
6.89389e-05
-0.000125463
-2.66041e-05
-0.000131772
-1.75121e-05
-0.000135996
-5.98766e-06
-0.000137517
7.84865e-06
-0.000136023
2.36498e-05
-0.000131248
4.09247e-05
-0.000123186
5.87579e-05
-0.000112786
7.53395e-05
-0.000100636
8.92154e-05
-8.63221e-05
9.94999e-05
-7.03031e-05
0.000105161
-5.58087e-05
0.000105653
-4.40887e-05
0.000103057
-3.48606e-05
9.92209e-05
-2.76028e-05
9.50884e-05
-2.18623e-05
9.11017e-05
-1.72862e-05
8.74351e-05
-1.36103e-05
8.4132e-05
-1.06385e-05
8.11796e-05
-8.225e-06
7.85468e-05
-6.26034e-06
7.62014e-05
-4.66113e-06
7.41167e-05
-3.36289e-06
7.22724e-05
-2.31516e-06
7.06542e-05
-1.47774e-06
6.92525e-05
-8.17953e-07
6.8061e-05
-3.08863e-07
6.70756e-05
7.21206e-08
6.6293e-05
3.4425e-07
6.57104e-05
5.24171e-07
6.53255e-05
6.26519e-07
6.51358e-05
6.64355e-07
6.51388e-05
6.49547e-07
6.5331e-05
5.93128e-07
6.57074e-05
5.0561e-07
6.62605e-05
3.97212e-07
6.69774e-05
2.78018e-07
6.78335e-05
1.57767e-07
6.87763e-05
3.82394e-08
6.96449e-05
6.89772e-05
-0.00012075
-1.94647e-05
-0.000126948
-1.13135e-05
-0.000131622
-1.31374e-06
-0.000134182
1.04081e-05
-0.000134115
2.3583e-05
-0.000130952
3.77618e-05
-0.000124364
5.21699e-05
-0.000114658
6.56338e-05
-0.000102479
7.70364e-05
-8.85555e-05
8.5576e-05
-7.40812e-05
9.06867e-05
-6.08651e-05
9.24365e-05
-4.96891e-05
9.18813e-05
-4.05304e-05
9.00622e-05
-3.31088e-05
8.76668e-05
-2.71014e-05
8.50943e-05
-2.22198e-05
8.25534e-05
-1.8229e-05
8.01413e-05
-1.49463e-05
7.78969e-05
-1.22312e-05
7.58317e-05
-9.97647e-06
7.39467e-05
-8.09953e-06
7.22397e-05
-6.53613e-06
7.0709e-05
-5.23573e-06
6.93538e-05
-4.15788e-06
6.81746e-05
-3.26946e-06
6.71726e-05
-2.54291e-06
6.6349e-05
-1.95489e-06
6.57049e-05
-1.48532e-06
6.52408e-05
-1.11661e-06
6.49567e-05
-8.33067e-07
6.48523e-05
-6.20527e-07
6.49263e-05
-4.66008e-07
6.51764e-05
-3.57362e-07
6.55987e-05
-2.83015e-07
6.61862e-05
-2.31851e-07
6.69262e-05
-1.93508e-07
6.77952e-05
-1.61089e-07
6.87439e-05
-1.52599e-07
6.96364e-05
6.88246e-05
-0.000113311
-1.3528e-05
-0.000118451
-6.17296e-06
-0.000122325
2.56056e-06
-0.000124446
1.25287e-05
-0.000124351
2.34877e-05
-0.000121634
3.50455e-05
-0.000116072
4.66077e-05
-0.000107841
5.74024e-05
-9.74805e-05
6.66759e-05
-8.57696e-05
7.3865e-05
-7.37553e-05
7.86723e-05
-6.25182e-05
8.11995e-05
-5.26238e-05
8.19868e-05
-4.41909e-05
8.16294e-05
-3.71174e-05
8.05933e-05
-3.12188e-05
7.91957e-05
-2.62995e-05
7.76342e-05
-2.21843e-05
7.60261e-05
-1.87268e-05
7.44394e-05
-1.58094e-05
7.29143e-05
-1.33388e-05
7.14761e-05
-1.12412e-05
7.01421e-05
-9.45788e-06
6.89256e-05
-7.94162e-06
6.78375e-05
-6.65392e-06
6.68869e-05
-5.56273e-06
6.60814e-05
-4.64087e-06
6.54271e-05
-3.86493e-06
6.4929e-05
-3.21443e-06
6.45903e-05
-2.67122e-06
6.44136e-05
-2.21891e-06
6.44e-05
-1.84256e-06
6.455e-05
-1.52836e-06
6.48623e-05
-1.26332e-06
6.53337e-05
-1.03514e-06
6.5958e-05
-8.3217e-07
6.67233e-05
-6.44292e-07
6.76073e-05
-4.675e-07
6.85671e-05
-3.29459e-07
6.94984e-05
6.84951e-05
-0.000105231
-8.88961e-06
-0.000109151
-2.2526e-06
-0.000111988
5.39684e-06
-0.000113366
1.39069e-05
-0.000112938
2.30601e-05
-0.000110431
3.25385e-05
-0.000105734
4.19107e-05
-9.89967e-05
5.06648e-05
-9.06324e-05
5.83116e-05
-8.12507e-05
6.44833e-05
-7.15796e-05
6.90013e-05
-6.23056e-05
7.19255e-05
-5.3851e-05
7.35322e-05
-4.63823e-05
7.41607e-05
-3.9902e-05
7.41131e-05
-3.43292e-05
7.36229e-05
-2.95518e-05
7.28568e-05
-2.54556e-05
7.19299e-05
-2.19372e-05
7.0921e-05
-1.8908e-05
6.98851e-05
-1.62944e-05
6.88624e-05
-1.40357e-05
6.78833e-05
-1.20818e-05
6.69718e-05
-1.03913e-05
6.6147e-05
-8.92925e-06
6.54249e-05
-7.66582e-06
6.48179e-05
-6.57503e-06
6.43363e-05
-5.63402e-06
6.3988e-05
-4.82247e-06
6.37788e-05
-4.12205e-06
6.37132e-05
-3.51609e-06
6.37941e-05
-2.98924e-06
6.40231e-05
-2.52719e-06
6.44002e-05
-2.11649e-06
6.4923e-05
-1.74439e-06
6.55859e-05
-1.39904e-06
6.63779e-05
-1.0707e-06
6.7279e-05
-7.56936e-07
6.82533e-05
-4.82582e-07
6.9224e-05
6.80125e-05
-9.75265e-05
-5.39318e-06
-0.000100375
5.96053e-07
-0.000102296
7.31798e-06
-0.000103023
1.46337e-05
-0.000102318
2.2355e-05
-0.000100015
3.02351e-05
-9.60707e-05
3.79669e-05
-9.06156e-05
4.52098e-05
-8.39492e-05
5.16451e-05
-7.64997e-05
5.70339e-05
-6.87548e-05
6.12565e-05
-6.1163e-05
6.43337e-05
-5.40359e-05
6.64051e-05
-4.75377e-05
6.76625e-05
-4.17217e-05
6.82971e-05
-3.65725e-05
6.84737e-05
-3.20398e-05
6.83241e-05
-2.80597e-05
6.79499e-05
-2.45676e-05
6.74288e-05
-2.15031e-05
6.68207e-05
-1.8813e-05
6.61723e-05
-1.64509e-05
6.55212e-05
-1.43766e-05
6.48975e-05
-1.25556e-05
6.4326e-05
-1.09572e-05
6.38265e-05
-9.55469e-06
6.34154e-05
-8.32383e-06
6.31055e-05
-7.24295e-06
6.29071e-05
-6.29237e-06
6.28282e-05
-5.45408e-06
6.28749e-05
-4.71153e-06
6.30516e-05
-4.04932e-06
6.33609e-05
-3.45303e-06
6.38039e-05
-2.90902e-06
6.4379e-05
-2.4044e-06
6.50813e-05
-1.92726e-06
6.59008e-05
-1.46798e-06
6.68197e-05
-1.02394e-06
6.78092e-05
-6.12862e-07
6.88129e-05
6.73997e-05
-9.05811e-05
-2.80403e-06
-9.25879e-05
2.60278e-06
-9.38113e-05
8.54136e-06
-9.4065e-05
1.48874e-05
-9.31955e-05
2.14856e-05
-9.11083e-05
2.81479e-05
-8.77974e-05
3.4656e-05
-8.3367e-05
4.07794e-05
-7.80289e-05
4.6307e-05
-7.20735e-05
5.10785e-05
-6.58252e-05
5.50082e-05
-5.95842e-05
5.80927e-05
-5.35788e-05
6.03997e-05
-4.79528e-05
6.20365e-05
-4.27783e-05
6.31226e-05
-3.80767e-05
6.3772e-05
-3.38376e-05
6.4085e-05
-3.00341e-05
6.41464e-05
-2.66316e-05
6.40263e-05
-2.35938e-05
6.37829e-05
-2.08854e-05
6.34639e-05
-1.84732e-05
6.3109e-05
-1.63267e-05
6.27511e-05
-1.44181e-05
6.24173e-05
-1.27216e-05
6.213e-05
-1.12136e-05
6.19074e-05
-9.87234e-06
6.17643e-05
-8.67775e-06
6.17125e-05
-7.61123e-06
6.17617e-05
-6.65554e-06
6.19192e-05
-5.79463e-06
6.21907e-05
-5.01343e-06
6.25798e-05
-4.2977e-06
6.30882e-05
-3.63392e-06
6.37152e-05
-3.00925e-06
6.44566e-05
-2.41183e-06
6.53034e-05
-1.83192e-06
6.62398e-05
-1.26586e-06
6.72432e-05
-7.24164e-07
6.82712e-05
6.66755e-05
-8.44244e-05
-8.96646e-07
-8.58147e-05
3.99312e-06
-8.65451e-05
9.27178e-06
-8.64893e-05
1.48316e-05
-8.5551e-05
2.05473e-05
-8.3679e-05
2.6276e-05
-8.08838e-05
3.18607e-05
-7.72461e-05
3.71418e-05
-7.29138e-05
4.19747e-05
-6.80833e-05
4.62481e-05
-6.29721e-05
4.98969e-05
-5.77857e-05
5.29063e-05
-5.26919e-05
5.53059e-05
-4.78105e-05
5.71551e-05
-4.32163e-05
5.85284e-05
-3.89482e-05
5.95039e-05
-3.50198e-05
6.01566e-05
-3.14282e-05
6.05547e-05
-2.81604e-05
6.07585e-05
-2.51981e-05
6.08206e-05
-2.25203e-05
6.07861e-05
-2.0105e-05
6.06938e-05
-1.79302e-05
6.05763e-05
-1.59741e-05
6.04612e-05
-1.42156e-05
6.03715e-05
-1.26346e-05
6.03264e-05
-1.1212e-05
6.03416e-05
-9.9296e-06
6.04301e-05
-8.77029e-06
6.06024e-05
-7.71797e-06
6.08669e-05
-6.75744e-06
6.12301e-05
-5.87425e-06
6.16966e-05
-5.05462e-06
6.22686e-05
-4.28538e-06
6.2946e-05
-3.55394e-06
6.37252e-05
-2.84857e-06
6.4598e-05
-2.15939e-06
6.55506e-05
-1.48151e-06
6.65653e-05
-8.19597e-07
6.76093e-05
6.58559e-05
-7.89313e-05
5.13877e-07
-7.98873e-05
4.94908e-06
-8.0287e-05
9.67148e-06
-8.00456e-05
1.45902e-05
-7.91032e-05
1.96049e-05
-7.74338e-05
2.46066e-05
-7.50533e-05
2.94802e-05
-7.20231e-05
3.41116e-05
-6.84469e-05
3.83985e-05
-6.44594e-05
4.22607e-05
-6.02094e-05
4.56469e-05
-5.58411e-05
4.8538e-05
-5.14794e-05
5.09443e-05
-4.72223e-05
5.28979e-05
-4.31396e-05
5.44457e-05
-3.92767e-05
5.5641e-05
-3.56594e-05
5.65394e-05
-3.22991e-05
5.71945e-05
-2.91972e-05
5.76566e-05
-2.63477e-05
5.79711e-05
-2.37404e-05
5.81788e-05
-2.13618e-05
5.83151e-05
-1.91965e-05
5.84111e-05
-1.72285e-05
5.84931e-05
-1.54408e-05
5.85839e-05
-1.38168e-05
5.87024e-05
-1.234e-05
5.88648e-05
-1.09944e-05
5.90845e-05
-9.7647e-06
5.93727e-05
-8.63616e-06
5.97384e-05
-7.59466e-06
6.01887e-05
-6.62662e-06
6.07286e-05
-5.71895e-06
6.13609e-05
-4.859e-06
6.20861e-05
-4.03461e-06
6.29008e-05
-3.23431e-06
6.37977e-05
-2.44816e-06
6.47644e-05
-1.67016e-06
6.57873e-05
-9.00442e-07
6.68396e-05
6.49554e-05
-7.39394e-05
1.56581e-06
-7.45942e-05
5.60391e-06
-7.47789e-05
9.85616e-06
-7.44359e-05
1.42472e-05
-7.35279e-05
1.86969e-05
-7.20422e-05
2.3121e-05
-6.99953e-05
2.74332e-05
-6.74337e-05
3.155e-05
-6.44315e-05
3.53964e-05
-6.10832e-05
3.89123e-05
-5.74934e-05
4.20571e-05
-5.37664e-05
4.48111e-05
-4.9997e-05
4.71748e-05
-4.62644e-05
4.91654e-05
-4.26309e-05
5.08121e-05
-3.91419e-05
5.2152e-05
-3.58283e-05
5.32257e-05
-3.2709e-05
5.40752e-05
-2.97936e-05
5.47412e-05
-2.70843e-05
5.52618e-05
-2.45781e-05
5.56725e-05
-2.22677e-05
5.60048e-05
-2.01435e-05
5.62868e-05
-1.81936e-05
5.65432e-05
-1.64051e-05
5.67954e-05
-1.47645e-05
5.70618e-05
-1.32581e-05
5.73584e-05
-1.18721e-05
5.76986e-05
-1.05931e-05
5.80937e-05
-9.40786e-06
5.85532e-05
-8.3035e-06
5.90843e-05
-7.26749e-06
5.96926e-05
-6.28757e-06
6.03811e-05
-5.3518e-06
6.11503e-05
-4.44858e-06
6.19976e-05
-3.56683e-06
6.2916e-05
-2.6967e-06
6.38943e-05
-1.83131e-06
6.49219e-05
-9.6729e-07
6.59755e-05
6.39881e-05
-6.93074e-05
2.35647e-06
-6.97525e-05
6.04901e-06
-6.97989e-05
9.90257e-06
-6.94067e-05
1.38551e-05
-6.85521e-05
1.78423e-05
-6.72295e-05
2.17983e-05
-6.54537e-05
2.56575e-05
-6.32603e-05
2.93567e-05
-6.07035e-05
3.28396e-05
-5.78514e-05
3.60602e-05
-5.47801e-05
3.89858e-05
-5.15672e-05
4.15981e-05
-4.82856e-05
4.38932e-05
-4.49997e-05
4.58796e-05
-4.17634e-05
4.75758e-05
-3.86189e-05
4.90074e-05
-3.55977e-05
5.02046e-05
-3.27218e-05
5.11993e-05
-3.00049e-05
5.20243e-05
-2.7454e-05
5.2711e-05
-2.50708e-05
5.32893e-05
-2.28527e-05
5.37866e-05
-2.07939e-05
5.4228e-05
-1.88864e-05
5.46358e-05
-1.71208e-05
5.50298e-05
-1.54864e-05
5.54274e-05
-1.39721e-05
5.5844e-05
-1.25662e-05
5.62927e-05
-1.12572e-05
5.67848e-05
-1.00335e-05
5.73295e-05
-8.88347e-06
5.79343e-05
-7.79577e-06
5.86049e-05
-6.75907e-06
5.93444e-05
-5.76224e-06
6.01535e-05
-4.79436e-06
6.10298e-05
-3.84488e-06
6.19665e-05
-2.90414e-06
6.29536e-05
-1.96469e-06
6.39824e-05
-1.02047e-06
6.50313e-05
6.29677e-05
-6.49359e-05
2.95228e-06
-6.52319e-05
6.34501e-06
-6.51887e-05
9.8594e-06
-6.47781e-05
1.34445e-05
-6.39841e-05
1.70483e-05
-6.28049e-05
2.06191e-05
-6.12532e-05
2.41058e-05
-5.93564e-05
2.74599e-05
-5.71552e-05
3.06383e-05
-5.47e-05
3.36051e-05
-5.20478e-05
3.63337e-05
-4.92578e-05
3.88081e-05
-4.63869e-05
4.10224e-05
-4.34877e-05
4.29803e-05
-4.06055e-05
4.46937e-05
-3.77783e-05
4.61801e-05
-3.50355e-05
4.74618e-05
-3.23996e-05
4.85634e-05
-2.98858e-05
4.95105e-05
-2.75036e-05
5.03288e-05
-2.52576e-05
5.10432e-05
-2.31482e-05
5.16773e-05
-2.11731e-05
5.22528e-05
-1.9327e-05
5.27897e-05
-1.76034e-05
5.33061e-05
-1.59942e-05
5.38182e-05
-1.44904e-05
5.43403e-05
-1.30827e-05
5.4885e-05
-1.17611e-05