/*--------------------------------*- C++ -*----------------------------------*\
| =========                 |                                                 |
| \\      /  F ield         | OpenFOAM: The Open Source CFD Toolbox           |
|  \\    /   O peration     | Version:  5.0                                   |
|   \\  /    A nd           | Web:      www.OpenFOAM.org                      |
|    \\/     M anipulation  |                                                 |
\*---------------------------------------------------------------------------*/
FoamFile
{
    version     2.0;
    format      ascii;
    class       volVectorField;
    location    "0.35";
    object      U;
}
// * * * * * * * * * * * * * * * * * * * * * * * * * * * * * * * * * * * * * //

dimensions      [0 1 -1 0 0 0 0];

internalField   nonuniform List<vector> 
1935
(
(0.552607 -0.448294 0)
(0.442854 -0.518012 0)
(0.322428 -0.588084 0)
(0.191447 -0.656134 0)
(0.0536255 -0.719109 0)
(-0.0867288 -0.773862 0)
(-0.225861 -0.816383 0)
(-0.358363 -0.84171 0)
(-0.479333 -0.846282 0)
(-0.584215 -0.827617 0)
(-0.668487 -0.785629 0)
(-0.728625 -0.724219 0)
(-0.764099 -0.650578 0)
(-0.777658 -0.572648 0)
(-0.774136 -0.496953 0)
(-0.758789 -0.427656 0)
(-0.736048 -0.366729 0)
(-0.709128 -0.314511 0)
(-0.680048 -0.270355 0)
(-0.649894 -0.233235 0)
(-0.61918 -0.202043 0)
(-0.588135 -0.175728 0)
(-0.556893 -0.15342 0)
(-0.525597 -0.134453 0)
(-0.494424 -0.118312 0)
(-0.46357 -0.104568 0)
(-0.433206 -0.0928652 0)
(-0.403459 -0.0829046 0)
(-0.374409 -0.0744321 0)
(-0.346099 -0.0672253 0)
(-0.318539 -0.061091 0)
(-0.291716 -0.0558671 0)
(-0.265607 -0.0514231 0)
(-0.240182 -0.0476552 0)
(-0.215422 -0.0444801 0)
(-0.191312 -0.0418311 0)
(-0.167848 -0.0396538 0)
(-0.145031 -0.0378966 0)
(-0.122858 -0.0364833 0)
(-0.101273 -0.035272 0)
(-0.0800283 -0.0340096 0)
(-0.0579805 -0.0318524 0)
(-0.0288014 -0.0217385 0)
(0.614916 -0.279214 0)
(0.664393 -0.07543 0)
(0.699571 0.153944 0)
(0.716742 0.394957 0)
(0.507002 -0.342 0)
(0.560949 -0.125183 0)
(0.605678 0.119716 0)
(0.631134 0.38552 0)
(0.387638 -0.410432 0)
(0.45092 -0.181737 0)
(0.500887 0.0782451 0)
(0.539797 0.361045 0)
(0.255634 -0.482382 0)
(0.325341 -0.249658 0)
(0.382861 0.0226353 0)
(0.445361 0.318224 0)
(0.11373 -0.557328 0)
(0.187323 -0.332069 0)
(0.264905 -0.0547214 0)
(0.345636 0.246347 0)
(-0.0338414 -0.631461 0)
(0.0399283 -0.42384 0)
(0.131797 -0.156815 0)
(0.224961 0.138657 0)
(-0.185504 -0.699395 0)
(-0.120352 -0.51782 0)
(-0.0275668 -0.27089 0)
(0.0638534 0.0120352 0)
(-0.334825 -0.753335 0)
(-0.284132 -0.602852 0)
(-0.200499 -0.381717 0)
(-0.100169 -0.10504 0)
(-0.476027 -0.787504 0)
(-0.444667 -0.674362 0)
(-0.376539 -0.492598 0)
(-0.265625 -0.239966 0)
(-0.603337 -0.79512 0)
(-0.598136 -0.721234 0)
(-0.557553 -0.59043 0)
(-0.469681 -0.393722 0)
(-0.709035 -0.771197 0)
(-0.733232 -0.72906 0)
(-0.731299 -0.646196 0)
(-0.690098 -0.510295 0)
(-0.785288 -0.717884 0)
(-0.834116 -0.694184 0)
(-0.868942 -0.644135 0)
(-0.879458 -0.557175 0)
(-0.829238 -0.644237 0)
(-0.892836 -0.626773 0)
(-0.952194 -0.592342 0)
(-1.0012 -0.53346 0)
(-0.843937 -0.561647 0)
(-0.911896 -0.542778 0)
(-0.981024 -0.511972 0)
(-1.04806 -0.464032 0)
(-0.836253 -0.479801 0)
(-0.900917 -0.456489 0)
(-0.968493 -0.423887 0)
(-1.03708 -0.378242 0)
(-0.813858 -0.404815 0)
(-0.871069 -0.37692 0)
(-0.930985 -0.341446 0)
(-0.992254 -0.295725 0)
(-0.783133 -0.339509 0)
(-0.831483 -0.308128 0)
(-0.881603 -0.270502 0)
(-0.932414 -0.224838 0)
(-0.748484 -0.284441 0)
(-0.788224 -0.250967 0)
(-0.828705 -0.212368 0)
(-0.869068 -0.167502 0)
(-0.712565 -0.238816 0)
(-0.744745 -0.204514 0)
(-0.776821 -0.166064 0)
(-0.808115 -0.122742 0)
(-0.676674 -0.201274 0)
(-0.702603 -0.167126 0)
(-0.727857 -0.12966 0)
(-0.751879 -0.0884283 0)
(-0.641282 -0.170378 0)
(-0.662228 -0.137065 0)
(-0.682155 -0.101103 0)
(-0.700607 -0.0622513 0)
(-0.606458 -0.144836 0)
(-0.623489 -0.112759 0)
(-0.639321 -0.0785731 0)
(-0.653603 -0.0421818 0)
(-0.572156 -0.123593 0)
(-0.586101 -0.0929425 0)
(-0.598786 -0.0606372 0)
(-0.609951 -0.0266491 0)
(-0.538356 -0.105837 0)
(-0.549836 -0.076677 0)
(-0.560075 -0.0462393 0)
(-0.568874 -0.0145166 0)
(-0.505111 -0.0909474 0)
(-0.514588 -0.0632705 0)
(-0.52289 -0.0346087 0)
(-0.529851 -0.00497183 0)
(-0.472523 -0.0784381 0)
(-0.480352 -0.0521883 0)
(-0.487088 -0.0251739 0)
(-0.4926 0.00256834 0)
(-0.440701 -0.0679228 0)
(-0.447165 -0.043012 0)
(-0.452626 -0.0175103 0)
(-0.456987 0.00852449 0)
(-0.409728 -0.0590895 0)
(-0.415065 -0.0354177 0)
(-0.419489 -0.0112984 0)
(-0.422937 0.0132062 0)
(-0.379655 -0.0516754 0)
(-0.384063 -0.0291439 0)
(-0.38765 -0.00627936 0)
(-0.390371 0.0168613 0)
(-0.350493 -0.0454517 0)
(-0.354137 -0.0239637 0)
(-0.357048 -0.00222813 0)
(-0.359192 0.0197024 0)
(-0.322222 -0.0402209 0)
(-0.325238 -0.0196802 0)
(-0.327601 0.00104739 0)
(-0.329287 0.0219089 0)
(-0.294802 -0.0358194 0)
(-0.297298 -0.0161297 0)
(-0.299215 0.00370267 0)
(-0.300541 0.0236231 0)
(-0.268187 -0.0321176 0)
(-0.270248 -0.0131856 0)
(-0.271802 0.00585618 0)
(-0.272844 0.0249525 0)
(-0.24233 -0.0290147 0)
(-0.244025 -0.0107519 0)
(-0.24528 0.0075973 0)
(-0.246097 0.0259785 0)
(-0.217194 -0.0264318 0)
(-0.218575 -0.00875484 0)
(-0.219581 0.00899605 0)
(-0.22022 0.026766 0)
(-0.192753 -0.0243073 0)
(-0.193859 -0.00713654 0)
(-0.194653 0.0101088 0)
(-0.195148 0.0273696 0)
(-0.168993 -0.022595 0)
(-0.169855 -0.00585283 0)
(-0.170467 0.0109813 0)
(-0.170849 0.0278366 0)
(-0.145916 -0.0212576 0)
(-0.146561 -0.0048678 0)
(-0.147021 0.0116561 0)
(-0.147329 0.0282163 0)
(-0.123538 -0.0202509 0)
(-0.124001 -0.00413853 0)
(-0.124358 0.0121937 0)
(-0.124659 0.0285844 0)
(-0.101867 -0.0195162 0)
(-0.102228 -0.00361078 0)
(-0.102586 0.0126988 0)
(-0.103025 0.0290774 0)
(-0.0808522 -0.0190141 0)
(-0.0813143 -0.00324681 0)
(-0.0819265 0.0133507 0)
(-0.0828293 0.0299473 0)
(-0.0599489 -0.0179059 0)
(-0.0612899 -0.0020561 0)
(-0.0628324 0.0153599 0)
(-0.0649208 0.0322329 0)
(-0.0335191 -0.00945506 0)
(-0.0427715 0.00540219 0)
(-0.0473709 0.023927 0)
(-0.0518943 0.0394352 0)
(0.708461 0.637694 0)
(0.671119 0.833629 0)
(0.641329 0.933379 0)
(0.613676 0.942363 0)
(0.585347 0.94488 0)
(0.5777 0.966707 0)
(0.580992 0.974399 0)
(0.581337 0.985891 0)
(0.581813 1.00501 0)
(0.586331 1.0286 0)
(0.595004 1.05271 0)
(0.603388 1.07585 0)
(0.611017 1.10742 0)
(0.618117 1.1403 0)
(0.62375 1.11648 0)
(0.618762 1.05814 0)
(0.602665 0.979003 0)
(0.580951 0.892272 0)
(0.553312 0.812589 0)
(0.521533 0.746254 0)
(0.488085 0.692851 0)
(0.454747 0.649721 0)
(0.422393 0.614411 0)
(0.391301 0.585258 0)
(0.361524 0.561232 0)
(0.333053 0.541656 0)
(0.305825 0.526025 0)
(0.27972 0.513927 0)
(0.254598 0.50502 0)
(0.230334 0.499017 0)
(0.206821 0.495672 0)
(0.183963 0.494766 0)
(0.161658 0.496095 0)
(0.139791 0.499469 0)
(0.11823 0.504699 0)
(0.0968363 0.51158 0)
(0.0754732 0.51985 0)
(0.0541764 0.529049 0)
(0.0328852 0.537965 0)
(0.0124825 0.537069 0)
(0.630374 0.659952 0)
(0.595322 0.874865 0)
(0.572314 0.956555 0)
(0.546212 0.951945 0)
(0.532605 0.961878 0)
(0.534952 0.967946 0)
(0.536658 0.973418 0)
(0.538043 0.985224 0)
(0.542353 1.00234 0)
(0.550281 1.02239 0)
(0.560128 1.04219 0)
(0.568398 1.0658 0)
(0.576922 1.10359 0)
(0.577597 1.13245 0)
(0.573227 1.11995 0)
(0.562086 1.07075 0)
(0.548784 0.996399 0)
(0.531515 0.914715 0)
(0.508823 0.839614 0)
(0.482122 0.776071 0)
(0.453539 0.723675 0)
(0.424607 0.680367 0)
(0.396077 0.644254 0)
(0.368254 0.614045 0)
(0.341276 0.58891 0)
(0.315212 0.568262 0)
(0.290058 0.551627 0)
(0.265754 0.538601 0)
(0.242218 0.528852 0)
(0.219369 0.522101 0)
(0.197138 0.51811 0)
(0.175452 0.516663 0)
(0.154233 0.517557 0)
(0.133384 0.5206 0)
(0.112801 0.525605 0)
(0.0923655 0.532375 0)
(0.0719608 0.540648 0)
(0.051632 0.549966 0)
(0.0313119 0.559079 0)
(0.0118872 0.558035 0)
(0.558174 0.676154 0)
(0.528866 0.91194 0)
(0.509382 0.959892 0)
(0.498501 0.965695 0)
(0.498174 0.968988 0)
(0.501727 0.9662 0)
(0.502959 0.969634 0)
(0.506003 0.982216 0)
(0.512482 0.997492 0)
(0.521758 1.0133 0)
(0.530359 1.03147 0)
(0.539701 1.06229 0)
(0.544703 1.10452 0)
(0.53234 1.13532 0)
(0.517312 1.1295 0)
(0.506797 1.08254 0)
(0.496715 1.0103 0)
(0.482885 0.932911 0)
(0.464224 0.862058 0)
(0.441967 0.801348 0)
(0.417773 0.750282 0)
(0.392859 0.707247 0)
(0.367909 0.670819 0)
(0.343264 0.640022 0)
(0.319104 0.614192 0)
(0.295518 0.592815 0)
(0.272534 0.575454 0)
(0.25014 0.561734 0)
(0.228309 0.551338 0)
(0.207006 0.543998 0)
(0.186191 0.539483 0)
(0.165815 0.537581 0)
(0.145816 0.538097 0)
(0.126122 0.540847 0)
(0.106648 0.545653 0)
(0.0873001 0.552324 0)
(0.0679837 0.560604 0)
(0.0487541 0.570027 0)
(0.029533 0.579309 0)
(0.0112148 0.578102 0)
(0.50321 0.66007 0)
(0.487616 0.942533 0)
(0.476421 0.967764 0)
(0.475374 0.970931 0)
(0.478536 0.966947 0)
(0.480227 0.96437 0)
(0.481404 0.964013 0)
(0.485402 0.971593 0)
(0.491563 0.985468 0)
(0.498153 0.999258 0)
(0.500195 1.01991 0)
(0.504188 1.06246 0)
(0.501406 1.11384 0)
(0.479834 1.15118 0)
(0.462044 1.14341 0)
(0.453355 1.0927 0)
(0.445918 1.02123 0)
(0.434941 0.947645 0)
(0.419689 0.880756 0)
(0.401252 0.82276 0)
(0.380947 0.773099 0)
(0.359746 0.730591 0)
(0.338215 0.694211 0)
(0.316666 0.663213 0)
(0.295285 0.637038 0)
(0.274182 0.61523 0)
(0.253419 0.597393 0)
(0.233025 0.583188 0)
(0.213008 0.572321 0)
(0.193366 0.56454 0)
(0.174083 0.559619 0)
(0.155132 0.557356 0)
(0.136475 0.557563 0)
(0.118058 0.560068 0)
(0.0998195 0.564706 0)
(0.0816847 0.571293 0)
(0.063578 0.579575 0)
(0.0455629 0.589083 0)
(0.0275547 0.598495 0)
(0.0104526 0.597088 0)
(0.445299 0.599651 0)
(0.463659 0.959611 0)
(0.461656 0.971555 0)
(0.463877 0.967466 0)
(0.467504 0.963489 0)
(0.469421 0.962909 0)
(0.470196 0.965067 0)
(0.471954 0.966536 0)
(0.475391 0.974535 0)
(0.476271 0.990472 0)
(0.47379 1.01771 0)
(0.466076 1.06589 0)
(0.447317 1.13217 0)
(0.420765 1.17185 0)
(0.406865 1.15519 0)
(0.401628 1.09965 0)
(0.396343 1.02946 0)
(0.387544 0.959654 0)
(0.375122 0.896315 0)
(0.360005 0.840752 0)
(0.343205 0.792494 0)
(0.325447 0.750699 0)
(0.307164 0.714623 0)
(0.28862 0.683688 0)
(0.269984 0.657424 0)
(0.251378 0.635426 0)
(0.232885 0.617337 0)
(0.214563 0.602842 0)
(0.196451 0.591669 0)
(0.178569 0.583582 0)
(0.160926 0.578368 0)
(0.143512 0.575834 0)
(0.126308 0.575806 0)
(0.109281 0.578123 0)
(0.0923884 0.582629 0)
(0.0755749 0.589147 0)
(0.0587835 0.597429 0)
(0.042085 0.607001 0)
(0.0253919 0.616507 0)
(0.00960784 0.614855 0)
(0.351328 0.487361 0)
(0.448139 0.948837 0)
(0.451155 0.96461 0)
(0.455662 0.961656 0)
(0.460308 0.960085 0)
(0.463819 0.960936 0)
(0.465264 0.96444 0)
(0.466165 0.96957 0)
(0.465758 0.976317 0)
(0.462392 0.994586 0)
(0.453625 1.03064 0)
(0.431022 1.09145 0)
(0.395246 1.16177 0)
(0.367059 1.19026 0)
(0.355964 1.16319 0)
(0.352022 1.10443 0)
(0.347495 1.03606 0)
(0.340213 0.96955 0)
(0.330194 0.909104 0)
(0.318084 0.855575 0)
(0.304548 0.808618 0)
(0.290055 0.767634 0)
(0.274903 0.73206 0)
(0.259293 0.70142 0)
(0.243379 0.675301 0)
(0.227282 0.653334 0)
(0.211102 0.635192 0)
(0.194918 0.620586 0)
(0.178788 0.609263 0)
(0.162756 0.601002 0)
(0.146845 0.595604 0)
(0.131065 0.592889 0)
(0.115415 0.592696 0)
(0.0998795 0.594877 0)
(0.0844336 0.599286 0)
(0.06904 0.605755 0)
(0.0536596 0.614038 0)
(0.0383702 0.623659 0)
(0.0230857 0.633224 0)
(0.00870939 0.63127 0)
(0.148963 0.345622 0)
(0.420228 0.909811 0)
(0.437358 0.948232 0)
(0.445246 0.954832 0)
(0.451251 0.95554 0)
(0.456968 0.957523 0)
(0.459913 0.962677 0)
(0.460419 0.973508 0)
(0.459475 0.986545 0)
(0.452043 1.00393 0)
(0.427301 1.05339 0)
(0.392058 1.13622 0)
(0.348177 1.20014 0)
(0.31871 1.20973 0)
(0.307047 1.1711 0)
(0.302299 1.10917 0)
(0.297942 1.04189 0)
(0.292065 0.977626 0)
(0.284424 0.919259 0)
(0.275274 0.867329 0)
(0.26493 0.821551 0)
(0.25363 0.781444 0)
(0.241551 0.746531 0)
(0.228844 0.716384 0)
(0.215643 0.690614 0)
(0.202075 0.668877 0)
(0.188249 0.650867 0)
(0.17426 0.636316 0)
(0.160183 0.624989 0)
(0.146076 0.616678 0)
(0.131979 0.611202 0)
(0.117919 0.608394 0)
(0.10391 0.608107 0)
(0.089954 0.610208 0)
(0.076042 0.614559 0)
(0.0621535 0.621001 0)
(0.0482664 0.629288 0)
(0.0344655 0.63894 0)
(0.0206693 0.648522 0)
(0.00777558 0.6462 0)
(-0.00958723 0.200845 0)
(0.189537 0.607839 0)
(0.412216 0.914731 0)
(0.428238 0.943651 0)
(0.43572 0.949883 0)
(0.443275 0.953263 0)
(0.448113 0.960001 0)
(0.449274 0.973472 0)
(0.449423 0.995489 0)
(0.443338 1.01997 0)
(0.403741 1.08015 0)
(0.337314 1.19078 0)
(0.294181 1.2426 0)
(0.26631 1.23103 0)
(0.25412 1.1802 0)
(0.249227 1.1142 0)
(0.245911 1.04675 0)
(0.242128 0.983611 0)
(0.237305 0.926594 0)
(0.231349 0.875919 0)
(0.224298 0.831246 0)
(0.216225 0.792098 0)
(0.207229 0.758002 0)
(0.197431 0.728531 0)
(0.186962 0.703301 0)
(0.175951 0.681979 0)
(0.16452 0.664273 0)
(0.152777 0.649932 0)
(0.140811 0.638737 0)
(0.128693 0.630498 0)
(0.116479 0.625046 0)
(0.104211 0.622233 0)
(0.0919164 0.621926 0)
(0.0796131 0.624003 0)
(0.0673069 0.628337 0)
(0.0549933 0.634775 0)
(0.0426671 0.643073 0)
(0.0304193 0.652742 0)
(0.018176 0.662303 0)
(0.00682143 0.659559 0)
(-0.128758 0.0679223 0)
(0.0159067 0.382531 0)
(0.310197 0.761493 0)
(0.397316 0.913399 0)
(0.411568 0.938361 0)
(0.418613 0.949309 0)
(0.424602 0.959196 0)
(0.426803 0.975492 0)
(0.42746 1.00546 0)
(0.424828 1.05011 0)
(0.351235 1.13161 0)
(0.248493 1.25323 0)
(0.221347 1.28303 0)
(0.201707 1.25021 0)
(0.192806 1.18792 0)
(0.190553 1.11759 0)
(0.190232 1.04923 0)
(0.189797 0.986557 0)
(0.188555 0.930528 0)
(0.186219 0.881007 0)
(0.182684 0.837505 0)
(0.177953 0.799467 0)
(0.172101 0.766377 0)
(0.165251 0.737779 0)
(0.157544 0.713282 0)
(0.149125 0.692556 0)
(0.140128 0.675321 0)
(0.130674 0.66134 0)
(0.120865 0.650411 0)
(0.110788 0.64236 0)
(0.100511 0.637036 0)
(0.09009 0.634307 0)
(0.0795669 0.634053 0)
(0.0689724 0.636165 0)
(0.0583267 0.640526 0)
(0.0476409 0.646986 0)
(0.0369264 0.655302 0)
(0.0262797 0.664975 0)
(0.015637 0.674483 0)
(0.00585898 0.671281 0)
(-0.312776 -0.117624 0)
(-0.147669 0.195436 0)
(0.043865 0.503243 0)
(0.309761 0.816219 0)
(0.368796 0.909718 0)
(0.381392 0.938235 0)
(0.386751 0.955147 0)
(0.386558 0.975316 0)
(0.37794 1.02037 0)
(0.378199 1.11173 0)
(0.314097 1.22859 0)
(0.150819 1.32139 0)
(0.137902 1.31777 0)
(0.127086 1.26333 0)
(0.12361 1.19097 0)
(0.126433 1.11678 0)
(0.130928 1.04749 0)
(0.135124 0.985262 0)
(0.138272 0.930308 0)
(0.14003 0.882132 0)
(0.140276 0.840043 0)
(0.139031 0.80337 0)
(0.136405 0.771529 0)
(0.132553 0.744029 0)
(0.127645 0.720471 0)
(0.121847 0.700525 0)
(0.115312 0.683926 0)
(0.108177 0.670453 0)
(0.100559 0.659922 0)
(0.0925567 0.652178 0)
(0.0842533 0.647086 0)
(0.0757168 0.64453 0)
(0.0670022 0.644406 0)
(0.0581531 0.646614 0)
(0.0492035 0.651046 0)
(0.0401796 0.657556 0)
(0.0311088 0.665899 0)
(0.0220928 0.675567 0)
(0.0130795 0.684994 0)
(0.00489679 0.681312 0)
(-0.586494 -0.301931 0)
(-0.410186 -0.0139554 0)
(-0.219606 0.283444 0)
(0.0060031 0.574654 0)
(0.242826 0.845173 0)
(0.320536 0.915878 0)
(0.333462 0.947566 0)
(0.322733 0.972866 0)
(0.28251 1.02295 0)
(0.250542 1.17084 0)
(0.216227 1.35522 0)
(0.0606498 1.40775 0)
(0.0461494 1.35058 0)
(0.0426226 1.27059 0)
(0.0472315 1.18764 0)
(0.0574416 1.10973 0)
(0.068547 1.03988 0)
(0.0785952 0.978561 0)
(0.0868865 0.92518 0)
(0.0931715 0.87882 0)
(0.0974365 0.838564 0)
(0.0998071 0.803616 0)
(0.100476 0.773327 0)
(0.099659 0.747184 0)
(0.0975695 0.724784 0)
(0.0944055 0.705811 0)
(0.0903438 0.690017 0)
(0.0855386 0.677202 0)
(0.0801229 0.667203 0)
(0.0742097 0.659884 0)
(0.0678948 0.65513 0)
(0.0612584 0.652839 0)
(0.054368 0.652922 0)
(0.0472798 0.65529 0)
(0.0400411 0.65984 0)
(0.0326931 0.66643 0)
(0.0252785 0.674812 0)
(0.0179034 0.684468 0)
(0.0105285 0.693791 0)
(0.00394197 0.689617 0)
(-0.848423 -0.414604 0)
(-0.74881 -0.203309 0)
(-0.595994 0.0577719 0)
(-0.409353 0.326406 0)
(-0.19745 0.589472 0)
(0.022332 0.831884 0)
(0.141135 0.934845 0)
(0.118961 0.999647 0)
(0.0677154 1.05642 0)
(0.020102 1.20743 0)
(-0.0405086 1.43498 0)
(-0.101248 1.45712 0)
(-0.0778318 1.36246 0)
(-0.0597363 1.2631 0)
(-0.038486 1.1726 0)
(-0.01636 1.09312 0)
(0.00381782 1.02434 0)
(0.0210307 0.965222 0)
(0.0351417 0.914421 0)
(0.0462825 0.870653 0)
(0.0547175 0.83282 0)
(0.0607655 0.800051 0)
(0.0647466 0.771671 0)
(0.0669603 0.74717 0)
(0.0676759 0.726164 0)
(0.067129 0.708363 0)
(0.065523 0.693547 0)
(0.0630319 0.681542 0)
(0.0598048 0.67221 0)
(0.0559687 0.665436 0)
(0.0516319 0.661126 0)
(0.0468869 0.659194 0)
(0.0418128 0.659563 0)
(0.0364784 0.662154 0)
(0.0309439 0.66687 0)
(0.0252649 0.673569 0)
(0.0194992 0.682004 0)
(0.0137554 0.691646 0)
(0.00800774 0.700847 0)
(0.00300121 0.696177 0)
(-1.03158 -0.43551 0)
(-1.0242 -0.284212 0)
(-0.964901 -0.0886131 0)
(-0.863885 0.136942 0)
(-0.740555 0.380996 0)
(-0.596808 0.631187 0)
(-0.442493 0.863223 0)
(-0.386816 1.03192 0)
(-0.370824 1.15435 0)
(-0.360426 1.27858 0)
(-0.377678 1.43453 0)
(-0.304306 1.41938 0)
(-0.2281 1.3242 0)
(-0.173858 1.22547 0)
(-0.129319 1.13798 0)
(-0.0918529 1.06276 0)
(-0.0610363 0.998676 0)
(-0.0359729 0.944112 0)
(-0.0157923 0.897469 0)
(0.000262086 0.857361 0)
(0.0128437 0.822688 0)
(0.0225121 0.792617 0)
(0.0297372 0.766531 0)
(0.0349126 0.743969 0)
(0.0383679 0.724596 0)
(0.0403781 0.708168 0)
(0.0411728 0.694502 0)
(0.0409458 0.683459 0)
(0.0398616 0.674928 0)
(0.0380606 0.668821 0)
(0.0356635 0.665061 0)
(0.0327743 0.663581 0)
(0.029484 0.664314 0)
(0.025873 0.667191 0)
(0.0220145 0.67212 0)
(0.0179776 0.678961 0)
(0.0138336 0.687464 0)
(0.00969178 0.697092 0)
(0.00553599 0.70616 0)
(0.00207722 0.700989 0)
(-1.11088 -0.388214 0)
(-1.15914 -0.272659 0)
(-1.17865 -0.120795 0)
(-1.16449 0.0621748 0)
(-1.12133 0.267169 0)
(-1.05057 0.491956 0)
(-0.949874 0.72885 0)
(-0.860745 0.936521 0)
(-0.786838 1.09887 0)
(-0.715149 1.23976 0)
(-0.610651 1.32603 0)
(-0.473469 1.30558 0)
(-0.3609 1.23327 0)
(-0.277737 1.15438 0)
(-0.213153 1.08165 0)
(-0.162331 1.01773 0)
(-0.122078 0.962575 0)
(-0.0899854 0.915181 0)
(-0.0643107 0.874346 0)
(-0.0437539 0.838984 0)
(-0.0273286 0.808215 0)
(-0.0142719 0.781374 0)
(-0.00398593 0.757969 0)
(0.00400212 0.737639 0)
(0.010071 0.720131 0)
(0.0145274 0.705266 0)
(0.0176242 0.692917 0)
(0.0195721 0.682982 0)
(0.0205496 0.675385 0)
(0.0207095 0.670062 0)
(0.020184 0.666955 0)
(0.0190883 0.666015 0)
(0.0175243 0.667188 0)
(0.0155838 0.670411 0)
(0.0133523 0.675598 0)
(0.0109112 0.682612 0)
(0.00834335 0.6912 0)
(0.00575549 0.700822 0)
(0.003127 0.709761 0)
(0.00116762 0.704033 0)
(-1.10705 -0.311124 0)
(-1.17212 -0.213149 0)
(-1.22143 -0.0871937 0)
(-1.2487 0.0652643 0)
(-1.24952 0.240014 0)
(-1.22114 0.431365 0)
(-1.15987 0.630769 0)
(-1.07398 0.817731 0)
(-0.971715 0.974267 0)
(-0.852182 1.09227 0)
(-0.711522 1.15692 0)
(-0.567506 1.15384 0)
(-0.447909 1.11387 0)
(-0.35391 1.06243 0)
(-0.280026 1.01027 0)
(-0.221807 0.961735 0)
(-0.175582 0.918228 0)
(-0.138582 0.879783 0)
(-0.108751 0.845933 0)
(-0.0845659 0.816107 0)
(-0.0648896 0.78979 0)
(-0.0488631 0.766572 0)
(-0.0358274 0.746147 0)
(-0.0252707 0.728294 0)
(-0.0167889 0.712861 0)
(-0.0100562 0.699744 0)
(-0.00480513 0.688872 0)
(-0.000812836 0.68019 0)
(0.0021097 0.673652 0)
(0.00412503 0.669221 0)
(0.0053748 0.666864 0)
(0.00598441 0.666547 0)
(0.00606618 0.668227 0)
(0.00572273 0.671851 0)
(0.00505023 0.677338 0)
(0.00414156 0.684552 0)
(0.00308977 0.693241 0)
(0.00200005 0.702859 0)
(0.000758838 0.711659 0)
(0.000204077 0.705424 0)
(-1.05592 -0.232834 0)
(-1.11716 -0.145389 0)
(-1.16735 -0.0363778 0)
(-1.20114 0.0930285 0)
(-1.21345 0.239898 0)
(-1.19944 0.399297 0)
(-1.15504 0.56248 0)
(-1.08039 0.715149 0)
(-0.980596 0.844071 0)
(-0.861295 0.940183 0)
(-0.730418 0.994922 0)
(-0.603109 1.00775 0)
(-0.492912 0.993524 0)
(-0.401873 0.966048 0)
(-0.327958 0.933564 0)
(-0.26819 0.900555 0)
(-0.219748 0.869123 0)
(-0.180267 0.840077 0)
(-0.147883 0.813605 0)
(-0.121159 0.789639 0)
(-0.0989985 0.768039 0)
(-0.0805638 0.748665 0)
(-0.0652061 0.73141 0)
(-0.0524186 0.716201 0)
(-0.041799 0.702993 0)
(-0.0330208 0.691762 0)
(-0.025814 0.682495 0)
(-0.0199512 0.675182 0)
(-0.015238 0.669813 0)
(-0.0115055 0.666377 0)
(-0.00860452 0.664859 0)
(-0.00640134 0.66524 0)
(-0.00477486 0.66749 0)
(-0.0036134 0.671564 0)
(-0.00281165 0.677386 0)
(-0.00226808 0.684826 0)
(-0.00188326 0.693636 0)
(-0.00155322 0.703286 0)
(-0.00154053 0.712225 0)
(-0.000796665 0.704819 0)
(-0.984993 -0.165407 0)
(-1.03532 -0.086514 0)
(-1.07651 0.00857887 0)
(-1.10424 0.118506 0)
(-1.11417 0.240639 0)
(-1.10218 0.370694 0)
(-1.06511 0.501776 0)
(-1.00273 0.624312 0)
(-0.918402 0.728831 0)
(-0.818078 0.808365 0)
(-0.710084 0.859151 0)
(-0.604841 0.882187 0)
(-0.510075 0.88493 0)
(-0.428465 0.875141 0)
(-0.359699 0.858596 0)
(-0.302299 0.83899 0)
(-0.254477 0.81848 0)
(-0.214548 0.79823 0)
(-0.181071 0.77884 0)
(-0.152876 0.760611 0)
(-0.129033 0.743701 0)
(-0.108808 0.728201 0)
(-0.0916202 0.714182 0)
(-0.077004 0.701701 0)
(-0.064583 0.690812 0)
(-0.0540462 0.681565 0)
(-0.0451317 0.674 0)
(-0.0376153 0.66815 0)
(-0.0313021 0.664035 0)
(-0.0260206 0.661669 0)
(-0.0216174 0.661057 0)
(-0.0179537 0.662194 0)
(-0.0149023 0.665062 0)
(-0.0123449 0.669624 0)
(-0.0101699 0.675813 0)
(-0.0082703 0.683502 0)
(-0.00654425 0.692455 0)
(-0.00489569 0.702196 0)
(-0.0036951 0.711502 0)
(-0.00174731 0.702272 0)
(-0.910202 -0.111616 0)
(-0.948704 -0.0403821 0)
(-0.979295 0.0427932 0)
(-0.998657 0.136406 0)
(-1.00349 0.238064 0)
(-0.990867 0.344178 0)
(-0.95892 0.449658 0)
(-0.907748 0.54817 0)
(-0.839927 0.633618 0)
(-0.760111 0.701399 0)
(-0.674495 0.749229 0)
(-0.589732 0.777913 0)
(-0.510902 0.791236 0)
(-0.44047 0.793667 0)
(-0.378994 0.788994 0)
(-0.325992 0.780006 0)
(-0.280533 0.76859 0)
(-0.241578 0.755972 0)
(-0.208152 0.742941 0)
(-0.179405 0.730012 0)
(-0.154624 0.71754 0)
(-0.133222 0.705786 0)
(-0.114714 0.694951 0)
(-0.0987017 0.685198 0)
(-0.0848509 0.67666 0)
(-0.0728776 0.669444 0)
(-0.0625366 0.663639 0)
(-0.0536134 0.659309 0)
(-0.0459176 0.656506 0)
(-0.0392793 0.655264 0)
(-0.0335444 0.655605 0)
(-0.0285722 0.657539 0)
(-0.0242329 0.661059 0)
(-0.0204046 0.666139 0)
(-0.0169721 0.672715 0)
(-0.013826 0.680671 0)
(-0.0108647 0.689791 0)
(-0.00800277 0.69967 0)
(-0.00563448 0.7094 0)
(-0.00256393 0.698057 0)
(-0.839327 -0.0705762 0)
(-0.867589 -0.00628913 0)
(-0.888988 0.0666752 0)
(-0.901097 0.146853 0)
(-0.901595 0.232159 0)
(-0.888614 0.319749 0)
(-0.861142 0.405968 0)
(-0.819523 0.486644 0)
(-0.765688 0.55782 0)
(-0.702943 0.616539 0)
(-0.635487 0.661327 0)
(-0.567621 0.692525 0)
(-0.502767 0.712058 0)
(-0.442965 0.722457 0)
(-0.389077 0.726135 0)
(-0.341189 0.725088 0)
(-0.298957 0.72084 0)
(-0.261849 0.714514 0)
(-0.229286 0.706931 0)
(-0.200716 0.698699 0)
(-0.17564 0.690277 0)
(-0.153624 0.682027 0)
(-0.134292 0.674235 0)
(-0.117319 0.667135 0)
(-0.102421 0.660916 0)
(-0.0893479 0.655728 0)
(-0.0778771 0.651694 0)
(-0.0678088 0.648907 0)
(-0.0589621 0.64744 0)
(-0.0511725 0.647347 0)
(-0.0442895 0.648666 0)
(-0.0381737 0.65142 0)
(-0.0326956 0.655613 0)
(-0.027733 0.661225 0)
(-0.0231698 0.668202 0)
(-0.0188959 0.676438 0)
(-0.0148109 0.685738 0)
(-0.0108397 0.695776 0)
(-0.00733767 0.705886 0)
(-0.00322406 0.692415 0)
(-0.775237 -0.0400534 0)
(-0.795497 0.0179584 0)
(-0.80986 0.082268 0)
(-0.816609 0.151521 0)
(-0.814184 0.223975 0)
(-0.801451 0.297454 0)
(-0.777923 0.369364 0)
(-0.74401 0.436902 0)
(-0.701117 0.497478 0)
(-0.651505 0.549131 0)
(-0.597953 0.590841 0)
(-0.543279 0.622647 0)
(-0.489829 0.645496 0)
(-0.439208 0.66081 0)
(-0.392312 0.670102 0)
(-0.349501 0.674755 0)
(-0.31079 0.675946 0)
(-0.275993 0.674628 0)
(-0.24483 0.671566 0)
(-0.216985 0.667375 0)
(-0.192146 0.66255 0)
(-0.170015 0.657496 0)
(-0.150315 0.652543 0)
(-0.132794 0.647963 0)
(-0.117219 0.643977 0)
(-0.103378 0.640765 0)
(-0.0910723 0.638471 0)
(-0.0801218 0.637209 0)
(-0.0703587 0.63707 0)
(-0.0616278 0.638124 0)
(-0.0537854 0.640423 0)
(-0.046697 0.643999 0)
(-0.040236 0.648867 0)
(-0.0342825 0.655014 0)
(-0.0287218 0.662396 0)
(-0.023445 0.670914 0)
(-0.0183524 0.680398 0)
(-0.0133788 0.690589 0)
(-0.0088145 0.700994 0)
(-0.00374867 0.685544 0)
(-0.718051 -0.017566 0)
(-0.732431 0.0348522 0)
(-0.741778 0.0918595 0)
(-0.744899 0.152267 0)
(-0.740773 0.214656 0)
(-0.728732 0.277375 0)
(-0.708578 0.338566 0)
(-0.680695 0.396312 0)
(-0.646093 0.448864 0)
(-0.606301 0.494886 0)
(-0.563164 0.533616 0)
(-0.518558 0.564936 0)
(-0.474122 0.589282 0)
(-0.431093 0.607443 0)
(-0.390291 0.62036 0)
(-0.352183 0.628984 0)
(-0.316974 0.634196 0)
(-0.284694 0.636772 0)
(-0.255266 0.637384 0)
(-0.228549 0.636601 0)
(-0.204369 0.634908 0)
(-0.182541 0.63271 0)
(-0.162873 0.63035 0)
(-0.145176 0.628111 0)
(-0.129266 0.626229 0)
(-0.114966 0.624896 0)
(-0.102106 0.624272 0)
(-0.0905256 0.624483 0)
(-0.0800737 0.625635 0)
(-0.0706077 0.627808 0)
(-0.0619933 0.631064 0)
(-0.0541036 0.635447 0)
(-0.0468175 0.640977 0)
(-0.0400194 0.647651 0)
(-0.0335981 0.655428 0)
(-0.0274467 0.664221 0)
(-0.0214677 0.67388 0)
(-0.015604 0.684202 0)
(-0.0100776 0.694813 0)
(-0.00416351 0.677618 0)
(-0.666705 -0.000975621 0)
(-0.676911 0.0465059 0)
(-0.682834 0.0973619 0)
(-0.683652 0.150579 0)
(-0.678698 0.205019 0)
(-0.667587 0.259423 0)
(-0.650263 0.312442 0)
(-0.627057 0.362722 0)
(-0.598689 0.409047 0)
(-0.566206 0.450466 0)
(-0.53085 0.486392 0)
(-0.493904 0.516637 0)
(-0.456534 0.541371 0)
(-0.419695 0.561027 0)
(-0.384096 0.576191 0)
(-0.350217 0.587513 0)
(-0.318351 0.595647 0)
(-0.288648 0.601209 0)
(-0.261155 0.604764 0)
(-0.235846 0.606815 0)
(-0.21265 0.607805 0)
(-0.191463 0.608117 0)
(-0.172161 0.608079 0)
(-0.154607 0.60797 0)
(-0.13866 0.608026 0)
(-0.124177 0.608444 0)
(-0.111016 0.609387 0)
(-0.0990391 0.610991 0)
(-0.0881119 0.613369 0)
(-0.0781067 0.616609 0)
(-0.0689011 0.620783 0)
(-0.0603771 0.62594 0)
(-0.0524216 0.632107 0)
(-0.0449246 0.639284 0)
(-0.0377801 0.647438 0)
(-0.0308847 0.65649 0)
(-0.0241438 0.666306 0)
(-0.017508 0.676729 0)
(-0.0111361 0.687462 0)
(-0.0044879 0.668794 0)
(-0.619886 0.0113505 0)
(-0.627163 0.0545052 0)
(-0.630803 0.100165 0)
(-0.630231 0.147486 0)
(-0.625006 0.195557 0)
(-0.614904 0.243413 0)
(-0.599937 0.290051 0)
(-0.580375 0.334489 0)
(-0.556739 0.375848 0)
(-0.529756 0.413428 0)
(-0.50029 0.446764 0)
(-0.469242 0.475652 0)
(-0.437463 0.500126 0)
(-0.405695 0.52042 0)
(-0.374533 0.536902 0)
(-0.344429 0.550017 0)
(-0.3157 0.560248 0)
(-0.28855 0.568078 0)
(-0.263096 0.573968 0)
(-0.239383 0.578347 0)
(-0.217404 0.581603 0)
(-0.197114 0.584081 0)
(-0.17844 0.586085 0)
(-0.161288 0.587877 0)
(-0.145554 0.589683 0)
(-0.131125 0.591697 0)
(-0.117885 0.594081 0)
(-0.105719 0.596975 0)
(-0.0945104 0.600495 0)
(-0.0841476 0.604735 0)
(-0.0745205 0.609769 0)
(-0.0655218 0.615653 0)
(-0.057047 0.622418 0)
(-0.0489936 0.630067 0)
(-0.0412615 0.638571 0)
(-0.0337525 0.647857 0)
(-0.0263758 0.657806 0)
(-0.0190895 0.668296 0)
(-0.011997 0.679077 0)
(-0.00473469 0.659215 0)
(-0.576476 0.0205783 0)
(-0.581687 0.0599585 0)
(-0.583806 0.101216 0)
(-0.582426 0.143655 0)
(-0.577248 0.186547 0)
(-0.568138 0.229141 0)
(-0.555137 0.270677 0)
(-0.538459 0.310423 0)
(-0.518487 0.347724 0)
(-0.495743 0.382049 0)
(-0.470843 0.413026 0)
(-0.444441 0.440457 0)
(-0.417175 0.464316 0)
(-0.389625 0.484722 0)
(-0.362285 0.501908 0)
(-0.335558 0.516183 0)
(-0.309749 0.527902 0)
(-0.28508 0.537437 0)
(-0.261697 0.54516 0)
(-0.239683 0.551427 0)
(-0.219073 0.556569 0)
(-0.19986 0.560887 0)
(-0.182008 0.564654 0)
(-0.165458 0.56811 0)
(-0.150135 0.571466 0)
(-0.135955 0.574906 0)
(-0.122825 0.578591 0)
(-0.11065 0.582657 0)
(-0.0993325 0.58722 0)
(-0.0887764 0.592376 0)
(-0.0788842 0.598203 0)
(-0.0695599 0.604757 0)
(-0.0607082 0.612071 0)
(-0.0522351 0.620151 0)
(-0.0440475 0.628971 0)
(-0.0360531 0.638462 0)
(-0.028166 0.648516 0)
(-0.0203519 0.659037 0)
(-0.0126662 0.6698 0)
(-0.00491148 0.649025 0)
(-0.535703 0.0275237 0)
(-0.539421 0.0636237 0)
(-0.540512 0.10114 0)
(-0.538679 0.139502 0)
(-0.533711 0.178123 0)
(-0.525528 0.216413 0)
(-0.514178 0.253785 0)
(-0.499832 0.289682 0)
(-0.482776 0.323603 0)
(-0.463394 0.355138 0)
(-0.442139 0.383985 0)
(-0.419499 0.40997 0)
(-0.395961 0.433037 0)
(-0.371983 0.453242 0)
(-0.347973 0.470733 0)
(-0.324276 0.485726 0)
(-0.301171 0.49848 0)
(-0.278873 0.509281 0)
(-0.257534 0.518424 0)
(-0.237256 0.526199 0)
(-0.218095 0.532884 0)
(-0.200071 0.538738 0)
(-0.183174 0.544 0)
(-0.16737 0.548887 0)
(-0.152611 0.553591 0)
(-0.138834 0.558285 0)
(-0.125968 0.563122 0)
(-0.113937 0.568233 0)
(-0.102661 0.573732 0)
(-0.0920576 0.579714 0)
(-0.0820419 0.586256 0)
(-0.072529 0.593414 0)
(-0.0634336 0.601221 0)
(-0.0546703 0.609686 0)
(-0.0461538 0.618782 0)
(-0.0377979 0.628445 0)
(-0.0295231 0.638573 0)
(-0.0213024 0.64909 0)
(-0.0131506 0.659775 0)
(-0.00502318 0.63836 0)
(-0.497108 0.0327555 0)
(-0.499724 0.0660117 0)
(-0.500103 0.100341 0)
(-0.498028 0.135273 0)
(-0.493347 0.170333 0)
(-0.48601 0.205053 0)
(-0.476065 0.238974 0)
(-0.463646 0.271663 0)
(-0.448971 0.302733 0)
(-0.43233 0.331862 0)
(-0.414065 0.358806 0)
(-0.394546 0.383413 0)
(-0.37415 0.405619 0)
(-0.353242 0.425444 0)
(-0.332154 0.44298 0)
(-0.311179 0.458378 0)
(-0.29056 0.471829 0)
(-0.270492 0.483549 0)
(-0.251126 0.493772 0)
(-0.232565 0.502731 0)
(-0.214877 0.510656 0)
(-0.198098 0.51777 0)
(-0.182236 0.524278 0)
(-0.167277 0.530373 0)
(-0.153192 0.536231 0)
(-0.139937 0.542008 0)
(-0.12746 0.547849 0)
(-0.115701 0.553876 0)
(-0.104594 0.5602 0)
(-0.0940698 0.566912 0)
(-0.0840564 0.574086 0)
(-0.0744794 0.581777 0)
(-0.0652631 0.590018 0)
(-0.0563307 0.598817 0)
(-0.0476046 0.608146 0)
(-0.0390061 0.617945 0)
(-0.0304617 0.628116 0)
(-0.0219523 0.638595 0)
(-0.0134588 0.649152 0)
(-0.00507448 0.627355 0)
(-0.460448 0.0366706 0)
(-0.462234 0.0674637 0)
(-0.462117 0.0990698 0)
(-0.459933 0.1311 0)
(-0.45557 0.163168 0)
(-0.449 0.194899 0)
(-0.440263 0.225931 0)
(-0.429467 0.255923 0)
(-0.41678 0.284572 0)
(-0.402424 0.311622 0)
(-0.386661 0.336877 0)
(-0.369776 0.360204 0)
(-0.352065 0.381541 0)
(-0.333816 0.400887 0)
(-0.315302 0.418298 0)
(-0.296763 0.433879 0)
(-0.27841 0.44777 0)
(-0.260415 0.460136 0)
(-0.242916 0.471158 0)