/*--------------------------------*- C++ -*----------------------------------*\
| =========                 |                                                 |
| \\      /  F ield         | OpenFOAM: The Open Source CFD Toolbox           |
|  \\    /   O peration     | Version:  5.0                                   |
|   \\  /    A nd           | Web:      www.OpenFOAM.org                      |
|    \\/     M anipulation  |                                                 |
\*---------------------------------------------------------------------------*/
FoamFile
{
    version     2.0;
    format      ascii;
    class       surfaceScalarField;
    location    "0.45";
    object      alphaPhi10;
}
// * * * * * * * * * * * * * * * * * * * * * * * * * * * * * * * * * * * * * //

dimensions      [0 3 -1 0 0 0 0];

internalField   nonuniform List<scalar> 
3731
(
-1.00251e-05
-4.59475e-06
-1.00248e-05
-6.5188e-06
-3.91019e-06
-1.65422e-05
-5.58566e-07
-1.11188e-06
-1.70969e-05
3.50423e-06
3.49254e-06
-1.35733e-05
6.4875e-06
9.35565e-06
-7.07238e-06
8.78974e-06
1.6179e-05
1.71736e-06
1.09451e-05
2.39316e-05
1.26623e-05
1.38621e-05
3.22913e-05
2.65245e-05
1.84969e-05
4.06008e-05
4.50216e-05
2.56704e-05
4.77531e-05
7.06919e-05
1.66784e-29
-8.15762e-29
1.27163e-29
3.77452e-29
-1.20927e-29
7.02086e-29
-1.25166e-30
8.34111e-30
-7.09738e-32
3.16285e-31
-2.86694e-33
8.80075e-33
-8.16931e-34
1.95313e-34
-2.58689e-33
1.46281e-35
-3.60637e-32
-2.13631e-33
-1.82485e-31
-3.13266e-32
-4.31376e-31
-1.55523e-31
-5.88731e-31
-4.07768e-31
-4.6717e-31
-7.0193e-31
-2.29466e-31
-8.98158e-31
8.04566e-32
-1.03421e-30
3.11644e-31
-9.1505e-31
3.86737e-31
-6.75863e-31
3.05869e-31
-4.04188e-31
1.66068e-31
-1.8927e-31
5.95298e-32
-6.52502e-32
1.33083e-32
-1.55667e-32
1.6345e-33
-2.3134e-33
9.99939e-35
-1.84902e-34
4.84313e-36
-8.9715e-36
2.2783e-37
-2.56092e-37
6.97043e-39
-8.00948e-39
1.94747e-39
-2.00867e-41
5.77322e-40
2.31162e-41
3.17769e-41
6.53718e-42
1.17773e-42
5.77727e-43
5.46248e-44
4.12938e-44
2.3703e-45
2.65058e-45
8.52615e-47
1.39724e-46
2.45702e-48
6.0502e-48
5.36169e-50
2.13524e-49
8.11336e-52
5.73393e-51
7.40139e-54
1.08253e-52
3.18283e-56
1.24746e-54
3.85384e-59
6.76085e-57
1.00159e-59
-4.87198e-29
-3.559e-27
-4.43231e-28
2.38002e-27
-1.65234e-28
1.29006e-27
-2.18641e-29
1.88291e-28
-2.49563e-30
1.34551e-29
-2.29783e-31
8.62482e-31
-1.91756e-31
5.73384e-32
-6.03861e-31
2.88757e-33
-7.12519e-30
-7.39529e-31
-3.26628e-29
-9.15283e-30
-7.56641e-29
-4.26044e-29
-1.07785e-28
-1.10686e-28
-9.60784e-29
-1.95762e-28
-5.49228e-29
-2.58741e-28
1.40788e-30
-2.96116e-28
4.37354e-29
-2.54814e-28
5.34124e-29
-1.76521e-28
3.99225e-29
-9.84606e-29
2.06099e-29
-4.33148e-29
7.23647e-30
-1.4317e-29
1.65294e-30
-3.36204e-30
2.25884e-31
-5.21612e-31
1.71036e-32
-4.83899e-32
8.20719e-34
-2.47262e-33
2.98397e-35
-8.44098e-35
1.20818e-36
-1.81676e-36
1.28518e-37
-2.43521e-38
3.0811e-38
4.32803e-39
3.63541e-39
1.92792e-39
1.47442e-40
2.28385e-40
6.66982e-42
1.76669e-41
2.94924e-43
1.16103e-42
1.09486e-44
6.3444e-44
3.26333e-46
2.85811e-45
7.41276e-48
1.03569e-46
1.17757e-49
2.86773e-48
1.13994e-51
5.59438e-50
5.3045e-54
6.70861e-52
7.40034e-57
3.84934e-54
6.72118e-57
-1.32338e-26
1.40109e-27
-1.01209e-26
4.99484e-26
-3.27433e-27
2.12627e-26
-5.95328e-28
3.97858e-27
-1.0713e-28
4.41248e-28
-1.70186e-29
4.72045e-29
-1.7513e-29
5.30649e-30
-6.39575e-29
-6.30531e-31
-6.44992e-28
-1.04282e-28
-2.69042e-27
-1.09787e-27
-5.97548e-27
-4.74478e-27
-8.54299e-27
-1.19466e-26
-7.97535e-27
-2.11007e-26
-4.63062e-27
-2.80695e-26
-2.81785e-28
-3.13651e-26
2.93516e-27
-2.64034e-26
3.57323e-27
-1.76434e-26
2.59058e-27
-9.47912e-27
1.29867e-27
-4.0313e-27
4.49613e-28
-1.3019e-27
1.0427e-28
-3.04248e-28
1.53911e-29
-4.87475e-29
1.32235e-30
-4.96697e-30
6.64964e-32
-2.73211e-31
2.82318e-33
-1.09069e-32
1.04649e-34
-2.68566e-34
7.89079e-36
-4.23022e-36
1.47441e-36
2.6295e-37
1.79704e-37
1.33307e-37
7.93216e-39
1.70369e-38
3.52642e-40
1.34195e-39
1.51699e-41
8.68763e-41
5.53015e-43
4.68437e-42
1.62487e-44
2.07852e-43
3.63643e-46
7.38118e-45
5.64575e-48
1.99094e-46
5.54598e-50
3.72603e-48
3.19646e-52
4.84753e-50
7.62609e-55
3.45847e-52
7.89009e-55
-1.96184e-25
6.05109e-25
-1.43221e-25
6.74425e-25
-5.33135e-26
2.93783e-25
-1.37249e-26
6.89997e-26
-3.75502e-27
1.15806e-26
-1.04882e-27
1.96677e-27
-1.0831e-27
3.29213e-28
-4.68399e-27
-1.67344e-28
-3.90552e-26
-9.11896e-27
-1.46091e-25
-8.05558e-26
-3.05752e-25
-3.1881e-25
-4.25001e-25
-7.64505e-25
-4.04404e-25
-1.31611e-24
-2.26512e-25
-1.74445e-24
-2.04815e-26
-1.88472e-24
1.2867e-25
-1.55772e-24
1.55734e-25
-1.01767e-24
1.11233e-25
-5.36194e-25
5.50216e-26
-2.24415e-25
1.89859e-26
-7.18334e-26
4.47921e-27
-1.68614e-26
6.96573e-28
-2.77645e-27
6.61593e-29
-3.00316e-28
3.74156e-30
-1.93006e-29
1.72922e-31
-8.16208e-31
6.83131e-33
-2.32784e-32
3.98542e-34
-4.16874e-34
5.25335e-35
1.07638e-35
6.59787e-36
6.30827e-36
3.15329e-37
8.47565e-37
1.36534e-38
6.69523e-38
5.69454e-40
4.25221e-39
2.02568e-41
2.24601e-40
5.78817e-43
9.71969e-42
1.23876e-44
3.33226e-43
1.98388e-46
8.46524e-45
2.59625e-48
1.86911e-46
1.77116e-50
2.83593e-48
6.30293e-53
2.38146e-50
6.57034e-53
-1.95461e-24
8.11612e-24
-1.73516e-24
7.43782e-24
-7.77835e-25
3.75491e-24
-2.63485e-25
1.06309e-24
-1.00275e-25
2.44377e-25
-4.6795e-26
5.98995e-26
-5.03902e-26
1.3403e-26
-2.62518e-25
-1.82223e-26
-1.77616e-24
-5.68492e-25
-5.87923e-24
-4.15336e-24
-1.14817e-23
-1.48788e-23
-1.51493e-23
-3.37026e-23
-1.42823e-23
-5.57632e-23
-7.69112e-24
-7.32427e-23
-6.56808e-25
-7.62984e-23
4.22602e-24
-6.20367e-23
5.02821e-24
-4.00161e-23
3.56413e-24
-2.09363e-23
1.75757e-24
-8.73257e-24
6.09681e-25
-2.80082e-24
1.46759e-25
-6.65434e-25
2.37805e-26
-1.12469e-25
2.47669e-27
-1.28358e-26
1.63094e-28
-9.454e-28
7.62197e-30
-4.07225e-29
3.34282e-31
-1.33972e-30
1.71569e-32
-2.73807e-32
1.72318e-33
3.22913e-34
2.09142e-34
2.43675e-34
1.03198e-35
3.31978e-35
4.39186e-37
2.60863e-36
1.78363e-38
1.62835e-37
6.15353e-40
8.40446e-39
1.67697e-41
3.51929e-40
3.69556e-43
1.13889e-41
7.57051e-45
3.40989e-43
1.05883e-46
8.24546e-45
8.00013e-49
1.36323e-46
3.98846e-51
1.29216e-48
4.17794e-51
-1.42421e-23
6.37613e-23
-1.56606e-23
6.1773e-23
-8.0196e-24
3.54315e-23
-3.39207e-24
1.117e-23
-1.68125e-24
3.3315e-24
-1.21709e-24
1.09828e-24
-1.57472e-24
2.85142e-25
-1.1617e-23
-1.29154e-24
-6.37344e-23
-2.68316e-23
-1.84926e-22
-1.64508e-22
-3.35801e-22
-5.35343e-22
-4.16461e-22
-1.14884e-21
-3.71452e-22
-1.80874e-21
-1.94224e-22
-2.29466e-21
-8.67245e-24
-2.29625e-21
1.12223e-22
-1.82847e-21
1.29e-22
-1.16895e-21
9.09454e-23
-6.12414e-22
4.50137e-23
-2.57102e-22
1.58038e-23
-8.34791e-23
3.89627e-24
-2.02281e-23
6.56092e-25
-3.51574e-24
7.37097e-26
-4.21361e-25
5.41978e-27
-3.40424e-26
2.66772e-28
-1.66951e-27
1.28166e-29
-5.86685e-29
6.32824e-31
-1.34127e-30
5.24942e-32
6.69602e-33
5.88755e-33
8.06065e-33
2.95541e-34
1.09707e-33
1.25201e-35
8.6045e-35
4.96598e-37
5.3035e-36
1.64741e-38
2.67504e-37
4.54544e-40
1.07045e-38
1.20286e-41
3.87748e-40
2.6649e-43
1.28279e-41
3.7729e-45
3.22002e-43
3.06911e-47
5.63892e-45
1.98352e-49
5.78333e-47
2.08396e-49
-8.49364e-23
3.80271e-22
-1.14382e-22
4.14771e-22
-5.7662e-23
2.54021e-22
-2.61304e-23
7.62502e-23
-1.63855e-23
2.64067e-23
-1.63017e-23
1.10913e-23
-4.53398e-23
3.52803e-24
-4.22303e-22
-7.17009e-23
-1.86971e-21
-1.19279e-21
-4.76323e-21
-6.2265e-21
-8.04248e-21
-1.86295e-20
-9.37629e-21
-3.76342e-20
-7.50293e-21
-5.4266e-20
-3.67929e-21
-6.05181e-20
1.93791e-22
-5.74402e-20
2.53407e-21
-4.4342e-20
2.74281e-21
-2.73482e-20
1.91792e-21
-1.41888e-20
9.56907e-22
-5.98591e-21
3.4197e-22
-1.98344e-21
8.67545e-23
-4.94505e-22
1.51705e-23
-8.88882e-23
1.80374e-24
-1.11282e-23
1.47214e-25
-9.59995e-25
8.31226e-27
-5.48313e-26
3.9924e-28
-1.98511e-27
2.01071e-29
-5.07209e-29
1.46594e-30
6.10537e-32
1.48276e-31
2.32557e-31
7.63654e-33
3.15917e-32
3.26959e-34
2.50086e-33
1.26955e-35
1.53396e-34
4.16648e-37
7.55646e-36
1.25203e-38
3.12116e-37
3.68142e-40
1.24481e-38
8.21404e-42
4.27492e-40
1.21227e-43
1.11585e-41
1.03164e-45
2.05134e-43
8.10925e-48
2.21676e-45
8.54521e-48
-4.49839e-22
1.70454e-21
-5.82784e-22
1.96022e-21
-2.67882e-22
1.17846e-21
-1.337e-22
3.38173e-22
-1.1804e-22
1.44629e-22
-1.45357e-22
7.32495e-23
-1.64906e-21
4.23202e-23
-1.33498e-20
-6.25605e-21
-4.60098e-20
-6.212e-20
-1.01681e-19
-2.34352e-19
-1.56858e-19
-6.07787e-19
-1.71476e-19
-1.1261e-18
-1.17366e-19
-1.53844e-18
-5.00522e-20
-1.45784e-18
1.49239e-20
-1.32136e-18
5.08545e-20
-1.01001e-18
4.99814e-20
-5.8133e-19
3.42843e-20
-2.83401e-19
1.72369e-20
-1.16571e-19
6.27893e-21
-3.8526e-20
1.64775e-21
-9.85982e-21
2.9998e-22
-1.84738e-21
3.72291e-23
-2.41536e-22
3.26486e-24
-2.18619e-23
2.07583e-25
-1.39057e-24
1.03648e-26
-5.82339e-26
5.45162e-28
-1.55894e-27
3.68773e-29
-2.05743e-30
3.35721e-30
5.85664e-30
1.82153e-31
8.07923e-31
7.95872e-33
6.54846e-32
3.03367e-34
4.0318e-33
1.01123e-35
1.94569e-34
3.44893e-37
8.78973e-36
1.05171e-38
3.73911e-37
2.3547e-40
1.3146e-38
3.60944e-42
3.55052e-40
3.17532e-44
6.79354e-42
2.96515e-46
7.65296e-44
3.13009e-46
-2.63513e-21
8.36608e-21
-2.42486e-21
6.80647e-21
-9.46821e-22
3.74312e-21
-7.84027e-22
1.42702e-21
-7.54643e-22
8.86705e-22
-3.02166e-21
8.53907e-22
-7.22047e-20
-8.72252e-21
-3.02065e-19
-4.96577e-19
-7.0598e-19
-8.81995e-19
-1.27191e-18
-2.94947e-18
-1.68649e-18
-6.62305e-18
-1.71162e-18
-1.14454e-17
-1.11283e-18
-1.67202e-17
-3.20002e-19
-1.95608e-17
4.71416e-19
-2.02435e-17
8.83655e-19
-1.71395e-17
7.97585e-19
-1.10873e-17
5.32803e-19
-5.28826e-18
2.69739e-19
-2.14472e-18
9.87074e-20
-6.65347e-19
2.68011e-20
-1.65289e-19
5.09946e-21
-3.15326e-20
6.544e-22
-4.27751e-21
5.95116e-23
-3.99588e-22
4.15498e-24
-2.68609e-23
2.34584e-25
-1.29736e-24
1.24147e-26
-3.93627e-26
8.36519e-28
-1.27153e-28
7.23209e-29
1.33514e-28
4.04091e-30
1.87933e-29
1.80182e-31
1.56115e-30
6.90502e-33
9.69363e-32
2.42397e-34
4.79992e-33
8.95073e-36
2.32838e-34
2.7797e-37
1.0339e-35
6.31232e-39
3.72325e-37
1.0006e-40
1.03919e-38
9.0649e-43
2.06201e-40
9.86989e-45
2.41154e-42
1.04385e-44
-3.5429e-21
1.45813e-20
-4.37129e-21
9.87488e-21
-1.15268e-20
1.01561e-20
-2.42639e-20
1.82767e-20
-3.68235e-20
2.16651e-20
-1.14317e-19
2.15409e-20
-9.51356e-19
-8.77986e-20
-1.81783e-18
-2.09962e-18
-3.17746e-18
-4.28448e-18
-4.75483e-18
-1.01762e-17
-5.2003e-18
-2.02354e-17
-4.28655e-18
-3.0957e-17
-2.53799e-18
-4.35969e-17
1.92681e-18
-8.11531e-17
7.38246e-18
-1.10915e-16
9.99692e-18
-1.05977e-16
9.67221e-18
-8.98778e-17
6.99176e-18
-6.02706e-17
3.74807e-18
-3.22907e-17
1.37843e-18
-1.15428e-17
3.81561e-19
-2.69963e-18
7.5153e-20
-4.84968e-19
9.85808e-21
-6.44063e-20
8.9889e-22
-6.03836e-21
6.35171e-23
-4.09788e-22
3.93957e-24
-1.90711e-23
2.40674e-25
-6.46696e-25
1.7297e-26
-3.38063e-27
1.42836e-27
2.70712e-27
8.23114e-29
3.92209e-28
3.76241e-30
3.35993e-29
1.484e-31
2.11913e-30
5.65434e-33
1.12308e-31
2.15482e-34
5.75128e-33
6.69699e-36
2.60064e-34
1.57178e-37
9.63531e-36
2.57587e-39
2.78547e-37
2.40057e-41
5.72705e-39
3.00397e-43
6.94735e-41
3.18427e-43
4.15136e-05
4.72544e-05
5.95606e-05
5.26449e-05
5.16049e-05
4.33259e-05
4.95708e-05
6.15947e-05
5.58505e-05
3.94245e-05
4.22449e-05
6.31764e-05
5.86239e-05
3.56658e-05
3.68741e-05
6.39948e-05
6.047e-05
3.21073e-05
3.26727e-05
6.46714e-05
6.16308e-05
2.87835e-05
2.91011e-05
6.52023e-05
6.24026e-05
2.56697e-05
2.58899e-05
6.56138e-05
6.30185e-05
2.27444e-05
2.29238e-05
6.59846e-05
6.36912e-05
2.0016e-05
2.01657e-05
6.64493e-05
6.46574e-05
1.76341e-05
6.71902e-05
1.52778e-05
6.84202e-05
1.00889e-05
6.90864e-05
2.24805e-07
2.73795e-05
4.86126e-09
3.30131e-07
7.41198e-11
7.4937e-09
1.61618e-12
1.14877e-10
1.1995e-13
2.45035e-12
3.05634e-15
3.44471e-14
-8.98751e-15
-1.46175e-13
-8.64132e-15
-2.25151e-13
-1.48736e-15
-1.14125e-13
5.36614e-17
-3.18903e-14
-6.95529e-17
-3.62955e-15
-1.65257e-16
2.10583e-15
-7.46309e-17
2.34478e-15
-5.60199e-17
5.7109e-16
-7.99172e-17
4.25464e-16
-2.32714e-16
7.25207e-16
-6.15615e-16
1.83675e-15
-1.31953e-15
3.58233e-15
-2.6308e-15
6.31137e-15
-5.15504e-15
1.07999e-14
1.80617e-14
1.80304e-05
3.46145e-05
-8.52952e-15
1.09532e-05
-5.21171e-14
4.35876e-14
2.84837e-13
-1.11705e-20
5.56273e-05
4.05819e-05
3.43997e-05
3.07896e-05
5.63058e-06
2.04889e-05
4.70204e-06
9.29002e-07
6.63181e-05
3.74402e-05
6.42817e-05
3.28258e-05
5.52786e-05
2.78831e-05
2.32801e-05
3.36389e-05
6.79656e-05
3.34695e-05
6.985e-05
3.09414e-05
6.97162e-05
2.8003e-05
2.49018e-05
6.80587e-05
6.81667e-05
2.99742e-05
7.08087e-05
2.82989e-05
7.25128e-05
2.62967e-05
2.40954e-05
7.33171e-05
6.83132e-05
2.68634e-05
7.09665e-05
2.56456e-05
7.31238e-05
2.41391e-05
2.24562e-05
7.47623e-05
6.84742e-05
2.4003e-05
7.1038e-05
2.30818e-05
7.32839e-05
2.18931e-05
2.05352e-05
7.52049e-05
6.86646e-05
2.13229e-05
7.1138e-05
2.06084e-05
7.33835e-05
1.96476e-05
1.85185e-05
7.54001e-05
6.89738e-05
1.87983e-05
7.13543e-05
1.82279e-05
7.35642e-05
1.74377e-05
1.64809e-05
7.56017e-05
6.95437e-05
1.64451e-05
7.18089e-05
1.59627e-05
7.39481e-05
1.52985e-05
1.44711e-05
7.59579e-05
7.05596e-05
1.43057e-05
7.26612e-05
1.38611e-05
7.46759e-05
1.32843e-05
1.2542e-05
7.66051e-05
7.20334e-05
1.13541e-05
7.4071e-05
1.18233e-05
7.59089e-05
1.14463e-05
1.07593e-05
7.76916e-05
6.29441e-05
1.41293e-06
7.39489e-05
6.91465e-06
7.72029e-05
8.19686e-06
8.66873e-06
7.92923e-05
4.10555e-06
4.56355e-08
1.44486e-05
5.41346e-08
3.96616e-05
-1.95608e-07
2.01335e-06
7.48344e-05
5.24293e-08
8.44008e-10
1.05202e-07
1.6672e-09
5.88706e-07
6.18231e-09
3.60313e-08
5.34095e-06
1.03548e-09
1.66202e-11
2.6881e-09
1.95656e-11
8.95136e-09
7.22683e-11
5.76111e-10
4.45984e-08
1.59596e-11
1.73945e-13
3.61295e-11
3.12395e-13
1.21985e-10
9.17021e-13
3.39505e-12
6.58117e-10
2.80806e-13
3.32529e-14
5.70705e-13
3.87072e-14
1.50927e-12
1.11168e-14
4.24807e-14
7.35885e-12
-3.19796e-14
-2.03662e-15
6.21741e-15
5.10177e-16
3.0718e-14
2.9237e-15
1.30162e-14
1.23286e-13
-1.53687e-13
-6.8593e-15
-6.92353e-14
-3.53234e-15
-2.09132e-14
-1.16895e-15
-9.81113e-17
-1.66167e-15
-1.12057e-13
-2.61704e-15
-9.44222e-14
-3.08475e-15
-6.52094e-14
-2.6485e-15
-1.58706e-15
-3.37256e-14
-3.69645e-14
1.18389e-18
-3.92799e-14
-4.64253e-16
-3.67769e-14
-8.38079e-16
-9.63196e-16
-2.96927e-14
-3.58902e-15
-8.02275e-17
-4.21614e-15
-5.61534e-17
-4.89727e-15
-1.14469e-17
-7.5855e-17
-4.99213e-15
3.75263e-15
-1.64641e-16
5.7121e-15
-1.63613e-16
7.76598e-15
-1.18597e-16
-3.4371e-17
9.75648e-15
2.99729e-15
-7.50338e-17
3.78426e-15
-7.78376e-17
4.83637e-15
-7.46655e-17
-5.9569e-17
6.30729e-15
8.16838e-16
-7.05511e-17
1.17018e-15
-8.68723e-17
1.65645e-15
-9.7694e-17
-9.68454e-17
2.30246e-15
6.68428e-16
-1.07469e-16
1.01388e-15
-1.40133e-16
1.48349e-15
-1.67457e-16
-1.79867e-16
2.09953e-15
1.22338e-15
-3.24772e-16
1.94158e-15
-4.42792e-16
2.89734e-15
-5.55784e-16
-6.20272e-16
4.05285e-15
3.09371e-15
-8.87132e-16
4.97234e-15
-1.28596e-15
7.42526e-15
-1.67495e-15
-1.84826e-15
1.01895e-14
6.27519e-15
-2.04053e-15
1.02649e-14
-3.01777e-15
1.51136e-14
-3.80097e-15
-4.03521e-15
2.02971e-14
1.14022e-14
-4.29086e-15
1.76082e-14
-5.77738e-15
2.49186e-14
-6.85712e-15
-8.44879e-15
3.44097e-14
1.87956e-14
-8.37634e-15
2.57011e-14
-9.78237e-15
3.66023e-14
-1.16246e-14
-1.95042e-14
6.2263e-14
2.82884e-14
3.48022e-14
5.19372e-14
1.01681e-13
-4.23288e-21
1.01946e-20
-2.28059e-21
-1.69562e-20
-1.30803e-21
3.41754e-20
-8.23966e-22
1.47939e-20
-4.5324e-22
9.11176e-20
-8.8362e-21
8.46611e-20
-3.90919e-20
3.36404e-18
-1.72346e-19
2.70328e-17
2.54845e-19
-8.06905e-17
1.23691e-18
-8.16023e-17
3.32269e-18
-7.58622e-17
6.62549e-18
-1.25048e-16
1.28498e-17
-1.81893e-16
3.42536e-17
-3.4013e-16
5.12699e-17
-3.17301e-16
5.55702e-17
-2.74725e-16
5.97299e-17
-2.32839e-16
6.01527e-17
-2.4492e-16
3.92709e-17
-1.96323e-16
1.74604e-17
-1.09023e-16
5.27893e-18
-3.86004e-17
1.06418e-18
-8.39214e-18
1.38059e-19
-1.01478e-18
1.21908e-20
-8.67806e-20
7.88774e-22
-5.21325e-21
4.81814e-23
-2.29845e-22
3.44431e-24
-7.92933e-24
2.9476e-25
-5.02417e-26
2.62009e-26
4.6145e-26
1.56781e-27
7.22319e-27
7.3938e-29
6.51634e-28
3.02943e-30
4.25666e-29
1.232e-31
2.40691e-30
4.81273e-33
1.28708e-31
1.52975e-34
5.99808e-33
3.72833e-36
2.30615e-34
6.33161e-38
6.93568e-36
6.09673e-40
1.48341e-37
8.56784e-42
1.87236e-39
9.10025e-42
6.74597e-08
8.65184e-07
2.84469e-09
6.46253e-08
9.47049e-11
2.75733e-09
2.58642e-15
7.34485e-14
-5.82643e-14
-2.73749e-14
-2.55466e-15
-6.1831e-16
-2.87883e-17
-5.305e-15
-6.07959e-17
3.2011e-15
3.65897e-16
3.67109e-15
3.89134e-16
2.68405e-15
3.67569e-16
2.09966e-15
3.29741e-16
1.33804e-15
3.08666e-16
4.58295e-16
3.04503e-16
1.56911e-16
2.50395e-16
-6.02366e-16
2.07944e-16
-8.14334e-16
2.13868e-16
-8.46504e-16
2.62186e-16
-7.4424e-16
1.90708e-16
-5.02596e-16
1.18694e-16
-3.08812e-16
5.69551e-17
-2.12634e-16
1.38975e-17
-8.69893e-17
1.78572e-18
-1.45051e-17
1.43982e-19
-1.22598e-18
8.0507e-21
-5.7574e-20
5.09029e-22
-2.39e-21
3.74147e-23
-8.14132e-23
3.7112e-24
-4.78693e-25
4.40578e-25
6.53141e-25
2.80807e-26
1.1902e-25
1.34325e-27
1.14941e-26
5.69127e-29
7.82685e-28
2.43979e-30
4.68295e-29
9.81936e-32
2.60906e-30
3.24596e-33
1.26745e-31
8.24155e-35
5.09102e-33
1.45345e-36
1.59825e-34
1.45159e-38
3.56644e-36
2.27999e-40
4.69575e-38
2.42779e-40
5.81124e-06
1.63469e-05
1.17466e-06
4.6891e-06
1.22096e-07
1.06247e-06
1.08958e-08
1.12293e-07
6.06315e-10
1.02916e-08
5.29546e-11
5.83442e-10
9.81201e-13
1.27008e-11
-2.53703e-14
-1.89161e-17
1.66435e-14
-3.4322e-13
1.68467e-14
1.12139e-13
1.33158e-14
1.00859e-13
7.83153e-15
7.7135e-14
5.46906e-15
5.09947e-14
3.8941e-15
4.46477e-14
2.57192e-15
1.94356e-14
1.85245e-15
8.66416e-15
1.34781e-15
2.33017e-15
9.12628e-16
-7.59267e-16
5.38257e-16
-1.23828e-15
3.94674e-16
-9.70049e-16
2.98754e-16
-5.76635e-16
1.07455e-16
-2.4106e-16
2.13406e-17
-8.86016e-17
1.73376e-18
-1.45298e-17
8.09418e-20
-5.90028e-19
5.39035e-21
-2.42718e-20
4.02037e-22
-8.87832e-22
4.4256e-23
-4.00174e-24
7.36021e-24
9.01333e-24
5.27307e-25
2.00014e-24
2.47769e-26
2.06424e-25
1.06489e-27
1.45564e-26
4.72138e-29
8.9413e-28
2.02842e-30
5.26697e-29
7.0258e-32
2.70214e-30
1.85546e-33
1.13814e-31
3.41086e-35
3.74203e-33
3.54705e-37
8.73733e-35
6.24049e-39
1.20259e-36
6.63957e-39
5.74749e-05
2.41755e-05
3.4138e-05
2.09233e-05
5.81254e-06
1.34036e-05
1.49301e-06
4.41645e-06
1.98615e-07
1.30478e-06
2.51239e-08
1.74801e-07
1.96975e-09
2.31624e-08
1.6575e-10
1.84604e-09
4.65987e-12
5.95811e-11
1.08037e-12
3.29543e-12
4.86258e-13
3.16447e-12
3.26116e-13
1.78762e-12
1.76424e-13
1.06494e-12
1.14134e-13
5.44744e-13
4.20595e-14
4.34254e-13
2.23791e-14
2.2112e-13
1.19383e-14
1.17174e-13
6.71504e-15
4.48154e-14
3.44594e-15
1.28332e-14
1.82665e-15
1.21381e-15
7.60825e-16
-1.1043e-15
3.37904e-16
-6.97641e-16
1.44332e-16
-2.6978e-16
1.8213e-17
-5.14995e-17
9.14733e-19
-4.89845e-18
6.55463e-20
-2.4587e-19
5.17087e-21
-9.84663e-21
6.23447e-22
-2.33573e-23
1.36204e-22
1.4364e-22
1.11155e-23
3.80059e-23
5.09268e-25
4.15565e-24
2.18523e-26
3.00986e-25
9.59771e-28
1.84756e-26
4.279e-29
1.10176e-27
1.63121e-30
6.01838e-29
4.67348e-32
2.75759e-30
8.96068e-34
9.64676e-32
9.64686e-36
2.37057e-33
1.88236e-37
3.35656e-35
1.9983e-37
7.32341e-05
2.42426e-05
7.25176e-05
2.16055e-05
6.36931e-05
1.92136e-05
4.41527e-05
1.7252e-05
1.16898e-05
1.3739e-05
2.28433e-06
4.64538e-06
4.77322e-07
1.82524e-06
6.20393e-08
4.19301e-07
5.92747e-09
5.63777e-08
1.29006e-10
5.79005e-09
3.33093e-11
2.9454e-10
1.32808e-11
7.44534e-11
8.08528e-12
9.32127e-12
4.64653e-12
-3.18495e-12
1.18486e-12
9.96586e-12
5.29796e-13
3.97978e-12
2.03374e-13
2.22456e-12
7.69484e-14
8.0584e-13
3.06302e-14
2.97859e-13
1.242e-14
9.18495e-14
4.67858e-15
2.14728e-14
1.62168e-15
1.88006e-15
4.43322e-16
-6.65077e-16
8.81536e-17
-2.41833e-16
1.30189e-17
-3.82388e-17
9.41839e-19
-3.30374e-18
7.47235e-20
-1.33345e-19
1.0771e-20
1.27454e-22
3.10405e-21
2.79846e-21
2.73461e-22
8.53864e-22
1.20394e-23
9.68807e-23
5.19087e-25
7.17013e-24
2.26588e-26
4.41445e-25
1.01939e-27
2.65427e-26
4.0327e-29
1.47629e-27
1.26472e-30
7.11488e-29
2.71661e-32
2.7741e-30
3.00941e-34
7.20369e-32
6.51002e-36
1.08713e-33
6.89074e-36
7.60307e-05
2.29736e-05
7.68444e-05
2.07901e-05
7.72477e-05
1.8802e-05
7.74473e-05
1.70334e-05
7.31674e-05
1.53926e-05
5.82469e-05
1.40249e-05
2.6049e-05
1.28713e-05
3.40182e-06
5.97786e-06
9.36604e-07
2.51395e-06
1.02578e-07
8.28471e-07
1.54138e-08
8.75642e-08
1.0934e-09
1.44138e-08
1.04116e-09
7.31951e-10
2.61586e-10
1.90833e-10
6.32047e-11
1.83381e-11
2.38027e-11
4.56341e-11
5.09847e-12
3.94963e-11
1.41864e-12
1.31557e-11
4.61778e-13
4.19335e-12
1.51992e-13
1.32012e-12
4.09467e-14
4.06507e-13
1.21916e-14
9.92422e-14
3.53488e-15
1.41274e-14
8.32416e-16
1.91851e-16
1.38363e-16
-2.52967e-16
1.74191e-17
-3.79743e-17
1.48843e-18
-2.87046e-18
2.33625e-19
1.73454e-20
6.5036e-20
6.27712e-20
5.9251e-21
1.85614e-20
2.91405e-22
2.24466e-21
1.31541e-23
1.75953e-22
5.91106e-25
1.12602e-23
2.74245e-26
7.02052e-25
1.12455e-27
4.05288e-26
3.69712e-29
2.02758e-27
8.65186e-31
8.40701e-29
1.05129e-32
2.39365e-30
2.46056e-34
3.84959e-32
2.60197e-34
7.69831e-05
2.1195e-05
7.8413e-05
1.93599e-05
7.95772e-05
1.76385e-05
8.05444e-05
1.6065e-05
8.12774e-05
1.46574e-05
8.18578e-05
1.3435e-05
8.07708e-05
1.23376e-05
7.05289e-05
1.14024e-05
4.08848e-05
1.07868e-05
5.44983e-06
6.98927e-06
1.25279e-06
2.58255e-06
1.83464e-07
1.08461e-06
2.66089e-08
1.57572e-07
4.15867e-09
2.19691e-08
4.3637e-09
9.66401e-10
1.40549e-09
3.01156e-10
2.04195e-10
-9.66021e-11
3.27757e-11
1.90297e-10
8.11964e-12
7.5609e-11
2.02345e-12
2.10049e-11
6.12171e-13
5.19465e-12
1.41183e-13
1.25558e-12
2.84478e-14
2.71436e-13
6.92547e-15
4.23155e-14
1.53476e-15
2.61655e-15
2.49966e-16
-1.87155e-16
3.99084e-17
-2.74893e-17
6.67708e-18
1.03001e-18
1.3716e-18
1.63124e-18
1.20791e-19
4.11684e-19
7.03371e-21
5.20802e-20
3.43054e-22
4.37762e-21
1.62156e-23
2.96755e-22
7.86158e-25
1.94544e-23
3.36878e-26
1.17811e-24
1.1495e-27
6.17024e-26
2.82185e-29
2.6402e-27
3.84421e-31
8.25622e-29
9.69278e-33
1.41382e-30
1.0253e-32
7.73912e-05
1.92038e-05
7.91265e-05
1.76246e-05
8.06451e-05
1.61196e-05
8.19763e-05
1.47335e-05
8.31424e-05
1.3491e-05
8.41704e-05
1.24066e-05
8.50283e-05
1.14788e-05
8.5708e-05
1.07181e-05
8.57018e-05
1.00807e-05
7.87545e-05
9.55291e-06
5.05852e-05
9.17751e-06
8.92509e-06
6.99118e-06
1.24502e-06
2.58194e-06
1.73905e-07
1.08811e-06
2.20143e-08
1.59303e-07
1.53689e-08
2.37182e-08
1.08711e-08
2.40746e-10
1.55583e-09
3.81637e-10
1.58709e-10
-5.67715e-11
3.38671e-11
2.64088e-10
8.96579e-12
6.2502e-11
1.74535e-12
1.26594e-11
3.3995e-13
2.65757e-12
6.15189e-14
5.31103e-13
1.21553e-14
7.61128e-14
2.47949e-15
4.99881e-15
5.5487e-16
-8.35571e-17
1.80377e-16
3.4444e-17
3.20516e-17
3.70983e-17
2.61897e-18
9.02017e-18
1.64685e-19
1.17717e-18
8.70036e-21
1.04802e-19
4.42588e-22
7.63705e-21
2.26724e-23
5.33201e-22
1.02047e-24
3.41597e-23
3.65479e-26
1.88498e-24
9.40374e-28
8.49657e-26
1.33463e-29
2.76869e-27
3.72824e-31
4.99057e-29
3.94606e-31
7.76804e-05
1.71251e-05
7.95631e-05
1.57418e-05
8.12718e-05
1.44109e-05
8.28227e-05
1.31825e-05
8.42277e-05
1.20859e-05
8.54953e-05
1.11391e-05
8.66243e-05
1.03495e-05
8.76207e-05
9.72089e-06
8.84587e-05
9.24222e-06
8.9097e-05
8.91213e-06
8.92151e-05
8.6883e-06
8.28236e-05
8.53906e-06
5.10819e-05
8.41768e-06
7.59583e-06
6.40674e-06
8.99412e-07
2.36132e-06
1.13236e-07
8.11889e-07
3.2518e-08
9.44155e-08
2.19424e-08
1.3534e-08
1.02243e-08
1.90543e-10
5.26506e-10
1.57282e-10
5.98827e-11
9.3515e-11
1.67215e-11
1.02957e-10
3.69202e-12
2.15335e-11
6.78483e-13
4.08915e-12
9.7732e-14
6.26472e-13
1.73592e-14
7.87702e-14
4.58708e-15
3.21319e-15
1.09015e-15
6.28861e-16
2.71403e-16
3.07617e-16
4.16654e-17
9.94202e-17
3.14366e-18
1.76487e-17
1.6696e-19
1.77527e-18
9.43484e-21
1.44931e-19
5.38396e-22
1.13755e-20
2.63962e-23
8.06468e-22
1.01255e-24
4.85792e-23
2.65388e-26
2.32164e-24
5.12507e-28
7.52181e-26
1.16432e-29
1.43317e-27
1.2371e-29
7.8052e-05
1.50311e-05
7.99909e-05
1.38028e-05
8.17897e-05
1.26122e-05
8.34583e-05
1.15138e-05
8.50021e-05
1.0542e-05
8.64246e-05
9.71656e-06
8.77242e-05
9.04978e-06
8.88982e-05
8.5468e-06
8.99364e-05
8.20397e-06
9.08337e-05
8.01417e-06
9.15633e-05
7.95831e-06
9.20764e-05
8.02388e-06
9.18805e-05
8.16527e-06
8.18391e-05
8.31849e-06
3.95635e-05
8.31509e-06
2.70199e-06
5.18497e-06
3.69001e-07
1.8352e-06
6.80629e-08
3.87433e-07
2.98046e-08
6.22175e-08
1.64513e-08
4.88693e-09
2.30038e-09
1.95014e-10
-2.90926e-11
1.06434e-10
2.71742e-11
5.5742e-11
5.81232e-12
1.84753e-11
4.80756e-13
4.03899e-12
7.95416e-14
5.39306e-13
1.4102e-14
2.06227e-14
5.20394e-15
1.34277e-14
1.21211e-15
3.12315e-15
1.98537e-16
5.47392e-16
2.49198e-17
1.08231e-16
2.03823e-18
1.58518e-17
1.40981e-19
1.73077e-18
9.23311e-21
1.65198e-19
4.95093e-22
1.35178e-20
1.93792e-23
8.7722e-22
5.13202e-25
4.30035e-23
1.26418e-26
1.46838e-24
2.58282e-28
2.98735e-26
2.78048e-28
7.86527e-05
1.29834e-05
8.05779e-05
1.18776e-05
8.23925e-05
1.07975e-05
8.41012e-05
9.80502e-06
8.57054e-05
8.93776e-06
8.72075e-05
8.21437e-06
8.86046e-05
7.65262e-06
8.9892e-05
7.2593e-06
9.10617e-05
7.03418e-06
9.21035e-05
6.97231e-06
9.30007e-05
7.06096e-06
9.37405e-05
7.28366e-06
9.42914e-05
7.61386e-06
9.45807e-05
8.02599e-06
9.29979e-05
8.46069e-06
7.03557e-05
8.64185e-06
1.72342e-05
8.40254e-06
1.00702e-06
3.33987e-06
1.04395e-07
9.20555e-07
3.26021e-08
1.30346e-07
1.27078e-08
1.68959e-08
3.88309e-09
1.72595e-09
-7.4739e-11
6.02304e-11
-2.41528e-11
4.65093e-11
7.0225e-12
1.26808e-11
9.42604e-13
1.61062e-12
-1.50753e-13
1.16401e-13
-1.65823e-14
1.897e-13
4.05171e-15
4.42632e-14
1.17952e-15
6.26728e-15
1.64815e-16
7.73821e-16
1.79568e-17
1.18681e-16
1.73579e-18
1.69051e-17
1.33218e-19
2.00699e-18
7.58177e-21
1.85978e-19
3.16249e-22
1.32099e-20
8.94414e-24
6.99731e-22
2.47023e-25
2.55904e-23
5.10257e-27
5.54826e-25
5.53404e-27
7.96242e-05
1.10518e-05
8.14624e-05
1.00395e-05
8.32233e-05
9.03649e-06
8.49032e-05
8.12496e-06
8.64987e-05
7.34223e-06
8.8013e-05
6.70004e-06
8.94412e-05
6.22443e-06
9.07789e-05
5.92156e-06
9.20188e-05
5.7942e-06
9.31496e-05
5.84118e-06
9.41571e-05
6.0535e-06
9.50238e-05
6.41696e-06
9.5728e-05
6.90942e-06
9.62508e-05
7.50309e-06
9.65482e-05
8.16229e-06
9.6337e-05
8.84368e-06
8.61918e-05
9.4031e-06
3.86085e-05
9.35139e-06
1.59568e-06
5.67851e-06
1.63269e-07
1.59517e-06
3.3806e-08
2.35381e-07
9.2551e-09
3.76063e-08
1.97543e-09
5.53565e-09
3.98471e-10
6.62426e-10
-3.769e-11
3.41411e-11
-9.51677e-12
1.02091e-11
-1.50478e-12
7.06925e-12
-5.11251e-14
2.268e-12
2.8475e-14
5.14975e-13
3.92795e-15
8.68836e-14
1.01086e-15
1.11183e-14
1.78548e-16
1.15512e-15
1.65039e-17
1.53716e-16
1.41598e-18
1.92456e-17
1.0238e-19
2.12893e-18
5.04329e-21
1.83417e-19
1.50867e-22
1.08325e-20
4.30663e-24
4.26526e-22
9.55931e-26
9.80529e-24
1.04264e-25
8.11002e-05
9.24352e-06
8.27759e-05
8.36385e-06
8.44093e-05
7.40306e-06
8.59888e-05
6.54552e-06
8.75048e-05
5.82615e-06
8.8966e-05
5.23872e-06
9.03621e-05
4.8282e-06
9.16893e-05
4.59437e-06
9.29405e-05
4.54305e-06
9.41045e-05
4.67717e-06
9.51676e-05
4.99024e-06
9.6112e-05
5.47227e-06
9.69163e-05
6.1051e-06
9.7557e-05
6.86227e-06
9.80107e-05
7.70842e-06
9.82515e-05
8.60209e-06
9.81504e-05
9.49693e-06
9.39956e-05
1.0283e-05
5.50631e-05
9.61481e-06
4.30311e-06
7.97813e-06
1.70463e-07
2.29917e-06
8.50725e-09
3.5948e-07
5.44669e-09
6.28175e-08
1.63012e-09
1.14301e-08
1.07699e-10
2.07792e-09
-1.84954e-11
4.17461e-10
-1.25472e-11
9.91753e-11
6.05611e-13
2.45252e-11
3.57098e-13
5.38836e-12
6.96879e-14
1.01137e-12
8.90477e-15
1.59241e-13
1.10592e-15
1.91856e-14
1.72111e-16
1.80435e-15
1.73199e-17
2.16264e-16
1.36384e-18
2.57917e-17
7.81672e-20
2.53338e-18
2.53016e-21
1.66618e-19
7.66497e-23
7.04781e-21
1.77879e-24
1.71704e-22
1.94501e-24
8.16586e-05
5.4903e-06
8.42498e-05
5.77486e-06
8.60159e-05
5.63644e-06
8.74588e-05
5.10251e-06
8.88255e-05
4.45947e-06
9.01686e-05
3.89554e-06
9.14678e-05
3.52887e-06
9.2723e-05
3.33901e-06
9.39281e-05
3.33795e-06
9.50697e-05
3.53545e-06
9.61351e-05
3.92476e-06
9.71063e-05
4.50088e-06
9.7962e-05
5.2492e-06
9.86775e-05
6.14668e-06
9.92257e-05
7.16015e-06
9.95814e-05
8.24617e-06
9.97222e-05
9.355e-06
9.95613e-05
1.04335e-05
9.7522e-05
1.1396e-05
6.37687e-05
1.09518e-05
6.9547e-06
9.7678e-06
1.22579e-07
2.8175e-06
-1.95271e-09
4.39406e-07
-1.1987e-09
8.26471e-08
1.15636e-10
1.7757e-08
-2.02273e-10
3.86859e-09
-7.60006e-11
8.93093e-10
3.68044e-13
2.17059e-10
2.53319e-12
4.96664e-11
5.83413e-13
9.82133e-12
9.69033e-14
1.73245e-12
1.0726e-14
2.5972e-13
1.41756e-15
2.99334e-14
2.32677e-16
2.8951e-15
1.84636e-17
3.3274e-16
9.76564e-19
3.13128e-17
3.45689e-20
2.15262e-18
1.18959e-21
9.70358e-20
2.76932e-23
2.52867e-21
3.06164e-23
1.86128e-05
4.68634e-08
5.35311e-05
-6.6073e-08
8.43751e-05
1.83556e-06
8.85848e-05
2.82423e-06
9.03485e-05
2.69573e-06
9.16786e-05
2.56514e-06
9.28346e-05
2.37268e-06
9.39595e-05
2.21402e-06
9.50621e-05
2.2353e-06
9.61252e-05
2.47221e-06
9.71402e-05
2.90962e-06
9.80879e-05
3.55307e-06
9.89462e-05
4.39068e-06
9.96899e-05
5.40266e-06
0.000100291
6.55888e-06
0.00010072
7.81703e-06
0.000100951
9.12419e-06
0.000100963
1.04207e-05
0.000100711
1.16493e-05
9.88827e-05
1.27275e-05
6.52024e-05
1.22222e-05
6.70197e-06
1.0808e-05
9.55732e-08
2.93665e-06
-4.58111e-09
4.39021e-07
-6.93218e-09
9.1796e-08
-1.90895e-09
2.17397e-08
-4.34348e-10
5.4678e-09
-3.14769e-11
1.38864e-09
9.20956e-12
3.29997e-10
2.42986e-12
6.98188e-11
4.69771e-13
1.33591e-11
7.49692e-14
2.20892e-12
8.43831e-15
2.99994e-13
1.31616e-15
3.13205e-14
1.55385e-16
2.91545e-15
9.10436e-18
2.72652e-16
3.54477e-19
2.02246e-17
1.24858e-20
9.90056e-19
3.12768e-22
2.75423e-20
3.55117e-22
9.20393e-08
6.54264e-10
1.17007e-06
5.35138e-09
6.6271e-06
9.28017e-09
2.66236e-05
-1.05473e-07
7.01165e-05
1.23828e-07
9.13655e-05
8.74786e-07
9.40563e-05
1.07027e-06
9.53297e-05
1.07946e-06
9.63721e-05
1.24212e-06
9.7326e-05
1.53558e-06
9.82447e-05
1.99324e-06
9.91186e-05
2.67903e-06
9.99314e-05
3.57771e-06
0.000100658
4.6761e-06
0.000101268
5.94879e-06
0.00010173
7.35457e-06
0.000102014
8.83992e-06
0.000102093
1.03405e-05
0.000101954
1.17885e-05
0.000101554
1.31245e-05
9.94604e-05
1.42628e-05
6.0926e-05
1.3299e-05
3.84778e-06
1.10233e-05
6.34721e-08
2.47092e-06
-9.60682e-09
3.77826e-07
-6.85864e-09
8.80527e-08