/*--------------------------------*- C++ -*----------------------------------*\
| =========                 |                                                 |
| \\      /  F ield         | OpenFOAM: The Open Source CFD Toolbox           |
|  \\    /   O peration     | Version:  5.0                                   |
|   \\  /    A nd           | Web:      www.OpenFOAM.org                      |
|    \\/     M anipulation  |                                                 |
\*---------------------------------------------------------------------------*/
FoamFile
{
    version     2.0;
    format      ascii;
    class       volScalarField;
    location    "0.45";
    object      alpha.water;
}
// * * * * * * * * * * * * * * * * * * * * * * * * * * * * * * * * * * * * * //

dimensions      [0 0 0 0 0 0 0];

internalField   nonuniform List<scalar> 
1915
(
0.999998
0.999938
0.999837
0.999651
0.982412
0.999582
0.981694
0.999203
0.995891
0.999513
0.999999
1
1
0.99999
1
0.999989
1
0.999995
1
1
1.00197e-23
3.48646e-23
3.477e-23
3.93961e-24
1.72164e-25
6.54534e-27
2.60029e-28
8.90193e-29
1.55537e-27
1.07241e-26
3.47584e-26
6.56361e-26
8.41674e-26
8.11423e-26
7.82862e-26
6.67515e-26
5.51214e-26
3.82412e-26
2.08554e-26
8.30385e-27
2.24892e-27
3.74075e-28
2.72578e-29
1.38104e-30
7.56945e-33
9.0912e-35
1.51342e-34
8.74702e-35
1.16704e-35
5.91954e-37
2.88466e-38
1.45555e-39
6.59094e-41
2.54025e-42
8.03015e-44
1.97229e-45
3.47058e-47
3.83917e-49
2.12125e-51
3.58182e-54
8.51816e-22
4.99595e-22
1.81384e-22
2.55434e-23
2.13026e-24
1.9574e-25
2.59113e-26
1.9967e-26
3.13199e-25
1.94106e-24
6.06719e-24
1.18039e-23
1.64793e-23
1.80188e-23
1.85211e-23
1.51967e-23
1.07596e-23
6.40185e-24
3.09093e-24
1.13991e-24
3.00943e-25
5.18565e-26
4.96636e-27
2.66349e-28
6.8375e-30
8.85747e-32
1.49441e-32
5.53672e-33
1.04463e-33
6.8519e-35
3.351e-36
1.66804e-37
7.55031e-39
2.9212e-40
9.27139e-42
2.27215e-43
3.90047e-45
3.94078e-47
1.56624e-49
6.45945e-54
1.66423e-20
6.25342e-21
1.96624e-21
3.75829e-22
5.16377e-23
8.35223e-24
2.04304e-24
2.21777e-24
2.95127e-23
1.65942e-22
4.95066e-22
9.59487e-22
1.38527e-21
1.57945e-21
1.6223e-21
1.30307e-21
8.70849e-22
4.84419e-22
2.1981e-22
7.75277e-23
2.00884e-23
3.58131e-24
3.96585e-25
2.18931e-26
8.61447e-28
1.60606e-29
1.00563e-30
2.93023e-31
5.36891e-32
3.68017e-33
1.79332e-34
8.57971e-36
3.74026e-37
1.39659e-38
4.25016e-40
9.76769e-42
1.44777e-43
1.67379e-45
1.00219e-47
2.48938e-52
1.451e-19
5.79866e-20
2.11141e-20
5.34829e-21
1.15068e-21
3.05848e-22
1.21259e-22
1.76771e-22
1.88377e-21
9.42297e-21
2.64144e-20
4.97934e-20
7.18111e-20
8.28877e-20
8.3216e-20
6.56945e-20
4.25666e-20
2.29052e-20
1.0074e-20
3.4737e-21
8.95154e-22
1.6376e-22
1.96632e-23
1.25604e-24
5.75271e-26
1.70812e-27
7.18863e-29
1.18261e-29
2.04671e-30
1.45913e-31
6.99615e-33
3.20135e-34
1.33724e-35
4.75776e-37
1.34889e-38
2.64946e-40
6.01677e-42
8.72026e-44
6.03832e-46
2.07235e-50
8.84165e-19
4.79593e-19
2.25405e-19
7.27026e-20
2.21483e-20
8.81419e-21
5.22149e-21
1.07036e-20
9.14585e-20
3.99392e-19
1.0386e-18
1.87593e-18
2.63705e-18
3.04733e-18
2.96114e-18
2.30305e-18
1.46506e-18
7.76177e-19
3.36845e-19
1.15274e-19
2.98341e-20
5.5883e-21
7.08223e-22
5.58243e-23
2.62587e-24
1.00754e-25
4.12013e-27
4.14318e-28
6.69759e-29
4.76395e-30
2.23559e-31
9.85088e-33
3.93041e-34
1.30987e-35
3.23263e-37
9.63501e-39
2.35584e-40
3.57849e-42
2.76436e-44
1.21667e-48
4.22548e-18
3.17656e-18
1.87368e-18
7.16247e-19
2.93565e-19
1.63547e-19
1.30488e-19
4.91962e-19
3.55201e-18
1.33713e-17
3.19882e-17
5.50722e-17
7.44961e-17
8.49477e-17
7.96855e-17
6.10173e-17
3.83984e-17
2.02547e-17
8.77969e-18
3.01581e-18
7.90539e-19
1.51692e-19
2.02649e-20
1.82089e-21
9.10219e-23
4.09656e-24
1.796e-25
1.31744e-26
1.93346e-27
1.34436e-28
6.22724e-30
2.65983e-31
1.00948e-32
3.02649e-34
9.80694e-36
3.34904e-37
7.88884e-39
1.23791e-40
1.01171e-42
5.15882e-47
1.75158e-17
1.80916e-17
1.25096e-17
4.85791e-18
2.38814e-18
1.77947e-18
2.16989e-18
1.93121e-17
1.15429e-16
3.78419e-16
8.39172e-16
1.38308e-15
1.7821e-15
1.92466e-15
1.73798e-15
1.30287e-15
8.07475e-16
4.2504e-16
1.85245e-16
6.44711e-17
1.72545e-17
3.40452e-18
4.75735e-19
4.63489e-20
2.89139e-21
1.31058e-22
6.13621e-24
3.82097e-25
4.93093e-26
3.34993e-27
1.56142e-28
6.51897e-30
2.32624e-31
7.38792e-33
2.89973e-34
9.82085e-36
2.34319e-37
3.80833e-39
3.17333e-41
1.76341e-45
5.35775e-17
7.46052e-17
5.78853e-17
2.21715e-17
1.37398e-17
1.24633e-17
5.99986e-17
7.0044e-16
3.5187e-15
9.88846e-15
2.03325e-14
3.1779e-14
3.86061e-14
3.75557e-14
3.29413e-14
2.43231e-14
1.45143e-14
7.48896e-15
3.25785e-15
1.1489e-15
3.15639e-16
6.4459e-17
9.37277e-18
9.63087e-19
7.01476e-20
3.37814e-21
1.68999e-22
9.94244e-24
1.10326e-24
7.51567e-26
3.59919e-27
1.47797e-28
4.89916e-30
1.90076e-31
7.99717e-33
2.63637e-34
6.40312e-36
1.07029e-37
9.01902e-40
5.42166e-44
2.99325e-16
3.22374e-16
1.93601e-16
9.37854e-17
8.70894e-17
1.55469e-16
2.45346e-15
2.63312e-14
7.82536e-14
1.72114e-13
3.09998e-13
4.4686e-13
5.41759e-13
5.42586e-13
4.94942e-13
3.80334e-13
2.29175e-13
1.16023e-13
5.01758e-14
1.74916e-14
4.86906e-15
1.03026e-15
1.55524e-16
1.6514e-17
1.29678e-18
7.64609e-20
3.82132e-21
2.23287e-22
2.28054e-23
1.5548e-24
7.61213e-26
3.08531e-27
1.04144e-28
4.61117e-30
1.99141e-31
6.50814e-33
1.61595e-34
2.76955e-36
2.35378e-38
1.53473e-42
2.63145e-16
4.09881e-16
6.03616e-16
2.51218e-15
5.44241e-15
1.16132e-14
6.7513e-14
3.34105e-13
5.86317e-13
1.10267e-12
1.73793e-12
2.28631e-12
2.82687e-12
3.74593e-12
3.96626e-12
3.33969e-12
2.39097e-12
1.40121e-12
6.74457e-13
2.4038e-13
6.62502e-14
1.41525e-14
2.17977e-15
2.33826e-16
1.83678e-17
1.16638e-18
6.89326e-20
4.59504e-21
4.30051e-22
2.92617e-23
1.46787e-24
5.90092e-26
2.22969e-27
1.04447e-28
4.39996e-30
1.46271e-31
3.74986e-33
6.58273e-35
5.63428e-37
4.01186e-41
1
1
1
1
1
1
1
1
1
1
1
1
1
1
1
1
1
1
1
1
1
0.999788
0.152585
3.47832e-05
7.06286e-07
1.43553e-08
-3.46692e-11
-3.38341e-26
-1.3389e-09
-1.99663e-09
-9.91389e-10
-2.74087e-10
-3.1133e-11
1.25475e-11
1.80009e-11
4.37545e-12
3.09101e-12
5.15099e-12
1.36904e-11
2.73576e-11
4.87748e-11
8.52157e-11
1.49322e-10
1
0.342533
-3.07565e-26
2.19807e-09
1
0.94707
0.406989
-2.09327e-05
1
1.00002
0.978708
0.839339
1
1
0.999916
0.999707
1
1
0.999998
0.999983
1
1
0.999999
1
1
1
1
1
1
1
1
1
1
1
1
1
1
1
1
1
1
1
1
1
0.999998
1.00001
1
1
0.550879
0.974654
0.99995
1
0.0204467
0.0810112
0.234829
0.682617
5.87884e-06
1.22223e-05
0.000663417
0.0267455
-5.58352e-07
-5.82444e-07
6.36964e-07
2.92031e-06
-2.15896e-09
4.10041e-09
-4.77579e-08
-2.1505e-07
7.42171e-11
3.25925e-11
1.81632e-10
2.58843e-09
-2.89125e-10
0
2.93554e-11
1.02642e-10
-1.34001e-09
-5.95691e-10
-1.78184e-10
-1.40729e-11
-9.53745e-10
-7.90033e-10
-5.38225e-10
-2.75605e-10
-3.10276e-10
-3.23021e-10
-2.97299e-10
-2.36795e-10
-2.99748e-11
-3.43892e-11
-3.91382e-11
-3.92274e-11
2.4758e-11
3.90251e-11
5.42405e-11
6.89972e-11
2.28353e-11
2.80253e-11
3.46311e-11
4.36648e-11
6.01464e-12
8.32326e-12
1.14945e-11
1.56669e-11
4.78717e-12
7.10432e-12
1.02253e-11
1.42856e-11
8.70597e-12
1.36419e-11
2.02332e-11
2.82966e-11
2.28312e-11
3.60303e-11
5.3685e-11
7.38652e-11
4.72977e-11
7.67159e-11
1.13752e-10
1.52429e-10
8.93609e-11
1.39642e-10
1.95069e-10
2.63647e-10
1.60061e-10
2.19825e-10
2.89237e-10
4.64891e-10
2.7096e-10
3.22471e-10
4.17789e-10
7.6593e-10
2.80501e-16
3.44103e-16
2.87814e-16
3.56e-16
2.17754e-16
2.04372e-16
1.17043e-13
6.48152e-13
2.95592e-12
3.73363e-12
4.96367e-12
5.71529e-12
6.67493e-12
1.24684e-11
1.46569e-11
1.27219e-11
1.05962e-11
8.82052e-12
5.68138e-12
2.63586e-12
8.47216e-13
1.90469e-13
2.88961e-14
3.0172e-15
2.16526e-16
1.21943e-17
8.14242e-19
6.88134e-20
7.058e-21
5.03448e-22
2.61257e-23
1.0623e-24
4.38579e-26
2.10564e-27
8.90972e-29
3.05425e-30
8.10421e-32
1.46241e-33
1.2642e-35
9.91414e-40
-2.58429e-05
-6.05857e-08
-5.93751e-08
-6.6971e-11
-5.83453e-09
-2.77434e-10
-3.44745e-12
-8.07041e-12
2.55867e-11
4.18109e-11
4.38202e-11
4.47343e-11
4.45738e-11
4.35345e-11
3.85587e-11
2.99831e-11
2.42651e-11
2.71685e-11
2.10651e-11
1.30555e-11
6.66224e-12
2.1037e-12
3.5428e-13
3.53872e-14
2.00461e-15
1.07012e-16
7.36986e-18
6.71052e-19
9.6863e-20
8.08876e-21
4.35977e-22
1.78848e-23
7.82365e-25
3.82818e-26
1.67103e-27
5.95922e-29
1.63759e-30
3.04284e-32
2.65618e-34
2.32482e-38
0.285179
6.79499e-05
-6.65506e-05
-4.78304e-06
-5.21599e-09
-7.82326e-08
-2.99342e-09
-1.2641e-09
1.25558e-25
1.67221e-10
5.17307e-10
3.47143e-10
2.71065e-10
1.71463e-10
1.69012e-10
1.38564e-10
1.10391e-10
8.16189e-11
4.81254e-11
3.13494e-11
2.39773e-11
1.12062e-11
3.09726e-12
3.98241e-13
1.88224e-14
9.39684e-16
6.79083e-17
5.86574e-18
1.24431e-18
1.31561e-19
7.36351e-21
3.0003e-22
1.29925e-23
6.88308e-25
3.18706e-26
1.17799e-27
3.35415e-29
6.42749e-31
5.65366e-33
5.62077e-37
0.9527
0.777422
0.266515
0.00020479
-5.91831e-06
-4.78101e-06
1.04489e-08
-1.37325e-07
-2.69514e-08
9.278e-10
6.02416e-09
8.18666e-09
3.03503e-09
1.60153e-09
1.19096e-09
7.32251e-10
4.63718e-10
3.31283e-10
2.05048e-10
1.24524e-10
5.85871e-11
2.55687e-11
1.25871e-11
2.82235e-12
1.92397e-13
1.04191e-14
8.14067e-16
6.32438e-17
1.79493e-17
2.34868e-18
1.37023e-19
5.47776e-21
2.18976e-22
1.17454e-23
6.20075e-25
2.61701e-26
7.82457e-28
1.53674e-29
1.2326e-31
1.46808e-35
0.999918
0.999755
0.949626
0.816963
0.430113
0.0193571
1.11386e-05
-2.18381e-05
-5.33937e-07
5.80581e-08
5.18956e-07
1.43253e-07
1.31596e-07
1.10213e-07
1.10505e-08
4.44181e-09
3.03154e-09
2.35327e-09
1.12018e-09
5.60646e-10
2.51153e-10
1.02431e-10
3.44492e-11
8.24251e-12
1.59844e-12
1.35632e-13
1.06352e-14
8.25997e-16
3.1574e-16
4.90591e-17
2.90853e-18
1.13008e-19
4.12791e-21
2.20807e-22
1.22681e-23
5.76096e-25
2.10635e-26
4.2149e-28
3.56426e-30
5.04865e-34
0.999999
0.999989
0.999951
0.99987
0.977303
0.891137
0.621479
0.128186
9.52959e-05
-2.31777e-06
8.89386e-07
5.15649e-07
2.41108e-05
1.27254e-05
1.3043e-06
3.42372e-08
1.60265e-08
1.18014e-08
1.09329e-08
5.47907e-09
1.76682e-09
5.64841e-10
1.92375e-10
5.66582e-11
1.18524e-11
1.91452e-12
1.83469e-13
1.76799e-14
6.10404e-15
9.34714e-16
6.0278e-17
2.47761e-18
8.92462e-20
4.84436e-21
2.8189e-22
1.3869e-23
5.60568e-25
1.30242e-26
1.15491e-28
1.93011e-32
0.999999
1
1
0.999994
0.999981
0.999949
0.995055
0.945978
0.76019
0.278585
0.00503531
1.96597e-05
2.22019e-05
1.34945e-05
8.74564e-05
5.55518e-05
8.10688e-06
1.02811e-07
6.71959e-08
3.70171e-08
1.95012e-08
6.91381e-09
1.63544e-09
3.83362e-10
9.67062e-11
1.86621e-11
3.56871e-12
5.63363e-13
1.33659e-13
1.71843e-14
1.20223e-15
5.4615e-17
2.05873e-18
1.15483e-19
7.04532e-21
3.62922e-22
1.48402e-23
4.11463e-25
3.81311e-27
7.59095e-31
1
0.999999
0.999999
0.999999
1
0.999997
0.999993
0.99998
0.9996
0.973035
0.828873
0.364184
0.0196933
9.93918e-05
9.77873e-05
0.000129318
0.00024834
0.000101909
8.70217e-06
1.68276e-07
2.16074e-07
8.21783e-08
2.24568e-08
4.95735e-09
9.36949e-10
1.69217e-10
2.94685e-11
1.11576e-11
2.79865e-12
3.32404e-13
2.3681e-14
1.14717e-15
4.75521e-17
2.82843e-18
1.80684e-19
9.72186e-21
4.17093e-22
1.1787e-23
1.06236e-25
2.69438e-29
1
1
0.999999
0.999999
0.999999
0.999998
0.999998
0.999997
0.999996
0.999989
0.999959
0.982031
0.829563
0.341108
0.0164698
0.000282682
0.000259298
0.000374656
0.000324725
8.2507e-05
4.15657e-06
6.57739e-07
2.29895e-07
5.8617e-08
1.2521e-08
2.12988e-09
3.56448e-10
6.55799e-11
1.7707e-11
3.67692e-12
3.97121e-13
2.12666e-14
1.00048e-15
6.61181e-17
4.43985e-18
2.50059e-19
1.07177e-20
2.54432e-22
2.29885e-24
7.57376e-28
1
1
1
0.999999
0.999999
0.999998
0.999998
0.999998
0.999997
0.999996
0.999995
0.999991
0.999962
0.97646
0.744299
0.212662
0.00293755
0.000505238
0.000391788
0.000418131
0.000200897
1.85832e-05
1.62279e-06
5.69594e-07
1.23103e-07
2.1756e-08
3.6561e-09
4.68753e-10
7.60149e-11
1.36262e-11
2.19225e-12
2.23734e-13
1.66146e-14
1.24992e-15
8.71147e-17
4.67263e-18
1.80509e-19
4.3348e-21
4.18194e-23
1.6695e-26
1
1
0.999999
0.999999
0.999999
0.999999
0.999998
0.999998
0.999997
0.999996
0.999996
0.999995
0.999994
0.999989
0.999773
0.93138
0.520098
0.0589056
0.000990585
0.000613749
0.000368344
0.000214639
5.55569e-05
2.75457e-06
7.30901e-07
2.11636e-07
3.55496e-08
2.72879e-09
2.61748e-10
5.60029e-11
1.04156e-11
1.44964e-12
1.72149e-13
1.70046e-14
1.26517e-15
7.04585e-17
2.85791e-18
7.21706e-20
7.33306e-22
3.43345e-25
1
1
1
0.999999
0.999999
0.999998
0.999998
0.999998
0.999998
0.999997
0.999995
0.999995
0.999995
0.999994
0.999993
0.99998
0.986902
0.740861
0.186988
0.00217522
0.000874972
0.000426507
0.00014895
5.09248e-05
9.90197e-06
1.17947e-06
1.86143e-07
1.82817e-08
1.9145e-09
2.75723e-10
4.05043e-11
8.82847e-12
1.37757e-12
1.46772e-13
1.4319e-14
1.04305e-15
4.66243e-17
1.23249e-18
1.29233e-20
6.94853e-24
1
1
1
0.999999
0.999999
0.999998
0.999998
0.999997
0.999997
0.999997
0.999997
0.999997
0.999994
0.999994
0.999994
0.999993
0.999994
0.999878
0.853531
0.311281
0.0117236
0.00122615
0.000473397
0.000163667
4.24224e-05
8.50162e-06
1.31209e-06
1.22733e-07
1.65827e-08
2.37657e-09
3.3694e-10
4.56926e-11
8.65927e-12
1.41822e-12
1.60995e-13
1.41009e-14
7.20552e-16
2.028e-17
2.21375e-19
1.35913e-22
0.990837
0.999983
1
1
0.999999
0.999999
0.999998
0.999997
0.999997
0.999997
0.999995
0.999996
0.999995
0.999995
0.999993
0.999993
0.999993
0.999992
0.999948
0.901914
0.386152
0.022078
0.00171046
0.000582584
0.000179431
4.40657e-05
7.15451e-06
1.05484e-06
1.62534e-07
2.3161e-08
3.31628e-09
4.82487e-10
6.55632e-11
1.25935e-11
1.88448e-12
1.5233e-13
8.22949e-15
2.52982e-16
3.02757e-18
2.13066e-21
0.0893424
0.324831
0.793866
0.992329
0.999988
0.999997
0.999997
0.999997
0.999997
0.999996
0.999995
0.999995
0.999995
0.999994
0.999994
0.999993
0.999993
0.999992
0.999991
0.999951
0.911226
0.392488
0.0232256
0.00232389
0.000654321
0.000172996
3.96814e-05
7.44408e-06
1.27502e-06
1.96815e-07
3.11462e-08
4.6548e-09
6.48988e-10
8.05255e-11
1.09925e-11
1.10051e-12
7.05615e-14
2.478e-15
3.24581e-17
2.53378e-20
5.97338e-06
0.00418641
0.0295972
0.114574
0.454248
0.882844
0.992317
0.998603
0.99947
0.999865
0.999977
0.999994
0.999994
0.999994
0.999993
0.999993
0.999992
0.999991
0.999991
0.99999
0.999951
0.893177
0.345259
0.0149453
0.00243191
0.000648277
0.000158871
3.49826e-05
6.67918e-06
1.2034e-06
1.97216e-07
2.85761e-08
3.73256e-09
4.61734e-10
4.84448e-11
5.41659e-12
4.35155e-13
1.84052e-14
2.61951e-16
2.2372e-19
8.34195e-08
3.39305e-07
8.22849e-07
0.00023546
0.00719478
0.0351484
0.205471
0.668024
0.959693
0.995076
0.998259
0.999509
0.999923
0.999985
0.999991
0.999991
0.999991
0.999989
0.999988
0.999987
0.999985
0.999943
0.835307
0.240254
0.00673474
0.00175496
0.000480762
0.000110224
2.33672e-05
4.50691e-06
7.79006e-07
1.19666e-07
1.62178e-08
1.97789e-09
2.1976e-10
1.92178e-11
1.80096e-12
1.01123e-13
1.61883e-15
1.47877e-18
1.74721e-09
-3.55026e-08
1.50511e-08
3.30482e-08
1.10688e-07
0.000123251
0.00217291
0.0120882
0.0989882
0.493116
0.910328
0.993464
0.997969
0.999448
0.999929
0.999984
0.999987
0.999987
0.999985
0.999982
0.999982
0.999977
0.999915
0.708577
0.119154
0.00383533
0.0011857
0.000309788
6.86837e-05
1.39019e-05
2.53248e-06
4.1027e-07
5.83532e-08
7.22591e-09
8.07459e-10
7.4836e-11
5.21817e-12
3.71149e-13
8.14773e-15
7.80027e-18
6.00735e-10
1.70661e-09
5.4094e-09
1.25352e-08
4.79584e-08
4.34068e-07
9.46342e-06
0.000157453
0.00118464
0.00607595
0.0740307
0.453253
0.904361
0.996455
0.998993
0.999771
0.999961
0.999975
0.999978
0.999976
0.999972
0.999971
0.999963
0.972367
0.492797
0.033952
0.00239311
0.00072183
0.000174261
3.66362e-05
6.97211e-06
1.18391e-06
1.7652e-07
2.2691e-08
2.51669e-09
2.45734e-10
1.72224e-11
1.07885e-12
2.97973e-14
-5.34564e-17
7.97517e-13
6.96031e-11
4.13632e-10
1.69743e-09
5.30157e-09
2.06802e-09
2.30629e-07
4.5398e-06
3.53073e-05
0.00022272
0.00105671
0.00566345
0.111137
0.572355
0.959029
0.999347
0.999611
0.99985
0.999938
0.999963
0.999957
0.999952
0.999949
0.999926
0.851472
0.23097
0.00539165
0.00148186
0.000389284
8.44551e-05
1.6659e-05
2.94425e-06
4.58118e-07
6.13259e-08
6.92015e-09
6.73442e-10
5.12309e-11
2.63041e-12
9.15157e-14
-7.2098e-19
-8.6469e-11
-1.3586e-11
1.45399e-11
8.68981e-11
2.97691e-10
8.44378e-10
2.11633e-10
3.9727e-10
5.75787e-07
7.90735e-06
6.98436e-05
0.000350507
0.0005215
0.0195083
0.279773
0.824468
0.998053
0.999331
0.999745
0.999879
0.999929
0.99992
0.999905
0.999887
0.995347
0.567734
0.0475692
0.00240988
0.000745875
0.000176043
3.56733e-05
6.50671e-06
1.0492e-06
1.45747e-07
1.69335e-08
1.63447e-09
1.29904e-10
6.63933e-12
2.39238e-13
-6.02432e-19
-1.50685e-10
-7.30962e-11
-2.24616e-11
3.34297e-12
3.97802e-11
9.74854e-11
1.93153e-10
2.19253e-10
1.78416e-10
9.37534e-08
1.44705e-06
2.15627e-05
0.000149507
0.000221849
0.000912016
0.141647
0.680864
0.987912
0.998879
0.999592
0.999808
0.999869
0.999852
0.999827
0.999796
0.853489
0.217032
0.00488997
0.00134431
0.000331147
6.85264e-05
1.28256e-05
2.13194e-06
3.0621e-07
3.67215e-08
3.57576e-09
2.8602e-10
1.5486e-11
5.25638e-13
-8.3164e-15
-3.21853e-11
-2.06562e-11
-8.79372e-12
3.48516e-13
1.96332e-11
5.14267e-11
8.75116e-11
1.07969e-10
1.17062e-10
1.54128e-10
3.00385e-10
3.90201e-07
6.95029e-06
4.62752e-05
1.05933e-08
1.19159e-05
0.0958476
0.619378
0.980629
0.998198
0.999396
0.999716
0.999773
0.999752
0.999715
0.982465
0.473878
0.0215481
0.00195525
0.000564502
0.000120609
2.29964e-05
3.91264e-06
5.77392e-07
7.1211e-08
7.06086e-09
5.60442e-10
3.18557e-11
1.05877e-12
-1.39965e-18
8.33543e-11
9.7196e-11
1.07862e-10
1.14091e-10
1.21038e-10
1.3242e-10
1.45476e-10
1.52242e-10
1.54038e-10
1.51943e-10
1.57948e-10
2.4402e-10
8.53291e-10
1.14738e-08
5.49112e-09
-2.52412e-08
1.19057e-05
0.102725
0.651385
0.985941
0.997507
0.999171
0.999595
0.999587
0.999584
0.999417
0.724139
0.100149
0.00298377
0.000850951
0.000195086
3.77602e-05
6.54945e-06
9.88738e-07
1.25002e-07
1.26707e-08
1.00513e-09
5.92667e-11
1.96354e-12
-9.19641e-16
5.7214e-11
7.55552e-11
1.00317e-10
1.34935e-10
1.61102e-10
1.65469e-10
1.65469e-10
1.65159e-10
1.61965e-10
1.57879e-10
1.57917e-10
1.51288e-10
1.06842e-10
1.53763e-10
-1.5953e-09
1.22186e-09
-1.03635e-07
9.05186e-06
0.162917
0.766041
0.993636
0.997753
0.999015
0.999388
0.999305
0.999193
0.877127
0.234102
0.00469645
0.00125053
0.000290196
5.67812e-05
1.00076e-05
1.53982e-06
1.98893e-07
2.06185e-08
1.64975e-09
9.84487e-11
3.27681e-12
-5.17803e-18
2.13992e-11
3.01932e-11
4.50374e-11
6.93275e-11
1.02002e-10
1.34551e-10
1.55462e-10
1.61523e-10
1.61009e-10
1.59257e-10
1.57878e-10
1.57731e-10
1.61703e-10
1.05835e-10
1.24828e-11
-1.01383e-09
-2.04385e-08
1.80271e-07
2.26632e-05
0.331794
0.909538
0.995751
0.99791
0.998884
0.99912
0.998969
0.956966
0.389508
0.00966507
0.00174493
0.000402123
7.89403e-05
1.40148e-05
2.17374e-06
2.83588e-07
2.97665e-08
2.39544e-09
1.43157e-10
4.83791e-12
-8.56445e-15
1.97235e-11
2.67679e-11
3.51145e-11
4.54601e-11
6.01809e-11
8.16786e-11
1.07838e-10
1.31472e-10
1.47631e-10
1.55882e-10
1.58022e-10
1.58141e-10
1.6095e-10
1.17034e-10
8.30436e-12
-6.1942e-09
-1.09476e-11
-8.43623e-09
2.21431e-07
0.0654339
0.633329
0.987274
0.996111
0.997828
0.998664
0.998554
0.992969
0.524889
0.0279392
0.00163732
0.000499909
0.000101517
1.81611e-05
2.84171e-06
3.75894e-07
4.02534e-08
3.30826e-09
1.99201e-10
6.78057e-12
-9.49002e-15
3.77873e-11
4.83613e-11
5.85511e-11
6.76403e-11
7.72406e-11
9.03328e-11
1.08328e-10
1.28065e-10
1.45552e-10
1.58188e-10
1.65244e-10
1.70447e-10
1.77483e-10
1.64606e-10
4.63103e-11
-3.00503e-10
-3.75555e-11
-4.594e-10
6.40345e-09
5.2281e-06
0.315087
0.91555
0.994708
0.996688
0.997978
0.998317
0.997636
0.623557
0.0531356
0.00195351
0.000582328
0.000120799
2.14656e-05
3.39467e-06
4.54024e-07
4.8313e-08
3.91566e-09
2.39168e-10
7.16197e-12
-7.63249e-18
9.60398e-11
1.20016e-10
1.43473e-10
1.62125e-10
1.73621e-10
1.76757e-10
1.76353e-10
1.7733e-10
1.80656e-10
1.86551e-10
1.93927e-10
2.00276e-10
2.13461e-10
1.88356e-10
-1.1857e-10
-1.29111e-10
-3.66122e-10
-3.51364e-08
-1.17136e-10
1.36086e-07
0.125769
0.766204
0.991688
0.994928
0.996644
0.997329
0.996771
0.698611
0.0806912
0.00219007
0.000632919
0.000129879
2.32542e-05
3.6892e-06
4.91354e-07
5.18782e-08
4.08851e-09
2.37949e-10
8.77749e-12
2.0836e-14
1.95561e-10
2.44277e-10
2.96686e-10
3.59855e-10
4.12597e-10
4.12957e-10
3.98077e-10
3.67027e-10
3.21717e-10
2.74222e-10
2.41746e-10
2.35215e-10
2.42795e-10
2.3831e-10
7.15237e-11
-2.0475e-13
-6.43549e-11
-2.50673e-09
0
3.82825e-09
0.0465288
0.621906
0.985773
0.992754
0.994882
0.996657
0.995834
0.720449
0.0938536
0.00224488
0.000628227
0.000126766
2.36102e-05
3.99617e-06
5.48941e-07
5.83085e-08
4.00327e-09
1.74091e-10
1.96818e-12
8.81137e-14
3.4658e-10
4.30904e-10
5.31963e-10
6.55941e-10
6.85283e-10
6.69869e-10
6.53377e-10
6.54053e-10
6.49025e-10
6.03662e-10
5.32358e-10
4.36776e-10
3.3469e-10
3.17884e-10
2.96401e-10
4.51783e-11
0
-1.30511e-10
-5.31529e-14
1.13663e-10
0.0164238
0.526305
0.975095
0.990924
0.993391
0.995615
0.994565
0.697517
0.0837237
0.00203425
0.000554952
0.000122648
2.56488e-05
4.55213e-06
6.2101e-07
6.33308e-08
4.1749e-09
1.95388e-10
6.32167e-12
8.95927e-13
6.80433e-10
8.20061e-10
1.21639e-09
1.64616e-09
1.57296e-09
1.13518e-09
6.73671e-10
6.47348e-10
6.4463e-10
7.28253e-10
8.24939e-10
8.37502e-10
7.90344e-10
5.54455e-10
2.93388e-10
3.60926e-09
9.27076e-09
5.71133e-09
5.24116e-10
2.19481e-09
0.0040003
0.458121
0.959768
0.989734
0.99233
0.994218
0.993045
0.632816
0.0596459
0.00167131
0.00048092
0.000124712
2.86971e-05
4.8071e-06
6.08579e-07
5.72617e-08
4.26577e-09
2.17857e-10
1.27936e-11
2.54958e-12
1.11068e-09
1.53459e-09
3.02929e-09
3.61023e-09
2.81462e-09
8.16492e-10
6.7006e-10
6.57107e-10
6.49464e-10
6.59293e-10
7.11879e-10
8.47083e-10
9.28709e-10
6.54975e-10
3.17573e-10
3.57927e-10
1.46172e-07
1.07535e-07
7.20144e-09
7.12238e-09
0.00855456
0.484165
0.962151
0.987507
0.99138
0.992759
0.978828
0.526391
0.0325202
0.00127116
0.000429066
0.000123034
2.51168e-05
4.10865e-06
5.39119e-07
5.50138e-08
4.69145e-09
3.34771e-10
3.28876e-11
4.59496e-12
)
;

boundaryField
{
    leftWall
    {
        type            zeroGradient;
    }
    rightWall
    {
        type            zeroGradient;
    }
    lowerWall
    {
        type            zeroGradient;
    }
    atmosphere
    {
        type            inletOutlet;
        inletValue      nonuniform 0();
        value           nonuniform 0();
    }
    defaultFaces
    {
        type            empty;
    }
    procBoundary1to0
    {
        type            processor;
        value           nonuniform List<scalar> 
44
(
1
0.98476
0.965897
0.978146
0.99641
0.999999
1
1
1
1
1
1
1
1
1
1
1
1
1
1
1.00004
1.00004
0.765983
0.0393482
1.15946e-05
-5.01545e-07
-1.03379e-09
-1.82347e-11
-8.01241e-10
-3.3743e-09
-2.36368e-09
-9.1949e-10
-2.36526e-10
-3.69327e-11
3.48235e-12
1.31281e-11
3.31809e-12
1.91181e-12
2.76098e-12
7.51793e-12
1.4809e-11
2.44713e-11
3.82916e-11
6.04775e-11
)
;
    }
    procBoundary1to3
    {
        type            processor;
        value           nonuniform List<scalar> 
45
(
2.58535e-10
4.27602e-10
4.59644e-10
5.61023e-10
8.68841e-10
1.14215e-09
2.39859e-09
3.80542e-09
2.45253e-09
2.48648e-09
1.24409e-08
4.06868e-07
4.26034e-07
9.6715e-08
6.72311e-10
7.0888e-10
8.59947e-10
9.30497e-10
4.65874e-10
3.58355e-10
2.87748e-07
7.90486e-08
5.20657e-08
4.2153e-08
1.82515e-08
0.0311326
0.563118
0.971201
0.984923
0.990177
0.991785
0.932839
0.381916
0.00975901
0.00127428
0.000392327
0.000102388
2.14225e-05
3.48312e-06
4.96318e-07
5.86249e-08
5.75464e-09
5.30357e-10
6.54454e-11
6.07571e-12
)
;
    }
}


// ************************************************************************* //
