/*--------------------------------*- C++ -*----------------------------------*\
| =========                 |                                                 |
| \\      /  F ield         | OpenFOAM: The Open Source CFD Toolbox           |
|  \\    /   O peration     | Version:  5.0                                   |
|   \\  /    A nd           | Web:      www.OpenFOAM.org                      |
|    \\/     M anipulation  |                                                 |
\*---------------------------------------------------------------------------*/
FoamFile
{
    version     2.0;
    format      ascii;
    class       volScalarField;
    location    "0.45";
    object      k;
}
// * * * * * * * * * * * * * * * * * * * * * * * * * * * * * * * * * * * * * //

dimensions      [0 2 -2 0 0 0 0];

internalField   nonuniform List<scalar> 
1915
(
0.0249888
0.019988
0.0541077
0.0336591
0.08233
0.045796
0.108082
0.0597198
0.130634
0.0725485
0.150758
0.0845923
0.169677
0.0980197
0.188542
0.111552
0.209
0.127738
0.232263
0.149312
0.00828649
0.0138588
0.0168453
0.0168632
0.0168068
0.0168432
0.0169186
0.0173073
0.0183584
0.019236
0.0198884
0.020345
0.020624
0.0207375
0.0207041
0.0206141
0.0205029
0.0202994
0.0199712
0.0195155
0.0189591
0.0183065
0.0177186
0.0171203
0.0171615
0.0170371
0.0168211
0.0169597
0.0167117
0.0167969
0.0167103
0.0166
0.0167982
0.0165994
0.0160278
0.0149873
0.0133974
0.0111881
0.00846477
0.00669521
0.00873692
0.0193979
0.0244658
0.0273896
0.0296343
0.0318233
0.0339612
0.0360568
0.0379068
0.039435
0.0406837
0.0416616
0.0423671
0.0427951
0.0429399
0.0427927
0.0423589
0.041656
0.0407014
0.0395203
0.0381479
0.0366219
0.0350047
0.0333217
0.0315698
0.0299242
0.0283365
0.0268532
0.0255814
0.0244165
0.0234339
0.0225482
0.0217479
0.0209124
0.0198626
0.0184402
0.0165082
0.0139475
0.010738
0.00793325
0.0123712
0.0256701
0.0320373
0.036116
0.0392142
0.0418944
0.044334
0.0465748
0.0485539
0.0502409
0.0516432
0.0527526
0.0535558
0.0540387
0.0541873
0.0539819
0.0534211
0.052531
0.0513389
0.0498783
0.0481892
0.0463158
0.0443122
0.04222
0.040076
0.0379642
0.0359124
0.0339701
0.0321686
0.0305164
0.0290106
0.0276091
0.0262613
0.024915
0.023424
0.0216261
0.0193574
0.0164524
0.0126991
0.00855673
0.016257
0.0317346
0.0388017
0.0434102
0.0469056
0.049812
0.0523553
0.0546374
0.0566451
0.0583749
0.0598179
0.0609566
0.0617713
0.0622428
0.0623527
0.0620775
0.0614153
0.0603935
0.0590429
0.0574004
0.0555082
0.0534133
0.051168
0.048822
0.0464243
0.0440366
0.0417027
0.0394647
0.0373647
0.0354074
0.0335809
0.0318519
0.0301726
0.0284747
0.0266422
0.0245283
0.0219647
0.0187551
0.0145051
0.00865152
0.019782
0.0375311
0.0451547
0.0500847
0.0538142
0.0568647
0.0594837
0.0618066
0.0638344
0.0655726
0.0670095
0.068126
0.0689019
0.069318
0.0693553
0.0689898
0.068223
0.0670826
0.0656004
0.0638135
0.0617648
0.0595016
0.0570755
0.0545388
0.0519439
0.0493456
0.0467906
0.044319
0.0419763
0.0397661
0.0376764
0.0356777
0.0337222
0.0317385
0.0296215
0.0272341
0.0244074
0.0209165
0.0162369
0.00876606
0.0233426
0.0432726
0.0513957
0.056564
0.0604636
0.0636439
0.0663585
0.0687552
0.0708199
0.0725583
0.073961
0.075014
0.0757035
0.076016
0.0759369
0.0754454
0.0745508
0.0732817
0.071669
0.0697492
0.0675634
0.0651576
0.0625816
0.0598867
0.0571246
0.0543464
0.0515979
0.0489181
0.046352
0.0439042
0.0415651
0.0393085
0.0370897
0.0348395
0.0324592
0.029817
0.026741
0.0229763
0.0178994
0.00892131
0.0272303
0.0493247
0.0578676
0.0632459
0.0673168
0.0706593
0.0735181
0.0760422
0.0781703
0.0799024
0.0812359
0.0821695
0.0827036
0.0828389
0.0825708
0.0818886
0.0808147
0.079379
0.0776116
0.075546
0.0732205
0.0706772
0.0679622
0.0651235
0.0622091
0.0592662
0.0563378
0.0534615
0.0506794
0.0479975
0.0454084
0.0428903
0.040403
0.037883
0.0352377
0.0323391
0.0290104
0.0249656
0.01949
0.0095417
0.0318808
0.0563747
0.0652239
0.070833
0.0751374
0.0787083
0.0817703
0.0844731
0.0866673
0.0883501
0.0895333
0.0902381
0.0904899
0.0903134
0.0897235
0.088731
0.0873766
0.0856925
0.0837076
0.0814513
0.0789559
0.0762573
0.073395
0.0704106
0.0673463
0.0642436
0.061141
0.0580732
0.0550775
0.0521608
0.049317
0.046528
0.0437594
0.0409549
0.0380288
0.034857
0.031257
0.0269129
0.021029
0.0102926
0.0382943
0.0659211
0.0751024
0.0809932
0.0855881
0.0894015
0.0926605
0.0954816
0.0976315
0.0991056
0.0999397
0.100188
0.0999118
0.0991728
0.0980166
0.0964966
0.0946722
0.0925816
0.0902526
0.0877081
0.0849711
0.0820667
0.0790234
0.0758726
0.0726467
0.0693786
0.0661
0.0628407
0.0596315
0.0564782
0.053374
0.0503035
0.047238
0.0441288
0.0408977
0.0374252
0.0335232
0.0288492
0.0225347
0.0110699
0.05155
0.0828458
0.0922161
0.0979785
0.102421
0.10606
0.10912
0.111606
0.113283
0.114123
0.114175
0.113526
0.112276
0.11053
0.10839
0.105962
0.10333
0.100545
0.0976374
0.0946205
0.091502
0.0882893
0.0849928
0.0816266
0.0782078
0.0747555
0.0712901
0.0678329
0.0644089
0.0610165
0.0576463
0.0542844
0.0509063
0.0474703
0.0439057
0.0400978
0.0358544
0.0308101
0.024032
0.0118507
0.250032
0.187982
0.261498
0.22926
0.271891
0.255992
0.282331
0.273433
0.292902
0.287637
0.303465
0.300277
0.313891
0.311926
0.324117
0.322859
0.334114
0.333221
0.343874
0.343119
0.352688
0.362376
0.372749
0.38354
0.390519
0.393547
0.394095
0.393402
0.392758
0.393055
0.39464
0.397479
0.401253
0.40546
0.409525
0.41287
0.414991
0.415523
0.414287
0.411308
0.40681
0.401185
0.394947
0.141525
0.0841406
0.0727922
0.096821
0.18799
0.161053
0.14924
0.205053
0.226866
0.201254
0.186184
0.19136
0.25543
0.235073
0.218038
0.208499
0.276496
0.262042
0.247224
0.23453
0.293106
0.28301
0.271424
0.259738
0.307109
0.299941
0.291112
0.281389
0.31948
0.31424
0.307466
0.299588
0.330714
0.326737
0.321429
0.315033
0.341123
0.337961
0.333673
0.328397
0.350956
0.348309
0.344712
0.340249
0.360592
0.358143
0.354974
0.351076
0.370573
0.368046
0.365038
0.361396
0.381028
0.378488
0.375504
0.371815
0.390567
0.38903
0.386528
0.382656
0.39543
0.395795
0.395503
0.393208
0.396921
0.398811
0.399972
0.399673
0.396682
0.39917
0.401058
0.40204
0.396188
0.398845
0.400916
0.402343
0.396494
0.399086
0.401032
0.402406
0.398075
0.400533
0.40222
0.403281
0.40096
0.403304
0.404715
0.405366
0.404869
0.40717
0.408351
0.408599
0.409284
0.411637
0.41269
0.412606
0.413604
0.416079
0.417096
0.416799
0.417216
0.419852
0.420905
0.420499
0.419576
0.42238
0.423514
0.423082
0.420287
0.423233
0.424462
0.424065
0.419151
0.422192
0.42351
0.423186
0.416195
0.419286
0.420681
0.42046
0.41167
0.414788
0.416269
0.416192
0.406021
0.409192
0.41081
0.410951
0.39983
0.403148
0.405019
0.405504
0.10374
0.118226
0.129062
0.131525
0.133168
0.134858
0.136051
0.136895
0.137032
0.136343
0.134813
0.132518
0.129572
0.126127
0.122343
0.118381
0.114371
0.110398
0.106498
0.102679
0.0989251
0.0952155
0.0915304
0.0878551
0.0841807
0.0805045
0.0768283
0.0731593
0.0695131
0.0658755
0.0622319
0.058567
0.0548589
0.051071
0.0471395
0.0429543
0.0383205
0.0328541
0.0255649
0.0126476
0.188784
0.191266
0.19506
0.190755
0.18576
0.18286
0.178996
0.175883
0.172714
0.169147
0.164906
0.159974
0.154408
0.148354
0.142015
0.135614
0.129362
0.123408
0.11783
0.112642
0.107807
0.103263
0.0989444
0.0947879
0.0907417
0.0867655
0.082831
0.0789218
0.0750368
0.0711425
0.0672145
0.0632331
0.0591759
0.0550091
0.0506734
0.0460631
0.040981
0.0350285
0.0271642
0.0134688
0.188163
0.200014
0.217253
0.23258
0.240256
0.241569
0.235055
0.228034
0.220649
0.213435
0.205747
0.197471
0.188591
0.179182
0.169451
0.159667
0.150154
0.141187
0.132954
0.125535
0.118907
0.112976
0.107612
0.102683
0.0980661
0.0936595
0.0893847
0.0851863
0.0810351
0.0768675
0.0726427
0.0683318
0.0639085
0.0593381
0.054563
0.0494792
0.0438878
0.0373782
0.0288626
0.014328
0.200888
0.199436
0.204292
0.218314
0.236409
0.254801
0.266873
0.273665
0.269859
0.262544
0.253273
0.242753
0.231193
0.218679
0.205507
0.191949
0.178475
0.16554
0.153553
0.142793
0.133362
0.125201
0.118141
0.111963
0.106445
0.101389
0.0966355
0.0920642
0.0875988
0.0831289
0.0785881
0.0739318
0.0691243
0.0641258
0.0588761
0.0532699
0.0471044
0.0399579
0.0306992
0.0152411
0.223018
0.214833
0.210898
0.212286
0.218606
0.230695
0.247375
0.265369
0.281236
0.290699
0.291456
0.285209
0.275168
0.262349
0.247662
0.231467
0.214512
0.197468
0.181066
0.165957
0.152574
0.141081
0.131388
0.123239
0.116301
0.110244
0.104785
0.0997043
0.0948408
0.0900188
0.0851308
0.0801066
0.0748939
0.069442
0.0636831
0.0575054
0.0506984
0.0428275
0.0327175
0.0162255
0.247743
0.237066
0.228646
0.223205
0.221237
0.22336
0.229593
0.239896
0.254811
0.271704
0.288249
0.299801
0.30354
0.298212
0.287459
0.272589
0.254983
0.235533
0.21543
0.195842
0.177763
0.161867
0.148426
0.137332
0.128222
0.12063
0.114111
0.108303
0.102906
0.0976494
0.0923632
0.086937
0.0812921
0.0753591
0.0690559
0.062258
0.0547408
0.0460517
0.0349658
0.0173004
0.270602
0.259895
0.250076
0.241691
0.235246
0.231272
0.230212
0.232493
0.238428
0.24785
0.261108
0.276791
0.29272
0.304975
0.308744
0.303129
0.290946
0.273837
0.253304
0.231084
0.208918
0.188298
0.170242
0.15517
0.142945
0.133085
0.124992
0.118125
0.111983
0.106161
0.100395
0.0945138
0.0883991
0.0819522
0.075068
0.0676012
0.0593045
0.0496985
0.0374969
0.0184875
0.290401
0.280655
0.271003
0.261841
0.253552
0.246543
0.241243
0.23811
0.237585
0.240025
0.245746
0.254675
0.266792
0.281372
0.295974
0.306699
0.308312
0.301019
0.286325
0.266399
0.243294
0.219445
0.197002
0.177397
0.161197
0.148231
0.1379
0.129511
0.122317
0.11573
0.109357
0.102941
0.096302
0.0892992
0.0817934
0.0736084
0.0644626
0.0538379
0.0403674
0.0198104
0.307322
0.298769
0.289888
0.280958
0.272254
0.264063
0.256704
0.250539
0.245979
0.243459
0.243407
0.246156
0.251927
0.260648
0.27209
0.285331
0.29797
0.305211
0.302939
0.29215
0.274165
0.251386
0.226926
0.203606
0.183257
0.166568
0.153324
0.142866
0.134208
0.126574
0.11941
0.112338
0.105096
0.097481
0.0893063
0.0803512
0.0702867
0.0585398
0.0436363
0.0212955
0.321895
0.314456
0.306482
0.298171
0.289712
0.281304
0.273169
0.265565
0.258799
0.253236
0.249292
0.247397
0.247945
0.251203
0.257267
0.265922
0.276788
0.288329
0.297672
0.299469
0.292386
0.276908
0.255387
0.231382
0.208227
0.188037
0.171555
0.158552
0.147972
0.138937
0.130732
0.122838
0.114883
0.106581
0.0976791
0.0878978
0.076844
0.0638708
0.0473628
0.0229706
0.334679
0.328169
0.321042
0.313432
0.305468
0.297289
0.289044
0.280909
0.2731
0.265884
0.259588
0.254599
0.251341
0.250225
0.251571
0.255519
0.261981
0.270522
0.280358
0.289193
0.292974
0.288635
0.275577
0.255937
0.233347
0.211397
0.192307
0.176653
0.16382
0.153034
0.143503
0.134581
0.125769
0.116681
0.10698
0.0963098
0.0841944
0.0698909
0.0516034
0.0248649
0.34619
0.340404
0.333987
0.327022
0.319599
0.311814
0.303764
0.295569
0.287374
0.279364
0.271777
0.264912
0.259134
0.254852
0.25248
0.252359
0.254667
0.259337
0.265991
0.273928
0.281309
0.285086
0.282237
0.271366
0.254012
0.233787
0.214105
0.196536
0.181592
0.168916
0.15784
0.14768
0.137848
0.127856
0.117268
0.105638
0.0923865
0.07665
0.0564075
0.0270071
0.35691
0.351638
0.345769
0.339338
0.332404
0.325033
0.317285
0.309239
0.300994
0.292672
0.284441
0.276518
0.269184
0.262786
0.257721
0.254397
0.253155
0.254181
0.257408
0.262458
0.268568
0.274203
0.276931
0.274352
0.265303
0.250769
0.233547
0.216259
0.200362
0.186239
0.173671
0.162171
0.15118
0.140158
0.128586
0.115917
0.101452
0.0841823
0.061814
0.0294236
0.367471
0.362448
0.356882
0.350811
0.344257
0.337243
0.329795
0.321963
0.313811
0.305419
0.296903
0.288415
0.280164
0.272419
0.265516
0.259843
0.255794
0.253699
0.253723
0.255772
0.259422
0.263855
0.267675
0.26893
0.266078
0.258486
0.246809
0.232835
0.218247
0.204025
0.19058
0.177915
0.16574
0.153598
0.140946
0.127155
0.1114
0.0925008
0.0678452
0.0321367
0.378377
0.373394
0.367907
0.361999
0.355631
0.348822
0.341586
0.333941
0.325911
0.317543
0.308915
0.300133
0.291347
0.282761
0.274641
0.267319
0.261171
0.256576
0.253836
0.253074
0.254139
0.256546
0.259441
0.26151
0.261353
0.258321
0.252316
0.243623
0.232858
0.220661
0.207689
0.19451
0.181363
0.168107
0.154311
0.139324
0.122204
0.10159
0.0745019
0.0351615
0.389544
0.384707
0.379222
0.37337
0.36702
0.360255
0.353072
0.34548
0.337496
0.329143
0.320458
0.311506
0.302393
0.293269
0.28434
0.275875
0.268202
0.261691
0.256697
0.253478
0.252094
0.252322
0.253611
0.255105
0.255662
0.254549
0.252012
0.248143
0.24248
0.234378
0.223749
0.21125
0.197698
0.18351
0.168576
0.152342
0.133799
0.111398
0.0817563
0.0385033
0.398088
0.395235
0.390581
0.385063
0.37871
0.371893
0.364632
0.356961
0.348889
0.340436
0.331636
0.322531
0.313178
0.303679
0.294186
0.284914
0.276136
0.268183
0.261412
0.256146
0.252582
0.250701
0.250202
0.250491
0.250773
0.250285
0.249177
0.24826
0.247094
0.244043
0.237488
0.227217
0.214203
0.1995
0.183547
0.166064
0.146061
0.121826
0.0895464
0.0421544
0.402263
0.401534
0.399074
0.395386
0.390227
0.383686
0.37641
0.368609
0.360339
0.351683
0.342662
0.333315
0.323701
0.313884
0.303959
0.294085
0.284484
0.275441
0.267286
0.260358
0.254932
0.251132
0.248849
0.24771
0.247137
0.246572
0.245974
0.246402
0.248223
0.249726
0.248098
0.241493
0.230201
0.215641
0.198933
0.180267
0.158806
0.132723
0.09777
0.0460915
0.403262
0.403553
0.402907
0.401357
0.398417
0.393758
0.387673
0.38023
0.371852
0.362994
0.35368
0.34402
0.334064
0.323884
0.313558
0.303189
0.292942
0.283051
0.27381
0.265545
0.258563
0.253079
0.249125
0.246507
0.244828
0.243696
0.243164
0.244167
0.247769
0.252595
0.255576
0.25344
0.245003
0.231405
0.214345
0.194646
0.171777
0.143881
0.10628
0.0502729
0.403382
0.403905
0.403886
0.403299
0.401875
0.399393
0.395613
0.390014
0.38271
0.374143
0.364645
0.35469
0.344348
0.333751
0.322978
0.312128
0.301324
0.29074
0.280623
0.271274
0.263003
0.256072
0.250614
0.246568
0.243695
0.241733
0.240895
0.242208
0.246999
0.254216
0.260754
0.262941
0.25807
0.246236
0.229323
0.208821
0.184654
0.155031
0.114885
0.0546373
0.403912
0.404152
0.404057
0.403655
0.402815
0.401366
0.399053
0.395515
0.390495
0.383654
0.375012
0.365139
0.354525
0.343503
0.33225
0.320882
0.309525
0.298326
0.287473
0.277226
0.267881
0.259719
0.252934
0.247571
0.243515
0.240625
0.239189
0.240652
0.246487
0.255829
0.264951
0.270481
0.269161
0.259646
0.243379
0.222357
0.197053
0.165851
0.123349
0.0591041
0.405458
0.405103
0.404486
0.403727
0.402823
0.401676
0.400078
0.397719
0.394268
0.389375
0.382776
0.374305
0.36423
0.353046
0.341361
0.329447
0.317507
0.305696
0.294179
0.283162
0.272908
0.263698
0.255761
0.249213
0.244042
0.240216
0.238088
0.239416
0.246374
0.2581
0.269427
0.276997
0.278413
0.271294
0.256043
0.234793
0.208554
0.175982
0.131405
0.0635749
0.4081
0.407011
0.405627
0.404168
0.402752
0.401383
0.39993
0.398136
0.39566
0.392112
0.387135
0.380453
0.371922
0.361688
0.350101
0.337779
0.32523
0.312782
0.300613
0.288899
0.277859
0.26775
0.258817
0.251225
0.245041
0.24033
0.237529
0.238486
0.246673
0.261271
0.27507
0.283604
0.286299
0.281049
0.266924
0.245679
0.218728
0.185045
0.138767
0.0679384
0.411558
0.409727
0.407493
0.405168
0.402981
0.401045
0.399329
0.397649
0.39569
0.39304
0.389271
0.384004
0.376963
0.368103
0.357572
0.345562
0.332621
0.319513
0.306677
0.294295
0.282549
0.271662
0.261871
0.253372
0.246293
0.240787
0.237386
0.237983
0.247369
0.265446
0.282374
0.291292
0.29349
0.288978
0.275741
0.25462
0.22717
0.192677
0.145153
0.0720768
0.415318
0.412831
0.409791
0.406584
0.403535
0.400864
0.398644
0.39678
0.395006
0.392921
0.390049
0.385917
0.380132
0.37248
0.362976
0.351821
0.33929
0.325782
0.312266
0.299224
0.286824
0.275252
0.264724
0.25545
0.247604
0.241422
0.237545
0.237992
0.248363
0.270479
0.291738
0.300785
0.300647
0.295278
0.282335
0.261306
0.233539
0.198558
0.150309
0.0758742
0.418731
0.415747
0.412039
0.408054
0.404195
0.400777
0.397974
0.395779
0.393995
0.392245
0.390033
0.386815
0.382088
0.37549
0.366884
0.356419
0.344454
0.33122
0.317234
0.303552
0.290542
0.278363
0.267209
0.257286
0.248809
0.24209
0.237904
0.23847
0.249949
0.276813
0.303588
0.31252
0.308242
0.30017
0.286652
0.265535
0.237585
0.202447
0.154032
0.0792262
0.421158
0.417859
0.413684
0.409112
0.404606
0.400557
0.397228
0.394697
0.392832
0.391294
0.389578
0.387088
0.383233
0.377533
0.369724
0.359828
0.348219
0.335364
0.321307
0.307091
0.293558
0.280856
0.269178
0.258733
0.249768
0.242677
0.238395
0.239419
0.25242
0.284986
0.31822
0.326437
0.316374
0.30378
0.2887
0.267217
0.239178
0.204206
0.156197
0.0820484
0.422098
0.418655
0.414232
0.409314
0.404395
0.399924
0.39623
0.393464
0.391552
0.39019
0.388871
0.386963
0.383805
0.378827
0.371667
0.362249
0.350846
0.338041
0.324149
0.309749
0.295745
0.282604
0.270509
0.259673
0.250376
0.243106
0.238996
0.240925
0.256198
0.295302
0.335586
0.3421
0.324687
0.306053
0.288515
0.266366
0.23831
0.203813
0.156763
0.0842836
0.421269
0.417836
0.41337
0.408357
0.40329
0.39865
0.394813
0.391982
0.390126
0.388965
0.387991
0.386544
0.383915
0.379471
0.372781
0.363719
0.352479
0.339636
0.325801
0.31127
0.296933
0.283484
0.2711
0.260017
0.250564
0.243346
0.239754
0.243162
0.26172
0.308451
0.355719
0.358602
0.332342
0.3067
0.286122
0.263093
0.2351
0.201366
0.155782
0.0859049
0.418673
0.415382
0.411054
0.406166
0.401207
0.396655
0.392911
0.390205
0.388531
0.387619
0.386956
0.385858
0.383584
0.379471
0.373058
0.364194
0.353047
0.340132
0.326237
0.311488
0.296999
0.2834
0.27088
0.259716
0.250312
0.243435
0.240811
0.246476
0.269726
0.325536
0.378824
0.375116
0.338307
0.305283
0.281536
0.257585
0.229778
0.197075
0.153391
0.0869166
0.414614
0.411583
0.407547
0.402963
0.398314
0.394062
0.390608
0.388186
0.386797
0.386167
0.385766
0.384889
0.382781
0.378775
0.372422
0.363575
0.352408
0.339392
0.325363
0.310504
0.295937
0.282318
0.269824
0.258768
0.249662
0.243495
0.242448
0.251458
0.281513
0.348575
0.404638
0.39007
0.341409
0.301435
0.274859
0.250123
0.222668
0.191235
0.149792
0.0873502
0.409678
0.407023
0.403399
0.399245
0.395032
0.391205
0.38815
0.386094
0.385026
0.384654
0.384425
0.383613
0.381459
0.377321
0.370796
0.361787
0.350489
0.337369
0.323221
0.308361
0.293824
0.280279
0.267966
0.257231
0.248731
0.243759
0.245103
0.258874
0.298287
0.377917
0.43119
0.401698
0.340799
0.295068
0.266345
0.241084
0.214172
0.184204
0.145232
0.0872587
0.404671
0.402513
0.399394
0.395729
0.391979
0.388584
0.385913
0.384182
0.383369
0.383155
0.382956
0.38202
0.379593
0.375079
0.368161
0.358814
0.347311
0.334053
0.319895
0.305095
0.290652
0.277331
0.265387
0.255239
0.247746
0.244613
0.24943
0.269789
0.321623
0.412829
0.454983
0.407413
0.335651
0.286261
0.256338
0.230892
0.204717
0.176354
0.139971
0.0867088
)
;

boundaryField
{
    leftWall
    {
        type            kqRWallFunction;
        value           nonuniform 0();
    }
    rightWall
    {
        type            kqRWallFunction;
        value           nonuniform List<scalar> 
43
(
0.00669521
0.00793325
0.00855673
0.00865152
0.00876606
0.00892131
0.0095417
0.0102926
0.0110699
0.0118507
0.0126476
0.0134688
0.014328
0.0152411
0.0162255
0.0173004
0.0184875
0.0198104
0.0212955
0.0229706
0.0248649
0.0270071
0.0294236
0.0321367
0.0351615
0.0385033
0.0421544
0.0460915
0.0502729
0.0546373
0.0591041
0.0635749
0.0679384
0.0720768
0.0758742
0.0792262
0.0820484
0.0842836
0.0859049
0.0869166
0.0873502
0.0872587
0.0867088
)
;
    }
    lowerWall
    {
        type            kqRWallFunction;
        value           nonuniform List<scalar> 
66
(
0.0249888
0.019988
0.019988
0.0336591
0.045796
0.0597198
0.0725485
0.0845923
0.0980197
0.111552
0.127738
0.149312
0.141525
0.0841406
0.0727922
0.096821
0.00828649
0.00873692
0.0123712
0.016257
0.019782
0.0233426
0.0272303
0.0318808
0.0382943
0.05155
0.00828649
0.0138588
0.0168453
0.0168632
0.0168068
0.0168432
0.0169186
0.0173073
0.0183584
0.019236
0.0198884
0.020345
0.020624
0.0207375
0.0207041
0.0206141
0.0205029
0.0202994
0.0199712
0.0195155
0.0189591
0.0183065
0.0177186
0.0171203
0.0171615
0.0170371
0.0168211
0.0169597
0.0167117
0.0167969
0.0167103
0.0166
0.0167982
0.0165994
0.0160278
0.0149873
0.0133974
0.0111881
0.00846477
0.00669521
)
;
    }
    atmosphere
    {
        type            inletOutlet;
        inletValue      nonuniform 0();
        value           nonuniform 0();
    }
    defaultFaces
    {
        type            empty;
    }
    procBoundary1to0
    {
        type            processor;
        value           nonuniform List<scalar> 
44
(
0.0273026
0.0691814
0.0995048
0.124077
0.145934
0.165957
0.184711
0.202649
0.220159
0.237192
0.251911
0.263466
0.273495
0.283308
0.293225
0.303256
0.313356
0.323474
0.333546
0.343502
0.35352
0.35352
0.363529
0.374186
0.383881
0.38875
0.390558
0.390291
0.389151
0.388324
0.388512
0.389958
0.392588
0.396067
0.399924
0.403615
0.406603
0.408424
0.408746
0.407407
0.404427
0.4
0.394471
0.388279
)
;
    }
    procBoundary1to3
    {
        type            processor;
        value           nonuniform List<scalar> 
45
(
0.388651
0.393737
0.397384
0.3997
0.400724
0.400513
0.398987
0.396438
0.393251
0.38988
0.386784
0.384328
0.382737
0.381986
0.381737
0.381368
0.380096
0.377167
0.372045
0.364519
0.35469
0.34287
0.329514
0.315368
0.300704
0.286477
0.273573
0.262239
0.253024
0.247071
0.246642
0.256367
0.285662
0.353759
0.450109
0.470709
0.404956
0.325605
0.275287
0.245224
0.219966
0.194712
0.168044
0.134259
0.085772
)
;
    }
}


// ************************************************************************* //
