/*--------------------------------*- C++ -*----------------------------------*\
| =========                 |                                                 |
| \\      /  F ield         | OpenFOAM: The Open Source CFD Toolbox           |
|  \\    /   O peration     | Version:  5.0                                   |
|   \\  /    A nd           | Web:      www.OpenFOAM.org                      |
|    \\/     M anipulation  |                                                 |
\*---------------------------------------------------------------------------*/
FoamFile
{
    version     2.0;
    format      ascii;
    class       volScalarField;
    location    "0.45";
    object      nut;
}
// * * * * * * * * * * * * * * * * * * * * * * * * * * * * * * * * * * * * * //

dimensions      [0 2 -1 0 0 0 0];

internalField   nonuniform List<scalar> 
1915
(
8.48066e-05
7.57852e-05
0.000437134
0.000130057
0.000786896
0.000151672
0.00106253
0.000173138
0.00128348
0.000190815
0.00147209
0.000205994
0.0016376
0.000221756
0.00179455
0.000236562
0.00195628
0.000253141
0.00216469
0.000273739
0.000144857
0.000242344
0.000295484
0.00029616
0.000297231
6.90892e-05
6.96162e-05
7.07443e-05
7.29124e-05
7.46637e-05
7.59507e-05
7.68516e-05
7.74129e-05
7.76651e-05
7.76567e-05
7.76043e-05
7.74862e-05
7.71652e-05
7.6591e-05
7.57546e-05
7.46899e-05
7.34034e-05
7.21249e-05
7.07928e-05
7.03957e-05
6.99472e-05
6.92985e-05
0.000299094
6.87429e-05
0.000295307
0.000293576
0.000291387
0.00029429
0.000290747
0.000280662
0.000262417
0.000234566
0.000195879
0.000148194
0.00015486
7.01208e-05
0.000374046
0.000469789
0.000470948
0.000497776
0.000527117
0.000565359
0.00060907
0.00064541
0.000673701
0.000698701
0.000721207
0.000741289
0.000758804
0.000773451
0.000784523
0.000790197
0.000790206
0.000784908
0.000774412
0.000758452
0.000737586
0.000709546
0.000678606
0.000650578
0.000630997
0.000599289
0.000593575
0.000562839
0.000568091
0.00056949
0.000562823
0.00059984
0.000595428
0.000569382
0.000527364
0.000469734
0.000395014
0.000304708
0.00027064
8.33674e-05
0.0005049
0.000711066
0.000817839
0.000910561
0.00100265
0.00109015
0.00117115
0.00124099
0.00130102
0.00135537
0.0014055
0.00145175
0.00149386
0.00153132
0.00156355
0.0015881
0.00160321
0.001608
0.0016017
0.0015837
0.0015543
0.0015128
0.00146266
0.00141004
0.00135352
0.00129146
0.00122569
0.00116406
0.00110529
0.0010518
0.00100383
0.000970143
0.000924817
0.000866138
0.000790779
0.000695097
0.000572079
0.000402699
0.00029251
9.55466e-05
0.000615642
0.000923726
0.00110503
0.00124693
0.00137307
0.00148729
0.00158961
0.00167809
0.00175757
0.00183174
0.00190231
0.00196972
0.0020337
0.00209359
0.00214891
0.00219655
0.00223374
0.00225855
0.00226928
0.00226467
0.00224417
0.00220733
0.00215553
0.00209141
0.00201496
0.00192777
0.00183019
0.00172907
0.00162676
0.00152707
0.00143218
0.00134293
0.00125187
0.00115251
0.00103737
0.000898089
0.000719117
0.000455609
6.95075e-05
0.00010534
0.000704118
0.00109069
0.00132258
0.00149306
0.00163498
0.0017584
0.00186646
0.00196073
0.00204801
0.00213218
0.00221507
0.00229724
0.00237845
0.00245804
0.00253569
0.00260748
0.00266994
0.00272039
0.00275638
0.00277577
0.0027769
0.00275846
0.00271997
0.00266169
0.00258369
0.00248719
0.00237333
0.00224726
0.00211344
0.00197653
0.00183995
0.00170503
0.00156923
0.00142651
0.0012682
0.00108234
0.000846793
0.000510065
7.03166e-05
0.000114354
0.000772024
0.00120966
0.00146925
0.00165092
0.00179504
0.00191629
0.00201982
0.00211117
0.00219827
0.00228523
0.00237397
0.00246518
0.00255879
0.00265441
0.00275198
0.00284681
0.00293507
0.00301363
0.00307939
0.00312937
0.0031608
0.00317111
0.00315817
0.00312039
0.00305672
0.0029671
0.00285227
0.00271603
0.00256323
0.00239915
0.00222848
0.0020542
0.00187614
0.0016899
0.00148694
0.00125314
0.000962091
0.000559013
7.12893e-05
0.000123423
0.000820884
0.00127891
0.00154378
0.00172272
0.00186065
0.00197417
0.0020684
0.002153
0.00223615
0.00232187
0.0024121
0.00250775
0.00260916
0.00271654
0.00283016
0.00294484
0.00305701
0.00316331
0.00326022
0.00334406
0.00341102
0.00345729
0.0034792
0.00347339
0.00343714
0.00336862
0.00326721
0.00313478
0.00297565
0.00279516
0.00259884
0.00239124
0.00217424
0.00194548
0.00169739
0.00141503
0.00106972
0.000606797
7.37348e-05
0.000133451
0.000849573
0.00129279
0.00154263
0.00171025
0.0018399
0.00194638
0.00203237
0.00211143
0.00219083
0.00227414
0.00236334
0.00245977
0.00256446
0.00267863
0.00280266
0.00293195
0.00306367
0.00319462
0.0033211
0.00343895
0.00354354
0.0036299
0.00369289
0.00372746
0.00372893
0.0036934
0.00361819
0.00350263
0.00334973
0.00316409
0.0029514
0.00271731
0.00246561
0.00219618
0.00190308
0.0015717
0.00117246
0.000651323
7.66018e-05
0.000146176
0.000852517
0.00124409
0.00146626
0.00162246
0.00174879
0.00185434
0.001939
0.00201771
0.00209626
0.00217771
0.00226433
0.0023581
0.00246108
0.00257585
0.0027026
0.00283903
0.00298335
0.00313296
0.00328437
0.00343323
0.00357433
0.00370174
0.00380898
0.00388931
0.00393603
0.00394293
0.00390483
0.00381805
0.00368355
0.00350436
0.00328546
0.00303287
0.00275185
0.00244453
0.00210712
0.00172634
0.0012728
0.000693688
7.94821e-05
0.000169767
0.000829221
0.00114586
0.00134246
0.0014942
0.00162473
0.00173646
0.00182861
0.0019125
0.00199303
0.00207304
0.00215524
0.00224243
0.00233796
0.00244506
0.00256522
0.00269907
0.00284627
0.0030054
0.0031737
0.00334708
0.0035201
0.00368612
0.00383751
0.00396589
0.00406255
0.00411883
0.0041267
0.00407919
0.0039745
0.00381338
0.00359917
0.00333728
0.0030337
0.00269243
0.00231218
0.00188176
0.00137305
0.000735241
8.22939e-05
0.00265686
0.000691186
0.00333502
0.0015015
0.00418938
0.00257541
0.00516558
0.00377752
0.00619457
0.00501131
0.00721797
0.00620747
0.00819693
0.00733033
0.00910926
0.00836374
0.00994376
0.00930137
0.010696
0.0101424
0.0108892
0.0115465
0.0121191
0.0126112
0.0130108
0.0133222
0.0135594
0.0137296
0.0138357
0.0138765
0.0138491
0.0137519
0.0135892
0.0133702
0.0131046
0.0128022
0.0124718
0.0121212
0.0117575
0.0113877
0.0110189
0.0106588
0.0103154
0.00020544
0.000159458
0.000145654
0.000168629
0.000733206
0.000599993
0.000535772
0.000539152
0.00162696
0.00125407
0.00104099
0.000854092
0.0027856
0.00220491
0.00180967
0.00147719
0.0040533
0.00335884
0.00282695
0.00238071
0.0053199
0.00459174
0.00398628
0.00346553
0.00652714
0.00581615
0.00518818
0.0046297
0.00764704
0.00698043
0.00636436
0.00579809
0.00866754
0.00805759
0.00747408
0.00692181
0.00958545
0.00903603
0.00849605
0.00797208
0.0104023
0.00991273
0.00942109
0.0089338
0.0111221
0.0106891
0.0102467
0.00980029
0.0117496
0.0113688
0.0109745
0.0105697
0.0122894
0.0119563
0.0116076
0.0112431
0.0127443
0.0124562
0.0121507
0.0118228
0.0131004
0.0128577
0.0125979
0.0123111
0.0133707
0.0131646
0.0129401
0.012693
0.0135661
0.0133861
0.0131889
0.0129727
0.0136918
0.0135318
0.0133553
0.013162
0.0137481
0.0136039
0.0134438
0.0132684
0.0137328
0.0136013
0.0134546
0.0132938
0.013645
0.0135236
0.0133879
0.0132393
0.0134875
0.0133734
0.0132466
0.013108
0.0132703
0.0131593
0.0130375
0.0129066
0.0130036
0.0128929
0.012773
0.0126455
0.0126976
0.012585
0.0124645
0.0123381
0.0123617
0.0122451
0.0121222
0.0119948
0.0120037
0.0118815
0.0117545
0.0116248
0.0116311
0.0115017
0.0113693
0.0112358
0.011251
0.011113
0.0109738
0.0108357
0.0108708
0.0107231
0.0105761
0.0104323
0.0104986
0.0103406
0.0101851
0.010035
0.0101431
0.0099746
0.00981044
0.00965392
0.00041628
0.000815799
0.00107431
0.00125141
0.00139762
0.00153091
0.00164937
0.00175045
0.00184041
0.00192299
0.00200046
0.00207573
0.00215208
0.00223342
0.00232399
0.00242766
0.00254744
0.00268522
0.00284148
0.00301498
0.00320255
0.00339908
0.00359763
0.00378967
0.00396536
0.00411397
0.0042243
0.00428525
0.00428607
0.00422184
0.00409031
0.00389225
0.00363135
0.00331327
0.00294322
0.00252226
0.0020419
0.00147626
0.000777524
8.50868e-05
0.000608722
0.00081462
0.00107049
0.00125076
0.00138931
0.00151853
0.0016346
0.001739
0.00183151
0.00191418
0.00198777
0.00205442
0.00211716
0.00217994
0.0022477
0.0023259
0.00241994
0.00253446
0.00267275
0.00283608
0.00302324
0.00323038
0.00345096
0.00367604
0.00389459
0.00409396
0.00426036
0.00437935
0.00443597
0.00442185
0.00433116
0.00416116
0.00391269
0.00358979
0.00319776
0.00273948
0.00220939
0.00158465
0.000821631
8.78893e-05
0.000825621
0.000930428
0.00109198
0.00125978
0.00142032
0.00156639
0.00168297
0.00179163
0.00188551
0.0019691
0.00204064
0.00210101
0.00215238
0.00219772
0.0022418
0.00229052
0.002351
0.00243057
0.00253588
0.00267182
0.00284056
0.00304088
0.0032679
0.0035132
0.0037652
0.00400962
0.00423014
0.00440883
0.00452605
0.00456975
0.00453001
0.0043998
0.00417596
0.00385946
0.00345427
0.002964
0.00238565
0.00169993
0.000868484
9.0748e-05
0.00128604
0.00122176
0.0012429
0.0013306
0.00145639
0.00159488
0.00172855
0.00185779
0.00196373
0.00205694
0.00213419
0.00219658
0.00224515
0.00228121
0.00230862
0.00233225
0.00235959
0.00239956
0.00246183
0.00255551
0.00268747
0.00286097
0.00307467
0.00332237
0.00359314
0.00387191
0.00414014
0.00437634
0.00455585
0.00466273
0.00468247
0.00460303
0.00441619
0.00411844
0.00371069
0.00319571
0.00257207
0.00182391
0.000919095
9.37109e-05
0.00203079
0.00180263
0.00167098
0.0016149
0.00161934
0.0016731
0.00176893
0.00188572
0.00200755
0.00212181
0.00222051
0.00229918
0.00235931
0.00240045
0.00242561
0.00243728
0.00244205
0.00244846
0.00246762
0.00251201
0.00259364
0.00272174
0.00290085
0.00312939
0.0033993
0.00369634
0.00400067
0.00428746
0.00452719
0.00469958
0.00478508
0.00476602
0.00462814
0.00436207
0.00396387
0.00343348
0.00276936
0.00195819
0.000974477
9.6826e-05
0.00300505
0.00264451
0.00237511
0.00218134
0.0020532
0.00198289
0.00196491
0.00199063
0.00205811
0.0021533
0.00225956
0.00236086
0.00244849
0.00251111
0.00255179
0.00257039
0.00257152
0.00256088
0.00254886
0.00254911
0.00257725
0.00264857
0.00277505
0.00296252
0.0032088
0.00350317
0.00382656
0.0041516
0.00444492
0.00468135
0.00483592
0.00488474
0.00480669
0.0045852
0.0042097
0.00367508
0.00297737
0.00210398
0.00103561
0.000100142
0.00410673
0.00365845
0.003287
0.00298251
0.00273773
0.00254745
0.00240936
0.00232103
0.00228068
0.00228319
0.00232495
0.00239843
0.0024869
0.0025737
0.00264291
0.00268601
0.0027044
0.00269999
0.00267884
0.00265262
0.00263766
0.00265316
0.0027182
0.00284761
0.00304822
0.00331643
0.00363719
0.00398283
0.00431778
0.00461215
0.00483528
0.00495662
0.00494739
0.00478265
0.00444344
0.00391726
0.00319498
0.00226196
0.00110337
0.000103707
0.00524852
0.0047512
0.00431489
0.00393336
0.00360118
0.00331461
0.00307235
0.0028744
0.00272209
0.00261618
0.0025565
0.00253971
0.00256116
0.00261588
0.00268587
0.00275337
0.00279959
0.00282049
0.00281448
0.00278814
0.00275286
0.00272776
0.00273626
0.00280144
0.00294065
0.00316088
0.00345524
0.00379945
0.0041588
0.00449978
0.00478637
0.00498117
0.00504706
0.00494969
0.00466004
0.00415595
0.00342005
0.00243208
0.00117849
0.000107571
0.00637099
0.00585338
0.00538198
0.00495302
0.00456258
0.00420767
0.0038869
0.00360064
0.00335119
0.00314184
0.00297615
0.00285646
0.00278308
0.00275294
0.00276085
0.00280003
0.00285252
0.00289693
0.00291707
0.00291246
0.00288456
0.00284517
0.00281623
0.00282539
0.00289933
0.00305709
0.00330363
0.00362275
0.0039851
0.00435619
0.00469602
0.00496069
0.00510447
0.00508267
0.00485473
0.00438658
0.00364953
0.00261349
0.00126141
0.000111781
0.00743739
0.00691994
0.0064354
0.00598186
0.00555676
0.00515772
0.00478329
0.00443341
0.00410982
0.00381596
0.00355679
0.00333772
0.00316355
0.00303691
0.0029575
0.00292102
0.00292206
0.00294862
0.00298246
0.00299978
0.00299477
0.00296729
0.00292862
0.00290323
0.00292244
0.00301557
0.00320073
0.00347407
0.00381666
0.00419736
0.00457506
0.00490091
0.00512095
0.0051796
0.00502348
0.00460452
0.00387963
0.00280445
0.00135219
0.00011638
0.00842658
0.00792349
0.00744161
0.00698045
0.00653856
0.00611427
0.00570626
0.00531409
0.0049387
0.00458267
0.00425041
0.0039479
0.0036821
0.00345961
0.00328527
0.00316065
0.00308359
0.00304782
0.00304607
0.00306111
0.00307162
0.00306446
0.00303842
0.00300569
0.0029924
0.00303253
0.00315475
0.00337003
0.0036733
0.00404196
0.00443823
0.00481144
0.00510105
0.00524081
0.00516362
0.00480555
0.0041062
0.00300241
0.00145047
0.000121407
0.00932733
0.0088481
0.00838006
0.00792367
0.00747836
0.00704314
0.00661696
0.00619924
0.00579034
0.00539189
0.00500717
0.0046413
0.00430119
0.0039949
0.00373059
0.00351476
0.00335073
0.00323756
0.00317001
0.00314047
0.00313465
0.00313401
0.00312412
0.00310207
0.00308127
0.00309006
0.00316058
0.00331779
0.00357055
0.00390867
0.00430288
0.00470553
0.00505284
0.00526946
0.00527441
0.00498641
0.0043251
0.00320419
0.00155535
0.000126886
0.0101343
0.0096849
0.00923832
0.0087956
0.0083568
0.00792149
0.00748891
0.00705852
0.00663035
0.0062053
0.00578559
0.00537512
0.00497966
0.00460693
0.00426603
0.00396631
0.00371566
0.00351864
0.00337526
0.00328085
0.00322716
0.003202
0.00318884
0.00317595
0.00316232
0.00316176
0.00320204
0.00331329
0.00351558
0.00381216
0.00418628
0.00459872
0.00498756
0.00527168
0.00535736
0.00514521
0.00453264
0.00340626
0.00166547
0.000132831
0.0108461
0.0104295
0.010009
0.00958609
0.00916104
0.0087338
0.00830383
0.00787073
0.00743434
0.00699507
0.00655435
0.00611489
0.00568116
0.00525965
0.00485887
0.00448891
0.00416016
0.00388155
0.00365844
0.00349131
0.0033756
0.0033028
0.00326148
0.00323783
0.00322475
0.00322543
0.00325529
0.00333973
0.00350292
0.00375801
0.00410123
0.00450603
0.00491823
0.00525614
0.00541631
0.00528172
0.00472594
0.00360502
0.00177907
0.000139237
0.0114632
0.0110803
0.0106883
0.0102891
0.00988268
0.00946935
0.00904882
0.0086207
0.00818473
0.00774099
0.00729029
0.00683443
0.00637665
0.00592202
0.0054778
0.0050534
0.00465986
0.00430852
0.00400896
0.0037669
0.0035828
0.00345184
0.00336538
0.00331264
0.00328355
0.00327723
0.0033024
0.00337551
0.00351636
0.00374027
0.00405206
0.00443825
0.00485716
0.00523282
0.00545703
0.00539738
0.00490312
0.00379708
0.00189408
0.000146079
0.0119874
0.0116379
0.0112748
0.0109014
0.0105166
0.0101213
0.00971507
0.00929766
0.00886877
0.0084282
0.00797629
0.0075141
0.00704383
0.00656924
0.00609612
0.00563259
0.00518906
0.00477759
0.00441023
0.00409692
0.0038432
0.00364899
0.00350902
0.00341471
0.00335691
0.00333088
0.00334358
0.00340808
0.00353837
0.00374514
0.00403376
0.00439917
0.00481324
0.00521114
0.00548624
0.00549498
0.00506337
0.00397949
0.00200824
0.000153313
0.0124107
0.012101
0.011769
0.0114224
0.0110607
0.0106856
0.010297
0.00989468
0.00947785
0.00904616
0.0085998
0.00813928
0.00766585
0.00718209
0.00669238
0.00620333
0.00572412
0.00526629
0.00484283
0.00446634
0.00414661
0.00388847
0.00369096
0.00354831
0.00345284
0.00339888
0.00338959
0.00343909
0.0035601
0.00375901
0.0040357
0.00438556
0.00479013
0.00519809
0.00551038
0.00557802
0.00520676
0.00414979
0.00211924
0.000160871
0.0127253
0.0124528
0.0121584
0.0118462
0.0115138
0.0111609
0.0107921
0.0104074
0.0100061
0.00958796
0.00915249
0.00869962
0.00823032
0.0077461
0.00724996
0.00674701
0.00624492
0.00575407
0.00528722
0.0048582
0.00447976
0.00416103
0.00390561
0.0037115
0.00357307
0.00348525
0.00344893
0.00347657
0.00358345
0.00377531
0.00404755
0.00438994
0.00478641
0.00519708
0.00553436
0.00564994
0.00533385
0.00430597
0.00222477
0.000168664
0.0129403
0.0126964
0.0124351
0.0121572
0.0118594
0.0115391
0.0111977
0.0108345
0.0104511
0.0100498
0.009629
0.00918875
0.00872913
0.00825111
0.00775661
0.00724933
0.00673532
0.00622349
0.00572563
0.0052557
0.00482809
0.00445518
0.00414481
0.00389912
0.00371548
0.00359008
0.00352374
0.0035264
0.00361491
0.00379578
0.00406408
0.00440465
0.00479735
0.00520802
0.00556088
0.0057134
0.00544532
0.00444637
0.00232258
0.000176583
0.0130671
0.0128459
0.0126102
0.0123598
0.0120925
0.0118065
0.0114999
0.0111685
0.0108117
0.0104315
0.0100282
0.00960393
0.00915795
0.00869103
0.00820426
0.00770009
0.00718312
0.00666062
0.00614302
0.00564358
0.00517727
0.00475858
0.00439884
0.00410418
0.00387551
0.00371114
0.00361271
0.00358999
0.00365889
0.00382618
0.00408647
0.00442517
0.00481742
0.00522816
0.00559029
0.0057698
0.00554151
0.00456947
0.0024105
0.000184499
0.0131095
0.0129074
0.0126932
0.0124665
0.0122258
0.0119691
0.0116939
0.0113969
0.0110755
0.0107269
0.0103493
0.00994538
0.00951641
0.00906374
0.00858874
0.00809306
0.00757994
0.00705513
0.00652743
0.00600893
0.00551432
0.00505917
0.00465736
0.00431855
0.00404725
0.00384452
0.00371334
0.00366561
0.00371646
0.00387138
0.00412008
0.00445158
0.00484249
0.00525362
0.00562102
0.00581913
0.00562223
0.00467375
0.00248643
0.000192271
0.0130694
0.0128839
0.0126885
0.0124834
0.012267
0.0120375
0.0117921
0.0115272
0.0112395
0.0109256
0.0105826
0.0102086
0.00980386
0.0093698
0.00890958
0.00842567
0.00792104
0.00740013
0.00687011
0.00634155
0.00582825
0.00534602
0.00491033
0.00453369
0.00422398
0.00398531
0.00382259
0.00375007
0.00378614
0.00393324
0.00417058
0.00448761
0.00487111
0.00528071
0.00565036
0.00586019
0.00568664
0.00475765
0.00254843
0.000199749
0.0129502
0.0127791
0.0126005
0.012415
0.0122215
0.0120181
0.0118017
0.0115684
0.0113141
0.0110347
0.0107265
0.0103866
0.0100132
0.00960618
0.00916691
0.00869832
0.00820489
0.00769194
0.00716534
0.00663399
0.00611038
0.00560985
0.00514866
0.00474137
0.00439879
0.0041281
0.0039366
0.00384041
0.00386552
0.00401108
0.0042414
0.00453856
0.00490446
0.00530693
0.00567528
0.005891
0.0057334
0.00481955
0.00259472
0.000206779
0.0127588
0.0125998
0.0124358
0.0122679
0.0120956
0.011917
0.0117289
0.0115271
0.0113066
0.0110624
0.0107897
0.0104847
0.0101445
0.00976843
0.00935657
0.00891
0.00843202
0.00792947
0.00741007
0.00688138
0.00635434
0.0058433
0.00536461
0.00493415
0.00456508
0.00426743
0.0040512
0.00393449
0.00395193
0.00410327
0.00433347
0.00460895
0.00494527
0.00533114
0.0056931
0.00590929
0.00576092
0.00485793
0.00262385
0.000213217
0.0125046
0.0123556
0.012204
0.0120514
0.0118981
0.0117427
0.0115819
0.0114109
0.0112242
0.0110157
0.0107793
0.0105102
0.0102046
0.00986036
0.00947721
0.00905634
0.00860064
0.00811308
0.00760325
0.00708104
0.00655592
0.00604098
0.00555207
0.00510574
0.00471693
0.00439822
0.00416243
0.00403024
0.00404214
0.00420638
0.00444711
0.00470139
0.0049962
0.00535319
0.00570178
0.00591297
0.0057677
0.00487157
0.00263473
0.000218934
0.0122002
0.0120578
0.0119164
0.0117769
0.0116404
0.0115059
0.0113705
0.0112293
0.0110756
0.0109025
0.0107028
0.0104702
0.0101996
0.00988803
0.00953445
0.00913985
0.00870747
0.00824082
0.00774482
0.00723181
0.00671274
0.00619929
0.00570656
0.00525123
0.00484948
0.00451611
0.00426675
0.00412513
0.004136
0.0043213
0.0045827
0.00481625
0.0050584
0.00537306
0.00569997
0.00590044
0.00575261
0.00485972
0.00262686
0.000223827
0.0118577
0.0117186
0.0115849
0.0114565
0.0113345
0.0112188
0.0111067
0.0109932
0.0108712
0.0107325
0.0105686
0.0103719
0.0101362
0.00985733
0.00953357
0.00916559
0.00875668
0.00831191
0.00783352
0.00733307
0.0068237
0.00631625
0.0058252
0.00536714
0.0049591
0.00461772
0.00436148
0.0042174
0.00423363
0.00444912
0.00473906
0.00494999
0.00513011
0.00538998
0.00568673
0.00587079
0.00571521
0.00482233
0.00260034
0.000227824
0.0114869
0.0113495
0.0112203
0.0111016
0.0109926
0.0108936
0.0108027
0.0107148
0.0106222
0.0105159
0.0103861
0.0102238
0.0100217
0.00977451
0.00947993
0.00913824
0.00875241
0.00832801
0.00787022
0.00738646
0.00688915
0.00639128
0.00590661
0.00545149
0.0050435
0.00470094
0.00444506
0.00430641
0.00433625
0.00458894
0.00491228
0.00509636
0.0052062
0.00540183
0.00566138
0.00582386
0.00565585
0.00476018
0.00255595
0.00023089
0.0110962
0.0109594
0.0108339
0.010723
0.0106255
0.0105419
0.0104703
0.0104057
0.0103402
0.0102637
0.0101653
0.0100349
0.00986389
0.00964639
0.00937937
0.00906294
0.00869987
0.00829581
0.00785818
0.00739188
0.00690956
0.00642475
0.00595071
0.0055037
0.00510184
0.00476501
0.00451725
0.00439273
0.0044457
0.00474272
0.00509947
0.00524662
0.00527862
0.0054051
0.00562328
0.00576018
0.00557576
0.0046749
0.00249519
0.000233027
0.0106932
0.0105566
0.0104341
0.0103294
0.0102431
0.0101738
0.0101201
0.0100769
0.0100358
0.00998613
0.00991592
0.00981393
0.00967081
0.00947996
0.00923803
0.00894498
0.00860357
0.00821927
0.00780083
0.00735199
0.00688701
0.0064183
0.00595872
0.00552462
0.00513477
0.00481074
0.00457943
0.00447856
0.00456574
0.00491521
0.00529897
0.00539287
0.00533844
0.00539564
0.00557207
0.00568104
0.00547705
0.00456899
0.00242015
0.000234272
0.0102865
0.0101494
0.0100298
0.00993111
0.00985495
0.00979916
0.00976199
0.00973816
0.00971889
0.00969268
0.00964683
0.00956926
0.00944995
0.00928198
0.00906188
0.00878961
0.00846805
0.00810264
0.00770246
0.00727194
0.00682533
0.00637491
0.00593314
0.00551645
0.00514445
0.00484053
0.00463453
0.00456759
0.00470198
0.00511416
0.0055061
0.00552325
0.00537681
0.00537059
0.0055084
0.00558863
0.00536266
0.00444567
0.00233341
0.000234693
0.00988512
0.00974736
0.00963039
0.00953755
0.00947063
0.0094272
0.00940504
0.00939844
0.00939805
0.00939171
0.00936604
0.00930835
0.00920826
0.00905879
0.00885667
0.00860215
0.00829833
0.00795072
0.00756811
0.00715641
0.00672924
0.00629868
0.00587766
0.00548275
0.00513456
0.00485841
0.0046869
0.00466416
0.00485922
0.00533841
0.00570765
0.0056255
0.00538767
0.00532958
0.00543436
0.00548607
0.00523623
0.00430871
0.00223786
0.000234379
0.00949986
0.00936116
0.00924649
0.00915893
0.00910003
0.00906736
0.0090581
0.009066
0.0090811
0.00909059
0.00908052
0.00903781
0.00895199
0.00881634
0.00862812
0.00838806
0.00809977
0.00776843
0.00740337
0.00701037
0.00660316
0.0061943
0.00579709
0.00542849
0.00511034
0.00486991
0.00474202
0.00477349
0.005044
0.00558094
0.00588231
0.0056831
0.00536597
0.00527388
0.00535291
0.00537695
0.00510167
0.00416207
0.00213646
0.000233428
)
;

boundaryField
{
    leftWall
    {
        type            nutkWallFunction;
        Cmu             0.09;
        kappa           0.41;
        E               9.8;
        value           nonuniform 0();
    }
    rightWall
    {
        type            nutkWallFunction;
        Cmu             0.09;
        kappa           0.41;
        E               9.8;
        value           nonuniform List<scalar> 
43
(
0
0
0
1.54347e-09
7.85027e-08
1.819e-07
5.85027e-07
1.05325e-06
1.51757e-06
1.96544e-06
2.40538e-06
2.84226e-06
3.28332e-06
3.73566e-06
4.20618e-06
4.70161e-06
5.22856e-06
5.79345e-06
6.40234e-06
7.06063e-06
7.77268e-06
8.5414e-06
9.36778e-06
1.02505e-05
1.11859e-05
1.21672e-05
1.31853e-05
1.42282e-05
1.52815e-05
1.6329e-05
1.73529e-05
1.83344e-05
1.92552e-05
2.00978e-05
2.08472e-05
2.14912e-05
2.20215e-05
2.24342e-05
2.27296e-05
2.29124e-05
2.29904e-05
2.29739e-05
2.2875e-05
)
;
    }
    lowerWall
    {
        type            nutkWallFunction;
        Cmu             0.09;
        kappa           0.41;
        E               9.8;
        value           nonuniform List<scalar> 
66
(
1.01821e-05
9.14957e-06
9.14957e-06
1.52494e-05
1.75981e-05
1.98998e-05
2.17696e-05
2.33652e-05
2.50026e-05
2.65321e-05
2.82328e-05
3.03247e-05
2.327e-05
1.83386e-05
1.22264e-05
1.55784e-05
0
5.89774e-08
2.25463e-06
4.22097e-06
5.78157e-06
7.20301e-06
8.61948e-06
1.01692e-05
1.21073e-05
1.55933e-05
0
0
0
3.69471e-09
0
0
2.28558e-08
1.56254e-07
5.08522e-07
7.93813e-07
1.00106e-06
1.14381e-06
1.23012e-06
1.26505e-06
1.25477e-06
1.22708e-06
1.19273e-06
1.12962e-06
1.02711e-06
8.8308e-07
7.04622e-07
4.91402e-07
2.95522e-07
9.22884e-08
1.06424e-07
6.37132e-08
0
3.70329e-08
0
0
0
0
0
0
0
0
0
0
0
0
)
;
    }
    atmosphere
    {
        type            calculated;
        value           nonuniform 0();
    }
    defaultFaces
    {
        type            empty;
    }
    procBoundary1to0
    {
        type            processor;
        value           nonuniform List<scalar> 
44
(
8.86555e-05
0.000635129
0.00113811
0.00158464
0.00200176
0.00239218
0.00275758
0.00310452
0.00344608
0.00381604
0.00430449
0.00491854
0.00564623
0.0064592
0.00731712
0.00818098
0.00901982
0.0098121
0.0105444
0.0112095
0.0113661
0.0113661
0.0119568
0.0124708
0.0129075
0.0132531
0.0135247
0.0137304
0.0138758
0.0139627
0.0139885
0.0139494
0.0138441
0.013678
0.0134589
0.0131962
0.0128991
0.0125762
0.0122348
0.0118819
0.0115242
0.0111686
0.0108221
0.0104921
)
;
    }
    procBoundary1to3
    {
        type            processor;
        value           nonuniform List<scalar> 
45
(
0.00999703
0.00981347
0.00963518
0.00946291
0.00930037
0.00914242
0.00900273
0.00888982
0.00880643
0.00875365
0.00872924
0.00872984
0.00874862
0.00877503
0.00879571
0.00879624
0.00876334
0.00868669
0.00856007
0.00838155
0.00815272
0.00787746
0.00756132
0.00721312
0.00683898
0.00645259
0.00606761
0.00569754
0.00536015
0.00507863
0.00488193
0.00480631
0.00490226
0.00526646
0.00582402
0.00600012
0.00568294
0.00531093
0.00520663
0.00526749
0.00526493
0.00496283
0.00400962
0.00203202
0.000231943
)
;
    }
}


// ************************************************************************* //
