/*--------------------------------*- C++ -*----------------------------------*\
| =========                 |                                                 |
| \\      /  F ield         | OpenFOAM: The Open Source CFD Toolbox           |
|  \\    /   O peration     | Version:  5.0                                   |
|   \\  /    A nd           | Web:      www.OpenFOAM.org                      |
|    \\/     M anipulation  |                                                 |
\*---------------------------------------------------------------------------*/
FoamFile
{
    version     2.0;
    format      ascii;
    class       surfaceScalarField;
    location    "0.45";
    object      phi;
}
// * * * * * * * * * * * * * * * * * * * * * * * * * * * * * * * * * * * * * //

dimensions      [0 3 -1 0 0 0 0];

internalField   nonuniform List<scalar> 
3731
(
-1.00046e-05
-4.58987e-06
-1.00046e-05
-6.50414e-06
-3.96327e-06
-1.65087e-05
-5.9288e-07
-1.15624e-06
-1.71016e-05
3.51355e-06
3.46216e-06
-1.3588e-05
6.47948e-06
9.25844e-06
-7.10856e-06
8.75521e-06
1.6041e-05
1.64665e-06
1.08977e-05
2.37479e-05
1.25444e-05
1.37984e-05
3.20594e-05
2.63428e-05
1.8403e-05
4.03276e-05
4.47458e-05
2.55198e-05
4.74683e-05
7.02656e-05
1.45542e-06
-1.45542e-06
3.8771e-07
1.06773e-06
-1.62183e-06
2.00955e-06
-3.7238e-06
2.10196e-06
-5.53869e-06
1.81489e-06
-6.86393e-06
1.32526e-06
-7.59481e-06
7.30892e-07
-7.71613e-06
1.21328e-07
-7.3265e-06
-3.89635e-07
-6.56093e-06
-7.65564e-07
-5.4963e-06
-1.06462e-06
-4.19301e-06
-1.30329e-06
-2.7011e-06
-1.49192e-06
-1.06457e-06
-1.63652e-06
6.75508e-07
-1.74009e-06
2.47822e-06
-1.80272e-06
4.30711e-06
-1.82889e-06
6.12142e-06
-1.81431e-06
7.87997e-06
-1.75856e-06
9.54004e-06
-1.66006e-06
1.10652e-05
-1.52515e-06
1.24082e-05
-1.34296e-06
1.35455e-05
-1.13736e-06
1.44056e-05
-8.60146e-07
1.49966e-05
-5.90984e-07
1.53294e-05
-3.3272e-07
1.53384e-05
-9.04271e-09
1.50824e-05
2.56044e-07
1.45438e-05
5.38546e-07
1.37694e-05
7.74379e-07
1.27897e-05
9.79785e-07
1.15788e-05
1.21088e-06
1.01995e-05
1.37932e-06
8.69897e-06
1.50048e-06
7.09044e-06
1.60854e-06
5.41909e-06
1.67134e-06
3.74507e-06
1.674e-06
2.16813e-06
1.57694e-06
8.53427e-07
1.31473e-06
8.5343e-07
-5.99361e-08
-1.39547e-06
-1.523e-06
2.53079e-06
-3.53847e-06
4.02502e-06
-5.48413e-06
4.04762e-06
-6.96104e-06
3.2918e-06
-7.85582e-06
2.22005e-06
-8.20796e-06
1.08304e-06
-8.11749e-06
3.08634e-08
-7.65811e-06
-8.49012e-07
-6.86695e-06
-1.55672e-06
-5.80168e-06
-2.12989e-06
-4.51216e-06
-2.59282e-06
-3.04339e-06
-2.9607e-06
-1.43682e-06
-3.24309e-06
2.68608e-07
-3.44552e-06
2.03594e-06
-3.57006e-06
3.82637e-06
-3.61934e-06
5.60301e-06
-3.59094e-06
7.32851e-06
-3.48404e-06
8.96697e-06
-3.29853e-06
1.04796e-05
-3.03775e-06
1.18375e-05
-2.70089e-06
1.29983e-05
-2.29818e-06
1.39635e-05
-1.82536e-06
1.46848e-05
-1.31227e-06
1.51304e-05
-7.78309e-07
1.53391e-05
-2.17729e-07
1.52569e-05
3.38211e-07
1.49059e-05
8.89633e-07
1.42755e-05
1.40472e-06
1.3371e-05
1.88435e-06
1.22488e-05
2.33304e-06
1.09288e-05
2.69938e-06
9.43401e-06
2.99519e-06
7.81451e-06
3.22804e-06
6.1088e-06
3.37708e-06
4.36968e-06
3.4131e-06
2.67519e-06
3.27142e-06
1.15651e-06
2.83344e-06
2.00996e-06
-1.41043e-06
1.4964e-08
-3.19296e-06
4.31331e-06
-4.99137e-06
5.82341e-06
-6.50874e-06
5.56498e-06
-7.58762e-06
4.37068e-06
-8.19673e-06
2.82916e-06
-8.38065e-06
1.26697e-06
-8.19795e-06
-1.51839e-07
-7.68747e-06
-1.35948e-06
-6.88231e-06
-2.36188e-06
-5.82505e-06
-3.18715e-06
-4.55816e-06
-3.85971e-06
-3.12168e-06
-4.39718e-06
-1.55394e-06
-4.81083e-06
1.08281e-07
-5.10776e-06
1.82902e-06
-5.29081e-06
3.57142e-06
-5.36174e-06
5.29989e-06
-5.3194e-06
6.97966e-06
-5.16382e-06
8.57732e-06
-4.89617e-06
1.00596e-05
-4.52005e-06
1.13975e-05
-4.03873e-06
1.2561e-05
-3.4617e-06
1.35325e-05
-2.79686e-06
1.42834e-05
-2.06317e-06
1.47882e-05
-1.2831e-06
1.504e-05
-4.69553e-07
1.50239e-05
3.54281e-07
1.4742e-05
1.17152e-06
1.41891e-05
1.95766e-06
1.33765e-05
2.69698e-06
1.23376e-05
3.372e-06
1.10886e-05
3.94835e-06
9.66093e-06
4.42287e-06
8.09842e-06
4.79055e-06
6.44079e-06
5.03468e-06
4.73349e-06
5.12041e-06
3.03176e-06
4.97317e-06
1.41586e-06
4.4493e-06
3.42581e-06
-2.31697e-06
2.33193e-06
-4.39248e-06
6.38878e-06
-6.05159e-06
7.4825e-06
-7.27324e-06
6.78662e-06
-8.07047e-06
5.16791e-06
-8.47148e-06
3.23017e-06
-8.51708e-06
1.31257e-06
-8.24513e-06
-4.2378e-07
-7.68176e-06
-1.92286e-06
-6.85468e-06
-3.18896e-06
-5.79643e-06
-4.24541e-06
-4.54191e-06
-5.11422e-06
-3.12626e-06
-5.81283e-06
-1.58467e-06
-6.35243e-06
4.80321e-08
-6.74046e-06
1.73683e-06
-6.97961e-06
3.44628e-06
-7.07118e-06
5.14166e-06
-7.01478e-06
6.7896e-06
-6.81176e-06
8.35816e-06
-6.46473e-06
9.81665e-06
-5.97853e-06
1.11372e-05
-5.35925e-06
1.22932e-05
-4.61766e-06
1.32625e-05
-3.7662e-06
1.40231e-05
-2.82373e-06
1.45534e-05
-1.81343e-06
1.48399e-05
-7.5603e-07
1.48715e-05
3.22658e-07
1.46444e-05
1.39865e-06
1.41574e-05
2.44468e-06
1.34194e-05
3.43492e-06
1.24497e-05
4.3418e-06
1.12648e-05
5.1332e-06
9.8955e-06
5.79216e-06
8.38003e-06
6.30603e-06
6.75854e-06
6.65618e-06
5.07301e-06
6.80592e-06
3.36229e-06
6.6839e-06
1.65303e-06
6.15858e-06
5.07882e-06
-3.04395e-06
5.37586e-06
-5.33199e-06
8.67679e-06
-6.90869e-06
9.05918e-06
-7.91779e-06
7.79572e-06
-8.49308e-06
5.7432e-06
-8.7144e-06
3.45149e-06
-8.63041e-06
1.22856e-06
-8.27098e-06
-7.83201e-07
-7.65483e-06
-2.539e-06
-6.80207e-06
-4.04174e-06
-5.73686e-06
-5.31063e-06
-4.48712e-06
-6.36397e-06
-3.08297e-06
-7.21698e-06
-1.55628e-06
-7.87914e-06
5.98854e-08
-8.35664e-06
1.73141e-06
-8.65113e-06
3.42344e-06
-8.76321e-06
5.1017e-06
-8.69305e-06
6.73327e-06
-8.44333e-06
8.2867e-06
-8.01815e-06
9.73225e-06
-7.42408e-06
1.10427e-05
-6.66964e-06
1.21927e-05
-5.76772e-06
1.31605e-05
-4.73395e-06
1.39258e-05
-3.58905e-06
1.44701e-05
-2.35772e-06
1.47794e-05
-1.06536e-06
1.48431e-05
2.59006e-07
1.46559e-05
1.58586e-06
1.42168e-05
2.88376e-06
1.35318e-05
4.11992e-06
1.26138e-05
5.25982e-06
1.14788e-05
6.26819e-06
1.01526e-05
7.11837e-06
8.66883e-06
7.7898e-06
7.06537e-06
8.25965e-06
5.38018e-06
8.49111e-06
3.64248e-06
8.42158e-06
1.85742e-06
7.94367e-06
6.93627e-06
-3.74849e-06
9.12433e-06
-6.20584e-06
1.11341e-05
-7.68425e-06
1.05376e-05
-8.48262e-06
8.59409e-06
-8.84142e-06
6.10199e-06
-8.88539e-06
3.49547e-06
-8.6731e-06
1.01628e-06
-8.22931e-06
-1.227e-06
-7.56393e-06
-3.20439e-06
-6.6882e-06
-4.91748e-06
-5.61748e-06
-6.38135e-06
-4.37217e-06
-7.60929e-06
-2.97694e-06
-8.6122e-06
-1.45978e-06
-9.39631e-06
1.47998e-07
-9.96442e-06
1.81301e-06
-1.03162e-05
3.50036e-06
-1.04506e-05
5.17562e-06
-1.03683e-05
6.80537e-06
-1.00731e-05
8.35763e-06
-9.57041e-06
9.80245e-06
-8.86891e-06
1.11124e-05
-7.97962e-06
1.22629e-05
-6.91818e-06
1.32323e-05
-5.70332e-06
1.40016e-05
-4.35834e-06
1.45541e-05
-2.91022e-06
1.48767e-05
-1.38791e-06
1.49593e-05
1.76379e-07
1.47966e-05
1.74852e-06
1.43872e-05
3.29321e-06
1.37348e-05
4.77225e-06
1.28492e-05
6.14546e-06
1.17443e-05
7.37304e-06
1.04418e-05
8.42093e-06
8.97056e-06
9.26101e-06
7.3644e-06
9.86581e-06
5.65636e-06
1.01991e-05
3.86988e-06
1.02081e-05
1.99598e-06
9.81757e-06
8.93226e-06
-4.63627e-06
1.37606e-05
-7.16088e-06
1.36587e-05
-8.42471e-06
1.18014e-05
-8.93333e-06
9.10272e-06
-9.03577e-06
6.20444e-06
-8.88651e-06
3.34621e-06
-8.54446e-06
6.74233e-07
-8.02375e-06
-1.74771e-06
-7.32069e-06
-3.90746e-06
-6.43535e-06
-5.80283e-06
-5.37262e-06
-7.44408e-06
-4.14379e-06
-8.83812e-06
-2.76675e-06
-9.98924e-06
-1.2645e-06
-1.08986e-05
3.33768e-07
-1.15627e-05
1.99545e-06
-1.19778e-05
3.68514e-06
-1.21403e-05
5.36746e-06
-1.20506e-05
7.00735e-06
-1.1713e-05
8.57108e-06
-1.11341e-05
1.00272e-05
-1.0325e-05
1.13472e-05
-9.29957e-06
1.25058e-05
-8.07682e-06
1.34815e-05
-6.67894e-06
1.42557e-05
-5.13257e-06
1.48131e-05
-3.46759e-06
1.51415e-05
-1.71635e-06
1.52321e-05
8.57983e-08
1.50797e-05
1.90088e-06
1.46828e-05
3.69007e-06
1.40442e-05
5.41088e-06
1.31711e-05
7.01855e-06
1.20756e-05
8.46856e-06
1.07758e-05
9.72071e-06
9.29645e-06
1.07404e-05
7.66645e-06
1.14958e-05
5.91364e-06
1.19519e-05
4.05565e-06
1.20661e-05
2.0822e-06
1.1791e-05
1.10144e-05
-5.94266e-06
1.97032e-05
-8.28539e-06
1.60015e-05
-9.07262e-06
1.25887e-05
-9.12766e-06
9.15777e-06
-8.89851e-06
5.97529e-06
-8.53128e-06
2.97898e-06
-8.06226e-06
2.05211e-07
-7.48338e-06
-2.3266e-06
-6.76874e-06
-4.6221e-06
-5.90461e-06
-6.66697e-06
-4.88288e-06
-8.46581e-06
-3.70302e-06
-1.0018e-05
-2.3735e-06
-1.13188e-05
-9.10224e-07
-1.23618e-05
6.61018e-07
-1.31339e-05
2.30901e-06
-1.36258e-05
3.99769e-06
-1.38289e-05
5.68966e-06
-1.37426e-05
7.34663e-06
-1.33699e-05
8.9314e-06
-1.27189e-05
1.04093e-05
-1.18029e-05
1.1749e-05
-1.06393e-05
1.29237e-05
-9.25156e-06
1.39108e-05
-7.66605e-06
1.46919e-05
-5.91363e-06
1.52522e-05
-4.02792e-06
1.55808e-05
-2.04487e-06
1.56697e-05
-3.14909e-09
1.55148e-05
2.05579e-06
1.51147e-05
4.09012e-06
1.44718e-05
6.05382e-06
1.3592e-05
7.89833e-06
1.24855e-05
9.57503e-06
1.11678e-05
1.10385e-05
9.65971e-06
1.22485e-05
7.98616e-06
1.31694e-05
6.17127e-06
1.37668e-05
4.23134e-06
1.4006e-05
2.1656e-06
1.38568e-05
1.318e-05
-8.10863e-06
2.78119e-05
-9.55798e-06
1.74509e-05
-9.34631e-06
1.2377e-05
-8.70855e-06
8.52002e-06
-8.06621e-06
5.33295e-06
-7.47126e-06
2.38404e-06
-6.90091e-06
-3.65141e-07
-6.30905e-06
-2.91846e-06
-5.6358e-06
-5.29537e-06
-4.85343e-06
-7.44934e-06
-3.93813e-06
-9.38112e-06
-2.87345e-06
-1.10827e-05
-1.65433e-06
-1.25379e-05
-2.85824e-07
-1.37303e-05
1.21246e-06
-1.46322e-05
2.81256e-06
-1.52259e-05
4.47818e-06
-1.54946e-05
6.16856e-06
-1.5433e-05
7.84002e-06
-1.50414e-05
9.4492e-06
-1.43281e-05
1.09555e-05
-1.33092e-05
1.23229e-05
-1.20066e-05
1.35207e-05
-1.04494e-05
1.45245e-05
-8.66976e-06
1.53146e-05
-6.7038e-06
1.58768e-05
-4.59006e-06
1.62006e-05
-2.36869e-06
1.62795e-05
-8.20466e-08
1.61102e-05
2.22509e-06
1.56921e-05
4.50812e-06
1.50278e-05
6.71813e-06
1.41227e-05
8.8035e-06
1.29856e-05
1.07121e-05
1.16298e-05
1.23943e-05
1.00733e-05
1.3805e-05
8.33796e-06
1.49047e-05
6.44598e-06
1.56588e-05
4.41534e-06
1.60367e-05
2.25446e-06
1.60176e-05
1.54345e-05
-1.07295e-05
3.85414e-05
-1.00418e-05
1.67632e-05
-8.28631e-06
1.06215e-05
-6.82146e-06
7.05518e-06
-5.79754e-06
4.30904e-06
-5.0503e-06
1.63682e-06
-4.48431e-06
-9.3113e-07
-3.98564e-06
-3.41714e-06
-3.46123e-06
-5.81978e-06
-2.87382e-06
-8.03677e-06
-2.18359e-06
-1.00714e-05
-1.35376e-06
-1.19125e-05
-3.61402e-07
-1.35302e-05
8.05537e-07
-1.48973e-05
2.13823e-06
-1.59649e-05
3.61588e-06
-1.67036e-05
5.20347e-06
-1.70822e-05
6.85574e-06
-1.70853e-05
8.52102e-06
-1.67067e-05
1.0146e-05
-1.5953e-05
1.16799e-05
-1.48432e-05
1.30784e-05
-1.34051e-05
1.43042e-05
-1.16753e-05
1.53286e-05
-9.69414e-06
1.61298e-05
-7.50505e-06
1.66928e-05
-5.15296e-06
1.70075e-05
-2.68341e-06
1.70685e-05
-1.43053e-07
1.68737e-05
2.41989e-06
1.64236e-05
4.95816e-06
1.57215e-05
7.42027e-06
1.47728e-05
9.75211e-06
1.3586e-05
1.18989e-05
1.21728e-05
1.38075e-05
1.0549e-05
1.54287e-05
8.73434e-06
1.67194e-05
6.75036e-06
1.76428e-05
4.61786e-06
1.81692e-05
2.35316e-06
1.82823e-05
1.77877e-05
4.13919e-05
4.69122e-05
5.92023e-05
5.24551e-05
5.14114e-05
4.2955e-05
4.91508e-05
6.14629e-05
5.55986e-05
3.90422e-05
4.17991e-05
6.29503e-05
5.83348e-05
3.52785e-05
3.64226e-05
6.37113e-05
6.01494e-05
3.17229e-05
3.22255e-05
6.43465e-05
6.12916e-05
2.84074e-05
2.86625e-05
6.48545e-05
6.20605e-05
2.53053e-05
2.54626e-05
6.52604e-05
6.26902e-05
2.23945e-05
2.251e-05
6.56428e-05
6.33944e-05
1.96833e-05
1.97674e-05
6.6137e-05
6.44126e-05
1.72543e-05
6.69258e-05
1.50207e-05
6.82371e-05
1.30863e-05
7.02269e-05
1.07707e-05
7.27379e-05
8.62597e-06
7.46552e-05
1.00345e-05
8.05467e-05
1.02827e-05
8.9906e-05
9.6529e-06
9.80083e-05
8.3135e-06
0.000104477
6.39484e-06
0.000109389
3.98305e-06
0.000112923
1.13585e-06
0.000115229
-2.10019e-06
0.000116427
-5.68267e-06
0.000116629
-9.57085e-06
0.00011595
-1.37244e-05
0.000114506
-1.81027e-05
0.000112413
-2.2664e-05
0.000109783
-2.7366e-05
0.000106716
-3.21655e-05
0.000103298
-3.70187e-05
9.95874e-05
-4.18822e-05
9.56159e-05
-4.67001e-05
9.13861e-05
8.68829e-05
1.83225e-05
3.41327e-05
-3.0089e-06
2.13314e-05
-1.74748e-05
1.44659e-05
2.1007e-05
-3.84818e-05
5.55418e-05
4.00538e-05
4.60892e-05
3.07839e-05
3.65071e-05
2.4048e-05
1.96615e-05
3.78527e-05
6.60925e-05
3.69116e-05
6.45514e-05
3.23251e-05
6.10191e-05
2.75803e-05
2.33939e-05
5.72867e-05
6.76558e-05
3.2967e-05
6.95789e-05
3.0402e-05
6.97094e-05
2.74498e-05
2.43768e-05
6.87265e-05
6.78229e-05
2.94906e-05
7.04522e-05
2.77727e-05
7.21638e-05
2.57382e-05
2.35206e-05
7.302e-05
6.79516e-05
2.63936e-05
7.05914e-05
2.51329e-05
7.27375e-05
2.35921e-05
2.18843e-05
7.43739e-05
6.81084e-05
2.35456e-05
7.06603e-05
2.2581e-05
7.28959e-05
2.13565e-05
1.99702e-05
7.48099e-05
6.831e-05
2.08784e-05
7.07717e-05
2.01192e-05
7.30073e-05
1.91209e-05
1.79612e-05
7.50163e-05
6.8647e-05
1.83685e-05
7.10146e-05
1.77516e-05
7.32137e-05
1.69218e-05
1.59329e-05
7.5242e-05
6.9261e-05
1.60333e-05
7.1511e-05
1.55015e-05
7.36374e-05
1.47954e-05
1.39351e-05
7.56352e-05
7.03381e-05
1.39324e-05
7.24199e-05
1.34197e-05
7.44188e-05
1.27964e-05
1.20222e-05
7.63317e-05
7.20689e-05
1.20904e-05
7.39291e-05
1.15595e-05
7.57217e-05
1.10039e-05
1.02656e-05
7.74782e-05
7.44982e-05
1.03301e-05
7.60911e-05
9.96664e-06
7.76549e-05
9.44006e-06
8.70316e-06
7.92174e-05
7.6539e-05
8.4463e-06
7.83852e-05
8.12046e-06
8.01455e-05
7.6797e-06
7.28271e-06
8.1566e-05
7.94169e-05
9.57611e-06
8.02476e-05
7.28978e-06
8.21966e-05
5.73071e-06
5.78816e-06
8.36911e-05
8.99713e-05
9.51085e-06
8.90993e-05
8.16174e-06
8.76324e-05
7.19767e-06
6.88007e-06
8.65405e-05
9.84115e-05
9.10764e-06
9.8099e-05
8.47421e-06
9.73773e-05
7.91939e-06
7.32608e-06
9.69313e-05
0.000105412
8.17214e-06
0.000105784
8.10238e-06
0.000105779
7.92462e-06
7.53859e-06
0.000105567
0.000110855
6.7055e-06
0.000111868
7.08952e-06
0.000112493
7.29958e-06
7.28222e-06
0.00011275
0.000114877
4.75182e-06
0.000116442
5.52429e-06
0.000117618
6.12419e-06
6.5197e-06
0.00011838
0.000117626
2.35517e-06
0.000119676
3.4742e-06
0.000121346
4.45397e-06
5.26448e-06
0.000122601
0.000119225
-4.42977e-07
0.000121711
9.88288e-07
0.000123837
2.32811e-06
3.54195e-06
0.000125559
0.000119789
-3.60249e-06
0.000122668
-1.89077e-06
0.000125211
-2.15065e-07
1.38495e-06
0.000127368
0.000119431
-7.08333e-06
0.000122661
-5.12057e-06
0.00012558
-3.13399e-06
-1.16683e-06
0.000128132
0.000118268
-1.08444e-05
0.000121804
-8.65724e-06
0.000125053
-6.38309e-06
-4.06726e-06
0.000127954
0.000116412
-1.48432e-05
0.000120209
-1.24545e-05
0.000123739
-9.9127e-06
-7.26436e-06
0.000126936
0.000113975
-1.90353e-05
0.000117984
-1.64635e-05
0.00012174
-1.36693e-05
-1.07008e-05
0.000125177
0.000111056
-2.33753e-05
0.000115226
-2.0633e-05
0.000119153
-1.75962e-05
-1.43149e-05
0.000122767
0.000107739
-2.78166e-05
0.000112016
-2.49101e-05
0.000116055
-2.16346e-05
-1.80416e-05
0.000119781
0.000104082
-3.23115e-05
0.000108413
-2.92406e-05
0.000112502
-2.57236e-05
-2.18137e-05
0.000116274
0.000100116
-3.68113e-05
0.000104445
-3.35701e-05
0.000108524
-2.98023e-05
-2.55636e-05
0.000112274
9.5842e-05
-4.12672e-05
0.000100116
-3.78436e-05
0.000104124
-3.38104e-05
-2.92255e-05
0.000107786
9.12465e-05
9.54071e-05
9.9286e-05
0.000102797
-1.44396e-05
1.44992e-05
-7.01936e-06
9.34295e-06
-3.23417e-06
6.83635e-06
-1.48483e-06
5.30585e-06
-5.95229e-07
3.41943e-06
-6.88325e-08
1.11042e-06
2.0613e-07
-1.2061e-06
3.54355e-07
-3.56536e-06
5.14398e-07
-5.97983e-06
7.0579e-07
-8.22816e-06
9.72668e-07
-1.03382e-05
1.37584e-06
-1.23157e-05
1.95823e-06
-1.41126e-05
2.75669e-06
-1.56957e-05
3.77781e-06
-1.6986e-05
5.01471e-06
-1.79405e-05
6.43777e-06
-1.85052e-05
7.99749e-06
-1.8645e-05
9.63097e-06
-1.83402e-05
1.12686e-05
-1.75907e-05
1.28424e-05
-1.64169e-05
1.42921e-05
-1.48548e-05
1.55684e-05
-1.29516e-05
1.66338e-05
-1.07595e-05
1.74614e-05
-8.33273e-06
1.80337e-05
-5.72517e-06
1.834e-05
-2.9898e-06
1.83757e-05
-1.78774e-07
1.814e-05
2.65564e-06
1.76347e-05
5.46338e-06
1.68646e-05
8.19041e-06
1.58361e-05
1.07806e-05
1.4558e-05
1.31771e-05
1.30412e-05
1.53243e-05
1.13004e-05
1.71695e-05
9.35409e-06
1.86658e-05
7.22422e-06
1.97727e-05
4.93471e-06
2.04587e-05
2.50912e-06
2.0708e-05
2.02968e-05
3.15664e-05
2.07855e-05
1.87455e-05
2.21639e-05
1.38348e-05
1.17471e-05
1.18937e-05
7.24688e-06
1.05372e-05
4.77597e-06
9.72788e-06
1.91975e-06
8.94741e-06
-4.25642e-07
8.16413e-06
-2.7821e-06
7.52177e-06
-5.33746e-06
6.95298e-06
-7.65937e-06
6.46128e-06
-9.84654e-06
6.12183e-06
-1.19762e-05
5.98716e-06
-1.3978e-05
6.12428e-06
-1.58328e-05
6.55449e-06
-1.74162e-05
7.29538e-06
-1.86814e-05
8.33302e-06
-1.95429e-05
9.62162e-06
-1.99336e-05
1.10897e-05
-1.98082e-05
1.26475e-05
-1.91485e-05
1.42015e-05
-1.79709e-05
1.56665e-05
-1.63198e-05
1.6972e-05
-1.42571e-05
1.80656e-05
-1.18531e-05
1.89106e-05
-9.1778e-06
1.9484e-05
-6.29851e-06
1.97731e-05
-3.27895e-06
1.97733e-05
-1.78996e-07
1.94851e-05
2.94389e-06
1.89122e-05
6.03628e-06
1.80611e-05
9.04144e-06
1.69403e-05
1.19014e-05
1.55591e-05
1.45583e-05
1.39288e-05
1.69546e-05
1.2063e-05
1.90353e-05
9.9794e-06
2.07494e-05
7.70028e-06
2.20518e-05
5.25248e-06
2.29065e-05
2.6656e-06
2.32949e-05
2.29624e-05
5.55934e-05
2.24788e-05
5.78542e-05
1.99031e-05
5.09247e-05
1.86766e-05
3.90186e-05
1.9153e-05
3.13349e-05
1.24596e-05
2.71427e-05
6.112e-06
2.35356e-05
3.18138e-06
2.10005e-05
-2.46997e-07
1.88105e-05
-3.1474e-06
1.69336e-05
-5.78251e-06
1.52147e-05
-8.12763e-06
1.37359e-05
-1.04974e-05
1.2515e-05
-1.27571e-05
1.16435e-05
-1.49614e-05
1.11345e-05
-1.69072e-05
1.10415e-05
-1.85884e-05
1.13806e-05
-1.9882e-05
1.21269e-05
-2.06799e-05
1.32131e-05
-2.08945e-05
1.45337e-05
-2.04691e-05
1.59638e-05
-1.94011e-05
1.73816e-05
-1.77376e-05
1.86825e-05
-1.55581e-05
1.97868e-05
-1.29574e-05
2.06396e-05
-1.00306e-05
2.12067e-05
-6.86559e-06
2.14701e-05
-3.54233e-06
2.14234e-05
-1.32321e-07
2.10679e-05
3.29941e-06
2.04095e-05
6.69473e-06
1.94572e-05
9.99367e-06
1.8222e-05
1.31367e-05
1.6715e-05
1.60653e-05
1.49481e-05
1.87215e-05
1.29348e-05
2.10486e-05
1.06922e-05
2.2992e-05
8.24264e-06
2.45014e-05
5.61542e-06
2.55337e-05
2.84527e-06
2.6065e-05
2.58077e-05
6.73911e-05
2.38141e-05
6.63294e-05
2.09648e-05
6.61846e-05
1.88215e-05
6.83707e-05
1.69669e-05
6.56711e-05
1.51592e-05
5.61276e-05
1.56555e-05
4.65542e-05
1.27547e-05
4.06226e-05
5.68462e-06
3.57374e-05
1.73787e-06
3.1749e-05
-1.79419e-06
2.81505e-05
-4.52907e-06
2.50501e-05
-7.39705e-06
2.2314e-05
-1.0021e-05
2.00746e-05
-1.27219e-05
1.8254e-05
-1.50866e-05
1.69478e-05
-1.72822e-05
1.61989e-05
-1.9133e-05
1.60273e-05
-2.05084e-05
1.63995e-05
-2.12666e-05
1.72145e-05
-2.12841e-05
1.83241e-05
-2.05107e-05
1.95644e-05
-1.8978e-05
2.07824e-05
-1.6776e-05
2.18538e-05
-1.40289e-05
2.26902e-05
-1.08671e-05
2.32357e-05
-7.411e-06
2.346e-05
-3.76669e-06
2.33518e-05
-2.40992e-08
2.29116e-05
3.73964e-06
2.21471e-05
7.45918e-06
2.10709e-05
1.10699e-05
1.96969e-05
1.45107e-05
1.80391e-05
1.77231e-05
1.61108e-05
2.06498e-05
1.39259e-05
2.32335e-05
1.1501e-05
2.54169e-05
8.85825e-06
2.71441e-05
6.02858e-06
2.83634e-05
3.05098e-06
2.90426e-05
2.88587e-05
7.32292e-05
2.36049e-05
7.32035e-05
2.09905e-05
7.32768e-05
1.87482e-05
7.3331e-05
1.69127e-05
7.31797e-05
1.53104e-05
7.49617e-05
1.38736e-05
7.53947e-05
1.23217e-05
6.90539e-05
1.20254e-05
5.96626e-05
1.11292e-05
5.22142e-05
5.6542e-06
4.59969e-05
1.68819e-06
4.07253e-05
-2.12537e-06
3.59958e-05
-5.29157e-06
3.20549e-05
-8.78095e-06
2.85595e-05
-1.15913e-05
2.56951e-05
-1.44178e-05
2.34692e-05
-1.69071e-05
2.19632e-05
-1.90024e-05
2.12008e-05
-2.05041e-05
2.11255e-05
-2.12088e-05
2.1598e-05
-2.09832e-05
2.2428e-05
-1.98079e-05
2.34092e-05
-1.77572e-05
2.43558e-05
-1.49755e-05
2.51239e-05
-1.16351e-05
2.5617e-05
-7.9041e-06
2.57806e-05
-3.93029e-06
2.55907e-05
1.65723e-07
2.50441e-05
4.28628e-06
2.41494e-05
8.35382e-06
2.29229e-05
1.22965e-05
2.13826e-05
1.6051e-05
1.95461e-05
1.95596e-05
1.74291e-05
2.27668e-05
1.50463e-05
2.56163e-05
1.24139e-05
2.80494e-05
9.5535e-06
3.00046e-05
6.49654e-06
3.14204e-05
3.28519e-06
3.2254e-05
3.21439e-05
7.56629e-05
2.23159e-05
7.65348e-05
2.01186e-05
7.7163e-05
1.812e-05
7.77237e-05
1.6352e-05
7.82625e-05
1.47716e-05
7.8694e-05
1.34421e-05
7.8744e-05
1.22717e-05
7.95661e-05
1.12033e-05
8.06273e-05
1.0068e-05
7.68163e-05
9.46521e-06
6.8792e-05
9.7125e-06
6.06948e-05
5.97183e-06
5.37902e-05
1.61302e-06
4.79686e-05
-2.95936e-06
4.25178e-05
-6.14046e-06
3.78374e-05
-9.73751e-06
3.37882e-05
-1.28579e-05
3.05652e-05
-1.57793e-05
2.82417e-05
-1.81807e-05
2.68279e-05
-1.9795e-05
2.62364e-05
-2.03917e-05
2.62995e-05
-1.98711e-05
2.67828e-05
-1.82405e-05
2.74342e-05
-1.56269e-05
2.80327e-05
-1.22335e-05
2.84152e-05
-8.2866e-06
2.84811e-05
-3.9962e-06
2.81807e-05
4.66097e-07
2.74994e-05
4.96753e-06
2.64451e-05
9.40821e-06
2.5037e-05
1.37045e-05
2.32986e-05
1.77894e-05
2.12519e-05
2.16063e-05
1.89156e-05
2.51031e-05
1.63059e-05
2.8226e-05
1.34386e-05
3.09166e-05
1.03342e-05
3.3109e-05
7.02345e-06
3.47311e-05
3.55016e-06
3.57273e-05
3.5694e-05
7.65866e-05
2.05392e-05
7.80253e-05
1.86799e-05
7.92115e-05
1.69339e-05
8.02216e-05
1.53419e-05
8.10759e-05
1.39173e-05
8.18345e-05
1.26835e-05
8.25106e-05
1.15956e-05
8.30308e-05
1.06831e-05
8.31848e-05
9.91398e-06
8.34249e-05
9.22518e-06
8.46665e-05
8.47083e-06
8.2613e-05
8.02538e-06
7.56994e-05
8.52664e-06
6.7327e-05
5.41298e-06
5.9833e-05
1.3536e-06
5.34931e-05
-3.39767e-06
4.75625e-05
-6.92731e-06
4.23188e-05
-1.05356e-05
3.80672e-05
-1.39291e-05
3.48931e-05
-1.66209e-05
3.27727e-05
-1.82713e-05
3.1617e-05
-1.87154e-05
3.12229e-05
-1.78464e-05
3.13032e-05
-1.57072e-05
3.1555e-05
-1.24853e-05
3.17221e-05
-8.45365e-06
3.16275e-05
-3.90162e-06
3.11726e-05
9.20985e-07
3.03189e-05
5.82121e-06
2.90677e-05
1.06595e-05
2.74406e-05
1.53316e-05
2.54665e-05
1.97634e-05
2.31731e-05
2.38997e-05
2.0583e-05
2.76931e-05
1.77142e-05
3.10948e-05
1.45823e-05
3.40485e-05
1.12056e-05
3.64857e-05
7.61295e-06
3.83238e-05
3.8479e-06
3.94923e-05
3.95419e-05
7.70022e-05
1.85533e-05
7.8737e-05
1.69451e-05
8.026e-05
1.54108e-05
8.16038e-05
1.39981e-05
8.27907e-05
1.27304e-05
8.38509e-05
1.16233e-05
8.4773e-05
1.06735e-05
8.55635e-05
9.89257e-06
8.62309e-05
9.24652e-06
8.67174e-05
8.73877e-06
8.68425e-05
8.34569e-06
8.68537e-05
8.01418e-06
8.78064e-05
7.57397e-06
8.58051e-05
7.41422e-06
7.91689e-05
7.98979e-06
7.12624e-05
4.50885e-06
6.38247e-05
5.1043e-07
5.70452e-05
-3.75614e-06
5.09742e-05
-7.85809e-06
4.57278e-05
-1.13745e-05
4.16687e-05
-1.42122e-05
3.8845e-05
-1.58917e-05
3.71256e-05
-1.61271e-05
3.62569e-05
-1.48385e-05
3.58891e-05
-1.21174e-05
3.56676e-05
-8.23216e-06
3.53083e-05
-3.54233e-06
3.46314e-05
1.59785e-06
3.35528e-05
6.89981e-06
3.2057e-05
1.21554e-05
3.01647e-05
1.72238e-05
2.79103e-05
2.20179e-05
2.53277e-05
2.64823e-05
2.24445e-05
3.05763e-05
1.92807e-05
3.42586e-05
1.58513e-05
3.74779e-05
1.2172e-05
4.0165e-05
8.268e-06
4.22278e-05
4.18013e-06
4.35802e-05
4.37221e-05
7.73129e-05
1.64823e-05
7.91909e-05
1.50671e-05
8.08977e-05
1.3704e-05
8.24517e-05
1.24441e-05
8.38649e-05
1.13171e-05
8.51471e-05
1.03412e-05
8.62974e-05
9.52326e-06
8.73224e-05
8.86754e-06
8.82057e-05
8.36325e-06
8.89346e-05
8.00985e-06
8.9506e-05
7.77432e-06
8.98729e-05
7.64726e-06
8.98567e-05
7.59019e-06
8.97303e-05
7.54059e-06
9.03669e-05
7.35315e-06
8.73063e-05
7.56946e-06
8.03143e-05
7.50245e-06
7.26917e-05
3.8665e-06
6.57192e-05
-8.85592e-07
5.90831e-05
-4.73847e-06
5.309e-05
-8.21913e-06
4.8285e-05
-1.10867e-05
4.48546e-05
-1.26967e-05
4.26292e-05
-1.26131e-05
4.129e-05
-1.07781e-05
4.04269e-05
-7.36915e-06
3.96412e-05
-2.75661e-06
3.86394e-05
2.59958e-06
3.7262e-05
8.27728e-06
3.54591e-05
1.39582e-05
3.32444e-05
1.94386e-05
3.06558e-05
2.46064e-05
2.77343e-05
2.94039e-05
2.45128e-05
3.37978e-05
2.10137e-05
3.77577e-05
1.72511e-05
4.12405e-05
1.32369e-05
4.41792e-05
8.99072e-06
4.6474e-05
4.5481e-06
4.80228e-05
4.82702e-05
7.77187e-05
1.43988e-05
7.96495e-05
1.31364e-05
8.14418e-05
1.19117e-05
8.31076e-05
1.07784e-05
8.46523e-05
9.77239e-06
8.60803e-05
8.91318e-06
8.73906e-05
8.21297e-06
8.85806e-05
7.67749e-06
8.96405e-05
7.30338e-06
9.05656e-05
7.08472e-06
9.13366e-05
7.00337e-06
9.19352e-05
7.04864e-06
9.23431e-05
7.18223e-06
9.24988e-05
7.38491e-06
9.22461e-05
7.60589e-06
9.20853e-05
7.73027e-06
9.18417e-05
7.74606e-06
8.73231e-05
8.38512e-06
8.01804e-05
6.25702e-06
7.30463e-05
2.39573e-06
6.60969e-05
-1.26979e-06
5.97777e-05
-4.76752e-06
5.45502e-05
-7.46915e-06
5.06735e-05
-8.73641e-06
4.80195e-05
-8.12411e-06
4.62092e-05
-5.55889e-06
4.47734e-05
-1.3208e-06
4.32977e-05
4.07525e-06
4.15181e-05
1.00569e-05
3.93269e-05
1.61495e-05
3.67182e-05
2.20472e-05
3.37309e-05
2.75938e-05
3.0412e-05
3.27228e-05
2.68004e-05
3.74094e-05
2.29209e-05
4.16373e-05
1.87858e-05
4.53756e-05
1.44022e-05
4.85628e-05
9.78219e-06
5.1094e-05
4.95251e-06
5.28525e-05
5.32227e-05
7.83655e-05
1.2365e-05
8.02792e-05
1.12227e-05
8.20832e-05
1.01076e-05
8.37845e-05
9.07718e-06
8.53838e-05
8.173e-06
8.68846e-05
7.41245e-06
8.82844e-05
6.81313e-06
8.95789e-05
6.38296e-06
9.07606e-05
6.12173e-06
9.18198e-05
6.02553e-06
9.27405e-05
6.08263e-06
9.35111e-05
6.27806e-06
9.41074e-05
6.58593e-06
9.45077e-05
6.98455e-06
9.46837e-05
7.42993e-06
9.45276e-05
7.88639e-06
9.39948e-05
8.27881e-06
9.39253e-05
8.45468e-06
9.13948e-05
8.78753e-06
8.54676e-05
8.32287e-06
7.88621e-05
5.3357e-06
7.20952e-05
1.99943e-06
6.57612e-05
-1.13521e-06
6.03772e-05
-3.35237e-06
5.62324e-05
-3.97931e-06
5.32032e-05
-2.52972e-06
5.08633e-05
1.01911e-06
4.87209e-05
6.21764e-06
4.64016e-05
1.23761e-05
4.37176e-05
1.88334e-05
4.06272e-05
2.51377e-05
3.71637e-05
3.10572e-05
3.33795e-05
3.65071e-05
2.93186e-05
4.14702e-05
2.50081e-05
4.59477e-05
2.0458e-05
4.99258e-05
1.56685e-05
5.33522e-05
1.06421e-05
5.61204e-05
5.39326e-06
5.81014e-05
5.8616e-05
7.93936e-05
1.04497e-05
8.1217e-05
9.3993e-06
8.29628e-05
8.36177e-06
8.46316e-05
7.40845e-06
8.62174e-05
6.58718e-06
8.77246e-05
5.90529e-06
8.91491e-05
5.3886e-06
9.04864e-05
5.04566e-06
9.17301e-05
4.87807e-06
9.28697e-05
4.88588e-06
9.38913e-05
5.06103e-06
9.47787e-05
5.39065e-06
9.55107e-05
5.85396e-06
9.60701e-05
6.42513e-06
9.64304e-05
7.06964e-06
9.65655e-05
7.75134e-06
9.64238e-05
8.42045e-06
9.58644e-05
9.01413e-06
9.52546e-05
9.3973e-06
9.3926e-05
9.65147e-06
8.937e-05
9.89173e-06
8.36093e-05
7.76009e-06
7.73478e-05
5.12625e-06
7.11735e-05
2.82196e-06
6.5793e-05
1.4012e-06
6.14695e-05
1.79375e-06
5.80248e-05
4.46381e-06
5.50128e-05
9.2296e-06
5.19915e-05
1.53974e-05
4.8688e-05
2.21369e-05
4.5011e-05
2.88147e-05
4.09805e-05
3.50877e-05
3.66525e-05
4.0835e-05
3.2076e-05
4.60468e-05
2.72789e-05
5.07448e-05
2.22677e-05
5.4937e-05
1.70342e-05
5.85857e-05
1.15686e-05
6.15861e-05
5.86921e-06
6.38007e-05
6.44852e-05
8.09467e-05
8.72034e-06
8.25934e-05
7.75261e-06
8.42051e-05
6.75014e-06
8.57709e-05
5.84262e-06
8.7273e-05
5.08507e-06
8.87221e-05
4.45624e-06
9.01095e-05
4.0012e-06
9.14298e-05
3.72532e-06
9.26778e-05
3.63011e-06
9.38426e-05
3.72099e-06
9.49118e-05
3.99193e-06
9.58683e-05
4.43409e-06
9.66913e-05
5.03093e-06
9.73585e-05
5.75801e-06
9.78463e-05
6.58185e-06
9.81348e-05
7.46276e-06
9.81972e-05
8.35804e-06
9.79964e-05
9.21502e-06
9.74212e-05
9.97249e-06
9.65543e-05
1.05183e-05
9.5621e-05
1.0825e-05
9.21196e-05
1.12615e-05
8.72451e-05
1.00007e-05
8.17544e-05
8.31267e-06
7.60156e-05
7.14e-06
7.0747e-05
7.06228e-06
6.62123e-05
8.99856e-06
6.22091e-05
1.32327e-05
5.83387e-05
1.92678e-05
5.42809e-05
2.61947e-05
4.99005e-05
3.31951e-05
4.52011e-05
3.97871e-05
4.02418e-05
4.57943e-05
3.50764e-05
5.12122e-05
2.97327e-05
5.60884e-05
2.42118e-05
6.04579e-05
1.84952e-05
6.43023e-05
1.25577e-05
6.75236e-05
6.37805e-06
6.99803e-05
7.08632e-05
8.30463e-05
7.24002e-06
8.44755e-05
6.32341e-06
8.59119e-05
5.31378e-06
8.73087e-05
4.44581e-06
8.86503e-05
3.7434e-06
8.99758e-05
3.13073e-06
9.12629e-05
2.71411e-06
9.25056e-05
2.48268e-06
9.37015e-05
2.43417e-06
9.48375e-05
2.58501e-06
9.59017e-05
2.92774e-06
9.68772e-05
3.45856e-06
9.77435e-05
4.1646e-06
9.84769e-05
5.02467e-06
9.90509e-05
6.00785e-06
9.94405e-05
7.07317e-06
9.9626e-05
8.17246e-06
9.95862e-05
9.25481e-06
9.92888e-05
1.02699e-05
9.86525e-05
1.11546e-05
9.76686e-05
1.18089e-05
9.67317e-05
1.21984e-05
9.39586e-05
1.27738e-05
9.00178e-05
1.22534e-05
8.53399e-05
1.18179e-05
8.01631e-05
1.22391e-05
7.50355e-05
1.41261e-05
7.01718e-05
1.80964e-05
6.5412e-05
2.40276e-05
6.05004e-05
3.11064e-05
5.53048e-05
3.83906e-05
4.98315e-05
4.52604e-05
4.41478e-05
5.1478e-05
3.83158e-05
5.70443e-05
3.23629e-05
6.20413e-05
2.62828e-05
6.6538e-05
2.0044e-05
7.05411e-05
1.36033e-05
7.39643e-05
6.91608e-06
7.66676e-05
7.77793e-05
8.53252e-05
5.60596e-06
8.67736e-05
4.87503e-06
8.80468e-05
4.04058e-06
8.92405e-05
3.25208e-06
9.03897e-05
2.5942e-06
9.15614e-05
1.95907e-06
9.2688e-05
1.58747e-06
9.37903e-05
1.38038e-06
9.48787e-05
1.34573e-06
9.59305e-05
1.53327e-06
9.69379e-05
1.9203e-06
9.78832e-05
2.51329e-06
9.87451e-05
3.30271e-06
9.94992e-05
4.27054e-06
0.000100118
5.38887e-06
0.000100573
6.618e-06
0.000100838
7.90752e-06
0.000100894
9.19953e-06
0.000100726
1.04379e-05
0.000100307
1.15727e-05
9.9575e-05
1.25413e-05
9.85179e-05
1.32556e-05
9.75638e-05
1.37279e-05
9.52238e-05
1.45935e-05
9.21943e-05
1.48474e-05
8.82874e-05
1.6146e-05
8.35913e-05
1.88222e-05
7.84465e-05
2.32413e-05
7.30133e-05
2.94608e-05
6.72683e-05
3.68513e-05
6.11916e-05
4.44673e-05
5.48523e-05
5.15997e-05
4.83544e-05
5.79759e-05
4.17782e-05
6.36204e-05
3.5154e-05
6.86655e-05
2.84667e-05
7.32253e-05
2.16689e-05
7.73389e-05
1.46966e-05
8.09366e-05
7.47819e-06
8.38861e-05
8.52575e-05
8.73043e-05
4.84214e-06
8.87235e-05
3.45583e-06
9.00379e-05
2.72614e-06
9.12915e-05
1.99853e-06
9.24014e-05
1.4843e-06
9.3436e-05
9.24469e-07
9.4373e-05
6.50446e-07
9.53209e-05
4.32476e-07
9.6268e-05
3.98612e-07
9.71798e-05
6.21489e-07
9.80807e-05
1.01944e-06
9.89461e-05
1.64785e-06
9.97559e-05
2.49296e-06
0.000100486
3.54056e-06
0.000101107
4.76797e-06
0.000101588
6.13673e-06
0.000101899
7.59611e-06
0.000102015
9.0844e-06
0.000101917
1.0535e-05
0.000101602
1.18885e-05
0.000101045
1.30978e-05
0.000100196
1.41052e-05
9.9081e-05
1.48424e-05
9.82266e-05
1.54479e-05
9.62434e-05
1.68306e-05
9.39811e-05
1.84083e-05
9.06776e-05
2.21257e-05