/*--------------------------------*- C++ -*----------------------------------*\
| =========                 |                                                 |
| \\      /  F ield         | OpenFOAM: The Open Source CFD Toolbox           |
|  \\    /   O peration     | Version:  5.0                                   |
|   \\  /    A nd           | Web:      www.OpenFOAM.org                      |
|    \\/     M anipulation  |                                                 |
\*---------------------------------------------------------------------------*/
FoamFile
{
    version     2.0;
    format      ascii;
    class       surfaceScalarField;
    location    "0.9";
    object      alphaPhi10;
}
// * * * * * * * * * * * * * * * * * * * * * * * * * * * * * * * * * * * * * //

dimensions      [0 3 -1 0 0 0 0];

internalField   nonuniform List<scalar> 
3781
(
-1.41297e-06
1.41297e-06
-3.41587e-06
2.0029e-06
-5.16278e-06
1.74691e-06
-6.58258e-06
1.41979e-06
-7.79616e-06
1.21359e-06
-8.90635e-06
1.11019e-06
-9.97199e-06
1.06564e-06
-1.10173e-05
1.04536e-06
-1.20467e-05
1.02936e-06
-1.30547e-05
1.00795e-06
-1.40322e-05
9.77544e-07
-1.49699e-05
9.37729e-07
-1.58595e-05
8.89571e-07
-1.66942e-05
8.34694e-07
-1.7469e-05
7.74834e-07
-1.81807e-05
7.11622e-07
-1.88271e-05
6.46487e-07
-1.94078e-05
5.8061e-07
-1.99227e-05
5.14905e-07
-2.03726e-05
4.49966e-07
-2.07586e-05
3.86029e-07
-2.10816e-05
3.22984e-07
-2.1342e-05
2.60396e-07
-2.15394e-05
1.97372e-07
-2.16712e-05
1.31749e-07
-2.17304e-05
5.92094e-08
-2.16991e-05
-3.12185e-08
-2.15718e-05
-1.27355e-07
-2.13426e-05
-2.29157e-07
-2.10045e-05
-3.38119e-07
-2.05448e-05
-4.59742e-07
-1.99484e-05
-5.9633e-07
-1.92037e-05
-7.4476e-07
-1.82332e-05
-8.97796e-07
-1.67128e-05
-1.01726e-06
-1.56932e-05
-1.1719e-06
-1.45096e-05
-1.51252e-06
-1.27758e-05
-1.73371e-06
-1.08846e-05
-1.83213e-06
-8.92035e-06
-1.875e-06
-6.91885e-06
-1.91871e-06
-4.95163e-06
-1.94305e-06
-3.03316e-06
-1.94515e-06
-1.85052e-06
-2.10462e-06
3.5176e-06
-3.90289e-06
3.80117e-06
-5.46504e-06
3.30905e-06
-6.86504e-06
2.8198e-06
-8.17598e-06
2.52453e-06
-9.43524e-06
2.36944e-06
-1.06551e-05
2.28548e-06
-1.18353e-05
2.22561e-06
-1.29702e-05
2.16421e-06
-1.4052e-05
2.08977e-06
-1.50734e-05
1.99891e-06
-1.60281e-05
1.89242e-06
-1.69114e-05
1.77294e-06
-1.77204e-05
1.64367e-06
-1.84533e-05
1.50776e-06
-1.91097e-05
1.36803e-06
-1.969e-05
1.22678e-06
-2.01952e-05
1.08578e-06
-2.06266e-05
9.46268e-07
-2.09855e-05
8.08855e-07
-2.12729e-05
6.7349e-07
-2.14895e-05
5.39523e-07
-2.16349e-05
4.05816e-07
-2.17081e-05
2.70617e-07
-2.17075e-05
1.31106e-07
-2.16321e-05
-1.61674e-08
-2.14865e-05
-1.76793e-07
-2.12645e-05
-3.49421e-07
-2.09571e-05
-5.36551e-07
-2.05549e-05
-7.40291e-07
-2.00495e-05
-9.65169e-07
-1.94315e-05
-1.21433e-06
-1.86887e-05
-1.48751e-06
-1.77362e-05
-1.7801e-06
-1.66438e-05
-2.08691e-06
-1.54383e-05
-2.44921e-06
-1.41722e-05
-2.87893e-06
-1.25477e-05
-3.26462e-06
-1.06929e-05
-3.48208e-06
-8.95973e-06
-3.62697e-06
-7.21017e-06
-3.68711e-06
-5.46562e-06
-3.70643e-06
-3.81832e-06
-3.61231e-06
-3.40802e-06
-2.15554e-06
5.67313e-06
-3.73524e-06
5.38087e-06
-5.20251e-06
4.77633e-06
-6.63011e-06
4.2474e-06
-8.01163e-06
3.90605e-06
-9.34193e-06
3.69974e-06
-1.06166e-05
3.56018e-06
-1.18314e-05
3.44034e-06
-1.29816e-05
3.31449e-06
-1.40633e-05
3.17139e-06
-1.50727e-05
3.00832e-06
-1.60072e-05
2.82692e-06
-1.6865e-05
2.63072e-06
-1.76451e-05
2.42381e-06
-1.83475e-05
2.21012e-06
-1.89725e-05
1.99308e-06
-1.95211e-05
1.7754e-06
-1.99944e-05
1.5591e-06
-2.03937e-05
1.34551e-06
-2.072e-05
1.13514e-06
-2.09741e-05
9.27611e-07
-2.11564e-05
7.2179e-07
-2.12666e-05
5.16095e-07
-2.13044e-05
3.08426e-07
-2.12692e-05
9.5885e-08
-2.11602e-05
-1.25183e-07
-2.09783e-05
-3.58654e-07
-2.07205e-05
-6.07236e-07
-2.03828e-05
-8.74302e-07
-1.99594e-05
-1.16365e-06
-1.94442e-05
-1.48039e-06
-1.88292e-05
-1.8293e-06
-1.81035e-05
-2.21319e-06
-1.72515e-05
-2.63217e-06
-1.62496e-05
-3.0888e-06
-1.50989e-05
-3.59987e-06
-1.38222e-05
-4.15569e-06
-1.24105e-05
-4.67633e-06
-1.07739e-05
-5.08815e-06
-9.04119e-06
-5.35249e-06
-7.32576e-06
-5.46339e-06
-5.8055e-06
-5.41245e-06
-4.33804e-06
-5.19882e-06
-4.80182e-06
-2.05245e-06
7.72558e-06
-3.5907e-06
6.91912e-06
-5.06538e-06
6.251e-06
-6.53284e-06
5.71485e-06
-7.96456e-06
5.33777e-06
-9.33838e-06
5.07356e-06
-1.06422e-05
4.864e-06
-1.18698e-05
4.66796e-06
-1.30181e-05
4.46282e-06
-1.40858e-05
4.23901e-06
-1.50723e-05
3.99481e-06
-1.59778e-05
3.73243e-06
-1.68028e-05
3.45577e-06
-1.75482e-05
3.1692e-06
-1.8215e-05
2.87692e-06
-1.88044e-05
2.58251e-06
-1.93177e-05
2.28872e-06
-1.97562e-05
1.99757e-06
-2.01211e-05
1.71038e-06
-2.04135e-05
1.42751e-06
-2.06341e-05
1.14822e-06
-2.07832e-05
8.70963e-07
-2.08611e-05
5.93913e-07
-2.08676e-05
3.14944e-07
-2.08029e-05
3.11739e-08
-2.0667e-05
-2.61057e-07
-2.046e-05
-5.65669e-07
-2.01808e-05
-8.86423e-07
-1.98274e-05
-1.22771e-06
-1.93962e-05
-1.59479e-06
-1.88824e-05
-1.99428e-06
-1.82785e-05
-2.43319e-06
-1.75739e-05
-2.9177e-06
-1.67539e-05
-3.45222e-06
-1.5802e-05
-4.04067e-06
-1.47147e-05
-4.68721e-06
-1.34976e-05
-5.3728e-06
-1.21418e-05
-6.03215e-06
-1.06439e-05
-6.58603e-06
-9.03257e-06
-6.9638e-06
-7.38614e-06
-7.10983e-06
-5.8048e-06
-6.99379e-06
-4.36445e-06
-6.63918e-06
-6.11609e-06
-1.93071e-06
9.65629e-06
-3.4987e-06
8.48711e-06
-5.02307e-06
7.77537e-06
-6.53726e-06
7.22905e-06
-8.00997e-06
6.81048e-06
-9.41402e-06
6.47761e-06
-1.07342e-05
6.18418e-06
-1.19639e-05
5.89762e-06
-1.31013e-05
5.60029e-06
-1.41477e-05
5.28534e-06
-1.51052e-05
4.95231e-06
-1.59765e-05
4.60376e-06
-1.67642e-05
4.24349e-06
-1.74707e-05
3.87564e-06
-1.8098e-05
3.50425e-06
-1.86482e-05
3.13267e-06
-1.91228e-05
2.76334e-06
-1.95233e-05
2.39809e-06
-1.98511e-05
2.03817e-06
-2.01074e-05
1.68382e-06
-2.0293e-05
1.33387e-06
-2.04084e-05
9.86346e-07
-2.04539e-05
6.39386e-07
-2.04301e-05
2.91121e-07
-2.03377e-05
-6.11792e-08
-2.01775e-05
-4.21255e-07
-1.99499e-05
-7.93267e-07
-1.96549e-05
-1.18142e-06
-1.92918e-05
-1.59086e-06
-1.88582e-05
-2.02831e-06
-1.83502e-05
-2.50235e-06
-1.77606e-05
-3.0228e-06
-1.70789e-05
-3.59937e-06
-1.62909e-05
-4.24021e-06
-1.53811e-05
-4.95045e-06
-1.43391e-05
-5.72927e-06
-1.31566e-05
-6.5553e-06
-1.18185e-05
-7.37022e-06
-1.03198e-05
-8.0847e-06
-8.69291e-06
-8.59071e-06
-7.02194e-06
-8.7808e-06
-5.42755e-06
-8.58818e-06
-4.01588e-06
-8.05084e-06
-7.33205e-06
-1.83371e-06
1.149e-05
-3.45969e-06
1.01131e-05
-5.05116e-06
9.36684e-06
-6.6169e-06
8.79479e-06
-8.12662e-06
8.32021e-06
-9.55343e-06
7.90441e-06
-1.0882e-05
7.51275e-06
-1.21064e-05
7.12206e-06
-1.32269e-05
6.72072e-06
-1.42467e-05
6.30522e-06
-1.51709e-05
5.87651e-06
-1.60044e-05
5.43726e-06
-1.67516e-05
4.99065e-06
-1.74161e-05
4.54017e-06
-1.80012e-05
4.08935e-06
-1.85095e-05
3.64094e-06
-1.89429e-05
3.19674e-06
-1.9303e-05
2.75823e-06
-1.95915e-05
2.32667e-06
-1.98099e-05
1.90221e-06
-1.99592e-05
1.48315e-06
-2.00398e-05
1.06698e-06
-2.00524e-05
6.51972e-07
-1.99982e-05
2.36898e-07
-1.98787e-05
-1.8068e-07
-1.96952e-05
-6.04743e-07
-1.94487e-05
-1.03975e-06
-1.91401e-05
-1.49011e-06
-1.87694e-05
-1.96155e-06
-1.83354e-05
-2.46227e-06
-1.78345e-05
-3.00327e-06
-1.72597e-05
-3.59757e-06
-1.66002e-05
-4.25884e-06
-1.58412e-05
-4.99923e-06
-1.49653e-05
-5.82633e-06
-1.39552e-05
-6.73942e-06
-1.279e-05
-7.72048e-06
-1.1443e-05
-8.71726e-06
-9.90047e-06
-9.6272e-06
-8.19309e-06
-1.02981e-05
-6.4178e-06
-1.05561e-05
-4.73193e-06
-1.0274e-05
-3.29656e-06
-9.48621e-06
-8.43771e-06
-1.77779e-06
1.32678e-05
-3.47758e-06
1.18129e-05
-5.1413e-06
1.10306e-05
-6.75845e-06
1.04119e-05
-8.30122e-06
9.86298e-06
-9.74494e-06
9.34814e-06
-1.10757e-05
8.84351e-06
-1.22892e-05
8.33555e-06
-1.33876e-05
7.81909e-06
-1.43768e-05
7.29442e-06
-1.52642e-05
6.76398e-06
-1.60571e-05
6.2301e-06
-1.67612e-05
5.69481e-06
-1.73816e-05
5.16056e-06
-1.79224e-05
4.63012e-06
-1.83868e-05
4.10536e-06
-1.87771e-05
3.58701e-06
-1.90949e-05
3.07608e-06
-1.93423e-05
2.57406e-06
-1.95213e-05
2.08117e-06
-1.96331e-05
1.59492e-06
-1.9678e-05
1.11193e-06
-1.96569e-05
6.30901e-07
-1.95718e-05
1.51773e-07
-1.94251e-05
-3.27448e-07
-1.92185e-05
-8.1131e-07
-1.89535e-05
-1.30473e-06
-1.86315e-05
-1.8121e-06
-1.82536e-05
-2.33946e-06
-1.78193e-05
-2.89662e-06
-1.73252e-05
-3.49735e-06
-1.67644e-05
-4.15837e-06
-1.61253e-05
-4.89787e-06
-1.53918e-05
-5.73277e-06
-1.45437e-05
-6.67447e-06
-1.35571e-05
-7.72595e-06
-1.23989e-05
-8.87871e-06
-1.10245e-05
-1.00917e-05
-9.40341e-06
-1.12483e-05
-7.5587e-06
-1.21428e-05
-5.60139e-06
-1.25134e-05
-3.73759e-06
-1.21378e-05
-2.2001e-06
-1.10237e-05
-9.47388e-06
-1.77529e-06
1.50431e-05
-3.55376e-06
1.35914e-05
-5.28445e-06
1.27613e-05
-6.94727e-06
1.20748e-05
-8.51764e-06
1.14333e-05
-9.97299e-06
1.08035e-05
-1.1301e-05
1.01715e-05
-1.24991e-05
9.53361e-06
-1.35714e-05
8.89147e-06
-1.45267e-05
8.2497e-06
-1.53749e-05
7.61221e-06
-1.61252e-05
6.98037e-06
-1.67848e-05
6.35439e-06
-1.73596e-05
5.73535e-06
-1.78547e-05
5.12527e-06
-1.82741e-05
4.52474e-06
-1.862e-05
3.93292e-06
-1.88942e-05
3.35027e-06
-1.90991e-05
2.77899e-06
-1.92376e-05
2.21967e-06
-1.93112e-05
1.66849e-06
-1.93199e-05
1.12059e-06
-1.92644e-05
5.75466e-07
-1.91478e-05
3.51626e-08
-1.89735e-05
-5.01748e-07
-1.87438e-05
-1.04104e-06
-1.84601e-05
-1.58843e-06
-1.81243e-05
-2.14786e-06
-1.77385e-05
-2.7253e-06
-1.73029e-05
-3.33225e-06
-1.68146e-05
-3.98566e-06
-1.62665e-05
-4.70645e-06
-1.56463e-05
-5.51805e-06
-1.49359e-05
-6.44315e-06
-1.41124e-05
-7.49795e-06
-1.3147e-05
-8.69141e-06
-1.19934e-05
-1.00323e-05
-1.05826e-05
-1.15024e-05
-8.85838e-06
-1.29725e-05
-6.82941e-06
-1.41718e-05
-4.61696e-06
-1.47259e-05
-2.48217e-06
-1.42726e-05
-7.33448e-07
-1.27724e-05
-1.05487e-05
-1.81869e-06
1.68618e-05
-3.67113e-06
1.54438e-05
-5.45749e-06
1.45476e-05
-7.15713e-06
1.37744e-05
-8.74967e-06
1.30259e-05
-1.0213e-05
1.22669e-05
-1.15354e-05
1.14939e-05
-1.27155e-05
1.07137e-05
-1.37597e-05
9.93562e-06
-1.46793e-05
9.16939e-06
-1.54874e-05
8.42023e-06
-1.61946e-05
7.68762e-06
-1.68093e-05
6.96909e-06
-1.73382e-05
6.26422e-06
-1.77875e-05
5.57457e-06
-1.81617e-05
4.89897e-06
-1.8463e-05
4.23416e-06
-1.86928e-05
3.58016e-06
-1.88546e-05
2.94076e-06
-1.89524e-05
2.31742e-06
-1.89879e-05
1.70399e-06
-1.89602e-05
1.09296e-06
-1.887e-05
4.85276e-07
-1.87216e-05
-1.13305e-07
-1.85197e-05
-7.03581e-07
-1.8267e-05
-1.29384e-06
-1.79642e-05
-1.89116e-06
-1.76138e-05
-2.49827e-06
-1.72189e-05
-3.12024e-06
-1.67808e-05
-3.77035e-06
-1.62972e-05
-4.46924e-06
-1.57612e-05
-5.24245e-06
-1.51598e-05
-6.11941e-06
-1.4473e-05
-7.12999e-06
-1.36752e-05
-8.29576e-06
-1.27345e-05
-9.63209e-06
-1.15911e-05
-1.11757e-05
-1.01424e-05
-1.29511e-05
-8.30017e-06
-1.48147e-05
-6.05556e-06
-1.64164e-05
-3.52968e-06
-1.72517e-05
-1.0387e-06
-1.67636e-05
1.05124e-06
-1.48624e-05
-1.18552e-05
-1.83361e-06
1.86954e-05
-3.77357e-06
1.73837e-05
-5.60822e-06
1.63823e-05
-7.33907e-06
1.55053e-05
-8.95392e-06
1.46407e-05
-1.04272e-05
1.37401e-05
-1.17456e-05
1.28123e-05
-1.29087e-05
1.18768e-05
-1.39252e-05
1.09521e-05
-1.48103e-05
1.00545e-05
-1.55797e-05
9.1897e-06
-1.62458e-05
8.35368e-06
-1.68172e-05
7.54047e-06
-1.73014e-05
6.74846e-06
-1.77062e-05
5.97937e-06
-1.80366e-05
5.22941e-06
-1.82942e-05
4.49174e-06
-1.84802e-05
3.76616e-06
-1.85991e-05
3.05962e-06
-1.86569e-05
2.37525e-06
-1.86557e-05
1.7028e-06
-1.85927e-05
1.02997e-06
-1.84679e-05
3.60481e-07
-1.82878e-05
-2.935e-07
-1.80591e-05
-9.32246e-07
-1.7784e-05
-1.56891e-06
-1.74622e-05
-2.21293e-06
-1.70963e-05
-2.8642e-06
-1.66911e-05
-3.52546e-06
-1.62495e-05
-4.2119e-06
-1.57704e-05
-4.9484e-06
-1.52476e-05
-5.76522e-06
-1.46684e-05
-6.69865e-06
-1.40103e-05
-7.78806e-06
-1.32453e-05
-9.06081e-06
-1.23402e-05
-1.05371e-05
-1.12179e-05
-1.22981e-05
-9.72966e-06
-1.44392e-05
-7.75929e-06
-1.67848e-05
-5.28921e-06
-1.8886e-05
-2.42653e-06
-2.0114e-05
4.57909e-07
-1.9648e-05
3.00596e-06
-1.74104e-05
-1.37392e-05
-1.8065e-06
2.05019e-05
-3.85741e-06
1.94347e-05
-5.75406e-06
1.82789e-05
-7.54791e-06
1.72991e-05
-9.22866e-06
1.63215e-05
-1.07512e-05
1.52627e-05
-1.20986e-05
1.41598e-05
-1.32718e-05
1.30499e-05
-1.42835e-05
1.19637e-05
-1.51553e-05
1.09263e-05
-1.59049e-05
9.93934e-06
-1.65455e-05
8.99433e-06
-1.70867e-05
8.08161e-06
-1.75371e-05
7.19893e-06
-1.79069e-05
6.34917e-06
-1.82018e-05
5.52424e-06
-1.84219e-05
4.71184e-06
-1.8568e-05
3.91224e-06
-1.86465e-05
3.13813e-06
-1.86668e-05
2.39562e-06
-1.86311e-05
1.6671e-06
-1.8533e-05
9.31879e-07
-1.83714e-05
1.98858e-07
-1.81564e-05
-5.08494e-07
-1.78981e-05
-1.19057e-06
-1.75973e-05
-1.86974e-06
-1.72509e-05
-2.55929e-06
-1.6862e-05
-3.25316e-06
-1.64382e-05
-3.94923e-06
-1.59851e-05
-4.66501e-06
-1.55032e-05
-5.43028e-06
-1.4989e-05
-6.27943e-06
-1.44314e-05
-7.25625e-06
-1.38055e-05
-8.41391e-06
-1.30787e-05
-9.7876e-06
-1.22165e-05
-1.13993e-05
-1.11126e-05
-1.34017e-05
-9.54267e-06
-1.60077e-05
-7.36759e-06
-1.89557e-05
-4.62e-06
-2.16276e-05
-1.41076e-06
-2.33188e-05
1.82497e-06
-2.28769e-05
4.82445e-06
-2.04094e-05
-1.6527e-05
-1.78221e-06
2.02866e-05
-3.61947e-06
1.54387e-05
-5.25654e-06
1.31195e-05
-6.89905e-06
1.17342e-05
-8.54863e-06
1.09475e-05
-1.02587e-05
1.08157e-05
-1.20407e-05
1.09731e-05
-1.33878e-05
1.12632e-05
-1.44096e-05
1.29855e-05
-1.52779e-05
1.17946e-05
-1.60126e-05
1.0674e-05
-1.66298e-05
9.61156e-06
-1.71419e-05
8.59375e-06
-1.75594e-05
7.61638e-06
-1.7896e-05
6.68582e-06
-1.81576e-05
5.78576e-06
-1.83415e-05
4.89575e-06
-1.84483e-05
4.01909e-06
-1.84877e-05
3.17749e-06
-1.84737e-05
2.38163e-06
-1.8408e-05
1.60144e-06
-1.82784e-05
8.02253e-07
-1.8082e-05
2.44621e-09
-1.78353e-05
-7.5519e-07
-1.75526e-05
-1.47324e-06
-1.72318e-05
-2.19052e-06
-1.6865e-05
-2.9261e-06
-1.64559e-05
-3.66228e-06
-1.6017e-05
-4.38815e-06
-1.55574e-05
-5.12458e-06
-1.50808e-05
-5.9069e-06
-1.45891e-05
-6.7711e-06
-1.4078e-05
-7.76734e-06
-1.35232e-05
-8.96877e-06
-1.2886e-05
-1.04247e-05
-1.21292e-05
-1.21554e-05
-1.10926e-05
-1.44344e-05
-9.30818e-06
-1.77723e-05
-6.735e-06
-2.1477e-05
-3.73852e-06
-2.41436e-05
-4.55484e-07
-2.56023e-05
2.68508e-06
-2.60098e-05
5.52792e-06
-2.32465e-05
-1.92425e-05
-9.25398e-07
1.45976e-06
-1.23573e-06
1.47584e-07
-1.5164e-06
4.13857e-08
-1.88979e-06
3.3801e-08
-2.36024e-06
1.83968e-08
-3.11168e-06
1.14402e-08
-4.20725e-06
2.42452e-08
-5.87878e-06
2.75177e-07
-8.05464e-06
1.36285e-06
-1.04204e-05
2.71795e-06
-1.2711e-05
4.01727e-06
-1.48094e-05
5.0777e-06
-1.66781e-05
5.81706e-06
-1.7479e-05
6.11152e-06
-1.77979e-05
7.00467e-06
-1.80339e-05
6.02179e-06
-1.81872e-05
5.04902e-06
-1.826e-05
4.09187e-06
-1.82657e-05
3.18325e-06
-1.82244e-05
2.34031e-06
-1.81362e-05
1.51326e-06
-1.79796e-05
6.45627e-07
-1.7751e-05
-2.26161e-07
-1.74766e-05
-1.02956e-06
-1.71761e-05
-1.77381e-06
-1.68415e-05
-2.52512e-06
-1.64572e-05
-3.31037e-06
-1.60291e-05
-4.09043e-06
-1.55768e-05
-4.84039e-06
-1.51142e-05
-5.58718e-06
-1.46485e-05
-6.37248e-06
-1.41918e-05
-7.22772e-06
-1.37563e-05
-8.20272e-06
-1.33299e-05
-9.39467e-06
-1.28738e-05
-1.08792e-05
-1.23103e-05
-1.27104e-05
-1.13151e-05
-1.53809e-05
-8.2415e-06
-1.46186e-05
-4.24561e-06
-1.23911e-05
-1.86559e-06
-1.38151e-05
3.98694e-07
-2.52461e-05
2.74675e-06
-2.83437e-05
4.67765e-06
-2.51108e-05
-1.52001e-05
-1.12202e-07
-4.14233e-09
-5.74417e-08
7.65609e-09
-9.35062e-08
8.05988e-09
-1.23386e-07
6.08319e-09
-1.58469e-07
4.456e-09
-1.93467e-07
3.08916e-09
-2.10633e-07
2.06893e-09
-2.29639e-07
-4.88496e-11
-4.47399e-07
-1.19154e-08
-9.21096e-07
-2.22467e-08
-1.71692e-06
-3.0879e-08
-2.8692e-06
-3.60109e-08
-4.38665e-06
-3.12767e-08
-6.6001e-06
-1.62873e-08
-9.27809e-06
5.03554e-07
-1.20123e-05
1.26057e-06
-1.46026e-05
1.88828e-06
-1.67861e-05
2.24209e-06
-1.7933e-05
2.20853e-06
-1.79119e-05
2.02993e-06
-1.78062e-05
1.40764e-06
-1.76162e-05
4.55545e-07
-1.73562e-05
-4.86067e-07
-1.70578e-05
-1.32787e-06
-1.67449e-05
-2.08655e-06
-1.64032e-05
-2.86657e-06
-1.60056e-05
-3.70766e-06
-1.55602e-05
-4.53528e-06
-1.50954e-05
-5.30454e-06
-1.46297e-05
-6.05178e-06
-1.41714e-05
-6.82918e-06
-1.374e-05
-7.65666e-06
-1.33749e-05
-8.56361e-06
-1.3103e-05
-9.65868e-06
-1.29568e-05
-1.10037e-05
-1.25672e-05
-1.06781e-05
-7.82889e-06
-7.00936e-06
-3.03473e-06
-2.05622e-06
-7.42358e-07
-7.60745e-06
-6.02871e-07
-1.12325e-05
4.56048e-07
-2.73077e-05
1.47305e-06
-2.90691e-05
1.28252e-06
-1.05827e-05
-2.8013e-11
-4.6496e-09
5.95039e-10
-4.70867e-09
3.78306e-10
-5.14224e-09
8.31256e-10
-6.05981e-09
7.28089e-10
-7.23382e-09
5.48822e-10
-8.79673e-09
4.11645e-10
-1.07262e-08
3.06513e-10
-1.46426e-08
2.23139e-10
-3.15971e-08
1.37101e-10
-6.0245e-08
-2.27346e-11
-9.82191e-08
-1.87474e-10
-1.41123e-07
-2.8173e-10
-1.78725e-07
-2.99024e-10
-2.00448e-07
-7.43989e-10
-3.22535e-07
-6.99272e-09
-8.36368e-07
-1.41799e-08
-1.72381e-06
-1.5587e-08
-2.88587e-06
-1.08524e-08
-4.1439e-06
1.41067e-10
-5.75205e-06
3.03602e-09
-8.1434e-06
3.38256e-08
-1.13559e-05
3.93263e-08
-1.3603e-05
-2.01377e-07
-1.41949e-05
-4.8452e-07
-1.42043e-05
-8.38201e-07
-1.42449e-05
-1.46961e-06
-1.42873e-05
-2.40369e-06
-1.39387e-05
-3.21521e-06
-1.34967e-05
-3.74021e-06
-1.30121e-05
-4.134e-06
-1.25058e-05
-4.52339e-06
-1.1877e-05
-4.75755e-06
-1.11833e-05
-4.57246e-06
-1.05055e-05
-4.02564e-06
-8.77198e-06
-3.00392e-06
-3.80385e-06
-3.69521e-07
-1.67861e-06
-9.32512e-07
-2.52944e-06
-4.19771e-06
-1.26822e-06
-1.50252e-05
-1.77688e-06
-2.35945e-05
-1.3199e-06
-2.80525e-05
-3.15563e-07
-8.63535e-06
-6.50423e-14
-5.41717e-11
-4.07287e-11
5.22345e-10
8.26218e-11
-5.94164e-11
4.47628e-11
-2.02904e-10
1.05567e-10
-2.60149e-10
8.44742e-11
-3.15109e-10
6.18822e-11
-3.80017e-10
4.4714e-11
-4.73269e-10
3.356e-11
-5.98478e-10
2.81251e-11
-8.88516e-10
2.81654e-11
-1.38764e-09
2.2916e-11
-2.03776e-09
1.48639e-11
-2.72289e-09
7.72584e-12
-3.36771e-09
1.80831e-12
-4.47222e-09
-8.38591e-12
-1.19358e-08
-4.73814e-11
-2.67567e-08
-6.87982e-11
-4.28238e-08
-2.65223e-11
-5.38356e-08
8.53379e-12
-5.36573e-08
7.29276e-11
-5.0394e-08
9.43035e-11
-6.57967e-08
1.12458e-10
-1.96093e-07
1.70813e-11
-3.33135e-07
2.22037e-17
-5.53301e-07
2.65343e-17
-1.13523e-06
1.52635e-16
-2.29353e-06
6.21924e-16
-3.26256e-06
1.54939e-15
-3.38276e-06
1.70446e-15
-3.27988e-06
-3.45918e-14
-3.09998e-06
-3.99224e-13
-2.88211e-06
-4.84046e-12
-2.41428e-06
-5.98093e-11
-1.71488e-06
-7.88548e-10
-7.76187e-07
-1.10008e-08
-6.70744e-08
-7.77641e-08
-4.57773e-07
-1.03461e-08
-3.76679e-07
-4.31973e-07
-6.12391e-06
-9.81239e-06
-7.17009e-06
-2.46547e-05
-3.93056e-06
-2.39887e-05
-1.16881e-06
-1.09249e-05
-6.14082e-12
-5.32778e-10
9.02395e-12
-7.88432e-11
-7.86047e-11
7.70951e-11
6.59581e-12
9.63041e-12
8.55921e-12
3.21559e-12
1.28876e-11
2.03466e-13
9.34109e-12
-2.62141e-12
6.54915e-12
-6.16819e-12
4.55519e-12
-1.00814e-11
3.27823e-12
-1.49632e-11
2.74729e-12
-2.27776e-11
2.78956e-12
-3.63377e-11
2.49656e-12
-5.38044e-11
1.65994e-12
-7.2329e-11
9.80148e-13
-9.08084e-11
5.21144e-13
-1.17256e-10
2.39223e-13
-1.84816e-10
-2.20793e-13
-2.77834e-10
1.69165e-13
-3.15626e-10
3.36295e-14
-3.07213e-10
7.45459e-13
-2.3044e-10
1.20572e-12
-1.31687e-10
1.07853e-12
-1.70378e-11
7.7877e-13
3.5248e-16
3.94702e-14
2.2532e-16
6.97844e-18
8.93542e-16
1.52078e-16
2.68934e-15
1.13135e-15
5.16327e-15
4.90119e-15
4.64049e-15
1.12367e-14
-1.98688e-15
1.08068e-14
-2.4455e-14
-1.21215e-14
-2.83235e-13
-1.44814e-13
-3.32922e-12
-1.8506e-12
-4.31199e-11
-2.06772e-11
-6.54774e-10
-1.8497e-10
-1.09672e-08
-8.00927e-10
-9.07512e-08
3.20475e-10
-1.47096e-07
2.69294e-08
-8.66353e-07
-3.65311e-07
-1.01498e-05
-1.03127e-05
-8.94967e-06
-2.31234e-05
-3.39806e-06
-2.66686e-05
-2.13621e-10
-7.2828e-08
-2.00089e-12
-7.67921e-10
3.17954e-11
-1.26996e-10
-1.57035e-10
6.18469e-12
5.20722e-13
2.07451e-12
1.19868e-12
2.35845e-12
1.47367e-12
2.14589e-12
9.91063e-13
1.87061e-12
6.62588e-13
1.54878e-12
4.40334e-13
1.22528e-12
3.01104e-13
9.84338e-13
2.40902e-13
7.53709e-13
2.38499e-13
4.22456e-13
2.04828e-13
-1.35592e-13
1.29935e-13
-8.10862e-13
6.13219e-14
-1.44456e-12
2.36756e-14
-2.15139e-12
1.8417e-14
-3.4229e-12
2.56343e-14
-4.25433e-12
1.29129e-14
-4.41754e-12
-1.60651e-14
-3.50285e-12
-6.68236e-15
-2.09452e-12
8.67703e-15
-8.73483e-13
9.52574e-15
-3.81249e-14
1.32986e-14
1.4076e-16
1.06471e-15
1.00547e-15
-5.16399e-18
5.02313e-15
4.07373e-16
1.70266e-14
5.5553e-15
3.31375e-14
2.59386e-14
2.89055e-14
5.14263e-14
-2.23992e-14
4.71475e-14
-2.75089e-14
-7.01178e-15
-1.3988e-13
-7.89408e-14
-1.81519e-12
-7.35509e-13
-2.34494e-11
-4.72298e-12
-2.47628e-10
-9.70679e-12
-1.66568e-09
2.76174e-10
-5.81773e-09
2.66265e-09
1.43476e-08
-3.47402e-09
-3.89763e-08
-3.36389e-07
-7.35123e-06
-3.97118e-06
-9.35264e-06
-1.76698e-05
-9.28688e-08
-1.61117e-05
-1.79803e-09
-1.63963e-07
-1.07619e-12
-2.62834e-09
5.8922e-11
-2.08571e-10
-4.05514e-10
4.81268e-13
4.98419e-14
3.01253e-13
1.41942e-13
4.00994e-13
1.59661e-13
3.77875e-13
1.02571e-13
3.37324e-13
6.61709e-14
2.93889e-13
4.18971e-14
2.52968e-13
2.73769e-14
2.26177e-13
2.01486e-14
2.13507e-13
1.85462e-14
1.96965e-13
1.63123e-14
1.66073e-13
9.9478e-15
1.17304e-13
3.34842e-15
7.13137e-14
3.11549e-16
3.81115e-14
2.69225e-16
1.15546e-14
1.48002e-15
-1.80932e-14
1.60877e-15
-3.62181e-14
-2.11173e-15
-3.31355e-14
-1.13005e-15
-1.93469e-14
2.8481e-15
-6.66602e-15
1.1755e-15
-4.18927e-16
7.0512e-15
3.72551e-16
2.28424e-16
3.68938e-15
-8.4964e-17
2.64e-14
-1.80503e-16
9.6315e-14
4.50962e-14
1.73467e-13
1.29577e-13
1.59246e-13
1.64583e-13
-2.38805e-14
1.11093e-13
-2.73385e-13
2.29333e-14
-4.81628e-13
-1.84951e-14
-2.60461e-12
2.34512e-13
-2.44277e-11
5.72913e-12
-1.91537e-10
7.06951e-11
-1.0533e-09
5.95157e-10
-3.3727e-09
2.51481e-09
2.01546e-09
-2.23237e-08
1.64106e-07
-6.00571e-07
-3.08574e-06
-2.37071e-06
-3.52224e-06
-1.49141e-05
-4.4119e-07
-8.29733e-06
-8.22201e-09
-5.96701e-07
-2.8052e-11
-1.09668e-08
6.83584e-11
-3.42489e-10
-1.05022e-09
4.48022e-14
5.0434e-15
3.73821e-14
1.81394e-14
5.11443e-14
1.79417e-14
4.7821e-14
1.19569e-14
4.19994e-14
7.96479e-15
3.64442e-14
5.22591e-15
3.10959e-14
3.33721e-15
2.72636e-14
2.3695e-15
2.54438e-14
2.22906e-15
2.40067e-14
2.04872e-15
2.08685e-14
1.29372e-15
1.60656e-14
6.18382e-16
1.1596e-14
2.28617e-16
8.56762e-15
1.44362e-16
6.7436e-15
5.86407e-16
4.98443e-15
1.70836e-15
2.04443e-15
6.71619e-16
7.96092e-16
2.58405e-16
-8.48361e-17
3.72902e-15
1.05363e-16
9.85302e-16
1.71051e-14
-3.62074e-16
8.75854e-14
-2.63351e-14
2.48938e-13
-6.75704e-14
5.22436e-13
-9.40595e-14
8.32579e-13
-9.14621e-14
9.74034e-13
-6.75624e-14
7.65389e-13
-5.39229e-14
2.37422e-13
-5.76008e-14
-7.38217e-13
-2.9838e-14
-8.97427e-13
1.41129e-13
-4.14411e-12
2.13502e-12
-2.82543e-11
1.60823e-11
-2.05042e-10
1.3978e-10
-1.20431e-09
9.11099e-10
-4.90622e-09
2.44844e-09
5.21101e-09
-5.2095e-08
-1.24513e-06
-9.03197e-07
-3.51034e-06
-8.0736e-06
-4.97998e-06
-1.45049e-05
-9.76261e-07
-1.23278e-05
-4.12713e-08
-1.52954e-06
-1.64598e-09
-5.03388e-08
-6.49548e-11
-2.01997e-09
-2.97378e-09
4.4824e-15
5.61007e-16
4.13907e-15
3.00662e-15
5.63085e-15
2.70541e-15
5.29774e-15
1.86913e-15
4.63533e-15
1.23785e-15
3.94846e-15
7.78262e-16
3.29952e-15
4.10568e-16
2.81033e-15
1.39845e-16
2.52892e-15
2.99513e-16
2.31452e-15
3.29299e-16
1.96498e-15
4.97618e-16
1.49636e-15
3.67188e-16
1.06933e-15
2.43026e-16
7.80464e-16
1.56867e-16
1.10258e-15
1.27439e-16
8.34258e-16
1.97226e-15
3.81472e-16
1.12441e-15
1.81423e-16
4.58454e-16
-2.20948e-15
-7.03772e-15
-4.78671e-15
-2.46569e-14
-1.42035e-15
-5.43345e-14
5.36587e-14
-1.13904e-13
2.26974e-13
-2.05718e-13
5.94008e-13
-3.14104e-13
1.20186e-12
-4.26604e-13
1.92778e-12
-5.56883e-13
2.33732e-12
-7.1277e-13
1.84481e-12
-8.32936e-13
-8.06665e-14
-7.13815e-13
-3.89543e-12
3.54771e-14
-3.75134e-12
1.52417e-12
-3.82631e-12
9.80154e-12
-5.30791e-12
8.14673e-11
-8.03462e-11
5.47208e-10
-8.17314e-10
1.25714e-09
-2.36933e-08
-4.27607e-08
-1.95936e-06
-6.22455e-07
-8.12202e-06
-1.22695e-05
-7.50475e-06
-1.50174e-05
-4.37264e-06
-1.52111e-05
-4.152e-07
-7.61964e-06
-1.3818e-08
-4.53785e-07
-3.33849e-09
-1.29904e-08
-1.49487e-10
-8.76676e-09
-1.27453e-08
4.40123e-16
1.29666e-16
4.48832e-16
6.21554e-16
5.88022e-16
5.33771e-16
5.42014e-16
4.39054e-16
4.63696e-16
3.36621e-16
3.85965e-16
2.48849e-16
3.13294e-16
1.74689e-16
2.56352e-16
1.10114e-16
2.16989e-16
8.47042e-17
3.08591e-16
7.51744e-17
2.70624e-16
4.67127e-16
1.99167e-16
4.41546e-16
1.45843e-16
2.97538e-16
1.03707e-16
2.00498e-16
8.87404e-17
1.42405e-16
-4.71764e-17
-7.50284e-17
-1.12826e-15
-1.81528e-15
-4.14737e-15
-6.9644e-15
-1.15164e-14
-2.1133e-14
-2.32265e-14
-4.99881e-14
-3.47095e-14
-9.97977e-14
-3.26826e-14
-1.80981e-13
3.08481e-14
-3.0007e-13
2.91328e-13
-4.73207e-13
8.05482e-13
-7.06505e-13
1.56187e-12
-1.01463e-12
2.26738e-12
-1.39648e-12
2.32585e-12
-1.72781e-12
1.13544e-12
-1.69398e-12
-1.29756e-12
-8.40434e-13
-7.68855e-13
9.95003e-13
4.3896e-12
3.33336e-12
5.24235e-11
1.34247e-11
3.66405e-10
9.67732e-11
7.48036e-10
2.3555e-10
-3.04014e-08
-1.35769e-08
-5.63973e-07
-2.27043e-07
-8.10877e-06
-5.23915e-06
-7.87693e-06
-1.45756e-05
-6.9753e-06
-1.59932e-05
-1.59383e-06
-1.21172e-05
-4.78274e-08
-2.00447e-06
-1.20725e-08
-4.99429e-08
-8.37799e-09
-1.75039e-08
-2.4219e-08
4.55769e-17
1.78105e-16
5.42616e-17
1.21756e-16
6.88312e-17
9.75136e-17
6.63218e-17
7.53901e-17
5.85797e-17
5.59215e-17
4.91937e-17
4.03705e-17
3.64209e-17
2.45183e-17
2.62046e-17
1.25256e-17
2.4173e-17
7.37527e-17
2.92768e-17
5.54611e-17
6.14755e-18
1.01787e-17
-4.22008e-17
-6.54135e-17
-8.62617e-17
-1.26729e-16
-1.39209e-16
-1.96054e-16
-2.82291e-16
-3.8535e-16
-8.41174e-16
-1.12688e-15
-2.65234e-15
-3.54355e-15
-7.38705e-15
-1.00607e-14
-1.75631e-14
-2.51251e-14
-3.5119e-14
-5.50171e-14
-5.86282e-14
-1.07194e-13
-7.96093e-14
-1.90936e-13
-7.5466e-14
-3.16966e-13
-2.40667e-15
-5.02655e-13
3.10952e-13
-7.79757e-13
8.81886e-13
-1.19371e-12
1.59591e-12
-1.74459e-12
2.03152e-12
-2.30881e-12
1.59351e-12
-2.52578e-12
5.13038e-15
-1.85687e-12
-2.26576e-12
-5.82886e-15
5.82604e-13
4.82717e-13
9.46607e-12
1.33966e-12
7.49576e-11
1.01382e-11
1.89191e-10
3.7645e-11
-1.07097e-08
-2.78219e-09
-1.66977e-07
-7.46083e-08
-5.10068e-06
-8.56702e-07
-8.32888e-06
-1.13394e-05
-7.86841e-06
-1.59445e-05
-4.32616e-06
-1.54677e-05
-1.78689e-07
-4.98855e-06
-2.69023e-08
-2.04298e-07
-2.56497e-08
-2.88155e-08
-4.03665e-08
6.53715e-18
3.44608e-17
6.28575e-18
1.27364e-17
7.87547e-18
9.5637e-18
7.54839e-18
6.81826e-18
6.55155e-18
4.69131e-18
4.95868e-18
2.90976e-18
3.1479e-18
1.51251e-18
3.751e-18
7.51376e-18
-1.22422e-17
-2.19095e-17
-4.51682e-17
-7.34453e-17
-9.26983e-17
-1.38954e-16
-1.4258e-16
-1.99607e-16
-1.8769e-16
-2.48346e-16
-2.48596e-16
-3.14403e-16
-4.20989e-16
-5.14588e-16
-1.00819e-15
-1.20545e-15
-2.75783e-15
-3.27223e-15
-7.16537e-15
-8.59205e-15
-1.65265e-14
-2.05033e-14
-3.34149e-14
-4.42401e-14
-5.87591e-14
-8.66921e-14
-8.91393e-14
-1.56731e-13
-1.12962e-13
-2.66745e-13
-1.05259e-13
-4.36016e-13
-2.17457e-14
-6.90111e-13
2.85076e-13
-1.08891e-12
8.044e-13
-1.6951e-12
1.32526e-12
-2.41378e-12
1.41372e-12
-2.92684e-12
7.23106e-13
-2.67258e-12
-2.47647e-13
-1.25717e-12
-1.71052e-13
4.04154e-13
2.3441e-13
5.49029e-13
6.44431e-12
1.46074e-12
2.87096e-11
9.23675e-12
-1.99442e-09
-6.2013e-10
-5.22999e-08
-2.47933e-08
-5.86703e-07
-3.26097e-07
-7.87457e-06
-6.31695e-06
-7.68119e-06
-1.56465e-05
-6.68898e-06
-1.59504e-05
-7.71684e-07
-9.44922e-06
-5.10171e-08
-9.45611e-07
-3.97125e-08
-5.88487e-08
-5.23475e-08
6.39287e-19
1.59153e-18
5.97012e-19
9.5732e-19
7.19615e-19
6.95151e-19
6.74971e-19
4.85101e-19
5.54269e-19
3.21387e-19
4.3283e-19
1.85588e-19
4.34827e-19
9.18339e-19
-4.10288e-18
-7.58919e-18
-1.78486e-17
-2.94988e-17
-4.24219e-17
-6.3697e-17
-7.53945e-17
-1.04341e-16
-1.10662e-16
-1.42986e-16
-1.45426e-16
-1.77528e-16
-1.94431e-16
-2.26786e-16
-3.24857e-16
-3.66133e-16
-7.42989e-16
-8.18832e-16
-1.96177e-15
-2.143e-15
-5.02283e-15
-5.52777e-15
-1.16487e-14
-1.31764e-14
-2.41327e-14
-2.87736e-14
-4.44092e-14
-5.76886e-14
-7.24972e-14
-1.07457e-13
-1.0447e-13
-1.89415e-13
-1.29199e-13
-3.21404e-13
-1.23224e-13
-5.27798e-13
-5.1259e-14
-8.50349e-13
1.86464e-13
-1.36546e-12
5.67465e-13
-2.10565e-12
8.48366e-13
-2.82248e-12
7.24835e-13
-3.0239e-12
1.85614e-13
-2.17569e-12
-1.83898e-13
-4.99437e-13
-7.2985e-14
4.38115e-13
1.09923e-12
2.7224e-13
7.35555e-12
3.07045e-12
-5.52304e-10
-6.70062e-11
-2.11885e-08
-4.41493e-09
-2.52592e-07
-9.62447e-08
-5.67191e-06
-1.1533e-06
-8.44744e-06
-1.23301e-05
-7.94657e-06
-1.55968e-05
-2.84831e-06
-1.34986e-05
-1.35416e-07
-3.6982e-06
-7.13228e-08
-1.55357e-07
-5.84823e-08
5.00001e-20
1.01723e-19
5.05547e-20
6.85172e-20
5.82913e-20
4.84125e-20
5.3371e-20
3.31387e-20
4.58321e-20
2.04044e-20
5.38923e-20
1.23923e-19
-4.33788e-19
-8.53222e-19
-3.09603e-18
-5.33902e-18
-9.81901e-18
-1.5143e-17
-2.14455e-17
-3.00734e-17
-3.72737e-17
-4.82178e-17
-5.52874e-17
-6.6833e-17
-7.47811e-17
-8.54853e-17
-1.03589e-16
-1.13263e-16
-1.77461e-16
-1.87698e-16
-4.08435e-16
-4.22859e-16
-1.08287e-15
-1.11179e-15
-2.80789e-15
-2.90196e-15
-6.67016e-15
-7.06292e-15
-1.43106e-14
-1.58598e-14
-2.76331e-14
-3.29128e-14
-4.8134e-14
-6.37587e-14
-7.59775e-14
-1.1719e-13
-1.08318e-13
-2.07434e-13
-1.35973e-13
-3.55266e-13
-1.42585e-13
-5.93537e-13
-1.04728e-13
-9.76824e-13
9.8586e-15
-1.56843e-12
2.267e-13
-2.31942e-12
3.42803e-13
-2.8561e-12
2.31677e-13
-2.62728e-12
9.4782e-15
-1.40889e-12
-8.87943e-14
-4.86491e-14
1.49756e-13
3.36898e-14
3.23375e-12
3.02177e-13
-5.88739e-11
-5.49137e-12
-3.58998e-09
-8.3772e-10
-7.41469e-08
-2.69676e-08
-1.05669e-06
-2.97473e-07
-8.3081e-06
-6.9522e-06
-8.59922e-06
-1.44624e-05
-6.55996e-06
-1.47288e-05
-5.5168e-07
-6.90384e-06
-7.74387e-08
-6.73587e-07
-9.15181e-08
3.62286e-21
6.35763e-21
3.89008e-21
4.50616e-21
4.29148e-21
3.09903e-21
3.78335e-21
2.04406e-21
5.86095e-21
1.29424e-21
-8.75384e-21
-1.88248e-20
-2.61628e-19
-4.82019e-19
-1.26822e-18
-2.05152e-18
-3.65386e-18
-5.29329e-18
-7.79153e-18
-1.02782e-17
-1.36424e-17
-1.6626e-17
-2.07773e-17
-2.36989e-17
-2.92208e-17
-3.15713e-17
-4.23972e-17
-4.38917e-17
-7.58814e-17
-7.61298e-17
-1.80336e-16
-1.77399e-16
-4.90982e-16
-4.79537e-16
-1.31192e-15
-1.28999e-15
-3.23309e-15
-3.25143e-15
-7.24811e-15
-7.59285e-15
-1.47563e-14
-1.64541e-14
-2.74006e-14
-3.3384e-14
-4.67951e-14
-6.43355e-14