/*--------------------------------*- C++ -*----------------------------------*\
| =========                 |                                                 |
| \\      /  F ield         | OpenFOAM: The Open Source CFD Toolbox           |
|  \\    /   O peration     | Version:  5.0                                   |
|   \\  /    A nd           | Web:      www.OpenFOAM.org                      |
|    \\/     M anipulation  |                                                 |
\*---------------------------------------------------------------------------*/
FoamFile
{
    version     2.0;
    format      ascii;
    class       volScalarField;
    location    "0.9";
    object      alpha.water;
}
// * * * * * * * * * * * * * * * * * * * * * * * * * * * * * * * * * * * * * //

dimensions      [0 0 0 0 0 0 0];

internalField   nonuniform List<scalar> 
1935
(
1
1
1
1
1
1
1
1
1
1
1
1
1
1
1
1
1
1
1
1
1
1
1
1
1
1
1
1
1
1
1
1
1
0.999423
0.97461
0.960149
0.998136
1
0.997754
0.991076
0.984823
0.984045
0.991816
0.997369
1
1
1
1
1
1
1
1
1
1
1
1
1
1
1
1
1
1
1
1
1
1
1
1
1
1
1
1
1
1
1
1
1
0.998538
0.993658
0.992552
0.994638
0.993708
0.975046
0.973723
0.973723
0.973723
0.973789
0.99087
1
1
1
1
1
1
1
1
1
1
1
1
1
1
1
1
1
1
1
1
1
1
1
1
1
1
1
1
1
1
1
1
1
1
1
1
1
1
0.997161
0.983443
0.977936
0.985441
0.996661
1
1
1
1
1
1
1
1
1
1
1
1
1
1
1
1
1
1
1
1
1
1
1
1
1
1
1
1
1
1
1
1
1
1
1
1
1
1
1
1
1
1
1
1
1
1
1
1
1
1
1
1
1
1
1
1
1
1
1
1
1
1
1
1
1
1
1
1
1
1
1
1
1
1
1
1
1
1
1
1
1
1
1
1
1
1
1
1
1
1
1
1
1
1
1
1
1
1
1
1
1
1
1
1
1
1
1
1
1
1
1
1
1
1
1
1
1
1
1
1
1
1
1
1
1
1
1
1
1
1
1
1
1
1
1
1
1
1
1
1
1
1
1
1
1
1
1
1
1
1
1
1
1
1
1
1
1
1
1
1
1
1
1
1
1
1
1
1
1
1
1
1
1
1
1
1
1
1
1
1
1
1
1
1
1
1
1
1
1
1
1
1
1
1
1
1
1
1
1
1
1
1
1
1
1
1
1
1
1
1
1
1
1
1
1
1
1
1
1
1
1
1
1
1
1
1
1
1
1
1
1
1
1
1
1
1
1
1
1
1
1
1
1
1
1
1
1
1
1
1
1
1
1
1
1
1
1
1
1
1
0.999999
0.999999
1
1
1
1
1
1
1
1
1
1
1
1
1
1
1
1
1
1
1
1
1
1
1
1
1
1
1
1
1
1
1
1
1
1
1
1
1
1
1
1
0.999998
0.999993
0.999987
0.999992
0.999999
0.999999
0.999999
1
1
1
1
1
1
1
1
1
1
1
1
1
1
1
1
1
1
1
1
1
1
1
1
1
1
1
1
1
1
1
1
1
1
1
0.999999
0.999994
0.999973
0.999905
0.999833
0.999896
0.999912
0.999989
0.999982
1
0.980981
0.952256
0.935011
0.930879
0.946907
0.973168
0.998733
1
1
1
1
1
1
1
1
1
1
1
1
1
1
1
1
1
1
1
1
1
1
1
1
1
0.999999
0.999998
0.999988
0.99993
0.999651
0.998808
0.996073
0.990367
0.998751
0.999856
0.999674
0.511942
0.373924
0.302775
0.267874
0.260407
0.290754
0.349889
0.435558
0.554745
0.67254
0.779056
0.869721
0.943752
0.993048
1
1
1
1
1
1
1
1
1
1
1
1
1
1
1
0.999999
0.999999
0.999998
0.999995
0.999988
0.999963
0.99984
0.999113
0.935677
0.743486
0.640584
0.855711
0.998459
0.998418
0.935826
0.00868356
0.00183299
0.00161605
0.00136374
0.00120383
0.00114768
0.00115048
0.00239348
0.0127405
0.0393714
0.0865851
0.156463
0.248769
0.364647
0.51276
0.655388
0.782531
0.891722
0.969678
1
1
1
0.999999
0.999997
0.999997
0.999992
0.999988
0.999984
0.999977
0.999967
0.999952
0.999927
0.999873
0.999757
0.999425
0.977449
0.76862
0.340369
0.188794
0.254477
0.788538
0.994855
0.751042
0.274093
-1.72834e-06
0.000160954
0.000168892
0.000141578
0.000119657
0.000107193
0.000100534
9.95274e-05
0.000110975
0.000140635
0.000182586
0.000225044
0.000260965
0.000289144
0.00521004
0.0291538
0.0758818
0.144555
0.226205
0.31901
0.445327
0.607569
0.764323
0.845553
0.869132
0.881921
0.906143
0.923298
0.925007
0.91923
0.91219
0.896074
0.856518
0.791282
0.669405
0.404355
0.123696
0.094456
0.137072
0.493705
0.783238
0.632134
0.0895844
1.03436e-06
-1.82473e-07
1.87838e-05
1.80982e-05
1.49557e-05
1.21383e-05
1.03074e-05
9.16151e-06
8.51437e-06
8.81168e-06
1.01451e-05
1.17341e-05
1.28572e-05
1.34092e-05
1.45996e-05
1.6462e-05
2.32495e-05
2.84575e-05
2.74931e-05
2.09194e-05
1.0466e-05
0.000415578
0.00722102
0.0166374
0.0272064
0.0513314
0.109181
0.185514
0.225253
0.227415
0.217126
0.207954
0.187532
0.142314
0.0860484
0.0277331
0.00254399
0.00443253
0.162695
0.61973
0.643713
0.509744
0.0346136
1.0943e-06
1.02421e-06
-1.84002e-08
1.98691e-06
1.94191e-06
1.57231e-06
1.23162e-06
9.95062e-07
8.29757e-07
7.29501e-07
7.12368e-07
7.57706e-07
8.0108e-07
8.19051e-07
7.89661e-07
7.58801e-07
7.75645e-07
9.29871e-07
9.64869e-07
7.66974e-07
4.89656e-07
2.55538e-07
6.5146e-08
-6.78077e-12
-2.30918e-11
-1.4373e-11
-5.69054e-11
-1.73727e-10
-3.41402e-10
-3.14661e-10
-9.91045e-15
6.86713e-11
9.42192e-10
1.12801e-08
1.36114e-07
1.78986e-06
2.62905e-05
0.000347539
0.00687601
0.345386
0.627711
0.643713
0.0638375
1.33713e-06
1.13487e-06
1.06074e-06
-1.75738e-09
2.06764e-07
2.04946e-07
1.62173e-07
1.2304e-07
9.53701e-08
7.57618e-08
6.31178e-08
5.80111e-08
5.7576e-08
5.59565e-08
5.22271e-08
4.61113e-08
4.04496e-08
3.88517e-08
4.15458e-08
3.62166e-08
2.3548e-08
1.20803e-08
4.84995e-09
1.25935e-09
-9.20309e-14
-1.2704e-11
-8.35398e-11
-3.89546e-10
-1.2451e-09
-2.28649e-09
-1.86719e-09
0
6.67688e-10
9.19982e-09
1.05039e-07
1.02322e-06
8.40696e-06
5.66946e-05
0.00036026
0.00154837
0.135353
0.532685
0.408132
1.1082e-05
2.41453e-06
1.31477e-06
1.30895e-06
-1.29848e-10
2.11357e-08
2.10261e-08
1.62575e-08
1.19851e-08
8.96774e-09
6.8392e-09
5.43517e-09
4.72367e-09
4.40586e-09
4.00395e-09
3.48366e-09
2.86144e-09
2.31908e-09
2.03249e-09
1.92861e-09
1.47507e-09
8.09985e-10
3.2937e-10
1.08765e-10
1.55643e-15
-1.55643e-15
-5.02007e-11
-4.23716e-10
-2.61524e-09
-8.31764e-09
-1.30975e-08
-1.04639e-08
-2.69681e-20
6.4431e-10
1.39223e-08
1.48689e-07
1.23812e-06
8.44219e-06
4.93964e-05
0.000260064
0.00129843
0.0362588
0.153631
0.125443
4.8176e-05
5.98957e-06
2.38149e-06
2.56103e-06
-3.5178e-14
2.17268e-09
2.09048e-09
1.58223e-09
1.1387e-09
8.38019e-10
6.39828e-10
4.99537e-10
4.11934e-10
3.63059e-10
3.2099e-10
2.68652e-10
2.11334e-10
1.62646e-10
1.28909e-10
1.00932e-10
7.23232e-11
3.35266e-11
2.87715e-26
-2.82057e-26
-6.68779e-11
-6.05369e-09
-2.10343e-08
-4.37976e-08
-7.05477e-08
-8.91307e-08
-8.43109e-08
-5.4112e-08
-1.3754e-08
-3.62654e-12
1.67691e-08
1.7867e-07
1.51054e-06
1.02441e-05
5.98178e-05
0.000320001
0.00991295
0.119029
0.146429
0.0795196
0.000209033
-1.17699e-07
4.54998e-06
1.25788e-05
-2.88402e-17
2.68541e-10
2.36688e-10
1.84964e-10
1.38793e-10
1.04693e-10
7.934e-11
6.01126e-11
4.58633e-11
3.74382e-11
2.98202e-11
2.39542e-11
1.78401e-11
1.29211e-11
5.59232e-12
-4.61929e-13
-1.43857e-26
0
-8.14992e-10
-3.22341e-09
-8.08165e-09
-1.96513e-08
-4.22273e-08
-7.74655e-08
-1.22801e-07
-1.71335e-07
-2.02778e-07
-1.88762e-07
-1.17276e-07
-4.60344e-25
2.04115e-09
9.44807e-08
9.6338e-07
7.57017e-06
4.64446e-05
0.000281017
0.0119131
0.219172
0.258168
0.259246
0.0966876
1.95285e-05
1.72079e-05
4.58002e-05
0.000115
3.7739e-14
3.61549e-11
3.08209e-11
2.33372e-11
1.69927e-11
1.25042e-11
9.19515e-12
6.41755e-12
3.59064e-12
1.80428e-12
1.77682e-13
-9.55052e-14
-1.12494e-13
0
0
-6.02919e-12
-1.57662e-10
-6.58822e-10
-2.18676e-09
-5.66863e-09
-1.24307e-08
-2.48778e-08
-4.56169e-08
-7.85678e-08
-1.23404e-07
-1.7465e-07
-2.17797e-07
-2.25207e-07
-1.74516e-07
-6.69974e-08
0
2.98742e-08
3.94558e-07
3.3095e-06
2.14873e-05
0.000118811
0.00195287
0.113794
0.26011
0.259816
0.238299
0.000171909
5.86181e-05
0.00011067
0.000234655
4.6091e-12
8.6773e-12
7.36053e-12
6.22283e-12
4.98297e-12
3.86368e-12
2.59986e-12
9.56095e-13
2.24837e-13
1.38701e-13
5.61943e-29
-4.21223e-12
-8.52229e-12
-1.38073e-11
-2.85226e-11
-8.80905e-11
-2.94164e-10
-8.90761e-10
-2.37724e-09
-5.56177e-09
-1.15614e-08
-2.19139e-08
-3.84327e-08
-6.32394e-08
-9.84638e-08
-1.44226e-07
-1.90751e-07
-2.16917e-07
-1.96683e-07
-1.18353e-07
-3.08892e-10
0
8.84403e-08
7.91696e-07
5.21255e-06
2.68352e-05
0.000259715
0.0234773
0.261897
0.261538
0.259816
0.0189589
0.000158273
0.000233351
0.000390353
2.674e-12
1.47983e-12
1.17456e-12
9.41454e-13
7.23091e-13
5.10668e-13
1.72787e-13
1.87693e-14
-1.31459e-12
-4.54168e-12
-8.86859e-12
-1.31702e-11
-1.69689e-11
-2.22881e-11
-3.79327e-11
-9.26574e-11
-2.63011e-10
-7.23476e-10
-1.80871e-09
-4.08083e-09
-8.33057e-09
-1.55945e-08
-2.71931e-08
-4.47242e-08
-6.92957e-08
-1.03294e-07
-1.461e-07
-1.82501e-07
-1.89591e-07
-1.4748e-07
-6.01677e-08
0
1.11311e-08
1.21032e-07
8.66148e-07
4.36131e-06
5.83267e-05
0.000678689
0.0930444
0.260069
0.258461
0.188692
0.000448048
0.000391412
0.000573064
3.10275e-13
1.33928e-13
1.00325e-13
7.48627e-14
5.34236e-14
2.50002e-14
2.49788e-15
-4.66818e-13
-1.86001e-12
-4.11835e-12
-6.92119e-12
-9.73724e-12
-1.24212e-11
-1.63173e-11
-2.71174e-11
-6.24993e-11
-1.68717e-10
-4.48892e-10
-1.1021e-09
-2.47104e-09
-5.06119e-09
-9.55942e-09
-1.68966e-08
-2.8283e-08
-4.48146e-08
-6.78337e-08
-9.95205e-08
-1.36864e-07
-1.61155e-07
-1.51557e-07
-9.75773e-08
-2.10183e-08
0
1.28023e-08
1.26944e-07
1.17556e-06
2.05005e-05
0.000270572
0.0375857
0.260069
0.258714
0.250988
0.000887274
0.000573367
0.00088507
1.5196e-14
9.62381e-15
7.02147e-15
5.13604e-15
3.2951e-15
4.36633e-16
-5.44528e-14
-3.48217e-13
-1.00854e-12
-2.0442e-12
-3.34389e-12
-4.72763e-12
-6.16722e-12
-8.33276e-12
-1.40807e-11
-3.23403e-11
-8.6639e-11
-2.30116e-10
-5.68473e-10
-1.29056e-09
-2.69249e-09
-5.20334e-09
-9.44083e-09
-1.62661e-08
-2.66449e-08
-4.17328e-08
-6.31121e-08
-9.15835e-08
-1.21288e-07
-1.34108e-07
-1.12944e-07
-5.7921e-08
-2.07751e-09
-1.07151e-26
1.3536e-08
1.35426e-07
1.1478e-06
5.79411e-05
0.00152196
0.133254
0.257106
0.255221
0.0834327
0.000869412
0.00126919
9.44618e-16
6.59516e-16
4.70864e-16
3.33644e-16
1.58717e-16
-1.257e-15
-3.28566e-14
-1.42508e-13
-3.74138e-13
-7.38212e-13
-1.21198e-12
-1.75152e-12
-2.36327e-12
-3.32429e-12
-5.82778e-12
-1.37084e-11
-3.73456e-11
-1.01014e-10
-2.55177e-10
-5.94612e-10
-1.2784e-09
-2.55439e-09
-4.80255e-09
-8.58882e-09
-1.46456e-08
-2.39204e-08
-3.76821e-08
-5.72213e-08
-8.15066e-08
-1.02515e-07
-1.05887e-07
-7.97443e-08
-3.15173e-08
-2.17137e-13
5.3479e-10
1.33601e-08
4.30742e-07
1.18217e-05
0.000244003
0.0330801
0.255622
0.250002
0.223438
0.0014231
0.0014231
5.46921e-17
4.09326e-17
2.83708e-17
1.73788e-17
3.11653e-18
-1.16832e-15
-1.12975e-14
-4.25136e-14
-1.07107e-13
-2.10748e-13
-3.52147e-13
-5.25003e-13
-7.38154e-13
-1.0903e-12
-2.00899e-12
-4.9216e-12
-1.38564e-11
-3.8709e-11
-1.0121e-10
-2.44688e-10
-5.473e-10
-1.14031e-09
-2.23861e-09
-4.18371e-09
-7.46681e-09
-1.27775e-08
-2.10785e-08
-3.35362e-08
-5.06359e-08
-6.97326e-08
-8.28962e-08
-7.89401e-08
-5.27201e-08
-1.75429e-08
-2.3094e-12
5.50285e-10
1.86766e-08
-2.36281e-07
4.68063e-05
0.00100475
0.120513
0.246617
0.244622
0.0675609
0.0016206
2.34576e-18
2.11492e-18
1.20556e-18
2.81079e-19
-3.30806e-18
-4.07556e-16
-2.87921e-15
-1.00552e-14
-2.49061e-14
-4.95126e-14
-8.49693e-14
-1.31666e-13
-1.94312e-13
-3.0378e-13
-5.93607e-13
-1.52945e-12
-4.49611e-12
-1.31025e-11
-3.57922e-11
-9.05704e-11
-2.12442e-10
-4.6488e-10
-9.59155e-10
-1.88402e-09
-3.53568e-09
-6.36289e-09
-1.10297e-08
-1.84271e-08
-2.93507e-08
-4.33912e-08
-5.7177e-08
-6.37938e-08
-5.59957e-08
-3.42662e-08
-1.09423e-08
-5.74813e-12
-9.14919e-10
1.86033e-07
1.17045e-05
0.000218386
0.0293484
0.244622
0.239838
0.222263
0.00277679
3.87167e-20
3.69909e-20
2.02918e-20
-4.24262e-19
-6.41164e-18
-1.03147e-16
-5.96013e-16
-1.97834e-15
-4.87637e-15
-9.88421e-15
-1.7574e-14
-2.85715e-14
-4.47107e-14
-7.4633e-14
-1.55168e-13
-4.20495e-13
-1.29386e-12
-3.95381e-12
-1.13579e-11
-3.02894e-11
-7.50022e-11
-1.73443e-10
-3.78223e-10
-7.84782e-10
-1.5551e-09
-2.95298e-09
-5.39397e-09
-9.48311e-09
-1.59177e-08
-2.50236e-08
-3.57669e-08
-4.47984e-08
-4.68589e-08
-3.84875e-08
-2.22514e-08
-6.80109e-09
-1.16534e-11
-6.95114e-09
-4.11713e-07
2.9572e-05
0.00048266
0.0721969
0.236919
0.234381
0.119845
-8.82747e-20
0
-1.48492e-19
-7.9565e-19
-3.35523e-18
-2.35186e-17
-1.09912e-16
-3.45473e-16
-8.51046e-16
-1.77573e-15
-3.31592e-15
-5.75299e-15
-9.71599e-15
-1.7472e-14
-3.8201e-14
-1.06428e-13
-3.37678e-13
-1.07696e-12
-3.25726e-12
-9.19036e-12
-2.41407e-11
-5.92907e-11
-1.37312e-10
-3.02303e-10
-6.34932e-10
-1.2762e-09
-2.46292e-09
-4.56636e-09
-8.08148e-09
-1.34549e-08
-2.06134e-08
-2.82808e-08
-3.35736e-08
-3.31861e-08
-2.57887e-08
-1.45224e-08
-2.09063e-09
-8.90382e-10
4.13025e-08
8.49375e-06
0.000174829
0.0253576
0.221848
0.229015
0.225121
-6.10112e-20
-3.6375e-20
-1.24995e-19
-4.60269e-19
-1.52951e-18
-6.11477e-18
-2.17905e-17
-6.29261e-17
-1.54577e-16
-3.36795e-16
-6.75852e-16
-1.28418e-15
-2.38868e-15
-4.61663e-15
-1.01756e-14
-2.7239e-14
-8.43312e-14
-2.72436e-13
-8.56903e-13
-2.54976e-12
-7.1119e-12
-1.86035e-11
-4.59161e-11
-1.07647e-10
-2.40449e-10
-5.13083e-10
-1.04889e-09
-2.05532e-09
-3.84018e-09
-6.7628e-09
-1.10377e-08
-1.63577e-08
-2.14572e-08
-2.4251e-08
-2.27992e-08
-1.71646e-08
-8.37846e-09
-4.62058e-10
-3.56027e-09
-4.03218e-07
1.37304e-05
0.00026418
0.0314027
0.226186
0.222943
-1.69828e-20
-1.77232e-20
-6.25453e-20
-2.21733e-19
-6.89244e-19
-2.10594e-18
-6.03382e-18
-1.59825e-17
-3.93032e-17
-9.02468e-17
-1.95788e-16
-4.06262e-16
-8.19834e-16
-1.65548e-15
-3.51458e-15
-8.34764e-15
-2.28123e-14
-6.89575e-14
-2.1539e-13
-6.60855e-13
-1.93901e-12
-5.38696e-12
-1.41753e-11
-3.54556e-11
-8.44271e-11
-1.91737e-10
-4.16205e-10
-8.63889e-10
-1.70695e-09
-3.18052e-09
-5.5151e-09
-8.76143e-09
-1.25068e-08
-1.57243e-08
-1.70071e-08
-1.54603e-08
-1.09008e-08
-5.28929e-09
-8.07806e-10
-1.20257e-08
-3.51596e-07
3.14088e-05
0.000622735
0.0999393
0.219701
-4.36164e-21
-7.22288e-21
-2.81315e-20
-1.00518e-19
-3.09303e-19
-8.80197e-19
-2.35554e-18
-6.11261e-18
-1.52806e-17
-3.63705e-17
-8.23236e-17
-1.78358e-16
-3.73976e-16
-7.70159e-16
-1.59149e-15
-3.41016e-15
-7.89564e-15
-2.02992e-14
-5.72731e-14
-1.69828e-13
-5.05408e-13
-1.46435e-12
-4.07505e-12
-1.08442e-11
-2.75249e-11
-6.66076e-11
-1.53803e-10
-3.38833e-10
-7.09311e-10
-1.39981e-09
-2.57688e-09
-4.37118e-09
-6.73144e-09
-9.26755e-09
-1.12192e-08
-1.17515e-08
-1.02406e-08
-7.06508e-09
-3.22208e-09
-6.12583e-10
-1.11367e-07
1.64911e-06
4.51059e-05
0.00111734
0.135285
-1.28203e-21
-2.92891e-21
-1.2258e-20
-4.42876e-20
-1.37357e-19
-3.91887e-19
-1.06018e-18
-2.80491e-18
-7.14356e-18
-1.72746e-17
-3.96705e-17
-8.73015e-17
-1.86365e-16
-3.90366e-16
-8.10256e-16
-1.68464e-15
-3.56927e-15
-7.91338e-15
-1.88949e-14
-4.91558e-14
-1.36712e-13
-3.91715e-13
-1.11896e-12
-3.12048e-12
-8.38535e-12
-2.15701e-11
-5.29785e-11
-1.24012e-10
-2.75461e-10
-5.76516e-10
-1.12699e-09
-2.0378e-09
-3.36901e-09
-5.03225e-09
-6.70954e-09
-7.89306e-09
-8.01001e-09
-6.80614e-09
-4.51442e-09
-1.69327e-09
-2.02381e-10
-1.74425e-07
1.1275e-06
4.29233e-05
0.000617482
-4.31382e-22
-1.20829e-21
-5.26631e-21
-1.91758e-20
-6.03812e-20
-1.76341e-19
-4.91088e-19
-1.32673e-18
-3.40995e-18
-8.27385e-18
-1.90672e-17
-4.22895e-17
-9.15833e-17
-1.95789e-16
-4.15264e-16
-8.7425e-16
-1.82888e-15
-3.82962e-15
-8.17241e-15
-1.82747e-14
-4.39198e-14
-1.13912e-13
-3.12117e-13
-8.74467e-13
-2.43099e-12
-6.57184e-12
-1.70847e-11
-4.24317e-11
-1.00037e-10
-2.22236e-10
-4.61597e-10
-8.89227e-10
-1.57421e-09
-2.53707e-09
-3.6891e-09
-4.79925e-09
-5.5066e-09
-5.45985e-09
-4.51328e-09
-2.8013e-09
-1.00377e-09
-5.24562e-10
-2.58665e-08
3.37383e-07
1.4652e-05
-1.55337e-22
-5.02016e-22
-2.22874e-21
-8.17177e-21
-2.62752e-20
-7.89772e-20
-2.2588e-19
-6.16772e-19
-1.58265e-18
-3.82227e-18
-8.7999e-18
-1.96466e-17
-4.32099e-17
-9.453e-17
-2.05977e-16
-4.44707e-16
-9.45681e-16
-1.9763e-15
-4.07757e-15
-8.42682e-15
-1.78925e-14
-4.02453e-14
-9.78616e-14
-2.55918e-13
-6.99085e-13
-1.927e-12
-5.21927e-12
-1.36525e-11
-3.40665e-11
-8.02826e-11
-1.77202e-10
-3.63622e-10
-6.88363e-10
-1.19308e-09
-1.88032e-09
-2.67849e-09
-3.41594e-09
-3.84286e-09
-3.72943e-09
-2.97887e-09
-1.84792e-09
-7.08693e-10
-1.10073e-10
-2.9915e-09
-2.72489e-07
-5.71862e-23
-2.05482e-22
-9.17927e-22
-3.40071e-21
-1.12218e-20
-3.46837e-20
-1.00981e-19
-2.75776e-19
-7.01637e-19
-1.68149e-18
-3.86949e-18
-8.72067e-18
-1.95348e-17
-4.37695e-17
-9.78185e-17
-2.16191e-16
-4.68649e-16
-9.91738e-16
-2.04806e-15
-4.1497e-15
-8.35791e-15
-1.71163e-14
-3.67499e-14
-8.50499e-14
-2.13433e-13
-5.68193e-13
-1.54895e-12
-4.18692e-12
-1.09543e-11
-2.7274e-11
-6.38747e-11
-1.39524e-10
-2.8217e-10
-5.24842e-10
-8.92958e-10
-1.38367e-09
-1.94021e-09
-2.43493e-09
-2.69173e-09
-2.5526e-09
-2.03171e-09
-1.28936e-09
-5.87943e-10
-1.30578e-10
-2.51033e-09
-2.08657e-23
-8.07903e-23
-3.62071e-22
-1.36333e-21
-4.62557e-21
-1.46125e-20
-4.28514e-20
-1.16182e-19
-2.92531e-19
-6.9752e-19
-1.61342e-18
-3.69341e-18
-8.45835e-18
-1.93865e-17
-4.41672e-17
-9.90872e-17
-2.17334e-16
-4.6436e-16
-9.65816e-16
-1.96011e-15
-3.90669e-15
-7.73884e-15
-1.55408e-14
-3.25369e-14
-7.3082e-14
-1.78282e-13
-4.6522e-13
-1.25482e-12
-3.37288e-12
-8.77896e-12
-2.17053e-11
-5.03502e-11
-1.08621e-10
-2.16447e-10
-3.96437e-10
-6.65167e-10
-1.01795e-09
-1.40922e-09
-1.743e-09
-1.89217e-09
-1.78149e-09
-1.4276e-09
-9.45278e-10
-4.81967e-10
-1.65457e-10
-7.35151e-24
-2.99215e-23
-1.34917e-22
-5.18853e-22
-1.80504e-21
-5.77553e-21
-1.68967e-20
-4.53037e-20
-1.13067e-19
-2.69819e-19
-6.32107e-19
-1.479e-18
-3.46932e-18
-8.1065e-18
-1.86836e-17
-4.2135e-17
-9.25982e-17
-1.98173e-16
-4.13492e-16
-8.43173e-16
-1.68731e-15
-3.33532e-15
-6.58075e-15
-1.31801e-14
-2.7456e-14
-6.10893e-14
-1.47253e-13
-3.80166e-13
-1.01683e-12
-2.71261e-12
-7.00406e-12
-1.71582e-11
-3.93661e-11
-8.38593e-11
-1.64953e-10
-2.98666e-10
-4.96194e-10
-7.51711e-10
-1.02803e-09
-1.25203e-09
-1.34582e-09
-1.26528e-09
-1.02825e-09
-7.05325e-10
-3.93548e-10
-2.45011e-24
-1.03027e-23
-4.69499e-23
-1.84707e-22
-6.54624e-22
-2.10128e-21
-6.09141e-21
-1.61334e-20
-4.00515e-20
-9.62446e-20
-2.29742e-19
-5.5069e-19
-1.31954e-18
-3.12322e-18
-7.22401e-18
-1.62407e-17
-3.54729e-17
-7.54823e-17
-1.57097e-16
-3.21076e-16
-6.47033e-16
-1.29129e-15
-2.56606e-15
-5.12041e-15
-1.04021e-14
-2.19611e-14
-4.93177e-14
-1.19334e-13
-3.0774e-13
-8.19213e-13
-2.17033e-12
-5.5575e-12
-1.34833e-11
-3.06013e-11
-6.44756e-11
-1.25612e-10
-2.25631e-10
-3.71852e-10
-5.57577e-10
-7.52179e-10
-9.05448e-10
-9.66831e-10
-9.10821e-10
-7.50486e-10
-5.34004e-10
-7.59585e-25
-3.26336e-24
-1.50808e-23
-6.0561e-23
-2.16881e-22
-6.927e-22
-1.98124e-21
-5.18605e-21
-1.28549e-20
-3.12532e-20
-7.61772e-20
-1.86521e-19
-4.5326e-19
-1.07722e-18
-2.48059e-18
-5.52158e-18
-1.1916e-17
-2.508e-17
-5.18366e-17
-1.05875e-16
-2.14817e-16
-4.34676e-16
-8.79848e-16
-1.78774e-15
-3.66789e-15
-7.68122e-15
-1.67028e-14
-3.84537e-14
-9.4612e-14
-2.45788e-13
-6.543e-13
-1.72572e-12
-4.38757e-12
-1.05523e-11
-2.37324e-11
-4.96052e-11
-9.60164e-11
-1.7136e-10
-2.79967e-10
-4.14673e-10
-5.52333e-10
-6.5815e-10
-6.99408e-10
-6.60956e-10
-5.53464e-10
-2.15742e-25
-9.39977e-25
-4.40873e-24
-1.79858e-23
-6.45541e-23
-2.03856e-22
-5.7394e-22
-1.48608e-21
-3.68759e-21
-9.08507e-21
-2.25534e-20
-5.60163e-20
-1.36766e-19
-3.23375e-19
-7.3566e-19
-1.61172e-18
-3.4208e-18
-7.0955e-18
-1.45218e-17
-2.95855e-17
-6.04229e-17
-1.24267e-16
-2.57861e-16
-5.40118e-16
-1.1428e-15
-2.45012e-15
-5.36643e-15
-1.21799e-14
-2.90889e-14
-7.34748e-14
-1.93661e-13
-5.18083e-13
-1.36456e-12
-3.45194e-12
-8.24822e-12
-1.84364e-11
-3.83393e-11
-7.38293e-11
-1.30804e-10
-2.11366e-10
-3.08999e-10
-4.06472e-10
-4.79893e-10
-5.08153e-10
-4.82656e-10
-5.52267e-26
-2.42639e-25
-1.15388e-24
-4.7525e-24
-1.69697e-23
-5.2736e-23
-1.45821e-22
-3.73475e-22
-9.27748e-22
-2.3106e-21
-5.80783e-21
-1.45026e-20
-3.52444e-20
-8.22173e-20
-1.83508e-19
-3.9352e-19
-8.18008e-19
-1.66694e-18
-3.37117e-18
-6.84479e-18
)
;

boundaryField
{
    leftWall
    {
        type            zeroGradient;
    }
    rightWall
    {
        type            zeroGradient;
    }
    lowerWall
    {
        type            zeroGradient;
    }
    atmosphere
    {
        type            inletOutlet;
        inletValue      nonuniform 0();
        value           nonuniform 0();
    }
    defaultFaces
    {
        type            empty;
    }
    procBoundary0to1
    {
        type            processor;
        value           nonuniform List<scalar> 
44
(
1
1
1
1
1
1
1
1
1
0.999999
0.999981
0.999528
0.756101
0.0481387
1.01577e-06
1.07016e-06
1.15738e-06
1.44957e-06
6.27145e-06
3.51867e-05
3.51867e-05
0.000402908
0.000753938
0.00103383
0.00110412
0.00128472
0.00141931
0.00162304
0.00228291
0.00292244
0.00347199
0.0166583
0.194392
0.216798
0.217892
0.139944
0.000217191
-2.88017e-07
-2.73087e-08
-6.06105e-11
-1.6046e-10
-3.19438e-10
-4.07137e-10
-4.10519e-10
)
;
    }
    procBoundary0to2
    {
        type            processor;
        value           nonuniform List<scalar> 
46
(
-1.40812e-17
-2.95177e-17
-6.31477e-17
-1.37625e-16
-3.04588e-16
-6.8283e-16
-1.55165e-15
-3.59686e-15
-8.60672e-15
-2.15001e-14
-5.61295e-14
-1.50931e-13
-4.07474e-13
-1.07515e-12
-2.71394e-12
-6.46276e-12
-1.43975e-11
-2.98279e-11
-5.71006e-11
-1.00193e-10
-1.59845e-10
-2.30488e-10
-2.9954e-10
-3.50782e-10
-3.70723e-10
-1.25008e-26
-5.50958e-26
-2.65376e-25
-1.09843e-24
-3.88394e-24
-1.18307e-23
-3.20017e-23
-8.06618e-23
-1.99342e-22
-4.98339e-22
-1.25826e-21
-3.13564e-21
-7.52684e-21
-1.72044e-20
-3.7442e-20
-7.81765e-20
-1.58477e-19
-3.16311e-19
-6.31076e-19
-1.40812e-17
-1.27693e-18
)
;
    }
}


// ************************************************************************* //
