/*--------------------------------*- C++ -*----------------------------------*\
| =========                 |                                                 |
| \\      /  F ield         | OpenFOAM: The Open Source CFD Toolbox           |
|  \\    /   O peration     | Version:  5.0                                   |
|   \\  /    A nd           | Web:      www.OpenFOAM.org                      |
|    \\/     M anipulation  |                                                 |
\*---------------------------------------------------------------------------*/
FoamFile
{
    version     2.0;
    format      ascii;
    class       volScalarField;
    location    "0.9";
    object      epsilon;
}
// * * * * * * * * * * * * * * * * * * * * * * * * * * * * * * * * * * * * * //

dimensions      [0 2 -3 0 0 0 0];

internalField   nonuniform List<scalar> 
1935
(
0.0127719
0.0361615
0.0614569
0.0875237
0.112952
0.137061
0.159897
0.181796
0.203115
0.224111
0.244919
0.26556
0.285974
0.306057
0.325687
0.344759
0.363194
0.380959
0.398074
0.414616
0.430725
0.446599
0.4625
0.478745
0.495724
0.513936
0.534134
0.556905
0.581359
0.607195
0.634272
0.662184
0.690092
0.716741
0.740528
0.760315
0.774736
0.775319
0.755546
0.712656
0.645171
0.551973
0.43499
0.29929
0.0276133
0.0319211
0.0441888
0.056427
0.0681675
0.0793393
0.0899676
0.100111
0.109832
0.119176
0.128169
0.136815
0.145103
0.153014
0.160527
0.167628
0.174311
0.180585
0.186475
0.192025
0.197297
0.202376
0.207369
0.212402
0.217627
0.223216
0.229447
0.236677
0.244719
0.253482
0.262903
0.27286
0.283129
0.293364
0.303061
0.311506
0.317717
0.320037
0.316541
0.305527
0.285704
0.256394
0.218037
0.172623
0.0423499
0.0333125
0.0419276
0.0515947
0.0609479
0.0697583
0.0780137
0.0857675
0.0930814
0.100004
0.106568
0.11279
0.118676
0.124227
0.129444
0.134329
0.13889
0.143145
0.147119
0.150853
0.154401
0.157832
0.161235
0.164721
0.168418
0.172484
0.177139
0.182521
0.188692
0.1957
0.203581
0.212335
0.221903
0.232136
0.24274
0.253209
0.262791
0.27046
0.274815
0.274186
0.266926
0.25192
0.229164
0.200399
0.0552342
0.0359093
0.0425634
0.0512238
0.0596998
0.0675901
0.074866
0.0816013
0.0878805
0.0937698
0.0993127
0.104535
0.10945
0.114066
0.118391
0.122435
0.126212
0.129745
0.133066
0.13622
0.139264
0.142274
0.145345
0.148592
0.152156
0.156207
0.16093
0.166486
0.173022
0.180679
0.189584
0.199842
0.211508
0.224549
0.238792
0.253855
0.269103
0.283586
0.295899
0.304135
0.306152
0.300186
0.285672
0.264352
0.0666252
0.0390348
0.0443838
0.0524895
0.0605059
0.0678894
0.0746028
0.0807437
0.0864222
0.0917224
0.0966982
0.10138
0.105785
0.109924
0.113806
0.117444
0.120859
0.124079
0.127143
0.130104
0.133031
0.136013
0.13916
0.142609
0.146525
0.151104
0.156552
0.163085
0.170933
0.180334
0.191528
0.204739
0.220143
0.23783
0.257733
0.279569
0.302765
0.326359
0.348796
0.367807
0.380599
0.384529
0.378171
0.363001
0.0769965
0.0424667
0.0468908
0.0546361
0.0623463
0.0693813
0.0757055
0.0814407
0.0867199
0.0916418
0.0962673
0.100629
0.104742
0.108618
0.112265
0.1157
0.118947
0.12204
0.125028
0.127977
0.130971
0.134118
0.137555
0.14145
0.146009
0.151469
0.158096
0.166194
0.176101
0.188187
0.202845
0.220462
0.241375
0.265813
0.293815
0.325163
0.359312
0.395252
0.431254
0.464654
0.491985
0.509661
0.515285
0.509843
0.0869327
0.0461597
0.0498831
0.0573622
0.0648308
0.0715907
0.0776172
0.0830555
0.0880567
0.09273
0.0971388
0.101313
0.105266
0.109005
0.112538
0.115883
0.119069
0.122139
0.125153
0.128192
0.131362
0.134799
0.138674
0.1432
0.148642
0.155304
0.163551
0.173811
0.186582
0.20243
0.221971
0.24583
0.274568
0.308579
0.347976
0.392522
0.441607
0.494138
0.548222
0.600942
0.648485
0.686783
0.713091
0.728647
0.0970986
0.0501344
0.0532441
0.0604959
0.0677572
0.0742896
0.0800839
0.0853065
0.0901229
0.0946469
0.0989398
0.103025
0.10691
0.110597
0.114095
0.117424
0.120616
0.123724
0.126825
0.130021
0.133442
0.137262
0.141699
0.147029
0.153595
0.161804
0.172163
0.185287
0.20191
0.222891
0.249189
0.281786
0.321558
0.369078
0.42443
0.487145
0.556325
0.630667
0.708149
0.785996
0.861083
0.930386
0.993034
1.05443
0.107875
0.0543827
0.0568635
0.0638982
0.0709857
0.077341
0.0829687
0.0880551
0.0927755
0.0972428
0.101509
0.105589
0.10948
0.11318
0.1167
0.120059
0.123299
0.126484
0.12971
0.133104
0.136834
0.141116
0.146232
0.152544
0.160495
0.170646
0.183708
0.200563
0.222301
0.250225
0.285819
0.33061
0.385913
0.452465
0.530067
0.617551
0.713256
0.815402
0.921788
1.03052
1.14147
1.25605
1.37992
1.5312
0.119083
0.0587916
0.0605823
0.0674091
0.0743754
0.0806247
0.0861713
0.0912196
0.0959487
0.100461
0.104793
0.108945
0.112906
0.116674
0.120257
0.123679
0.126989
0.130269
0.133639
0.137258
0.141336
0.14615
0.152062
0.159542
0.169176
0.181735
0.198215
0.219891
0.248372
0.285637
0.333968
0.395712
0.472801
0.566044
0.674446
0.795238
0.925133
1.06139
1.20131
1.34495
1.49984
1.67836
1.89687
2.19335
0.131505
0.0633625
0.0643289
0.0709543
0.0778503
0.0840647
0.0896291
0.094766
0.0996422
0.104328
0.10883
0.113136
0.117234
0.121118
0.124797
0.128299
0.131685
0.135061
0.138578
0.142432
0.146888
0.152298
0.159129
0.16799
0.17966
0.195198
0.216002
0.243905
0.281286
0.331133
0.396939
0.482272
0.589911
0.720531
0.871412
1.03655
1.20949
1.38591
1.56168
1.74022
1.94578
2.21327
2.56943
3.04427
0.147176
0.0685227
0.0684832
0.0748786
0.0816934
0.0878745
0.0935099
0.098843
0.103993
0.108964
0.113731
0.118271
0.12257
0.126621
0.130424
0.134008
0.137457
0.140911
0.144557
0.14864
0.153489
0.159552
0.16743
0.177907
0.192029
0.211242
0.237503
0.273444
0.322566
0.389358
0.479115
0.597204
0.747567
0.93043
1.13984
1.36353
1.58887
1.80987
2.01988
2.22697
2.48811
2.88164
3.45581
4.23058
0.168339
0.0744717
0.0734104
0.0795286
0.0862146
0.0923436
0.0981189
0.103779
0.109305
0.114619
0.119699
0.124521
0.12907
0.133325
0.137259
0.140896
0.144366
0.147854
0.151591
0.155871
0.1611
0.167846
0.176881
0.189212
0.206235
0.229909
0.262952
0.309114
0.373498
0.462755
0.58478
0.747513
0.956573
1.21156
1.50125
1.80136
2.0858
2.35118
2.58861
2.80806
3.13076
3.71146
4.64708
5.97849
0.199058
0.0807891
0.0792789
0.0850119
0.091493
0.0976513
0.103786
0.110003
0.115914
0.12154
0.126961
0.13211
0.136961
0.14146
0.145503
0.149114
0.152519
0.155968
0.159731
0.164148
0.169711
0.177131
0.187401
0.20182
0.222222
0.251231
0.292582
0.351557
0.435505
0.554114
0.718917
0.941487
1.23015
1.58479
1.98732
2.38953
2.7299
3.02642
3.26731
3.46594
3.88231
4.75494
6.26562
8.55357
0.193139
0.0842755
0.0810886
0.0850231
0.0915388
0.0986452
0.106242
0.114223
0.122043
0.129139
0.135435
0.14114
0.146445
0.151299
0.155391
0.158813
0.162019
0.165333
0.169039
0.173502
0.179306
0.187331
0.198874
0.215595
0.239864
0.275136
0.32648
0.401259
0.509901
0.666264
0.886855
1.18835
1.58398
2.07829
2.64956
3.20187
3.55762
3.79945
3.93599
4.14763
4.76019
6.06405
8.40965
12.1356
0.18409
0.0884352
0.0803379
0.0826547
0.0885337
0.095886
0.104301
0.113582
0.123347
0.132677
0.14091
0.148295
0.155108
0.161285
0.16636
0.169948
0.172882
0.175988
0.179553
0.183936
0.189828
0.1983
0.211097
0.230301
0.258887
0.301342
0.364457
0.458372
0.597681
0.80192
1.09436
1.49876
2.037
2.73033
3.57629
4.39302
4.52342
4.5019
4.4694
4.82691
5.76138
7.63124
11.0723
15.3969
0.182841
0.0916268
0.0797606
0.0807466
0.0856604
0.0924001
0.1004
0.109324
0.118812
0.128464
0.137919
0.147079
0.155877
0.163988
0.171118
0.176745
0.180919
0.184911
0.189058
0.193852
0.200274
0.209521
0.223608
0.245422
0.278668
0.329112
0.405743
0.522313
0.699031
0.963288
1.3478
1.88589
2.61108
3.58061
4.80185
5.4639
5.74037
4.99831
4.94193
5.51154
6.84689
9.28253
12.8316
15.7631
0.187278
0.0935972
0.0802059
0.0799506
0.0836698
0.0892991
0.0962362
0.104162
0.112769
0.121817
0.131163
0.140681
0.150097
0.158885
0.166618
0.17339
0.17955
0.185585
0.191662
0.198253
0.206378
0.217722
0.234206
0.259343
0.297831
0.357037
0.448546
0.590228
0.808583
1.13905
1.62084
2.2809
3.10571
4.03542
4.95403
5.84678
6.30316
5.33959
5.36083
6.19649
7.98943
10.6304
13.4378
16.4029
0.193394
0.0960574
0.0817379
0.0803268
0.0828599
0.0872771
0.0929587
0.0996319
0.107059
0.115052
0.123516
0.132378
0.141407
0.15013
0.158155
0.165638
0.173
0.180536
0.188341
0.196779
0.206844
0.220494
0.240337
0.27002
0.314858
0.38335
0.488764
0.651114
0.898422
1.26375
1.77335
2.42113
3.13876
3.82745
4.56443
5.53336
5.76157
5.3787
5.68944
6.842
9.07942
11.7732
14.7643
18.1379
0.198862
0.0991147
0.0839341
0.081526
0.0830294
0.0863525
0.0908483
0.0962688
0.102443
0.109227
0.116543
0.124344
0.132483
0.140644
0.148538
0.156247
0.164135
0.172492
0.18148
0.191455
0.20341
0.219394
0.242318
0.276105
0.326441
0.402247
0.51713
0.690568
0.947268
1.31106
1.79024
2.3573
2.94044
3.48344
4.09861
4.82829
4.98397
5.15075
5.85806
7.31304
9.77646
13.1654
16.5889
20.6747
0.20304
0.102189
0.0862991
0.0831121
0.0837983
0.0862306
0.0897318
0.0940556
0.0990735
0.104688
0.110838
0.11749
0.124568
0.131898
0.139309
0.14685
0.154798
0.16345
0.173056
0.184061
0.1975
0.215405
0.24068
0.277412
0.33139
0.411323
0.529871
0.703916
0.952472
1.2897
1.71232
2.18743
2.66062
3.11821
3.67127
4.29989
4.58554
4.99318
5.92653
7.59161
10.2392
14.1278
18.4085
23.5611
29.6648
0.205957
0.104937
0.0885429
0.0847758
0.0848409
0.0865861
0.0893059
0.0927431
0.0967876
0.101374
0.106464
0.112039
0.118069
0.124479
0.1312
0.138287
0.145962
0.154524
0.16431
0.175857
0.190207
0.209234
0.235815
0.273995
0.329269
0.409617
0.525992
0.69189
0.920654
1.21918
1.57907
1.97238
2.36847
2.78859
3.3433
4.02444
4.4303
4.92677
5.96899
7.7636
10.5632
14.6226
19.8766
26.148
33.5485
0.207904
0.107244
0.0905209
0.0863235
0.0859205
0.0871471
0.0892748
0.0920301
0.0953042
0.0990484
0.103242
0.107881
0.112965
0.118485
0.12444
0.13091
0.138096
0.146298
0.155912
0.167539
0.182209
0.201639
0.228432
0.26633
0.320652
0.398132
0.50776
0.659752
0.8629
1.11973
1.42145
1.74936
2.09478
2.5027
3.08507
3.841
4.38036
4.90253
5.96763
7.80975
10.7077
14.9783
20.9642
28.0151
36.9854
0.209249
0.109124
0.0921838
0.0876542
0.0868887
0.0877211
0.0894058
0.0916511
0.0943405
0.0974288
0.100904
0.104773
0.109056
0.113778
0.118985
0.12478
0.131362
0.139031
0.148213
0.159536
0.173993
0.193141
0.219284
0.255684
0.306886
0.379095
0.479057
0.614306
0.790483
1.00809
1.26037
1.53798
1.84828
2.24801
2.84338
3.64348
4.33615
4.89223
5.90574
7.70673
10.5996
14.9542
21.2414
29.101
39.3424
0.210331
0.110657
0.0935441
0.0887352
0.0876717
0.0881934
0.0895417
0.0914087
0.0936652
0.0962612
0.0991853
0.102449
0.106083
0.11013
0.114663
0.119801
0.125744
0.132791
0.14137
0.152107
0.165934
0.184244
0.209043
0.24311
0.290205
0.355225
0.444073
0.561937
0.712507
0.89568
1.10754
1.3461
1.62817
2.01322
2.59857
3.41068
4.22889
4.8705
5.78586
7.45861
10.2212
14.4712
20.7068
29.2324
39.8758
0.211421
0.111945
0.0946428
0.089573
0.0882457
0.0885077
0.0895912
0.0911737
0.0931126
0.0953482
0.0978639
0.10067
0.103799
0.107302
0.111262
0.115808
0.121135
0.127536
0.135426
0.1454
0.158315
0.175401
0.198378
0.229576
0.272058
0.329662
0.406801
0.507698
0.635368
0.789294
0.968293
1.17526
1.43107
1.79185
2.34395
3.1302
4.02059
4.80671
5.63506
7.09754
9.60544
13.5549
19.405
27.752
38.1213
0.212704
0.113075
0.0955268
0.0901908
0.0886136
0.088645
0.0895094
0.0908716
0.0925757
0.0945509
0.0967721
0.0992442
0.101995
0.105079
0.108577
0.112618
0.117392
0.123174
0.130356
0.139486
0.151337
0.166979
0.187871
0.215945
0.253673
0.304062
0.370467
0.456091
0.563235
0.692511
0.844535
1.02482
1.25464
1.58372
2.08815
2.82428
3.73003
4.64168
5.46856
6.675
8.82843
12.3368
17.646
25.2446
35.1329
0.214284
0.114109
0.0962358
0.0906152
0.0887905
0.0886073
0.089281
0.0904653
0.0919925
0.0937803
0.0957941
0.0980303
0.100511
0.103283
0.106426
0.11006
0.114362
0.119587
0.126093
0.134377
0.145119
0.159242
0.177973
0.2029
0.23601
0.279664
0.336454
0.408874
0.498883
0.607734
0.737342
0.894379
1.09829
1.3906
1.83555
2.49965
3.37289
4.33837
5.25859
6.25354
7.97827
10.9214
15.5296
22.2746
31.5434
0.21619
0.115079
0.0967977
0.090869
0.0887947
0.0884058
0.0889071
0.0899419
0.0913318
0.0929842
0.0948547
0.0969308
0.0992263
0.101781
0.104664
0.107984
0.111904
0.116653
0.122551
0.13004
0.13971
0.152351
0.168985
0.190914
0.219731
0.257303
0.305666
0.366823
0.442538
0.534431
0.64515
0.781561
0.960618
1.2163
1.60167
2.17743
2.98428
3.94605
4.94526
5.86076
7.15096
9.44882
13.2054
18.9372
27.2842
0.218389
0.115994
0.0972275
0.0909693
0.0886429
0.0880548
0.0883967
0.0893018
0.0905819
0.0921354
0.093909
0.0958818
0.0980585
0.10047
0.103174
0.106268
0.109894
0.114255
0.119634
0.126414
0.135106
0.146375
0.161074
0.180264
0.205228
0.237452
0.278561
0.33021
0.394015
0.47176
0.566372
0.68433
0.839904
1.06036
1.38861
1.87766
2.57548
3.4807
4.48637
5.46746
6.44478
8.07639
10.8816
15.2988
21.842
0.220807
0.116842
0.0975306
0.0909277
0.0883491
0.0875687
0.0877621
0.0885521
0.0897421
0.0912226
0.0929326
0.0948433
0.0969514
0.099278
0.101871
0.104813
0.108226
0.112288
0.117243
0.123421
0.131257
0.141312
0.154292
0.171064
0.192665
0.220288
0.255249
0.298939
0.352835
0.41873
0.499527
0.601002
0.734853
0.922581
1.19824
1.60652
2.19387
2.99655
3.96631
4.98948
5.84638
6.9272
8.85444
11.9863
16.7318
0.223346
0.117601
0.097706
0.0907519
0.0879253
0.0869608
0.0870161
0.0877033
0.088818
0.090244
0.091914
0.0937926
0.0958691
0.0981561
0.100691
0.103543
0.106815
0.110658
0.115283
0.120971
0.128089
0.137107
0.148608
0.163305
0.182037
0.205773
0.23559
0.27267
0.31834
0.374303
0.443246
0.530125
0.644324
0.802518
1.03115
1.36626
1.84834
2.51272
3.37137
4.33777
5.2702
6.10246
7.30372
9.34313
12.5438
0.225897
0.118245
0.0977508
0.0904482
0.0873819
0.0862435
0.0861713
0.0867665
0.0878177
0.089203
0.0908498
0.0927173
0.0947889
0.0970697
0.0995879
0.102398
0.105589
0.109287
0.11367
0.118975
0.125512
0.133672
0.143938
0.156895
0.173229
0.193732
0.219293
0.250918
0.289784
0.337437
0.396256
0.470371
0.56718
0.699416
0.887188
1.1586
1.54704
2.0844
2.79386
3.66145
4.59095
5.4595
6.22942
7.43447
9.44633
0.228354
0.118753
0.0976626
0.0900226
0.0867292
0.0854288
0.08524
0.0857533
0.0867507
0.0881055
0.089741
0.0916123
0.0936976
0.0959961
0.0985276
0.101336
0.104494
0.108107
0.112325
0.117347
0.123431
0.130903
0.140164
0.151694
0.166058
0.183907
0.205983
0.233138
0.266401
0.30713
0.357366
0.420475
0.502209
0.612164
0.765371
0.983194
1.29221
1.72007
2.28979
3.0155
3.85942
4.70367
5.44611
6.17404
7.3193
0.230621
0.119106
0.097442
0.0894826
0.0859776
0.0845286
0.0842342
0.084675
0.0856267
0.0869588
0.0885914
0.0904763
0.0925881
0.0949207
0.0974874
0.100323
0.103485
0.107063
0.111182
0.116006
0.121752
0.128691
0.137154
0.147538
0.160311
0.17601
0.195256
0.218773
0.247444
0.282439
0.325464
0.37922
0.448127
0.53934
0.663936
0.83781
1.08148
1.41786
1.86828
2.44794
3.15655
3.92905
4.6625
5.31612
5.9647
0.232621
0.119294
0.0970927
0.0888376
0.0851387
0.0835547
0.0831657
0.0835424
0.0844554
0.0857707
0.087406
0.0893108
0.0914569
0.0938343
0.096451
0.0993334
0.102529
0.106112
0.110184
0.114884
0.120392
0.126931
0.134778
0.144261
0.155768
0.169747
0.186718
0.207294
0.232226
0.262502
0.299527
0.345442
0.403613
0.479332
0.580663
0.719215
0.910357
1.17224
1.52321
1.97789
2.54196
3.1968
3.87694
4.50947
5.06761
0.234296
0.119313
0.0966217
0.088098
0.0842241
0.0825192
0.0820459
0.0823663
0.0832462
0.084549
0.0861905
0.0881187
0.0903032
0.0927316
0.0954075
0.0983509
0.101601
0.105217
0.109285
0.113921
0.119272
0.125527
0.132913
0.141704
0.152223
0.164843
0.180003
0.198219
0.220126
0.246548
0.27863
0.318053
0.367367
0.430463
0.513158
0.623791
0.773574
0.976254
1.24666
1.59785
2.03681
2.55918
3.1414
3.72779
4.26007
0.23561
0.119165
0.0960383
0.0872756
0.0832462
0.0814339
0.080886
0.0811568
0.0820082
0.0833013
0.0849508
0.0869035
0.0891281
0.09161
0.0943497
0.0973624
0.10068
0.104351
0.108448
0.113066
0.11833
0.124394
0.131449
0.139723
0.149485
0.16105
0.174785
0.191125
0.210604
0.233905
0.261954
0.296064
0.338163
0.391102
0.459051
0.547929
0.665725
0.822463
1.02945
1.29747
1.63368
2.03783
2.49925
2.99627
3.48594
0.236542
0.118856
0.0953534
0.0863824
0.0822167
0.0803101
0.0796964
0.0799233
0.0807496
0.0820347
0.0836926
0.0856696
0.0879336
0.0904689
0.0932737
0.0963597
0.0997525
0.103494
0.107643
0.11228
0.117509
0.12346
0.13029
0.138193
0.147391
0.158151
0.17078
0.185647
0.203197
0.223994
0.248785
0.278596
0.314884
0.359738
0.416141
0.488262
0.581699
0.703545
0.862019
1.06539
1.31998
1.62744
1.9824
2.37172
2.77654
0.237088
0.118396
0.0945784
0.0854299
0.0811468
0.0791581
0.0784865
0.0786746
0.0794784
0.0807563
0.0824218
0.0844213
0.0867224
0.0893089
0.0921775
0.0953372
0.0988095
0.102629
0.106847
0.111531
0.116767
0.122665
0.129358
0.137006
0.1458
0.155961
0.16775
0.181476
0.197513
0.216325
0.238515
0.264886
0.296543
0.335024
0.382467
0.441802
0.516919
0.612738
0.735041
0.889849
1.0822
1.31438
1.58413
1.88384
2.20161
0.237255
0.117795
0.0937247
0.0844289
0.0800464
0.077987
0.0772649
0.0774182
0.0782014
0.079472
0.0811437
0.083163
0.0854979
0.0881318
0.0910608
0.0942922
0.0978443
0.101747
0.106044
0.110793
0.116068
0.121962
0.128586
0.136077
0.144594
0.154326
0.165492
0.178355
0.193225
0.210488
0.23063
0.254283
0.282292
0.315797
0.356343
0.405997
0.467462
0.54413
0.639997
0.759323
0.905915
1.08204
1.28724
1.51759
1.76603
0.23706
0.117067
0.092803
0.0833887
0.0789241
0.0768048
0.0760386
0.076161
0.0769248
0.0781876
0.0798634
0.0818991
0.0842634
0.0869399
0.0899246
0.0932236
0.0968533
0.10084
0.105223
0.11005
0.115387
0.121312
0.127922
0.135332
0.143678
0.153119
0.163844
0.176072
0.190065
0.206143
0.2247
0.246239
0.271412
0.301074
0.336355
0.37873
0.430094
0.492796
0.569599
0.663494
0.777293
0.913001
1.07107
1.24982
1.4454
0.236524
0.116226
0.0918233
0.0823178
0.0777871
0.075618
0.0748139
0.0749084
0.0756539
0.076908
0.0785853
0.0806337
0.0830225
0.0857361
0.0887705
0.0921317
0.0958348
0.0999041
0.104374
0.109288
0.114703
0.120687
0.127325
0.134715
0.142974
0.152239
0.162669
0.174453
0.18781
0.203008
0.22037
0.240298
0.263303
0.290038
0.321341
0.358285
0.402221
0.454802
0.517967
0.593837
0.684496
0.791632
0.916092
1.05747
1.21389
0.23568
0.115285
0.0907946
0.0812229
0.0766414
0.074432
0.0735958
0.0736654
0.0743932
0.0756375
0.0773137
0.0793706
0.0817787
0.0845233
0.087601
0.091018
0.0947888
0.0989363
0.103492
0.108497
)
;

boundaryField
{
    leftWall
    {
        Cmu             0.09;
        kappa           0.41;
        E               9.8;
        type            epsilonWallFunction;
        value           nonuniform List<scalar> 
44
(
0.0127719
0.0276133
0.0423499
0.0552342
0.0666252
0.0769965
0.0869327
0.0970986
0.107875
0.119083
0.131505
0.147176
0.168339
0.199058
0.193139
0.18409
0.182841
0.187278
0.193394
0.198862
0.20304
0.205957
0.207904
0.209249
0.210331
0.211421
0.212704
0.214284
0.21619
0.218389
0.220807
0.223346
0.225897
0.228354
0.230621
0.232621
0.234296
0.23561
0.236542
0.237088
0.237255
0.23706
0.236524
0.23568
)
;
    }
    rightWall
    {
        Cmu             0.09;
        kappa           0.41;
        E               9.8;
        type            epsilonWallFunction;
        value           nonuniform 0();
    }
    lowerWall
    {
        Cmu             0.09;
        kappa           0.41;
        E               9.8;
        type            epsilonWallFunction;
        value           nonuniform List<scalar> 
44
(
0.0127719
0.0361615
0.0614569
0.0875237
0.112952
0.137061
0.159897
0.181796
0.203115
0.224111
0.244919
0.26556
0.285974
0.306057
0.325687
0.344759
0.363194
0.380959
0.398074
0.414616
0.430725
0.446599
0.4625
0.478745
0.495724
0.513936
0.534134
0.556905
0.581359
0.607195
0.634272
0.662184
0.690092
0.716741
0.740528
0.760315
0.774736
0.775319
0.755546
0.712656
0.645171
0.551973
0.43499
0.29929
)
;
    }
    atmosphere
    {
        type            inletOutlet;
        inletValue      nonuniform 0();
        value           nonuniform 0();
    }
    defaultFaces
    {
        type            empty;
    }
    procBoundary0to1
    {
        type            processor;
        value           nonuniform List<scalar> 
44
(
0.15387
0.124628
0.171511
0.244832
0.350964
0.509082
0.754771
1.15429
1.8174
2.85515
3.76591
5.17312
7.56455
11.5136
17.4348
18.8282
19.6274
21.1668
23.3674
26.153
26.153
24.77
27.4593
31.4107
36.6175
42.4268
46.4182
45.7162
42.4606
38.3402
31.0342
23.5243
17.2277
12.4988
9.17887
6.97586
5.61571
4.73698
3.92984
3.17191
2.52481
2.02426
1.65241
1.38216
)
;
    }
    procBoundary0to2
    {
        type            processor;
        value           nonuniform List<scalar> 
46
(
0.114
0.120064
0.126761
0.134179
0.142419
0.1516
0.161858
0.173355
0.186279
0.200852
0.217343
0.236081
0.257469
0.282016
0.310358
0.343293
0.381807
0.427096
0.480555
0.543728
0.618191
0.705354
0.806197
0.920996
1.04911
0.2346
0.114264
0.0897255
0.0801103
0.0754923
0.0732517
0.0723888
0.0724362
0.0731468
0.07438
0.0760521
0.0781135
0.0805355
0.0833047
0.0864188
0.0898843
0.0937161
0.0979364
0.102575
0.114
0.10767
)
;
    }
}


// ************************************************************************* //
