/*--------------------------------*- C++ -*----------------------------------*\
| =========                 |                                                 |
| \\      /  F ield         | OpenFOAM: The Open Source CFD Toolbox           |
|  \\    /   O peration     | Version:  5.0                                   |
|   \\  /    A nd           | Web:      www.OpenFOAM.org                      |
|    \\/     M anipulation  |                                                 |
\*---------------------------------------------------------------------------*/
FoamFile
{
    version     2.0;
    format      ascii;
    class       volScalarField;
    location    "0.9";
    object      k;
}
// * * * * * * * * * * * * * * * * * * * * * * * * * * * * * * * * * * * * * //

dimensions      [0 2 -2 0 0 0 0];

internalField   nonuniform List<scalar> 
1935
(
0.00195759
0.00359869
0.00512832
0.00649361
0.0076989
0.00876047
0.00971015
0.0105796
0.0113931
0.0121671
0.0129103
0.0136269
0.0143171
0.01498
0.0156139
0.0162177
0.0167911
0.017335
0.0178518
0.0183455
0.0188214
0.0192863
0.0197483
0.0202169
0.020703
0.0212204
0.02179
0.0224188
0.023082
0.0237721
0.0244847
0.0252084
0.0259218
0.0265948
0.0271903
0.0276865
0.0280463
0.0280608
0.0275822
0.0265296
0.0248247
0.0223648
0.019069
0.0148448
0.00362765
0.00776145
0.0109779
0.0138818
0.0164474
0.0186965
0.0206881
0.0224858
0.0241411
0.0256905
0.0271567
0.0285527
0.0298846
0.0311549
0.0323648
0.0335159
0.0346107
0.035654
0.0366526
0.0376163
0.0385572
0.0394897
0.0404309
0.0413996
0.042417
0.0435068
0.0446827
0.0459218
0.0472345
0.0486214
0.0500761
0.0515823
0.0531109
0.0546167
0.0560321
0.0572615
0.0581585
0.0585024
0.0580222
0.0564294
0.0534402
0.0487947
0.0422794
0.033718
0.00483474
0.0105163
0.0146756
0.0183738
0.0216419
0.0245196
0.0270736
0.0293758
0.0314866
0.0334504
0.0352966
0.0370429
0.0386994
0.0402719
0.0417642
0.0431807
0.0445269
0.0458107
0.0470425
0.0482358
0.0494067
0.0505741
0.0517589
0.0529841
0.0542738
0.0556533
0.0571247
0.0586972
0.060379
0.0621729
0.0640747
0.0660709
0.0681336
0.0702139
0.0722316
0.0740602
0.0755141
0.0763432
0.0762173
0.0747344
0.0714635
0.0660049
0.0580335
0.047255
0.0057826
0.0126888
0.0175747
0.0218564
0.0256358
0.0289643
0.0319163
0.0345717
0.036999
0.0392493
0.0413569
0.0433435
0.0452219
0.0470004
0.0486855
0.0502837
0.0518035
0.0532556
0.0546539
0.056015
0.0573587
0.0587074
0.0600857
0.0615198
0.0630371
0.0646627
0.0664055
0.0682835
0.0703106
0.0724964
0.074844
0.0773469
0.0799828
0.0827043
0.085426
0.0880081
0.0902439
0.0918482
0.0924326
0.0914991
0.0884791
0.0828088
0.0739807
0.0614641
0.00656603
0.0145658
0.0200953
0.0248715
0.0290717
0.032763
0.0360301
0.0389632
0.0416393
0.0441157
0.0464313
0.0486105
0.0506681
0.0526143
0.0544573
0.056206
0.0578713
0.0594669
0.0610097
0.0625201
0.0640214
0.0655401
0.0671046
0.0687455
0.070495
0.0723766
0.0744124
0.0766273
0.0790446
0.0816842
0.0845612
0.0876806
0.0910297
0.0945663
0.0982037
0.101794
0.105112
0.107839
0.109523
0.109568
0.10726
0.101831
0.0925104
0.0783772
0.00724682
0.0162816
0.0224129
0.0276311
0.0321936
0.0361901
0.0397201
0.042885
0.0457707
0.0484402
0.0509359
0.0532838
0.0555001
0.0575959
0.0595811
0.0614663
0.0632649
0.0649934
0.0666725
0.0683263
0.0699825
0.0716719
0.073428
0.0752869
0.0772866
0.0794545
0.0818254
0.084435
0.08732
0.0905163
0.0940561
0.0979614
0.102233
0.106836
0.111681
0.116609
0.121372
0.125612
0.128816
0.13029
0.12917
0.124472
0.115102
0.0995912
0.00787501
0.0179123
0.0246125
0.030233
0.0351141
0.0393748
0.0431321
0.0464998
0.0495721
0.0524169
0.0550788
0.0575843
0.05995
0.0621873
0.0643073
0.0663225
0.0682485
0.0701053
0.0719173
0.0737132
0.0755257
0.0773913
0.07935
0.0814448
0.0837213
0.0862164
0.0889792
0.0920618
0.0955203
0.0994136
0.103799
0.108722
0.114201
0.120207
0.12664
0.133312
0.139938
0.146114
0.151262
0.154606
0.155168
0.15179
0.143068
0.126856
0.00849447
0.0194956
0.026728
0.0327161
0.0378834
0.0423802
0.0463424
0.0498966
0.0531448
0.0561585
0.0589826
0.0616433
0.064156
0.0665326
0.0687849
0.0709272
0.0729777
0.0749599
0.0769031
0.0788413
0.0808133
0.0828627
0.0850377
0.087391
0.0899773
0.0928496
0.0960758
0.0997311
0.1039
0.108673
0.114145
0.120395
0.127461
0.135313
0.143817
0.152725
0.161681
0.170214
0.177681
0.183259
0.185964
0.1846
0.177601
0.162148
0.00912678
0.0210301
0.0287538
0.0350808
0.0405141
0.045232
0.0493895
0.0531262
0.0565512
0.0597377
0.0627289
0.0655488
0.0682117
0.0707292
0.0731142
0.0753825
0.0775553
0.0796606
0.0817332
0.0838137
0.0859482
0.0881894
0.0905962
0.0932347
0.0961695
0.0994789
0.103256
0.107608
0.11266
0.11855
0.125424
0.133404
0.142555
0.152827
0.16401
0.175734
0.187515
0.198779
0.208806
0.216798
0.221973
0.223388
0.219649
0.207731
0.00975844
0.0224669
0.0306444
0.0372916
0.0429852
0.0479241
0.0522822
0.056213
0.0598301
0.0632051
0.0663769
0.0693665
0.0721871
0.0748504
0.0773702
0.0797639
0.0820564
0.0842813
0.0864802
0.0887015
0.0910004
0.0934409
0.0960956
0.0990465
0.102376
0.106194
0.110627
0.115829
0.121979
0.129286
0.137966
0.148203
0.160082
0.173504
0.188114
0.203316
0.21841
0.232669
0.245263
0.255513
0.263225
0.268218
0.269853
0.265769
0.0104178
0.023759
0.0323634
0.0393256
0.0452831
0.0504521
0.0550302
0.0591854
0.0630302
0.0666256
0.0700032
0.0731814
0.0761738
0.0789928
0.0816522
0.0841712
0.08658
0.0889198
0.0912406
0.0935999
0.0960642
0.0987117
0.101632
0.104928
0.108709
0.113121
0.118342
0.124587
0.132114
0.141227
0.152243
0.165424
0.18087
0.198383
0.21735
0.236789
0.255649
0.272993
0.287807
0.299656
0.309624
0.319104
0.328673
0.336872
0.0111958
0.0249451
0.0339834
0.0412629
0.04748
0.0528749
0.0576858
0.062097
0.0662063
0.070054
0.0736638
0.0770535
0.0802376
0.0832274
0.0860336
0.0886767
0.0911957
0.093643
0.0960786
0.0985703
0.101198
0.104058
0.107264
0.110941
0.115238
0.12035
0.126522
0.134052
0.143309
0.15473
0.168766
0.18578
0.205875
0.228681
0.253168
0.277712
0.300657
0.320868
0.337101
0.349263
0.360844
0.376153
0.397274
0.422676
0.0121892
0.026018
0.0355702
0.0431788
0.049648
0.055264
0.0603311
0.065042
0.0694462
0.0735611
0.077417
0.0810343
0.0844274
0.0876018
0.0905576
0.0933157
0.0959319
0.0984738
0.101012
0.103625
0.106408
0.10948
0.112985
0.117079
0.12196
0.12789
0.135198
0.144297
0.155705
0.170036
0.187921
0.209839
0.235883
0.265451
0.296911
0.327527
0.354474
0.37682
0.393204
0.403583
0.416033
0.439824
0.478718
0.530681
0.0135948
0.0268828
0.0371475
0.0450785
0.05178
0.0576439
0.063044
0.0681359
0.0728375
0.0772105
0.0813246
0.085188
0.0888125
0.0921899
0.095291
0.0981404
0.10083
0.103448
0.106073
0.10879
0.111711
0.114984
0.118794
0.12334
0.128881
0.135759
0.144414
0.15541
0.169466
0.187429
0.210148
0.238244
0.271807
0.310028
0.350538
0.38859
0.418522
0.441152
0.45503
0.460162
0.474633
0.511944
0.577587
0.670181
0.0135108
0.0269306
0.0372538
0.0449948
0.0519311
0.0582918
0.0643609
0.0702289
0.0757529
0.0807789
0.0853315
0.089524
0.0934397
0.0970656
0.100298
0.103191
0.105919
0.108592
0.111285
0.114084
0.117117
0.120566
0.124679
0.129711
0.135992
0.14396
0.154194
0.167462
0.184742
0.207179
0.235885
0.271644
0.314616
0.364066
0.417139
0.465379
0.49431
0.509799
0.51226
0.51389
0.536369
0.59382
0.696454
0.845233
0.0130016
0.0262771
0.0363695
0.0439299
0.0508414
0.0574321
0.0639183
0.0703693
0.076705
0.0826332
0.0879816
0.0928872
0.0974573
0.101668
0.105363
0.108432
0.111188
0.113908
0.116659
0.119512
0.122617
0.126196
0.130603
0.136158
0.14326
0.152462
0.164526
0.18048
0.201645
0.229534
0.265576
0.310727
0.365351
0.429561
0.501663
0.566959
0.576149
0.569575
0.555749
0.562429
0.599968
0.683552
0.832464
0.9998
0.0128573
0.0259206
0.0354887
0.0428969
0.0496498
0.0561565
0.0626085
0.0690396
0.0753911
0.0815651
0.0874777
0.093129
0.098502
0.103485
0.107997
0.111879
0.115188
0.118347
0.121423
0.124523
0.127881
0.131725
0.136453
0.142573
0.150572
0.161153
0.175309
0.194403
0.220193
0.254679
0.299684
0.356313
0.425062
0.507937
0.602801
0.652576
0.669389
0.611122
0.591124
0.606608
0.66321
0.772283
0.92058
1.03108
0.013007
0.0259957
0.0350517
0.0422129
0.0486937
0.0549185
0.061086
0.0672516
0.0733847
0.0794523
0.0854462
0.0913416
0.0970409
0.102363
0.10719
0.111593
0.115718
0.119714
0.123587
0.127431
0.131474
0.136083
0.141561
0.148529
0.157636
0.169798
0.186287
0.208808
0.23954
0.280853
0.334529
0.400341
0.474441
0.550894
0.621541
0.686293
0.713123
0.637858
0.61887
0.646501
0.724759
0.838662
0.95088
1.05953
0.013264
0.0263515
0.0350473
0.0419578
0.0481517
0.0540423
0.0598366
0.0656227
0.071405
0.0771726
0.0829343
0.0886858
0.0943454
0.0997479
0.104784
0.109555
0.114225
0.118877
0.123492
0.128119
0.132967
0.138469
0.1451
0.153411
0.164087
0.178139
0.196953
0.222338
0.256412
0.30103
0.356609
0.420272
0.484497
0.541314
0.598713
0.670208
0.680644
0.640059
0.636801
0.680009
0.777678
0.887954
1.00229
1.12152
0.0135056
0.0267978
0.0353204
0.0420447
0.048
0.0535885
0.0590202
0.0644065
0.0697865
0.0751698
0.080572
0.0860022
0.091416
0.0967054
0.101791
0.106743
0.11171
0.116779
0.121955
0.127277
0.132944
0.1394
0.147176
0.156834
0.169052
0.184821
0.205478
0.232656
0.267997
0.312397
0.364763
0.420872
0.473697
0.519371
0.568969
0.624345
0.627702
0.621585
0.64203
0.700219
0.805218
0.941704
1.06819
1.20762
0.0136937
0.0272264
0.0357223
0.0423466
0.048135
0.0534887
0.058618
0.0636472
0.0686409
0.0736304
0.07864
0.0836887
0.0887649
0.0938172
0.098806
0.103782
0.108864
0.114148
0.119676
0.125518
0.131884
0.139194
0.147954
0.158739
0.17221
0.189266
0.211047
0.238814
0.273574
0.315355
0.362282
0.410135
0.453924
0.493638
0.539878
0.587917
0.599208
0.608315
0.641991
0.70996
0.820233
0.975456
1.13106
1.30243
1.48018
0.013826
0.0276158
0.0361727
0.0427679
0.0484573
0.0536464
0.0585466
0.0632876
0.0679493
0.0725807
0.0772171
0.0818875
0.0866044
0.0913591
0.0961485
0.101021
0.106077
0.111418
0.117124
0.123302
0.130162
0.138078
0.147544
0.159115
0.173386
0.191119
0.213203
0.240488
0.27341
0.311419
0.35245
0.393116
0.430848
0.468672
0.516387
0.568869
0.588613
0.603476
0.643603
0.717591
0.832968
0.992655
1.18115
1.38552
1.5959
0.0139144
0.0279706
0.0366316
0.0432447
0.0488873
0.0539717
0.0587103
0.0632346
0.0676323
0.0719638
0.0762745
0.0806028
0.0849783
0.0894212
0.0939567
0.0986404
0.103565
0.10884
0.114572
0.120899
0.128032
0.136302
0.146141
0.15806
0.172644
0.190452
0.212123
0.238145
0.268542
0.302485
0.338121
0.373209
0.407348
0.445539
0.496991
0.556379
0.586921
0.604288
0.646365
0.722584
0.841077
1.00683
1.21944
1.44552
1.69729
0.0139751
0.0283019
0.0370826
0.0437391
0.0493698
0.0543941
0.0590255
0.0633957
0.0675953
0.0716906
0.0757343
0.079772
0.0838449
0.0879918
0.092257
0.0967061
0.101432
0.106549
0.112184
0.118492
0.125684
0.134054
0.143974
0.155878
0.170253
0.187633
0.208356
0.232648
0.260287
0.29039
0.321515
0.352509
0.384553
0.423555
0.477774
0.542486
0.586789
0.608522
0.648957
0.723576
0.841353
1.00934
1.23202
1.48195
1.76912
0.0140232
0.0286219
0.0375225
0.0442329
0.0498716
0.0548653
0.0594292
0.0636943
0.0677517
0.0716699
0.0755052
0.0793079
0.0831263
0.0870099
0.0910153
0.0952157
0.0997071
0.104607
0.110052
0.116207
0.123276
0.131524
0.141269
0.152871
0.166717
0.183193
0.202615
0.224959
0.24989
0.276605
0.304112
0.332111
0.362717
0.401972
0.457195
0.525321
0.58256
0.613656
0.650706
0.720158
0.832574
0.99663
1.21847
1.49047
1.79184
0.014071
0.0289416
0.0379541
0.0447188
0.0503744
0.055355
0.0598779
0.0640736
0.0680324
0.0718227
0.075502
0.0791226
0.082736
0.0863971
0.0901692
0.0941298
0.0983764
0.103028
0.108224
0.114129
0.120941
0.128894
0.138262
0.14934
0.162433
0.177815
0.195667
0.215962
0.238384
0.262191
0.286806
0.312502
0.341792
0.380365
0.434675
0.503618
0.570614
0.616693
0.652193
0.713101
0.815498
0.968935
1.17964
1.4512
1.75117
0.0141268
0.0292685
0.0383813
0.045195
0.050869
0.0558451
0.0603431
0.0644937
0.0683858
0.0720869
0.0756537
0.0791384
0.0825932
0.0860747
0.089648
0.0933921
0.0974033
0.101799
0.106715
0.112314
0.118778
0.126319
0.135171
0.145578
0.157775
0.17196
0.188235
0.206537
0.22658
0.247878
0.270128
0.29391
0.32177
0.358811
0.410864
0.478719
0.551432
0.612275
0.653206
0.703997
0.792582
0.930297
1.12466
1.3784
1.67404
0.0141954
0.0296065
0.0388064
0.0456604
0.0513498
0.0563241
0.0608062
0.0649272
0.068775
0.0724157
0.0759044
0.0792917
0.0826288
0.0859712
0.0893833
0.0929419
0.0967403
0.10089
0.105523
0.11079
0.116862
0.123926
0.132183
0.141835
0.153068
0.166025
0.180764
0.197215
0.215155
0.23428
0.254507
0.27656
0.302784
0.337553
0.386061
0.450859
0.525647
0.596622
0.650814
0.695111
0.766903
0.884265
1.05661
1.28848
1.57596
0.0142782
0.0299557
0.0392293
0.0461136
0.0518129
0.0567846
0.0612549
0.0653556
0.0691742
0.0727752
0.0762118
0.0795327
0.0827865
0.0860264
0.0893136
0.092721
0.0963365
0.100265
0.104628
0.109567
0.115235
0.1218
0.129434
0.138307
0.148567
0.160321
0.173606
0.188363
0.204437
0.221657
0.240089
0.260495
0.284938
0.317113
0.361589
0.421448
0.495303
0.572105
0.639456
0.686676
0.74178
0.835525
0.980163
1.18434
1.45425
0.0143736
0.0303128
0.0396471
0.0465513
0.0522539
0.0572202
0.0616798
0.0657656
0.0695647
0.0731406
0.0765447
0.079823
0.0830216
0.0861903
0.089386
0.0926764
0.0961424
0.0998802
0.104002
0.108633
0.113915
0.119993
0.127018
0.135131
0.144454
0.155071
0.167012
0.180237
0.194649
0.210177
0.226971
0.245761
0.268308
0.297684
0.337845
0.392088
0.460946
0.539213
0.614718
0.675492
0.720963
0.789434
0.901884
1.06755
1.29336
0.0144786
0.0306719
0.0400545
0.0469688
0.052668
0.0576252
0.0620735
0.0661471
0.0699331
0.073494
0.0768796
0.0801337
0.0832995
0.0864229
0.0895564
0.0927615
0.0961116
0.0996936
0.103608
0.107968
0.112897
0.118525
0.124981
0.132386
0.14084
0.150416
0.16114
0.172992
0.185926
0.199934
0.215209
0.23241
0.253003
0.279502
0.315276
0.363583
0.426022
0.501321
0.581197
0.654012
0.701986
0.750053
0.831276
0.955971
1.13234
0.0145887
0.0310256
0.0404449
0.0473601
0.0530495
0.0579941
0.0624298
0.0664923
0.070269
0.0738218
0.0771991
0.0804427
0.083593
0.0866923
0.0897882
0.0929363
0.0962022
0.0996632
0.103408
0.107538
0.112161
0.117389
0.123335
0.130102
0.137777
0.146421
0.156064
0.166703
0.178326
0.190967
0.204829
0.220486
0.239131
0.262788
0.294256
0.336528
0.391677
0.459675
0.537283
0.614431
0.678207
0.722258
0.775658
0.861922
0.990261
0.0146992
0.0313659
0.040811
0.047719
0.053393
0.0583213
0.0627428
0.0667947
0.0705645
0.0741138
0.0774899
0.080733
0.083881
0.0869727
0.0900514
0.0931667
0.0963768
0.0997497
0.103364
0.107306
0.111672
0.116559
0.122063
0.128275
0.135268
0.143099
0.151798
0.161377
0.171846
0.183263
0.195823
0.210008
0.226774
0.247723
0.275121
0.311585
0.359312
0.419103
0.48977
0.566637
0.639593
0.697467
0.736283
0.790337
0.877201
0.0148054
0.0316849
0.0411456
0.0480393
0.053693
0.0586019
0.0630078
0.0670489
0.0708131
0.0743619
0.0777417
0.0809915
0.0841469
0.0872439
0.0903214
0.0934238
0.0966024
0.0999167
0.103435
0.107232
0.111391
0.115996
0.12113
0.12687
0.133282
0.140416
0.148306
0.156971
0.166436
0.176768
0.188145
0.200962
0.21597
0.234419
0.258106
0.289229
0.329909
0.381459
0.443756
0.515037
0.589241
0.65514
0.703868
0.740963
0.794047
0.0149033
0.0319757
0.0414425
0.0483158
0.0539451
0.0588321
0.0632208
0.0672506
0.0710099
0.07456
0.0779468
0.0812081
0.0843779
0.0874894
0.0905781
0.0936836
0.0968508
0.100132
0.103585
0.107276
0.111275
0.115655
0.120487
0.125838
0.131766
0.138316
0.145522
0.15341
0.162012
0.171397
0.181717
0.193292
0.206704
0.222911
0.243312
0.269693
0.303962
0.34765
0.401341
0.464281
0.533717
0.602018
0.659909
0.703594
0.737807
0.0149895
0.0322328
0.0416969
0.0485444
0.054146
0.0590087
0.0633789
0.0673968
0.0711513
0.0747035
0.0780991
0.081375
0.0845636
0.0876963
0.0908052
0.0939258
0.0970977
0.100366
0.103781
0.1074
0.111282
0.115489
0.120082
0.12512
0.130653
0.136722
0.143362
0.150599
0.158471
0.167039
0.176434
0.186908
0.198908
0.213158
0.230725
0.253016
0.28165
0.318143
0.363462
0.417561
0.478958
0.543819
0.605232
0.656743
0.695769
0.0150616
0.0324522
0.0419053
0.0487226
0.0542934
0.05913
0.0634804
0.0674856
0.0712348
0.0747892
0.0781943
0.0814862
0.0846964
0.0878542
0.0909894
0.094134
0.0973228
0.100595
0.103995
0.107569
0.11137
0.11545
0.119861
0.124654
0.129873
0.135555
0.141732
0.148434
0.155695
0.163572
0.172173
0.181694
0.192474
0.205054
0.220233
0.239089
0.262927
0.293102
0.3307
0.376138
0.428735
0.486423
0.545524
0.60043
0.646033
0.0151181
0.0326316
0.0420661
0.0488491
0.0543868
0.0591954
0.0635246
0.067516
0.0712591
0.0748151
0.0782294
0.0815376
0.0847702
0.0879553
0.0911206
0.0942949
0.0975092
0.100798
0.104199
0.107753
0.111503
0.115495
0.119773
0.12438
0.129355
0.134732
0.14054
0.146807
0.153567
0.160869
0.168801
0.177514
0.187264
0.198449
0.211659
0.2277
0.247581
0.27242
0.303246
0.340694
0.384647
0.433945
0.48637
0.53888
0.587222
0.0151582
0.0327702
0.0421788
0.0489241
0.0544263
0.0592054
0.0635121
0.0674884
0.071224
0.0747805
0.0782028
0.0815264
0.0847812
0.0879941
0.0911909
0.0943981
0.0976437
0.100958
0.104373
0.107924
0.111649
0.115585
0.119771
0.124242
0.129034
0.134176
0.139695
0.145618
0.151974
0.158806
0.166186
0.174228
0.183124
0.193167
0.204786
0.218571
0.235278
0.255776
0.280942
0.311443
0.347471
0.38848
0.43309
0.479227
0.524483
0.0151817
0.0328681
0.0422442
0.0489486
0.0544135
0.0591614
0.063444
0.0674037
0.0711303
0.0746854
0.0781141
0.0814515
0.0847269
0.0879665
0.0911947
0.0944361
0.0977158
0.101061
0.104499
0.108062
0.11178
0.115686
0.119813
0.124191
0.12885
0.133817
0.139116
0.144771
0.150809
0.157266
0.164198
0.171696
0.179899
0.189024
0.19938
0.211394
0.225617
0.242703
0.263342
0.288134
0.317397
0.350962
0.388049
0.427308
0.46706
0.015189
0.0329264
0.0422637
0.0489244
0.0543501
0.0590654
0.0633224
0.0672638
0.0709795
0.0745312
0.0779639
0.0813126
0.0846063
0.0878705
0.0911285
0.0944034
0.0977183
0.101097
0.104565
0.108148
0.111874
0.115771
0.119865
0.124184
0.128752
0.133594
0.138731
0.144184
0.149977
0.156141
0.16272
0.169784
0.177438
0.185838
0.195209
0.205858
0.218181
0.232657
0.249811
0.270133
0.293964
0.321346
0.351909
0.384852
0.419074
0.0151807
0.0329465
0.0422392
0.0488537
0.0542386
0.0589198
0.0631498
0.0670711
0.0707738
0.0743196
0.0777536
0.0811107
0.0844196
0.0877053
0.0909906
0.094297
0.0976461
0.10106
0.10456
0.108171
0.111915
0.115816
0.119899
0.124185
0.128697
0.133455
0.138478
0.143785
0.149396
0.155338
0.161646
0.168374
0.1756
0.18344
0.192057
0.201671
0.212568
0.225095
0.239641
0.256594
0.276267
0.298802
0.324083
0.351696
0.380966
0.0151577
0.0329304
0.0421731
0.0487392
0.0540819
0.0587277
0.062929
0.0668284
0.070516
0.0740533
0.0774856
0.0808477
0.0841682
0.0874719
0.0907807
0.0941156
0.0974966
0.100944
0.104478
0.108119
0.111888
0.115805
0.119892
0.124167
0.128649
0.133357
0.138306
0.143513
0.148996
0.154777
0.160884
0.16736
0.174264
0.181681
0.189732
0.198576
0.20842
0.219517
0.232158
0.246642
0.263239
0.282128
0.303338
0.326698
0.351841
0.0151213
0.03288
0.0420679
0.0485835
0.0538829
0.0584921
0.0626634
0.0665391
0.0702093
0.0737354
0.0771627
0.0805263
0.0838545
0.0871719
0.0905002
0.0938595
0.0972692
0.100748
0.104315
0.107988
)
;

boundaryField
{
    leftWall
    {
        type            kqRWallFunction;
        value           nonuniform List<scalar> 
44
(
0.00195759
0.00362765
0.00483474
0.0057826
0.00656603
0.00724682
0.00787501
0.00849447
0.00912678
0.00975844
0.0104178
0.0111958
0.0121892
0.0135948
0.0135108
0.0130016
0.0128573
0.013007
0.013264
0.0135056
0.0136937
0.013826
0.0139144
0.0139751
0.0140232
0.014071
0.0141268
0.0141954
0.0142782
0.0143736
0.0144786
0.0145887
0.0146992
0.0148054
0.0149033
0.0149895
0.0150616
0.0151181
0.0151582
0.0151817
0.015189
0.0151807
0.0151577
0.0151213
)
;
    }
    rightWall
    {
        type            kqRWallFunction;
        value           nonuniform 0();
    }
    lowerWall
    {
        type            kqRWallFunction;
        value           nonuniform List<scalar> 
44
(
0.00195759
0.00359869
0.00512832
0.00649361
0.0076989
0.00876047
0.00971015
0.0105796
0.0113931
0.0121671
0.0129103
0.0136269
0.0143171
0.01498
0.0156139
0.0162177
0.0167911
0.017335
0.0178518
0.0183455
0.0188214
0.0192863
0.0197483
0.0202169
0.020703
0.0212204
0.02179
0.0224188
0.023082
0.0237721
0.0244847
0.0252084
0.0259218
0.0265948
0.0271903
0.0276865
0.0280463
0.0280608
0.0275822
0.0265296
0.0248247
0.0223648
0.019069
0.0148448
)
;
    }
    atmosphere
    {
        type            inletOutlet;
        inletValue      nonuniform 0();
        value           nonuniform 0();
    }
    defaultFaces
    {
        type            empty;
    }
    procBoundary0to1
    {
        type            processor;
        value           nonuniform List<scalar> 
44
(
0.00949411
0.022808
0.0330992
0.044212
0.0576566
0.0750524
0.0985627
0.131274
0.178369
0.247565
0.338545
0.444977
0.583409
0.774226
1.02569
1.10866
1.15247
1.20994
1.28288
1.37184
1.37184
1.30476
1.39548
1.51864
1.67033
1.83151
1.94496
1.945
1.87526
1.77399
1.58095
1.3652
1.16635
1.00267
0.877253
0.786897
0.726661
0.682038
0.628051
0.566348
0.505769
0.453448
0.411093
0.378241
)
;
    }
    procBoundary0to2
    {
        type            processor;
        value           nonuniform List<scalar> 
46
(
0.111785
0.115726
0.119828
0.124107
0.128581
0.133265
0.138172
0.143318
0.148717
0.154389
0.160356
0.166652
0.173322
0.180431
0.188068
0.196351
0.205433
0.215501
0.226773
0.239484
0.253862
0.270091
0.288272
0.308385
0.330266
0.0150745
0.0327976
0.0419261
0.0483898
0.0536447
0.0582165
0.0623565
0.0662068
0.0698572
0.0733694
0.0767885
0.0801498
0.0834816
0.0868083
0.0901515
0.0935308
0.096965
0.100472
0.104069
0.111785
0.107773
)
;
    }
}


// ************************************************************************* //
