/*--------------------------------*- C++ -*----------------------------------*\
| =========                 |                                                 |
| \\      /  F ield         | OpenFOAM: The Open Source CFD Toolbox           |
|  \\    /   O peration     | Version:  5.0                                   |
|   \\  /    A nd           | Web:      www.OpenFOAM.org                      |
|    \\/     M anipulation  |                                                 |
\*---------------------------------------------------------------------------*/
FoamFile
{
    version     2.0;
    format      ascii;
    class       volScalarField;
    location    "0.9";
    object      nut;
}
// * * * * * * * * * * * * * * * * * * * * * * * * * * * * * * * * * * * * * //

dimensions      [0 2 -1 0 0 0 0];

internalField   nonuniform List<scalar> 
1935
(
2.7004e-05
3.22318e-05
3.85143e-05
4.336e-05
4.72287e-05
5.03945e-05
5.30707e-05
5.54105e-05
5.75159e-05
5.94497e-05
6.12486e-05
6.2932e-05
6.45101e-05
6.59881e-05
6.73701e-05
6.86604e-05
6.98651e-05
7.0992e-05
7.20514e-05
7.30557e-05
7.40193e-05
7.49585e-05
7.58911e-05
7.68364e-05
7.78159e-05
7.88568e-05
8.00028e-05
8.12244e-05
8.2479e-05
8.37622e-05
8.50658e-05
8.63682e-05
8.76329e-05
8.88126e-05
8.98525e-05
9.07369e-05
9.13775e-05
9.14032e-05
9.06235e-05
8.88844e-05
8.59677e-05
8.1556e-05
7.52349e-05
6.62673e-05
4.28918e-05
0.000169844
0.000245454
0.000307362
0.000357158
0.000396528
0.000428152
0.000454542
0.00047756
0.000498422
0.000517863
0.000536294
0.000553935
0.000570904
0.000587273
0.000603111
0.000618498
0.000633543
0.000648383
0.00066319
0.000678159
0.000693507
0.000709457
0.000726232
0.000744062
0.00076319
0.000783141
0.000801908
0.000820529
0.000839362
0.000858433
0.000877614
0.000896657
0.000915137
0.000932366
0.000947329
0.000958139
0.000962477
0.000957195
0.000938002
0.000899626
0.000835757
0.000737854
0.000592745
4.96748e-05
0.000298785
0.00046231
0.00058889
0.000691633
0.000775661
0.0008456
0.000905525
0.000958588
0.00100699
0.00105215
0.00109492
0.00113576
0.00117498
0.00121275
0.00124926
0.00128474
0.00131947
0.0013538
0.00138812
0.00142287
0.00145849
0.00149538
0.00153386
0.00157411
0.00161613
0.00165797
0.00169889
0.00173885
0.00177768
0.00181501
0.0018503
0.00188279
0.00191138
0.00193444
0.00194954
0.00195293
0.00193946
0.00190243
0.00183332
0.00172195
0.00155644
0.00132267
0.00100287
5.44855e-05
0.000403532
0.000653099
0.000839323
0.00099075
0.00111708
0.00122457
0.00131822
0.00140195
0.00147858
0.00155001
0.00161745
0.00168161
0.00174297
0.00180187
0.00185863
0.00191364
0.00196736
0.0020203
0.00207305
0.00212619
0.00218023
0.00223555
0.00229234
0.00235043
0.00240908
0.00246611
0.00252055
0.00257147
0.00261799
0.00265922
0.00269427
0.00272213
0.0027415
0.00275044
0.002746
0.0027237
0.00267731
0.00259866
0.00247747
0.00230137
0.00205591
0.0017243
0.00128618
5.82384e-05
0.000489168
0.000818852
0.00106065
0.00125715
0.00142301
0.0015661
0.00169217
0.00180561
0.00190965
0.00200653
0.00209772
0.00218417
0.00226651
0.00234526
0.0024209
0.00249396
0.00256505
0.00263481
0.00270391
0.00277294
0.00284234
0.00291227
0.00298252
0.00305245
0.00312005
0.00318328
0.00324038
0.00328973
0.00332997
0.0033601
0.00337948
0.00338769
0.00338415
0.00336766
0.00333578
0.00328431
0.00320697
0.00309513
0.0029376
0.00272049
0.00242704
0.00203674
0.00152305
6.13855e-05
0.000561811
0.000964165
0.00125765
0.00149614
0.00169895
0.00187558
0.00203242
0.00217419
0.00230442
0.00242556
0.00253928
0.00264672
0.00274869
0.00284586
0.00293888
0.00302841
0.00311516
0.00319984
0.00328312
0.00336547
0.00344708
0.00352768
0.00360643
0.0036819
0.00375108
0.00381151
0.00386076
0.00389681
0.00391838
0.00392511
0.00391759
0.00389702
0.00386457
0.00382057
0.00376359
0.00368983
0.00359276
0.00346297
0.00328801
0.00305218
0.00273592
0.00231398
0.00175085
6.42039e-05
0.000625579
0.00109295
0.0014341
0.00171168
0.00194905
0.00215718
0.00234302
0.00251162
0.00266665
0.00281072
0.00294567
0.00307278
0.00319302
0.00330724
0.0034162
0.0035207
0.00362151
0.00371937
0.0038148
0.00390806
0.0039989
0.00408642
0.00416894
0.00424397
0.00430763
0.00435679
0.00438859
0.00440114
0.00439399
0.00436849
0.00432753
0.00427496
0.00421441
0.00414796
0.00407488
0.00399098
0.00388846
0.00375619
0.00357981
0.00334155
0.00301931
0.00258333
0.00198767
6.68809e-05
0.000682305
0.00120754
0.00159235
0.00190627
0.00217591
0.00241354
0.00262666
0.00282052
0.00299893
0.00316461
0.00331947
0.00346496
0.0036022
0.00373217
0.00385579
0.00397392
0.00408739
0.00419686
0.00430267
0.00440468
0.00450204
0.00459301
0.0046749
0.00474385
0.00479527
0.00482537
0.00483126
0.00481187
0.00476866
0.00470578
0.00462953
0.00454712
0.00446479
0.00438586
0.00430925
0.00422897
0.0041346
0.00401234
0.00384549
0.00361456
0.00329642
0.00285871
0.00224413
6.94955e-05
0.000731924
0.00130858
0.00173337
0.00208106
0.00238081
0.00264604
0.00288474
0.00310237
0.00330279
0.00348876
0.0036623
0.00382496
0.00397804
0.00412265
0.00425979
0.00439043
0.00451538
0.00463517
0.00474985
0.00485874
0.00496021
0.00505149
0.00512865
0.00518628
0.00521924
0.0052233
0.00519615
0.00513852
0.00505492
0.00495347
0.00484471
0.00473938
0.00464577
0.00456723
0.00450071
0.00443679
0.00436124
0.00425692
0.00410486
0.0038849
0.00357565
0.00314664
0.00253638
7.19704e-05
0.000772703
0.00139508
0.00185672
0.00223589
0.00256379
0.00285487
0.00311765
0.00335771
0.00357889
0.00378393
0.00397499
0.00415377
0.00432171
0.00448001
0.00462977
0.00477201
0.00490753
0.00503666
0.00515901
0.00527324
0.00537674
0.00546549
0.00553409
0.00557576
0.00558471
0.00555682
0.00549119
0.00539153
0.00526664
0.00512959
0.00499549
0.0048781
0.00478645
0.00472214
0.00467831
0.00464071
0.00459033
0.00450662
0.00436882
0.00415768
0.00385773
0.00345509
0.00289829
7.42771e-05
0.000801799
0.00146536
0.00196162
0.00237058
0.00272513
0.00304086
0.00332675
0.00358836
0.00382936
0.00405256
0.00426032
0.00445452
0.0046367
0.0048081
0.0049699
0.0051232
0.00526875
0.00540662
0.00553587
0.00565431
0.00575817
0.00584193
0.00589854
0.00591998
0.00590001
0.0058353
0.00572751
0.00558463
0.00542098
0.00525524
0.00510675
0.00499103
0.00491586
0.00487906
0.00486831
0.00486327
0.00483961
0.0047737
0.00464389
0.00443424
0.00414069
0.00378386
0.00335498
7.66507e-05
0.000817296
0.00151772
0.00204646
0.00248358
0.00286338
0.00320275
0.00351106
0.00379348
0.00405346
0.00429411
0.00451804
0.00472731
0.00492345
0.00510765
0.0052812
0.00544534
0.00560078
0.0057472
0.00588299
0.00600495
0.00610794
0.00618475
0.0062264
0.00622393
0.00617099
0.00606602
0.00591453
0.00573025
0.00553404
0.00535025
0.00520139
0.00510268
0.00505845
0.0050608
0.00509059
0.0051203
0.00511971
0.00506333
0.00492983
0.0047099
0.00441908
0.00411029
0.00380065
7.94339e-05
0.000818085
0.00155117
0.00210989
0.00257315
0.00297659
0.00333866
0.00366878
0.00397101
0.00424896
0.00450637
0.00474612
0.00497032
0.00518033
0.00537716
0.00556229
0.00573726
0.00590271
0.00605784
0.00620022
0.00632547
0.00642689
0.00649539
0.00652002
0.00649103
0.00640262
0.00625609
0.00606229
0.00584196
0.00562307
0.00543499
0.00530147
0.005235
0.00523441
0.00528497
0.00535964
0.00542175
0.00543531
0.00537542
0.00522037
0.00497564
0.00469091
0.00443835
0.00423954
8.35619e-05
0.000805078
0.00156655
0.0021513
0.00263742
0.00306247
0.00344659
0.00379831
0.00411923
0.00441443
0.00468831
0.00494384
0.00518316
0.00540723
0.0056166
0.00581325
0.00599928
0.00617522
0.00633962
0.0064891
0.00661797
0.00671776
0.00677735
0.00678396
0.00672715
0.00660244
0.00641523
0.00618311
0.00593494
0.00570578
0.00552858
0.00542589
0.00540512
0.00545852
0.00556477
0.00568741
0.00577474
0.00578748
0.00570338
0.00549847
0.00522237
0.00496069
0.00479195
0.00472584
8.50614e-05
0.000774522
0.00154036
0.00214304
0.0026515
0.00310014
0.00350906
0.00388616
0.00423183
0.00454758
0.00483874
0.00511059
0.00536576
0.0056045
0.00582638
0.00603446
0.00623191
0.00641912
0.00659374
0.0067513
0.00688474
0.00698365
0.00703478
0.00702358
0.00693917
0.00677915
0.00655422
0.00628997
0.00602408
0.0057981
0.00564666
0.00558851
0.00562413
0.00573981
0.00591058
0.0060877
0.00618133
0.00615629
0.00600025
0.00573038
0.00543934
0.00523348
0.00519098
0.00529828
8.26431e-05
0.000702707
0.00148183
0.00210133
0.00262766
0.00309597
0.00352535
0.00392372
0.00429299
0.00463187
0.00494406
0.00523635
0.00551107
0.00576788
0.00600582
0.00622646
0.0064359
0.00663546
0.00682158
0.00698867
0.00712827
0.0072279
0.00727219
0.00724488
0.00713479
0.00694232
0.0066844
0.00639564
0.00612278
0.00591298
0.00580044
0.00579788
0.00589758
0.00608243
0.00633337
0.00658539
0.00660459
0.00648557
0.00621944
0.00589806
0.00562306
0.0055105
0.00563294
0.00584298
8.13709e-05
0.00065995
0.00142114
0.00205102
0.00258998
0.00307163
0.00351378
0.00392395
0.00430549
0.0046609
0.00499359
0.00530715
0.00560211
0.00587741
0.00613438
0.00637377
0.00660048
0.00681702
0.00701856
0.00719903
0.00734899
0.00745335
0.00749416
0.00745425
0.00732227
0.0071019
0.00681711
0.00651205
0.00624244
0.00606
0.0059971
0.00605884
0.00622768
0.00648493
0.00681054
0.00701458
0.00702521
0.00672473
0.0063636
0.00600878
0.00578164
0.00578269
0.00594408
0.00606999
8.13033e-05
0.000649805
0.00137865
0.00200591
0.00255047
0.00303971
0.0034897
0.00390786
0.00429798
0.00466388
0.00500974
0.00533757
0.00564653
0.00593537
0.00620625
0.00646391
0.00671217
0.00695007
0.0071722
0.00737173
0.00753803
0.00765504
0.00770069
0.00765577
0.00750898
0.00726766
0.00696309
0.00664838
0.00638668
0.00623244
0.00621398
0.00632405
0.00652297
0.00676846
0.00701816
0.00725012
0.00726127
0.00685776
0.00642998
0.00607066
0.00591716
0.00595477
0.0060557
0.00615958
8.18742e-05
0.000650612
0.00135247
0.00197245
0.00251838
0.00301168
0.00346646
0.00389002
0.00428622
0.00465881
0.00501174
0.00534731
0.00566518
0.00596461
0.00624813
0.00652148
0.00678766
0.00704488
0.00728745
0.00750744
0.00769284
0.00782621
0.00788418
0.00784442
0.00769623
0.00745011
0.00714283
0.00683304
0.00658627
0.00645356
0.00645405
0.00656575
0.00673081
0.00689019
0.00706794
0.00730588
0.00723671
0.00685497
0.00641476
0.00608259
0.00599493
0.00602737
0.00612373
0.0062412
8.25507e-05
0.000652081
0.00133769
0.0019515
0.00249742
0.00299303
0.00345086
0.00387807
0.00427861
0.00465584
0.00501329
0.00535349
0.0056771
0.00598441
0.00627807
0.00656313
0.00684273
0.0071154
0.00737583
0.00761511
0.00781998
0.00797151
0.00804506
0.00801765
0.00787916
0.00764277
0.00734809
0.00705444
0.00682385
0.0066994
0.00668887
0.0067628
0.00686801
0.00696929
0.00710859
0.00726605
0.00711499
0.00675107
0.00633284
0.0060341
0.00596881
0.00606232
0.00619043
0.00634843
8.3119e-05
0.000652857
0.00133081
0.00194185
0.00248846
0.0029861
0.00344634
0.00387629
0.00428007
0.00466081
0.0050216
0.00536506
0.00569268
0.00600577
0.0063071
0.00660098
0.0068904
0.00717452
0.00744851
0.00770362
0.00792603
0.0080952
0.0081857
0.0081749
0.00805419
0.00783795
0.00756537
0.00729191
0.00707199
0.0069399
0.00689841
0.00692089
0.00696988
0.00703322
0.00714525
0.00723463
0.00704705
0.00666995
0.00625892
0.00597553
0.00591356
0.00606153
0.00625452
0.00647973
0.00664704
8.35331e-05
0.000654075
0.00133
0.00194181
0.00249089
0.00299141
0.00345435
0.00388685
0.00429332
0.0046769
0.00504043
0.00538653
0.00571726
0.00603463
0.00634153
0.00664177
0.00693812
0.00723025
0.00751397
0.00778075
0.00801655
0.00820086
0.00830839
0.00831621
0.00821715
0.00802551
0.00777771
0.007523
0.00730758
0.00715921
0.00708001
0.00705168
0.00705379
0.00708918
0.00717822
0.00723704
0.00703831
0.00665273
0.00624565
0.00596943
0.00591159
0.00606476
0.00631696
0.00660741
0.00683253
8.38125e-05
0.000656558
0.00133416
0.00194975
0.00250344
0.00300831
0.0034749
0.00391041
0.00431956
0.00470569
0.00507162
0.00542001
0.00575325
0.00607381
0.00638467
0.00668928
0.00699021
0.00728748
0.00757743
0.00785181
0.00809671
0.0082922
0.00841455
0.00844239
0.0083659
0.00819952
0.00797552
0.0077365
0.00752154
0.00735422
0.00723863
0.00716585
0.00712912
0.00713847
0.00720566
0.00725336
0.00707768
0.00670364
0.00630081
0.00601704
0.0059459
0.00609098
0.00638391
0.00671272
0.00701011
8.40017e-05
0.000660624
0.00134254
0.00196431
0.00252466
0.00303558
0.00350717
0.00394661
0.0043589
0.00474766
0.00511587
0.0054663
0.00580159
0.00612447
0.006438
0.00674537
0.00704898
0.00734902
0.00764222
0.00792067
0.00817089
0.00837385
0.00850757
0.00855284
0.00850069
0.00835824
0.00815582
0.00792972
0.00771354
0.00752849
0.00738153
0.00727161
0.0072009
0.0071823
0.00722524
0.00726949
0.00714665
0.00681221
0.006418
0.00611422
0.00601047
0.00613128
0.00643121
0.00679205
0.00715974
8.41464e-05
0.000666285
0.00135459
0.00198443
0.00255322
0.00307186
0.0035499
0.00399445
0.00441067
0.00480247
0.00517307
0.00552542
0.00586239
0.0061869
0.00650203
0.00681083
0.00711555
0.00741645
0.00771051
0.0079902
0.00824268
0.00845008
0.00859214
0.00865146
0.00861978
0.0085027
0.00832016
0.00810518
0.00788771
0.00768795
0.00751539
0.00737449
0.0072724
0.00722342
0.00723953
0.00728202
0.00722267
0.00695855
0.00658634
0.00625808
0.00610361
0.0061774
0.00645294
0.00683952
0.00724653
8.42841e-05
0.000673413
0.00136985
0.00200931
0.00258803
0.00311585
0.00360172
0.00405258
0.00447368
0.00486916
0.00524249
0.00559683
0.00593525
0.00626084
0.00657673
0.00688588
0.00719042
0.00749062
0.00778368
0.00806251
0.00831502
0.00852462
0.00867267
0.00874321
0.00872831
0.00863196
0.00847028
0.00826785
0.00804958
0.00783861
0.00764563
0.00747846
0.00734692
0.00726678
0.00725478
0.00729243
0.0072885
0.00712088
0.00679355
0.00644816
0.00623119
0.00623354
0.00645397
0.00682972
0.0072399
8.44417e-05
0.000681831
0.00138789
0.00203826
0.00262814
0.00316634
0.00366125
0.00411954
0.00454649
0.0049464
0.00532296
0.00567952
0.00601936
0.00634569
0.00666172
0.00697035
0.00727365
0.00757194
0.00786262
0.0081391
0.00839016
0.00860046
0.00875289
0.00883262
0.00883176
0.0087526
0.00860787
0.00841756
0.00820345
0.00798531
0.00777616
0.00758623
0.00742706
0.00731637
0.00727572
0.0073029
0.00733691
0.00726878
0.00702214
0.00668242
0.00640395
0.00631372
0.00645123
0.00677366
0.00717894
8.4635e-05
0.000691352
0.00140836
0.00207072
0.00267272
0.00322227
0.00372718
0.00419386
0.00462755
0.00503265
0.005413
0.00577215
0.00611353
0.00644048
0.00675626
0.00706376
0.00736505
0.00766051
0.00794781
0.00822094
0.0084696
0.00867975
0.00883563
0.00892332
0.00893475
0.0088706
0.0087406
0.00856117
0.00835119
0.00812832
0.00790627
0.00769661
0.00751259
0.00737438
0.00730783
0.00731888
0.00737272
0.00738439
0.00724914
0.00695385
0.00663461
0.00644361
0.00647013
0.00670791
0.00708637
8.48696e-05
0.000701787
0.00143087
0.00210613
0.00272101
0.00328263
0.00379828
0.00427411
0.00471529
0.00512625
0.00551098
0.00587316
0.00621633
0.00654396
0.00685932
0.00716535
0.00746412
0.00775612
0.00803938
0.00830851
0.00855422
0.00876376
0.00892264
0.00901769
0.00904057
0.00899035
0.00887412
0.00870519
0.00849982
0.00827399
0.00804134
0.00781408
0.00760661
0.00744095
0.00734682
0.00734153
0.00739853
0.00746503
0.00744175
0.00724091
0.00692515
0.00664941
0.0065477
0.00666623
0.00697602
8.51423e-05
0.000712948
0.00145504
0.00214394
0.00277227
0.00334648
0.00387339
0.00435893
0.00480816
0.00522557
0.0056152
0.00598085
0.00632616
0.00665464
0.00696964
0.00727407
0.00757005
0.00785826
0.00813707
0.00840182
0.00864427
0.00885295
0.00901463
0.00911684
0.00915092
0.00911442
0.00901196
0.00885399
0.00865434
0.00842733
0.00818615
0.00794332
0.00771401
0.0075214
0.00739773
0.00736872
0.0074248
0.00751789
0.00758053
0.007511
0.00725872
0.00694475
0.00672748
0.00670446
0.0068927
8.54441e-05
0.000724643
0.00148049
0.00218356
0.00282575
0.00341287
0.00395138
0.00444698
0.00490469
0.00532898
0.00572395
0.00609349
0.00644129
0.00677091
0.0070857
0.0073886
0.00768178
0.00796608
0.00824029
0.00850047
0.00873947
0.00894714
0.00911148
0.00922075
0.00926604
0.00924355
0.00915554
0.00900977
0.00881761
0.00859172
0.00834455
0.00808864
0.0078396
0.00762095
0.00746584
0.00740562
0.00744551
0.00754838
0.00766483
0.0077154
0.00758599
0.00730918
0.0070238
0.00686192
0.00689692
8.57624e-05
0.000736669
0.00150678
0.0022244
0.00288066
0.00348086
0.00403113
0.00453701
0.00500345
0.00543492
0.00583559
0.00620937
0.00656
0.00689106
0.0072059
0.00750747
0.00779799
0.00807846
0.0083481
0.00860368
0.00883912
0.0090456
0.00921238
0.00932853
0.00938506
0.00937697
0.00930444
0.00917263
0.00899043
0.00876868
0.00851886
0.00825327
0.00798749
0.00774462
0.00755739
0.00746024
0.00746992
0.00756831
0.00770625
0.0078329
0.00785487
0.00769348
0.00741377
0.00715625
0.00703576
8.6083e-05
0.000748814
0.00153348
0.00226582
0.00293623
0.00354952
0.00411158
0.0046278
0.00510309
0.00554193
0.00594851
0.00632679
0.00668054
0.00701335
0.00732854
0.00762905
0.00791715
0.00819403
0.00845927
0.00871033
0.00894218
0.00914726
0.00931613
0.00943876
0.00950631
0.0095129
0.00945686
0.00934094
0.00917161
0.00895773
0.00870952
0.0084387
0.00816036
0.00789655
0.00767845
0.00754154
0.00751078
0.00758406
0.00772722
0.00789222
0.0080195
0.00801931
0.0078322
0.00756166
0.00733124
8.63922e-05
0.000760858
0.00156013
0.0023072
0.00299167
0.00361795
0.00419168
0.00471818
0.00520232
0.00564859
0.00606122
0.00644419
0.00680128
0.00713607
0.00745188
0.00775164
0.00803765
0.00831123
0.00857233
0.00881906
0.00904731
0.00925076
0.00942124
0.00954974
0.00962776
0.00964892
0.00961007
0.00951186
0.0093584
0.00915649
0.00891488
0.00864427
0.00835885
0.00807903
0.00783367
0.00765748
0.00758052
0.00761361
0.00773987
0.007917
0.00809667
0.00821247
0.00818726
0.00800324
0.00775292
8.66777e-05
0.000772592
0.00158631
0.00234791
0.00304622
0.00368525
0.00427046
0.00480707
0.00529994
0.00575361
0.00617231
0.00656004
0.00692062
0.00725759
0.00757427
0.00787356
0.00815778
0.0084284
0.00868568
0.00892828
0.00915297
0.00935455
0.0095261
0.00965964
0.00974729
0.00978247
0.009761
0.0096818
0.00954688
0.00936103
0.00913127
0.008867
0.00858102
0.00829171
0.00802499
0.00781334
0.00768891
0.00767169
0.00775943
0.00792509
0.00812179
0.00830181
0.00840605
0.00838093
0.00821372
8.69296e-05
0.000783826
0.00161162
0.0023874
0.00309919
0.00375062
0.00434698
0.00489344
0.00539486
0.00585579
0.00628048
0.00667299
0.0070371
0.00737637
0.00769409
0.00799313
0.00827585
0.00854384
0.0087976
0.00903631
0.00925751
0.00945699
0.009629
0.00976665
0.00986281
0.00991103
0.00990654
0.00984697
0.00973261
0.00956633
0.00935343
0.00910172
0.0088223
0.00853119
0.008251
0.00801088
0.00784241
0.0077709
0.00780552
0.00793377
0.0081221
0.00832598
0.00850348
0.00860811
0.00859743
8.71407e-05
0.000794405
0.00163571
0.00242514
0.00314993
0.00381332
0.00442043
0.0049764
0.00548608
0.00595404
0.00638459
0.00678177
0.00714938
0.00749099
0.00780984
0.00810881
0.00839026
0.00865587
0.0089064
0.00914144
0.00935919
0.00955636
0.00972823
0.00986901
0.00997238
0.0100323
0.0100438
0.0100038
0.00991103
0.00976694
0.0095751
0.00934164
0.0090758
0.00879107
0.00850658
0.00824751
0.0080429
0.00791983
0.00789518
0.00796892
0.00812215
0.00832089
0.00852602
0.00870393
0.00881729
8.73063e-05
0.000804212
0.0016583
0.00246072
0.0031979
0.00387269
0.00449007
0.00505512
0.0055727
0.00604741
0.00648358
0.00688527
0.00725629
0.00760018
0.00792018
0.00821915
0.00849948
0.00876292
0.00901043
0.00924197
0.00945631
0.00965094
0.00982211
0.009965
0.0100742
0.0101443
0.0101704
0.0101489
0.0100779
0.00995747
0.00978968
0.00957909
0.00933303
0.0090625
0.00878322
0.00851618
0.00828672
0.00812087
0.00803943
0.0080515
0.0081508
0.00831657
0.00851855
0.00872261
0.00890281
8.74241e-05
0.000813164
0.00167917
0.00249381
0.00324265
0.00392821
0.0045553
0.00512893
0.00565399
0.00613509
0.00657658
0.00698253
0.00735677
0.00770282
0.00802391
0.00832289
0.00860215
0.00886353
0.00910817
0.00933632
0.00954725
0.00973912
0.00990901
0.010053
0.0101667
0.0102452
0.0102841
0.0102798
0.0102297
0.0101331
0.00999092
0.0098063
0.00958482
0.00933515
0.00906986
0.00880596
0.00856456
0.00836896
0.00824059
0.0081939
0.00823213
0.00834591
0.00851545
0.00871486
0.00891666
8.74936e-05
0.000821212
0.00169818
0.00252414
0.00328385
0.00397946
0.0046156
0.00519727
0.00572932
0.00621639
0.00666283
0.00707275
0.00744996
0.00779798
0.00812001
0.00841891
0.00869709
0.00895645
0.00919826
0.00942306
0.00963052
0.00981939
0.00998746
0.0101317
0.0102484
0.0103336
0.0103833
0.0103941
0.0103634
0.0102897
0.0101733
0.0100162
0.00982231
0.00959839
0.00935425
0.00910332
0.00886268
0.00865203
0.00849126
0.00839684
0.00837798
0.00843416
0.00855513
0.00872328
0.00891758
8.75155e-05
0.000828329
0.00171523
0.00255154
0.00332124
0.00402611
0.00467063
0.00525971
0.00579822
0.00629078
0.00674177
0.0071553
0.00753516
0.00788489
0.00820766
0.00850633
0.00878332
0.0090406
0.00927956
0.00950098
0.00970485
0.00989044
0.0100562
0.0101997
0.0103182
0.0104083
0.0104668
0.0104904
0.0104768
0.0104243
0.0103326
0.0102028
0.0100377
0.00984241
0.00962436
0.00939405
0.00916494
0.00895311
0.0087758
0.00864911
0.00858508
0.00858906
0.00865853
0.0087837
0.00895005
8.74917e-05
0.000834501
0.00173026
0.00257591
0.00335467
0.00406796
0.0047201
0.00531595
0.00586033
0.00635787
0.00681296
0.00722968
0.00761185
0.00796297
0.00828623
0.00858445
0.00886009
0.00911516
0.00935117
0.00956908
0.00976921
0.00995121
0.010114
0.0102561
0.0103751
0.0104685
0.0105335
0.0105677
0.0105687
0.0105349
0.0104658
0.0103618
0.010225
0.0100591
0.0098697
0.00966493
0.00945527
0.00925349
0.00907393
0.008931
0.00883724
0.00880114
0.00882547
0.00890693
0.00903709
8.74245e-05
0.00083972
0.00174326
0.0025972
0.00338406
0.00410491
0.00476389
0.0053658
0.00591544
0.00641742
0.00687611
0.0072956
0.00767968
0.00803185
0.00835527
0.00865279
0.00892685
0.00917953
0.00941243
0.00962667
0.00982283
0.0100009
0.0101604
0.0103
0.0104184
0.0105135
0.0105832
0.0106254
0.0106383
0.0106204
0.010571
0.0104905
0.0103801
0.0102425
0.0100822
0.00990524
0.00971976
0.00953581
0.00936497
0.0092195
0.0091111
0.00904924
0.00903975
0.00908383
0.00917817
8.73173e-05
0.000843981
0.00175422
0.00261542
0.00340942
0.00413692
0.00480195
0.0054092
0.00596346
0.0064693
0.00693109
0.00735288
0.00773847
0.00809131
0.00841458
0.00871108
0.00898331
0.00923337
0.00946295
0.00967332
)
;

boundaryField
{
    leftWall
    {
        type            nutkWallFunction;
        Cmu             0.09;
        kappa           0.41;
        E               9.8;
        value           nonuniform List<scalar> 
44
(
3.76001e-06
5.19152e-06
6.00273e-06
6.56282e-06
6.98805e-06
7.33509e-06
7.63952e-06
7.92672e-06
8.20808e-06
8.47851e-06
8.7506e-06
9.05956e-06
9.44215e-06
9.96606e-06
2.12024e-06
1.86372e-06
1.78999e-06
1.86646e-06
1.99661e-06
2.11768e-06
2.21102e-06
2.27628e-06
2.31967e-06
2.34936e-06
2.37287e-06
2.39614e-06
2.42329e-06
2.45656e-06
2.49656e-06
2.54255e-06
2.59292e-06
2.64552e-06
2.69808e-06
2.74839e-06
2.79457e-06
2.83511e-06
2.86892e-06
2.89534e-06
2.91406e-06
2.92502e-06
2.9284e-06
2.92452e-06
2.91381e-06
2.89684e-06
)
;
    }
    rightWall
    {
        type            nutkWallFunction;
        Cmu             0.09;
        kappa           0.41;
        E               9.8;
        value           nonuniform 0();
    }
    lowerWall
    {
        type            nutkWallFunction;
        Cmu             0.09;
        kappa           0.41;
        E               9.8;
        value           nonuniform List<scalar> 
44
(
2.75782e-06
3.86179e-06
4.65323e-06
5.2533e-06
5.7265e-06
6.10996e-06
6.43152e-06
6.71082e-06
6.9608e-06
7.18949e-06
7.40162e-06
7.59975e-06
7.7852e-06
7.95866e-06
8.12058e-06
8.27143e-06
8.41181e-06
8.54253e-06
8.66465e-06
8.77947e-06
8.88853e-06
8.99361e-06
9.09665e-06
9.19979e-06
9.30539e-06
9.41628e-06
9.53664e-06
9.6675e-06
9.8033e-06
9.94235e-06
1.00836e-05
1.02247e-05
1.03616e-05
1.04889e-05
1.06002e-05
1.06919e-05
1.07574e-05
1.07601e-05
1.06725e-05
1.04767e-05
1.01503e-05
9.65644e-06
8.94472e-06
7.92364e-06
)
;
    }
    atmosphere
    {
        type            calculated;
        value           nonuniform 0();
    }
    defaultFaces
    {
        type            empty;
    }
    procBoundary0to1
    {
        type            processor;
        value           nonuniform List<scalar> 
44
(
5.27228e-05
0.000375665
0.000574892
0.000718546
0.000852468
0.000995825
0.00115838
0.00134364
0.00157555
0.00193193
0.00273908
0.0034448
0.00404954
0.00468564
0.00543074
0.00587533
0.00609034
0.00622466
0.00633876
0.00647634
0.00647634
0.00618554
0.00638265
0.00660811
0.00685735
0.00711576
0.00733456
0.00744751
0.00745385
0.00738742
0.00724837
0.0071305
0.00710676
0.00723922
0.00754576
0.00798878
0.00846254
0.00883807
0.00903351
0.00910099
0.00911839
0.00914177
0.00920463
0.0093158
)
;
    }
    procBoundary0to2
    {
        type            processor;
        value           nonuniform List<scalar> 
46
(
0.00986525
0.0100391
0.0101946
0.0103312
0.0104479
0.0105432
0.0106156
0.0106636
0.0106857
0.0106806
0.010648
0.0105877
0.0105008
0.0103894
0.0102567
0.0101075
0.00994805
0.00978623
0.00963125
0.00949324
0.0093824
0.00930795
0.00927696
0.0092933
0.00935729
8.71765e-05
0.000847264
0.00176318
0.00263064
0.00343079
0.00416405
0.0048343
0.00544618
0.0060044
0.00651352
0.00697789
0.00740153
0.00778819
0.00814133
0.00846409
0.00875928
0.00902939
0.00927658
0.0095026
0.00986525
0.00970885
)
;
    }
}


// ************************************************************************* //
