/*--------------------------------*- C++ -*----------------------------------*\
| =========                 |                                                 |
| \\      /  F ield         | OpenFOAM: The Open Source CFD Toolbox           |
|  \\    /   O peration     | Version:  5.0                                   |
|   \\  /    A nd           | Web:      www.OpenFOAM.org                      |
|    \\/     M anipulation  |                                                 |
\*---------------------------------------------------------------------------*/
FoamFile
{
    version     2.0;
    format      ascii;
    class       volScalarField;
    location    "0.9";
    object      p_rgh;
}
// * * * * * * * * * * * * * * * * * * * * * * * * * * * * * * * * * * * * * //

dimensions      [1 -1 -2 0 0 0 0];

internalField   nonuniform List<scalar> 
1935
(
644.8
642.567
640.027
637.601
635.765
634.647
634.234
634.469
635.285
636.621
638.424
640.648
643.25
646.191
649.435
652.944
656.681
660.614
664.708
668.932
673.257
677.656
682.103
686.58
691.064
695.527
699.951
704.369
708.798
713.226
717.645
722.055
726.461
730.745
734.406
738.377
742.734
745.934
747.936
748.689
748.272
746.787
744.331
740.855
645.923
643.462
640.743
638.37
636.698
635.767
635.522
635.884
636.786
638.168
639.983
642.189
644.75
647.63
650.796
654.214
657.849
661.669
665.643
669.738
673.925
678.176
682.463
686.763
691.054
695.315
699.524
703.681
707.781
711.825
715.808
719.729
723.603
727.358
730.904
734.253
737.03
739.463
740.386
741.389
741.44
740.517
738.55
736.9
646.322
643.544
640.906
638.831
637.42
636.706
636.642
637.155
638.175
639.646
641.52
643.756
646.322
649.182
652.305
655.658
659.21
662.929
666.784
670.746
674.783
678.867
682.968
687.059
691.115
695.113
699.023
702.836
706.542
710.137
713.61
716.96
720.199
723.378
726.494
729.166
731.279
733.298
734.964
734.808
734.802
735.372
735.677
734.514
646.01
642.872
640.269
638.473
637.332
636.848
636.982
637.669
638.842
640.442
642.421
644.741
647.366
650.262
653.397
656.738
660.256
663.919
667.698
671.561
675.479
679.422
683.359
687.26
691.099
694.85
698.487
701.988
705.341
708.536
711.569
714.439
717.157
719.752
722.213
724.375
726.211
727.992
729.787
731.386
732.4
732.648
732.306
731.536
644.91
641.504
638.821
637.193
636.289
636.036
636.39
637.285
638.653
640.433
642.576
645.041
647.79
650.788
654
657.394
660.939
664.605
668.361
672.178
676.025
679.873
683.69
687.445
691.11
694.658
698.064
701.304
704.363
707.232
709.91
712.403
714.723
716.893
718.918
720.739
722.375
723.987
725.598
727.034
728.031
728.415
728.315
727.838
642.903
639.341
636.52
634.987
634.299
634.292
634.901
636.052
637.672
639.694
642.065
644.741
647.68
650.844
654.197
657.704
661.335
665.059
668.845
672.662
676.483
680.28
684.02
687.67
691.201
694.587
697.802
700.823
703.633
706.227
708.608
710.786
712.778
714.607
716.284
717.791
719.171
720.536
721.883
723.041
723.729
723.726
723.274
722.757
639.868
636.226
633.25
631.794
631.336
631.614
632.533
634.007
635.949
638.284
640.953
643.908
647.105
650.501
654.054
657.733
661.506
665.34
669.202
673.064
676.901
680.688
684.391
687.973
691.405
694.663
697.721
700.555
703.15
705.503
707.621
709.52
711.218
712.735
714.072
715.214
716.216
717.193
718.13
718.837
718.94
718.072
716.655
715.655
635.67
631.981
628.882
627.543
627.363
627.989
629.293
631.171
633.517
636.244
639.286
642.595
646.12
649.812
653.627
657.534
661.502
665.497
669.482
673.429
677.32
681.138
684.843
688.391
691.753
694.911
697.84
700.513
702.915
705.048
706.925
708.565
709.986
711.196
712.164
712.842
713.303
713.739
714.13
714.239
713.513
711.227
707.987
705.675
630.14
626.461
623.366
622.251
622.442
623.503
625.273
627.635
630.465
633.656
637.14
640.867
644.786
648.837
652.971
657.16
661.378
665.585
669.737
673.804
677.784
681.672
685.42
688.964
692.279
695.356
698.178
700.71
702.933
704.857
706.507
707.903
709.057
709.955
710.513
710.597
710.332
710.062
709.72
709.09
707.403
703.048
696.708
691.453
623.194
619.571
616.717
616.013
616.722
618.352
620.713
623.666
627.058
630.756
634.708
638.883
643.231
647.679
652.169
656.681
661.194
665.661
670.019
674.235
678.334
682.335
686.169
689.736
693.015
696.025
698.759
701.165
703.214
704.933
706.363
707.529
708.425
709.014
709.124
708.456
707.153
705.684
704.023
702.628
700.463
693.548
682.327
670.616
614.72
610.647
608.151
607.931
609.224
611.686
615.037
619.003
623.242
627.623
632.145
636.831
641.657
646.533
651.383
656.219
661.043
665.799
670.39
674.762
678.996
683.158
687.139
690.745
693.984
696.934
699.602
701.895
703.769
705.276
706.492
707.439
708.092
708.398
708.06
706.307
702.972
698.944
695.356
694.366
693.452
683.734
665.754
643.078
603.521
587.602
569.956
560.494
559.522
571.142
589.675
608.916
615.778
621.928
627.928
633.834
639.68
645.339
650.669
655.87
661.038
666.123
670.948
675.428
679.757
684.118
688.331
691.968
695.139
698.024
700.659
702.862
704.551
705.835
706.843
707.595
708.059
708.25
707.628
704.031
696.899
690.915
689.589
691.534
687.664
677.478
651.904
619.525
317.186
232.234
189.587
168.785
164.688
183.843
220.821
274.417
349.407
424.361
493.046
552.618
602.575
638.055
648.602
654.844
660.9
666.704
671.92
676.39
680.663
685.248
689.687
693.409
696.387
699.147
701.797
703.94
705.418
706.446
707.26
707.878
708.321
708.879
708.597
702.778
694.256
663.896
566.594
510.581
624.354
680.768
645.063
574.309
6.26817
1.72631
1.68858
1.52163
1.41083
1.35981
1.35353
2.21789
9.31814
27.3961
59.1761
105.994
167.659
244.919
343.694
439.522
525.719
600.507
654.872
678.174
682.442
687.657
692.758
696.311
698.654
701.064
703.788
705.888
707.035
707.684
708.277
708.767
709.178
710.256
710.546
691.503
568.374
334.195
257.913
289.947
598.034
686.091
496.666
178.349
0.445573
0.543028
0.566807
0.537436
0.512388
0.496435
0.490432
0.498768
0.51941
0.526717
0.520919
0.523928
0.532776
0.552014
4.11313
21.2958
54.6515
103.569
161.612
227.429
316.845
431.819
543.079
600.765
617.855
628.392
647.658
661.212
662.901
659.029
654.503
643.707
616.606
572.544
489.126
307.627
150.296
177.731
218.47
435.369
588.31
447.113
65.9477
3.61645
0.441108
0.448588
0.454337
0.44322
0.433955
0.424988
0.416269
0.403141
0.37638
0.350495
0.331385
0.319919
0.316614
0.328393
0.339428
0.316847
0.258471
0.233572
0.221785
0.207787
0.51069
5.64342
12.738
20.7028
38.8933
82.5721
140.308
170.472
172.184
164.492
157.716
142.538
108.797
67.2288
24.2534
10.3585
46.3163
197.877
539.984
529.314
387.36
29.0217
3.76949
3.50595
0.437673
0.435835
0.439794
0.433801
0.428025
0.420043
0.410223
0.39667
0.375766
0.354048
0.336062
0.322592
0.313938
0.309678
0.295163
0.267756
0.243702
0.234052
0.233522
0.240497
0.253877
0.250926
0.222074
0.207738
0.202819
0.20453
0.222374
0.250964
0.28078
0.316577
0.363911
0.425478
0.544918
1.17181
2.51459
5.28346
18.3472
314.426
561.269
546.994
56.158
4.33715
4.09991
3.7051
0.423446
0.422711
0.424039
0.420614
0.41592
0.409036
0.400168
0.38895
0.374411
0.358313
0.342703
0.329089
0.317896
0.308098
0.29361
0.273785
0.257044
0.247586
0.244305
0.246593
0.252832
0.253706
0.25099
0.257505
0.272463
0.293478
0.32123
0.356542
0.400373
0.457006
0.533849
0.64287
0.820318
1.18086
1.86723
3.1461
6.11247
135.887
508.26
373.487
4.91309
4.48949
4.27787
3.94725
0.409133
0.409491
0.409924
0.407628
0.403638
0.397667
0.389799
0.379964
0.368013
0.35476
0.341422
0.329013
0.317872
0.307396
0.295213
0.280617
0.267012
0.257895
0.253305
0.252558
0.254528
0.255841
0.257922
0.2661
0.281278
0.303103
0.332075
0.369147
0.415795
0.475526
0.555065
0.667168
0.83925
1.12807
1.61036
2.55015
4.5215
44.2108
175.996
132.72
6.01634
4.51445
4.41757
4.16589
0.397319
0.397983
0.39838
0.396747
0.393321
0.388055
0.381027
0.372267
0.361855
0.350397
0.338725
0.327512
0.316984
0.306824
0.296064
0.284409
0.273618
0.265848
0.261457
0.260042
0.260952
0.26285
0.266604
0.275202
0.289902
0.311259
0.33995
0.376507
0.421675
0.47738
0.547249
0.637899
0.761115
0.927945
1.17939
1.92411
11.6858
124.173
170.449
97.3653
6.38005
4.50578
4.47955
4.36832
0.386028
0.387016
0.387608
0.386486
0.383612
0.37903
0.372839
0.365144
0.356109
0.346156
0.335867
0.325724
0.315932
0.306388
0.29674
0.287042
0.278329
0.271844
0.267958
0.26655
0.267341
0.269868
0.274834
0.284101
0.298798
0.319567
0.346866
0.380811
0.421311
0.468358
0.521529
0.579994
0.642332
0.697067
0.722639
0.897666
12.9906
226.691
279.242
277.899
102.901
4.53692
4.5714
4.63753
4.72238
0.374892
0.376267
0.377107
0.376405
0.374055
0.370136
0.364758
0.358056
0.350216
0.341557
0.332484
0.32336
0.3144
0.305653
0.297072
0.288829
0.281583
0.276089
0.272677
0.271393
0.272192
0.27504
0.280539
0.289886
0.303963
0.323254
0.347882
0.377452
0.410968
0.446719
0.481597
0.510312
0.525672
0.513361
0.429996
0.307663
2.53498
123.067
285.478
286.847
258.753
5.61618
4.87665
5.10559
5.25962
0.364157
0.365848
0.366929
0.366577
0.364688
0.361365
0.356721
0.350894
0.344066
0.336494
0.328479
0.320311
0.31221
0.304305
0.296691
0.289578
0.283412
0.278686
0.275688
0.274536
0.275308
0.278142
0.28353
0.29227
0.304973
0.321902
0.342859
0.366996
0.392614
0.416972
0.43588
0.442972
0.430828
0.390716
0.29926
0.148972
0.373168
26.9911
294.655
297.584
294.857
26.9325
5.44489
5.98784
6.25275
0.353774
0.35572
0.357024
0.356976
0.355492
0.35269
0.348686
0.343614
0.337644
0.330987
0.323886
0.316588
0.309305
0.3022
0.295427
0.289202
0.283852
0.279723
0.277053
0.275983
0.276631
0.27918
0.284011
0.291652
0.30248
0.316528
0.333344
0.351773
0.369758
0.3842
0.390905
0.38449
0.359397
0.312083
0.237124
0.128077
0.124571
1.22077
109.016
305.138
303.964
223.506
7.04399
7.41057
8.05932
0.343651
0.345805
0.347311
0.347534
0.346403
0.344052
0.3406
0.336176
0.330933
0.325052
0.318741
0.312217
0.305678
0.299293
0.293236
0.287715
0.282984
0.279298
0.276849
0.275771
0.276177
0.278232
0.282216
0.288463
0.297152
0.30814
0.320807
0.333851
0.34516
0.351767
0.350025
0.335992
0.306332
0.260569
0.202101
0.139226
0.113011
0.418168
45.9466
316.123
314.905
309.331
9.95164
9.21121
11.005
0.333745
0.336057
0.337737
0.338196
0.337372
0.33541
0.332432
0.32856
0.323933
0.318711
0.313083
0.307239
0.301354
0.295596
0.29014
0.285177
0.280909
0.277529
0.275191
0.274002
0.274055
0.275474
0.278447
0.283156
0.289635
0.297631
0.306449
0.314785
0.320667
0.321497
0.31436
0.29656
0.266492
0.225031
0.17716
0.131056
0.089628
0.121196
2.13598
168.189
324.875
324.961
114.041
11.3815
14.6977
0.324018
0.32644
0.328263
0.328923
0.328364
0.326738
0.324166
0.320764
0.316659
0.312001
0.306961
0.301701
0.29638
0.291156
0.286197
0.28167
0.277737
0.274546
0.272216
0.270826
0.27044
0.271143
0.273041
0.276198
0.280547
0.285788
0.291225
0.295651
0.297343
0.294182
0.283949
0.264896
0.23655
0.200544
0.161304
0.126153
0.101353
0.0917069
0.343314
43.4683
335.609
328.564
302.061
15.4044
17.5604
0.314434
0.316921
0.318856
0.319684
0.319353
0.318017
0.315794
0.312791
0.309131
0.304958
0.30042
0.295658
0.290813
0.286035
0.281477
0.277282
0.273579
0.270483
0.268079
0.266419
0.265542
0.265501
0.266338
0.268025
0.27043
0.273246
0.275834
0.277129
0.275716
0.26994
0.258194
0.239403
0.21373
0.183039
0.150953
0.122619
0.102353
0.0841058
0.11744
1.44893
163.847
335.998
338.972
107.139
20.0973
0.304963
0.307477
0.309493
0.31046
0.310325
0.309237
0.30731
0.304648
0.301371
0.297613
0.2935
0.289155
0.284706
0.280294
0.276052
0.2721
0.268543
0.26547
0.262938
0.260968
0.259583
0.258811
0.258647
0.259003
0.25971
0.260469
0.260728
0.259595
0.255948
0.24856
0.236318
0.218618
0.195909
0.170017
0.143966
0.121424
0.106365
0.103375
0.120413
0.321005
41.4761
346.326
340.85
329.745
25.6398
0.295588
0.298094
0.300163
0.301241
0.301269
0.300391
0.298715
0.296345
0.293398
0.289992
0.286233
0.282233
0.278111
0.273994
0.269996
0.266214
0.262738
0.259638
0.256944
0.254654
0.252772
0.25131
0.250229
0.249412
0.248677
0.247742
0.246142
0.243175
0.237977
0.229675
0.217533
0.20126
0.181378
0.159482
0.138016
0.119606
0.106603
0.101506
0.102473
0.122421
0.640462
104.571
347.701
353.632
200.562
0.286295
0.288763
0.290859
0.292021
0.292182
0.291477
0.290014
0.287896
0.28523
0.282114
0.278646
0.274928
0.271074
0.267193
0.263379
0.259715
0.256276
0.253117
0.250247
0.247644
0.245298
0.243203
0.2413
0.239465
0.237524
0.235225
0.232178
0.227856
0.221626
0.212877
0.201148
0.186333
0.168929
0.150261
0.132312
0.117217
0.106824
0.104132
0.118169
0.15622
0.295958
38.6598
338.877
351.175
361.735
0.277076
0.279482
0.281579
0.282799
0.283063
0.282502
0.281221
0.279315
0.276878
0.273999
0.270768
0.267283
0.263645
0.25995
0.256275
0.252688
0.249257
0.246021
0.24297
0.240073
0.237307
0.234644
0.232017
0.229314
0.226384
0.22301
0.218871
0.213576
0.206683
0.197775
0.186564
0.173045
0.157654
0.141437
0.125912
0.112686
0.102953
0.097693
0.0997863
0.108015
0.0997769
0.307025
48.4307
356.293
358.699
0.267929
0.270251
0.272327
0.27358
0.273924
0.27348
0.272348
0.270614
0.26836
0.265673
0.262637
0.259343
0.255882
0.252331
0.248756
0.245215
0.241769
0.238442
0.235213
0.23204
0.228894
0.225731
0.22248
0.219054
0.215336
0.211138
0.206198
0.20022
0.192906
0.183981
0.173269
0.16081
0.146992
0.132621
0.118829
0.106797
0.0973979
0.0908181
0.0868999
0.0851681
0.0798783
0.100458
0.856217
162.687
359.187
0.258855
0.261078
0.263112
0.264379
0.264781
0.264429
0.263413
0.26181
0.259701
0.25717
0.254297
0.25116
0.247838
0.244397
0.240889
0.23737
0.233893
0.230469
0.227065
0.223633
0.22014
0.216539
0.212765
0.208753
0.20442
0.199602
0.194075
0.187614
0.180026
0.171137
0.160849
0.14923
0.136626
0.123666
0.111184
0.100051
0.0909812
0.0842208
0.0793831
0.0758213
0.0752613
0.0928517
0.157329
1.69276
228.136
0.24986
0.251973
0.25395
0.255213
0.255653
0.255366
0.254432
0.252928
0.250935
0.248532
0.24579
0.242776
0.239559
0.236195
0.232732
0.229223
0.22571
0.222194
0.218626
0.214954
0.211148
0.207167
0.202959
0.19848
0.193662
0.188366
0.182393
0.175576
0.1678
0.158966
0.149026
0.138064
0.126378
0.114466
0.102933
0.0924252
0.0835105
0.0765366
0.0714539
0.0676937
0.0654023
0.0714386
0.0962343
0.153653
0.819615
0.240949
0.242946
0.244853
0.246096
0.246551
0.246303
0.245426
0.243998
0.242099
0.239797
0.237151
0.234223
0.231077
0.227767
0.224337
0.220834
0.217293
0.213698
0.209986
0.206102
0.202019
0.197712
0.193148
0.18829
0.183078
0.177387
0.171057
0.163969
0.156066
0.147299
0.137636
0.127163
0.116129
0.104926
0.094001
0.083841
0.074886
0.067466
0.0617429
0.0575689
0.0543927
0.0533102
0.0590195
0.0797402
0.111867
0.232128
0.234004
0.235831
0.237035
0.237486
0.237256
0.236419
0.23505
0.233222
0.230991
0.228407
0.225531
0.22243
0.219159
0.215756
0.212262
0.208697
0.205033
0.201199
0.197133
0.192813
0.188233
0.183378
0.178209
0.172662
0.166633
0.160007
0.152715
0.144733
0.136028
0.126566
0.116416
0.10579
0.0949944
0.0843787
0.074315
0.0651529
0.0571375
0.0504704
0.0452491
0.0413242
0.038334
0.0363661
0.0426696
0.0816177
0.223401
0.225155
0.22689
0.228041
0.228472
0.228246
0.227435
0.226107
0.224324
0.222132
0.219582
0.216738
0.213672
0.210435
0.207059
0.203568
0.199971
0.196234
0.192286
0.188066
0.183555
0.178756
0.173663
0.168234
0.162397
0.156074
0.149203
0.141757
0.133721
0.125054
0.115708
0.105731
0.0953035
0.084674
0.0741314
0.0639619
0.0544237
0.0456899
0.0378884
0.0311092
0.0253786
0.0204978
0.0156268
0.0117101
0.021377
0.214774
0.216405
0.218041
0.219129
0.219528
0.219295
0.218493
0.217183
0.215417
0.213242
0.210711
0.207894
0.204862
0.20166
0.198305
0.194808
0.191165
0.187345
0.183287
0.178938
0.174276
0.169301
0.164007
0.158348
0.152256
0.145682
0.138612
0.131049
0.12297
0.114305
0.104994
0.0950695
0.0846827
0.0740424
0.0633931
0.0529692
0.042936
0.0333887
0.0243619
0.0158279
0.00768523
-0.00030958
-0.00886419
-0.0191184
-0.0301152
0.206252
0.207763
0.209296
0.210315
0.210674
0.210421
0.20961
0.208295
0.206525
0.204352
0.201834
0.199042
0.196041
0.19287
0.189535
0.186031
0.182342
0.178438
0.174278
0.169818
0.165031
0.159903
0.15442
0.148544
0.142227
0.135448
0.128229
0.120582
0.112461
0.103768
0.0944293
0.0844714
0.0740125
0.0632355
0.0523536
0.0415675
0.0309845
0.0206165
0.0104005
0.00020139
-0.0102569
-0.0213775
-0.033848
-0.0488549
-0.068093
0.197843
0.199239
0.200669
0.201614
0.201925
0.20164
0.200805
0.199467
0.19768
0.1955
0.192986
0.190208
0.18723
0.184086
0.180775
0.177274
0.173554
0.169584
0.165337
0.160781
0.155879
0.150597
0.144925
0.13884
0.132327
0.125396
0.118078
0.110369
0.102194
0.0934393
0.0840323
0.073992
0.0634081
0.0524286
0.0412337
0.0300011
0.0188297
0.00769043
-0.00356436
-0.0151729
-0.0275026
-0.0410539
-0.0565251
-0.074954
-0.0978499
0.189551
0.19084
0.192169
0.193037
0.193293
0.192967
0.192095
0.190725
0.188911
0.186713
0.184195
0.181424
0.178459
0.175333
0.172041
0.168552
0.164822
0.160811
0.1565
0.151865
0.146856
0.14142
0.135553
0.129275
0.122603
0.115559
0.108164
0.100388
0.0921396
0.0833061
0.0738182
0.0636788
0.0529516
0.0417438
0.0302032
0.0184968
0.00674175
-0.00508592
-0.0171795
-0.0298677
-0.0435448
-0.0587332
-0.0761059
-0.096536
-0.121213
0.181379
0.182568
0.183799
0.184588
0.184785
0.18441
0.183496
0.182087
0.180242
0.178025
0.175502
0.172736
0.169775
0.166647
0.163355
0.159865
0.156128
0.152101
0.147764
0.143072
0.137953
0.132375
0.126341
0.119904
0.113106
0.105968
0.0984914
0.0906318
0.0823009
0.0733938
0.0638329
0.053594
0.0427035
0.0312454
0.019378
0.00726956
-0.0049656
-0.0173471
-0.0300807
-0.0435009
-0.0580219
-0.0741672
-0.0925542
-0.113886
-0.13899
0.17332
0.174414
0.175549
0.176257
0.176393
0.175972
0.17502
0.173578
0.171708
0.16948
0.166962
0.164203
0.161237
0.158089
0.154764
0.151246
0.147494
0.143461
0.139098
0.134345
)
;

boundaryField
{
    leftWall
    {
        type            fixedFluxPressure;
        gradient        uniform 0;
        value           nonuniform List<scalar> 
44
(
644.8
645.923
646.322
646.01
644.91
642.903
639.868
635.67
630.14
623.194
614.72
603.521
317.186
6.26817
0.445573
0.441108
0.437673
0.423446
0.409133
0.397319
0.386028
0.374892
0.364157
0.353774
0.343651
0.333745
0.324018
0.314434
0.304963
0.295588
0.286295
0.277076
0.267929
0.258855
0.24986
0.240949
0.232128
0.223401
0.214774
0.206252
0.197843
0.189551
0.181379
0.17332
)
;
    }
    rightWall
    {
        type            fixedFluxPressure;
        gradient        nonuniform 0();
        value           nonuniform 0();
    }
    lowerWall
    {
        type            fixedFluxPressure;
        gradient        uniform 0;
        value           nonuniform List<scalar> 
44
(
644.8
642.567
640.027
637.601
635.765
634.647
634.234
634.469
635.285
636.621
638.424
640.648
643.25
646.191
649.435
652.944
656.681
660.614
664.708
668.932
673.257
677.656
682.103
686.58
691.064
695.527
699.951
704.369
708.798
713.226
717.645
722.055
726.461
730.745
734.406
738.377
742.734
745.934
747.936
748.689
748.272
746.787
744.331
740.855
)
;
    }
    atmosphere
    {
        type            totalPressure;
        rho             rho;
        psi             none;
        gamma           1;
        p0              nonuniform 0();
        value           nonuniform 0();
    }
    defaultFaces
    {
        type            empty;
    }
    procBoundary0to1
    {
        type            processor;
        value           nonuniform List<scalar> 
44
(
737.064
734.829
732.599
729.836
726.315
721.759
715.704
707.578
695.859
671.844
620.245
586.675
446.924
30.2176
1.34446
2.92033
3.55426
3.94861
4.19263
4.4053
4.4053
4.57602
5.19935
6.2167
8.82361
13.5798
17.5106
20.2085
24.6236
31.3164
38.4189
62.8256
339.662
368.697
369.743
243.968
0.178535
0.11913
0.0668914
-0.0364425
-0.0946401
-0.12773
-0.151614
-0.168864
)
;
    }
    procBoundary0to2
    {
        type            processor;
        value           nonuniform List<scalar> 
46
(
0.12914
0.123444
0.117301
0.11077
0.103888
0.0966678
0.0890993
0.081137
0.072709
0.063725
0.0540962
0.0437638
0.0327314
0.0210915
0.00900092
-0.00337745
-0.0159403
-0.028714
-0.0418857
-0.0557755
-0.0707941
-0.0873974
-0.10611
-0.127511
-0.152177
0.165375
0.166374
0.167411
0.168039
0.168116
0.167653
0.166674
0.165219
0.16335
0.161134
0.158629
0.155874
0.152897
0.149719
0.14635
0.142781
0.138981
0.134909
0.130499
0.12914
0.125682
)
;
    }
}


// ************************************************************************* //
