/*--------------------------------*- C++ -*----------------------------------*\
| =========                 |                                                 |
| \\      /  F ield         | OpenFOAM: The Open Source CFD Toolbox           |
|  \\    /   O peration     | Version:  5.0                                   |
|   \\  /    A nd           | Web:      www.OpenFOAM.org                      |
|    \\/     M anipulation  |                                                 |
\*---------------------------------------------------------------------------*/
FoamFile
{
    version     2.0;
    format      ascii;
    class       surfaceScalarField;
    location    "0.9";
    object      phi;
}
// * * * * * * * * * * * * * * * * * * * * * * * * * * * * * * * * * * * * * //

dimensions      [0 3 -1 0 0 0 0];

internalField   nonuniform List<scalar> 
3781
(
-1.38353e-06
1.38353e-06
-3.37457e-06
1.99103e-06
-5.12478e-06
1.75022e-06
-6.55789e-06
1.43311e-06
-7.7901e-06
1.23221e-06
-8.92057e-06
1.13047e-06
-1.0006e-05
1.0854e-06
-1.10694e-05
1.06347e-06
-1.21147e-05
1.04528e-06
-1.31362e-05
1.0215e-06
-1.4125e-05
9.88725e-07
-1.50716e-05
9.46618e-07
-1.59679e-05
8.96288e-07
-1.68072e-05
8.3938e-07
-1.75849e-05
7.77643e-07
-1.82976e-05
7.12715e-07
-1.89436e-05
6.46028e-07
-1.95224e-05
5.7876e-07
-2.00342e-05
5.11808e-07
-2.04799e-05
4.45739e-07
-2.08607e-05
3.80758e-07
-2.11774e-05
3.16725e-07
-2.14306e-05
2.53178e-07
-2.16197e-05
1.89142e-07
-2.17419e-05
1.22175e-07
-2.17893e-05
4.73625e-08
-2.17447e-05
-4.45587e-08
-2.16032e-05
-1.41519e-07
-2.13601e-05
-2.431e-07
-2.1008e-05
-3.52058e-07
-2.05344e-05
-4.73666e-07
-1.99245e-05
-6.0986e-07
-1.91671e-05
-7.57379e-07
-1.8257e-05
-9.10134e-07
-1.72079e-05
-1.04915e-06
-1.59782e-05
-1.22965e-06
-1.44412e-05
-1.53702e-06
-1.26916e-05
-1.74956e-06
-1.08304e-05
-1.86125e-06
-8.90469e-06
-1.92569e-06
-6.93358e-06
-1.97111e-06
-4.94408e-06
-1.9895e-06
-2.96889e-06
-1.9752e-06
-1.85382e-06
-2.08698e-06
3.47052e-06
-3.8877e-06
3.79175e-06
-5.46424e-06
3.32675e-06
-6.88359e-06
2.85246e-06
-8.21492e-06
2.56354e-06
-9.4938e-06
2.40935e-06
-1.07315e-05
2.32311e-06
-1.19273e-05
2.25924e-06
-1.3075e-05
2.19302e-06
-1.4167e-05
2.11351e-06
-1.51959e-05
2.01763e-06
-1.61557e-05
1.90637e-06
-1.70418e-05
1.78243e-06
-1.78515e-05
1.64906e-06
-1.85833e-05
1.50943e-06
-1.92369e-05
1.36635e-06
-1.9813e-05
1.22211e-06
-2.03127e-05
1.07845e-06
-2.07374e-05
9.36562e-07
-2.10887e-05
7.97008e-07
-2.13676e-05
6.59667e-07
-2.15747e-05
5.23844e-07
-2.17099e-05
3.88374e-07
-2.17723e-05
2.5145e-07
-2.17602e-05
1.10161e-07
-2.16738e-05
-3.90356e-08
-2.15173e-05
-2.01054e-07
-2.12841e-05
-3.74743e-07
-2.09652e-05
-5.62073e-07
-2.05516e-05
-7.65605e-07
-2.00353e-05
-9.89934e-07
-1.94071e-05
-1.23807e-06
-1.86548e-05
-1.50969e-06
-1.7765e-05
-1.79995e-06
-1.67087e-05
-2.1054e-06
-1.54674e-05
-2.47098e-06
-1.41029e-05
-2.90151e-06
-1.25707e-05
-3.28178e-06
-1.08928e-05
-3.53915e-06
-9.12481e-06
-3.69368e-06
-7.33014e-06
-3.76579e-06
-5.55587e-06
-3.76377e-06
-3.87596e-06
-3.6551e-06
-3.38107e-06
-2.15098e-06
5.6215e-06
-3.74053e-06
5.3813e-06
-5.22377e-06
4.81e-06
-6.66942e-06
4.2981e-06
-8.06897e-06
3.9631e-06
-9.41621e-06
3.75659e-06
-1.07061e-05
3.61297e-06
-1.19338e-05
3.48694e-06
-1.30946e-05
3.35386e-06
-1.41843e-05
3.20323e-06
-1.51995e-05
3.03276e-06
-1.61374e-05
2.84433e-06
-1.69966e-05
2.6416e-06
-1.77763e-05
2.42871e-06
-1.84764e-05
2.20962e-06
-1.90978e-05
1.98773e-06
-1.96414e-05
1.76571e-06
-2.01085e-05
1.54556e-06
-2.05005e-05
1.32855e-06
-2.08186e-05
1.11509e-06
-2.10637e-05
9.04714e-07
-2.12361e-05
6.96255e-07
-2.13358e-05
4.88133e-07
-2.13626e-05
2.7824e-07
-2.13161e-05
6.36633e-08
-2.1196e-05
-1.59166e-07
-2.10031e-05
-3.93904e-07
-2.07347e-05
-6.4321e-07
-2.03865e-05
-9.10232e-07
-1.99532e-05
-1.19891e-06
-1.94286e-05
-1.51452e-06
-1.88048e-05
-1.86187e-06
-1.80707e-05
-2.24383e-06
-1.721e-05
-2.66063e-06
-1.61995e-05
-3.1159e-06
-1.50433e-05
-3.62724e-06
-1.37641e-05
-4.18073e-06
-1.23513e-05
-4.69456e-06
-1.07922e-05
-5.09824e-06
-9.13077e-06
-5.35509e-06
-7.43969e-06
-5.45687e-06
-5.80836e-06
-5.3951e-06
-4.29505e-06
-5.16841e-06
-4.75761e-06
-2.0575e-06
7.67899e-06
-3.61033e-06
6.93414e-06
-5.10218e-06
6.30184e-06
-6.58696e-06
5.78288e-06
-8.03504e-06
5.41118e-06
-9.42369e-06
5.14524e-06
-1.07404e-05
4.92972e-06
-1.19789e-05
4.72537e-06
-1.31358e-05
4.51078e-06
-1.42098e-05
4.27724e-06
-1.52005e-05
4.0235e-06
-1.61083e-05
3.75206e-06
-1.69336e-05
3.46699e-06
-1.76777e-05
3.17272e-06
-1.83415e-05
2.87349e-06
-1.89266e-05
2.57284e-06
-1.94344e-05
2.27347e-06
-1.98662e-05
1.97736e-06
-2.02234e-05
1.68576e-06
-2.05073e-05
1.39893e-06
-2.07185e-05
1.116e-06
-2.08577e-05
8.35417e-07
-2.0925e-05
5.55405e-07
-2.09206e-05
2.73877e-07
-2.08449e-05
-1.20299e-08
-2.06982e-05
-3.05881e-07
-2.04807e-05
-6.11462e-07
-2.01914e-05
-9.32466e-07
-1.98284e-05
-1.27321e-06
-1.93882e-05
-1.63909e-06
-1.88659e-05
-2.03692e-06
-1.82538e-05
-2.47391e-06
-1.75413e-05
-2.95636e-06
-1.67131e-05
-3.4888e-06
-1.57534e-05
-4.07558e-06
-1.46599e-05
-4.72081e-06
-1.34375e-05
-5.4031e-06
-1.20763e-05
-6.05571e-06
-1.05742e-05
-6.60033e-06
-8.96238e-06
-6.96695e-06
-7.32033e-06
-7.09892e-06
-5.7495e-06
-6.96593e-06
-4.32516e-06
-6.59275e-06
-6.05262e-06
-1.94385e-06
9.62284e-06
-3.53014e-06
8.52043e-06
-5.07273e-06
7.84443e-06
-6.60373e-06
7.31389e-06
-8.09141e-06
6.89886e-06
-9.50846e-06
6.56229e-06
-1.08396e-05
6.26087e-06
-1.20781e-05
5.9639e-06
-1.32224e-05
5.65505e-06
-1.42735e-05
5.32837e-06
-1.52339e-05
4.98389e-06
-1.61063e-05
4.62447e-06
-1.68934e-05
4.25407e-06
-1.75977e-05
3.87698e-06
-1.82214e-05
3.49723e-06
-1.87667e-05
3.11812e-06
-1.92353e-05
2.74204e-06
-1.96287e-05
2.3708e-06
-1.99485e-05
2.00559e-06
-2.01961e-05
1.6465e-06
-2.03723e-05
1.2922e-06
-2.04777e-05
9.40765e-07
-2.05127e-05
5.90433e-07
-2.04782e-05
2.39417e-07
-2.03753e-05
-1.14993e-07
-2.02047e-05
-4.76474e-07
-1.99671e-05
-8.4907e-07
-1.96626e-05
-1.23694e-06
-1.92905e-05
-1.64528e-06
-1.88486e-05
-2.081e-06
-1.83325e-05
-2.55303e-06
-1.7735e-05
-3.07142e-06
-1.70453e-05
-3.64605e-06
-1.6249e-05
-4.28505e-06
-1.53311e-05
-4.9935e-06
-1.42817e-05
-5.7702e-06
-1.30925e-05
-6.59233e-06
-1.1748e-05
-7.40016e-06
-1.02445e-05
-8.10383e-06
-8.61636e-06
-8.59513e-06
-6.94922e-06
-8.76606e-06
-5.3652e-06
-8.54994e-06
-3.97068e-06
-7.98727e-06
-7.24688e-06
-1.85439e-06
1.14772e-05
-3.50156e-06
1.01676e-05
-5.11188e-06
9.45475e-06
-6.6938e-06
8.8958e-06
-8.21718e-06
8.42224e-06
-9.65533e-06
8.00044e-06
-1.09931e-05
7.59861e-06
-1.22246e-05
7.19545e-06
-1.33502e-05
6.78064e-06
-1.43735e-05
6.35161e-06
-1.52993e-05
5.90977e-06
-1.61329e-05
5.45801e-06
-1.68785e-05
4.99972e-06
-1.75401e-05
4.53857e-06
-1.8121e-05
4.07811e-06
-1.86238e-05
3.62098e-06
-1.90508e-05
3.16895e-06
-1.94035e-05
2.72351e-06
-1.96838e-05
2.2859e-06
-1.98933e-05
1.85603e-06
-2.00331e-05
1.43202e-06
-2.01038e-05
1.01143e-06
-2.01061e-05
5.92754e-07
-2.00416e-05
1.74877e-07
-1.99119e-05
-2.44671e-07
-1.97185e-05
-6.69852e-07
-1.94626e-05
-1.10501e-06
-1.91449e-05
-1.55456e-06
-1.87659e-05
-2.02435e-06
-1.83239e-05
-2.52296e-06
-1.78152e-05
-3.06178e-06
-1.72324e-05
-3.65418e-06
-1.65645e-05
-4.31397e-06
-1.57965e-05
-5.05308e-06
-1.49113e-05
-5.87865e-06
-1.38921e-05
-6.78939e-06
-1.27181e-05
-7.76631e-06
-1.13628e-05
-8.75554e-06
-9.81391e-06
-9.65269e-06
-8.10404e-06
-1.0305e-05
-6.33163e-06
-1.05385e-05
-4.65577e-06
-1.02258e-05
-3.23838e-06
-9.40467e-06
-8.32847e-06
-1.80542e-06
1.32827e-05
-3.52851e-06
1.18907e-05
-5.21132e-06
1.11376e-05
-6.84388e-06
1.05284e-05
-8.39901e-06
9.97737e-06
-9.85255e-06
9.45397e-06
-1.11909e-05
8.93695e-06
-1.24099e-05
8.41444e-06
-1.35119e-05
7.88268e-06
-1.45032e-05
7.3429e-06
-1.53913e-05
6.79784e-06
-1.61832e-05
6.24996e-06
-1.6885e-05
5.70156e-06
-1.75018e-05
5.15535e-06
-1.80378e-05
4.61413e-06
-1.84964e-05
4.07954e-06
-1.88798e-05
3.55232e-06
-1.91899e-05
3.03364e-06
-1.94289e-05
2.52494e-06
-1.9599e-05
2.02612e-06
-1.97014e-05
1.53439e-06
-1.97365e-05
1.04654e-06
-1.97054e-05
5.61664e-07
-1.96104e-05
7.98252e-08
-1.94539e-05
-4.01122e-07
-1.9238e-05
-8.85773e-07
-1.89641e-05
-1.37892e-06
-1.86337e-05
-1.88495e-06
-1.82478e-05
-2.41022e-06
-1.78058e-05
-2.96501e-06
-1.73039e-05
-3.56366e-06
-1.67348e-05
-4.22329e-06
-1.60866e-05
-4.9622e-06
-1.53428e-05
-5.79684e-06
-1.44837e-05
-6.73777e-06
-1.34858e-05
-7.78723e-06
-1.23159e-05
-8.93619e-06
-1.09302e-05
-1.01413e-05
-9.30045e-06
-1.12824e-05
-7.45179e-06
-1.21537e-05
-5.49654e-06
-1.24937e-05
-3.64261e-06
-1.20797e-05
-2.12423e-06
-1.0923e-05
-9.33768e-06
-1.80845e-06
1.50911e-05
-3.61203e-06
1.36943e-05
-5.36191e-06
1.28874e-05
-7.03929e-06
1.22057e-05
-8.62073e-06
1.15588e-05
-1.00845e-05
1.09177e-05
-1.14186e-05
1.0271e-05
-1.26206e-05
9.61649e-06
-1.36953e-05
8.95735e-06
-1.46515e-05
8.29914e-06
-1.54994e-05
7.64575e-06
-1.6248e-05
6.99855e-06
-1.69046e-05
6.3581e-06
-1.74752e-05
5.72595e-06
-1.79651e-05
5.10408e-06
-1.83783e-05
4.49268e-06
-1.87169e-05
3.89099e-06
-1.89832e-05
3.29985e-06
-1.91797e-05
2.72147e-06
-1.93094e-05
2.15586e-06
-1.93738e-05
1.59874e-06
-1.93728e-05
1.04558e-06
-1.93077e-05
4.96519e-07
-1.91816e-05
-4.62389e-08
-1.89982e-05
-5.84535e-07
-1.87597e-05
-1.12429e-06
-1.84676e-05
-1.67101e-06
-1.81239e-05
-2.22865e-06
-1.77305e-05
-2.80362e-06
-1.72874e-05
-3.4081e-06
-1.67913e-05
-4.05977e-06
-1.62345e-05
-4.78006e-06
-1.56043e-05
-5.59243e-06
-1.48823e-05
-6.51888e-06
-1.40457e-05
-7.57428e-06
-1.30662e-05
-8.76678e-06
-1.18971e-05
-1.01053e-05
-1.04705e-05
-1.15679e-05
-8.73435e-06
-1.30186e-05
-6.70007e-06
-1.41879e-05
-4.48967e-06
-1.47041e-05
-2.36551e-06
-1.42039e-05
-6.37889e-07
-1.26507e-05
-1.03822e-05
-1.85747e-06
1.69486e-05
-3.73586e-06
1.55726e-05
-5.54094e-06
1.46925e-05
-7.25401e-06
1.39188e-05
-8.85624e-06
1.31611e-05
-1.03266e-05
1.2388e-05
-1.16536e-05
1.1598e-05
-1.28362e-05
1.07991e-05
-1.38813e-05
1.00025e-05
-1.48011e-05
9.21887e-06
-1.56081e-05
8.45277e-06
-1.6313e-05
7.70349e-06
-1.69241e-05
6.96916e-06
-1.74483e-05
6.25018e-06
-1.78921e-05
5.54789e-06
-1.82598e-05
4.86038e-06
-1.85536e-05
4.1847e-06
-1.87753e-05
3.5216e-06
-1.89288e-05
2.87494e-06
-1.90181e-05
2.24516e-06
-1.90447e-05
1.62534e-06
-1.90077e-05
1.00858e-06
-1.89081e-05
3.96989e-07
-1.87508e-05
-2.0358e-07
-1.85405e-05
-7.94811e-07
-1.82796e-05
-1.38525e-06
-1.7969e-05
-1.98161e-06
-1.76111e-05
-2.58652e-06
-1.7209e-05
-3.20571e-06
-1.67637e-05
-3.85338e-06
-1.62724e-05
-4.55105e-06
-1.57276e-05
-5.32489e-06
-1.51156e-05
-6.20443e-06
-1.44159e-05
-7.2186e-06
-1.36031e-05
-8.38705e-06
-1.26454e-05
-9.72455e-06
-1.1481e-05
-1.12697e-05
-1.00094e-05
-1.30395e-05
-8.15084e-06
-1.48771e-05
-5.90002e-06
-1.64387e-05
-3.37778e-06
-1.72264e-05
-9.00455e-07
-1.66812e-05
1.16491e-06
-1.4716e-05
-1.16541e-05
-1.88265e-06
1.88312e-05
-3.84585e-06
1.75358e-05
-5.69781e-06
1.65445e-05
-7.44018e-06
1.56612e-05
-9.06262e-06
1.47835e-05
-1.0541e-05
1.38664e-05
-1.18623e-05
1.29194e-05
-1.30264e-05
1.19632e-05
-1.40427e-05
1.10189e-05
-1.49273e-05
1.01035e-05
-1.56954e-05
9.2208e-06
-1.63586e-05
8.36673e-06
-1.69258e-05
7.53639e-06
-1.74051e-05
6.72949e-06
-1.78044e-05
5.94711e-06
-1.81281e-05
5.18414e-06
-1.83779e-05
4.43453e-06
-1.85557e-05
3.69938e-06
-1.86666e-05
2.98577e-06
-1.87165e-05
2.29509e-06
-1.87069e-05
1.61571e-06
-1.86348e-05
9.36555e-07
-1.85011e-05
2.63269e-07
-1.83128e-05
-3.91923e-07
-1.80765e-05
-1.03111e-06
-1.77939e-05
-1.66784e-06
-1.74648e-05
-2.31074e-06
-1.70919e-05
-2.95942e-06
-1.668e-05
-3.61758e-06
-1.62318e-05
-4.30161e-06
-1.57454e-05
-5.03742e-06
-1.52142e-05
-5.85605e-06
-1.46246e-05
-6.79406e-06
-1.39534e-05
-7.88977e-06
-1.31725e-05
-9.16802e-06
-1.22477e-05
-1.06493e-05
-1.10966e-05
-1.24208e-05
-9.57471e-06
-1.45614e-05
-7.5822e-06
-1.68696e-05
-5.10432e-06
-1.89166e-05
-2.24871e-06
-2.0082e-05
6.14771e-07
-1.95447e-05
3.1279e-06
-1.72292e-05
-1.34927e-05
-1.85705e-06
2.06883e-05
-3.93734e-06
1.96161e-05
-5.85285e-06
1.846e-05
-7.65536e-06
1.74637e-05
-9.33995e-06
1.64681e-05
-1.08649e-05
1.53914e-05
-1.22134e-05
1.42678e-05
-1.33857e-05
1.31355e-05
-1.43971e-05
1.20303e-05
-1.52682e-05
1.09745e-05
-1.6016e-05
9.96856e-06
-1.66533e-05
9.00403e-06
-1.71898e-05
8.0729e-06
-1.76352e-05
7.17489e-06
-1.79995e-05
6.31143e-06
-1.82875e-05
5.47214e-06
-1.84995e-05
4.64657e-06
-1.86373e-05
3.83713e-06
-1.87082e-05
3.05666e-06
-1.87214e-05
2.3083e-06
-1.86777e-05
1.57206e-06
-1.85708e-05
8.29626e-07
-1.84005e-05
9.29491e-08
-1.81782e-05
-6.14224e-07
-1.79131e-05
-1.29618e-06
-1.76054e-05
-1.97559e-06
-1.7252e-05
-2.66407e-06
-1.68565e-05
-3.35493e-06
-1.64266e-05
-4.04744e-06
-1.59676e-05
-4.76067e-06
-1.54795e-05
-5.52548e-06
-1.49584e-05
-6.3772e-06
-1.43921e-05
-7.36029e-06
-1.37549e-05
-8.527e-06
-1.30136e-05
-9.90932e-06
-1.21311e-05
-1.15318e-05
-1.09894e-05
-1.35625e-05
-9.3729e-06
-1.61779e-05
-7.16817e-06
-1.90743e-05
-4.40015e-06
-2.16846e-05
-1.20066e-06
-2.32815e-05
1.9965e-06
-2.27418e-05
4.94508e-06
-2.01777e-05
-1.62269e-05
-1.86815e-06
2.25564e-05
-3.87252e-06
2.16205e-05
-5.76569e-06
2.03532e-05
-7.6075e-06
1.93055e-05
-9.35682e-06
1.82174e-05
-1.09282e-05
1.69627e-05
-1.23055e-05
1.56451e-05
-1.34996e-05
1.43297e-05
-1.45191e-05
1.30498e-05
-1.53848e-05
1.18403e-05
-1.61162e-05
1.07e-05
-1.67295e-05
9.61734e-06
-1.72368e-05
8.58018e-06
-1.76495e-05
7.58752e-06
-1.79814e-05
6.64335e-06
-1.8236e-05
5.72672e-06
-1.84116e-05
4.82224e-06
-1.85103e-05
3.93582e-06
-1.85429e-05
3.08927e-06
-1.8523e-05
2.2884e-06
-1.84501e-05
1.49915e-06
-1.8312e-05
6.91525e-07
-1.81071e-05
-1.11972e-07
-1.78545e-05
-8.66863e-07
-1.75662e-05
-1.58443e-06
-1.72392e-05
-2.30261e-06
-1.68658e-05
-3.03748e-06
-1.64507e-05
-3.76999e-06
-1.60066e-05
-4.49153e-06
-1.55424e-05
-5.22485e-06
-1.50616e-05
-6.00629e-06
-1.45661e-05
-6.8727e-06
-1.4051e-05
-7.87547e-06
-1.34908e-05
-9.08715e-06
-1.28475e-05
-1.05527e-05
-1.20818e-05
-1.22974e-05
-1.10157e-05
-1.46286e-05
-9.26117e-06
-1.79325e-05
-6.6712e-06
-2.16643e-05
-3.52468e-06
-2.48312e-05
-2.12426e-07
-2.65937e-05
2.85647e-06
-2.58107e-05
5.63984e-06
-2.29611e-05
-1.89517e-05
-2.07527e-06
2.46317e-05
-3.63657e-06
2.31818e-05
-5.44473e-06
2.21613e-05
-7.32641e-06
2.11872e-05
-9.14805e-06
2.00391e-05
-1.07718e-05
1.85865e-05
-1.21997e-05
1.7073e-05
-1.34594e-05
1.55894e-05
-1.45127e-05
1.4103e-05
-1.53766e-05
1.27042e-05
-1.60891e-05
1.14124e-05
-1.66782e-05
1.02065e-05
-1.7164e-05
9.06599e-06
-1.75623e-05
7.98579e-06
-1.78753e-05
6.95634e-06
-1.81041e-05
5.95552e-06
-1.82493e-05
4.96747e-06
-1.83145e-05
4.00107e-06
-1.83149e-05
3.08961e-06
-1.82693e-05
2.24283e-06
-1.81745e-05
1.40435e-06
-1.8009e-05
5.25993e-07
-1.77739e-05
-3.47075e-07
-1.74947e-05
-1.14598e-06
-1.71901e-05
-1.88906e-06
-1.68499e-05
-2.6428e-06
-1.64594e-05
-3.428e-06
-1.60262e-05
-4.20318e-06
-1.55702e-05
-4.94754e-06
-1.51049e-05
-5.69014e-06
-1.46381e-05
-6.47314e-06
-1.41824e-05
-7.32834e-06
-1.37509e-05
-8.307e-06
-1.3333e-05
-9.50504e-06
-1.28963e-05
-1.09893e-05
-1.24083e-05
-1.27855e-05
-1.15814e-05
-1.54554e-05
-9.58655e-06
-1.99273e-05
-6.04135e-06
-2.52095e-05
-2.27522e-06
-2.85973e-05
6.6986e-07
-2.95388e-05
2.8822e-06
-2.80231e-05
4.8706e-06
-2.49495e-05
-2.10929e-05
-3.91669e-06
2.85484e-05
-3.19137e-06
2.24565e-05
-4.89391e-06
2.38639e-05
-6.74853e-06
2.30418e-05
-8.48862e-06
2.17791e-05
-1.00899e-05
2.01878e-05
-1.15855e-05
1.85686e-05
-1.3018e-05
1.70219e-05
-1.4216e-05
1.53011e-05
-1.51524e-05
1.36406e-05
-1.58953e-05
1.21553e-05
-1.64881e-05
1.07993e-05
-1.69712e-05
9.54906e-06
-1.73733e-05
8.38784e-06
-1.76723e-05
7.25536e-06
-1.78708e-05
6.15409e-06
-1.79855e-05
5.0821e-06
-1.80262e-05
4.04183e-06
-1.80104e-05
3.07375e-06
-1.79532e-05
2.18566e-06
-1.78418e-05
1.29298e-06
-1.76527e-05
3.36832e-07
-1.73916e-05
-6.08177e-07
-1.70965e-05
-1.44106e-06
-1.67865e-05
-2.199e-06
-1.64412e-05
-2.98816e-06
-1.60377e-05
-3.83145e-06
-1.55907e-05
-4.65022e-06
-1.51285e-05
-5.40977e-06
-1.46678e-05
-6.15082e-06
-1.42194e-05
-6.92152e-06
-1.38101e-05
-7.73764e-06
-1.34848e-05
-8.63234e-06
-1.32788e-05
-9.71106e-06
-1.32205e-05
-1.10476e-05
-1.34453e-05
-1.25606e-05
-1.34667e-05
-1.54341e-05
-1.0744e-05
-2.26501e-05
-5.24293e-06
-3.07105e-05
-1.17559e-06
-3.26647e-05
5.86904e-07
-3.13013e-05
1.60694e-06
-2.90431e-05
2.7127e-06
-2.60553e-05
-2.31757e-05
-2.13919e-06
3.06876e-05
-2.72061e-06
2.30379e-05
-3.48069e-06
2.46239e-05
-4.81658e-06
2.43777e-05
-6.21604e-06
2.31786e-05
-7.68123e-06
2.1653e-05
-9.31209e-06
2.01994e-05
-1.11913e-05
1.8901e-05
-1.29085e-05
1.70183e-05
-1.4238e-05
1.49701e-05
-1.51868e-05
1.31042e-05
-1.58766e-05
1.14891e-05
-1.64286e-05
1.01011e-05
-1.69132e-05
8.87239e-06
-1.73059e-05
7.64806e-06
-1.75304e-05
6.37855e-06
-1.76493e-05
5.20102e-06
-1.76876e-05
4.08014e-06
-1.76668e-05
3.05299e-06
-1.75886e-05
2.10747e-06
-1.74375e-05
1.14181e-06
-1.72193e-05
1.18708e-07
-1.6954e-05
-8.73538e-07
-1.66708e-05
-1.72418e-06
-1.63687e-05
-2.50114e-06
-1.60202e-05
-3.33668e-06
-1.56076e-05
-4.2441e-06
-1.51583e-05
-5.09944e-06
-1.47012e-05
-5.8669e-06
-1.42503e-05
-6.60176e-06
-1.38183e-05
-7.35348e-06
-1.34449e-05
-8.11108e-06
-1.32154e-05
-8.86175e-06
-1.32656e-05
-9.66088e-06
-1.38907e-05
-1.04226e-05
-1.60263e-05
-1.0425e-05
-1.80897e-05
-1.33707e-05
-1.34788e-05
-2.7261e-05
-7.0676e-06
-3.71217e-05
-3.22575e-06
-3.65065e-05
-1.74378e-06
-3.27833e-05
-1.03325e-06
-2.97536e-05
4.01062e-08
-2.71286e-05
-3.05066e-05
9.75838e-07
2.97117e-05
-5.8308e-07
2.45968e-05
-1.52248e-06
2.55633e-05
-2.27219e-06
2.51274e-05
-3.11171e-06
2.40181e-05
-4.06879e-06
2.261e-05
-5.0655e-06
2.11961e-05
-6.01536e-06
1.98509e-05
-7.20238e-06
1.82053e-05
-8.53536e-06
1.6303e-05
-9.8302e-06
1.4399e-05
-1.10353e-05
1.26941e-05
-1.22777e-05
1.13435e-05
-1.38287e-05
1.04234e-05
-1.54506e-05
9.26996e-06
-1.65556e-05
7.4836e-06
-1.70028e-05
5.64822e-06
-1.71599e-05
4.23719e-06
-1.72032e-05
3.09629e-06
-1.71352e-05
2.03947e-06
-1.69695e-05
9.76099e-07
-1.67518e-05
-9.89256e-08
-1.65374e-05
-1.08794e-06
-1.62932e-05
-1.96838e-06
-1.59874e-05
-2.80696e-06
-1.56119e-05
-3.71222e-06
-1.51882e-05
-4.66776e-06
-1.47535e-05
-5.53416e-06
-1.43113e-05
-6.30911e-06
-1.38675e-05
-7.04556e-06
-1.34405e-05
-7.78046e-06
-1.30779e-05
-8.47366e-06
-1.29073e-05
-9.03236e-06
-1.31843e-05
-9.38388e-06
-1.49327e-05
-8.67418e-06
-2.47067e-05
-6.51032e-07
-2.33493e-05
-1.4728e-05
-1.53267e-05
-3.52836e-05
-1.09598e-05
-4.14886e-05
-7.47869e-06
-3.99876e-05
-5.71901e-06
-3.45429e-05
-4.26887e-06
-3.12038e-05
9.89982e-06
-4.12973e-05
-5.40001e-05
1.79873e-06
2.7913e-05
4.43918e-07
2.59516e-05
3.9499e-08
2.59677e-05
-1.69967e-07
2.53369e-05
-4.66804e-07
2.43149e-05
-8.99816e-07
2.3043e-05
-1.40714e-06
2.17035e-05
-1.92894e-06
2.03727e-05
-2.63403e-06
1.89104e-05
-3.58661e-06
1.72556e-05
-4.69612e-06
1.55085e-05
-5.86857e-06
1.38666e-05
-7.03935e-06
1.25143e-05
-8.09143e-06
1.14755e-05
-9.12444e-06
1.0303e-05
-1.02283e-05
8.58748e-06
-1.12766e-05
6.69649e-06
-1.21323e-05
5.09294e-06
-1.28715e-05
3.8355e-06
-1.36545e-05
2.82243e-06
-1.45778e-05
1.89941e-06
-1.53866e-05
7.09837e-07
-1.5744e-05
-7.30513e-07
-1.57428e-05
-1.96955e-06
-1.55091e-05
-3.04063e-06
-1.51503e-05
-4.07104e-06
-1.47776e-05
-5.04049e-06
-1.44093e-05
-5.9025e-06
-1.40136e-05
-6.70474e-06
-1.36025e-05
-7.4567e-06
-1.32368e-05
-8.14614e-06
-1.3044e-05
-8.66642e-06
-1.37429e-05
-8.33352e-06
-1.92578e-05
-3.86896e-06
-3.27026e-05
4.77063e-06
-4.15667e-05
8.21311e-06
-2.27134e-05
-3.35814e-05
-1.72719e-05
-4.07251e-05
-1.4164e-05
-4.45965e-05
-1.1391e-05
-4.27606e-05
-9.68176e-06
-3.62522e-05
3.35296e-07
-4.12208e-05
1.9571e-05
-6.0533e-05
-6.38633e-05
1.41764e-06
2.64954e-05
1.03344e-06
2.63358e-05
1.15981e-06
2.58414e-05
1.38062e-06
2.51161e-05
1.52323e-06
2.41723e-05
1.52023e-06
2.3046e-05
1.39461e-06
2.18291e-05
1.18611e-06
2.05812e-05
8.36517e-07
1.926e-05
2.76942e-07
1.78152e-05
-4.97147e-07
1.62826e-05
-1.41648e-06
1.47859e-05
-2.36379e-06
1.34616e-05
-3.21926e-06
1.23309e-05
-4.05227e-06
1.1136e-05
-5.0506e-06
9.58581e-06
-6.18121e-06
7.82711e-06
-7.31788e-06
6.22961e-06
-8.40581e-06
4.92344e-06
-9.4408e-06
3.85742e-06
-1.04115e-05
2.87014e-06
-1.1357e-05
1.65528e-06
-1.23067e-05
2.1926e-07
-1.31638e-05
-1.11248e-06
-1.3956e-05
-2.24847e-06
-1.48078e-05
-3.21925e-06
-1.58525e-05
-3.99578e-06
-1.72222e-05
-4.53274e-06
-1.91192e-05
-4.80773e-06
-2.18288e-05
-4.74719e-06
-2.57649e-05
-4.20999e-06
-3.15502e-05
-2.88112e-06
-4.00797e-05
1.9594e-07
-5.02607e-05
6.312e-06
-5.49829e-05
9.49279e-06
-3.95963e-05
-7.17344e-06
-2.60462e-05
-4.71316e-05
-2.01838e-05
-4.65875e-05
-1.71577e-05
-4.76225e-05
-1.36261e-05
-4.62922e-05
-7.26479e-06
-4.26135e-05
6.23138e-06
-5.4717e-05
1.54349e-05
-6.97365e-05
-6.57971e-05
1.06359e-06
2.54318e-05
1.44011e-06
2.59593e-05
1.96912e-06
2.53124e-05
2.51573e-06
2.45695e-05
2.98239e-06
2.37057e-05
3.31427e-06
2.27141e-05
3.50654e-06
2.16368e-05
3.57713e-06
2.05106e-05
3.5097e-06
1.93274e-05
3.25933e-06
1.80655e-05
2.80329e-06
1.67386e-05
2.17599e-06
1.54132e-05
1.46628e-06
1.41713e-05
7.67756e-07
1.30294e-05
5.25742e-08
1.18512e-05
-8.17929e-07
1.04563e-05
-1.89024e-06
8.89942e-06
-3.07526e-06
7.41463e-06
-4.28136e-06
6.12954e-06
-5.45659e-06
5.03265e-06
-6.58953e-06
4.00309e-06
-7.77001e-06
2.83577e-06
-9.07569e-06
1.52494e-06
-1.04814e-05
2.93193e-07
-1.19966e-05
-7.33204e-07
-1.37133e-05
-1.50259e-06
-1.57688e-05
-1.94031e-06
-1.8343e-05
-1.95855e-06
-2.16921e-05
-1.4586e-06
-2.61491e-05
-2.90189e-07
-3.21002e-05
1.74111e-06
-3.98629e-05
4.88148e-06
-4.90468e-05
9.37986e-06
-5.66658e-05
1.3931e-05
-5.70582e-05
9.88519e-06
-4.39043e-05
-2.03273e-05
-3.61057e-05
-5.49302e-05
-2.71394e-05
-5.55538e-05
-2.11678e-05
-5.35941e-05
-1.41086e-05
-5.33514e-05
-4.15748e-06
-5.25647e-05
1.66717e-06
-6.05417e-05
5.13459e-06
-7.32039e-05
-6.5127e-05
9.81577e-07
2.44502e-05
1.74379e-06
2.51971e-05
2.54593e-06
2.45102e-05
3.32628e-06
2.37891e-05
4.02998e-06
2.3002e-05
4.61408e-06
2.213e-05
5.06219e-06
2.11887e-05
5.37507e-06
2.01977e-05
5.54329e-06
1.91592e-05
5.5428e-06
1.8066e-05
5.35581e-06
1.69256e-05
4.99702e-06
1.5772e-05
4.51903e-06
1.46493e-05
3.98161e-06
1.35669e-05
3.37858e-06
1.24542e-05
2.62175e-06
1.12131e-05
1.65687e-06
9.8643e-06
5.30953e-07
8.54056e-06
-6.79489e-07
7.33999e-06
-1.91906e-06
6.27223e-06
-3.18082e-06
5.26485e-06
-4.54374e-06
4.1987e-06
-6.09365e-06
3.07485e-06
-7.84591e-06
2.04546e-06
-9.82169e-06
1.24257e-06
-1.20914e-05
7.67107e-07
-1.47657e-05
7.34026e-07
-1.79986e-05
1.27431e-06
-2.19908e-05
2.53358e-06
-2.69519e-05
4.67095e-06
-3.30113e-05
7.80042e-06
-3.99832e-05
1.18534e-05
-4.66981e-05
1.60948e-05
-5.01524e-05
1.73853e-05
-4.70483e-05
6.78106e-06
-3.76906e-05
-2.96851e-05
-3.545e-05
-5.71708e-05
-3.20568e-05
-5.89471e-05
-2.71619e-05
-5.8489e-05
-2.09973e-05
-5.9516e-05
-1.19846e-05
-6.15774e-05
-1.25592e-05
-5.99671e-05
-8.93674e-06
-7.68263e-05
-6.66856e-05
1.02338e-06
2.34268e-05
1.97733e-06
2.42431e-05
2.94805e-06
2.35395e-05
3.88955e-06
2.28476e-05
4.76145e-06
2.21301e-05
5.52903e-06
2.13624e-05
6.17179e-06
2.05459e-05
6.68098e-06
1.96885e-05
7.0471e-06
1.87931e-05
7.25493e-06
1.78582e-05
7.29234e-06
1.68882e-05
7.16427e-06
1.59e-05
6.89791e-06
1.49157e-05
6.52567e-06
1.39391e-05
6.04479e-06
1.29351e-05
5.40417e-06
1.18538e-05
4.56384e-06
1.07046e-05
3.54259e-06
9.5618e-06
2.39001e-06
8.49257e-06
1.14748e-06
7.51477e-06
-1.81761e-07
6.5941e-06
-1.65658e-06
5.67353e-06
-3.34956e-06
4.76783e-06
-5.29263e-06
3.98853e-06
-7.51253e-06
3.46246e-06
-1.00588e-05
3.31338e-06
-1.30035e-05
3.6787e-06
-1.64375e-05
4.70833e-06
-2.04531e-05
6.54914e-06
-2.50857e-05
9.3036e-06
-3.02012e-05
1.29159e-05
-3.52756e-05
1.69278e-05
-3.90764e-05
1.98955e-05
-3.96934e-05
1.80022e-05
-3.64626e-05
3.55025e-06
-3.43854e-05
-3.17623e-05
-3.37488e-05
-5.78075e-05
-3.24589e-05
-6.0237e-05
-3.01903e-05
-6.07575e-05
-2.81342e-05
-6.15721e-05
-2.72313e-05
-6.24803e-05
-2.62385e-05
-6.09599e-05
-2.22544e-05
-8.08104e-05
-1.69413e-05
-7.19987e-05
-8.12306e-06
1.0887e-06
2.23381e-05
2.15685e-06
2.3175e-05
3.23055e-06
2.24658e-05
4.27603e-06
2.18021e-05
5.26053e-06
2.11456e-05
6.15521e-06
2.04677e-05
6.93927e-06
1.97618e-05
7.59939e-06
1.90283e-05
8.1246e-06
1.82679e-05
8.503e-06
1.74798e-05
8.72488e-06
1.66663e-05
8.78953e-06
1.58354e-05
8.70821e-06
1.4997e-05
8.49511e-06
1.41522e-05
8.14644e-06
1.32838e-05
7.63193e-06
1.23683e-05
6.92456e-06
1.1412e-05
6.02885e-06
1.04575e-05
4.97176e-06
9.54967e-06
3.77805e-06
8.70849e-06
2.44697e-06
7.92519e-06
9.37777e-07
7.18272e-06
-8.02874e-07
6.50849e-06
-2.80711e-06
5.99276e-06
-5.09741e-06
5.75277e-06
-7.70041e-06
5.91637e-06
-1.06452e-05
6.62351e-06
-1.39528e-05
8.01589e-06
-1.76096e-05
1.0206e-05
-2.15125e-05
1.32065e-05
-2.538e-05
1.67833e-05
-2.86313e-05
2.01792e-05
-3.03549e-05
2.16191e-05
-2.98479e-05
1.74953e-05
-2.83693e-05
2.07165e-06
-3.1926e-05
-2.82057e-05
-3.34617e-05
-5.62717e-05
-3.28236e-05
-6.08751e-05
-3.16731e-05
-6.19079e-05
-3.07017e-05
-6.25435e-05
-3.01672e-05
-6.30149e-05
-2.81745e-05
-6.29526e-05
-3.21768e-05
-7.6808e-05
-2.4952e-05
-7.92236e-05
-1.44159e-05
1.14693e-06
2.11912e-05
2.29235e-06
2.20296e-05
3.42976e-06
2.13284e-05
4.53822e-06
2.06936e-05
5.59285e-06
2.00909e-05
6.57025e-06
1.94903e-05
7.45136e-06
1.88807e-05
8.22157e-06
1.82581e-05
8.86887e-06
1.76205e-05
9.38217e-06
1.69665e-05
9.75228e-06
1.62962e-05
9.97487e-06
1.56128e-05
1.00517e-05
1.49201e-05
9.98594e-06
1.4218e-05
9.77161e-06
1.34981e-05
9.38917e-06
1.27507e-05
8.81964e-06
1.19815e-05
8.06054e-06
1.12166e-05
7.12355e-06
1.04867e-05
6.02043e-06
9.81161e-06
4.74757e-06
9.19806e-06
3.27773e-06
8.65256e-06
1.57526e-06
8.21096e-06
-3.83509e-07
7.95154e-06
-2.61023e-06
7.97949e-06
-5.10839e-06
8.41452e-06
-7.86824e-06
9.38336e-06
-1.08534e-05
1.1001e-05
-1.39763e-05
1.33289e-05
-1.70608e-05
1.6291e-05
-1.97986e-05
1.95211e-05
-2.17333e-05
2.21139e-05
-2.23923e-05
2.22781e-05
-2.19033e-05
1.70062e-05
-2.23154e-05
2.48375e-06
-2.78004e-05
-2.27207e-05
-3.36367e-05
-5.04355e-05
-3.32386e-05
-6.12732e-05
-3.26356e-05
-6.2511e-05
-3.21791e-05
-6.29999e-05
-3.21521e-05
-6.30419e-05
-3.16924e-05
-6.34123e-05
-3.87393e-05
-6.97611e-05
-3.31107e-05
-8.48521e-05
-2.57414e-05
1.189e-06
2.00022e-05
2.38904e-06
2.08295e-05
3.56584e-06
2.01516e-05
4.70979e-06
1.95497e-05
5.80413e-06
1.89966e-05
6.83109e-06
1.84634e-05
7.7745e-06
1.79373e-05
8.62046e-06
1.74121e-05
9.35697e-06
1.6884e-05
9.97311e-06
1.63503e-05
1.04595e-05
1.58098e-05
1.08095e-05
1.52628e-05
1.10194e-05
1.47103e-05
1.10859e-05
1.41514e-05
1.10014e-05
1.35827e-05
1.07512e-05
1.30009e-05
1.03209e-05
1.24119e-05
9.70441e-06
1.18331e-05
8.90431e-06
1.12868e-05
7.92386e-06
1.07921e-05
6.75809e-06
1.03638e-05
5.38945e-06
1.00212e-05
3.79648e-06
9.80394e-06
1.96689e-06
9.78112e-06
-9.80781e-08
1.00445e-05
-2.38181e-06
1.06983e-05
-4.8454e-06
1.18469e-05
-7.41562e-06
1.35712e-05
-9.96805e-06
1.58813e-05
-1.23111e-05
1.86341e-05
-1.41845e-05
2.13944e-05
-1.5313e-05
2.32425e-05
-1.55995e-05
2.25646e-05
-1.55985e-05
1.70052e-05
-1.71451e-05
4.03035e-06
-2.28324e-05
-1.70334e-05
-3.17378e-05
-4.15301e-05
-3.34291e-05
-5.95819e-05
-3.32455e-05
-6.26945e-05
-3.30702e-05
-6.31753e-05
-3.33052e-05
-6.2807e-05
-3.40988e-05
-6.26187e-05
-3.99603e-05
-6.38997e-05
-4.17713e-05
-8.3041e-05
-3.87567e-05
1.21434e-06
1.87878e-05
2.45126e-06
1.95926e-05
3.65078e-06
1.89521e-05
4.81176e-06
1.83887e-05
5.92478e-06
1.78836e-05
6.97749e-06
1.74106e-05
7.95716e-06
1.69576e-05
8.85176e-06
1.65175e-05
9.6501e-06
1.60857e-05
1.03417e-05
1.56587e-05
1.09171e-05
1.52344e-05
1.13683e-05
1.48116e-05
1.16886e-05
1.439e-05
1.18713e-05
1.39686e-05
1.19077e-05
1.35463e-05
1.17854e-05
1.31232e-05
1.14923e-05
1.2705e-05
1.10208e-05
1.23045e-05
1.03684e-05
1.19392e-05
9.5335e-06
1.16269e-05
8.51111e-06
1.13862e-05
7.29069e-06
1.12416e-05
5.8617e-06
1.12329e-05
4.22239e-06
1.14204e-05
2.3856e-06
1.18813e-05
3.82844e-07
1.2701e-05
-1.72914e-06
1.39589e-05
-3.86001e-06
1.57021e-05
-5.87829e-06
1.78996e-05
-7.61305e-06
2.03688e-05
-8.88086e-06
2.26622e-05
-9.56872e-06
2.39303e-05
-9.81725e-06
2.28131e-05
-1.03274e-05
1.75154e-05
-1.26349e-05
6.33786e-06
-1.86196e-05
-1.10486e-05
-2.76611e-05
-3.24886e-05
-3.33688e-05
-5.38743e-05
-3.34264e-05
-6.26369e-05
-3.35796e-05
-6.30221e-05
-3.40887e-05
-6.22978e-05
-3.5425e-05
-6.12824e-05
-3.85807e-05
-6.07439e-05
-4.97864e-05
-7.18354e-05
-5.11624e-05
1.22516e-06
1.75627e-05
2.48324e-06
1.83345e-05
3.69264e-06
1.77427e-05
4.85772e-06
1.72236e-05
5.97498e-06
1.67663e-05
7.03682e-06
1.63488e-05
8.03397e-06
1.59604e-05
8.95671e-06
1.55948e-05
9.79528e-06
1.52471e-05
1.05401e-05
1.49139e-05
1.11819e-05
1.45925e-05
1.17123e-05
1.42813e-05
1.21232e-05
1.39791e-05
1.24065e-05
1.36854e-05
1.25526e-05
1.34002e-05
1.25507e-05
1.31251e-05
1.23901e-05
1.28656e-05
1.20627e-05
1.2632e-05
1.15632e-05
1.24386e-05
1.08883e-05
1.23019e-05
1.00336e-05
1.2241e-05
8.99362e-06
1.22816e-05
7.76596e-06
1.24606e-05
6.35719e-06
1.28292e-05
4.78846e-06
1.345e-05
3.10021e-06
1.43893e-05
1.35689e-06
1.57022e-05
-3.48732e-07
1.74077e-05
-1.89699e-06
1.94479e-05
-3.15285e-06
2.16247e-05
-4.00747e-06
2.35168e-05
-4.46197e-06
2.43848e-05
-4.7708e-06
2.31219e-05
-5.61289e-06
1.83575e-05
-8.14651e-06
8.87149e-06
-1.35296e-05
-5.66553e-06
-2.17734e-05
-2.42448e-05
-3.09134e-05
-4.47342e-05
-3.33657e-05
-6.01847e-05
-3.38932e-05
-6.24945e-05
-3.45861e-05
-6.1605e-05
-3.57958e-05
-6.00727e-05
-3.76295e-05
-5.89102e-05
-4.7743e-05
-6.17219e-05
-5.71262e-05
1.22348e-06
1.63392e-05
2.48857e-06
1.70694e-05
3.69719e-06
1.6534e-05
4.85681e-06
1.6064e-05
5.96829e-06
1.56548e-05
7.02784e-06
1.52892e-05
8.02931e-06
1.4959e-05
8.96534e-06
1.46587e-05
9.82786e-06
1.43846e-05
1.06085e-05
1.41333e-05
1.12988e-05
1.39022e-05
1.18904e-05
1.36896e-05
1.23751e-05
1.34944e-05
1.27441e-05
1.33164e-05
1.29883e-05
1.3156e-05
1.30976e-05
1.30157e-05
1.30626e-05
1.29006e-05
1.28751e-05
1.28195e-05
1.25293e-05
1.27844e-05
1.20212e-05
1.281e-05
1.13476e-05
1.29146e-05
1.05069e-05
1.31222e-05
9.50234e-06
1.34652e-05
8.34605e-06
1.39855e-05
7.06407e-06
1.4732e-05
5.70018e-06
1.57531e-05
4.31885e-06
1.70836e-05
3.00549e-06
1.87211e-05
1.86036e-06
2.0593e-05
9.79155e-07
2.25059e-05
4.11314e-07