/*--------------------------------*- C++ -*----------------------------------*\
| =========                 |                                                 |
| \\      /  F ield         | OpenFOAM: The Open Source CFD Toolbox           |
|  \\    /   O peration     | Version:  5.0                                   |
|   \\  /    A nd           | Web:      www.OpenFOAM.org                      |
|    \\/     M anipulation  |                                                 |
\*---------------------------------------------------------------------------*/
FoamFile
{
    version     2.0;
    format      ascii;
    class       volVectorField;
    location    "0.9";
    object      U;
}
// * * * * * * * * * * * * * * * * * * * * * * * * * * * * * * * * * * * * * //

dimensions      [0 1 -1 0 0 0 0];

internalField   nonuniform List<vector> 
1935
(
(-0.0079954 0.00787427 0)
(-0.0348584 0.0138917 0)
(-0.0629627 0.011451 0)
(-0.0843545 0.00870913 0)
(-0.102735 0.00718804 0)
(-0.119295 0.00654881 0)
(-0.135008 0.00637555 0)
(-0.150332 0.00638252 0)
(-0.165408 0.00641169 0)
(-0.180199 0.00638895 0)
(-0.194587 0.00628836 0)
(-0.208436 0.00610853 0)
(-0.221618 0.00585889 0)
(-0.234026 0.00555264 0)
(-0.245581 0.00520341 0)
(-0.256226 0.0048239 0)
(-0.265927 0.0044254 0)
(-0.274668 0.00401746 0)
(-0.282449 0.00360766 0)
(-0.28928 0.00320123 0)
(-0.295175 0.00280081 0)
(-0.300151 0.00240645 0)
(-0.30422 0.00201563 0)
(-0.307381 0.00161996 0)
(-0.309615 0.00119278 0)
(-0.31087 0.000683553 0)
(-0.310975 5.14766e-05 0)
(-0.309645 -0.000690268 0)
(-0.306906 -0.00144972 0)
(-0.302691 -0.00226253 0)
(-0.296854 -0.00318672 0)
(-0.289179 -0.00423308 0)
(-0.279383 -0.00533975 0)
(-0.267409 -0.00637023 0)
(-0.25366 -0.00728219 0)
(-0.237638 -0.00888551 0)
(-0.217684 -0.0116548 0)
(-0.193918 -0.0133684 0)
(-0.168023 -0.0140153 0)
(-0.140933 -0.0144337 0)
(-0.113086 -0.014941 0)
(-0.0848332 -0.0154073 0)
(-0.0567065 -0.0158102 0)
(-0.0291651 -0.0154463 0)
(-0.0188325 0.0253122 0)
(-0.0442521 0.0320569 0)
(-0.0678038 0.0282057 0)
(-0.0885203 0.0236035 0)
(-0.107886 0.0207713 0)
(-0.126437 0.0193205 0)
(-0.144396 0.0186136 0)
(-0.161787 0.0181851 0)
(-0.178543 0.0177722 0)
(-0.194558 0.0172526 0)
(-0.209719 0.0165863 0)
(-0.22393 0.0157756 0)
(-0.237115 0.014842 0)
(-0.249223 0.0138136 0)
(-0.260225 0.0127189 0)
(-0.27011 0.0115838 0)
(-0.278881 0.0104299 0)
(-0.286552 0.00927453 0)
(-0.293143 0.00813004 0)
(-0.298676 0.00700328 0)
(-0.30317 0.00589514 0)
(-0.306637 0.004801 0)
(-0.309082 0.00371127 0)
(-0.310497 0.00260896 0)
(-0.310861 0.0014617 0)
(-0.310154 0.000218232 0)
(-0.308409 -0.00116388 0)
(-0.305675 -0.00268432 0)
(-0.301765 -0.00430608 0)
(-0.296566 -0.00606726 0)
(-0.289964 -0.00802367 0)
(-0.281837 -0.0102056 0)
(-0.272037 -0.0125971 0)
(-0.260367 -0.0151284 0)
(-0.246489 -0.017682 0)
(-0.230142 -0.0208147 0)
(-0.211551 -0.0249521 0)
(-0.190803 -0.0283758 0)
(-0.167776 -0.0305068 0)
(-0.143016 -0.0316937 0)
(-0.117393 -0.0323192 0)
(-0.0917667 -0.0324206 0)
(-0.0670246 -0.0316462 0)
(-0.0439591 -0.0289728 0)
(-0.0218297 0.0489154 0)
(-0.0431407 0.0495339 0)
(-0.0641055 0.0439385 0)
(-0.0850164 0.0385528 0)
(-0.105309 0.0351513 0)
(-0.124917 0.0332157 0)
(-0.143755 0.0320086 0)
(-0.16174 0.031023 0)
(-0.178804 0.0299835 0)
(-0.194879 0.0287702 0)
(-0.209911 0.0273535 0)
(-0.223855 0.0257491 0)
(-0.236682 0.023993 0)
(-0.248377 0.0221264 0)
(-0.258934 0.0201892 0)
(-0.26836 0.0182162 0)
(-0.276668 0.0162352 0)
(-0.283875 0.0142669 0)
(-0.29 0.012325 0)
(-0.295063 0.0104149 0)
(-0.299079 0.0085332 0)
(-0.302057 0.00666955 0)
(-0.304 0.00480831 0)
(-0.304905 0.00292745 0)
(-0.304765 0.000995518 0)
(-0.303576 -0.00102646 0)
(-0.301345 -0.00317245 0)
(-0.298069 -0.0054679 0)
(-0.293687 -0.00794088 0)
(-0.288131 -0.0106256 0)
(-0.281321 -0.0135713 0)
(-0.273163 -0.0168177 0)
(-0.263528 -0.0203787 0)
(-0.252203 -0.0242427 0)
(-0.23887 -0.0284215 0)
(-0.223405 -0.0331831 0)
(-0.206034 -0.0384692 0)
(-0.186815 -0.0432731 0)
(-0.165541 -0.0468612 0)
(-0.142378 -0.0490713 0)
(-0.118171 -0.0499677 0)
(-0.0941981 -0.0495608 0)
(-0.071624 -0.0476647 0)
(-0.0510125 -0.0437775 0)
(-0.0211556 0.0720796 0)
(-0.0412148 0.0664008 0)
(-0.0620174 0.0598207 0)
(-0.0834701 0.054243 0)
(-0.104495 0.0504352 0)
(-0.124786 0.0479113 0)
(-0.144121 0.0460098 0)
(-0.162371 0.0442655 0)
(-0.179472 0.0424247 0)
(-0.195395 0.0403807 0)
(-0.210128 0.0381139 0)
(-0.223673 0.0356483 0)
(-0.236036 0.0330267 0)
(-0.24723 0.0302967 0)
(-0.257271 0.0275036 0)
(-0.266177 0.0246859 0)
(-0.27397 0.0218734 0)
(-0.280669 0.0190881 0)
(-0.286294 0.0163436 0)
(-0.290864 0.0136436 0)
(-0.294395 0.0109811 0)
(-0.296894 0.00834113 0)
(-0.298367 0.00570514 0)
(-0.298815 0.0030499 0)
(-0.298243 0.000344247 0)
(-0.296655 -0.00245027 0)
(-0.294057 -0.00537401 0)
(-0.290447 -0.00846124 0)
(-0.285803 -0.0117539 0)
(-0.280088 -0.0153019 0)
(-0.273242 -0.0191686 0)
(-0.265181 -0.0234171 0)
(-0.255778 -0.028096 0)
(-0.244839 -0.0332338 0)
(-0.232114 -0.0388705 0)
(-0.217469 -0.045102 0)
(-0.200964 -0.051723 0)
(-0.182551 -0.0579596 0)
(-0.162059 -0.0630184 0)
(-0.139635 -0.0663542 0)
(-0.116098 -0.0675934 0)
(-0.0928496 -0.0665474 0)
(-0.0712743 -0.0633665 0)
(-0.051982 -0.0583646 0)
(-0.0193214 0.093725 0)
(-0.0396996 0.0833053 0)
(-0.0612086 0.0761718 0)
(-0.0833691 0.0705209 0)
(-0.105049 0.0663009 0)
(-0.125845 0.0630816 0)
(-0.14549 0.0603282 0)
(-0.163839 0.0576589 0)
(-0.180842 0.0548666 0)
(-0.196501 0.05187 0)
(-0.210844 0.0486621 0)
(-0.223912 0.0452722 0)
(-0.235744 0.0417446 0)
(-0.246376 0.0381277 0)
(-0.255844 0.0344669 0)
(-0.264178 0.0308001 0)
(-0.271406 0.0271556 0)
(-0.277551 0.0235542 0)
(-0.282635 0.0200091 0)
(-0.286679 0.0165219 0)
(-0.289701 0.0130814 0)
(-0.291708 0.00966843 0)
(-0.292707 0.00626373 0)
(-0.292708 0.00284559 0)
(-0.291724 -0.000616202 0)
(-0.28977 -0.00416054 0)
(-0.286856 -0.00782983 0)
(-0.28299 -0.0116666 0)
(-0.278168 -0.0157226 0)
(-0.272372 -0.0200639 0)
(-0.265557 -0.0247743 0)
(-0.257644 -0.0299457 0)
(-0.248506 -0.0356642 0)
(-0.237958 -0.0419972 0)
(-0.225772 -0.0489913 0)
(-0.21177 -0.0566494 0)
(-0.195846 -0.0647208 0)
(-0.17781 -0.0725314 0)
(-0.157442 -0.0791815 0)
(-0.134881 -0.0837217 0)
(-0.110987 -0.0853097 0)
(-0.0873575 -0.0834727 0)
(-0.0657783 -0.0785877 0)
(-0.0473334 -0.0719525 0)
(-0.0174076 0.114177 0)
(-0.0388277 0.10071 0)
(-0.0613469 0.0931679 0)
(-0.0843249 0.0873216 0)
(-0.106637 0.0825661 0)
(-0.127844 0.0785123 0)
(-0.147685 0.0747549 0)
(-0.166026 0.0710115 0)
(-0.182837 0.0671367 0)
(-0.198154 0.0630828 0)
(-0.212044 0.0588574 0)
(-0.224581 0.0544924 0)
(-0.235834 0.0500286 0)
(-0.245862 0.0455099 0)
(-0.254716 0.0409783 0)
(-0.26244 0.0364663 0)
(-0.269068 0.0319974 0)
(-0.274624 0.0275897 0)
(-0.279135 0.0232558 0)
(-0.282625 0.0189956 0)
(-0.285115 0.0147924 0)
(-0.286614 0.0106229 0)
(-0.287131 0.00646895 0)
(-0.286681 0.00231383 0)
(-0.28529 -0.00187058 0)
(-0.282981 -0.00612498 0)
(-0.279771 -0.0104944 0)
(-0.275677 -0.0150256 0)
(-0.270708 -0.0197785 0)
(-0.26486 -0.0248363 0)
(-0.258096 -0.0303075 0)
(-0.250341 -0.0363174 0)
(-0.241465 -0.0429922 0)
(-0.231278 -0.0504382 0)
(-0.219542 -0.0587168 0)
(-0.206023 -0.0678038 0)
(-0.190466 -0.0774608 0)
(-0.172502 -0.0870703 0)
(-0.151758 -0.0955903 0)
(-0.128278 -0.101635 0)
(-0.102966 -0.103732 0)
(-0.0777722 -0.100908 0)
(-0.0551747 -0.0936284 0)
(-0.0371354 -0.0841953 0)
(-0.0158409 0.133854 0)
(-0.0387207 0.118856 0)
(-0.0623406 0.11092 0)
(-0.0861598 0.104661 0)
(-0.109062 0.0991789 0)
(-0.130604 0.094122 0)
(-0.150554 0.0892042 0)
(-0.168803 0.0842453 0)
(-0.185348 0.0791678 0)
(-0.200259 0.0739632 0)
(-0.213642 0.0686541 0)
(-0.225606 0.063271 0)
(-0.236245 0.0578458 0)
(-0.245637 0.052414 0)
(-0.253849 0.0470105 0)
(-0.260936 0.0416592 0)
(-0.266936 0.0363746 0)
(-0.271877 0.0311712 0)
(-0.275787 0.0260627 0)
(-0.2787 0.0210478 0)
(-0.280642 0.0161022 0)
(-0.281621 0.0111963 0)
(-0.281643 0.00631613 0)
(-0.280734 0.00145456 0)
(-0.278932 -0.00341346 0)
(-0.276269 -0.00833303 0)
(-0.272769 -0.0133529 0)
(-0.268453 -0.0185214 0)
(-0.263342 -0.0239049 0)
(-0.257442 -0.0296049 0)
(-0.250726 -0.0357591 0)
(-0.243119 -0.0425307 0)
(-0.234484 -0.050091 0)
(-0.224617 -0.0585907 0)
(-0.213256 -0.0681215 0)
(-0.200106 -0.0786799 0)
(-0.184786 -0.0900981 0)
(-0.1667 -0.101834 0)
(-0.145212 -0.112677 0)
(-0.120161 -0.120714 0)
(-0.0924495 -0.123662 0)
(-0.0644812 -0.119723 0)
(-0.039656 -0.109215 0)
(-0.0211341 -0.0952552 0)
(-0.0149438 0.153139 0)
(-0.039443 0.137855 0)
(-0.0641036 0.129432 0)
(-0.0886855 0.12251 0)
(-0.112095 0.116089 0)
(-0.133894 0.109849 0)
(-0.153882 0.103612 0)
(-0.171972 0.0973002 0)
(-0.188192 0.0909073 0)
(-0.202649 0.0844682 0)
(-0.215487 0.0780191 0)
(-0.226849 0.0715828 0)
(-0.236852 0.065176 0)
(-0.245588 0.0588226 0)
(-0.253139 0.0525484 0)
(-0.259572 0.0463647 0)
(-0.264929 0.040273 0)
(-0.269237 0.0342839 0)
(-0.272528 0.0284157 0)
(-0.274848 0.0226674 0)
(-0.276231 0.0170027 0)
(-0.276682 0.0113816 0)
(-0.276202 0.00579844 0)
(-0.274824 0.000262847 0)
(-0.272606 -0.00524656 0)
(-0.26959 -0.0107845 0)
(-0.265798 -0.0164056 0)
(-0.261254 -0.0221563 0)
(-0.255991 -0.0281066 0)
(-0.250028 -0.0343777 0)
(-0.243346 -0.0411411 0)
(-0.23587 -0.0486033 0)
(-0.227456 -0.0569876 0)
(-0.217879 -0.0664984 0)
(-0.206846 -0.0772706 0)
(-0.19402 -0.0893549 0)
(-0.178905 -0.102727 0)
(-0.160626 -0.116997 0)
(-0.138158 -0.130776 0)
(-0.111037 -0.141541 0)
(-0.0800728 -0.145953 0)
(-0.0481438 -0.140939 0)
(-0.0196881 -0.126384 0)
(0.000758745 -0.105843 0)
(-0.0147814 0.172783 0)
(-0.0407736 0.157828 0)
(-0.0663505 0.148703 0)
(-0.0915404 0.140868 0)
(-0.115354 0.133308 0)
(-0.137352 0.1257 0)
(-0.157333 0.117972 0)
(-0.175227 0.110156 0)
(-0.191088 0.102327 0)
(-0.205063 0.09457 0)
(-0.217342 0.0869299 0)
(-0.228096 0.0794101 0)
(-0.23746 0.0720041 0)
(-0.245537 0.0647219 0)
(-0.252424 0.0575809 0)
(-0.258204 0.0505741 0)
(-0.262917 0.0436835 0)
(-0.266585 0.0369172 0)
(-0.269248 0.0303051 0)
(-0.270969 0.0238491 0)
(-0.271796 0.0174923 0)
(-0.271723 0.0111763 0)
(-0.270738 0.0049105 0)
(-0.268886 -0.00126578 0)
(-0.26625 -0.00737122 0)
(-0.262884 -0.0134799 0)
(-0.258801 -0.0196565 0)
(-0.254021 -0.0259391 0)
(-0.24859 -0.0323955 0)
(-0.242547 -0.0391681 0)
(-0.235882 -0.0464673 0)
(-0.228525 -0.0545486 0)
(-0.220331 -0.0636953 0)
(-0.211051 -0.0741781 0)
(-0.200355 -0.0861825 0)
(-0.187884 -0.0998281 0)
(-0.17305 -0.115324 0)
(-0.154603 -0.132571 0)
(-0.131019 -0.150039 0)
(-0.101501 -0.16452 0)
(-0.0666675 -0.171345 0)
(-0.0298176 -0.165594 0)
(0.00364679 -0.146524 0)
(0.0279858 -0.117576 0)
(-0.0144261 0.192996 0)
(-0.0418282 0.178931 0)
(-0.0683493 0.168869 0)
(-0.0940129 0.159936 0)
(-0.118189 0.151095 0)
(-0.140403 0.141929 0)
(-0.160401 0.1325 0)
(-0.178115 0.122977 0)
(-0.193626 0.11355 0)
(-0.207134 0.10436 0)
(-0.218877 0.0954513 0)
(-0.229053 0.0867951 0)
(-0.237803 0.078353 0)
(-0.245242 0.070122 0)
(-0.251488 0.0621141 0)
(-0.256636 0.0542921 0)
(-0.260725 0.0466076 0)
(-0.263764 0.0390682 0)
(-0.265802 0.0317282 0)
(-0.266934 0.0245969 0)
(-0.267226 0.0175803 0)
(-0.26665 0.0105865 0)
(-0.265167 0.00365267 0)
(-0.262842 -0.00313027 0)
(-0.259797 -0.00978178 0)
(-0.256095 -0.0164138 0)
(-0.251727 -0.0231071 0)
(-0.246704 -0.0298786 0)
(-0.24109 -0.0367836 0)
(-0.234951 -0.0439869 0)
(-0.228296 -0.0517435 0)
(-0.221068 -0.0603619 0)
(-0.213133 -0.0701963 0)
(-0.204226 -0.0816032 0)
(-0.193963 -0.09482 0)
(-0.181986 -0.110016 0)
(-0.167617 -0.127771 0)
(-0.149068 -0.148588 0)
(-0.124212 -0.170764 0)
(-0.0920589 -0.190156 0)
(-0.0531288 -0.200532 0)
(-0.0110858 -0.194595 0)
(0.0281298 -0.171308 0)
(0.0588663 -0.134101 0)
(-0.0138065 0.210493 0)
(-0.0415169 0.200058 0)
(-0.0689077 0.189258 0)
(-0.094947 0.179321 0)
(-0.119589 0.16931 0)
(-0.1422 0.158622 0)
(-0.162363 0.147472 0)
(-0.180006 0.136165 0)
(-0.195256 0.124996 0)
(-0.208391 0.114218 0)
(-0.219685 0.103899 0)
(-0.229351 0.0939869 0)
(-0.237545 0.0844105 0)
(-0.244393 0.0751621 0)
(-0.250043 0.0662557 0)
(-0.254608 0.0575987 0)
(-0.258111 0.0490968 0)
(-0.260547 0.0407642 0)
(-0.261978 0.0327008 0)
(-0.262548 0.0249295 0)
(-0.262348 0.017287 0)
(-0.261307 0.00962053 0)
(-0.259342 0.00201685 0)
(-0.25655 -0.00534208 0)
(-0.253117 -0.0124854 0)
(-0.249111 -0.0195968 0)
(-0.244479 -0.0267832 0)
(-0.239209 -0.0340154 0)
(-0.233399 -0.0413165 0)
(-0.227159 -0.0488768 0)
(-0.220524 -0.0570026 0)
(-0.213471 -0.0660556 0)
(-0.205909 -0.0764741 0)
(-0.19757 -0.0887389 0)
(-0.187992 -0.103141 0)
(-0.176848 -0.119872 0)
(-0.16338 -0.140252 0)
(-0.144844 -0.165911 0)
(-0.118134 -0.194308 0)
(-0.0825747 -0.219568 0)
(-0.03976 -0.234054 0)
(0.00607449 -0.228203 0)
(0.0494622 -0.201723 0)
(0.0885634 -0.159733 0)
(-0.0173913 0.221117 0)
(-0.0395906 0.215795 0)
(-0.0669402 0.204995 0)
(-0.0930856 0.194631 0)
(-0.118313 0.183892 0)
(-0.141502 0.172123 0)
(-0.161987 0.159787 0)
(-0.179785 0.147328 0)
(-0.195112 0.135079 0)
(-0.208168 0.123257 0)
(-0.219206 0.111876 0)
(-0.228492 0.100896 0)
(-0.236227 0.090266 0)
(-0.242577 0.0800097 0)
(-0.247725 0.070173 0)
(-0.251794 0.0606216 0)
(-0.254779 0.0512304 0)
(-0.25666 0.042042 0)
(-0.257527 0.0332377 0)
(-0.257594 0.0248634 0)
(-0.256976 0.0166291 0)
(-0.255533 0.00827296 0)
(-0.253118 -1.78022e-05 0)
(-0.249884 -0.00792514 0)
(-0.246112 -0.0154893 0)
(-0.241863 -0.0230344 0)
(-0.237006 -0.0307088 0)
(-0.231499 -0.0383881 0)
(-0.225494 -0.0460305 0)
(-0.219166 -0.0538598 0)
(-0.212589 -0.0622401 0)
(-0.205804 -0.0715726 0)
(-0.19883 -0.0823855 0)
(-0.191438 -0.0953442 0)
(-0.183099 -0.110842 0)
(-0.173712 -0.129181 0)
(-0.16241 -0.153154 0)
(-0.144027 -0.185595 0)
(-0.113131 -0.220685 0)
(-0.0713001 -0.250548 0)
(-0.0254067 -0.269556 0)
(0.019233 -0.263486 0)
(0.0594937 -0.234625 0)
(0.0964776 -0.192271 0)
(-0.0300546 0.236776 0)
(-0.0352512 0.231521 0)
(-0.0620584 0.21939 0)
(-0.0880306 0.20861 0)
(-0.113902 0.197108 0)
(-0.137724 0.183895 0)
(-0.158679 0.169963 0)
(-0.177176 0.155953 0)
(-0.193081 0.142361 0)
(-0.206188 0.129571 0)
(-0.216958 0.117476 0)
(-0.225846 0.105882 0)
(-0.233182 0.0946589 0)
(-0.239221 0.083837 0)
(-0.244124 0.0734205 0)
(-0.247859 0.0631793 0)
(-0.25042 0.0529851 0)
(-0.251831 0.0429526 0)
(-0.252231 0.033407 0)
(-0.251906 0.0244591 0)
(-0.250979 0.0156362 0)
(-0.249209 0.00651991 0)
(-0.246403 -0.00252432 0)
(-0.242792 -0.0109329 0)
(-0.238768 -0.0188212 0)
(-0.234374 -0.0267582 0)
(-0.229358 -0.0349466 0)
(-0.223644 -0.0430774 0)
(-0.217471 -0.0509989 0)
(-0.211097 -0.0589873 0)
(-0.204644 -0.0674685 0)
(-0.198247 -0.0768299 0)
(-0.192132 -0.0876399 0)
(-0.186249 -0.100798 0)
(-0.18024 -0.116902 0)
(-0.174919 -0.136552 0)
(-0.168453 -0.164443 0)
(-0.15009 -0.203488 0)
(-0.110875 -0.245116 0)
(-0.0546621 -0.28146 0)
(-0.00809113 -0.30318 0)
(0.0252816 -0.292947 0)
(0.0529819 -0.261388 0)
(0.0795094 -0.218064 0)
(-0.0905343 0.262362 0)
(-0.0282241 0.244006 0)
(-0.0546858 0.231352 0)
(-0.0796525 0.221396 0)
(-0.104367 0.209475 0)
(-0.127185 0.194204 0)
(-0.148179 0.178294 0)
(-0.16845 0.16303 0)
(-0.18646 0.148509 0)
(-0.200819 0.135062 0)
(-0.212149 0.122288 0)
(-0.221148 0.109973 0)
(-0.228397 0.0980397 0)
(-0.234432 0.0865437 0)
(-0.23924 0.0755079 0)
(-0.242603 0.0647428 0)
(-0.244698 0.0540333 0)
(-0.245708 0.0434619 0)
(-0.245856 0.0334248 0)
(-0.245385 0.0240384 0)
(-0.244263 0.0146384 0)
(-0.242193 0.00468126 0)
(-0.239067 -0.00521938 0)
(-0.235226 -0.0141146 0)
(-0.231112 -0.0222764 0)
(-0.226688 -0.0306292 0)
(-0.221584 -0.0394299 0)
(-0.215732 -0.0480516 0)
(-0.209471 -0.0561903 0)
(-0.20313 -0.0642171 0)
(-0.196861 -0.0726177 0)
(-0.190908 -0.0816559 0)
(-0.185778 -0.091802 0)
(-0.181826 -0.104161 0)
(-0.179731 -0.119598 0)
(-0.18278 -0.138311 0)
(-0.186698 -0.16641 0)
(-0.173035 -0.214604 0)
(-0.113794 -0.282801 0)
(-0.033583 -0.329412 0)
(-0.0016754 -0.330265 0)
(0.0143583 -0.310654 0)
(0.0279626 -0.276464 0)
(0.0457195 -0.232601 0)
(-0.0563373 0.363007 0)
(-0.0136467 0.261511 0)
(-0.0439291 0.293195 0)
(-0.0560565 0.286685 0)
(-0.0744869 0.271016 0)
(-0.0938313 0.250291 0)
(-0.114269 0.229722 0)
(-0.136959 0.209028 0)
(-0.163866 0.178043 0)
(-0.185328 0.150361 0)
(-0.199887 0.130778 0)
(-0.210434 0.115076 0)
(-0.218538 0.101316 0)
(-0.225635 0.0889094 0)
(-0.231659 0.0771934 0)
(-0.235633 0.065904 0)
(-0.237843 0.0546539 0)
(-0.238842 0.0435845 0)
(-0.239007 0.0331882 0)
(-0.238427 0.0235459 0)
(-0.236824 0.013769 0)
(-0.234178 0.00326983 0)
(-0.230894 -0.00704923 0)
(-0.227273 -0.0161766 0)
(-0.223353 -0.024594 0)
(-0.218924 -0.0334607 0)
(-0.213746 -0.0429603 0)
(-0.207908 -0.0520631 0)
(-0.201749 -0.0603662 0)
(-0.195542 -0.0683695 0)
(-0.189466 -0.0766012 0)
(-0.183878 -0.0851426 0)
(-0.179516 -0.0942536 0)
(-0.177441 -0.105101 0)
(-0.180998 -0.118396 0)
(-0.201125 -0.131014 0)
(-0.231103 -0.151571 0)
(-0.231794 -0.255556 0)
(-0.139283 -0.386397 0)
(-0.0620783 -0.381802 0)
(-0.0320334 -0.34894 0)
(-0.0184601 -0.317519 0)
(-0.00866955 -0.280534 0)
(0.0160771 -0.242766 0)
(0.00755873 0.343704 0)
(0.00893822 0.257213 0)
(-0.0197177 0.279179 0)
(-0.0247622 0.275739 0)
(-0.0356389 0.26239 0)
(-0.0477722 0.245507 0)
(-0.0608243 0.229362 0)
(-0.0736325 0.215996 0)
(-0.0882758 0.201641 0)
(-0.105611 0.182211 0)
(-0.123292 0.159424 0)
(-0.139961 0.138381 0)
(-0.155923 0.121194 0)
(-0.171683 0.1075 0)
(-0.196298 0.0902593 0)
(-0.218249 0.0705362 0)
(-0.225939 0.0560398 0)
(-0.22902 0.0438119 0)
(-0.230292 0.0329029 0)
(-0.230266 0.0230182 0)
(-0.228563 0.013043 0)
(-0.225624 0.00208705 0)
(-0.222819 -0.00849652 0)
(-0.220007 -0.0176791 0)
(-0.216328 -0.0262956 0)
(-0.211518 -0.035781 0)
(-0.206096 -0.0459337 0)
(-0.200474 -0.055301 0)
(-0.194631 -0.0636254 0)
(-0.188587 -0.0715568 0)
(-0.1826 -0.0796475 0)
(-0.177154 -0.0877581 0)
(-0.173173 -0.0957388 0)
(-0.17232 -0.104227 0)
(-0.183935 -0.112912 0)
(-0.258561 -0.111168 0)
(-0.36097 -0.120051 0)
(-0.245899 -0.360409 0)
(-0.17607 -0.430054 0)
(-0.121215 -0.414038 0)
(-0.0873109 -0.361579 0)
(-0.0665284 -0.318225 0)
(-0.039054 -0.295914 0)
(0.324572 -0.47208 0)
(0.0247567 0.3045 0)
(0.0164011 0.270551 0)
(-0.000322898 0.275854 0)
(-0.000417626 0.270739 0)
(-0.00381144 0.259677 0)
(-0.0086784 0.245657 0)
(-0.0150652 0.231201 0)
(-0.0218079 0.217318 0)
(-0.0297793 0.201676 0)
(-0.040763 0.183367 0)
(-0.0546198 0.163417 0)
(-0.0699969 0.144799 0)
(-0.0856256 0.129942 0)
(-0.099898 0.119494 0)
(-0.114021 0.108813 0)
(-0.129387 0.0908371 0)
(-0.143179 0.0676513 0)
(-0.155555 0.0490141 0)
(-0.166026 0.0347987 0)
(-0.175325 0.0223807 0)
(-0.184993 0.0103242 0)
(-0.20163 -0.00204904 0)
(-0.207876 -0.0134247 0)
(-0.209559 -0.0229291 0)
(-0.207921 -0.0311203 0)
(-0.20347 -0.0397473 0)
(-0.198338 -0.049391 0)
(-0.1936 -0.0585239 0)
(-0.188612 -0.066846 0)
(-0.183111 -0.074863 0)
(-0.177699 -0.0830108 0)
(-0.173563 -0.091032 0)
(-0.174577 -0.098144 0)
(-0.19268 -0.100603 0)
(-0.332574 -0.0675768 0)
(-0.681682 0.0682937 0)
(-0.299219 -0.284673 0)
(-0.247049 -0.408058 0)
(-0.20732 -0.46106 0)
(-0.173854 -0.443877 0)
(-0.144783 -0.376545 0)
(-0.110821 -0.342828 0)
(0.140562 -0.596924 0)
(0.345436 -0.659072 0)
(0.018113 0.290957 0)
(0.0166425 0.283314 0)
(0.0127866 0.279789 0)
(0.016928 0.272221 0)
(0.0194919 0.261727 0)
(0.0204567 0.248953 0)
(0.0194877 0.235223 0)
(0.0172708 0.221217 0)
(0.0137883 0.206072 0)
(0.00794047 0.189274 0)
(-0.000883588 0.171647 0)
(-0.0122656 0.154775 0)
(-0.0248774 0.140401 0)
(-0.0367173 0.128869 0)
(-0.0476321 0.116444 0)
(-0.0596029 0.0990197 0)
(-0.0736221 0.0785276 0)
(-0.0887553 0.0606468 0)
(-0.10349 0.0465544 0)
(-0.117292 0.0351993 0)
(-0.130014 0.0247732 0)
(-0.143685 0.0112834 0)
(-0.155858 -0.00596974 0)
(-0.167542 -0.0220086 0)
(-0.178212 -0.0361884 0)
(-0.188605 -0.0490549 0)
(-0.200627 -0.0599009 0)
(-0.216069 -0.0687664 0)
(-0.236911 -0.0765391 0)
(-0.266211 -0.0828771 0)
(-0.308491 -0.0867359 0)
(-0.37145 -0.0848944 0)
(-0.466573 -0.0619884 0)
(-0.596563 0.0262473 0)
(-0.727638 0.138959 0)
(-0.744431 0.0605365 0)
(-0.339334 -0.421424 0)
(-0.267712 -0.464246 0)
(-0.242295 -0.492544 0)
(-0.220302 -0.47411 0)
(-0.192816 -0.411337 0)
(0.0440558 -0.555827 0)
(0.143475 -0.723369 0)
(0.227598 -0.712252 0)
(0.0104104 0.281097 0)
(0.0168226 0.28397 0)
(0.0216469 0.277335 0)
(0.0293708 0.269088 0)
(0.0361547 0.25926 0)
(0.0414497 0.247812 0)
(0.0448256 0.235387 0)
(0.0464869 0.222466 0)
(0.0465888 0.20881 0)
(0.0446542 0.19415 0)
(0.0400738 0.178741 0)
(0.0328555 0.163526 0)
(0.0238506 0.149615 0)
(0.0145424 0.137216 0)
(0.00558338 0.124284 0)
(-0.00448997 0.108305 0)
(-0.0171464 0.090396 0)
(-0.0321035 0.0736754 0)
(-0.0479052 0.0596013 0)
(-0.0634763 0.0479091 0)
(-0.0783102 0.037028 0)
(-0.0933625 0.0240098 0)
(-0.109394 0.00869871 0)
(-0.12702 -0.00569997 0)
(-0.145872 -0.0179571 0)
(-0.166546 -0.0278607 0)
(-0.190616 -0.0347779 0)
(-0.220114 -0.0380954 0)
(-0.257818 -0.0372299 0)
(-0.307593 -0.0308216 0)
(-0.374355 -0.0167249 0)
(-0.463707 0.00870204 0)
(-0.5784 0.053398 0)
(-0.701605 0.115848 0)
(-0.780332 0.115939 0)
(-0.711363 -0.12898 0)
(-0.507625 -0.560824 0)
(-0.365449 -0.555443 0)
(-0.301101 -0.541473 0)
(-0.26863 -0.528494 0)
(-0.19628 -0.500536 0)
(0.0961096 -0.637412 0)
(0.036597 -0.777248 0)
(0.0645623 -0.707321 0)
(0.0075976 0.269388 0)
(0.018043 0.276762 0)
(0.0275639 0.269496 0)
(0.0380286 0.261523 0)
(0.0477575 0.252618 0)
(0.0561661 0.242591 0)
(0.0628429 0.231714 0)
(0.0677362 0.220281 0)
(0.0708715 0.20829 0)
(0.0720377 0.195601 0)
(0.0708693 0.182322 0)
(0.0672646 0.168951 0)
(0.0616774 0.156126 0)
(0.0549994 0.143975 0)
(0.0477793 0.131453 0)
(0.0392452 0.117181 0)
(0.0281839 0.101528 0)
(0.0145141 0.0863302 0)
(-0.000778163 0.0728041 0)
(-0.0166915 0.0609976 0)
(-0.0326983 0.0498923 0)
(-0.0494213 0.0377398 0)
(-0.0680417 0.0245048 0)
(-0.0892816 0.0121866 0)
(-0.113183 0.00219252 0)
(-0.140268 -0.00460955 0)
(-0.171733 -0.00717214 0)
(-0.209282 -0.00425496 0)
(-0.255237 0.00557876 0)
(-0.312411 0.0241754 0)
(-0.383457 0.0534402 0)
(-0.469132 0.0944895 0)
(-0.563043 0.143804 0)
(-0.641674 0.17409 0)
(-0.665809 0.0836059 0)
(-0.543967 -0.305678 0)
(-0.457997 -0.616396 0)
(-0.4225 -0.629048 0)
(-0.377928 -0.61532 0)
(-0.333323 -0.624957 0)
(-0.278727 -0.654688 0)
(-0.0662766 -0.673279 0)
(-0.139652 -0.8124 0)
(-0.107646 -0.705226 0)
(0.00745512 0.258338 0)
(0.019519 0.267026 0)
(0.0314923 0.259523 0)
(0.0438304 0.251907 0)
(0.0555469 0.243825 0)
(0.0661187 0.235032 0)
(0.0751761 0.225596 0)
(0.0825524 0.215652 0)
(0.0881722 0.205241 0)
(0.0918911 0.194333 0)
(0.0934932 0.182989 0)
(0.0928793 0.171456 0)
(0.0902568 0.160061 0)
(0.0860997 0.14887 0)
(0.0807174 0.137364 0)
(0.0737138 0.124804 0)
(0.0643106 0.111336 0)
(0.0523098 0.097998 0)
(0.0382579 0.0856564 0)
(0.0228637 0.0744807 0)
(0.00651242 0.0639324 0)
(-0.0112076 0.0531174 0)
(-0.0312845 0.0421242 0)
(-0.0544311 0.032317 0)
(-0.0809125 0.025105 0)
(-0.111164 0.021746 0)
(-0.145975 0.0236483 0)
(-0.186418 0.0324027 0)
(-0.233761 0.0496945 0)
(-0.289041 0.0770438 0)
(-0.35212 0.114837 0)
(-0.419751 0.160082 0)
(-0.480903 0.199984 0)
(-0.514569 0.194297 0)
(-0.501063 0.0483978 0)
(-0.451545 -0.367146 0)
(-0.426925 -0.618785 0)
(-0.420938 -0.643354 0)
(-0.399047 -0.648126 0)
(-0.37336 -0.657883 0)
(-0.360266 -0.664975 0)
(-0.348419 -0.630704 0)
(-0.301992 -0.861321 0)
(-0.263401 -0.745295 0)
(-0.137999 -0.0768131 0)
(0.00794274 0.247122 0)
(0.0208357 0.256057 0)
(0.0341557 0.248391 0)
(0.0476423 0.241073 0)
(0.0606021 0.233683 0)
(0.0725845 0.225926 0)
(0.0832673 0.217757 0)
(0.0924433 0.209212 0)
(0.0999784 0.200309 0)
(0.105738 0.191048 0)
(0.109567 0.181464 0)
(0.111375 0.171679 0)
(0.111226 0.161846 0)
(0.109328 0.151984 0)
(0.105815 0.141838 0)
(0.100452 0.131052 0)
(0.092771 0.119703 0)
(0.0825742 0.108378 0)
(0.0701153 0.097655 0)
(0.0558105 0.0877465 0)
(0.0398826 0.0784489 0)
(0.0220474 0.0694085 0)
(0.00160938 0.0608624 0)
(-0.0220146 0.0538712 0)
(-0.0491211 0.0497557 0)
(-0.0799944 0.0499105 0)
(-0.115007 0.0558799 0)
(-0.154527 0.0692948 0)
(-0.198717 0.0916134 0)
(-0.247038 0.123485 0)
(-0.297388 0.163273 0)
(-0.344824 0.204073 0)
(-0.379128 0.227683 0)
(-0.385771 0.193084 0)
(-0.367565 0.0292591 0)
(-0.384995 -0.318495 0)
(-0.415798 -0.626803 0)
(-0.417704 -0.653108 0)
(-0.407993 -0.662638 0)
(-0.393649 -0.671131 0)
(-0.387583 -0.676412 0)
(-0.386544 -0.676618 0)
(-0.362253 -0.882622 0)
(-0.388167 -0.821531 0)
(-0.214002 -0.114897 0)
(0.00840284 0.235029 0)
(0.0218679 0.244059 0)
(0.0359609 0.236396 0)
(0.050083 0.229376 0)
(0.0637406 0.222595 0)
(0.0765602 0.215728 0)
(0.0882727 0.208669 0)
(0.0986717 0.201391 0)
(0.107599 0.193885 0)
(0.114913 0.186141 0)
(0.120482 0.178174 0)
(0.12421 0.170036 0)
(0.12608 0.161792 0)
(0.126145 0.15344 0)
(0.124422 0.144857 0)
(0.120746 0.135887 0)
(0.11482 0.126593 0)
(0.106473 0.117324 0)
(0.0957877 0.108465 0)
(0.0829652 0.100235 0)
(0.068102 0.0926426 0)
(0.0509959 0.0856639 0)
(0.0311927 0.0796517 0)
(0.00828594 0.0755066 0)
(-0.0179335 0.0744323 0)
(-0.0475564 0.0777861 0)
(-0.0805703 0.0870387 0)
(-0.116742 0.103607 0)
(-0.155391 0.128444 0)
(-0.19499 0.161173 0)
(-0.232632 0.198411 0)
(-0.263576 0.230841 0)
(-0.281087 0.238628 0)
(-0.278897 0.185769 0)
(-0.268549 0.0230229 0)
(-0.304445 -0.273186 0)
(-0.410641 -0.595393 0)
(-0.41578 -0.660834 0)
(-0.411939 -0.671097 0)
(-0.406008 -0.678569 0)
(-0.402353 -0.681203 0)
(-0.40792 -0.686559 0)
(-0.417089 -0.785915 0)
(-0.501047 -0.891259 0)
(-0.311595 -0.208297 0)
(0.00870685 0.222342 0)
(0.0225632 0.231338 0)
(0.0371037 0.22385 0)
(0.0515289 0.217161 0)
(0.0655096 0.210931 0)
(0.0787537 0.204836 0)
(0.091049 0.198741 0)
(0.102212 0.192585 0)
(0.112083 0.186334 0)
(0.120523 0.179964 0)
(0.127404 0.17347 0)
(0.132622 0.166867 0)
(0.136113 0.160175 0)
(0.137844 0.153386 0)
(0.137765 0.146442 0)
(0.135733 0.139286 0)
(0.131542 0.131982 0)
(0.125044 0.124751 0)
(0.116226 0.117868 0)
(0.105154 0.111543 0)
(0.0918441 0.105907 0)
(0.0761531 0.101118 0)
(0.0578035 0.0975964 0)
(0.0365568 0.0961367 0)
(0.0123389 0.097804 0)
(-0.0147475 0.103818 0)
(-0.0443852 0.115439 0)
(-0.0759249 0.13373 0)
(-0.108201 0.159063 0)
(-0.139292 0.190189 0)
(-0.166361 0.222635 0)
(-0.185844 0.246298 0)
(-0.194568 0.242545 0)
(-0.192804 0.182598 0)
(-0.193955 0.033618 0)
(-0.238027 -0.212076 0)
(-0.355934 -0.487276 0)
(-0.413943 -0.661296 0)
(-0.413128 -0.67652 0)
(-0.411336 -0.681511 0)
(-0.411879 -0.680224 0)
(-0.416248 -0.67824 0)
(-0.426754 -0.701678 0)
(-0.574226 -0.922528 0)
(-0.455504 -0.342539 0)
(0.00885925 0.209327 0)
(0.0229319 0.218141 0)
(0.0376985 0.210987 0)
(0.0522084 0.204682 0)
(0.0662624 0.198973 0)
(0.0796455 0.19356 0)
(0.0922025 0.188304 0)
(0.103783 0.183128 0)
(0.114243 0.177985 0)
(0.12345 0.172839 0)
(0.131281 0.167672 0)
(0.137628 0.162477 0)
(0.1424 0.157253 0)
(0.14552 0.151992 0)
(0.146901 0.146668 0)
(0.146412 0.141274 0)
(0.143889 0.135871 0)
(0.139198 0.130618 0)
(0.132281 0.125721 0)
(0.123127 0.121381 0)
(0.111711 0.117785 0)
(0.0979325 0.115185 0)
(0.0816421 0.114017 0)
(0.0627405 0.114981 0)
(0.0412819 0.11899 0)
(0.0175282 0.12707 0)
(-0.00800044 0.140216 0)
(-0.0344299 0.159105 0)
(-0.0604187 0.183592 0)
(-0.0840855 0.211857 0)
(-0.103122 0.239018 0)
(-0.115364 0.255391 0)
(-0.120284 0.244878 0)
(-0.121804 0.185421 0)
(-0.133071 0.0550198 0)
(-0.179485 -0.151418 0)
(-0.282367 -0.401965 0)
(-0.403711 -0.631394 0)
(-0.410903 -0.676043 0)
(-0.412188 -0.680136 0)
(-0.41637 -0.67566 0)
(-0.422048 -0.668026 0)
(-0.441412 -0.671068 0)
(-0.580218 -0.861148 0)
(-0.596477 -0.472513 0)
(0.00889048 0.196128 0)
(0.0230134 0.204639 0)
(0.0378298 0.197958 0)
(0.0522698 0.192102 0)
(0.0662302 0.186908 0)
(0.0795605 0.182114 0)
(0.0921563 0.177595 0)
(0.103903 0.173275 0)
(0.114681 0.169101 0)
(0.124371 0.165035 0)
(0.132861 0.161048 0)
(0.14004 0.157126 0)
(0.145809 0.153256 0)
(0.150071 0.149432 0)
(0.152722 0.145648 0)
(0.153638 0.141917 0)
(0.152678 0.138299 0)
(0.149722 0.134918 0)
(0.14469 0.131939 0)
(0.137534 0.129549 0)
(0.128214 0.127957 0)
(0.116667 0.127441 0)
(0.102831 0.128423 0)
(0.086713 0.131503 0)
(0.0684668 0.137435 0)
(0.0484567 0.147036 0)
(0.0273086 0.161024 0)
(0.00596383 0.179739 0)
(-0.0142709 0.202668 0)
(-0.0317839 0.2277 0)
(-0.0449313 0.250078 0)
(-0.0527272 0.261179 0)
(-0.05623 0.247761 0)
(-0.060597 0.193086 0)
(-0.0770152 0.0819941 0)
(-0.121858 -0.0889646 0)
(-0.208714 -0.303032 0)
(-0.334667 -0.52863 0)
(-0.40585 -0.67301 0)
(-0.411837 -0.677243 0)
(-0.41744 -0.668443 0)
(-0.426882 -0.655164 0)
(-0.441591 -0.643896 0)
(-0.489345 -0.696412 0)
(-0.658724 -0.593226 0)
(0.00882413 0.18288 0)
(0.0228465 0.190987 0)
(0.037563 0.184884 0)
(0.051817 0.179537 0)
(0.0655694 0.17486 0)
(0.0787187 0.170644 0)
(0.0912031 0.166783 0)
(0.102942 0.163213 0)
(0.113841 0.159886 0)
(0.123802 0.156764 0)
(0.132721 0.153818 0)
(0.140498 0.151028 0)
(0.14703 0.148381 0)
(0.152219 0.145873 0)
(0.155956 0.143508 0)
(0.158125 0.141308 0)
(0.158603 0.139331 0)
(0.15728 0.137678 0)
(0.154072 0.13649 0)
(0.14892 0.135936 0)
(0.141782 0.13622 0)
(0.132628 0.137616 0)
(0.121456 0.1405 0)
(0.108343 0.145375 0)
(0.0935102 0.152838 0)
(0.0773695 0.163503 0)
(0.0605674 0.177845 0)
(0.0440091 0.195932 0)
(0.0288452 0.217035 0)
(0.0163343 0.239003 0)
(0.00750701 0.257507 0)
(0.00250255 0.265222 0)
(-0.000549519 0.251514 0)
(-0.00691568 0.203544 0)
(-0.0260197 0.110017 0)
(-0.0697581 -0.0327421 0)
(-0.146857 -0.217184 0)
(-0.258826 -0.429892 0)
(-0.391994 -0.63362 0)
(-0.412564 -0.669077 0)
(-0.418722 -0.659588 0)
(-0.429531 -0.641778 0)
(-0.442139 -0.622836 0)
(-0.472834 -0.620461 0)
(-0.623612 -0.65323 0)
(0.0086771 0.169711 0)
(0.022467 0.177331 0)
(0.0369536 0.171872 0)
(0.0509293 0.167074 0)
(0.0643926 0.16292 0)
(0.0772757 0.159248 0)
(0.0895496 0.155983 0)
(0.101163 0.153075 0)
(0.112047 0.150487 0)
(0.122122 0.148188 0)
(0.1313 0.14615 0)
(0.13949 0.144356 0)
(0.146599 0.142795 0)
(0.152532 0.141465 0)
(0.157187 0.140374 0)
(0.160457 0.139552 0)
(0.162236 0.13905 0)
(0.162425 0.138958 0)
(0.160945 0.139393 0)
(0.157739 0.140506 0)
(0.152775 0.142484 0)
(0.146046 0.145573 0)
(0.137591 0.150094 0)
(0.12753 0.15645 0)
(0.116115 0.165097 0)
(0.103766 0.176469 0)