/*--------------------------------*- C++ -*----------------------------------*\
| =========                 |                                                 |
| \\      /  F ield         | OpenFOAM: The Open Source CFD Toolbox           |
|  \\    /   O peration     | Version:  5.0                                   |
|   \\  /    A nd           | Web:      www.OpenFOAM.org                      |
|    \\/     M anipulation  |                                                 |
\*---------------------------------------------------------------------------*/
FoamFile
{
    version     2.0;
    format      ascii;
    class       volScalarField;
    location    "0.65";
    object      alpha.water;
}
// * * * * * * * * * * * * * * * * * * * * * * * * * * * * * * * * * * * * * //

dimensions      [0 0 0 0 0 0 0];

internalField   nonuniform List<scalar> 
1915
(
-6.66176e-18
-6.35165e-18
-5.58658e-18
-4.57465e-18
-3.52407e-18
-2.58184e-18
-1.81796e-18
-1.24208e-18
-8.30414e-19
-5.47126e-19
-3.92232e-19
-4.91846e-19
-1.0377e-18
-2.87219e-18
-9.00723e-18
-2.95743e-17
-9.75975e-17
-3.18131e-16
-1.00834e-15
-3.11105e-15
-9.38878e-15
-2.79972e-14
-8.30677e-14
-2.39168e-13
-6.42639e-13
-1.07428e-25
-5.2793e-25
-2.68436e-24
-1.17626e-23
-4.49946e-23
-1.47525e-22
-4.15638e-22
-1.04225e-21
-2.46453e-21
-5.80811e-21
-1.38989e-20
-3.29139e-20
-7.38798e-20
-1.51898e-19
-2.81253e-19
-4.66613e-19
-6.934e-19
-9.2385e-19
-1.10579e-18
-1.19218e-18
-1.16171e-18
-1.02811e-18
-8.32055e-19
-6.21388e-19
-4.32933e-19
-2.84796e-19
-1.79023e-19
-1.08726e-19
-6.44028e-20
-3.74015e-20
-2.2484e-20
-2.62065e-20
-6.31957e-20
-2.04882e-19
-7.38185e-19
-2.78391e-18
-1.05921e-17
-3.8674e-17
-1.33836e-16
-4.38685e-16
-1.34191e-15
-4.5893e-15
-1.79828e-14
-6.63204e-14
-2.20992e-13
-2.32372e-26
-1.14126e-25
-5.87607e-25
-2.6065e-24
-9.94316e-24
-3.20719e-23
-8.83776e-23
-2.17201e-22
-5.07768e-22
-1.19558e-21
-2.87153e-21
-6.79963e-21
-1.51338e-20
-3.0556e-20
-5.50958e-20
-8.84126e-20
-1.26326e-19
-1.60853e-19
-1.82846e-19
-1.85948e-19
-1.69599e-19
-1.39252e-19
-1.03536e-19
-7.03132e-20
-4.41134e-20
-2.59063e-20
-1.44354e-20
-7.725e-21
-3.99113e-21
-1.91502e-21
-5.78496e-22
1.0265e-22
7.53609e-21
5.21503e-20
3.05883e-19
1.62194e-18
7.89249e-18
3.63452e-17
1.75936e-16
8.37504e-16
3.48757e-15
1.19702e-14
3.23138e-14
6.1644e-14
5.8761e-14
-4.24219e-27
-2.07968e-26
-1.08383e-25
-4.84747e-25
-1.83546e-24
-5.798e-24
-1.55317e-23
-3.7052e-23
-8.45288e-23
-1.96357e-22
-4.69908e-22
-1.11235e-21
-2.46512e-21
-4.9121e-21
-8.66325e-21
-1.34966e-20
-1.86013e-20
-2.26913e-20
-2.45436e-20
-2.35831e-20
-2.01599e-20
-1.53683e-20
-1.04953e-20
-6.47136e-21
-3.64418e-21
-1.90108e-21
-9.32221e-22
-4.32362e-22
-1.7856e-22
-2.14821e-23
1.40515e-22
1.87262e-21
1.31423e-20
8.93275e-20
5.50537e-19
3.07519e-18
1.58563e-17
7.93877e-17
4.08136e-16
2.08098e-15
9.51264e-15
3.62156e-14
1.12197e-13
2.82884e-13
5.72492e-13
-6.273e-28
-3.06603e-27
-1.61529e-26
-7.25408e-26
-2.71307e-25
-8.34207e-25
-2.14954e-24
-4.88563e-24
-1.0593e-23
-2.3673e-23
-5.58138e-23
-1.3279e-22
-2.97075e-22
-5.91828e-22
-1.03113e-21
-1.57118e-21
-2.10121e-21
-2.46549e-21
-2.54426e-21
-2.31495e-21
-1.85835e-21
-1.3172e-21
-8.26681e-22
-4.62353e-22
-2.33024e-22
-1.07378e-22
-4.55975e-23
-1.66158e-23
-2.70288e-25
1.61417e-23
2.3638e-22
1.88112e-21
1.48085e-20
1.07086e-19
7.10284e-19
4.24037e-18
2.31018e-17
1.22335e-16
6.71045e-16
3.70576e-15
1.8341e-14
7.44021e-14
2.42089e-13
6.41048e-13
1.37482e-12
-7.04367e-29
-3.42739e-28
-1.82172e-27
-8.17895e-27
-3.00474e-26
-8.91148e-26
-2.16786e-25
-4.52053e-25
-8.74091e-25
-1.74774e-24
-3.91723e-24
-9.57907e-24
-2.27014e-23
-4.70241e-23
-8.31025e-23
-1.26011e-22
-1.65673e-22
-1.88384e-22
-1.86077e-22
-1.60625e-22
-1.21259e-22
-7.99908e-23
-4.61362e-23
-2.33665e-23
-1.04916e-23
-4.20703e-24
-1.40173e-24
3.87052e-27
1.39886e-24
2.23908e-23
1.97015e-22
1.78258e-21
1.50071e-20
1.1887e-19
8.57741e-19
5.45165e-18
3.14444e-17
1.77357e-16
1.04607e-15
6.30908e-15
3.35845e-14
1.43493e-13
4.83352e-13
1.30336e-12
2.78858e-12
-5.33851e-30
-2.58142e-29
-1.38072e-28
-6.16819e-28
-2.21036e-27
-6.23498e-27
-1.38439e-26
-2.43062e-26
-3.36713e-26
-3.65339e-26
-3.82027e-26
-1.33815e-25
-5.96155e-25
-1.67284e-24
-3.40763e-24
-5.47646e-24
-7.3925e-24
-8.3351e-24
-7.91859e-24
-6.47944e-24
-4.58711e-24
-2.80558e-24
-1.47978e-24
-6.7362e-25
-2.64608e-25
-8.27758e-26
9.86735e-28
9.82926e-26
1.54961e-24
1.46092e-23
1.50078e-22
1.42525e-21
1.28866e-20
1.09582e-19
8.52733e-19
6.02489e-18
3.88384e-17
2.41524e-16
1.51732e-15
9.74528e-15
5.71036e-14
2.61684e-13
9.17206e-13
2.53062e-12
5.36824e-12
-2.04841e-31
-9.82263e-31
-5.27058e-30
-2.33054e-29
-8.07323e-29
-2.12334e-28
-4.09232e-28
-5.21255e-28
-2.28963e-28
8.07833e-28
1.18696e-26
3.37762e-26
4.46862e-26
4.20777e-26
3.42346e-27
-3.03042e-26
-7.71309e-26
-1.11242e-25
-1.05199e-25
-7.98503e-26
-5.09182e-26
-2.74349e-26
-1.24488e-26
-4.67097e-27
-1.21605e-27
1.95449e-28
6.43778e-27
7.59542e-26
7.73502e-25
9.04061e-24
9.60805e-23
9.69305e-22
9.3414e-21
8.55968e-20
7.27844e-19
5.52096e-18
3.75262e-17
2.48661e-16
1.85016e-15
1.40785e-14
8.71698e-14
4.26375e-13
1.59839e-12
4.6042e-12
9.90352e-12
-2.49582e-48
2.01547e-48
4.84627e-47
-1.31445e-50
-9.1075e-57
-2.76314e-47
-3.49481e-45
-7.10107e-43
-1.18611e-40
4.78907e-35
6.99372e-31
7.53106e-29
5.10416e-28
4.11587e-28
3.2577e-28
1.82624e-27
1.89913e-27
5.17066e-28
4.27231e-29
1.07217e-29
3.55466e-30
1.63379e-30
1.14769e-30
1.63807e-30
2.16815e-29
2.47504e-28
2.32855e-27
3.05813e-26
4.03061e-25
4.77821e-24
5.33858e-23
5.65713e-22
5.77484e-21
5.65074e-20
5.13258e-19
4.18331e-18
3.09599e-17
2.26194e-16
1.79843e-15
1.55689e-14
1.20772e-13
6.32682e-13
2.46887e-12
7.48709e-12
1.68789e-11
-4.66587e-49
-9.53154e-52
7.34397e-52
8.063e-54
-5.44326e-51
-1.37221e-48
-2.9426e-46
8.51794e-41
6.14271e-39
2.77625e-38
2.07567e-38
3.06829e-38
6.71277e-36
1.11105e-34
6.09751e-34
2.18506e-33
4.83529e-33
1.80099e-37
4.06108e-38
1.08052e-36
2.55303e-35
5.41122e-34
1.07065e-32
2.01152e-31
3.52765e-30
5.92452e-29
9.48824e-28
1.36457e-26
1.79761e-25
2.23456e-24
2.60277e-23
2.88419e-22
3.09616e-21
3.21403e-20
3.10898e-19
2.69203e-18
2.12928e-17
1.7065e-16
1.53173e-15
1.47349e-14
1.24802e-13
8.17644e-13
3.55553e-12
1.13114e-11
2.64646e-11
-5.01085e-50
-1.00912e-52
-1.57609e-54
-6.69012e-55
-1.59702e-52
-3.44888e-50
-6.26437e-48
3.15407e-45
2.75268e-42
7.14122e-41
4.75545e-40
9.49462e-40
7.19647e-40
1.55862e-40
1.33123e-40
1.19495e-40
1.24663e-40
4.265e-40
1.52304e-38
4.50931e-37
1.05475e-35
2.28068e-34
4.54152e-33
8.42762e-32
1.4615e-30
2.36093e-29
3.59446e-28
5.2302e-27
7.20379e-26
9.2863e-25
1.1248e-23
1.29659e-22
1.4531e-21
1.59089e-20
1.64191e-19
1.52078e-18
1.27579e-17
1.08217e-16
1.07351e-15
1.20375e-14
1.17094e-13
8.17282e-13
4.08279e-12
1.48484e-11
3.93603e-11
-2.62264e-51
-4.34594e-54
-3.48755e-54
-1.80603e-53
-7.42319e-54
-2.50126e-58
1.04089e-52
4.77106e-50
3.16521e-46
5.59078e-44
7.92076e-43
3.2357e-42
6.96627e-42
1.05112e-41
1.22383e-41
1.32142e-41
1.72547e-41
1.45981e-40
4.63036e-39
1.20735e-37
2.92399e-36
6.44929e-35
1.3078e-33
2.48466e-32
4.46345e-31
7.57736e-30
1.21116e-28
1.82145e-27
2.58253e-26
3.44928e-25
4.33698e-24
5.18605e-23
6.02666e-22
6.89007e-21
7.53552e-20
7.48622e-19
6.72184e-18
6.0167e-17
6.36076e-16
8.18125e-15
9.57278e-14
7.58887e-13
3.96792e-12
1.49326e-11
4.46621e-11
-3.83677e-61
-9.26849e-60
-6.01566e-59
0
-5.29989e-65
5.13084e-57
1.13434e-54
4.35952e-52
6.99696e-49
1.02051e-45
2.81624e-44
1.61926e-43
3.93873e-43
6.21413e-43
8.0212e-43
9.99261e-43
1.84907e-42
3.76994e-41
1.19607e-39
3.28616e-38
8.21084e-37
1.85578e-35
3.83509e-34
7.36368e-33
1.33211e-31
2.2834e-30
3.71068e-29
5.71422e-28
8.33237e-27
1.14918e-25
1.49865e-24
1.8601e-23
2.2367e-22
2.64318e-21
3.01112e-20
3.16247e-19
3.03982e-18
2.92271e-17
3.32356e-16
4.82691e-15
6.72838e-14
6.23837e-13
3.56008e-12
1.40244e-11
4.31558e-11
-9.91982e-62
-2.7295e-60
-2.38073e-59
-2.97508e-59
-4.66977e-62
-8.06774e-58
-9.22526e-56
1.75325e-53
1.23163e-50
4.4751e-47
1.65473e-45
1.10854e-44
2.86194e-44
4.5107e-44
5.75985e-44
7.60221e-44
3.29252e-43
1.02781e-41
3.01844e-40
8.14649e-39
2.0449e-37
4.70583e-36
9.90527e-35
1.93143e-33
3.55324e-32
6.22008e-31
1.0342e-29
1.62884e-28
2.43149e-27
3.44614e-26
4.64897e-25
6.01047e-24
7.53447e-23
9.19316e-22
1.0685e-20
1.14556e-19
1.14699e-18
1.18782e-17
1.51575e-16
2.5782e-15
4.23154e-14
4.53114e-13
2.85668e-12
1.18238e-11
3.80144e-11
-1.19717e-62
-3.4976e-61
-3.5251e-60
-1.13438e-59
-1.86715e-61
3.20776e-60
8.11405e-58
3.18268e-55
1.4778e-52
7.95021e-49
4.9749e-47
4.38268e-46
1.29092e-45
2.17916e-45
3.05914e-45
5.51891e-45
7.89563e-44
2.52852e-42
7.10337e-41
1.90135e-39
4.77332e-38
1.11188e-36
2.3792e-35
4.70291e-34
8.75271e-33
1.55448e-31
2.63411e-30
4.23807e-29
6.4592e-28
9.3359e-27
1.29073e-25
1.73992e-24
2.31916e-23
2.98859e-22
3.51748e-21
3.66756e-20
3.58371e-19
3.83274e-18
5.6531e-17
1.22515e-15
2.44471e-14
2.96623e-13
2.04982e-12
8.91969e-12
2.93346e-11
-3.62286e-68
-3.25878e-67
-1.05734e-82
-1.53054e-73
4.65779e-65
4.50497e-62
1.13765e-59
4.74001e-57
1.36808e-54
1.00092e-50
1.30692e-48
1.60208e-47
5.42996e-47
9.8336e-47
1.57773e-46
5.77859e-46
1.83627e-44
5.64555e-43
1.57105e-41
4.14421e-40
1.03084e-38
2.41136e-37
5.23037e-36
1.0493e-34
1.9773e-33
3.55605e-32
6.12887e-31
1.00824e-29
1.56984e-28
2.29396e-27
3.18534e-26
4.42323e-25
6.45278e-24
9.33527e-23
1.14439e-21
1.11169e-20
9.58538e-20
9.49021e-19
1.5682e-17
4.78741e-16
1.2556e-14
1.75668e-13
1.33009e-12
6.14457e-12
2.02603e-11
-8.94734e-69
-1.20207e-67
-2.84129e-67
-1.94107e-70
-2.49253e-67
3.09041e-65
2.40131e-61
5.45502e-59
1.21052e-56
8.74198e-53
2.30788e-50
3.78901e-49
1.50251e-48
3.11862e-48
6.78561e-48
9.0203e-47
3.55907e-45
1.09023e-43
3.1015e-42
8.18363e-41
2.03174e-39
4.77086e-38
1.04819e-36
2.13725e-35
4.07734e-34
7.39775e-33
1.29246e-31
2.17974e-30
3.48808e-29
5.12752e-28
6.95639e-27
9.63634e-26
1.58425e-24
2.85689e-23
3.9126e-22
3.47426e-21
2.37178e-20
1.82092e-19
2.90888e-18
1.36493e-16
5.25037e-15
9.05044e-14
7.77435e-13
3.92752e-12
1.33675e-11
-9.60965e-70
-1.59551e-68
-8.40303e-68
-3.30243e-70
-2.66486e-68
4.4905e-66
5.88099e-64
1.18272e-61
2.35418e-59
2.1864e-55
1.79863e-52
4.32538e-51
2.30299e-50
6.97983e-50
3.93152e-49
1.53246e-47
5.7001e-46
1.80944e-44
5.30154e-43
1.42025e-41
3.55742e-40
8.42241e-39
1.8778e-37
3.90168e-36
7.54906e-35
1.37916e-33
2.43488e-32
4.22255e-31
7.0144e-30
1.0398e-28
1.34899e-27
1.79096e-26
3.39642e-25
8.67619e-24
1.42056e-22
1.1519e-21
5.82807e-21
2.89665e-20
3.2455e-19
2.4685e-17
1.58856e-15
3.73784e-14
3.94358e-13
2.30805e-12
8.66148e-12
-2.2928e-74
-1.94053e-73
-5.07235e-81
8.62786e-74
3.59883e-68
3.90962e-66
1.66136e-65
1.27159e-63
1.20381e-59
1.19071e-57
3.54298e-56
3.97557e-54
9.48728e-53
1.50181e-51
5.42343e-50
2.2553e-48
7.93074e-47
2.6075e-45
7.78975e-44
2.13032e-42
5.42652e-41
1.3037e-39
2.95886e-38
6.27463e-37
1.23292e-35
2.26832e-34
4.04026e-33
7.21529e-32
1.25513e-30
1.89205e-29
2.34349e-28
2.9238e-27
6.51274e-26
2.56176e-24
4.97775e-23
3.67152e-22
1.37291e-21
4.01982e-21
1.89699e-20
2.42769e-18
3.117e-16
1.12063e-14
1.61651e-13
1.1942e-12
5.31632e-12
-4.76248e-75
-3.68261e-74
-6.7987e-83
-3.60367e-76
6.35671e-69
9.91743e-66
2.78149e-64
6.06007e-64
2.18559e-60
2.99691e-58
4.4179e-57
3.39548e-56
2.65906e-54
1.75962e-52
8.12256e-51
2.89942e-49
1.02138e-47
3.34689e-46
1.00278e-44
2.78028e-43
7.19351e-42
1.75832e-40
4.06957e-39
8.80465e-38
1.75828e-36
3.26821e-35
5.88549e-34
1.0812e-32
1.97181e-31
3.05229e-30
3.68302e-29
4.38059e-28
1.14696e-26
6.52658e-25
1.37072e-23
9.06033e-23
2.57936e-22
4.54878e-22
4.32926e-22
9.9166e-20
3.74972e-17
2.26973e-15
4.91181e-14
5.0347e-13
2.87078e-12
-4.44948e-76
-2.98343e-75
-4.30249e-76
-2.80469e-74
1.36004e-71
4.96016e-67
2.53307e-64
5.78802e-63
4.04392e-62
1.42268e-60
7.5552e-59
6.81627e-57
4.38799e-55
2.1134e-53
8.72993e-52
3.42863e-50
1.21903e-48
3.88832e-47
1.15691e-45
3.21721e-44
8.3911e-43
2.08024e-41
4.90192e-40
1.0798e-38
2.19413e-37
4.15139e-36
7.62038e-35
1.43613e-33
2.7163e-32
4.34125e-31
5.27749e-30
6.21186e-29
1.78942e-27
1.14735e-25
2.26479e-24
1.32519e-23
3.26218e-23
5.00931e-23
3.02806e-23
1.12467e-21
2.81272e-18
3.11411e-16
1.03193e-14
1.56205e-13
1.22694e-12
-1.04329e-78
-3.62289e-87
1.53012e-79
1.3147e-75
2.9288e-72
1.19006e-67
2.81081e-65
4.9923e-64
3.1296e-63
2.91816e-61
1.51365e-59
7.27408e-58
3.67013e-56
1.77341e-54
8.59628e-53
3.6436e-51
1.28119e-49
4.04158e-48
1.19707e-46
3.32977e-45
8.71658e-44
2.17849e-42
5.19858e-41
1.1643e-39
2.4199e-38
4.71975e-37
8.95654e-36
1.72897e-34
3.31611e-33
5.43925e-32
6.90067e-31
8.34535e-30
2.11456e-28
1.14899e-26
2.19271e-25
1.31213e-24
3.40956e-24
5.66873e-24
5.9399e-24
1.70607e-23
1.69361e-19
3.24635e-17
1.48563e-15
3.26016e-14
3.69804e-13
-3.15584e-79
-1.55623e-88
1.12772e-80
7.50022e-77
1.60325e-73
7.19755e-69
2.35829e-66
4.63502e-65
3.10456e-64
2.34128e-62
1.32257e-60
7.38423e-59
3.94815e-57
1.87253e-55
8.20447e-54
3.28177e-52
1.15933e-50
3.6649e-49
1.08576e-47
3.045e-46
8.04767e-45
2.02167e-43
4.84888e-42
1.10395e-40
2.36949e-39
4.8244e-38
9.57622e-37
1.90006e-35
3.62078e-34
5.91055e-33
7.80109e-32
9.90565e-31
2.10664e-29
8.2827e-28
1.51798e-26
9.70436e-26
2.77922e-25
5.03616e-25
6.60646e-25
2.2369e-23
2.65936e-20
3.52533e-18
1.68366e-16
4.72129e-15
7.61938e-14
-4.48501e-80
-1.40037e-82
-3.73043e-80
8.22683e-78
6.71423e-73
5.45039e-70
8.3896e-68
1.93838e-66
1.88648e-65
1.64501e-63
1.12057e-61
6.43101e-60
3.17564e-58
1.44191e-56
6.35425e-55
2.57341e-53
9.0607e-52
2.85729e-50
8.51311e-49
2.4258e-47
6.53517e-46
1.65566e-44
3.97061e-43
9.16502e-42
2.04234e-40
4.34405e-39
8.94035e-38
1.81751e-36
3.4267e-35
5.36752e-34
6.99988e-33
9.27602e-32
1.85674e-30
5.26133e-29
8.24052e-28
5.19963e-27
1.5418e-26
2.87548e-26
3.57762e-26
2.17009e-23
9.21844e-21
5.92305e-19
2.11822e-17
6.07021e-16
1.2145e-14
-4.51583e-82
-7.94865e-85
3.51055e-81
4.37281e-77
1.91762e-72
1.96531e-70
1.85674e-69
5.13514e-69
1.02127e-66
8.82518e-65
6.84814e-63
4.20664e-61
2.13769e-59
9.73906e-58
4.10647e-56
1.60682e-54
5.7472e-53
1.8781e-51
5.71492e-50
1.6506e-48
4.54272e-47
1.17266e-45
2.82448e-44
6.57059e-43
1.51607e-41
3.34832e-40
6.91124e-39
1.37502e-37
2.499e-36
3.66886e-35
4.59703e-34
6.60951e-33
1.41586e-31
3.2709e-30
4.12894e-29
2.2013e-28
5.09316e-28
5.86594e-28
6.97148e-28
4.5222e-24
2.29628e-21
1.24762e-19
3.40829e-18
8.1319e-17
1.67274e-15
-2.00129e-82
-1.91319e-85
2.22801e-82
2.01828e-78
1.34243e-73
2.11197e-71
2.14643e-70
4.82663e-70
5.30243e-68
4.77524e-66
3.40963e-64
2.03718e-62
1.07309e-60
4.99834e-59
2.07443e-57
7.91673e-56
2.86623e-54
9.71734e-53
3.02379e-51
8.82025e-50
2.48425e-48
6.64305e-47
1.6286e-45
3.78123e-44
9.02632e-43
2.13994e-41
4.37806e-40
7.48574e-39
1.09333e-37
1.40008e-36
2.24738e-35
6.68843e-34
1.52996e-32
2.13502e-31
1.58099e-30
5.41377e-30
9.92142e-30
1.02221e-29
1.322e-29
2.72943e-25
3.48053e-22
2.16445e-20
5.53514e-19
1.11396e-17
2.23624e-16
-3.94122e-83
-2.65625e-87
-5.40049e-85
2.17636e-79
1.11919e-76
2.13257e-75
3.03785e-75
1.87945e-71
1.94866e-69
1.84652e-67
1.42713e-65
8.55167e-64
4.32034e-62
1.92919e-60
7.99582e-59
3.12144e-57
1.13285e-55
3.75935e-54
1.15404e-52
3.39794e-51
9.93236e-50
2.84226e-48
7.35031e-47
1.66231e-45
3.8042e-44
9.98818e-43
2.04893e-41
2.4467e-40
2.03649e-39
2.17672e-38
2.293e-36
1.53051e-34
1.96817e-33
7.5171e-33
1.41181e-32
1.79048e-32
1.71674e-32
2.46595e-32
4.98344e-31
8.60924e-27
3.95692e-23
3.01307e-21
8.12796e-20
1.52643e-18
2.81598e-17
0
-4.70719e-90
2.59371e-85
6.46166e-80
6.13218e-77
1.82757e-75
5.70996e-75
7.19982e-73
6.70336e-71
5.92423e-69
4.48831e-67
2.61976e-65
1.2935e-63
5.58331e-62
2.2431e-60
8.62194e-59
3.09874e-57
1.02033e-55
3.21918e-54
1.03002e-52
3.24069e-51
9.70309e-50
2.95355e-48
7.58744e-47
1.26867e-45
1.56046e-44
1.82214e-43
2.11316e-42
2.49674e-41
2.25095e-39
3.05947e-37
5.65361e-36
2.60922e-35
4.78219e-35
5.32754e-35
2.55405e-35
3.41773e-35
7.64999e-34
9.20937e-32
1.77029e-28
4.19607e-24
3.81541e-22
1.04878e-20
1.76845e-19
3.01033e-18
0
-1.13437e-89
8.29218e-86
1.74046e-80
4.28546e-78
4.83095e-77
7.79675e-77
2.53573e-74
2.24643e-72
1.48959e-70
8.94284e-69
4.7148e-67
2.30462e-65
1.05164e-63
4.47422e-62
1.75369e-60
6.20075e-59
2.00635e-57
6.77605e-56
2.95647e-54
1.38045e-52
3.73843e-51
5.45463e-50
6.05796e-49
7.76573e-48
1.40742e-46
2.90306e-45
5.33509e-44
1.04015e-42
5.72074e-41
3.90746e-39
6.95366e-38
3.25255e-37
5.79949e-37
6.32796e-37
6.01804e-37
1.11401e-36
6.61077e-35
7.18358e-33
9.27872e-30
3.22633e-25
3.93154e-23
1.24054e-21
2.14366e-20
3.15588e-19
-7.10608e-91
-9.30269e-95
4.39626e-92
6.00191e-89
9.74592e-86
9.92783e-81
4.23829e-78
3.60708e-76
2.73889e-74
1.86594e-72
1.13435e-70
6.26492e-69
3.19319e-67
1.52572e-65
6.59115e-64
2.41121e-62
8.13799e-61
3.75748e-59
2.48795e-57
9.53439e-56
1.74424e-54
2.12898e-53
2.61732e-52
4.29161e-51
9.15012e-50
2.09649e-48
4.39568e-47
1.16837e-45
6.29234e-44
5.65132e-42
1.05523e-40
4.44033e-40
6.89623e-40
6.58086e-40
4.9778e-40
7.31595e-40
2.2119e-38
1.9593e-36
1.70957e-34
2.75016e-31
1.79962e-26
3.26631e-24
1.21078e-22
2.24712e-21
3.14113e-20
-4.13593e-91
-8.808e-99
9.21275e-94
1.20892e-90
5.2461e-87
2.95536e-82
3.36303e-80
3.04867e-78
2.41829e-76
1.69351e-74
1.06037e-72
6.09825e-71
3.23832e-69
1.49607e-67
5.91073e-66
2.4746e-64
1.61505e-62
9.76222e-61
2.94219e-59
4.88428e-58
6.31102e-57
9.48213e-56
2.11072e-54
5.72115e-53
1.11473e-51
1.37464e-50
7.61238e-49
3.05686e-46
7.99721e-45
3.59688e-44
5.76821e-44
4.85373e-44
2.02726e-45
3.85508e-45
1.67019e-43
6.19572e-42
6.99862e-41
1.20234e-38
2.36451e-36
1.87654e-33
6.45079e-28
2.11138e-25
9.40046e-24
1.9575e-22
2.80856e-21
-1.49552e-91
-1.36078e-98
2.11469e-92
3.05433e-89
8.43793e-88
1.66929e-84
1.87428e-82
1.7482e-80
1.41816e-78
1.03031e-76
6.82823e-75
3.96708e-73
1.9456e-71
9.13015e-70
5.44122e-68
3.78437e-66
1.87815e-64
5.18904e-63
8.77221e-62
1.2834e-60
2.53936e-59
7.67615e-58
1.87707e-56
2.54433e-55
3.2903e-54
1.51992e-51
7.01919e-50
4.43059e-49
8.11539e-49
6.96352e-49
5.70842e-51
1.32577e-50
1.0249e-48
1.45669e-46
5.08793e-45
4.11627e-44
6.94988e-42
6.08208e-40
2.75633e-38
1.59974e-35
9.41391e-30
1.07726e-26
5.86183e-25
1.3838e-23
2.1007e-22
-2.65917e-92
-1.04508e-98
5.54738e-93
4.45801e-89
1.96177e-87
5.50918e-87
6.39123e-85
6.15645e-83
5.21671e-81
3.90508e-79
2.54662e-77
1.4778e-75
8.40205e-74
5.8139e-72
4.65777e-70
2.1462e-68
4.88456e-67
8.02912e-66
1.5682e-64
4.97467e-63
1.65261e-61
2.9394e-60
3.35987e-59
1.89542e-57
2.70221e-55
4.32387e-54
1.47402e-53
1.9686e-53
1.11052e-53
9.87948e-55
4.20155e-54
4.96111e-52
3.39812e-50
8.31937e-49
3.47878e-47
3.12039e-45
5.34035e-44
1.72404e-41
6.24437e-39
2.36486e-36
2.27764e-32
4.13651e-28
2.93991e-26
8.06024e-25
1.30459e-23
-3.33829e-95
-6.11969e-94
-1.61986e-93
-3.45114e-108
1.03823e-94
9.5306e-90
1.13176e-87
1.15048e-85
9.85837e-84
7.43892e-82
5.47736e-80
4.01783e-78
3.22546e-76
2.38659e-74
9.36009e-73
2.16467e-71
4.47563e-70
1.18605e-68
4.57898e-67
1.56324e-65
2.86487e-64
3.81879e-63
3.59922e-61
2.34003e-59
2.03724e-58
4.20108e-58
3.78943e-58
2.86082e-61
5.31867e-60
8.12172e-58
8.39369e-56
2.60302e-54
2.96742e-53
2.73927e-52
1.41578e-51
3.07271e-49
8.33997e-47
2.28917e-44
5.98161e-42
1.7333e-39
2.31241e-35
1.08146e-29
1.14209e-27
3.81849e-26
6.74293e-25
-5.61992e-96
-1.20947e-94
-4.11422e-94
-8.57129e-110
7.41103e-98
8.12236e-93
9.32276e-91
8.41663e-89
9.46114e-87
9.71472e-85
6.39133e-83
6.47491e-81
4.28593e-79
1.59612e-77
4.43519e-76
1.20509e-74
4.08877e-73
2.01733e-71
7.68979e-70
1.40459e-68
1.88975e-67
1.31572e-65
8.24955e-64
8.06552e-63
1.84503e-62
1.80535e-62
8.61594e-66
6.47814e-64
1.34327e-61
4.37873e-60
1.37074e-59
2.1032e-59
2.01895e-57
5.87283e-55
1.76893e-52
5.5109e-50
1.79693e-47
6.22734e-45
2.33756e-42
9.7246e-40
1.51965e-36
1.5548e-31
3.24285e-29
1.40918e-27
2.81629e-26
-6.61025e-99
-2.05039e-97
-9.63332e-97
-2.3663e-106
1.97138e-102
7.89118e-97
3.51654e-94
3.26441e-92
2.0164e-90
3.08606e-88
4.59107e-86
2.31768e-84
6.02018e-83
2.25882e-81
1.18898e-79
6.24364e-78
3.71388e-76
1.43258e-74
2.69458e-73
4.06711e-72
2.21766e-70
1.47719e-68
1.841e-67
5.10517e-67
5.47328e-67
7.50151e-73
2.82713e-68
3.35121e-66
4.09405e-65
1.48441e-65
7.62621e-64
2.29506e-61
7.03607e-59
2.15724e-56
6.65244e-54
2.0758e-51
6.59777e-49
2.152e-46
7.26382e-44
2.55667e-41
9.73429e-39
1.9586e-34
6.17076e-31
3.83559e-29
9.10295e-28
-6.71983e-106
-2.42798e-104
-6.47072e-104
-3.44351e-109
3.91839e-105
3.50524e-100
2.72897e-98
1.14884e-96
3.89706e-95
2.7975e-93
6.41643e-91
5.20976e-89
4.63384e-87
2.79403e-85
1.69473e-83
1.44064e-81
6.05903e-80
1.18328e-78
2.24445e-77
1.54437e-75
1.20587e-73
1.78418e-72
5.32705e-72
5.80371e-72
4.131e-81
1.88319e-78
8.38576e-76
3.3149e-73
1.21065e-70
4.30556e-68
1.49633e-65
5.0952e-63
1.70593e-60
5.63505e-58
1.84278e-55
5.98729e-53
1.93971e-50
6.28893e-48
2.04798e-45
6.72234e-43
2.22605e-40
2.65026e-37
6.70282e-33
7.03813e-31
2.15713e-29
-1.29903e-106
-4.51317e-105
-1.52116e-104
-7.34651e-105
1.52818e-110
1.58318e-105
1.41891e-103
2.01937e-101
1.75219e-99
1.88413e-97
1.43586e-95
1.37012e-93
1.14248e-91
7.23865e-90
4.54775e-88
1.80571e-86
5.96538e-85
2.94913e-83
2.15859e-81
1.7388e-79
3.67856e-78
1.47268e-77
1.84503e-77
1.76379e-87
1.03998e-84
5.94801e-82
3.25171e-79
1.70233e-76
8.54938e-74
4.12595e-71
1.91651e-68
8.58114e-66
3.70852e-63
1.54962e-60
6.26797e-58
2.45597e-55
9.32548e-53
3.43098e-50
1.22226e-47
4.2103e-45
1.39525e-42
7.41901e-40
2.55443e-35
7.31573e-33
3.4744e-31
-5.48127e-111
-1.03946e-109
-7.01926e-109
-2.59064e-108
4.30587e-117
1.25004e-111
2.74735e-109
2.53309e-107
2.23917e-105
2.61611e-103
2.47075e-101
3.36594e-99
3.05194e-97
1.33086e-95
6.71399e-94
5.4954e-92
3.72092e-90
2.67126e-88
2.66401e-86
3.97079e-85
9.28829e-85
4.08776e-86
2.3333e-94
4.92424e-91
3.93408e-88
2.94255e-85
2.09339e-82
1.41878e-79
9.17426e-77
5.66787e-74
3.35127e-71
1.89143e-68
8.57869e-66
3.70746e-63
1.54918e-60
6.26626e-58
2.45537e-55
9.32368e-53
3.4306e-50
1.22228e-47
4.21114e-45
1.39579e-42
7.96812e-40
2.09057e-35
4.3939e-33
-1.53682e-116
-1.69012e-115
-9.7323e-115
-2.85484e-114
-2.18399e-131
3.93943e-138
-9.03016e-130
-7.33329e-132
6.1576e-120
1.63774e-113
5.57483e-110
9.51791e-108
1.99765e-105
2.82811e-103
1.68259e-101
1.37681e-99
2.83303e-97
1.62047e-95
8.87616e-95
4.0124e-109
5.80557e-106
7.88387e-103
1.00646e-99
1.78402e-96
3.54169e-93
3.78922e-90
3.84104e-87
3.69434e-84
3.37579e-81
2.93405e-78
2.42801e-75
1.91468e-72
1.43979e-69
1.03289e-66
7.0703e-64
4.61721e-61
2.87495e-58
1.70501e-55
9.61522e-53
5.14449e-50
2.60365e-47
1.23863e-44
9.23246e-42
3.40359e-37
9.70226e-35
-4.25117e-123
-1.28882e-122
-2.80522e-122
-1.94793e-122
9.34868e-144
1.02445e-143
8.51764e-136
8.83655e-132
3.51826e-130
2.35372e-132
1.22586e-132
4.9095e-134
9.88758e-137
3.73722e-133
1.39672e-129
4.94665e-126
2.56627e-115
5.41959e-122
5.27239e-122
1.41923e-118
3.26687e-115
-7.68623e-109
-5.96114e-106
-2.74545e-102
1.6429e-101
3.56073e-98
6.16417e-95
1.00984e-91
1.56759e-88
2.3083e-85
3.22725e-82
4.28732e-79
5.41498e-76
6.50459e-73
7.43177e-70
8.07435e-67
8.33652e-64
8.17021e-61
7.58786e-58
6.66241e-55
5.5138e-52
4.27761e-49
4.88251e-45
9.4986e-40
4.71948e-37
-2.13959e-134
-2.24379e-134
-6.12568e-134
-1.28166e-133
1.60184e-147
3.85962e-147
4.00955e-144
4.17268e-139
1.22173e-133
1.77627e-131
6.39443e-131
9.73106e-134
1.3211e-138
9.75547e-137
3.73622e-133
8.08036e-126
6.58628e-123
5.41774e-122
6.47592e-130
3.08661e-127
-4.90691e-119
-2.79433e-115
-4.96659e-111
-1.4541e-116
-2.86009e-113
-6.79735e-110
-1.20206e-106
-2.32964e-103
-4.2615e-100
-7.3723e-97
-1.20802e-93
-1.87771e-90
-2.77222e-87
-3.89135e-84
-5.19852e-81
-6.61355e-78
-8.0167e-75
-9.26042e-72
-1.01917e-68
-1.06805e-65
-1.0645e-62
-1.00728e-59
-9.02686e-57
6.60357e-46
9.28312e-41
2.70843e-150
1.62077e-150
5.00313e-150
2.73569e-149
2.3357e-148
1.50305e-147
1.68771e-147
1.66899e-143
7.61937e-137
6.64721e-134
5.68246e-132
2.70736e-134
1.11122e-147
-2.07633e-139
-3.09e-135
3.84928e-126
7.88284e-123
8.25975e-122
-1.9732e-135
-2.69215e-127
8.46243e-122
1.17295e-119
-8.05606e-136
-3.5599e-132
-5.20858e-128
6.64339e-127
0
8.36793e-120
-8.033e-120
9.23147e-107
2.10876e-98
8.08936e-95
6.66012e-102
8.06417e-101
1.4424e-98
2.00131e-94
1.67051e-91
6.93281e-89
6.02623e-84
9.88561e-83
-8.28752e-81
5.92282e-74
-3.56919e-72
-5.19704e-69
-1.30676e-65
)
;

boundaryField
{
    leftWall
    {
        type            zeroGradient;
    }
    rightWall
    {
        type            zeroGradient;
    }
    lowerWall
    {
        type            zeroGradient;
    }
    atmosphere
    {
        type            inletOutlet;
        inletValue      uniform 0;
        value           uniform 0;
    }
    defaultFaces
    {
        type            empty;
    }
    procBoundary2to0
    {
        type            processor;
        value           nonuniform List<scalar> 
46
(
-3.2509e-17
-3.33287e-17
-3.17615e-17
-2.83926e-17
-2.40429e-17
-1.9478e-17
-1.5237e-17
-1.16036e-17
-8.66225e-18
-6.38221e-18
-5.25799e-18
-6.63899e-18
-1.22129e-17
-2.79981e-17
-7.25002e-17
-1.99635e-16
-5.60796e-16
-1.56898e-15
-4.32007e-15
-1.17896e-14
-3.18702e-14
-8.57004e-14
-2.28151e-13
-5.89582e-13
-1.42506e-12
-4.31336e-25
-2.11768e-24
-1.06403e-23
-4.58906e-23
-1.75148e-22
-5.81474e-22
-1.66905e-21
-4.25028e-21
-1.01002e-20
-2.3649e-20
-5.6028e-20
-1.32237e-19
-2.99227e-19
-6.27156e-19
-1.19433e-18
-2.05194e-18
-3.17627e-18
-4.43368e-18
-5.59328e-18
-6.39734e-18
-6.39734e-18
)
;
    }
    procBoundary2to3
    {
        type            processor;
        value           nonuniform List<scalar> 
43
(
-1.54323e-12
-6.42308e-13
-6.62838e-14
8.32305e-13
2.34956e-12
4.73299e-12
8.79116e-12
1.57952e-11
2.75642e-11
4.49344e-11
6.95666e-11
1.03529e-10
1.13317e-10
1.07409e-10
8.90593e-11
6.13137e-11
3.72282e-11
2.35447e-11
1.59752e-11
1.04028e-11
5.73494e-12
2.36258e-12
6.80905e-13
1.41143e-13
2.25446e-14
3.46287e-15
4.76933e-16
6.02855e-17
5.60581e-18
4.90686e-19
4.003e-20
2.90801e-21
1.75277e-22
8.70104e-24
3.54842e-25
1.16028e-26
3.02414e-28
6.56937e-30
2.12168e-31
3.34156e-33
2.00269e-35
2.13917e-38
-3.55311e-62
)
;
    }
}


// ************************************************************************* //
