/*--------------------------------*- C++ -*----------------------------------*\
| =========                 |                                                 |
| \\      /  F ield         | OpenFOAM: The Open Source CFD Toolbox           |
|  \\    /   O peration     | Version:  5.0                                   |
|   \\  /    A nd           | Web:      www.OpenFOAM.org                      |
|    \\/     M anipulation  |                                                 |
\*---------------------------------------------------------------------------*/
FoamFile
{
    version     2.0;
    format      ascii;
    class       surfaceScalarField;
    location    "0.65";
    object      alphaPhi10;
}
// * * * * * * * * * * * * * * * * * * * * * * * * * * * * * * * * * * * * * //

dimensions      [0 3 -1 0 0 0 0];

internalField   nonuniform List<scalar> 
3742
(
1.70098e-23
1.27725e-23
1.38749e-23
1.03612e-23
1.03658e-23
7.58639e-24
7.14493e-24
5.04065e-24
4.57354e-24
3.05567e-24
2.7301e-24
1.69535e-24
1.51932e-24
8.57905e-25
7.81938e-25
3.88263e-25
3.63253e-25
1.47062e-25
1.5625e-25
3.44995e-26
7.60811e-26
-2.04165e-25
-2.7413e-26
-1.01085e-24
-2.28002e-25
-3.83269e-24
-9.25009e-25
-1.56498e-23
-3.11061e-24
-6.60788e-23
-7.98177e-24
-2.7719e-22
-7.19042e-24
-1.12981e-21
2.69787e-22
-4.44309e-21
2.42715e-21
-1.67006e-20
1.40109e-20
-6.03072e-20
6.81326e-20
-2.10803e-19
3.01896e-19
-7.21876e-19
1.22636e-18
-2.4418e-18
4.45525e-18
-7.9642e-18
-2.41061e-17
2.29315e-31
4.04979e-31
2.3017e-30
2.16088e-30
1.4761e-29
1.13639e-29
7.31017e-29
5.0707e-29
2.90037e-28
1.93169e-28
9.47032e-28
6.19163e-28
2.67004e-27
1.68879e-27
6.93918e-27
4.09375e-27
1.76549e-26
9.40847e-27
4.49468e-26
2.17082e-26
1.11837e-25
5.09276e-26
2.60918e-25
1.17403e-25
5.52158e-25
2.53517e-25
1.04287e-24
4.94807e-25
1.74996e-24
8.59104e-25
2.60875e-24
1.32185e-24
3.45879e-24
1.80244e-24
4.08647e-24
2.17873e-24
4.31292e-24
2.33696e-24
4.07877e-24
2.22693e-24
3.47143e-24
1.88749e-24
2.67545e-24
1.42579e-24
1.88259e-24
9.63239e-25
1.22143e-24
5.85025e-25
7.3852e-25
3.21419e-25
4.20483e-25
1.60547e-25
2.27502e-25
7.28765e-26
1.1782e-25
2.96179e-26
5.85735e-26
1.01647e-26
2.94535e-26
2.25686e-27
2.80453e-26
-6.31146e-27
5.41724e-26
-4.82791e-26
1.40023e-25
-2.22428e-25
4.15643e-25
-1.09168e-24
1.42652e-24
-5.37809e-24
5.8255e-24
-2.61973e-23
2.69341e-23
-1.24167e-22
1.30424e-22
-5.50885e-22
6.1801e-22
-2.27479e-21
2.71785e-21
-8.77435e-21
1.30854e-20
-3.12377e-20
7.03881e-20
-1.23208e-19
3.47594e-19
-5.5247e-19
1.51559e-18
-2.31568e-18
-8.71697e-18
5.11358e-32
7.20322e-32
5.2246e-31
3.84598e-31
3.40827e-30
2.05069e-30
1.69116e-29
9.23967e-30
6.63142e-29
3.49846e-29
2.12762e-28
1.09963e-28
5.90671e-28
2.91945e-28
1.52501e-27
6.87828e-28
3.89592e-27
1.54466e-27
1.0007e-26
3.52086e-27
2.50351e-26
8.24143e-27
5.82521e-26
1.90199e-26
1.21812e-25
4.09561e-26
2.2555e-25
7.9017e-26
3.68746e-25
1.34419e-25
5.32757e-25
2.01158e-25
6.80973e-25
2.65105e-25
7.7152e-25
3.07669e-25
7.76439e-25
3.1477e-25
6.95732e-25
2.84162e-25
5.57036e-25
2.26419e-25
4.00741e-25
1.59347e-25
2.61195e-25
9.92782e-26
1.55924e-25
5.50092e-26
8.63343e-26
2.72885e-26
4.49179e-26
1.22013e-26
2.22144e-26
4.92629e-27
1.04935e-26
1.76424e-27
4.55392e-27
4.99616e-28
1.23155e-27
3.06687e-29
-2.58061e-28
-2.41945e-29
-1.98734e-27
2.88175e-27
-2.12746e-26
4.27667e-26
-1.25947e-25
4.41489e-25
-6.77103e-25
3.64896e-24
-3.47311e-24
2.56634e-23
-1.72065e-23
1.60036e-22
-9.49968e-23
9.29369e-22
-5.9132e-22
5.42314e-21
-3.58215e-21
3.05877e-20
-1.88771e-20
1.50781e-19
-8.25031e-20
6.18885e-19
-3.16074e-19
2.06253e-18
-4.47802e-19
5.35706e-18
1.0341e-17
9.49471e-33
1.03651e-32
9.86744e-32
5.5309e-32
6.51948e-31
2.98607e-31
3.22457e-30
1.35281e-30
1.24343e-29
5.06604e-30
3.89413e-29
1.55189e-29
1.0537e-28
3.96807e-29
2.66582e-28
8.91823e-29
6.74744e-28
1.90581e-28
1.73441e-27
4.18449e-28
4.35728e-27
9.66258e-28
1.01428e-26
2.24436e-27
2.10362e-26
4.88576e-27
3.82991e-26
9.4384e-27
6.11293e-26
1.58872e-26
8.57039e-26
2.32946e-26
1.05633e-25
2.98459e-26
1.14685e-25
3.33862e-26
1.09896e-25
3.26624e-26
9.30839e-26
2.79926e-26
6.98518e-26
2.10054e-26
4.66463e-26
1.37901e-26
2.79321e-26
7.92578e-27
1.51673e-26
4.00148e-27
7.57358e-27
1.78647e-27
3.52766e-27
7.10605e-28
1.54188e-27
2.50897e-28
5.95314e-28
7.16586e-29
6.64318e-29
8.2156e-31
-4.28438e-28
-2.98936e-29
-9.86239e-28
-4.81118e-29
-8.0006e-27
2.67449e-27
-5.24937e-26
4.56879e-26
-3.23329e-25
5.12866e-25
-1.82291e-24
4.61092e-24
-9.5033e-24
3.49432e-23
-4.81488e-23
2.33542e-22
-2.61699e-22
1.47756e-21
-1.57553e-21
9.40225e-21
-9.55256e-21
5.85926e-20
-5.14358e-20
3.23427e-19
-2.29673e-19
1.46539e-18
-8.38966e-19
5.34608e-18
-2.56044e-18
1.58496e-17
3.79616e-17
1.41156e-33
1.13143e-33
1.48983e-32
6.02444e-33
9.92479e-32
3.28647e-32
4.8676e-31
1.49045e-31
1.83387e-30
5.48921e-31
5.54469e-30
1.62385e-30
1.43463e-29
3.92451e-30
3.46207e-29
8.10177e-30
8.461e-29
1.54586e-29
2.15064e-28
3.04056e-29
5.45097e-28
6.68298e-29
1.28592e-27
1.59758e-28
2.67721e-27
3.68926e-28
4.83551e-27
7.42132e-28
7.58229e-27
1.26908e-27
1.03637e-26
1.85486e-27
1.23482e-26
2.34063e-27
1.28592e-26
2.54237e-27
1.17357e-26
2.38595e-27
9.39303e-27
1.94471e-27
6.59841e-27
1.37608e-27
4.07948e-27
8.43413e-28
2.23381e-27
4.47099e-28
1.09531e-27
2.05288e-28
4.87854e-28
8.20809e-29
1.98909e-28
2.86032e-29
6.91178e-29
7.99678e-30
1.06471e-30
-9.05974e-32
-6.62135e-29
-5.20059e-30
-1.50684e-28
-4.42523e-29
-1.3873e-27
-9.98869e-29
-1.05104e-26
2.21206e-27
-7.53801e-26
4.42825e-26
-5.01495e-25
5.56918e-25
-3.03102e-24
5.49645e-24
-1.64493e-23
4.49851e-23
-8.46821e-23
3.20438e-22
-4.61452e-22
2.15748e-21
-2.811e-21
1.47641e-20
-1.74631e-20
1.00408e-19
-9.5901e-20
6.01031e-19
-4.31803e-19
2.896e-18
-1.59528e-18
1.10261e-17
-4.80999e-18
3.37632e-17
8.28029e-17
1.57714e-34
8.32962e-35
1.68668e-33
4.41723e-34
1.12762e-32
2.42835e-33
5.4517e-32
1.09715e-32
1.98789e-31
3.94596e-32
5.69305e-31
1.11149e-31
1.35581e-30
2.45453e-31
2.92721e-30
4.27121e-31
6.42113e-30
5.84543e-31
1.55655e-29
6.24637e-31
4.06814e-29
6.41315e-31
1.01999e-28
2.19884e-30
2.21546e-28
9.5581e-30
4.07294e-28
2.60834e-29
6.37841e-28
5.14913e-29
8.60314e-28
7.98948e-29
9.97279e-28
1.03694e-28
9.9821e-28
1.11899e-28
8.68105e-28
1.01218e-28
6.56479e-28
7.83868e-29
4.31356e-28
5.21538e-29
2.46408e-28
2.97266e-29
1.22891e-28
1.44611e-29
5.40164e-29
5.99274e-30
2.10762e-29
2.10689e-30
6.79059e-30
5.76469e-31
-9.30215e-32
-1.33957e-32
-4.76919e-31
-5.0246e-31
-1.60507e-29
-5.65385e-30
-1.6279e-28
-4.01053e-29
-1.40195e-27
-1.26692e-28
-1.16052e-26
1.57208e-27
-9.08517e-26
4.05164e-26
-6.64648e-25
5.51792e-25
-4.28933e-24
5.81306e-24
-2.42048e-23
5.33532e-23
-1.27937e-22
4.15433e-22
-7.0969e-22
3.03409e-21
-4.46783e-21
2.24415e-20
-2.85595e-20
1.66782e-19
-1.5826e-19
1.08279e-18
-7.10036e-19
5.52514e-18
-2.5992e-18
2.1818e-17
-7.64158e-18
6.79759e-17
1.65223e-16
1.1782e-35
3.10262e-36
1.27309e-34
1.63507e-35
8.49895e-34
9.02945e-35
4.02115e-33
4.04253e-34
1.39891e-32
1.40698e-33
3.6676e-32
3.69908e-33
7.37565e-32
7.09806e-33
1.14412e-31
8.97034e-33
1.36574e-31
3.89694e-33
1.54892e-31
-1.47627e-32
5.81496e-31
-1.95878e-31
2.74843e-30
-5.45447e-31
8.10995e-30
-7.05826e-31
1.72353e-29
-6.45521e-31
2.8692e-29
-5.42527e-32
3.98546e-29
4.37493e-31
4.59553e-29
1.07248e-30
4.43871e-29
1.48319e-30
3.67169e-29
1.33825e-30
2.61326e-29
9.63593e-31
1.59808e-29
5.78966e-31
8.38157e-30
2.91567e-31
3.77296e-30
1.22439e-31
1.4573e-30
4.19918e-32
4.4565e-31
9.83278e-33
-1.1888e-32
-1.99891e-33
-4.23738e-32
-4.15521e-32
-1.24066e-30
-4.78726e-31
-1.30175e-29
-4.03293e-30
-1.25619e-28
-2.88833e-29
-1.17992e-27
-1.20332e-28
-1.04043e-26
7.83958e-28
-8.71866e-26
2.8074e-26
-6.74976e-25
4.51109e-25
-4.72312e-24
5.54486e-24
-2.93009e-23
5.35495e-23
-1.68551e-22
4.47354e-22
-9.66557e-22
3.59088e-21
-6.02383e-21
3.03282e-20
-3.95125e-20
2.48298e-19
-2.23081e-19
1.77235e-18
-9.85396e-19
9.75862e-18
-3.53136e-18
4.05057e-17
-9.97812e-18
1.30101e-16
3.15268e-16
4.41746e-37
3.66804e-53
4.80634e-36
-3.29491e-53
3.18622e-35
-8.082e-52
1.46167e-34
-1.21553e-50
4.75466e-34
-3.00716e-48
1.08497e-33
-5.97626e-46
1.58707e-33
-9.97686e-44
7.82614e-34
-1.44307e-41
-3.3164e-33
-1.85037e-39
-1.86119e-32
-2.08882e-37
-1.16446e-31
-3.35009e-35
-2.09277e-31
-2.41694e-33
-2.06583e-31
-7.92605e-33
-1.11116e-31
-1.26039e-32
1.62464e-31
-9.27938e-33
4.26572e-31
-2.60495e-32
6.30781e-31
-2.61412e-32
6.08057e-31
-6.8347e-33
4.67843e-31
-5.44345e-34
3.00761e-31
-1.29608e-34
1.62494e-31
-4.05438e-35
7.35372e-32
-1.74484e-35
2.73695e-32
-1.1447e-35
7.02852e-33
-1.74342e-35
-1.59211e-33
-2.01119e-34
-4.33818e-33
-1.9181e-33
-7.19015e-32
-2.26237e-32
-7.11143e-31
-2.37019e-31
-7.74335e-30
-2.28034e-30
-8.26957e-29
-1.78695e-29
-8.15339e-28
-9.10775e-29
-7.60951e-27
2.51404e-28
-6.77427e-26
1.60066e-26
-5.69405e-25
2.94654e-25
-4.28537e-24
4.02542e-24
-2.75201e-23
4.42069e-23
-1.55754e-22
4.09445e-22
-9.54271e-22
3.52817e-21
-6.88093e-21
3.22338e-20
-4.49516e-20
3.18391e-19
-2.37896e-19
2.56748e-18
-9.8052e-19
1.51665e-17
-3.20141e-18
6.74402e-17
-8.09593e-18
2.28072e-16
5.67856e-16
-8.96894e-55
6.65172e-54
-3.49878e-53
1.49911e-56
-9.60724e-52
-2.04069e-56
-1.31128e-50
-3.12793e-54
-3.01948e-48
-7.952e-52
-6.00483e-46
-1.61958e-49
-1.00341e-43
-2.78164e-47
-1.45269e-41
-4.20376e-45
-1.86469e-39
-2.06566e-43
-2.13771e-37
-7.14178e-43
-5.38528e-35
-6.75395e-43
-2.40609e-33
-2.1876e-42
-2.30856e-33
-2.2306e-40
-1.72811e-33
-3.41867e-39
-9.53729e-33
-1.80724e-38
-1.06629e-32
-6.21994e-38
-2.98033e-33
-6.58127e-38
-4.3006e-34
-4.79606e-42
-9.95232e-35
-1.032e-42
-3.07312e-35
-2.47199e-41
-1.22952e-35
-5.41705e-40
-7.00425e-36
-1.05886e-38
-7.07455e-36
-1.92158e-37
-2.11246e-35
-3.20403e-36
-2.69085e-34
-5.01003e-35
-2.39306e-33
-7.29591e-34
-2.60784e-32
-9.51842e-33
-3.43862e-31
-1.11082e-31
-4.159e-30
-1.12972e-30
-4.60129e-29
-9.59429e-30
-4.74288e-28
-5.75098e-29
-4.64197e-27
-9.10774e-31
-4.37175e-26
7.48803e-27
-3.87589e-25
1.59988e-25
-3.05719e-24
2.38339e-24
-2.05826e-23
2.84513e-23
-1.23731e-22
2.9232e-22
-7.49708e-22
2.88856e-21
-5.11755e-21
2.98905e-20
-3.63193e-20
3.19877e-19
-1.58339e-19
3.03639e-18
-3.25824e-19
2.10145e-17
3.50261e-19
9.91703e-17
5.0206e-18
3.54437e-16
9.29729e-16
4.09485e-58
6.92825e-55
-9.16833e-58
1.54201e-57
-9.54422e-58
2.48707e-59
-3.12795e-54
-7.13241e-58
-7.98232e-52
-1.38608e-55
-1.62736e-49
-3.00512e-53
-2.79751e-47
-5.4494e-51
-4.96343e-45
-4.89335e-49
-1.04591e-43
-9.69948e-47
-8.82049e-44
-2.30757e-45
-9.74362e-44
-1.48031e-44
-2.4942e-42
-2.90816e-44
-1.30002e-40
-2.18083e-44
-1.2471e-39
-4.47397e-45
-6.6753e-39
-3.67357e-45
-2.73103e-38
-3.17024e-45
-1.84091e-42
-3.23568e-45
-3.02409e-43
-1.25011e-44
-6.24579e-43
-3.58267e-43
-1.61278e-41
-9.56034e-42
-3.67056e-40
-2.08225e-40
-7.60149e-39
-4.15229e-39
-1.48417e-37
-7.59952e-38
-2.68643e-36
-1.28696e-36
-4.593e-35
-2.00872e-35
-7.61724e-34
-2.88185e-34
-1.14667e-32
-3.80795e-33
-1.54071e-31
-4.60249e-32
-1.9195e-30
-4.95728e-31
-2.21292e-29
-4.52979e-30
-2.36841e-28
-3.10761e-29
-2.41168e-27
-6.65657e-29
-2.37814e-26
2.84876e-27
-2.21633e-25
7.34566e-26
-1.8176e-24
1.21475e-24
-1.24876e-23
1.56929e-23
-7.6041e-23
1.72781e-22
-4.66043e-22
1.86414e-21
-2.93709e-21
2.23022e-20
-1.23264e-20
2.80123e-19
4.1718e-20
2.9722e-18
1.11809e-18
2.30595e-17
8.2325e-18
1.28536e-16
3.57217e-17
5.00018e-16
1.39513e-15
4.2095e-59
3.5168e-56
1.34522e-60
6.45132e-59
-2.08009e-59
5.35114e-59
-1.03431e-57
2.81593e-58
-1.44324e-55
1.1669e-58
-3.11074e-53
-4.24904e-57
-5.63339e-51
-7.68963e-55
-4.71095e-49
-8.9889e-53
-4.95294e-47
-1.71766e-50
-1.05797e-45
-1.80555e-48
-4.21449e-45
-2.41406e-47
-4.19423e-45
-9.57489e-47
-8.94008e-46
-2.00815e-46
-7.47962e-46
-2.88181e-46
-6.58057e-46
-3.22663e-46
-6.8332e-46
-3.35017e-46
-8.16404e-46
-4.39504e-46
-7.29071e-45
-3.73719e-45
-2.50714e-43
-1.10249e-43
-6.64803e-42
-2.71632e-42
-1.53536e-40
-6.0922e-41
-3.24197e-39
-1.24297e-39
-6.3116e-38
-2.3229e-38
-1.14179e-36
-4.03332e-37
-1.90721e-35
-6.53192e-36
-2.95488e-34
-9.81213e-35
-4.3355e-33
-1.35639e-33
-6.02376e-32
-1.71083e-32
-7.78794e-31
-1.93647e-31
-9.2996e-30
-1.89454e-30
-1.02915e-28
-1.46006e-29
-1.08058e-27
-5.69816e-29
-1.10243e-26
8.36976e-28
-1.07295e-25
2.83859e-26
-9.20684e-25
5.2964e-25
-6.45998e-24
7.54303e-24
-3.78927e-23
8.94332e-23
-2.07177e-22
1.01605e-21
-8.59176e-22
1.32715e-20
7.43971e-21
1.99406e-19
2.37751e-19
2.56717e-18
2.79462e-18
2.23509e-17
1.92949e-17
1.30385e-16
8.77988e-17
5.53601e-16
1.8267e-15
1.75415e-60
4.98999e-66
2.88681e-60
1.33655e-64
2.26399e-59
8.97401e-64
1.24391e-59
-5.75223e-64
-4.35527e-58
-1.6634e-61
-4.63543e-57
-4.91433e-59
-7.63248e-55
-8.56721e-57
-8.92725e-53
-1.07023e-54
-1.75104e-50
-1.60632e-52
-9.29472e-49
-3.30607e-50
-7.70861e-48
-8.1995e-49
-2.4084e-47
-4.54806e-48
-4.63372e-47
-1.08031e-47
-6.04957e-47
-1.66854e-47
-6.75568e-47
-2.10031e-47
-7.57646e-47
-2.54861e-47
-1.37343e-46
-5.01499e-47
-2.35214e-45
-9.76676e-46
-6.8868e-44
-2.89521e-44
-1.79422e-42
-7.4222e-43
-4.25514e-41
-1.72366e-41
-9.14288e-40
-3.61117e-40
-1.81164e-38
-6.89524e-39
-3.36276e-37
-1.21619e-37
-5.87088e-36
-1.99953e-36
-9.60292e-35
-3.06597e-35
-1.46642e-33
-4.36235e-34
-2.09265e-32
-5.70933e-33
-2.78736e-31
-6.76904e-32
-3.44126e-30
-7.05467e-31
-3.93077e-29
-6.02741e-30
-4.23208e-28
-3.26651e-29
-4.41296e-27
1.58232e-28
-4.41504e-26
9.13548e-27
-3.92322e-25
1.94558e-25
-2.80361e-24
3.06851e-24
-1.54161e-23
3.98467e-23
-6.01778e-23
4.85077e-22
2.80238e-22
6.76062e-21
1.73952e-20
1.16698e-19
3.71225e-19
1.8426e-18
4.23627e-18
1.88507e-17
2.8641e-17
1.19853e-16
1.32306e-16
5.3432e-16
1.827e-15
3.60928e-66
1.25152e-66
4.81355e-65
3.82392e-65
-4.60338e-65
3.45299e-64
-1.06032e-63
4.39065e-64
-1.56282e-61
-1.11179e-62
-4.74669e-59
-1.73848e-60
-8.2791e-57
-3.17224e-58
-1.02911e-54
-4.33293e-56
-1.76871e-52
-6.48752e-54
-2.27725e-50
-1.46137e-51
-3.30686e-49
-4.73829e-50
-1.27781e-48
-3.06502e-49
-2.53125e-48
-7.73824e-49
-3.61858e-48
-1.19533e-48
-4.46804e-48
-1.49266e-48
-5.77023e-48
-1.95096e-48
-2.0822e-47
-8.93976e-48
-5.86416e-46
-2.57782e-46
-1.78742e-44
-7.24021e-45
-4.85535e-43
-1.84892e-43
-1.18602e-41
-4.35e-42
-2.61131e-40
-9.32126e-41
-5.25489e-39
-1.8196e-39
-9.82907e-38
-3.27344e-38
-1.72629e-36
-5.50127e-37
-2.85365e-35
-8.66652e-36
-4.43669e-34
-1.27182e-34
-6.47726e-33
-1.72268e-33
-8.85312e-32
-2.12888e-32
-1.12643e-30
-2.34863e-31
-1.32836e-29
-2.19994e-30
-1.46741e-28
-1.49393e-29
-1.55427e-27
-5.01318e-30
-1.56759e-26
2.419e-27
-1.39891e-25
6.02175e-26
-9.82395e-25
1.03574e-24
-4.67649e-24
1.46516e-23
-1.88398e-24
1.96244e-22
5.72395e-22
3.04615e-21
1.80383e-20
6.0114e-20
3.92741e-19
1.13122e-18
4.90315e-18
1.37086e-17
3.48195e-17
9.71505e-17
1.6457e-16
4.57262e-16
1.65257e-15
1.0231e-66
1.46551e-67
1.83669e-65
4.76127e-66
3.48751e-65
4.97151e-65
-6.19911e-64
1.62879e-64
-1.15625e-62
-1.76513e-64
-1.74197e-60
-2.5386e-62
-3.15967e-58
-4.94818e-60
-4.25737e-56
-8.03197e-58
-6.36179e-54
-1.24141e-55
-1.11596e-51
-2.79706e-53
-2.07287e-50
-1.42484e-51
-8.99263e-50
-1.20589e-50
-1.80386e-49
-3.47345e-50
-2.49735e-49
-5.74629e-50
-3.08615e-49
-7.8957e-50
-4.75921e-49
-1.47602e-49
-4.67515e-48
-2.06287e-48
-1.48463e-46
-6.26263e-47
-4.33428e-45
-1.692e-45
-1.16984e-43
-4.30807e-44
-2.89685e-42
-1.02053e-42
-6.50452e-41
-2.22516e-41
-1.33034e-39
-4.43329e-40
-2.52508e-38
-8.12156e-39
-4.51622e-37
-1.38951e-37
-7.62647e-36
-2.23841e-36
-1.21057e-34
-3.37847e-35
-1.80163e-33
-4.72762e-34
-2.51125e-32
-6.06428e-33
-3.2708e-31
-7.01688e-32
-3.97674e-30
-7.10007e-31
-4.54016e-29
-5.73477e-30
-4.92658e-28
-2.09184e-29
-4.95541e-27
5.03898e-28
-4.24911e-26
1.60335e-26
-2.69341e-25
2.92365e-25
-8.32108e-25
4.31499e-24
1.18321e-23
6.33618e-23
4.6451e-22
1.14803e-21
1.39193e-20
2.78978e-20
3.3171e-19
6.27168e-19
4.61414e-18
8.75073e-18
3.5327e-17
6.8946e-17
1.72827e-16
3.42021e-16
1.2945e-15
1.2598e-67
4.30443e-73
2.61677e-66
4.31163e-72
1.28104e-65
-8.9977e-72
-9.78887e-66
-3.97078e-69
-1.88617e-64
-1.70851e-66
-2.51733e-62
-3.44159e-64
-4.89069e-60
-6.96598e-62
-7.91494e-58
-1.22554e-59
-1.22808e-55
-1.96662e-57
-2.47581e-53
-4.18556e-55
-6.97704e-52
-3.72159e-53
-3.71746e-51
-4.35338e-52
-8.0102e-51
-1.44485e-51
-1.1628e-50
-2.56836e-51
-1.61849e-50
-4.07969e-51
-4.73277e-50
-1.63077e-50
-1.11115e-48
-4.72164e-49
-3.4375e-47
-1.39233e-47
-9.80722e-46
-3.71722e-46
-2.63223e-44
-9.36961e-45
-6.56399e-43
-2.2132e-43
-1.49788e-41
-4.87427e-42
-3.11129e-40
-9.88776e-41
-5.97128e-39
-1.84605e-39
-1.07981e-37
-3.21554e-38
-1.85135e-36
-5.28548e-37
-2.9946e-35
-8.18849e-36
-4.54103e-34
-1.18391e-34
-6.41953e-33
-1.57378e-33
-8.44301e-32
-1.88816e-32
-1.04536e-30
-2.01417e-31
-1.24646e-29
-1.85789e-30
-1.42959e-28
-1.17959e-29
-1.45922e-27
6.26419e-29
-1.15418e-26
3.79838e-27
-5.72441e-26
7.2424e-26
3.44854e-26
1.028e-24
8.0104e-24
1.52624e-23
2.50762e-22
3.27829e-22
8.66339e-21
1.09965e-20
2.39952e-19
3.1455e-19
3.69725e-18
5.0048e-18
3.05501e-17
4.33409e-17
1.55024e-16
2.27391e-16
8.69753e-16
1.12674e-73
1.03213e-73
-4.67875e-73
1.54627e-72
-1.32568e-71
3.79127e-72
-3.9098e-69
-7.42343e-71
-1.69494e-66
-1.67539e-68
-3.41573e-64
-3.58293e-66
-6.90885e-62
-7.5847e-64
-1.21262e-59
-1.44557e-61
-1.9557e-57
-2.42476e-59
-4.53052e-55
-4.81186e-57
-2.12896e-53
-6.56996e-55
-1.42187e-52
-1.02245e-53
-3.24787e-52
-3.97519e-53
-4.9588e-52
-8.11492e-53
-8.64408e-52
-1.83665e-52
-7.26879e-51
-2.53543e-51
-2.42354e-49
-9.19469e-50
-7.3611e-48
-2.70294e-48
-2.07196e-46
-7.34788e-47
-5.48047e-45
-1.85432e-45
-1.36218e-43
-4.38657e-44
-3.13944e-42
-9.74475e-43
-6.62025e-41
-2.01104e-41
-1.28699e-39
-3.83082e-40
-2.35084e-38
-6.79023e-39
-4.07913e-37
-1.13473e-37
-6.72214e-36
-1.79932e-36
-1.04312e-34
-2.694e-35
-1.49455e-33
-3.72445e-34
-1.94647e-32
-4.59116e-33
-2.3741e-31
-4.99459e-32
-2.94323e-30
-5.00972e-31
-3.7857e-29
-4.52875e-30
-4.20245e-28
-1.09288e-29
-3.01682e-27
8.01888e-28
-9.08539e-27
1.69952e-26
9.2125e-26
2.11111e-25
2.99386e-24
2.68881e-24
9.09464e-23
6.27748e-23
4.17426e-21
3.26541e-21
1.47217e-19
1.32866e-19
2.57281e-18
2.52366e-18
2.30588e-17
2.43342e-17
1.2253e-16
1.37701e-16
5.30068e-16
3.98757e-74
1.07665e-74
1.94531e-73
1.99606e-73
-2.94922e-72
1.09114e-72
-7.68722e-71
-3.15707e-73
-1.67625e-68
-7.37944e-71
-3.58515e-66
-1.67141e-68
-7.56118e-64
-3.90654e-66
-1.43924e-61
-7.84435e-64
-2.42195e-59
-1.3829e-61
-5.8429e-57
-2.47435e-59
-4.15143e-55
-5.18075e-57
-3.40345e-54
-1.16202e-55
-8.4534e-54
-6.07125e-55
-1.50438e-53
-1.83537e-54
-4.83464e-53
-1.15779e-53
-1.24443e-51
-4.17324e-52
-4.45019e-50
-1.48262e-50
-1.37805e-48
-4.50817e-49
-3.91692e-47
-1.26244e-47
-1.03351e-45
-3.23678e-46
-2.5664e-44
-7.74235e-45
-5.96511e-43
-1.74107e-43
-1.27841e-41
-3.66142e-42
-2.52163e-40
-7.13395e-41
-4.64037e-39
-1.28843e-39
-8.10077e-38
-2.18393e-38
-1.35858e-36
-3.53436e-37
-2.17753e-35
-5.49753e-36
-3.18996e-34
-7.97173e-35
-4.04255e-33
-1.00792e-33
-4.60167e-32
-1.08577e-32
-5.73755e-31
-1.1225e-31
-9.00562e-30
-1.35927e-30
-1.23333e-28
-1.27904e-29
-8.14607e-28
1.19197e-28
-5.30211e-28
3.90286e-27
4.10566e-26
4.02814e-26
7.46325e-25
3.61628e-25
2.06913e-23
7.12036e-24
1.40765e-21
6.24573e-22
7.11162e-20
4.17028e-20
1.51306e-18
1.04623e-18
1.52841e-17
1.19524e-17
8.79104e-17
7.6355e-17
3.13092e-16
5.07749e-75
2.49586e-79
5.52007e-74
2.36197e-78
-1.25327e-74
-3.96321e-78
-3.34238e-73
-1.77271e-75
-7.40097e-71
-6.98315e-73
-1.66656e-68
-6.73359e-71
-3.90749e-66
-5.43538e-69
-7.84922e-64
-1.43643e-66
-1.38452e-61
-3.73615e-64
-3.12349e-59
-3.31545e-62
-3.45283e-57
-1.30574e-60
-3.74291e-56
-1.13519e-58
-1.17791e-55
-2.62007e-57
-3.57435e-55
-4.389e-56
-4.59296e-54
-1.51172e-54
-1.91006e-52
-6.02117e-53
-6.87124e-51
-2.05636e-51
-2.20753e-49
-6.49045e-50
-6.4212e-48
-1.86141e-48
-1.71429e-46
-4.8838e-47
-4.28489e-45
-1.19118e-45
-1.00685e-43
-2.72794e-44
-2.19888e-42
-5.86332e-43
-4.41597e-41
-1.17058e-41
-8.18561e-40
-2.15684e-40
-1.43027e-38
-3.70637e-39
-2.43548e-37
-6.11016e-38
-4.07547e-36
-9.89307e-37
-6.20543e-35
-1.51779e-35
-7.60804e-34
-1.98003e-34
-7.67689e-33
-2.09134e-33
-9.15023e-32
-2.15668e-32
-1.94285e-30
-3.42881e-31
-3.7352e-29
-6.77452e-30
-2.23599e-28
-1.89506e-29
5.25926e-28
7.56799e-28
1.35087e-26
7.14156e-27
1.37883e-25
4.00947e-26
2.69999e-24
4.24403e-25
2.92806e-22
6.50596e-23
2.42399e-20
8.41657e-21
6.98473e-19
3.18675e-19
8.63724e-18
4.82276e-18
5.72872e-17
3.76413e-17
1.78173e-16
5.92577e-80
5.03882e-80
-1.9759e-79
4.36276e-79
-8.30643e-79
-3.33015e-78
-7.32453e-76
-1.0422e-75
-1.29476e-72
-3.95579e-73
-1.28154e-71
-1.30994e-70
-1.41816e-69
-4.62028e-69
-1.19762e-66
-2.23748e-67
-1.60335e-64
-7.1703e-65
-6.46024e-63
-7.16027e-63
-8.0643e-61
-1.12416e-61
-3.63374e-59
-1.18231e-60
-5.86695e-58
-8.50187e-59
-1.44733e-56
-4.97037e-57
-6.32315e-55
-2.15855e-55
-2.54008e-53
-7.62159e-54
-9.20106e-52
-2.60637e-52
-3.03352e-50
-8.26397e-51
-9.01933e-49
-2.39173e-49
-2.45471e-47
-6.38971e-48
-6.22564e-46
-1.58937e-46
-1.48618e-44
-3.71787e-45
-3.31516e-43
-8.18236e-44
-6.79253e-42
-1.67384e-42
-1.26977e-40
-3.14926e-41
-2.21564e-39
-5.49982e-40
-3.8198e-38
-9.24525e-39
-6.71517e-37
-1.55674e-37
-1.07825e-35
-2.5329e-36
-1.28932e-34
-3.44045e-35
-1.13545e-33
-3.61314e-34
-1.26524e-32
-3.72341e-33
-3.97653e-31
-7.61417e-32
-1.0955e-29
-2.59836e-30
-5.14695e-29
-2.45653e-29
3.50412e-28
5.70307e-29
3.64213e-27
9.63366e-28
1.96985e-26
3.57016e-27
1.7451e-25
1.11541e-26
3.2774e-23
3.06722e-24
5.25778e-21
9.82807e-22
2.29993e-19
6.36279e-20
3.88785e-18
1.44949e-18
3.25378e-17
1.53923e-17
9.13302e-17
1.07961e-80
4.57722e-81
-1.2306e-79
3.44149e-80
-3.03244e-78
-4.20772e-79
-9.05788e-76
-1.38455e-76
-5.35831e-73
-4.98019e-74
-2.09169e-70
-2.14069e-71
-8.21489e-70
-3.89717e-69
-1.21767e-67
-9.95776e-68
-6.55788e-65
-1.1199e-66
-2.1863e-63
-4.24354e-65
-1.72999e-62
-2.55287e-63
-3.93775e-61
-1.98686e-61
-3.22899e-59
-1.2196e-59
-1.93791e-57
-5.77808e-58
-8.11024e-56
-2.33997e-56
-3.08721e-54
-8.86049e-55
-1.11567e-52
-3.05414e-53
-3.67103e-51
-9.49302e-52
-1.10186e-49
-2.74226e-50
-3.0429e-48
-7.38258e-49
-7.84169e-47
-1.85994e-47
-1.90721e-45
-4.43266e-46
-4.34616e-44
-9.97638e-45
-9.08143e-43
-2.08775e-43
-1.71677e-41
-4.01645e-42
-3.00271e-40
-7.17616e-41
-5.23709e-39
-1.23775e-39
-9.6411e-38
-2.15976e-38
-1.63762e-36
-3.693e-37
-1.94501e-35
-5.25468e-36
-1.5434e-34
-5.65117e-35
-1.65335e-33
-5.94721e-34
-7.6521e-32
-1.43578e-32
-2.60869e-30
-6.35102e-31
-6.31283e-30
-7.80075e-30
1.18755e-28
-1.52062e-29
6.98729e-28
5.90181e-29
1.72919e-27
2.34639e-28
3.28501e-27
2.12196e-28
1.58832e-24
5.0248e-26
6.88927e-22
6.53532e-23
5.02709e-20
7.91513e-21
1.27637e-18
2.92891e-19
1.4869e-17
4.68744e-18
3.80721e-17
8.40203e-82
1.04386e-83
-1.16574e-80
-3.38663e-83
-3.99477e-79
-3.76275e-80
-1.22763e-76
-1.70726e-77
-4.2897e-74
-7.03227e-75
-2.26325e-71
-3.66981e-72
-1.96816e-69
-6.52146e-70
-1.59874e-68
-1.15993e-68
-2.01612e-67
-9.45605e-68
-9.29106e-66
-7.63335e-66
-8.12771e-64
-4.00729e-64
-6.88696e-62
-2.01626e-62
-4.15928e-60
-1.02029e-60
-1.98176e-58
-4.89741e-59
-8.67856e-57
-2.28198e-57
-3.48718e-55
-9.26976e-56
-1.23723e-53
-3.17083e-54
-4.00119e-52
-9.77152e-53
-1.19836e-50
-2.81912e-51
-3.32343e-49
-7.61715e-50
-8.65541e-48
-1.93352e-48
-2.14033e-46
-4.66687e-47
-4.96761e-45
-1.06914e-45
-1.05611e-43
-2.28671e-44
-2.02915e-42
-4.52207e-43
-3.60105e-41
-8.36619e-42
-6.38606e-40
-1.49877e-40
-1.21372e-38
-2.70034e-39
-2.15257e-37
-4.74922e-38
-2.6027e-36
-7.0495e-37
-1.99048e-35
-8.03071e-36
-2.13258e-34
-8.76994e-35
-1.2035e-32
-1.95679e-33
-3.86581e-31
-8.20993e-32
9.60252e-32
-1.13417e-30
2.05897e-29
-3.94984e-30
9.14384e-29
-2.03114e-30
1.78552e-28
1.17849e-29
1.67252e-28
2.0771e-29
2.73703e-26
3.45657e-28
5.52989e-23
2.77712e-24
7.28387e-21
6.53476e-22
2.83922e-19
3.74758e-20
4.91388e-18
9.3619e-19
1.12475e-17
-8.15949e-85
3.07214e-84
-3.12051e-83
-3.4772e-84
-3.54577e-80
-2.20767e-81
-1.60278e-77
-1.06014e-78
-6.57177e-75
-4.68441e-76
-3.07975e-72
-2.52329e-73
-1.75974e-70
-5.55028e-71
-1.24156e-69
-1.07394e-69
-2.7027e-68
-8.7899e-69
-1.96556e-66
-6.41541e-67
-1.06574e-64
-3.6278e-65
-5.84796e-63
-2.0056e-63
-3.11883e-61
-1.05231e-61
-1.68434e-59
-4.924e-60
-8.44777e-58
-2.11861e-58
-3.47331e-56
-8.25495e-57
-1.21699e-54
-2.8421e-55
-3.90349e-53
-8.79442e-54
-1.16631e-51
-2.54584e-52
-3.23783e-50
-6.95086e-51
-8.47355e-49
-1.78496e-49
-2.1153e-47
-4.34685e-48
-4.9727e-46
-1.00674e-46
-1.07542e-44
-2.20195e-45
-2.12018e-43
-4.51935e-44
-3.89497e-42
-8.76945e-43
-7.12023e-41
-1.6508e-41
-1.36911e-39
-3.07525e-40
-2.45748e-38
-5.43984e-39
-3.10437e-37
-8.17841e-38
-2.51962e-36
-9.86566e-37
-2.5892e-35
-1.14016e-35
-1.14045e-33
-2.17319e-34
-3.03753e-32
-7.12964e-33
6.19959e-32
-1.0405e-31
2.3003e-30
-4.76452e-31
1.02099e-29
-7.58691e-31
2.14071e-29
-1.61345e-31
3.21872e-29
1.97721e-30
3.81116e-28
5.72681e-29
3.37873e-24
1.69951e-25
7.74531e-22
4.48586e-23
4.22003e-20
3.19522e-21
1.06939e-18
1.14246e-19
2.08428e-18
-4.46086e-86
4.24927e-85
-3.38428e-84
-1.37527e-85
-2.12317e-81
-8.79828e-83
-1.01823e-78
-4.27478e-80
-4.48138e-76
-2.0655e-77
-2.2224e-73
-1.33674e-74
-1.48819e-71
-2.00472e-72
-1.10941e-70
-4.63573e-71
-2.09931e-69
-5.47511e-70
-1.49095e-67
-4.56074e-68
-9.39727e-66
-3.00754e-66
-5.79337e-64
-1.69126e-64
-3.18962e-62
-8.29869e-63
-1.5888e-60
-3.75083e-61
-7.27263e-59
-1.62308e-59
-2.94124e-57
-6.39932e-58
-1.03495e-55
-2.20189e-56
-3.31545e-54
-6.81474e-55
-9.95681e-53
-1.98997e-53
-2.79464e-51
-5.53426e-52
-7.3658e-50
-1.45047e-50
-1.84059e-48
-3.57068e-49
-4.35242e-47
-8.31425e-48
-9.61849e-46
-1.8557e-46
-1.96963e-44
-3.97348e-45
-3.80751e-43
-8.09322e-44
-7.3027e-42
-1.59002e-42
-1.41388e-40
-3.05627e-41
-2.4707e-39
-5.40014e-40
-3.18653e-38
-7.90929e-39
-2.86208e-37
-9.60109e-38
-2.90557e-36
-1.17229e-36
-8.3519e-35
-2.11301e-35
-1.72194e-33
-5.23247e-34
6.34238e-33
-6.97242e-33
1.80696e-31
-3.53185e-32
8.6129e-31
-7.55808e-32
2.12366e-30
-8.00725e-32
4.16538e-30
-1.47059e-32
2.99453e-28
2.55926e-29
4.777e-25
2.98606e-26
8.09524e-23
3.90053e-24
4.74446e-21
2.36543e-22
1.56826e-19
9.8155e-21
2.50599e-19
-2.51173e-87
4.16527e-87
-7.86702e-86
-6.37302e-86
-3.44531e-83
-5.40557e-83
-1.06129e-80
-3.20865e-80
-9.32472e-78
-2.63519e-77
-6.92811e-75
-3.73056e-75
-4.42585e-73
-4.04701e-74
-4.60337e-72
-1.82678e-73
-1.2365e-70
-2.89092e-71
-1.09184e-68
-2.45503e-69
-7.75224e-67
-1.83173e-67
-4.54593e-65
-1.0961e-65
-2.32776e-63
-5.49202e-64
-1.14203e-61
-2.47507e-62
-5.31357e-60
-1.03165e-60
-2.15646e-58
-3.97294e-59
-7.54861e-57
-1.39374e-57
-2.41617e-55
-4.46617e-56
-7.3391e-54
-1.33356e-54
-2.10681e-52
-3.77236e-53
-5.64451e-51
-1.01228e-51
-1.40824e-49
-2.54215e-50
-3.32778e-48
-5.967e-49
-7.54606e-47
-1.35099e-47
-1.61599e-45
-3.00797e-46
-3.26767e-44
-6.3728e-45
-6.55414e-43
-1.26327e-43
-1.29319e-41
-2.40408e-42
-2.16689e-40
-4.14724e-41
-2.67062e-39
-5.76641e-40
-2.52448e-38
-6.79014e-39
-2.77902e-37
-8.91976e-38
-6.05115e-36
-1.73371e-36
-8.91527e-35
-3.65497e-35
3.63521e-34
-4.13468e-34
9.5077e-33
-1.90227e-33
4.66807e-32
-3.58491e-33
1.14018e-31
-3.07118e-33
2.06554e-31
-2.22128e-33
2.81321e-28
-3.78148e-30
1.54065e-25
3.35931e-27
1.25132e-23
4.15528e-25
5.58669e-22
2.01876e-23
1.94043e-20
7.81157e-22
2.30166e-20
-1.69629e-87
1.79763e-87
-5.93824e-86
-6.05235e-87
-4.86702e-83
-5.42108e-84
-2.90969e-80
-3.58096e-81
-2.8146e-77
-3.36268e-78
-9.08877e-76
-4.53134e-76
-3.27978e-75
-4.61203e-75
-4.54379e-74
-1.35069e-74
-5.94624e-72
-1.4595e-72
-5.79712e-70
-1.27052e-70
-4.56545e-68
-8.89282e-69
-2.82148e-66
-5.24461e-67
-1.48521e-64
-2.72309e-65
-7.07649e-63
-1.25115e-63
-3.11619e-61
-5.13732e-62
-1.25222e-59
-1.94143e-60
-4.53293e-58
-6.92818e-59
-1.49537e-56
-2.30671e-57
-4.60903e-55
-7.0572e-56
-1.35018e-53
-2.02445e-54
-3.71333e-52
-5.57775e-53
-9.35215e-51
-1.45136e-51
-2.20328e-49
-3.47158e-50
-5.11678e-48
-7.9045e-49
-1.1543e-46
-1.83402e-47
-2.40318e-45
-4.15688e-46
-4.8087e-44
-8.15022e-45
-9.34958e-43
-1.34939e-43
-1.47014e-41
-1.90912e-42
-1.6438e-40
-2.3657e-41
-1.60358e-39
-3.51358e-40
-2.1248e-38
-8.91291e-39
-4.42785e-37
-1.95759e-37
-5.25285e-36
-2.66563e-36
1.46486e-35
-1.84129e-35
3.48407e-34
-5.68067e-35
1.16482e-33
-9.0403e-35
2.01621e-33
-7.72874e-35
3.64768e-33
-7.59403e-35
5.48954e-29
-1.05094e-30
3.57681e-26
-6.00578e-28
2.42122e-24
5.91764e-27
8.16668e-23
1.2998e-24
2.38914e-21
5.26072e-23
1.65453e-21
-1.07387e-88
3.44859e-88
-6.15717e-87
-5.45825e-90
-5.41881e-84
-5.07048e-87
-3.58836e-81
-5.12316e-84
-2.65069e-78
-1.75347e-81
-1.2383e-76
-2.91006e-80
-3.56173e-76
-9.54391e-79
-2.53581e-75
-5.11596e-76
-3.0097e-73
-5.29033e-74
-2.78096e-71
-4.86388e-72
-2.04848e-69
-3.63685e-70
-1.28846e-67
-2.14368e-68
-7.06607e-66
-1.07279e-66
-3.37295e-64
-4.76543e-65
-1.4348e-62
-1.9615e-63
-5.70282e-61
-7.57081e-62
-2.13381e-59
-2.70887e-60
-7.2788e-58
-8.86921e-59
-2.26803e-56
-2.6907e-57
-6.7408e-55
-7.82573e-56
-1.92701e-53
-2.24703e-54
-5.01712e-52
-6.2561e-53
-1.1744e-50
-1.56936e-51
-2.74658e-49
-3.48589e-50
-6.79956e-48
-7.91351e-49
-1.54802e-46
-1.99488e-47
-2.91867e-45
-3.89911e-46
-4.51305e-44
-4.52096e-45
-5.089e-43
-3.73299e-44
-5.2445e-42
-4.57727e-43
-1.07991e-40
-3.83743e-41
-2.81408e-39
-2.16419e-39
-4.67714e-38
-2.77611e-38
-3.28594e-37
-1.04943e-37
2.68551e-37
-1.86391e-37
6.68826e-36
-2.1832e-37
1.84659e-35
-1.89377e-37
3.01443e-35
-2.36983e-37
6.65243e-35
-3.73871e-36
3.02271e-30
-5.76469e-32
4.95217e-27
-1.86018e-28
3.814e-25
-9.15166e-27
1.19419e-23
-1.10761e-25
2.939e-22
5.93429e-25
6.55154e-23
-1.12102e-91
-6.48181e-94
-3.95511e-90
-1.62351e-90
-3.37661e-87
-1.69321e-87
-5.35401e-84
-1.87567e-84
-1.17232e-81
-9.50536e-82
-3.15885e-81
-2.33032e-80
-8.11974e-79
-1.1887e-79
-8.62896e-77
-1.84419e-77
-1.02867e-74
-1.73468e-75
-1.04616e-72
-1.51471e-73
-8.07872e-71
-1.11845e-71
-4.95869e-69
-6.44575e-70
-2.56949e-67
-3.15301e-68
-1.19539e-65
-1.35516e-66
-5.19312e-64
-5.42215e-65
-2.10624e-62
-2.0664e-63
-7.77154e-61
-7.34553e-62
-2.58516e-59
-2.40048e-60
-7.97226e-58
-7.52679e-59
-2.40609e-56
-2.37152e-57
-7.33153e-55
-7.29965e-56
-2.09657e-53
-2.15846e-54
-4.96839e-52
-6.39162e-53
-1.06675e-50
-1.57562e-51
-2.88548e-49
-2.57499e-50
-8.28637e-48