/*--------------------------------*- C++ -*----------------------------------*\
| =========                 |                                                 |
| \\      /  F ield         | OpenFOAM: The Open Source CFD Toolbox           |
|  \\    /   O peration     | Version:  5.0                                   |
|   \\  /    A nd           | Web:      www.OpenFOAM.org                      |
|    \\/     M anipulation  |                                                 |
\*---------------------------------------------------------------------------*/
FoamFile
{
    version     2.0;
    format      ascii;
    class       volScalarField;
    location    "0.65";
    object      k;
}
// * * * * * * * * * * * * * * * * * * * * * * * * * * * * * * * * * * * * * //

dimensions      [0 2 -2 0 0 0 0];

internalField   nonuniform List<scalar> 
1915
(
0.133269
0.13766
0.142184
0.146846
0.151653
0.15661
0.161725
0.167008
0.172474
0.178144
0.184052
0.190245
0.196794
0.203798
0.211395
0.219769
0.229164
0.239891
0.252331
0.266941
0.284245
0.304825
0.329302
0.358301
0.392409
0.0211935
0.0421682
0.0530885
0.060732
0.0668693
0.072143
0.0768637
0.0812099
0.0852966
0.0892039
0.0929912
0.096705
0.100382
0.104055
0.107748
0.111485
0.115286
0.119168
0.123147
0.127237
0.131448
0.135793
0.140279
0.144916
0.149711
0.154674
0.159814
0.165143
0.170681
0.176453
0.182496
0.188862
0.195626
0.202892
0.210802
0.219544
0.229362
0.240563
0.253525
0.268691
0.286569
0.307715
0.332715
0.362146
0.396546
0.0209489
0.0417331
0.0525375
0.0600937
0.0661554
0.0713589
0.0760117
0.0802906
0.0843095
0.0881481
0.0918656
0.0955084
0.0991139
0.102713
0.106334
0.109998
0.113728
0.117541
0.121454
0.125481
0.129637
0.133933
0.138381
0.14299
0.147773
0.152739
0.157903
0.163279
0.168891
0.174768
0.180952
0.187498
0.194487
0.202027
0.210262
0.219383
0.229633
0.241315
0.254794
0.2705
0.288916
0.310567
0.335995
0.365729
0.400245
0.0206888
0.0412745
0.0519628
0.0594335
0.0654224
0.0705589
0.0751472
0.0793624
0.0833171
0.0870905
0.0907416
0.0943165
0.0978529
0.101382
0.104932
0.108526
0.112186
0.11593
0.119778
0.123744
0.127843
0.13209
0.136498
0.141079
0.145848
0.150817
0.156003
0.161427
0.167114
0.173099
0.179427
0.18616
0.193382
0.201205
0.209776
0.219286
0.229976
0.242141
0.256135
0.272365
0.291288
0.313389
0.339164
0.369086
0.403574
0.0204167
0.0407973
0.0513695
0.0587563
0.0646747
0.069747
0.0742739
0.0784284
0.0823222
0.0860337
0.0896216
0.0931317
0.0966019
0.100064
0.103546
0.107071
0.110663
0.114341
0.118123
0.122029
0.126072
0.13027
0.134638
0.13919
0.143944
0.148915
0.154124
0.159595
0.165358
0.171451
0.177927
0.184851
0.192311
0.200423
0.209337
0.219244
0.230379
0.243029
0.257531
0.274271
0.293671
0.316176
0.342231
0.372253
0.406597
0.020136
0.0403066
0.0507631
0.0580675
0.0639175
0.0689279
0.0733959
0.0774925
0.0813282
0.0849807
0.0885082
0.0919565
0.0953634
0.0987609
0.102177
0.105636
0.109162
0.112775
0.116495
0.12034
0.124329
0.128478
0.132806
0.137329
0.142066
0.147039
0.152269
0.157786
0.163624
0.169827
0.17645
0.183567
0.191267
0.199672
0.208932
0.219236
0.230817
0.24395
0.258955
0.27619
0.296043
0.318915
0.345199
0.375253
0.409371
0.0198503
0.0398078
0.0501492
0.0573728
0.0631562
0.0681068
0.0725181
0.0765591
0.0803391
0.0839351
0.0874048
0.0907939
0.09414
0.0974755
0.100828
0.104224
0.107686
0.111236
0.114895
0.118682
0.122616
0.126718
0.131005
0.135498
0.140219
0.145191
0.150442
0.156003
0.161914
0.168223
0.174993
0.182299
0.190238
0.198932
0.208536
0.219237
0.23126
0.244869
0.260366
0.278082
0.298368
0.32158
0.348057
0.378099
0.41194
0.0195629
0.0393064
0.0495342
0.0566786
0.0623971
0.0672895
0.0716459
0.0756331
0.0793594
0.0829009
0.086315
0.0896471
0.0929348
0.0962105
0.0995027
0.102837
0.106238
0.109727
0.113326
0.117055
0.120937
0.12499
0.129237
0.1337
0.138403
0.143373
0.148641
0.154243
0.160222
0.166634
0.173543
0.181033
0.189204
0.198182
0.208122
0.21921
0.231665
0.24574
0.261716
0.279897
0.3006
0.324133
0.350784
0.380794
0.414338
0.0192771
0.0388079
0.0489242
0.0559913
0.0616465
0.0664823
0.0707852
0.0747202
0.0783943
0.0818829
0.0852431
0.08852
0.0917512
0.0949691
0.0982024
0.101477
0.104818
0.108248
0.111789
0.115462
0.119291
0.123297
0.127504
0.131935
0.136618
0.141583
0.146864
0.152501
0.158544
0.165049
0.17209
0.179753
0.188144
0.197392
0.207653
0.219112
0.231983
0.246505
0.262944
0.281577
0.302683
0.326529
0.353352
0.383336
0.416592
0.0189961
0.0383181
0.0483257
0.0553177
0.0609113
0.0656919
0.0699424
0.0738263
0.0774493
0.0808863
0.0841938
0.0874169
0.0905931
0.0937547
0.0969308
0.100148
0.10343
0.106802
0.110286
0.113905
0.117681
0.12164
0.125805
0.130202
0.134863
0.139818
0.145107
0.150773
0.156869
0.163458
0.170616
0.178437
0.187031
0.196529
0.207089
0.218896
0.232157
0.247104
0.263984
0.283052
0.304558
0.328717
0.355701
0.385653
0.418643
0.018723
0.0378425
0.0477455
0.0546649
0.0601986
0.0649251
0.0691244
0.072958
0.0765307
0.0799168
0.0831725
0.0863427
0.0894648
0.0925713
0.0956912
0.0988513
0.102077
0.105391
0.108819
0.112383
0.116108
0.120018
0.124139
0.128501
0.133135
0.138076
0.143365
0.14905
0.155188
0.161846
0.169105
0.177063
0.185836
0.195557
0.206386
0.218508
0.232127
0.247466
0.26476
0.284246
0.306122
0.330556
0.357694
0.387628
0.420385
0.0184607
0.0373868
0.0471899
0.0540397
0.0595155
0.0641893
0.068338
0.0721219
0.0756447
0.0789804
0.0821847
0.0853025
0.0883711
0.091423
0.0944875
0.0975914
0.10076
0.104018
0.10739
0.110899
0.114571
0.118431
0.122507
0.12683
0.131433
0.136352
0.141633
0.147326
0.153491
0.1602
0.167538
0.175608
0.184529
0.194438
0.205499
0.217894
0.231827
0.247516
0.265188
0.285043
0.307235
0.331917
0.359195
0.389122
0.421682
0.0182121
0.0369565
0.0466655
0.0534492
0.0588692
0.0634914
0.0675904
0.0713248
0.074798
0.0780833
0.0812363
0.0843017
0.0873168
0.0903144
0.0933235
0.0963714
0.0994837
0.102685
0.106
0.109454
0.113072
0.11688
0.120908
0.125187
0.129752
0.134643
0.139905
0.145592
0.151768
0.158506
0.165898
0.174048
0.18308
0.193136
0.204381
0.216998
0.231191
0.247176
0.265168
0.285312
0.307767
0.332655
0.360053
0.389974
0.42237
0.0179797
0.0365568
0.0461787
0.0529002
0.0582667
0.0628388
0.0668886
0.0705738
0.0739972
0.0772318
0.0803331
0.0833458
0.0863072
0.08925
0.0922035
0.0951951
0.0982505
0.101395
0.104653
0.10805
0.111611
0.115366
0.119342
0.123572
0.128092
0.132945
0.138176
0.143842
0.150008
0.156753
0.164168
0.172362
0.181463
0.191617
0.202989
0.215767
0.230154
0.246367
0.264579
0.284936
0.307583
0.33262
0.360097
0.390001
0.422252
0.0177662
0.0361928
0.0457354
0.0523993
0.057715
0.0622383
0.0662395
0.0698756
0.0732488
0.0764322
0.0794811
0.0824403
0.0853472
0.0882345
0.0911316
0.0940661
0.0970636
0.10015
0.103349
0.106687
0.110191
0.113887
0.117807
0.121982
0.126451
0.131254
0.136442
0.14207
0.148206
0.15493
0.162335
0.170534
0.179656
0.189852
0.201287
0.214152
0.228653
0.244999
0.263327
0.2838
0.306549
0.331657
0.359154
0.389005
0.421111
0.0175739
0.0358695
0.0453416
0.0519529
0.0572206
0.0616966
0.0656498
0.0692366
0.0725592
0.0756905
0.078686
0.0815906
0.0844418
0.0872724
0.090112
0.0929879
0.0959262
0.0989522
0.102091
0.105368
0.10881
0.112445
0.116303
0.120418
0.124826
0.12957
0.1347
0.140272
0.146355
0.153029
0.16039
0.16855
0.177641
0.187816
0.199243
0.212114
0.226638
0.242992
0.261327
0.281803
0.304541
0.329617
0.357046
0.386783
0.418713
0.017405
0.0355915
0.0450029
0.051567
0.0567899
0.0612202
0.0651259
0.0686632
0.0719344
0.0750125
0.0779534
0.0808019
0.0835959
0.0863681
0.0891483
0.091964
0.0948412
0.0978051
0.100881
0.104094
0.107471
0.111041
0.114832
0.118878
0.123217
0.12789
0.132948
0.138446
0.144453
0.151049
0.158328
0.166404
0.175409
0.185495
0.196837
0.209623
0.224062
0.240301
0.258515
0.278859
0.301453
0.326366
0.353612
0.383136
0.414821
0.0172615
0.035363
0.0447245
0.0512473
0.0564287
0.0608151
0.0646738
0.0681612
0.0713801
0.0744038
0.0772884
0.0800791
0.0828138
0.0855257
0.0882445
0.0909976
0.0938112
0.0967105
0.0997205
0.102867
0.106175
0.109674
0.113392
0.117363
0.121623
0.126214
0.131185
0.136591
0.142499
0.148987
0.156149
0.164096
0.172958
0.182889
0.194062
0.206669
0.220897
0.236897
0.25485
0.274912
0.297205
0.321801
0.348713
0.377891
0.409218
0.0171452
0.035188
0.044511
0.050999
0.0561426
0.0604867
0.0642989
0.0677361
0.0709016
0.0738693
0.0766958
0.0794265
0.0820998
0.0847488
0.0874036
0.0900916
0.0928388
0.0956704
0.0986112
0.101686
0.104922
0.108345
0.111984
0.115873
0.120045
0.124543
0.129413
0.134709
0.140495
0.146847
0.153857
0.161631
0.170297
0.180004
0.190924
0.203253
0.21715
0.23278
0.250324
0.269942
0.291759
0.315857
0.342255
0.370914
0.401723
0.0170575
0.0350701
0.0443669
0.0508269
0.0559364
0.0602401
0.0640063
0.0673928
0.0705037
0.0734137
0.0761799
0.0788483
0.0814574
0.0840409
0.0866287
0.0892484
0.091926
0.0946864
0.0975544
0.100555
0.103712
0.107054
0.110609
0.114407
0.118484
0.122878
0.127633
0.132802
0.138446
0.144637
0.151462
0.159023
0.167442
0.176862
0.18745
0.199397
0.212851
0.22798
0.244965
0.263969
0.285126
0.308526
0.334203
0.362132
0.392221
0.017
0.0350124
0.0442961
0.0507353
0.0558146
0.0600798
0.0638005
0.0671357
0.0701907
0.073041
0.0757446
0.078348
0.0808901
0.0834049
0.0859224
0.0884704
0.0910747
0.0937601
0.0965511
0.0994718
0.102547
0.105803
0.109267
0.112968
0.11694
0.121219
0.125848
0.130875
0.136359
0.142366
0.148978
0.15629
0.164417
0.173494
0.183678
0.19515
0.208054
0.222559
0.23884
0.257064
0.277371
0.299864
0.324595
0.351557
0.38068
0.0169738
0.0350178
0.044302
0.0507277
0.0557811
0.0600098
0.0636854
0.0669687
0.0699663
0.0727549
0.0753934
0.0779288
0.0804008
0.0828433
0.085287
0.0877593
0.0902863
0.0928926
0.0956021
0.0984387
0.101426
0.10459
0.107957
0.111554
0.115414
0.119569
0.124061
0.128934
0.134242
0.140046
0.14642
0.153454
0.161252
0.169939
0.179662
0.190581
0.202836
0.216607
0.232054
0.249342
0.268619
0.289998
0.313551
0.339292
0.36718
0.0169798
0.0350885
0.0443875
0.0508075
0.0558393
0.0600334
0.0636643
0.066895
0.0698338
0.0725586
0.0751292
0.0775936
0.0799919
0.0823586
0.0847244
0.087117
0.0895623
0.0920848
0.0947082
0.0974556
0.100351
0.103417
0.106681
0.110167
0.113907
0.117931
0.122276
0.126984
0.132102
0.137688
0.143808
0.150541
0.157982
0.166244
0.175459
0.18577
0.197307
0.210239
0.224742
0.240962
0.259048
0.279124
0.301277
0.325547
0.351919
0.0170189
0.0352267
0.044555
0.0509773
0.0559917
0.0601534
0.0637402
0.0669176
0.0697959
0.0724546
0.0749546
0.0773447
0.0796658
0.0819527
0.0842364
0.0865449
0.0889039
0.0913378
0.0938699
0.0965231
0.0993199
0.102283
0.105438
0.108808
0.11242
0.116306
0.120496
0.12503
0.12995
0.135306
0.141157
0.147574
0.15464
0.162454
0.171132
0.180801
0.191576
0.203611
0.217067
0.232114
0.248882
0.267497
0.288058
0.310627
0.335218
0.0170918
0.0354338
0.0448065
0.0512391
0.0562407
0.0603721
0.0639153
0.0670387
0.0698549
0.0724452
0.0748717
0.0771843
0.0794244
0.0816274
0.0838247
0.0860444
0.0883123
0.0906525
0.0930881
0.0956415
0.0983345
0.101189
0.104228
0.107475
0.110955
0.114695
0.118725
0.123078
0.127792
0.132911
0.138486
0.144579
0.15126
0.158615
0.166744
0.175755
0.18575
0.196862
0.209234
0.223019
0.238371
0.255414
0.274237
0.294922
0.317505
0.0171988
0.0357109
0.0451433
0.0515947
0.0565879
0.0606913
0.0641913
0.0672601
0.0700127
0.0725324
0.0748826
0.0771143
0.0792696
0.0813847
0.0834911
0.0856172
0.0877888
0.0900301
0.0923637
0.0948116
0.097395
0.100135
0.103053
0.106171
0.109513
0.113101
0.116964
0.121131
0.125634
0.130512
0.135808
0.141574
0.147869
0.154766
0.162347
0.170706
0.179926
0.190119
0.201409
0.213928
0.227809
0.243187
0.260183
0.278868
0.299282
0.0173401
0.0360591
0.0455669
0.0520454
0.057035
0.0611124
0.06457
0.0675835
0.070271
0.0727178
0.074989
0.0771365
0.0792034
0.0812263
0.0832373
0.085265
0.0873352
0.0894721
0.0916981
0.0940347
0.0965025
0.0991219
0.101913
0.104896
0.108093
0.111525
0.115217
0.119193
0.123482
0.128117
0.133135
0.138576
0.144491
0.150939
0.157985
0.165711
0.174181
0.183488
0.193731
0.205022
0.217475
0.231203
0.246317
0.262915
0.281073
0.0175157
0.0364791
0.0460783
0.0525927
0.0575833
0.0616372
0.0650528
0.0680105
0.0706315
0.0730033
0.0751927
0.0772529
0.0792277
0.0811545
0.0830657
0.0849901
0.0869538
0.0889808
0.0910934
0.0933127
0.0956589
0.0981514
0.100809
0.103652
0.106698
0.109969
0.113484
0.117266
0.12134
0.125732
0.130473
0.135596
0.141141
0.147155
0.153691
0.160811
0.168572
0.177042
0.186301
0.196437
0.207543
0.219714
0.233042
0.247612
0.263495
0.0177258
0.0369719
0.0466793
0.0532384
0.0582349
0.0622674
0.0656417
0.068543
0.0710961
0.0733908
0.0754959
0.0774658
0.0793452
0.081172
0.0829791
0.0847956
0.0866477
0.0885593
0.0905528
0.0926487
0.0948669
0.0972261
0.0997445
0.10244
0.10533
0.108434
0.111768
0.115353
0.11921
0.123359
0.127827
0.132639
0.137827
0.143427
0.149479
0.15603
0.163131
0.170827
0.179179
0.188254
0.198126
0.208867
0.220554
0.233256
0.247036
0.0179708
0.0375398
0.0473728
0.0539859
0.0589931
0.0630064
0.0663398
0.069184
0.0716677
0.0738834
0.0759017
0.0777784
0.0795591
0.0812823
0.0829813
0.0846854
0.086421
0.0882121
0.0900806
0.0920472
0.0941311
0.0963504
0.0987226
0.101265
0.103993
0.106923
0.110072
0.113456
0.117093
0.121
0.125198
0.129707
0.134551
0.139757
0.145355
0.151378
0.157867
0.164856
0.172386
0.180505
0.189268
0.19873
0.208948
0.219976
0.231867
0.0182525
0.038187
0.0481643
0.054841
0.0598638
0.0638597
0.0671523
0.0699384
0.0723509
0.0744855
0.0764145
0.0781952
0.0798741
0.0814904
0.0830775
0.0846652
0.0862797
0.0879451
0.0896833
0.0915146
0.0934578
0.0955306
0.0977498
0.100131
0.10269
0.105441
0.108399
0.111577
0.114991
0.118656
0.122586
0.126798
0.13131
0.136141
0.141312
0.146847
0.152773
0.15912
0.165911
0.173179
0.180961
0.189296
0.198225
0.207788
0.218022
0.0185747
0.0389219
0.049064
0.0558143
0.060857
0.0648369
0.068088
0.0708143
0.0731534
0.0752041
0.0770411
0.0787229
0.0802971
0.0818031
0.083275
0.0847424
0.0862318
0.0877669
0.0893695
0.0910597
0.092856
0.0947757
0.0968348
0.0990484
0.101431
0.103995
0.106755
0.109722
0.112909
0.116328
0.119992
0.123911
0.1281
0.132571
0.137339
0.142419
0.147829
0.153588
0.159717
0.16623
0.173151
0.180506
0.188319
0.196618
0.205428
0.018945
0.03976
0.0500899
0.0569241
0.0619904
0.065954
0.0691615
0.0718248
0.0740869
0.0760502
0.0777917
0.0793713
0.0808375
0.0822302
0.0835837
0.0849274
0.0862878
0.0876884
0.0891508
0.0906947
0.0923382
0.0940982
0.0959901
0.0980284
0.100226
0.102597
0.105151
0.107899
0.110853
0.114022
0.117416
0.121043
0.124913
0.129035
0.133417
0.13807
0.143003
0.148227
0.153752
0.159593
0.165758
0.17226
0.179113
0.186332
0.193932
0.0193783
0.0407289
0.051273
0.058201
0.0632925
0.0672371
0.0703959
0.0729904
0.0751696
0.07704
0.0786811
0.0801543
0.0815087
0.0827848
0.0840167
0.0852337
0.0864619
0.0877245
0.0890426
0.0904354
0.0919208
0.0935149
0.0952328
0.0970881
0.0990937
0.101261
0.103601
0.106122
0.108835
0.111747
0.114865
0.118197
0.121748
0.125525
0.129533
0.133776
0.138259
0.142987
0.147964
0.153195
0.158685
0.164441
0.170462
0.176757
0.183331
0.0199014
0.0418762
0.0526652
0.0596951
0.0648089
0.0687264
0.0718263
0.0743415
0.076428
0.0781969
0.0797302
0.081091
0.082329
0.0834846
0.0845917
0.0856791
0.0867724
0.087894
0.0890645
0.0903024
0.0916249
0.0930477
0.0945851
0.0962502
0.0980551
0.10001
0.102126
0.104411
0.106872
0.109518
0.112352
0.115382
0.11861
0.12204
0.125675
0.129517
0.133566
0.137824
0.142289
0.146962
0.151841
0.156926
0.162216
0.16771
0.173408
0.0205604
0.0432817
0.0543505
0.0614852
0.0666096
0.070482
0.0735035
0.0759209
0.0778985
0.0795523
0.0809671
0.082207
0.083322
0.0843524
0.0853311
0.0862863
0.0872424
0.0882209
0.0892414
0.0903216
0.0914777
0.0927247
0.094076
0.0955442
0.0971406
0.0988752
0.100757
0.102794
0.104993
0.10736
0.1099
0.112616
0.115511
0.118588
0.121846
0.125286
0.128906
0.132704
0.136678
0.140823
0.145134
0.149608
0.154239
0.159021
0.163949
0.0214319
0.0450751
0.0564616
0.0636909
0.0687964
0.072588
0.0754964
0.077785
0.0796279
0.0811461
0.0824264
0.0835336
0.0845172
0.0854164
0.0862629
0.0870833
0.0879006
0.0887349
0.0896043
0.0905253
0.0915129
0.0925808
0.0937419
0.0950077
0.0963887
0.0978943
0.0995328
0.101311
0.103236
0.105312
0.107543
0.109932
0.112482
0.115191
0.118062
0.121091
0.124276
0.127615
0.131101
0.134731
0.138496
0.14239
0.146406
0.150536
0.154772
0.0226345
0.0474621
0.0592017
0.0664869
0.07151
0.0751547
0.0778907
0.0800015
0.0816711
0.0830243
0.0841485
0.0851076
0.0859492
0.0867103
0.0874205
0.088104
0.0887818
0.0894719
0.0901906
0.0909525
0.0917712
0.0926591
0.0936276
0.0946873
0.0958478
0.0971175
0.098504
0.100014
0.101653
0.103424
0.105333
0.10738
0.109567
0.111894
0.11436
0.116964
0.119701
0.122569
0.125561
0.128671
0.131892
0.135217
0.138638
0.142144
0.145729
0.0243555
0.0507745
0.0628773
0.0701153
0.0749287
0.0783103
0.0807793
0.0826402
0.0840835
0.0852335
0.0861752
0.0869682
0.0876562
0.0882723
0.0888426
0.0893883
0.0899272
0.0904748
0.0910449
0.09165
0.0923017
0.0930107
0.0937869
0.0946394
0.0955765
0.0966059
0.0977342
0.0989671
0.10031
0.101765
0.103337
0.105027
0.106835
0.108762
0.110806
0.112965
0.115235
0.117614
0.120095
0.122672
0.125338
0.128087
0.130909
0.133798
0.136745
0.0269719
0.0555837
0.0679472
0.0748849
0.0792454
0.0821731
0.0842381
0.0857545
0.0869075
0.0878122
0.0885437
0.0891533
0.0896777
0.0901439
0.0905729
0.0909818
0.0913846
0.0917935
0.0922196
0.0926728
0.0931621
0.0936963
0.0942832
0.0949305
0.0956449
0.0964329
0.0972999
0.098251
0.09929
0.10042
0.101644
0.102963
0.104378
0.105887
0.107491
0.109186
0.11097
0.112839
0.114788
0.116812
0.118905
0.121061
0.123271
0.125531
0.127833
0.0314551
0.062965
0.0750639
0.0811094
0.0845868
0.0867863
0.0882802
0.0893519
0.090155
0.0907793
0.0912809
0.0916969
0.0920535
0.0923696
0.0926601
0.0929368
0.0932094
0.0934866
0.0937761
0.0940848
0.0944194
0.0947859
0.0951904
0.0956382
0.0961346
0.0966843
0.0972917
0.0979604
0.0986938
0.0994942
0.100364
0.101303
0.102313
0.103393
0.104542
0.105758
0.107038
0.10838
0.109779
0.111231
0.112732
0.114276
0.115857
0.117471
0.119114
0.0412381
0.0751079
0.0849077
0.0888228
0.0908117
0.092002
0.092796
0.0933653
0.0937943
0.0941303
0.0944021
0.094629
0.0948246
0.0949989
0.0951598
0.0953137
0.0954662
0.0956219
0.0957852
0.0959602
0.0961507
0.0963603
0.0965926
0.0968509
0.0971385
0.0974583
0.0978131
0.0982052
0.0986369
0.0991097
0.099625
0.100183
0.100785
0.10143
0.102117
0.102846
0.103613
0.104418
0.105256
0.106126
0.107024
0.107947
0.10889
0.109851
0.110826
0.0850179
0.0955333
0.0965724
0.0969362
0.0971826
0.0973753
0.0975311
0.097658
0.0977622
0.0978487
0.0979217
0.0979846
0.0980402
0.0980909
0.0981385
0.0981848
0.0982312
0.0982792
0.09833
0.0983849
0.098445
0.0985116
0.0985858
0.0986688
0.0987615
0.0988652
0.0989806
0.0991088
0.0992506
0.0994064
0.0995769
0.0997623
0.0999628
0.100178
0.100408
0.100652
0.10091
0.10118
0.101462
0.101753
0.102054
0.102362
0.102676
0.102995
0.103318
)
;

boundaryField
{
    leftWall
    {
        type            kqRWallFunction;
        value           nonuniform List<scalar> 
42
(
0.0211935
0.0209489
0.0206888
0.0204167
0.020136
0.0198503
0.0195629
0.0192771
0.0189961
0.018723
0.0184607
0.0182121
0.0179797
0.0177662
0.0175739
0.017405
0.0172615
0.0171452
0.0170575
0.017
0.0169738
0.0169798
0.0170189
0.0170918
0.0171988
0.0173401
0.0175157
0.0177258
0.0179708
0.0182525
0.0185747
0.018945
0.0193783
0.0199014
0.0205604
0.0214319
0.0226345
0.0243555
0.0269719
0.0314551
0.0412381
0.0850179
)
;
    }
    rightWall
    {
        type            kqRWallFunction;
        value           nonuniform 0();
    }
    lowerWall
    {
        type            kqRWallFunction;
        value           nonuniform 0();
    }
    atmosphere
    {
        type            inletOutlet;
        inletValue      uniform 0.1;
        value           uniform 0.1;
    }
    defaultFaces
    {
        type            empty;
    }
    procBoundary2to0
    {
        type            processor;
        value           nonuniform List<scalar> 
46
(
0.13509
0.139526
0.144084
0.148768
0.153584
0.158535
0.163624
0.168861
0.174256
0.179827
0.185605
0.191631
0.197975
0.204731
0.212031
0.220055
0.229041
0.239296
0.251204
0.265242
0.281934
0.301882
0.325732
0.354149
0.387769
0.0214193
0.0425754
0.0536112
0.0613442
0.0675602
0.0729077
0.0777002
0.0821177
0.0862759
0.0902555
0.0941162
0.0979041
0.101656
0.105404
0.109172
0.112983
0.116856
0.120807
0.124852
0.129003
0.129003
)
;
    }
    procBoundary2to3
    {
        type            processor;
        value           nonuniform List<scalar> 
43
(
0.432135
0.436359
0.439926
0.442946
0.445522
0.447752
0.449721
0.451504
0.453163
0.454661
0.455911
0.456785
0.457119
0.456706
0.455307
0.452659
0.448483
0.442513
0.434514
0.424314
0.411833
0.397109
0.38032
0.36179
0.341977
0.321447
0.300816
0.280739
0.261942
0.24466
0.228961
0.214773
0.201926
0.190189
0.179305
0.169019
0.159107
0.149384
0.139742
0.13017
0.12078
0.111814
0.103643
)
;
    }
}


// ************************************************************************* //
