/*--------------------------------*- C++ -*----------------------------------*\
| =========                 |                                                 |
| \\      /  F ield         | OpenFOAM: The Open Source CFD Toolbox           |
|  \\    /   O peration     | Version:  5.0                                   |
|   \\  /    A nd           | Web:      www.OpenFOAM.org                      |
|    \\/     M anipulation  |                                                 |
\*---------------------------------------------------------------------------*/
FoamFile
{
    version     2.0;
    format      ascii;
    class       volScalarField;
    location    "0.65";
    object      nut;
}
// * * * * * * * * * * * * * * * * * * * * * * * * * * * * * * * * * * * * * //

dimensions      [0 2 -1 0 0 0 0];

internalField   nonuniform List<scalar> 
1915
(
0.0111214
0.0112471
0.0113532
0.0114423
0.0115174
0.0115812
0.0116364
0.0116859
0.0117323
0.0117786
0.0118279
0.0118831
0.0119479
0.012026
0.0121216
0.0122389
0.0123821
0.0125548
0.01276
0.012999
0.0132713
0.0135748
0.0139055
0.0142591
0.0146309
0.000103453
0.000947368
0.00200799
0.00302333
0.00396441
0.00482972
0.00562223
0.0063458
0.00700437
0.00760177
0.00814168
0.00862764
0.009063
0.00945101
0.00979478
0.0100974
0.0103618
0.010591
0.010788
0.0109559
0.0110975
0.0112159
0.0113142
0.0113954
0.0114624
0.0115183
0.0115659
0.0116082
0.0116483
0.0116891
0.0117339
0.0117859
0.0118487
0.0119263
0.0120227
0.0121422
0.0122887
0.012466
0.0126766
0.0129217
0.0132006
0.0135108
0.0138481
0.0142077
0.014584
0.000102859
0.000944759
0.00200357
0.00301793
0.00395871
0.00482421
0.00561728
0.00634163
0.00700108
0.00759933
0.00813994
0.0086263
0.00906162
0.009449
0.00979147
0.010092
0.0103534
0.0105788
0.0107712
0.0109334
0.0110688
0.0111803
0.0112712
0.0113446
0.0114037
0.0114518
0.0114918
0.0115271
0.0115607
0.011596
0.0116362
0.0116848
0.0117455
0.0118221
0.0119188
0.0120397
0.0121889
0.0123696
0.0125845
0.0128343
0.0131184
0.0134338
0.0137764
0.0141406
0.0145202
0.000102224
0.000941559
0.00199758
0.00300993
0.00394946
0.0048143
0.00560719
0.0063317
0.00699155
0.00759031
0.00813141
0.00861807
0.00905339
0.00944032
0.00978173
0.0100805
0.0103394
0.0105614
0.0107495
0.0109068
0.0110363
0.0111413
0.0112252
0.0112912
0.0113428
0.0113833
0.011416
0.0114442
0.0114715
0.0115011
0.0115367
0.0115816
0.0116398
0.011715
0.0118115
0.0119332
0.012084
0.0122672
0.0124851
0.0127384
0.0130263
0.0133457
0.0136922
0.0140598
0.0144417
0.000101554
0.00093781
0.00199012
0.0029995
0.00393686
0.00480025
0.00559225
0.00631637
0.00697617
0.00757513
0.00811652
0.00860345
0.00903884
0.00942549
0.00976616
0.0100635
0.0103204
0.0105396
0.010724
0.0108768
0.011001
0.0111001
0.0111775
0.0112366
0.011281
0.0113142
0.0113398
0.0113613
0.0113822
0.0114062
0.011437
0.0114781
0.0115334
0.0116069
0.0117025
0.0118242
0.0119758
0.0121604
0.0123802
0.0126357
0.012926
0.0132482
0.0135974
0.0139673
0.0143505
0.000100858
0.000933556
0.00198129
0.00298677
0.00392111
0.00478229
0.00557278
0.00629597
0.00695532
0.00755419
0.00809573
0.00858289
0.00901845
0.00940505
0.00974529
0.0100417
0.0102971
0.0105139
0.0106953
0.0108442
0.0109639
0.0110577
0.0111292
0.0111819
0.0112196
0.011246
0.0112648
0.0112797
0.0112945
0.0113129
0.0113387
0.0113758
0.011428
0.0114991
0.0115933
0.0117143
0.0118658
0.0120508
0.0122712
0.0125278
0.0128193
0.0131429
0.0134936
0.0138648
0.0142485
0.000100145
0.000928847
0.00197118
0.00297191
0.00390243
0.00476069
0.00554906
0.00627083
0.00692937
0.0075279
0.00806946
0.00855684
0.00899269
0.00937948
0.00971965
0.0100156
0.0102699
0.0104852
0.0106642
0.01081
0.0109258
0.011015
0.0110812
0.0111282
0.0111598
0.0111798
0.0111922
0.0112008
0.0112097
0.0112225
0.0112434
0.0112763
0.0113249
0.0113933
0.0114854
0.011605
0.0117555
0.0119398
0.0121599
0.0124162
0.0127077
0.0130314
0.0133824
0.0137538
0.0141373
9.94208e-05
0.000923737
0.00195991
0.00295507
0.00388102
0.00473568
0.00552137
0.00624127
0.00689865
0.00749662
0.00803809
0.00852572
0.00896198
0.00934922
0.00968969
0.00998567
0.0102395
0.0104538
0.0106311
0.0107746
0.0108873
0.0109727
0.0110345
0.0110765
0.0111026
0.0111168
0.0111232
0.011126
0.0111291
0.0111365
0.0111525
0.0111809
0.0112257
0.0112909
0.0113803
0.0114977
0.0116463
0.011829
0.0120475
0.0123024
0.0125927
0.0129152
0.0132652
0.0136358
0.0140183
9.86952e-05
0.000918281
0.00194759
0.00293641
0.00385706
0.00470751
0.00548999
0.00620761
0.00686351
0.00746071
0.008002
0.00848989
0.00892672
0.00931466
0.00965581
0.00995228
0.0102063
0.0104202
0.0105967
0.0107386
0.010849
0.0109315
0.0109896
0.0110274
0.0110487
0.0110578
0.0110589
0.0110562
0.0110538
0.0110561
0.011067
0.0110909
0.0111316
0.0111932
0.0112793
0.0113937
0.0115396
0.0117196
0.0119356
0.0121879
0.0124755
0.0127956
0.0131433
0.0135117
0.0138922
9.7976e-05
0.00091254
0.00193433
0.00291609
0.00383077
0.00467641
0.0054552
0.00617012
0.00682426
0.00742051
0.00796153
0.00844972
0.00888726
0.00927616
0.00961836
0.00991582
0.0101706
0.0103849
0.0105613
0.0107024
0.0108115
0.0108919
0.0109473
0.0109816
0.010999
0.0110037
0.0110001
0.0109924
0.010985
0.0109822
0.0109883
0.0110074
0.0110438
0.0111013
0.0111836
0.0112943
0.0114365
0.0116129
0.0118251
0.0120736
0.0123573
0.0126735
0.0130175
0.0133825
0.0137601
9.72712e-05
0.000906577
0.00192024
0.00289427
0.00380236
0.00464264
0.00541726
0.00612913
0.00678123
0.00737635
0.00791703
0.00840554
0.00884391
0.00923403
0.00957766
0.00987658
0.0101327
0.0103481
0.0105251
0.0106664
0.010775
0.0108543
0.0109079
0.0109398
0.0109541
0.0109552
0.0109474
0.0109353
0.0109234
0.0109158
0.0109172
0.0109316
0.0109633
0.0110163
0.0110941
0.0112004
0.0113381
0.0115098
0.0117171
0.0119605
0.012239
0.0125502
0.0128894
0.01325
0.0136237
9.65887e-05
0.000900459
0.00190546
0.00287114
0.00377203
0.00460643
0.00537645
0.00608493
0.00673473
0.00732854
0.0078688
0.00835765
0.00879699
0.00918855
0.00953394
0.0098348
0.0100928
0.01031
0.0104885
0.0106308
0.0107398
0.0108189
0.0108717
0.0109021
0.0109142
0.0109125
0.0109015
0.0108857
0.0108696
0.0108577
0.0108545
0.0108642
0.010891
0.010939
0.0110118
0.0111129
0.0112452
0.0114112
0.0116124
0.0118494
0.0121218
0.0124268
0.0127601
0.0131153
0.0134843
9.59365e-05
0.000894253
0.00189012
0.00284688
0.00374003
0.00456806
0.00533307
0.00603782
0.00668507
0.00727742
0.00781716
0.00830635
0.00874675
0.00913995
0.00948742
0.00979064
0.0100512
0.0102707
0.0104514
0.0105956
0.010706
0.010786
0.0108389
0.0108687
0.0108797
0.0108762
0.0108627
0.0108439
0.0108243
0.0108084
0.0108008
0.0108058
0.0108277
0.0108703
0.0109375
0.0110326
0.0111585
0.0113176
0.0115115
0.0117414
0.0120065
0.0123043
0.0126306
0.0129794
0.0133431
9.53221e-05
0.000888028
0.00187436
0.00282168
0.00370659
0.00452781
0.00528743
0.00598814
0.00663261
0.0072233
0.00776244
0.00825193
0.00869346
0.00908846
0.00943828
0.00974424
0.0100077
0.0102304
0.010414
0.0105609
0.0106736
0.0107554
0.0108095
0.0108399
0.0108507
0.0108463
0.0108312
0.0108101
0.0107876
0.0107683
0.0107567
0.0107571
0.0107737
0.0108107
0.0108716
0.0109599
0.0110784
0.0112295
0.0114154
0.011637
0.0118937
0.0121831
0.0125014
0.012843
0.0132004
9.4753e-05
0.000881855
0.0018583
0.00279575
0.00367197
0.00448598
0.00523987
0.00593625
0.00657769
0.00716655
0.00770495
0.0081947
0.00863736
0.00903428
0.00938666
0.00969568
0.0099626
0.0101888
0.0103761
0.0105265
0.0106425
0.010727
0.0107833
0.0108153
0.010827
0.0108227
0.010807
0.0107845
0.0107598
0.0107376
0.0107223
0.0107183
0.0107297
0.0107606
0.0108148
0.0108954
0.0110056
0.0111477
0.0113245
0.0115367
0.0117837
0.0120636
0.0123728
0.012706
0.0130565
9.42364e-05
0.000875808
0.00184212
0.00276932
0.00363648
0.00444292
0.00519076
0.00588253
0.0065207
0.00710754
0.00764505
0.00813496
0.00857873
0.00897761
0.00933269
0.00964503
0.00991575
0.0101461
0.0103377
0.0104923
0.0106124
0.0107006
0.0107602
0.0107948
0.0108084
0.0108052
0.0107899
0.0107668
0.0107408
0.0107163
0.0106977
0.0106895
0.0106958
0.0107204
0.0107672
0.0108396
0.0109404
0.0110728
0.0112393
0.0114407
0.0116769
0.0119459
0.0122447
0.0125685
0.0129109
9.3779e-05
0.00086996
0.00182598
0.00274264
0.00360042
0.00439899
0.0051405
0.00582742
0.0064621
0.0070467
0.00758314
0.00807306
0.00851784
0.00891865
0.0092765
0.00959233
0.00986712
0.010102
0.0102984
0.010458
0.0105829
0.0106757
0.0107396
0.0107778
0.0107944
0.0107935
0.0107795
0.0107569
0.0107302
0.0107041
0.0106829
0.0106709
0.0106721
0.0106904
0.0107295
0.0107929
0.0108835
0.0110053
0.0111603
0.0113497
0.0115734
0.0118302
0.0121171
0.01243
0.0127631
9.3387e-05
0.000864388
0.00181004
0.00271598
0.00356416
0.00435462
0.00508957
0.0057714
0.00640235
0.00698449
0.00751965
0.00800938
0.00845501
0.00885765
0.00921822
0.0095376
0.00981665
0.0100564
0.010258
0.0104231
0.0105536
0.0106519
0.0107209
0.0107639
0.0107845
0.0107869
0.0107752
0.010754
0.0107277
0.0107008
0.0106776
0.0106622
0.0106586
0.0106706
0.0107018
0.0107557
0.0108358
0.0109459
0.0110882
0.0112641
0.0114738
0.0117166
0.01199
0.0122902
0.0126123
9.30659e-05
0.00085917
0.0017945
0.00268964
0.00352807
0.00431026
0.00503847
0.00571501
0.00634202
0.00692146
0.00745507
0.00794435
0.00839059
0.00879485
0.00915801
0.00948088
0.00976424
0.010009
0.0102162
0.0103873
0.010524
0.0106286
0.0107036
0.0107522
0.0107779
0.0107846
0.0107764
0.0107576
0.0107326
0.0107057
0.0106812
0.0106631
0.0106552
0.0106612
0.0106846
0.0107287
0.0107978
0.0108954
0.0110238
0.0111848
0.0113789
0.0116058
0.0118637
0.0121493
0.0124584
9.28207e-05
0.000854384
0.00177954
0.00266391
0.00349257
0.00426642
0.00498777
0.00565886
0.00628171
0.00685819
0.00738996
0.00787848
0.00832501
0.00873057
0.00909606
0.00942223
0.00970983
0.00995964
0.0101726
0.0103501
0.0104935
0.0106049
0.0106867
0.0107418
0.0107736
0.0107856
0.0107819
0.0107666
0.0107439
0.010718
0.0106931
0.010673
0.0106615
0.010662
0.010678
0.0107126
0.0107704
0.0108548
0.0109684
0.0111131
0.01129
0.0114991
0.0117392
0.012008
0.0123015
9.26559e-05
0.000850107
0.00176537
0.00263914
0.00345811
0.00422363
0.00493808
0.0056036
0.00622211
0.00679537
0.00732497
0.00781235
0.00825874
0.00866521
0.00903263
0.00936177
0.00965335
0.00990811
0.0101269
0.0103108
0.0104613
0.01058
0.0106693
0.0107317
0.0107704
0.0107888
0.0107906
0.0107799
0.0107605
0.0107367
0.0107123
0.0106912
0.0106768
0.0106727
0.0106819
0.0107076
0.0107543
0.0108253
0.0109234
0.0110508
0.0112089
0.0113984
0.0116185
0.0118677
0.0121429
9.25749e-05
0.000846413
0.00175219
0.00261565
0.00342515
0.00418248
0.00489006
0.00554995
0.00616395
0.00673373
0.00726081
0.0077466
0.00819237
0.0085992
0.00896804
0.00929967
0.00959482
0.00985421
0.0100786
0.010269
0.0104267
0.0105531
0.0106504
0.0107208
0.0107672
0.0107929
0.0108012
0.010796
0.0107811
0.0107604
0.0107377
0.0107165
0.0107004
0.0106925
0.0106959
0.0107138
0.0107501
0.0108079
0.0108903
0.0109998
0.0111381
0.0113062
0.0115044
0.0117314
0.0119853
9.25808e-05
0.000843371
0.0017402
0.0025938
0.00339417
0.00414355
0.0048444
0.00549867
0.00610805
0.00667409
0.00719827
0.00768199
0.00812656
0.00853312
0.0089027
0.00923618
0.00953431
0.00979783
0.0100275
0.0102242
0.010389
0.0105233
0.0106288
0.0107077
0.0107626
0.0107963
0.0108121
0.0108135
0.0108041
0.0107876
0.0107676
0.0107476
0.0107309
0.0107205
0.0107193
0.0107304
0.0107576
0.0108035
0.0108707
0.0109622
0.0110801
0.0112259
0.0114003
0.011603
0.0118327
9.26757e-05
0.000841042
0.00172958
0.00257391
0.00336565
0.00410747
0.00480182
0.00545057
0.00605525
0.00661733
0.00713823
0.00761935
0.00806206
0.00846762
0.00883715
0.00917166
0.009472
0.00973895
0.00997327
0.0101758
0.0103475
0.0104896
0.0106035
0.0106913
0.010755
0.0107975
0.0108215
0.0108305
0.0108276
0.0108164
0.0108004
0.0107828
0.0107667
0.0107552
0.0107508
0.0107566
0.010776
0.0108114
0.0108653
0.0109398
0.0110377
0.0111609
0.0113107
0.0114874
0.0116904
9.2861e-05
0.00083948
0.00172051
0.0025563
0.00334007
0.00407483
0.00476306
0.00540647
0.00600648
0.0065644
0.00708164
0.00755961
0.00799975
0.00840347
0.00877203
0.0091066
0.00940818
0.00967765
0.00991582
0.0101235
0.0103016
0.0104511
0.0105734
0.01067
0.0107431
0.0107947
0.0108277
0.010845
0.0108496
0.0108448
0.0108338
0.0108198
0.0108058
0.0107945
0.0107885
0.0107905
0.0108038
0.0108306
0.010873
0.0109331
0.0110127
0.0111142
0.0112396
0.0113897
0.0115647
9.31372e-05
0.000838728
0.00171314
0.00254129
0.00331787
0.00404625
0.00472886
0.00536725
0.00596266
0.00651631
0.00702953
0.00750378
0.0079406
0.00834156
0.00870812
0.00904164
0.00934331
0.00961418
0.00985515
0.010067
0.0102507
0.0104071
0.0105374
0.0106428
0.0107251
0.0107864
0.0108288
0.010855
0.010868
0.0108705
0.0108657
0.0108565
0.0108457
0.010836
0.01083
0.0108299
0.0108389
0.010859
0.0108921
0.01094
0.0110046
0.0110875
0.0111901
0.0113144
0.0114615
9.35039e-05
0.000838823
0.00170761
0.00252914
0.00329951
0.00402234
0.00469998
0.00533379
0.0059248
0.00647411
0.006983
0.00745297
0.0078857
0.00828291
0.00864633
0.00897755
0.00927801
0.00954895
0.00979144
0.0100064
0.0101946
0.0103571
0.0104946
0.0106084
0.0106998
0.0107706
0.0108227
0.0108585
0.0108803
0.010891
0.0108933
0.0108899
0.0108837
0.010877
0.0108722
0.0108717
0.0108781
0.0108935
0.0109196
0.0109579
0.0110101
0.0110776
0.0111619
0.0112641
0.0113852
9.39601e-05
0.000839795
0.00170407
0.00252016
0.00328545
0.00400374
0.00467722
0.00530703
0.00589396
0.00643896
0.00694326
0.00740841
0.00783623
0.00822868
0.00858773
0.00891528
0.00921306
0.00948257
0.00972508
0.00994164
0.0101331
0.0103004
0.0104443
0.0105657
0.0106658
0.010746
0.0108078
0.0108532
0.0108844
0.0109039
0.010914
0.0109174
0.0109167
0.0109141
0.010912
0.0109125
0.0109179
0.0109305
0.0109516
0.0109828
0.0110253
0.0110805
0.0111496
0.0112337
0.0113339
9.45047e-05
0.000841676
0.00170265
0.00251465
0.00327617
0.00399112
0.00466146
0.005288
0.00587129
0.0064121
0.00691161
0.00737143
0.00779354
0.00818015
0.00853354
0.00885596
0.00914945
0.00941585
0.00965669
0.0098732
0.0100664
0.0102371
0.0103861
0.0105141
0.010622
0.0107109
0.0107821
0.0108372
0.010878
0.0109065
0.0109251
0.010936
0.0109415
0.010944
0.0109456
0.0109484
0.0109543
0.0109655
0.0109835
0.0110096
0.011045
0.0110908
0.0111479
0.0112174
0.0113001
9.5138e-05
0.000844512
0.00170353
0.00251298
0.0032723
0.00398534
0.00465373
0.00527791
0.00585813
0.00639496
0.00688952
0.00734351
0.0077591
0.00813876
0.00848514
0.00880086
0.00908836
0.00934983
0.00958711
0.00980169
0.00999474
0.0101672
0.0103197
0.0104529
0.0105675
0.0106643
0.0107443
0.0108086
0.0108588
0.0108965
0.0109238
0.0109426
0.010955
0.0109632
0.0109693
0.0109752
0.0109828
0.0109939
0.0110102
0.0110329
0.0110632
0.0111019
0.0111499
0.011208
0.0112768
9.58627e-05
0.000848386
0.00170701
0.00251571
0.00327465
0.00398748
0.00465536
0.00527828
0.00585611
0.00638924
0.00687873
0.00732637
0.00773456
0.00810612
0.00844406
0.00875144
0.00903113
0.00928572
0.00951742
0.00972801
0.00991888
0.010091
0.0102452
0.010382
0.0105018
0.0106053
0.010693
0.0107658
0.010825
0.0108717
0.0109075
0.0109343
0.0109539
0.0109683
0.0109794
0.0109891
0.010999
0.0110109
0.0110265
0.011047
0.0110735
0.011107
0.011148
0.0111973
0.0112553
9.66872e-05
0.000853454
0.00171354
0.00252367
0.00328446
0.00399911
0.00466819
0.0052911
0.00586734
0.00639705
0.00688128
0.00732198
0.00772182
0.008084
0.00841198
0.00870928
0.00897925
0.00922491
0.00944889
0.00965328
0.00983974
0.0100094
0.0101632
0.0103015
0.0104247
0.0105332
0.0106274
0.0107077
0.0107748
0.0108299
0.010874
0.0109087
0.0109354
0.0109561
0.0109723
0.0109859
0.0109986
0.0110119
0.0110273
0.0110463
0.01107
0.0110991
0.0111345
0.0111766
0.0112259
9.76299e-05
0.000860005
0.00172392
0.00253825
0.00330364
0.0040226
0.00469487
0.0053192
0.00589464
0.00642113
0.00689977
0.00733273
0.00772305
0.00807439
0.00839072
0.00867607
0.00893429
0.00916889
0.0093829
0.00957879
0.00975849
0.00992337
0.0100744
0.010212
0.0103365
0.0104482
0.010547
0.0106332
0.0107072
0.0107696
0.0108213
0.0108632
0.0108968
0.0109234
0.0109447
0.0109623
0.0109777
0.0109925
0.0110081
0.0110258
0.0110468
0.0110721
0.0111023
0.0111382
0.01118
9.87267e-05
0.000868548
0.0017395
0.00256165
0.00333518
0.00406151
0.00473932
0.00536659
0.00594191
0.00646511
0.00693746
0.00736149
0.00774075
0.00807946
0.00838218
0.00865352
0.00889785
0.00911916
0.0093209
0.00950592
0.00967643
0.00983403
0.00997979
0.0101143
0.0102378
0.0103503
0.0104517
0.010542
0.0106213
0.0106897
0.0107477
0.0107961
0.0108358
0.010868
0.0108939
0.0109151
0.0109329
0.0109489
0.0109644
0.0109808
0.0109992
0.0110204
0.0110456
0.0110752
0.0111097
0.000100042
0.00087995
0.00176247
0.00259745
0.0033838
0.00412133
0.00480738
0.00543905
0.00601455
0.00653381
0.00699848
0.00741171
0.00777774
0.00810152
0.0083883
0.00864328
0.00887139
0.0090771
0.00926424
0.00943601
0.0095949
0.00974272
0.00988068
0.0100095
0.0101293
0.0102402
0.0103419
0.0104342
0.0105167
0.0105893
0.0106523
0.0107059
0.0107507
0.0107875
0.0108174
0.0108417
0.0108615
0.0108782
0.0108932
0.0109078
0.010923
0.01094
0.0109597
0.0109827
0.0110095
0.000101685
0.000895604
0.00179636
0.00265127
0.00345678
0.00421035
0.00490761
0.00554479
0.00611997
0.00663355
0.00708799
0.00748743
0.00783712
0.0081429
0.00841082
0.00864673
0.0088561
0.00904381
0.00921403
0.00937022
0.00951511
0.0096507
0.00977833
0.00989879
0.0100124
0.010119
0.0102184
0.01031
0.0103934
0.0104683
0.0105343
0.0105915
0.0106401
0.0106805
0.0107136
0.0107401
0.0107613
0.0107782
0.0107921
0.0108043
0.0108158
0.0108279
0.0108414
0.0108571
0.0108757
0.000103828
0.000917642
0.00184661
0.00273185
0.00356533
0.00434103
0.00505249
0.0056953
0.00626804
0.00677231
0.00721211
0.00759312
0.00792196
0.00820564
0.00845108
0.00866477
0.00885265
0.00901989
0.00917091
0.00930933
0.00943801
0.00955906
0.00967394
0.00978351
0.00988812
0.00998771
0.0100819
0.0101702
0.010252
0.0103266
0.0103935
0.0104524
0.0105031
0.0105458
0.0105809
0.0106089
0.0106308
0.0106473
0.0106597
0.010669
0.0106764
0.0106829
0.0106897
0.0106974
0.010707
0.000106722
0.00094924
0.00192159
0.00285283
0.00372678
0.00453206
0.00525994
0.00590623
0.00647138
0.00695957
0.00737746
0.00773304
0.00803479
0.00829102
0.00850954
0.00869743
0.00886087
0.00900522
0.00913491
0.0092536
0.00936411
0.0094686
0.00956853
0.00966482
0.00975788
0.00984769
0.00993392
0.010016
0.0100932
0.0101648
0.0102301
0.0102884
0.0103393
0.0103827
0.0104186
0.0104472
0.010469
0.0104847
0.0104952
0.0105015
0.0105046
0.0105055
0.0105052
0.0105047
0.0105049
0.000110736
0.000995174
0.00203485
0.00303665
0.00396887
0.00481192
0.00555548
0.00619814
0.00674508
0.00720543
0.0075901
0.00791027
0.0081766
0.00839877
0.00858527
0.00874347
0.00887958
0.00899878
0.00910534
0.00920268
0.00929348
0.00937975
0.0094629
0.00954383
0.00962298
0.0097004
0.00977581
0.00984868
0.00991832
0.00998392
0.0100447
0.0100998
0.0101487
0.0101909
0.010226
0.0102541
0.0102753
0.0102899
0.0102986
0.0103021
0.0103012
0.010297
0.0102903
0.010282
0.0102732
0.000116572
0.00106334
0.00221158
0.0033246
0.0043395
0.00522542
0.00597507
0.00659643
0.00710497
0.00751827
0.00785321
0.00812472
0.0083455
0.00852613
0.00867529
0.00880009
0.0089063
0.00899861
0.00908075
0.0091557
0.00922576
0.00929268
0.00935769
0.00942162
0.00948487
0.00954755
0.00960947
0.0096702
0.00972914
0.00978556
0.00983867
0.00988767
0.0099318
0.00997042
0.010003
0.0100293
0.0100491
0.0100624
0.0100697
0.0100712
0.0100676
0.0100597
0.0100482
0.0100339
0.0100179
0.000125939
0.00117143
0.00251174
0.00380663
0.00492991
0.00584537
0.00656716
0.00712811
0.00756257
0.00789992
0.00816333
0.00837053
0.00853499
0.0086669
0.00877413
0.00886273
0.00893743
0.00900195
0.00905919
0.00911144
0.00916044
0.00920753
0.00925365
0.00929947
0.00934533
0.00939136
0.00943744
0.00948331
0.0095285
0.00957245
0.00961452
0.00965399
0.00969017
0.00972241
0.0097501
0.00977277
0.00979009
0.00980185
0.00980803
0.00980878
0.00980439
0.00979529
0.00978204
0.00976528
0.0097457
0.000144282
0.0013833
0.00312784
0.00471779
0.00592728
0.00678526
0.00738493
0.00780832
0.00811308
0.00833711
0.00850508
0.00863325
0.00873269
0.00881109
0.00887399
0.00892548
0.00896863
0.00900577
0.00903872
0.00906886
0.00909728
0.00912477
0.00915195
0.00917922
0.00920682
0.00923486
0.0092633
0.009292
0.00932068
0.00934902
0.0093766
0.00940293
0.00942753
0.00944989
0.00946953
0.009486
0.00949892
0.009508
0.00951305
0.00951398
0.00951082
0.00950371
0.0094929
0.00947871
0.00946156
0.000207798
0.00212912
0.00498626
0.00678113
0.00769146
0.00816633
0.00843604
0.00860289
0.00871353
0.00879082
0.00884692
0.00888883
0.00892089
0.00894593
0.0089659
0.00898219
0.00899582
0.00900758
0.00901804
0.00902766
0.0090368
0.00904571
0.0090546
0.00906361
0.00907282
0.00908229
0.009092
0.00910193
0.00911198
0.00912206
0.00913201
0.00914169
0.00915089
0.00915943
0.0091671
0.00917371
0.00917906
0.009183
0.00918539
0.00918611
0.00918511
0.00918236
0.00917789
0.00917176
0.00916407
)
;

boundaryField
{
    leftWall
    {
        type            nutkWallFunction;
        Cmu             0.09;
        kappa           0.41;
        E               9.8;
        value           nonuniform List<scalar> 
42
(
5.46035e-06
5.36595e-06
5.26486e-06
5.15834e-06
5.04762e-06
4.93397e-06
4.8187e-06
4.7031e-06
4.58849e-06
4.47616e-06
4.3674e-06
4.26346e-06
4.16559e-06
4.07502e-06
3.99291e-06
3.92037e-06
3.85841e-06
3.80796e-06
3.76984e-06
3.74474e-06
3.73327e-06
3.73591e-06
3.753e-06
3.78475e-06
3.83124e-06
3.89237e-06
3.96796e-06
4.0578e-06
4.16184e-06
4.28043e-06
4.41475e-06
4.56754e-06
4.74417e-06
4.95436e-06
5.21471e-06
5.55175e-06
6.00419e-06
6.62832e-06
7.53045e-06
8.96643e-06
1.17369e-05
2.09328e-05
)
;
    }
    rightWall
    {
        type            nutkWallFunction;
        Cmu             0.09;
        kappa           0.41;
        E               9.8;
        value           nonuniform 0();
    }
    lowerWall
    {
        type            nutkWallFunction;
        Cmu             0.09;
        kappa           0.41;
        E               9.8;
        value           nonuniform 0();
    }
    atmosphere
    {
        type            calculated;
        value           uniform 0.009;
    }
    defaultFaces
    {
        type            empty;
    }
    procBoundary2to0
    {
        type            processor;
        value           nonuniform List<scalar> 
46
(
0.0111394
0.0112726
0.0113866
0.0114839
0.0115672
0.011639
0.0117019
0.0117584
0.0118111
0.0118628
0.0119163
0.0119746
0.0120411
0.0121194
0.0122137
0.0123282
0.0124671
0.0126344
0.012833
0.0130645
0.0133288
0.013624
0.0139467
0.0142929
0.0146584
0.000103997
0.000949347
0.00201074
0.00302599
0.00396635
0.00483055
0.00562173
0.00634386
0.00700103
0.00759719
0.00813617
0.00862162
0.00905703
0.00944577
0.00979107
0.010096
0.0103638
0.0105972
0.0107993
0.0109731
0.0109731
)
;
    }
    procBoundary2to3
    {
        type            processor;
        value           nonuniform List<scalar> 
43
(
0.0150157
0.0149712
0.0149084
0.0148301
0.0147385
0.0146357
0.0145234
0.0144029
0.0142748
0.0141401
0.0140006
0.0138578
0.0137125
0.0135653
0.0134162
0.0132645
0.0131095
0.01295
0.0127852
0.012615
0.01244
0.0122627
0.0120868
0.0119183
0.0117639
0.0116313
0.0115264
0.0114509
0.0113968
0.011357
0.0113224
0.0112827
0.0112279
0.0111493
0.0110406
0.0108976
0.010719
0.0105064
0.0102645
0.0100007
0.00972399
0.00944189
0.00915495
)
;
    }
}


// ************************************************************************* //
