/*--------------------------------*- C++ -*----------------------------------*\
| =========                 |                                                 |
| \\      /  F ield         | OpenFOAM: The Open Source CFD Toolbox           |
|  \\    /   O peration     | Version:  5.0                                   |
|   \\  /    A nd           | Web:      www.OpenFOAM.org                      |
|    \\/     M anipulation  |                                                 |
\*---------------------------------------------------------------------------*/
FoamFile
{
    version     2.0;
    format      ascii;
    class       volScalarField;
    location    "0.65";
    object      p;
}
// * * * * * * * * * * * * * * * * * * * * * * * * * * * * * * * * * * * * * //

dimensions      [1 -1 -2 0 0 0 0];

internalField   nonuniform List<scalar> 
1915
(
-2.13486
-2.1377
-2.14065
-2.14368
-2.14673
-2.14976
-2.15268
-2.15539
-2.1578
-2.15975
-2.16112
-2.16174
-2.1615
-2.16028
-2.15803
-2.15478
-2.15069
-2.14601
-2.14113
-2.13651
-2.13273
-2.13038
-2.13019
-2.13218
-2.137
-2.16839
-2.16968
-2.17133
-2.17302
-2.17465
-2.17627
-2.17789
-2.17953
-2.18118
-2.18285
-2.18455
-2.18629
-2.18807
-2.18992
-2.19184
-2.19384
-2.19595
-2.19817
-2.20053
-2.20302
-2.20566
-2.20842
-2.21129
-2.21422
-2.21718
-2.22011
-2.22294
-2.22556
-2.22788
-2.22976
-2.23108
-2.23171
-2.23152
-2.23043
-2.22838
-2.22543
-2.22171
-2.21746
-2.21306
-2.20898
-2.20576
-2.20402
-2.20455
-2.20787
-2.2138
-2.23985
-2.24117
-2.24286
-2.24458
-2.24625
-2.2479
-2.24955
-2.2512
-2.25286
-2.25454
-2.25623
-2.25796
-2.25972
-2.26153
-2.26341
-2.26537
-2.26742
-2.26958
-2.27187
-2.27429
-2.27685
-2.27952
-2.28228
-2.28511
-2.28795
-2.29076
-2.29346
-2.29597
-2.29817
-2.29995
-2.3012
-2.30181
-2.30167
-2.30071
-2.29891
-2.29632
-2.29307
-2.2894
-2.28565
-2.28226
-2.27975
-2.27869
-2.2798
-2.2838
-2.2912
-2.31193
-2.31325
-2.31496
-2.3167
-2.31839
-2.32005
-2.32171
-2.32337
-2.32503
-2.3267
-2.32838
-2.33009
-2.33183
-2.3336
-2.33544
-2.33735
-2.33934
-2.34144
-2.34365
-2.34599
-2.34845
-2.35102
-2.35367
-2.35639
-2.35911
-2.36179
-2.36436
-2.36674
-2.36882
-2.3705
-2.37169
-2.37229
-2.37221
-2.3714
-2.36985
-2.36763
-2.36486
-2.36176
-2.35866
-2.35596
-2.35417
-2.35383
-2.35558
-2.36023
-2.36865
-2.38461
-2.38593
-2.38764
-2.38939
-2.39108
-2.39275
-2.3944
-2.39605
-2.3977
-2.39936
-2.40102
-2.40271
-2.40441
-2.40615
-2.40794
-2.40979
-2.41172
-2.41375
-2.41588
-2.41813
-2.42049
-2.42295
-2.42549
-2.42809
-2.43068
-2.43324
-2.43567
-2.43792
-2.43988
-2.44148
-2.44261
-2.4432
-2.44319
-2.44254
-2.44125
-2.43939
-2.43708
-2.43452
-2.43201
-2.42995
-2.4288
-2.42913
-2.43157
-2.4369
-2.4462
-2.45792
-2.45922
-2.46091
-2.46265
-2.46434
-2.46599
-2.46764
-2.46927
-2.4709
-2.47254
-2.47418
-2.47583
-2.4775
-2.4792
-2.48094
-2.48273
-2.48459
-2.48654
-2.48858
-2.49073
-2.49299
-2.49534
-2.49776
-2.50023
-2.50271
-2.50513
-2.50743
-2.50955
-2.5114
-2.51289
-2.51397
-2.51456
-2.51462
-2.51412
-2.51308
-2.51156
-2.50968
-2.50763
-2.50567
-2.50416
-2.50357
-2.50447
-2.50749
-2.51344
-2.52344
-2.53186
-2.53314
-2.5348
-2.53651
-2.53818
-2.53981
-2.54143
-2.54304
-2.54465
-2.54626
-2.54787
-2.54948
-2.55111
-2.55276
-2.55445
-2.55618
-2.55796
-2.55983
-2.56178
-2.56383
-2.56597
-2.56821
-2.57051
-2.57286
-2.5752
-2.57749
-2.57966
-2.58165
-2.58338
-2.58479
-2.5858
-2.58638
-2.5865
-2.58614
-2.58533
-2.58414
-2.58265
-2.58105
-2.57958
-2.57856
-2.57844
-2.57979
-2.58325
-2.58966
-2.60015
-2.60644
-2.60768
-2.6093
-2.61098
-2.61261
-2.61421
-2.6158
-2.61738
-2.61896
-2.62053
-2.6221
-2.62368
-2.62527
-2.62687
-2.62849
-2.63015
-2.63187
-2.63364
-2.6355
-2.63744
-2.63947
-2.64159
-2.64377
-2.64599
-2.6482
-2.65036
-2.6524
-2.65426
-2.65587
-2.65718
-2.65814
-2.6587
-2.65886
-2.65863
-2.65802
-2.65711
-2.65598
-2.65478
-2.65372
-2.65311
-2.65337
-2.65505
-2.65881
-2.66548
-2.67622
-2.68166
-2.68286
-2.68443
-2.68606
-2.68765
-2.68922
-2.69077
-2.69231
-2.69385
-2.69538
-2.69691
-2.69844
-2.69998
-2.70153
-2.70309
-2.70469
-2.70632
-2.70801
-2.70977
-2.71161
-2.71352
-2.71552
-2.71757
-2.71966
-2.72174
-2.72376
-2.72567
-2.72741
-2.7289
-2.73012
-2.731
-2.73154
-2.73173
-2.73159
-2.73116
-2.73048
-2.72966
-2.72879
-2.72809
-2.72781
-2.72835
-2.73024
-2.73413
-2.74087
-2.7516
-2.75754
-2.75869
-2.7602
-2.76178
-2.76332
-2.76484
-2.76635
-2.76785
-2.76934
-2.77083
-2.77231
-2.77379
-2.77528
-2.77677
-2.77828
-2.7798
-2.78136
-2.78296
-2.78462
-2.78635
-2.78815
-2.79002
-2.79194
-2.7939
-2.79584
-2.79773
-2.79951
-2.80112
-2.8025
-2.80362
-2.80443
-2.80494
-2.80514
-2.80507
-2.80477
-2.80429
-2.80371
-2.80313
-2.8027
-2.80267
-2.8034
-2.80538
-2.80926
-2.81586
-2.82632
-2.83408
-2.83518
-2.83663
-2.83814
-2.83963
-2.8411
-2.84255
-2.844
-2.84545
-2.84689
-2.84832
-2.84975
-2.85119
-2.85262
-2.85406
-2.85552
-2.857
-2.85852
-2.86008
-2.86171
-2.86339
-2.86513
-2.86693
-2.86874
-2.87055
-2.8723
-2.87395
-2.87543
-2.8767
-2.87771
-2.87845
-2.87891
-2.87911
-2.87909
-2.87889
-2.87856
-2.87818
-2.87781
-2.8776
-2.87775
-2.87858
-2.88055
-2.88427
-2.89055
-2.90048
-2.91128
-2.91234
-2.91372
-2.91517
-2.91659
-2.918
-2.9194
-2.9208
-2.92219
-2.92358
-2.92496
-2.92634
-2.92772
-2.92909
-2.93047
-2.93186
-2.93327
-2.93471
-2.93618
-2.9377
-2.93927
-2.94089
-2.94255
-2.94423
-2.9459
-2.94751
-2.94902
-2.95038
-2.95153
-2.95244
-2.95309
-2.95349
-2.95368
-2.95367
-2.95353
-2.95332
-2.95308
-2.95288
-2.95282
-2.95308
-2.95393
-2.9558
-2.95926
-2.96505
-2.97423
-2.98917
-2.99017
-2.99149
-2.99287
-2.99423
-2.99557
-2.99692
-2.99826
-2.99959
-3.00093
-3.00225
-3.00358
-3.0049
-3.00621
-3.00753
-3.00885
-3.01019
-3.01154
-3.01292
-3.01434
-3.0158
-3.01731
-3.01884
-3.02039
-3.02192
-3.0234
-3.02477
-3.026
-3.02702
-3.02782
-3.02839
-3.02872
-3.02886
-3.02885
-3.02874
-3.02859
-3.02845
-3.02836
-3.02841
-3.02872
-3.02954
-3.03124
-3.03432
-3.03951
-3.04774
-3.06774
-3.06869
-3.06994
-3.07125
-3.07254
-3.07382
-3.07511
-3.07639
-3.07767
-3.07894
-3.08021
-3.08148
-3.08274
-3.08399
-3.08525
-3.0865
-3.08777
-3.08904
-3.09034
-3.09167
-3.09302
-3.09441
-3.09583
-3.09725
-3.09865
-3.09999
-3.10123
-3.10233
-3.10323
-3.10392
-3.10438
-3.10463
-3.1047
-3.10466
-3.10454
-3.10442
-3.10432
-3.1043
-3.10441
-3.10473
-3.10547
-3.10694
-3.1096
-3.11409
-3.12127
-3.14701
-3.14791
-3.14908
-3.15032
-3.15155
-3.15277
-3.15399
-3.15521
-3.15643
-3.15764
-3.15885
-3.16006
-3.16126
-3.16245
-3.16364
-3.16483
-3.16603
-3.16723
-3.16844
-3.16968
-3.17094
-3.17223
-3.17353
-3.17483
-3.17611
-3.17732
-3.17843
-3.1794
-3.18018
-3.18075
-3.18111
-3.18126
-3.18126
-3.18115
-3.18099
-3.18085
-3.18076
-3.18076
-3.18088
-3.18117
-3.1818
-3.18302
-3.18523
-3.18898
-3.19503
-3.22697
-3.22782
-3.22893
-3.2301
-3.23126
-3.23242
-3.23357
-3.23473
-3.23589
-3.23704
-3.23819
-3.23934
-3.24048
-3.24161
-3.24273
-3.24386
-3.24498
-3.24611
-3.24725
-3.2484
-3.24957
-3.25076
-3.25196
-3.25315
-3.25431
-3.25541
-3.2564
-3.25725
-3.25791
-3.25837
-3.25862
-3.25867
-3.25857
-3.25837
-3.25815
-3.25795
-3.25783
-3.2578
-3.25789
-3.25813
-3.25862
-3.25958
-3.26133
-3.26435
-3.26928
-3.30764
-3.30845
-3.3095
-3.3106
-3.31169
-3.31278
-3.31387
-3.31497
-3.31606
-3.31716
-3.31824
-3.31933
-3.3204
-3.32147
-3.32253
-3.32359
-3.32464
-3.3257
-3.32676
-3.32783
-3.32892
-3.33002
-3.33112
-3.33221
-3.33327
-3.33426
-3.33515
-3.33589
-3.33646
-3.33681
-3.33696
-3.3369
-3.3367
-3.3364
-3.33608
-3.33579
-3.33559
-3.3355
-3.33552
-3.33568
-3.33603
-3.33674
-3.33806
-3.34038
-3.34422
-3.38903
-3.3898
-3.39078
-3.39181
-3.39284
-3.39387
-3.3949
-3.39593
-3.39697
-3.398
-3.39902
-3.40004
-3.40105
-3.40206
-3.40305
-3.40404
-3.40503
-3.40601
-3.407
-3.408
-3.409
-3.41001
-3.41103
-3.41203
-3.41299
-3.41389
-3.41469
-3.41535
-3.41582
-3.41609
-3.41614
-3.416
-3.41569
-3.41528
-3.41485
-3.41445
-3.41415
-3.41395
-3.41388
-3.41393
-3.41414
-3.41461
-3.41554
-3.41723
-3.42007
-3.47115
-3.47187
-3.47279
-3.47377
-3.47473
-3.4757
-3.47666
-3.47763
-3.4786
-3.47957
-3.48053
-3.48149
-3.48244
-3.48338
-3.48431
-3.48523
-3.48615
-3.48706
-3.48798
-3.4889
-3.48982
-3.49075
-3.49169
-3.4926
-3.49349
-3.49431
-3.49503
-3.49561
-3.49602
-3.49622
-3.4962
-3.49598
-3.49558
-3.49507
-3.49452
-3.494
-3.49356
-3.49324
-3.49305
-3.49298
-3.49305
-3.4933
-3.49389
-3.49504
-3.497
-3.55399
-3.55468
-3.55555
-3.55646
-3.55736
-3.55826
-3.55917
-3.56008
-3.56099
-3.56189
-3.56279
-3.56369
-3.56457
-3.56545
-3.56631
-3.56717
-3.56802
-3.56886
-3.5697
-3.57055
-3.5714
-3.57225
-3.57311
-3.57395
-3.57476
-3.57551
-3.57617
-3.57669
-3.57705
-3.57721
-3.57714
-3.57686
-3.57639
-3.57579
-3.57513
-3.57448
-3.57391
-3.57345
-3.57312
-3.57292
-3.57284
-3.57291
-3.57322
-3.57392
-3.57514
-3.63757
-3.63822
-3.63904
-3.63989
-3.64074
-3.64158
-3.64243
-3.64328
-3.64413
-3.64497
-3.64581
-3.64664
-3.64746
-3.64828
-3.64908
-3.64987
-3.65065
-3.65142
-3.6522
-3.65297
-3.65374
-3.65452
-3.6553
-3.65607
-3.65681
-3.6575
-3.65811
-3.65859
-3.65892
-3.65905
-3.65896
-3.65865
-3.65814
-3.65747
-3.65671
-3.65595
-3.65524
-3.65463
-3.65416
-3.65383
-3.65361
-3.65352
-3.65361
-3.65395
-3.65459
-3.7219
-3.72252
-3.72328
-3.72408
-3.72487
-3.72566
-3.72645
-3.72724
-3.72803
-3.72882
-3.72959
-3.73036
-3.73112
-3.73187
-3.73261
-3.73334
-3.73405
-3.73476
-3.73546
-3.73616
-3.73687
-3.73757
-3.73827
-3.73897
-3.73965
-3.74029
-3.74085
-3.7413
-3.74161
-3.74173
-3.74164
-3.74133
-3.74081
-3.7401
-3.73929
-3.73842
-3.73759
-3.73685
-3.73623
-3.73575
-3.73541
-3.73519
-3.7351
-3.73518
-3.73538
-3.80698
-3.80756
-3.80829
-3.80903
-3.80977
-3.81051
-3.81124
-3.81197
-3.81271
-3.81343
-3.81415
-3.81486
-3.81556
-3.81625
-3.81693
-3.81759
-3.81825
-3.81889
-3.81952
-3.82015
-3.82078
-3.82142
-3.82205
-3.82268
-3.8233
-3.82388
-3.8244
-3.82483
-3.82513
-3.82526
-3.82519
-3.8249
-3.82439
-3.82369
-3.82284
-3.82192
-3.82098
-3.82012
-3.81937
-3.81875
-3.81829
-3.81795
-3.81773
-3.81763
-3.81754
-3.89281
-3.89337
-3.89405
-3.89475
-3.89544
-3.89612
-3.8968
-3.89748
-3.89816
-3.89883
-3.89949
-3.90015
-3.90079
-3.90142
-3.90204
-3.90265
-3.90324
-3.90382
-3.90439
-3.90495
-3.90551
-3.90608
-3.90664
-3.9072
-3.90776
-3.90829
-3.90877
-3.90918
-3.90948
-3.90962
-3.90959
-3.90934
-3.90888
-3.90821
-3.90737
-3.90642
-3.90543
-3.90446
-3.90359
-3.90286
-3.90227
-3.90183
-3.90153
-3.90131
-3.90106
-3.97941
-3.97995
-3.98059
-3.98124
-3.98188
-3.98251
-3.98314
-3.98377
-3.98439
-3.98501
-3.98562
-3.98622
-3.98681
-3.98739
-3.98795
-3.9885
-3.98904
-3.98956
-3.99007
-3.99057
-3.99107
-3.99156
-3.99206
-3.99256
-3.99305
-3.99353
-3.99397
-3.99436
-3.99465
-3.99482
-3.99483
-3.99465
-3.99425
-3.99365
-3.99286
-3.99193
-3.99091
-3.98989
-3.98893
-3.98809
-3.9874
-3.98687
-3.98649
-3.98622
-3.98591
-4.06679
-4.0673
-4.0679
-4.06851
-4.06911
-4.06969
-4.07027
-4.07085
-4.07142
-4.07199
-4.07255
-4.0731
-4.07364
-4.07417
-4.07468
-4.07517
-4.07565
-4.07612
-4.07657
-4.07702
-4.07745
-4.07789
-4.07832
-4.07875
-4.07919
-4.07961
-4.08001
-4.08037
-4.08066
-4.08086
-4.08091
-4.0808
-4.08049
-4.07998
-4.07927
-4.0784
-4.07741
-4.07637
-4.07536
-4.07444
-4.07367
-4.07306
-4.07262
-4.07232
-4.07205
-4.15495
-4.15544
-4.156
-4.15657
-4.15712
-4.15766
-4.1582
-4.15873
-4.15925
-4.15977
-4.16029
-4.16079
-4.16128
-4.16176
-4.16222
-4.16267
-4.1631
-4.16352
-4.16392
-4.16431
-4.16469
-4.16507
-4.16544
-4.16581
-4.16618
-4.16655
-4.16691
-4.16724
-4.16752
-4.16773
-4.16783
-4.16778
-4.16757
-4.16716
-4.16657
-4.16579
-4.16488
-4.16389
-4.16287
-4.16192
-4.16108
-4.1604
-4.15991
-4.1596
-4.15943
-4.24391
-4.24436
-4.24489
-4.24542
-4.24593
-4.24643
-4.24692
-4.24741
-4.24789
-4.24837
-4.24883
-4.24929
-4.24974
-4.25017
-4.25059
-4.251
-4.25139
-4.25176
-4.25211
-4.25245
-4.25278
-4.25311
-4.25342
-4.25374
-4.25406
-4.25437
-4.25468
-4.25498
-4.25524
-4.25545
-4.25559
-4.2556
-4.25548
-4.25519
-4.25472
-4.25408
-4.25328
-4.25238
-4.25142
-4.25047
-4.24961
-4.2489
-4.24837
-4.24805
-4.24798
-4.33366
-4.33409
-4.33458
-4.33507
-4.33554
-4.336
-4.33645
-4.3369
-4.33734
-4.33778
-4.3382
-4.33862
-4.33903
-4.33942
-4.3398
-4.34017
-4.34052
-4.34085
-4.34116
-4.34146
-4.34175
-4.34202
-4.34229
-4.34255
-4.34282
-4.34308
-4.34334
-4.3436
-4.34384
-4.34404
-4.34419
-4.34426
-4.34422
-4.34404
-4.34371
-4.34321
-4.34256
-4.34179
-4.34093
-4.34006
-4.33923
-4.33851
-4.33796
-4.33765
-4.33766
-4.42421
-4.42461
-4.42507
-4.42552
-4.42596
-4.42638
-4.4268
-4.42721
-4.42761
-4.42801
-4.4284
-4.42878
-4.42916
-4.42951
-4.42986
-4.43019
-4.4305
-4.4308
-4.43108
-4.43134
-4.43159
-4.43182
-4.43204
-4.43226
-4.43248
-4.43269
-4.4329
-4.43312
-4.43332
-4.43351
-4.43367
-4.43377
-4.4338
-4.43371
-4.4335
-4.43316
-4.43267
-4.43205
-4.43134
-4.43059
-4.42985
-4.42918
-4.42865
-4.42835
-4.42842
-4.51558
-4.51595
-4.51637
-4.51679
-4.51719
-4.51758
-4.51796
-4.51834
-4.51872
-4.51908
-4.51944
-4.51979
-4.52013
-4.52045
-4.52077
-4.52107
-4.52135
-4.52162
-4.52186
-4.5221
-4.52231
-4.52251
-4.5227
-4.52287
-4.52304
-4.52321
-4.52338
-4.52355
-4.52372
-4.52389
-4.52403
-4.52415
-4.52422
-4.52421
-4.52411
-4.52389
-4.52357
-4.52312
-4.52259
-4.52199
-4.52138
-4.52082
-4.52036
-4.52009
-4.52018
-4.60776
-4.6081
-4.60848
-4.60887
-4.60924
-4.60961
-4.60996
-4.61032
-4.61066
-4.611
-4.61133
-4.61165
-4.61196
-4.61225
-4.61254
-4.61281
-4.61307
-4.61331
-4.61353
-4.61374
-4.61392
-4.61409
-4.61425
-4.61439
-4.61453
-4.61466
-4.61478
-4.61491
-4.61504
-4.61518
-4.61531
-4.61542
-4.6155
-4.61555
-4.61553
-4.61543
-4.61524
-4.61496
-4.61461
-4.61419
-4.61375
-4.61332
-4.61298
-4.61278
-4.61288
-4.70077
-4.70107
-4.70142
-4.70178
-4.70213
-4.70247
-4.70281
-4.70314
-4.70346
-4.70377
-4.70407
-4.70437
-4.70465
-4.70492
-4.70518
-4.70543
-4.70567
-4.70588
-4.70608
-4.70627
-4.70643
-4.70658
-4.70671
-4.70682
-4.70693
-4.70703
-4.70712
-4.70721
-4.7073
-4.7074
-4.7075
-4.7076
-4.70769
-4.70775
-4.70779
-4.70777
-4.7077
-4.70756
-4.70737
-4.70713
-4.70686
-4.7066
-4.70639
-4.7063
-4.70641
-4.7946
-4.79486
-4.79519
-4.79553
-4.79587
-4.79619
-4.79651
-4.79682
-4.79712
-4.79741
-4.79769
-4.79796
-4.79822
-4.79847
-4.79871
-4.79894
-4.79915
-4.79935
-4.79953
-4.79969
-4.79984
-4.79997
-4.80008
-4.80017
-4.80025
-4.80032
-4.80039
-4.80045
-4.80051
-4.80057
-4.80064
-4.80072
-4.80079
-4.80086
-4.80092
-4.80096
-4.80097
-4.80094
-4.80089
-4.8008
-4.8007
-4.8006
-4.80053
-4.80054
-4.80068
-4.88926
-4.8895
-4.88981
-4.89015
-4.89048
-4.8908
-4.8911
-4.89139
-4.89167
-4.89194
-4.89219
-4.89244
-4.89268
-4.89291
-4.89313
-4.89333
-4.89353
-4.89371
-4.89387
-4.89402
-4.89415
-4.89426
-4.89436
-4.89444
-4.8945
-4.89455
-4.89459
-4.89463
-4.89466
-4.8947
-4.89474
-4.89479
-4.89484
-4.8949
-4.89497
-4.89503
-4.89509
-4.89514
-4.89518
-4.89522
-4.89525
-4.89528
-4.89534
-4.89545
-4.89563
-4.98477
-4.98501
-4.98532
-4.98567
-4.986
-4.9863
-4.98659
-4.98687
-4.98712
-4.98737
-4.9876
-4.98783
-4.98804
-4.98825
-4.98845
-4.98864
-4.98881
-4.98898
-4.98913
-4.98926
-4.98938
-4.98947
-4.98956
-4.98962
-4.98967
-4.98971
-4.98974
-4.98975
-4.98977
-4.98978
-4.9898
-4.98982
-4.98985
-4.98989
-4.98995
-4.99002
-4.99011
-4.9902
-4.99031
-4.99042
-4.99055
-4.99068
-4.99084
-4.99103
-4.99125
-5.08115
-5.08142
-5.08177
-5.08213
-5.08246
-5.08275
-5.08302
-5.08327
-5.0835
-5.08372
-5.08393
-5.08413
-5.08432
-5.08451
-5.08468
-5.08485
-5.08501
-5.08516
-5.08529
-5.08541
-5.08551
-5.0856
-5.08567
-5.08573
-5.08577
-5.0858
-5.08581
-5.08582
-5.08582
-5.08581
-5.08581
-5.08581
-5.08583
-5.08585
-5.0859
-5.08597
-5.08606
-5.08617
-5.08631
-5.08647
-5.08666
-5.08686
-5.08707
-5.08731
-5.08757
-5.17843
-5.17881
-5.17923
-5.1796
-5.17992
-5.18018
-5.18042
-5.18063
-5.18082
-5.18101
-5.18118
-5.18136
-5.18152
-5.18169
-5.18184
-5.18199
-5.18213
-5.18226
-5.18238
-5.18248
-5.18257
-5.18265
-5.18271
-5.18276
-5.18279
-5.18281
-5.18282
-5.18282
-5.18281
-5.1828
-5.18278
-5.18278
-5.18277
-5.18279
-5.18282
-5.18288
-5.18297
-5.18309
-5.18324
-5.18342
-5.18363
-5.18386
-5.1841
-5.18437
-5.18465
-5.27653
-5.27719
-5.27774
-5.27814
-5.27842
-5.27863
-5.2788
-5.27895
-5.2791
-5.27924
-5.27939
-5.27953
-5.27967
-5.27981
-5.27994
-5.28007
-5.28019
-5.2803
-5.2804
-5.28048
-5.28056
-5.28062
-5.28067
-5.28071
-5.28074
-5.28075
-5.28076
-5.28075
-5.28074
-5.28073
-5.28071
-5.28069
-5.28069
-5.28069
-5.28072
-5.28077
-5.28085
-5.28097
-5.28112
-5.2813
-5.28151
-5.28175
-5.28199
-5.28226
-5.28255
-5.37535
-5.37651
-5.37731
-5.37776
-5.37798
-5.37809
-5.37817
-5.37826
-5.37834
-5.37844
-5.37855
-5.37866
-5.37877
-5.37888
-5.37899
-5.3791
-5.37919
-5.37928
-5.37936
-5.37943
-5.37949
-5.37953
-5.37957
-5.3796
-5.37962
-5.37963
-5.37963
-5.37962
-5.37961
-5.3796
-5.37958
-5.37956
-5.37956
-5.37956
-5.37959
-5.37963
-5.37971
-5.37982
-5.37996
-5.38013
-5.38033
-5.38055
-5.38079
-5.38104
-5.38132
-5.4757
-5.47737
-5.47841
-5.47863
-5.47856
-5.47849
-5.47845
-5.47845
-5.47849
-5.47855
-5.47862
-5.47871
-5.47879
-5.47888
-5.47897
-5.47904
-5.47912
-5.47918
-5.47924
-5.47928
-5.47932
-5.47935
-5.47937
-5.47939
-5.4794
-5.4794
-5.4794
-5.47939
-5.47938
-5.47937
-5.47935
-5.47934
-5.47934
-5.47935
-5.47937
-5.47942
-5.47949
-5.47959
-5.47972
-5.47987
-5.48005
-5.48026
-5.48047
-5.48071
-5.48097
-5.57996
-5.58238
-5.58372
-5.58172
-5.58023
-5.57963
-5.57942
-5.57936
-5.57937
-5.57941
-5.57947
-5.57954
-5.57961
-5.57968
-5.57974
-5.57979
-5.57984
-5.57987
-5.5799
-5.57993
-5.57994
-5.57996
-5.57996
-5.57996
-5.57996
-5.57996
-5.57995
-5.57994
-5.57993
-5.57992
-5.57991
-5.5799
-5.57991
-5.57992
-5.57995
-5.57999
-5.58006
-5.58015
-5.58026
-5.5804
-5.58056
-5.58073
-5.58093
-5.58114
-5.58139
-5.67589
-5.69328
-5.69528
-5.68781
-5.6843
-5.68308
-5.68259
-5.68237
-5.6823
-5.68229
-5.68231
-5.68234
-5.68237
-5.6824
-5.68242
-5.68243
-5.68243
-5.68243
-5.68242
-5.68241
-5.6824
-5.68238
-5.68236
-5.68233
-5.68231
-5.68229
-5.68227
-5.68224
-5.68223
-5.68221
-5.6822
-5.68219
-5.68219
-5.6822
-5.68222
-5.68226
-5.6823
-5.68237
-5.68245
-5.68255
-5.68266
-5.6828
-5.68295
-5.68312
-5.68331
)
;

boundaryField
{
    leftWall
    {
        type            calculated;
        value           nonuniform List<scalar> 
42
(
-2.16839
-2.23985
-2.31193
-2.38461
-2.45792
-2.53186
-2.60644
-2.68166
-2.75754
-2.83408
-2.91128
-2.98917
-3.06774
-3.14701
-3.22697
-3.30764
-3.38903
-3.47115
-3.55399
-3.63757
-3.7219
-3.80698
-3.89281
-3.97941
-4.06679
-4.15495
-4.24391
-4.33366
-4.42421
-4.51558
-4.60776
-4.70077
-4.7946
-4.88926
-4.98477
-5.08115
-5.17843
-5.27653
-5.37535
-5.4757
-5.57996
-5.67589
)
;
    }
    rightWall
    {
        type            calculated;
        value           nonuniform 0();
    }
    lowerWall
    {
        type            calculated;
        value           nonuniform 0();
    }
    atmosphere
    {
        type            calculated;
        value           nonuniform List<scalar> 
45
(
-5.72905
-5.73303
-5.73433
-5.73462
-5.73474
-5.73481
-5.73485
-5.73487
-5.73489
-5.73491
-5.73492
-5.73492
-5.73491
-5.7349
-5.73488
-5.73485
-5.73482
-5.73479
-5.73475
-5.73471
-5.73467
-5.73462
-5.73458
-5.73453
-5.73449
-5.73444
-5.73441
-5.73437
-5.73434
-5.73431
-5.73429
-5.73427
-5.73426
-5.73426
-5.73427
-5.73428
-5.7343
-5.73434
-5.73439
-5.73445
-5.73452
-5.73461
-5.73472
-5.73484
-5.73498
)
;
    }
    defaultFaces
    {
        type            empty;
    }
    procBoundary2to0
    {
        type            processor;
        value           nonuniform List<scalar> 
46
(
-2.06445
-2.06735
-2.07035
-2.07343
-2.07653
-2.0796
-2.08256
-2.0853
-2.08772
-2.08967
-2.09101
-2.09159
-2.09126
-2.08993
-2.08755
-2.08418
-2.07996
-2.07515
-2.07014
-2.06536
-2.06134
-2.05854
-2.05723
-2.05844
-2.06349
-2.09752
-2.09878
-2.10038
-2.102
-2.10359
-2.10516
-2.10674
-2.10834
-2.10996
-2.11162
-2.11332
-2.11506
-2.11687
-2.11874
-2.1207
-2.12275
-2.12491
-2.12719
-2.12961
-2.13216
-2.13216
)
;
    }
    procBoundary2to3
    {
        type            processor;
        value           nonuniform List<scalar> 
43
(
-2.14717
-2.22385
-2.30264
-2.38193
-2.46066
-2.53876
-2.61601
-2.69231
-2.76758
-2.84185
-2.91522
-2.98787
-3.06005
-3.13205
-3.20417
-3.27675
-3.35009
-3.42446
-3.50006
-3.57707
-3.6556
-3.7357
-3.81739
-3.90067
-3.98549
-4.07177
-4.1594
-4.24824
-4.33814
-4.42901
-4.52077
-4.61339
-4.70681
-4.801
-4.89591
-4.99153
-5.08787
-5.18497
-5.28288
-5.38165
-5.48128
-5.58167
-5.68353
)
;
    }
}


// ************************************************************************* //
