/*--------------------------------*- C++ -*----------------------------------*\
| =========                 |                                                 |
| \\      /  F ield         | OpenFOAM: The Open Source CFD Toolbox           |
|  \\    /   O peration     | Version:  5.0                                   |
|   \\  /    A nd           | Web:      www.OpenFOAM.org                      |
|    \\/     M anipulation  |                                                 |
\*---------------------------------------------------------------------------*/
FoamFile
{
    version     2.0;
    format      ascii;
    class       volScalarField;
    location    "0.65";
    object      p_rgh;
}
// * * * * * * * * * * * * * * * * * * * * * * * * * * * * * * * * * * * * * //

dimensions      [1 -1 -2 0 0 0 0];

internalField   nonuniform List<scalar> 
1915
(
0.209418
0.206579
0.20363
0.200606
0.197551
0.194525
0.191606
0.188889
0.186486
0.184532
0.183167
0.182538
0.182782
0.184004
0.186255
0.189499
0.193591
0.198269
0.203155
0.207771
0.211555
0.213904
0.214095
0.212107
0.20728
0.241223
0.239929
0.238276
0.236592
0.234957
0.233338
0.231715
0.23008
0.228429
0.226757
0.225057
0.223321
0.221537
0.219692
0.217773
0.215766
0.213658
0.211434
0.20908
0.206586
0.203951
0.201188
0.198322
0.195387
0.192425
0.189495
0.186671
0.184047
0.181731
0.179846
0.178524
0.177897
0.178086
0.179183
0.181226
0.184178
0.187901
0.192145
0.196544
0.200629
0.203853
0.205586
0.205056
0.201733
0.195812
0.235686
0.23437
0.232682
0.230959
0.229288
0.22764
0.225993
0.224342
0.222681
0.221005
0.219309
0.217584
0.215822
0.214009
0.212131
0.210173
0.20812
0.205955
0.203666
0.201245
0.198693
0.196023
0.193259
0.190433
0.187586
0.184776
0.182076
0.179574
0.177374
0.175589
0.174335
0.173728
0.173869
0.174828
0.176627
0.179219
0.182469
0.186141
0.189892
0.193283
0.195794
0.196854
0.195742
0.191744
0.18434
0.230158
0.228833
0.227128
0.225383
0.223693
0.222029
0.220373
0.218718
0.217057
0.215387
0.213702
0.211996
0.210258
0.208479
0.206644
0.204738
0.202743
0.200645
0.19843
0.196092
0.193633
0.191065
0.18841
0.185698
0.182974
0.180292
0.177722
0.175349
0.173267
0.17158
0.17039
0.169795
0.169877
0.170686
0.17223
0.174452
0.177222
0.180319
0.183424
0.186122
0.187919
0.188258
0.186501
0.181859
0.173436
0.224634
0.223314
0.221608
0.219859
0.218164
0.216498
0.214844
0.213194
0.211544
0.209888
0.208221
0.206539
0.204832
0.203091
0.201303
0.199452
0.197522
0.195496
0.193363
0.191116
0.188756
0.186294
0.183752
0.18116
0.178561
0.176009
0.173571
0.171326
0.169362
0.167768
0.166636
0.166045
0.166058
0.166711
0.167997
0.169858
0.172169
0.174724
0.177231
0.179298
0.180444
0.180115
0.177677
0.172347
0.163044
0.21911
0.217807
0.216117
0.214379
0.212693
0.211037
0.209395
0.207761
0.206128
0.204493
0.202852
0.201199
0.199529
0.197831
0.196093
0.194302
0.19244
0.190494
0.188448
0.186298
0.184043
0.181692
0.179267
0.176797
0.174325
0.171905
0.1696
0.167484
0.165636
0.164136
0.163061
0.162471
0.162416
0.162915
0.163953
0.165469
0.167347
0.169402
0.171365
0.172872
0.173457
0.17256
0.169542
0.163596
0.153593
0.213585
0.21231
0.210649
0.208934
0.20727
0.205635
0.204015
0.202404
0.200797
0.19919
0.19758
0.195963
0.194333
0.192682
0.190999
0.189271
0.187482
0.185619
0.183667
0.181618
0.179473
0.177238
0.174933
0.172587
0.170244
0.167955
0.165783
0.163796
0.162065
0.16066
0.159643
0.159061
0.158946
0.159304
0.160112
0.161309
0.162791
0.164392
0.165871
0.16689
0.167005
0.165657
0.162193
0.15579
0.145291
0.208058
0.206817
0.205197
0.203519
0.201887
0.200283
0.198693
0.197113
0.195538
0.193966
0.192393
0.190816
0.189231
0.18763
0.186005
0.184343
0.18263
0.180852
0.178997
0.177054
0.175021
0.172906
0.170725
0.168508
0.166295
0.164138
0.162097
0.160236
0.158622
0.157313
0.156359
0.155794
0.155632
0.155869
0.156474
0.15739
0.158519
0.15972
0.160779
0.161389
0.161128
0.159448
0.15569
0.14902
0.138274
0.202526
0.201326
0.199756
0.198125
0.196535
0.19497
0.193418
0.191876
0.190339
0.188807
0.187276
0.185744
0.184207
0.182659
0.181094
0.179499
0.177864
0.176174
0.174416
0.17258
0.170664
0.168671
0.166618
0.164531
0.16245
0.160426
0.158516
0.156782
0.155283
0.154071
0.153185
0.152644
0.152452
0.152593
0.153029
0.153703
0.154532
0.155392
0.1561
0.15638
0.15584
0.15395
0.150055
0.143321
0.13259
0.196988
0.195834
0.194321
0.192745
0.191204
0.189686
0.188178
0.18668
0.185188
0.1837
0.182215
0.180731
0.179245
0.177754
0.176249
0.174723
0.173165
0.171562
0.169901
0.168173
0.166374
0.164506
0.162583
0.160629
0.158684
0.156794
0.155016
0.153407
0.152023
0.150909
0.150095
0.149589
0.149384
0.149453
0.149754
0.150233
0.150814
0.151395
0.151821
0.151851
0.151125
0.149141
0.145261
0.138661
0.128207
0.191441
0.190336
0.188886
0.187372
0.185887
0.18442
0.182963
0.181514
0.18007
0.178631
0.177196
0.175763
0.174331
0.172897
0.171454
0.169997
0.168515
0.166997
0.165432
0.16381
0.162127
0.160383
0.158592
0.156774
0.154966
0.153213
0.151568
0.150086
0.148818
0.147804
0.147066
0.146606
0.146404
0.146427
0.146629
0.146955
0.147341
0.147703
0.147914
0.147767
0.146941
0.144969
0.141242
0.134963
0.125036
0.185883
0.184829
0.183447
0.181998
0.180574
0.179164
0.177762
0.176365
0.174974
0.173587
0.172205
0.170826
0.16945
0.168074
0.166694
0.165304
0.163897
0.162462
0.160989
0.159471
0.157901
0.15628
0.154618
0.152937
0.151267
0.149652
0.148143
0.14679
0.145641
0.144731
0.144076
0.143672
0.143492
0.143495
0.143633
0.14385
0.144091
0.144289
0.144344
0.144085
0.143232
0.141364
0.137911
0.132116
0.122942
0.180313
0.179311
0.177997
0.176617
0.175257
0.173909
0.172565
0.171224
0.169888
0.168557
0.167229
0.165907
0.164587
0.163271
0.161954
0.160631
0.159297
0.157942
0.156559
0.155139
0.153678
0.152175
0.15064
0.149091
0.147559
0.146082
0.144708
0.143486
0.142459
0.141659
0.141096
0.140762
0.140623
0.140634
0.140742
0.140893
0.141037
0.141122
0.141074
0.140758
0.13994
0.138246
0.135158
0.129976
0.121739
0.174729
0.173778
0.172533
0.171224
0.16993
0.168645
0.167362
0.16608
0.164802
0.163528
0.162258
0.160993
0.159733
0.158476
0.157222
0.155967
0.154704
0.153427
0.152129
0.150804
0.149445
0.148055
0.14664
0.145218
0.143818
0.142476
0.141236
0.140144
0.139241
0.138554
0.138093
0.137842
0.137766
0.137813
0.137926
0.138052
0.138145
0.138166
0.138062
0.137736
0.136998
0.135528
0.132865
0.128378
0.121203
0.169129
0.168228
0.167053
0.165814
0.164588
0.163367
0.162146
0.160925
0.159707
0.158492
0.157281
0.156075
0.154875
0.153681
0.15249
0.151301
0.150108
0.148907
0.147691
0.146454
0.145193
0.143907
0.142605
0.141303
0.140027
0.138812
0.1377
0.136735
0.135953
0.135382
0.135028
0.134873
0.134879
0.134988
0.135142
0.135284
0.135371
0.135373
0.135258
0.13496
0.134333
0.133115
0.130907
0.127153
0.121101
0.163513
0.16266
0.161551
0.160383
0.159223
0.158067
0.15691
0.155751
0.154594
0.15344
0.15229
0.151145
0.150007
0.148875
0.147749
0.146626
0.145503
0.144375
0.143237
0.142085
0.140914
0.139726
0.138528
0.137335
0.136174
0.135077
0.134083
0.133235
0.132569
0.13211
0.131863
0.131811
0.131913
0.132109
0.132335
0.132531
0.132655
0.132683
0.132596
0.132357
0.131862
0.130904
0.129152
0.12613
0.121206
0.157878
0.157071
0.156027
0.154927
0.153834
0.152743
0.151648
0.150553
0.149458
0.148366
0.147277
0.146195
0.145119
0.144051
0.142989
0.141933
0.140879
0.139823
0.138761
0.137689
0.136604
0.135506
0.134404
0.133312
0.132254
0.131261
0.130373
0.12963
0.129067
0.12871
0.128566
0.128617
0.128823
0.129121
0.129444
0.129728
0.129928
0.13002
0.129998
0.129843
0.12949
0.128786
0.127467
0.125142
0.121303
0.152224
0.15146
0.150478
0.149444
0.148416
0.147388
0.146357
0.145325
0.144292
0.143262
0.142237
0.141217
0.140205
0.139201
0.138205
0.137215
0.13623
0.135245
0.134257
0.133263
0.132259
0.131246
0.130232
0.129231
0.128265
0.127365
0.126567
0.125913
0.125437
0.125168
0.125114
0.12526
0.125567
0.125974
0.12641
0.126806
0.127112
0.127304
0.127376
0.127325
0.127117
0.12665
0.125722
0.12403
0.121191
0.146549
0.145826
0.144903
0.143931
0.142967
0.142002
0.141033
0.140063
0.139093
0.138125
0.137163
0.136206
0.135258
0.134319
0.133388
0.132466
0.131548
0.130634
0.129719
0.1288
0.127875
0.126943
0.126012
0.125093
0.124209
0.123388
0.122667
0.122084
0.121678
0.121477
0.121494
0.121718
0.122115
0.122627
0.12318
0.123702
0.124137
0.124453
0.124643
0.124712
0.12465
0.124395
0.123805
0.12266
0.120699
0.140854
0.140169
0.1393
0.138389
0.137485
0.136581
0.135674
0.134765
0.133857
0.132951
0.132051
0.131158
0.130274
0.129399
0.128533
0.127677
0.126828
0.125984
0.125141
0.124296
0.123447
0.122593
0.121739
0.120898
0.120088
0.119336
0.118678
0.118151
0.117794
0.11764
0.117704
0.117985
0.118452
0.119053
0.119716
0.120366
0.120939
0.121396
0.121722
0.121922
0.122001
0.121931
0.121622
0.120927
0.119701
0.135138
0.134487
0.133671
0.132817
0.131971
0.131126
0.130278
0.129429
0.128582
0.127737
0.126899
0.126068
0.125246
0.124435
0.123634
0.122844
0.122062
0.121287
0.120515
0.119743
0.118968
0.11819
0.117412
0.116644
0.115902
0.115211
0.114604
0.114119
0.113794
0.113665
0.113754
0.114064
0.114575
0.115241
0.115996
0.116763
0.117474
0.118077
0.118547
0.118884
0.119099
0.119188
0.119102
0.118763
0.118118
0.1294
0.128782
0.128014
0.127215
0.126424
0.125636
0.124846
0.124055
0.123267
0.122482
0.121704
0.120934
0.120173
0.119424
0.118687
0.11796
0.117244
0.116537
0.115834
0.115134
0.114433
0.113729
0.113024
0.112325
0.111648
0.111013
0.11045
0.109996
0.109689
0.109566
0.109655
0.109968
0.110493
0.111194
0.112013
0.112876
0.11371
0.114453
0.115068
0.115544
0.115889
0.116113
0.116199
0.116123
0.115914
0.123641
0.123053
0.12233
0.121582
0.120844
0.12011
0.119376
0.118642
0.117911
0.117184
0.116464
0.115753
0.115052
0.114363
0.113686
0.113022
0.112369
0.111727
0.111093
0.110462
0.109832
0.109199
0.108566
0.107936
0.107321
0.106738
0.106216
0.105786
0.105486
0.105356
0.105426
0.105715
0.106223
0.106925
0.107773
0.1087
0.109632
0.110499
0.111251
0.111861
0.11233
0.112669
0.112883
0.112987
0.113077
0.117859
0.1173
0.116619
0.115919
0.115232
0.11455
0.113869
0.113189
0.112513
0.111842
0.111178
0.110523
0.109879
0.109248
0.108629
0.108025
0.107433
0.106854
0.106284
0.105719
0.105157
0.104595
0.10403
0.103467
0.102913
0.102383
0.101899
0.101491
0.101194
0.101046
0.101081
0.101325
0.101788
0.102457
0.103295
0.104247
0.105242
0.106206
0.107076
0.107811
0.108395
0.108835
0.109141
0.109356
0.109615
0.112053
0.111521
0.11088
0.110226
0.109587
0.108954
0.108324
0.107697
0.107073
0.106455
0.105845
0.105244
0.104654
0.104077
0.103514
0.102966
0.102432
0.101911
0.101401
0.1009
0.100402
0.0999062
0.0994091
0.0989116
0.0984188
0.0979415
0.0974974
0.0971116
0.0968156
0.0966452
0.0966365
0.0968198
0.0972134
0.097817
0.0986079
0.0995417
0.100556
0.101578
0.102538
0.10338
0.10407
0.1046
0.104976
0.105248
0.105559
0.106223
0.105716
0.105113
0.104503
0.103909
0.103323
0.102742
0.102164
0.10159
0.101023
0.100463
0.0999135
0.099375
0.0988495
0.0983382
0.0978419
0.097361
0.0968947
0.0964411
0.0959978
0.0955612
0.0951278
0.0946949
0.0942612
0.093829
0.0934052
0.0930031
0.0926425
0.0923504
0.0921592
0.0921042
0.0922182
0.0925263
0.0930388
0.0937467
0.0946194
0.0956061
0.0966408
0.0976509
0.0985702
0.0993489
0.0999597
0.100395
0.100693
0.100962
0.100367
0.0998842
0.0993182
0.0987493
0.0981989
0.0976582
0.0971225
0.0965912
0.096065
0.0955453
0.0950334
0.0945313
0.0940405
0.0935626
0.0930991
0.0926509
0.0922187
0.0918021
0.0913999
0.09101
0.0906293
0.0902544
0.0898818
0.089509
0.089136
0.0887663
0.0884088
0.0880781
0.0877958
0.0875897
0.0874923
0.0875365
0.0877513
0.0881554
0.0887521
0.0895249
0.0904373
0.0914334
0.0924451
0.0934017
0.094241
0.0949178
0.0954065
0.0957163
0.0958899
0.0944835
0.0940257
0.0934958
0.0929671
0.0924582
0.0919597
0.091467
0.0909793
0.0904972
0.0900217
0.0895541
0.0890961
0.0886493
0.0882151
0.0877952
0.0873909
0.0870028
0.0866312
0.0862754
0.0859337
0.0856036
0.0852818
0.0849645
0.0846486
0.0843324
0.0840167
0.0837062
0.0834106
0.0831458
0.0829342
0.0828035
0.0827846
0.0829076
0.0831967
0.0836646
0.0843079
0.0851043
0.0860117
0.0869714
0.087915
0.0887744
0.0894908
0.0900206
0.0903376
0.0904047
0.088573
0.0881413
0.0876476
0.0871579
0.0866881
0.0862289
0.0857759
0.0853284
0.0848867
0.0844518
0.0840248
0.0836071
0.0832002
0.0828058
0.0824254
0.0820605
0.081712
0.0813805
0.0810658
0.0807667
0.0804811
0.0802063
0.0799388
0.0796751
0.0794123
0.0791493
0.0788872
0.0786312
0.0783917
0.0781853
0.0780342
0.0779653
0.078007
0.0781854
0.0785196
0.0790164
0.0796665
0.0804423
0.0812978
0.0821733
0.0830018
0.0837179
0.0842651
0.0845837
0.0845642
0.0826359
0.0822329
0.0817756
0.0813233
0.0808898
0.0804666
0.0800496
0.0796383
0.0792331
0.0788347
0.0784443
0.0780629
0.0776922
0.0773336
0.0769886
0.0766588
0.0763453
0.0760489
0.0757697
0.0755073
0.0752603
0.0750264
0.0748026
0.0745856
0.0743718
0.0741584
0.0739441
0.0737303
0.0735229
0.0733326
0.0731759
0.0730741
0.0730519
0.0731342
0.0733426
0.0736908
0.0741795
0.0747941
0.0755029
0.0762583
0.0770012
0.077667
0.0781936
0.0784991
0.0784287
0.0766733
0.0763022
0.0758817
0.0754645
0.0750637
0.0746722
0.0742869
0.0739075
0.0735346
0.0731688
0.0728109
0.0724622
0.0721239
0.0717973
0.0714838
0.0711849
0.0709017
0.0706354
0.0703867
0.0701556
0.0699414
0.0697423
0.069556
0.0693793
0.0692086
0.0690401
0.0688711
0.0687003
0.0685295
0.0683648
0.0682166
0.0681005
0.0680356
0.0680436
0.0681451
0.0683567
0.0686858
0.0691279
0.069664
0.0702601
0.0708686
0.0714327
0.0718921
0.0721576
0.072067
0.070687
0.0703513
0.0699669
0.069581
0.0692081
0.0688434
0.0684851
0.0681332
0.0677883
0.0674511
0.0671223
0.0668027
0.0664933
0.0661952
0.0659094
0.0656374
0.0653805
0.0651401
0.0649174
0.0647128
0.064526
0.0643558
0.0642005
0.0640573
0.0639229
0.0637937
0.0636657
0.0635361
0.0634039
0.0632711
0.0631431
0.0630297
0.0629441
0.0629029
0.0629236
0.063022
0.0632085
0.0634853
0.0638433
0.0642605
0.0647025
0.065124
0.0654728
0.0656672
0.0655691
0.0646795
0.0643811
0.0640301
0.0636698
0.0633185
0.062975
0.0626386
0.0623099
0.0619893
0.0616775
0.0613746
0.0610811
0.0607976
0.0605246
0.0602633
0.0600148
0.0597809
0.059563
0.0593626
0.0591801
0.0590158
0.058869
0.0587385
0.0586223
0.0585178
0.0584213
0.0583288
0.0582366
0.0581418
0.0580436
0.0579433
0.0578457
0.0577584
0.0576924
0.0576606
0.0576756
0.0577476
0.0578819
0.0580758
0.058317
0.0585831
0.0588415
0.0590516
0.0591501
0.05904
0.0586526
0.0583902
0.058066
0.0577227
0.0573856
0.0570576
0.0567386
0.0564295
0.0561305
0.0558415
0.0555622
0.0552925
0.0550324
0.0547822
0.0545429
0.0543157
0.0541023
0.0539042
0.0537227
0.0535588
0.0534129
0.0532849
0.0531741
0.0530794
0.0529983
0.0529278
0.0528642
0.0528036
0.0527421
0.0526772
0.0526074
0.0525336
0.0524588
0.0523885
0.0523303
0.0522926
0.0522831
0.052307
0.0523653
0.0524525
0.0525559
0.0526546
0.0527207
0.0527123
0.0525759
0.0526078
0.0523721
0.052062
0.0517245
0.051394
0.0510763
0.0507719
0.0504807
0.0502021
0.0499349
0.0496781
0.0494309
0.0491929
0.0489642
0.0487455
0.048538
0.0483434
0.048163
0.0479984
0.0478505
0.0477201
0.0476076
0.0475126
0.0474343
0.0473709
0.0473199
0.0472783
0.0472422
0.0472081
0.0471722
0.0471319
0.0470849
0.0470306
0.0469701
0.0469059
0.0468418
0.0467821
0.0467304
0.0466889
0.0466564
0.0466269
0.0465896
0.0465281
0.0464193
0.0462427
0.0465426
0.0463097
0.0459943
0.04565
0.0453199
0.0450107
0.0447212
0.0444492
0.0441922
0.0439479
0.0437142
0.0434898
0.0432738
0.0430663
0.0428677
0.0426793
0.0425025
0.0423389
0.04219
0.0420569
0.0419405
0.0418412
0.041759
0.0416933
0.0416427
0.0416055
0.0415793
0.0415611
0.0415475
0.0415349
0.0415195
0.0414974
0.0414656
0.0414214
0.0413638
0.0412924
0.0412082
0.0411126
0.0410072
0.0408928
0.0407685
0.0406308
0.0404727
0.0402846
0.0400637
0.0404381
0.0401655
0.0398198
0.0394602
0.0391308
0.0388346
0.0385658
0.0383186
0.0380881
0.0378704
0.0376625
0.0374626
0.0372698
0.0370841
0.0369059
0.0367367
0.0365779
0.0364312
0.036298
0.0361795
0.0360764
0.0359892
0.0359178
0.0358619
0.0358207
0.0357929
0.035777
0.0357707
0.0357711
0.0357747
0.0357774
0.0357747
0.035762
0.0357349
0.0356893
0.0356222
0.0355312
0.0354156
0.0352762
0.0351145
0.0349328
0.0347328
0.0345146
0.0342757
0.0340174
0.0342736
0.0338875
0.0334755
0.0331001
0.0327851
0.0325182
0.0322849
0.0320747
0.0318797
0.0316949
0.0315171
0.0313445
0.0311767
0.0310139
0.0308572
0.0307081
0.0305682
0.0304393
0.0303227
0.0302193
0.0301298
0.0300544
0.0299932
0.0299458
0.029912
0.0298911
0.0298819
0.0298825
0.0298907
0.0299033
0.0299167
0.0299263
0.029927
0.0299133
0.0298795
0.0298203
0.0297319
0.0296119
0.0294602
0.0292789
0.0290716
0.0288428
0.0285968
0.0283344
0.0280523
0.0281265
0.0274726
0.0269201
0.0265201
0.0262422
0.0260343
0.0258621
0.0257073
0.0255602
0.0254161
0.025273
0.0251306
0.0249896
0.0248513
0.0247174
0.0245899
0.0244706
0.0243612
0.0242627
0.0241758
0.0241009
0.0240383
0.0239878
0.0239494
0.0239227
0.0239073
0.0239023
0.0239063
0.0239175
0.0239334
0.023951
0.023966
0.0239732
0.0239667
0.0239404
0.0238885
0.0238064
0.0236908
0.0235407
0.0233579
0.0231469
0.0229137
0.0226647
0.0224004
0.0221111
0.0221188
0.0209568
0.0201619
0.0197095
0.019491
0.0193779
0.0192963
0.0192161
0.0191276
0.0190296
0.0189237
0.0188127
0.0186995
0.0185869
0.0184776
0.0183738
0.0182774
0.0181897
0.0181114
0.0180431
0.0179851
0.0179373
0.0178995
0.0178715
0.0178527
0.0178428
0.0178413
0.0178471
0.017859
0.0178748
0.0178918
0.0179064
0.0179138
0.0179087
0.0178855
0.0178383
0.0177623
0.017654
0.0175124
0.0173395
0.0171393
0.0169178
0.0166814
0.0164295
0.0161474
0.0154491
0.0137735
0.0127336
0.0125107
0.012582
0.0126593
0.0126942
0.0126912
0.0126563
0.012597
0.0125218
0.0124377
0.01235
0.0122627
0.0121787
0.0121002
0.0120286
0.0119648
0.0119093
0.0118623
0.0118237
0.0117933
0.0117704
0.0117544
0.0117451
0.011742
0.0117447
0.0117526
0.0117642
0.0117778
0.0117911
0.0118014
0.011805
0.0117972
0.0117729
0.0117276
0.0116568
0.0115576
0.011429
0.011272
0.0110901
0.0108884
0.010672
0.0104392
0.010175
0.00572346
0.00330683
0.00196899
0.00396337
0.00546159
0.00606223
0.00626692
0.00632885
0.00632167
0.0062766
0.00621353
0.00614425
0.00607516
0.00600983
0.00595024
0.00589749
0.00585209
0.00581417
0.00578362
0.00576013
0.00574316
0.00573199
0.00572581
0.00572391
0.0057258
0.0057311
0.00573931
0.00574957
0.00576072
0.00577138
0.00577993
0.00578428
0.00578165
0.00576867
0.00574169
0.00569704
0.00563144
0.00554248
0.00542905
0.00529161
0.00513213
0.00495323
0.0047581
0.00454469
0.00430133
0.00521953
-0.0121685
-0.0141673
-0.00669971
-0.00319356
-0.00197239
-0.00148037
-0.00126457
-0.00118881
-0.0011818
-0.00120348
-0.00123389
-0.00126371
-0.00128879
-0.0013074
-0.00131907
-0.00132397
-0.00132261
-0.00131565
-0.00130383
-0.00128798
-0.00126904
-0.00124796
-0.00122557
-0.00120249
-0.00117927
-0.00115656
-0.00113516
-0.00111609
-0.00110038
-0.00108899
-0.00108298
-0.00108386
-0.00109359
-0.00111409
-0.00114709
-0.00119429
-0.00125752
-0.00133817
-0.0014367
-0.00155307
-0.0016874
-0.00183972
-0.00201043
-0.00220525
)
;

boundaryField
{
    leftWall
    {
        type            fixedFluxPressure;
        gradient        uniform 0;
        value           nonuniform List<scalar> 
42
(
0.241223
0.235686
0.230158
0.224634
0.21911
0.213585
0.208058
0.202526
0.196988
0.191441
0.185883
0.180313
0.174729
0.169129
0.163513
0.157878
0.152224
0.146549
0.140854
0.135138
0.1294
0.123641
0.117859
0.112053
0.106223
0.100367
0.0944835
0.088573
0.0826359
0.0766733
0.070687
0.0646795
0.0586526
0.0526078
0.0465426
0.0404381
0.0342736
0.0281265
0.0221188
0.0154491
0.00572346
0.00521953
)
;
    }
    rightWall
    {
        type            fixedFluxPressure;
        gradient        nonuniform 0();
        value           nonuniform 0();
    }
    lowerWall
    {
        type            fixedFluxPressure;
        gradient        nonuniform 0();
        value           nonuniform 0();
    }
    atmosphere
    {
        type            totalPressure;
        rho             rho;
        psi             none;
        gamma           1;
        p0              uniform 0;
        value           nonuniform List<scalar> 
45
(
-8.05429e-06
-0.00399411
-0.00529162
-0.00557933
-0.00570196
-0.00576557
-0.00580529
-0.00583378
-0.00585493
-0.00586945
-0.00587722
-0.00587803
-0.00587188
-0.00585894
-0.0058396
-0.00581437
-0.00578391
-0.00574895
-0.00571028
-0.00566872
-0.00562512
-0.00558031
-0.0055351
-0.00549027
-0.0054466
-0.00540481
-0.00536559
-0.00532964
-0.0052976
-0.00527013
-0.0052479
-0.00523156
-0.00522181
-0.00521937
-0.00522502
-0.0052396
-0.00526401
-0.00529925
-0.00534638
-0.00540655
-0.00548097
-0.00557084
-0.00567736
-0.00580154
-0.00594418
)
;
    }
    defaultFaces
    {
        type            empty;
    }
    procBoundary2to0
    {
        type            processor;
        value           nonuniform List<scalar> 
46
(
0.215106
0.212213
0.209208
0.20613
0.203026
0.199957
0.197001
0.194256
0.191839
0.189887
0.188545
0.187968
0.188296
0.189629
0.192005
0.195378
0.199598
0.204404
0.209423
0.214195
0.21822
0.221022
0.22233
0.221117
0.21607
0.246762
0.245505
0.243905
0.242278
0.240696
0.239125
0.237544
0.235944
0.234318
0.232662
0.230966
0.22922
0.227415
0.22554
0.223582
0.22153
0.219371
0.21709
0.214677
0.212121
0.212121
)
;
    }
    procBoundary2to3
    {
        type            processor;
        value           nonuniform List<scalar> 
43
(
0.197113
0.18576
0.172901
0.160156
0.148583
0.138275
0.129432
0.122186
0.116608
0.112678
0.110299
0.109296
0.10943
0.110422
0.111962
0.11373
0.115429
0.116801
0.117635
0.117774
0.117114
0.115602
0.113224
0.109999
0.10598
0.10125
0.0959239
0.0901532
0.0840864
0.0778377
0.0714789
0.0650621
0.0586364
0.0522548
0.045964
0.039788
0.03372
0.02773
0.0217766
0.0158181
0.00986561
0.00402115
-0.00242579
)
;
    }
}


// ************************************************************************* //
