/*--------------------------------*- C++ -*----------------------------------*\
| =========                 |                                                 |
| \\      /  F ield         | OpenFOAM: The Open Source CFD Toolbox           |
|  \\    /   O peration     | Version:  5.0                                   |
|   \\  /    A nd           | Web:      www.OpenFOAM.org                      |
|    \\/     M anipulation  |                                                 |
\*---------------------------------------------------------------------------*/
FoamFile
{
    version     2.0;
    format      ascii;
    class       volVectorField;
    location    "0.65";
    object      U;
}
// * * * * * * * * * * * * * * * * * * * * * * * * * * * * * * * * * * * * * //

dimensions      [0 1 -1 0 0 0 0];

internalField   nonuniform List<vector> 
1915
(
(-0.0280124 -0.11653 0)
(-0.0261025 -0.106514 0)
(-0.0239409 -0.0960383 0)
(-0.0215515 -0.0850823 0)
(-0.018964 -0.0736213 0)
(-0.0162152 -0.0616234 0)
(-0.0133501 -0.049049 0)
(-0.0104238 -0.0358495 0)
(-0.00750234 -0.0219662 0)
(-0.0046645 -0.00732943 0)
(-0.00200385 0.00814341 0)
(0.000370323 0.0245512 0)
(0.00233088 0.0420115 0)
(0.00373033 0.0606591 0)
(0.00439922 0.0806458 0)
(0.00414487 0.10214 0)
(0.00275017 0.125325 0)
(-2.57814e-05 0.150396 0)
(-0.00444667 0.177553 0)
(-0.0107951 0.207001 0)
(-0.0193709 0.238938 0)
(-0.0304743 0.273553 0)
(-0.0444425 0.311029 0)
(-0.0614587 0.351483 0)
(-0.0820899 0.395178 0)
(-0.00270742 -0.188973 0)
(-0.00677241 -0.205044 0)
(-0.0108472 -0.20926 0)
(-0.0147121 -0.210358 0)
(-0.0183244 -0.209933 0)
(-0.0216429 -0.208484 0)
(-0.0246627 -0.206228 0)
(-0.027382 -0.203278 0)
(-0.0297986 -0.199704 0)
(-0.0319099 -0.195556 0)
(-0.033714 -0.190868 0)
(-0.0352088 -0.185668 0)
(-0.0363931 -0.179977 0)
(-0.0372656 -0.173815 0)
(-0.0378258 -0.167194 0)
(-0.0380739 -0.160126 0)
(-0.0380109 -0.152617 0)
(-0.0376389 -0.144671 0)
(-0.0369619 -0.136289 0)
(-0.0359858 -0.127465 0)
(-0.0347194 -0.118192 0)
(-0.0331745 -0.108455 0)
(-0.0313665 -0.0982378 0)
(-0.0293161 -0.0875143 0)
(-0.0270489 -0.0762529 0)
(-0.0245973 -0.064414 0)
(-0.0220015 -0.0519488 0)
(-0.0193105 -0.0387979 0)
(-0.0165841 -0.0248905 0)
(-0.013894 -0.0101425 0)
(-0.011326 0.00554428 0)
(-0.00898057 0.0222858 0)
(-0.00697533 0.0402191 0)
(-0.00544681 0.0595003 0)
(-0.00455235 0.0803045 0)
(-0.00447108 0.102824 0)
(-0.00540447 0.127266 0)
(-0.00757601 0.153848 0)
(-0.0112293 0.182793 0)
(-0.0166254 0.214322 0)
(-0.0240357 0.248646 0)
(-0.0337414 0.285961 0)
(-0.0460242 0.326436 0)
(-0.0611518 0.370239 0)
(-0.0793131 0.417377 0)
(-0.00275232 -0.184223 0)
(-0.0069368 -0.200397 0)
(-0.0111709 -0.204876 0)
(-0.0152251 -0.20626 0)
(-0.0190531 -0.206132 0)
(-0.0226094 -0.204986 0)
(-0.0258861 -0.203037 0)
(-0.0288791 -0.200398 0)
(-0.0315843 -0.19714 0)
(-0.0339972 -0.193309 0)
(-0.0361144 -0.188942 0)
(-0.0379324 -0.184065 0)
(-0.0394482 -0.178701 0)
(-0.0406595 -0.172865 0)
(-0.0415641 -0.166573 0)
(-0.0421608 -0.159834 0)
(-0.0424493 -0.152652 0)
(-0.0424301 -0.145032 0)
(-0.0421056 -0.13697 0)
(-0.0414798 -0.12846 0)
(-0.0405589 -0.119491 0)
(-0.0393523 -0.110047 0)
(-0.0378727 -0.100104 0)
(-0.0361367 -0.0896324 0)
(-0.0341661 -0.0785948 0)
(-0.0319886 -0.0669439 0)
(-0.0296388 -0.0546224 0)
(-0.0271598 -0.0415612 0)
(-0.0246041 -0.0276778 0)
(-0.0220355 -0.0128748 0)
(-0.0195308 0.0029611 0)
(-0.0171808 0.0199622 0)
(-0.0150917 0.0382841 0)
(-0.0133874 0.0581033 0)
(-0.0122109 0.0796165 0)
(-0.0117253 0.103039 0)
(-0.012114 0.128599 0)
(-0.0135797 0.156537 0)
(-0.0163429 0.187093 0)
(-0.0206381 0.220501 0)
(-0.0267096 0.256981 0)
(-0.0348003 0.296726 0)
(-0.0451622 0.339906 0)
(-0.0580143 0.386657 0)
(-0.0735771 0.43707 0)
(-0.00276445 -0.179355 0)
(-0.00701725 -0.195584 0)
(-0.0113577 -0.200291 0)
(-0.015549 -0.201935 0)
(-0.0195418 -0.202081 0)
(-0.0232866 -0.201217 0)
(-0.0267724 -0.199558 0)
(-0.0299928 -0.197216 0)
(-0.0329416 -0.194259 0)
(-0.0356125 -0.190736 0)
(-0.0380002 -0.186681 0)
(-0.0400998 -0.18212 0)
(-0.0419068 -0.177075 0)
(-0.0434173 -0.171562 0)
(-0.044628 -0.165596 0)
(-0.0455361 -0.159183 0)
(-0.0461398 -0.152329 0)
(-0.0464383 -0.145036 0)
(-0.0464322 -0.137298 0)
(-0.0461234 -0.129109 0)
(-0.0455163 -0.120453 0)
(-0.0446173 -0.111312 0)
(-0.043436 -0.101658 0)
(-0.0419856 -0.0914574 0)
(-0.0402837 -0.0806664 0)
(-0.0383531 -0.0692317 0)
(-0.0362228 -0.0570881 0)
(-0.0339292 -0.0441573 0)
(-0.0315173 -0.0303463 0)
(-0.0290424 -0.0155455 0)
(-0.0265714 0.000372405 0)
(-0.0241841 0.017555 0)
(-0.0219743 0.0361746 0)
(-0.0200517 0.0564267 0)
(-0.0185431 0.0785279 0)
(-0.0175935 0.102714 0)
(-0.0173657 0.129233 0)
(-0.0180395 0.158344 0)
(-0.0198095 0.190303 0)
(-0.0228818 0.225353 0)
(-0.0274683 0.263719 0)
(-0.0337803 0.305595 0)
(-0.0420195 0.351131 0)
(-0.052379 0.400453 0)
(-0.0650236 0.453609 0)
(-0.00274895 -0.174422 0)
(-0.00702469 -0.190659 0)
(-0.0114234 -0.19556 0)
(-0.0157032 -0.197434 0)
(-0.0198124 -0.197827 0)
(-0.023698 -0.197225 0)
(-0.0273462 -0.195837 0)
(-0.0307483 -0.193774 0)
(-0.0338958 -0.191106 0)
(-0.0367807 -0.187877 0)
(-0.0393957 -0.184123 0)
(-0.0417345 -0.17987 0)
(-0.043791 -0.175137 0)
(-0.04556 -0.169943 0)
(-0.0470365 -0.164297 0)
(-0.0482167 -0.158209 0)
(-0.0490972 -0.151682 0)
(-0.0496757 -0.144716 0)
(-0.0499511 -0.137306 0)
(-0.0499236 -0.129442 0)
(-0.0495951 -0.121107 0)
(-0.0489696 -0.112279 0)
(-0.0480536 -0.102929 0)
(-0.0468569 -0.0930165 0)
(-0.0453927 -0.0824947 0)
(-0.0436789 -0.0713041 0)
(-0.0417386 -0.0593726 0)
(-0.0396017 -0.0466138 0)
(-0.0373052 -0.0329251 0)
(-0.0348952 -0.018186 0)
(-0.0324284 -0.00225644 0)
(-0.0299727 0.015025 0)
(-0.0276085 0.0338458 0)
(-0.02543 0.054418 0)
(-0.0235467 0.0769763 0)
(-0.0220835 0.101774 0)
(-0.0211808 0.129078 0)
(-0.0209934 0.159161 0)
(-0.021688 0.192292 0)
(-0.0234396 0.228724 0)
(-0.0264269 0.268681 0)
(-0.0308241 0.312353 0)
(-0.0367935 0.359878 0)
(-0.0444813 0.411348 0)
(-0.0540217 0.466796 0)
(-0.00271042 -0.16947 0)
(-0.00696926 -0.185672 0)
(-0.0113829 -0.19073 0)
(-0.0157067 -0.192805 0)
(-0.0198873 -0.19342 0)
(-0.0238688 -0.193056 0)
(-0.0276348 -0.191919 0)
(-0.0311743 -0.190118 0)
(-0.0344766 -0.187722 0)
(-0.0375321 -0.184776 0)
(-0.0403317 -0.181312 0)
(-0.0428673 -0.177356 0)
(-0.0451314 -0.172928 0)
(-0.0471174 -0.168044 0)
(-0.048819 -0.162715 0)
(-0.050231 -0.156949 0)
(-0.0513486 -0.150747 0)
(-0.0521681 -0.144109 0)
(-0.0526867 -0.137028 0)
(-0.0529028 -0.129493 0)
(-0.0528162 -0.121486 0)
(-0.0524283 -0.112981 0)
(-0.0517429 -0.103947 0)
(-0.0507658 -0.0943404 0)
(-0.0495065 -0.0841098 0)
(-0.0479777 -0.0731909 0)
(-0.0461968 -0.0615058 0)
(-0.0441866 -0.0489609 0)
(-0.0419764 -0.0354455 0)
(-0.0396029 -0.0208292 0)
(-0.0371117 -0.00496081 0)
(-0.0345586 0.0123334 0)
(-0.0320098 0.0312537 0)
(-0.0295433 0.0520272 0)
(-0.0272498 0.0749037 0)
(-0.0252333 0.100152 0)
(-0.0236105 0.128054 0)
(-0.0225093 0.158895 0)
(-0.0220671 0.192953 0)
(-0.0224268 0.230486 0)
(-0.0237318 0.271718 0)
(-0.0261197 0.316828 0)
(-0.029711 0.36594 0)
(-0.0346113 0.419116 0)
(-0.0409123 0.476354 0)
(-0.00265319 -0.164542 0)
(-0.00686067 -0.180665 0)
(-0.0112513 -0.185846 0)
(-0.0155791 -0.188092 0)
(-0.0197898 -0.188904 0)
(-0.0238255 -0.188754 0)
(-0.0276673 -0.187848 0)
(-0.0313021 -0.186292 0)
(-0.0347174 -0.184152 0)
(-0.0379015 -0.181474 0)
(-0.0408438 -0.178288 0)
(-0.0435347 -0.17462 0)
(-0.0459653 -0.170488 0)
(-0.0481273 -0.165909 0)
(-0.0500135 -0.160891 0)
(-0.0516171 -0.155441 0)
(-0.0529321 -0.149562 0)
(-0.0539533 -0.143252 0)
(-0.0546764 -0.136502 0)
(-0.0550981 -0.1293 0)
(-0.055216 -0.121626 0)
(-0.0550293 -0.113453 0)
(-0.0545387 -0.104746 0)
(-0.0537468 -0.095462 0)
(-0.0526588 -0.0855437 0)
(-0.0512828 -0.0749233 0)
(-0.0496302 -0.0635182 0)
(-0.0477171 -0.0512289 0)
(-0.0455647 -0.0379375 0)
(-0.0432001 -0.0235055 0)
(-0.0406581 -0.00777232 0)
(-0.0379817 0.00944644 0)
(-0.0352224 0.028362 0)
(-0.0324414 0.0492137 0)
(-0.0297102 0.0722643 0)
(-0.0271108 0.0977954 0)
(-0.0247353 0.1261 0)
(-0.0226843 0.157475 0)
(-0.0210646 0.192202 0)
(-0.0199862 0.230543 0)
(-0.0195572 0.272717 0)
(-0.0198775 0.318892 0)
(-0.0210284 0.369172 0)
(-0.0230733 0.423592 0)
(-0.0260638 0.482112 0)
(-0.00258143 -0.15967 0)
(-0.00670835 -0.175677 0)
(-0.011043 -0.18095 0)
(-0.0153395 -0.183338 0)
(-0.0195433 -0.184321 0)
(-0.0235951 -0.184363 0)
(-0.027474 -0.183667 0)
(-0.0311649 -0.182337 0)
(-0.0346535 -0.180438 0)
(-0.0379266 -0.178013 0)
(-0.0409719 -0.175094 0)
(-0.0437782 -0.171703 0)
(-0.0463354 -0.167859 0)
(-0.048634 -0.163575 0)
(-0.0506652 -0.158863 0)
(-0.0524212 -0.153726 0)
(-0.0538948 -0.148167 0)
(-0.0550792 -0.142183 0)
(-0.0559689 -0.135764 0)
(-0.0565586 -0.128898 0)
(-0.0568443 -0.121562 0)
(-0.0568227 -0.113729 0)
(-0.0564918 -0.105362 0)
(-0.055851 -0.0964151 0)
(-0.0549015 -0.0868293 0)
(-0.0536466 -0.0765334 0)
(-0.0520923 -0.0654409 0)
(-0.0502477 -0.0534478 0)
(-0.0481261 -0.0404306 0)
(-0.0457453 -0.0262442 0)
(-0.0431288 -0.0107203 0)
(-0.0403067 0.00633419 0)
(-0.0373159 0.0251392 0)
(-0.0342004 0.0459438 0)
(-0.031012 0.069021 0)
(-0.0278106 0.0946621 0)
(-0.024663 0.12317 0)
(-0.0216419 0.154845 0)
(-0.0188239 0.189976 0)
(-0.0162855 0.228822 0)
(-0.0140997 0.271596 0)
(-0.0123297 0.318452 0)
(-0.0110182 0.369474 0)
(-0.0101895 0.424667 0)
(-0.00985447 0.483953 0)
(-0.00249899 -0.154885 0)
(-0.0065212 -0.170743 0)
(-0.0107719 -0.176076 0)
(-0.0150066 -0.17858 0)
(-0.0191709 -0.179709 0)
(-0.0232047 -0.179922 0)
(-0.0270856 -0.179415 0)
(-0.0307967 -0.178294 0)
(-0.0343221 -0.17662 0)
(-0.0376471 -0.174435 0)
(-0.040758 -0.171769 0)
(-0.0436424 -0.168644 0)
(-0.0462886 -0.165079 0)
(-0.0486861 -0.161085 0)
(-0.0508249 -0.156671 0)
(-0.052696 -0.151843 0)
(-0.0542909 -0.146601 0)
(-0.0556018 -0.140941 0)
(-0.0566215 -0.134854 0)
(-0.0573435 -0.128324 0)
(-0.0577616 -0.121331 0)
(-0.0578706 -0.113846 0)
(-0.0576658 -0.105829 0)
(-0.0571435 -0.0972335 0)
(-0.0563013 -0.0879992 0)
(-0.0551378 -0.0780526 0)
(-0.0536535 -0.0673042 0)
(-0.0518511 -0.0556467 0)
(-0.049736 -0.0429527 0)
(-0.0473167 -0.0290721 0)
(-0.0446057 -0.0138307 0)
(-0.0416204 0.00297113 0)
(-0.0383826 0.0215598 0)
(-0.0349194 0.0421914 0)
(-0.031263 0.0651463 0)
(-0.0274506 0.0907229 0)
(-0.0235242 0.119229 0)
(-0.0195287 0.150971 0)
(-0.0155102 0.186236 0)
(-0.0115128 0.22528 0)
(-0.00757492 0.268308 0)
(-0.0037239 0.315459 0)
(3.36689e-05 0.366795 0)
(0.00371081 0.422289 0)
(0.00733431 0.481826 0)
(-0.00240918 -0.150208 0)
(-0.00630739 -0.16589 0)
(-0.0104513 -0.171257 0)
(-0.0145983 -0.173853 0)
(-0.0186949 -0.175105 0)
(-0.0226809 -0.175466 0)
(-0.0265325 -0.175131 0)
(-0.0302314 -0.174201 0)
(-0.0337605 -0.172736 0)
(-0.0371036 -0.170777 0)
(-0.0402459 -0.168353 0)
(-0.0431736 -0.165484 0)
(-0.045874 -0.162187 0)
(-0.0483353 -0.158475 0)
(-0.0505467 -0.154354 0)
(-0.052498 -0.149829 0)
(-0.0541796 -0.1449 0)
(-0.0555825 -0.139562 0)
(-0.0566983 -0.133806 0)
(-0.0575189 -0.127616 0)
(-0.0580365 -0.120969 0)
(-0.0582439 -0.113837 0)
(-0.0581341 -0.10618 0)
(-0.0577003 -0.0979495 0)
(-0.0569366 -0.0890845 0)
(-0.0558373 -0.0795103 0)
(-0.0543978 -0.0691359 0)
(-0.0526145 -0.057852 0)
(-0.050485 -0.0455284 0)
(-0.048009 -0.032012 0)
(-0.0451881 -0.0171248 0)
(-0.042027 -0.000662719 0)
(-0.0385331 0.017605 0)
(-0.0347166 0.0379387 0)
(-0.03059 0.0606231 0)
(-0.0261685 0.0859609 0)
(-0.0214692 0.114263 0)
(-0.0165099 0.145835 0)
(-0.0113067 0.180965 0)
(-0.0058723 0.219901 0)
(-0.000211655 0.262838 0)
(0.00568223 0.309898 0)
(0.0118365 0.361121 0)
(0.0182974 0.416452 0)
(0.0251262 0.475738 0)
(-0.00231472 -0.145657 0)
(-0.00607427 -0.161142 0)
(-0.0100932 -0.16652 0)
(-0.0141313 -0.169184 0)
(-0.0181365 -0.170539 0)
(-0.0220491 -0.17103 0)
(-0.0258442 -0.170848 0)
(-0.0295025 -0.170092 0)
(-0.0330057 -0.168822 0)
(-0.0363365 -0.167076 0)
(-0.0394791 -0.164881 0)
(-0.0424186 -0.162258 0)
(-0.0451415 -0.159221 0)
(-0.0476348 -0.155782 0)
(-0.0498868 -0.151947 0)
(-0.0518863 -0.14772 0)
(-0.0536228 -0.1431 0)
(-0.0550863 -0.138082 0)
(-0.0562671 -0.132656 0)
(-0.0571558 -0.126806 0)
(-0.0577431 -0.120509 0)
(-0.0580199 -0.113735 0)
(-0.0579768 -0.106446 0)
(-0.0576047 -0.0985929 0)
(-0.056894 -0.0901137 0)
(-0.0558353 -0.0809336 0)
(-0.0544189 -0.0709612 0)
(-0.0526352 -0.0600866 0)
(-0.0504747 -0.0481785 0)
(-0.0479283 -0.0350824 0)
(-0.0449874 -0.0206186 0)
(-0.0416442 -0.0045808 0)
(-0.037892 0.0132639 0)
(-0.0337242 0.0331771 0)
(-0.0291345 0.0554452 0)
(-0.0241163 0.0803721 0)
(-0.0186627 0.108268 0)
(-0.0127646 0.139439 0)
(-0.0064097 0.174166 0)
(0.000420174 0.212691 0)
(0.00775188 0.255196 0)
(0.0156237 0.301788 0)
(0.0240938 0.352484 0)
(0.0332393 0.407199 0)
(0.0431514 0.465747 0)
(-0.00221772 -0.141247 0)
(-0.00582833 -0.156518 0)
(-0.00970859 -0.161887 0)
(-0.0136211 -0.1646 0)
(-0.0175156 -0.166038 0)
(-0.0213333 -0.166641 0)
(-0.0250486 -0.166595 0)
(-0.0286416 -0.165999 0)
(-0.0320931 -0.164909 0)
(-0.0353849 -0.163363 0)
(-0.0385004 -0.161387 0)
(-0.0414238 -0.158999 0)
(-0.0441406 -0.156213 0)
(-0.0466374 -0.153039 0)
(-0.0489014 -0.149484 0)
(-0.0509206 -0.14555 0)
(-0.0526837 -0.141235 0)
(-0.0541796 -0.136534 0)
(-0.0553977 -0.131436 0)
(-0.0563274 -0.125926 0)
(-0.0569579 -0.11998 0)
(-0.0572785 -0.11357 0)
(-0.0572778 -0.106656 0)
(-0.0569441 -0.0991903 0)
(-0.0562649 -0.0911116 0)
(-0.055227 -0.0823455 0)
(-0.0538161 -0.0728011 0)
(-0.0520171 -0.062369 0)
(-0.0498137 -0.0509187 0)
(-0.0471886 -0.0382961 0)
(-0.0441232 -0.0243216 0)
(-0.0405979 -0.00878921 0)
(-0.0365922 0.00853399 0)
(-0.0320836 0.027908 0)
(-0.0270474 0.0496181 0)
(-0.0214561 0.0739663 0)
(-0.0152792 0.101261 0)
(-0.0084821 0.131801 0)
(-0.00102479 0.165865 0)
(0.00714018 0.203682 0)
(0.0160688 0.245424 0)
(0.0258285 0.291181 0)
(0.0365061 0.340949 0)
(0.0482056 0.394616 0)
(0.0610447 0.451961 0)
(-0.00211994 -0.136986 0)
(-0.00557529 -0.152031 0)
(-0.00930724 -0.157375 0)
(-0.0130816 -0.16012 0)
(-0.0168501 -0.161626 0)
(-0.0205554 -0.162324 0)
(-0.0241718 -0.162401 0)
(-0.0276787 -0.16195 0)
(-0.0310564 -0.161028 0)
(-0.0342861 -0.15967 0)
(-0.0373505 -0.157901 0)
(-0.0402333 -0.155738 0)
(-0.0429194 -0.153194 0)
(-0.0453946 -0.150278 0)
(-0.0476454 -0.146995 0)
(-0.0496593 -0.143348 0)
(-0.051424 -0.139333 0)
(-0.0529279 -0.134945 0)
(-0.0541593 -0.130174 0)
(-0.0551066 -0.125003 0)
(-0.0557577 -0.11941 0)
(-0.0561004 -0.113366 0)
(-0.0561215 -0.106834 0)
(-0.0558071 -0.0997646 0)
(-0.0551419 -0.0920993 0)
(-0.0541093 -0.0837648 0)
(-0.0526909 -0.0746718 0)
(-0.0508664 -0.0647129 0)
(-0.0486133 -0.0537595 0)
(-0.0459064 -0.0416598 0)
(-0.0427181 -0.0282365 0)
(-0.0390174 -0.013286 0)
(-0.0347708 0.00342189 0)
(-0.0299405 0.0221433 0)
(-0.0244843 0.0431594 0)
(-0.0183546 0.0667674 0)
(-0.0114984 0.0932701 0)
(-0.00385671 0.122961 0)
(0.00463706 0.156108 0)
(0.0140572 0.192932 0)
(0.0244868 0.233593 0)
(0.0360208 0.278163 0)
(0.0487708 0.32662 0)
(0.0628646 0.378825 0)
(0.0784432 0.43453 0)
(-0.00202303 -0.13288 0)
(-0.00532021 -0.147693 0)
(-0.00889786 -0.152998 0)
(-0.0125252 -0.155761 0)
(-0.0161563 -0.15732 0)
(-0.0197356 -0.158101 0)
(-0.0232374 -0.158286 0)
(-0.0266411 -0.157968 0)
(-0.0299264 -0.157201 0)
(-0.0330746 -0.156021 0)
(-0.0360677 -0.154449 0)
(-0.038889 -0.152502 0)
(-0.041523 -0.150192 0)
(-0.0439551 -0.147526 0)
(-0.0461712 -0.144508 0)
(-0.0481583 -0.141141 0)
(-0.0499036 -0.137421 0)
(-0.0513946 -0.133342 0)
(-0.052619 -0.128894 0)
(-0.0535642 -0.124061 0)
(-0.0542171 -0.118821 0)
(-0.0545642 -0.113146 0)
(-0.0545906 -0.106999 0)
(-0.0542804 -0.100334 0)
(-0.053616 -0.0930932 0)
(-0.0525777 -0.0852056 0)
(-0.0511433 -0.0765847 0)
(-0.049288 -0.0671262 0)
(-0.0469834 -0.056705 0)
(-0.0441975 -0.0451733 0)
(-0.0408939 -0.0323582 0)
(-0.0370314 -0.0180608 0)
(-0.0325641 -0.00205587 0)
(-0.0274399 0.0159064 0)
(-0.0216001 0.0360999 0)
(-0.0149782 0.0588146 0)
(-0.00750003 0.084345 0)
(0.000916772 0.112976 0)
(0.0103633 0.144965 0)
(0.0209389 0.180525 0)
(0.0327521 0.2198 0)
(0.0459225 0.26285 0)
(0.0605841 0.309632 0)
(0.0768847 0.35999 0)
(0.0949844 0.413646 0)
(-0.00192863 -0.128931 0)
(-0.00506747 -0.143509 0)
(-0.00848799 -0.148766 0)
(-0.0119628 -0.151536 0)
(-0.0154484 -0.153137 0)
(-0.0188914 -0.153989 0)
(-0.0222666 -0.15427 0)
(-0.0255532 -0.154074 0)
(-0.0287313 -0.153453 0)
(-0.0317818 -0.152439 0)
(-0.0346866 -0.151055 0)
(-0.0374291 -0.149315 0)
(-0.0399932 -0.147229 0)
(-0.042364 -0.144805 0)
(-0.0445274 -0.142046 0)
(-0.0464698 -0.138953 0)
(-0.048178 -0.135522 0)
(-0.0496391 -0.131748 0)
(-0.0508399 -0.127619 0)
(-0.0517672 -0.123121 0)
(-0.052407 -0.118233 0)
(-0.0527446 -0.112927 0)
(-0.0527638 -0.107169 0)
(-0.052447 -0.100913 0)
(-0.0517744 -0.0941051 0)
(-0.0507236 -0.086677 0)
(-0.0492694 -0.0785457 0)
(-0.0473825 -0.0696112 0)
(-0.0450298 -0.0597533 0)
(-0.0421729 -0.0488297 0)
(-0.0387676 -0.0366739 0)
(-0.0347636 -0.0230939 0)
(-0.0301034 -0.0078723 0)
(-0.0247219 0.00923265 0)
(-0.018545 0.0284844 0)
(-0.0114888 0.0501629 0)
(-0.00345941 0.0745521 0)
(0.00564729 0.101926 0)
(0.0159449 0.132532 0)
(0.027556 0.166571 0)
(0.0406127 0.204175 0)
(0.055257 0.245391 0)
(0.0716422 0.290161 0)
(0.0899335 0.338311 0)
(0.110306 0.389544 0)
(-0.00183809 -0.125138 0)
(-0.00482071 -0.139482 0)
(-0.00808391 -0.144684 0)
(-0.0114035 -0.147454 0)
(-0.0147386 -0.149088 0)
(-0.0180381 -0.15 0)
(-0.0212776 -0.15037 0)
(-0.0244366 -0.150286 0)
(-0.0274955 -0.1498 0)
(-0.0304354 -0.148944 0)
(-0.0332384 -0.147738 0)
(-0.0358876 -0.146196 0)
(-0.0383673 -0.144327 0)
(-0.0406622 -0.142137 0)
(-0.0427582 -0.139629 0)
(-0.0446414 -0.136803 0)
(-0.0462984 -0.133655 0)
(-0.0477158 -0.130179 0)
(-0.0488801 -0.126365 0)
(-0.0497773 -0.122199 0)
(-0.0503927 -0.11766 0)
(-0.0507108 -0.112723 0)
(-0.0507141 -0.107354 0)
(-0.0503837 -0.101511 0)
(-0.0496979 -0.0951421 0)
(-0.0486322 -0.0881832 0)
(-0.0471583 -0.0805556 0)
(-0.0452439 -0.0721645 0)
(-0.0428511 -0.062896 0)
(-0.0399363 -0.0526149 0)
(-0.0364487 -0.0411629 0)
(-0.0323296 -0.0283571 0)
(-0.0275116 -0.0139899 0)
(-0.0219176 0.00216939 0)
(-0.0154598 0.0203718 0)
(-0.00803866 0.0408842 0)
(0.000457683 0.0639778 0)
(0.0101531 0.0899141 0)
(0.0211815 0.118928 0)
(0.0336872 0.15121 0)
(0.0478238 0.18688 0)
(0.063753 0.225973 0)
(0.0816456 0.268419 0)
(0.101681 0.314032 0)
(0.124045 0.3625 0)
(-0.0017522 -0.121499 0)
(-0.00458267 -0.135611 0)
(-0.00769058 -0.140756 0)
(-0.0108546 -0.14352 0)
(-0.0140367 -0.14518 0)
(-0.0171883 -0.146147 0)
(-0.0202857 -0.146596 0)
(-0.0233094 -0.146617 0)
(-0.0262401 -0.146258 0)
(-0.0290593 -0.145551 0)
(-0.0317497 -0.144515 0)
(-0.0342945 -0.143163 0)
(-0.0366781 -0.141503 0)
(-0.0388856 -0.139539 0)
(-0.0409026 -0.137274 0)
(-0.0427154 -0.134707 0)
(-0.0443102 -0.131835 0)
(-0.0456736 -0.128651 0)
(-0.0467916 -0.125147 0)
(-0.04765 -0.121307 0)
(-0.0482333 -0.117114 0)
(-0.0485253 -0.112542 0)
(-0.0485077 -0.107562 0)
(-0.0481603 -0.102133 0)
(-0.0474601 -0.0962067 0)
(-0.0463806 -0.0897236 0)
(-0.0448915 -0.0826101 0)
(-0.0429573 -0.0747774 0)
(-0.0405369 -0.066119 0)
(-0.037582 -0.0565084 0)
(-0.0340363 -0.045797 0)
(-0.0298342 -0.0338131 0)
(-0.0248999 -0.0203612 0)
(-0.0191459 -0.00522382 0)
(-0.0124726 0.0118356 0)
(-0.00476675 0.031068 0)
(0.00409926 0.0527293 0)
(0.0142665 0.077067 0)
(0.0258875 0.104303 0)
(0.0391258 0.134614 0)
(0.0541542 0.168112 0)
(0.0711523 0.204822 0)
(0.0903055 0.244664 0)
(0.111806 0.287445 0)
(0.135849 0.332843 0)
(-0.00167131 -0.118007 0)
(-0.00435522 -0.131896 0)
(-0.00731166 -0.136983 0)
(-0.0103219 -0.139738 0)
(-0.0133507 -0.141421 0)
(-0.0163519 -0.142437 0)
(-0.0193034 -0.14296 0)
(-0.0221863 -0.143078 0)
(-0.0249822 -0.14284 0)
(-0.0276734 -0.142275 0)
(-0.0302429 -0.141401 0)
(-0.0326748 -0.14023 0)
(-0.0349536 -0.13877 0)
(-0.0370648 -0.137023 0)
(-0.0389941 -0.134993 0)
(-0.040728 -0.132678 0)
(-0.0422528 -0.130074 0)
(-0.0435549 -0.127176 0)
(-0.0446202 -0.123973 0)
(-0.045434 -0.120454 0)
(-0.0459807 -0.116601 0)
(-0.0462432 -0.112391 0)
(-0.0462029 -0.107796 0)
(-0.0458385 -0.10278 0)
(-0.0451258 -0.0972973 0)
(-0.0440373 -0.0912932 0)
(-0.0425406 -0.0847 0)
(-0.0405982 -0.077436 0)
(-0.0381662 -0.0694028 0)
(-0.0351929 -0.0604837 0)
(-0.0316177 -0.0505413 0)
(-0.0273696 -0.0394168 0)
(-0.022366 -0.026929 0)
(-0.0165111 -0.0128758 0)
(-0.00969567 0.00296287 0)
(-0.00179486 0.0208198 0)
(0.0073318 0.0409336 0)
(0.0178398 0.0635354 0)
(0.0298978 0.0888327 0)
(0.0436863 0.11699 0)
(0.0593946 0.148109 0)
(0.0772181 0.182206 0)
(0.0973549 0.2192 0)
(0.120007 0.25889 0)
(0.145377 0.300955 0)
(-0.00159546 -0.114657 0)
(-0.0041395 -0.128331 0)
(-0.00694956 -0.133364 0)
(-0.00980931 -0.13611 0)
(-0.012686 -0.137814 0)
(-0.0155365 -0.138876 0)
(-0.01834 -0.139468 0)
(-0.0210787 -0.139679 0)
(-0.0237354 -0.139555 0)
(-0.0262933 -0.139124 0)
(-0.0287363 -0.138405 0)
(-0.0310489 -0.137408 0)
(-0.0332166 -0.136139 0)
(-0.0352251 -0.134602 0)
(-0.0370607 -0.132798 0)
(-0.03871 -0.130725 0)
(-0.0401595 -0.128381 0)
(-0.0413957 -0.125759 0)
(-0.0424044 -0.122851 0)
(-0.0431708 -0.119645 0)
(-0.043679 -0.116125 0)
(-0.0439117 -0.112271 0)
(-0.0438497 -0.108057 0)
(-0.043471 -0.103449 0)
(-0.042751 -0.0984081 0)
(-0.0416609 -0.0928828 0)
(-0.0401674 -0.0868121 0)
(-0.0382314 -0.0801219 0)
(-0.035807 -0.0727228 0)
(-0.0328403 -0.0645087 0)
(-0.0292676 -0.0553547 0)
(-0.0250141 -0.0451162 0)
(-0.0199924 -0.0336279 0)
(-0.0141009 -0.0207053 0)
(-0.00722276 -0.00614683 0)
(0.000775459 0.0102609 0)
(0.0100442 0.0287364 0)
(0.0207501 0.0494928 0)
(0.0330749 0.0727215 0)
(0.047213 0.098574 0)
(0.0633675 0.127142 0)
(0.0817473 0.158439 0)
(0.102561 0.192378 0)
(0.126018 0.228763 0)
(0.152328 0.267276 0)
(-0.00152446 -0.111442 0)
(-0.00393597 -0.124913 0)
(-0.00660561 -0.129895 0)
(-0.00931913 -0.132635 0)
(-0.0120464 -0.13436 0)
(-0.0147471 -0.135467 0)
(-0.017402 -0.136126 0)
(-0.0199949 -0.136425 0)
(-0.0225098 -0.13641 0)
(-0.0249309 -0.136108 0)
(-0.0272434 -0.135537 0)
(-0.0294327 -0.134706 0)
(-0.031485 -0.13362 0)
(-0.0333867 -0.132283 0)
(-0.0351247 -0.130696 0)
(-0.036686 -0.128857 0)
(-0.0380573 -0.126762 0)
(-0.0392253 -0.124408 0)
(-0.040176 -0.121785 0)
(-0.0408945 -0.118883 0)
(-0.041365 -0.115688 0)
(-0.0415699 -0.112181 0)
(-0.0414896 -0.10834 0)
(-0.0411022 -0.104135 0)
(-0.0403823 -0.0995301 0)
(-0.0393007 -0.0944797 0)
(-0.0378234 -0.0889294 0)
(-0.0359107 -0.0828128 0)
(-0.0335156 -0.0760503 0)
(-0.0305828 -0.0685469 0)
(-0.0270471 -0.0601911 0)
(-0.0228315 -0.0508534 0)
(-0.0178459 -0.0403859 0)
(-0.011985 -0.028623 0)
(-0.00512757 -0.0153836 0)
(0.00286544 -0.000475271 0)
(0.0121512 0.0162991 0)
(0.0229039 0.0351322 0)
(0.0353146 0.0561978 0)
(0.0495879 0.0796336 0)
(0.0659378 0.105522 0)
(0.0845832 0.133872 0)
(0.105741 0.1646 0)
(0.129628 0.197514 0)
(0.156456 0.232306 0)
(-0.00145797 -0.108354 0)
(-0.00374456 -0.121633 0)
(-0.00628011 -0.126573 0)
(-0.00885231 -0.129311 0)
(-0.0114335 -0.13106 0)
(-0.0139863 -0.132212 0)
(-0.0164933 -0.132938 0)
(-0.0189399 -0.133322 0)
(-0.0213116 -0.133412 0)
(-0.0235941 -0.133233 0)
(-0.0257739 -0.132803 0)
(-0.0278374 -0.132129 0)
(-0.0297719 -0.131218 0)
(-0.0315646 -0.130072 0)
(-0.033203 -0.128692 0)
(-0.0346747 -0.127076 0)
(-0.0359669 -0.125221 0)
(-0.0370666 -0.123123 0)
(-0.03796 -0.120774 0)
(-0.0386324 -0.118166 0)
(-0.0390679 -0.115285 0)
(-0.039249 -0.112117 0)
(-0.0391562 -0.10864 0)
(-0.0387673 -0.104828 0)
(-0.0380569 -0.100651 0)
(-0.0369958 -0.096068 0)
(-0.03555 -0.0910315 0)
(-0.0336793 -0.0854832 0)
(-0.0313368 -0.0793532 0)
(-0.0284669 -0.0725584 0)
(-0.025004 -0.0650007 0)
(-0.0208709 -0.0565666 0)
(-0.0159765 -0.0471263 0)
(-0.0102148 -0.0365342 0)
(-0.00346282 -0.0246307 0)
(0.00442082 -0.0112461 0)
(0.013596 0.00379434 0)
(0.024241 0.020661 0)
(0.0365517 0.0395086 0)
(0.0507386 0.0604596 0)
(0.0670225 0.0835873 0)
(0.0856293 0.108897 0)
(0.106782 0.136308 0)
(0.130701 0.16564 0)
(0.157598 0.196601 0)
(-0.00139561 -0.105387 0)
(-0.00356481 -0.118488 0)
(-0.00597251 -0.123392 0)
(-0.00840842 -0.126136 0)
(-0.0108472 -0.127913 0)
(-0.0132545 -0.129113 0)
(-0.0156149 -0.129904 0)
(-0.0179157 -0.130373 0)
(-0.0201441 -0.130564 0)
(-0.0222874 -0.130504 0)
(-0.0243335 -0.130207 0)
(-0.0262702 -0.129684 0)
(-0.0280859 -0.128938 0)
(-0.0297689 -0.127973 0)
(-0.0313074 -0.126789 0)
(-0.0326897 -0.125385 0)
(-0.0339037 -0.123758 0)
(-0.0349366 -0.121904 0)
(-0.0357751 -0.119818 0)
(-0.0364047 -0.117491 0)
(-0.0368097 -0.114914 0)
(-0.0369728 -0.112071 0)
(-0.0368746 -0.108946 0)
(-0.0364932 -0.105517 0)
(-0.0358035 -0.101756 0)
(-0.0347764 -0.0976292 0)
(-0.0333783 -0.0930956 0)
(-0.0315696 -0.088105 0)
(-0.029304 -0.0825972 0)
(-0.0265267 -0.0765007 0)
(-0.023173 -0.0697314 0)
(-0.0191668 -0.0621917 0)
(-0.0144185 -0.0537701 0)
(-0.00882343 -0.0443413 0)
(-0.00225987 -0.0337684 0)
(0.00541221 -0.0219048 0)
(0.0143517 -0.00859972 0)
(0.0247367 0.00629447 0)
(0.0367632 0.0229113 0)
(0.0506429 0.0413573 0)
(0.0665987 0.0616951 0)
(0.0848595 0.0839269 0)
(0.105651 0.107977 0)
(0.129194 0.133679 0)
(0.155702 0.160759 0)
(-0.00133713 -0.102533 0)
(-0.0033959 -0.115469 0)
(-0.00568144 -0.12035 0)
(-0.00798577 -0.123107 0)
(-0.0102858 -0.124918 0)
(-0.0125502 -0.126169 0)
(-0.0147658 -0.127029 0)
(-0.0169218 -0.12758 0)
(-0.0190074 -0.12787 0)
(-0.0210118 -0.127922 0)
(-0.0229244 -0.127754 0)
(-0.0247345 -0.127372 0)
(-0.0264318 -0.126783 0)
(-0.0280056 -0.125988 0)
(-0.0294452 -0.124989 0)
(-0.0307397 -0.123784 0)
(-0.0318775 -0.122372 0)
(-0.0328465 -0.12075 0)
(-0.0336338 -0.118913 0)
(-0.0342252 -0.116854 0)
(-0.0346055 -0.114565 0)
(-0.0347577 -0.112035 0)
(-0.0346626 -0.109248 0)
(-0.0342989 -0.106187 0)
(-0.0336419 -0.102828 0)
(-0.0326632 -0.099143 0)
(-0.0313301 -0.0950972 0)
(-0.0296039 -0.0906485 0)
(-0.0274398 -0.0857462 0)
(-0.0247846 -0.0803303 0)
(-0.0215758 -0.0743302 0)
(-0.0177398 -0.0676639 0)
(-0.0131903 -0.060238 0)
(-0.00782601 -0.0519477 0)
(-0.0015296 -0.0426781 0)
(0.00583447 -0.0323064 0)
(0.0144204 -0.0207061 0)
(0.0244012 -0.00775348 0)
(0.0359688 0.00666364 0)
(0.0493309 0.0226338 0)
(0.0647074 0.0402085 0)
(0.082325 0.0593859 0)
(0.102408 0.080096 0)
(0.125175 0.102185 0)
(0.150838 0.125406 0)
(-0.00128234 -0.0997876 0)
(-0.0032366 -0.112572 0)
(-0.00540468 -0.117441 0)
(-0.00758135 -0.120222 0)
(-0.00974574 -0.122074 0)
(-0.0118697 -0.123382 0)
(-0.0139423 -0.124311 0)
(-0.0159551 -0.124946 0)
(-0.0178991 -0.125331 0)
(-0.0197656 -0.125492 0)
(-0.0215457 -0.125444 0)
(-0.0232303 -0.125196 0)
(-0.0248105 -0.124753 0)
(-0.0262768 -0.124118 0)
(-0.0276196 -0.123291 0)
(-0.0288288 -0.122273 0)
(-0.0298937 -0.121062 0)
(-0.0308027 -0.119657 0)
(-0.0315434 -0.118054 0)
(-0.0321023 -0.116248 0)
(-0.0324646 -0.114232 0)
(-0.0326137 -0.111998 0)
(-0.0325311 -0.109533 0)
(-0.0321959 -0.106823 0)
(-0.0315842 -0.103849 0)
(-0.0306688 -0.100588 0)
(-0.0294179 -0.0970105 0)
(-0.0277948 -0.0930829 0)
(-0.0257562 -0.0887636 0)
(-0.0232516 -0.0840033 0)
(-0.0202218 -0.0787442 0)
(-0.0165969 -0.0729197 0)
(-0.0122952 -0.0664533 0)
(-0.00722106 -0.05926 0)
(-0.00126368 -0.0512464 0)
(0.00570495 -0.0423128 0)
(0.0138307 -0.0323569 0)
(0.023278 -0.0212786 0)
(0.0342291 -0.00898817 0)
(0.0468831 0.0045847 0)
(0.0614513 0.0194786 0)
(0.0781529 0.0356871 0)
(0.097206 0.0531442 0)
(0.118825 0.0717117 0)
(0.143214 0.0911663 0)
(-0.00123098 -0.0971441 0)
(-0.00308506 -0.109793 0)
(-0.00513891 -0.114665 0)
(-0.00719069 -0.117479 0)
(-0.00922182 -0.119382 0)
(-0.0112074 -0.120751 0)
(-0.0131389 -0.121753 0)
(-0.0150101 -0.12247 0)
(-0.0168142 -0.122949 0)
(-0.0185445 -0.123213 0)
(-0.0201939 -0.12328 0)
(-0.021755 -0.123156 0)
(-0.0232202 -0.122849 0)
(-0.0245815 -0.122361 0)
(-0.0258304 -0.121693 0)
(-0.0269577 -0.120848 0)
(-0.0279535 -0.119823 0)
(-0.0288071 -0.11862 0)
(-0.0295067 -0.117235 0)
(-0.0300393 -0.115665 0)
(-0.0303907 -0.113905 0)
(-0.030545 -0.111949 0)
(-0.0304844 -0.109788 0)
(-0.0301887 -0.10741 0)
(-0.0296351 -0.1048 0)
(-0.0287976 -0.101941 0)
(-0.0276459 -0.0988092 0)
(-0.0261454 -0.0953775 0)
(-0.0242553 -0.091613 0)
(-0.0219283 -0.0874767 0)
(-0.019109 -0.0829229 0)
(-0.0157324 -0.0778986 0)
(-0.0117227 -0.0723439 0)
(-0.00699154 -0.0661917 0)
(-0.00143633 -0.0593689 0)
(0.00506102 -0.0517979 0)
(0.0126352 -0.0433992 0)
(0.0214382 -0.034096 0)
(0.0316391 -0.0238203 0)
(0.0434228 -0.0125207 0)
(0.0569871 -0.000172411 0)
(0.0725386 0.013212 0)
(0.0902838 0.0275693 0)
(0.110427 0.0427752 0)
(0.133163 0.0586312 0)
(-0.00118227 -0.0945988 0)
(-0.00293838 -0.107131 0)
(-0.00487936 -0.112019 0)
(-0.00680764 -0.11488 0)
(-0.00870698 -0.116841 0)
(-0.0105557 -0.118278 0)
(-0.0123479 -0.119355 0)
(-0.0140795 -0.120155 0)
(-0.015746 -0.120724 0)
(-0.0173424 -0.121087 0)
(-0.0188636 -0.12126 0)
(-0.0203038 -0.121252 0)
(-0.021657 -0.121069 0)
(-0.0229165 -0.120716 0)
(-0.0240749 -0.120194 0)
(-0.0251242 -0.119505 0)
(-0.0260554 -0.118652 0)
(-0.0268585 -0.117633 0)
(-0.0275225 -0.116448 0)
(-0.0280353 -0.115096 0)
(-0.0283831 -0.113573 0)
(-0.0285508 -0.111876 0)
(-0.0285215 -0.109998 0)
(-0.0282759 -0.10793 0)
(-0.0277926 -0.105663 0)
(-0.0270467 -0.103181 0)
(-0.0260102 -0.100468 0)
(-0.0246505 -0.0975024 0)
(-0.0229299 -0.0942598 0)
(-0.0208048 -0.0907102 0)
(-0.0182242 -0.0868186 0)
(-0.0151288 -0.082545 0)
(-0.0114496 -0.0778438 0)
(-0.00710622 -0.0726647 0)
(-0.00200611 -0.0669529 0)
(0.00395735 -0.060651 0)
(0.0109056 -0.0537007 0)
(0.0189757 -0.0460467 0)
(0.0283201 -0.0376416 0)
(0.039106 -0.0284524 0)
(0.0515129 -0.0184684 0)
(0.0657291 -0.00771002 0)
(0.081945 0.00376066 0)
(0.10035 0.0158309 0)
(0.121123 0.0283252 0)
(-0.00113434 -0.0921505 0)
(-0.00279207 -0.104587 0)
(-0.00461949 -0.109507 0)
(-0.00642425 -0.112426 0)
(-0.00819249 -0.114454 0)
(-0.00990582 -0.115963 0)
(-0.0115606 -0.117118 0)
(-0.013155 -0.118 0)
(-0.0146864 -0.118656 0)
(-0.0161519 -0.119112 0)
(-0.017548 -0.119384 0)
(-0.0188707 -0.119482 0)
(-0.0201153 -0.119412 0)
(-0.0212767 -0.11918 0)
(-0.0223487 -0.118789 0)
(-0.0233242 -0.118242 0)
(-0.0241954 -0.117542 0)
(-0.024953 -0.11669 0)
(-0.0255871 -0.115687 0)
(-0.026086 -0.114533 0)
(-0.0264371 -0.113227 0)
(-0.0266259 -0.111767 0)