/*--------------------------------*- C++ -*----------------------------------*\
| =========                 |                                                 |
| \\      /  F ield         | OpenFOAM: The Open Source CFD Toolbox           |
|  \\    /   O peration     | Version:  5.0                                   |
|   \\  /    A nd           | Web:      www.OpenFOAM.org                      |
|    \\/     M anipulation  |                                                 |
\*---------------------------------------------------------------------------*/
FoamFile
{
    version     2.0;
    format      ascii;
    class       volScalarField;
    location    "0.85";
    object      alpha.water;
}
// * * * * * * * * * * * * * * * * * * * * * * * * * * * * * * * * * * * * * //

dimensions      [0 0 0 0 0 0 0];

internalField   nonuniform List<scalar> 
1915
(
-4.28518e-18
-7.52183e-18
-1.39463e-17
-2.75337e-17
-5.77614e-17
-1.27552e-16
-2.92423e-16
-6.86542e-16
-1.63534e-15
-3.9368e-15
-9.59679e-15
-2.38783e-14
-6.12562e-14
-1.62583e-13
-4.41859e-13
-1.20254e-12
-3.1946e-12
-8.10331e-12
-1.92929e-11
-4.24201e-11
-8.4302e-11
-1.4726e-10
-2.20279e-10
-2.76885e-10
-2.88841e-10
-1.166e-26
-5.58465e-26
-2.82958e-25
-1.21462e-24
-4.41623e-24
-1.37276e-23
-3.7642e-23
-9.57157e-23
-2.37794e-22
-5.9419e-22
-1.4823e-21
-3.58458e-21
-8.15914e-21
-1.71616e-20
-3.32115e-20
-5.99828e-20
-1.0208e-19
-1.65932e-19
-2.62629e-19
-4.14598e-19
-6.71622e-19
-1.14912e-18
-2.1273e-18
-4.31056e-18
-9.52027e-18
-2.25669e-17
-5.62366e-17
-1.44378e-16
-3.76314e-16
-9.87237e-16
-2.59823e-15
-6.88019e-15
-1.84836e-14
-5.07696e-14
-1.42389e-13
-4.02022e-13
-1.11739e-12
-2.98848e-12
-7.54754e-12
-1.77126e-11
-3.7936e-11
-7.24808e-11
-1.20733e-10
-1.72303e-10
-2.08496e-10
-2.45601e-27
-1.18461e-26
-6.05389e-26
-2.59409e-25
-9.29137e-25
-2.82325e-24
-7.56288e-24
-1.8901e-23
-4.66012e-23
-1.1635e-22
-2.89896e-22
-6.95842e-22
-1.55896e-21
-3.20067e-21
-5.98659e-21
-1.02204e-20
-1.63066e-20
-2.48059e-20
-3.66942e-20
-5.43081e-20
-8.33322e-20
-1.37797e-19
-2.53959e-19
-5.30603e-19
-1.24802e-18
-3.22517e-18
-8.88532e-18
-2.53724e-17
-7.35928e-17
-2.14114e-16
-6.20154e-16
-1.78504e-15
-5.13125e-15
-1.48551e-14
-4.3507e-14
-1.28122e-13
-3.73106e-13
-1.05205e-12
-2.81689e-12
-7.0453e-12
-1.61976e-11
-3.35915e-11
-6.15999e-11
-9.82666e-11
-1.3501e-10
-4.37016e-28
-2.11502e-27
-1.08633e-26
-4.62393e-26
-1.62341e-25
-4.79146e-25
-1.2423e-24
-3.01336e-24
-7.27884e-24
-1.80026e-23
-4.46878e-23
-1.06711e-22
-2.36296e-22
-4.75444e-22
-8.64635e-22
-1.42415e-21
-2.13272e-21
-2.98427e-21
-4.06453e-21
-5.55394e-21
-7.95147e-21
-1.25694e-20
-2.30029e-20
-4.99324e-20
-1.27107e-19
-3.6544e-19
-1.13641e-18
-3.68117e-18
-1.21027e-17
-3.97562e-17
-1.29075e-16
-4.11834e-16
-1.29308e-15
-4.02379e-15
-1.25003e-14
-3.87786e-14
-1.18923e-13
-3.54348e-13
-1.007e-12
-2.68486e-12
-6.61634e-12
-1.48314e-11
-2.97315e-11
-5.25059e-11
-8.0887e-11
-6.30217e-29
-3.04798e-28
-1.56733e-27
-6.59373e-27
-2.25454e-26
-6.39805e-26
-1.57769e-25
-3.62208e-25
-8.35149e-25
-2.01499e-24
-4.9839e-24
-1.19668e-23
-2.65376e-23
-5.29047e-23
-9.4314e-23
-1.50905e-22
-2.17813e-22
-2.84689e-22
-3.46682e-22
-4.26088e-22
-5.56975e-22
-8.29833e-22
-1.50788e-21
-3.45303e-21
-9.75493e-21
-3.20865e-20
-1.15635e-19
-4.35037e-19
-1.6555e-18
-6.25955e-18
-2.32117e-17
-8.36778e-17
-2.92714e-16
-9.98662e-16
-3.34996e-15
-1.10979e-14
-3.61603e-14
-1.1446e-13
-3.46366e-13
-9.86493e-13
-2.60765e-12
-6.30983e-12
-1.37772e-11
-2.67874e-11
-4.59414e-11
-6.90208e-30
-3.32117e-29
-1.70254e-28
-7.03919e-28
-2.32355e-27
-6.23272e-27
-1.41358e-26
-2.89973e-26
-5.94153e-26
-1.33174e-25
-3.28527e-25
-8.257e-25
-1.91681e-24
-3.91154e-24
-6.98683e-24
-1.10173e-23
-1.54808e-23
-1.9461e-23
-2.20364e-23
-2.31575e-23
-2.63271e-23
-3.61254e-23
-6.58308e-23
-1.64886e-22
-5.40361e-22
-2.11891e-21
-9.16254e-21
-4.12105e-20
-1.86019e-19
-8.27302e-19
-3.57524e-18
-1.48501e-17
-5.90253e-17
-2.25218e-16
-8.31406e-16
-2.98973e-15
-1.04786e-14
-3.5537e-14
-1.15177e-13
-3.51881e-13
-1.00055e-12
-2.61647e-12
-6.21846e-12
-1.32825e-11
-2.5273e-11
-5.10155e-31
-2.43053e-30
-1.23654e-29
-4.99154e-29
-1.57122e-28
-3.87518e-28
-7.55788e-28
-1.17429e-27
-1.48782e-27
-1.63563e-27
-2.91152e-27
-1.48507e-26
-5.44186e-26
-1.37211e-25
-2.70577e-25
-4.42059e-25
-6.2473e-25
-7.68811e-25
-8.32813e-25
-8.0767e-25
-7.21751e-25
-8.37194e-25
-1.60084e-24
-4.8625e-24
-2.02294e-23
-1.00963e-22
-5.49595e-22
-3.0662e-21
-1.69112e-20
-9.07166e-20
-4.67274e-19
-2.28367e-18
-1.05258e-17
-4.58332e-17
-1.89919e-16
-7.54945e-16
-2.88998e-15
-1.06245e-14
-3.71995e-14
-1.22702e-13
-3.77164e-13
-1.06966e-12
-2.77282e-12
-6.51111e-12
-1.37338e-11
-1.90832e-32
-8.95758e-32
-4.50118e-31
-1.76148e-30
-5.21761e-30
-1.14855e-29
-1.77946e-29
-1.54823e-29
1.96108e-30
1.81356e-28
1.02615e-27
2.01738e-27
2.24581e-27
1.53146e-27
-5.40111e-28
-3.06712e-27
-6.39606e-27
-9.20454e-27
-9.95522e-27
-9.01516e-27
-7.16324e-27
-5.12101e-27
-1.22921e-26
-6.99765e-26
-4.58586e-25
-3.26201e-24
-2.39811e-23
-1.7434e-22
-1.21958e-21
-8.13265e-21
-5.12404e-20
-3.01582e-19
-1.64723e-18
-8.35821e-18
-3.9679e-17
-1.778e-16
-7.56574e-16
-3.05964e-15
-1.17072e-14
-4.20669e-14
-1.40789e-13
-4.35566e-13
-1.23725e-12
-3.20439e-12
-7.49985e-12
-2.71261e-49
4.61993e-49
3.22755e-48
3.23686e-49
3.88261e-53
1.20682e-48
1.92417e-44
5.62744e-42
4.18826e-40
2.65705e-34
8.21388e-32
1.85899e-30
1.99569e-29
5.31694e-30
6.18313e-29
1.16516e-28
1.13537e-28
4.4677e-29
5.44711e-30
9.93576e-31
4.18684e-31
2.47068e-31
2.4461e-31
-2.6878e-28
-5.09958e-27
-6.43352e-26
-7.15449e-25
-7.27378e-24
-6.77999e-23
-5.83421e-22
-4.6348e-21
-3.37118e-20
-2.23275e-19
-1.34871e-18
-7.48878e-18
-3.86092e-17
-1.86257e-16
-8.4351e-16
-3.58069e-15
-1.41854e-14
-5.22013e-14
-1.77673e-13
-5.57181e-13
-1.60063e-12
-4.16431e-12
-4.86975e-50
-2.12564e-52
1.07389e-53
9.55954e-55
-1.57561e-73
2.15905e-50
4.34475e-44
1.32871e-41
9.72394e-41
8.95111e-41
7.09378e-41
1.30645e-39
6.94372e-38
1.20616e-36
1.39795e-35
1.41056e-34
4.21955e-35
1.59427e-36
1.34502e-38
1.93378e-37
4.77307e-36
1.07842e-34
2.44891e-33
5.31004e-32
-1.30187e-29
-6.04826e-28
-1.28244e-26
-2.04956e-25
-2.73328e-24
-3.18578e-23
-3.30778e-22
-3.05729e-21
-2.5111e-20
-1.84053e-19
-1.21833e-18
-7.38245e-18
-4.13946e-17
-2.15095e-16
-1.03554e-15
-4.6125e-15
-1.89647e-14
-7.20179e-14
-2.52539e-13
-8.12194e-13
-2.35573e-12
-4.94442e-51
-2.03319e-53
-8.9899e-55
-5.58503e-55
-7.63325e-57
8.98985e-58
9.42323e-52
3.92234e-46
5.41118e-44
7.20781e-43
2.35637e-42
3.04389e-42
2.02074e-42
1.19074e-42
1.29737e-42
1.53465e-42
2.98748e-42
5.8589e-41
2.52098e-39
7.12646e-38
1.83106e-36
4.25026e-35
9.00165e-34
1.77749e-32
3.34417e-31
4.75006e-30
-1.24898e-29
-1.97741e-27
-5.28339e-26
-9.73239e-25
-1.44227e-23
-1.78394e-22
-1.86018e-21
-1.67296e-20
-1.33747e-19
-9.87196e-19
-6.80284e-18
-4.31284e-17
-2.47245e-16
-1.29469e-15
-6.22913e-15
-2.74896e-14
-1.11498e-13
-4.10555e-13
-1.34007e-12
-2.47329e-52
-9.33133e-55
-3.59209e-55
-8.91576e-55
-1.06871e-56
-9.01232e-59
2.51364e-57
1.04847e-51
2.07433e-47
9.78183e-46
8.70187e-45
2.98895e-44
6.18248e-44
9.9273e-44
1.30812e-43
1.78724e-43
6.4635e-43
1.94487e-41
5.96498e-40
1.75057e-38
4.64868e-37
1.10952e-35
2.41982e-34
4.92351e-33
9.46492e-32
1.72357e-30
2.95121e-29
4.70952e-28
6.72937e-27
8.49941e-26
9.48225e-25
9.72886e-24
1.04153e-22
1.15119e-21
1.10236e-20
8.15253e-20
3.48086e-19
-1.37491e-19
-1.52595e-17
-1.38611e-16
-1.11772e-15
-7.45228e-15
-4.15734e-14
-1.92664e-13
-7.37678e-13
-1.75188e-61
-2.25828e-60
-8.5511e-60
-5.51537e-61
-5.58647e-63
4.65092e-62
7.14167e-59
1.69422e-54
3.77718e-49
3.98731e-47
5.22086e-46
2.07797e-45
4.27583e-45
6.40799e-45
8.72366e-45
1.43601e-44
1.34555e-43
4.74362e-42
1.51879e-40
4.47845e-39
1.20849e-37
2.95316e-36
6.57312e-35
1.35807e-33
2.64935e-32
4.91027e-31
8.64419e-30
1.44861e-28
2.35222e-27
3.6419e-26
5.32271e-25
7.37116e-24
9.89155e-23
1.28458e-21
1.51306e-20
1.50586e-19
1.21354e-18
7.96054e-18
4.66159e-17
2.51043e-16
1.14976e-15
3.14803e-15
-2.46133e-15
-6.18039e-14
-3.51871e-13
-3.91843e-62
-5.51883e-61
-2.46302e-60
-1.13107e-60
-1.0526e-62
9.06476e-64
2.10825e-60
3.73305e-56
1.32746e-50
2.00569e-48
3.10851e-47
1.33921e-46
2.81877e-46
4.23445e-46
5.97875e-46
1.45051e-45
3.41568e-44
1.15759e-42
3.53372e-41
1.02523e-39
2.77785e-38
6.89842e-37
1.56429e-35
3.29184e-34
6.55849e-33
1.24752e-31
2.26049e-30
3.88813e-29
6.35256e-28
9.93872e-27
1.50361e-25
2.21273e-24
3.19829e-23
4.58128e-22
6.36889e-21
7.86548e-20
8.01599e-19
6.66171e-18
4.76052e-17
3.18174e-16
1.97269e-15
9.88554e-15
3.25196e-14
4.72822e-14
-7.39003e-14
-4.14006e-63
-6.39336e-62
-3.63003e-61
-6.72836e-61
-5.54432e-63
-2.60404e-65
2.29188e-62
2.12674e-58
1.66422e-52
5.13858e-50
1.1011e-48
5.6106e-48
1.27853e-47
2.04921e-47
3.40187e-47
1.98868e-46
7.52368e-45
2.48959e-43
7.58722e-42
2.18555e-40
5.92547e-39
1.49013e-37
3.43674e-36
7.33481e-35
1.47923e-33
2.86118e-32
5.31465e-31
9.39736e-30
1.56872e-28
2.489e-27
3.85593e-26
5.93664e-25
8.95253e-24
1.30439e-22
1.86146e-21
2.5584e-20
3.20709e-19
3.55096e-18
3.45368e-17
2.86506e-16
1.96453e-15
1.10582e-14
4.93546e-14
1.57082e-13
2.67814e-13
-1.0343e-68
-6.01356e-68
-1.19243e-68
-6.02991e-71
6.43644e-70
2.15427e-67
1.93161e-64
7.45291e-61
1.39138e-54
1.17239e-51
3.5201e-50
2.11525e-49
5.21527e-49
9.09788e-49
2.01802e-48
3.42544e-47
1.42024e-45
4.76933e-44
1.46854e-42
4.21493e-41
1.14264e-39
2.90402e-38
6.81615e-37
1.47726e-35
3.00886e-34
5.8901e-33
1.12075e-31
2.04771e-30
3.49227e-29
5.52392e-28
8.49774e-27
1.37191e-25
2.30074e-24
3.60104e-23
5.08705e-22
6.93085e-21
9.35624e-20
1.24597e-18
1.6489e-17
1.93759e-16
1.702e-15
1.07196e-14
5.07292e-14
1.90727e-13
5.58954e-13
-2.3504e-69
-1.8074e-68
-2.41182e-68
-9.19357e-71
2.03257e-68
6.26946e-67
6.64167e-66
2.04153e-63
3.18026e-57
1.70937e-53
6.93886e-52
4.96129e-51
1.39368e-50
2.99967e-50
1.4342e-49
5.68031e-48
2.29241e-46
7.93557e-45
2.49648e-43
7.22872e-42
1.97169e-40
5.0739e-39
1.21407e-37
2.6747e-36
5.48519e-35
1.07966e-33
2.09998e-32
3.9978e-31
7.02707e-30
1.09528e-28
1.60333e-27
2.5839e-26
5.0506e-25
9.48758e-24
1.36605e-22
1.66059e-21
2.10349e-20
3.02688e-19
5.08999e-18
8.81344e-17
1.10833e-15
8.86789e-15
4.77654e-14
1.8913e-13
5.96067e-13
-2.42551e-70
-2.4003e-69
-7.40751e-69
4.72777e-72
6.72173e-68
5.36914e-66
7.65126e-65
1.00743e-63
1.92491e-60
9.08182e-56
5.72335e-54
5.53905e-53
2.14813e-52
8.76253e-52
1.7828e-50
8.37958e-49
3.27556e-47
1.16072e-45
3.71377e-44
1.08967e-42
3.0035e-41
7.84307e-40
1.91575e-38
4.29632e-37
8.86612e-36
1.74682e-34
3.46026e-33
6.90303e-32
1.26477e-30
1.94484e-29
2.64262e-28
4.02546e-27
9.42458e-26
2.47476e-24
4.03017e-23
4.18142e-22
3.91941e-21
4.98594e-20
9.97425e-19
2.59272e-17
4.99102e-16
5.5111e-15
3.70907e-14
1.69337e-13
5.73888e-13
-6.19783e-75
-2.16097e-74
-5.31303e-77
5.01295e-72
6.3581e-68
8.96391e-66
2.05567e-64
3.75232e-63
1.54183e-60
4.34472e-59
1.20692e-57
5.62687e-56
1.45948e-54
5.21631e-53
2.70418e-51
1.11513e-49
4.28798e-48
1.51742e-46
4.87798e-45
1.44574e-43
4.02966e-42
1.06847e-40
2.66189e-39
6.07487e-38
1.26294e-36
2.4894e-35
5.00078e-34
1.04338e-32
2.00256e-31
3.06885e-30
3.89482e-29
5.52179e-28
1.57539e-26
6.35316e-25
1.26407e-23
1.22333e-22
7.81224e-22
5.82107e-21
1.13207e-19
4.9124e-18
1.52916e-16
2.41171e-15
2.13159e-14
1.20087e-13
4.75221e-13
-1.05748e-75
-2.43029e-75
-5.18488e-78
1.08111e-75
5.58815e-69
2.97599e-66
1.37007e-64
1.2568e-63
2.02825e-61
6.65603e-60
6.22718e-59
1.31018e-57
1.06871e-55
7.16771e-54
3.36222e-52
1.3743e-50
5.21602e-49
1.80346e-47
5.75568e-46
1.70827e-44
4.79281e-43
1.28623e-41
3.25568e-40
7.54835e-39
1.58719e-37
3.14925e-36
6.40615e-35
1.3824e-33
2.7624e-32
4.27495e-31
5.23226e-30
7.04557e-29
2.41267e-27
1.36679e-25
3.22181e-24
3.19626e-23
1.71529e-22
6.56212e-22
6.33466e-21
5.41618e-19
3.20718e-17
7.33196e-16
8.57598e-15
6.12415e-14
2.97147e-13
-8.83159e-77
-2.35075e-76
-4.29352e-79
1.87488e-78
5.15379e-73
2.30706e-67
2.57618e-65
2.62086e-64
8.50372e-64
5.23203e-62
2.95635e-60
2.60078e-58
1.44539e-56
7.16427e-55
3.51883e-53
1.54202e-51
5.7559e-50
1.94628e-48
6.14888e-47
1.81792e-45
5.10369e-44
1.37681e-42
3.51759e-41
8.27045e-40
1.77202e-38
3.58797e-37
7.42579e-36
1.6294e-34
3.32972e-33
5.26129e-32
6.47629e-31
8.6033e-30
3.0888e-28
1.87272e-26
4.49511e-25
4.67041e-24
2.5471e-23
7.73471e-23
2.16917e-22
2.47398e-20
4.05332e-18
1.49228e-16
2.34482e-15
2.12495e-14
1.2767e-13
-2.84174e-79
-2.35551e-82
6.09703e-81
5.33799e-77
4.0819e-73
1.47741e-68
1.03917e-66
1.22264e-65
9.01036e-65
9.67774e-63
5.01576e-61
2.35738e-59
1.24416e-57
6.6497e-56
3.45543e-54
1.5117e-52
5.57849e-51
1.87e-49
5.88562e-48
1.74115e-46
4.8844e-45
1.31407e-43
3.36325e-42
8.01898e-41
1.76812e-39
3.71522e-38
7.90873e-37
1.74035e-35
3.54143e-34
5.70613e-33
7.30673e-32
9.84406e-31
2.89139e-29
1.46837e-27
3.22125e-26
3.17727e-25
1.75549e-24
6.74004e-24
1.12881e-23
2.3408e-22
2.13915e-19
1.69563e-17
4.03362e-16
4.82319e-15
3.59511e-14
-7.25977e-80
-4.81553e-83
3.77502e-80
8.97291e-76
1.17604e-72
9.75501e-70
7.65113e-68
9.82595e-67
7.10644e-66
5.88089e-64
3.87048e-62
2.38457e-60
1.29734e-58
6.43203e-57
3.01681e-55
1.27379e-53
4.68976e-52
1.56619e-50
4.94742e-49
1.4806e-47
4.17472e-46
1.11528e-44
2.84187e-43
6.882e-42
1.57325e-40
3.45829e-39
7.62994e-38
1.68075e-36
3.32145e-35
5.29065e-34
7.00115e-33
9.77956e-32
2.34079e-30
8.66219e-29
1.74275e-27
1.5754e-26
7.88138e-26
3.28704e-25
7.13283e-25
5.18945e-25
2.64646e-21
7.59803e-19
3.57809e-17
6.5476e-16
6.47451e-15
-8.91559e-81
-5.12792e-84
1.02992e-80
2.12077e-75
1.67162e-72
7.24886e-71
2.24623e-69
3.25531e-68
3.99677e-67
4.05599e-65
3.15494e-63
1.90058e-61
9.64836e-60
4.65406e-58
2.17945e-56
9.1774e-55
3.37267e-53
1.12926e-51
3.5964e-50
1.09535e-48
3.13332e-47
8.34506e-46
2.11133e-44
5.19681e-43
1.2363e-41
2.82436e-40
6.35888e-39
1.388e-37
2.6187e-36
3.96499e-35
5.26462e-34
7.88011e-33
1.7599e-31
4.72217e-30
7.76348e-29
6.41843e-28
2.99283e-27
1.06658e-26
2.46235e-26
4.15191e-25
1.07659e-22
1.24503e-20
1.2441e-18
4.40134e-17
6.85682e-16
-1.26662e-82
-6.17075e-86
2.21007e-82
1.55516e-75
6.63432e-73
1.31989e-71
5.78593e-71
8.82854e-71
2.28538e-68
2.20535e-66
1.82291e-64
1.1667e-62
6.22223e-61
2.95617e-59
1.29367e-57
5.28249e-56
1.98648e-54
6.83187e-53
2.19663e-51
6.78212e-50
1.98704e-48
5.34812e-47
1.34368e-45
3.35064e-44
8.40706e-43
2.00484e-41
4.39817e-40
8.82731e-39
1.50683e-37
2.138e-36
3.15663e-35
6.23402e-34
1.34167e-32
2.6276e-31
3.27335e-30
2.20873e-29
8.81063e-29
2.02185e-28
3.68777e-28
2.07071e-25
4.39288e-23
1.48172e-21
3.40616e-20
1.31286e-18
3.58203e-17
-5.47306e-83
-2.27488e-86
6.1291e-86
1.64876e-78
1.59574e-74
8.18837e-73
4.79817e-72
1.0194e-71
1.21658e-69
1.19492e-67
8.99303e-66
5.59358e-64
3.03264e-62
1.43802e-60
6.13638e-59
2.46313e-57
9.35787e-56
3.26004e-54
1.04788e-52
3.26764e-51
9.95851e-50
2.77926e-48
6.94497e-47
1.71935e-45
4.68344e-44
1.22875e-42
2.47473e-41
3.75422e-40
4.77406e-39
6.89903e-38
2.5221e-36
8.95593e-35
1.40035e-33
1.45575e-32
1.06461e-31
4.67044e-31
1.39611e-30
2.56721e-30
3.78239e-30
1.59896e-26
9.54146e-24
3.57581e-22
5.81041e-21
7.37164e-20
1.21762e-18
-8.90096e-84
-3.32894e-87
9.2501e-86
2.2501e-79
3.92718e-77
4.19595e-76
6.13113e-76
4.30962e-73
4.53129e-71
4.66691e-69
3.79318e-67
2.31936e-65
1.17686e-63
5.32135e-62
2.28231e-60
9.30273e-59
3.46896e-57
1.16643e-55
3.68628e-54
1.17069e-52
3.80411e-51
1.16427e-49
3.05268e-48
7.17607e-47
1.94484e-45
5.50712e-44
9.2043e-43
8.59868e-42
7.03616e-41
2.9007e-39
3.99245e-37
1.36037e-35
1.18951e-34
4.40717e-34
1.00508e-33
1.73733e-33
2.32092e-33
3.30214e-33
2.45403e-32
2.17057e-28
8.70659e-25
5.31724e-23
1.06437e-21
1.25573e-20
1.27125e-19
-3.50036e-93
-8.55256e-95
1.23304e-86
3.72737e-80
8.08051e-78
1.119e-76
3.76154e-76
1.8706e-74
1.7221e-72
1.53721e-70
1.16705e-68
6.87141e-67
3.40572e-65
1.49783e-63
6.26328e-62
2.48695e-60
8.92579e-59
2.94754e-57
9.96253e-56
3.62897e-54
1.27598e-52
4.17248e-51
1.34076e-49
3.12219e-48
4.75628e-47
5.8866e-46
6.55342e-45
6.83146e-44
1.13955e-42
4.70735e-40
2.61028e-38
3.03234e-37
1.23369e-36
2.50916e-36
3.52391e-36
2.64681e-36
3.0716e-36
3.36992e-35
3.2743e-33
4.24054e-30
8.17611e-26
5.98741e-24
1.37722e-22
1.78675e-21
1.78105e-20
-5.12156e-92
-3.03385e-95
1.69617e-86
2.91546e-81
2.09579e-79
1.23488e-78
1.75531e-78
6.8643e-76
5.93449e-74
3.88364e-72
2.29707e-70
1.21228e-68
6.01948e-67
2.84398e-65
1.2571e-63
4.9185e-62
1.64693e-60
5.37044e-59
2.31154e-57
1.40092e-55
6.39638e-54
1.35657e-52
1.66944e-51
1.85702e-50
2.75573e-49
5.51745e-48
1.07583e-46
2.15961e-45
8.5737e-44
7.61881e-42
3.03149e-40
3.43855e-39
1.33769e-38
2.52119e-38
3.24836e-38
3.72224e-38
6.4445e-38
2.3837e-36
2.07615e-34
2.08949e-31
5.9937e-27
6.0046e-25
1.5756e-23
2.19516e-22
2.18665e-21
-3.62375e-91
-1.74334e-94
1.68023e-92
2.18976e-90
3.88079e-89
2.52108e-82
1.27069e-79
9.68972e-78
7.23712e-76
4.88646e-74
2.94931e-72
1.6323e-70
8.60649e-69
4.29367e-67
1.77589e-65
5.78737e-64
2.04789e-62
1.50884e-60
1.14572e-58
3.48144e-57
5.28251e-56
6.1306e-55
8.16365e-54
1.50764e-52
3.158e-51
6.71993e-50
3.48251e-48
2.17057e-46
1.30145e-44
5.35515e-43
5.02044e-42
1.53468e-41
2.28522e-41
2.40698e-41
2.17503e-41
3.31608e-41
7.74349e-40
6.11371e-38
4.60962e-36
5.77481e-33
3.28685e-28
5.07811e-26
1.56523e-24
2.38704e-23
2.45149e-22
-1.67802e-91
-1.02501e-94
6.51672e-92
2.25987e-89
2.02769e-88
9.10535e-84
9.60741e-82
8.4861e-80
6.59871e-78
4.53966e-76
2.83106e-74
1.67082e-72
8.97494e-71
3.84758e-69
1.38393e-67
6.59938e-66
6.35626e-64
3.76824e-62
9.51222e-61
1.3865e-59
1.74887e-58
3.04592e-57
8.34041e-56
1.91771e-54
3.15663e-53
9.84656e-52
9.07661e-49
5.50584e-47
3.9879e-46
1.07512e-45
1.46112e-45
1.03771e-45
8.14147e-47
1.89647e-46
8.24629e-45
2.28384e-43
3.55012e-42
4.4878e-40
6.59738e-38
4.14845e-35
1.17736e-29
3.51202e-27
1.30457e-25
2.24237e-24
2.47811e-23
-5.0171e-92
-4.61091e-95
5.61019e-92
3.53832e-89
6.66281e-88
5.20954e-86
5.6155e-84
5.05193e-82
3.98447e-80
2.88106e-78
1.92714e-76
1.08207e-74
4.87855e-73
2.20513e-71
1.56575e-69
1.34331e-67
6.52998e-66
1.57599e-64
2.38644e-63
3.60198e-62
9.43473e-61
2.94156e-59
4.8438e-58
4.27285e-57
2.75676e-54
3.77879e-52
3.92249e-51
1.2924e-50
1.78202e-50
1.12144e-50
1.72277e-52
4.53576e-52
7.93956e-50
8.60097e-48
1.93017e-46
1.9814e-45
2.81253e-43
2.29057e-41
1.69016e-39
6.62387e-37
1.79995e-31
1.98743e-28
9.18268e-27
1.80832e-25
2.17878e-24
-7.46382e-93
-5.65717e-95
1.58298e-92
1.62527e-89
1.92014e-88
1.7252e-88
1.99932e-86
1.85627e-84
1.53839e-82
1.13215e-80
7.11432e-79
3.81713e-77
2.0709e-75
1.78994e-73
1.66506e-71
6.8401e-70
1.36814e-68
2.13186e-67
4.85205e-66
2.02147e-64
5.421e-63
7.18678e-62
1.16931e-60
5.49968e-58
2.36186e-56
1.67336e-55
3.54698e-55
3.92622e-55
1.60823e-55
2.30343e-56
1.88064e-55
2.80996e-53
1.23789e-51
3.00296e-50
2.19027e-48
1.17452e-46
1.34659e-45
5.23087e-43
2.53621e-40
8.33176e-38
5.01611e-34
8.63397e-30
5.3571e-28
1.25133e-26
1.66208e-25
-1.36847e-95
-1.95217e-94
-4.72021e-94
-8.09861e-97
1.80642e-97
3.28791e-91
3.72501e-89
3.6363e-87
2.98002e-85
2.14472e-83
1.48146e-81
1.08299e-79
1.03657e-77
7.89783e-76
2.83237e-74
6.06739e-73
1.21757e-71
3.7348e-70
1.72579e-68
4.70652e-67
6.94822e-66
2.61266e-64
6.38494e-62
1.45974e-60
6.11449e-60
8.88568e-60
5.57925e-60
6.30543e-63
1.85064e-61
6.08523e-59
5.08914e-57
1.04809e-55
1.04484e-54
1.06617e-53
2.07606e-52
7.64277e-50
3.03488e-47
1.15217e-44
4.07197e-42
1.20578e-39
2.22529e-36
2.57219e-31
2.45932e-29
7.1819e-28
1.07716e-26
-1.91803e-96
-3.10447e-95
-8.92597e-95
-1.32473e-97
-2.02179e-101
3.00269e-94
3.16116e-92
2.67008e-90
3.00834e-88
2.83096e-86
1.9024e-84
2.10428e-82
1.35803e-80
4.82132e-79
1.26693e-77
3.30649e-76
1.29072e-74
7.64618e-73
2.40018e-71
3.61779e-70
7.67162e-69
1.69991e-66
5.12442e-65
2.57968e-64
4.07139e-64
2.87452e-64
1.97253e-68
3.52145e-64
2.29237e-62
1.50155e-61
2.68247e-61
3.02307e-61
3.59135e-61
1.97721e-59
1.17042e-56
6.57735e-54
3.60288e-51
1.95588e-48
1.01948e-45
4.46679e-43
2.86932e-38
4.23633e-33
8.32322e-31
3.23593e-29
5.65367e-28
-2.42355e-99
-5.50759e-98
-2.14235e-97
-1.7669e-100
-8.23682e-104
2.88875e-98
1.33193e-95
1.08871e-93
5.78653e-92
1.09482e-89
1.60771e-87
7.12368e-86
1.77425e-84
6.54285e-83
3.35403e-81
2.00156e-79
1.34786e-77
4.51718e-76
7.26426e-75
1.22914e-73
2.1021e-71
9.4436e-70
6.49649e-69
1.18865e-68
9.64429e-69
1.50428e-71
1.49021e-68
3.09947e-67
9.76619e-67
9.05988e-67
3.27053e-65
5.61393e-64
9.72823e-64
2.15771e-61
1.10335e-58
5.67901e-56
3.03309e-53
1.6815e-50
9.62355e-48
6.88526e-45
6.88924e-42
1.02042e-35
1.94047e-32
1.08366e-30
2.27633e-29
-3.54681e-106
-8.21637e-105
-1.97911e-104
-1.1292e-105
1.18539e-105
1.56188e-101
1.11723e-99
4.18959e-98
1.2542e-96
8.70546e-95
1.98309e-92
1.63285e-90
1.39005e-88
7.95495e-87
5.58098e-85
5.11535e-83
1.87949e-81
3.27381e-80
6.28535e-79
1.20607e-76
7.49196e-75
6.4689e-74
1.30691e-73
1.12406e-73
4.04158e-83
5.39535e-89
9.7367e-85
3.88678e-77
7.32146e-72
1.4021e-69
1.72552e-68
2.49021e-68
3.97068e-66
2.35193e-63
1.40946e-60
8.62438e-58
5.50429e-55
3.71129e-52
2.68139e-49
2.12885e-46
2.04373e-43
7.77322e-40
2.62002e-34
2.46652e-32
6.68028e-31
-6.79947e-107
-1.30172e-105
-3.58988e-105
-1.56347e-105
1.00929e-112
6.70733e-107
5.64698e-105
7.46332e-103
6.23358e-101
6.28168e-99
4.61324e-97
4.36992e-95
3.55926e-93
2.34847e-91
1.44421e-89
5.40795e-88
1.69298e-86
8.21059e-85
1.12015e-82
1.03223e-80
1.4429e-79
3.92826e-79
3.95692e-79
1.47635e-97
2.7095e-94
3.34247e-91
3.87042e-88
4.1995e-85
4.29355e-82
4.16233e-79
3.85487e-76
3.44018e-73
2.98723e-70
2.5514e-67
2.16956e-64
1.86199e-61
1.63821e-58
1.50466e-55
1.4743e-52
1.58252e-49
1.92503e-46
2.24464e-42
1.21555e-36
3.06252e-34
1.37703e-32
-3.09399e-111
-3.92561e-110
-2.0599e-109
-5.503e-109
8.3642e-119
5.54794e-113
1.1442e-110
9.63116e-109
8.03149e-107
8.75141e-105
8.079e-103
1.15936e-100
9.82297e-99
4.08733e-97
2.04878e-95
1.61027e-93
1.07238e-91
1.66093e-89
1.40877e-87
1.28562e-86
2.22642e-86
8.46659e-88
3.61316e-103
6.88922e-101
8.97226e-97
1.40509e-93
1.9898e-90
2.58022e-87
3.0859e-84
3.43131e-81
3.57733e-78
3.52752e-75
3.31955e-72
3.00857e-69
2.6508e-66
2.29248e-63
1.96519e-60
1.68613e-57
1.46337e-54
1.29811e-51
1.1889e-48
1.13421e-45
4.37874e-42
1.03219e-36
3.09434e-34
-9.535e-117
-7.21765e-116
-2.91663e-115
-5.96226e-115
-1.02488e-136
2.01332e-138
3.55733e-135
1.37059e-132
-5.31564e-130
1.0181e-117
1.73198e-111
2.88745e-109
6.61097e-107
8.85672e-105
4.90383e-103
4.97643e-101
1.76117e-98
6.43754e-97
2.32091e-96
2.96776e-119
2.38686e-115
1.44733e-111
6.92371e-108
2.70403e-104
3.04172e-100
8.43226e-97
1.91497e-93
3.9095e-90
7.2491e-87
1.23274e-83
1.94016e-80
2.85029e-77
3.93987e-74
5.16202e-71
6.45444e-68
7.75009e-65
8.78053e-62
8.29e-59
7.55991e-56
6.82272e-53
6.11808e-50
5.45764e-47
1.97295e-43
2.83145e-38
6.49195e-36
-2.18905e-123
-4.45367e-123
-6.78241e-123
-3.91066e-123
-2.00731e-145
5.48482e-145
6.07541e-135
2.72231e-132
2.77442e-131
3.16903e-133
1.51654e-136
6.88766e-148
7.71527e-164
-1.0923e-146
1.13859e-143
8.69737e-128
4.56335e-116
4.48963e-124
-1.29973e-154
-2.84366e-153
3.3408e-124
2.12013e-120
1.88811e-116
-4.97959e-106
1.13973e-108
1.77742e-104
6.95146e-101
2.38954e-97
7.38642e-94
2.07537e-90
5.35242e-87
1.27841e-83
2.85089e-80
5.97966e-77
1.18738e-73
2.24489e-70
4.06046e-67
7.05245e-64
1.17907e-60
1.89917e-57
2.94465e-54
4.38028e-51
2.0118e-46
7.32814e-41
3.06081e-38
-1.20037e-134
-9.48405e-135
-1.73192e-134
-2.40396e-134
2.0653e-147
1.8118e-147
-3.44933e-147
2.67647e-140
1.92126e-134
3.67322e-132
1.32222e-131
9.40734e-135
2.69993e-147
1.01334e-147
-2.32583e-142
3.62267e-126
2.4877e-123
2.64706e-122
-3.87837e-122
-1.31809e-121
1.21447e-124
3.28964e-124
-9.38046e-118
9.99466e-127
-7.66616e-122
-3.61031e-114
-2.78019e-114
4.92191e-111
3.64727e-106
2.64122e-101
5.39261e-98
-7.69729e-96
-2.63044e-92
-7.03148e-89
-1.7317e-85
-3.96427e-82
-8.49977e-79
-1.71962e-75
-3.30422e-72
-6.06058e-69
-1.06538e-65
-1.79977e-62
-2.92498e-59
5.60956e-47
9.38186e-42
1.95408e-150
7.80484e-151
2.1809e-150
1.00924e-149
5.93763e-149
5.5801e-148
2.24022e-147
2.20447e-146
3.10713e-139
2.78262e-135
1.05144e-132
3.62942e-136
1.46387e-147
-1.52876e-147
-4.02511e-141
1.97443e-127
4.6784e-124
7.96791e-123
2.38376e-129
1.21897e-132
3.54652e-123
2.11332e-121
5.99643e-147
0
-1.02752e-127
-3.83129e-130
-5.20848e-128
-9.25614e-124
-1.50563e-119
1.82294e-103
5.90525e-98
2.38255e-96
6.88936e-107
1.95861e-105
5.43124e-103
2.39334e-99
1.98144e-95
7.30242e-93
2.4086e-89
1.23507e-85
1.4534e-83
-6.76795e-86
0
1.26267e-78
-1.17872e-73
)
;

boundaryField
{
    leftWall
    {
        type            zeroGradient;
    }
    rightWall
    {
        type            zeroGradient;
    }
    lowerWall
    {
        type            zeroGradient;
    }
    atmosphere
    {
        type            inletOutlet;
        inletValue      uniform 0;
        value           uniform 0;
    }
    defaultFaces
    {
        type            empty;
    }
    procBoundary2to0
    {
        type            processor;
        value           nonuniform List<scalar> 
46
(
-2.21026e-17
-3.95361e-17
-7.32462e-17
-1.41372e-16
-2.842e-16
-5.91923e-16
-1.26632e-15
-2.76047e-15
-6.10821e-15
-1.37446e-14
-3.17047e-14
-7.5872e-14
-1.89882e-13
-4.94164e-13
-1.30963e-12
-3.4377e-12
-8.71449e-12
-2.09265e-11
-4.68811e-11
-9.62495e-11
-1.76235e-10
-2.78067e-10
-3.66958e-10
-3.95964e-10
-3.42517e-10
-4.81408e-26
-2.28189e-25
-1.14283e-24
-4.89056e-24
-1.79701e-23
-5.69086e-23
-1.58954e-22
-4.08692e-22
-1.01594e-21
-2.52421e-21
-6.27672e-21
-1.52602e-20
-3.52813e-20
-7.64233e-20
-1.54919e-19
-2.94291e-19
-5.28604e-19
-9.09159e-19
-1.5228e-18
-2.53441e-18
-2.53441e-18
)
;
    }
    procBoundary2to3
    {
        type            processor;
        value           nonuniform List<scalar> 
43
(
-2.46411e-10
-2.12052e-10
-1.58722e-10
-1.08065e-10
-6.90832e-11
-4.2542e-11
-2.579e-11
-1.56612e-11
-9.63038e-12
-6.00563e-12
-3.76095e-12
-2.30965e-12
-1.32177e-12
-6.01537e-13
-3.24085e-14
1.02266e-12
1.57949e-12
1.57505e-12
1.44553e-12
1.0695e-12
5.62416e-13
1.93902e-13
4.33189e-14
6.30173e-15
5.3207e-16
2.32835e-17
1.37206e-18
1.82877e-19
2.20278e-20
2.33294e-21
2.35375e-22
2.13749e-23
1.67267e-24
1.10527e-25
5.96902e-27
2.52513e-28
8.31045e-30
2.68266e-31
1.60305e-32
2.07597e-34
1.18177e-36
1.28945e-39
1.99846e-55
)
;
    }
}


// ************************************************************************* //
