/*--------------------------------*- C++ -*----------------------------------*\
| =========                 |                                                 |
| \\      /  F ield         | OpenFOAM: The Open Source CFD Toolbox           |
|  \\    /   O peration     | Version:  5.0                                   |
|   \\  /    A nd           | Web:      www.OpenFOAM.org                      |
|    \\/     M anipulation  |                                                 |
\*---------------------------------------------------------------------------*/
FoamFile
{
    version     2.0;
    format      ascii;
    class       volScalarField;
    location    "0.85";
    object      epsilon;
}
// * * * * * * * * * * * * * * * * * * * * * * * * * * * * * * * * * * * * * //

dimensions      [0 2 -3 0 0 0 0];

internalField   nonuniform List<scalar> 
1915
(
0.118814
0.125111
0.132026
0.139647
0.148082
0.157461
0.167941
0.179711
0.192997
0.208066
0.225234
0.244879
0.267445
0.29346
0.323553
0.358472
0.399108
0.446523
0.501975
0.56693
0.643055
0.73217
0.836131
0.956648
1.09503
0.261119
0.122911
0.0948917
0.0839225
0.0786258
0.0760113
0.0749412
0.0748857
0.0755657
0.0768224
0.0785616
0.080727
0.0832859
0.0862218
0.0895304
0.0932151
0.0972868
0.101766
0.10668
0.112067
0.117973
0.124456
0.131587
0.139452
0.148155
0.15782
0.168597
0.180662
0.194221
0.209522
0.226852
0.246551
0.269014
0.294709
0.324184
0.358081
0.397159
0.442308
0.494571
0.555156
0.62544
0.706949
0.801302
0.910115
1.03485
0.259613
0.121621
0.0936796
0.0827368
0.0774416
0.0748146
0.0737238
0.0736426
0.0742945
0.0755232
0.0772366
0.0793805
0.0819248
0.0848553
0.0881704
0.0918777
0.0959927
0.100537
0.105541
0.111046
0.117099
0.123762
0.131106
0.139218
0.1482
0.158174
0.169282
0.181694
0.195604
0.211244
0.228881
0.248827
0.271442
0.297149
0.326436
0.359872
0.398119
0.441947
0.492251
0.550064
0.616567
0.693087
0.78108
0.882078
0.99762
0.257752
0.120246
0.0924388
0.081547
0.0762677
0.0736378
0.0725324
0.0724296
0.0730559
0.0742574
0.0759445
0.0780652
0.0805918
0.0835128
0.0868291
0.0905513
0.0946985
0.0992978
0.104382
0.109994
0.116185
0.12302
0.130572
0.138929
0.148195
0.15849
0.169955
0.182754
0.197077
0.213143
0.231206
0.25156
0.27454
0.300536
0.329995
0.363432
0.401443
0.444712
0.494031
0.550312
0.614598
0.688078
0.77208
0.86806
0.977565
0.255578
0.118798
0.0911756
0.0803574
0.0751073
0.072483
0.071369
0.0712483
0.071851
0.073026
0.074686
0.0767815
0.0792871
0.0821939
0.0855055
0.0892355
0.0934061
0.098048
0.1032
0.108907
0.115225
0.122221
0.129971
0.138567
0.148115
0.158737
0.170574
0.183788
0.198567
0.215126
0.233709
0.254598
0.278114
0.304623
0.334545
0.368358
0.406608
0.449922
0.499017
0.554717
0.617964
0.689836
0.771556
0.864491
0.970137
0.253127
0.117289
0.0898967
0.0791727
0.0739639
0.0713531
0.0702356
0.0701003
0.0706811
0.0718298
0.0734617
0.0755297
0.0780107
0.0808983
0.0841988
0.0879287
0.0921136
0.0967874
0.101993
0.107781
0.114211
0.121353
0.129288
0.138112
0.147934
0.15888
0.171093
0.184737
0.200001
0.217096
0.236266
0.257785
0.281965
0.30916
0.339769
0.374246
0.413103
0.456923
0.506369
0.562196
0.625266
0.696563
0.777204
0.868451
0.971698
0.250437
0.115731
0.0886097
0.0779982
0.0728415
0.070251
0.0691344
0.0689872
0.0695474
0.0706699
0.0722725
0.0743104
0.0767628
0.0796258
0.0829084
0.0866297
0.0908186
0.0955126
0.100758
0.10661
0.113135
0.120406
0.128509
0.137544
0.147625
0.158883
0.171465
0.18554
0.201297
0.218953
0.238748
0.260958
0.285889
0.313888
0.345342
0.380687
0.420413
0.46507
0.515276
0.571731
0.635226
0.706654
0.787027
0.87748
0.979262
0.247547
0.114138
0.0873232
0.0768401
0.0717445
0.0691803
0.0680683
0.0679114
0.0684518
0.0695476
0.0711192
0.0731241
0.0755437
0.0783764
0.0816336
0.0853374
0.0895194
0.0942207
0.0994912
0.105391
0.111989
0.119367
0.127616
0.13684
0.147158
0.158707
0.17164
0.186131
0.202375
0.22059
0.241023
0.263949
0.289674
0.318542
0.350933
0.387271
0.428029
0.473729
0.524954
0.582353
0.646649
0.718648
0.79925
0.889447
0.990318
0.244497
0.112524
0.0860463
0.075705
0.0706782
0.0681448
0.0670404
0.0668751
0.0673961
0.0684644
0.0700031
0.0719717
0.0743539
0.0771503
0.0803744
0.0840508
0.0882143
0.0929087
0.098188
0.104116
0.110767
0.118226
0.126592
0.135977
0.146503
0.158313
0.171567
0.186445
0.203148
0.221901
0.242954
0.266586
0.293106
0.322855
0.35621
0.393588
0.435444
0.48228
0.534645
0.593139
0.658421
0.731208
0.812283
0.902491
1.00272
0.241325
0.110904
0.0847887
0.0746001
0.0696481
0.0671491
0.0660542
0.0658815
0.0663827
0.0674223
0.0689256
0.0708545
0.0731944
0.0759479
0.0791307
0.0827697
0.086902
0.0915747
0.0968449
0.10278
0.10946
0.116973
0.125425
0.134933
0.145629
0.157661
0.171194
0.186415
0.203532
0.222777
0.244405
0.268699
0.295972
0.326564
0.36085
0.399238
0.442172
0.490131
0.543632
0.603228
0.669514
0.74312
0.824711
0.914981
1.01463
0.238072
0.109294
0.0835607
0.0735331
0.0686603
0.0661981
0.0651139
0.0649337
0.0654144
0.0664235
0.0678887
0.0697739
0.0720664
0.0747703
0.0779032
0.081494
0.085582
0.090217
0.0954591
0.101379
0.108061
0.115598
0.124101
0.133692
0.144511
0.156713
0.170471
0.185977
0.203446
0.223115
0.245246
0.270125
0.298068
0.329417
0.364543
0.403846
0.447755
0.49673
0.551254
0.611836
0.679005
0.753307
0.835295
0.925514
1.02449
0.234777
0.10771
0.0823727
0.072512
0.0677212
0.0652971
0.0642237
0.0640356
0.0644943
0.0654707
0.0668948
0.0687321
0.0709715
0.0736188
0.0766929
0.0802245
0.0842547
0.0888355
0.0940294
0.0999105
0.106565
0.114093
0.122607
0.132236
0.143126
0.155439
0.169355
0.185074
0.202814
0.222819
0.245355
0.270713
0.299209
0.331185
0.367007
0.407068
0.451782
0.501584
0.556928
0.618275
0.686094
0.760848
0.842984
0.932916
1.031
0.23148
0.106167
0.0812354
0.0715449
0.0668374
0.0644516
0.0633884
0.0631911
0.063626
0.064567
0.0659464
0.0677314
0.0699121
0.0724955
0.0755018
0.0789629
0.0829214
0.0874308
0.0925557
0.0983726
0.104971
0.112453
0.120936
0.130554
0.141457
0.153814
0.167811
0.183655
0.201571
0.221805
0.244626
0.270329
0.299228
0.331664
0.367998
0.40861
0.453898
0.504275
0.56016
0.621971
0.690118
0.764988
0.846932
0.936244
1.03314
0.228218
0.10468
0.0801592
0.0706401
0.0660157
0.0636673
0.0626131
0.0624046
0.0628133
0.0637159
0.0650469
0.0667747
0.0688908
0.071403
0.0743324
0.0777117
0.0815844
0.0860053
0.0910401
0.0967672
0.103278
0.110676
0.119085
0.128639
0.139494
0.151822
0.165816
0.181686
0.199666
0.220007
0.242976
0.268866
0.297994
0.330693
0.367316
0.408231
0.45382
0.504469
0.560562
0.622477
0.690568
0.765153
0.846498
0.934795
1.03014
0.225026
0.103264
0.0791544
0.0698057
0.0652629
0.0629502
0.0619027
0.0616807
0.0620602
0.0629211
0.0641996
0.0658654
0.0679109
0.0703445
0.0731879
0.0764742
0.0802473
0.0845625
0.0894863
0.0950978
0.101489
0.108767
0.117055
0.126491
0.137232
0.149455
0.163356
0.17915
0.197072
0.217378
0.240341
0.266247
0.295407
0.328149
0.364814
0.405759
0.451342
0.501924
0.557859
0.61948
0.687092
0.760951
0.841251
0.9281
1.0215
0.221941
0.101935
0.0782311
0.0690496
0.0645858
0.062306
0.0612626
0.0610241
0.0613712
0.0621867
0.0634083
0.0650072
0.0669761
0.069324
0.0720725
0.0752548
0.0789148
0.0831077
0.0879
0.0933706
0.0996122
0.106732
0.114853
0.124115
0.134678
0.146718
0.160433
0.176041
0.193779
0.213904
0.236689
0.262427
0.29141
0.32396
0.360406
0.401086
0.446339
0.4965
0.551889
0.612801
0.679493
0.75217
0.830964
0.915916
1.00695
0.218993
0.100704
0.0773987
0.0683796
0.0639909
0.0617406
0.0606978
0.0604394
0.0607505
0.0615167
0.0626772
0.0642041
0.0660906
0.0683456
0.0709907
0.0740586
0.0775929
0.0816477
0.0862888
0.0915946
0.0976566
0.104581
0.112491
0.121527
0.131845
0.143624
0.157061
0.172374
0.1898
0.209594
0.232029
0.257395
0.285988
0.318104
0.35406
0.394177
0.438771
0.48815
0.542603
0.602389
0.667724
0.738767
0.8156
0.898211
0.986475
0.216214
0.0995862
0.0766663
0.067803
0.0634845
0.0612595
0.0602135
0.0599313
0.0602027
0.0609154
0.0620105
0.0634604
0.0652587
0.0674142
0.0699479
0.0728918
0.0762883
0.0801903
0.0846622
0.0897806
0.0956354
0.102331
0.109988
0.118745
0.128757
0.1402
0.153269
0.16818
0.185167
0.204483
0.226397
0.251194
0.279167
0.31061
0.345809
0.385066
0.428676
0.476921
0.53006
0.588319
0.651876
0.720853
0.795292
0.875143
0.960243
0.213633
0.0985927
0.0760423
0.0673264
0.0630724
0.060868
0.0598145
0.0595046
0.0597321
0.0603873
0.0614124
0.0627805
0.0644853
0.066535
0.06895
0.071761
0.0750089
0.0787449
0.0830312
0.0879419
0.0935643
0.0999997
0.107366
0.115796
0.125444
0.13648
0.149097
0.163505
0.179934
0.198631
0.219861
0.243899
0.271033
0.301554
0.335738
0.373851
0.416167
0.462944
0.514412
0.570767
0.632158
0.698671
0.770321
0.847028
0.928608
0.211279
0.097735
0.0755345
0.0669565
0.0627604
0.0605713
0.0595057
0.0591636
0.0593431
0.0599365
0.0608874
0.0621692
0.0637753
0.0657136
0.0680032
0.0706734
0.0737632
0.0773216
0.081408
0.0860934
0.0914612
0.097609
0.10465
0.112712
0.121944
0.132511
0.144599
0.158411
0.174172
0.192121
0.212514
0.235619
0.261713
0.291075
0.323986
0.360691
0.401426
0.446425
0.495896
0.550006
0.608879
0.672575
0.741084
0.814312
0.89206
0.209177
0.0970239
0.0751503
0.0666991
0.0625536
0.0603741
0.0592915
0.0589129
0.05904
0.0595676
0.06044
0.0616311
0.0631341
0.0649558
0.0671142
0.0696368
0.0725605
0.0759315
0.079806
0.0842512
0.0893461
0.0951833
0.10187
0.109529
0.118301
0.128345
0.139837
0.152974
0.16797
0.185056
0.204477
0.226491
0.251363
0.279361
0.310752
0.345794
0.384688
0.427634
0.474817
0.526382
0.58243
0.643003
0.708074
0.777537
0.851194
0.207354
0.0964696
0.0748968
0.0665601
0.0624572
0.0602812
0.0591764
0.0587567
0.0588273
0.0592849
0.0600749
0.0611714
0.0625669
0.0642676
0.0662899
0.0686594
0.0714105
0.0745862
0.0782393
0.0824324
0.0872399
0.0927483
0.0990584
0.106286
0.114563
0.124039
0.134881
0.147276
0.161427
0.177552
0.195887
0.216676
0.240171
0.266628
0.296297
0.329425
0.36624
0.406893
0.451536
0.500299
0.553263
0.610457
0.671843
0.737313
0.806672
0.205838
0.0960826
0.0747809
0.066545
0.0624761
0.0602972
0.059165
0.0586995
0.0587094
0.0590932
0.059797
0.0607951
0.0620797
0.0636556
0.0655378
0.0677497
0.0703231
0.0732977
0.0767223
0.080655
0.0851644
0.0903308
0.0962475
0.103022
0.110777
0.119653
0.129805
0.141407
0.15465
0.16974
0.186897
0.206353
0.228345
0.253114
0.280898
0.311927
0.346416
0.384561
0.426457
0.472205
0.521874
0.575483
0.632991
0.694289
0.759195
0.204659
0.0958736
0.0748096
0.0666598
0.0626157
0.0604272
0.0592621
0.0587461
0.0586912
0.0589973
0.0596115
0.060508
0.0616784
0.0631265
0.0648655
0.0669167
0.0693089
0.0720786
0.0752702
0.0789369
0.0831415
0.0879576
0.0934705
0.099779
0.106996
0.115249
0.124683
0.135457
0.147749
0.16175
0.177665
0.195709
0.216104
0.239077
0.26485
0.293638
0.325644
0.361049
0.400009
0.442576
0.488786
0.538652
0.592136
0.649134
0.70948
0.20385
0.0958552
0.0749913
0.066911
0.0628819
0.0606768
0.0594732
0.058902
0.0587781
0.059003
0.0595244
0.0603164
0.0613701
0.0626879
0.0642815
0.0661698
0.0683789
0.0709415
0.073898
0.0772962
0.0811932
0.0856553
0.09076
0.0965963
0.103267
0.110887
0.119589
0.129518
0.140835
0.153717
0.16835
0.184933
0.203673
0.224778
0.248456
0.274908
0.304321
0.336866
0.372689
0.411907
0.45454
0.500553
0.54991
0.602524
0.658243
0.203455
0.0960422
0.075336
0.0673071
0.0632823
0.0610529
0.0598049
0.0591738
0.0589768
0.059117
0.0595425
0.0602275
0.0611623
0.0623482
0.063795
0.0655195
0.0675448
0.0699
0.0726212
0.0757514
0.0793412
0.0834501
0.0881473
0.0935124
0.0996369
0.106625
0.114594
0.123674
0.134012
0.145765
0.159104
0.174209
0.191269
0.210475
0.232018
0.256083
0.282847
0.312466
0.345078
0.380793
0.419687
0.461773
0.506947
0.55513
0.606193
0.203529
0.0964554
0.0758576
0.0678593
0.0638267
0.0615647
0.0602661
0.0595699
0.0592956
0.0593475
0.0596744
0.0602501
0.0610642
0.062117
0.0634165
0.0649772
0.0668191
0.0689682
0.0714562
0.0743208
0.0776071
0.0813674
0.0856627
0.0905633
0.09615
0.102515
0.109761
0.118005
0.127375
0.138013
0.15007
0.163708
0.179097
0.196409
0.21582
0.237498
0.261605
0.288288
0.317675
0.349869
0.384944
0.422938
0.463865
0.507619
0.554028
0.204148
0.0971236
0.0765756
0.0685836
0.0645292
0.0622251
0.0608685
0.0601014
0.0597452
0.0597052
0.0599305
0.0603947
0.0610869
0.0620059
0.0631581
0.0645556
0.066216
0.0681615
0.0704197
0.0730238
0.0760127
0.0794321
0.0833352
0.0877833
0.0928465
0.0986048
0.105149
0.11258
0.12101
0.130562
0.141371
0.15358
0.167337
0.182798
0.200119
0.219454
0.240949
0.26474
0.290946
0.319666
0.350973
0.384909
0.421487
0.460675
0.502427
0.205422
0.0980886
0.077519
0.0695035
0.0654101
0.063052
0.0616286
0.0607837
0.06034
0.0602038
0.0603242
0.0606748
0.0612436
0.0620285
0.063034
0.06427
0.0657513
0.0674969
0.0695304
0.0718804
0.0745802
0.0776692
0.0811931
0.0852044
0.0897635
0.0949392
0.100809
0.10746
0.114989
0.123502
0.133116
0.143953
0.156145
0.169827
0.185138
0.202213
0.221186
0.24218
0.265306
0.290657
0.318305
0.3483
0.38066
0.415377
0.45241
0.207504
0.0994128
0.0787306
0.0706533
0.0664985
0.064071
0.0625691
0.0616373
0.061099
0.0608611
0.0608727
0.061107
0.0615512
0.0622018
0.0630615
0.0641381
0.0654436
0.0669939
0.0688089
0.0709126
0.0733333
0.0761043
0.0792643
0.0828578
0.0869361
0.0915571
0.0967867
0.102699
0.109375
0.116906
0.125389
0.134932
0.145645
0.157646
0.171054
0.18599
0.20257
0.220906
0.241099
0.263238
0.287395
0.313623
0.341953
0.372394
0.40493
0.210616
0.101187
0.0802737
0.0720835
0.0678367
0.0653182
0.0637214
0.0626899
0.0620473
0.0617002
0.0615978
0.0617124
0.0620303
0.0625463
0.0632615
0.0641812
0.0653149
0.0666754
0.0682789
0.0701451
0.0722978
0.0747646
0.0775778
0.0807745
0.0843975
0.0884951
0.0931224
0.0983407
0.104218
0.110831
0.118261
0.126597
0.135933
0.146368
0.158004
0.170945
0.185293
0.201145
0.218593
0.237722
0.2586
0.281286
0.305822
0.332233
0.36053
0.215071
0.103542
0.0822403
0.0738666
0.0694842
0.0668435
0.065128
0.0639783
0.0632171
0.0627505
0.0625267
0.062517
0.0627062
0.0630873
0.0636593
0.0644251
0.0653915
0.0665681
0.0679678
0.0696064
0.071503
0.0736804
0.0761648
0.0789868
0.0821814
0.0857885
0.0898531
0.0944258
0.0995627
0.105326
0.111783
0.119007
0.127076
0.136072
0.146081
0.15719
0.169486
0.183053
0.197975
0.214326
0.232176
0.251584
0.272601
0.295268
0.319621
0.221308
0.106668
0.0847625
0.0761057
0.0715239
0.0687144
0.0668446
0.0655494
0.064649
0.0640478
0.0636924
0.0635521
0.0636094
0.0638551
0.0642855
0.0649008
0.0657049
0.0667044
0.0679086
0.0693298
0.0709829
0.072886
0.0750602
0.07753
0.0803237
0.0834734
0.0870155
0.090991
0.0954453
0.100428
0.105995
0.112204
0.11912
0.126809
0.135341
0.144789
0.155225
0.166721
0.17935
0.193179
0.208273
0.224693
0.242496
0.261736
0.282468
0.229947
0.110833
0.0880278
0.0789436
0.0740674
0.0710189
0.0689413
0.0674603
0.0663912
0.0656346
0.0651337
0.0648546
0.0647761
0.0648858
0.0651766
0.0656455
0.0662931
0.0671228
0.0681406
0.0693551
0.0707776
0.0724218
0.0743042
0.0764442
0.078864
0.0815891
0.0846485
0.0880743
0.0919028
0.0961736
0.10093
0.106221
0.112095
0.118607
0.125812
0.13377
0.14254
0.152182
0.162758
0.174327
0.18695
0.200685
0.215594
0.23174
0.249193
0.241869
0.116424
0.0922997
0.0825748
0.0772598
0.0738657
0.0715009
0.0697759
0.0684967
0.0675571
0.0668934
0.0664658
0.0662476
0.0662215
0.0663758
0.0667035
0.0672016
0.0678699
0.0687111
0.0697303
0.0709353
0.0723361
0.0739449
0.0757767
0.0778485
0.0801803
0.0827944
0.085716
0.0889733
0.0925972
0.0966216
0.101083
0.106022
0.11148
0.117503
0.124136
0.131427
0.139426
0.148184
0.157752
0.168186
0.17954
0.191877
0.205265
0.219786
0.25836
0.124
0.0979477
0.0872562
0.0812794
0.0773783
0.0746101
0.0725601
0.0710171
0.0698605
0.0690148
0.0684295
0.0680696
0.0679101
0.0679334
0.0681276
0.068485
0.069002
0.0696775
0.0705137
0.0715148
0.0726875
0.0740405
0.0755848
0.0773333
0.0793009
0.0815048
0.0839641
0.0867004
0.0897374
0.0931008
0.0968189
0.100922
0.105443
0.110415
0.115876
0.121863
0.128417
0.135579
0.143392
0.151904
0.161168
0.171243
0.1822
0.194127
0.281396
0.134405
0.105489
0.093313
0.0863242
0.0816738
0.0783389
0.0758589
0.0739885
0.07258
0.0715362
0.0707894
0.0702909
0.0700057
0.069908
0.0699798
0.0702085
0.0705864
0.0711091
0.0717754
0.0725869
0.0735472
0.074662
0.0759388
0.077387
0.0790177
0.0808435
0.0828788
0.0851396
0.0876438
0.0904106
0.093461
0.0968179
0.100506
0.10455
0.108979
0.113821
0.119109
0.124875
0.131157
0.137996
0.145437
0.153537
0.162367
0.172016
0.314338
0.148984
0.115648
0.101119
0.0925624
0.0868106
0.082697
0.0796682
0.0774112
0.0757281
0.0744843
0.0735853
0.0729632
0.0725692
0.0723679
0.0723342
0.0724504
0.0727047
0.0730895
0.073601
0.0742381
0.0750019
0.0758957
0.0769243
0.0780941
0.079413
0.0808902
0.082536
0.0843622
0.0863818
0.0886088
0.0910587
0.0937481
0.0966948
0.0999178
0.103438
0.107277
0.111459
0.11601
0.120959
0.126342
0.132199
0.138582
0.145555
0.153207
0.362798
0.169878
0.129358
0.110974
0.0999897
0.0926714
0.0875522
0.0838838
0.0812219
0.079281
0.0778689
0.0768535
0.0761427
0.0756716
0.0753948
0.0752802
0.0753056
0.0754556
0.0757203
0.0760938
0.0765728
0.0771568
0.0778469
0.0786461
0.0795583
0.0805889
0.0817443
0.0830318
0.0844598
0.0860373
0.0877744
0.0896821
0.0917721
0.0940571
0.0965506
0.0992676
0.102224
0.105437
0.108928
0.112718
0.116837
0.121317
0.126204
0.131555
0.137451
0.438429
0.200942
0.14763
0.122717
0.108094
0.098745
0.092511
0.0882446
0.0852719
0.0831754
0.0816878
0.0806342
0.0798982
0.0794013
0.0790901
0.0789281
0.0788903
0.0789597
0.079125
0.079379
0.0797177
0.0801392
0.0806434
0.0812316
0.0819062
0.0826707
0.0835292
0.0844866
0.0855487
0.0867217
0.0880124
0.0894281
0.0909771
0.0926678
0.0945095
0.0965125
0.0986879
0.101048
0.103608
0.106384
0.109397
0.112674
0.116251
0.120176
0.124516
0.573445
0.249638
0.170322
0.134481
0.115132
0.1038
0.0968054
0.0923172
0.0893484
0.0873381
0.0859543
0.0849938
0.0843289
0.0838773
0.0835854
0.0834172
0.0833489
0.0833644
0.0834532
0.0836083
0.0838255
0.0841027
0.084439
0.0848349
0.0852916
0.0858112
0.0863962
0.0870497
0.0877753
0.088577
0.0894591
0.0904264
0.0914839
0.0926372
0.0938921
0.0952551
0.0967335
0.0983353
0.10007
0.10195
0.103988
0.106205
0.108625
0.111284
0.114233
0.912589
0.32724
0.189612
0.139499
0.11711
0.10573
0.099405
0.0956497
0.0933041
0.0917807
0.0907624
0.0900687
0.0895928
0.0892689
0.0890553
0.0889251
0.0888607
0.0888503
0.0888861
0.0889633
0.0890785
0.0892301
0.0894172
0.0896399
0.0898986
0.0901943
0.0905286
0.0909029
0.0913193
0.09178
0.0922874
0.0928441
0.0934528
0.0941166
0.0948387
0.0956226
0.0964724
0.0973924
0.0983881
0.0994659
0.100634
0.101904
0.103291
0.104815
0.106507
3.11916
0.383679
0.166287
0.122665
0.108575
0.102714
0.0998524
0.0982871
0.0973566
0.096769
0.0963818
0.0961193
0.0959387
0.0958143
0.0957302
0.0956763
0.0956459
0.0956347
0.0956397
0.0956591
0.0956916
0.0957365
0.0957935
0.0958624
0.0959435
0.0960371
0.0961435
0.0962632
0.096397
0.0965455
0.0967095
0.0968898
0.0970873
0.097303
0.0975378
0.097793
0.0980696
0.0983693
0.0986935
0.0990445
0.0994247
0.0998377
0.100288
0.100783
0.101332
)
;

boundaryField
{
    leftWall
    {
        Cmu             0.09;
        kappa           0.41;
        E               9.8;
        type            epsilonWallFunction;
        value           nonuniform List<scalar> 
42
(
0.261119
0.259613
0.257752
0.255578
0.253127
0.250437
0.247547
0.244497
0.241325
0.238072
0.234777
0.23148
0.228218
0.225026
0.221941
0.218993
0.216214
0.213633
0.211279
0.209177
0.207354
0.205838
0.204659
0.20385
0.203455
0.203529
0.204148
0.205422
0.207504
0.210616
0.215071
0.221308
0.229947
0.241869
0.25836
0.281396
0.314338
0.362798
0.438429
0.573445
0.912589
3.11916
)
;
    }
    rightWall
    {
        Cmu             0.09;
        kappa           0.41;
        E               9.8;
        type            epsilonWallFunction;
        value           nonuniform 0();
    }
    lowerWall
    {
        Cmu             0.09;
        kappa           0.41;
        E               9.8;
        type            epsilonWallFunction;
        value           nonuniform 0();
    }
    atmosphere
    {
        type            inletOutlet;
        inletValue      uniform 0.1;
        value           uniform 0.1;
    }
    defaultFaces
    {
        type            empty;
    }
    procBoundary2to0
    {
        type            processor;
        value           nonuniform List<scalar> 
46
(
0.119626
0.125735
0.132436
0.139821
0.148004
0.157125
0.167353
0.178896
0.192001
0.206964
0.224142
0.24396
0.266925
0.29365
0.324871
0.361477
0.40455
0.455397
0.515587
0.58697
0.671648
0.771876
0.889851
1.02738
1.18549
0.262228
0.124108
0.0960695
0.0851004
0.0798175
0.0772253
0.0761828
0.0761575
0.0768681
0.0781541
0.079919
0.0821043
0.0846753
0.087613
0.0909079
0.094561
0.0985815
0.102987
0.107803
0.113063
0.113063
)
;
    }
    procBoundary2to3
    {
        type            processor;
        value           nonuniform List<scalar> 
43
(
1.25188
1.17662
1.12912
1.10216
1.09007
1.08843
1.0937
1.10299
1.11387
1.12433
1.13267
1.13749
1.1377
1.13249
1.12129
1.10385
1.08012
1.05029
1.01474
0.974011
0.928735
0.879627
0.827438
0.772927
0.716852
0.659953
0.602958
0.546577
0.491678
0.439523
0.39071
0.345688
0.304748
0.268034
0.23554
0.207137
0.182603
0.161656
0.144002
0.129368
0.117543
0.108411
0.101948
)
;
    }
}


// ************************************************************************* //
