/*--------------------------------*- C++ -*----------------------------------*\
| =========                 |                                                 |
| \\      /  F ield         | OpenFOAM: The Open Source CFD Toolbox           |
|  \\    /   O peration     | Version:  5.0                                   |
|   \\  /    A nd           | Web:      www.OpenFOAM.org                      |
|    \\/     M anipulation  |                                                 |
\*---------------------------------------------------------------------------*/
FoamFile
{
    version     2.0;
    format      ascii;
    class       volScalarField;
    location    "0.85";
    object      nut;
}
// * * * * * * * * * * * * * * * * * * * * * * * * * * * * * * * * * * * * * //

dimensions      [0 2 -1 0 0 0 0];

internalField   nonuniform List<scalar> 
1915
(
0.0101323
0.0103022
0.0104569
0.0105968
0.0107219
0.0108315
0.0109247
0.0110004
0.0110569
0.0110929
0.0111066
0.0110971
0.0110635
0.0110058
0.0109249
0.0108228
0.0107029
0.0105696
0.010429
0.0102884
0.0101561
0.0100407
0.0099512
0.00989516
0.00987849
9.02037e-05
0.000884003
0.00184883
0.00276295
0.00360383
0.00437127
0.00506938
0.00570333
0.00627843
0.00679985
0.00727245
0.00770077
0.00808903
0.0084411
0.00876056
0.0090507
0.00931456
0.00955479
0.00977371
0.00997328
0.0101551
0.0103204
0.0104701
0.0106046
0.010724
0.010828
0.0109161
0.0109873
0.0110408
0.0110755
0.0110904
0.0110848
0.0110585
0.0110116
0.0109451
0.0108608
0.0107615
0.0106509
0.0105338
0.0104161
0.0103043
0.0102058
0.0101277
0.010077
0.0100593
9.00501e-05
0.000884728
0.00185254
0.00277017
0.0036146
0.00438545
0.00508671
0.00572352
0.00630112
0.00682463
0.00729888
0.00772838
0.00811731
0.00846953
0.0087886
0.00907774
0.00933991
0.00957781
0.00979377
0.00998976
0.0101674
0.010328
0.0104725
0.0106014
0.010715
0.0108133
0.010896
0.0109625
0.0110123
0.0110449
0.0110596
0.0110562
0.0110348
0.0109958
0.0109403
0.01087
0.0107873
0.0106955
0.0105984
0.010501
0.0104084
0.0103268
0.010262
0.01022
0.010206
8.98539e-05
0.000884795
0.00185468
0.00277485
0.00362192
0.00439533
0.00509902
0.00573802
0.00631756
0.00684268
0.00731816
0.00774845
0.0081377
0.00848973
0.00880807
0.00909593
0.00935622
0.00959156
0.00980433
0.00999652
0.0101698
0.0103256
0.0104647
0.0105881
0.0106959
0.0107885
0.0108657
0.0109274
0.0109733
0.0110032
0.0110169
0.0110145
0.0109964
0.0109631
0.010916
0.0108566
0.0107872
0.0107106
0.0106303
0.0105501
0.0104746
0.0104086
0.0103572
0.0103254
0.0103176
8.96192e-05
0.000884269
0.00185535
0.00277715
0.00362597
0.00440114
0.00510652
0.00574711
0.00632804
0.00685432
0.00733063
0.00776139
0.00815066
0.00850223
0.00881958
0.00910588
0.00936405
0.00959668
0.0098061
0.00999436
0.0101632
0.010314
0.0104479
0.0105656
0.0106678
0.0107548
0.0108268
0.0108838
0.0109258
0.010953
0.0109653
0.0109633
0.0109474
0.0109185
0.0108779
0.0108272
0.0107686
0.0107045
0.0106381
0.0105726
0.0105119
0.01046
0.0104212
0.0103997
0.0103994
8.93497e-05
0.000883199
0.00185465
0.0027772
0.00362692
0.00440306
0.00510945
0.00575103
0.00633288
0.00685989
0.00733671
0.00776764
0.00815669
0.00850758
0.00882374
0.00910831
0.00936418
0.00959393
0.00979991
0.00998417
0.0101485
0.0102943
0.010423
0.0105353
0.010632
0.0107137
0.0107808
0.0108334
0.0108719
0.0108965
0.0109076
0.0109058
0.0108918
0.0108667
0.0108316
0.0107884
0.0107389
0.0106855
0.0106309
0.010578
0.0105303
0.010491
0.0104638
0.0104524
0.01046
8.90495e-05
0.00088163
0.00185268
0.00277513
0.00362492
0.00440129
0.00510805
0.00575007
0.00633237
0.00685976
0.00733679
0.00776766
0.00815631
0.00850638
0.00882122
0.00910395
0.00935742
0.00958422
0.00978669
0.00996693
0.0101268
0.0102678
0.0103913
0.0104984
0.01059
0.0106667
0.0107292
0.010778
0.0108134
0.010836
0.0108464
0.0108452
0.0108333
0.0108118
0.0107821
0.0107457
0.0107046
0.0106608
0.0106168
0.0105753
0.0105392
0.0105114
0.010495
0.0104931
0.0105086
8.87225e-05
0.000879603
0.0018495
0.00277103
0.00362012
0.00439603
0.00510254
0.0057445
0.00632684
0.00685429
0.00733128
0.00776193
0.00815006
0.00849922
0.0088127
0.00909356
0.00934462
0.00956847
0.00976746
0.00994372
0.0100992
0.0102355
0.0103541
0.0104563
0.0105431
0.0106153
0.0106739
0.0107193
0.0107524
0.0107737
0.010784
0.010784
0.0107748
0.0107574
0.0107332
0.0107038
0.0106708
0.0106363
0.0106024
0.0105716
0.0105463
0.0105292
0.010523
0.0105302
0.0105533
8.83728e-05
0.000877159
0.00184519
0.00276503
0.00361267
0.00438743
0.00509313
0.00573456
0.00631659
0.00684383
0.0073206
0.0077509
0.00813845
0.00848669
0.00879884
0.00907789
0.00932662
0.0095476
0.00974323
0.00991567
0.0100669
0.0101987
0.0103127
0.0104103
0.0104927
0.0105609
0.0106161
0.0106589
0.0106903
0.0107111
0.0107221
0.0107242
0.0107184
0.0107058
0.0106878
0.0106657
0.0106412
0.0106161
0.0105923
0.0105719
0.0105572
0.0105504
0.0105538
0.0105697
0.0106002
8.80046e-05
0.000874331
0.00183981
0.00275721
0.00360268
0.00437567
0.00508003
0.00572052
0.00630191
0.00682872
0.00730514
0.00773504
0.00812201
0.00846939
0.0087803
0.00905766
0.00930421
0.00952252
0.00971498
0.00988382
0.0100311
0.0101587
0.0102684
0.0103617
0.0104401
0.0105049
0.0105572
0.0105981
0.0106286
0.0106496
0.0106622
0.0106672
0.0106656
0.0106587
0.0106475
0.0106334
0.0106179
0.0106025
0.010589
0.0105792
0.010575
0.0105783
0.0105912
0.0106155
0.010653
8.76224e-05
0.000871163
0.00183344
0.00274766
0.00359028
0.00436091
0.00506344
0.0057026
0.00628308
0.00680929
0.00728527
0.00771476
0.00810121
0.00844785
0.00875769
0.00903357
0.00927819
0.00949408
0.00968365
0.00984919
0.00999282
0.0101166
0.0102223
0.0103118
0.0103866
0.0104484
0.0104984
0.010538
0.0105682
0.0105902
0.010605
0.0106137
0.0106172
0.0106166
0.010613
0.0106077
0.0106017
0.0105966
0.0105937
0.0105946
0.010601
0.0106145
0.0106367
0.0106692
0.0107135
8.72305e-05
0.000867684
0.00182612
0.00273647
0.00357559
0.00434329
0.00504353
0.00568102
0.00626036
0.00678583
0.00726134
0.00769046
0.00807652
0.00842259
0.00873159
0.00900626
0.00924924
0.00946305
0.00965009
0.00981269
0.00995307
0.0100733
0.0101755
0.0102616
0.0103334
0.0103925
0.0104407
0.0104794
0.0105098
0.0105334
0.010551
0.010564
0.0105732
0.0105796
0.0105842
0.0105881
0.0105922
0.0105977
0.0106058
0.0106178
0.010635
0.0106586
0.0106901
0.0107308
0.0107819
8.68336e-05
0.000863934
0.00181792
0.00272373
0.00355871
0.00432295
0.00502048
0.00565599
0.006234
0.00675864
0.00723366
0.00766251
0.00804832
0.00839406
0.00870251
0.00897631
0.00921802
0.00943014
0.00961507
0.00977516
0.0099127
0.0100299
0.010129
0.0102121
0.0102812
0.0103381
0.0103848
0.0104229
0.010454
0.0104794
0.0105004
0.010518
0.0105332
0.010547
0.0105602
0.0105737
0.0105882
0.0106047
0.010624
0.0106472
0.0106753
0.0107093
0.0107502
0.0107991
0.0108569
8.6436e-05
0.000859949
0.00180891
0.00270952
0.00353977
0.00430004
0.00499447
0.00562773
0.00620422
0.00672796
0.00720254
0.00763122
0.008017
0.00836268
0.00867089
0.0089442
0.00918508
0.00939596
0.00957924
0.00973729
0.00987249
0.00998715
0.0100836
0.0101641
0.0102308
0.0102859
0.0103314
0.0103692
0.0104011
0.0104285
0.0104528
0.0104752
0.0104966
0.0105179
0.0105397
0.0105629
0.0105879
0.0106154
0.0106461
0.0106806
0.0107197
0.0107641
0.0108145
0.0108718
0.0109366
8.60424e-05
0.000855767
0.00179916
0.00269395
0.0035189
0.00427472
0.00496568
0.00559641
0.00617125
0.00669404
0.00716823
0.00759689
0.00798286
0.00832878
0.00863713
0.00891037
0.00915087
0.00936101
0.00954316
0.0096997
0.00983305
0.00994561
0.0100398
0.0101181
0.0101828
0.0102364
0.0102809
0.0103185
0.0103511
0.0103805
0.010408
0.010435
0.0104624
0.0104909
0.0105213
0.0105539
0.0105893
0.0106277
0.0106696
0.0107154
0.0107654
0.0108203
0.0108804
0.0109463
0.0110184
8.56572e-05
0.000851423
0.00178872
0.00267712
0.00349623
0.00424716
0.00493429
0.00556227
0.00613531
0.00665713
0.00713098
0.00755979
0.00794619
0.00829266
0.00860154
0.00887516
0.00911578
0.00932571
0.00950727
0.00966285
0.00979489
0.00990586
0.0099983
0.0100748
0.0101378
0.0101899
0.0102335
0.0102709
0.0103042
0.0103353
0.0103657
0.0103968
0.0104296
0.0104649
0.0105032
0.0105449
0.0105901
0.0106391
0.0106919
0.0107486
0.0108095
0.0108748
0.0109447
0.0110193
0.0110991
8.52849e-05
0.00084696
0.00177769
0.00265914
0.00347191
0.00421753
0.00490052
0.00552552
0.00609664
0.00661746
0.00709105
0.00752015
0.00790722
0.00825457
0.00856438
0.00883883
0.00908008
0.00929035
0.0094719
0.0096271
0.00975839
0.0098683
0.00995943
0.0100345
0.0100961
0.0101469
0.0101896
0.0102267
0.0102604
0.0102927
0.0103254
0.0103599
0.0103974
0.0104387
0.0104841
0.010534
0.0105883
0.0106471
0.0107102
0.0107775
0.010849
0.0109245
0.0110041
0.0110878
0.0111756
8.49298e-05
0.00084242
0.00176615
0.00264017
0.00344614
0.00418605
0.0048646
0.00548641
0.0060555
0.00657528
0.00704867
0.00747822
0.00786619
0.00821472
0.00852585
0.00880158
0.00904398
0.00925514
0.00943728
0.00959269
0.00972381
0.00983319
0.00992349
0.00999745
0.0100579
0.0101076
0.0101494
0.0101859
0.0102196
0.0102526
0.0102869
0.0103241
0.0103652
0.0104113
0.0104627
0.0105196
0.010582
0.0106497
0.0107223
0.0107994
0.0108809
0.0109663
0.0110555
0.0111482
0.0112443
8.45962e-05
0.000837845
0.00175421
0.00262035
0.00341911
0.00415298
0.00482682
0.00544524
0.00601217
0.00653089
0.00700412
0.00743423
0.00782332
0.00817332
0.00848612
0.00876358
0.00900761
0.00922022
0.00940351
0.00955973
0.00969128
0.00980069
0.00989065
0.00996397
0.0100235
0.0100723
0.0101131
0.0101487
0.0101819
0.010215
0.0102501
0.0102888
0.0103325
0.010382
0.010438
0.0105007
0.0105698
0.010645
0.0107259
0.0108119
0.0109026
0.0109973
0.0110957
0.0111973
0.0113019
8.42884e-05
0.000833285
0.00174198
0.00259988
0.00339109
0.00411862
0.0047875
0.00540235
0.00596701
0.00648461
0.0069577
0.00738847
0.00777883
0.00813055
0.00844534
0.00872491
0.00897104
0.00918561
0.00937063
0.00952825
0.00966082
0.00977084
0.00986098
0.00993407
0.00999305
0.0100409
0.0100807
0.0101154
0.0101476
0.0101801
0.010215
0.0102542
0.0102991
0.0103507
0.0104096
0.0104763
0.0105504
0.0106317
0.0107195
0.0108131
0.0109118
0.0110149
0.0111219
0.0112321
0.0113449
8.40105e-05
0.000828797
0.00172961
0.002579
0.00336239
0.00408332
0.00474704
0.00535816
0.00592043
0.00643683
0.00690977
0.00734124
0.00773299
0.00808662
0.00840366
0.00868568
0.00893432
0.00915132
0.00933859
0.00949818
0.00963235
0.00974355
0.00983441
0.00990774
0.0099665
0.0100137
0.0100525
0.0100859
0.0101168
0.010148
0.0101818
0.0102202
0.010265
0.0103171
0.0103775
0.0104462
0.0105235
0.0106089
0.0107018
0.0108014
0.0109067
0.0110171
0.0111316
0.0112496
0.0113703
8.3767e-05
0.000824441
0.00171726
0.00255795
0.00333335
0.00404753
0.00470592
0.00531317
0.00587293
0.00638805
0.00686078
0.00729295
0.00768614
0.00804179
0.00836127
0.00864599
0.00889747
0.00911731
0.00930729
0.00946936
0.00960569
0.00971863
0.00981076
0.00988482
0.00994376
0.00999062
0.0100285
0.0100606
0.0100898
0.0101191
0.0101509
0.0101875
0.0102307
0.0102818
0.0103417
0.0104108
0.0104891
0.0105765
0.0106725
0.010776
0.0108863
0.0110022
0.0111229
0.0112475
0.0113751
8.35623e-05
0.000820287
0.00170512
0.00253708
0.00330441
0.00401175
0.00466473
0.00526799
0.00582512
0.00633885
0.00681128
0.00724409
0.0076387
0.00799638
0.00831839
0.00860598
0.00886053
0.00908351
0.00927658
0.00944159
0.00958058
0.00969579
0.00978972
0.00986504
0.00992461
0.00997145
0.0100087
0.0100394
0.0100668
0.0100937
0.0101228
0.0101566
0.010197
0.0102454
0.0103031
0.0103705
0.0104479
0.0105351
0.0106317
0.010737
0.0108499
0.0109694
0.0110945
0.0112241
0.0113572
8.34012e-05
0.000816424
0.00169342
0.00251675
0.00327608
0.00397661
0.00462414
0.00522335
0.00577775
0.00628996
0.00676196
0.00719527
0.00759119
0.00795084
0.00827535
0.00856584
0.00882357
0.00904989
0.00924633
0.00941462
0.00955668
0.00967465
0.00977089
0.00984797
0.00990868
0.00995593
0.00999281
0.0100224
0.0100479
0.0100721
0.0100981
0.0101282
0.0101646
0.010209
0.0102627
0.0103266
0.0104009
0.0104857
0.0105805
0.0106849
0.010798
0.0109187
0.0110459
0.0111784
0.0113152
8.32893e-05
0.000812949
0.00168243
0.00249742
0.00324898
0.00394284
0.004585
0.00518014
0.00573174
0.00624229
0.00671367
0.00714728
0.0075443
0.00790573
0.00823258
0.00852588
0.00878675
0.00901645
0.00921639
0.00938819
0.00953363
0.00965474
0.00975375
0.0098331
0.00989544
0.0099436
0.00998054
0.0100093
0.010033
0.0100546
0.010077
0.0101029
0.0101344
0.0101736
0.0102219
0.0102804
0.0103497
0.0104298
0.0105206
0.0106215
0.0107319
0.0108511
0.0109776
0.0111105
0.0112485
8.32331e-05
0.000809994
0.0016725
0.00247964
0.00322383
0.00391133
0.00454829
0.00513944
0.00568818
0.00619693
0.00666746
0.0071011
0.0074989
0.00786179
0.00819069
0.00848652
0.00875033
0.00898328
0.00918669
0.00936205
0.00951105
0.00963557
0.00973771
0.00981976
0.00988423
0.0099338
0.00997131
0.00999969
0.010022
0.0100411
0.0100599
0.0100812
0.0101074
0.0101404
0.0101822
0.0102337
0.010296
0.0103694
0.0104538
0.0105489
0.010654
0.0107685
0.0108915
0.0110217
0.011158
8.32411e-05
0.000807708
0.00166401
0.00246405
0.00320151
0.00388313
0.00451523
0.00510253
0.00564841
0.00615521
0.00662463
0.00705792
0.00745608
0.00781996
0.00815043
0.00844835
0.00871471
0.00895058
0.00915722
0.00933602
0.00948856
0.00961661
0.0097221
0.0098072
0.00987423
0.00992572
0.00996433
0.00999286
0.0100142
0.0100312
0.0100468
0.0100635
0.010084
0.0101105
0.0101447
0.0101882
0.0102419
0.0103066
0.0103825
0.0104693
0.0105667
0.010674
0.0107902
0.0109144
0.0110457
8.33243e-05
0.000806286
0.00165747
0.00245143
0.00318306
0.0038595
0.00448722
0.00507095
0.00561402
0.00611874
0.00658674
0.00701923
0.00741718
0.00778142
0.0081128
0.00841215
0.00868042
0.00891867
0.00912808
0.00930997
0.00946583
0.0095973
0.00970622
0.00979456
0.00986449
0.00991834
0.00995859
0.00998787
0.0100089
0.0100244
0.0100371
0.0100497
0.0100646
0.0100843
0.0101106
0.0101452
0.0101893
0.0102439
0.0103093
0.0103857
0.0104729
0.0105702
0.010677
0.0107923
0.010915
8.34976e-05
0.000805967
0.00165346
0.00244274
0.00316973
0.00384196
0.00446599
0.00504655
0.00558694
0.00608943
0.00655565
0.00698678
0.00738382
0.00774762
0.00807902
0.00837891
0.00864823
0.00888803
0.00909948
0.00928384
0.00944255
0.00957715
0.00968933
0.00978093
0.00985394
0.00991049
0.00995288
0.00998349
0.0100048
0.0100195
0.0100301
0.0100391
0.010049
0.0100622
0.0100806
0.010106
0.0101398
0.0101832
0.0102368
0.010301
0.0103756
0.0104605
0.0105551
0.0106584
0.0107695
8.37816e-05
0.000807049
0.0016527
0.0024391
0.00316303
0.00383231
0.00445357
0.00503153
0.00556944
0.00606959
0.0065336
0.00696271
0.00735795
0.00772027
0.00805059
0.00834984
0.00861905
0.0088593
0.00907177
0.00925772
0.00941853
0.00955566
0.00967071
0.00976536
0.00984144
0.00990089
0.00994577
0.00997825
0.0100006
0.0100152
0.0100245
0.0100308
0.0100364
0.0100437
0.0100546
0.010071
0.0100945
0.0101262
0.0101671
0.0102177
0.0102782
0.0103485
0.0104282
0.0105166
0.0106129
8.42042e-05
0.000809907
0.00165608
0.00244188
0.00316476
0.00383273
0.00445242
0.00502852
0.00556426
0.00606194
0.00652324
0.00694949
0.00734186
0.00770142
0.00802924
0.0083264
0.00859403
0.0088333
0.00904545
0.00923177
0.00939361
0.00953241
0.00964964
0.00974688
0.00982579
0.00988811
0.00993569
0.00997046
0.00999446
0.0100098
0.0100186
0.0100232
0.0100255
0.0100279
0.0100322
0.0100403
0.0100538
0.0100739
0.0101018
0.0101381
0.0101833
0.0102375
0.0103003
0.0103713
0.0104496
8.48032e-05
0.000815013
0.00166467
0.00245277
0.00317713
0.00384585
0.00446549
0.00504069
0.00557465
0.00606972
0.00652768
0.00695005
0.00733819
0.0076934
0.00801699
0.00831023
0.00857445
0.00881096
0.0090211
0.00920624
0.00936773
0.00950699
0.00962543
0.00972451
0.00980573
0.00987067
0.00992094
0.00995824
0.00998436
0.0100011
0.0100105
0.0100143
0.0100146
0.0100132
0.0100121
0.0100129
0.0100173
0.0100265
0.0100418
0.0100639
0.0100933
0.0101303
0.0101749
0.0102265
0.0102845
8.56289e-05
0.000822969
0.0016798
0.00247378
0.00320282
0.00387489
0.00449641
0.00507188
0.00560452
0.00609675
0.00655056
0.00696773
0.00734995
0.00769886
0.00801607
0.00830318
0.00856176
0.00879333
0.00899941
0.00918145
0.00934086
0.00947906
0.0095974
0.00969725
0.00977999
0.00984701
0.00989971
0.00993958
0.00996811
0.00998688
0.00999752
0.0100017
0.0100011
0.00999736
0.00999223
0.00998725
0.0099839
0.00998347
0.00998707
0.00999557
0.0100096
0.0100294
0.010055
0.0100861
0.0101221
8.67474e-05
0.000834533
0.00170311
0.00250748
0.00324521
0.0039239
0.00454967
0.00512684
0.00565861
0.0061476
0.00659612
0.00700638
0.00738053
0.00772067
0.00802889
0.00830718
0.00855745
0.00878152
0.00898107
0.00915773
0.00931299
0.00944826
0.00956489
0.00966416
0.00974731
0.00981557
0.00987017
0.00991235
0.00994336
0.0099645
0.00997711
0.00998256
0.00998225
0.00997762
0.00997007
0.00996098
0.00995163
0.00994322
0.00993675
0.00993305
0.0099327
0.00993602
0.00994303
0.00995342
0.00996653
8.82448e-05
0.000850661
0.00173667
0.00255713
0.00330866
0.00399813
0.00463106
0.00521152
0.00574277
0.00622775
0.00666931
0.00707031
0.00743358
0.00776189
0.00805792
0.00832418
0.008563
0.00877654
0.00896674
0.00913539
0.00928409
0.00941427
0.00952726
0.00962427
0.00970643
0.00977483
0.00983049
0.00987444
0.0099077
0.0099313
0.00994632
0.00995382
0.00995492
0.00995074
0.0099424
0.00993104
0.00991771
0.00990339
0.00988895
0.00987507
0.00986225
0.00985071
0.00984041
0.00983095
0.0098216
9.02345e-05
0.000872566
0.00178324
0.00262718
0.00339922
0.00410474
0.00474834
0.00533371
0.00586432
0.00634378
0.00677581
0.00716426
0.00751296
0.00782555
0.00810549
0.00835591
0.00857966
0.00877927
0.00895695
0.00911466
0.0092541
0.00937675
0.00948391
0.00957672
0.00965621
0.00972332
0.00977891
0.00982379
0.00985878
0.00988464
0.00990219
0.00991222
0.00991556
0.00991304
0.00990549
0.00989374
0.00987858
0.00986071
0.00984081
0.00981937
0.00979667
0.00977279
0.00974752
0.00972029
0.00969015
9.28725e-05
0.000901861
0.0018467
0.00272423
0.0035258
0.00425416
0.00491236
0.00550379
0.00603259
0.00650358
0.006922
0.0072932
0.00762238
0.00791437
0.00817352
0.00840372
0.00860833
0.00879026
0.00895199
0.00909562
0.00922293
0.00933542
0.00943436
0.00952081
0.00959571
0.00965984
0.00971392
0.00975858
0.00979442
0.009822
0.00984186
0.00985457
0.00986067
0.00986072
0.00985526
0.00984483
0.00982995
0.00981105
0.00978851
0.00976254
0.0097332
0.00970035
0.00966352
0.00962186
0.00957413
9.64002e-05
0.000940573
0.0019331
0.00285896
0.00370274
0.00446243
0.00513898
0.00573603
0.00625942
0.00671639
0.00711466
0.00746185
0.00776496
0.00803024
0.0082631
0.00846814
0.00864922
0.00880956
0.00895183
0.0090782
0.00919048
0.00929015
0.00937839
0.00945621
0.00952441
0.00958366
0.00963452
0.00967747
0.00971292
0.00974125
0.00976281
0.00977791
0.00978687
0.00978999
0.00978757
0.00977988
0.00976715
0.00974956
0.00972719
0.0097
0.00966777
0.00963005
0.00958607
0.00953466
0.00947415
0.000101166
0.000992742
0.00205401
0.00305123
0.0039552
0.00475584
0.00545213
0.00604998
0.00655944
0.00699225
0.00736012
0.00767369
0.00794223
0.00817349
0.00837386
0.00854851
0.00870163
0.00883658
0.00895605
0.00906219
0.00915673
0.00924104
0.00931622
0.00938314
0.00944249
0.00949481
0.00954053
0.00957999
0.00961346
0.00964117
0.00966329
0.00967997
0.00969134
0.00969749
0.00969852
0.00969445
0.0096853
0.00967101
0.00965142
0.00962623
0.00959497
0.00955691
0.00951099
0.00945568
0.00938893
0.000107814
0.00106585
0.00223332
0.0033408
0.00432983
0.00517847
0.00588758
0.00647131
0.00694901
0.00734019
0.00766215
0.00792921
0.00815279
0.00834185
0.00850331
0.00864255
0.00876369
0.00886996
0.00896385
0.00904731
0.00912187
0.0091887
0.00924874
0.00930271
0.00935115
0.00939449
0.00943303
0.00946702
0.00949661
0.00952191
0.00954298
0.00955985
0.00957252
0.00958095
0.00958507
0.00958478
0.00957991
0.00957024
0.00955544
0.00953503
0.00950837
0.00947453
0.00943225
0.00937978
0.00931478
0.000117988
0.0011767
0.00253018
0.0038177
0.00491895
0.00580499
0.00649603
0.00702922
0.00744149
0.00776339
0.0080182
0.00822308
0.00839045
0.00852932
0.00864625
0.00874606
0.00883231
0.00890768
0.00897421
0.00903343
0.00908653
0.00913441
0.00917777
0.00921714
0.00925292
0.00928541
0.00931481
0.00934127
0.00936487
0.00938566
0.00940362
0.00941873
0.00943092
0.00944008
0.00944608
0.00944874
0.00944783
0.00944305
0.00943402
0.0094202
0.00940091
0.00937521
0.00934181
0.00929901
0.00924444
0.000137936
0.00138515
0.00313483
0.00471828
0.00591407
0.00675449
0.00733592
0.00774297
0.00803489
0.00825022
0.00841362
0.00854096
0.00864263
0.00872562
0.00879469
0.00885319
0.00890353
0.00894745
0.00898624
0.00902087
0.00905208
0.00908041
0.0091063
0.00913006
0.00915192
0.00917206
0.0091906
0.0092076
0.00922312
0.00923715
0.00924968
0.00926064
0.00926998
0.0092776
0.00928336
0.00928711
0.00928864
0.00928771
0.00928398
0.00927704
0.00926634
0.00925114
0.00923046
0.00920294
0.00916674
0.000207599
0.00210943
0.00496598
0.00677402
0.00768764
0.00815839
0.00842162
0.00858227
0.00868803
0.00876202
0.00881634
0.0088578
0.00889048
0.00891694
0.00893887
0.00895741
0.00897337
0.00898733
0.0089997
0.00901081
0.00902089
0.00903012
0.00903864
0.00904654
0.0090539
0.00906078
0.00906721
0.00907321
0.0090788
0.00908396
0.0090887
0.00909298
0.00909678
0.00910005
0.00910274
0.00910478
0.00910608
0.00910655
0.00910604
0.00910438
0.00910136
0.00909666
0.0090899
0.00908053
0.00906779
)
;

boundaryField
{
    leftWall
    {
        type            nutkWallFunction;
        Cmu             0.09;
        kappa           0.41;
        E               9.8;
        value           nonuniform List<scalar> 
42
(
3.38049e-06
3.3533e-06
3.31933e-06
3.27923e-06
3.23361e-06
3.18308e-06
3.12826e-06
3.06984e-06
3.00847e-06
2.94488e-06
2.87978e-06
2.81394e-06
2.74808e-06
2.68296e-06
2.61932e-06
2.55789e-06
2.49939e-06
2.44453e-06
2.39402e-06
2.34854e-06
2.30879e-06
2.2755e-06
2.24943e-06
2.23145e-06
2.22259e-06
2.22415e-06
2.23783e-06
2.26599e-06
2.31185e-06
2.37985e-06
2.47599e-06
2.60826e-06
2.78713e-06
3.02618e-06
3.34318e-06
3.76239e-06
4.32087e-06
5.07068e-06
6.10864e-06
7.67936e-06
1.06998e-05
2.08988e-05
)
;
    }
    rightWall
    {
        type            nutkWallFunction;
        Cmu             0.09;
        kappa           0.41;
        E               9.8;
        value           nonuniform 0();
    }
    lowerWall
    {
        type            nutkWallFunction;
        Cmu             0.09;
        kappa           0.41;
        E               9.8;
        value           nonuniform 0();
    }
    atmosphere
    {
        type            calculated;
        value           uniform 0.009;
    }
    defaultFaces
    {
        type            empty;
    }
    procBoundary2to0
    {
        type            processor;
        value           nonuniform List<scalar> 
46
(
0.0100985
0.0102727
0.0104323
0.0105775
0.010708
0.0108229
0.010921
0.0110005
0.0110592
0.0110951
0.011106
0.01109
0.0110462
0.0109742
0.0108749
0.0107509
0.0106062
0.0104467
0.0102799
0.010115
0.00996242
0.00983289
0.00973652
0.00968156
0.00967324
9.03095e-05
0.000882551
0.00184342
0.00275304
0.00358945
0.00435262
0.0050468
0.00567722
0.00624924
0.00676805
0.00723853
0.00766525
0.00805242
0.00840396
0.00872352
0.00901444
0.0092797
0.00952197
0.00974358
0.00994649
0.00994649
)
;
    }
    procBoundary2to3
    {
        type            processor;
        value           nonuniform List<scalar> 
43
(
0.00990436
0.0100786
0.0102241
0.0103378
0.0104239
0.0104898
0.0105442
0.0105947
0.0106472
0.0107053
0.0107709
0.0108443
0.0109244
0.0110095
0.0110971
0.0111842
0.0112676
0.0113437
0.0114091
0.0114601
0.0114931
0.011505
0.011493
0.0114552
0.0113905
0.0112992
0.0111827
0.0110441
0.0108874
0.0107159
0.0105344
0.0103479
0.0101619
0.00998135
0.00981118
0.00965569
0.00951853
0.0094023
0.00930797
0.00923406
0.00917494
0.00911935
0.00905064
)
;
    }
}


// ************************************************************************* //
