/*--------------------------------*- C++ -*----------------------------------*\
| =========                 |                                                 |
| \\      /  F ield         | OpenFOAM: The Open Source CFD Toolbox           |
|  \\    /   O peration     | Version:  5.0                                   |
|   \\  /    A nd           | Web:      www.OpenFOAM.org                      |
|    \\/     M anipulation  |                                                 |
\*---------------------------------------------------------------------------*/
FoamFile
{
    version     2.0;
    format      ascii;
    class       volScalarField;
    location    "0.85";
    object      p_rgh;
}
// * * * * * * * * * * * * * * * * * * * * * * * * * * * * * * * * * * * * * //

dimensions      [1 -1 -2 0 0 0 0];

internalField   nonuniform List<scalar> 
1915
(
-0.0297217
-0.0368891
-0.0443372
-0.0520806
-0.0601428
-0.0685819
-0.0775062
-0.0870758
-0.0974852
-0.108927
-0.121556
-0.13547
-0.150709
-0.167275
-0.185141
-0.204263
-0.224573
-0.245978
-0.268359
-0.291589
-0.315536
-0.340084
-0.365152
-0.390716
-0.416852
0.0279822
0.0283188
0.0285988
0.0285761
0.0281566
0.0273281
0.026086
0.0244255
0.022344
0.0198399
0.0169144
0.0135709
0.00981462
0.00564974
0.00107847
-0.00389859
-0.00928025
-0.0150639
-0.0212417
-0.0277917
-0.0346845
-0.0419004
-0.0494424
-0.0573026
-0.0654802
-0.074004
-0.0829438
-0.0924178
-0.102585
-0.113625
-0.125697
-0.138915
-0.153331
-0.168944
-0.185718
-0.203599
-0.222521
-0.242396
-0.263113
-0.284546
-0.306558
-0.329019
-0.351816
-0.374888
-0.39827
0.0228013
0.0230833
0.0233028
0.0232359
0.0227946
0.0219644
0.0207379
0.0191084
0.0170715
0.0146253
0.0117686
0.0085022
0.00482812
0.000748247
-0.00373592
-0.00862354
-0.0139148
-0.0196089
-0.0256997
-0.0321745
-0.0390148
-0.0462156
-0.0537706
-0.0616658
-0.0698945
-0.0784681
-0.0874276
-0.0968516
-0.106855
-0.117577
-0.12916
-0.141713
-0.155306
-0.169952
-0.18563
-0.202288
-0.219856
-0.238248
-0.257356
-0.277054
-0.297207
-0.317677
-0.338337
-0.359099
-0.379957
0.0178985
0.0181329
0.0182978
0.0181892
0.0177264
0.0168939
0.0156828
0.0140849
0.0120944
0.00970807
0.00692355
0.00374018
0.000157636
-0.00382408
-0.00820452
-0.0129837
-0.0181621
-0.0237397
-0.0297146
-0.0360811
-0.0428327
-0.049965
-0.0574684
-0.0653319
-0.0735463
-0.0821122
-0.0910494
-0.100403
-0.110249
-0.120686
-0.131824
-0.143761
-0.15657
-0.170283
-0.184892
-0.200358
-0.216616
-0.233581
-0.251148
-0.269197
-0.287592
-0.306196
-0.324876
-0.343524
-0.362096
0.0132719
0.0134655
0.0135822
0.0134366
0.0129545
0.0121208
0.0109258
0.00936038
0.00741815
0.00509422
0.00238509
-0.000711007
-0.00419562
-0.00807012
-0.0123354
-0.0169925
-0.0220424
-0.027486
-0.0333242
-0.0395564
-0.0461813
-0.053195
-0.0605909
-0.0683606
-0.0764946
-0.0849874
-0.0938444
-0.103087
-0.112758
-0.122921
-0.133653
-0.145032
-0.157121
-0.169961
-0.183555
-0.197879
-0.21288
-0.22848
-0.244582
-0.261071
-0.277818
-0.294686
-0.31154
-0.328259
-0.344765
0.00891926
0.00907778
0.00915258
0.00897456
0.00847629
0.00764323
0.00646566
0.00493437
0.00304214
0.000782941
-0.00184747
-0.00485194
-0.00823304
-0.0119932
-0.0161343
-0.0206578
-0.0255654
-0.0308594
-0.0365418
-0.0426142
-0.049077
-0.0559293
-0.0631678
-0.0707864
-0.0787768
-0.0871311
-0.0958463
-0.104928
-0.114395
-0.124281
-0.134634
-0.145506
-0.156946
-0.168987
-0.181642
-0.194896
-0.208708
-0.223014
-0.237728
-0.252745
-0.267942
-0.283191
-0.298356
-0.31331
-0.327941
0.00483798
0.00496666
0.00500512
0.00479913
0.00428794
0.0034581
0.00230004
0.000804537
-0.00103595
-0.00322805
-0.00577666
-0.00868551
-0.0119581
-0.0155976
-0.0196061
-0.0239859
-0.0287391
-0.0338687
-0.0393771
-0.0452668
-0.0515389
-0.0581944
-0.0652325
-0.0726499
-0.0804397
-0.0885942
-0.0971061
-0.105971
-0.115193
-0.124783
-0.134764
-0.145164
-0.156012
-0.167331
-0.17913
-0.191399
-0.204106
-0.2172
-0.230607
-0.244235
-0.257974
-0.271703
-0.285295
-0.298619
-0.311544
0.00102544
0.00112875
0.00113612
0.000906677
0.000386206
-0.000437698
-0.00157405
-0.00303178
-0.00481854
-0.00694134
-0.00940551
-0.0122153
-0.0153749
-0.0188877
-0.0227566
-0.0269837
-0.0315717
-0.0365234
-0.0418417
-0.0475289
-0.0535871
-0.0600178
-0.066821
-0.0739953
-0.0815361
-0.0894361
-0.0976869
-0.106279
-0.115206
-0.124467
-0.134063
-0.144004
-0.154299
-0.164956
-0.175976
-0.187345
-0.199037
-0.211008
-0.223196
-0.235521
-0.247887
-0.260187
-0.272303
-0.284111
-0.295469
-0.00252133
-0.00243935
-0.00245805
-0.00270643
-0.00323266
-0.00404777
-0.00516002
-0.00657784
-0.00830894
-0.0103605
-0.0127377
-0.0154453
-0.0184879
-0.0218691
-0.0255918
-0.0296586
-0.034072
-0.0388347
-0.0439494
-0.0494185
-0.0552439
-0.0614271
-0.0679686
-0.0748669
-0.0821191
-0.089719
-0.0976581
-0.105925
-0.114508
-0.123397
-0.132582
-0.142056
-0.151813
-0.161847
-0.172145
-0.182689
-0.19345
-0.204387
-0.215445
-0.226557
-0.237638
-0.248594
-0.259324
-0.269712
-0.279623
-0.00580499
-0.00574083
-0.00578112
-0.00604415
-0.0065727
-0.00737608
-0.00846183
-0.00983765
-0.0115112
-0.0134895
-0.0157775
-0.0183802
-0.0213023
-0.0245476
-0.028119
-0.032019
-0.0362501
-0.040815
-0.0457158
-0.0509541
-0.0565316
-0.0624495
-0.0687085
-0.0753063
-0.0822398
-0.0895037
-0.0970898
-0.104987
-0.113181
-0.121656
-0.130395
-0.139381
-0.148597
-0.158022
-0.167635
-0.177408
-0.187308
-0.197291
-0.207307
-0.217294
-0.227179
-0.236882
-0.246315
-0.255375
-0.263942
-0.00882844
-0.00877909
-0.00883694
-0.00911072
-0.00963825
-0.0104271
-0.011484
-0.0128158
-0.01443
-0.016333
-0.0185298
-0.0210253
-0.0238242
-0.0269302
-0.0303461
-0.0340745
-0.0381178
-0.042478
-0.0471565
-0.0521544
-0.0574728
-0.0631123
-0.0690724
-0.0753511
-0.0819443
-0.0888466
-0.0960494
-0.103542
-0.111309
-0.119333
-0.127592
-0.136064
-0.144723
-0.15354
-0.162484
-0.17152
-0.180609
-0.189704
-0.198755
-0.207702
-0.216482
-0.225023
-0.233251
-0.241078
-0.248396
-0.0115947
-0.0115578
-0.0116297
-0.0119108
-0.0124341
-0.0132059
-0.0142315
-0.0155174
-0.0170704
-0.0188965
-0.0210004
-0.0233868
-0.0260604
-0.0290246
-0.0322821
-0.0358355
-0.0396866
-0.0438369
-0.0482872
-0.0530378
-0.0580889
-0.0634404
-0.0690906
-0.0750369
-0.081275
-0.0877984
-0.0945978
-0.101661
-0.108974
-0.116518
-0.124269
-0.132202
-0.140285
-0.148484
-0.156764
-0.165082
-0.173394
-0.181651
-0.189799
-0.197782
-0.20554
-0.21301
-0.220128
-0.226818
-0.232982
-0.0141074
-0.0140811
-0.014164
-0.0144494
-0.0149657
-0.0157178
-0.01671
-0.0179481
-0.0194384
-0.0211861
-0.0231956
-0.0254717
-0.0280186
-0.0308395
-0.0339368
-0.0373127
-0.0409687
-0.0449056
-0.0491235
-0.0536221
-0.0584005
-0.0634577
-0.0687911
-0.074397
-0.0802706
-0.0864044
-0.0927883
-0.0994091
-0.106251
-0.113295
-0.120518
-0.127892
-0.135384
-0.142958
-0.150572
-0.158183
-0.165741
-0.173195
-0.180491
-0.187573
-0.194383
-0.200865
-0.206962
-0.212611
-0.217718
-0.0163707
-0.0163534
-0.0164452
-0.0167321
-0.0172388
-0.0179688
-0.0189255
-0.0201142
-0.0215403
-0.0232085
-0.025123
-0.0272881
-0.0297076
-0.0323843
-0.0353202
-0.0385173
-0.0419764
-0.0456979
-0.049681
-0.0539248
-0.0584277
-0.0631875
-0.0682007
-0.0734626
-0.0789672
-0.084706
-0.0906683
-0.0968398
-0.103204
-0.109739
-0.116424
-0.12323
-0.130123
-0.137066
-0.144016
-0.150928
-0.15775
-0.16443
-0.170914
-0.177146
-0.183072
-0.18864
-0.1938
-0.198496
-0.202641
-0.0183889
-0.0183796
-0.0184783
-0.0187644
-0.0192592
-0.019965
-0.0208845
-0.0220224
-0.0233835
-0.0249718
-0.0267909
-0.0288448
-0.0311367
-0.0336688
-0.0364431
-0.0394608
-0.0427224
-0.0462277
-0.0499754
-0.0539637
-0.0581906
-0.0626526
-0.0673451
-0.0722624
-0.0773974
-0.0827407
-0.0882805
-0.0940021
-0.0998878
-0.105916
-0.112062
-0.118299
-0.124595
-0.13091
-0.137202
-0.143426
-0.14953
-0.155463
-0.16117
-0.166599
-0.171697
-0.176416
-0.180712
-0.184535
-0.187809
-0.0201669
-0.0201647
-0.0202688
-0.020552
-0.0210329
-0.0217128
-0.0225939
-0.0236802
-0.0249757
-0.0264838
-0.0282076
-0.0301505
-0.0323149
-0.034703
-0.0373161
-0.040155
-0.0432197
-0.0465096
-0.0500228
-0.0537569
-0.0577091
-0.0618748
-0.0662485
-0.0708237
-0.0755919
-0.080543
-0.0856643
-0.0909406
-0.0963535
-0.101881
-0.107497
-0.113175
-0.118881
-0.124579
-0.130228
-0.135781
-0.14119
-0.146403
-0.15137
-0.156038
-0.16036
-0.16429
-0.167788
-0.170812
-0.173297
-0.0217096
-0.0217139
-0.021822
-0.0221008
-0.0225663
-0.023219
-0.0240607
-0.0250948
-0.0263246
-0.0277525
-0.0293814
-0.0312139
-0.0332519
-0.035497
-0.0379504
-0.0406121
-0.0434819
-0.0465584
-0.0498395
-0.0533222
-0.0570027
-0.0608756
-0.0649347
-0.0691725
-0.0735797
-0.0781455
-0.0828562
-0.0876962
-0.0926465
-0.0976847
-0.102785
-0.107918
-0.113053
-0.118152
-0.123178
-0.128086
-0.132828
-0.137356
-0.141621
-0.145574
-0.149171
-0.152368
-0.155131
-0.157423
-0.159193
-0.0230227
-0.0230329
-0.0231439
-0.0234169
-0.0238658
-0.0244905
-0.0252922
-0.0262738
-0.0274378
-0.028786
-0.0303208
-0.0320441
-0.0339572
-0.0360614
-0.0383573
-0.0408446
-0.0435225
-0.0463892
-0.0494419
-0.0526772
-0.0560906
-0.0596761
-0.0634268
-0.0673344
-0.071389
-0.075579
-0.0798901
-0.0843062
-0.0888078
-0.0933724
-0.0979744
-0.102585
-0.107171
-0.111698
-0.116129
-0.120423
-0.124533
-0.128415
-0.132021
-0.135307
-0.13823
-0.140752
-0.142841
-0.144466
-0.14559
-0.0241122
-0.0241278
-0.0242408
-0.0245072
-0.0249386
-0.0255345
-0.0262958
-0.0272247
-0.028323
-0.0295922
-0.0310341
-0.0326499
-0.0344405
-0.0364068
-0.0385485
-0.0408651
-0.0433551
-0.0460163
-0.0488457
-0.0518393
-0.0549919
-0.0582971
-0.0617474
-0.065334
-0.0690465
-0.0728724
-0.0767974
-0.0808046
-0.0848744
-0.0889846
-0.0931099
-0.0972216
-0.101288
-0.105275
-0.109145
-0.11286
-0.116379
-0.119658
-0.122653
-0.125322
-0.127626
-0.129531
-0.131008
-0.132032
-0.132575
-0.0249852
-0.0250059
-0.0251202
-0.025379
-0.0257921
-0.0263585
-0.0270789
-0.0279551
-0.0289883
-0.0301796
-0.0315304
-0.033041
-0.0347121
-0.0365438
-0.0385353
-0.0406856
-0.0429928
-0.0454543
-0.0480667
-0.0508255
-0.053725
-0.0567586
-0.0599183
-0.0631948
-0.0665773
-0.070053
-0.0736072
-0.0772231
-0.080881
-0.0845589
-0.088232
-0.0918727
-0.0954501
-0.0989305
-0.102278
-0.105457
-0.108428
-0.11115
-0.113585
-0.115691
-0.117435
-0.118784
-0.119711
-0.120198
-0.120226
-0.0256494
-0.0256748
-0.0257898
-0.0260402
-0.026434
-0.0269703
-0.0276498
-0.0284736
-0.0294425
-0.0305575
-0.0318191
-0.0332273
-0.0347822
-0.0364832
-0.0383291
-0.0403184
-0.0424488
-0.0447173
-0.04712
-0.0496522
-0.0523078
-0.0550798
-0.05796
-0.0609389
-0.0640053
-0.0671464
-0.0703474
-0.0735913
-0.076859
-0.0801289
-0.0833768
-0.086576
-0.0896969
-0.0927074
-0.0955732
-0.0982586
-0.100728
-0.102944
-0.104871
-0.106472
-0.107714
-0.108568
-0.10901
-0.109025
-0.108602
-0.0261128
-0.0261423
-0.0262572
-0.026498
-0.0268719
-0.0273779
-0.0280167
-0.0287887
-0.0296947
-0.0307351
-0.0319099
-0.0332187
-0.034661
-0.0362356
-0.0379412
-0.0397755
-0.0417359
-0.0438189
-0.0460204
-0.0483351
-0.050757
-0.0532788
-0.0558921
-0.0585872
-0.061353
-0.0641765
-0.0670431
-0.0699362
-0.072837
-0.0757245
-0.0785755
-0.0813643
-0.0840626
-0.0866403
-0.089065
-0.0913027
-0.0933191
-0.0950804
-0.0965531
-0.0977045
-0.0985041
-0.0989255
-0.0989477
-0.0985568
-0.0977466
-0.026383
-0.026416
-0.0265295
-0.0267598
-0.0271134
-0.0275893
-0.0281878
-0.0289092
-0.0297538
-0.0307216
-0.0318123
-0.0330251
-0.0343588
-0.035812
-0.0373829
-0.0390688
-0.0408665
-0.0427722
-0.0447815
-0.046889
-0.0490883
-0.0513722
-0.0537322
-0.0561585
-0.0586402
-0.0611644
-0.0637167
-0.0662811
-0.0688393
-0.0713713
-0.0738546
-0.076265
-0.0785758
-0.0807587
-0.0827833
-0.084618
-0.0862303
-0.0875881
-0.0886607
-0.0894189
-0.0898351
-0.0898852
-0.0895506
-0.0888189
-0.087686
-0.0264677
-0.026503
-0.026614
-0.0268331
-0.0271661
-0.0276122
-0.0281714
-0.0288435
-0.0296287
-0.0305265
-0.0315362
-0.0326566
-0.0338862
-0.0352233
-0.0366655
-0.0382097
-0.0398525
-0.0415896
-0.0434164
-0.0453272
-0.0473159
-0.0493751
-0.0514961
-0.0536695
-0.0558844
-0.0581284
-0.0603874
-0.062646
-0.0648868
-0.0670907
-0.0692364
-0.071301
-0.0732596
-0.0750855
-0.0767508
-0.078226
-0.0794812
-0.0804862
-0.0812122
-0.0816325
-0.0817225
-0.0814607
-0.08083
-0.0798197
-0.0784273
-0.0263745
-0.0264108
-0.0265181
-0.0267255
-0.0270382
-0.0274551
-0.027976
-0.0286006
-0.0293287
-0.0301593
-0.0310914
-0.0321235
-0.0332538
-0.0344802
-0.0358
-0.0372097
-0.0387054
-0.0402828
-0.041937
-0.0436624
-0.0454528
-0.0473007
-0.0491978
-0.0511347
-0.0531009
-0.0550843
-0.0570716
-0.0590481
-0.0609971
-0.0629006
-0.0647387
-0.0664899
-0.068131
-0.0696374
-0.0709832
-0.0721415
-0.0730846
-0.073785
-0.0742158
-0.0743519
-0.0741709
-0.0736534
-0.0727843
-0.0715541
-0.0699614
-0.0261114
-0.0261474
-0.0262499
-0.0264453
-0.0267378
-0.0271263
-0.0276104
-0.0281895
-0.0288629
-0.0296295
-0.0304878
-0.0314359
-0.0324719
-0.0335933
-0.0347969
-0.0360791
-0.0374359
-0.0388627
-0.0403545
-0.0419058
-0.0435104
-0.045161
-0.0468495
-0.0485667
-0.0503026
-0.0520456
-0.053783
-0.0555009
-0.0571837
-0.0588143
-0.0603744
-0.0618439
-0.0632017
-0.0644249
-0.06549
-0.0663723
-0.0670464
-0.0674874
-0.0676707
-0.067573
-0.0671735
-0.0664541
-0.0654014
-0.0640068
-0.0622686
-0.0256862
-0.0257208
-0.0258175
-0.0260005
-0.0262733
-0.0266345
-0.0270835
-0.0276194
-0.0282411
-0.0289469
-0.0297353
-0.0306039
-0.0315505
-0.0325724
-0.0336662
-0.0348282
-0.0360541
-0.0373393
-0.038679
-0.0400676
-0.0414991
-0.0429665
-0.0444618
-0.0459764
-0.0475004
-0.049023
-0.0505322
-0.0520149
-0.0534565
-0.0548412
-0.0561522
-0.0573711
-0.0584784
-0.0594534
-0.0602745
-0.0609194
-0.0613651
-0.061589
-0.0615688
-0.0612833
-0.0607133
-0.0598424
-0.0586579
-0.0571512
-0.05532
-0.0251073
-0.025139
-0.0252289
-0.0253992
-0.025653
-0.0259885
-0.0264045
-0.0268999
-0.0274728
-0.0281214
-0.0288436
-0.0296371
-0.0304993
-0.0314272
-0.0324175
-0.0334664
-0.0345695
-0.0357223
-0.03692
-0.0381574
-0.0394286
-0.0407268
-0.0420444
-0.0433729
-0.0447032
-0.046025
-0.0473271
-0.0485973
-0.0498222
-0.0509874
-0.0520772
-0.0530749
-0.0539629
-0.0547224
-0.0553341
-0.0557777
-0.0560327
-0.0560787
-0.0558955
-0.0554641
-0.0547671
-0.0537894
-0.0525191
-0.050948
-0.0490733
-0.0243826
-0.0244102
-0.0244921
-0.02465
-0.024886
-0.0251976
-0.025583
-0.0260405
-0.0265676
-0.0271624
-0.0278223
-0.028545
-0.0293277
-0.0301672
-0.0310602
-0.032003
-0.0329913
-0.0340208
-0.0350868
-0.0361843
-0.0373076
-0.0384502
-0.0396048
-0.0407635
-0.0419175
-0.0430575
-0.0441732
-0.045253
-0.0462849
-0.0472554
-0.0481505
-0.048955
-0.0496529
-0.0502277
-0.050662
-0.0509378
-0.0510366
-0.0509403
-0.0506308
-0.0500911
-0.0493056
-0.0482606
-0.0469451
-0.0453514
-0.0434753
-0.0235199
-0.0235422
-0.0236156
-0.0237618
-0.0239816
-0.0242715
-0.0246286
-0.0250508
-0.0255353
-0.0260796
-0.0266811
-0.0273372
-0.0280451
-0.0288016
-0.0296036
-0.0304473
-0.0313286
-0.0322435
-0.0331876
-0.034156
-0.0351433
-0.0361433
-0.0371492
-0.0381536
-0.0391485
-0.040125
-0.0410739
-0.0419845
-0.0428456
-0.0436451
-0.0443704
-0.0450078
-0.0455432
-0.0459618
-0.0462482
-0.0463864
-0.0463601
-0.0461531
-0.0457499
-0.0451352
-0.0442952
-0.0432176
-0.0418926
-0.0403122
-0.0384704
-0.0225269
-0.0225432
-0.0226082
-0.0227442
-0.0229498
-0.02322
-0.0235514
-0.023941
-0.0243858
-0.024883
-0.0254298
-0.0260234
-0.0266611
-0.0273399
-0.0280566
-0.0288077
-0.0295895
-0.0303982
-0.0312295
-0.0320791
-0.0329417
-0.0338117
-0.0346826
-0.0355477
-0.0363995
-0.0372301
-0.0380307
-0.0387919
-0.0395033
-0.0401543
-0.0407332
-0.0412281
-0.0416263
-0.0419147
-0.0420798
-0.0421075
-0.0419836
-0.0416943
-0.0412258
-0.0405649
-0.0396993
-0.0386186
-0.037314
-0.0357771
-0.0340019
-0.0214111
-0.0214217
-0.0214798
-0.0216075
-0.021801
-0.0220539
-0.022362
-0.0227217
-0.0231299
-0.0235831
-0.0240786
-0.0246135
-0.0251851
-0.0257908
-0.0264276
-0.0270924
-0.0277816
-0.0284918
-0.0292192
-0.0299596
-0.0307084
-0.0314601
-0.0322091
-0.032949
-0.0336731
-0.0343741
-0.0350441
-0.0356746
-0.0362562
-0.0367794
-0.0372337
-0.0376085
-0.0378926
-0.0380744
-0.0381423
-0.0380839
-0.0378872
-0.0375401
-0.0370307
-0.0363477
-0.0354809
-0.0344212
-0.033161
-0.031693
-0.0300102
-0.0201797
-0.0201865
-0.0202402
-0.0203621
-0.0205462
-0.0207843
-0.0210717
-0.0214042
-0.0217783
-0.0221903
-0.0226374
-0.0231168
-0.0236261
-0.0241629
-0.0247247
-0.0253086
-0.0259116
-0.0265306
-0.0271621
-0.0278026
-0.0284476
-0.0290924
-0.0297317
-0.0303598
-0.0309706
-0.0315576
-0.0321135
-0.0326307
-0.0331009
-0.0335154
-0.0338651
-0.0341403
-0.0343313
-0.0344282
-0.0344206
-0.034298
-0.03405
-0.0336662
-0.0331369
-0.0324527
-0.031605
-0.0305861
-0.0293895
-0.028009
-0.0264362
-0.0188395
-0.0188467
-0.0189
-0.0190196
-0.0191971
-0.0194233
-0.0196924
-0.0199999
-0.020342
-0.0207149
-0.0211158
-0.0215422
-0.0219922
-0.0224637
-0.0229546
-0.0234627
-0.0239854
-0.0245199
-0.0250632
-0.0256123
-0.0261632
-0.0267116
-0.0272527
-0.0277816
-0.0282926
-0.0287798
-0.0292368
-0.0296568
-0.0300324
-0.0303559
-0.030619
-0.0308135
-0.0309308
-0.030962
-0.0308983
-0.0307306
-0.0304503
-0.0300488
-0.0295183
-0.0288508
-0.0280391
-0.0270768
-0.025959
-0.0246792
-0.0232299
-0.0173967
-0.0174112
-0.0174704
-0.0175924
-0.0177667
-0.0179834
-0.0182361
-0.0185201
-0.0188311
-0.019166
-0.0195221
-0.0198973
-0.0202902
-0.0206993
-0.0211233
-0.0215602
-0.022008
-0.0224643
-0.0229267
-0.0233925
-0.0238583
-0.0243202
-0.024774
-0.025215
-0.0256385
-0.0260392
-0.0264113
-0.0267487
-0.0270451
-0.0272935
-0.0274866
-0.0276171
-0.0276775
-0.0276603
-0.0275578
-0.0273626
-0.0270673
-0.0266651
-0.0261492
-0.0255133
-0.0247514
-0.023859
-0.022832
-0.0216647
-0.0203498
-0.0158574
-0.0158892
-0.0159638
-0.0160944
-0.016269
-0.0164779
-0.0167148
-0.0169751
-0.017255
-0.0175516
-0.0178631
-0.0181879
-0.0185255
-0.0188749
-0.0192353
-0.0196053
-0.0199834
-0.0203677
-0.0207562
-0.0211464
-0.0215356
-0.0219202
-0.0222965
-0.0226605
-0.023008
-0.0233342
-0.0236341
-0.0239023
-0.024133
-0.0243202
-0.0244577
-0.0245389
-0.0245576
-0.0245075
-0.024382
-0.0241748
-0.0238798
-0.0234914
-0.023004
-0.0224127
-0.0217131
-0.0209017
-0.0199752
-0.0189298
-0.0177573
-0.0142309
-0.0142961
-0.0143978
-0.0145436
-0.0147205
-0.014921
-0.0151402
-0.0153744
-0.0156209
-0.0158776
-0.0161434
-0.016418
-0.0167013
-0.0169933
-0.0172935
-0.017601
-0.0179146
-0.0182329
-0.0185541
-0.0188763
-0.0191969
-0.0195129
-0.0198212
-0.0201182
-0.0204001
-0.0206628
-0.0209017
-0.0211122
-0.0212891
-0.0214276
-0.0215221
-0.0215674
-0.0215579
-0.0214884
-0.0213534
-0.0211475
-0.0208659
-0.0205041
-0.0200577
-0.0195229
-0.0188963
-0.0181751
-0.0173578
-0.0164408
-0.0154182
-0.0125295
-0.0126581
-0.0128044
-0.0129683
-0.0131435
-0.013329
-0.0135236
-0.0137255
-0.0139333
-0.0141462
-0.0143643
-0.0145882
-0.0148184
-0.0150553
-0.0152989
-0.0155484
-0.015803
-0.0160614
-0.0163222
-0.0165837
-0.0168437
-0.0170996
-0.0173486
-0.0175876
-0.0178132
-0.0180219
-0.0182097
-0.0183726
-0.0185066
-0.0186074
-0.0186704
-0.0186909
-0.0186646
-0.0185869
-0.0184537
-0.0182606
-0.0180037
-0.0176794
-0.0172845
-0.016816
-0.0162713
-0.0156489
-0.0149482
-0.0141663
-0.0132984
-0.0107531
-0.0109935
-0.0112213
-0.0114064
-0.0115655
-0.0117184
-0.0118728
-0.0120301
-0.0121904
-0.012354
-0.0125218
-0.0126946
-0.0128734
-0.0130586
-0.0132498
-0.0134467
-0.0136483
-0.0138535
-0.0140611
-0.0142694
-0.0144765
-0.0146802
-0.0148778
-0.0150667
-0.0152443
-0.0154075
-0.0155531
-0.0156778
-0.0157781
-0.0158504
-0.0158909
-0.0158959
-0.015862
-0.0157859
-0.0156641
-0.0154931
-0.0152699
-0.0149918
-0.0146564
-0.0142618
-0.0138063
-0.0132894
-0.0127103
-0.0120684
-0.0113591
-0.0088688
-0.00929967
-0.00964776
-0.00986461
-0.00999065
-0.0100855
-0.0101775
-0.0102743
-0.0103772
-0.0104867
-0.0106032
-0.010727
-0.0108582
-0.0109967
-0.0111418
-0.0112927
-0.0114484
-0.0116079
-0.0117697
-0.0119323
-0.0120938
-0.0122524
-0.0124059
-0.0125524
-0.0126895
-0.0128149
-0.0129258
-0.0130195
-0.0130933
-0.0131445
-0.0131702
-0.0131676
-0.013134
-0.0130669
-0.0129636
-0.0128216
-0.0126388
-0.0124131
-0.0121431
-0.0118276
-0.0114658
-0.0110577
-0.0106041
-0.0101043
-0.00955624
-0.0072611
-0.00784076
-0.00829022
-0.00841313
-0.00839471
-0.0083778
-0.00838606
-0.00841417
-0.00845903
-0.00851869
-0.00859111
-0.0086745
-0.00876748
-0.00886882
-0.00897733
-0.0090918
-0.00921089
-0.00933327
-0.00945753
-0.00958224
-0.00970588
-0.00982693
-0.00994378
-0.0100548
-0.0101583
-0.0102523
-0.0103348
-0.0104041
-0.010458
-0.0104947
-0.010512
-0.0105076
-0.0104798
-0.0104269
-0.0103472
-0.010239
-0.0101008
-0.00993132
-0.00972968
-0.0094954
-0.00922839
-0.00892882
-0.00859865
-0.0082382
-0.0078472
-0.00710915
-0.00815024
-0.00871193
-0.00765031
-0.00685239
-0.00652988
-0.00641755
-0.00638249
-0.00638851
-0.00642166
-0.00647297
-0.00653698
-0.00661055
-0.00669167
-0.00677871
-0.00687016
-0.0069646
-0.00706077
-0.00715755
-0.0072539
-0.00734869
-0.00744072
-0.00752879
-0.00761181
-0.00768872
-0.00775836
-0.00781943
-0.00787058
-0.00791051
-0.00793791
-0.0079515
-0.00795001
-0.00793233
-0.00789747
-0.00784448
-0.00777236
-0.00768021
-0.00756739
-0.00743358
-0.00727868
-0.0071028
-0.00690712
-0.00669251
-0.00646085
-0.00621328
-0.000901701
-0.0111962
-0.0113969
-0.00711624
-0.00512094
-0.00440498
-0.00410628
-0.00397566
-0.00393657
-0.00394805
-0.0039865
-0.00403953
-0.00410073
-0.0041665
-0.00423463
-0.00430359
-0.00437234
-0.00444011
-0.00450635
-0.00457048
-0.00463193
-0.00469015
-0.00474473
-0.00479534
-0.00484164
-0.0048831
-0.00491911
-0.00494919
-0.00497305
-0.00499044
-0.00500094
-0.00500397
-0.00499905
-0.00498597
-0.00496459
-0.00493469
-0.00489598
-0.00484828
-0.00479149
-0.00472544
-0.00465002
-0.00456565
-0.00447302
-0.00437288
-0.00426646
)
;

boundaryField
{
    leftWall
    {
        type            fixedFluxPressure;
        gradient        uniform 0;
        value           nonuniform List<scalar> 
42
(
0.0279822
0.0228013
0.0178985
0.0132719
0.00891926
0.00483798
0.00102544
-0.00252133
-0.00580499
-0.00882844
-0.0115947
-0.0141074
-0.0163707
-0.0183889
-0.0201669
-0.0217096
-0.0230227
-0.0241122
-0.0249852
-0.0256494
-0.0261128
-0.026383
-0.0264677
-0.0263745
-0.0261114
-0.0256862
-0.0251073
-0.0243826
-0.0235199
-0.0225269
-0.0214111
-0.0201797
-0.0188395
-0.0173967
-0.0158574
-0.0142309
-0.0125295
-0.0107531
-0.0088688
-0.0072611
-0.00710915
-0.000901701
)
;
    }
    rightWall
    {
        type            fixedFluxPressure;
        gradient        nonuniform 0();
        value           nonuniform 0();
    }
    lowerWall
    {
        type            fixedFluxPressure;
        gradient        nonuniform 0();
        value           nonuniform 0();
    }
    atmosphere
    {
        type            totalPressure;
        rho             rho;
        psi             none;
        gamma           1;
        p0              uniform 0;
        value           nonuniform List<scalar> 
45
(
-3.49331e-05
-0.00147575
-0.00189582
-0.00201116
-0.00208371
-0.0021457
-0.00220673
-0.00226941
-0.00233374
-0.00239885
-0.00246378
-0.00252767
-0.00258983
-0.00264974
-0.00270703
-0.0027614
-0.00281268
-0.00286072
-0.00290545
-0.00294683
-0.00298484
-0.00301949
-0.00305081
-0.00307884
-0.00310363
-0.00312525
-0.00314378
-0.00315931
-0.00317194
-0.00318178
-0.00318896
-0.00319361
-0.00319586
-0.00319584
-0.00319366
-0.0031894
-0.00318312
-0.00317479
-0.00316428
-0.00315138
-0.00313569
-0.00311663
-0.0030934
-0.00306493
-0.00302982
)
;
    }
    defaultFaces
    {
        type            empty;
    }
    procBoundary2to0
    {
        type            processor;
        value           nonuniform List<scalar> 
46
(
-0.0240157
-0.0310233
-0.0382803
-0.045817
-0.0536965
-0.0620339
-0.0709979
-0.0807862
-0.0915914
-0.103574
-0.116847
-0.131481
-0.14752
-0.164994
-0.183917
-0.204269
-0.225984
-0.248952
-0.27304
-0.298109
-0.324037
-0.350734
-0.378163
-0.406365
-0.43544
0.0334465
0.0338424
0.0341851
0.0342066
0.0338089
0.0329822
0.0317231
0.0300286
0.0278994
0.0253388
0.0223516
0.0189427
0.0151165
0.0108783
0.00623523
0.00119384
-0.00424042
-0.0100672
-0.0162784
-0.0228408
-0.0228408
)
;
    }
    procBoundary2to3
    {
        type            processor;
        value           nonuniform List<scalar> 
43
(
-0.443725
-0.42209
-0.400986
-0.380614
-0.36103
-0.342187
-0.323979
-0.306279
-0.288958
-0.271919
-0.255113
-0.238533
-0.222203
-0.206163
-0.190469
-0.17519
-0.1604
-0.146182
-0.132619
-0.119785
-0.107739
-0.096521
-0.0861561
-0.0766522
-0.0680026
-0.0601844
-0.0531608
-0.0468874
-0.04131
-0.0363648
-0.0319836
-0.0281019
-0.0246602
-0.0216029
-0.0188805
-0.016452
-0.0142845
-0.012344
-0.0105872
-0.00896491
-0.00742844
-0.00595202
-0.00415474
)
;
    }
}


// ************************************************************************* //
