/*--------------------------------*- C++ -*----------------------------------*\
| =========                 |                                                 |
| \\      /  F ield         | OpenFOAM: The Open Source CFD Toolbox           |
|  \\    /   O peration     | Version:  5.0                                   |
|   \\  /    A nd           | Web:      www.OpenFOAM.org                      |
|    \\/     M anipulation  |                                                 |
\*---------------------------------------------------------------------------*/
FoamFile
{
    version     2.0;
    format      ascii;
    class       surfaceScalarField;
    location    "0.85";
    object      phi;
}
// * * * * * * * * * * * * * * * * * * * * * * * * * * * * * * * * * * * * * //

dimensions      [0 3 -1 0 0 0 0];

internalField   nonuniform List<scalar> 
3742
(
1.06093e-05
3.84952e-06
1.14074e-05
4.62146e-06
1.2241e-05
5.44813e-06
1.31116e-05
6.32983e-06
1.40206e-05
7.26633e-06
1.49693e-05
8.25701e-06
1.5959e-05
9.30057e-06
1.69908e-05
1.03949e-05
1.80657e-05
1.15368e-05
1.91841e-05
1.27222e-05
2.03457e-05
1.39459e-05
2.15498e-05
1.52011e-05
2.27941e-05
1.64797e-05
2.4075e-05
1.77715e-05
2.53862e-05
1.9064e-05
2.67185e-05
2.03416e-05
2.80583e-05
2.15853e-05
2.93867e-05
2.27717e-05
3.06781e-05
2.3872e-05
3.18984e-05
2.4852e-05
3.3005e-05
2.56717e-05
3.39459e-05
2.62856e-05
3.46616e-05
2.66452e-05
3.50879e-05
2.67012e-05
2.64096e-05
2.44426e-07
-1.28195e-06
5.30517e-07
-1.73622e-06
8.42118e-07
-1.91314e-06
1.17388e-06
-2.0114e-06
1.5237e-06
-2.06307e-06
1.89101e-06
-2.07384e-06
2.27606e-06
-2.04403e-06
2.67961e-06
-1.97282e-06
3.10268e-06
-1.85921e-06
3.54644e-06
-1.70232e-06
4.01215e-06
-1.50134e-06
4.50111e-06
-1.25554e-06
5.01466e-06
-9.64242e-07
5.55413e-06
-6.26766e-07
6.12084e-06
-2.42442e-07
6.71606e-06
1.89434e-07
7.34105e-06
6.69652e-07
7.99713e-06
1.1991e-06
8.68558e-06
1.77876e-06
9.40782e-06
2.4095e-06
1.0165e-05
3.09232e-06
1.09586e-05
3.82792e-06
1.17898e-05
4.61694e-06
1.26599e-05
5.45969e-06
1.35702e-05
6.35607e-06
1.45217e-05
7.30551e-06
1.55154e-05
8.30684e-06
1.65521e-05
9.35818e-06
1.76321e-05
1.04568e-05
1.87553e-05
1.15991e-05
1.99209e-05
1.27803e-05
2.11275e-05
1.39946e-05
2.23723e-05
1.52349e-05
2.36512e-05
1.64925e-05
2.49584e-05
1.77568e-05
2.62851e-05
1.90149e-05
2.76196e-05
2.02508e-05
2.89459e-05
2.14454e-05
3.02425e-05
2.25753e-05
3.1482e-05
2.36125e-05
3.26297e-05
2.45239e-05
3.36435e-05
2.52719e-05
3.44741e-05
2.58146e-05
3.50668e-05
2.61086e-05
2.61118e-05
2.2154e-07
-1.5035e-06
4.81966e-07
-1.9967e-06
7.67138e-07
-2.19835e-06
1.07226e-06
-2.31655e-06
1.39552e-06
-2.38633e-06
1.7365e-06
-2.4148e-06
2.09555e-06
-2.40307e-06
2.4735e-06
-2.35076e-06
2.87144e-06
-2.25716e-06
3.29065e-06
-2.12153e-06
3.7325e-06
-1.94317e-06
4.1984e-06
-1.72142e-06
4.6898e-06
-1.45564e-06
5.20817e-06
-1.14514e-06
5.75492e-06
-7.8922e-07
6.33147e-06
-3.87128e-07
6.93918e-06
6.19414e-08
7.57941e-06
5.5886e-07
8.25358e-06
1.10459e-06
8.96296e-06
1.70011e-06
9.70898e-06
2.34631e-06
1.04929e-05
3.04399e-06
1.1316e-05
3.79389e-06
1.21793e-05
4.59637e-06
1.30839e-05
5.45147e-06
1.40307e-05
6.35878e-06
1.50202e-05
7.31734e-06
1.60528e-05
8.32558e-06
1.71283e-05
9.3812e-06
1.82463e-05
1.04811e-05
1.94054e-05
1.16212e-05
2.06034e-05
1.27966e-05
2.18372e-05
1.40011e-05
2.31024e-05
1.52273e-05
2.43929e-05
1.64663e-05
2.57005e-05
1.77073e-05
2.70141e-05
1.89372e-05
2.83195e-05
2.01401e-05
2.9598e-05
2.12968e-05
3.08262e-05
2.23843e-05
3.19746e-05
2.33755e-05
3.30076e-05
2.42389e-05
3.38829e-05
2.49393e-05
3.45528e-05
2.54388e-05
2.56993e-05
2.01689e-07
-1.70518e-06
4.39056e-07
-2.2341e-06
6.99912e-07
-2.45924e-06
9.8011e-07
-2.59677e-06
1.27817e-06
-2.68441e-06
1.59389e-06
-2.73052e-06
1.92774e-06
-2.73691e-06
2.28065e-06
-2.70365e-06
2.65377e-06
-2.63029e-06
3.04848e-06
-2.51623e-06
3.46623e-06
-2.36091e-06
3.90853e-06
-2.16371e-06
4.37693e-06
-1.92403e-06
4.87299e-06
-1.64119e-06
5.39825e-06
-1.31448e-06
5.95421e-06
-9.43091e-07
6.54234e-06
-5.26181e-07
7.16404e-06
-6.28364e-08
7.82073e-06
4.47909e-07
8.51378e-06
1.00705e-06
9.24456e-06
1.61553e-06
1.00143e-05
2.27429e-06
1.08241e-05
2.9841e-06
1.16749e-05
3.7455e-06
1.25677e-05
4.55869e-06
1.3503e-05
5.4235e-06
1.4481e-05
6.33927e-06
1.55019e-05
7.30477e-06
1.65649e-05
8.31817e-06
1.7669e-05
9.37693e-06
1.88125e-05
1.04777e-05
1.99927e-05
1.16164e-05
2.12061e-05
1.27878e-05
2.24477e-05
1.39857e-05
2.37112e-05
1.52028e-05
2.49885e-05
1.643e-05
2.62691e-05
1.76566e-05
2.75396e-05
1.88696e-05
2.87831e-05
2.00533e-05
2.99786e-05
2.11888e-05
3.11003e-05
2.22539e-05
3.21167e-05
2.32225e-05
3.29908e-05
2.40652e-05
3.36798e-05
2.47498e-05
2.52428e-05
1.84362e-07
-1.88956e-06
4.01095e-07
-2.45086e-06
6.39735e-07
-2.69789e-06
8.96797e-07
-2.85385e-06
1.17116e-06
-2.95878e-06
1.46282e-06
-3.02218e-06
1.77242e-06
-3.04651e-06
2.10098e-06
-3.0322e-06
2.44975e-06
-2.97905e-06
2.82017e-06
-2.88664e-06
3.21375e-06
-2.75449e-06
3.6321e-06
-2.58207e-06
4.07685e-06
-2.36878e-06
4.54963e-06
-2.11397e-06
5.05207e-06
-1.81691e-06
5.58575e-06
-1.47678e-06
6.15224e-06
-1.09266e-06
6.75301e-06
-6.63596e-07
7.38947e-06
-1.88546e-07
8.063e-06
3.33533e-07
8.77486e-06
9.03672e-07
9.52626e-06
1.5229e-06
1.03182e-05
2.19212e-06
1.11517e-05
2.91206e-06
1.20272e-05
3.68316e-06
1.29452e-05
4.50553e-06
1.39056e-05
5.37884e-06
1.4908e-05
6.30231e-06
1.59516e-05
7.27459e-06
1.70348e-05
8.29373e-06
1.81554e-05
9.35713e-06
1.93103e-05
1.04615e-05
2.04955e-05
1.16026e-05
2.17058e-05
1.27755e-05
2.29345e-05
1.3974e-05
2.41735e-05
1.51911e-05
2.54123e-05
1.64178e-05
2.66384e-05
1.76436e-05
2.78358e-05
1.88558e-05
2.89854e-05
2.00392e-05
3.00637e-05
2.11755e-05
3.10426e-05
2.22436e-05
3.1889e-05
2.32189e-05
3.25643e-05
2.40744e-05
2.47815e-05
1.69314e-07
-2.05889e-06
3.67602e-07
-2.64917e-06
5.86019e-07
-2.91632e-06
8.21705e-07
-3.08954e-06
1.07389e-06
-3.21096e-06
1.34279e-06
-3.29109e-06
1.62919e-06
-3.33291e-06
1.93422e-06
-3.33723e-06
2.25923e-06
-3.30405e-06
2.6057e-06
-3.23311e-06
2.97522e-06
-3.12402e-06
3.36946e-06
-2.9763e-06
3.7901e-06
-2.78941e-06
4.23885e-06
-2.5627e-06
4.71738e-06
-2.29544e-06
5.22737e-06
-1.98676e-06
5.77044e-06
-1.63572e-06
6.34812e-06
-1.24127e-06
6.96186e-06
-8.0228e-07
7.61301e-06
-3.17613e-07
8.30279e-06
2.13887e-07
9.03233e-06
7.93355e-07
9.80259e-06
1.42186e-06
1.06143e-05
2.10034e-06
1.14679e-05
2.82951e-06
1.23637e-05
3.60981e-06
1.33012e-05
4.44131e-06
1.42798e-05
5.32367e-06
1.52983e-05
6.25609e-06
1.63548e-05
7.23725e-06
1.74467e-05
8.26527e-06
1.85705e-05
9.33766e-06
1.97218e-05
1.04513e-05
2.08951e-05
1.16021e-05
2.20835e-05
1.27856e-05
2.32788e-05
1.39958e-05
2.44708e-05
1.52258e-05
2.56471e-05
1.64673e-05
2.67929e-05
1.771e-05
2.78904e-05
1.89418e-05
2.8918e-05
2.01479e-05
2.98504e-05
2.13111e-05
3.06579e-05
2.24115e-05
3.1306e-05
2.34263e-05
2.43313e-05
1.56333e-07
-2.21525e-06
3.3818e-07
-2.83104e-06
5.38228e-07
-3.11638e-06
7.54226e-07
-3.30554e-06
9.85736e-07
-3.44248e-06
1.23319e-06
-3.53854e-06
1.49751e-06
-3.59724e-06
1.77992e-06
-3.61965e-06
2.08186e-06
-3.60598e-06
2.40486e-06
-3.55611e-06
2.75057e-06
-3.46973e-06
3.12069e-06
-3.34643e-06
3.51697e-06
-3.18568e-06
3.94114e-06
-2.98687e-06
4.39494e-06
-2.74923e-06
4.88008e-06
-2.4719e-06
5.39824e-06
-2.15387e-06
5.951e-06
-1.79402e-06
6.53985e-06
-1.39112e-06
7.16613e-06
-9.43903e-07
7.83107e-06
-4.51051e-07
8.53569e-06
8.87322e-08
9.28086e-06
6.76691e-07
1.00672e-05
1.31399e-06
1.08951e-05
2.00166e-06
1.17644e-05
2.74047e-06
1.26748e-05
3.53095e-06
1.36252e-05
4.37325e-06
1.46141e-05
5.26713e-06
1.56395e-05
6.21192e-06
1.66982e-05
7.20649e-06
1.77867e-05
8.24916e-06
1.89003e-05
9.33773e-06
2.00331e-05
1.04693e-05
2.11782e-05
1.16404e-05
2.23272e-05
1.28467e-05
2.34703e-05
1.40827e-05
2.45956e-05
1.5342e-05
2.5689e-05
1.66166e-05
2.67341e-05
1.78967e-05
2.77112e-05
1.91708e-05
2.85976e-05
2.04247e-05
2.93668e-05
2.16422e-05
2.99887e-05
2.28045e-05
2.38907e-05
1.4518e-07
-2.36044e-06
3.12391e-07
-2.99826e-06
4.95788e-07
-3.29979e-06
6.93698e-07
-3.50346e-06
9.06001e-07
-3.65478e-06
1.13332e-06
-3.76586e-06
1.3767e-06
-3.84063e-06
1.63747e-06
-3.88042e-06
1.91712e-06
-3.88563e-06
2.21724e-06
-3.85623e-06
2.53951e-06
-3.79201e-06
2.88568e-06
-3.69259e-06
3.25751e-06
-3.5575e-06
3.65677e-06
-3.38612e-06
4.08523e-06
-3.17769e-06
4.54465e-06
-2.93132e-06
5.03672e-06
-2.64594e-06
5.56306e-06
-2.32036e-06
6.12519e-06
-1.95326e-06
6.7245e-06
-1.54321e-06
7.3622e-06
-1.08875e-06
8.0393e-06
-5.88358e-07
8.75655e-06
-4.05634e-08
9.5145e-06
5.56047e-07
1.03134e-05
1.2028e-06
1.1153e-05
1.90086e-06
1.20327e-05
2.6512e-06
1.29515e-05
3.45449e-06
1.39075e-05
4.31109e-06
1.48984e-05
5.22099e-06
1.59211e-05
6.18378e-06
1.69717e-05
7.19862e-06
1.80452e-05
8.2642e-06
1.91359e-05
9.37867e-06
2.02367e-05
1.05396e-05
2.13396e-05
1.17439e-05
2.24347e-05
1.29875e-05
2.35111e-05
1.42657e-05
2.45555e-05
1.55722e-05
2.55528e-05
1.68994e-05
2.64855e-05
1.82381e-05
2.73335e-05
1.95768e-05
2.80736e-05
2.09021e-05
2.86799e-05
2.21982e-05
2.3447e-05
1.35561e-07
-2.49601e-06
2.89762e-07
-3.15247e-06
4.58082e-07
-3.46811e-06
6.3941e-07
-3.6848e-06
8.33912e-07
-3.84929e-06
1.04238e-06
-3.97434e-06
1.26599e-06
-4.06424e-06
1.50613e-06
-4.12057e-06
1.76434e-06
-4.14384e-06
2.04226e-06
-4.13415e-06
2.3416e-06
-4.09135e-06
2.66411e-06
-4.0151e-06
3.01158e-06
-3.90497e-06
3.38579e-06
-3.76034e-06
3.78855e-06
-3.58045e-06
4.2216e-06
-3.36438e-06
4.68669e-06
-3.11102e-06
5.18544e-06
-2.81911e-06
5.71942e-06
-2.48723e-06
6.29003e-06
-2.11382e-06
6.89851e-06
-1.69722e-06
7.54586e-06
-1.23571e-06
8.23284e-06
-7.27541e-07
8.9599e-06
-1.7101e-07
9.72717e-06
4.3553e-07
1.05344e-05
1.09363e-06
1.13809e-05
1.80471e-06
1.22654e-05
2.56998e-06
1.31861e-05
3.3904e-06
1.41404e-05
4.26662e-06
1.51252e-05
5.19895e-06
1.61365e-05
6.18735e-06
1.71694e-05
7.23135e-06
1.8218e-05
8.33003e-06
1.92756e-05
9.48197e-06
2.03343e-05
1.06851e-05
2.13851e-05
1.19368e-05
2.24174e-05
1.32334e-05
2.34193e-05
1.45702e-05
2.43774e-05
1.59413e-05
2.52761e-05
1.73393e-05
2.60982e-05
1.87548e-05
2.68239e-05
2.01764e-05
2.74316e-05
2.15905e-05
2.29811e-05
1.2726e-07
-2.62327e-06
2.69816e-07
-3.29503e-06
4.24475e-07
-3.62278e-06
5.90613e-07
-3.85095e-06
7.68648e-07
-4.02733e-06
9.59526e-07
-4.16522e-06
1.16451e-06
-4.26923e-06
1.38505e-06
-4.34111e-06
1.62273e-06
-4.38153e-06
1.87921e-06
-4.39064e-06
2.15621e-06
-4.36835e-06
2.45549e-06
-4.31439e-06
2.77884e-06
-4.22832e-06
3.12806e-06
-4.10956e-06
3.50494e-06
-3.95733e-06
3.91125e-06
-3.77069e-06
4.34874e-06
-3.5485e-06
4.81906e-06
-3.28942e-06
5.32378e-06
-2.99195e-06
5.86434e-06
-2.65438e-06
6.44201e-06
-2.27489e-06
7.05785e-06
-1.85153e-06
7.71261e-06
-1.3823e-06
8.40676e-06
-8.65159e-07
9.14039e-06
-2.98099e-07
9.9132e-06
3.20825e-07
1.07244e-05
9.9347e-07
1.15729e-05
1.72156e-06
1.24566e-05
2.50666e-06
1.33732e-05
3.35006e-06
1.43193e-05
4.25278e-06
1.52912e-05
5.21552e-06
1.62839e-05
6.2386e-06
1.7292e-05
7.32194e-06
1.8309e-05
8.465e-06
1.93274e-05
9.66668e-06
2.0339e-05
1.09252e-05
2.13343e-05
1.22381e-05
2.23027e-05
1.36018e-05
2.32325e-05
1.50116e-05
2.41104e-05
1.64614e-05
2.4922e-05
1.79432e-05
2.56511e-05
1.94473e-05
2.62802e-05
2.09613e-05
2.24706e-05
1.19922e-07
-2.7432e-06
2.52072e-07
-3.42718e-06
3.94331e-07
-3.76505e-06
5.46549e-07
-4.00317e-06
7.09362e-07
-4.19015e-06
8.83845e-07
-4.33971e-06
1.07133e-06
-4.45672e-06
1.27331e-06
-4.54311e-06
1.4914e-06
-4.59962e-06
1.72726e-06
-4.62651e-06
1.98261e-06
-4.62371e-06
2.25921e-06
-4.591e-06
2.55884e-06
-4.52796e-06
2.88327e-06
-4.434e-06
3.23431e-06
-4.30837e-06
3.61372e-06
-4.1501e-06
4.02324e-06
-3.95802e-06
4.46455e-06
-3.73073e-06
4.93924e-06
-3.46663e-06
5.44877e-06
-3.16391e-06
5.99446e-06
-2.82058e-06
6.57741e-06
-2.43448e-06
7.19845e-06
-2.00333e-06
7.85809e-06
-1.5248e-06
8.55647e-06
-9.96485e-07
9.29333e-06
-4.16035e-07
1.00679e-05
2.18863e-07
1.08791e-05
9.10427e-07
1.1725e-05
1.66076e-06
1.26032e-05
2.4718e-06
1.35108e-05
3.34521e-06
1.44439e-05
4.2824e-06
1.53981e-05
5.28439e-06
1.63682e-05
6.35184e-06
1.73483e-05
7.48494e-06
1.83316e-05
8.68336e-06
1.93107e-05
9.94611e-06
2.02774e-05
1.12714e-05
2.12225e-05
1.26567e-05
2.21362e-05
1.40979e-05
2.30077e-05
1.55899e-05
2.38253e-05
1.71256e-05
2.45764e-05
1.86962e-05
2.52475e-05
2.02901e-05
2.18936e-05
1.13387e-07
-2.85659e-06
2.36075e-07
-3.54988e-06
3.67029e-07
-3.89602e-06
5.06469e-07
-4.14261e-06
6.55213e-07
-4.33889e-06
8.14431e-07
-4.49893e-06
9.85507e-07
-4.62781e-06
1.16997e-06
-4.72758e-06
1.36943e-06
-4.79908e-06
1.58553e-06
-4.84262e-06
1.81999e-06
-4.85818e-06
2.07455e-06
-4.84556e-06
2.35096e-06
-4.80437e-06
2.65098e-06
-4.73403e-06
2.97639e-06
-4.63378e-06
3.32895e-06
-4.50266e-06
3.71038e-06
-4.33945e-06
4.12238e-06
-4.14272e-06
4.56655e-06
-3.9108e-06
5.0444e-06
-3.64176e-06
5.55729e-06
-3.33347e-06
6.10637e-06
-2.98357e-06
6.69258e-06
-2.58954e-06
7.31654e-06
-2.14875e-06
7.97849e-06
-1.65843e-06
8.67829e-06
-1.11583e-06
9.41532e-06
-5.18168e-07
1.01885e-05
1.37259e-07
1.09962e-05
8.53067e-07
1.18362e-05
1.63175e-06
1.27059e-05
2.47559e-06
1.36017e-05
3.38661e-06
1.45196e-05
4.36647e-06
1.54549e-05
5.41646e-06
1.64025e-05
6.53737e-06
1.73564e-05
7.72943e-06
1.83103e-05
8.99222e-06
1.92573e-05
1.03245e-05
2.01898e-05
1.17242e-05
2.10999e-05
1.31877e-05
2.19793e-05
1.47105e-05
2.28191e-05
1.62859e-05
2.36098e-05
1.79054e-05
2.43419e-05
1.9558e-05
2.12301e-05
1.07366e-07
-2.96396e-06
2.21403e-07
-3.66393e-06
3.41989e-07
-4.01661e-06
4.69661e-07
-4.27029e-06
6.05388e-07
-4.47462e-06
7.50401e-07
-4.64395e-06
9.06119e-07
-4.78354e-06
1.07408e-06
-4.89554e-06
1.25585e-06
-4.98087e-06
1.4531e-06
-5.03987e-06
1.66749e-06
-5.07258e-06
1.90073e-06
-5.07881e-06
2.15453e-06
-5.05818e-06
2.43065e-06
-5.01014e-06
2.7308e-06
-4.93394e-06
3.05674e-06
-4.82859e-06
3.41018e-06
-4.69289e-06
3.79281e-06
-4.52535e-06
4.20626e-06
-4.32425e-06
4.65206e-06
-4.08757e-06
5.13164e-06
-3.81305e-06
5.64625e-06
-3.49818e-06
6.19691e-06
-3.1402e-06
6.78438e-06
-2.73621e-06
7.40909e-06
-2.28314e-06
8.07107e-06
-1.77781e-06
8.76994e-06
-1.21703e-06
9.50482e-06
-5.9762e-07
1.02744e-05
8.35306e-08
1.10767e-05
8.29413e-07
1.19094e-05
1.64285e-06
1.27696e-05
2.52639e-06
1.36538e-05
3.48227e-06
1.45581e-05
4.51224e-06
1.54778e-05
5.61758e-06
1.64083e-05
6.79894e-06
1.73443e-05
8.05625e-06
1.82802e-05
9.38859e-06
1.92104e-05
1.0794e-05
2.01287e-05
1.22694e-05
2.10291e-05
1.381e-05
2.19054e-05
1.54096e-05
2.27513e-05
1.70596e-05
2.35603e-05
1.8749e-05
2.04643e-05
1.01664e-07
-3.06562e-06
2.07675e-07
-3.76995e-06
3.18678e-07
-4.12761e-06
4.35471e-07
-4.38708e-06
5.5913e-07
-4.59828e-06
6.90922e-07
-4.77575e-06
8.32277e-07
-4.9249e-06
9.84705e-07
-5.04797e-06
1.14976e-06
-5.14593e-06
1.32906e-06
-5.21918e-06
1.52424e-06
-5.26776e-06
1.73695e-06
-5.29151e-06
1.96886e-06
-5.29009e-06
2.22167e-06
-5.26295e-06
2.49709e-06
-5.20935e-06
2.79681e-06
-5.12831e-06
3.12255e-06
-5.01862e-06
3.47597e-06
-4.87878e-06
3.85873e-06
-4.70701e-06
4.2724e-06
-4.50125e-06
4.71848e-06
-4.25913e-06
5.19829e-06
-3.97799e-06
5.713e-06
-3.65491e-06
6.26353e-06
-3.28675e-06
6.85053e-06
-2.87013e-06
7.47427e-06
-2.40155e-06
8.13467e-06
-1.87742e-06
8.83118e-06
-1.29413e-06
9.56282e-06
-6.48111e-07
1.03281e-05
6.40947e-08
1.11252e-05
8.45754e-07
1.19517e-05
1.69988e-06
1.28049e-05
2.62912e-06
1.36815e-05
3.63566e-06
1.4578e-05
4.72108e-06
1.54906e-05
5.88631e-06
1.64154e-05
7.13147e-06
1.73482e-05
8.45575e-06
1.8285e-05
9.85723e-06
1.92217e-05
1.13327e-05
2.01543e-05
1.28774e-05
2.1079e-05
1.44849e-05
2.19921e-05
1.61465e-05
2.28901e-05
1.7851e-05
1.95847e-05
9.61002e-08
-3.16173e-06
1.94561e-07
-3.86843e-06
2.96632e-07
-4.2297e-06
4.03322e-07
-4.49378e-06
5.15768e-07
-4.71073e-06
6.35248e-07
-4.89525e-06
7.63177e-07
-5.05283e-06
9.01024e-07
-5.18581e-06
1.0503e-06
-5.29521e-06
1.21257e-06
-5.38144e-06
1.38941e-06
-5.44459e-06
1.58243e-06
-5.48452e-06
1.79323e-06
-5.50089e-06
2.02345e-06
-5.49318e-06
2.27477e-06
-5.46066e-06
2.54883e-06
-5.40237e-06
2.84731e-06
-5.31711e-06
3.17189e-06
-5.20336e-06
3.52422e-06
-5.05935e-06
3.90593e-06
-4.88295e-06
4.31854e-06
-4.67174e-06
4.76352e-06
-4.42297e-06
5.24217e-06
-4.13356e-06
5.7556e-06
-3.80018e-06
6.30469e-06
-3.41922e-06
6.89004e-06
-2.9869e-06
7.5119e-06
-2.49928e-06
8.17014e-06
-1.95237e-06
8.86425e-06
-1.34222e-06
9.59329e-06
-6.64945e-07
1.0356e-05
8.31e-08
1.11505e-05
9.05296e-07
1.1975e-05
1.80462e-06
1.28271e-05
2.78355e-06
1.37043e-05
3.8439e-06
1.46039e-05
4.98673e-06
1.55232e-05
6.21219e-06
1.64595e-05
7.51944e-06
1.74103e-05
8.90641e-06
1.83733e-05
1.03697e-05
1.93465e-05
1.19043e-05
2.03281e-05
1.35033e-05
2.13167e-05
1.51578e-05
2.23113e-05
1.68564e-05
1.8585e-05
9.05699e-08
-3.25231e-06
1.81799e-07
-3.95969e-06
2.75477e-07
-4.3234e-06
3.72736e-07
-4.59105e-06
4.74737e-07
-4.81274e-06
5.82745e-07
-5.00327e-06
6.98126e-07
-5.16822e-06
8.22297e-07
-5.30998e-06
9.56711e-07
-5.42963e-06
1.10286e-06
-5.52759e-06
1.26226e-06
-5.60399e-06
1.43645e-06
-5.6587e-06
1.62697e-06
-5.69141e-06
1.83541e-06
-5.70161e-06
2.06335e-06
-5.6886e-06
2.31243e-06
-5.65145e-06
2.58428e-06
-5.58896e-06
2.88055e-06
-5.49964e-06
3.20291e-06
-5.38171e-06
3.55301e-06
-5.23305e-06
3.93245e-06
-5.05119e-06
4.3428e-06
-4.83332e-06
4.78552e-06
-4.57628e-06
5.26192e-06
-4.27659e-06
5.77316e-06
-3.93046e-06
6.32016e-06
-3.5339e-06
6.90357e-06
-3.08269e-06
7.52375e-06
-2.57254e-06
8.1807e-06
-1.99916e-06
8.87412e-06
-1.35835e-06
9.60334e-06
-6.4612e-07
1.03674e-05
1.412e-07
1.11652e-05
1.00684e-06
1.19953e-05
1.95345e-06
1.28562e-05
2.98298e-06
1.37464e-05
4.09652e-06
1.46645e-05
5.29417e-06
1.5609e-05
6.57491e-06
1.6579e-05
7.93643e-06
1.75737e-05
9.37498e-06
1.85928e-05
1.08852e-05
1.96364e-05
1.24598e-05
2.07048e-05
1.40893e-05
2.1799e-05
1.57622e-05
1.7464e-05
8.49532e-08
-3.33728e-06
1.69201e-07
-4.04397e-06
2.54934e-07
-4.40916e-06
3.43351e-07
-4.67949e-06
4.35599e-07
-4.905e-06
5.32903e-07
-5.10058e-06
6.3656e-07
-5.27188e-06
7.47916e-07
-5.42134e-06
8.6835e-07
-5.55007e-06
9.99282e-07
-5.65853e-06
1.14215e-06
-5.74686e-06
1.2984e-06
-5.81495e-06
1.46952e-06
-5.86253e-06
1.65701e-06
-5.88911e-06
1.86242e-06
-5.89401e-06
2.0873e-06
-5.87633e-06
2.33325e-06
-5.83491e-06
2.6019e-06
-5.7683e-06
2.89492e-06
-5.67473e-06
3.21397e-06
-5.55211e-06
3.56073e-06
-5.39796e-06
3.93687e-06
-5.20946e-06
4.34399e-06
-4.98341e-06
4.78365e-06
-4.71625e-06
5.25727e-06
-4.40408e-06
5.76612e-06
-4.04274e-06
6.31129e-06
-3.62785e-06
6.89362e-06
-3.15487e-06
7.51374e-06
-2.61927e-06
8.17198e-06
-2.01659e-06
8.86843e-06
-1.34257e-06
9.60297e-06
-5.9334e-07
1.03753e-05
2.34515e-07
1.1185e-05
1.14376e-06
1.20316e-05
2.13639e-06
1.29147e-05
3.21344e-06
1.38339e-05
4.37488e-06
1.47894e-05
5.61945e-06
1.57813e-05
6.94454e-06
1.68103e-05
8.34601e-06
1.78774e-05
9.81804e-06
1.89842e-05
1.13529e-05
2.01327e-05
1.29409e-05
2.1325e-05
1.45699e-05
1.62254e-05
7.91606e-08
-3.41646e-06
1.56653e-07
-4.1215e-06
2.34824e-07
-4.48736e-06
3.14925e-07
-4.7596e-06
3.98051e-07
-4.98814e-06
4.85359e-07
-5.18789e-06
5.78064e-07
-5.36459e-06
6.77425e-07
-5.52071e-06
7.84736e-07
-5.65739e-06
9.01327e-07
-5.77513e-06
1.02855e-06
-5.87409e-06
1.16777e-06
-5.95419e-06
1.3204e-06
-6.01516e-06
1.48786e-06
-6.05657e-06
1.67161e-06
-6.07777e-06
1.87316e-06
-6.07789e-06
2.09407e-06
-6.05582e-06
2.33591e-06
-6.01016e-06
2.60036e-06
-5.93919e-06
2.88909e-06
-5.84085e-06
3.20384e-06
-5.71272e-06
3.54636e-06
-5.552e-06
3.91843e-06
-5.35549e-06
4.3218e-06
-5.11962e-06
4.75817e-06
-4.84045e-06
5.22917e-06
-4.51375e-06
5.73634e-06
-4.13501e-06
6.28104e-06
-3.69957e-06
6.8645e-06
-3.20273e-06
7.48776e-06
-2.63984e-06
8.15168e-06
-2.00649e-06
8.85699e-06
-1.29864e-06
9.60427e-06
-5.12764e-07
1.03941e-05
3.53955e-07
1.1227e-05
1.30349e-06
1.21036e-05
2.3368e-06
1.30248e-05
3.45367e-06
1.39917e-05
4.65258e-06
1.50057e-05
5.93058e-06
1.60686e-05
7.28314e-06
1.71826e-05
8.70401e-06
1.83504e-05
1.01851e-05
1.95751e-05
1.17162e-05
2.08599e-05
1.32851e-05
1.4877e-05
7.32777e-08
-3.48977e-06
1.44119e-07
-4.19238e-06
2.15078e-07
-4.55834e-06
2.87339e-07
-4.83187e-06
3.61927e-07
-5.06273e-06
4.39903e-07
-5.26588e-06
5.22385e-07
-5.44708e-06
6.10532e-07
-5.60886e-06
7.05543e-07
-5.75241e-06
8.08654e-07
-5.87825e-06
9.21118e-07
-5.98657e-06
1.04422e-06
-6.0773e-06
1.17928e-06
-6.15023e-06
1.32764e-06
-6.20494e-06
1.49068e-06
-6.24082e-06
1.66985e-06
-6.25707e-06
1.86664e-06
-6.25262e-06
2.08261e-06
-6.22613e-06
2.31938e-06
-6.17597e-06
2.57866e-06
-6.10013e-06
2.86221e-06
-5.99628e-06
3.17189e-06
-5.86168e-06
3.50958e-06
-5.6932e-06
3.87726e-06
-5.4873e-06
4.27688e-06
-5.24008e-06
4.71043e-06
-4.9473e-06
5.17986e-06
-4.60444e-06
5.68707e-06
-4.20678e-06
6.23389e-06
-3.74955e-06
6.82206e-06
-3.22801e-06
7.45323e-06
-2.63765e-06
8.12895e-06
-1.97435e-06
8.85073e-06
-1.23454e-06
9.62007e-06
-4.15385e-07
1.04385e-05
4.85039e-07
1.13078e-05
1.46758e-06
1.22296e-05
2.53183e-06
1.32061e-05
3.67604e-06
1.42398e-05
4.89691e-06
1.53334e-05
6.18957e-06
1.649e-05
7.54738e-06
1.77132e-05
8.96189e-06
1.90068e-05
1.04227e-05
2.03746e-05
1.19172e-05
1.34308e-05
6.7263e-08
-3.55705e-06
1.31655e-07
-4.2568e-06
1.95728e-07
-4.62243e-06
2.60605e-07
-4.89675e-06
3.27207e-07
-5.12934e-06
3.9648e-07
-5.33516e-06
4.69433e-07
-5.52004e-06
5.47114e-07
-5.68656e-06
6.30622e-07
-5.83593e-06
7.21087e-07
-5.96873e-06
8.19667e-07
-6.08516e-06
9.27555e-07
-6.1852e-06
1.04597e-06
-6.26866e-06
1.17619e-06
-6.33516e-06
1.3195e-06
-6.38415e-06
1.47729e-06
-6.41487e-06
1.65097e-06
-6.42632e-06
1.84207e-06
-6.41724e-06
2.05218e-06
-6.38608e-06
2.28298e-06
-6.33095e-06
2.5363e-06
-6.2496e-06
2.81402e-06
-6.13941e-06
3.11818e-06
-5.99736e-06
3.45089e-06
-5.82001e-06
3.81436e-06
-5.60356e-06
4.21091e-06
-5.34384e-06
4.64288e-06
-5.0364e-06
5.11266e-06
-4.67656e-06
5.62268e-06
-4.25956e-06
6.17534e-06
-3.78066e-06
6.77305e-06
-3.23535e-06
7.41818e-06
-2.61947e-06
8.11312e-06
-1.92947e-06
8.86029e-06
-1.16255e-06
9.66218e-06
-3.1684e-07
1.05214e-05
6.0839e-07
1.14406e-05
1.61259e-06
1.24229e-05
2.69375e-06
1.34715e-05
3.84834e-06
1.45899e-05
5.07117e-06
1.57819e-05
6.35533e-06
1.70518e-05
7.69209e-06
1.84036e-05
9.07083e-06
1.98418e-05
1.0479e-05
1.1902e-05
6.12062e-08
-3.61827e-06
1.19343e-07
-4.31495e-06
1.76904e-07
-4.67999e-06
2.34857e-07
-4.95471e-06
2.94012e-07
-5.1885e-06
3.55192e-07
-5.39634e-06
4.19281e-07
-5.58413e-06
4.87217e-07
-5.7545e-06
5.59987e-07
-5.90871e-06
6.38616e-07
-6.04737e-06
7.24163e-07
-6.17072e-06
8.17727e-07
-6.27878e-06
9.2044e-07
-6.37138e-06
1.03348e-06
-6.44821e-06
1.15807e-06
-6.50875e-06
1.2955e-06
-6.55231e-06
1.44715e-06
-6.57797e-06
1.61446e-06
-6.58456e-06
1.79899e-06
-6.57062e-06
2.00242e-06
-6.53439e-06
2.22656e-06
-6.47375e-06
2.47336e-06
-6.38622e-06
2.74492e-06
-6.26892e-06
3.0435e-06
-6.1186e-06
3.37154e-06
-5.93159e-06
3.7316e-06
-5.70389e-06
4.12639e-06
-5.43119e-06
4.55876e-06
-5.10893e-06
5.03166e-06
-4.73245e-06
5.54811e-06
-4.29711e-06
6.11123e-06
-3.79845e-06
6.72416e-06
-3.2324e-06
7.39012e-06
-2.59542e-06
8.11237e-06
-1.88479e-06
8.89427e-06
-1.09873e-06
9.73927e-06
-2.36608e-07
1.06509e-05
7.00905e-07
1.1633e-05
1.71165e-06
1.26895e-05
2.7919e-06
1.38244e-05
3.93625e-06
1.50421e-05
5.13761e-06
1.63471e-05
6.38709e-06
1.77439e-05
7.67404e-06
1.9237e-05
8.98594e-06
1.03085e-05
5.52011e-08
-3.67348e-06
1.07407e-07
-4.36718e-06
1.58835e-07
-4.73144e-06
2.10344e-07
-5.00624e-06
2.62595e-07
-5.24076e-06
3.1628e-07
-5.45003e-06
3.72152e-07
-5.64001e-06
4.31034e-07
-5.81339e-06
4.93804e-07
-5.97149e-06
5.6138e-07
-6.11495e-06
6.34725e-07
-6.24407e-06
7.14843e-07
-6.35891e-06
8.02775e-07
-6.45933e-06
8.99613e-07
-6.54506e-06
1.0065e-06
-6.61565e-06
1.12466e-06
-6.67047e-06
1.25537e-06
-6.70869e-06
1.40003e-06
-6.72923e-06
1.56015e-06
-6.73075e-06
1.73738e-06
-6.71162e-06
1.9335e-06
-6.66988e-06
2.1505e-06
-6.60321e-06
2.39052e-06
-6.50895e-06
2.65594e-06
-6.38402e-06
2.94933e-06
-6.22498e-06
3.27349e-06
-6.02805e-06
3.63144e-06
-5.78913e-06
4.02638e-06
-5.50386e-06
4.46173e-06
-5.16779e-06
4.94107e-06
-4.77645e-06
5.46813e-06
-4.32551e-06
6.04676e-06
-3.81102e-06
6.68091e-06
-3.22957e-06
7.37463e-06
-2.5785e-06
8.13204e-06
-1.85614e-06
8.95737e-06
-1.06194e-06
9.85494e-06
-1.96664e-07
1.08291e-05
7.3745e-07
1.18845e-05
1.73658e-06
1.30255e-05
2.79523e-06
1.42569e-05
3.90622e-06
1.55833e-05
5.06067e-06
1.70094e-05
6.24796e-06
1.85395e-05
7.45578e-06
8.67017e-06
4.9473e-08
-3.72296e-06
9.60764e-08
-4.41381e-06
1.41841e-07
-4.77723e-06
1.87422e-07
-5.05183e-06
2.33325e-07
-5.28667e-06
2.80104e-07
-5.49682e-06
3.28389e-07
-5.6883e-06
3.78886e-07
-5.8639e-06
4.32367e-07
-6.02497e-06
4.89647e-07
-6.17224e-06
5.51599e-07
-6.30603e-06
6.19132e-07
-6.42645e-06
6.93201e-07
-6.5334e-06
7.74814e-07
-6.62668e-06
8.65032e-07
-6.70588e-06
9.64989e-07
-6.77044e-06
1.07591e-06
-6.81962e-06
1.19911e-06
-6.85244e-06
1.33604e-06
-6.86769e-06
1.48831e-06
-6.86389e-06
1.65766e-06
-6.83924e-06
1.84608e-06
-6.79164e-06
2.05573e-06
-6.71861e-06
2.28904e-06
-6.61733e-06
2.5487e-06
-6.48464e-06
2.83765e-06
-6.31701e-06
3.15913e-06
-6.11061e-06
3.51666e-06
-5.86139e-06
3.91402e-06
-5.56515e-06
4.35523e-06
-5.21766e-06
4.84456e-06
-4.81483e-06
5.38644e-06
-4.35289e-06
5.98547e-06
-3.82859e-06
6.64637e-06
-3.2394e-06
7.37396e-06
-2.58372e-06
8.17312e-06
-1.8611e-06
9.0488e-06
-1.07234e-06
1.0006e-05
-2.19719e-07
1.10496e-05
6.92964e-07
1.21846e-05
1.66024e-06
1.34158e-05
2.67499e-06
1.4748e-05
3.72842e-06
1.61859e-05
4.81011e-06
1.77336e-05
5.90807e-06
7.00882e-06
4.40943e-08
-3.76707e-06
8.56716e-08
-4.45542e-06
1.26318e-07
-4.8179e-06
1.66526e-07
-5.09205e-06
2.0665e-07
-5.32681e-06
2.47111e-07
-5.53729e-06
2.88421e-07
-5.72962e-06
3.31179e-07
-5.90666e-06
3.76057e-07
-6.06986e-06
4.23776e-07
-6.21997e-06
4.75119e-07
-6.35738e-06
5.3091e-07
-6.48224e-06
5.92023e-07
-6.59452e-06
6.5938e-07
-6.69403e-06
7.33961e-07
-6.78046e-06
8.16824e-07
-6.85331e-06
9.09111e-07
-6.91191e-06
1.01207e-06
-6.95541e-06
1.12709e-06
-6.98272e-06
1.2557e-06
-6.99251e-06
1.39962e-06
-6.98317e-06
1.56076e-06
-6.95279e-06
1.74131e-06
-6.89916e-06
1.94368e-06
-6.81972e-06
2.17062e-06
-6.71159e-06
2.42517e-06
-6.57156e-06
2.7107e-06
-6.39614e-06
3.03093e-06
-6.18162e-06
3.38991e-06
-5.92412e-06
3.792e-06
-5.61974e-06
4.24186e-06
-5.26468e-06
4.74441e-06
-4.85543e-06
5.30476e-06
-4.38893e-06
5.92818e-06
-3.86282e-06
6.62007e-06
-3.27561e-06
7.38587e-06
-2.6269e-06
8.23104e-06
-1.91751e-06
9.16102e-06
-1.1497e-06
1.01812e-05
-3.27176e-07
1.12967e-05
5.44737e-07
1.25126e-05
1.4591e-06
1.38336e-05
2.40736e-06
1.52643e-05
3.37943e-06
1.68086e-05
4.36374e-06
5.34737e-06
3.9417e-08
-3.80651e-06
7.65516e-08
-4.4926e-06
1.12704e-07
-4.85408e-06
1.48131e-07
-5.1275e-06
1.83057e-07
-5.36174e-06
2.17782e-07
-5.57203e-06
2.52714e-07
-5.76457e-06
2.88357e-07
-5.94232e-06
3.25291e-07
-6.1068e-06
3.64159e-07
-6.25884e-06
4.05659e-07
-6.39888e-06
4.50536e-07
-6.52712e-06
4.99589e-07
-6.64357e-06
5.53658e-07
-6.7481e-06
6.13645e-07
-6.84045e-06
6.80529e-07
-6.92019e-06
7.55376e-07
-6.98676e-06
8.39357e-07
-7.0394e-06
9.33777e-07
-7.07715e-06
1.0401e-06
-7.09884e-06
1.15996e-06
-7.10304e-06
1.29523e-06
-7.08808e-06
1.44803e-06
-7.05197e-06
1.62076e-06
-6.99246e-06
1.81614e-06
-6.90697e-06
2.03724e-06
-6.79266e-06
2.28748e-06
-6.64639e-06
2.57069e-06
-6.46483e-06
2.89107e-06
-6.2445e-06
3.25319e-06
-5.98186e-06
3.66198e-06
-5.67347e-06
4.12268e-06
-5.31612e-06
4.64079e-06
-4.90703e-06
5.22201e-06
-4.44403e-06
5.87215e-06
-3.92575e-06
6.59711e-06
-3.35185e-06
7.40276e-06
-2.72315e-06
8.29488e-06
-2.04182e-06
9.27913e-06
-1.31143e-06
1.03609e-05
-5.37078e-07
1.15454e-05
2.74599e-07
1.28374e-05
1.11543e-06
1.42411e-05
1.97577e-06
1.57602e-05
2.84458e-06
3.70958e-06
3.55519e-08
-3.84209e-06
6.91257e-08
-4.52621e-06
1.0145e-07
-4.88642e-06
1.32714e-07
-5.15878e-06
1.63021e-07
-5.39206e-06
1.92577e-07
-5.60159e-06
2.21704e-07
-5.79371e-06
2.50831e-07
-5.97145e-06
2.8046e-07
-6.13643e-06
3.11164e-07
-6.28955e-06
3.43569e-07
-6.43129e-06
3.78353e-07
-6.5619e-06
4.16237e-07
-6.68144e-06
4.57989e-07
-6.78985e-06
5.04435e-07
-6.8869e-06
5.56477e-07
-6.97224e-06
6.151e-07
-7.0454e-06
6.81394e-07
-7.10571e-06
7.56579e-07
-7.15235e-06
8.42031e-07
-7.1843e-06
9.39307e-07
-7.20033e-06
1.05019e-06
-7.19897e-06
1.17671e-06
-7.17851e-06
1.32121e-06
-7.13696e-06
1.48633e-06
-7.07211e-06
1.6751e-06
-6.98144e-06
1.89092e-06
-6.86222e-06
2.13762e-06
-6.71154e-06
2.41943e-06
-6.52632e-06
2.74101e-06
-6.30345e-06
3.10742e-06
-6.03988e-06
3.52407e-06
-5.73277e-06
3.99668e-06
-5.37964e-06
4.53122e-06
-4.97855e-06
5.13378e-06
-4.52831e-06
5.81057e-06
-4.02863e-06
6.56775e-06
-3.48032e-06
7.41135e-06
-2.88542e-06
8.34724e-06
-2.24732e-06
9.38098e-06
-1.57082e-06
1.05178e-05
-8.62187e-07
1.17623e-05
-1.2911e-07
1.31188e-05
6.19333e-07
1.45906e-05
1.37273e-06
2.11956e-06
3.28555e-08
-3.87497e-06
6.36799e-08
-4.55707e-06
9.29385e-08
-4.9157e-06
1.20669e-07
-5.18653e-06
1.46924e-07
-5.41833e-06
1.71853e-07
-5.62653e-06
1.95722e-07
-5.81759e-06
2.18904e-07
-5.99464e-06
2.41842e-07
-6.15938e-06
2.65057e-07
-6.31276e-06
2.8911e-07
-6.45534e-06
3.14618e-07
-6.5874e-06
3.42233e-07
-6.70906e-06
3.72653e-07
-6.82027e-06
4.06634e-07
-6.92088e-06
4.44999e-07
-7.01062e-06
4.88649e-07
-7.08906e-06
5.38592e-07
-7.15566e-06
5.95957e-07
-7.20972e-06
6.62023e-07
-7.25037e-06
7.38248e-07
-7.27656e-06
8.26309e-07
-7.28704e-06
9.28134e-07
-7.28034e-06
1.04594e-06
-7.25478e-06
1.18228e-06
-7.20845e-06
1.34005e-06
-7.13922e-06
1.52256e-06
-7.04475e-06
1.73355e-06
-6.92253e-06
1.97717e-06
-6.76995e-06
2.25805e-06
-6.58433e-06
2.58123e-06
-6.36305e-06
2.95212e-06
-6.10367e-06
3.37653e-06
-5.80404e-06
3.86049e-06
-5.46251e-06
4.41025e-06
-5.07807e-06
5.03214e-06
-4.65052e-06
5.73249e-06
-4.18066e-06
6.51747e-06
-3.6704e-06
7.39304e-06
-3.12289e-06
8.36483e-06
-2.54261e-06
9.43801e-06
-1.93537e-06
1.06172e-05
-1.30833e-06
1.19065e-05
-6.69951e-07
1.33091e-05
-2.98839e-08
6.01158e-07
3.15184e-08
-3.90651e-06
6.05792e-08
-4.58617e-06
8.74518e-08
-4.9426e-06
1.12241e-07
-5.21133e-06
1.34968e-07
-5.44107e-06
1.55772e-07
-5.64734e-06
1.74894e-07
-5.83671e-06
1.92675e-07
-6.01242e-06
2.09526e-07
-6.17623e-06
2.2592e-07
-6.32916e-06
2.42371e-07