/*--------------------------------*- C++ -*----------------------------------*\
| =========                 |                                                 |
| \\      /  F ield         | OpenFOAM: The Open Source CFD Toolbox           |
|  \\    /   O peration     | Version:  5.0                                   |
|   \\  /    A nd           | Web:      www.OpenFOAM.org                      |
|    \\/     M anipulation  |                                                 |
\*---------------------------------------------------------------------------*/
FoamFile
{
    version     2.0;
    format      ascii;
    class       volVectorField;
    location    "0.85";
    object      U;
}
// * * * * * * * * * * * * * * * * * * * * * * * * * * * * * * * * * * * * * //

dimensions      [0 1 -1 0 0 0 0];

internalField   nonuniform List<vector> 
1915
(
(0.105597 0.0456294 0)
(0.113665 0.0541515 0)
(0.122092 0.0632693 0)
(0.130894 0.0729876 0)
(0.140087 0.0833043 0)
(0.149684 0.0942118 0)
(0.159697 0.105695 0)
(0.17014 0.11773 0)
(0.181022 0.130282 0)
(0.192352 0.143306 0)
(0.204131 0.15674 0)
(0.216356 0.170508 0)
(0.229012 0.184516 0)
(0.242071 0.198645 0)
(0.255483 0.212749 0)
(0.269169 0.226647 0)
(0.283015 0.240112 0)
(0.296857 0.252866 0)
(0.310468 0.264567 0)
(0.323544 0.27481 0)
(0.335691 0.283119 0)
(0.346417 0.288962 0)
(0.35514 0.291774 0)
(0.361215 0.290995 0)
(0.363959 0.286146 0)
(0.00132218 -0.012575 0)
(0.00398201 -0.017267 0)
(0.00699171 -0.0190426 0)
(0.0102694 -0.0199954 0)
(0.0137612 -0.0204555 0)
(0.0174337 -0.0204765 0)
(0.0212842 -0.0200582 0)
(0.0253191 -0.0191893 0)
(0.0295481 -0.0178575 0)
(0.0339826 -0.0160518 0)
(0.0386352 -0.0137629 0)
(0.0435191 -0.0109829 0)
(0.0486478 -0.00770454 0)
(0.0540352 -0.00392079 0)
(0.0596948 0.000375679 0)
(0.0656398 0.00519274 0)
(0.0718829 0.0105391 0)
(0.0784374 0.0164241 0)
(0.0853162 0.022859 0)
(0.0925343 0.0298516 0)
(0.100106 0.0374144 0)
(0.108041 0.0455527 0)
(0.116355 0.0542739 0)
(0.125062 0.0635814 0)
(0.134175 0.0734727 0)
(0.143705 0.0839407 0)
(0.153662 0.0949717 0)
(0.164056 0.106544 0)
(0.174891 0.118628 0)
(0.186169 0.13118 0)
(0.197887 0.144149 0)
(0.210034 0.157467 0)
(0.22259 0.171051 0)
(0.235521 0.184799 0)
(0.248778 0.198586 0)
(0.262286 0.212261 0)
(0.275944 0.225636 0)
(0.289611 0.238485 0)
(0.303099 0.250531 0)
(0.316162 0.261442 0)
(0.328481 0.270828 0)
(0.339665 0.278244 0)
(0.349244 0.283204 0)
(0.356679 0.285207 0)
(0.361387 0.28378 0)
(0.00117351 -0.015081 0)
(0.00357676 -0.0202084 0)
(0.0063001 -0.0222558 0)
(0.00927975 -0.023426 0)
(0.012469 -0.0240824 0)
(0.015839 -0.0242946 0)
(0.0193884 -0.0240706 0)
(0.0231242 -0.023404 0)
(0.0270568 -0.0222856 0)
(0.0311982 -0.0207067 0)
(0.0355622 -0.0186592 0)
(0.0401628 -0.0161356 0)
(0.0450148 -0.0131286 0)
(0.0501329 -0.00963086 0)
(0.0555318 -0.00563501 0)
(0.0612259 -0.00113318 0)
(0.0672291 0.00388319 0)
(0.0735551 0.00942346 0)
(0.080218 0.0154979 0)
(0.0872324 0.0221172 0)
(0.0946114 0.0292901 0)
(0.102368 0.0370248 0)
(0.110516 0.0453301 0)
(0.119067 0.0542082 0)
(0.128033 0.0636587 0)
(0.137422 0.073676 0)
(0.147243 0.0842484 0)
(0.157501 0.0953571 0)
(0.168195 0.106975 0)
(0.179323 0.119067 0)
(0.190875 0.131585 0)
(0.202835 0.144471 0)
(0.215178 0.157654 0)
(0.227865 0.171047 0)
(0.240845 0.184544 0)
(0.254045 0.198018 0)
(0.267371 0.211315 0)
(0.280696 0.224247 0)
(0.293854 0.236586 0)
(0.306635 0.248061 0)
(0.318772 0.258351 0)
(0.329935 0.267083 0)
(0.339732 0.273845 0)
(0.347701 0.278197 0)
(0.353328 0.279706 0)
(0.00104902 -0.0173558 0)
(0.00322449 -0.0228865 0)
(0.00568889 -0.0251951 0)
(0.00839469 -0.026578 0)
(0.0113022 -0.0274292 0)
(0.0143871 -0.0278328 0)
(0.0176499 -0.0278049 0)
(0.0210987 -0.0273437 0)
(0.0247443 -0.0264432 0)
(0.0285996 -0.0250962 0)
(0.0326789 -0.0232958 0)
(0.0369972 -0.0210353 0)
(0.0415701 -0.0183077 0)
(0.0464132 -0.0151059 0)
(0.051542 -0.011422 0)
(0.0569719 -0.00724773 0)
(0.0627179 -0.00257421 0)
(0.0687942 0.00260809 0)
(0.0752151 0.00830939 0)
(0.0819947 0.0145402 0)
(0.0891469 0.0213104 0)
(0.0966844 0.02863 0)
(0.104619 0.0365062 0)
(0.112963 0.044944 0)
(0.121724 0.0539445 0)
(0.130911 0.0635043 0)
(0.140527 0.0736145 0)
(0.150574 0.0842601 0)
(0.161049 0.0954184 0)
(0.171943 0.107059 0)
(0.183243 0.119142 0)
(0.194927 0.131619 0)
(0.206965 0.144429 0)
(0.219315 0.157499 0)
(0.231921 0.170741 0)
(0.244713 0.184048 0)
(0.257596 0.197292 0)
(0.270453 0.21032 0)
(0.283134 0.222943 0)
(0.295449 0.23494 0)
(0.307166 0.246045 0)
(0.317997 0.25595 0)
(0.3276 0.264309 0)
(0.335572 0.270744 0)
(0.341455 0.274869 0)
(0.000943791 -0.0194316 0)
(0.00291737 -0.0253299 0)
(0.00514895 -0.0278838 0)
(0.00760486 -0.0294711 0)
(0.0102518 -0.0305126 0)
(0.01307 -0.0311054 0)
(0.0160621 -0.0312726 0)
(0.0192369 -0.0310171 0)
(0.0226062 -0.0303355 0)
(0.0261836 -0.0292224 0)
(0.029984 -0.0276721 0)
(0.0340228 -0.0256784 0)
(0.0383164 -0.0232349 0)
(0.042881 -0.0203344 0)
(0.0477328 -0.016969 0)
(0.052888 -0.0131301 0)
(0.0583623 -0.00880815 0)
(0.0641707 -0.00399303 0)
(0.0703277 0.00132592 0)
(0.0768471 0.00715964 0)
(0.083742 0.0135189 0)
(0.091025 0.0204139 0)
(0.0987074 0.0278538 0)
(0.106799 0.0358453 0)
(0.115307 0.0443917 0)
(0.124237 0.0534924 0)
(0.133592 0.063142 0)
(0.143368 0.0733294 0)
(0.153559 0.0840374 0)
(0.164153 0.0952418 0)
(0.175133 0.106911 0)
(0.186471 0.119004 0)
(0.198133 0.131471 0)
(0.210074 0.144253 0)
(0.222236 0.157276 0)
(0.234545 0.170453 0)
(0.24691 0.18368 0)
(0.259218 0.19683 0)
(0.271327 0.209752 0)
(0.283066 0.222262 0)
(0.294223 0.234144 0)
(0.304543 0.245145 0)
(0.313721 0.254978 0)
(0.321402 0.263322 0)
(0.327176 0.269846 0)
(0.000854968 -0.0213335 0)
(0.00265022 -0.0275631 0)
(0.00467298 -0.0303442 0)
(0.00690178 -0.0321244 0)
(0.00930892 -0.0333488 0)
(0.0118791 -0.0341256 0)
(0.0146165 -0.0344845 0)
(0.0175314 -0.0344324 0)
(0.0206362 -0.0339682 0)
(0.0239452 -0.0330883 0)
(0.0274736 -0.031788 0)
(0.0312375 -0.0300619 0)
(0.0352535 -0.027904 0)
(0.0395384 -0.0253071 0)
(0.044109 -0.0222633 0)
(0.0489818 -0.0187636 0)
(0.0541731 -0.014798 0)
(0.0596985 -0.0103554 0)
(0.0655728 -0.00542452 0)
(0.0718099 6.57528e-06 0)
(0.0784223 0.00594956 0)
(0.0854216 0.0124159 0)
(0.0928185 0.0194163 0)
(0.100621 0.0269597 0)
(0.108837 0.0350521 0)
(0.117467 0.0436963 0)
(0.126513 0.0528908 0)
(0.135969 0.0626294 0)
(0.145826 0.0729003 0)
(0.156069 0.083686 0)
(0.166675 0.0949622 0)
(0.177615 0.106698 0)
(0.188851 0.118853 0)
(0.200333 0.131381 0)
(0.212002 0.144223 0)
(0.223784 0.15731 0)
(0.235588 0.170556 0)
(0.247304 0.183861 0)
(0.2588 0.197101 0)
(0.269914 0.210131 0)
(0.280455 0.222773 0)
(0.290193 0.234824 0)
(0.298856 0.246044 0)
(0.306128 0.256168 0)
(0.311651 0.264912 0)
(0.000781176 -0.0230848 0)
(0.00241889 -0.0296086 0)
(0.00425462 -0.0325966 0)
(0.00627751 -0.0345564 0)
(0.00846475 -0.0359538 0)
(0.010805 -0.0369073 0)
(0.0133042 -0.0374521 0)
(0.0159735 -0.0375985 0)
(0.0188263 -0.0373479 0)
(0.0218772 -0.036698 0)
(0.0251418 -0.0356452 0)
(0.0286367 -0.0341848 0)
(0.0323787 -0.032311 0)
(0.0363849 -0.0300169 0)
(0.0406722 -0.0272945 0)
(0.0452577 -0.0241344 0)
(0.050158 -0.0205261 0)
(0.0553889 -0.0164579 0)
(0.0609656 -0.0119171 0)
(0.0669021 -0.00689073 0)
(0.0732108 -0.00136549 0)
(0.0799029 0.00467162 0)
(0.0869875 0.0112329 0)
(0.0944723 0.0183298 0)
(0.102362 0.0259715 0)
(0.110659 0.0341646 0)
(0.11936 0.042912 0)
(0.128459 0.0522127 0)
(0.137943 0.0620609 0)
(0.147796 0.072446 0)
(0.157991 0.0833514 0)
(0.168497 0.094755 0)
(0.179273 0.106628 0)
(0.190268 0.118934 0)
(0.20142 0.131629 0)
(0.212656 0.144659 0)
(0.223886 0.157957 0)
(0.235004 0.171445 0)
(0.245886 0.185024 0)
(0.256382 0.198579 0)
(0.266317 0.211968 0)
(0.275486 0.225024 0)
(0.283648 0.237553 0)
(0.290527 0.249335 0)
(0.29581 0.260128 0)
(0.000720277 -0.0247065 0)
(0.00221896 -0.0314869 0)
(0.00388741 -0.0346605 0)
(0.00572398 -0.0367848 0)
(0.00771006 -0.0383438 0)
(0.00983783 -0.0394646 0)
(0.0121149 -0.0401875 0)
(0.0145533 -0.0405258 0)
(0.0171669 -0.0404827 0)
(0.0199709 -0.0400574 0)
(0.0229811 -0.0392472 0)
(0.0262142 -0.0380479 0)
(0.0296873 -0.0364542 0)
(0.0334174 -0.0344592 0)
(0.037422 -0.0320549 0)
(0.0417179 -0.0292317 0)
(0.046322 -0.0259784 0)
(0.0512504 -0.0222825 0)
(0.0565185 -0.0181303 0)
(0.0621402 -0.0135073 0)
(0.0681284 -0.00839841 0)
(0.0744939 -0.00278858 0)
(0.0812451 0.00333682 0)
(0.0883885 0.00999156 0)
(0.095928 0.0171883 0)
(0.103864 0.0249375 0)
(0.112193 0.0332471 0)
(0.120907 0.0421215 0)
(0.129992 0.0515612 0)
(0.139428 0.0615626 0)
(0.149189 0.0721173 0)
(0.15924 0.0832118 0)
(0.16954 0.0948273 0)
(0.180036 0.106939 0)
(0.190668 0.119514 0)
(0.201361 0.132514 0)
(0.212031 0.145889 0)
(0.222576 0.159578 0)
(0.23288 0.173506 0)
(0.242807 0.18758 0)
(0.2522 0.201688 0)
(0.260876 0.215697 0)
(0.268626 0.229445 0)
(0.275213 0.24275 0)
(0.280374 0.255404 0)
(0.000669733 -0.0262169 0)
(0.00204582 -0.0332165 0)
(0.00356469 -0.0365537 0)
(0.00523292 -0.0388266 0)
(0.00703541 -0.0405344 0)
(0.00896743 -0.0418118 0)
(0.011038 -0.0427034 0)
(0.0132599 -0.0432249 0)
(0.0156475 -0.0433815 0)
(0.0182163 -0.0431734 0)
(0.0209821 -0.0425987 0)
(0.0239619 -0.0416538 0)
(0.0271725 -0.0403336 0)
(0.0306313 -0.0386315 0)
(0.0343553 -0.0365394 0)
(0.0383618 -0.0340472 0)
(0.0426676 -0.0311435 0)
(0.0472887 -0.0278149 0)
(0.0522408 -0.0240466 0)
(0.057538 -0.0198224 0)
(0.0631931 -0.0151256 0)
(0.069217 -0.00993859 0)
(0.0756183 -0.00424415 0)
(0.0824028 0.00197456 0)
(0.0895733 0.00873344 0)
(0.0971295 0.0160472 0)
(0.105067 0.0239286 0)
(0.113377 0.0323879 0)
(0.122044 0.041432 0)
(0.131049 0.0510645 0)
(0.140363 0.0612849 0)
(0.149952 0.0720884 0)
(0.159773 0.0834657 0)
(0.169776 0.095402 0)
(0.1799 0.107877 0)
(0.190075 0.120864 0)
(0.20022 0.134327 0)
(0.210242 0.148221 0)
(0.220033 0.162489 0)
(0.229472 0.177059 0)
(0.238421 0.191841 0)
(0.246722 0.206727 0)
(0.254198 0.221584 0)
(0.260651 0.236254 0)
(0.265866 0.250556 0)
(0.000627004 -0.0276312 0)
(0.00189499 -0.0348137 0)
(0.00327995 -0.0382922 0)
(0.0047961 -0.0406973 0)
(0.00643121 -0.0425404 0)
(0.00818326 -0.0439626 0)
(0.0100624 -0.0450121 0)
(0.012082 -0.045707 0)
(0.0142569 -0.0460538 0)
(0.0166024 -0.0460538 0)
(0.0191346 -0.0457058 0)
(0.0218703 -0.0450065 0)
(0.0248264 -0.0439512 0)
(0.0280198 -0.0425335 0)
(0.0314677 -0.040745 0)
(0.0351871 -0.0385757 0)
(0.0391948 -0.0360134 0)
(0.043507 -0.0330442 0)
(0.0481391 -0.0296521 0)
(0.0531055 -0.0258196 0)
(0.0584193 -0.0215278 0)
(0.0640914 -0.0167569 0)
(0.0701307 -0.0114867 0)
(0.0765432 -0.00569703 0)
(0.0833315 0.000631854 0)
(0.0904948 0.00751877 0)
(0.0980281 0.0149813 0)
(0.105922 0.0230355 0)
(0.114163 0.0316947 0)
(0.122729 0.0409697 0)
(0.131593 0.0508677 0)
(0.140723 0.0613922 0)
(0.150075 0.0725426 0)
(0.159602 0.084314 0)
(0.169246 0.096696 0)
(0.178942 0.109672 0)
(0.188614 0.12322 0)
(0.198179 0.137305 0)
(0.207541 0.151887 0)
(0.216595 0.166908 0)
(0.225222 0.182295 0)
(0.233291 0.197959 0)
(0.240655 0.213786 0)
(0.247155 0.229637 0)
(0.252622 0.24535 0)
(0.000590796 -0.0289618 0)
(0.00176215 -0.0362924 0)
(0.00302688 -0.0398907 0)
(0.00440548 -0.0424112 0)
(0.00588807 -0.0443757 0)
(0.00747486 -0.0459302 0)
(0.00917692 -0.0471261 0)
(0.0110081 -0.0479833 0)
(0.0129832 -0.0485097 0)
(0.0151177 -0.0487072 0)
(0.0174275 -0.0485754 0)
(0.0199293 -0.0481113 0)
(0.0226395 -0.0473104 0)
(0.025575 -0.0461665 0)
(0.0287528 -0.0446711 0)
(0.0321895 -0.0428141 0)
(0.0359019 -0.0405829 0)
(0.039906 -0.0379628 0)
(0.0442172 -0.0349369 0)
(0.0488502 -0.0314863 0)
(0.0538182 -0.0275903 0)
(0.0591324 -0.0232267 0)
(0.0648023 -0.0183724 0)
(0.0708342 -0.0130037 0)
(0.0772314 -0.0070969 0)
(0.0839934 -0.000628757 0)
(0.0911155 0.00642322 0)
(0.0985886 0.0140804 0)
(0.106399 0.0223624 0)
(0.114527 0.031287 0)
(0.122948 0.0408688 0)
(0.131628 0.0511191 0)
(0.14053 0.0620456 0)
(0.149608 0.0736514 0)
(0.158809 0.0859353 0)
(0.168074 0.0988899 0)
(0.177336 0.112501 0)
(0.186522 0.126747 0)
(0.19555 0.141594 0)
(0.20433 0.156998 0)
(0.212766 0.172898 0)
(0.220751 0.189216 0)
(0.228171 0.20585 0)
(0.234902 0.222676 0)
(0.240819 0.239539 0)
(0.000558345 -0.0302182 0)
(0.00164333 -0.0376646 0)
(0.00279957 -0.0413617 0)
(0.00405346 -0.0439815 0)
(0.00539696 -0.0460532 0)
(0.0068321 -0.0477272 0)
(0.00837062 -0.0490573 0)
(0.0100266 -0.0500651 0)
(0.0118148 -0.0507593 0)
(0.0137505 -0.0511428 0)
(0.0158494 -0.0512154 0)
(0.0181278 -0.0509745 0)
(0.0206019 -0.0504161 0)
(0.0232882 -0.0495337 0)
(0.0262031 -0.0483192 0)
(0.0293633 -0.046762 0)
(0.0327851 -0.0448494 0)
(0.0364844 -0.0425661 0)
(0.0404768 -0.0398943 0)
(0.0447767 -0.0368138 0)
(0.0493978 -0.0333023 0)
(0.0543519 -0.0293353 0)
(0.0596488 -0.0248871 0)
(0.0652958 -0.0199305 0)
(0.0712973 -0.0144378 0)
(0.0776537 -0.00838125 0)
(0.0843617 -0.00173342 0)
(0.0914133 0.00553235 0)
(0.0987959 0.0134416 0)
(0.106492 0.0220183 0)
(0.114479 0.031284 0)
(0.122727 0.0412573 0)
(0.131202 0.0519531 0)
(0.139863 0.063382 0)
(0.148664 0.0755497 0)
(0.157553 0.0884561 0)
(0.166473 0.102094 0)
(0.175362 0.116449 0)
(0.184151 0.131495 0)
(0.192771 0.147193 0)
(0.201143 0.163491 0)
(0.209188 0.180317 0)
(0.21682 0.197577 0)
(0.223949 0.215152 0)
(0.230489 0.232894 0)
(0.000528802 -0.0314074 0)
(0.00153498 -0.0389395 0)
(0.00259266 -0.0427162 0)
(0.00373301 -0.0454197 0)
(0.00494946 -0.0475849 0)
(0.00624542 -0.0493654 0)
(0.00763305 -0.0508173 0)
(0.00912643 -0.0519633 0)
(0.0107401 -0.052813 0)
(0.0124891 -0.05337 0)
(0.0143888 -0.0536342 0)
(0.0164549 -0.0536037 0)
(0.0187032 -0.0532742 0)
(0.0211498 -0.0526398 0)
(0.0238106 -0.0516922 0)
(0.0267019 -0.0504209 0)
(0.0298397 -0.0488128 0)
(0.0332397 -0.0468522 0)
(0.0369173 -0.0445206 0)
(0.0408873 -0.0417967 0)
(0.0451635 -0.0386568 0)
(0.0497583 -0.0350744 0)
(0.0546824 -0.0310212 0)
(0.059944 -0.026467 0)
(0.0655489 -0.0213802 0)
(0.0714993 -0.0157288 0)
(0.0777937 -0.00948047 0)
(0.0844263 -0.00260339 0)
(0.0913868 0.00493351 0)
(0.0986604 0.0131599 0)
(0.106228 0.0221035 0)
(0.114064 0.0317893 0)
(0.122139 0.0422385 0)
(0.130419 0.0534678 0)
(0.138864 0.0654887 0)
(0.147432 0.0783064 0)
(0.156076 0.0919188 0)
(0.164745 0.106315 0)
(0.173388 0.121473 0)
(0.18195 0.137359 0)
(0.190375 0.153922 0)
(0.198606 0.171095 0)
(0.206584 0.188785 0)
(0.21425 0.206875 0)
(0.22155 0.225219 0)
(0.00050085 -0.0325338 0)
(0.00143401 -0.040125 0)
(0.00240139 -0.0439635 0)
(0.00343789 -0.0467361 0)
(0.00453797 -0.0489815 0)
(0.00570611 -0.050856 0)
(0.00695461 -0.0524172 0)
(0.00829735 -0.0536888 0)
(0.00974853 -0.0546813 0)
(0.0113227 -0.0553986 0)
(0.0130347 -0.055841 0)
(0.0148998 -0.0560068 0)
(0.0169332 -0.0558921 0)
(0.0191503 -0.055491 0)
(0.0215666 -0.0547952 0)
(0.0241979 -0.0537944 0)
(0.0270597 -0.0524752 0)
(0.0301677 -0.0508217 0)
(0.033537 -0.048815 0)
(0.0371826 -0.0464328 0)
(0.0411185 -0.0436501 0)
(0.0453578 -0.0404389 0)
(0.0499121 -0.0367687 0)
(0.054791 -0.0326064 0)
(0.0600017 -0.0279173 0)
(0.0655488 -0.0226652 0)
(0.071433 -0.0168133 0)
(0.0776517 -0.0103249 0)
(0.084198 -0.0031638 0)
(0.0910604 0.00470499 0)
(0.0982237 0.0133145 0)
(0.105669 0.0226949 0)
(0.113371 0.0328729 0)
(0.121304 0.0438699 0)
(0.129436 0.0557018 0)
(0.137734 0.0683774 0)
(0.146162 0.0818974 0)
(0.154683 0.0962529 0)
(0.163259 0.111424 0)
(0.171852 0.127376 0)
(0.180426 0.14406 0)
(0.188944 0.161406 0)
(0.197372 0.179322 0)
(0.205676 0.197691 0)
(0.213831 0.216364 0)
(0.000473093 -0.0336 0)
(0.00133784 -0.041227 0)
(0.00222174 -0.0451112 0)
(0.00316269 -0.0479396 0)
(0.00415591 -0.0502528 0)
(0.00520653 -0.0522091 0)
(0.00632677 -0.0538672 0)
(0.00753011 -0.055252 0)
(0.00883022 -0.0563743 0)
(0.0102411 -0.0572384 0)
(0.011777 -0.0578451 0)
(0.0134524 -0.0581928 0)
(0.0152819 -0.0582778 0)
(0.0172803 -0.0580943 0)
(0.0194626 -0.0576344 0)
(0.0218438 -0.0568876 0)
(0.0244392 -0.0558408 0)
(0.0272639 -0.0544777 0)
(0.0303331 -0.0527791 0)
(0.0336617 -0.0507223 0)
(0.0372642 -0.0482814 0)
(0.0411542 -0.0454271 0)
(0.0453444 -0.042127 0)
(0.0498457 -0.0383457 0)
(0.0546674 -0.0340458 0)
(0.0598164 -0.0291875 0)
(0.0652963 -0.0237302 0)
(0.0711081 -0.0176326 0)
(0.0772489 -0.0108539 0)
(0.083712 -0.00335455 0)
(0.0904871 0.00490318 0)
(0.0975604 0.0139539 0)
(0.104915 0.0238283 0)
(0.112532 0.0345515 0)
(0.120388 0.0461425 0)
(0.12846 0.0586121 0)
(0.136723 0.0719621 0)
(0.145153 0.086184 0)
(0.153725 0.101257 0)
(0.162418 0.117145 0)
(0.171213 0.133796 0)
(0.18009 0.151139 0)
(0.189037 0.169078 0)
(0.198041 0.187493 0)
(0.207098 0.206232 0)
(0.000444482 -0.0346067 0)
(0.00124448 -0.0422495 0)
(0.00205052 -0.0461659 0)
(0.0029031 -0.0490381 0)
(0.00379785 -0.0514076 0)
(0.00474028 -0.053434 0)
(0.00574228 -0.0551773 0)
(0.00681673 -0.0566629 0)
(0.00797664 -0.057902 0)
(0.00923532 -0.0588995 0)
(0.0106063 -0.0596563 0)
(0.0121033 -0.0601709 0)
(0.0137403 -0.0604401 0)
(0.0155312 -0.0604581 0)
(0.0174904 -0.0602173 0)
(0.0196323 -0.0597073 0)
(0.0219717 -0.0589152 0)
(0.0245233 -0.0578249 0)
(0.0273021 -0.0564169 0)
(0.030323 -0.0546684 0)
(0.0336008 -0.0525528 0)
(0.0371498 -0.0500399 0)
(0.0409836 -0.0470962 0)
(0.0451148 -0.0436845 0)
(0.0495547 -0.039765 0)
(0.0543127 -0.0352953 0)
(0.0593959 -0.0302313 0)
(0.064809 -0.0245282 0)
(0.0705535 -0.0181411 0)
(0.0766283 -0.0110264 0)
(0.0830289 -0.00314266 0)
(0.089748 0.00554847 0)
(0.0967759 0.0150807 0)
(0.104101 0.0254817 0)
(0.111711 0.0367723 0)
(0.11959 0.048964 0)
(0.127727 0.0620587 0)
(0.136107 0.0760464 0)
(0.14472 0.0909038 0)
(0.153559 0.106592 0)
(0.162617 0.123056 0)
(0.171895 0.14022 0)
(0.181392 0.157984 0)
(0.191117 0.176223 0)
(0.20108 0.194785 0)
(0.000415071 -0.0355534 0)
(0.00115259 -0.0431957 0)
(0.00188546 -0.0471327 0)
(0.00265586 -0.0500383 0)
(0.00345963 -0.0524537 0)
(0.00430234 -0.0545395 0)
(0.0051953 -0.0563566 0)
(0.00615067 -0.0579309 0)
(0.00718067 -0.0592743 0)
(0.00829781 -0.0603916 0)
(0.00951484 -0.0612841 0)
(0.0108446 -0.0619508 0)
(0.0123003 -0.0623883 0)
(0.0138951 -0.0625913 0)
(0.0156426 -0.0625523 0)
(0.0175566 -0.0622615 0)
(0.0196513 -0.061706 0)
(0.021941 -0.06087 0)
(0.0244403 -0.0597343 0)
(0.0271643 -0.058276 0)
(0.0301277 -0.0564684 0)
(0.0333456 -0.0542809 0)
(0.0368327 -0.0516791 0)
(0.040603 -0.0486249 0)
(0.0446699 -0.0450766 0)
(0.0490455 -0.04099 0)
(0.0537405 -0.0363185 0)
(0.0587635 -0.0310143 0)
(0.064121 -0.0250294 0)
(0.0698174 -0.018317 0)
(0.0758546 -0.0108323 0)
(0.0822323 -0.00253453 0)
(0.0889483 0.00661246 0)
(0.0959994 0.0166381 0)
(0.103382 0.0275636 0)
(0.111091 0.0394008 0)
(0.119123 0.0521502 0)
(0.127478 0.0657995 0)
(0.136156 0.0803224 0)
(0.14516 0.0956763 0)
(0.154499 0.111801 0)
(0.164183 0.128615 0)
(0.174229 0.146016 0)
(0.184655 0.163875 0)
(0.195485 0.182036 0)
(0.000384601 -0.036439 0)
(0.00106141 -0.044068 0)
(0.00172515 -0.0480161 0)
(0.00241885 -0.050946 0)
(0.00313837 -0.0533981 0)
(0.00388906 -0.0555335 0)
(0.0046815 -0.0574137 0)
(0.00552693 -0.0590653 0)
(0.00643674 -0.0605004 0)
(0.00742252 -0.0617243 0)
(0.00849614 -0.0627385 0)
(0.00966962 -0.0635421 0)
(0.0109552 -0.064132 0)
(0.0123654 -0.0645033 0)
(0.0139129 -0.0646489 0)
(0.0156108 -0.0645591 0)
(0.0174727 -0.0642217 0)
(0.0195124 -0.0636213 0)
(0.0217443 -0.0627389 0)
(0.024183 -0.0615521 0)
(0.0268438 -0.0600345 0)
(0.029742 -0.0581555 0)
(0.0328934 -0.0558805 0)
(0.0363135 -0.0531708 0)
(0.0400175 -0.049984 0)
(0.0440205 -0.0462745 0)
(0.0483363 -0.0419942 0)
(0.0529779 -0.0370933 0)
(0.0579566 -0.0315216 0)
(0.0632827 -0.0252298 0)
(0.0689644 -0.0181709 0)
(0.0750087 -0.010302 0)
(0.0814214 -0.00158555 0)
(0.0882071 0.00800883 0)
(0.0953708 0.0185025 0)
(0.102918 0.0299064 0)
(0.110854 0.0422192 0)
(0.119188 0.055426 0)
(0.127931 0.0694967 0)
(0.137097 0.0843845 0)
(0.146705 0.100024 0)
(0.156774 0.11633 0)
(0.167331 0.133195 0)
(0.178404 0.150487 0)
(0.190025 0.168048 0)
(0.000352359 -0.0372615 0)
(0.000970716 -0.044868 0)
(0.00156901 -0.0488199 0)
(0.00219103 -0.0517667 0)
(0.00283246 -0.0542473 0)
(0.00349823 -0.0564233 0)
(0.00419803 -0.0583567 0)
(0.00494211 -0.0600747 0)
(0.00574088 -0.0615896 0)
(0.00660502 -0.0629071 0)
(0.00754542 -0.064029 0)
(0.00857322 -0.0649546 0)
(0.00969977 -0.0656812 0)
(0.0109367 -0.0662042 0)
(0.012296 -0.0665168 0)
(0.0137899 -0.06661 0)
(0.0154314 -0.066472 0)
(0.0172337 -0.066088 0)
(0.0192107 -0.0654398 0)
(0.021377 -0.0645055 0)
(0.0237479 -0.0632593 0)
(0.026339 -0.0616712 0)
(0.0291669 -0.0597069 0)
(0.0322485 -0.0573279 0)
(0.0356009 -0.0544918 0)
(0.0392416 -0.0511526 0)
(0.0431877 -0.0472613 0)
(0.0474562 -0.0427673 0)
(0.0520634 -0.0376189 0)
(0.0570251 -0.0317654 0)
(0.0623559 -0.0251585 0)
(0.06807 -0.0177538 0)
(0.0741806 -0.00951316 0)
(0.0807008 -0.000405787 0)
(0.0876437 0.00958951 0)
(0.0950233 0.0204823 0)
(0.102855 0.0322693 0)
(0.111155 0.0449327 0)
(0.119944 0.0584388 0)
(0.129244 0.0727367 0)
(0.139082 0.0877566 0)
(0.149486 0.103409 0)
(0.160488 0.119583 0)
(0.172122 0.136143 0)
(0.184425 0.152932 0)
(0.000319479 -0.0380198 0)
(0.000880952 -0.0455971 0)
(0.00141734 -0.0495474 0)
(0.00197241 -0.0525052 0)
(0.00254151 -0.0550074 0)
(0.00312903 -0.0572159 0)
(0.00374358 -0.0591933 0)
(0.00439436 -0.0609672 0)
(0.00509077 -0.0625505 0)
(0.00584249 -0.0639491 0)
(0.00665945 -0.0651651 0)
(0.00755185 -0.0661981 0)
(0.00853015 -0.0670459 0)
(0.00960511 -0.0677041 0)
(0.0107879 -0.0681666 0)
(0.01209 -0.0684247 0)
(0.0135236 -0.0684675 0)
(0.0151015 -0.0682808 0)
(0.0168369 -0.0678473 0)
(0.0187444 -0.0671461 0)
(0.0208388 -0.0661524 0)
(0.0231364 -0.064837 0)
(0.0256541 -0.0631666 0)
(0.0284099 -0.0611036 0)
(0.0314226 -0.0586062 0)
(0.0347119 -0.0556288 0)
(0.038298 -0.0521228 0)
(0.0422014 -0.0480372 0)
(0.0464432 -0.0433204 0)
(0.0510442 -0.037921 0)
(0.0560254 -0.0317901 0)
(0.0614074 -0.0248828 0)
(0.0672109 -0.0171606 0)
(0.0734566 -0.00859313 0)
(0.0801657 0.000840247 0)
(0.0873601 0.0111481 0)
(0.0950628 0.0223251 0)
(0.103299 0.0343507 0)
(0.112095 0.0471881 0)
(0.12148 0.0607826 0)
(0.131487 0.0750609 0)
(0.142149 0.08993 0)
(0.153504 0.105276 0)
(0.165589 0.120964 0)
(0.178441 0.136835 0)
(0.000286281 -0.0387127 0)
(0.000793144 -0.0462575 0)
(0.00127118 -0.0502026 0)
(0.00176395 -0.0531665 0)
(0.00226631 -0.0556843 0)
(0.0027819 -0.057918 0)
(0.00331821 -0.0599307 0)
(0.00388332 -0.0617507 0)
(0.00448557 -0.0633914 0)
(0.00513364 -0.064859 0)
(0.00583648 -0.066156 0)
(0.00660337 -0.0672823 0)
(0.00744389 -0.0682361 0)
(0.00836793 -0.0690135 0)
(0.0093858 -0.0696089 0)
(0.0105083 -0.0700142 0)
(0.0117468 -0.0702193 0)
(0.0131134 -0.0702109 0)
(0.014621 -0.0699728 0)
(0.0162835 -0.0694853 0)
(0.0181157 -0.0687246 0)
(0.0201339 -0.0676632 0)
(0.0223553 -0.0662692 0)
(0.0247989 -0.0645063 0)
(0.0274847 -0.0623341 0)
(0.0304341 -0.0597084 0)
(0.0336699 -0.0565815 0)
(0.0372161 -0.0529036 0)
(0.0410975 -0.0486234 0)
(0.0453398 -0.0436903 0)
(0.0499695 -0.0380555 0)
(0.0550135 -0.0316745 0)
(0.060499 -0.024509 0)
(0.0664539 -0.0165289 0)
(0.0729066 -0.00771482 0)
(0.0798862 0.00194082 0)
(0.087423 0.0124313 0)
(0.0955482 0.0237338 0)
(0.104295 0.035809 0)
(0.113697 0.0485995 0)
(0.123792 0.0620293 0)
(0.134617 0.0760033 0)
(0.146211 0.090406 0)
(0.158614 0.105102 0)
(0.171862 0.119936 0)
(0.000253572 -0.0393403 0)
(0.000708486 -0.046852 0)
(0.0011322 -0.0507894 0)
(0.0015675 -0.0537556 0)
(0.00200868 -0.0562837 0)
(0.00245848 -0.0585359 0)
(0.00292323 -0.060576 0)
(0.00340988 -0.0624329 0)
(0.00392573 -0.0641205 0)
(0.00447846 -0.0656455 0)
(0.00507608 -0.0670108 0)
(0.00572697 -0.0682168 0)
(0.00643983 -0.0692619 0)
(0.00722372 -0.0701429 0)
(0.00808814 -0.0708546 0)
(0.0090431 -0.0713899 0)
(0.0100992 -0.0717392 0)
(0.0112679 -0.0718905 0)
(0.0125615 -0.0718286 0)
(0.0139933 -0.0715351 0)
(0.015578 -0.0709881 0)
(0.0173315 -0.0701616 0)
(0.0192714 -0.0690255 0)
(0.0214169 -0.0675457 0)
(0.023789 -0.0656837 0)
(0.0264106 -0.0633972 0)
(0.0293064 -0.0606407 0)
(0.0325029 -0.0573661 0)
(0.0360285 -0.0535238 0)
(0.0399129 -0.0490645 0)
(0.0441872 -0.0439406 0)
(0.0488838 -0.0381085 0)
(0.0540359 -0.0315309 0)
(0.0596776 -0.0241784 0)
(0.0658437 -0.0160325 0)
(0.0725696 -0.00708681 0)
(0.0798919 0.00265074 0)
(0.0878474 0.0131564 0)
(0.096474 0.024389 0)
(0.10581 0.0362895 0)
(0.115896 0.0487805 0)
(0.12677 0.0617658 0)
(0.138474 0.0751303 0)
(0.151045 0.0887398 0)
(0.16452 0.102441 0)
(0.000221751 -0.0399042 0)
(0.000628766 -0.047384 0)
(0.00100272 -0.0513125 0)
(0.00138568 -0.054278 0)
(0.00177127 -0.0568117 0)
(0.00216128 -0.0590762 0)
(0.00256089 -0.0611362 0)
(0.00297594 -0.0630211 0)
(0.00341274 -0.0647456 0)
(0.00387801 -0.0663169 0)
(0.00437888 -0.0677384 0)
(0.00492287 -0.0690109 0)
(0.00551784 -0.0701332 0)
(0.00617206 -0.0711028 0)
(0.00689421 -0.0719149 0)
(0.00769354 -0.0725633 0)
(0.00857993 -0.0730393 0)
(0.00956408 -0.0733319 0)
(0.0106576 -0.0734274 0)
(0.0118734 -0.0733088 0)
(0.0132254 -0.0729559 0)
(0.0147294 -0.0723448 0)
(0.0164028 -0.0714476 0)
(0.018265 -0.0702326 0)
(0.0203374 -0.068664 0)
(0.0226438 -0.0667022 0)
(0.0252103 -0.0643043 0)
(0.0280653 -0.0614247 0)
(0.0312396 -0.0580166 0)
(0.0347663 -0.0540328 0)
(0.0386803 -0.0494279 0)
(0.0430184 -0.0441598 0)
(0.0478187 -0.0381926 0)
(0.0531206 -0.0314982 0)
(0.0589644 -0.0240589 0)
(0.0653911 -0.0158693 0)
(0.072442 -0.00693811 0)
(0.0801592 0.00271033 0)
(0.0885844 0.0130347 0)
(0.0977594 0.0239753 0)
(0.107726 0.0354548 0)
(0.118524 0.0473773 0)
(0.130194 0.0596291 0)
(0.142774 0.0720788 0)
(0.156296 0.0845781 0)
(0.000192752 -0.0404078 0)
(0.000556161 -0.0478584 0)
(0.000885532 -0.0517772 0)
(0.00122164 -0.0547393 0)
(0.00155731 -0.0572742 0)
(0.00189343 -0.0595452 0)
(0.00223404 -0.0616178 0)
(0.00258402 -0.0635224 0)
(0.00294873 -0.0652743 0)
(0.00333402 -0.0668813 0)
(0.00374621 -0.0683473 0)
(0.00419201 -0.0696737 0)
(0.00467851 -0.0708598 0)
(0.0052132 -0.0719035 0)
(0.00580401 -0.0728009 0)
(0.00645942 -0.0735463 0)
(0.00718858 -0.0741321 0)
(0.00800146 -0.0745484 0)
(0.00890899 -0.0747827 0)
(0.0099233 -0.07482 0)
(0.0110579 -0.0746418 0)
(0.0123279 -0.0742265 0)
(0.0137505 -0.0735486 0)
(0.0153446 -0.0725793 0)
(0.0171319 -0.0712856 0)
(0.0191365 -0.0696313 0)
(0.0213851 -0.0675768 0)
(0.0239074 -0.06508 0)
(0.0267358 -0.0620971 0)
(0.0299055 -0.0585842 0)
(0.0334543 -0.0544985 0)
(0.0374223 -0.0498007 0)
(0.0418514 -0.0444564 0)
(0.0467852 -0.0384393 0)
(0.0522684 -0.0317327 0)
(0.0583463 -0.0243318 0)
(0.0650645 -0.0162457 0)
(0.0724687 -0.00749888 0)
(0.0806041 0.0018679 0)
(0.0895149 0.0117963 0)
(0.0992439 0.02221 0)
(0.109832 0.0330151 0)
(0.121319 0.0441006 0)
(0.133739 0.055339 0)
(0.147124 0.0665878 0)
(0.000167255 -0.0408566 0)
(0.000492979 -0.0482815 0)
(0.000783748 -0.05219 0)
(0.0010788 -0.0551458 0)
(0.00137028 -0.0576775 0)
(0.00165822 -0.0599493 0)
(0.00194575 -0.0620275 0)
(0.00223684 -0.0639437 0)
(0.00253605 -0.0657138 0)
(0.00284845 -0.0673464 0)
(0.00317963 -0.068846 0)
(0.00353558 -0.0702144 0)
(0.00392268 -0.0714515 0)
(0.0043477 -0.0725557 0)
(0.00481783 -0.0735237 0)
(0.00534083 -0.0743508 0)
(0.00592514 -0.0750302 0)
(0.00657995 -0.0755531 0)
(0.00731548 -0.0759087 0)
(0.0081431 -0.0760833 0)
(0.0090756 -0.0760606 0)
(0.0101274 -0.0758213 0)
(0.0113151 -0.0753427 0)
(0.0126571 -0.0745988 0)
(0.0141746 -0.0735601 0)
(0.0158916 -0.072194 0)
(0.0178348 -0.0704646 0)
(0.0200344 -0.0683337 0)
(0.0225234 -0.0657617 0)
(0.0253383 -0.0627083 0)
(0.0285184 -0.0591341 0)
(0.0321059 -0.055003 0)
(0.0361455 -0.0502832 0)
(0.0406835 -0.0449501 0)
(0.0457678 -0.0389884 0)
(0.0514471 -0.0323939 0)
(0.0577701 -0.0251757 0)
(0.0647852 -0.0173575 0)
(0.07254 -0.00897916 0)
(0.0810804 -9.67678e-05 0)
(0.0904505 0.00921618 0)
(0.100691 0.0188692 0)
(0.11184 0.0287552 0)
(0.123931 0.0387521 0)
(0.136991 0.0487238 0)
(0.000147498 -0.0412588 0)
(0.000441773 -0.0486611 0)
(0.000700414 -0.0525576 0)
(0.000960421 -0.0555039 0)
(0.00121337 -0.0580279 0)
(0.00145868 -0.0602945 0)
(0.00169872 -0.0623716 0)
(0.00193675 -0.0642915 0)
(0.00217666 -0.0660711 0)
(0.0024229 -0.0677198 0)
(0.00268041 -0.0692425 0)
(0.00295454 -0.0706417 0)
(0.00325103 -0.0719178 0)
(0.00357598 -0.0730697 0)
(0.00393591 -0.0740948 0)
(0.00433787 -0.074989 0)
(0.00478957 -0.0757466 0)
(0.00529948 -0.07636 0)
(0.005877 -0.0768196 0)
(0.00653273 -0.0771136 0)
(0.00727862 -0.0772277 0)
(0.00812831 -0.0771448 0)
(0.00909737 -0.0768451 0)
(0.0102036 -0.0763057 0)
(0.0114675 -0.0755007 0)
(0.0129121 -0.0744013 0)
(0.0145638 -0.0729757 0)
(0.0164522 -0.0711901 0)
(0.0186103 -0.0690092 0)
(0.0210747 -0.066397 0)
(0.0238852 -0.0633185 0)
(0.0270849 -0.0597407 0)
(0.0307196 -0.0556353 0)
(0.0348372 -0.05098 0)
(0.0394876 -0.0457609 0)
(0.0447214 -0.0399746 0)
(0.0505893 -0.0336298 0)
(0.0571417 -0.0267492 0)
(0.0644275 -0.0193707 0)
(0.0724937 -0.0115478 0)
(0.0813846 -0.00335023 0)
(0.0911412 0.00513632 0)
(0.1018 0.0138106 0)
(0.113392 0.0225566 0)
(0.125943 0.0312456 0)
(0.000133775 -0.0416252 0)
(0.000404948 -0.0490064 0)
(0.000638237 -0.052888 0)
(0.000869122 -0.0558206 0)
(0.001089 -0.0583316 0)
(0.00129689 -0.0605871 0)
(0.00149466 -0.0626561 0)
(0.00168509 -0.0645721 0)
(0.00187157 -0.0663529 0)
(0.00205805 -0.0680087 0)
(0.00224894 -0.0695449 0)
(0.00244906 -0.0709645 0)
(0.00266355 -0.0722684 0)
(0.0028979 -0.073456 0)
(0.00315798 -0.0745255 0)
(0.00345019 -0.0754733 0)
(0.00378149 -0.0762947 0)
(0.00415961 -0.0769832 0)
(0.00459317 -0.0775306 0)
(0.00509189 -0.0779266 0)
(0.00566684 -0.0781591 0)
(0.00633068 -0.0782133 0)
(0.00709798 -0.0780722 0)
(0.00798551 -0.077716 0)
(0.00901254 -0.0771224 0)
(0.0102012 -0.0762664 0)
(0.0115766 -0.0751207 0)
(0.0131673 -0.073656 0)
(0.0150055 -0.0718416 0)
(0.0171268 -0.0696463 0)
(0.0195704 -0.0670394 0)
(0.022379 -0.0639923 0)
(0.0255983 -0.06048 0)
(0.0292765 -0.0564831 0)
(0.0334638 -0.0519896 0)
(0.0382115 -0.0469967 0)
(0.0435711 -0.0415132 0)
(0.0495939 -0.0355603 0)
(0.0563292 -0.0291734 0)
(0.0638243 -0.0224027 0)
(0.0721234 -0.0153134 0)
(0.0812666 -0.00798583 0)
(0.0912893 -0.000514613 0)
(0.102221 0.0069918 0)
(0.114085 0.0144134 0)
(0.000127989 -0.0419693 0)
(0.000384041 -0.0493272 0)
(0.000598845 -0.0531891 0)
(0.000806279 -0.0561025 0)
(0.000998115 -0.0585945 0)