/*--------------------------------*- C++ -*----------------------------------*\
| =========                 |                                                 |
| \\      /  F ield         | OpenFOAM: The Open Source CFD Toolbox           |
|  \\    /   O peration     | Version:  5.0                                   |
|   \\  /    A nd           | Web:      www.OpenFOAM.org                      |
|    \\/     M anipulation  |                                                 |
\*---------------------------------------------------------------------------*/
FoamFile
{
    version     2.0;
    format      ascii;
    class       surfaceScalarField;
    location    "0.45";
    object      alphaPhi10;
}
// * * * * * * * * * * * * * * * * * * * * * * * * * * * * * * * * * * * * * //

dimensions      [0 3 -1 0 0 0 0];

internalField   nonuniform List<scalar> 
3782
(
-1.86947e-14
2.87442e-14
-3.20674e-14
4.09498e-14
-4.33108e-14
4.66144e-14
-5.31363e-14
4.87812e-14
-6.9225e-14
5.09992e-14
-9.22167e-14
5.63253e-14
-1.07535e-13
5.81043e-14
-1.13231e-13
5.20248e-14
-1.16414e-13
4.94977e-14
-1.12132e-13
4.37362e-14
-9.01812e-14
2.886e-14
-7.67801e-14
1.23254e-14
-7.51768e-14
-5.40617e-16
-7.78664e-14
-6.95865e-15
-7.50965e-14
-1.85763e-14
-4.8533e-14
-2.70015e-14
-2.39423e-14
-2.05303e-14
-1.2031e-14
-1.02286e-14
-5.38429e-15
-6.87516e-15
-2.13097e-15
-3.86751e-15
-9.13729e-16
-1.70227e-15
-4.12809e-16
-8.46514e-16
-1.47998e-16
-4.46972e-16
-3.20061e-17
-1.75427e-16
-4.57996e-18
-3.9559e-17
-5.56179e-19
-5.56344e-18
-5.72309e-20
-7.19302e-19
-4.86756e-21
-7.78869e-20
-3.40141e-22
-6.92285e-21
-1.97876e-23
-5.03291e-22
-9.7139e-25
-3.03301e-23
-4.02039e-26
-1.53414e-24
-1.39064e-27
-6.49757e-26
-3.97824e-29
-2.28112e-27
-9.26372e-31
-6.5597e-29
-1.71789e-32
-1.51822e-30
-2.46359e-34
-2.76114e-32
-2.59444e-36
-3.82031e-34
-1.82332e-38
-3.8138e-36
-6.72e-41
-2.48409e-38
-6.44838e-44
-8.2797e-41
-1.70104e-48
-8.59486e-44
-1.71326e-48
3.93726e-14
-2.57384e-14
4.45994e-14
-2.4555e-14
6.28806e-14
-2.55765e-14
-2.40412e-14
1.0584e-13
4.69574e-14
-3.36887e-14
4.80373e-14
-2.8881e-14
5.76468e-14
-2.63994e-14
-1.90842e-14
6.36572e-14
4.86726e-14
-3.84117e-14
4.73725e-14
-3.13014e-14
5.10728e-14
-3.33533e-14
-8.35007e-14
1.12124e-13
4.58385e-14
-4.00296e-14
4.43905e-14
-3.3406e-14
1.44229e-13
-1.37034e-13
-2.29754e-13
1.23757e-12
4.18014e-14
-4.24137e-14
4.01378e-14
-3.56138e-14
1.13113e-12
-7.67231e-13
-1.5409e-12
3.1005e-12
5.29633e-14
-4.81214e-14
5.26099e-14
-3.84067e-14
5.13789e-12
-2.09333e-12
-6.76317e-13
3.16655e-12
5.34061e-14
-5.62287e-14
5.65271e-14
-4.23409e-14
5.7678e-12
-1.81077e-12
-6.39528e-13
3.46442e-12
4.98774e-14
-8.72731e-14
6.04445e-14
-5.04462e-14
5.60439e-12
-1.08584e-12
-1.1984e-11
6.40378e-12
6.97046e-14
-1.6929e-13
9.88698e-14
-7.06242e-14
2.15767e-12
-1.19932e-12
-1.49844e-11
1.00598e-11
8.09056e-14
-2.11517e-13
1.80281e-13
-1.47445e-13
1.15e-12
-3.12233e-13
-1.66294e-11
9.01007e-12
5.75312e-14
-2.25204e-13
1.48641e-13
-4.84254e-13
1.65673e-12
-5.17455e-13
-2.04848e-11
1.31805e-11
4.96224e-14
-1.56858e-13
1.81447e-13
-6.68466e-13
1.4509e-12
-1.33207e-12
-2.98411e-12
3.54588e-12
3.95989e-15
-1.04642e-13
6.50881e-14
-4.71449e-13
2.54614e-13
-1.54533e-12
-2.28653e-12
1.14897e-12
-4.27828e-15
-1.04511e-13
-2.83311e-14
-1.49714e-13
6.78128e-15
-6.81039e-13
-2.50333e-12
1.34836e-13
-1.84948e-14
-1.16341e-13
-2.39573e-15
-1.3524e-13
5.98117e-14
-1.9349e-13
-1.64367e-12
1.93007e-13
-3.73434e-14
-1.1003e-13
-2.53112e-14
-1.63161e-13
-4.70483e-14
-1.83609e-13
-3.51056e-13
-3.68533e-14
-5.54297e-14
-5.79042e-14
-6.13915e-14
-1.48932e-13
-1.50168e-14
-2.26564e-13
-3.12095e-13
-3.31158e-14
-3.01555e-14
-2.74994e-14
-9.35234e-14
-6.39421e-14
-1.01137e-13
-1.46452e-13
-2.70811e-13
1.65053e-14
-1.50159e-14
-1.33888e-14
-3.00919e-14
-2.80835e-14
-8.09761e-14
-5.82699e-14
-1.67694e-13
-1.0852e-13
-8.9145e-15
-5.3318e-15
-1.64513e-14
-1.18459e-14
-3.36431e-14
-2.72975e-14
-7.78729e-14
-5.04584e-14
-4.13502e-15
-2.26209e-15
-9.33696e-15
-5.0579e-15
-2.30749e-14
-1.09322e-14
-2.65672e-14
-4.82603e-14
-2.18041e-15
-1.14211e-15
-4.81988e-15
-2.5953e-15
-1.04611e-14
-4.84113e-15
-9.70189e-15
-2.63961e-14
-1.31742e-15
-5.22368e-16
-2.85473e-15
-1.42087e-15
-5.60834e-15
-3.0021e-15
-5.6503e-15
-1.31527e-14
-6.64946e-16
-1.54566e-16
-1.88272e-15
-6.01095e-16
-4.26015e-15
-1.72604e-15
-3.87593e-15
-8.60689e-15
-2.10421e-16
-2.38632e-17
-8.72367e-16
-1.19931e-16
-2.81339e-15
-5.09932e-16
-1.72311e-15
-6.90831e-15
-3.22214e-17
-2.91222e-18
-1.77754e-16
-1.45257e-17
-8.42369e-16
-6.38532e-17
-2.60156e-16
-3.08863e-15
-4.09447e-18
-3.09395e-19
-2.12428e-17
-1.59465e-18
-1.01747e-16
-7.19899e-18
-3.05656e-17
-4.59905e-16
-4.61351e-19
-2.72462e-20
-2.47564e-18
-1.46116e-19
-1.21012e-17
-6.84316e-19
-3.03636e-18
-5.65978e-17
-4.26767e-20
-1.97296e-21
-2.38305e-19
-1.10138e-20
-1.20611e-18
-5.35493e-20
-2.47886e-19
-5.90624e-18
-3.23095e-21
-1.1935e-22
-1.8807e-20
-6.95641e-22
-9.88021e-20
-3.5197e-21
-1.69901e-20
-5.08228e-19
-2.03478e-22
-6.13644e-24
-1.24012e-21
-3.76245e-23
-6.78065e-21
-1.99352e-22
-1.00817e-21
-3.66647e-20
-1.08364e-23
-2.68476e-25
-6.96984e-23
-1.74933e-24
-3.98933e-22
-9.79033e-24
-5.22637e-23
-2.27857e-21
-4.87907e-25
-9.91881e-27
-3.34559e-24
-6.9498e-26
-2.0196e-23
-4.14933e-25
-2.35891e-24
-1.2274e-22
-1.84084e-26
-3.0656e-28
-1.36138e-25
-2.34098e-27
-8.73889e-25
-1.50747e-26
-9.21421e-26
-5.70145e-24
-5.75805e-28
-7.81408e-30
-4.65337e-27
-6.6048e-29
-3.20256e-26
-4.64447e-28
-3.0834e-27
-2.26478e-25
-1.46961e-29
-1.61139e-31
-1.31794e-28
-1.53677e-30
-9.80625e-28
-1.19737e-29
-8.73168e-29
-7.58132e-27
-2.99735e-31
-2.61995e-33
-3.04033e-30
-2.88869e-32
-2.46627e-29
-2.53587e-31
-2.0548e-30
-2.10208e-28
-4.75269e-33
-3.23108e-35
-5.58824e-32
-4.26517e-34
-4.97711e-31
-4.3086e-33
-3.92414e-32
-4.70696e-30
-5.62641e-35
-2.81284e-37
-7.95717e-34
-4.72939e-36
-7.82075e-33
-5.66944e-35
-5.87539e-34
-8.18802e-32
-4.62795e-37
-1.4574e-39
-8.4343e-36
-3.60397e-38
-9.15005e-35
-5.3587e-37
-6.41085e-36
-1.03479e-33
-2.274e-39
-3.43994e-42
-6.33109e-38
-2.17622e-40
-7.26884e-37
-2.88093e-39
-4.44236e-38
-7.94515e-36
-8.93682e-42
-2.25403e-46
-7.14648e-40
-2.63526e-44
-2.56621e-39
-2.59145e-42
-2.01109e-40
-2.76581e-38
-2.27116e-46
-2.65797e-44
-2.61803e-42
-2.03727e-40
1.62482e-13
-2.38944e-14
3.32955e-13
-1.95593e-14
4.38941e-13
-2.78188e-13
3.52277e-13
-7.72824e-15
2.77652e-13
5.65588e-15
1.9692e-11
1.79233e-12
4.63038e-11
8.45468e-12
2.82242e-11
9.3286e-12
2.72505e-12
4.1166e-12
1.9354e-13
2.58779e-12
9.34617e-14
1.55547e-13
8.97787e-14
5.24183e-14
8.33855e-14
3.71658e-14
8.08907e-14
2.49968e-14
7.00675e-14
1.21476e-14
2.74592e-11
1.27479e-11
1.19514e-11
5.25218e-11
5.6316e-12
2.77357e-11
1.18541e-11
6.14506e-12
3.77077e-11
1.63388e-12
2.68512e-05
2.45181e-06
8.69786e-05
2.09971e-05
8.92078e-05
3.04935e-05
8.75148e-05
3.2741e-05
8.53714e-05
3.43596e-05
8.38856e-05
3.6213e-05
5.41514e-05
3.23717e-05
5.13184e-07
9.58445e-06
-4.31357e-07
1.57523e-06
-9.63489e-08
3.75377e-07
-1.2484e-08
1.08325e-07
-1.78646e-09
2.96817e-08
-2.8774e-10
6.72586e-09
-4.21215e-11
1.13095e-09
-5.30415e-12
1.61565e-10
-5.28797e-13
2.00417e-11
-2.89995e-14
2.09204e-12
3.12959e-16
1.93521e-13
5.89078e-17
2.25406e-14
1.65553e-15
9.4837e-14
-3.21864e-14
1.25735e-13
-3.75084e-14
4.11935e-12
-4.41575e-13
3.0105e-12
1.00969e-12
7.6037e-12
1.35182e-12
4.22821e-11
1.00708e-11
4.85366e-11
7.58987e-12
5.0288e-11
1.29669e-11
4.50591e-11
1.47353e-11
1.72614e-12
8.15655e-12
1.27176e-13
7.00902e-13
1.07873e-13
1.65123e-13
1.11199e-13
6.95714e-14
2.56391e-13
1.50236e-13
2.42069e-13
3.47724e-14
1.21359e-10
1.55035e-11
4.44465e-10
8.59248e-10
2.70637e-10
4.38865e-10
6.82131e-11
3.05218e-11
1.48821e-10
7.16561e-12
3.85762e-05
7.16593e-06
8.67493e-05
2.59057e-05
8.55702e-05
3.13977e-05
8.41968e-05
3.31797e-05
8.23273e-05
3.47229e-05
7.94664e-05
3.66811e-05
3.61468e-05
2.53797e-05
-9.98561e-07
4.52772e-06
-3.876e-07
9.67152e-07
-4.60421e-08
2.29273e-07
-5.70735e-09
7.69403e-08
-9.05513e-10
2.61625e-08
-1.72634e-10
6.50937e-09
-2.82591e-11
1.12146e-09
-3.69207e-12
1.5979e-10
-3.84435e-13
2.00539e-11
-2.21583e-14
2.18082e-12
3.66875e-16
2.1553e-13
5.7804e-17
2.63564e-14
1.66638e-15
2.13252e-13
-1.0915e-13
5.7391e-13
-1.00941e-13
2.90034e-11
-2.9491e-12
1.27306e-10
-2.1271e-11
8.43173e-11
7.45069e-12
6.51945e-12
1.64692e-11
9.65027e-12
7.28925e-12
3.04588e-11
8.64665e-12
1.96323e-11
2.71943e-12
-3.53815e-14
1.84118e-12
-1.73645e-13
6.15705e-13
1.92571e-13
2.87742e-13
5.97978e-13
1.86438e-13
3.47734e-12
8.40763e-13
2.62581e-11
7.41343e-12
6.70547e-11
9.84269e-12
2.57948e-09
2.6593e-09
1.68272e-09
7.22149e-10
1.89735e-09
8.38237e-11
3.80557e-06
3.87294e-07
5.89602e-05
1.65432e-05
8.36614e-05
2.95282e-05
8.15836e-05
3.19761e-05
8.08527e-05
3.34243e-05
7.87774e-05
3.52563e-05
6.53246e-05
3.52399e-05
1.4117e-05
1.45056e-05
-1.0071e-06
1.6008e-06
-1.98078e-07
4.43702e-07
-1.84758e-08
1.55443e-07
-2.34307e-09
6.73077e-08
-4.32929e-10
2.47826e-08
-9.74187e-11
5.90231e-09
-1.66566e-11
1.01402e-09
-2.25973e-12
1.44758e-10
-2.4179e-13
1.82328e-11
-1.39211e-14
2.02376e-12
3.06618e-16
2.22366e-13
3.81771e-17
2.66948e-14
1.43802e-15
1.89254e-12
-1.78901e-12
2.55352e-12
-3.44556e-13
1.35038e-11
-1.61881e-13
2.21528e-10
-1.87402e-13
1.43163e-10
2.69019e-11
2.60525e-11
1.24512e-10
5.39557e-12
2.8936e-11
3.70763e-12
7.70785e-12
2.52162e-12
2.00646e-12
1.51877e-12
4.31448e-13
6.17232e-13
6.02278e-13
6.89229e-13
5.75654e-13
2.6085e-12
7.49071e-13
2.64209e-11
6.37707e-12
2.64649e-10
2.61554e-11
2.57519e-09
9.55421e-10
4.13421e-09
2.20744e-09
1.82253e-09
1.26682e-09
1.92694e-09
2.33547e-10
2.6765e-05
7.46521e-06
7.64775e-05
2.63719e-05
7.94444e-05
3.06584e-05
7.73877e-05
3.19505e-05
7.56435e-05
3.33448e-05
7.43084e-05
3.54023e-05
4.50237e-05
2.70736e-05
9.61821e-08
5.17125e-06
-4.41331e-07
8.3759e-07
-5.47293e-08
2.36084e-07
-5.8587e-09
1.30413e-07
-8.43783e-10
6.49424e-08
-1.71154e-10
2.10562e-08
-3.52222e-11
4.59036e-09
-6.37179e-12
7.82992e-10
-9.5516e-13
1.12916e-10
-1.08916e-13
1.43872e-11
-6.0904e-15
1.6759e-12
2.07719e-16
2.04913e-13
1.78807e-17
2.36003e-14
1.07614e-15
3.23711e-12
-1.40077e-12
8.78306e-13
-2.95882e-13
6.37483e-13
-1.87964e-13
9.83786e-12
-9.45442e-12
1.46525e-09
2.08386e-10
1.35553e-09
1.23077e-09
3.7845e-10
7.76327e-10
-1.56892e-12
7.93842e-11
-3.28876e-12
6.39495e-12
1.38562e-13
1.52787e-12
1.10886e-12
1.15887e-12
6.8353e-13
1.40985e-12
6.93276e-13
1.91062e-12
5.83074e-11
1.02091e-10
2.61266e-10
2.22281e-11
6.82221e-09
1.57352e-09
1.0058e-08
3.96199e-09
1.52889e-08
4.55055e-09
1.31647e-05
4.111e-06
6.03473e-05
2.21488e-05
7.55063e-05
2.96912e-05
7.40808e-05
3.07559e-05
7.33329e-05
3.16595e-05
7.08048e-05
3.31177e-05
6.04772e-05
3.20848e-05
1.59223e-05
1.24169e-05
-1.21201e-06
9.61184e-07
-1.77407e-07
3.17058e-07
-1.42526e-08
1.72822e-07
-1.21051e-09
1.19393e-07
-1.22714e-10
5.48603e-08
-1.42678e-10
1.51701e-08
-2.98631e-11
3.10387e-09
-2.02905e-12
5.19855e-10
-3.17784e-14
7.65899e-11
-1.4243e-14
1.00333e-11
-9.57502e-16
1.21387e-12
6.05716e-17
1.59852e-13
2.19109e-18
1.75962e-14
7.59154e-16
1.10029e-12
-1.10981e-12
9.33429e-13
-3.56374e-13
1.50227e-12
-8.1503e-13
6.21595e-10
-6.28819e-10
9.49174e-09
8.05757e-10
5.56525e-09
2.43847e-09
2.22617e-11
1.07119e-09
-1.06131e-11
1.15151e-10
-1.27437e-12
1.11777e-11
4.62504e-12
3.02657e-12
2.80507e-12
4.60206e-12
2.49073e-10
1.40699e-10
6.40319e-10
2.09276e-10
1.22759e-09
5.07216e-10
1.97092e-09
9.2024e-10
2.34575e-09
9.71535e-10
4.85299e-09
5.08095e-09
9.5859e-06
4.5712e-06
5.0195e-05
2.00909e-05
7.0765e-05
2.8787e-05
7.06853e-05
2.94035e-05
6.93386e-05
2.98936e-05
6.79755e-05
3.14742e-05
6.42132e-05
3.16419e-05
3.21902e-05
1.81487e-05
-7.49031e-07
1.58772e-06
-3.30995e-07
2.91091e-07
-3.04289e-08
1.97882e-07
-2.47363e-09
1.59376e-07
-7.81805e-10
9.18138e-08
-2.30932e-09
3.57978e-08
-5.83351e-10
8.03046e-09
-8.99058e-11
1.56712e-09
-1.04652e-11
2.72707e-10
-9.94554e-13
4.2161e-11
-7.70286e-14
5.90337e-12
-4.41679e-15
7.92026e-13
-1.77131e-16
1.15009e-13
-3.00197e-18
1.2149e-14
5.17043e-16
1.07813e-12
-1.16372e-12
9.67211e-13
-4.54697e-13
2.25355e-11
-2.16515e-11
1.21928e-08
-9.43284e-10
3.02928e-09
1.28282e-09
2.37758e-09
1.52438e-09
-1.46171e-10
3.22647e-10
-2.65988e-11
3.675e-11
2.28189e-11
1.18012e-11
2.95969e-11
3.48568e-12
5.50431e-10
1.85833e-10
9.01097e-10
4.34631e-10
8.45183e-10
7.63701e-10
7.01719e-10
1.78916e-09
7.39636e-10
1.49187e-09
1.49116e-09
1.73906e-09
1.58464e-05
8.48468e-06
5.17837e-05
2.2581e-05
6.53246e-05
2.77968e-05
6.55702e-05
2.79398e-05
6.54099e-05
2.7733e-05
6.37416e-05
2.92999e-05
6.13697e-05
2.92664e-05
3.65645e-05
1.85999e-05
2.09367e-06
1.83969e-06
-4.37651e-07
1.30626e-08
-4.75265e-08
1.74291e-07
-4.20671e-09
1.6892e-07
-3.99399e-09
1.30158e-07
-8.54709e-09
5.06404e-08
-2.76056e-09
1.38111e-08
-5.19233e-10
2.96259e-09
-7.86822e-11
5.85377e-10
-1.00806e-11
1.12646e-10
-1.09804e-12
1.9515e-11
-9.80008e-14
3.07158e-12
-6.30316e-15
4.8471e-13
-2.83876e-16
7.78356e-14
-4.17748e-18
8.09864e-15
3.41832e-16
2.78541e-12
-2.58027e-12
2.91752e-12
-6.52235e-13
6.73859e-10
-6.91782e-10
1.18044e-08
-1.95032e-09
2.2396e-09
9.59481e-10
-3.73235e-10
1.2436e-10
-3.25636e-11
2.71069e-11
9.13382e-14
3.65937e-11
1.45115e-11
3.32392e-11
4.51008e-11
1.7319e-11
2.27195e-10
4.76577e-11
3.8972e-10
1.41706e-10
1.45362e-09
1.80801e-09
2.56184e-08
3.79951e-08
1.04248e-05
6.95675e-06
3.72598e-05
1.82418e-05
5.60951e-05
2.58493e-05
6.00346e-05
2.66079e-05
6.06096e-05
2.62878e-05
6.10397e-05
2.57573e-05
5.95971e-05
2.7081e-05
5.67277e-05
2.60747e-05
3.24635e-05
1.54591e-05
2.52536e-06
1.01254e-06
-2.35166e-07
-2.67777e-07
-2.72422e-09
-3.42288e-08
1.74209e-09
7.83889e-08
-9.09001e-09
1.11432e-07
-1.81565e-08
6.35898e-08
-6.83498e-09
1.2172e-08
-1.62263e-09
2.51438e-09
-2.97764e-10
7.34607e-10
-4.64909e-11
1.8336e-10
-6.47531e-12
4.05275e-11
-7.712e-13
7.98269e-12
-7.38748e-14
1.46997e-12
-5.21371e-15
2.87866e-13
-2.70404e-16
5.02094e-14
-3.88681e-18
5.20874e-15
2.19131e-16
4.40482e-12
-2.42225e-12
4.85833e-12
-9.03771e-13
2.93484e-09
-1.3189e-09
1.11878e-08
-2.27515e-09
1.4861e-09
9.90565e-10
-9.4047e-11
2.19402e-10
4.60296e-11
6.69264e-11
3.80032e-11
1.23666e-10
4.92969e-11
1.30147e-10
2.70202e-11
2.84692e-11
4.0615e-11
2.08089e-11
1.5447e-10
2.24225e-11
4.97761e-07
3.47137e-08
2.51628e-05
1.03323e-05
5.1624e-05
2.34202e-05
5.54657e-05
2.47952e-05
5.5779e-05
2.50767e-05
5.64969e-05
2.4839e-05
5.62175e-05
2.44726e-05
5.52303e-05
2.47196e-05
4.92968e-05
2.18116e-05
2.27779e-05
9.93844e-06
1.08207e-06
-2.32749e-07
-7.23507e-08
-2.78464e-07
2.2961e-08
-7.10685e-08
1.42417e-08
-3.19892e-08
-1.59679e-08
-6.57418e-09
-2.30706e-08
9.39631e-09
-8.61054e-09
3.53822e-09
-2.07212e-09
1.89496e-09
-4.87444e-10
5.66453e-10
-1.11822e-10
1.52849e-10
-2.20212e-11
3.80386e-11
-3.36995e-12
1.3059e-11
-4.29247e-13
3.14087e-12
-4.44682e-14
7.31089e-13
-3.67668e-15
1.75465e-13
-2.17134e-16
3.16126e-14
-3.09174e-18
3.26337e-15
1.37381e-16
5.72277e-12
-6.43396e-12
6.49886e-12
-1.47208e-12
4.4529e-09
-1.44284e-09
1.01474e-08
-2.73339e-09
3.06392e-09
8.86592e-10
-4.28447e-11
5.33081e-10
3.49287e-11
1.78831e-10
2.61779e-10
2.35905e-10
6.92171e-11
1.68147e-10
4.46096e-11
3.96996e-11
3.58436e-11
2.50599e-11
4.55569e-11
3.12301e-11
1.36861e-05
2.8244e-06
5.2664e-05
1.63624e-05
5.39536e-05
2.18506e-05
5.37041e-05
2.19431e-05
5.37765e-05
2.221e-05
5.25163e-05
2.33437e-05
5.16153e-05
2.30425e-05
3.98573e-05
1.76056e-05
1.18238e-05
4.53209e-06
-8.90381e-09
-3.92259e-07
2.76598e-08
-1.75092e-07
1.97924e-08
-5.44819e-08
3.58083e-09
-1.79662e-08
-8.97014e-09
-1.04839e-08
-1.18113e-08
-1.02951e-08
-6.56445e-09
-1.81668e-09
-2.3812e-09
8.35193e-10
-6.55475e-10
5.68497e-10
-1.51977e-10
1.90195e-10
-3.47272e-11
4.31103e-11
-7.25085e-12
9.68777e-12
-1.41318e-12
2.67228e-12
-2.09339e-13
1.28189e-12
-2.48146e-14
4.02327e-13
-2.47805e-15
1.08584e-13
-1.5904e-16
1.93849e-14
-2.24878e-18
1.99165e-15
8.41043e-17
1.51395e-11
-2.3739e-11
1.70002e-11
-2.58309e-12
8.27001e-09
-1.63639e-12
1.41273e-08
-3.51424e-09
7.07418e-09
1.75001e-10
-6.28493e-10
9.12286e-10
-1.13032e-11
5.12932e-10
7.46106e-10
4.91076e-10
2.56635e-10
2.03471e-10
1.23703e-10
1.61543e-10
2.4761e-06
3.58214e-06
1.40672e-05
1.30428e-05
2.72281e-05
1.64103e-05
4.70471e-05
1.01278e-05
4.91664e-05
1.36957e-05
5.02717e-05
1.85628e-05
5.01401e-05
1.9414e-05
4.90666e-05
2.03957e-05
3.05361e-05
1.28053e-05
4.78886e-06
1.44017e-06
3.9851e-08
-2.89603e-07
2.27069e-08
-1.12084e-07
1.09303e-08
-2.95749e-08
1.07467e-09
-1.1896e-08
-7.14675e-09
-5.35002e-09
-7.18385e-09
-2.54409e-09
-5.11095e-09
-2.30015e-09
-2.54479e-09
-3.5044e-10
-9.03204e-10
3.2073e-10
-2.36178e-10
1.71527e-10
-5.153e-11
5.22573e-11
-1.05128e-11
1.34326e-11
-2.32758e-12
3.1532e-12
-4.86854e-13
9.28854e-13
-9.11159e-14
5.97507e-13
-1.41523e-14
2.41023e-13
-1.62097e-15
6.61669e-14
-1.08781e-16
1.14907e-14
-1.53141e-18
1.18104e-15
5.00722e-17
9.28586e-12
-2.44395e-11
3.12451e-12
-2.03865e-12
6.13932e-12
-4.57595e-12
1.89487e-08
-4.92886e-09
4.83415e-09
-1.33618e-10
-5.58965e-10
8.50293e-10
-1.25144e-10
4.9992e-10
7.72899e-10
2.98144e-10
4.03931e-10
1.18537e-10
9.97051e-06
3.93292e-06
3.92147e-05
1.79453e-05
3.75024e-05
2.00345e-05
2.19846e-05
1.97119e-05
1.09756e-05
7.13848e-06
1.62301e-05
-7.48869e-08
2.6985e-05
4.67495e-07
2.61838e-05
2.54353e-06
1.76672e-05
1.52538e-06
3.74152e-06
-5.85606e-07
4.35726e-08
-3.14169e-07
-1.19205e-09
-5.98878e-08
3.5043e-09
-1.37077e-08
-1.293e-09
-6.09257e-09
-5.52072e-09
-3.26519e-09
-5.36643e-09
-1.90465e-09
-3.82612e-09
-8.63849e-10
-2.33963e-09
-3.23415e-10
-1.01974e-09
-1.07687e-10
-3.26184e-10
7.93095e-11
-8.17688e-11
4.38554e-11
-1.78212e-11
1.35808e-11
-3.69695e-12
3.86956e-12
-7.224e-13
1.12776e-12
-1.82982e-13
4.97982e-13
-4.40887e-14
3.46278e-13
-8.35156e-15
1.47446e-13
-1.01743e-15
3.8916e-14
-7.02599e-17
6.5706e-15
-9.86562e-19
6.80139e-16
2.89213e-17
5.37067e-12
-2.18803e-11
7.12791e-12
-7.82558e-12
6.64833e-11
-8.13962e-12
1.46856e-08
-4.48174e-09
8.00479e-09
-1.53955e-09
-2.9116e-10
7.89836e-10
1.49193e-09
3.31172e-10
2.26205e-09
2.41177e-10
1.16188e-05
1.57498e-06
3.98339e-05
1.57631e-05
3.90661e-05
1.87857e-05
3.81811e-05
2.05863e-05
3.55702e-05
2.21847e-05
3.65893e-07
1.06295e-05
3.19534e-07
5.39915e-07
8.03501e-07
-4.25876e-08
1.08943e-06
-1.11765e-07
5.84322e-07
-8.12843e-08
1.31128e-07
-4.58023e-08
1.92947e-08
-3.24092e-08
1.53519e-09
-9.73396e-09
-2.79312e-09
-2.29709e-09
-3.82034e-09
-1.77032e-09
-3.32065e-09
-1.09681e-09
-2.4993e-09
-6.15665e-10
-1.68464e-09
-3.23285e-10
-9.68347e-10
-8.87931e-11
-3.89936e-10
-2.05075e-11
-1.17298e-10
2.83945e-11
-2.86306e-11
1.30057e-11
-6.22347e-12
4.29472e-12
-1.34097e-12
1.49895e-12
-2.78844e-13
6.84279e-13
-8.32223e-14
3.51136e-13
-2.46541e-14
2.22799e-13
-4.93962e-15
8.81548e-14
-6.09532e-16
2.19134e-14
-4.31723e-17
3.62721e-15
-6.04815e-19
3.80411e-16
1.61877e-17
3.64612e-12
-1.24437e-11
9.23621e-12
-2.283e-11
8.96017e-11
-1.06106e-11
1.8317e-08
-4.63691e-09
1.64456e-08
-1.35618e-08
-3.13872e-10
-7.41378e-10
1.96028e-09
4.24476e-10
3.05849e-09
2.49075e-10
2.50516e-05
2.83151e-06
3.70648e-05
1.53461e-05
3.71633e-05
1.84471e-05
3.68842e-05
2.0743e-05
3.60639e-05
2.30368e-05
2.96555e-06
1.89788e-05
-1.44643e-07
1.08108e-06
1.07491e-08
1.10437e-07
2.15221e-08
-7.82092e-09
1.07614e-08
-7.56291e-09
3.19702e-09
-6.71715e-09
-1.00238e-09
-4.14212e-09
-2.45268e-09
-2.3663e-09
-2.45683e-09
-1.0502e-09
-1.98087e-09
-5.74885e-10
-1.47053e-09
-3.482e-10
-1.00888e-09
-2.01912e-10
-6.48474e-10
-1.12333e-10
-3.62054e-10
-4.61886e-11
-1.4553e-10
-7.16817e-13
-4.28654e-11
1.43455e-11
-1.03094e-11
5.96218e-12
-2.24729e-12
2.06533e-12
-5.03462e-13
8.26583e-13
-1.22502e-13
4.41435e-13
-4.65268e-14
2.41236e-13
-1.44877e-14
1.42882e-13
-2.8262e-15
5.02603e-14
-3.48894e-16
1.18087e-14
-2.53707e-17
1.93523e-15
-3.54229e-19
2.06668e-16
8.77118e-18
-1.42675e-12
-1.71441e-11
2.5262e-12
-2.79249e-11
4.59014e-11
-2.04041e-11
2.30411e-09
-1.3173e-11
2.11295e-08
-1.54682e-08
1.25451e-08
-1.50804e-08
3.92594e-09
-5.42324e-12
5.98085e-09
2.72702e-10
1.99356e-05
1.35388e-06
3.35676e-05
1.26537e-05
3.391e-05
1.80382e-05
3.37027e-05
2.0957e-05
3.29799e-05
2.37795e-05
1.06373e-05
2.41039e-05
-3.06528e-08
3.65199e-06
-4.85282e-08
1.81961e-07
-1.11356e-09
6.07485e-09
6.57411e-11
-4.18881e-10
-1.12766e-09
-1.04805e-09
-1.59378e-09
-7.41106e-10
-1.41252e-09
-5.32844e-10
-1.10654e-09
-3.04662e-10
-8.22323e-10
-1.81049e-10
-5.76685e-10
-1.14371e-10
-3.76013e-10
-6.79213e-11
-2.32497e-10
-3.80508e-11
-1.27003e-10
-1.79305e-11
-5.14802e-11
-6.35235e-13
-1.53236e-11
5.58997e-12
-3.71847e-12
2.67353e-12
-8.18765e-13
1.04489e-12
-2.05034e-13
4.82347e-13
-6.49659e-14
2.75961e-13
-2.80091e-14
1.63581e-13
-8.25199e-15
8.56874e-14
-1.54406e-15
2.7001e-14
-1.91411e-16
6.10604e-15
-1.43154e-17
9.98984e-16
-1.98757e-19
1.09079e-16
4.59679e-18
-5.30016e-12
-8.23236e-12
-2.60928e-12
-3.29692e-11
1.48265e-16
-4.36894e-11
3.25533e-12
-2.12364e-11
1.08949e-08
-3.10487e-11
2.85544e-08
-1.68144e-08
1.41187e-08
-6.75559e-09
1.67668e-08
2.43285e-10
8.644e-06
2.84526e-07
2.89051e-05
8.08721e-06
2.9729e-05
1.7249e-05
2.95588e-05
2.11513e-05
2.89375e-05
2.44206e-05
1.31182e-05
2.3027e-05
5.63069e-08
4.09352e-06
-2.84337e-09
2.41569e-07
-4.11128e-10
7.93178e-09
-5.54392e-10
2.73037e-10
-7.55429e-10
-3.09737e-10
-7.52829e-10
-2.36387e-10
-5.99439e-10
-1.37331e-10
-4.36905e-10
-8.86501e-11
-3.09855e-10
-5.90675e-11
-2.09745e-10
-3.8412e-11
-1.32366e-10
-2.27776e-11
-7.94039e-11
-1.25554e-11
-4.24644e-11
-5.99848e-12
-1.74074e-11
-3.52665e-13
-5.28025e-12
2.00759e-12
-1.30523e-12
1.15092e-12
-3.09256e-13
5.40367e-13
-9.21485e-14
2.94271e-13
-4.06323e-14
1.71814e-13
-1.67179e-14
1.123e-13
-4.44458e-15
4.69966e-14
-8.06354e-16
1.37236e-14
-1.00971e-16
3.03727e-15
-7.77968e-18
4.99398e-16
-1.07066e-19
5.59369e-17
2.32824e-18
-4.81445e-13
-1.12984e-12
-1.63882e-11
-1.71405e-11
-7.05806e-12
-5.61573e-11
-2.98551e-13
-5.58109e-11
8.31139e-12
-5.59364e-11
3.04788e-08
-8.78014e-09
1.937e-08
-1.20178e-08
1.17103e-08
-3.0501e-10
2.84126e-07
5.17451e-09
2.23123e-05
2.60338e-06
2.4496e-05
1.51014e-05
2.45686e-05
2.11005e-05
2.42275e-05
2.47465e-05
8.95503e-06
1.74617e-05
-1.08451e-07
2.39886e-06
-5.50891e-09
1.32988e-07
-2.34882e-10
2.54779e-09
-3.53023e-10
1.45306e-10
-3.4e-10
-1.02308e-10
-2.99792e-10
-7.92929e-11
-2.26765e-10
-4.33758e-11
-1.59365e-10
-2.86221e-11
-1.09637e-10
-1.96963e-11
-7.23554e-11
-1.27043e-11
-4.46197e-11
-7.31343e-12
-2.61319e-11
-3.76874e-12
-1.37416e-11
-1.58399e-12
-5.7147e-12
1.77922e-13
-1.7673e-12
8.93837e-13
-4.50531e-13
5.71739e-13
-1.29159e-13
3.05326e-13
-4.99884e-14
1.81558e-13
-2.53035e-14
1.13124e-13
-9.19349e-15
6.65719e-14
-2.25891e-15
2.37808e-14
-4.0425e-16
6.65097e-15
-5.13432e-17
1.45608e-15
-4.08181e-18
2.41948e-16
-5.545e-20
2.78697e-17
1.13876e-18
-9.68127e-14
-7.79613e-13
-1.96652e-12
-2.9934e-12
-2.93199e-11
-3.99301e-11
5.81467e-12
-9.50804e-11
8.5988e-11
-1.04721e-10
1.06833e-09
-9.27896e-10
1.84245e-08
-3.35279e-08
4.77309e-08
-1.33673e-08
1.14342e-07
2.57332e-09
7.42971e-06
4.13313e-07
1.63689e-05
6.8112e-06
1.84722e-05
1.89914e-05
1.4048e-05
1.75616e-05
1.23378e-06
4.96298e-06
-1.28092e-07
3.57419e-07
-4.06761e-10
1.17857e-08
-3.08729e-10
1.08699e-09
-1.94759e-10
5.68292e-11
-1.39894e-10
-3.44024e-11
-1.11587e-10
-2.70948e-11
-8.05166e-11
-1.46101e-11
-5.50438e-11
-9.48265e-12
-3.70648e-11
-6.33375e-12
-2.40214e-11
-3.84978e-12
-1.45799e-11
-1.9832e-12
-8.37241e-12
-7.69978e-13
-4.33819e-12
-8.27707e-14
-1.82945e-12
3.84665e-13
-5.76756e-13
4.99047e-13
-1.70818e-13
3.17005e-13
-6.08934e-14
1.83453e-13
-3.1033e-14
1.09729e-13
-1.4548e-14
7.36384e-14
-4.6421e-15
3.37183e-14
-1.09281e-15
1.13061e-14
-1.95197e-16
3.08704e-15
-2.52178e-17
6.7382e-16
-2.07153e-18
1.13666e-16
-2.76323e-20
1.34889e-17
5.37423e-19
2.02439e-13
-5.38363e-13
2.14476e-12
-1.96218e-12
-2.07415e-11
-1.21422e-11
9.56178e-12
-6.03773e-11
2.75834e-10
-1.65113e-10
1.71855e-09
-2.12662e-09
-9.44314e-09
-3.90519e-08
-4.80927e-09
-7.45854e-08
5.7653e-08
-6.71569e-09
4.88996e-07
2.71292e-09
4.76738e-06
-2.48607e-08
5.50219e-06
6.91939e-07
2.00662e-06
-1.37817e-07
-4.96644e-08
-3.70818e-08
-2.09478e-09
3.41937e-08
-1.12815e-09
6.256e-09
-1.3109e-10
1.64456e-10
-7.26385e-11
-8.65479e-12
-5.44549e-11
-1.2488e-11
-3.96979e-11
-8.75123e-12
-2.73324e-11
-4.64734e-12
-1.83084e-11
-2.81852e-12
-1.21566e-11
-1.6792e-12
-7.79696e-12
-8.15097e-13
-4.69855e-12
-1.97893e-13
-2.64727e-12
1.75509e-13
-1.34732e-12
3.25961e-13
-5.74117e-13
3.64468e-13
-2.04687e-13
2.96667e-13
-7.4532e-14
1.84721e-13
-3.43684e-14
1.07655e-13
-1.85874e-14
6.95813e-14
-7.45547e-15
4.04336e-14
-2.19551e-15
1.56676e-14
-5.07101e-16
5.10773e-15
-9.09734e-17
1.37579e-15
-1.19832e-17
3.01381e-16
-1.01825e-18
5.17983e-17
-1.32506e-20
6.34037e-18
2.44522e-19
3.0829e-14
-2.64845e-13
5.50652e-13
-9.54782e-13
5.06402e-12
-4.73639e-12
2.65526e-11
-2.13945e-11
2.85543e-10
-1.28848e-10
-2.92228e-10
-1.46293e-09
-2.88768e-08
-1.38199e-08
-4.99561e-08
-2.6986e-08
-2.23399e-08
-2.27895e-08
-3.13915e-09
-4.16023e-09
2.37945e-08
-2.12377e-08
7.95759e-08
-3.95885e-08
-6.58197e-09
-2.20101e-08
-3.03089e-08
-5.6914e-10
-4.28802e-09
6.06664e-09
-2.33953e-10
8.89838e-10
-4.02823e-11
3.41642e-11
-2.29546e-11
-1.9666e-12
-1.82897e-11
-4.42253e-12
-1.35248e-11
-2.43129e-12
-9.01384e-12
-1.10648e-12
-5.96435e-12
-5.01177e-13
-3.94125e-12
-1.19649e-13
-2.52712e-12
1.40676e-13
-1.53726e-12
2.9879e-13
-8.66561e-13
3.58814e-13
-4.45064e-13
3.27725e-13
-2.04201e-13
2.53373e-13
-8.43489e-14
1.70522e-13
-3.8024e-14
1.02787e-13
-2.0812e-14
6.44942e-14
-9.86831e-15
4.10652e-14
-3.48681e-15
1.85565e-14
-9.87948e-16
6.8996e-15
-2.26548e-16
2.20262e-15
-4.09843e-17
5.90032e-16
-5.51557e-18
1.30402e-16
-4.85127e-19
2.2899e-17
-6.11096e-21
2.89325e-18
1.0717e-19
-3.59396e-14
-9.02192e-14
4.32542e-13
-2.94904e-13
2.78272e-12
-1.16924e-12
4.2273e-12
-5.82113e-12
-3.01676e-10
-2.96026e-11
-1.44882e-09
-3.15422e-10
-2.93974e-09
-8.70153e-10
-1.31751e-08
-3.38919e-09
-2.38366e-08
-6.01581e-09
-2.01332e-08
-2.98773e-09
-1.79248e-08
-2.56394e-10
-2.40886e-08
-4.2718e-09
-1.83574e-08
-3.14792e-09
-6.07008e-09
-1.71238e-10
-8.78749e-10
7.35143e-10
-6.85514e-11
1.03307e-10
-1.15344e-11
6.42693e-12
-6.85413e-12
-3.37488e-13
-5.81685e-12
-9.64635e-13
-4.38062e-12
-3.76445e-13
-2.94533e-12
3.4717e-14
-1.96093e-12
1.99135e-13
-1.31293e-12
2.86798e-13
-8.59887e-13
3.21667e-13
-5.39732e-13
3.15589e-13
-3.17434e-13
2.74559e-13
-1.69572e-13
2.10244e-13
-8.19128e-14
1.42142e-13
-4.00573e-14
8.9447e-14
-2.16233e-14
5.80131e-14
-1.12967e-14
3.70232e-14
-4.58826e-15
1.93281e-14
-1.53038e-15
7.86257e-15
-4.26003e-16
2.88605e-15
-9.76148e-17
9.09252e-16
-1.78657e-17
2.43934e-16
-2.46066e-18
5.46087e-17
-2.2406e-19
9.81941e-18
-2.70741e-21
1.28108e-18
4.52079e-20
-5.6847e-14
-2.94985e-14
-3.79643e-14
-8.04539e-14
3.03227e-13
-2.75502e-13
-2.40553e-12
-1.41827e-12
-1.57972e-11
-8.03484e-12
-2.09622e-10
-5.157e-11
-4.96516e-10
-2.31679e-10
-4.06065e-09
-8.30597e-10
-9.06532e-09
-1.11169e-09
-9.35468e-09
-3.58437e-10
-4.24334e-09
-1.44519e-10
-4.15517e-09
-2.79208e-10
-3.2699e-09
-5.02963e-10
-1.06041e-09
-9.07176e-11
-1.2144e-10
7.97612e-11
-1.34656e-11
1.35111e-11
-3.39745e-12
1.07674e-12
-2.14364e-12
1.19163e-13
-1.88549e-12
1.08597e-13
-1.43776e-12
1.89212e-13
-1.00049e-12
2.69457e-13
-6.93921e-13
2.8432e-13
-4.81507e-13
2.71344e-13
-3.27029e-13
2.39852e-13
-2.11833e-13
1.99031e-13
-1.25841e-13
1.54014e-13
-6.94421e-14
1.0907e-13
-3.78577e-14
7.29923e-14
-2.13945e-14
4.89511e-14
-1.16122e-14
3.1786e-14
-5.24882e-15
1.7715e-14
-1.96517e-15
7.89455e-15
-6.39402e-16
3.17802e-15
-1.76502e-16
1.14875e-15
-4.06106e-17
3.60281e-16
-7.53944e-18
9.73282e-17
-1.06419e-18
2.21374e-17
-1.0028e-19
4.08331e-18
-1.15061e-21
5.50091e-19
1.83409e-20
-3.1338e-14
-1.21789e-14
-4.81482e-14
-2.51176e-14
-8.69695e-14
-6.08401e-14
-5.07168e-13
-2.45614e-13
-3.55755e-12
-1.27939e-12
-4.05461e-11
-1.03261e-11
-3.87905e-10
-5.59551e-11
-1.12551e-09
-1.36285e-10
-1.49626e-09
-1.07631e-10
-9.39872e-10
-3.62619e-12
-6.84398e-10
-2.94378e-11
-5.56064e-10
-3.49324e-11
-4.54723e-10
-6.28803e-11
-1.52027e-10
-1.9913e-11
-1.9413e-11
5.40394e-12
-2.82415e-12
1.5627e-12
-9.35307e-13
1.97022e-13
-7.66222e-13
2.0424e-13
-6.85416e-13
2.40652e-13
-5.24072e-13
2.16441e-13
-3.83132e-13
2.07707e-13
-2.78727e-13
1.89971e-13
-1.96428e-13
1.66699e-13
-1.32652e-13
1.36418e-13
-8.74042e-14
1.05418e-13
-5.60144e-14
7.97411e-14
-3.36699e-14
5.86989e-14
-1.99467e-14
3.9994e-14
-1.11271e-14
2.59922e-14
-5.35046e-15
1.48245e-14
-2.18597e-15
7.07565e-15
-7.95401e-16
3.04451e-15
-2.5547e-16
1.21976e-15
-7.03707e-17
4.36778e-16
-1.63219e-17
1.37318e-16
-3.08023e-18
3.75024e-17
-4.46013e-19
8.68705e-18
-4.34538e-20
1.64603e-18
-4.68303e-22
2.28912e-19
7.15204e-21
-1.80821e-14
-8.25765e-15
-3.09784e-14
-1.32088e-14
-4.43089e-14
-2.14681e-14
-1.41539e-13
-4.98434e-14
-1.13543e-12
-2.42558e-13
-2.43868e-11
-1.50929e-12
-5.93143e-11
-8.29836e-12
-1.22602e-10
-1.04956e-11
-1.50765e-10
-6.5352e-12
-9.16488e-11
-1.56009e-12
-9.02202e-11
-3.38504e-12
-7.28559e-11
-5.8159e-12
-5.84799e-11
-6.58193e-12
-2.05184e-11
-3.72322e-12
-3.15405e-12
-4.88938e-14
-5.68683e-13
1.69682e-13
-2.92969e-13
8.03814e-14
-3.28256e-13
1.37116e-13
-2.83082e-13
1.54431e-13
-2.12892e-13
1.34222e-13
-1.59564e-13
1.20711e-13
-1.24213e-13
1.07264e-13
-9.361e-14
9.54281e-14
-6.59836e-14
7.93257e-14
-4.45767e-14
6.14122e-14
-2.92552e-14
4.52534e-14
-1.79241e-14
3.16989e-14
-1.00295e-14
2.03826e-14
-4.97303e-15
1.1507e-14
-2.16029e-15
5.71324e-15
-8.51934e-16
2.5953e-15
-3.06328e-16
1.11873e-15
-9.77959e-17
4.44973e-16
-2.7022e-17
1.59166e-16
-6.33754e-18
5.0412e-17
-1.21778e-18
1.396e-17
-1.81015e-19
3.29947e-18
-1.8209e-20
6.42933e-19
-1.82252e-22
9.22483e-20
2.67959e-21
-1.32841e-14
-4.95706e-15
-2.32888e-14
-9.2823e-15
-4.00317e-14
-1.48467e-14
-5.8081e-14
-2.33439e-14
-1.9889e-13
-4.65398e-14
-1.40006e-12
-1.78223e-13
-8.08582e-12
-5.04779e-13
-1.38919e-11
-7.82223e-13
-1.43423e-11
-2.79228e-13
-1.10211e-11
-2.43755e-13
-9.82571e-12
-4.10906e-13
-8.74767e-12
-6.2196e-13
-6.68644e-12
-6.86706e-13
-2.75437e-12