/*--------------------------------*- C++ -*----------------------------------*\
| =========                 |                                                 |
| \\      /  F ield         | OpenFOAM: The Open Source CFD Toolbox           |
|  \\    /   O peration     | Version:  5.0                                   |
|   \\  /    A nd           | Web:      www.OpenFOAM.org                      |
|    \\/     M anipulation  |                                                 |
\*---------------------------------------------------------------------------*/
FoamFile
{
    version     2.0;
    format      ascii;
    class       volScalarField;
    location    "0.45";
    object      k;
}
// * * * * * * * * * * * * * * * * * * * * * * * * * * * * * * * * * * * * * //

dimensions      [0 2 -2 0 0 0 0];

internalField   nonuniform List<scalar> 
1935
(
0.388651
0.382856
0.378031
0.374502
0.372414
0.371731
0.37225
0.373644
0.375521
0.377484
0.379188
0.380385
0.380937
0.380913
0.380254
0.378935
0.3769
0.373984
0.36988
0.364152
0.356311
0.34596
0.332954
0.317513
0.30022
0.281897
0.263422
0.245555
0.228832
0.213547
0.19979
0.187521
0.176631
0.166997
0.158501
0.151044
0.144538
0.13888
0.133912
0.129334
0.124556
0.118431
0.108864
0.393737
0.397384
0.3997
0.400724
0.388376
0.392607
0.395643
0.397466
0.384276
0.389413
0.393506
0.396453
0.381794
0.388196
0.393728
0.398166
0.381072
0.389097
0.396459
0.402776
0.382025
0.391988
0.401541
0.410118
0.384361
0.39649
0.408523
0.419699
0.387633
0.402026
0.416713
0.430752
0.391304
0.4079
0.425254
0.442294
0.39483
0.413385
0.433223
0.453219
0.397737
0.417834
0.43975
0.462421
0.399692
0.420767
0.44414
0.468932
0.400548
0.42196
0.445983
0.472072
0.400403
0.421483
0.445243
0.471591
0.399434
0.4198
0.442606
0.468109
0.397759
0.417204
0.438584
0.46247
0.395505
0.414078
0.433866
0.455618
0.392664
0.410675
0.429077
0.448596
0.389002
0.406955
0.424528
0.442228
0.384029
0.402478
0.420006
0.436785
0.377067
0.396416
0.414653
0.43163
0.367428
0.387749
0.407112
0.425156
0.35467
0.37563
0.396008
0.415364
0.338816
0.35976
0.380557
0.40078
0.320413
0.340556
0.360908
0.381104
0.300405
0.319042
0.338099
0.357281
0.279888
0.296542
0.31368
0.331069
0.259863
0.274333
0.289242
0.30441
0.241062
0.253385
0.266048
0.278909
0.223903
0.234275
0.244875
0.25559
0.208529
0.217217
0.226036
0.234893
0.194898
0.202178
0.209516
0.216835
0.18287
0.188987
0.195114
0.201189
0.172279
0.177431
0.182567
0.187637
0.162966
0.167304
0.171617
0.175863
0.154798
0.158435
0.162043
0.165595
0.147666
0.150682
0.153671
0.156617
0.141459
0.143925
0.146358
0.148759
0.136032
0.138024
0.139963
0.141869
0.131118
0.132744
0.134282
0.135763
0.126157
0.127586
0.128891
0.130101
0.119948
0.121363
0.122703
0.123963
0.109948
0.111106
0.112388
0.113807
0.400513
0.398987
0.396438
0.393251
0.38988
0.386784
0.384328
0.382737
0.381986
0.381737
0.381368
0.380096
0.377167
0.372045
0.364519
0.35469
0.34287
0.329514
0.315368
0.300704
0.286477
0.273573
0.262239
0.253024
0.247071
0.246642
0.256367
0.285662
0.353759
0.450109
0.470709
0.404956
0.325605
0.275287
0.245224
0.219966
0.194712
0.168044
0.134259
0.085772
0.398113
0.397375
0.395436
0.392642
0.389454
0.386374
0.383802
0.382007
0.380993
0.380418
0.379622
0.377782
0.374129
0.36818
0.359852
0.34941
0.33722
0.323768
0.309775
0.295358
0.281468
0.269204
0.258785
0.250957
0.247258
0.250682
0.267165
0.308253
0.39555
0.484669
0.474777
0.393198
0.311192
0.262687
0.233416
0.208692
0.18452
0.159582
0.128317
0.0845198
0.398243
0.398468
0.397158
0.39461
0.391306
0.387826
0.384654
0.382166
0.380439
0.379156
0.377631
0.374983
0.3704
0.363429
0.35413
0.342962
0.330395
0.317009
0.303313
0.2891
0.275837
0.264519
0.255424
0.249601
0.249111
0.257892
0.283467
0.339882
0.442783
0.509171
0.466501
0.373009
0.293682
0.249127
0.221299
0.197388
0.174429
0.151212
0.122321
0.0830162
0.401423
0.402811
0.402143
0.399654
0.395872
0.391481
0.38712
0.383337
0.380344
0.377886
0.375272
0.371569
0.365885
0.357747
0.347349
0.335377
0.322576
0.30968
0.295941
0.282035
0.269942
0.259986
0.252776
0.249787
0.25377
0.269836
0.307371
0.383638
0.486337
0.513156
0.444724
0.346586
0.27462
0.235288
0.209234
0.18633
0.164669
0.143124
0.116407
0.081317
0.407854
0.410635
0.410645
0.408043
0.403417
0.397589
0.391411
0.385676
0.380794
0.376607
0.372445
0.367346
0.360367
0.350979
0.339465
0.326959
0.314706
0.301563
0.287617
0.274949
0.264402
0.256331
0.251775
0.252735
0.262825
0.288574
0.341504
0.435753
0.513086
0.496425
0.411323
0.316846
0.255591
0.221837
0.197569
0.175752
0.15542
0.135452
0.110671
0.079467
0.417387
0.421842
0.42263
0.419823
0.41408
0.40637
0.3978
0.389485
0.3821
0.375592
0.369287
0.362244
0.353575
0.342912
0.33081
0.318356
0.305651
0.292055
0.279438
0.268654
0.260133
0.254686
0.253837
0.260223
0.278467
0.31672
0.389416
0.48044
0.511325
0.462993
0.369922
0.287547
0.238206
0.209229
0.186546
0.165881
0.146856
0.128306
0.10516
0.0775678
0.429536
0.436014
0.437794
0.43484
0.427915
0.418078
0.40669
0.395318
0.385004
0.375753
0.366777
0.357122
0.346223
0.334153
0.321337
0.308588
0.295717
0.283682
0.273042
0.264395
0.258546
0.256763
0.261094
0.274915
0.303866
0.357628
0.439223
0.495399
0.486194
0.416421
0.328128
0.26152
0.222801
0.197557
0.176265
0.156772
0.139011
0.121722
0.0999241
0.0756183
0.443516
0.452435
0.455572
0.452762
0.444886
0.432968
0.418577
0.403967
0.390692
0.37877
0.367105
0.35461
0.341169
0.327161
0.313537
0.300848
0.289058
0.278524
0.269835
0.263826
0.261665
0.265078
0.276749
0.30097
0.344495
0.408597
0.463486
0.480202
0.440982
0.365093
0.290131
0.239823
0.20936
0.18682
0.166772
0.148457
0.131892
0.115701
0.0949662
0.0736124
0.458282
0.470102
0.475098
0.473024
0.464754
0.451109
0.433841
0.416123
0.400181
0.385929
0.371517
0.355267
0.338975
0.323959
0.310172
0.297728
0.286774
0.277774
0.271517
0.269139
0.272243
0.283139
0.305395
0.344972
0.403689
0.450808
0.463482
0.441713
0.38597
0.315996
0.259154
0.22246
0.197581
0.176943
0.15806
0.140916
0.125463
0.110212
0.0902819
0.0715493
0.472599
0.487765
0.49524
0.494651
0.486811
0.472191
0.452482
0.432005
0.41376
0.396856
0.377443
0.357931
0.340604
0.325093
0.311451
0.299625
0.289934
0.283097
0.280252
0.283046
0.293767
0.315562
0.353421
0.406384
0.449592
0.463802
0.438643
0.390634
0.331358
0.276148
0.235932
0.208428
0.186991
0.167794
0.150071
0.134087
0.119655
0.105203
0.0858589
0.0694311
0.485135
0.503981
0.514576
0.516223
0.509858
0.495318
0.473845
0.451145
0.430892
0.407896
0.384785
0.364109
0.346076
0.330791
0.318073
0.307795
0.300284
0.296625
0.298592
0.308689
0.330453
0.368736
0.416335
0.447758
0.455916
0.435038
0.390115
0.336407
0.28657
0.247082
0.218418
0.196379
0.177138
0.15923
0.142713
0.127873
0.114376
0.100601
0.0816782
0.0672625
0.49462
0.517216
0.531351
0.535801
0.532024
0.518794
0.496414
0.471827
0.445623
0.419069
0.394781
0.373337
0.355438
0.341582
0.331386
0.324319
0.320302
0.321037
0.32952
0.349467
0.386527
0.430279
0.450119
0.447559
0.42315
0.382742
0.335026
0.289938
0.25348
0.225804
0.204121
0.185322
0.167742
0.151142
0.135885
0.122164
0.109523
0.0963279
0.0777167
0.06505
0.500046
0.526072
0.543824
0.551178
0.550126
0.539609
0.517671
0.48958
0.460091
0.43235
0.407145
0.385447
0.368431
0.357447
0.352796
0.352564
0.353834
0.359677
0.376824
0.406099
0.435308
0.446943
0.437221
0.409402
0.370524
0.32792
0.287916
0.254827
0.229327
0.20909
0.191448
0.174789
0.158701
0.14347
0.129498
0.116853
0.104994
0.0923034
0.0739498
0.0628017
0.500854
0.529645
0.551062
0.561184
0.562048
0.555154
0.535779
0.506034
0.475745
0.447165
0.421411
0.39985
0.384225
0.37694
0.381547
0.390762
0.396391
0.404323
0.420502
0.433976
0.432703
0.418375
0.391093
0.355216
0.317049
0.281764
0.252288
0.229161
0.210807
0.194852
0.179657
0.164658
0.150023
0.13619
0.123479
0.111847
0.100703
0.0884575
0.0703548
0.0605267
0.497136
0.52768
0.552847
0.566456
0.569095
0.564949
0.55149
0.523334
0.492368
0.463129
0.437121
0.415982
0.401798
0.397321
0.406254
0.43151
0.451642
0.454644
0.447379
0.428867
0.402726
0.371946
0.338193
0.304135
0.273047
0.247004
0.22627
0.209708
0.195485
0.182
0.168497
0.154961
0.141757
0.129292
0.117777
0.107076
0.0965787
0.0847349
0.0669124
0.058235
0.490141
0.520772
0.548982
0.56801
0.573974
0.571794
0.56359
0.541183
0.509693
0.479993
0.454114
0.433736
0.421188
0.419493
0.432529
0.464478
0.503474
0.49822
0.460798
0.41212
0.365854
0.325978
0.292025
0.26342
0.240069
0.221493
0.206571
0.193851
0.181975
0.170084
0.15795
0.145781
0.13395
0.122773
0.112353
0.102489
0.0925737
0.081097
0.0636084
0.0559374
0.480943
0.510166
0.539557
0.564282
0.577436
0.577616
0.5706
0.555744
0.527032
0.497861
0.472756
0.453582
0.442952
0.444299
0.462074
0.500501
0.53767
0.511117
0.449935
0.382647
0.32681
0.285356
0.255126
0.232662
0.215554
0.202022
0.190594
0.180084
0.169677
0.159001
0.148087
0.137196
0.12664
0.116629
0.107182
0.098058
0.0886592
0.0775224
0.0604343
0.0536447
0.470938
0.497207
0.525361
0.55261
0.573723
0.580566
0.574841
0.56444
0.543994
0.517997
0.494476
0.476857
0.46826
0.47246
0.495436
0.53921
0.545226
0.489125
0.414625
0.342866
0.288219
0.251114
0.226464
0.209409
0.196697
0.186299
0.176925
0.167777
0.158433
0.148793
0.13899
0.129266
0.119848
0.11086
0.102255
0.0937688
0.0848245
0.0740047
0.0573876
0.0513683
0.461566
0.483824
0.508177
0.533551
0.556944
0.571353
0.572233
0.568233
0.56259
0.545243
0.522623
0.506372
0.499895
0.505121
0.527988
0.554941
0.516512
0.44272
0.366525
0.300977
0.254152
0.223949
0.204728
0.191678
0.181741
0.173171
0.165009
0.156769
0.148269
0.139536
0.130723
0.122023
0.113587
0.105466
0.0975698
0.0896236
0.0810732
0.0705504
0.0544706
0.0491195
0.453926
0.472318
0.491587
0.511676
0.531383
0.547499
0.557909
0.56626
0.574676
0.576953
0.560502
0.545641
0.545192
0.55104
0.546874
0.512191
0.452905
0.384673
0.318681
0.265107
0.227897
0.204115
0.188881
0.178261
0.169807
0.162176
0.154695
0.147074
0.139248
0.131284
0.123316
0.115478
0.107857
0.10045
0.0931341
0.0856345
0.0774205
0.0671757
0.0516899
0.0469097
0.448032
0.464123
0.4793
0.493749
0.507371
0.520038
0.532207
0.54443
0.554688
0.559056
0.555257
0.543603
0.539218
0.525783
0.489263
0.441481
0.389951
0.334642
0.282095
0.240049
0.210524
0.191037
0.177961
0.168373
0.160431
0.153122
0.14595
0.13872
0.131402
0.124055
0.116769
0.109625
0.102655
0.095814
0.0889599
0.0818202
0.0738882
0.0639031
0.049055
0.0447505
0.442287
0.458265
0.471972
0.483311
0.492248
0.498995
0.504268
0.508578
0.510791
0.508691
0.501642
0.490761
0.476204
0.454896
0.424738
0.389022
0.347685
0.302452
0.259979
0.225698
0.200734
0.183308
0.170872
0.161311
0.153231
0.145831
0.138703
0.131676
0.124706
0.117818
0.111054
0.104442
0.0979689
0.0915603
0.0850605
0.0782026
0.0705025
0.0607591
0.0465763
0.0426534
0.434
0.451456
0.466165
0.477674
0.485652
0.490018
0.491076
0.48934
0.484937
0.477561
0.467259
0.454227
0.438411
0.418711
0.393671
0.362384
0.325034
0.285317
0.248694
0.218692
0.195907
0.179077
0.166405
0.156334
0.147773
0.140053
0.132802
0.125836
0.119078
0.112506
0.106116
0.0998894
0.0937788
0.0876861
0.0814474
0.0748027
0.0672896
0.0577709
0.0442641
0.0406298
0.420753
0.440021
0.456781
0.47039
0.480323
0.486258
0.488189
0.486414
0.481264
0.472912
0.461482
0.446961
0.429218
0.407534
0.380819
0.348618
0.312421
0.275841
0.242684
0.215109
0.193378
0.176572
0.163399
0.152689
0.143571
0.135466
0.128021
0.121031
0.114384
0.108015
0.101876
0.0959153
0.0900554
0.0841822
0.0781273
0.0716382
0.0642739
0.0549641
0.0421269
0.0386904
0.401527
0.421821
0.440136
0.455779
0.468142
0.476762
0.481385
0.481962
0.478507
0.47092
0.45923
0.443395
0.423292
0.398715
0.36961
0.336688
0.301911
0.268091
0.237697
0.212021
0.191152
0.174422
0.1609
0.149706
0.140145
0.131718
0.124094
0.117055
0.110462
0.104218
0.098242
0.0924548
0.0867596
0.0810312
0.0750998
0.0687213
0.061475
0.052361
0.0401705
0.0368452
0.377014
0.39704
0.415583
0.431964
0.445547
0.455782
0.462229
0.464558
0.462487
0.455708
0.444297
0.428135
0.407277
0.382019
0.353036
0.32159
0.289548
0.258965
0.23145
0.207804
0.188059
0.171757
0.158242
0.146866
0.137085
0.128482
0.120756
0.113693
0.10714
0.100978
0.0951092
0.089434
0.0838439
0.0782078
0.0723573
0.0660572
0.0589067
0.049978
0.0383971
0.035103
0.349143
0.367702
0.385126
0.400778
0.414042
0.42434
0.431149
0.434006
0.432492
0.426544
0.415962
0.400694
0.380979
0.357384
0.33085
0.302685
0.274437
0.247586
0.223223
0.201892
0.183638
0.168173
0.155059
0.143834
0.134089
0.125489
0.117773
0.110744
0.104249
0.0981612
0.0923724
0.0867753
0.0812555
0.0756801
0.0698849
0.0636439
0.0565761
0.0478252
0.0368052
0.033471
0.320244
0.33657
0.351967
0.365868
0.377711
0.386958
0.393109
0.395717
0.394405
0.389196
0.379811
0.366271
0.348894
0.328307
0.30542
0.281356
0.25731
0.23435
0.21325
0.194415
0.177923
0.16362
0.151233
0.14045
0.130975
0.122551
0.114965
0.108043
0.101643
0.0956427
0.0899321
0.0844026
0.0789394
0.0734122
0.0676621
0.0614729
0.0544826
0.0459052
0.035389
0.0319539
0.292331
0.306148
0.31915
0.330852
0.340775
0.34846
0.353482
0.355477
0.354265
0.349733
0.341679
0.330175
0.315543
0.298344
0.279336
0.259396
0.239412
0.220156
0.202194
0.185849
0.171227
0.158269
0.146822
0.136687
0.127661
0.119556
0.112204
0.105462
0.0992045
0.0933192
0.0877015
0.0822466
0.0768435
0.0713668
0.0656643
0.0595296
0.0526189
0.0442127
0.0341392
0.0305544
0.266732
0.278138
0.288799
0.298312
0.306289
0.312363
0.316204
0.31753
0.316354
0.312413
0.305619
0.296068
0.284046
0.270007
0.254534
0.238278
0.221882
0.205908
0.190778
0.176755
0.163958
0.15239
0.141977
0.132606
0.124143
0.116455
0.109419
0.102919
0.0968489
0.0911116
0.0856109
0.080249
0.0749211
0.069508
0.063865
0.0577948
0.050971
0.042736
0.0330437
0.0292723
0.244054
0.253356
0.261969
0.269564
0.275831
0.280493
0.283313
0.284122
0.282893
0.279438
0.273721
0.265843
0.25604
0.244659
0.232131
0.21893
0.205516
0.192299
0.179595
0.167621
0.156495
0.146255
0.136879
0.128307
0.120459
0.113246
0.106578
0.100365
0.0945226
0.0889659
0.0836098
0.078365
0.0731336
0.0678035
0.0622372
0.0562461
0.04952
0.0414573
0.0320883
0.0281052
0.22436
0.231937
0.238877
0.244914
0.249804
0.253334
0.255323
0.255759
0.254496
0.251441
0.246598
0.240065
0.23203
0.222753
0.212551
0.201765
0.190728
0.179738
0.169036
0.158798
0.149133
0.140095
0.131692
0.1239
0.116673
0.109955
0.103682
0.0977864
0.0922003
0.0868521
0.0816668
0.0765636
0.0714518
0.066226
0.0607555
0.0548596
0.0482437
0.0403553
0.0312579
0.0270485
0.207402
0.213608
0.219236
0.224065
0.227903
0.230589
0.232001
0.232127
0.230851
0.228128
0.223979
0.218493
0.21182
0.204159
0.195741
0.186815
0.177626
0.168393
0.159302
0.150494
0.142068
0.13408
0.126553
0.119486
0.112855
0.106626
0.100755
0.0951912
0.0898797
0.0847604
0.0797672
0.0748269
0.0698554
0.0647534
0.0593966
0.0536117
0.0471183
0.0394066
0.0305376
0.0260962
0.192805
0.197934
0.202546
0.206455
0.209501
0.211558
0.212573
0.212486
0.21123
0.208786
0.205187
0.200513
0.194883
0.18845
0.181389
0.173885
0.16612
0.158261
0.150451
0.142807
0.135411
0.12832
0.121564
0.115151
0.109074
0.103312
0.0978351
0.0926044
0.0875754
0.0826966
0.0779096
0.0731475
0.068332
0.0633693
0.0581409
0.0524804
0.0461207
0.0385882
0.0299133
0.0252415
0.180185
0.184461
0.188281
0.191486
0.19394
0.195538
0.19626
0.196032
0.194816
0.192612
0.189456
0.185418
0.180595
0.175107
0.169088
0.162679
0.156021
0.149241
0.142455
0.135755
0.129214
0.122884
0.116797
0.110967
0.105395
0.100068
0.0949668
0.0900606
0.0853121
0.0806768
0.076102
0.071526
0.0668757
0.0620624
0.0569726
0.0514469
0.04523
0.0378787
0.0293731
0.0244775
0.169214
0.172792
0.175977
0.178625
0.180617
0.181873
0.182364
0.182036
0.180869
0.178872
0.176081
0.172554
0.168373
0.16363
0.158432
0.152888
0.147108
0.141194
0.135237
0.129315
0.12349
0.117808
0.112302
0.106988
0.101871
0.0969448
0.0921949
0.0875969
0.0831191
0.0787218
0.0743572
0.069968
0.0654857
0.060826
0.0558806
0.0504962
0.044429
0.0372602
0.0289067
0.0237971
0.159629
0.162613
0.165265
0.167445
0.169042
0.170015
0.170311
0.1699
0.168777
0.166956
0.16447
0.161369
0.157716
0.153585
0.149059
0.144225
0.139167
0.133969
0.128704
0.123438
0.118224
0.113104
0.108107
0.103252
0.0985447
0.0939841
0.0895583
0.0852476
0.0810243
0.076853
0.0726898
0.0684816
0.064164
0.0596572
0.0548575
0.0496177
0.0437043
0.0367181
0.0285064
0.023194
0.151226
0.153685
0.155866
0.15763
0.158872
0.159559
0.159656
0.159152
0.158054
0.156379
0.154154
0.151418
0.148219
0.144613
0.140663
0.136436
0.131999
0.127417
0.122753
0.118059
0.113383
0.10876
0.104219
0.0997763
0.0954414
0.0912138
0.0870849
0.0830385
0.0790503
0.0750886
0.0711134
0.0670756
0.0629149
0.058556
0.0538997
0.0488049
0.0430469
0.036242
0.0281661
0.0226625
0.143838
0.145821
0.147576
0.148945
0.149824
0.150197
0.150062
0.149434
0.148332
0.146771
0.144771
0.142358
0.139563
0.136425
0.132989
0.129304
0.125422
0.121395
0.117271
0.113096
0.108908
0.10474
0.100616
0.0965539
0.0925617
0.0886411
0.0847859
0.0809824
0.0772099
0.0734403
0.0696377
0.065757
0.0617427
0.0575237
0.0530058
0.0480533
0.0424498
0.0358235
0.0278813
0.0221971
0.137295
0.138866
0.140252
0.141238
0.141724
0.141729
0.14131
0.140515
0.139372
0.137894
0.136087
0.133961
0.13153
0.128816
0.125848
0.122659
0.119286
0.115769
0.112145
0.108452
0.104721
0.10098
0.0972504
0.0935472
0.0898792
0.0862486
0.0826508
0.0790749
0.0755031
0.0719111
0.0682672
0.064531
0.0606515
0.0565631
0.0521766
0.0473621
0.0419105
0.0354589
0.027649
0.0217934
0.131334
0.132648
0.133805
0.13447
0.134528
0.134108
0.133359
0.132363
0.131151
0.129725
0.128074
0.126193
0.124079
0.121738
0.119184
0.116437
0.113523
0.110469
0.107305
0.104059
0.100755
0.0974173
0.0940624
0.0907036
0.0873484
0.0839985
0.0806504
0.0772947
0.0739162
0.0704938
0.0669995
0.0633976
0.0596422
0.0556733
0.0514077
0.0467223
0.0414157
0.035133
0.0274601
0.0214432
0.125255
0.126734
0.128088
0.128658
0.12835
0.127543
0.126498
0.125325
0.124048
0.122652
0.121115
0.119416
0.117541
0.115488
0.113258
0.110864
0.108322
0.105651
0.102871
0.100006
0.0970737
0.0940919
0.0910746
0.0880315
0.084968
0.0818849
0.078778
0.0756383
0.0724519
0.0691992
0.065855
0.0623869
0.0587532
0.0548987
0.0507467
0.0461812
0.0410095
0.034883
0.0273325
0.0211519
0.115511
0.118272
0.122558
0.123867
0.123635
0.12278
0.121682
0.12048
0.119203
0.11784
0.116367
0.114763
0.113013
0.111109
0.109054
0.106854
0.104521
0.10207
0.0995196
0.0968859
0.0941851
0.0914314
0.0886358
0.0858056
0.0829445
0.0800517
0.0771224
0.074147
0.0711114
0.0679966
0.0647782
0.0614251
0.0578977
0.0541435
0.0500897
0.0456265
0.0405715
0.0345905
0.0271938
0.020866
)
;

boundaryField
{
    leftWall
    {
        type            kqRWallFunction;
        value           nonuniform 0();
    }
    rightWall
    {
        type            kqRWallFunction;
        value           nonuniform List<scalar> 
43
(
0.085772
0.0845198
0.0830162
0.081317
0.079467
0.0775678
0.0756183
0.0736124
0.0715493
0.0694311
0.0672625
0.06505
0.0628017
0.0605267
0.058235
0.0559374
0.0536447
0.0513683
0.0491195
0.0469097
0.0447505
0.0426534
0.0406298
0.0386904
0.0368452
0.035103
0.033471
0.0319539
0.0305544
0.0292723
0.0281052
0.0270485
0.0260962
0.0252415
0.0244775
0.0237971
0.023194
0.0226625
0.0221971
0.0217934
0.0214432
0.0211519
0.020866
)
;
    }
    lowerWall
    {
        type            kqRWallFunction;
        value           nonuniform 0();
    }
    atmosphere
    {
        type            inletOutlet;
        inletValue      uniform 0.1;
        value           nonuniform List<scalar> 
45
(
0.1
0.1
0.1
0.1
0.1
0.1
0.1
0.122558
0.123867
0.123635
0.12278
0.121682
0.12048
0.119203
0.11784
0.116367
0.114763
0.113013
0.111109
0.109054
0.106854
0.104521
0.10207
0.0995196
0.0968859
0.0941851
0.0914314
0.0886358
0.0858056
0.0829445
0.0800517
0.0771224
0.074147
0.0711114
0.0679966
0.0647782
0.0614251
0.0578977
0.0541435
0.0500897
0.0456265
0.0405715
0.0345905
0.0271938
0.020866
)
;
    }
    defaultFaces
    {
        type            empty;
    }
    procBoundary3to1
    {
        type            processor;
        value           nonuniform List<scalar> 
45
(
0.394947
0.39983
0.403148
0.405019
0.405504
0.404671
0.402513
0.399394
0.395729
0.391979
0.388584
0.385913
0.384182
0.383369
0.383155
0.382956
0.38202
0.379593
0.375079
0.368161
0.358814
0.347311
0.334053
0.319895
0.305095
0.290652
0.277331
0.265387
0.255239
0.247746
0.244613
0.24943
0.269789
0.321623
0.412829
0.454983
0.407413
0.335651
0.286261
0.256338
0.230892
0.204717
0.176354
0.139971
0.0867088
)
;
    }
    procBoundary3to2
    {
        type            processor;
        value           nonuniform List<scalar> 
43
(
0.38191
0.375843
0.370498
0.366168
0.36301
0.361033
0.360111
0.360022
0.360486
0.361212
0.36194
0.36246
0.362626
0.3624
0.36162
0.360153
0.357834
0.354435
0.349657
0.343167
0.334658
0.323955
0.311107
0.296431
0.280479
0.263936
0.247481
0.231678
0.216908
0.203376
0.191137
0.180158
0.170361
0.161657
0.153965
0.147211
0.141322
0.136195
0.131659
0.127391
0.122796
0.116838
0.107849
)
;
    }
}


// ************************************************************************* //
