/*--------------------------------*- C++ -*----------------------------------*\
| =========                 |                                                 |
| \\      /  F ield         | OpenFOAM: The Open Source CFD Toolbox           |
|  \\    /   O peration     | Version:  5.0                                   |
|   \\  /    A nd           | Web:      www.OpenFOAM.org                      |
|    \\/     M anipulation  |                                                 |
\*---------------------------------------------------------------------------*/
FoamFile
{
    version     2.0;
    format      ascii;
    class       volScalarField;
    location    "0.45";
    object      p;
}
// * * * * * * * * * * * * * * * * * * * * * * * * * * * * * * * * * * * * * //

dimensions      [1 -1 -2 0 0 0 0];

internalField   nonuniform List<scalar> 
1935
(
-4.32262
-4.40269
-4.48318
-4.5634
-4.64303
-4.72118
-4.79706
-4.86999
-4.93935
-5.00462
-5.06536
-5.12113
-5.17131
-5.2151
-5.25157
-5.27989
-5.29944
-5.30998
-5.3117
-5.30527
-5.29196
-5.27359
-5.25236
-5.23056
-5.21026
-5.19313
-5.18047
-5.17317
-5.17166
-5.1761
-5.18647
-5.20269
-5.22454
-5.25176
-5.28414
-5.32149
-5.36361
-5.41029
-5.46134
-5.51662
-5.57665
-5.64263
-5.70913
-4.40341
-4.48249
-4.56109
-4.63751
-4.4851
-4.56511
-4.64404
-4.71979
-4.56668
-4.64796
-4.72729
-4.80222
-4.64822
-4.73045
-4.80988
-4.88385
-4.72886
-4.8116
-4.89082
-4.9637
-4.80766
-4.89054
-4.96927
-5.04095
-4.88388
-4.96661
-5.04467
-5.11507
-4.95691
-5.03934
-5.11667
-5.1859
-5.02626
-5.10841
-5.18519
-5.25363
-5.09149
-5.17355
-5.25023
-5.31855
-5.15227
-5.23458
-5.31184
-5.38108
-5.2082
-5.29125
-5.37006
-5.44175
-5.25868
-5.34298
-5.42433
-5.50013
-5.30278
-5.38859
-5.47317
-5.55424
-5.33926
-5.42643
-5.51428
-5.60092
-5.36698
-5.45485
-5.54523
-5.63662
-5.38507
-5.47262
-5.56428
-5.65902
-5.39305
-5.47896
-5.5703
-5.66659
-5.39088
-5.47349
-5.56239
-5.65761
-5.3791
-5.45652
-5.54036
-5.631
-5.35906
-5.42945
-5.50563
-5.58799
-5.33285
-5.39476
-5.46135
-5.53276
-5.3031
-5.35568
-5.41159
-5.47074
-5.27261
-5.31565
-5.3607
-5.4075
-5.24388
-5.27774
-5.31251
-5.34783
-5.21893
-5.24435
-5.26987
-5.29513
-5.1993
-5.21731
-5.23484
-5.2516
-5.18605
-5.19785
-5.20874
-5.21851
-5.17965
-5.18645
-5.19205
-5.19626
-5.18014
-5.18298
-5.18448
-5.18441
-5.18735
-5.18707
-5.1854
-5.18212
-5.20103
-5.19829
-5.19418
-5.18857
-5.22088
-5.21623
-5.21032
-5.2031
-5.24658
-5.24053
-5.23339
-5.22517
-5.27786
-5.27089
-5.26303
-5.25436
-5.31454
-5.30707
-5.29894
-5.29019
-5.35635
-5.34876
-5.34065
-5.33205
-5.40298
-5.39548
-5.38755
-5.37919
-5.45407
-5.44672
-5.43898
-5.43083
-5.5094
-5.50216
-5.49454
-5.48648
-5.56953
-5.56244
-5.55499
-5.54691
-5.63583
-5.62901
-5.62165
-5.61252
-5.70171
-5.69351
-5.68343
-5.66926
-4.71269
-4.78207
-4.83868
-4.8815
-4.91123
-4.92977
-4.93904
-4.94016
-4.93335
-4.91914
-4.89972
-4.87888
-4.86001
-4.84411
-4.8304
-4.8183
-4.81277
-4.80929
-4.79406
-4.85902
-5.57106
-14.8265
-26.0693
-25.0581
-21.2631
-18.114
-11.201
-0.72488
2.33055
2.10014
2.84433
3.15921
3.42415
3.65701
3.84754
3.99868
4.1186
4.21928
4.30475
4.37075
-4.79346
-4.86052
-4.9143
-4.95387
-4.97985
-4.9939
-4.99772
-4.99247
-4.97892
-4.95836
-4.93346
-4.90803
-4.88528
-4.8663
-4.85082
-4.83905
-4.83275
-4.82998
-4.81499
-4.9563
-6.68753
-18.8323
-26.9677
-24.3372
-20.688
-16.8681
-8.31635
-0.85119
1.37701
1.71579
2.17283
2.48558
2.76949
3.01364
3.21428
3.37463
3.50173
3.60525
3.68765
3.74825
-4.87401
-4.93826
-4.98871
-5.02458
-5.04647
-5.05583
-5.0541
-5.04252
-5.02231
-4.99549
-4.96505
-4.93459
-4.9072
-4.88485
-4.86867
-4.85906
-4.85503
-4.84265
-4.83744
-5.10837
-10.0012
-23.8732
-26.8374
-22.9861
-19.5043
-13.9876
-3.85907
-0.464532
0.0386727
1.21503
1.55858
1.86394
2.15513
2.406
2.61335
2.78043
2.91273
3.01731
3.09554
3.15071
-4.95362
-5.01481
-5.06151
-5.093
-5.10995
-5.11378
-5.10618
-5.08845
-5.0619
-5.0291
-4.99327
-4.95769
-4.92512
-4.89839
-4.88064
-4.87448
-4.86274
-4.85007
-4.98537
-7.01921
-19.0333
-27.6547
-25.2591
-21.0199
-17.0098
-9.39985
-1.69207
-0.735602
-0.489216
0.5481
0.943141
1.27509
1.57716
1.83433
2.04723
2.21921
2.35471
2.45875
2.53218
2.58347
-5.03137
-5.08941
-5.13214
-5.15851
-5.1692
-5.16668
-5.15342
-5.13021
-5.0979
-5.05951
-5.01834
-4.97736
-4.93839
-4.90437
-4.88272
-4.86995
-4.86711
-5.03646
-6.02335
-16.3917
-27.7403
-27.162
-22.486
-17.9905
-11.7447
-3.58245
-1.96063
-1.80436
-0.68949
-0.0434624
0.362207
0.722318
1.03696
1.30059
1.51813
1.69329
1.83007
1.93201
1.99905
2.05175
-5.10653
-5.16157
-5.20047
-5.22015
-5.22321
-5.21477
-5.19778
-5.16926
-5.1318
-5.08821
-5.04165
-4.9947
-4.94719
-4.89717
-4.85885
-4.86213
-5.01881
-6.25676
-17.2229
-29.1386
-28.7027
-23.535
-18.4748
-12.1612
-3.93435
-1.407
-2.73641
-2.04605
-1.06195
-0.54796
-0.156431
0.218494
0.54009
0.808026
1.02817
1.20446
1.34067
1.43963
1.50072
1.55397
-5.17863
-5.23089
-5.26608
-5.27834
-5.27259
-5.26259
-5.24234
-5.20875
-5.16603
-5.11723
-5.06559
-5.01404
-4.9526
-4.88753
-4.87012
-5.09102
-8.40053
-22.2342
-31.6905
-29.6189
-23.8475
-18.3894
-11.6417
-3.01101
0.13409
-2.81459
-2.80421
-1.99062
-1.4102
-1.00128
-0.609251
-0.23047
0.0915961
0.359827
0.579205
0.753891
0.887584
0.98262
1.03806
1.09023
-5.2477
-5.29731
-5.32758
-5.33302
-5.32468
-5.31198
-5.28898
-5.25116
-5.20278
-5.14858
-5.09441
-5.04458
-4.97883
-4.92953
-6.57999
-16.3918
-29.2268
-32.2273
-28.2886
-22.4942
-17.0471
-10.1413
-1.84828
0.64148
-1.94631
-2.62134
-2.59609
-2.20028
-1.78934
-1.40015
-0.994529
-0.621886
-0.305399
-0.0422864
0.171985
0.341923
0.471006
0.561192
0.611328
0.660036
-5.31427
-5.36183
-5.38816
-5.39054
-5.3817
-5.36571
-5.34073
-5.29942
-5.24558
-5.18505
-5.12685
-5.10108
-5.19814
-7.55279
-19.4493
-27.1161
-27.0839
-23.3929
-18.9222
-14.1932
-7.41727
-0.480983
-0.631304
-2.74429
-2.73579
-2.8116
-2.76248
-2.52341
-2.14038
-1.72134
-1.31391
-0.95432
-0.650585
-0.398952
-0.19437
-0.0323345
0.0900402
0.174315
0.219473
0.262949
-5.37887
-5.42551
-5.4516
-5.45444
-5.44419
-5.42859
-5.40434
-5.3611
-5.30036
-5.22939
-5.14937
-5.03273
-6.47836
-12.6592
-16.3066
-16.9752
-15.9992
-13.9671
-10.2437
-4.52696
-0.218944
-2.33513
-3.30061
-3.13769
-3.14048
-3.05473
-2.93327
-2.70581
-2.34695
-1.93928
-1.55811
-1.22693
-0.946375
-0.712882
-0.522207
-0.37092
-0.257145
-0.179804
-0.139431
-0.101944
-5.44264
-5.49095
-5.51963
-5.52533
-5.51539
-5.50788
-5.49145
-5.44646
-5.37849
-5.2871
-5.21541
-8.03683
-14.3716
-20.3795
-10.5582
-3.02947
-3.03151
-1.94203
0.652278
-0.662019
-3.66119
-3.45357
-3.29172
-3.33559
-3.26468
-3.14223
-2.98405
-2.74085
-2.4144
-2.06574
-1.73946
-1.44973
-1.19987
-0.989171
-0.815446
-0.677016
-0.57323
-0.503559
-0.467842
-0.43644
-5.50708
-5.56116
-5.59433
-5.60521
-5.59979
-5.60782
-5.61278
-5.56476
-5.46724
-5.7324
-10.3328
-14.4116
-24.1523
-27.8398
-19.2257
-1.4639
5.68864
4.99041
0.554263
-3.41224
-3.50895
-3.404
-3.41045
-3.37741
-3.27788
-3.13623
-2.95798
-2.72485
-2.44801
-2.16113
-1.88783
-1.63958
-1.42152
-1.23482
-1.07922
-0.954646
-0.861541
-0.79984
-0.768613
-0.742997
-5.57182
-5.63523
-5.67827
-5.70175
-5.70673
-5.73749
-5.7918
-5.76693
-5.94039
-7.95571
-9.58114
-15.7909
-25.871
-27.6549
-17.9425
-8.45618
-4.98715
-4.37987
-4.07685
-3.67562
-3.58485
-3.53134
-3.47603
-3.39265
-3.27424
-3.1243
-2.94402
-2.73135
-2.49526
-2.25409
-2.02269
-1.81007
-1.6208
-1.45675
-1.31882
-1.20806
-1.12564
-1.07178
-1.04479
-1.02439
-5.63404
-5.70968
-5.76986
-5.80707
-5.82145
-5.88334
-5.98447
-6.08134
-4.81526
-1.93578
-7.40489
-17.1461
-25.7656
-20.4401
-8.71942
-6.02408
-4.5574
-4.03728
-3.87734
-3.85064
-3.73074
-3.61991
-3.51736
-3.40669
-3.27775
-3.12685
-2.95394
-2.76103
-2.55568
-2.34928
-2.15144
-1.9685
-1.80411
-1.66037
-1.53884
-1.44118
-1.36894
-1.32245
-1.29934
-1.28345
-5.6893
-5.77753
-5.85467
-5.90552
-5.9449
-6.02852
-6.14756
-6.18271
-3.96873
1.83097
-5.03181
-17.1307
-25.9226
-20.7181
-7.34719
-4.50325
-3.92743
-3.88452
-3.84608
-3.80514
-3.72243
-3.62711
-3.52566
-3.41329
-3.28495
-3.13941
-2.97819
-2.80477
-2.62536
-2.44735
-2.27699
-2.11872
-1.97556
-1.84967
-1.74295
-1.65734
-1.59448
-1.55467
-1.53504
-1.52287
-5.73233
-5.83081
-5.9238
-5.98831
-6.05094
-6.13826
-6.26885
-6.29965
-6.10765
0.802328
-2.72594
-15.2691
-24.0301
-19.6305
-6.94757
-3.54214
-3.63561
-3.75563
-3.76949
-3.73981
-3.68592
-3.61424
-3.52619
-3.42121
-3.2996
-3.16347
-3.016
-2.86118
-2.70388
-2.54909
-2.40108
-2.2632
-2.13803
-2.02767
-1.93411
-1.85931
-1.80486
-1.77096
-1.75434
-1.74516
-5.76042
-5.86624
-5.96902
-6.06182
-6.14248
-6.22288
-6.3462
-6.49228
-6.57418
-1.31536
0.054233
-10.4152
-18.1812
-15.0329
-6.14091
-3.57438
-3.63081
-3.75372
-3.77078
-3.7447
-3.69689
-3.63057
-3.54636
-3.44538
-3.32992
-3.20315
-3.06859
-2.92984
-2.79063
-2.6545
-2.52462
-2.40358
-2.2936
-2.19664
-2.11461
-2.04935
-2.00227
-1.97348
-1.95941
-1.95256
-5.77202
-5.88481
-5.99859
-6.11334
-6.22196
-6.3017
-6.40802
-6.71264
-6.67163
-5.40751
1.58496
0.878586
-3.13179
-6.27752
-5.39499
-4.20823
-3.87113
-3.90184
-3.87894
-3.82604
-3.76071
-3.68325
-3.59288
-3.49046
-3.37811
-3.25851
-3.13446
-3.00872
-2.88401
-2.76293
-2.64783
-2.54078
-2.44366
-2.35822
-2.28621
-2.22925
-2.18853
-2.16405
-2.15213
-2.14708
-5.7641
-5.88137
-6.00431
-6.13687
-6.27646
-6.37601
-6.48009
-6.72406
-7.15944
-7.40244
-4.53344
2.00298
0.62349
-3.84154
-5.14046
-4.61611
-4.22791
-4.1437
-4.04917
-3.95123
-3.85643
-3.75993
-3.65857
-3.55182
-3.44051
-3.32613
-3.21039
-3.09511
-2.98217
-2.87341
-2.77057
-2.67529
-2.58913
-2.51361
-2.45024
-2.40042
-2.36512
-2.34427
-2.33411
-2.3305
-5.73389
-5.84991
-5.97485
-6.11301
-6.26613
-6.40343
-6.52278
-6.68619
-6.97143
-7.39366
-7.76344
-7.1886
-6.70556
-5.73478
-5.35899
-4.99138
-4.62947
-4.40807
-4.23028
-4.0853
-3.96051
-3.84504
-3.7331
-3.62222
-3.51169
-3.4017
-3.29296
-3.18646
-3.08338
-2.98499
-2.89255
-2.80732
-2.73058
-2.66361
-2.6077
-2.564
-2.53332
-2.5155
-2.5068
-2.50436
-5.68185
-5.78871
-5.90438
-6.03033
-6.16843
-6.30899
-6.42097
-6.50219
-6.58948
-6.72938
-6.79493
-6.63006
-6.38552
-6.15327
-5.73799
-5.25865
-4.86554
-4.5816
-4.36524
-4.19482
-4.05218
-3.92534
-3.80757
-3.69531
-3.58683
-3.48149
-3.37928
-3.28063
-3.18622
-3.09685
-3.01344
-2.93694
-2.86837
-2.80882
-2.75936
-2.72093
-2.69417
-2.6789
-2.67143
-2.67003
-5.61362
-5.70532
-5.80378
-5.90857
-6.01822
-6.12506
-6.2126
-6.28424
-6.34863
-6.40747
-6.41361
-6.31224
-6.1375
-5.91716
-5.59484
-5.22168
-4.89657
-4.63881
-4.43328
-4.26503
-4.12144
-3.99384
-3.87677
-3.76696
-3.66261
-3.56282
-3.46728
-3.37609
-3.28961
-3.20835
-3.13295
-3.06415
-3.00277
-2.94972
-2.90587
-2.872
-2.84863
-2.83553
-2.82913
-2.82869
-5.53683
-5.61076
-5.68882
-5.76995
-5.85183
-5.92962
-5.99652
-6.04959
-6.08618
-6.10006
-6.06977
-5.97154
-5.81034
-5.59864
-5.34633
-5.08064
-4.83875
-4.63209
-4.45649
-4.30512
-4.17159
-4.05097
-3.93978
-3.83576
-3.73751
-3.64428
-3.55575
-3.47188
-3.39287
-3.31905
-3.25089
-3.18898
-3.134
-3.0867
-3.04781
-3.01795
-2.99754
-2.98633
-2.98089
-2.98138
-5.45875
-5.5147
-5.57207
-5.62955
-5.68487
-5.73452
-5.77437
-5.80084
-5.80991
-5.7946
-5.74443
-5.64959
-5.51319
-5.34337
-5.15214
-4.95695
-4.77408
-4.60959
-4.46275
-4.3309
-4.21115
-4.10099
-3.99847
-3.90224
-3.81141
-3.72548
-3.6442
-3.56754
-3.49562
-3.42871
-3.36719
-3.31153
-3.26233
-3.22021
-3.18575
-3.15945
-3.14168
-3.13214
-3.1276
-3.129
-5.38549
-5.42509
-5.46386
-5.50057
-5.53332
-5.55954
-5.57632
-5.58062
-5.56907
-5.53734
-5.48037
-5.39544
-5.28488
-5.15402
-5.01028
-4.86335
-4.7216
-4.58896
-4.4661
-4.3524
-4.24674
-4.14801
-4.05524
-3.9677
-3.8849
-3.80656
-3.73257
-3.66293
-3.59777
-3.53732
-3.48194
-3.43204
-3.38812
-3.35071
-3.32026
-3.29718
-3.28177
-3.27373
-3.27006
-3.27232
-5.32113
-5.34699
-5.37044
-5.39046
-5.40568
-5.41432
-5.4144
-5.40376
-5.38006
-5.34161
-5.28573
-5.21203
-5.12227
-5.01982
-4.90918
-4.79554
-4.68335
-4.57522
-4.47225
-4.37469
-4.28238
-4.19496
-4.11206
-4.03338
-3.9587
-3.88793
-3.82107
-3.75818
-3.69942
-3.64506
-3.59541
-3.55085
-3.51181
-3.47871
-3.45193
-3.43176
-3.41848
-3.41181
-3.40898
-3.41203
-5.26801
-5.28288
-5.29448
-5.30202
-5.30458
-5.30109
-5.2903
-5.27099
-5.24203
-5.20161
-5.14964
-5.0861
-5.01215
-4.92987
-4.84196
-4.75133
-4.6605
-4.5712
-4.4845
-4.40092
-4.32071
-4.2439
-4.17046
-4.10034
-4.03353
-3.97007
-3.91004
-3.85358
-3.8009
-3.75227
-3.708
-3.66842
-3.6339
-3.60477
-3.58132
-3.5638
-3.55244
-3.54701
-3.54499
-3.54874
-5.22722
-5.23361
-5.23643
-5.23513
-5.22916
-5.21789
-5.20062
-5.17666
-5.14539
-5.10618
-5.0589
-5.00382
-4.94176
-4.874
-4.80217
-4.72795
-4.65289
-4.57819
-4.5047
-4.43299
-4.36343
-4.29624
-4.23155
-4.16945
-4.11007
-4.05351
-3.99996
-3.94959
-3.90266
-3.85944
-3.8202
-3.78527
-3.75491
-3.72942
-3.709
-3.69385
-3.68423
-3.67993
-3.67868
-3.68301
-5.19893
-5.19894
-5.1955
-5.18825
-5.17686
-5.16099
-5.14027
-5.11436
-5.08294
-5.0458
-5.00296
-4.95472
-4.90165
-4.84458
-4.78451
-4.72246
-4.65941
-4.59621
-4.53351
-4.47183
-4.41154
-4.3529
-4.29614
-4.24143
-4.18893
-4.13885
-4.09138
-4.04676
-4.00524
-3.96709
-3.93255
-3.9019
-3.87536
-3.85316
-3.83547
-3.82246
-3.81439
-3.8111
-3.81058
-3.81534
-5.18252
-5.17789
-5.17017
-5.15911
-5.14453
-5.12624
-5.10407
-5.07784
-5.04741
-5.01273
-4.97392
-4.93128
-4.88521
-4.83627
-4.7851
-4.73237
-4.67873
-4.62477
-4.57098
-4.51779
-4.46553
-4.41447
-4.36484
-4.31686
-4.27073
-4.22666
-4.18488
-4.14564
-4.10917
-4.07572
-4.04552
-4.01879
-3.9957
-3.97646
-3.9612
-3.95009
-3.9434
-3.94102
-3.94117
-3.94622
-5.17691
-5.16909
-5.15861
-5.14533
-5.12912
-5.10989
-5.08752
-5.06197
-5.03314
-5.00109
-4.96596
-4.92803
-4.88762
-4.84513
-4.80099
-4.75566
-4.7096
-4.66321
-4.61689
-4.57095
-4.52568
-4.48133
-4.43812
-4.39626
-4.35596
-4.31745
-4.28095
-4.24669
-4.21489
-4.18577
-4.15951
-4.13631
-4.11632
-4.0997
-4.0866
-4.07718
-4.07171
-4.07015
-4.07088
-4.0761
-5.18108
-5.17122
-5.15916
-5.14479
-5.12804
-5.10882
-5.08709
-5.06278
-5.03589
-5.0065
-4.97479
-4.94098
-4.90534
-4.86819
-4.82984
-4.79062
-4.75086
-4.71086
-4.6709
-4.63124
-4.59211
-4.55373
-4.51629
-4.47999
-4.44503
-4.41162
-4.37996
-4.35027
-4.32273
-4.29752
-4.27482
-4.25477
-4.23753
-4.22325
-4.21206
-4.20413
-4.19974
-4.1989
-4.20013
-4.20541
-5.19418
-5.18319
-5.17041
-5.15575
-5.13916
-5.12057
-5.09994
-5.07723
-5.05247
-5.02576
-4.99727
-4.9672
-4.93578
-4.90326
-4.86989
-4.83591
-4.80156
-4.76707
-4.73266
-4.69851
-4.66482
-4.63177
-4.59952
-4.56826
-4.53815
-4.50938
-4.48213
-4.45657
-4.43287
-4.41118
-4.39164
-4.37441
-4.35961
-4.34739
-4.33789
-4.33128
-4.32785
-4.32763
-4.32929
-4.33454
-5.21551
-5.20407
-5.19118
-5.17677
-5.1608
-5.14322
-5.12399
-5.1031
-5.08058
-5.05656
-5.03119
-5.00463
-4.97708
-4.94874
-4.9198
-4.89045
-4.86088
-4.83126
-4.80175
-4.77251
-4.74368
-4.71541
-4.68784
-4.66112
-4.63539
-4.61081
-4.58752
-4.56568
-4.54541
-4.52685
-4.51014
-4.4954
-4.48277
-4.47238
-4.46438
-4.45895
-4.45636
-4.45667
-4.45867
-4.46383
-5.24445
-5.23303
-5.22044
-5.20664
-5.1916
-5.17528
-5.15767
-5.13875
-5.11858
-5.09728
-5.07496
-5.05177
-5.02785
-5.00338
-4.9785
-4.95336
-4.92809
-4.90285
-4.87774
-4.8529
-4.82843
-4.80446
-4.78109
-4.75846
-4.73667
-4.71585
-4.69611
-4.67759
-4.66039
-4.64463
-4.63043
-4.61791
-4.60721
-4.59845
-4.59179
-4.5874
-4.58555
-4.58631
-4.58856
-4.59357
-5.28036
-5.26926
-5.25725
-5.2443
-5.23042
-5.21557
-5.19974
-5.18295
-5.16523
-5.14668
-5.12739
-5.10747
-5.08703
-5.0662
-5.04509
-5.02382
-5.0025
-4.98124
-4.96012
-4.93926
-4.91873
-4.89863
-4.87906
-4.86009
-4.84184
-4.82438
-4.80783
-4.79227
-4.77781
-4.76454
-4.75259
-4.74207
-4.73309
-4.7258
-4.72034
-4.71687
-4.71565
-4.71677
-4.71919
-4.724
-5.3225
-5.31188
-5.30063
-5.28875
-5.27624
-5.26306
-5.24921
-5.23469
-5.21954
-5.20379
-5.18752
-5.1708
-5.15371
-5.13635
-5.11879
-5.10113
-5.08346
-5.06586
-5.0484
-5.03116
-5.01421
-4.99762
-4.98147
-4.96581
-4.95073
-4.93629
-4.92259
-4.90969
-4.89768
-4.88666
-4.87674
-4.868
-4.86058
-4.8546
-4.8502
-4.84753
-4.84684
-4.84823
-4.85075
-4.85531
-5.36998
-5.35992
-5.34958
-5.33898
-5.3281
-5.31686
-5.30522
-5.29316
-5.28068
-5.26781
-5.25457
-5.241
-5.22717
-5.21312
-5.19893
-5.18468
-5.17041
-5.1562
-5.14211
-5.1282
-5.11452
-5.10112
-5.08807
-5.0754
-5.06318
-5.05147
-5.04033
-5.02983
-5.02004
-5.01105
-5.00295
-4.99584
-4.98981
-4.985
-4.98152
-4.97954
-4.97927
-4.98083
-4.98335
-4.98764
-5.42188
-5.41232
-5.40301
-5.39403
-5.38516
-5.37621
-5.36707
-5.35771
-5.34807
-5.33815
-5.32795
-5.31749
-5.30681
-5.29596
-5.28498
-5.27393
-5.26286
-5.25181
-5.24085
-5.23001
-5.21933
-5.20886
-5.19863
-5.18868
-5.17907
-5.16983
-5.16102
-5.1527
-5.14494
-5.13779
-5.13135
-5.12569
-5.12092
-5.11713
-5.11445
-5.11302
-5.11305
-5.11468
-5.11712
-5.12105
-5.47759
-5.46819
-5.45999
-5.45318
-5.44689
-5.44068
-5.4344
-5.42796
-5.4213
-5.41439
-5.40723
-5.39982
-5.3922
-5.38441
-5.37647
-5.36845
-5.36037
-5.35229
-5.34423
-5.33624
-5.32833
-5.32055
-5.31293
-5.30549
-5.29826
-5.2913
-5.28463
-5.27831
-5.2724
-5.26694
-5.262
-5.25766
-5.25399
-5.25109
-5.24905
-5.24802
-5.2482
-5.24975
-5.25197
-5.25547
-5.53722
-5.52602
-5.51865
-5.51532
-5.51265
-5.50983
-5.50682
-5.50357
-5.50002
-5.49616
-5.492
-5.48756
-5.48288
-5.478
-5.47296
-5.46779
-5.46253
-5.45722
-5.45188
-5.44654
-5.44122
-5.43595
-5.43075
-5.42564
-5.42065
-5.4158
-5.41114
-5.40668
-5.40249
-5.39859
-5.39505
-5.39191
-5.38923
-5.3871
-5.38559
-5.38483
-5.38502
-5.38635
-5.38822
-5.39112
-5.59763
-5.57519
-5.56755
-5.5727
-5.57716
-5.57971
-5.58121
-5.58204
-5.58222
-5.58183
-5.58095
-5.57967
-5.57804
-5.57613
-5.57399
-5.57166
-5.56918
-5.56657
-5.56386
-5.56107
-5.55821
-5.55532
-5.5524
-5.54947
-5.54655
-5.54367
-5.54083
-5.53807
-5.53542
-5.5329
-5.53054
-5.52837
-5.52644
-5.5248
-5.5235
-5.52265
-5.52245
-5.52315
-5.52436
-5.52649
-5.64357
-5.59827
-5.5908
-5.61874
-5.63794
-5.64892
-5.65646
-5.66221
-5.66663
-5.67003
-5.67265
-5.6747
-5.67629
-5.67752
-5.67845
-5.67912
-5.67958
-5.67984
-5.67993
-5.67986
-5.67966
-5.67932
-5.67887
-5.67832
-5.67767
-5.67695
-5.67616
-5.67532
-5.67442
-5.6735
-5.67254
-5.67157
-5.67058
-5.66959
-5.66863
-5.66772
-5.667
-5.66664
-5.66644
-5.66661
)
;

boundaryField
{
    leftWall
    {
        type            calculated;
        value           nonuniform 0();
    }
    rightWall
    {
        type            calculated;
        value           nonuniform List<scalar> 
43
(
4.37075
3.74825
3.15071
2.58347
2.05175
1.55397
1.09023
0.660036
0.262949
-0.101944
-0.43644
-0.742997
-1.02439
-1.28345
-1.52287
-1.74516
-1.95256
-2.14708
-2.3305
-2.50436
-2.67003
-2.82869
-2.98138
-3.129
-3.27232
-3.41203
-3.54874
-3.68301
-3.81534
-3.94622
-4.0761
-4.20541
-4.33454
-4.46383
-4.59357
-4.724
-4.85531
-4.98764
-5.12105
-5.25547
-5.39112
-5.52649
-5.66661
)
;
    }
    lowerWall
    {
        type            calculated;
        value           nonuniform 0();
    }
    atmosphere
    {
        type            calculated;
        value           nonuniform List<scalar> 
45
(
-5.74593
-5.74126
-5.73733
-5.73409
-5.73165
-5.73002
-5.72929
-5.72904
-5.72904
-5.72904
-5.72904
-5.72904
-5.72904
-5.72904
-5.72904
-5.72904
-5.72904
-5.72904
-5.72904
-5.72904
-5.72904
-5.72904
-5.72904
-5.72904
-5.72904
-5.72904
-5.72904
-5.72904
-5.72904
-5.72904
-5.72904
-5.72904
-5.72904
-5.72904
-5.72904
-5.72904
-5.72904
-5.72904
-5.72904
-5.72904
-5.72904
-5.72904
-5.72904
-5.72904
-5.72904
)
;
    }
    defaultFaces
    {
        type            empty;
    }
    procBoundary3to1
    {
        type            processor;
        value           nonuniform List<scalar> 
45
(
-4.24499
-4.32275
-4.40091
-4.47983
-4.55644
-4.63232
-4.70318
-4.76211
-4.80813
-4.84195
-4.86537
-4.88016
-4.88723
-4.88652
-4.87821
-4.8642
-4.84809
-4.83336
-4.82105
-4.80991
-4.80039
-4.79598
-4.79818
-4.78896
-4.80748
-5.13058
-12.6906
-25.069
-25.2342
-21.4819
-18.4753
-12.7896
-1.49793
2.54606
2.69867
3.57074
3.8733
4.11816
4.33371
4.50971
4.64831
4.75862
4.85458
4.94208
5.01329
)
;
    }
    procBoundary3to2
    {
        type            processor;
        value           nonuniform List<scalar> 
43
(
-4.24333
-4.32089
-4.39957
-4.47853
-4.55682
-4.63388
-4.70898
-4.78139
-4.85046
-4.91563
-4.97639
-5.03224
-5.08261
-5.12679
-5.16405
-5.19375
-5.21551
-5.22925
-5.23528
-5.23434
-5.22762
-5.2167
-5.20343
-5.18969
-5.17717
-5.16729
-5.16114
-5.15947
-5.16269
-5.17106
-5.18465
-5.20344
-5.22732
-5.25613
-5.2897
-5.32788
-5.3705
-5.41743
-5.46858
-5.52391
-5.5839
-5.64963
-5.71627
)
;
    }
}


// ************************************************************************* //
