/*--------------------------------*- C++ -*----------------------------------*\
| =========                 |                                                 |
| \\      /  F ield         | OpenFOAM: The Open Source CFD Toolbox           |
|  \\    /   O peration     | Version:  5.0                                   |
|   \\  /    A nd           | Web:      www.OpenFOAM.org                      |
|    \\/     M anipulation  |                                                 |
\*---------------------------------------------------------------------------*/
FoamFile
{
    version     2.0;
    format      ascii;
    class       volVectorField;
    location    "0.45";
    object      U;
}
// * * * * * * * * * * * * * * * * * * * * * * * * * * * * * * * * * * * * * //

dimensions      [0 1 -1 0 0 0 0];

internalField   nonuniform List<vector> 
1935
(
(0.824477 -0.58031 0)
(0.764947 -0.629179 0)
(0.702868 -0.675673 0)
(0.63807 -0.719638 0)
(0.570698 -0.760657 0)
(0.501068 -0.798564 0)
(0.429654 -0.833303 0)
(0.357004 -0.864928 0)
(0.283657 -0.893545 0)
(0.210072 -0.919238 0)
(0.136589 -0.941988 0)
(0.063427 -0.961586 0)
(-0.00924344 -0.977534 0)
(-0.0811196 -0.988976 0)
(-0.151588 -0.994772 0)
(-0.219696 -0.993688 0)
(-0.284181 -0.984688 0)
(-0.343619 -0.967149 0)
(-0.396627 -0.940971 0)
(-0.441983 -0.906611 0)
(-0.478735 -0.865098 0)
(-0.506314 -0.817996 0)
(-0.524674 -0.767246 0)
(-0.534328 -0.714876 0)
(-0.536208 -0.662717 0)
(-0.531477 -0.612248 0)
(-0.521336 -0.564502 0)
(-0.50687 -0.520072 0)
(-0.488959 -0.479201 0)
(-0.468253 -0.441877 0)
(-0.445216 -0.407938 0)
(-0.420173 -0.37715 0)
(-0.393369 -0.349271 0)
(-0.365022 -0.324083 0)
(-0.335345 -0.301399 0)
(-0.304542 -0.281039 0)
(-0.272764 -0.262808 0)
(-0.240023 -0.246459 0)
(-0.206057 -0.231665 0)
(-0.170124 -0.21801 0)
(-0.13077 -0.20526 0)
(-0.0857208 -0.194125 0)
(-0.0322734 -0.184046 0)
(0.870168 -0.545637 0)
(0.912987 -0.50307 0)
(0.952965 -0.452084 0)
(0.989346 -0.393353 0)
(0.808463 -0.592779 0)
(0.84882 -0.54774 0)
(0.886287 -0.493113 0)
(0.919923 -0.429751 0)
(0.743697 -0.637694 0)
(0.781396 -0.589889 0)
(0.816074 -0.531384 0)
(0.846735 -0.463109 0)
(0.676003 -0.679892 0)
(0.710867 -0.629204 0)
(0.742669 -0.566644 0)
(0.770358 -0.493235 0)
(0.605612 -0.719173 0)
(0.637648 -0.6656 0)
(0.666713 -0.598934 0)
(0.691717 -0.520285 0)
(0.532983 -0.755516 0)
(0.562374 -0.699231 0)
(0.589071 -0.628599 0)
(0.611962 -0.544795 0)
(0.458708 -0.789065 0)
(0.485781 -0.730476 0)
(0.51067 -0.656279 0)
(0.532262 -0.567667 0)
(0.383405 -0.820103 0)
(0.408578 -0.759897 0)
(0.432337 -0.682854 0)
(0.453595 -0.590109 0)
(0.307621 -0.848978 0)
(0.331309 -0.78814 0)
(0.354617 -0.709327 0)
(0.37653 -0.613521 0)
(0.231739 -0.875996 0)
(0.254252 -0.815796 0)
(0.277647 -0.736648 0)
(0.301046 -0.639266 0)
(0.155943 -0.901312 0)
(0.177385 -0.843263 0)
(0.201161 -0.765532 0)
(0.2266 -0.66845 0)
(0.0802182 -0.92482 0)
(0.100395 -0.870624 0)
(0.124486 -0.796352 0)
(0.152149 -0.701839 0)
(0.00442087 -0.946013 0)
(0.022702 -0.897459 0)
(0.0464812 -0.828913 0)
(0.0758779 -0.739618 0)
(-0.0714878 -0.963839 0)
(-0.056242 -0.92258 0)
(-0.0341378 -0.862031 0)
(-0.00450574 -0.780804 0)
(-0.14709 -0.976717 0)
(-0.136409 -0.943992 0)
(-0.118001 -0.89334 0)
(-0.0906265 -0.822786 0)
(-0.221396 -0.982796 0)
(-0.216874 -0.959133 0)
(-0.204439 -0.919522 0)
(-0.182373 -0.861532 0)
(-0.29285 -0.980379 0)
(-0.295783 -0.965489 0)
(-0.291307 -0.937089 0)
(-0.277375 -0.892493 0)
(-0.359588 -0.968262 0)
(-0.370745 -0.961096 0)
(-0.375612 -0.943134 0)
(-0.371967 -0.911703 0)
(-0.419735 -0.945887 0)
(-0.439293 -0.944737 0)
(-0.454203 -0.935523 0)
(-0.462319 -0.915859 0)
(-0.471566 -0.913414 0)
(-0.499047 -0.916054 0)
(-0.523873 -0.913043 0)
(-0.544263 -0.902418 0)
(-0.513627 -0.871808 0)
(-0.547846 -0.875778 0)
(-0.581441 -0.875904 0)
(-0.61317 -0.870597 0)
(-0.544951 -0.822852 0)
(-0.584093 -0.825873 0)
(-0.624316 -0.826169 0)
(-0.66489 -0.822396 0)
(-0.565301 -0.768948 0)
(-0.607221 -0.769305 0)
(-0.651375 -0.767502 0)
(-0.697391 -0.762341 0)
(-0.575261 -0.712684 0)
(-0.617882 -0.709368 0)
(-0.663304 -0.704119 0)
(-0.71136 -0.695852 0)
(-0.576043 -0.65641 0)
(-0.617624 -0.649053 0)
(-0.662107 -0.63983 0)
(-0.709408 -0.627772 0)
(-0.569192 -0.602 0)
(-0.608479 -0.590728 0)
(-0.65045 -0.577604 0)
(-0.69504 -0.561789 0)
(-0.556301 -0.550753 0)
(-0.592537 -0.536003 0)
(-0.631058 -0.51942 0)
(-0.671795 -0.500302 0)
(-0.538802 -0.503401 0)
(-0.571653 -0.485764 0)
(-0.606324 -0.466345 0)
(-0.642735 -0.444567 0)
(-0.517832 -0.46021 0)
(-0.547285 -0.440312 0)
(-0.578099 -0.418715 0)
(-0.610189 -0.394951 0)
(-0.494209 -0.421126 0)
(-0.520447 -0.399549 0)
(-0.547648 -0.376379 0)
(-0.575716 -0.351242 0)
(-0.468474 -0.385906 0)
(-0.491779 -0.36315 0)
(-0.515725 -0.338916 0)
(-0.540211 -0.312915 0)
(-0.440975 -0.354227 0)
(-0.461654 -0.330688 0)
(-0.482726 -0.305793 0)
(-0.504097 -0.279319 0)
(-0.411945 -0.325757 0)
(-0.430283 -0.301732 0)
(-0.448835 -0.276475 0)
(-0.467518 -0.249811 0)
(-0.381574 -0.300201 0)
(-0.397817 -0.275908 0)
(-0.41415 -0.250501 0)
(-0.430499 -0.223837 0)
(-0.350051 -0.277313 0)
(-0.364408 -0.25291 0)
(-0.378766 -0.227496 0)
(-0.393062 -0.200957 0)
(-0.317572 -0.256876 0)
(-0.330229 -0.232479 0)
(-0.342819 -0.207165 0)
(-0.355289 -0.180832 0)
(-0.284306 -0.238667 0)
(-0.295457 -0.214375 0)
(-0.306482 -0.189248 0)
(-0.317329 -0.163193 0)
(-0.250308 -0.222417 0)
(-0.260197 -0.198315 0)
(-0.269905 -0.17347 0)
(-0.279365 -0.147781 0)
(-0.215371 -0.207747 0)
(-0.224325 -0.183894 0)
(-0.233072 -0.15943 0)
(-0.241495 -0.13424 0)
(-0.178762 -0.19412 0)
(-0.187185 -0.17048 0)
(-0.195484 -0.146453 0)
(-0.203452 -0.121943 0)
(-0.138839 -0.18106 0)
(-0.147055 -0.157346 0)
(-0.155525 -0.133605 0)
(-0.163975 -0.109905 0)
(-0.0926778 -0.168967 0)
(-0.100382 -0.144413 0)
(-0.109185 -0.120143 0)
(-0.119059 -0.0965824 0)
(-0.0361192 -0.156581 0)
(-0.0409378 -0.128986 0)
(-0.047338 -0.100761 0)
(-0.0559633 -0.0724983 0)
(1.02312 -0.324315 0)
(1.05242 -0.245018 0)
(1.0747 -0.161336 0)
(1.0898 -0.0759409 0)
(1.09794 0.00830267 0)
(1.09964 0.0883557 0)
(1.09571 0.161051 0)
(1.08723 0.223517 0)
(1.07551 0.273594 0)
(1.06188 0.310153 0)
(1.04757 0.333231 0)
(1.03355 0.343965 0)
(1.02045 0.344377 0)
(1.00839 0.337072 0)
(0.997063 0.324718 0)
(0.986388 0.309554 0)
(0.97429 0.293669 0)
(0.96613 0.277527 0)
(0.966059 0.26186 0)
(0.948169 0.239875 0)
(0.934028 0.270015 0)
(0.926962 0.293632 0)
(0.920758 0.309298 0)
(0.913193 0.325785 0)
(0.906094 0.341777 0)
(0.899063 0.35774 0)
(0.892478 0.37562 0)
(0.88518 0.402778 0)
(0.87049 0.469648 0)
(0.76126 0.960453 0)
(0.572425 1.58774 0)
(0.44965 2.10836 0)
(0.357709 2.43918 0)
(0.300036 2.56251 0)
(0.257099 2.5731 0)
(0.216211 2.55614 0)
(0.173095 2.55352 0)
(0.127806 2.58136 0)
(0.0788119 2.64647 0)
(0.0321696 2.72792 0)
(0.950539 -0.354933 0)
(0.976243 -0.268832 0)
(0.994743 -0.178053 0)
(1.00609 -0.0857082 0)
(1.01074 0.00499103 0)
(1.00946 0.0907477 0)
(1.00323 0.168119 0)
(0.993338 0.23398 0)
(0.981319 0.286021 0)
(0.968733 0.323157 0)
(0.956951 0.345669 0)
(0.946992 0.355109 0)
(0.939375 0.354004 0)
(0.933968 0.345412 0)
(0.929791 0.332382 0)
(0.925649 0.317201 0)
(0.920443 0.300808 0)
(0.916818 0.284076 0)
(0.929253 0.270198 0)
(0.90041 0.245114 0)
(0.889687 0.282536 0)
(0.885153 0.302101 0)
(0.880119 0.316364 0)
(0.873813 0.332063 0)
(0.868008 0.347963 0)
(0.862143 0.364748 0)
(0.856724 0.384463 0)
(0.847478 0.41662 0)
(0.826524 0.531086 0)
(0.629573 1.15249 0)
(0.463058 1.72946 0)
(0.335807 2.21935 0)
(0.255801 2.50782 0)
(0.214008 2.60482 0)
(0.186075 2.60728 0)
(0.159181 2.59092 0)
(0.129183 2.59141 0)
(0.0962547 2.62259 0)
(0.0590433 2.69075 0)
(0.024614 2.77312 0)
(0.873995 -0.382207 0)
(0.895927 -0.289035 0)
(0.910511 -0.191026 0)
(0.918016 -0.0918262 0)
(0.919207 0.00498544 0)
(0.915029 0.0958925 0)
(0.906594 0.177202 0)
(0.895365 0.245479 0)
(0.88313 0.298231 0)
(0.87173 0.334483 0)
(0.862722 0.354856 0)
(0.857197 0.361421 0)
(0.85559 0.35741 0)
(0.857399 0.346729 0)
(0.860983 0.332893 0)
(0.863891 0.3181 0)
(0.864901 0.302084 0)
(0.871344 0.287416 0)
(0.882795 0.273072 0)
(0.850735 0.260347 0)
(0.842997 0.293363 0)
(0.841186 0.308169 0)
(0.837171 0.321694 0)
(0.832526 0.336896 0)
(0.828161 0.353124 0)
(0.823773 0.371336 0)
(0.819042 0.39403 0)
(0.804847 0.434451 0)
(0.75071 0.669862 0)
(0.485454 1.32494 0)
(0.340958 1.8765 0)
(0.221037 2.32027 0)
(0.157187 2.56106 0)
(0.131283 2.63201 0)
(0.117686 2.6276 0)
(0.103991 2.61282 0)
(0.0864509 2.61711 0)
(0.0653706 2.65203 0)
(0.0395753 2.72324 0)
(0.0171148 2.80567 0)
(0.794353 -0.405993 0)
(0.812687 -0.305514 0)
(0.823577 -0.200187 0)
(0.82754 -0.0943541 0)
(0.825723 0.00801143 0)
(0.81914 0.103446 0)
(0.808886 0.188021 0)
(0.796601 0.257771 0)
(0.784349 0.30997 0)
(0.774296 0.343834 0)
(0.768154 0.36041 0)
(0.767074 0.362364 0)
(0.771587 0.353761 0)
(0.781007 0.339811 0)
(0.792889 0.325319 0)
(0.80194 0.311685 0)
(0.81265 0.30145 0)
(0.827714 0.295863 0)
(0.811608 0.25421 0)
(0.797254 0.280716 0)
(0.795861 0.300099 0)
(0.795316 0.311692 0)
(0.792586 0.324927 0)
(0.789901 0.340159 0)
(0.787138 0.357354 0)
(0.784482 0.377605 0)
(0.77867 0.404957 0)
(0.756385 0.469361 0)
(0.590322 0.909026 0)
(0.350469 1.49741 0)
(0.208518 2.01728 0)
(0.106693 2.40529 0)
(0.0619789 2.59739 0)
(0.0524658 2.64415 0)
(0.0525737 2.63454 0)
(0.051309 2.62229 0)
(0.0455437 2.63093 0)
(0.0357442 2.66989 0)
(0.0207839 2.74422 0)
(0.00980484 2.82565 0)
(0.712892 -0.426548 0)
(0.728209 -0.318605 0)
(0.736018 -0.205964 0)
(0.737195 -0.0939384 0)
(0.733352 0.0134377 0)
(0.725402 0.11296 0)
(0.713998 0.200319 0)
(0.70105 0.27066 0)
(0.689111 0.321032 0)
(0.680716 0.351033 0)
(0.677519 0.362276 0)
(0.680503 0.358039 0)
(0.690375 0.343172 0)
(0.706728 0.324399 0)
(0.725769 0.3095 0)
(0.744929 0.305404 0)
(0.766106 0.305988 0)
(0.765273 0.277198 0)
(0.748003 0.270311 0)
(0.746416 0.29 0)
(0.748305 0.301835 0)
(0.748321 0.312764 0)
(0.747513 0.326226 0)
(0.746682 0.342092 0)
(0.745814 0.361132 0)
(0.744294 0.383901 0)
(0.733236 0.419761 0)
(0.676615 0.602976 0)
(0.399756 1.13542 0)
(0.211071 1.67004 0)
(0.0769557 2.14106 0)
(-0.00598303 2.47112 0)
(-0.0291288 2.61528 0)
(-0.0219986 2.64126 0)
(-0.00868914 2.62861 0)
(0.00175493 2.61992 0)
(0.00704992 2.6334 0)
(0.00793268 2.67656 0)
(0.0026171 2.75382 0)
(0.00230136 2.83353 0)
(0.63113 -0.444588 0)
(0.644459 -0.32916 0)
(0.650219 -0.209269 0)
(0.650078 -0.091575 0)
(0.645411 0.020379 0)
(0.637343 0.123617 0)
(0.625827 0.213297 0)
(0.612801 0.283648 0)
(0.602056 0.330958 0)
(0.596271 0.355794 0)
(0.596633 0.360662 0)
(0.603462 0.349533 0)
(0.616871 0.327214 0)
(0.637387 0.30419 0)
(0.662917 0.293722 0)
(0.690459 0.305353 0)
(0.680892 0.271216 0)
(0.691703 0.263623 0)
(0.694817 0.279571 0)
(0.698133 0.290997 0)
(0.700692 0.30014 0)
(0.702113 0.311632 0)
(0.703217 0.326019 0)
(0.704214 0.343612 0)
(0.705365 0.36441 0)
(0.702026 0.390147 0)
(0.672803 0.459658 0)
(0.467235 0.857272 0)
(0.235738 1.34168 0)
(0.0634586 1.82898 0)
(-0.0551205 2.24749 0)
(-0.114836 2.5141 0)
(-0.114582 2.61317 0)
(-0.0911907 2.62324 0)
(-0.0654134 2.61018 0)
(-0.0441079 2.60625 0)
(-0.0286013 2.6251 0)
(-0.0178301 2.67268 0)
(-0.014595 2.7549 0)
(-0.00512547 2.82763 0)
(0.550538 -0.461253 0)
(0.56328 -0.338469 0)
(0.568617 -0.211161 0)
(0.569109 -0.088582 0)
(0.565105 0.0266907 0)
(0.557814 0.133835 0)
(0.547212 0.225895 0)
(0.535595 0.295331 0)
(0.528031 0.338159 0)
(0.527221 0.3566 0)
(0.533953 0.354852 0)
(0.54618 0.338136 0)
(0.563492 0.311893 0)
(0.584616 0.281531 0)
(0.596267 0.257736 0)
(0.615588 0.252377 0)
(0.635984 0.258402 0)
(0.643237 0.270478 0)
(0.647771 0.279179 0)
(0.652174 0.286501 0)
(0.655659 0.296372 0)
(0.658588 0.309415 0)
(0.661303 0.325854 0)
(0.664366 0.345031 0)
(0.665288 0.365715 0)
(0.650276 0.405518 0)
(0.513103 0.672177 0)
(0.277552 1.07681 0)
(0.0738851 1.53396 0)
(-0.0855736 1.97523 0)
(-0.187402 2.33293 0)
(-0.215822 2.52991 0)
(-0.192159 2.59052 0)
(-0.153776 2.59055 0)
(-0.116728 2.57995 0)
(-0.0856598 2.582 0)
(-0.0609744 2.60669 0)
(-0.0412685 2.65911 0)
(-0.0305467 2.74853 0)
(-0.0123226 2.80813 0)
(0.472295 -0.478068 0)
(0.486122 -0.348306 0)
(0.4934 -0.213708 0)
(0.495802 -0.0867987 0)
(0.494589 0.0305315 0)
(0.489814 0.142004 0)
(0.481748 0.237068 0)
(0.473626 0.303618 0)
(0.471691 0.339705 0)
(0.479652 0.349389 0)
(0.498418 0.339269 0)
(0.5243 0.320784 0)
(0.550842 0.297319 0)
(0.57571 0.245918 0)
(0.582612 0.250072 0)
(0.590378 0.256581 0)
(0.596012 0.262678 0)
(0.601226 0.26689 0)
(0.606573 0.272002 0)
(0.611227 0.280589 0)
(0.61537 0.29266 0)
(0.619493 0.308276 0)
(0.624097 0.325963 0)
(0.627626 0.343079 0)
(0.620317 0.369877 0)
(0.490756 0.552557 0)
(0.293579 0.889043 0)
(0.0866603 1.2886 0)
(-0.102111 1.71208 0)
(-0.24351 2.10675 0)
(-0.312294 2.3858 0)
(-0.304071 2.51566 0)
(-0.259417 2.54837 0)
(-0.208279 2.54456 0)
(-0.161678 2.53912 0)
(-0.122287 2.54821 0)
(-0.0896867 2.57917 0)
(-0.0621999 2.63684 0)
(-0.0448063 2.73487 0)
(-0.0189209 2.77639 0)
(0.397067 -0.496844 0)
(0.414035 -0.360693 0)
(0.425665 -0.220011 0)
(0.431869 -0.0898759 0)
(0.436006 0.0307514 0)
(0.436358 0.14742 0)
(0.432955 0.244273 0)
(0.43001 0.306242 0)
(0.435683 0.332023 0)
(0.455901 0.328467 0)
(0.495467 0.303262 0)
(0.542028 0.273338 0)
(0.567306 0.248282 0)
(0.557803 0.255485 0)
(0.557374 0.256881 0)
(0.559599 0.255799 0)
(0.563211 0.255421 0)
(0.567585 0.258388 0)
(0.572038 0.265524 0)
(0.576341 0.27667 0)
(0.58109 0.291262 0)
(0.586822 0.306553 0)
(0.592455 0.320346 0)
(0.590228 0.34221 0)
(0.457209 0.490856 0)
(0.246047 0.750654 0)
(0.0384106 1.0924 0)
(-0.14095 1.48058 0)
(-0.304284 1.87374 0)
(-0.402985 2.20074 0)
(-0.417729 2.39353 0)
(-0.375786 2.4723 0)
(-0.314393 2.48953 0)
(-0.253449 2.48755 0)
(-0.199464 2.48943 0)
(-0.153477 2.50629 0)
(-0.114412 2.54375 0)
(-0.0804578 2.60703 0)
(-0.0570512 2.71403 0)
(-0.0245802 2.73414 0)
(0.324675 -0.519434 0)
(0.346802 -0.378072 0)
(0.364592 -0.231908 0)
(0.377756 -0.0987272 0)
(0.389472 0.0243852 0)
(0.397696 0.145558 0)
(0.401822 0.245324 0)
(0.405876 0.300997 0)
(0.422596 0.312571 0)
(0.459344 0.288625 0)
(0.52403 0.240119 0)
(0.55286 0.247733 0)
(0.53916 0.258979 0)
(0.533691 0.263844 0)
(0.532775 0.256426 0)
(0.533604 0.250191 0)
(0.536124 0.249265 0)
(0.539502 0.253412 0)
(0.543409 0.262481 0)
(0.548122 0.27532 0)
(0.554017 0.287189 0)
(0.560458 0.297395 0)
(0.558677 0.318158 0)
(0.400656 0.476113 0)
(0.218725 0.71978 0)
(0.00162593 0.991286 0)
(-0.212138 1.30285 0)
(-0.375707 1.6616 0)
(-0.488781 1.99404 0)
(-0.524216 2.22987 0)
(-0.49259 2.35608 0)
(-0.427437 2.40555 0)
(-0.355467 2.41834 0)
(-0.288389 2.42239 0)
(-0.229564 2.43294 0)
(-0.17889 2.45788 0)
(-0.134922 2.50183 0)
(-0.0958871 2.57084 0)
(-0.0671489 2.68638 0)
(-0.0291412 2.68306 0)
(0.254247 -0.547468 0)
(0.282768 -0.403124 0)
(0.30882 -0.252376 0)
(0.331363 -0.116314 0)
(0.352586 0.00821853 0)
(0.372376 0.133386 0)
(0.387391 0.236774 0)
(0.403697 0.283805 0)
(0.439727 0.268884 0)
(0.521543 0.208272 0)
(0.534027 0.229461 0)
(0.526155 0.258598 0)
(0.518576 0.271548 0)
(0.513434 0.267355 0)
(0.509573 0.258257 0)
(0.509469 0.252069 0)
(0.512736 0.250626 0)
(0.516847 0.254441 0)
(0.521678 0.261915 0)
(0.527581 0.269777 0)
(0.533744 0.276975 0)
(0.51865 0.298378 0)
(0.331834 0.479631 0)
(0.158085 0.695354 0)
(-0.0413291 0.946494 0)
(-0.243145 1.22423 0)
(-0.423525 1.50999 0)
(-0.549128 1.79723 0)
(-0.606484 2.04102 0)
(-0.593503 2.20346 0)
(-0.5346 2.28864 0)
(-0.458534 2.32499 0)
(-0.382422 2.34021 0)
(-0.313018 2.35242 0)
(-0.251923 2.37196 0)
(-0.198474 2.40474 0)
(-0.151163 2.45486 0)
(-0.108417 2.52944 0)
(-0.0751081 2.65249 0)
(-0.0325854 2.62489 0)
(0.184352 -0.582198 0)
(0.219945 -0.437529 0)
(0.256636 -0.283717 0)
(0.289538 -0.145623 0)
(0.322187 -0.0220405 0)
(0.356988 0.106678 0)
(0.386997 0.215622 0)
(0.42007 0.246785 0)
(0.496955 0.178627 0)
(0.505495 0.201822 0)
(0.503303 0.238369 0)
(0.50109 0.263153 0)
(0.498136 0.277072 0)
(0.493334 0.272395 0)
(0.484279 0.254599 0)
(0.483254 0.248082 0)
(0.49124 0.249007 0)
(0.499535 0.251079 0)
(0.506063 0.254466 0)
(0.509986 0.262478 0)
(0.479743 0.302423 0)
(0.27105 0.496117 0)
(0.0907804 0.692563 0)
(-0.101793 0.913161 0)
(-0.291447 1.15748 0)
(-0.457187 1.40778 0)
(-0.584436 1.64775 0)
(-0.655902 1.86452 0)
(-0.664406 2.03564 0)
(-0.621364 2.1467 0)
(-0.550755 2.20783 0)
(-0.472499 2.23978 0)
(-0.397015 2.26023 0)
(-0.328313 2.28084 0)
(-0.267094 2.30877 0)
(-0.212554 2.34863 0)
(-0.163318 2.40429 0)
(-0.118111 2.48399 0)
(-0.0810532 2.61311 0)
(-0.0349904 2.56129 0)
(0.112416 -0.624287 0)
(0.155486 -0.482056 0)
(0.203344 -0.327975 0)
(0.247534 -0.188187 0)
(0.29285 -0.0717218 0)
(0.343465 0.05583 0)
(0.39335 0.168033 0)
(0.466023 0.16654 0)
(0.471655 0.177418 0)
(0.47049 0.20714 0)
(0.472195 0.234503 0)
(0.473517 0.258568 0)
(0.471642 0.278339 0)
(0.464731 0.285648 0)
(0.449355 0.262051 0)
(0.445764 0.232884 0)
(0.47183 0.236701 0)
(0.486239 0.24122 0)
(0.482738 0.247209 0)
(0.370928 0.298595 0)
(0.189289 0.513001 0)
(0.0134184 0.708977 0)
(-0.169825 0.905728 0)
(-0.344619 1.11497 0)
(-0.496806 1.33036 0)
(-0.612873 1.53804 0)
(-0.684503 1.72451 0)
(-0.706183 1.88091 0)
(-0.680871 1.99849 0)
(-0.622869 2.07614 0)
(-0.549834 2.12413 0)
(-0.474126 2.15581 0)
(-0.402034 2.18195 0)
(-0.335942 2.21006 0)
(-0.276109 2.24521 0)
(-0.221774 2.29107 0)
(-0.171782 2.35144 0)
(-0.125181 2.43556 0)
(-0.0851954 2.56908 0)
(-0.0364888 2.49377 0)
(0.0348384 -0.673228 0)
(0.0842186 -0.537119 0)
(0.141002 -0.386048 0)
(0.199715 -0.242527 0)
(0.249362 -0.130064 0)
(0.305127 -0.0165914 0)
(0.374106 0.105484 0)
(0.430756 0.143219 0)
(0.432378 0.17569 0)
(0.434689 0.202387 0)
(0.438273 0.230035 0)
(0.439374 0.25834 0)
(0.435419 0.284717 0)
(0.427264 0.306753 0)
(0.410757 0.31628 0)
(0.306618 0.199462 0)
(0.285994 0.188091 0)
(0.279404 0.228444 0)
(0.171449 0.36111 0)
(0.04688 0.527836 0)
(-0.103908 0.711468 0)
(-0.25692 0.901199 0)
(-0.4056 1.08795 0)
(-0.537341 1.27299 0)
(-0.639991 1.4513 0)
(-0.705145 1.61287 0)
(-0.72992 1.75029 0)
(-0.716443 1.86044 0)
(-0.67222 1.94278 0)
(-0.60915 2.00097 0)
(-0.538499 2.04268 0)
(-0.467599 2.07593 0)
(-0.400204 2.10725 0)
(-0.337718 2.14157 0)
(-0.280187 2.18256 0)
(-0.226954 2.23324 0)
(-0.177094 2.29738 0)
(-0.129946 2.38507 0)
(-0.0878068 2.52129 0)
(-0.0372488 2.42362 0)
(-0.0514663 -0.726351 0)
(0.000951808 -0.600353 0)
(0.063783 -0.454961 0)
(0.134559 -0.306387 0)
(0.188351 -0.189821 0)
(0.239953 -0.0893666 0)
(0.303105 0.0252282 0)
(0.382791 0.123926 0)
(0.38915 0.163757 0)
(0.393264 0.195717 0)
(0.397016 0.227429 0)
(0.397578 0.260602 0)
(0.392035 0.294138 0)
(0.383932 0.328915 0)
(0.373503 0.360958 0)
(0.340728 0.348107 0)
(0.165735 0.25359 0)
(0.0888868 0.35503 0)
(-0.0427161 0.513887 0)
(-0.187044 0.687552 0)
(-0.331819 0.872684 0)
(-0.462589 1.05302 0)
(-0.574913 1.2219 0)
(-0.662741 1.3781 0)
(-0.71979 1.51841 0)
(-0.743446 1.63899 0)
(-0.735708 1.73824 0)
(-0.701971 1.81729 0)
(-0.649764 1.87876 0)
(-0.58731 1.92663 0)
(-0.521324 1.96589 0)
(-0.456075 2.0013 0)
(-0.393789 2.03694 0)
(-0.33529 2.07613 0)
(-0.280525 2.12162 0)
(-0.228953 2.17595 0)
(-0.179848 2.24294 0)
(-0.132791 2.33331 0)
(-0.0891831 2.47059 0)
(-0.0374461 2.35189 0)
(-0.147439 -0.779062 0)
(-0.0968886 -0.66717 0)
(-0.033825 -0.532714 0)
(0.0458921 -0.381666 0)
(0.111996 -0.248749 0)
(0.160393 -0.153244 0)
(0.214469 -0.0602798 0)
(0.304218 0.0826844 0)
(0.339043 0.142354 0)
(0.342692 0.188359 0)
(0.345932 0.225201 0)
(0.346819 0.263362 0)
(0.341634 0.302899 0)
(0.334578 0.344695 0)
(0.327523 0.386233 0)
(0.313523 0.421534 0)
(0.156471 0.423237 0)
(-0.00731368 0.537962 0)
(-0.186059 0.687969 0)
(-0.346903 0.850012 0)
(-0.483535 1.01559 0)
(-0.592618 1.17226 0)
(-0.673532 1.31326 0)
(-0.725347 1.43682 0)
(-0.747974 1.54261 0)
(-0.743769 1.63106 0)
(-0.717379 1.70389 0)
(-0.674512 1.76374 0)
(-0.620986 1.81349 0)
(-0.561995 1.85613 0)
(-0.501461 1.89473 0)
(-0.441878 1.9322 0)
(-0.384582 1.97119 0)
(-0.330057 2.01403 0)
(-0.278207 2.0628 0)
(-0.228587 2.11976 0)
(-0.180634 2.18872 0)
(-0.134115 2.28089 0)
(-0.0896127 2.41773 0)
(-0.0372437 2.27936 0)
(-0.250629 -0.825748 0)
(-0.207098 -0.73101 0)
(-0.147934 -0.612406 0)
(-0.0731636 -0.472885 0)
(0.0156177 -0.324574 0)
(0.0846939 -0.213765 0)
(0.134026 -0.129849 0)
(0.202185 -0.0136341 0)
(0.27814 0.123149 0)
(0.281746 0.179 0)
(0.284809 0.222947 0)
(0.286454 0.265703 0)
(0.283612 0.310203 0)
(0.279161 0.357412 0)
(0.274266 0.406188 0)
(0.25881 0.469662 0)
(0.0708851 0.633639 0)
(-0.113917 0.76047 0)
(-0.30304 0.885855 0)
(-0.460067 1.01537 0)
(-0.580403 1.14456 0)
(-0.665682 1.2648 0)
(-0.718776 1.37084 0)
(-0.743148 1.46177 0)
(-0.742842 1.53877 0)
(-0.722621 1.60384 0)
(-0.687521 1.65933 0)
(-0.642223 1.7076 0)
(-0.590725 1.75073 0)
(-0.536224 1.79066 0)
(-0.481043 1.82927 0)
(-0.426684 1.8684 0)
(-0.373963 1.90983 0)
(-0.323159 1.95524 0)
(-0.274156 2.00628 0)
(-0.226582 2.06495 0)
(-0.179997 2.13512 0)
(-0.134299 2.22826 0)
(-0.0893514 2.36335 0)
(-0.0367762 2.20662 0)
(-0.356631 -0.861364 0)
(-0.324652 -0.78591 0)
(-0.274759 -0.687206 0)
(-0.206773 -0.566829 0)
(-0.120699 -0.432189 0)
(-0.0134199 -0.29925 0)
(0.0516235 -0.198404 0)
(0.102649 -0.0889176 0)
(0.196309 0.0861875 0)
(0.211199 0.162949 0)
(0.214438 0.220434 0)
(0.2171 0.270058 0)
(0.217861 0.319327 0)
(0.21689 0.36944 0)
(0.214149 0.429803 0)
(0.153483 0.583707 0)
(-0.100967 0.857641 0)
(-0.258132 0.984033 0)
(-0.422614 1.07572 0)
(-0.553704 1.16291 0)
(-0.646355 1.24889 0)
(-0.704088 1.32925 0)
(-0.732155 1.40091 0)
(-0.736162 1.46359 0)
(-0.721476 1.5185 0)
(-0.692953 1.56727 0)
(-0.65474 1.61152 0)
(-0.610185 1.65264 0)
(-0.561893 1.69185 0)
(-0.511844 1.73027 0)
(-0.461456 1.76904 0)
(-0.411658 1.80935 0)
(-0.362954 1.85244 0)
(-0.315487 1.89954 0)
(-0.269125 1.952 0)
(-0.223549 2.01164 0)
(-0.178406 2.08236 0)
(-0.13368 2.17573 0)
(-0.0886058 2.30794 0)
(-0.0361395 2.13405 0)
(-0.461104 -0.881208 0)
(-0.445389 -0.825755 0)
(-0.411751 -0.749772 0)
(-0.358759 -0.653453 0)
(-0.286349 -0.540412 0)
(-0.182448 -0.41968 0)
(-0.0930588 -0.292432 0)
(-0.038583 -0.155142 0)
(0.0205512 0.00242881 0)
(0.128961 0.144351 0)
(0.13895 0.210681 0)
(0.144116 0.266783 0)
(0.147066 0.316724 0)
(0.141488 0.373382 0)
(0.116505 0.504378 0)
(-0.0469628 0.819598 0)
(-0.304044 1.07978 0)
(-0.431751 1.1768 0)
(-0.551359 1.22779 0)
(-0.640245 1.27254 0)
(-0.6965 1.31839 0)
(-0.72485 1.36402 0)
(-0.730769 1.40777 0)
(-0.719516 1.44919 0)
(-0.695646 1.48858 0)
(-0.662837 1.52649 0)
(-0.623944 1.56349 0)
(-0.581134 1.60011 0)
(-0.53604 1.63689 0)
(-0.48988 1.67438 0)
(-0.443531 1.71328 0)
(-0.397563 1.75437 0)
(-0.352268 1.7985 0)
(-0.307695 1.84662 0)
(-0.263692 1.89982 0)
(-0.219971 1.95981 0)
(-0.176239 2.03052 0)
(-0.132528 2.12349 0)
(-0.0875249 2.25183 0)
(-0.0353877 2.06196 0)
(-0.558858 -0.880671 0)
(-0.563332 -0.842889 0)
(-0.553238 -0.78852 0)
(-0.52628 -0.716774 0)
(-0.481647 -0.627732 0)
(-0.412554 -0.521563 0)
(-0.342354 -0.383248 0)
(-0.275551 -0.231568 0)
(-0.20086 -0.0895708 0)
(-0.102395 0.0318177 0)
(0.0517079 0.19177 0)
(0.0716271 0.256737 0)
(0.0669749 0.309792 0)
(-0.0351116 0.384271 0)
(-0.257995 0.683255 0)
(-0.438368 1.05807 0)
(-0.567309 1.24815 0)
(-0.632007 1.30232 0)
(-0.686212 1.31855 0)
(-0.721705 1.33118 0)
(-0.738071 1.34811 0)
(-0.738067 1.36973 0)
(-0.724944 1.39492 0)
(-0.701885 1.42267 0)
(-0.671594 1.45234 0)
(-0.6362 1.48355 0)
(-0.597328 1.51611 0)
(-0.556213 1.54998 0)
(-0.513794 1.58526 0)
(-0.470784 1.6222 0)
(-0.427692 1.66119 0)
(-0.384838 1.70273 0)
(-0.34236 1.74745 0)
(-0.300225 1.79606 0)
(-0.258262 1.84949 0)
(-0.216196 1.90936 0)
(-0.173774 1.97959 0)
(-0.131042 2.0716 0)
(-0.0861996 2.19524 0)
(-0.0345368 1.99054 0)
(-0.643185 -0.857135 0)
(-0.668782 -0.831425 0)
(-0.68568 -0.792457 0)
(-0.69204 -0.73859 0)
(-0.687315 -0.667112 0)
(-0.670779 -0.57223 0)
(-0.63755 -0.450616 0)
(-0.588564 -0.322918 0)
(-0.536397 -0.20637 0)
(-0.504311 -0.0992556 0)
(-0.480431 0.0329393 0)
(-0.435904 0.22798 0)
(-0.526161 0.439873 0)
(-0.62647 0.683643 0)
(-0.748765 0.943556 0)
(-0.815617 1.18216 0)
(-0.824904 1.30175 0)
(-0.814145 1.33338 0)
(-0.80345 1.33612 0)
(-0.789541 1.33525 0)
(-0.770872 1.3391 0)
(-0.747139 1.3494 0)
(-0.718777 1.36559 0)
(-0.686605 1.38656 0)
(-0.651485 1.4113 0)
(-0.614188 1.43904 0)
(-0.575362 1.46926 0)
(-0.535544 1.50168 0)
(-0.495174 1.5362 0)
(-0.454595 1.57288 0)
(-0.414048 1.61196 0)
(-0.373665 1.65376 0)
(-0.333459 1.69874 0)
(-0.293332 1.74745 0)
(-0.253085 1.80073 0)
(-0.212447 1.86009 0)
(-0.171188 1.92948 0)
(-0.129342 2.02004 0)
(-0.0846692 2.13825 0)
(-0.0335731 1.92002 0)
(-0.707295 -0.812219 0)
(-0.750379 -0.791986 0)
(-0.790337 -0.760453 0)
(-0.826105 -0.715679 0)
(-0.857087 -0.654978 0)
(-0.881887 -0.574862 0)
(-0.896437 -0.473583 0)
(-0.898985 -0.356231 0)
(-0.896311 -0.228431 0)
(-0.904907 -0.0886848 0)
(-0.930756 0.0821167 0)
(-0.959823 0.294397 0)
(-1.00292 0.52737 0)
(-1.04968 0.763694 0)
(-1.07697 0.988596 0)
(-1.05407 1.16081 0)
(-0.996363 1.25183 0)
(-0.935073 1.28458 0)
(-0.8813 1.29275 0)
(-0.834205 1.29488 0)
(-0.791576 1.29925 0)
(-0.7514 1.30866 0)
(-0.712353 1.32343 0)
(-0.6737 1.34293 0)
(-0.635079 1.36638 0)
(-0.596356 1.39311 0)
(-0.557523 1.42262 0)
(-0.51864 1.45462 0)
(-0.479792 1.48897 0)
(-0.441053 1.52569 0)
(-0.402465 1.56489 0)
(-0.364012 1.60684 0)
(-0.325611 1.65186 0)
(-0.287103 1.70041 0)
(-0.248268 1.75323 0)
(-0.208828 1.8118 0)
(-0.168566 1.88004 0)
(-0.127479 1.96873 0)
(-0.0829318 2.08087 0)
(-0.032466 1.85061 0)
(-0.747608 -0.751581 0)
(-0.801834 -0.731791 0)
(-0.856484 -0.701746 0)
(-0.910824 -0.659434 0)
(-0.964058 -0.602325 0)
(-1.01472 -0.527573 0)
(-1.06047 -0.43339 0)
(-1.10047 -0.321125 0)
(-1.1375 -0.191652 0)
(-1.17612 -0.0419614 0)
(-1.21545 0.134737 0)
(-1.24659 0.336857 0)
(-1.26321 0.549152 0)
(-1.25827 0.754208 0)
(-1.22311 0.93522 0)
(-1.15557 1.07085 0)
(-1.07153 1.15264 0)
(-0.989422 1.1945 0)
(-0.916677 1.21538 0)
(-0.853727 1.22826 0)
(-0.798754 1.24031 0)
(-0.749578 1.25474 0)
(-0.704386 1.27262 0)
(-0.66186 1.294 0)
(-0.621108 1.31858 0)
(-0.581547 1.34602 0)
(-0.542815 1.37601 0)
(-0.504686 1.40838 0)
(-0.467014 1.44305 0)
(-0.429695 1.48004 0)
(-0.392624 1.51944 0)
(-0.355678 1.56147 0)
(-0.3187 1.60637 0)
(-0.281487 1.65456 0)
(-0.243794 1.70671 0)
(-0.205339 1.76426 0)
(-0.16591 1.83111 0)
(-0.125448 1.91754 0)
(-0.0809597 2.0231 0)
(-0.031181 1.78259 0)
(-0.76478 -0.682283 0)
(-0.823795 -0.660162 0)
(-0.884887 -0.628549 0)
(-0.947376 -0.585616 0)
(-1.01034 -0.529219 0)
(-1.07234 -0.45713 0)
(-1.13154 -0.367748 0)
(-1.18662 -0.260532 0)
(-1.23714 -0.134971 0)
(-1.28199 0.00992735 0)
(-1.31716 0.174285 0)
(-1.33565 0.353083 0)
(-1.33115 0.534888 0)
(-1.30011 0.705811 0)
(-1.24252 0.853018 0)
(-1.16463 0.966366 0)
(-1.07841 1.0441 0)
(-0.994814 1.09412 0)
(-0.91916 1.12707 0)
(-0.852468 1.1515 0)
(-0.793741 1.17292 0)
(-0.741365 1.19434 0)
(-0.693776 1.21721 0)
(-0.649696 1.24209 0)
(-0.608159 1.26912 0)
(-0.568464 1.29828 0)
(-0.530113 1.32951 0)
(-0.492744 1.36278 0)
(-0.456089 1.3981 0)
(-0.419932 1.43553 0)
(-0.38408 1.47519 0)
(-0.348336 1.51725 0)
(-0.312493 1.56193 0)
(-0.276317 1.60961 0)
(-0.239549 1.66092 0)
(-0.2019 1.71729 0)
(-0.16316 1.78253 0)
(-0.123199 1.86635 0)
(-0.0787148 1.96492 0)
(-0.0296923 1.71627 0)
(-0.762297 -0.610532 0)
(-0.821081 -0.585075 0)
(-0.882297 -0.550872 0)
(-0.94519 -0.506399 0)
(-1.0087 -0.449952 0)
(-1.07134 -0.379827 0)
(-1.13125 -0.294726 0)
(-1.18648 -0.193994 0)
(-1.23496 -0.0774781 0)
(-1.2739 0.0543494 0)
(-1.2992 0.199267 0)
(-1.30602 0.351971 0)
(-1.29082 0.50394 0)
(-1.25289 0.645606 0)
(-1.19492 0.768618 0)
(-1.12322 0.867792 0)
(-1.04599 0.942943 0)
(-0.970224 0.998487 0)
(-0.899854 1.0405 0)
(-0.836175 1.07442 0)
(-0.778938 1.10419 0)
(-0.727226 1.13238 0)
(-0.679967 1.16047 0)
(-0.636182 1.18928 0)
(-0.595056 1.21924 0)
(-0.555947 1.25057 0)
(-0.518355 1.2834 0)
(-0.481889 1.31785 0)
(-0.446234 1.35399 0)
(-0.411123 1.39196 0)
(-0.376315 1.43187 0)
(-0.341577 1.4739 0)
(-0.306671 1.51827 0)
(-0.27135 1.56532 0)
(-0.235346 1.61567 0)
(-0.198371 1.67071 0)
(-0.160214 1.73416 0)
(-0.120662 1.81506 0)
(-0.0761642 1.90635 0)
(-0.0279924 1.652 0)
(-0.744847 -0.540908 0)
(-0.800088 -0.512194 0)
(-0.85743 -0.475575 0)
(-0.916047 -0.429875 0)
(-0.974804 -0.373835 0)
(-1.03219 -0.30625 0)
(-1.08634 -0.226236 0)
(-1.13511 -0.13345 0)
(-1.17609 -0.0282072 0)
(-1.20651 0.0882355 0)
(-1.22322 0.213201 0)
(-1.22331 0.342174 0)
(-1.20523 0.469155 0)
(-1.16955 0.587897 0)
(-1.11914 0.693248 0)
(-1.05876 0.782257 0)
(-0.993837 0.854847 0)
(-0.928991 0.91338 0)
(-0.867147 0.961313 0)
(-0.809633 1.00203 0)
(-0.756689 1.03828 0)
(-0.707959 1.07207 0)
(-0.662846 1.10477 0)
(-0.620709 1.13724 0)
(-0.580955 1.17005 0)
(-0.543076 1.20358 0)
(-0.506641 1.23808 0)
(-0.471288 1.27375 0)
(-0.436709 1.31074 0)
(-0.402628 1.34922 0)
(-0.368792 1.38933 0)
(-0.334955 1.43126 0)
(-0.300873 1.47523 0)
(-0.266297 1.52154 0)
(-0.230963 1.57082 0)
(-0.194585 1.62441 0)
(-0.15695 1.68592 0)
(-0.117762 1.76359 0)
(-0.0732926 1.84749 0)
(-0.0260985 1.59015 0)
(-0.717077 -0.476283 0)
(-0.766983 -0.444908 0)
(-0.818407 -0.406543 0)
(-0.870507 -0.360345 0)
(-0.922169 -0.305458 0)
(-0.971971 -0.24111 0)
(-1.01819 -0.1668 0)
(-1.05887 -0.0824846 0)
(-1.09189 0.0112565 0)
(-1.115 0.112998 0)
(-1.12602 0.220316 0)
(-1.12336 0.32974 0)
(-1.10648 0.437153 0)
(-1.07631 0.538503 0)
(-1.03514 0.630551 0)
(-0.986297 0.711454 0)
(-0.933375 0.781017 0)
(-0.879476 0.840427 0)
(-0.826767 0.891614 0)
(-0.77646 0.936655 0)
(-0.729036 0.977409 0)
(-0.684502 1.01538 0)
(-0.642614 1.0517 0)
(-0.603017 1.08721 0)
(-0.565331 1.12248 0)
(-0.529192 1.15796 0)
(-0.494265 1.19395 0)
(-0.460248 1.23071 0)
(-0.426865 1.26844 0)
(-0.393863 1.30733 0)
(-0.360999 1.34754 0)
(-0.328036 1.38927 0)
(-0.294739 1.43271 0)
(-0.260868 1.4782 0)
(-0.226172 1.52631 0)
(-0.190372 1.57837 0)
(-0.153255 1.63778 0)
(-0.114441 1.71196 0)
(-0.0701109 1.78853 0)
(-0.0240538 1.53105 0)
(-0.682922 -0.418105 0)
(-0.726834 -0.384829 0)
(-0.771663 -0.345474 0)
(-0.816619 -0.299488 0)
(-0.86069 -0.246343 0)
(-0.902632 -0.185603 0)
(-0.940985 -0.117057 0)