/*--------------------------------*- C++ -*----------------------------------*\
| =========                 |                                                 |
| \\      /  F ield         | OpenFOAM: The Open Source CFD Toolbox           |
|  \\    /   O peration     | Version:  5.0                                   |
|   \\  /    A nd           | Web:      www.OpenFOAM.org                      |
|    \\/     M anipulation  |                                                 |
\*---------------------------------------------------------------------------*/
FoamFile
{
    version     2.0;
    format      ascii;
    class       surfaceScalarField;
    location    "0.85";
    object      alphaPhi10;
}
// * * * * * * * * * * * * * * * * * * * * * * * * * * * * * * * * * * * * * //

dimensions      [0 3 -1 0 0 0 0];

internalField   nonuniform List<scalar> 
3782
(
-6.48711e-15
-8.54886e-15
-5.58492e-15
-7.4467e-15
-4.15936e-15
-5.52736e-15
-2.81079e-15
-3.67783e-15
-1.78194e-15
-2.27486e-15
-1.0879e-15
-1.34696e-15
-6.53524e-16
-7.82726e-16
-3.92807e-16
-4.55476e-16
-2.38578e-16
-2.6893e-16
-1.46484e-16
-1.61649e-16
-8.99268e-17
-9.80687e-17
-5.38426e-17
-5.86751e-17
-2.98451e-17
-3.28985e-17
-1.30555e-17
-1.47423e-17
-6.70203e-19
-7.85155e-19
2.71059e-17
2.46317e-17
2.89468e-17
5.13667e-17
2.65708e-17
5.34214e-17
2.06919e-17
4.95224e-17
1.17034e-17
3.75095e-17
4.21742e-18
2.02787e-17
9.11277e-19
7.15173e-18
1.20362e-19
1.62209e-18
9.40984e-21
2.39002e-19
3.58437e-22
2.05596e-20
8.11409e-24
9.10047e-22
3.36075e-25
4.51193e-23
-9.87916e-27
5.03666e-24
-7.15535e-27
5.31122e-25
-1.28309e-27
4.85306e-26
-1.62288e-28
4.12051e-27
-1.58219e-29
3.05411e-28
-1.21839e-30
1.86556e-29
-7.3294e-32
9.0607e-31
-3.33827e-33
3.31165e-32
-1.14779e-34
8.32476e-34
-3.72991e-36
1.24938e-35
-2.27069e-37
5.07019e-38
-3.01832e-39
-2.7296e-38
-1.71864e-41
-4.25535e-40
-1.86979e-44
-2.56434e-42
-1.43059e-60
-2.74104e-45
-5.52094e-67
-5.83219e-15
-4.10777e-15
-2.99675e-15
-2.06492e-15
-9.57554e-16
-6.40914e-16
-3.53587e-17
-5.49787e-17
-6.31815e-15
-4.42395e-15
-4.35717e-15
-3.00408e-15
-2.30484e-15
-1.55685e-15
-5.31079e-16
-8.07882e-16
-5.52928e-15
-3.91797e-15
-4.6594e-15
-3.28292e-15
-3.22224e-15
-2.25171e-15
-1.19926e-15
-1.73512e-15
-4.22071e-15
-3.06781e-15
-4.1626e-15
-3.04238e-15
-3.46292e-15
-2.54415e-15
-1.73974e-15
-2.35497e-15
-2.94913e-15
-2.21982e-15
-3.32439e-15
-2.54472e-15
-3.19808e-15
-2.49279e-15
-2.03176e-15
-2.5535e-15
-1.95379e-15
-1.53128e-15
-2.47899e-15
-1.99636e-15
-2.69258e-15
-2.2331e-15
-2.08487e-15
-2.4322e-15
-1.26099e-15
-1.03049e-15
-1.77867e-15
-1.50644e-15
-2.14221e-15
-1.88516e-15
-1.96178e-15
-2.13739e-15
-8.08907e-16
-6.8751e-16
-1.25316e-15
-1.11092e-15
-1.64744e-15
-1.52659e-15
-1.73303e-15
-1.78353e-15
-5.22083e-16
-4.58673e-16
-8.77505e-16
-8.07256e-16
-1.24156e-15
-1.19747e-15
-1.45718e-15
-1.43823e-15
-3.40145e-16
-3.06082e-16
-6.13397e-16
-5.78838e-16
-9.2324e-16
-9.13596e-16
-1.17555e-15
-1.13244e-15
-2.22385e-16
-2.02647e-16
-4.26923e-16
-4.0768e-16
-6.78165e-16
-6.77634e-16
-9.135e-16
-8.74856e-16
-1.43685e-16
-1.30897e-16
-2.93099e-16
-2.79123e-16
-4.89941e-16
-4.86312e-16
-6.83888e-16
-6.6298e-16
-8.90948e-17
-8.00554e-17
-1.94955e-16
-1.8244e-16
-3.44346e-16
-3.34176e-16
-4.90881e-16
-4.89872e-16
-4.94721e-17
-4.32557e-17
-1.21059e-16
-1.09745e-16
-2.30142e-16
-2.15152e-16
-3.33291e-16
-3.47604e-16
-1.84681e-17
-1.55078e-17
-6.28974e-17
-5.4501e-17
-1.38136e-16
-1.22736e-16
-2.06784e-16
-2.28404e-16
1.32851e-17
2.64752e-17
-1.17137e-17
-9.58205e-18
-5.89616e-17
-4.91911e-17
-1.04589e-16
-1.23778e-16
7.3801e-17
6.432e-17
5.46299e-17
8.28161e-17
2.45414e-17
6.17925e-17
-1.59313e-17
-2.04104e-17
1.17498e-16
6.16317e-17
1.92695e-16
1.2614e-16
2.17717e-16
2.074e-16
2.10309e-16
1.39305e-16
1.16516e-16
5.28923e-17
2.34537e-16
1.16115e-16
4.06297e-16
2.18524e-16
3.61866e-16
4.97968e-16
9.98244e-17
3.55357e-17
2.2119e-16
9.00632e-17
4.20109e-16
1.90103e-16
3.34518e-16
6.9614e-16
6.44207e-17
1.58286e-17
1.67097e-16
4.87236e-17
3.61458e-16
1.22841e-16
2.53533e-16
6.61746e-16
2.74998e-17
4.18555e-18
8.59387e-17
1.57265e-17
2.23392e-16
4.89264e-17
1.25601e-16
4.8724e-16
7.42125e-18
6.66116e-19
2.74506e-17
2.93812e-18
8.56649e-17
1.08648e-17
3.37866e-17
2.2707e-16
1.32892e-18
6.76626e-20
5.70182e-18
3.56318e-19
2.0381e-17
1.50404e-18
5.18573e-18
6.2018e-17
1.53505e-19
3.7856e-21
8.18198e-19
2.69681e-20
3.42752e-18
1.42843e-19
5.69771e-19
1.16248e-17
9.39518e-21
1.00094e-22
6.79919e-20
9.49069e-22
3.72048e-19
6.9403e-21
3.6914e-20
1.55412e-18
3.99414e-22
3.33191e-24
3.06181e-21
2.69129e-23
2.03991e-20
1.92027e-22
1.12256e-21
1.08503e-19
3.91456e-23
5.68269e-26
2.53631e-22
9.88175e-25
1.4419e-21
8.3373e-24
4.77326e-23
6.90562e-21
4.37757e-24
-4.07297e-26
3.21806e-23
-2.38712e-25
2.04599e-22
-1.2653e-24
-5.137e-24
1.02017e-21
4.00641e-25
-8.41406e-27
3.40924e-24
-6.7347e-26
2.57663e-23
-5.08492e-25
-2.81894e-24
1.45709e-22
3.44293e-26
-1.15969e-27
3.42049e-25
-1.17454e-26
3.02125e-24
-1.10125e-25
-7.10846e-25
1.89117e-23
2.68546e-27
-1.19445e-28
3.26516e-26
-1.53519e-27
3.44877e-25
-1.82305e-26
-1.41736e-25
2.44015e-24
1.70951e-28
-9.25047e-30
2.60716e-27
-1.44799e-28
3.44927e-26
-2.27575e-27
-2.3098e-26
2.92544e-25
8.30679e-30
-5.45405e-31
1.53714e-28
-9.43283e-30
2.69005e-27
-2.0299e-28
-2.98309e-27
2.98861e-26
2.97341e-31
-2.43945e-32
6.07776e-30
-3.98196e-31
1.46091e-28
-1.15343e-29
-2.78385e-28
2.35958e-27
7.3494e-33
-8.48941e-34
1.41738e-31
-1.03272e-32
4.59464e-30
-3.19832e-31
-1.55053e-29
1.21691e-28
1.12199e-34
-3.31572e-35
1.59883e-33
-2.24057e-34
5.50857e-32
-1.58038e-33
-3.01301e-31
2.86665e-30
6.13113e-37
-2.08914e-36
4.44238e-36
-4.70989e-36
2.9729e-35
-2.31928e-36
-1.44184e-33
3.83006e-33
-1.31497e-37
-2.07281e-38
-7.6397e-38
-4.58614e-38
-1.40559e-36
-1.89211e-37
-1.03715e-34
-1.33336e-33
-1.5286e-39
-1.23288e-40
-1.41281e-39
-2.6307e-40
-1.0596e-37
-3.93434e-39
-1.92542e-36
-3.1519e-34
-8.55946e-42
-2.07046e-43
-7.28175e-42
-4.87887e-43
-3.90884e-39
-3.26975e-43
-2.34168e-40
-1.90942e-36
-1.38433e-44
-9.65386e-64
-8.76208e-45
-2.5612e-60
-3.35737e-43
-1.75952e-57
-7.26362e-55
-2.34504e-40
-9.65938e-64
-2.56217e-60
-1.76208e-57
-7.28124e-55
9.669e-17
4.99902e-17
4.76567e-16
8.07617e-17
1.25719e-15
1.80255e-16
5.77552e-15
1.40892e-16
1.30313e-14
-1.20119e-15
8.445e-15
1.28799e-15
2.70549e-13
-3.90083e-16
1.08089e-12
6.84366e-15
2.31932e-12
2.20129e-13
2.53179e-11
1.79484e-13
1.52759e-09
3.41641e-10
4.61038e-10
5.95378e-10
2.97879e-11
7.55498e-11
-1.47538e-10
1.32248e-10
-4.36372e-10
4.86445e-10
-2.22631e-10
6.86618e-10
-2.13466e-10
1.35814e-10
-8.49683e-10
-1.63697e-11
-7.15074e-10
9.15828e-12
-1.64804e-10
2.07768e-11
-7.28808e-11
9.15675e-12
-3.10276e-11
4.70356e-12
-7.21659e-12
1.94393e-12
-3.75688e-12
6.00975e-13
-1.21935e-11
2.77557e-12
-6.64003e-11
2.74834e-11
-3.78938e-10
2.24656e-10
-4.77487e-10
-1.46998e-10
-9.73685e-11
-7.29964e-10
-1.33293e-11
-2.66696e-10
1.54747e-12
-1.52302e-11
2.01046e-11
-2.75346e-11
1.48093e-11
-3.51233e-12
1.90345e-11
-1.58344e-11
1.50522e-11
-1.09807e-11
8.45662e-12
-9.03351e-11
-2.50955e-13
-1.6456e-11
5.51584e-13
-4.03204e-12
-2.64287e-14
-2.80971e-13
-1.32979e-13
-1.16027e-16
-8.24619e-17
2.22662e-16
8.39205e-17
4.6319e-16
1.95688e-16
1.32988e-15
5.626e-16
2.27906e-15
8.46939e-16
3.23218e-15
1.5699e-15
3.52772e-15
4.02935e-16
8.27149e-15
6.05192e-15
1.66595e-14
3.84012e-13
3.49406e-13
4.60648e-13
-3.82513e-10
1.43685e-09
-2.50076e-10
1.17397e-09
-3.86952e-10
7.11356e-11
-7.54638e-10
3.80013e-10
-8.62343e-10
7.23084e-10
-1.53736e-10
3.96314e-10
-2.28576e-11
5.53519e-12
-3.91917e-11
-1.61897e-13
-3.07837e-11
4.99601e-13
-1.08957e-11
6.41242e-13
-3.74392e-12
9.41418e-13
-1.53656e-12
1.28223e-12
-1.23968e-12
3.72177e-13
-3.56056e-12
6.49846e-13
-1.05122e-11
5.53849e-12
-6.47603e-10
4.20272e-11
-2.93524e-09
-5.53062e-11
-2.28259e-09
-7.40659e-10
-1.30431e-09
-1.63425e-09
-5.59493e-10
-2.5875e-09
5.13666e-11
-2.83504e-09
2.00312e-10
-4.87276e-09
8.35868e-11
-1.8546e-09
8.78289e-11
-5.43306e-10
6.3519e-11
-2.99317e-10
1.21069e-11
-2.65579e-10
2.40709e-12
-1.30014e-11
1.34029e-13
-1.80063e-12
7.24302e-15
-1.79875e-13
-1.67872e-13
-6.22967e-16
-4.76349e-16
-4.54916e-17
-3.44513e-17
9.11762e-16
4.27864e-16
1.52453e-15
9.74821e-16
2.00368e-15
1.34114e-15
2.51764e-15
2.33881e-15
1.54605e-15
1.11831e-15
6.63276e-15
6.43723e-16
1.42253e-10
5.89262e-11
-6.58045e-10
2.676e-09
-1.15462e-09
2.61629e-09
-5.28244e-10
8.24009e-10
-7.08444e-10
1.01962e-10
-8.57477e-10
2.12669e-10
-3.83401e-10
3.5981e-10
-6.58457e-12
1.98644e-11
-1.56745e-12
5.18969e-13
-1.79116e-12
1.72322e-13
-1.22441e-12
1.88477e-13
-7.90039e-13
6.43592e-14
-7.04194e-13
1.90349e-13
-8.03937e-13
1.51766e-13
-1.86402e-12
2.59562e-13
-2.96166e-12
4.43085e-13
1.39161e-13
2.54426e-12
-1.02917e-09
8.11344e-13
-2.30527e-09
-4.36558e-10
-1.85351e-09
-1.12776e-09
-1.13527e-09
-2.25681e-09
-3.52783e-10
-3.28663e-09
4.47078e-10
-3.54512e-09
1.29025e-09
-5.60281e-09
8.58955e-10
-7.39561e-09
4.97439e-10
-8.82786e-09
6.66691e-11
-4.60786e-09
-2.19038e-12
-1.91244e-10
6.8352e-13
-1.59868e-11
6.17631e-14
-1.1663e-12
8.17355e-15
-1.13154e-13
-1.73695e-13
-1.16606e-15
-9.74006e-16
-3.16055e-16
-2.6923e-16
8.11485e-16
2.33159e-16
2.047e-15
1.38898e-15
3.2869e-15
3.36532e-15
2.80799e-15
3.80966e-15
1.26425e-15
1.67416e-15
7.45415e-16
6.68113e-16
-1.24751e-12
3.55819e-10
-1.43794e-09
4.31411e-09
-9.16935e-10
3.50012e-09
-1.52104e-10
6.96616e-11
-2.90979e-10
8.62681e-11
-3.68414e-10
6.56868e-11
-1.9377e-11
1.29728e-11
-7.5248e-13
1.27007e-12
-5.02689e-13
3.23585e-13
-3.72107e-13
1.84495e-13
-3.20176e-13
1.30229e-13
-6.91426e-13
3.45724e-13
-1.24204e-12
6.76328e-13
-7.21324e-13
5.6596e-13
-8.30941e-13
2.01084e-13
-2.5819e-13
1.39674e-13
3.6052e-12
-4.21771e-15
4.43659e-12
-1.2002e-14
-4.3793e-10
-6.1038e-13
-6.85016e-10
-2.70732e-11
-4.70714e-10
-1.63823e-09
1.2607e-10
-3.7366e-09
8.48435e-10
-4.18277e-09
1.5872e-09
-6.27077e-09
2.23706e-09
-8.04569e-09
2.63129e-09
-9.22166e-09
1.45648e-10
-6.88585e-09
7.03564e-12
-1.48544e-10
6.61336e-13
-9.51473e-12
3.35161e-14
-5.28099e-13
5.65076e-15
-7.90357e-14
-1.76457e-13
-1.5348e-15
-1.40669e-15
-6.08563e-16
-5.82124e-16
5.48036e-16
1.02739e-16
2.61191e-15
1.90135e-15
4.00013e-15
4.95612e-15
3.10341e-15
5.02525e-15
1.25984e-15
2.19984e-15
5.54342e-16
8.62502e-16
-7.38781e-11
9.28317e-10
-1.28132e-09
5.72506e-09
-1.48463e-10
3.67604e-09
-8.48756e-11
1.18666e-11
-7.50261e-11
5.68646e-12
-1.57704e-11
-4.82845e-12
-1.03752e-12
-1.60483e-12
-3.09587e-13
6.06055e-13
-3.18712e-13
4.8832e-13
-2.53554e-13
3.34127e-13
-3.14708e-13
1.73728e-13
-1.44786e-12
5.5203e-13
-1.55064e-12
7.17884e-13
-1.50834e-12
5.35806e-13
-1.59013e-12
3.44278e-13
-9.13601e-13
9.74548e-14
-1.15054e-14
-7.98112e-14
-1.93723e-14
-1.71951e-15
-6.23524e-13
-5.15739e-15
-2.76912e-11
-5.0545e-15
1.38375e-12
-4.48421e-15
3.81564e-10
-5.44138e-15
1.52334e-09
-3.69217e-14
1.88374e-09
-4.46856e-09
2.10774e-09
-8.2003e-09
1.92387e-09
-8.8546e-09
1.26401e-10
-1.65874e-09
8.52589e-12
-2.75697e-11
4.70826e-13
-1.31008e-12
1.84053e-14
-1.07941e-13
4.57464e-15
-6.61897e-14
-1.83677e-13
-1.6765e-15
-1.67905e-15
-8.06613e-16
-8.56907e-16
-7.58308e-17
-8.72866e-17
2.93481e-15
2.27135e-15
3.83849e-15
5.8145e-15
3.21206e-15
6.02332e-15
1.32444e-15
2.61372e-15
6.20026e-16
1.05043e-15
1.24374e-10
4.77771e-09
-8.73077e-10
6.92751e-09
-1.97169e-11
2.76235e-09
-8.79041e-12
6.93277e-12
-4.43699e-12
6.27715e-12
-3.338e-12
3.81236e-12
-8.76134e-13
5.09803e-12
-9.70724e-12
2.13642e-11
-2.86178e-13
3.80653e-11
-3.46208e-13
6.46032e-13
-8.1669e-14
1.92601e-13
-1.32984e-12
1.03841e-13
-1.27354e-12
6.68715e-13
-1.17832e-12
4.4838e-13
-1.0242e-12
2.02403e-13
-8.54855e-13
-6.08523e-14
-2.451e-14
-7.26798e-14
-1.38188e-15
-2.3766e-14
-5.2561e-16
-5.51671e-15
1.97162e-17
-5.49247e-15
5.76115e-16
-4.80256e-15
1.12808e-15
-5.416e-15
3.84174e-15
-3.93998e-14
9.52339e-10
-6.94264e-12
1.75615e-09
-1.70068e-11
4.92105e-10
-1.96533e-11
2.78959e-11
-4.19729e-12
1.38868e-12
-1.26967e-12
5.68161e-14
-1.53304e-13
1.00652e-14
-6.339e-14
4.0576e-15
-6.24342e-14
-1.87667e-13
-1.63643e-15
-1.7711e-15
-8.93474e-16
-1.03512e-15
-1.65879e-16
-2.0966e-16
2.81852e-15
2.21811e-15
4.24096e-15
6.39653e-15
3.38894e-15
6.81971e-15
1.4672e-15
2.85598e-15
7.78648e-16
1.21935e-15
8.56224e-10
5.40027e-09
-4.61563e-11
8.04616e-09
-8.60355e-12
1.20039e-09
-2.75936e-12
7.07297e-12
-1.84965e-12
1.10594e-11
-2.51018e-12
9.12987e-12
-9.20049e-12
1.0744e-11
-3.1009e-11
4.93331e-11
-4.04641e-11
5.17137e-11
-2.67696e-13
4.35854e-11
-1.46286e-13
7.84221e-14
-1.04323e-13
5.95446e-14
-2.83267e-13
-3.31421e-15
-2.73731e-13
1.40343e-14
-2.79266e-13
3.36305e-16
-8.92659e-14
-1.47071e-15
-2.16482e-14
-2.63424e-15
-1.18601e-15
-7.8919e-15
2.69289e-16
-7.71147e-15
7.84194e-16
-6.47974e-15
1.20258e-15
-4.65662e-15
1.72228e-15
-5.27353e-15
2.33346e-14
-6.04506e-14
2.95091e-13
-7.21486e-12
9.0254e-13
-1.80598e-11
7.78054e-13
-1.74695e-11
2.31275e-13
-3.81379e-12
4.06235e-14
-1.10115e-12
1.09979e-14
-1.26595e-13
6.94105e-15
-6.15742e-14
3.61685e-15
-6.13827e-14
-1.85151e-13
-1.48641e-15
-1.71009e-15
-8.92541e-16
-1.10177e-15
-2.18116e-16
-2.93246e-16
2.46934e-15
1.90896e-15
3.56051e-15
5.95995e-15
2.96927e-15
6.0461e-15
1.48877e-15
2.54027e-15
8.35009e-16
1.35424e-15
1.2119e-09
2.07219e-09
1.00213e-09
8.48611e-09
-1.82695e-12
1.12416e-09
-4.59035e-12
4.67181e-11
-1.4348e-12
8.49248e-11
-2.24842e-12
1.55119e-11
-1.96571e-11
1.94311e-11
-2.35612e-11
5.74694e-11
-2.31821e-11
5.55668e-11
-1.10039e-11
3.56395e-11
-1.71291e-13
3.51297e-12
-4.61826e-14
4.19819e-14
-5.55524e-15
7.20523e-14
-1.6389e-15
3.78215e-15
-6.98521e-16
-7.11345e-16
-6.30747e-17
-2.35077e-15
6.3096e-16
-3.56602e-15
2.14241e-15
-6.11672e-15
2.90868e-15
-7.16805e-15
2.04801e-15
-5.92388e-15
2.2865e-15
-4.77768e-15
3.24615e-15
-5.58926e-15
4.99436e-13
-5.61125e-13
2.23924e-12
-9.6305e-12
4.72243e-12
-1.27344e-11
2.99138e-12
-1.47629e-11
2.43024e-13
-2.56877e-12
-9.48882e-15
-2.31754e-12
6.06628e-15
-1.62814e-13
6.5131e-15
-6.41196e-14
4.00058e-15
-6.19602e-14
-1.76245e-13
-1.28732e-15
-1.54334e-15
-8.36881e-16
-1.07289e-15
-2.51268e-16
-3.47946e-16
2.02565e-15
1.14303e-15
4.22406e-15
7.8689e-15
3.62147e-15
7.98402e-15
1.84354e-15
2.99339e-15
1.19056e-15
1.47658e-15
1.13774e-09
5.20445e-11
1.29052e-09
2.02917e-09
-7.16576e-11
8.44197e-10
-2.02555e-12
7.51972e-11
2.71207e-12
1.25582e-10
-1.276e-13
8.69537e-11
-1.20377e-12
1.46555e-11
-2.19852e-12
-1.51344e-12
-3.90595e-12
1.31559e-11
-1.35266e-12
4.56916e-12
-7.08617e-14
3.00351e-12
1.32605e-15
2.65373e-13
2.81685e-14
1.5369e-13
8.7044e-15
3.69404e-14
1.32648e-15
-1.18548e-14
2.07218e-15
-3.32662e-15
3.25977e-15
-6.20468e-15
4.15808e-15
-9.81026e-15
4.30323e-15
-1.04924e-14
2.70593e-15
-6.26334e-15
3.48842e-15
-5.11858e-15
4.45197e-15
-5.86086e-15
8.21617e-12
-8.76375e-12
4.73562e-11
-1.33514e-10
3.80179e-11
-2.16765e-10
1.63746e-11
-2.45469e-10
-2.61313e-13
-5.06466e-11
-2.65496e-13
-5.65339e-12
9.15258e-16
-4.39104e-13
6.56109e-15
-7.05309e-14
4.1013e-15
-6.02743e-14
-1.62979e-13
-1.07899e-15
-1.31955e-15
-7.53716e-16
-9.78283e-16
-2.7272e-16
-3.77657e-16
9.31527e-16
4.30328e-16
1.07576e-14
1.5286e-14
1.15604e-14
2.67359e-14
3.40811e-15
1.27358e-14
2.83693e-15
1.70936e-15
4.45342e-11
7.53977e-12
2.57978e-10
2.43601e-11
7.19166e-11
-3.66171e-12
-4.92161e-12
6.21389e-11
3.10526e-11
1.08448e-10
2.68677e-11
1.07793e-10
4.1614e-12
7.81315e-11
-1.49724e-13
1.4402e-11
7.85925e-13
-4.3547e-14
3.15215e-13
7.66821e-14
2.30457e-13
9.56245e-15
1.3131e-13
9.59138e-14
2.55257e-13
1.27666e-13
1.3291e-13
9.23102e-15
1.38233e-15
-5.15977e-15
6.84973e-15
-7.64508e-15
1.12469e-14
-1.22822e-14
1.20589e-14
-1.53216e-14
7.43093e-15
-1.31425e-14
4.10675e-15
-6.49928e-15
4.9755e-15
-5.42684e-15
5.89523e-15
-6.1022e-15
5.04971e-11
-7.86121e-11
9.04026e-11
-1.73985e-10
9.07514e-11
-2.17748e-10
8.75486e-11
-2.41489e-10
4.92475e-12
-1.60396e-10
-2.43774e-13
-1.13281e-11
9.24888e-15
-6.99574e-13
6.34753e-15
-6.53301e-14
3.98666e-15
-5.66243e-14
-1.37981e-13
-8.82785e-16
-1.07834e-15
-6.60589e-16
-8.47889e-16
-2.85436e-16
-3.85424e-16
1.26408e-16
1.84847e-17
1.86844e-14
1.99512e-14
2.42642e-14
3.83241e-14
1.43716e-14
2.6033e-14
1.31711e-14
2.64342e-15
6.65737e-12
9.04421e-13
2.90181e-11
6.15122e-13
1.37934e-11
1.80445e-11
3.05029e-11
1.54446e-11
4.72316e-11
4.84134e-11
5.85529e-11
1.14166e-10
5.45895e-11
9.91921e-11
1.23618e-12
4.58847e-11
1.11737e-13
9.04088e-13
4.85427e-14
7.87175e-14
3.66288e-14
1.46746e-14
5.03804e-14
1.05099e-14
6.87684e-14
5.91188e-15
2.29747e-14
-7.51806e-16
2.16772e-14
-6.54193e-15
2.31851e-14
-1.1412e-14
2.34581e-14
-1.68143e-14
1.82275e-14
-1.8453e-14
9.68939e-15
-1.36525e-14
5.40144e-15
-6.34907e-15
5.97391e-15
-5.5984e-15
6.65343e-15
-6.21602e-15
8.12686e-11
-8.66932e-11
1.02927e-10
-1.92765e-10
1.00785e-10
-2.14355e-10
9.49644e-11
-2.3493e-10
2.23132e-11
-2.38213e-10
1.85278e-13
-6.83871e-12
1.82369e-14
-5.28708e-13
5.54525e-15
-4.09947e-14
4.06421e-15
-5.16103e-14
-1.15188e-13
-7.07396e-16
-8.46361e-16
-5.66836e-16
-7.04819e-16
-2.89288e-16
-3.73126e-16
-5.93203e-17
-7.91598e-17
1.29182e-14
1.56712e-14
2.8428e-14
4.01418e-14
1.47095e-14
2.39904e-14
9.02257e-15
4.07753e-15
2.86189e-12
1.15241e-11
9.42342e-12
4.06664e-11
1.1775e-11
3.15497e-11
1.10663e-11
1.63701e-11
3.42169e-11
1.78601e-11
6.21263e-11
2.35199e-11
8.69628e-11
9.84124e-11
1.29812e-12
2.90666e-11
8.636e-14
1.41151e-12
4.19717e-14
1.16224e-13
3.38535e-14
1.93958e-14
3.28948e-14
9.32438e-15
3.39955e-14
3.50025e-15
3.43904e-14
-2.45777e-15
3.70769e-14
-9.57381e-15
3.87492e-14
-1.65913e-14
3.43116e-14
-2.09133e-14
2.30976e-14
-1.91346e-14
1.08825e-14
-1.30626e-14
6.58349e-15
-6.72391e-15
6.80265e-15
-5.68545e-15
7.19153e-15
-6.1994e-15
1.06314e-10
-7.1754e-15
1.13562e-10
-1.94202e-10
1.04684e-10
-2.02571e-10
9.43175e-11
-2.25226e-10
4.75993e-12
-9.19013e-11
3.67296e-13
-1.96381e-12
1.56504e-14
-1.60969e-13
4.56567e-15
-2.40566e-14
4.63724e-15
-4.76472e-14
-9.93236e-14
-5.5394e-16
-6.37972e-16
-4.76062e-16
-5.63588e-16
-2.81944e-16
-3.41718e-16
-1.03165e-16
-1.27402e-16
1.07785e-14
3.76612e-15
1.97045e-14
1.58595e-14
5.20084e-15
4.28055e-15
1.16168e-14
2.73059e-15
7.00692e-11
7.5978e-11
5.32416e-11
8.3336e-11
3.81449e-11
7.3105e-11
1.41909e-11
3.28637e-11
1.23343e-11
1.29868e-11
1.60207e-11
8.8157e-12
2.02457e-11
6.46655e-12
7.00869e-12
3.32197e-12
8.71212e-14
2.45515e-12
5.22872e-14
1.29785e-13
4.74814e-14
2.15291e-14
4.63671e-14
9.37233e-15
5.1642e-14
3.39552e-15
5.97379e-14
-4.10896e-15
6.11154e-14
-1.23202e-14
5.6737e-14
-1.94307e-14
4.23222e-14
-2.17994e-14
2.43291e-14
-1.74147e-14
1.18148e-14
-1.09704e-14
6.55501e-15
-6.74558e-15
6.16753e-15
-5.64508e-15
6.22426e-15
-6.12279e-15
6.14745e-15
-7.19022e-15
1.05285e-10
-2.92984e-11
1.02359e-10
-1.97382e-10
6.11144e-11
-1.71381e-10
1.59074e-12
-8.71517e-12
1.29566e-13
-4.20416e-13
6.97647e-15
-3.40353e-14
3.55477e-15
-1.80763e-14
5.29065e-15
-4.48634e-14
-8.78006e-14
-4.19521e-16
-4.58186e-16
-3.88135e-16
-4.31289e-16
-2.61489e-16
-2.94019e-16
-1.25998e-16
-1.42494e-16
2.08249e-15
4.09952e-16
6.1423e-15
1.12779e-15
9.62524e-15
7.6909e-16
2.48069e-11
2.33873e-12
8.09031e-11
6.16804e-11
8.86914e-11
8.00668e-11
8.17854e-11
8.27913e-11
4.63501e-11
7.50852e-11
2.11928e-11
6.32046e-11
9.52417e-12
3.19038e-11
2.14375e-12
1.08335e-11
1.03159e-12
2.13357e-12
6.47939e-13
6.11732e-13
4.48289e-14
1.19192e-13
5.52332e-14
2.26362e-14
7.02739e-14
1.02643e-14
7.65646e-14
2.63288e-15
7.86899e-14
-5.08692e-15
7.95855e-14
-1.20446e-14
6.91625e-14
-1.88291e-14
4.30725e-14
-1.73037e-14
2.13977e-14
-1.12508e-14
1.15802e-14
-6.91465e-15
7.96337e-15
-5.54762e-15
7.13659e-15
-5.56862e-15
7.10174e-15
-6.18039e-15
1.05433e-14
-1.07271e-14
2.83594e-11
-1.88179e-12
7.59547e-11
-1.74148e-13
8.5486e-12
-4.75891e-14
3.83459e-13
-1.22554e-14
2.22572e-14
-1.84866e-14
4.12393e-15
-1.36498e-14
3.55368e-15
-1.56977e-14
5.77472e-15
-4.1704e-14
-7.80559e-14
-2.9935e-16
-3.06136e-16
-3.00537e-16
-3.09836e-16
-2.26815e-16
-2.34244e-16
-1.29318e-16
-1.32887e-16
1.66195e-16
1.14439e-16
5.39243e-16
6.18767e-17
1.24866e-15
7.52038e-17
2.24676e-12
9.25741e-14
8.10089e-11
1.05703e-11
9.73273e-11
6.58415e-11
1.03187e-10
7.97874e-11
1.05576e-10
7.51582e-11
1.00716e-10
7.01794e-11
7.25355e-11
6.2174e-11
2.54574e-11
4.3241e-11
3.00422e-13
2.14668e-11
9.20761e-14
7.68665e-13
8.22239e-14
1.13939e-13
8.2051e-14
2.22741e-14
8.70514e-14
9.19362e-15
8.88133e-14
1.54714e-15
8.80207e-14
-5.30832e-15
7.89128e-14
-1.08608e-14
5.48242e-14
-1.22658e-14
2.89715e-14
-9.11408e-15
1.42597e-14
-5.30791e-15
9.4938e-15
-4.08801e-15
8.66301e-15
-4.56933e-15
7.9674e-15
-5.27957e-15
8.22428e-15
-6.55006e-15
1.2395e-14
-1.4865e-14
1.98689e-13
-6.35485e-14
2.1778e-14
-4.20774e-14
8.60861e-15
-2.03215e-14
6.02709e-15
-1.64792e-14
5.20684e-15
-1.24799e-14
4.39379e-15
-1.21773e-14
3.86418e-15
-1.3956e-14
6.15404e-15
-3.75739e-14
-6.88754e-14
-1.87309e-16
-1.77452e-16
-2.09121e-16
-1.98126e-16
-1.76108e-16
-1.65725e-16
-1.13255e-16
-1.05108e-16
9.40638e-19
2.43342e-19
3.72895e-17
8.62071e-18
1.17445e-16
1.73442e-17
7.94694e-14
9.45031e-15
1.14839e-11
7.51964e-13
7.33147e-11
3.56423e-12
1.12464e-10
4.27029e-11
1.19854e-10
6.98016e-11
1.24202e-10
6.79655e-11
1.2714e-10
6.13702e-11
1.21088e-10
5.14026e-11
3.58077e-11
4.20976e-11
5.90665e-13
4.3203e-12
1.36312e-13
5.00263e-13
8.17614e-14
4.75964e-14
7.37006e-14
7.90209e-15
7.54291e-14
4.76617e-16
7.04696e-14
-3.75805e-15
5.44872e-14
-6.10768e-15
3.21352e-14
-5.4856e-15
1.5892e-14
-3.29013e-15
1.04636e-14
-3.15654e-15
9.42096e-15
-3.73165e-15
8.9297e-15
-4.50849e-15
9.16196e-15
-5.97476e-15
1.44319e-14
-1.16364e-14
4.85239e-14
-5.00456e-14
2.90907e-14
-7.61306e-14
1.22046e-14
-2.79271e-14
8.5382e-15
-1.31452e-14
6.8402e-15
-1.06898e-14
5.83876e-15
-1.05646e-14
4.57493e-15
-1.08494e-14
4.02888e-15
-1.23561e-14
6.4975e-15
-3.29389e-14
-5.97427e-14
-7.47356e-17
-6.49815e-17
-1.08115e-16
-9.33705e-17
-1.06063e-16
-9.0337e-17
-7.59627e-17
-6.33428e-17
-2.22876e-17
-1.80577e-17
1.19011e-17
6.10769e-18
4.38209e-17
9.78218e-18
8.9632e-15
5.10643e-16
7.24777e-13
4.82283e-14
4.09706e-12
2.20028e-13
3.86352e-11
1.31442e-12
1.01642e-10
1.90613e-12
1.2607e-10
2.35986e-11
1.38539e-10
5.103e-11
1.41413e-10
4.91129e-11
3.82824e-11
1.91459e-11
4.35071e-13
3.12163e-12
1.05598e-13
4.21284e-13
6.9761e-14
4.26262e-14
5.68858e-14
5.54391e-15
5.37651e-14
-7.32912e-17
4.43463e-14
-2.58307e-15
2.85209e-14
-2.74034e-15
1.5355e-14
-2.04683e-15
1.1052e-14
-2.38525e-15
1.01889e-14
-2.90497e-15
1.00071e-14
-4.34526e-15
1.06893e-14
-5.88395e-15
2.24616e-14
-1.77639e-14
1.86039e-13
-1.13284e-13
4.46805e-13
-5.42959e-13
1.77015e-13
-2.63464e-13
1.87657e-14
-6.68349e-14
9.5478e-15
-1.97502e-14
7.66094e-15
-1.14924e-14
6.23427e-15
-9.57407e-15
4.85033e-15
-9.45849e-15
4.24969e-15
-1.0639e-14
6.76387e-15
-2.75286e-14
-5.03738e-14
6.05013e-17
1.64602e-16
8.23345e-18
5.93677e-17
-1.44042e-17
-1.10352e-17
-1.57163e-17
-1.1717e-17
-2.58968e-19
-1.86454e-19
3.1612e-17
3.27444e-17
3.63261e-17
3.27687e-17
3.77716e-16
5.39034e-17
4.7288e-14
1.93396e-15
2.57871e-13
1.2092e-14
1.47475e-12
9.1955e-14
3.23709e-12
1.4265e-13
2.39092e-11
6.74612e-13
5.90835e-11
1.22059e-12
4.6417e-11
3.59294e-14
1.23155e-11
-1.33535e-12
-3.6902e-14
7.76009e-13
6.63744e-14
8.5392e-14
5.5042e-14
1.72185e-14
5.22846e-14
3.3856e-15
4.421e-14
-4.4164e-16
2.77122e-14
-1.55313e-15
1.4183e-14
-1.42043e-15
1.19625e-14
-1.77832e-15
1.12001e-14
-2.23986e-15
1.08772e-14
-3.19823e-15
1.56026e-14
-9.69926e-15
3.25347e-14
-2.31316e-14
3.50312e-13
-2.09618e-13
1.14741e-12
-5.47496e-13
1.10471e-12
-7.02737e-13
3.79048e-13
-7.51418e-13
2.73711e-14
-2.52251e-13
1.15999e-14
-3.2361e-14
8.63541e-15
-1.11882e-14
6.66083e-15
-8.61144e-15
5.1497e-15
-8.03171e-15
4.40301e-15
-8.74913e-15
6.87742e-15
-2.15291e-14
-4.06182e-14
4.95009e-16
5.11419e-16
3.91159e-16
5.18433e-16
2.59984e-16
3.9738e-16
1.81068e-16
2.73389e-16
1.55702e-16
2.02877e-16
1.45608e-16
1.61105e-16
1.43621e-16
1.34632e-16
1.74207e-16
1.23158e-16
2.12406e-15
2.77074e-16
1.4062e-14
6.75076e-16
1.01575e-13
4.20641e-15
2.3639e-13
7.77204e-15
9.00299e-13
2.3886e-14
2.05535e-12
5.22523e-14
2.03686e-12
1.5916e-14
6.96361e-13
-3.31793e-14
8.03434e-13
-1.71206e-14
3.15076e-13
3.29902e-14
1.20748e-13
1.58159e-14
5.96129e-14
3.12382e-15
3.05845e-14
-3.20885e-16
1.62265e-14
-9.24304e-16
1.27277e-14
-1.3451e-15
1.23986e-14
-1.90668e-15
1.22781e-14
-3.01858e-15
1.74364e-14
-8.97827e-15
2.11801e-13
-7.194e-14
7.31342e-13
-3.49048e-13
1.46243e-12
-5.04446e-13
1.499e-12
-5.7753e-13
1.42184e-12
-6.21057e-13
1.3186e-12
-6.41572e-13
1.16536e-13
-3.62772e-13
8.62632e-15
-4.207e-14
9.28712e-15
-9.91285e-15
7.19187e-15
-7.18779e-15
5.50529e-15
-6.61682e-15
4.42968e-15
-6.82829e-15
6.77942e-15
-1.54738e-14
-3.04329e-14
1.06162e-15
5.87966e-16
1.27922e-15
9.18977e-16
1.24482e-15
1.08196e-15
1.08445e-15
1.07342e-15
9.03939e-16
9.28435e-16
7.38276e-16
7.43551e-16
6.39083e-16
5.72918e-16
6.58739e-16
5.00128e-16
9.24243e-16
4.55384e-16
1.70163e-15
5.16562e-16
5.82928e-15
9.40207e-16
1.3606e-14
1.46605e-15
3.73366e-14
1.60552e-15
8.88337e-14
3.72424e-15
9.93082e-14
5.01679e-15
5.87062e-14
5.09862e-15
3.51141e-14
4.09912e-15
4.76074e-14
1.04297e-15
4.09535e-14
9.15889e-16
2.65514e-14
2.97813e-16
1.86783e-14
-4.25232e-16
1.68771e-14
-9.99917e-16
1.51887e-14
-1.377e-15
1.537e-14
-1.72856e-15
3.07717e-14
-2.10564e-15
3.28052e-13
-1.1834e-13
1.68193e-12
-2.88897e-13
1.74514e-12
-3.9786e-13
1.7058e-12
-4.58521e-13
1.62796e-12
-4.95123e-13
1.52585e-12
-5.14384e-13
1.35793e-12
-4.69088e-13
2.04115e-13
-2.47528e-13
1.28347e-14
-2.08461e-14
9.76692e-15
-7.6099e-15
7.69284e-15
-5.50423e-15
5.89503e-15
-4.96406e-15
4.42504e-15
-4.89193e-15
6.44715e-15
-9.76654e-15
-1.98309e-14
1.13712e-15
5.19904e-16
1.81865e-15
8.454e-16
2.58566e-15
1.22214e-15
3.20513e-15
1.80264e-15
3.45428e-15
2.23559e-15
3.28071e-15
2.3572e-15
2.97067e-15
2.18644e-15
2.77205e-15
1.91808e-15
2.76424e-15
1.61601e-15
2.98692e-15
1.4595e-15
3.91311e-15
1.29615e-15
5.47964e-15
1.31556e-15
7.15868e-15
1.45911e-15
1.07116e-14
1.80463e-15
1.45466e-14
2.09845e-15
1.6496e-14
2.01006e-15
1.71361e-14
1.59765e-15
1.83724e-14
1.10451e-15
2.08782e-14
6.21429e-16
2.14074e-14
2.18185e-17
2.14537e-14
-7.59628e-16
1.96506e-14
-1.27196e-15
1.61723e-14
-1.36946e-15
1.81191e-14
-1.65395e-15
1.59454e-14
-2.5375e-15
1.78392e-12
-6.80526e-14
1.88039e-12
-3.44168e-13
1.85759e-12
-3.62693e-13
1.79115e-12
-3.84544e-13
1.699e-12
-3.96905e-13
1.55597e-12
-3.66746e-13
7.51453e-13
-2.96785e-13
3.2822e-14
-3.28977e-14
1.21011e-14
-5.66474e-15
1.05397e-14
-4.29559e-15
8.14879e-15
-3.60891e-15
6.17678e-15
-3.13867e-15
4.47931e-15
-2.92413e-15
5.81493e-15
-4.69029e-15
-9.22108e-15
9.82256e-16
3.20465e-16
1.72292e-15
6.21565e-16
2.74764e-15
1.05259e-15
4.336e-15
1.6157e-15
6.41955e-15
2.31777e-15
8.79215e-15
3.3277e-15
9.94855e-15
4.42165e-15
1.02955e-14
4.85115e-15
1.04782e-14
4.82108e-15
1.09033e-14
4.55989e-15
1.14097e-14
4.16572e-15
1.22763e-14
3.74861e-15
1.3643e-14
3.38278e-15
1.57932e-14
2.9599e-15
1.85242e-14
2.54832e-15
2.15751e-14
2.20633e-15
2.51187e-14
1.8224e-15
2.85062e-14
1.07297e-15
2.97511e-14
3.94893e-16
2.99972e-14
-4.5049e-16
2.71417e-14
-1.0355e-15
2.15932e-14
-1.40842e-15
1.73988e-14
-1.71231e-15
1.65785e-14
-2.00747e-15
4.36804e-14
-1.76303e-15
8.77302e-13
-4.64295e-15
2.05818e-12
-2.31844e-15
1.91091e-12
-1.84937e-13
1.82168e-12
-2.82584e-13
1.63897e-12
-2.06247e-13
9.13154e-13
-1.30547e-13
5.91022e-14
-2.19687e-14
1.12456e-14
-2.46202e-15
1.08179e-14
-1.68636e-15
1.05062e-14
-1.59625e-15
8.41299e-15
-1.4163e-15
6.36908e-15
-1.16667e-15
4.56965e-15
-8.82092e-16
4.80185e-15
-6.69039e-16
-1.27646e-16
5.67011e-16
1.08489e-16
1.20354e-15
2.70524e-16
2.27548e-15
5.83164e-16
3.96642e-15
1.08465e-15
6.47116e-15
1.84538e-15
1.00611e-14
2.78517e-15
1.49339e-14
3.90977e-15
2.01307e-14
5.04652e-15
2.37086e-14
5.75359e-15
2.53792e-14
6.14933e-15
2.68061e-14
6.03666e-15
2.8585e-14
5.38025e-15
3.05984e-14
4.60032e-15
3.2642e-14
3.7887e-15
3.47367e-14
2.92265e-15
3.67887e-14
2.25866e-15
3.81529e-14
1.4196e-15
3.91197e-14
4.91317e-16
3.76599e-14
-3.25444e-16
3.25684e-14
-9.30399e-16
2.65222e-14
-1.34884e-15
2.43078e-14
-1.67614e-15
2.34091e-14
-2.02428e-15
2.09622e-14
-2.19758e-15
1.27372e-14
-1.93959e-15
9.00055e-15
-1.22057e-15
9.4769e-15
-8.16605e-16
1.29068e-12
-1.50925e-15
1.40905e-12
-6.93256e-16
5.01994e-13
-4.45125e-16
2.82292e-14
-3.49186e-16
6.55263e-15
-2.81312e-16
7.07042e-15
-2.30168e-16
7.29103e-15
-1.74071e-16
7.29104e-15
-7.58449e-17
6.97683e-15
1.66859e-16
6.08083e-15
5.80762e-16
4.8085e-15
1.14063e-15
3.66844e-15
2.19317e-15
5.68209e-15
1.85744e-16
1.89949e-17
4.87971e-16
5.7593e-17
1.14929e-15
1.55781e-16
2.42738e-15
3.6964e-16
4.68893e-15
7.87997e-16
8.1625e-15
1.44562e-15
1.31045e-14
2.33696e-15
1.90349e-14
3.41225e-15
2.43854e-14
4.26988e-15
2.90856e-14
4.66087e-15
3.20398e-14
4.58853e-15
3.38244e-14
4.05221e-15
3.54762e-14
3.37476e-15
3.7051e-14
2.6309e-15
3.85452e-14
1.84533e-15
3.98264e-14
1.02007e-15
3.93337e-14
1.99811e-16
3.55626e-14
-4.42729e-16
2.96196e-14
-8.43144e-16
2.70035e-14
-1.07389e-15
2.68148e-14
-1.23986e-15
2.67955e-14
-1.35631e-15
2.63206e-14
-1.38849e-15
2.37677e-14
-1.28032e-15
1.66402e-14
-1.04443e-15
7.44487e-15
-7.39492e-16
5.43113e-15
-4.53216e-16
4.27621e-15
-3.92083e-16
3.90754e-15
-3.34156e-16
3.67022e-15
-2.11035e-16
3.42907e-15
-1.08983e-16
3.1599e-15
-1.30823e-17
3.09848e-15
9.36771e-17
3.48873e-15
2.27997e-16
4.31587e-15
4.56032e-16
5.30434e-15
9.71978e-16
5.38424e-15
1.83613e-15
4.727e-15
2.73148e-15
4.17877e-15
5.41942e-15
1.21319e-14
3.83561e-17
2.28599e-18
1.12132e-16
7.26027e-18
3.00473e-16
2.02485e-17
7.43672e-16
5.20453e-17
1.69732e-15
1.24221e-16
3.47615e-15
2.68332e-16
6.37398e-15
5.0728e-16
1.04495e-14
8.33882e-16
1.52735e-14
1.21309e-15
2.03257e-14
1.53688e-15
2.47941e-14
1.7068e-15
2.72503e-14
1.61502e-15
2.85646e-14
1.19568e-15
2.93287e-14
7.02353e-16
2.91486e-14
2.0363e-16
2.76157e-14
-1.55935e-16
2.47862e-14
-3.86097e-16
2.14737e-14
-5.5841e-16
1.85085e-14
-6.68627e-16
1.61474e-14
-7.19033e-16
1.45483e-14
-7.2028e-16
1.32415e-14
-6.696e-16
1.17253e-14
-5.63133e-16
9.93066e-15