/*--------------------------------*- C++ -*----------------------------------*\
| =========                 |                                                 |
| \\      /  F ield         | OpenFOAM: The Open Source CFD Toolbox           |
|  \\    /   O peration     | Version:  5.0                                   |
|   \\  /    A nd           | Web:      www.OpenFOAM.org                      |
|    \\/     M anipulation  |                                                 |
\*---------------------------------------------------------------------------*/
FoamFile
{
    version     2.0;
    format      ascii;
    class       volScalarField;
    location    "0.85";
    object      alpha.water;
}
// * * * * * * * * * * * * * * * * * * * * * * * * * * * * * * * * * * * * * //

dimensions      [0 0 0 0 0 0 0];

internalField   nonuniform List<scalar> 
1935
(
-2.46411e-10
-2.12052e-10
-1.58722e-10
-1.08065e-10
-6.90832e-11
-4.2542e-11
-2.579e-11
-1.56612e-11
-9.63038e-12
-6.00563e-12
-3.76095e-12
-2.30965e-12
-1.32177e-12
-6.01537e-13
-3.24085e-14
1.02266e-12
1.57949e-12
1.57505e-12
1.44553e-12
1.0695e-12
5.62416e-13
1.93902e-13
4.33189e-14
6.30173e-15
5.3207e-16
2.32835e-17
1.37206e-18
1.82877e-19
2.20278e-20
2.33294e-21
2.35375e-22
2.13749e-23
1.67267e-24
1.10527e-25
5.96902e-27
2.52513e-28
8.31045e-30
2.68266e-31
1.60305e-32
2.07597e-34
1.18177e-36
1.28945e-39
1.99846e-55
-1.71449e-10
-9.1003e-11
-3.04388e-11
-1.85445e-12
-1.81834e-10
-1.28161e-10
-7.01443e-11
-2.57862e-11
-1.59707e-10
-1.36792e-10
-9.73029e-11
-5.46326e-11
-1.24451e-10
-1.24408e-10
-1.06131e-10
-7.50222e-11
-8.97696e-11
-1.02415e-10
-1.00845e-10
-8.35164e-11
-6.18029e-11
-7.92654e-11
-8.79686e-11
-8.2224e-11
-4.15674e-11
-5.91679e-11
-7.26353e-11
-7.4736e-11
-2.77763e-11
-4.33121e-11
-5.78284e-11
-6.42436e-11
-1.86183e-11
-3.13791e-11
-4.48655e-11
-5.2982e-11
-1.25355e-11
-2.25543e-11
-3.4087e-11
-4.22801e-11
-8.41768e-12
-1.60245e-11
-2.53687e-11
-3.27921e-11
-5.54954e-12
-1.11474e-11
-1.84183e-11
-2.47322e-11
-3.48932e-12
-7.46238e-12
-1.29172e-11
-1.80585e-11
-1.95419e-12
-4.638e-12
-8.56792e-12
-1.2599e-11
-7.32845e-13
-2.40261e-12
-5.08623e-12
-8.11726e-12
4.76338e-13
-4.45242e-13
-2.14419e-12
-4.31101e-12
2.96763e-12
2.41833e-12
7.08407e-13
-6.97725e-13
3.55503e-12
6.35683e-12
7.77152e-12
5.77116e-12
3.42844e-12
6.78053e-12
1.199e-11
1.67485e-11
2.86779e-12
6.24707e-12
1.16911e-11
1.91045e-11
1.79257e-12
4.55411e-12
9.72176e-12
1.75128e-11
7.42725e-13
2.25435e-12
5.74544e-12
1.22668e-11
1.96425e-13
6.99292e-13
2.11876e-12
5.44634e-12
3.4792e-14
1.43248e-13
4.94684e-13
1.44585e-12
3.9705e-15
2.03922e-14
8.29399e-14
2.70559e-13
2.38619e-16
1.66585e-15
8.90692e-15
3.60673e-14
1.10533e-17
7.6951e-17
4.87114e-16
2.4846e-15
1.33059e-18
7.82785e-18
4.10176e-17
1.80046e-16
1.69027e-19
1.12707e-18
6.6846e-18
3.11296e-17
1.77049e-20
1.34911e-19
9.48027e-19
5.01402e-18
1.7873e-21
1.56964e-20
1.28542e-19
7.52515e-19
1.68937e-22
1.79659e-21
1.75558e-20
1.16115e-19
1.36294e-23
1.79716e-22
2.18861e-21
1.73133e-20
8.93151e-25
1.41007e-23
2.24999e-22
2.32178e-21
4.69552e-26
8.0884e-25
1.75138e-23
2.61516e-22
1.94634e-27
3.13772e-26
9.05482e-25
2.2143e-23
6.50261e-29
7.75841e-28
2.36238e-26
1.15352e-24
2.52667e-30
1.65145e-29
1.13693e-28
2.16826e-26
1.5619e-31
3.44251e-31
2.99762e-32
1.77281e-31
1.51294e-33
3.32946e-33
7.97285e-34
3.80975e-30
9.03809e-36
1.88822e-35
1.32481e-37
8.39796e-35
1.52641e-38
3.62486e-38
2.21323e-46
1.30305e-43
-3.06962e-76
0
-2.28116e-69
-4.64292e-63
0
8.27591e-12
3.13997e-11
7.22417e-11
1.98341e-10
3.83051e-10
-8.29899e-11
5.46758e-10
1.77264e-09
3.43071e-09
0.000142777
0.00022936
2.67833e-05
2.37572e-05
6.08062e-05
7.45925e-05
1.91148e-05
1.23815e-05
5.39864e-05
1.73218e-05
1.78766e-07
7.04093e-08
4.46766e-08
8.06415e-08
2.10182e-07
1.89082e-06
1.05117e-05
2.91462e-05
3.42017e-05
2.91312e-06
7.21286e-08
1.16087e-07
1.02e-07
1.19717e-07
1.44147e-07
6.5758e-07
2.09986e-07
1.3437e-07
7.27899e-09
1.16244e-10
-3.97907e-12
3.78077e-12
1.21651e-11
4.01468e-11
8.58628e-11
2.11797e-10
1.13173e-10
5.72489e-11
5.48012e-10
1.77277e-09
0.000315231
0.000314402
1.04203e-05
3.70117e-05
6.5878e-05
6.12873e-05
2.76212e-08
2.98937e-08
5.76092e-08
3.84082e-08
3.00804e-08
2.63375e-08
2.85832e-08
4.5498e-08
8.08278e-08
6.37645e-06
0.000134653
0.00018456
0.000184608
0.000128238
8.53414e-05
6.11191e-05
1.44057e-05
2.58505e-06
1.80066e-06
2.87939e-06
1.13245e-07
1.39801e-09
1.08542e-09
1.17e-09
-2.09458e-11
-1.67291e-12
2.28617e-11
5.56199e-11
9.02939e-11
1.94356e-10
1.01618e-10
4.76659e-11
2.77452e-06
0.000196987
0.000315454
0.000201639
9.92703e-06
4.02106e-05
6.22882e-05
2.96254e-08
1.48346e-08
1.43509e-08
1.61914e-08
2.11572e-08
2.49703e-08
2.70217e-08
2.68105e-08
2.89982e-08
5.30336e-08
1.83167e-05
0.000167938
0.000184659
0.000184498
0.000184596
0.000184671
0.000184599
0.000159017
0.000110352
5.57371e-05
1.84802e-06
7.87254e-09
1.20275e-09
8.84728e-10
1.40175e-09
-3.9534e-11
-1.16849e-11
1.5226e-11
6.54434e-11
1.56367e-10
2.23962e-10
1.09673e-10
4.72712e-11
2.03834e-05
0.000347946
0.000303723
5.361e-07
9.71406e-06
2.93823e-05
7.7625e-06
1.48585e-08
1.40406e-08
1.35416e-08
1.48245e-08
1.96062e-08
4.98991e-08
5.44046e-08
2.71506e-08
2.98047e-08
7.60005e-09
2.62486e-10
2.69682e-05
0.000122124
0.000178903
0.00018428
0.000184596
0.000184735
0.000183818
0.000182901
0.000110858
5.12835e-07
4.47792e-09
8.42658e-10
6.9542e-10
1.48275e-09
-5.32764e-11
-2.29645e-11
2.45293e-12
7.69838e-11
2.1991e-10
2.50661e-10
1.14723e-10
4.71525e-11
2.40314e-05
0.000347942
0.000315154
3.26772e-07
4.76645e-06
4.35047e-06
1.64666e-08
1.40417e-08
1.35011e-08
1.3033e-08
1.39193e-08
5.37259e-08
7.38738e-08
7.38821e-08
7.37007e-08
6.86503e-08
1.26509e-08
2.119e-10
1.73398e-10
1.67003e-10
3.11168e-06
3.48757e-05
0.000101615
0.000174547
0.000182901
0.000181997
6.23293e-05
5.83362e-08
2.59671e-09
1.80084e-10
6.36213e-10
1.61996e-09
-5.99376e-11
-3.11991e-11
-3.26394e-12
8.6259e-11
2.35176e-10
2.50661e-10
1.13584e-10
4.6929e-11
9.45134e-05
0.00034795
0.000269986
3.03039e-07
2.73927e-07
1.35325e-07
1.1284e-07
2.63634e-08
5.03671e-07
1.21349e-08
1.11023e-08
3.04683e-08
7.38759e-08
7.38738e-08
7.38821e-08
7.38634e-08
3.08733e-08
1.73399e-10
1.67034e-10
1.66301e-10
1.65566e-10
1.64482e-10
1.65566e-10
1.28346e-05
0.000135544
8.81823e-05
1.56975e-06
3.22125e-09
1.35769e-10
6.31773e-10
6.34847e-10
1.77721e-09
-6.01905e-11
-3.52878e-11
-7.21326e-12
8.00923e-11
2.31802e-10
2.50306e-10
1.09815e-10
4.67376e-11
0.000270401
0.000347586
0.000130427
2.84429e-07
2.68663e-07
2.35385e-07
4.51728e-07
2.28792e-06
2.89864e-06
1.34608e-06
4.84009e-09
4.2364e-09
1.70518e-08
2.87825e-08
2.87691e-08
2.9248e-08
5.38923e-09
2.59302e-09
4.22714e-10
1.7748e-10
1.64541e-10
1.62853e-10
1.64523e-10
6.35286e-10
1.0548e-08
1.51081e-08
3.47362e-09
9.22889e-10
6.41895e-10
6.34439e-10
6.34847e-10
1.87651e-09
-5.58955e-11
-3.56596e-11
-9.45295e-12
6.81768e-11
1.94035e-10
1.96907e-10
8.39934e-11
4.68544e-11
0.000188073
0.000347217
6.65899e-05
1.20047e-06
5.72788e-07
2.69725e-07
4.1709e-07
2.89864e-06
2.89864e-06
2.89864e-06
1.9507e-07
3.36519e-09
3.04558e-09
3.73348e-10
3.22206e-10
3.22066e-10
3.21618e-10
5.03963e-10
4.74551e-10
3.06666e-10
1.72041e-10
1.62018e-10
1.54412e-10
4.64188e-09
4.88672e-08
4.40672e-08
1.47524e-08
1.11688e-08
7.49877e-10
6.44586e-10
6.46969e-10
1.91619e-09
-4.90243e-11
-3.34136e-11
-1.06873e-11
4.71262e-11
2.15964e-10
2.12376e-10
8.56218e-11
4.67491e-11
1.55333e-05
0.000282743
5.14685e-05
2.09062e-06
4.1627e-06
3.19192e-06
4.33348e-07
1.20826e-06
2.4417e-06
1.75661e-06
2.62632e-07
2.82436e-08
2.68543e-08
1.24483e-08
1.18708e-09
3.21806e-10
3.69934e-10
4.0765e-10
3.82434e-10
2.46891e-10
1.64623e-10
1.586e-10
-2.06592e-10
1.26222e-06
2.47756e-06
1.93993e-06
3.81099e-07
3.89503e-08
8.04954e-10
6.86956e-10
7.01396e-10
1.91471e-09
-4.11658e-11
-2.9698e-11
-1.12257e-11
1.12185e-11
3.47768e-10
5.89883e-10
2.38143e-10
4.61627e-11
-5.01596e-10
1.5533e-05
1.47563e-05
2.87014e-06
4.29523e-06
4.31222e-06
2.97965e-06
2.72236e-07
1.68558e-07
4.31231e-08
4.96043e-08
2.26975e-08
2.72166e-08
2.41451e-08
4.98645e-09
5.00943e-10
7.51465e-10
7.55009e-10
5.53639e-10
2.40167e-10
1.63419e-10
1.62853e-10
6.88893e-07
4.22034e-06
4.22809e-06
4.22834e-06
2.56435e-06
5.84298e-08
8.796e-10
6.96227e-10
7.08496e-10
1.77355e-09
-3.33902e-11
-2.5404e-11
-1.12475e-11
0
5.63558e-10
1.1156e-09
7.55196e-10
5.34846e-11
4.53908e-11
8.81981e-08
3.0388e-07
5.03279e-07
3.45573e-06
4.30507e-06
4.30987e-06
1.87455e-06
7.26443e-09
2.82218e-09
1.66948e-09
2.66094e-09
4.17046e-09
1.93605e-09
1.14348e-09
1.14112e-09
1.12332e-09
9.50021e-10
6.01016e-10
2.3241e-10
1.65554e-10
1.63419e-10
2.34479e-06
4.21736e-06
4.22691e-06
4.22825e-06
3.78185e-06
1.21237e-07
7.94467e-10
5.59792e-10
6.93384e-10
1.56791e-09
-2.62897e-11
-2.10944e-11
-1.08346e-11
-2.2467e-12
5.02767e-10
1.1156e-09
7.24019e-10
8.55786e-11
9.51665e-09
5.36493e-08
2.7253e-07
4.07557e-07
4.30587e-07
2.93186e-06
4.30374e-06
2.12772e-06
7.55504e-09
1.66901e-09
1.3739e-09
1.3317e-09
1.31625e-09
1.31625e-09
1.34731e-09
1.41186e-09
1.31856e-09
1.01098e-09
5.71351e-10
2.20313e-10
1.66593e-10
1.65548e-10
1.00109e-06
4.18278e-06
4.21736e-06
4.25735e-06
2.21948e-06
2.1616e-08
4.0783e-10
3.49404e-10
6.74978e-10
1.42811e-09
-2.00927e-11
-1.70486e-11
-1.00006e-11
-3.63519e-12
2.15326e-10
7.16364e-10
1.24327e-10
5.30971e-11
8.10739e-07
2.50584e-06
1.8454e-06
4.30554e-07
4.32306e-07
4.32233e-07
7.68085e-07
5.69621e-07
1.55711e-07
2.0564e-09
1.44574e-09
1.38856e-09
1.48758e-09
1.6763e-09
1.79256e-09
1.73102e-09
1.445e-09
9.52022e-10
5.04566e-10
2.34222e-10
1.68834e-10
1.66593e-10
1.67684e-10
1.85177e-06
4.22278e-06
4.25228e-06
4.14902e-07
1.12536e-09
2.67622e-10
2.86097e-10
6.73508e-10
1.35278e-09
-1.47908e-11
-1.3341e-11
-8.78091e-12
-4.14172e-12
3.22564e-11
1.28479e-10
2.43681e-12
1.43826e-11
2.4574e-06
2.59421e-06
2.61499e-06
2.59076e-06
1.86077e-06
3.46708e-07
5.03305e-08
3.42326e-08
3.25959e-08
8.71514e-09
1.74524e-09
1.69569e-09
1.85563e-09
1.9033e-09
1.90323e-09
1.81469e-09
1.35583e-09
7.56764e-10
3.83232e-10
2.35742e-10
1.74767e-10
1.67684e-10
1.68281e-10
1.35983e-08
2.76517e-06
8.25267e-07
2.17909e-10
2.21565e-10
2.28832e-10
2.72179e-10
6.93317e-10
1.31272e-09
-1.02424e-11
-9.91594e-12
-7.22751e-12
-3.98568e-12
-2.30411e-28
5.2612e-12
6.23059e-13
1.37047e-12
1.32458e-06
2.62199e-06
2.61988e-06
2.62796e-06
2.63669e-06
2.63525e-06
1.84709e-06
1.33923e-07
4.43818e-09
2.21081e-09
1.89703e-09
1.83907e-09
1.85203e-09
1.85229e-09
1.76641e-09
1.41053e-09
8.63423e-10
4.2751e-10
2.36381e-10
1.87264e-10
1.7797e-10
1.68865e-10
1.73594e-10
3.60777e-10
2.53459e-10
2.16892e-10
2.23584e-10
2.24897e-10
2.38086e-10
2.68865e-10
6.99717e-10
1.28793e-09
-6.22447e-12
-6.63932e-12
-5.34887e-12
-3.29529e-12
8.76222e-31
3.8246e-13
4.22759e-13
-6.94217e-12
5.38742e-09
4.41409e-07
2.62817e-06
2.63916e-06
2.63669e-06
2.63669e-06
2.63525e-06
2.25696e-06
2.31477e-07
4.43675e-09
2.01819e-09
1.57439e-09
1.45312e-09
1.38052e-09
1.17036e-09
7.92026e-10
4.19829e-10
2.19641e-10
1.73235e-10
1.73615e-10
1.73995e-10
1.74443e-10
8.00376e-10
5.21368e-10
2.6786e-10
2.3255e-10
2.28518e-10
2.37389e-10
2.39942e-10
2.66067e-10
6.98045e-10
1.27006e-09
-2.41886e-12
-3.31727e-12
-3.08928e-12
-2.10338e-12
-5.87617e-13
1.36184e-13
2.65522e-13
2.41577e-13
-3.43428e-11
1.54393e-09
3.00288e-07
6.72524e-07
2.41326e-06
2.63525e-06
2.62103e-06
2.28423e-06
2.11802e-07
6.02083e-09
1.7739e-09
1.13909e-09
9.88897e-10
8.46134e-10
6.05227e-10
3.49692e-10
1.87502e-10
1.70036e-10
1.71635e-10
1.73231e-10
1.77386e-10
1.04622e-09
9.71101e-09
6.98696e-09
1.47956e-09
3.05534e-10
2.52878e-10
2.41922e-10
2.40108e-10
2.65767e-10
6.8547e-10
1.25484e-09
2.68922e-12
-2.80391e-29
-4.05277e-13
-4.17831e-13
-6.51731e-15
6.7716e-13
7.39127e-13
3.39824e-13
-6.5309e-12
1.05893e-10
8.27184e-10
1.63761e-09
1.22216e-07
7.46968e-07
9.93145e-07
6.1817e-07
1.44051e-07
3.76995e-09
1.28723e-09
8.96934e-10
7.7896e-10
5.58677e-10
2.90475e-10
1.74264e-10
1.70036e-10
1.70034e-10
1.69911e-10
1.76939e-10
1.18101e-09
1.30086e-08
2.64871e-08
1.90513e-08
4.65753e-09
5.00757e-10
2.90674e-10
2.51777e-10
2.4051e-10
2.63727e-10
6.56774e-10
1.23775e-09
1.59261e-11
1.29719e-11
8.7533e-12
5.48569e-12
4.05413e-12
3.52601e-12
3.04849e-12
3.21052e-12
3.57576e-12
1.1847e-11
4.90401e-11
1.32444e-10
2.27207e-10
9.06077e-10
1.03542e-09
7.50584e-10
1.19235e-08
9.04774e-09
3.94029e-09
1.50384e-09
6.78261e-10
3.09461e-10
1.88013e-10
1.73683e-10
1.70911e-10
1.70034e-10
1.21778e-09
3.57516e-09
1.91789e-08
2.65391e-08
2.65595e-08
2.64904e-08
1.30281e-08
8.19838e-10
2.77133e-10
2.60414e-10
2.44842e-10
2.60085e-10
6.11754e-10
1.21282e-09
2.83467e-11
3.71356e-11
3.48475e-11
2.97539e-11
2.38688e-11
1.85472e-11
1.41928e-11
1.28631e-11
1.4011e-11
1.80223e-11
2.92466e-11
7.08731e-11
9.44266e-11
9.07145e-11
1.90992e-10
2.22556e-10
2.31067e-10
6.10208e-10
5.84432e-10
4.45089e-10
2.88836e-10
2.31939e-10
2.00157e-10
2.01722e-10
2.37806e-10
4.49517e-10
1.248e-08
2.64003e-08
2.65391e-08
2.65595e-08
2.65595e-08
2.65595e-08
1.5702e-08
1.15376e-09
2.7347e-10
2.63973e-10
2.51208e-10
2.57886e-10
5.55675e-10
1.16963e-09
2.8316e-11
4.40115e-11
6.10695e-11
7.71334e-11
8.05876e-11
7.49793e-11
6.50349e-11
5.69239e-11
5.01798e-11
5.03696e-11
5.65967e-11
7.44616e-11
8.52613e-11
1.08297e-10
1.5776e-10
2.04613e-10
2.22956e-10
2.34345e-10
2.59988e-10
2.75808e-10
2.75185e-10
2.62259e-10
2.13977e-10
1.91135e-10
1.94567e-10
8.55315e-09
2.62195e-08
2.64876e-08
2.65312e-08
2.65453e-08
2.65595e-08
2.45847e-08
6.29564e-09
2.98789e-10
2.84826e-10
2.70324e-10
2.53916e-10
2.56913e-10
4.88549e-10
1.08447e-09
2.34694e-11
4.01659e-11
6.08067e-11
9.0857e-11
1.28624e-10
1.73491e-10
2.0457e-10
2.00204e-10
1.92223e-10
1.88672e-10
1.86347e-10
1.88653e-10
1.96974e-10
2.14792e-10
2.42207e-10
2.73931e-10
3.10578e-10
3.51754e-10
3.78108e-10
3.77253e-10
3.55546e-10
3.01597e-10
2.24536e-10
1.97357e-10
1.91064e-10
2.72871e-09
1.79838e-08
2.62657e-08
2.64881e-08
2.65317e-08
2.47793e-08
7.62693e-09
1.86748e-10
2.02447e-10
2.6391e-10
2.63818e-10
2.54195e-10
2.56909e-10
4.08984e-10
9.21967e-10
1.28159e-11
2.65415e-11
4.82572e-11
8.03206e-11
1.24669e-10
1.8409e-10
2.63048e-10
3.50262e-10
4.18423e-10
4.38594e-10
4.392e-10
4.43962e-10
4.53492e-10
4.64363e-10
4.75906e-10
4.88209e-10
4.99303e-10
4.98961e-10
4.85047e-10
4.36268e-10
3.55308e-10
3.02596e-10
2.90838e-10
2.72476e-10
2.01514e-10
9.46409e-11
6.41623e-11
6.13369e-09
2.29824e-08
1.60657e-08
2.334e-09
5.22001e-11
8.94157e-11
1.41999e-10
1.66937e-10
1.94395e-10
2.22161e-10
2.49261e-10
3.32982e-10
6.54812e-10
4.01616e-12
1.02138e-11
2.31293e-11
4.68113e-11
8.69586e-11
1.45832e-10
2.2599e-10
3.23937e-10
4.09304e-10
4.78775e-10
5.27072e-10
5.35009e-10
5.35825e-10
5.36118e-10
5.36118e-10
5.36118e-10
5.25185e-10
4.84135e-10
4.0513e-10
3.41752e-10
3.2445e-10
3.21678e-10
3.17771e-10
3.00469e-10
2.42776e-10
1.35091e-10
5.89925e-11
5.25276e-11
5.22511e-11
5.22063e-11
5.22001e-11
5.22001e-11
5.44433e-11
6.43838e-11
8.77645e-11
1.31361e-10
1.80179e-10
2.25051e-10
3.53904e-10
6.6709e-10
8.22833e-13
2.31207e-12
5.89995e-12
1.39175e-11
3.04931e-11
6.043e-11
1.07752e-10
1.73214e-10
2.49088e-10
3.25602e-10
3.93866e-10
4.35436e-10
4.39551e-10
4.35194e-10
4.21963e-10
3.94731e-10
3.51837e-10
3.00454e-10
2.52575e-10
2.12932e-10
1.85477e-10
1.66284e-10
1.47914e-10
1.27619e-10
1.06077e-10
8.50678e-11
6.58605e-11
5.38484e-11
5.22539e-11
5.22129e-11
5.22063e-11
5.23174e-11
5.33969e-11
5.78786e-11
7.10651e-11
1.09225e-10
1.69372e-10
1.88309e-10
3.30928e-10
7.32877e-10
1.30816e-13
4.00164e-13
1.0234e-12
2.35456e-12
5.07532e-12
1.04177e-11
1.99674e-11
3.52744e-11
5.77336e-11
8.6727e-11
1.18282e-10
1.47398e-10
1.50418e-10
1.46005e-10
1.3535e-10
1.22005e-10
1.10547e-10
1.01196e-10
9.27034e-11
8.40274e-11
7.57212e-11
6.6603e-11
5.67643e-11
5.55938e-11
5.70326e-11
5.78765e-11
5.73931e-11
5.6177e-11
5.50951e-11
5.43378e-11
5.37326e-11
5.37011e-11
5.46944e-11
5.97289e-11
7.42498e-11
1.09959e-10
1.41121e-10
1.35955e-10
1.52098e-10
7.35642e-10
1.20563e-14
4.6511e-14
1.36512e-13
3.273e-13
6.76209e-13
1.26112e-12
2.18845e-12
3.60284e-12
5.67888e-12
8.47988e-12
1.17179e-11
1.45706e-11
1.62276e-11
1.79532e-11
1.85694e-11
1.81949e-11
1.72732e-11
1.51309e-11
1.51504e-11
1.5778e-11
1.75302e-11
2.15108e-11
2.50563e-11
3.33382e-11
4.75756e-11
5.64764e-11
5.80832e-11
6.02516e-11
6.65973e-11
7.02042e-11
6.85466e-11
6.67502e-11
7.49651e-11
9.04643e-11
1.19416e-10
1.30489e-10
1.31806e-10
1.32784e-10
7.80678e-10
8.15819e-10
8.40572e-16
3.58754e-15
1.22972e-14
3.42465e-14
7.94682e-14
1.58514e-13
2.80276e-13
4.49679e-13
6.68946e-13
9.24945e-13
1.18522e-12
1.47301e-12
1.61873e-12
1.58992e-12
1.45771e-12
1.46141e-12
1.57461e-12
2.33549e-12
6.6762e-12
1.63469e-11
1.88443e-11
2.38858e-11
2.9826e-11
1.46579e-11
4.06999e-11
5.62977e-11
1.68545e-10
2.65207e-10
2.85504e-10
2.91583e-10
3.65877e-10
6.3148e-10
6.93141e-10
6.79816e-10
4.56037e-10
1.44994e-10
1.32784e-10
2.15792e-08
3.59797e-09
3.76397e-10
1.41553e-16
5.58969e-16
1.79691e-15
4.87107e-15
1.13455e-14
2.3005e-14
4.11149e-14
6.53052e-14
9.27508e-14
1.19088e-13
1.39723e-13
1.52801e-13
1.55666e-13
1.61983e-13
1.80234e-13
5.12422e-13
1.46218e-12
5.05237e-12
2.66564e-11
3.22748e-12
1.087e-10
1.07296e-10
-9.78873e-10
-2.12784e-10
9.86457e-11
1.81878e-10
2.00918e-10
2.40416e-10
2.82178e-10
2.94812e-10
3.11127e-10
3.17941e-10
3.2034e-10
3.45908e-10
2.27165e-10
1.47342e-10
5.46673e-09
2.63508e-08
1.82555e-08
1.23972e-09
2.53349e-17
1.04932e-16
3.36372e-16
8.75283e-16
1.90682e-15
3.56221e-15
5.82429e-15
8.50817e-15
1.13891e-14
1.44113e-14
1.77852e-14
2.18333e-14
2.48789e-14
3.33483e-14
2.63893e-13
2.55769e-12
4.41499e-12
6.10323e-11
6.8414e-10
-2.44169e-09
-4.37459e-10
1.57645e-09
1.03567e-08
1.76124e-08
9.91875e-09
2.54792e-06
6.62171e-06
3.72099e-06
3.46204e-07
3.19259e-10
3.19827e-10
2.5604e-10
1.7443e-10
1.14114e-10
1.50136e-10
1.49886e-10
1.54592e-10
2.62832e-08
4.76442e-08
4.59422e-09
4.11516e-18
1.75187e-17
5.54624e-17
1.39228e-16
2.90042e-16
5.23719e-16
8.60083e-16
1.34956e-15
2.09783e-15
3.25679e-15
5.13369e-15
6.44081e-15
3.6177e-15
3.38857e-14
7.47862e-12
-1.29091e-10
2.70673e-10
3.42945e-09
2.2223e-08
6.53417e-08
2.98422e-07
8.80115e-08
2.13114e-05
6.71195e-05
3.97376e-05
0.000118598
0.00030811
0.000214401
1.32591e-05
1.59716e-05
0.000114691
0.000119153
8.96213e-06
-5.36188e-09
7.88574e-11
-2.34006e-10
3.1468e-10
2.09304e-08
4.79044e-08
1.15912e-08
6.98536e-19
3.05812e-18
9.60002e-18
2.38757e-17
5.12866e-17
1.03234e-16
2.06147e-16
4.13304e-16
8.10893e-16
1.5759e-15
2.3068e-15
2.09212e-15
1.19725e-15
-1.93212e-11
3.00707e-11
3.10319e-09
1.7871e-08
8.74461e-08
1.60913e-05
6.31296e-05
0.000127695
6.58122e-05
0.000209538
0.000304409
0.000307089
0.00030811
0.00030811
0.00030811
0.000307273
0.000250208
0.000351246
0.00036819
0.000374657
0.000233071
1.57246e-07
8.78413e-09
1.51907e-09
2.17937e-08
4.76442e-08
1.76096e-08
1.20586e-19
5.58749e-19
1.83038e-18
4.99179e-18
1.2834e-17
3.32389e-17
8.58311e-17
2.11233e-16
5.02902e-16
9.98395e-16
1.27389e-15
-1.18339e-14
-2.52697e-11
1.87937e-10
6.45748e-09
7.26128e-08
6.61888e-06
6.04999e-05
0.00021027
0.000208206
0.000208206
0.000206114
0.000131674
0.000109453
0.000105382
6.1108e-05
2.61867e-05
3.46435e-05
7.6004e-05
0.000191083
0.000136341
0.000141363
0.000408302
0.000419728
0.000299489
1.76531e-05
5.72859e-08
2.15285e-08
4.19493e-08
1.62633e-08
2.01976e-20
1.04275e-19
3.89238e-19
1.30238e-18
4.37297e-18
1.4714e-17
4.67881e-17
1.45735e-16
4.13153e-16
7.77103e-16
-3.888e-15
-4.66592e-12
7.13988e-11
3.33983e-09
1.57312e-07
4.25352e-05
0.000207404
0.000212335
0.000212335
0.0001954
0.000102296
1.36687e-05
6.11311e-06
1.83836e-06
8.20513e-07
6.61691e-07
4.19484e-07
2.57915e-07
3.21575e-07
5.40952e-06
7.33923e-07
9.89348e-07
0.000171359
0.000433355
0.000443502
5.05525e-05
9.8833e-08
1.24414e-08
1.11539e-08
1.08615e-08
3.11991e-21
1.90044e-20
8.75237e-20
3.81107e-19
1.68539e-18
7.24225e-18
3.24583e-17
1.37518e-16
1.50882e-14
4.42539e-14
3.93337e-13
3.08741e-11
1.9447e-09
3.11343e-07
0.000105543
0.000261579
0.0002613
0.000169128
4.3599e-05
1.61488e-05
1.63059e-05
9.62551e-05
0.000195484
0.000158978
3.89765e-05
4.17031e-07
2.53664e-07
2.27158e-07
2.25906e-07
2.42063e-07
2.62625e-07
3.11211e-07
1.03434e-06
0.00040787
0.000445007
0.000335968
1.0892e-05
7.02004e-09
3.31414e-09
4.14606e-09
4.12808e-22
3.13517e-21
1.87594e-20
1.08081e-19
6.42307e-19
4.5615e-18
5.18869e-17
4.5965e-15
2.02801e-13
2.55675e-12
1.6867e-10
2.69683e-09
1.38189e-06
0.000123506
0.000268605
0.00026828
8.30585e-05
3.18924e-06
3.42528e-06
2.27834e-05
0.000270093
0.000472649
0.000472649
0.000472673
0.000242674
6.2926e-07
2.22223e-07
2.21694e-07
2.21994e-07
2.24243e-07
2.2705e-07
2.37124e-07
2.9548e-07
0.000176197
0.000449971
0.000455143
5.66251e-05
8.98595e-09
1.50449e-09
1.17569e-09
4.24645e-23
4.24867e-22
3.40378e-21
2.79357e-20
3.60628e-19
1.54334e-17
2.31208e-15
1.17462e-13
-1.8719e-13
5.56155e-12
4.50112e-10
2.62631e-08
7.89887e-05
0.000269226
0.000269554
6.2513e-05
2.83063e-06
2.93161e-06
1.99614e-06
8.99859e-05
0.000471144
0.00047254
0.00047271
0.000472649
0.000390134
2.22931e-07
2.21914e-07
2.21694e-07
2.21811e-07
2.22023e-07
2.22853e-07
2.27671e-07
2.36495e-07
7.09569e-06
0.000399681
0.000455143
0.000132274
2.85034e-08
3.04817e-09
4.06598e-10
3.02237e-24
4.22282e-23
4.97237e-22
1.11643e-20
1.12247e-18
1.6786e-16
1.68116e-14
2.75907e-13
1.36358e-12
5.05769e-11
4.86889e-09
5.75168e-06
0.000194993
0.000269908
0.000123083
2.68312e-06
2.73271e-06
2.58527e-06
6.8545e-07
8.48534e-06
0.000254777
0.000471244
0.000472613
0.000471235
0.000472337
9.67256e-05
2.21801e-07
2.21802e-07
2.21795e-07
2.21811e-07
2.22024e-07
2.22839e-07
2.31824e-07
4.65174e-07
0.000438947
0.000455143
0.00013725
7.56434e-10
4.67537e-10
9.76202e-11
1.23974e-25
2.72127e-24
6.98919e-23
7.75893e-21
1.52005e-18
3.23185e-16
1.84777e-14
1.23885e-13
4.66258e-12
3.00668e-10
1.35103e-08
1.5499e-05
0.000210034
0.000266185
1.52799e-05
2.38693e-06
5.13274e-06
8.79938e-06
4.67207e-07
2.48965e-07
3.55922e-07
0.000101209
0.000461737
0.000472308
0.000465729
0.000412171
5.82975e-06
2.21798e-07
2.21811e-07
2.22024e-07
2.22839e-07
2.31796e-07
4.74154e-07
0.000291647
0.000449557
0.000452749
7.10044e-05
1.13771e-10
2.06926e-11
4.17249e-12
1.97467e-27
5.00559e-27
8.97336e-25
1.04147e-21
5.37755e-19
1.52854e-16
1.06352e-14
1.24271e-13
6.65916e-12
2.99607e-10
1.4651e-08
1.78955e-05
0.000201169
0.000245288
2.38693e-06
1.71009e-06
1.18962e-05
1.51207e-05
2.48965e-07
1.63678e-07
5.69079e-08
1.01625e-07
7.63511e-07
0.000331909
0.000461368
0.000452196
0.000442264
0.000113492
1.50951e-05
0.000140776
0.000255025
0.000301881
0.000400313
0.000445456
0.000448758
0.000377033
1.63965e-10
3.01046e-11
2.78012e-12
-2.50471e-18
5.72092e-32
3.32348e-29
1.63168e-26
6.70477e-24
2.28666e-21
6.82649e-19
3.34696e-16
2.5468e-14
2.14304e-12
1.11711e-10
7.12711e-09
1.69333e-05
0.000206933
0.000238251
4.20102e-06
1.37497e-06
1.53852e-05
1.53852e-05
1.08786e-05
5.79136e-08
3.52114e-08
-2.65101e-10
3.85296e-08
3.63491e-07
7.00291e-05
0.000441103
0.000440822
0.000437546
0.00043532
0.000428978
0.000419633
0.000422337
0.0004249
0.000434808
0.000330456
2.31983e-05
2.65248e-07
7.16706e-10
5.59304e-06
2.67251e-05
2.46159e-40
1.05073e-36
1.34746e-33
1.51197e-30
1.44188e-27
1.18116e-24
8.49191e-22
5.67306e-19
1.22153e-16
1.1618e-12
4.19106e-10
5.73366e-06
0.000179078
0.000229283
3.30308e-05
6.59812e-09
1.05943e-05
1.53852e-05
1.52827e-05
4.71744e-06
3.67222e-09
2.3676e-10
-2.2759e-09
1.44212e-08
2.54975e-07
1.18974e-05
0.000322429
0.000437106
0.000437551
0.000433838
0.000248532
0.000414301
0.000279183
9.52683e-05
1.90166e-05
2.22979e-06
1.43216e-06
7.92681e-06
9.52556e-06
8.7097e-06
3.43537e-49
1.34267e-43
2.24884e-41
-9.98747e-41
-6.57225e-38
-3.54326e-35
-1.57211e-32
-8.47398e-30
-6.11346e-27
4.40922e-28
2.25676e-12
8.47408e-10
3.91879e-05
0.000186297
2.54845e-05
-1.83755e-24
5.4966e-08
4.83797e-06
4.51058e-06
1.69614e-07
1.34543e-06
2.44747e-10
-1.15508e-11
-4.62393e-11
-8.53538e-09
6.80629e-07
4.20719e-05
0.00010599
0.000116297
6.33208e-05
4.82512e-05
3.93864e-05
1.95541e-05
7.14507e-06
4.68239e-06
3.49861e-06
5.16524e-06
7.55593e-06
4.14552e-06
0
)
;

boundaryField
{
    leftWall
    {
        type            zeroGradient;
    }
    rightWall
    {
        type            zeroGradient;
    }
    lowerWall
    {
        type            zeroGradient;
    }
    atmosphere
    {
        type            inletOutlet;
        inletValue      uniform 0;
        value           nonuniform List<scalar> 
45
(
0
0
0
0
0
0
0
0
0
0
0
0
0
0
4.40922e-28
2.25676e-12
8.47408e-10
3.91879e-05
0.000186297
2.54845e-05
0
0
0
0
0
0
0
0
0
0
6.80629e-07
4.20719e-05
0.00010599
0.000116297
6.33208e-05
4.82512e-05
3.93864e-05
1.95541e-05
7.14507e-06
4.68239e-06
3.49861e-06
5.16524e-06
7.55593e-06
4.14552e-06
0
)
;
    }
    defaultFaces
    {
        type            empty;
    }
    procBoundary3to1
    {
        type            processor;
        value           nonuniform List<scalar> 
45
(
-2.30163e-10
-1.14436e-10
-3.34646e-11
-8.97369e-13
0
8.51505e-12
3.06221e-11
2.15189e-10
6.76353e-10
1.21677e-09
3.23585e-10
-2.34697e-08
3.13797e-08
8.58482e-08
4.67301e-08
2.7986e-05
6.60186e-05
0.000102421
3.01497e-05
2.41503e-05
7.42511e-05
9.64511e-05
4.48238e-05
0.000339099
0.00065542
0.000294213
9.08014e-05
1.83838e-05
1.87994e-07
1.311e-07
1.09893e-07
1.19751e-11
1.32831e-11
2.68169e-11
2.56959e-10
1.95837e-09
5.67514e-09
7.89563e-09
1.36351e-08
2.19292e-08
2.38167e-08
1.88675e-07
2.88768e-07
4.80726e-08
1.33794e-25
)
;
    }
    procBoundary3to2
    {
        type            processor;
        value           nonuniform List<scalar> 
43
(
-2.88841e-10
-2.08496e-10
-1.3501e-10
-8.0887e-11
-4.59414e-11
-2.5273e-11
-1.37338e-11
-7.49985e-12
-4.16431e-12
-2.35573e-12
-1.34007e-12
-7.37678e-13
-3.51871e-13
-7.39003e-14
2.67814e-13
5.58954e-13
5.96067e-13
5.73888e-13
4.75221e-13
2.97147e-13
1.2767e-13
3.59511e-14
6.47451e-15
6.85682e-16
3.58203e-17
1.21762e-18
1.27125e-19
1.78105e-20
2.18665e-21
2.45149e-22
2.47811e-23
2.17878e-24
1.66208e-25
1.07716e-26
5.65367e-28
2.27633e-29
6.68028e-31
1.37703e-32
3.09434e-34
6.49195e-36
3.06081e-38
9.38186e-42
-1.17872e-73
)
;
    }
}


// ************************************************************************* //
