/*--------------------------------*- C++ -*----------------------------------*\
| =========                 |                                                 |
| \\      /  F ield         | OpenFOAM: The Open Source CFD Toolbox           |
|  \\    /   O peration     | Version:  5.0                                   |
|   \\  /    A nd           | Web:      www.OpenFOAM.org                      |
|    \\/     M anipulation  |                                                 |
\*---------------------------------------------------------------------------*/
FoamFile
{
    version     2.0;
    format      ascii;
    class       volScalarField;
    location    "0.85";
    object      p;
}
// * * * * * * * * * * * * * * * * * * * * * * * * * * * * * * * * * * * * * //

dimensions      [1 -1 -2 0 0 0 0];

internalField   nonuniform List<scalar> 
1935
(
-2.78801
-2.8317
-2.87653
-2.9227
-2.97028
-3.01922
-3.06943
-3.12077
-3.17314
-3.22644
-3.28063
-3.3357
-3.39169
-3.44863
-3.5066
-3.56567
-3.62592
-3.68744
-3.75032
-3.81463
-3.88045
-3.94782
-4.01677
-4.08732
-4.15947
-4.2332
-4.30848
-4.38528
-4.46354
-4.54321
-4.62424
-4.70655
-4.79011
-4.87485
-4.96075
-5.04777
-5.13587
-5.22505
-5.31525
-5.40644
-5.49857
-5.59164
-5.68526
-2.81495
-2.84183
-2.86907
-2.89644
-2.85537
-2.87875
-2.90224
-2.92566
-2.8972
-2.91736
-2.93737
-2.95708
-2.94069
-2.958
-2.97493
-2.99132
-2.98588
-3.00071
-3.015
-3.02855
-3.03272
-3.04538
-3.0574
-3.06859
-3.08106
-3.09184
-3.10192
-3.11112
-3.13076
-3.13989
-3.14831
-3.15585
-3.18166
-3.18934
-3.19631
-3.20245
-3.23362
-3.24
-3.2457
-3.25064
-3.28657
-3.29176
-3.29632
-3.30022
-3.34049
-3.34459
-3.34813
-3.35109
-3.39544
-3.39854
-3.40115
-3.40327
-3.45145
-3.45367
-3.45544
-3.45679
-3.50859
-3.51003
-3.51105
-3.5117
-3.56693
-3.56768
-3.56803
-3.56806
-3.62654
-3.62668
-3.62644
-3.62589
-3.68749
-3.6871
-3.68633
-3.68527
-3.74986
-3.74899
-3.74776
-3.74623
-3.81373
-3.81244
-3.81079
-3.80886
-3.87916
-3.8775
-3.8755
-3.87322
-3.94619
-3.94422
-3.94192
-3.93935
-4.01487
-4.01265
-4.0101
-4.00729
-4.0852
-4.08278
-4.08005
-4.07707
-4.15719
-4.15463
-4.15177
-4.14867
-4.23081
-4.22817
-4.22523
-4.22207
-4.30604
-4.30336
-4.30041
-4.29724
-4.38284
-4.38017
-4.37725
-4.37411
-4.46114
-4.45853
-4.45568
-4.45263
-4.54089
-4.53837
-4.53563
-4.53271
-4.62202
-4.61963
-4.61703
-4.61426
-4.70447
-4.70223
-4.6998
-4.6972
-4.78818
-4.78611
-4.78387
-4.78147
-4.87309
-4.87121
-4.86917
-4.86698
-4.95917
-4.95748
-4.95565
-4.9537
-5.04637
-5.04488
-5.04328
-5.04157
-5.13466
-5.13338
-5.13202
-5.13057
-5.22403
-5.22296
-5.22183
-5.22065
-5.31443
-5.31358
-5.31269
-5.31178
-5.40582
-5.40518
-5.40454
-5.40389
-5.49814
-5.49772
-5.4973
-5.4969
-5.59138
-5.59114
-5.59092
-5.59073
-5.68516
-5.68506
-5.68498
-5.68492
-2.92685
-2.96236
-2.99676
-3.028
-3.05999
-3.07325
-3.05471
-3.04433
-3.03216
-3.02127
-3.01717
-2.98919
-2.90264
-2.80086
-2.71553
-2.6284
-2.52738
-2.44804
-2.37966
-2.29213
-2.19321
-2.10488
-2.02233
-1.94422
-1.87518
-1.81455
-1.76214
-1.72366
-1.70078
-1.69251
-1.69789
-1.71995
-1.76086
-1.8168
-1.88107
-1.94155
-1.98397
-1.99386
-1.96118
-1.90804
-2.95065
-2.9775
-3.00313
-3.0269
-3.04918
-3.06392
-3.0663
-3.06438
-3.05749
-3.05709
-3.04876
-2.99595
-2.91473
-2.83308
-2.75473
-2.67265
-2.58886
-2.51836
-2.45293
-2.3758
-2.29074
-2.21056
-2.13593
-2.06769
-2.0089
-1.95727
-1.9105
-1.87368
-1.849
-1.8347
-1.83075
-1.84044
-1.86712
-1.90824
-1.95427
-1.99125
-2.01098
-2.0069
-1.97032
-1.91843
-2.97755
-2.99844
-3.01759
-3.03439
-3.0485
-3.05732
-3.05832
-3.05356
-3.04998
-3.05367
-3.03647
-2.97636
-2.90879
-2.85053
-2.78877
-2.72059
-2.65077
-2.58647
-2.52317
-2.45484
-2.38308
-2.31328
-2.24752
-2.18785
-2.13698
-2.09351
-2.05511
-2.02175
-1.99683
-1.97836
-1.96662
-1.96376
-1.97439
-1.99987
-2.02965
-2.04778
-2.05023
-2.03534
-1.99614
-1.94661
-3.00789
-3.02415
-3.03856
-3.05058
-3.05965
-3.06422
-3.06251
-3.05624
-3.05725
-3.05937
-3.03454
-2.97943
-2.92659
-2.88229
-2.83174
-2.77452
-2.7155
-2.65753
-2.59922
-2.53864
-2.47662
-2.41559
-2.35724
-2.30338
-2.25626
-2.21659
-2.18266
-2.15233
-2.12792
-2.10897
-2.09355
-2.08308
-2.08087
-2.08911
-2.09942
-2.10235
-2.09611
-2.07502
-2.03489
-1.98838
-3.04186
-3.05441
-3.06511
-3.07355
-3.07926
-3.08121
-3.07819
-3.07274
-3.07688
-3.07734
-3.0481
-2.99953
-2.95727
-2.92178
-2.87947
-2.83143
-2.78121
-2.73029
-2.6784
-2.62501
-2.57072
-2.51686
-2.46464
-2.41531
-2.37019
-2.32995
-2.29456
-2.26556
-2.24193
-2.22252
-2.20586
-2.18998
-2.17862
-2.17361
-2.16724
-2.15945
-2.14816
-2.12368
-2.08375
-2.04027
-3.07925
-3.08891
-3.09675
-3.10251
-3.10578
-3.10571
-3.10142
-3.09744
-3.1012
-3.10111
-3.07315
-3.03126
-2.99676
-2.96701
-2.93138
-2.89112
-2.84841
-2.8042
-2.75866
-2.71178
-2.66402
-2.61626
-2.56937
-2.5242
-2.48157
-2.44195
-2.4055
-2.37308
-2.34601
-2.32475
-2.30756
-2.29036
-2.27167
-2.25325
-2.23729
-2.22439
-2.2077
-2.18018
-2.14058
-2.09961
-3.11966
-3.12711
-3.13286
-3.13674
-3.13838
-3.13688
-3.13139
-3.12899
-3.13258
-3.13118
-3.10765
-3.07291
-3.0446
-3.01834
-2.98786
-2.95381
-2.91732
-2.87897
-2.83909
-2.79784
-2.75561
-2.71303
-2.67076
-2.6294
-2.58951
-2.55149
-2.51563
-2.48244
-2.4526
-2.4263
-2.40327
-2.38266
-2.36074
-2.33586
-2.31482
-2.29639
-2.27383
-2.24315
-2.2034
-2.16411
-3.16269
-3.16847
-3.17276
-3.17546
-3.17632
-3.17467
-3.16975
-3.16713
-3.17304
-3.1701
-3.15108
-3.12112
-3.09741
-3.0741
-3.04774
-3.01868
-2.98735
-2.954
-2.91893
-2.88239
-2.84475
-2.80649
-2.76811
-2.73008
-2.69278
-2.65655
-2.62163
-2.58835
-2.55702
-2.52774
-2.50037
-2.47434
-2.44806
-2.42195
-2.39718
-2.37238
-2.34457
-2.31076
-2.27019
-2.23162
-3.20792
-3.21244
-3.21572
-3.21773
-3.21837
-3.21738
-3.2143
-3.21134
-3.21622
-3.21592
-3.2007
-3.17478
-3.15356
-3.13271
-3.10966
-3.08458
-3.05749
-3.02837
-2.99735
-2.96472
-2.93085
-2.89612
-2.86095
-2.82569
-2.79066
-2.75613
-2.72226
-2.68925
-2.65723
-2.62626
-2.59622
-2.56685
-2.53765
-2.50858
-2.47966
-2.45
-2.4179
-2.38101
-2.33893
-2.30019
-3.25498
-3.25852
-3.26106
-3.26263
-3.26321
-3.2628
-3.26132
-3.25954
-3.26039
-3.26148
-3.24981
-3.22979
-3.21098
-3.19244
-3.17232
-3.15044
-3.12681
-3.1012
-3.0736
-3.04426
-3.0135
-2.98165
-2.94906
-2.91603
-2.88284
-2.84974
-2.81684
-2.78425
-2.75202
-2.72014
-2.68853
-2.65702
-2.62538
-2.59341
-2.56099
-2.52754
-2.49182
-2.4519
-2.4078
-2.36819
-3.3036
-3.30634
-3.30827
-3.30947
-3.30995
-3.30976
-3.30893
-3.30776
-3.30698
-3.30533
-3.29608
-3.28197
-3.26714
-3.25157
-3.2344
-3.21546
-3.1947
-3.172
-3.14728
-3.12072
-3.09254
-3.06304
-3.03249
-3.00118
-2.96939
-2.93735
-2.90519
-2.87297
-2.8407
-2.80834
-2.77578
-2.74283
-2.70933
-2.67511
-2.6399
-2.60336
-2.5646
-2.52183
-2.47541
-2.43444
-3.35364
-3.35566
-3.35706
-3.35789
-3.35819
-3.35797
-3.35725
-3.35606
-3.35437
-3.35122
-3.34405
-3.33396
-3.3225
-3.30974
-3.29531
-3.27905
-3.2608
-3.24055
-3.21827
-3.19404
-3.16801
-3.14043
-3.11152
-3.08153
-3.05076
-3.01944
-2.98772
-2.95568
-2.92333
-2.8906
-2.85739
-2.82343
-2.78857
-2.75264
-2.71536
-2.67641
-2.63515
-2.58983
-2.54098
-2.49832
-3.40505
-3.40642
-3.4073
-3.40775
-3.40779
-3.40743
-3.40666
-3.40538
-3.40338
-3.40007
-3.39448
-3.38683
-3.37768
-3.36711
-3.35496
-3.34094
-3.32489
-3.30677
-3.28658
-3.26433
-3.24014
-3.21417
-3.1866
-3.15766
-3.12765
-3.0968
-3.0653
-3.03325
-3.00069
-2.96756
-2.93376
-2.89908
-2.86321
-2.82598
-2.78712
-2.74643
-2.70318
-2.65561
-2.60432
-2.55977
-3.45786
-3.45861
-3.45898
-3.459
-3.45873
-3.45816
-3.45725
-3.4559
-3.45389
-3.45088
-3.44637
-3.4403
-3.43282
-3.42391
-3.41345
-3.40124
-3.38708
-3.37083
-3.35245
-3.33192
-3.30933
-3.28477
-3.25837
-3.23034
-3.20095
-3.17045
-3.13904
-3.10688
-3.07402
-3.04044
-3.00606
-2.97073
-2.93409
-2.89587
-2.85586
-2.81386
-2.76904
-2.7195
-2.66578
-2.61921
-3.51212
-3.51227
-3.51211
-3.5117
-3.51105
-3.51019
-3.50908
-3.50761
-3.50565
-3.50294
-3.49914
-3.49416
-3.48792
-3.48031
-3.47121
-3.46043
-3.44781
-3.43315
-3.41634
-3.39734
-3.37618
-3.3529
-3.32758
-3.30041
-3.27162
-3.24146
-3.21015
-3.17787
-3.14471
-3.11069
-3.07576
-3.03978
-3.00248
-2.96351
-2.92268
-2.87967
-2.83357
-2.78227
-2.72613
-2.67744
-3.56786
-3.56744
-3.56677
-3.56588
-3.56483
-3.56363
-3.56224
-3.5606
-3.55859
-3.55605
-3.55272
-3.54845
-3.54311
-3.53653
-3.52855
-3.51896
-3.50763
-3.49431
-3.47887
-3.46124
-3.4414
-3.41934
-3.39508
-3.36878
-3.34065
-3.31092
-3.27981
-3.2475
-3.21414
-3.17978
-3.14438
-3.10784
-3.06995
-3.0304
-2.98891
-2.94509
-2.8979
-2.84497
-2.78641
-2.73556
-3.62513
-3.62417
-3.62299
-3.62164
-3.62016
-3.61857
-3.61686
-3.61499
-3.61285
-3.61032
-3.60725
-3.60345
-3.59874
-3.59293
-3.58586
-3.57732
-3.56708
-3.55495
-3.54076
-3.52441
-3.50583
-3.48496
-3.46179
-3.43643
-3.40906
-3.37989
-3.34913
-3.31698
-3.28359
-3.24904
-3.21333
-3.17639
-3.13803
-3.098
-3.05596
-3.01143
-2.96328
-2.90878
-2.84781
-2.7948
-3.68399
-3.68252
-3.68086
-3.67904
-3.67712
-3.67514
-3.67308
-3.67093
-3.66861
-3.66602
-3.66303
-3.65948
-3.65521
-3.65002
-3.64369
-3.63603
-3.62678
-3.61576
-3.60276
-3.58765
-3.57032
-3.55067
-3.52864
-3.50431
-3.47784
-3.44939
-3.41917
-3.38738
-3.35417
-3.31965
-3.28384
-3.24667
-3.20801
-3.16761
-3.1251
-3.07997
-3.03093
-2.97493
-2.91159
-2.85648
-3.74449
-3.74256
-3.74045
-3.73819
-3.73585
-3.73347
-3.73106
-3.72861
-3.72608
-3.72337
-3.72039
-3.717
-3.71303
-3.7083
-3.70262
-3.69574
-3.68744
-3.67748
-3.66566
-3.6518
-3.63574
-3.61734
-3.59654
-3.57337
-3.54794
-3.52039
-3.49091
-3.4597
-3.42691
-3.39264
-3.35694
-3.31977
-3.28098
-3.24034
-3.19748
-3.15183
-3.10199
-3.04458
-2.97899
-2.92192
-3.80671
-3.80436
-3.80184
-3.79918
-3.79645
-3.79369
-3.79095
-3.78821
-3.78545
-3.78261
-3.77961
-3.77633
-3.77262
-3.76832
-3.76321
-3.75709
-3.7497
-3.74081
-3.73017
-3.71759
-3.70286
-3.68582
-3.66635
-3.64447
-3.62024
-3.59379
-3.56526
-3.53485
-3.50271
-3.46894
-3.43358
-3.39661
-3.35788
-3.31717
-3.27409
-3.22804
-3.17752
-3.11884
-3.05121
-2.99239
-3.87071
-3.86799
-3.8651
-3.86209
-3.85901
-3.85593
-3.85288
-3.84987
-3.84691
-3.84395
-3.84093
-3.83776
-3.83431
-3.83043
-3.82591
-3.82054
-3.81409
-3.80629
-3.7969
-3.78568
-3.77238
-3.7568
-3.73882
-3.71839
-3.69555
-3.67038
-3.64303
-3.61366
-3.5824
-3.54936
-3.51458
-3.47802
-3.43956
-3.39895
-3.35581
-3.30952
-3.25847
-3.19874
-3.12937
-3.0691
-3.93654
-3.93351
-3.93032
-3.927
-3.92363
-3.92027
-3.91696
-3.91374
-3.91061
-3.90757
-3.90456
-3.90153
-3.89835
-3.89491
-3.89101
-3.88645
-3.88099
-3.87437
-3.86632
-3.85656
-3.84482
-3.83087
-3.81455
-3.79578
-3.77453
-3.75088
-3.72493
-3.69683
-3.66671
-3.63465
-3.60068
-3.56477
-3.52678
-3.48647
-3.44345
-3.39709
-3.34571
-3.28516
-3.21446
-3.15313
-4.00424
-4.00095
-3.99752
-3.99397
-3.99036
-3.98678
-3.98327
-3.97988
-3.97664
-3.97356
-3.97061
-3.96775
-3.9649
-3.96194
-3.95872
-3.95503
-3.95065
-3.94531
-3.93871
-3.93057
-3.92057
-3.90845
-3.89402
-3.87713
-3.85773
-3.83586
-3.81158
-3.78502
-3.75629
-3.72546
-3.69255
-3.65752
-3.62023
-3.58043
-3.53775
-3.49152
-3.44003
-3.37904
-3.30752
-3.24525
-4.07383
-4.07035
-4.06673
-4.063
-4.05922
-4.05548
-4.05183
-4.04833
-4.04503
-4.04195
-4.03911
-4.03647
-4.03399
-4.03157
-4.02908
-4.02634
-4.02313
-4.01919
-4.0142
-4.00785
-3.99982
-3.98979
-3.97752
-3.96282
-3.94558
-3.92579
-3.90349
-3.87877
-3.85172
-3.8224
-3.79081
-3.7569
-3.72053
-3.68147
-3.63933
-3.59346
-3.54211
-3.48108
-3.40929
-3.34628
-4.1453
-4.1417
-4.13795
-4.1341
-4.1302
-4.12636
-4.12262
-4.11906
-4.11574
-4.11271
-4.11001
-4.10762
-4.10554
-4.1037
-4.102
-4.10028
-4.09834
-4.09591
-4.09271
-4.08839
-4.0826
-4.07498
-4.06522
-4.05307
-4.03836
-4.02103
-4.00107
-3.97854
-3.9535
-3.926
-3.896
-3.86344
-3.82821
-3.79008
-3.74869
-3.70338
-3.65245
-3.59173
-3.52016
-3.45683
-4.21864
-4.21496
-4.21114
-4.20722
-4.20327
-4.19936
-4.19558
-4.192
-4.18869
-4.18573
-4.18318
-4.18106
-4.17938
-4.17813
-4.17723
-4.17657
-4.17597
-4.17522
-4.174
-4.17199
-4.16878
-4.16397
-4.15715
-4.148
-4.13629
-4.12187
-4.10466
-4.08471
-4.06206
-4.03669
-4.00856
-3.97757
-3.94364
-3.9066
-3.86613
-3.82161
-3.77135
-3.71133
-3.64049
-3.57732
-4.29379
-4.29009
-4.28626
-4.28231
-4.27834
-4.27442
-4.27062
-4.26704
-4.26375
-4.26086
-4.25843
-4.25653
-4.25522
-4.25451
-4.2544
-4.25481
-4.25563
-4.25667
-4.25767
-4.25829
-4.2581
-4.25659
-4.25324
-4.24765
-4.2395
-4.22852
-4.21454
-4.1976
-4.17772
-4.15484
-4.12884
-4.09958
-4.06705
-4.0312
-3.9918
-3.94828
-3.899
-3.84006
-3.77047
-3.7079
-4.3707
-4.36703
-4.36322
-4.3593
-4.35535
-4.35143
-4.34763
-4.34404
-4.34075
-4.33788
-4.33551
-4.33375
-4.33271
-4.33245
-4.33304
-4.33449
-4.33676
-4.33973
-4.34319
-4.34683
-4.35018
-4.3526
-4.35334
-4.35196
-4.34808
-4.34118
-4.33095
-4.31744
-4.30075
-4.28081
-4.25724
-4.22979
-4.19856
-4.16389
-4.12564
-4.08332
-4.03534
-3.97792
-3.91007
-3.84853
-4.4493
-4.4457
-4.44196
-4.4381
-4.43418
-4.43028
-4.42648
-4.42286
-4.41952
-4.41658
-4.41416
-4.41241
-4.41147
-4.4115
-4.41266
-4.41506
-4.41877
-4.42375
-4.42987
-4.43693
-4.44445
-4.45156
-4.45707
-4.46064
-4.46197
-4.45998
-4.45391
-4.44411
-4.43119
-4.41504
-4.39447
-4.36861
-4.3382
-4.30448
-4.26728
-4.22637
-4.18009
-4.12466
-4.05906
-3.99894
-4.5295
-4.52601
-4.52236
-4.51859
-4.51474
-4.51086
-4.50704
-4.50335
-4.49989
-4.49678
-4.49417
-4.49223
-4.49118
-4.49127
-4.49278
-4.49597
-4.50099
-4.50787
-4.51662
-4.52746
-4.54002
-4.55298
-4.56405
-4.57338
-4.58113
-4.58453
-4.58146
-4.57488
-4.56734
-4.55623
-4.53809
-4.51291
-4.48403
-4.45162
-4.41553
-4.37658
-4.33267
-4.27986
-4.21703
-4.15871
-4.6112
-4.60786
-4.60435
-4.60069
-4.59691
-4.59308
-4.58922
-4.58542
-4.58176
-4.57836
-4.57537
-4.57303
-4.57161
-4.57149
-4.57308
-4.57673
-4.58273
-4.59121
-4.6029
-4.61894
-4.6388
-4.65998
-4.67852
-4.69538
-4.71019
-4.72088
-4.72411
-4.7226
-4.71329
-4.7016
-4.68644
-4.66356
-4.63237
-4.59862
-4.56615
-4.53137
-4.49173
-4.44271
-4.38336
-4.32719
-4.69433
-4.69116
-4.68782
-4.6843
-4.68064
-4.67685
-4.67296
-4.66902
-4.6651
-4.6613
-4.65779
-4.65484
-4.65282
-4.65219
-4.65341
-4.65719
-4.6647
-4.67668
-4.69486
-4.72012
-4.74952
-4.78055
-4.811
-4.83833
-4.86335
-4.8838
-4.89783
-4.90002
-4.88988
-4.87407
-4.85729
-4.83741
-4.80631
-4.76564
-4.72379
-4.68911
-4.65535
-4.61174
-4.55684
-4.50333
-4.7788
-4.77584
-4.7727
-4.76937
-4.76585
-4.76213
-4.75824
-4.75417
-4.74998
-4.74574
-4.74166
-4.73801
-4.73519
-4.73364
-4.73439
-4.73973
-4.75359
-4.77584
-4.80126
-4.83181
-4.86649
-4.90389
-4.94557
-4.98668
-5.02322
-5.05134
-5.06927
-5.07694
-5.07509
-5.06471
-5.0498
-5.03071
-5.00239
-4.95885
-4.90463
-4.85967
-4.82393
-4.78471
-4.73496
-4.68487
-4.86455
-4.86183
-4.85893
-4.85583
-4.8525
-4.84894
-4.8451
-4.84099
-4.83662
-4.83208
-4.82755
-4.82326
-4.81952
-4.81745
-4.82071
-4.83419
-4.85738
-4.88469
-4.90989
-4.93311
-4.96441
-5.0069
-5.05825
-5.11299
-5.16243
-5.19931
-5.22232
-5.2343
-5.23749
-5.23285
-5.21921
-5.20065
-5.18099
-5.14424
-5.09072
-5.03376
-4.99275
-4.95653
-4.91248
-4.8667
-4.95152
-4.94908
-4.94646
-4.94365
-4.94059
-4.93727
-4.93364
-4.92967
-4.92539
-4.92088
-4.91625
-4.91157
-4.90775
-4.90911
-4.92154
-4.94351
-4.96458
-4.98125
-4.99731
-5.01616
-5.04948
-5.10592
-5.1754
-5.24484
-5.30522
-5.34813
-5.37275
-5.38495
-5.38792
-5.3827
-5.36932
-5.35003
-5.33071
-5.30458
-5.25907
-5.2002
-5.15466
-5.11945
-5.08143
-5.03997
-5.03966
-5.03753
-5.03525
-5.03279
-5.03011
-5.02717
-5.02394
-5.02042
-5.01666
-5.01272
-5.00855
-5.0044
-5.00394
-5.01393
-5.03309
-5.05011
-5.05939
-5.06961
-5.08663
-5.11159
-5.15516
-5.22494
-5.30222
-5.37624
-5.44079
-5.48735
-5.51312
-5.52483
-5.52694
-5.52057
-5.50648
-5.48651
-5.46476
-5.44193
-5.40132
-5.34804
-5.3019
-5.26667
-5.23379
-5.19137
-5.12895
-5.12716
-5.12525
-5.12321
-5.12101
-5.11861
-5.11604
-5.11335
-5.11066
-5.10798
-5.10523
-5.10416
-5.11075
-5.1263
-5.1411
-5.14637
-5.1526
-5.16966
-5.19498
-5.22735
-5.27227
-5.33772
-5.41221
-5.48588
-5.55165
-5.59989
-5.6296
-5.64357
-5.64673
-5.64051
-5.62623
-5.60568
-5.58142
-5.55506
-5.51861
-5.46813
-5.42513
-5.38779
-5.35615
-5.30706
-5.21934
-5.21791
-5.21642
-5.21486
-5.21321
-5.2115
-5.20981
-5.20833
-5.20725
-5.20657
-5.20664
-5.21132
-5.22402
-5.23846
-5.24493
-5.24609
-5.25705
-5.27688
-5.30457
-5.34011
-5.38037
-5.42965
-5.49468
-5.56668
-5.63377
-5.68379
-5.71856
-5.73704
-5.74282
-5.73777
-5.72382
-5.7032
-5.6776
-5.64706
-5.61088
-5.56145
-5.51655
-5.47281
-5.4326
-5.38066
-5.31078
-5.30973
-5.30867
-5.30761
-5.30656
-5.30561
-5.30492
-5.30485
-5.30574
-5.30768
-5.31159
-5.32229
-5.33986
-5.35166
-5.35503
-5.35768
-5.3696
-5.38632
-5.40872
-5.43823
-5.47263
-5.51187
-5.56202
-5.62256
-5.68637
-5.74328
-5.78159
-5.80613
-5.81628
-5.81308
-5.80017
-5.78046
-5.7546
-5.72489
-5.68268
-5.62846
-5.57345
-5.51654
-5.46124
-5.41594
-5.40321
-5.40253
-5.40189
-5.40132
-5.40084
-5.40057
-5.4008
-5.40205
-5.40495
-5.40981
-5.41795
-5.43484
-5.45928
-5.47535
-5.47863
-5.48163
-5.4906
-5.50124
-5.51394
-5.52971
-5.54939
-5.5748
-5.60895
-5.65334
-5.71046
-5.77115
-5.82383
-5.85853
-5.8735
-5.8755
-5.86624
-5.84757
-5.8201
-5.78188
-5.72949
-5.66762
-5.60023
-5.52716
-5.45978
-5.43335
-5.49652
-5.49619
-5.49595
-5.49581
-5.49581
-5.49605
-5.49682
-5.49885
-5.5033
-5.51101
-5.52352
-5.54828
-5.58617
-5.6162
-5.61986
-5.61491
-5.61395
-5.6159
-5.61655
-5.61511
-5.61484
-5.62187
-5.64117
-5.67321
-5.71415
-5.77114
-5.84183
-5.89522
-5.92296
-5.92892
-5.92027
-5.89499
-5.85693
-5.80786
-5.75096
-5.68873
-5.61882
-5.54167
-5.47838
-5.46949
-5.59059
-5.59055
-5.59064
-5.5909
-5.59136
-5.59204
-5.59308
-5.5951
-5.59992
-5.61021
-5.62713
-5.66102
-5.7252
-5.78784
-5.78511
-5.75099
-5.73286
-5.72526
-5.71475
-5.69923
-5.681
-5.67014
-5.67875
-5.69702
-5.70237
-5.73434
-5.84037
-5.93254
-5.97228
-5.96739
-5.9427
-5.90311
-5.85363
-5.80099
-5.74966
-5.69842
-5.64469
-5.58538
-5.53932
-5.52931
-5.68491
-5.685
-5.68522
-5.68566
-5.68642
-5.68762
-5.68948
-5.69229
-5.69653
-5.70504
-5.71921
-5.74686
-5.85124
-6.0656
-5.93912
-5.88388
-5.84588
-5.8201
-5.80504
-5.79438
-5.77954
-5.75522
-5.72045
-5.66044
-5.54623
-5.57685
-5.75464
-5.95332
-6.04235
-6.01195
-5.97796
-5.94023
-5.88299
-5.83359
-5.80216
-5.78023
-5.76345
-5.74424
-5.71877
-5.68713
)
;

boundaryField
{
    leftWall
    {
        type            calculated;
        value           nonuniform 0();
    }
    rightWall
    {
        type            calculated;
        value           nonuniform List<scalar> 
43
(
-1.90804
-1.91843
-1.94661
-1.98838
-2.04027
-2.09961
-2.16411
-2.23162
-2.30019
-2.36819
-2.43444
-2.49832
-2.55977
-2.61921
-2.67744
-2.73556
-2.7948
-2.85648
-2.92192
-2.99239
-3.0691
-3.15313
-3.24525
-3.34628
-3.45683
-3.57732
-3.7079
-3.84853
-3.99894
-4.15871
-4.32719
-4.50333
-4.68487
-4.8667
-5.03997
-5.19137
-5.30706
-5.38066
-5.41594
-5.43335
-5.46949
-5.52931
-5.68713
)
;
    }
    lowerWall
    {
        type            calculated;
        value           nonuniform 0();
    }
    atmosphere
    {
        type            calculated;
        value           nonuniform List<scalar> 
45
(
-5.73203
-5.73197
-5.73191
-5.73184
-5.73175
-5.73163
-5.73149
-5.73131
-5.7311
-5.73084
-5.73052
-5.73013
-5.72966
-5.72917
-5.72904
-5.72904
-5.72904
-5.95332
-6.79527
-5.8749
-5.73434
-5.77416
-5.80174
-5.8137
-5.81179
-5.79605
-5.76892
-5.74257
-5.73174
-5.73022
-5.73294
-5.96983
-6.33565
-6.39464
-6.09144
-6.0052
-5.95446
-5.84095
-5.76993
-5.75584
-5.74906
-5.7586
-5.77228
-5.75277
-5.74127
)
;
    }
    defaultFaces
    {
        type            empty;
    }
    procBoundary3to1
    {
        type            processor;
        value           nonuniform List<scalar> 
45
(
-2.74506
-2.77537
-2.80589
-2.83714
-2.86883
-2.90574
-2.95144
-2.98886
-3.00947
-3.0417
-3.03781
-2.95595
-2.91219
-2.88712
-2.86502
-2.86392
-2.85454
-2.76452
-2.66606
-2.5967
-2.54313
-2.43884
-2.34914
-2.2678
-2.17858
-2.08728
-1.99124
-1.90075
-1.81551
-1.73825
-1.67056
-1.61649
-1.57738
-1.55518
-1.55081
-1.56411
-1.59791
-1.65372
-1.72869
-1.81688
-1.9059
-1.97458
-2.00064
-1.97186
-1.91849
)
;
    }
    procBoundary3to2
    {
        type            processor;
        value           nonuniform List<scalar> 
43
(
-2.76113
-2.80788
-2.8555
-2.90418
-2.95401
-3.00497
-3.05699
-3.10997
-3.16381
-3.21847
-3.27391
-3.33015
-3.3872
-3.44511
-3.50394
-3.56378
-3.62472
-3.68685
-3.75027
-3.81507
-3.88131
-3.94905
-4.0183
-4.0891
-4.16143
-4.23528
-4.31064
-4.38746
-4.4657
-4.54532
-4.62625
-4.70846
-4.79188
-4.87648
-4.96222
-5.04907
-5.13701
-5.226
-5.31602
-5.40703
-5.49899
-5.5919
-5.68538
)
;
    }
}


// ************************************************************************* //
