/*--------------------------------*- C++ -*----------------------------------*\
| =========                 |                                                 |
| \\      /  F ield         | OpenFOAM: The Open Source CFD Toolbox           |
|  \\    /   O peration     | Version:  5.0                                   |
|   \\  /    A nd           | Web:      www.OpenFOAM.org                      |
|    \\/     M anipulation  |                                                 |
\*---------------------------------------------------------------------------*/
FoamFile
{
    version     2.0;
    format      ascii;
    class       volScalarField;
    location    "0.85";
    object      p_rgh;
}
// * * * * * * * * * * * * * * * * * * * * * * * * * * * * * * * * * * * * * //

dimensions      [1 -1 -2 0 0 0 0];

internalField   nonuniform List<scalar> 
1935
(
-0.443725
-0.42209
-0.400986
-0.380614
-0.36103
-0.342187
-0.323979
-0.306279
-0.288958
-0.271919
-0.255113
-0.238533
-0.222203
-0.206163
-0.190469
-0.17519
-0.1604
-0.146182
-0.132619
-0.119785
-0.107739
-0.096521
-0.0861561
-0.0766522
-0.0680026
-0.0601844
-0.0531608
-0.0468874
-0.04131
-0.0363648
-0.0319836
-0.0281019
-0.0246602
-0.0216029
-0.0188805
-0.016452
-0.0142845
-0.012344
-0.0105872
-0.00896491
-0.00742844
-0.00595202
-0.00415474
-0.470667
-0.497548
-0.52479
-0.552152
-0.445764
-0.469141
-0.492632
-0.516048
-0.421662
-0.441823
-0.461831
-0.481536
-0.398605
-0.41592
-0.43285
-0.449235
-0.376639
-0.391468
-0.405752
-0.419309
-0.355685
-0.368348
-0.38037
-0.391557
-0.335613
-0.34639
-0.356473
-0.365677
-0.316265
-0.325398
-0.333812
-0.341354
-0.297472
-0.305155
-0.312123
-0.318263
-0.279094
-0.285474
-0.291172
-0.296113
-0.261051
-0.266242
-0.270803
-0.274699
-0.243327
-0.247427
-0.250961
-0.253926
-0.225953
-0.229061
-0.231666
-0.233788
-0.208978
-0.211199
-0.212966
-0.21432
-0.192457
-0.193895
-0.194914
-0.195568
-0.17645
-0.177199
-0.177552
-0.177572
-0.161019
-0.161161
-0.160922
-0.16037
-0.146233
-0.145839
-0.145073
-0.144007
-0.132165
-0.131295
-0.130062
-0.128537
-0.118883
-0.117593
-0.115948
-0.114019
-0.106445
-0.104789
-0.102787
-0.100509
-0.0948936
-0.092926
-0.0906219
-0.0880517
-0.0842539
-0.0820305
-0.0794827
-0.0766781
-0.0745329
-0.072112
-0.0693784
-0.0663982
-0.0657219
-0.0631608
-0.0602987
-0.0572011
-0.0577982
-0.0551512
-0.0522175
-0.0490575
-0.0507233
-0.0480424
-0.0450904
-0.04192
-0.0444466
-0.0417802
-0.0388581
-0.0357261
-0.0389079
-0.0362993
-0.0334504
-0.0304016
-0.0340394
-0.0315252
-0.028787
-0.025859
-0.0297671
-0.0273786
-0.0247823
-0.0220056
-0.0260189
-0.0237816
-0.0213526
-0.0187531
-0.0227292
-0.0206625
-0.0184209
-0.0160201
-0.0198386
-0.0179556
-0.0159174
-0.0137332
-0.0172936
-0.0156043
-0.0137815
-0.0118291
-0.0150499
-0.0135625
-0.0119641
-0.0102567
-0.013072
-0.0117929
-0.0104261
-0.00897572
-0.0113256
-0.0102598
-0.00913072
-0.00794575
-0.009768
-0.00891916
-0.0080325
-0.00711671
-0.00834493
-0.00771303
-0.00706739
-0.00641805
-0.00699975
-0.00657483
-0.00615725
-0.00575998
-0.00569524
-0.00545103
-0.00522822
-0.00504222
-0.00404766
-0.00394919
-0.00386741
-0.00381412
-0.582562
-0.618077
-0.652479
-0.68372
-0.715702
-0.728962
-0.710424
-0.700047
-0.687877
-0.676981
-0.338514
-0.107756
-0.495633
-0.400936
-0.228841
-0.109426
-0.138332
-0.0747608
0.0910527
0.0927234
0.151487
0.239572
0.322055
0.400255
0.469593
0.53416
0.606757
0.688877
0.723603
0.658598
0.646562
0.624603
0.583657
0.527764
0.463554
0.404276
0.360806
0.350736
0.383123
0.436245
-0.541042
-0.567897
-0.593523
-0.617294
-0.639569
-0.654309
-0.656695
-0.654767
-0.647881
-0.647479
0.119675
0.170492
-0.480033
-0.33438
-0.186537
-0.115512
-0.179188
-0.108685
-0.0431881
0.0338985
0.118939
0.199111
0.273747
0.342025
0.400904
0.46769
0.823244
0.980198
1.005
0.883603
0.784291
0.716297
0.577165
0.50759
0.459672
0.425291
0.398903
0.402714
0.439289
0.491178
-0.502011
-0.522897
-0.542051
-0.558852
-0.572955
-0.581781
-0.582777
-0.578024
-0.567583
-0.0909708
0.219213
-0.002158
-0.408695
-0.275546
-0.159189
-0.244979
-0.175189
-0.110893
-0.0475896
0.0207543
0.0925268
0.162324
0.228091
0.287758
0.338689
0.427331
0.835748
0.910461
0.93499
0.953697
0.965621
0.968304
0.894408
0.74858
0.583737
0.432331
0.425328
0.440198
0.479398
0.528934
-0.465804
-0.482061
-0.496472
-0.508494
-0.517566
-0.522132
-0.520424
-0.514159
-0.463403
0.366337
0.278859
-0.435981
-0.359832
-0.265583
-0.269948
-0.232399
-0.173379
-0.115409
-0.057102
0.00349441
0.065589
0.126629
0.184914
0.238779
0.285843
0.32549
0.427913
0.699895
0.868493
0.901097
0.917328
0.928151
0.928031
0.91746
0.724195
0.441034
0.445982
0.467064
0.507195
0.553711
-0.432614
-0.445167
-0.45586
-0.464308
-0.470011
-0.47196
-0.468946
-0.46349
-0.404995
0.438862
0.382641
-0.389434
-0.335601
-0.301192
-0.270181
-0.222152
-0.171932
-0.121008
-0.0691146
-0.0156232
0.0387222
0.09258
0.144801
0.194119
0.239089
0.279301
0.314686
0.343685
0.375432
0.477631
0.66826
0.874246
0.907378
0.91003
0.60448
0.449949
0.46109
0.485569
0.525493
0.568982
-0.402217
-0.411878
-0.41972
-0.425483
-0.428751
-0.428678
-0.424391
-0.420407
-0.171411
0.506463
0.325924
-0.353415
-0.318995
-0.28962
-0.254048
-0.214021
-0.170028
-0.127134
-0.0816011
-0.0346649
0.013209
0.0609676
0.107859
0.153028
0.195546
0.235078
0.271529
0.303951
0.331018
0.352281
0.369476
0.420994
0.767849
0.659609
0.443937
0.45265
0.469332
0.496851
0.53645
0.577424
-0.374214
-0.381664
-0.387418
-0.391294
-0.392931
-0.39143
-0.385943
-0.383547
0.354497
0.567592
-0.00448001
-0.326679
-0.298414
-0.272251
-0.241172
-0.202087
-0.163921
-0.129833
-0.0936278
-0.0523798
-0.0101157
0.0324911
0.0747622
0.116121
0.155947
0.193963
0.229815
0.263009
0.292848
0.319144
0.342173
0.362787
0.384738
0.409626
0.430631
0.449058
0.471613
0.5023
0.542044
0.581343
-0.34819
-0.353974
-0.358265
-0.36096
-0.36182
-0.360168
-0.35525
-0.352633
0.170254
0.620656
-0.149355
-0.303252
-0.281299
-0.25885
-0.232074
-0.196037
-0.164706
-0.131352
-0.103885
-0.067887
-0.030245
0.00800802
0.0463854
0.0844209
0.121714
0.157949
0.192862
0.226142
0.257475
0.286759
0.314128
0.340165
0.36657
0.392667
0.417361
0.442149
0.46993
0.503733
0.544304
0.58288
-0.323729
-0.328256
-0.331534
-0.33354
-0.334187
-0.333194
-0.330112
-0.32715
-0.287276
0.482932
-0.168222
-0.284565
-0.257382
-0.239324
-0.224225
-0.19691
-0.166263
-0.139118
-0.112405
-0.0804517
-0.046581
-0.0119006
0.0232429
0.0585
0.0935253
0.128062
0.161925
0.19494
0.226956
0.257928
0.287963
0.320976
0.353676
0.381195
0.405625
0.434297
0.466285
0.503177
0.545257
0.583999
-0.300455
-0.303999
-0.306539
-0.3081
-0.308687
-0.308276
-0.306795
-0.305019
-0.305864
-0.26111
-0.251729
-0.266797
-0.243782
-0.225188
-0.209004
-0.195112
-0.171784
-0.146547
-0.11893
-0.0896684
-0.0588904
-0.027058
0.00548161
0.0385016
0.0716832
0.104792
0.137686
0.170276
0.202506
0.234385
0.268033
0.309961
0.341627
0.373592
0.401104
0.427157
0.462703
0.502623
0.546731
0.586342
-0.278086
-0.28082
-0.282758
-0.283953
-0.284433
-0.284236
-0.283413
-0.282241
-0.281466
-0.279551
-0.269648
-0.254929
-0.231182
-0.213039
-0.195855
-0.184276
-0.169163
-0.146471
-0.121762
-0.095194
-0.0670111
-0.0375176
-0.00697267
0.024339
0.0561257
0.0881671
0.120328
0.152548
0.184819
0.217179
0.256826
0.29543
0.328958
0.363187
0.397046
0.422522
0.460923
0.503686
0.550111
0.591085
-0.256472
-0.258496
-0.259894
-0.260725
-0.261019
-0.260799
-0.26008
-0.258893
-0.25717
-0.253887
-0.246041
-0.235529
-0.223997
-0.203506
-0.184829
-0.175296
-0.163614
-0.143382
-0.121102
-0.096865
-0.0708438
-0.0432608
-0.0143454
0.0156438
0.0464154
0.0777349
0.109449
0.141485
0.173842
0.206566
0.242872
0.286675
0.321641
0.3577
0.388678
0.42082
0.462013
0.507339
0.556193
0.598853
-0.23557
-0.236939
-0.237818
-0.238263
-0.238305
-0.23795
-0.237175
-0.235902
-0.231332
-0.222651
-0.219156
-0.215989
-0.206824
-0.196263
-0.183046
-0.169654
-0.154912
-0.137284
-0.117092
-0.0948427
-0.0706541
-0.0446832
-0.0171114
0.0118246
0.0418401
0.0726877
0.104186
0.13623
0.168797
0.201927
0.235722
0.276262
0.319641
0.356972
0.383675
0.42306
0.4663
0.513873
0.565168
0.609719
-0.215395
-0.216143
-0.216506
-0.216534
-0.216261
-0.21569
-0.214782
-0.21343
-0.203457
-0.200004
-0.195431
-0.189442
-0.184327
-0.180318
-0.170814
-0.158657
-0.1445
-0.128332
-0.109971
-0.0894477
-0.066857
-0.0422961
-0.0158944
0.0121366
0.0415271
0.0720261
0.103427
0.135591
0.168454
0.202034
0.236414
0.271785
0.317334
0.349271
0.386611
0.428607
0.473431
0.52297
0.576691
0.623268
-0.195984
-0.196136
-0.19598
-0.195562
-0.19492
-0.194059
-0.192944
-0.191475
-0.185129
-0.178116
-0.17433
-0.169315
-0.163047
-0.155449
-0.148954
-0.143851
-0.131663
-0.11701
-0.100197
-0.0811967
-0.0600369
-0.0367586
-0.011441
0.0157339
0.0445214
0.0746781
0.105983
0.138265
0.171425
0.205441
0.240374
0.276357
0.313657
0.352622
0.393452
0.436463
0.482568
0.533866
0.590004
0.638697
-0.177376
-0.176956
-0.176284
-0.175401
-0.174349
-0.173143
-0.171756
-0.170113
-0.168093
-0.164071
-0.153335
-0.149032
-0.143695
-0.13712
-0.129137
-0.120834
-0.116359
-0.103814
-0.0883829
-0.070755
-0.0509151
-0.0288516
-0.00459587
0.0217032
0.0498332
0.0795662
0.110679
0.14298
0.17634
0.210703
0.246102
0.282642
0.320536
0.360086
0.40157
0.445398
0.492583
0.545516
0.604075
0.654931
-0.159609
-0.158648
-0.157471
-0.156117
-0.154633
-0.153045
-0.15134
-0.149465
-0.147329
-0.144794
-0.140691
-0.1356
-0.124859
-0.118288
-0.111265
-0.103885
-0.100825
-0.089406
-0.0752307
-0.0588834
-0.0403051
-0.0194361
0.00373506
0.0290938
0.0564626
0.0856357
0.116397
0.148547
0.181938
0.216488
0.252221
0.289156
0.327495
0.367526
0.409565
0.454089
0.502242
0.556741
0.617713
0.670729
-0.142731
-0.141263
-0.139602
-0.137785
-0.135867
-0.13388
-0.131827
-0.129676
-0.127357
-0.124763
-0.121766
-0.118218
-0.113523
-0.106116
-0.0989212
-0.0925831
-0.085016
-0.0744851
-0.0614988
-0.0463934
-0.0290617
-0.0094057
0.0126228
0.0369462
0.0634217
0.0918699
0.122089
0.153883
0.187094
0.221657
0.257516
0.294652
0.333261
0.373653
0.416155
0.46129
0.510332
0.566333
0.629672
0.684783
-0.126796
-0.124862
-0.12275
-0.120494
-0.118154
-0.115773
-0.113365
-0.110917
-0.10838
-0.105675
-0.102694
-0.0992984
-0.0953284
-0.0906048
-0.0849173
-0.0780403
-0.0696988
-0.0597511
-0.0479481
-0.0340938
-0.0180364
0.000356041
0.0211571
0.0443279
0.0697619
0.097308
0.126786
0.15801
0.19086
0.225151
0.26085
0.298026
0.336765
0.37736
0.420216
0.465867
0.515709
0.573121
0.638709
0.695783
-0.111865
-0.109512
-0.10699
-0.104331
-0.101601
-0.0988489
-0.0961017
-0.093361
-0.0905999
-0.0877629
-0.0847631
-0.0814825
-0.0777762
-0.0734715
-0.0683669
-0.0622412
-0.0548546
-0.0459577
-0.0353236
-0.0227417
-0.00801425
0.00903113
0.0284932
0.050374
0.0746042
0.101062
0.129627
0.160089
0.192234
0.226005
0.26136
0.298338
0.337022
0.377682
0.420757
0.466805
0.517327
0.576003
0.643633
0.702461
-0.097996
-0.0952759
-0.092394
-0.0893792
-0.0863025
-0.0832192
-0.0801675
-0.0771627
-0.074198
-0.0712394
-0.0682226
-0.0650521
-0.0616025
-0.0577145
-0.0531962
-0.0478308
-0.0413781
-0.0335821
-0.0241915
-0.0129655
0.000333594
0.0159109
0.0338919
0.0543193
0.0771626
0.102361
0.129777
0.159154
0.190412
0.22345
0.25823
0.29478
0.333172
0.373758
0.416898
0.463194
0.51424
0.573976
0.643346
0.703617
-0.0852371
-0.0822065
-0.0790194
-0.0757044
-0.0723348
-0.0689726
-0.0656647
-0.062441
-0.0593129
-0.0562669
-0.0532617
-0.0502259
-0.0470553
-0.0436095
-0.0397115
-0.0351521
-0.0296932
-0.0230721
-0.0150187
-0.00525946
0.00647768
0.0204265
0.0367465
0.055524
0.0767686
0.10043
0.126433
0.154565
0.184691
0.216753
0.250713
0.28656
0.32452
0.364828
0.407845
0.454211
0.505594
0.566135
0.636844
0.698177
-0.0736204
-0.0703385
-0.066905
-0.0633497
-0.0597466
-0.0561639
-0.0526563
-0.0492674
-0.0460262
-0.0429395
-0.0399901
-0.037131
-0.0342814
-0.0313239
-0.0281004
-0.0244141
-0.0200323
-0.0146891
-0.00809596
5.0392e-05
0.0100498
0.0221653
0.0366004
0.0534882
0.072882
0.0947583
0.119033
0.145616
0.174413
0.205216
0.238071
0.273097
0.31039
0.350185
0.39287
0.4391
0.490591
0.551579
0.623101
0.685373
-0.0631567
-0.0596836
-0.0560641
-0.0523289
-0.0485529
-0.0448093
-0.04116
-0.0376622
-0.0343603
-0.0312817
-0.0284344
-0.0257966
-0.0233138
-0.0208953
-0.0184068
-0.0156695
-0.0124614
-0.00851532
-0.00352935
0.00281847
0.0108545
0.0208808
0.0331524
0.047855
0.0650918
0.0848834
0.107182
0.1319
0.158948
0.188269
0.219859
0.253771
0.290137
0.329198
0.371338
0.417214
0.468557
0.529594
0.601379
0.664397
-0.0538351
-0.0502303
-0.0464844
-0.0426279
-0.0387371
-0.034888
-0.0311505
-0.0275935
-0.0242757
-0.0212455
-0.0185362
-0.0161529
-0.0140709
-0.0122309
-0.0105283
-0.00880858
-0.00686645
-0.00444486
-0.00124194
0.00307723
0.00886981
0.0164884
0.0262497
0.0384006
0.0531033
0.0704365
0.0903979
0.112929
0.137965
0.16547
0.195467
0.228024
0.263258
0.301387
0.342778
0.388083
0.43902
0.499743
0.571308
0.634638
-0.0456247
-0.0419453
-0.0381289
-0.0342052
-0.0302517
-0.0263447
-0.0225623
-0.0189829
-0.0156788
-0.012719
-0.0101612
-0.00803959
-0.0063643
-0.00511164
-0.00421342
-0.00355317
-0.00295944
-0.00220052
-0.000986082
0.00102826
0.00423462
0.00904924
0.0158693
0.0250149
0.0367207
0.0511466
0.0683503
0.0883003
0.110955
0.136321
0.164457
0.195446
0.22938
0.26642
0.306887
0.351407
0.401661
0.46169
0.532524
0.595698
-0.0384742
-0.0347733
-0.0309373
-0.0269951
-0.0230228
-0.0190959
-0.0152985
-0.0117158
-0.00843233
-0.00553592
-0.00310795
-0.00121302
9.96416e-05
0.000806487
0.000923463
0.000511772
-0.000310148
-0.00135302
-0.00235418
-0.00297288
-0.0027784
-0.00126556
0.0020825
0.00767071
0.0158156
0.0268044
0.0407788
0.057719
0.077599
0.100477
0.126484
0.155739
0.188271
0.22412
0.263521
0.307045
0.356323
0.415257
0.48485
0.547419
-0.0323162
-0.0286433
-0.0248332
-0.0209151
-0.0169589
-0.0130388
-0.00924005
-0.00565121
-0.00236604
0.000512372
0.00287935
0.00463461
0.00568214
0.00593857
0.00534898
0.00389777
0.00162611
-0.00134471
-0.00480588
-0.0084462
-0.011794
-0.0142068
-0.0149551
-0.0135747
-0.00969516
-0.00278834
0.00743953
0.0209454
0.0376349
0.0575823
0.0811454
0.108605
0.139827
0.174501
0.212753
0.255073
0.303052
0.360563
0.428333
0.48986
-0.0270719
-0.0234714
-0.0197273
-0.0158678
-0.0119533
-0.00805386
-0.00424972
-0.000628933
0.00270871
0.00564929
0.00806566
0.0098188
0.010758
0.010726
0.00957246
0.00717242
0.0034607
-0.00152205
-0.00764601
-0.0147059
-0.0222224
-0.0293321
-0.0348441
-0.0384073
-0.0397451
-0.0377482
-0.0316801
-0.0218759
-0.00896009
0.00718646
0.0277624
0.0536233
0.0840323
0.117747
0.154945
0.195855
0.242165
0.297683
0.363252
0.423294
-0.0226483
-0.0191588
-0.0155158
-0.0117429
-0.00788965
-0.00401712
-0.000194178
0.00349665
0.00695641
0.0100662
0.0126801
0.0146203
0.0156713
0.0155795
0.0140683
0.0108811
0.00585426
-0.00102265
-0.00976732
-0.0206189
-0.0331783
-0.0461284
-0.0571603
-0.0664502
-0.0742336
-0.0662135
-0.0447946
-0.0512753
-0.0589301
-0.0493819
-0.0312442
-0.00605746
0.0228138
0.0552288
0.0913215
0.130265
0.174181
0.227108
0.290031
0.348163
-0.0189477
-0.0156036
-0.0120943
-0.00843477
-0.00466273
-0.000823503
0.00303062
0.00683113
0.0104905
0.0138927
0.0168773
0.019225
0.0206414
0.0207568
0.0191705
0.0155162
0.0095208
0.00105319
-0.0105451
-0.0263857
-0.0451822
-0.0673211
0.0115006
0.204796
0.0643607
0.415457
1.28164
0.853255
-0.0602131
-0.0360754
0.431972
0.475325
0.00100077
-0.00639476
0.0261059
0.0608774
0.100521
0.149643
0.209113
0.265111
-0.0158774
-0.0127115
-0.00936885
-0.00585339
-0.00218789
0.0016037
0.0054911
0.00942916
0.0133519
0.0171536
0.0206623
0.0236113
0.0256262
0.0262629
0.0250353
0.0212702
0.0138322
0.00217761
0.058795
0.253384
0.52575
0.205489
0.846778
1.26286
1.25036
1.23468
1.22065
1.21847
1.22469
0.973788
1.4628
1.56188
1.6232
1.00213
-0.0446069
-0.0106219
0.0231049
0.0668125
0.121835
0.175199
-0.0133522
-0.0103967
-0.00725576
-0.00392193
-0.000399394
0.00331198
0.00720818
0.011274
0.0154704
0.0197044
0.023791
0.0274328
0.0302589
0.0318048
0.03109
0.0260631
0.0433653
0.277628
0.965216
0.924838
0.890153
0.8428
0.446734
0.299843
0.243919
0.00502687
-0.179153
-0.146565
0.0521854
0.610419
0.36472
0.407725
1.70685
1.80479
1.28659
-0.0101818
-0.0582106
-0.0191648
0.0306817
0.0806562
-0.0112959
-0.00858322
-0.00568304
-0.00257781
0.000747502
0.00431555
0.00814876
0.0122603
0.0166315
0.0211732
0.0257022
0.0299915
0.0337349
0.0358192
0.0333015
0.22529
1.00144
0.998044
0.972845
0.867516
0.384816
-0.0873745
-0.17536
-0.250827
-0.305195
-0.342851
-0.367039
-0.379798
-0.382677
-0.353369
-0.362403
-0.342602
0.503077
1.81009
1.91281
0.0645913
-0.139017
-0.103213
-0.0591751
-0.0133917
-0.0096444
-0.00720736
-0.00459201
-0.00177357
0.00127755
0.00459974
0.00823323
0.0122031
0.0164871
0.0209926
0.0256204
0.0302975
0.0341342
0.0342946
0.541386
1.28976
1.26732
0.795592
0.159806
0.00543584
-0.0271071
0.311158
0.731568
0.481894
-0.170924
-0.404202
-0.429621
-0.441961
-0.444937
-0.439635
-0.426154
-0.406618
-0.383734
1.65092
1.87977
1.40032
-0.159013
-0.177539
-0.139543
-0.0980743
-0.0083465
-0.00621811
-0.00393528
-0.00147084
0.00120938
0.00414601
0.00737502
0.0108987
0.0146595
0.0185945
0.0227701
0.0269267
0.0343246
0.638163
1.34831
1.32966
0.389403
-0.0222684
-0.0380934
0.0342441
1.23372
2.18205
2.10477
2.03086
0.810277
-0.452868
-0.480689
-0.492397
-0.494508
-0.488126
-0.474028
-0.453999
-0.43196
0.474998
1.89168
1.97095
0.0140334
-0.235305
-0.20247
-0.160052
-0.00735913
-0.00557005
-0.00366547
-0.0016229
0.000583636
0.0029772
0.00555352
0.00824203
0.0109271
0.0136092
0.0163652
0.017559
0.414988
1.37277
1.35966
0.295068
-0.0165309
-0.0330735
-0.0631822
0.354645
2.25991
2.2016
2.12798
2.05401
1.56604
-0.477164
-0.506875
-0.520844
-0.524004
-0.517786
-0.503502
-0.482924
-0.458617
-0.397164
1.64793
1.98219
0.373229
-0.266056
-0.234549
-0.185464
-0.00663708
-0.00521108
-0.00372041
-0.00215487
-0.000508632
0.00120157
0.00289199
0.00437415
0.00544754
0.00613331
0.00608795
0.0313302
1.0041
1.37978
0.608722
-0.0194173
-0.0301226
-0.0507181
-0.0882945
-0.0832239
1.15908
2.23705
2.17915
2.09998
2.03862
0.0326097
-0.504707
-0.523187
-0.528966
-0.523914
-0.509967
-0.489342
-0.463695
-0.431933
1.88764
2.0214
0.410881
-0.260104
-0.219892
-0.167959
-0.00612342
-0.00507243
-0.00401282
-0.0029503
-0.00190492
-0.000946178
-0.000259998
-0.000190229
-0.00108204
-0.00301467
-0.00686149
0.0645015
1.07785
1.36361
0.0306004
-0.0403671
-0.037737
-0.0350314
-0.101586
-0.132251
-0.166083
0.329133
2.18955
2.18502
2.08635
1.74562
-0.446036
-0.500291
-0.510446
-0.507242
-0.494332
-0.474573
-0.447425
1.12531
2.00434
2.07548
0.107485
-0.211882
-0.156585
-0.111281
-0.0057386
-0.00505882
-0.00442235
-0.0038462
-0.00336835
-0.00309979
-0.00332451
-0.00458128
-0.00748291
-0.0123378
-0.020395
0.0591275
1.02291
1.24473
-0.0682882
-0.0749417
-0.0289798
-0.0222369
-0.115127
-0.131359
-0.151609
-0.176781
-0.207366
1.5338
2.17474
2.06459
1.95836
0.150901
-0.394638
0.281047
0.906344
1.17767
1.73589
2.01752
2.08771
1.76284
-0.202759
-0.129687
-0.0623066
-0.0358781
-0.00537768
-0.00504614
-0.00480258
-0.00466599
-0.00466721
-0.0049033
-0.00567519
-0.00770878
-0.0121558
-0.019866
-0.0323355
0.0357567
1.04013
1.18191
-0.105668
-0.116224
-0.0384035
-0.040353
-0.0657259
-0.123643
-0.123503
-0.130731
-0.149811
-0.180075
0.161154
2.13974
2.06751
1.99615
1.9562
1.91545
1.87283
1.91295
1.96507
2.06849
1.55295
-0.070323
-0.126222
-0.050524
0.0434509
0.168262
-0.00490461
-0.00486268
-0.00495618
-0.00521673
-0.00566994
-0.00634983
-0.00739466
-0.00941227
-0.0142331
-0.0245205
-0.0414351
-0.0433411
0.859759
1.07727
-0.0151078
-0.165263
-0.0880565
-0.0537188
-0.0437804
-0.0872162
-0.0952945
-0.084451
-0.0930726
-0.111253
-0.115257
-0.0822652
1.5445
2.09224
2.05499
2.03916
1.02982
1.99441
1.28993
0.316302
-0.0578546
-0.100288
-0.051013
0.0445388
0.0995185
0.10498
-0.00380486
-0.00388783
-0.00411446
-0.00455541
-0.00530826
-0.00651011
-0.0083679
-0.0111815
-0.0154181
-0.0239311
-0.0381018
-0.0657507
0.0522748
0.672821
-0.113375
-0.202772
-0.164454
-0.111535
-0.0983314
-0.112309
-0.0907963
-0.0741081
-0.0393386
0.0206666
0.13483
0.108125
0.16525
0.329324
0.298787
0.0285328
-0.023
-0.0355826
-0.090901
-0.111933
-0.0944761
-0.0792687
-0.0530265
-0.0202467
-0.0141329
-0.00601858
)
;

boundaryField
{
    leftWall
    {
        type            fixedFluxPressure;
        gradient        nonuniform 0();
        value           nonuniform 0();
    }
    rightWall
    {
        type            fixedFluxPressure;
        gradient        uniform 0;
        value           nonuniform List<scalar> 
43
(
0.436245
0.491178
0.528934
0.553711
0.568982
0.577424
0.581343
0.58288
0.583999
0.586342
0.591085
0.598853
0.609719
0.623268
0.638697
0.654931
0.670729
0.684783
0.695783
0.702461
0.703617
0.698177
0.685373
0.664397
0.634638
0.595698
0.547419
0.48986
0.423294
0.348163
0.265111
0.175199
0.0806562
-0.0133917
-0.0980743
-0.160052
-0.185464
-0.167959
-0.111281
-0.0358781
0.168262
0.10498
-0.00601858
)
;
    }
    lowerWall
    {
        type            fixedFluxPressure;
        gradient        nonuniform 0();
        value           nonuniform 0();
    }
    atmosphere
    {
        type            totalPressure;
        rho             rho;
        psi             none;
        gamma           1;
        p0              uniform 0;
        value           nonuniform List<scalar> 
45
(
-0.00298637
-0.00293409
-0.00287251
-0.00279802
-0.00270832
-0.00259468
-0.00244814
-0.00227061
-0.00205609
-0.00179616
-0.00147959
-0.00109234
-0.000623206
-0.000125745
0
0
0
0
0
0
-0.00530132
-0.0451229
-0.072704
-0.0846614
-0.0827543
-0.0670131
-0.0398759
-0.013533
-0.00269657
-0.00118107
0
0
0
0
0
0
0
0
0
0
0
0
0
0
-0.0122315
)
;
    }
    defaultFaces
    {
        type            empty;
    }
    procBoundary3to1
    {
        type            processor;
        value           nonuniform List<scalar> 
45
(
-0.465503
-0.495808
-0.526332
-0.557578
-0.589267
-0.62618
-0.67188
-0.709302
-0.729914
-0.762138
-0.758247
-0.676448
-0.632555
-0.607364
-0.585354
-0.520633
-0.424638
-0.251717
-0.317839
-0.262143
-0.0944791
0.0603675
0.032498
0.783982
1.59355
0.862278
0.495101
0.420676
0.46448
0.541609
0.609251
0.663072
0.702177
0.724381
0.728746
0.715456
0.681666
0.625858
0.550904
0.462724
0.373714
0.305408
0.279572
0.307804
0.361065
)
;
    }
    procBoundary3to2
    {
        type            processor;
        value           nonuniform List<scalar> 
43
(
-0.416852
-0.39827
-0.379957
-0.362096
-0.344765
-0.327941
-0.311544
-0.295469
-0.279623
-0.263942
-0.248396
-0.232982
-0.217718
-0.202641
-0.187809
-0.173297
-0.159193
-0.14559
-0.132575
-0.120226
-0.108602
-0.0977466
-0.087686
-0.0784273
-0.0699614
-0.0622686
-0.05532
-0.0490733
-0.0434753
-0.0384704
-0.0340019
-0.0300102
-0.0264362
-0.0232299
-0.0203498
-0.0177573
-0.0154182
-0.0132984
-0.0113591
-0.00955624
-0.0078472
-0.00621328
-0.00426646
)
;
    }
}


// ************************************************************************* //
