/*--------------------------------*- C++ -*----------------------------------*\
| =========                 |                                                 |
| \\      /  F ield         | OpenFOAM: The Open Source CFD Toolbox           |
|  \\    /   O peration     | Version:  5.0                                   |
|   \\  /    A nd           | Web:      www.OpenFOAM.org                      |
|    \\/     M anipulation  |                                                 |
\*---------------------------------------------------------------------------*/
FoamFile
{
    version     2.0;
    format      ascii;
    class       surfaceScalarField;
    location    "0.85";
    object      phi;
}
// * * * * * * * * * * * * * * * * * * * * * * * * * * * * * * * * * * * * * //

dimensions      [0 3 -1 0 0 0 0];

internalField   nonuniform List<scalar> 
3782
(
2.57357e-05
3.48247e-05
2.5788e-05
3.53123e-05
2.56859e-05
3.50673e-05
2.55122e-05
3.43102e-05
2.53116e-05
3.32261e-05
2.51012e-05
3.19667e-05
2.48785e-05
3.0652e-05
2.46286e-05
2.93734e-05
2.43298e-05
2.81965e-05
2.39577e-05
2.71627e-05
2.34894e-05
2.62929e-05
2.29048e-05
2.559e-05
2.21884e-05
2.50425e-05
2.13303e-05
2.46278e-05
2.03262e-05
2.43151e-05
1.91772e-05
2.4069e-05
1.78897e-05
2.38512e-05
1.64745e-05
2.36235e-05
1.49464e-05
2.3349e-05
1.33232e-05
2.29938e-05
1.16253e-05
2.25284e-05
9.87536e-06
2.19279e-05
8.09722e-06
2.11731e-05
6.31596e-06
2.02514e-05
4.55728e-06
1.91567e-05
2.84715e-06
1.78908e-05
1.21139e-06
1.64633e-05
-3.25045e-07
1.48927e-05
-1.73889e-06
1.3206e-05
-3.00963e-06
1.14385e-05
-4.12047e-06
9.63277e-06
-5.05963e-06
7.83757e-06
-5.82162e-06
6.10567e-06
-6.4082e-06
4.49097e-06
-6.82894e-06
3.04491e-06
-7.10126e-06
1.8124e-06
-7.2496e-06
8.27521e-07
-7.30364e-06
1.09426e-07
-7.29549e-06
-3.41111e-07
-7.25624e-06
-5.43823e-07
-7.21202e-06
-5.38583e-07
-7.18064e-06
-3.81441e-07
-1.36216e-07
3.40922e-05
2.33345e-05
3.29464e-05
2.20043e-05
3.14151e-05
2.03145e-05
1.82826e-05
2.95542e-05
3.48987e-05
2.37481e-05
3.41042e-05
2.27987e-05
3.2921e-05
2.14978e-05
1.98485e-05
3.13551e-05
3.48329e-05
2.39826e-05
3.42398e-05
2.33919e-05
3.32603e-05
2.24773e-05
2.12337e-05
3.18751e-05
3.41684e-05
2.41243e-05
3.36879e-05
2.38724e-05
3.28318e-05
2.33333e-05
2.24962e-05
3.15693e-05
3.31319e-05
2.42186e-05
3.27204e-05
2.42839e-05
3.19527e-05
2.4101e-05
2.36551e-05
3.07939e-05
3.19045e-05
2.42808e-05
3.15502e-05
2.46382e-05
3.08664e-05
2.47849e-05
2.47025e-05
2.98189e-05
3.06265e-05
2.43062e-05
3.03379e-05
2.49269e-05
2.97527e-05
2.53701e-05
2.5615e-05
2.88403e-05
2.94016e-05
2.42781e-05
2.9199e-05
2.51295e-05
2.87375e-05
2.58315e-05
2.63612e-05
2.79912e-05
2.83012e-05
2.41734e-05
2.82101e-05
2.52206e-05
2.79007e-05
2.61409e-05
2.69097e-05
2.73522e-05
2.73683e-05
2.39678e-05
2.74143e-05
2.51746e-05
2.72836e-05
2.62717e-05
2.72331e-05
2.69601e-05
2.66219e-05
2.36388e-05
2.68275e-05
2.4969e-05
2.6897e-05
2.62022e-05
2.73113e-05
2.68187e-05
2.60608e-05
2.3168e-05
2.64432e-05
2.45866e-05
2.67281e-05
2.59173e-05
2.71323e-05
2.69071e-05
2.56684e-05
2.25421e-05
2.62386e-05
2.40164e-05
2.6747e-05
2.54089e-05
2.66916e-05
2.71877e-05
2.54161e-05
2.17538e-05
2.61789e-05
2.32537e-05
2.6912e-05
2.46757e-05
2.59922e-05
2.76114e-05
2.52675e-05
2.08014e-05
2.62213e-05
2.22999e-05
2.7174e-05
2.3723e-05
2.50438e-05
2.81225e-05
2.51814e-05
1.9689e-05
2.6319e-05
2.11623e-05
2.74802e-05
2.25619e-05
2.38615e-05
2.86624e-05
2.51148e-05
1.84254e-05
2.64239e-05
1.98532e-05
2.77775e-05
2.12083e-05
2.24657e-05
2.91733e-05
2.50249e-05
1.7024e-05
2.6489e-05
1.83891e-05
2.80148e-05
1.96824e-05
2.08802e-05
2.96003e-05
2.48714e-05
1.55016e-05
2.64704e-05
1.67901e-05
2.81451e-05
1.80077e-05
1.91319e-05
2.98934e-05
2.46176e-05
1.38778e-05
2.63289e-05
1.50788e-05
2.81268e-05
1.62098e-05
1.72499e-05
3.00089e-05
2.42315e-05
1.21747e-05
2.60305e-05
1.32798e-05
2.79243e-05
1.43161e-05
1.52641e-05
2.991e-05
2.36867e-05
1.04159e-05
2.55475e-05
1.1419e-05
2.75087e-05
1.23549e-05
1.32056e-05
2.95673e-05
2.2963e-05
8.626e-06
2.48586e-05
9.52336e-06
2.68582e-05
1.03552e-05
1.11052e-05
2.89586e-05
2.20466e-05
6.83078e-06
2.39496e-05
7.62032e-06
2.59584e-05
8.34644e-06
8.99419e-06
2.80693e-05
2.09312e-05
5.05631e-06
2.28138e-05
5.73773e-06
2.48021e-05
6.35807e-06
6.90366e-06
2.68927e-05
1.96182e-05
3.32886e-06
2.14524e-05
3.9035e-06
2.3391e-05
4.41956e-06
4.86454e-06
2.54301e-05
1.81177e-05
1.67451e-06
1.98758e-05
2.14533e-06
2.17352e-05
2.56017e-06
2.90761e-06
2.36921e-05
1.64485e-05
1.18657e-07
1.81036e-05
4.90289e-07
1.98551e-05
8.08604e-07
1.06317e-06
2.16996e-05
1.46394e-05
-1.31479e-06
1.61656e-05
-1.0359e-06
1.77818e-05
-8.07598e-07
-6.39462e-07
1.94845e-05
1.27281e-05
-2.60444e-06
1.41021e-05
-2.40982e-06
1.55575e-05
-2.26301e-06
-2.17278e-06
1.70908e-05
1.07607e-05
-3.73241e-06
1.19625e-05
-3.61157e-06
1.32351e-05
-3.53556e-06
-3.51241e-06
1.45747e-05
8.7908e-06
-4.68564e-06
9.80533e-06
-4.62608e-06
1.08778e-05
-4.60803e-06
-4.63877e-06
1.20042e-05
6.87737e-06
-5.45732e-06
7.69608e-06
-5.4448e-06
8.55796e-06
-5.46988e-06
-5.53909e-06
9.4583e-06
5.08173e-06
-6.04807e-06
5.70407e-06
-6.06715e-06
6.35333e-06
-6.11913e-06
-6.20968e-06
7.02393e-06
3.46365e-06
-6.46682e-06
3.89825e-06
-6.50175e-06
4.34301e-06
-6.56392e-06
-6.65797e-06
4.79129e-06
2.07656e-06
-6.73097e-06
2.34175e-06
-6.76694e-06
2.60124e-06
-6.82343e-06
-6.90388e-06
2.84714e-06
9.62435e-07
-6.86586e-06
1.08584e-06
-6.89034e-06
1.19015e-06
-6.92775e-06
-6.9801e-06
1.26637e-06
1.46542e-07
-6.90295e-06
1.63338e-07
-6.90714e-06
1.51788e-07
-6.91618e-06
-6.93054e-06
1.0223e-07
-3.67111e-07
-6.87695e-06
-4.1739e-07
-6.85687e-06
-4.99736e-07
-6.83383e-06
-6.8067e-06
-6.23579e-07
-5.98956e-07
-6.82181e-06
-6.77086e-07
-6.77875e-06
-7.84789e-07
-6.72614e-06
-6.66144e-06
-9.30037e-07
-5.94243e-07
-6.76615e-06
-6.67106e-07
-6.70591e-06
-7.61538e-07
-6.63173e-06
-6.54018e-06
-8.82789e-07
-4.188e-07
-6.72879e-06
-4.65241e-07
-6.65947e-06
-5.22531e-07
-6.57445e-06
-6.47016e-06
-5.92571e-07
-1.48295e-07
-1.62395e-07
-1.78497e-07
-1.96272e-07
2.71139e-05
1.76395e-05
2.42812e-05
1.44441e-05
2.12829e-05
1.12855e-05
1.8398e-05
8.32339e-06
1.54319e-05
5.60148e-06
1.26609e-05
3.65591e-06
1.11836e-05
2.85544e-06
1.0275e-05
2.24654e-06
9.51972e-06
1.73417e-06
8.49367e-06
1.17627e-06
6.87029e-06
6.15505e-07
4.51305e-06
8.42601e-07
1.56222e-06
2.33432e-06
-1.93723e-06
4.57996e-06
-5.72771e-06
6.93672e-06
-9.71397e-06
8.69788e-06
-1.33452e-05
1.01462e-05
-1.66496e-05
1.07907e-05
-1.9518e-05
1.08512e-05
-2.18642e-05
1.10157e-05
-2.36124e-05
1.12602e-05
-2.47517e-05
1.11227e-05
-2.51307e-05
1.06856e-05
-2.45809e-05
9.97941e-06
-2.30786e-05
8.7947e-06
-2.0689e-05
6.81749e-06
-1.75224e-05
3.78994e-06
-1.37622e-05
1.28093e-07
-9.46011e-06
-4.06923e-06
-4.58891e-06
-8.95107e-06
8.05882e-07
-1.48887e-05
6.54404e-06
-2.22065e-05
1.22103e-05
-3.12685e-05
1.71558e-05
-4.25767e-05
2.05366e-05
-5.63586e-05
2.15978e-05
-7.24005e-05
2.00237e-05
-8.96282e-05
1.59971e-05
-0.000106563
9.52532e-06
-0.00012254
-0.000136302
2.9157e-05
1.98377e-05
2.64933e-05
1.71078e-05
2.34761e-05
1.43027e-05
2.02205e-05
1.15789e-05
1.6745e-05
9.07699e-06
1.32975e-05
7.10344e-06
1.03222e-05
5.83071e-06
7.63751e-06
4.93127e-06
5.00732e-06
4.36436e-06
2.16359e-06
4.01999e-06
-8.65288e-07
3.64437e-06
-4.12798e-06
4.10529e-06
-7.64673e-06
5.85305e-06
-1.10484e-05
7.98162e-06
-1.4171e-05
1.00593e-05
-1.71468e-05
1.16737e-05
-1.97922e-05
1.27916e-05
-2.21331e-05
1.31316e-05
-2.41897e-05
1.29078e-05
-2.57121e-05
1.25382e-05
-2.64941e-05
1.20421e-05
-2.65882e-05
1.12169e-05
-2.59592e-05
1.00566e-05
-2.45346e-05
8.55477e-06
-2.23272e-05
6.58731e-06
-1.94575e-05
3.94783e-06
-1.6123e-05
4.55431e-07
-1.24102e-05
-3.58474e-06
-8.28348e-06
-8.19596e-06
-3.68281e-06
-1.35517e-05
1.33549e-06
-1.9907e-05
6.59162e-06
-2.74626e-05
1.17299e-05
-3.64068e-05
1.61184e-05
-4.69652e-05
1.90182e-05
-5.92583e-05
1.98934e-05
-7.32757e-05
1.84929e-05
-8.82277e-05
1.47686e-05
-0.000102838
8.6845e-06
-0.000116456
-0.000127617
2.98317e-05
2.18811e-05
2.72643e-05
1.96752e-05
2.42267e-05
1.73404e-05
2.07922e-05
1.50135e-05
1.70315e-05
1.28377e-05
1.31241e-05
1.10109e-05
9.30308e-06
9.65172e-06
5.56208e-06
8.67228e-06
1.87619e-06
8.05026e-06
-1.77954e-06
7.67573e-06
-5.47383e-06
7.33865e-06
-9.1973e-06
7.82874e-06
-1.28605e-05
9.51619e-06
-1.61595e-05
1.12806e-05
-1.89807e-05
1.28805e-05
-2.1424e-05
1.41171e-05
-2.34075e-05
1.4775e-05
-2.50068e-05
1.47309e-05
-2.6237e-05
1.4138e-05
-2.69329e-05
1.32341e-05
-2.69606e-05
1.20699e-05
-2.63228e-05
1.05791e-05
-2.50134e-05
8.74711e-06
-2.30112e-05
6.55256e-06
-2.03487e-05
3.92488e-06
-1.71856e-05
7.84699e-07
-1.37875e-05
-2.94268e-06
-1.01059e-05
-7.26632e-06
-6.11809e-06
-1.21838e-05
-1.84033e-06
-1.78295e-05
2.64677e-06
-2.43941e-05
7.18786e-06
-3.20037e-05
1.15161e-05
-4.0735e-05
1.51586e-05
-5.06078e-05
1.75384e-05
-6.16381e-05
1.8198e-05
-7.39352e-05
1.68571e-05
-8.68868e-05
1.33953e-05
-9.93764e-05
7.80621e-06
-0.000110867
-0.000119811
2.96505e-05
2.37999e-05
2.71837e-05
2.2142e-05
2.41941e-05
2.03299e-05
2.07347e-05
1.84729e-05
1.68823e-05
1.66901e-05
1.27759e-05
1.51173e-05
8.57777e-06
1.38499e-05
4.35613e-06
1.28939e-05
2.06716e-07
1.21997e-05
-3.66083e-06
1.15433e-05
-7.56713e-06
1.12449e-05
-1.15474e-05
1.1809e-05
-1.51495e-05
1.31183e-05
-1.82572e-05
1.43883e-05
-2.08326e-05
1.54559e-05
-2.2855e-05
1.61394e-05
-2.43358e-05
1.62559e-05
-2.53559e-05
1.57509e-05
-2.59355e-05
1.47176e-05
-2.5997e-05
1.32956e-05
-2.54714e-05
1.15443e-05
-2.43521e-05
9.4598e-06
-2.2645e-05
7.04003e-06
-2.03625e-05
4.27002e-06
-1.7548e-05
1.11046e-06
-1.42941e-05
-2.46923e-06
-1.07764e-05
-6.46043e-06
-7.09193e-06
-1.09508e-05
-3.26695e-06
-1.60088e-05
6.84849e-07
-2.17813e-05
4.68639e-06
-2.83956e-05
8.58744e-06
-3.59047e-05
1.21429e-05
-4.42905e-05
1.49607e-05
-5.34256e-05
1.66842e-05
-6.33616e-05
1.69727e-05
-7.42237e-05
1.5506e-05
-8.54202e-05
1.21858e-05
-9.60563e-05
7.02035e-06
-0.000105701
-0.000112791
2.90047e-05
2.5589e-05
2.66755e-05
2.44712e-05
2.38175e-05
2.31879e-05
2.04717e-05
2.18187e-05
1.67107e-05
2.0451e-05
1.2652e-05
1.9176e-05
8.43501e-06
1.80669e-05
4.15671e-06
1.71722e-05
-6.02967e-08
1.64167e-05
-3.96476e-06
1.54477e-05
-7.75642e-06
1.50366e-05
-1.15847e-05
1.56372e-05
-1.50096e-05
1.65432e-05
-1.78942e-05
1.72729e-05
-2.01777e-05
1.77394e-05
-2.18423e-05
1.7804e-05
-2.29337e-05
1.73474e-05
-2.35218e-05
1.6339e-05
-2.36383e-05
1.48342e-05
-2.32628e-05
1.292e-05
-2.23717e-05
1.06533e-05
-2.0969e-05
8.05709e-06
-1.9072e-05
5.14306e-06
-1.67104e-05
1.90844e-06
-1.39364e-05
-1.66356e-06
-1.08193e-05
-5.58636e-06
-7.41492e-06
-9.86477e-06
-3.81852e-06
-1.45472e-05
-9.8453e-08
-1.97288e-05
3.62317e-06
-2.55029e-05
7.17249e-06
-3.1945e-05
1.04238e-05
-3.91561e-05
1.32305e-05
-4.70971e-05
1.52961e-05
-5.54912e-05
1.63935e-05
-6.4459e-05
1.62258e-05
-7.4056e-05
1.45091e-05
-8.37035e-05
1.12167e-05
-9.27638e-05
6.36886e-06
-0.000100854
-0.000106422
2.81867e-05
2.72212e-05
2.60465e-05
2.66114e-05
2.34029e-05
2.58315e-05
2.02881e-05
2.49335e-05
1.67651e-05
2.3974e-05
1.29333e-05
2.30078e-05
8.92232e-06
2.20779e-05
4.86003e-06
2.12345e-05
9.50186e-07
2.03265e-05
-2.78386e-06
1.91818e-05
-6.3954e-06
1.86481e-05
-9.89613e-06
1.91379e-05
-1.29969e-05
1.9644e-05
-1.55532e-05
1.98292e-05
-1.75035e-05
1.96897e-05
-1.88443e-05
1.91449e-05
-1.96195e-05
1.81226e-05
-1.98883e-05
1.66078e-05
-1.96907e-05
1.46365e-05
-1.90377e-05
1.22671e-05
-1.79347e-05
9.55027e-06
-1.63979e-05
6.5203e-06
-1.44531e-05
3.1982e-06
-1.2136e-05
-4.08613e-07
-9.49636e-06
-4.3032e-06
-6.59094e-06
-8.49177e-06
-3.46861e-06
-1.29871e-05
-1.86658e-07
-1.78291e-05
3.17133e-06
-2.30868e-05
6.48924e-06
-2.88208e-05
9.62064e-06
-3.50764e-05
1.2355e-05
-4.18905e-05
1.44644e-05
-4.92065e-05
1.58502e-05
-5.68769e-05
1.63724e-05
-6.49813e-05
1.5737e-05
-7.34206e-05
1.37627e-05
-8.17292e-05
1.045e-05
-8.94512e-05
5.83922e-06
-9.62428e-05
-0.000100582
2.74048e-05
2.86567e-05
2.55108e-05
2.85054e-05
2.31599e-05
2.81824e-05
2.03774e-05
2.7716e-05
1.72146e-05
2.71368e-05
1.37502e-05
2.64722e-05
1.00972e-05
2.57309e-05
6.45502e-06
2.48767e-05
3.05925e-06
2.37223e-05
-3.40212e-07
2.25812e-05
-3.74879e-06
2.20567e-05
-6.86814e-06
2.22573e-05
-9.53054e-06
2.23064e-05
-1.16756e-05
2.19743e-05
-1.32614e-05
2.12755e-05
-1.42881e-05
2.01716e-05
-1.47918e-05
1.86262e-05
-1.48201e-05
1.66361e-05
-1.44146e-05
1.4231e-05
-1.36011e-05
1.14537e-05
-1.24011e-05
8.35027e-06
-1.08395e-05
4.95867e-06
-8.9465e-06
1.30524e-06
-6.75957e-06
-2.59554e-06
-4.32482e-06
-6.73794e-06
-1.69304e-06
-1.11235e-05
1.08391e-06
-1.5764e-05
3.94407e-06
-2.06893e-05
6.80041e-06
-2.59432e-05
9.54614e-06
-3.15666e-05
1.20563e-05
-3.75865e-05
1.41649e-05
-4.39992e-05
1.56772e-05
-5.07187e-05
1.65124e-05
-5.77121e-05
1.65062e-05
-6.49751e-05
1.54407e-05
-7.2355e-05
1.32232e-05
-7.95117e-05
9.86346e-06
-8.60914e-05
5.42155e-06
-9.18009e-05
-9.51609e-05
2.67962e-05
2.98517e-05
2.52038e-05
3.00978e-05
2.32156e-05
3.01705e-05
2.08537e-05
3.0078e-05
1.81616e-05
2.98289e-05
1.52064e-05
2.94274e-05
1.20834e-05
2.88538e-05
8.94858e-06
2.80116e-05
5.91087e-06
2.676e-05
2.93495e-06
2.55572e-05
-5.71916e-08
2.50489e-05
-2.70955e-06
2.49096e-05
-4.89459e-06
2.44914e-05
-6.60049e-06
2.36802e-05
-7.81213e-06
2.24871e-05
-8.53506e-06
2.08945e-05
-8.79809e-06
1.88893e-05
-8.63998e-06
1.6478e-05
-8.09853e-06
1.36895e-05
-7.20579e-06
1.0561e-05
-5.99057e-06
7.13506e-06
-4.48239e-06
3.45048e-06
-2.71349e-06
-4.63655e-07
-7.21459e-07
-4.58756e-06
1.4497e-06
-8.90908e-06
3.75095e-06
-1.34248e-05
6.12811e-06
-1.81412e-05
8.51572e-06
-2.30769e-05
1.08307e-05
-2.82581e-05
1.29725e-05
-3.37084e-05
1.48237e-05
-3.94377e-05
1.62517e-05
-4.54272e-05
1.71529e-05
-5.16199e-05
1.74149e-05
-5.79742e-05
1.68804e-05
-6.44407e-05
1.54031e-05
-7.08777e-05
1.29254e-05
-7.70339e-05
9.4731e-06
-8.26392e-05
5.12078e-06
-8.74486e-05
-9.00401e-05
2.64375e-05
3.07664e-05
2.51925e-05
3.13428e-05
2.36205e-05
3.17425e-05
2.17416e-05
3.19569e-05
1.95944e-05
3.19761e-05
1.72362e-05
3.17856e-05
1.47369e-05
3.13531e-05
1.21485e-05
3.06e-05
9.47289e-06
2.94356e-05
6.88194e-06
2.81481e-05
4.42572e-06
2.75051e-05
2.33039e-06
2.7005e-05
6.5366e-07
2.61682e-05
-6.06675e-07
2.49405e-05
-1.44891e-06
2.33293e-05
-1.88264e-06
2.13283e-05
-1.9306e-06
1.89372e-05
-1.62413e-06
1.61715e-05
-9.95908e-07
1.30613e-05
-7.91614e-08
9.64422e-06
1.09474e-06
5.96119e-06
2.49456e-06
2.05066e-06
4.08738e-06
-2.05645e-06
5.83581e-06
-6.33598e-06
7.69742e-06
-1.07707e-05
9.62452e-06
-1.53519e-05
1.1563e-05
-2.00797e-05
1.34488e-05
-2.49627e-05
1.52046e-05
-3.00139e-05
1.67402e-05
-3.5244e-05
1.7955e-05
-4.06526e-05
1.87456e-05
-4.62178e-05
1.90179e-05
-5.18922e-05
1.86724e-05
-5.76286e-05
1.7592e-05
-6.33603e-05
1.56796e-05
-6.89653e-05
1.29024e-05
-7.42567e-05
9.29608e-06
-7.90328e-05
4.94347e-06
-8.3096e-05
-8.50966e-05
2.63566e-05
3.137e-05
2.549e-05
3.22094e-05
2.43649e-05
3.28676e-05
2.2999e-05
3.33228e-05
2.14234e-05
3.35516e-05
1.96816e-05
3.35274e-05
1.78194e-05
3.32153e-05
1.58527e-05
3.25667e-05
1.37321e-05
3.15562e-05
1.15296e-05
3.03507e-05
9.60158e-06
2.94331e-05
8.07089e-06
2.85357e-05
6.89708e-06
2.7342e-05
6.06596e-06
2.57716e-05
5.57526e-06
2.38201e-05
5.41281e-06
2.14907e-05
5.55827e-06
1.87918e-05
5.98603e-06
1.57438e-05
6.66688e-06
1.23805e-05
7.56944e-06
8.74163e-06
8.66267e-06
4.86799e-06
9.91548e-06
7.97846e-07
1.12953e-05
-3.43621e-06
1.27656e-05
-7.80629e-06
1.42859e-05
-1.2291e-05
1.58106e-05
-1.68766e-05
1.72877e-05
-2.15568e-05
1.8657e-05
-2.6332e-05
1.98484e-05
-3.12052e-05
2.07826e-05
-3.61782e-05
2.1375e-05
-4.12449e-05
2.15378e-05
-4.63805e-05
2.11885e-05
-5.15429e-05
2.02454e-05
-5.66855e-05
1.86248e-05
-6.17398e-05
1.62635e-05
-6.6604e-05
1.31509e-05
-7.1144e-05
9.3303e-06
-7.52122e-05
4.88888e-06
-7.86545e-05
-8.02077e-05
2.6546e-05
3.16427e-05
2.60735e-05
3.26818e-05
2.54057e-05
3.35354e-05
2.45561e-05
3.41725e-05
2.35466e-05
3.45611e-05
2.24054e-05
3.46686e-05
2.11578e-05
3.44629e-05
1.98089e-05
3.39156e-05
1.83341e-05
3.3031e-05
1.67665e-05
3.19183e-05
1.5401e-05
3.07986e-05
1.43635e-05
2.95732e-05
1.36356e-05
2.80699e-05
1.31931e-05
2.62141e-05
1.30229e-05
2.39903e-05
1.31087e-05
2.14049e-05
1.34284e-05
1.8472e-05
1.39575e-05
1.52146e-05
1.46688e-05
1.16693e-05
1.55332e-05
7.87716e-06
1.65215e-05
3.87974e-06
1.76037e-05
-2.84353e-07
1.87483e-05
-4.58078e-06
1.99206e-05
-8.97863e-06
2.10825e-05
-1.34529e-05
2.21913e-05
-1.79853e-05
2.31985e-05
-2.25641e-05
2.40491e-05
-2.71826e-05
2.46806e-05
-3.18368e-05
2.50244e-05
-3.6522e-05
2.50077e-05
-4.12282e-05
2.45571e-05
-4.593e-05
2.36037e-05
-5.05895e-05
2.20819e-05
-5.51637e-05
1.99331e-05
-5.9591e-05
1.71196e-05
-6.37905e-05
1.36454e-05
-6.76699e-05
9.55965e-06
-7.11265e-05
4.95004e-06
-7.40449e-05
-7.52577e-05
2.69743e-05
3.15755e-05
2.68987e-05
3.27573e-05
2.66838e-05
3.37503e-05
2.63382e-05
3.45181e-05
2.5875e-05
3.50243e-05
2.53095e-05
3.52342e-05
2.46539e-05
3.51185e-05
2.39105e-05
3.4659e-05
2.30769e-05
3.38646e-05
2.21971e-05
3.2798e-05
2.14402e-05
3.15555e-05
2.09062e-05
3.01072e-05
2.06073e-05
2.83689e-05
2.05298e-05
2.62916e-05
2.06577e-05
2.38623e-05
2.09726e-05
2.109e-05
2.14519e-05
1.79927e-05
2.20696e-05
1.45969e-05
2.27994e-05
1.09395e-05
2.3614e-05
7.0625e-06
2.44861e-05
3.00767e-06
2.53875e-05
-1.18574e-06
2.62883e-05
-5.48163e-06
2.71564e-05
-9.8467e-06
2.79564e-05
-1.42529e-05
2.86492e-05
-1.8678e-05
2.91906e-05
-2.31055e-05
2.95314e-05
-2.75234e-05
2.96169e-05
-3.19223e-05
2.93879e-05
-3.6293e-05
2.87821e-05
-4.06225e-05
2.77404e-05
-4.48883e-05
2.62064e-05
-4.90555e-05
2.41289e-05
-5.30861e-05
2.14665e-05
-5.69286e-05
1.82027e-05
-6.05267e-05
1.43501e-05
-6.38174e-05
9.95923e-06
-6.67356e-05
5.11434e-06
-6.92e-05
-7.01434e-05
2.7594e-05
3.11692e-05
2.79081e-05
3.24433e-05
2.81316e-05
3.35267e-05
2.82689e-05
3.43809e-05
2.8326e-05
3.49672e-05
2.83092e-05
3.52509e-05
2.82232e-05
3.52045e-05
2.807e-05
3.48123e-05
2.78573e-05
3.40772e-05
2.76232e-05
3.30322e-05
2.74584e-05
3.17203e-05
2.74306e-05
3.0135e-05
2.75594e-05
2.82401e-05
2.78389e-05
2.60121e-05
2.82548e-05
2.34464e-05
2.87888e-05
2.0556e-05
2.94184e-05
1.73631e-05
3.01182e-05
1.38972e-05
3.08622e-05
1.01955e-05
3.1625e-05
6.29976e-06
3.23806e-05
2.25208e-06
3.31027e-05
-1.90785e-06
3.37636e-05
-6.14252e-06
3.43337e-05
-1.04168e-05
3.47809e-05
-1.47001e-05
3.50699e-05
-1.8967e-05
3.51615e-05
-2.31971e-05
3.50123e-05
-2.73743e-05
3.45751e-05
-3.14851e-05
3.37992e-05
-3.55171e-05
3.26331e-05
-3.94563e-05
3.1028e-05
-4.32832e-05
2.89415e-05
-4.6969e-05
2.63326e-05
-5.04773e-05
2.31757e-05
-5.37718e-05
1.94674e-05
-5.68184e-05
1.5226e-05
-5.95759e-05
1.04994e-05
-6.2009e-05
5.36498e-06
-6.40656e-05
-6.47784e-05
2.83478e-05
3.04328e-05
2.90359e-05
3.17553e-05
2.96756e-05
3.2887e-05
3.02679e-05
3.37886e-05
3.08136e-05
3.44215e-05
3.1313e-05
3.47515e-05
3.17659e-05
3.47515e-05
3.21726e-05
3.44056e-05
3.25397e-05
3.37101e-05
3.28921e-05
3.26798e-05
3.32778e-05
3.13346e-05
3.37361e-05
2.96767e-05
3.42812e-05
2.7695e-05
3.49097e-05
2.53836e-05
3.56075e-05
2.27486e-05
3.63556e-05
1.98079e-05
3.71324e-05
1.65864e-05
3.7914e-05
1.31156e-05
3.86756e-05
9.43384e-06
3.93927e-05
5.58262e-06
4.0041e-05
1.60383e-06
4.05958e-05
-2.46262e-06
4.10315e-05
-6.57821e-06
4.13212e-05
-1.07065e-05
4.14361e-05
-1.48151e-05
4.1345e-05
-1.88759e-05
4.10134e-05
-2.28656e-05
4.04039e-05
-2.67647e-05
3.94761e-05
-3.05573e-05
3.81879e-05
-3.42289e-05
3.64967e-05
-3.77651e-05
3.43628e-05
-4.11493e-05
3.17531e-05
-4.43593e-05
2.864e-05
-4.73642e-05
2.50111e-05
-5.01429e-05
2.08684e-05
-5.26756e-05
1.62327e-05
-5.49402e-05
1.11482e-05
-5.69245e-05
5.68268e-06
-5.86001e-05
-5.90957e-05
2.91727e-05
2.93825e-05
3.02121e-05
3.07159e-05
3.12394e-05
3.18597e-05
3.22527e-05
3.27753e-05
3.3249e-05
3.34252e-05
3.42245e-05
3.37759e-05
3.5175e-05
3.38011e-05
3.60973e-05
3.34833e-05
3.69921e-05
3.28154e-05
3.78708e-05
3.18011e-05
3.87558e-05
3.04495e-05
3.96648e-05
2.87676e-05
4.06032e-05
2.67566e-05
4.15645e-05
2.44224e-05
4.2534e-05
2.17791e-05
4.34929e-05
1.8849e-05
4.44183e-05
1.5661e-05
4.52873e-05
1.22467e-05
4.60761e-05
8.64501e-06
4.67613e-05
4.89748e-06
4.73196e-05
1.04554e-06
4.77279e-05
-2.87099e-06
4.79628e-05
-6.81304e-06
4.79997e-05
-1.07434e-05
4.7813e-05
-1.46284e-05
4.73752e-05
-1.84381e-05
4.66564e-05
-2.21468e-05
4.56247e-05
-2.5733e-05
4.42462e-05
-2.91788e-05
4.2486e-05
-3.24687e-05
4.031e-05
-3.5589e-05
3.76863e-05
-3.85256e-05
3.45891e-05
-4.12621e-05
3.10042e-05
-4.37793e-05
2.69262e-05
-4.60649e-05
2.23606e-05
-4.811e-05
1.73295e-05
-4.99091e-05
1.18728e-05
-5.14678e-05
6.0472e-06
-5.27745e-05
-5.30485e-05
3.0004e-05
2.80409e-05
3.13664e-05
2.93535e-05
3.2747e-05
3.0479e-05
3.41419e-05
3.13804e-05
3.55453e-05
3.20217e-05
3.69501e-05
3.23712e-05
3.83482e-05
3.24029e-05
3.97324e-05
3.20991e-05
4.10975e-05
3.14503e-05
4.24428e-05
3.04558e-05
4.37724e-05
2.912e-05
4.50892e-05
2.74508e-05
4.63898e-05
2.5456e-05
4.76625e-05
2.31497e-05
4.88905e-05
2.05511e-05
5.00538e-05
1.76857e-05
5.11296e-05
1.45852e-05
5.20943e-05
1.1282e-05
5.29243e-05
7.81504e-06
5.35965e-05
4.22529e-06
5.40886e-05
5.53428e-07
5.43788e-05
-3.16117e-06
5.4445e-05
-6.87927e-06
5.4265e-05
-1.05634e-05
5.38156e-05
-1.41791e-05
5.30727e-05
-1.76951e-05
5.20105e-05
-2.10846e-05
5.06017e-05
-2.43243e-05
4.88182e-05
-2.73953e-05
4.66317e-05
-3.02822e-05
4.4015e-05
-3.29723e-05
4.09441e-05
-3.54547e-05
3.74009e-05
-3.77189e-05
3.33774e-05
-3.97558e-05
2.88736e-05
-4.15612e-05
2.38992e-05
-4.31356e-05
1.84767e-05
-4.44865e-05
1.26412e-05
-4.56324e-05
6.439e-06
-4.65723e-05
-4.66095e-05
3.07787e-05
2.64356e-05
3.24308e-05
2.77014e-05
3.41262e-05
2.87836e-05
3.58592e-05
2.96474e-05
3.7622e-05
3.0259e-05
3.94045e-05
3.05886e-05
4.11956e-05
3.06119e-05
4.29835e-05
3.03112e-05
4.47574e-05
2.96764e-05
4.65082e-05
2.8705e-05
4.82276e-05
2.74005e-05
4.99074e-05
2.57711e-05
5.15346e-05
2.38287e-05
5.30934e-05
2.15909e-05
5.4564e-05
1.90805e-05
5.59245e-05
1.63253e-05
5.71519e-05
1.33578e-05
5.82213e-05
1.02126e-05
5.91083e-05
6.92802e-06
5.979e-05
3.54364e-06
6.02443e-05
9.91092e-08
6.045e-05
-3.3668e-06
6.03858e-05
-6.81513e-06
6.0031e-05
-1.02086e-05
5.93644e-05
-1.35124e-05
5.83643e-05
-1.6695e-05
5.70081e-05
-1.97284e-05
5.52726e-05
-2.25888e-05
5.31345e-05
-2.52571e-05
5.05708e-05
-2.77186e-05
4.75608e-05
-2.99623e-05
4.40869e-05
-3.19808e-05
4.01376e-05
-3.37696e-05
3.57092e-05
-3.53275e-05
3.08061e-05
-3.6658e-05
2.5441e-05
-3.77706e-05
1.96368e-05
-3.86822e-05
1.34245e-05
-3.94201e-05
6.84069e-06
-3.99885e-05
-3.97688e-05
3.14378e-05
2.45981e-05
3.3343e-05
2.57962e-05
3.53116e-05
2.6815e-05
3.73366e-05
2.76224e-05
3.94083e-05
2.81873e-05
4.15145e-05
2.84823e-05
4.36414e-05
2.8485e-05
4.57735e-05
2.81791e-05
4.78952e-05
2.75548e-05
4.99908e-05
2.66094e-05
5.20446e-05
2.53467e-05
5.40397e-05
2.37759e-05
5.5957e-05
2.19114e-05
5.77753e-05
1.97726e-05
5.94717e-05
1.73841e-05
6.10219e-05
1.4775e-05
6.24013e-05
1.19784e-05
6.3584e-05
9.02995e-06
6.4545e-05
5.96701e-06
6.52606e-05
2.82799e-06
6.57085e-05
-3.48712e-07
6.58668e-05
-3.52511e-06
6.57146e-05
-6.66296e-06
6.52315e-05
-9.72553e-06
6.43974e-05
-1.26783e-05
6.3192e-05
-1.54896e-05
6.15952e-05
-1.81315e-05
5.95866e-05
-2.05803e-05
5.71468e-05
-2.28173e-05
5.42574e-05
-2.48291e-05
5.09026e-05
-2.66074e-05
4.70705e-05
-2.81487e-05
4.27548e-05
-2.94539e-05
3.7956e-05
-3.05287e-05
3.2682e-05
-3.1384e-05
2.69482e-05
-3.20368e-05
2.07775e-05
-3.25116e-05
1.41979e-05
-3.28405e-05
7.23805e-06
-3.30286e-05
-3.25308e-05
3.19286e-05
2.25628e-05
3.40481e-05
2.36767e-05
3.62465e-05
2.46166e-05
3.85157e-05
2.53531e-05
4.0845e-05
2.58581e-05
4.32204e-05
2.61069e-05
4.56259e-05
2.60795e-05
4.80436e-05
2.57614e-05
5.04539e-05
2.51444e-05
5.28368e-05
2.42265e-05
5.51711e-05
2.30124e-05
5.74347e-05
2.15123e-05
5.96039e-05
1.97422e-05
6.16536e-05
1.7723e-05
6.35574e-05
1.54802e-05
6.52887e-05
1.30437e-05
6.68204e-05
1.04467e-05
6.81257e-05
7.7246e-06
6.91787e-05
4.9141e-06
6.99542e-05
2.05249e-06
7.04285e-05
-8.23053e-07
7.05789e-05
-3.67542e-06
7.03833e-05
-6.46737e-06
6.98208e-05
-9.16306e-06
6.88712e-05
-1.17287e-05
6.75146e-05
-1.41331e-05
6.57321e-05
-1.6349e-05
6.35054e-05
-1.83536e-05
6.08176e-05
-2.01295e-05
5.7654e-05
-2.16655e-05
5.4003e-05
-2.29565e-05
4.98574e-05
-2.40031e-05
4.52153e-05
-2.48118e-05
4.00813e-05
-2.53947e-05
3.44666e-05
-2.57694e-05
2.83891e-05
-2.59594e-05
2.18722e-05
-2.59947e-05
1.49417e-05
-2.591e-05
7.6202e-06
-2.57071e-05
-2.49106e-05
3.22058e-05
2.03659e-05
3.44993e-05
2.13832e-05
3.68834e-05
2.22325e-05
3.93493e-05
2.28872e-05
4.18852e-05
2.33222e-05
4.44762e-05
2.35159e-05
4.71049e-05
2.34508e-05
4.97515e-05
2.31148e-05
5.23944e-05
2.25015e-05
5.50103e-05
2.16106e-05
5.7575e-05
2.04477e-05
6.00628e-05
1.90246e-05
6.24468e-05
1.73581e-05
6.46993e-05
1.54705e-05
6.67915e-05
1.3388e-05
6.86944e-05
1.11409e-05
7.03789e-05
8.76213e-06
7.18168e-05
6.28679e-06
7.298e-05
3.75085e-06
7.38419e-05
1.19066e-06
7.43765e-05
-1.35765e-06
7.45589e-05
-3.85781e-06
7.43652e-05
-6.27372e-06
7.37728e-05
-8.57066e-06
7.27601e-05
-1.07159e-05
7.13066e-05
-1.26796e-05
6.93932e-05
-1.44356e-05
6.70026e-05
-1.59629e-05
6.41197e-05
-1.72466e-05
6.07324e-05
-1.82783e-05
5.68327e-05
-1.90568e-05
5.24174e-05
-1.95877e-05
4.74887e-05
-1.98831e-05
4.20551e-05
-1.99611e-05
3.61313e-05
-1.98456e-05
2.97379e-05
-1.9566e-05
2.28994e-05
-1.91562e-05
1.56405e-05
-1.86511e-05
7.97928e-06
-1.80459e-05
-1.69313e-05
3.22316e-05
1.80442e-05
3.46587e-05
1.89562e-05
3.71847e-05
1.97064e-05
3.98005e-05
2.02714e-05
4.24936e-05
2.06291e-05
4.52488e-05
2.07608e-05
4.80477e-05
2.06519e-05
5.087e-05
2.02926e-05
5.36927e-05
1.96788e-05
5.64913e-05
1.88119e-05
5.92397e-05
1.76993e-05
6.19106e-05
1.63538e-05
6.44751e-05
1.47936e-05
6.69038e-05
1.30418e-05
6.91664e-05
1.11255e-05
7.12321e-05
9.07516e-06
7.30703e-05
6.92397e-06
7.46504e-05
4.70666e-06
7.59425e-05
2.45878e-06
7.69171e-05
2.16023e-07
7.75456e-05
-1.98612e-06
7.77998e-05
-4.11203e-06
7.76529e-05
-6.12677e-06
7.70792e-05
-7.99696e-06
7.60546e-05
-9.69137e-06
7.45568e-05
-1.11818e-05
7.25655e-05
-1.24444e-05
7.00632e-05
-1.34606e-05
6.70357e-05
-1.42191e-05
6.3473e-05
-1.47156e-05
5.93701e-05
-1.49538e-05
5.47272e-05
-1.49449e-05
4.95508e-05
-1.47067e-05
4.38533e-05
-1.42636e-05
3.76531e-05
-1.36454e-05
3.09737e-05
-1.28865e-05
2.38414e-05
-1.20239e-05
1.62811e-05
-1.10908e-05
8.30855e-06
-1.00733e-05
-8.62276e-06
3.19763e-05
1.56352e-05
3.44968e-05
1.64357e-05
3.7122e-05
1.70813e-05
3.98423e-05
1.75511e-05
4.26453e-05
1.78261e-05
4.55156e-05
1.78905e-05
4.84351e-05
1.77323e-05
5.13832e-05
1.73445e-05
5.43371e-05
1.67249e-05
5.7272e-05
1.5877e-05
6.01615e-05
1.48098e-05
6.29777e-05
1.35376e-05
6.56914e-05
1.20799e-05
6.82723e-05
1.04609e-05
7.06893e-05
8.70846e-06
7.29106e-05
6.85384e-06
7.4904e-05
4.93062e-06
7.66368e-05
2.97382e-06
7.80765e-05
1.01909e-06
7.91904e-05
-8.97889e-07
7.99459e-05
-2.74162e-06
8.03108e-05
-4.47695e-06
8.02541e-05
-6.07002e-06
7.97459e-05
-7.48883e-06
7.87585e-05
-8.70397e-06
7.72664e-05
-9.68965e-06
7.5247e-05
-1.0425e-05
7.26817e-05
-1.08954e-05
6.95566e-05
-1.1094e-05
6.58633e-05
-1.10223e-05
6.15995e-05
-1.06899e-05
5.67691e-05
-1.01145e-05
5.13827e-05
-9.32031e-06
4.54568e-05
-8.33778e-06
3.90136e-05
-7.20228e-06
3.20799e-05
-5.95273e-06
2.4684e-05
-4.62812e-06
1.68507e-05
-3.25744e-06
8.59279e-06
-1.81541e-06
-2.99393e-08
3.1418e-05
1.31758e-05
3.39924e-05
1.38613e-05
3.66749e-05
1.43987e-05
3.94561e-05
1.47699e-05
4.23237e-05
1.49585e-05
4.5263e-05
1.49512e-05
4.82563e-05
1.4739e-05
5.12841e-05
1.43168e-05
5.43242e-05
1.36848e-05
5.73528e-05
1.28483e-05
6.03444e-05
1.18182e-05
6.32717e-05
1.06103e-05
6.61063e-05
9.24541e-06
6.88181e-05
7.74906e-06
7.1376e-05
6.15052e-06
7.37477e-05
4.48221e-06
7.58994e-05
2.77887e-06
7.77966e-05
1.07662e-06
7.94035e-05
-5.87815e-07
8.06833e-05
-2.17774e-06
8.15987e-05
-3.65697e-06
8.21122e-05
-4.99052e-06
8.21875e-05
-6.14531e-06
8.17894e-05
-7.09077e-06
8.08851e-05
-7.79968e-06
7.94448e-05
-8.24936e-06
7.74429e-05
-8.42306e-06
7.4859e-05
-8.31144e-06
7.16788e-05
-7.91384e-06
6.78954e-05
-7.23886e-06
6.35094e-05
-6.30389e-06
5.85287e-05
-5.13388e-06
5.29685e-05
-3.76008e-06
4.68496e-05
-2.21889e-06
4.01981e-05
-5.50761e-07
3.30437e-05
1.20166e-06
2.54172e-05
2.99838e-06
1.73445e-05
4.81525e-06
8.84006e-06
6.68907e-06
8.81014e-06
3.05422e-05
1.07029e-05
3.31317e-05
1.12718e-05
3.58311e-05
1.16994e-05
3.8631e-05
1.197e-05
4.152e-05
1.20695e-05
4.44841e-05
1.19871e-05
4.75072e-05
1.17158e-05
5.05711e-05
1.12529e-05
5.36554e-05
1.06004e-05
5.67382e-05
9.76551e-06
5.97959e-05
8.76053e-06
6.28031e-05
7.60301e-06
6.5733e-05
6.31548e-06
6.85571e-05
4.92504e-06
7.12447e-05
3.46284e-06
7.37636e-05
1.96333e-06
7.6079e-05
4.63444e-07
7.81539e-05
-9.98313e-07
7.99488e-05
-2.38274e-06
8.1422e-05
-3.6509e-06
8.25302e-05
-4.76514e-06
8.32297e-05
-5.69002e-06
8.34773e-05
-6.39296e-06
8.32313e-05
-6.8448e-06
8.24526e-05
-7.02096e-06
8.11061e-05
-6.9029e-06
7.91624e-05
-6.47938e-06
7.65988e-05
-5.74783e-06
7.34007e-05
-4.71574e-06
6.95628e-05
-3.4009e-06
6.50891e-05
-1.83023e-06
5.99926e-05
-3.73555e-08
5.42931e-05
1.93932e-06
4.80164e-05
4.0579e-06
4.11919e-05
6.27367e-06
3.38524e-05
8.54119e-06
2.60308e-05
1.082e-05
1.77564e-05
1.30897e-05
9.04938e-06
1.53961e-05
1.78595e-05
2.93426e-05
8.25298e-06
3.1909e-05
8.70538e-06
3.45853e-05
9.02315e-06
3.73629e-05
9.19239e-06
4.02312e-05
9.20114e-06
4.31778e-05
9.04053e-06
4.61882e-05
8.70538e-06
4.92464e-05
8.19468e-06
5.23347e-05
7.51207e-06
5.5434e-05
6.66619e-06
5.85236e-05
5.67091e-06
6.15813e-05
4.54534e-06
6.45829e-05
3.31385e-06
6.75023e-05
2.00569e-06
7.03105e-05
6.54604e-07
7.29756e-05
-7.01814e-07
7.5462e-05
-2.02294e-06
7.77299e-05
-3.26619e-06
7.97353e-05
-4.38815e-06
8.14305e-05
-5.34616e-06
8.27652e-05
-6.09985e-06
8.36878e-05
-6.61256e-06
8.41468e-05
-6.85196e-06
8.40923e-05
-6.79039e-06
8.34779e-05
-6.40651e-06
8.22624e-05
-5.68743e-06
8.04123e-05
-4.62923e-06
7.79024e-05
-3.23792e-06
7.47178e-05
-1.5312e-06
7.08555e-05
4.61444e-07
6.6324e-05
2.70125e-06
6.11422e-05
5.14449e-06
5.5336e-05
7.74547e-06
4.89362e-05
1.04578e-05
4.19759e-05
1.3234e-05
3.44898e-05
1.60273e-05