/*--------------------------------*- C++ -*----------------------------------*\
| =========                 |                                                 |
| \\      /  F ield         | OpenFOAM: The Open Source CFD Toolbox           |
|  \\    /   O peration     | Version:  5.0                                   |
|   \\  /    A nd           | Web:      www.OpenFOAM.org                      |
|    \\/     M anipulation  |                                                 |
\*---------------------------------------------------------------------------*/
FoamFile
{
    version     2.0;
    format      ascii;
    class       volVectorField;
    location    "0.85";
    object      U;
}
// * * * * * * * * * * * * * * * * * * * * * * * * * * * * * * * * * * * * * //

dimensions      [0 1 -1 0 0 0 0];

internalField   nonuniform List<vector> 
1935
(
(0.362727 0.276874 0)
(0.362775 0.278537 0)
(0.356069 0.277979 0)
(0.344751 0.276319 0)
(0.330593 0.27422 0)
(0.315021 0.271987 0)
(0.29915 0.269678 0)
(0.283817 0.267181 0)
(0.269604 0.264285 0)
(0.256871 0.260731 0)
(0.245783 0.256256 0)
(0.236342 0.250621 0)
(0.228423 0.243634 0)
(0.221804 0.235156 0)
(0.2162 0.22511 0)
(0.21129 0.21348 0)
(0.20674 0.200308 0)
(0.202221 0.185689 0)
(0.197431 0.169762 0)
(0.192096 0.152705 0)
(0.18599 0.134728 0)
(0.17893 0.116062 0)
(0.170791 0.09696 0)
(0.161499 0.0776878 0)
(0.151044 0.05852 0)
(0.139473 0.0397364 0)
(0.126898 0.0216179 0)
(0.113494 0.00444024 0)
(0.0994975 -0.0115334 0)
(0.0851958 -0.0260642 0)
(0.0709192 -0.0389481 0)
(0.057029 -0.0500275 0)
(0.0438996 -0.0592062 0)
(0.0318952 -0.066462 0)
(0.0213445 -0.0718554 0)
(0.0125149 -0.0755333 0)
(0.00558595 -0.0777252 0)
(0.000626782 -0.0787295 0)
(-0.00242064 -0.0788881 0)
(-0.00374673 -0.0785512 0)
(-0.00366379 -0.0780387 0)
(-0.00257408 -0.0776226 0)
(-0.000913663 -0.0773438 0)
(0.357144 0.263395 0)
(0.347411 0.245981 0)
(0.333476 0.224482 0)
(0.315874 0.1992 0)
(0.360368 0.269432 0)
(0.354227 0.256504 0)
(0.344108 0.239445 0)
(0.330029 0.218347 0)
(0.355401 0.272804 0)
(0.351287 0.26408 0)
(0.343374 0.251465 0)
(0.33142 0.23494 0)
(0.344928 0.274765 0)
(0.341902 0.27002 0)
(0.335273 0.261774 0)
(0.32469 0.249933 0)
(0.331141 0.27603 0)
(0.328726 0.275038 0)
(0.322949 0.27099 0)
(0.313428 0.263738 0)
(0.315769 0.276912 0)
(0.31381 0.279409 0)
(0.308777 0.279295 0)
(0.300307 0.27638 0)
(0.300126 0.277446 0)
(0.298674 0.283123 0)
(0.294482 0.286598 0)
(0.287225 0.287647 0)
(0.285169 0.277491 0)
(0.284394 0.285995 0)
(0.281244 0.29265 0)
(0.275449 0.297204 0)
(0.271541 0.276802 0)
(0.271663 0.287746 0)
(0.269794 0.297129 0)
(0.26572 0.304678 0)
(0.259615 0.2751 0)
(0.260854 0.288073 0)
(0.260492 0.29971 0)
(0.258364 0.309721 0)
(0.249535 0.272106 0)
(0.252085 0.286692 0)
(0.25341 0.300111 0)
(0.253392 0.312056 0)
(0.241265 0.267584 0)
(0.245269 0.283374 0)
(0.248404 0.298117 0)
(0.250587 0.311499 0)
(0.234628 0.26135 0)
(0.240173 0.277954 0)
(0.245175 0.293597 0)
(0.249578 0.307957 0)
(0.229349 0.253286 0)
(0.236463 0.270345 0)
(0.243327 0.286497 0)
(0.249902 0.301424 0)
(0.225086 0.243343 0)
(0.233743 0.260529 0)
(0.242405 0.276845 0)
(0.251046 0.291976 0)
(0.221469 0.231534 0)
(0.231591 0.248558 0)
(0.241936 0.264734 0)
(0.252486 0.279756 0)
(0.21812 0.217936 0)
(0.229585 0.234546 0)
(0.241456 0.250323 0)
(0.253719 0.264972 0)
(0.214673 0.202678 0)
(0.227325 0.218661 0)
(0.240532 0.233821 0)
(0.25428 0.247876 0)
(0.210795 0.185932 0)
(0.224451 0.201112 0)
(0.238778 0.215477 0)
(0.253764 0.228763 0)
(0.206192 0.167911 0)
(0.220648 0.182147 0)
(0.235865 0.195576 0)
(0.251828 0.207954 0)
(0.20062 0.148854 0)
(0.215661 0.162035 0)
(0.231527 0.174422 0)
(0.248201 0.185786 0)
(0.193887 0.129022 0)
(0.209291 0.141067 0)
(0.225561 0.152334 0)
(0.24268 0.162611 0)
(0.185862 0.108693 0)
(0.201402 0.119547 0)
(0.217832 0.129641 0)
(0.235132 0.138782 0)
(0.176469 0.0881553 0)
(0.19192 0.0977842 0)
(0.208269 0.106677 0)
(0.225492 0.114654 0)
(0.165697 0.0677051 0)
(0.180836 0.0760967 0)
(0.196866 0.0837772 0)
(0.213761 0.0905835 0)
(0.1536 0.0476424 0)
(0.168209 0.0548029 0)
(0.183688 0.06128 0)
(0.200013 0.0669247 0)
(0.140296 0.0282673 0)
(0.154164 0.0342211 0)
(0.168871 0.0395209 0)
(0.184389 0.0440303 0)
(0.125972 0.00987506 0)
(0.138902 0.0146653 0)
(0.152624 0.0188316 0)
(0.167112 0.0222495 0)
(0.110882 -0.00724989 0)
(0.122691 -0.00356052 0)
(0.135232 -0.000464379 0)
(0.148481 0.00192464 0)
(0.0953392 -0.0228461 0)
(0.10587 -0.0201727 0)
(0.117059 -0.0180613 0)
(0.128881 -0.0166163 0)
(0.0797081 -0.0366862 0)
(0.088835 -0.0349206 0)
(0.0985311 -0.0336845 0)
(0.10877 -0.0330735 0)
(0.0643914 -0.04859 0)
(0.0720307 -0.0476005 0)
(0.0801354 -0.047105 0)
(0.0886766 -0.047191 0)
(0.0498133 -0.0584402 0)
(0.0559329 -0.058073 0)
(0.0624016 -0.0581591 0)
(0.0691865 -0.0587778 0)
(0.0363951 -0.0661985 0)
(0.0410228 -0.0662821 0)
(0.0458757 -0.0667705 0)
(0.0509149 -0.0677338 0)
(0.0245264 -0.071918 0)
(0.0277556 -0.0722713 0)
(0.0310855 -0.0729707 0)
(0.0344697 -0.0740757 0)
(0.0145334 -0.0757499 0)
(0.0165234 -0.0761946 0)
(0.0184984 -0.0769148 0)
(0.0204043 -0.0779571 0)
(0.00664649 -0.0779415 0)
(0.00761572 -0.0783176 0)
(0.00847416 -0.0788867 0)
(0.00916112 -0.0796803 0)
(0.000970889 -0.078824 0)
(0.0011818 -0.079006 0)
(0.00121669 -0.0792899 0)
(0.00101164 -0.0796901 0)
(-0.0025369 -0.078785 0)
(-0.00280175 -0.0786977 0)
(-0.00326902 -0.078619 0)
(-0.00400014 -0.0785452 0)
(-0.00408059 -0.0782281 0)
(-0.00455024 -0.0778564 0)
(-0.00520723 -0.0774083 0)
(-0.00610279 -0.0768617 0)
(-0.00401611 -0.0775242 0)
(-0.00446791 -0.0769128 0)
(-0.00505685 -0.0761599 0)
(-0.00581634 -0.0752298 0)
(-0.0028151 -0.0769813 0)
(-0.0031085 -0.0762172 0)
(-0.0034722 -0.0752773 0)
(-0.00391863 -0.0741201 0)
(-0.000993199 -0.0766554 0)
(-0.00108472 -0.0758383 0)
(-0.00119074 -0.07484 0)
(-0.00131002 -0.0736223 0)
(0.293816 0.1687 0)
(0.266226 0.13401 0)
(0.235458 0.100906 0)
(0.204634 0.0710801 0)
(0.174296 0.0430294 0)
(0.143639 0.0237386 0)
(0.120802 0.0192923 0)
(0.109738 0.0151946 0)
(0.102755 0.0105148 0)
(0.0943233 0.00313344 0)
(0.0794824 -0.00502147 0)
(0.0606104 -0.00438136 0)
(0.0350034 0.0100747 0)
(-0.00103661 0.0327839 0)
(-0.0397972 0.0574624 0)
(-0.0794712 0.0744497 0)
(-0.119325 0.0894949 0)
(-0.157056 0.0974223 0)
(-0.188709 0.0990599 0)
(-0.214226 0.102073 0)
(-0.23645 0.108246 0)
(-0.251789 0.110985 0)
(-0.259833 0.110593 0)
(-0.259283 0.107579 0)
(-0.248761 0.0996436 0)
(-0.228216 0.083295 0)
(-0.199047 0.0556097 0)
(-0.162981 0.0205748 0)
(-0.121483 -0.0198922 0)
(-0.0740379 -0.0669289 0)
(-0.0205777 -0.125106 0)
(0.0373978 -0.198461 0)
(0.0976206 -0.291768 0)
(0.154284 -0.411351 0)
(0.199371 -0.560208 0)
(0.223801 -0.735336 0)
(0.221016 -0.923927 0)
(0.191321 -1.10928 0)
(0.141374 -1.2849 0)
(0.070115 -1.44034 0)
(0.310987 0.19208 0)
(0.285937 0.161537 0)
(0.256525 0.130668 0)
(0.224203 0.101238 0)
(0.189442 0.0744108 0)
(0.153104 0.0544057 0)
(0.119748 0.0436573 0)
(0.0915844 0.0359435 0)
(0.0655529 0.0305306 0)
(0.0361276 0.025731 0)
(0.00633508 0.022241 0)
(-0.0232948 0.0272429 0)
(-0.0595723 0.0438794 0)
(-0.0969056 0.0662146 0)
(-0.129689 0.0888379 0)
(-0.16043 0.10612 0)
(-0.189864 0.119447 0)
(-0.215877 0.124748 0)
(-0.238294 0.124246 0)
(-0.256815 0.123289 0)
(-0.268951 0.121656 0)
(-0.273516 0.116565 0)
(-0.270879 0.108185 0)
(-0.260509 0.0965302 0)
(-0.242008 0.0799584 0)
(-0.215282 0.0556675 0)
(-0.182968 0.0212953 0)
(-0.147081 -0.018427 0)
(-0.107101 -0.0636154 0)
(-0.062462 -0.11628 0)
(-0.012714 -0.179473 0)
(0.0403041 -0.255817 0)
(0.094533 -0.348014 0)
(0.145047 -0.459828 0)
(0.183996 -0.59282 0)
(0.204671 -0.745594 0)
(0.201851 -0.909067 0)
(0.175502 -1.06975 0)
(0.128666 -1.2205 0)
(0.0633092 -1.34703 0)
(0.314313 0.213632 0)
(0.290857 0.188282 0)
(0.262253 0.161774 0)
(0.229241 0.135643 0)
(0.192427 0.111438 0)
(0.152943 0.0916916 0)
(0.11347 0.0778372 0)
(0.0757418 0.0679905 0)
(0.0375062 0.0619088 0)
(-0.00098898 0.0594204 0)
(-0.0362633 0.0555414 0)
(-0.0729104 0.0600681 0)
(-0.112759 0.0783478 0)
(-0.148921 0.0988309 0)
(-0.179087 0.117872 0)
(-0.205732 0.132797 0)
(-0.228543 0.142288 0)
(-0.24662 0.14409 0)
(-0.261074 0.140111 0)
(-0.271138 0.133592 0)
(-0.274975 0.124923 0)
(-0.27189 0.112898 0)
(-0.262038 0.0973923 0)
(-0.245287 0.0782294 0)
(-0.221651 0.0544419 0)
(-0.191284 0.0245905 0)
(-0.157514 -0.0123912 0)
(-0.122029 -0.05545 0)
(-0.083083 -0.104697 0)
(-0.0410149 -0.161602 0)
(0.00382462 -0.228235 0)
(0.05015 -0.306138 0)
(0.095789 -0.396647 0)
(0.137201 -0.500924 0)
(0.169224 -0.61963 0)
(0.186202 -0.753358 0)
(0.182629 -0.895313 0)
(0.158287 -1.03319 0)
(0.115005 -1.16089 0)
(0.0568186 -1.26297 0)
(0.309021 0.233842 0)
(0.286965 0.214085 0)
(0.259439 0.192829 0)
(0.226866 0.171334 0)
(0.189834 0.150967 0)
(0.149412 0.13337 0)
(0.107529 0.119627 0)
(0.0656906 0.109512 0)
(0.02162 0.102665 0)
(-0.0187265 0.0980342 0)
(-0.0548639 0.0949208 0)
(-0.0956481 0.0997245 0)
(-0.136084 0.115749 0)
(-0.169344 0.131621 0)
(-0.197658 0.145423 0)
(-0.220848 0.155649 0)
(-0.238419 0.159767 0)
(-0.250857 0.157073 0)
(-0.258954 0.148823 0)
(-0.262346 0.136867 0)
(-0.260098 0.121798 0)
(-0.251822 0.103321 0)
(-0.23759 0.0813528 0)
(-0.217482 0.0557044 0)
(-0.191794 0.0258822 0)
(-0.16105 -0.00848749 0)
(-0.126431 -0.0476785 0)
(-0.0900905 -0.0930117 0)
(-0.0525066 -0.144303 0)
(-0.0132571 -0.202947 0)
(0.0271061 -0.270765 0)
(0.0672993 -0.348616 0)
(0.105486 -0.436553 0)
(0.138057 -0.533867 0)
(0.162043 -0.640316 0)
(0.173101 -0.758071 0)
(0.167463 -0.8812 0)
(0.143467 -0.998785 0)
(0.102974 -1.10614 0)
(0.0507776 -1.18741 0)
(0.299077 0.252829 0)
(0.278582 0.238705 0)
(0.252684 0.222926 0)
(0.221652 0.206452 0)
(0.186012 0.190338 0)
(0.146733 0.17572 0)
(0.105432 0.163468 0)
(0.0633608 0.153937 0)
(0.0187625 0.146382 0)
(-0.0213803 0.138127 0)
(-0.05691 0.13499 0)
(-0.0962511 0.141206 0)
(-0.13444 0.152383 0)
(-0.165329 0.162592 0)
(-0.190998 0.170552 0)
(-0.21067 0.174407 0)
(-0.224276 0.172682 0)
(-0.23251 0.164967 0)
(-0.236002 0.151984 0)
(-0.234764 0.134834 0)
(-0.228477 0.114121 0)
(-0.217025 0.0899854 0)
(-0.200536 0.0624836 0)
(-0.179238 0.0315274 0)
(-0.153539 -0.00314171 0)
(-0.124032 -0.0416913 0)
(-0.0913685 -0.0840541 0)
(-0.0563815 -0.130585 0)
(-0.0197474 -0.182836 0)
(0.017698 -0.242227 0)
(0.0543605 -0.309472 0)
(0.0887197 -0.385017 0)
(0.118989 -0.468831 0)
(0.14401 -0.558281 0)
(0.160676 -0.654606 0)
(0.16559 -0.759047 0)
(0.156638 -0.865091 0)
(0.131824 -0.965153 0)
(0.0930931 -1.05517 0)
(0.0455951 -1.11926 0)
(0.2874 0.270405 0)
(0.268812 0.261688 0)
(0.245163 0.251246 0)
(0.216634 0.239742 0)
(0.183666 0.227903 0)
(0.147112 0.216467 0)
(0.108422 0.206059 0)
(0.0681317 0.197258 0)
(0.0271659 0.189309 0)
(-0.00978481 0.177918 0)
(-0.0443534 0.172796 0)
(-0.080659 0.178568 0)
(-0.114815 0.18596 0)
(-0.142312 0.190648 0)
(-0.164531 0.192244 0)
(-0.180747 0.189685 0)
(-0.191065 0.182049 0)
(-0.196091 0.169092 0)
(-0.19638 0.151252 0)
(-0.192161 0.129235 0)
(-0.18347 0.103591 0)
(-0.170394 0.0746342 0)
(-0.153143 0.0425428 0)
(-0.132017 0.00734836 0)
(-0.107439 -0.0310412 0)
(-0.0799487 -0.0727206 0)
(-0.0500633 -0.117822 0)
(-0.0183049 -0.166796 0)
(0.0146446 -0.220318 0)
(0.0478216 -0.279042 0)
(0.0799832 -0.343795 0)
(0.10982 -0.415787 0)
(0.134031 -0.493868 0)
(0.151566 -0.575595 0)
(0.161303 -0.663015 0)
(0.161207 -0.755078 0)
(0.148609 -0.846259 0)
(0.122626 -0.931471 0)
(0.0850798 -1.00699 0)
(0.0413003 -1.05712 0)
(0.276032 0.286192 0)
(0.259782 0.282452 0)
(0.238996 0.276962 0)
(0.213803 0.270121 0)
(0.184557 0.262363 0)
(0.151969 0.2541 0)
(0.117358 0.245611 0)
(0.0803095 0.237047 0)
(0.0451824 0.226738 0)
(0.0136363 0.214549 0)
(-0.0195828 0.208717 0)
(-0.0528162 0.212671 0)
(-0.0817344 0.215592 0)
(-0.104995 0.214771 0)
(-0.123245 0.210337 0)
(-0.135978 0.201748 0)
(-0.143352 0.188473 0)
(-0.145838 0.170431 0)
(-0.143917 0.147942 0)
(-0.137896 0.121492 0)
(-0.127997 0.0915739 0)
(-0.114431 0.0585655 0)
(-0.097465 0.0227168 0)
(-0.0774222 -0.015854 0)
(-0.0547147 -0.0571262 0)
(-0.0298248 -0.101138 0)
(-0.00324695 -0.148028 0)
(0.0244805 -0.198167 0)
(0.0526454 -0.252107 0)
(0.0803015 -0.310363 0)
(0.106289 -0.373242 0)
(0.129183 -0.440689 0)
(0.147671 -0.512172 0)
(0.159325 -0.587427 0)
(0.163449 -0.665887 0)
(0.158704 -0.746251 0)
(0.142745 -0.824828 0)
(0.11553 -0.897468 0)
(0.0787433 -0.960912 0)
(0.0378913 -0.999855 0)
(0.26629 0.299744 0)
(0.25281 0.300401 0)
(0.235438 0.299295 0)
(0.214285 0.296605 0)
(0.189651 0.292518 0)
(0.162129 0.287174 0)
(0.132828 0.280477 0)
(0.101712 0.271694 0)
(0.0706368 0.258772 0)
(0.0431736 0.247245 0)
(0.0142961 0.242002 0)
(-0.0146655 0.24245 0)
(-0.0381827 0.240482 0)
(-0.0568532 0.234495 0)
(-0.0709901 0.224638 0)
(-0.0803223 0.210653 0)
(-0.0850065 0.192316 0)
(-0.0854153 0.169652 0)
(-0.0819444 0.142948 0)
(-0.0749213 0.112604 0)
(-0.0646412 0.0790617 0)
(-0.0513787 0.0427169 0)
(-0.0354261 0.00385736 0)
(-0.0171143 -0.0373401 0)
(0.00315934 -0.0807812 0)
(0.0249424 -0.126458 0)
(0.047742 -0.174464 0)
(0.0709924 -0.225043 0)
(0.0939825 -0.27855 0)
(0.115823 -0.335304 0)
(0.135444 -0.395468 0)
(0.151619 -0.458884 0)
(0.163241 -0.524913 0)
(0.169141 -0.592999 0)
(0.168117 -0.662925 0)
(0.158627 -0.733231 0)
(0.13943 -0.800915 0)
(0.110748 -0.862806 0)
(0.0741576 -0.916187 0)
(0.035381 -0.946262 0)
(0.258898 0.310617 0)
(0.248546 0.314999 0)
(0.234998 0.317596 0)
(0.218368 0.318394 0)
(0.198921 0.317377 0)
(0.177144 0.314466 0)
(0.153836 0.309346 0)
(0.129538 0.301016 0)
(0.102929 0.288365 0)
(0.0780604 0.275582 0)
(0.0545111 0.269823 0)
(0.0312812 0.266706 0)
(0.0131668 0.260226 0)
(-0.000780029 0.249627 0)
(-0.0108554 0.235091 0)
(-0.016953 0.21652 0)
(-0.0191852 0.193847 0)
(-0.0178629 0.167198 0)
(-0.0132926 0.136874 0)
(-0.00580098 0.103248 0)
(0.00430624 0.0667416 0)
(0.0167308 0.0277479 0)
(0.0311733 -0.0134246 0)
(0.0473007 -0.0565507 0)
(0.0647289 -0.101477 0)
(0.0830285 -0.148142 0)
(0.101717 -0.196579 0)
(0.120234 -0.246922 0)
(0.137906 -0.299363 0)
(0.153925 -0.354064 0)
(0.167368 -0.411063 0)
(0.177229 -0.470148 0)
(0.18257 -0.530777 0)
(0.182462 -0.592473 0)
(0.175864 -0.654655 0)
(0.161641 -0.71596 0)
(0.139044 -0.774155 0)
(0.108454 -0.82688 0)
(0.0713928 -0.871903 0)
(0.0337755 -0.895085 0)
(0.254112 0.318439 0)
(0.247128 0.325848 0)
(0.23763 0.331428 0)
(0.22573 0.335015 0)
(0.211651 0.336424 0)
(0.195764 0.335432 0)
(0.178584 0.331674 0)
(0.160487 0.324482 0)
(0.140837 0.313272 0)
(0.119484 0.300052 0)
(0.100049 0.29255 0)
(0.0831684 0.285282 0)
(0.0702513 0.27473 0)
(0.0607985 0.260251 0)
(0.0545519 0.241845 0)
(0.0514736 0.219509 0)
(0.0514508 0.193299 0)
(0.0542525 0.163394 0)
(0.059602 0.130123 0)
(0.0672052 0.0938794 0)
(0.0767677 0.0550817 0)
(0.0879945 0.0141201 0)
(0.100593 -0.0286815 0)
(0.114233 -0.0730564 0)
(0.128551 -0.118806 0)
(0.143141 -0.165814 0)
(0.157544 -0.214049 0)
(0.17123 -0.26355 0)
(0.18358 -0.314395 0)
(0.193881 -0.366635 0)
(0.201343 -0.420235 0)
(0.205136 -0.474944 0)
(0.204445 -0.530303 0)
(0.198494 -0.58583 0)
(0.186473 -0.64081 0)
(0.167608 -0.694109 0)
(0.141456 -0.744098 0)
(0.108551 -0.789026 0)
(0.0703854 -0.82712 0)
(0.033041 -0.845048 0)
(0.251854 0.322951 0)
(0.248345 0.33271 0)
(0.242951 0.340592 0)
(0.23576 0.346319 0)
(0.226941 0.349595 0)
(0.21674 0.350108 0)
(0.205453 0.347517 0)
(0.193262 0.341455 0)
(0.179901 0.331867 0)
(0.165124 0.320158 0)
(0.15098 0.30949 0)
(0.139478 0.298373 0)
(0.131164 0.284378 0)
(0.12571 0.266685 0)
(0.122869 0.245162 0)
(0.122514 0.219852 0)
(0.124477 0.190877 0)
(0.128545 0.158463 0)
(0.134459 0.122969 0)
(0.141953 0.0848097 0)
(0.150751 0.0444069 0)
(0.160573 0.00215305 0)
(0.171142 -0.0416105 0)
(0.18214 -0.086582 0)
(0.193228 -0.132523 0)
(0.204028 -0.179268 0)
(0.214115 -0.226725 0)
(0.223004 -0.274856 0)
(0.230139 -0.323653 0)
(0.234899 -0.373094 0)
(0.236612 -0.423087 0)
(0.234582 -0.473372 0)
(0.228124 -0.523548 0)
(0.216608 -0.573143 0)
(0.199436 -0.621476 0)
(0.176066 -0.667618 0)
(0.146299 -0.71044 0)
(0.11077 -0.748681 0)
(0.0709739 -0.780982 0)
(0.0331184 -0.794931 0)
(0.251815 0.324006 0)
(0.251777 0.335498 0)
(0.250405 0.345072 0)
(0.247763 0.352377 0)
(0.243952 0.357054 0)
(0.239114 0.358754 0)
(0.233395 0.357167 0)
(0.226869 0.352079 0)
(0.219456 0.343577 0)
(0.211205 0.332503 0)
(0.20327 0.320258 0)
(0.197101 0.30636 0)
(0.193206 0.28959 0)
(0.191491 0.269309 0)
(0.191771 0.245342 0)
(0.193887 0.217771 0)
(0.197652 0.186767 0)
(0.202836 0.152582 0)
(0.209191 0.115589 0)
(0.216466 0.0762173 0)
(0.224403 0.0348926 0)
(0.232747 -0.00798658 0)
(0.241233 -0.0520601 0)
(0.249567 -0.0969984 0)
(0.257436 -0.142529 0)
(0.264497 -0.188443 0)
(0.270364 -0.234594 0)
(0.274602 -0.280884 0)
(0.276724 -0.327241 0)
(0.276193 -0.373588 0)
(0.272438 -0.419805 0)
(0.264889 -0.465641 0)
(0.252988 -0.510723 0)
(0.236242 -0.554633 0)
(0.214194 -0.596799 0)
(0.186495 -0.636503 0)
(0.153125 -0.67298 0)
(0.114761 -0.705393 0)
(0.0729298 -0.732747 0)
(0.0339141 -0.743617 0)
(0.253544 0.321566 0)
(0.256878 0.334241 0)
(0.259355 0.344972 0)
(0.26101 0.35337 0)
(0.261892 0.359047 0)
(0.262063 0.361645 0)
(0.261579 0.360875 0)
(0.260462 0.356578 0)
(0.258722 0.348817 0)
(0.256503 0.338038 0)
(0.25447 0.324874 0)
(0.253475 0.309191 0)
(0.253928 0.290434 0)
(0.255838 0.268246 0)
(0.259092 0.242541 0)
(0.263539 0.213422 0)
(0.268979 0.181093 0)
(0.275186 0.145845 0)
(0.281925 0.108062 0)
(0.288955 0.0681675 0)
(0.296036 0.0265929 0)
(0.302933 -0.0162584 0)
(0.309397 -0.0600092 0)
(0.31516 -0.104308 0)
(0.31994 -0.148854 0)
(0.323428 -0.193402 0)
(0.325281 -0.23776 0)
(0.325118 -0.281783 0)
(0.322518 -0.325351 0)
(0.317026 -0.368349 0)
(0.308158 -0.41064 0)
(0.295451 -0.452007 0)
(0.278472 -0.492111 0)
(0.256849 -0.530583 0)
(0.230213 -0.566966 0)
(0.198402 -0.600808 0)
(0.161481 -0.63159 0)
(0.120147 -0.658814 0)
(0.0759884 -0.681804 0)
(0.035308 -0.690141 0)
(0.256505 0.315684 0)
(0.263035 0.329061 0)
(0.269117 0.340484 0)
(0.274759 0.349552 0)
(0.27997 0.355867 0)
(0.284756 0.359074 0)
(0.289119 0.358896 0)
(0.293051 0.355175 0)
(0.296562 0.347898 0)
(0.29977 0.337285 0)
(0.303048 0.323631 0)
(0.306853 0.306917 0)
(0.311437 0.286937 0)
(0.316836 0.263568 0)
(0.322951 0.236824 0)
(0.329624 0.206857 0)
(0.336667 0.173905 0)
(0.343865 0.138286 0)
(0.350995 0.100387 0)
(0.357828 0.0606354 0)
(0.36414 0.0194587 0)
(0.369712 -0.0227349 0)
(0.374312 -0.0655557 0)
(0.3777 -0.108636 0)
(0.379621 -0.151653 0)
(0.379803 -0.194331 0)
(0.377946 -0.236443 0)
(0.373721 -0.277807 0)
(0.366771 -0.318268 0)
(0.356714 -0.357688 0)
(0.343156 -0.395919 0)
(0.325704 -0.432779 0)
(0.304048 -0.468005 0)
(0.277883 -0.501242 0)
(0.246986 -0.532201 0)
(0.211312 -0.560624 0)
(0.170921 -0.586195 0)
(0.12655 -0.60868 0)
(0.0798697 -0.627669 0)
(0.0371645 -0.633724 0)
(0.260123 0.306493 0)
(0.269615 0.320157 0)
(0.279001 0.331873 0)
(0.288269 0.341242 0)
(0.297398 0.34787 0)
(0.306357 0.351412 0)
(0.315108 0.351593 0)
(0.323614 0.348243 0)
(0.331847 0.3413 0)
(0.339858 0.330839 0)
(0.347818 0.316992 0)
(0.355932 0.299819 0)
(0.36432 0.279282 0)
(0.372971 0.255395 0)
(0.381774 0.228266 0)
(0.390576 0.198112 0)
(0.399184 0.165207 0)
(0.407387 0.129869 0)
(0.414968 0.0924962 0)
(0.421715 0.0535144 0)
(0.427411 0.0133501 0)
(0.431856 -0.0275885 0)
(0.434833 -0.0689035 0)
(0.436123 -0.110217 0)
(0.435503 -0.15119 0)
(0.432731 -0.191523 0)
(0.427549 -0.230965 0)
(0.419675 -0.269303 0)
(0.408809 -0.306362 0)
(0.394638 -0.341988 0)
(0.376843 -0.376034 0)
(0.355115 -0.408342 0)
(0.329193 -0.438722 0)
(0.298881 -0.466904 0)
(0.264082 -0.492732 0)
(0.224768 -0.516063 0)
(0.181019 -0.536762 0)
(0.133601 -0.554805 0)
(0.0842953 -0.569981 0)
(0.0393451 -0.573786 0)
(0.263825 0.294196 0)
(0.275995 0.307794 0)
(0.28834 0.319463 0)
(0.300834 0.328817 0)
(0.313434 0.335477 0)
(0.326082 0.339108 0)
(0.338705 0.339443 0)
(0.351234 0.336297 0)
(0.363604 0.329583 0)
(0.375791 0.319309 0)
(0.387814 0.30553 0)
(0.399713 0.288321 0)
(0.411505 0.267742 0)
(0.423111 0.24391 0)
(0.434402 0.216996 0)
(0.445206 0.187247 0)
(0.455329 0.154979 0)
(0.464565 0.120518 0)
(0.472692 0.0842613 0)
(0.479501 0.0466321 0)
(0.484786 0.00805134 0)
(0.488359 -0.0310754 0)
(0.490015 -0.0703468 0)
(0.489554 -0.10938 0)
(0.486776 -0.147824 0)
(0.481469 -0.185367 0)
(0.473407 -0.221735 0)
(0.462353 -0.2567 0)
(0.448056 -0.290071 0)
(0.43026 -0.321688 0)
(0.408712 -0.351413 0)
(0.383174 -0.379119 0)
(0.353453 -0.404667 0)
(0.319425 -0.427921 0)
(0.281048 -0.448795 0)
(0.23833 -0.46725 0)
(0.191368 -0.483301 0)
(0.140952 -0.497078 0)
(0.0890047 -0.508507 0)
(0.0417201 -0.509953 0)
(0.267067 0.279051 0)
(0.281594 0.292289 0)
(0.296524 0.30363 0)
(0.311817 0.312705 0)
(0.327415 0.319158 0)
(0.343238 0.322671 0)
(0.359188 0.322988 0)
(0.375163 0.319923 0)
(0.391057 0.313372 0)
(0.406783 0.303315 0)
(0.422263 0.289791 0)
(0.437436 0.272879 0)
(0.452207 0.252681 0)
(0.466443 0.229366 0)
(0.479992 0.203157 0)
(0.492658 0.174328 0)
(0.504246 0.143207 0)
(0.51454 0.110142 0)
(0.523313 0.0755262 0)
(0.530355 0.0397723 0)
(0.535464 0.00329119 0)
(0.538458 -0.0335168 0)
(0.539138 -0.0702512 0)
(0.537319 -0.106529 0)
(0.532815 -0.141994 0)
(0.525436 -0.176324 0)
(0.514984 -0.209237 0)
(0.501257 -0.240491 0)
(0.484043 -0.269889 0)
(0.463137 -0.297274 0)
(0.438338 -0.322526 0)
(0.409472 -0.345549 0)
(0.376404 -0.366267 0)
(0.339063 -0.384631 0)
(0.297446 -0.400639 0)
(0.251588 -0.414345 0)
(0.2016 -0.425878 0)
(0.148295 -0.435474 0)
(0.0937704 -0.443138 0)
(0.0441787 -0.442039 0)
(0.269358 0.261363 0)
(0.285896 0.274003 0)
(0.303015 0.284786 0)
(0.320667 0.293369 0)
(0.338779 0.29942 0)
(0.357255 0.302647 0)
(0.375978 0.302807 0)
(0.394817 0.299726 0)
(0.413634 0.293299 0)
(0.432289 0.283497 0)
(0.450645 0.270354 0)
(0.468561 0.25396 0)
(0.485881 0.234455 0)
(0.502425 0.212025 0)
(0.517995 0.186916 0)
(0.532385 0.159422 0)
(0.545379 0.129879 0)
(0.556749 0.09865 0)
(0.56627 0.0661216 0)
(0.573725 0.0326924 0)
(0.57891 -0.00123882 0)
(0.581639 -0.0352792 0)
(0.581714 -0.0690334 0)
(0.578955 -0.102122 0)
(0.573184 -0.13419 0)
(0.564223 -0.164912 0)
(0.551894 -0.194 0)
(0.536017 -0.221211 0)
(0.516415 -0.246348 0)
(0.492919 -0.269266 0)
(0.465376 -0.289864 0)
(0.43366 -0.308087 0)
(0.397685 -0.323916 0)
(0.357424 -0.337375 0)
(0.312907 -0.348541 0)
(0.264194 -0.357551 0)
(0.2114 -0.364619 0)
(0.155373 -0.370051 0)
(0.0984087 -0.373877 0)
(0.0466349 -0.370021 0)
(0.270273 0.241472 0)
(0.288463 0.253324 0)
(0.307369 0.263369 0)
(0.326935 0.271291 0)
(0.347079 0.276788 0)
(0.367694 0.279593 0)
(0.388647 0.279488 0)
(0.409788 0.276315 0)
(0.430952 0.269979 0)
(0.451966 0.260456 0)
(0.47265 0.247786 0)
(0.492815 0.232068 0)
(0.51226 0.21346 0)
(0.530773 0.19217 0)
(0.548127 0.168454 0)
(0.56409 0.142615 0)
(0.578425 0.114993 0)
(0.590895 0.0859512 0)
(0.60127 0.055869 0)
(0.609323 0.0251332 0)
(0.614842 -0.00587025 0)
(0.617628 -0.0367574 0)
(0.61748 -0.0671421 0)
(0.61421 -0.0966524 0)
(0.60764 -0.124938 0)
(0.597593 -0.151677 0)
(0.583901 -0.176584 0)
(0.566398 -0.19942 0)
(0.54493 -0.219999 0)
(0.519357 -0.238192 0)
(0.489562 -0.253928 0)
(0.45546 -0.267193 0)
(0.417006 -0.278023 0)
(0.374212 -0.28651 0)
(0.327139 -0.292803 0)
(0.275868 -0.297108 0)
(0.220519 -0.299707 0)
(0.161985 -0.300942 0)
(0.10278 -0.300829 0)
(0.0490276 -0.293998 0)
(0.26946 0.219741 0)
(0.28894 0.23066 0)
(0.309234 0.239828 0)
(0.330279 0.246961 0)
(0.351988 0.251786 0)
(0.374246 0.254067 0)
(0.396912 0.253611 0)
(0.419822 0.250282 0)
(0.442798 0.244004 0)
(0.465644 0.234764 0)
(0.488153 0.222614 0)
(0.51011 0.207666 0)
(0.531286 0.190089 0)
(0.551445 0.170103 0)
(0.57034 0.147974 0)
(0.58772 0.124009 0)
(0.603333 0.0985472 0)
(0.616929 0.0719476 0)
(0.628264 0.0445819 0)
(0.637099 0.0168258 0)
(0.643209 -0.0109464 0)
(0.646374 -0.0383602 0)
(0.646378 -0.0650405 0)
(0.64302 -0.0906261 0)
(0.63611 -0.114776 0)
(0.625463 -0.137177 0)
(0.610908 -0.157554 0)
(0.592286 -0.175681 0)
(0.569455 -0.191389 0)
(0.542295 -0.204578 0)
(0.510719 -0.215211 0)
(0.474673 -0.22332 0)
(0.434153 -0.228998 0)
(0.389203 -0.2324 0)
(0.339916 -0.233739 0)
(0.286394 -0.233287 0)
(0.228767 -0.231372 0)
(0.167979 -0.228349 0)
(0.106781 -0.224183 0)
(0.0513164 -0.214171 0)
(0.266648 0.196546 0)
(0.287058 0.206424 0)
(0.308351 0.214615 0)
(0.330457 0.220864 0)
(0.353286 0.22493 0)
(0.376721 0.226607 0)
(0.400616 0.225732 0)
(0.424803 0.222192 0)
(0.449097 0.215932 0)
(0.473293 0.206958 0)
(0.497173 0.195336 0)
(0.520507 0.181191 0)
(0.543053 0.164704 0)
(0.564562 0.146104 0)
(0.584775 0.125665 0)
(0.603429 0.103696 0)
(0.620261 0.0805359 0)
(0.635008 0.0565394 0)
(0.647407 0.0320715 0)
(0.657205 0.00749919 0)
(0.664153 -0.0168127 0)
(0.668007 -0.0404973 0)
(0.668526 -0.0631917 0)
(0.665487 -0.0845475 0)
(0.658674 -0.104237 0)
(0.647888 -0.121962 0)
(0.632944 -0.137465 0)
(0.613679 -0.150541 0)
(0.589954 -0.161052 0)
(0.561665 -0.168932 0)
(0.528744 -0.174191 0)
(0.491172 -0.176911 0)
(0.448974 -0.177245 0)
(0.402231 -0.17541 0)
(0.351068 -0.171681 0)
(0.295609 -0.166384 0)
(0.235997 -0.159884 0)
(0.173239 -0.152527 0)
(0.110327 -0.144193 0)
(0.0534553 -0.130844 0)
(0.261637 0.172268 0)
(0.28263 0.181031 0)
(0.304547 0.188174 0)
(0.327316 0.193472 0)
(0.350848 0.196716 0)
(0.375025 0.197728 0)
(0.399703 0.196375 0)
(0.424717 0.19257 0)
(0.449882 0.186281 0)
(0.474994 0.177532 0)
(0.499835 0.166408 0)
(0.524174 0.153047 0)
(0.547767 0.137642 0)
(0.570361 0.120433 0)
(0.591695 0.1017 0)
(0.6115 0.0817592 0)
(0.629503 0.0609491 0)
(0.645428 0.0396249 0)
(0.658998 0.0181487 0)
(0.669934 -0.0031168 0)
(0.67796 -0.0238104 0)
(0.682798 -0.043571 0)
(0.684177 -0.0620478 0)
(0.681837 -0.0789063 0)
(0.675532 -0.0938359 0)
(0.665033 -0.106559 0)
(0.650135 -0.116845 0)
(0.63066 -0.12452 0)
(0.606468 -0.129489 0)
(0.577464 -0.131733 0)
(0.543599 -0.131319 0)
(0.504881 -0.128388 0)
(0.46137 -0.123157 0)
(0.413182 -0.115904 0)
(0.360476 -0.106965 0)
(0.303396 -0.0967137 0)
(0.242106 -0.0855409 0)
(0.177674 -0.0737606 0)
(0.113308 -0.061154 0)
(0.0552893 -0.0444419 0)
(0.254302 0.147287 0)
(0.275542 0.154887 0)
(0.297726 0.160937 0)
(0.320785 0.16524 0)
(0.344629 0.167616 0)
(0.369145 0.167916 0)
(0.394197 0.166033 0)
(0.419626 0.161907 0)
(0.445256 0.155528 0)
(0.470894 0.146942 0)
(0.496331 0.136248 0)
(0.521343 0.123601 0)
(0.545697 0.109209 0)
(0.569144 0.0933219 0)
(0.591428 0.0762325 0)
(0.61228 0.0582642 0)
(0.631422 0.039764 0)
(0.648566 0.0210931 0)
(0.663416 0.00261864 0)
(0.675667 -0.0152924 0)
(0.685003 -0.0322754 0)
(0.691107 -0.0479733 0)
(0.693668 -0.0620448 0)
(0.692382 -0.07417 0)
(0.68696 -0.0840586 0)
(0.677135 -0.0914611 0)
(0.662672 -0.0961819 0)
(0.643373 -0.0980954 0)
(0.619092 -0.0971587 0)
(0.589737 -0.0934185 0)
(0.555282 -0.0870097 0)
(0.515761 -0.078146 0)
(0.471275 -0.0671109 0)
(0.421975 -0.0542465 0)
(0.368051 -0.0399418 0)
(0.309677 -0.024616 0)
(0.247033 -0.00867402 0)
(0.18123 0.00761296 0)
(0.115553 0.0245647 0)
(0.0563735 0.0445893 0)
(0.244586 0.121982 0)
(0.26575 0.128392 0)
(0.287863 0.133325 0)
(0.310857 0.136606 0)
(0.334648 0.138081 0)
(0.35913 0.13763 0)
(0.384176 0.135169 0)
(0.409643 0.13066 0)
(0.43537 0.124117 0)
(0.461179 0.115602 0)
(0.48688 0.105235 0)
(0.512269 0.0931861 0)
(0.537127 0.079677 0)
(0.561223 0.064975 0)
(0.584311 0.0493875 0)
(0.606129 0.0332541 0)
(0.626397 0.0169381 0)
(0.644816 0.000817525 0)
(0.661066 -0.0147235 0)
(0.674808 -0.0293019 0)
(0.685683 -0.0425426 0)
(0.693328 -0.0540874 0)
(0.697376 -0.0636018 0)
(0.697471 -0.0707805 0)
(0.693271 -0.0753576 0)
(0.684464 -0.0771197 0)
(0.670775 -0.0759201 0)
(0.651986 -0.0716934 0)
(0.627937 -0.0644696 0)
(0.598543 -0.0543781 0)
(0.563802 -0.0416407 0)
(0.523784 -0.0265539 0)
(0.478631 -0.00947373 0)
(0.428534 0.00919856 0)
(0.373717 0.0290253 0)
(0.314377 0.0495542 0)
(0.250715 0.0703728 0)
(0.183855 0.0912534 0)
(0.117004 0.11262 0)
(0.0566179 0.136088 0)
(0.232501 0.0967263 0)
(0.25328 0.101941 0)
(0.274998 0.105747 0)
(0.297591 0.107993 0)
(0.320982 0.108547 0)
(0.345077 0.10731 0)
(0.369764 0.104221 0)
(0.394916 0.0992618 0)
(0.420394 0.0924629 0)
(0.446044 0.0839059 0)
(0.471703 0.0737252 0)
(0.497193 0.0621085 0)
(0.522322 0.0492949 0)
(0.546884 0.0355713 0)
(0.570651 0.0212674 0)
(0.593373 0.00674839 0)
(0.61477 -0.00759328 0)
(0.634533 -0.0213479 0)
(0.652314 -0.0340978 0)
(0.667733 -0.0454305 0)
(0.68038 -0.0549507 0)
(0.689832 -0.062292 0)
(0.695658 -0.0671233 0)
(0.697437 -0.0691542 0)
(0.694763 -0.0681483 0)
(0.687269 -0.0639407 0)
(0.674644 -0.0564488 0)
(0.656639 -0.0456855 0)
(0.633088 -0.0317743 0)
(0.603913 -0.0149508 0)
(0.56914 0.00445533 0)
(0.528886 0.0260533 0)
(0.483341 0.0494138 0)
(0.432745 0.0740815 0)
(0.377354 0.099581 0)
(0.317387 0.125437 0)
(0.25306 0.151234 0)
(0.185485 0.17678 0)
(0.117743 0.202584 0)
(0.0564029 0.229417 0)
(0.218127 0.0718925 0)
(0.238221 0.0759215 0)
(0.259233 0.0786073 0)
(0.281102 0.0798167 0)
(0.303763 0.0794367 0)
(0.327134 0.0773856 0)
(0.351119 0.0736184 0)
(0.375616 0.0681325 0)
(0.400512 0.060972 0)
(0.425685 0.0522321 0)
(0.451004 0.0420616 0)
(0.476329 0.0306641 0)
(0.501503 0.0182984 0)
(0.526353 0.00527638 0)
(0.55068 -0.00804126 0)
(0.574251 -0.0212507 0)
(0.59679 -0.0339135 0)
(0.617975 -0.045568 0)
(0.637429 -0.0557443 0)
(0.654724 -0.0639816 0)
(0.669385 -0.0698497 0)
(0.68091 -0.0729659 0)
(0.688792 -0.0730015 0)
(0.692533 -0.0696814 0)
(0.691653 -0.0628059 0)
(0.685723 -0.0522775 0)
(0.674392 -0.0380999 0)
(0.657393 -0.0203828 0)
(0.634549 0.000635128 0)
(0.605793 0.024586 0)
(0.571187 0.0510055 0)
(0.530914 0.0793887 0)
(0.485232 0.109232 0)
(0.434435 0.140043 0)
(0.37881 0.171328 0)
(0.31859 0.202607 0)
(0.253987 0.233469 0)
(0.18609 0.263751 0)
(0.117827 0.294012 0)
(0.0558975 0.324074 0)
(0.201619 0.0478499 0)
(0.220739 0.0507192 0)
(0.240741 0.0523062 0)
(0.261574 0.0524912 0)
(0.28318 0.0511746 0)
(0.305493 0.0482865 0)
(0.32844 0.0437921 0)
(0.351943 0.0376977 0)
(0.375921 0.0300555 0)
(0.400291 0.020969 0)
(0.424964 0.0105974 0)
(0.449844 -0.000841227 0)
(0.474822 -0.0130668 0)
(0.499769 -0.0257368 0)
(0.52452 -0.0384479 0)
(0.548869 -0.0507411 0)
(0.572553 -0.0621121 0)
(0.595239 -0.0720242 0)