/*--------------------------------*- C++ -*----------------------------------*\
| =========                 |                                                 |
| \\      /  F ield         | OpenFOAM: The Open Source CFD Toolbox           |
|  \\    /   O peration     | Version:  5.0                                   |
|   \\  /    A nd           | Web:      www.OpenFOAM.org                      |
|    \\/     M anipulation  |                                                 |
\*---------------------------------------------------------------------------*/
FoamFile
{
    version     2.0;
    format      ascii;
    class       surfaceScalarField;
    location    "0.5";
    object      alphaPhi10;
}
// * * * * * * * * * * * * * * * * * * * * * * * * * * * * * * * * * * * * * //

dimensions      [0 3 -1 0 0 0 0];

internalField   nonuniform List<scalar> 
3731
(
-8.96974e-06
-4.40473e-06
-8.96991e-06
-5.99847e-06
-4.30487e-06
-1.49597e-05
-1.23121e-06
-2.23813e-06
-1.61788e-05
2.48265e-06
1.19467e-06
-1.36804e-05
5.03721e-06
5.6739e-06
-8.63792e-06
7.03098e-06
1.09187e-05
-1.60694e-06
8.84081e-06
1.68863e-05
7.23387e-06
1.11967e-05
2.33492e-05
1.84304e-05
1.49797e-05
2.97476e-05
3.34097e-05
2.0412e-05
3.55427e-05
5.38219e-05
2.75946e-29
-1.53998e-28
7.36116e-30
3.28575e-29
-7.88368e-30
5.74289e-29
-5.33156e-31
4.76286e-30
-2.18314e-32
1.17946e-31
-1.40397e-33
2.20256e-33
-1.76818e-33
7.01891e-35
-1.93834e-32
-1.22682e-33
-1.3288e-31
-3.77761e-32
-3.51677e-31
-2.63347e-31
-4.09274e-31
-9.34593e-31
1.51145e-31
-2.26853e-30
1.80509e-30
-4.375e-30
5.1065e-30
-7.3326e-30
1.09474e-29
-1.15746e-29
1.85486e-29
-1.59384e-29
2.61101e-29
-1.87048e-29
3.29942e-29
-1.99932e-29
3.61365e-29
-1.92317e-29
3.01491e-29
-1.49954e-29
1.94387e-29
-9.31747e-30
9.81151e-30
-4.60628e-30
3.67119e-30
-1.74035e-30
9.40157e-31
-4.68067e-31
1.54036e-31
-8.2321e-32
1.58615e-32
-8.684e-33
1.09251e-33
-4.83911e-34
6.04688e-35
-3.75696e-36
3.49928e-36
6.44018e-37
2.04352e-37
8.35538e-38
1.07905e-38
7.18918e-39
4.79739e-40
4.71857e-40
1.71828e-41
2.5613e-41
4.74051e-43
1.14113e-42
9.51231e-45
3.86746e-44
1.2815e-46
9.49606e-46
1.01759e-48
1.60696e-47
3.78047e-51
1.63658e-49
3.90049e-54
7.95397e-52
1.009e-54
-3.8204e-29
-4.71927e-27
-2.11141e-28
1.54447e-27
-4.88567e-29
4.96131e-28
-4.87245e-30
4.77286e-29
-5.10773e-31
2.63932e-30
-1.70502e-31
1.60439e-31
-2.81305e-31
9.15343e-33
-4.19552e-30
-5.94499e-31
-2.73812e-29
-1.36728e-29
-7.44982e-29
-9.53065e-29
-8.57666e-29
-3.62089e-28
8.18132e-29
-9.52621e-28
6.40596e-28
-1.99375e-27
1.82316e-27
-3.54748e-27
3.80284e-27
-5.67254e-27
6.01983e-27
-7.59758e-27
7.83138e-27
-8.55015e-27
9.41851e-27
-8.74973e-27
8.93575e-27
-7.73895e-27
6.5617e-27
-5.49978e-27
3.9043e-27
-3.16686e-27
1.84505e-27
-1.46748e-27
6.4933e-28
-5.22353e-28
1.58528e-28
-1.3345e-28
2.541e-29
-2.27148e-29
2.64134e-30
-2.39401e-30
1.88388e-31
-1.42207e-31
1.06877e-32
-2.99152e-33
5.95746e-34
2.43275e-34
3.38767e-35
3.9295e-35
1.79848e-36
3.67979e-36
8.17983e-38
2.65711e-37
2.98956e-39
1.53499e-38
8.40671e-41
6.98011e-40
1.73675e-42
2.41023e-41
2.44024e-44
6.1052e-43
2.06476e-46
1.06533e-44
8.55232e-49
1.14171e-46
1.12574e-51
5.98606e-49
1.03343e-51
-6.57294e-27
4.18751e-27
-2.81e-27
2.04573e-26
-6.21555e-28
5.0009e-27
-1.03441e-28
6.78663e-28
-2.09081e-29
6.99512e-29
-1.52674e-29
8.90984e-30
-2.86974e-29
-6.80127e-31
-4.22642e-28
-9.93005e-29
-2.62207e-27
-1.84453e-27
-7.02878e-27
-1.24021e-26
-7.07659e-27
-5.04386e-26
1.55428e-26
-1.42403e-25
9.236e-26
-3.15338e-25
2.55148e-25
-5.79589e-25
5.12498e-25
-9.29266e-25
7.74853e-25
-1.22814e-24
9.86209e-25
-1.35284e-24
1.11044e-24
-1.34797e-24
9.54565e-25
-1.12146e-24
6.52488e-25
-7.51012e-25
3.68401e-25
-4.14213e-25
1.65667e-25
-1.85281e-25
5.55768e-26
-6.37092e-26
1.30713e-26
-1.57626e-26
2.05832e-27
-2.62668e-27
2.14638e-28
-2.76694e-28
1.54829e-29
-1.69593e-29
8.68899e-31
-4.25555e-31
4.56509e-32
2.18966e-32
2.38655e-33
3.86029e-33
1.15138e-34
3.49022e-34
4.77179e-36
2.38258e-35
1.60729e-37
1.28567e-36
4.21117e-39
5.4367e-38
8.15468e-41
1.7544e-39
1.07944e-42
4.15911e-41
8.67356e-45
6.77183e-43
3.57652e-47
6.7135e-45
8.78343e-50
3.65104e-47
8.88679e-50
-7.09933e-26
4.53803e-25
-2.86235e-26
1.91944e-25
-8.1405e-27
4.96667e-26
-2.18465e-27
9.591e-27
-8.88672e-28
1.77339e-27
-8.78201e-28
3.94621e-28
-2.22422e-27
-1.62096e-28
-2.95391e-26
-9.6879e-27
-1.71176e-25
-1.64968e-25
-4.2739e-25
-1.17798e-24
-2.92526e-25
-4.83225e-24
1.7539e-24
-1.52897e-23
8.61593e-24
-3.71435e-23
2.25992e-23
-6.87104e-23
4.31379e-23
-1.04728e-22
6.23637e-23
-1.33839e-22
7.81307e-23
-1.41934e-22
8.14353e-23
-1.3072e-22
6.41619e-23
-9.72557e-23
4.14131e-23
-5.99006e-23
2.25114e-23
-3.14182e-23
9.77723e-24
-1.36623e-23
3.17398e-24
-4.61414e-24
7.2992e-25
-1.12951e-24
1.14322e-25
-1.87792e-25
1.20583e-26
-1.99704e-26
8.8524e-28
-1.25973e-27
4.97008e-29
-3.51174e-29
2.51622e-30
1.30825e-30
1.2408e-31
2.5353e-31
5.57466e-33
2.22913e-32
2.14459e-34
1.44665e-33
6.7219e-36
7.3485e-35
1.64214e-37
2.91237e-36
2.9603e-39
8.78961e-38
3.62858e-41
1.93547e-39
2.73917e-43
2.87755e-41
1.74556e-45
2.75752e-43
5.03148e-48
1.76739e-45
5.12053e-48
-5.46203e-25
4.26879e-24
-2.76555e-25
1.58736e-24
-1.04382e-25
5.09018e-25
-4.29833e-26
1.36569e-25
-3.31978e-26
4.14316e-26
-3.3728e-26
1.11048e-26
-1.69311e-25
-3.02655e-26
-1.93069e-24
-1.74901e-24
-1.12265e-23
-4.11845e-23
-2.21922e-23
-3.38315e-22
2.32526e-24
-9.7029e-22
1.72965e-22
-2.15492e-21
7.28644e-22
-5.84008e-21
1.76089e-21
-1.11979e-20
3.08096e-21
-1.56646e-20
4.16739e-21
-1.70118e-20
5.08702e-21
-1.67306e-20
4.72655e-21
-1.36032e-20
3.34482e-21
-8.30986e-21
2.01901e-21
-4.33413e-21
1.0455e-21
-1.97606e-21
4.34498e-22
-7.64738e-22
1.36268e-22
-2.38645e-22
3.09094e-23
-5.6538e-23
4.8804e-24
-9.46627e-24
5.26543e-25
-1.03691e-24
3.96599e-26
-6.81375e-26
2.25249e-27
-2.06849e-27
1.11949e-28
5.83056e-29
5.32187e-30
1.2764e-29
2.27754e-31
1.10849e-30
8.30512e-33
6.95073e-32
2.46276e-34
3.3784e-33
5.67407e-36
1.27323e-34
9.57795e-38
3.62975e-36
1.09739e-39
7.44685e-38
1.11806e-41
1.04492e-39
7.77041e-44
1.13226e-41
2.51052e-46
7.89192e-44
2.56173e-46
-3.31403e-24
2.4547e-23
-2.16135e-24
1.05922e-23
-1.02977e-24
4.27623e-24
-6.80565e-25
1.52694e-24
-6.76285e-25
6.812e-25
-2.72341e-24
1.7467e-25
-2.5096e-23
-2.61216e-23
-1.69832e-22
-4.99327e-22
-7.70282e-22
-7.39577e-21
-7.85298e-22
-4.23805e-20
2.40698e-21
-1.59127e-19
1.42454e-20
-1.70914e-19
5.02729e-20
-4.43038e-19
1.12812e-19
-8.78696e-19
1.81222e-19
-1.36137e-18
2.31837e-19
-1.40343e-18
2.68364e-19
-1.2914e-18
2.39672e-19
-1.11568e-18
1.58185e-19
-7.19054e-19
8.92942e-20
-3.56232e-19
4.30483e-20
-1.45858e-19
1.64268e-20
-4.69255e-20
4.80176e-21
-1.18884e-20
1.05745e-21
-2.38435e-21
1.69228e-22
-3.69645e-22
1.89885e-23
-4.10129e-23
1.48945e-24
-2.87586e-24
8.62986e-26
-9.66265e-26
4.25418e-27
2.06075e-27
1.9832e-28
5.29063e-28
8.23637e-30
4.60755e-29
2.89723e-31
2.83542e-30
8.25307e-33
1.33909e-31
1.81573e-34
4.86699e-33
2.90038e-36
1.32526e-34
3.81818e-38
2.56686e-36
4.55492e-40
3.94446e-38
3.37685e-42
4.59912e-40
1.18721e-44
3.43269e-42
1.21284e-44
-1.84599e-23
1.12877e-22
-1.36697e-23
5.93505e-23
-7.271e-24
2.82768e-23
-7.22972e-24
1.29047e-23
-7.15459e-23
1.04612e-23
-2.338e-21
-2.63344e-23
-4.67355e-21
-4.0439e-21
-4.96792e-21
-1.76158e-20
-4.44317e-21
-3.77361e-20
1.52525e-20
-1.33799e-19
1.22636e-19
-4.15771e-19
4.75573e-19
-2.09865e-18
1.17652e-18
-5.07686e-18
2.40071e-18
-9.2549e-18
4.03524e-18
-1.56821e-17
5.25127e-18
-2.32129e-17
6.25676e-18
-2.17297e-17
6.3326e-18
-2.2197e-17
4.96476e-18
-1.99821e-17
3.06626e-18
-1.29734e-17
1.56778e-18
-6.80794e-18
5.85326e-19
-2.63918e-18
1.5805e-19
-6.79384e-19
3.24351e-20
-1.18693e-19
5.08454e-21
-1.51833e-20
5.90031e-22
-1.49645e-21
4.90391e-23
-1.04791e-22
2.94586e-24
-3.86127e-24
1.44311e-25
6.02876e-26
6.62717e-27
1.897e-26
2.70775e-28
1.67173e-27
9.33433e-30
1.02236e-28
2.593e-31
4.75715e-30
5.52366e-33
1.69113e-31
8.74564e-35
4.45342e-33
1.49242e-36
8.92341e-35
1.83818e-38
1.49654e-36
1.45012e-40
1.85225e-38
5.47058e-43
1.47436e-40
5.60018e-43
-7.50113e-23
3.85165e-22
-5.9503e-23
1.55833e-22
-6.87803e-23
1.48647e-22
-3.8777e-21
5.8429e-22
-5.55074e-21
5.4475e-21
-8.59111e-19
8.51883e-19
-3.42237e-19
-5.64766e-19
1.1449e-19
-8.89158e-19
2.72864e-19
-3.55107e-19
7.35137e-19
-6.82567e-19
1.71356e-18
3.83252e-18
4.71534e-18
-1.388e-18
7.25274e-18
-1.12146e-17
1.24621e-17
-1.75324e-17
2.15441e-17
-2.69839e-17
3.37522e-17
-4.01193e-17
4.28013e-17
-7.1711e-17
4.86829e-17
-8.75294e-17
5.01902e-17
-9.74893e-17
4.10558e-17
-9.32792e-17
2.82745e-17
-7.38267e-17
1.40275e-17
-4.71539e-17
4.55396e-18
-1.91828e-17
1.01233e-18
-5.03455e-18
1.56668e-19
-8.10676e-19
1.76164e-20
-7.72673e-20
1.47554e-21
-4.77382e-21
9.09454e-23
-1.65953e-22
4.45369e-24
1.47269e-24
2.02013e-25
6.04922e-25
8.20222e-27
5.42095e-26
2.81111e-28
3.32801e-27
7.7345e-30
1.54582e-28
1.62608e-31
5.45486e-30
3.05885e-33
1.42115e-31
5.56332e-35
3.09811e-33
7.2674e-37
5.55781e-35
6.10828e-39
7.31808e-37
2.46339e-41
6.20953e-39
2.51969e-41
-4.6042e-22
2.10771e-21
-2.87821e-22
7.23809e-22
-7.00027e-22
3.79421e-22
-6.88201e-22
1.71161e-21
-5.02106e-18
4.95255e-18
1.74374e-17
-2.07622e-17
2.3574e-16
-2.32033e-16
1.85959e-16
-2.67598e-17
1.20031e-16
8.60647e-18
1.55865e-16
-6.59299e-17
2.16151e-16
-8.08569e-17
1.5025e-16
-9.45881e-18
7.28054e-17
-6.89608e-19
6.05791e-17
-4.33092e-17
6.42911e-17
-5.25047e-17
7.93246e-17
1.68373e-16
1.20936e-16
-8.69901e-17
1.32736e-16
-1.31296e-16
1.47222e-16
-1.38728e-16
1.65593e-16
-1.56571e-16
1.593e-16
-1.8557e-16
1.13848e-16
-1.72254e-16
5.82627e-17
-1.18455e-16
2.09337e-17
-6.05159e-17
4.56586e-18
-1.97966e-17
5.58762e-19
-3.21922e-18
4.37671e-20
-2.37221e-19
2.52261e-21
-8.25359e-21
1.20356e-22
2.81828e-23
5.49763e-24
1.67703e-23
2.26129e-25
1.54624e-24
7.83337e-27
9.66974e-26
2.17167e-28
4.55583e-27
4.64959e-30
1.62413e-28
1.05386e-31
4.3918e-30
2.00248e-33
1.04172e-31
2.78272e-35
1.99171e-33
2.49692e-37
2.79926e-35
1.07479e-39
2.53729e-37
1.09873e-39
-5.11141e-24
2.11282e-21
8.11262e-25
7.11531e-22
6.09772e-24
3.58478e-22
1.54522e-23
1.70359e-21
1.55646e-15
-1.53818e-15
6.28242e-14
-6.06748e-14
1.79334e-13
-1.30472e-13
6.73513e-14
9.71653e-14
3.07909e-14
2.31522e-14
3.14321e-14
-8.52489e-15
3.52224e-14
-9.5399e-15
1.91106e-14
9.09356e-15
7.14882e-15
5.96162e-15
4.03658e-15
-4.27872e-16
3.03034e-15
-5.51114e-16
2.07868e-15
1.61819e-16
8.26868e-16
3.24022e-16
4.03808e-16
-2.16509e-16
2.54756e-16
-1.97715e-16
3.00416e-16
-4.76536e-17
3.2971e-16
-2.43392e-16
2.86693e-16
-2.19335e-16
2.23294e-16
-1.83109e-16
1.33766e-16
-1.43325e-16
5.02953e-17
-8.08126e-17
9.70785e-18
-2.70016e-17
9.04519e-19
-3.20898e-18
5.18733e-20
-1.61459e-19
2.43411e-21
2.98054e-22
1.14641e-22
3.28138e-22
4.94307e-24
3.25164e-23
1.78519e-25
2.15407e-24
5.12473e-27
1.06471e-25
1.14852e-28
3.95382e-27
2.95407e-30
1.14307e-28
5.98979e-32
2.91532e-30
8.91263e-34
5.96799e-32
8.57541e-36
8.99432e-34
3.94786e-38
8.74508e-36
4.0535e-38
3.47458e-05
3.37579e-05
4.27062e-05
4.58617e-05
4.18282e-05
2.98688e-05
3.2952e-05
5.15824e-05
4.45824e-05
2.62906e-05
2.64045e-05
5.11299e-05
4.64531e-05
2.29951e-05
2.18965e-05
5.09611e-05
4.7775e-05
2.00144e-05
1.84858e-05
5.11856e-05
4.88869e-05
1.73024e-05
1.5622e-05
5.17507e-05
5.00748e-05
1.47809e-05
1.30496e-05
5.26471e-05
5.15511e-05
1.23961e-05
1.06587e-05
5.39421e-05
5.35235e-05
1.01327e-05
8.41816e-06
5.5764e-05
5.58893e-05
6.04617e-06
5.82613e-05
1.24924e-07
4.34063e-05
7.56036e-10
1.39064e-06
1.3127e-12
8.25264e-10
4.32736e-14
1.38276e-12
-1.34119e-14
-1.47694e-12
1.39449e-14
-3.20633e-12
2.1538e-14
-2.11955e-12
1.33633e-14
-9.09805e-13
6.54023e-15
-3.10022e-13
2.93991e-15
-1.0076e-13
1.21577e-15
-3.29793e-14
4.3267e-16
-1.04881e-14
1.20934e-16
-2.97582e-15
2.39926e-17
-6.80233e-16
2.60048e-18
-1.1247e-16
-7.97279e-19
-1.03075e-17
-2.48016e-18
4.37294e-18
-9.37798e-18
2.40511e-17
-2.66767e-17
6.08834e-17
-8.228e-17
1.53724e-16
-2.4021e-16
4.01327e-16
-5.68196e-16
9.06489e-16
1.67628e-15
2.5063e-05
2.07988e-05
1.41445e-05
1.09185e-05
4.59497e-07
2.28024e-06
4.38468e-07
2.10297e-08
4.95825e-05
2.27987e-05
4.5526e-05
1.48756e-05
3.84346e-05
9.05479e-06
5.05521e-06
3.06196e-05
5.38828e-05
2.00458e-05
5.38953e-05
1.48564e-05
5.26622e-05
1.02879e-05
6.34821e-06
5.13691e-05
5.378e-05
1.72269e-05
5.52973e-05
1.33395e-05
5.59687e-05
9.61655e-06
6.14011e-06
5.61768e-05
5.37463e-05
1.46662e-05
5.56367e-05
1.14491e-05
5.70266e-05
8.22664e-06
5.10776e-06
5.8059e-05
5.41233e-05
1.22935e-05
5.61021e-05
9.47032e-06
5.7765e-05
6.56371e-06
3.69078e-06
5.9182e-05
5.48947e-05
1.00459e-05
5.68938e-05
7.47128e-06
5.86735e-05
4.784e-06
2.08915e-06
6.02751e-05
5.61028e-05
7.88513e-06
5.80958e-05
5.47836e-06
5.99204e-05
2.95935e-06
4.01622e-07
6.16079e-05
5.78424e-05
5.80672e-06
5.9793e-05
3.52771e-06
6.16031e-05
1.14929e-06
-1.30419e-06
6.33089e-05
6.02452e-05
3.82285e-06
6.2076e-05
1.69692e-06
6.38e-05
-5.74717e-07
-2.96121e-06
6.5457e-05
6.18775e-05
9.96659e-07
6.45907e-05
6.79965e-08
6.61622e-05
-1.20159e-06
-4.27846e-06
6.79814e-05
4.29756e-06
-4.24304e-10
7.76564e-06
-6.27503e-08
2.42083e-05
-2.96244e-07
-9.62574e-08
5.52377e-05
4.0232e-10
-1.24383e-12
4.86205e-09
-1.01495e-13
1.01457e-07
-3.89676e-15
1.22366e-17
5.2001e-09
1.12598e-13
3.90413e-15
6.04888e-15
5.05468e-15
2.31719e-16
1.92045e-15
1.51224e-15
-1.39341e-16
-5.23819e-13
2.88404e-14
-1.41478e-13
5.81018e-14
-3.30417e-14
5.92819e-14
4.85148e-14
-1.82018e-14
-2.46773e-12
4.09728e-14
-1.72379e-12
6.53562e-14
-1.10393e-12
7.88427e-14
8.13281e-14
-6.52062e-13
-1.99857e-12
3.16252e-14
-1.77152e-12
4.41049e-14
-1.47438e-12
5.54326e-14
6.36993e-14
-1.1538e-12
-9.6585e-13
1.65475e-14
-9.83979e-13
2.14245e-14
-9.58597e-13
2.69138e-14
3.2438e-14
-8.91297e-13
-3.45624e-13
7.30925e-15
-3.79465e-13
8.76406e-15
-4.07041e-13
1.05573e-14
1.26357e-14
-4.23861e-13
-1.11354e-13
3.06197e-15
-1.23124e-13
3.41855e-15
-1.3576e-13
3.86077e-15
4.39555e-15
-1.48477e-13
-3.56334e-14
1.19312e-15
-3.854e-14
1.24807e-15
-4.17743e-14
1.31524e-15
1.39611e-15
-4.53853e-14
-1.09706e-14
3.97068e-16
-1.14581e-14
3.85243e-16
-1.19644e-14
3.72956e-16
3.59723e-16
-1.25118e-14
-2.95866e-15
1.01069e-16
-2.9216e-15
8.76103e-17
-2.8635e-15
7.36843e-17
5.90373e-17
-2.78404e-15
-6.22272e-16
1.69649e-17
-5.55939e-16
1.14181e-17
-4.80374e-16
5.93647e-18
1.26855e-18
-3.94373e-16
-8.76381e-17
7.28966e-19
-6.13085e-17
-5.00637e-19
-3.30837e-17
-3.50818e-18
-8.76148e-18
-7.32942e-18
-3.19869e-18
-2.56774e-18
5.81679e-18
-2.13905e-18
2.56108e-17
-5.71368e-18
-1.14993e-17
5.85612e-17
1.38847e-17
-5.71402e-18
3.41117e-17
-1.19804e-17
6.36218e-17
-2.2445e-17
-3.87292e-17
1.0866e-16
5.24928e-17
-1.91187e-17
1.05693e-16
-3.74415e-17
2.00147e-16
-6.81299e-17
-1.13739e-16
3.53495e-16
1.32461e-16
-5.4993e-17
2.64686e-16
-1.06523e-16
4.85304e-16
-1.86476e-16
-2.97754e-16
8.2741e-16
3.35527e-16
-1.68282e-16
6.54265e-16
-3.14077e-16
1.16636e-15
-5.28275e-16
-8.43409e-16
1.98847e-15
8.50962e-16
-4.71538e-16
1.61509e-15
-8.50336e-16
2.8958e-15
-1.43885e-15
-2.49105e-15
5.24785e-15
1.86627e-15
-1.07664e-15
3.5659e-15
-1.94665e-15
6.81027e-15
-3.53438e-15
-6.86964e-15
1.35362e-14
3.43573e-15
6.93259e-15
1.46235e-14
2.98596e-14
5.0535e-10
2.05244e-08
7.319e-12
4.98031e-10
1.75786e-13
7.1432e-12
4.51415e-12
-4.29401e-12
1.47462e-11
-1.02161e-11
4.40019e-11
-2.94351e-11
6.82375e-11
-2.57494e-11
1.33735e-11
5.32987e-11
5.44991e-12
7.48193e-12
4.85028e-12
-4.90312e-14
4.39063e-12
-1.59531e-13
2.16784e-12
1.66488e-12
7.58596e-13
9.78248e-13
4.15612e-13
1.0831e-13
2.90828e-13
9.16216e-15
1.52429e-13
6.17543e-14
4.79396e-14
5.41287e-14
1.79124e-14
3.43163e-15
7.4476e-15
4.52881e-16
2.04994e-15
1.48163e-15
8.03625e-16
-7.49891e-16
3.94799e-16
-3.42519e-16
3.56505e-16
-2.04584e-16
2.64795e-16
-1.17899e-16
1.34075e-16
-5.31493e-17
4.21177e-17
-2.94232e-17
6.14213e-18
-7.2193e-18
4.2155e-19
-5.57072e-19
2.23972e-20
6.51524e-22
1.21341e-21
2.56267e-21
6.03075e-23
3.15966e-22
2.44868e-24
2.47666e-23
7.72805e-26
1.39617e-24
1.85696e-27
5.78463e-26
4.8126e-29
1.78092e-27
1.05299e-30
4.8467e-29
1.69599e-32
1.07105e-30
1.76541e-34
1.74465e-32
8.7662e-37
1.83356e-34
9.15999e-37
9.0721e-06
3.56527e-06
1.20354e-07
9.201e-07
4.99688e-08
7.0392e-08
9.62266e-08
-3.65999e-07
2.8254e-08
6.79223e-08
2.42262e-08
3.96283e-09
1.65717e-08
7.44119e-09
2.57373e-09
1.40554e-08
8.1496e-10
1.76349e-09
7.22073e-10
7.49329e-11
5.78517e-10
1.37222e-10
2.16802e-10
3.45677e-10
6.04676e-11
1.46629e-10
3.28189e-11
2.11916e-11
2.12997e-11
6.35242e-12
1.04005e-11
7.39117e-12
2.98556e-12
5.15268e-12
1.11883e-12
7.23682e-13
4.43043e-13
2.30525e-13
1.14135e-13
1.43683e-13
2.69832e-14
9.13625e-15
4.7075e-15
5.21111e-16
8.77726e-16
-2.75484e-15
1.49472e-16
-5.24547e-16
9.79463e-17
-4.52671e-17
6.5874e-17
-1.68189e-17
1.31294e-17
-9.02832e-19
9.89282e-19
-1.56649e-20
6.4067e-20
-2.07673e-24
4.91799e-21
4.88518e-21
3.33787e-22
9.5142e-22
1.60405e-23
1.29499e-22
5.67412e-25
8.97678e-24
1.49325e-26
4.24993e-25
3.82426e-28
1.4312e-26
9.09011e-30
4.08832e-28
1.59461e-31
9.77945e-30
1.80761e-33
1.72734e-31
9.75268e-36
1.96937e-33
1.06449e-35
5.02589e-05
3.68924e-06
4.81458e-05
9.30474e-07
4.17322e-05
-1.45124e-06
2.00222e-05
-3.14804e-06
5.61127e-06
-4.3366e-06
3.70677e-06
-5.71895e-06
1.90669e-06
-4.99645e-06
3.44842e-07
-1.41681e-06
1.80835e-07
1.63819e-07
1.37355e-07
4.24417e-08
7.58528e-08
6.05013e-08
2.33994e-08
5.19174e-08
5.25236e-09
1.80267e-08
2.8055e-09
2.38415e-09
1.83059e-09
9.54111e-10
6.93884e-10
1.08693e-09
1.56708e-10
5.09927e-10
6.02728e-11
7.81727e-11
2.40337e-11
2.42603e-11
5.61358e-12
1.19641e-11
1.44436e-12
1.42112e-12
3.23193e-13
2.99313e-13
5.62253e-14
2.84875e-14
7.3789e-15
-5.1069e-15
7.4694e-16
-3.08332e-15
6.38615e-17
-5.12038e-16
3.68469e-18
-4.01212e-17
1.09211e-19
-1.05933e-18
7.29972e-21
2.26447e-24
5.99348e-21
1.04493e-21
2.23918e-21
1.45204e-21
3.02759e-22
8.43711e-22
1.25114e-23
1.26896e-22
2.30854e-25
6.61356e-24
6.40989e-27
2.03255e-25
1.63001e-28
6.39877e-27
3.07197e-30
1.65263e-28
3.7473e-32
3.15354e-30
2.17405e-34
3.89134e-32
2.2748e-34
5.65904e-05
3.27561e-06
5.74656e-05
5.52766e-08
5.86088e-05
-2.73688e-06
5.99005e-05
-5.13099e-06
6.12144e-05
-7.30931e-06
5.98102e-05
-9.44929e-06
4.51072e-05
-1.14522e-05
2.37563e-05
-1.32679e-05
1.50673e-05
-1.50218e-05
9.91157e-06
-1.24858e-05
4.52607e-06
-9.79988e-06
1.1191e-06
-4.99187e-06
4.53952e-07
-1.64856e-06
2.89924e-07
1.61234e-07
1.61302e-07
1.26145e-07
5.08972e-08
1.09105e-07
1.03602e-08
4.04105e-08
3.92852e-09
6.41e-09
1.29285e-09
2.54354e-09
2.44177e-10
1.00465e-09
6.62279e-11
1.47253e-10
1.40963e-11
3.24629e-11
2.70031e-12
4.22992e-12
4.16265e-13
3.66229e-13
4.9772e-14
-2.6589e-14
4.36487e-15
-1.1139e-14
2.58449e-16
-1.56788e-15
8.56599e-18
-7.46649e-17
4.52465e-20
4.26048e-21
3.33405e-20
1.31624e-20
1.80302e-20
1.52312e-20
4.68774e-21
9.66234e-21
3.51868e-22
2.34826e-21
7.35187e-24
1.75004e-22
1.90762e-25
5.57278e-24
5.25225e-27
1.84727e-25
1.07503e-28
5.1812e-27
1.42532e-30
1.07497e-28
8.98372e-33
1.44416e-30
9.19115e-33
5.90668e-05
2.26782e-06
6.01225e-05
-1.00047e-06
6.12837e-05
-3.89802e-06
6.2592e-05
-6.43931e-06
6.40121e-05
-8.7294e-06
6.54351e-05
-1.08723e-05
6.68476e-05
-1.28647e-05
6.82718e-05
-1.46922e-05
6.96291e-05
-1.63791e-05
6.9015e-05
-1.79532e-05
5.55951e-05
-1.94119e-05
3.92971e-05
-2.07449e-05
2.72644e-05
-2.19661e-05
1.57749e-05
-2.12903e-05
6.92607e-06
-1.49528e-05
1.77824e-06
-8.51352e-06
5.50172e-07
-2.1498e-06
2.54438e-07
2.92756e-07
7.697e-08
1.75559e-07
1.3068e-08
6.39668e-08
3.1398e-09
9.78101e-09
5.64944e-10
2.51102e-09
1.06028e-10
4.15773e-10
1.70226e-11
5.55453e-11
2.40033e-12
3.8992e-12
2.4798e-13
8.01658e-14
1.76816e-14
-3.3949e-14
6.59121e-16
-2.29841e-15
3.81291e-18
5.24556e-18
1.98756e-18
1.17109e-18
8.40145e-19
8.82836e-19
1.91694e-19
4.62726e-19
1.41099e-20
1.01918e-19
3.18303e-22
7.51228e-21
9.88391e-24
2.57254e-22
3.00087e-25
9.49358e-24
6.72601e-27
2.91972e-25
9.74678e-29
6.63322e-27
6.71772e-31
9.75209e-29
6.79909e-31
6.05836e-05
8.66267e-07
6.19001e-05
-2.31696e-06
6.32071e-05
-5.20501e-06
6.45627e-05
-7.79497e-06
6.59695e-05
-1.01362e-05
6.7387e-05
-1.22898e-05
6.87925e-05
-1.42703e-05
7.01815e-05
-1.60811e-05
7.15438e-05
-1.77414e-05
7.28656e-05
-1.9275e-05
7.41444e-05
-2.06907e-05
7.53679e-05
-2.19684e-05
7.65036e-05
-2.31018e-05
7.7233e-05
-2.41152e-05
6.60576e-05
-2.50227e-05
4.58995e-05
-2.58101e-05
2.53034e-05
-2.64824e-05
9.87728e-06
-1.98087e-05
2.14292e-06
-1.20163e-05
5.22183e-07
-2.02288e-06
1.64701e-07
3.5576e-07
2.69493e-08
1.3798e-07
4.18654e-09
2.26397e-08
5.69839e-10
3.56789e-09
7.30331e-11
4.32817e-10
9.83073e-12
2.72823e-11
8.72119e-13
1.26148e-12
4.08033e-14
4.67581e-15
5.21552e-16
2.63397e-15
4.86793e-17
5.02943e-16
5.25206e-17
4.15804e-17
2.18238e-17
2.48926e-17
1.72602e-18
8.99142e-18
3.44169e-20
7.58127e-19
1.16646e-21
2.76992e-20
3.87406e-23
1.12475e-21
9.57931e-25
3.77604e-23
1.54487e-26
9.42023e-25
1.17325e-28
1.53237e-26
1.17872e-28
6.19032e-05
-7.61786e-07
6.34146e-05
-3.82845e-06
6.48645e-05
-6.6549e-06
6.63002e-05
-9.23063e-06
6.77361e-05
-1.15721e-05
6.91604e-05
-1.3714e-05
7.05658e-05
-1.56757e-05
7.1951e-05
-1.74663e-05
7.33099e-05
-1.91002e-05
7.46292e-05
-2.05943e-05
7.58938e-05
-2.19552e-05
7.71e-05
-2.31747e-05
7.825e-05
-2.42518e-05
7.93383e-05
-2.52035e-05
8.03545e-05
-2.60389e-05
8.12865e-05
-2.67421e-05
8.21149e-05
-2.73108e-05
7.73043e-05
-2.77694e-05
5.14656e-05
-2.81265e-05
2.08602e-05
-2.83986e-05
4.50936e-06
-1.86413e-05
7.41048e-07
-5.7695e-06
1.73268e-07
5.69904e-07
2.24099e-08
1.51002e-07
1.88909e-09
2.0423e-08
2.48056e-10
1.5892e-09
2.55352e-11
1.60149e-10
1.68263e-12
5.35989e-12
6.07343e-14
1.66274e-13
5.18904e-15
5.53283e-14
1.48579e-16
5.11943e-15
3.74963e-17
2.12824e-16
1.79855e-17
3.21581e-17
2.11078e-18
9.77908e-18
5.46207e-20
9.53552e-19
1.46945e-21
3.94718e-20
4.02304e-23
1.4073e-21
7.18301e-25
3.95731e-23
6.09378e-27
7.19371e-25
6.20646e-27
6.33554e-05
-2.50924e-06
6.49821e-05
-5.45515e-06
6.65256e-05
-8.19837e-06
6.80221e-05
-1.07272e-05
6.94858e-05
-1.30358e-05
7.09171e-05
-1.51453e-05
7.23186e-05
-1.70772e-05
7.36912e-05
-1.88389e-05
7.50291e-05
-2.04381e-05
7.63232e-05
-2.18884e-05
7.75665e-05
-2.31985e-05
7.87582e-05
-2.43665e-05
7.98987e-05
-2.53923e-05
8.09803e-05
-2.62851e-05
8.199e-05
-2.70486e-05
8.29244e-05
-2.76764e-05
8.37847e-05
-2.81712e-05
8.45638e-05
-2.85484e-05
8.52477e-05
-2.88104e-05
8.58071e-05
-2.8958e-05
7.02549e-05
-2.9017e-05
2.93363e-05
-2.90101e-05
4.07399e-06
-1.97759e-05
5.55664e-07
-4.99824e-06
6.29542e-08
4.94011e-07
7.82401e-09
5.44167e-08
5.25801e-10
7.25815e-09
3.01957e-11
4.25282e-10
2.93695e-12
2.26192e-13
3.40069e-13
2.59459e-12
2.9579e-14
3.12401e-13
1.40746e-15
2.81293e-14
3.34527e-17
1.39178e-15
2.25739e-18
4.01193e-17
1.16583e-19
2.17633e-18
3.58866e-21
1.23374e-19
1.2662e-22
5.07703e-21
2.6413e-24
1.60833e-22
2.58569e-26
3.29621e-24
3.20584e-26
6.50977e-05
-4.29803e-06
6.67669e-05
-7.12442e-06
6.83461e-05
-9.77753e-06
6.98655e-05
-1.22466e-05
7.13329e-05
-1.45033e-05
7.27526e-05
-1.6565e-05
7.41336e-05
-1.84581e-05
7.54789e-05
-2.01843e-05
7.67831e-05
-2.17423e-05
7.80405e-05
-2.31458e-05
7.92495e-05
-2.44075e-05
8.04098e-05
-2.55268e-05
8.15194e-05
-2.65019e-05
8.25719e-05
-2.73376e-05
8.35605e-05
-2.80372e-05
8.44834e-05
-2.85993e-05
8.53391e-05
-2.90269e-05
8.61185e-05
-2.93278e-05
8.68132e-05
-2.95051e-05
8.74211e-05
-2.95659e-05
8.79305e-05
-2.95264e-05
8.83116e-05
-2.93913e-05
7.27986e-05
-2.91845e-05
2.49852e-05
-2.89537e-05
9.91701e-07
-1.59232e-05
2.11611e-07
-4.72409e-07
1.94665e-08
1.91212e-07
5.93917e-10
1.85979e-08
9.41606e-11
4.11313e-10
1.22166e-11
6.50825e-11
1.34043e-12
1.09763e-11
1.17301e-13
1.24041e-12
6.81503e-15
1.12124e-13
1.94572e-16
6.69051e-15
7.21242e-18
1.89585e-16
3.07051e-19
7.02799e-18
1.03361e-20
2.9614e-19
2.24328e-22
1.0064e-20
2.32442e-24
2.22705e-22
2.35822e-24
6.72178e-05
-6.05879e-06
6.88606e-05
-8.76725e-06
7.04156e-05
-1.13325e-05
7.19118e-05
-1.37427e-05
7.33468e-05
-1.59383e-05
7.47251e-05
-1.79432e-05
7.60622e-05
-1.97953e-05
7.73621e-05
-2.14843e-05
7.86173e-05
-2.29975e-05
7.98232e-05
-2.43518e-05
8.09825e-05
-2.55667e-05
8.20959e-05
-2.66403e-05
8.31604e-05
-2.75664e-05
8.41709e-05
-2.83481e-05
8.51237e-05
-2.89901e-05
8.60167e-05
-2.94924e-05
8.68464e-05
-2.98567e-05
8.76064e-05
-3.00878e-05
8.82916e-05
-3.01903e-05
8.88986e-05
-3.01726e-05
8.94173e-05
-3.00451e-05
8.98422e-05
-2.98162e-05
9.01604e-05
-2.95027e-05
9.0322e-05
-2.91153e-05
5.88491e-05
-2.86844e-05
8.09809e-06
-2.16397e-05
3.10622e-07
-4.95812e-06
2.68079e-08
2.77913e-07
8.49437e-10
2.44579e-08
2.73311e-10
4.26657e-10
3.66113e-11
2.38718e-10
3.97513e-12
3.32716e-11
3.40501e-13
3.70883e-12
2.11289e-14
3.2776e-13
6.47248e-16
2.07787e-14
2.0758e-17
6.35079e-16
7.27149e-19
2.03578e-17
1.77477e-20
7.07982e-19
2.05996e-22
1.75224e-20
2.08646e-22
6.96922e-05
-7.76935e-06
7.12556e-05
-1.03304e-05
7.2741e-05
-1.28175e-05
7.41913e-05
-1.51928e-05
7.55606e-05
-1.73076e-05
7.68644e-05
-1.92469e-05
7.81323e-05
-2.10631e-05
7.93667e-05
-2.27186e-05
8.05546e-05
-2.41853e-05
8.1692e-05
-2.54892e-05
8.2786e-05
-2.66607e-05
8.38388e-05
-2.76932e-05
8.48454e-05
-2.85728e-05
8.58011e-05
-2.93038e-05
8.67042e-05
-2.98933e-05
8.75528e-05
-3.0341e-05
8.83434e-05
-3.06475e-05
8.9071e-05
-3.08156e-05
8.97305e-05
-3.08498e-05
9.03163e-05
-3.07584e-05
9.08219e-05
-3.05506e-05
9.12432e-05
-3.02375e-05
9.15729e-05
-2.98324e-05
9.1803e-05
-2.93453e-05
9.19086e-05
-2.879e-05
7.87348e-05
-2.8178e-05
2.2439e-05
-2.68983e-05
2.97494e-07
-8.67019e-06
1.93678e-08
2.45285e-07
3.17331e-09
1.26761e-08
6.17197e-10
2.40957e-09
8.05989e-11
5.34845e-10
8.52863e-12
7.44126e-11
7.20676e-13
8.05241e-12
4.35229e-14
6.96187e-13
1.33666e-15
4.29455e-14
3.87664e-17
1.31934e-15
1.01419e-18
3.84994e-17
1.31352e-20
1.01279e-18
1.33821e-20
6.41689e-05
-4.89509e-09
6.67204e-05
-3.11195e-06
7.12862e-05
-6.67898e-06
7.59062e-05
-1.31756e-05
7.75844e-05
-1.76523e-05
7.88621e-05
-2.05214e-05
8.01251e-05
-2.23233e-05
8.13692e-05
-2.39604e-05
8.25385e-05
-2.53529e-05
8.3635e-05
-2.65846e-05
8.46636e-05
-2.76889e-05
8.5646e-05
-2.86756e-05
8.65842e-05
-2.95108e-05
8.74732e-05
-3.01927e-05
8.83136e-05
-3.07338e-05
8.9105e-05
-3.11323e-05
8.98443e-05
-3.13871e-05
9.05273e-05
-3.14987e-05
9.11483e-05
-3.14709e-05
9.1702e-05
-3.13121e-05
9.21816e-05
-3.10307e-05
9.25824e-05
-3.06378e-05
9.28975e-05
-3.0147e-05
9.31242e-05
-2.95719e-05
9.3257e-05
-2.89228e-05
9.32833e-05
-2.82043e-05
9.18106e-05
-2.74216e-05
3.43996e-05
-2.66122e-05
2.49227e-07
-9.75124e-06
1.21655e-08
1.56438e-07
6.01178e-09
6.2172e-10
1.07772e-09
4.8982e-09
1.3059e-10
9.88085e-10
1.33094e-11
1.22311e-10
1.0664e-12
1.2813e-11
5.8048e-14
1.046e-12
1.6207e-15
5.76753e-14
3.90198e-17
1.61333e-15
5.53982e-19
3.92988e-17
5.69846e-19
3.05008e-10
2.18484e-17
2.35611e-06
-3.4672e-15
1.99737e-05
-1.35213e-14
4.15152e-05
-2.37069e-14
5.15494e-05
-2.65688e-14
5.99832e-05
-2.01675e-14
6.98822e-05
-6.93499e-06
7.72808e-05
-1.21912e-05
8.19193e-05
-1.76963e-05
8.48727e-05
-2.2985e-05
8.61256e-05
-2.8006e-05
8.72032e-05
-2.97462e-05
8.82303e-05
-3.05329e-05
8.91552e-05
-3.11149e-05
8.99489e-05
-3.15269e-05
9.06767e-05
-3.18599e-05
9.13546e-05
-3.20651e-05
9.19806e-05
-3.21246e-05
9.25512e-05
-3.20415e-05
9.30622e-05
-3.18232e-05
9.35062e-05
-3.14753e-05
9.38774e-05
-3.10088e-05
9.41681e-05
-3.04376e-05
9.43736e-05
-2.97771e-05
9.44914e-05
-2.90407e-05
9.45233e-05
-2.82361e-05
9.44612e-05
-2.73596e-05
9.42468e-05
-2.63978e-05
3.8835e-05
-2.53589e-05
1.67213e-07
-8.26101e-06
2.45319e-08
3.97189e-08
9.16362e-09
1.17712e-08
1.31922e-09
8.12938e-09
1.57279e-10
1.26915e-09
1.50039e-11
1.51109e-10
1.07307e-12
1.47235e-11
4.74118e-14
1.07426e-12
1.09145e-15
4.78365e-14
1.62356e-17
1.11583e-15
1.69032e-17
-1.65226e-16
1.14214e-15
1.16283e-16
-3.74865e-15
7.65049e-16
-1.39254e-14
1.69028e-15
-2.40285e-14
2.64957e-15
-2.70711e-14
3.82775e-15
-2.13882e-14
5.81187e-06
-2.85992e-13
1.8912e-05
-3.39726e-13
3.19642e-05
-2.06326e-13
4.68576e-05
-7.50264e-14
6.35663e-05
-3.27813e-14
7.63676e-05
-8.98977e-06
8.46845e-05
-1.55075e-05
8.97089e-05
-2.40365e-05
9.11069e-05
-3.14822e-05
9.20407e-05
-3.27833e-05
9.28379e-05
-3.28561e-05
9.3425e-05
-3.27111e-05
9.39393e-05
-3.25556e-05
9.43971e-05
-3.2281e-05
9.47952e-05
-3.18738e-05
9.51283e-05
-3.13417e-05
9.53879e-05
-3.06969e-05
9.55662e-05
-2.99556e-05
9.56594e-05
-2.91339e-05
9.56678e-05
-2.82445e-05
9.55977e-05
-2.72895e-05
9.54495e-05
-2.62496e-05
9.51756e-05
-2.50851e-05
3.40611e-05
-2.2486e-05
7.3014e-08
-5.14917e-06
4.84238e-08
-5.14959e-08
9.60758e-09
3.99117e-08
1.27336e-09
8.84297e-09
1.43092e-10
1.22101e-09
1.2171e-11
1.42125e-10
7.08343e-13
1.23677e-11
2.19369e-14
7.30755e-13
3.29275e-16
2.279e-14
3.49502e-16
-9.78173e-15
3.15364e-14
4.08509e-14
4.61778e-15
1.1254e-13
-3.85122e-14
1.21527e-13
-6.15404e-14
1.14983e-13
-6.94783e-14
8.33438e-14
-8.19878e-14
6.86782e-14
-1.21926e-13
6.1812e-14
-1.12794e-13
4.97527e-14
-6.93135e-14
4.15152e-14
-3.68293e-14
3.9567e-14
-2.65685e-14
6.73128e-06
-8.00631e-14
2.4013e-05
-3.18737e-14
4.79745e-05
-8.71472e-13
7.15447e-05
-1.9376e-12
8.64399e-05
-1.15435e-05
9.31882e-05
-2.31245e-05
9.445e-05
-3.3086e-05
9.52057e-05
-3.33032e-05
9.56918e-05
-3.27651e-05
9.60445e-05
-3.22261e-05
9.63302e-05
-3.16269e-05
9.65505e-05
-3.09172e-05
9.66971e-05
-3.01022e-05
9.67628e-05
-2.91998e-05
9.67447e-05
-2.82263e-05
9.66461e-05
-2.71908e-05
9.64797e-05
-2.60832e-05
9.62534e-05
-2.48589e-05
8.98746e-05
-2.34352e-05
2.12082e-05
-1.76768e-05
4.36895e-08
-1.98197e-06
4.44427e-08
-1.10335e-08
7.39659e-09
4.14984e-08
9.62009e-10
7.37774e-09
9.52816e-11
9.7815e-10
6.56857e-12
9.94031e-11
2.68332e-13
6.98676e-12
4.35839e-15
2.87432e-13
4.7485e-15
-3.02711e-13
8.04414e-14
-3.75495e-14
6.46583e-14
3.6591e-13
4.82184e-14
3.87233e-13
2.89653e-14
3.69878e-13
3.53182e-15
3.82938e-13
-7.29603e-14
3.49286e-13
-1.06761e-13
2.60768e-13
-1.18001e-13
1.10181e-13
-8.54091e-14
4.55191e-14
-3.13411e-14
4.17341e-14
-1.778e-14
3.02527e-14
-2.30506e-14
2.71555e-14
-9.59517e-15
6.05678e-14
-8.59353e-13
3.44822e-13
-2.09622e-12
1.50877e-05
-1.71352e-10
5.00688e-05
-1.17263e-10
8.11575e-05
-1.97364e-06