/*--------------------------------*- C++ -*----------------------------------*\
| =========                 |                                                 |
| \\      /  F ield         | OpenFOAM: The Open Source CFD Toolbox           |
|  \\    /   O peration     | Version:  5.0                                   |
|   \\  /    A nd           | Web:      www.OpenFOAM.org                      |
|    \\/     M anipulation  |                                                 |
\*---------------------------------------------------------------------------*/
FoamFile
{
    version     2.0;
    format      ascii;
    class       volScalarField;
    location    "0.5";
    object      alpha.water;
}
// * * * * * * * * * * * * * * * * * * * * * * * * * * * * * * * * * * * * * //

dimensions      [0 0 0 0 0 0 0];

internalField   nonuniform List<scalar> 
1915
(
1
0.999981
0.998009
0.999153
0.976527
0.99825
0.970636
0.997294
0.990132
0.998292
1
1
1
0.999999
1
0.999999
1
0.99999
1
0.999985
2.15209e-23
3.22408e-23
3.13212e-23
2.59552e-24
7.9755e-26
2.36491e-27
2.38324e-28
9.57525e-28
1.1688e-26
5.25589e-26
1.36827e-25
2.52358e-25
3.74764e-25
4.93129e-25
6.55368e-25
8.41163e-25
9.84314e-25
1.09987e-24
1.1517e-24
1.01293e-24
7.06472e-25
3.9326e-25
1.70684e-25
5.43386e-26
1.18342e-26
1.67865e-27
1.55785e-28
1.03641e-29
6.2049e-31
3.83843e-32
2.31322e-33
1.24811e-34
5.71703e-36
2.14348e-37
6.31245e-39
1.38102e-40
2.0756e-42
1.89624e-44
8.4686e-47
1.15078e-49
1.39251e-21
3.62616e-22
8.85804e-23
8.46774e-24
5.60629e-25
5.83238e-26
2.6561e-26
2.40321e-25
2.60839e-24
1.21789e-23
3.47338e-23
7.28324e-23
1.2544e-22
1.8854e-22
2.67189e-22
3.32899e-22
3.59488e-22
3.62339e-22
3.33614e-22
2.52038e-22
1.56274e-22
7.96983e-23
3.21151e-23
9.60981e-24
2.00606e-24
2.80043e-25
2.62506e-26
1.78051e-27
1.03995e-28
6.04574e-30
3.478e-31
1.8382e-32
8.311e-34
3.05514e-35
8.77827e-37
1.86451e-38
2.66621e-40
2.18921e-42
7.28925e-45
6.86835e-49
1.87228e-20
2.95249e-21
5.66863e-22
8.08405e-23
1.1218e-23
2.89473e-24
2.33053e-24
2.68363e-23
2.71811e-22
1.28764e-21
3.87206e-21
8.69566e-21
1.60431e-20
2.53843e-20
3.64482e-20
4.46087e-20
4.67402e-20
4.56387e-20
3.8767e-20
2.69711e-20
1.56734e-20
7.55644e-21
2.88698e-21
8.24281e-22
1.66499e-22
2.29317e-23
2.1548e-24
1.46181e-25
8.25731e-27
4.45784e-28
2.32716e-29
1.1062e-30
4.503e-32
1.49593e-33
3.87507e-35
7.30142e-37
8.81117e-39
4.90967e-41
1.93432e-44
3.03226e-50
1.16872e-19
1.93541e-20
4.38887e-21
9.56147e-22
2.55856e-22
1.37479e-22
1.63116e-22
2.0657e-21
1.88846e-20
8.79927e-20
2.73018e-19
6.4868e-19
1.26023e-18
2.03487e-18
2.89749e-18
3.49599e-18
3.58612e-18
3.38316e-18
2.6821e-18
1.7548e-18
9.78014e-19
4.5645e-19
1.69017e-19
4.6925e-20
9.31111e-21
1.2791e-21
1.21442e-22
8.31055e-24
4.60772e-25
2.35985e-26
1.14361e-27
4.9862e-29
1.84928e-30
5.55362e-32
1.27652e-33
2.03279e-35
1.71907e-37
2.25891e-40
3.49585e-43
2.26491e-48
5.16775e-19
1.21557e-19
3.8107e-20
1.2381e-20
5.87944e-21
5.02734e-21
1.05473e-20
1.41859e-19
1.26245e-18
6.2653e-18
1.84405e-17
4.62429e-17
9.9154e-17
1.62982e-16
2.20068e-16
2.5218e-16
2.48023e-16
2.12991e-16
1.47939e-16
8.76149e-17
4.57159e-17
2.03832e-17
7.29974e-18
1.98709e-18
3.92694e-19
5.44985e-20
5.27616e-21
3.67639e-22
2.03174e-23
1.00675e-24
4.62205e-26
1.88425e-27
6.45968e-29
1.76122e-30
3.5302e-32
4.30587e-34
1.33325e-36
3.56508e-39
1.30267e-41
1.89227e-46
1.8293e-18
6.61149e-19
2.89515e-19
1.3477e-19
1.02173e-19
1.5792e-19
1.14236e-18
1.63973e-17
1.40046e-16
6.59461e-16
1.64596e-15
3.17948e-15
6.88686e-15
1.16552e-14
1.57519e-14
1.65622e-14
1.58947e-14
1.31174e-14
8.34287e-15
4.44371e-15
2.06681e-15
8.14864e-16
2.6352e-16
6.76397e-17
1.32088e-17
1.87448e-18
1.88191e-19
1.35058e-20
7.50953e-22
3.65415e-23
1.61735e-24
6.26684e-26
2.0103e-27
4.98407e-29
8.41328e-31
5.87919e-33
1.71954e-35
1.22457e-37
4.88196e-40
8.03584e-45
5.90497e-18
3.27911e-18
1.83279e-18
1.11744e-18
1.69201e-18
5.13122e-17
1.40525e-16
6.70555e-16
2.87496e-15
1.02571e-14
2.93139e-14
7.28289e-14
1.35729e-13
2.18884e-13
3.18958e-13
3.67931e-13
3.69983e-13
3.41033e-13
2.61361e-13
1.59988e-13
8.17158e-14
3.22395e-14
9.49138e-15
2.15434e-15
3.88452e-16
5.47224e-17
5.74338e-18
4.33392e-19
2.44253e-20
1.16833e-21
5.03407e-23
1.88054e-24
5.71138e-26
1.28766e-27
1.70268e-29
7.39219e-32
5.307e-34
4.3504e-36
1.82661e-38
-2.80707e-43
1.41152e-17
1.33228e-17
9.7686e-18
5.81173e-17
1.33157e-15
5.53242e-17
1.5209e-15
2.68493e-15
4.30684e-15
1.25756e-14
3.70974e-14
3.64072e-13
5.92462e-13
8.66805e-13
1.28121e-12
1.82189e-12
2.24118e-12
2.2983e-12
2.19845e-12
1.78241e-12
1.23684e-12
6.70681e-13
2.54316e-13
6.65995e-14
1.21044e-14
1.60602e-15
1.63914e-16
1.25556e-17
7.13221e-19
3.34409e-20
1.41016e-21
5.14203e-23
1.4971e-24
3.06836e-26
2.83843e-28
1.46979e-30
1.76255e-32
1.54995e-34
6.81497e-37
-1.42923e-41
5.16346e-17
5.46711e-17
5.15347e-17
3.37645e-16
-7.60703e-17
3.66988e-15
3.37512e-13
3.44796e-13
1.90973e-13
2.80577e-13
4.23153e-13
6.35133e-13
6.93831e-13
9.23131e-13
1.32564e-12
2.23955e-12
4.72521e-12
5.21878e-12
5.40061e-12
5.69485e-12
5.36784e-12
4.1153e-12
2.36927e-12
1.00528e-12
2.84744e-13
4.79677e-14
4.93673e-15
3.46917e-16
1.81856e-17
8.31535e-19
3.5008e-20
1.27061e-21
3.60712e-23
6.75076e-25
4.74246e-27
4.28909e-29
5.78085e-31
5.39501e-33
2.50489e-35
-9.5827e-40
-4.40722e-29
1.02955e-18
1.45901e-18
1.53834e-18
-3.56666e-14
8.3683e-12
5.85929e-11
4.12936e-11
1.59975e-11
1.65927e-11
1.98845e-11
1.45131e-11
6.63759e-12
4.12925e-12
3.94028e-12
3.62703e-12
5.2496e-12
5.41187e-12
5.48095e-12
7.54696e-12
9.27673e-12
8.38094e-12
6.70548e-12
4.42091e-12
2.07643e-12
5.84572e-13
8.4857e-14
6.69807e-15
3.42843e-16
1.57087e-17
6.8607e-19
2.58211e-20
7.45271e-22
1.3441e-23
9.39865e-26
1.1211e-27
1.6304e-29
1.61774e-31
7.96723e-34
-3.43825e-38
1
0.999997
1
1
1
1
1
1
1
1
1
1
1
1
1
1
1
1
1
1
0.427484
0.0104368
1.03842e-08
-1.17935e-14
-1.61051e-08
-3.21715e-08
-2.00461e-08
-8.25735e-09
-2.73799e-09
-8.75655e-10
-2.84645e-10
-9.0609e-11
-2.59068e-11
-6.00288e-12
-1.01135e-12
-9.4884e-14
2.25949e-14
1.6129e-13
4.33412e-13
1.12745e-12
3.09515e-12
7.41963e-12
1.45486e-11
0.999999
1
0.340041
-1.46244e-13
1
0.999944
0.969052
0.930052
1
0.999915
0.999999
0.999999
1
1
1
1
1
1
1
1
1
1
1
1
1
1
1
1
1
1
1
1
1
1
1
1
1
1
1
1
0.849909
0.996245
0.993743
0.998726
0.0462456
0.0684481
0.164482
0.53105
8.97751e-10
1.37043e-05
0.00118775
0
2.08215e-10
0
0
-1.69653e-12
-5.68158e-09
-1.53263e-09
-3.57598e-10
-1.97194e-10
-2.45095e-08
-1.70223e-08
-1.08608e-08
-6.40549e-09
-1.86427e-08
-1.63576e-08
-1.35136e-08
-1.0523e-08
-8.62069e-09
-8.66393e-09
-8.3504e-09
-7.7018e-09
-2.99451e-09
-3.23445e-09
-3.42283e-09
-3.52588e-09
-9.47355e-10
-1.02812e-09
-1.11565e-09
-1.20399e-09
-3.00505e-10
-3.18347e-10
-3.38841e-10
-3.62424e-10
-9.24412e-11
-9.43883e-11
-9.65868e-11
-9.92302e-11
-2.50805e-11
-2.41689e-11
-2.31709e-11
-2.20888e-11
-5.33842e-12
-4.64648e-12
-3.92032e-12
-3.15003e-12
-7.64902e-13
-5.20473e-13
-2.73791e-13
-5.92665e-14
-2.85368e-14
1.48022e-14
1.34282e-13
3.52033e-13
8.27401e-14
2.17338e-13
4.20753e-13
7.17103e-13
3.62112e-13
7.22881e-13
1.36071e-12
2.39378e-12
9.47861e-13
1.88039e-12
3.44362e-12
5.82438e-12
2.49741e-12
4.86412e-12
8.632e-12
1.43707e-11
6.68307e-12
1.26035e-11
2.21148e-11
3.8385e-11
1.54505e-11
2.88432e-11
5.2772e-11
1.00428e-10
2.97067e-11
5.72387e-11
1.14623e-10
2.3363e-10
-3.17714e-12
-1.27265e-13
-6.92539e-13
-5.72798e-11
-6.43675e-11
-4.38277e-09
1.1673e-08
4.53907e-09
1.24214e-09
1.55368e-09
1.56577e-09
9.28877e-10
3.98746e-10
2.00664e-10
1.39338e-10
8.35035e-11
3.16232e-11
1.54218e-11
9.50492e-12
8.74759e-12
9.12794e-12
8.43432e-12
8.42416e-12
6.891e-12
4.12865e-12
1.70209e-12
3.90682e-13
4.25011e-14
2.66529e-15
1.44559e-16
7.46747e-18
3.2644e-19
1.07572e-20
2.28555e-22
1.78773e-24
1.84381e-26
2.85146e-28
3.03934e-30
1.59779e-32
-6.74196e-37
0.552838
0.0611854
3.59838e-09
0.00126456
2.71227e-07
9.33329e-07
1.45108e-06
3.44069e-07
1.44161e-07
6.48418e-08
8.56228e-08
7.01003e-08
2.38142e-08
1.16479e-08
7.56678e-09
3.51848e-09
1.40325e-09
4.96911e-10
2.06577e-10
5.70507e-11
2.29237e-11
1.13344e-11
5.9581e-12
2.49701e-12
2.11834e-12
1.64271e-12
5.78914e-13
7.90341e-14
5.98479e-15
4.56196e-16
3.46476e-17
1.95874e-18
7.70589e-20
1.97666e-21
2.26221e-23
1.54024e-25
2.48163e-27
2.87133e-29
1.62342e-31
-6.74368e-36
0.989497
0.94781
0.881813
0.614583
0.21617
0.0990874
0.0539371
0.0101077
1.69238e-05
1.30254e-05
9.8035e-06
4.60293e-06
1.31756e-06
4.45157e-07
3.06886e-07
2.29104e-07
5.83749e-08
1.74594e-08
6.7899e-09
2.47457e-09
5.58502e-10
1.31994e-10
3.08058e-11
5.86954e-12
1.41349e-12
6.6775e-14
2.14966e-15
1.67561e-16
1.17971e-16
1.15105e-16
6.33416e-17
1.62599e-17
1.50418e-18
3.89217e-20
1.99188e-22
2.08222e-24
3.79043e-26
4.69827e-28
2.86221e-30
-9.13464e-35
1
1
0.999479
0.998147
0.996074
0.980444
0.860842
0.564767
0.343001
0.221167
0.117616
0.0371717
0.00504974
4.42394e-05
2.645e-05
1.14382e-05
2.53107e-06
8.63104e-07
4.58163e-07
6.85822e-08
1.29249e-08
6.02392e-09
6.86296e-10
1.40001e-10
1.8906e-11
1.40988e-12
6.67704e-14
2.14965e-15
1.6756e-16
5.29079e-16
3.99282e-16
1.60015e-16
2.63829e-17
1.16548e-18
7.41938e-21
5.69991e-23
1.11083e-24
1.50178e-26
9.93159e-29
-4.31359e-33
1
1
1
1
1
1
1
1
1
0.993665
0.888655
0.695805
0.519594
0.339642
0.175978
0.0595215
0.00659315
5.72434e-05
1.96967e-05
4.00878e-06
1.24046e-06
1.60938e-07
1.33651e-08
7.21281e-09
3.50326e-10
7.61316e-11
4.36309e-12
1.5854e-13
4.55958e-15
2.78216e-14
1.89838e-14
6.56408e-15
9.85784e-16
4.16496e-17
2.1747e-19
2.15928e-21
5.51485e-23
8.87151e-25
6.40124e-27
-5.22297e-31
1
1
1
1
1
1
1
1
1
1
1
1
1
1
0.932521
0.761803
0.522383
0.265925
0.0851438
0.00622539
5.10054e-05
9.89475e-06
2.11905e-06
1.65068e-07
3.78555e-08
3.98942e-09
1.2891e-10
1.25123e-11
4.24818e-13
7.24107e-14
7.38855e-13
4.71178e-13
9.35489e-14
3.93462e-15
1.45749e-17
9.77007e-20
2.71529e-21
5.91563e-23
8.47492e-25
-1.30011e-28
1
1
1
1
1
1
1
1
1
1
1
1
1
1
1
1
1
0.982247
0.825038
0.502477
0.183506
0.0233996
8.17372e-05
1.33087e-05
1.85191e-06
1.26068e-07
1.59387e-08
1.88352e-11
3.76125e-11
2.1636e-12
9.0556e-13
4.91967e-13
3.48208e-13
9.47029e-14
6.17503e-15
4.52549e-17
3.12589e-19
5.49037e-21
4.9106e-23
-7.2096e-27
1
1
1
1
1
1
1
1
1
1
1
1
0.999999
0.999999
1
1
1
1
1
1
0.944252
0.640317
0.21745
0.0178481
6.96522e-05
8.16765e-06
5.8622e-07
5.40855e-08
2.8414e-09
1.74409e-10
1.03765e-11
6.41458e-13
1.94416e-13
5.27958e-14
5.34214e-15
1.43781e-16
1.56213e-18
2.3301e-20
2.27165e-22
-7.39009e-26
1
1
1
1
1
1
1
1
1
1
1
1
0.999999
0.999999
1
0.999999
0.999999
0.999998
0.999999
0.999999
0.999999
0.999999
0.955228
0.608951
0.141761
0.00133266
2.89265e-05
2.31044e-06
1.5144e-07
1.00245e-08
6.41167e-10
3.38799e-11
-1.00022e-12
-2.74191e-14
4.17607e-15
5.04425e-16
3.48205e-17
1.05305e-18
1.259e-20
-8.64812e-24
1
1
1
1
1
1
1
1
1
1
1
1
0.999999
1
1
1
0.999997
0.999996
0.999996
0.999998
0.999999
0.999999
0.999999
0.999999
0.885393
0.38494
0.0248989
8.29825e-05
6.14855e-06
6.10066e-07
2.98291e-08
1.83363e-09
8.97878e-11
-1.7862e-12
-2.2282e-13
8.67511e-16
5.16309e-16
4.8264e-17
9.1573e-19
-1.00192e-21
0.999998
0.999997
0.999997
0.999998
0.999999
1
1
1
1
1
1
1
0.999999
1
1
1
0.999999
0.999996
0.999996
0.999996
0.999997
0.999999
0.999999
0.999999
0.999999
0.979245
0.602713
0.0799025
0.000187077
1.31141e-05
1.21262e-06
7.14361e-08
4.55208e-09
1.85056e-10
3.07365e-12
-2.7688e-13
6.57062e-15
1.25011e-15
2.87609e-17
-1.04803e-19
0.819141
0.868747
0.915052
0.974179
0.997696
0.999968
0.999975
0.999983
0.99999
0.999996
0.999999
0.999999
0.999999
0.999999
1
1
0.999999
0.999998
0.999998
0.999998
0.999995
0.999993
0.999994
0.999998
0.999999
0.999999
0.999999
0.723649
0.13039
0.000316368
2.84998e-05
1.80753e-06
7.77127e-08
9.03794e-09
3.91923e-10
1.49049e-11
4.07904e-13
3.12108e-14
6.75308e-16
-6.43279e-18
-6.11935e-22
0.00779919
0.118045
0.356159
0.522981
0.633985
0.760366
0.87064
0.941114
0.981776
0.999077
0.999948
0.999971
0.99999
0.999997
0.999998
0.999999
0.999998
0.999998
0.999998
0.999996
0.999992
0.999992
0.999996
0.999999
0.999999
0.999999
0.999999
0.760963
0.140951
0.000387337
2.96992e-05
2.46046e-06
1.38985e-07
1.27883e-08
7.70277e-10
2.8227e-11
4.26221e-13
1.19337e-15
-2.45691e-16
-2.01385e-12
-1.45899e-28
7.18739e-13
5.45543e-12
1.51037e-11
2.64073e-11
0.0286046
0.128212
0.248101
0.384802
0.56453
0.744666
0.876934
0.964307
0.998516
0.999946
0.999983
0.999995
0.999997
0.999998
0.999996
0.999992
0.999997
0.999999
0.999999
0.999998
0.999999
0.999999
0.999999
0.727756
0.105849
0.000311207
2.58734e-05
2.19388e-06
1.91859e-07
1.10281e-08
4.81639e-10
8.84346e-12
-1.37495e-13
-7.9557e-15
-1.06138e-10
1.87892e-10
9.11308e-10
1.33078e-09
1.30601e-09
9.29228e-10
6.33303e-10
5.13506e-10
4.48957e-10
4.33304e-10
4.28544e-10
0.0289701
0.133003
0.316084
0.56896
0.805419
0.952252
0.999186
0.99996
0.99999
0.999994
0.999997
0.999998
0.999999
0.999997
0.999996
0.999997
0.999999
0.999999
0.999999
0.61842
0.0495059
0.000178289
1.60477e-05
9.68042e-07
9.7311e-08
5.14712e-09
1.29754e-10
-1.76052e-12
-1.32635e-13
-2.97031e-09
-3.67608e-10
2.4147e-09
3.52323e-09
3.70413e-09
3.8451e-09
3.78544e-09
3.30707e-09
1.90662e-09
7.56511e-10
4.14131e-10
2.87042e-10
2.77158e-10
2.87042e-10
4.68382e-10
0.054271
0.269921
0.616304
0.888803
0.994392
0.999946
0.999989
0.999997
0.999998
0.999996
0.999996
0.999999
0.999999
0.999999
0.999999
0.970838
0.434518
0.00832906
8.8786e-05
8.35907e-06
7.32575e-07
4.27641e-08
1.35583e-09
-6.47488e-12
-1.55097e-12
-7.49545e-09
-5.0535e-09
-3.19922e-09
-1.67937e-09
-1.86106e-10
3.51067e-09
4.75217e-09
4.75724e-09
3.26395e-09
1.08748e-09
6.02359e-10
3.83151e-10
2.63895e-10
1.64295e-08
2.27733e-08
4.12986e-08
1.03958e-07
1.60191e-07
0.127565
0.517898
0.889845
0.998528
0.999965
0.999995
0.999997
0.999998
0.999999
0.999999
0.999999
0.999999
0.999999
0.869225
0.204343
0.000504193
4.68732e-05
2.76241e-06
2.56223e-07
1.13877e-08
4.96413e-11
-1.25014e-11
-6.67122e-09
-5.48757e-09
-4.3017e-09
-3.2228e-09
-2.3038e-09
-1.57213e-09
-1.00851e-09
-5.8986e-10
-2.78807e-10
-3.65672e-11
2.40404e-10
2.91791e-10
2.56144e-10
1.59196e-10
2.64908e-06
4.96471e-06
3.03319e-06
2.31143e-07
1.85578e-07
1.71762e-07
0.13087
0.609439
0.963779
0.999883
0.999985
0.999997
0.999998
0.999998
0.999998
0.999999
0.999999
0.999999
0.622393
0.0385743
0.000153873
1.35427e-05
1.11099e-06
5.33367e-08
4.11941e-10
-6.81412e-11
-3.50476e-09
-3.3397e-09
-3.04811e-09
-2.66494e-09
-2.2332e-09
-1.78976e-09
-1.36087e-09
-9.56254e-10
-5.57593e-10
-1.27574e-10
5.35179e-10
7.55478e-10
4.38789e-10
1.55398e-10
3.35044e-06
1.62431e-05
1.62431e-05
1.05753e-05
2.0645e-06
1.56557e-07
1.56557e-07
0.00754224
0.317815
0.867765
0.999699
0.999967
0.999995
0.999998
0.999998
0.999999
0.999999
0.999999
0.918835
0.262009
0.000587082
5.53919e-05
4.76392e-06
2.49325e-07
3.84084e-09
-3.10844e-10
-1.29121e-09
-1.35172e-09
-1.37264e-09
-1.34609e-09
-1.27073e-09
-1.15169e-09
-9.9882e-10
-8.05174e-10
-5.23662e-10
-1.09117e-10
6.16129e-10
8.84963e-10
7.5277e-10
1.89145e-10
1.60162e-11
3.66996e-06
1.56222e-05
1.65363e-05
1.64768e-05
7.79073e-06
2.69442e-07
1.09538e-08
7.12405e-09
0.169234
0.770035
0.99934
0.999944
0.999994
0.999998
0.999998
0.999999
0.999999
0.999998
0.606553
0.0288347
0.000139482
6.92315e-06
6.89165e-07
1.49479e-08
-9.59576e-10
-3.92376e-10
-4.23944e-10
-4.53666e-10
-4.76937e-10
-4.88946e-10
-4.85794e-10
-4.65425e-10
-4.28028e-10
-3.75973e-10
-3.11208e-10
-2.31331e-10
-1.36993e-10
-4.55103e-11
8.82756e-12
1.61497e-11
6.46082e-12
6.4917e-12
9.0725e-06
1.65363e-05
1.62961e-05
6.65452e-06
1.46306e-08
2.73612e-09
1.35649e-09
0.129497
0.746716
0.999249
0.999946
0.999995
0.999998
0.999998
0.999998
0.999998
0.861023
0.167251
0.000379201
2.80581e-05
2.14513e-06
5.34576e-08
-3.348e-09
-1.03072e-10
-1.08044e-10
-1.14153e-10
-1.20988e-10
-1.27662e-10
-1.32894e-10
-1.35233e-10
-1.33352e-10
-1.26339e-10
-1.13958e-10
-9.61269e-11
-7.17362e-11
-3.97422e-11
-8.77607e-12
1.76117e-11
2.0414e-11
8.08655e-12
6.44427e-12
4.31736e-06
1.24054e-05
5.32912e-06
1.43254e-08
3.32257e-09
4.86295e-10
1.42583e-10
0.161804
0.812913
0.999555
0.999969
0.999996
0.999998
0.999998
0.999998
0.98193
0.38665
0.00117556
6.46305e-05
4.84035e-06
1.72927e-07
-6.62509e-09
-2.07941e-11
-1.94693e-11
-1.81576e-11
-1.67669e-11
-1.51399e-11
-1.31589e-11
-1.07066e-11
-7.61852e-12
-3.69169e-12
0
5.38871e-12
1.17143e-11
1.86454e-11
2.86241e-11
4.82554e-11
6.29849e-11
5.62791e-11
2.12739e-11
-2.91794e-28
-1.01007e-12
2.24947e-07
4.32958e-07
1.69942e-07
-3.02269e-21
0
0
0.2897
0.921995
0.999802
0.999986
0.999997
0.999998
0.999998
0.999998
0.630432
0.0285833
0.000129802
9.53607e-06
4.18935e-07
-1.07196e-08
-2.20263e-12
-1.18965e-12
-2.63783e-13
7.80685e-13
3.1795e-12
7.06161e-12
1.25056e-11
1.95955e-11
2.84883e-11
3.92231e-11
5.14324e-11
6.43239e-11
7.7103e-11
9.09949e-11
1.10365e-10
1.29343e-10
1.30356e-10
1.15681e-10
4.99011e-11
-5.43821e-12
-9.99793e-11
-2.32763e-10
-3.57424e-10
-4.04386e-10
-3.34038e-10
-1.65654e-10
0.016237
0.552498
0.992749
0.999941
0.999995
0.999998
0.999998
0.999998
0.79952
0.100726
0.000260518
1.85992e-05
7.39133e-07
-2.27806e-08
2.07722e-13
8.6592e-13
1.80742e-12
3.00576e-12
4.44865e-12
5.99345e-12
7.83855e-12
1.03695e-11
1.40401e-11
1.94996e-11
2.78127e-11
4.06327e-11
5.98065e-11
8.48826e-11
1.12807e-10
1.4014e-10
1.4707e-10
1.47118e-10
1.20924e-10
2.27421e-11
-1.28128e-10
-3.42416e-10
-5.44334e-10
-6.35275e-10
-5.63482e-10
-3.56895e-10
-1.03509e-10
0.169264
0.855609
0.999716
0.999982
0.999997
0.999998
0.999998
0.898615
0.195102
0.000381473
2.39681e-05
1.08373e-06
-3.17045e-08
6.61592e-13
9.78626e-13
1.37198e-12
1.9129e-12
2.65592e-12
3.66374e-12
5.01316e-12
6.80312e-12
9.18926e-12
1.24821e-11
1.72706e-11
2.43999e-11
3.47324e-11
4.96792e-11
7.01187e-11
9.67783e-11
1.28373e-10
1.40888e-10
1.35473e-10
8.35079e-11
3.37048e-12
-8.85091e-11
-1.97092e-10
-2.88027e-10
-3.17805e-10
-2.61385e-10
-1.31233e-10
0.0116753
0.580751
0.997323
0.999956
0.999995
0.999998
0.999998
0.953203
0.285827
0.000459359
2.0034e-05
1.16817e-06
-1.46093e-08
1.22159e-12
2.05796e-12
3.27052e-12
4.92354e-12
7.06753e-12
9.70098e-12
1.27423e-11
1.60192e-11
1.92672e-11
2.21928e-11
2.4847e-11
2.79314e-11
3.2906e-11
4.12498e-11
5.38506e-11
7.47164e-11
1.06095e-10
1.13875e-10
9.29976e-11
2.38652e-11
-4.1211e-11
-1.28017e-10
-2.39876e-10
-3.51366e-10
-4.03483e-10
-3.52579e-10
-2.1609e-10
-4.27794e-11
0.303164
0.948707
0.999879
0.999991
0.999997
0.999998
0.980771
0.353526
0.000512094
1.77304e-05
5.83873e-07
-1.29361e-08
4.07615e-12
6.70066e-12
1.05227e-11
1.59833e-11
2.34397e-11
3.29132e-11
4.36664e-11
5.40453e-11
6.27688e-11
6.94645e-11
7.27776e-11
7.28866e-11
7.27099e-11
7.31647e-11
7.60162e-11
8.37827e-11
1.01583e-10
1.25332e-10
1.24399e-10
7.66695e-11
0
-9.77969e-11
-1.97607e-10
-2.67574e-10
-2.85503e-10
-2.49087e-10
-1.69087e-10
-5.79565e-11
0.14432
0.850955
0.999744
0.999984
0.999996
0.999997
0.990451
0.38342
0.000549547
2.22604e-05
1.14486e-07
-6.90592e-08
9.71409e-12
1.62894e-11
2.68489e-11
4.28118e-11
6.45823e-11
9.08561e-11
1.17401e-10
1.38146e-10
1.51962e-10
1.64079e-10
1.72396e-10
1.72304e-10
1.69644e-10
1.62267e-10
1.51061e-10
1.44007e-10
1.45953e-10
1.45768e-10
1.03254e-10
-6.93605e-12
-2.12396e-10
-4.79008e-10
-7.1741e-10
-8.37121e-10
-8.03403e-10
-6.44133e-10
-4.09749e-10
-1.16597e-10
0.0728671
0.763966
0.999633
0.999977
0.999995
0.999996
0.98927
0.379595
0.000497544
3.05925e-07
5.71839e-07
-2.09808e-08
2.48903e-11
4.52677e-11
7.94593e-11
1.26059e-10
1.77767e-10
2.25586e-10
2.62064e-10
2.85455e-10
3.05607e-10
3.30483e-10
3.57049e-10
3.61387e-10
3.57643e-10
3.46488e-10
3.26363e-10
2.9371e-10
2.57351e-10
2.34749e-10
2.02526e-10
8.80885e-11
-3.01064e-11
-1.81629e-10
-3.14155e-10
-3.81525e-10
-3.70532e-10
-2.96754e-10
-1.69325e-10
-4.82537e-14
0.0543119
0.732588
0.999607
0.999975
0.999994
0.999995
0.972052
0.333539
0.00042338
-1.69054e-05
-2.57256e-07
3.67436e-10
7.25594e-11
1.393e-10
2.30799e-10
3.16415e-10
3.75134e-10
4.08821e-10
4.35743e-10
4.81923e-10
5.83771e-10
7.52008e-10
8.39712e-10
8.29094e-10
7.69234e-10
6.70774e-10
5.8832e-10
5.3605e-10
4.90927e-10
4.42346e-10
3.91125e-10
3.12556e-10
1.54789e-10
2.0322e-11
-6.17911e-14
0
0
-9.66629e-12
-1.70046e-12
0
0.0638733
0.751145
0.999649
0.999977
0.999993
0.999994
0.934608
0.25482
0.000314822
7.93877e-06
-4.60048e-07
5.37641e-08
1.97597e-10
3.45806e-10
4.62732e-10
5.14952e-10
5.1807e-10
5.25787e-10
5.79252e-10
7.89952e-10
1.18062e-09
1.62381e-09
1.73015e-09
1.65816e-09
1.42834e-09
1.05145e-09
6.92434e-10
5.58278e-10
5.51379e-10
5.52211e-10
5.46455e-10
4.87851e-10
2.45065e-10
2.56784e-10
1.13846e-09
2.50012e-09
1.96829e-09
3.34937e-10
-2.92757e-26
1.53717e-11
0.104875
0.812206
0.99974
0.999981
0.999992
0.999993
0.855792
0.151842
0.000180344
1.41689e-05
3.23338e-06
2.85313e-07
4.18635e-10
5.73066e-10
6.03109e-10
5.82001e-10
5.53465e-10
5.70739e-10
7.55993e-10
1.25656e-09
1.76402e-09
1.96832e-09
1.90211e-09
1.3235e-09
7.63187e-10
6.28471e-10
5.64355e-10
5.50268e-10
5.48846e-10
5.40152e-10
4.62236e-10
4.11876e-10
2.46746e-10
5.43494e-09
2.30458e-08
2.34992e-08
1.37927e-08
4.0281e-10
1.53717e-11
7.21372e-10
0.212415
0.906931
0.999848
0.999971
0.999978
0.999992
0.695742
0.0505611
0.000142603
0.000148568
6.80237e-06
4.16968e-07
)
;

boundaryField
{
    leftWall
    {
        type            zeroGradient;
    }
    rightWall
    {
        type            zeroGradient;
    }
    lowerWall
    {
        type            zeroGradient;
    }
    atmosphere
    {
        type            inletOutlet;
        inletValue      nonuniform 0();
        value           nonuniform 0();
    }
    defaultFaces
    {
        type            empty;
    }
    procBoundary1to0
    {
        type            processor;
        value           nonuniform List<scalar> 
44
(
1
0.994695
0.964157
0.964147
0.991671
0.999999
1
1
1
1
1
1
1
1
1
1
1
1
1
0.864294
0.161305
0.161305
4.8815e-07
8.69767e-10
-2.79796e-11
-3.68504e-08
-3.91518e-08
-2.04495e-08
-7.62278e-09
-2.4778e-09
-8.0871e-10
-2.6927e-10
-8.86969e-11
-2.66949e-11
-6.68378e-12
-1.27897e-12
-1.67172e-13
-3.56193e-32
5.50893e-14
1.78282e-13
4.43331e-13
1.21602e-12
3.02071e-12
6.16925e-12
)
;
    }
    procBoundary1to3
    {
        type            processor;
        value           nonuniform List<scalar> 
45
(
2.41901e-11
4.97803e-11
1.03886e-10
2.30655e-10
4.48455e-10
6.31159e-10
6.58342e-10
6.37719e-10
5.75482e-10
5.54079e-10
6.41561e-10
1.05243e-09
1.38549e-09
1.38238e-09
1.43053e-09
1.63991e-09
1.32317e-09
3.8051e-08
9.47617e-08
7.50149e-08
2.3099e-08
1.06896e-09
4.63116e-10
4.61209e-10
1.79475e-09
1.61471e-08
2.43781e-08
2.43355e-08
1.63219e-08
3.56781e-09
6.65608e-10
7.15481e-10
7.89399e-08
0.438711
0.985053
0.999937
0.999971
0.999973
0.986965
0.41841
0.00194908
7.79774e-05
7.85971e-05
7.22289e-06
2.39091e-07
)
;
    }
}


// ************************************************************************* //
