/*--------------------------------*- C++ -*----------------------------------*\
| =========                 |                                                 |
| \\      /  F ield         | OpenFOAM: The Open Source CFD Toolbox           |
|  \\    /   O peration     | Version:  5.0                                   |
|   \\  /    A nd           | Web:      www.OpenFOAM.org                      |
|    \\/     M anipulation  |                                                 |
\*---------------------------------------------------------------------------*/
FoamFile
{
    version     2.0;
    format      ascii;
    class       volScalarField;
    location    "0.5";
    object      nut;
}
// * * * * * * * * * * * * * * * * * * * * * * * * * * * * * * * * * * * * * //

dimensions      [0 2 -1 0 0 0 0];

internalField   nonuniform List<scalar> 
1915
(
7.91313e-05
7.01069e-05
0.000401961
0.000120207
0.000703463
0.000139736
0.000961988
0.000158609
0.00116506
0.000174576
0.00133585
0.000187862
0.00148534
0.000201844
0.00162896
0.000215393
0.00178275
0.000230635
0.00199448
0.000250614
0.000135782
0.000224882
0.00029119
0.000295254
0.000295902
0.000296544
0.000296537
6.99343e-05
7.15134e-05
7.36767e-05
7.54579e-05
7.70013e-05
7.86893e-05
8.03472e-05
8.18355e-05
8.30979e-05
8.41041e-05
8.4831e-05
8.52582e-05
8.53665e-05
8.5139e-05
8.45614e-05
8.3627e-05
8.23355e-05
8.06999e-05
7.87566e-05
7.65562e-05
7.4206e-05
7.21981e-05
7.07045e-05
7.00045e-05
6.98177e-05
0.000295032
6.97741e-05
0.000295359
0.000282881
0.000256734
0.000215921
0.000161418
0.000157229
6.98261e-05
0.000356762
0.000476243
0.000474415
0.000489942
0.000521453
0.000558043
0.000595533
0.000628969
0.000661309
0.000691854
0.000721005
0.000746932
0.000768414
0.000786048
0.000800084
0.000810537
0.000817258
0.000819991
0.000818426
0.000812238
0.00080114
0.000784898
0.000763392
0.000736569
0.000704428
0.000667051
0.000623041
0.000567507
0.00051623
0.000488208
0.000485349
0.00050245
0.000520972
0.000579472
0.000573889
0.000525301
0.000445775
0.000336052
0.000284437
7.86992e-05
0.000469886
0.000674114
0.000769507
0.000853585
0.000939984
0.00102432
0.0010997
0.00116401
0.0012234
0.00127949
0.00133393
0.00138529
0.00143256
0.00147578
0.00151468
0.00154884
0.00157765
0.00160036
0.00161605
0.00162373
0.00162239
0.00161099
0.00158867
0.00155467
0.00150853
0.00145008
0.00137871
0.00129183
0.00120193
0.00112501
0.00106563
0.00102048
0.000984551
0.000954262
0.000893805
0.000797216
0.000661635
0.000449812
7.04316e-05
8.94842e-05
0.000562769
0.000847334
0.00101066
0.00113843
0.00125273
0.00135512
0.00144123
0.0015163
0.00158553
0.00165188
0.00171768
0.00178154
0.00184326
0.00190269
0.00195935
0.0020126
0.00206161
0.0021054
0.00214279
0.00217243
0.00219283
0.00220243
0.00219968
0.00218309
0.0021514
0.00210356
0.00203845
0.00195386
0.00185606
0.00175377
0.00165276
0.00155485
0.00145859
0.00135764
0.00123432
0.00107749
0.000872284
0.00055705
7.35944e-05
9.80576e-05
0.000635723
0.000980588
0.00118438
0.00133226
0.00145267
0.00155162
0.0016326
0.00170424
0.00177187
0.00183865
0.00190647
0.00197391
0.00204132
0.00210849
0.00217499
0.00224025
0.0023036
0.00236419
0.00242095
0.00247264
0.00251776
0.00255463
0.00258142
0.00259618
0.0025969
0.00258147
0.00254738
0.00249069
0.00241228
0.00231526
0.0022026
0.00207617
0.00193606
0.0017785
0.00159378
0.00137035
0.00108566
0.000662629
7.7525e-05
0.000105503
0.000688942
0.00106619
0.00128411
0.00143256
0.00154452
0.00162924
0.00169936
0.00176383
0.0018273
0.00189209
0.00195833
0.00202543
0.00209365
0.00216291
0.002233
0.00230372
0.00237482
0.00244595
0.00251657
0.00258592
0.00265298
0.00271643
0.00277462
0.00282558
0.00286691
0.00289566
0.00290787
0.00289727
0.00285981
0.00279395
0.00269804
0.00257037
0.00240928
0.0022119
0.00197236
0.00168007
0.00130823
0.000770138
8.19914e-05
0.000112666
0.000720951
0.00109714
0.00130501
0.00144122
0.00153891
0.00161244
0.00167825
0.00174184
0.00180623
0.00187188
0.0019379
0.00200423
0.00207118
0.00213899
0.00220784
0.002278
0.00234991
0.00242398
0.00250051
0.00257961
0.00266119
0.00274478
0.0028295
0.00291388
0.00299574
0.00307183
0.00313712
0.00318315
0.00320114
0.00318563
0.00312989
0.00302668
0.00286937
0.00265232
0.00236954
0.00201053
0.00154596
0.000882817
8.68897e-05
0.000120334
0.000727603
0.00106769
0.00125083
0.00137492
0.00146563
0.0015459
0.00162247
0.00169601
0.00176795
0.00183895
0.0019078
0.00197437
0.0020394
0.00210365
0.00216766
0.00223214
0.00229823
0.00236725
0.00244047
0.00251915
0.00260443
0.0026972
0.0027979
0.00290634
0.00302132
0.00314008
0.00325734
0.00336303
0.00344379
0.00349082
0.0034926
0.00343562
0.00330616
0.003092
0.00278256
0.0023643
0.00180455
0.00100461
9.22208e-05
0.000130455
0.000702613
0.000992582
0.00115835
0.00128546
0.00138992
0.00149409
0.00159081
0.00167862
0.00176112
0.00183987
0.00191326
0.00198078
0.0020438
0.00210371
0.00216117
0.00221695
0.0022727
0.00233047
0.0023924
0.00246082
0.00253827
0.00262723
0.00273
0.00284832
0.00298297
0.00313284
0.00329358
0.00345464
0.00359852
0.00371355
0.00378389
0.00378983
0.00370947
0.00352132
0.00320573
0.00274143
0.00208869
0.00114006
9.8063e-05
0.000149952
0.000658101
0.000931174
0.00110601
0.00124486
0.00137278
0.00149753
0.00161
0.00171003
0.00180159
0.00188747
0.00196565
0.00203493
0.00209692
0.00215366
0.00220574
0.00225339
0.00229827
0.00234292
0.00238988
0.00244215
0.00250338
0.00257758
0.00266897
0.00278172
0.00291939
0.00308383
0.00327328
0.00347851
0.00367917
0.0038612
0.00400497
0.00408495
0.00407082
0.0039302
0.00363094
0.00313883
0.00240103
0.00129365
0.00010456
0.00252524
0.000698828
0.00329045
0.00161248
0.00427707
0.00284141
0.00540582
0.00421773
0.00658676
0.00561106
0.00775051
0.00694376
0.00885486
0.0081823
0.00987713
0.00931307
0.0108066
0.0103316
0.0116406
0.0112387
0.0120381
0.0127347
0.0133279
0.0137973
0.0141658
0.0144579
0.0146871
0.014854
0.0149553
0.0149892
0.0149568
0.0148617
0.0147093
0.0145058
0.0142577
0.0139714
0.0136535
0.0133105
0.0129493
0.0125773
0.012202
0.0118314
0.0114736
0.000192627
0.000160059
0.000135338
0.000129617
0.00086842
0.000755698
0.00076214
0.000767123
0.00201872
0.00170958
0.00158301
0.00151763
0.00341388
0.00296969
0.00271345
0.00254923
0.00486584
0.00435978
0.00401516
0.00376898
0.00627346
0.00575818
0.00536679
0.005065
0.00758992
0.00709616
0.00669078
0.00635905
0.00879492
0.00833824
0.00794136
0.00760093
0.00988118
0.00946799
0.00909349
0.0087605
0.0108479
0.0104793
0.0101346
0.00981587
0.0116982
0.0113724
0.0110598
0.0107597
0.0124374
0.012152
0.0118691
0.0115915
0.0130712
0.0128209
0.0125675
0.0123145
0.0135841
0.013368
0.0131467
0.012919
0.0139857
0.0137979
0.0136041
0.0134004
0.0143021
0.0141359
0.0139613
0.0137779
0.0145483
0.0143974
0.0142361
0.0140657
0.0147271
0.0145869
0.0144348
0.0142725
0.0148369
0.0147042
0.0145583
0.0144016
0.0148765
0.0147489
0.0146075
0.0144545
0.0148477
0.0147235
0.0145849
0.0144344
0.0147546
0.0146323
0.0144955
0.0143465
0.014603
0.0144816
0.0143458
0.0141977
0.0143991
0.0142779
0.0141425
0.0139948
0.0141496
0.0140278
0.0138923
0.0137449
0.013861
0.0137378
0.0136017
0.0134542
0.0135398
0.0134144
0.0132769
0.0131289
0.0131925
0.013064
0.0129244
0.0127753
0.012826
0.0126934
0.012551
0.0124001
0.0124478
0.0123102
0.012164
0.0120105
0.0120656
0.0119223
0.0117714
0.0116147
0.0116877
0.0115382
0.0113822
0.0112215
0.0113226
0.0111668
0.0110055
0.0108406
0.00037409
0.000662573
0.000904248
0.0010864
0.00124248
0.00138582
0.00152662
0.0016492
0.00176062
0.00186319
0.00195747
0.00204178
0.00211517
0.0021798
0.00223722
0.00228811
0.00233193
0.00236996
0.00240481
0.00243895
0.0024754
0.00251833
0.00257269
0.00264423
0.00273932
0.00286459
0.00302582
0.00322554
0.0034583
0.00370359
0.00394591
0.00416257
0.00432268
0.00438764
0.00431337
0.00405285
0.00355429
0.00274439
0.00147061
0.000112008
0.000784173
0.000853351
0.00095266
0.00106038
0.00119135
0.00133916
0.00149597
0.00164554
0.00177744
0.00189772
0.00200845
0.00210491
0.00218521
0.00225761
0.00232188
0.00237743
0.00242331
0.00246136
0.00249343
0.00252145
0.0025481
0.00257727
0.0026141
0.00266491
0.00273745
0.00284076
0.00298441
0.0031763
0.00341703
0.0036901
0.00398055
0.00426401
0.00450509
0.00465725
0.00466444
0.00446327
0.00398086
0.00311634
0.00167343
0.000120616
0.00145322
0.00140172
0.00139279
0.00141809
0.00147479
0.00155748
0.00165634
0.00176329
0.00186869
0.0019691
0.00206625
0.00215921
0.00224387
0.00232017
0.0023908
0.00245366
0.00250366
0.00254578
0.00258129
0.00260995
0.00263455
0.0026581
0.00268502
0.00272133
0.00277485
0.00285559
0.0029756
0.0031474
0.00337862
0.00366082
0.00398289
0.00432148
0.00463847
0.00488027
0.00497898
0.00485411
0.00440941
0.00351055
0.00190204
0.000130656
0.00241137
0.00229953
0.00222363
0.00217264
0.0021459
0.00214124
0.00215405
0.00217974
0.00221402
0.00225419
0.00229872
0.00234682
0.00239733
0.00244693
0.00249598
0.00254449
0.0025889
0.00262783
0.00266351
0.00269209
0.00271652
0.00273904
0.0027626
0.00279227
0.00283476
0.00289948
0.00299883
0.0031478
0.00335964
0.00363601
0.00397298
0.00435186
0.00473497
0.00506357
0.00525862
0.00522225
0.00483351
0.00392044
0.00215459
0.000142411
0.00356505
0.00340278
0.00326956
0.0031587
0.00306674
0.002991
0.00292872
0.00287772
0.00283629
0.00280329
0.00277804
0.00276
0.00274836
0.00274238
0.00274191
0.0027465
0.00275564
0.002767
0.00278039
0.00279409
0.00280767
0.00282217
0.0028393
0.00286324
0.00289913
0.00295473
0.00304087
0.00317226
0.00336472
0.00362859
0.00396845
0.00437358
0.00481069
0.00521913
0.00551036
0.0055695
0.00525018
0.00434031
0.0024281
0.00015617
0.00480849
0.00459898
0.00441752
0.00425787
0.00411516
0.00398571
0.00386667
0.00375608
0.00365265
0.00355572
0.00346508
0.00338073
0.00330284
0.00323189
0.00316845
0.00311294
0.00306554
0.00302613
0.0029947
0.00297104
0.00295383
0.00294291
0.00293944
0.00294603
0.00296803
0.00301229
0.00308795
0.00320781
0.003387
0.00364045
0.00397946
0.00440216
0.00488275
0.00536252
0.00574621
0.00590302
0.00566121
0.00476739
0.00271987
0.000172228
0.00606807
0.00581743
0.00559625
0.00539719
0.00521457
0.00504404
0.00488234
0.00472708
0.00457667
0.00443014
0.00428703
0.00414729
0.0040113
0.0038799
0.00375422
0.00363553
0.00352523
0.00342474
0.00333521
0.00325743
0.00319175
0.00313865
0.00309891
0.00307418
0.00306869
0.00308845
0.00314402
0.00324869
0.00341709
0.00366511
0.0040065
0.00444581
0.00496504
0.00550994
0.00598153
0.00623495
0.00607371
0.00520316
0.00302898
0.000190909
0.00729138
0.00701077
0.00675939
0.00652987
0.00631632
0.00611419
0.00592
0.00573106
0.00554533
0.00536139
0.00517833
0.0049957
0.00481356
0.00463249
0.00445357
0.00427835
0.00410884
0.00394735
0.00379624
0.00365775
0.00353383
0.0034262
0.00333644
0.00326703
0.00322317
0.00321156
0.00323781
0.00331332
0.00345956
0.00369878
0.00404495
0.00450472
0.00506471
0.00567437
0.00623221
0.00658077
0.00649969
0.00565395
0.00335717
0.000212597
0.008442
0.00814534
0.00787457
0.00762372
0.00738747
0.00716159
0.00694277
0.00672825
0.00651576
0.00630355
0.00609037
0.00587536
0.0056581
0.00543869
0.00521781
0.00499671
0.00477728
0.00456204
0.00435392
0.00415621
0.00397222
0.00380512
0.00365793
0.00353407
0.00343862
0.00338131
0.00337721
0.00343353
0.00354665
0.00375757
0.00409803
0.00457749
0.00518296
0.00586318
0.00651148
0.00695675
0.0069546
0.00613061
0.00370905
0.000237759
0.00950064
0.00919949
0.00891929
0.00865573
0.00840442
0.00816172
0.00792479
0.00769114
0.00745852
0.00722502
0.00698918
0.00674986
0.00650629
0.00625813
0.00600554
0.00574928
0.00549076
0.00523209
0.00497614
0.00472642
0.00448696
0.00426209
0.00405626
0.00387415
0.00372158
0.00360776
0.00354861
0.00357525
0.00370223
0.00388517
0.00419548
0.00467656
0.00532346
0.00608018
0.00682831
0.00737733
0.00745516
0.00664718
0.00409172
0.000266972
0.0104564
0.0101596
0.00987817
0.00960935
0.00934981
0.00909648
0.00884709
0.0085998
0.00835257
0.00810346
0.00785089
0.0075936
0.00733063
0.00706132
0.00678543
0.00650319
0.00621544
0.00592372
0.00563035
0.00533852
0.00505224
0.00477625
0.00451589
0.00427703
0.00406657
0.00389389
0.00377445
0.00373525
0.00383078
0.00408762
0.00439249
0.00484711
0.00550938
0.00633499
0.00718992
0.00785383
0.00801693
0.00721909
0.00451393
0.000300927
0.0113056
0.011019
0.0107417
0.0104734
0.0102115
0.00995298
0.00969589
0.00943961
0.00918262
0.00892283
0.00865848
0.00838838
0.0081116
0.00782728
0.00753484
0.0072341
0.00692541
0.00660968
0.00628861
0.00596474
0.0056416
0.00532371
0.0050166
0.00472676
0.00446191
0.00423206
0.00405228
0.00394815
0.0039654
0.0041946
0.00466683
0.00515353
0.00579792
0.00665826
0.00760947
0.00839571
0.00865262
0.00786088
0.00498499
0.00034042
0.0120488
0.0117749
0.0115048
0.0112415
0.0109822
0.0107233
0.0104621
0.0102007
0.00993815
0.0096721
0.00940022
0.00912154
0.00883555
0.00854131
0.00823785
0.00792469
0.0076018
0.0072696
0.00692912
0.00658222
0.00623175
0.00588164
0.00553706
0.00520452
0.00489206
0.00461012
0.00437373
0.00420739
0.0041534
0.00428791
0.00475896
0.00555744
0.00625895
0.00710992
0.00811646
0.00901473
0.00937116
0.00858392
0.00551331
0.000386308
0.012675
0.0124216
0.0121657
0.0119118
0.0116588
0.0114039
0.0111408
0.0108771
0.0106129
0.0103446
0.0100689
0.00978495
0.00949355
0.00919371
0.00888378
0.00856307
0.00823146
0.0078889
0.00753586
0.00717356
0.00680409
0.00643068
0.00605785
0.00569167
0.00534002
0.0050134
0.00472678
0.00450392
0.00438492
0.00443872
0.0047943
0.00567234
0.00684469
0.00776378
0.00876332
0.0097303
0.0101779
0.00939405
0.00610481
0.000439436
0.0131786
0.0129469
0.0127115
0.0124733
0.012231
0.0119853
0.0117292
0.0114669
0.0112046
0.0109372
0.0106611
0.0103741
0.0100804
0.00977877
0.00946628
0.00914185
0.0088059
0.0084579
0.00809779
0.00772627
0.00734476
0.00695572
0.00656295
0.0061718
0.00578969
0.0054268
0.00509789
0.0048261
0.00464965
0.00463162
0.00488821
0.00565161
0.00712993
0.00859152
0.00961604
0.0105716
0.0110748
0.0102898
0.0067614
0.000500521
0.0135752
0.0133593
0.0131377
0.0129138
0.0126859
0.0124503
0.0122077
0.0119572
0.011704
0.0114424
0.0111712
0.0108871
0.0105941
0.0102941
0.0099824
0.00965707
0.00932035
0.00897087
0.00860798
0.00823213
0.00784412
0.00744576
0.00704007
0.00663166
0.00622725
0.0058365
0.00547375
0.00516155
0.0049363
0.00485443
0.00501579
0.00565842
0.00712937
0.00923188
0.0106432
0.0115477
0.0120509
0.0112597
0.0074802
0.000570045
0.0138759
0.0136721
0.0134618
0.0132482
0.0130305
0.0128055
0.0125734
0.012337
0.0120973
0.0118483
0.0115863
0.0113125
0.0110288
0.010736
0.0104299
0.0101075
0.00977289
0.0094252
0.00906278
0.00868643
0.00829618
0.00789341
0.00748048
0.00706126
0.00664171
0.00623084
0.00584248
0.00549849
0.00523321
0.00509508
0.00516349
0.00567435
0.00703296
0.00938913
0.0116696
0.0126897
0.0130992
0.0122857
0.0082557
0.000648254
0.0140911
0.0138963
0.0136952
0.0134899
0.0132803
0.0130646
0.012843
0.0126183
0.0123901
0.0121536
0.0119051
0.0116458
0.0113777
0.0110981
0.0108016
0.0104884
0.010162
0.00982045
0.0094612
0.00908719
0.00869792
0.00829445
0.00787861
0.00745368
0.00702494
0.00660072
0.00619423
0.00582653
0.00552927
0.00534054
0.00531615
0.00569492
0.00695868
0.00930118
0.0123213
0.0140677
0.0143064
0.0133724
0.00908811
0.000735515
0.0142259
0.0140375
0.0138434
0.013645
0.0134426
0.0132356
0.0130245
0.0128109
0.012594
0.0123701
0.0121364
0.0118933
0.011641
0.0113761
0.0110945
0.0107969
0.0104843
0.0101527
0.00980202
0.00943448
0.00904884
0.00864712
0.00823154
0.00780472
0.00737143
0.00693944
0.00652132
0.00613708
0.00581454
0.00557801
0.00545718
0.00570669
0.00689443
0.00924919
0.012553
0.0153082
0.0157142
0.0145362
0.00998307
0.000832715
0.0142827
0.0140986
0.0139095
0.0137169
0.0135213
0.0133227
0.0131218
0.0129193
0.0127143
0.012504
0.0122863
0.0120605
0.0118253
0.0115773
0.0113135
0.0110334
0.0107362
0.0104192
0.0100826
0.00972568
0.00934835
0.00895178
0.00853847
0.0081124
0.00767795
0.00724255
0.00681816
0.00642335
0.00608045
0.00579576
0.00557219
0.00569952
0.00683743
0.00922162
0.0125692
0.0162104
0.0173743
0.0158417
0.0109512
0.0009411
0.014265
0.0140835
0.0138978
0.0137097
0.01352
0.0133294
0.0131384
0.0129472
0.012755
0.0125595
0.0123589
0.0121515
0.0119351
0.0117063
0.0114623
0.0112017
0.0109225
0.0106226
0.0103015
0.00995821
0.00959305
0.00920644
0.00879978
0.00837659
0.00794321
0.00750751
0.007081
0.00668023
0.00631982
0.00598338
0.00565075
0.00567336
0.00679853
0.00923465
0.0126555
0.0167207
0.0189257
0.0174137
0.0120466
0.00106459
0.0141785
0.0139985
0.0138148
0.0136297
0.0134449
0.0132613
0.0130795
0.0128996
0.0127208
0.0125411
0.0123585
0.0121707
0.0119746
0.0117669
0.0115446
0.0113052
0.0110462
0.0107655
0.0104619
0.0101344
0.00978318
0.0094089
0.00901271
0.0085971
0.00816723
0.00773335
0.00730767
0.00690409
0.00652674
0.00613219
0.00568695
0.00563348
0.00679064
0.0093152
0.0128518
0.0171148
0.0204235
0.0192751
0.0133093
0.00120827
0.0140304
0.013851
0.0136684
0.0134854
0.0133042
0.0131264
0.0129529
0.0127838
0.0126184
0.0124548
0.0122908
0.0121233
0.0119489
0.0117639
0.0115646
0.0113479
0.0111109
0.010851
0.0105666
0.0102567
0.00992097
0.00956033
0.00917624
0.00877103
0.00834965
0.00792005
0.00749718
0.00709247
0.00669639
0.00623546
0.00567988
0.00559039
0.00682624
0.00946279
0.0130945
0.0173761
0.021709
0.0214035
0.0147035
0.00137076
0.013828
0.0136492
0.0134673
0.0132858
0.0131074
0.0129344
0.0127681
0.0126089
0.0124562
0.0123084
0.0121629
0.0120161
0.0118641
0.0117027
0.0115274
0.0113346
0.0111207
0.0108827
0.0106187
0.0103275
0.0100086
0.00966276
0.00929185
0.0088987
0.00848837
0.0080675
0.00764923
0.00724375
0.00682495
0.00628875
0.00563403
0.00555803
0.00691539
0.00967769
0.013399
0.0177443
0.022542
0.0231951
0.0160316
0.00153475
0.0135785
0.0134002
0.0132192
0.0130391
0.0128633
0.0126945
0.0125347
0.0123845
0.0122439
0.0121111
0.0119835
0.0118572
0.0117277
0.01159
0.0114392
0.0112706
0.0110803
0.0108648
0.0106219
0.0103499
0.0100485
0.00971847
0.00936161
0.00898124
0.00858284
0.00817453
0.00776379
0.00735683
0.0069094
0.00629042
0.00555912
0.00555182
0.00706652
0.00996501
0.0137887
0.018256
0.0233162
0.0246908
0.0172641
0.00169375
0.0132881
0.0131106
0.0129308
0.0127526
0.0125797
0.0124152
0.0122616
0.0121201
0.0119908
0.0118723
0.0117619
0.0116554
0.0115477
0.0114334
0.0113066
0.0111622
0.0109953
0.0108022
0.0105802
0.0103277
0.010044
0.00973008
0.00938794
0.00902129
0.00863596
0.00824035
0.00784003
0.00743085
0.00694764
0.00624218
0.00546936
0.00558641
0.0072845
0.0103236
0.0142543
0.0188497
0.0240994
0.0260359
0.0184895
0.00185408
0.012963
0.0127865
0.0126083
0.0124326
0.0122632
0.0121036
0.0119566
0.0118239
0.0117057
0.0116011
0.0115071
0.0114196
0.0113329
0.0112409
0.0111373
0.0110159
0.0108716
0.0107001
0.0104984
0.0102646
0.00999838
0.00970047
0.00937326
0.00902082
0.00864937
0.00826699
0.00787861
0.00746553
0.00693877
0.00614968
0.00538212
0.00567418
0.00757016
0.0107457
0.014775
0.019478
0.0248593
0.0271776
0.0196722
0.00201826
0.0126093
0.0124336
0.0122575
0.0120848
0.0119198
0.011766
0.0116264
0.011503
0.0113964
0.0113055
0.0112276
0.0111582
0.0110914
0.0110204
0.0109384
0.0108387
0.0107155
0.0105641
0.0103812
0.0101651
0.00991531
0.00963287
0.00932047
0.00898263
0.00862596
0.00825795
0.00788044
0.00745948
0.00688281
0.00602287
0.00531645
0.00582449
0.00792124
0.0112219
0.0153324
0.0201118
0.0255754
0.0280957
0.0207027
0.0021808
0.0122333
0.0120584
0.0118844
0.0117154
0.0115555
0.0114084
0.0112773
0.0111642
0.0110697
0.0109929
0.0109308
0.0108789
0.0108308
0.0107794
0.0107172
0.0106371
0.0105328
0.0103994
0.0102336
0.0100334
0.00979867
0.00953074
0.00923271
0.00890959
0.00856821
0.0082149
0.00784689
0.00741373
0.00678232
0.00587647
0.00529149
0.0060434
0.0083332
0.0117419
0.0159106
0.02073
0.0262339
0.0288165
0.0214966
0.00233329
0.0118424
0.0116678
0.0114958
0.0113307
0.0111766
0.0110371
0.0109154
0.0108135
0.010732
0.0106696
0.0106235
0.0105884
0.010558
0.0105245
0.0104801
0.0104172
0.0103294
0.0102115
0.0100603
0.00987388
0.00965242
0.00939773
0.00911341
0.008805
0.00847931
0.00814091
0.00778039
0.00732958
0.00664303
0.00572974
0.00532496
0.00633373
0.00879975
0.0122951
0.0164954
0.0213139
0.0268123
0.0293223
0.0219985
0.00246806
0.0114445
0.0112697
0.0110996
0.0109385
0.0107904
0.0106592
0.0105476
0.0104576
0.0103896
0.010342
0.0103116
0.0102928
0.0102787
0.0102614
0.0102324
0.0101842
0.0101102
0.0100051
0.00986575
0.00969072
0.00948055
0.00923766
0.00896635
0.00867268
0.0083632
0.0080397
0.00768371
0.00720956
0.00647506
0.00560563
0.00543178
0.00669546
0.00931328
0.0128702
0.0170736
0.0218446
0.0272682
0.0295209
0.0221354
0.00257656
0.0110488
0.0108733
0.0107047
0.0105474
0.0104055
0.0102826
0.0101814
0.0101036
0.0100491
0.0100162
0.0100009
0.00999734
0.00999809
0.00999478
0.00997891
0.00994268
0.00987946
0.00978429
0.0096541
0.00948795
0.00928705
0.00905463
0.00879577
0.00851705
0.00822435
0.00791525
0.00755995
0.00705823
0.00629376
0.00552871
0.00562244
0.00712549
0.00986485
0.0134545
0.0176305
0.022305
0.0275338
0.0293045
0.0218239
0.00264674
0.010665
0.0104885
0.0103211
0.0101673
0.0100312
0.00991634
0.00982522
0.00975908
0.00971755
0.00969831
0.00969691
0.00970691
0.00972037
0.00972863
0.00972308
0.00969593
0.00964068
0.00955255
0.00942886
0.00926928
0.00907592
0.00885297
0.00860638
0.00834307
0.00806763
0.00777163
0.00741316
0.00688287
0.00611964
0.00552224
0.00590212
0.00761846
0.0104472
0.0140407
0.0181627
0.0227113
0.027616
0.0286724
0.0207891
0.00266773
)
;

boundaryField
{
    leftWall
    {
        type            nutkWallFunction;
        Cmu             0.09;
        kappa           0.41;
        E               9.8;
        value           nonuniform 0();
    }
    rightWall
    {
        type            nutkWallFunction;
        Cmu             0.09;
        kappa           0.41;
        E               9.8;
        value           nonuniform List<scalar> 
43
(
0
0
6.16012e-08
5.59131e-07
1.18609e-06
1.8972e-06
2.6713e-06
3.50512e-06
4.40785e-06
5.39872e-06
6.51955e-06
7.7976e-06
9.26863e-06
1.09687e-05
1.29324e-05
1.51933e-05
1.77862e-05
2.07502e-05
2.41326e-05
2.79911e-05
3.23935e-05
3.74161e-05
4.31383e-05
4.9634e-05
5.69593e-05
6.51427e-05
7.41874e-05
8.41008e-05
9.49231e-05
0.00010674
0.000119803
0.000134523
0.000151204
0.00016896
0.000186564
0.000203905
0.000221117
0.000237814
0.000253178
0.000266227
0.000275924
0.000281065
0.000282405
)
;
    }
    lowerWall
    {
        type            nutkWallFunction;
        Cmu             0.09;
        kappa           0.41;
        E               9.8;
        value           nonuniform List<scalar> 
66
(
9.50263e-06
8.45748e-06
8.45748e-06
1.41189e-05
1.62505e-05
1.82819e-05
1.99793e-05
2.138e-05
2.28458e-05
2.42526e-05
2.58252e-05
2.78681e-05
2.18714e-05
1.84099e-05
1.57517e-05
9.464e-06
0
3.65297e-09
1.45657e-06
3.20928e-06
4.58006e-06
5.75328e-06
6.86702e-06
8.04172e-06
9.55974e-06
1.25472e-05
0
0
0
0
3.63138e-09
1.05551e-08
1.25707e-08
9.54862e-09
2.58278e-07
6.15054e-07
9.06876e-07
1.15817e-06
1.43043e-06
1.69669e-06
1.93494e-06
2.13594e-06
2.29485e-06
2.40814e-06
2.47271e-06
2.48563e-06
2.44428e-06
2.34643e-06
2.19095e-06
1.97771e-06
1.70881e-06
1.39039e-06
1.03086e-06
6.49628e-07
3.29967e-07
9.95915e-08
7.16466e-09
0
0
0
2.01624e-10
0
0
0
0
0
)
;
    }
    atmosphere
    {
        type            calculated;
        value           nonuniform 0();
    }
    defaultFaces
    {
        type            empty;
    }
    procBoundary1to0
    {
        type            processor;
        value           nonuniform List<scalar> 
44
(
8.27748e-05
0.00059393
0.00105628
0.00146198
0.00183867
0.00219188
0.00252587
0.00285013
0.00318201
0.00356192
0.00409017
0.00477989
0.00561654
0.00655928
0.00755477
0.0085541
0.00952023
0.0104285
0.0112644
0.0120221
0.0123814
0.0123814
0.0130323
0.0135679
0.0139929
0.0143285
0.014597
0.0148095
0.0149642
0.0150569
0.0150849
0.0150489
0.0149521
0.0147996
0.0145974
0.0143517
0.014069
0.0137557
0.0134184
0.013064
0.0126994
0.0123322
0.01197
0.0116204
)
;
    }
    procBoundary1to3
    {
        type            processor;
        value           nonuniform List<scalar> 
45
(
0.0111365
0.0109788
0.0108171
0.0106508
0.0104819
0.0103034
0.0101258
0.00995935
0.00980868
0.00967788
0.00957026
0.0094881
0.0094323
0.00940208
0.00939461
0.00940487
0.00942584
0.00944918
0.00946596
0.0094676
0.00944646
0.00939627
0.0093125
0.00919293
0.00903806
0.00885109
0.00863733
0.00840338
0.00815612
0.0078979
0.00761245
0.00724784
0.00669331
0.00597798
0.00560559
0.0062703
0.00816651
0.0110548
0.0146316
0.0186918
0.023161
0.0274486
0.0274302
0.0192625
0.00265563
)
;
    }
}


// ************************************************************************* //
