/*--------------------------------*- C++ -*----------------------------------*\
| =========                 |                                                 |
| \\      /  F ield         | OpenFOAM: The Open Source CFD Toolbox           |
|  \\    /   O peration     | Version:  5.0                                   |
|   \\  /    A nd           | Web:      www.OpenFOAM.org                      |
|    \\/     M anipulation  |                                                 |
\*---------------------------------------------------------------------------*/
FoamFile
{
    version     2.0;
    format      ascii;
    class       volScalarField;
    location    "0.5";
    object      p;
}
// * * * * * * * * * * * * * * * * * * * * * * * * * * * * * * * * * * * * * //

dimensions      [1 -1 -2 0 0 0 0];

internalField   nonuniform List<scalar> 
1915
(
963.255
980.887
900.524
923.674
849.124
876.271
811.877
840.29
781.255
815.707
751.297
795.56
718.548
773.769
678.447
742.767
624.86
685.008
544.328
588.595
224.166
224.168
224.174
224.182
224.193
224.206
224.221
224.238
224.256
224.274
224.292
224.308
224.323
224.335
224.343
224.348
224.348
224.343
224.333
224.317
224.296
224.269
224.236
224.2
224.159
224.116
224.072
224.028
223.987
223.947
223.91
223.878
223.85
223.828
223.813
223.802
223.795
223.791
223.79
223.793
224.117
224.12
224.128
224.137
224.147
224.16
224.174
224.189
224.206
224.223
224.24
224.255
224.269
224.28
224.288
224.292
224.292
224.287
224.277
224.261
224.24
224.213
224.182
224.146
224.107
224.065
224.021
223.978
223.937
223.899
223.865
223.835
223.809
223.788
223.771
223.759
223.751
223.746
223.744
223.748
224.066
224.069
224.077
224.087
224.098
224.11
224.124
224.14
224.156
224.172
224.188
224.203
224.216
224.227
224.234
224.238
224.237
224.232
224.222
224.206
224.185
224.159
224.128
224.093
224.054
224.013
223.971
223.929
223.888
223.849
223.814
223.784
223.758
223.736
223.718
223.705
223.697
223.692
223.691
223.695
224.013
224.016
224.025
224.035
224.047
224.06
224.074
224.09
224.106
224.123
224.139
224.153
224.166
224.176
224.183
224.187
224.186
224.181
224.17
224.155
224.134
224.108
224.078
224.043
224.004
223.963
223.921
223.878
223.836
223.797
223.761
223.729
223.702
223.679
223.66
223.646
223.636
223.632
223.631
223.638
223.957
223.961
223.971
223.982
223.994
224.008
224.024
224.041
224.057
224.074
224.09
224.105
224.118
224.129
224.136
224.14
224.139
224.134
224.123
224.108
224.087
224.061
224.031
223.995
223.957
223.915
223.871
223.827
223.784
223.743
223.705
223.671
223.641
223.616
223.595
223.58
223.569
223.565
223.566
223.575
223.895
223.904
223.916
223.929
223.941
223.955
223.973
223.992
224.01
224.027
224.043
224.059
224.073
224.083
224.091
224.095
224.095
224.09
224.08
224.065
224.044
224.018
223.987
223.951
223.911
223.868
223.823
223.777
223.731
223.687
223.646
223.608
223.575
223.547
223.524
223.506
223.495
223.49
223.494
223.506
223.822
223.844
223.861
223.875
223.887
223.902
223.922
223.944
223.963
223.98
223.997
224.014
224.029
224.04
224.048
224.052
224.053
224.048
224.039
224.024
224.003
223.977
223.946
223.909
223.868
223.823
223.776
223.726
223.677
223.629
223.583
223.541
223.503
223.471
223.444
223.425
223.412
223.408
223.414
223.429
223.746
223.786
223.809
223.824
223.834
223.848
223.872
223.898
223.918
223.935
223.952
223.97
223.986
223.998
224.006
224.011
224.012
224.008
223.999
223.985
223.965
223.939
223.907
223.869
223.827
223.78
223.729
223.676
223.622
223.569
223.517
223.469
223.426
223.388
223.357
223.334
223.32
223.316
223.325
223.343
223.58
223.726
223.76
223.778
223.784
223.79
223.821
223.855
223.875
223.89
223.907
223.928
223.946
223.958
223.966
223.971
223.973
223.97
223.962
223.947
223.927
223.901
223.869
223.831
223.786
223.737
223.683
223.626
223.566
223.507
223.449
223.393
223.342
223.298
223.261
223.233
223.217
223.213
223.225
223.247
223.61
223.686
223.677
223.707
223.706
223.727
223.771
223.817
223.837
223.847
223.863
223.888
223.909
223.92
223.927
223.934
223.937
223.934
223.925
223.912
223.892
223.865
223.832
223.793
223.747
223.695
223.637
223.575
223.51
223.443
223.377
223.312
223.253
223.199
223.155
223.121
223.101
223.097
223.113
223.139
397.421
294.532
307.343
260.767
258.38
238.49
208.463
189.546
157.751
143.053
108.632
100.813
59.5196
58.6324
7.69167
14.0319
-43.5735
-33.2246
-55.8969
-59.8483
-24.6348
-3.14599
-1.21134
-1.31882
-1.45471
-1.50908
-1.55343
-1.59881
-1.64493
-1.69223
-1.74138
-1.79276
-1.84655
-1.90294
-1.96213
-2.02425
-2.08934
-2.15746
-2.22867
-2.30309
-2.38085
-2.46197
-2.54637
-136.709
108.335
156.645
192.796
109.719
125.103
138.997
167.302
154.071
129.001
136.291
148.491
138.786
120.979
125.047
131.719
115.518
104.548
106.159
110.839
87.138
80.9255
82.0514
86.2058
54.1873
52.5405
54.7921
59.3503
17.7763
21.1253
25.5274
31.25
-21.9196
-13.1893
-5.95101
1.75486
-52.635
-44.9671
-37.5918
-28.6456
-32.1928
-40.1705
-42.0674
-41.5404
-5.19533
-6.48633
-8.84783
-9.46787
-1.69161
-2.1352
-2.27483
-2.14103
-1.40684
-1.51363
-1.61863
-1.67348
-1.56557
-1.65719
-1.72545
-1.77954
-1.60654
-1.69592
-1.76663
-1.82391
-1.63771
-1.71645
-1.78477
-1.84305
-1.67456
-1.74534
-1.80972
-1.86695
-1.71471
-1.78005
-1.84095
-1.89651
-1.75717
-1.81828
-1.8761
-1.92977
-1.80225
-1.85979
-1.91478
-1.96642
-1.85014
-1.90461
-1.95701
-2.0066
-1.90093
-1.95273
-2.00282
-2.05048
-1.95471
-2.00419
-2.05222
-2.09814
-2.01159
-2.05905
-2.10528
-2.14969
-2.07171
-2.1174
-2.16208
-2.2052
-2.13512
-2.17931
-2.2227
-2.26471
-2.20186
-2.24485
-2.2872
-2.3283
-2.272
-2.31409
-2.35563
-2.39597
-2.34568
-2.38711
-2.42802
-2.46773
-2.42298
-2.46398
-2.50441
-2.54359
-2.50387
-2.54461
-2.58471
-2.62346
-2.58816
-2.62873
-2.66857
-2.70697
222.827
223.754
223.903
223.807
223.759
223.718
223.743
223.806
223.819
223.815
223.827
223.856
223.879
223.887
223.89
223.897
223.903
223.9
223.891
223.877
223.857
223.83
223.796
223.755
223.707
223.652
223.59
223.523
223.451
223.376
223.3
223.225
223.155
223.09
223.036
222.995
222.97
222.966
222.985
223.017
206.536
220.493
223.448
223.645
223.545
223.519
223.684
223.843
223.87
223.821
223.808
223.846
223.876
223.872
223.863
223.869
223.875
223.868
223.858
223.845
223.824
223.796
223.761
223.718
223.667
223.608
223.542
223.468
223.388
223.304
223.218
223.131
223.047
222.969
222.903
222.851
222.819
222.814
222.838
222.877
164.189
180.145
196.515
206.358
216.151
220.127
221.922
223.312
223.644
223.649
223.652
223.787
223.89
223.888
223.852
223.859
223.869
223.852
223.834
223.817
223.793
223.763
223.726
223.68
223.626
223.563
223.491
223.411
223.322
223.228
223.129
223.028
222.928
222.834
222.752
222.687
222.646
222.638
222.668
222.716
141.114
152.326
163.923
175.356
186.013
192.56
198.808
206.394
212.745
216.811
219.935
222.371
223.522
223.721
223.698
223.787
223.86
223.855
223.824
223.804
223.771
223.736
223.692
223.643
223.583
223.515
223.437
223.348
223.25
223.143
223.03
222.913
222.796
222.682
222.581
222.499
222.446
222.433
222.47
222.528
117.723
126.921
136.385
146.849
156.576
164.368
171.313
177.96
184.028
189.871
195.753
201.987
207.991
213.594
218.339
221.786
223.478
223.702
223.753
223.778
223.76
223.719
223.666
223.609
223.54
223.465
223.379
223.279
223.168
223.048
222.921
222.786
222.647
222.51
222.385
222.282
222.213
222.193
222.237
222.309
92.2525
100.148
109.047
118.774
128.223
136.552
143.991
150.921
157.705
164.246
170.238
175.921
181.798
188.137
194.528
201.253
208.686
215.944
221.154
223.445
223.661
223.663
223.639
223.581
223.497
223.413
223.317
223.202
223.075
222.941
222.796
222.641
222.478
222.314
222.159
222.029
221.939
221.91
221.961
222.049
65.471
73.0402
81.541
90.6542
99.6844
108.121
116.11
123.842
131.318
138.399
144.938
151.311
157.994
164.862
171.546
178.21
185.356
192.937
200.864
209.904
218.453
222.878
223.558
223.51
223.445
223.364
223.257
223.115
222.968
222.817
222.654
222.476
222.284
222.086
221.896
221.732
221.614
221.572
221.631
221.739
38.0683
45.8228
54.2284
63.0624
71.7814
80.1145
88.2149
96.1572
103.866
111.322
118.598
125.901
133.381
140.949
148.405
155.923
163.81
171.877
179.977
188.513
197.44
207.246
217.748
222.925
223.371
223.302
223.201
223.021
222.843
222.673
222.49
222.285
222.059
221.82
221.585
221.379
221.226
221.165
221.233
221.366
9.93808
18.2845
27.026
36.0388
44.6636
52.8476
60.9245
68.9285
76.7337
84.3634
91.9608
99.6643
107.543
115.59
123.798
132.276
141.104
150.123
159.186
168.499
177.925
187.618
197.742
208.742
219.778
223.223
223.073
222.892
222.713
222.511
222.301
222.066
221.797
221.506
221.215
220.955
220.757
220.672
220.75
220.913
-18.9606
-10.0868
-0.727464
8.96041
17.6889
25.7074
33.8766
42.1103
50.0647
57.8023
65.5816
73.5423
81.704
90.0791
98.716
107.687
117.043
126.751
136.801
147.221
157.782
168.389
179.058
190.05
201.659
214.257
222.295
222.712
222.54
222.334
222.09
221.811
221.491
221.133
220.77
220.44
220.184
220.066
220.155
220.357
-36.1261
-30.6325
-24.009
-15.6901
-8.2442
-1.40093
6.58095
15.1339
23.2231
30.9768
38.9528
47.3027
55.8633
64.6049
73.6225
82.9811
92.7357
102.908
113.504
124.544
135.967
147.741
159.67
171.536
183.447
195.946
209.424
220.648
222.293
222.153
221.877
221.529
221.132
220.685
220.228
219.807
219.476
219.315
219.415
219.666
-9.72551
-13.4754
-20.312
-21.5427
-20.3265
-18.2879
-13.6033
-7.2071
-1.00117
5.09036
12.1981
20.5854
29.4805
38.5893
48.0851
57.9894
68.2675
78.9355
89.99
101.498
113.469
125.892
138.697
151.779
164.861
177.751
191.285
206.168
219.064
221.787
221.639
221.252
220.724
220.137
219.558
219.021
218.591
218.372
218.487
218.798
-2.20322
-2.8238
-4.14276
-3.35146
-3.22218
-4.19368
-6.50801
-8.29134
-8.87688
-8.57128
-5.89023
-0.490051
6.21704
13.6775
22.3883
32.3758
43.1475
54.471
66.1601
78.2516
90.7529
103.69
117.071
130.862
144.943
159.098
173.042
187.551
203.874
217.862
221.035
220.931
220.318
219.468
218.715
218.032
217.471
217.175
217.306
217.696
-1.67713
-1.76893
-2.03044
-2.271
-2.34685
-2.44157
-2.89146
-2.60968
-1.85645
-1.12767
0.0432297
-0.305658
-1.01025
-0.258934
3.60251
10.427
19.2588
29.8588
41.7033
54.4321
67.6758
81.2699
95.2191
109.559
124.28
139.277
154.321
169.112
184.51
202.064
216.473
220
219.84
218.663
217.641
216.765
216.038
215.641
215.789
216.28
-1.79619
-1.80499
-1.85897
-1.93593
-1.95611
-1.92913
-2.02318
-2.32612
-2.42647
-2.44435
-2.46887
-2.48942
-1.57762
0.443505
3.24793
3.76268
5.09399
10.7168
19.4456
30.7877
44.0521
58.3417
73.0735
88.0722
103.364
118.956
134.739
150.459
165.835
182.256
201.711
216.011
218.279
217.569
216.283
215.123
214.18
213.653
213.822
214.443
-1.86516
-1.89988
-1.94818
-2.00383
-2.03349
-2.03145
-2.04177
-2.10989
-2.13501
-2.12102
-2.08035
-2.12753
-2.32579
-2.39358
-2.38646
-1.85932
1.01547
5.74446
7.44578
12.6597
22.5671
35.4905
50.4217
66.237
82.2922
98.4838
114.826
131.206
147.35
163.171
181.442
203.177
214.041
216.095
214.792
213.049
211.757
211.06
211.253
212.039
-1.89428
-1.94275
-1.99446
-2.04455
-2.08003
-2.10006
-2.11932
-2.15706
-2.17962
-2.17671
-2.15231
-2.13449
-2.15372
-2.14207
-2.0988
-2.13317
-2.32261
-2.2944
-0.491166
5.38568
9.55634
16.8008
28.8761
44.1049
60.9085
77.9263
94.8645
111.743
128.423
144.575
160.41
180.004
202.751
213.075
213.387
210.551
208.6
207.657
207.883
208.878
-1.92026
-1.9711
-2.02047
-2.06575
-2.10175
-2.12913
-2.15521
-2.18642
-2.20663
-2.21053
-2.20217
-2.19211
-2.19342
-2.18287
-2.15219
-2.1241
-2.12234
-2.08319
-2.12395
-2.2441
-0.239576
6.67195
12.721
23.9397
39.5718
57.1845
74.9422
92.3565
109.434
125.968
141.469
157.646
183.285
205.273
209.732
207.113
204.477
203.171
203.46
204.719
-1.94968
-2.00039
-2.04738
-2.08961
-2.12488
-2.15364
-2.1794
-2.20412
-2.22043
-2.22616
-2.22428
-2.22076
-2.21992
-2.21123
-2.19168
-2.16951
-2.15321
-2.12262
-2.08719
-2.06894
-2.10278
-2.04338
2.49384
9.67564
20.5879
36.7442
55.029
73.1879
90.6676
107.482
123.16
137.203
156.193
184.616
199.952
204.094
199.527
197.355
197.702
199.274
-1.98199
-2.03201
-2.07742
-2.11783
-2.15224
-2.18076
-2.2049
-2.22525
-2.23881
-2.24463
-2.24442
-2.24138
-2.2371
-2.22739
-2.21192
-2.19562
-2.1802
-2.15628
-2.12703
-2.09889
-2.06496
-2.0658
-2.10894
0.175558
7.24387
18.4966
35.5226
54.2793
72.3217
89.3459
105.152
118.529
131.582
160.51
190.101
198.354
192.326
189.846
190.27
192.204
-2.01721
-2.06612
-2.11019
-2.14923
-2.18268
-2.21047
-2.23318
-2.25098
-2.26272
-2.268
-2.26781
-2.2639
-2.25716
-2.24631
-2.23162
-2.21546
-2.19848
-2.17766
-2.15525
-2.13171
-2.10268
-2.08092
-2.04979
-2.05538
-0.662749
5.4421
17.8267
35.8913
54.5363
71.8528
87.7258
101.116
112.541
139.498
175.858
183.299
184.11
180.807
180.808
183.156
-2.05576
-2.10333
-2.14614
-2.18396
-2.21637
-2.24317
-2.26453
-2.2805
-2.2907
-2.29507
-2.29428
-2.2894
-2.28111
-2.26926
-2.25421
-2.23717
-2.21864
-2.19816
-2.17702
-2.15501
-2.13157
-2.1087
-2.0797
-2.05317
-2.07022
-0.877494
4.69299
19.0593
37.4877
55.1896
70.9823
83.9419
92.698
104.346
134.619
163.433
178.445
170.15
168.915
171.797
-2.09799
-2.14421
-2.18582
-2.22249
-2.2538
-2.27946
-2.29946
-2.31384
-2.32254
-2.32573
-2.32392
-2.31788
-2.30825
-2.29526
-2.27936
-2.26136
-2.24178
-2.22085
-2.19922
-2.17712
-2.1547
-2.13278
-2.11004
-2.08516
-2.06611
-2.0791
-1.08202
5.74441
21.7199
39.5818
55.4124
67.9582
75.0954
78.4642
106.21
153.785
168.683
154.013
153.837
157.766
-2.14416
-2.18909
-2.22956
-2.26512
-2.29529
-2.31973
-2.33835
-2.35122
-2.35842
-2.36019
-2.35703
-2.34958
-2.33845
-2.32406
-2.30694
-2.28778
-2.26716
-2.24548
-2.22318
-2.20054
-2.17783
-2.15579
-2.13439
-2.11231
-2.08709
-2.07635
-2.18793
-1.57837
8.03927
25.2338
41.4592
54.1717
62.0341
67.2773
95.9099
132.457
138.082
132.079
135.894
141.061
-2.19438
-2.23813
-2.27752
-2.31198
-2.34099
-2.36417
-2.38141
-2.39278
-2.39842
-2.3986
-2.39381
-2.38467
-2.3718
-2.35572
-2.33703
-2.31643
-2.29455
-2.27185
-2.24872
-2.22543
-2.20227
-2.17982
-2.1585
-2.13821
-2.11743
-2.09765
-2.07513
-2.43593
-0.883226
12.7693
29.0675
42.1247
50.9835
58.7993
83.9511
105.507
104.71
110.54
116.974
122.672
-2.24871
-2.29138
-2.32972
-2.3631
-2.39095
-2.41289
-2.42876
-2.4386
-2.44256
-2.44096
-2.4343
-2.42319
-2.40829
-2.39022
-2.36966
-2.34732
-2.32389
-2.29987
-2.27566
-2.25159
-2.22789
-2.20491
-2.18319
-2.16317
-2.14378
-2.12206
-2.12713
-2.32984
-4.41563
2.54773
17.9378
31.0124
39.6461
46.951
66.6921
87.602
88.0794
93.3253
98.8814
104.144
-2.30719
-2.34883
-2.38616
-2.41848
-2.44522
-2.46594
-2.48043
-2.48866
-2.49079
-2.48719
-2.47839
-2.46504
-2.44784
-2.42747
-2.4047
-2.38033
-2.35503
-2.3294
-2.30388
-2.27881
-2.25441
-2.23086
-2.20857
-2.1882
-2.16928
-2.14805
-2.12413
-2.15024
-4.01229
-4.49125
8.26067
20.5999
27.8932
32.4695
45.8883
70.7204
75.9915
77.8624
81.8202
86.2948
-2.36986
-2.41053
-2.44689
-2.47819
-2.50382
-2.52329
-2.5363
-2.54279
-2.54291
-2.53708
-2.52589
-2.51002
-2.49022
-2.46726
-2.44197
-2.4152
-2.38774
-2.36022
-2.33316
-2.30689
-2.2816
-2.25739
-2.23447
-2.21331
-2.19354
-2.16969
-2.12868
-2.14068
-3.29071
-7.8978
0.497426
11.14
16.6191
18.2267
26.721
53.1352
62.0526
61.7755
64.9142
68.9207
-2.43673
-2.47653
-2.51196
-2.54224
-2.5667
-2.58479
-2.59616
-2.60072
-2.59865
-2.59038
-2.57652
-2.55782
-2.53509
-2.50921
-2.48109
-2.45162
-2.42167
-2.39201
-2.36316
-2.3355
-2.30924
-2.28444
-2.26119
-2.23983
-2.22017
-2.19651
-2.1553
-2.20153
-3.01171
-9.26878
-5.48965
2.91572
6.46656
5.48139
10.2643
35.4469
46.2656
44.824
47.8875
51.7312
-2.50779
-2.5468
-2.58135
-2.61058
-2.63374
-2.65024
-2.65972
-2.66212
-2.65763
-2.64667
-2.62987
-2.60801
-2.582
-2.55286
-2.52158
-2.48913
-2.45643
-2.42429
-2.39341
-2.3642
-2.33696
-2.31175
-2.28857
-2.26773
-2.24935
-2.22773
-2.18865
-2.25786
-3.02208
-10.2074
-10.0957
-3.89982
-2.21932
-5.36995
-3.95649
17.8724
29.3991
27.8118
31.2558
34.9477
-2.58303
-2.6213
-2.65493
-2.683
-2.70468
-2.71935
-2.72667
-2.72661
-2.71938
-2.70543
-2.68538
-2.66007
-2.63046
-2.59771
-2.56295
-2.5272
-2.49142
-2.45654
-2.42334
-2.39243
-2.36421
-2.33871
-2.31584
-2.29607
-2.27957
-2.25977
-2.22051
-2.32157
-3.31805
-11.7708
-13.8146
-9.23095
-8.78914
-12.4129
-12.8343
3.09322
13.3666
12.3581
15.5054
19.114
-2.66234
-2.69986
-2.73249
-2.75919
-2.77913
-2.79172
-2.79664
-2.79381
-2.78347
-2.76613
-2.7425
-2.71341
-2.67991
-2.64324
-2.60466
-2.56526
-2.52606
-2.48813
-2.45239
-2.41965
-2.39034
-2.36452
-2.3421
-2.32365
-2.30922
-2.28972
-2.24909
-2.41447
-4.09789
-14.6319
-17.1361
-13.2337
-12.6314
-12.4237
-9.96147
-9.74673
-5.98685
-0.700247
1.09193
5.20199
-2.74534
-2.7821
-2.81361
-2.83876
-2.85669
-2.86692
-2.86916
-2.86332
-2.8496
-2.82851
-2.80085
-2.76756
-2.72981
-2.68892
-2.64619
-2.6028
-2.55988
-2.51857
-2.48007
-2.4453
-2.41475
-2.3885
-2.36659
-2.34965
-2.33644
-2.31291
-2.27079
-2.55705
-5.91254
-19.0071
-20.276
-16.6574
-15.1025
-7.51692
1.70121
-22.56
-33.5955
-12.9703
-11.4322
-6.0986
)
;

boundaryField
{
    leftWall
    {
        type            calculated;
        value           nonuniform 0();
    }
    rightWall
    {
        type            calculated;
        value           nonuniform List<scalar> 
43
(
223.793
223.748
223.695
223.638
223.575
223.506
223.429
223.343
223.247
223.139
223.017
222.877
222.716
222.528
222.309
222.049
221.739
221.366
220.913
220.357
219.666
218.798
217.696
216.28
214.443
212.039
208.878
204.719
199.274
192.204
183.156
171.797
157.766
141.061
122.672
104.144
86.2948
68.9207
51.7312
34.9477
19.114
5.20199
-6.0986
)
;
    }
    lowerWall
    {
        type            calculated;
        value           nonuniform List<scalar> 
66
(
986.799
1004.43
980.887
923.674
876.271
840.29
815.707
795.56
773.769
742.767
685.008
588.595
-112.744
132.3
164.81
192.82
224.166
224.117
224.066
224.013
223.957
223.895
223.822
223.746
223.58
223.61
224.19
224.192
224.198
224.206
224.217
224.229
224.245
224.262
224.279
224.298
224.315
224.332
224.347
224.358
224.367
224.371
224.372
224.367
224.357
224.341
224.319
224.292
224.26
224.223
224.183
224.14
224.096
224.052
224.01
223.97
223.934
223.902
223.874
223.852
223.836
223.826
223.819
223.815
223.814
223.816
)
;
    }
    atmosphere
    {
        type            calculated;
        value           nonuniform 0();
    }
    defaultFaces
    {
        type            empty;
    }
    procBoundary1to0
    {
        type            processor;
        value           nonuniform List<scalar> 
44
(
949.019
896.77
855.229
814.07
773.393
732.235
687.845
637.139
576.171
502.195
414.528
339.221
278.917
221.928
165.892
110.956
55.4129
-3.51755
-54.4089
-44.4167
-14.9114
-14.9114
-2.22919
-1.00818
-1.29223
-1.38071
-1.42356
-1.4711
-1.52176
-1.57289
-1.62485
-1.67822
-1.73334
-1.79044
-1.84972
-1.91142
-1.97569
-2.04262
-2.11224
-2.18463
-2.25993
-2.33825
-2.41968
-2.50418
)
;
    }
    procBoundary1to3
    {
        type            processor;
        value           nonuniform List<scalar> 
45
(
-2.63391
-2.6757
-2.71618
-2.75583
-2.7939
-2.83176
-2.86764
-2.89787
-2.92126
-2.93697
-2.94453
-2.94373
-2.93452
-2.91711
-2.89201
-2.85998
-2.82209
-2.77967
-2.7342
-2.68703
-2.63937
-2.59239
-2.54745
-2.50584
-2.46866
-2.43674
-2.41016
-2.38907
-2.37394
-2.35886
-2.32091
-2.281
-2.68897
-10.0153
-24.1724
-23.3142
-20.7882
-19.9586
-11.4952
-0.718925
-15.9587
-32.384
-20.8512
-18.971
-13.9583
)
;
    }
}


// ************************************************************************* //
