/*--------------------------------*- C++ -*----------------------------------*\
| =========                 |                                                 |
| \\      /  F ield         | OpenFOAM: The Open Source CFD Toolbox           |
|  \\    /   O peration     | Version:  5.0                                   |
|   \\  /    A nd           | Web:      www.OpenFOAM.org                      |
|    \\/     M anipulation  |                                                 |
\*---------------------------------------------------------------------------*/
FoamFile
{
    version     2.0;
    format      ascii;
    class       volScalarField;
    location    "0.15";
    object      nut;
}
// * * * * * * * * * * * * * * * * * * * * * * * * * * * * * * * * * * * * * //

dimensions      [0 2 -1 0 0 0 0];

internalField   nonuniform List<scalar> 
1935
(
0.0096045
0.00959699
0.00958838
0.00957877
0.00956808
0.00955615
0.00954274
0.00952761
0.00951054
0.00949134
0.00946996
0.00944641
0.00942085
0.00939354
0.00936484
0.00933522
0.00930518
0.00927523
0.00924589
0.00921763
0.00919081
0.00916575
0.00914265
0.0091216
0.00910265
0.00908575
0.00907082
0.00905775
0.00904641
0.00903671
0.00902854
0.00902184
0.00901657
0.00901271
0.00901023
0.0090091
0.00900924
0.00901047
0.00901251
0.00901485
0.00901689
0.00901801
0.00901816
0.00952679
0.00946111
0.00940395
0.00935422
0.0095188
0.00945268
0.00939516
0.00934514
0.00950981
0.00944338
0.00938562
0.00933542
0.00949997
0.00943337
0.00937551
0.00932527
0.00948925
0.00942267
0.00936487
0.00931474
0.00947755
0.00941121
0.00935368
0.00930384
0.00946471
0.00939889
0.00934187
0.00929252
0.00945053
0.00938556
0.00932932
0.00928069
0.00943485
0.00937109
0.00931593
0.00926828
0.00941754
0.00935539
0.00930164
0.00925523
0.00939854
0.00933841
0.00928642
0.00924153
0.00937788
0.00932017
0.00927027
0.00922717
0.00935569
0.00930078
0.00925328
0.00921223
0.00933216
0.0092804
0.00923558
0.00919679
0.00930761
0.00925927
0.00921734
0.00918101
0.00928237
0.00923766
0.0091988
0.00916503
0.00925687
0.00921589
0.00918018
0.00914906
0.00923149
0.00919428
0.00916174
0.00913329
0.00920666
0.00917314
0.00914373
0.0091179
0.00918272
0.00915277
0.00912636
0.00910306
0.00915998
0.0091334
0.00910983
0.00908893
0.00913869
0.00911522
0.00909429
0.00907562
0.00911899
0.00909835
0.00907984
0.00906321
0.00910099
0.00908288
0.00906653
0.00905175
0.0090847
0.00906883
0.0090544
0.00904126
0.00907011
0.00905618
0.00904343
0.00903174
0.00905715
0.00904489
0.00903359
0.00902316
0.00904574
0.0090349
0.00902483
0.00901549
0.00903579
0.00902613
0.00901711
0.00900868
0.00902721
0.00901852
0.00901036
0.00900269
0.00901993
0.00901201
0.00900453
0.00899748
0.00901388
0.00900654
0.00899959
0.00899301
0.00900904
0.00900208
0.00899548
0.00898923
0.00900537
0.00899859
0.00899217
0.00898611
0.00900283
0.00899602
0.00898961
0.00898358
0.00900138
0.00899432
0.00898773
0.00898158
0.00900093
0.0089934
0.00898642
0.00898001
0.00900132
0.00899309
0.00898557
0.00897873
0.0090023
0.00899321
0.00898498
0.00897762
0.00900352
0.00899347
0.00898448
0.00897653
0.00900455
0.00899362
0.0089839
0.00897541
0.00900503
0.00899347
0.00898322
0.00897431
0.00900497
0.00899314
0.00898263
0.00897352
0.00930839
0.00926682
0.00923084
0.00919944
0.00917178
0.00914718
0.00912508
0.00910506
0.00908675
0.00906987
0.00905417
0.00903939
0.00902525
0.00901142
0.00899742
0.00898264
0.0089662
0.00894693
0.00892325
0.00889305
0.00885362
0.00880152
0.0087325
0.00864147
0.00852246
0.00836878
0.00817318
0.00792815
0.00762639
0.00726134
0.00682776
0.00632235
0.00574426
0.00509532
0.00437984
0.00360378
0.00277264
0.00188816
0.000949892
0.000115544
0.00929908
0.00925734
0.00922129
0.0091899
0.00916237
0.00913798
0.00911619
0.00909655
0.00907867
0.00906226
0.00904705
0.00903277
0.00901913
0.00900577
0.00899221
0.00897781
0.00896171
0.00894271
0.00891923
0.00888914
0.00884974
0.00879757
0.00872838
0.00863708
0.00851771
0.00836358
0.00816746
0.00792187
0.00761956
0.007254
0.00682
0.00631434
0.0057362
0.00508746
0.00437249
0.00359726
0.00276731
0.00188439
0.000948062
0.000115488
0.00928926
0.0092475
0.00921149
0.00918025
0.00915293
0.00912884
0.00910741
0.00908818
0.00907077
0.00905485
0.00904014
0.00902635
0.00901319
0.00900029
0.00898715
0.00897313
0.00895735
0.00893861
0.0089153
0.00888532
0.00884593
0.00879369
0.00872433
0.00863275
0.00851301
0.00835843
0.00816179
0.00791565
0.00761278
0.00724671
0.0068123
0.00630638
0.00572819
0.00507965
0.00436518
0.00359078
0.00276202
0.00188066
0.000946266
0.000115426
0.00927913
0.00923746
0.00920163
0.00917062
0.0091436
0.00911987
0.00909885
0.00908006
0.00906312
0.00904769
0.00903347
0.00902017
0.00900748
0.00899501
0.00898228
0.00896862
0.00895314
0.00893464
0.0089115
0.00888161
0.00884223
0.0087899
0.00872035
0.0086285
0.00850839
0.00835335
0.0081562
0.0079095
0.00760608
0.0072395
0.00680469
0.0062985
0.00572026
0.00507193
0.00435796
0.00358438
0.00275679
0.00187699
0.00094451
0.00011536
0.00926878
0.00922733
0.00919177
0.00916109
0.00913444
0.00911112
0.00909054
0.00907222
0.00905576
0.00904082
0.00902708
0.00901426
0.00900202
0.00898997
0.00897762
0.00896429
0.0089491
0.00893082
0.00890784
0.00887803
0.00883864
0.00878622
0.00871649
0.00862435
0.00850387
0.00834838
0.00815071
0.00790346
0.00759949
0.0072324
0.00679718
0.00629074
0.00571244
0.00506431
0.00435084
0.00357808
0.00275165
0.00187339
0.000942802
0.000115289
0.00925821
0.00921713
0.00918195
0.00915168
0.00912547
0.00910261
0.00908251
0.00906467
0.0090487
0.00903424
0.00902098
0.00900861
0.0089968
0.00898515
0.00897317
0.00896016
0.00894523
0.00892716
0.00890433
0.00887459
0.00883519
0.00878267
0.00871275
0.00862032
0.00849947
0.00834353
0.00814534
0.00789755
0.00759303
0.00722544
0.00678981
0.00628311
0.00570476
0.00505683
0.00434384
0.00357189
0.00274662
0.00186987
0.000941148
0.000115215
0.00924739
0.00920683
0.00917216
0.0091424
0.00911669
0.00909434
0.00907474
0.0090574
0.00904192
0.00902794
0.00901515
0.00900323
0.00899183
0.00898057
0.00896893
0.00895623
0.00894155
0.00892368
0.00890097
0.00887129
0.00883187
0.00877925
0.00870913
0.00861643
0.0084952
0.00833881
0.00814011
0.00789177
0.00758671
0.00721863
0.0067826
0.00627565
0.00569724
0.0050495
0.004337
0.00356584
0.0027417
0.00186645
0.000939553
0.000115138
0.00923626
0.00919639
0.00916237
0.00913322
0.00910809
0.00908628
0.00906722
0.0090504
0.00903542
0.00902192
0.00900959
0.00899809
0.00898711
0.00897621
0.0089649
0.00895249
0.00893805
0.00892036
0.00889777
0.00886814
0.0088287
0.00877597
0.00870566
0.00861267
0.00849107
0.00833424
0.00813504
0.00788616
0.00758056
0.00721199
0.00677556
0.00626836
0.0056899
0.00504235
0.00433031
0.00355993
0.00273691
0.00186312
0.00093802
0.000115057
0.00922478
0.00918578
0.00915255
0.0091241
0.00909962
0.00907843
0.00905993
0.00904365
0.00902918
0.00901616
0.00900427
0.0089932
0.00898261
0.00897207
0.00896107
0.00894893
0.00893472
0.0089172
0.00889473
0.00886515
0.00882567
0.00877283
0.00870233
0.00860905
0.00848709
0.00832981
0.00813012
0.00788071
0.00757458
0.00720552
0.0067687
0.00626125
0.00568274
0.00503537
0.00432379
0.00355418
0.00273224
0.0018599
0.000936548
0.000114974
0.0092129
0.00917496
0.00914265
0.00911502
0.00909128
0.00907075
0.00905286
0.00903713
0.00902318
0.00901064
0.0089992
0.00898855
0.00897833
0.00896813
0.00895744
0.00894555
0.00893155
0.00891419
0.00889182
0.00886228
0.00882277
0.00876982
0.00869913
0.00860558
0.00848325
0.00832554
0.00812535
0.00787542
0.00756878
0.00719923
0.00676202
0.00625432
0.00567575
0.00502855
0.00431741
0.00354854
0.00272767
0.00185673
0.000935109
0.000114887
0.00920059
0.00916391
0.00913267
0.00910597
0.00908304
0.00906323
0.00904598
0.00903083
0.00901741
0.00900536
0.00899436
0.00898411
0.00897426
0.00896439
0.00895399
0.00894235
0.00892855
0.00891134
0.00888905
0.00885953
0.00881999
0.00876692
0.00869603
0.00860221
0.00847953
0.0083214
0.00812073
0.00787029
0.00756313
0.00719311
0.00675551
0.00624755
0.0056689
0.00502185
0.00431113
0.00354295
0.00272309
0.00185348
0.000933481
0.000114809
0.00918786
0.00915262
0.0091226
0.00909694
0.0090749
0.00905585
0.00903928
0.00902474
0.00901185
0.00900029
0.00898974
0.00897989
0.0089704
0.00896085
0.00895073
0.00893932
0.00892571
0.00890863
0.00888643
0.00885692
0.00881733
0.00876413
0.00869304
0.00859893
0.0084759
0.00831734
0.00811619
0.00786524
0.00755756
0.00718708
0.00674908
0.00624087
0.00566215
0.00501525
0.00430492
0.00353742
0.00271853
0.00185019
0.000931782
0.000114739
0.00917476
0.00914113
0.00911246
0.00908793
0.00906685
0.00904862
0.00903276
0.00901884
0.00900651
0.00899544
0.00898532
0.00897587
0.00896673
0.0089575
0.00894764
0.00893646
0.00892303
0.00890608
0.00888395
0.00885445
0.0088148
0.00876147
0.00869017
0.00859578
0.00847239
0.0083134
0.00811177
0.00786031
0.00755214
0.00718118
0.00674281
0.00623435
0.00565555
0.00500879
0.00429885
0.00353201
0.00271404
0.00184693
0.000930095
0.000114671
0.00916135
0.00912949
0.00910228
0.00907897
0.00905891
0.00904155
0.00902642
0.00901314
0.00900137
0.00899079
0.00898112
0.00897205
0.00896326
0.00895433
0.00894473
0.00893377
0.00892051
0.00890368
0.00888161
0.00885212
0.00881241
0.00875895
0.00868744
0.00859277
0.00846902
0.00830962
0.00810752
0.00785556
0.00754689
0.00717549
0.00673675
0.00622804
0.00564917
0.00500255
0.00429298
0.00352676
0.00270969
0.00184377
0.000928478
0.000114604
0.00914773
0.00911776
0.00909211
0.00907009
0.0090511
0.00903463
0.00902027
0.00900764
0.00899643
0.00898634
0.00897711
0.00896843
0.00895997
0.00895134
0.008942
0.00893124
0.00891814
0.00890143
0.00887943
0.00884994
0.00881016
0.00875658
0.00868487
0.00858992
0.00846582
0.00830601
0.00810346
0.00785102
0.00754187
0.00717003
0.00673094
0.006222
0.00564306
0.00499656
0.00428735
0.00352174
0.00270553
0.00184076
0.000926964
0.000114535
0.00913404
0.00910605
0.00908202
0.00906133
0.00904344
0.0090279
0.00901431
0.00900234
0.0089917
0.0089821
0.0089733
0.00896499
0.00895687
0.00894852
0.00893943
0.00892888
0.00891593
0.00889933
0.00887739
0.0088479
0.00880807
0.00875436
0.00868246
0.00858724
0.00846281
0.00830261
0.00809962
0.00784672
0.00753712
0.00716486
0.00672543
0.00621627
0.00563726
0.0049909
0.00428203
0.00351698
0.00270161
0.00183794
0.000925566
0.000114465
0.00912042
0.00909445
0.00907207
0.00905274
0.00903598
0.00902136
0.00900856
0.00899725
0.00898717
0.00897806
0.00896968
0.00896175
0.00895395
0.00894588
0.00893702
0.00892667
0.00891388
0.00889738
0.0088755
0.00884602
0.00880613
0.0087523
0.00868021
0.00858475
0.00846001
0.00829943
0.00809603
0.0078427
0.00753266
0.00716001
0.00672026
0.00621089
0.00563183
0.00498558
0.00427704
0.00351254
0.00269795
0.00183532
0.000924294
0.000114394
0.009107
0.00908306
0.00906235
0.00904438
0.00902874
0.00901506
0.00900303
0.00899237
0.00898285
0.00897423
0.00896626
0.00895869
0.0089512
0.0089434
0.00893477
0.00892461
0.00891197
0.00889558
0.00887375
0.00884428
0.00880434
0.00875041
0.00867815
0.00858246
0.00845742
0.0082965
0.00809271
0.00783897
0.00752854
0.00715552
0.00671547
0.00620591
0.00562679
0.00498066
0.00427242
0.00350844
0.00269457
0.00183293
0.000923152
0.000114323
0.00909393
0.00907199
0.00905293
0.0090363
0.00902177
0.009009
0.00899774
0.00898773
0.00897875
0.00897059
0.00896303
0.00895581
0.00894863
0.00894109
0.00893268
0.0089227
0.00891021
0.00889392
0.00887215
0.00884269
0.00880272
0.00874868
0.00867628
0.00858037
0.00845507
0.00829383
0.00808969
0.00783557
0.00752476
0.00715141
0.00671108
0.00620135
0.00562219
0.00497616
0.0042682
0.00350469
0.00269151
0.00183077
0.000922145
0.000114251
0.00908133
0.00906134
0.00904387
0.00902855
0.00901509
0.00900322
0.0089927
0.00898331
0.00897487
0.00896717
0.00895999
0.00895311
0.00894622
0.00893894
0.00893075
0.00892094
0.00890859
0.0088924
0.00887069
0.00884125
0.00880124
0.00874713
0.00867459
0.00857849
0.00845295
0.00829143
0.00808696
0.00783251
0.00752137
0.00714771
0.00670713
0.00619724
0.00561804
0.00497211
0.00426441
0.00350134
0.00268877
0.00182886
0.000921276
0.00011418
0.00906933
0.00905119
0.00903523
0.00902117
0.00900874
0.00899773
0.00898792
0.00897914
0.00897121
0.00896394
0.00895715
0.00895059
0.00894398
0.00893694
0.00892895
0.00891932
0.0089071
0.00889102
0.00886937
0.00883996
0.00879993
0.00874575
0.00867309
0.00857683
0.00845108
0.0082893
0.00808456
0.0078298
0.00751836
0.00714443
0.00670363
0.0061936
0.00561436
0.00496853
0.00426106
0.00349837
0.00268637
0.0018272
0.000920548
0.000114109
0.00905801
0.0090416
0.00902707
0.00901419
0.00900274
0.00899254
0.00898342
0.00897521
0.00896777
0.00896092
0.00895449
0.00894824
0.0089419
0.00893509
0.0089273
0.00891784
0.00890575
0.00888977
0.00886819
0.0088388
0.00879877
0.00874454
0.00867179
0.00857539
0.00844946
0.00828747
0.00808247
0.00782746
0.00751576
0.00714158
0.0067006
0.00619045
0.00561118
0.00496542
0.00425816
0.00349582
0.00268431
0.0018258
0.000919961
0.00011404
0.00904743
0.00903261
0.00901942
0.00900764
0.00899711
0.00898768
0.0089792
0.00897154
0.00896455
0.0089581
0.00895201
0.00894606
0.00893997
0.00893338
0.00892578
0.00891648
0.00890453
0.00888864
0.00886714
0.00883779
0.00879776
0.0087435
0.00867068
0.00857417
0.00844809
0.00828592
0.00808072
0.00782548
0.00751356
0.00713919
0.00669804
0.00618779
0.00560849
0.00496281
0.00425573
0.00349368
0.0026826
0.00182466
0.000919515
0.000113972
0.00903762
0.00902427
0.00901229
0.00900153
0.00899186
0.00898314
0.00897526
0.00896811
0.00896156
0.00895548
0.00894971
0.00894404
0.0089382
0.00893182
0.0089244
0.00891525
0.00890342
0.00888764
0.00886621
0.00883691
0.0087969
0.00874262
0.00866975
0.00857316
0.00844697
0.00828466
0.00807929
0.00782388
0.00751178
0.00713724
0.00669597
0.00618563
0.00560632
0.00496069
0.00425376
0.00349197
0.00268124
0.00182378
0.000919209
0.000113906
0.00902862
0.00901659
0.00900571
0.00899588
0.00898698
0.00897892
0.0089716
0.00896492
0.00895878
0.00895305
0.00894758
0.00894217
0.00893656
0.00893038
0.00892313
0.00891413
0.00890243
0.00888675
0.0088654
0.00883616
0.00879618
0.0087419
0.00866901
0.00857237
0.0084461
0.00828369
0.0080782
0.00782265
0.00751041
0.00713575
0.00669437
0.00618397
0.00560465
0.00495907
0.00425226
0.00349067
0.00268023
0.00182316
0.000919042
0.000113843
0.00902041
0.00900955
0.00899967
0.00899068
0.00898249
0.00897503
0.00896822
0.00896198
0.00895621
0.00895081
0.00894562
0.00894046
0.00893506
0.00892907
0.00892199
0.00891313
0.00890155
0.00888598
0.00886471
0.00883553
0.00879559
0.00874134
0.00866845
0.00857179
0.00844548
0.008283
0.00807743
0.00782179
0.00750946
0.00713471
0.00669326
0.00618282
0.00560349
0.00495795
0.00425123
0.00348979
0.00267958
0.0018228
0.000919013
0.000113782
0.00901299
0.00900316
0.00899416
0.00898591
0.00897836
0.00897145
0.00896511
0.00895927
0.00895385
0.00894875
0.00894382
0.00893889
0.00893369
0.00892788
0.00892095
0.00891223
0.00890077
0.0088853
0.00886412
0.00883502
0.00879514
0.00874093
0.00866807
0.00857142
0.0084451
0.00828259
0.00807699
0.0078213
0.00750892
0.00713412
0.00669263
0.00618216
0.00560283
0.00495732
0.00425066
0.00348932
0.00267926
0.00182269
0.000919118
0.000113725
0.00900631
0.00899739
0.00898916
0.00898158
0.0089746
0.00896818
0.00896226
0.00895678
0.00895168
0.00894686
0.00894217
0.00893745
0.00893244
0.00892679
0.00892002
0.00891143
0.00890009
0.00888472
0.00886364
0.00883462
0.00879481
0.00874067
0.00866786
0.00857125
0.00844495
0.00828246
0.00807686
0.00782117
0.00750878
0.00713397
0.00669247
0.006182
0.00560267
0.00495718
0.00425056
0.00348927
0.00267929
0.00182283
0.000919354
0.000113671
0.00900035
0.00899221
0.00898466
0.00897766
0.00897119
0.0089652
0.00895966
0.00895452
0.0089497
0.00894513
0.00894066
0.00893614
0.00893131
0.00892581
0.00891918
0.00891072
0.00889949
0.00888424
0.00886325
0.00883432
0.00879461
0.00874054
0.00866781
0.00857127
0.00844504
0.0082826
0.00807705
0.0078214
0.00750904
0.00713426
0.00669278
0.00618232
0.005603
0.00495752
0.0042509
0.00348962
0.00267966
0.00182322
0.000919716
0.000113621
0.00899508
0.0089876
0.00898062
0.00897413
0.0089681
0.0089625
0.00895729
0.00895245
0.00894789
0.00894355
0.00893929
0.00893495
0.00893027
0.00892493
0.00891843
0.00891009
0.00889898
0.00888383
0.00886295
0.00883413
0.00879451
0.00874055
0.00866791
0.00857147
0.00844534
0.008283
0.00807753
0.00782197
0.00750968
0.00713496
0.00669353
0.00618311
0.00560381
0.00495832
0.00425168
0.00349036
0.00268034
0.00182384
0.000920198
0.000113574
0.00899046
0.00898352
0.00897703
0.00897097
0.00896531
0.00896005
0.00895514
0.00895056
0.00894624
0.0089421
0.00893803
0.00893385
0.00892933
0.00892413
0.00891775
0.00890953
0.00889854
0.0088835
0.00886274
0.00883402
0.00879452
0.00874068
0.00866817
0.00857185
0.00844585
0.00828364
0.00807831
0.00782287
0.0075107
0.00713608
0.00669473
0.00618436
0.00560507
0.00495957
0.00425288
0.00349147
0.00268134
0.00182469
0.000920794
0.000113533
0.00898644
0.00897994
0.00897384
0.00896814
0.00896281
0.00895783
0.00895319
0.00894884
0.00894473
0.00894078
0.00893688
0.00893285
0.00892847
0.0089234
0.00891714
0.00890904
0.00889816
0.00888324
0.00886259
0.008834
0.00879463
0.00874093
0.00866856
0.0085724
0.00844656
0.00828452
0.00807936
0.00782408
0.00751206
0.00713758
0.00669633
0.00618603
0.00560678
0.00496125
0.00425448
0.00349295
0.00268263
0.00182575
0.000921498
0.000113496
0.00898299
0.00897682
0.00897103
0.00896561
0.00896055
0.00895582
0.0089514
0.00894725
0.00894333
0.00893955
0.00893581
0.00893193
0.00892768
0.00892273
0.00891659
0.0089086
0.00889784
0.00888303
0.00886251
0.00883405
0.00879482
0.00874127
0.00866908
0.0085731
0.00844746
0.00828562
0.00808067
0.00782559
0.00751377
0.00713945
0.00669834
0.00618812
0.0056089
0.00496334
0.00425647
0.00349476
0.00268421
0.00182701
0.000922301
0.000113464
0.00898007
0.00897411
0.00896854
0.00896334
0.00895849
0.00895396
0.00894974
0.00894577
0.00894202
0.0089384
0.0089348
0.00893105
0.00892693
0.00892209
0.00891607
0.0089082
0.00889755
0.00888287
0.00886247
0.00883415
0.00879508
0.00874171
0.00866971
0.00857394
0.00844853
0.00828693
0.00808221
0.00782738
0.00751578
0.00714166
0.00670071
0.0061906
0.00561141
0.0049658
0.0042588
0.00349688
0.00268604
0.00182845
0.000923192
0.000113436
0.00897761
0.00897176
0.00896633
0.00896128
0.00895659
0.00895222
0.00894816
0.00894436
0.00894076
0.00893728
0.00893381
0.0089302
0.0089262
0.00892148
0.00891557
0.00890781
0.00889728
0.00888273
0.00886247
0.00883431
0.0087954
0.00874222
0.00867043
0.0085749
0.00844974
0.00828841
0.00808397
0.00782941
0.00751807
0.00714417
0.0067034
0.00619341
0.00561426
0.00496861
0.00426146
0.00349929
0.00268809
0.00183005
0.000924159
0.000113414
0.00897555
0.0089697
0.00896431
0.00895935
0.00895477
0.00895054
0.00894662
0.00894296
0.0089395
0.00893616
0.00893283
0.00892934
0.00892546
0.00892086
0.00891507
0.00890743
0.00889702
0.0088826
0.00886248
0.00883448
0.00879576
0.00874279
0.00867123
0.00857595
0.00845107
0.00829004
0.0080859
0.00783165
0.00752059
0.00714695
0.00670638
0.00619652
0.00561741
0.00497169
0.00426437
0.00350192
0.00269033
0.00183178
0.000925184
0.000113396
0.00897378
0.00896782
0.00896241
0.00895748
0.00895298
0.00894886
0.00894506
0.00894153
0.00893821
0.008935
0.0089318
0.00892844
0.00892468
0.0089202
0.00891453
0.00890702
0.00889674
0.00888245
0.00886249
0.00883466
0.00879613
0.00874338
0.00867207
0.00857707
0.00845248
0.00829177
0.00808797
0.00783404
0.0075233
0.00714993
0.00670958
0.00619985
0.00562079
0.004975
0.00426749
0.00350473
0.00269271
0.0018336
0.000926246
0.000113383
0.0089722
0.00896604
0.00896054
0.0089556
0.00895115
0.00894711
0.00894343
0.00894003
0.00893685
0.00893378
0.00893071
0.00892748
0.00892385
0.0089195
0.00891395
0.00890656
0.00889641
0.00888227
0.00886247
0.00883482
0.00879649
0.00874397
0.00867291
0.0085782
0.00845393
0.00829355
0.0080901
0.00783652
0.0075261
0.00715303
0.0067129
0.00620332
0.0056243
0.00497843
0.00427072
0.00350762
0.00269515
0.00183545
0.00092731
0.000113373
0.00897068
0.00896427
0.00895864
0.00895366
0.00894924
0.00894529
0.00894172
0.00893845
0.0089354
0.00893247
0.00892954
0.00892644
0.00892295
0.00891872
0.00891331
0.00890605
0.00889604
0.00888205
0.0088624
0.00883493
0.00879681
0.00874451
0.00867372
0.0085793
0.00845535
0.00829531
0.00809222
0.00783899
0.00752891
0.00715613
0.00671624
0.00620681
0.00562782
0.00498187
0.00427394
0.00351049
0.00269754
0.00183725
0.000928327
0.000113365
0.00896916
0.00896246
0.00895668
0.00895167
0.00894728
0.0089434
0.00893994
0.0089368
0.00893389
0.00893111
0.00892832
0.00892536
0.008922
0.0089179
0.00891262
0.00890549
0.00889561
0.00888177
0.00886228
0.00883498
0.00879706
0.00874499
0.00867445
0.00858031
0.00845667
0.00829697
0.00809421
0.00784133
0.00753158
0.00715909
0.00671943
0.00621015
0.0056312
0.00498516
0.004277
0.00351319
0.00269976
0.00183888
0.000929226
0.000113357
0.00896763
0.00896067
0.00895476
0.00894971
0.00894536
0.00894157
0.00893822
0.0089352
0.00893243
0.00892978
0.00892712
0.00892429
0.00892106
0.00891709
0.00891192
0.00890492
0.00889517
0.00888145
0.00886211
0.00883498
0.00879723
0.00874536
0.00867505
0.00858117
0.0084578
0.0082984
0.00809596
0.00784339
0.00753394
0.00716172
0.00672228
0.00621313
0.00563421
0.00498809
0.0042797
0.00351554
0.00270163
0.00184018
0.000929889
0.000113344
0.00896623
0.00895908
0.00895309
0.00894803
0.00894372
0.00894
0.00893675
0.00893384
0.00893118
0.00892864
0.0089261
0.00892338
0.00892025
0.00891638
0.00891132
0.00890441
0.00889477
0.00888116
0.00886194
0.00883492
0.00879732
0.00874561
0.00867548
0.00858179
0.00845865
0.00829948
0.00809729
0.00784498
0.00753577
0.00716378
0.00672451
0.00621548
0.00563661
0.00499041
0.00428184
0.00351734
0.00270298
0.00184096
0.000930091
0.000113322
0.00896528
0.00895804
0.00895202
0.00894696
0.00894268
0.00893902
0.00893583
0.00893299
0.0089304
0.00892794
0.00892546
0.00892281
0.00891974
0.00891594
0.00891093
0.00890409
0.0088945
0.00888096
0.0088618
0.00883487
0.00879735
0.00874573
0.0086757
0.00858213
0.00845912
0.00830009
0.00809804
0.00784588
0.00753682
0.00716497
0.00672582
0.00621688
0.00563804
0.00499183
0.00428316
0.00351848
0.00270382
0.0018414
0.000930126
0.00011328
)
;

boundaryField
{
    leftWall
    {
        type            nutkWallFunction;
        Cmu             0.09;
        kappa           0.41;
        E               9.8;
        value           nonuniform 0();
    }
    rightWall
    {
        type            nutkWallFunction;
        Cmu             0.09;
        kappa           0.41;
        E               9.8;
        value           nonuniform List<scalar> 
43
(
7.3567e-06
7.3484e-06
7.33924e-06
7.32936e-06
7.31886e-06
7.30783e-06
7.29631e-06
7.28434e-06
7.27191e-06
7.25899e-06
7.24714e-06
7.2367e-06
7.22664e-06
7.21654e-06
7.20628e-06
7.19583e-06
7.18523e-06
7.17455e-06
7.16383e-06
7.15314e-06
7.14256e-06
7.13214e-06
7.12195e-06
7.11205e-06
7.10249e-06
7.09335e-06
7.08467e-06
7.07651e-06
7.06892e-06
7.06194e-06
7.05562e-06
7.05e-06
7.04509e-06
7.04092e-06
7.03749e-06
7.03476e-06
7.03267e-06
7.03111e-06
7.02985e-06
7.02853e-06
7.02652e-06
7.02302e-06
7.01676e-06
)
;
    }
    lowerWall
    {
        type            nutkWallFunction;
        Cmu             0.09;
        kappa           0.41;
        E               9.8;
        value           nonuniform 0();
    }
    atmosphere
    {
        type            calculated;
        value           nonuniform List<scalar> 
45
(
0.00901816
0.00900497
0.00899314
0.00898263
0.00897352
0.00896528
0.00895804
0.00895202
0.00894696
0.00894268
0.00893902
0.00893583
0.00893299
0.0089304
0.00892794
0.00892546
0.00892281
0.00891974
0.00891594
0.00891093
0.00890409
0.0088945
0.00888096
0.0088618
0.00883487
0.00879735
0.00874573
0.0086757
0.00858213
0.00845912
0.00830009
0.00809804
0.00784588
0.00753682
0.00716497
0.00672582
0.00621688
0.00563804
0.00499183
0.00428316
0.00351848
0.00270382
0.0018414
0.000930126
0.00011328
)
;
    }
    defaultFaces
    {
        type            empty;
    }
    procBoundary3to1
    {
        type            processor;
        value           nonuniform List<scalar> 
45
(
0.00961056
0.00953346
0.00946831
0.00941163
0.00936231
0.00931688
0.00927564
0.00923989
0.0092086
0.00918094
0.00915622
0.0091339
0.00911357
0.00909488
0.00907757
0.0090614
0.00904613
0.00903151
0.0090172
0.00900277
0.00898758
0.0089708
0.00895124
0.00892735
0.00889702
0.00885755
0.00880551
0.00873666
0.00864589
0.00852725
0.00837401
0.00817892
0.00793444
0.00763324
0.0072687
0.00683553
0.00633039
0.00575235
0.0051032
0.00438723
0.00361032
0.002778
0.00189196
0.000951748
0.000115594
)
;
    }
    procBoundary3to2
    {
        type            processor;
        value           nonuniform List<scalar> 
43
(
0.00969692
0.00968996
0.00968179
0.00967244
0.0096618
0.00964961
0.00963556
0.00961933
0.00960063
0.00957921
0.00955499
0.00952799
0.00949838
0.0094665
0.0094328
0.00939785
0.00936229
0.00932679
0.00929198
0.00925845
0.00922668
0.00919706
0.00916984
0.00914514
0.009123
0.00910335
0.00908609
0.00907106
0.00905811
0.0090471
0.00903792
0.00903047
0.00902472
0.00902065
0.00901825
0.00901751
0.00901834
0.00902056
0.00902379
0.00902737
0.00903038
0.00903193
0.00903197
)
;
    }
}


// ************************************************************************* //
