/*--------------------------------*- C++ -*----------------------------------*\
| =========                 |                                                 |
| \\      /  F ield         | OpenFOAM: The Open Source CFD Toolbox           |
|  \\    /   O peration     | Version:  5.0                                   |
|   \\  /    A nd           | Web:      www.OpenFOAM.org                      |
|    \\/     M anipulation  |                                                 |
\*---------------------------------------------------------------------------*/
FoamFile
{
    version     2.0;
    format      ascii;
    class       volScalarField;
    location    "0.15";
    object      p;
}
// * * * * * * * * * * * * * * * * * * * * * * * * * * * * * * * * * * * * * //

dimensions      [1 -1 -2 0 0 0 0];

internalField   nonuniform List<scalar> 
1935
(
-2.10857
-2.19748
-2.28542
-2.37249
-2.4587
-2.54408
-2.6287
-2.71261
-2.7959
-2.87865
-2.96094
-3.04286
-3.12447
-3.20584
-3.28705
-3.36814
-3.44918
-3.53022
-3.61132
-3.69252
-3.7739
-3.85549
-3.93736
-4.01954
-4.10208
-4.18501
-4.26837
-4.35217
-4.43645
-4.52123
-4.60654
-4.6924
-4.77884
-4.86588
-4.95356
-5.04189
-5.13089
-5.22058
-5.31099
-5.40214
-5.4941
-5.58683
-5.68054
-2.09258
-2.0783
-2.06532
-2.0536
-2.18102
-2.16628
-2.15282
-2.14061
-2.26863
-2.25357
-2.23977
-2.22718
-2.3555
-2.34023
-2.32619
-2.31332
-2.44164
-2.42628
-2.41209
-2.39903
-2.52708
-2.51172
-2.49748
-2.48431
-2.61185
-2.59659
-2.58238
-2.56917
-2.69602
-2.68093
-2.66682
-2.65365
-2.77964
-2.7648
-2.75086
-2.73778
-2.86279
-2.84825
-2.83452
-2.82158
-2.94554
-2.93133
-2.91786
-2.90511
-3.02794
-3.01411
-3.00093
-2.98841
-3.11007
-3.09663
-3.08377
-3.0715
-3.19197
-3.17895
-3.16643
-3.15444
-3.27371
-3.26111
-3.24894
-3.23727
-3.35533
-3.34316
-3.33137
-3.32002
-3.43689
-3.42516
-3.41375
-3.40276
-3.51845
-3.50715
-3.49614
-3.48552
-3.60005
-3.58919
-3.5786
-3.56836
-3.68175
-3.67134
-3.66117
-3.65133
-3.76361
-3.75365
-3.74391
-3.73448
-3.84568
-3.83618
-3.82686
-3.81785
-3.92802
-3.91896
-3.91009
-3.90149
-4.01068
-4.00206
-3.99362
-3.98544
-4.09368
-4.08551
-4.0775
-4.06974
-4.17707
-4.16934
-4.16176
-4.15442
-4.26088
-4.25359
-4.24644
-4.23952
-4.34514
-4.33829
-4.33157
-4.32507
-4.42987
-4.42346
-4.41718
-4.4111
-4.51511
-4.50915
-4.50331
-4.49766
-4.60088
-4.59537
-4.58998
-4.58477
-4.68721
-4.68216
-4.67722
-4.67245
-4.77413
-4.76955
-4.76507
-4.76074
-4.86166
-4.85755
-4.85353
-4.84965
-4.94983
-4.9462
-4.94264
-4.93919
-5.03866
-5.0355
-5.03239
-5.02939
-5.12815
-5.12546
-5.12282
-5.12025
-5.21834
-5.21612
-5.21393
-5.2118
-5.30923
-5.30749
-5.30575
-5.30405
-5.40088
-5.3996
-5.39831
-5.39705
-5.49333
-5.49251
-5.49168
-5.49084
-5.5866
-5.58629
-5.58592
-5.58553
-5.68091
-5.68115
-5.68129
-5.68137
-2.04256
-2.03239
-2.02349
-2.01575
-2.00907
-2.00333
-1.99842
-1.99425
-1.99074
-1.98781
-1.9854
-1.98345
-1.9819
-1.9807
-1.97979
-1.97912
-1.97865
-1.97833
-1.97812
-1.978
-1.97794
-1.97794
-1.97799
-1.97807
-1.97818
-1.97832
-1.97848
-1.97864
-1.9788
-1.97894
-1.97904
-1.9791
-1.9791
-1.97903
-1.97888
-1.97866
-1.97834
-1.97793
-1.97744
-1.9769
-2.12902
-2.11824
-2.10872
-2.10034
-2.093
-2.08661
-2.08106
-2.07627
-2.07216
-2.06865
-2.06569
-2.06321
-2.06116
-2.05947
-2.0581
-2.057
-2.05611
-2.0554
-2.05483
-2.05438
-2.05402
-2.05373
-2.05352
-2.05336
-2.05326
-2.0532
-2.05317
-2.05316
-2.05317
-2.05318
-2.05316
-2.05312
-2.05304
-2.05291
-2.05273
-2.05248
-2.05217
-2.05178
-2.05132
-2.05083
-2.21516
-2.20388
-2.19382
-2.18488
-2.17697
-2.16999
-2.16387
-2.15852
-2.15386
-2.14983
-2.14637
-2.1434
-2.14088
-2.13874
-2.13694
-2.13542
-2.13414
-2.13306
-2.13215
-2.13138
-2.13073
-2.13018
-2.12972
-2.12934
-2.12902
-2.12877
-2.12856
-2.1284
-2.12825
-2.12813
-2.128
-2.12786
-2.1277
-2.12752
-2.12729
-2.12702
-2.12671
-2.12634
-2.12592
-2.12548
-2.30096
-2.28928
-2.27877
-2.26935
-2.26093
-2.25344
-2.24681
-2.24096
-2.23582
-2.23132
-2.2274
-2.22399
-2.22103
-2.21848
-2.21627
-2.21437
-2.21272
-2.2113
-2.21007
-2.209
-2.20807
-2.20727
-2.20657
-2.20597
-2.20546
-2.20502
-2.20464
-2.20431
-2.20403
-2.20377
-2.20353
-2.2033
-2.20307
-2.20282
-2.20256
-2.20227
-2.20196
-2.20161
-2.20123
-2.20084
-2.38642
-2.37442
-2.36355
-2.35372
-2.34487
-2.33695
-2.32987
-2.32358
-2.31801
-2.31309
-2.30875
-2.30494
-2.3016
-2.29866
-2.29608
-2.29382
-2.29184
-2.29009
-2.28856
-2.28721
-2.28603
-2.28498
-2.28406
-2.28325
-2.28255
-2.28193
-2.28138
-2.2809
-2.28048
-2.2801
-2.27976
-2.27943
-2.27913
-2.27883
-2.27853
-2.27822
-2.27791
-2.27758
-2.27724
-2.2769
-2.47153
-2.45929
-2.44813
-2.43798
-2.42878
-2.42049
-2.41304
-2.40637
-2.40042
-2.39513
-2.39042
-2.38625
-2.38255
-2.37926
-2.37635
-2.37377
-2.37147
-2.36943
-2.36762
-2.36601
-2.36458
-2.36331
-2.36218
-2.36117
-2.36028
-2.35949
-2.35879
-2.35816
-2.35761
-2.35711
-2.35666
-2.35625
-2.35588
-2.35552
-2.35519
-2.35487
-2.35456
-2.35425
-2.35395
-2.35366
-2.55629
-2.54389
-2.53252
-2.52212
-2.51265
-2.50406
-2.49629
-2.48931
-2.48304
-2.47742
-2.47239
-2.4679
-2.46388
-2.46028
-2.45707
-2.45419
-2.45161
-2.4493
-2.44723
-2.44539
-2.44373
-2.44224
-2.44091
-2.43972
-2.43865
-2.4377
-2.43684
-2.43608
-2.4354
-2.43479
-2.43424
-2.43375
-2.43331
-2.43291
-2.43254
-2.43221
-2.4319
-2.43162
-2.43135
-2.43111
-2.64075
-2.62825
-2.61674
-2.60616
-2.59648
-2.58765
-2.57964
-2.57239
-2.56585
-2.55996
-2.55465
-2.54988
-2.54558
-2.5417
-2.53821
-2.53507
-2.53224
-2.52968
-2.52739
-2.52531
-2.52345
-2.52176
-2.52025
-2.51888
-2.51765
-2.51654
-2.51554
-2.51464
-2.51384
-2.51313
-2.51249
-2.51193
-2.51142
-2.51098
-2.51058
-2.51024
-2.50993
-2.50967
-2.50944
-2.50925
-2.7249
-2.71239
-2.7008
-2.69011
-2.68027
-2.67128
-2.66307
-2.65562
-2.64886
-2.64274
-2.6372
-2.63218
-2.62763
-2.62352
-2.61979
-2.61641
-2.61335
-2.61057
-2.60806
-2.60579
-2.60373
-2.60187
-2.60018
-2.59865
-2.59726
-2.596
-2.59487
-2.59385
-2.59294
-2.59213
-2.59141
-2.59077
-2.59021
-2.58972
-2.5893
-2.58895
-2.58865
-2.5884
-2.58821
-2.58807
-2.8088
-2.79632
-2.78472
-2.77397
-2.76405
-2.75494
-2.7466
-2.73899
-2.73206
-2.72575
-2.72001
-2.71479
-2.71004
-2.70571
-2.70177
-2.69819
-2.69493
-2.69196
-2.68926
-2.68681
-2.68457
-2.68254
-2.68069
-2.67901
-2.67748
-2.67609
-2.67483
-2.6737
-2.67269
-2.67178
-2.67098
-2.67028
-2.66967
-2.66914
-2.6687
-2.66833
-2.66804
-2.66782
-2.66767
-2.66755
-2.89247
-2.88007
-2.86852
-2.85777
-2.84782
-2.83865
-2.83022
-2.82251
-2.81545
-2.809
-2.8031
-2.79771
-2.79279
-2.78828
-2.78417
-2.7804
-2.77697
-2.77383
-2.77097
-2.76835
-2.76596
-2.76378
-2.76178
-2.75996
-2.7583
-2.75679
-2.75542
-2.75418
-2.75307
-2.75208
-2.75121
-2.75045
-2.74979
-2.74923
-2.74877
-2.74839
-2.74811
-2.74791
-2.74779
-2.74771
-2.97594
-2.96368
-2.95222
-2.94152
-2.93159
-2.92242
-2.91396
-2.90618
-2.89903
-2.89248
-2.88646
-2.88094
-2.87588
-2.87123
-2.86696
-2.86305
-2.85947
-2.85618
-2.85317
-2.85041
-2.84789
-2.84557
-2.84344
-2.8415
-2.83972
-2.83809
-2.83662
-2.83529
-2.83409
-2.83302
-2.83209
-2.83127
-2.83057
-2.82998
-2.8295
-2.82912
-2.82885
-2.82867
-2.82858
-2.82854
-3.05925
-3.04718
-3.03585
-3.02526
-3.0154
-3.00626
-2.99781
-2.99001
-2.98282
-2.97619
-2.97009
-2.96448
-2.9593
-2.95454
-2.95016
-2.94612
-2.94242
-2.93901
-2.93587
-2.93299
-2.93034
-2.92791
-2.92567
-2.92361
-2.92172
-2.92
-2.91843
-2.91701
-2.91574
-2.91461
-2.91361
-2.91275
-2.91201
-2.9114
-2.9109
-2.91052
-2.91025
-2.91009
-2.91004
-2.91004
-3.14245
-3.1306
-3.11945
-3.10901
-3.09926
-3.09019
-3.08179
-3.074
-3.06681
-3.06015
-3.054
-3.04832
-3.04307
-3.03822
-3.03374
-3.02962
-3.02581
-3.0223
-3.01907
-3.01608
-3.01333
-3.01079
-3.00845
-3.0063
-3.00432
-3.0025
-3.00085
-2.99936
-2.99802
-2.99683
-2.99578
-2.99487
-2.9941
-2.99347
-2.99296
-2.99258
-2.99232
-2.99218
-2.99217
-2.9922
-3.22556
-3.21397
-3.20305
-3.19279
-3.18319
-3.17424
-3.16591
-3.15818
-3.15101
-3.14435
-3.13819
-3.13247
-3.12717
-3.12227
-3.11773
-3.11353
-3.10965
-3.10606
-3.10275
-3.09968
-3.09684
-3.09422
-3.09179
-3.08955
-3.08749
-3.0856
-3.08388
-3.08232
-3.08092
-3.07968
-3.07859
-3.07765
-3.07685
-3.0762
-3.07569
-3.07531
-3.07506
-3.07494
-3.07495
-3.07503
-3.30863
-3.29733
-3.28667
-3.27663
-3.26722
-3.25842
-3.25021
-3.24256
-3.23544
-3.22882
-3.22266
-3.21694
-3.21162
-3.20669
-3.20211
-3.19787
-3.19394
-3.19029
-3.18691
-3.18378
-3.18087
-3.17818
-3.17568
-3.17337
-3.17125
-3.16929
-3.16751
-3.1659
-3.16445
-3.16316
-3.16204
-3.16107
-3.16026
-3.15959
-3.15907
-3.1587
-3.15846
-3.15836
-3.1584
-3.15851
-3.39171
-3.38073
-3.37036
-3.36057
-3.35137
-3.34275
-3.33468
-3.32714
-3.32011
-3.31354
-3.30743
-3.30173
-3.29642
-3.29149
-3.2869
-3.28264
-3.27868
-3.27499
-3.27157
-3.26839
-3.26543
-3.26268
-3.26013
-3.25776
-3.25558
-3.25358
-3.25175
-3.25009
-3.2486
-3.24728
-3.24613
-3.24514
-3.24431
-3.24364
-3.24312
-3.24275
-3.24252
-3.24244
-3.2425
-3.24265
-3.47483
-3.46421
-3.45415
-3.44463
-3.43567
-3.42725
-3.41935
-3.41195
-3.40503
-3.39856
-3.39251
-3.38686
-3.38159
-3.37668
-3.3721
-3.36784
-3.36387
-3.36017
-3.35672
-3.3535
-3.35051
-3.34772
-3.34513
-3.34272
-3.3405
-3.33845
-3.33659
-3.3349
-3.33338
-3.33204
-3.33086
-3.32986
-3.32902
-3.32834
-3.32782
-3.32746
-3.32724
-3.32718
-3.32727
-3.32744
-3.55806
-3.5478
-3.53807
-3.52886
-3.52016
-3.51196
-3.50425
-3.49702
-3.49023
-3.48387
-3.47791
-3.47234
-3.46713
-3.46226
-3.45772
-3.45348
-3.44952
-3.44582
-3.44236
-3.43913
-3.43612
-3.4333
-3.43068
-3.42825
-3.426
-3.42393
-3.42203
-3.42032
-3.41878
-3.41742
-3.41624
-3.41522
-3.41438
-3.4137
-3.41318
-3.41283
-3.41263
-3.41259
-3.4127
-3.4129
-3.64142
-3.63155
-3.62217
-3.61327
-3.60485
-3.5969
-3.58941
-3.58235
-3.57573
-3.5695
-3.56366
-3.55819
-3.55306
-3.54826
-3.54377
-3.53957
-3.53563
-3.53195
-3.5285
-3.52527
-3.52225
-3.51943
-3.5168
-3.51435
-3.51208
-3.51
-3.50809
-3.50636
-3.50482
-3.50345
-3.50226
-3.50124
-3.50039
-3.49972
-3.49921
-3.49887
-3.49868
-3.49865
-3.49879
-3.49901
-3.72497
-3.7155
-3.70648
-3.69791
-3.68978
-3.6821
-3.67484
-3.66799
-3.66154
-3.65547
-3.64977
-3.64442
-3.6394
-3.63468
-3.63026
-3.62612
-3.62223
-3.61858
-3.61515
-3.61194
-3.60893
-3.60611
-3.60348
-3.60103
-3.59876
-3.59667
-3.59476
-3.59303
-3.59148
-3.59011
-3.58892
-3.58791
-3.58707
-3.5864
-3.5859
-3.58557
-3.5854
-3.58539
-3.58554
-3.58579
-3.80876
-3.79969
-3.79105
-3.78281
-3.77499
-3.76758
-3.76057
-3.75395
-3.7477
-3.74181
-3.73627
-3.73106
-3.72615
-3.72155
-3.71721
-3.71314
-3.70931
-3.70571
-3.70232
-3.69914
-3.69615
-3.69335
-3.69073
-3.68829
-3.68603
-3.68395
-3.68205
-3.68033
-3.67879
-3.67743
-3.67624
-3.67524
-3.67441
-3.67375
-3.67327
-3.67294
-3.67278
-3.67279
-3.67296
-3.67323
-3.89281
-3.88416
-3.87589
-3.86801
-3.86051
-3.85339
-3.84664
-3.84026
-3.83423
-3.82854
-3.82317
-3.81812
-3.81335
-3.80886
-3.80463
-3.80065
-3.79689
-3.79335
-3.79002
-3.78688
-3.78393
-3.78116
-3.77857
-3.77615
-3.77391
-3.77185
-3.76997
-3.76826
-3.76674
-3.76539
-3.76422
-3.76323
-3.76242
-3.76177
-3.7613
-3.76099
-3.76085
-3.76087
-3.76105
-3.76134
-3.97718
-3.96894
-3.96106
-3.95353
-3.94636
-3.93955
-3.93308
-3.92696
-3.92116
-3.91568
-3.91051
-3.90562
-3.90101
-3.89665
-3.89254
-3.88866
-3.88499
-3.88153
-3.87826
-3.87517
-3.87227
-3.86954
-3.86699
-3.86461
-3.8624
-3.86037
-3.85851
-3.85683
-3.85533
-3.85401
-3.85286
-3.85189
-3.8511
-3.85047
-3.85001
-3.84972
-3.84959
-3.84963
-3.84982
-3.85013
-4.0619
-4.05407
-4.04659
-4.03943
-4.0326
-4.0261
-4.01993
-4.01407
-4.00852
-4.00326
-3.99829
-3.99359
-3.98914
-3.98493
-3.98095
-3.97718
-3.97361
-3.97023
-3.96704
-3.96403
-3.96118
-3.95851
-3.95601
-3.95368
-3.95151
-3.94952
-3.9477
-3.94606
-3.94459
-3.94329
-3.94218
-3.94123
-3.94046
-3.93985
-3.93941
-3.93914
-3.93902
-3.93907
-3.93928
-3.93959
-4.147
-4.1396
-4.13251
-4.12572
-4.11924
-4.11307
-4.1072
-4.10162
-4.09633
-4.09131
-4.08656
-4.08205
-4.07777
-4.07372
-4.06988
-4.06623
-4.06277
-4.05949
-4.05639
-4.05345
-4.05068
-4.04808
-4.04564
-4.04336
-4.04126
-4.03931
-4.03754
-4.03594
-4.03451
-4.03325
-4.03217
-4.03125
-4.0305
-4.02992
-4.0295
-4.02924
-4.02914
-4.0292
-4.02942
-4.02974
-4.23253
-4.22554
-4.21886
-4.21245
-4.20633
-4.2005
-4.19494
-4.18965
-4.18463
-4.17985
-4.17532
-4.17101
-4.16692
-4.16304
-4.15934
-4.15583
-4.15249
-4.14932
-4.14632
-4.14347
-4.14079
-4.13826
-4.13589
-4.13369
-4.13164
-4.12976
-4.12804
-4.12649
-4.12511
-4.1239
-4.12285
-4.12197
-4.12125
-4.12069
-4.12029
-4.12005
-4.11996
-4.12003
-4.12026
-4.12059
-4.31851
-4.31195
-4.30567
-4.29966
-4.2939
-4.28841
-4.28317
-4.27818
-4.27343
-4.26891
-4.26461
-4.26051
-4.25661
-4.25289
-4.24935
-4.24598
-4.24278
-4.23973
-4.23683
-4.23409
-4.2315
-4.22907
-4.22678
-4.22466
-4.22268
-4.22087
-4.21922
-4.21773
-4.2164
-4.21523
-4.21423
-4.21338
-4.2127
-4.21217
-4.21179
-4.21156
-4.21149
-4.21157
-4.2118
-4.21213
-4.40498
-4.39886
-4.39299
-4.38737
-4.38198
-4.37684
-4.37192
-4.36724
-4.36276
-4.3585
-4.35443
-4.35055
-4.34684
-4.34331
-4.33994
-4.33672
-4.33365
-4.33073
-4.32796
-4.32533
-4.32285
-4.32051
-4.31832
-4.31628
-4.3144
-4.31266
-4.31108
-4.30966
-4.30839
-4.30727
-4.30631
-4.30551
-4.30486
-4.30436
-4.304
-4.30379
-4.30373
-4.30382
-4.30405
-4.30439
-4.49197
-4.48629
-4.48084
-4.47561
-4.4706
-4.46581
-4.46122
-4.45684
-4.45265
-4.44864
-4.44482
-4.44115
-4.43765
-4.4343
-4.4311
-4.42804
-4.42513
-4.42235
-4.41971
-4.4172
-4.41484
-4.41261
-4.41053
-4.40859
-4.40679
-4.40514
-4.40364
-4.40229
-4.40108
-4.40003
-4.39912
-4.39836
-4.39775
-4.39727
-4.39694
-4.39675
-4.3967
-4.39679
-4.39703
-4.39736
-4.57952
-4.57428
-4.56925
-4.56442
-4.55978
-4.55534
-4.55109
-4.54701
-4.54311
-4.53936
-4.53578
-4.53234
-4.52905
-4.52589
-4.52287
-4.51998
-4.51723
-4.5146
-4.5121
-4.50973
-4.50749
-4.50539
-4.50342
-4.50159
-4.49989
-4.49833
-4.49692
-4.49564
-4.49451
-4.49351
-4.49266
-4.49195
-4.49137
-4.49093
-4.49062
-4.49045
-4.49041
-4.49051
-4.49074
-4.49107
-4.66765
-4.66285
-4.65824
-4.65381
-4.64955
-4.64546
-4.64154
-4.63777
-4.63415
-4.63067
-4.62733
-4.62412
-4.62105
-4.61809
-4.61526
-4.61256
-4.60997
-4.6075
-4.60515
-4.60293
-4.60083
-4.59886
-4.59701
-4.59529
-4.5937
-4.59225
-4.59092
-4.58973
-4.58867
-4.58774
-4.58694
-4.58628
-4.58574
-4.58533
-4.58505
-4.5849
-4.58487
-4.58497
-4.5852
-4.58552
-4.75638
-4.75202
-4.74784
-4.7438
-4.73992
-4.73618
-4.73259
-4.72912
-4.72579
-4.72258
-4.7195
-4.71653
-4.71367
-4.71093
-4.7083
-4.70578
-4.70337
-4.70107
-4.69889
-4.69682
-4.69487
-4.69303
-4.69132
-4.68972
-4.68825
-4.6869
-4.68567
-4.68456
-4.68358
-4.68272
-4.68199
-4.68137
-4.68088
-4.6805
-4.68025
-4.68011
-4.68008
-4.68019
-4.68041
-4.68072
-4.84573
-4.84182
-4.83805
-4.83441
-4.8309
-4.82751
-4.82425
-4.8211
-4.81806
-4.81512
-4.81229
-4.80957
-4.80694
-4.80442
-4.80199
-4.79967
-4.79745
-4.79534
-4.79333
-4.79142
-4.78963
-4.78794
-4.78636
-4.78489
-4.78354
-4.7823
-4.78117
-4.78016
-4.77926
-4.77847
-4.7778
-4.77724
-4.77679
-4.77645
-4.77621
-4.77609
-4.77608
-4.77618
-4.7764
-4.77669
-4.93572
-4.93224
-4.92889
-4.92565
-4.92251
-4.91947
-4.91654
-4.9137
-4.91095
-4.9083
-4.90574
-4.90326
-4.90088
-4.89858
-4.89638
-4.89426
-4.89224
-4.89032
-4.88849
-4.88676
-4.88512
-4.88359
-4.88216
-4.88083
-4.8796
-4.87848
-4.87746
-4.87654
-4.87572
-4.87501
-4.8744
-4.87389
-4.87349
-4.87318
-4.87297
-4.87286
-4.87286
-4.87296
-4.87316
-4.87345
-5.02636
-5.02331
-5.02037
-5.01752
-5.01476
-5.01207
-5.00947
-5.00695
-5.00451
-5.00214
-4.99985
-4.99763
-4.9955
-4.99344
-4.99147
-4.98957
-4.98776
-4.98604
-4.9844
-4.98285
-4.98139
-4.98001
-4.97873
-4.97754
-4.97645
-4.97544
-4.97453
-4.97371
-4.97299
-4.97235
-4.97181
-4.97135
-4.97099
-4.97072
-4.97053
-4.97044
-4.97044
-4.97054
-4.97073
-4.971
-5.11765
-5.11505
-5.11252
-5.11006
-5.10766
-5.10534
-5.10307
-5.10087
-5.09874
-5.09666
-5.09465
-5.09271
-5.09083
-5.08903
-5.08729
-5.08562
-5.08403
-5.08251
-5.08107
-5.07971
-5.07843
-5.07722
-5.0761
-5.07506
-5.0741
-5.07322
-5.07242
-5.0717
-5.07107
-5.07051
-5.07003
-5.06963
-5.06931
-5.06908
-5.06892
-5.06884
-5.06884
-5.06894
-5.06912
-5.06937
-5.20963
-5.20746
-5.20534
-5.20327
-5.20125
-5.19928
-5.19736
-5.19549
-5.19367
-5.1919
-5.19018
-5.18852
-5.18691
-5.18536
-5.18387
-5.18244
-5.18108
-5.17978
-5.17854
-5.17738
-5.17628
-5.17525
-5.17429
-5.17339
-5.17257
-5.17182
-5.17114
-5.17052
-5.16998
-5.1695
-5.16909
-5.16875
-5.16848
-5.16827
-5.16813
-5.16807
-5.16807
-5.16816
-5.16833
-5.16856
-5.30232
-5.30058
-5.29887
-5.29719
-5.29555
-5.29394
-5.29237
-5.29084
-5.28934
-5.28788
-5.28646
-5.28508
-5.28375
-5.28247
-5.28124
-5.28005
-5.27892
-5.27785
-5.27683
-5.27586
-5.27495
-5.2741
-5.27331
-5.27257
-5.27189
-5.27127
-5.2707
-5.27019
-5.26974
-5.26935
-5.269
-5.26872
-5.26849
-5.26832
-5.2682
-5.26814
-5.26815
-5.26823
-5.26838
-5.26859
-5.39575
-5.39443
-5.39314
-5.39186
-5.39059
-5.38935
-5.38813
-5.38694
-5.38577
-5.38463
-5.38352
-5.38244
-5.3814
-5.38039
-5.37942
-5.37849
-5.3776
-5.37675
-5.37595
-5.37519
-5.37447
-5.3738
-5.37318
-5.3726
-5.37206
-5.37157
-5.37113
-5.37073
-5.37037
-5.37005
-5.36978
-5.36955
-5.36937
-5.36923
-5.36913
-5.36909
-5.36909
-5.36916
-5.3693
-5.36948
-5.48997
-5.48908
-5.48819
-5.48731
-5.48642
-5.48555
-5.48469
-5.48384
-5.48301
-5.48219
-5.4814
-5.48062
-5.47987
-5.47914
-5.47844
-5.47777
-5.47713
-5.47651
-5.47593
-5.47538
-5.47486
-5.47438
-5.47392
-5.4735
-5.47311
-5.47276
-5.47243
-5.47214
-5.47188
-5.47165
-5.47144
-5.47127
-5.47113
-5.47102
-5.47094
-5.4709
-5.4709
-5.47096
-5.47107
-5.47123
-5.58511
-5.58465
-5.58418
-5.5837
-5.58321
-5.58271
-5.58221
-5.58171
-5.58122
-5.58073
-5.58025
-5.57978
-5.57933
-5.57888
-5.57846
-5.57804
-5.57765
-5.57727
-5.57691
-5.57657
-5.57624
-5.57594
-5.57565
-5.57539
-5.57514
-5.57492
-5.57471
-5.57452
-5.57435
-5.57419
-5.57406
-5.57394
-5.57383
-5.57375
-5.57368
-5.57363
-5.57361
-5.57363
-5.57372
-5.57384
-5.68139
-5.68137
-5.68131
-5.68123
-5.68112
-5.68099
-5.68085
-5.6807
-5.68054
-5.68037
-5.6802
-5.68003
-5.67986
-5.67969
-5.67953
-5.67937
-5.67921
-5.67905
-5.6789
-5.67876
-5.67862
-5.67849
-5.67837
-5.67825
-5.67814
-5.67803
-5.67793
-5.67784
-5.67776
-5.67768
-5.67761
-5.67755
-5.67749
-5.67744
-5.67739
-5.67734
-5.6773
-5.67728
-5.6773
-5.67736
)
;

boundaryField
{
    leftWall
    {
        type            calculated;
        value           nonuniform 0();
    }
    rightWall
    {
        type            calculated;
        value           nonuniform List<scalar> 
43
(
-1.9769
-2.05083
-2.12548
-2.20084
-2.2769
-2.35366
-2.43111
-2.50925
-2.58807
-2.66755
-2.74771
-2.82854
-2.91004
-2.9922
-3.07503
-3.15851
-3.24265
-3.32744
-3.4129
-3.49901
-3.58579
-3.67323
-3.76134
-3.85013
-3.93959
-4.02974
-4.12059
-4.21213
-4.30439
-4.39736
-4.49107
-4.58552
-4.68072
-4.77669
-4.87345
-4.971
-5.06937
-5.16856
-5.26859
-5.36948
-5.47123
-5.57384
-5.67736
)
;
    }
    lowerWall
    {
        type            calculated;
        value           nonuniform 0();
    }
    atmosphere
    {
        type            calculated;
        value           nonuniform List<scalar> 
45
(
-5.72904
-5.72904
-5.72904
-5.72904
-5.72904
-5.72904
-5.72904
-5.72904
-5.72904
-5.72904
-5.72904
-5.72904
-5.72904
-5.72904
-5.72904
-5.72904
-5.72904
-5.72904
-5.72904
-5.72904
-5.72904
-5.72904
-5.72904
-5.72904
-5.72904
-5.72904
-5.72904
-5.72904
-5.72904
-5.72904
-5.72904
-5.72904
-5.72904
-5.72904
-5.72904
-5.72904
-5.72904
-5.72904
-5.72904
-5.72904
-5.72904
-5.72904
-5.72904
-5.72904
-5.72904
)
;
    }
    defaultFaces
    {
        type            empty;
    }
    procBoundary3to1
    {
        type            processor;
        value           nonuniform List<scalar> 
45
(
-2.01862
-2.00326
-1.98961
-1.97726
-1.96619
-1.95582
-1.94636
-1.93819
-1.93118
-1.92522
-1.9202
-1.916
-1.91251
-1.90965
-1.90734
-1.90553
-1.90414
-1.90313
-1.90245
-1.90202
-1.90182
-1.90177
-1.90185
-1.90202
-1.90225
-1.90252
-1.90282
-1.90314
-1.90347
-1.90382
-1.90417
-1.90451
-1.90485
-1.90516
-1.90543
-1.90565
-1.90581
-1.90589
-1.90587
-1.90576
-1.90556
-1.90524
-1.90481
-1.90427
-1.90369
)
;
    }
    procBoundary3to2
    {
        type            processor;
        value           nonuniform List<scalar> 
43
(
-2.12645
-2.21586
-2.30416
-2.39143
-2.47769
-2.56299
-2.64738
-2.73096
-2.8138
-2.89602
-2.97772
-3.05899
-3.13993
-3.22062
-3.30114
-3.38156
-3.46196
-3.54238
-3.6229
-3.70355
-3.7844
-3.86548
-3.94685
-4.02855
-4.11062
-4.19309
-4.27598
-4.35933
-4.44315
-4.52746
-4.6123
-4.69769
-4.78364
-4.8702
-4.95737
-5.04519
-5.13367
-5.22285
-5.31274
-5.40337
-5.49481
-5.58696
-5.67997
)
;
    }
}


// ************************************************************************* //
