/*--------------------------------*- C++ -*----------------------------------*\
| =========                 |                                                 |
| \\      /  F ield         | OpenFOAM: The Open Source CFD Toolbox           |
|  \\    /   O peration     | Version:  5.0                                   |
|   \\  /    A nd           | Web:      www.OpenFOAM.org                      |
|    \\/     M anipulation  |                                                 |
\*---------------------------------------------------------------------------*/
FoamFile
{
    version     2.0;
    format      ascii;
    class       surfaceScalarField;
    location    "0.15";
    object      phi;
}
// * * * * * * * * * * * * * * * * * * * * * * * * * * * * * * * * * * * * * //

dimensions      [0 3 -1 0 0 0 0];

internalField   nonuniform List<scalar> 
3782
(
3.48882e-05
-2.98823e-06
3.40075e-05
-4.36943e-06
3.30638e-05
-5.72253e-06
3.20583e-05
-7.03889e-06
3.0994e-05
-8.30939e-06
2.98751e-05
-9.52453e-06
2.87073e-05
-1.06748e-05
2.74975e-05
-1.17511e-05
2.6254e-05
-1.27447e-05
2.49856e-05
-1.3648e-05
2.37021e-05
-1.44546e-05
2.24133e-05
-1.51593e-05
2.11293e-05
-1.57589e-05
1.98595e-05
-1.62515e-05
1.8613e-05
-1.6637e-05
1.73977e-05
-1.69169e-05
1.62207e-05
-1.7094e-05
1.50877e-05
-1.71722e-05
1.40035e-05
-1.71565e-05
1.29715e-05
-1.70522e-05
1.19941e-05
-1.68654e-05
1.10725e-05
-1.66021e-05
1.02074e-05
-1.62682e-05
9.39844e-06
-1.58697e-05
8.64486e-06
-1.5412e-05
7.94538e-06
-1.49003e-05
7.29837e-06
-1.43391e-05
6.70198e-06
-1.37326e-05
6.15422e-06
-1.30843e-05
5.65303e-06
-1.23975e-05
5.19635e-06
-1.16746e-05
4.78222e-06
-1.09179e-05
4.40879e-06
-1.01294e-05
4.07439e-06
-9.31087e-06
3.77767e-06
-8.4648e-06
3.51767e-06
-7.5946e-06
3.29406e-06
-6.70599e-06
3.10748e-06
-5.80867e-06
2.95993e-06
-4.9191e-06
2.85507e-06
-4.06449e-06
2.79784e-06
-3.28828e-06
2.79146e-06
-2.65632e-06
-2.27106e-06
-2.27367e-06
3.18833e-05
-1.61407e-06
3.08825e-05
-1.00747e-06
2.99506e-05
2.90875e-05
-4.5119e-07
-3.59908e-06
3.11129e-05
-2.88694e-06
3.01704e-05
-2.23037e-06
2.92941e-05
2.84833e-05
-1.62618e-06
-4.89678e-06
3.02871e-05
-4.13266e-06
2.94062e-05
-3.42682e-06
2.85882e-05
2.78321e-05
-2.77556e-06
-6.15912e-06
2.94074e-05
-5.34442e-06
2.85915e-05
-4.59076e-06
2.78346e-05
2.71353e-05
-3.89395e-06
-7.37811e-06
2.84761e-05
-6.51518e-06
2.77286e-05
-5.71596e-06
2.70354e-05
2.63951e-05
-4.97576e-06
-8.5454e-06
2.74969e-05
-7.63756e-06
2.68207e-05
-6.79584e-06
2.61936e-05
2.56143e-05
-6.01511e-06
-9.6526e-06
2.64747e-05
-8.70412e-06
2.58722e-05
-7.82377e-06
2.53133e-05
2.47966e-05
-7.00608e-06
-1.06915e-05
2.54151e-05
-9.7076e-06
2.48883e-05
-8.79327e-06
2.43989e-05
2.39462e-05
-7.94283e-06
-1.16546e-05
2.4325e-05
-1.06411e-05
2.38748e-05
-9.69813e-06
2.3456e-05
2.30678e-05
-8.81977e-06
-1.25348e-05
2.32117e-05
-1.14984e-05
2.28385e-05
-1.05327e-05
2.24902e-05
2.21669e-05
-9.63171e-06
-1.33262e-05
2.20834e-05
-1.2274e-05
2.17863e-05
-1.12919e-05
2.15081e-05
2.1249e-05
-1.0374e-05
-1.40242e-05
2.09482e-05
-1.29636e-05
2.07258e-05
-1.19717e-05
2.05162e-05
2.03201e-05
-1.10428e-05
-1.46252e-05
1.98145e-05
-1.35637e-05
1.96642e-05
-1.25687e-05
1.95212e-05
1.93864e-05
-1.16349e-05
-1.51274e-05
1.86904e-05
-1.40722e-05
1.8609e-05
-1.30808e-05
1.85297e-05
1.84537e-05
-1.21481e-05
-1.55302e-05
1.75836e-05
-1.44883e-05
1.75671e-05
-1.35067e-05
1.75481e-05
1.7528e-05
-1.2581e-05
-1.58344e-05
1.65011e-05
-1.48122e-05
1.65449e-05
-1.38464e-05
1.65824e-05
1.66148e-05
-1.29332e-05
-1.60419e-05
1.54489e-05
-1.50452e-05
1.55483e-05
-1.41007e-05
1.56378e-05
1.57191e-05
-1.3205e-05
-1.61558e-05
1.44325e-05
-1.51897e-05
1.45822e-05
-1.42712e-05
1.47193e-05
1.48454e-05
-1.33976e-05
-1.61801e-05
1.34561e-05
-1.52488e-05
1.36509e-05
-1.43605e-05
1.3831e-05
1.39979e-05
-1.3513e-05
-1.61192e-05
1.25231e-05
-1.52262e-05
1.27578e-05
-1.43715e-05
1.29763e-05
1.31799e-05
-1.35535e-05
-1.59783e-05
1.1636e-05
-1.51261e-05
1.19057e-05
-1.43078e-05
1.2158e-05
1.23941e-05
-1.3522e-05
-1.57625e-05
1.07964e-05
-1.4953e-05
1.10962e-05
-1.41731e-05
1.13781e-05
1.16429e-05
-1.34219e-05
-1.5477e-05
1.00051e-05
-1.47115e-05
1.03308e-05
-1.39715e-05
1.06381e-05
1.09278e-05
-1.32564e-05
-1.51271e-05
9.26257e-06
-1.44062e-05
9.60989e-06
-1.3707e-05
9.93883e-06
1.025e-05
-1.30292e-05
-1.47178e-05
8.56833e-06
-1.40416e-05
8.93367e-06
-1.33836e-05
9.28084e-06
9.6103e-06
-1.27438e-05
-1.42536e-05
7.9217e-06
-1.36218e-05
8.3018e-06
-1.3005e-05
8.66411e-06
9.00893e-06
-1.24037e-05
-1.3739e-05
7.32164e-06
-1.31508e-05
7.71363e-06
-1.25751e-05
8.08835e-06
8.44594e-06
-1.20121e-05
-1.31778e-05
6.76684e-06
-1.26324e-05
7.16826e-06
-1.20971e-05
7.55301e-06
7.92108e-06
-1.15722e-05
-1.25733e-05
6.25584e-06
-1.20697e-05
6.66462e-06
-1.1574e-05
7.05736e-06
7.4339e-06
-1.10869e-05
-1.19288e-05
5.78711e-06
-1.14657e-05
6.20152e-06
-1.10088e-05
6.60052e-06
6.98384e-06
-1.05588e-05
-1.12466e-05
5.35909e-06
-1.08228e-05
5.77774e-06
-1.04039e-05
6.18159e-06
6.57027e-06
-9.99027e-06
-1.05291e-05
4.97025e-06
-1.01434e-05
5.39206e-06
-9.76143e-06
5.79964e-06
6.1925e-06
-9.38366e-06
-9.77827e-06
4.61916e-06
-9.42956e-06
5.04335e-06
-9.08371e-06
5.4538e-06
5.84991e-06
-8.74113e-06
-8.99628e-06
4.30457e-06
-8.68355e-06
4.73062e-06
-8.37305e-06
5.1433e-06
5.54195e-06
-8.06509e-06
-8.18569e-06
4.02545e-06
-7.90814e-06
4.45308e-06
-7.6324e-06
4.86756e-06
5.26819e-06
-7.35864e-06
-7.3503e-06
3.78113e-06
-7.10743e-06
4.21021e-06
-6.86607e-06
4.6262e-06
5.02835e-06
-6.62622e-06
-6.4963e-06
3.57144e-06
-6.28799e-06
4.00189e-06
-6.08087e-06
4.41909e-06
4.82229e-06
-5.87481e-06
-5.63408e-06
3.39685e-06
-5.46062e-06
3.82843e-06
-5.28787e-06
4.24635e-06
4.64997e-06
-5.11554e-06
-4.7809e-06
3.25866e-06
-4.64302e-06
3.69055e-06
-4.50487e-06
4.10821e-06
4.5112e-06
-4.3661e-06
-3.96471e-06
3.15889e-06
-3.86327e-06
3.58912e-06
-3.75967e-06
4.00461e-06
4.40524e-06
-3.65371e-06
-3.22895e-06
3.09957e-06
-3.16405e-06
3.52423e-06
-3.09376e-06
3.93432e-06
4.32996e-06
-3.01849e-06
-2.63717e-06
3.08042e-06
-2.60635e-06
3.49341e-06
-2.56561e-06
3.89359e-06
4.28079e-06
-2.51645e-06
-2.28231e-06
-2.27595e-06
-2.25562e-06
-2.22412e-06
1.13902e-07
3.153e-05
6.22146e-07
3.05626e-05
1.07564e-06
2.96171e-05
1.47665e-06
2.86902e-05
1.82765e-06
2.77823e-05
2.13132e-06
2.68953e-05
2.39047e-06
2.60318e-05
2.60804e-06
2.51946e-05
2.787e-06
2.43861e-05
2.93037e-06
2.36087e-05
3.04109e-06
2.28638e-05
3.12205e-06
2.21524e-05
3.17601e-06
2.14753e-05
3.20557e-06
2.08325e-05
3.21316e-06
2.0224e-05
3.20103e-06
1.96496e-05
3.17122e-06
1.91089e-05
3.1256e-06
1.86017e-05
3.06585e-06
1.81281e-05
2.99346e-06
1.76883e-05
2.90973e-06
1.72833e-05
2.81581e-06
1.69143e-05
2.71266e-06
1.65833e-05
2.60113e-06
1.62931e-05
2.48189e-06
1.60471e-05
2.35554e-06
1.58495e-05
2.22252e-06
1.57053e-05
2.08324e-06
1.56202e-05
1.93798e-06
1.56003e-05
1.78702e-06
1.56522e-05
1.63057e-06
1.57826e-05
1.46883e-06
1.59982e-05
1.30197e-06
1.63054e-05
1.13016e-06
1.67096e-05
9.53548e-07
1.72147e-05
7.72239e-07
1.78216e-05
5.86243e-07
1.85258e-05
3.95386e-07
1.93128e-05
1.99277e-07
2.0141e-05
2.06612e-05
-1.0096e-06
3.09134e-05
-4.51566e-07
3.00046e-05
5.03386e-08
2.91152e-05
4.98565e-07
2.8242e-05
8.9569e-07
2.73851e-05
1.24443e-06
2.65465e-05
1.54762e-06
2.57286e-05
1.80815e-06
2.4934e-05
2.02897e-06
2.41653e-05
2.21299e-06
2.34247e-05
2.36312e-06
2.27136e-05
2.48215e-06
2.20334e-05
2.57277e-06
2.13847e-05
2.63755e-06
2.07677e-05
2.67887e-06
2.01827e-05
2.69898e-06
1.96295e-05
2.69993e-06
1.91079e-05
2.6836e-06
1.8618e-05
2.6517e-06
1.816e-05
2.60576e-06
1.77343e-05
2.54715e-06
1.73419e-05
2.47708e-06
1.69844e-05
2.39661e-06
1.66638e-05
2.30666e-06
1.6383e-05
2.20802e-06
1.61457e-05
2.10136e-06
1.59561e-05
1.98728e-06
1.58194e-05
1.86626e-06
1.57412e-05
1.73875e-06
1.57278e-05
1.60513e-06
1.57858e-05
1.46576e-06
1.59219e-05
1.32097e-06
1.6143e-05
1.17107e-06
1.64553e-05
1.01638e-06
1.68643e-05
8.57192e-07
1.73739e-05
6.93739e-07
1.7985e-05
5.26172e-07
1.86934e-05
3.54458e-07
1.94846e-05
1.78379e-07
2.03171e-05
2.08396e-05
-2.10859e-06
3.02464e-05
-1.502e-06
2.9398e-05
-9.53093e-07
2.85663e-05
-4.59194e-07
2.77481e-05
-1.75713e-08
2.69435e-05
3.74568e-07
2.61544e-05
7.20068e-07
2.53831e-05
1.02183e-06
2.46323e-05
1.28276e-06
2.39044e-05
1.50575e-06
2.32017e-05
1.69365e-06
2.25257e-05
1.84921e-06
2.18779e-05
1.97508e-06
2.12588e-05
2.07377e-06
2.06691e-05
2.14765e-06
2.01088e-05
2.19896e-06
1.95782e-05
2.22974e-06
1.90771e-05
2.2419e-06
1.86059e-05
2.23717e-06
1.81647e-05
2.21712e-06
1.77543e-05
2.18317e-06
1.73759e-05
2.13659e-06
1.7031e-05
2.07852e-06
1.67219e-05
2.00995e-06
1.64516e-05
1.93177e-06
1.62239e-05
1.84475e-06
1.60431e-05
1.74957e-06
1.59145e-05
1.64686e-06
1.58439e-05
1.53716e-06
1.58375e-05
1.42099e-06
1.59019e-05
1.29883e-06
1.60441e-05
1.17115e-06
1.62707e-05
1.03838e-06
1.6588e-05
9.00993e-07
1.70017e-05
7.59395e-07
1.75155e-05
6.1397e-07
1.81305e-05
4.65e-07
1.88424e-05
3.12608e-07
1.96369e-05
1.56806e-07
2.04729e-05
2.09964e-05
-3.17832e-06
2.95308e-05
-2.52498e-06
2.87447e-05
-1.93089e-06
2.79722e-05
-1.39317e-06
2.72104e-05
-9.08942e-07
2.64593e-05
-4.7532e-07
2.57208e-05
-8.94039e-08
2.49972e-05
2.51721e-07
2.42911e-05
5.50947e-07
2.36052e-05
8.11143e-07
2.29415e-05
1.03512e-06
2.23018e-05
1.2256e-06
2.16874e-05
1.38521e-06
2.10992e-05
1.51642e-06
2.05379e-05
1.62161e-06
2.00036e-05
1.70299e-06
1.94968e-05
1.7626e-06
1.90175e-05
1.80237e-06
1.85661e-05
1.82404e-06
1.8143e-05
1.82922e-06
1.77492e-05
1.81938e-06
1.73857e-05
1.79584e-06
1.70545e-05
1.75979e-06
1.67579e-05
1.71231e-06
1.64991e-05
1.65437e-06
1.62818e-05
1.58682e-06
1.61107e-05
1.51045e-06
1.59909e-05
1.42599e-06
1.59284e-05
1.33409e-06
1.59294e-05
1.2354e-06
1.60006e-05
1.1305e-06
1.6149e-05
1.02e-06
1.63812e-05
9.0447e-07
1.67036e-05
7.84487e-07
1.71217e-05
6.60608e-07
1.76394e-05
5.33348e-07
1.82577e-05
4.03134e-07
1.89726e-05
2.70261e-07
1.97698e-05
1.34992e-07
2.06081e-05
2.11313e-05
-4.21382e-06
2.87688e-05
-3.51603e-06
2.80469e-05
-2.87905e-06
2.73352e-05
-2.29975e-06
2.66311e-05
-1.7751e-06
2.59346e-05
-1.30214e-06
2.52478e-05
-8.77901e-07
2.45729e-05
-4.99455e-07
2.39127e-05
-1.63898e-07
2.32696e-05
1.31631e-07
2.26459e-05
3.89914e-07
2.20435e-05
6.13645e-07
2.14636e-05
8.05421e-07
2.09074e-05
9.67717e-07
2.03756e-05
1.10288e-06
1.98685e-05
1.2131e-06
1.93866e-05
1.30046e-06
1.89302e-05
1.36686e-06
1.84997e-05
1.41407e-06
1.80958e-05
1.44373e-06
1.77195e-05
1.45735e-06
1.73721e-05
1.45629e-06
1.70556e-05
1.44181e-06
1.67724e-05
1.41504e-06
1.65259e-05
1.37702e-06
1.63199e-05
1.3287e-06
1.6159e-05
1.27095e-06
1.60486e-05
1.20461e-06
1.59947e-05
1.13043e-06
1.60035e-05
1.04916e-06
1.60819e-05
9.61514e-07
1.62366e-05
8.68205e-07
1.64745e-05
7.69938e-07
1.68018e-05
6.67413e-07
1.72242e-05
5.6132e-07
1.77455e-05
4.52311e-07
1.83667e-05
3.40965e-07
1.90839e-05
2.27755e-07
1.9883e-05
1.13177e-07
2.07227e-05
2.12445e-05
-5.20989e-06
2.79636e-05
-4.47051e-06
2.73075e-05
-3.79335e-06
2.66581e-05
-3.17509e-06
2.60128e-05
-2.61257e-06
2.53721e-05
-2.10269e-06
2.47379e-05
-1.64246e-06
2.41127e-05
-1.2289e-06
2.34991e-05
-8.59114e-07
2.28998e-05
-5.30258e-07
2.23171e-05
-2.39566e-07
2.17528e-05
1.56453e-08
2.12084e-05
2.37948e-07
2.06851e-05
4.29794e-07
2.01837e-05
5.93515e-07
1.97048e-05
7.31308e-07
1.92488e-05
8.4523e-07
1.88163e-05
9.37203e-07
1.84078e-05
1.00901e-06
1.8024e-05
1.06232e-06
1.76662e-05
1.09867e-06
1.73358e-05
1.11945e-06
1.70348e-05
1.12598e-06
1.67659e-05
1.11944e-06
1.65324e-05
1.10095e-06
1.63383e-05
1.07153e-06
1.61884e-05
1.03215e-06
1.6088e-05
9.83704e-07
1.60431e-05
9.27075e-07
1.60602e-05
8.63103e-07
1.61458e-05
7.92617e-07
1.63071e-05
7.16439e-07
1.65506e-05
6.35396e-07
1.68829e-05
5.50313e-07
1.73093e-05
4.62009e-07
1.78338e-05
3.71273e-07
1.84575e-05
2.78835e-07
1.91763e-05
1.85336e-07
1.99765e-05
9.14703e-08
2.08166e-05
2.1336e-05
-6.16124e-06
2.71188e-05
-5.38368e-06
2.65299e-05
-4.66954e-06
2.59439e-05
-4.01533e-06
2.53586e-05
-3.41776e-06
2.47745e-05
-2.87367e-06
2.41938e-05
-2.37999e-06
2.3619e-05
-1.93375e-06
2.30529e-05
-1.53202e-06
2.24981e-05
-1.17199e-06
2.1957e-05
-8.50889e-07
2.14317e-05
-5.66077e-07
2.09236e-05
-3.15003e-07
2.04341e-05
-9.52268e-08
1.99639e-05
9.55664e-08
1.9514e-05
2.59557e-07
1.90848e-05
3.98797e-07
1.8677e-05
5.15209e-07
1.82913e-05
6.10595e-07
1.79287e-05
6.86632e-07
1.75902e-05
7.44879e-07
1.72775e-05
7.86782e-07
1.69929e-05
8.13684e-07
1.6739e-05
8.26832e-07
1.65193e-05
8.27393e-07
1.63378e-05
8.16466e-07
1.61993e-05
7.9509e-07
1.61094e-05
7.6426e-07
1.6074e-05
7.24936e-07
1.60995e-05
6.7806e-07
1.61927e-05
6.24564e-07
1.63606e-05
5.65381e-07
1.66098e-05
5.01451e-07
1.69468e-05
4.33721e-07
1.7377e-05
3.63135e-07
1.79044e-05
2.90617e-07
1.853e-05
2.17036e-07
1.92499e-05
1.4319e-07
2.00503e-05
6.99392e-08
2.08898e-05
2.14059e-05
-7.06267e-06
2.62386e-05
-6.25086e-06
2.57181e-05
-5.50337e-06
2.51964e-05
-4.81659e-06
2.46718e-05
-4.18713e-06
2.41451e-05
-3.61178e-06
2.36184e-05
-3.08744e-06
2.30946e-05
-2.61112e-06
2.25765e-05
-2.17991e-06
2.20669e-05
-1.79099e-06
2.15681e-05
-1.44164e-06
2.10823e-05
-1.12922e-06
2.06112e-05
-8.51226e-07
2.01561e-05
-6.05231e-07
1.97179e-05
-3.88952e-07
1.92977e-05
-2.00225e-07
1.88961e-05
-3.7004e-08
1.85138e-05
1.02638e-07
1.81517e-05
2.20499e-07
1.78108e-05
3.18268e-07
1.74924e-05
3.97525e-07
1.71983e-05
4.59746e-07
1.69307e-05
5.06308e-07
1.66925e-05
5.38507e-07
1.64871e-05
5.57564e-07
1.63187e-05
5.64641e-07
1.61923e-05
5.60849e-07
1.61132e-05
5.47259e-07
1.60875e-05
5.24919e-07
1.61218e-05
4.94859e-07
1.62228e-05
4.5811e-07
1.63973e-05
4.15709e-07
1.66522e-05
3.68706e-07
1.69938e-05
3.18163e-07
1.74275e-05
2.65146e-07
1.79574e-05
2.10702e-07
1.85844e-05
1.55831e-07
1.93048e-05
1.01461e-07
2.01047e-05
4.85902e-08
2.09427e-05
2.14545e-05
-7.90914e-06
2.5328e-05
-7.0675e-06
2.48764e-05
-6.29071e-06
2.44196e-05
-5.57508e-06
2.39561e-05
-4.91719e-06
2.34872e-05
-4.31378e-06
2.3015e-05
-3.76178e-06
2.25426e-05
-3.25817e-06
2.20729e-05
-2.80009e-06
2.16088e-05
-2.38472e-06
2.11528e-05
-2.00939e-06
2.0707e-05
-1.67149e-06
2.02733e-05
-1.36854e-06
1.98531e-05
-1.09815e-06
1.94476e-05
-8.58059e-07
1.90576e-05
-6.46133e-07
1.86842e-05
-4.6034e-07
1.8328e-05
-2.98771e-07
1.79901e-05
-1.59621e-07
1.76717e-05
-4.11933e-08
1.7374e-05
5.81048e-08
1.7099e-05
1.39767e-07
1.68491e-05
2.05203e-07
1.6627e-05
2.55746e-07
1.64365e-05
2.92667e-07
1.62818e-05
3.17185e-07
1.61678e-05
3.30475e-07
1.60999e-05
3.33681e-07
1.60844e-05
3.27925e-07
1.61276e-05
3.14326e-07
1.62364e-05
2.94005e-07
1.64177e-05
2.68098e-07
1.66781e-05
2.3776e-07
1.70241e-05
2.04161e-07
1.74611e-05
1.68479e-07
1.7993e-05
1.31876e-07
1.8621e-05
9.54683e-08
1.93412e-05
6.02823e-08
2.01399e-05
2.73344e-08
2.09756e-05
2.14818e-05
-8.69597e-06
2.43922e-05
-7.82933e-06
2.40098e-05
-7.02764e-06
2.36179e-05
-6.2872e-06
2.32157e-05
-5.60458e-06
2.28045e-05
-4.97656e-06
2.2387e-05
-4.40007e-06
2.19661e-05
-3.87215e-06
2.1545e-05
-3.38994e-06
2.11266e-05
-2.95071e-06
2.07135e-05
-2.55179e-06
2.03081e-05
-2.19063e-06
1.99121e-05
-1.86479e-06
1.95272e-05
-1.57191e-06
1.91547e-05
-1.30979e-06
1.87955e-05
-1.0763e-06
1.84507e-05
-8.69445e-07
1.81212e-05
-6.87321e-07
1.7808e-05
-5.28136e-07
1.75125e-05
-3.90197e-07
1.72361e-05
-2.71908e-07
1.69807e-05
-1.71758e-07
1.67489e-05
-8.83141e-08
1.65436e-05
-2.02086e-08
1.63684e-05
3.38785e-08
1.62277e-05
7.52053e-08
1.61264e-05
1.05005e-07
1.60701e-05
1.24486e-07
1.60649e-05
1.34844e-07
1.61172e-05
1.37277e-07
1.6234e-05
1.32992e-07
1.6422e-05
1.23218e-07
1.66879e-05
1.09204e-07
1.70381e-05
9.22249e-08
1.74781e-05
7.35614e-08
1.80117e-05
5.44809e-08
1.86401e-05
3.61939e-08
1.93594e-05
1.97981e-08
2.01563e-05
6.02925e-09
2.09894e-05
2.14878e-05
-9.41891e-06
2.34371e-05
-8.53244e-06
2.31233e-05
-7.71055e-06
2.2796e-05
-6.94958e-06
2.24547e-05
-6.24617e-06
2.21011e-05
-5.59717e-06
2.1738e-05
-4.99955e-06
2.13685e-05
-4.45042e-06
2.09959e-05
-3.94699e-06
2.06232e-05
-3.48657e-06
2.02531e-05
-3.06656e-06
1.98881e-05
-2.68446e-06
1.953e-05
-2.33788e-06
1.91807e-05
-2.02453e-06
1.88413e-05
-1.74223e-06
1.85132e-05
-1.4889e-06
1.81973e-05
-1.26256e-06
1.78948e-05
-1.06134e-06
1.76068e-05
-8.83456e-07
1.73346e-05
-7.27234e-07
1.70799e-05
-5.91074e-07
1.68446e-05
-4.73457e-07
1.66313e-05
-3.72932e-07
1.64431e-05
-2.88107e-07
1.62836e-05
-2.17637e-07
1.61573e-05
-1.60212e-07
1.6069e-05
-1.14549e-07
1.60245e-05
-7.93821e-08
1.60297e-05
-5.34507e-08
1.60913e-05
-3.54853e-08
1.6216e-05
-2.41989e-08
1.64107e-05
-1.82786e-08
1.6682e-05
-1.63836e-08
1.70362e-05
-1.71483e-08
1.74789e-05
-1.91968e-08
1.80137e-05
-2.11741e-08
1.8642e-05
-2.18202e-08
1.93601e-05
-2.01821e-08
2.01546e-05
-1.63845e-08
2.09856e-05
2.14715e-05
-1.00743e-05
2.24686e-05
-9.17341e-06
2.22224e-05
-8.33621e-06
2.19588e-05
-7.55919e-06
2.16777e-05
-6.8391e-06
2.1381e-05
-6.17288e-06
2.10718e-05
-5.55763e-06
2.07532e-05
-4.99052e-06
2.04288e-05
-4.46886e-06
2.01015e-05
-3.99004e-06
1.97743e-05
-3.55153e-06
1.94496e-05
-3.1509e-06
1.91294e-05
-2.78583e-06
1.88156e-05
-2.45408e-06
1.85096e-05
-2.15353e-06
1.82126e-05
-1.88214e-06
1.79259e-05
-1.63797e-06
1.76507e-05
-1.41918e-06
1.7388e-05
-1.22402e-06
1.71394e-05
-1.05081e-06
1.69067e-05
-8.97978e-07
1.66918e-05
-7.63991e-07
1.64973e-05
-6.47393e-07
1.63265e-05
-5.46774e-07
1.6183e-05
-4.6076e-07
1.60713e-05
-3.88008e-07
1.59963e-05
-3.27193e-07
1.59637e-05
-2.76998e-07
1.59795e-05
-2.36103e-07
1.60504e-05
-2.03175e-07
1.61831e-05
-1.76853e-07
1.63844e-05
-1.55749e-07
1.66609e-05
-1.38439e-07
1.70189e-05
-1.23474e-07
1.74639e-05
-1.09396e-07
1.79997e-05
-9.47765e-08
1.86274e-05
-7.83129e-08
1.93436e-05
-5.90854e-08
2.01354e-05
-3.74797e-08
2.0964e-05
2.1434e-05
-1.06591e-05
2.14927e-05
-9.74934e-06
2.13126e-05
-8.90187e-06
2.11114e-05
-8.11339e-06
2.08892e-05
-7.38083e-06
2.06484e-05
-6.70129e-06
2.03922e-05
-6.07198e-06
2.01239e-05
-5.49022e-06
1.9847e-05
-4.95341e-06
1.95647e-05
-4.45905e-06
1.92799e-05
-4.0047e-06
1.89952e-05
-3.58802e-06
1.87127e-05
-3.20676e-06
1.84343e-05
-2.85876e-06
1.81616e-05
-2.54195e-06
1.78958e-05
-2.25435e-06
1.76383e-05
-1.99407e-06
1.73904e-05
-1.7593e-06
1.71532e-05
-1.54833e-06
1.69285e-05
-1.3595e-06
1.67178e-05
-1.19125e-06
1.65235e-05
-1.04205e-06
1.63481e-05
-9.10453e-07
1.61949e-05
-7.95027e-07
1.60676e-05
-6.94382e-07
1.59706e-05
-6.07147e-07
1.5909e-05
-5.3196e-07
1.58885e-05
-4.67463e-07
1.59151e-05
-4.12285e-07
1.59953e-05
-3.65033e-07
1.61359e-05
-3.24283e-07
1.63436e-05
-2.88578e-07
1.66252e-05
-2.5642e-07
1.69868e-05
-2.26286e-07
1.74338e-05
-1.96644e-07
1.797e-05
-1.65997e-07
1.85968e-05
-1.32991e-07
1.93106e-05
-9.66703e-08
2.00991e-05
-5.71643e-08
2.09245e-05
2.13768e-05
-1.11711e-05
2.05157e-05
-1.0258e-05
2.03995e-05
-9.4053e-06
2.02587e-05
-8.60999e-06
2.00939e-05
-7.86923e-06
1.99077e-05
-7.18028e-06
1.97033e-05
-6.54055e-06
1.94842e-05
-5.9475e-06
1.9254e-05
-5.39868e-06
1.90159e-05
-4.89168e-06
1.87729e-05
-4.42421e-06
1.85277e-05
-3.994e-06
1.82825e-05
-3.5989e-06
1.80392e-05
-3.23684e-06
1.77995e-05
-2.90582e-06
1.75648e-05
-2.60391e-06
1.73364e-05
-2.32929e-06
1.71157e-05
-2.0802e-06
1.69041e-05
-1.85494e-06
1.67032e-05
-1.65191e-06
1.65148e-05
-1.46956e-06
1.63412e-05
-1.30638e-06
1.6185e-05
-1.16091e-06
1.60494e-05
-1.03173e-06
1.59384e-05
-9.17428e-07
1.58563e-05
-8.16616e-07
1.58082e-05
-7.27904e-07
1.57998e-05
-6.49897e-07
1.58371e-05
-5.81182e-07
1.59266e-05
-5.20313e-07
1.6075e-05
-4.65813e-07
1.62891e-05
-4.16159e-07
1.65755e-05
-3.69792e-07
1.69404e-05
-3.25119e-07
1.73891e-05
-2.80537e-07
1.79255e-05
-2.3448e-07
1.85508e-05
-1.8552e-07
1.92617e-05
-1.32585e-07
2.00462e-05
-7.54806e-08
2.08674e-05
2.13013e-05
-1.16088e-05
1.95435e-05
-1.06977e-05
1.94884e-05
-9.84482e-06
1.94057e-05
-9.04728e-06
1.92963e-05
-8.30254e-06
1.91629e-05
-7.60811e-06
1.90088e-05
-6.9616e-06
1.88377e-05
-6.36065e-06
1.8653e-05
-5.80295e-06
1.84582e-05
-5.28626e-06
1.82563e-05
-4.80839e-06
1.80499e-05
-4.36721e-06
1.78414e-05
-3.96067e-06
1.76327e-05
-3.58678e-06
1.74256e-05
-3.24362e-06
1.72216e-05
-2.92936e-06
1.70221e-05
-2.64221e-06
1.68286e-05
-2.38047e-06
1.66424e-05
-2.14251e-06
1.64653e-05
-1.92675e-06
1.62991e-05
-1.73167e-06
1.61461e-05
-1.55577e-06
1.60091e-05
-1.39762e-06
1.58913e-05
-1.25579e-06
1.57966e-05
-1.12886e-06
1.57294e-05
-1.01544e-06
1.56948e-05
-9.14109e-07
1.56985e-05
-8.23447e-07
1.57464e-05
-7.42003e-07
1.58451e-05
-6.68291e-07
1.60013e-05
-6.00781e-07
1.62216e-05
-5.379e-07
1.65127e-05
-4.78029e-07
1.68806e-05
-4.19513e-07
1.73306e-05
-3.60682e-07
1.78666e-05
-2.99896e-07
1.849e-05
-2.35635e-07
1.91974e-05
-1.66693e-07
1.99772e-05
-9.25798e-08
2.07932e-05
2.12088e-05
-1.19714e-05
1.85817e-05
-1.10677e-05
1.85847e-05
-1.02193e-05
1.85574e-05
-9.42404e-06
1.8501e-05
-8.67948e-06
1.84184e-05
-7.98343e-06
1.83128e-05
-7.33373e-06
1.8188e-05
-6.72822e-06
1.80475e-05
-6.16477e-06
1.78947e-05
-5.64131e-06
1.77328e-05
-5.15579e-06
1.75644e-05
-4.70621e-06
1.73918e-05
-4.29062e-06
1.72171e-05
-3.90714e-06
1.70421e-05
-3.55396e-06
1.68684e-05
-3.2293e-06
1.66975e-05
-2.93147e-06
1.65307e-05
-2.65882e-06
1.63697e-05
-2.40977e-06
1.62162e-05
-2.18279e-06
1.60721e-05
-1.97639e-06
1.59397e-05
-1.7891e-06
1.58218e-05
-1.6195e-06
1.57217e-05
-1.46617e-06
1.56432e-05
-1.3277e-06
1.55909e-05
-1.20268e-06
1.55698e-05
-1.0897e-06
1.55855e-05
-9.8729e-07
1.5644e-05
-8.93986e-07
1.57518e-05
-8.08263e-07
1.59156e-05
-7.28549e-07
1.61419e-05
-6.53225e-07
1.64373e-05
-5.80619e-07
1.6808e-05
-5.09023e-07
1.7259e-05
-4.36701e-07
1.77943e-05
-3.61942e-07
1.84152e-05
-2.83133e-07
1.91186e-05
-1.98934e-07
1.9893e-05
-1.08613e-07
2.07029e-05
2.11001e-05
-1.22589e-05
1.76357e-05
-1.13675e-05
1.76932e-05
-1.05283e-05
1.77183e-05
-9.73956e-06
1.77123e-05
-8.99918e-06
1.7678e-05
-8.30526e-06
1.76189e-05
-7.65587e-06
1.75386e-05
-7.04908e-06
1.74407e-05
-6.48297e-06
1.73286e-05
-5.95563e-06
1.72055e-05
-5.46517e-06
1.70739e-05
-5.00973e-06
1.69364e-05
-4.58749e-06
1.67949e-05
-4.19668e-06
1.66513e-05
-3.83558e-06
1.65073e-05
-3.50251e-06
1.63644e-05
-3.19586e-06
1.62241e-05
-2.91405e-06
1.60879e-05
-2.65555e-06
1.59577e-05
-2.41889e-06
1.58354e-05
-2.20261e-06
1.57234e-05
-2.00529e-06
1.56245e-05
-1.82551e-06
1.55419e-05
-1.66188e-06
1.54796e-05
-1.513e-06
1.54421e-05
-1.37746e-06
1.54343e-05
-1.25383e-06
1.54618e-05
-1.14064e-06
1.55308e-05
-1.0364e-06
1.56476e-05
-9.39556e-07
1.58187e-05
-8.485e-07
1.60508e-05
-7.61576e-07
1.63504e-05
-6.77069e-07
1.67235e-05
-5.93218e-07
1.71752e-05
-5.08234e-07
1.77094e-05
-4.20334e-07
1.83273e-05
-3.27819e-07
1.90261e-05
-2.29226e-07
1.97944e-05
-1.23611e-07
2.05973e-05
2.09765e-05
-1.24722e-05
1.67102e-05
-1.15975e-05
1.68185e-05
-1.07718e-05
1.68926e-05
-9.99363e-06
1.6934e-05
-9.26123e-06
1.69456e-05
-8.57301e-06
1.69307e-05
-7.92731e-06
1.68929e-05
-7.32243e-06
1.68358e-05
-6.75665e-06
1.67629e-05
-6.22825e-06
1.66771e-05
-5.73551e-06
1.65812e-05
-5.27673e-06
1.64776e-05
-4.8502e-06
1.63684e-05
-4.4543e-06
1.62554e-05
-4.08739e-06
1.61404e-05
-3.7479e-06
1.60249e-05
-3.43429e-06
1.59105e-05
-3.14508e-06
1.57987e-05
-2.87879e-06
1.56914e-05
-2.63401e-06
1.55906e-05
-2.40932e-06
1.54987e-05
-2.20335e-06
1.54185e-05
-2.01471e-06
1.53533e-05
-1.84202e-06
1.53069e-05
-1.6839e-06
1.52839e-05
-1.53894e-06
1.52893e-05
-1.40572e-06
1.53286e-05
-1.28277e-06
1.54079e-05
-1.16856e-06
1.55334e-05
-1.06153e-06
1.57117e-05
-9.60046e-07
1.59494e-05
-8.62421e-07
1.62528e-05
-7.66901e-07
1.66279e-05
-6.71684e-07
1.708e-05
-5.74928e-07
1.76126e-05
-4.74791e-07
1.82272e-05
-3.69492e-07
1.89208e-05
-2.57453e-07
1.96824e-05
-1.37536e-07
2.04774e-05
2.0839e-05
-1.26124e-05
1.58096e-05
-1.17586e-05
1.59647e-05
-1.09504e-05
1.60844e-05
-1.01865e-05
1.61701e-05
-9.46562e-06
1.62247e-05
-8.78648e-06
1.62515e-05
-8.14767e-06
1.62541e-05
-7.54774e-06
1.62359e-05
-6.98518e-06
1.62003e-05
-6.45846e-06
1.61504e-05
-5.96604e-06
1.60888e-05
-5.50636e-06
1.60179e-05
-5.07788e-06
1.59399e-05
-4.67907e-06
1.58566e-05
-4.30844e-06
1.57698e-05
-3.9645e-06
1.5681e-05
-3.6458e-06
1.55918e-05
-3.35095e-06
1.55038e-05
-3.07854e-06
1.5419e-05
-2.82721e-06
1.53393e-05
-2.59561e-06
1.52671e-05
-2.38239e-06
1.52053e-05
-2.18621e-06
1.51571e-05
-2.00573e-06
1.51265e-05
-1.83957e-06
1.51178e-05
-1.68635e-06
1.51361e-05
-1.54463e-06
1.51869e-05
-1.41296e-06
1.52762e-05
-1.2898e-06
1.54102e-05
-1.17358e-06
1.55954e-05
-1.06263e-06
1.58384e-05
-9.55252e-07
1.61454e-05
-8.49662e-07
1.65224e-05
-7.44022e-07
1.69743e-05
-6.36446e-07
1.75051e-05
-5.25038e-07
1.81158e-05
-4.07944e-07
1.88037e-05
-2.83482e-07
1.95579e-05
-1.5033e-07
2.03443e-05
2.06887e-05
-1.26815e-05
1.49375e-05
-1.18523e-05
1.51355e-05
-1.1065e-05
1.52971e-05
-1.03188e-05
1.54239e-05
-9.61273e-06
1.55187e-05
-8.94581e-06
1.55846e-05
-8.31691e-06
1.56252e-05
-7.7248e-06
1.56438e-05
-7.1682e-06
1.56437e-05
-6.64579e-06
1.5628e-05
-6.15618e-06
1.55992e-05
-5.69799e-06
1.55597e-05
-5.26982e-06
1.55117e-05
-4.87027e-06
1.54571e-05
-4.49795e-06
1.53975e-05
-4.15151e-06
1.53345e-05
-3.82957e-06
1.52698e-05
-3.53083e-06
1.52051e-05
-3.25396e-06
1.51421e-05
-2.99766e-06
1.5083e-05
-2.76064e-06
1.50301e-05
-2.5416e-06
1.49862e-05
-2.33924e-06
1.49547e-05
-2.15225e-06
1.49395e-05
-1.97928e-06
1.49448e-05
-1.81897e-06
1.49758e-05
-1.66989e-06
1.50379e-05
-1.53059e-06
1.51369e-05
-1.39953e-06
1.52792e-05
-1.27513e-06
1.5471e-05
-1.15573e-06
1.5719e-05
-1.0396e-06
1.60293e-05
-9.24926e-07
1.64077e-05
-8.09856e-07
1.68593e-05
-6.92466e-07
1.73877e-05
-5.7081e-07
1.79942e-05
-4.42974e-07
1.86759e-05
-3.07178e-07
1.94222e-05
-1.61926e-07
2.0199e-05
2.05268e-05
-1.26818e-05
1.40973e-05
-1.18803e-05
1.43339e-05
-1.1117e-05
1.45338e-05
-1.03915e-05
1.46985e-05
-9.70329e-06
1.48304e-05
-9.05148e-06
1.49328e-05
-8.43527e-06
1.5009e-05
-7.85367e-06
1.50622e-05
-7.30563e-06
1.50957e-05
-6.79001e-06
1.51123e-05
-6.30561e-06
1.51148e-05
-5.85119e-06
1.51053e-05
-5.42552e-06
1.50861e-05
-5.02732e-06
1.50589e-05
-4.65532e-06
1.50255e-05
-4.30827e-06
1.49875e-05
-3.98492e-06
1.49465e-05
-3.68402e-06
1.49042e-05
-3.40433e-06
1.48624e-05
-3.14464e-06
1.48233e-05
-2.9037e-06
1.47891e-05
-2.68027e-06
1.47628e-05
-2.47309e-06
1.47476e-05
-2.2809e-06
1.47473e-05
-2.10237e-06
1.47663e-05
-1.93616e-06
1.48096e-05
-1.78088e-06
1.48826e-05
-1.63506e-06
1.49911e-05
-1.49719e-06
1.51413e-05
-1.36568e-06
1.53395e-05
-1.23887e-06
1.55922e-05
-1.11501e-06
1.59054e-05
-9.92297e-07
1.6285e-05
-8.68837e-07
1.67358e-05
-7.42687e-07
1.72615e-05
-6.11862e-07
1.78634e-05
-4.74391e-07
1.85385e-05
-3.28409e-07
1.92762e-05
-1.7226e-07
2.00429e-05
2.03545e-05
-1.2616e-05
1.32914e-05
-1.18447e-05
1.35627e-05
-1.11082e-05
1.37973e-05
-1.04062e-05
1.39964e-05
-9.73833e-06
1.41626e-05
-9.10423e-06
1.42987e-05
-8.50327e-06
1.4408e-05
-7.93468e-06
1.44936e-05
-7.39761e-06
1.45586e-05
-6.89112e-06
1.46059e-05
-6.41418e-06
1.46378e-05
-5.96573e-06
1.46569e-05
-5.54465e-06
1.4665e-05
-5.14982e-06
1.4664e-05
-4.78008e-06
1.46557e-05
-4.43428e-06
1.46417e-05
-4.11129e-06
1.46235e-05
-3.80993e-06
1.46028e-05
-3.52907e-06
1.45816e-05
-3.26754e-06
1.45618e-05
-3.02417e-06
1.45458e-05
-2.79777e-06
1.45364e-05
-2.58715e-06
1.45369e-05
-2.39106e-06
1.45512e-05
-2.20824e-06
1.45835e-05
-2.03735e-06
1.46387e-05
-1.87704e-06
1.47222e-05
-1.72585e-06
1.48399e-05
-1.58228e-06
1.49977e-05
-1.44476e-06
1.5202e-05
-1.31161e-06
1.5459e-05
-1.1811e-06
1.57749e-05
-1.05141e-06
1.61553e-05
-9.20648e-07
1.66051e-05
-7.86836e-07
1.71277e-05
-6.47966e-07
1.77245e-05
-5.02022e-07
1.83925e-05
-3.47059e-07
1.91213e-05
-1.81277e-07
1.98771e-05
2.01733e-05
-1.24869e-05
1.25218e-05
-1.17481e-05
1.2824e-05
-1.10405e-05
1.30897e-05
-1.03642e-05
1.33201e-05
-9.71914e-06
1.35175e-05
-9.10508e-06
1.36846e-05
-8.52167e-06
1.38246e-05
-7.96836e-06
1.39403e-05
-7.4445e-06
1.40348e-05
-6.94933e-06
1.41107e-05
-6.48199e-06
1.41705e-05
-6.04156e-06
1.42164e-05
-5.62708e-06
1.42505e-05
-5.23754e-06
1.42745e-05
-4.87192e-06
1.42901e-05
-4.52919e-06
1.42989e-05
-4.20828e-06
1.43026e-05
-3.90814e-06
1.43027e-05
-3.6277e-06
1.43011e-05
-3.36587e-06
1.42999e-05
-3.12154e-06
1.43014e-05
-2.89361e-06
1.43085e-05
-2.6809e-06
1.43242e-05
-2.48224e-06
1.43525e-05
-2.29638e-06
1.43976e-05
-2.12205e-06
1.44644e-05
-1.95789e-06
1.45581e-05
-1.80249e-06
1.46845e-05
-1.65436e-06
1.48496e-05
-1.51194e-06
1.50596e-05
-1.37356e-06
1.53206e-05
-1.23751e-06
1.56388e-05
-1.10196e-06
1.60197e-05
-9.65003e-07
1.64681e-05
-8.2467e-07
1.69874e-05
-6.78924e-07
1.75787e-05
-5.25712e-07
1.82393e-05
-3.63026e-07
1.89586e-05
-1.88932e-07
1.9703e-05
1.99843e-05
-1.22975e-05
1.17901e-05
-1.1593e-05
1.21194e-05
-1.09162e-05
1.24129e-05
-1.02675e-05
1.26714e-05
-9.64722e-06
1.28972e-05
-9.05524e-06
1.30927e-05
-8.49144e-06
1.32608e-05
-7.95547e-06
1.34044e-05
-7.44686e-06
1.35262e-05
-6.96503e-06
1.36289e-05
-6.50926e-06
1.37147e-05
-6.0788e-06
1.3786e-05
-5.67281e-06
1.38445e-05
-5.29041e-06
1.38921e-05
-4.93071e-06
1.39304e-05
-4.59277e-06
1.3961e-05
-4.27563e-06
1.39855e-05
-3.97832e-06
1.40054e-05
-3.69986e-06
1.40227e-05
-3.43924e-06
1.40393e-05
-3.19543e-06
1.40576e-05
-2.96735e-06
1.40804e-05
-2.75392e-06
1.41108e-05
-2.55399e-06
1.41526e-05
-2.36638e-06
1.421e-05
-2.18983e-06
1.42878e-05
-2.02303e-06
1.43913e-05
-1.86459e-06
1.4526e-05
-1.71305e-06
1.4698e-05
-1.56687e-06
1.49134e-05
-1.4244e-06
1.51782e-05
-1.28393e-06
1.54984e-05
-1.14365e-06
1.58795e-05
-1.00166e-06
1.63261e-05
-8.55976e-07
1.68417e-05
-7.04559e-07
1.74273e-05
-5.45329e-07
1.80801e-05
-3.76221e-07
1.87895e-05
-1.95184e-07
1.9522e-05
1.97892e-05
-1.20511e-05
1.10973e-05
-1.1382e-05
1.14504e-05
-1.07375e-05
1.17684e-05
-1.01181e-05
1.2052e-05
-9.5242e-06
1.23033e-05
-8.95607e-06
1.25245e-05
-8.4137e-06
1.27184e-05
-7.89692e-06
1.28876e-05
-7.40542e-06
1.30347e-05
-6.93877e-06
1.31622e-05
-6.49642e-06
1.32724e-05
-6.07773e-06
1.33673e-05
-5.68202e-06
1.34488e-05
-5.30851e-06
1.35186e-05
-4.95643e-06
1.35783e-05
-4.62494e-06
1.36295e-05
-4.31318e-06
1.36737e-05
-4.02029e-06
1.37125e-05
-3.74534e-06
1.37477e-05
-3.4874e-06
1.37814e-05
-3.24552e-06
1.38157e-05
-3.01869e-06
1.38536e-05
-2.80587e-06
1.3898e-05
-2.60598e-06
1.39527e-05
-2.41788e-06
1.40219e-05
-2.24035e-06
1.41103e-05
-2.07211e-06