/*--------------------------------*- C++ -*----------------------------------*\
| =========                 |                                                 |
| \\      /  F ield         | OpenFOAM: The Open Source CFD Toolbox           |
|  \\    /   O peration     | Version:  5.0                                   |
|   \\  /    A nd           | Web:      www.OpenFOAM.org                      |
|    \\/     M anipulation  |                                                 |
\*---------------------------------------------------------------------------*/
FoamFile
{
    version     2.0;
    format      ascii;
    class       volVectorField;
    location    "0.15";
    object      U;
}
// * * * * * * * * * * * * * * * * * * * * * * * * * * * * * * * * * * * * * //

dimensions      [0 1 -1 0 0 0 0];

internalField   nonuniform List<vector> 
1935
(
(-0.034946 0.381005 0)
(-0.0490783 0.371849 0)
(-0.0626613 0.362 0)
(-0.0756137 0.351475 0)
(-0.0878516 0.340298 0)
(-0.0992916 0.328505 0)
(-0.109854 0.31615 0)
(-0.119464 0.303302 0)
(-0.128059 0.290042 0)
(-0.135586 0.276464 0)
(-0.142011 0.262669 0)
(-0.147311 0.248764 0)
(-0.151486 0.234857 0)
(-0.154551 0.221055 0)
(-0.156535 0.207457 0)
(-0.157485 0.194156 0)
(-0.157458 0.181233 0)
(-0.15652 0.168757 0)
(-0.154743 0.156786 0)
(-0.152204 0.145363 0)
(-0.148979 0.134518 0)
(-0.145142 0.124271 0)
(-0.140766 0.114633 0)
(-0.135917 0.105604 0)
(-0.130659 0.0971781 0)
(-0.125046 0.0893439 0)
(-0.119129 0.0820855 0)
(-0.112952 0.0753839 0)
(-0.106552 0.0692179 0)
(-0.099963 0.0635656 0)
(-0.0932109 0.0584045 0)
(-0.086319 0.0537129 0)
(-0.0793076 0.0494698 0)
(-0.0721956 0.0456561 0)
(-0.065004 0.0422554 0)
(-0.0577612 0.0392547 0)
(-0.0505105 0.0366466 0)
(-0.0433223 0.0344317 0)
(-0.0363121 0.0326232 0)
(-0.0296689 0.0312513 0)
(-0.023693 0.0303574 0)
(-0.0188416 0.0300441 0)
(-0.0158376 0.030417 0)
(-0.0270374 0.368193 0)
(-0.0199468 0.356446 0)
(-0.0134123 0.3455 0)
(-0.00740552 0.335355 0)
(-0.0406355 0.35972 0)
(-0.0330574 0.348618 0)
(-0.0260595 0.33829 0)
(-0.0196075 0.32873 0)
(-0.0536984 0.350603 0)
(-0.0456469 0.340186 0)
(-0.0382006 0.330508 0)
(-0.0313199 0.321558 0)
(-0.0661552 0.340859 0)
(-0.0576535 0.331166 0)
(-0.049782 0.32217 0)
(-0.0424961 0.313857 0)
(-0.0779345 0.330513 0)
(-0.0690155 0.321582 0)
(-0.0607501 0.313298 0)
(-0.0530889 0.305647 0)
(-0.0889639 0.319595 0)
(-0.0796703 0.311463 0)
(-0.0710503 0.303921 0)
(-0.0630507 0.296956 0)
(-0.0991741 0.308156 0)
(-0.0895576 0.300853 0)
(-0.08063 0.294079 0)
(-0.0723349 0.287821 0)
(-0.108501 0.296254 0)
(-0.0986213 0.289806 0)
(-0.0894398 0.28382 0)
(-0.0808981 0.278285 0)
(-0.116889 0.283962 0)
(-0.106812 0.278386 0)
(-0.0974362 0.273202 0)
(-0.0887017 0.268402 0)
(-0.124292 0.271363 0)
(-0.114089 0.266665 0)
(-0.104583 0.262289 0)
(-0.0957128 0.258229 0)
(-0.130677 0.258544 0)
(-0.120422 0.254723 0)
(-0.110852 0.251151 0)
(-0.101906 0.24783 0)
(-0.136024 0.245599 0)
(-0.125793 0.242642 0)
(-0.116225 0.239865 0)
(-0.107264 0.237272 0)
(-0.14033 0.232625 0)
(-0.130195 0.230508 0)
(-0.120696 0.228504 0)
(-0.11178 0.226623 0)
(-0.143603 0.219716 0)
(-0.133634 0.218405 0)
(-0.124267 0.217147 0)
(-0.115453 0.215953 0)
(-0.145869 0.206961 0)
(-0.136129 0.206416 0)
(-0.126953 0.205868 0)
(-0.118296 0.205329 0)
(-0.147163 0.194447 0)
(-0.13771 0.194618 0)
(-0.128778 0.194736 0)
(-0.120326 0.194818 0)
(-0.147534 0.182246 0)
(-0.138416 0.18308 0)
(-0.129773 0.183818 0)
(-0.121571 0.184479 0)
(-0.147036 0.170426 0)
(-0.138294 0.171864 0)
(-0.12998 0.173173 0)
(-0.122065 0.174369 0)
(-0.145732 0.159042 0)
(-0.137396 0.161024 0)
(-0.129442 0.16285 0)
(-0.121845 0.164534 0)
(-0.143687 0.148136 0)
(-0.135781 0.150603 0)
(-0.128211 0.152893 0)
(-0.120956 0.155019 0)
(-0.140968 0.137742 0)
(-0.133507 0.140636 0)
(-0.126337 0.143337 0)
(-0.119443 0.145859 0)
(-0.137643 0.127883 0)
(-0.130633 0.131149 0)
(-0.123874 0.13421 0)
(-0.117353 0.137081 0)
(-0.133775 0.118574 0)
(-0.127218 0.122158 0)
(-0.120874 0.125532 0)
(-0.114733 0.128708 0)
(-0.129427 0.109821 0)
(-0.123319 0.113674 0)
(-0.11739 0.117316 0)
(-0.11163 0.120756 0)
(-0.124656 0.101622 0)
(-0.118988 0.105701 0)
(-0.113469 0.109569 0)
(-0.10809 0.113236 0)
(-0.119514 0.0939725 0)
(-0.114275 0.0982366 0)
(-0.109157 0.102295 0)
(-0.104154 0.106152 0)
(-0.114049 0.0868611 0)
(-0.109225 0.0912761 0)
(-0.104498 0.0954907 0)
(-0.099863 0.0995075 0)
(-0.108303 0.0802744 0)
(-0.103879 0.08481 0)
(-0.0995299 0.0891517 0)
(-0.0952537 0.0933001 0)
(-0.102315 0.0741964 0)
(-0.0982717 0.0788267 0)
(-0.0942878 0.0832702 0)
(-0.0903595 0.0875259 0)
(-0.0961151 0.0686099 0)
(-0.0924364 0.0733133 0)
(-0.0888029 0.0778371 0)
(-0.085211 0.082179 0)
(-0.0897321 0.0634969 0)
(-0.0864004 0.0682556 0)
(-0.0831029 0.0728419 0)
(-0.0798355 0.0772522 0)
(-0.0831897 0.0588396 0)
(-0.0801883 0.0636396 0)
(-0.0772125 0.0682741 0)
(-0.0742579 0.072738 0)
(-0.076509 0.054621 0)
(-0.0738224 0.0594517 0)
(-0.0711551 0.0641231 0)
(-0.0685021 0.0686288 0)
(-0.069711 0.0508256 0)
(-0.0673251 0.0556798 0)
(-0.0649542 0.0603796 0)
(-0.0625926 0.0649179 0)
(-0.0628192 0.0474401 0)
(-0.0607218 0.0523134 0)
(-0.0586369 0.0570358 0)
(-0.0565578 0.0615994 0)
(-0.0558651 0.0444548 0)
(-0.0540468 0.0493449 0)
(-0.0522396 0.054086 0)
(-0.0504355 0.0586694 0)
(-0.0488963 0.0418642 0)
(-0.0473512 0.0467706 0)
(-0.0458157 0.0515272 0)
(-0.044281 0.0561256 0)
(-0.0419894 0.0396696 0)
(-0.0407153 0.0445912 0)
(-0.0394482 0.0493597 0)
(-0.0381782 0.0539672 0)
(-0.0352676 0.0378809 0)
(-0.0342669 0.0428128 0)
(-0.0332667 0.0475858 0)
(-0.0322568 0.0521935 0)
(-0.0289276 0.0365182 0)
(-0.0282055 0.0414468 0)
(-0.0274695 0.0462092 0)
(-0.0267119 0.0508021 0)
(-0.0232724 0.0356034 0)
(-0.0228301 0.0404997 0)
(-0.0223486 0.0452251 0)
(-0.0218261 0.0497802 0)
(-0.0187427 0.0351848 0)
(-0.0185636 0.0399832 0)
(-0.0183088 0.0446205 0)
(-0.0179873 0.0490979 0)
(-0.0159891 0.0352448 0)
(-0.0160001 0.0397918 0)
(-0.0159019 0.0442268 0)
(-0.0157158 0.0485395 0)
(-0.00160414 0.325334 0)
(0.00394126 0.31515 0)
(0.00890627 0.305202 0)
(0.0133151 0.295456 0)
(0.017194 0.285918 0)
(0.0205699 0.276607 0)
(0.0234709 0.26755 0)
(0.0259268 0.258777 0)
(0.0279682 0.250314 0)
(0.0296261 0.242182 0)
(0.0309314 0.234397 0)
(0.0319145 0.22697 0)
(0.0326045 0.219907 0)
(0.0330295 0.213208 0)
(0.0332154 0.206871 0)
(0.0331866 0.200895 0)
(0.0329651 0.195273 0)
(0.0325711 0.190004 0)
(0.032023 0.185087 0)
(0.0313369 0.180524 0)
(0.0305274 0.176322 0)
(0.0296069 0.172495 0)
(0.0285865 0.169061 0)
(0.0274753 0.166048 0)
(0.0262813 0.163491 0)
(0.0250109 0.161432 0)
(0.0236696 0.159923 0)
(0.0222617 0.159019 0)
(0.0207907 0.158784 0)
(0.0192596 0.159284 0)
(0.0176707 0.160588 0)
(0.0160262 0.162766 0)
(0.014328 0.16588 0)
(0.0125779 0.169988 0)
(0.0107775 0.175128 0)
(0.00892757 0.181309 0)
(0.00702777 0.188485 0)
(0.00508641 0.196507 0)
(0.00312171 0.204947 0)
(0.00129823 0.210245 0)
(-0.0133514 0.319291 0)
(-0.00733913 0.309697 0)
(-0.00191742 0.300316 0)
(0.00294013 0.291112 0)
(0.00726095 0.28209 0)
(0.0110724 0.273268 0)
(0.0144029 0.264671 0)
(0.0172816 0.256329 0)
(0.0197385 0.248265 0)
(0.0218037 0.240503 0)
(0.023507 0.233058 0)
(0.0248778 0.225943 0)
(0.0259443 0.219163 0)
(0.0267335 0.212721 0)
(0.0272708 0.206618 0)
(0.02758 0.200851 0)
(0.0276829 0.195418 0)
(0.0275999 0.190318 0)
(0.0273491 0.185553 0)
(0.0269472 0.181127 0)
(0.0264089 0.177048 0)
(0.0257474 0.173331 0)
(0.0249743 0.169998 0)
(0.0240997 0.167077 0)
(0.0231324 0.164604 0)
(0.0220797 0.162622 0)
(0.0209482 0.161185 0)
(0.0197434 0.160349 0)
(0.01847 0.160177 0)
(0.0171323 0.160738 0)
(0.0157339 0.1621 0)
(0.0142784 0.164332 0)
(0.0127691 0.167499 0)
(0.0112092 0.171656 0)
(0.00960175 0.176844 0)
(0.00794915 0.18307 0)
(0.00625248 0.190292 0)
(0.00452051 0.19836 0)
(0.0027696 0.206849 0)
(0.00115314 0.212174 0)
(-0.0246277 0.312725 0)
(-0.0181693 0.303739 0)
(-0.0123132 0.29494 0)
(-0.0070307 0.286292 0)
(-0.00229265 0.277798 0)
(0.00192938 0.269476 0)
(0.00566377 0.26135 0)
(0.0089396 0.253449 0)
(0.0117865 0.245798 0)
(0.0142339 0.238418 0)
(0.016311 0.231326 0)
(0.0180462 0.224535 0)
(0.0194671 0.218053 0)
(0.0205999 0.211882 0)
(0.0214695 0.206026 0)
(0.0220992 0.200483 0)
(0.0225108 0.195253 0)
(0.0227242 0.190337 0)
(0.0227579 0.185738 0)
(0.0226286 0.181462 0)
(0.0223515 0.177519 0)
(0.0219402 0.173926 0)
(0.0214067 0.170705 0)
(0.0207621 0.167886 0)
(0.0200156 0.165507 0)
(0.0191758 0.163612 0)
(0.01825 0.162255 0)
(0.0172447 0.161493 0)
(0.016166 0.16139 0)
(0.0150191 0.162015 0)
(0.013809 0.163437 0)
(0.0125406 0.165725 0)
(0.0112185 0.168944 0)
(0.00984727 0.17315 0)
(0.00843126 0.178382 0)
(0.00697426 0.18465 0)
(0.00547886 0.19191 0)
(0.00395435 0.200017 0)
(0.00241528 0.208546 0)
(0.00100403 0.213887 0)
(-0.0353924 0.305652 0)
(-0.0285145 0.297293 0)
(-0.0222506 0.289091 0)
(-0.0165699 0.281012 0)
(-0.0114414 0.273059 0)
(-0.00683596 0.265249 0)
(-0.00272462 0.257606 0)
(0.000921932 0.250158 0)
(0.00413288 0.242929 0)
(0.0069372 0.235943 0)
(0.00936354 0.229216 0)
(0.0114398 0.222762 0)
(0.0131928 0.216589 0)
(0.0146483 0.210703 0)
(0.0158307 0.205107 0)
(0.0167631 0.199801 0)
(0.0174668 0.194788 0)
(0.0179618 0.190069 0)
(0.0182665 0.185649 0)
(0.0183978 0.181536 0)
(0.018371 0.177741 0)
(0.0182002 0.174283 0)
(0.017898 0.171185 0)
(0.0174757 0.168479 0)
(0.0169436 0.166202 0)
(0.0163108 0.164402 0)
(0.0155857 0.163131 0)
(0.0147757 0.162449 0)
(0.0138878 0.16242 0)
(0.0129284 0.163113 0)
(0.0119038 0.164598 0)
(0.0108199 0.166943 0)
(0.00968259 0.170213 0)
(0.00849769 0.174465 0)
(0.0072709 0.179739 0)
(0.00600733 0.186044 0)
(0.00471112 0.193337 0)
(0.00339211 0.201476 0)
(0.00206337 0.210034 0)
(0.000855652 0.215381 0)
(-0.0456044 0.298092 0)
(-0.0383384 0.29038 0)
(-0.0316977 0.282792 0)
(-0.0256491 0.275296 0)
(-0.0201599 0.267896 0)
(-0.0152 0.260608 0)
(-0.0107399 0.253458 0)
(-0.0067504 0.246473 0)
(-0.00320236 0.239679 0)
(-6.69741e-05 0.233097 0)
(0.00268389 0.226746 0)
(0.00507748 0.22064 0)
(0.00714021 0.214789 0)
(0.00889735 0.209199 0)
(0.0103729 0.203874 0)
(0.0115896 0.198818 0)
(0.0125686 0.194033 0)
(0.0133297 0.189523 0)
(0.0138913 0.185294 0)
(0.0142703 0.181355 0)
(0.0144824 0.17772 0)
(0.0145418 0.174407 0)
(0.0144615 0.171442 0)
(0.0142534 0.168857 0)
(0.0139284 0.166692 0)
(0.0134962 0.164993 0)
(0.012966 0.163816 0)
(0.0123461 0.163219 0)
(0.0116446 0.163268 0)
(0.0108687 0.164033 0)
(0.0100259 0.165581 0)
(0.00912319 0.167984 0)
(0.00816759 0.171306 0)
(0.00716615 0.175602 0)
(0.0061258 0.180914 0)
(0.005053 0.187251 0)
(0.00395341 0.194572 0)
(0.00283746 0.202733 0)
(0.00171686 0.211311 0)
(0.000710615 0.21665 0)
(-0.0552219 0.290072 0)
(-0.0476045 0.283025 0)
(-0.0406219 0.276066 0)
(-0.034239 0.269167 0)
(-0.0284216 0.262331 0)
(-0.0231386 0.255577 0)
(-0.0183601 0.248931 0)
(-0.0140566 0.242418 0)
(-0.0101991 0.236067 0)
(-0.00675928 0.229899 0)
(-0.00370939 0.223934 0)
(-0.00102255 0.218187 0)
(0.0013272 0.212667 0)
(0.00336464 0.207384 0)
(0.00511336 0.202342 0)
(0.00659573 0.197546 0)
(0.00783275 0.193001 0)
(0.00884404 0.188711 0)
(0.00964792 0.184683 0)
(0.0102614 0.180928 0)
(0.0107001 0.177462 0)
(0.0109787 0.174304 0)
(0.0111105 0.17148 0)
(0.0111076 0.169025 0)
(0.0109816 0.166979 0)
(0.0107428 0.165389 0)
(0.0104011 0.164311 0)
(0.00996565 0.163805 0)
(0.0094452 0.163936 0)
(0.00884819 0.164774 0)
(0.00818284 0.166389 0)
(0.00745729 0.16885 0)
(0.00667968 0.172222 0)
(0.00585816 0.176561 0)
(0.00500086 0.181907 0)
(0.00411555 0.188271 0)
(0.00320938 0.195613 0)
(0.00229328 0.203789 0)
(0.0013776 0.212376 0)
(0.000569407 0.217695 0)
(-0.0642041 0.281627 0)
(-0.0562769 0.275261 0)
(-0.0489915 0.268945 0)
(-0.0423113 0.262654 0)
(-0.0362007 0.256393 0)
(-0.030628 0.250182 0)
(-0.0255629 0.244047 0)
(-0.0209758 0.238017 0)
(-0.016838 0.232117 0)
(-0.0131212 0.226372 0)
(-0.00979823 0.220801 0)
(-0.00684271 0.215421 0)
(-0.00422919 0.210242 0)
(-0.00193331 0.205275 0)
(6.82146e-05 0.200526 0)
(0.00179735 0.196 0)
(0.00327478 0.191703 0)
(0.00451993 0.187642 0)
(0.00555104 0.183825 0)
(0.00638511 0.180264 0)
(0.00703792 0.176976 0)
(0.00752414 0.173981 0)
(0.00785738 0.171308 0)
(0.00805026 0.16899 0)
(0.00811458 0.167069 0)
(0.00806136 0.165594 0)
(0.00790103 0.16462 0)
(0.0076435 0.164209 0)
(0.00729829 0.164425 0)
(0.00687468 0.16534 0)
(0.00638181 0.167022 0)
(0.00582879 0.169541 0)
(0.00522477 0.172962 0)
(0.00457898 0.177341 0)
(0.00390068 0.182718 0)
(0.0031989 0.189105 0)
(0.00248217 0.196461 0)
(0.00176183 0.204644 0)
(0.00104675 0.213229 0)
(0.000432015 0.218519 0)
(-0.0725128 0.272797 0)
(-0.0643219 0.267126 0)
(-0.0567765 0.261464 0)
(-0.0498388 0.25579 0)
(-0.0434725 0.250112 0)
(-0.0376454 0.244451 0)
(-0.0323272 0.238836 0)
(-0.0274882 0.233293 0)
(-0.0230999 0.227852 0)
(-0.0191346 0.222537 0)
(-0.0155654 0.217368 0)
(-0.0123665 0.212362 0)
(-0.00951283 0.207533 0)
(-0.00698062 0.202889 0)
(-0.00474707 0.19844 0)
(-0.00279061 0.194193 0)
(-0.00109083 0.190153 0)
(0.0003715 0.18633 0)
(0.00161442 0.182732 0)
(0.00265485 0.179373 0)
(0.00350859 0.17627 0)
(0.00419041 0.173446 0)
(0.0047141 0.17093 0)
(0.00509259 0.168756 0)
(0.00533803 0.166967 0)
(0.00546193 0.165612 0)
(0.00547526 0.164747 0)
(0.00538857 0.164434 0)
(0.00521208 0.164739 0)
(0.00495584 0.165732 0)
(0.00462981 0.167482 0)
(0.00424401 0.170059 0)
(0.00380853 0.173528 0)
(0.00333362 0.177945 0)
(0.00282959 0.183349 0)
(0.00230662 0.189753 0)
(0.00177455 0.197116 0)
(0.00124492 0.205298 0)
(0.000724756 0.213873 0)
(0.000298149 0.219124 0)
(-0.0801137 0.26363 0)
(-0.071709 0.258662 0)
(-0.0639494 0.253661 0)
(-0.0567967 0.248611 0)
(-0.0502143 0.243522 0)
(-0.0441698 0.238417 0)
(-0.0386331 0.233325 0)
(-0.0335749 0.228277 0)
(-0.0289671 0.223299 0)
(-0.0247823 0.218419 0)
(-0.0209944 0.213657 0)
(-0.0175778 0.209032 0)
(-0.0145083 0.204557 0)
(-0.0117625 0.200245 0)
(-0.00931815 0.196103 0)
(-0.0071541 0.19214 0)
(-0.00525033 0.188365 0)
(-0.00358793 0.184786 0)
(-0.00214908 0.181415 0)
(-0.000916975 0.178265 0)
(0.000124162 0.175355 0)
(0.000989107 0.172709 0)
(0.00169176 0.170355 0)
(0.00224526 0.168331 0)
(0.00266208 0.166678 0)
(0.00295411 0.165448 0)
(0.00313284 0.164697 0)
(0.00320933 0.164486 0)
(0.00319445 0.164882 0)
(0.00309893 0.165954 0)
(0.0029335 0.167773 0)
(0.00270899 0.170407 0)
(0.00243638 0.173922 0)
(0.00212684 0.178374 0)
(0.00179166 0.183801 0)
(0.00144208 0.190217 0)
(0.00108907 0.197582 0)
(0.000744193 0.205754 0)
(0.000411431 0.21431 0)
(0.000166694 0.219511 0)
(-0.0869774 0.254178 0)
(-0.0784117 0.249917 0)
(-0.0704863 0.245581 0)
(-0.0631631 0.241157 0)
(-0.0564057 0.236659 0)
(-0.0501823 0.232113 0)
(-0.044463 0.227548 0)
(-0.0392193 0.222996 0)
(-0.0344234 0.218485 0)
(-0.0300489 0.214044 0)
(-0.02607 0.209693 0)
(-0.0224621 0.205453 0)
(-0.0192013 0.201337 0)
(-0.016265 0.19736 0)
(-0.0136314 0.193531 0)
(-0.01128 0.189859 0)
(-0.00919101 0.186354 0)
(-0.00734603 0.183025 0)
(-0.00572743 0.179886 0)
(-0.00431865 0.176951 0)
(-0.00310407 0.17424 0)
(-0.00206894 0.171776 0)
(-0.00119929 0.169591 0)
(-0.000481799 0.167722 0)
(9.61919e-05 0.166211 0)
(0.000546915 0.16511 0)
(0.000882262 0.164475 0)
(0.00111377 0.164368 0)
(0.00125285 0.164857 0)
(0.00131086 0.16601 0)
(0.0012992 0.167897 0)
(0.00122947 0.170588 0)
(0.00111344 0.174148 0)
(0.000963131 0.178631 0)
(0.00079071 0.184078 0)
(0.000608378 0.190501 0)
(0.000428122 0.19786 0)
(0.000261481 0.206016 0)
(0.000105265 0.214543 0)
(3.39918e-05 0.219686 0)
(-0.0930806 0.244497 0)
(-0.0844086 0.240942 0)
(-0.0763674 0.237269 0)
(-0.0689196 0.233471 0)
(-0.0620298 0.229564 0)
(-0.0556667 0.225576 0)
(-0.0498015 0.221538 0)
(-0.0444064 0.217482 0)
(-0.0394547 0.213439 0)
(-0.0349204 0.209438 0)
(-0.0307789 0.2055 0)
(-0.027006 0.201647 0)
(-0.0235788 0.197894 0)
(-0.0204753 0.194256 0)
(-0.0176744 0.190743 0)
(-0.015156 0.187366 0)
(-0.0129009 0.184135 0)
(-0.0108911 0.181062 0)
(-0.00910941 0.178159 0)
(-0.00753939 0.175444 0)
(-0.00616568 0.172936 0)
(-0.00497363 0.17066 0)
(-0.00394929 0.168648 0)
(-0.00307927 0.166938 0)
(-0.00235074 0.165572 0)
(-0.00175122 0.164603 0)
(-0.00126852 0.164087 0)
(-0.000890659 0.164087 0)
(-0.00060577 0.16467 0)
(-0.000401947 0.165904 0)
(-0.000267162 0.16786 0)
(-0.000189173 0.170606 0)
(-0.000155478 0.174208 0)
(-0.000153312 0.17872 0)
(-0.000169723 0.184182 0)
(-0.000191707 0.190607 0)
(-0.000206539 0.197955 0)
(-0.000202941 0.20609 0)
(-0.000192034 0.214593 0)
(-9.752e-05 0.219634 0)
(-0.0984072 0.234649 0)
(-0.0896845 0.231791 0)
(-0.0815783 0.228775 0)
(-0.0740525 0.225597 0)
(-0.067073 0.222277 0)
(-0.0606101 0.218843 0)
(-0.0546359 0.215329 0)
(-0.049124 0.211768 0)
(-0.0440486 0.208192 0)
(-0.039385 0.204629 0)
(-0.0351091 0.201105 0)
(-0.031198 0.19764 0)
(-0.0276294 0.194251 0)
(-0.0243822 0.190953 0)
(-0.0214359 0.187758 0)
(-0.0187711 0.184679 0)
(-0.0163692 0.181725 0)
(-0.0142127 0.178911 0)
(-0.0122846 0.176249 0)
(-0.0105691 0.173757 0)
(-0.00905088 0.171455 0)
(-0.00771557 0.169371 0)
(-0.00654925 0.167536 0)
(-0.00553856 0.165987 0)
(-0.00467054 0.16477 0)
(-0.00393253 0.163935 0)
(-0.00331212 0.163541 0)
(-0.002797 0.163649 0)
(-0.00237489 0.164326 0)
(-0.00203342 0.165642 0)
(-0.00176004 0.167666 0)
(-0.00154191 0.170467 0)
(-0.0013659 0.174108 0)
(-0.0012186 0.178646 0)
(-0.00108637 0.184119 0)
(-0.000955539 0.19054 0)
(-0.000812753 0.197873 0)
(-0.000647281 0.205982 0)
(-0.000477546 0.214465 0)
(-0.000226664 0.219352 0)
(-0.102949 0.224694 0)
(-0.0942305 0.222522 0)
(-0.0861098 0.220151 0)
(-0.0785523 0.217583 0)
(-0.0715261 0.21484 0)
(-0.0650029 0.211954 0)
(-0.0589568 0.208957 0)
(-0.0533626 0.205886 0)
(-0.0481958 0.202773 0)
(-0.0434328 0.199647 0)
(-0.039051 0.196534 0)
(-0.0350282 0.193455 0)
(-0.0313432 0.19043 0)
(-0.0279757 0.187472 0)
(-0.0249061 0.184597 0)
(-0.0221155 0.181816 0)
(-0.0195863 0.179142 0)
(-0.0173011 0.176588 0)
(-0.0152437 0.174169 0)
(-0.0133986 0.171902 0)
(-0.0117508 0.169811 0)
(-0.0102861 0.167921 0)
(-0.00899084 0.166264 0)
(-0.00785163 0.16488 0)
(-0.00685551 0.163813 0)
(-0.00598973 0.163115 0)
(-0.00524168 0.162843 0)
(-0.00459881 0.16306 0)
(-0.00404852 0.163833 0)
(-0.00357804 0.16523 0)
(-0.00317437 0.167321 0)
(-0.00282417 0.170174 0)
(-0.00251377 0.173853 0)
(-0.0022292 0.178413 0)
(-0.00195624 0.183894 0)
(-0.00168062 0.190307 0)
(-0.00138839 0.197618 0)
(-0.00106924 0.205696 0)
(-0.000745234 0.214152 0)
(-0.000345983 0.218863 0)
(-0.106704 0.214697 0)
(-0.0980446 0.21319 0)
(-0.0899587 0.211448 0)
(-0.082415 0.209476 0)
(-0.075384 0.207299 0)
(-0.0688397 0.204949 0)
(-0.062758 0.202461 0)
(-0.0571154 0.199873 0)
(-0.0518891 0.197216 0)
(-0.0470568 0.194521 0)
(-0.042597 0.191815 0)
(-0.0384889 0.18912 0)
(-0.0347123 0.186455 0)
(-0.0312478 0.183837 0)
(-0.0280767 0.18128 0)
(-0.0251811 0.178798 0)
(-0.0225437 0.176403 0)
(-0.0201481 0.17411 0)
(-0.0179784 0.171935 0)
(-0.0160197 0.169896 0)
(-0.0142574 0.168015 0)
(-0.0126775 0.166321 0)
(-0.0112665 0.164845 0)
(-0.0100112 0.163627 0)
(-0.00889867 0.162711 0)
(-0.00791613 0.162151 0)
(-0.00705085 0.162003 0)
(-0.00629012 0.16233 0)
(-0.00562107 0.163197 0)
(-0.00503064 0.164675 0)
(-0.00450542 0.166832 0)
(-0.00403168 0.169736 0)
(-0.00359528 0.17345 0)
(-0.00318176 0.178029 0)
(-0.00277642 0.183513 0)
(-0.00236439 0.189913 0)
(-0.0019311 0.197197 0)
(-0.00146638 0.205238 0)
(-0.000992907 0.213656 0)
(-0.000451994 0.218183 0)
(-0.109681 0.204719 0)
(-0.101131 0.203852 0)
(-0.0931275 0.202717 0)
(-0.0856414 0.201322 0)
(-0.0786464 0.199695 0)
(-0.0721188 0.197868 0)
(-0.0660369 0.195877 0)
(-0.0603791 0.193761 0)
(-0.0551243 0.191552 0)
(-0.0502519 0.189281 0)
(-0.0457417 0.186976 0)
(-0.0415742 0.184659 0)
(-0.0377304 0.182351 0)
(-0.034192 0.180069 0)
(-0.0309411 0.177828 0)
(-0.0279607 0.175643 0)
(-0.0252345 0.173527 0)
(-0.0227466 0.171494 0)
(-0.0204817 0.169563 0)
(-0.0184255 0.167751 0)
(-0.0165637 0.166082 0)
(-0.0148828 0.164584 0)
(-0.0133695 0.163289 0)
(-0.0120107 0.162238 0)
(-0.0107937 0.161476 0)
(-0.00970569 0.161053 0)
(-0.00873389 0.161029 0)
(-0.00786549 0.161465 0)
(-0.00708746 0.162428 0)
(-0.00638647 0.163985 0)
(-0.00574883 0.166206 0)
(-0.00516047 0.169159 0)
(-0.00460688 0.172905 0)
(-0.00407317 0.1775 0)
(-0.00354418 0.182982 0)
(-0.00300452 0.189365 0)
(-0.00243891 0.196617 0)
(-0.00183725 0.204614 0)
(-0.00122158 0.212984 0)
(-0.000546704 0.217321 0)
(-0.111895 0.19482 0)
(-0.103502 0.194563 0)
(-0.0956249 0.194009 0)
(-0.0882377 0.19317 0)
(-0.0813171 0.192072 0)
(-0.0748426 0.190751 0)
(-0.0687945 0.189243 0)
(-0.0631534 0.187586 0)
(-0.0579003 0.185813 0)
(-0.053016 0.183957 0)
(-0.0484822 0.182045 0)
(-0.0442806 0.1801 0)
(-0.0403934 0.178143 0)
(-0.0368035 0.176192 0)
(-0.0334942 0.174263 0)
(-0.0304492 0.172372 0)
(-0.0276531 0.170531 0)
(-0.0250908 0.168758 0)
(-0.0227477 0.167069 0)
(-0.0206099 0.165484 0)
(-0.0186638 0.164026 0)
(-0.0168962 0.162724 0)
(-0.015294 0.161611 0)
(-0.0138445 0.160726 0)
(-0.0125351 0.160116 0)
(-0.011353 0.159832 0)
(-0.0102857 0.159931 0)
(-0.00932004 0.160476 0)
(-0.00844307 0.161532 0)
(-0.00764124 0.163168 0)
(-0.00690065 0.165451 0)
(-0.00620696 0.16845 0)
(-0.00554533 0.172226 0)
(-0.00490056 0.176832 0)
(-0.00425707 0.18231 0)
(-0.00359896 0.18867 0)
(-0.00291031 0.195883 0)
(-0.00218104 0.203829 0)
(-0.00143231 0.212141 0)
(-0.00063261 0.216291 0)
(-0.113367 0.185055 0)
(-0.105175 0.185375 0)
(-0.0974646 0.185373 0)
(-0.0902146 0.185062 0)
(-0.0834048 0.184472 0)
(-0.0770172 0.183637 0)
(-0.0710351 0.182594 0)
(-0.0654412 0.181381 0)
(-0.0602183 0.180032 0)
(-0.0553495 0.178579 0)
(-0.0508178 0.177049 0)
(-0.0466064 0.175467 0)
(-0.042699 0.173854 0)
(-0.0390796 0.172229 0)
(-0.0357326 0.170607 0)
(-0.0326427 0.169005 0)
(-0.0297954 0.167437 0)
(-0.0271764 0.165919 0)
(-0.0247718 0.16447 0)
(-0.0225683 0.16311 0)
(-0.0205528 0.161862 0)
(-0.0187126 0.160754 0)
(-0.0170351 0.159821 0)
(-0.0155077 0.159103 0)
(-0.014118 0.158644 0)
(-0.0128535 0.158497 0)
(-0.0117016 0.158719 0)
(-0.0106495 0.159371 0)
(-0.00968384 0.16052 0)
(-0.00879115 0.162232 0)
(-0.00795734 0.164576 0)
(-0.00716787 0.167618 0)
(-0.0064077 0.17142 0)
(-0.00566133 0.176036 0)
(-0.00491286 0.181503 0)
(-0.00414591 0.187837 0)
(-0.003344 0.195005 0)
(-0.00249709 0.202892 0)
(-0.00162537 0.211137 0)
(-0.00071085 0.215101 0)
(-0.114125 0.175478 0)
(-0.106172 0.176336 0)
(-0.0986657 0.176853 0)
(-0.0915877 0.177043 0)
(-0.0849216 0.176934 0)
(-0.0786526 0.176563 0)
(-0.0727664 0.175966 0)
(-0.0672482 0.17518 0)
(-0.0620828 0.174239 0)
(-0.0572553 0.173175 0)
(-0.0527502 0.172017 0)
(-0.0485525 0.170788 0)
(-0.0446471 0.16951 0)
(-0.0410193 0.168202 0)
(-0.0376547 0.16688 0)
(-0.034539 0.165562 0)
(-0.0316587 0.164261 0)
(-0.0290002 0.162996 0)
(-0.0265505 0.161784 0)
(-0.0242969 0.160645 0)
(-0.0222269 0.159604 0)
(-0.0203282 0.158689 0)
(-0.0185887 0.157935 0)
(-0.0169962 0.15738 0)
(-0.0155384 0.157072 0)
(-0.0142032 0.15706 0)
(-0.012978 0.157403 0)
(-0.0118501 0.158161 0)
(-0.0108063 0.1594 0)
(-0.00983285 0.161187 0)
(-0.00891578 0.163589 0)
(-0.00804036 0.166672 0)
(-0.0071914 0.170498 0)
(-0.00635318 0.175118 0)
(-0.00550954 0.180572 0)
(-0.00464373 0.186873 0)
(-0.00373875 0.193991 0)
(-0.00278463 0.201812 0)
(-0.00180056 0.209981 0)
(-0.000781657 0.213764 0)
(-0.114203 0.166134 0)
(-0.106522 0.167492 0)
(-0.0992513 0.168493 0)
(-0.0923763 0.169152 0)
(-0.0858838 0.169498 0)
(-0.0797621 0.169566 0)
(-0.0739993 0.169393 0)
(-0.0685831 0.169014 0)
(-0.0635006 0.168465 0)
(-0.0587385 0.167776 0)
(-0.0542833 0.166975 0)
(-0.0501214 0.166087 0)
(-0.0462392 0.165134 0)
(-0.0426233 0.164134 0)
(-0.0392604 0.163105 0)
(-0.0361374 0.162063 0)
(-0.0332416 0.161025 0)
(-0.0305605 0.160006 0)
(-0.0280817 0.159026 0)
(-0.0257933 0.158105 0)
(-0.0236833 0.157267 0)
(-0.0217401 0.156543 0)
(-0.0199519 0.155964 0)
(-0.0183068 0.155572 0)
(-0.0167932 0.155411 0)
(-0.0153989 0.155533 0)
(-0.0141117 0.155995 0)
(-0.0129189 0.156857 0)
(-0.0118074 0.158184 0)
(-0.0107636 0.160043 0)
(-0.00977333 0.162501 0)
(-0.00882195 0.165622 0)
(-0.00789415 0.169467 0)
(-0.00697407 0.174089 0)
(-0.00604536 0.179525 0)
(-0.00509094 0.185789 0)
(-0.0040934 0.192852 0)
(-0.00304288 0.200601 0)
(-0.00195748 0.208685 0)
(-0.000844928 0.21229 0)
(-0.113637 0.157065 0)
(-0.106256 0.158881 0)
(-0.0992483 0.160329 0)
(-0.0926031 0.161425 0)
(-0.0863107 0.162197 0)
(-0.0803618 0.162678 0)
(-0.0747474 0.162906 0)
(-0.0694574 0.162914 0)
(-0.064481 0.162738 0)
(-0.0598068 0.162407 0)
(-0.0554231 0.161949 0)
(-0.0513178 0.16139 0)
(-0.0474789 0.16075 0)
(-0.0438941 0.160048 0)
(-0.0405514 0.159302 0)
(-0.0374388 0.158529 0)
(-0.0345445 0.157745 0)
(-0.0318569 0.156967 0)
(-0.0293646 0.156214 0)
(-0.0270562 0.155506 0)
(-0.0249205 0.154868 0)
(-0.0229463 0.154329 0)
(-0.0211224 0.153924 0)
(-0.0194375 0.15369 0)
(-0.01788 0.153675 0)
(-0.0164383 0.153928 0)
(-0.0151002 0.154506 0)
(-0.0138534 0.155469 0)
(-0.0126848 0.156882 0)
(-0.011581 0.15881 0)
(-0.0105278 0.161321 0)
(-0.00951061 0.164477 0)
(-0.00851407 0.168338 0)
(-0.00752229 0.172958 0)
(-0.00651879 0.178372 0)
(-0.00548625 0.184595 0)
(-0.00440693 0.191597 0)
(-0.00327109 0.199268 0)
(-0.00209571 0.207259 0)
(-0.000900479 0.210691 0)
(-0.112468 0.148306 0)
(-0.105408 0.150539 0)
(-0.0986863 0.152397 0)
(-0.0922939 0.153896 0)
(-0.0862241 0.155063 0)
(-0.0804705 0.155931 0)
(-0.0750266 0.156535 0)
(-0.0698845 0.156909 0)
(-0.0650354 0.157085 0)
(-0.0604698 0.157095 0)
(-0.0561776 0.156965 0)
(-0.0521483 0.15672 0)
(-0.0483714 0.15638 0)
(-0.0448358 0.155965 0)
(-0.0415307 0.155493 0)
(-0.0384453 0.15498 0)
(-0.0355688 0.154442 0)
(-0.0328903 0.153898 0)
(-0.0303995 0.153365 0)
(-0.0280855 0.152864 0)
(-0.0259379 0.152421 0)
(-0.0239461 0.152064 0)
(-0.0220993 0.151827 0)
(-0.0203868 0.151749 0)
(-0.0187974 0.151875 0)
(-0.0173197 0.152255 0)
(-0.0159419 0.152947 0)
(-0.0146519 0.154009 0)
(-0.0134368 0.155504 0)
(-0.0122834 0.157499 0)
(-0.0111775 0.160059 0)
(-0.0101047 0.163247 0)
(-0.00904968 0.167122 0)
(-0.00799649 0.171736 0)
(-0.00692863 0.177125 0)
(-0.00582863 0.183302 0)
(-0.00467849 0.190238 0)
(-0.00346863 0.197824 0)
(-0.00221487 0.205715 0)
(-0.000948147 0.20898 0)
(-0.110736 0.139887 0)
(-0.104016 0.142494 0)
(-0.0975972 0.144725 0)
(-0.0914761 0.146594 0)
(-0.0856481 0.148126 0)
(-0.0801092 0.149353 0)
(-0.0748552 0.150308 0)
(-0.0698801 0.151024 0)
(-0.0651773 0.151533 0)
(-0.0607388 0.151865 0)
(-0.0565564 0.152046 0)
(-0.0526211 0.152099 0)
(-0.0489235 0.152047 0)
(-0.045454 0.151907 0)
(-0.042203 0.151697 0)
(-0.0391607 0.151434 0)
(-0.0363173 0.151134 0)
(-0.0336629 0.150815 0)
(-0.0311878 0.150495 0)
(-0.0288821 0.150196 0)
(-0.026736 0.149942 0)
(-0.0247395 0.149761 0)
(-0.0228823 0.149688 0)
(-0.0211542 0.149761 0)
(-0.0195445 0.150024 0)
(-0.0180422 0.150529 0)
(-0.0166358 0.15133 0)
(-0.0153133 0.152487 0)
(-0.0140623 0.154063 0)
(-0.0128696 0.156121 0)
(-0.0117214 0.158727 0)
(-0.0106032 0.161944 0)
(-0.00949989 0.165829 0)
(-0.00839567 0.170433 0)
(-0.00727398 0.175793 0)
(-0.00611729 0.18192 0)
(-0.00490745 0.188787 0)
(-0.00363505 0.196283 0)
(-0.00231471 0.204067 0)
(-0.000987843 0.20717 0)
(-0.108484 0.13183 0)
(-0.102115 0.134772 0)
(-0.0960139 0.137339 0)
(-0.0901789 0.139543 0)
(-0.0846083 0.14141 0)
(-0.0793003 0.142968 0)
(-0.0742526 0.144249 0)
(-0.0694614 0.145284 0)
(-0.0649215 0.146106 0)
(-0.060627 0.14674 0)
(-0.0565709 0.147214 0)
(-0.0527457 0.147551 0)
(-0.0491435 0.147771 0)
(-0.0457558 0.147893 0)
(-0.0425742 0.147934 0)
(-0.0395899 0.14791 0)
(-0.0367941 0.147839 0)
(-0.0341779 0.147737 0)
(-0.0317323 0.147622 0)
(-0.0294482 0.147517 0)
(-0.0273164 0.147445 0)
(-0.0253276 0.147435 0)
(-0.0234722 0.14752 0)
(-0.0217403 0.14774 0)
(-0.0201217 0.148137 0)
(-0.0186058 0.148761 0)
(-0.0171815 0.149669 0)
(-0.0158372 0.150917 0)
(-0.0145607 0.152569 0)
(-0.013339 0.154687 0)
(-0.0121586 0.157337 0)
(-0.0110053 0.160579 0)
(-0.00986408 0.164471 0)
(-0.00871921 0.169062 0)
(-0.00755428 0.174389 0)
(-0.00635176 0.180462 0)
(-0.00509342 0.187254 0)
(-0.00377005 0.194656 0)
(-0.00239508 0.202326 0)
(-0.00101954 0.205275 0)
(-0.105754 0.124154 0)
(-0.0997438 0.127392 0)
(-0.0939699 0.130259 0)
(-0.0884323 0.132767 0)
(-0.0831313 0.134938 0)
(-0.0780674 0.136799 0)
(-0.0732399 0.13838 0)
(-0.0686468 0.139712 0)
(-0.0642845 0.140824 0)
(-0.0601485 0.141742 0)
(-0.0562335 0.142491 0)
(-0.0525332 0.143095 0)
(-0.0490409 0.143573 0)
(-0.0457495 0.143943 0)
(-0.0426514 0.144222 0)
(-0.0397391 0.144427 0)
(-0.0370045 0.144573 0)
(-0.0344398 0.144679 0)
(-0.0320366 0.144762 0)
(-0.0297868 0.144843 0)
(-0.0276816 0.144947 0)
(-0.0257125 0.145101 0)
(-0.0238705 0.145339 0)
(-0.0221461 0.145699 0)
(-0.0205296 0.146224 0)
(-0.019011 0.146965 0)
(-0.0175795 0.147974 0)
(-0.0162238 0.14931 0)
(-0.0149321 0.151034 0)
(-0.0136916 0.153209 0)
(-0.0124893 0.155898 0)
(-0.011311 0.159162 0)
(-0.010142 0.163058 0)
(-0.0089669 0.167633 0)
(-0.00776932 0.172924 0)
(-0.00653182 0.17894 0)
(-0.00523622 0.185654 0)
(-0.00387353 0.192957 0)
(-0.00245594 0.200508 0)
(-0.00104326 0.203309 0)
(-0.102587 0.116872 0)
(-0.0969396 0.120369 0)
(-0.0914988 0.123503 0)
(-0.0862663 0.126282 0)
(-0.0812443 0.128728 0)
(-0.0764348 0.130865 0)
(-0.0718388 0.132722 0)
(-0.0674556 0.134327 0)
(-0.0632834 0.135708 0)
(-0.0593188 0.13689 0)
(-0.0555579 0.137897 0)
(-0.0519956 0.138751 0)
(-0.0486264 0.139471 0)
(-0.0454443 0.140075 0)
(-0.0424429 0.14058 0)
(-0.0396154 0.141001 0)
(-0.0369548 0.141355 0)
(-0.034454 0.141659 0)
(-0.0321055 0.14193 0)
(-0.0299018 0.142189 0)
(-0.0278351 0.142461 0)
(-0.0258971 0.142772 0)
(-0.0240796 0.143157 0)
(-0.0223737 0.143652 0)
(-0.0207702 0.144301 0)
(-0.0192593 0.145152 0)
(-0.0178309 0.146258 0)
(-0.016474 0.147678 0)
(-0.0151771 0.14947 0)
(-0.013928 0.151698 0)
(-0.0127137 0.154424 0)
(-0.0115205 0.157706 0)
(-0.010334 0.161602 0)
(-0.0091389 0.166159 0)
(-0.00791918 0.17141 0)
(-0.00665753 0.177366 0)
(-0.00533587 0.183999 0)
(-0.00394547 0.191199 0)
(-0.0024973 0.198626 0)
(-0.00105897 0.201286 0)
(-0.0990231 0.109992 0)
(-0.0937384 0.113715 0)
(-0.0886334 0.117083 0)
(-0.0837108 0.120104 0)
(-0.0789742 0.122797 0)