/*--------------------------------*- C++ -*----------------------------------*\
| =========                 |                                                 |
| \\      /  F ield         | OpenFOAM: The Open Source CFD Toolbox           |
|  \\    /   O peration     | Version:  5.0                                   |
|   \\  /    A nd           | Web:      www.OpenFOAM.org                      |
|    \\/     M anipulation  |                                                 |
\*---------------------------------------------------------------------------*/
FoamFile
{
    version     2.0;
    format      ascii;
    class       volScalarField;
    location    "0.25";
    object      alpha.water;
}
// * * * * * * * * * * * * * * * * * * * * * * * * * * * * * * * * * * * * * //

dimensions      [0 0 0 0 0 0 0];

internalField   nonuniform List<scalar> 
1915
(
0.85758
0.831536
0.988313
1
0.999986
0.992203
0.999998
0.997967
1
1
1
1
1
1
1
1
1
1
0.999998
0.999997
1.79607e-24
3.05579e-23
6.30793e-23
5.94481e-23
2.10258e-23
3.6762e-24
3.15076e-25
1.77112e-26
9.25254e-28
8.46922e-29
1.17605e-29
1.63892e-30
2.06179e-31
2.30459e-32
2.29647e-33
2.07642e-34
1.73798e-35
1.35657e-36
9.84726e-38
6.63539e-39
4.14011e-40
2.38497e-41
1.26446e-42
6.14954e-44
2.73444e-45
1.1059e-46
4.04667e-48
1.33051e-49
3.89549e-51
1.00485e-52
2.26166e-54
4.32771e-56
6.85181e-58
8.67356e-60
8.36719e-62
5.734e-64
2.50254e-66
5.76395e-69
5.3425e-72
4.94905e-75
1.70318e-22
2.81416e-21
7.1477e-21
8.2794e-21
3.90896e-21
6.39698e-22
6.25446e-23
4.04692e-24
2.73847e-25
2.28754e-26
2.19537e-27
2.16376e-28
2.05557e-29
1.83396e-30
1.52693e-31
1.19332e-32
8.8322e-34
6.19382e-35
4.09195e-36
2.53273e-37
1.46086e-38
7.81961e-40
3.87156e-41
1.76695e-42
7.40412e-44
2.83475e-45
9.85914e-47
3.09303e-48
8.67132e-50
2.14871e-51
4.63917e-53
8.56661e-55
1.32222e-56
1.65367e-58
1.6074e-60
1.14516e-62
5.4808e-65
1.54976e-67
2.28091e-70
2.97952e-73
8.64181e-21
1.69313e-19
4.91347e-19
6.13302e-19
2.98328e-19
4.72347e-20
4.98078e-21
3.70642e-22
2.77818e-23
2.17705e-24
1.72496e-25
1.33934e-26
1.00047e-27
7.13223e-29
4.84912e-30
3.15879e-31
1.98007e-32
1.19165e-33
6.83639e-35
3.71073e-36
1.89346e-37
9.03656e-39
4.01737e-40
1.65725e-41
6.31753e-43
2.21514e-44
7.10362e-46
2.0693e-47
5.42882e-49
1.26983e-50
2.61412e-52
4.66198e-54
7.05686e-56
8.82758e-58
8.80565e-60
6.65925e-62
3.53064e-64
1.14167e-66
1.62528e-69
1.0761e-72
3.11667e-19
7.03419e-18
2.2266e-17
2.90539e-17
1.40604e-17
2.28413e-18
2.62413e-19
2.13897e-20
1.63136e-21
1.20311e-22
8.40633e-24
5.51676e-25
3.41371e-26
2.00851e-27
1.13472e-28
6.21174e-30
3.30829e-31
1.70944e-32
8.50664e-34
4.04403e-35
1.82398e-36
7.75915e-38
3.09781e-39
1.15551e-40
4.00871e-42
1.28721e-43
3.80389e-45
1.02768e-46
2.51799e-48
5.54228e-50
1.0832e-51
1.85327e-53
2.72603e-55
3.36673e-57
3.38144e-59
2.63548e-61
1.47287e-63
4.92502e-66
6.78527e-69
1.737e-72
9.53781e-18
2.40309e-16
8.14126e-16
1.09977e-15
5.1935e-16
8.11372e-17
8.90311e-18
7.28423e-19
5.65559e-20
4.06847e-21
2.63133e-22
1.54386e-23
8.36656e-25
4.26494e-26
2.08055e-27
9.84364e-29
4.54111e-30
2.03976e-31
8.87227e-33
3.71362e-34
1.48625e-35
5.6533e-37
2.03288e-38
6.87606e-40
2.17697e-41
6.41813e-43
1.75192e-44
4.39853e-46
1.00798e-47
2.08947e-49
3.87574e-51
6.34874e-53
9.03337e-55
1.09219e-56
1.08836e-58
8.52538e-61
4.79961e-63
1.62087e-65
1.92762e-68
3.8718e-72
2.90887e-16
7.09305e-15
2.26557e-14
2.90695e-14
1.01224e-14
1.50559e-15
1.49157e-16
1.34041e-17
1.14701e-18
8.45136e-20
5.27272e-21
2.88802e-22
1.43693e-23
6.6602e-25
2.9326e-26
1.24452e-27
5.1254e-29
2.04911e-30
7.93257e-32
2.96326e-33
1.06313e-34
3.64437e-36
1.18768e-37
3.66144e-39
1.06247e-40
2.8869e-42
7.30267e-44
1.70863e-45
3.67023e-47
7.17555e-49
1.26373e-50
1.97986e-52
2.71573e-54
3.19227e-56
3.1171e-58
2.40099e-60
1.31429e-62
4.33229e-65
3.94356e-68
6.29845e-72
6.75731e-15
1.22369e-13
3.27468e-13
3.8586e-13
7.73904e-14
1.20257e-14
1.29992e-15
1.42199e-16
1.37236e-17
1.05426e-18
6.62877e-20
3.55529e-21
1.69873e-22
7.46414e-24
3.08271e-25
1.21476e-26
4.60791e-28
1.68688e-29
5.96098e-31
2.03005e-32
6.64363e-34
2.08186e-35
6.22038e-37
1.76443e-38
4.72949e-40
1.19205e-41
2.80958e-43
6.15349e-45
1.24338e-46
2.29849e-48
3.84854e-50
5.76518e-52
7.60489e-54
8.64182e-56
8.18055e-58
6.06929e-60
3.21673e-62
9.71784e-65
4.08374e-68
7.53262e-72
1.53686e-13
1.42535e-12
2.46831e-12
1.37372e-12
3.07604e-13
6.14385e-14
8.54474e-15
9.1448e-16
9.22329e-17
7.40363e-18
4.91416e-19
2.73765e-20
1.32985e-21
5.81305e-23
2.34559e-24
8.88735e-26
3.20072e-27
1.10316e-28
3.65102e-30
1.16068e-31
3.53955e-33
1.033e-34
2.87597e-36
7.61132e-38
1.90721e-39
4.50466e-41
9.97795e-43
2.06051e-44
3.93984e-46
6.91886e-48
1.10505e-49
1.58558e-51
2.01087e-53
2.20241e-55
2.00685e-57
1.42588e-59
7.23932e-62
1.96562e-64
5.75168e-68
9.37042e-72
3.17786e-12
1.24416e-11
1.21201e-11
4.24165e-12
9.14149e-13
3.09854e-13
5.08091e-14
4.20783e-15
3.74671e-16
3.1124e-17
2.19445e-18
1.30196e-19
6.67826e-21
3.03141e-22
1.24758e-23
4.733e-25
1.67694e-26
5.60864e-28
1.78367e-29
5.41521e-31
1.57121e-32
4.35343e-34
1.14944e-35
2.88402e-37
6.85403e-39
1.53687e-40
3.23642e-42
6.36606e-44
1.1621e-45
1.95343e-47
2.99467e-49
4.13561e-51
5.05947e-53
5.34904e-55
4.69006e-57
3.19648e-59
1.53786e-61
3.63164e-64
7.92718e-68
1.08488e-71
9.42289e-12
2.30372e-11
1.79793e-11
4.42014e-12
1.8223e-12
7.90858e-13
2.18569e-13
2.34248e-14
1.34234e-15
1.0678e-16
7.32579e-18
4.43789e-19
2.3489e-20
1.1041e-21
4.6899e-23
1.8236e-24
6.54612e-26
2.18822e-27
6.86868e-29
2.03814e-30
5.74036e-32
1.53693e-33
3.9111e-35
9.44555e-37
2.15965e-38
4.65956e-40
9.4475e-42
1.7911e-43
3.15575e-45
5.12891e-47
7.61812e-49
1.02163e-50
1.21597e-52
1.25208e-54
1.06871e-56
7.01292e-59
3.14856e-61
6.05961e-64
1.0093e-67
1.19073e-71
0.999998
0.999999
0.999999
1
1
1
1
1
1
1
1
1
1
1
1
1
1.00005
1.00001
0.992997
0.999907
0.996024
0.858075
0.649818
0.268733
0.0558757
0.000229228
0.000144754
4.51857e-05
1.25923e-05
-5.15936e-06
5.42478e-07
5.13985e-07
1.8565e-07
4.4366e-06
6.58502e-06
9.45954e-06
9.24131e-06
3.33564e-06
2.68123e-07
7.51079e-08
2.112e-08
4.32866e-09
7.90478e-10
0.362047
1.12522e-28
1.16517e-11
2.01926e-11
0.632427
0.0260539
1.71306e-11
2.64699e-11
1.00123
0.176813
1.75354e-11
3.22889e-11
1.00262
0.56778
0.0278273
-5.66481e-05
1.00055
0.99628
0.219413
0.00296858
1.00007
1.00007
0.490648
0.0252565
1.00009
1.00062
0.933311
0.15186
1.00003
1.00012
0.99864
0.279621
0.999879
0.999772
0.999121
0.565613
0.999792
0.99913
0.998526
0.767919
0.998901
0.998517
0.997901
0.875906
0.996265
0.997898
0.996042
0.909441
0.991598
0.995736
0.994741
0.93071
0.93526
0.992732
0.993917
0.930998
0.84121
0.990219
0.992268
0.925258
0.736939
0.978804
0.984839
0.900376
0.652901
0.960402
0.908947
0.681881
0.625356
0.944489
0.810079
0.16702
0.586464
0.930465
0.8757
0.136168
0.354717
0.911707
0.8936
0.546076
0.0234509
0.806651
0.87761
0.868195
-3.18379e-06
0.386144
0.794922
0.806198
8.84021e-06
0.00792689
0.367814
0.48511
1.73704e-05
0.00176968
0.0217828
0.0800677
0.000468269
0.000923456
0.00623546
0.0100243
0.000327564
0.000524282
0.00193284
0.00293556
4.78102e-05
0.000200352
0.000525721
0.000767825
6.85874e-06
4.89242e-05
0.000119299
0.000178211
1.80428e-06
1.0346e-05
2.45813e-05
3.69825e-05
5.11073e-07
1.85706e-06
4.63017e-06
6.93855e-06
9.81643e-08
3.02272e-07
8.02704e-07
1.18917e-06
1.57748e-08
4.98178e-08
1.28972e-07
1.87843e-07
2.58894e-09
7.83404e-09
1.93301e-08
2.75613e-08
1.74108e-11
2.32481e-11
1.04822e-11
3.90921e-12
2.21e-12
1.50939e-12
8.12087e-13
2.0897e-13
1.4187e-14
6.60011e-16
2.91428e-17
1.53831e-18
7.5864e-20
3.43742e-21
1.43531e-22
5.56494e-24
2.00806e-25
6.74923e-27
2.11994e-28
6.25092e-30
1.73744e-31
4.5652e-33
1.13552e-34
2.67351e-36
5.95103e-38
1.24943e-39
2.46606e-41
4.55572e-43
7.83344e-45
1.24491e-46
1.81217e-48
2.38662e-50
2.79646e-52
2.84367e-54
2.40915e-56
1.57578e-58
6.81878e-61
1.0071e-63
1.21916e-67
1.44714e-71
2.97478e-11
2.5043e-11
1.17144e-11
6.32213e-12
5.3748e-12
3.45241e-12
2.79314e-12
1.47934e-12
2.69243e-13
9.77479e-15
2.85647e-16
9.563e-18
3.49891e-19
1.29434e-20
4.69849e-22
1.6542e-23
5.61044e-25
1.81617e-26
5.57377e-28
1.61707e-29
4.43275e-31
1.14881e-32
2.81602e-34
6.52635e-36
1.42825e-37
2.94437e-39
5.70095e-41
1.03309e-42
1.74484e-44
2.72976e-46
3.92211e-48
5.11928e-50
5.97728e-52
6.10304e-54
5.25773e-56
3.5842e-58
1.68988e-60
3.49029e-63
2.85159e-67
2.43088e-71
2.88936e-10
3.78935e-10
1.72629e-10
1.11e-11
1.61889e-11
9.26263e-12
7.78099e-12
6.35628e-12
2.70661e-12
1.12077e-13
5.37279e-15
1.38606e-16
3.57395e-18
9.54836e-20
2.56743e-21
6.9789e-23
1.93388e-24
5.40694e-26
1.49587e-27
4.03011e-29
1.04637e-30
2.60258e-32
6.18113e-34
1.39895e-35
3.00843e-37
6.1264e-39
1.17691e-40
2.12228e-42
3.56891e-44
5.55996e-46
7.96137e-48
1.03722e-49
1.21262e-51
1.24742e-53
1.09593e-55
7.82618e-58
4.13013e-60
1.27412e-62
6.82318e-66
7.88377e-71
3.8943e-10
9.28829e-10
4.97472e-10
1.35915e-11
3.13592e-11
2.28985e-11
1.78194e-11
1.80687e-11
1.43933e-11
8.62627e-13
8.62806e-14
2.68089e-15
5.90882e-17
1.3277e-18
2.88615e-20
6.01376e-22
1.24562e-23
2.64421e-25
5.80985e-27
1.30463e-28
2.93211e-30
6.47972e-32
1.39251e-33
2.89289e-35
5.78071e-37
1.11003e-38
2.04109e-40
3.57354e-42
5.91419e-44
9.17733e-46
1.32311e-47
1.7518e-49
2.09296e-51
2.22174e-53
2.04139e-55
1.55911e-57
9.26961e-60
3.78962e-62
7.72777e-65
2.96538e-68
-6.34089e-05
4.4792e-10
3.98153e-10
6.15173e-11
6.227e-11
5.76788e-11
3.16691e-11
4.68311e-11
3.85155e-11
4.83597e-12
7.94026e-13
4.21776e-14
1.07007e-15
2.35525e-17
4.9271e-19
9.33657e-21
1.6498e-22
2.82262e-24
4.86774e-26
8.66483e-28
1.58884e-29
2.9373e-31
5.34121e-33
9.29203e-35
1.52964e-36
2.42325e-38
3.751e-40
5.70685e-42
8.49878e-44
1.22458e-45
1.68482e-47
2.17426e-49
2.58339e-51
2.77511e-53
2.62032e-55
2.10313e-57
1.36419e-59
6.5529e-62
1.97616e-64
2.41554e-67
0.000657262
-1.93641e-05
3.58462e-10
1.43338e-10
9.25916e-11
1.93883e-10
5.82098e-11
1.26407e-10
5.60866e-11
1.81283e-11
3.72844e-12
3.67672e-13
1.42062e-14
3.55063e-16
8.15015e-18
1.67302e-19
3.05568e-21
5.09315e-23
8.02199e-25
1.22951e-26
1.90764e-28
3.02426e-30
4.80546e-32
7.17838e-34
9.80432e-36
1.23774e-37
1.46705e-39
1.65395e-41
1.79679e-43
1.90534e-45
2.0058e-47
2.10734e-49
2.20065e-51
2.22612e-53
2.0954e-55
1.72872e-57
1.17221e-59
5.98693e-62
1.97876e-64
3.05559e-67
0.00258979
1.90066e-05
-1.14951e-06
-1.51758e-08
3.68471e-11
2.30118e-09
4.03052e-09
1.90615e-10
6.23506e-11
4.40409e-11
1.00254e-11
1.64764e-12
1.03463e-13
3.21033e-15
8.41397e-17
2.0268e-18
4.32553e-20
8.21547e-22
1.43301e-23
2.30134e-25
3.46262e-27
4.99203e-29
6.99218e-31
9.22739e-33
1.12335e-34
1.25923e-36
1.30436e-38
1.24799e-40
1.09022e-42
8.53021e-45
5.81251e-47
3.75398e-49
2.11047e-51
1.1838e-53
6.78669e-56
3.81796e-58
2.07415e-60
1.0038e-62
3.53989e-65
6.48611e-68
0.00512518
0.000245022
1.33359e-05
6.67653e-07
3.23772e-09
1.14533e-08
6.35695e-08
6.5019e-11
6.31584e-11
7.31438e-11
1.87129e-11
4.36264e-12
4.13792e-13
1.65337e-14
4.92786e-16
1.37729e-17
3.47381e-19
7.7278e-21
1.53411e-22
2.74467e-24
4.46508e-26
6.6802e-28
9.27098e-30
1.19575e-31
1.42392e-33
1.55345e-35
1.54795e-37
1.40159e-39
1.14058e-41
8.67539e-44
5.92615e-46
3.60916e-48
1.9568e-50
9.05321e-53
3.62412e-55
1.06171e-57
2.43856e-60
4.1412e-63
2.72272e-66
1.00556e-69
0.0279567
0.000700831
6.71109e-05
3.08349e-06
1.50801e-08
1.3736e-08
7.86607e-08
2.77472e-09
6.5019e-11
9.39846e-11
2.85129e-11
8.19305e-12
1.06358e-12
5.57686e-14
1.90038e-15
5.88129e-17
1.65243e-18
4.11697e-20
9.11051e-22
1.80682e-23
3.23339e-25
5.2561e-27
7.80736e-29
1.06297e-30
1.32577e-32
1.50896e-34
1.56221e-36
1.45926e-38
1.23123e-40
9.35607e-43
6.29953e-45
3.79339e-47
1.9913e-49
8.97813e-52
3.24725e-54
9.36085e-57
2.03532e-59
2.45423e-62
2.57663e-67
1.49197e-73
0.0755581
0.00128475
0.000160748
1.67915e-05
9.21929e-08
1.96562e-08
7.13379e-08
1.20667e-08
7.31496e-11
1.15213e-10
3.9319e-11
1.26351e-11
2.0991e-12
1.45884e-13
5.66238e-15
1.83846e-16
5.50816e-18
1.48248e-19
3.55512e-21
7.64137e-23
1.48079e-24
2.60005e-26
4.15509e-28
6.06388e-30
8.09079e-32
9.86062e-34
1.09479e-35
1.10048e-37
9.89535e-40
7.85079e-42
5.39674e-44
3.21853e-46
1.64787e-48
6.95158e-51
2.41875e-53
6.8793e-56
1.37613e-58
4.48765e-63
2.79511e-66
1.50737e-72
0.132131
0.00183855
0.000294299
7.66142e-05
5.31173e-05
3.47409e-07
1.86156e-08
2.14788e-08
1.20695e-09
1.58765e-10
5.18566e-11
1.75583e-11
3.60857e-12
3.30733e-13
1.4795e-14
4.91035e-16
1.51476e-17
4.28744e-19
1.08664e-20
2.46878e-22
5.05895e-24
9.39484e-26
1.58708e-27
2.44719e-29
3.45237e-31
4.45879e-33
5.26345e-35
5.65792e-37
5.499e-39
4.7715e-41
3.61444e-43
2.2912e-45
1.10671e-47
4.3994e-50
1.49882e-52
4.03463e-55
4.36434e-58
4.49544e-62
3.43211e-65
2.12528e-71
0.184865
0.00207643
0.000376332
0.00013064
9.58128e-05
8.54911e-06
1.4809e-08
1.47033e-08
1.91412e-09
2.31671e-10
6.61701e-11
2.29966e-11
5.71046e-12
6.80245e-13
3.58228e-14
1.2133e-15
3.79495e-17
1.1165e-18
2.9545e-20
6.99203e-22
1.49013e-23
2.87561e-25
5.0432e-27
8.0625e-29
1.17813e-30
1.5756e-32
1.92845e-34
2.156e-36
2.19219e-38
2.01173e-40
1.64335e-42
1.16748e-44
6.91776e-47
3.15195e-49
9.07324e-52
1.96242e-54
5.66057e-58
4.45598e-61
3.72521e-64
2.64932e-70
0.228249
0.00194585
0.000395896
0.00015534
0.000100794
1.30538e-05
7.70384e-09
1.39434e-09
1.16706e-09
2.75859e-10
8.16997e-11
2.9064e-11
8.5171e-12
1.28489e-12
7.96895e-14
2.78675e-15
8.90355e-17
2.74212e-18
7.60794e-20
1.87795e-21
4.1559e-23
8.29619e-25
1.49976e-26
2.46277e-28
3.68288e-30
5.02574e-32
6.26416e-34
7.12581e-36
7.37818e-38
6.91533e-40
5.81133e-42
4.31457e-44
2.76332e-46
1.45845e-48
5.75471e-51
1.28229e-53
2.81665e-57
3.72435e-60
3.33768e-63
2.72003e-69
0.249799
0.00199385
0.000384023
0.000150144
9.4231e-05
2.33339e-05
2.64998e-08
1.08111e-09
2.12615e-10
1.87008e-10
9.23073e-11
3.58956e-11
1.19376e-11
2.15408e-12
1.55315e-13
5.784e-15
1.92991e-16
6.30388e-18
1.85472e-19
4.83094e-21
1.12244e-22
2.34059e-24
4.39782e-26
7.46665e-28
1.1478e-29
1.60001e-31
2.02454e-33
2.32438e-35
2.41668e-37
2.26705e-39
1.90676e-41
1.42258e-43
9.23977e-46
5.06305e-48
2.20671e-50
6.56847e-53
6.76143e-56
2.86145e-59
2.71691e-62
2.53533e-68
0.243865
0.00250668
0.000370705
0.000125578
9.2405e-05
4.03209e-05
7.40863e-08
3.16217e-09
3.46393e-10
1.19297e-10
8.70248e-11
4.28148e-11
1.55394e-11
3.12647e-12
2.5894e-13
1.07883e-14
3.85056e-16
1.33742e-17
4.19038e-19
1.16076e-20
2.86079e-22
6.30925e-24
1.24963e-25
2.22837e-27
3.5827e-29
5.19557e-31
6.79435e-33
8.00339e-35
8.46652e-37
8.01518e-39
6.75307e-41
4.99741e-43
3.18179e-45
1.68722e-47
6.99995e-50
1.93916e-52
1.5595e-55
2.23932e-58
2.28002e-61
2.41169e-67
0.222992
0.0021182
0.000338676
0.000128239
0.000100351
4.56215e-05
1.65039e-07
1.25257e-08
1.85205e-09
2.1626e-10
7.82618e-11
4.66915e-11
1.85844e-11
4.02212e-12
3.86072e-13
1.87509e-14
7.2007e-16
2.63038e-17
8.73794e-19
2.57363e-20
6.7417e-22
1.57894e-23
3.31707e-25
6.26445e-27
1.06481e-28
1.62913e-30
2.24095e-32
2.76595e-34
3.05555e-36
3.00945e-38
2.61422e-40
1.97139e-42
1.26024e-44
6.53797e-47
2.50267e-49
4.98704e-52
8.46806e-55
1.80285e-57
1.94564e-60
2.31756e-66
0.129833
0.00109251
0.000297935
0.000125644
9.50005e-05
4.48231e-05
1.45033e-06
2.77239e-08
3.85395e-09
5.00326e-10
8.15523e-11
5.0518e-11
2.09663e-11
4.88324e-12
5.55772e-13
3.12851e-14
1.26334e-15
4.79027e-17
1.67866e-18
5.23834e-20
1.45414e-21
3.61082e-23
8.04449e-25
1.61088e-26
2.90226e-28
4.70374e-30
6.84876e-32
8.94547e-34
1.04635e-35
1.08735e-37
9.92317e-40
7.82246e-42
5.18284e-44
2.74277e-46
1.02469e-48
1.88975e-51
5.7542e-54
1.30417e-56
1.48325e-59
1.97196e-65
0.015394
0.00120484
0.000243732
8.85491e-05
5.8169e-05
3.96237e-05
6.33321e-06
6.07794e-08
8.79693e-09
1.2017e-09
1.53601e-10
5.15788e-11
2.25264e-11
6.06444e-12
7.9191e-13
4.85877e-14
2.02254e-15
7.97433e-17
2.93878e-18
9.66657e-20
2.83169e-21
7.42718e-23
1.7498e-24
3.70896e-26
7.07679e-28
1.21497e-29
1.87586e-31
2.60428e-33
3.23169e-35
3.55559e-37
3.43192e-39
2.85764e-41
1.9955e-43
1.10768e-45
4.2794e-48
9.63998e-51
3.29323e-53
7.86086e-56
9.3943e-59
1.38109e-64
0.00427549
0.000863603
0.000197336
6.25695e-05
4.19388e-05
3.57493e-05
8.92073e-06
1.10388e-07
2.157e-08
2.82843e-09
3.2571e-10
5.23555e-11
2.37534e-11
7.39335e-12
1.06465e-12
6.81587e-14
2.9208e-15
1.20344e-16
4.64111e-18
1.59893e-19
4.9173e-21
1.35645e-22
3.36516e-24
7.51955e-26
1.51434e-27
2.74922e-29
4.50148e-31
6.6176e-33
8.6898e-35
1.01254e-36
1.03578e-38
9.14812e-41
6.78625e-43
4.02111e-45
1.68739e-47
4.26392e-50
1.52621e-52
3.81686e-55
4.77193e-58
7.70327e-64
0.079871
0.00176528
0.000282117
8.23729e-05
4.9626e-05
3.3827e-05
9.10021e-06
4.13457e-07
5.31926e-08
6.70154e-09
7.43465e-10
8.99344e-11
2.46365e-11
8.57511e-12
1.3181e-12
8.46394e-14
3.8298e-15
1.65619e-16
6.62263e-18
2.37089e-19
7.60279e-21
2.19232e-22
5.69604e-24
1.33481e-25
2.82614e-27
5.40861e-29
9.32543e-31
1.44446e-32
2.00144e-34
2.46357e-36
2.66624e-38
2.49777e-40
1.97586e-42
1.26252e-44
5.91313e-47
1.58368e-49
5.66665e-52
1.47609e-54
1.92173e-57
3.44233e-63
0.586705
0.203007
0.0166674
0.000259178
7.37965e-05
4.23315e-05
8.97408e-06
1.28207e-06
1.50795e-07
1.65561e-08
1.67852e-09
1.91198e-10
2.47034e-11
9.30132e-12
1.46165e-12
9.58022e-14
4.67229e-15
2.0891e-16
8.57955e-18
3.17073e-19
1.05312e-20
3.15244e-22
8.52742e-24
2.0882e-25
4.62533e-27
9.2546e-29
1.67086e-30
2.71488e-32
3.95285e-34
5.12397e-36
5.85657e-38
5.81854e-40
4.91285e-42
3.39711e-44
1.79004e-46
5.86639e-49
1.71588e-51
4.59075e-54
6.19599e-57
1.39566e-62
0.735245
0.578016
0.15997
0.00180051
0.000321083
8.06687e-05
1.72821e-05
2.62032e-06
3.27849e-07
3.52406e-08
3.42239e-09
3.64218e-10
4.05895e-11
8.06357e-12
1.35492e-12
1.06071e-13
5.2475e-15
2.37123e-16
9.94246e-18
3.76662e-19
1.28718e-20
3.97835e-22
1.11351e-23
2.82364e-25
6.49093e-27
1.35193e-28
2.54707e-30
4.32892e-32
6.60995e-34
9.01269e-36
1.08671e-37
1.14469e-39
1.03506e-41
7.80941e-44
4.68071e-46
2.01203e-48
4.89816e-51
1.19073e-53
1.62869e-56
1.32555e-61
0.455985
0.38676
0.178998
0.0250417
0.000737488
0.000137815
2.74118e-05
4.14413e-06
5.21679e-07
5.75089e-08
5.60969e-09
5.45571e-10
6.16985e-11
5.32862e-12
1.23348e-12
1.07218e-13
4.97582e-15
2.2787e-16
9.6893e-18
3.72732e-19
1.29941e-20
4.11384e-22
1.18381e-23
3.0979e-25
7.37148e-27
1.59384e-28
3.12704e-30
5.54722e-32
8.86054e-34
1.26822e-35
1.61724e-37
1.81794e-39
1.77414e-41
1.47286e-43
1.00877e-45
5.41396e-48
2.04943e-50
4.33478e-53
4.49854e-56
5.16341e-60
0.0597573
0.0332449
0.0521899
0.0282243
0.00391558
0.000175118
3.00051e-05
4.46649e-06
5.73269e-07
6.38735e-08
6.24016e-09
5.42621e-10
5.72813e-11
5.21306e-12
8.96769e-13
6.78751e-14
3.28458e-15
1.54456e-16
6.66894e-18
2.61581e-19
9.33367e-21
3.03273e-22
8.97707e-24
2.42098e-25
5.94605e-27
1.32858e-28
2.69569e-30
4.96703e-32
8.28773e-34
1.24416e-35
1.66747e-37
1.97703e-39
2.04936e-41
1.82514e-43
1.36217e-45
8.24234e-48
3.87656e-50
1.28017e-52
2.4784e-55
1.72517e-58
0.00861996
0.005955
0.00327243
0.00507654
0.00233519
0.000291972
1.55207e-05
2.25377e-06
2.8362e-07
3.12387e-08
3.0425e-09
2.6496e-10
2.8661e-11
4.12533e-12
4.70207e-13
2.92724e-14
1.49521e-15
7.18603e-17
3.15296e-18
1.26174e-19
4.61034e-21
1.53938e-22
4.69925e-24
1.31176e-25
3.34751e-27
7.80401e-29
1.65985e-30
3.2067e-32
5.60602e-34
8.84122e-36
1.25039e-37
1.57342e-39
1.74233e-41
1.67338e-43
1.36803e-45
9.23853e-48
4.91257e-50
1.92583e-52
4.89354e-55
5.84263e-58
0.00248413
0.00163206
0.000839826
0.000352242
0.000203945
6.47889e-05
6.07576e-06
6.68142e-07
8.44356e-08
9.37339e-09
9.24501e-10
9.92053e-11
1.07764e-11
1.94634e-12
1.6431e-13
9.11754e-15
4.86159e-16
2.37752e-17
1.06005e-18
4.31512e-20
1.60563e-21
5.46579e-23
1.7031e-24
4.85819e-26
1.26835e-27
3.02827e-29
6.60296e-31
1.31184e-32
2.36737e-34
3.86457e-36
5.67451e-38
7.43802e-40
8.61579e-42
8.70076e-44
7.50685e-46
5.3873e-48
3.08612e-50
1.32351e-52
3.7626e-55
5.18569e-58
0.00064337
0.00040305
0.000196381
7.789e-05
2.50758e-05
6.773e-06
1.32254e-06
1.58141e-07
2.00732e-08
2.2496e-09
2.49166e-10
2.87692e-11
5.57565e-12
6.16745e-13
4.00531e-14
2.35799e-15
1.28337e-16
6.36071e-18
2.87535e-19
1.18757e-20
4.48709e-22
1.55243e-23
4.92095e-25
1.42938e-26
3.80359e-28
9.26486e-30
2.06287e-31
4.18952e-33
7.73722e-35
1.29388e-36
1.94821e-38
2.62137e-40
3.12028e-42
3.24135e-44
2.88407e-46
2.14035e-48
1.27324e-50
5.69165e-53
1.69509e-55
2.46394e-58
0.000148274
8.93067e-05
4.15184e-05
1.57025e-05
4.90973e-06
1.22034e-06
2.49784e-07
3.36032e-08
4.15104e-09
5.04995e-10
6.46953e-11
1.23947e-11
1.72742e-12
1.33421e-13
8.69235e-15
5.25401e-16
2.88811e-17
1.44564e-18
6.60419e-20
2.75843e-21
1.05483e-22
3.69671e-24
1.18801e-25
3.50179e-27
9.46472e-29
2.34389e-30
5.31088e-32
1.09866e-33
2.06869e-35
3.53057e-37
5.43083e-39
7.47308e-41
9.10742e-43
9.6981e-45
8.85715e-47
6.75642e-49
4.13739e-51
1.90682e-53
5.86206e-56
8.79068e-59
3.05393e-05
1.7791e-05
7.95862e-06
2.88927e-06
8.57838e-07
2.08494e-07
4.41598e-08
6.37146e-09
8.29906e-10
1.16396e-10
2.25584e-11
3.76352e-12
3.45905e-13
2.49843e-14
1.67708e-15
1.02128e-16
5.64966e-18
2.84746e-19
1.3106e-20
5.51905e-22
2.12945e-23
7.53579e-25
2.44754e-26
7.29738e-28
1.9968e-29
5.01068e-31
1.15146e-32
2.418e-34
4.62593e-36
8.02908e-38
1.25725e-39
1.76291e-41
2.1916e-43
2.38335e-45
2.22571e-47
1.73838e-49
1.09151e-51
5.16592e-54
1.63337e-56
2.52042e-59
5.67618e-06
3.21059e-06
1.38985e-06
4.87052e-07
1.39887e-07
3.30741e-08
6.65406e-09
1.1393e-09
1.72276e-10
3.41118e-11
6.51612e-12
7.0708e-13
5.69901e-14
4.25078e-15
2.86772e-16
1.75202e-17
9.72848e-19
4.92435e-20
2.2777e-21
9.64545e-23
3.74519e-24
1.33481e-25
4.36973e-27
1.31426e-28
3.63082e-30
9.20639e-32
2.13961e-33
4.54792e-35
8.8147e-37
1.55137e-38
2.46553e-40
3.51215e-42
4.44014e-44
4.91554e-46
4.67825e-48
3.72824e-50
2.39148e-52
1.15775e-54
3.74868e-57
5.92393e-60
9.6182e-07
5.29077e-07
2.22535e-07
7.56496e-08
2.11121e-08
4.89125e-09
1.00504e-09
2.06294e-10
4.27315e-11
9.13223e-12
1.15276e-12
1.04186e-13
8.6601e-15
6.48192e-16
4.37583e-17
2.67624e-18
1.48839e-19
7.55003e-21
3.5018e-22
1.488e-23
5.80157e-25
2.07782e-26
6.84062e-28
2.07072e-29
5.76229e-31
1.47295e-32
3.45387e-34
7.41351e-36
1.45222e-37
2.58546e-39
4.16033e-41
6.00611e-43
7.7028e-45
8.65968e-47
8.37836e-49
6.79528e-51
4.44114e-53
2.19311e-55
7.25031e-58
1.16953e-60
1.49997e-07
8.02899e-08
3.28993e-08
1.08855e-08
2.96659e-09
7.08782e-10
1.67624e-10
4.24644e-11
1.04215e-11
1.51294e-12
1.5407e-13
1.43178e-14
1.1917e-15
8.90289e-17
6.00163e-18
3.66737e-19
2.03895e-20
1.03455e-21
4.80263e-23
2.0439e-24
7.98687e-26
2.86899e-27
9.48052e-29
2.88279e-30
8.06464e-32
2.0741e-33
4.8973e-35
1.05938e-36
2.09321e-38
3.76233e-40
6.11765e-42
8.93316e-44
1.15997e-45
1.32171e-47
1.29747e-49
1.06889e-51
7.10384e-54
3.57111e-56
1.2029e-58
1.97608e-61
2.16971e-08
1.12966e-08
4.51886e-09
1.46005e-09
4.20683e-10
1.15114e-10
3.47059e-11
9.59698e-12
1.59859e-12
1.85199e-13
1.93394e-14
1.79602e-15
1.48843e-16
1.10774e-17
7.44398e-19
4.5371e-20
2.51753e-21
1.27564e-22
5.91747e-24
2.51817e-25
9.84627e-27
3.54164e-28
1.17277e-29
3.57623e-31
1.00408e-32
2.59381e-34
6.1567e-36
1.33998e-37
2.66621e-39
4.83023e-41
7.92385e-43
1.16848e-44
1.53383e-46
1.76865e-48
1.75897e-50
1.46974e-52
9.9185e-55
5.06847e-57
1.73698e-59
2.90115e-62
)
;

boundaryField
{
    leftWall
    {
        type            zeroGradient;
    }
    rightWall
    {
        type            zeroGradient;
    }
    lowerWall
    {
        type            zeroGradient;
    }
    atmosphere
    {
        type            inletOutlet;
        inletValue      nonuniform 0();
        value           nonuniform 0();
    }
    defaultFaces
    {
        type            empty;
    }
    procBoundary1to0
    {
        type            processor;
        value           nonuniform List<scalar> 
44
(
0.987748
0.998438
1
1
1
1
1
1
1
1
1
1
1
1
1
1.00001
1.00001
1
1.00006
0.611786
0.744997
0.744997
0.0775056
0.00581232
0.00138799
5.49342e-05
-5.71597e-05
2.3385e-06
1.4529e-06
5.51918e-07
2.75128e-07
3.88178e-07
3.17058e-07
7.8266e-08
3.70086e-08
1.44266e-07
2.20181e-07
1.78241e-07
1.82772e-07
6.85623e-08
1.25121e-08
3.15747e-09
8.55457e-10
1.99362e-10
)
;
    }
    procBoundary1to3
    {
        type            processor;
        value           nonuniform List<scalar> 
45
(
1.34905e-10
4.82339e-10
1.22034e-09
2.7244e-09
3.77828e-09
2.92695e-09
1.48779e-09
5.79861e-10
2.14283e-10
6.58987e-11
2.46038e-11
7.37073e-12
1.37007e-12
1.8145e-13
2.14326e-14
2.23109e-15
2.05806e-16
1.69518e-17
1.25488e-18
8.39349e-20
5.09527e-21
2.81764e-22
1.42375e-23
6.5905e-25
2.80048e-26
1.09416e-27
3.93538e-29
1.30403e-30
3.98222e-32
1.12056e-33
2.90346e-35
6.91831e-37
1.51286e-38
3.02715e-40
5.5202e-42
9.12423e-44
1.35706e-45
1.79859e-47
2.09631e-49
2.10973e-51
1.78599e-53
1.22255e-55
6.34416e-58
2.20975e-60
3.74803e-63
)
;
    }
}


// ************************************************************************* //
