/*--------------------------------*- C++ -*----------------------------------*\
| =========                 |                                                 |
| \\      /  F ield         | OpenFOAM: The Open Source CFD Toolbox           |
|  \\    /   O peration     | Version:  5.0                                   |
|   \\  /    A nd           | Web:      www.OpenFOAM.org                      |
|    \\/     M anipulation  |                                                 |
\*---------------------------------------------------------------------------*/
FoamFile
{
    version     2.0;
    format      ascii;
    class       volScalarField;
    location    "0.25";
    object      epsilon;
}
// * * * * * * * * * * * * * * * * * * * * * * * * * * * * * * * * * * * * * //

dimensions      [0 2 -3 0 0 0 0];

internalField   nonuniform List<scalar> 
1915
(
0.887794
0.853086
1.41555
1.4031
1.85403
2.52302
2.23914
3.9215
2.5732
5.18026
2.90544
6.46842
3.28768
7.92918
3.76793
9.70688
4.38505
12.0079
5.11112
15.1022
0.058324
0.082988
0.0855908
0.368013
0.370194
0.395345
0.42285
0.443542
0.452855
0.453227
0.447077
0.436495
0.423222
0.408653
0.393882
0.379816
0.368415
0.379456
0.368661
0.367178
0.0864577
0.0862827
0.0863242
0.36835
0.368627
0.367262
0.367397
0.365372
0.0863334
0.366402
0.366532
0.368224
0.370968
0.370186
0.0856137
0.0862226
0.0849555
0.0804492
0.0638719
0.0322402
0.159354
0.121754
0.156012
0.181248
0.195772
0.203053
0.205407
0.206542
0.205093
0.201689
0.197068
0.191839
0.186458
0.181249
0.176417
0.172073
0.168161
0.163403
0.162357
0.159905
0.153153
0.151619
0.14982
0.152372
0.15118
0.148941
0.147512
0.146087
0.14014
0.141701
0.1399
0.134671
0.130683
0.124848
0.114684
0.101721
0.0899658
0.0756687
0.0626507
0.0227507
0.222972
0.154026
0.169615
0.180084
0.183409
0.182043
0.1785
0.174274
0.169017
0.1632
0.157322
0.15174
0.146673
0.142229
0.138437
0.135261
0.132596
0.130165
0.128514
0.127049
0.125671
0.124691
0.123834
0.123161
0.12244
0.121731
0.120998
0.120198
0.118988
0.11799
0.116694
0.114699
0.112227
0.108794
0.104175
0.0979856
0.0903215
0.0817092
0.0752476
0.0227289
0.308041
0.19756
0.205145
0.209052
0.204854
0.196419
0.18666
0.176826
0.166912
0.157461
0.148897
0.141427
0.135102
0.129874
0.12564
0.122267
0.119604
0.11749
0.115892
0.114662
0.113705
0.112969
0.11239
0.111905
0.111475
0.111091
0.110701
0.110272
0.109735
0.109125
0.108347
0.107279
0.105818
0.103775
0.100993
0.0972917
0.0927467
0.0881972
0.0873277
0.121221
0.431027
0.269654
0.271536
0.267902
0.25337
0.234366
0.215021
0.196685
0.179675
0.164639
0.151864
0.141312
0.132777
0.125987
0.120667
0.116555
0.113415
0.111042
0.10928
0.107984
0.107035
0.106342
0.105838
0.10546
0.105167
0.104935
0.10473
0.104527
0.104294
0.10401
0.10363
0.103096
0.102319
0.101195
0.0996345
0.0975978
0.0953052
0.0937878
0.0974479
0.146396
0.632454
0.399349
0.389149
0.370219
0.336864
0.299618
0.264405
0.232356
0.204297
0.180854
0.161917
0.146945
0.135273
0.126266
0.119381
0.114167
0.110261
0.107369
0.105255
0.103732
0.102647
0.101886
0.10136
0.101003
0.100766
0.100615
0.100523
0.10047
0.100433
0.100393
0.100321
0.100183
0.0999269
0.0994969
0.098867
0.0980977
0.0975376
0.0984406
0.10605
0.168605
1.00427
0.642492
0.592076
0.538237
0.469959
0.401637
0.340472
0.286554
0.24157
0.205761
0.178093
0.157059
0.141196
0.129287
0.120379
0.113748
0.108846
0.105256
0.102656
0.100797
0.0994892
0.0985865
0.0979804
0.0975904
0.0973591
0.0972469
0.0972263
0.0972777
0.0973852
0.0975344
0.0977084
0.097889
0.0980522
0.0981815
0.0983015
0.0985494
0.0993861
0.102288
0.113317
0.18781
1.74753
1.10134
0.927506
0.798253
0.669897
0.552589
0.450885
0.363609
0.293652
0.240207
0.200501
0.171374
0.15008
0.134503
0.12309
0.11473
0.108621
0.104184
0.100988
0.0987113
0.0971145
0.0960176
0.0952877
0.0948279
0.0945697
0.0944667
0.0944882
0.0946144
0.0948322
0.0951326
0.0955079
0.0959523
0.0964646
0.0970583
0.0977998
0.0988884
0.100883
0.105466
0.119453
0.204356
3.25558
1.91839
1.44165
1.16745
0.948232
0.763627
0.602133
0.467687
0.362983
0.285424
0.229632
0.189971
0.161797
0.141689
0.127252
0.116838
0.109316
0.103894
0.100005
0.0972411
0.0953027
0.0939703
0.0930831
0.0925253
0.0922158
0.0920998
0.0921418
0.0923205
0.0926242
0.0930476
0.0935903
0.0942573
0.0950641
0.0960496
0.0973145
0.0991094
0.102078
0.108092
0.124642
0.218625
6.31642
3.23057
2.13251
1.62981
1.29682
1.02921
0.794378
0.600652
0.451314
0.342526
0.266033
0.21304
0.176343
0.150748
0.132723
0.119921
0.110778
0.104238
0.0995684
0.0962555
0.0939308
0.0923287
0.0912572
0.0905792
0.090199
0.0900523
0.090098
0.0903119
0.0906824
0.0912069
0.0918902
0.0927462
0.0938041
0.0951234
0.0968332
0.0992273
0.103024
0.110263
0.129038
0.230966
5.2278
10.9513
4.82391
8.43685
4.28612
6.75263
3.78831
5.53588
3.3637
4.65304
3.01961
4.00901
2.76209
3.54363
2.59273
3.22121
2.50501
3.01374
2.48774
2.89553
2.84818
2.8588
2.90574
2.96747
3.03432
3.10327
3.20033
3.33039
3.47952
3.72999
4.17974
4.59901
4.62697
4.2204
3.60715
2.9868
2.43929
1.96658
1.55695
1.21196
0.935978
0.725311
0.569343
20.9803
29.0384
36.2874
21.3484
14.6354
38.0107
62.7619
16.4601
10.8688
26.5272
64.9699
39.2746
8.48596
18.6207
42.4657
51.3293
6.85966
13.5839
28.5992
39.289
5.70729
10.3284
20.2516
29.4622
4.88129
8.1802
15.0534
22.572
4.29394
6.73876
11.7127
17.8027
3.8852
5.76152
9.50838
14.4734
3.60846
5.09418
8.02183
12.1244
3.42908
4.63604
6.99999
10.4438
3.3231
4.3216
6.28464
9.21792
3.27112
4.10782
5.77412
8.29941
3.25469
3.96278
5.39958
7.58648
3.25691
3.85986
5.11063
7.00773
3.26562
3.77826
4.86877
6.51277
3.28564
3.70685
4.6471
6.06736
3.31586
3.64069
4.43114
5.64419
3.36374
3.58457
4.22003
5.22155
3.4709
3.56098
4.0305
4.81636
3.71287
3.61042
3.89551
4.47393
4.13567
3.77715
3.85816
4.242
4.67375
4.10947
3.96052
4.16646
4.89036
4.53814
4.21646
4.27513
4.48448
4.69773
4.49774
4.49969
3.7806
4.3672
4.54453
4.60694
3.07106
3.70062
4.15887
4.36667
2.43731
2.95297
3.42609
3.71041
1.88588
2.25013
2.60188
2.83397
1.42432
1.65333
1.86979
2.01003
1.0624
1.19237
1.30835
1.3769
0.794906
0.861983
0.916745
0.943197
0.604371
0.635307
0.657014
0.662317
6.30755
4.20745
2.80065
2.11316
1.68492
1.32963
1.02049
0.761557
0.559646
0.412613
0.310428
0.240953
0.193866
0.161703
0.139466
0.123908
0.112922
0.105126
0.0995872
0.0956653
0.0929122
0.0910092
0.0897294
0.0889119
0.0884447
0.0882528
0.0882883
0.0885235
0.0889458
0.0895539
0.0903569
0.091376
0.0926513
0.0942591
0.0963526
0.0992625
0.103772
0.112074
0.132802
0.241782
7.90533
4.66066
3.23154
2.51421
2.0352
1.63162
1.26588
0.945564
0.687342
0.496233
0.363393
0.274069
0.214538
0.174612
0.147477
0.128764
0.115702
0.106508
0.10001
0.0954201
0.0921983
0.0899659
0.0884563
0.0874821
0.0869138
0.0866642
0.0866779
0.0869228
0.0873843
0.0880616
0.0889669
0.0901271
0.0915916
0.0934504
0.0958767
0.099233
0.104361
0.113588
0.136036
0.25135
10.9111
5.32636
3.59554
2.81145
2.3207
1.90761
1.51185
1.14291
0.83042
0.592085
0.424542
0.312231
0.238245
0.18937
0.156659
0.134408
0.119048
0.108324
0.100787
0.0954791
0.0917553
0.0891702
0.0874136
0.0862693
0.0855885
0.0852712
0.0852536
0.0854981
0.0859877
0.0867215
0.0877138
0.088996
0.0906246
0.0927007
0.0954147
0.099156
0.104817
0.114845
0.138805
0.259829
21.0578
7.47383
4.25588
3.1262
2.56742
2.1503
1.74503
1.34381
0.983885
0.698168
0.493168
0.355164
0.264834
0.205865
0.16692
0.140761
0.122893
0.11052
0.101872
0.095803
0.0915494
0.0885926
0.0865754
0.0852505
0.0844484
0.0840555
0.0839986
0.0842344
0.0847429
0.0855224
0.0865884
0.0879756
0.0897464
0.0920109
0.0949734
0.0990466
0.105166
0.115888
0.141176
0.267349
33.4124
13.4015
5.74059
3.63939
2.83547
2.37057
1.95927
1.53994
1.1422
0.811749
0.568092
0.402345
0.294033
0.223922
0.178137
0.147729
0.127165
0.113037
0.10322
0.0963535
0.0915485
0.0882061
0.0859185
0.0844055
0.0834761
0.0830014
0.0828987
0.0831188
0.0836383
0.0844542
0.0855825
0.0870602
0.0889541
0.0913815
0.0945585
0.0989172
0.105431
0.116752
0.143203
0.274005
31.426
21.8908
8.67002
4.55573
3.2034
2.5935
2.15629
1.72594
1.30026
0.929766
0.647792
0.453035
0.325451
0.24331
0.190155
0.155204
0.131783
0.115815
0.104781
0.0970922
0.0917214
0.0879845
0.0854217
0.0837165
0.0826549
0.0820937
0.0819404
0.0821395
0.0826636
0.0835081
0.0846886
0.086244
0.0882442
0.0908124
0.0941742
0.0987782
0.105631
0.117468
0.144935
0.279891
27.0435
24.7543
13.6053
6.08904
3.75327
2.85213
2.34464
1.90002
1.45412
1.04923
0.730563
0.50634
0.358601
0.263744
0.202794
0.163064
0.136662
0.118789
0.106507
0.0979806
0.0920395
0.0879066
0.0850649
0.0831644
0.0819682
0.0813179
0.0811109
0.0812849
0.0818087
0.0826751
0.0838995
0.0855214
0.0876132
0.0903028
0.0938235
0.0986373
0.105779
0.118059
0.146414
0.285099
22.9105
24.0755
16.9107
8.44816
4.55518
3.17971
2.53722
2.06379
1.60138
1.16758
0.814692
0.561287
0.392941
0.284912
0.21586
0.171185
0.141712
0.121897
0.108358
0.0989922
0.0924758
0.0879445
0.0848244
0.0827295
0.0813991
0.0806594
0.0803973
0.0805439
0.0810635
0.0819466
0.0832076
0.0848863
0.0870569
0.0898509
0.0935077
0.0985007
0.105889
0.118547
0.147674
0.289716
19.4806
22.2593
18.2297
10.6303
5.65525
3.60115
2.74807
2.22143
1.74123
1.28284
0.898599
0.616914
0.427907
0.30651
0.229155
0.179456
0.146888
0.125108
0.11029
0.100079
0.0929917
0.0880682
0.084676
0.0823916
0.0809307
0.0801036
0.079787
0.0799051
0.080418
0.0813137
0.0826053
0.0843325
0.0865707
0.0894543
0.0932274
0.0983726
0.10597
0.118951
0.148748
0.293817
16.753
20.1962
18.3353
12.0177
6.858
4.13249
2.98969
2.37858
1.87418
1.39369
0.980889
0.672376
0.462959
0.328331
0.242717
0.187854
0.152093
0.128319
0.112229
0.101188
0.0935464
0.0882463
0.0845947
0.0821307
0.0805462
0.0796362
0.0792673
0.0793575
0.0798624
0.0807675
0.0820847
0.0838532
0.0861497
0.0891099
0.0929819
0.0982559
0.106029
0.119284
0.149663
0.297467
14.6223
18.2581
17.7683
12.6884
7.78006
4.73058
3.27189
2.54152
2.00159
1.49934
1.06025
0.727156
0.498707
0.350493
0.256237
0.1961
0.157142
0.131408
0.11409
0.102259
0.0940975
0.0884472
0.0845561
0.0819271
0.0802292
0.0792431
0.078826
0.0788899
0.0793866
0.0802992
0.081638
0.083442
0.0857883
0.088814
0.0927698
0.0981523
0.106073
0.119559
0.150442
0.300726
12.9366
16.4805
16.8095
12.8111
8.42404
5.31816
3.5998
2.71771
2.12557
1.5997
1.13901
0.782251
0.534002
0.372035
0.269157
0.203854
0.161825
0.134243
0.115786
0.103234
0.0946029
0.0886398
0.0845363
0.0817614
0.0799637
0.0789105
0.078451
0.0784917
0.078981
0.0798998
0.0812572
0.0830919
0.085481
0.0885624
0.092589
0.0980623
0.106106
0.119786
0.151105
0.303642
11.5632
14.8197
15.5627
12.5085
8.8113
5.84422
3.94336
2.90856
2.25234
1.69881
1.21448
0.834284
0.566905
0.39182
0.280827
0.21074
0.165918
0.136685
0.117229
0.104054
0.0950222
0.0887946
0.0845125
0.0816157
0.0797345
0.0786255
0.0781307
0.0781524
0.078636
0.0795608
0.0809346
0.0827961
0.0852221
0.0883508
0.0924369
0.0979858
0.106132
0.119973
0.151669
0.306257
10.412
13.2584
14.135
11.943
8.98616
6.26338
4.2759
3.10517
2.37715
1.79064
1.28207
0.880028
0.595401
0.408669
0.290579
0.216379
0.169202
0.138604
0.118337
0.104665
0.0953182
0.0888844
0.0844641
0.0814731
0.0795276
0.0783757
0.0778542
0.077862
0.0783426
0.0792737
0.0806628
0.0825479
0.0850056
0.0881745
0.0923105
0.0979218
0.106151
0.120126
0.152148
0.308609
9.42371
11.8181
12.6661
11.23
8.98207
6.56517
4.56913
3.29192
2.49292
1.87049
1.33803
0.916693
0.617647
0.421478
0.297783
0.220416
0.171474
0.139881
0.119038
0.105021
0.0954585
0.0888858
0.0843729
0.0813188
0.0793304
0.07815
0.0776113
0.0776112
0.078092
0.0790306
0.0804344
0.0823406
0.0848258
0.0880289
0.0922065
0.0978692
0.106167
0.120252
0.152553
0.310726
8.55888
10.524
11.2513
10.4052
8.813
6.74672
4.79999
3.45184
2.59151
1.93391
1.37911
0.941872
0.632034
0.429276
0.301888
0.222547
0.172565
0.140419
0.119272
0.105082
0.0954172
0.0887795
0.0842236
0.0811402
0.0791317
0.0779384
0.0773928
0.0773914
0.077876
0.078824
0.0802422
0.0821677
0.0846771
0.0879094
0.0921216
0.097826
0.106178
0.120353
0.152894
0.312633
7.80021
9.37397
9.92788
9.52816
8.53217
6.81625
4.95101
3.56875
2.66423
1.97622
1.40224
0.953424
0.637203
0.431277
0.302465
0.222542
0.17235
0.140146
0.118998
0.104824
0.0951757
0.0885515
0.0840047
0.080927
0.0789222
0.077732
0.0771903
0.0771944
0.0776875
0.0786469
0.0800797
0.0820232
0.084554
0.0878113
0.0920523
0.0977905
0.106186
0.120433
0.153179
0.314349
7.14614
8.42616
8.81944
8.74515
8.22449
6.78414
5.00714
3.62852
2.70284
1.99269
1.40441
0.949506
0.632108
0.426934
0.299242
0.220268
0.170763
0.139029
0.118196
0.104232
0.0947243
0.0881934
0.0837085
0.0806718
0.0786944
0.0775235
0.0769965
0.0770137
0.0775196
0.0784927
0.0799407
0.0819013
0.0844515
0.0877303
0.0919953
0.0977606
0.10619
0.120493
0.153413
0.315892
6.52815
7.69932
8.02168
8.1316
7.88855
6.62119
4.94769
3.62132
2.7013
1.97901
1.38293
0.928695
0.616123
0.416012
0.292146
0.215709
0.167805
0.137072
0.11687
0.103309
0.0940623
0.0877028
0.0833311
0.0803697
0.078443
0.077307
0.0768057
0.076843
0.0773662
0.0783553
0.0798194
0.0817968
0.0843647
0.0876624
0.0919474
0.0977341
0.106189
0.120536
0.153603
0.317271
5.84609
6.80722
7.25322
7.50859
7.37361
6.26939
4.76599
3.54836
2.65721
1.93163
1.33554
0.890182
0.589179
0.398663
0.281336
0.208983
0.163553
0.134322
0.115047
0.10207
0.0931984
0.0870833
0.0828727
0.0800185
0.0781642
0.0770785
0.0766131
0.0766773
0.077222
0.0782297
0.0797109
0.0817049
0.0842893
0.0876038
0.0919055
0.0977091
0.106183
0.120563
0.153751
0.318498
5.24037
5.91065
6.32119
6.72466
6.69625
5.78586
4.50462
3.42568
2.57059
1.84712
1.26058
0.834033
0.55192
0.375486
0.267225
0.20034
0.158156
0.130867
0.11278
0.100546
0.0921495
0.0863437
0.0823368
0.0796189
0.0778573
0.0768354
0.0764151
0.0765123
0.0770825
0.0781112
0.0796105
0.0816213
0.0842216
0.0875512
0.0918671
0.0976838
0.106171
0.120574
0.153862
0.319577
4.80287
5.29611
5.61785
5.95178
6.0032
5.2933
4.22846
3.26781
2.43728
1.72114
1.1575
0.761605
0.505854
0.347558
0.250464
0.190158
0.151827
0.12683
0.110139
0.0987778
0.0909394
0.0854972
0.0817318
0.0791755
0.0775232
0.0765765
0.076209
0.0763448
0.0769441
0.0779959
0.0795147
0.0815425
0.0841582
0.0875016
0.0918297
0.0976565
0.106152
0.12057
0.153936
0.320514
4.57745
4.97299
5.23371
5.41194
5.42572
4.85846
3.94902
3.06148
2.24372
1.54946
1.02819
0.676126
0.453457
0.316388
0.231906
0.178904
0.144826
0.122358
0.107211
0.0968195
0.0896036
0.0845676
0.0810706
0.0786941
0.077164
0.0763015
0.0759935
0.0761722
0.0768038
0.0778808
0.0794202
0.0814655
0.0840963
0.0874528
0.0917915
0.097626
0.106126
0.120551
0.153977
0.321313
4.58245
4.92316
5.12364
5.15043
5.00236
4.47566
3.64928
2.77377
1.97297
1.33261
0.878866
0.582986
0.39816
0.283931
0.212622
0.167174
0.137495
0.117655
0.104122
0.0947467
0.088185
0.0835778
0.0803659
0.0781816
0.0767826
0.0760113
0.0757676
0.0759931
0.0766595
0.0777636
0.0793247
0.0813879
0.0840338
0.0874028
0.091751
0.0975912
0.106093
0.120518
0.153985
0.321975
4.72683
5.00091
5.15144
5.02827
4.67112
4.05556
3.23311
2.38008
1.64595
1.09923
0.729699
0.493314
0.345424
0.252797
0.193898
0.155627
0.130185
0.112912
0.100977
0.0926199
0.0867199
0.0825498
0.0796308
0.0776452
0.0763831
0.0757072
0.0755316
0.0758066
0.07651
0.0776426
0.0792264
0.081308
0.0839691
0.0873502
0.091707
0.0975513
0.106051
0.120471
0.153962
0.322503
4.76679
4.89875
4.9011
4.65254
4.1329
3.43765
2.64483
1.89614
1.29864
0.874084
0.592591
0.412163
0.297531
0.224145
0.176371
0.144634
0.123118
0.108267
0.0978617
0.0904921
0.0852412
0.0815042
0.0788778
0.0770926
0.0759694
0.0753915
0.0752861
0.0756125
0.0763545
0.0775168
0.0791241
0.0812247
0.0839012
0.0872941
0.091659
0.0975062
0.106002
0.120411
0.15391
0.322898
4.47248
4.43117
4.20524
3.82616
3.28275
2.64235
1.98983
1.41985
0.98435
0.679288
0.475682
0.342598
0.255802
0.198657
0.160447
0.134448
0.116458
0.103824
0.0948439
0.0884077
0.0837777
0.0804593
0.0781187
0.0765311
0.0755463
0.0750667
0.0750325
0.0754113
0.0761929
0.0773859
0.0790174
0.0811375
0.0838295
0.0872342
0.0916066
0.0974556
0.105945
0.120338
0.15383
0.323162
3.78328
3.62534
3.29426
2.87453
2.39591
1.89398
1.42294
1.03026
0.734074
0.524658
0.38168
0.285415
0.220598
0.176584
0.146319
0.125218
0.110311
0.0996585
0.0919758
0.0864018
0.0823529
0.0794309
0.0773639
0.0759674
0.075118
0.0747356
0.0747724
0.0752041
0.0760259
0.0772501
0.0789064
0.0810463
0.0837541
0.0871706
0.0915502
0.0974001
0.105881
0.120254
0.153723
0.323297
2.8757
2.69994
2.39514
2.0411
1.67379
1.31848
1.00223
0.744477
0.54915
0.408067
0.308799
0.23968
0.191556
0.157847
0.134018
0.117003
0.104737
0.0958193
0.0892931
0.0845003
0.0809851
0.0784318
0.0766224
0.075408
0.0746889
0.0744013
0.074508
0.0749923
0.0758545
0.0771102
0.0787916
0.0809517
0.0836754
0.0871037
0.0914902
0.0973403
0.105812
0.120159
0.153591
0.323305
2.02219
1.88267
1.65819
1.40444
1.1511
0.915575
0.711106
0.544998
0.417159
0.322291
0.253334
0.203665
0.167941
0.142164
0.123459
0.109798
0.0997549
0.0923297
0.0868174
0.0827204
0.0796875
0.077472
0.0759015
0.0748581
0.0742631
0.0740667
0.0742415
0.0747776
0.0756799
0.0769674
0.0786741
0.0808546
0.0835943
0.0870344
0.0914274
0.0972769
0.105737
0.120055
0.153434
0.32319
1.37055
1.27404
1.12632
0.960425
0.796346
0.645599
0.515181
0.408175
0.324
0.259689
0.211417
0.175515
0.148902
0.129166
0.114495
0.10355
0.0953528
0.0891939
0.0845576
0.0810717
0.0784688
0.0765585
0.0752072
0.0743227
0.0738443
0.0737349
0.0739755
0.0745622
0.0755041
0.076823
0.0785552
0.0807561
0.0835119
0.0869637
0.0913631
0.0972113
0.105658
0.119943
0.153256
0.322953
0.928642
0.864555
0.771401
0.666978
0.563313
0.467661
0.384127
0.314381
0.258151
0.213941
0.179749
0.153566
0.133623
0.118464
0.106944
0.0981783
0.0914985
0.0864014
0.082513
0.0795574
0.0773335
0.0756964
0.0745437
0.0738055
0.0734361
0.0734088
0.0737125
0.0743483
0.075329
0.076679
0.0784364
0.0806577
0.0834297
0.086893
0.0912984
0.0971444
0.105576
0.119824
0.153057
0.322599
0.645597
0.602468
0.543382
0.477537
0.411717
0.350322
0.29589
0.249519
0.211219
0.1803
0.155741
0.136444
0.121388
0.10969
0.100619
0.0935909
0.0881467
0.0839317
0.0806756
0.078176
0.0762831
0.0748881
0.0739144
0.0733098
0.0730412
0.0730913
0.0734549
0.0741379
0.0751565
0.0765371
0.0783195
0.0805612
0.0833491
0.0868238
0.0912346
0.0970777
0.105492
0.119699
0.152839
0.322135
)
;

boundaryField
{
    leftWall
    {
        Cmu             0.09;
        kappa           0.41;
        E               9.8;
        type            epsilonWallFunction;
        value           nonuniform 0();
    }
    rightWall
    {
        Cmu             0.09;
        kappa           0.41;
        E               9.8;
        type            epsilonWallFunction;
        value           nonuniform List<scalar> 
43
(
0.0322402
0.0227507
0.0227289
0.121221
0.146396
0.168605
0.18781
0.204356
0.218625
0.230966
0.241782
0.25135
0.259829
0.267349
0.274005
0.279891
0.285099
0.289716
0.293817
0.297467
0.300726
0.303642
0.306257
0.308609
0.310726
0.312633
0.314349
0.315892
0.317271
0.318498
0.319577
0.320514
0.321313
0.321975
0.322503
0.322898
0.323162
0.323297
0.323305
0.32319
0.322953
0.322599
0.322135
)
;
    }
    lowerWall
    {
        Cmu             0.09;
        kappa           0.41;
        E               9.8;
        type            epsilonWallFunction;
        value           nonuniform List<scalar> 
66
(
0.887794
0.853086
0.853086
1.4031
2.52302
3.9215
5.18026
6.46842
7.92918
9.70688
12.0079
15.1022
20.9803
29.0384
36.2874
21.3484
0.058324
0.159354
0.222972
0.308041
0.431027
0.632454
1.00427
1.74753
3.25558
6.31642
0.058324
0.082988
0.0855908
0.368013
0.370194
0.395345
0.42285
0.443542
0.452855
0.453227
0.447077
0.436495
0.423222
0.408653
0.393882
0.379816
0.368415
0.379456
0.368661
0.367178
0.0864577
0.0862827
0.0863242
0.36835
0.368627
0.367262
0.367397
0.365372
0.0863334
0.366402
0.366532
0.368224
0.370968
0.370186
0.0856137
0.0862226
0.0849555
0.0804492
0.0638719
0.0322402
)
;
    }
    atmosphere
    {
        type            inletOutlet;
        inletValue      nonuniform 0();
        value           nonuniform 0();
    }
    defaultFaces
    {
        type            empty;
    }
    procBoundary1to0
    {
        type            processor;
        value           nonuniform List<scalar> 
44
(
0.98178
1.75602
1.82872
1.81057
1.85007
1.96945
2.16507
2.42472
2.72413
3.0107
3.15868
3.12536
2.96995
2.76778
2.56464
2.38794
2.2572
2.18489
2.17499
2.22628
2.53599
2.53599
2.64086
2.76383
2.86426
2.93819
2.99571
3.08503
3.20059
3.30423
3.47556
3.66002
3.63289
3.41714
3.0882
2.69879
2.29975
1.92626
1.58861
1.28966
1.0343
0.825538
0.661189
0.535006
)
;
    }
    procBoundary1to3
    {
        type            processor;
        value           nonuniform List<scalar> 
45
(
0.455579
0.470721
0.482194
0.487385
0.48321
0.467091
0.436895
0.398037
0.355336
0.312478
0.272059
0.235667
0.204067
0.177393
0.155359
0.137449
0.123061
0.111597
0.102513
0.0953411
0.0896907
0.0852465
0.0817586
0.0790331
0.0769225
0.0753165
0.074135
0.0733214
0.072838
0.0726626
0.0727848
0.0732053
0.0739336
0.0749888
0.0763994
0.0782064
0.0804682
0.0832719
0.0867576
0.0911735
0.0970127
0.105409
0.11957
0.152605
0.321568
)
;
    }
}


// ************************************************************************* //
