/*--------------------------------*- C++ -*----------------------------------*\
| =========                 |                                                 |
| \\      /  F ield         | OpenFOAM: The Open Source CFD Toolbox           |
|  \\    /   O peration     | Version:  5.0                                   |
|   \\  /    A nd           | Web:      www.OpenFOAM.org                      |
|    \\/     M anipulation  |                                                 |
\*---------------------------------------------------------------------------*/
FoamFile
{
    version     2.0;
    format      ascii;
    class       volScalarField;
    location    "0.25";
    object      p;
}
// * * * * * * * * * * * * * * * * * * * * * * * * * * * * * * * * * * * * * //

dimensions      [1 -1 -2 0 0 0 0];

internalField   nonuniform List<scalar> 
1915
(
2932.54
2988.21
2861.72
2942.16
2864.56
2935.94
2866.44
2963.83
2844.07
2977.91
2782.69
2951.59
2668.62
2861.2
2486.76
2678.28
2218.48
2347.01
1844.2
1767.1
0.800774
0.790677
0.78241
0.773524
0.764513
0.756522
0.749616
0.743605
0.738177
0.73295
0.727654
0.722121
0.716285
0.710158
0.703789
0.697227
0.690537
0.683752
0.676962
0.670305
0.663816
0.657544
0.651522
0.645788
0.640395
0.635295
0.630434
0.625884
0.621688
0.617867
0.614408
0.611313
0.608556
0.606146
0.604059
0.602242
0.600773
0.599717
0.599013
0.598482
0.756738
0.748215
0.739498
0.729029
0.718477
0.7093
0.701604
0.69514
0.689273
0.683726
0.678253
0.672652
0.666819
0.660754
0.654506
0.648092
0.641517
0.634895
0.628314
0.621806
0.615463
0.609325
0.603425
0.597811
0.592517
0.587535
0.582848
0.578432
0.574359
0.570642
0.567247
0.564221
0.561522
0.559132
0.557018
0.555183
0.553643
0.552453
0.551606
0.550989
0.712431
0.702603
0.693154
0.682426
0.671598
0.661964
0.6538
0.646647
0.640244
0.634298
0.628578
0.622864
0.616999
0.610966
0.604824
0.598598
0.592252
0.585825
0.57939
0.57303
0.56683
0.56081
0.555009
0.549494
0.544324
0.539513
0.535001
0.530762
0.526809
0.523148
0.519833
0.51683
0.514136
0.511736
0.509615
0.507736
0.506148
0.504903
0.504
0.503562
0.668053
0.656296
0.645188
0.634245
0.623481
0.613806
0.605424
0.598011
0.591276
0.585026
0.579098
0.573275
0.567361
0.561315
0.555227
0.549145
0.54299
0.536723
0.530408
0.524167
0.51808
0.51215
0.506417
0.500972
0.495913
0.491263
0.486957
0.48292
0.479106
0.475516
0.472192
0.469156
0.466426
0.463997
0.461854
0.459974
0.458387
0.457157
0.456206
0.45598
0.622511
0.6088
0.595633
0.584469
0.573964
0.564623
0.556462
0.549148
0.542354
0.535945
0.529861
0.523941
0.517968
0.511861
0.505744
0.499713
0.493671
0.487513
0.481294
0.475156
0.469184
0.463364
0.457717
0.452359
0.447416
0.442926
0.438809
0.434937
0.431224
0.427655
0.42428
0.421175
0.41839
0.415938
0.413803
0.411961
0.41042
0.409221
0.408386
0.408239
0.574174
0.558711
0.543314
0.532474
0.522736
0.514241
0.506778
0.499935
0.493356
0.486946
0.480746
0.474712
0.468647
0.462431
0.456206
0.450127
0.44412
0.438035
0.431902
0.425879
0.420057
0.414411
0.408933
0.403723
0.398912
0.394547
0.390549
0.386771
0.383097
0.379506
0.37607
0.372896
0.370068
0.367614
0.365521
0.363755
0.3623
0.361183
0.360467
0.360397
0.519921
0.504227
0.48658
0.477423
0.469432
0.462512
0.456279
0.450285
0.444188
0.437931
0.431662
0.425491
0.419293
0.412925
0.406535
0.400346
0.394322
0.388286
0.382235
0.376342
0.370709
0.365302
0.36007
0.355061
0.350383
0.346093
0.342129
0.338355
0.334665
0.331039
0.327558
0.324344
0.321502
0.319077
0.317056
0.315392
0.314048
0.313037
0.312434
0.312429
0.452137
0.4421
0.422664
0.418025
0.413574
0.409315
0.404948
0.400169
0.39479
0.388829
0.382544
0.376224
0.369863
0.36333
0.356765
0.350446
0.344377
0.33838
0.332424
0.326671
0.321231
0.316064
0.311087
0.306291
0.301734
0.297468
0.293466
0.289639
0.285904
0.282251
0.278758
0.27555
0.272738
0.270374
0.268443
0.266893
0.265672
0.264774
0.264272
0.264317
0.344982
0.364458
0.346941
0.352386
0.354593
0.35457
0.352832
0.349636
0.345155
0.339588
0.333336
0.326872
0.320339
0.313645
0.306921
0.300484
0.294384
0.288445
0.282606
0.276987
0.271695
0.266705
0.261928
0.2573
0.25283
0.248557
0.24449
0.240591
0.236815
0.233165
0.229709
0.226559
0.223817
0.221537
0.219707
0.218272
0.217171
0.216382
0.215969
0.21605
0.140574
0.248487
0.254748
0.278894
0.292153
0.298315
0.300077
0.298814
0.29534
0.290202
0.284004
0.2774
0.270693
0.263847
0.256992
0.250465
0.244353
0.238492
0.232792
0.227313
0.222126
0.217219
0.212524
0.207978
0.203559
0.19928
0.195161
0.19121
0.187426
0.183823
0.180456
0.177408
0.174767
0.172586
0.17086
0.169534
0.168542
0.167852
0.167515
0.167624
1342.76
762.547
950.853
521.233
707.427
494.278
509.53
377.153
333.145
227.701
187.029
107.755
71.1447
17.9496
-18.5131
-50.0411
-82.013
-97.8138
-101.718
-123.385
-122.382
-85.7066
-38.7434
-19.5782
-11.6
-7.28741
-7.04315
-7.04221
-6.49552
-5.35463
-4.57096
-4.34653
-4.24874
-4.05267
-3.81488
-3.54576
-3.29161
-3.098
-2.96824
-2.88744
-2.84354
-2.82706
-2.82999
-52.4793
-8.25135
-1.89374
-1.98227
-18.603
-5.21674
-1.58376
-0.646549
102.133
0.943865
-1.10824
-0.547835
142.987
3.70043
-1.42883
-0.531545
100.227
1.3842
-5.19003
-0.827533
38.1884
-11.3323
-14.0941
-1.2631
-18.8395
-35.7861
-31.3332
-4.76211
-68.2758
-66.2662
-51.033
-10.8458
-105.545
-94.2434
-69.111
-20.6698
-127.529
-113.844
-85.1212
-31.7558
-135.983
-123.448
-95.8518
-42.0912
-128.951
-124.139
-98.9876
-48.3027
-113.459
-118.72
-94.615
-48.1913
-93.3899
-107.446
-84.2064
-42.084
-65.1288
-90.9552
-68.1687
-30.7319
-41.2574
-72.8361
-48.4413
-15.2865
-30.5636
-57.6199
-33.2925
-6.2576
-26.2944
-43.8663
-22.9966
-3.71355
-17.6284
-27.7719
-8.49284
2.30671
-8.07661
-16.4645
-6.11256
1.40419
-5.19845
-8.74929
-8.83105
-6.0755
-4.45229
-3.30128
-7.13407
-12.4206
-4.01533
-3.77253
-3.98484
-10.2183
-3.79913
-3.40496
-3.83394
-5.41939
-3.61721
-3.24296
-2.77405
-2.41218
-3.3497
-3.04109
-2.51508
-1.71365
-3.06143
-2.76191
-2.28959
-1.69705
-2.85298
-2.55159
-2.15378
-1.73058
-2.73645
-2.46395
-2.14388
-1.82402
-2.67946
-2.4478
-2.19331
-1.94399
-2.66101
-2.46578
-2.26034
-2.06144
-2.6685
-2.50341
-2.33418
-2.17151
-2.69244
-2.55206
-2.41053
-2.27493
-0.38627
0.0333853
0.141944
0.19738
0.225811
0.240466
0.246573
0.247486
0.24503
0.240285
0.234121
0.227368
0.220477
0.213481
0.20652
0.199908
0.193766
0.187978
0.182435
0.17711
0.171997
0.16709
0.162376
0.157834
0.153432
0.149157
0.145027
0.141078
0.13734
0.133836
0.1306
0.127688
0.12517
0.123096
0.121468
0.120239
0.119342
0.118738
0.118467
0.1186
-0.318204
-0.119307
0.0328476
0.115803
0.159583
0.182396
0.192839
0.19582
0.194209
0.189708
0.183493
0.17656
0.169471
0.16232
0.155256
0.148551
0.142334
0.13656
0.131139
0.125959
0.120915
0.115977
0.111192
0.106604
0.102203
0.0979596
0.0938771
0.0899965
0.0863638
0.0830041
0.0799326
0.0771808
0.0747991
0.0728334
0.0712942
0.0701465
0.0693287
0.0688
0.0685864
0.0687425
-0.353271
-0.210767
-0.0565495
0.0417148
0.0969806
0.126345
0.14014
0.144534
0.143316
0.138766
0.13235
0.125178
0.117854
0.110543
0.103397
0.0966107
0.0902717
0.0844074
0.0790048
0.0739176
0.0689395
0.063983
0.0591287
0.0544942
0.0501108
0.0459422
0.0419669
0.0382154
0.0347368
0.0315557
0.0286724
0.0260943
0.0238525
0.0219905
0.0205288
0.0194483
0.018696
0.0182317
0.0180712
0.0182511
-0.37376
-0.291928
-0.125025
-0.0178648
0.0427665
0.074795
0.0896168
0.094086
0.0924921
0.0874447
0.0805985
0.0730933
0.0655057
0.058041
0.0508557
0.0440346
0.0375711
0.0315429
0.0260481
0.0209668
0.0160195
0.0110574
0.00617145
0.00153332
-0.00278803
-0.00683483
-0.0106537
-0.0142303
-0.0175192
-0.0204993
-0.023184
-0.0255865
-0.0276911
-0.0294558
-0.0308489
-0.0318736
-0.032571
-0.0329785
-0.0330878
-0.0328803
-0.428468
-0.255029
-0.133481
-0.0486969
0.00314841
0.0304392
0.0422489
0.0446616
0.0415976
0.0355017
0.0279742
0.020049
0.0121779
0.00456788
-0.00261006
-0.0093778
-0.015878
-0.0220361
-0.0276644
-0.0328164
-0.0377857
-0.0427552
-0.0476314
-0.0522176
-0.0564271
-0.0603114
-0.0639385
-0.0673103
-0.0703894
-0.073161
-0.0756493
-0.0778829
-0.0798566
-0.0815298
-0.0828601
-0.0838363
-0.0844858
-0.0848406
-0.0848985
-0.0846589
-0.0262055
-0.202821
-0.0777623
-0.0404194
-0.0170007
-0.00503022
-0.00170352
-0.00407997
-0.00988211
-0.0175633
-0.0259535
-0.0343225
-0.0424466
-0.0501692
-0.0572916
-0.0639086
-0.0702983
-0.0764494
-0.0821371
-0.0873547
-0.0923618
-0.0973349
-0.102172
-0.106666
-0.110728
-0.114426
-0.117844
-0.121002
-0.123871
-0.126442
-0.128745
-0.13082
-0.132669
-0.134255
-0.135525
-0.136456
-0.137061
-0.137364
-0.137369
-0.137093
-0.0757459
-0.0281013
0.0105957
0.000632841
-0.0176545
-0.0318986
-0.0431293
-0.0531753
-0.0628701
-0.0724782
-0.0817295
-0.0904139
-0.0986298
-0.106341
-0.113341
-0.119749
-0.125907
-0.131876
-0.137455
-0.142626
-0.147616
-0.152563
-0.157335
-0.161712
-0.165612
-0.169118
-0.172335
-0.175294
-0.177971
-0.18036
-0.182495
-0.184423
-0.186154
-0.187654
-0.188864
-0.189748
-0.190309
-0.19056
-0.190508
-0.190189
-0.549695
0.151238
0.111475
0.064937
-0.00352992
-0.0532603
-0.0844411
-0.104487
-0.118706
-0.130151
-0.139951
-0.148603
-0.156574
-0.164002
-0.170737
-0.17688
-0.18274
-0.188389
-0.193684
-0.198653
-0.203517
-0.20837
-0.213036
-0.217275
-0.221012
-0.224345
-0.227389
-0.230182
-0.232701
-0.234934
-0.236921
-0.238715
-0.240335
-0.241749
-0.242897
-0.243731
-0.244242
-0.244437
-0.244323
-0.243956
-1.65718
0.178277
0.261229
0.146341
0.0145386
-0.0759211
-0.129941
-0.160775
-0.179113
-0.191616
-0.201244
-0.209282
-0.216516
-0.223243
-0.22943
-0.235167
-0.240656
-0.245898
-0.250789
-0.255429
-0.260056
-0.264729
-0.26923
-0.273307
-0.276889
-0.28008
-0.282996
-0.285669
-0.288067
-0.290177
-0.292039
-0.293715
-0.295231
-0.296561
-0.29764
-0.298416
-0.298872
-0.299004
-0.298823
-0.298403
-2.91637
0.253427
0.462574
0.226428
0.0206044
-0.110645
-0.185782
-0.225524
-0.246024
-0.257907
-0.266151
-0.272773
-0.27869
-0.284242
-0.289497
-0.294565
-0.299525
-0.304262
-0.30867
-0.312901
-0.317211
-0.321627
-0.32591
-0.329801
-0.333239
-0.336324
-0.33916
-0.34176
-0.34408
-0.346101
-0.347866
-0.349441
-0.350861
-0.352103
-0.353107
-0.353817
-0.354208
-0.354271
-0.354015
-0.353536
-5.09033
0.277149
0.616332
0.259426
-0.00925423
-0.172927
-0.259093
-0.302226
-0.321126
-0.329796
-0.334954
-0.33914
-0.343117
-0.347055
-0.35102
-0.355124
-0.35933
-0.363412
-0.367246
-0.37101
-0.374952
-0.379065
-0.38309
-0.386781
-0.390086
-0.393097
-0.395894
-0.398465
-0.400749
-0.402717
-0.404411
-0.405902
-0.407233
-0.408386
-0.409307
-0.40994
-0.410258
-0.410243
-0.409908
-0.409366
-7.16041
0.0786772
0.572508
0.187121
-0.0995835
-0.269205
-0.356091
-0.393307
-0.405259
-0.407567
-0.407606
-0.408096
-0.409415
-0.411362
-0.413824
-0.416781
-0.420058
-0.423338
-0.426502
-0.429744
-0.433282
-0.437062
-0.440808
-0.44429
-0.44747
-0.450431
-0.453224
-0.455805
-0.458087
-0.460032
-0.461678
-0.463101
-0.464349
-0.465414
-0.466246
-0.466795
-0.46703
-0.466931
-0.46651
-0.465902
-7.98627
-0.189491
0.322856
-0.00971404
-0.257886
-0.404582
-0.47619
-0.499079
-0.498497
-0.490862
-0.483665
-0.479099
-0.476972
-0.47658
-0.47744
-0.479226
-0.481536
-0.483968
-0.486426
-0.489124
-0.492239
-0.495664
-0.499114
-0.502381
-0.505443
-0.508374
-0.511188
-0.513803
-0.516106
-0.518049
-0.519666
-0.521035
-0.522209
-0.523188
-0.523929
-0.524387
-0.524532
-0.524342
-0.523832
-0.523155
-7.19178
-0.329525
-0.0497248
-0.291174
-0.463687
-0.567683
-0.614518
-0.615923
-0.598228
-0.578118
-0.562134
-0.551464
-0.545221
-0.542172
-0.541358
-0.542021
-0.543445
-0.545113
-0.546938
-0.54914
-0.551848
-0.554916
-0.558063
-0.561114
-0.564068
-0.56698
-0.569825
-0.572483
-0.574819
-0.576771
-0.578373
-0.579702
-0.580813
-0.58171
-0.58236
-0.582722
-0.582771
-0.582486
-0.581883
-0.581135
-5.22921
-0.450583
-0.439097
-0.588839
-0.687202
-0.746395
-0.761459
-0.737854
-0.700789
-0.666871
-0.641409
-0.624239
-0.613612
-0.607755
-0.605234
-0.604828
-0.605485
-0.606547
-0.6079
-0.609727
-0.6121
-0.614844
-0.617704
-0.620552
-0.623406
-0.626302
-0.629177
-0.631873
-0.634237
-0.636203
-0.6378
-0.639101
-0.640158
-0.64098
-0.641539
-0.641803
-0.641755
-0.641371
-0.640675
-0.639857
-2.90577
-0.648453
-0.781491
-0.864038
-0.906917
-0.923536
-0.905732
-0.857783
-0.801683
-0.754172
-0.7195
-0.696135
-0.681399
-0.672934
-0.668833
-0.667459
-0.667478
-0.668112
-0.669188
-0.670805
-0.672956
-0.675446
-0.678065
-0.68074
-0.683509
-0.68639
-0.68928
-0.691998
-0.69438
-0.696357
-0.697953
-0.699232
-0.700244
-0.700997
-0.701469
-0.701637
-0.701489
-0.701009
-0.70022
-0.69933
-1.70064
-1.065
-1.11022
-1.11466
-1.10501
-1.08273
-1.03764
-0.969266
-0.896522
-0.837006
-0.79434
-0.765741
-0.747671
-0.737175
-0.731868
-0.729759
-0.729329
-0.729734
-0.730734
-0.732314
-0.734376
-0.736709
-0.739157
-0.741705
-0.744414
-0.747278
-0.750169
-0.752887
-0.755269
-0.757246
-0.758837
-0.760098
-0.76107
-0.761761
-0.762152
-0.762227
-0.761984
-0.761408
-0.760528
-0.759569
-0.713152
-1.03754
-1.28557
-1.28738
-1.25119
-1.21121
-1.15063
-1.0674
-0.981798
-0.912836
-0.864102
-0.831802
-0.811584
-0.799928
-0.794008
-0.791555
-0.790965
-0.791388
-0.792521
-0.794233
-0.796334
-0.798615
-0.800977
-0.803463
-0.806144
-0.808997
-0.811872
-0.814567
-0.816926
-0.818886
-0.820462
-0.821703
-0.822641
-0.823276
-0.823592
-0.823581
-0.823247
-0.82258
-0.821612
-0.820586
2.45352
-0.0763496
-1.11546
-1.3251
-1.33853
-1.31108
-1.24409
-1.14997
-1.05505
-0.979635
-0.927308
-0.89334
-0.872532
-0.860819
-0.855024
-0.852733
-0.852359
-0.853088
-0.854569
-0.856563
-0.858821
-0.861153
-0.863524
-0.866019
-0.868714
-0.871564
-0.87441
-0.877058
-0.879368
-0.88129
-0.88284
-0.884059
-0.884964
-0.885549
-0.885797
-0.885706
-0.885288
-0.884534
-0.883482
-0.882392
7.7906
2.07722
-0.856687
-1.44915
-1.47837
-1.42028
-1.32606
-1.21619
-1.1139
-1.03545
-0.982687
-0.949633
-0.930157
-0.919695
-0.914879
-0.913325
-0.91358
-0.914913
-0.916935
-0.91934
-0.921852
-0.924331
-0.926802
-0.929382
-0.932133
-0.934991
-0.937796
-0.940374
-0.942612
-0.944476
-0.945989
-0.94718
-0.948052
-0.948589
-0.948774
-0.94861
-0.948114
-0.94728
-0.946149
-0.945
2.4133
4.37244
-0.616496
-1.57511
-1.67856
-1.55343
-1.39638
-1.26064
-1.15403
-1.07793
-1.02915
-1.00024
-0.984345
-0.976604
-0.973701
-0.973498
-0.974803
-0.977008
-0.979729
-0.982633
-0.985476
-0.988182
-0.990837
-0.993565
-0.996408
-0.999284
-1.00204
-1.00453
-1.00667
-1.00846
-1.00993
-1.01108
-1.01192
-1.01241
-1.01253
-1.0123
-1.01174
-1.01083
-1.00962
-1.00842
-10.501
-1.34744
1.22683
-0.842768
-1.70883
-1.63002
-1.42462
-1.2708
-1.17017
-1.10536
-1.06647
-1.04544
-1.03547
-1.03189
-1.03181
-1.03355
-1.03629
-1.03958
-1.0431
-1.04655
-1.04977
-1.05277
-1.05567
-1.05859
-1.06155
-1.06445
-1.06714
-1.06953
-1.07157
-1.07327
-1.07468
-1.07579
-1.07658
-1.07702
-1.07708
-1.07679
-1.07616
-1.07519
-1.07392
-1.07267
-14.2512
-9.0213
-1.12626
-0.295569
-1.46958
-1.58987
-1.39079
-1.2414
-1.16214
-1.11906
-1.09642
-1.0868
-1.08468
-1.08639
-1.08981
-1.09394
-1.09838
-1.10289
-1.10724
-1.11124
-1.11485
-1.11817
-1.12135
-1.1245
-1.12757
-1.13048
-1.13311
-1.13538
-1.13731
-1.13892
-1.14025
-1.14131
-1.14204
-1.14243
-1.14244
-1.14209
-1.1414
-1.14037
-1.13904
-1.13775
-7.0958
-6.03371
-2.96323
-1.20952
-1.19044
-1.33519
-1.25591
-1.17122
-1.13619
-1.12481
-1.12324
-1.12723
-1.13398
-1.14142
-1.14861
-1.15531
-1.16152
-1.16723
-1.17236
-1.17687
-1.18085
-1.1845
-1.18796
-1.19131
-1.19449
-1.1974
-1.19994
-1.2021
-1.20391
-1.20542
-1.20667
-1.20766
-1.20834
-1.20866
-1.20861
-1.2082
-1.20746
-1.20638
-1.20501
-1.20369
-2.0796
-2.03233
-1.60313
-0.867729
-0.736628
-0.939743
-1.05677
-1.09061
-1.11341
-1.13519
-1.15433
-1.17125
-1.18608
-1.19869
-1.20931
-1.21835
-1.22616
-1.23291
-1.23868
-1.24361
-1.24792
-1.25186
-1.25558
-1.2591
-1.26234
-1.26521
-1.26766
-1.26969
-1.27138
-1.27279
-1.27396
-1.27486
-1.27546
-1.27572
-1.27561
-1.27515
-1.27436
-1.27323
-1.27183
-1.27048
-1.13299
-0.961194
-0.879727
-0.739231
-0.653363
-0.786531
-0.963647
-1.06299
-1.12135
-1.16396
-1.19686
-1.22272
-1.24327
-1.25965
-1.27285
-1.28369
-1.2927
-1.30018
-1.3064
-1.31162
-1.31619
-1.32036
-1.32426
-1.32788
-1.33114
-1.33394
-1.33627
-1.33817
-1.33974
-1.34104
-1.34211
-1.34293
-1.34344
-1.34362
-1.34345
-1.34293
-1.3421
-1.34094
-1.33951
-1.33814
-1.20388
-0.957255
-0.854244
-0.795365
-0.808348
-0.900253
-1.01765
-1.10491
-1.16747
-1.21593
-1.25391
-1.28362
-1.30689
-1.32523
-1.33988
-1.35175
-1.36141
-1.36926
-1.37568
-1.38106
-1.38578
-1.39009
-1.39408
-1.39771
-1.4009
-1.40359
-1.40578
-1.40755
-1.409
-1.41019
-1.41115
-1.41186
-1.41228
-1.41238
-1.41213
-1.41156
-1.41069
-1.40951
-1.40806
-1.40667
-1.3706
-1.14882
-1.04193
-0.993897
-0.998656
-1.05085
-1.12173
-1.18725
-1.24222
-1.28767
-1.32454
-1.35394
-1.37724
-1.39579
-1.41069
-1.42273
-1.43244
-1.44027
-1.44666
-1.45204
-1.45678
-1.46111
-1.46507
-1.46861
-1.47166
-1.47419
-1.47622
-1.47785
-1.47917
-1.48024
-1.48108
-1.48168
-1.48199
-1.48199
-1.48167
-1.48105
-1.48014
-1.47894
-1.47747
-1.47609
-1.54733
-1.35778
-1.24986
-1.19373
-1.18064
-1.20345
-1.24623
-1.29281
-1.33618
-1.37422
-1.40626
-1.43255
-1.45387
-1.47117
-1.48522
-1.49663
-1.50584
-1.51328
-1.5194
-1.52462
-1.52925
-1.53345
-1.53725
-1.5406
-1.54344
-1.54575
-1.54761
-1.54908
-1.55026
-1.5512
-1.55191
-1.55237
-1.55256
-1.55246
-1.55206
-1.55139
-1.55046
-1.54923
-1.54777
-1.54639
-1.72105
-1.55397
-1.44614
-1.38311
-1.35668
-1.36003
-1.3819
-1.41139
-1.44212
-1.4709
-1.49628
-1.51785
-1.53587
-1.55082
-1.56316
-1.57328
-1.58153
-1.58829
-1.59395
-1.59884
-1.6032
-1.60713
-1.61064
-1.61368
-1.61623
-1.6183
-1.61994
-1.62125
-1.62228
-1.62307
-1.62363
-1.62395
-1.62401
-1.6238
-1.62332
-1.62259
-1.62163
-1.6204
-1.61894
-1.61757
-1.87821
-1.73131
-1.62792
-1.56147
-1.5259
-1.5149
-1.52067
-1.53562
-1.55441
-1.57379
-1.59196
-1.60813
-1.62211
-1.63402
-1.64404
-1.65241
-1.65938
-1.66524
-1.67026
-1.67467
-1.6786
-1.68211
-1.6852
-1.68785
-1.69005
-1.69183
-1.69325
-1.69436
-1.69522
-1.69585
-1.69625
-1.69641
-1.69632
-1.69599
-1.69543
-1.69466
-1.69368
-1.69244
-1.691
-1.68964
-2.0188
-1.89039
-1.79408
-1.72698
-1.68514
-1.66381
-1.65743
-1.6606
-1.66904
-1.67982
-1.69106
-1.70176
-1.71144
-1.71996
-1.72735
-1.73371
-1.73921
-1.74401
-1.74824
-1.75201
-1.75537
-1.75834
-1.7609
-1.76308
-1.76488
-1.76635
-1.76752
-1.76842
-1.76909
-1.76953
-1.76974
-1.76973
-1.7695
-1.76905
-1.76841
-1.76759
-1.76658
-1.76535
-1.76393
-1.7626
-2.14591
-2.03345
-1.94478
-1.87886
-1.8333
-1.8048
-1.78947
-1.78343
-1.78335
-1.7867
-1.79171
-1.79725
-1.80272
-1.80785
-1.81256
-1.81686
-1.8208
-1.82441
-1.82772
-1.83071
-1.83337
-1.83569
-1.83768
-1.83935
-1.84073
-1.84186
-1.84274
-1.8434
-1.84385
-1.84408
-1.8441
-1.84391
-1.84353
-1.84297
-1.84225
-1.84138
-1.84036
-1.83914
-1.83773
-1.83644
)
;

boundaryField
{
    leftWall
    {
        type            calculated;
        value           nonuniform 0();
    }
    rightWall
    {
        type            calculated;
        value           nonuniform List<scalar> 
43
(
0.598482
0.550989
0.503562
0.45598
0.408239
0.360397
0.312429
0.264317
0.21605
0.167624
0.1186
0.0687425
0.0182511
-0.0328803
-0.0846589
-0.137093
-0.190189
-0.243956
-0.298403
-0.353536
-0.409366
-0.465902
-0.523155
-0.581135
-0.639857
-0.69933
-0.759569
-0.820586
-0.882392
-0.945
-1.00842
-1.07267
-1.13775
-1.20369
-1.27048
-1.33814
-1.40667
-1.47609
-1.54639
-1.61757
-1.68964
-1.7626
-1.83644
)
;
    }
    lowerWall
    {
        type            calculated;
        value           nonuniform List<scalar> 
66
(
2952.73
3007.79
2988.21
2942.16
2935.94
2963.83
2977.91
2951.59
2861.2
2678.28
2347.01
1767.1
-43.7874
-8.22738
-1.86978
-1.9583
0.800774
0.756738
0.712431
0.668053
0.622511
0.574174
0.519921
0.452137
0.344982
0.140574
0.824317
0.81422
0.805954
0.797067
0.788056
0.780066
0.77316
0.767149
0.76172
0.756494
0.751197
0.745664
0.739828
0.733701
0.727332
0.720771
0.71408
0.707296
0.700505
0.693849
0.68736
0.681088
0.675065
0.669332
0.663938
0.658839
0.653978
0.649427
0.645231
0.64141
0.637952
0.634856
0.6321
0.629689
0.627602
0.625786
0.624316
0.623261
0.622557
0.622026
)
;
    }
    atmosphere
    {
        type            calculated;
        value           nonuniform 0();
    }
    defaultFaces
    {
        type            empty;
    }
    procBoundary1to0
    {
        type            processor;
        value           nonuniform List<scalar> 
44
(
2906.93
2870.83
2843.63
2804.04
2741.08
2646.53
2511.17
2325.91
2082.6
1780.22
1433.13
1108.22
850.543
633.332
438.791
269.811
129.528
16.1974
-58.6368
-60.0658
-60.2435
-60.2435
-23.1322
-9.51249
-6.38664
-5.86223
-5.8813
-5.93423
-5.83011
-5.6288
-5.33523
-5.00312
-4.64769
-4.3827
-4.13846
-3.90941
-3.67976
-3.46543
-3.29045
-3.15971
-3.06782
-3.00804
-2.97419
-2.9603
)
;
    }
    procBoundary1to3
    {
        type            processor;
        value           nonuniform List<scalar> 
45
(
-2.84579
-2.72626
-2.60605
-2.48627
-2.37156
-2.26117
-2.16219
-2.08103
-2.01748
-1.97025
-1.93716
-1.91552
-1.90255
-1.8957
-1.89285
-1.89244
-1.89338
-1.89501
-1.89701
-1.89921
-1.90152
-1.90389
-1.90624
-1.90849
-1.91058
-1.91245
-1.91408
-1.91546
-1.91661
-1.91756
-1.91832
-1.91889
-1.91928
-1.91947
-1.91947
-1.91928
-1.91891
-1.91839
-1.91773
-1.91695
-1.91605
-1.91502
-1.9138
-1.91242
-1.91117
)
;
    }
}


// ************************************************************************* //
