/*--------------------------------*- C++ -*----------------------------------*\
| =========                 |                                                 |
| \\      /  F ield         | OpenFOAM: The Open Source CFD Toolbox           |
|  \\    /   O peration     | Version:  5.0                                   |
|   \\  /    A nd           | Web:      www.OpenFOAM.org                      |
|    \\/     M anipulation  |                                                 |
\*---------------------------------------------------------------------------*/
FoamFile
{
    version     2.0;
    format      ascii;
    class       volScalarField;
    location    "0.25";
    object      p_rgh;
}
// * * * * * * * * * * * * * * * * * * * * * * * * * * * * * * * * * * * * * //

dimensions      [1 -1 -2 0 0 0 0];

internalField   nonuniform List<scalar> 
1915
(
2952.73
3007.79
2931.52
3012.79
2982.27
3052.74
3031.24
3128.3
3055.97
3189.8
3041.67
3210.57
2974.68
3167.26
2839.91
3031.43
2618.72
2747.25
2291.53
2214.43
0.824317
0.81422
0.805954
0.797067
0.788056
0.780066
0.77316
0.767149
0.76172
0.756494
0.751197
0.745664
0.739828
0.733701
0.727332
0.720771
0.71408
0.707296
0.700505
0.693849
0.68736
0.681088
0.675065
0.669332
0.663938
0.658839
0.653978
0.649427
0.645231
0.64141
0.637952
0.634856
0.6321
0.629689
0.627602
0.625786
0.624316
0.623261
0.622557
0.622026
0.827369
0.818845
0.810128
0.799659
0.789107
0.77993
0.772235
0.76577
0.759904
0.754357
0.748883
0.743283
0.73745
0.731384
0.725136
0.718722
0.712147
0.705525
0.698945
0.692437
0.686094
0.679956
0.674056
0.668441
0.663147
0.658165
0.653478
0.649063
0.64499
0.641272
0.637877
0.634851
0.632153
0.629763
0.627648
0.625814
0.624273
0.623084
0.622236
0.621619
0.830149
0.82032
0.810872
0.800144
0.789315
0.779682
0.771518
0.764365
0.757962
0.752016
0.746296
0.740582
0.734716
0.728683
0.722541
0.716315
0.709969
0.703543
0.697107
0.690747
0.684547
0.678527
0.672727
0.667211
0.662041
0.65723
0.652718
0.64848
0.644526
0.640866
0.637551
0.634547
0.631854
0.629454
0.627333
0.625453
0.623865
0.622621
0.621718
0.621279
0.832858
0.821101
0.809993
0.799049
0.788285
0.778611
0.770228
0.762816
0.75608
0.74983
0.743902
0.738079
0.732165
0.726119
0.720031
0.71395
0.707794
0.701527
0.695212
0.688971
0.682884
0.676955
0.671221
0.665777
0.660717
0.656067
0.651762
0.647724
0.64391
0.640321
0.636996
0.63396
0.63123
0.628801
0.626658
0.624779
0.623191
0.621962
0.62101
0.620784
0.834402
0.820692
0.807525
0.796361
0.785855
0.776514
0.768353
0.76104
0.754246
0.747837
0.741752
0.735832
0.729859
0.723753
0.717636
0.711604
0.705563
0.699405
0.693185
0.687047
0.681076
0.675256
0.669609
0.66425
0.659308
0.654818
0.6507
0.646829
0.643116
0.639546
0.636171
0.633066
0.630282
0.62783
0.625695
0.623853
0.622311
0.621113
0.620277
0.620131
0.833152
0.817689
0.802293
0.791452
0.781715
0.773219
0.765756
0.758913
0.752334
0.745924
0.739725
0.73369
0.727626
0.721409
0.715184
0.709105
0.703098
0.697013
0.69088
0.684858
0.679035
0.673389
0.667912
0.662702
0.657891
0.653526
0.649527
0.645749
0.642076
0.638485
0.635048
0.631875
0.629046
0.626592
0.624499
0.622734
0.621279
0.620161
0.619446
0.619376
0.825986
0.810293
0.792645
0.783488
0.775498
0.768577
0.762344
0.75635
0.750253
0.743997
0.737727
0.731556
0.725359
0.71899
0.7126
0.706412
0.700387
0.694351
0.6883
0.682408
0.676775
0.671367
0.666135
0.661126
0.656449
0.652158
0.648194
0.644421
0.64073
0.637105
0.633623
0.63041
0.627567
0.625142
0.623121
0.621457
0.620114
0.619102
0.6185
0.618495
0.80529
0.795253
0.775816
0.771178
0.766726
0.762468
0.7581
0.753321
0.747942
0.741981
0.735697
0.729376
0.723015
0.716482
0.709917
0.703598
0.69753
0.691532
0.685576
0.679823
0.674383
0.669216
0.66424
0.659443
0.654886
0.650621
0.646619
0.642791
0.639056
0.635404
0.63191
0.628702
0.625891
0.623527
0.621596
0.620046
0.618824
0.617926
0.617425
0.617469
0.745221
0.764697
0.74718
0.752625
0.754832
0.75481
0.753072
0.749875
0.745395
0.739827
0.733575
0.727111
0.720578
0.713885
0.70716
0.700723
0.694623
0.688684
0.682845
0.677226
0.671934
0.666945
0.662167
0.65754
0.65307
0.648797
0.644729
0.64083
0.637055
0.633404
0.629948
0.626798
0.624057
0.621776
0.619946
0.618512
0.617411
0.616621
0.616208
0.61629
0.5879
0.695813
0.702074
0.72622
0.739479
0.745641
0.747403
0.74614
0.742666
0.737529
0.73133
0.724726
0.718019
0.711173
0.704319
0.697791
0.691679
0.685818
0.680118
0.674639
0.669452
0.664545
0.65985
0.655304
0.650885
0.646606
0.642487
0.638537
0.634752
0.63115
0.627782
0.624735
0.622094
0.619912
0.618186
0.61686
0.615869
0.615178
0.614841
0.614951
1837.59
1257.38
1493.84
1064.22
1299.02
1085.87
1150.17
1017.79
1023.29
917.85
927.148
847.872
861.694
808.498
822.934
791.405
810.848
795.011
836.34
821.194
870.654
815.259
678.469
292.17
57.2213
-5.73147
-5.53073
-5.60288
-5.04398
-3.87193
-3.02234
-2.74
-2.58425
-2.32184
-2.02041
-1.68548
-1.37051
-1.12669
-0.941135
-0.798349
-0.691605
-0.611624
-0.550429
126.99
-7.75651
-1.39891
-1.48743
324.998
9.45906
-1.04077
-0.10356
694.446
106.032
-0.516647
0.043754
785.304
367.721
17.0213
0.0728414
790.751
688.968
146.776
1.90933
778.353
728.834
349.419
18.1511
771.778
755.248
706.545
115.961
773.194
775.284
789.269
225.046
787.164
798.37
822.922
484.707
816.941
830.001
858.154
693.891
859.918
872.071
899.054
831.307
916.944
923.469
946.674
906.534
980.401
979.7
1002.71
978.568
988.706
1041.07
1065.68
1035.09
953.954
1108.43
1133.7
1090.05
892.059
1166.38
1198.41
1124.74
832.599
1211.45
1167.86
895.159
835.441
1256.93
1092.88
227.449
823.668
1306.16
1247.01
198.744
521.549
1342.46
1325.85
815.942
32.6098
1240.07
1349.7
1337.9
-2.85169
617.719
1269.61
1282.41
-2.33646
11.0702
609.174
797.947
-2.04604
1.36467
35.3875
134.137
-1.0005
0.184429
10.1138
17.2234
-0.903792
-0.233021
2.88615
5.53361
-1.06699
-0.477392
0.613658
1.66659
-0.874754
-0.4908
0.0451432
0.583975
-0.706235
-0.41644
-0.0675535
0.277416
-0.589458
-0.354985
-0.0947076
0.159428
-0.508911
-0.313239
-0.10672
0.0930058
-0.453031
-0.287875
-0.118469
0.044331
-0.412878
-0.272482
-0.130931
0.00468645
0.108565
0.528221
0.636779
0.692215
0.720647
0.735301
0.741408
0.742322
0.739866
0.73512
0.728956
0.722203
0.715313
0.708316
0.701355
0.694743
0.688601
0.682814
0.67727
0.671946
0.666832
0.661925
0.657212
0.652669
0.648267
0.643993
0.639863
0.635913
0.632175
0.628671
0.625435
0.622523
0.620005
0.617931
0.616304
0.615074
0.614177
0.613573
0.613302
0.613436
0.224785
0.423682
0.575836
0.658792
0.702572
0.725385
0.735827
0.738808
0.737198
0.732696
0.726482
0.719549
0.71246
0.705308
0.698245
0.69154
0.685322
0.679549
0.674127
0.668948
0.663904
0.658966
0.654181
0.649593
0.645192
0.640948
0.636866
0.632985
0.629353
0.625993
0.622921
0.62017
0.617788
0.615822
0.614283
0.613135
0.612317
0.611789
0.611575
0.611731
0.238319
0.380823
0.53504
0.633304
0.68857
0.717934
0.731729
0.736123
0.734906
0.730355
0.72394
0.716767
0.709444
0.702132
0.694986
0.6882
0.681861
0.675997
0.670594
0.665507
0.660529
0.655572
0.650718
0.646084
0.6417
0.637532
0.633556
0.629805
0.626326
0.623145
0.620262
0.617684
0.615442
0.61358
0.612118
0.611038
0.610285
0.609821
0.609661
0.609841
0.266881
0.348714
0.515616
0.622777
0.683408
0.715436
0.730258
0.734727
0.733133
0.728086
0.72124
0.713735
0.706147
0.698682
0.691497
0.684676
0.678212
0.672184
0.666689
0.661608
0.656661
0.651699
0.646813
0.642175
0.637853
0.633806
0.629988
0.626411
0.623122
0.620142
0.617457
0.615055
0.61295
0.611185
0.609792
0.608768
0.60807
0.607663
0.607554
0.607761
0.217963
0.43512
0.556668
0.641452
0.693297
0.720588
0.732398
0.73481
0.731746
0.72565
0.718123
0.710198
0.702327
0.694716
0.687539
0.680771
0.674271
0.668113
0.662484
0.657332
0.652363
0.647393
0.642517
0.637931
0.633722
0.629837
0.62621
0.622838
0.619759
0.616988
0.614499
0.612266
0.610292
0.608619
0.607289
0.606312
0.605663
0.605308
0.60525
0.60549
1.19987
0.522977
0.662353
0.699696
0.723115
0.735085
0.738412
0.736036
0.730233
0.722552
0.714162
0.705793
0.697669
0.689946
0.682824
0.676207
0.669817
0.663666
0.657979
0.652761
0.647754
0.642781
0.637943
0.63345
0.629387
0.62569
0.622271
0.619114
0.616245
0.613674
0.611371
0.609296
0.607446
0.605861
0.604591
0.60366
0.603055
0.602751
0.602747
0.603023
2.7601
0.777456
0.800234
0.791167
0.772892
0.75865
0.74742
0.737371
0.727676
0.718068
0.708817
0.700133
0.691917
0.684206
0.677205
0.670798
0.664639
0.65867
0.653092
0.647921
0.64293
0.637984
0.633211
0.628835
0.624934
0.621428
0.618211
0.615253
0.612575
0.610186
0.608051
0.606123
0.604392
0.602893
0.601682
0.600798
0.600238
0.599987
0.600039
0.600357
4.6
1.19865
0.964131
0.906944
0.837918
0.788195
0.757058
0.736959
0.722739
0.711295
0.701494
0.692842
0.684872
0.677444
0.670708
0.664566
0.658706
0.653057
0.647762
0.642793
0.637928
0.633076
0.62841
0.624171
0.620433
0.617101
0.614056
0.611263
0.608745
0.606511
0.604525
0.602731
0.601111
0.599696
0.598549
0.597715
0.597204
0.597009
0.597123
0.597489
24.1709
1.69618
1.2139
1.04191
0.907369
0.816908
0.762946
0.732045
0.713704
0.701201
0.691574
0.683536
0.676302
0.669574
0.663388
0.657651
0.652161
0.646919
0.642028
0.637388
0.632761
0.628089
0.623587
0.61951
0.615928
0.612738
0.609821
0.607148
0.60475
0.60264
0.600778
0.599103
0.597586
0.596257
0.595177
0.594401
0.593945
0.593813
0.593995
0.594415
69.3341
2.41054
1.55894
1.18694
0.965357
0.83404
0.758951
0.719154
0.698642
0.686759
0.678515
0.671894
0.665976
0.660424
0.655169
0.650101
0.645141
0.640404
0.635996
0.631765
0.627455
0.623039
0.618756
0.614865
0.611427
0.608342
0.605506
0.602907
0.600586
0.598565
0.5968
0.595225
0.593805
0.592563
0.591559
0.590849
0.590458
0.590395
0.590651
0.59113
127.509
3.10534
1.90645
1.33273
1.04065
0.824415
0.737921
0.694791
0.675871
0.667201
0.662042
0.657856
0.65388
0.649941
0.645976
0.641873
0.637666
0.633584
0.62975
0.625986
0.622044
0.617931
0.613906
0.610215
0.60691
0.6039
0.601102
0.598531
0.596247
0.594279
0.592585
0.591094
0.589763
0.58861
0.587689
0.587056
0.586738
0.586753
0.587089
0.58763
187.769
3.30617
2.017
1.37394
1.05071
0.789573
0.693737
0.65652
0.644555
0.642245
0.642206
0.641716
0.640397
0.638451
0.635988
0.633031
0.629754
0.626474
0.62331
0.620068
0.61653
0.61275
0.609004
0.605522
0.602342
0.599381
0.596588
0.594007
0.591725
0.58978
0.588134
0.586711
0.585463
0.584398
0.583566
0.583017
0.582782
0.582881
0.583302
0.58391
244.651
3.05798
1.86226
1.26459
0.956309
0.712922
0.626937
0.604041
0.604623
0.612257
0.619453
0.624019
0.626146
0.626538
0.625679
0.623892
0.621582
0.61915
0.616692
0.613995
0.61088
0.607454
0.604004
0.600738
0.597675
0.594745
0.591931
0.589316
0.587012
0.58507
0.583452
0.582083
0.580909
0.579931
0.579189
0.578732
0.578586
0.578776
0.579287
0.579964
282.674
3.13181
1.55103
1.03928
0.802142
0.616205
0.542433
0.540998
0.558692
0.578802
0.594786
0.605456
0.611698
0.614748
0.615562
0.614899
0.613475
0.611807
0.609981
0.60778
0.605072
0.602003
0.598857
0.595805
0.592852
0.58994
0.587095
0.584436
0.582101
0.580149
0.578547
0.577218
0.576107
0.57521
0.57456
0.574198
0.574148
0.574434
0.575037
0.575784
291.061
3.79374
1.22068
0.774332
0.635829
0.513615
0.449851
0.47337
0.510432
0.544349
0.569811
0.586981
0.597608
0.603465
0.605987
0.606393
0.605736
0.604674
0.60332
0.601493
0.59912
0.596377
0.593517
0.590669
0.587814
0.584918
0.582044
0.579348
0.576984
0.575018
0.57342
0.57212
0.571063
0.570241
0.569682
0.569417
0.569466
0.569849
0.570545
0.571364
280.392
3.29659
0.912879
0.56418
0.486029
0.40019
0.360503
0.408258
0.464345
0.511854
0.546525
0.569891
0.584626
0.593092
0.597193
0.598567
0.598548
0.597914
0.596838
0.595221
0.59307
0.59058
0.587961
0.585286
0.582516
0.579636
0.576746
0.574028
0.571646
0.569669
0.568073
0.566794
0.565782
0.565029
0.564557
0.564389
0.564536
0.565017
0.565806
0.566695
171.003
1.69847
0.604398
0.372529
0.341736
0.297775
0.285614
0.352111
0.424823
0.484334
0.527
0.555599
0.573668
0.584165
0.589471
0.59158
0.59201
0.591605
0.590606
0.589025
0.586964
0.584631
0.582183
0.579634
0.576926
0.574061
0.571171
0.568452
0.56607
0.564093
0.562503
0.561242
0.560269
0.559578
0.559188
0.559113
0.559356
0.559931
0.560811
0.56177
21.843
1.99724
0.426921
0.211608
0.206008
0.220474
0.235247
0.309847
0.395382
0.464333
0.513066
0.545365
0.565583
0.577239
0.583159
0.585612
0.586202
0.585779
0.584646
0.582934
0.580833
0.578552
0.57619
0.573704
0.571023
0.56817
0.565295
0.5626
0.560241
0.558281
0.556705
0.555464
0.554526
0.553891
0.553575
0.553586
0.55392
0.554587
0.555555
0.556581
10.0099
2.59391
0.600651
0.198022
0.155039
0.17363
0.2022
0.283704
0.378491
0.453881
0.506205
0.540173
0.560981
0.572694
0.578488
0.58078
0.581154
0.580425
0.578944
0.57695
0.574692
0.57236
0.569989
0.567493
0.564799
0.561949
0.559103
0.556455
0.554145
0.552223
0.550672
0.549454
0.548548
0.547964
0.547716
0.547807
0.548225
0.548979
0.550031
0.551121
128.2
6.19592
1.05374
0.163875
0.0859036
0.120464
0.177873
0.274804
0.376565
0.454945
0.507696
0.540749
0.560225
0.570687
0.575502
0.577057
0.576801
0.575469
0.573446
0.571042
0.568529
0.566051
0.563579
0.561
0.558249
0.55539
0.552585
0.550007
0.54777
0.545905
0.544392
0.543202
0.542329
0.541792
0.541608
0.541772
0.542267
0.543102
0.544233
0.545382
911.143
319.816
26.703
0.373421
-0.016674
0.0597995
0.165277
0.289118
0.393984
0.469878
0.51863
0.54754
0.563434
0.571174
0.574078
0.574281
0.572976
0.570771
0.56805
0.565145
0.562303
0.559597
0.556942
0.554213
0.55137
0.548495
0.545741
0.543251
0.541106
0.539314
0.53785
0.536696
0.53586
0.535371
0.535246
0.535476
0.536043
0.536952
0.538154
0.539358
1170.51
927.456
259.441
3.65114
0.411932
0.105091
0.208815
0.339116
0.436061
0.500407
0.539239
0.560267
0.570243
0.573815
0.573899
0.572158
0.569422
0.566127
0.562608
0.559156
0.555938
0.552943
0.550041
0.547116
0.544158
0.541264
0.538569
0.536182
0.534143
0.532436
0.531032
0.529922
0.529131
0.528692
0.528624
0.528917
0.529549
0.530523
0.53179
0.533041
745.494
635.635
298.123
43.0007
1.42068
0.303425
0.318958
0.429662
0.502908
0.545216
0.567763
0.577378
0.579499
0.577789
0.574367
0.570232
0.565795
0.561287
0.556938
0.552935
0.549325
0.546007
0.542823
0.539681
0.536604
0.533696
0.531071
0.528796
0.52687
0.525257
0.523923
0.52287
0.522132
0.521748
0.521737
0.522088
0.522778
0.523811
0.525132
0.526424
97.4975
52.9193
88.603
49.1007
7.27327
0.689458
0.518926
0.559651
0.587985
0.598487
0.599961
0.595958
0.589204
0.581764
0.574576
0.56788
0.561668
0.555958
0.55083
0.546319
0.542333
0.538689
0.535222
0.531872
0.528692
0.525788
0.523246
0.521089
0.519281
0.517767
0.516512
0.515527
0.514852
0.514529
0.514576
0.514983
0.515726
0.516809
0.518176
0.519501
15.055
10.3561
6.00769
9.95614
5.205
1.36299
0.753618
0.696153
0.669841
0.647612
0.628422
0.611493
0.59667
0.584058
0.573438
0.564395
0.556585
0.549838
0.544068
0.539139
0.534825
0.530887
0.527169
0.52365
0.520405
0.517533
0.515088
0.513055
0.511367
0.509956
0.508789
0.507883
0.507282
0.507027
0.507136
0.507597
0.508387
0.509512
0.510915
0.512267
5.28319
3.88631
2.50926
1.75211
1.56496
1.1756
0.890396
0.781101
0.721663
0.678916
0.645996
0.620137
0.599591
0.583211
0.570006
0.559166
0.550159
0.542673
0.536461
0.531234
0.526668
0.522498
0.518597
0.514975
0.511722
0.50892
0.506592
0.504687
0.503119
0.501815
0.500745
0.49993
0.499414
0.499236
0.49941
0.499925
0.500757
0.501916
0.503348
0.504718
1.92309
1.71272
1.42273
1.25628
1.14286
1.01615
0.888388
0.798912
0.73609
0.6876
0.649616
0.619908
0.596636
0.578293
0.563643
0.551779
0.542119
0.534265
0.527846
0.522465
0.517747
0.51344
0.509451
0.505816
0.502624
0.499937
0.497745
0.495975
0.494529
0.493337
0.492375
0.491664
0.491244
0.491151
0.491396
0.491964
0.492834
0.49402
0.495471
0.496852
0.885189
0.991227
1.00432
1.00168
0.975741
0.916308
0.843518
0.777573
0.722547
0.677087
0.640224
0.610823
0.587515
0.568965
0.554068
0.542031
0.532315
0.524486
0.518102
0.512722
0.507977
0.503653
0.499693
0.496148
0.493096
0.490571
0.488537
0.486909
0.485591
0.48452
0.483677
0.483082
0.482772
0.482773
0.483092
0.483712
0.484616
0.485823
0.487285
0.488671
0.541057
0.7048
0.792817
0.83868
0.847653
0.823536
0.780416
0.733768
0.690385
0.652345
0.620303
0.594015
0.572689
0.555395
0.541339
0.529932
0.52072
0.513278
0.507157
0.501938
0.497309
0.493106
0.489306
0.485961
0.483126
0.480808
0.478956
0.477482
0.476301
0.475362
0.474651
0.474187
0.473997
0.474101
0.474498
0.475171
0.476105
0.477326
0.478792
0.480174
0.379736
0.541666
0.645694
0.70684
0.732553
0.728976
0.707052
0.677549
0.646821
0.618032
0.592661
0.571091
0.553069
0.538117
0.525774
0.515656
0.507405
0.500646
0.494989
0.490096
0.485735
0.481803
0.478296
0.475255
0.472708
0.47064
0.468993
0.467688
0.466659
0.465866
0.465304
0.464985
0.464927
0.465141
0.465619
0.466342
0.467303
0.468533
0.469994
0.471364
0.275746
0.421716
0.524449
0.59058
0.626038
0.637
0.631227
0.616274
0.59748
0.578099
0.559931
0.543764
0.529779
0.517871
0.507846
0.499478
0.492509
0.486654
0.481634
0.477226
0.473291
0.469777
0.466687
0.464043
0.461845
0.460064
0.458644
0.457527
0.456666
0.45604
0.455643
0.455484
0.45557
0.455898
0.456458
0.457231
0.458214
0.459447
0.460895
0.462246
0.196961
0.325216
0.421421
0.488472
0.530297
0.551623
0.557996
0.554831
0.546387
0.535615
0.524368
0.513671
0.503991
0.49547
0.488083
0.481717
0.476218
0.471424
0.467191
0.46342
0.46006
0.457095
0.454525
0.452349
0.450545
0.44908
0.447913
0.447007
0.446339
0.445899
0.445685
0.445698
0.445934
0.446381
0.447022
0.447842
0.448845
0.450075
0.451504
0.452829
0.133694
0.246136
0.334784
0.400702
0.446261
0.47476
0.490088
0.49613
0.496205
0.492855
0.487851
0.482308
0.476835
0.471706
0.467
0.4627
0.45876
0.455144
0.451838
0.448847
0.446186
0.443864
0.441878
0.440208
0.438825
0.437703
0.436819
0.436157
0.435711
0.43548
0.435461
0.43565
0.436033
0.436592
0.437311
0.438176
0.439197
0.440423
0.441828
0.443122
)
;

boundaryField
{
    leftWall
    {
        type            fixedFluxPressure;
        gradient        nonuniform 0();
        value           nonuniform 0();
    }
    rightWall
    {
        type            fixedFluxPressure;
        gradient        uniform 0;
        value           nonuniform List<scalar> 
43
(
0.622026
0.621619
0.621279
0.620784
0.620131
0.619376
0.618495
0.617469
0.61629
0.614951
0.613436
0.611731
0.609841
0.607761
0.60549
0.603023
0.600357
0.597489
0.594415
0.59113
0.58763
0.58391
0.579964
0.575784
0.571364
0.566695
0.56177
0.556581
0.551121
0.545382
0.539358
0.533041
0.526424
0.519501
0.512267
0.504718
0.496852
0.488671
0.480174
0.471364
0.462246
0.452829
0.443122
)
;
    }
    lowerWall
    {
        type            fixedFluxPressure;
        gradient        uniform 0;
        value           nonuniform List<scalar> 
66
(
2952.73
3007.79
3007.79
3012.79
3052.74
3128.3
3189.8
3210.57
3167.26
3031.43
2747.25
2214.43
126.99
-7.75651
-1.39891
-1.48743
0.824317
0.827369
0.830149
0.832858
0.834402
0.833152
0.825986
0.80529
0.745221
0.5879
0.824317
0.81422
0.805954
0.797067
0.788056
0.780066
0.77316
0.767149
0.76172
0.756494
0.751197
0.745664
0.739828
0.733701
0.727332
0.720771
0.71408
0.707296
0.700505
0.693849
0.68736
0.681088
0.675065
0.669332
0.663938
0.658839
0.653978
0.649427
0.645231
0.64141
0.637952
0.634856
0.6321
0.629689
0.627602
0.625786
0.624316
0.623261
0.622557
0.622026
)
;
    }
    atmosphere
    {
        type            totalPressure;
        rho             rho;
        psi             none;
        gamma           1;
        p0              nonuniform 0();
        value           nonuniform 0();
    }
    defaultFaces
    {
        type            empty;
    }
    procBoundary1to0
    {
        type            processor;
        value           nonuniform List<scalar> 
44
(
2930.19
2941.35
2961.35
2968.84
2952.97
2905.51
2817.24
2679.06
2482.84
2227.55
1927.97
1651.21
1442.13
1273.98
1128.94
1009.93
920.08
857.646
834.238
518.234
682.77
682.77
59.2026
-2.00411
-3.62554
-4.58454
-4.68757
-4.6098
-4.45094
-4.1945
-3.84444
-3.45474
-3.04147
-2.71839
-2.41521
-2.12641
-1.83649
-1.56157
-1.32533
-1.13301
-0.978856
-0.856144
-0.758757
-0.680744
)
;
    }
    procBoundary1to3
    {
        type            processor;
        value           nonuniform List<scalar> 
45
(
-0.50151
-0.381979
-0.261763
-0.141978
-0.0272689
0.0831171
0.182096
0.263259
0.326806
0.374034
0.407127
0.428763
0.441733
0.448587
0.451429
0.451842
0.450906
0.449269
0.447271
0.445075
0.442763
0.440397
0.438047
0.435792
0.433703
0.431833
0.430207
0.428826
0.427672
0.426723
0.425965
0.425392
0.425007
0.424814
0.424816
0.425005
0.425369
0.42589
0.42655
0.427332
0.428233
0.429266
0.430482
0.43186
0.433118
)
;
    }
}


// ************************************************************************* //
