/*--------------------------------*- C++ -*----------------------------------*\
| =========                 |                                                 |
| \\      /  F ield         | OpenFOAM: The Open Source CFD Toolbox           |
|  \\    /   O peration     | Version:  5.0                                   |
|   \\  /    A nd           | Web:      www.OpenFOAM.org                      |
|    \\/     M anipulation  |                                                 |
\*---------------------------------------------------------------------------*/
FoamFile
{
    version     2.0;
    format      ascii;
    class       surfaceScalarField;
    location    "0.25";
    object      phi;
}
// * * * * * * * * * * * * * * * * * * * * * * * * * * * * * * * * * * * * * //

dimensions      [0 3 -1 0 0 0 0];

internalField   nonuniform List<scalar> 
3731
(
-1.40639e-05
5.0979e-07
-1.40639e-05
-6.08186e-07
8.59823e-06
-1.46721e-05
9.72936e-06
2.18854e-05
-4.94271e-06
1.60612e-05
3.71213e-05
1.11185e-05
1.93966e-05
5.30396e-05
3.05151e-05
2.13105e-05
6.94056e-05
5.18256e-05
2.31706e-05
8.62359e-05
7.49962e-05
2.60977e-05
0.000103448
0.000101094
3.16501e-05
0.000120256
0.000132744
4.1142e-05
0.000135132
0.000173886
-1.24543e-06
1.24543e-06
-3.88427e-06
2.63886e-06
-6.62226e-06
2.73802e-06
-8.73748e-06
2.11523e-06
-1.00208e-05
1.28325e-06
-1.05788e-05
5.58023e-07
-1.0581e-05
2.24436e-09
-1.02229e-05
-3.58168e-07
-9.62356e-06
-5.993e-07
-8.8734e-06
-7.50141e-07
-8.03888e-06
-8.34553e-07
-7.17043e-06
-8.68474e-07
-6.30552e-06
-8.64862e-07
-5.46979e-06
-8.35768e-07
-4.67893e-06
-7.90831e-07
-3.94292e-06
-7.36084e-07
-3.25861e-06
-6.84363e-07
-2.63887e-06
-6.19761e-07
-2.08928e-06
-5.496e-07
-1.59626e-06
-4.93015e-07
-1.16129e-06
-4.35015e-07
-7.85101e-07
-3.76095e-07
-4.68827e-07
-3.16292e-07
-2.09684e-07
-2.5917e-07
-4.34342e-09
-2.05355e-07
1.50703e-07
-1.54996e-07
2.58581e-07
-1.07876e-07
3.21368e-07
-6.28001e-08
3.40043e-07
-1.86631e-08
3.16314e-07
2.37146e-08
2.53222e-07
6.30782e-08
1.52633e-07
1.00591e-07
1.8486e-08
1.34156e-07
-1.4408e-07
1.62564e-07
-3.23024e-07
1.78926e-07
-4.95307e-07
1.72275e-07
-6.24098e-07
1.28794e-07
-6.53521e-07
2.94203e-08
-4.78366e-07
-1.75179e-07
-4.78365e-07
-2.76357e-06
4.00902e-06
-5.60075e-06
5.47605e-06
-8.05379e-06
5.19103e-06
-9.7383e-06
3.79978e-06
-1.07118e-05
2.25671e-06
-1.11122e-05
9.58437e-07
-1.11119e-05
1.9075e-09
-1.07727e-05
-6.97295e-07
-1.02041e-05
-1.16792e-06
-9.47907e-06
-1.4752e-06
-8.65919e-06
-1.65441e-06
-7.79286e-06
-1.73481e-06
-6.91675e-06
-1.74098e-06
-6.05771e-06
-1.69488e-06
-5.23447e-06
-1.61411e-06
-4.45879e-06
-1.51178e-06
-3.745e-06
-1.39818e-06
-3.09503e-06
-1.26978e-06
-2.5036e-06
-1.14106e-06
-1.97793e-06
-1.01857e-06
-1.51406e-06
-8.98937e-07
-1.11007e-06
-7.80087e-07
-7.6366e-07
-6.6269e-07
-4.73504e-07
-5.49299e-07
-2.36287e-07
-4.42575e-07
-4.87875e-08
-3.42506e-07
9.16906e-08
-2.48358e-07
1.87826e-07
-1.58944e-07
2.42325e-07
-7.31795e-08
2.591e-07
6.92283e-09
2.37489e-07
8.46834e-08
1.81408e-07
1.5666e-07
9.43558e-08
2.21174e-07
-1.72144e-08
2.74123e-07
-1.44646e-07
3.06373e-07
-2.71756e-07
2.99362e-07
-3.72162e-07
2.29158e-07
-4.01336e-07
5.85683e-08
-3.28194e-07
-2.483e-07
-8.06571e-07
-3.38046e-06
7.3895e-06
-6.22861e-06
8.32423e-06
-8.45688e-06
7.41925e-06
-1.0014e-05
5.35695e-06
-1.09492e-05
3.19189e-06
-1.13596e-05
1.36883e-06
-1.13396e-05
-1.8113e-08
-1.10079e-05
-1.02899e-06
-1.04461e-05
-1.72966e-06
-9.73233e-06
-2.18897e-06
-8.92514e-06
-2.46168e-06
-8.06979e-06
-2.59013e-06
-7.20122e-06
-2.60953e-06
-6.34557e-06
-2.55045e-06
-5.5221e-06
-2.43759e-06
-4.74487e-06
-2.28908e-06
-4.02555e-06
-2.11754e-06
-3.3656e-06
-1.9297e-06
-2.76763e-06
-1.73904e-06
-2.23369e-06
-1.55254e-06
-1.7618e-06
-1.37081e-06
-1.34909e-06
-1.19277e-06
-9.92526e-07
-1.01921e-06
-6.89471e-07
-8.52435e-07
-4.37162e-07
-6.94935e-07
-2.32231e-07
-5.47412e-07
-7.15191e-08
-4.09067e-07
4.80519e-08
-2.7856e-07
1.29658e-07
-1.54843e-07
1.749e-07
-3.83018e-08
1.87958e-07
7.16397e-08
1.71724e-07
1.7284e-07
1.30496e-07
2.62387e-07
7.03446e-08
3.34312e-07
-5.5647e-10
3.77278e-07
-7.27424e-08
3.71549e-07
-1.32627e-07
2.89066e-07
-1.66371e-07
9.23338e-08
-1.54864e-07
-2.59829e-07
-9.61433e-07
-3.65318e-06
1.10427e-05
-6.67353e-06
1.13446e-05
-8.95491e-06
9.70061e-06
-1.05006e-05
6.90259e-06
-1.13863e-05
4.07766e-06
-1.1726e-05
1.70848e-06
-1.16408e-05
-1.03319e-07
-1.12514e-05
-1.41833e-06
-1.06519e-05
-2.32916e-06
-9.91599e-06
-2.92491e-06
-9.09844e-06
-3.27918e-06
-8.24023e-06
-3.4483e-06
-7.37243e-06
-3.47737e-06
-6.51881e-06
-3.4041e-06
-5.69771e-06
-3.25875e-06
-4.92264e-06
-3.06412e-06
-4.20302e-06
-2.83719e-06
-3.54228e-06
-2.59052e-06
-2.94347e-06
-2.3378e-06
-2.4079e-06
-2.08814e-06
-1.93388e-06
-1.8448e-06
-1.51826e-06
-1.60845e-06
-1.1574e-06
-1.38008e-06
-8.48004e-07
-1.16182e-06
-5.87066e-07
-9.55859e-07
-3.7144e-07
-7.63048e-07
-1.97824e-07
-5.82699e-07
-6.28826e-08
-4.13471e-07
3.66546e-08
-2.5434e-07
1.03604e-07
-1.05247e-07
1.41777e-07
3.34574e-08
1.55098e-07
1.59539e-07
1.48303e-07
2.69199e-07
1.271e-07
3.55481e-07
9.79175e-08
4.06436e-07
6.64642e-08
4.03009e-07
3.697e-08
3.18541e-07
1.00896e-08
1.19188e-07
8.16269e-09
-2.57921e-07
-9.53273e-07
-4.04832e-06
1.5091e-05
-7.3642e-06
1.46605e-05
-9.80002e-06
1.21364e-05
-1.1332e-05
8.43452e-06
-1.21053e-05
4.85102e-06
-1.22963e-05
1.89949e-06
-1.20704e-05
-3.29278e-07
-1.15643e-05
-1.92445e-06
-1.08787e-05
-3.01473e-06
-1.00843e-05
-3.71933e-06
-9.23018e-06
-4.13332e-06
-8.35124e-06
-4.32724e-06
-7.47332e-06
-4.35523e-06
-6.61622e-06
-4.26114e-06
-5.79529e-06
-4.0797e-06
-5.02197e-06
-3.83746e-06
-4.30404e-06
-3.55508e-06
-3.64556e-06
-3.24903e-06
-3.04901e-06
-2.93431e-06
-2.5152e-06
-2.62203e-06
-2.04229e-06
-2.31771e-06
-1.62696e-06
-2.02373e-06
-1.26542e-06
-1.74162e-06
-9.53962e-07
-1.47329e-06
-6.89222e-07
-1.22059e-06
-4.67942e-07
-9.84319e-07
-2.86702e-07
-7.63917e-07
-1.42016e-07
-5.58165e-07
-3.03468e-08
-3.6601e-07
5.17528e-08
-1.87315e-07
1.08193e-07
-2.29837e-08
1.43096e-07
1.24602e-07
1.6117e-07
2.51118e-07
1.67421e-07
3.49267e-07
1.66374e-07
4.0751e-07
1.60918e-07
4.0843e-07
1.50774e-07
3.2864e-07
1.32229e-07
1.37699e-07
9.23474e-08
-2.18068e-07
-8.6094e-07
-4.88762e-06
1.99786e-05
-8.6363e-06
1.84092e-05
-1.12252e-05
1.47253e-05
-1.26525e-05
9.86178e-06
-1.31926e-05
5.39121e-06
-1.31214e-05
1.82826e-06
-1.26599e-05
-7.90738e-07
-1.19655e-05
-2.61895e-06
-1.11409e-05
-3.83934e-06
-1.02503e-05
-4.6098e-06
-9.33361e-06
-5.04995e-06
-8.41657e-06
-5.24424e-06
-7.51746e-06
-5.25433e-06
-6.65029e-06
-5.12831e-06
-5.82615e-06
-4.90378e-06
-5.05355e-06
-4.61005e-06
-4.33825e-06
-4.27036e-06
-3.68363e-06
-3.90371e-06
-3.09138e-06
-3.52655e-06
-2.56164e-06
-3.15176e-06
-2.09242e-06
-2.78694e-06
-1.68026e-06
-2.43588e-06
-1.32118e-06
-2.10074e-06
-1.0112e-06
-1.78331e-06
-7.46584e-07
-1.48517e-06
-5.23845e-07
-1.20707e-06
-3.39388e-07
-9.48421e-07
-1.8953e-07
-7.08032e-07
-7.05307e-08
-4.84963e-07
2.13422e-08
-2.79183e-07
9.00226e-08
-9.17177e-08
1.3968e-07
7.4922e-08
1.74535e-07
2.16285e-07
1.98531e-07
3.25288e-07
2.14693e-07
3.91338e-07
2.23587e-07
3.99522e-07
2.2188e-07
3.3035e-07
2.00748e-07
1.58805e-07
1.40086e-07
-1.57436e-07
-7.20852e-07
-6.65439e-06
2.6633e-05
-1.09323e-05
2.26871e-05
-1.35278e-05
1.73209e-05
-1.46354e-05
1.09694e-05
-1.47401e-05
5.49589e-06
-1.42448e-05
1.33297e-06
-1.34276e-05
-1.60791e-06
-1.24603e-05
-3.5862e-06
-1.14393e-05
-4.86039e-06
-1.04142e-05
-5.63485e-06
-9.40973e-06
-6.05448e-06
-8.43839e-06
-6.21559e-06
-7.50801e-06
-6.18466e-06
-6.62495e-06
-6.01142e-06
-5.79479e-06
-5.73398e-06
-5.02216e-06
-5.38275e-06
-4.31024e-06
-4.98227e-06
-3.66088e-06
-4.55299e-06
-3.07488e-06
-4.11256e-06
-2.55153e-06
-3.67511e-06
-2.08858e-06
-3.24997e-06
-1.68238e-06
-2.84212e-06
-1.32871e-06
-2.45437e-06
-1.02337e-06
-2.08862e-06
-7.62347e-07
-1.74622e-06
-5.41794e-07
-1.42763e-06
-3.57895e-07
-1.13227e-06
-2.0684e-07
-8.59067e-07
-8.47655e-08
-6.07087e-07
1.22105e-08
-3.76208e-07
8.80026e-08
-1.67485e-07
1.46479e-07
1.64952e-08
1.91222e-07
1.7153e-07
2.25263e-07
2.91196e-07
2.50213e-07
3.66369e-07
2.65023e-07
3.84725e-07
2.64528e-07
3.30842e-07
2.37754e-07
1.85574e-07
1.6308e-07
-8.27608e-08
-5.5775e-07
-1.01862e-05
3.68193e-05
-1.48769e-05
2.73776e-05
-1.7051e-05
1.9495e-05
-1.74419e-05
1.13602e-05
-1.68138e-05
4.8678e-06
-1.56874e-05
2.06565e-07
-1.43745e-05
-2.92083e-06
-1.30422e-05
-4.91857e-06
-1.17654e-05
-6.13726e-06
-1.05684e-05
-6.83187e-06
-9.45283e-06
-7.17005e-06
-8.41311e-06
-7.25534e-06
-7.44338e-06
-7.15446e-06
-6.54014e-06
-6.91468e-06
-5.70224e-06
-6.57184e-06
-4.92958e-06
-6.15535e-06
-4.22225e-06
-5.68958e-06
-3.58011e-06
-5.19513e-06
-3.00264e-06
-4.69011e-06
-2.48829e-06
-4.18948e-06
-2.03431e-06
-3.70388e-06
-1.63689e-06
-3.23951e-06
-1.29159e-06
-2.79968e-06
-9.93906e-07
-2.38632e-06
-7.39567e-07
-2.00056e-06
-5.24439e-07
-1.64271e-06
-3.44509e-07
-1.31216e-06
-1.95799e-07
-1.00777e-06
-7.43647e-08
-7.28528e-07
2.36579e-08
-4.74238e-07
1.02016e-07
-2.4586e-07
1.64173e-07
-4.56952e-08
2.13159e-07
1.22519e-07
2.511e-07
2.53255e-07
2.78521e-07
3.38937e-07
2.93326e-07
3.6991e-07
2.89526e-07
3.34622e-07
2.55759e-07
2.19352e-07
1.71544e-07
1.47929e-09
-3.86191e-07
-1.73376e-05
5.41569e-05
-2.13281e-05
3.13681e-05
-2.20642e-05
2.02311e-05
-2.11202e-05
1.04162e-05
-1.93929e-05
3.14054e-06
-1.74154e-05
-1.77099e-06
-1.54698e-05
-4.86646e-06
-1.36861e-05
-6.70228e-06
-1.20998e-05
-7.72357e-06
-1.06982e-05
-8.23348e-06
-9.45238e-06
-8.41588e-06
-8.3335e-06
-8.37417e-06
-7.31888e-06
-8.16908e-06
-6.3932e-06
-7.84028e-06
-5.54741e-06
-7.41763e-06
-4.77591e-06
-6.92681e-06
-4.07523e-06
-6.39029e-06
-3.44289e-06
-5.82751e-06
-2.87675e-06
-5.25619e-06
-2.37436e-06
-4.6918e-06
-1.93243e-06
-4.14583e-06
-1.54681e-06
-3.62523e-06
-1.2128e-06
-3.1337e-06
-9.25676e-07
-2.67333e-06
-6.8094e-07
-2.24524e-06
-4.74242e-07
-1.84947e-06
-3.01345e-07
-1.48514e-06
-1.58145e-07
-1.15098e-06
-4.07124e-08
-8.45947e-07
5.46985e-08
-5.69679e-07
1.31633e-07
-3.22843e-07
1.93162e-07
-1.07238e-07
2.41718e-07
7.39861e-08
2.78702e-07
2.16296e-07
3.03882e-07
3.1375e-07
3.14568e-07
3.59205e-07
3.04636e-07
3.44556e-07
2.63306e-07
2.60687e-07
1.72407e-07
9.24043e-08
-2.13779e-07
-2.74383e-05
8.15951e-05
-3.04339e-05
3.43638e-05
-2.84133e-05
1.82104e-05
-2.54441e-05
7.44707e-06
-2.22905e-05
-1.29815e-08
-1.93032e-05
-4.75834e-06
-1.66343e-05
-7.53532e-06
-1.43425e-05
-8.99404e-06
-1.24105e-05
-9.65559e-06
-1.07822e-05
-9.86178e-06
-9.39367e-06
-9.80437e-06
-8.18951e-06
-9.57831e-06
-7.1278e-06
-9.23082e-06
-6.17992e-06
-8.78812e-06
-5.32785e-06
-8.26978e-06
-4.56005e-06
-7.69465e-06
-3.86902e-06
-7.08122e-06
-3.24977e-06
-6.44671e-06
-2.69845e-06
-5.80754e-06
-2.21149e-06
-5.17883e-06
-1.78493e-06
-4.5724e-06
-1.41426e-06
-3.99585e-06
-1.09459e-06
-3.45334e-06
-8.21004e-07
-2.94696e-06
-5.88732e-07
-2.47758e-06
-3.9323e-07
-2.045e-06
-2.30155e-07
-1.6482e-06
-9.53836e-08
-1.28573e-06
1.4974e-08
-9.56328e-07
1.04536e-07
-6.59288e-07
1.76559e-07
-3.94884e-07
2.33734e-07
-1.64393e-07
2.77984e-07
2.97637e-08
3.10154e-07
1.8413e-07
3.29536e-07
2.94375e-07
3.33182e-07
3.55556e-07
3.15237e-07
3.62519e-07
2.65987e-07
3.09933e-07
1.69916e-07
1.88494e-07
-4.38475e-08
6.16329e-05
0.000140884
0.000171451
6.40682e-05
7.72825e-05
0.000141285
0.000167576
8.11568e-05
8.55621e-05
0.000140238
0.000162361
9.07773e-05
9.03443e-05
0.000138473
0.000157722
9.49837e-05
9.24463e-05
0.000136417
0.000154087
9.6081e-05
9.20371e-05
0.000134292
0.000151062
9.50622e-05
8.93162e-05
0.000132107
0.000148262
9.21165e-05
8.46515e-05
0.000129772
0.000145429
8.74844e-05
7.88283e-05
0.000127251
0.000142546
8.17115e-05
7.31945e-05
0.000140032
7.57082e-05
0.000138389
7.02753e-05
0.000138044
6.579e-05
0.000139119
6.15672e-05
0.000141267
5.72046e-05
0.000145512
5.27825e-05
0.000151601
4.81445e-05
0.00015846
4.37233e-05
0.000165745
3.93929e-05
0.000170325
3.62904e-05
0.000165415
3.48312e-05
0.000148894
3.49588e-05
0.000127257
2.77415e-05
0.000108321
1.47329e-05
9.345e-05
2.14122e-07
8.26055e-05
-1.32144e-05
7.62572e-05
-2.62582e-05
7.35791e-05
-3.55175e-05
7.23836e-05
-3.83483e-05
7.09846e-05
-3.63864e-05
6.88786e-05
-3.26352e-05
6.61912e-05
-2.89257e-05
6.31704e-05
-2.59115e-05
-2.36963e-05
-6.08512e-05
0.000124919
-0.000117511
5.66596e-05
-0.000106679
-1.08322e-05
-1.52731e-05
-9.14056e-05
5.35234e-05
0.000152553
-1.38492e-05
0.000124032
-6.52689e-05
4.05875e-05
3.72911e-06
-8.42711e-05
8.41634e-05
0.000159167
5.98468e-05
0.000148349
-1.48538e-05
0.000115288
5.45165e-05
-6.56413e-05
9.46691e-05
0.000159481
8.52032e-05
0.000157815
5.47117e-05
0.00014578
0.000112306
-3.07798e-06
9.75137e-05
0.000158049
9.32666e-05
0.000162062
8.08634e-05
0.000158183
0.000142942
5.02275e-05
9.69905e-05
0.00015612
9.53377e-05
0.000163715
8.9285e-05
0.000164236
0.000158765
7.34621e-05
9.42989e-05
0.000153938
9.41561e-05
0.000163857
9.06609e-05
0.000167731
0.000166497
8.29293e-05
8.99395e-05
0.000151483
9.07649e-05
0.000163032
8.88777e-05
0.000169618
0.000170805
8.45694e-05
8.43509e-05
0.000148843
8.58721e-05
0.000161511
8.51978e-05
0.000170292
0.000173558
8.24442e-05
7.81872e-05
0.000146364
8.00449e-05
0.000159653
8.02227e-05
0.000170115
0.000175311
7.84698e-05
7.21015e-05
0.000144538
7.38072e-05
0.000157947
7.44536e-05
0.000169468
0.000176285
7.34796e-05
6.64392e-05
0.000143889
6.7512e-05
0.000156874
6.82095e-05
0.000168771
0.000176757
6.77377e-05
6.10085e-05
0.000144448
6.12415e-05
0.000156641
6.16967e-05
0.000168316
0.000176916
6.15375e-05
5.55353e-05
0.000146117
5.4953e-05
0.000157224
5.51341e-05
0.000168134
0.000176764
5.52863e-05
4.99476e-05
0.000148952
4.87008e-05
0.000158471
4.87274e-05
0.000168108
0.000176195
4.92965e-05
4.45867e-05
0.00015251
4.28488e-05
0.000160208
4.28529e-05
0.000168104
0.000175137
4.39111e-05
3.97966e-05
0.000156437
3.78781e-05
0.000162127
3.79141e-05
0.000168068
0.000173562
3.94891e-05
3.59423e-05
0.000159887
3.4135e-05
0.000163934
3.39627e-05
0.00016824
0.000171344
3.61806e-05
3.39926e-05
0.000162185
3.24135e-05
0.000165513
3.18375e-05
0.000168816
0.000169812
3.33692e-05
3.39342e-05
0.000163082
3.31211e-05
0.000166326
3.32869e-05
0.00016865
0.000168696
3.44031e-05
3.50018e-05
0.000163039
3.55871e-05
0.000165741
3.68222e-05
0.000167415
0.000166405
3.9113e-05
3.6296e-05
0.000154485
3.85113e-05
0.000163526
4.09426e-05
0.000164984
0.000163301
4.40466e-05
3.31538e-05
0.000136064
4.0532e-05
0.000156148
4.44117e-05
0.000161104
0.000159423
4.82899e-05
2.11272e-05
0.000115151
3.798e-05
0.000139295
4.57777e-05
0.000153307
0.000153825
5.13758e-05
4.41157e-06
9.75245e-05
2.36185e-05
0.000120088
3.76074e-05
0.000139318
0.000144485
4.69468e-05
-1.43118e-05
8.55781e-05
2.70291e-06
0.000103073
1.94058e-05
0.000122615
0.000131433
3.2458e-05
-2.86953e-05
7.87559e-05
-1.69347e-05
9.13125e-05
-8.98369e-07
0.000106578
0.000115971
1.45639e-05
-3.45328e-05
7.49404e-05
-2.67982e-05
8.35778e-05
-1.39737e-05
9.37539e-05
0.000100874
1.12271e-06
-3.32855e-05
7.18395e-05
-2.72868e-05
7.75791e-05
-1.7337e-05
8.38041e-05
8.8206e-05
-4.66866e-06
-2.93095e-05
6.85139e-05
-2.39727e-05
7.22422e-05
-1.60563e-05
7.58878e-05
7.8298e-05
-6.14834e-06
-2.53704e-05
6.49586e-05
-2.04553e-05
6.73271e-05
-1.39673e-05
6.93998e-05
7.05902e-05
-6.25945e-06
-2.23126e-05
6.13597e-05
-1.78156e-05
6.28302e-05
-1.23723e-05
6.39565e-05
6.44355e-05
-6.21765e-06
-2.01837e-05
-1.60894e-05
-1.14275e-05
-6.35607e-06
-5.30459e-05
4.32355e-05
-4.26959e-05
2.40138e-05
-3.59153e-05
1.14298e-05
-3.03377e-05
1.86952e-06
-2.55907e-05
-4.76003e-06
-2.15115e-05
-8.83764e-06
-1.80624e-05
-1.09844e-05
-1.52082e-05
-1.18482e-05
-1.28812e-05
-1.19826e-05
-1.09857e-05
-1.17573e-05
-9.42323e-06
-1.13669e-05
-8.1099e-06
-1.08917e-05
-6.9826e-06
-1.03582e-05
-5.99801e-06
-9.77274e-06
-5.12795e-06
-9.1398e-06
-4.35427e-06
-8.46829e-06
-3.66507e-06
-7.77037e-06
-3.05241e-06
-7.05938e-06
-2.51054e-06
-6.34948e-06
-2.03462e-06
-5.65477e-06
-1.61995e-06
-4.98706e-06
-1.26154e-06
-4.35425e-06
-9.54155e-07
-3.76072e-06
-6.92582e-07
-3.20855e-06
-4.71788e-07
-2.69836e-06
-2.87038e-07
-2.22971e-06
-1.33882e-07
-1.80133e-06
-8.14445e-09
-1.41148e-06
9.40426e-08
-1.05854e-06
1.76223e-07
-7.41462e-07
2.41343e-07
-4.59975e-07
2.91759e-07
-2.14803e-07
3.29027e-07
-7.51683e-09
3.53607e-07
1.59526e-07
3.64508e-07
2.83483e-07
3.5873e-07
3.61338e-07
3.30814e-07
3.90438e-07
2.72165e-07
3.68578e-07
1.69468e-07
2.91204e-07
1.25646e-07
-6.44632e-05
2.34276e-05
-5.07888e-05
1.03393e-05
-4.11507e-05
1.79162e-06
-3.39116e-05
-5.36951e-06
-2.80792e-05
-1.05924e-05
-2.32056e-05
-1.37112e-05
-1.91372e-05
-1.50529e-05
-1.58043e-05
-1.51812e-05
-1.31252e-05
-1.46617e-05
-1.09867e-05
-1.38957e-05
-9.2673e-06
-1.30863e-05
-7.85965e-06
-1.22994e-05
-6.68092e-06
-1.15368e-05
-5.6733e-06
-1.07803e-05
-4.79842e-06
-1.00146e-05
-4.03132e-06
-9.23538e-06
-3.3557e-06
-8.44607e-06
-2.76059e-06
-7.65452e-06
-2.23825e-06
-6.87178e-06
-1.78262e-06
-6.11035e-06
-1.38822e-06
-5.38144e-06
-1.04962e-06
-4.69287e-06
-7.61301e-07
-4.04905e-06
-5.17816e-07
-3.45202e-06
-3.13986e-07
-2.90218e-06
-1.44972e-07
-2.39874e-06
-6.29249e-09
-1.94004e-06
1.06185e-07
-1.52398e-06
1.96233e-07
-1.14858e-06
2.67133e-07
-8.12319e-07
3.21606e-07
-5.14419e-07
3.61686e-07
-2.54892e-07
3.8859e-07
-3.44531e-08
4.02496e-07
1.45599e-07
4.02235e-07
2.83742e-07
3.84947e-07
3.78635e-07
3.45718e-07
4.29656e-07
2.77187e-07
4.37112e-07
1.68205e-07
4.00196e-07
2.93863e-07
-6.08792e-05
1.86654e-05
-5.14675e-05
9.27551e-07
-4.26281e-05
-7.04763e-06
-3.53927e-05
-1.2605e-05
-2.93738e-05
-1.66113e-05
-2.42101e-05
-1.8875e-05
-1.98004e-05
-1.94626e-05
-1.61354e-05
-1.88461e-05
-1.3178e-05
-1.76192e-05
-1.08339e-05
-1.62398e-05
-8.97829e-06
-1.49418e-05
-7.48988e-06
-1.37878e-05
-6.27046e-06
-1.27562e-05
-5.2492e-06
-1.18015e-05
-4.37805e-06
-1.08858e-05
-3.62538e-06
-9.98807e-06
-2.97052e-06
-9.10089e-06
-2.39966e-06
-8.22531e-06
-1.90307e-06
-7.3683e-06
-1.47344e-06
-6.54001e-06
-1.1045e-06
-5.75041e-06
-7.90412e-07
-5.00696e-06
-5.25438e-07
-4.31404e-06
-3.03979e-07
-3.6735e-06
-1.20739e-07
-3.08546e-06
2.91768e-08
-2.54869e-06
1.50215e-07
-2.06108e-06
2.46395e-07
-1.62016e-06
3.213e-07
-1.22347e-06
3.77996e-07
-8.68996e-07
4.18936e-07
-5.55353e-07
4.45879e-07
-2.81832e-07
4.59748e-07
-4.83316e-08
4.60514e-07
1.44842e-07
4.46921e-07
2.97338e-07
4.1632e-07
4.09252e-07
3.64379e-07
4.8159e-07
2.84858e-07
5.16635e-07
1.6847e-07
5.16596e-07
4.62329e-07
-4.35149e-05
5.91024e-05
-4.52515e-05
2.6641e-06
-3.96913e-05
-1.26079e-05
-3.41803e-05
-1.81159e-05
-2.90617e-05
-2.173e-05
-2.42569e-05
-2.36798e-05
-1.98805e-05
-2.3839e-05
-1.60929e-05
-2.26336e-05
-1.29711e-05
-2.07409e-05
-1.04831e-05
-1.87279e-05
-8.52654e-06
-1.68983e-05
-6.97988e-06
-1.53344e-05
-5.73617e-06
-1.4e-05
-4.71445e-06
-1.28233e-05
-3.85824e-06
-1.1742e-05
-3.12987e-06
-1.07164e-05
-2.5046e-06
-9.72608e-06
-1.96593e-06
-8.76398e-06
-1.50227e-06
-7.83199e-06
-1.10506e-06
-6.93726e-06
-7.6734e-07
-6.08813e-06
-4.82917e-07
-5.29133e-06
-2.45918e-07
-4.55101e-06
-5.06729e-08
-3.86878e-06
1.08174e-07
-3.24435e-06
2.35498e-07
-2.676e-06
3.35635e-07
-2.16119e-06
4.12426e-07
-1.69693e-06
4.6924e-07
-1.28029e-06
5.08896e-07
-9.08666e-07
5.33579e-07
-5.80041e-07
5.44778e-07
-2.93014e-07
5.43166e-07
-4.67136e-08
5.28552e-07
1.59473e-07
4.99665e-07
3.26233e-07
4.54065e-07
4.54857e-07
3.87986e-07
5.47663e-07
2.9616e-07
6.08451e-07
1.70919e-07
6.41845e-07
6.33244e-07
-7.71922e-07
0.000110102
-2.85768e-05
3.0469e-05
-3.15937e-05
-9.59102e-06
-2.98867e-05
-1.98228e-05
-2.68795e-05
-2.47372e-05
-2.31663e-05
-2.7393e-05
-1.92526e-05
-2.77527e-05
-1.55901e-05
-2.62961e-05
-1.24449e-05
-2.38861e-05
-9.89337e-06
-2.12795e-05
-7.88361e-06
-1.89082e-05
-6.30938e-06
-1.69086e-05
-5.06311e-06
-1.52463e-05
-4.0578e-06
-1.38286e-05
-3.2305e-06
-1.25693e-05
-2.53835e-06
-1.14086e-05
-1.95308e-06
-1.03114e-05
-1.45571e-06
-9.26136e-06
-1.03307e-06
-8.25463e-06
-6.75457e-07
-7.29482e-06
-3.75344e-07
-6.38821e-06
-1.26264e-07
-5.54042e-06
7.77527e-08
-4.75506e-06
2.42363e-07
-4.03345e-06
3.72842e-07
-3.37486e-06
4.7394e-07
-2.77709e-06
5.49817e-07
-2.23706e-06
6.04107e-07
-1.75124e-06
6.39923e-07
-1.31612e-06
6.59795e-07
-9.2854e-07
6.65626e-07
-5.8586e-07
6.58626e-07
-2.86007e-07
6.39264e-07
-2.73598e-08
6.07206e-07
1.91523e-07
5.61193e-07
3.72244e-07
4.98976e-07
5.17061e-07
4.17282e-07
6.29343e-07
3.11665e-07
7.14052e-07
1.75797e-07
7.77714e-07
8.09047e-07
3.66958e-05
0.000146868
-4.2102e-06
7.1375e-05
-1.8661e-05
4.85978e-06
-2.25802e-05
-1.59037e-05
-2.28029e-05
-2.45145e-05
-2.08834e-05
-2.93126e-05
-1.78583e-05
-3.07778e-05
-1.45741e-05
-2.95804e-05
-1.15559e-05
-2.69043e-05
-9.03122e-06
-2.38042e-05
-7.0243e-06
-2.09152e-05
-5.45965e-06
-1.84732e-05
-4.23741e-06
-1.64685e-05
-3.26894e-06
-1.47971e-05
-2.48706e-06
-1.33512e-05
-1.84498e-06
-1.20507e-05
-1.31152e-06
-1.08449e-05
-8.65717e-07
-9.70711e-06
-4.93055e-07
-8.62724e-06
-1.8299e-07
-7.60488e-06
7.2533e-08
-6.64375e-06
2.80171e-07
-5.74809e-06
4.45872e-07
-4.9208e-06
5.75158e-07
-4.16276e-06
6.73106e-07
-3.4728e-06
7.44224e-07
-2.84822e-06
7.92437e-07
-2.2853e-06
8.21112e-07
-1.77993e-06
8.33054e-07
-1.32804e-06
8.30467e-07
-9.25918e-07
8.1495e-07
-5.70317e-07
7.87436e-07
-2.5851e-07
7.48201e-07
1.1845e-08
6.96774e-07
2.42924e-07
6.31898e-07
4.37118e-07
5.51484e-07
5.97467e-07
4.52656e-07
7.28162e-07
3.3165e-07
8.35056e-07
1.83228e-07
9.26142e-07
9.92284e-07
5.9851e-05
0.000169946
2.16083e-05
0.000109618
-2.8653e-06
2.93334e-05
-1.2926e-05
-5.843e-06
-1.70746e-05
-2.03659e-05
-1.7496e-05
-2.88912e-05
-1.57158e-05
-3.25579e-05
-1.30322e-05
-3.22641e-05
-1.0281e-05
-2.96554e-05
-7.87294e-06
-2.62122e-05
-5.92836e-06
-2.28597e-05
-4.41478e-06
-1.99868e-05
-3.24703e-06
-1.76362e-05
-2.33891e-06
-1.57052e-05
-1.62133e-06
-1.40688e-05
-1.04496e-06
-1.2627e-05
-5.76505e-07
-1.13133e-05
-1.93581e-07
-1.009e-05
1.19343e-07
-8.94013e-06
3.73365e-07
-7.85892e-06
5.7688e-07
-6.8473e-06
7.36608e-07
-5.90782e-06
8.58353e-07
-5.04254e-06
9.4739e-07
-4.25177e-06
1.00848e-06
-3.53388e-06
1.04579e-06
-2.88555e-06
1.06292e-06
-2.30245e-06
1.06287e-06
-1.77989e-06
1.0481e-06
-1.31324e-06
1.02045e-06
-8.98242e-07
9.81192e-07
-5.31063e-07
9.30981e-07
-2.08346e-07
8.69879e-07
7.2905e-08
7.97275e-07
3.15511e-07
7.11873e-07
5.22529e-07
6.11713e-07
6.9764e-07
4.94221e-07
8.45664e-07
3.56169e-07
9.73124e-07
1.93214e-07
1.08911e-06
1.1855e-06
7.00951e-05
0.000184421
4.0562e-05
0.000139151
1.31576e-05
5.67378e-05
-2.03409e-06
9.34867e-06
-1.02152e-05
-1.21849e-05
-1.32389e-05
-2.58675e-05
-1.29201e-05
-3.28767e-05
-1.09915e-05
-3.41926e-05
-8.61721e-06
-3.20297e-05
-6.4052e-06
-2.84242e-05
-4.58107e-06
-2.46838e-05
-3.16202e-06
-2.14059e-05
-2.08214e-06
-1.87161e-05
-1.26051e-06
-1.65269e-05
-6.28268e-07
-1.4701e-05
-1.34945e-07
-1.31203e-05
2.54006e-07
-1.17022e-05
5.61848e-07
-1.03979e-05
8.04627e-07
-9.18297e-06
9.93728e-07
-8.04803e-06
1.13753e-06
-6.99107e-06
1.24263e-06
-6.01289e-06
1.31457e-06
-5.11448e-06
1.35827e-06
-4.29549e-06
1.37808e-06
-3.55369e-06
1.37773e-06
-2.88519e-06
1.36035e-06
-2.28507e-06
1.32852e-06
-1.74805e-06
1.28426e-06
-1.26898e-06
1.22903e-06
-8.43034e-07
1.16376e-06
-4.65824e-07
1.08879e-06
-1.33427e-07
1.00395e-06
1.57722e-07
9.08455e-07
4.11013e-07
8.00944e-07
6.30059e-07
6.79533e-07
8.19072e-07
5.41866e-07
9.8335e-07
3.85115e-07
1.12989e-06
2.0567e-07
1.26857e-06
1.39117e-06
7.39368e-05
0.000192928
5.20136e-05
0.000161074
2.70627e-05
8.16887e-05
8.71587e-06
2.76955e-05
-2.96688e-06
-5.02159e-07
-8.46158e-06
-2.03728e-05
-9.62239e-06
-3.17158e-05
-8.50754e-06
-3.53075e-05
-6.57637e-06
-3.39609e-05
-4.62268e-06
-3.03779e-05
-2.97252e-06
-2.6334e-05
-1.69196e-06
-2.26864e-05
-7.35375e-07
-1.96727e-05
-2.86153e-08
-1.72336e-05
4.95354e-07
-1.5225e-05
8.86885e-07
-1.35119e-05
1.18079e-06
-1.19962e-05
1.4006e-06
-1.06177e-05
1.56234e-06
-9.3447e-06
1.67721e-06
-8.16286e-06
1.75333e-06
-7.06714e-06
1.79694e-06
-6.05648e-06
1.81317e-06
-5.13074e-06
1.80645e-06
-4.2888e-06
1.78057e-06
-3.52781e-06
1.73871e-06
-2.8433e-06
1.68344e-06
-2.22979e-06
1.61684e-06
-1.68145e-06
1.54042e-06
-1.19259e-06
1.45523e-06
-7.57875e-07
1.36179e-06
-3.72411e-07
1.26014e-06
-3.17786e-08
1.1498e-06
2.68069e-07
1.02981e-06
5.31032e-07
8.98693e-07
7.61191e-07
7.54597e-07
9.63184e-07
5.95298e-07
1.14266e-06
4.18257e-07
1.30694e-06
2.20453e-07
1.46637e-06
1.61162e-06
7.3774e-05
0.000197624
5.80591e-05
0.000176789
3.72401e-05
0.000102508
1.76896e-05
4.7246e-05
3.92309e-06
1.32644e-05
-3.54731e-06
-1.29025e-05
-5.98804e-06
-2.92751e-05
-5.6419e-06
-3.56537e-05
-4.17407e-06
-3.54288e-05
-2.52317e-06
-3.20287e-05
-1.09594e-06
-2.77613e-05
1.71574e-09
-2.3784e-05
7.97824e-07
-2.04687e-05
1.35958e-06
-1.77954e-05
1.75101e-06
-1.56165e-05
2.0209e-06
-1.37818e-05
2.20334e-06
-1.21786e-05
2.32141e-06
-1.07358e-05
2.39066e-06
-9.41393e-06
2.4217e-06
-8.19389e-06
2.42204e-06
-7.06747e-06
2.3973e-06
-6.03175e-06
2.352e-06
-5.08544e-06
2.28987e-06
-4.22665e-06
2.21399e-06
-3.45191e-06
2.12688e-06
-2.75617e-06
2.03047e-06
-2.1334e-06
1.92624e-06
-1.57724e-06
1.81516e-06
-1.08154e-06
1.69777e-06
-6.40501e-07
1.57418e-06
-2.48812e-07
1.44404e-06
9.83804e-08
1.30658e-06
4.05547e-07
1.16059e-06
6.77031e-07
1.00449e-06
9.17299e-07
8.36374e-07
1.13131e-06
6.54079e-07
1.32496e-06
4.55263e-07
1.50575e-06
2.3737e-07
1.68425e-06
1.84898e-06
7.08578e-05
0.000200246
5.99492e-05
0.000187697
4.28467e-05
0.00011961
2.37789e-05
6.63137e-05
9.59607e-06
2.74473e-05
1.21644e-06
-4.52284e-06
-2.14115e-06
-2.59175e-05
-2.43856e-06
-3.53563e-05
-1.41841e-06
-3.64489e-05
-1.03263e-07
-3.33439e-05
1.05408e-06
-2.89186e-05
1.92306e-06
-2.4653e-05
2.51972e-06
-2.10654e-05
2.90459e-06
-1.81803e-05
3.13762e-06
-1.58495e-05
3.2649e-06
-1.3909e-05
3.31876e-06
-1.22325e-05
3.32103e-06
-1.0738e-05
3.28617e-06
-9.37909e-06
3.22375e-06
-8.13151e-06
3.14029e-06
-6.98404e-06
3.0405e-06
-5.93197e-06
2.92801e-06
-4.97292e-06
2.80567e-06
-4.10428e-06
2.67571e-06
-3.32195e-06
2.53984e-06
-2.62032e-06
2.39926e-06
-1.99284e-06
2.25475e-06
-1.43275e-06
2.10669e-06
-9.33477e-07
1.95506e-06
-4.88862e-07
1.79949e-06
-9.32259e-08
1.63923e-06
2.58643e-07
1.47317e-06
5.716e-07
1.29985e-06
8.50341e-07
1.11752e-06
1.09963e-06
9.24176e-07
1.32466e-06
7.17649e-07
1.53148e-06
4.9572e-07
1.72766e-06
2.56189e-07
1.92376e-06
2.10515e-06
6.61444e-05
0.000201839
5.84024e-05
0.000195439
4.44393e-05
0.000133573
2.72795e-05
8.34735e-05
1.40186e-05
4.07081e-05
5.69987e-06
3.79587e-06
1.899e-06
-2.21167e-05
1.10875e-06
-3.45661e-05
1.69659e-06
-3.70368e-05
2.64454e-06
-3.42918e-05
3.48273e-06
-2.97568e-05
4.07397e-06
-2.52443e-05
4.42883e-06
-2.14203e-05
4.60241e-06
-1.83538e-05
4.6497e-06
-1.58968e-05
4.61279e-06
-1.38721e-05
4.52094e-06
-1.21406e-05
4.3936e-06
-1.06107e-05
4.24338e-06
-9.22888e-06
4.07825e-06
-7.96638e-06
3.90335e-06
-6.80914e-06
3.72217e-06
-5.75077e-06
3.53719e-06
-4.78793e-06
3.3502e-06
-3.91728e-06
3.16241e-06
-3.13418e-06
2.9746e-06
-2.43252e-06
2.78712e-06
-1.80537e-06
2.59997e-06
-1.2456e-06
2.41286e-06
-7.4635e-07
2.22517e-06
-3.01167e-07
2.03601e-06
9.5924e-08
1.84421e-06
4.50431e-07
1.64827e-06
7.67519e-07
1.44647e-06
1.05214e-06
1.23682e-06
1.30929e-06
1.01718e-06
1.5443e-06
7.85348e-07
1.7633e-06
5.39146e-07
1.97384e-06
2.76646e-07
2.18624e-06
2.38179e-06
6.06004e-05
0.000202776
5.50151e-05
0.000201025
4.33284e-05
0.00014526
2.89594e-05
9.78424e-05
1.75946e-05
5.2073e-05
9.98259e-06
1.14079e-05
6.12111e-06
-1.82552e-05
4.99589e-06
-3.34409e-05
5.18604e-06
-3.72269e-05
5.72851e-06
-3.48343e-05
6.19053e-06
-3.02188e-05
6.44927e-06
-2.55031e-05
6.51662e-06
-2.14877e-05
6.44295e-06
-1.82802e-05
6.2768e-06
-1.57306e-05
6.05441e-06
-1.36497e-05
5.80034e-06
-1.18866e-05
5.53043e-06
-1.03408e-05
5.25446e-06
-8.9529e-06
4.97817e-06
-7.69006e-06
4.70492e-06
-6.53585e-06
4.43665e-06
-5.48249e-06
4.17448e-06
-4.52577e-06
3.91893e-06
-3.66175e-06
3.67006e-06
-2.88532e-06
3.42756e-06
-2.19002e-06
3.19083e-06
-1.56862e-06
2.95903e-06
-1.01379e-06
2.7311e-06
-5.18447e-07
2.50583e-06
-7.59174e-08
2.28176e-06
3.19972e-07
2.05723e-06
6.74946e-07
1.83037e-06
9.94383e-07
1.59911e-06
1.28342e-06
1.36124e-06
1.54717e-06
1.11445e-06
1.79109e-06
8.56431e-07
2.02131e-06
5.85011e-07
2.24524e-06
2.98451e-07
2.47279e-06
2.68024e-06
5.49297e-05
0.000203133
5.15369e-05
0.000204417
4.17525e-05
0.000155045
3.02822e-05
0.000109313
2.10564e-05
6.12987e-05
1.45016e-05
1.79627e-05
1.07534e-05
-1.4507e-05
9.33311e-06
-3.20206e-05
9.07992e-06
-3.69737e-05
9.14989e-06
-3.49043e-05
9.16671e-06
-3.02356e-05
9.03336e-06
-2.53697e-05
8.76628e-06
-2.12206e-05
8.40976e-06
-1.79237e-05
8.00352e-06
-1.53244e-05
7.57563e-06
-1.32218e-05
7.14418e-06
-1.14551e-05
6.72004e-06
-9.91668e-06
6.30919e-06
-8.54202e-06
5.91449e-06
-7.29534e-06
5.53703e-06
-6.15839e-06
5.17694e-06
-5.12241e-06
4.83372e-06
-4.18256e-06
4.50644e-06
-3.33449e-06
4.19386e-06
-2.57273e-06
3.89448e-06
-1.8906e-06
3.60664e-06
-1.28077e-06
3.32859e-06
-7.3577e-07
3.05851e-06
-2.48409e-07
2.79449e-06
1.88075e-07
2.53449e-06
5.79961e-07
2.27633e-06
9.33107e-07
2.01773e-06
1.253e-06
1.75629e-06
1.54487e-06
1.48953e-06
1.81394e-06
1.21494e-06
2.06567e-06
9.30088e-07
2.30614e-06
6.32743e-07
2.54258e-06
3.21299e-07
2.78423e-06
3.00155e-06
4.95854e-05
0.000202844
4.84884e-05
0.000205514
4.10911e-05
0.000162442
3.2448e-05
0.000117956
2.50979e-05
6.86488e-05
1.9481e-05
2.35795e-05
1.58821e-05
-1.09081e-05
1.41449e-05
-3.02835e-05
1.33808e-05
-3.62096e-05
1.28932e-05
-3.44167e-05
1.23866e-05
-2.9729e-05
1.17992e-05
-2.47823e-05
1.11518e-05
-2.05733e-05
1.04794e-05
-1.72512e-05
9.80904e-06
-1.4654e-05
9.15816e-06
-1.25709e-05
8.53639e-06
-1.08333e-05
7.94828e-06
-9.32856e-06
7.39512e-06
-7.98887e-06
6.87627e-06
-6.77651e-06
6.39015e-06
-5.67229e-06
5.93473e-06
-4.66699e-06
5.50766e-06
-3.7555e-06
5.10641e-06
-2.93323e-06
4.72827e-06
-2.19457e-06
4.37048e-06
-1.5328e-06
4.03027e-06
-9.40569e-07
3.70493e-06
-4.10461e-07
3.39181e-06
6.46852e-08
3.08828e-06
4.91601e-07
2.79168e-06
8.76577e-07
2.49931e-06
1.22549e-06
2.20846e-06
1.54386e-06
1.91639e-06
1.83696e-06
1.62033e-06
2.11e-06
1.31754e-06
2.36843e-06
1.00545e-06
2.61823e-06
6.81736e-07
2.8663e-06
3.44868e-07