/*--------------------------------*- C++ -*----------------------------------*\
| =========                 |                                                 |
| \\      /  F ield         | OpenFOAM: The Open Source CFD Toolbox           |
|  \\    /   O peration     | Version:  5.0                                   |
|   \\  /    A nd           | Web:      www.OpenFOAM.org                      |
|    \\/     M anipulation  |                                                 |
\*---------------------------------------------------------------------------*/
FoamFile
{
    version     2.0;
    format      ascii;
    class       volVectorField;
    location    "0.25";
    object      U;
}
// * * * * * * * * * * * * * * * * * * * * * * * * * * * * * * * * * * * * * //

dimensions      [0 1 -1 0 0 0 0];

internalField   nonuniform List<vector> 
1915
(
(-0.253372 -0.0622428 0)
(-0.0899412 -0.149346 0)
(-0.00757485 0.0568506 0)
(0.0102402 -0.189947 0)
(0.209155 0.164907 0)
(0.115065 -0.115013 0)
(0.335558 0.318138 0)
(0.172963 0.0302556 0)
(0.400623 0.486514 0)
(0.204769 0.225587 0)
(0.437964 0.660516 0)
(0.222441 0.444947 0)
(0.47266 0.839498 0)
(0.238415 0.684397 0)
(0.523012 1.02386 0)
(0.263874 0.951866 0)
(0.608115 1.21056 0)
(0.31616 1.25524 0)
(0.744301 1.38567 0)
(0.403108 1.64113 0)
(-0.0107555 0.00667673 0)
(-0.0318511 0.0209303 0)
(-0.0774768 0.0225091 0)
(-0.113585 0.0179892 0)
(-0.137028 0.0101998 0)
(-0.149248 0.00330465 0)
(-0.152389 -0.000334061 0)
(-0.149075 -0.00292291 0)
(-0.14194 -0.00441986 0)
(-0.132102 -0.00530206 0)
(-0.12065 -0.00575632 0)
(-0.108395 -0.00589072 0)
(-0.0959487 -0.00579121 0)
(-0.0837586 -0.00553773 0)
(-0.0721446 -0.00519385 0)
(-0.0612834 -0.00482507 0)
(-0.0510698 -0.00474915 0)
(-0.0418246 -0.00437402 0)
(-0.0335171 -0.0036435 0)
(-0.0260724 -0.00332495 0)
(-0.0194651 -0.00292569 0)
(-0.0136861 -0.00252015 0)
(-0.00875594 -0.00210192 0)
(-0.00465767 -0.00170525 0)
(-0.00135021 -0.00130979 0)
(0.00121579 -0.000951946 0)
(0.00307988 -0.000620532 0)
(0.00428884 -0.000311243 0)
(0.0048716 9.80028e-06 0)
(0.00483179 0.000306762 0)
(0.00421385 0.000597828 0)
(0.00302816 0.000902272 0)
(0.00133471 0.00116917 0)
(-0.00080331 0.00139492 0)
(-0.00331229 0.00149327 0)
(-0.00592835 0.00142526 0)
(-0.0082419 0.00106779 0)
(-0.00950373 0.000317967 0)
(-0.00877551 -0.00129708 0)
(-0.00538855 -0.00380299 0)
(-0.0278609 0.022509 0)
(-0.0586472 0.0394156 0)
(-0.100703 0.0397785 0)
(-0.130735 0.029783 0)
(-0.14861 0.0181462 0)
(-0.157467 0.00797694 0)
(-0.15968 0.000200705 0)
(-0.157041 -0.00539779 0)
(-0.150274 -0.00919669 0)
(-0.140803 -0.0116367 0)
(-0.129601 -0.0130366 0)
(-0.117442 -0.013644 0)
(-0.104912 -0.0136604 0)
(-0.0924499 -0.0132638 0)
(-0.0803835 -0.0125979 0)
(-0.0689514 -0.01176 0)
(-0.0583194 -0.0107953 0)
(-0.0485605 -0.00972751 0)
(-0.0397168 -0.00878555 0)
(-0.0317408 -0.00783451 0)
(-0.0246911 -0.00691628 0)
(-0.0185138 -0.00599008 0)
(-0.0131719 -0.00506338 0)
(-0.00862996 -0.00416653 0)
(-0.00487489 -0.0033361 0)
(-0.00185052 -0.00255357 0)
(0.00047439 -0.00181997 0)
(0.00214946 -0.00111791 0)
(0.0032133 -0.000440786 0)
(0.00372008 0.000209944 0)
(0.00368293 0.000814026 0)
(0.00311865 0.00137791 0)
(0.00208112 0.00188617 0)
(0.000629516 0.00230441 0)
(-0.00111414 0.00256403 0)
(-0.00302177 0.00247121 0)
(-0.00475942 0.00183821 0)
(-0.00580643 0.000344091 0)
(-0.00567731 -0.00242828 0)
(-0.00402104 -0.00663471 0)
(-0.0342781 0.0582212 0)
(-0.0701846 0.0701109 0)
(-0.107364 0.0643336 0)
(-0.134718 0.046832 0)
(-0.151857 0.0279709 0)
(-0.160885 0.0120462 0)
(-0.163209 -5.5326e-05 0)
(-0.160375 -0.00873641 0)
(-0.153692 -0.0147867 0)
(-0.144357 -0.0187529 0)
(-0.133328 -0.0210971 0)
(-0.121342 -0.0221838 0)
(-0.108952 -0.0223207 0)
(-0.0965681 -0.0217802 0)
(-0.084515 -0.0207823 0)
(-0.0730524 -0.0194873 0)
(-0.0623659 -0.0180066 0)
(-0.0525225 -0.0163837 0)
(-0.0435405 -0.014741 0)
(-0.0354544 -0.0131566 0)
(-0.0282865 -0.0116133 0)
(-0.0219948 -0.0100968 0)
(-0.016522 -0.00861432 0)
(-0.0118198 -0.00718739 0)
(-0.00785986 -0.0058371 0)
(-0.0046037 -0.00456731 0)
(-0.00200714 -0.00336524 0)
(-2.19688e-05 -0.00222099 0)
(0.0014006 -0.00112737 0)
(0.00229695 -8.97712e-05 0)
(0.00270539 0.000876693 0)
(0.00267041 0.00177223 0)
(0.00224222 0.00256999 0)
(0.00149138 0.00321538 0)
(0.000521842 0.00359744 0)
(-0.000545973 0.00352311 0)
(-0.00155335 0.00270705 0)
(-0.00225285 0.000785167 0)
(-0.00264047 -0.00274889 0)
(-0.00167091 -0.00947083 0)
(-0.0358208 0.0949165 0)
(-0.0766989 0.100471 0)
(-0.114017 0.0874656 0)
(-0.141666 0.0627779 0)
(-0.15846 0.0373947 0)
(-0.166646 0.0160251 0)
(-0.167966 -0.00034425 0)
(-0.164208 -0.0122699 0)
(-0.156857 -0.0205663 0)
(-0.147099 -0.0260138 0)
(-0.135845 -0.0292588 0)
(-0.123776 -0.0308081 0)
(-0.111386 -0.0310767 0)
(-0.0990322 -0.030413 0)
(-0.0870075 -0.0290958 0)
(-0.0755711 -0.0273371 0)
(-0.0649004 -0.0252955 0)
(-0.0550569 -0.0230765 0)
(-0.0460607 -0.0208112 0)
(-0.0379547 -0.0185844 0)
(-0.0307584 -0.0164147 0)
(-0.0244342 -0.0143037 0)
(-0.018915 -0.01226 0)
(-0.0141404 -0.0103012 0)
(-0.0100707 -0.00844522 0)
(-0.00667228 -0.00669806 0)
(-0.00390509 -0.00505425 0)
(-0.00172014 -0.00350517 0)
(-6.46094e-05 -0.00204537 0)
(0.00110818 -0.000678129 0)
(0.0018454 0.000596956 0)
(0.00219933 0.00176067 0)
(0.00222925 0.00278091 0)
(0.00200744 0.0035919 0)
(0.0016228 0.00407218 0)
(0.001164 0.0040195 0)
(0.000706007 0.00314812 0)
(0.00036301 0.00108769 0)
(-0.000126645 -0.00272944 0)
(0.000438677 -0.0101576 0)
(-0.0382735 0.133741 0)
(-0.085752 0.132452 0)
(-0.12534 0.111464 0)
(-0.153981 0.0786193 0)
(-0.169685 0.0460972 0)
(-0.175859 0.0189689 0)
(-0.17503 -0.00172322 0)
(-0.169404 -0.0166843 0)
(-0.160612 -0.02701 0)
(-0.14984 -0.0337458 0)
(-0.137923 -0.037743 0)
(-0.125459 -0.0396478 0)
(-0.112869 -0.0399719 0)
(-0.100436 -0.0391391 0)
(-0.0883945 -0.0374851 0)
(-0.0769705 -0.0352625 0)
(-0.066325 -0.0326651 0)
(-0.056514 -0.0298445 0)
(-0.0475535 -0.026948 0)
(-0.0394766 -0.0240794 0)
(-0.0322993 -0.0212833 0)
(-0.0259854 -0.0185749 0)
(-0.0204659 -0.0159662 0)
(-0.0156743 -0.0134769 0)
(-0.0115626 -0.0111267 0)
(-0.00809474 -0.00892447 0)
(-0.00523171 -0.00686563 0)
(-0.00292443 -0.00493938 0)
(-0.00111712 -0.00313694 0)
(0.000245827 -0.00145769 0)
(0.00121851 9.30455e-05 0)
(0.00185674 0.00149308 0)
(0.00222134 0.0027011 0)
(0.00237933 0.00364458 0)
(0.00240102 0.00420162 0)
(0.00234349 0.00418305 0)
(0.00222893 0.00332977 0)
(0.00205328 0.00130792 0)
(0.00151791 -0.00247588 0)
(0.00143063 -0.00937759 0)
(-0.044945 0.179388 0)
(-0.103099 0.16834 0)
(-0.14522 0.137385 0)
(-0.174179 0.0941455 0)
(-0.187058 0.053221 0)
(-0.189455 0.0199282 0)
(-0.184968 -0.00496867 0)
(-0.176293 -0.0226244 0)
(-0.165185 -0.0345893 0)
(-0.15277 -0.04226 0)
(-0.13975 -0.0467281 0)
(-0.126589 -0.0487869 0)
(-0.113599 -0.0490339 0)
(-0.100968 -0.0479465 0)
(-0.0888459 -0.0458989 0)
(-0.077407 -0.0431782 0)
(-0.0667859 -0.0400105 0)
(-0.057025 -0.03658 0)
(-0.0481282 -0.0330494 0)
(-0.0401135 -0.0295406 0)
(-0.0329898 -0.0261198 0)
(-0.0267226 -0.0228181 0)
(-0.0212438 -0.0196553 0)
(-0.0164832 -0.0166524 0)
(-0.0123857 -0.0138289 0)
(-0.00890957 -0.0111934 0)
(-0.00601322 -0.00874013 0)
(-0.00364656 -0.00645638 0)
(-0.00175191 -0.0043316 0)
(-0.000269577 -0.00236459 0)
(0.000859032 -0.000564942 0)
(0.00169124 0.00104276 0)
(0.00228418 0.00241274 0)
(0.00269528 0.0034716 0)
(0.00297528 0.00410468 0)
(0.00315359 0.00414555 0)
(0.00321406 0.00337369 0)
(0.00308279 0.00150435 0)
(0.00246736 -0.00195342 0)
(0.00191433 -0.00812365 0)
(-0.0603572 0.237794 0)
(-0.136793 0.209703 0)
(-0.178716 0.164758 0)
(-0.205454 0.107936 0)
(-0.212329 0.0571731 0)
(-0.208312 0.0175097 0)
(-0.198168 -0.0111698 0)
(-0.18501 -0.0308917 0)
(-0.170603 -0.0438727 0)
(-0.155888 -0.0519524 0)
(-0.141332 -0.0564855 0)
(-0.127189 -0.0584025 0)
(-0.113617 -0.0583662 0)
(-0.100679 -0.0568855 0)
(-0.0884206 -0.0543542 0)
(-0.0769462 -0.0510812 0)
(-0.0663509 -0.047313 0)
(-0.0566553 -0.0432543 0)
(-0.0478464 -0.0390811 0)
(-0.0399255 -0.0349315 0)
(-0.0328912 -0.0308912 0)
(-0.0267081 -0.0270051 0)
(-0.0213096 -0.0233002 0)
(-0.0166237 -0.0197985 0)
(-0.0125898 -0.0165177 0)
(-0.00915841 -0.0134644 0)
(-0.00628252 -0.0106319 0)
(-0.00391063 -0.00800685 0)
(-0.00198495 -0.00557847 0)
(-0.000444401 -0.00334541 0)
(0.000771352 -0.00131857 0)
(0.00171846 0.000475684 0)
(0.00244825 0.0019916 0)
(0.00300708 0.00316001 0)
(0.00342824 0.0038794 0)
(0.00371899 0.00401006 0)
(0.00383735 0.00337372 0)
(0.0036748 0.00174543 0)
(0.00296367 -0.00124995 0)
(0.00210262 -0.00653684 0)
(-0.0920114 0.328217 0)
(-0.199388 0.257663 0)
(-0.232129 0.190982 0)
(-0.251021 0.116942 0)
(-0.246907 0.0553815 0)
(-0.232948 0.00978999 0)
(-0.214742 -0.0216915 0)
(-0.195492 -0.042416 0)
(-0.176745 -0.0554767 0)
(-0.159072 -0.0632252 0)
(-0.14257 -0.0672729 0)
(-0.127195 -0.0686554 0)
(-0.11289 -0.0680658 0)
(-0.0995593 -0.0660113 0)
(-0.087126 -0.0628791 0)
(-0.0756084 -0.0589801 0)
(-0.0650497 -0.0545678 0)
(-0.0554412 -0.0498549 0)
(-0.04675 -0.0450267 0)
(-0.0389592 -0.0402332 0)
(-0.0320539 -0.0355764 0)
(-0.0259949 -0.0311132 0)
(-0.0207171 -0.0268761 0)
(-0.0161479 -0.0228869 0)
(-0.0122215 -0.0191603 0)
(-0.0088809 -0.0157011 0)
(-0.00607346 -0.0125023 0)
(-0.00374529 -0.00955104 0)
(-0.00183874 -0.00683584 0)
(-0.000293745 -0.00435467 0)
(0.000948373 -0.00211828 0)
(0.00194102 -0.000152467 0)
(0.00273 0.00150098 0)
(0.00335098 0.00278043 0)
(0.00382267 0.00360034 0)
(0.00413588 0.00384857 0)
(0.0042338 0.0033882 0)
(0.00399551 0.00205304 0)
(0.00318465 -0.000430125 0)
(0.0021275 -0.00481377 0)
(-0.164599 0.459826 0)
(-0.311712 0.310547 0)
(-0.311639 0.208943 0)
(-0.31243 0.115764 0)
(-0.290731 0.0442473 0)
(-0.262916 -0.00556353 0)
(-0.234215 -0.0380446 0)
(-0.207347 -0.0581588 0)
(-0.183302 -0.070001 0)
(-0.162083 -0.0764452 0)
(-0.143288 -0.0793104 0)
(-0.126481 -0.0796742 0)
(-0.111334 -0.0782046 0)
(-0.0975586 -0.0753603 0)
(-0.0849361 -0.0714879 0)
(-0.0733871 -0.0668756 0)
(-0.0628906 -0.0617667 0)
(-0.0534015 -0.0563691 0)
(-0.0448652 -0.0508694 0)
(-0.0372466 -0.045426 0)
(-0.030516 -0.0401529 0)
(-0.0246262 -0.0351172 0)
(-0.0195112 -0.0303543 0)
(-0.0150988 -0.0258853 0)
(-0.0113202 -0.0217229 0)
(-0.00811271 -0.0178697 0)
(-0.00541731 -0.014318 0)
(-0.00317721 -0.0110543 0)
(-0.00133563 -0.00806711 0)
(0.000164692 -0.00535331 0)
(0.00137924 -0.00292172 0)
(0.0023579 -0.000794175 0)
(0.00314092 0.000993361 0)
(0.00375464 0.00238863 0)
(0.00420686 0.00332287 0)
(0.00447753 0.00371079 0)
(0.004503 0.00345327 0)
(0.00416322 0.00243563 0)
(0.00325452 0.000468478 0)
(0.00207388 -0.00305098 0)
(-0.257684 0.735985 0)
(-0.474865 0.348848 0)
(-0.418905 0.205329 0)
(-0.386426 0.0969411 0)
(-0.340739 0.01983 0)
(-0.296036 -0.0307643 0)
(-0.255196 -0.0615334 0)
(-0.219714 -0.0789195 0)
(-0.189725 -0.0879353 0)
(-0.164557 -0.0919033 0)
(-0.143236 -0.0927625 0)
(-0.124876 -0.0915458 0)
(-0.108835 -0.0888224 0)
(-0.0946016 -0.0849443 0)
(-0.0818049 -0.0801761 0)
(-0.0702577 -0.0747532 0)
(-0.0598654 -0.068889 0)
(-0.0505404 -0.062774 0)
(-0.042206 -0.0565862 0)
(-0.0348096 -0.0504861 0)
(-0.0283044 -0.0445952 0)
(-0.0226321 -0.0389882 0)
(-0.0177241 -0.0337038 0)
(-0.0135099 -0.0287625 0)
(-0.00991917 -0.0241744 0)
(-0.00688388 -0.0199393 0)
(-0.00434015 -0.0160477 0)
(-0.00222912 -0.0124856 0)
(-0.000495256 -0.00924076 0)
(0.00091544 -0.00630765 0)
(0.00205468 -0.00369147 0)
(0.002968 -0.00140872 0)
(0.00368998 0.000511524 0)
(0.00424003 0.00202789 0)
(0.00461845 0.00308831 0)
(0.00479887 0.00363182 0)
(0.00471616 0.00359205 0)
(0.00425845 0.00289719 0)
(0.00325325 0.00142499 0)
(0.00199099 -0.00130161 0)
(0.943868 1.50202 0)
(0.765919 1.90951 0)
(1.08835 1.53563 0)
(1.04706 1.87789 0)
(1.16957 1.52437 0)
(1.19733 1.77856 0)
(1.21433 1.5043 0)
(1.25824 1.71739 0)
(1.22992 1.48317 0)
(1.27015 1.6792 0)
(1.21414 1.46074 0)
(1.24946 1.64592 0)
(1.16737 1.43763 0)
(1.20089 1.61483 0)
(1.0949 1.41314 0)
(1.12906 1.58478 0)
(1.0089 1.38579 0)
(1.04366 1.55328 0)
(0.928325 1.35977 0)
(0.959681 1.52259 0)
(0.887476 1.49871 0)
(0.82578 1.49081 0)
(0.763135 1.49515 0)
(0.703792 1.50788 0)
(0.648343 1.54005 0)
(0.588868 1.60087 0)
(0.529192 1.66572 0)
(0.463485 1.75256 0)
(0.42253 1.82423 0)
(0.405487 1.8548 0)
(0.378733 1.72905 0)
(0.194972 1.46776 0)
(0.0169579 1.26512 0)
(-0.127145 1.07843 0)
(-0.238293 0.939597 0)
(-0.344595 0.847481 0)
(-0.416183 0.801403 0)
(-0.431075 0.785526 0)
(-0.405169 0.774474 0)
(-0.364172 0.755827 0)
(-0.323908 0.729395 0)
(-0.29043 0.698085 0)
(-0.264908 0.664422 0)
(0.683205 1.15095 0)
(-1.00797 0.236507 0)
(-3.06718 -0.0767912 0)
(-1.10523 0.17493 0)
(1.08116 1.70753 0)
(0.521134 1.22706 0)
(-0.695214 -0.117567 0)
(-1.35955 -0.224752 0)
(1.24337 1.81407 0)
(1.06291 1.62095 0)
(0.594546 1.06513 0)
(-0.937652 0.19232 0)
(1.30992 1.82079 0)
(1.25442 1.76893 0)
(1.08285 1.56614 0)
(0.427744 1.04609 0)
(1.31956 1.81152 0)
(1.30588 1.83719 0)
(1.22304 1.76338 0)
(0.981464 1.51367 0)
(1.2931 1.7938 0)
(1.29941 1.8649 0)
(1.25667 1.8498 0)
(1.1568 1.7528 0)
(1.24083 1.77032 0)
(1.25949 1.8724 0)
(1.23867 1.90059 0)
(1.18585 1.8709 0)
(1.16819 1.74379 0)
(1.19568 1.8677 0)
(1.189 1.93007 0)
(1.16163 1.93072 0)
(1.08191 1.71441 0)
(1.11467 1.8538 0)
(1.12065 1.94306 0)
(1.10894 1.96949 0)
(0.992465 1.68405 0)
(1.02484 1.83351 0)
(1.0394 1.94473 0)
(1.03956 1.99431 0)
(0.909696 1.65745 0)
(0.934361 1.81167 0)
(0.951198 1.93898 0)
(0.959901 2.00877 0)
(0.836757 1.64324 0)
(0.848576 1.79474 0)
(0.860847 1.93027 0)
(0.873198 2.01626 0)
(0.767992 1.64254 0)
(0.766888 1.78697 0)
(0.770782 1.9232 0)
(0.782791 2.01981 0)
(0.697111 1.65538 0)
(0.686349 1.78954 0)
(0.682174 1.91987 0)
(0.693306 2.02003 0)
(0.622824 1.68217 0)
(0.606746 1.80064 0)
(0.596993 1.91961 0)
(0.607798 2.01706 0)
(0.552257 1.7198 0)
(0.531869 1.81813 0)
(0.519765 1.91982 0)
(0.531135 2.00938 0)
(0.489085 1.76229 0)
(0.467566 1.83977 0)
(0.455151 1.91781 0)
(0.468179 1.99238 0)
(0.436977 1.80782 0)
(0.419572 1.86157 0)
(0.405139 1.91802 0)
(0.414299 1.96384 0)
(0.408113 1.84549 0)
(0.394236 1.88218 0)
(0.380845 1.92482 0)
(0.377146 1.94171 0)
(0.400131 1.86494 0)
(0.393334 1.89769 0)
(0.387474 1.92867 0)
(0.396184 1.9368 0)
(0.401696 1.86467 0)
(0.410414 1.90421 0)
(0.417875 1.92272 0)
(0.439275 1.91692 0)
(0.413498 1.85019 0)
(0.430354 1.89133 0)
(0.455445 1.90554 0)
(0.487637 1.88831 0)
(0.321656 1.67819 0)
(0.439947 1.85309 0)
(0.484536 1.87465 0)
(0.527429 1.8542 0)
(0.130262 1.42272 0)
(0.369221 1.69789 0)
(0.483435 1.81808 0)
(0.550406 1.80796 0)
(-0.0674877 1.19889 0)
(0.174308 1.47542 0)
(0.361624 1.67056 0)
(0.486135 1.70904 0)
(-0.246461 1.0353 0)
(-0.0772537 1.26434 0)
(0.144225 1.49888 0)
(0.30467 1.57145 0)
(-0.369843 0.925998 0)
(-0.269402 1.09871 0)
(-0.0949231 1.30279 0)
(0.0890864 1.41552 0)
(-0.408164 0.870487 0)
(-0.348241 0.987582 0)
(-0.229203 1.12965 0)
(-0.0667145 1.22971 0)
(-0.383329 0.836647 0)
(-0.33671 0.914593 0)
(-0.248883 1.00341 0)
(-0.120743 1.06827 0)
(-0.33631 0.801204 0)
(-0.291401 0.852914 0)
(-0.219909 0.905889 0)
(-0.121209 0.942467 0)
(-0.291296 0.761594 0)
(-0.246987 0.794855 0)
(-0.186075 0.825493 0)
(-0.108924 0.844502 0)
(-0.255735 0.720458 0)
(-0.213382 0.741317 0)
(-0.160752 0.75835 0)
(-0.0986827 0.766956 0)
(-0.230073 0.679759 0)
(-0.190482 0.692532 0)
(-0.144559 0.701409 0)
(-0.0931716 0.703979 0)
(-0.946835 0.698439 0)
(-0.694377 0.310685 0)
(-0.549242 0.159722 0)
(-0.46299 0.0525781 0)
(-0.390322 -0.0211438 0)
(-0.328347 -0.0672483 0)
(-0.275437 -0.0929792 0)
(-0.231318 -0.105282 0)
(-0.195263 -0.109711 0)
(-0.166018 -0.109907 0)
(-0.142088 -0.10784 0)
(-0.122148 -0.104412 0)
(-0.105221 -0.100015 0)
(-0.0905601 -0.0948288 0)
(-0.0776353 -0.0889879 0)
(-0.0661476 -0.0826431 0)
(-0.0559221 -0.0759558 0)
(-0.0468226 -0.0690846 0)
(-0.0387487 -0.0621886 0)
(-0.0316319 -0.055421 0)
(-0.0254093 -0.0489062 0)
(-0.0200096 -0.0427247 0)
(-0.0153594 -0.0369193 0)
(-0.0113882 -0.0315096 0)
(-0.0080261 -0.0265021 0)
(-0.00520247 -0.0218937 0)
(-0.00285011 -0.017673 0)
(-0.000908573 -0.0138244 0)
(0.000676581 -0.0103332 0)
(0.00195575 -0.00719081 0)
(0.00297596 -0.00439743 0)
(0.0037778 -0.00196375 0)
(0.00439089 8.94426e-05 0)
(0.00482975 0.0017323 0)
(0.0050899 0.00292853 0)
(0.00514217 0.00363835 0)
(0.00492365 0.00382323 0)
(0.00433441 0.00344654 0)
(0.00323019 0.00244002 0)
(0.001905 0.000431254 0)
(-1.0338 0.324713 0)
(-0.777298 0.179656 0)
(-0.631599 0.0694608 0)
(-0.517737 -0.0164842 0)
(-0.427882 -0.0772717 0)
(-0.353817 -0.114092 0)
(-0.291718 -0.131976 0)
(-0.24039 -0.137189 0)
(-0.198912 -0.135429 0)
(-0.165863 -0.130584 0)
(-0.139457 -0.124644 0)
(-0.11803 -0.118339 0)
(-0.100302 -0.111817 0)
(-0.0852954 -0.105025 0)
(-0.0723244 -0.0979191 0)
(-0.0609798 -0.0905316 0)
(-0.0510036 -0.0829474 0)
(-0.0422072 -0.0752765 0)
(-0.0344648 -0.0676489 0)
(-0.0276941 -0.0602031 0)
(-0.0218174 -0.0530604 0)
(-0.0167504 -0.0463038 0)
(-0.0124131 -0.0399783 0)
(-0.00873456 -0.0341036 0)
(-0.00564603 -0.0286837 0)
(-0.00307643 -0.0237119 0)
(-0.000956604 -0.0191735 0)
(0.000774833 -0.0150498 0)
(0.00217066 -0.0113226 0)
(0.0032776 -0.00797929 0)
(0.00413775 -0.00501458 0)
(0.00478688 -0.00243252 0)
(0.00525041 -0.000244959 0)
(0.00553912 0.00152948 0)
(0.00564543 0.00286891 0)
(0.00553955 0.00375189 0)
(0.00516282 0.00416291 0)
(0.00442842 0.00409387 0)
(0.00321704 0.00351947 0)
(0.00183032 0.00215319 0)
(-0.924016 0.130017 0)
(-0.764575 0.0404236 0)
(-0.64308 -0.0338014 0)
(-0.53378 -0.0951338 0)
(-0.443554 -0.140513 0)
(-0.36674 -0.166916 0)
(-0.300641 -0.176153 0)
(-0.244934 -0.173405 0)
(-0.199507 -0.164467 0)
(-0.163402 -0.153609 0)
(-0.134917 -0.142977 0)
(-0.112251 -0.133179 0)
(-0.0939009 -0.1241 0)
(-0.0786905 -0.115416 0)
(-0.0657952 -0.10686 0)
(-0.0547051 -0.0983136 0)
(-0.0450807 -0.0897617 0)
(-0.0366801 -0.0812517 0)
(-0.0293523 -0.0728754 0)
(-0.023002 -0.0647491 0)
(-0.0175391 -0.0569834 0)
(-0.0128671 -0.0496591 0)
(-0.00889985 -0.0428225 0)
(-0.00556569 -0.0364932 0)
(-0.00279738 -0.0306731 0)
(-0.000524494 -0.0253513 0)
(0.0013225 -0.0205089 0)
(0.00280471 -0.0161232 0)
(0.00397277 -0.0121717 0)
(0.00486948 -0.00863693 0)
(0.00553218 -0.00550777 0)
(0.00599218 -0.00278081 0)
(0.00627106 -0.000459154 0)
(0.00637664 0.00144916 0)
(0.00629957 0.00293498 0)
(0.00601072 0.00399269 0)
(0.00545666 0.00462532 0)
(0.00456334 0.00484741 0)
(0.00323267 0.00466791 0)
(0.0017744 0.00387107 0)
(-0.571493 0.250827 0)
(-0.637729 -0.0326072 0)
(-0.581726 -0.117572 0)
(-0.503775 -0.165333 0)
(-0.431314 -0.200369 0)
(-0.362995 -0.219592 0)
(-0.299517 -0.222053 0)
(-0.243235 -0.212053 0)
(-0.195975 -0.195844 0)
(-0.157964 -0.178475 0)
(-0.128042 -0.162557 0)
(-0.104527 -0.148753 0)
(-0.0858239 -0.136735 0)
(-0.0706099 -0.125895 0)
(-0.0579514 -0.115719 0)
(-0.0472534 -0.105906 0)
(-0.0381034 -0.0963219 0)
(-0.0302087 -0.0869379 0)
(-0.0233926 -0.0777994 0)
(-0.0175469 -0.0689936 0)
(-0.0125715 -0.0606144 0)
(-0.00836111 -0.0527361 0)
(-0.00482424 -0.0454039 0)
(-0.00188889 -0.0386363 0)
(0.000510477 -0.0324324 0)
(0.00244261 -0.026777 0)
(0.00397593 -0.0216466 0)
(0.00517013 -0.0170136 0)
(0.00607313 -0.0128509 0)
(0.00672369 -0.00913504 0)
(0.00715451 -0.00584871 0)
(0.0073925 -0.00298107 0)
(0.00745565 -0.000527032 0)
(0.00734934 0.0015152 0)
(0.00706334 0.00314777 0)
(0.00656982 0.00437839 0)
(0.00582061 0.00522494 0)
(0.00475346 0.00571958 0)
(0.00328835 0.00589882 0)
(0.00174391 0.00560381 0)
(0.331616 0.929226 0)
(-0.352982 0.0982343 0)
(-0.433017 -0.139359 0)
(-0.421414 -0.206513 0)
(-0.387407 -0.244633 0)
(-0.34009 -0.264828 0)
(-0.286598 -0.265442 0)
(-0.234053 -0.25073 0)
(-0.187461 -0.228226 0)
(-0.148974 -0.204441 0)
(-0.118444 -0.182958 0)
(-0.094596 -0.16479 0)
(-0.0758868 -0.149527 0)
(-0.0609245 -0.136309 0)
(-0.0487021 -0.12437 0)
(-0.0385602 -0.113205 0)
(-0.0300259 -0.102539 0)
(-0.0227618 -0.0922558 0)
(-0.0165665 -0.0823474 0)
(-0.0113198 -0.0728676 0)
(-0.00691335 -0.06389 0)
(-0.00323612 -0.0554778 0)
(-0.00019349 -0.0476717 0)
(0.00228627 -0.0404879 0)
(0.00426632 -0.0339215 0)
(0.00581266 -0.0279528 0)
(0.00699108 -0.0225533 0)
(0.00785884 -0.0176901 0)
(0.00846076 -0.0133305 0)
(0.00883128 -0.00944512 0)
(0.00899831 -0.00601017 0)
(0.00898431 -0.00300773 0)
(0.00880387 -0.000424878 0)
(0.00846028 0.00174914 0)
(0.00794276 0.00352642 0)
(0.00722499 0.00492562 0)
(0.00626352 0.00597653 0)
(0.00500657 0.0067248 0)
(0.0033894 0.00722888 0)
(0.00173887 0.0073717 0)
(0.788327 1.35266 0)
(0.148893 0.511659 0)
(-0.219815 -0.0521573 0)
(-0.292219 -0.197248 0)
(-0.312752 -0.260709 0)
(-0.297795 -0.294994 0)
(-0.261372 -0.301798 0)
(-0.21681 -0.286795 0)
(-0.173441 -0.260081 0)
(-0.136015 -0.230612 0)
(-0.105814 -0.203637 0)
(-0.0822312 -0.180935 0)
(-0.0639281 -0.16222 0)
(-0.0495223 -0.146459 0)
(-0.0379724 -0.13265 0)
(-0.0285748 -0.120075 0)
(-0.0208126 -0.1083 0)
(-0.014315 -0.0971096 0)
(-0.00886038 -0.0864369 0)
(-0.0043164 -0.0762986 0)
(-0.000567754 -0.0667448 0)
(0.00249983 -0.0578254 0)
(0.0049813 -0.0495736 0)
(0.00694675 -0.0420009 0)
(0.0084559 -0.0350983 0)
(0.00957055 -0.0288411 0)
(0.0103528 -0.0231948 0)
(0.0108566 -0.018121 0)
(0.0111228 -0.0135808 0)
(0.0111812 -0.00953917 0)
(0.0110547 -0.00596603 0)
(0.0107612 -0.00283662 0)
(0.0103121 -0.000130471 0)
(0.00970858 0.00217119 0)
(0.00893934 0.0040891 0)
(0.00797929 0.00565079 0)
(0.00678898 0.00689547 0)
(0.00532562 0.00787912 0)
(0.00353752 0.00867735 0)
(0.00175881 0.00920236 0)
(1.01733 1.64738 0)
(0.543752 0.958935 0)
(0.0420428 0.157346 0)
(-0.130727 -0.124345 0)
(-0.213267 -0.238679 0)
(-0.238506 -0.303352 0)
(-0.224697 -0.32695 0)
(-0.191666 -0.317726 0)
(-0.153779 -0.289874 0)
(-0.118867 -0.256042 0)
(-0.089943 -0.223988 0)
(-0.0672644 -0.196778 0)
(-0.0498211 -0.174515 0)
(-0.0363151 -0.156112 0)
(-0.0257058 -0.140366 0)
(-0.017264 -0.12635 0)
(-0.0104456 -0.113465 0)
(-0.00486024 -0.101383 0)
(-0.000273116 -0.0899709 0)
(0.00345839 -0.0792049 0)
(0.00645534 -0.069109 0)
(0.00883316 -0.0597172 0)
(0.0106844 -0.0510542 0)
(0.0120751 -0.0431264 0)
(0.0130604 -0.0359195 0)
(0.0136973 -0.029403 0)
(0.014043 -0.0235362 0)
(0.0141465 -0.018274 0)
(0.0140438 -0.0135723 0)
(0.0137596 -0.00939022 0)
(0.0133118 -0.00569149 0)
(0.0127138 -0.00244483 0)
(0.0119734 0.000377278 0)
(0.0110897 0.00280063 0)
(0.0100505 0.00485334 0)
(0.00883149 0.00657015 0)
(0.0073964 0.00799757 0)
(0.00570998 0.00919943 0)
(0.00373169 0.0102645 0)
(0.00180247 0.0111223 0)
(1.07812 1.826 0)
(0.751147 1.2894 0)
(0.296388 0.443351 0)
(0.0422685 0.00914462 0)
(-0.0991492 -0.174164 0)
(-0.167068 -0.285528 0)
(-0.178768 -0.337834 0)
(-0.159487 -0.341527 0)
(-0.128707 -0.316292 0)
(-0.0975012 -0.279847 0)
(-0.0707289 -0.243407 0)
(-0.0495899 -0.21189 0)
(-0.0334796 -0.186094 0)
(-0.0212426 -0.165018 0)
(-0.0118678 -0.147312 0)
(-0.00461506 -0.131856 0)
(0.00107295 -0.117882 0)
(0.00559133 -0.104947 0)
(0.00917942 -0.0928415 0)
(0.0119862 -0.0814949 0)
(0.0141361 -0.0709037 0)
(0.0157424 -0.0610856 0)
(0.0168926 -0.0520559 0)
(0.0176473 -0.0438144 0)
(0.0180561 -0.0363412 0)
(0.0181698 -0.0295994 0)
(0.0180393 -0.0235419 0)
(0.0177077 -0.0181176 0)
(0.0172047 -0.0132766 0)
(0.0165497 -0.00897236 0)
(0.0157551 -0.00516278 0)
(0.0148298 -0.00181044 0)
(0.013778 0.0011184 0)
(0.012596 0.00365571 0)
(0.0112702 0.00583582 0)
(0.00977687 0.00769938 0)
(0.00808196 0.00929848 0)
(0.00615638 0.0107027 0)
(0.00396919 0.0120105 0)
(0.00186796 0.0131571 0)
(1.06054 1.94242 0)
(0.861181 1.5524 0)
(0.479473 0.722148 0)
(0.204707 0.187691 0)
(0.01683 -0.0705024 0)
(-0.0901397 -0.240921 0)
(-0.126735 -0.333239 0)
(-0.121618 -0.357102 0)
(-0.0987139 -0.338429 0)
(-0.0720317 -0.301299 0)
(-0.0481513 -0.26132 0)
(-0.0291589 -0.225824 0)
(-0.0148618 -0.196613 0)
(-0.00427856 -0.172911 0)
(0.00355046 -0.153279 0)
(0.00936509 -0.13642 0)
(0.0137234 -0.121406 0)
(0.0170125 -0.107673 0)
(0.0194666 -0.0949345 0)
(0.0212349 -0.0830706 0)
(0.0224413 -0.0720461 0)
(0.0231942 -0.0618608 0)
(0.0235734 -0.0525191 0)
(0.0236322 -0.0440137 0)
(0.0234131 -0.0363185 0)
(0.0229597 -0.0293908 0)
(0.0223153 -0.0231771 0)
(0.0215153 -0.0176207 0)
(0.020583 -0.0126658 0)
(0.0195312 -0.00826037 0)
(0.0183669 -0.00435692 0)
(0.0170941 -0.000912562 0)
(0.0157127 0.00211177 0)
(0.0142162 0.00475353 0)
(0.0125893 0.00705226 0)
(0.0108078 0.00905345 0)
(0.00883928 0.0108134 0)
(0.00665959 0.0124056 0)
(0.00424612 0.0139349 0)
(0.00195297 0.0153316 0)
(1.00713 2.00388 0)
(0.899984 1.74315 0)
(0.592903 0.959379 0)
(0.332412 0.386249 0)
(0.120336 0.0638875 0)
(-0.0145929 -0.173004 0)
(-0.0719211 -0.314193 0)
(-0.0794947 -0.364437 0)
(-0.0643439 -0.355871 0)
(-0.0426174 -0.319857 0)
(-0.0222326 -0.277195 0)
(-0.00596548 -0.238114 0)
(0.00602894 -0.20569 0)
(0.0145636 -0.179497 0)
(0.0205299 -0.158037 0)
(0.0246507 -0.139857 0)
(0.0274714 -0.12388 0)
(0.0293609 -0.109429 0)
(0.030541 -0.096138 0)
(0.0311556 -0.0838356 0)
(0.0313232 -0.0724534 0)
(0.0311428 -0.0619715 0)
(0.0306838 -0.0523826 0)
(0.0299897 -0.0436717 0)
(0.0290943 -0.0358066 0)
(0.0280326 -0.0287385 0)
(0.026839 -0.0224082 0)
(0.0255405 -0.0167534 0)
(0.0241524 -0.0117131 0)
(0.0226807 -0.00723013 0)
(0.0211265 -0.00325225 0)
(0.0194883 0.000268162 0)
(0.0177617 0.00337475 0)
(0.0159366 0.00610986 0)
(0.0139958 0.00851736 0)
(0.0119142 0.0106465 0)
(0.00966 0.0125566 0)
(0.0072129 0.0143237 0)
(0.00455771 0.0160562 0)
(0.00205496 0.0176685 0)
(0.93969 2.03677 0)
(0.886578 1.87344 0)
(0.640021 1.14435 0)
(0.410549 0.584966 0)
(0.195354 0.20958 0)
(0.0541062 -0.0900064 0)
(-0.0169779 -0.283773 0)
(-0.0342178 -0.364474 0)
(-0.0259937 -0.368621 0)
(-0.00937033 -0.335136 0)
(0.0069996 -0.29054 0)
(0.0199693 -0.248298 0)
(0.029162 -0.212926 0)
(0.0352398 -0.184435 0)
(0.0390167 -0.161312 0)
(0.0411812 -0.141954 0)
(0.0422516 -0.125137 0)
(0.0425689 -0.110079 0)
(0.042335 -0.0963398 0)
(0.0416826 -0.0836952 0)
(0.0407193 -0.0720447 0)
(0.0395301 -0.0613483 0)
(0.03817 -0.051587 0)
(0.0366704 -0.0427378 0)
(0.0350545 -0.0347622 0)
(0.0333473 -0.0276054 0)
(0.0315733 -0.021203 0)
(0.0297496 -0.0154875 0)
(0.0278829 -0.0103934 0)
(0.0259715 -0.00585941 0)
(0.0240099 -0.00182914 0)
(0.0219912 0.00174909 0)
(0.0199062 0.00492301 0)
(0.017741 0.00773908 0)
(0.0154758 0.0102446 0)
(0.0130843 0.0124917 0)
(0.0105343 0.0145416 0)
(0.00780854 0.0164715 0)
(0.00489856 0.0183913 0)
(0.00217118 0.0201886 0)
(0.86144 2.05712 0)
(0.837587 1.96318 0)
(0.636029 1.2983 0)
(0.440361 0.770119 0)
(0.246272 0.350491 0)
(0.112443 -0.00315867 0)
(0.037608 -0.246593 0)
(0.0138123 -0.358731 0)
(0.0162002 -0.376886 0)
(0.0276722 -0.346859 0)
(0.039531 -0.300912 0)
(0.0486178 -0.255899 0)
(0.0544722 -0.217892 0)
(0.0576524 -0.187371 0)
(0.0588972 -0.162814 0)
(0.0588416 -0.142475 0)
(0.0579545 -0.124991 0)
(0.0565341 -0.109478 0)
(0.0547544 -0.0954225 0)
(0.0527299 -0.0825537 0)
(0.0505511 -0.0707405 0)
(0.0482843 -0.0599248 0)
(0.0459667 -0.0500766 0)
(0.043615 -0.041165 0)
(0.0412403 -0.0331452 0)
(0.0388561 -0.0259571 0)
(0.0364755 -0.0195314 0)
(0.0341045 -0.0137968 0)
(0.0317402 -0.00868402 0)
(0.0293727 -0.00412844 0)
(0.02699 -7.01566e-05 0)
(0.0245789 0.00354573 0)
(0.0221252 0.00677064 0)
(0.0196111 0.00965412 0)
(0.0170136 0.0122461 0)
(0.0143046 0.0146007 0)
(0.011451 0.0167802 0)
(0.00843793 0.0188621 0)
(0.00526288 0.0209549 0)
(0.0022988 0.02291 0)
(0.777398 2.07029 0)
(0.770916 2.03184 0)
(0.601591 1.42747 0)
(0.441439 0.930616 0)
(0.281152 0.477344 0)
(0.162987 0.0790728 0)
(0.0927947 -0.20716 0)
(0.0652591 -0.348938 0)
(0.062421 -0.381008 0)
(0.0685299 -0.354683 0)
(0.0753194 -0.307757 0)
(0.0798695 -0.260401 0)
(0.0818026 -0.220161 0)
(0.0816266 -0.187956 0)
(0.0799955 -0.162261 0)
(0.0774637 -0.141193 0)
(0.0744249 -0.12326 0)
(0.0711175 -0.107479 0)
(0.0676757 -0.0932693 0)
(0.0641879 -0.0803173 0)
(0.0607212 -0.0684652 0)
(0.0573185 -0.0576394 0)
(0.0539963 -0.0478003 0)
(0.0507545 -0.0389105 0)
(0.0475905 -0.0309194 0)
(0.0445047 -0.0237626 0)
(0.0414972 -0.0173671 0)
(0.038562 -0.0116587 0)
(0.0356859 -0.00656556 0)
(0.0328505 -0.00202024 0)
(0.0300366 0.00203965 0)
(0.027225 0.00567162 0)
(0.0243957 0.00892987 0)
(0.0215268 0.0118661 0)
(0.0185919 0.0145322 0)
(0.0155605 0.0169834 0)
(0.0123981 0.0192825 0)
(0.00909195 0.0215062 0)
(0.00564457 0.0237597 0)
(0.00243497 0.0258481 0)
(0.694001 2.07695 0)
(0.697675 2.07905 0)
(0.567754 1.53754 0)
(0.441566 1.06233 0)
(0.311288 0.582995 0)
(0.212652 0.151446 0)
(0.150931 -0.168083 0)
(0.121221 -0.335986 0)
(0.113122 -0.380858 0)
(0.113237 -0.358022 0)
(0.114178 -0.310409 0)
(0.113469 -0.261212 0)
(0.110889 -0.219263 0)
(0.106908 -0.185839 0)
(0.102076 -0.159387 0)
(0.0968326 -0.137903 0)
(0.0914693 -0.119781 0)
(0.0861464 -0.103952 0)
(0.0809469 -0.0897762 0)
(0.0759235 -0.0769024 0)
(0.0711129 -0.0651512 0)
(0.0665303 -0.0544373 0)
(0.062169 -0.0447136 0)
(0.0580102 -0.0359374 0)
(0.0540359 -0.0280542 0)
(0.050232 -0.0209962 0)
(0.0465844 -0.0146886 0)
(0.0430744 -0.00905503 0)
(0.0396779 -0.00402218 0)
(0.0363679 0.000479055 0)
(0.0331175 0.00451251 0)
(0.0299009 0.00813773 0)
(0.0266928 0.0114105 0)
(0.0234665 0.0143839 0)
(0.0201921 0.0171109 0)
(0.0168363 0.0196476 0)
(0.0133632 0.0220564 0)
(0.00976109 0.0244125 0)
(0.00603743 0.0268154 0)
(0.00257687 0.029015 0)
(0.614915 2.07756 0)
(0.626592 2.10115 0)
(0.546847 1.62966 0)
(0.453167 1.16877 0)
(0.348641 0.667456 0)
(0.268253 0.212996 0)
(0.21361 -0.130444 0)
(0.182284 -0.319876 0)
(0.168431 -0.375837 0)
(0.161597 -0.356096 0)
(0.155739 -0.308088 0)
(0.149006 -0.257677 0)
(0.141344 -0.214702 0)
(0.133155 -0.180659 0)
(0.124839 -0.153936 0)
(0.116685 -0.132421 0)
(0.108856 -0.114417 0)
(0.101418 -0.0987909 0)
(0.0943911 -0.0848589 0)
(0.0877824 -0.0722414 0)
(0.081592 -0.0607445 0)
(0.0758032 -0.0502748 0)
(0.0703833 -0.0407811 0)
(0.0652938 -0.0322172 0)
(0.0604995 -0.0245261 0)
(0.0559706 -0.0176388 0)
(0.051678 -0.0114797 0)
(0.04759 -0.00597204 0)
(0.0436711 -0.00104204 0)
(0.0398852 0.0033796 0)
(0.0361977 0.00735741 0)
(0.0325763 0.0109518 0)
(0.02899 0.0142191 0)
(0.0254072 0.0172133 0)
(0.0217946 0.0199878 0)
(0.0181159 0.0225987 0)