/*--------------------------------*- C++ -*----------------------------------*\
| =========                 |                                                 |
| \\      /  F ield         | OpenFOAM: The Open Source CFD Toolbox           |
|  \\    /   O peration     | Version:  5.0                                   |
|   \\  /    A nd           | Web:      www.OpenFOAM.org                      |
|    \\/     M anipulation  |                                                 |
\*---------------------------------------------------------------------------*/
FoamFile
{
    version     2.0;
    format      ascii;
    class       volScalarField;
    location    "0.1";
    object      alpha.water;
}
// * * * * * * * * * * * * * * * * * * * * * * * * * * * * * * * * * * * * * //

dimensions      [0 0 0 0 0 0 0];

internalField   nonuniform List<scalar> 
1915
(
-3.0162e-10
-1.03447e-11
1.60637e-08
-7.88132e-11
1.27257e-08
-5.13013e-11
7.12494e-09
-6.90196e-12
3.59763e-09
1.0944e-25
1.78423e-09
0
1.00969e-09
1.09322e-11
9.33067e-10
6.56968e-11
9.31988e-10
1.25021e-10
8.33669e-10
1.41389e-10
1.82051e-28
6.20438e-27
8.73627e-27
3.11515e-27
1.38442e-28
-1.28684e-32
-7.16276e-34
-3.40534e-35
-5.36051e-51
4.48841e-35
4.11904e-35
8.6334e-36
8.22003e-37
6.77633e-38
5.30113e-39
4.09613e-40
3.07601e-41
2.23392e-42
1.56386e-43
1.05177e-44
6.772e-46
4.1593e-47
2.4278e-48
1.34157e-49
6.98959e-51
3.41821e-52
1.56129e-53
6.62161e-55
2.58913e-56
9.25082e-58
2.98553e-59
8.57009e-61
2.14243e-62
4.52762e-64
7.74614e-66
1.00467e-67
8.88668e-70
4.46428e-72
9.06568e-75
3.55672e-78
8.75365e-26
1.11404e-24
1.15832e-24
2.6383e-25
1.21091e-26
2.04752e-28
1.56672e-29
1.16865e-30
8.83609e-32
1.06723e-32
2.47625e-33
3.27437e-34
3.65326e-35
2.85828e-36
2.12263e-37
1.55639e-38
1.10988e-39
7.65789e-41
5.09541e-42
3.25929e-43
1.99803e-44
1.1702e-45
6.52656e-47
3.45419e-48
1.72811e-49
8.13701e-51
3.58795e-52
1.47275e-53
5.58676e-55
1.94096e-56
6.10483e-58
1.71214e-59
4.19509e-61
8.72931e-63
1.48111e-64
1.9272e-66
1.74235e-68
9.25565e-71
2.27031e-73
2.68604e-76
1.08784e-23
7.59124e-23
6.02074e-23
1.01365e-23
4.66777e-25
1.1848e-26
9.04069e-28
6.67393e-29
4.94428e-30
4.42493e-31
6.74968e-32
7.68271e-33
7.61307e-34
5.4887e-35
3.78228e-36
2.56655e-37
1.69291e-38
1.08029e-39
6.64761e-41
3.93301e-42
2.23094e-43
1.20982e-44
6.25347e-46
3.07099e-47
1.42761e-48
6.25614e-50
2.57196e-51
9.86265e-53
3.50339e-54
1.14301e-55
3.38872e-57
9.00457e-59
2.10591e-60
4.2287e-62
7.03816e-64
9.20591e-66
8.66438e-68
4.95623e-70
1.37291e-72
1.38126e-77
6.02268e-22
2.98599e-21
1.86975e-21
2.48943e-22
1.1323e-23
3.63019e-25
2.6488e-26
1.92443e-27
1.38605e-28
1.14729e-29
1.29829e-30
1.32196e-31
1.12044e-32
7.43249e-34
4.75938e-35
2.99086e-36
1.82562e-37
1.07783e-38
6.13574e-40
3.35834e-41
1.76259e-42
8.8465e-44
4.23408e-45
1.92651e-46
8.30424e-48
3.37767e-49
1.29039e-50
4.6052e-52
1.5254e-53
4.65273e-55
1.29413e-56
3.24205e-58
7.19813e-60
1.38573e-61
2.24213e-63
2.9067e-65
2.78041e-67
1.64078e-69
6.28059e-72
9.61376e-77
1.94985e-20
7.97055e-20
4.05e-20
4.45505e-21
2.0005e-22
9.37912e-24
5.31672e-25
3.82284e-26
2.69175e-27
2.22156e-28
1.99653e-29
1.85121e-30
1.32368e-31
8.10996e-33
4.84743e-34
2.83211e-35
1.60552e-36
8.79947e-38
4.6489e-39
2.3611e-40
1.14979e-41
5.35474e-43
2.37847e-44
1.00464e-45
4.02199e-47
1.52035e-48
5.40287e-50
1.79583e-51
5.54943e-53
1.58275e-54
4.1294e-56
9.74504e-58
2.0499e-59
3.76739e-61
5.87624e-63
7.42857e-65
6.98498e-67
4.78633e-69
1.97857e-71
3.44803e-76
4.40593e-19
1.55442e-18
6.64347e-19
6.20812e-20
2.72268e-21
1.57552e-22
9.02472e-24
5.90763e-25
4.38572e-26
3.39823e-27
2.55397e-28
2.16543e-29
1.32318e-30
7.55852e-32
4.24259e-33
2.31815e-34
1.22736e-35
6.27791e-37
3.09367e-38
1.46497e-39
6.6497e-41
2.88611e-42
1.19463e-43
4.70251e-45
1.75481e-46
6.18548e-48
2.05102e-49
6.36705e-51
1.84002e-52
4.91672e-54
1.20472e-55
2.67837e-57
5.32803e-59
9.30074e-61
1.38359e-62
1.66825e-64
1.59716e-66
1.23057e-68
5.15872e-71
9.20269e-76
8.48657e-18
2.34437e-17
8.97655e-18
7.03536e-19
3.00708e-20
1.889e-21
1.23667e-22
8.36947e-24
5.77585e-25
3.95044e-26
2.97582e-27
1.99945e-28
1.12826e-29
6.12587e-31
3.24858e-32
1.6722e-33
8.32839e-35
4.00289e-36
1.852e-37
8.22863e-39
3.50279e-40
1.42519e-41
5.52862e-43
2.03926e-44
7.1307e-46
2.35566e-47
7.32344e-49
2.13289e-50
5.7882e-52
1.45425e-53
3.35562e-55
7.03793e-57
1.32297e-58
2.1839e-60
3.06115e-62
3.69524e-64
3.87991e-66
2.95146e-68
1.2166e-70
2.1126e-75
1.85101e-16
3.18593e-16
9.84459e-17
6.57879e-18
2.94841e-19
1.78762e-20
1.21843e-21
8.22834e-23
5.53319e-24
3.89255e-25
2.62438e-26
1.53307e-27
8.22649e-29
4.27971e-30
2.16248e-31
1.05766e-32
4.9959e-34
2.27405e-35
9.95315e-37
4.17977e-38
1.68048e-39
6.45397e-41
2.36215e-42
8.21775e-44
2.70967e-45
8.44083e-47
2.47477e-48
6.79947e-50
1.74162e-51
4.13251e-53
9.01066e-55
1.78615e-56
3.17016e-58
4.91405e-60
7.07016e-62
8.95976e-64
9.1658e-66
6.76227e-68
2.70321e-70
4.43191e-75
4.79777e-15
4.58851e-15
7.58332e-16
4.64062e-17
2.62782e-18
1.72285e-19
1.15438e-20
7.64653e-22
4.94324e-23
3.10429e-24
1.87967e-25
1.0188e-26
5.2876e-28
2.65831e-29
1.29178e-30
6.05808e-32
2.73767e-33
1.19008e-34
4.96738e-36
1.98703e-37
7.60235e-39
2.77622e-40
9.65499e-42
3.1899e-43
9.98475e-45
2.95171e-46
8.21136e-48
2.14048e-49
5.20136e-51
1.17063e-52
2.41954e-54
4.53716e-56
7.69915e-58
1.25152e-59
1.79997e-61
2.20651e-63
2.17934e-65
1.55047e-67
5.95486e-70
-4.63283e-74
7.20618e-14
2.78364e-14
3.46083e-15
2.3087e-16
1.63582e-17
1.14809e-18
7.74315e-20
4.96029e-21
3.0231e-22
1.79351e-23
1.0061e-24
5.35594e-26
2.73909e-27
1.34852e-28
6.39015e-30
2.91304e-31
1.27633e-32
5.36831e-34
2.16444e-35
8.35226e-37
3.07941e-38
1.08277e-39
3.62349e-41
1.15151e-42
3.4663e-44
9.8553e-46
2.63773e-47
6.61956e-49
1.55012e-50
3.3666e-52
6.72564e-54
1.22181e-55
1.98145e-57
3.09569e-59
4.31046e-61
5.1127e-63
4.88056e-65
3.34106e-67
1.22873e-69
-1.09073e-78
6.26729e-10
2.07376e-10
3.56626e-10
1.92742e-10
1.32963e-10
9.39679e-11
3.91837e-11
2.78871e-11
9.90562e-12
6.55472e-12
2.25341e-12
1.38921e-12
4.7639e-13
2.77019e-13
9.6434e-14
5.28927e-14
1.91721e-14
9.81602e-15
3.83695e-15
1.82778e-15
1.50576e-16
2.9363e-17
7.9564e-18
2.25913e-18
6.67774e-19
2.09429e-19
6.89378e-20
2.33203e-20
7.93519e-21
2.66887e-21
8.75731e-22
2.77607e-22
8.43477e-23
2.43934e-23
6.67143e-24
1.71501e-24
4.12e-25
9.19758e-26
1.8975e-26
3.59778e-27
6.23638e-28
9.83697e-29
1.40741e-29
5.30352e-11
1.07867e-11
2.50851e-12
6.92936e-13
6.64875e-11
1.99628e-11
5.74364e-12
1.57673e-12
4.39705e-11
1.42646e-11
3.67863e-12
8.22848e-13
1.48924e-11
5.38808e-12
1.37127e-12
2.86693e-13
3.5338e-12
1.34611e-12
3.62383e-13
7.78984e-14
7.23653e-13
2.82744e-13
8.01822e-14
1.80966e-14
1.3899e-13
5.47133e-14
1.61184e-14
3.79618e-15
2.55569e-14
1.00495e-14
3.04188e-15
7.42896e-16
4.55301e-15
1.77909e-15
5.48852e-16
1.38107e-16
8.01099e-16
3.0735e-16
9.58191e-17
2.46779e-17
1.18823e-16
5.33847e-17
1.65697e-17
4.28157e-18
1.906e-17
8.53873e-18
2.74117e-18
7.22559e-19
3.40206e-18
1.35971e-18
4.40211e-19
1.18604e-19
6.72547e-19
2.27901e-19
7.06888e-20
1.9102e-20
1.4926e-19
4.1549e-20
1.16918e-20
3.06681e-21
3.74961e-20
8.48496e-21
2.05987e-21
5.02063e-22
1.05056e-20
1.97009e-21
3.99844e-22
8.63464e-23
3.17345e-21
5.13307e-22
8.72003e-23
1.61031e-23
9.95128e-22
1.44661e-22
2.11849e-23
3.32176e-24
3.14123e-22
4.22765e-23
5.54356e-24
7.53876e-25
9.77095e-23
1.23866e-23
1.49921e-24
1.82806e-25
2.95257e-23
3.55705e-24
4.04943e-25
4.55897e-26
8.57968e-24
9.86673e-25
1.06734e-25
1.13135e-26
2.37819e-24
2.61683e-25
2.70466e-26
2.7298e-27
6.24445e-25
6.583e-26
6.522e-27
6.30844e-28
1.54339e-25
1.56016e-26
1.48497e-27
1.38205e-28
3.56994e-26
3.46251e-27
3.17187e-28
2.84868e-29
7.68537e-27
7.15637e-28
6.32041e-29
5.49096e-30
1.53187e-27
1.37045e-28
1.16911e-29
9.84808e-31
2.81303e-28
2.42031e-29
1.99868e-30
1.6365e-31
4.7373e-29
3.92555e-30
3.14618e-31
2.51089e-32
7.28712e-30
5.82655e-31
4.54616e-32
3.54741e-33
1.02119e-30
7.89635e-32
6.01895e-33
4.60764e-34
2.58319e-13
5.28145e-14
6.14582e-15
5.65881e-16
4.66174e-17
3.55117e-18
2.51796e-19
1.66253e-20
1.03944e-21
6.19144e-23
3.49267e-24
1.87586e-25
9.63178e-27
4.73554e-28
2.23119e-29
1.00762e-30
4.36032e-32
1.80682e-33
7.16273e-35
2.71336e-36
9.80895e-38
3.37889e-39
1.10722e-40
3.44495e-42
1.01556e-43
2.82983e-45
7.43269e-47
1.83424e-48
4.23633e-50
9.11247e-52
1.81406e-53
3.31388e-55
5.48834e-57
8.10671e-59
1.03847e-60
1.10138e-62
8.82724e-65
5.73047e-67
2.02084e-69
-3.33822e-78
3.63977e-13
5.39573e-14
6.51107e-15
6.86292e-16
6.29301e-17
5.27082e-18
4.08456e-19
2.93579e-20
1.95103e-21
1.20748e-22
7.04541e-24
3.89656e-25
2.04794e-26
1.02484e-27
4.88938e-29
2.22547e-30
9.66637e-32
4.00608e-33
1.58345e-34
5.96519e-36
2.1399e-37
7.30202e-39
2.36711e-40
7.27922e-42
2.11952e-43
5.83303e-45
1.51395e-46
3.69613e-48
8.4616e-50
1.80944e-51
3.59622e-53
6.59848e-55
1.10733e-56
1.67653e-58
2.24463e-60
2.57564e-62
2.40572e-64
1.67803e-66
7.24806e-69
1.1745e-71
1.67059e-13
2.27619e-14
2.86024e-15
3.32967e-16
3.33654e-17
3.0149e-18
2.47034e-19
1.86896e-20
1.32148e-21
8.71217e-23
5.3708e-24
3.11194e-25
1.70139e-26
8.80277e-28
4.31934e-29
2.01305e-30
8.9198e-32
3.75967e-33
1.50766e-34
5.75102e-36
2.08586e-37
7.18835e-39
2.35173e-40
7.29588e-42
2.14429e-43
5.95993e-45
1.56365e-46
3.86456e-48
8.97534e-50
1.95287e-51
3.96538e-53
7.47554e-55
1.29909e-56
2.05979e-58
2.93499e-60
3.67226e-62
3.88805e-64
3.26778e-66
1.92763e-68
5.79798e-71
5.33655e-14
7.0648e-15
9.014e-16
1.06854e-16
1.0955e-17
1.00926e-18
8.61444e-20
6.86616e-21
5.08703e-22
3.51041e-23
2.26549e-24
1.37192e-25
7.81793e-27
4.20218e-28
2.13453e-29
1.02617e-30
4.67402e-32
2.01853e-33
8.26849e-35
3.21299e-36
1.18418e-37
4.1379e-39
1.37003e-40
4.29452e-42
1.27279e-43
3.5629e-45
9.40734e-47
2.3387e-48
5.46287e-50
1.19581e-51
2.44454e-53
4.6448e-55
8.14805e-57
1.30671e-58
1.8876e-60
2.40032e-62
2.5892e-64
2.22264e-66
1.34085e-68
4.11125e-71
1.46373e-14
1.92099e-15
2.39618e-16
2.83141e-17
2.9691e-18
2.83338e-19
2.48346e-20
2.01299e-21
1.51586e-22
1.06494e-23
7.00442e-25
4.32587e-26
2.51462e-27
1.37855e-28
7.13846e-30
3.49578e-31
1.62042e-32
7.11409e-34
2.95912e-35
1.16626e-36
4.35468e-38
1.5399e-39
5.15428e-41
1.63176e-42
4.88152e-44
1.37841e-45
3.66896e-47
9.19077e-49
2.16249e-50
4.76723e-52
9.81429e-54
1.87825e-55
3.31989e-57
5.3678e-59
7.82453e-61
1.00524e-62
1.09716e-64
9.54587e-67
5.84612e-69
1.82021e-71
3.49043e-15
4.75213e-16
6.16067e-17
7.47426e-18
8.04672e-19
7.86926e-20
7.04518e-21
5.81384e-22
4.44795e-23
3.16957e-24
2.11175e-25
1.31964e-26
7.75474e-28
4.29423e-29
2.24458e-30
1.10884e-31
5.18205e-33
2.29247e-34
9.60358e-36
3.8101e-37
1.43141e-38
5.09061e-40
1.71289e-41
5.44915e-43
1.6375e-44
4.64314e-46
1.24067e-47
3.11913e-49
7.3639e-51
1.6286e-52
3.36311e-54
6.45561e-56
1.14448e-57
1.8562e-59
2.71484e-61
3.50116e-63
3.83864e-65
3.35835e-67
2.07083e-69
6.5005e-72
7.5652e-16
1.08207e-16
1.46753e-17
1.83859e-18
2.04255e-19
2.05555e-20
1.88922e-21
1.59674e-22
1.24808e-23
9.06451e-25
6.14113e-26
3.89391e-27
2.31715e-28
1.29702e-29
6.84172e-31
3.40606e-32
1.60212e-33
7.12584e-35
2.99847e-36
1.19396e-37
4.49884e-39
1.60374e-40
5.40624e-42
1.7223e-43
5.18092e-45
1.47008e-46
3.92973e-48
9.88104e-50
2.33258e-51
5.15712e-53
1.06442e-54
2.04177e-56
3.61675e-58
5.86071e-60
8.56453e-62
1.10382e-63
1.20997e-65
1.05906e-67
6.53931e-70
2.05734e-72
1.52538e-16
2.27719e-17
3.21254e-18
4.14952e-19
4.75419e-20
4.92745e-21
4.65626e-22
4.03894e-23
3.23397e-24
2.40138e-25
1.6601e-26
1.07196e-27
6.48325e-29
3.68123e-30
1.96616e-31
9.89359e-33
4.69615e-34
2.10469e-35
8.91198e-37
3.56666e-38
1.34929e-39
4.82454e-41
1.62993e-42
5.20007e-44
1.56548e-45
4.44285e-47
1.18722e-48
2.98265e-50
7.0318e-52
1.55194e-53
3.19615e-55
6.11495e-57
1.07995e-58
1.74416e-60
2.53967e-62
3.26102e-64
3.56153e-66
3.10683e-68
1.91306e-70
6.00702e-73
2.91026e-17
4.51108e-18
6.58984e-19
8.75598e-20
1.03241e-20
1.10017e-21
1.06756e-22
9.49586e-24
7.78542e-25
5.91071e-26
4.17138e-27
2.74544e-28
1.68977e-29
9.74842e-31
5.28172e-32
2.69185e-33
1.29219e-34
5.84834e-36
2.4974e-37
1.00668e-38
3.83122e-40
1.37662e-41
4.66887e-43
1.49393e-44
4.50688e-46
1.28071e-47
3.42414e-49
8.60099e-51
2.02601e-52
4.46472e-54
9.17513e-56
1.75053e-57
3.08111e-59
4.95643e-61
7.18484e-63
9.18055e-65
9.97483e-67
8.65588e-69
5.30341e-71
1.65798e-73
5.31676e-18
8.51728e-19
1.28307e-19
1.74938e-20
2.1176e-21
2.31508e-22
2.30255e-23
2.09693e-24
1.75814e-25
1.36332e-26
9.81486e-28
6.58121e-29
4.12143e-30
2.41608e-31
1.32844e-32
6.86183e-34
3.33411e-35
1.52549e-36
6.5775e-38
2.67397e-39
1.02521e-40
3.70713e-42
1.26402e-43
4.06233e-45
1.22978e-46
3.50378e-48
9.38454e-50
2.3596e-51
5.55931e-53
1.22443e-54
2.51298e-56
4.78486e-58
8.399e-60
1.34654e-61
1.94414e-63
2.47286e-65
2.67336e-67
2.30757e-69
1.40631e-71
4.37442e-74
9.37418e-19
1.54477e-19
2.39057e-20
3.33588e-21
4.13515e-22
4.62735e-23
4.70759e-24
4.38153e-25
3.75088e-26
2.96673e-27
2.17622e-28
1.48525e-29
9.45671e-31
5.63021e-32
3.14048e-33
1.64383e-34
8.08505e-36
3.74052e-37
1.6291e-38
6.68287e-40
2.58289e-41
9.40604e-43
3.22696e-44
1.04256e-45
3.17002e-47
9.06388e-49
2.43433e-50
6.13265e-52
1.44657e-53
3.18733e-55
6.53946e-57
1.24387e-58
2.17967e-60
3.48634e-62
5.01894e-64
6.36196e-66
6.85115e-68
5.88889e-70
3.57341e-72
1.10686e-74
1.60411e-19
2.70734e-20
4.28781e-21
6.10775e-22
7.73372e-23
8.83757e-24
9.17679e-25
8.71219e-26
7.60174e-27
6.12313e-28
4.5702e-29
3.17083e-30
2.05049e-31
1.23873e-32
7.00447e-34
3.71323e-35
1.84793e-36
8.6425e-38
3.80154e-39
1.57359e-40
6.13151e-42
2.2492e-43
7.76626e-45
2.52325e-46
7.70935e-48
2.21322e-49
5.96367e-51
1.50619e-52
3.5592e-54
7.8509e-56
1.61147e-57
3.06457e-59
5.36605e-61
8.57196e-63
1.23191e-64
1.5583e-66
1.67415e-68
1.43533e-70
8.68718e-73
2.68401e-75
2.67125e-20
4.60369e-21
7.4374e-22
1.07869e-22
1.39172e-23
1.62025e-24
1.71349e-25
1.65595e-26
1.46996e-27
1.20377e-28
9.1279e-30
6.42906e-31
4.21728e-32
2.58232e-33
1.47882e-34
7.93317e-36
3.99195e-37
1.88622e-38
8.37566e-40
3.49712e-41
1.37344e-42
5.07413e-44
1.76322e-45
5.76095e-47
1.76878e-48
5.09907e-50
1.37875e-51
3.49187e-53
8.269e-55
1.82672e-56
3.75297e-58
7.14005e-60
1.25019e-61
1.99634e-63
2.86718e-65
3.62395e-67
3.89005e-69
3.33248e-71
2.0157e-73
6.2245e-76
4.34811e-21
7.62351e-22
1.25226e-22
1.84455e-23
2.41884e-24
2.8622e-25
3.07596e-26
3.0198e-27
2.72189e-28
2.26211e-29
1.73977e-30
1.24209e-31
8.25352e-33
5.11599e-34
2.96383e-35
1.60733e-36
8.17074e-38
3.89747e-39
1.7459e-40
7.34888e-42
2.90757e-43
1.08141e-44
3.78052e-46
1.24183e-47
3.8307e-49
1.10879e-50
3.00829e-52
7.64019e-54
1.81324e-55
4.01235e-57
8.25318e-59
1.57143e-60
2.75288e-62
4.3973e-64
6.31714e-66
7.98717e-68
8.57829e-70
7.35516e-72
4.45478e-74
1.37774e-76
6.97336e-22
1.23517e-22
2.05452e-23
3.06448e-24
4.0736e-25
4.88727e-26
5.32521e-27
5.29962e-28
4.84074e-29
4.0753e-30
3.17355e-31
2.29296e-32
1.54116e-33
9.65751e-35
5.65288e-36
3.09564e-37
1.58811e-38
7.64034e-40
3.44985e-41
1.46281e-42
5.82661e-44
2.18039e-45
7.66459e-47
2.53007e-48
7.83828e-50
2.27725e-51
6.19799e-53
1.57823e-54
3.75353e-56
8.31966e-58
1.71353e-59
3.26596e-61
5.72639e-63
9.15486e-65
1.31649e-66
1.6667e-68
1.79322e-70
1.54123e-72
9.36399e-75
2.9061e-77
1.1158e-22
1.97123e-23
3.29934e-24
4.96424e-25
6.66829e-26
8.08952e-27
8.91517e-28
8.97395e-29
8.28963e-30
7.05601e-31
5.5537e-32
4.05424e-33
2.75207e-34
1.74095e-35
1.02825e-36
5.67912e-38
2.93695e-39
1.42363e-40
6.47329e-42
2.76264e-43
1.10697e-44
4.16492e-46
1.47123e-47
4.87762e-49
1.51688e-50
4.42148e-52
1.20675e-53
3.07996e-55
7.339e-57
1.62919e-58
3.35977e-60
6.41087e-62
1.12531e-63
1.80132e-65
2.5945e-67
3.29168e-69
3.55174e-71
3.06418e-73
1.87065e-75
5.83627e-78
1.81561e-23
3.13036e-24
5.21781e-25
7.8743e-26
1.06452e-26
1.30163e-27
1.44695e-28
1.46965e-29
1.36996e-30
1.17665e-31
9.34354e-33
6.87978e-34
4.70906e-35
3.00281e-36
1.78712e-37
9.94222e-39
5.17691e-40
2.52557e-41
1.15529e-42
4.95789e-44
1.99672e-45
7.54735e-47
2.67714e-48
8.90841e-50
2.77933e-51
8.12374e-53
2.22238e-54
5.68308e-56
1.35633e-57
3.01492e-59
6.22471e-61
1.1891e-62
2.08987e-64
3.35062e-66
4.83617e-68
6.15331e-70
6.66506e-72
5.77921e-74
3.55059e-76
1.1155e-78
3.08331e-24
5.02333e-25
8.19906e-26
1.22989e-26
1.66378e-27
2.04211e-28
2.28246e-29
2.33291e-30
2.18936e-31
1.89346e-32
1.514e-33
1.12243e-34
7.73422e-36
4.96383e-37
2.97263e-38
1.66358e-39
8.711e-41
4.27218e-42
1.96389e-43
8.46644e-45
3.42399e-46
1.29912e-47
4.62369e-49
1.54314e-50
4.82678e-52
1.4139e-53
3.87495e-55
9.92374e-57
2.37131e-58
5.27658e-60
1.0905e-61
2.08541e-63
3.67008e-65
5.89485e-67
8.53006e-69
1.08914e-70
1.18535e-72
1.03423e-74
6.40379e-77
2.0292e-79
5.61519e-25
8.31839e-26
1.29702e-26
1.90658e-27
2.55897e-28
3.13514e-29
3.50892e-30
3.59763e-31
3.39006e-32
2.94543e-33
2.36667e-34
1.76333e-35
1.22111e-36
7.87554e-38
4.7388e-39
2.66413e-40
1.4011e-41
6.89968e-43
3.18388e-44
1.37744e-45
5.58857e-47
2.12652e-48
7.58782e-50
2.538e-51
7.95344e-53
2.33338e-54
6.40286e-56
1.6414e-57
3.92536e-59
8.74097e-61
1.80787e-62
3.46064e-64
6.09875e-66
9.81556e-68
1.4245e-69
1.82636e-71
1.99888e-73
1.75693e-75
1.09793e-77
3.51432e-80
1.11401e-25
1.45329e-26
2.10136e-27
2.96598e-28
3.90003e-29
4.7316e-30
5.27435e-31
5.40299e-32
5.09609e-33
4.43666e-34
3.57435e-35
2.67117e-36
1.85572e-37
1.20077e-38
7.24874e-40
4.08819e-41
2.15661e-42
1.0651e-43
4.92823e-45
2.13739e-46
8.69125e-48
3.31367e-49
1.18439e-50
3.96725e-52
1.24466e-53
3.65483e-55
1.00355e-56
2.57389e-58
6.15767e-60
1.3717e-61
2.83854e-63
5.43817e-65
9.59712e-67
1.54798e-68
2.25394e-70
2.9034e-72
3.19822e-74
2.83504e-76
1.79053e-78
5.79792e-81
2.39161e-26
2.71535e-27
3.54784e-28
4.69342e-29
5.94327e-30
7.06127e-31
7.78223e-32
7.92444e-33
7.45295e-34
6.48211e-35
5.22308e-36
3.90671e-37
2.71765e-38
1.76127e-39
1.06505e-40
6.01736e-42
3.17984e-43
1.57308e-44
7.29005e-46
3.16621e-47
1.28908e-48
4.92001e-50
1.76003e-51
5.89911e-53
1.85152e-54
5.43801e-56
1.49327e-57
3.82968e-59
9.16129e-61
2.04084e-62
4.22432e-64
8.09881e-66
1.43124e-67
2.31398e-69
3.38155e-71
4.37901e-73
4.85897e-75
4.34876e-77
2.77968e-79
9.11912e-82
5.40844e-27
5.40452e-28
6.30429e-29
7.65112e-30
9.14925e-31
1.04945e-31
1.13252e-32
1.13877e-33
1.0629e-34
9.20216e-36
7.39486e-37
5.52289e-38
3.83918e-39
2.4876e-40
1.50445e-41
8.50246e-43
4.49492e-44
2.22464e-45
1.03139e-46
4.48113e-48
1.82491e-49
6.96598e-51
2.49191e-52
8.35076e-54
2.62018e-55
7.69212e-57
2.11108e-58
5.41098e-60
1.29372e-61
2.88098e-63
5.96334e-65
1.14393e-66
2.02439e-68
3.28122e-70
4.81429e-72
6.2712e-74
7.01557e-76
6.34684e-78
4.11162e-80
1.36864e-82
1.24507e-27
1.12198e-28
1.17416e-29
1.29279e-30
1.43512e-31
1.56462e-32
1.63409e-33
1.60919e-34
1.4819e-35
1.27164e-36
1.01578e-37
7.55507e-39
5.23651e-40
3.38586e-41
2.04452e-42
1.1541e-43
6.09554e-45
3.01442e-46
1.39654e-47
6.06334e-49
2.46746e-50
9.41134e-52
3.36377e-53
1.12618e-54
3.52988e-56
1.03512e-57
2.83761e-59
7.2651e-61
1.73532e-62
3.86167e-64
7.99128e-66
1.53361e-67
2.71782e-69
4.41712e-71
6.50955e-73
8.53501e-75
9.63518e-77
8.82173e-79
5.80071e-81
1.96217e-83
2.8321e-28
2.36008e-29
2.25185e-30
2.25329e-31
2.30054e-32
2.35236e-33
2.34881e-34
2.24405e-35
2.02494e-36
1.71362e-37
1.35549e-38
1.00103e-39
6.9014e-41
4.444e-42
2.67464e-43
1.5057e-44
7.93414e-46
3.91565e-47
1.81069e-48
7.84769e-50
3.18817e-51
1.21399e-52
4.33164e-54
1.44772e-55
4.52978e-57
1.326e-58
3.62874e-60
9.27559e-62
2.21243e-63
4.91826e-65
1.01729e-66
1.95293e-68
3.46594e-70
5.64959e-72
8.36634e-74
1.10491e-75
1.25995e-77
1.16898e-79
7.81419e-82
2.69032e-84
6.23029e-29
4.89606e-30
4.34005e-31
3.99101e-32
3.74912e-33
3.56861e-34
3.3721e-35
3.09646e-36
2.71759e-37
2.2553e-38
1.75912e-39
1.2857e-40
8.79396e-42
5.62733e-43
3.3696e-44
1.88882e-45
9.91616e-47
4.87776e-48
2.24886e-49
9.71962e-51
3.93822e-52
1.49576e-53
5.32368e-55
1.77489e-56
5.53997e-58
1.61786e-59
4.41735e-61
1.12676e-62
2.68271e-64
5.95561e-66
1.23101e-67
2.36383e-69
4.20164e-71
6.87088e-73
1.02296e-74
1.36183e-76
1.5703e-78
1.47841e-80
1.00633e-82
3.53209e-85
1.30667e-29
9.81389e-31
8.21185e-32
7.04059e-33
6.13347e-34
5.43287e-35
4.8301e-36
4.23058e-37
3.58586e-38
2.90162e-39
2.22178e-40
1.60151e-41
1.08378e-42
6.87658e-44
4.08909e-45
2.27872e-46
1.19024e-47
5.82841e-49
2.67616e-50
1.15227e-51
4.65218e-53
1.76092e-54
6.24694e-56
2.07609e-57
6.46013e-59
1.88098e-60
5.12137e-62
1.30301e-63
3.09556e-65
6.86091e-67
1.41692e-68
2.72146e-70
4.84545e-72
7.95193e-74
1.19095e-75
1.59958e-77
1.86728e-79
1.7866e-81
1.24051e-83
4.44628e-86
2.58719e-30
1.87402e-31
1.49752e-32
1.21312e-33
9.91033e-35
8.21307e-36
6.86559e-37
5.71085e-38
4.64907e-39
3.6491e-40
2.73108e-41
1.93484e-42
1.29187e-43
8.10943e-45
4.77987e-46
2.64392e-47
1.37212e-48
6.6808e-50
3.05174e-51
1.30775e-52
5.25653e-54
1.98133e-55
7.00069e-57
2.31764e-58
7.18517e-60
2.08474e-61
5.6575e-63
1.43514e-64
3.40089e-66
7.52356e-68
1.55227e-69
2.98219e-71
5.31966e-73
8.76489e-75
1.3214e-76
1.79228e-78
2.12084e-80
2.06553e-82
1.46569e-84
5.37408e-87
4.8017e-31
3.3765e-32
2.59769e-33
2.00937e-34
1.55643e-35
1.21691e-36
9.59964e-38
7.57821e-39
5.90655e-40
4.47945e-41
3.26472e-42
2.26597e-43
1.48884e-44
9.22618e-46
5.38075e-47
2.94975e-48
1.51903e-49
7.34559e-51
3.33476e-52
1.42097e-53
5.6816e-55
2.13098e-56
7.49416e-58
2.46994e-59
7.62478e-61
2.20341e-62
5.95727e-64
1.50614e-65
3.55917e-67
7.85756e-69
1.61952e-70
3.11247e-72
5.56399e-74
9.20848e-76
1.39853e-77
1.91765e-79
2.30347e-81
2.28751e-83
1.66216e-85
6.2457e-88
8.30758e-32
5.70145e-33
4.24774e-34
3.16236e-35
2.34444e-36
1.74472e-37
1.30676e-38
9.81438e-40
7.31986e-41
5.35209e-42
3.78834e-43
2.56936e-44
1.65747e-45
1.012e-46
5.8302e-48
3.16323e-49
1.61445e-50
7.74559e-52
3.49145e-53
1.4781e-54
5.8746e-56
2.19098e-57
7.66434e-59
2.51334e-60
7.72186e-62
2.22151e-63
5.98153e-65
1.50676e-66
3.54985e-68
7.81995e-70
1.61012e-71
3.09596e-73
5.54835e-75
9.22911e-77
1.41325e-78
1.96135e-80
2.39523e-82
2.42996e-84
1.81186e-86
6.99009e-89
1.33404e-32
8.97846e-34
6.50694e-35
4.69052e-36
3.35316e-37
2.39429e-38
1.71443e-39
1.23046e-40
8.79676e-42
6.19921e-43
4.25558e-44
2.81536e-45
1.78e-46
1.06911e-47
6.07574e-49
3.25855e-50
1.64654e-51
7.83006e-53
3.50163e-54
1.47172e-55
5.81026e-57
2.15351e-58
7.48918e-60
2.44235e-61
7.46477e-63
2.13713e-64
5.72882e-66
1.43747e-67
3.37581e-69
7.41992e-71
1.52629e-72
2.93697e-74
5.27893e-76
8.8315e-78
1.36488e-79
1.91976e-81
2.38752e-83
2.4794e-85
1.90131e-87
7.5455e-90
1.98151e-33
1.3139e-34
9.29745e-36
6.52035e-37
4.52143e-38
3.11866e-39
2.14913e-40
1.48178e-41
1.01873e-42
6.92818e-44
4.6121e-45
2.97383e-46
1.84072e-47
1.08633e-48
6.08339e-50
3.22199e-51
1.61044e-52
7.58512e-54
3.36292e-55
1.40234e-56
5.49631e-58
2.02342e-59
6.99234e-61
2.26678e-62
6.88957e-64
1.96226e-65
5.23537e-67
1.30828e-68
3.0623e-70
6.71586e-72
1.38036e-73
2.65897e-75
4.79592e-77
8.07605e-79
1.26107e-80
1.80028e-82
2.28423e-84
2.43347e-86
1.92371e-88
7.86894e-91
2.71541e-34
1.78226e-35
1.23548e-36
8.46338e-38
5.71992e-39
3.83238e-40
2.55663e-41
1.70247e-42
1.1301e-43
7.43481e-45
4.80456e-46
3.01967e-47
1.8291e-48
1.06e-49
5.84515e-51
3.05511e-52
1.50951e-53
7.03742e-55
3.09154e-56
1.27842e-57
4.97205e-59
1.81732e-60
6.23806e-62
2.00956e-63
6.07196e-65
1.72002e-66
4.56665e-68
1.13637e-69
2.65107e-71
5.80157e-73
1.19175e-74
2.29906e-76
4.16385e-78
7.0641e-80
1.11586e-81
1.61938e-83
2.10039e-85
2.30073e-87
1.87962e-89
7.94171e-92
3.4282e-35
2.2379e-36
1.52435e-37
1.02354e-38
6.76881e-40
4.42559e-41
2.87255e-42
1.85665e-43
1.19499e-44
7.62847e-46
4.79434e-47
2.93971e-48
1.74299e-49
9.91741e-51
5.38329e-52
2.77558e-53
1.35508e-54
6.25053e-56
2.71962e-57
1.11481e-58
4.30083e-60
1.56022e-61
5.31808e-63
1.70199e-64
5.11132e-66
1.4398e-67
3.80353e-69
9.42444e-71
2.19146e-72
4.78628e-74
9.82938e-76
1.9e-77
3.45788e-79
5.91633e-81
9.46694e-83
1.39903e-84
1.85876e-86
2.09845e-88
1.77624e-90
7.76862e-93
)
;

boundaryField
{
    leftWall
    {
        type            zeroGradient;
    }
    rightWall
    {
        type            zeroGradient;
    }
    lowerWall
    {
        type            zeroGradient;
    }
    atmosphere
    {
        type            inletOutlet;
        inletValue      nonuniform 0();
        value           nonuniform 0();
    }
    defaultFaces
    {
        type            empty;
    }
    procBoundary1to0
    {
        type            processor;
        value           nonuniform List<scalar> 
44
(
-2.58267e-09
3.43002e-07
2.30179e-07
1.14713e-07
5.34537e-08
2.55852e-08
1.21681e-08
6.23705e-09
3.50065e-09
1.92672e-09
9.84385e-10
4.53688e-10
1.83157e-10
5.60023e-11
1.46188e-11
3.46393e-12
7.7562e-13
1.69712e-13
3.7438e-14
8.60936e-15
8.11111e-16
8.11111e-16
1.82571e-16
4.52882e-17
1.2633e-17
3.94911e-18
1.34259e-18
4.78617e-19
1.73572e-19
6.26845e-20
2.22183e-20
7.64959e-21
2.53798e-21
8.0592e-22
2.4336e-22
6.94459e-23
1.86165e-23
4.66142e-24
1.084e-24
2.32746e-25
4.5861e-26
8.24359e-27
1.34439e-27
1.98036e-28
)
;
    }
    procBoundary1to3
    {
        type            processor;
        value           nonuniform List<scalar> 
45
(
1.79472e-30
1.28389e-31
9.63646e-33
7.20913e-34
5.43693e-35
3.94328e-36
2.57195e-37
1.72535e-38
1.1379e-39
7.37532e-41
4.71257e-42
2.9805e-43
1.87268e-44
1.17047e-45
7.26087e-47
4.4442e-48
2.66215e-49
1.54715e-50
8.65514e-52
4.63105e-53
2.35849e-54
1.13918e-55
5.20509e-57
2.24554e-58
9.13349e-60
3.49842e-61
1.26067e-62
4.2702e-64
1.35862e-65
4.05792e-67
1.13738e-68
2.99145e-70
7.38546e-72
1.71291e-73
3.73671e-75
7.6792e-77
1.48902e-78
2.72692e-80
4.71341e-82
7.65574e-84
1.15488e-85
1.57608e-87
1.83934e-89
1.61796e-91
7.34164e-94
)
;
    }
}


// ************************************************************************* //
