/*--------------------------------*- C++ -*----------------------------------*\
| =========                 |                                                 |
| \\      /  F ield         | OpenFOAM: The Open Source CFD Toolbox           |
|  \\    /   O peration     | Version:  5.0                                   |
|   \\  /    A nd           | Web:      www.OpenFOAM.org                      |
|    \\/     M anipulation  |                                                 |
\*---------------------------------------------------------------------------*/
FoamFile
{
    version     2.0;
    format      ascii;
    class       volScalarField;
    location    "0.1";
    object      epsilon;
}
// * * * * * * * * * * * * * * * * * * * * * * * * * * * * * * * * * * * * * //

dimensions      [0 2 -3 0 0 0 0];

internalField   nonuniform List<scalar> 
1915
(
0.0864281
0.077756
0.338065
0.331207
0.384004
0.483029
0.4009
0.617027
0.408887
0.736434
0.416012
0.849767
0.427774
0.969042
0.451624
1.11429
0.499115
1.32255
0.585461
1.65073
0.0736418
0.375415
0.443653
0.531779
0.588374
0.621363
0.638156
0.6445
0.644551
0.641135
0.636036
0.631001
0.62756
0.624297
0.621093
0.617984
0.614984
0.612079
0.609248
0.606476
0.60376
0.601099
0.598494
0.59594
0.593423
0.590908
0.588337
0.585612
0.582573
0.578968
0.574389
0.568193
0.559366
0.54634
0.526717
0.496886
0.451468
0.383333
0.368101
0.125369
0.244428
0.250523
0.283016
0.300441
0.309748
0.314322
0.316222
0.316705
0.316498
0.315994
0.315413
0.31502
0.315094
0.315172
0.315148
0.315023
0.314815
0.314543
0.314218
0.313851
0.313448
0.313014
0.312555
0.312078
0.31159
0.311096
0.3106
0.310101
0.309592
0.309054
0.308447
0.307686
0.306614
0.304929
0.302081
0.297075
0.288142
0.271975
0.240194
0.244842
0.316891
0.272131
0.268834
0.264364
0.258899
0.253751
0.2496
0.246614
0.244679
0.243563
0.243036
0.24293
0.243179
0.243527
0.24385
0.244102
0.244271
0.244363
0.244387
0.244355
0.244277
0.24416
0.244014
0.243848
0.243674
0.243505
0.243359
0.24326
0.243241
0.243347
0.243641
0.244204
0.245129
0.246505
0.248381
0.250688
0.253123
0.255096
0.257569
0.320993
0.368706
0.289522
0.268816
0.251942
0.237559
0.226228
0.217932
0.212254
0.208635
0.20652
0.205439
0.205031
0.205082
0.20534
0.205654
0.205947
0.206186
0.206361
0.206475
0.206534
0.206548
0.206527
0.206479
0.206417
0.206355
0.206311
0.206313
0.206399
0.206627
0.207081
0.20788
0.209193
0.211242
0.214318
0.218787
0.225099
0.233841
0.246162
0.267742
0.380559
0.409196
0.307015
0.275411
0.248789
0.22691
0.210297
0.198418
0.190343
0.185128
0.181957
0.180182
0.179319
0.179057
0.179112
0.179307
0.179538
0.179752
0.179926
0.180053
0.180136
0.180181
0.180195
0.180191
0.180179
0.180177
0.180208
0.180306
0.180524
0.180937
0.181654
0.182835
0.184699
0.187551
0.191802
0.198013
0.206964
0.219845
0.239028
0.273512
0.425518
0.445843
0.332031
0.291009
0.253536
0.223308
0.201081
0.185573
0.175152
0.168391
0.164177
0.161688
0.160338
0.159728
0.15954
0.159572
0.159698
0.159848
0.159986
0.160096
0.160176
0.160226
0.160255
0.160272
0.160291
0.16033
0.160418
0.160596
0.160924
0.161494
0.162436
0.163932
0.16624
0.169716
0.174848
0.182328
0.19316
0.20896
0.232997
0.276821
0.458888
0.488898
0.37516
0.319879
0.266887
0.225648
0.19667
0.177164
0.164332
0.156055
0.150842
0.147665
0.145844
0.14489
0.144454
0.14431
0.144316
0.144386
0.144472
0.144552
0.144615
0.14466
0.144693
0.144722
0.144762
0.144835
0.144971
0.145218
0.145647
0.146358
0.147496
0.149263
0.151941
0.15592
0.161744
0.17019
0.182426
0.200373
0.227964
0.278681
0.483398
0.565823
0.448913
0.365415
0.288961
0.232848
0.195679
0.171778
0.156502
0.146776
0.140641
0.136842
0.134588
0.133313
0.132642
0.132328
0.132212
0.132198
0.132227
0.132269
0.13231
0.132345
0.132376
0.132413
0.13247
0.132571
0.132751
0.133063
0.133582
0.134421
0.135734
0.137737
0.140729
0.145125
0.151506
0.160715
0.174033
0.193606
0.223853
0.279687
0.501266
0.75246
0.564802
0.427456
0.316999
0.242568
0.196445
0.168169
0.150628
0.139622
0.132695
0.128373
0.125743
0.124188
0.123307
0.122837
0.122608
0.122512
0.122484
0.122489
0.122505
0.122526
0.122554
0.122596
0.122667
0.122794
0.123014
0.123385
0.123989
0.124943
0.126413
0.128623
0.131886
0.136632
0.143473
0.153296
0.16747
0.188302
0.220562
0.280201
0.514214
1.13524
0.713164
0.493354
0.341869
0.250279
0.196763
0.165088
0.145843
0.133886
0.126364
0.121647
0.11872
0.116937
0.115881
0.115276
0.114946
0.114776
0.114695
0.114663
0.114655
0.114663
0.114685
0.114731
0.114815
0.114965
0.115222
0.115648
0.116329
0.117389
0.118999
0.121392
0.124889
0.129936
0.137161
0.14749
0.162353
0.184174
0.217976
0.280445
0.52356
0.60719
1.26034
0.559403
1.08228
0.486549
0.871665
0.402505
0.63728
0.326391
0.461991
0.265306
0.343518
0.218769
0.264676
0.184243
0.21193
0.158907
0.176096
0.140322
0.151268
0.133766
0.121239
0.112158
0.105526
0.10065
0.097054
0.0943987
0.0924393
0.0909958
0.0899344
0.0891554
0.0885842
0.0881654
0.0878578
0.0876315
0.0874645
0.0873412
0.0872508
0.0871851
0.0871386
0.0871073
0.0870874
0.0870762
2.36458
1.62428
1.42967
1.49369
1.36816
1.11995
0.932092
0.783767
1.04244
0.944266
0.813266
0.69091
0.765275
0.74924
0.666466
0.569849
0.549443
0.557533
0.51275
0.449617
0.39811
0.410141
0.388435
0.350861
0.297836
0.308237
0.298382
0.276789
0.232189
0.239938
0.235674
0.22335
0.188686
0.19413
0.192393
0.185297
0.159278
0.163007
0.162365
0.158201
0.138955
0.141492
0.141298
0.138787
0.124644
0.126362
0.126329
0.12476
0.114417
0.115565
0.115567
0.114544
0.107021
0.10777
0.107755
0.107051
0.101628
0.102095
0.102046
0.101531
0.0976751
0.0979418
0.0978544
0.0974509
0.0947712
0.0948933
0.0947698
0.0944323
0.0926364
0.0926534
0.0924982
0.0921992
0.0910678
0.0910078
0.0908256
0.0905484
0.0899162
0.0897993
0.0895947
0.0893288
0.0890713
0.0889117
0.0886885
0.0884278
0.0884513
0.0882591
0.0880204
0.087761
0.0879953
0.0877778
0.0875259
0.0872655
0.0876586
0.0874207
0.0871575
0.0868946
0.0874086
0.0871537
0.0868804
0.0866141
0.0872214
0.0869518
0.0866692
0.086399
0.0870801
0.0867972
0.0865059
0.0862313
0.0869725
0.086677
0.0863772
0.0860979
0.0868901
0.0865822
0.086274
0.0859898
0.0868265
0.0865063
0.0861897
0.0859003
0.0867774
0.0864444
0.0861193
0.0858247
0.0867394
0.0863931
0.0860593
0.0857593
0.0867087
0.0863498
0.0860071
0.0857018
0.930108
0.706075
0.502388
0.345478
0.250028
0.194316
0.16139
0.141409
0.128978
0.121133
0.116166
0.113033
0.111081
0.109887
0.109172
0.108757
0.108522
0.108394
0.108327
0.108297
0.108292
0.108309
0.108357
0.108453
0.108625
0.108917
0.109394
0.110147
0.111304
0.11304
0.115597
0.1193
0.124607
0.132161
0.142915
0.158345
0.180961
0.21596
0.280552
0.530355
0.68316
0.578696
0.443048
0.321766
0.23924
0.18786
0.156366
0.136838
0.124519
0.116655
0.111606
0.108371
0.106314
0.105024
0.104227
0.103743
0.103455
0.103287
0.103191
0.10314
0.103122
0.103135
0.103186
0.103292
0.103485
0.10381
0.104334
0.105153
0.106398
0.10825
0.110953
0.114839
0.120373
0.128212
0.139327
0.155228
0.178486
0.214421
0.2806
0.535292
0.587258
0.482815
0.377232
0.287014
0.221631
0.178092
0.150002
0.131967
0.120309
0.112717
0.107757
0.104522
0.102428
0.101085
0.100234
0.0997016
0.0993725
0.0991713
0.0990508
0.0989832
0.098955
0.0989638
0.0990174
0.0991343
0.0993463
0.0997013
0.100269
0.101149
0.102474
0.104429
0.107262
0.11131
0.117042
0.125125
0.136546
0.152838
0.176614
0.213274
0.280632
0.538879
0.480292
0.395323
0.316683
0.251006
0.201442
0.166493
0.142758
0.126866
0.116257
0.109174
0.10445
0.101312
0.0992409
0.097887
0.0970106
0.0964485
0.0960911
0.0958658
0.0957263
0.095645
0.0956084
0.0956143
0.095671
0.0957977
0.0960276
0.0964106
0.0970188
0.0979529
0.0993505
0.101398
0.104345
0.108535
0.114439
0.122733
0.134413
0.151029
0.175221
0.212443
0.280673
0.541506
0.383654
0.321139
0.265212
0.218422
0.1818
0.154643
0.135255
0.121713
0.112362
0.105947
0.101571
0.098607
0.0966145
0.0952872
0.0944108
0.0938368
0.0934634
0.0932221
0.093069
0.0929776
0.0929349
0.0929392
0.0929992
0.0931353
0.0933817
0.0937902
0.0944347
0.095418
0.0968799
0.0990086
0.102057
0.10637
0.112424
0.120897
0.132795
0.149678
0.174203
0.211858
0.280732
0.543459
0.307192
0.263879
0.224677
0.191287
0.164312
0.14348
0.127965
0.116702
0.108665
0.103
0.099046
0.0963124
0.0944407
0.093171
0.0923172
0.0917472
0.0913688
0.0911195
0.0909581
0.0908601
0.0908134
0.0908171
0.0908808
0.0910258
0.0912875
0.091719
0.092396
0.093423
0.0949416
0.0971418
0.100279
0.104698
0.110879
0.119505
0.131584
0.148685
0.173476
0.211462
0.280811
0.544945
0.249105
0.220013
0.192875
0.16911
0.149293
0.133439
0.121192
0.111991
0.105221
0.100322
0.0968242
0.0943569
0.0926361
0.091448
0.0906349
0.0900823
0.0897088
0.0894582
0.0892933
0.0891919
0.0891434
0.0891477
0.0892154
0.0893687
0.0896442
0.0900962
0.090802
0.0918673
0.0934354
0.0956975
0.0989101
0.103421
0.10971
0.118463
0.130692
0.14797
0.17297
0.211209
0.28091
0.546114
0.206059
0.186772
0.168095
0.151208
0.136679
0.124676
0.115102
0.107685
0.102074
0.097911
0.0948731
0.0926879
0.0911359
0.0900457
0.0892868
0.0887622
0.0884015
0.0881555
0.0879914
0.0878894
0.0878408
0.0878467
0.0879186
0.0880797
0.0883676
0.0888377
0.0895685
0.0906671
0.0922777
0.0945927
0.0978696
0.102457
0.108837
0.117696
0.130047
0.147466
0.172629
0.211061
0.281025
0.547068
0.174492
0.161732
0.148888
0.136886
0.126243
0.11719
0.109758
0.103841
0.0992505
0.0957654
0.0931688
0.0912653
0.0898892
0.0889061
0.0882102
0.087721
0.0873792
0.0871425
0.0869825
0.0868825
0.0868354
0.0868437
0.0869198
0.0870881
0.0873869
0.0878728
0.0886251
0.089752
0.0913986
0.0937583
0.0970891
0.10174
0.108195
0.11714
0.12959
0.147121
0.172411
0.210989
0.281152
0.547877
0.151382
0.142903
0.134045
0.125501
0.117706
0.110895
0.105158
0.100477
0.0967616
0.0938803
0.0916912
0.0900569
0.0888549
0.0879817
0.0873533
0.0869044
0.0865857
0.0863616
0.0862085
0.0861123
0.0860679
0.0860792
0.0861597
0.0863345
0.0866428
0.0871422
0.0879127
0.0890633
0.09074
0.0931367
0.096512
0.101216
0.107731
0.116746
0.129274
0.146893
0.172282
0.210971
0.281288
0.54859
0.134416
0.128734
0.122594
0.116496
0.110784
0.105669
0.101261
0.0975835
0.0946027
0.0922457
0.0904216
0.0890358
0.0879993
0.0872339
0.086674
0.0862674
0.0859742
0.0857651
0.0856206
0.0855296
0.0854888
0.0855036
0.0855884
0.085769
0.0860856
0.0865963
0.087382
0.0885523
0.0902537
0.0926806
0.0960922
0.100838
0.107403
0.116472
0.129063
0.146751
0.172215
0.21099
0.281429
0.549235
0.121903
0.118053
0.11377
0.109403
0.105214
0.101379
0.0980034
0.0951309
0.0927575
0.0908463
0.0893412
0.0881784
0.0872943
0.0866306
0.0861371
0.0857729
0.0855061
0.0853132
0.0851785
0.0850936
0.0850572
0.0850756
0.0851645
0.0853503
0.085674
0.0861941
0.0869923
0.0881786
0.0899001
0.0923514
0.095792
0.100572
0.107175
0.116289
0.128928
0.14667
0.172193
0.211035
0.281574
0.549833
0.112632
0.10999
0.10698
0.103841
0.100765
0.0978917
0.0953142
0.0930803
0.0912018
0.0896631
0.088431
0.0874635
0.0867157
0.0861451
0.0857139
0.0853904
0.0851497
0.0849733
0.084849
0.0847708
0.084739
0.0847613
0.084854
0.0850445
0.085374
0.085902
0.0867103
0.0879095
0.089647
0.0921178
0.0955814
0.100388
0.107022
0.11617
0.128848
0.146632
0.172201
0.211097
0.28172
0.550394
0.105737
0.103898
0.101765
0.0994982
0.0972349
0.0950829
0.0931184
0.0913868
0.0899065
0.0886741
0.0876714
0.0868713
0.0862428
0.0857553
0.0853808
0.0850952
0.0848794
0.0847191
0.0846052
0.0845338
0.0845068
0.0845329
0.0846293
0.0848238
0.0851584
0.0856927
0.0865092
0.0877187
0.0894689
0.091955
0.0954368
0.100265
0.106923
0.116098
0.128806
0.146624
0.17223
0.21117
0.281866
0.550923
0.100598
0.0992955
0.0977692
0.0961233
0.0944536
0.0928402
0.0913437
0.0900037
0.0888401
0.0878562
0.0870431
0.0863838
0.0858576
0.0854426
0.0851184
0.0848672
0.0846744
0.0845293
0.0844255
0.0843609
0.0843387
0.0843686
0.0844683
0.0846664
0.0850052
0.0855447
0.0863677
0.0875854
0.0893457
0.0918439
0.0953401
0.100185
0.106862
0.116059
0.128791
0.146636
0.172273
0.211249
0.28201
0.551424
0.0967648
0.0958229
0.0947176
0.0935139
0.0922767
0.0910641
0.0899227
0.0888854
0.0879711
0.0871861
0.0865273
0.0859846
0.0855444
0.0851915
0.0849112
0.0846904
0.0845184
0.0843874
0.0842932
0.0842351
0.0842175
0.0842509
0.0843538
0.0845551
0.0848974
0.0854412
0.0862695
0.0874937
0.0892619
0.0917698
0.0952773
0.100135
0.106828
0.116042
0.128795
0.146663
0.172326
0.211334
0.282152
0.551897
0.093906
0.0932081
0.0923955
0.0915066
0.0905838
0.089668
0.0887943
0.087989
0.0872688
0.0866413
0.0861064
0.0856589
0.0852899
0.0849892
0.0847464
0.0845521
0.0843986
0.0842804
0.084195
0.084143
0.0841299
0.0841667
0.0842725
0.0844766
0.084822
0.0853693
0.0862019
0.0874314
0.089206
0.0917215
0.0952382
0.100107
0.106812
0.116041
0.128811
0.146698
0.172384
0.211421
0.282292
0.552342
0.0917768
0.0912441
0.0906351
0.08997
0.0892748
0.0885778
0.0879045
0.0872756
0.0867051
0.0862008
0.0857644
0.0853935
0.0850827
0.0848254
0.0846142
0.0844427
0.0843053
0.0841985
0.084121
0.0840748
0.0840658
0.0841059
0.0842144
0.084421
0.0847691
0.0853195
0.0861556
0.0873894
0.0891693
0.0916912
0.0952155
0.100093
0.106809
0.116051
0.128835
0.14674
0.172447
0.21151
0.282428
0.552756
0.0901934
0.0897726
0.0893051
0.0887984
0.0882676
0.0877308
0.0872065
0.0867106
0.0862547
0.0858458
0.0854867
0.0851769
0.0849133
0.0846915
0.0845067
0.0843545
0.0842311
0.0841343
0.084064
0.084023
0.0840179
0.084061
0.0841721
0.0843811
0.0847315
0.0852846
0.0861238
0.0873613
0.0891456
0.0916729
0.0952038
0.100089
0.106815
0.116068
0.128866
0.146786
0.172512
0.2116
0.28256
0.553139
0.0890175
0.0886722
0.0883025
0.0879078
0.0874948
0.0870748
0.0866606
0.0862643
0.0858953
0.0855598
0.085261
0.0849994
0.0847735
0.0845807
0.0844178
0.0842818
0.0841704
0.0840824
0.0840186
0.0839824
0.0839809
0.0840269
0.0841404
0.0843516
0.0847042
0.0852597
0.0861017
0.0873424
0.0891307
0.0916628
0.0951995
0.100092
0.106826
0.11609
0.1289
0.146836
0.17258
0.21169
0.282689
0.553489
0.0881442
0.0878497
0.0875474
0.0872313
0.0869025
0.0865671
0.0862338
0.0859116
0.0856081
0.0853287
0.0850766
0.0848529
0.0846571
0.0844877
0.0843428
0.0842205
0.0841193
0.084039
0.083981
0.0839491
0.083951
0.0839997
0.0841155
0.0843288
0.0846836
0.0852413
0.0860858
0.0873296
0.0891215
0.091658
0.0952001
0.100099
0.106841
0.116115
0.128937
0.146888
0.172649
0.21178
0.282813
0.553804
0.0874947
0.0872338
0.0869778
0.0867166
0.0864476
0.0861732
0.085899
0.0856318
0.0853774
0.0851407
0.0849246
0.0847306
0.0845587
0.0844083
0.0842782
0.0841673
0.0840749
0.0840013
0.0839484
0.0839205
0.0839256
0.0839769
0.0840949
0.0843103
0.0846671
0.0852269
0.0860739
0.0873206
0.089116
0.0916567
0.0952039
0.10011
0.106859
0.116143
0.128977
0.146942
0.17272
0.211871
0.282933
0.554084
0.0870095
0.0867707
0.086546
0.0863231
0.0860963
0.0858657
0.0856347
0.0854081
0.0851906
0.0849863
0.084798
0.0846272
0.0844743
0.0843393
0.0842214
0.0841201
0.0840352
0.0839675
0.0839192
0.083895
0.083903
0.0839567
0.0840769
0.0842943
0.0846531
0.0852151
0.0860645
0.087314
0.0891128
0.0916577
0.09521
0.100122
0.10688
0.116172
0.129018
0.146997
0.172792
0.211962
0.283049
0.554326
0.0866443
0.0864196
0.0862161
0.0860195
0.0858226
0.0856235
0.0854239
0.0852272
0.0850374
0.0848579
0.084691
0.0845384
0.0844008
0.0842782
0.0841704
0.0840773
0.0839989
0.0839363
0.0838922
0.0838713
0.0838821
0.0839382
0.0840604
0.0842798
0.0846406
0.0852048
0.0860566
0.087309
0.0891112
0.0916602
0.0952177
0.100136
0.106901
0.116204
0.129061
0.147054
0.172865
0.212052
0.283159
0.554531
0.0863664
0.0861505
0.0859609
0.0857824
0.0856065
0.0854299
0.0852533
0.0850789
0.08491
0.0847493
0.0845992
0.084461
0.0843356
0.0842232
0.0841239
0.0840376
0.0839649
0.0839069
0.0838665
0.0838487
0.0838621
0.0839205
0.0840448
0.0842662
0.084629
0.0851954
0.0860497
0.0873049
0.0891106
0.0916639
0.0952266
0.100151
0.106924
0.116236
0.129106
0.147112
0.172939
0.212142
0.283264
0.554697
0.0861519
0.085941
0.0857605
0.0855943
0.0854331
0.0852728
0.0851129
0.0849552
0.0848021
0.084656
0.084519
0.0843924
0.0842769
0.084173
0.0840808
0.0840005
0.0839327
0.0838788
0.0838418
0.0838269
0.0838428
0.0839033
0.0840297
0.084253
0.0846179
0.0851865
0.0860433
0.0873015
0.0891108
0.0916684
0.0952364
0.100168
0.106949
0.11627
0.129151
0.147172
0.173014
0.212232
0.283365
0.554824
0.0859832
0.085775
0.0856001
0.0854423
0.0852914
0.0851427
0.0849953
0.0848501
0.0847092
0.0845745
0.0844479
0.0843306
0.0842234
0.0841266
0.0840404
0.0839653
0.0839018
0.0838516
0.0838177
0.0838055
0.0838238
0.0838864
0.0840148
0.0842401
0.084607
0.0851779
0.0860374
0.0872987
0.0891116
0.0916737
0.0952471
0.100185
0.106974
0.116306
0.129198
0.147232
0.173089
0.212321
0.28346
0.554912
0.0858481
0.0856406
0.0854691
0.0853167
0.0851731
0.0850329
0.0848948
0.0847592
0.0846277
0.0845021
0.084384
0.0842743
0.0841739
0.0840832
0.0840022
0.0839316
0.083872
0.0838252
0.0837942
0.0837845
0.083805
0.0838697
0.0840001
0.0842274
0.0845964
0.0851696
0.0860318
0.0872962
0.089113
0.0916796
0.0952586
0.100203
0.107001
0.116342
0.129247
0.147294
0.173165
0.21241
0.283549
0.55496
0.0857375
0.0855296
0.0853598
0.0852109
0.0850723
0.0849384
0.0848072
0.0846791
0.0845551
0.0844369
0.0843256
0.0842224
0.0841278
0.0840422
0.0839659
0.0838993
0.0838433
0.0837995
0.0837712
0.0837639
0.0837865
0.0838532
0.0839855
0.0842148
0.084586
0.0851616
0.0860265
0.0872942
0.0891149
0.0916863
0.0952709
0.100222
0.107028
0.11638
0.129296
0.147357
0.173242
0.212498
0.283633
0.55497
0.085645
0.0854359
0.0852666
0.0851198
0.0849847
0.0848554
0.0847296
0.0846073
0.0844895
0.0843773
0.0842718
0.0841741
0.0840845
0.0840035
0.0839312
0.0838682
0.0838153
0.0837744
0.0837486
0.0837435
0.0837682
0.0838369
0.0839711
0.0842024
0.0845758
0.0851538
0.0860216
0.0872927
0.0891173
0.0916936
0.0952841
0.100243
0.107057
0.116418
0.129346
0.147421
0.17332
0.212585
0.283712
0.55494
0.085566
0.0853552
0.0851855
0.0850399
0.0849071
0.0847813
0.0846597
0.0845422
0.0844293
0.0843222
0.0842217
0.0841287
0.0840435
0.0839665
0.0838979
0.0838382
0.0837883
0.0837499
0.0837265
0.0837235
0.0837502
0.0838209
0.083957
0.0841903
0.0845659
0.0851464
0.086017
0.0872916
0.0891204
0.0917016
0.095298
0.100264
0.107086
0.116458
0.129398
0.147485
0.173397
0.212671
0.283784
0.554874
0.0854972
0.0852842
0.0851137
0.0849685
0.0848373
0.084714
0.0845959
0.0844822
0.0843736
0.0842708
0.0841747
0.0840858
0.0840045
0.0839311
0.0838659
0.0838092
0.083762
0.0837261
0.0837049
0.083704
0.0837326
0.0838051
0.0839431
0.0841784
0.0845562
0.0851393
0.0860129
0.087291
0.089124
0.0917103
0.0953128
0.100286
0.107117
0.116499
0.12945
0.147551
0.173475
0.212756
0.283851
0.55477
0.0854361
0.0852206
0.085049
0.0849037
0.0847735
0.0846522
0.0845367
0.0844264
0.0843214
0.0842225
0.0841302
0.084045
0.0839673
0.0838972
0.0838349
0.083781
0.0837364
0.0837028
0.0836837
0.0836848
0.0837153
0.0837896
0.0839295
0.0841668
0.0845469
0.0851325
0.0860092
0.087291
0.0891283
0.0917197
0.0953284
0.100309
0.107148
0.11654
0.129504
0.147617
0.173553
0.21284
0.283912
0.554627
)
;

boundaryField
{
    leftWall
    {
        Cmu             0.09;
        kappa           0.41;
        E               9.8;
        type            epsilonWallFunction;
        value           nonuniform 0();
    }
    rightWall
    {
        Cmu             0.09;
        kappa           0.41;
        E               9.8;
        type            epsilonWallFunction;
        value           nonuniform List<scalar> 
43
(
0.125369
0.244842
0.320993
0.380559
0.425518
0.458888
0.483398
0.501266
0.514214
0.52356
0.530355
0.535292
0.538879
0.541506
0.543459
0.544945
0.546114
0.547068
0.547877
0.54859
0.549235
0.549833
0.550394
0.550923
0.551424
0.551897
0.552342
0.552756
0.553139
0.553489
0.553804
0.554084
0.554326
0.554531
0.554697
0.554824
0.554912
0.55496
0.55497
0.55494
0.554874
0.55477
0.554627
)
;
    }
    lowerWall
    {
        Cmu             0.09;
        kappa           0.41;
        E               9.8;
        type            epsilonWallFunction;
        value           nonuniform List<scalar> 
66
(
0.0864281
0.077756
0.077756
0.331207
0.483029
0.617027
0.736434
0.849767
0.969042
1.11429
1.32255
1.65073
2.36458
1.62428
1.42967
1.49369
0.0736418
0.244428
0.316891
0.368706
0.409196
0.445843
0.488898
0.565823
0.75246
1.13524
0.0736418
0.375415
0.443653
0.531779
0.588374
0.621363
0.638156
0.6445
0.644551
0.641135
0.636036
0.631001
0.62756
0.624297
0.621093
0.617984
0.614984
0.612079
0.609248
0.606476
0.60376
0.601099
0.598494
0.59594
0.593423
0.590908
0.588337
0.585612
0.582573
0.578968
0.574389
0.568193
0.559366
0.54634
0.526717
0.496886
0.451468
0.383333
0.368101
0.125369
)
;
    }
    atmosphere
    {
        type            inletOutlet;
        inletValue      nonuniform 0();
        value           nonuniform 0();
    }
    defaultFaces
    {
        type            empty;
    }
    procBoundary1to0
    {
        type            processor;
        value           nonuniform List<scalar> 
44
(
0.449962
0.42885
0.421626
0.399955
0.374382
0.351823
0.335223
0.32629
0.326549
0.336162
0.341177
0.327725
0.300732
0.268126
0.235247
0.205281
0.179687
0.158783
0.142181
0.129231
0.12665
0.12665
0.116538
0.109029
0.103433
0.0992565
0.0961388
0.0938154
0.0920885
0.0908094
0.0898655
0.0891714
0.0886624
0.0882902
0.0880186
0.0878211
0.0876787
0.0875775
0.0875079
0.087463
0.087438
0.0874293
0.0874335
0.0874486
)
;
    }
    procBoundary1to3
    {
        type            processor;
        value           nonuniform List<scalar> 
45
(
0.0870712
0.0866838
0.0863114
0.0859603
0.0856498
0.0853806
0.0851627
0.0849895
0.0848439
0.0847143
0.0845946
0.0844815
0.084374
0.0842722
0.0841767
0.0840878
0.084006
0.0839315
0.0838645
0.0838051
0.0837538
0.0837115
0.0836801
0.083663
0.083666
0.0836983
0.0837744
0.0839163
0.0841556
0.0845379
0.0851262
0.086006
0.0872914
0.0891331
0.0917298
0.0953447
0.100332
0.107181
0.116583
0.129558
0.147683
0.173631
0.212922
0.283966
0.554436
)
;
    }
}


// ************************************************************************* //
