/*--------------------------------*- C++ -*----------------------------------*\
| =========                 |                                                 |
| \\      /  F ield         | OpenFOAM: The Open Source CFD Toolbox           |
|  \\    /   O peration     | Version:  5.0                                   |
|   \\  /    A nd           | Web:      www.OpenFOAM.org                      |
|    \\/     M anipulation  |                                                 |
\*---------------------------------------------------------------------------*/
FoamFile
{
    version     2.0;
    format      ascii;
    class       volScalarField;
    location    "0.1";
    object      k;
}
// * * * * * * * * * * * * * * * * * * * * * * * * * * * * * * * * * * * * * //

dimensions      [0 2 -2 0 0 0 0];

internalField   nonuniform List<scalar> 
1915
(
0.0171522
0.0150568
0.0331693
0.0188355
0.0444811
0.0243062
0.0522407
0.0286682
0.0578888
0.0322841
0.0624715
0.0355463
0.0668547
0.0388467
0.0720512
0.0427117
0.0793966
0.0480013
0.090649
0.0558131
0.0141588
0.0166355
0.0187461
0.0212319
0.0227735
0.0236623
0.0241188
0.024299
0.0243114
0.0242292
0.0240988
0.0239623
0.0238701
0.0237825
0.0236961
0.0236119
0.0235305
0.0234516
0.0233746
0.0232993
0.0232254
0.0231529
0.0230819
0.0230122
0.0229434
0.0228744
0.0228036
0.0227281
0.0226433
0.0225421
0.0224129
0.0222378
0.0219886
0.0216215
0.021069
0.0202258
0.0189246
0.0169151
0.0162671
0.0129077
0.0155283
0.0297036
0.0380112
0.0429316
0.0459039
0.0476571
0.0486433
0.0491517
0.0493686
0.0494139
0.0493638
0.0492663
0.0491454
0.049025
0.0489147
0.0488175
0.0487328
0.0486589
0.0485939
0.0485363
0.0484852
0.0484398
0.0483995
0.0483631
0.0483287
0.0482932
0.0482522
0.0481987
0.048122
0.0480059
0.0478255
0.0475425
0.0470989
0.0464061
0.0453275
0.0436471
0.0410071
0.0367626
0.0294111
0.0155229
0.0185075
0.0372498
0.0471422
0.0530279
0.0566034
0.0587639
0.0600453
0.0607799
0.0611755
0.0613632
0.0614262
0.0614185
0.0613634
0.0612898
0.0612126
0.0611392
0.061072
0.0610114
0.0609571
0.0609082
0.0608641
0.0608243
0.0607877
0.0607528
0.0607175
0.0606778
0.060628
0.0605592
0.0604579
0.0603037
0.0600658
0.0596984
0.0591328
0.0582657
0.0569383
0.0548976
0.0517181
0.0466141
0.0378231
0.0186854
0.0205447
0.0421334
0.0531122
0.0594989
0.0633482
0.0656889
0.0671087
0.06796
0.0684579
0.0687356
0.0688763
0.0689334
0.0689319
0.0689005
0.0688557
0.0688068
0.0687582
0.0687119
0.0686685
0.0686283
0.0685908
0.0685557
0.0685217
0.0684873
0.0684497
0.0684043
0.0683445
0.0682598
0.0681348
0.0679465
0.0676612
0.0672295
0.0665785
0.0655991
0.064124
0.0618842
0.0584191
0.0528549
0.0431413
0.0210128
0.0220925
0.0459781
0.0577245
0.0643573
0.0682838
0.0706577
0.0721044
0.0729864
0.07352
0.073836
0.0740149
0.074107
0.0741379
0.0741342
0.0741123
0.0740816
0.0740474
0.0740124
0.073978
0.0739447
0.0739125
0.073881
0.0738489
0.0738143
0.0737739
0.0737226
0.0736528
0.0735529
0.073406
0.0731875
0.0728621
0.0723784
0.0716618
0.070601
0.0690242
0.0666533
0.0630045
0.0571393
0.0467879
0.0227022
0.0234602
0.0494945
0.0618164
0.0684946
0.072319
0.0745858
0.0759536
0.0767859
0.0772932
0.0775997
0.0777801
0.0778786
0.0779205
0.0779292
0.077919
0.0778986
0.0778731
0.0778454
0.077817
0.0777885
0.07776
0.0777308
0.0776996
0.0776641
0.0776206
0.0775633
0.0774839
0.0773697
0.0772029
0.0769579
0.0765981
0.0760715
0.0753026
0.0741788
0.0725258
0.0700586
0.0662761
0.0601906
0.0493713
0.0239278
0.0250031
0.0529339
0.0658006
0.0724018
0.0759451
0.0779537
0.0791317
0.0798348
0.0802579
0.0805118
0.0806614
0.0807409
0.0807748
0.0807815
0.0807724
0.0807546
0.0807322
0.0807077
0.0806821
0.0806562
0.0806295
0.0806014
0.0805701
0.0805331
0.080486
0.0804227
0.080334
0.0802066
0.0800218
0.0797533
0.0793639
0.0788013
0.0779892
0.0768146
0.0751007
0.0725572
0.0686686
0.0624095
0.0512317
0.0248171
0.0276366
0.0562044
0.0698181
0.0763445
0.0794339
0.0810248
0.0819008
0.0823991
0.0826861
0.0828505
0.0829414
0.0829821
0.0829926
0.0829856
0.0829687
0.0829467
0.0829223
0.0828971
0.0828716
0.0828459
0.0828194
0.082791
0.0827587
0.0827194
0.0826684
0.082599
0.0825014
0.0823617
0.0821606
0.0818713
0.0814563
0.0808627
0.0800143
0.0787969
0.0770321
0.0744244
0.0704467
0.0640442
0.0525831
0.0254621
0.033715
0.0598477
0.0741747
0.0804603
0.0828966
0.0839172
0.0843927
0.0846244
0.084735
0.0847822
0.0847932
0.0847809
0.0847567
0.0847269
0.0846953
0.0846638
0.0846334
0.0846042
0.0845763
0.0845489
0.0845211
0.0844912
0.0844569
0.0844148
0.0843596
0.084284
0.0841779
0.0840267
0.0838108
0.0835029
0.0830653
0.0824449
0.081565
0.0803106
0.0785015
0.0758378
0.0717824
0.0652578
0.0535686
0.0259293
0.0448836
0.0664176
0.079833
0.0848154
0.0862961
0.0866333
0.0866488
0.0865792
0.0864915
0.0864062
0.086325
0.086251
0.086185
0.0861269
0.0860759
0.0860311
0.0859915
0.0859561
0.0859237
0.0858931
0.0858627
0.0858304
0.0857934
0.0857478
0.085688
0.0856064
0.085492
0.0853302
0.0851007
0.0847761
0.0843184
0.0836742
0.0827665
0.0814796
0.079631
0.0769172
0.0727928
0.0661628
0.0542875
0.0262675
0.0994202
0.0688839
0.103106
0.0924913
0.105007
0.107848
0.105091
0.111353
0.104351
0.110596
0.103236
0.10837
0.101909
0.105782
0.100565
0.103388
0.0993418
0.101373
0.0982935
0.0997414
0.0984563
0.0974586
0.0966874
0.0960984
0.0956466
0.0952987
0.0950285
0.0948161
0.0946463
0.094508
0.0943931
0.094296
0.094213
0.0941414
0.0940797
0.0940268
0.0939824
0.093946
0.0939173
0.093896
0.0938817
0.0938734
0.0938703
0.0596813
0.0460139
0.0424604
0.044161
0.0825035
0.0764901
0.0756602
0.0760198
0.104959
0.101817
0.100248
0.0985337
0.114056
0.114206
0.111951
0.108746
0.114909
0.116026
0.1141
0.110927
0.112203
0.113419
0.112173
0.109697
0.108711
0.109794
0.109088
0.107331
0.105516
0.106393
0.106023
0.104829
0.102885
0.103557
0.103375
0.102578
0.100814
0.101308
0.101222
0.10069
0.0992092
0.0995637
0.0995198
0.0991567
0.0979776
0.0982241
0.0981919
0.0979335
0.0970399
0.0971984
0.0971617
0.0969654
0.0963246
0.0964127
0.0963631
0.0962012
0.0957773
0.095809
0.0957424
0.0955974
0.0953564
0.0953423
0.0952574
0.0951184
0.0950299
0.0949783
0.0948753
0.0947357
0.0947735
0.0946911
0.094571
0.0944271
0.094569
0.094461
0.0943252
0.0941751
0.0944027
0.0942736
0.0941237
0.0939666
0.0942651
0.0941181
0.0939558
0.0937916
0.0941491
0.093987
0.0938138
0.0936428
0.0940499
0.0938749
0.0936918
0.0935145
0.0939643
0.0937778
0.0935861
0.0934029
0.09389
0.0936931
0.0934936
0.0933049
0.0938255
0.0936191
0.0934122
0.0932186
0.0937697
0.0935543
0.0933406
0.0931421
0.0937221
0.0934978
0.0932773
0.0930742
0.0936819
0.0934487
0.0932216
0.0930138
0.0936486
0.0934063
0.0931725
0.0929601
0.0936215
0.0933697
0.0931291
0.0929121
0.0936
0.0933382
0.0930907
0.0928689
0.0935826
0.093311
0.0930564
0.0928299
0.056143
0.0765273
0.0867409
0.0892571
0.0894967
0.089114
0.0886691
0.0882995
0.0880129
0.0877906
0.0876157
0.0874771
0.0873664
0.0872769
0.0872039
0.0871435
0.0870928
0.0870494
0.0870112
0.0869762
0.0869422
0.0869067
0.0868664
0.0868169
0.0867524
0.0866645
0.0865423
0.0863704
0.0861284
0.0857885
0.0853126
0.084647
0.0837142
0.0823976
0.0805131
0.0777535
0.0735668
0.0668445
0.0548158
0.0265146
0.082908
0.0905112
0.0935227
0.0932596
0.0922697
0.0912483
0.090411
0.0897817
0.0893162
0.0889684
0.0887061
0.088506
0.0883513
0.0882304
0.0881345
0.0880576
0.0879948
0.0879424
0.0878975
0.0878572
0.087819
0.0877796
0.0877355
0.0876819
0.0876124
0.0875185
0.0873886
0.0872072
0.0869536
0.0865996
0.086107
0.0854218
0.0844661
0.0831223
0.0812047
0.0784031
0.0741599
0.0673566
0.0552012
0.026695
0.0991976
0.0993414
0.0980639
0.0961412
0.0943744
0.0929308
0.0918252
0.0910054
0.0904006
0.0899524
0.0896171
0.0893635
0.0891694
0.0890193
0.0889018
0.0888086
0.0887336
0.0886721
0.0886201
0.0885742
0.0885313
0.0884878
0.0884397
0.0883818
0.0883074
0.0882075
0.0880703
0.08788
0.0876156
0.0872487
0.0867409
0.0860378
0.0850611
0.0836924
0.0817446
0.0789047
0.0746109
0.0677375
0.0554788
0.0268268
0.106088
0.10335
0.100444
0.0978532
0.0957677
0.094139
0.0928971
0.0919676
0.0912752
0.0907577
0.0903681
0.0900724
0.0898459
0.0896708
0.0895341
0.0894262
0.0893398
0.0892694
0.0892104
0.0891589
0.0891113
0.0890636
0.0890114
0.0889491
0.0888698
0.0887642
0.0886202
0.0884216
0.0881472
0.0877686
0.0872468
0.0865274
0.0855316
0.0841402
0.0821648
0.0792904
0.0749519
0.0680184
0.0556761
0.0269237
0.107652
0.104345
0.101227
0.0986126
0.0965355
0.0949074
0.0936481
0.0926862
0.0919553
0.0913999
0.0909762
0.0906513
0.0904007
0.0902059
0.0900533
0.0899328
0.0898364
0.0897579
0.0896925
0.0896357
0.0895834
0.0895316
0.0894754
0.089409
0.089325
0.089214
0.0890635
0.0888573
0.0885738
0.0881844
0.0876499
0.0869158
0.0859026
0.0844906
0.0824903
0.0795851
0.0752075
0.0682233
0.0558143
0.0269959
0.106797
0.103811
0.10105
0.098721
0.0968354
0.0953255
0.0941292
0.0931917
0.0924623
0.0918965
0.0914575
0.0911162
0.0908499
0.0906413
0.0904768
0.0903462
0.0902415
0.0901562
0.090085
0.0900234
0.0899669
0.0899112
0.0898512
0.0897808
0.0896925
0.0895765
0.0894201
0.0892069
0.0889151
0.0885158
0.0879699
0.0872224
0.0861936
0.0847632
0.0827407
0.0798085
0.0753972
0.0683708
0.0559093
0.0270507
0.105068
0.102656
0.100399
0.0984494
0.0968243
0.0954867
0.0943977
0.0935209
0.0928215
0.0922667
0.0918282
0.0914817
0.0912079
0.0909911
0.0908187
0.0906809
0.0905698
0.090479
0.090403
0.0903372
0.090277
0.0902178
0.0901543
0.0900803
0.089988
0.0898674
0.0897056
0.089486
0.0891867
0.0887787
0.0882225
0.087463
0.0864203
0.0849735
0.0829317
0.079976
0.0755363
0.0684752
0.0559729
0.0270935
0.103167
0.101323
0.099555
0.0979787
0.0966215
0.0954708
0.0945073
0.0937106
0.0930589
0.0925303
0.0921042
0.0917619
0.0914875
0.0912676
0.0910911
0.0909488
0.0908333
0.0907384
0.0906587
0.0905895
0.0905261
0.0904639
0.0903973
0.0903201
0.0902242
0.0900994
0.0899328
0.0897075
0.0894015
0.0889856
0.0884203
0.0876502
0.0865952
0.0851342
0.0830756
0.0801001
0.0756367
0.0685476
0.0560142
0.0271281
0.101395
0.100026
0.0986715
0.0974227
0.0963112
0.09534
0.0945038
0.093794
0.0931992
0.0927061
0.0923008
0.0919697
0.0917004
0.0914818
0.0913045
0.0911602
0.0910423
0.0909447
0.0908623
0.0907905
0.0907246
0.0906598
0.0905906
0.0905105
0.0904115
0.090283
0.0901122
0.0898818
0.0895698
0.089147
0.0885737
0.0877944
0.0867288
0.0852555
0.0831827
0.0801906
0.0757077
0.0685964
0.0560396
0.0271572
0.0998552
0.0988526
0.0978279
0.0968498
0.0959501
0.0951401
0.0944235
0.0937997
0.0932647
0.0928118
0.0924324
0.0921172
0.0918572
0.0916434
0.0914681
0.0913241
0.0912054
0.0911065
0.0910224
0.0909488
0.090881
0.0908142
0.0907428
0.0906604
0.0905585
0.0904269
0.0902523
0.0900175
0.0897004
0.0892716
0.0886913
0.087904
0.0868293
0.0853456
0.083261
0.0802552
0.0757567
0.0686279
0.0560538
0.0271824
0.0985662
0.0978338
0.0970612
0.0962988
0.0955746
0.0949035
0.094294
0.0937505
0.093274
0.0928625
0.0925116
0.0922154
0.0919675
0.0917612
0.0915901
0.0914483
0.0913302
0.0912312
0.0911465
0.0910718
0.0910027
0.0909343
0.0908613
0.0907768
0.0906726
0.0905383
0.0903604
0.0901219
0.0898003
0.0893663
0.08878
0.087986
0.0869037
0.0854114
0.083317
0.0803002
0.0757893
0.068647
0.0560603
0.027205
0.0975081
0.0969691
0.0963846
0.0957897
0.0952073
0.0946524
0.0941356
0.0936644
0.0932427
0.0928716
0.0925497
0.092274
0.09204
0.091843
0.0916778
0.0915395
0.0914234
0.0913252
0.0912407
0.0911656
0.0910958
0.0910264
0.0909521
0.090866
0.09076
0.0906233
0.0904427
0.0902009
0.0898755
0.0894371
0.0888458
0.0880462
0.0869575
0.0854581
0.0833559
0.0803303
0.0758097
0.068657
0.0560612
0.0272257
0.0966488
0.0962451
0.0957983
0.095331
0.0948608
0.0944011
0.093963
0.093555
0.0931829
0.0928497
0.0925562
0.0923012
0.0920821
0.0918955
0.0917374
0.0916038
0.0914907
0.0913942
0.0913105
0.0912357
0.0911656
0.0910957
0.0910205
0.0909332
0.0908256
0.0906871
0.0905042
0.0902596
0.089931
0.0894889
0.0888935
0.0880892
0.0869953
0.0854903
0.0833818
0.0803494
0.0758212
0.0686605
0.0560584
0.027245
0.0959544
0.0956436
0.0952959
0.0949244
0.0945416
0.0941588
0.0937861
0.0934324
0.0931042
0.0928057
0.0925391
0.0923044
0.0921004
0.0919247
0.0917744
0.0916462
0.0915368
0.0914428
0.0913605
0.0912865
0.0912166
0.0911465
0.0910707
0.0909826
0.0908739
0.0907338
0.0905491
0.0903022
0.089971
0.0895258
0.0889269
0.0881188
0.0870208
0.0855112
0.0833978
0.0803601
0.0758261
0.0686594
0.0560527
0.0272631
0.0953938
0.0951456
0.0948681
0.0945677
0.0942522
0.0939305
0.0936117
0.0933039
0.093014
0.0927467
0.0925048
0.0922894
0.0921002
0.0919356
0.0917935
0.0916713
0.0915661
0.0914749
0.0913946
0.0913218
0.0912525
0.0911826
0.0911066
0.091018
0.0909083
0.0907671
0.0905808
0.0903321
0.0899986
0.0895509
0.0889493
0.0881381
0.0870368
0.0855237
0.0834065
0.0803647
0.0758262
0.0686548
0.0560451
0.0272801
0.0949403
0.0947331
0.0945048
0.0942564
0.0939922
0.0937188
0.0934438
0.0931746
0.0929177
0.0926779
0.0924585
0.0922612
0.0920861
0.0919324
0.0917986
0.0916826
0.091582
0.0914941
0.0914161
0.0913447
0.0912764
0.091207
0.091131
0.0910421
0.0909318
0.0907897
0.0906022
0.090352
0.0900167
0.089567
0.0889631
0.0881494
0.0870456
0.0855298
0.0834097
0.0803646
0.0758227
0.0686477
0.0560359
0.0272961
0.0945715
0.0943906
0.0941961
0.0939854
0.0937602
0.0935247
0.0932851
0.0930479
0.0928192
0.0926036
0.0924044
0.0922236
0.0920619
0.0919187
0.0917931
0.0916834
0.0915875
0.0915031
0.0914276
0.091358
0.0912909
0.0912221
0.0911465
0.0910575
0.0909469
0.090804
0.0906156
0.0903642
0.0900275
0.0895761
0.0889704
0.0881548
0.0870489
0.085531
0.0834087
0.0803612
0.0758166
0.0686386
0.0560254
0.0273111
0.0942692
0.0941044
0.0939329
0.0937495
0.0935535
0.0933477
0.0931367
0.0929262
0.0927214
0.0925268
0.0923456
0.0921799
0.0920305
0.0918973
0.0917797
0.0916761
0.091585
0.0915042
0.0914314
0.0913637
0.091298
0.0912301
0.0911549
0.091066
0.0909552
0.090812
0.0906228
0.0903704
0.0900326
0.0895799
0.0889727
0.0881556
0.0870481
0.0855286
0.0834046
0.0803552
0.0758084
0.0686281
0.0560138
0.027325
0.094019
0.0938636
0.0937075
0.0935437
0.0933698
0.0931871
0.0929992
0.0928107
0.0926262
0.0924498
0.0922845
0.0921324
0.0919943
0.0918705
0.0917603
0.0916628
0.0915764
0.0914992
0.0914292
0.0913636
0.0912994
0.0912324
0.0911579
0.0910693
0.0909585
0.090815
0.0906252
0.0903721
0.0900334
0.0895796
0.0889713
0.088153
0.0870443
0.0855235
0.0833981
0.0803473
0.0757986
0.0686162
0.0560011
0.0273378
0.0938095
0.0936592
0.0935132
0.0933634
0.0932062
0.0930417
0.0928724
0.0927022
0.0925349
0.0923742
0.0922229
0.0920829
0.0919552
0.09184
0.0917369
0.0916451
0.0915633
0.0914897
0.0914225
0.091359
0.0912963
0.0912306
0.0911567
0.0910686
0.0909579
0.0908142
0.0906241
0.0903704
0.0900309
0.0895763
0.088967
0.0881477
0.0870381
0.0855163
0.0833899
0.0803378
0.0757876
0.0686032
0.0559876
0.0273495
0.093632
0.093484
0.0933445
0.0932048
0.0930603
0.0929102
0.092756
0.0926009
0.0924483
0.0923012
0.0921621
0.0920329
0.0919145
0.0918072
0.0917108
0.0916244
0.0915469
0.0914768
0.0914123
0.091351
0.09129
0.0912254
0.0911524
0.0910647
0.0909542
0.0908105
0.0906201
0.090366
0.0900259
0.0895706
0.0889606
0.0881406
0.0870301
0.0855076
0.0833803
0.0803271
0.0757754
0.0685893
0.0559731
0.0273599
0.0934799
0.0933324
0.0931972
0.0930648
0.09293
0.0927912
0.0926494
0.092507
0.0923667
0.0922313
0.092103
0.0919833
0.0918733
0.0917733
0.0916829
0.0916015
0.0915282
0.0914615
0.0913997
0.0913405
0.0912811
0.0912177
0.0911456
0.0910585
0.0909483
0.0908046
0.0906141
0.0903597
0.0900191
0.0895632
0.0889526
0.0881319
0.0870209
0.0854977
0.0833696
0.0803154
0.0757623
0.0685745
0.0559577
0.0273691
0.0933481
0.0932002
0.0930676
0.0929405
0.0928132
0.0926836
0.0925519
0.09242
0.0922902
0.0921649
0.092046
0.0919349
0.0918324
0.0917388
0.091654
0.0915774
0.0915079
0.0914445
0.0913852
0.0913281
0.0912703
0.0912082
0.091137
0.0910505
0.0909407
0.0907971
0.0906065
0.0903518
0.0900109
0.0895545
0.0889434
0.0881222
0.0870106
0.0854868
0.083358
0.0803029
0.0757484
0.0685588
0.0559415
0.0273769
0.0932329
0.093084
0.092953
0.0928298
0.0927083
0.092586
0.0924628
0.0923397
0.0922189
0.0921023
0.0919916
0.0918879
0.0917922
0.0917045
0.0916248
0.0915525
0.0914867
0.0914262
0.0913695
0.0913144
0.0912582
0.0911973
0.091127
0.0910411
0.0909317
0.0907883
0.0905977
0.0903428
0.0900016
0.0895449
0.0889333
0.0881116
0.0869995
0.0854752
0.0833458
0.0802897
0.0757338
0.0685425
0.0559245
0.0273835
0.0931315
0.0929812
0.092851
0.0927307
0.0926139
0.0924976
0.0923812
0.0922657
0.0921525
0.0920434
0.0919398
0.0918428
0.091753
0.0916707
0.0915956
0.0915272
0.0914648
0.0914072
0.0913528
0.0912997
0.091245
0.0911853
0.091116
0.0910308
0.0909218
0.0907786
0.090588
0.090333
0.0899915
0.0895345
0.0889225
0.0881004
0.0869879
0.085463
0.0833329
0.0802759
0.0757186
0.0685254
0.0559066
0.0273887
0.0930417
0.0928898
0.09276
0.0926418
0.0925286
0.0924172
0.0923066
0.0921974
0.0920908
0.0919882
0.0918908
0.0917997
0.0917152
0.0916376
0.0915667
0.091502
0.0914427
0.0913878
0.0913356
0.0912843
0.0912311
0.0911727
0.0911042
0.0910197
0.0909111
0.0907682
0.0905777
0.0903226
0.0899809
0.0895236
0.0889113
0.0880888
0.0869758
0.0854505
0.0833197
0.0802616
0.0757028
0.0685076
0.055888
0.0273926
0.092962
0.0928083
0.0926784
0.0925616
0.0924513
0.0923439
0.0922382
0.0921343
0.0920333
0.0919364
0.0918445
0.0917585
0.0916787
0.0916054
0.0915384
0.091477
0.0914206
0.0913682
0.0913181
0.0912685
0.0912168
0.0911595
0.091092
0.0910081
0.0909
0.0907574
0.090567
0.0903118
0.08997
0.0895124
0.0888997
0.0880769
0.0869635
0.0854376
0.083306
0.0802468
0.0756865
0.0684893
0.0558687
0.0273951
0.0928908
0.0927353
0.092605
0.0924892
0.0923811
0.092277
0.0921753
0.092076
0.0919799
0.0918878
0.0918007
0.0917192
0.0916438
0.0915743
0.0915107
0.0914524
0.0913987
0.0913485
0.0913004
0.0912525
0.0912022
0.091146
0.0910794
0.0909962
0.0908885
0.0907462
0.0905559
0.0903007
0.0899587
0.0895009
0.088888
0.0880648
0.0869509
0.0854245
0.0832921
0.0802318
0.0756698
0.0684705
0.0558488
0.0273962
0.0928272
0.0926696
0.0925386
0.0924235
0.0923171
0.0922156
0.0921173
0.0920219
0.09193
0.0918422
0.0917593
0.0916819
0.0916102
0.0915442
0.0914838
0.0914283
0.091377
0.091329
0.0912828
0.0912364
0.0911874
0.0911323
0.0910665
0.090984
0.0908769
0.0907348
0.0905447
0.0902895
0.0899474
0.0894894
0.0888762
0.0880526
0.0869383
0.0854113
0.0832781
0.0802165
0.0756527
0.0684512
0.0558283
0.0273959
0.0927702
0.0926104
0.0924785
0.0923636
0.0922585
0.0921591
0.0920637
0.0919716
0.0918833
0.0917993
0.0917201
0.0916463
0.091578
0.0915152
0.0914576
0.0914047
0.0913558
0.0913098
0.0912653
0.0912204
0.0911727
0.0911186
0.0910537
0.0909718
0.0908651
0.0907234
0.0905334
0.0902783
0.0899361
0.0894779
0.0888644
0.0880405
0.0869257
0.085398
0.0832639
0.080201
0.0756354
0.0684315
0.0558072
0.0273943
0.0927188
0.0925567
0.0924237
0.0923087
0.0922045
0.0921069
0.0920139
0.0919247
0.0918395
0.0917588
0.091683
0.0916125
0.0915473
0.0914873
0.0914323
0.0913818
0.091335
0.0912908
0.091248
0.0912045
0.091158
0.0911049
0.0910408
0.0909596
0.0908534
0.090712
0.0905222
0.0902671
0.0899248
0.0894665
0.0888527
0.0880284
0.0869132
0.0853848
0.0832497
0.0801855
0.0756179
0.0684115
0.0557857
0.0273915
0.0926723
0.0925078
0.0923735
0.0922582
0.0921547
0.0920584
0.0919674
0.0918807
0.0917984
0.0917206
0.0916478
0.0915802
0.0915177
0.0914604
0.0914079
0.0913596
0.0913147
0.0912723
0.091231
0.0911889
0.0911435
0.0910914
0.0910281
0.0909475
0.0908418
0.0907007
0.0905111
0.0902561
0.0899138
0.0894552
0.0888412
0.0880166
0.0869008
0.0853717
0.0832356
0.0801698
0.0756002
0.0683913
0.0557638
0.0273873
0.0926299
0.092463
0.0923272
0.0922114
0.0921082
0.0920131
0.0919238
0.0918393
0.0917594
0.0916843
0.0916143
0.0915493
0.0914895
0.0914345
0.0913842
0.091338
0.091295
0.0912543
0.0912144
0.0911736
0.0911293
0.0910781
0.0910156
0.0909356
0.0908304
0.0906896
0.0905002
0.0902453
0.0899029
0.0894443
0.08883
0.088005
0.0868887
0.0853588
0.0832216
0.0801542
0.0755823
0.0683707
0.0557415
0.0273818
)
;

boundaryField
{
    leftWall
    {
        type            kqRWallFunction;
        value           nonuniform 0();
    }
    rightWall
    {
        type            kqRWallFunction;
        value           nonuniform List<scalar> 
43
(
0.0129077
0.0155229
0.0186854
0.0210128
0.0227022
0.0239278
0.0248171
0.0254621
0.0259293
0.0262675
0.0265146
0.026695
0.0268268
0.0269237
0.0269959
0.0270507
0.0270935
0.0271281
0.0271572
0.0271824
0.027205
0.0272257
0.027245
0.0272631
0.0272801
0.0272961
0.0273111
0.027325
0.0273378
0.0273495
0.0273599
0.0273691
0.0273769
0.0273835
0.0273887
0.0273926
0.0273951
0.0273962
0.0273959
0.0273943
0.0273915
0.0273873
0.0273818
)
;
    }
    lowerWall
    {
        type            kqRWallFunction;
        value           nonuniform List<scalar> 
66
(
0.0171522
0.0150568
0.0150568
0.0188355
0.0243062
0.0286682
0.0322841
0.0355463
0.0388467
0.0427117
0.0480013
0.0558131
0.0596813
0.0460139
0.0424604
0.044161
0.0141588
0.0155283
0.0185075
0.0205447
0.0220925
0.0234602
0.0250031
0.0276366
0.033715
0.0448836
0.0141588
0.0166355
0.0187461
0.0212319
0.0227735
0.0236623
0.0241188
0.024299
0.0243114
0.0242292
0.0240988
0.0239623
0.0238701
0.0237825
0.0236961
0.0236119
0.0235305
0.0234516
0.0233746
0.0232993
0.0232254
0.0231529
0.0230819
0.0230122
0.0229434
0.0228744
0.0228036
0.0227281
0.0226433
0.0225421
0.0224129
0.0222378
0.0219886
0.0216215
0.021069
0.0202258
0.0189246
0.0169151
0.0162671
0.0129077
)
;
    }
    atmosphere
    {
        type            inletOutlet;
        inletValue      nonuniform 0();
        value           nonuniform 0();
    }
    defaultFaces
    {
        type            empty;
    }
    procBoundary1to0
    {
        type            processor;
        value           nonuniform List<scalar> 
44
(
0.0192257
0.0395654
0.0524796
0.0607379
0.0662994
0.070508
0.0742266
0.0780961
0.0826463
0.088205
0.0935586
0.0967321
0.0982011
0.0988422
0.0990164
0.098858
0.0984607
0.0979392
0.0973864
0.0968699
0.0974335
0.0974335
0.0967444
0.0962022
0.0957797
0.0954513
0.0951955
0.0949948
0.0948353
0.0947064
0.0946003
0.0945112
0.0944352
0.0943699
0.0943137
0.0942659
0.0942263
0.0941948
0.0941715
0.0941565
0.0941499
0.0941515
0.0941604
0.0941763
)
;
    }
    procBoundary1to3
    {
        type            processor;
        value           nonuniform List<scalar> 
45
(
0.0938713
0.0935688
0.0932868
0.0930252
0.0927942
0.0925908
0.0924215
0.0922841
0.0921677
0.0920648
0.0919706
0.0918828
0.0918002
0.0917226
0.0916499
0.0915823
0.0915198
0.0914623
0.0914097
0.0913615
0.0913171
0.0912759
0.0912367
0.0911982
0.0911586
0.0911154
0.0910652
0.0910034
0.090924
0.0908192
0.0906788
0.0904896
0.0902348
0.0898924
0.0894336
0.0888191
0.0879937
0.0868768
0.0853461
0.0832077
0.0801386
0.0755644
0.06835
0.0557187
0.0273746
)
;
    }
}


// ************************************************************************* //
