/*--------------------------------*- C++ -*----------------------------------*\
| =========                 |                                                 |
| \\      /  F ield         | OpenFOAM: The Open Source CFD Toolbox           |
|  \\    /   O peration     | Version:  5.0                                   |
|   \\  /    A nd           | Web:      www.OpenFOAM.org                      |
|    \\/     M anipulation  |                                                 |
\*---------------------------------------------------------------------------*/
FoamFile
{
    version     2.0;
    format      ascii;
    class       volScalarField;
    location    "0.1";
    object      p;
}
// * * * * * * * * * * * * * * * * * * * * * * * * * * * * * * * * * * * * * //

dimensions      [1 -1 -2 0 0 0 0];

internalField   nonuniform List<scalar> 
1915
(
2.36374
2.36331
2.31557
2.31522
2.2481
2.25174
2.16369
2.1741
2.06709
2.08274
1.95985
1.9778
1.842
1.85785
1.71222
1.71726
1.56781
1.53941
1.40704
1.2943
0.958473
0.961614
0.962475
0.961101
0.957499
0.951442
0.943418
0.93395
0.92348
0.912366
0.900889
0.889266
0.877632
0.866089
0.85473
0.843617
0.832792
0.822285
0.812126
0.802346
0.792976
0.784049
0.775594
0.767635
0.760193
0.753281
0.746912
0.741091
0.735826
0.731122
0.726986
0.723427
0.720455
0.718078
0.716303
0.715124
0.714513
0.714302
0.714502
0.715142
0.910447
0.912763
0.913255
0.911749
0.908085
0.902274
0.894646
0.885609
0.875543
0.864775
0.853575
0.842157
0.830687
0.819286
0.808042
0.797016
0.786257
0.775798
0.765675
0.75592
0.746568
0.737654
0.729208
0.721256
0.713818
0.706911
0.700546
0.69473
0.689471
0.684774
0.680647
0.677098
0.674132
0.671755
0.669964
0.668738
0.668036
0.66776
0.667841
0.668237
0.862161
0.864993
0.865289
0.863371
0.859486
0.853729
0.846333
0.837606
0.827856
0.817371
0.806406
0.795174
0.783847
0.772556
0.761396
0.750436
0.739726
0.729303
0.719203
0.709462
0.700118
0.691205
0.682758
0.674803
0.667363
0.660455
0.654089
0.648274
0.643018
0.638324
0.634199
0.630647
0.627671
0.625268
0.623426
0.622115
0.621281
0.62085
0.620827
0.621272
0.81326
0.817413
0.81848
0.816623
0.812562
0.806654
0.799195
0.790484
0.780796
0.770385
0.759485
0.748304
0.737013
0.725747
0.714607
0.703664
0.692967
0.682553
0.672457
0.662712
0.653358
0.644432
0.635969
0.627998
0.620544
0.613623
0.607247
0.601424
0.596159
0.591456
0.587318
0.583746
0.580739
0.578291
0.576385
0.574991
0.574062
0.57357
0.573629
0.574195
0.763519
0.769996
0.772524
0.771191
0.767072
0.760894
0.753147
0.744204
0.734346
0.723808
0.712808
0.70154
0.690172
0.678842
0.667654
0.656678
0.645961
0.635534
0.625425
0.615665
0.60629
0.59734
0.58885
0.580853
0.573374
0.56643
0.560033
0.55419
0.548906
0.544183
0.54002
0.536417
0.533372
0.530876
0.528914
0.527461
0.526489
0.526014
0.526211
0.526911
0.712624
0.722912
0.727652
0.727114
0.722933
0.716325
0.708064
0.69866
0.688424
0.677582
0.666331
0.654851
0.643304
0.63183
0.620534
0.609485
0.598721
0.588263
0.57813
0.568347
0.558945
0.549964
0.541441
0.533409
0.525896
0.518919
0.512491
0.50662
0.501308
0.496556
0.492362
0.488725
0.485642
0.483104
0.481101
0.479617
0.478642
0.478221
0.478552
0.479364
0.660759
0.677232
0.684859
0.684837
0.680319
0.672989
0.663917
0.653795
0.642967
0.631644
0.619997
0.608187
0.596368
0.584679
0.573224
0.562066
0.551233
0.540731
0.530567
0.520755
0.511323
0.502308
0.493746
0.485673
0.478118
0.471101
0.464635
0.458727
0.45338
0.448593
0.444366
0.440696
0.437579
0.43501
0.432983
0.431492
0.430539
0.430188
0.430633
0.431524
0.606776
0.634672
0.646072
0.645079
0.639463
0.630955
0.620684
0.609542
0.597896
0.585917
0.573736
0.561486
0.549311
0.537346
0.52569
0.514396
0.503475
0.492919
0.482718
0.472876
0.463412
0.45436
0.445756
0.437638
0.430036
0.422973
0.416462
0.410512
0.405125
0.400302
0.396041
0.392341
0.389197
0.386609
0.384575
0.383095
0.382181
0.381904
0.382438
0.383378
0.539139
0.596252
0.614385
0.60903
0.600619
0.590228
0.578286
0.565793
0.5531
0.540298
0.527457
0.514674
0.502075
0.489786
0.477896
0.466443
0.455422
0.444805
0.434565
0.424693
0.415198
0.40611
0.397464
0.389299
0.381647
0.374533
0.367972
0.361976
0.356548
0.351688
0.347396
0.34367
0.340509
0.337913
0.335885
0.334431
0.333565
0.333359
0.333958
0.334923
0.457612
0.563653
0.591068
0.577588
0.563915
0.550629
0.536519
0.522367
0.508425
0.494661
0.481059
0.467671
0.454599
0.441952
0.429805
0.41818
0.407052
0.396372
0.386094
0.376193
0.366671
0.357549
0.348863
0.340651
0.332948
0.32578
0.319169
0.313126
0.307656
0.302761
0.298441
0.294696
0.291526
0.288934
0.286923
0.285504
0.284691
0.284549
0.285194
0.286166
1.21664
0.918988
1.08046
0.909741
1.00484
0.922527
0.928919
0.858399
0.84663
0.779485
0.765153
0.70574
0.683857
0.631636
0.601258
0.554822
0.517719
0.4755
0.433674
0.394683
0.312884
0.229064
0.143385
0.0563629
-0.0319898
-0.121566
-0.212155
-0.303563
-0.395676
-0.488463
-0.581947
-0.676147
-0.771046
-0.866585
-0.962686
-1.05927
-1.15627
-1.25365
-1.35134
-1.44932
-1.54757
-1.64592
-1.74418
0.280111
0.452109
0.582491
0.586453
0.61243
0.577802
0.592485
0.579857
0.754496
0.644158
0.601671
0.57313
0.738282
0.644296
0.593917
0.557508
0.691333
0.618332
0.567569
0.526581
0.637307
0.575985
0.526291
0.484073
0.574885
0.521484
0.474615
0.433276
0.506181
0.459131
0.415673
0.376078
0.433131
0.391366
0.351236
0.313697
0.356594
0.319277
0.282373
0.247035
0.27773
0.243653
0.209817
0.176772
0.196611
0.165467
0.134266
0.103468
0.113835
0.0851118
0.0562274
0.0276086
0.0294012
0.00284419
-0.0238833
-0.0503954
-0.0566094
-0.081078
-0.105733
-0.130194
-0.143982
-0.166407
-0.189035
-0.211504
-0.232481
-0.252908
-0.273563
-0.294108
-0.321903
-0.340402
-0.359155
-0.377851
-0.412126
-0.428779
-0.445707
-0.462631
-0.503103
-0.517985
-0.533161
-0.548383
-0.594833
-0.608
-0.621482
-0.635059
-0.687314
-0.698806
-0.710639
-0.72262
-0.780525
-0.790374
-0.800598
-0.811022
-0.874416
-0.882658
-0.891308
-0.900212
-0.968918
-0.975596
-0.982714
-0.990132
-1.06396
-1.06912
-1.07475
-1.08072
-1.15947
-1.16317
-1.16735
-1.1719
-1.2554
-1.25768
-1.26045
-1.26363
-1.3517
-1.3526
-1.354
-1.35583
-1.44832
-1.44786
-1.44793
-1.44845
-1.54526
-1.54345
-1.5422
-1.54145
-1.64244
-1.63934
-1.63678
-1.6348
-1.7395
-1.7353
-1.73158
-1.72843
0.501178
0.549605
0.567017
0.547598
0.528234
0.511239
0.494595
0.478587
0.463259
0.448436
0.434005
0.419966
0.40639
0.393365
0.38095
0.369147
0.35791
0.347168
0.336856
0.326932
0.317387
0.308237
0.299514
0.291257
0.283503
0.276284
0.269622
0.263531
0.258021
0.253094
0.248752
0.244994
0.241823
0.239241
0.237257
0.235878
0.235118
0.235031
0.235706
0.236673
0.536462
0.537133
0.535977
0.514333
0.491377
0.470882
0.451722
0.433859
0.417123
0.401213
0.385933
0.37123
0.357141
0.343736
0.331054
0.319077
0.307736
0.296938
0.286598
0.276659
0.267099
0.257927
0.249172
0.240874
0.233073
0.225804
0.219094
0.212961
0.207414
0.202459
0.198099
0.194335
0.191169
0.188606
0.186653
0.185317
0.184607
0.184566
0.185258
0.186213
0.537868
0.51803
0.502241
0.47752
0.451999
0.428776
0.407486
0.387968
0.369926
0.352986
0.336893
0.32155
0.30697
0.293203
0.28027
0.268132
0.256698
0.245855
0.235499
0.225555
0.21599
0.206804
0.198025
0.189694
0.181852
0.17454
0.167787
0.161615
0.156038
0.151062
0.146691
0.142928
0.139774
0.137235
0.135317
0.134024
0.13336
0.133357
0.134058
0.134996
0.519379
0.489682
0.464803
0.437023
0.409531
0.384344
0.361418
0.340555
0.321404
0.30356
0.286737
0.270815
0.255791
0.2417
0.228545
0.216269
0.204762
0.193891
0.183532
0.173596
0.164036
0.154849
0.146056
0.137701
0.129828
0.12248
0.115692
0.10949
0.103889
0.0988993
0.094525
0.090769
0.087634
0.0851239
0.0832435
0.0819941
0.0813729
0.0814013
0.0821035
0.083023
0.486682
0.452491
0.42261
0.392602
0.363751
0.337268
0.313203
0.291351
0.271342
0.252766
0.235336
0.218927
0.203529
0.189167
0.175833
0.163452
0.151898
0.141018
0.130673
0.12076
0.111221
0.102044
0.0932507
0.0848827
0.0769889
0.0696163
0.062804
0.0565811
0.0509667
0.0459717
0.0416017
0.03786
0.0347491
0.0322722
0.0304314
0.0292243
0.0286416
0.0286955
0.0293953
0.0302949
0.443985
0.407931
0.375512
0.344218
0.314613
0.287412
0.262674
0.240188
0.219584
0.200472
0.182582
0.165799
0.150116
0.135553
0.122092
0.109647
0.0980755
0.087212
0.0769019
0.0670287
0.0575259
0.048375
0.0395952
0.0312288
0.023328
0.0159438
0.00911956
0.0028877
-0.0027301
-0.00772118
-0.0120788
-0.0157995
-0.018881
-0.0213217
-0.0231219
-0.0242884
-0.0248362
-0.0247616
-0.0240672
-0.0231879
0.393854
0.357314
0.323855
0.292063
0.262233
0.234794
0.209781
0.18698
0.166034
0.146586
0.128395
0.111366
0.0954988
0.0808146
0.0672884
0.0548251
0.0432722
0.0324522
0.0221989
0.0123853
0.00293618
-0.00617208
-0.0149222
-0.0232707
-0.0311626
-0.0385432
-0.0453653
-0.0515933
-0.057203
-0.0621802
-0.0665171
-0.0702101
-0.0732576
-0.0756595
-0.0774188
-0.0785466
-0.0790628
-0.0789715
-0.0782847
-0.0774257
0.337851
0.301685
0.268138
0.23644
0.206807
0.179509
0.154546
0.131702
0.110645
0.0910542
0.0727237
0.055581
0.0396385
0.0249186
0.0113935
-0.00103712
-0.0125328
-0.0232794
-0.0334516
-0.0431852
-0.0525618
-0.0616092
-0.0703116
-0.0786244
-0.0864899
-0.0938501
-0.100655
-0.106865
-0.112454
-0.117407
-0.121714
-0.125373
-0.128382
-0.130743
-0.132462
-0.133553
-0.134041
-0.133936
-0.133258
-0.132419
0.277013
0.241788
0.208792
0.177641
0.148545
0.121686
0.0970336
0.0743776
0.0534123
0.0338573
0.0155422
-0.0015819
-0.0174907
-0.0321585
-0.0456135
-0.0579583
-0.069356
-0.0799976
-0.0900636
-0.0996955
-0.10898
-0.117947
-0.126582
-0.13484
-0.14266
-0.149982
-0.156752
-0.162929
-0.168485
-0.173403
-0.177673
-0.181291
-0.184258
-0.186576
-0.188254
-0.189309
-0.189772
-0.189657
-0.188989
-0.18817
0.212116
0.17821
0.146206
0.115949
0.0876599
0.0614711
0.0373375
0.0150585
-0.00563971
-0.024998
-0.0431535
-0.0601332
-0.0759024
-0.0904311
-0.103747
-0.115952
-0.12721
-0.137715
-0.147648
-0.157156
-0.166327
-0.175194
-0.183742
-0.191924
-0.199679
-0.206944
-0.213662
-0.219791
-0.2253
-0.230172
-0.234395
-0.237967
-0.240887
-0.24316
-0.244797
-0.245819
-0.246259
-0.246135
-0.245479
-0.244678
0.143773
0.111443
0.0807384
0.0516354
0.0243597
-0.000979707
-0.0244325
-0.0461806
-0.0664633
-0.085484
-0.10335
-0.120069
-0.135599
-0.149905
-0.163014
-0.175027
-0.186105
-0.19644
-0.206215
-0.215576
-0.224613
-0.233358
-0.241798
-0.249884
-0.257553
-0.264741
-0.271389
-0.277454
-0.282903
-0.287716
-0.291885
-0.295403
-0.298273
-0.3005
-0.302096
-0.303085
-0.303504
-0.303374
-0.30273
-0.301947
0.0724837
0.0419105
0.0127179
-0.0150462
-0.0411558
-0.0655124
-0.0881589
-0.109252
-0.128996
-0.147558
-0.165019
-0.181374
-0.196573
-0.21058
-0.223419
-0.235188
-0.246046
-0.25618
-0.265772
-0.274963
-0.283844
-0.292447
-0.300757
-0.308725
-0.316287
-0.323378
-0.329938
-0.335922
-0.341297
-0.346042
-0.350146
-0.353605
-0.35642
-0.358597
-0.360152
-0.36111
-0.36151
-0.361375
-0.360743
-0.359979
-0.00131935
-0.0300226
-0.0575649
-0.0838655
-0.108703
-0.131979
-0.153723
-0.174063
-0.193165
-0.211166
-0.228125
-0.244024
-0.25881
-0.272448
-0.284958
-0.296437
-0.307037
-0.316941
-0.326323
-0.335323
-0.344027
-0.352467
-0.360625
-0.368453
-0.375887
-0.382861
-0.389314
-0.395201
-0.400487
-0.405152
-0.409183
-0.412575
-0.415331
-0.417457
-0.41897
-0.419898
-0.420279
-0.420141
-0.419521
-0.418775
-0.077262
-0.10404
-0.129856
-0.154619
-0.178114
-0.200241
-0.22101
-0.240517
-0.258896
-0.276251
-0.292624
-0.307989
-0.322292
-0.335497
-0.347626
-0.358772
-0.36908
-0.378724
-0.387874
-0.39666
-0.405167
-0.413421
-0.421406
-0.429073
-0.436357
-0.443193
-0.449521
-0.455295
-0.460478
-0.465051
-0.469
-0.472319
-0.475011
-0.477084
-0.478554
-0.479451
-0.479815
-0.479674
-0.479067
-0.478338
-0.155026
-0.179873
-0.203936
-0.227127
-0.249241
-0.270172
-0.289911
-0.308524
-0.326111
-0.342752
-0.35847
-0.373234
-0.386992
-0.399711
-0.411414
-0.422188
-0.432172
-0.441532
-0.450425
-0.458978
-0.467266
-0.475314
-0.483105
-0.490589
-0.497702
-0.50438
-0.510565
-0.516208
-0.521275
-0.525744
-0.529601
-0.532841
-0.535465
-0.537481
-0.538907
-0.539774
-0.540121
-0.539977
-0.539383
-0.538673
-0.234354
-0.2573
-0.27962
-0.301235
-0.321951
-0.341657
-0.360326
-0.377996
-0.394737
-0.410606
-0.425613
-0.439722
-0.452884
-0.465073
-0.476309
-0.486678
-0.496311
-0.505362
-0.513979
-0.522277
-0.530326
-0.538148
-0.545723
-0.553003
-0.559925
-0.566426
-0.572448
-0.577946
-0.582883
-0.587236
-0.590993
-0.594146
-0.596697
-0.598654
-0.600035
-0.60087
-0.601199
-0.601053
-0.600473
-0.599781
-0.315045
-0.336145
-0.356757
-0.376812
-0.396127
-0.414591
-0.432161
-0.448851
-0.464704
-0.479755
-0.494003
-0.507413
-0.51994
-0.53156
-0.542298
-0.552234
-0.561492
-0.570212
-0.578532
-0.586557
-0.594348
-0.601923
-0.609262
-0.616317
-0.623028
-0.629333
-0.635176
-0.640511
-0.645305
-0.649532
-0.653179
-0.656239
-0.658711
-0.660605
-0.661939
-0.662742
-0.663055
-0.662906
-0.66234
-0.661667
-0.396953
-0.416271
-0.435223
-0.453744
-0.471668
-0.488883
-0.505333
-0.521013
-0.535943
-0.550139
-0.563593
-0.576269
-0.588127
-0.59915
-0.609365
-0.618846
-0.627707
-0.636079
-0.644084
-0.651816
-0.65933
-0.666639
-0.673721
-0.680532
-0.687012
-0.693103
-0.69875
-0.703909
-0.708545
-0.712635
-0.716164
-0.719123
-0.721513
-0.723341
-0.724625
-0.725395
-0.72569
-0.72554
-0.724987
-0.724334
-0.479973
-0.497576
-0.514916
-0.531937
-0.548485
-0.564449
-0.579765
-0.594412
-0.60839
-0.621703
-0.634334
-0.64625
-0.657416
-0.667822
-0.677493
-0.686501
-0.694949
-0.702955
-0.710627
-0.718048
-0.725267
-0.732291
-0.739099
-0.745647
-0.751879
-0.757738
-0.763174
-0.768142
-0.772609
-0.776551
-0.779952
-0.782803
-0.785105
-0.786863
-0.788095
-0.78883
-0.789107
-0.788956
-0.788418
-0.787785
-0.564032
-0.57998
-0.595755
-0.611308
-0.626496
-0.641211
-0.655384
-0.668979
-0.681984
-0.694391
-0.70618
-0.717318
-0.727777
-0.73755
-0.746665
-0.755186
-0.763207
-0.770831
-0.778155
-0.785249
-0.792154
-0.798876
-0.805391
-0.811659
-0.817626
-0.823239
-0.828448
-0.833212
-0.837498
-0.841281
-0.844546
-0.847283
-0.849491
-0.851176
-0.852354
-0.853053
-0.853311
-0.853158
-0.852635
-0.852022
-0.649073
-0.663417
-0.677669
-0.691784
-0.705628
-0.719098
-0.732119
-0.74465
-0.756667
-0.768154
-0.779087
-0.789437
-0.799181
-0.808314
-0.816864
-0.824888
-0.832469
-0.839698
-0.846657
-0.853408
-0.859984
-0.866386
-0.872594
-0.878566
-0.884253
-0.889604
-0.894574
-0.899121
-0.903214
-0.906829
-0.90995
-0.912566
-0.914675
-0.916282
-0.917403
-0.918064
-0.918303
-0.918149
-0.917641
-0.917049
-0.735046
-0.747828
-0.760593
-0.773296
-0.78581
-0.798038
-0.809906
-0.821364
-0.832384
-0.842943
-0.853016
-0.862575
-0.871601
-0.880091
-0.88807
-0.89559
-0.902722
-0.909543
-0.916124
-0.922517
-0.928748
-0.934816
-0.9407
-0.946361
-0.951755
-0.956832
-0.96155
-0.965869
-0.969759
-0.973197
-0.976165
-0.978653
-0.980658
-0.982184
-0.983245
-0.983867
-0.984086
-0.98393
-0.983439
-0.982868
-0.821898
-0.833155
-0.844462
-0.855774
-0.866973
-0.877966
-0.88868
-0.899065
-0.909085
-0.918715
-0.927929
-0.9367
-0.945011
-0.952859
-0.960266
-0.967276
-0.97395
-0.980352
-0.986542
-0.992563
-0.998435
-1.00415
-1.0097
-1.01504
-1.02013
-1.02492
-1.02937
-1.03346
-1.03713
-1.04038
-1.04319
-1.04555
-1.04744
-1.04888
-1.04988
-1.05046
-1.05066
-1.0505
-1.05003
-1.04948
-0.909573
-0.919336
-0.929211
-0.939152
-0.94905
-0.958817
-0.968384
-0.977699
-0.986725
-0.995432
-1.00379
-1.01178
-1.01939
-1.0266
-1.03343
-1.03993
-1.04614
-1.05211
-1.0579
-1.06353
-1.06903
-1.07439
-1.07959
-1.0846
-1.08937
-1.09386
-1.09804
-1.10188
-1.10533
-1.10839
-1.11103
-1.11325
-1.11503
-1.11638
-1.11731
-1.11785
-1.11803
-1.11787
-1.11741
-1.11689
-0.998009
-1.00631
-1.01477
-1.02336
-1.03198
-1.04053
-1.04896
-1.05722
-1.06526
-1.07306
-1.08058
-1.0878
-1.09471
-1.10128
-1.10755
-1.11353
-1.11926
-1.1248
-1.13017
-1.13541
-1.14053
-1.14552
-1.15036
-1.15502
-1.15946
-1.16366
-1.16756
-1.17113
-1.17436
-1.17722
-1.17969
-1.18176
-1.18342
-1.18468
-1.18554
-1.18604
-1.18619
-1.18603
-1.18559
-1.18509
-1.08714
-1.094
-1.10108
-1.10834
-1.11569
-1.12306
-1.13037
-1.13759
-1.14466
-1.15157
-1.15827
-1.16473
-1.17094
-1.17689
-1.18259
-1.18805
-1.19331
-1.1984
-1.20335
-1.20818
-1.21291
-1.21752
-1.22199
-1.2263
-1.23041
-1.23429
-1.2379
-1.24122
-1.24421
-1.24686
-1.24915
-1.25107
-1.25261
-1.25378
-1.25457
-1.25502
-1.25515
-1.25499
-1.25457
-1.25409
-1.17691
-1.18235
-1.18807
-1.19403
-1.20015
-1.20634
-1.21256
-1.21876
-1.2249
-1.23093
-1.23682
-1.24255
-1.24808
-1.25341
-1.25853
-1.26347
-1.26825
-1.27289
-1.27741
-1.28183
-1.28616
-1.29038
-1.29448
-1.29843
-1.3022
-1.30576
-1.30908
-1.31213
-1.31488
-1.31732
-1.31943
-1.32119
-1.32261
-1.32367
-1.3244
-1.3248
-1.32491
-1.32475
-1.32434
-1.32388
-1.26724
-1.2713
-1.2757
-1.28039
-1.28529
-1.29035
-1.29551
-1.30072
-1.30593
-1.31112
-1.31622
-1.32122
-1.32609
-1.3308
-1.33536
-1.33978
-1.34407
-1.34825
-1.35233
-1.35634
-1.36026
-1.36409
-1.36781
-1.3714
-1.37483
-1.37806
-1.38108
-1.38386
-1.38637
-1.38859
-1.39051
-1.39212
-1.3934
-1.39437
-1.39502
-1.39537
-1.39546
-1.39529
-1.39491
-1.39448
-1.35808
-1.3608
-1.3639
-1.36735
-1.37108
-1.37504
-1.37917
-1.38342
-1.38775
-1.39211
-1.39645
-1.40073
-1.40494
-1.40904
-1.41304
-1.41694
-1.42073
-1.42445
-1.4281
-1.43168
-1.43519
-1.43863
-1.44197
-1.44519
-1.44827
-1.45118
-1.4539
-1.4564
-1.45866
-1.46066
-1.46239
-1.46384
-1.46499
-1.46585
-1.46643
-1.46674
-1.4668
-1.46664
-1.46627
-1.46586
-1.44939
-1.4508
-1.45265
-1.4549
-1.4575
-1.46039
-1.46353
-1.46685
-1.47032
-1.47387
-1.47746
-1.48105
-1.48461
-1.48811
-1.49155
-1.49492
-1.49823
-1.50148
-1.50469
-1.50784
-1.51095
-1.51398
-1.51694
-1.5198
-1.52253
-1.52511
-1.52753
-1.52975
-1.53176
-1.53354
-1.53508
-1.53636
-1.53738
-1.53814
-1.53864
-1.5389
-1.53894
-1.53878
-1.53843
-1.53804
-1.54112
-1.54126
-1.5419
-1.54299
-1.5445
-1.54636
-1.54854
-1.55098
-1.55361
-1.55638
-1.55925
-1.56216
-1.56508
-1.56798
-1.57086
-1.57371
-1.57653
-1.57932
-1.58208
-1.58481
-1.5875
-1.59014
-1.59272
-1.59521
-1.59759
-1.59985
-1.60196
-1.6039
-1.60566
-1.60721
-1.60856
-1.60967
-1.61056
-1.61121
-1.61164
-1.61185
-1.61187
-1.6117
-1.61138
-1.61102
-1.63323
-1.63215
-1.63162
-1.63161
-1.63207
-1.63295
-1.63421
-1.63578
-1.63761
-1.63963
-1.64178
-1.64402
-1.64631
-1.64862
-1.65095
-1.65328
-1.65561
-1.65793
-1.66025
-1.66255
-1.66484
-1.66708
-1.66928
-1.6714
-1.67344
-1.67537
-1.67718
-1.67884
-1.68035
-1.68168
-1.68283
-1.68378
-1.68453
-1.68508
-1.68543
-1.6856
-1.68559
-1.68543
-1.68512
-1.68479
-1.72571
-1.72348
-1.72185
-1.72078
-1.72023
-1.72017
-1.72054
-1.72128
-1.72232
-1.72359
-1.72504
-1.72662
-1.72829
-1.73002
-1.7318
-1.73361
-1.73545
-1.73732
-1.7392
-1.74108
-1.74295
-1.74481
-1.74662
-1.74839
-1.75008
-1.75169
-1.75319
-1.75458
-1.75583
-1.75694
-1.7579
-1.75868
-1.7593
-1.75974
-1.76002
-1.76014
-1.76011
-1.75994
-1.75965
-1.75935
)
;

boundaryField
{
    leftWall
    {
        type            calculated;
        value           nonuniform 0();
    }
    rightWall
    {
        type            calculated;
        value           nonuniform List<scalar> 
43
(
0.715142
0.668237
0.621272
0.574195
0.526911
0.479364
0.431524
0.383378
0.334923
0.286166
0.236673
0.186213
0.134996
0.083023
0.0302949
-0.0231879
-0.0774257
-0.132419
-0.18817
-0.244678
-0.301947
-0.359979
-0.418775
-0.478338
-0.538673
-0.599781
-0.661667
-0.724334
-0.787785
-0.852022
-0.917049
-0.982868
-1.04948
-1.11689
-1.18509
-1.25409
-1.32388
-1.39448
-1.46586
-1.53804
-1.61102
-1.68479
-1.75935
)
;
    }
    lowerWall
    {
        type            calculated;
        value           nonuniform List<scalar> 
66
(
2.38728
2.38686
2.36331
2.31522
2.25174
2.1741
2.08274
1.9778
1.85785
1.71726
1.53941
1.2943
0.304076
0.476075
0.606457
0.610418
0.958473
0.910447
0.862161
0.81326
0.763519
0.712624
0.660759
0.606776
0.539139
0.457612
0.982016
0.985157
0.986019
0.984645
0.981043
0.974985
0.966961
0.957494
0.947024
0.935909
0.924432
0.912809
0.901175
0.889632
0.878273
0.867161
0.856335
0.845829
0.83567
0.825889
0.816519
0.807592
0.799137
0.791179
0.783736
0.776825
0.770455
0.764635
0.759369
0.754665
0.750529
0.74697
0.743998
0.741622
0.739846
0.738667
0.738057
0.737846
0.738045
0.738685
)
;
    }
    atmosphere
    {
        type            calculated;
        value           nonuniform 0();
    }
    defaultFaces
    {
        type            empty;
    }
    procBoundary1to0
    {
        type            processor;
        value           nonuniform List<scalar> 
44
(
2.37303
2.32398
2.25155
2.16047
2.05872
1.94953
1.8337
1.71094
1.58049
1.4436
1.30357
1.18089
1.08446
0.995218
0.906046
0.818295
0.731685
0.645135
0.558016
0.47032
0.348109
0.348109
0.261789
0.17327
0.0831017
-0.00782194
-0.0996496
-0.192324
-0.285705
-0.379704
-0.474316
-0.56958
-0.665521
-0.762121
-0.85932
-0.957036
-1.05519
-1.15371
-1.25253
-1.35162
-1.45093
-1.55037
-1.64995
-1.74965
)
;
    }
    procBoundary1to3
    {
        type            processor;
        value           nonuniform List<scalar> 
45
(
-1.84243
-1.83638
-1.83111
-1.82647
-1.82232
-1.81854
-1.81525
-1.81259
-1.81053
-1.80903
-1.80807
-1.80757
-1.80749
-1.80774
-1.80828
-1.80903
-1.80995
-1.811
-1.81216
-1.8134
-1.8147
-1.81607
-1.81747
-1.81891
-1.82038
-1.82185
-1.82331
-1.82475
-1.82616
-1.82751
-1.82879
-1.83
-1.83111
-1.83211
-1.833
-1.83376
-1.83439
-1.83487
-1.83521
-1.83541
-1.83548
-1.83542
-1.83526
-1.83499
-1.83471
)
;
    }
}


// ************************************************************************* //
