/*--------------------------------*- C++ -*----------------------------------*\
| =========                 |                                                 |
| \\      /  F ield         | OpenFOAM: The Open Source CFD Toolbox           |
|  \\    /   O peration     | Version:  5.0                                   |
|   \\  /    A nd           | Web:      www.OpenFOAM.org                      |
|    \\/     M anipulation  |                                                 |
\*---------------------------------------------------------------------------*/
FoamFile
{
    version     2.0;
    format      ascii;
    class       volScalarField;
    location    "0.1";
    object      p_rgh;
}
// * * * * * * * * * * * * * * * * * * * * * * * * * * * * * * * * * * * * * //

dimensions      [1 -1 -2 0 0 0 0];

internalField   nonuniform List<scalar> 
1915
(
2.38728
2.38686
2.3862
2.38585
2.36582
2.36946
2.3285
2.3389
2.27898
2.29463
2.21883
2.23678
2.14807
2.16391
2.06537
2.07041
1.96805
1.93965
1.85436
1.74162
0.982016
0.985157
0.986019
0.984645
0.981043
0.974985
0.966961
0.957494
0.947024
0.935909
0.924432
0.912809
0.901175
0.889632
0.878273
0.867161
0.856335
0.845829
0.83567
0.825889
0.816519
0.807592
0.799137
0.791179
0.783736
0.776825
0.770455
0.764635
0.759369
0.754665
0.750529
0.74697
0.743998
0.741622
0.739846
0.738667
0.738057
0.737846
0.738045
0.738685
0.981077
0.983394
0.983886
0.982379
0.978716
0.972904
0.965277
0.95624
0.946174
0.935405
0.924206
0.912787
0.901317
0.889917
0.878672
0.867647
0.856887
0.846429
0.836305
0.82655
0.817198
0.808284
0.799839
0.791887
0.784449
0.777542
0.771176
0.76536
0.760101
0.755405
0.751278
0.747728
0.744763
0.742386
0.740594
0.739368
0.738666
0.73839
0.738471
0.738867
0.979879
0.982711
0.983007
0.981088
0.977204
0.971447
0.964051
0.955323
0.945573
0.935088
0.924123
0.912891
0.901564
0.890274
0.879114
0.868154
0.857443
0.847021
0.836921
0.82718
0.817835
0.808923
0.800475
0.792521
0.785081
0.778172
0.771806
0.765992
0.760735
0.756042
0.751916
0.748364
0.745388
0.742985
0.741143
0.739832
0.738998
0.738567
0.738545
0.73899
0.978064
0.982218
0.983284
0.981428
0.977366
0.971458
0.964
0.955289
0.945601
0.935189
0.92429
0.913109
0.901817
0.890551
0.879411
0.868468
0.857771
0.847358
0.837261
0.827517
0.818162
0.809236
0.800773
0.792803
0.785348
0.778427
0.772052
0.766229
0.760964
0.756261
0.752123
0.748551
0.745544
0.743096
0.74119
0.739795
0.738866
0.738374
0.738433
0.738999
0.97541
0.981888
0.984415
0.983082
0.978963
0.972785
0.965038
0.956096
0.946237
0.9357
0.924699
0.913432
0.902064
0.890733
0.879545
0.86857
0.857853
0.847426
0.837316
0.827556
0.818182
0.809231
0.800742
0.792745
0.785265
0.778321
0.771924
0.766082
0.760798
0.756074
0.751911
0.748309
0.745264
0.742767
0.740805
0.739352
0.738381
0.737905
0.738102
0.738803
0.971602
0.981891
0.98663
0.986092
0.981911
0.975303
0.967043
0.957639
0.947403
0.93656
0.925309
0.913829
0.902282
0.890808
0.879513
0.868463
0.857699
0.847241
0.837109
0.827325
0.817924
0.808943
0.800419
0.792388
0.784874
0.777897
0.77147
0.765599
0.760287
0.755534
0.75134
0.747704
0.74462
0.742082
0.740079
0.738596
0.73762
0.7372
0.737531
0.738343
0.966824
0.983297
0.990924
0.990902
0.986384
0.979054
0.969983
0.95986
0.949033
0.937709
0.926063
0.914253
0.902433
0.890744
0.879289
0.868132
0.857298
0.846796
0.836632
0.82682
0.817389
0.808373
0.799811
0.791738
0.784183
0.777166
0.7707
0.764792
0.759445
0.754659
0.750431
0.746761
0.743644
0.741075
0.739048
0.737557
0.736604
0.736254
0.736699
0.737589
0.959929
0.987825
0.999225
0.998232
0.992616
0.984108
0.973836
0.962694
0.951049
0.939069
0.926888
0.914638
0.902463
0.890498
0.878843
0.867548
0.856627
0.846071
0.83587
0.826028
0.816564
0.807512
0.798909
0.790791
0.783189
0.776125
0.769614
0.763664
0.758277
0.753454
0.749194
0.745493
0.74235
0.739762
0.737727
0.736247
0.735333
0.735056
0.73559
0.73653
0.939378
0.996491
1.01462
1.00927
1.00086
0.990467
0.978526
0.966032
0.95334
0.940538
0.927697
0.914913
0.902315
0.890026
0.878135
0.866682
0.855661
0.845044
0.834805
0.824932
0.815438
0.806349
0.797703
0.789538
0.781886
0.774772
0.768212
0.762215
0.756787
0.751928
0.747636
0.74391
0.740749
0.738153
0.736125
0.73467
0.733805
0.733598
0.734198
0.735162
0.904939
1.01098
1.03839
1.02491
1.01124
0.997955
0.983845
0.969694
0.955752
0.941987
0.928385
0.914997
0.901925
0.889278
0.877131
0.865506
0.854378
0.843698
0.83342
0.82352
0.813997
0.804875
0.796189
0.787977
0.780274
0.773107
0.766495
0.760452
0.754982
0.750087
0.745768
0.742022
0.738853
0.73626
0.73425
0.73283
0.732018
0.731875
0.73252
0.733492
1.71148
1.41382
1.62345
1.45273
1.59643
1.51412
1.56956
1.49904
1.53678
1.46963
1.50527
1.44586
1.4744
1.42218
1.4427
1.39627
1.41054
1.36832
1.37834
1.33935
1.30988
1.27888
1.2465
1.21328
1.17923
1.14446
1.10919
1.0736
1.03784
1.00192
0.965831
0.929562
0.893131
0.856602
0.82006
0.783588
0.747253
0.711111
0.675218
0.639617
0.604322
0.569511
0.535381
0.774946
0.946944
1.07733
1.08129
1.15542
1.12079
1.13547
1.12285
1.34609
1.23575
1.19326
1.16472
1.37892
1.28494
1.23456
1.19815
1.38148
1.30848
1.25772
1.21673
1.37742
1.3161
1.26641
1.22419
1.36543
1.31203
1.26516
1.22382
1.34763
1.30058
1.25712
1.21752
1.32595
1.28418
1.24405
1.20651
1.30126
1.26394
1.22704
1.1917
1.27473
1.24065
1.20681
1.17377
1.24642
1.21528
1.18408
1.15328
1.21695
1.18823
1.15935
1.13073
1.18632
1.15976
1.13304
1.10652
1.15461
1.13014
1.10549
1.08103
1.12204
1.09962
1.07699
1.05452
1.08886
1.06843
1.04778
1.02723
1.05526
1.03677
1.01801
0.999316
1.02139
1.00473
0.987806
0.970882
0.987278
0.972397
0.957221
0.941999
0.952946
0.939779
0.926297
0.91272
0.918395
0.906903
0.895069
0.883089
0.883652
0.873802
0.863579
0.853155
0.848771
0.840529
0.831879
0.822975
0.813828
0.807149
0.800032
0.792613
0.7789
0.773734
0.768107
0.762139
0.744058
0.740356
0.736176
0.731623
0.70936
0.707078
0.704306
0.701133
0.674865
0.673964
0.672562
0.670733
0.640621
0.641074
0.641009
0.640484
0.606635
0.608436
0.609691
0.610439
0.572989
0.57609
0.578647
0.580634
0.540063
0.544258
0.547983
0.551126
0.996013
1.04444
1.06185
1.04243
1.02307
1.00607
0.98943
0.973422
0.958095
0.943271
0.928841
0.914802
0.901225
0.8882
0.875785
0.863983
0.852746
0.842003
0.831691
0.821768
0.812223
0.803072
0.794349
0.786092
0.778338
0.771119
0.764457
0.758367
0.752857
0.74793
0.743587
0.739829
0.736658
0.734077
0.732092
0.730713
0.729954
0.729867
0.730542
0.731508
1.07945
1.08012
1.07897
1.05732
1.03437
1.01387
0.994711
0.976848
0.960112
0.944202
0.928922
0.914219
0.90013
0.886725
0.874043
0.862066
0.850725
0.839926
0.829587
0.819648
0.810088
0.800915
0.79216
0.783863
0.776062
0.768793
0.762083
0.755949
0.750403
0.745448
0.741088
0.737324
0.734158
0.731595
0.729642
0.728306
0.727596
0.727555
0.728247
0.729202
1.12946
1.10962
1.09383
1.06911
1.04359
1.02037
0.999075
0.979557
0.961516
0.944575
0.928482
0.913139
0.898559
0.884793
0.871859
0.859721
0.848288
0.837445
0.827088
0.817145
0.807579
0.798393
0.789615
0.781283
0.773442
0.76613
0.759377
0.753205
0.747627
0.742651
0.73828
0.734517
0.731364
0.728824
0.726906
0.725613
0.72495
0.724947
0.725647
0.726585
1.16002
1.13032
1.10544
1.07766
1.05017
1.02499
1.00206
0.981196
0.962046
0.944201
0.927379
0.911457
0.896433
0.882341
0.869186
0.856911
0.845404
0.834532
0.824173
0.814237
0.804678
0.79549
0.786698
0.778342
0.770469
0.763121
0.756333
0.750131
0.74453
0.739541
0.735166
0.73141
0.728275
0.725765
0.723885
0.722635
0.722014
0.722043
0.722745
0.723664
1.17683
1.14264
1.11276
1.08275
1.0539
1.02742
1.00335
0.9815
0.96149
0.942915
0.925485
0.909075
0.893678
0.879316
0.865981
0.853601
0.842046
0.831166
0.820822
0.810908
0.801369
0.792193
0.783399
0.775031
0.767138
0.759765
0.752953
0.74673
0.741115
0.73612
0.73175
0.728009
0.724898
0.722421
0.72058
0.719373
0.71879
0.718844
0.719544
0.720444
1.1841
1.14805
1.11563
1.08433
1.05473
1.02753
1.00279
0.980303
0.959699
0.940587
0.922697
0.905914
0.890231
0.875669
0.862208
0.849763
0.838191
0.827328
0.817017
0.807144
0.797641
0.788491
0.779711
0.771344
0.763444
0.756059
0.749235
0.743003
0.737385
0.732394
0.728037
0.724316
0.721235
0.718794
0.716994
0.715827
0.715279
0.715354
0.716048
0.716928
1.1844
1.14786
1.1144
1.08261
1.05278
1.02534
1.00033
0.977526
0.95658
0.937132
0.918941
0.901912
0.886045
0.871361
0.857835
0.845372
0.833819
0.822999
0.812745
0.802932
0.793483
0.784374
0.775624
0.767276
0.759384
0.752003
0.745181
0.738953
0.733343
0.728366
0.724029
0.720336
0.717289
0.714887
0.713128
0.712
0.711484
0.711575
0.712262
0.713121
1.1793
1.14313
1.10958
1.07789
1.04825
1.02095
0.995992
0.973148
0.952091
0.9325
0.914169
0.897027
0.881084
0.866364
0.852839
0.840408
0.828913
0.818166
0.807994
0.79826
0.788884
0.779836
0.771134
0.762821
0.754956
0.747595
0.740791
0.734581
0.728992
0.724039
0.719731
0.716072
0.713063
0.710702
0.708984
0.707893
0.707405
0.70751
0.708187
0.709026
1.16983
1.13461
1.10161
1.07046
1.04136
1.0145
0.989851
0.967195
0.94623
0.926675
0.90836
0.891235
0.875327
0.860659
0.847204
0.834859
0.823461
0.81282
0.802754
0.793122
0.783838
0.77487
0.766235
0.757977
0.750157
0.742835
0.736065
0.729888
0.724332
0.719415
0.715145
0.711526
0.708559
0.706241
0.704564
0.703508
0.703046
0.703161
0.703828
0.704648
1.15678
1.12288
1.09087
1.06062
1.03233
1.00614
0.982004
0.959725
0.939026
0.919668
0.901513
0.884533
0.868764
0.854235
0.840919
0.828714
0.817456
0.806952
0.797018
0.78751
0.778339
0.769472
0.760924
0.752742
0.744987
0.737722
0.731004
0.724875
0.719366
0.714494
0.710271
0.706699
0.703779
0.701506
0.699869
0.698847
0.698407
0.698531
0.699187
0.699988
1.14077
1.10844
1.07773
1.04863
1.02136
0.996016
0.972564
0.950816
0.930533
0.911512
0.893646
0.876927
0.861398
0.847091
0.833982
0.821969
0.810892
0.800556
0.790781
0.78142
0.772383
0.763638
0.755198
0.747112
0.739443
0.732255
0.725607
0.719542
0.714093
0.70928
0.705111
0.701593
0.698723
0.696497
0.694901
0.693911
0.693492
0.693622
0.694266
0.695049
1.1223
1.09172
1.06253
1.03477
1.00866
0.9843
0.961653
0.94056
0.920816
0.902254
0.884793
0.868438
0.853239
0.839232
0.826393
0.814624
0.803766
0.793632
0.78404
0.774849
0.765968
0.757365
0.749055
0.741087
0.733525
0.726434
0.719874
0.71389
0.708515
0.70377
0.699666
0.696207
0.693393
0.691215
0.68966
0.688702
0.688302
0.688437
0.689069
0.689833
1.1018
1.0731
1.04555
1.01925
0.994416
0.971139
0.949395
0.929056
0.909953
0.891952
0.874993
0.859094
0.844308
0.830671
0.81816
0.806682
0.796081
0.786178
0.776795
0.767795
0.759091
0.750652
0.742494
0.734665
0.727231
0.720258
0.713804
0.707918
0.702631
0.697967
0.693936
0.690543
0.687788
0.685661
0.684148
0.683221
0.682839
0.682978
0.683597
0.684344
1.07966
1.05288
1.02706
1.0023
0.978806
0.956678
0.935909
0.916402
0.898024
0.880668
0.864295
0.848931
0.834628
0.821423
0.809293
0.798148
0.78784
0.778195
0.769046
0.76026
0.751753
0.743499
0.735514
0.727847
0.720562
0.713726
0.707398
0.701625
0.696441
0.691869
0.68792
0.684601
0.681909
0.679836
0.678366
0.677469
0.677105
0.677246
0.677853
0.678581
1.05619
1.03135
1.00729
0.984094
0.96198
0.941048
0.921309
0.902697
0.88511
0.868469
0.852751
0.837986
0.824229
0.811509
0.799806
0.789033
0.779049
0.769689
0.760796
0.752243
0.743955
0.735906
0.728116
0.720632
0.713519
0.70684
0.700656
0.695013
0.689945
0.685476
0.681619
0.67838
0.675756
0.67374
0.672313
0.671447
0.6711
0.671244
0.671838
0.672548
1.03167
1.00873
0.986405
0.96479
0.944075
0.924369
0.9057
0.88803
0.871288
0.855419
0.840413
0.826304
0.813141
0.800953
0.789716
0.779347
0.769715
0.760664
0.752047
0.743749
0.7357
0.727877
0.720303
0.713023
0.706101
0.6996
0.693577
0.68808
0.683143
0.678789
0.675033
0.67188
0.669329
0.667372
0.665991
0.665156
0.664826
0.664972
0.665553
0.666244
1.00629
0.985195
0.964582
0.944528
0.925213
0.906748
0.889179
0.872489
0.856636
0.841584
0.827336
0.813926
0.8014
0.78978
0.779041
0.769105
0.759848
0.751127
0.742807
0.734783
0.726991
0.719416
0.712077
0.705023
0.698312
0.692007
0.686164
0.680828
0.676035
0.671808
0.668161
0.665101
0.662628
0.660734
0.6594
0.658598
0.658285
0.658433
0.659
0.659672
0.980214
0.960896
0.941944
0.923423
0.905499
0.888284
0.871833
0.856154
0.841224
0.827028
0.813574
0.800898
0.78904
0.778017
0.767802
0.758321
0.74946
0.741088
0.733083
0.725351
0.717837
0.710528
0.703446
0.696635
0.690155
0.684064
0.678417
0.673258
0.668622
0.664532
0.661003
0.658044
0.655654
0.653826
0.652542
0.651772
0.651477
0.651627
0.65218
0.652833
0.95354
0.935936
0.918597
0.901576
0.885028
0.869064
0.853747
0.839101
0.825123
0.81181
0.799179
0.787263
0.776096
0.765691
0.75602
0.747012
0.738564
0.730558
0.722886
0.715464
0.708246
0.701222
0.694414
0.687866
0.681634
0.675774
0.670339
0.665371
0.660904
0.656962
0.653561
0.65071
0.648408
0.64665
0.645417
0.644682
0.644405
0.644557
0.645095
0.645728
0.926349
0.910402
0.894627
0.879074
0.863886
0.849171
0.834998
0.821403
0.808398
0.79599
0.784202
0.773064
0.762604
0.752831
0.743717
0.735196
0.727175
0.719551
0.712227
0.705133
0.698228
0.691506
0.68499
0.678723
0.672756
0.667143
0.661933
0.65717
0.652884
0.649101
0.645836
0.643099
0.640891
0.639206
0.638028
0.637329
0.637071
0.637224
0.637746
0.638359
0.898705
0.884362
0.87011
0.855995
0.84215
0.828681
0.815659
0.803129
0.791111
0.779625
0.768692
0.758341
0.748597
0.739464
0.730915
0.722891
0.715309
0.70808
0.701121
0.69437
0.687795
0.681392
0.675185
0.669213
0.663526
0.658174
0.653205
0.648658
0.644565
0.640949
0.637829
0.635213
0.633104
0.631497
0.630376
0.629714
0.629475
0.62963
0.630137
0.630729
0.870663
0.857881
0.845116
0.832413
0.819898
0.80767
0.795803
0.784344
0.773324
0.762766
0.752693
0.743134
0.734108
0.725618
0.717638
0.710118
0.702987
0.696165
0.689584
0.683192
0.676961
0.670893
0.665009
0.659347
0.653954
0.648876
0.644159
0.63984
0.635949
0.632512
0.629544
0.627055
0.625051
0.623525
0.622464
0.621842
0.621622
0.621779
0.62227
0.62284
0.842279
0.831021
0.819714
0.808402
0.797203
0.78621
0.775496
0.765112
0.755091
0.745461
0.736248
0.727476
0.719166
0.711317
0.70391
0.6969
0.690226
0.683824
0.677634
0.671613
0.665742
0.660022
0.654474
0.649136
0.644048
0.639257
0.634802
0.630721
0.627043
0.623791
0.620983
0.618629
0.616734
0.615293
0.614295
0.613713
0.613515
0.613673
0.614147
0.614696
0.813614
0.803851
0.793976
0.784035
0.774137
0.76437
0.754803
0.745488
0.736462
0.727755
0.719393
0.711402
0.7038
0.69659
0.689755
0.683259
0.677051
0.671077
0.66529
0.659654
0.654154
0.648794
0.643595
0.638591
0.63382
0.629325
0.625143
0.621309
0.617852
0.614794
0.612152
0.609938
0.608157
0.606805
0.605872
0.605333
0.605156
0.605315
0.605774
0.6063
0.784736
0.77644
0.767974
0.759383
0.75077
0.742214
0.733783
0.725526
0.717483
0.709686
0.702163
0.694942
0.68804
0.681463
0.675199
0.669219
0.663484
0.657948
0.652574
0.647334
0.642216
0.637227
0.632387
0.627726
0.623281
0.61909
0.61519
0.611612
0.608383
0.605526
0.603057
0.600988
0.599325
0.598066
0.597201
0.596706
0.596551
0.596711
0.597152
0.597656
0.755715
0.74886
0.741777
0.734515
0.727165
0.719802
0.712487
0.705272
0.698194
0.69129
0.684591
0.678125
0.671913
0.665963
0.660269
0.654808
0.64955
0.644461
0.639509
0.634673
0.629947
0.625338
0.620864
0.616555
0.612444
0.608566
0.604954
0.601638
0.598644
0.595993
0.593702
0.591784
0.590244
0.589081
0.588285
0.587835
0.587703
0.587865
0.588289
0.588768
0.726622
0.721177
0.715452
0.709493
0.703381
0.697186
0.690964
0.684765
0.678631
0.672599
0.666705
0.66098
0.655448
0.650119
0.644992
0.640052
0.635277
0.63064
0.626118
0.621695
0.617369
0.613146
0.609045
0.605094
0.601323
0.597763
0.594445
0.591397
0.588644
0.586205
0.584097
0.582333
0.580919
0.579855
0.579131
0.578727
0.578618
0.578781
0.579187
0.579643
0.697522
0.693458
0.689061
0.684374
0.67947
0.674412
0.669253
0.664043
0.658826
0.653644
0.648537
0.643538
0.638673
0.633959
0.629398
0.624981
0.620693
0.616514
0.612427
0.608423
0.604501
0.60067
0.596948
0.593359
0.589932
0.586695
0.583676
0.580901
0.578392
0.576169
0.574249
0.572643
0.571358
0.570394
0.569744
0.569387
0.569301
0.569465
0.569853
0.570285
0.668477
0.66576
0.662657
0.659207
0.655476
0.65152
0.64739
0.643138
0.638811
0.634456
0.630116
0.625828
0.621622
0.617516
0.613518
0.609625
0.605826
0.602109
0.598463
0.594881
0.591368
0.587932
0.584591
0.581368
0.578288
0.575377
0.57266
0.57016
0.5679
0.565896
0.564166
0.562721
0.561568
0.560707
0.56013
0.559821
0.559758
0.559923
0.560292
0.560699
0.639544
0.638135
0.636288
0.634037
0.63144
0.628547
0.625411
0.622084
0.618619
0.615066
0.611474
0.607882
0.604324
0.600821
0.597384
0.594014
0.590707
0.587454
0.58425
0.581094
0.577991
0.574951
0.571993
0.569137
0.566405
0.563822
0.561408
0.559187
0.557177
0.555396
0.553858
0.552577
0.551557
0.550799
0.550297
0.550036
0.549995
0.550161
0.550511
0.550892
0.610773
0.610631
0.609996
0.608901
0.607396
0.605527
0.603347
0.600912
0.59828
0.595506
0.592643
0.589734
0.586814
0.583908
0.581028
0.57818
0.575363
0.572575
0.569815
0.567085
0.564393
0.561751
0.559175
0.556685
0.554301
0.552044
0.549935
0.547993
0.546234
0.544677
0.543335
0.542217
0.541331
0.540678
0.540251
0.540038
0.54002
0.540186
0.540515
0.540871
0.582202
0.583276
0.583807
0.583822
0.583364
0.582479
0.581219
0.579645
0.577819
0.575802
0.573651
0.571411
0.569121
0.566805
0.564479
0.562151
0.559823
0.557499
0.555181
0.552877
0.550594
0.548348
0.546152
0.544026
0.541989
0.540058
0.538252
0.536588
0.535082
0.533749
0.532602
0.531649
0.530898
0.53035
0.529999
0.529834
0.529839
0.530003
0.530312
0.53064
0.553852
0.556077
0.557711
0.558782
0.559325
0.559385
0.559016
0.558279
0.557241
0.555968
0.554516
0.552937
0.551268
0.549537
0.54776
0.545947
0.544105
0.54224
0.540362
0.538479
0.536605
0.534752
0.532936
0.531172
0.529479
0.527872
0.526367
0.52498
0.523725
0.522615
0.521662
0.520874
0.520258
0.519814
0.519539
0.519423
0.519451
0.519616
0.519904
0.520206
)
;

boundaryField
{
    leftWall
    {
        type            fixedFluxPressure;
        gradient        nonuniform 0();
        value           nonuniform 0();
    }
    rightWall
    {
        type            fixedFluxPressure;
        gradient        uniform 0;
        value           nonuniform List<scalar> 
43
(
0.738685
0.738867
0.73899
0.738999
0.738803
0.738343
0.737589
0.73653
0.735162
0.733492
0.731508
0.729202
0.726585
0.723664
0.720444
0.716928
0.713121
0.709026
0.704648
0.699988
0.695049
0.689833
0.684344
0.678581
0.672548
0.666244
0.659672
0.652833
0.645728
0.638359
0.630729
0.62284
0.614696
0.6063
0.597656
0.588768
0.579643
0.570285
0.560699
0.550892
0.540871
0.53064
0.520206
)
;
    }
    lowerWall
    {
        type            fixedFluxPressure;
        gradient        uniform 0;
        value           nonuniform List<scalar> 
66
(
2.38728
2.38686
2.38686
2.38585
2.36946
2.3389
2.29463
2.23678
2.16391
2.07041
1.93965
1.74162
0.774946
0.946944
1.07733
1.08129
0.982016
0.981077
0.979879
0.978064
0.97541
0.971602
0.966824
0.959929
0.939378
0.904939
0.982016
0.985157
0.986019
0.984645
0.981043
0.974985
0.966961
0.957494
0.947024
0.935909
0.924432
0.912809
0.901175
0.889632
0.878273
0.867161
0.856335
0.845829
0.83567
0.825889
0.816519
0.807592
0.799137
0.791179
0.783736
0.776825
0.770455
0.764635
0.759369
0.754665
0.750529
0.74697
0.743998
0.741622
0.739846
0.738667
0.738057
0.737846
0.738045
0.738685
)
;
    }
    atmosphere
    {
        type            totalPressure;
        rho             rho;
        psi             none;
        gamma           1;
        p0              nonuniform 0();
        value           nonuniform 0();
    }
    defaultFaces
    {
        type            empty;
    }
    procBoundary1to0
    {
        type            processor;
        value           nonuniform List<scalar> 
44
(
2.39658
2.39463
2.36929
2.3253
2.27063
2.20852
2.13976
2.06409
1.98073
1.89092
1.7984
1.72388
1.67604
1.63586
1.59619
1.55841
1.52223
1.48658
1.45083
1.41499
1.34511
1.34511
1.3116
1.27639
1.24002
1.2034
1.16638
1.12902
1.09146
1.05381
1.01607
0.978199
0.940188
0.902055
0.863867
0.825709
0.787668
0.749821
0.712229
0.674936
0.638002
0.601524
0.565478
0.52991
)
;
    }
    procBoundary1to3
    {
        type            processor;
        value           nonuniform List<scalar> 
45
(
0.501849
0.507906
0.513174
0.517818
0.521967
0.525746
0.529031
0.531693
0.533756
0.535251
0.536218
0.536712
0.536797
0.536541
0.536008
0.535256
0.534334
0.533281
0.532124
0.530885
0.529579
0.528217
0.52681
0.52537
0.523907
0.522436
0.520972
0.51953
0.518126
0.516775
0.515491
0.514287
0.513175
0.51217
0.511281
0.51052
0.509895
0.509411
0.509071
0.508872
0.508805
0.508859
0.509026
0.509297
0.509575
)
;
    }
}


// ************************************************************************* //
