/*--------------------------------*- C++ -*----------------------------------*\
| =========                 |                                                 |
| \\      /  F ield         | OpenFOAM: The Open Source CFD Toolbox           |
|  \\    /   O peration     | Version:  5.0                                   |
|   \\  /    A nd           | Web:      www.OpenFOAM.org                      |
|    \\/     M anipulation  |                                                 |
\*---------------------------------------------------------------------------*/
FoamFile
{
    version     2.0;
    format      ascii;
    class       surfaceScalarField;
    location    "0.45";
    object      alphaPhi10;
}
// * * * * * * * * * * * * * * * * * * * * * * * * * * * * * * * * * * * * * //

dimensions      [0 3 -1 0 0 0 0];

internalField   nonuniform List<scalar> 
3781
(
-3.03279e-06
3.03279e-06
-4.53587e-06
1.50307e-06
-4.24422e-06
-2.91641e-07
-2.98724e-06
-1.25699e-06
-1.25772e-06
-1.72952e-06
6.53516e-07
-1.91124e-06
2.60345e-06
-1.94993e-06
4.51419e-06
-1.91074e-06
6.34784e-06
-1.83365e-06
8.09015e-06
-1.74231e-06
9.73963e-06
-1.64948e-06
1.13015e-05
-1.56189e-06
1.27842e-05
-1.48271e-06
1.41971e-05
-1.41292e-06
1.55493e-05
-1.35214e-06
1.68485e-05
-1.29926e-06
1.81013e-05
-1.25276e-06
1.93122e-05
-1.21093e-06
2.04841e-05
-1.17192e-06
2.1618e-05
-1.13384e-06
2.27127e-05
-1.09476e-06
2.37654e-05
-1.05264e-06
2.47707e-05
-1.00536e-06
2.57213e-05
-9.50545e-07
2.66068e-05
-8.85521e-07
2.74139e-05
-8.07107e-07
2.81253e-05
-7.11356e-07
2.87183e-05
-5.93068e-07
2.91627e-05
-4.44373e-07
2.94156e-05
-2.52878e-07
2.94195e-05
-3.86025e-09
2.90569e-05
3.6253e-07
2.82684e-05
7.8851e-07
2.69676e-05
1.3008e-06
2.50597e-05
1.90796e-06
2.24533e-05
2.60632e-06
1.90794e-05
3.37392e-06
1.49185e-05
4.16096e-06
1.00299e-05
4.88861e-06
4.56526e-06
5.46459e-06
-1.24312e-06
5.84767e-06
-7.03564e-06
6.0668e-06
-1.30304e-05
5.25925e-06
1.5895e-06
-2.15615e-06
5.18894e-06
-2.24276e-06
1.58968e-06
-1.50231e-06
-1.03209e-06
-2.32111e-07
-2.52718e-06
1.32752e-06
-3.28915e-06
3.04707e-06
-3.6308e-06
4.81825e-06
-3.72111e-06
6.579e-06
-3.67149e-06
8.29583e-06
-3.55048e-06
9.95265e-06
-3.39914e-06
1.15444e-05
-3.24121e-06
1.30722e-05
-3.08971e-06
1.45405e-05
-2.95102e-06
1.5955e-05
-2.82739e-06
1.73214e-05
-2.71854e-06
1.86448e-05
-2.6227e-06
1.99293e-05
-2.53729e-06
2.11776e-05
-2.45921e-06
2.23909e-05
-2.38515e-06
2.35686e-05
-2.31162e-06
2.47088e-05
-2.23496e-06
2.58076e-05
-2.15137e-06
2.68589e-05
-2.05673e-06
2.78549e-05
-1.94651e-06
2.87849e-05
-1.81555e-06
2.96356e-05
-1.6578e-06
3.03901e-05
-1.46589e-06
3.10278e-05
-1.23069e-06
3.15237e-05
-9.40339e-07
3.18509e-05
-5.80077e-07
3.19781e-05
-1.30991e-07
3.18986e-05
4.41948e-07
3.15359e-05
1.15124e-06
3.08156e-05
2.02107e-06
2.96508e-05
3.07277e-06
2.79388e-05
4.31836e-06
2.55642e-05
5.74854e-06
2.24117e-05
7.31345e-06
1.83974e-05
8.90293e-06
1.35252e-05
1.03367e-05
7.96445e-06
1.14084e-05
2.34653e-06
1.18005e-05
-2.5077e-06
9.77202e-06
4.74051e-06
-8.83764e-07
6.0727e-06
-4.59192e-07
1.16511e-06
4.49274e-07
-1.94056e-06
1.69147e-06
-3.76938e-06
3.15534e-06
-4.75301e-06
4.73446e-06
-5.20991e-06
6.35977e-06
-5.34641e-06
7.98644e-06
-5.29816e-06
9.58792e-06
-5.15197e-06
1.11502e-05
-4.96141e-06
1.26674e-05
-4.7584e-06
1.41386e-05
-4.56094e-06
1.55657e-05
-4.37814e-06
1.69519e-05
-4.21352e-06
1.83004e-05
-4.06706e-06
1.96143e-05
-3.93663e-06
2.08959e-05
-3.81883e-06
2.21462e-05
-3.70955e-06
2.33653e-05
-3.60423e-06
2.45517e-05
-3.498e-06
2.57025e-05
-3.38575e-06
2.68131e-05
-3.26204e-06
2.78774e-05
-3.12101e-06
2.8887e-05
-2.95614e-06
2.98315e-05
-2.76005e-06
3.06978e-05
-2.52409e-06
3.14699e-05
-2.23801e-06
3.21287e-05
-1.88942e-06
3.26515e-05
-1.46318e-06
3.30124e-05
-9.40953e-07
3.31822e-05
-3.00828e-07
3.31373e-05
4.8686e-07
3.28379e-05
1.45065e-06
3.22392e-05
2.6198e-06
3.12907e-05
4.02129e-06
2.99359e-05
5.67315e-06
2.8112e-05
7.57246e-06
2.57503e-05
9.67515e-06
2.27848e-05
1.18684e-05
1.91827e-05
1.39389e-05
1.50378e-05
1.55533e-05
1.06446e-05
1.61936e-05
6.17633e-06
1.45675e-05
9.05423e-06
2.02481e-07
5.87022e-06
8.96706e-07
4.70887e-07
1.95189e-06
-2.99574e-06
3.22237e-06
-5.03986e-06
4.6296e-06
-6.16025e-06
6.11159e-06
-6.6919e-06
7.62545e-06
-6.86027e-06
9.14266e-06
-6.81537e-06
1.06452e-05
-6.6545e-06
1.21226e-05
-6.43884e-06
1.35698e-05
-6.2056e-06
1.49851e-05
-5.97621e-06
1.63688e-05
-5.76182e-06
1.77222e-05
-5.56693e-06
1.90469e-05
-5.39181e-06
2.03444e-05
-5.23408e-06
2.16153e-05
-5.08978e-06
2.28597e-05
-4.95393e-06
2.40764e-05
-4.82096e-06
2.52633e-05
-4.68484e-06
2.64167e-05
-4.53918e-06
2.75318e-05
-4.37711e-06
2.86019e-05
-4.19118e-06
2.96189e-05
-3.97311e-06
3.05724e-05
-3.71352e-06
3.14498e-05
-3.40154e-06
3.22362e-05
-3.02441e-06
3.29138e-05
-2.56704e-06
3.34622e-05
-2.01154e-06
3.38581e-05
-1.33689e-06
3.40762e-05
-5.18843e-07
3.40908e-05
4.72233e-07
3.38736e-05
1.66783e-06
3.33942e-05
3.09916e-06
3.26215e-05
4.79406e-06
3.15239e-05
6.77069e-06
3.007e-05
9.02643e-06
2.82258e-05
1.15193e-05
2.59543e-05
1.41399e-05
2.32213e-05
1.66719e-05
2.00322e-05
1.87424e-05
1.64895e-05
1.97364e-05
1.25466e-05
1.85177e-05
1.35159e-05
9.31148e-07
4.93907e-06
1.925e-06
-5.22968e-07
3.13503e-06
-4.20576e-06
4.46107e-06
-6.36591e-06
5.84932e-06
-7.54851e-06
7.26935e-06
-8.11193e-06
8.70175e-06
-8.29266e-06
1.01331e-05
-8.2467e-06
1.1554e-05
-8.07547e-06
1.29587e-05
-7.84348e-06
1.43436e-05
-7.59053e-06
1.57073e-05
-7.33989e-06
1.70494e-05
-7.10388e-06
1.837e-05
-6.88759e-06
1.96696e-05
-6.69143e-06
2.09484e-05
-6.5128e-06
2.22058e-05
-6.34724e-06
2.3441e-05
-6.18911e-06
2.4652e-05
-6.03196e-06
2.5836e-05
-5.86879e-06
2.69888e-05
-5.69205e-06
2.81054e-05
-5.49364e-06
2.91789e-05
-5.26471e-06
3.02012e-05
-4.99545e-06
3.11624e-05
-4.67472e-06
3.20506e-05
-4.28973e-06
3.28518e-05
-3.82562e-06
3.35499e-05
-3.26509e-06
3.41264e-05
-2.58808e-06
3.45611e-05
-1.77157e-06
3.48318e-05
-7.8957e-07
3.49164e-05
3.87694e-07
3.47925e-05
1.7917e-06
3.44387e-05
3.45295e-06
3.38352e-05
5.39759e-06
3.29642e-05
7.64161e-06
3.18096e-05
1.01811e-05
3.03528e-05
1.29761e-05
2.85674e-05
1.59252e-05
2.64126e-05
1.88267e-05
2.38346e-05
2.13205e-05
2.07726e-05
2.27983e-05
1.70494e-05
2.22409e-05
1.82643e-05
1.31301e-06
3.62606e-06
2.66411e-06
-1.87406e-06
4.06453e-06
-5.60618e-06
5.46896e-06
-7.77033e-06
6.86303e-06
-8.94258e-06
8.24651e-06
-9.49542e-06
9.62084e-06
-9.66699e-06
1.0986e-05
-9.61186e-06
1.23409e-05
-9.43036e-06
1.36842e-05
-9.18677e-06
1.50148e-05
-8.92112e-06
1.63319e-05
-8.65706e-06
1.76352e-05
-8.40719e-06
1.89243e-05
-8.17669e-06
2.01988e-05
-7.96588e-06
2.14579e-05
-7.77187e-06
2.27004e-05
-7.58975e-06
2.39245e-05
-7.41326e-06
2.51278e-05
-7.23523e-06
2.63068e-05
-7.04778e-06
2.74571e-05
-6.84241e-06
2.85734e-05
-6.60991e-06
2.96489e-05
-6.34025e-06
3.06758e-05
-6.02227e-06
3.16444e-05
-5.64334e-06
3.25437e-05
-5.18905e-06
3.33609e-05
-4.64281e-06
3.40814e-05
-3.98557e-06
3.46889e-05
-3.1956e-06
3.51658e-05
-2.24844e-06
3.54933e-05
-1.11708e-06
3.56529e-05
2.28052e-07
3.56272e-05
1.81737e-06
3.54008e-05
3.67936e-06
3.49611e-05
5.83729e-06
3.42984e-05
8.30433e-06
3.34039e-05
1.10756e-05
3.22651e-05
1.41149e-05
3.08568e-05
1.73335e-05
2.91274e-05
2.0556e-05
2.69815e-05
2.34664e-05
2.42528e-05
2.5527e-05
2.06261e-05
2.58677e-05
2.32771e-05
1.55635e-06
2.06971e-06
3.22942e-06
-3.54713e-06
4.81494e-06
-7.1917e-06
6.30087e-06
-9.25626e-06
7.71195e-06
-1.03537e-05
9.07458e-06
-1.0858e-05
1.04074e-05
-1.09998e-05
1.17214e-05
-1.09259e-05
1.30226e-05
-1.07316e-05
1.43141e-05
-1.04782e-05
1.55971e-05
-1.02042e-05
1.68723e-05
-9.93222e-06
1.81395e-05
-9.67438e-06
1.93982e-05
-9.43542e-06
2.06476e-05
-9.21527e-06
2.18863e-05
-9.01061e-06
2.31127e-05
-8.81607e-06
2.43242e-05
-8.62481e-06
2.5518e-05
-8.42902e-06
2.66903e-05
-8.22005e-06
2.78364e-05
-7.98856e-06
2.89509e-05
-7.72441e-06
3.00272e-05
-7.41655e-06
3.10576e-05
-7.05268e-06
3.20333e-05
-6.61899e-06
3.29439e-05
-6.09969e-06
3.37779e-05
-5.47682e-06
3.45223e-05
-4.72997e-06
3.5163e-05
-3.83622e-06
3.56847e-05
-2.77015e-06
3.60718e-05
-1.50425e-06
3.63094e-05
-9.49028e-09
3.63838e-05
1.74296e-06
3.62842e-05
3.77898e-06
3.6003e-05
6.11841e-06
3.55359e-05
8.77148e-06
3.48787e-05
1.17328e-05
3.40218e-05
1.49717e-05
3.29398e-05
1.84156e-05
3.15727e-05
2.19231e-05
2.9798e-05
2.52411e-05
2.7383e-05
2.7942e-05
2.39036e-05
2.93471e-05
2.84829e-05
1.78704e-06
2.82669e-07
3.71573e-06
-5.47582e-06
5.45079e-06
-8.92677e-06
7.00479e-06
-1.08103e-05
8.43319e-06
-1.17821e-05
9.78255e-06
-1.22074e-05
1.10842e-05
-1.23014e-05
1.23576e-05
-1.21993e-05
1.36144e-05
-1.19884e-05
1.48613e-05
-1.17251e-05
1.61021e-05
-1.1445e-05
1.73387e-05
-1.11689e-05
1.85718e-05
-1.09074e-05
1.98009e-05
-1.06646e-05
2.10251e-05
-1.04394e-05
2.22426e-05
-1.02282e-05
2.34514e-05
-1.00248e-05
2.46487e-05
-9.82208e-06
2.58311e-05
-9.61145e-06
2.69947e-05
-9.38365e-06
2.81347e-05
-9.12858e-06
2.92456e-05
-8.83533e-06
3.03211e-05
-8.49199e-06
3.13538e-05
-8.08539e-06
3.23355e-05
-7.60072e-06
3.3257e-05
-7.02116e-06
3.41078e-05
-6.32765e-06
3.48767e-05
-5.49882e-06
3.55514e-05
-4.51092e-06
3.61192e-05
-3.33802e-06
3.65675e-05
-1.95248e-06
3.6884e-05
-3.25985e-07
3.70585e-05
1.56849e-06
3.70836e-05
3.75384e-06
3.69559e-05
6.24611e-06
3.66752e-05
9.05219e-06
3.62418e-05
1.21662e-05
3.56503e-05
1.55632e-05
3.48781e-05
1.91878e-05
3.38656e-05
2.29357e-05
3.24818e-05
2.66248e-05
3.0466e-05
2.99578e-05
2.73274e-05
3.24857e-05
3.35884e-05
2.02324e-06
-1.74057e-06
4.15941e-06
-7.61198e-06
6.01014e-06
-1.07775e-05
7.6152e-06
-1.24153e-05
9.05606e-06
-1.32229e-05
1.03947e-05
-1.3546e-05
1.16713e-05
-1.3578e-05
1.2911e-05
-1.3439e-05
1.41297e-05
-1.32071e-05
1.53374e-05
-1.29327e-05
1.65399e-05
-1.26475e-05
1.77406e-05
-1.23696e-05
1.89408e-05
-1.21077e-05
2.01407e-05
-1.18644e-05
2.13391e-05
-1.16379e-05
2.25344e-05
-1.14234e-05
2.3724e-05
-1.12144e-05
2.4905e-05
-1.10031e-05
2.60738e-05
-1.07803e-05
2.72264e-05
-1.05362e-05
2.83579e-05
-1.02601e-05
2.94629e-05
-9.94032e-06
3.05353e-05
-9.56433e-06
3.15682e-05
-9.11832e-06
3.25542e-05
-8.58673e-06
3.3485e-05
-7.95196e-06
3.43515e-05
-7.19416e-06
3.5144e-05
-6.2913e-06
3.58523e-05
-5.21924e-06
3.64662e-05
-3.95186e-06
3.69753e-05
-2.4616e-06
3.73702e-05
-7.20883e-07
3.76432e-05
1.29549e-06
3.77898e-05
3.60718e-06
3.78101e-05
6.22582e-06
3.77082e-05
9.15412e-06
3.74899e-05
1.23846e-05
3.71566e-05
1.58964e-05
3.66952e-05
1.96492e-05
3.60585e-05
2.35725e-05
3.51323e-05
2.7551e-05
3.36766e-05
3.14135e-05
3.12143e-05
3.4948e-05
3.79963e-05
2.24986e-06
-3.99043e-06
4.56786e-06
-9.92998e-06
6.51126e-06
-1.27209e-05
8.15246e-06
-1.40565e-05
9.59949e-06
-1.46699e-05
1.09275e-05
-1.4874e-05
1.21825e-05
-1.4833e-05
1.33934e-05
-1.46499e-05
1.45788e-05
-1.43925e-05
1.57512e-05
-1.41051e-05
1.69184e-05
-1.38148e-05
1.80852e-05
-1.35363e-05
1.92538e-05
-1.32763e-05
2.04245e-05
-1.30352e-05
2.15967e-05
-1.281e-05
2.27683e-05
-1.2595e-05
2.3937e-05
-1.23831e-05
2.50996e-05
-1.21657e-05
2.62525e-05
-1.19332e-05
2.73914e-05
-1.16752e-05
2.85116e-05
-1.13803e-05
2.96077e-05
-1.10365e-05
3.0674e-05
-1.06306e-05
3.17041e-05
-1.01485e-05
3.26915e-05
-9.57412e-06
3.36289e-05
-8.88934e-06
3.45085e-05
-8.07377e-06
3.53222e-05
-7.10504e-06
3.6062e-05
-5.95901e-06
3.67198e-05
-4.60969e-06
3.7288e-05
-3.02973e-06
3.77592e-05
-1.19206e-06
3.81277e-05
9.2691e-07
3.83916e-05
3.34336e-06
3.85536e-05
6.06379e-06
3.86225e-05
9.08521e-06
3.86109e-05
1.23962e-05
3.85303e-05
1.5977e-05
3.8383e-05
1.97965e-05
3.81471e-05
2.38084e-05
3.77521e-05
2.79459e-05
3.7036e-05
3.21296e-05
3.56561e-05
3.6328e-05
4.08297e-05
2.50515e-06
-6.49558e-06
5.03831e-06
-1.24631e-05
7.09272e-06
-1.47753e-05
8.78421e-06
-1.5748e-05
1.02556e-05
-1.61413e-05
1.15956e-05
-1.6214e-05
1.28538e-05
-1.60913e-05
1.40609e-05
-1.5857e-05
1.52378e-05
-1.55694e-05
1.63989e-05
-1.52662e-05
1.7554e-05
-1.49698e-05
1.87091e-05
-1.46914e-05
1.98674e-05
-1.44346e-05
2.10299e-05
-1.41977e-05
2.21958e-05
-1.39759e-05
2.33633e-05
-1.37626e-05
2.45299e-05
-1.35497e-05
2.56923e-05
-1.33281e-05
2.68468e-05
-1.30877e-05
2.79892e-05
-1.28175e-05
2.91146e-05
-1.25057e-05
3.02178e-05
-1.21396e-05
3.12931e-05
-1.17059e-05
3.23349e-05
-1.11903e-05
3.33372e-05
-1.05765e-05
3.4294e-05
-9.84608e-06
3.51986e-05
-8.97837e-06
3.60445e-05
-7.95098e-06
3.68257e-05
-6.74016e-06
3.75365e-05
-5.32052e-06
3.81717e-05
-3.66492e-06
3.87259e-05
-1.74633e-06
3.91951e-05
4.5779e-07
3.95784e-05
2.96006e-06
3.98813e-05
5.76083e-06
4.01173e-05
8.84927e-06
4.03065e-05
1.2207e-05
4.04728e-05
1.58107e-05
4.06383e-05
1.96309e-05
4.0814e-05
2.36327e-05
4.099e-05
2.77699e-05
4.11273e-05
3.19924e-05
4.11533e-05
3.6302e-05
4.0968e-05
2.74241e-06
-9.23799e-06
5.4681e-06
-1.51889e-05
7.59104e-06
-1.68984e-05
9.29333e-06
-1.74504e-05
1.07646e-05
-1.76127e-05
1.21036e-05
-1.7553e-05
1.33571e-05
-1.73449e-05
1.45544e-05
-1.70543e-05
1.57169e-05
-1.6732e-05
1.68606e-05
-1.641e-05
1.79969e-05
-1.61061e-05
1.91329e-05
-1.58275e-05
2.02727e-05
-1.55744e-05
2.14176e-05
-1.53427e-05
2.25673e-05
-1.51256e-05
2.372e-05
-1.49153e-05
2.4873e-05
-1.47028e-05
2.60233e-05
-1.44784e-05
2.71669e-05
-1.42314e-05
2.82997e-05
-1.39504e-05
2.9417e-05
-1.3623e-05
3.05135e-05
-1.32362e-05
3.1584e-05
-1.27765e-05
3.26235e-05
-1.22297e-05
3.36269e-05
-1.15799e-05
3.45894e-05
-1.08086e-05
3.55058e-05
-9.89479e-06
3.63713e-05
-8.8165e-06
3.71821e-05
-7.55094e-06
3.79354e-05
-6.07388e-06
3.8629e-05
-4.35845e-06
3.92595e-05
-2.37683e-06
3.98237e-05
-1.06411e-07
4.03215e-05
2.46227e-06
4.07598e-05
5.32246e-06
4.11559e-05
8.45323e-06
4.1537e-05
1.18259e-05
4.19387e-05
1.54089e-05
4.24025e-05
1.91672e-05
4.29688e-05
2.30664e-05
4.36779e-05
2.70608e-05
4.45809e-05
3.10893e-05
4.57891e-05
3.50938e-05
3.90807e-05
3.01474e-06
-1.22527e-05
5.93953e-06
-1.81147e-05
8.07067e-06
-1.90316e-05
9.7333e-06
-1.91145e-05
1.11852e-05
-1.90656e-05
1.25216e-05
-1.88902e-05
1.37749e-05
-1.85989e-05
1.49683e-05
-1.82483e-05
1.61228e-05
-1.7887e-05
1.72552e-05
-1.7543e-05
1.83782e-05
-1.72297e-05
1.94999e-05
-1.69497e-05
2.0625e-05
-1.67e-05
2.17555e-05
-1.64737e-05
2.28909e-05
-1.62617e-05
2.40296e-05
-1.60546e-05
2.51691e-05
-1.58429e-05
2.63062e-05
-1.56161e-05
2.74371e-05
-1.53629e-05
2.85576e-05
-1.50714e-05
2.96631e-05
-1.4729e-05
3.07485e-05
-1.4322e-05
3.18089e-05
-1.38372e-05
3.28397e-05
-1.32609e-05
3.38373e-05
-1.25778e-05
3.4798e-05
-1.17695e-05
3.57184e-05
-1.08153e-05
3.65953e-05
-9.6935e-06
3.74275e-05
-8.38311e-06
3.82156e-05
-6.86199e-06
3.89609e-05
-5.10376e-06
3.96628e-05
-3.07871e-06
4.03184e-05
-7.62094e-07
4.09273e-05
1.85337e-06
4.14964e-05
4.75338e-06
4.20448e-05
7.9048e-06
4.2605e-05
1.12657e-05
4.3221e-05
1.4793e-05
4.39497e-05
1.84385e-05
4.48505e-05
2.21656e-05
4.59881e-05
2.59233e-05
4.74432e-05
2.96342e-05
4.93449e-05
3.31921e-05
3.64765e-05
3.44328e-06
-1.5696e-05
6.53687e-06
-2.12079e-05
8.5233e-06
-2.10183e-05
1.00633e-05
-2.06782e-05
1.1476e-05
-2.04879e-05
1.28118e-05
-2.02313e-05
1.40707e-05
-1.98621e-05
1.52671e-05
-1.94487e-05
1.64216e-05
-1.90454e-05
1.75511e-05
-1.86766e-05
1.86688e-05
-1.83518e-05
1.97833e-05
-1.80692e-05
2.09e-05
-1.78224e-05
2.2021e-05
-1.76017e-05
2.31461e-05
-1.73946e-05
2.42738e-05
-1.71901e-05
2.54015e-05
-1.69794e-05
2.65261e-05
-1.6751e-05
2.76438e-05
-1.64919e-05
2.87505e-05
-1.61894e-05
2.98418e-05
-1.58307e-05
3.09124e-05
-1.54015e-05
3.19578e-05
-1.48888e-05
3.2974e-05
-1.42819e-05
3.39585e-05
-1.35652e-05
3.49087e-05
-1.27219e-05
3.58234e-05
-1.17308e-05
3.67019e-05
-1.05719e-05
3.75454e-05
-9.22654e-06
3.83584e-05
-7.67499e-06
3.91466e-05
-5.89188e-06
3.99127e-05
-3.84485e-06
4.06552e-05
-1.50457e-06
4.13727e-05
1.13584e-06
4.20695e-05
4.05653e-06
4.2765e-05
7.20935e-06
4.34927e-05
1.0538e-05
4.42997e-05
1.3986e-05
4.52543e-05
1.74838e-05
4.6425e-05
2.0995e-05
4.78822e-05
2.44661e-05
4.97036e-05
2.78128e-05
5.19848e-05
3.09109e-05
3.35961e-05
4.55834e-06
-1.99417e-05
7.17316e-06
-2.07582e-05
8.68968e-06
-2.00251e-05
1.00711e-05
-2.1286e-05
1.14543e-05
-2.18734e-05
1.27983e-05
-2.15777e-05
1.40608e-05
-2.11263e-05
1.52558e-05
-2.0645e-05
1.64092e-05
-2.02005e-05
1.75304e-05
-1.98e-05
1.86405e-05
-1.94651e-05
1.97525e-05
-1.91849e-05
2.08787e-05
-1.89515e-05
2.2018e-05
-1.8744e-05
2.31312e-05
-1.85268e-05
2.42361e-05
-1.82838e-05
2.53366e-05
-1.79915e-05
2.64315e-05
-1.76354e-05
2.75254e-05
-1.72855e-05
2.86123e-05
-1.69443e-05
2.96942e-05
-1.66119e-05
3.07616e-05
-1.6252e-05
3.17424e-05
-1.58296e-05
3.26996e-05
-1.52431e-05
3.36663e-05
-1.45355e-05
3.46301e-05
-1.36884e-05
3.55787e-05
-1.2681e-05
3.65056e-05
-1.14992e-05
3.74086e-05
-1.01296e-05
3.82891e-05
-8.5556e-06
3.91467e-05
-6.74953e-06
3.99832e-05
-4.68145e-06
4.08079e-05
-2.32962e-06
4.16329e-05
3.10316e-07
4.24586e-05
3.23088e-06
4.33025e-05
6.36601e-06
4.41933e-05
9.64727e-06
4.51728e-05
1.30064e-05
4.63196e-05
1.6337e-05
4.77022e-05
1.96123e-05
4.93885e-05
2.27798e-05
5.14434e-05
2.57579e-05
5.39295e-05
2.84247e-05
3.06141e-05
4.17691e-06
2.64217e-16
3.51112e-06
6.98211e-17
4.5041e-06
1.83165e-17
6.55982e-06
-3.89123e-06
8.44469e-06
-6.88069e-06
9.80357e-06
-8.38477e-06
1.08033e-05
-8.84753e-06
1.16748e-05
-8.73492e-06
1.23723e-05
-8.36e-06
1.28707e-05
-7.78439e-06
1.32713e-05
-7.16206e-06
1.35858e-05
-6.541e-06
1.38557e-05
-5.96723e-06
1.41009e-05
-5.46046e-06
1.43311e-05
-5.00606e-06
1.45916e-05
-4.61825e-06
1.49079e-05
-4.29804e-06
1.53026e-05
-3.54678e-06
1.58383e-05
-2.67063e-06
1.65046e-05
-2.42352e-06
1.73793e-05
-2.89884e-06
1.84282e-05
-3.70631e-06
1.9658e-05
-3.85568e-06
2.11968e-05
-4.00549e-06
2.30657e-05
-4.23452e-06
2.5238e-05
-4.53491e-06
2.76503e-05
-4.87211e-06
3.02528e-05
-5.19977e-06
3.29951e-05
-5.49006e-06
3.57411e-05
-5.73432e-06
3.80948e-05
-5.79892e-06
3.96672e-05
-5.17219e-06
4.07169e-05
-3.32033e-06
4.16628e-05
-6.50144e-07
4.26521e-05
2.24103e-06
4.36602e-05
5.35782e-06
4.47237e-05
8.5838e-06
4.58662e-05
1.18639e-05
4.71829e-05
1.50203e-05
4.87328e-05
1.80625e-05
5.05777e-05
2.09348e-05
5.27694e-05
2.35663e-05
5.53428e-05
2.58513e-05
2.76499e-05
-1.19867e-16
4.25481e-15
-2.56657e-17
1.13799e-15
-6.71668e-18
3.27302e-16
8.18508e-08
9.33967e-17
6.27775e-07
1.16412e-11
1.00033e-06
2.56351e-11
1.15984e-06
9.57974e-12
1.24796e-06
2.15266e-12
1.21545e-06
3.82184e-13
1.09186e-06
6.07698e-14
9.46339e-07
1.23977e-14
7.83716e-07
1.49751e-12
6.24368e-07
6.20845e-12
4.75204e-07
1.433e-11
3.34927e-07
2.18899e-11
2.14896e-07
2.76415e-11
2.59318e-07
3.52271e-11
1.99196e-07
7.95163e-11
1.64507e-07
1.19801e-10
1.46211e-07
1.3292e-10
1.06679e-07
1.29332e-10
1.64585e-07
1.35055e-10
3.62348e-07
8.34142e-11
6.6227e-07
5.90908e-11
1.1356e-06
4.02366e-11
1.85625e-06
2.57553e-11
2.9126e-06
1.53635e-11
4.47447e-06
8.38305e-12
6.95923e-06
4.10486e-12
1.12058e-05
1.7947e-12
1.79613e-05
6.19723e-13
2.62618e-05
-2.33134e-07
3.32714e-05
-1.17675e-06
3.8566e-05
-7.23952e-07
4.18753e-05
7.809e-07
4.37212e-05
3.51112e-06
4.51308e-05
7.1735e-06
4.64582e-05
1.05365e-05
4.79395e-05
1.3539e-05
4.96209e-05
1.63813e-05
5.1568e-05
1.89878e-05
5.38236e-05
2.13106e-05
5.64055e-05
2.32695e-05
2.47667e-05
-4.38805e-16
3.84017e-15
-3.31556e-16
1.32669e-15
-1.17847e-16
3.25204e-16
-3.5205e-17
9.08855e-17
-5.30583e-12
2.36516e-17
-1.32826e-11
9.19483e-18
-5.5982e-12
1.07814e-16
-1.40736e-12
2.78618e-16
-2.76929e-13
5.56191e-16
-4.83632e-14
2.36033e-15
-1.07425e-14
9.20607e-15
-1.40228e-12
3.65444e-12
-6.24386e-12
1.47671e-11
-1.54032e-11
3.06957e-11
-2.50607e-11
4.53685e-11
-3.36275e-11
5.43048e-11
-4.54797e-11
6.35062e-11
-1.0876e-10
9.6399e-11
-1.73613e-10
1.29999e-10
-2.02791e-10
1.40157e-10
-1.99326e-10
1.2725e-10
-1.85571e-10
1.04021e-10
-1.51763e-10
8.10215e-11
-1.14532e-10
6.24355e-11
-8.36682e-11
4.70249e-11
-5.79942e-11
3.35138e-11
-3.79184e-11
2.22551e-11
-2.30453e-11
1.37684e-11
-1.28456e-11
8.02136e-12
-6.59136e-12
4.47998e-12
-2.80048e-12
2.45246e-12
3.82931e-08
1.36356e-12
2.41758e-06
7.18924e-13
8.25711e-06
2.93645e-13
1.99376e-05
4.47804e-15
3.50029e-05
3.15915e-07
4.35898e-05
3.33912e-06
4.67214e-05
7.40662e-06
4.87413e-05
1.15167e-05
5.05548e-05
1.45678e-05
5.25478e-05
1.69947e-05
5.47999e-05
1.90591e-05
5.73288e-05
2.07406e-05
2.20022e-05
3.09211e-16
2.43471e-16
-2.40306e-17
1.95845e-16
-5.80119e-17
5.67811e-17
-2.32138e-17
2.70232e-17
-8.3452e-18
1.27497e-17
-4.13414e-18
8.87145e-18
-5.83234e-17
1.52787e-16
-1.75394e-16
3.88198e-16
-3.98551e-16
8.76282e-16
-1.89291e-15
3.24196e-15
-8.15004e-15
1.24014e-14
-3.53178e-12
4.12925e-12
-1.54401e-11
1.54331e-11
-3.44761e-11
3.10959e-11
-5.4419e-11
4.51755e-11
-6.92538e-11
5.30352e-11
-8.58263e-11
5.34309e-11
-1.37849e-10
4.79453e-11
-1.96819e-10
3.93398e-11
-2.25166e-10
3.06875e-11
-2.17653e-10
2.38529e-11
-1.89875e-10
1.89947e-11
-1.58244e-10
1.53953e-11
-1.3092e-10
1.24096e-11
-1.06366e-10
9.77759e-12
-8.23093e-11
7.50498e-12
-5.98708e-11
5.6558e-12
-4.10368e-11
4.23246e-12
-2.6885e-11
3.16297e-12
-1.72164e-11
2.35454e-12
-1.10515e-11
1.7448e-12
-7.44616e-12
1.30232e-12
-5.40903e-12
1.01043e-12
-4.07122e-12
9.49572e-13
-7.71077e-13
5.1065e-13
6.68313e-07
9.59181e-10
5.19638e-06
2.13232e-08
2.30494e-05
2.2197e-07
4.62844e-05
3.61032e-06
5.09816e-05
9.87679e-06
5.37034e-05
1.42679e-05
5.59557e-05
1.68067e-05
5.83668e-05
1.83293e-05
1.94076e-05
2.82633e-17
1.53142e-16
6.46338e-19
1.50928e-16
-6.85184e-18
3.98114e-17
-5.75093e-18
1.83802e-17
-3.90931e-18
9.76752e-18
-3.60397e-18
8.78289e-18
-7.72405e-17
1.49952e-16
-2.34007e-16
3.71307e-16
-6.11763e-16
8.4016e-16
-2.5654e-15
2.8909e-15
-1.0937e-14
1.07815e-14
-4.00441e-12
2.46576e-12
-1.62816e-11
8.8543e-12
-3.53863e-11
1.7445e-11
-5.5079e-11
2.49414e-11
-6.89253e-11
2.89602e-11
-7.37598e-11
2.90105e-11
-7.0191e-11
2.60538e-11
-6.11009e-11
2.15802e-11
-5.06652e-11
1.68941e-11
-4.19838e-11
1.28038e-11
-3.57403e-11
9.62949e-12
-3.10613e-11
7.35388e-12
-2.69503e-11
5.796e-12
-2.29748e-11
4.735e-12
-1.92144e-11
3.97652e-12
-1.59274e-11
3.37771e-12
-1.32856e-11
2.8491e-12
-1.12885e-11
2.34953e-12
-9.877e-12
1.88433e-12
-9.11774e-12
1.49409e-12
-9.28603e-12
1.236e-12
-1.0638e-11
1.13631e-12
-1.27451e-11
1.08829e-12
-1.43836e-11
5.42123e-13
9.29805e-10
1.50229e-11
2.2019e-08
2.00296e-10
2.42484e-07
2.36205e-09
5.04944e-06
4.35232e-08
2.42407e-05
3.2246e-07
5.13772e-05
4.27839e-06
5.66946e-05
1.14985e-05
5.97046e-05
1.53189e-05
1.69517e-05
8.05044e-18
7.7496e-17
-2.54059e-18
7.22136e-17
-4.48309e-18
1.96815e-17
-3.67366e-18
9.05857e-18
-2.82502e-18
5.76105e-18
-3.37651e-18
7.3534e-18
-7.23366e-17
1.04936e-16
-2.15642e-16
2.5419e-16
-5.69946e-16
5.49185e-16
-2.23872e-15
1.73639e-15
-9.36001e-15
6.05803e-15
-2.36532e-12
6.58594e-13
-9.27691e-12
2.28627e-12
-1.97806e-11
4.42619e-12
-3.0387e-11
6.28494e-12
-3.7708e-11
7.31753e-12
-4.02238e-11
7.43442e-12
-3.83967e-11
6.88125e-12
-3.38009e-11
6.01509e-12
-2.81591e-11
5.13578e-12
-2.27615e-11
4.41653e-12
-1.8307e-11
3.90989e-12
-1.50019e-11
3.58761e-12
-1.27437e-11
3.38419e-12
-1.12882e-11
3.22895e-12
-1.03627e-11
3.06397e-12
-9.73005e-12
2.85141e-12
-9.21914e-12
2.57457e-12
-8.7509e-12
2.23782e-12
-8.39662e-12
1.87056e-12
-8.48052e-12
1.52863e-12
-9.64558e-12
1.28414e-12
-1.27356e-11
1.17467e-12
-1.83536e-11
1.08085e-12
-2.61796e-11
5.13851e-13
-2.06333e-11
-4.78954e-13
1.75833e-10
4.87629e-12
2.46977e-09
6.23873e-11
4.55253e-08
8.38859e-10
3.65222e-07
5.66734e-09
6.63399e-06
7.14704e-08
3.10193e-05
5.05328e-07
5.77603e-05
5.78415e-06
6.30312e-05
1.16896e-05
1.44861e-05
1.28361e-18
2.84223e-17
-2.92528e-18
2.0276e-17
-2.33824e-18
6.21971e-18
-1.80233e-18
3.14222e-18
-1.63068e-18
2.99596e-18
-2.74028e-18
5.9398e-18
-4.89283e-17
5.2852e-17
-1.42849e-16
1.25088e-16
-3.61514e-16
2.49268e-16
-1.30913e-15
6.79602e-16
-5.13753e-15
2.13477e-15
-6.19104e-13
6.48732e-15
-2.35424e-12
1.78017e-14
-4.94562e-12
4.2811e-14
-7.56382e-12
9.0672e-14
-9.43292e-12
1.72145e-13
-1.02263e-11
2.97945e-13
-1.00786e-11
4.75616e-13
-9.37525e-12
7.05791e-13
-8.52458e-12
9.79738e-13
-7.82067e-12
1.27944e-12
-7.40557e-12
1.58011e-12
-7.29424e-12
1.85409e-12
-7.42192e-12
2.07497e-12
-7.68884e-12
2.22123e-12
-7.99261e-12
2.27859e-12
-8.24856e-12
2.24132e-12
-8.40251e-12
2.11266e-12
-8.44856e-12
1.90565e-12
-8.47513e-12
1.64584e-12
-8.76013e-12
1.37439e-12
-9.89255e-12
1.14448e-12
-1.28479e-11
9.91057e-13
-1.8901e-11
8.58625e-13
-2.92579e-11
5.08962e-13
-4.39004e-11
-5.39636e-13
-4.33418e-11
-1.81351e-12
2.03456e-11
6.33618e-13
8.26272e-10
4.88376e-11
6.378e-09
8.2612e-11
7.75594e-08
1.645e-09
5.82585e-07
1.01454e-08
8.85974e-06
1.04976e-07
3.36814e-05
4.45773e-07
4.77947e-06
-5.29988e-20
5.79106e-18
-1.20073e-18
2.59458e-18
-8.04615e-19
1.0969e-18
-6.4004e-19
9.25152e-19
-8.46038e-19
1.80432e-18
-2.17509e-18
4.95668e-18
-2.4013e-17
2.19051e-17
-6.82365e-17
4.82818e-17
-1.59103e-16
8.5249e-17
-4.97053e-16
1.7154e-16
-1.75862e-15
4.17907e-16
-5.93458e-15
1.26392e-15
-1.78741e-14
4.29889e-15
-4.6737e-14
1.3358e-14
-1.06827e-13
3.51693e-14
-2.17647e-13
7.88587e-14
-4.02643e-13
1.54055e-13
-6.85358e-13
2.68037e-13
-1.08341e-12
4.22901e-13
-1.60259e-12
6.13826e-13
-2.2333e-12
8.2904e-13
-2.95054e-12
1.05146e-12
-3.71701e-12
1.26139e-12
-4.48841e-12
1.43946e-12
-5.21946e-12
1.56927e-12
-5.86948e-12
1.63916e-12
-6.40716e-12
1.64324e-12
-6.81528e-12
1.58166e-12
-7.09895e-12
1.46084e-12
-7.30765e-12
1.29385e-12
-7.58437e-12
1.10089e-12
-8.24893e-12
9.07837e-13
-9.90804e-12
7.35193e-13
-1.35595e-11
5.76116e-13
-2.06035e-11
3.7642e-13
-3.26232e-11
3.69763e-14
-4.91923e-11
-1.51634e-12
-4.40475e-11
-2.835e-12
4.56189e-12
2.85291e-13
9.89382e-11
8.13156e-12
1.92619e-09
4.04147e-11
1.18963e-08
1.85225e-10
1.15008e-07
3.05647e-09
5.6295e-07
9.64816e-09
9.48534e-08
-9.04166e-20
2.3374e-19
-1.93367e-19
2.18439e-19
-1.5393e-19
2.01297e-19
-1.94161e-19
4.38934e-19
-5.11402e-19
1.37531e-18
-1.79215e-18
4.23807e-18
-9.72505e-18
1.10133e-17
-2.55771e-17
2.13065e-17
-5.26657e-17
3.4248e-17
-1.21268e-16
5.06243e-17
-3.32736e-16
7.39092e-17
-1.11832e-15
2.17069e-16
-4.17998e-15
1.19217e-15
-1.41431e-14
5.11466e-15
-4.02488e-14
1.60982e-14
-9.6998e-14
4.00509e-14
-2.02831e-13
8.34707e-14
-3.76751e-13
1.51569e-13
-6.33797e-13
2.464e-13
-9.8084e-13
3.65672e-13
-1.41404e-12
5.02627e-13
-1.91863e-12
6.46967e-13
-2.47093e-12
7.86479e-13
-3.04188e-12
9.08884e-13
-3.60111e-12
1.0035e-12
-4.12067e-12
1.06242e-12
-4.57809e-12
1.08117e-12
-4.9588e-12
1.0589e-12
-5.25888e-12
9.98247e-13
-5.49068e-12
9.05134e-13
-5.6953e-12
7.8821e-13
-5.96681e-12
6.57772e-13
-6.49511e-12
5.22491e-13
-7.6289e-12
3.85483e-13
-9.94343e-12
2.44965e-13
-1.4279e-11
9.76669e-14
-2.24098e-11
-2.96889e-13
-3.22694e-11
-1.50778e-12
-2.83824e-11
-2.21976e-12
-5.41697e-12
-5.66689e-13
3.17258e-11
3.43655e-12
2.25237e-10
5.9161e-12
3.0916e-09
5.02935e-11
1.26871e-08
1.64978e-10
2.49859e-09
-6.85085e-21
6.53043e-20
-1.90033e-20
6.8727e-20
-3.0071e-20
9.48322e-20
-9.42273e-20
3.18985e-19
-3.89756e-19
1.14064e-18
-1.50932e-18
3.61801e-18
-4.76718e-18
8.2398e-18
-1.09306e-17
1.50508e-17
-2.04044e-17
2.43772e-17
-3.44346e-17
3.76561e-17
-5.65682e-17
5.82292e-17
-1.84635e-16
1.44093e-16
-1.11511e-15
6.66197e-16
-5.21485e-15
2.75845e-15
-1.77638e-14
8.6805e-15
-4.75626e-14
2.17508e-14
-1.06236e-13
4.57089e-14
-2.06166e-13
8.36705e-14
-3.57649e-13
1.37052e-13
-5.6622e-13
2.04851e-13
-8.30962e-13
2.83524e-13
-1.14425e-12
3.67456e-13
-1.49285e-12
4.49852e-13
-1.86e-12
5.2378e-13
-2.22782e-12
5.83115e-13
-2.57956e-12
6.23235e-13
-2.90136e-12
6.41388e-13
-3.18338e-12
6.36773e-13
-3.4205e-12
6.10419e-13
-3.61282e-12
5.64928e-13
-3.76637e-12
5.0412e-13
-3.89457e-12
4.32489e-13
-4.0218e-12
3.54215e-13
-4.18916e-12
2.72245e-13
-4.45888e-12
1.88667e-13
-4.91518e-12
1.05231e-13
-5.85257e-12
2.05724e-14
-8.33947e-12
-2.08127e-13
-1.08589e-11
-6.0114e-13
-7.96789e-12
-6.52796e-13
-1.21064e-12
-1.26685e-13
4.06361e-12
4.05493e-13
5.33099e-11
1.91572e-12
2.43002e-10
3.46448e-12
4.16648e-11
-2.7377e-21
3.20344e-21
-6.62996e-21
1.74371e-20
-1.47258e-20
5.62538e-20
-6.90498e-20
2.53963e-19
-3.20042e-19
9.55795e-19
-1.25987e-18
3.05049e-18
-3.4566e-18
6.88279e-18
-7.43675e-18
1.24803e-17
-1.39303e-17
2.03176e-17
-2.45054e-17
3.20675e-17
-4.25843e-17
5.11952e-17
-1.1707e-16
1.08476e-16
-5.95405e-16
3.92678e-16
-2.68939e-15
1.48498e-15
-9.16884e-15
4.55432e-15
-2.47531e-14
1.13313e-14
-5.58109e-14
2.37813e-14
-1.09291e-13
4.35609e-14
-1.91182e-13
7.14539e-14
-3.05004e-13
1.06994e-13
-4.50817e-13
1.48394e-13
-6.2501e-13
1.92792e-13
-8.20842e-13
2.36713e-13
-1.02954e-12
2.76607e-13
-1.24163e-12
3.09339e-13
-1.44813e-12
3.32542e-13
-1.64152e-12
3.44795e-13
-1.81627e-12
3.45653e-13
-1.96904e-12
3.35547e-13
-2.09859e-12
3.15623e-13
-2.20564e-12
2.87529e-13
-2.29294e-12
2.53159e-13
-2.36593e-12
2.14338e-13
-2.43409e-12
1.72593e-13
-2.51229e-12
1.29265e-13
-2.62222e-12
8.56268e-14
-2.79596e-12
4.23481e-14
-3.23568e-12
-2.18483e-15
-4.0506e-12
-1.22707e-13
-4.47988e-12
-2.53369e-13
-3.07121e-12
-2.42577e-13
-7.66591e-13
-7.37326e-14
1.05929e-12
1.14827e-13
4.46901e-12
4.2758e-13
9.03124e-13
-1.68816e-22
-6.20898e-21
-1.79038e-21
5.91994e-21
-8.85998e-21
4.21612e-20
-5.44874e-20
2.08969e-19
-2.62092e-19
7.94646e-19
-1.02807e-18
2.52315e-18
-2.77469e-18
5.60261e-18
-5.89563e-18
1.00722e-17
-1.10603e-17
1.6554e-17
-1.98337e-17
2.6896e-17
-3.55383e-17
4.46018e-17
-8.36175e-17
8.67476e-17
-3.33025e-16
2.4752e-16
-1.37468e-15
8.13145e-16
-4.57153e-15
2.35655e-15
-1.22669e-14
5.72105e-15
-2.76499e-14
1.1856e-14
-5.42311e-14
2.15498e-14
-9.50716e-14
3.51597e-14
-1.52023e-13
5.24378e-14
-2.25222e-13
7.25106e-14
-3.12976e-13
9.40061e-14
-4.1204e-13
1.15281e-13
-5.18156e-13
1.3468e-13
-6.26717e-13
1.50759e-13
-7.3337e-13
1.62444e-13
-8.3448e-13
1.69107e-13
-9.27391e-13
1.70568e-13
-1.01048e-12
1.67034e-13
-1.08311e-12
1.59018e-13
-1.14541e-12
1.47232e-13
-1.19824e-12
1.32479e-13
-1.24306e-12
1.15538e-13
-1.28211e-12
9.7093e-14
-1.31843e-12
7.77291e-14
-1.35601e-12
5.79369e-14
-1.40037e-12
3.80002e-14
-1.46252e-12
1.79229e-14
-1.63754e-12
-5.32582e-15
-1.89952e-12
-5.55293e-14
-1.97088e-12
-1.01758e-13
-1.40277e-12
-9.77822e-14
-3.83879e-13
-3.20545e-14
4.11111e-14
2.42925e-15
9.94195e-14
3.77538e-22
-1.20306e-21
-6.24643e-22
4.61977e-21
-6.57891e-21
3.42914e-20
-4.36532e-20
1.70864e-19
-2.09962e-19
6.4734e-19
-8.13489e-19