/*--------------------------------*- C++ -*----------------------------------*\
| =========                 |                                                 |
| \\      /  F ield         | OpenFOAM: The Open Source CFD Toolbox           |
|  \\    /   O peration     | Version:  5.0                                   |
|   \\  /    A nd           | Web:      www.OpenFOAM.org                      |
|    \\/     M anipulation  |                                                 |
\*---------------------------------------------------------------------------*/
FoamFile
{
    version     2.0;
    format      ascii;
    class       volScalarField;
    location    "0.45";
    object      epsilon;
}
// * * * * * * * * * * * * * * * * * * * * * * * * * * * * * * * * * * * * * //

dimensions      [0 2 -3 0 0 0 0];

internalField   nonuniform List<scalar> 
1935
(
0.0278047
0.0704293
0.124926
0.189985
0.254913
0.318447
0.383391
0.446758
0.510387
0.574782
0.640319
0.70721
0.775492
0.845038
0.915577
0.986724
1.058
1.12887
1.19872
1.26691
1.33277
1.39561
1.4547
1.50931
1.55868
1.60203
1.63857
1.66741
1.68757
1.69773
1.69601
1.68927
1.67401
1.64788
1.60947
1.55802
1.49353
1.41694
1.33014
1.23467
1.12558
0.99576
0.879274
0.756738
0.0442112
0.0521146
0.0748355
0.10076
0.127065
0.151193
0.174335
0.19693
0.219526
0.242487
0.266052
0.290357
0.315444
0.341279
0.367768
0.39477
0.422108
0.449579
0.476965
0.504036
0.530557
0.556289
0.580998
0.604453
0.626435
0.64674
0.665186
0.681622
0.695943
0.708111
0.718397
0.730271
0.742955
0.756746
0.772212
0.790159
0.811526
0.837107
0.866849
0.897667
0.917412
0.900969
0.819878
0.678201
0.0550448
0.0535369
0.0717792
0.0912186
0.109693
0.126769
0.142838
0.158304
0.173563
0.188924
0.204605
0.220742
0.237394
0.254564
0.272206
0.290239
0.308556
0.327032
0.345528
0.363901
0.382001
0.399684
0.416808
0.433241
0.448867
0.463592
0.477357
0.490147
0.502021
0.51315
0.523987
0.535886
0.549482
0.565607
0.58537
0.610182
0.641721
0.681718
0.731227
0.78838
0.842591
0.868924
0.843322
0.782971
0.0632152
0.0608551
0.0762517
0.0920988
0.10716
0.121257
0.13457
0.147375
0.159952
0.172542
0.185323
0.19841
0.211862
0.22569
0.239868
0.254338
0.269025
0.283834
0.298664
0.313406
0.32795
0.34219
0.356024
0.369364
0.382138
0.394302
0.405847
0.416821
0.427348
0.437673
0.448258
0.459982
0.473664
0.490262
0.510972
0.537246
0.570742
0.613116
0.665388
0.726227
0.788163
0.8346
0.853926
0.874368
0.0760794
0.071293
0.0837924
0.0968164
0.10943
0.121529
0.13318
0.144528
0.155743
0.166984
0.178374
0.189997
0.201897
0.21408
0.226525
0.239187
0.252002
0.264897
0.277787
0.290586
0.303207
0.315567
0.327588
0.33921
0.350386
0.361104
0.371387
0.381317
0.391055
0.400878
0.411242
0.422871
0.436593
0.453368
0.47436
0.50093
0.53457
0.576695
0.628142
0.688048
0.751985
0.811892
0.868108
0.957506
0.0913568
0.0831319
0.092806
0.103299
0.113839
0.124322
0.134722
0.145071
0.155438
0.165901
0.176528
0.187365
0.198431
0.209722
0.221213
0.232862
0.244613
0.256402
0.268158
0.279809
0.291282
0.302511
0.313438
0.324018
0.334228
0.344074
0.353604
0.362922
0.372212
0.381766
0.392027
0.403648
0.417431
0.4343
0.455352
0.481842
0.515112
0.556417
0.606576
0.66538
0.731104
0.802379
0.888952
1.03619
0.107654
0.0951891
0.102253
0.110515
0.119276
0.1284
0.13778
0.147358
0.15712
0.167077
0.177244
0.187628
0.198224
0.209013
0.219962
0.231025
0.242151
0.253281
0.264352
0.275301
0.286069
0.2966
0.306852
0.316794
0.326419
0.335749
0.344849
0.353838
0.362914
0.372374
0.382648
0.394338
0.408214
0.425149
0.446173
0.472448
0.505218
0.545689
0.594841
0.653259
0.721544
0.803328
0.915643
1.11352
0.124189
0.107224
0.111681
0.117977
0.125231
0.133215
0.141747
0.150697
0.159989
0.169581
0.179443
0.189551
0.199874
0.210377
0.221015
0.231742
0.242503
0.253242
0.263903
0.27443
0.284773
0.294886
0.304738
0.314312
0.323611
0.332672
0.341571
0.350438
0.359476
0.368982
0.379371
0.391203
0.405204
0.422203
0.44316
0.46917
0.501422
0.541157
0.589624
0.648237
0.719572
0.811079
0.945857
1.19053
0.142999
0.119409
0.121046
0.125553
0.131522
0.138553
0.146374
0.154798
0.163702
0.173005
0.182643
0.192565
0.202718
0.213052
0.223514
0.234048
0.244601
0.255118
0.265546
0.275836
0.285942
0.29583
0.305477
0.314875
0.324041
0.333018
0.341892
0.350799
0.359944
0.369617
0.380215
0.39226
0.406423
0.423494
0.444374
0.470094
0.501824
0.540875
0.588795
0.647756
0.721937
0.82175
0.975779
1.26587
0.16103
0.131453
0.130386
0.133289
0.138163
0.144396
0.151618
0.159589
0.168155
0.177205
0.186653
0.196425
0.206454
0.216675
0.227027
0.237449
0.247886
0.258284
0.268592
0.278765
0.288766
0.298566
0.30815
0.31752
0.3267
0.335742
0.344736
0.353821
0.363198
0.373149
0.384046
0.396375
0.41075
0.42792
0.448725
0.474144
0.505329
0.543662
0.590942
0.649925
0.72591
0.831272
0.998713
1.32688
0.177635
0.143205
0.13981
0.141347
0.145319
0.150897
0.157609
0.165176
0.173423
0.182225
0.191481
0.201102
0.21101
0.22113
0.231394
0.241737
0.252102
0.262436
0.272692
0.282829
0.292814
0.302625
0.312255
0.321714
0.331031
0.340264
0.349506
0.358895
0.368625
0.378964
0.39026
0.402958
0.417612
0.434926
0.455676
0.48079
0.511387
0.548889
0.595249
0.653545
0.729555
0.836022
1.0048
1.32682
0.191846
0.154616
0.149485
0.149969
0.153269
0.158336
0.164607
0.171788
0.179705
0.188232
0.197262
0.206698
0.216453
0.226448
0.236609
0.24687
0.257174
0.267468
0.277707
0.287856
0.297888
0.307785
0.317549
0.327194
0.336757
0.346299
0.355912
0.365731
0.375941
0.38679
0.398599
0.411771
0.426798
0.444323
0.465066
0.489886
0.519854
0.556375
0.601437
0.658156
0.732113
0.834758
0.992241
1.27015
0.203355
0.16605
0.159676
0.159457
0.162348
0.167032
0.172892
0.179667
0.187209
0.195402
0.20414
0.213325
0.222867
0.232682
0.242697
0.252845
0.263068
0.273318
0.283552
0.29374
0.303859
0.313901
0.323869
0.333788
0.343698
0.353663
0.363772
0.374152
0.384976
0.396471
0.408926
0.4227
0.438232
0.456064
0.476884
0.501462
0.530793
0.566208
0.609624
0.663964
0.734145
0.829403
0.968597
1.19229
0.215599
0.179169
0.171166
0.170435
0.173077
0.177395
0.182793
0.189085
0.196166
0.203932
0.212282
0.221119
0.230356
0.23991
0.249709
0.259688
0.269792
0.279974
0.290198
0.300435
0.310672
0.320905
0.331147
0.341426
0.351789
0.3623
0.373044
0.384138
0.395735
0.408039
0.421302
0.43584
0.452031
0.470331
0.491368
0.515814
0.544556
0.5788
0.620312
0.671694
0.737008
0.823169
0.942671
1.11836
0.240627
0.197781
0.185637
0.184056
0.186172
0.189856
0.194603
0.200275
0.206774
0.213994
0.221837
0.230211
0.239034
0.24823
0.257732
0.267478
0.277416
0.287502
0.297702
0.307995
0.318374
0.328844
0.339426
0.350156
0.361085
0.372278
0.383815
0.395798
0.408358
0.421664
0.435934
0.451433
0.468491
0.487483
0.508947
0.533448
0.56173
0.594812
0.634263
0.682315
0.74219
0.818818
0.919978
1.05756
0.303382
0.228934
0.206362
0.202285
0.202674
0.205025
0.208769
0.213618
0.21938
0.225914
0.233117
0.240907
0.249208
0.257954
0.267085
0.276546
0.286288
0.296259
0.306423
0.316774
0.327312
0.338056
0.349032
0.360295
0.371905
0.383925
0.39643
0.409504
0.423247
0.437781
0.453273
0.469936
0.488066
0.508018
0.530159
0.554967
0.583009
0.615036
0.65236
0.696833
0.750985
0.818254
0.903265
1.01171
0.43044
0.282778
0.237141
0.227275
0.223582
0.223566
0.225858
0.229625
0.234455
0.240141
0.246566
0.253653
0.261339
0.269565
0.278283
0.287447
0.297011
0.306871
0.316986
0.327387
0.338092
0.349131
0.360518
0.372377
0.384786
0.397807
0.4115
0.425924
0.441132
0.457186
0.474178
0.492234
0.511595
0.532763
0.555831
0.581071
0.608977
0.640112
0.675304
0.716032
0.764315
0.822594
0.893589
0.979762
0.581485
0.324952
0.275173
0.25678
0.247713
0.244995
0.245644
0.248138
0.251839
0.25648
0.261929
0.268119
0.274991
0.282494
0.290581
0.299211
0.308336
0.317899
0.327889
0.338344
0.34931
0.360839
0.373008
0.385891
0.399549
0.41402
0.429349
0.445577
0.462717
0.48076
0.499749
0.519699
0.540367
0.563144
0.587535
0.613167
0.640831
0.67094
0.703366
0.740031
0.782426
0.832179
0.890969
0.959752
0.718136
0.360558
0.303487
0.278724
0.267838
0.264227
0.263844
0.265233
0.267847
0.271429
0.275857
0.281076
0.287047
0.29373
0.301081
0.30905
0.317588
0.326735
0.336528
0.346985
0.358166
0.370144
0.383077
0.397
0.411971
0.428037
0.445238
0.463627
0.483253
0.504129
0.526294
0.549963
0.574273
0.599936
0.627063
0.653441
0.681072
0.709787
0.737582
0.769293
0.805067
0.846537
0.894679
0.949582
0.747793
0.366711
0.31167
0.289673
0.281571
0.279297
0.27919
0.280209
0.282096
0.284769
0.288206
0.292408
0.297377
0.303104
0.309573
0.316771
0.324697
0.333361
0.342762
0.35292
0.363897
0.375765
0.388604
0.402507
0.417645
0.434196
0.452339
0.472276
0.494228
0.518332
0.544418
0.572029
0.601736
0.631747
0.663051
0.693662
0.725379
0.758051
0.78015
0.806334
0.833471
0.866092
0.90401
0.94736
0.701585
0.351703
0.311028
0.297949
0.293819
0.293188
0.293676
0.294632
0.296014
0.297909
0.300407
0.303581
0.307482
0.312137
0.31756
0.32376
0.330759
0.338582
0.347237
0.356745
0.367157
0.378543
0.39099
0.404619
0.419631
0.436269
0.454801
0.475521
0.498701
0.52446
0.5525
0.582212
0.613611
0.64695
0.681437
0.71584
0.750891
0.788238
0.82065
0.850834
0.869427
0.893294
0.920319
0.953193
0.989595
0.657404
0.342245
0.309785
0.302492
0.301314
0.302131
0.303393
0.304678
0.306027
0.307604
0.309574
0.312068
0.315188
0.318999
0.323546
0.328866
0.334991
0.341956
0.349789
0.358522
0.36821
0.378931
0.39079
0.403935
0.418573
0.434961
0.453388
0.474151
0.497486
0.523445
0.551736
0.581882
0.613929
0.648523
0.685132
0.722164
0.759473
0.796782
0.834255
0.869783
0.900729
0.927611
0.944978
0.969033
0.994732
0.629568
0.341425
0.310573
0.304956
0.304911
0.306435
0.308244
0.309951
0.311555
0.313197
0.315045
0.317253
0.319949
0.323229
0.327166
0.331817
0.337231
0.343454
0.350528
0.358502
0.36744
0.377431
0.388595
0.401091
0.415125
0.430946
0.448822
0.469017
0.491719
0.516955
0.54452
0.57416
0.606015
0.640603
0.677598
0.715835
0.755127
0.795086
0.834005
0.869847
0.906179
0.939615
0.96823
0.993676
1.01047
0.618007
0.34744
0.313217
0.306163
0.305552
0.306937
0.308908
0.310948
0.312923
0.314873
0.316913
0.319173
0.32178
0.324841
0.328446
0.332668
0.337572
0.343216
0.349656
0.356954
0.365188
0.374455
0.384884
0.396636
0.40991
0.424934
0.441952
0.461193
0.482821
0.506881
0.53329
0.561965
0.593066
0.626916
0.663313
0.70158
0.741637
0.783104
0.824144
0.86312
0.900813
0.935096
0.969485
1.00094
1.02753
0.614847
0.356688
0.31661
0.306233
0.303858
0.304419
0.306176
0.308383
0.310721
0.313095
0.315525
0.318085
0.320874
0.323989
0.327523
0.331557
0.336166
0.341418
0.347383
0.354135
0.36176
0.370367
0.380085
0.391074
0.403525
0.417648
0.433667
0.451789
0.472176
0.494917
0.520032
0.547546
0.577609
0.610407
0.645828
0.683499
0.723315
0.764917
0.806983
0.848252
0.888029
0.925122
0.960763
0.993823
1.02628
0.618395
0.367224
0.319796
0.305122
0.300329
0.299636
0.300893
0.303088
0.305709
0.308515
0.311418
0.314421
0.317575
0.320952
0.32463
0.32869
0.333209
0.338262
0.343928
0.350289
0.357441
0.365496
0.374588
0.384874
0.396536
0.409775
0.4248
0.441812
0.460985
0.482451
0.506303
0.532635
0.561582
0.593268
0.627637
0.664469
0.703598
0.744706
0.786774
0.828741
0.869673
0.908686
0.945845
0.980987
1.01505
0.629466
0.378023
0.322205
0.302856
0.295411
0.293272
0.293852
0.295881
0.298669
0.301842
0.305211
0.308704
0.312315
0.316081
0.320057
0.324312
0.328916
0.333948
0.339488
0.345626
0.352462
0.360112
0.368713
0.37842
0.38941
0.401879
0.41603
0.432068
0.45018
0.470536
0.493278
0.518543
0.546469
0.577153
0.610578
0.646595
0.684998
0.725423
0.767136
0.809079
0.850282
0.889934
0.927811
0.963898
0.998469
0.648515
0.388414
0.323574
0.299549
0.289487
0.285876
0.285696
0.287442
0.290275
0.293712
0.29748
0.301437
0.305523
0.309734
0.314097
0.31866
0.323485
0.328643
0.334215
0.340292
0.346976
0.354387
0.362663
0.371959
0.382452
0.394333
0.407809
0.423089
0.44038
0.459875
0.481756
0.50619
0.533324
0.563257
0.595995
0.631424
0.669321
0.709289
0.750658
0.792533
0.83386
0.873781
0.911854
0.947971
0.982244
0.674938
0.397868
0.323818
0.295361
0.282865
0.277851
0.276888
0.278269
0.281038
0.284627
0.288696
0.293045
0.297569
0.302223
0.307004
0.311938
0.317071
0.322466
0.328198
0.334355
0.341043
0.348381
0.356508
0.365582
0.375779
0.387295
0.400338
0.415127
0.431885
0.450828
0.472167
0.496093
0.522771
0.552314
0.584746
0.619975
0.657771
0.697725
0.739185
0.781284
0.823043
0.863493
0.901974
0.938158
0.971988
0.707175
0.405958
0.322946
0.290455
0.275774
0.269468
0.267735
0.268699
0.271312
0.274945
0.279208
0.283857
0.288747
0.2938
0.298986
0.304306
0.309791
0.31549
0.321472
0.327823
0.334644
0.342058
0.350203
0.35924
0.369348
0.380727
0.393593
0.408175
0.42471
0.443438
0.464591
0.488388
0.515014
0.544601
0.577193
0.612718
0.650949
0.691474
0.733651
0.77662
0.819384
0.860926
0.900399
0.937233
0.971135
0.743166
0.412391
0.321017
0.284974
0.268379
0.260909
0.258438
0.258954
0.26134
0.264923
0.269275
0.274122
0.279289
0.28467
0.290211
0.295893
0.301731
0.307762
0.314046
0.320663
0.327715
0.335321
0.343624
0.352786
0.362992
0.374448
0.387378
0.402024
0.41864
0.437486
0.458817
0.482878
0.509879
0.539974
0.573233
0.609601
0.648865
0.690615
0.734216
0.778807
0.82336
0.866781
0.908054
0.946346
0.981117
0.780805
0.417032
0.318133
0.279053
0.260814
0.252307
0.249141
0.249194
0.251298
0.254748
0.259093
0.264037
0.269383
0.275004
0.280827
0.286818
0.292975
0.299326
0.305923
0.31284
0.320177
0.328054
0.336615
0.346027
0.35648
0.368189
0.38139
0.396337
0.413302
0.432567
0.454412
0.479107
0.50689
0.537944
0.572363
0.610116
0.651007
0.694638
0.740374
0.787346
0.834489
0.880625
0.924578
0.965299
1.00196
0.818234
0.419895
0.31443
0.27282
0.253193
0.243775
0.239961
0.239547
0.241328
0.244578
0.248831
0.253774
0.259199
0.264964
0.270981
0.277203
0.283618
0.290244
0.297127
0.304338
0.311974
0.320156
0.329031
0.33877
0.349573
0.361663
0.375288
0.390719
0.408248
0.428177
0.450814
0.476456
0.505373
0.537775
0.573789
0.613409
0.656462
0.702559
0.751072
0.801116
0.851584
0.901208
0.948664
0.992688
1.03219
0.853974
0.421103
0.310067
0.266403
0.245626
0.235416
0.231006
0.230131
0.231561
0.234555
0.23864
0.243495
0.248902
0.25471
0.260823
0.267185
0.273776
0.280608
0.287721
0.295184
0.303093
0.311572
0.320771
0.330868
0.34207
0.354611
0.368755
0.38479
0.403026
0.423792
0.447422
0.474244
0.504557
0.538609
0.576554
0.618418
0.664051
0.713079
0.764877
0.818544
0.872927
0.926671
0.978307
1.02637
1.06952
0.886922
0.420833
0.305204
0.259919
0.238211
0.227326
0.222375
0.221053
0.222113
0.22481
0.228663
0.233351
0.23865
0.244405
0.250515
0.256918
0.26359
0.270539
0.277802
0.285449
0.293575
0.302306
0.311798
0.322236
0.333836
0.346845
0.361541
0.37823
0.397246
0.418941
0.443678
0.471815
0.503686
0.539572
0.579661
0.624009
0.67249
0.724748
0.780158
0.837804
0.896486
0.954763
1.01103
1.06365
1.11104
0.916316
0.419277
0.299987
0.253473
0.231034
0.219585
0.214152
0.212405
0.21309
0.215458
0.219031
0.223484
0.228595
0.234208
0.240218
0.246563
0.253217
0.260186
0.267507
0.275249
0.283511
0.292422
0.302142
0.312866
0.324819
0.338262
0.353487
0.370821
0.390616
0.413253
0.439122
0.468613
0.502093
0.539877
0.582186
0.629107
0.680537
0.736134
0.795274
0.857023
0.920137
0.983098
1.04418
1.10158
1.15351
0.941663
0.416614
0.294533
0.247142
0.224157
0.212252
0.2064
0.204259
0.204573
0.206595
0.209849
0.214015
0.218872
0.224264
0.230088
0.236283
0.242822
0.249712
0.256992
0.264732
0.273035
0.282033
0.291895
0.302821
0.315049
0.328851
0.344536
0.362448
0.382962
0.406483
0.433429
0.464222
0.499259
0.538888
0.583363
0.632796
0.687106
0.745962
0.808737
0.874478
0.941899
1.00941
1.07519
1.13729
1.19376
0.962678
0.412994
0.288929
0.240979
0.217619
0.205363
0.199157
0.196659
0.196616
0.198287
0.2012
0.205041
0.20959
0.214698
0.220263
0.226225
0.232561
0.239279
0.246422
0.254061
0.262304
0.27129
0.281192
0.292219
0.30462
0.318678
0.334718
0.353101
0.374224
0.398514
0.426416
0.45838
0.494835
0.536156
0.582625
0.634379
0.69135
0.753214
0.819338
0.888746
0.960113
1.03179
1.10187
1.1683
1.22901
0.979228
0.408537
0.283231
0.235008
0.211431
0.198924
0.192434
0.189622
0.189245
0.190571
0.193135
0.196626
0.200832
0.205607
0.210853
0.216515
0.222572
0.229036
0.235953
0.2434
0.251487
0.260358
0.270195
0.281214
0.293673
0.307867
0.324135
0.342854
0.36444
0.389341
0.418028
0.450975
0.488638
0.531419
0.579622
0.633401
0.692698
0.757188
0.826226
0.898811
0.973582
1.04884
1.12263
1.19281
1.25723
0.991293
0.403337
0.277468
0.229228
0.205579
0.19292
0.186213
0.183136
0.182458
0.183456
0.185672
0.188804
0.192646
0.197055
0.20194
0.20725
0.212967
0.21911
0.225726
0.232898
0.24074
0.249403
0.259073
0.269974
0.282374
0.296577
0.312935
0.331838
0.353721
0.37905
0.408316
0.442017
0.480634
0.524588
0.574202
0.629641
0.690851
0.7575
0.828925
0.904101
0.981632
1.05979
1.13657
1.20983
1.27735
0.998937
0.397465
0.271644
0.223621
0.200033
0.187314
0.180459
0.177169
0.176227
0.176921
0.178804
0.18158
0.185049
0.189075
0.193572
0.198494
0.203828
0.209596
0.215852
0.222682
0.230205
0.238575
0.247986
0.258668
0.270895
0.284982
0.301289
0.320221
0.342224
0.367782
0.397406
0.431612
0.4709
0.515711
0.566381
0.623082
0.685757
0.754064
0.82732
0.904474
0.984108
1.06447
1.14357
1.21925
1.28933
1.00229
0.390978
0.265754
0.218151
0.194746
0.182055
0.175119
0.171669
0.170504
0.170927
0.172498
0.174931
0.178031
0.18167
0.185767
0.19028
0.195203
0.200562
0.206414
0.212849
0.219993
0.228001
0.237073
0.247445
0.259397
0.27325
0.289373
0.308179
0.330128
0.355717
0.385472
0.419927
0.459599
0.504944
0.556309
0.61387
0.677569
0.747048
0.821607
0.900173
0.981318
1.0633
1.14415
1.22177
1.29408
1.00152
0.383922
0.259781
0.212779
0.189667
0.177083
0.170131
0.166573
0.16523
0.165417
0.166705
0.168815
0.171561
0.17482
0.178517
0.182616
0.187114
0.192042
0.197462
0.203468
0.210187
0.217778
0.226446
0.236432
0.248019
0.261533
0.277348
0.295886
0.317615
0.343044
0.372712
0.407169
0.446946
0.492515
0.544234
0.602283
0.666601
0.736823
0.812233
0.89175
0.973947
1.05712
1.13936
1.2187
1.2932
0.996885
0.376338
0.253703
0.207461
0.184739
0.172336
0.165429
0.161814
0.160337
0.160325
0.161362
0.163177
0.165591
0.168486
0.171794
0.175483
0.179556
0.184045
0.189019
0.194573
)
;

boundaryField
{
    leftWall
    {
        Cmu             0.09;
        kappa           0.41;
        E               9.8;
        type            epsilonWallFunction;
        value           nonuniform List<scalar> 
44
(
0.0278047
0.0442112
0.0550448
0.0632152
0.0760794
0.0913568
0.107654
0.124189
0.142999
0.16103
0.177635
0.191846
0.203355
0.215599
0.240627
0.303382
0.43044
0.581485
0.718136
0.747793
0.701585
0.657404
0.629568
0.618007
0.614847
0.618395
0.629466
0.648515
0.674938
0.707175
0.743166
0.780805
0.818234
0.853974
0.886922
0.916316
0.941663
0.962678
0.979228
0.991293
0.998937
1.00229
1.00152
0.996885
)
;
    }
    rightWall
    {
        Cmu             0.09;
        kappa           0.41;
        E               9.8;
        type            epsilonWallFunction;
        value           nonuniform 0();
    }
    lowerWall
    {
        Cmu             0.09;
        kappa           0.41;
        E               9.8;
        type            epsilonWallFunction;
        value           nonuniform List<scalar> 
44
(
0.0278047
0.0704293
0.124926
0.189985
0.254913
0.318447
0.383391
0.446758
0.510387
0.574782
0.640319
0.70721
0.775492
0.845038
0.915577
0.986724
1.058
1.12887
1.19872
1.26691
1.33277
1.39561
1.4547
1.50931
1.55868
1.60203
1.63857
1.66741
1.68757
1.69773
1.69601
1.68927
1.67401
1.64788
1.60947
1.55802
1.49353
1.41694
1.33014
1.23467
1.12558
0.99576
0.879274
0.756738
)
;
    }
    atmosphere
    {
        type            inletOutlet;
        inletValue      nonuniform 0();
        value           nonuniform 0();
    }
    defaultFaces
    {
        type            empty;
    }
    procBoundary0to1
    {
        type            processor;
        value           nonuniform List<scalar> 
44
(
0.662682
0.602762
0.775249
0.989487
1.19664
1.38953
1.58226
1.78281
2.00958
2.24287
2.11771
1.84535
1.58812
1.3888
1.24645
1.14827
1.08181
1.03792
1.01037
0.99499
0.99499
1.02808
1.02356
1.03182
1.0498
1.05493
1.04631
1.03087
1.01451
1.00344
1.002
1.0121
1.03397
1.06631
1.10662
1.1518
1.19835
1.24277
1.282
1.3138
1.33703
1.35172
1.35901
1.36093
)
;
    }
    procBoundary0to2
    {
        type            processor;
        value           nonuniform List<scalar> 
46
(
0.200835
0.207971
0.216187
0.225727
0.236873
0.249957
0.265357
0.283498
0.304856
0.32995
0.35933
0.39356
0.433188
0.478699
0.530466
0.588679
0.653279
0.723899
0.799818
0.879959
0.96292
1.04706
1.13059
1.21172
1.28871
0.988644
0.368271
0.2475
0.202154
0.179909
0.167754
0.160945
0.157323
0.155754
0.155583
0.156403
0.157953
0.160061
0.162616
0.165554
0.168847
0.172503
0.176559
0.181084
0.200835
0.186176
)
;
    }
}


// ************************************************************************* //
