/*--------------------------------*- C++ -*----------------------------------*\
| =========                 |                                                 |
| \\      /  F ield         | OpenFOAM: The Open Source CFD Toolbox           |
|  \\    /   O peration     | Version:  5.0                                   |
|   \\  /    A nd           | Web:      www.OpenFOAM.org                      |
|    \\/     M anipulation  |                                                 |
\*---------------------------------------------------------------------------*/
FoamFile
{
    version     2.0;
    format      ascii;
    class       volScalarField;
    location    "0.45";
    object      k;
}
// * * * * * * * * * * * * * * * * * * * * * * * * * * * * * * * * * * * * * //

dimensions      [0 2 -2 0 0 0 0];

internalField   nonuniform List<scalar> 
1935
(
0.00329534
0.00561588
0.00823086
0.0108916
0.0132567
0.0153792
0.0174087
0.0192784
0.021067
0.0228011
0.024499
0.0261718
0.0278247
0.0294581
0.031069
0.0326518
0.0341996
0.0357039
0.037156
0.0385465
0.0398658
0.0411043
0.0422519
0.0432986
0.0442338
0.0450467
0.0457256
0.0462576
0.0466269
0.0468112
0.0467771
0.0466529
0.0463702
0.0458849
0.0451675
0.0441983
0.0429689
0.0414857
0.0397718
0.0378421
0.035571
0.0327808
0.0301735
0.0273026
0.00496307
0.0110342
0.016949
0.0223817
0.0274983
0.0319884
0.0360674
0.039855
0.043439
0.046883
0.0502307
0.0535091
0.0567317
0.0599021
0.0630163
0.0660655
0.0690373
0.0719175
0.0746905
0.0773404
0.0798513
0.0822075
0.0843941
0.0863968
0.0882026
0.0897997
0.0911782
0.0923305
0.093251
0.0939344
0.0943646
0.0944792
0.0943631
0.0940279
0.0934976
0.0928136
0.0920357
0.0912363
0.0904618
0.0895973
0.088006
0.0843351
0.0781683
0.0691814
0.00574781
0.014213
0.0214495
0.0281109
0.0342323
0.0398194
0.0449621
0.0497545
0.0542837
0.0586201
0.0628158
0.0669047
0.0709057
0.0748259
0.0786633
0.0824099
0.086053
0.0895777
0.0929672
0.0962043
0.0992718
0.102153
0.104832
0.107296
0.109531
0.111529
0.113285
0.114798
0.11607
0.117112
0.117931
0.118523
0.118947
0.119236
0.119422
0.119539
0.119617
0.119677
0.119693
0.119478
0.118349
0.114961
0.108681
0.0995048
0.00630255
0.0168373
0.0249092
0.0322267
0.0390066
0.0452864
0.0511255
0.0565987
0.0617822
0.0667423
0.0715305
0.0761818
0.0807173
0.0851459
0.0894674
0.0936749
0.097757
0.101699
0.105485
0.109097
0.11252
0.115736
0.118732
0.121495
0.124016
0.126288
0.128313
0.130095
0.131649
0.132994
0.13416
0.135173
0.136102
0.136995
0.137889
0.138806
0.139739
0.140632
0.141349
0.141599
0.14075
0.137776
0.1322
0.124077
0.0071313
0.0192105
0.0280065
0.0357949
0.0430099
0.0497546
0.0560873
0.0620675
0.0677565
0.0732098
0.0784722
0.0835757
0.08854
0.0933741
0.0980784
0.102647
0.107069
0.111332
0.11542
0.119317
0.123008
0.126479
0.129716
0.13271
0.135455
0.137949
0.140197
0.142212
0.144015
0.145639
0.147123
0.148515
0.149893
0.151314
0.152821
0.154426
0.156094
0.157716
0.159084
0.159842
0.159432
0.157154
0.152739
0.145934
0.00805831
0.0215923
0.030967
0.0390903
0.0466014
0.0536719
0.0603692
0.0667422
0.0728376
0.0786983
0.0843598
0.089848
0.0951791
0.10036
0.105392
0.110267
0.114978
0.11951
0.123852
0.127987
0.131903
0.135586
0.139028
0.14222
0.145161
0.147852
0.150305
0.152536
0.154577
0.156465
0.158252
0.159992
0.161773
0.163658
0.16569
0.167876
0.170167
0.172429
0.174422
0.17578
0.176019
0.174664
0.171544
0.165957
0.00899227
0.0238743
0.0337507
0.0421475
0.0498904
0.057214
0.0641999
0.0708917
0.0773249
0.0835309
0.0895361
0.0953595
0.101013
0.1065
0.111821
0.116969
0.121934
0.126705
0.13127
0.135616
0.139732
0.143607
0.147234
0.150609
0.153733
0.156613
0.159263
0.161706
0.163979
0.166126
0.168203
0.170272
0.172419
0.174712
0.177198
0.17988
0.182704
0.185534
0.188133
0.19016
0.191205
0.190921
0.189133
0.184711
0.00989162
0.0259484
0.0362755
0.0449377
0.0529025
0.0604564
0.0676956
0.0746633
0.0813885
0.0878946
0.0942007
0.10032
0.106259
0.11202
0.1176
0.122992
0.128188
0.133175
0.137944
0.142484
0.146785
0.150839
0.154642
0.158193
0.161496
0.164563
0.167411
0.170068
0.172573
0.174976
0.177337
0.179722
0.182202
0.184861
0.187741
0.190847
0.19413
0.197465
0.200641
0.203361
0.205292
0.20616
0.205756
0.202649
0.0108649
0.0277628
0.0384965
0.0474421
0.0556524
0.0634466
0.0709326
0.0781563
0.0851448
0.0919182
0.098491
0.104872
0.111066
0.117072
0.122885
0.128497
0.133901
0.139087
0.144044
0.148764
0.15324
0.157466
0.16144
0.165166
0.16865
0.171906
0.174957
0.177833
0.180575
0.183236
0.185875
0.188559
0.191354
0.194345
0.197573
0.201045
0.20472
0.208495
0.212196
0.215584
0.218396
0.220425
0.221475
0.220159
0.0117555
0.0292792
0.0403988
0.0496671
0.0581696
0.0662366
0.0739819
0.0814565
0.0886909
0.0957065
0.102517
0.109131
0.11555
0.121772
0.127791
0.133601
0.139193
0.144559
0.14969
0.154579
0.159221
0.163614
0.167759
0.17166
0.175329
0.178782
0.182044
0.185146
0.188133
0.191055
0.193972
0.196948
0.200043
0.20334
0.206877
0.210665
0.214672
0.218819
0.222972
0.226948
0.230549
0.233629
0.236094
0.237192
0.0125426
0.0304746
0.0419917
0.0516547
0.0605239
0.0689163
0.0769472
0.0846775
0.0921477
0.0993859
0.10641
0.113228
0.119844
0.126255
0.132456
0.138441
0.144201
0.14973
0.155022
0.16007
0.164873
0.169431
0.173747
0.177829
0.181691
0.185351
0.188836
0.192179
0.195422
0.198617
0.20182
0.20509
0.20848
0.212067
0.215887
0.219952
0.224239
0.228691
0.233209
0.237656
0.241878
0.245755
0.24922
0.251911
0.0131934
0.0313124
0.0432894
0.0534706
0.0628149
0.071601
0.0799485
0.0879394
0.0956341
0.103074
0.110284
0.117278
0.12406
0.130632
0.136987
0.143121
0.149029
0.154703
0.160141
0.165339
0.170297
0.175018
0.179508
0.183778
0.187843
0.191725
0.195449
0.19905
0.202569
0.206053
0.209555
0.213128
0.216819
0.220688
0.224775
0.229087
0.23361
0.238302
0.24309
0.247871
0.252507
0.256847
0.260699
0.263466
0.0137095
0.0317567
0.0443283
0.055221
0.0651768
0.0744231
0.0831062
0.0913506
0.0992485
0.106861
0.114223
0.121357
0.128272
0.134969
0.141447
0.147702
0.153732
0.159531
0.165099
0.170435
0.175541
0.180423
0.18509
0.189555
0.193837
0.197957
0.201941
0.205822
0.209637
0.213432
0.217253
0.221146
0.225151
0.229304
0.233651
0.238195
0.242921
0.247796
0.25277
0.257758
0.262626
0.267172
0.271062
0.273495
0.0142658
0.0318232
0.045247
0.0571248
0.067822
0.077559
0.0865648
0.0950335
0.103099
0.110843
0.118317
0.125549
0.132554
0.139337
0.145902
0.152248
0.158372
0.164275
0.169956
0.175418
0.180666
0.185708
0.190558
0.195231
0.199746
0.204126
0.208397
0.212587
0.21673
0.220865
0.225032
0.229269
0.233607
0.238064
0.242683
0.247458
0.25237
0.257388
0.262477
0.267569
0.272533
0.277141
0.280996
0.283308
0.0154068
0.0316969
0.046423
0.0595829
0.0710402
0.0812017
0.0904625
0.099098
0.107279
0.115106
0.122643
0.129925
0.136975
0.143805
0.150421
0.156825
0.163019
0.169004
0.174782
0.180359
0.185745
0.19095
0.19599
0.200886
0.205656
0.210325
0.214915
0.219452
0.223963
0.228477
0.233026
0.23764
0.242342
0.24714
0.252059
0.257083
0.262183
0.267315
0.272459
0.277563
0.282512
0.287081
0.290882
0.293225
0.018102
0.0321949
0.048756
0.0632547
0.0752127
0.0855865
0.0949715
0.103688
0.111918
0.119771
0.127319
0.134606
0.14166
0.148499
0.155135
0.161573
0.167819
0.173871
0.179732
0.185415
0.190933
0.1963
0.201537
0.206668
0.211717
0.216706
0.221655
0.226584
0.231509
0.236448
0.241419
0.24644
0.251535
0.256716
0.261969
0.267275
0.272582
0.27782
0.282965
0.287984
0.292793
0.297208
0.300885
0.303256
0.0229334
0.0356632
0.053767
0.0689016
0.0806962
0.0909426
0.100278
0.108968
0.11717
0.124989
0.132498
0.139747
0.146772
0.153594
0.160231
0.166694
0.172991
0.179103
0.185034
0.19081
0.196451
0.201978
0.207404
0.212778
0.21813
0.223478
0.228837
0.234216
0.239618
0.245041
0.250486
0.25595
0.261443
0.267038
0.272655
0.278236
0.283736
0.289078
0.294174
0.299004
0.303534
0.307642
0.311066
0.313356
0.0278941
0.0442732
0.0626178
0.0763494
0.0873117
0.0971861
0.106338
0.114904
0.122998
0.130711
0.138113
0.145259
0.152185
0.158919
0.16548
0.171882
0.178134
0.184237
0.190206
0.19607
0.201858
0.2076
0.213328
0.219075
0.22486
0.230693
0.23658
0.242524
0.248513
0.254527
0.26055
0.266559
0.272425
0.27849
0.284529
0.290325
0.295942
0.301305
0.306141
0.310633
0.31475
0.318403
0.32142
0.323474
0.0319908
0.0552176
0.0716701
0.0832313
0.0935369
0.103145
0.112087
0.120469
0.128397
0.135951
0.143196
0.150187
0.156967
0.163565
0.170002
0.176291
0.182442
0.188491
0.19447
0.200402
0.20632
0.212261
0.218283
0.224402
0.230635
0.23699
0.243471
0.250079
0.25681
0.263642
0.270559
0.277586
0.284436
0.291258
0.298026
0.304064
0.309783
0.315013
0.319078
0.322944
0.326355
0.32937
0.331859
0.333546
0.0326296
0.0591377
0.075994
0.0876387
0.098236
0.108067
0.1171
0.125461
0.133294
0.140704
0.147775
0.154574
0.161152
0.167551
0.173801
0.179929
0.185963
0.191929
0.19785
0.203747
0.209658
0.215617
0.221658
0.227815
0.234141
0.240687
0.247495
0.254606
0.262057
0.269853
0.277907
0.286036
0.294364
0.302347
0.310208
0.317351
0.324143
0.330457
0.333435
0.336458
0.338582
0.340633
0.342318
0.343502
0.0312346
0.059509
0.0777632
0.0908428
0.102244
0.112526
0.121819
0.130289
0.138109
0.145418
0.152325
0.158916
0.165257
0.171403
0.177394
0.183269
0.189064
0.194813
0.200544
0.206279
0.212054
0.217903
0.223861
0.229973
0.236303
0.242921
0.249897
0.257297
0.265171
0.273513
0.282192
0.290981
0.299842
0.308781
0.317549
0.325752
0.333513
0.341131
0.346769
0.351035
0.35178
0.352707
0.353148
0.353603
0.35352
0.0299396
0.0594968
0.0784448
0.0927295
0.104924
0.115713
0.125351
0.134038
0.141958
0.149268
0.156097
0.162548
0.168705
0.174633
0.180388
0.186016
0.191561
0.197062
0.202553
0.208065
0.213633
0.219297
0.2251
0.231095
0.237348
0.243937
0.250936
0.258415
0.266412
0.274903
0.283754
0.292777
0.301929
0.311332
0.320793
0.329833
0.33836
0.346232
0.353388
0.359287
0.363278
0.365481
0.364692
0.364425
0.363529
0.0291223
0.0594987
0.0786924
0.0937171
0.106507
0.117732
0.127704
0.136639
0.144721
0.152111
0.158944
0.165334
0.171375
0.177146
0.182711
0.188127
0.193444
0.198705
0.203952
0.209221
0.214555
0.219996
0.225594
0.231408
0.237505
0.24396
0.250845
0.258221
0.266114
0.274491
0.283247
0.292254
0.301498
0.311066
0.320815
0.330373
0.339634
0.348429
0.356281
0.362679
0.3684
0.372664
0.375005
0.37588
0.374186
0.0287885
0.0593892
0.0786954
0.0941208
0.107289
0.11883
0.129073
0.138238
0.1465
0.154012
0.160907
0.1673
0.173291
0.178965
0.184394
0.189642
0.194764
0.19981
0.204827
0.209858
0.21495
0.22015
0.225514
0.231101
0.23698
0.243219
0.249886
0.257033
0.26468
0.272806
0.281338
0.290203
0.299392
0.308942
0.31874
0.328542
0.338255
0.347722
0.356431
0.363963
0.370486
0.375508
0.379789
0.382712
0.383881
0.0287
0.0592337
0.0785452
0.0941543
0.107521
0.119251
0.129679
0.139022
0.147446
0.155089
0.162075
0.168515
0.174506
0.180136
0.18548
0.190607
0.195575
0.200442
0.205256
0.210068
0.214927
0.219888
0.225006
0.230343
0.235965
0.24194
0.248328
0.255178
0.262514
0.270329
0.278585
0.287242
0.296291
0.305732
0.315476
0.325358
0.335279
0.345085
0.354392
0.36286
0.370318
0.376489
0.381656
0.385594
0.38875
0.0288173
0.059095
0.0783343
0.0939907
0.107419
0.119223
0.129744
0.139197
0.147737
0.15549
0.162569
0.169074
0.175097
0.180722
0.186025
0.191075
0.195934
0.20066
0.205308
0.209931
0.214583
0.21932
0.2242
0.229287
0.234645
0.240339
0.24643
0.252965
0.259976
0.267471
0.275439
0.283862
0.292729
0.302024
0.311673
0.321553
0.331554
0.341525
0.351164
0.360175
0.368323
0.375404
0.381441
0.386414
0.390558
0.0291658
0.0590462
0.0781629
0.0937736
0.107159
0.118939
0.129463
0.138949
0.147545
0.155368
0.162518
0.169085
0.175151
0.180795
0.186089
0.191099
0.195888
0.200516
0.205038
0.209511
0.21399
0.218534
0.223204
0.228063
0.233175
0.238605
0.244413
0.250652
0.257359
0.264558
0.272255
0.280448
0.289129
0.298275
0.307823
0.317671
0.327702
0.33776
0.3476
0.356936
0.365518
0.373156
0.379809
0.385492
0.390291
0.0297545
0.0591462
0.0781132
0.0936059
0.106864
0.118532
0.128977
0.13842
0.147008
0.15485
0.162035
0.168642
0.174747
0.180418
0.185721
0.19072
0.195473
0.200041
0.204478
0.208843
0.213193
0.217587
0.222087
0.226757
0.231662
0.236868
0.242436
0.248422
0.254873
0.261821
0.269289
0.277285
0.285805
0.294827
0.304296
0.314121
0.324183
0.334319
0.344308
0.353889
0.362795
0.370824
0.377886
0.383978
0.389151
0.0305573
0.0594214
0.0782283
0.0935392
0.106595
0.118077
0.128368
0.137699
0.146215
0.15402
0.161198
0.167818
0.173944
0.179638
0.184958
0.189962
0.194705
0.199245
0.203636
0.207935
0.2122
0.216491
0.22087
0.225403
0.230155
0.235192
0.240578
0.246375
0.252633
0.259397
0.266696
0.274549
0.282959
0.291906
0.301342
0.311182
0.321308
0.331556
0.341712
0.351524
0.360734
0.369115
0.376528
0.382924
0.388324
0.0315193
0.0598629
0.0785065
0.0935769
0.106365
0.117594
0.127669
0.136825
0.145212
0.152931
0.160057
0.166655
0.172779
0.178482
0.183817
0.188834
0.193584
0.19812
0.202497
0.206767
0.210991
0.215226
0.219537
0.223987
0.228645
0.233577
0.23885
0.244528
0.250669
0.257322
0.264526
0.272306
0.280673
0.289611
0.299077
0.308992
0.319239
0.329655
0.340029
0.350116
0.359654
0.368403
0.376184
0.382895
0.388512
0.0325736
0.0604362
0.078911
0.0936875
0.106151
0.117073
0.126879
0.135811
0.14402
0.151607
0.158641
0.165181
0.171276
0.17697
0.182308
0.187337
0.192101
0.19665
0.201034
0.205307
0.209525
0.213747
0.218037
0.222459
0.227081
0.231972
0.2372
0.242833
0.248932
0.255552
0.262739
0.270524
0.278922
0.287925
0.297493
0.307551
0.317986
0.328636
0.339294
0.349715
0.359636
0.368801
0.376997
0.384074
0.389958
0.0336561
0.0610948
0.0793877
0.093824
0.105917
0.116492
0.125988
0.134656
0.142648
0.150063
0.15697
0.163419
0.169454
0.175115
0.180442
0.185472
0.190249
0.194816
0.199222
0.203517
0.207756
0.211999
0.216307
0.220745
0.225383
0.23029
0.235536
0.24119
0.247318
0.25398
0.261224
0.269088
0.277592
0.286731
0.29647
0.30674
0.317429
0.328377
0.33938
0.350195
0.360552
0.370184
0.37885
0.386359
0.392588
0.0347139
0.0617921
0.0798808
0.09394
0.105632
0.115829
0.124987
0.133362
0.141106
0.148318
0.155063
0.16139
0.167337
0.17294
0.178233
0.18325
0.188029
0.19261
0.19704
0.201367
0.205644
0.209928
0.214283
0.218772
0.223466
0.228434
0.233748
0.239479
0.245696
0.252459
0.259824
0.267832
0.276504
0.285841
0.295812
0.306351
0.317346
0.328644
0.340041
0.351292
0.362127
0.372264
0.38144
0.38943
0.396067
0.0357078
0.0624864
0.080343
0.0939995
0.105272
0.115076
0.123878
0.131939
0.139413
0.146396
0.152952
0.159128
0.164959
0.170477
0.175711
0.180693
0.185457
0.190041
0.194488
0.198844
0.203162
0.207499
0.211915
0.216476
0.22125
0.22631
0.231728
0.237576
0.243923
0.250835
0.258368
0.266565
0.275453
0.285033
0.295278
0.306123
0.317461
0.329138
0.340953
0.352662
0.363989
0.374645
0.384346
0.39284
0.399924
0.0366108
0.0631438
0.0807399
0.0939803
0.104829
0.114234
0.122673
0.130409
0.137596
0.144331
0.150676
0.156675
0.162363
0.167768
0.172917
0.177839
0.182566
0.187134
0.191582
0.195957
0.20031
0.204695
0.209175
0.213814
0.21868
0.223847
0.229387
0.235373
0.241877
0.248964
0.256692
0.265106
0.274235
0.284082
0.294621
0.305789
0.317479
0.32954
0.341772
0.353929
0.365733
0.376888
0.387096
0.396082
0.403615
0.037406
0.0637379
0.0810494
0.0938723
0.104302
0.113314
0.121392
0.1288
0.135692
0.142165
0.14828
0.154082
0.159602
0.164868
0.169905
0.174741
0.179405
0.183932
0.188361
0.192735
0.197106
0.201527
0.206061
0.210771
0.215727
0.221001
0.226666
0.232796
0.239462
0.246731
0.254663
0.263302
0.272677
0.282792
0.293623
0.305105
0.317134
0.329556
0.342172
0.354738
0.366972
0.378572
0.38923
0.398658
0.406603
0.0380841
0.0642491
0.0812596
0.0936745
0.103702
0.112335
0.12006
0.127143
0.133739
0.139942
0.145815
0.151402
0.156734
0.161837
0.166737
0.171459
0.176034
0.180493
0.184875
0.189225
0.193591
0.198028
0.202596
0.207362
0.212392
0.21776
0.223538
0.229802
0.236621
0.244064
0.252189
0.261041
0.270648
0.281015
0.292113
0.303881
0.31621
0.328947
0.341892
0.354798
0.367384
0.379342
0.390362
0.400144
0.408424
0.0386407
0.0646626
0.0813648
0.0933906
0.103039
0.111313
0.118702
0.125471
0.131773
0.137705
0.143329
0.148688
0.153815
0.158736
0.163475
0.168059
0.172517
0.176881
0.18119
0.185486
0.189821
0.194247
0.198825
0.203621
0.208702
0.214141
0.220012
0.226387
0.233338
0.240931
0.249225
0.258263
0.268073
0.278656
0.289984
0.301989
0.314564
0.327552
0.340749
0.353908
0.366745
0.378953
0.390218
0.400239
0.408746
0.0390751
0.064968
0.081363
0.0930251
0.102323
0.110265
0.117339
0.123808
0.129826
0.13549
0.140863
0.145989
0.150899
0.155621
0.160181
0.164604
0.168921
0.173164
0.177371
0.181587
0.185861
0.190247
0.194806
0.199603
0.204706
0.210187
0.216119
0.222576
0.229627
0.237338
0.245766
0.254953
0.264924
0.275679
0.287185
0.299373
0.312127
0.32529
0.338652
0.351966
0.364944
0.377281
0.388664
0.398794
0.407407
0.0393889
0.0651573
0.081253
0.0925815
0.101561
0.109201
0.115984
0.122173
0.127922
0.133327
0.138452
0.143341
0.148028
0.152541
0.156906
0.161151
0.165306
0.169405
0.173486
0.177594
0.18178
0.186097
0.190606
0.195373
0.200465
0.205955
0.211915
0.218417
0.225531
0.233321
0.241842
0.251134
0.261221
0.272097
0.283725
0.296032
0.308898
0.322158
0.3356
0.34897
0.361982
0.374331
0.385709
0.395826
0.404427
0.0395853
0.0652244
0.0810338
0.0920609
0.100757
0.108125
0.114645
0.120577
0.126074
0.131233
0.136117
0.140774
0.145236
0.149534
0.153695
0.157749
0.161726
0.165661
0.169594
0.173571
0.177642
0.181862
0.186292
0.190998
0.196047
0.201512
0.207464
0.213974
0.221111
0.228938
0.237508
0.24686
0.257012
0.267957
0.279653
0.29202
0.304933
0.318219
0.331662
0.345004
0.357958
0.370222
0.381495
0.391501
0.4
0.0396686
0.0651654
0.0807038
0.0914617
0.0999073
0.107036
0.113321
0.119021
0.124286
0.129215
0.133872
0.138303
0.142544
0.146626
0.150579
0.154433
0.15822
0.161977
0.165745
0.169571
0.173505
0.177604
0.181928
0.186544
0.191519
0.196925
0.202834
0.209315
0.216436
0.224259
0.232835
0.2422
0.252371
0.263336
0.275048
0.287423
0.300327
0.313584
0.326968
0.340219
0.35305
0.365163
0.37627
0.386111
0.394471
0.039644
0.0649778
0.0802608
0.0907804
0.0990082
0.105928
0.112007
0.1175
0.122557
0.127274
0.131717
0.135934
0.139961
0.143831
0.147576
0.151227
0.154818
0.158388
0.161978
0.165638
0.169418
0.173373
0.177568
0.182068
0.186942
0.192259
0.198091
0.204508
0.211576
0.219355
0.227896
0.237234
0.247381
0.258323
0.27001
0.28235
0.295207
0.308395
0.321685
0.334812
0.347491
0.359432
0.37036
0.380038
0.388279
0.0395176
0.0646606
0.0797028
0.0900121
0.0980516
0.104792
0.110692
0.116003
0.120874
0.1254
0.129647
0.133663
0.137487
0.141154
0.144695
0.148144
0.151537
0.154915
0.15832
0.161802
)
;

boundaryField
{
    leftWall
    {
        type            kqRWallFunction;
        value           nonuniform List<scalar> 
44
(
0.00329534
0.00496307
0.00574781
0.00630255
0.0071313
0.00805831
0.00899227
0.00989162
0.0108649
0.0117555
0.0125426
0.0131934
0.0137095
0.0142658
0.0154068
0.018102
0.0229334
0.0278941
0.0319908
0.0326296
0.0312346
0.0299396
0.0291223
0.0287885
0.0287
0.0288173
0.0291658
0.0297545
0.0305573
0.0315193
0.0325736
0.0336561
0.0347139
0.0357078
0.0366108
0.037406
0.0380841
0.0386407
0.0390751
0.0393889
0.0395853
0.0396686
0.039644
0.0395176
)
;
    }
    rightWall
    {
        type            kqRWallFunction;
        value           nonuniform 0();
    }
    lowerWall
    {
        type            kqRWallFunction;
        value           nonuniform List<scalar> 
44
(
0.00329534
0.00561588
0.00823086
0.0108916
0.0132567
0.0153792
0.0174087
0.0192784
0.021067
0.0228011
0.024499
0.0261718
0.0278247
0.0294581
0.031069
0.0326518
0.0341996
0.0357039
0.037156
0.0385465
0.0398658
0.0411043
0.0422519
0.0432986
0.0442338
0.0450467
0.0457256
0.0462576
0.0466269
0.0468112
0.0467771
0.0466529
0.0463702
0.0458849
0.0451675
0.0441983
0.0429689
0.0414857
0.0397718
0.0378421
0.035571
0.0327808
0.0301735
0.0273026
)
;
    }
    atmosphere
    {
        type            inletOutlet;
        inletValue      nonuniform 0();
        value           nonuniform 0();
    }
    defaultFaces
    {
        type            empty;
    }
    procBoundary0to1
    {
        type            processor;
        value           nonuniform List<scalar> 
44
(
0.0249888
0.0541077
0.08233
0.108082
0.130634
0.150758
0.169677
0.188542
0.209
0.232263
0.250032
0.261498
0.271891
0.282331
0.292902
0.303465
0.313891
0.324117
0.334114
0.343874
0.343874
0.352688
0.362376
0.372749
0.38354
0.390519
0.393547
0.394095
0.393402
0.392758
0.393055
0.39464
0.397479
0.401253
0.40546
0.409525
0.41287
0.414991
0.415523
0.414287
0.411308
0.40681
0.401185
0.394947
)
;
    }
    procBoundary0to2
    {
        type            processor;
        value           nonuniform List<scalar> 
46
(
0.165412
0.169208
0.173256
0.177619
0.182367
0.187569
0.193295
0.199617
0.206598
0.214299
0.222769
0.232042
0.242129
0.253014
0.264645
0.276924
0.289711
0.302815
0.316002
0.329006
0.341544
0.353335
0.364123
0.373701
0.38191
0.0392963
0.0642144
0.0790281
0.0891512
0.0970285
0.103615
0.109362
0.114516
0.119222
0.123578
0.127647
0.131479
0.135113
0.138586
0.141932
0.145185
0.148383
0.151567
0.154783
0.165412
0.158081
)
;
    }
}


// ************************************************************************* //
