/*--------------------------------*- C++ -*----------------------------------*\
| =========                 |                                                 |
| \\      /  F ield         | OpenFOAM: The Open Source CFD Toolbox           |
|  \\    /   O peration     | Version:  5.0                                   |
|   \\  /    A nd           | Web:      www.OpenFOAM.org                      |
|    \\/     M anipulation  |                                                 |
\*---------------------------------------------------------------------------*/
FoamFile
{
    version     2.0;
    format      ascii;
    class       volScalarField;
    location    "0.45";
    object      p_rgh;
}
// * * * * * * * * * * * * * * * * * * * * * * * * * * * * * * * * * * * * * //

dimensions      [1 -1 -2 0 0 0 0];

internalField   nonuniform List<scalar> 
1935
(
766.978
765.07
767.039
771.439
777.319
783.396
789.035
793.976
798.164
801.648
804.53
806.928
808.957
810.725
812.329
813.857
815.387
816.992
818.735
820.68
822.889
825.425
828.357
831.761
835.727
840.359
845.785
852.162
859.691
868.632
879.363
892.019
906.908
924.255
944.233
966.845
991.716
1017.95
1044.07
1068.18
1088.68
1102.28
1108.03
1114.88
766.022
763.216
764.187
767.971
772.954
778.236
783.324
787.928
791.942
795.364
798.254
800.696
802.786
804.619
806.286
807.873
809.461
811.122
812.928
814.946
817.245
819.896
822.975
826.567
830.771
835.701
841.495
848.318
856.37
865.873
877.06
890.519
906.315
924.797
946.234
970.657
997.744
1026.59
1055.54
1082.12
1103.76
1116.34
1112.12
1106.95
764.062
762.243
763.559
766.337
770.13
774.329
778.507
782.401
785.882
788.916
791.524
793.763
795.701
797.42
799.001
800.523
802.065
803.703
805.509
807.556
809.919
812.673
815.905
819.705
824.183
829.461
835.688
843.037
851.715
861.958
874.026
888.315
905.082
924.623
947.13
972.585
1000.63
1030.37
1060.12
1087.38
1109.16
1122.63
1118.61
1110.2
762.156
761.596
763.105
765.391
768.359
771.661
774.98
778.114
780.951
783.451
785.619
787.493
789.13
790.595
791.962
793.307
794.705
796.231
797.959
799.965
802.327
805.126
808.452
812.402
817.09
822.646
829.22
836.991
846.162
856.967
869.651
884.52
901.871
921.948
944.872
970.563
998.613
1028.12
1057.55
1084.62
1106.63
1121.09
1125.36
1118.22
760.375
761.201
762.79
764.749
767.141
769.747
772.346
774.794
777.009
778.956
780.64
782.09
783.356
784.496
785.58
786.679
787.867
789.217
790.806
792.71
795.009
797.787
801.136
805.157
809.964
815.688
822.48
830.514
839.988
851.12
864.139
879.305
896.872
917.033
939.858
965.222
992.707
1021.48
1050.21
1077.01
1099.65
1116.04
1124.74
1128.46
758.507
760.503
762.303
764.07
766.033
768.079
770.066
771.906
773.543
774.957
776.154
777.165
778.035
778.822
779.589
780.407
781.347
782.485
783.896
785.658
787.851
790.56
793.876
797.902
802.749
808.547
815.443
823.602
833.212
844.475
857.599
872.804
890.297
910.224
932.612
957.309
983.914
1011.7
1039.55
1065.97
1089.21
1107.68
1120.9
1133.95
756.477
759.404
761.519
763.194
764.824
766.403
767.861
769.154
770.255
771.157
771.875
772.441
772.904
773.318
773.749
774.264
774.935
775.837
777.045
778.637
780.693
783.297
786.539
790.518
795.344
801.14
808.045
816.216
825.824
837.055
850.094
865.126
882.312
901.762
923.469
947.267
972.782
999.379
1026.13
1051.86
1075.22
1095.15
1112.05
1132.5
754.335
758.037
760.469
762.072
763.419
764.6
765.593
766.389
766.988
767.396
767.639
767.758
767.802
767.829
767.906
768.1
768.483
769.13
770.116
771.517
773.413
775.885
779.021
782.914
787.668
793.4
800.238
808.326
817.82
828.886
841.687
856.372
873.07
891.857
912.701
935.432
959.696
984.926
1010.32
1034.88
1057.55
1077.59
1095.93
1120.18
752.092
756.479
759.144
760.66
761.762
762.6
763.181
763.523
763.644
763.57
763.34
763.003
762.615
762.24
761.945
761.799
761.875
762.249
762.994
764.188
765.905
768.224
771.227
775.003
779.648
785.268
791.978
799.908
809.198
819.995
832.439
846.648
862.719
880.703
900.556
922.102
945.002
968.715
992.489
1015.36
1036.3
1054.49
1070.57
1091.87
749.721
754.675
757.47
758.889
759.796
760.353
760.574
760.496
760.16
759.61
758.902
758.098
757.264
756.468
755.781
755.276
755.026
755.108
755.596
756.565
758.087
760.236
763.087
766.722
771.228
776.699
783.236
790.951
799.968
810.415
822.412
836.05
851.393
868.477
887.252
907.545
929.019
951.127
973.088
993.833
1012.05
1026.28
1035.65
1044.17
747.165
752.511
755.322
756.659
757.447
757.8
757.717
757.253
756.475
755.45
754.255
752.967
751.667
750.429
749.328
748.441
747.844
747.613
747.825
748.552
749.864
751.826
754.508
757.981
762.325
767.618
773.944
781.396
790.082
800.115
811.593
824.583
839.12
855.223
872.854
891.854
911.889
932.387
952.498
970.941
985.921
994.915
994.483
980.297
744.428
749.861
752.567
753.865
754.646
754.893
754.569
753.752
752.542
751.036
749.335
747.54
745.745
744.034
742.488
741.187
740.211
739.641
739.553
740.02
741.108
742.872
745.374
748.677
752.85
757.954
764.053
771.216
779.535
789.11
800.024
812.312
825.975
841.023
857.451
875.141
893.781
912.78
931.247
947.71
960.016
965.042
958.062
930.784
741.563
746.581
749.042
750.3
751.16
751.4
750.89
749.734
748.077
746.049
743.788
741.418
739.054
736.795
734.728
732.937
731.513
730.545
730.115
730.298
731.158
732.736
735.081
738.252
742.307
747.286
753.219
760.145
768.14
777.303
787.699
799.322
812.115
826.082
841.277
857.675
875.017
892.722
909.97
925.18
936.098
939.653
931.706
906.639
738.473
742.547
744.385
745.391
746.383
746.738
746.077
744.553
742.398
739.78
736.88
733.853
730.839
727.955
725.288
722.937
721.005
719.596
718.797
718.684
719.314
720.705
722.902
725.974
729.965
734.889
740.721
747.457
755.164
763.969
773.953
785.054
797.132
810.154
824.207
839.468
855.745
872.449
889.015
903.81
914.622
918.661
912.619
893.002
736.891
723.976
728.184
736.961
741.538
742.519
741.881
740.126
737.708
734.82
731.683
728.469
725.332
722.381
719.675
717.118
714.893
713.066
711.926
711.578
712.08
713.365
715.623
718.281
721.571
725.713
730.652
736.342
742.863
750.44
759.247
769.249
780.268
792.179
804.999
819.39
835.201
851.578
868.369
883.72
895.537
901.376
898.478
884.19
427.37
307.737
329.806
411.789
499.62
553.304
572.671
574.882
569.29
556.711
540.264
521.503
502.233
483.648
465.856
449.979
436.743
425.983
418.502
415.957
419.442
427.192
438.23
454.953
478.684
509.465
546.182
587.501
632.611
680.401
724.442
753.995
767.384
775.159
784.346
796.009
810.945
827.604
846.425
864.162
878.481
887.346
888.605
880.265
-0.547572
-0.0785018
-0.19141
-0.251944
23.4133
47.1663
57.8285
59.2685
55.7972
48.2174
39.4135
30.4842
22.3583
15.4412
9.51801
4.77916
0.907782
-0.352273
-0.3412
-0.340474
-0.341293
-0.037308
2.91283
8.10449
16.1922
28.3557
45.8138
70.246
105.532
161.249
254.548
395.793
544.967
667.089
748.754
782.88
788.871
799.881
819.995
842.109
861.517
875.485
882.216
880.403
-0.188332
-0.165962
-0.182128
-0.182478
-0.199887
-0.201904
-0.208615
-0.217332
-0.224685
-0.230634
-0.235557
-0.238822
-0.23973
-0.237389
-0.230052
-0.215752
-0.190991
-0.171982
-0.164585
-0.162602
-0.160229
-0.157836
-0.176526
-0.222108
-0.279262
-0.333504
-0.380683
-0.42435
-0.468836
-0.513944
-0.557279
-0.606394
20.9019
81.4257
210.296
451.006
744.984
798.654
802.277
819.102
841.755
862.766
877.288
883.071
-0.20693
-0.198265
-0.191029
-0.182817
-0.157879
-0.138099
-0.126593
-0.119902
-0.116233
-0.115271
-0.116991
-0.121574
-0.129316
-0.14031
-0.15458
-0.171576
-0.188993
-0.19807
-0.19996
-0.200913
-0.200297
-0.195703
-0.188971
-0.195193
-0.213878
-0.239404
-0.267863
-0.297137
-0.325266
-0.347781
-0.352035
-0.320842
-0.398746
-0.742863
-0.919502
2.96337
28.3008
165.417
648.035
835.205
835.055
851.225
871.444
885.682
-0.212529
-0.204743
-0.199238
-0.191166
-0.177371
-0.164847
-0.156161
-0.150966
-0.148653
-0.148962
-0.15176
-0.157108
-0.165039
-0.175317
-0.187475
-0.200657
-0.213119
-0.220925
-0.224818
-0.227982
-0.230999
-0.233575
-0.237146
-0.247702
-0.265746
-0.288855
-0.314678
-0.341433
-0.367383
-0.389818
-0.402358
-0.397241
-0.413935
-0.479261
-0.479378
-0.570651
-1.03431
-1.5931
20.3152
153.151
656.334
879.453
879.446
890.679
-0.21687
-0.211087
-0.205476
-0.198001
-0.188933
-0.180321
-0.173952
-0.170212
-0.168956
-0.170038
-0.17332
-0.178722
-0.1861
-0.19512
-0.205249
-0.215707
-0.225464
-0.233299
-0.239599
-0.245588
-0.251888
-0.259125
-0.268711
-0.283043
-0.302322
-0.325278
-0.350488
-0.376802
-0.403197
-0.428545
-0.451193
-0.471073
-0.503125
-0.555447
-0.591793
-0.61278
-0.659722
-0.71642
-1.03709
-1.88784
21.9849
198.467
756.773
932.363
928.348
-0.226387
-0.220063
-0.213132
-0.205178
-0.197176
-0.189966
-0.184568
-0.181392
-0.180479
-0.181769
-0.185145
-0.190459
-0.197514
-0.206023
-0.215585
-0.225647
-0.235522
-0.244624
-0.253094
-0.261571
-0.270626
-0.280886
-0.29337
-0.309286
-0.328862
-0.35148
-0.376296
-0.40257
-0.429736
-0.457443
-0.485692
-0.516399
-0.557541
-0.61216
-0.664369
-0.716376
-0.778039
-0.808544
-0.816445
-0.938523
-1.31086
-2.11266
37.1685
212.616
765.404
-0.236917
-0.229855
-0.221904
-0.21359
-0.20613
-0.199852
-0.195256
-0.192663
-0.192171
-0.193758
-0.19733
-0.202736
-0.209783
-0.21823
-0.227764
-0.237982
-0.248428
-0.258741
-0.26897
-0.279498
-0.29078
-0.303344
-0.317873
-0.335085
-0.355204
-0.377969
-0.402924
-0.42965
-0.4579
-0.487717
-0.519566
-0.555191
-0.598747
-0.651553
-0.707357
-0.770538
-0.846545
-0.91349
-0.963463
-1.01951
-1.05276
-1.18719
-1.55855
-2.3743
37.5367
-0.248513
-0.240151
-0.231531
-0.22318
-0.216249
-0.210789
-0.206998
-0.205089
-0.205146
-0.207159
-0.211052
-0.216702
-0.22394
-0.232558
-0.242298
-0.252854
-0.263913
-0.275261
-0.286924
-0.299145
-0.312271
-0.326719
-0.34297
-0.361479
-0.382448
-0.405807
-0.431362
-0.458939
-0.488525
-0.520355
-0.555013
-0.593769
-0.638769
-0.690699
-0.74743
-0.811174
-0.884901
-0.961794
-1.04188
-1.12817
-1.19472
-1.26022
-1.30964
-1.46476
-1.78924
-0.260512
-0.25119
-0.24215
-0.233968
-0.227556
-0.22282
-0.219786
-0.218566
-0.219206
-0.221694
-0.225971
-0.231939
-0.239458
-0.248352
-0.258408
-0.269397
-0.2811
-0.293383
-0.306266
-0.319921
-0.334608
-0.350646
-0.368381
-0.388131
-0.410082
-0.434281
-0.460698
-0.48933
-0.520309
-0.553966
-0.590874
-0.631961
-0.678433
-0.730777
-0.788363
-0.852064
-0.923015
-0.999278
-1.08233
-1.17501
-1.26904
-1.36551
-1.44408
-1.52828
-1.58988
-0.272968
-0.263022
-0.253927
-0.246102
-0.240217
-0.236137
-0.233795
-0.233223
-0.234434
-0.237406
-0.242095
-0.248424
-0.25628
-0.265512
-0.275948
-0.287412
-0.29975
-0.312879
-0.326818
-0.341694
-0.357709
-0.375103
-0.394137
-0.415051
-0.438025
-0.463173
-0.490572
-0.520324
-0.552637
-0.587875
-0.626562
-0.669401
-0.71717
-0.770266
-0.82861
-0.892615
-0.962704
-1.03815
-1.11967
-1.20901
-1.30438
-1.40724
-1.51151
-1.6201
-1.70962
-0.285957
-0.275789
-0.267006
-0.25971
-0.254384
-0.250912
-0.249192
-0.24921
-0.250954
-0.254398
-0.259504
-0.266211
-0.274427
-0.284024
-0.294863
-0.306807
-0.319749
-0.333636
-0.348492
-0.364417
-0.381567
-0.400132
-0.420314
-0.442309
-0.466292
-0.492415
-0.520822
-0.551676
-0.585221
-0.621812
-0.661914
-0.706081
-0.75487
-0.80863
-0.867476
-0.931665
-1.00139
-1.07638
-1.15687
-1.24355
-1.33589
-1.43485
-1.53917
-1.65057
-1.76142
-0.299563
-0.289617
-0.281462
-0.274836
-0.270099
-0.267196
-0.266032
-0.266574
-0.268802
-0.272687
-0.278195
-0.285275
-0.293848
-0.30381
-0.315047
-0.327454
-0.340954
-0.355518
-0.371173
-0.387999
-0.406123
-0.425698
-0.446891
-0.469871
-0.494806
-0.521871
-0.551246
-0.583134
-0.617787
-0.655536
-0.696784
-0.741977
-0.791541
-0.845785
-0.904881
-0.969007
-1.03828
-1.1126
-1.19205
-1.27687
-1.36681
-1.46209
-1.56222
-1.66785
-1.77676
-0.313887
-0.304581
-0.297269
-0.2914
-0.287269
-0.2849
-0.284231
-0.285237
-0.287898
-0.292188
-0.298071
-0.305503
-0.314415
-0.324724
-0.336336
-0.349172
-0.363179
-0.378342
-0.394688
-0.412287
-0.431244
-0.451687
-0.473761
-0.497618
-0.523423
-0.551357
-0.581622
-0.614436
-0.650056
-0.688784
-0.730964
-0.776955
-0.827095
-0.881644
-0.940779
-1.00463
-1.07326
-1.14662
-1.22474
-1.30768
-1.39531
-1.48758
-1.58413
-1.68478
-1.78821
-0.329016
-0.320684
-0.314309
-0.309218
-0.305688
-0.303817
-0.303595
-0.305016
-0.308068
-0.312726
-0.318956
-0.326713
-0.335938
-0.346563
-0.358517
-0.37174
-0.386195
-0.401878
-0.418817
-0.437075
-0.45674
-0.477925
-0.500759
-0.525385
-0.551963
-0.580673
-0.611721
-0.645335
-0.681766
-0.721291
-0.764206
-0.810803
-0.861343
-0.91604
-0.975041
-1.03845
-1.10628
-1.17848
-1.25503
-1.33593
-1.42107
-1.51035
-1.60348
-1.70005
-1.79894
-0.344988
-0.337839
-0.332385
-0.32804
-0.325085
-0.323682
-0.323873
-0.325675
-0.329087
-0.334084
-0.340632
-0.348685
-0.358192
-0.369101
-0.381357
-0.394918
-0.40976
-0.425886
-0.443327
-0.462137
-0.482396
-0.504206
-0.527685
-0.552971
-0.580217
-0.609598
-0.641316
-0.675595
-0.712677
-0.752817
-0.796273
-0.843286
-0.894059
-0.948751
-1.00747
-1.07028
-1.13719
-1.20811
-1.28297
-1.36173
-1.44429
-1.53054
-1.62025
-1.71298
-1.80777
-0.361756
-0.35587
-0.351248
-0.347586
-0.345172
-0.344213
-0.344798
-0.346963
-0.350713
-0.356026
-0.362864
-0.371186
-0.380947
-0.392106
-0.404625
-0.418475
-0.433643
-0.450138
-0.467992
-0.487256
-0.508003
-0.530326
-0.554338
-0.580169
-0.607968
-0.637905
-0.670172
-0.704982
-0.742561
-0.783144
-0.826958
-0.874205
-0.925041
-0.979577
-1.03788
-1.09997
-1.16583
-1.23537
-1.30849
-1.3851
-1.46511
-1.54841
-1.63481
-1.72391
-1.81483
-0.379177
-0.374519
-0.370613
-0.367566
-0.365662
-0.365134
-0.366103
-0.368621
-0.372693
-0.3783
-0.385406
-0.393971
-0.403959
-0.415338
-0.428082
-0.442176
-0.457614
-0.474411
-0.492597
-0.512224
-0.533358
-0.556088
-0.580518
-0.606777
-0.635009
-0.665376
-0.698063
-0.733267
-0.771197
-0.812066
-0.856072
-0.903386
-0.954128
-1.00837
-1.06613
-1.1274
-1.19213
-1.26022
-1.33157
-1.40607
-1.48362
-1.56412
-1.64741
-1.73317
-1.82058
-0.397023
-0.393483
-0.390181
-0.387692
-0.386275
-0.386171
-0.387522
-0.390384
-0.394764
-0.400645
-0.407995
-0.41678
-0.426969
-0.438541
-0.45148
-0.465777
-0.481436
-0.498473
-0.51692
-0.536826
-0.558255
-0.581291
-0.606034
-0.632607
-0.661149
-0.691818
-0.724788
-0.760246
-0.798383
-0.839388
-0.883436
-0.930668
-0.981176
-1.035
-1.09212
-1.1525
-1.21605
-1.28269
-1.35228
-1.42474
-1.49996
-1.57785
-1.6583
-1.74103
-1.82538
-0.415027
-0.412454
-0.409671
-0.407699
-0.406752
-0.407069
-0.408798
-0.411994
-0.416668
-0.422804
-0.430376
-0.439358
-0.449727
-0.461468
-0.474571
-0.489037
-0.504872
-0.522095
-0.540738
-0.560847
-0.582485
-0.605733
-0.630689
-0.657469
-0.686207
-0.717055
-0.750179
-0.785754
-0.823956
-0.864953
-0.908899
-0.955912
-1.00606
-1.05937
-1.11578
-1.17523
-1.23763
-1.30285
-1.37077
-1.44131
-1.51437
-1.58989
-1.66777
-1.74784
-1.82958
-0.432918
-0.431154
-0.428837
-0.427353
-0.426864
-0.427598
-0.429699
-0.43322
-0.438172
-0.444546
-0.452323
-0.461484
-0.472012
-0.483899
-0.497141
-0.511742
-0.527711
-0.545068
-0.563843
-0.584083
-0.605849
-0.629222
-0.654298
-0.681186
-0.710016
-0.740932
-0.774091
-0.809658
-0.847795
-0.888653
-0.932368
-0.979043
-1.02873
-1.08143
-1.13709
-1.19562
-1.2569
-1.3208
-1.38721
-1.45603
-1.52718
-1.60062
-1.67628
-1.75406
-1.83362
-0.450449
-0.449351
-0.44747
-0.446459
-0.446418
-0.447563
-0.450028
-0.453864
-0.459083
-0.465682
-0.47365
-0.482973
-0.493644
-0.505656
-0.51901
-0.533713
-0.549776
-0.567217
-0.586065
-0.606367
-0.628185
-0.651599
-0.676704
-0.703607
-0.732432
-0.763316
-0.796407
-0.831859
-0.86982
-0.910431
-0.953812
-1.00005
-1.0492
-1.10125
-1.15614
-1.21377
-1.27402
-1.33675
-1.40185
-1.4692
-1.53874
-1.61045
-1.68428
-1.76019
-1.83799
-0.467408
-0.466855
-0.465398
-0.464848
-0.465245
-0.466794
-0.469617
-0.47376
-0.479238
-0.486053
-0.494201
-0.503675
-0.514472
-0.52659
-0.540032
-0.554806
-0.570922
-0.588398
-0.607264
-0.627565
-0.649363
-0.67274
-0.697789
-0.724618
-0.753348
-0.784108
-0.81704
-0.852285
-0.889982
-0.930263
-0.973238
-1.01899
-1.06756
-1.11895
-1.1731
-1.22991
-1.28926
-1.351
-1.41501
-1.48118
-1.54944
-1.61978
-1.69218
-1.76666
-1.84314
-0.483613
-0.483512
-0.482473
-0.482371
-0.483198
-0.485141
-0.488313
-0.492756
-0.498487
-0.505512
-0.513833
-0.523448
-0.534358
-0.546563
-0.560069
-0.574882
-0.591015
-0.608484
-0.627318
-0.647563
-0.669282
-0.692554
-0.717476
-0.744154
-0.772707
-0.803261
-0.835949
-0.870908
-0.908269
-0.948159
-0.990684
-1.03593
-1.08394
-1.13471
-1.18821
-1.24434
-1.30296
-1.36394
-1.42713
-1.49242
-1.55972
-1.62903
-1.70039
-1.77385
-1.84941
-0.498919
-0.499195
-0.498568
-0.4989
-0.500142
-0.502469
-0.50598
-0.510715
-0.516692
-0.523922
-0.532408
-0.542154
-0.553162
-0.565437
-0.578984
-0.593811
-0.609928
-0.627352
-0.646113
-0.666257
-0.687848
-0.710967
-0.73571
-0.762181
-0.790494
-0.820773
-0.853147
-0.887751
-0.924716
-0.964168
-1.00622
-1.05096
-1.09845
-1.1487
-1.20168
-1.25731
-1.31545
-1.37594
-1.43862
-1.50334
-1.57002
-1.63863
-1.70929
-1.7821
-1.85705
-0.513221
-0.513805
-0.513582
-0.514328
-0.515971
-0.518668
-0.522505
-0.527521
-0.533735
-0.541159
-0.5498
-0.559665
-0.570758
-0.583085
-0.596653
-0.611469
-0.627543
-0.644893
-0.663546
-0.683552
-0.704978
-0.727917
-0.752455
-0.778685
-0.806717
-0.836671
-0.868678
-0.902873
-0.939393
-0.978372
-1.01994
-1.06419
-1.11122
-1.16106
-1.2137
-1.26905
-1.32698
-1.38731
-1.44982
-1.51433
-1.58071
-1.64896
-1.71926
-1.79175
-1.86629
-0.526442
-0.527278
-0.527449
-0.528587
-0.530612
-0.53366
-0.537807
-0.543089
-0.549526
-0.55713
-0.565914
-0.575883
-0.587046
-0.59941
-0.61298
-0.627766
-0.643776
-0.661027
-0.679546
-0.699384
-0.720634
-0.743392
-0.767722
-0.7937
-0.821428
-0.851028
-0.882632
-0.916383
-0.952428
-0.990918
-1.032
-1.07581
-1.12245
-1.17199
-1.22444
-1.27972
-1.33768
-1.39812
-1.46077
-1.52538
-1.59177
-1.65994
-1.73014
-1.80253
-1.87662
-0.538549
-0.53959
-0.540142
-0.541651
-0.544037
-0.547417
-0.551855
-0.557384
-0.564025
-0.571794
-0.580703
-0.590762
-0.60198
-0.614366
-0.627927
-0.642671
-0.658605
-0.675746
-0.69412
-0.713799
-0.734902
-0.757498
-0.781629
-0.807353
-0.834771
-0.864006
-0.8952
-0.928503
-0.964078
-1.00209
-1.04272
-1.08613
-1.13245
-1.18176
-1.2341
-1.28938
-1.34747
-1.4081
-1.47098
-1.53582
-1.60239
-1.67064
-1.74083
-1.81282
-1.88719
-0.549547
-0.550749
-0.551672
-0.553531
-0.55626
-0.559953
-0.564662
-0.570419
-0.577247
-0.585162
-0.59418
-0.604315
-0.615577
-0.627977
-0.641522
-0.656221
-0.672085
-0.689128
-0.70739
-0.726961
)
;

boundaryField
{
    leftWall
    {
        type            fixedFluxPressure;
        gradient        uniform 0;
        value           nonuniform List<scalar> 
44
(
766.978
766.022
764.062
762.156
760.375
758.507
756.477
754.335
752.092
749.721
747.165
744.428
741.563
738.473
736.891
427.37
-0.547572
-0.188332
-0.20693
-0.212529
-0.21687
-0.226387
-0.236917
-0.248513
-0.260512
-0.272968
-0.285957
-0.299563
-0.313887
-0.329016
-0.344988
-0.361756
-0.379177
-0.397023
-0.415027
-0.432918
-0.450449
-0.467408
-0.483613
-0.498919
-0.513221
-0.526442
-0.538549
-0.549547
)
;
    }
    rightWall
    {
        type            fixedFluxPressure;
        gradient        nonuniform 0();
        value           nonuniform 0();
    }
    lowerWall
    {
        type            fixedFluxPressure;
        gradient        uniform 0;
        value           nonuniform List<scalar> 
44
(
766.978
765.07
767.039
771.439
777.319
783.396
789.035
793.976
798.164
801.648
804.53
806.928
808.957
810.725
812.329
813.857
815.387
816.992
818.735
820.68
822.889
825.425
828.357
831.761
835.727
840.359
845.785
852.162
859.691
868.632
879.363
892.019
906.908
924.255
944.233
966.845
991.716
1017.95
1044.07
1068.18
1088.68
1102.28
1108.03
1114.88
)
;
    }
    atmosphere
    {
        type            totalPressure;
        rho             rho;
        psi             none;
        gamma           1;
        p0              nonuniform 0();
        value           nonuniform 0();
    }
    defaultFaces
    {
        type            empty;
    }
    procBoundary0to1
    {
        type            processor;
        value           nonuniform List<scalar> 
44
(
1132.32
1111.94
1105.5
1119.47
1141.51
1162.14
1175.75
1175.2
1151.58
1086.88
951.053
870.844
859.046
856.928
856.458
861.267
869.916
880.793
892.329
903.13
903.13
933.9
993.414
154.373
-2.55512
-1.73336
-1.80715
-1.87727
-1.89024
-1.8943
-1.89923
-1.90345
-1.90641
-1.90858
-1.91042
-1.91225
-1.9144
-1.91731
-1.92141
-1.92703
-1.93421
-1.94266
-1.95292
-1.96543
)
;
    }
    procBoundary0to2
    {
        type            processor;
        value           nonuniform List<scalar> 
46
(
-0.74794
-0.770386
-0.794319
-0.819789
-0.846896
-0.875775
-0.906573
-0.939453
-0.974594
-1.01219
-1.05242
-1.09549
-1.14154
-1.19066
-1.24288
-1.29812
-1.35622
-1.41691
-1.4799
-1.54489
-1.61166
-1.68014
-1.7503
-1.82296
-1.89905
-0.559448
-0.560764
-0.562047
-0.56424
-0.567297
-0.571286
-0.576249
-0.582216
-0.589213
-0.597258
-0.606372
-0.61657
-0.627867
-0.640276
-0.653808
-0.668472
-0.684282
-0.701261
-0.719454
-0.74794
-0.738941
)
;
    }
}


// ************************************************************************* //
