/*--------------------------------*- C++ -*----------------------------------*\
| =========                 |                                                 |
| \\      /  F ield         | OpenFOAM: The Open Source CFD Toolbox           |
|  \\    /   O peration     | Version:  5.0                                   |
|   \\  /    A nd           | Web:      www.OpenFOAM.org                      |
|    \\/     M anipulation  |                                                 |
\*---------------------------------------------------------------------------*/
FoamFile
{
    version     2.0;
    format      ascii;
    class       volVectorField;
    location    "0.45";
    object      U;
}
// * * * * * * * * * * * * * * * * * * * * * * * * * * * * * * * * * * * * * //

dimensions      [0 1 -1 0 0 0 0];

internalField   nonuniform List<vector> 
1935
(
(-0.0325992 0.0186591 0)
(-0.0608885 0.0100548 0)
(-0.0662527 -0.00305923 0)
(-0.0524212 -0.0109512 0)
(-0.0307669 -0.0143721 0)
(-0.00465227 -0.0153552 0)
(0.0229699 -0.0153136 0)
(0.0505298 -0.0147152 0)
(0.0772653 -0.0138795 0)
(0.10279 -0.012985 0)
(0.12698 -0.0121204 0)
(0.149865 -0.0113289 0)
(0.17155 -0.0106286 0)
(0.192165 -0.0100218 0)
(0.211841 -0.00950169 0)
(0.230703 -0.00905669 0)
(0.248852 -0.00867292 0)
(0.26637 -0.00833566 0)
(0.28331 -0.00802994 0)
(0.299699 -0.00774088 0)
(0.315539 -0.00745359 0)
(0.330802 -0.00715303 0)
(0.345429 -0.0068236 0)
(0.359333 -0.0064485 0)
(0.372389 -0.00600889 0)
(0.38443 -0.00548256 0)
(0.395241 -0.00484185 0)
(0.404539 -0.00404985 0)
(0.411963 -0.00304828 0)
(0.416968 -0.00173546 0)
(0.419213 0.000218455 0)
(0.4168 0.00267967 0)
(0.408806 0.00586413 0)
(0.394225 0.00984633 0)
(0.371798 0.0146011 0)
(0.340168 0.020063 0)
(0.298123 0.0260306 0)
(0.244898 0.0320496 0)
(0.180595 0.037386 0)
(0.106238 0.0412359 0)
(0.0262438 0.0435915 0)
(-0.0616305 0.047291 0)
(-0.165766 0.0318697 0)
(-0.219708 -0.00938023 0)
(-0.0322409 0.0458969 0)
(-0.0350787 0.0193383 0)
(-0.0280246 -0.00499802 0)
(-0.0135717 -0.0199255 0)
(0.00700021 -0.0274415 0)
(0.030726 -0.0307292 0)
(0.0557712 -0.0316094 0)
(0.0810423 -0.0311716 0)
(0.105884 -0.0300763 0)
(0.129953 -0.0287069 0)
(0.153108 -0.0272802 0)
(0.175327 -0.0259141 0)
(0.196655 -0.0246659 0)
(0.217167 -0.0235555 0)
(0.236948 -0.0225804 0)
(0.256075 -0.0217251 0)
(0.274615 -0.0209668 0)
(0.292618 -0.0202785 0)
(0.310111 -0.0196314 0)
(0.327101 -0.0189953 0)
(0.343571 -0.018339 0)
(0.35948 -0.0176297 0)
(0.374758 -0.0168325 0)
(0.389308 -0.0159088 0)
(0.403 -0.0148149 0)
(0.415664 -0.0134989 0)
(0.427089 -0.0118973 0)
(0.437009 -0.00992822 0)
(0.445103 -0.00747745 0)
(0.450996 -0.0043874 0)
(0.454158 -0.000371003 0)
(0.454653 0.00471553 0)
(0.451686 0.011081 0)
(0.444218 0.0188826 0)
(0.431114 0.0282535 0)
(0.411053 0.0392505 0)
(0.382484 0.0517032 0)
(0.3437 0.0650388 0)
(0.293105 0.0781584 0)
(0.229658 0.0894587 0)
(0.154905 0.0975675 0)
(0.0742667 0.102272 0)
(-0.0116977 0.0895226 0)
(-0.0698743 0.035226 0)
(-0.01751 0.0632972 0)
(-0.0109914 0.0158418 0)
(-0.00137186 -0.0153869 0)
(0.0143239 -0.0335683 0)
(0.0339218 -0.0432783 0)
(0.0558162 -0.0477692 0)
(0.0787898 -0.0491055 0)
(0.102049 -0.0486345 0)
(0.125101 -0.0472119 0)
(0.147666 -0.045362 0)
(0.16961 -0.0433948 0)
(0.19089 -0.0414843 0)
(0.211517 -0.0397185 0)
(0.23153 -0.0381312 0)
(0.250976 -0.0367226 0)
(0.269902 -0.0354728 0)
(0.288347 -0.0343499 0)
(0.306337 -0.0333153 0)
(0.323879 -0.0323264 0)
(0.340964 -0.0313379 0)
(0.357564 -0.0303022 0)
(0.373625 -0.0291691 0)
(0.389072 -0.0278842 0)
(0.403804 -0.0263874 0)
(0.417688 -0.0246101 0)
(0.430558 -0.0224724 0)
(0.44221 -0.0198782 0)
(0.452394 -0.01671 0)
(0.460816 -0.0128215 0)
(0.46713 -0.00803192 0)
(0.470915 -0.00212745 0)
(0.471856 0.00521696 0)
(0.469497 0.0142725 0)
(0.463228 0.0253312 0)
(0.452375 0.0386645 0)
(0.436192 0.0544443 0)
(0.413845 0.0726086 0)
(0.384398 0.0926447 0)
(0.346837 0.113324 0)
(0.300207 0.132458 0)
(0.244488 0.146975 0)
(0.183268 0.152359 0)
(0.118963 0.135671 0)
(0.0586378 0.0754652 0)
(-0.00245293 0.0677881 0)
(0.00691034 0.00992555 0)
(0.0193134 -0.0259178 0)
(0.0362333 -0.0470792 0)
(0.0555271 -0.0586455 0)
(0.0762426 -0.0641254 0)
(0.0976751 -0.0658568 0)
(0.119328 -0.0653967 0)
(0.140874 -0.0637516 0)
(0.162118 -0.0615515 0)
(0.182951 -0.0591768 0)
(0.203327 -0.0568458 0)
(0.223241 -0.0546715 0)
(0.242706 -0.0526997 0)
(0.261744 -0.0509334 0)
(0.280377 -0.0493494 0)
(0.298622 -0.0479088 0)
(0.316486 -0.0465627 0)
(0.333961 -0.0452567 0)
(0.351025 -0.0439321 0)
(0.367638 -0.0425264 0)
(0.383741 -0.040973 0)
(0.399253 -0.0391998 0)
(0.41407 -0.0371266 0)
(0.428061 -0.0346622 0)
(0.441064 -0.0317008 0)
(0.452886 -0.0281177 0)
(0.463295 -0.0237638 0)
(0.472019 -0.0184604 0)
(0.478749 -0.0119945 0)
(0.483129 -0.00411783 0)
(0.484811 0.00549112 0)
(0.483416 0.0171546 0)
(0.47852 0.031205 0)
(0.469688 0.0479439 0)
(0.456479 0.0675712 0)
(0.438457 0.090062 0)
(0.415169 0.114957 0)
(0.386111 0.141057 0)
(0.350696 0.166018 0)
(0.308468 0.185917 0)
(0.260278 0.194331 0)
(0.207002 0.178615 0)
(0.147353 0.121159 0)
(0.00738808 0.0600857 0)
(0.0196733 0.00103177 0)
(0.0354169 -0.0380684 0)
(0.0538214 -0.0610638 0)
(0.0732761 -0.0737079 0)
(0.0933306 -0.0797622 0)
(0.113685 -0.0817327 0)
(0.13411 -0.0812854 0)
(0.15444 -0.0795049 0)
(0.174569 -0.0770794 0)
(0.19443 -0.0744319 0)
(0.213988 -0.0718092 0)
(0.233231 -0.069342 0)
(0.25216 -0.0670851 0)
(0.270778 -0.0650441 0)
(0.289092 -0.0631936 0)
(0.3071 -0.0614891 0)
(0.324795 -0.0598738 0)
(0.342155 -0.0582831 0)
(0.359149 -0.0566466 0)
(0.375729 -0.054889 0)
(0.391828 -0.0529293 0)
(0.407365 -0.0506791 0)
(0.422235 -0.0480403 0)
(0.436309 -0.0449017 0)
(0.449433 -0.0411349 0)
(0.461426 -0.0365906 0)
(0.472072 -0.0310932 0)
(0.481128 -0.0244376 0)
(0.488318 -0.0163857 0)
(0.493337 -0.00666641 0)
(0.495872 0.00504071 0)
(0.495609 0.0190746 0)
(0.492233 0.0357693 0)
(0.485451 0.0554163 0)
(0.475001 0.0781988 0)
(0.460654 0.10408 0)
(0.442182 0.132616 0)
(0.419293 0.162666 0)
(0.391519 0.191957 0)
(0.358127 0.216467 0)
(0.318335 0.229413 0)
(0.2705 0.219116 0)
(0.21067 0.170209 0)
(0.0115088 0.046931 0)
(0.028155 -0.0118775 0)
(0.0477827 -0.0521715 0)
(0.0679788 -0.0757733 0)
(0.0879243 -0.0886815 0)
(0.107683 -0.0948427 0)
(0.127314 -0.0968297 0)
(0.14682 -0.0963298 0)
(0.166187 -0.0944412 0)
(0.185393 -0.0918672 0)
(0.204418 -0.0890453 0)
(0.223249 -0.0862342 0)
(0.241877 -0.0835728 0)
(0.260297 -0.0811199 0)
(0.278504 -0.0788817 0)
(0.29649 -0.0768306 0)
(0.314244 -0.074917 0)
(0.331745 -0.0730776 0)
(0.348963 -0.0712392 0)
(0.365858 -0.0693217 0)
(0.382375 -0.0672383 0)
(0.398446 -0.0648955 0)
(0.413986 -0.0621908 0)
(0.428891 -0.0590105 0)
(0.443039 -0.0552262 0)
(0.456284 -0.0506903 0)
(0.468458 -0.0452327 0)
(0.479365 -0.038657 0)
(0.488787 -0.0307374 0)
(0.496482 -0.0212179 0)
(0.50219 -0.00981293 0)
(0.505645 0.00379663 0)
(0.506593 0.0199436 0)
(0.504795 0.0389451 0)
(0.500054 0.0610652 0)
(0.492218 0.0864577 0)
(0.48117 0.11507 0)
(0.466784 0.146486 0)
(0.448835 0.179671 0)
(0.426831 0.212577 0)
(0.399779 0.241517 0)
(0.365894 0.260226 0)
(0.321656 0.258479 0)
(0.261002 0.222381 0)
(0.0131389 0.0313854 0)
(0.0344494 -0.028352 0)
(0.0576164 -0.0683326 0)
(0.0795762 -0.0913711 0)
(0.100131 -0.10379 0)
(0.119801 -0.109615 0)
(0.138947 -0.111384 0)
(0.157766 -0.110731 0)
(0.176367 -0.108718 0)
(0.194808 -0.106029 0)
(0.213115 -0.103092 0)
(0.231299 -0.100165 0)
(0.249362 -0.0973826 0)
(0.267301 -0.094804 0)
(0.285105 -0.0924325 0)
(0.302761 -0.0902367 0)
(0.320247 -0.0881625 0)
(0.337534 -0.0861404 0)
(0.354587 -0.0840897 0)
(0.371357 -0.0819218 0)
(0.387787 -0.0795402 0)
(0.403806 -0.0768403 0)
(0.419329 -0.0737078 0)
(0.434255 -0.0700158 0)
(0.448468 -0.065621 0)
(0.461832 -0.0603601 0)
(0.474194 -0.0540464 0)
(0.485378 -0.0464667 0)
(0.495192 -0.0373803 0)
(0.503427 -0.0265187 0)
(0.509863 -0.0135888 0)
(0.51428 0.00172411 0)
(0.516475 0.0197376 0)
(0.516272 0.0407429 0)
(0.513539 0.0649697 0)
(0.5082 0.0925397 0)
(0.500208 0.123392 0)
(0.4895 0.157161 0)
(0.475878 0.19297 0)
(0.458812 0.229104 0)
(0.437118 0.262474 0)
(0.408409 0.287845 0)
(0.367937 0.296838 0)
(0.307556 0.277606 0)
(0.0148897 0.0134228 0)
(0.0400234 -0.047848 0)
(0.0659672 -0.0863063 0)
(0.0893858 -0.107794 0)
(0.110483 -0.1191 0)
(0.130139 -0.124218 0)
(0.148941 -0.125557 0)
(0.167229 -0.124644 0)
(0.18521 -0.122468 0)
(0.203006 -0.119669 0)
(0.220686 -0.116652 0)
(0.238287 -0.113655 0)
(0.255825 -0.110806 0)
(0.273303 -0.108156 0)
(0.29071 -0.105703 0)
(0.308028 -0.10341 0)
(0.32523 -0.101217 0)
(0.342282 -0.0990495 0)
(0.359144 -0.0968195 0)
(0.375763 -0.0944309 0)
(0.392078 -0.0917788 0)
(0.408018 -0.0887493 0)
(0.4235 -0.0852181 0)
(0.438426 -0.0810472 0)
(0.452687 -0.0760817 0)
(0.466161 -0.0701454 0)
(0.478707 -0.0630383 0)
(0.490172 -0.0545349 0)
(0.500388 -0.0443838 0)
(0.509179 -0.0323094 0)
(0.516363 -0.0180155 0)
(0.521761 -0.00119508 0)
(0.525215 0.018451 0)
(0.526595 0.0411839 0)
(0.525823 0.0671943 0)
(0.522881 0.0965708 0)
(0.517787 0.129249 0)
(0.510537 0.164925 0)
(0.500988 0.202908 0)
(0.488646 0.241879 0)
(0.472299 0.279498 0)
(0.449354 0.31187 0)
(0.414497 0.332917 0)
(0.357806 0.333901 0)
(0.0170293 -0.00719119 0)
(0.0452452 -0.0698333 0)
(0.0733971 -0.105706 0)
(0.0979323 -0.124863 0)
(0.11943 -0.13458 0)
(0.139067 -0.138702 0)
(0.157597 -0.139437 0)
(0.175455 -0.138165 0)
(0.192917 -0.135779 0)
(0.210155 -0.132861 0)
(0.227276 -0.129777 0)
(0.244342 -0.126742 0)
(0.261385 -0.123866 0)
(0.278416 -0.121188 0)
(0.295425 -0.118695 0)
(0.312395 -0.116344 0)
(0.329295 -0.114069 0)
(0.346088 -0.111789 0)
(0.362729 -0.10941 0)
(0.379165 -0.106829 0)
(0.395333 -0.103934 0)
(0.411162 -0.100603 0)
(0.426569 -0.0967036 0)
(0.441464 -0.0920893 0)
(0.455747 -0.0865959 0)
(0.469306 -0.0800376 0)
(0.482018 -0.0722042 0)
(0.493749 -0.0628616 0)
(0.504358 -0.0517522 0)
(0.5137 -0.0385969 0)
(0.52163 -0.0231001 0)
(0.528006 -0.00496329 0)
(0.532705 0.0160932 0)
(0.535637 0.0402973 0)
(0.536767 0.0677963 0)
(0.536129 0.0986395 0)
(0.533809 0.132753 0)
(0.52989 0.169888 0)
(0.524341 0.209535 0)
(0.516821 0.25077 0)
(0.506334 0.292029 0)
(0.490568 0.330857 0)
(0.464544 0.363788 0)
(0.417529 0.386623 0)
(0.0191098 -0.0303263 0)
(0.0500934 -0.0939199 0)
(0.0801388 -0.126225 0)
(0.105507 -0.142408 0)
(0.127245 -0.15017 0)
(0.146827 -0.153082 0)
(0.165119 -0.153077 0)
(0.182616 -0.151358 0)
(0.199632 -0.148713 0)
(0.216379 -0.145657 0)
(0.232994 -0.142509 0)
(0.249565 -0.139453 0)
(0.266138 -0.136578 0)
(0.282731 -0.133902 0)
(0.299343 -0.131403 0)
(0.315953 -0.129027 0)
(0.332532 -0.126701 0)
(0.349039 -0.124337 0)
(0.365429 -0.121837 0)
(0.381646 -0.119091 0)
(0.397629 -0.115979 0)
(0.413305 -0.112374 0)
(0.428597 -0.108137 0)
(0.44342 -0.103116 0)
(0.457682 -0.0971391 0)
(0.471286 -0.0900146 0)
(0.484125 -0.0815249 0)
(0.496088 -0.0714307 0)
(0.507057 -0.0594721 0)
(0.516921 -0.0453701 0)
(0.525569 -0.0288319 0)
(0.532895 -0.0095662 0)
(0.538806 0.0126881 0)
(0.543241 0.0381235 0)
(0.546199 0.066837 0)
(0.547763 0.098826 0)
(0.548096 0.133988 0)
(0.547393 0.172104 0)
(0.545798 0.212798 0)
(0.543244 0.255468 0)
(0.539194 0.299198 0)
(0.53216 0.342768 0)
(0.518687 0.385098 0)
(0.489835 0.427211 0)
(0.0209495 -0.0560877 0)
(0.0546444 -0.120136 0)
(0.0863899 -0.147848 0)
(0.112305 -0.16043 0)
(0.134094 -0.165932 0)
(0.153562 -0.167473 0)
(0.17164 -0.166621 0)
(0.188827 -0.164379 0)
(0.205459 -0.161424 0)
(0.221773 -0.158201 0)
(0.237932 -0.154982 0)
(0.254044 -0.151914 0)
(0.270171 -0.149055 0)
(0.286342 -0.146406 0)
(0.302557 -0.143924 0)
(0.318799 -0.141548 0)
(0.335038 -0.139194 0)
(0.351234 -0.136771 0)
(0.36734 -0.134171 0)
(0.383301 -0.131281 0)
(0.399054 -0.127976 0)
(0.414531 -0.124121 0)
(0.429657 -0.119573 0)
(0.444351 -0.114177 0)
(0.458536 -0.107759 0)
(0.472127 -0.100122 0)
(0.485036 -0.0910427 0)
(0.497173 -0.0802806 0)
(0.508448 -0.0675777 0)
(0.518781 -0.0526594 0)
(0.528099 -0.035236 0)
(0.536333 -0.0150203 0)
(0.543413 0.00823434 0)
(0.549299 0.0346838 0)
(0.554013 0.0643657 0)
(0.557681 0.0972053 0)
(0.560543 0.133042 0)
(0.562923 0.171643 0)
(0.565172 0.212689 0)
(0.567571 0.255768 0)
(0.570187 0.300339 0)
(0.572723 0.345853 0)
(0.574423 0.392466 0)
(0.573755 0.443853 0)
(0.0224904 -0.0844883 0)
(0.0592268 -0.148532 0)
(0.0923928 -0.170462 0)
(0.118366 -0.178775 0)
(0.139912 -0.18179 0)
(0.159186 -0.181884 0)
(0.177074 -0.180124 0)
(0.194014 -0.177295 0)
(0.210332 -0.17398 0)
(0.226281 -0.170559 0)
(0.242045 -0.167254 0)
(0.25775 -0.164172 0)
(0.27347 -0.16134 0)
(0.289245 -0.158731 0)
(0.30508 -0.156285 0)
(0.320959 -0.153926 0)
(0.336851 -0.151563 0)
(0.352719 -0.149097 0)
(0.368513 -0.146416 0)
(0.384181 -0.1434 0)
(0.399661 -0.139919 0)
(0.414887 -0.135834 0)
(0.429786 -0.130998 0)
(0.444286 -0.125257 0)
(0.45832 -0.118437 0)
(0.47182 -0.110338 0)
(0.484719 -0.100737 0)
(0.496948 -0.0893907 0)
(0.508443 -0.0760501 0)
(0.519162 -0.06045 0)
(0.529077 -0.0423051 0)
(0.538154 -0.021326 0)
(0.546348 0.00272855 0)
(0.553628 0.0299807 0)
(0.560023 0.0603988 0)
(0.565689 0.0938115 0)
(0.570932 0.129965 0)
(0.576192 0.168561 0)
(0.582023 0.209249 0)
(0.589022 0.251664 0)
(0.597766 0.29535 0)
(0.608867 0.3398 0)
(0.623314 0.384888 0)
(0.643274 0.432482 0)
(0.0235551 -0.115252 0)
(0.0647952 -0.17905 0)
(0.0985519 -0.193559 0)
(0.12358 -0.196976 0)
(0.144409 -0.197535 0)
(0.163392 -0.196275 0)
(0.181136 -0.193607 0)
(0.197909 -0.19015 0)
(0.214005 -0.186432 0)
(0.229683 -0.182784 0)
(0.245142 -0.179382 0)
(0.26052 -0.176287 0)
(0.275903 -0.17349 0)
(0.291339 -0.170936 0)
(0.306836 -0.168542 0)
(0.32238 -0.166215 0)
(0.337942 -0.163857 0)
(0.353481 -0.161361 0)
(0.368953 -0.15861 0)
(0.384303 -0.155477 0)
(0.399473 -0.15183 0)
(0.414398 -0.147521 0)
(0.429007 -0.142406 0)
(0.443236 -0.136333 0)
(0.457029 -0.129135 0)
(0.47034 -0.120612 0)
(0.483121 -0.11054 0)
(0.495326 -0.0986818 0)
(0.506924 -0.0847998 0)
(0.517909 -0.0686479 0)
(0.528307 -0.0499485 0)
(0.538132 -0.0284012 0)
(0.547363 -0.00375484 0)
(0.555968 0.0240876 0)
(0.563966 0.0550205 0)
(0.571517 0.0887501 0)
(0.57897 0.124896 0)
(0.586838 0.163055 0)
(0.595829 0.202765 0)
(0.606773 0.243626 0)
(0.620527 0.285123 0)
(0.638061 0.32653 0)
(0.660696 0.366968 0)
(0.690569 0.405743 0)
(0.0254277 -0.150722 0)
(0.0736566 -0.211928 0)
(0.105226 -0.216362 0)
(0.127517 -0.214758 0)
(0.1471 -0.213437 0)
(0.165747 -0.21112 0)
(0.183413 -0.207571 0)
(0.200108 -0.203434 0)
(0.216087 -0.19927 0)
(0.231614 -0.195367 0)
(0.24689 -0.191857 0)
(0.26206 -0.188749 0)
(0.277214 -0.185998 0)
(0.292404 -0.183514 0)
(0.307644 -0.181186 0)
(0.322918 -0.178906 0)
(0.338198 -0.176562 0)
(0.353444 -0.174039 0)
(0.36861 -0.171214 0)
(0.383642 -0.167955 0)
(0.398483 -0.164125 0)
(0.413067 -0.159573 0)
(0.427327 -0.154155 0)
(0.441204 -0.147728 0)
(0.454655 -0.140134 0)
(0.467654 -0.131184 0)
(0.48018 -0.120654 0)
(0.492214 -0.108316 0)
(0.503756 -0.0939535 0)
(0.514849 -0.077348 0)
(0.525576 -0.0582344 0)
(0.536017 -0.0362923 0)
(0.546185 -0.0112385 0)
(0.556044 0.0170148 0)
(0.565586 0.0482843 0)
(0.574945 0.08213 0)
(0.584476 0.118018 0)
(0.594689 0.155412 0)
(0.606384 0.19367 0)
(0.62054 0.23236 0)
(0.638113 0.270916 0)
(0.660105 0.308454 0)
(0.687652 0.343689 0)
(0.722233 0.374915 0)
(0.0395578 -0.193053 0)
(0.0900349 -0.246139 0)
(0.111181 -0.236826 0)
(0.129035 -0.231132 0)
(0.147438 -0.229097 0)
(0.165838 -0.226184 0)
(0.183441 -0.22183 0)
(0.200093 -0.216985 0)
(0.216045 -0.212321 0)
(0.231554 -0.208087 0)
(0.246803 -0.204378 0)
(0.261924 -0.20116 0)
(0.277004 -0.198353 0)
(0.292091 -0.195842 0)
(0.3072 -0.193486 0)
(0.322318 -0.191166 0)
(0.337417 -0.188762 0)
(0.352457 -0.186151 0)
(0.367385 -0.183205 0)
(0.382143 -0.179794 0)
(0.396669 -0.175784 0)
(0.410899 -0.17101 0)
(0.424767 -0.165328 0)
(0.43822 -0.158612 0)
(0.451224 -0.150719 0)
(0.463769 -0.141469 0)
(0.475864 -0.130641 0)
(0.487531 -0.118014 0)
(0.498816 -0.103395 0)
(0.509817 -0.0865973 0)
(0.520684 -0.0673591 0)
(0.531568 -0.0452997 0)
(0.542539 -0.020056 0)
(0.553583 0.00846419 0)
(0.564648 0.0399538 0)
(0.575812 0.0738302 0)
(0.587392 0.109372 0)
(0.599775 0.145893 0)
(0.613795 0.18243 0)
(0.630521 0.218599 0)
(0.65089 0.25386 0)
(0.675806 0.287324 0)
(0.70614 0.317634 0)
(0.742744 0.342937 0)
(0.0926817 -0.24536 0)
(0.115845 -0.275872 0)
(0.112531 -0.249575 0)
(0.127777 -0.242939 0)
(0.146108 -0.241554 0)
(0.164093 -0.238372 0)
(0.181311 -0.23338 0)
(0.197804 -0.227949 0)
(0.213761 -0.222827 0)
(0.229369 -0.218225 0)
(0.244751 -0.214232 0)
(0.259998 -0.210784 0)
(0.27518 -0.207785 0)
(0.290325 -0.205106 0)
(0.305447 -0.202585 0)
(0.320549 -0.200102 0)
(0.335606 -0.197538 0)
(0.350578 -0.194787 0)
(0.365385 -0.191716 0)
(0.379956 -0.188178 0)
(0.394219 -0.184041 0)
(0.408111 -0.179138 0)
(0.421592 -0.173346 0)
(0.434589 -0.166537 0)
(0.447056 -0.15857 0)
(0.458982 -0.14926 0)
(0.470408 -0.13839 0)
(0.481422 -0.125748 0)
(0.492147 -0.111173 0)
(0.502743 -0.0945528 0)
(0.513435 -0.0757155 0)
(0.524499 -0.0542889 0)
(0.536125 -0.0297224 0)
(0.548313 -0.00173409 0)
(0.560975 0.0294176 0)
(0.574125 0.0630626 0)
(0.587945 0.0983275 0)
(0.602481 0.13427 0)
(0.618595 0.169211 0)
(0.637416 0.202891 0)
(0.659778 0.234865 0)
(0.686464 0.264367 0)
(0.71809 0.29021 0)
(0.754986 0.310744 0)
(0.236589 -0.336218 0)
(0.115672 -0.26031 0)
(0.101088 -0.243808 0)
(0.123445 -0.247188 0)
(0.143213 -0.249271 0)
(0.16056 -0.246302 0)
(0.177335 -0.240996 0)
(0.193828 -0.235262 0)
(0.210019 -0.229857 0)
(0.225969 -0.224924 0)
(0.241721 -0.220592 0)
(0.257297 -0.216782 0)
(0.272749 -0.213404 0)
(0.288066 -0.210331 0)
(0.303262 -0.20739 0)
(0.318353 -0.204479 0)
(0.333413 -0.20148 0)
(0.348406 -0.198443 0)
(0.36303 -0.19519 0)
(0.377222 -0.191536 0)
(0.391013 -0.187344 0)
(0.40447 -0.182428 0)
(0.417503 -0.17677 0)
(0.429844 -0.170169 0)
(0.441487 -0.162424 0)
(0.452457 -0.153334 0)
(0.462862 -0.14268 0)
(0.472913 -0.130276 0)
(0.482893 -0.116014 0)
(0.493111 -0.0998353 0)
(0.503822 -0.081508 0)
(0.515207 -0.0606619 0)
(0.527295 -0.0370416 0)
(0.540191 -0.010336 0)
(0.554238 0.0191654 0)
(0.569801 0.0507763 0)
(0.586745 0.0842224 0)
(0.603814 0.119476 0)
(0.622105 0.153224 0)
(0.642691 0.185106 0)
(0.666377 0.214383 0)
(0.693926 0.240438 0)
(0.725788 0.26244 0)
(0.761953 0.279229 0)
(0.073692 -0.520415 0)
(0.0497836 -0.206423 0)
(0.0824193 -0.244625 0)
(0.114728 -0.282767 0)
(0.139639 -0.269046 0)
(0.156354 -0.259734 0)
(0.172854 -0.253051 0)
(0.189665 -0.247289 0)
(0.206429 -0.242353 0)
(0.223094 -0.238386 0)
(0.239628 -0.235412 0)
(0.256014 -0.233376 0)
(0.272342 -0.232181 0)
(0.288654 -0.231695 0)
(0.30515 -0.231966 0)
(0.322089 -0.232908 0)
(0.340441 -0.23468 0)
(0.35889 -0.233659 0)
(0.37581 -0.229947 0)
(0.391532 -0.225369 0)
(0.405947 -0.219644 0)
(0.41904 -0.212295 0)
(0.427746 -0.201331 0)
(0.435011 -0.189801 0)
(0.442108 -0.17794 0)
(0.449439 -0.165478 0)
(0.456977 -0.152203 0)
(0.464623 -0.137828 0)
(0.472412 -0.122042 0)
(0.48045 -0.104599 0)
(0.488894 -0.0853008 0)
(0.499342 -0.0637729 0)
(0.512326 -0.0415144 0)
(0.527011 -0.01671 0)
(0.544338 0.011349 0)
(0.563744 0.0421906 0)
(0.58375 0.0740322 0)
(0.604496 0.105626 0)
(0.626613 0.134862 0)
(0.649047 0.164525 0)
(0.673362 0.192006 0)
(0.700852 0.215696 0)
(0.732018 0.23483 0)
(0.766735 0.248869 0)
(-0.103306 -0.493449 0)
(-0.023547 -0.267399 0)
(0.0347569 -0.283357 0)
(0.0730856 -0.31031 0)
(0.104033 -0.311685 0)
(0.134413 -0.303855 0)
(0.162421 -0.296495 0)
(0.187929 -0.289842 0)
(0.211659 -0.283576 0)
(0.234167 -0.277829 0)
(0.255736 -0.272711 0)
(0.276545 -0.268138 0)
(0.296744 -0.263935 0)
(0.316435 -0.259892 0)
(0.335661 -0.255797 0)
(0.354334 -0.251429 0)
(0.372202 -0.246548 0)
(0.389307 -0.241296 0)
(0.406089 -0.235851 0)
(0.422506 -0.230106 0)
(0.43819 -0.223712 0)
(0.453155 -0.216523 0)
(0.467559 -0.20903 0)
(0.481606 -0.201569 0)
(0.494673 -0.193363 0)
(0.506482 -0.183581 0)
(0.516975 -0.171943 0)
(0.525998 -0.158546 0)
(0.53311 -0.143481 0)
(0.537522 -0.126625 0)
(0.538728 -0.10797 0)
(0.538355 -0.0871534 0)
(0.508337 -0.0565581 0)
(0.50988 -0.0283365 0)
(0.523138 0.00205391 0)
(0.54458 0.0342848 0)
(0.572963 0.0664386 0)
(0.608368 0.0973632 0)
(0.634855 0.123434 0)
(0.658633 0.147927 0)
(0.68423 0.169458 0)
(0.711047 0.19 0)
(0.740362 0.207168 0)
(0.772707 0.219579 0)
(-0.0620476 -0.382265 0)
(-0.0296754 -0.333749 0)
(0.0246293 -0.326169 0)
(0.06291 -0.329324 0)
(0.0962648 -0.322548 0)
(0.129204 -0.312467 0)
(0.160809 -0.303108 0)
(0.190397 -0.294868 0)
(0.218135 -0.287615 0)
(0.244362 -0.281329 0)
(0.26933 -0.275983 0)
(0.293224 -0.271473 0)
(0.316189 -0.267643 0)
(0.338325 -0.264316 0)
(0.359671 -0.261315 0)
(0.380157 -0.258401 0)
(0.399647 -0.255229 0)
(0.418303 -0.251148 0)
(0.436544 -0.246089 0)
(0.454461 -0.240205 0)
(0.471915 -0.233333 0)
(0.488961 -0.225324 0)
(0.505755 -0.21622 0)
(0.522175 -0.206602 0)
(0.537618 -0.196219 0)
(0.551693 -0.184563 0)
(0.564195 -0.171259 0)
(0.574887 -0.156028 0)
(0.583407 -0.138528 0)
(0.589237 -0.118252 0)
(0.592678 -0.0947844 0)
(0.595162 -0.0695114 0)
(0.594148 -0.0514436 0)
(0.595416 -0.0480176 0)
(0.597918 -0.0342854 0)
(0.580001 -0.00730767 0)
(0.5654 0.0312843 0)
(0.599006 0.0775849 0)
(0.632625 0.112668 0)
(0.671665 0.1382 0)
(0.701241 0.15613 0)
(0.727111 0.170596 0)
(0.754757 0.18146 0)
(0.783783 0.191303 0)
(-0.0257104 -0.367869 0)
(-0.0114159 -0.366216 0)
(0.0284603 -0.361655 0)
(0.0644147 -0.358463 0)
(0.0984958 -0.350142 0)
(0.132135 -0.339308 0)
(0.164992 -0.32853 0)
(0.196476 -0.318699 0)
(0.226438 -0.310026 0)
(0.254964 -0.302539 0)
(0.282185 -0.29618 0)
(0.308223 -0.290818 0)
(0.333189 -0.286274 0)
(0.357168 -0.282339 0)
(0.380209 -0.27879 0)
(0.402325 -0.275363 0)
(0.423513 -0.271697 0)
(0.44392 -0.267327 0)
(0.463792 -0.26205 0)
(0.483237 -0.255848 0)
(0.502267 -0.248619 0)
(0.520915 -0.240242 0)
(0.539223 -0.230715 0)
(0.557011 -0.220217 0)
(0.573905 -0.208615 0)
(0.58962 -0.195587 0)
(0.603972 -0.180795 0)
(0.616798 -0.163903 0)
(0.627978 -0.144541 0)
(0.637537 -0.122383 0)
(0.646062 -0.0973611 0)
(0.654906 -0.0710894 0)
(0.663304 -0.0486691 0)
(0.668969 -0.0315357 0)
(0.670996 -0.00891522 0)
(0.668517 0.00920185 0)
(0.668481 0.00650046 0)
(0.683136 0.0057064 0)
(0.637532 0.0690091 0)
(0.67147 0.114627 0)
(0.709149 0.144029 0)
(0.747937 0.159073 0)
(0.776152 0.166716 0)
(0.801964 0.171168 0)
(0.829688 0.171835 0)
(-0.0136106 -0.356552 0)
(0.00205317 -0.388411 0)
(0.0360035 -0.391699 0)
(0.0704058 -0.388145 0)
(0.104578 -0.379618 0)
(0.138453 -0.368537 0)
(0.171789 -0.35701 0)
(0.204171 -0.346118 0)
(0.23537 -0.336297 0)
(0.265329 -0.327683 0)
(0.294068 -0.320256 0)
(0.321639 -0.313894 0)
(0.348107 -0.30841 0)
(0.373535 -0.30358 0)
(0.397978 -0.299154 0)
(0.42148 -0.294854 0)
(0.444098 -0.290371 0)
(0.465954 -0.285368 0)
(0.487204 -0.279629 0)
(0.507955 -0.273031 0)
(0.528261 -0.265447 0)
(0.548153 -0.256767 0)
(0.567621 -0.246916 0)
(0.586543 -0.235879 0)
(0.604716 -0.2235 0)
(0.621969 -0.209523 0)
(0.638195 -0.19367 0)
(0.653356 -0.175667 0)
(0.667509 -0.155275 0)
(0.680913 -0.132404 0)
(0.694149 -0.107397 0)
(0.707882 -0.0815837 0)
(0.721297 -0.0574371 0)
(0.731989 -0.0350055 0)
(0.739732 -0.00982596 0)
(0.745914 0.0144102 0)
(0.749669 0.0307811 0)
(0.751956 0.045745 0)
(0.74707 0.0559448 0)
(0.766012 0.0395247 0)
(0.720098 0.0973952 0)
(0.756217 0.137721 0)
(0.789111 0.154251 0)
(0.825515 0.158687 0)
(0.852539 0.157528 0)
(-0.00850638 -0.353938 0)
(0.0118384 -0.410177 0)
(0.0448091 -0.420208 0)
(0.0787221 -0.417474 0)
(0.112805 -0.40887 0)
(0.146596 -0.397536 0)
(0.179932 -0.385473 0)
(0.212574 -0.373799 0)
(0.244318 -0.363058 0)
(0.27505 -0.353469 0)
(0.304718 -0.345059 0)
(0.333313 -0.337737 0)
(0.360852 -0.331331 0)
(0.387372 -0.325619 0)
(0.412917 -0.32035 0)
(0.437539 -0.315252 0)
(0.461307 -0.310037 0)
(0.484321 -0.304426 0)
(0.506702 -0.298194 0)
(0.528545 -0.291168 0)
(0.549913 -0.283199 0)
(0.57084 -0.27415 0)
(0.591325 -0.263911 0)
(0.61131 -0.252374 0)
(0.6307 -0.239375 0)
(0.649419 -0.224701 0)
(0.667445 -0.20813 0)
(0.684825 -0.189468 0)
(0.701704 -0.168598 0)
(0.718356 -0.145579 0)
(0.735188 -0.120825 0)
(0.752399 -0.0953264 0)
(0.769279 -0.070327 0)
(0.784333 -0.0456427 0)
(0.797665 -0.0195635 0)
(0.810033 0.00614289 0)
(0.819625 0.0289269 0)
(0.825715 0.0524579 0)
(0.82994 0.0743284 0)
(0.836072 0.081436 0)
(0.831212 0.083838 0)
(0.848322 0.0636067 0)
(0.800831 0.117008 0)
(0.83881 0.138367 0)
(0.867098 0.144787 0)
(-0.0040043 -0.35722 0)
(0.0201483 -0.434711 0)
(0.0538995 -0.449166 0)
(0.0878889 -0.446927 0)
(0.12176 -0.438088 0)
(0.155202 -0.42643 0)
(0.188202 -0.413922 0)
(0.220673 -0.401652 0)
(0.252474 -0.390187 0)
(0.283484 -0.379788 0)
(0.313614 -0.37052 0)
(0.34281 -0.362323 0)
(0.371053 -0.355049 0)
(0.398346 -0.348494 0)
(0.424717 -0.342421 0)
(0.450208 -0.336568 0)
(0.474883 -0.330668 0)
(0.498825 -0.32446 0)
(0.522129 -0.317716 0)
(0.544881 -0.310244 0)
(0.567146 -0.301873 0)
(0.588967 -0.292445 0)
(0.610364 -0.281819 0)
(0.63133 -0.269853 0)
(0.651844 -0.256385 0)
(0.6719 -0.241235 0)
(0.69154 -0.22423 0)
(0.710857 -0.20524 0)
(0.730015 -0.184221 0)
(0.749238 -0.16129 0)
(0.768759 -0.1368 0)
(0.788597 -0.111408 0)
(0.808229 -0.0857784 0)
(0.826877 -0.0598694 0)
(0.844601 -0.0331572 0)
(0.861649 -0.00670716 0)
(0.87682 0.0183762 0)
(0.88958 0.043913 0)
(0.900924 0.0689538 0)
(0.910137 0.0884944 0)
(0.915344 0.104193 0)
(0.921231 0.104883 0)
(0.917098 0.0994196 0)
(0.932089 0.068535 0)
(0.88583 0.111132 0)
(0.000532977 -0.365465 0)
(0.0277379 -0.462047 0)
(0.0625831 -0.479079 0)
(0.0966569 -0.476609 0)
(0.130114 -0.467257 0)
(0.16298 -0.455184 0)
(0.195405 -0.442286 0)
(0.22742 -0.429563 0)
(0.258948 -0.417549 0)
(0.289883 -0.406507 0)
(0.320121 -0.396523 0)
(0.349585 -0.387562 0)
(0.378222 -0.379505 0)
(0.406013 -0.372169 0)
(0.43296 -0.365336 0)
(0.459091 -0.358765 0)
(0.484456 -0.352203 0)
(0.50912 -0.345406 0)
(0.533161 -0.338146 0)
(0.556655 -0.330221 0)
(0.579666 -0.321446 0)
(0.602248 -0.31165 0)
(0.624443 -0.300676 0)
(0.646278 -0.288369 0)
(0.667782 -0.274573 0)
(0.689001 -0.259132 0)
(0.710012 -0.241913 0)
(0.730933 -0.222827 0)
(0.751917 -0.201868 0)
(0.773139 -0.17915 0)
(0.794736 -0.154945 0)
(0.816681 -0.129675 0)
(0.838659 -0.103736 0)
(0.860277 -0.0772023 0)
(0.881517 -0.0500386 0)
(0.902387 -0.0229138 0)
(0.922234 0.0035392 0)
(0.940768 0.0298685 0)
(0.958391 0.0553955 0)
(0.974312 0.0780756 0)
(0.987731 0.0982494 0)
(0.998435 0.111382 0)
(1.0052 0.118775 0)
(1.01078 0.110902 0)
(1.00512 0.100259 0)
(0.00519284 -0.378808 0)
(0.0347595 -0.491656 0)
(0.0702367 -0.509705 0)
(0.104036 -0.506302 0)
(0.136805 -0.49617 0)
(0.168892 -0.483615 0)
(0.200571 -0.470376 0)
(0.231945 -0.457317 0)
(0.262983 -0.444902 0)
(0.293596 -0.433371 0)
(0.323682 -0.422814 0)
(0.353148 -0.413214 0)
(0.381924 -0.404475 0)
(0.409968 -0.396439 0)
(0.437263 -0.388911 0)
(0.463819 -0.38167 0)
(0.489669 -0.374482 0)
(0.514861 -0.367115 0)
(0.539458 -0.359349 0)
(0.563527 -0.350978 0)
(0.587132 -0.34181 0)
(0.610334 -0.331671 0)
(0.63319 -0.320394 0)
(0.655755 -0.307823 0)
(0.678089 -0.293812 0)
(0.700269 -0.278224 0)
(0.722395 -0.260952 0)
(0.744595 -0.241933 0)
(0.767013 -0.221174 0)
(0.789791 -0.198771 0)
(0.813031 -0.174922 0)
(0.836722 -0.149908 0)
(0.860707 -0.123993 0)
(0.884795 -0.0973168 0)
(0.908948 -0.0700187 0)
(0.933101 -0.0425449 0)
(0.956902 -0.0153342 0)
(0.980179 0.0115684 0)
(1.00304 0.0375249 0)
(1.02503 0.0613142 0)
(1.04564 0.0825002 0)
(1.06408 0.099184 0)
(1.0794 0.111761 0)
(1.09083 0.117062 0)
(1.09732 0.118386 0)
(0.00985015 -0.397128 0)
(0.0409815 -0.522877 0)
(0.0763148 -0.540495 0)
(0.109324 -0.535643 0)
(0.141109 -0.524596 0)
(0.172244 -0.511561 0)
(0.203051 -0.498046 0)
(0.233659 -0.484756 0)
(0.26406 -0.472067 0)
(0.294177 -0.460182 0)
(0.323913 -0.449183 0)
(0.353169 -0.439065 0)
(0.381866 -0.429749 0)
(0.409945 -0.421103 0)
(0.437374 -0.412953 0)
(0.464148 -0.405101 0)
(0.490281 -0.397332 0)
(0.515808 -0.389428 0)
(0.540779 -0.381176 0)
(0.565251 -0.372376 0)
(0.589287 -0.362836 0)
(0.612952 -0.352381 0)
(0.636314 -0.340845 0)
(0.659446 -0.328077 0)
(0.682429 -0.313939 0)
(0.705359 -0.298312 0)
(0.728351 -0.281106 0)
(0.751538 -0.262275 0)
(0.775058 -0.241825 0)
(0.799044 -0.219834 0)
(0.823592 -0.196444 0)
(0.848729 -0.171852 0)
(0.874403 -0.146258 0)
(0.900541 -0.119823 0)
(0.92712 -0.0927353 0)
(0.95408 -0.0653296 0)
(0.981233 -0.0379605 0)
(1.00846 -0.0108839 0)
(1.03573 0.0153238 0)
(1.06274 0.0397668 0)
(1.08909 0.0617431 0)
(1.11406 0.0800837 0)
(1.13677 0.0945745 0)
(1.1561 0.104396 0)
(1.1715 0.110859 0)
(0.0142051 -0.420109 0)
(0.0460445 -0.55488 0)
(0.0804029 -0.570791 0)
(0.112119 -0.564251 0)
(0.142664 -0.552321 0)
(0.172701 -0.538888 0)
(0.202536 -0.52519 0)
(0.232283 -0.511769 0)
(0.261935 -0.498916 0)
(0.291421 -0.48679 0)
(0.320645 -0.475464 0)
(0.349512 -0.464937 0)
(0.377936 -0.455145 0)
(0.405849 -0.445978 0)
(0.433209 -0.437284 0)
(0.459996 -0.428884 0)
(0.486212 -0.420583 0)
(0.511878 -0.41218 0)
(0.537033 -0.403473 0)
(0.561726 -0.394269 0)
(0.586018 -0.384383 0)
(0.609974 -0.373643 0)
(0.633671 -0.361891 0)
(0.657193 -0.348982 0)
(0.680633 -0.334789 0)
(0.704102 -0.319207 0)
(0.727722 -0.302161 0)
(0.751631 -0.283612 0)
(0.775969 -0.263566 0)
(0.800869 -0.242083 0)
(0.82644 -0.219269 0)
(0.852745 -0.195271 0)
(0.879804 -0.170248 0)
(0.907617 -0.144363 0)
(0.936189 -0.117807 0)
(0.965492 -0.0908547 0)
(0.995431 -0.0638146 0)
(1.02591 -0.0370027 0)
(1.05685 -0.010917 0)
(1.088 0.0137505 0)
(1.11896 0.0363232 0)
(1.1491 0.0559644 0)
(1.17762 0.0722499 0)
(1.20355 0.0847504 0)
(1.22619 0.0939102 0)
(0.0179011 -0.447135 0)
(0.0496156 -0.58679 0)
(0.0822816 -0.599999 0)
(0.112324 -0.5918 0)
(0.141435 -0.579164 0)
(0.170257 -0.565481 0)
(0.199029 -0.551713 0)
(0.227825 -0.538259 0)
(0.256624 -0.525334 0)
(0.285354 -0.513064 0)
(0.313923 -0.501508 0)
(0.342236 -0.490668 0)
(0.370206 -0.480492 0)
(0.397763 -0.470888 0)
(0.424856 -0.461723 0)
(0.451455 -0.452839 0)
(0.477551 -0.44406 0)
(0.503157 -0.435201 0)
(0.528301 -0.426074 0)
(0.553025 -0.416498 0)
(0.577386 -0.406296 0)
(0.601452 -0.395306 0)
(0.6253 -0.383377 0)
(0.649023 -0.370377 0)