/*--------------------------------*- C++ -*----------------------------------*\
| =========                 |                                                 |
| \\      /  F ield         | OpenFOAM: The Open Source CFD Toolbox           |
|  \\    /   O peration     | Version:  5.0                                   |
|   \\  /    A nd           | Web:      www.OpenFOAM.org                      |
|    \\/     M anipulation  |                                                 |
\*---------------------------------------------------------------------------*/
FoamFile
{
    version     2.0;
    format      ascii;
    class       surfaceScalarField;
    location    "0.25";
    object      alphaPhi10;
}
// * * * * * * * * * * * * * * * * * * * * * * * * * * * * * * * * * * * * * //

dimensions      [0 3 -1 0 0 0 0];

internalField   nonuniform List<scalar> 
3781
(
-2.14511e-06
2.14511e-06
-9.08851e-07
-1.23626e-06
1.99508e-06
-2.90393e-06
5.47706e-06
-3.48198e-06
8.99078e-06
-3.51372e-06
1.23213e-05
-3.33048e-06
1.54177e-05
-3.09649e-06
1.82944e-05
-2.87664e-06
2.09881e-05
-2.69366e-06
2.35407e-05
-2.55263e-06
2.59915e-05
-2.45081e-06
2.83741e-05
-2.38266e-06
3.07165e-05
-2.34232e-06
3.3041e-05
-2.32453e-06
3.53658e-05
-2.32477e-06
3.77049e-05
-2.33917e-06
4.00693e-05
-2.36433e-06
4.24664e-05
-2.3971e-06
4.49009e-05
-2.43453e-06
4.73745e-05
-2.47363e-06
4.98859e-05
-2.51134e-06
5.24302e-05
-2.54435e-06
5.49992e-05
-2.56902e-06
5.75805e-05
-2.58125e-06
6.01568e-05
-2.57632e-06
6.27055e-05
-2.54866e-06
6.51972e-05
-2.49168e-06
6.75945e-05
-2.39732e-06
6.98501e-05
-2.25563e-06
7.1904e-05
-2.05389e-06
7.36789e-05
-1.77487e-06
7.507e-05
-1.39117e-06
7.59272e-05
-8.57126e-07
7.60175e-05
-9.03217e-08
7.48826e-05
1.13487e-06
7.21495e-05
2.73314e-06
6.73989e-05
4.75057e-06
6.0227e-05
7.17195e-06
5.03771e-05
9.84987e-06
3.79857e-05
1.23914e-05
2.3803e-05
1.41827e-05
9.2765e-06
1.45265e-05
-3.86017e-06
1.31367e-05
9.33196e-06
3.6886e-07
1.77625e-06
2.39294e-06
-3.26034e-06
5.27763e-06
-5.78863e-06
8.42782e-06
-6.63217e-06
1.15716e-05
-6.65755e-06
1.45915e-05
-6.3503e-06
1.74493e-05
-5.95434e-06
2.01513e-05
-5.57864e-06
2.27224e-05
-5.26471e-06
2.51926e-05
-5.02288e-06
2.75916e-05
-4.8498e-06
2.99458e-05
-4.73688e-06
3.2278e-05
-4.67445e-06
3.46068e-05
-4.65335e-06
3.69474e-05
-4.66539e-06
3.93115e-05
-4.70327e-06
4.17076e-05
-4.76041e-06
4.41412e-05
-4.83069e-06
4.66148e-05
-4.90819e-06
4.91282e-05
-4.98703e-06
5.1678e-05
-5.06113e-06
5.42577e-05
-5.12399e-06
5.68572e-05
-5.16851e-06
5.94626e-05
-5.1867e-06
6.20557e-05
-5.1694e-06
6.46129e-05
-5.10587e-06
6.71046e-05
-4.98335e-06
6.94937e-05
-4.78646e-06
7.17344e-05
-4.49629e-06
7.37697e-05
-4.0892e-06
7.55298e-05
-3.53496e-06
7.69323e-05
-2.79369e-06
7.78893e-05
-1.81411e-06
7.83352e-05
-5.36223e-07
7.82922e-05
1.1778e-06
7.75836e-05
3.44177e-06
7.5934e-05
6.40016e-06
7.29355e-05
1.01705e-05
6.80175e-05
1.47679e-05
6.04782e-05
1.99307e-05
4.97614e-05
2.48995e-05
3.60625e-05
2.82254e-05
2.10669e-05
2.81322e-05
2.25361e-05
1.76571e-06
1.05382e-08
4.33409e-06
-5.82872e-06
7.26293e-06
-8.71746e-06
1.02543e-05
-9.62359e-06
1.31728e-05
-9.57605e-06
1.59695e-05
-9.14692e-06
1.86366e-05
-8.62143e-06
2.11872e-05
-8.12925e-06
2.36432e-05
-7.72078e-06
2.6029e-05
-7.40865e-06
2.83678e-05
-7.18865e-06
3.06809e-05
-7.04996e-06
3.29865e-05
-6.98002e-06
3.52997e-05
-6.96659e-06
3.76327e-05
-6.99839e-06
3.99946e-05
-7.06516e-06
4.23917e-05
-7.15747e-06
4.48274e-05
-7.26642e-06
4.73027e-05
-7.38343e-06
4.98155e-05
-7.49989e-06
5.23613e-05
-7.60694e-06
5.49325e-05
-7.69513e-06
5.75181e-05
-7.75413e-06
6.01037e-05
-7.77234e-06
6.26708e-05
-7.73647e-06
6.51959e-05
-7.63099e-06
6.76501e-05
-7.43751e-06
6.99975e-05
-7.13394e-06
7.21947e-05
-6.69345e-06
7.41886e-05
-6.08313e-06
7.59158e-05
-5.2621e-06
7.73016e-05
-4.17952e-06
7.82595e-05
-2.77206e-06
7.86882e-05
-9.64833e-07
7.85154e-05
1.35061e-06
7.7653e-05
4.3041e-06
7.6012e-05
8.04114e-06
7.34877e-05
1.26948e-05
6.99251e-05
1.83305e-05
6.50295e-05
2.48263e-05
5.82835e-05
3.16455e-05
4.9038e-05
3.74709e-05
3.71585e-05
4.00118e-05
3.61512e-05
2.28576e-06
-2.27522e-06
5.36402e-06
-8.90698e-06
8.47731e-06
-1.18307e-05
1.14501e-05
-1.25964e-05
1.42566e-05
-1.23825e-05
1.69144e-05
-1.18047e-05
1.94499e-05
-1.11569e-05
2.18897e-05
-1.05691e-05
2.42585e-05
-1.00896e-05
2.65786e-05
-9.72879e-06
2.88701e-05
-9.48013e-06
3.11504e-05
-9.33024e-06
3.34343e-05
-9.26395e-06
3.57341e-05
-9.26637e-06
3.80592e-05
-9.32355e-06
4.04167e-05
-9.42264e-06
4.28109e-05
-9.55168e-06
4.52438e-05
-9.69932e-06
4.77149e-05
-9.85452e-06
5.02213e-05
-1.00062e-05
5.27573e-05
-1.0143e-05
5.53149e-05
-1.02527e-05
5.78829e-05
-1.03221e-05
6.04466e-05
-1.0336e-05
6.29876e-05
-1.02776e-05
6.54833e-05
-1.01266e-05
6.79055e-05
-9.85972e-06
7.02202e-05
-9.44866e-06
7.23863e-05
-8.85955e-06
7.43545e-05
-8.05128e-06
7.60661e-05
-6.97371e-06
7.74523e-05
-5.56574e-06
7.84334e-05
-3.75321e-06
7.89176e-05
-1.44903e-06
7.88129e-05
1.45534e-06
7.80298e-05
5.08719e-06
7.64892e-05
9.58174e-06
7.41267e-05
1.50573e-05
7.08871e-05
2.15701e-05
6.66825e-05
2.90309e-05
6.12826e-05
3.70454e-05
5.41431e-05
4.46104e-05
4.44703e-05
4.96845e-05
4.88775e-05
2.51406e-06
-4.78928e-06
5.90463e-06
-1.22976e-05
9.17003e-06
-1.50961e-05
1.21616e-05
-1.5588e-05
1.4916e-05
-1.51369e-05
1.74948e-05
-1.43835e-05
1.99495e-05
-1.36116e-05
2.23182e-05
-1.29378e-05
2.46297e-05
-1.2401e-05
2.69063e-05
-1.20055e-05
2.91666e-05
-1.17404e-05
3.14256e-05
-1.15892e-05
3.36958e-05
-1.15342e-05
3.59873e-05
-1.15578e-05
3.83075e-05
-1.16438e-05
4.06618e-05
-1.17769e-05
4.30531e-05
-1.1943e-05
4.54824e-05
-1.21285e-05
4.79481e-05
-1.23202e-05
5.04467e-05
-1.25048e-05
5.29723e-05
-1.26686e-05
5.55164e-05
-1.27968e-05
5.80678e-05
-1.28735e-05
6.06122e-05
-1.28805e-05
6.31318e-05
-1.27971e-05
6.56046e-05
-1.25994e-05
6.80039e-05
-1.2259e-05
7.02975e-05
-1.17423e-05
7.24469e-05
-1.1009e-05
7.44064e-05
-1.00107e-05
7.61219e-05
-8.68917e-06
7.75302e-05
-6.9741e-06
7.85588e-05
-4.78182e-06
7.91247e-05
-2.01489e-06
7.91394e-05
1.44061e-06
7.8515e-05
5.7116e-06
7.71696e-05
1.09272e-05
7.50315e-05
1.71953e-05
7.20367e-05
2.45649e-05
6.81051e-05
3.29626e-05
6.30721e-05
4.20783e-05
5.65426e-05
5.11399e-05
4.77445e-05
5.84826e-05
6.09624e-05
2.65591e-06
-7.44519e-06
6.19882e-06
-1.58405e-05
9.52826e-06
-1.84256e-05
1.25156e-05
-1.85754e-05
1.52323e-05
-1.78535e-05
1.77623e-05
-1.69136e-05
2.01693e-05
-1.60186e-05
2.24971e-05
-1.52655e-05
2.47763e-05
-1.46802e-05
2.70294e-05
-1.42585e-05
2.92736e-05
-1.39846e-05
3.15227e-05
-1.38383e-05
3.37874e-05
-1.37989e-05
3.60762e-05
-1.38466e-05
3.83952e-05
-1.39628e-05
4.07485e-05
-1.41302e-05
4.31381e-05
-1.43326e-05
4.55641e-05
-1.45545e-05
4.80246e-05
-1.47807e-05
5.05157e-05
-1.49959e-05
5.30313e-05
-1.51842e-05
5.55632e-05
-1.53287e-05
5.81003e-05
-1.54106e-05
6.06289e-05
-1.54091e-05
6.31319e-05
-1.53001e-05
6.55885e-05
-1.5056e-05
6.79735e-05
-1.4644e-05
7.02567e-05
-1.40255e-05
7.24023e-05
-1.31546e-05
7.4368e-05
-1.19765e-05
7.61043e-05
-1.04254e-05
7.75534e-05
-8.42322e-06
7.86492e-05
-5.87764e-06
7.93166e-05
-2.68228e-06
7.9474e-05
1.28326e-06
7.90368e-05
6.14875e-06
7.79208e-05
1.20432e-05
7.60423e-05
1.90738e-05
7.33126e-05
2.72947e-05
6.96175e-05
3.66577e-05
6.47699e-05
4.6926e-05
5.84095e-05
5.75004e-05
4.98434e-05
6.70487e-05
7.28618e-05
2.7609e-06
-1.02061e-05
6.35154e-06
-1.94311e-05
9.66577e-06
-2.17398e-05
1.26117e-05
-2.15213e-05
1.52839e-05
-2.05258e-05
1.77756e-05
-1.94052e-05
2.01522e-05
-1.83953e-05
2.24577e-05
-1.7571e-05
2.47217e-05
-1.69443e-05
2.69658e-05
-1.65026e-05
2.92058e-05
-1.62246e-05
3.14541e-05
-1.60866e-05
3.37202e-05
-1.6065e-05
3.60112e-05
-1.61376e-05
3.83323e-05
-1.62839e-05
4.06867e-05
-1.64846e-05
4.30758e-05
-1.67218e-05
4.54994e-05
-1.69781e-05
4.79553e-05
-1.72366e-05
5.04395e-05
-1.74802e-05
5.29462e-05
-1.7691e-05
5.54674e-05
-1.78499e-05
5.79927e-05
-1.79359e-05
6.0509e-05
-1.79253e-05
6.30001e-05
-1.77913e-05
6.54465e-05
-1.75024e-05
6.78247e-05
-1.70221e-05
7.01066e-05
-1.63074e-05
7.22592e-05
-1.53072e-05
7.42436e-05
-1.39608e-05
7.60144e-05
-1.21963e-05
7.75194e-05
-9.92818e-06
7.86985e-05
-7.05677e-06
7.9484e-05
-3.46782e-06
7.98015e-05
9.65811e-07
7.95712e-05
6.37908e-06
7.87083e-05
1.29061e-05
7.71203e-05
2.06617e-05
7.46985e-05
2.97165e-05
7.12975e-05
4.00587e-05
6.66962e-05
5.15272e-05
6.05184e-05
6.36782e-05
5.20852e-05
7.54819e-05
8.47326e-05
2.83963e-06
-1.30457e-05
6.40676e-06
-2.29982e-05
9.64762e-06
-2.49807e-05
1.25202e-05
-2.43938e-05
1.51363e-05
-2.31419e-05
1.75898e-05
-2.18588e-05
1.99428e-05
-2.07483e-05
2.22351e-05
-1.98633e-05
2.44937e-05
-1.92028e-05
2.67375e-05
-1.87464e-05
2.89807e-05
-1.84679e-05
3.12342e-05
-1.83401e-05
3.35061e-05
-1.83369e-05
3.58027e-05
-1.84342e-05
3.81281e-05
-1.86094e-05
4.04852e-05
-1.88417e-05
4.28749e-05
-1.91115e-05
4.52967e-05
-1.93999e-05
4.77485e-05
-1.96885e-05
5.02267e-05
-1.99583e-05
5.27256e-05
-2.01899e-05
5.52379e-05
-2.03621e-05
5.77537e-05
-2.04517e-05
6.02609e-05
-2.04325e-05
6.27444e-05
-2.02747e-05
6.51859e-05
-1.9944e-05
6.75637e-05
-1.94e-05
6.98519e-05
-1.85956e-05
7.20201e-05
-1.74754e-05
7.40328e-05
-1.59735e-05
7.58489e-05
-1.40124e-05
7.74212e-05
-1.15005e-05
7.8696e-05
-8.33158e-06
7.96128e-05
-4.38459e-06
8.01045e-05
4.74089e-07
8.00978e-05
6.38584e-06
7.95106e-05
1.34933e-05
7.82478e-05
2.19244e-05
7.6191e-05
3.17733e-05
7.31792e-05
4.30705e-05
6.89727e-05
5.57337e-05
6.31813e-05
6.94696e-05
5.51126e-05
8.35506e-05
9.63633e-05
2.8938e-06
-1.59395e-05
6.38595e-06
-2.64904e-05
9.51354e-06
-2.81083e-05
1.22902e-05
-2.71705e-05
1.48397e-05
-2.56914e-05
1.72518e-05
-2.42709e-05
1.95816e-05
-2.30781e-05
2.18635e-05
-2.21452e-05
2.41201e-05
-2.14593e-05
2.63673e-05
-2.09936e-05
2.86171e-05
-2.07177e-05
3.08785e-05
-2.06015e-05
3.31584e-05
-2.06168e-05
3.5462e-05
-2.07378e-05
3.77928e-05
-2.09402e-05
4.01531e-05
-2.12019e-05
4.25436e-05
-2.1502e-05
4.49639e-05
-2.18202e-05
4.74121e-05
-2.21367e-05
4.98848e-05
-2.24311e-05
5.2377e-05
-2.26822e-05
5.48819e-05
-2.2867e-05
5.73905e-05
-2.29603e-05
5.98916e-05
-2.29336e-05
6.23712e-05
-2.27543e-05
6.48124e-05
-2.23852e-05
6.71952e-05
-2.17827e-05
6.94956e-05
-2.08961e-05
7.1686e-05
-1.96658e-05
7.37341e-05
-1.80216e-05
7.56029e-05
-1.58811e-05
7.72502e-05
-1.31479e-05
7.86287e-05
-9.71004e-06
7.96851e-05
-5.44098e-06
8.03605e-05
-2.01324e-07
8.05894e-05
6.15689e-06
8.02968e-05
1.37859e-05
7.93923e-05
2.28289e-05
7.7761e-05
3.34046e-05
7.52469e-05
4.55847e-05
7.16223e-05
5.93582e-05
6.65225e-05
7.45694e-05
5.92894e-05
9.07836e-05
0.000107067
2.92354e-06
-1.88631e-05
6.30219e-06
-2.9869e-05
9.29037e-06
-3.10965e-05
1.19568e-05
-2.9837e-05
1.44318e-05
-2.81664e-05
1.67979e-05
-2.6637e-05
1.91021e-05
-2.53823e-05
2.13723e-05
-2.44153e-05
2.36263e-05
-2.37134e-05
2.58768e-05
-2.32442e-05
2.81332e-05
-2.2974e-05
3.04026e-05
-2.28708e-05
3.26903e-05
-2.29046e-05
3.50006e-05
-2.3048e-05
3.73363e-05
-2.32759e-05
3.96992e-05
-2.35649e-05
4.20901e-05
-2.38929e-05
4.45086e-05
-2.42387e-05
4.69531e-05
-2.45812e-05
4.94208e-05
-2.48987e-05
5.19071e-05
-2.51685e-05
5.44061e-05
-2.5366e-05
5.69095e-05
-2.54637e-05
5.94071e-05
-2.54312e-05
6.18861e-05
-2.52333e-05
6.43308e-05
-2.48299e-05
6.67227e-05
-2.41746e-05
6.90398e-05
-2.32133e-05
7.12569e-05
-2.18828e-05
7.33447e-05
-2.01094e-05
7.52701e-05
-1.78066e-05
7.6996e-05
-1.48738e-05
7.84809e-05
-1.1195e-05
7.96792e-05
-6.63926e-06
8.05405e-05
-1.06266e-06
8.10089e-05
5.68847e-06
8.102e-05
1.37749e-05
8.04955e-05
2.33533e-05
7.93372e-05
3.4563e-05
7.74165e-05
4.75054e-05
7.45564e-05
6.22183e-05
7.0486e-05
7.86399e-05
6.47082e-05
9.65614e-05
0.000115689
2.98029e-06
-2.18434e-05
6.27472e-06
-3.31635e-05
9.15644e-06
-3.39782e-05
1.17488e-05
-3.24293e-05
1.4186e-05
-3.06036e-05
1.65426e-05
-2.89936e-05
1.88576e-05
-2.76973e-05
2.11526e-05
-2.67104e-05
2.34414e-05
-2.60021e-05
2.57329e-05
-2.55357e-05
2.80341e-05
-2.52752e-05
3.035e-05
-2.51867e-05
3.26848e-05
-2.52393e-05
3.50414e-05
-2.54046e-05
3.74222e-05
-2.56567e-05
3.98287e-05
-2.59713e-05
4.22616e-05
-2.63258e-05
4.47207e-05
-2.66978e-05
4.72048e-05
-2.70653e-05
4.97115e-05
-2.74055e-05
5.22371e-05
-2.76941e-05
5.4776e-05
-2.79049e-05
5.73209e-05
-2.80086e-05
5.98621e-05
-2.79724e-05
6.23877e-05
-2.77589e-05
6.48829e-05
-2.73251e-05
6.73303e-05
-2.66219e-05
6.97091e-05
-2.55921e-05
7.19958e-05
-2.41695e-05
7.41635e-05
-2.22771e-05
7.61821e-05
-1.98251e-05
7.80183e-05
-1.671e-05
7.96359e-05
-1.28126e-05
8.09959e-05
-7.99921e-06
8.20559e-05
-2.12266e-06
8.27697e-05
4.97462e-06
8.30854e-05
1.34592e-05
8.29415e-05
2.34973e-05
8.22647e-05
3.52397e-05
8.097e-05
4.88002e-05
7.89624e-05
6.4226e-05
7.61366e-05
8.14656e-05
7.23482e-05
0.00010035
0.000120665
2.98866e-06
-2.4832e-05
6.14202e-06
-3.63168e-05
8.87671e-06
-3.67129e-05
1.13636e-05
-3.49162e-05
1.37353e-05
-3.29752e-05
1.6056e-05
-3.13143e-05
1.83562e-05
-2.99975e-05
2.06516e-05
-2.90058e-05
2.2951e-05
-2.83014e-05
2.526e-05
-2.78448e-05
2.75828e-05
-2.7598e-05
2.99224e-05
-2.75264e-05
3.22814e-05
-2.75983e-05
3.46617e-05
-2.7785e-05
3.70651e-05
-2.80601e-05
3.94927e-05
-2.8399e-05
4.19453e-05
-2.87784e-05
4.44229e-05
-2.91754e-05
4.6925e-05
-2.95673e-05
4.94495e-05
-2.993e-05
5.19935e-05
-3.02381e-05
5.45523e-05
-3.04636e-05
5.7119e-05
-3.05754e-05
5.9685e-05
-3.05384e-05
6.22389e-05
-3.03127e-05
6.47668e-05
-2.9853e-05
6.72521e-05
-2.91072e-05
6.96754e-05
-2.80154e-05
7.20144e-05
-2.65086e-05
7.42445e-05
-2.45071e-05
7.63382e-05
-2.19188e-05
7.8266e-05
-1.86378e-05
7.99967e-05
-1.45433e-05
8.14975e-05
-9.5e-06
8.27343e-05
-3.3594e-06
8.36712e-05
4.03767e-06
8.42706e-05
1.28598e-05
8.44908e-05
2.3277e-05
8.42885e-05
3.5442e-05
8.36271e-05
4.94616e-05
8.24949e-05
6.53582e-05
8.09409e-05
8.30197e-05
7.91407e-05
0.00010215
0.000122235
2.97391e-06
-2.78059e-05
5.9642e-06
-3.93071e-05
8.54163e-06
-3.92903e-05
1.09173e-05
-3.72919e-05
1.32178e-05
-3.52757e-05
1.54967e-05
-3.35932e-05
1.77762e-05
-3.2277e-05
2.00658e-05
-3.12954e-05
2.237e-05
-3.06057e-05
2.46911e-05
-3.01659e-05
2.70304e-05
-2.99373e-05
2.9389e-05
-2.98849e-05
3.17678e-05
-2.99771e-05
3.41678e-05
-3.0185e-05
3.65901e-05
-3.04824e-05
3.90357e-05
-3.08446e-05
4.15055e-05
-3.12481e-05
4.39998e-05
-3.16698e-05
4.65185e-05
-3.2086e-05
4.90604e-05
-3.2472e-05
5.16232e-05
-3.28009e-05
5.42028e-05
-3.30432e-05
5.67932e-05
-3.31658e-05
5.93861e-05
-3.31313e-05
6.19707e-05
-3.28974e-05
6.45337e-05
-3.2416e-05
6.70588e-05
-3.16323e-05
6.95273e-05
-3.04839e-05
7.19179e-05
-2.88992e-05
7.42071e-05
-2.67963e-05
7.63695e-05
-2.40812e-05
7.83783e-05
-2.06466e-05
8.0206e-05
-1.6371e-05
8.18248e-05
-1.11188e-05
8.32073e-05
-4.7419e-06
8.4327e-05
2.91797e-06
8.51592e-05
1.20276e-05
8.56813e-05
2.2755e-05
8.58769e-05
3.52464e-05
8.57483e-05
4.95902e-05
8.5338e-05
6.57686e-05
8.47656e-05
8.35921e-05
8.42771e-05
0.000102639
0.000122243
2.9371e-06
-3.0743e-05
5.74577e-06
-4.21158e-05
8.15833e-06
-4.17028e-05
1.04179e-05
-3.95515e-05
1.2642e-05
-3.74998e-05
1.4873e-05
-3.58243e-05
1.71253e-05
-3.45293e-05
1.94027e-05
-3.35728e-05
2.17055e-05
-3.29084e-05
2.40324e-05
-3.24928e-05
2.63823e-05
-3.22872e-05
2.87542e-05
-3.22568e-05
3.11475e-05
-3.23704e-05
3.35623e-05
-3.25998e-05
3.59992e-05
-3.29192e-05
3.84589e-05
-3.33044e-05
4.09426e-05
-3.37318e-05
4.34511e-05
-3.41782e-05
4.59847e-05
-3.46196e-05
4.85431e-05
-3.50304e-05
5.11246e-05
-3.53824e-05
5.37258e-05
-3.56444e-05
5.63412e-05
-3.57812e-05
5.89629e-05
-3.5753e-05
6.15802e-05
-3.55147e-05
6.41797e-05
-3.50155e-05
6.67451e-05
-3.41978e-05
6.92577e-05
-3.29964e-05
7.16961e-05
-3.13376e-05
7.40372e-05
-2.91374e-05
7.62564e-05
-2.63004e-05
7.83281e-05
-2.27184e-05
8.02269e-05
-1.82697e-05
8.19277e-05
-1.28196e-05
8.34074e-05
-6.22168e-06
8.46463e-05
1.67917e-06
8.56295e-05
1.10443e-05
8.63498e-05
2.20346e-05
8.68131e-05
3.47831e-05
8.70495e-05
4.93538e-05
8.71293e-05
6.56888e-05
8.71858e-05
8.35356e-05
8.7438e-05
0.000102387
0.00012153
2.87951e-06
-3.36225e-05
5.4902e-06
-4.47265e-05
7.73146e-06
-4.39441e-05
9.87029e-06
-4.16903e-05
1.20125e-05
-3.9642e-05
1.41896e-05
-3.80014e-05
1.64082e-05
-3.67479e-05
1.86668e-05
-3.58315e-05
2.09615e-05
-3.52031e-05
2.32878e-05
-3.48191e-05
2.56419e-05
-3.46413e-05
2.80209e-05
-3.46357e-05
3.04228e-05
-3.47723e-05
3.28469e-05
-3.5024e-05
3.52933e-05
-3.53656e-05
3.77627e-05
-3.57738e-05
4.02565e-05
-3.62255e-05
4.2776e-05
-3.66977e-05
4.53223e-05
-3.7166e-05
4.78958e-05
-3.76039e-05
5.04955e-05
-3.79821e-05
5.31186e-05
-3.82675e-05
5.576e-05
-3.84225e-05
5.84117e-05
-3.84047e-05
6.10628e-05
-3.81658e-05
6.36992e-05
-3.76519e-05
6.63038e-05
-3.68024e-05
6.88568e-05
-3.55494e-05
7.13359e-05
-3.38168e-05
7.37171e-05
-3.15186e-05
7.59751e-05
-2.85583e-05
7.80837e-05
-2.4827e-05
8.00169e-05
-2.0203e-05
8.175e-05
-1.45526e-05
8.32603e-05
-7.73202e-06
8.45304e-05
4.09103e-07
8.55509e-05
1.00238e-05
8.63258e-05
2.12597e-05
8.68792e-05
3.42296e-05
8.72663e-05
4.89667e-05
8.75774e-05
6.53778e-05
8.79493e-05
8.31637e-05
8.8589e-05
0.000101747
0.000120408
2.80247e-06
-3.6425e-05
5.19962e-06
-4.71236e-05
7.26306e-06
-4.60076e-05
9.27598e-06
-4.37032e-05
1.13306e-05
-4.16966e-05
1.34475e-05
-4.01183e-05
1.56261e-05
-3.89265e-05
1.78596e-05
-3.80649e-05
2.01398e-05
-3.74832e-05
2.2459e-05
-3.71383e-05
2.48109e-05
-3.69932e-05
2.71906e-05
-3.70155e-05
2.95951e-05
-3.71768e-05
3.20226e-05
-3.74515e-05
3.44729e-05
-3.78159e-05
3.69469e-05
-3.82478e-05
3.94463e-05
-3.8725e-05
4.19732e-05
-3.92246e-05
4.45294e-05
-3.97221e-05
4.7116e-05
-4.01905e-05
4.97329e-05
-4.0599e-05
5.23776e-05
-4.09123e-05
5.50453e-05
-4.10902e-05
5.77275e-05
-4.10869e-05
6.04124e-05
-4.08507e-05
6.30845e-05
-4.0324e-05
6.5725e-05
-3.94429e-05
6.83119e-05
-3.81363e-05
7.08208e-05
-3.63256e-05
7.32252e-05
-3.3923e-05
7.54972e-05
-3.08304e-05
7.76082e-05
-2.69379e-05
7.95289e-05
-2.21238e-05
8.12309e-05
-1.62547e-05
8.26875e-05
-9.18862e-06
8.38775e-05
-7.80855e-07
8.47906e-05
9.11078e-06
8.54369e-05
2.06132e-05
8.58592e-05
3.38073e-05
8.61448e-05
4.86828e-05
8.64155e-05
6.51088e-05
8.68206e-05
8.27596e-05
8.75832e-05
0.000100985
0.000119088
2.70742e-06
-3.91324e-05
4.87443e-06
-4.92906e-05
6.7521e-06
-4.78852e-05
8.63294e-06
-4.5584e-05
1.0594e-05
-4.36576e-05
1.2645e-05
-4.21693e-05
1.47779e-05
-4.10594e-05
1.69804e-05
-4.02675e-05
1.92402e-05
-3.9743e-05
2.15463e-05
-3.94445e-05
2.38899e-05
-3.93367e-05
2.62642e-05
-3.93898e-05
2.86648e-05
-3.95775e-05
3.10896e-05
-3.98762e-05
3.35381e-05
-4.02644e-05
3.60112e-05
-4.0721e-05
3.85114e-05
-4.12251e-05
4.10413e-05
-4.17544e-05
4.36037e-05
-4.22846e-05
4.62007e-05
-4.27876e-05
4.88329e-05
-4.32311e-05
5.14982e-05
-4.35776e-05
5.41915e-05
-4.37834e-05
5.69035e-05
-4.37989e-05
5.96209e-05
-4.3568e-05
6.23257e-05
-4.30289e-05
6.49962e-05
-4.21134e-05
6.76071e-05
-4.07472e-05
7.01302e-05
-3.88488e-05
7.25352e-05
-3.6328e-05
7.47899e-05
-3.30851e-05
7.68606e-05
-2.90086e-05
7.87122e-05
-2.39754e-05
8.03083e-05
-1.78508e-05
8.16123e-05
-1.04926e-05
8.25912e-05
-1.75979e-06
8.32247e-05
8.47734e-06
8.35215e-05
2.03155e-05
8.35441e-05
3.3785e-05
8.34282e-05
4.8799e-05
8.33759e-05
6.51613e-05
8.3588e-05
8.25474e-05
8.43131e-05
0.00010026
0.000117674
2.59613e-06
-4.17285e-05
4.51241e-06
-5.12069e-05
6.19356e-06
-4.95664e-05
7.93509e-06
-4.73256e-05
9.7968e-06
-4.55193e-05
1.17769e-05
-4.41494e-05
1.38595e-05
-4.3142e-05
1.60266e-05
-4.24345e-05
1.82612e-05
-4.19777e-05
2.05491e-05
-4.17323e-05
2.28787e-05
-4.16664e-05
2.52418e-05
-4.17528e-05
2.76327e-05
-4.19684e-05
3.00486e-05
-4.22922e-05
3.24891e-05
-4.27048e-05
3.49555e-05
-4.31874e-05
3.74508e-05
-4.37203e-05
3.99786e-05
-4.42823e-05
4.25429e-05
-4.48488e-05
4.51466e-05
-4.53913e-05
4.7791e-05
-4.58756e-05
5.04746e-05
-4.62612e-05
5.31916e-05
-4.65004e-05
5.59314e-05
-4.65387e-05
5.8678e-05
-4.63147e-05
6.14102e-05
-4.5761e-05
6.41018e-05
-4.4805e-05
6.67226e-05
-4.33681e-05
6.92396e-05
-4.13657e-05
7.16167e-05
-3.87052e-05
7.3816e-05
-3.52844e-05
7.57968e-05
-3.09894e-05
7.75155e-05
-2.56941e-05
7.89243e-05
-1.92595e-05
7.99701e-05
-1.15384e-05
8.05989e-05
-2.38862e-06
8.07656e-05
8.30923e-06
8.04607e-05
2.06204e-05
7.97461e-05
3.44992e-05
7.88489e-05
4.97057e-05
7.81461e-05
6.58597e-05
7.81149e-05
8.25773e-05
7.89292e-05
9.94451e-05
0.00011607
2.47005e-06
-4.41986e-05
4.1067e-06
-5.28436e-05
5.57708e-06
-5.10367e-05
7.17174e-06
-4.89202e-05
8.92958e-06
-4.72772e-05
1.08357e-05
-4.60555e-05
1.28654e-05
-4.51718e-05
1.49943e-05
-4.45634e-05
1.72005e-05
-4.41839e-05
1.94662e-05
-4.3998e-05
2.17775e-05
-4.39776e-05
2.41241e-05
-4.40995e-05
2.64996e-05
-4.43439e-05
2.89008e-05
-4.46933e-05
3.1327e-05
-4.51311e-05
3.37804e-05
-4.56408e-05
3.62645e-05
-4.62045e-05
3.87842e-05
-4.6802e-05
4.13446e-05
-4.74091e-05
4.39498e-05
-4.79965e-05
4.66021e-05
-4.85279e-05
4.93e-05
-4.8959e-05
5.2037e-05
-4.92375e-05
5.48006e-05
-4.93022e-05
5.7571e-05
-4.90851e-05
6.03222e-05
-4.85122e-05
6.30221e-05
-4.75049e-05
6.56344e-05
-4.59804e-05
6.81193e-05
-4.38505e-05
7.04343e-05
-4.10203e-05
7.25344e-05
-3.73844e-05
7.43708e-05
-3.28258e-05
7.58904e-05
-2.72138e-05
7.7032e-05
-2.04011e-05
7.77229e-05
-1.22295e-05
7.78784e-05
-2.54423e-06
7.73761e-05
8.66349e-06
7.55091e-05
1.96932e-05
6.83191e-05
2.61637e-05
5.66037e-05
2.69452e-05
5.0921e-05
1.89031e-05
5.67804e-05
2.67777e-05
6.17354e-05
5.4031e-05
0.000103841
2.32692e-06
-4.65255e-05
3.6423e-06
-5.41589e-05
4.88538e-06
-5.22798e-05
6.32736e-06
-5.03622e-05
7.97976e-06
-4.89296e-05
9.81196e-06
-4.78877e-05
1.17892e-05
-4.7149e-05
1.38796e-05
-4.66538e-05
1.60563e-05
-4.63606e-05
1.82977e-05
-4.62394e-05
2.05872e-05
-4.62671e-05
2.29132e-05
-4.64254e-05
2.52682e-05
-4.66989e-05
2.76486e-05
-4.70738e-05
3.00543e-05
-4.75368e-05
3.24877e-05
-4.80742e-05
3.49535e-05
-4.86703e-05
3.74578e-05
-4.93063e-05
4.0007e-05
-4.99584e-05
4.26068e-05
-5.05963e-05
4.52603e-05
-5.11814e-05
4.79664e-05
-5.16651e-05
5.07175e-05
-5.19886e-05
5.34982e-05
-5.20829e-05
5.62841e-05
-5.1871e-05
5.90425e-05
-5.12706e-05
6.17338e-05
-5.01963e-05
6.43138e-05
-4.85603e-05
6.67349e-05
-4.62717e-05
6.89479e-05
-4.32332e-05
7.09003e-05
-3.93368e-05
7.25356e-05
-3.44612e-05
7.37912e-05
-2.84695e-05
7.45897e-05
-2.12004e-05
7.48173e-05
-1.24596e-05
7.36271e-05
-2.21374e-06
6.29893e-05
7.15248e-06
3.59789e-05
8.05057e-06
1.52819e-05
1.23047e-06
8.7574e-06
6.2027e-08
8.00248e-06
4.04985e-07
1.1674e-05
1.41228e-06
2.78464e-05
4.37982e-06
2.77627e-05
2.15257e-06
-4.86781e-05
3.09169e-06
-5.50981e-05
4.0938e-06
-5.32819e-05
5.38268e-06
-5.16511e-05
6.93335e-06
-5.04802e-05
8.69636e-06
-4.96507e-05
1.06252e-05
-4.90778e-05
1.26802e-05
-4.87087e-05
1.48286e-05
-4.85091e-05
1.70453e-05
-4.84561e-05
1.93112e-05
-4.8533e-05
2.16132e-05
-4.87274e-05
2.39431e-05
-4.90288e-05
2.62972e-05
-4.94279e-05
2.86757e-05
-4.99152e-05
3.10816e-05
-5.04801e-05
3.35209e-05
-5.11095e-05
3.60009e-05
-5.17863e-05
3.85297e-05
-5.24872e-05
4.11146e-05
-5.31812e-05
4.37599e-05
-5.38267e-05
4.64649e-05
-5.43701e-05
4.92211e-05
-5.47447e-05
5.20092e-05
-5.4871e-05
5.47988e-05
-5.46606e-05
5.75485e-05
-5.40204e-05
6.02093e-05
-5.28571e-05
6.27273e-05
-5.10782e-05
6.50468e-05
-4.85912e-05
6.7112e-05
-4.52984e-05
6.88641e-05
-4.10887e-05
7.02349e-05
-3.58322e-05
7.11338e-05
-2.93704e-05
7.13472e-05
-2.14282e-05
6.81048e-05
-1.16338e-05
4.25917e-05
-7.01018e-07
1.05458e-05
5.63147e-07
2.11555e-06
-3.17702e-07
1.97832e-06
-5.14792e-08
1.62663e-06
4.67646e-08
1.5812e-06
1.21928e-07
2.20298e-06
3.64708e-07
4.69941e-06
1.16406e-06
1.81107e-05
4.62057e-06
4.71666e-05
1.90626e-06
-5.05843e-05
2.41289e-06
-5.56047e-05
3.17297e-06
-5.4042e-05
4.31813e-06
-5.27963e-05
5.77823e-06
-5.19403e-05
7.48258e-06
-5.13551e-05
9.37179e-06
-5.09671e-05
1.13975e-05
-5.07344e-05
1.35216e-05
-5.06332e-05
1.5715e-05
-5.06495e-05
1.79567e-05
-5.07747e-05
2.02322e-05
-5.1003e-05
2.2533e-05
-5.13296e-05
2.48553e-05
-5.17502e-05
2.71995e-05
-5.22595e-05
2.95698e-05
-5.28504e-05
3.1973e-05
-5.35127e-05
3.44179e-05
-5.42312e-05
3.69144e-05
-5.49837e-05
3.94715e-05
-5.57383e-05
4.20955e-05
-5.64506e-05
4.47864e-05
-5.70611e-05
4.75346e-05
-5.74929e-05
5.03167e-05
-5.76531e-05
5.30941e-05
-5.74379e-05
5.58147e-05
-5.6741e-05
5.84173e-05
-5.54596e-05
6.08367e-05
-5.34977e-05
6.30092e-05
-5.07637e-05
6.48728e-05
-4.71618e-05
6.63526e-05
-4.25688e-05
6.73057e-05
-3.67871e-05
6.72507e-05
-2.93432e-05
5.87118e-05
-1.91808e-05
2.27137e-05
-3.72404e-06
1.54532e-06
-1.58717e-08
7.92573e-07
-7.97912e-08
4.20496e-07
-2.50285e-08
3.08764e-07
1.20373e-09
2.82587e-07
1.56374e-08
3.14331e-07
3.15998e-08
5.11559e-07
8.90481e-08
1.23015e-06
3.18309e-07
3.89025e-06
1.69251e-06
1.39344e-05
1.5066e-06
-5.20909e-05
1.55579e-06
-5.56539e-05
2.09684e-06
-5.45831e-05
3.12042e-06
-5.38198e-05
4.50947e-06
-5.33294e-05
6.17161e-06
-5.30172e-05
8.0341e-06
-5.28295e-05
1.00399e-05
-5.27402e-05
1.21454e-05
-5.27387e-05
1.43185e-05
-5.28226e-05
1.65363e-05
-5.29925e-05
1.87836e-05
-5.32503e-05
2.10516e-05
-5.35976e-05
2.33366e-05
-5.40352e-05
2.56394e-05
-5.45623e-05
2.79649e-05
-5.51759e-05
3.03209e-05
-5.58687e-05
3.27177e-05
-5.6628e-05
3.51668e-05
-5.74328e-05
3.76795e-05
-5.8251e-05
4.02641e-05
-5.90352e-05
4.29226e-05
-5.97196e-05
4.56449e-05
-6.02153e-05
4.84029e-05
-6.04111e-05
5.11477e-05
-6.01827e-05
5.38133e-05
-5.94066e-05
5.63232e-05
-5.79695e-05
5.85992e-05
-5.57736e-05
6.05661e-05
-5.27304e-05
6.21387e-05
-4.8734e-05
6.31074e-05
-4.35376e-05
6.23845e-05
-3.61007e-05
4.78283e-05
-2.23896e-05
1.02406e-05
-4.39505e-06
1.99438e-07
-3.33478e-07
1.62411e-07
-6.39787e-09
8.90763e-08
-6.32119e-09
5.73762e-08
-1.48317e-09
5.12149e-08
1.31428e-09
5.45633e-08
3.92316e-09
6.86458e-08
7.7272e-09
1.24905e-07
2.01282e-08
3.45548e-07
7.58093e-08
1.55243e-06
4.27177e-07
4.93351e-06
8.40342e-07
-5.29313e-05
4.84782e-07
-5.52983e-05
8.56758e-07
-5.4955e-05
1.79162e-06
-5.47546e-05
3.13612e-06
-5.46738e-05
4.77734e-06
-5.46584e-05
6.62911e-06
-5.46813e-05
8.62601e-06
-5.47371e-05
1.07198e-05
-5.48325e-05
1.28759e-05
-5.49787e-05
1.50705e-05
-5.51871e-05
1.72881e-05
-5.54679e-05
1.95197e-05
-5.58292e-05
2.1762e-05
-5.62774e-05
2.40159e-05
-5.68163e-05
2.62868e-05
-5.74468e-05
2.85833e-05
-5.81652e-05
3.09166e-05
-5.89613e-05
3.32999e-05
-5.9816e-05
3.57464e-05
-6.06975e-05
3.82677e-05
-6.15565e-05
4.08689e-05
-6.23207e-05
4.35412e-05
-6.28875e-05
4.62512e-05
-6.31211e-05
4.89376e-05
-6.2869e-05
5.15161e-05
-6.1985e-05
5.38906e-05
-6.0344e-05
5.59626e-05
-5.78452e-05
5.7616e-05
-5.43826e-05
5.85713e-05
-4.96857e-05
5.72495e-05
-4.22425e-05
3.86591e-05
-2.43863e-05
4.46867e-06
-4.34014e-06
3.4191e-07
-3.39288e-07
2.86053e-08
-3.16012e-08
1.58489e-08
-6.79294e-10
9.45672e-09
-5.56504e-10
7.5956e-09
-4.67614e-11
7.9198e-09
2.664e-10
9.91702e-09
8.32308e-10
1.45717e-08
1.56918e-09
2.84294e-08
4.20509e-09
8.27901e-08
1.67667e-08
3.9198e-07
9.38805e-08
1.4418e-06
-2.45411e-07
-5.26859e-05
-7.8003e-07
-5.47634e-05
-5.23754e-07
-5.52108e-05
3.59083e-07
-5.56371e-05
1.68975e-06
-5.60042e-05
3.33361e-06
-5.6302e-05
5.1911e-06
-5.65387e-05
7.18952e-06
-5.67354e-05
9.2773e-06
-5.69202e-05
1.14188e-05
-5.71202e-05
1.35902e-05
-5.73584e-05
1.5776e-05
-5.76537e-05
1.79677e-05
-5.80208e-05
2.01616e-05
-5.84713e-05
2.23591e-05
-5.90137e-05
2.45654e-05
-5.9653e-05
2.67892e-05
-6.03889e-05
2.90419e-05
-6.1214e-05
3.13376e-05
-6.21116e-05
3.36915e-05
-6.30513e-05
3.61184e-05
-6.39833e-05
3.86289e-05
-6.48311e-05
4.12188e-05
-6.54771e-05
4.38504e-05
-6.57524e-05
4.64457e-05
-6.54641e-05
4.88964e-05
-6.44355e-05
5.10762e-05
-6.25231e-05
5.28294e-05
-5.95955e-05
5.37798e-05
-5.53238e-05
5.21282e-05
-4.80213e-05
3.30849e-05
-2.66612e-05
4.23961e-06
-4.17938e-06
3.32711e-07
-4.27582e-07
2.88484e-08
-3.55036e-08
2.14914e-09
-2.37508e-09
1.43131e-09
-9.08115e-11
9.14957e-10
-4.89848e-11
8.73736e-10
-3.46732e-12
1.02942e-09
5.28135e-11
1.60945e-09
1.29049e-10
2.69755e-09
2.70205e-10
5.78449e-09
7.81779e-10
1.73978e-08
2.87321e-09
9.16291e-08
1.82612e-08
3.75324e-07
-1.3881e-06
-5.12978e-05
-2.15335e-06
-5.39963e-05
-1.97728e-06
-5.53842e-05
-1.11021e-06
-5.6502e-05
2.363e-07
-5.73488e-05
1.90342e-06
-5.79677e-05
3.77888e-06
-5.84132e-05
5.78456e-06
-5.87405e-05
7.86776e-06
-5.90029e-05
9.99363e-06
-5.92456e-05
1.21392e-05
-5.95036e-05
1.42899e-05
-5.9804e-05
1.64372e-05
-6.01678e-05
1.85775e-05
-6.06113e-05
2.07114e-05
-6.11474e-05
2.28436e-05
-6.1785e-05
2.49818e-05
-6.25268e-05
2.71366e-05
-6.33684e-05
2.93213e-05
-6.42958e-05
3.15516e-05
-6.5281e-05
3.38454e-05
-6.62762e-05
3.62216e-05
-6.72061e-05
3.86867e-05
-6.79408e-05
4.12003e-05
-6.82647e-05
4.36617e-05
-6.79243e-05
4.59257e-05
-6.66979e-05
4.77932e-05
-6.43856e-05
4.88202e-05
-6.06034e-05
4.68368e-05
-5.32801e-05
2.78305e-05
-2.67413e-05
4.18383e-06
-3.93655e-06
4.26541e-07
-3.86258e-07
3.44081e-08
-3.78485e-08
2.37525e-09
-2.76224e-09
1.88281e-10
-1.46759e-10
1.17515e-10
-9.94011e-12
7.8446e-11
-3.23999e-12
7.93239e-11
-1.88659e-13
1.25056e-10
6.51539e-12
2.27085e-10
1.60249e-11
4.38638e-10
3.6937e-11
9.8022e-10
1.21953e-10
3.16249e-09
6.06566e-10
1.85648e-08
5.7367e-09
1.31478e-07
-2.48863e-06
-4.88092e-05
-3.45607e-06
-5.30207e-05
-3.3526e-06
-5.54696e-05
-2.48169e-06
-5.73594e-05
-1.10551e-06
-5.8713e-05
5.90475e-07
-5.96548e-05
2.48297e-06
-6.03003e-05
4.49061e-06
-6.07444e-05
6.56185e-06
-6.1071e-05
8.66439e-06
-6.13456e-05
1.07772e-05
-6.16143e-05
1.28865e-05
-6.19116e-05
1.4984e-05
-6.22637e-05
1.70653e-05
-6.26911e-05
1.91296e-05
-6.32102e-05
2.11802e-05
-6.38339e-05
2.32226e-05
-6.45673e-05
2.52645e-05
-6.54078e-05
2.7316e-05
-6.63442e-05
2.93905e-05
-6.73515e-05
3.15055e-05
-6.83862e-05
3.36907e-05
-6.93843e-05
3.59753e-05
-7.02173e-05
3.83189e-05
-7.06009e-05
4.05825e-05
-7.01816e-05
4.25422e-05
-6.86478e-05
4.36798e-05
-6.54923e-05
4.17319e-05
-5.85231e-05
2.28937e-05
-2.79978e-05
3.94244e-06
-3.4656e-06
3.88971e-07
-3.3849e-07
3.78655e-08
-3.04076e-08
2.92441e-09
-2.49195e-09
1.50847e-10
-1.62728e-10
1.53633e-11
-5.37131e-12
7.80884e-12
-6.24637e-13
5.92156e-12
-2.16978e-13
6.64988e-12
4.09429e-14
1.34966e-11
5.78526e-13
2.86683e-11
1.71336e-12
6.50004e-11
4.56998e-12
1.72594e-10
1.55552e-11
6.93189e-10
1.12979e-10
4.99038e-09
1.36686e-09
3.56833e-08
-3.11947e-06
-4.56899e-05
-4.30704e-06