/*--------------------------------*- C++ -*----------------------------------*\
| =========                 |                                                 |
| \\      /  F ield         | OpenFOAM: The Open Source CFD Toolbox           |
|  \\    /   O peration     | Version:  5.0                                   |
|   \\  /    A nd           | Web:      www.OpenFOAM.org                      |
|    \\/     M anipulation  |                                                 |
\*---------------------------------------------------------------------------*/
FoamFile
{
    version     2.0;
    format      ascii;
    class       volScalarField;
    location    "0.25";
    object      epsilon;
}
// * * * * * * * * * * * * * * * * * * * * * * * * * * * * * * * * * * * * * //

dimensions      [0 2 -3 0 0 0 0];

internalField   nonuniform List<scalar> 
1935
(
0.0361254
0.117947
0.231141
0.325833
0.404716
0.472896
0.534113
0.591335
0.646827
0.702297
0.75904
0.818084
0.88029
0.946415
1.01713
1.09301
1.17454
1.26202
1.35559
1.45513
1.56025
1.6702
1.78386
1.89973
2.01587
2.12992
2.23914
2.34041
2.43033
2.50527
2.56147
2.59502
2.60161
2.57589
2.52971
2.45918
2.35895
2.22554
2.05729
1.85504
1.62403
1.37729
1.13578
0.98178
0.0596008
0.099482
0.142283
0.176564
0.203549
0.225491
0.244335
0.261503
0.277953
0.294318
0.311038
0.328444
0.34681
0.366375
0.387353
0.409935
0.43428
0.460509
0.488689
0.518817
0.550812
0.584495
0.619581
0.655671
0.692248
0.728686
0.764257
0.798156
0.829543
0.85759
0.881567
0.900943
0.915533
0.926156
0.944018
0.969838
1.00653
1.05851
1.13223
1.23644
1.38106
1.56523
1.72897
1.75602
0.09419
0.120098
0.14808
0.169288
0.185101
0.19731
0.207371
0.216339
0.224917
0.233561
0.242574
0.252177
0.262538
0.273801
0.286085
0.299491
0.314095
0.329947
0.34706
0.365402
0.38489
0.405384
0.426678
0.448498
0.470505
0.492299
0.513431
0.53343
0.551833
0.568239
0.58238
0.594227
0.604146
0.613345
0.625807
0.644977
0.675001
0.721554
0.792511
0.899244
1.05837
1.28816
1.57474
1.82872
0.124826
0.142953
0.16262
0.176396
0.186213
0.193596
0.199615
0.205022
0.210325
0.215859
0.221855
0.228476
0.235849
0.244075
0.253232
0.26338
0.274555
0.286767
0.299997
0.314187
0.329239
0.345007
0.3613
0.377874
0.394439
0.410665
0.4262
0.440688
0.453807
0.465321
0.475149
0.483469
0.490871
0.498663
0.509622
0.527206
0.555658
0.600371
0.668066
0.767558
0.912032
1.12249
1.42149
1.81057
0.148714
0.161572
0.175565
0.18446
0.19044
0.194853
0.198502
0.201916
0.205456
0.209366
0.213821
0.218949
0.224849
0.231598
0.23925
0.24784
0.257381
0.267858
0.279232
0.291427
0.304332
0.317798
0.331636
0.345615
0.359471
0.372914
0.385643
0.397371
0.407864
0.416987
0.424783
0.431568
0.438081
0.445736
0.457071
0.475593
0.505737
0.553061
0.624146
0.726729
0.871303
1.07683
1.3813
1.85007
0.168793
0.175184
0.184571
0.190296
0.193952
0.196606
0.198868
0.201134
0.203674
0.206675
0.210278
0.214588
0.219688
0.225637
0.232475
0.240223
0.248877
0.258409
0.268766
0.279862
0.29158
0.303769
0.316242
0.328782
0.341143
0.353064
0.364285
0.374575
0.383764
0.391802
0.398827
0.405269
0.411994
0.42053
0.43342
0.45432
0.487958
0.540366
0.618797
0.731682
0.889708
1.11135
1.43928
1.96945
0.186066
0.184708
0.189835
0.193418
0.195764
0.197498
0.19905
0.200728
0.202749
0.205276
0.20843
0.212306
0.216976
0.222493
0.228887
0.23617
0.244328
0.253328
0.263108
0.273579
0.284622
0.296086
0.307793
0.319536
0.331089
0.342217
0.352698
0.362347
0.371054
0.37884
0.385929
0.39285
0.400587
0.410786
0.426076
0.450332
0.488645
0.547703
0.635884
0.763376
0.943126
1.19578
1.56669
2.16507
0.201356
0.191224
0.19225
0.194249
0.19587
0.1972
0.198482
0.199946
0.201778
0.204123
0.207097
0.21079
0.215273
0.220591
0.226773
0.233825
0.241732
0.250457
0.259937
0.270082
0.280777
0.291877
0.303211
0.314586
0.325794
0.33663
0.346904
0.356475
0.365289
0.373433
0.381209
0.389238
0.39861
0.411089
0.42942
0.457717
0.501473
0.568101
0.667299
0.811503
1.0171
1.30918
1.73815
2.42472
0.215284
0.195589
0.192694
0.193405
0.194582
0.195776
0.197038
0.198522
0.200381
0.202747
0.205731
0.209422
0.213887
0.219174
0.225309
0.232299
0.24013
0.248767
0.25815
0.268193
0.278786
0.289793
0.301052
0.312387
0.32361
0.334541
0.345025
0.354964
0.364356
0.373348
0.382316
0.391967
0.403484
0.418742
0.440601
0.473388
0.522985
0.597477
0.70781
0.868654
1.10015
1.43316
1.92708
2.72413
0.228283
0.198412
0.191835
0.19141
0.19225
0.193413
0.194774
0.196407
0.198428
0.200952
0.204082
0.207902
0.212479
0.217862
0.22408
0.231143
0.239042
0.247745
0.2572
0.267328
0.278027
0.28917
0.30061
0.312185
0.323728
0.335086
0.346137
0.356824
0.367196
0.377459
0.388056
0.399768
0.413866
0.432313
0.458078
0.495583
0.551062
0.633069
0.753443
0.928517
1.18141
1.54819
2.09881
3.0107
0.240652
0.200126
0.190128
0.188636
0.189148
0.190296
0.191794
0.193637
0.195899
0.19867
0.20204
0.206088
0.210879
0.216464
0.222875
0.230128
0.238221
0.247132
0.256815
0.267202
0.2782
0.289696
0.301554
0.31363
0.325778
0.33787
0.34982
0.361611
0.373339
0.385269
0.397906
0.412101
0.42919
0.451203
0.481161
0.523514
0.584667
0.67332
0.801598
0.986411
1.25195
1.63603
2.21105
3.15868
0.252732
0.201044
0.18785
0.185305
0.185451
0.186558
0.188193
0.190272
0.192818
0.195894
0.199574
0.203926
0.209016
0.214893
0.221597
0.229151
0.237563
0.24682
0.256888
0.267711
0.279208
0.291276
0.303795
0.316637
0.329677
0.342815
0.355996
0.369246
0.38271
0.396706
0.4118
0.428899
0.449392
0.475339
0.509749
0.556977
0.623374
0.717349
0.850529
1.03901
1.30559
1.68508
2.24128
3.12536
0.264579
0.201374
0.185205
0.1816
0.18133
0.182359
0.184115
0.186432
0.189284
0.1927
0.196735
0.201448
0.206902
0.213149
0.220235
0.228194
0.237045
0.246787
0.2574
0.26884
0.281038
0.293904
0.307332
0.321209
0.335433
0.349928
0.364674
0.379738
0.395313
0.411771
0.429733
0.450154
0.474459
0.504702
0.543805
0.595898
0.667025
0.764834
0.899666
1.08557
1.34199
1.69778
2.20317
2.96995
0.276302
0.201284
0.182323
0.177638
0.176912
0.177833
0.179693
0.182245
0.18541
0.189185
0.193604
0.198719
0.204588
0.21127
0.21882
0.227282
0.23669
0.247058
0.25838
0.270624
0.283736
0.297637
0.312234
0.327431
0.343142
0.359319
0.375976
0.393221
0.411298
0.430631
0.451892
0.476082
0.504642
0.539592
0.583712
0.640774
0.716275
0.816675
0.950372
1.12851
1.36637
1.68639
2.12675
2.76778
0.288013
0.200916
0.179295
0.173513
0.172307
0.173106
0.175063
0.177846
0.181326
0.185468
0.190287
0.195829
0.202153
0.209325
0.21741
0.22647
0.236551
0.247687
0.259886
0.273131
0.287381
0.302569
0.318613
0.335429
0.35295
0.371153
0.390086
0.409902
0.430895
0.453544
0.478573
0.507023
0.540348
0.580522
0.63015
0.692569
0.772498
0.87489
1.00571
1.17275
1.38708
1.66587
2.03871
2.56464
0.299845
0.200399
0.176196
0.169308
0.167627
0.16831
0.170367
0.173382
0.177175
0.181681
0.186905
0.192886
0.199691
0.207395
0.21608
0.225824
0.236693
0.248739
0.261989
0.276442
0.292068
0.308811
0.326598
0.345354
0.36503
0.385625
0.407224
0.430027
0.454383
0.48083
0.510145
0.543413
0.582106
0.628165
0.684039
0.752666
0.837683
0.942455
1.07011
1.22485
1.41398
1.65105
1.96052
2.38794
0.311983
0.199861
0.1731
0.165117
0.162992
0.163587
0.165759
0.169005
0.173102
0.177962
0.18358
0.190001
0.1973
0.205569
0.214907
0.225415
0.237183
0.250283
0.264763
0.280638
0.297892
0.316477
0.336324
0.357366
0.379565
0.402945
0.427628
0.453866
0.482071
0.512845
0.547024
0.585744
0.630512
0.683272
0.746386
0.82247
0.914102
1.02286
1.14873
1.29209
1.45711
1.65568
1.91011
2.2572
0.324691
0.199446
0.170096
0.161056
0.158546
0.159095
0.161397
0.164872
0.169254
0.174443
0.180435
0.187281
0.195074
0.203927
0.213963
0.225309
0.23808
0.252376
0.268267
0.285789
0.304936
0.325668
0.347915
0.371613
0.396729
0.423312
0.451525
0.481682
0.514265
0.549949
0.589634
0.634513
0.686151
0.746552
0.8181
0.903237
1.00376
1.11921
1.24613
1.38095
1.52532
1.69114
1.90107
2.18489
0.338353
0.199325
0.167307
0.157276
0.154457
0.155004
0.157448
0.161134
0.165769
0.171248
0.177574
0.184818
0.193093
0.202538
0.213305
0.225551
0.239425
0.255055
0.272541
0.291939
0.313258
0.33646
0.361471
0.388217
0.41667
0.446899
0.479118
0.513711
0.551245
0.592475
0.638364
0.690157
0.749489
0.818476
0.899646
0.995471
1.10726
1.23254
1.36437
1.4943
1.62198
1.76167
1.93933
2.17499
0.353513
0.199703
0.164904
0.153972
0.15092
0.151495
0.154069
0.157928
0.162764
0.168475
0.175084
0.182684
0.191416
0.201449
0.212969
0.226169
0.241235
0.258332
0.277592
0.2991
0.322879
0.348889
0.377046
0.407258
0.43949
0.473831
0.510554
0.550133
0.593234
0.640692
0.693516
0.75297
0.820729
0.899013
0.990528
1.09797
1.22279
1.36089
1.50142
1.62781
1.7406
1.86128
2.02301
2.22628
0.370905
0.200811
0.163123
0.151386
0.148147
0.14874
0.151398
0.155362
0.160321
0.166191
0.173016
0.18092
0.190074
0.200682
0.212968
0.227164
0.243499
0.262184
0.283391
0.307238
0.333767
0.362936
0.394639
0.428751
0.465219
0.504155
0.545902
0.591045
0.640361
0.694757
0.755239
0.823002
0.899643
0.987361
1.08902
1.20798
1.34678
1.49878
1.65251
1.7703
1.86415
1.97546
2.14598
2.34355
2.53599
0.391457
0.202883
0.162272
0.149791
0.146341
0.14688
0.149526
0.153495
0.15848
0.164421
0.171389
0.179539
0.189075
0.200237
0.21329
0.228511
0.246178
0.266554
0.289864
0.316266
0.345828
0.378507
0.414163
0.452621
0.493795
0.537819
0.585124
0.636429
0.692634
0.754679
0.823465
0.89995
0.985431
1.08191
1.19243
1.32133
1.47429
1.62823
1.7622
1.86766
1.95821
2.06998
2.25143
2.49028
2.64086
0.416259
0.20616
0.16274
0.149467
0.145665
0.145994
0.148483
0.152324
0.157225
0.163144
0.170181
0.178521
0.188399
0.200092
0.213905
0.230166
0.249208
0.271354
0.296892
0.326037
0.358894
0.395421
0.435435
0.478689
0.525041
0.574649
0.628056
0.686138
0.749908
0.820264
0.897829
0.983068
1.07669
1.18027
1.29646
1.42938
1.56281
1.687
1.79875
1.90453
2.00537
2.1227
2.30198
2.57626
2.76383
0.446589
0.211046
0.165016
0.150661
0.146201
0.146074
0.148212
0.151779
0.156482
0.162296
0.169342
0.177826
0.188014
0.200216
0.214779
0.23208
0.252516
0.276478
0.304329
0.336357
0.372723
0.413402
0.45816
0.506648
0.558646
0.614336
0.674398
0.73988
0.811865
0.891068
0.977601
1.07109
1.17121
1.279
1.3907
1.49996
1.60095
1.7008
1.79858
1.89575
1.99824
2.12371
2.31295
2.61326
2.86426
0.484312
0.218697
0.169726
0.15356
0.147923
0.147003
0.14857
0.151719
0.156132
0.161782
0.168799
0.177405
0.187887
0.200584
0.215884
0.234217
0.25604
0.281823
0.312016
0.346999
0.387016
0.432085
0.481927
0.536061
0.594159
0.65643
0.723713
0.797218
0.877984
0.966343
1.06158
1.16198
1.26574
1.36871
1.4634
1.54798
1.6255
1.69967
1.77646
1.86247
1.96512
2.09817
2.29712
2.61218
2.93819
0.531153
0.231539
0.177221
0.158162
0.150693
0.148569
0.149345
0.151961
0.156028
0.161495
0.168483
0.177219
0.188002
0.201197
0.21723
0.236577
0.259761
0.287331
0.319831
0.357755
0.401461
0.451054
0.506236
0.566374
0.631003
0.700362
0.775449
0.85756
0.947514
1.04494
1.14787
1.25303
1.35595
1.44885
1.5276
1.59163
1.64364
1.69271
1.75048
1.82707
1.93007
2.06979
2.27773
2.60769
2.99571
0.578337
0.249294
0.187746
0.164339
0.154239
0.150512
0.150303
0.152321
0.156042
0.161353
0.168353
0.17726
0.188382
0.202102
0.218877
0.23923
0.263742
0.293036
0.327756
0.368515
0.415819
0.469921
0.530565
0.596976
0.668534
0.745502
0.828981
0.920195
1.0194
1.12506
1.23389
1.3412
1.44007
1.52239
1.58373
1.62451
1.65167
1.67886
1.72091
1.78988
1.89389
2.04314
2.27073
2.64598
3.08503
0.616223
0.273277
0.202196
0.172186
0.15835
0.152592
0.151261
0.152677
0.156104
0.161335
0.168424
0.177579
0.189107
0.203407
0.220961
0.242333
0.268153
0.29911
0.335938
0.379364
0.430055
0.488466
0.554492
0.627309
0.70616
0.79129
0.883754
0.984307
1.09207
1.20425
1.31663
1.42304
1.51438
1.58163
1.62155
1.63812
1.64276
1.65165
1.68113
1.74453
1.85169
2.016
2.27751
2.7219
3.20059
0.635246
0.309016
0.22309
0.182216
0.162993
0.154699
0.152152
0.153004
0.156225
0.161476
0.168759
0.178261
0.190291
0.205256
0.223661
0.246098
0.27324
0.305831
0.344676
0.3906
0.444415
0.50679
0.577916
0.657134
0.743631
0.837522
0.93937
1.04874
1.16342
1.27982
1.39289
1.49347
1.57084
1.61751
1.63368
1.62711
1.61237
1.60667
1.62671
1.68671
1.79891
1.98082
2.27739
2.77542
3.30423
0.637394
0.373099
0.256326
0.195605
0.168373
0.156949
0.153117
0.153454
0.156542
0.161898
0.169463
0.179407
0.192036
0.207769
0.227122
0.250711
0.27924
0.313498
0.354353
0.402721
0.459537
0.525612
0.601502
0.687051
0.781493
0.884433
0.995207
1.1119
1.2313
1.34934
1.45774
1.5452
1.60212
1.62481
1.6171
1.59015
1.5599
1.54342
1.55698
1.61507
1.73183
1.92787
2.24781
2.77546
3.47556
0.677935
0.486897
0.312033
0.213912
0.174911
0.159745
0.154596
0.154456
0.157437
0.162941
0.170839
0.181285
0.194592
0.211193
0.231616
0.256483
0.286527
0.322574
0.365549
0.416461
0.476388
0.546079
0.62641
0.718195
0.820518
0.931892
1.05018
1.17218
1.29396
1.40839
1.50454
1.57185
1.6043
1.60232
1.57279
1.52938
1.48789
1.46444
1.47418
1.53106
1.65005
1.85375
2.18673
2.74388
3.66002
0.779809
0.568077
0.351436
0.233246
0.182236
0.163472
0.157213
0.156619
0.159447
0.165139
0.173421
0.184425
0.198477
0.216053
0.237686
0.263992
0.295725
0.333723
0.378958
0.432534
0.49581
0.569102
0.653357
0.751067
0.860558
0.979119
1.10313
1.22821
1.34742
1.45067
1.52731
1.57006
1.57698
1.55195
1.50439
1.44908
1.40083
1.37389
1.38178
1.4378
1.55719
1.76279
2.09801
2.65791
3.63289
0.856755
0.520028
0.356643
0.240355
0.187777
0.167145
0.160022
0.159284
0.162389
0.168576
0.177482
0.189218
0.204148
0.222835
0.24581
0.273661
0.307153
0.347064
0.394382
0.450187
0.515835
0.592459
0.681533
0.784781
0.900232
1.02451
1.15239
1.27572
1.38489
1.46978
1.52249
1.53953
1.52245
1.47768
1.41755
1.35518
1.30365
1.27539
1.28228
1.33664
1.45341
1.65494
1.98183
2.51685
3.41714
0.870467
0.504906
0.340356
0.23838
0.1905
0.169733
0.161774
0.160545
0.163707
0.170215
0.179741
0.192319
0.208253
0.228038
0.252203
0.281365
0.316302
0.357904
0.407289
0.465662
0.534477
0.615496
0.709744
0.817862
0.938127
1.06564
1.1917
1.3061
1.39878
1.46144
1.48938
1.48244
1.44534
1.38656
1.31863
1.25298
1.2008
1.17262
1.17863
1.22981
1.34003
1.52976
1.83371
2.31586
3.0882
0.757483
0.424506
0.308102
0.231227
0.190657
0.171092
0.162974
0.161538
0.164597
0.171223
0.181131
0.194354
0.211166
0.231975
0.257327
0.287912
0.324589
0.368426
0.420618
0.482473
0.555282
0.640183
0.73796
0.848676
0.969902
1.09464
1.21234
1.31225
1.38519
1.42513
1.43027
1.40361
1.35179
1.28458
1.21314
1.1473
1.09641
1.06913
1.07392
1.12017
1.21993
1.39061
1.65947
2.07155
2.69879
0.661875
0.366794
0.279877
0.222169
0.189144
0.171962
0.164494
0.163312
0.166664
0.173745
0.184293
0.198352
0.216186
0.23822
0.265037
0.297374
0.336113
0.382304
0.437105
0.50172
0.57723
0.664366
0.763353
0.873247
0.990223
1.10617
1.21038
1.29256
1.34504
1.36388
1.35034
1.30934
1.24815
1.1774
1.10597
1.04229
0.994003
0.968044
0.97118
1.01101
1.09736
1.24404
1.47123
1.80888
2.29975
0.63008
0.339886
0.259486
0.213244
0.18673
0.172615
0.166598
0.166263
0.170314
0.178135
0.189533
0.204589
0.223585
0.246958
0.2753
0.309345
0.349961
0.398134
0.454909
0.521274
0.597978
0.685262
0.782536
0.887695
0.995863
1.09874
1.18625
1.24952
1.28226
1.28355
1.25622
1.20604
1.14071
1.06992
1.00112
0.941253
0.896406
0.871957
0.873086
0.905604
0.976996
1.09758
1.28176
1.54935
1.92626
0.638252
0.329521
0.245794
0.205541
0.183965
0.172961
0.168888
0.169913
0.175084
0.183961
0.196437
0.212638
0.232864
0.25756
0.287305
0.322803
0.364861
0.414353
0.472136
0.538907
0.614993
0.700041
0.792661
0.889775
0.985966
1.0733
1.14278
1.1872
1.20314
1.191
1.15443
1.09936
1.034
0.96598
0.901639
0.846612
0.80564
0.782747
0.781703
0.806675
0.862974
0.957818
1.10107
1.30583
1.58861
0.672532
0.327699
0.237106
0.199478
0.181257
0.172939
0.170918
0.173583
0.180167
0.190346
0.204076
0.221511
0.242962
0.268863
0.299762
0.336301
0.379189
0.429141
0.48678
0.552466
0.626075
0.706669
0.7922
0.878891
0.961407
1.03189
1.08365
1.11174
1.11427
1.0926
1.05077
0.994553
0.931808
0.868381
0.809585
0.7599
0.72292
0.701538
0.698342
0.716098
0.75827
0.829503
0.936053
1.08609
1.28966
0.722251
0.329513
0.231789
0.195047
0.178918
0.172672
0.172503
0.176817
0.184898
0.196464
0.211495
0.23015
0.252723
0.279618
0.311326
0.348402
0.391423
0.440918
0.497251
0.560425
0.629913
0.704232
0.780999
0.855774
0.923361
0.977872
1.01414
1.02886
1.02135
0.993583
0.949704
0.895209
0.836681
0.778883
0.726107
0.681839
0.648724
0.628751
0.623569
0.634838
0.66457
0.715423
0.790911
0.895484
1.0343
0.77854
0.332148
0.228635
0.192083
0.177189
0.172408
0.173727
0.179484
0.188939
0.201798
0.218027
0.237757
0.261244
0.288834
0.320937
0.358002
0.400447
0.448598
0.502577
0.562007
0.626112
0.6928
0.759232
0.82155
0.875218
0.915614
0.938999
0.943366
0.928899
0.897898
0.854281
0.803361
0.750057
0.69832
0.651578
0.612487
0.582944
0.564248
0.557342
0.563075
0.582415
0.616609
0.667263
0.736278
0.825538
0.834991
0.334517
0.227029
0.190458
0.176249
0.17242
0.174812
0.181682
0.19224
0.206153
0.223339
0.243886
0.267985
0.295899
0.327943
0.364443
0.405641
0.451649
0.502434
0.557102
0.614501
0.672616
0.728672
0.779222
0.820506
0.849015
0.862191
0.859013
0.840243
0.808277
0.766657
0.720218
0.672516
0.626806
0.585778
0.551426
0.525072
0.50751
0.499193
0.500419
0.511469
0.532692
0.564509
0.607314
0.661189
0.887746
0.336688
0.226771
0.190098
0.176212
0.172924
0.175989
0.183601
0.194918
0.209553
0.227371
0.248392
0.27274
0.300567
0.332078
0.367496
0.406859
0.45
0.496567
0.54569
0.596012
0.645552
0.691772
0.731731
0.762444
0.781347
0.786811
0.778513
0.757555
0.726278
0.687838
0.646131
0.60397
0.563936
0.528106
0.497952
0.474373
0.457816
0.448415
0.44613
0.45084
0.462384
0.48055
0.504986
0.535006
0.935024
0.339265
0.22782
0.190928
0.177099
0.174031
0.177422
0.18542
0.197137
0.212134
0.230216
0.251333
0.275548
0.30287
0.333374
0.367101
0.403958
0.443652
0.485631
0.528953
)
;

boundaryField
{
    leftWall
    {
        Cmu             0.09;
        kappa           0.41;
        E               9.8;
        type            epsilonWallFunction;
        value           nonuniform List<scalar> 
44
(
0.0361254
0.0596008
0.09419
0.124826
0.148714
0.168793
0.186066
0.201356
0.215284
0.228283
0.240652
0.252732
0.264579
0.276302
0.288013
0.299845
0.311983
0.324691
0.338353
0.353513
0.370905
0.391457
0.416259
0.446589
0.484312
0.531153
0.578337
0.616223
0.635246
0.637394
0.677935
0.779809
0.856755
0.870467
0.757483
0.661875
0.63008
0.638252
0.672532
0.722251
0.77854
0.834991
0.887746
0.935024
)
;
    }
    rightWall
    {
        Cmu             0.09;
        kappa           0.41;
        E               9.8;
        type            epsilonWallFunction;
        value           nonuniform 0();
    }
    lowerWall
    {
        Cmu             0.09;
        kappa           0.41;
        E               9.8;
        type            epsilonWallFunction;
        value           nonuniform List<scalar> 
44
(
0.0361254
0.117947
0.231141
0.325833
0.404716
0.472896
0.534113
0.591335
0.646827
0.702297
0.75904
0.818084
0.88029
0.946415
1.01713
1.09301
1.17454
1.26202
1.35559
1.45513
1.56025
1.6702
1.78386
1.89973
2.01587
2.12992
2.23914
2.34041
2.43033
2.50527
2.56147
2.59502
2.60161
2.57589
2.52971
2.45918
2.35895
2.22554
2.05729
1.85504
1.62403
1.37729
1.13578
0.98178
)
;
    }
    atmosphere
    {
        type            inletOutlet;
        inletValue      nonuniform 0();
        value           nonuniform 0();
    }
    defaultFaces
    {
        type            empty;
    }
    procBoundary0to1
    {
        type            processor;
        value           nonuniform List<scalar> 
44
(
0.887794
1.41555
1.85403
2.23914
2.5732
2.90544
3.28768
3.76793
4.38505
5.11112
5.2278
4.82391
4.28612
3.78831
3.3637
3.01961
2.76209
2.59273
2.50501
2.48774
2.48774
2.84818
2.8588
2.90574
2.96747
3.03432
3.10327
3.20033
3.33039
3.47952
3.72999
4.17974
4.59901
4.62697
4.2204
3.60715
2.9868
2.43929
1.96658
1.55695
1.21196
0.935978
0.725311
0.569343
)
;
    }
    procBoundary0to2
    {
        type            processor;
        value           nonuniform List<scalar> 
46
(
0.572231
0.613628
0.650928
0.681725
0.703734
0.715169
0.715092
0.703644
0.682072
0.652543
0.617801
0.580836
0.543896
0.509012
0.477771
0.451251
0.430052
0.414395
0.404228
0.39933
0.399378
0.403976
0.412643
0.424755
0.439447
0.976634
0.342972
0.230124
0.192813
0.178831
0.175738
0.179175
0.187251
0.199038
0.214051
0.232034
0.252858
0.276466
0.302814
0.33185
0.363473
0.39746
0.433403
0.470648
0.572231
0.508227
)
;
    }
}


// ************************************************************************* //
