/*--------------------------------*- C++ -*----------------------------------*\
| =========                 |                                                 |
| \\      /  F ield         | OpenFOAM: The Open Source CFD Toolbox           |
|  \\    /   O peration     | Version:  5.0                                   |
|   \\  /    A nd           | Web:      www.OpenFOAM.org                      |
|    \\/     M anipulation  |                                                 |
\*---------------------------------------------------------------------------*/
FoamFile
{
    version     2.0;
    format      ascii;
    class       volScalarField;
    location    "0.25";
    object      k;
}
// * * * * * * * * * * * * * * * * * * * * * * * * * * * * * * * * * * * * * //

dimensions      [0 2 -2 0 0 0 0];

internalField   nonuniform List<scalar> 
1935
(
0.00392068
0.00790237
0.0123782
0.0155772
0.0180018
0.0199704
0.0216573
0.0231764
0.0246039
0.0259916
0.0273752
0.0287802
0.0302257
0.0317265
0.0332941
0.0349367
0.0366596
0.0384641
0.0403477
0.0423033
0.0443188
0.046377
0.0484556
0.0505271
0.0525589
0.0545139
0.0563508
0.0580248
0.0594881
0.0606907
0.061581
0.0621038
0.0621947
0.0617706
0.0610321
0.0598902
0.0582481
0.0560268
0.0531631
0.0496192
0.0454169
0.040711
0.0358035
0.0325929
0.00602323
0.0168728
0.0247583
0.030801
0.0354765
0.0392164
0.0423602
0.0451505
0.0477496
0.0502645
0.0527669
0.0553072
0.0579218
0.0606375
0.0634731
0.06644
0.0695421
0.0727753
0.0761269
0.0795754
0.0830901
0.0866317
0.090152
0.0935952
0.0968983
0.099993
0.102807
0.105268
0.107304
0.10885
0.109854
0.110282
0.110125
0.109389
0.107953
0.106002
0.103682
0.101257
0.0991547
0.0979975
0.0984817
0.100847
0.103256
0.102704
0.00816768
0.0213386
0.0304861
0.0375907
0.0432679
0.0479456
0.0519564
0.0555508
0.0589079
0.0621523
0.0653719
0.0686298
0.0719718
0.0754306
0.0790279
0.0827746
0.0866718
0.0907098
0.0948684
0.0991168
0.103414
0.107708
0.11194
0.116039
0.119931
0.123536
0.126772
0.129559
0.131824
0.13351
0.134582
0.135039
0.134927
0.134341
0.133374
0.132219
0.131031
0.129923
0.128971
0.128352
0.128606
0.130726
0.134838
0.138537
0.00986894
0.0247251
0.0345097
0.0421046
0.0483161
0.0535745
0.0581818
0.062367
0.0663012
0.0701103
0.0738868
0.0776993
0.0815983
0.085619
0.0897834
0.0941009
0.0985692
0.103173
0.107888
0.112674
0.117484
0.122259
0.126932
0.131425
0.135659
0.139549
0.14301
0.145965
0.148348
0.150115
0.151256
0.151809
0.151876
0.151633
0.151329
0.151296
0.151807
0.152981
0.154675
0.156501
0.158163
0.160157
0.163951
0.170074
0.0110962
0.0272889
0.0375416
0.0454747
0.0520556
0.0577381
0.0628067
0.0674701
0.0718865
0.0761762
0.080431
0.0847207
0.0890964
0.0935938
0.0982336
0.103023
0.107955
0.113013
0.118163
0.123364
0.128563
0.133694
0.138688
0.143463
0.147938
0.152027
0.155649
0.158733
0.161224
0.163098
0.16437
0.165119
0.165499
0.165763
0.166261
0.167454
0.169738
0.173323
0.17804
0.183252
0.188068
0.192154
0.196819
0.203812
0.0120762
0.0291604
0.0397919
0.0480507
0.0549666
0.0610123
0.0664704
0.0715406
0.0763731
0.0810833
0.0857605
0.090473
0.0952709
0.100188
0.105243
0.11044
0.115769
0.121207
0.126721
0.132263
0.137776
0.143195
0.148445
0.153447
0.158118
0.162376
0.166147
0.169368
0.172
0.174037
0.175526
0.176581
0.177408
0.178322
0.179752
0.182258
0.186344
0.192327
0.200121
0.209071
0.218027
0.225971
0.233189
0.240538
0.0128876
0.0305106
0.0414354
0.0500203
0.0572694
0.0636561
0.0694657
0.0748974
0.0800994
0.0851847
0.0902403
0.0953325
0.100509
0.105802
0.111225
0.116781
0.122456
0.128225
0.13405
0.139883
0.145664
0.151327
0.156797
0.161997
0.166847
0.171271
0.175202
0.178589
0.181409
0.183678
0.185472
0.18694
0.188332
0.190015
0.192481
0.196364
0.202258
0.210591
0.221407
0.234162
0.247674
0.260476
0.271635
0.279921
0.0135846
0.0314908
0.0426353
0.0515294
0.0591007
0.0658099
0.0719446
0.0777065
0.0832443
0.0886704
0.0940703
0.099508
0.105029
0.11066
0.116415
0.122291
0.128274
0.134334
0.140433
0.146521
0.152539
0.15842
0.164092
0.169479
0.174506
0.179106
0.183219
0.18681
0.189872
0.192444
0.194626
0.1966
0.198655
0.201199
0.204768
0.210051
0.217716
0.228294
0.241975
0.258386
0.276452
0.29448
0.310534
0.321084
0.014204
0.0322152
0.0435252
0.0526966
0.0605623
0.0675673
0.0740005
0.0800659
0.0859131
0.0916537
0.0973713
0.103127
0.108963
0.114905
0.120961
0.127128
0.133387
0.13971
0.146057
0.152376
0.158611
0.164696
0.170561
0.176135
0.18135
0.186144
0.19047
0.194307
0.197665
0.200604
0.203248
0.205808
0.2086
0.212065
0.216766
0.223422
0.232759
0.245392
0.261644
0.281322
0.303519
0.326524
0.347824
0.362241
0.0147701
0.0327645
0.0442041
0.0536128
0.0617329
0.0689988
0.0757009
0.0820442
0.0881776
0.0942107
0.100224
0.106277
0.112406
0.118634
0.124968
0.131401
0.137915
0.14448
0.151056
0.157593
0.164035
0.17032
0.17638
0.18215
0.187567
0.19258
0.197154
0.20128
0.204986
0.208352
0.211522
0.214729
0.21831
0.222724
0.228555
0.2365
0.247343
0.261743
0.280109
0.302389
0.327832
0.354811
0.380684
0.400049
0.015299
0.0331969
0.0447435
0.0543474
0.0626783
0.0701681
0.0771096
0.0837073
0.0901075
0.0964159
0.102709
0.109042
0.115447
0.121945
0.128541
0.135225
0.14198
0.148775
0.155571
0.162322
0.168972
0.175462
0.181729
0.187712
0.193356
0.19862
0.203479
0.20794
0.212047
0.215896
0.219651
0.22356
0.22797
0.233345
0.240262
0.249397
0.261534
0.277331
0.297224
0.321207
0.348596
0.377776
0.405988
0.427974
0.0158071
0.0335561
0.0451956
0.0549519
0.0634486
0.0711249
0.0782766
0.0851062
0.0917549
0.0983231
0.104882
0.11148
0.118149
0.124904
0.131748
0.138673
0.145661
0.152682
0.1597
0.166668
0.173535
0.180244
0.186737
0.192959
0.198862
0.204413
0.2096
0.214445
0.219005
0.223394
0.227788
0.232445
0.237714
0.244046
0.251991
0.262179
0.275348
0.292099
0.312807
0.337416
0.365173
0.394346
0.421919
0.442629
0.0162982
0.0338701
0.0455925
0.0554588
0.0640784
0.0719056
0.0792396
0.0862784
0.0931569
0.0999682
0.106777
0.113626
0.120544
0.127543
0.134625
0.141784
0.149
0.156247
0.16349
0.170687
0.177786
0.184736
0.191481
0.197972
0.204168
0.210046
0.215607
0.220883
0.225947
0.230927
0.236008
0.241451
0.247596
0.254869
0.263774
0.274864
0.28879
0.30603
0.326827
0.350987
0.377625
0.404879
0.4296
0.446764
0.0167777
0.0341638
0.0459613
0.0558988
0.0646039
0.0725518
0.0800435
0.0872711
0.094361
0.101398
0.10844
0.115525
0.122676
0.129907
0.137218
0.144603
0.152047
0.159526
0.167005
0.174446
0.181801
0.189018
0.196048
0.202845
0.209376
0.215626
0.221607
0.227364
0.232985
0.238606
0.244421
0.250688
0.25773
0.265937
0.275747
0.287613
0.302056
0.319378
0.339625
0.362423
0.386773
0.410824
0.431642
0.444854
0.0172511
0.0344595
0.0463257
0.056301
0.0650618
0.0731066
0.0807362
0.0881343
0.0954175
0.102662
0.109919
0.117221
0.12459
0.132039
0.139569
0.147178
0.154852
0.162569
0.170301
0.178008
0.185646
0.193167
0.200521
0.207668
0.21458
0.221251
0.227703
0.233996
0.240228
0.246545
0.253147
0.260283
0.268256
0.277413
0.288114
0.300695
0.315506
0.33263
0.351863
0.372635
0.393898
0.413995
0.4305
0.439918
0.0177243
0.0347793
0.0467092
0.0566962
0.0654916
0.0736168
0.0813686
0.0889206
0.0963786
0.10381
0.11126
0.118759
0.126328
0.133979
0.141719
0.149547
0.157454
0.165423
0.173426
0.181428
0.189385
0.197249
0.204973
0.21252
0.219865
0.227012
0.233993
0.24088
0.247784
0.254861
0.262311
0.270377
0.279339
0.289497
0.301137
0.314475
0.329636
0.346471
0.364469
0.382841
0.40056
0.416338
0.428433
0.434258
0.0182054
0.0351472
0.0471384
0.0571193
0.0659375
0.0741329
0.0819949
0.0896847
0.0972973
0.104893
0.112511
0.120182
0.127928
0.135765
0.143703
0.151747
0.159893
0.168126
0.176424
0.184753
0.193068
0.201324
0.209472
0.217474
0.225313
0.232996
0.240569
0.248116
0.255761
0.26367
0.272045
0.281121
0.291156
0.302411
0.315103
0.329336
0.345011
0.361694
0.378509
0.394407
0.408436
0.419847
0.427692
0.430126
0.0187053
0.0355918
0.0476452
0.0576115
0.0664487
0.0747092
0.0826706
0.0904808
0.0982245
0.105956
0.113714
0.121529
0.129426
0.137429
0.145552
0.153807
0.162196
0.17071
0.179329
0.188021
0.196742
0.205442
0.214073
0.222595
0.230992
0.23928
0.247514
0.255795
0.264262
0.27309
0.282482
0.292666
0.303883
0.316364
0.330274
0.345624
0.362127
0.379001
0.394939
0.408576
0.419079
0.426338
0.430281
0.429485
0.0192389
0.0361496
0.0482694
0.0582208
0.067079
0.0754011
0.0834499
0.0913591
0.0992055
0.10704
0.114903
0.122829
0.130849
0.138994
0.147288
0.155749
0.164387
0.173198
0.182166
0.191261
0.200438
0.209644
0.218824
0.227936
0.236963
0.245929
0.254903
0.264001
0.273381
0.283226
0.293741
0.305145
0.317662
0.331502
0.346804
0.363511
0.381183
0.398682
0.41424
0.425991
0.433241
0.436715
0.437387
0.433559
0.0198269
0.0368685
0.04906
0.0590012
0.0678834
0.0762613
0.08438
0.0923609
0.100275
0.108175
0.116104
0.124104
0.132216
0.140479
0.148926
0.157587
0.166477
0.175602
0.184949
0.19449
0.204178
0.213954
0.223756
0.233534
0.24327
0.252995
0.262792
0.272801
0.283194
0.294167
0.305919
0.31865
0.332564
0.347852
0.364628
0.382809
0.401905
0.420472
0.436193
0.446153
0.450204
0.450446
0.449148
0.442906
0.0204956
0.0378102
0.0500738
0.0600073
0.0689113
0.0773314
0.0854945
0.0935123
0.101454
0.109376
0.117329
0.125365
0.133535
0.141889
0.150473
0.159324
0.168471
0.177924
0.18768
0.19771
0.207967
0.218382
0.228884
0.239411
0.249941
0.26051
0.271223
0.282241
0.293759
0.305976
0.319072
0.333213
0.34856
0.365266
0.38343
0.403035
0.42371
0.443516
0.460124
0.467615
0.467859
0.465895
0.465059
0.458322
0.438426
0.0212757
0.0390466
0.0513661
0.0612833
0.0701949
0.0786321
0.0868046
0.0948173
0.102741
0.11064
0.118575
0.126609
0.134805
0.143225
0.151927
0.16096
0.170363
0.180159
0.19035
0.200911
0.211793
0.222921
0.234205
0.245568
0.256979
0.268484
0.280208
0.292343
0.305101
0.318674
0.333203
0.348783
0.365495
0.383436
0.402715
0.423467
0.445792
0.465098
0.477824
0.482672
0.481545
0.478685
0.478316
0.475704
0.452427
0.0222006
0.0406435
0.0529732
0.0628455
0.0717346
0.0801517
0.0882905
0.0962521
0.104113
0.111946
0.119824
0.127823
0.136017
0.14448
0.153283
0.162489
0.172147
0.182294
0.19294
0.204069
0.215631
0.227541
0.23969
0.25198
0.264366
0.2769
0.289737
0.303099
0.317213
0.332243
0.34825
0.365216
0.383101
0.40192
0.421721
0.442635
0.461251
0.47546
0.484377
0.48878
0.488479
0.485621
0.484226
0.485034
0.465969
0.0233068
0.0426286
0.0548851
0.0646616
0.0734842
0.0818359
0.0898954
0.0977626
0.105521
0.113254
0.121047
0.128986
0.137158
0.145648
0.154538
0.163905
0.173815
0.184314
0.195429
0.207152
0.219438
0.232195
0.245293
0.258601
0.272055
0.285716
0.299771
0.314474
0.330051
0.346606
0.36408
0.382277
0.400974
0.420116
0.438662
0.455152
0.468132
0.478232
0.484795
0.487642
0.487171
0.484913
0.484245
0.487497
0.4748
0.0246502
0.0449481
0.057021
0.0666329
0.0753414
0.0835835
0.0915254
0.0992666
0.106898
0.114514
0.122208
0.130077
0.138218
0.146726
0.155696
0.165217
0.175369
0.186216
0.1978
0.210129
0.223167
0.236823
0.250944
0.265357
0.279974
0.294864
0.310248
0.326405
0.343533
0.361636
0.380475
0.399604
0.418546
0.436374
0.451567
0.463513
0.47231
0.478036
0.481092
0.481953
0.481061
0.479301
0.479372
0.484
0.47864
0.026225
0.0473556
0.0592849
0.0686603
0.0771514
0.0852534
0.0930587
0.100664
0.108167
0.115669
0.123273
0.131081
0.139198
0.147728
0.156779
0.16645
0.176837
0.18802
0.200059
0.212984
0.226779
0.241362
0.256562
0.272161
0.288033
0.304257
0.321085
0.338801
0.357535
0.377131
0.397107
0.41674
0.435118
0.450753
0.462798
0.470894
0.475113
0.476408
0.476034
0.474897
0.473325
0.471634
0.472048
0.477783
0.478533
0.0277039
0.0497311
0.0615251
0.0705974
0.0788081
0.0866881
0.094369
0.10186
0.109261
0.11668
0.124224
0.132
0.140119
0.148692
0.157836
0.167662
0.178278
0.189781
0.202252
0.215744
0.23027
0.245773
0.26208
0.278924
0.296139
0.313808
0.332197
0.351557
0.371884
0.392785
0.413547
0.433227
0.450526
0.463957
0.472662
0.476475
0.476141
0.473331
0.469778
0.466606
0.46411
0.462476
0.464024
0.473563
0.478904
0.0287925
0.0518899
0.0636075
0.0722826
0.0801539
0.0878007
0.0953586
0.102787
0.110143
0.117536
0.125074
0.132868
0.141032
0.149685
0.158949
0.168947
0.179799
0.191613
0.204489
0.218503
0.233703
0.250074
0.267465
0.285585
0.304225
0.323457
0.343522
0.364555
0.386315
0.408187
0.429322
0.448557
0.464259
0.474826
0.479597
0.478968
0.474362
0.467852
0.461393
0.456259
0.452873
0.45168
0.455603
0.470848
0.479641
0.0292386
0.0536903
0.0655631
0.0736448
0.0810926
0.0885262
0.0959982
0.103429
0.110815
0.118256
0.125859
0.133736
0.142006
0.150791
0.16022
0.170425
0.181531
0.193659
0.206923
0.22142
0.237228
0.254379
0.272782
0.292173
0.312316
0.333233
0.355041
0.377618
0.400482
0.422905
0.443935
0.461935
0.475033
0.481896
0.482385
0.477446
0.468982
0.459238
0.450238
0.443344
0.439204
0.438618
0.444837
0.463964
0.477163
0.0293458
0.0553095
0.0678597
0.0748068
0.0816422
0.0888878
0.0963559
0.103854
0.111344
0.118907
0.126644
0.13467
0.143109
0.152088
0.16174
0.172199
0.183599
0.196067
0.209732
0.224708
0.241099
0.258962
0.278291
0.298927
0.320623
0.343264
0.366689
0.390493
0.414036
0.436562
0.456588
0.472161
0.481625
0.484245
0.480407
0.471535
0.459757
0.44733
0.436224
0.427812
0.422922
0.422595
0.429884
0.450529
0.477721
0.0309272
0.0578827
0.0714813
0.0761304
0.0819732
0.0890556
0.0966111
0.104257
0.111917
0.119663
0.12759
0.135818
0.144479
0.153712
0.163649
0.174425
0.186175
0.199036
0.213143
0.228634
0.245642
0.264193
0.284353
0.306189
0.32939
0.353579
0.378297
0.402916
0.426709
0.448415
0.466153
0.478142
0.48331
0.481533
0.473627
0.461381
0.446942
0.432448
0.419726
0.410079
0.404399
0.403878
0.411534
0.434
0.47804
0.0340831
0.0629677
0.0740596
0.0774323
0.0821519
0.0892102
0.0970209
0.10492
0.112797
0.120791
0.128965
0.137443
0.146373
0.155913
0.166199
0.177354
0.189518
0.202822
0.21741
0.233443
0.251124
0.270339
0.291173
0.314104
0.338612
0.364046
0.389666
0.414659
0.437793
0.457355
0.471577
0.479232
0.479873
0.473883
0.462426
0.447492
0.431142
0.415272
0.401465
0.3909
0.384512
0.383609
0.391185
0.41408
0.463138
0.0363201
0.0652302
0.0754781
0.0770905
0.0818626
0.0891365
0.0972967
0.105625
0.113951
0.122369
0.130924
0.139748
0.149013
0.158919
0.1696
0.181167
0.193755
0.207472
0.222466
0.23889
0.256949
0.276759
0.298509
0.322443
0.347977
0.374335
0.400475
0.424919
0.446047
0.462218
0.472155
0.475227
0.471508
0.461751
0.447571
0.430798
0.413263
0.396617
0.382208
0.371078
0.364156
0.362795
0.369857
0.391347
0.43652
0.0360451
0.0657854
0.0728707
0.0754911
0.081258
0.0889255
0.0972786
0.105803
0.11443
0.123162
0.132085
0.141308
0.150981
0.161278
0.172335
0.184273
0.197232
0.211356
0.226826
0.243815
0.262541
0.28327
0.306044
0.330842
0.357154
0.383918
0.409471
0.432052
0.450046
0.462154
0.46762
0.466316
0.458788
0.446123
0.43004
0.412179
0.394129
0.377278
0.362748
0.351432
0.344203
0.342334
0.348287
0.366691
0.404298
0.0325723
0.0589444
0.068235
0.0739099
0.0809536
0.0890316
0.0975472
0.106213
0.114966
0.123858
0.133001
0.142512
0.152534
0.163201
0.174651
0.187027
0.20049
0.215227
0.231423
0.249258
0.268879
0.29038
0.31377
0.338917
0.365201
0.391191
0.414951
0.434696
0.448992
0.456926
0.45818
0.45311
0.442583
0.427919
0.410738
0.39249
0.374529
0.357996
0.343798
0.332681
0.325408
0.323076
0.327595
0.342204
0.371387
0.0299047
0.0530544
0.0647709
0.0731154
0.0814181
0.0899739
0.098675
0.107467
0.116374
0.125473
0.134876
0.144705
0.15509
0.166166
0.178072
0.19096
0.204987
0.220322
0.237131
0.255559
0.275699
0.29755
0.321015
0.345778
0.370985
0.395059
0.416108
0.432451
0.442911
0.44689
0.444537
0.436522
0.423855
0.40807
0.390523
0.372507
0.355156
0.33939
0.325927
0.315363
0.308327
0.305698
0.308866
0.319947
0.34169
0.0290986
0.0496807
0.0630792
0.0733584
0.0827504
0.0918307
0.100798
0.109776
0.118872
0.128197
0.13787
0.148016
0.158761
0.170235
0.182571
0.195912
0.210402
0.226185
0.243393
0.262118
0.282377
0.304078
0.326971
0.350541
0.373786
0.395157
0.41292
0.42564
0.432344
0.432892
0.427687
0.417565
0.403656
0.387456
0.370162
0.352885
0.33656
0.321915
0.3095
0.299774
0.293228
0.29053
0.292668
0.301035
0.317345
0.0294679
0.0486222
0.0630725
0.0745903
0.0847852
0.0943499
0.103639
0.112878
0.122228
0.131824
0.141792
0.152255
0.163336
0.175155
0.187839
0.201512
0.216298
0.23231
0.249632
0.268292
0.288228
0.309239
0.33094
0.352662
0.373349
0.391569
0.405798
0.414871
0.418256
0.416012
0.408694
0.397209
0.382835
0.366836
0.350284
0.334128
0.319124
0.305835
0.29467
0.285961
0.280067
0.277476
0.278882
0.285235
0.297695
0.0305913
0.0493027
0.0644023
0.0765772
0.087255
0.0971926
0.106804
0.116349
0.126007
0.135916
0.1462
0.156975
0.168355
0.180451
0.193373
0.207228
0.222111
0.2381
0.255229
0.273459
0.292647
0.312494
0.332513
0.351935
0.369755
0.38459
0.395315
0.401124
0.40172
0.397325
0.388584
0.376427
0.362161
0.346824
0.331365
0.316576
0.303061
0.291238
0.281396
0.273757
0.268563
0.26614
0.266957
0.271646
0.280983
0.0321202
0.051116
0.0666053
0.0790219
0.089916
0.100094
0.109979
0.119826
0.129801
0.140032
0.150627
0.16169
0.173318
0.185608
0.198651
0.21253
0.227314
0.243039
0.259689
0.277162
0.295249
0.313565
0.331581
0.348432
0.363168
0.374761
0.382339
0.385363
0.383733
0.377788
0.368224
0.35598
0.342229
0.32787
0.313715
0.300411
0.288427
0.278062
0.269502
0.262877
0.258322
0.256031
0.256286
0.259464
0.266013
0.03378
0.0535471
0.0692496
0.0816681
0.0926048
0.102908
0.112993
0.123091
0.133346
0.143862
0.154728
0.166024
0.177828
0.190217
0.20326
0.217015
0.231517
0.246763
0.262697
0.27915
0.295881
0.312404
0.328131
0.342323
0.354157
0.362827
0.367702
0.368459
0.365151
0.358194
0.348286
0.336388
0.323448
0.310254
0.297489
0.285674
0.275159
0.266148
0.258743
0.252995
0.248957
0.246711
0.246393
0.248185
0.252283
0.0353907
0.0562276
0.0720305
0.0843503
0.0952422
0.105587
0.115791
0.126062
0.136522
0.147249
0.158306
0.169753
0.181642
0.194024
0.206944
0.220435
0.234494
0.249082
0.264122
0.279347
0.294465
0.309028
0.322471
0.334141
0.343354
0.349498
0.352147
0.351147
0.346666
0.33916
0.329303
0.318023
0.306062
0.294105
0.282713
0.272299
0.263116
0.25529
0.248858
0.243813
0.240142
0.237848
0.236959
0.237523
0.23957
0.0368574
0.0589174
0.0747746
0.0869862
0.0978061
0.108138
0.118385
0.128741
0.139308
0.150146
0.161294
0.172786
0.184654
0.196916
0.20959
0.222691
0.236174
0.249945
0.263875
0.277726
0.291174
0.303791
0.315065
0.324439
0.33137
0.335411
0.3363
0.334014
0.328794
0.321115
0.311612
0.30109
0.290172
0.279431
0.269321
0.260158
0.252122
0.245278
0.239618
0.235093
0.231645
0.229224
0.227789
0.227306
0.227716
0.0381453
0.0614721
0.0773993
0.0895441
0.100298
0.110584
0.120808
0.131162
0.141737
0.152577
0.163701
0.175124
0.186861
0.198886
0.211191
0.223751
0.236505
0.249342
0.262099
0.274536
)
;

boundaryField
{
    leftWall
    {
        type            kqRWallFunction;
        value           nonuniform List<scalar> 
44
(
0.00392068
0.00602323
0.00816768
0.00986894
0.0110962
0.0120762
0.0128876
0.0135846
0.014204
0.0147701
0.015299
0.0158071
0.0162982
0.0167777
0.0172511
0.0177243
0.0182054
0.0187053
0.0192389
0.0198269
0.0204956
0.0212757
0.0222006
0.0233068
0.0246502
0.026225
0.0277039
0.0287925
0.0292386
0.0293458
0.0309272
0.0340831
0.0363201
0.0360451
0.0325723
0.0299047
0.0290986
0.0294679
0.0305913
0.0321202
0.03378
0.0353907
0.0368574
0.0381453
)
;
    }
    rightWall
    {
        type            kqRWallFunction;
        value           nonuniform 0();
    }
    lowerWall
    {
        type            kqRWallFunction;
        value           nonuniform List<scalar> 
44
(
0.00392068
0.00790237
0.0123782
0.0155772
0.0180018
0.0199704
0.0216573
0.0231764
0.0246039
0.0259916
0.0273752
0.0287802
0.0302257
0.0317265
0.0332941
0.0349367
0.0366596
0.0384641
0.0403477
0.0423033
0.0443188
0.046377
0.0484556
0.0505271
0.0525589
0.0545139
0.0563508
0.0580248
0.0594881
0.0606907
0.061581
0.0621038
0.0621947
0.0617706
0.0610321
0.0598902
0.0582481
0.0560268
0.0531631
0.0496192
0.0454169
0.040711
0.0358035
0.0325929
)
;
    }
    atmosphere
    {
        type            inletOutlet;
        inletValue      nonuniform 0();
        value           nonuniform 0();
    }
    defaultFaces
    {
        type            empty;
    }
    procBoundary0to1
    {
        type            processor;
        value           nonuniform List<scalar> 
44
(
0.0304396
0.0893428
0.129232
0.166837
0.2021
0.236535
0.272207
0.311144
0.354894
0.40305
0.435804
0.445475
0.444945
0.441136
0.435461
0.42905
0.423729
0.421271
0.422688
0.428281
0.428281
0.411276
0.419118
0.427448
0.434281
0.439041
0.441761
0.444986
0.449267
0.453226
0.462473
0.483202
0.499877
0.49241
0.460176
0.416736
0.375799
0.342993
0.317322
0.295697
0.276328
0.258804
0.243055
0.228905
)
;
    }
    procBoundary0to2
    {
        type            processor;
        value           nonuniform List<scalar> 
46
(
0.286334
0.297101
0.306392
0.313748
0.318754
0.321105
0.320662
0.317495
0.31189
0.30431
0.295344
0.285654
0.275768
0.266158
0.257187
0.249094
0.242001
0.235931
0.230846
0.226673
0.223325
0.220722
0.218787
0.21744
0.216589
0.0392609
0.0638162
0.0798675
0.0920064
0.102715
0.112935
0.123086
0.133361
0.14385
0.154587
0.165576
0.17681
0.188272
0.199932
0.211751
0.223677
0.235625
0.247467
0.259029
0.286334
0.270074
)
;
    }
}


// ************************************************************************* //
