/*--------------------------------*- C++ -*----------------------------------*\
| =========                 |                                                 |
| \\      /  F ield         | OpenFOAM: The Open Source CFD Toolbox           |
|  \\    /   O peration     | Version:  5.0                                   |
|   \\  /    A nd           | Web:      www.OpenFOAM.org                      |
|    \\/     M anipulation  |                                                 |
\*---------------------------------------------------------------------------*/
FoamFile
{
    version     2.0;
    format      ascii;
    class       volScalarField;
    location    "0.25";
    object      nut;
}
// * * * * * * * * * * * * * * * * * * * * * * * * * * * * * * * * * * * * * //

dimensions      [0 2 -1 0 0 0 0];

internalField   nonuniform List<scalar> 
1935
(
3.82959e-05
4.76508e-05
5.96595e-05
6.70231e-05
7.20648e-05
7.59015e-05
7.90349e-05
8.17524e-05
8.42289e-05
8.65739e-05
8.88571e-05
9.1124e-05
9.34051e-05
9.57208e-05
9.80845e-05
0.000100504
0.000102979
0.000105509
0.000108082
0.000110685
0.000113299
0.000115899
0.00011846
0.000120948
0.000123331
0.000125572
0.000127633
0.000129472
0.00013105
0.000132322
0.000133244
0.000133764
0.000133816
0.000133315
0.000132522
0.00013127
0.000129446
0.00012694
0.000123642
0.000119451
0.00011431
0.000108303
0.000101578
9.73813e-05
5.47835e-05
0.000257557
0.000387731
0.000483579
0.000556487
0.000613831
0.000660958
0.000701601
0.000738262
0.000772587
0.000805661
0.000838193
0.000870631
0.000903231
0.000936083
0.000969141
0.00100223
0.00103508
0.0010673
0.00109846
0.00112807
0.00115562
0.00118058
0.00120244
0.00122071
0.00123493
0.00124466
0.00124953
0.00124921
0.00124343
0.00123203
0.00121495
0.00119217
0.0011628
0.00111105
0.00104273
0.000961213
0.000871751
0.000781509
0.000699038
0.000632033
0.000584778
0.000554997
0.000540619
6.37434e-05
0.000341225
0.000564874
0.00075124
0.000910262
0.00104855
0.00117158
0.00128377
0.00138856
0.00148853
0.00158555
0.00168098
0.00177572
0.00187026
0.00196475
0.00205899
0.00215247
0.00224443
0.00233389
0.00241973
0.00250071
0.00257557
0.00264308
0.00270204
0.00275134
0.00278999
0.00281713
0.00283203
0.00283416
0.00282318
0.00279904
0.00276191
0.00271205
0.00264821
0.00255826
0.00243943
0.00228921
0.00210544
0.00188897
0.0016488
0.00140645
0.00119399
0.00103911
0.00094455
7.02228e-05
0.000384883
0.000659098
0.000904509
0.00112828
0.00133433
0.00152624
0.00170746
0.00188103
0.00204944
0.00221466
0.00237814
0.0025408
0.00270308
0.00286494
0.00302586
0.0031849
0.00334079
0.00349196
0.00363666
0.00377304
0.00389923
0.00401342
0.00411391
0.00419916
0.00426782
0.00431877
0.00435117
0.00436447
0.0043585
0.00433349
0.00429012
0.00422913
0.00414978
0.00404424
0.00390767
0.00373265
0.00350831
0.00322302
0.00287186
0.00246855
0.0020566
0.00170188
0.00143782
7.45141e-05
0.000414808
0.000722485
0.00100897
0.00128062
0.00153978
0.00178851
0.00202906
0.0022637
0.00249445
0.00272295
0.00295038
0.0031774
0.0034041
0.00363003
0.00385423
0.00407527
0.00429132
0.0045003
0.00469994
0.00488792
0.00506194
0.00521982
0.00535958
0.00547944
0.00557795
0.00565394
0.00570665
0.00573574
0.00574137
0.00572429
0.00568574
0.00562704
0.00554805
0.00544301
0.00530635
0.00512714
0.00488854
0.00457081
0.00415881
0.00365345
0.00308598
0.00252399
0.00202076
7.77582e-05
0.000436853
0.000772091
0.00109197
0.00140199
0.00170404
0.00199956
0.00229014
0.00257744
0.00286297
0.00314792
0.00343301
0.00371841
0.00400373
0.00428797
0.00456961
0.00484665
0.00511674
0.00537731
0.00562567
0.00585913
0.00607511
0.00627124
0.00644539
0.00659579
0.00672099
0.00682002
0.00689233
0.00693797
0.00695758
0.00695246
0.00692446
0.00687538
0.0068054
0.00670936
0.00658043
0.00640458
0.00616076
0.0058248
0.00537658
0.00480856
0.00413519
0.00340027
0.00264401
8.03382e-05
0.000453585
0.000813971
0.00116423
0.00150784
0.00184654
0.00218182
0.00251518
0.00284801
0.00318147
0.00351629
0.00385268
0.00419027
0.00452804
0.00486438
0.00519713
0.00552371
0.00584125
0.00614672
0.00643706
0.00670932
0.00696075
0.00718888
0.0073916
0.00756723
0.00771452
0.00783277
0.00792182
0.00798216
0.00801499
0.00802216
0.00800605
0.00796879
0.00791051
0.00782585
0.0077061
0.00753461
0.00728748
0.00693822
0.00646452
0.00585376
0.00510652
0.00423869
0.00325719
8.24846e-05
0.000466732
0.000850969
0.00123025
0.00160494
0.00197659
0.00234702
0.00271796
0.00309085
0.00346664
0.00384569
0.00422773
0.00461178
0.00499617
0.00537861
0.00575632
0.00612611
0.0064846
0.00682835
0.00715399
0.00745835
0.0077386
0.00799228
0.00821739
0.00841244
0.00857647
0.00870916
0.00881078
0.00888236
0.0089256
0.00894292
0.00893706
0.0089103
0.00886256
0.00878788
0.00867552
0.00850696
0.00825667
0.00789701
0.00740443
0.00676262
0.00596151
0.00499315
0.00382665
8.43437e-05
0.00047755
0.000884819
0.00129224
0.00169646
0.00209872
0.00250127
0.00290622
0.00331517
0.00372896
0.00414767
0.00457053
0.00499596
0.00542166
0.00584465
0.00626149
0.00666845
0.00706165
0.00743726
0.00779166
0.00812156
0.00842407
0.00869684
0.00893805
0.00914648
0.00932157
0.00946338
0.00957273
0.00965113
0.00970082
0.00972465
0.00972566
0.00970613
0.0096657
0.00959802
0.00949025
0.00932324
0.00907076
0.00870458
0.00819976
0.00753633
0.00669543
0.00565016
0.0043352
8.60071e-05
0.000486947
0.000916724
0.0013515
0.00178406
0.00221534
0.00264797
0.00308447
0.00352659
0.00397511
0.00442981
0.00488944
0.00535185
0.00581405
0.00627244
0.00672296
0.00716131
0.00758319
0.00798445
0.00836125
0.00871023
0.00902856
0.00931402
0.00956506
0.00978083
0.00996116
0.0101066
0.0102186
0.010299
0.0103506
0.0103767
0.0103804
0.0103641
0.0103271
0.0102633
0.0101576
0.00999177
0.00973958
0.00937233
0.00886306
0.00818736
0.00731832
0.00621437
0.00478412
8.7534e-05
0.000495602
0.000947668
0.00140921
0.00186929
0.00232859
0.00279013
0.00325672
0.0037302
0.00421122
0.00469922
0.00519248
0.00568822
0.00618285
0.0066721
0.00715133
0.00761576
0.00806069
0.0084817
0.00887482
0.00923669
0.00956458
0.00985653
0.0101113
0.0103285
0.0105084
0.0106522
0.0107616
0.0108393
0.0108885
0.0109126
0.0109151
0.0108981
0.0108609
0.0107975
0.0106929
0.0105291
0.0102806
0.00991865
0.0094136
0.00873574
0.00785091
0.00670918
0.00521881
8.89791e-05
0.000504072
0.000978642
0.00146662
0.0019537
0.00244046
0.00293024
0.00342603
0.00392965
0.00444152
0.00496069
0.00548487
0.00601069
0.00653391
0.00704967
0.00755279
0.00803804
0.00850039
0.00893524
0.00933858
0.00970711
0.0100383
0.0103306
0.010583
0.0107958
0.0109698
0.0111066
0.0112088
0.0112793
0.0113218
0.0113402
0.0113378
0.0113169
0.0112767
0.0112113
0.0111071
0.0109461
0.0107046
0.010354
0.00986171
0.00919249
0.00830572
0.00714831
0.00564187
9.0358e-05
0.000512711
0.00101013
0.00152429
0.00203796
0.00255177
0.00306928
0.00359357
0.00412629
0.0046675
0.00521575
0.00576817
0.00632076
0.00686867
0.00740645
0.00792847
0.00842912
0.00890314
0.00934582
0.00975321
0.0101222
0.0104505
0.0107371
0.0109815
0.0111844
0.0113473
0.0114726
0.0115633
0.011623
0.0116556
0.0116654
0.0116557
0.0116287
0.0115836
0.011515
0.0114105
0.0112529
0.0110206
0.0106856
0.0102133
0.00956343
0.00868983
0.00753916
0.00604854
9.16905e-05
0.000521875
0.00104277
0.00158311
0.00212326
0.00266396
0.00320895
0.00376122
0.0043221
0.00489121
0.00546647
0.00604442
0.00662041
0.00718899
0.00774423
0.00828007
0.00879062
0.00927052
0.00971505
0.0101204
0.0104838
0.0108035
0.0110787
0.0113098
0.011498
0.0116457
0.0117557
0.0118318
0.011878
0.0118987
0.0118983
0.0118803
0.0118465
0.011796
0.0117237
0.0116187
0.0114641
0.011241
0.0109232
0.0104753
0.00985344
0.00900735
0.0078845
0.00643496
9.29956e-05
0.000531919
0.00107725
0.00164416
0.00221101
0.00277872
0.00335108
0.00393086
0.00451895
0.00511438
0.00571446
0.00631503
0.00691084
0.00749591
0.00806385
0.0086083
0.00912322
0.0096032
0.0100437
0.0104412
0.0107934
0.0110989
0.0113579
0.0115713
0.0117411
0.0118702
0.0119625
0.012022
0.0120536
0.0120619
0.0120515
0.0120256
0.0119859
0.011931
0.0118557
0.0117498
0.0115974
0.0113818
0.0110794
0.0106563
0.0100672
0.0092596
0.00818148
0.0067914
9.42942e-05
0.000543234
0.00111443
0.00170873
0.00230288
0.00289792
0.0034976
0.00410433
0.00471848
0.00533842
0.00596078
0.00658076
0.00719254
0.00778965
0.00836537
0.00891313
0.00942685
0.00990126
0.0103321
0.0107163
0.0110522
0.0113391
0.0115777
0.01177
0.0119187
0.0120275
0.0121009
0.0121436
0.0121609
0.0121578
0.0121389
0.0121074
0.0120643
0.0120076
0.0119313
0.0118253
0.0116744
0.0114634
0.0111721
0.0107695
0.0102126
0.00944876
0.00842633
0.00710747
9.56123e-05
0.000556281
0.0011553
0.00177835
0.00240072
0.00302353
0.0036504
0.0042833
0.00492201
0.00556424
0.00620596
0.00684176
0.00746532
0.00806979
0.0086482
0.00919392
0.00970099
0.0101644
0.0105804
0.0109465
0.0112617
0.0115263
0.0117418
0.0119109
0.0120373
0.0121254
0.0121803
0.0122074
0.0122124
0.0122005
0.0121764
0.0121429
0.0121004
0.012046
0.0119725
0.0118686
0.0117196
0.0115109
0.0112248
0.0108352
0.0103038
0.0095818
0.0086188
0.00737672
9.69839e-05
0.000571632
0.00120112
0.00185474
0.00250646
0.00315744
0.00381109
0.00446898
0.0051303
0.00579212
0.00644983
0.00709749
0.00772837
0.00833532
0.00891129
0.00944972
0.00994492
0.0103924
0.0107889
0.011133
0.0114242
0.011664
0.0118548
0.0120001
0.0121044
0.0121729
0.0122113
0.0122255
0.0122215
0.0122048
0.0121798
0.0121492
0.0121126
0.0120658
0.0120001
0.0119028
0.011758
0.0115508
0.0112652
0.0108795
0.0103627
0.00967321
0.00876496
0.00759816
9.84542e-05
0.000590049
0.00125335
0.00193971
0.00262186
0.00330108
0.00398068
0.00466186
0.0053433
0.00602156
0.0066915
0.00734676
0.00798029
0.00858481
0.00915329
0.00967943
0.010158
0.0105851
0.0109584
0.0112773
0.0115426
0.0117564
0.0119223
0.0120446
0.0121286
0.0121801
0.0122053
0.0122106
0.0122021
0.0121853
0.0121648
0.0121425
0.0121173
0.012084
0.012032
0.0119467
0.0118103
0.0116063
0.0113192
0.0109296
0.0104149
0.0097435
0.00887815
0.00777826
0.00010008
0.00061259
0.00131361
0.00203481
0.00274804
0.00345504
0.00415916
0.00486137
0.00556
0.00625115
0.00692929
0.00758775
0.00821928
0.00881657
0.0093728
0.00988206
0.0103398
0.0107429
0.0110902
0.0113821
0.0116204
0.0118085
0.0119508
0.0120524
0.0121191
0.0121574
0.0121738
0.0121749
0.0121671
0.0121558
0.0121451
0.0121365
0.0121281
0.0121134
0.0120803
0.012012
0.0118888
0.0116921
0.0114051
0.0110054
0.01048
0.00981105
0.00897475
0.00793024
0.000101929
0.00064073
0.0013834
0.00214075
0.0028849
0.00361847
0.0043451
0.00506565
0.00577819
0.00647853
0.00716082
0.00781818
0.00844326
0.00902887
0.00956854
0.010057
0.0104904
0.010867
0.0111865
0.0114506
0.0116624
0.0118263
0.0119474
0.0120317
0.0120854
0.0121151
0.0121277
0.01213
0.0121283
0.0121278
0.0121321
0.0121419
0.0121542
0.0121614
0.01215
0.0121023
0.0119973
0.011812
0.0115305
0.0111166
0.010568
0.00988894
0.00907055
0.00806696
0.00682161
0.00010407
0.000676337
0.00146336
0.00225653
0.00303031
0.0037886
0.00453535
0.00527138
0.00599458
0.00670054
0.00738317
0.00803547
0.00865011
0.00922016
0.00973964
0.0102041
0.0106108
0.010959
0.01125
0.0114868
0.0116737
0.011816
0.0119196
0.0119909
0.0120363
0.0120626
0.0120769
0.0120858
0.0120956
0.0121109
0.0121343
0.0121656
0.0122006
0.0122303
0.0122406
0.0122144
0.0121318
0.0119569
0.0116606
0.0112266
0.0106575
0.00996265
0.00914565
0.00817841
0.00697581
0.000106564
0.000721141
0.00155189
0.00237819
0.0031794
0.00396034
0.00472492
0.00547386
0.00620487
0.00691336
0.0075931
0.00823701
0.00883792
0.00938927
0.00988579
0.010324
0.0107024
0.0110217
0.0112846
0.0114955
0.01166
0.0117842
0.0118746
0.0119378
0.0119801
0.0120084
0.0120296
0.0120504
0.0120764
0.0121115
0.0121571
0.0122112
0.0122681
0.012318
0.0123462
0.0123363
0.0122521
0.0120602
0.0117392
0.0112897
0.0107088
0.00999881
0.00916721
0.00821857
0.00707042
0.000109471
0.000774939
0.00164296
0.00249767
0.00332415
0.00412628
0.00490722
0.0056673
0.00640409
0.00711288
0.00778733
0.00842041
0.00900519
0.00953567
0.0100074
0.0104182
0.0107678
0.0110586
0.0112947
0.0114821
0.0116273
0.0117375
0.0118194
0.0118795
0.0119239
0.0119593
0.0119924
0.0120296
0.012076
0.012134
0.0122032
0.0122793
0.0123549
0.0124197
0.0124528
0.0124301
0.0123197
0.0121023
0.0117606
0.0112892
0.0106895
0.00996494
0.00912442
0.00818471
0.00708354
0.000112917
0.000831421
0.00172411
0.0026022
0.00345362
0.00427719
0.00507451
0.00584531
0.00658707
0.00729504
0.0079629
0.00858377
0.00915109
0.00965959
0.0101059
0.010489
0.0108104
0.0110739
0.0112854
0.0114521
0.0115817
0.0116821
0.0117602
0.011822
0.0118734
0.0119206
0.01197
0.0120276
0.0120974
0.0121802
0.0122728
0.0123681
0.0124561
0.0125213
0.0125408
0.0124912
0.0123512
0.0121004
0.0117259
0.0112244
0.0105988
0.00985416
0.00900338
0.00807104
0.00701749
0.000116534
0.00087169
0.00178491
0.00268258
0.00355498
0.00440289
0.00521874
0.00600153
0.00674888
0.00745624
0.00811746
0.00872592
0.00927564
0.00976222
0.0101835
0.0105399
0.0108346
0.011073
0.0112625
0.0114117
0.0115294
0.0116239
0.0117024
0.0117704
0.011833
0.011896
0.0119655
0.0120467
0.0121421
0.0122501
0.0123642
0.0124742
0.0125664
0.0126211
0.0126187
0.0125386
0.0123603
0.0120675
0.011651
0.0111093
0.0104469
0.00967223
0.00880465
0.00787859
0.00687966
0.000119438
0.000892866
0.00181458
0.00272947
0.00362401
0.00449356
0.00533253
0.00613038
0.00688548
0.00759382
0.00824962
0.00884672
0.00937989
0.00984578
0.0102436
0.0105754
0.0108458
0.0110619
0.0112325
0.0113675
0.0114765
0.0115688
0.0116512
0.0117289
0.0118062
0.0118884
0.0119809
0.012088
0.0122099
0.0123418
0.0124743
0.0125945
0.0126852
0.0127254
0.0126959
0.0125777
0.0123535
0.0120104
0.0115417
0.0109477
0.010236
0.00942152
0.00853408
0.00762799
0.00669083
0.000121077
0.000886758
0.00180089
0.00273094
0.00365152
0.00454679
0.00541046
0.00622791
0.00699423
0.00770644
0.00835929
0.00894727
0.00946609
0.00991364
0.0102906
0.0106007
0.0108501
0.0110474
0.0112027
0.0113266
0.0114301
0.0115225
0.0116113
0.0117012
0.0117959
0.0118998
0.0120177
0.0121517
0.0122992
0.0124522
0.0125992
0.0127251
0.0128094
0.0128294
0.0127663
0.012604
0.0123279
0.0119272
0.0113969
0.0107396
0.00996841
0.0091078
0.00820269
0.00733049
0.00646911
0.000121119
0.000839563
0.00173413
0.00267879
0.00363109
0.00455931
0.0054512
0.0062925
0.00707435
0.00779436
0.00844776
0.00902987
0.00953751
0.00997002
0.0103297
0.0106218
0.0108542
0.0110366
0.0111802
0.0112966
0.0113969
0.0114915
0.011588
0.0116915
0.0118052
0.0119328
0.0120771
0.0122372
0.0124071
0.012577
0.012734
0.012859
0.0129288
0.0129212
0.0128192
0.0126088
0.0122769
0.0118139
0.0112155
0.0104877
0.00965085
0.00874119
0.00782
0.00698043
0.00620162
0.000121598
0.000737933
0.00161686
0.00257481
0.00356286
0.00453074
0.00545729
0.00632577
0.00712771
0.00785994
0.00851798
0.00909801
0.00959824
0.0100196
0.0103662
0.0106447
0.0108643
0.0110362
0.0111721
0.0112843
0.0113844
0.0114828
0.0115878
0.0117053
0.0118388
0.0119904
0.0121598
0.0123425
0.0125302
0.012712
0.0128709
0.0129849
0.0130306
0.0129889
0.0128448
0.0125844
0.0121956
0.0116685
0.0109996
0.010199
0.00929518
0.00833708
0.00739923
0.00658194
0.00590972
0.00012698
0.000619303
0.00147376
0.00243851
0.00345755
0.00446825
0.00543373
0.00633356
0.00716026
0.00790924
0.00857605
0.00915787
0.00965452
0.0100688
0.0104065
0.0106758
0.0108873
0.0110529
0.0111851
0.0112967
0.0113996
0.0115034
0.0116171
0.0117484
0.0119008
0.012074
0.0122644
0.0124645
0.0126644
0.0128493
0.0129986
0.0130902
0.0131041
0.013024
0.0128364
0.012527
0.0120829
0.0114931
0.0107554
0.00988521
0.00892
0.00791938
0.00697042
0.00617814
0.00561936
0.00013407
0.000628162
0.00140462
0.00231352
0.00333306
0.00438157
0.00538872
0.00632579
0.00718153
0.00795179
0.00863144
0.00921871
0.00971532
0.0101263
0.0104591
0.0107235
0.0109309
0.0110939
0.0112256
0.0113392
0.0114473
0.0115576
0.0116787
0.0118226
0.0119913
0.012182
0.012388
0.0125995
0.012802
0.0129772
0.0131045
0.0131649
0.0131422
0.0130229
0.0127928
0.0124372
0.0119426
0.0112968
0.0104978
0.00956482
0.00854514
0.0075131
0.00656446
0.00580591
0.00531388
0.000138574
0.000736398
0.00143764
0.00222531
0.00321196
0.00427821
0.00532427
0.00630382
0.00719653
0.00799445
0.00869215
0.00928901
0.00978919
0.0102002
0.0105316
0.0107941
0.011
0.0111623
0.0112942
0.011409
0.0115193
0.0116356
0.0117671
0.0119234
0.0121057
0.0123097
0.0125254
0.0127379
0.0129297
0.0130824
0.0131783
0.0132026
0.0131425
0.012986
0.0127183
0.0123251
0.0117906
0.0111005
0.0102532
0.00927168
0.00821163
0.00715783
0.00621219
0.00547657
0.00501866
0.000134333
0.000771421
0.00140415
0.00215162
0.00311946
0.00419305
0.00526463
0.00627547
0.00719864
0.00802043
0.00873581
0.00934441
0.00985133
0.0102656
0.0105983
0.0108616
0.0110687
0.0112333
0.011369
0.0114893
0.0116067
0.0117333
0.0118771
0.0120449
0.0122375
0.0124483
0.0126626
0.0128629
0.0130319
0.0131533
0.0132137
0.0132016
0.0131068
0.0129186
0.0126223
0.0122031
0.0116425
0.0109247
0.0100479
0.00903833
0.00795714
0.00689479
0.00595371
0.00522555
0.00476366
0.000126057
0.00073662
0.00136007
0.00212623
0.00309359
0.00416967
0.00525478
0.00628525
0.00722704
0.00806368
0.00878935
0.00940488
0.00991634
0.0103335
0.0106684
0.0109344
0.0111454
0.0113158
0.0114596
0.0115896
0.0117177
0.0118542
0.0120069
0.0121811
0.012376
0.012582
0.0127824
0.0129597
0.0130982
0.013185
0.0132098
0.0131645
0.0130413
0.0128294
0.0125158
0.0120843
0.0115144
0.0107887
0.00990557
0.00889234
0.007812
0.00675532
0.00582033
0.00508766
0.00459967
0.000121603
0.000690659
0.00134907
0.00216559
0.00315422
0.00423684
0.00532729
0.00636465
0.00731323
0.00815505
0.00888384
0.00950105
0.0100135
0.0104315
0.0107678
0.0110364
0.0112515
0.0114274
0.011578
0.0117156
0.0118513
0.0119938
0.0121497
0.0123225
0.012509
0.0126983
0.0128745
0.0130216
0.0131262
0.0131785
0.0131709
0.013098
0.0129542
0.0127288
0.0124106
0.0119818
0.0114207
0.0107089
0.00984428
0.00885333
0.00779679
0.00676076
0.00583579
0.0050932
0.00456905
0.000120946
0.000653558
0.00138007
0.00227125
0.00330042
0.00439684
0.0054888
0.0065232
0.00746704
0.00830322
0.00902607
0.00963778
0.0101459
0.0105612
0.0108968
0.0111666
0.0113847
0.0115649
0.0117202
0.0118623
0.012001
0.0121438
0.0122958
0.0124582
0.0126267
0.0127906
0.0129359
0.0130492
0.0131198
0.0131398
0.0131048
0.0130116
0.0128556
0.0126281
0.012318
0.011907
0.0113727
0.0106962
0.00987432
0.00893085
0.00792064
0.00692132
0.00601433
0.00526411
0.00470535
0.000122447
0.000645698
0.00145664
0.00243618
0.0035168
0.00463211
0.0057239
0.00674892
0.00767961
0.00850176
0.00921138
0.00981175
0.010311
0.0107204
0.0110527
0.0113216
0.0115404
0.0117221
0.0118789
0.0120211
0.0121575
0.0122944
0.0124352
0.01258
0.0127236
0.0128569
0.0129688
0.013048
0.0130861
0.013078
0.0130218
0.0129164
0.0127569
0.0125377
0.0122476
0.0118682
0.0113768
0.0107547
0.00999704
0.00912338
0.0081803
0.00723451
0.00635726
0.0056074
0.00502072
0.000125235
0.000667587
0.00157436
0.00264573
0.00378032
0.00491605
0.00600665
0.00701878
0.00793147
0.00873454
0.00942644
0.0100118
0.0104992
0.0109001
0.0112269
0.0114924
0.0117092
0.0118895
0.0120439
0.012182
0.0123113
0.0124369
0.012561
0.0126833
0.0127986
0.0129005
0.0129789
0.0130255
0.0130346
0.0130039
0.0129331
0.0128226
0.0126683
0.0124667
0.0122066
0.0118698
0.0114344
0.0108815
0.0102049
0.00941892
0.00856071
0.007685
0.0068521
0.00611481
0.00550966
0.000128562
0.000713648
0.00172253
0.00288136
0.00406688
0.00522201
0.00631059
0.00730834
0.00820098
0.00898281
0.00965496
0.0102235
0.0106976
0.0110884
0.0114079
0.0116682
0.0118809
0.0120569
0.012206
0.0123365
0.0124549
0.0125656
0.0126698
0.0127679
0.0128554
0.0129262
0.0129731
0.0129905
0.0129756
0.0129281
0.0128493
0.01274
0.0125984
0.0124215
0.0121986
0.0119122
0.0115413
0.0110675
0.0104829
0.00979681
0.00903703
0.00824643
0.00747419
0.00676609
0.00615748
0.000131911
0.000776933
0.00188771
0.00312507
0.00435586
0.00552823
0.00661425
0.00759749
0.00846996
0.00923036
0.00988255
0.010434
0.0108943
0.0112744
0.0115858
0.0118396
0.0120465
0.0122165
0.012358
0.0124789
0.0125841
0.0126785
0.0127633
0.0128375
0.0128979
0.0129399
0.012959
0.0129521
0.0129187
0.0128603
0.0127795
0.0126769
0.0125533
0.0124057
0.0122241
0.0119918
0.0116892
0.0112985
0.0108108
0.0102306
0.00957763
0.00888403
0.00818849
0.00752928
0.00693874
0.000135002
0.000850596
0.00205681
0.00336215
0.00463206
0.00581939
0.00690272
0.0078723
0.00872572
0.00946577
0.0100989
0.0106338
0.0110807
0.0114502
0.0117531
0.0119998
0.0122001
0.0123631
0.012496
0.0126066
0.0126995
0.0127782
0.0128438
0.0128956
0.0129314
0.0129484
0.0129445
0.0129188
0.0128724
0.0128083
0.0127301
0.0126385
0.012536
0.0124198
0.0122801
0.0121017
0.0118664
0.0115576
0.0111655
0.0106911
0.0101475
0.00955794
0.00895198
0.00836067
0.00781238
0.000137722
0.000927901
0.00221903
0.00358234
0.00488584
0.0060862
0.00716716
0.00812452
0.00896075
0.00968226
0.0102978
0.0108174
0.0112516
0.0116108
0.0119054
0.0121449
0.0123385
0.0124945
0.0126201
0.0127213
0.0128024
0.0128665
0.0129146
0.0129467
0.0129616
0.0129585
0.0129368
0.0128975
0.0128433
0.0127779
0.0127053
0.0126274
0.012547
0.0124612
0.0123612
0.0122329
0.0120599
0.0118268
0.0115239
0.0111496
0.0107119
0.0102273
0.00971787
0.00920841
0.00872313
0.000140056
0.00100244
0.0023666
0.0037796
0.00511224
0.00632413
0.00740331
0.00835024
0.00917148
0.00987659
0.0104764
0.0109821
0.0114047
0.0117542
0.012041
0.0122741
0.012462
0.0126122
0.0127311
0.012824
)
;

boundaryField
{
    leftWall
    {
        type            nutkWallFunction;
        Cmu             0.09;
        kappa           0.41;
        E               9.8;
        value           nonuniform List<scalar> 
44
(
5.40088e-06
6.69668e-06
7.77672e-06
8.5248e-06
9.02068e-06
9.39511e-06
9.69254e-06
9.9398e-06
1.01537e-05
1.03446e-05
1.05194e-05
1.06842e-05
1.08407e-05
1.0991e-05
1.11371e-05
1.12809e-05
1.14249e-05
1.15723e-05
1.17273e-05
1.18954e-05
1.20831e-05
1.22979e-05
1.25471e-05
1.28375e-05
1.31802e-05
1.3569e-05
1.39225e-05
1.41761e-05
1.42784e-05
1.43085e-05
1.48655e-05
9.75411e-06
1.03977e-05
1.03198e-05
9.30571e-06
8.48393e-06
8.22742e-06
8.34543e-06
8.69935e-06
9.16924e-06
9.66507e-06
1.01331e-05
1.05488e-05
1.09061e-05
)
;
    }
    rightWall
    {
        type            nutkWallFunction;
        Cmu             0.09;
        kappa           0.41;
        E               9.8;
        value           nonuniform 0();
    }
    lowerWall
    {
        type            nutkWallFunction;
        Cmu             0.09;
        kappa           0.41;
        E               9.8;
        value           nonuniform List<scalar> 
44
(
4.04215e-06
5.80219e-06
7.25047e-06
8.11129e-06
8.69971e-06
9.1457e-06
9.50877e-06
9.82247e-06
1.0107e-05
1.03749e-05
1.06343e-05
1.08903e-05
1.11465e-05
1.14054e-05
1.16687e-05
1.19374e-05
1.22117e-05
1.24914e-05
1.27758e-05
1.30633e-05
1.33521e-05
1.36395e-05
1.39228e-05
1.41984e-05
1.44627e-05
1.47117e-05
1.49413e-05
1.51469e-05
1.53239e-05
1.54676e-05
1.5573e-05
1.56345e-05
1.56452e-05
1.55954e-05
1.55082e-05
1.53722e-05
1.51741e-05
1.49011e-05
1.45402e-05
1.40783e-05
1.35063e-05
1.28298e-05
1.20763e-05
1.15519e-05
)
;
    }
    atmosphere
    {
        type            calculated;
        value           nonuniform 0();
    }
    defaultFaces
    {
        type            empty;
    }
    procBoundary0to1
    {
        type            processor;
        value           nonuniform List<scalar> 
44
(
9.39306e-05
0.0005075
0.000810706
0.00111878
0.00142857
0.00173309
0.00202839
0.00231239
0.00258502
0.00286052
0.00326969
0.00370245
0.00415711
0.00462319
0.00507369
0.00548665
0.00585035
0.00616041
0.00641909
0.00663583
0.00663583
0.00534493
0.00553008
0.00565915
0.00572002
0.0057173
0.00565978
0.00556851
0.00545452
0.00531315
0.00516068
0.00502748
0.00488995
0.00471628
0.00451582
0.00433311
0.00425547
0.0043406
0.00460818
0.00505433
0.00567028
0.00644051
0.00733038
0.00828282
)
;
    }
    procBoundary0to2
    {
        type            processor;
        value           nonuniform List<scalar> 
46
(
0.0128949
0.0129463
0.0129797
0.0129956
0.0129941
0.0129756
0.0129412
0.0128933
0.0128356
0.0127722
0.0127072
0.0126435
0.0125839
0.0125254
0.0124601
0.0123752
0.0122562
0.0120892
0.0118648
0.01158
0.0112392
0.0108538
0.0104402
0.0100181
0.00960748
0.000142047
0.00106868
0.00249472
0.00395132
0.00530964
0.00653185
0.0076099
0.00854823
0.0093568
0.0100478
0.0106338
0.0111271
0.0115391
0.0118804
0.0121605
0.0123884
0.0125716
0.0127171
0.0128305
0.0128949
0.0129167
)
;
    }
}


// ************************************************************************* //
