/*--------------------------------*- C++ -*----------------------------------*\
| =========                 |                                                 |
| \\      /  F ield         | OpenFOAM: The Open Source CFD Toolbox           |
|  \\    /   O peration     | Version:  5.0                                   |
|   \\  /    A nd           | Web:      www.OpenFOAM.org                      |
|    \\/     M anipulation  |                                                 |
\*---------------------------------------------------------------------------*/
FoamFile
{
    version     2.0;
    format      ascii;
    class       volScalarField;
    location    "0.25";
    object      p_rgh;
}
// * * * * * * * * * * * * * * * * * * * * * * * * * * * * * * * * * * * * * //

dimensions      [1 -1 -2 0 0 0 0];

internalField   nonuniform List<scalar> 
1935
(
2052.07
2055.93
2063.69
2072.15
2078.91
2083.56
2086.42
2088.1
2089.05
2089.56
2089.8
2089.85
2089.73
2089.41
2088.83
2087.92
2086.6
2084.76
2082.35
2079.31
2075.59
2071.21
2066.22
2060.76
2055.01
2049.3
2044.06
2039.88
2037.56
2038.13
2042.92
2053.69
2072.77
2103.78
2148.17
2209.4
2289.46
2388.95
2504.89
2628.59
2745.59
2840.14
2902.72
2930.19
2049.74
2052.68
2058.75
2065.26
2070.68
2074.6
2077.2
2078.84
2079.82
2080.36
2080.59
2080.57
2080.31
2079.77
2078.91
2077.65
2075.91
2073.63
2070.73
2067.17
2062.93
2058.04
2052.58
2046.69
2040.59
2034.63
2029.27
2025.14
2023.04
2024.02
2029.4
2040.82
2060.14
2089.01
2131.97
2191.18
2269.68
2369.03
2487.71
2618.75
2748.06
2855.15
2921.78
2941.35
2046.61
2050.61
2055.14
2059.55
2063.27
2066
2067.83
2068.97
2069.59
2069.82
2069.72
2069.33
2068.62
2067.57
2066.11
2064.18
2061.7
2058.61
2054.87
2050.44
2045.33
2039.6
2033.33
2026.73
2020.03
2013.62
2007.98
2003.78
2001.84
2003.21
2009.2
2021.37
2041.54
2071.64
2114.73
2173.14
2249.26
2344.26
2457.31
2583.94
2714.32
2831.79
2917.25
2961.35
2042.02
2047.16
2051.17
2054.3
2056.74
2058.42
2059.43
2059.93
2060.04
2059.8
2059.24
2058.35
2057.1
2055.43
2053.28
2050.58
2047.27
2043.29
2038.6
2033.2
2027.1
2020.39
2013.19
2005.71
1998.22
1991.12
1984.93
1980.32
1978.12
1979.39
1985.37
1997.59
2017.77
2047.81
2089.99
2146.61
2219.63
2309.98
2416.92
2537.07
2663.66
2785.98
2890.72
2968.84
2035.79
2041.78
2045.59
2047.97
2049.61
2050.58
2051
2051.03
2050.71
2050.09
2049.13
2047.8
2046.06
2043.83
2041.05
2037.64
2033.55
2028.73
2023.15
2016.82
2009.76
2002.07
1993.9
1985.46
1977.05
1969.06
1962.04
1956.63
1953.68
1954.2
1959.4
1970.73
1989.82
2018.42
2058.52
2112.14
2181.01
2266
2366.68
2480.81
2603.98
2729.46
2848.22
2952.97
2027.93
2034.42
2038.07
2039.96
2041.09
2041.61
2041.69
2041.43
2040.86
2039.98
2038.73
2037.08
2034.94
2032.25
2028.92
2024.9
2020.12
2014.54
2008.13
2000.92
1992.94
1984.29
1975.13
1965.67
1956.23
1947.2
1939.09
1932.57
1928.43
1927.66
1931.41
1941.04
1958.06
1984.12
2020.96
2070.4
2133.98
2212.53
2305.96
2413.02
2531.17
2656.47
2782.93
2905.51
2018.42
2025.15
2028.6
2030.15
2030.97
2031.26
2031.17
2030.79
2030.11
2029.1
2027.69
2025.8
2023.37
2020.31
2016.53
2011.97
2006.58
2000.3
1993.13
1985.09
1976.21
1966.62
1956.45
1945.94
1935.38
1925.15
1915.77
1907.86
1902.18
1899.66
1901.39
1908.64
1922.8
1945.36
1977.88
2021.94
2078.94
2149.66
2234.24
2332.08
2441.86
2561.43
2687.31
2817.24
2007.29
2014.04
2017.26
2018.59
2019.25
2019.47
2019.36
2018.99
2018.32
2017.29
2015.81
2013.8
2011.16
2007.8
2003.65
1998.64
1992.7
1985.79
1977.92
1969.09
1959.36
1948.82
1937.64
1926.03
1914.27
1902.74
1891.91
1882.37
1874.84
1870.2
1869.45
1873.74
1884.35
1902.59
1929.81
1967.38
2016.49
2077.84
2151.64
2237.59
2334.87
2442.04
2556.88
2679.06
1994.61
2001.21
2004.17
2005.38
2006.02
2006.29
2006.28
2006.02
2005.46
2004.5
2003.03
2000.96
1998.19
1994.62
1990.16
1984.76
1978.34
1970.87
1962.34
1952.78
1942.22
1930.77
1918.57
1905.83
1892.81
1879.86
1867.43
1856.07
1846.45
1839.36
1835.72
1836.58
1843.05
1856.27
1877.36
1907.43
1947.44
1997.92
2058.95
2130.17
2210.56
2298.1
2389.63
2482.84
1980.44
1986.77
1989.48
1990.66
1991.39
1991.8
1991.98
1991.92
1991.53
1990.7
1989.31
1987.25
1984.41
1980.68
1975.99
1970.25
1963.41
1955.44
1946.32
1936.06
1924.72
1912.38
1899.16
1885.26
1870.93
1856.49
1842.34
1828.99
1817.05
1807.25
1800.41
1797.44
1799.3
1806.93
1821.21
1842.97
1872.89
1911.21
1957.73
2011.66
2071.13
2132.25
2188.21
2227.55
1964.77
1970.72
1973.21
1974.43
1975.32
1975.96
1976.4
1976.6
1976.45
1975.81
1974.55
1972.54
1969.68
1965.85
1960.96
1954.95
1947.75
1939.32
1929.65
1918.75
1906.66
1893.44
1879.22
1864.15
1848.46
1832.44
1816.46
1800.97
1786.53
1773.78
1763.45
1756.3
1753.14
1754.71
1761.63
1774.42
1793.45
1818.63
1849.31
1884.08
1919.85
1950.09
1962.28
1927.97
1947.58
1953.09
1955.39
1956.72
1957.84
1958.77
1959.53
1960.04
1960.16
1959.75
1958.66
1956.75
1953.91
1950.02
1944.99
1938.75
1931.24
1922.41
1912.24
1900.74
1887.93
1873.87
1858.64
1842.39
1825.3
1807.64
1789.73
1771.98
1754.87
1738.97
1724.9
1713.3
1704.8
1699.95
1699.13
1702.56
1710.25
1721.76
1736.03
1751.06
1762.96
1763.73
1737.95
1651.21
1929.03
1934.07
1936.22
1937.71
1939.11
1940.37
1941.49
1942.34
1942.77
1942.62
1941.73
1939.96
1937.17
1933.26
1928.14
1921.72
1913.94
1904.76
1894.15
1882.1
1868.61
1853.73
1837.53
1820.1
1801.6
1782.26
1762.36
1742.24
1722.34
1703.15
1685.18
1668.95
1654.95
1643.54
1634.88
1628.9
1625.32
1623.37
1621.65
1617.95
1608.42
1585.93
1538.22
1442.13
1909.25
1913.78
1915.82
1917.52
1919.21
1920.84
1922.34
1923.56
1924.33
1924.46
1923.79
1922.17
1919.47
1915.58
1910.4
1903.85
1895.87
1886.4
1875.41
1862.86
1848.76
1833.11
1815.96
1797.37
1777.46
1756.42
1734.47
1711.92
1689.14
1666.55
1644.58
1623.65
1604.11
1586.19
1569.86
1554.82
1540.51
1525.92
1509.47
1489.04
1461.56
1422.12
1363.57
1273.98
1888.34
1892.36
1894.33
1896.23
1898.25
1900.26
1902.15
1903.75
1904.86
1905.28
1904.86
1903.42
1900.84
1897
1891.81
1885.19
1877.06
1867.37
1856.06
1843.1
1828.45
1812.1
1794.05
1774.33
1753.02
1730.25
1706.22
1681.18
1655.46
1629.41
1603.42
1577.81
1552.87
1528.69
1505.13
1481.74
1457.73
1431.96
1402.72
1368.21
1326.37
1274.8
1210.76
1128.94
1866.42
1869.91
1871.85
1873.97
1876.3
1878.69
1880.97
1882.96
1884.41
1885.14
1884.97
1883.74
1881.3
1877.56
1872.4
1865.76
1857.55
1847.71
1836.17
1822.87
1807.75
1790.78
1771.89
1751.09
1728.4
1703.9
1677.76
1650.2
1621.5
1592
1562.02
1531.88
1501.79
1471.83
1441.8
1411.17
1379.1
1344.35
1305.12
1259.77
1207.14
1147.2
1081.75
1009.93
1843.61
1846.56
1848.49
1850.8
1853.44
1856.19
1858.87
1861.23
1863.03
1864.08
1864.17
1863.16
1860.9
1857.28
1852.21
1845.6
1837.38
1827.46
1815.77
1802.23
1786.75
1769.23
1749.59
1727.75
1703.71
1677.5
1649.25
1619.15
1587.48
1554.56
1520.72
1486.29
1451.5
1416.47
1381.06
1344.92
1307.39
1267.19
1221.85
1169.2
1108.59
1042.48
978.777
920.08
1820.04
1822.43
1824.34
1826.81
1829.72
1832.83
1835.88
1838.61
1840.77
1842.13
1842.51
1841.74
1839.69
1836.24
1831.3
1824.78
1816.61
1806.69
1794.95
1781.26
1765.5
1747.54
1727.22
1704.43
1679.08
1651.19
1620.83
1588.21
1553.61
1517.37
1479.88
1441.51
1402.62
1363.49
1324.37
1285.49
1246.44
1204.94
1156.08
1097.53
1030.49
961.69
902.141
857.646
1795.83
1797.6
1799.49
1802.06
1805.21
1808.65
1812.06
1815.16
1817.67
1819.36
1820.04
1819.54
1817.73
1814.49
1809.73
1803.37
1795.32
1785.49
1773.77
1760.03
1744.11
1725.81
1704.92
1681.26
1654.68
1625.14
1592.72
1557.62
1520.17
1480.77
1439.89
1398.03
1355.8
1313.99
1273.62
1234.99
1195.37
1146.17
1059.02
925.453
734.526
717.706
801.631
834.238
1771.11
1772.16
1773.99
1776.57
1779.93
1783.68
1787.45
1790.92
1793.8
1795.84
1796.85
1796.64
1795.1
1792.12
1787.59
1781.43
1773.57
1763.91
1752.33
1738.65
1722.69
1704.17
1682.84
1658.42
1630.7
1599.6
1565.17
1527.67
1487.47
1445.1
1401.16
1356.36
1311.83
1269.12
1228.66
1184.62
1092.19
841.449
474.692
244.073
104.67
108.002
193.021
518.234
1746
1746.14
1747.87
1750.37
1753.9
1757.96
1762.1
1765.96
1769.23
1771.65
1773.01
1773.14
1771.91
1769.2
1764.95
1759.06
1751.45
1742.04
1730.68
1717.19
1701.31
1682.74
1661.13
1636.11
1607.38
1574.82
1538.48
1498.66
1455.87
1410.78
1364.18
1317.16
1271.37
1227.2
1177.17
974.43
494.912
116.263
10.6104
3.11221
1.26627
0.517563
1.00501
31.2271
682.77
1720.56
1719.49
1721.08
1723.42
1727.12
1731.51
1736.05
1740.34
1744.05
1746.88
1748.64
1749.13
1748.24
1745.85
1741.9
1736.32
1729.03
1719.93
1708.89
1695.7
1680.07
1661.63
1639.94
1614.53
1585
1551.12
1512.99
1471
1425.81
1378.31
1329.52
1280.75
1232.23
1163.43
788.231
207.447
6.89068
-1.20069
-2.45379
-3.05843
-3.34391
-3.3645
-3.109
-0.91828
59.2026
1694.74
1692.12
1693.52
1695.69
1699.6
1704.37
1709.38
1714.16
1718.35
1721.65
1723.84
1724.73
1724.21
1722.17
1718.55
1713.3
1706.35
1697.63
1686.99
1674.22
1659.01
1640.93
1619.46
1593.95
1563.86
1528.9
1489.17
1445.2
1397.84
1348.19
1297.44
1245.48
1131.72
593.681
50.75
-1.63099
-3.00765
-3.64195
-3.85707
-3.9781
-4.11675
-4.2557
-4.29914
-3.41359
-2.00411
1668.07
1664.01
1665.08
1667.14
1671.33
1676.58
1682.15
1687.52
1692.27
1696.09
1698.74
1700.06
1699.92
1698.24
1694.96
1690.05
1683.48
1675.16
1665
1652.77
1638.17
1620.74
1599.86
1574.68
1544.42
1508.68
1467.61
1421.84
1372.35
1320.64
1267.42
1104.31
426.357
2.62359
-2.42342
-3.38048
-3.68893
-3.81424
-3.91934
-4.05697
-4.23161
-4.42719
-4.59209
-4.30475
-3.62554
1639.91
1635.24
1635.49
1637.69
1642.32
1648.2
1654.47
1660.52
1665.91
1670.31
1673.47
1675.24
1675.5
1674.17
1671.22
1666.64
1660.42
1652.53
1642.88
1631.31
1617.53
1601.11
1581.36
1557.11
1527.24
1491.18
1449.01
1401.3
1349.45
1295.9
1105.28
331.028
0.661271
-2.67695
-3.38221
-3.56029
-3.65678
-3.76687
-3.89937
-4.05552
-4.23111
-4.42439
-4.60956
-4.58623
-4.58454
1611.38
1605.32
1604.7
1607.33
1612.66
1619.37
1626.5
1633.35
1639.45
1644.46
1648.17
1650.4
1651.04
1650.04
1647.39
1643.1
1637.2
1629.71
1620.61
1609.79
1597.05
1582.06
1564.16
1541.74
1513.04
1477.16
1433.86
1383.96
1330.25
1097.78
286.713
-0.415634
-2.82698
-3.25652
-3.39969
-3.5047
-3.61409
-3.73768
-3.87078
-4.01423
-4.17269
-4.35198
-4.55353
-4.68825
-4.68757
1583.19
1574.46
1573.15
1576.39
1582.6
1590.34
1598.51
1606.28
1613.15
1618.8
1623.05
1625.72
1626.73
1626.02
1623.6
1619.53
1613.9
1606.75
1598.16
1588.13
1576.53
1563.36
1548.3
1529.01
1502.54
1467.32
1423.05
1372.16
1094.1
224.465
-1.00333
-2.83923
-3.13489
-3.24905
-3.34783
-3.45649
-3.56764
-3.68196
-3.79981
-3.92525
-4.06523
-4.23045
-4.42334
-4.60207
-4.6098
1554.03
1541.93
1539.49
1544.04
1551.59
1560.7
1570.16
1579.05
1586.81
1593.18
1598
1601.15
1602.5
1602.01
1599.7
1595.72
1590.16
1583.12
1574.78
1565.27
1554.54
1543.45
1532.96
1519.1
1496.48
1463.18
1419.42
1152.06
208.65
-1.28125
-2.75098
-2.98229
-3.09961
-3.19019
-3.28891
-3.39036
-3.48952
-3.58858
-3.69014
-3.79766
-3.91712
-4.06184
-4.23899
-4.40855
-4.45094
1522.77
1449.65
1424.9
1487.28
1516.09
1528.72
1540.33
1550.45
1559.04
1566.13
1571.57
1575.18
1576.83
1576.42
1573.97
1569.75
1563.87
1556.45
1547.84
1538.28
1527.72
1519.11
1516.83
1512.98
1497.45
1468.11
1220.31
218.454
-1.38917
-2.62821
-2.81675
-2.93063
-3.02435
-3.11709
-3.20896
-3.29746
-3.3823
-3.46574
-3.55011
-3.63826
-3.73482
-3.85037
-3.99712
-4.14783
-4.1945
1054.31
563.793
483.106
736.118
1020.99
1260.42
1418.67
1499.42
1529.13
1538.11
1543.91
1547.66
1549.27
1548.63
1545.76
1541.22
1535.1
1527.53
1519.01
1509.92
1491.51
1439.58
1448.19
1501.4
1497.27
1262.19
253.072
-1.55195
-2.48679
-2.64321
-2.75338
-2.84751
-2.93943
-3.02625
-3.10725
-3.18246
-3.25282
-3.32004
-3.38612
-3.45334
-3.52487
-3.60639
-3.70524
-3.81584
-3.84444
76.0455
0.394268
0.134229
-0.196445
80.2767
239.281
462.038
725.854
955.313
1134.7
1258.97
1339.13
1384.38
1403.15
1395.07
1372.48
1329.59
1258.73
1155.41
1030.21
838.72
560.383
575.04
840.349
828.261
235.175
-2.04731
-2.3469
-2.46049
-2.56909
-2.66489
-2.75664
-2.84189
-2.919
-2.98839
-3.05065
-3.10662
-3.15751
-3.205
-3.25087
-3.29715
-3.34547
-3.39521
-3.44566
-3.45474
-0.598937
-0.275336
-0.281733
-0.299589
-0.308416
-0.392152
-0.528653
-0.553142
48.8666
128.572
217.958
300.054
363.812
395.366
384.143
351.825
294.77
220.9
141.933
74.8968
10.1731
-1.65791
-1.46948
23.4104
0.27399
-2.02714
-2.14875
-2.26361
-2.37524
-2.47615
-2.57032
-2.65617
-2.73251
-2.79926
-2.85711
-2.90669
-2.94861
-2.9837
-3.01325
-3.03859
-3.06121
-3.08094
-3.09164
-3.08641
-3.04147
-0.436738
-0.364053
-0.328687
-0.324902
-0.335196
-0.349568
-0.368372
-0.379569
-0.445158
-0.605504
-0.725042
-0.805332
-0.875957
-0.942812
-1.00924
-1.07387
-1.14172
-1.22257
-1.29722
-1.35135
-1.3557
-1.37263
-1.42037
-1.52426
-1.69745
-1.88473
-2.04583
-2.17039
-2.28023
-2.38002
-2.46918
-2.54727
-2.61434
-2.67092
-2.71753
-2.75478
-2.78323
-2.8035
-2.81648
-2.8232
-2.82478
-2.82126
-2.80554
-2.77016
-2.71839
-0.404495
-0.35979
-0.344269
-0.341607
-0.352221
-0.370174
-0.390808
-0.406913
-0.41612
-0.457439
-0.505311
-0.554287
-0.612112
-0.660006
-0.71258
-0.774332
-0.845779
-0.926629
-1.01731
-1.12149
-1.24795
-1.36051
-1.45106
-1.56072
-1.69092
-1.83198
-1.96636
-2.08352
-2.18857
-2.28197
-2.36334
-2.4328
-2.49058
-2.53718
-2.57302
-2.59867
-2.6146
-2.62134
-2.61951
-2.60982
-2.59311
-2.56958
-2.53442
-2.47968
-2.41521
-0.392507
-0.367364
-0.359755
-0.358784
-0.367704
-0.385541
-0.409223
-0.434434
-0.461944
-0.502497
-0.550076
-0.600904
-0.657451
-0.712072
-0.769609
-0.833243
-0.903763
-0.981339
-1.06565
-1.15817
-1.26045
-1.35912
-1.44861
-1.54813
-1.66026
-1.78102
-1.89675
-2.00295
-2.09858
-2.18273
-2.25504
-2.31537
-2.36387
-2.40082
-2.42658
-2.44157
-2.44615
-2.4408
-2.42599
-2.4021
-2.36953
-2.32829
-2.27554
-2.20634
-2.12641
-0.40236
-0.382112
-0.377122
-0.377474
-0.385241
-0.401055
-0.423393
-0.45098
-0.484506
-0.526382
-0.573936
-0.625295
-0.682606
-0.738254
-0.796261
-0.859274
-0.927792
-1.00161
-1.08029
-1.16375
-1.25188
-1.34051
-1.42896
-1.52288
-1.62425
-1.72908
-1.83054
-1.92465
-2.00934
-2.08339
-2.14608
-2.19708
-2.23643
-2.26419
-2.28063
-2.286
-2.28057
-2.26471
-2.23877
-2.2028
-2.15655
-2.09936
-2.02925
-1.94223
-1.83649
-0.416218
-0.400309
-0.397035
-0.398413
-0.40583
-0.420368
-0.441475
-0.468552
-0.50167
-0.541297
-0.586184
-0.635359
-0.689658
-0.744452
-0.801926
-0.863586
-0.929785
-1.00042
-1.07524
-1.15401
-1.23629
-1.32037
-1.40539
-1.49335
-1.58473
-1.67663
-1.7651
-1.8472
-1.92091
-1.98473
-2.03776
-2.07955
-2.11002
-2.12913
-2.13705
-2.13392
-2.11994
-2.0953
-2.06016
-2.01425
-1.95668
-1.886
-1.79998
-1.69436
-1.56157
-0.430266
-0.419968
-0.418242
-0.420508
-0.427986
-0.441856
-0.462013
-0.488038
-0.519727
-0.557021
-0.599359
-0.646017
-0.696754
-0.749847
-0.80593
-0.865569
-0.929028
-0.996361
-1.06741
-1.14187
-1.21917
-1.2982
-1.37823
-1.45942
-1.5413
-1.6219
-1.6988
-1.76981
-1.83302
-1.88697
-1.93068
-1.9637
-1.98581
-1.99698
-1.99732
-1.98692
-1.96587
-1.9342
-1.89181
-1.83815
-1.77194
-1.69126
-1.5936
-1.47453
-1.32533
-0.444112
-0.439429
-0.439171
-0.442353
-0.450093
-0.463548
-0.482818
-0.50757
-0.537576
-0.572726
-0.612652
-0.656719
-0.704274
-0.754945
-0.808678
-0.865629
-0.925975
-0.989736
-1.05675
-1.12666
-1.19883
-1.27236
-1.3464
-1.42039
-1.49347
-1.5642
-1.63087
-1.69176
-1.74524
-1.78996
-1.82499
-1.8499
-1.86447
-1.86869
-1.8626
-1.84621
-1.81951
-1.7824
-1.73456
-1.6753
-1.60321
-1.51629
-1.41218
-1.28687
-1.13301
-0.457354
-0.457593
-0.458569
-0.4627
-0.470824
-0.483961
-0.502316
-0.52567
-0.553875
-0.586844
-0.624284
-0.665655
-0.71039
-0.758158
-0.808899
-0.86271
-0.919671
-0.97969
-1.04249
-1.10765
-1.17452
-1.24225
-1.30994
-1.37675
-1.44168
-1.50352
-1.56097
-1.61269
-1.65731
-1.69362
-1.7208
-1.73849
-1.74654
-1.74493
-1.73365
-1.71256
-1.68151
-1.64036
-1.58873
-1.52589
-1.45057
-1.36089
-1.25481
-1.12921
-0.978856
-0.46957
-0.473472
-0.475472
-0.480555
-0.489125
-0.502022
-0.519487
-0.541423
-0.567782
-0.598508
-0.633351
-0.671865
-0.713609
-0.758333
-0.805971
-0.856534
-0.909997
-0.966167
-1.02466
-1.08497
-1.14642
-1.2082
-1.26946
-1.32922
-1.38648
-1.4402
-1.48932
-1.53277
-1.5694
-1.59821
-1.6185
-1.62998
-1.63254
-1.62621
-1.61086
-1.58625
-1.55212
-1.50827
-1.45439
-1.38987
-1.31363
-1.22413
-1.1196
-0.997951
-0.856144
-0.479948
-0.486318
-0.489205
-0.49519
-0.504212
-0.516938
-0.533604
-0.554222
-0.57881
-0.607316
-0.639523
-0.675096
-0.713757
-0.755374
-0.79988
-0.84717
-0.897073
-0.949306
-1.00343
-1.05886
-1.11486
-1.17069
-1.22554
-1.2785
-1.3286
-1.37491
-1.41654
-1.45258
-1.4821
-1.50431
-1.5187
-1.52497
-1.52306
-1.51293
-1.49443
-1.46728
-1.4312
-1.38595
-1.33129
-1.26674
-1.1915
-1.10439
-1.00406
-0.889282
-0.758757
-0.487678
-0.495452
-0.499273
-0.506104
-0.515586
-0.528219
-0.544221
-0.563674
-0.586619
-0.612992
-0.642604
-0.675254
-0.710837
-0.749331
-0.79066
-0.834615
-0.880901
-0.929167
-0.978935
-1.02951
-1.08012
-1.13011
-1.17877
-1.22531
-1.26882
-1.30844
-1.34336
-1.37282
-1.3961
-1.41263
-1.42205
-1.42406
-1.41853
-1.40536
-1.38442
-1.35553
-1.31844
-1.27292
-1.2187
-1.15543
-1.08261
-0.999463
-0.905124
-0.798979
-0.680744
-0.492194
-0.500367
-0.505258
-0.512971
-0.522969
-0.53562
-0.551106
-0.569531
-0.590946
-0.615298
-0.642461
-0.672347
-0.704969
-0.740375
-0.778485
-0.819024
-0.861622
-0.905883
-0.951276
-0.997057
)
;

boundaryField
{
    leftWall
    {
        type            fixedFluxPressure;
        gradient        uniform 0;
        value           nonuniform List<scalar> 
44
(
2052.07
2049.74
2046.61
2042.02
2035.79
2027.93
2018.42
2007.29
1994.61
1980.44
1964.77
1947.58
1929.03
1909.25
1888.34
1866.42
1843.61
1820.04
1795.83
1771.11
1746
1720.56
1694.74
1668.07
1639.91
1611.38
1583.19
1554.03
1522.77
1054.31
76.0455
-0.598937
-0.436738
-0.404495
-0.392507
-0.40236
-0.416218
-0.430266
-0.444112
-0.457354
-0.46957
-0.479948
-0.487678
-0.492194
)
;
    }
    rightWall
    {
        type            fixedFluxPressure;
        gradient        nonuniform 0();
        value           nonuniform 0();
    }
    lowerWall
    {
        type            fixedFluxPressure;
        gradient        uniform 0;
        value           nonuniform List<scalar> 
44
(
2052.07
2055.93
2063.69
2072.15
2078.91
2083.56
2086.42
2088.1
2089.05
2089.56
2089.8
2089.85
2089.73
2089.41
2088.83
2087.92
2086.6
2084.76
2082.35
2079.31
2075.59
2071.21
2066.22
2060.76
2055.01
2049.3
2044.06
2039.88
2037.56
2038.13
2042.92
2053.69
2072.77
2103.78
2148.17
2209.4
2289.46
2388.95
2504.89
2628.59
2745.59
2840.14
2902.72
2930.19
)
;
    }
    atmosphere
    {
        type            totalPressure;
        rho             rho;
        psi             none;
        gamma           1;
        p0              nonuniform 0();
        value           nonuniform 0();
    }
    defaultFaces
    {
        type            empty;
    }
    procBoundary0to1
    {
        type            processor;
        value           nonuniform List<scalar> 
44
(
2952.73
2931.52
2982.27
3031.24
3055.97
3041.67
2974.68
2839.91
2618.72
2291.53
1837.59
1493.84
1299.02
1150.17
1023.29
927.148
861.694
822.934
810.848
836.34
836.34
870.654
815.259
678.469
292.17
57.2213
-5.73147
-5.53073
-5.60288
-5.04398
-3.87193
-3.02234
-2.74
-2.58425
-2.32184
-2.02041
-1.68548
-1.37051
-1.12669
-0.941135
-0.798349
-0.691605
-0.611624
-0.550429
)
;
    }
    procBoundary0to2
    {
        type            processor;
        value           nonuniform List<scalar> 
46
(
-1.04247
-1.0869
-1.12976
-1.17033
-1.20782
-1.24144
-1.27043
-1.29414
-1.31204
-1.32374
-1.32899
-1.32751
-1.3191
-1.30358
-1.28088
-1.2509
-1.21351
-1.16852
-1.11565
-1.05464
-0.985166
-0.906926
-0.819527
-0.722655
-0.616443
-0.493068
-0.500941
-0.507007
-0.515698
-0.52632
-0.5391
-0.554193
-0.571707
-0.591708
-0.614185
-0.639101
-0.666461
-0.696331
-0.728757
-0.763632
-0.800672
-0.839499
-0.879688
-0.920682
-1.04247
-0.961768
)
;
    }
}


// ************************************************************************* //
