/*--------------------------------*- C++ -*----------------------------------*\
| =========                 |                                                 |
| \\      /  F ield         | OpenFOAM: The Open Source CFD Toolbox           |
|  \\    /   O peration     | Version:  5.0                                   |
|   \\  /    A nd           | Web:      www.OpenFOAM.org                      |
|    \\/     M anipulation  |                                                 |
\*---------------------------------------------------------------------------*/
FoamFile
{
    version     2.0;
    format      ascii;
    class       surfaceScalarField;
    location    "0.25";
    object      phi;
}
// * * * * * * * * * * * * * * * * * * * * * * * * * * * * * * * * * * * * * //

dimensions      [0 3 -1 0 0 0 0];

internalField   nonuniform List<scalar> 
3781
(
-2.18516e-06
2.18516e-06
-9.84133e-07
-1.20102e-06
1.89666e-06
-2.88079e-06
5.36141e-06
-3.46475e-06
8.86214e-06
-3.50073e-06
1.21809e-05
-3.31873e-06
1.52651e-05
-3.08427e-06
1.81284e-05
-2.86328e-06
2.08074e-05
-2.67903e-06
2.33443e-05
-2.53687e-06
2.57785e-05
-2.43417e-06
2.81439e-05
-2.36542e-06
3.04686e-05
-2.32469e-06
3.27752e-05
-2.30665e-06
3.5082e-05
-2.30674e-06
3.7403e-05
-2.32101e-06
3.9749e-05
-2.34598e-06
4.21275e-05
-2.37849e-06
4.4543e-05
-2.4155e-06
4.6997e-05
-2.45401e-06
4.94879e-05
-2.49091e-06
5.20108e-05
-2.52288e-06
5.4557e-05
-2.54628e-06
5.71141e-05
-2.55702e-06
5.96644e-05
-2.55038e-06
6.21853e-05
-2.52087e-06
6.46472e-05
-2.46192e-06
6.70128e-05
-2.36557e-06
6.92348e-05
-2.22195e-06
7.12531e-05
-2.01838e-06
7.29908e-05
-1.73768e-06
7.43427e-05
-1.35192e-06
7.51575e-05
-8.14774e-07
7.52091e-05
-5.15668e-08
7.402e-05
1.18912e-06
7.12419e-05
2.77809e-06
6.64608e-05
4.78108e-06
5.92807e-05
7.18011e-06
4.9456e-05
9.82466e-06
3.71362e-05
1.23198e-05
2.30744e-05
1.40618e-05
8.70911e-06
1.43653e-05
-4.26803e-06
1.29771e-05
9.28606e-06
3.2911e-07
1.85605e-06
2.323e-06
-3.19491e-06
5.18325e-06
-5.74104e-06
8.31656e-06
-6.59806e-06
1.14469e-05
-6.63102e-06
1.44545e-05
-6.32639e-06
1.73003e-05
-5.93006e-06
1.99897e-05
-5.55268e-06
2.25474e-05
-5.23676e-06
2.50037e-05
-4.99314e-06
2.73882e-05
-4.81866e-06
2.97275e-05
-4.70476e-06
3.20445e-05
-4.64168e-06
3.4358e-05
-4.62014e-06
3.66831e-05
-4.63184e-06
3.90315e-05
-4.66936e-06
4.14115e-05
-4.72602e-06
4.38286e-05
-4.79559e-06
4.62852e-05
-4.87209e-06
4.87807e-05
-4.94956e-06
5.13117e-05
-5.02189e-06
5.38714e-05
-5.08257e-06
5.64496e-05
-5.12448e-06
5.90323e-05
-5.13967e-06
6.16009e-05
-5.11902e-06
6.41319e-05
-5.05189e-06
6.65956e-05
-4.92565e-06
6.89551e-05
-4.72504e-06
7.11645e-05
-4.43134e-06
7.31672e-05
-4.02109e-06
7.48938e-05
-3.46422e-06
7.62628e-05
-2.72097e-06
7.71886e-05
-1.74055e-06
7.76013e-05
-4.64234e-07
7.75372e-05
1.25316e-06
7.67997e-05
3.51559e-06
7.51143e-05
6.46654e-06
7.20742e-05
1.02202e-05
6.71135e-05
1.47853e-05
5.95416e-05
1.98917e-05
4.88279e-05
2.47754e-05
3.51973e-05
2.79959e-05
2.03591e-05
2.78153e-05
2.2165e-05
1.73297e-06
1.23077e-07
4.26745e-06
-5.7294e-06
7.17219e-06
-8.64578e-06
1.01464e-05
-9.5723e-06
1.30512e-05
-9.5358e-06
1.58355e-05
-9.11072e-06
1.84907e-05
-8.58521e-06
2.10292e-05
-8.09121e-06
2.34729e-05
-7.68045e-06
2.5846e-05
-7.36623e-06
2.81719e-05
-7.1446e-06
3.04719e-05
-7.00473e-06
3.27642e-05
-6.93399e-06
3.5064e-05
-6.91995e-06
3.73834e-05
-6.9512e-06
3.97314e-05
-7.01731e-06
4.21141e-05
-7.10871e-06
4.45349e-05
-7.21641e-06
4.69945e-05
-7.33171e-06
4.94909e-05
-7.44593e-06
5.20191e-05
-7.55017e-06
5.45716e-05
-7.63498e-06
5.71371e-05
-7.69004e-06
5.97012e-05
-7.70379e-06
6.22452e-05
-7.66303e-06
6.47457e-05
-7.55238e-06
6.71737e-05
-7.3536e-06
6.94935e-05
-7.04484e-06
7.16617e-05
-6.59954e-06
7.36257e-05
-5.98507e-06
7.53224e-05
-5.16092e-06
7.6678e-05
-4.07659e-06
7.76067e-05
-2.66921e-06
7.8007e-05
-8.64563e-07
7.78127e-05
1.44749e-06
7.69336e-05
4.39469e-06
7.52798e-05
8.12032e-06
7.27454e-05
1.27545e-05
6.9173e-05
1.83578e-05
6.42653e-05
2.47994e-05
5.75092e-05
3.15315e-05
4.82759e-05
3.72293e-05
3.64721e-05
3.96191e-05
3.56206e-05
2.25543e-06
-2.13235e-06
5.30065e-06
-8.77462e-06
8.39019e-06
-1.17353e-05
1.13458e-05
-1.25279e-05
1.41383e-05
-1.23283e-05
1.67835e-05
-1.17559e-05
1.9307e-05
-1.11087e-05
2.1735e-05
-1.05193e-05
2.40921e-05
-1.00376e-05
2.64007e-05
-9.67474e-06
2.86805e-05
-9.42446e-06
3.09492e-05
-9.27339e-06
3.32214e-05
-9.20624e-06
3.55094e-05
-9.20792e-06
3.78225e-05
-9.26431e-06
4.01676e-05
-9.36239e-06
4.25489e-05
-9.49003e-06
4.49683e-05
-9.63577e-06
4.7425e-05
-9.78846e-06
4.99161e-05
-9.93699e-06
5.24358e-05
-1.00699e-05
5.49759e-05
-1.0175e-05
5.75249e-05
-1.02391e-05
6.00684e-05
-1.02472e-05
6.25878e-05
-1.01824e-05
6.50602e-05
-1.00249e-05
6.74579e-05
-9.75124e-06
6.97467e-05
-9.3337e-06
7.18859e-05
-8.7387e-06
7.38263e-05
-7.92552e-06
7.55099e-05
-6.8445e-06
7.68684e-05
-5.43508e-06
7.78229e-05
-3.62369e-06
7.82824e-05
-1.32405e-06
7.81574e-05
1.57245e-06
7.73601e-05
5.19195e-06
7.58128e-05
9.66767e-06
7.3452e-05
1.51153e-05
7.02228e-05
2.1587e-05
6.60351e-05
2.89872e-05
6.0655e-05
3.69116e-05
5.35394e-05
4.43449e-05
4.39153e-05
4.92431e-05
4.82388e-05
2.48383e-06
-4.61618e-06
5.84367e-06
-1.21345e-05
9.08653e-06
-1.49782e-05
1.2061e-05
-1.55024e-05
1.4801e-05
-1.50683e-05
1.73668e-05
-1.43217e-05
1.98093e-05
-1.35512e-05
2.21665e-05
-1.28764e-05
2.44668e-05
-1.23379e-05
2.67328e-05
-1.19407e-05
2.89826e-05
-1.16742e-05
3.12313e-05
-1.15221e-05
3.34912e-05
-1.14662e-05
3.57723e-05
-1.1489e-05
3.8082e-05
-1.1574e-05
4.04253e-05
-1.17057e-05
4.28051e-05
-1.18699e-05
4.52221e-05
-1.20528e-05
4.76748e-05
-1.22411e-05
5.01594e-05
-1.24216e-05
5.26698e-05
-1.25804e-05
5.51976e-05
-1.27028e-05
5.77314e-05
-1.27729e-05
6.02569e-05
-1.27727e-05
6.27562e-05
-1.26817e-05
6.52073e-05
-1.2476e-05
6.75836e-05
-1.21276e-05
6.98532e-05
-1.16032e-05
7.19775e-05
-1.08631e-05
7.39113e-05
-9.85927e-06
7.56008e-05
-8.53402e-06
7.69836e-05
-6.81784e-06
7.79877e-05
-4.62779e-06
7.85311e-05
-1.86745e-06
7.85272e-05
1.57636e-06
7.78899e-05
5.8292e-06
7.65396e-05
1.1018e-05
7.44067e-05
1.72481e-05
7.14291e-05
2.45647e-05
6.7527e-05
3.28893e-05
6.25339e-05
4.19046e-05
5.60512e-05
5.08276e-05
4.73109e-05
5.79834e-05
6.02348e-05
2.62613e-06
-7.24232e-06
6.14046e-06
-1.56488e-05
9.44849e-06
-1.82862e-05
1.24187e-05
-1.84726e-05
1.51204e-05
-1.777e-05
1.76369e-05
-1.68382e-05
2.00315e-05
-1.59458e-05
2.23478e-05
-1.51927e-05
2.46164e-05
-1.46065e-05
2.68596e-05
-1.41838e-05
2.90944e-05
-1.39091e-05
3.13344e-05
-1.37621e-05
3.35902e-05
-1.3722e-05
3.587e-05
-1.37688e-05
3.81798e-05
-1.38837e-05
4.05234e-05
-1.40493e-05
4.29028e-05
-1.42492e-05
4.53178e-05
-1.44678e-05
4.77665e-05
-1.46898e-05
5.02448e-05
-1.48999e-05
5.27466e-05
-1.50821e-05
5.52634e-05
-1.52196e-05
5.77843e-05
-1.52938e-05
6.02954e-05
-1.52838e-05
6.27796e-05
-1.51659e-05
6.52162e-05
-1.49125e-05
6.75799e-05
-1.44913e-05
6.98408e-05
-1.38641e-05
7.19632e-05
-1.29855e-05
7.39051e-05
-1.18012e-05
7.56173e-05
-1.02462e-05
7.70426e-05
-8.24318e-06
7.81157e-05
-5.70084e-06
7.87622e-05
-2.514e-06
7.89022e-05
1.43642e-06
7.84529e-05
6.27846e-06
7.73323e-05
1.21386e-05
7.54594e-05
1.9121e-05
7.2748e-05
2.7276e-05
6.90861e-05
3.65513e-05
6.42865e-05
4.67042e-05
5.79867e-05
5.71274e-05
4.94911e-05
6.64789e-05
7.20495e-05
2.73217e-06
-9.97448e-06
6.29616e-06
-1.92128e-05
9.58974e-06
-2.15798e-05
1.25182e-05
-2.1401e-05
1.51747e-05
-2.04266e-05
1.76522e-05
-1.93157e-05
2.00162e-05
-1.83098e-05
2.23103e-05
-1.74868e-05
2.45642e-05
-1.68604e-05
2.67991e-05
-1.64187e-05
2.90306e-05
-1.61407e-05
3.1271e-05
-1.60024e-05
3.35293e-05
-1.59803e-05
3.58125e-05
-1.60521e-05
3.81256e-05
-1.61969e-05
4.04717e-05
-1.63953e-05
4.28518e-05
-1.66294e-05
4.52657e-05
-1.68817e-05
4.7711e-05
-1.71351e-05
5.01837e-05
-1.73726e-05
5.26779e-05
-1.75763e-05
5.51855e-05
-1.77272e-05
5.76959e-05
-1.78043e-05
6.01962e-05
-1.77841e-05
6.26702e-05
-1.76399e-05
6.50983e-05
-1.73406e-05
6.7457e-05
-1.685e-05
6.97184e-05
-1.61256e-05
7.18497e-05
-1.51167e-05
7.38121e-05
-1.37636e-05
7.55606e-05
-1.19948e-05
7.70435e-05
-9.72605e-06
7.82014e-05
-6.85871e-06
7.89674e-05
-3.28e-06
7.92683e-05
1.13552e-06
7.90261e-05
6.52063e-06
7.81583e-05
1.30064e-05
7.6575e-05
2.07043e-05
7.41703e-05
2.96807e-05
7.08021e-05
3.99195e-05
6.62509e-05
5.12554e-05
6.01396e-05
6.32387e-05
5.17851e-05
7.48335e-05
8.38336e-05
2.8124e-06
-1.27869e-05
6.35458e-06
-2.2755e-05
9.5751e-06
-2.48003e-05
1.24295e-05
-2.42555e-05
1.50292e-05
-2.30262e-05
1.7468e-05
-2.17545e-05
1.9808e-05
-2.06498e-05
2.2089e-05
-1.97679e-05
2.43378e-05
-1.91092e-05
2.65731e-05
-1.8654e-05
2.88088e-05
-1.83763e-05
3.10553e-05
-1.82489e-05
3.33205e-05
-1.82456e-05
3.56105e-05
-1.8342e-05
3.79291e-05
-1.85155e-05
4.02789e-05
-1.87451e-05
4.26607e-05
-1.90112e-05
4.5074e-05
-1.92949e-05
4.75165e-05
-1.95776e-05
4.99845e-05
-1.98406e-05
5.24722e-05
-2.00641e-05
5.49723e-05
-2.02273e-05
5.74749e-05
-2.03069e-05
5.99677e-05
-2.0277e-05
6.24357e-05
-2.01079e-05
6.48608e-05
-1.97656e-05
6.7221e-05
-1.92102e-05
6.94906e-05
-1.83952e-05
7.16394e-05
-1.72655e-05
7.3632e-05
-1.57561e-05
7.54276e-05
-1.37904e-05
7.69795e-05
-1.12779e-05
7.82345e-05
-8.11371e-06
7.91329e-05
-4.17839e-06
7.96088e-05
6.59615e-07
7.95903e-05
6.5391e-06
7.89976e-05
1.35992e-05
7.77381e-05
2.19637e-05
7.56967e-05
3.17221e-05
7.27159e-05
4.29003e-05
6.85591e-05
5.54122e-05
6.28363e-05
6.89615e-05
5.48512e-05
8.28187e-05
9.53747e-05
2.86835e-06
-1.56552e-05
6.33691e-06
-2.62235e-05
9.44407e-06
-2.79075e-05
1.22018e-05
-2.70132e-05
1.4734e-05
-2.55583e-05
1.71307e-05
-2.41513e-05
1.94474e-05
-2.29664e-05
2.17181e-05
-2.20386e-05
2.39653e-05
-2.13564e-05
2.62047e-05
-2.08934e-05
2.84476e-05
-2.06193e-05
3.0703e-05
-2.05042e-05
3.29772e-05
-2.05198e-05
3.52751e-05
-2.06399e-05
3.76e-05
-2.08405e-05
3.99541e-05
-2.10992e-05
4.23378e-05
-2.1395e-05
4.47507e-05
-2.17078e-05
4.71908e-05
-2.20177e-05
4.96545e-05
-2.23043e-05
5.2137e-05
-2.25465e-05
5.46312e-05
-2.27214e-05
5.71281e-05
-2.28038e-05
5.96166e-05
-2.27654e-05
6.20825e-05
-2.25739e-05
6.45091e-05
-2.21922e-05
6.68763e-05
-2.15774e-05
6.91601e-05
-2.06791e-05
7.13331e-05
-1.94384e-05
7.3363e-05
-1.77861e-05
7.52132e-05
-1.56406e-05
7.68418e-05
-1.29066e-05
7.82021e-05
-9.47392e-06
7.92413e-05
-5.21768e-06
7.99018e-05
-8.66725e-10
8.01194e-05
6.3215e-06
7.98209e-05
1.38977e-05
7.89187e-05
2.2866e-05
7.73012e-05
3.33396e-05
7.48166e-05
4.53849e-05
7.12412e-05
5.89876e-05
6.62115e-05
7.39911e-05
5.90664e-05
8.99638e-05
0.000105983
2.89998e-06
-1.85552e-05
6.25597e-06
-2.95795e-05
9.22326e-06
-3.08748e-05
1.18699e-05
-2.96599e-05
1.43268e-05
-2.80152e-05
1.6677e-05
-2.65015e-05
1.89679e-05
-2.52573e-05
2.1227e-05
-2.42977e-05
2.34721e-05
-2.36015e-05
2.57153e-05
-2.31366e-05
2.79655e-05
-2.28696e-05
3.02295e-05
-2.27682e-05
3.25123e-05
-2.28026e-05
3.48177e-05
-2.29453e-05
3.71484e-05
-2.31712e-05
3.95061e-05
-2.34568e-05
4.18912e-05
-2.37801e-05
4.43033e-05
-2.41199e-05
4.67408e-05
-2.44552e-05
4.92008e-05
-2.47643e-05
5.16787e-05
-2.50245e-05
5.41685e-05
-2.52112e-05
5.66619e-05
-2.52973e-05
5.91487e-05
-2.52521e-05
6.16159e-05
-2.50411e-05
6.40479e-05
-2.46243e-05
6.64262e-05
-2.39556e-05
6.87289e-05
-2.29817e-05
7.09306e-05
-2.16401e-05
7.30023e-05
-1.98578e-05
7.49111e-05
-1.75494e-05
7.66202e-05
-1.46157e-05
7.80887e-05
-1.09424e-05
7.92715e-05
-6.40045e-06
8.01192e-05
-8.48595e-07
8.05772e-05
5.86346e-06
8.05829e-05
1.3892e-05
8.00608e-05
2.33881e-05
7.8916e-05
3.44843e-05
7.70247e-05
4.72763e-05
7.42144e-05
6.17979e-05
7.0217e-05
7.79886e-05
6.45334e-05
9.56474e-05
0.000114499
2.9582e-06
-2.15134e-05
6.23006e-06
-3.28514e-05
9.08975e-06
-3.37344e-05
1.16609e-05
-3.22311e-05
1.4079e-05
-3.04332e-05
1.64191e-05
-2.88416e-05
1.87204e-05
-2.75585e-05
2.10044e-05
-2.65818e-05
2.32844e-05
-2.58814e-05
2.55689e-05
-2.54212e-05
2.78644e-05
-2.5165e-05
3.01755e-05
-2.50793e-05
3.25059e-05
-2.5133e-05
3.48583e-05
-2.52977e-05
3.72348e-05
-2.55477e-05
3.96366e-05
-2.58587e-05
4.20645e-05
-2.6208e-05
4.45181e-05
-2.65736e-05
4.69962e-05
-2.69333e-05
4.94964e-05
-2.72644e-05
5.20148e-05
-2.75429e-05
5.45459e-05
-2.77423e-05
5.70823e-05
-2.78337e-05
5.96143e-05
-2.77842e-05
6.213e-05
-2.75567e-05
6.46144e-05
-2.71087e-05
6.70501e-05
-2.63913e-05
6.94164e-05
-2.5348e-05
7.16897e-05
-2.39134e-05
7.38432e-05
-2.20113e-05
7.58471e-05
-1.95533e-05
7.76685e-05
-1.64371e-05
7.92716e-05
-1.25455e-05
8.06179e-05
-7.74679e-06
8.16662e-05
-1.89691e-06
8.23716e-05
5.15805e-06
8.26839e-05
1.35797e-05
8.25444e-05
2.35276e-05
8.18835e-05
3.51452e-05
8.0621e-05
4.85387e-05
7.86672e-05
6.37518e-05
7.59205e-05
8.07353e-05
7.22364e-05
9.93316e-05
0.00011935
2.96814e-06
-2.44816e-05
6.09872e-06
-3.5982e-05
8.81016e-06
-3.64459e-05
1.12748e-05
-3.46957e-05
1.36264e-05
-3.27849e-05
1.59302e-05
-3.11454e-05
1.82167e-05
-2.9845e-05
2.05012e-05
-2.88662e-05
2.2792e-05
-2.81722e-05
2.50944e-05
-2.77236e-05
2.74119e-05
-2.74825e-05
2.97471e-05
-2.74145e-05
3.21022e-05
-2.7488e-05
3.44788e-05
-2.76744e-05
3.68784e-05
-2.79473e-05
3.93021e-05
-2.82823e-05
4.17504e-05
-2.86563e-05
4.42235e-05
-2.90466e-05
4.67204e-05
-2.94303e-05
4.92396e-05
-2.97836e-05
5.17778e-05
-3.0081e-05
5.43302e-05
-3.02947e-05
5.68902e-05
-3.03937e-05
5.94488e-05
-3.03428e-05
6.19947e-05
-3.01026e-05
6.45139e-05
-2.96279e-05
6.69897e-05
-2.88671e-05
6.94027e-05
-2.7761e-05
7.17306e-05
-2.62413e-05
7.39488e-05
-2.42295e-05
7.60302e-05
-2.16347e-05
7.79456e-05
-1.83525e-05
7.96643e-05
-1.42642e-05
8.11544e-05
-9.23681e-06
8.23827e-05
-3.1252e-06
8.33149e-05
4.22577e-06
8.39154e-05
1.29793e-05
8.41451e-05
2.32979e-05
8.39647e-05
3.53256e-05
8.3342e-05
4.91614e-05
8.22708e-05
6.48231e-05
8.08038e-05
8.22022e-05
7.91168e-05
0.000101019
0.000120784
2.95477e-06
-2.74363e-05
5.92158e-06
-3.89488e-05
8.47432e-06
-3.89986e-05
1.08265e-05
-3.70478e-05
1.31064e-05
-3.50648e-05
1.53681e-05
-3.34071e-05
1.76337e-05
-3.21107e-05
1.99125e-05
-3.11451e-05
2.22085e-05
-3.04682e-05
2.45232e-05
-3.00383e-05
2.68575e-05
-2.98169e-05
2.9212e-05
-2.9769e-05
3.15873e-05
-2.98633e-05
3.3984e-05
-3.00711e-05
3.6403e-05
-3.03663e-05
3.88453e-05
-3.07245e-05
4.13114e-05
-3.11225e-05
4.38019e-05
-3.15371e-05
4.63165e-05
-3.19449e-05
4.88541e-05
-3.23212e-05
5.14123e-05
-3.26393e-05
5.39871e-05
-3.28695e-05
5.65725e-05
-3.2979e-05
5.91599e-05
-3.29303e-05
6.17387e-05
-3.26814e-05
6.42951e-05
-3.21844e-05
6.6813e-05
-3.1385e-05
6.92736e-05
-3.02215e-05
7.16555e-05
-2.86232e-05
7.39353e-05
-2.65094e-05
7.6088e-05
-2.37874e-05
7.80872e-05
-2.03518e-05
7.99062e-05
-1.60831e-05
8.15181e-05
-1.08487e-05
8.2897e-05
-4.50409e-06
8.40182e-05
3.10455e-06
8.48594e-05
1.2138e-05
8.54008e-05
2.27565e-05
8.56297e-05
3.50967e-05
8.55524e-05
4.92387e-05
8.52159e-05
6.51596e-05
8.47428e-05
8.26753e-05
8.43777e-05
0.000101384
0.000120646
2.91909e-06
-3.03554e-05
5.70306e-06
-4.17327e-05
8.0893e-06
-4.13849e-05
1.03243e-05
-3.92828e-05
1.25271e-05
-3.72676e-05
1.47407e-05
-3.56208e-05
1.69792e-05
-3.43491e-05
1.9246e-05
-3.34118e-05
2.15406e-05
-3.27628e-05
2.38614e-05
-3.23591e-05
2.62066e-05
-3.2162e-05
2.85746e-05
-3.21371e-05
3.09647e-05
-3.22533e-05
3.33765e-05
-3.24829e-05
3.58104e-05
-3.28003e-05
3.82673e-05
-3.31814e-05
4.07479e-05
-3.36031e-05
4.32532e-05
-3.40424e-05
4.57836e-05
-3.44753e-05
4.83388e-05
-3.48764e-05
5.0917e-05
-3.52175e-05
5.35149e-05
-3.54675e-05
5.6127e-05
-3.5591e-05
5.87452e-05
-3.55485e-05
6.13587e-05
-3.52949e-05
6.3954e-05
-3.47796e-05
6.65146e-05
-3.39457e-05
6.90216e-05
-3.27286e-05
7.14539e-05
-3.10555e-05
7.37884e-05
-2.88438e-05
7.60008e-05
-2.59998e-05
7.80662e-05
-2.24172e-05
7.99602e-05
-1.79771e-05
8.16592e-05
-1.25477e-05
8.31422e-05
-5.98711e-06
8.43919e-05
1.85493e-06
8.53966e-05
1.11333e-05
8.61525e-05
2.20006e-05
8.66684e-05
3.45808e-05
8.69776e-05
4.89295e-05
8.71529e-05
6.49843e-05
8.73282e-05
8.24999e-05
8.77174e-05
0.000100994
0.000119784
2.86233e-06
-3.32177e-05
5.44657e-06
-4.4317e-05
7.6597e-06
-4.3598e-05
9.77279e-06
-4.13959e-05
1.18932e-05
-3.9388e-05
1.40527e-05
-3.77802e-05
1.62575e-05
-3.6554e-05
1.85057e-05
-3.566e-05
2.07924e-05
-3.50496e-05
2.31128e-05
-3.46795e-05
2.54624e-05
-3.45116e-05
2.78377e-05
-3.45124e-05
3.02366e-05
-3.46522e-05
3.2658e-05
-3.49043e-05
3.51017e-05
-3.5244e-05
3.75685e-05
-3.56482e-05
4.00597e-05
-3.60943e-05
4.25766e-05
-3.65593e-05
4.51205e-05
-3.70192e-05
4.76918e-05
-3.74476e-05
5.02895e-05
-3.78152e-05
5.29108e-05
-3.80888e-05
5.55505e-05
-3.82308e-05
5.82007e-05
-3.81986e-05
6.08501e-05
-3.79443e-05
6.34846e-05
-3.74141e-05
6.60869e-05
-3.65479e-05
6.86369e-05
-3.52786e-05
7.11126e-05
-3.35312e-05
7.349e-05
-3.12213e-05
7.57443e-05
-2.82541e-05
7.78504e-05
-2.45233e-05
7.97836e-05
-1.99103e-05
8.15213e-05
-1.42855e-05
8.30441e-05
-7.50984e-06
8.4338e-05
5.60947e-07
8.53985e-05
1.00729e-05
8.62337e-05
2.11654e-05
8.68704e-05
3.3944e-05
8.7364e-05
4.84359e-05
8.78042e-05
6.45441e-05
8.83249e-05
8.19792e-05
8.91197e-05
0.0001002
0.000118513
2.78583e-06
-3.60036e-05
5.15416e-06
-4.66853e-05
7.18737e-06
-4.56312e-05
9.17335e-06
-4.33819e-05
1.12056e-05
-4.14203e-05
1.33049e-05
-3.98795e-05
1.54699e-05
-3.8719e-05
1.76931e-05
-3.78832e-05
1.99656e-05
-3.73221e-05
2.22791e-05
-3.6993e-05
2.46266e-05
-3.68591e-05
2.70029e-05
-3.68887e-05
2.94044e-05
-3.70538e-05
3.18293e-05
-3.73292e-05
3.42772e-05
-3.76919e-05
3.67489e-05
-3.81199e-05
3.92461e-05
-3.85915e-05
4.1771e-05
-3.90842e-05
4.43254e-05
-3.95736e-05
4.69107e-05
-4.00329e-05
4.95266e-05
-4.04311e-05
5.2171e-05
-4.07331e-05
5.48387e-05
-4.08985e-05
5.75212e-05
-4.08812e-05
6.02067e-05
-4.06298e-05
6.28793e-05
-4.00867e-05
6.55199e-05
-3.91885e-05
6.81065e-05
-3.78652e-05
7.06146e-05
-3.60393e-05
7.30182e-05
-3.36248e-05
7.529e-05
-3.05259e-05
7.74025e-05
-2.66358e-05
7.93286e-05
-2.18365e-05
8.1043e-05
-1.59998e-05
8.25235e-05
-8.99029e-06
8.37546e-05
-6.70199e-07
8.47331e-05
9.09442e-06
8.54755e-05
2.0423e-05
8.60263e-05
3.33931e-05
8.6468e-05
4.79942e-05
8.69163e-05
6.40959e-05
8.75114e-05
8.13841e-05
8.84504e-05
9.92606e-05
0.000117051
2.69111e-06
-3.86947e-05
4.82605e-06
-4.88202e-05
6.67099e-06
-4.74762e-05
8.5236e-06
-4.52345e-05
1.04618e-05
-4.33585e-05
1.24951e-05
-4.19127e-05
1.46146e-05
-4.08385e-05
1.68072e-05
-4.00758e-05
1.90597e-05
-3.95746e-05
2.13604e-05
-3.92937e-05
2.36998e-05
-3.91985e-05
2.60708e-05
-3.92597e-05
2.84687e-05
-3.94517e-05
3.08911e-05
-3.97515e-05
3.33372e-05
-4.0138e-05
3.58083e-05
-4.05909e-05
3.83065e-05
-4.10897e-05
4.08348e-05
-4.16124e-05
4.3396e-05
-4.21349e-05
4.59924e-05
-4.26293e-05
4.86246e-05
-4.30633e-05
5.12908e-05
-4.33993e-05
5.39856e-05
-4.35934e-05
5.67e-05
-4.35956e-05
5.94201e-05
-4.33499e-05
6.21277e-05
-4.27944e-05
6.48009e-05
-4.18617e-05
6.74141e-05
-4.04784e-05
6.99393e-05
-3.85645e-05
7.23465e-05
-3.6032e-05
7.46044e-05
-3.27838e-05
7.66809e-05
-2.87123e-05
7.85436e-05
-2.36992e-05
8.01606e-05
-1.76168e-05
8.15015e-05
-1.03312e-05
8.25424e-05
-1.71109e-06
8.32736e-05
8.36317e-06
8.37159e-05
1.99807e-05
8.39329e-05
3.31761e-05
8.40498e-05
4.78773e-05
8.42453e-05
6.39005e-05
8.46916e-05
8.09378e-05
8.56e-05
9.83522e-05
0.00011552
2.58e-06
-4.12747e-05
4.45957e-06
-5.06998e-05
6.10496e-06
-4.91215e-05
7.81694e-06
-4.69465e-05
9.65553e-06
-4.51971e-05
1.16181e-05
-4.38753e-05
1.36878e-05
-4.29082e-05
1.58454e-05
-4.22334e-05
1.80732e-05
-4.18024e-05
2.03561e-05
-4.15765e-05
2.26819e-05
-4.15244e-05
2.50419e-05
-4.16198e-05
2.74303e-05
-4.18401e-05
2.9844e-05
-4.21652e-05
3.22823e-05
-4.25764e-05
3.47468e-05
-4.30554e-05
3.72403e-05
-4.35832e-05
3.97667e-05
-4.41388e-05
4.233e-05
-4.46982e-05
4.49336e-05
-4.52329e-05
4.75788e-05
-4.57086e-05
5.02643e-05
-4.60848e-05
5.29843e-05
-4.63134e-05
5.57282e-05
-4.63394e-05
5.84797e-05
-4.61013e-05
6.12171e-05
-4.55318e-05
6.39138e-05
-4.45585e-05
6.65397e-05
-4.31042e-05
6.90614e-05
-4.10862e-05
7.14437e-05
-3.84143e-05
7.36496e-05
-3.49897e-05
7.56403e-05
-3.0703e-05
7.73756e-05
-2.54345e-05
7.88131e-05
-1.90543e-05
7.99086e-05
-1.14266e-05
8.06202e-05
-2.42274e-06
8.09205e-05
8.06287e-06
8.08218e-05
2.00794e-05
8.04009e-05
3.35971e-05
7.98564e-05
4.84218e-05
7.95211e-05
6.42358e-05
7.97393e-05
8.07196e-05
8.06665e-05
9.7425e-05
0.000113871
2.4537e-06
-4.37284e-05
4.04693e-06
-5.2293e-05
5.47807e-06
-5.05527e-05
7.04205e-06
-4.85105e-05
8.77681e-06
-4.69318e-05
1.0666e-05
-4.57645e-05
1.26836e-05
-4.49257e-05
1.48038e-05
-4.43536e-05
1.70039e-05
-4.40025e-05
1.92652e-05
-4.38378e-05
2.15732e-05
-4.38323e-05
2.39172e-05
-4.39638e-05
2.62905e-05
-4.42133e-05
2.86895e-05
-4.45642e-05
3.11137e-05
-4.50006e-05
3.35652e-05
-4.55068e-05
3.60475e-05
-4.60655e-05
3.85658e-05
-4.66571e-05
4.11253e-05
-4.72578e-05
4.37306e-05
-4.78382e-05
4.63841e-05
-4.83621e-05
4.90847e-05
-4.87853e-05
5.18259e-05
-4.90546e-05
5.45951e-05
-4.91086e-05
5.73724e-05
-4.88786e-05
6.01311e-05
-4.82905e-05
6.28388e-05
-4.72661e-05
6.54586e-05
-4.5724e-05
6.79509e-05
-4.35785e-05
7.02738e-05
-4.07373e-05
7.23836e-05
-3.70994e-05
7.42336e-05
-3.2553e-05
7.57741e-05
-2.69751e-05
7.69503e-05
-2.02305e-05
7.76997e-05
-1.21761e-05
7.79531e-05
-2.67612e-06
7.76408e-05
8.37514e-06
7.67435e-05
2.09767e-05
7.5368e-05
3.49726e-05
7.391e-05
4.98797e-05
7.28751e-05
6.52707e-05
7.30259e-05
8.05688e-05
7.43154e-05
9.61355e-05
0.000111878
2.3086e-06
-4.6037e-05
3.57144e-06
-5.35559e-05
4.77199e-06
-5.17532e-05
6.18289e-06
-4.99214e-05
7.81298e-06
-4.85619e-05
9.62945e-06
-4.7581e-05
1.15958e-05
-4.68921e-05
1.36788e-05
-4.64366e-05
1.58504e-05
-4.61742e-05
1.80883e-05
-4.60757e-05
2.03752e-05
-4.61193e-05
2.26991e-05
-4.62876e-05
2.50522e-05
-4.65664e-05
2.74308e-05
-4.69428e-05
2.98345e-05
-4.74044e-05
3.22659e-05
-4.79382e-05
3.47298e-05
-4.85295e-05
3.72325e-05
-4.91598e-05
3.97806e-05
-4.98059e-05
4.23802e-05
-5.04378e-05
4.50349e-05
-5.10168e-05
4.77438e-05
-5.14943e-05
5.04999e-05
-5.18107e-05
5.32877e-05
-5.18964e-05
5.60822e-05
-5.16732e-05
5.88504e-05
-5.10586e-05
6.15518e-05
-4.99675e-05
6.41417e-05
-4.83139e-05
6.65726e-05
-4.60094e-05
6.8796e-05
-4.29607e-05
7.07609e-05
-3.90644e-05
7.24132e-05
-3.42053e-05
7.36944e-05
-2.82562e-05
7.45379e-05
-2.1074e-05
7.48619e-05
-1.25001e-05
7.45784e-05
-2.39259e-06
7.35712e-05
9.38238e-06
7.17408e-05
2.28071e-05
6.91154e-05
3.7598e-05
6.65951e-05
5.24e-05
6.49362e-05
6.69297e-05
6.56321e-05
7.98729e-05
6.82092e-05
9.35584e-05
0.000109325
2.12726e-06
-4.81642e-05
3.00338e-06
-5.4432e-05
3.96132e-06
-5.27112e-05
5.22023e-06
-5.11803e-05
6.75045e-06
-5.00922e-05
8.49975e-06
-4.93303e-05
1.04196e-05
-4.88119e-05
1.24688e-05
-4.84857e-05
1.46136e-05
-4.8319e-05
1.68278e-05
-4.82899e-05
1.9092e-05
-4.83834e-05
2.13926e-05
-4.85882e-05
2.37211e-05
-4.88949e-05
2.60736e-05
-4.92953e-05
2.84502e-05
-4.97809e-05
3.0854e-05
-5.03421e-05
3.3291e-05
-5.09664e-05
3.57688e-05
-5.16375e-05
3.82957e-05
-5.23328e-05
4.08796e-05
-5.30216e-05
4.35253e-05
-5.36625e-05
4.6233e-05
-5.42019e-05
4.89943e-05
-5.45721e-05
5.17904e-05
-5.46925e-05
5.45903e-05
-5.44731e-05
5.73518e-05
-5.38202e-05
6.00249e-05
-5.26406e-05
6.25549e-05
-5.08439e-05
6.48863e-05
-4.83408e-05
6.69643e-05
-4.50386e-05
6.87326e-05
-4.08327e-05
7.01307e-05
-3.56033e-05
7.10932e-05
-2.92187e-05
7.15492e-05
-2.15301e-05
7.14105e-05
-1.23613e-05
7.06076e-05
-1.58976e-06
6.8747e-05
1.1243e-05
6.5451e-05
2.61032e-05
6.06492e-05
4.23998e-05
5.75354e-05
5.55138e-05
5.65912e-05
6.78738e-05
5.80238e-05
7.84403e-05
6.24615e-05
8.91206e-05
6.6547e-05
0.000105239
0.000122734
1.86281e-06
-5.00271e-05
2.29918e-06
-5.48684e-05
3.01728e-06
-5.34293e-05
4.13575e-06
-5.22987e-05
5.57857e-06
-5.1535e-05
7.27204e-06
-5.10237e-05
9.15469e-06
-5.06946e-05
1.11767e-05
-5.05077e-05
1.32987e-05
-5.0441e-05
1.5491e-05
-5.04822e-05
1.7732e-05
-5.06244e-05
2.00069e-05
-5.08631e-05
2.23068e-05
-5.11948e-05
2.46278e-05
-5.16163e-05
2.69702e-05
-5.21234e-05
2.93381e-05
-5.271e-05
3.17384e-05
-5.33667e-05
3.41802e-05
-5.40793e-05
3.66735e-05
-5.48262e-05
3.92281e-05
-5.55762e-05
4.18509e-05
-5.62853e-05
4.45431e-05
-5.68941e-05
4.72959e-05
-5.73249e-05
5.00864e-05
-5.74829e-05
5.28753e-05
-5.7262e-05
5.56095e-05
-5.65543e-05
5.82262e-05
-5.52573e-05
6.06596e-05
-5.32773e-05
6.28461e-05
-5.05273e-05
6.4727e-05
-4.69196e-05
6.62435e-05
-4.23492e-05
6.73301e-05
-3.66899e-05
6.79293e-05
-2.9818e-05
6.79895e-05
-2.15902e-05
6.736e-05
-1.17318e-05
6.56471e-05
1.23067e-07
6.14683e-05
1.54219e-05
5.90567e-05
2.85148e-05
5.77529e-05
4.37035e-05
5.63108e-05
5.69559e-05
5.58996e-05
6.82851e-05
5.68224e-05
7.75175e-05
5.97539e-05
8.6189e-05
6.51664e-05
9.98268e-05
0.000122455
1.42724e-06
-5.14543e-05
1.41033e-06
-5.48514e-05
1.91704e-06
-5.3936e-05
2.91924e-06
-5.3301e-05
4.29523e-06
-5.2911e-05
5.94993e-06
-5.26784e-05
7.80861e-06
-5.25533e-05
9.8128e-06
-5.25119e-05
1.1918e-05
-5.25462e-05
1.40912e-05
-5.26555e-05
1.63094e-05
-5.28426e-05
1.85569e-05
-5.31106e-05
2.08246e-05
-5.34625e-05
2.31086e-05
-5.39004e-05
2.54097e-05
-5.44245e-05
2.77325e-05
-5.50328e-05
3.00849e-05
-5.57191e-05
3.24772e-05
-5.64715e-05
3.49212e-05
-5.72702e-05
3.74289e-05
-5.80839e-05
4.00096e-05
-5.88661e-05
4.26669e-05
-5.95513e-05
4.5392e-05
-6.00501e-05
4.81578e-05
-6.02486e-05
5.09147e-05
-6.0019e-05
5.35953e-05
-5.92349e-05
5.61211e-05
-5.77832e-05
5.84132e-05
-5.55694e-05
6.04007e-05
-5.25148e-05
6.20241e-05
-4.8543e-05
6.32282e-05
-4.35533e-05
6.39665e-05
-3.74283e-05
6.42087e-05
-3.00602e-05
6.38702e-05
-2.12516e-05
6.18741e-05
-9.73576e-06
5.99769e-05
2.0203e-06
5.96006e-05
1.57981e-05
5.84755e-05
2.96398e-05
5.83226e-05
4.38564e-05
5.85674e-05
5.67111e-05
5.89887e-05
6.78638e-05
5.94231e-05
7.70831e-05
6.03635e-05
8.52486e-05
6.44207e-05
9.57697e-05
0.000124234
7.04751e-07
-5.2159e-05
3.11706e-07
-5.44584e-05
6.58531e-07
-5.42828e-05
1.57801e-06
-5.42204e-05
2.91406e-06
-5.4247e-05
4.55129e-06
-5.43157e-05
6.4018e-06
-5.44038e-05
8.39897e-06
-5.45091e-05
1.04938e-05
-5.46409e-05
1.26511e-05
-5.48129e-05
1.48469e-05
-5.50383e-05
1.70654e-05
-5.5329e-05
1.92973e-05
-5.56945e-05
2.1539e-05
-5.6142e-05
2.37913e-05
-5.66768e-05
2.60592e-05
-5.73007e-05
2.83512e-05
-5.8011e-05
3.06784e-05
-5.87988e-05
3.30542e-05
-5.9646e-05
3.54924e-05
-6.05221e-05
3.80058e-05
-6.13794e-05
4.06013e-05
-6.21469e-05
4.3273e-05
-6.27217e-05
4.5989e-05
-6.29647e-05
4.86872e-05
-6.27172e-05
5.12815e-05
-6.18291e-05
5.36741e-05
-6.01757e-05
5.57706e-05
-5.76659e-05
5.74929e-05
-5.42372e-05
5.87894e-05
-4.98395e-05
5.9644e-05
-4.44078e-05
6.00551e-05
-3.78394e-05
6.00135e-05
-3.00185e-05
5.8244e-05
-1.94821e-05
5.81861e-05
-9.67787e-06
5.7603e-05
2.60346e-06
5.74039e-05
1.59972e-05
5.73669e-05
2.96768e-05
5.81057e-05
4.31176e-05
5.93201e-05
5.54967e-05
6.06962e-05
6.64876e-05
6.17303e-05
7.60489e-05
6.19752e-05
8.50037e-05
6.16122e-05
9.61326e-05
0.000126494
-3.99784e-07
-5.17593e-05
-9.6671e-07
-5.38915e-05
-7.26206e-07
-5.45233e-05
1.47023e-07
-5.50937e-05
1.47322e-06
-5.55732e-05
3.11565e-06
-5.59581e-05
4.9734e-06
-5.62615e-05
6.97297e-06
-5.65086e-05
9.06225e-06
-5.67302e-05
1.12054e-05
-5.6956e-05
1.33782e-05
-5.72112e-05
1.55653e-05
-5.75161e-05
1.77577e-05
-5.78868e-05
1.99515e-05
-5.83359e-05
2.21476e-05
-5.88729e-05
2.43508e-05
-5.95039e-05
2.65694e-05
-6.02296e-05
2.88146e-05
-6.1044e-05
3.11002e-05
-6.19316e-05
3.34418e-05
-6.28637e-05
3.58552e-05
-6.37928e-05
3.83536e-05
-6.46454e-05
4.09372e-05
-6.53052e-05
4.35709e-05
-6.55984e-05
4.61764e-05
-6.53228e-05
4.86436e-05
-6.42963e-05
5.085e-05
-6.23821e-05
5.26842e-05
-5.95001e-05
5.40684e-05
-5.56213e-05
5.49966e-05
-5.07677e-05
5.55209e-05
-4.49322e-05
5.56855e-05
-3.8004e-05
5.54328e-05
-2.97658e-05
5.55291e-05
-1.95785e-05
5.44795e-05
-8.62818e-06
5.36181e-05
3.46484e-06
5.31809e-05
1.64344e-05
5.33469e-05
2.95107e-05
5.42868e-05
4.21778e-05
5.58865e-05
5.3897e-05
5.79001e-05
6.4474e-05
5.97948e-05
7.41542e-05
6.04916e-05
8.43069e-05
5.79703e-05
9.8654e-05
0.000127436
-1.54605e-06
-5.02132e-05
-2.32195e-06
-5.31156e-05
-2.15695e-06
-5.46883e-05
-1.29579e-06
-5.59548e-05
4.80118e-08
-5.6917e-05
1.71363e-06
-5.76237e-05
3.58847e-06
-5.81364e-05
5.59426e-06
-5.85144e-05
7.67792e-06
-5.88139e-05
9.80442e-06
-5.90825e-05
1.19509e-05
-5.93577e-05
1.41026e-05
-5.96679e-05
1.62509e-05
-6.0035e-05
1.83915e-05
-6.04765e-05
2.05245e-05
-6.1006e-05
2.2654e-05
-6.16334e-05
2.47871e-05
-6.23627e-05
2.69337e-05
-6.31905e-05
2.91064e-05
-6.41043e-05
3.13208e-05
-6.50781e-05
3.35949e-05
-6.60669e-05
3.59505e-05
-6.7001e-05
3.84004e-05
-6.77551e-05
4.09095e-05
-6.81074e-05
4.33778e-05
-6.77911e-05
4.56638e-05
-6.65822e-05
4.76156e-05
-6.4334e-05
4.91131e-05
-6.09977e-05
5.01233e-05
-5.66315e-05
5.07089e-05
-5.13533e-05
5.09939e-05
-4.52172e-05
5.09125e-05
-3.79226e-05
5.06377e-05
-2.9491e-05
4.98996e-05
-1.88403e-05
4.861e-05
-7.33856e-06
4.73283e-05
4.74653e-06
4.65217e-05
1.72411e-05
4.64439e-05
2.95885e-05
4.7239e-05
4.13827e-05
4.88584e-05
5.22776e-05
5.10955e-05
6.22368e-05
5.34416e-05
7.18082e-05
5.50485e-05
8.26999e-05
5.41066e-05
9.95958e-05
0.00012731
-2.57829e-06
-4.76349e-05
-3.55206e-06
-5.21418e-05
-3.46221e-06
-5.47782e-05
-2.60026e-06
-5.68168e-05
-1.2306e-06
-5.82867e-05
4.58998e-07
-5.93133e-05
2.34579e-06
-6.00231e-05
4.34923e-06
-6.05179e-05
6.41741e-06
-6.08821e-05
8.51767e-06
-6.11828e-05
1.06293e-05
-6.14693e-05
1.27386e-05
-6.17772e-05
1.48368e-05
-6.21333e-05
1.6919e-05
-6.25586e-05
1.89835e-05
-6.30705e-05
2.10329e-05
-6.36828e-05
2.3072e-05
-6.44018e-05
2.51073e-05
-6.52258e-05
2.7148e-05
-6.61451e-05
2.92063e-05
-6.71363e-05
3.12981e-05
-6.81588e-05
3.34547e-05
-6.91575e-05
3.57121e-05
-7.00126e-05
3.80398e-05
-7.04351e-05
4.03091e-05
-7.00604e-05
4.23395e-05
-6.86126e-05
4.39521e-05
-6.59466e-05
4.50688e-05
-6.21144e-05
4.57427e-05
-5.73054e-05
4.61029e-05
-5.17135e-05
4.61349e-05
-4.52492e-05
4.58963e-05
-3.7684e-05
4.45762e-05
-2.81709e-05
4.28773e-05
-1.71413e-05
4.09965e-05
-5.45777e-06
3.92512e-05
6.4918e-06
3.8056e-05
1.84364e-05
3.76593e-05
2.99852e-05
3.82044e-05
4.08375e-05
3.96731e-05
5.08089e-05
4.18985e-05
6.00114e-05
4.44867e-05
6.922e-05
4.66962e-05
8.04904e-05
4.83659e-05
9.7926e-05
0.000125093
-3.07092e-06
-4.4564e-05
-4.2689e-06
-5.09438e-05
-4.34191e-06
-5.47052e-05
-3.52183e-06