/*--------------------------------*- C++ -*----------------------------------*\
| =========                 |                                                 |
| \\      /  F ield         | OpenFOAM: The Open Source CFD Toolbox           |
|  \\    /   O peration     | Version:  5.0                                   |
|   \\  /    A nd           | Web:      www.OpenFOAM.org                      |
|    \\/     M anipulation  |                                                 |
\*---------------------------------------------------------------------------*/
FoamFile
{
    version     2.0;
    format      ascii;
    class       volVectorField;
    location    "0.25";
    object      U;
}
// * * * * * * * * * * * * * * * * * * * * * * * * * * * * * * * * * * * * * //

dimensions      [0 1 -1 0 0 0 0];

internalField   nonuniform List<vector> 
1935
(
(-0.0303728 0.0155045 0)
(-0.0305865 -0.00997936 0)
(0.00512943 -0.0228749 0)
(0.0519191 -0.0271658 0)
(0.1017 -0.0270493 0)
(0.150452 -0.0252183 0)
(0.196304 -0.0230489 0)
(0.238783 -0.021059 0)
(0.278266 -0.0194039 0)
(0.315387 -0.018105 0)
(0.350762 -0.0171295 0)
(0.384922 -0.0164263 0)
(0.418309 -0.015944 0)
(0.451289 -0.0156385 0)
(0.484151 -0.0154733 0)
(0.517125 -0.0154191 0)
(0.550388 -0.015451 0)
(0.58407 -0.0155476 0)
(0.618257 -0.0156889 0)
(0.652991 -0.0158557 0)
(0.688272 -0.0160283 0)
(0.724054 -0.0161857 0)
(0.760242 -0.0163049 0)
(0.796686 -0.0163596 0)
(0.833174 -0.0163201 0)
(0.869421 -0.0161514 0)
(0.905056 -0.015812 0)
(0.939608 -0.015252 0)
(0.972479 -0.0144094 0)
(1.00291 -0.0132052 0)
(1.02993 -0.0115321 0)
(1.0523 -0.00921305 0)
(1.06807 -0.00595254 0)
(1.07602 -0.000527754 0)
(1.0692 0.00729628 0)
(1.04239 0.0182702 0)
(0.990365 0.0326924 0)
(0.907331 0.0503364 0)
(0.788099 0.0699553 0)
(0.630635 0.08846 0)
(0.439552 0.100018 0)
(0.228416 0.0972534 0)
(0.0267166 0.0784699 0)
(-0.163764 0.0351477 0)
(-0.00594905 0.0287284 0)
(0.0161357 -0.0199508 0)
(0.0528256 -0.0457327 0)
(0.0963149 -0.0550428 0)
(0.141292 -0.0560329 0)
(0.185232 -0.0535617 0)
(0.227049 -0.050106 0)
(0.266512 -0.0467567 0)
(0.303871 -0.0439328 0)
(0.339555 -0.0417456 0)
(0.374006 -0.0401691 0)
(0.407632 -0.0391256 0)
(0.440786 -0.0385272 0)
(0.473766 -0.0382919 0)
(0.506816 -0.0383474 0)
(0.540124 -0.0386303 0)
(0.573834 -0.0390838 0)
(0.608045 -0.0396553 0)
(0.64281 -0.0402941 0)
(0.678145 -0.04095 0)
(0.714021 -0.0415707 0)
(0.750364 -0.0421008 0)
(0.787056 -0.0424798 0)
(0.823924 -0.0426398 0)
(0.860739 -0.0425034 0)
(0.897203 -0.0419803 0)
(0.932938 -0.0409634 0)
(0.967475 -0.0393235 0)
(1.00023 -0.0369014 0)
(1.03047 -0.0334956 0)
(1.05731 -0.0288414 0)
(1.07968 -0.0225543 0)
(1.09641 -0.0140719 0)
(1.10556 -0.00221549 0)
(1.10849 0.0138605 0)
(1.10363 0.0352724 0)
(1.08774 0.0629276 0)
(1.05623 0.0973809 0)
(1.00237 0.138009 0)
(0.916719 0.181478 0)
(0.788618 0.219797 0)
(0.611438 0.239652 0)
(0.396921 0.228589 0)
(0.17749 0.172755 0)
(0.0123458 0.0127421 0)
(0.0410475 -0.0458203 0)
(0.0811603 -0.076313 0)
(0.123789 -0.0866836 0)
(0.165895 -0.0871029 0)
(0.206522 -0.0833977 0)
(0.245321 -0.0785295 0)
(0.282323 -0.0738643 0)
(0.317796 -0.0699469 0)
(0.352084 -0.0669277 0)
(0.385537 -0.0647784 0)
(0.418476 -0.0633996 0)
(0.451184 -0.0626723 0)
(0.483901 -0.0624804 0)
(0.516821 -0.0627171 0)
(0.550094 -0.0632861 0)
(0.583828 -0.0640991 0)
(0.618091 -0.0650731 0)
(0.652912 -0.0661281 0)
(0.688281 -0.0671844 0)
(0.72415 -0.06816 0)
(0.760428 -0.0689677 0)
(0.796984 -0.0695126 0)
(0.833636 -0.0696883 0)
(0.870148 -0.0693732 0)
(0.906223 -0.0684256 0)
(0.941489 -0.0666774 0)
(0.97549 -0.0639264 0)
(1.00767 -0.0599258 0)
(1.03733 -0.0543696 0)
(1.06368 -0.046873 0)
(1.08572 -0.0369464 0)
(1.10234 -0.0239659 0)
(1.11206 -0.00724398 0)
(1.11382 0.0144567 0)
(1.10652 0.0425447 0)
(1.08888 0.0786487 0)
(1.05962 0.124222 0)
(1.01715 0.179756 0)
(0.958674 0.24318 0)
(0.878581 0.307329 0)
(0.7669 0.356846 0)
(0.613686 0.369035 0)
(0.423378 0.315868 0)
(0.0169277 -0.0100133 0)
(0.0530491 -0.0770704 0)
(0.0978339 -0.109207 0)
(0.141431 -0.118882 0)
(0.182378 -0.117848 0)
(0.221068 -0.112582 0)
(0.257864 -0.106297 0)
(0.293112 -0.100454 0)
(0.327176 -0.0956237 0)
(0.360393 -0.0919506 0)
(0.393067 -0.0893848 0)
(0.425464 -0.0877989 0)
(0.457816 -0.087043 0)
(0.490314 -0.0869689 0)
(0.523113 -0.0874385 0)
(0.556328 -0.0883248 0)
(0.590038 -0.0895103 0)
(0.624287 -0.090884 0)
(0.659082 -0.0923384 0)
(0.694397 -0.0937663 0)
(0.73017 -0.0950574 0)
(0.766302 -0.0960945 0)
(0.802654 -0.09675 0)
(0.839042 -0.0968808 0)
(0.875232 -0.0963234 0)
(0.910932 -0.0948872 0)
(0.945781 -0.0923472 0)
(0.979342 -0.0884337 0)
(1.01108 -0.0828209 0)
(1.04037 -0.0751108 0)
(1.06644 -0.0648141 0)
(1.08839 -0.0513288 0)
(1.10519 -0.0339177 0)
(1.11558 -0.0117153 0)
(1.11829 0.0164632 0)
(1.11204 0.0519661 0)
(1.09564 0.0962884 0)
(1.06806 0.15078 0)
(1.02856 0.216108 0)
(0.976357 0.291178 0)
(0.909678 0.37105 0)
(0.823439 0.443178 0)
(0.706328 0.483459 0)
(0.545404 0.455453 0)
(0.0182988 -0.0359811 0)
(0.0589536 -0.112267 0)
(0.107123 -0.143816 0)
(0.15181 -0.15114 0)
(0.192358 -0.147842 0)
(0.23 -0.140773 0)
(0.265594 -0.13313 0)
(0.299733 -0.126293 0)
(0.332879 -0.120766 0)
(0.36539 -0.116642 0)
(0.397552 -0.113833 0)
(0.4296 -0.112179 0)
(0.46173 -0.111503 0)
(0.494099 -0.111627 0)
(0.52683 -0.112385 0)
(0.560014 -0.113624 0)
(0.593705 -0.1152 0)
(0.62793 -0.116977 0)
(0.662682 -0.118823 0)
(0.697924 -0.120605 0)
(0.733586 -0.122186 0)
(0.769565 -0.123422 0)
(0.805722 -0.124153 0)
(0.841873 -0.124203 0)
(0.87779 -0.123369 0)
(0.913191 -0.121413 0)
(0.947732 -0.118058 0)
(0.980998 -0.112974 0)
(1.01249 -0.105763 0)
(1.04161 -0.0959443 0)
(1.06766 -0.0829367 0)
(1.08981 -0.0660356 0)
(1.10711 -0.0443943 0)
(1.11844 -0.017023 0)
(1.1226 0.0172782 0)
(1.11836 0.0598576 0)
(1.10448 0.112107 0)
(1.07992 0.175197 0)
(1.04377 0.249632 0)
(0.995158 0.334482 0)
(0.93269 0.425952 0)
(0.853025 0.514542 0)
(0.747688 0.58014 0)
(0.600962 0.586747 0)
(0.0192845 -0.0637273 0)
(0.0623241 -0.1497 0)
(0.112074 -0.179439 0)
(0.157096 -0.183371 0)
(0.197255 -0.177269 0)
(0.234221 -0.168209 0)
(0.269092 -0.159219 0)
(0.302585 -0.151493 0)
(0.335209 -0.145403 0)
(0.367333 -0.14096 0)
(0.39923 -0.138025 0)
(0.431115 -0.136399 0)
(0.463158 -0.135873 0)
(0.495494 -0.136244 0)
(0.528221 -0.137321 0)
(0.561412 -0.138927 0)
(0.595105 -0.140894 0)
(0.629315 -0.143066 0)
(0.664026 -0.145285 0)
(0.699196 -0.147399 0)
(0.734752 -0.149245 0)
(0.770592 -0.150653 0)
(0.806577 -0.151436 0)
(0.842531 -0.151385 0)
(0.878236 -0.150259 0)
(0.913422 -0.14778 0)
(0.947764 -0.143623 0)
(0.980871 -0.137401 0)
(1.01228 -0.128652 0)
(1.04143 -0.116822 0)
(1.06768 -0.101249 0)
(1.09028 -0.0811366 0)
(1.10835 -0.0555425 0)
(1.12089 -0.0233757 0)
(1.1268 0.0166166 0)
(1.12491 0.065797 0)
(1.11402 0.125519 0)
(1.09299 0.19689 0)
(1.06065 0.280392 0)
(1.0157 0.375289 0)
(0.956271 0.478562 0)
(0.878955 0.582798 0)
(0.776499 0.671888 0)
(0.633911 0.714174 0)
(0.0202362 -0.0927367 0)
(0.0644187 -0.188118 0)
(0.114332 -0.215252 0)
(0.158844 -0.215309 0)
(0.198338 -0.206225 0)
(0.234694 -0.195161 0)
(0.269065 -0.18488 0)
(0.302181 -0.176347 0)
(0.334545 -0.169782 0)
(0.366509 -0.165102 0)
(0.398328 -0.162108 0)
(0.430197 -0.160561 0)
(0.462265 -0.160222 0)
(0.494647 -0.160861 0)
(0.527427 -0.162264 0)
(0.56066 -0.164232 0)
(0.594379 -0.166578 0)
(0.628587 -0.169124 0)
(0.663266 -0.171696 0)
(0.698372 -0.174116 0)
(0.733833 -0.176204 0)
(0.769551 -0.177764 0)
(0.805394 -0.178582 0)
(0.841195 -0.17842 0)
(0.876746 -0.177004 0)
(0.911794 -0.174017 0)
(0.946035 -0.169088 0)
(0.979102 -0.161781 0)
(1.01057 -0.151577 0)
(1.03992 -0.137858 0)
(1.06656 -0.119887 0)
(1.08981 -0.0967877 0)
(1.10887 -0.0675341 0)
(1.12285 -0.0309476 0)
(1.13073 0.0142914 0)
(1.13145 0.069586 0)
(1.12385 0.136315 0)
(1.10672 0.215623 0)
(1.07871 0.308117 0)
(1.03814 0.413401 0)
(0.982636 0.52926 0)
(0.908363 0.65001 0)
(0.808165 0.762897 0)
(0.667314 0.841436 0)
(0.0211369 -0.122728 0)
(0.0656386 -0.226619 0)
(0.114718 -0.250531 0)
(0.158059 -0.246587 0)
(0.196598 -0.23462 0)
(0.232285 -0.221697 0)
(0.266223 -0.210258 0)
(0.299086 -0.201023 0)
(0.331329 -0.194065 0)
(0.363266 -0.189209 0)
(0.395124 -0.186201 0)
(0.42707 -0.184762 0)
(0.459236 -0.184623 0)
(0.491718 -0.185532 0)
(0.524588 -0.187252 0)
(0.557889 -0.189567 0)
(0.591648 -0.192272 0)
(0.625864 -0.195169 0)
(0.660519 -0.198068 0)
(0.69557 -0.200773 0)
(0.73095 -0.203082 0)
(0.766567 -0.204779 0)
(0.802297 -0.205625 0)
(0.837985 -0.205353 0)
(0.873437 -0.203658 0)
(0.908416 -0.200188 0)
(0.94264 -0.194533 0)
(0.975769 -0.18621 0)
(1.00741 -0.174648 0)
(1.03708 -0.159173 0)
(1.06427 -0.138982 0)
(1.08832 -0.113132 0)
(1.10855 -0.0805201 0)
(1.12414 -0.0398923 0)
(1.13419 0.0101395 0)
(1.13773 0.0710387 0)
(1.13369 0.144257 0)
(1.12084 0.231054 0)
(1.09777 0.332258 0)
(1.06261 0.447916 0)
(1.01273 0.576668 0)
(0.944029 0.7145 0)
(0.849281 0.851898 0)
(0.713262 0.9682 0)
(0.0219363 -0.153444 0)
(0.0661309 -0.26456 0)
(0.113682 -0.284756 0)
(0.155404 -0.276914 0)
(0.192767 -0.262332 0)
(0.227699 -0.247799 0)
(0.261192 -0.235387 0)
(0.293831 -0.225583 0)
(0.326001 -0.218321 0)
(0.357965 -0.21335 0)
(0.38991 -0.210363 0)
(0.421977 -0.209049 0)
(0.454274 -0.209115 0)
(0.48688 -0.210285 0)
(0.519853 -0.212308 0)
(0.553232 -0.214948 0)
(0.587034 -0.217985 0)
(0.621261 -0.221209 0)
(0.655895 -0.224412 0)
(0.690897 -0.227381 0)
(0.726208 -0.229896 0)
(0.761742 -0.231721 0)
(0.797388 -0.232593 0)
(0.833001 -0.232221 0)
(0.868403 -0.23027 0)
(0.903374 -0.226354 0)
(0.937652 -0.220026 0)
(0.970924 -0.210764 0)
(1.00283 -0.19795 0)
(1.03293 -0.180859 0)
(1.06075 -0.158636 0)
(1.08573 -0.130275 0)
(1.10723 -0.0946124 0)
(1.12455 -0.0503282 0)
(1.13689 0.00402914 0)
(1.14341 0.0699914 0)
(1.14312 0.149109 0)
(1.13491 0.242794 0)
(1.1174 0.352144 0)
(1.08878 0.47767 0)
(1.04654 0.618856 0)
(0.986818 0.773311 0)
(0.902977 0.934815 0)
(0.779434 1.08961 0)
(0.0225948 -0.184628 0)
(0.0659744 -0.301467 0)
(0.111513 -0.317582 0)
(0.151336 -0.306099 0)
(0.187378 -0.289265 0)
(0.221474 -0.273421 0)
(0.254476 -0.260254 0)
(0.286866 -0.25003 0)
(0.318952 -0.242564 0)
(0.350938 -0.237539 0)
(0.382971 -0.234609 0)
(0.415157 -0.233437 0)
(0.447581 -0.233705 0)
(0.480306 -0.235126 0)
(0.513375 -0.237431 0)
(0.546821 -0.240372 0)
(0.580659 -0.243718 0)
(0.61489 -0.247244 0)
(0.649498 -0.250729 0)
(0.684453 -0.253946 0)
(0.719702 -0.256658 0)
(0.75517 -0.258608 0)
(0.790756 -0.259514 0)
(0.826329 -0.259058 0)
(0.861724 -0.256878 0)
(0.896738 -0.252559 0)
(0.931129 -0.24562 0)
(0.964608 -0.2355 0)
(0.99684 -0.221543 0)
(1.02744 -0.202981 0)
(1.05596 -0.17891 0)
(1.08191 -0.148279 0)
(1.10474 -0.109873 0)
(1.12382 -0.0623184 0)
(1.13849 -0.00411161 0)
(1.14803 0.0663442 0)
(1.15159 0.150697 0)
(1.14821 0.250514 0)
(1.13671 0.367137 0)
(1.11559 0.501474 0)
(1.08285 0.653695 0)
(1.03558 0.822746 0)
(0.969142 1.0054 0)
(0.8697 1.19532 0)
(0.0230873 -0.216296 0)
(0.0652238 -0.337303 0)
(0.108395 -0.349063 0)
(0.146141 -0.334274 0)
(0.180765 -0.315583 0)
(0.213948 -0.298741 0)
(0.246395 -0.285043 0)
(0.27848 -0.274553 0)
(0.310433 -0.266987 0)
(0.3424 -0.261977 0)
(0.374483 -0.259142 0)
(0.406756 -0.258127 0)
(0.439277 -0.258601 0)
(0.47209 -0.260262 0)
(0.505229 -0.262832 0)
(0.538718 -0.266055 0)
(0.572569 -0.269689 0)
(0.606787 -0.273499 0)
(0.64136 -0.277251 0)
(0.676263 -0.280706 0)
(0.711454 -0.283611 0)
(0.746869 -0.285692 0)
(0.782417 -0.286645 0)
(0.817979 -0.286127 0)
(0.853405 -0.283752 0)
(0.888506 -0.279074 0)
(0.923057 -0.271581 0)
(0.956791 -0.260678 0)
(0.989397 -0.245676 0)
(1.02052 -0.225768 0)
(1.04977 -0.200015 0)
(1.07671 -0.167325 0)
(1.10084 -0.126447 0)
(1.12166 -0.0759714 0)
(1.13859 -0.0143543 0)
(1.15106 0.0600509 0)
(1.15839 0.148967 0)
(1.15984 0.254083 0)
(1.15452 0.37691 0)
(1.14139 0.518582 0)
(1.11931 0.679601 0)
(1.08699 0.859542 0)
(1.0434 1.0568 0)
(0.982851 1.26954 0)
(0.0233962 -0.248326 0)
(0.063927 -0.371905 0)
(0.104471 -0.379147 0)
(0.140026 -0.361456 0)
(0.17316 -0.341328 0)
(0.205359 -0.323809 0)
(0.237175 -0.309809 0)
(0.268883 -0.299215 0)
(0.300634 -0.291662 0)
(0.332517 -0.286738 0)
(0.364589 -0.284043 0)
(0.396892 -0.283207 0)
(0.429457 -0.283891 0)
(0.462311 -0.285786 0)
(0.495476 -0.28861 0)
(0.528969 -0.292098 0)
(0.562802 -0.296004 0)
(0.59698 -0.300084 0)
(0.631499 -0.304096 0)
(0.666342 -0.307788 0)
(0.701477 -0.310892 0)
(0.736848 -0.313117 0)
(0.772379 -0.314137 0)
(0.80796 -0.313587 0)
(0.843452 -0.311054 0)
(0.87868 -0.306063 0)
(0.91343 -0.298074 0)
(0.947451 -0.28646 0)
(0.980456 -0.270501 0)
(1.01212 -0.249359 0)
(1.04207 -0.222067 0)
(1.06994 -0.187506 0)
(1.09529 -0.144401 0)
(1.11769 -0.0913201 0)
(1.13668 -0.0266991 0)
(1.15182 0.0511358 0)
(1.16261 0.143946 0)
(1.16853 0.253485 0)
(1.16903 0.381325 0)
(1.16361 0.52861 0)
(1.15195 0.695737 0)
(1.1343 0.88198 0)
(1.11245 1.08524 0)
(1.08627 1.30257 0)
(0.0235241 -0.280333 0)
(0.0621427 -0.404847 0)
(0.0998798 -0.407563 0)
(0.133192 -0.387451 0)
(0.16479 -0.366325 0)
(0.195942 -0.348453 0)
(0.227054 -0.334383 0)
(0.258305 -0.32385 0)
(0.289773 -0.316424 0)
(0.321493 -0.311664 0)
(0.353479 -0.309156 0)
(0.385739 -0.308524 0)
(0.41828 -0.309426 0)
(0.451112 -0.311552 0)
(0.484245 -0.314618 0)
(0.517691 -0.318361 0)
(0.551462 -0.322527 0)
(0.585567 -0.32687 0)
(0.620008 -0.331139 0)
(0.654777 -0.335073 0)
(0.689851 -0.338389 0)
(0.725187 -0.340778 0)
(0.760716 -0.341894 0)
(0.796341 -0.341347 0)
(0.83193 -0.338697 0)
(0.867314 -0.333443 0)
(0.902289 -0.325013 0)
(0.936613 -0.312755 0)
(0.970009 -0.295918 0)
(1.00217 -0.273642 0)
(1.03276 -0.244935 0)
(1.06142 -0.208665 0)
(1.08779 -0.163543 0)
(1.11149 -0.108134 0)
(1.13216 -0.0408706 0)
(1.14946 0.0399199 0)
(1.16305 0.135996 0)
(1.17264 0.249111 0)
(1.17799 0.380798 0)
(1.17902 0.532042 0)
(1.17603 0.702843 0)
(1.17006 0.891652 0)
(1.16373 1.09484 0)
(1.15875 1.30647 0)
(0.0234802 -0.312072 0)
(0.0599225 -0.435911 0)
(0.0947237 -0.434219 0)
(0.125766 -0.412205 0)
(0.155791 -0.39052 0)
(0.185834 -0.372611 0)
(0.216168 -0.358699 0)
(0.246879 -0.34839 0)
(0.27798 -0.341207 0)
(0.309451 -0.33669 0)
(0.341265 -0.334419 0)
(0.373401 -0.334018 0)
(0.40584 -0.33515 0)
(0.438576 -0.337509 0)
(0.47161 -0.340814 0)
(0.504949 -0.344803 0)
(0.538607 -0.349225 0)
(0.572596 -0.35383 0)
(0.606926 -0.358363 0)
(0.6416 -0.362552 0)
(0.676606 -0.366102 0)
(0.711908 -0.368684 0)
(0.74745 -0.369931 0)
(0.783138 -0.369428 0)
(0.818846 -0.366706 0)
(0.854407 -0.361235 0)
(0.889616 -0.352413 0)
(0.924233 -0.339562 0)
(0.957982 -0.321905 0)
(0.990561 -0.298562 0)
(1.02164 -0.268526 0)
(1.0509 -0.230653 0)
(1.07798 -0.183658 0)
(1.10255 -0.126111 0)
(1.12432 -0.0564626 0)
(1.14301 0.0269312 0)
(1.15842 0.125783 0)
(1.17043 0.241792 0)
(1.17906 0.37638 0)
(1.18455 0.530291 0)
(1.18759 0.703067 0)
(1.18947 0.892357 0)
(1.1927 1.09332 0)
(1.19969 1.29859 0)
(0.0232785 -0.343307 0)
(0.0573125 -0.464906 0)
(0.0890752 -0.459042 0)
(0.117832 -0.435669 0)
(0.146245 -0.413854 0)
(0.175118 -0.396218 0)
(0.2046 -0.382686 0)
(0.234691 -0.372765 0)
(0.265338 -0.365941 0)
(0.296473 -0.361746 0)
(0.32803 -0.359764 0)
(0.359954 -0.359626 0)
(0.392208 -0.361004 0)
(0.424768 -0.3636 0)
(0.457629 -0.367144 0)
(0.490795 -0.37138 0)
(0.524281 -0.37606 0)
(0.558105 -0.380935 0)
(0.592287 -0.385747 0)
(0.626839 -0.390214 0)
(0.66176 -0.394028 0)
(0.697026 -0.396841 0)
(0.732585 -0.398263 0)
(0.768349 -0.397848 0)
(0.804188 -0.395098 0)
(0.839933 -0.38945 0)
(0.875368 -0.380273 0)
(0.910241 -0.366858 0)
(0.944266 -0.348408 0)
(0.977131 -0.324021 0)
(1.0085 -0.292681 0)
(1.03804 -0.25324 0)
(1.06541 -0.204417 0)
(1.09029 -0.144802 0)
(1.11238 -0.072878 0)
(1.13145 0.0129462 0)
(1.14737 0.114299 0)
(1.16013 0.232771 0)
(1.16994 0.369624 0)
(1.17734 0.52533 0)
(1.18329 0.699031 0)
(1.18926 0.8878 0)
(1.19754 1.08603 0)
(1.21086 1.28615 0)
(0.0229372 -0.373821 0)
(0.0543504 -0.491659 0)
(0.082976 -0.481962 0)
(0.109427 -0.457793 0)
(0.136183 -0.436269 0)
(0.163825 -0.419207 0)
(0.192385 -0.406275 0)
(0.22178 -0.396903 0)
(0.251896 -0.390555 0)
(0.282612 -0.386763 0)
(0.313826 -0.385123 0)
(0.345454 -0.385279 0)
(0.377438 -0.386919 0)
(0.409743 -0.389762 0)
(0.442354 -0.39355 0)
(0.475274 -0.398038 0)
(0.508523 -0.402985 0)
(0.542127 -0.408147 0)
(0.576115 -0.413261 0)
(0.610511 -0.41804 0)
(0.645324 -0.42216 0)
(0.680542 -0.425252 0)
(0.716115 -0.426897 0)
(0.751956 -0.426619 0)
(0.787928 -0.423882 0)
(0.823844 -0.418087 0)
(0.859472 -0.408571 0)
(0.894533 -0.394593 0)
(0.928715 -0.375331 0)
(0.961678 -0.349868 0)
(0.993062 -0.317175 0)
(1.0225 -0.276103 0)
(1.04962 -0.225378 0)
(1.07408 -0.163611 0)
(1.09553 -0.089327 0)
(1.11372 -0.00100848 0)
(1.12851 0.102859 0)
(1.13995 0.223699 0)
(1.14838 0.362557 0)
(1.15467 0.519584 0)
(1.16014 0.69355 0)
(1.16656 0.881124 0)
(1.17624 1.07614 0)
(1.19197 1.27115 0)
(0.0224853 -0.403407 0)
(0.0510614 -0.515994 0)
(0.0764294 -0.502902 0)
(0.100539 -0.478515 0)
(0.125588 -0.457702 0)
(0.151941 -0.441514 0)
(0.179518 -0.429403 0)
(0.208154 -0.420739 0)
(0.237669 -0.414981 0)
(0.267894 -0.411672 0)
(0.298689 -0.410424 0)
(0.329943 -0.410907 0)
(0.361577 -0.412829 0)
(0.393545 -0.41593 0)
(0.425827 -0.41997 0)
(0.458428 -0.42472 0)
(0.491371 -0.429951 0)
(0.524692 -0.435422 0)
(0.558432 -0.440872 0)
(0.592627 -0.446005 0)
(0.6273 -0.450481 0)
(0.662445 -0.453908 0)
(0.698018 -0.455833 0)
(0.733924 -0.45574 0)
(0.770012 -0.453052 0)
(0.806069 -0.447127 0)
(0.841828 -0.43726 0)
(0.876971 -0.422679 0)
(0.91114 -0.402536 0)
(0.943949 -0.375892 0)
(0.97499 -0.341708 0)
(1.00384 -0.298827 0)
(1.03008 -0.245982 0)
(1.05326 -0.181798 0)
(1.07297 -0.104837 0)
(1.08884 -0.013653 0)
(1.10062 0.0931457 0)
(1.1083 0.216784 0)
(1.11234 0.357959 0)
(1.11399 0.516205 0)
(1.11525 0.689788 0)
(1.11885 0.875117 0)
(1.1274 1.06584 0)
(1.14342 1.25492 0)
(0.0219743 -0.431879 0)
(0.047449 -0.53771 0)
(0.069385 -0.521759 0)
(0.0910984 -0.49776 0)
(0.114387 -0.478088 0)
(0.139407 -0.463079 0)
(0.165959 -0.452011 0)
(0.193791 -0.444218 0)
(0.222655 -0.439162 0)
(0.252332 -0.436411 0)
(0.282644 -0.435607 0)
(0.313454 -0.436446 0)
(0.344665 -0.438667 0)
(0.37622 -0.442037 0)
(0.408096 -0.446339 0)
(0.4403 -0.451364 0)
(0.472863 -0.456897 0)
(0.505831 -0.462707 0)
(0.539259 -0.468533 0)
(0.573198 -0.474072 0)
(0.607683 -0.478965 0)
(0.642717 -0.48279 0)
(0.678258 -0.485055 0)
(0.714199 -0.485198 0)
(0.750365 -0.482585 0)
(0.786505 -0.476523 0)
(0.8223 -0.466262 0)
(0.857374 -0.450989 0)
(0.891305 -0.429827 0)
(0.923644 -0.401817 0)
(0.953914 -0.365901 0)
(0.981617 -0.320911 0)
(1.00623 -0.265573 0)
(1.02722 -0.198508 0)
(1.04401 -0.118272 0)
(1.05604 -0.0234105 0)
(1.06282 0.0874432 0)
(1.06407 0.215135 0)
(1.06008 0.35949 0)
(1.05282 0.518664 0)
(1.04545 0.690068 0)
(1.04383 0.87085 0)
(1.05147 1.05513 0)
(1.06877 1.23702 0)
(0.021477 -0.459068 0)
(0.0434665 -0.55653 0)
(0.061715 -0.538392 0)
(0.0809704 -0.515446 0)
(0.102461 -0.497369 0)
(0.126127 -0.48386 0)
(0.151641 -0.474062 0)
(0.178652 -0.467299 0)
(0.20684 -0.463056 0)
(0.235934 -0.460935 0)
(0.265717 -0.460616 0)
(0.296027 -0.461837 0)
(0.32675 -0.46437 0)
(0.357822 -0.468017 0)
(0.389217 -0.472589 0)
(0.420946 -0.477902 0)
(0.453049 -0.48376 0)
(0.485585 -0.489941 0)
(0.518624 -0.496189 0)
(0.552234 -0.50219 0)
(0.586464 -0.507567 0)
(0.621328 -0.511862 0)
(0.656782 -0.514533 0)
(0.692704 -0.514957 0)
(0.728884 -0.512433 0)
(0.765016 -0.506203 0)
(0.800712 -0.49546 0)
(0.835515 -0.479348 0)
(0.868924 -0.456956 0)
(0.900408 -0.427302 0)
(0.929409 -0.389308 0)
(0.955338 -0.341785 0)
(0.97757 -0.28343 0)
(0.995441 -0.212808 0)
(1.00824 -0.128324 0)
(1.01512 -0.0283813 0)
(1.01505 0.0881226 0)
(1.00688 0.220477 0)
(0.990769 0.366507 0)
(0.970931 0.524441 0)
(0.953103 0.692677 0)
(0.945705 0.869271 0)
(0.955699 1.0462 0)
(0.978423 1.21863 0)
(0.0210298 -0.484809 0)
(0.0389583 -0.572054 0)
(0.0531855 -0.552619 0)
(0.0699511 -0.531495 0)
(0.0896444 -0.515514 0)
(0.111984 -0.503842 0)
(0.13649 -0.495547 0)
(0.162702 -0.48997 0)
(0.190221 -0.48664 0)
(0.218721 -0.48521 0)
(0.24795 -0.485412 0)
(0.277719 -0.487029 0)
(0.307902 -0.489882 0)
(0.338426 -0.493807 0)
(0.369267 -0.498654 0)
(0.400441 -0.504264 0)
(0.431997 -0.510465 0)
(0.464009 -0.517051 0)
(0.496565 -0.523767 0)
(0.529751 -0.530293 0)
(0.563634 -0.536227 0)
(0.59824 -0.541068 0)
(0.633523 -0.544213 0)
(0.669343 -0.544959 0)
(0.705439 -0.542521 0)
(0.741434 -0.536059 0)
(0.776847 -0.524695 0)
(0.811121 -0.507526 0)
(0.843657 -0.483611 0)
(0.873835 -0.451946 0)
(0.901012 -0.411427 0)
(0.924509 -0.360832 0)
(0.943618 -0.298795 0)
(0.957624 -0.223705 0)
(0.965641 -0.133771 0)
(0.96629 -0.0278874 0)
(0.95761 0.0931613 0)
(0.938799 0.228046 0)
(0.909513 0.377747 0)
(0.873942 0.538941 0)
(0.844212 0.703905 0)
(0.835344 0.869163 0)
(0.860357 1.03602 0)
(0.895057 1.19951 0)
(0.0204719 -0.508859 0)
(0.0335782 -0.583731 0)
(0.0434491 -0.564266 0)
(0.0577855 -0.545876 0)
(0.0757595 -0.532538 0)
(0.0968664 -0.523055 0)
(0.12045 -0.516493 0)
(0.145927 -0.512249 0)
(0.172819 -0.50992 0)
(0.200745 -0.509227 0)
(0.229414 -0.509968 0)
(0.258618 -0.511985 0)
(0.288218 -0.51515 0)
(0.318138 -0.519346 0)
(0.348353 -0.524461 0)
(0.378888 -0.530371 0)
(0.409801 -0.536929 0)
(0.441184 -0.543947 0)
(0.473141 -0.551176 0)
(0.50578 -0.558288 0)
(0.539191 -0.564853 0)
(0.573413 -0.570321 0)
(0.608403 -0.574011 0)
(0.643995 -0.575117 0)
(0.67987 -0.572742 0)
(0.715555 -0.565942 0)
(0.75045 -0.553759 0)
(0.783874 -0.535238 0)
(0.815114 -0.509417 0)
(0.843463 -0.475282 0)
(0.868215 -0.431707 0)
(0.888639 -0.377413 0)
(0.904022 -0.310913 0)
(0.913594 -0.230529 0)
(0.915715 -0.135234 0)
(0.909002 -0.0256089 0)
(0.892127 0.099607 0)
(0.860927 0.242112 0)
(0.808935 0.398037 0)
(0.748069 0.55861 0)
(0.725299 0.72114 0)
(0.724835 0.859016 0)
(0.764854 1.00615 0)
(0.831506 1.18231 0)
(0.859118 1.34325 0)
(0.0191885 -0.530651 0)
(0.0267231 -0.590916 0)
(0.0320991 -0.573258 0)
(0.044222 -0.55865 0)
(0.0606617 -0.548531 0)
(0.0807103 -0.541589 0)
(0.103518 -0.536977 0)
(0.128375 -0.53419 0)
(0.154716 -0.532925 0)
(0.18211 -0.532994 0)
(0.210234 -0.534273 0)
(0.238863 -0.536674 0)
(0.267848 -0.540129 0)
(0.29711 -0.544574 0)
(0.326631 -0.549938 0)
(0.356438 -0.556137 0)
(0.386603 -0.563053 0)
(0.417232 -0.570519 0)
(0.448448 -0.578297 0)
(0.480383 -0.58605 0)
(0.513151 -0.593321 0)
(0.546814 -0.599498 0)
(0.581337 -0.603804 0)
(0.61653 -0.605302 0)
(0.652 -0.602946 0)
(0.687152 -0.595657 0)
(0.721233 -0.582383 0)
(0.753412 -0.562126 0)
(0.782853 -0.533922 0)
(0.808781 -0.49678 0)
(0.830477 -0.449564 0)
(0.847237 -0.390909 0)
(0.858313 -0.319382 0)
(0.862258 -0.234249 0)
(0.857786 -0.135456 0)
(0.843362 -0.0200428 0)
(0.811526 0.114545 0)
(0.752457 0.278911 0)
(0.743066 0.490384 0)
(0.721421 0.639643 0)
(0.708107 0.754518 0)
(0.711175 0.837847 0)
(0.733701 0.92498 0)
(0.812239 1.11005 0)
(0.812512 1.31942 0)
(0.0159229 -0.548875 0)
(0.0175656 -0.593113 0)
(0.0188214 -0.579744 0)
(0.0291131 -0.570007 0)
(0.0443185 -0.563671 0)
(0.0635642 -0.559598 0)
(0.0857994 -0.55712 0)
(0.110185 -0.555882 0)
(0.136079 -0.555713 0)
(0.163002 -0.556537 0)
(0.190608 -0.558327 0)
(0.218659 -0.561076 0)
(0.247004 -0.56478 0)
(0.275562 -0.569431 0)
(0.304318 -0.575009 0)
(0.333307 -0.581468 0)
(0.362608 -0.588724 0)
(0.392339 -0.596636 0)
(0.422643 -0.604978 0)
(0.453674 -0.613413 0)
(0.485575 -0.621451 0)
(0.518441 -0.628417 0)
(0.552259 -0.633417 0)
(0.586821 -0.635337 0)
(0.621648 -0.632932 0)
(0.655986 -0.624951 0)
(0.688893 -0.610233 0)
(0.719353 -0.587748 0)
(0.746398 -0.556586 0)
(0.769221 -0.515851 0)
(0.787175 -0.464429 0)
(0.799588 -0.400945 0)
(0.805306 -0.324768 0)
(0.803613 -0.235848 0)
(0.791741 -0.131562 0)
(0.759131 -0.00111781 0)
(0.750874 0.194843 0)
(0.742235 0.357876 0)
(0.733322 0.50308 0)
(0.732489 0.629624 0)
(0.736954 0.741559 0)
(0.742849 0.831556 0)
(0.742788 0.909453 0)
(0.817488 1.02375 0)
(0.785727 1.32194 0)
(0.00911068 -0.56122 0)
(0.00537987 -0.590539 0)
(0.00362017 -0.584165 0)
(0.0125425 -0.580266 0)
(0.0269045 -0.57822 0)
(0.0456616 -0.577296 0)
(0.0675621 -0.577086 0)
(0.0916458 -0.57744 0)
(0.117202 -0.578353 0)
(0.143718 -0.579892 0)
(0.170834 -0.582138 0)
(0.198307 -0.585173 0)
(0.225988 -0.589064 0)
(0.253798 -0.593861 0)
(0.281721 -0.599593 0)
(0.309797 -0.60626 0)
(0.338111 -0.613813 0)
(0.366786 -0.62214 0)
(0.395977 -0.631034 0)
(0.42586 -0.64016 0)
(0.456606 -0.649008 0)
(0.488357 -0.656836 0)
(0.521149 -0.662612 0)
(0.554777 -0.664989 0)
(0.588657 -0.662446 0)
(0.621838 -0.653508 0)
(0.653135 -0.636889 0)
(0.681306 -0.611571 0)
(0.705233 -0.576794 0)
(0.724129 -0.531884 0)
(0.737511 -0.475783 0)
(0.744798 -0.407482 0)
(0.745917 -0.327229 0)
(0.738559 -0.233516 0)
(0.712512 -0.102233 0)
(0.728272 0.0511349 0)
(0.717066 0.192029 0)
(0.71206 0.328846 0)
(0.716018 0.471341 0)
(0.728502 0.605375 0)
(0.745776 0.725339 0)
(0.762163 0.827908 0)
(0.76343 0.91805 0)
(0.806438 1.0224 0)
(0.745654 1.35414 0)
(-0.00195014 -0.564164 0)
(-0.00969191 -0.584764 0)
(-0.0129628 -0.587238 0)
(-0.00505403 -0.589855 0)
(0.00890853 -0.592516 0)
(0.0275126 -0.594943 0)
(0.0493131 -0.597064 0)
(0.0732465 -0.598987 0)
(0.0985525 -0.600921 0)
(0.124703 -0.603093 0)
(0.15134 -0.605711 0)
(0.178225 -0.608948 0)
(0.205214 -0.612943 0)
(0.23223 -0.617804 0)
(0.259256 -0.623611 0)
(0.286329 -0.630406 0)
(0.313532 -0.638181 0)
(0.340985 -0.646854 0)
(0.368845 -0.656243 0)
(0.397296 -0.666026 0)
(0.426535 -0.675683 0)
(0.456761 -0.684424 0)
(0.488104 -0.691068 0)
(0.520402 -0.693951 0)
(0.552954 -0.691165 0)
(0.584556 -0.680934 0)
(0.613705 -0.66185 0)
(0.638863 -0.632993 0)
(0.658782 -0.593904 0)
(0.672885 -0.544133 0)
(0.681214 -0.483052 0)
(0.684303 -0.410897 0)
(0.6817 -0.3268 0)
(0.686103 -0.200038 0)
(0.680561 -0.0819182 0)
(0.66798 0.0369722 0)
(0.656348 0.173936 0)
(0.653731 0.316363 0)
(0.660386 0.457612 0)
(0.676696 0.589161 0)
(0.700063 0.707028 0)
(0.725544 0.812246 0)
(0.738653 0.916362 0)
(0.766846 1.05104 0)
(0.721302 1.37348 0)
(-0.0155583 -0.553509 0)
(-0.0258541 -0.577934 0)
(-0.0298519 -0.589505 0)
(-0.0226633 -0.599191 0)
(-0.00870778 -0.60688 0)
(0.0100222 -0.612764 0)
(0.0318857 -0.617195 0)
(0.0557459 -0.620605 0)
(0.0808212 -0.623452 0)
(0.106592 -0.626149 0)
(0.132718 -0.629034 0)
(0.158977 -0.632375 0)
(0.185233 -0.636378 0)
(0.211408 -0.641205 0)
(0.237478 -0.646986 0)
(0.263471 -0.653805 0)
(0.289455 -0.66169 0)
(0.315537 -0.67059 0)
(0.341852 -0.680354 0)
(0.368575 -0.690686 0)
(0.395905 -0.701078 0)
(0.424099 -0.710738 0)
(0.453445 -0.718354 0)
(0.483899 -0.721821 0)
(0.51464 -0.71867 0)
(0.544111 -0.706742 0)
(0.570374 -0.684526 0)
(0.591561 -0.651368 0)
(0.606629 -0.606988 0)
(0.615958 -0.55166 0)
(0.620303 -0.486817 0)
(0.620569 -0.411911 0)
(0.621549 -0.318163 0)
(0.61823 -0.202025 0)
(0.602715 -0.086051 0)
(0.584912 0.0415252 0)
(0.570595 0.179011 0)
(0.564635 0.317113 0)
(0.56899 0.450096 0)
(0.584232 0.572751 0)
(0.608668 0.683902 0)
(0.638408 0.788048 0)
(0.659128 0.902268 0)
(0.681162 1.07523 0)
(0.713017 1.37349 0)
(-0.0278972 -0.529874 0)
(-0.0397753 -0.568363 0)
(-0.0450223 -0.590732 0)
(-0.038352 -0.608418 0)
(-0.0242481 -0.621498 0)
(-0.00534813 -0.630859 0)
(0.0165409 -0.63749 0)
(0.0402349 -0.642242 0)
(0.0649646 -0.645861 0)
(0.090239 -0.648964 0)
(0.11575 -0.652018 0)
(0.1413 -0.655371 0)
(0.166756 -0.659291 0)
(0.192039 -0.663986 0)
(0.217106 -0.669628 0)
(0.241967 -0.676344 0)
(0.266668 -0.684192 0)
(0.291277 -0.693148 0)
(0.315891 -0.703092 0)
(0.340636 -0.713762 0)
(0.365661 -0.724694 0)
(0.391244 -0.735194 0)
(0.417909 -0.743899 0)
(0.445859 -0.748085 0)
(0.474129 -0.744437 0)
(0.500665 -0.730315 0)
(0.522987 -0.704193 0)
(0.539228 -0.665544 0)
(0.549668 -0.614976 0)
(0.55545 -0.555542 0)
(0.557611 -0.489075 0)
(0.55851 -0.409512 0)
(0.551422 -0.30996 0)
(0.530658 -0.195606 0)
(0.507016 -0.0716031 0)
(0.483952 0.0588116 0)
(0.465261 0.191465 0)
(0.455086 0.320861 0)
(0.455831 0.443155 0)
(0.468415 0.555812 0)
(0.491609 0.659475 0)
(0.521684 0.761544 0)
(0.55038 0.882833 0)
(0.569684 1.07188 0)
(0.678953 1.36548 0)
(-0.034228 -0.496719 0)
(-0.0464342 -0.556217 0)
(-0.0544252 -0.590659 0)
(-0.0489905 -0.617571 0)
(-0.0351101 -0.636489 0)
(-0.0164205 -0.649316 0)
(0.00508427 -0.657955 0)
(0.0282242 -0.663828 0)
(0.0522651 -0.668035 0)
(0.0767609 -0.671407 0)
(0.101439 -0.67453 0)
(0.126119 -0.677818 0)
(0.150673 -0.681581 0)
(0.175001 -0.68606 0)
(0.199036 -0.691458 0)
(0.222758 -0.697948 0)
(0.246181 -0.705607 0)
(0.269321 -0.714425 0)
(0.292206 -0.72431 0)
(0.314877 -0.735025 0)
(0.337327 -0.746153 0)
(0.359762 -0.757245 0)
(0.382977 -0.767107 0)
(0.407557 -0.772149 0)
(0.432388 -0.767783 0)
(0.4548 -0.750801 0)
(0.472034 -0.719435 0)
(0.483504 -0.674263 0)
(0.49014 -0.619641 0)
(0.494147 -0.559253 0)
(0.496059 -0.490997 0)
(0.48845 -0.398924 0)
(0.463776 -0.293264 0)
(0.43317 -0.173524 0)
(0.402379 -0.0470585 0)
(0.373835 0.0808913 0)
(0.350912 0.206675 0)
(0.336953 0.326764 0)
(0.334127 0.438612 0)
(0.343369 0.540981 0)
(0.364403 0.635784 0)
(0.394604 0.73209 0)
(0.43138 0.852812 0)
(0.473415 1.04063 0)
(0.631626 1.32841 0)
(-0.0197288 -0.467945 0)
(-0.0360979 -0.544936 0)
(-0.0523414 -0.591445 0)
(-0.0505389 -0.627495 0)
(-0.0380083 -0.651835 0)
(-0.0204351 -0.667891 0)
(-0.00016574 -0.678456 0)
(0.021644 -0.68538 0)
(0.0443607 -0.690083 0)
(0.067583 -0.693632 0)
(0.0910509 -0.696753 0)
(0.114588 -0.699923 0)
(0.138058 -0.703485 0)
(0.161336 -0.707696 0)
(0.184311 -0.712788 0)
(0.206926 -0.718981 0)
(0.229161 -0.726358 0)
(0.250971 -0.734897 0)
(0.272308 -0.744514 0)
(0.293094 -0.754955 0)
(0.313073 -0.765733 0)
(0.332279 -0.776676 0)
(0.351469 -0.787289 0)
(0.371519 -0.793034 0)
(0.391464 -0.787429 0)
(0.408274 -0.766357 0)
(0.420118 -0.728816 0)
(0.427258 -0.679828 0)
(0.432016 -0.624956 0)
(0.43705 -0.564631 0)
(0.429475 -0.47943 0)
(0.403727 -0.379104 0)
(0.369127 -0.265094 0)
(0.331681 -0.142419 0)
(0.295205 -0.0172093 0)
(0.262392 0.106316 0)
(0.236114 0.224945 0)
(0.218887 0.335936 0)
(0.212431 0.43741 0)
(0.217739 0.528968 0)
(0.235281 0.613176 0)
(0.264651 0.698788 0)
(0.30579 0.808161 0)
(0.365037 0.98131 0)
(0.528775 1.2754 0)