/*--------------------------------*- C++ -*----------------------------------*\
| =========                 |                                                 |
| \\      /  F ield         | OpenFOAM: The Open Source CFD Toolbox           |
|  \\    /   O peration     | Version:  5.0                                   |
|   \\  /    A nd           | Web:      www.OpenFOAM.org                      |
|    \\/     M anipulation  |                                                 |
\*---------------------------------------------------------------------------*/
FoamFile
{
    version     2.0;
    format      ascii;
    class       surfaceScalarField;
    location    "0.75";
    object      alphaPhi10;
}
// * * * * * * * * * * * * * * * * * * * * * * * * * * * * * * * * * * * * * //

dimensions      [0 3 -1 0 0 0 0];

internalField   nonuniform List<scalar> 
3781
(
-2.09075e-06
2.09075e-06
-3.97708e-06
1.88633e-06
-4.90636e-06
9.29282e-07
-5.00841e-06
1.02047e-07
-4.69571e-06
-3.12692e-07
-4.23558e-06
-4.6013e-07
-3.76831e-06
-4.67278e-07
-3.36362e-06
-4.04687e-07
-3.05154e-06
-3.12082e-07
-2.83964e-06
-2.11895e-07
-2.7233e-06
-1.16337e-07
-2.69079e-06
-3.25188e-08
-2.72863e-06
3.78491e-08
-2.82746e-06
9.88209e-08
-2.97373e-06
1.46269e-07
-3.15844e-06
1.84716e-07
-3.37489e-06
2.16448e-07
-3.61752e-06
2.42629e-07
-3.88142e-06
2.639e-07
-4.16226e-06
2.80841e-07
-4.45641e-06
2.94148e-07
-4.76087e-06
3.04462e-07
-5.07296e-06
3.12087e-07
-5.39015e-06
3.17189e-07
-5.71036e-06
3.20212e-07
-6.03142e-06
3.21064e-07
-6.352e-06
3.20579e-07
-6.67125e-06
3.19248e-07
-6.98919e-06
3.1794e-07
-7.30693e-06
3.17745e-07
-7.62669e-06
3.1976e-07
-7.95182e-06
3.25128e-07
-8.28644e-06
3.34617e-07
-8.63411e-06
3.47676e-07
-8.9956e-06
3.61481e-07
-9.36682e-06
3.71222e-07
-9.74475e-06
3.77933e-07
-1.00459e-05
3.97534e-07
-1.0345e-05
4.60357e-07
-1.09633e-05
3.60226e-07
-1.08232e-05
-1.40107e-07
-1.01086e-05
-7.03388e-07
-8.76929e-06
-1.31154e-06
-2.15301e-06
-2.04126e-06
4.13202e-06
-2.9426e-06
2.78767e-06
-3.16683e-06
1.15351e-06
-3.11595e-06
5.11652e-08
-2.89286e-06
-5.35776e-07
-2.61475e-06
-7.38243e-07
-2.34869e-06
-7.33339e-07
-2.13527e-06
-6.18113e-07
-1.99425e-06
-4.53103e-07
-1.9316e-06
-2.74537e-07
-1.94425e-06
-1.03694e-07
-2.02648e-06
4.97119e-08
-2.16655e-06
1.77927e-07
-2.35224e-06
2.84503e-07
-2.57612e-06
3.70154e-07
-2.8307e-06
4.39288e-07
-3.10999e-06
4.95739e-07
-3.40915e-06
5.41797e-07
-3.72409e-06
5.7884e-07
-4.05126e-06
6.08008e-07
-4.3876e-06
6.30491e-07
-4.73046e-06
6.47317e-07
-5.07741e-06
6.59037e-07
-5.42602e-06
6.65797e-07
-5.77359e-06
6.67784e-07
-6.11773e-06
6.65205e-07
-6.45573e-06
6.58583e-07
-6.78494e-06
6.48456e-07
-7.10268e-06
6.35682e-07
-7.40632e-06
6.21384e-07
-7.69325e-06
6.06685e-07
-7.96048e-06
5.92361e-07
-8.20421e-06
5.78346e-07
-8.41932e-06
5.62786e-07
-8.59887e-06
5.41029e-07
-8.73365e-06
5.06003e-07
-8.80914e-06
4.53427e-07
-8.76854e-06
3.84844e-07
-8.42451e-06
2.81378e-07
-8.16721e-06
-1.82076e-08
-7.69532e-06
-6.21144e-07
-7.01454e-06
-1.28923e-06
-6.13368e-06
-2.08325e-06
-3.24714e-06
-1.42104e-06
5.55306e-06
-1.7815e-06
3.14813e-06
-1.82134e-06
1.19335e-06
-1.73562e-06
-3.45561e-08
-1.60921e-06
-6.6218e-07
-1.46907e-06
-8.78383e-07
-1.354e-06
-8.48419e-07
-1.28668e-06
-6.85425e-07
-1.27832e-06
-4.61461e-07
-1.33212e-06
-2.20738e-07
-1.44578e-06
9.96233e-09
-1.6115e-06
2.15428e-07
-1.82259e-06
3.89023e-07
-2.06955e-06
5.31462e-07
-2.34546e-06
6.46058e-07
-2.64458e-06
7.38417e-07
-2.96228e-06
8.13432e-07
-3.29464e-06
8.74156e-07
-3.63822e-06
9.22425e-07
-3.99e-06
9.5979e-07
-4.34731e-06
9.87798e-07
-4.70774e-06
1.00775e-06
-5.06899e-06
1.02028e-06
-5.42855e-06
1.02536e-06
-5.78362e-06
1.02286e-06
-6.13114e-06
1.01272e-06
-6.46756e-06
9.94995e-07
-6.78882e-06
9.69716e-07
-7.09031e-06
9.37176e-07
-7.36682e-06
8.97896e-07
-7.61238e-06
8.52244e-07
-7.81999e-06
7.9997e-07
-7.98132e-06
7.39675e-07
-8.08653e-06
6.67996e-07
-8.12432e-06
5.78816e-07
-8.0817e-06
4.63383e-07
-7.94077e-06
3.12505e-07
-7.67214e-06
1.16333e-07
-7.22985e-06
-1.59946e-07
-6.63685e-06
-6.0844e-07
-5.83785e-06
-1.27415e-06
-5.10983e-06
-2.02819e-06
-4.32062e-06
-2.88339e-06
-4.13357e-06
-7.10446e-07
6.2635e-06
-7.69159e-07
3.20684e-06
-6.8901e-07
1.1132e-06
-6.06573e-07
-1.16993e-07
-5.48516e-07
-7.20236e-07
-5.2201e-07
-9.04889e-07
-5.35544e-07
-8.34885e-07
-5.94949e-07
-6.26021e-07
-7.02773e-07
-3.53637e-07
-8.59091e-07
-6.44194e-08
-1.06065e-06
2.11523e-07
-1.30164e-06
4.56419e-07
-1.57567e-06
6.63051e-07
-1.8758e-06
8.31588e-07
-2.19649e-06
9.66755e-07
-2.53355e-06
1.07548e-06
-2.88363e-06
1.16351e-06
-3.24368e-06
1.23421e-06
-3.61084e-06
1.28958e-06
-3.98247e-06
1.33142e-06
-4.3562e-06
1.36152e-06
-4.72986e-06
1.38141e-06
-5.10124e-06
1.39166e-06
-5.46778e-06
1.39191e-06
-5.82647e-06
1.38155e-06
-6.17379e-06
1.36005e-06
-6.50555e-06
1.32675e-06
-6.81667e-06
1.28084e-06
-7.10117e-06
1.22167e-06
-7.35206e-06
1.14879e-06
-7.56123e-06
1.06142e-06
-7.71922e-06
9.57953e-07
-7.81508e-06
8.35533e-07
-7.83647e-06
6.89386e-07
-7.76993e-06
5.12279e-07
-7.60108e-06
2.94533e-07
-7.31348e-06
2.49068e-08
-6.8864e-06
-3.10751e-07
-6.30644e-06
-7.399e-07
-5.60135e-06
-1.31353e-06
-4.82573e-06
-2.04977e-06
-3.9184e-06
-2.89085e-06
-3.00074e-06
-3.85467e-06
-5.08099e-06
1.16236e-08
6.25188e-06
1.77292e-07
3.04117e-06
3.1934e-07
9.71148e-07
3.80966e-07
-1.78619e-07
3.64751e-07
-7.04021e-07
2.85616e-07
-8.25753e-07
1.55256e-07
-7.04526e-07
-1.84579e-08
-4.52306e-07
-2.30719e-07
-1.41375e-07
-4.79031e-07
1.83892e-07
-7.59878e-07
4.9237e-07
-1.06843e-06
7.6497e-07
-1.39918e-06
9.93804e-07
-1.74681e-06
1.17922e-06
-2.1073e-06
1.32724e-06
-2.478e-06
1.44617e-06
-2.85677e-06
1.54228e-06
-3.24134e-06
1.61877e-06
-3.62924e-06
1.67748e-06
-4.01812e-06
1.7203e-06
-4.4058e-06
1.7492e-06
-4.79034e-06
1.76595e-06
-5.16967e-06
1.77099e-06
-5.54114e-06
1.76338e-06
-5.90151e-06
1.74192e-06
-6.24697e-06
1.7055e-06
-6.57283e-06
1.65261e-06
-6.87331e-06
1.58131e-06
-7.14138e-06
1.48975e-06
-7.3689e-06
1.37632e-06
-7.54642e-06
1.23893e-06
-7.66299e-06
1.07453e-06
-7.70629e-06
8.78832e-07
-7.66284e-06
6.45937e-07
-7.51856e-06
3.67996e-07
-7.25942e-06
3.53891e-08
-6.87193e-06
-3.62583e-07
-6.34464e-06
-8.38044e-07
-5.67597e-06
-1.40857e-06
-4.89141e-06
-2.0981e-06
-4.03269e-06
-2.90849e-06
-3.1158e-06
-3.80775e-06
-2.15392e-06
-4.81655e-06
-6.07638e-06
7.1748e-07
5.5344e-06
1.04009e-06
2.71856e-06
1.21641e-06
7.94821e-07
1.23679e-06
-1.99001e-07
1.13783e-06
-6.05052e-07
9.55578e-07
-6.43506e-07
7.17014e-07
-4.65962e-07
4.39938e-07
-1.7523e-07
1.35275e-07
1.63288e-07
-1.93722e-07
5.1289e-07
-5.4395e-07
8.42598e-07
-9.11311e-07
1.13233e-06
-1.29148e-06
1.37398e-06
-1.68044e-06
1.56818e-06
-2.07557e-06
1.72237e-06
-2.47568e-06
1.84628e-06
-2.87975e-06
1.94636e-06
-3.28601e-06
2.02503e-06
-3.69223e-06
2.0837e-06
-4.09617e-06
2.12424e-06
-4.49572e-06
2.14876e-06
-4.88919e-06
2.15942e-06
-5.27469e-06
2.15649e-06
-5.64943e-06
2.13811e-06
-6.00997e-06
2.10246e-06
-6.35231e-06
2.04785e-06
-6.6715e-06
1.9718e-06
-6.96123e-06
1.87104e-06
-7.21379e-06
1.74231e-06
-7.42034e-06
1.58286e-06
-7.57069e-06
1.38929e-06
-7.65319e-06
1.15702e-06
-7.65491e-06
8.80551e-07
-7.56212e-06
5.53154e-07
-7.36101e-06
1.66886e-07
-7.0387e-06
-2.86929e-07
-6.58457e-06
-8.16709e-07
-5.99255e-06
-1.43006e-06
-5.2666e-06
-2.13451e-06
-4.42898e-06
-2.93572e-06
-3.51324e-06
-3.82422e-06
-2.54677e-06
-4.77423e-06
-1.5736e-06
-5.78972e-06
-6.95407e-06
1.22722e-06
4.30718e-06
1.77849e-06
2.1673e-06
1.97414e-06
5.99173e-07
1.9372e-06
-1.62061e-07
1.75087e-06
-4.1872e-07
1.46985e-06
-3.62491e-07
1.1332e-06
-1.29305e-07
7.65179e-07
1.92787e-07
3.82472e-07
5.45995e-07
-1.37839e-08
9.09146e-07
-4.21096e-07
1.24991e-06
-8.36359e-07
1.54759e-06
-1.2567e-06
1.79432e-06
-1.67937e-06
1.99085e-06
-2.10304e-06
2.14604e-06
-2.52772e-06
2.27096e-06
-2.95333e-06
2.37196e-06
-3.37825e-06
2.44995e-06
-3.80023e-06
2.50568e-06
-4.21694e-06
2.54095e-06
-4.62617e-06
2.55799e-06
-5.02652e-06
2.55977e-06
-5.41634e-06
2.54631e-06
-5.79262e-06
2.51439e-06
-6.15172e-06
2.46155e-06
-6.48962e-06
2.38575e-06
-6.80133e-06
2.28352e-06
-7.08023e-06
2.14994e-06
-7.31814e-06
1.98022e-06
-7.50595e-06
1.77067e-06
-7.63329e-06
1.51662e-06
-7.68827e-06
1.21201e-06
-7.65797e-06
8.50252e-07
-7.52891e-06
4.24091e-07
-7.28789e-06
-7.41346e-08
-6.92322e-06
-6.51598e-07
-6.42627e-06
-1.31366e-06
-5.79381e-06
-2.06253e-06
-5.03197e-06
-2.89635e-06
-4.16064e-06
-3.80705e-06
-3.21039e-06
-4.77447e-06
-2.21652e-06
-5.7681e-06
-1.23465e-06
-6.77159e-06
-7.81484e-06
1.62556e-06
2.68161e-06
2.35868e-06
1.43418e-06
2.55205e-06
4.05802e-07
2.44868e-06
-5.8682e-08
2.17773e-06
-1.47771e-07
1.80637e-06
8.86312e-09
1.38277e-06
2.94291e-07
9.42235e-07
6.33327e-07
4.95898e-07
9.92332e-07
4.74516e-08
1.35759e-06
-4.01857e-07
1.69922e-06
-8.51141e-07
1.99688e-06
-1.3e-06
2.24318e-06
-1.74702e-06
2.43787e-06
-2.19187e-06
2.59088e-06
-2.63545e-06
2.71455e-06
-3.07813e-06
2.81464e-06
-3.51806e-06
2.88988e-06
-3.95281e-06
2.94043e-06
-4.37959e-06
2.96773e-06
-4.79591e-06
2.9743e-06
-5.20076e-06
2.96462e-06
-5.59285e-06
2.9384e-06
-5.96866e-06
2.89021e-06
-6.32436e-06
2.81725e-06
-6.65617e-06
2.71756e-06
-6.95931e-06
2.58666e-06
-7.22703e-06
2.41766e-06
-7.45086e-06
2.20405e-06
-7.62179e-06
1.9416e-06
-7.72975e-06
1.62458e-06
-7.76304e-06
1.2453e-06
-7.70905e-06
7.96261e-07
-7.55481e-06
2.6985e-07
-7.2878e-06
-3.41147e-07
-6.89711e-06
-1.04229e-06
-6.375e-06
-1.83577e-06
-5.71912e-06
-2.7184e-06
-4.93567e-06
-3.67979e-06
-4.04248e-06
-4.70024e-06
-3.06885e-06
-5.7481e-06
-2.05485e-06
-6.7821e-06
-1.06286e-06
-7.76357e-06
-8.6722e-06
1.89067e-06
5.60128e-07
2.67335e-06
4.6341e-07
2.8303e-06
1.74235e-07
2.68072e-06
6.79755e-08
2.34855e-06
1.43632e-07
1.92073e-06
3.43206e-07
1.44671e-06
6.10471e-07
9.49745e-07
9.19469e-07
4.57713e-07
1.48436e-06
-2.47389e-08
1.84004e-06
-4.96244e-07
2.17072e-06
-9.61062e-07
2.4617e-06
-1.4242e-06
2.70633e-06
-1.88516e-06
2.89882e-06
-2.3435e-06
3.04922e-06
-2.80008e-06
3.17113e-06
-3.25455e-06
3.26911e-06
-3.70489e-06
3.34023e-06
-4.1484e-06
3.38394e-06
-4.58182e-06
3.40116e-06
-5.00185e-06
3.39433e-06
-5.40823e-06
3.371e-06
-5.80007e-06
3.33024e-06
-6.17297e-06
3.2631e-06
-6.52279e-06
3.16708e-06
-6.84633e-06
3.04109e-06
-7.13936e-06
2.87969e-06
-7.39515e-06
2.67346e-06
-7.60492e-06
2.41382e-06
-7.76027e-06
2.09695e-06
-7.8519e-06
1.71622e-06
-7.86852e-06
1.26191e-06
-7.79808e-06
7.25823e-07
-7.62823e-06
1.00004e-07
-7.347e-06
-6.22385e-07
-6.94367e-06
-1.44562e-06
-6.41026e-06
-2.36918e-06
-5.74355e-06
-3.38512e-06
-4.94779e-06
-4.47555e-06
-4.03773e-06
-5.61029e-06
-3.04042e-06
-6.74541e-06
-1.99743e-06
-7.8251e-06
-9.74994e-07
-8.78601e-06
-9.5531e-06
5.6957e-07
8.16607e-18
9.89683e-07
7.67016e-19
1.10881e-06
2.12633e-10
1.05356e-06
9.59804e-10
9.35769e-07
1.14589e-11
8.05077e-07
1.0249e-09
6.55028e-07
3.00878e-08
4.53697e-07
1.06831e-07
1.75828e-07
2.81987e-07
-1.63498e-07
5.60133e-07
-5.54713e-07
9.36581e-07
-1.01739e-06
1.41507e-06
-1.55156e-06
1.95966e-06
-2.0853e-06
2.50843e-06
-2.55716e-06
3.52107e-06
-3.02018e-06
3.63416e-06
-3.48065e-06
3.72958e-06
-3.93669e-06
3.79626e-06
-4.38421e-06
3.83145e-06
-4.82071e-06
3.83766e-06
-5.23976e-06
3.81338e-06
-5.64337e-06
3.77462e-06
-6.03163e-06
3.7185e-06
-6.39832e-06
3.62979e-06
-6.73895e-06
3.50771e-06
-7.05125e-06
3.35339e-06
-7.33202e-06
3.16046e-06
-7.57461e-06
2.91605e-06
-7.76966e-06
2.60886e-06
-7.90996e-06
2.23726e-06
-7.98761e-06
1.79387e-06
-7.99179e-06
1.26609e-06
-7.9112e-06
6.45234e-07
-7.73419e-06
-7.69991e-08
-7.44915e-06
-9.07426e-07
-7.04504e-06
-1.84973e-06
-6.51255e-06
-2.90167e-06
-5.8459e-06
-4.05176e-06
-5.04524e-06
-5.27621e-06
-4.11971e-06
-6.53583e-06
-3.09019e-06
-7.77493e-06
-1.99227e-06
-8.92302e-06
-8.82791e-07
-9.89548e-06
-1.05736e-05
-1.42148e-17
2.77737e-17
-1.20326e-17
6.52224e-18
2.12635e-10
8.33232e-19
1.08137e-09
9.45642e-13
9.89309e-10
3.18898e-12
1.25014e-09
6.77675e-12
2.0826e-09
9.75052e-12
2.69372e-09
1.14273e-11
-1.55788e-09
-2.09266e-11
-2.81194e-08
-2.60399e-10
-9.79895e-08
-7.76392e-10
-2.34723e-07
-1.58946e-09
-4.7086e-07
-2.2435e-09
-9.11463e-07
-5.80602e-09
-1.62062e-06
3.34964e-07
-2.50325e-06
1.08902e-06
-3.43612e-06
2.00908e-06
-4.27397e-06
2.87315e-06
-4.74136e-06
4.29884e-06
-5.18408e-06
4.28038e-06
-5.60392e-06
4.23321e-06
-6.00625e-06
4.17695e-06
-6.39435e-06
4.1066e-06
-6.75652e-06
3.99197e-06
-7.08858e-06
3.83976e-06
-7.3905e-06
3.65531e-06
-7.66055e-06
3.43051e-06
-7.89188e-06
3.14738e-06
-8.07363e-06
2.79061e-06
-8.20066e-06
2.36429e-06
-8.26706e-06
1.86026e-06
-8.26205e-06
1.26108e-06
-8.17522e-06
5.58402e-07
-7.99559e-06
-2.56635e-07
-7.71164e-06
-1.19138e-06
-7.31142e-06
-2.24994e-06
-6.78332e-06
-3.42978e-06
-6.11744e-06
-4.71764e-06
-5.30767e-06
-6.08598e-06
-4.35473e-06
-7.48877e-06
-3.26865e-06
-8.86101e-06
-2.06905e-06
-1.01226e-05
-7.81408e-07
-1.11831e-05
-1.19311e-05
-4.60487e-18
2.62034e-17
-1.09769e-17
1.08815e-17
-1.00665e-17
2.15007e-18
1.02e-12
1.02979e-15
3.75414e-12
1.77957e-14
9.33545e-12
7.49627e-14
1.5968e-11
2.73388e-13
1.87604e-11
8.80474e-13
-2.51625e-11
1.99426e-12
-3.43561e-10
1.99389e-12
-1.24562e-09
3.0022e-12
-3.06777e-09
2.60549e-12
-5.70384e-09
-3.73105e-12
-1.2139e-08
-5.13883e-11
-5.88557e-08
-9.51475e-10
-2.32036e-07
-2.98362e-09
-6.01242e-07
-5.6566e-09
-1.31565e-06
-8.34568e-09
-2.63142e-06
1.87545e-07
-4.23391e-06
1.23938e-06
-5.71021e-06
2.49189e-06
-6.33685e-06
3.48154e-06
-6.71997e-06
4.48971e-06
-7.06715e-06
4.33915e-06
-7.37918e-06
4.1518e-06
-7.66165e-06
3.93778e-06
-7.91345e-06
3.68231e-06
-8.12749e-06
3.36141e-06
-8.2905e-06
2.95362e-06
-8.40102e-06
2.47481e-06
-8.45614e-06
1.91538e-06
-8.44447e-06
1.24941e-06
-8.35704e-06
4.70979e-07
-8.18399e-06
-4.29691e-07
-7.91425e-06
-1.46111e-06
-7.53506e-06
-2.62914e-06
-7.03213e-06
-3.93271e-06
-6.39076e-06
-5.359e-06
-5.59729e-06
-6.87945e-06
-4.64266e-06
-8.44341e-06
-3.5254e-06
-9.97827e-06
-2.25013e-06
-1.13979e-05
-8.16339e-07
-1.26169e-05
-1.35606e-05
3.45862e-18
1.57834e-17
-3.89776e-19
9.08392e-18
-2.31462e-18
2.11333e-18
1.09271e-15
1.77054e-17
1.28838e-14
6.42866e-15
4.78211e-14
4.08912e-14
1.39645e-13
1.75454e-13
3.27135e-13
6.93654e-13
6.65893e-13
8.67638e-13
1.77117e-12
1.58175e-13
2.64191e-12
4.03884e-13
8.90541e-13
8.10187e-13
-1.10246e-11
3.10726e-13
-7.86394e-11
5.08429e-13
-1.09313e-09
1.6042e-12
-4.26194e-09
-7.90469e-13
-1.02772e-08
-1.63604e-11
-1.92484e-08
-6.95527e-11
-7.0927e-08
-1.56548e-09
-4.04227e-07
-6.55439e-09
-1.12127e-06
-9.71371e-09
-2.68512e-06
-2.90152e-08
-4.93508e-06
8.46156e-07
-6.93688e-06
2.27115e-06
-7.64779e-06
3.32306e-06
-7.90293e-06
4.19292e-06
-8.12902e-06
3.9084e-06
-8.32013e-06
3.55253e-06
-8.4584e-06
3.09189e-06
-8.54866e-06
2.56507e-06
-8.59239e-06
1.95911e-06
-8.5757e-06
1.23272e-06
-8.49197e-06
3.8725e-07
-8.33298e-06
-5.88687e-07
-8.08881e-06
-1.70528e-06
-7.7463e-06
-2.97164e-06
-7.28881e-06
-4.3902e-06
-6.69705e-06
-5.95077e-06
-5.94959e-06
-7.62691e-06
-5.02819e-06
-9.36481e-06
-3.92377e-06
-1.10827e-05
-2.63792e-06
-1.26837e-05
-1.17397e-06
-1.40809e-05
-1.52255e-05
1.55288e-18
8.53698e-18
4.95779e-19
4.73545e-18
-2.15537e-19
1.20279e-18
-9.03795e-19
2.91153e-19
-1.68841e-15
-7.39027e-16
-6.97509e-15
-6.23902e-15
-1.60617e-14
-1.88581e-14
-2.13735e-14
-2.95283e-14
1.75646e-14
1.50384e-14
7.55866e-14
1.00181e-13
1.68048e-13
3.11317e-13
1.89263e-13
7.89457e-13
2.9941e-13
7.48461e-14
4.43302e-13
9.28776e-14
5.11162e-13
3.43297e-13
-5.02195e-12
8.38829e-13
-3.01391e-11
3.49901e-13
-1.17942e-10
4.11368e-13
-1.743e-09
-6.36875e-13
-8.53012e-09
-1.264e-11
-1.86613e-08
-5.25362e-11
-4.81516e-08
-6.19155e-10
-3.03638e-07
-6.43094e-09
-1.19934e-06
-1.20368e-08
-3.33194e-06
-3.8974e-08
-6.0751e-06
9.50385e-07
-7.99723e-06
2.24757e-06
-8.44346e-06
2.90246e-06
-8.54253e-06
3.19096e-06
-8.60628e-06
2.62882e-06
-8.63874e-06
1.99157e-06
-8.61713e-06
1.21112e-06
-8.54008e-06
3.10204e-07
-8.40196e-06
-7.2681e-07
-8.19488e-06
-1.91236e-06
-7.90631e-06
-3.26021e-06
-7.51833e-06
-4.77819e-06
-7.00836e-06
-6.46074e-06
-6.34751e-06
-8.28775e-06
-5.5088e-06
-1.02035e-05
-4.47871e-06
-1.21128e-05
-3.2659e-06
-1.38966e-05
-1.90052e-06
-1.54463e-05
-1.67151e-05
9.12214e-19
3.88792e-18
3.059e-19
2.02806e-18
1.42165e-20
5.42244e-19
-2.93552e-19
2.05524e-19
-9.42868e-16
2.11548e-17
-4.62172e-15
-2.39693e-15
-1.30865e-14
-1.05422e-14
-2.72247e-14
-2.67885e-14
-4.40269e-14
-4.89173e-14
-5.32689e-14
-6.5368e-14
-5.00819e-14
-6.89395e-14
-2.57215e-14
-4.10897e-14
2.23864e-14
2.68065e-14
4.0524e-14
7.253e-14
1.02828e-13
2.81435e-13
2.21319e-13
3.05835e-13
3.19892e-13
8.1218e-14
1.77222e-13
1.92303e-13
-2.37978e-12
5.74643e-13
-2.3003e-11
2.649e-12
-9.274e-11
5.72213e-12
-7.36638e-10
-7.47843e-13
-7.30586e-09
-1.35734e-11
-1.96257e-08
-5.92575e-11
-5.86506e-08
-8.21311e-10
-3.88139e-07
-6.93414e-09
-1.47989e-06
-1.24376e-08
-4.43331e-06
4.71029e-08
-7.45128e-06
1.11924e-06
-8.53695e-06
1.82498e-06
-8.55588e-06
2.0105e-06
-8.52055e-06
1.17578e-06
-8.45181e-06
2.41466e-07
-8.34035e-06
-8.38267e-07
-8.1809e-06
-2.07182e-06
-7.96357e-06
-3.47754e-06
-7.67109e-06
-5.07067e-06
-7.28042e-06
-6.85141e-06
-6.75558e-06
-8.81258e-06
-6.05971e-06
-1.08994e-05
-5.17365e-06
-1.29988e-05
-4.1147e-06
-1.49555e-05
-2.94892e-06
-1.6612e-05
-1.78968e-05
3.02761e-19
1.56298e-18
8.59341e-20
7.21194e-19
-1.27391e-20
2.08151e-19
-1.15126e-19
9.49443e-20
-3.43959e-16
3.64333e-17
-1.75385e-15
-2.13839e-16
-5.20974e-15
-2.4014e-15
-1.15489e-14
-7.64088e-15
-2.07636e-14
-1.65341e-14
-3.09286e-14
-2.79383e-14
-3.93829e-14
-3.99052e-14
-4.34897e-14
-4.9781e-14
-4.10427e-14
-5.33723e-14
-3.65974e-14
-5.36634e-14
-3.05101e-14
-5.00169e-14
1.56641e-14
1.64852e-14
3.60646e-14
6.09295e-14
7.47457e-14
1.53735e-13
1.86967e-13
4.62256e-13
5.41e-13
2.29484e-12
1.49289e-13
6.11285e-12
-1.85697e-12
5.96112e-13
-2.11223e-11
1.88871e-12
-9.35773e-11
5.05544e-12
-9.30247e-10
-1.01122e-12
-7.93915e-09
-1.3636e-11
-2.05059e-08
-6.58875e-11
-8.81067e-08
-1.48945e-09
-7.05725e-07
-6.07017e-09
-2.34255e-06
-1.56508e-08
-5.6055e-06
1.95122e-07
-7.78181e-06
5.47358e-07
-8.16502e-06
1.34741e-07
-8.08306e-06
-9.20135e-07
-7.97931e-06
-2.17548e-06
-7.85011e-06
-3.60668e-06
-7.67806e-06
-5.2427e-06
-7.44688e-06
-7.08257e-06
-7.11436e-06
-9.14508e-06
-6.63037e-06
-1.13834e-05
-5.96372e-06
-1.36655e-05
-5.13266e-06
-1.57865e-05
-4.23677e-06
-1.75079e-05
-1.87032e-05
6.52252e-20
5.75389e-19
1.04588e-20
2.17141e-19
-2.23882e-20
7.48522e-20
-4.74893e-20
3.63551e-20
-7.46834e-17
5.58667e-18
-3.76662e-16
6.73484e-18
-1.11777e-15
-1.83645e-16
-2.55038e-15
-1.00797e-15
-4.87105e-15
-2.68507e-15
-8.01046e-15
-5.36369e-15
-1.16072e-14
-8.9959e-15
-1.52383e-14
-1.34316e-14
-1.89198e-14
-1.87723e-14
-2.45448e-14
-2.70581e-14
-3.77448e-14
-4.56463e-14
-6.34032e-14
-8.40759e-14
-1.09365e-13
-1.61263e-13
-1.84736e-13
-3.06868e-13
-2.82562e-13
-5.3076e-13
-2.84042e-13
-6.20201e-13
-3.47494e-14
-9.38987e-14
1.8124e-13
3.78794e-13
4.10903e-13
1.6586e-12
1.19916e-13
5.34604e-12
-2.49691e-12
1.16571e-12
-2.06785e-11
1.57677e-12
-9.04249e-11
3.34151e-12
-1.59009e-09
-1.89601e-12
-7.69782e-09
-9.19772e-12
-2.32266e-08
-8.91284e-11
-1.5969e-07
-1.29709e-09
-1.01368e-06
-5.85842e-10
-3.24985e-06
-8.20654e-10
-5.85061e-06
-2.53213e-07
-7.16903e-06
-1.04148e-06
-7.45647e-06
-2.92675e-06
-7.4266e-06
-5.27143e-06
-7.39658e-06
-7.11152e-06
-7.33008e-06
-9.21068e-06
-7.14376e-06
-1.15693e-05
-6.78763e-06
-1.40213e-05
-6.25934e-06
-1.63147e-05
-5.68552e-06
-1.80817e-05
-1.91051e-05
6.50793e-21
1.99894e-19
-9.18397e-21
6.32568e-20
-1.44871e-20
2.44265e-20
-1.83911e-20
1.25644e-20
-7.18935e-18
8.22756e-21
-3.58309e-17
6.18093e-21
-9.99198e-17
2.53862e-21
-2.29071e-16
-3.94945e-17
-4.75427e-16
-1.65891e-16
-9.00862e-16
-4.34303e-16
-1.55422e-15
-9.21976e-16
-2.50807e-15
-1.74174e-15
-4.12684e-15
-3.26225e-15
-7.92561e-15
-6.98126e-15
-1.8407e-14
-1.77652e-14
-4.48346e-14
-4.70191e-14
-1.02295e-13
-1.16632e-13
-2.12998e-13
-2.64432e-13
-4.01132e-13
-5.41061e-13
-6.56196e-13
-9.64965e-13
-8.72463e-13
-1.42089e-12
-9.99288e-13
-1.82685e-12
-1.00786e-12
-2.1179e-12
-5.95239e-13
-1.51971e-12
2.42789e-13
3.26666e-13
3.70039e-13
1.44891e-12
6.17124e-14
3.64925e-12
-3.27246e-12
1.2057e-12
-1.44954e-11
9.3652e-13
-1.03498e-10
9.90013e-13
-1.39862e-09
-3.64049e-13
-1.93741e-09
-1.77223e-12
-7.30783e-09
-3.29647e-13
-2.23049e-07
-2.27153e-12
-1.13509e-06
-1.5222e-10
-3.03815e-06
-9.59912e-09
-5.05248e-06
-4.49238e-07
-6.26564e-06
-2.99522e-06
-7.14817e-06
-6.44782e-06
-7.45416e-06
-1.07823e-05
-7.57098e-06
-1.38982e-05
-7.45938e-06
-1.64234e-05
-7.2574e-06
-1.82834e-05
-1.9099e-05
-7.01887e-21
6.56058e-20
-7.58717e-21
1.88787e-20
-6.45452e-21
7.19511e-21
-6.53402e-21
4.03619e-21
-8.47003e-21
3.56066e-21
-1.47005e-20
4.29364e-21
-3.44146e-20
4.78933e-21
-8.85191e-19
7.20384e-22
-7.52348e-18
-1.32457e-18
-2.98701e-17
-9.64489e-18
-8.41593e-17
-3.72417e-17
-2.10977e-16
-1.15191e-16
-5.88176e-16
-3.75702e-16
-1.94048e-15
-1.40223e-15
-6.58939e-15
-5.26254e-15
-2.03139e-14
-1.76708e-14
-5.47629e-14
-5.15059e-14
-1.30389e-13
-1.31942e-13
-2.77992e-13
-3.00999e-13
-5.29173e-13
-6.11303e-13
-8.83651e-13
-1.09174e-12
-1.31845e-12
-1.74571e-12
-1.80074e-12
-2.5621e-12
-2.12972e-12
-3.29144e-12
-1.98629e-12
-3.37753e-12
-1.61194e-12
-3.08891e-12
-8.31192e-13
-1.89323e-12
1.85333e-13
1.88092e-13
2.3705e-13
8.84244e-13
2.68741e-14
1.19941e-12
-9.23816e-13
6.22583e-13
-3.2396e-15
4.32438e-14
-9.207e-15
1.57481e-15
-2.2801e-12
2.36398e-19
-1.54501e-10
2.09597e-19
-9.75361e-09
-1.3247e-14
-4.5899e-07
-1.40555e-12
-8.6198e-07
-1.202e-10
-2.2399e-06
-9.07101e-09
-4.41232e-06
-4.91421e-07
-7.36511e-06
-4.88979e-06
-8.70462e-06
-1.27621e-05
-9.01368e-06
-1.79729e-05
-1.87082e-05
-6.66379e-21
1.86612e-20
-3.4101e-21
5.10733e-21
-2.25915e-21
1.86707e-21
-2.12877e-21
1.28911e-21
-3.19637e-21
1.74887e-21
-7.08021e-21
3.02361e-21
-1.83818e-20
4.61081e-21
-4.71788e-20
4.65207e-21
-1.44376e-19
-3.55726e-21
-6.52988e-19
-1.19426e-19
-2.78734e-18
-8.67673e-19
-1.37588e-17
-5.77641e-18
-7.91598e-17
-4.07078e-17
-4.18213e-16
-2.49867e-16
-1.83878e-15
-1.23451e-15
-6.6954e-15
-4.9434e-15
-2.06168e-14
-1.65118e-14
-5.52062e-14
-4.74931e-14
-1.31405e-13
-1.20421e-13
-2.80347e-13
-2.71968e-13
-5.35091e-13
-5.47702e-13
-9.22866e-13
-9.93826e-13
-1.46297e-12
-1.65306e-12
-2.1049e-12
-2.4955e-12
-2.63949e-12
-3.28575e-12
-2.98846e-12
-3.91387e-12
-2.90917e-12
-4.04288e-12
-2.33396e-12
-3.46896e-12
-1.45003e-12
-2.33529e-12
-5.63811e-13
-1.01871e-12
2.42817e-14
3.44894e-14
1.58225e-14
5.17029e-14
9.1632e-19
1.73964e-14
1.28115e-19
1.0246e-18
-8.52539e-17
1.25256e-16
-1.34991e-14
1.66814e-16
-1.41911e-12
5.259e-17
-1.2139e-10
-2.49439e-13
-9.17208e-09
-2.13723e-11
-4.99344e-07
-1.28708e-09
-1.06445e-06
-6.29534e-08
-5.9657e-06
-1.33278e-06
-1.07033e-05
-1.01584e-05
-1.7556e-05
-2.74941e-21
3.99025e-21
-1.12459e-21
1.07997e-21
-6.40008e-22
4.34923e-22
-6.75864e-22
4.97487e-22
-1.41757e-21
1.03802e-21
-3.96512e-21
2.20492e-21
-1.09259e-20
3.90056e-21
-2.74987e-20
5.30368e-21
-6.35026e-20
4.17363e-21
-1.40698e-19
-7.94862e-21
-3.27047e-19
-6.31651e-20
-1.44427e-18
-4.44501e-19
-1.07272e-17
-4.35589e-18
-7.10447e-17
-3.49156e-17
-3.7183e-16
-2.10576e-16
-1.57245e-15
-9.95038e-16
-5.54957e-15
-3.84505e-15
-1.68658e-14
-1.26105e-14
-4.52152e-14
-3.60705e-14
-1.08266e-13
-9.13334e-14
-2.32518e-13
-2.06066e-13
-4.51579e-13
-4.18083e-13
-8.04227e-13
-7.7382e-13
-1.31338e-12
-1.30815e-12
-1.92535e-12
-1.97818e-12
-2.57736e-12
-2.72301e-12
-3.10232e-12
-3.36569e-12
-3.32522e-12
-3.69593e-12
-3.00534e-12
-3.41109e-12
-2.28413e-12
-2.65276e-12
-1.35786e-12
-1.61853e-12
-6.83963e-13
-8.40007e-13
-1.82681e-13
-2.33607e-13
-9.48773e-15
-1.30071e-14
-6.56334e-17
-1.45784e-16
1.67632e-17
9.75093e-15
-2.51903e-15
2.97343e-15
-2.48609e-13
-3.3496e-15
-2.13198e-11
-3.20284e-13
-1.28788e-09
-2.15809e-11
-6.30348e-08
-1.24431e-09
-1.35807e-06
-3.84613e-08
-8.302e-06
-1.38079e-06
-1.46039e-05
-1.28043e-05
-1.5282e-05
-6.75766e-22
5.81611e-22
-2.59286e-22
1.70858e-22
-1.53789e-22
1.18989e-22
-2.54177e-22
2.64299e-22
-7.69924e-22
6.92544e-22
-2.44326e-21
1.61151e-21
-6.88057e-21
3.08731e-21
-1.71643e-20
4.81471e-21
-3.9018e-20
5.73219e-21
-8.30862e-20
3.15608e-21
-1.70584e-19
-1.43125e-20
-3.89075e-19
-7.97442e-20
-1.45383e-18
-4.48077e-19
-8.57192e-18
-3.40552e-18
-5.06759e-17
-2.40611e-17
-2.52774e-16
-1.37222e-16
-1.04994e-15
-6.33363e-16
-3.71347e-15
-2.44026e-15
-1.14547e-14
-8.07858e-15
-3.12712e-14
-2.33975e-14
-7.61105e-14
-5.98708e-14
-1.66565e-13
-1.36711e-13
-3.32017e-13
-2.82425e-13
-6.0608e-13
-5.31209e-13
-1.00283e-12
-9.00913e-13
-1.51902e-12
-1.39189e-12
-2.09589e-12
-1.95057e-12
-2.61694e-12
-2.46252e-12
-2.85249e-12
-2.70073e-12
-2.72868e-12
-2.59132e-12
-2.25419e-12
-2.14035e-12
-1.61694e-12
-1.52935e-12
-9.16564e-13
-8.62901e-13
-4.17603e-13
-3.92617e-13
-1.2077e-13
-1.18799e-13
-7.68697e-15
-1.30629e-14
-2.64001e-16
5.59949e-15
-1.61028e-14
1.24892e-14
-3.19568e-13
-2.48195e-14
-2.11842e-11
-1.30451e-12
-1.21652e-09
-7.31053e-11
-3.73679e-08
-3.00072e-09
-1.2794e-06
-1.51594e-07
-1.62318e-05
-4.73725e-06
-1.24324e-05
-1.00655e-22
5.32778e-23
-4.1773e-23
2.64479e-23
-4.16954e-23
5.29408e-23
-1.29256e-22
1.67498e-22
-4.71546e-22
4.74819e-22
-1.55455e-21
1.15427e-21
-4.39199e-21
2.32246e-21
-1.09389e-20
3.93412e-21
-2.49345e-20
5.57815e-21
-5.3464e-20
5.91403e-21
-1.09847e-19
1.42068e-21
-2.2013e-19
-2.38028e-20
-4.57029e-19
-9.91546e-20
-1.24393e-18
-3.86389e-19
-5.44411e-18
-2.13321e-18
-2.89362e-17
-1.33899e-17
-1.41588e-16
-7.4339e-17
-5.95307e-16
-3.45276e-16
-2.16111e-15
-1.3582e-15
-6.85833e-15
-4.60284e-15
-1.91919e-14
-1.35988e-14
-4.78045e-14
-3.54299e-14
-1.07379e-13
-8.25767e-14
-2.19373e-13
-1.73842e-13
-4.0635e-13
-3.29796e-13
-6.87389e-13
-5.68217e-13
-1.06175e-12
-8.89542e-13
-1.49034e-12
-1.25972e-12
-1.85643e-12
-1.5765e-12
-2.05813e-12
-1.75101e-12
-2.02339e-12
-1.72199e-12
-1.75224e-12
-1.4926e-12
-1.29319e-12
-1.11007e-12
-8.1192e-13
-7.16904e-13
-3.97233e-13
-3.856e-13
-1.28013e-13
-1.72629e-13
1.05151e-16
-6.37339e-14
-1.20458e-14
-1.09335e-14
-3.79538e-14
2.84182e-15
-1.46493e-12
2.4553e-14
-8.27109e-11
-1.18054e-12
-3.13544e-09
-2.27905e-10
-1.31945e-07
-2.8752e-08
-9.0073e-06
-7.30717e-07
-9.52681e-06
-8.82049e-24
5.53273e-24
-6.29454e-24
9.16804e-24
-1.78485e-23
3.1818e-23
-7.71839e-23
1.10131e-22
-2.96229e-22
3.22288e-22
-9.83727e-22
8.04807e-22
-2.77524e-21
1.67512e-21
-6.93054e-21
3.00798e-21
-1.59815e-20
4.74497e-21
-3.4958e-20
6.34191e-21
-7.35045e-20
5.90492e-21
-1.49832e-19
-2.21168e-21
-2.98606e-19
-3.87211e-20
-5.99522e-19
-1.37038e-19
-1.35389e-18
-4.25465e-19
-4.16845e-18
-1.62098e-18
-1.73838e-17
-7.89471e-18
-7.78255e-17
-3.97996e-17
-3.23004e-16
-1.81402e-16
-1.18892e-15
-7.19939e-16
-3.84754e-15
-2.47713e-15
-1.09919e-14
-7.44051e-15
-2.80343e-14
-1.97681e-14
-6.44585e-14
-4.698e-14
-1.33782e-13
-1.00113e-13
-2.52256e-13
-1.92699e-13
-4.33267e-13
-3.36215e-13
-6.76055e-13
-5.30776e-13
-9.43239e-13
-7.46984e-13
-1.17855e-12
-9.40252e-13
-1.31905e-12
-1.06134e-12
-1.31235e-12
-1.07038e-12
-1.14412e-12
-9.58307e-13
-8.68283e-13
-7.68777e-13
-5.53017e-13
-5.52572e-13
-2.77629e-13
-3.65752e-13
-7.89621e-14
-2.26755e-13
1.60642e-14
-1.23407e-13
-1.21459e-13
-5.1493e-14
-1.52488e-13
5.55818e-14
-3.78278e-12
1.38794e-12
-2.58354e-10
-1.2873e-11
-2.40978e-08
-6.30831e-09
-1.36825e-06
-1.26952e-07
-4.28981e-06
-8.42647e-25
2.62849e-24
-2.05851e-24
5.34899e-24
-1.00899e-23
2.00947e-23
-4.71606e-23
7.17774e-23
-1.83407e-22
2.14258e-22
-6.09946e-22
5.45384e-22
-1.7189e-21
1.16488e-21
-4.32063e-21
2.19244e-21
-1.01389e-20
3.74416e-21
-2.27625e-20
5.72553e-21
-4.93085e-20
7.26076e-21
-1.0323e-19
5.50851e-21
-2.09931e-19
-9.29018e-21
-4.17676e-19
-6.2244e-20
-8.31113e-19
-1.9931e-19
-1.74493e-18
-5.56345e-19
-4.27758e-18
-1.65913e-18
-1.32678e-17
-5.94788e-18
-4.88947e-17
-2.45058e-17
-1.86086e-16
-1.01869e-16
-6.64265e-16
-3.90388e-16
-2.13799e-15
-1.33105e-15
-6.15994e-15
-4.0194e-15
-1.59405e-14
-1.08069e-14
-3.7091e-14
-2.59394e-14
-7.79994e-14
-5.59383e-14
-1.48808e-13
-1.08928e-13
-2.57347e-13
-1.9162e-13
-3.99228e-13
-3.01812e-13
-5.56333e-13
-4.2714e-13
-6.97703e-13
-5.45859e-13
-7.82772e-13
-6.29134e-13
-7.80517e-13
-6.55019e-13
-6.88082e-13
-6.21635e-13
-5.28937e-13
-5.44594e-13
-3.45208e-13
-4.51655e-13
-1.70353e-13
-3.59787e-13
-2.73264e-14
-2.69761e-13
-8.80261e-15
-1.82234e-13
-5.54362e-13
2.5994e-14
-9.1423e-13
1.00058e-12
-5.10811e-11
2.04831e-11
-6.65032e-09
-3.81152e-10
-1.16325e-07
-3.43679e-08
-8.88849e-07
-3.59357e-25
1.70157e-24
-1.10741e-24
3.21634e-24
-5.88676e-24
1.25444e-23
-2.82138e-23
4.58625e-23
-1.10568e-22
1.38918e-22
-3.68206e-22
3.58827e-22
-1.03871e-21
7.83515e-22
-2.64064e-21
1.539e-21
-6.34245e-21
2.81058e-21
-1.46758e-20
4.73094e-21
-3.27927e-20
7.02334e-21
-7.05874e-20
8.22326e-21
-1.46426e-19
4.20104e-21
-2.94904e-19
-2.06955e-20
-5.81803e-19
-9.70139e-20
-1.14571e-18
-2.87395e-19
-2.32256e-18
-7.5323e-19
-5.09291e-18
-1.97919e-18
-1.28199e-17
-5.70407e-18
-3.77732e-17
-1.86688e-17
-1.22725e-16
-6.59395e-17
-4.01235e-16
-2.30627e-16
-1.24029e-15
-7.53238e-16
-3.5233e-15
-2.23867e-15
-9.07946e-15
-5.98888e-15
-2.11737e-14
-1.44104e-14
-4.47381e-14
-3.12736e-14
-8.55757e-14
-6.12654e-14
-1.47137e-13
-1.07775e-13
-2.2773e-13
-1.70918e-13
-3.18104e-13
-2.45816e-13
-3.99464e-13
-3.20929e-13
-4.49832e-13
-3.82232e-13
-4.53155e-13
-4.19147e-13
-4.07353e-13
-4.30029e-13
-3.23412e-13
-4.21399e-13
-2.15795e-13
-3.98752e-13
-9.988e-14
-3.60532e-13
1.86116e-15
-3.04085e-13
-1.70697e-13
-1.93155e-13
3.79918e-13
4.47753e-13
8.741e-12
8.33098e-12
-7.10059e-10
1.38804e-10
-3.76281e-08
-4.32041e-09
-7.46978e-08
-2.05392e-25
9.94729e-25
-6.03236e-25
1.87643e-24
-3.3444e-24
7.6694e-24
-1.63632e-23
2.85932e-23
-6.45773e-23
8.75693e-23
-2.15545e-22
2.28946e-22
-6.10641e-22
5.10693e-22
-1.57945e-21
1.04656e-21
-3.90524e-21
2.03094e-21
-9.33744e-21
3.68539e-21
-2.15007e-20
6.04963e-21
-4.74424e-20
8.49994e-21
-1.00272e-19
8.80359e-21
-2.04153e-19
1.35189e-21
-4.04212e-19
-3.78066e-20
-7.85761e-19
-1.44113e-19
-1.52225e-18
-3.98789e-19
-2.99746e-18
-9.91582e-19
-6.16585e-18
-2.41201e-18
-1.37285e-17
-6.09782e-18
-3.40875e-17