/*--------------------------------*- C++ -*----------------------------------*\
| =========                 |                                                 |
| \\      /  F ield         | OpenFOAM: The Open Source CFD Toolbox           |
|  \\    /   O peration     | Version:  5.0                                   |
|   \\  /    A nd           | Web:      www.OpenFOAM.org                      |
|    \\/     M anipulation  |                                                 |
\*---------------------------------------------------------------------------*/
FoamFile
{
    version     2.0;
    format      ascii;
    class       volScalarField;
    location    "0.75";
    object      epsilon;
}
// * * * * * * * * * * * * * * * * * * * * * * * * * * * * * * * * * * * * * //

dimensions      [0 2 -3 0 0 0 0];

internalField   nonuniform List<scalar> 
1935
(
0.0174016
0.0473455
0.0807379
0.116452
0.153636
0.186978
0.216347
0.242391
0.265869
0.287525
0.307975
0.327671
0.347033
0.366419
0.385543
0.404213
0.422322
0.439819
0.456676
0.472861
0.48832
0.502978
0.516732
0.529442
0.540907
0.550891
0.559085
0.565143
0.56869
0.569335
0.566708
0.560489
0.550462
0.536573
0.518956
0.4979
0.473723
0.446901
0.418824
0.392261
0.368583
0.344019
0.305117
0.249086
0.0325002
0.0369556
0.0509655
0.0656662
0.0810134
0.0954526
0.108611
0.120617
0.131708
0.142124
0.152053
0.161604
0.170877
0.179995
0.188892
0.197526
0.205875
0.213929
0.221685
0.229137
0.236277
0.243086
0.249531
0.25556
0.261098
0.266045
0.270279
0.273657
0.276024
0.277216
0.277077
0.275465
0.272277
0.267459
0.261023
0.25306
0.24377
0.233525
0.222807
0.211393
0.198946
0.186473
0.171723
0.155679
0.0447512
0.0363478
0.0456464
0.0566784
0.0681251
0.07901
0.0890465
0.0982712
0.106832
0.11489
0.122573
0.129961
0.137134
0.144109
0.150883
0.157453
0.163816
0.169976
0.175935
0.181695
0.187253
0.192602
0.19772
0.202574
0.207113
0.211269
0.214962
0.218096
0.220566
0.222268
0.223101
0.222977
0.221834
0.219647
0.216434
0.21227
0.207297
0.201721
0.195741
0.189389
0.182849
0.176639
0.171088
0.168387
0.0516758
0.0379143
0.0450038
0.0544356
0.0642784
0.073705
0.0824418
0.0904899
0.0979603
0.104984
0.111667
0.118101
0.124329
0.130373
0.136242
0.141943
0.147484
0.15287
0.158107
0.163198
0.168143
0.172935
0.17756
0.181988
0.186182
0.190088
0.193645
0.196783
0.199424
0.201496
0.20293
0.203676
0.203704
0.203015
0.20165
0.199691
0.19727
0.194562
0.191752
0.188983
0.186556
0.185148
0.185851
0.191586
0.0547817
0.0404787
0.046412
0.05489
0.063793
0.0723568
0.080319
0.0876655
0.0944868
0.100892
0.106985
0.112841
0.118506
0.124006
0.129356
0.13457
0.139658
0.144627
0.149483
0.154228
0.158861
0.163377
0.167761
0.171989
0.176028
0.179836
0.183365
0.186559
0.189365
0.191731
0.193617
0.195001
0.195882
0.19629
0.19629
0.195988
0.195531
0.195102
0.194892
0.195133
0.196252
0.199102
0.205241
0.218377
0.0581706
0.0440166
0.0491605
0.0570068
0.0652568
0.0731844
0.0805575
0.087365
0.0936894
0.0996396
0.105303
0.110747
0.11602
0.121151
0.12616
0.131061
0.135866
0.140583
0.145214
0.14976
0.154218
0.158582
0.162838
0.166963
0.170928
0.1747
0.17824
0.181507
0.184466
0.187084
0.189347
0.191257
0.19284
0.194155
0.195294
0.196392
0.197613
0.199149
0.201233
0.20419
0.20859
0.215537
0.22717
0.248487
0.060727
0.0481004
0.0531243
0.0605591
0.0682397
0.0755663
0.0823757
0.0886798
0.094553
0.10009
0.105387
0.110498
0.11547
0.120332
0.125102
0.129792
0.134413
0.138973
0.14347
0.147902
0.152264
0.156546
0.160735
0.164809
0.168741
0.172507
0.176077
0.179423
0.182524
0.18537
0.187965
0.190337
0.192539
0.194655
0.196807
0.199153
0.20187
0.20518
0.209363
0.214841
0.222366
0.233413
0.251041
0.282616
0.0633314
0.053382
0.0586485
0.0656077
0.0725857
0.079205
0.0853849
0.0911453
0.0965501
0.101682
0.106635
0.111457
0.116189
0.120853
0.125455
0.130005
0.134513
0.138985
0.143414
0.147791
0.152108
0.156356
0.160517
0.164571
0.168495
0.17227
0.175877
0.179301
0.182535
0.185587
0.188485
0.191277
0.194041
0.196888
0.199968
0.203452
0.207544
0.212493
0.218632
0.226481
0.236993
0.252127
0.276264
0.320825
0.0704328
0.0616566
0.0664127
0.0722811
0.0781838
0.0838867
0.0893112
0.0944636
0.0993725
0.10409
0.108707
0.113271
0.117812
0.122338
0.126837
0.131305
0.135759
0.140202
0.144619
0.14899
0.153305
0.157553
0.161716
0.165769
0.169697
0.173487
0.177131
0.180625
0.183978
0.187217
0.190389
0.193564
0.196845
0.200366
0.204303
0.208844
0.214219
0.220711
0.2287
0.238792
0.252129
0.271145
0.30172
0.361066
0.0949037
0.0759998
0.0769324
0.0804422
0.0847763
0.0893449
0.0939268
0.0984492
0.102859
0.107151
0.111437
0.115772
0.120171
0.124619
0.129065
0.133492
0.137938
0.142409
0.146869
0.151276
0.155625
0.159907
0.164094
0.16816
0.172096
0.175899
0.17957
0.183119
0.18657
0.189968
0.19338
0.196899
0.20065
0.204792
0.209521
0.215052
0.221644
0.229613
0.239384
0.25163
0.267611
0.290036
0.325673
0.396286
0.136607
0.0956142
0.0891345
0.0893512
0.0918984
0.0952978
0.0990627
0.103001
0.106937
0.110774
0.114747
0.118908
0.123242
0.127698
0.132145
0.136555
0.141034
0.145584
0.150132
0.154597
0.159007
0.163353
0.167582
0.171667
0.175609
0.179413
0.183093
0.186672
0.190189
0.193708
0.19732
0.201137
0.205307
0.210017
0.215484
0.221955
0.229726
0.239152
0.250701
0.265093
0.283623
0.308945
0.347138
0.414446
0.183072
0.110629
0.0994446
0.0973706
0.0983615
0.100666
0.103699
0.107192
0.110892
0.114635
0.118531
0.122668
0.127078
0.131696
0.136194
0.140577
0.14514
0.149853
0.15455
0.159066
0.16355
0.167981
0.172246
0.176337
0.180274
0.184057
0.187713
0.191281
0.194816
0.198406
0.202161
0.206218
0.210746
0.215962
0.222113
0.229487
0.238425
0.249331
0.262729
0.279377
0.300572
0.328808
0.369263
0.433556
0.21521
0.120904
0.107255
0.104268
0.104367
0.105836
0.108154
0.111085
0.114418
0.118022
0.121904
0.126161
0.130849
0.135835
0.140755
0.145479
0.150328
0.155402
0.160358
0.164844
0.169414
0.17397
0.178233
0.182287
0.186187
0.1899
0.193475
0.196973
0.200458
0.204044
0.207868
0.212085
0.216894
0.222544
0.22932
0.237562
0.247671
0.260122
0.275506
0.29464
0.31884
0.350524
0.394425
0.460048
0.235487
0.129004
0.113278
0.109677
0.109401
0.110477
0.112339
0.114757
0.117575
0.120745
0.124343
0.128465
0.13315
0.138282
0.143717
0.149288
0.155014
0.161079
0.166897
0.171969
0.17681
0.181648
0.18579
0.189727
0.193565
0.197115
0.200515
0.203853
0.207187
0.210673
0.214467
0.218746
0.223743
0.229746
0.237088
0.246175
0.257489
0.271598
0.289195
0.311183
0.338949
0.374999
0.424213
0.496101
0.249698
0.134599
0.117752
0.113889
0.113536
0.114478
0.116092
0.11815
0.120546
0.123294
0.12651
0.130287
0.134627
0.139384
0.14448
0.150073
0.156361
0.16325
0.170251
0.177257
0.183744
0.190036
0.194945
0.198874
0.202728
0.205941
0.209019
0.212094
0.215132
0.218384
0.222022
0.226244
0.231324
0.237593
0.245447
0.255378
0.267968
0.283916
0.304055
0.329419
0.361521
0.403116
0.459788
0.542787
0.257583
0.138383
0.120913
0.116964
0.116665
0.117634
0.119176
0.121055
0.12319
0.125623
0.128477
0.131848
0.13574
0.140048
0.14474
0.150039
0.15615
0.162896
0.169875
0.177318
0.185306
0.193353
0.200903
0.207075
0.212668
0.216516
0.219172
0.221921
0.224432
0.227282
0.230611
0.234632
0.239685
0.246136
0.254466
0.265274
0.279274
0.297332
0.320477
0.349926
0.387348
0.435835
0.502069
0.600401
0.261184
0.140798
0.123044
0.119056
0.118811
0.119865
0.121441
0.123281
0.125308
0.127563
0.130157
0.133185
0.13667
0.140557
0.144843
0.149703
0.15531
0.161563
0.168231
0.175534
0.183593
0.191865
0.200131
0.208388
0.216356
0.223362
0.228246
0.232516
0.235173
0.237452
0.240284
0.243922
0.248851
0.255409
0.264212
0.275998
0.291636
0.312211
0.339021
0.373523
0.417511
0.474339
0.551879
0.66858
0.262562
0.142376
0.124469
0.12037
0.120111
0.121223
0.122871
0.124752
0.12678
0.128977
0.131433
0.134229
0.137405
0.140946
0.144868
0.14929
0.154348
0.160021
0.166205
0.173026
0.180574
0.188538
0.196815
0.205456
0.214022
0.222237
0.229893
0.236821
0.242585
0.246805
0.250679
0.254012
0.25878
0.265364
0.274665
0.287624
0.305271
0.32897
0.360396
0.40132
0.453495
0.520225
0.610075
0.746462
0.263752
0.143708
0.125444
0.121094
0.120727
0.121834
0.123536
0.12549
0.12758
0.129805
0.132222
0.134899
0.137878
0.141172
0.144804
0.14886
0.15344
0.158568
0.164213
0.170443
0.177323
0.184713
0.19254
0.20082
0.209296
0.217844
0.226365
0.234423
0.242006
0.249213
0.255954
0.261726
0.268167
0.275749
0.285651
0.300102
0.320288
0.347964
0.385379
0.434748
0.4972
0.575596
0.677357
0.832507
0.265148
0.144962
0.126097
0.12138
0.120812
0.121842
0.123555
0.125573
0.127747
0.130046
0.132496
0.135144
0.138029
0.141174
0.144608
0.148392
0.152601
0.157276
0.162423
0.168085
0.174309
0.181041
0.188239
0.195903
0.203916
0.212204
0.220698
0.229141
0.237586
0.246098
0.254523
0.263028
0.272348
0.282835
0.295453
0.312822
0.336558
0.369397
0.414742
0.475862
0.551344
0.643783
0.75381
0.924007
0.266473
0.146046
0.126504
0.121342
0.120496
0.121383
0.123055
0.125104
0.127355
0.129744
0.132267
0.13495
0.137821
0.140904
0.144227
0.147836
0.151787
0.156121
0.16086
0.166038
0.17169
0.177803
0.184361
0.191364
0.198769
0.206542
0.21466
0.223031
0.231718
0.240806
0.250319
0.26056
0.272039
0.285451
0.302189
0.324
0.352798
0.392641
0.447071
0.519563
0.617581
0.731242
0.838905
1.01758
1.33179
0.268241
0.147048
0.12674
0.121069
0.119887
0.120574
0.122154
0.124196
0.126497
0.128968
0.13158
0.134335
0.137246
0.140334
0.14362
0.14714
0.150933
0.155037
0.159476
0.164279
0.169474
0.175067
0.181058
0.187455
0.194256
0.201462
0.209092
0.217161
0.225768
0.235058
0.245207
0.256615
0.269888
0.285968
0.306298
0.332503
0.367063
0.413966
0.47662
0.558768
0.668969
0.789791
0.927214
1.10986
1.43459
0.270775
0.148056
0.126863
0.120628
0.119066
0.119508
0.120955
0.12295
0.125269
0.1278
0.130496
0.133336
0.136321
0.139458
0.142764
0.146263
0.149984
0.153954
0.158197
0.162737
0.167595
0.172787
0.178322
0.184217
0.190491
0.197174
0.204322
0.212013
0.220391
0.229666
0.240135
0.252296
0.266879
0.284961
0.308022
0.337842
0.377042
0.429522
0.498025
0.585067
0.693307
0.826039
0.997142
1.19862
1.52426
0.274217
0.149117
0.12691
0.120065
0.118091
0.118258
0.119537
0.12145
0.123755
0.126322
0.129083
0.132008
0.135077
0.138291
0.141655
0.145185
0.148897
0.152813
0.15695
0.161327
0.165962
0.170871
0.176069
0.18158
0.187435
0.193686
0.200411
0.20773
0.215826
0.224964
0.235525
0.248083
0.263453
0.282776
0.307556
0.339659
0.381627
0.43693
0.50863
0.599353
0.714343
0.868802
1.08098
1.29466
1.60214
0.278569
0.150238
0.126895
0.119406
0.117
0.116874
0.117961
0.119766
0.122029
0.124604
0.127411
0.130404
0.133559
0.13686
0.140304
0.143897
0.147649
0.15157
0.155674
0.159973
0.164482
0.169214
0.174189
0.179431
0.184982
0.190903
0.19729
0.204286
0.212102
0.221041
0.231534
0.244199
0.259893
0.279772
0.305333
0.338445
0.381518
0.437663
0.510737
0.604963
0.728996
0.902231
1.14681
1.38462
1.66797
0.283725
0.151393
0.126818
0.118663
0.11582
0.11539
0.116273
0.117949
0.120146
0.122707
0.125537
0.128583
0.131811
0.135198
0.138731
0.142408
0.146229
0.150199
0.154325
0.158613
0.163075
0.167721
0.17257
0.177648
0.183001
0.188695
0.194836
0.201578
0.209149
0.21787
0.228196
0.240761
0.256428
0.276338
0.301957
0.335119
0.378157
0.434097
0.507117
0.603758
0.734136
0.916989
1.17639
1.45413
1.72554
0.2895
0.152537
0.126666
0.11784
0.114563
0.113832
0.114503
0.116039
0.118153
0.120679
0.123513
0.126593
0.129878
0.133343
0.136965
0.140732
0.14464
0.148687
0.152873
0.157202
0.161678
0.16631
0.171116
0.17612
0.181369
0.186932
0.192916
0.199481
0.206859
0.215377
0.225493
0.237836
0.25325
0.272845
0.298039
0.330627
0.372907
0.427929
0.500097
0.596626
0.728942
0.912789
1.16694
1.48578
1.77281
0.295666
0.153613
0.126422
0.116937
0.11324
0.112214
0.112674
0.114063
0.116083
0.118558
0.121379
0.124476
0.127804
0.13133
0.135033
0.138891
0.142894
0.147033
0.151306
0.15571
0.160246
0.164921
0.169749
0.174754
0.179979
0.185494
0.191406
0.197872
0.205121
0.213478
0.223388
0.235462
0.250514
0.269606
0.294107
0.325765
0.366851
0.420436
0.490987
0.585543
0.715416
0.894843
1.13815
1.45532
1.7819
0.301983
0.154567
0.126071
0.115952
0.111856
0.110549
0.110804
0.112044
0.113961
0.116373
0.119167
0.122266
0.125621
0.129195
0.132965
0.136909
0.141006
0.145246
0.14962
0.154123
0.158752
0.163511
0.168411
0.173476
0.178745
0.184285
0.1902
0.196644
0.203837
0.212092
0.22184
0.233661
0.248332
0.266866
0.290572
0.321143
0.360805
0.412589
0.480853
0.572165
0.696435
0.867283
1.09618
1.39148
1.74403
0.308215
0.155352
0.125601
0.114887
0.110417
0.108846
0.108904
0.109998
0.111809
0.11415
0.116903
0.119991
0.123359
0.126968
0.130792
0.134809
0.138996
0.143337
0.147819
0.152434
0.157178
0.162052
0.167063
0.172233
0.1776
0.183228
0.189215
0.195709
0.202922
0.211151
0.220805
0.232438
0.246783
0.264799
0.287735
0.317215
0.355389
0.405177
0.470703
0.557923
0.675355
0.834354
1.04714
1.31997
1.65479
0.314152
0.155932
0.125006
0.113745
0.108931
0.107115
0.106988
0.107939
0.109642
0.111906
0.114609
0.117673
0.121042
0.124674
0.12854
0.132616
0.136885
0.141321
0.145913
0.150648
0.15552
0.160528
0.165678
0.17099
0.1765
0.182267
0.188386
0.194999
0.202306
0.210592
0.220245
0.231788
0.245912
0.263525
0.285811
0.314316
0.351084
0.398878
0.461507
0.544288
0.654505
0.801559
0.996205
1.2477
1.55929
0.319612
0.156282
0.124286
0.112531
0.107407
0.105366
0.105064
0.105878
0.107474
0.109656
0.112304
0.115334
0.118691
0.122334
0.12623
0.130355
0.134691
0.139218
0.143915
0.148771
0.153778
0.158934
0.164243
0.169724
0.17541
0.181361
0.187666
0.19446
0.201938
0.210369
0.220123
0.231694
0.24574
0.263117
0.284946
0.312687
0.348269
0.394265
0.454152
0.53264
0.635976
0.772037
0.94994
1.17894
1.46732
0.324444
0.156388
0.123446
0.111256
0.105854
0.103608
0.103145
0.103827
0.105317
0.107416
0.110001
0.11299
0.116325
0.119967
0.123882
0.128046
0.132438
0.137043
0.14184
0.146816
0.15196
0.15727
0.162752
0.168422
0.174313
0.180483
0.18702
0.194055
0.201774
0.210439
0.220402
0.232138
0.24627
0.263613
0.285229
0.312498
0.347229
0.391806
0.44939
0.524154
0.6215
0.748125
0.911829
1.12104
1.38425
0.328528
0.156249
0.122496
0.10993
0.104283
0.101851
0.101238
0.101796
0.103181
0.105195
0.107714
0.110654
0.11396
0.11759
0.121513
0.125705
0.130145
0.134816
0.139705
0.144794
0.150075
0.155543
0.161206
0.167079
0.173198
0.179618
0.186427
0.193755
0.201784
0.210769
0.221053
0.233094
0.24749
0.265024
0.286709
0.313855
0.348164
0.391851
0.447802
0.519748
0.612422
0.731618
0.884101
1.07738
1.31951
0.331782
0.155875
0.121449
0.108564
0.102702
0.100104
0.0993521
0.0997921
0.101077
0.103005
0.105454
0.10834
0.111608
0.115219
0.11914
0.123349
0.127826
0.132556
0.137524
0.142722
0.148135
0.153762
0.159611
0.165699
0.172062
0.178757
0.185874
0.193543
0.201946
0.211334
0.222048
0.234534
0.249378
0.26734
0.289398
0.31681
0.351194
0.394631
0.449793
0.520072
0.609703
0.723822
0.86842
1.05024
1.2767
0.334169
0.155285
0.12032
0.107169
0.101122
0.0983745
0.0974959
0.0978244
0.0990111
0.100855
0.10323
0.106058
0.109283
0.112865
0.116776
0.120993
0.125498
0.130276
0.135317
0.140612
0.146153
0.151938
0.157975
0.164284
0.170905
0.177898
0.185354
0.193406
0.202241
0.212112
0.22336
0.23643
0.251905
0.270535
0.293279
0.321367
0.356364
0.400264
0.455592
0.525514
0.613933
0.725547
0.865837
1.04102
1.25804
0.33571
0.154509
0.119125
0.105757
0.0995501
0.0966699
0.0956748
0.0958987
0.096991
0.0987501
0.101052
0.103818
0.106993
0.11054
0.114432
0.118648
0.123172
0.127992
0.133097
0.138481
0.144144
0.150082
0.156308
0.162844
0.169734
0.177041
0.184863
0.193338
0.202659
0.213086
0.224966
0.238753
0.255034
0.274566
0.298309
0.327488
0.363652
0.408758
0.465262
0.536214
0.625343
0.737117
0.876756
1.05022
1.26423
0.336477
0.153577
0.117877
0.104333
0.097991
0.0949942
0.0938934
0.0940198
0.0950217
0.0966979
0.0989256
0.101626
0.104748
0.108255
0.112121
0.116328
0.120863
0.125714
0.130875
0.136343
0.142118
0.148207
0.154621
0.161387
0.168554
0.176191
0.184403
0.193335
0.203191
0.21424
0.226844
0.24147
0.258725
0.279381
0.304422
0.335094
0.372968
0.420018
0.478706
0.552073
0.643822
0.758379
0.900933
1.07745
1.29468
0.336592
0.152522
0.116586
0.102902
0.0964478
0.0933501
0.0921546
0.0921907
0.0931069
0.0947025
0.0968558
0.09949
0.102555
0.106016
0.10985
0.114042
0.118579
0.123455
0.128665
0.134208
0.140091
0.146324
0.152924
0.159923
0.167374
0.175354
0.183976
0.193396
0.20383
0.215562
0.228973
0.244551
0.262929
0.284914
0.31153
0.34407
0.384164
0.433853
0.495677
0.572768
0.668929
0.788716
0.93748
1.1214
1.34751
0.33622
0.151377
0.115256
0.101465
0.0949213
0.0917386
0.0904597
0.0904135
0.091249
0.0927667
0.0948465
0.0974131
0.100418
0.10383
0.107627
0.111797
0.11633
0.121223
0.126474
0.132088
0.138072
0.144443
0.151227
0.15846
0.1662
0.174533
0.183583
0.193519
0.204569
0.217039
0.231328
0.247957
0.267594
0.291089
0.319524
0.354264
0.397031
0.449977
0.515784
0.597755
0.699906
0.827053
0.984866
1.17991
1.41967
0.335269
0.150091
0.113878
0.10002
0.0934107
0.0901597
0.088809
0.0886886
0.089449
0.0908923
0.0929
0.0953989
0.0983425
0.101702
0.105458
0.1096
0.114123
0.119026
0.124313
0.129989
0.13607
0.142576
0.149539
0.157005
0.165038
0.173734
0.183228
0.193701
0.205401
0.218653
0.233885
0.251649
0.272657
0.297815
0.328274
0.365493
0.411307
0.46802
0.538502
0.62629
0.735695
0.871886
1.04096
1.24996
1.50689
0.333617
0.148622
0.112433
0.0985608
0.0919151
0.0886127
0.0872019
0.0870158
0.087707
0.0890796
0.0910174
0.093449
0.0963302
0.0996342
0.103345
0.107456
0.111963
0.116871
0.122185
0.127919
0.134091
0.140727
0.147866
0.155564
0.163893
0.172958
0.182907
0.193937
0.206313
0.220386
0.23661
0.255578
0.278048
0.304988
0.33763
0.377536
0.426678
0.487531
0.563185
0.657452
0.77498
0.921341
1.1031
1.32781
1.604
0.331313
0.146986
0.110925
0.0970847
0.0904299
0.0870955
0.0856374
0.085394
0.0860221
0.0873283
0.0891985
0.0915638
0.0943823
0.0976296
0.101293
0.105367
0.109854
0.114761
0.120097
0.125882
0.132139
0.1389
0.146212
0.154138
0.162764
0.172203
0.182616
0.194217
0.20729
0.222211
0.239467
0.259688
0.283683
0.312486
0.347416
0.390143
0.442783
0.507992
0.58909
0.690175
0.81624
0.973263
1.16826
1.40925
1.70519
0.328417
0.145202
0.109363
0.0955957
0.0889561
0.0856061
0.0841132
0.083822
0.0843931
0.085637
0.0874427
0.0897429
0.0924988
0.0956881
0.0993011
0.103336
0.107798
0.112698
0.118051
0.12388
)
;

boundaryField
{
    leftWall
    {
        Cmu             0.09;
        kappa           0.41;
        E               9.8;
        type            epsilonWallFunction;
        value           nonuniform List<scalar> 
44
(
0.0174016
0.0325002
0.0447512
0.0516758
0.0547817
0.0581706
0.060727
0.0633314
0.0704328
0.0949037
0.136607
0.183072
0.21521
0.235487
0.249698
0.257583
0.261184
0.262562
0.263752
0.265148
0.266473
0.268241
0.270775
0.274217
0.278569
0.283725
0.2895
0.295666
0.301983
0.308215
0.314152
0.319612
0.324444
0.328528
0.331782
0.334169
0.33571
0.336477
0.336592
0.33622
0.335269
0.333617
0.331313
0.328417
)
;
    }
    rightWall
    {
        Cmu             0.09;
        kappa           0.41;
        E               9.8;
        type            epsilonWallFunction;
        value           nonuniform 0();
    }
    lowerWall
    {
        Cmu             0.09;
        kappa           0.41;
        E               9.8;
        type            epsilonWallFunction;
        value           nonuniform List<scalar> 
44
(
0.0174016
0.0473455
0.0807379
0.116452
0.153636
0.186978
0.216347
0.242391
0.265869
0.287525
0.307975
0.327671
0.347033
0.366419
0.385543
0.404213
0.422322
0.439819
0.456676
0.472861
0.48832
0.502978
0.516732
0.529442
0.540907
0.550891
0.559085
0.565143
0.56869
0.569335
0.566708
0.560489
0.550462
0.536573
0.518956
0.4979
0.473723
0.446901
0.418824
0.392261
0.368583
0.344019
0.305117
0.249086
)
;
    }
    atmosphere
    {
        type            inletOutlet;
        inletValue      nonuniform 0();
        value           nonuniform 0();
    }
    defaultFaces
    {
        type            empty;
    }
    procBoundary0to1
    {
        type            processor;
        value           nonuniform List<scalar> 
44
(
0.17677
0.144402
0.176772
0.213179
0.252314
0.297295
0.353473
0.425945
0.519003
0.613469
0.562639
0.547826
0.565716
0.608798
0.673546
0.758918
0.861139
0.975621
1.09669
1.21763
1.21763
1.89135
2.00807
2.08805
2.13138
2.14303
2.13183
2.1105
2.094
2.07829
2.02892
1.9276
1.816
1.70928
1.61882
1.55592
1.52459
1.52629
1.56022
1.62375
1.71254
1.82068
1.94103
2.06571
)
;
    }
    procBoundary0to2
    {
        type            processor;
        value           nonuniform List<scalar> 
46
(
0.130215
0.137096
0.144577
0.152729
0.161648
0.171463
0.182344
0.194525
0.208309
0.224097
0.242407
0.26391
0.289466
0.320175
0.357438
0.403037
0.459224
0.528833
0.615403
0.7233
0.857833
1.02534
1.23321
1.48983
1.80443
0.32499
0.143288
0.107756
0.0940981
0.0874953
0.0841445
0.0826278
0.0822974
0.0828186
0.084005
0.0857483
0.087985
0.0906785
0.0938091
0.0973697
0.101362
0.105795
0.110682
0.116046
0.130215
0.121913
)
;
    }
}


// ************************************************************************* //
