/*--------------------------------*- C++ -*----------------------------------*\
| =========                 |                                                 |
| \\      /  F ield         | OpenFOAM: The Open Source CFD Toolbox           |
|  \\    /   O peration     | Version:  5.0                                   |
|   \\  /    A nd           | Web:      www.OpenFOAM.org                      |
|    \\/     M anipulation  |                                                 |
\*---------------------------------------------------------------------------*/
FoamFile
{
    version     2.0;
    format      ascii;
    class       volScalarField;
    location    "0.75";
    object      k;
}
// * * * * * * * * * * * * * * * * * * * * * * * * * * * * * * * * * * * * * //

dimensions      [0 2 -2 0 0 0 0];

internalField   nonuniform List<scalar> 
1935
(
0.00241058
0.00430723
0.00614671
0.00784487
0.00943391
0.0107524
0.0118494
0.0127811
0.0135928
0.0143207
0.0149917
0.0156248
0.0162378
0.01684
0.0174232
0.0179833
0.0185183
0.0190282
0.0195132
0.0199733
0.0204079
0.0208157
0.0211947
0.0215418
0.0218522
0.0221205
0.0223392
0.0224999
0.0225934
0.0226099
0.0225398
0.0223745
0.0221073
0.0217353
0.0212596
0.0206845
0.0200146
0.0192584
0.0184516
0.017673
0.0169679
0.0162003
0.0149383
0.0130339
0.00403987
0.00858903
0.0124847
0.016159
0.0193706
0.0221773
0.0246338
0.0268002
0.0287376
0.0304995
0.0321289
0.0336615
0.0351166
0.0364915
0.0377962
0.0390355
0.040212
0.0413282
0.042386
0.0433864
0.0443285
0.0452098
0.0460261
0.0467711
0.047436
0.04801
0.0484792
0.0488284
0.0490409
0.0490997
0.0489886
0.0486936
0.0482055
0.0475214
0.0466468
0.0455935
0.0443737
0.0430006
0.0415098
0.0400147
0.0384916
0.0362706
0.0329514
0.0282347
0.00500103
0.0109979
0.015666
0.0199786
0.0238923
0.0274118
0.0305532
0.0333613
0.0358942
0.0382087
0.0403546
0.0423708
0.0442683
0.0460628
0.047765
0.0493816
0.0509171
0.0523749
0.0537575
0.0550657
0.0562983
0.0574524
0.0585226
0.0595015
0.0603788
0.0611426
0.0617783
0.06227
0.0626011
0.0627555
0.0627185
0.0624786
0.0620292
0.0613698
0.0605065
0.0594501
0.0582127
0.0568035
0.0552316
0.0534747
0.0513251
0.0484267
0.0443505
0.0385723
0.00550564
0.0125409
0.0177131
0.0224735
0.0268775
0.0309004
0.0345322
0.0378048
0.0407721
0.0434916
0.0460177
0.0483778
0.050598
0.0526973
0.0546887
0.056581
0.0583802
0.0600905
0.0617143
0.0632522
0.0647026
0.0660618
0.067324
0.068481
0.0695223
0.0704358
0.0712077
0.0718233
0.072268
0.0725285
0.0725935
0.0724556
0.0721121
0.0715659
0.0708245
0.0698985
0.0687981
0.0675246
0.0660256
0.0641942
0.0618375
0.0586519
0.0541986
0.0477944
0.00572184
0.0135808
0.0192207
0.0243942
0.0292184
0.0336557
0.0376864
0.0413368
0.0446589
0.0477111
0.0505387
0.0531783
0.0556613
0.0580096
0.0602387
0.0623588
0.0643773
0.0662986
0.0681251
0.0698567
0.0714911
0.0730241
0.0744493
0.0757581
0.0769403
0.0779843
0.0788778
0.0796083
0.0801641
0.0805356
0.080716
0.0807027
0.0804976
0.0801075
0.0795426
0.0788154
0.0779323
0.0768521
0.0755064
0.0737643
0.0714158
0.0681509
0.0634886
0.0565887
0.00595471
0.0142502
0.0204254
0.0260514
0.0312821
0.0360875
0.0404563
0.0444196
0.0480341
0.0513578
0.0544359
0.057311
0.0600174
0.0625798
0.065015
0.0673346
0.0695465
0.0716554
0.0736627
0.0755674
0.0773666
0.0790553
0.0806264
0.0820714
0.0833802
0.0845428
0.0855488
0.0863884
0.0870535
0.0875388
0.0878424
0.087967
0.0879196
0.0877113
0.0873559
0.0868685
0.0862274
0.08539
0.0842717
0.0827254
0.0805251
0.077335
0.0726109
0.0653398
0.00612812
0.0148151
0.0215786
0.0276925
0.0333102
0.038433
0.0430783
0.047295
0.051141
0.054676
0.0579611
0.0610354
0.0639355
0.0666872
0.0693075
0.0718081
0.0741972
0.0764791
0.078654
0.0807195
0.0826714
0.084504
0.08621
0.0877804
0.0892061
0.0904787
0.0915902
0.0925342
0.0933065
0.0939066
0.094338
0.0946086
0.0947307
0.0947201
0.0945954
0.0943611
0.0939907
0.0934364
0.0926043
0.0913385
0.0894037
0.0864435
0.0818583
0.0744607
0.00630276
0.0155218
0.0229396
0.0295326
0.0354786
0.0408444
0.0456935
0.0500911
0.0541046
0.0578028
0.0612534
0.0644954
0.0675659
0.0704898
0.0732814
0.0759511
0.0785074
0.0809542
0.0832895
0.0855082
0.0876052
0.0895743
0.0914074
0.0930953
0.0946301
0.0960053
0.0972161
0.0982596
0.099136
0.0998499
0.10041
0.100831
0.101129
0.101325
0.101442
0.101472
0.101395
0.101158
0.100665
0.0997578
0.0982047
0.0956516
0.0914883
0.084425
0.00676203
0.016674
0.0247848
0.0317578
0.037913
0.0434156
0.0483733
0.052877
0.0570015
0.0608172
0.0643951
0.0677771
0.0710005
0.0740859
0.0770411
0.0798729
0.0825918
0.0852011
0.0876946
0.0900631
0.0923011
0.0944022
0.096357
0.0981559
0.0997926
0.101263
0.102567
0.103704
0.104679
0.105503
0.10619
0.10676
0.107236
0.107642
0.108002
0.108309
0.108545
0.108658
0.108553
0.108082
0.107029
0.105078
0.101689
0.0956676
0.00823674
0.0187632
0.0273612
0.0344707
0.0406605
0.0461717
0.0511495
0.055698
0.0598863
0.0637777
0.0674476
0.0709482
0.0743133
0.0775553
0.0806682
0.0836549
0.0865338
0.0893073
0.0919615
0.0944793
0.0968571
0.0990887
0.101162
0.103066
0.104797
0.106356
0.107743
0.108966
0.110032
0.110959
0.111767
0.112482
0.113131
0.113747
0.11435
0.114942
0.115507
0.116
0.116332
0.116371
0.115931
0.114765
0.112495
0.108329
0.0104958
0.0220537
0.030703
0.0376418
0.0436902
0.0491042
0.0540376
0.0585913
0.0628108
0.0667341
0.0704725
0.0740851
0.0775963
0.0810055
0.0842767
0.0874116
0.090451
0.0933948
0.0962138
0.0988776
0.101395
0.103759
0.105948
0.107952
0.109772
0.11141
0.112872
0.114169
0.115316
0.116335
0.117255
0.118105
0.118921
0.119741
0.120587
0.12147
0.122384
0.123287
0.124106
0.124724
0.124994
0.124749
0.123803
0.121887
0.0127546
0.0261914
0.0344549
0.0410074
0.0467408
0.0519391
0.0567611
0.0612977
0.0655751
0.0696079
0.0734672
0.0772222
0.0809117
0.0845266
0.0879618
0.0912308
0.0944389
0.0975736
0.10057
0.10337
0.106024
0.108522
0.110819
0.112914
0.114815
0.116521
0.118044
0.119402
0.120613
0.12171
0.122725
0.123698
0.124669
0.125684
0.126771
0.127952
0.129231
0.130578
0.131933
0.133195
0.134247
0.13499
0.135397
0.135576
0.0142078
0.0292483
0.0377446
0.0442005
0.0497361
0.0547379
0.0594026
0.0638372
0.0680832
0.0721696
0.0761421
0.0800662
0.0839859
0.0878622
0.0915779
0.0950984
0.0985385
0.101926
0.105132
0.108035
0.110827
0.113468
0.115855
0.118023
0.119991
0.121746
0.12331
0.124707
0.125961
0.127112
0.128202
0.129277
0.130385
0.13158
0.132901
0.134384
0.136042
0.137864
0.139799
0.141757
0.143637
0.145376
0.147043
0.148973
0.0150943
0.0314411
0.0402815
0.0468862
0.0524192
0.0573601
0.061935
0.0662635
0.0704072
0.0744236
0.0783849
0.0823556
0.0863698
0.0903963
0.0944005
0.0983349
0.102204
0.106058
0.109681
0.1129
0.115894
0.118732
0.121166
0.123378
0.125403
0.127174
0.128746
0.130154
0.131419
0.132594
0.13373
0.13488
0.136102
0.137459
0.139006
0.140791
0.142846
0.145174
0.147736
0.150445
0.153192
0.155917
0.158741
0.162142
0.0157011
0.0329949
0.0422402
0.0490866
0.0547494
0.0597358
0.0642964
0.0685668
0.0726293
0.0765638
0.0804583
0.0843771
0.0883398
0.0923074
0.0962692
0.100296
0.104456
0.108698
0.112841
0.116847
0.120525
0.12397
0.126765
0.12906
0.131172
0.132901
0.134433
0.135819
0.137048
0.138207
0.139353
0.140544
0.141854
0.143354
0.145116
0.147209
0.149682
0.152557
0.155805
0.159335
0.163008
0.166738
0.170666
0.175417
0.0160337
0.0340903
0.0437252
0.0508275
0.0566813
0.0617879
0.0664059
0.0706821
0.0747144
0.078594
0.0824136
0.0862403
0.0900958
0.0939575
0.0978319
0.101814
0.105974
0.110235
0.114448
0.118697
0.122999
0.127155
0.130971
0.134139
0.13694
0.138969
0.140433
0.141782
0.142904
0.143997
0.145107
0.146301
0.14767
0.149295
0.151269
0.153683
0.156609
0.160089
0.164109
0.168564
0.173266
0.178066
0.183109
0.189207
0.0161853
0.0348418
0.0448241
0.0521622
0.0582202
0.0634881
0.0682121
0.0725478
0.0766016
0.0804686
0.0842397
0.0879837
0.0917314
0.0954812
0.0992485
0.103111
0.107132
0.111265
0.115423
0.119688
0.124087
0.128404
0.132563
0.136557
0.140274
0.143484
0.145803
0.147759
0.149012
0.149993
0.151014
0.15216
0.153568
0.155303
0.157495
0.160264
0.163703
0.167881
0.172802
0.178347
0.184246
0.190236
0.196425
0.20388
0.0162437
0.035357
0.0456079
0.0531621
0.0594153
0.0648513
0.0697077
0.0741376
0.0782524
0.0821463
0.0859057
0.0895983
0.093263
0.0969148
0.100575
0.104302
0.108149
0.112103
0.116124
0.120258
0.124526
0.128798
0.133037
0.137251
0.141269
0.144999
0.148378
0.151341
0.153749
0.155486
0.156953
0.158088
0.159536
0.161367
0.163793
0.16698
0.171034
0.176055
0.18208
0.188972
0.196323
0.20368
0.210997
0.21973
0.0162936
0.035684
0.0461527
0.0539019
0.0603293
0.0659211
0.0709152
0.0754563
0.0796563
0.0836066
0.0873875
0.0910638
0.0946791
0.0982589
0.101829
0.105435
0.109119
0.112891
0.116737
0.120683
0.124743
0.128855
0.132989
0.137143
0.141211
0.145154
0.148935
0.152398
0.155544
0.158413
0.160967
0.163036
0.16515
0.167406
0.170111
0.173819
0.178635
0.184712
0.192146
0.200792
0.209943
0.218901
0.22715
0.236899
0.0163525
0.0358753
0.0465398
0.0544532
0.0610264
0.0667528
0.071872
0.0765278
0.0808233
0.0848474
0.0886742
0.0923645
0.0959629
0.0995011
0.103008
0.106519
0.110071
0.113682
0.117354
0.121104
0.124944
0.128848
0.132794
0.136777
0.140748
0.144679
0.148544
0.152248
0.155812
0.159258
0.162528
0.165666
0.168884
0.172228
0.175915
0.180596
0.186468
0.193899
0.203188
0.21428
0.225675
0.236571
0.245025
0.255283
0.0164081
0.0360099
0.0468342
0.0548776
0.0615654
0.0674005
0.0726255
0.077384
0.0817755
0.0858799
0.0897671
0.0934932
0.0971019
0.100627
0.104097
0.107545
0.111
0.114484
0.118006
0.121581
0.125219
0.128912
0.132651
0.136431
0.140233
0.144044
0.147855
0.151631
0.155393
0.159171
0.162962
0.166852
0.170962
0.175442
0.180605
0.186763
0.194146
0.203415
0.214777
0.228087
0.243761
0.25786
0.264561
0.274606
0.291326
0.0164816
0.0361359
0.0470844
0.0552244
0.0619957
0.0679119
0.0732198
0.0780635
0.0825403
0.0867238
0.0906768
0.0944516
0.0980897
0.101624
0.105084
0.108498
0.11189
0.115283
0.11869
0.122122
0.125592
0.1291
0.132645
0.136227
0.139846
0.143502
0.147203
0.150955
0.154791
0.158762
0.162917
0.167367
0.172259
0.177804
0.184298
0.19196
0.201099
0.212254
0.225494
0.240631
0.258261
0.273072
0.284618
0.294527
0.311732
0.016586
0.036283
0.0473241
0.0555298
0.0623555
0.0683259
0.073693
0.0786017
0.0831479
0.0874019
0.0914191
0.0952479
0.098927
0.102488
0.105958
0.109361
0.112722
0.116058
0.119384
0.122712
0.126053
0.129412
0.132794
0.136207
0.139658
0.14316
0.146738
0.150422
0.154265
0.158339
0.162735
0.167595
0.173101
0.179493
0.187051
0.196006
0.206656
0.219401
0.234099
0.250272
0.267273
0.28429
0.301766
0.31489
0.332555
0.0167269
0.0364674
0.0475741
0.0558177
0.0626717
0.0686717
0.074075
0.0790283
0.0836264
0.0879372
0.0920125
0.0958943
0.0996192
0.103216
0.10671
0.110124
0.113476
0.116785
0.120063
0.123322
0.126573
0.129824
0.133083
0.136361
0.139674
0.143045
0.146508
0.150111
0.153925
0.158041
0.162582
0.167712
0.173641
0.180619
0.188918
0.198778
0.210454
0.224203
0.239908
0.257126
0.275708
0.297039
0.321868
0.337518
0.354039
0.0169041
0.0366948
0.0478439
0.0561015
0.0629609
0.0689687
0.0743876
0.0793661
0.0839987
0.0883516
0.092474
0.0964043
0.100175
0.103812
0.107339
0.110776
0.114139
0.117444
0.120702
0.123924
0.12712
0.130301
0.133475
0.136657
0.139868
0.143137
0.146505
0.150033
0.153802
0.157921
0.16253
0.16781
0.173983
0.181303
0.190036
0.200421
0.21268
0.226992
0.243421
0.261865
0.282817
0.30823
0.339313
0.359985
0.375576
0.0171125
0.036963
0.0481345
0.0563855
0.0632311
0.0692283
0.0746447
0.0796311
0.0842821
0.0886626
0.0928201
0.0967906
0.100603
0.104281
0.107846
0.111314
0.114701
0.118019
0.121279
0.124491
0.127663
0.130806
0.133931
0.137055
0.140199
0.143397
0.146697
0.150164
0.153888
0.157985
0.162608
0.167944
0.174218
0.181685
0.190605
0.20122
0.213746
0.228373
0.245295
0.264897
0.287933
0.316109
0.350981
0.379658
0.396756
0.0173444
0.037264
0.0484408
0.056668
0.0634838
0.0694552
0.0748542
0.0798336
0.0844887
0.0888835
0.0930641
0.097065
0.100913
0.104629
0.108232
0.111736
0.115155
0.118499
0.121778
0.125
0.128173
0.131307
0.134414
0.137511
0.140622
0.143782
0.14704
0.150466
0.154153
0.158221
0.162824
0.168152
0.174429
0.181904
0.190835
0.201473
0.214051
0.228807
0.246048
0.266367
0.290753
0.320379
0.356038
0.393584
0.416487
0.0175903
0.0375863
0.0487535
0.0569427
0.0637161
0.0696495
0.0750191
0.0799794
0.0846261
0.0890233
0.0932161
0.0972376
0.101113
0.104862
0.108501
0.112042
0.115498
0.118876
0.122186
0.125433
0.128627
0.131775
0.13489
0.137989
0.141096
0.144247
0.147492
0.1509
0.154565
0.158607
0.163178
0.168464
0.174684
0.182081
0.190912
0.201438
0.213919
0.228644
0.246
0.266629
0.291573
0.321794
0.357574
0.397844
0.430189
0.0178405
0.037917
0.0490615
0.0572014
0.0639225
0.0698086
0.0751393
0.0800706
0.084699
0.0890884
0.0932834
0.0973163
0.101212
0.104987
0.108658
0.112235
0.115729
0.119146
0.122494
0.125779
0.129007
0.132188
0.135332
0.138456
0.141585
0.144754
0.148012
0.151428
0.155092
0.159121
0.163663
0.168897
0.175035
0.182311
0.190983
0.201318
0.2136
0.228157
0.245418
0.266013
0.290845
0.320905
0.356214
0.395828
0.435842
0.0180857
0.0382428
0.0493535
0.0574353
0.0640968
0.0699286
0.0752132
0.0801079
0.0847098
0.0890828
0.0932713
0.0973073
0.101214
0.10501
0.108708
0.112318
0.115849
0.119307
0.122698
0.126027
0.129301
0.132528
0.135718
0.138887
0.14206
0.145271
0.148568
0.152016
0.155703
0.159741
0.164271
0.169464
0.17552
0.182669
0.19116
0.201267
0.213288
0.22757
0.244553
0.264827
0.289156
0.318349
0.352753
0.391416
0.432552
0.0183178
0.0385521
0.0496191
0.0576361
0.0642326
0.0700053
0.0752384
0.0800907
0.0846595
0.089009
0.0931838
0.0972154
0.101127
0.104936
0.108655
0.112294
0.11586
0.119359
0.122795
0.126174
0.129501
0.132783
0.136032
0.139263
0.142499
0.145774
0.149132
0.152638
0.156375
0.160448
0.164991
0.170167
0.176164
0.183202
0.191525
0.201402
0.213135
0.227077
0.243656
0.263412
0.286989
0.315044
0.347993
0.385556
0.426464
0.0185301
0.0388342
0.0498494
0.0577968
0.0643249
0.0700349
0.075213
0.0800184
0.084549
0.0888694
0.0930241
0.0970448
0.100955
0.104771
0.108505
0.112168
0.115765
0.119303
0.122785
0.126216
0.129601
0.132947
0.136265
0.13957
0.142884
0.146241
0.149683
0.153271
0.157083
0.161222
0.165811
0.171003
0.176978
0.183943
0.192131
0.201805
0.213263
0.226847
0.242965
0.262102
0.284812
0.311644
0.343
0.378933
0.41906
0.0187172
0.0390808
0.0500374
0.057912
0.0643697
0.0700151
0.0751355
0.0798908
0.0843793
0.0886659
0.0927952
0.0967993
0.100701
0.104518
0.108263
0.111944
0.115569
0.119143
0.122669
0.126153
0.129598
0.133013
0.136408
0.139797
0.143203
0.146657
0.150202
0.153895
0.157811
0.162046
0.166716
0.171966
0.177964
0.184906
0.193012
0.202537
0.213764
0.227021
0.242688
0.261202
0.283043
0.308686
0.338514
0.372719
0.411258
0.0188747
0.0392849
0.0501777
0.0579781
0.0643644
0.0699442
0.0750054
0.0797084
0.0841517
0.0884007
0.0925004
0.0964829
0.100372
0.104184
0.107933
0.111628
0.115276
0.118882
0.122451
0.125986
0.129494
0.132981
0.136457
0.139939
0.143447
0.147013
0.150678
0.154497
0.158542
0.162904
0.167693
0.173045
0.179117
0.186094
0.194186
0.203631
0.214701
0.227704
0.242991
0.260958
0.282027
0.306621
0.335098
0.36771
0.404582
0.0189999
0.0394416
0.050267
0.0579928
0.064308
0.069822
0.0748232
0.0794723
0.0838683
0.0880767
0.0921429
0.0960996
0.0999707
0.103774
0.107522
0.111226
0.114892
0.118526
0.122134
0.12572
0.129289
0.13285
0.136412
0.139991
0.143611
0.1473
0.1511
0.155065
0.159263
0.163782
0.168726
0.174224
0.180424
0.187501
0.195652
0.205105
0.216113
0.228969
0.243996
0.261555
0.28203
0.3058
0.33321
0.364531
0.399966
0.0190918
0.0395479
0.0503036
0.0579555
0.0642006
0.0696492
0.0745903
0.0791846
0.0835315
0.0876969
0.0917266
0.0956538
0.0995028
0.103292
0.107035
0.110743
0.114422
0.118081
0.121725
0.125358
0.128988
0.132622
0.136272
0.139955
0.143692
0.147514
0.151462
0.15559
0.159964
0.164667
0.169802
0.175489
0.181871
0.189113
0.197403
0.206957
0.218015
0.230853
0.245774
0.263115
0.283229
0.306472
0.333177
0.363633
0.398086
0.0191512
0.0396029
0.0502876
0.0578669
0.0640432
0.0694275
0.0743087
0.0788478
0.0831445
0.087265
0.0912557
0.0951501
0.0989735
0.102745
0.106478
0.110185
0.113874
0.117553
0.121228
0.124907
0.128595
0.132303
0.136041
0.139829
0.143689
0.147652
0.15176
0.156065
0.160634
0.165548
0.170905
0.176824
0.18344
0.190912
0.199421
0.209172
0.220399
0.233363
0.248355
0.265694
0.285718
0.308772
0.335188
0.365276
0.399317
0.0191811
0.0396077
0.0502204
0.0577287
0.0638378
0.0691589
0.0739808
0.0784648
0.0827105
0.0867848
0.0907343
0.0945935
0.0983879
0.102137
0.105857
0.109559
0.113253
0.116948
0.120651
0.124371
0.128115
0.131895
0.135722
0.139617
0.143604
0.147715
0.151991
0.156487
0.161268
0.166415
0.172025
0.178212
0.185111
0.192874
0.201679
0.211725
0.223239
0.236478
0.251725
0.269292
0.289512
0.312731
0.339292
0.36953
0.403765
0.0191858
0.0395645
0.0501041
0.0575429
0.0635867
0.068846
0.0736097
0.0780387
0.0822333
0.0862603
0.0901672
0.0939888
0.0977515
0.101476
0.105178
0.108871
0.112567
0.116273
0.120001
0.123758
0.127555
0.131404
0.13532
0.139323
0.143439
0.147701
0.152154
0.156851
0.161859
0.167259
0.173148
0.179639
0.186863
0.194975
0.204147
0.214579
0.226496
0.240153
0.255834
0.273854
0.29455
0.318279
0.345404
0.37629
0.411295
0.0191715
0.0394747
0.0499414
0.0573121
0.0632923
0.0684915
0.0731981
0.0775729
0.0817163
0.0856956
0.0895587
0.0933409
0.0970696
0.100766
0.104448
0.108128
0.111821
0.115536
0.119283
0.123074
0.126921
0.130837
0.13484
0.13895
0.143196
0.147614
0.152249
0.157156
0.162403
0.168073
0.174263
0.181087
0.188677
0.197187
0.206791
0.217691
0.230115
0.244322
0.260602
0.27928
0.300706
0.325255
0.353316
0.385285
0.421559
0.0191364
0.0393467
0.0497353
0.0570389
0.0629575
0.0680982
0.072749
0.0770706
0.0811633
0.0850947
0.0889132
0.0926548
0.0963476
0.100014
0.103672
0.107337
0.111023
0.114742
0.118505
0.122327
0.126219
0.130199
0.134286
0.138503
0.14288
0.147456
0.152276
0.157399
0.162896
0.16885
0.17536
0.182542
0.190531
0.199482
0.209573
0.221011
0.234031
0.2489
0.26592
0.285429
0.307796
0.333419
0.362713
0.396105
0.434024
0.0190745
0.0391832
0.0494929
0.0567283
0.0625849
0.0676687
0.0722655
0.0765349
0.0805776
0.0844613
0.0882348
0.0919349
0.0955903
0.0992243
0.102856
0.106503
0.110179
0.113898
0.117674
0.121522
0.125458
0.129498
0.133666
0.137988
0.142495
0.147228
0.152236
0.157581
0.163334
0.169582
0.176427
0.183988
0.192401
0.201828
0.212451
0.224483
0.238169
0.253787
0.271654
0.292125
0.315588
0.342464
0.373194
0.40823
0.448018
0.0189878
0.0389839
0.0492138
0.0563831
0.0621802
0.0672075
0.0717504
0.0759688
0.0799626
0.083799
0.0875276
0.0911856
0.0948026
0.0984027
0.102006
0.105632
0.109295
0.113011
0.116796
0.120667
0.124641
0.128738
0.132984
0.137407
0.142042
0.146933
0.15213
0.157698
0.163712
0.170262
0.177453
0.185406
0.194264
0.204191
0.215378
0.228045
0.242447
0.258873
0.277657
0.299169
0.323817
0.352042
0.384304
0.421069
0.46279
0.0188781
0.0387507
0.0488995
0.0560041
0.0617438
0.0667176
0.0712089
0.0753769
0.0793214
0.0831111
0.0867952
0.0904109
0.0939887
0.0975537
0.101127
0.104729
0.108376
0.112087
0.115877
0.119767
)
;

boundaryField
{
    leftWall
    {
        type            kqRWallFunction;
        value           nonuniform List<scalar> 
44
(
0.00241058
0.00403987
0.00500103
0.00550564
0.00572184
0.00595471
0.00612812
0.00630276
0.00676203
0.00823674
0.0104958
0.0127546
0.0142078
0.0150943
0.0157011
0.0160337
0.0161853
0.0162437
0.0162936
0.0163525
0.0164081
0.0164816
0.016586
0.0167269
0.0169041
0.0171125
0.0173444
0.0175903
0.0178405
0.0180857
0.0183178
0.0185301
0.0187172
0.0188747
0.0189999
0.0190918
0.0191512
0.0191811
0.0191858
0.0191715
0.0191364
0.0190745
0.0189878
0.0188781
)
;
    }
    rightWall
    {
        type            kqRWallFunction;
        value           nonuniform 0();
    }
    lowerWall
    {
        type            kqRWallFunction;
        value           nonuniform List<scalar> 
44
(
0.00241058
0.00430723
0.00614671
0.00784487
0.00943391
0.0107524
0.0118494
0.0127811
0.0135928
0.0143207
0.0149917
0.0156248
0.0162378
0.01684
0.0174232
0.0179833
0.0185183
0.0190282
0.0195132
0.0199733
0.0204079
0.0208157
0.0211947
0.0215418
0.0218522
0.0221205
0.0223392
0.0224999
0.0225934
0.0226099
0.0225398
0.0223745
0.0221073
0.0217353
0.0212596
0.0206845
0.0200146
0.0192584
0.0184516
0.017673
0.0169679
0.0162003
0.0149383
0.0130339
)
;
    }
    atmosphere
    {
        type            inletOutlet;
        inletValue      nonuniform 0();
        value           nonuniform 0();
    }
    defaultFaces
    {
        type            empty;
    }
    procBoundary0to1
    {
        type            processor;
        value           nonuniform List<scalar> 
44
(
0.0103557
0.0216763
0.0300745
0.0379233
0.045495
0.0530902
0.0612001
0.0708027
0.0831663
0.0995633
0.118308
0.135843
0.151931
0.167169
0.182326
0.198095
0.214838
0.232689
0.251576
0.271228
0.271228
0.319269
0.340139
0.360489
0.380324
0.399431
0.417472
0.434313
0.450274
0.46411
0.47108
0.468526
0.462006
0.453804
0.445718
0.439673
0.436758
0.437579
0.442307
0.450774
0.462529
0.476882
0.492977
0.509867
)
;
    }
    procBoundary0to2
    {
        type            processor;
        value           nonuniform List<scalar> 
46
(
0.123775
0.127926
0.132245
0.136765
0.141526
0.146571
0.151956
0.157748
0.164025
0.17088
0.178422
0.186777
0.196091
0.206535
0.218305
0.231629
0.246772
0.264036
0.283765
0.306345
0.332199
0.36178
0.395559
0.434003
0.477557
0.0187477
0.0384861
0.0485521
0.0555931
0.0612775
0.0662
0.0706422
0.0747621
0.0786594
0.0824024
0.0860411
0.0896143
0.0931527
0.0966816
0.100224
0.1038
0.107429
0.11113
0.114923
0.123775
0.118827
)
;
    }
}


// ************************************************************************* //
