/*--------------------------------*- C++ -*----------------------------------*\
| =========                 |                                                 |
| \\      /  F ield         | OpenFOAM: The Open Source CFD Toolbox           |
|  \\    /   O peration     | Version:  5.0                                   |
|   \\  /    A nd           | Web:      www.OpenFOAM.org                      |
|    \\/     M anipulation  |                                                 |
\*---------------------------------------------------------------------------*/
FoamFile
{
    version     2.0;
    format      ascii;
    class       volScalarField;
    location    "0.75";
    object      p;
}
// * * * * * * * * * * * * * * * * * * * * * * * * * * * * * * * * * * * * * //

dimensions      [1 -1 -2 0 0 0 0];

internalField   nonuniform List<scalar> 
1935
(
426.864
425.767
425.796
427.309
430.304
434.339
439.087
444.395
450.226
456.591
463.517
471.028
479.101
487.819
497.138
507.03
517.469
528.425
539.858
551.727
563.986
576.586
589.477
602.604
615.914
629.348
642.848
656.352
669.795
683.109
696.224
709.062
721.544
733.581
745.067
755.888
765.956
775.106
783.273
790.215
796.071
800.816
804.672
807.876
379.777
378.375
378.076
379.39
382.265
386.224
390.959
396.336
402.294
408.82
415.917
423.601
431.903
440.77
450.212
460.218
470.765
481.821
493.346
505.299
517.633
530.302
543.254
556.436
569.792
583.266
596.801
610.334
623.803
637.144
650.286
663.154
675.669
687.736
699.246
710.077
720.144
729.409
737.687
744.189
748.703
752.372
755.314
757.49
331.575
330.422
330.522
332.008
334.71
338.479
343.111
348.471
354.484
361.114
368.345
376.188
384.624
393.636
403.219
413.359
424.033
435.209
446.847
458.905
471.336
484.095
497.129
510.384
523.805
537.335
550.914
564.481
577.973
591.325
604.467
617.324
629.81
641.831
653.274
664.01
673.929
682.985
691.012
697.248
701.572
704.965
707.114
708.135
282.887
282.119
282.801
284.479
287.196
290.868
295.398
300.695
306.694
313.355
320.661
328.581
337.118
346.249
355.957
366.223
377.023
388.323
400.084
412.26
424.806
437.674
450.811
464.163
477.672
491.28
504.927
518.549
532.083
545.461
558.61
571.454
583.903
595.86
607.21
617.821
627.564
636.325
643.925
649.915
654.257
657.429
659.303
659.47
234.196
233.758
235.072
236.921
239.62
243.196
247.61
252.812
258.749
265.381
272.691
280.657
289.268
298.498
308.319
318.707
329.635
341.069
352.965
365.276
377.956
390.954
404.218
417.692
431.317
445.033
458.777
472.487
486.094
499.529
512.718
525.58
538.024
549.948
561.236
571.755
581.365
589.93
597.258
603.056
607.255
610.113
611.541
611.141
185.308
185.706
187.276
189.21
191.848
195.301
199.578
204.665
210.512
217.08
224.36
232.343
241.009
250.328
260.262
270.778
281.847
293.431
305.483
317.952
330.791
343.946
357.363
370.988
384.759
398.615
412.492
426.324
440.043
453.577
466.848
479.773
492.26
504.204
515.488
525.978
535.53
543.993
551.18
556.862
560.934
563.453
564.344
563.558
136.271
137.417
139.207
141.179
143.739
147.072
151.212
156.199
161.953
168.432
175.651
183.623
192.332
201.737
211.784
222.432
233.648
245.398
257.626
270.279
283.307
296.65
310.252
324.061
338.012
352.043
366.088
380.082
393.956
407.632
421.033
434.075
446.662
458.688
470.036
480.571
490.148
498.603
505.751
511.385
515.368
517.656
518.177
517.034
86.8749
88.5674
90.5231
92.5667
95.0451
98.2728
102.353
107.25
112.924
119.315
126.476
134.46
143.253
152.791
162.976
173.753
185.106
197.017
209.423
222.271
235.508
249.064
262.88
276.907
291.077
305.32
319.572
333.768
347.841
361.709
375.291
388.506
401.255
413.432
424.918
435.58
445.267
453.806
461.001
466.645
470.572
472.684
472.916
471.49
37.0515
39.2486
41.3571
43.2661
45.3737
48.0784
51.6213
56.2042
61.8709
68.3592
75.6921
83.9546
93.1301
103.117
113.669
124.705
136.277
148.409
161.018
174.049
187.48
201.239
215.272
229.539
243.956
258.446
272.944
287.385
301.706
315.814
329.63
343.076
356.052
368.451
380.155
391.029
400.915
409.624
416.942
422.637
426.505
428.414
428.318
426.572
6.1225
7.20565
8.15823
8.84022
9.54471
10.5347
11.9968
14.1249
17.2011
21.4157
26.8213
33.414
41.3401
50.7609
61.7159
73.6352
86.0628
98.991
112.21
125.611
139.343
153.34
167.566
182.045
196.698
211.445
226.21
240.931
255.551
269.95
284.052
297.789
311.057
323.75
335.752
346.926
357.101
366.07
373.583
379.357
383.112
384.637
383.83
380.985
-0.0969459
-0.0962944
-0.0884456
-0.0674899
-0.0511483
-0.0386914
-0.0141631
0.0595894
0.256938
0.962803
2.28126
4.22874
6.97674
10.7924
16.5296
24.5759
34.4239
46.2588
59.8758
74.6893
89.7326
104.627
119.291
134.093
149.009
163.995
179.004
194.007
208.968
223.704
238.139
252.232
265.858
278.92
291.304
302.871
313.44
322.774
330.576
336.477
340.065
340.94
338.74
333.218
-0.141215
-0.141968
-0.140728
-0.138398
-0.135895
-0.132495
-0.12694
-0.117009
-0.101374
-0.0861555
-0.0859717
-0.0877512
-0.0842225
-0.0625117
0.219178
1.50986
4.04207
8.29145
14.8486
24.9582
37.678
52.1692
68.1379
84.4533
100.386
115.864
131.171
146.451
161.776
176.871
191.672
206.184
220.238
233.749
246.605
258.67
269.754
279.593
287.836
294.006
297.517
297.723
293.936
285.392
-0.201905
-0.201259
-0.197308
-0.19183
-0.187095
-0.182693
-0.179033
-0.176734
-0.176918
-0.179857
-0.182135
-0.182249
-0.178386
-0.163845
-0.13986
-0.131275
-0.15094
-0.14734
-0.0161412
1.50164
5.02344
10.8932
20.4661
33.6314
49.1165
65.8817
82.3228
98.2972
114.184
129.683
144.846
159.827
174.37
188.409
201.827
214.502
226.248
236.773
245.688
252.41
256.169
256.09
251.269
240.829
-0.254094
-0.254685
-0.252217
-0.247845
-0.242653
-0.237858
-0.233751
-0.230718
-0.229292
-0.22974
-0.230247
-0.229784
-0.227393
-0.223092
-0.228615
-0.242361
-0.249512
-0.240089
-0.212796
-0.192626
-0.248581
-0.218474
0.594261
3.7583
9.98406
20.0758
32.9927
48.3632
65.7481
82.117
97.6519
113.165
128.247
142.881
156.946
170.35
182.92
194.35
204.248
211.946
216.491
216.796
211.827
200.889
-0.309675
-0.3096
-0.307634
-0.303996
-0.299777
-0.295566
-0.291692
-0.288366
-0.285842
-0.284463
-0.283741
-0.282902
-0.281344
-0.279558
-0.282794
-0.290242
-0.294456
-0.293129
-0.294536
-0.315125
-0.326596
-0.300687
-0.268965
-0.342914
-0.347886
0.55583
3.7258
10.2544
21.4563
34.7362
49.8407
66.3506
82.0272
97.245
112.004
126.252
139.826
152.399
163.646
172.835
178.825
180.319
176.118
165.812
-0.365557
-0.36534
-0.363636
-0.360575
-0.357074
-0.353489
-0.350116
-0.347152
-0.344778
-0.343186
-0.342179
-0.341329
-0.340332
-0.339388
-0.340401
-0.343736
-0.346864
-0.348279
-0.351778
-0.364281
-0.371452
-0.368936
-0.389897
-0.410658
-0.389756
-0.367143
-0.476537
-0.46011
0.916963
4.87934
12.1522
23.128
36.4594
51.8878
67.3129
82.4304
97.2119
111.224
124.337
135.691
143.807
147.147
144.384
135.375
-0.422258
-0.42185
-0.42027
-0.417678
-0.414688
-0.411614
-0.408705
-0.406145
-0.404086
-0.402626
-0.401648
-0.400941
-0.400391
-0.400158
-0.401072
-0.403407
-0.406096
-0.408241
-0.411117
-0.417815
-0.424483
-0.42872
-0.443319
-0.456496
-0.457438
-0.481612
-0.505446
-0.48837
-0.490354
-0.628606
-0.467674
1.32222
6.21301
14.5281
25.1395
38.8961
54.6727
70.5261
86.5091
101.615
113.206
118.935
117.429
109.436
-0.479791
-0.479152
-0.477621
-0.475367
-0.472809
-0.470185
-0.467693
-0.465494
-0.463711
-0.462415
-0.461554
-0.461032
-0.460822
-0.461064
-0.462174
-0.464254
-0.466762
-0.469305
-0.472468
-0.47769
-0.48366
-0.488914
-0.498227
-0.509642
-0.518499
-0.536893
-0.55261
-0.55698
-0.579807
-0.595825
-0.595563
-0.666059
-0.755692
-0.435779
1.89837
7.71054
16.461
28.7913
45.7578
66.0942
85.7157
97.9077
97.7438
88.7662
-0.538119
-0.537235
-0.535703
-0.533699
-0.531506
-0.529285
-0.527181
-0.525328
-0.523825
-0.522736
-0.522049
-0.521732
-0.521789
-0.522317
-0.523527
-0.525462
-0.527865
-0.530594
-0.533989
-0.538711
-0.544166
-0.549826
-0.557789
-0.567726
-0.577349
-0.590855
-0.60612
-0.61824
-0.637032
-0.650043
-0.665969
-0.691057
-0.693368
-0.693654
-0.780811
-0.825034
-0.725088
2.42418
9.61819
22.1138
45.4772
73.4455
84.5699
74.7827
-0.597199
-0.596082
-0.594518
-0.592704
-0.590818
-0.58895
-0.587204
-0.585684
-0.584471
-0.583622
-0.583148
-0.583045
-0.583331
-0.584065
-0.585352
-0.587217
-0.589548
-0.592302
-0.595673
-0.59999
-0.605047
-0.610763
-0.618125
-0.626976
-0.636423
-0.648215
-0.661814
-0.674522
-0.6901
-0.705953
-0.721595
-0.738161
-0.745568
-0.759736
-0.78395
-0.792563
-0.777224
-0.770283
-0.753422
-0.477376
5.28222
27.3744
59.6108
62.7401
-0.656996
-0.655673
-0.65407
-0.652404
-0.650774
-0.649214
-0.647792
-0.646583
-0.645656
-0.645058
-0.64481
-0.644923
-0.645415
-0.646321
-0.647694
-0.649545
-0.651827
-0.654531
-0.657772
-0.661737
-0.666415
-0.671879
-0.678629
-0.68666
-0.695686
-0.706402
-0.718361
-0.73031
-0.743735
-0.757754
-0.770957
-0.784637
-0.794861
-0.804925
-0.815179
-0.816631
-0.809986
-0.808782
-0.799572
-0.760547
-0.545288
0.390127
19.2066
38.8071
30.0058
-0.71748
-0.715991
-0.714357
-0.712811
-0.711397
-0.710103
-0.708968
-0.708046
-0.707389
-0.707037
-0.707015
-0.707335
-0.708014
-0.709071
-0.71053
-0.712392
-0.714635
-0.717261
-0.720345
-0.72401
-0.728324
-0.733408
-0.73956
-0.746861
-0.755238
-0.764914
-0.775543
-0.786452
-0.798004
-0.809544
-0.820313
-0.83076
-0.838932
-0.845275
-0.850382
-0.848315
-0.837054
-0.820984
-0.791588
-0.753587
-0.684992
-0.408325
0.497155
9.02664
10.0283
-0.778629
-0.777018
-0.775369
-0.773926
-0.772694
-0.77163
-0.770748
-0.770084
-0.769677
-0.769557
-0.76975
-0.770267
-0.771116
-0.772308
-0.773846
-0.775726
-0.777931
-0.780468
-0.783387
-0.786783
-0.790752
-0.79543
-0.80103
-0.807657
-0.8153
-0.823981
-0.833416
-0.843124
-0.852984
-0.862464
-0.871057
-0.878676
-0.884301
-0.887837
-0.889023
-0.884172
-0.871003
-0.850689
-0.816839
-0.76721
-0.696131
-0.611195
-0.781207
-1.81136
-9.69826
-0.840421
-0.838736
-0.837092
-0.835743
-0.834666
-0.833798
-0.833136
-0.832701
-0.832519
-0.832615
-0.833006
-0.833704
-0.834709
-0.836021
-0.837633
-0.83953
-0.841699
-0.84414
-0.846895
-0.850041
-0.853686
-0.857969
-0.863062
-0.869069
-0.875991
-0.883757
-0.892093
-0.900581
-0.908919
-0.916664
-0.923412
-0.928922
-0.932582
-0.93404
-0.932618
-0.9262
-0.913337
-0.894057
-0.866295
-0.829879
-0.782317
-0.739194
-0.887165
-1.44749
-15.2243
-0.902836
-0.901125
-0.899509
-0.898248
-0.897305
-0.896605
-0.896132
-0.895896
-0.895914
-0.896203
-0.896774
-0.897635
-0.89878
-0.9002
-0.901877
-0.903792
-0.905924
-0.908273
-0.910869
-0.913785
-0.917129
-0.921041
-0.925672
-0.931118
-0.937372
-0.944313
-0.951661
-0.95902
-0.966034
-0.972325
-0.977576
-0.981545
-0.983804
-0.983898
-0.981099
-0.974115
-0.962103
-0.945067
-0.922888
-0.897503
-0.86927
-0.827855
-0.822885
-1.28741
-10.5494
-0.965854
-0.964162
-0.962596
-0.961421
-0.960597
-0.96004
-0.95973
-0.959666
-0.959859
-0.960318
-0.961049
-0.962053
-0.963321
-0.964835
-0.966571
-0.9685
-0.970599
-0.972861
-0.975311
-0.978017
-0.981088
-0.984662
-0.988879
-0.993826
-0.999481
-1.0057
-1.01218
-1.01856
-1.02446
-1.02959
-1.03369
-1.03658
-1.03792
-1.03725
-1.03391
-1.02704
-1.01617
-1.00149
-0.983489
-0.964274
-0.944916
-0.904184
-0.821555
-1.17208
-4.36303
-1.02945
-1.02782
-1.02632
-1.02524
-1.02452
-1.02409
-1.02392
-1.02401
-1.02435
-1.02496
-1.02583
-1.02696
-1.02833
-1.02992
-1.03171
-1.03365
-1.03572
-1.0379
-1.04022
-1.04274
-1.04557
-1.04884
-1.0527
-1.05721
-1.06234
-1.06794
-1.07369
-1.07925
-1.08427
-1.0885
-1.0918
-1.094
-1.09484
-1.09388
-1.09053
-1.08421
-1.07473
-1.06242
-1.04796
-1.0328
-1.0192
-0.999643
-0.948192
-0.985611
-1.6839
-1.09361
-1.09207
-1.09066
-1.08967
-1.08905
-1.08873
-1.08868
-1.0889
-1.08938
-1.09011
-1.09111
-1.09235
-1.09381
-1.09547
-1.0973
-1.09925
-1.10129
-1.1034
-1.1056
-1.10796
-1.11058
-1.11359
-1.11713
-1.12127
-1.12597
-1.13104
-1.13621
-1.14111
-1.14545
-1.14906
-1.15183
-1.15368
-1.15437
-1.15349
-1.15052
-1.14506
-1.13709
-1.12705
-1.11562
-1.10356
-1.09207
-1.07997
-1.04136
-0.959161
-1.26377
-1.15829
-1.15687
-1.15557
-1.15467
-1.15415
-1.15393
-1.154
-1.15433
-1.15492
-1.15577
-1.15687
-1.15821
-1.15975
-1.16148
-1.16334
-1.1653
-1.16732
-1.16937
-1.17147
-1.17369
-1.17612
-1.17891
-1.18219
-1.18602
-1.19036
-1.19503
-1.19973
-1.20413
-1.208
-1.21119
-1.21369
-1.21544
-1.21626
-1.21574
-1.21343
-1.20905
-1.2027
-1.19485
-1.18612
-1.17709
-1.16794
-1.1589
-1.14289
-1.09367
-1.08763
-1.22348
-1.2222
-1.22102
-1.22022
-1.21979
-1.21967
-1.21983
-1.22026
-1.22096
-1.22191
-1.22311
-1.22453
-1.22615
-1.22793
-1.22983
-1.23181
-1.23381
-1.23582
-1.23784
-1.23994
-1.24222
-1.24482
-1.24788
-1.25146
-1.25552
-1.25988
-1.26424
-1.2683
-1.27185
-1.27482
-1.27723
-1.27909
-1.28023
-1.28028
-1.27883
-1.2757
-1.27104
-1.2653
-1.25905
-1.25287
-1.24698
-1.24108
-1.23632
-1.22608
-1.19888
-1.28914
-1.28803
-1.28698
-1.28629
-1.28595
-1.28591
-1.28616
-1.28668
-1.28746
-1.2885
-1.28978
-1.29128
-1.29297
-1.29481
-1.29676
-1.29875
-1.30075
-1.30273
-1.3047
-1.30671
-1.30887
-1.31133
-1.31421
-1.31759
-1.32144
-1.32558
-1.32972
-1.33358
-1.33697
-1.33985
-1.34232
-1.34443
-1.34602
-1.34678
-1.34633
-1.34455
-1.34159
-1.33788
-1.3339
-1.33022
-1.32727
-1.32503
-1.32441
-1.32879
-1.3316
-1.35527
-1.35433
-1.35341
-1.35283
-1.35258
-1.35263
-1.35295
-1.35355
-1.35441
-1.35552
-1.35688
-1.35845
-1.3602
-1.3621
-1.36409
-1.36612
-1.36813
-1.37011
-1.37205
-1.374
-1.37607
-1.37841
-1.38116
-1.3844
-1.3881
-1.3921
-1.39613
-1.39991
-1.40326
-1.40619
-1.40883
-1.41126
-1.41339
-1.41492
-1.41555
-1.41515
-1.41389
-1.4121
-1.41023
-1.40877
-1.40821
-1.40889
-1.41147
-1.41841
-1.43374
-1.42184
-1.42107
-1.42031
-1.41984
-1.41968
-1.4198
-1.4202
-1.42087
-1.42179
-1.42297
-1.42438
-1.42601
-1.42782
-1.42977
-1.43181
-1.43388
-1.43593
-1.43792
-1.43986
-1.44178
-1.4438
-1.44606
-1.44871
-1.45184
-1.45546
-1.4594
-1.4634
-1.4672
-1.47063
-1.47371
-1.47658
-1.47939
-1.48208
-1.4844
-1.48611
-1.48709
-1.48748
-1.48754
-1.48764
-1.48827
-1.48988
-1.49292
-1.49823
-1.50716
-1.52194
-1.48883
-1.48824
-1.48763
-1.48728
-1.48721
-1.48742
-1.48789
-1.48861
-1.48959
-1.49082
-1.49229
-1.49397
-1.49583
-1.49783
-1.49992
-1.50204
-1.50413
-1.50616
-1.50812
-1.51005
-1.51204
-1.51426
-1.51684
-1.51991
-1.52347
-1.5274
-1.53146
-1.53537
-1.53896
-1.54226
-1.54542
-1.54861
-1.55184
-1.55492
-1.55765
-1.55995
-1.56192
-1.56375
-1.56575
-1.56837
-1.57208
-1.57734
-1.58493
-1.59593
-1.61081
-1.55624
-1.55582
-1.55537
-1.55514
-1.55517
-1.55546
-1.55599
-1.55678
-1.55782
-1.55909
-1.5606
-1.56232
-1.56422
-1.56627
-1.56841
-1.57058
-1.57273
-1.57481
-1.57682
-1.57878
-1.58079
-1.58298
-1.58553
-1.58856
-1.59211
-1.59607
-1.60023
-1.60431
-1.60813
-1.6117
-1.61517
-1.61873
-1.62244
-1.6262
-1.62984
-1.63332
-1.63674
-1.64025
-1.64408
-1.64863
-1.65434
-1.66173
-1.6714
-1.68426
-1.70083
-1.62407
-1.6238
-1.62351
-1.62341
-1.62354
-1.62391
-1.62452
-1.62536
-1.62645
-1.62777
-1.62932
-1.63108
-1.63302
-1.63511
-1.63729
-1.63952
-1.64173
-1.64389
-1.64596
-1.64798
-1.65002
-1.65223
-1.65477
-1.65778
-1.66133
-1.66535
-1.66964
-1.67393
-1.67802
-1.68189
-1.68566
-1.68956
-1.69368
-1.698
-1.70242
-1.70692
-1.71162
-1.71665
-1.72221
-1.72859
-1.7362
-1.74552
-1.75712
-1.77165
-1.78985
-1.69229
-1.69217
-1.69204
-1.69206
-1.6923
-1.69276
-1.69344
-1.69435
-1.69549
-1.69685
-1.69844
-1.70023
-1.70221
-1.70434
-1.70658
-1.70887
-1.71115
-1.71338
-1.71554
-1.71764
-1.71975
-1.722
-1.72455
-1.72756
-1.73111
-1.73519
-1.7396
-1.74412
-1.7485
-1.75268
-1.75675
-1.76093
-1.76539
-1.77015
-1.77521
-1.78057
-1.78635
-1.79272
-1.79984
-1.80794
-1.81733
-1.82842
-1.84175
-1.85784
-1.87732
-1.76093
-1.76093
-1.76095
-1.7611
-1.76145
-1.76199
-1.76275
-1.76373
-1.76492
-1.76633
-1.76796
-1.76979
-1.77181
-1.77398
-1.77627
-1.77862
-1.78098
-1.78331
-1.78557
-1.78778
-1.78998
-1.79229
-1.79487
-1.79787
-1.80143
-1.80553
-1.81006
-1.81477
-1.81942
-1.8239
-1.82826
-1.8327
-1.83741
-1.84254
-1.84811
-1.8542
-1.86091
-1.86843
-1.87692
-1.88657
-1.89759
-1.91032
-1.9252
-1.9427
-1.96323
-1.82996
-1.83008
-1.83024
-1.83052
-1.83097
-1.83161
-1.83244
-1.83348
-1.83474
-1.8362
-1.83787
-1.83974
-1.8418
-1.84401
-1.84635
-1.84878
-1.85123
-1.85367
-1.85605
-1.85838
-1.8607
-1.8631
-1.86572
-1.86873
-1.87225
-1.87634
-1.8809
-1.88573
-1.89061
-1.89536
-1.9
-1.90468
-1.90964
-1.91508
-1.92112
-1.92785
-1.9354
-1.94392
-1.95359
-1.96455
-1.97697
-1.9911
-2.0073
-2.02592
-2.04723
-1.89939
-1.89963
-1.89991
-1.90031
-1.90087
-1.90159
-1.90251
-1.90361
-1.90492
-1.90644
-1.90815
-1.91006
-1.91216
-1.91443
-1.91683
-1.91933
-1.92188
-1.92444
-1.92696
-1.92945
-1.93191
-1.93442
-1.93711
-1.94011
-1.94357
-1.94756
-1.95205
-1.95689
-1.96188
-1.96684
-1.97174
-1.9767
-1.98196
-1.98776
-1.99427
-2.00163
-2.00994
-2.01934
-2.02996
-2.04192
-2.05537
-2.07052
-2.08763
-2.10697
-2.12862
-1.96924
-1.96956
-1.96997
-1.97049
-1.97114
-1.97195
-1.97294
-1.97411
-1.97547
-1.97704
-1.9788
-1.98075
-1.9829
-1.98521
-1.98767
-1.99025
-1.9929
-1.99559
-1.99829
-2.00096
-2.0036
-2.00625
-2.00901
-2.01199
-2.01534
-2.01914
-2.02343
-2.02812
-2.03308
-2.03816
-2.04332
-2.04864
-2.05432
-2.0606
-2.06765
-2.07563
-2.08461
-2.0947
-2.10599
-2.11857
-2.1326
-2.14825
-2.16575
-2.18527
-2.20682
-2.0395
-2.0399
-2.04042
-2.04104
-2.04178
-2.04268
-2.04373
-2.04497
-2.04639
-2.048
-2.0498
-2.0518
-2.05398
-2.05634
-2.05886
-2.06152
-2.06428
-2.06712
-2.06999
-2.07288
-2.07573
-2.07854
-2.08137
-2.08432
-2.08752
-2.09106
-2.09502
-2.09942
-2.10421
-2.10933
-2.11475
-2.12051
-2.12674
-2.1336
-2.14123
-2.14975
-2.15925
-2.16978
-2.18142
-2.19427
-2.20846
-2.22416
-2.24153
-2.26072
-2.28177
-2.11018
-2.11066
-2.11127
-2.11199
-2.11281
-2.11378
-2.1149
-2.11619
-2.11766
-2.11931
-2.12115
-2.12319
-2.12541
-2.12781
-2.13039
-2.13312
-2.13598
-2.13896
-2.14202
-2.14511
-2.14815
-2.15111
-2.15403
-2.15698
-2.16005
-2.16334
-2.16697
-2.17103
-2.17559
-2.18068
-2.18631
-2.19249
-2.19925
-2.20665
-2.21478
-2.22371
-2.2335
-2.24423
-2.25598
-2.26882
-2.2829
-2.29832
-2.31523
-2.33375
-2.35402
-2.1813
-2.18184
-2.18254
-2.18333
-2.18423
-2.18526
-2.18644
-2.18777
-2.18928
-2.19097
-2.19285
-2.19491
-2.19716
-2.1996
-2.20222
-2.20501
-2.20795
-2.21104
-2.21424
-2.21747
)
;

boundaryField
{
    leftWall
    {
        type            calculated;
        value           nonuniform List<scalar> 
44
(
426.864
379.777
331.575
282.887
234.196
185.308
136.271
86.8749
37.0515
6.1225
-0.0969459
-0.141215
-0.201905
-0.254094
-0.309675
-0.365557
-0.422258
-0.479791
-0.538119
-0.597199
-0.656996
-0.71748
-0.778629
-0.840421
-0.902836
-0.965854
-1.02945
-1.09361
-1.15829
-1.22348
-1.28914
-1.35527
-1.42184
-1.48883
-1.55624
-1.62407
-1.69229
-1.76093
-1.82996
-1.89939
-1.96924
-2.0395
-2.11018
-2.1813
)
;
    }
    rightWall
    {
        type            calculated;
        value           nonuniform 0();
    }
    lowerWall
    {
        type            calculated;
        value           nonuniform List<scalar> 
44
(
450.408
449.31
449.339
450.852
453.847
457.883
462.63
467.939
473.77
480.134
487.06
494.571
502.645
511.363
520.681
530.573
541.012
551.968
563.402
575.27
587.529
600.13
613.02
626.148
639.457
652.892
666.392
679.895
693.338
706.653
719.767
732.606
745.088
757.124
768.61
779.432
789.5
798.605
806.318
813.255
819.615
824.347
828.152
831.332
)
;
    }
    atmosphere
    {
        type            calculated;
        value           nonuniform 0();
    }
    defaultFaces
    {
        type            empty;
    }
    procBoundary0to1
    {
        type            processor;
        value           nonuniform List<scalar> 
44
(
809.79
758.6
707.959
657.989
609.133
561.54
515.029
469.623
424.877
378.029
325.108
271.588
224.006
183.652
149.71
120.943
96.4225
75.5557
58.3375
44.317
44.317
24.2128
11.3956
-6.02193
-25.2514
-37.3961
-31.4674
-15.5353
-3.83697
-1.5414
-1.24129
-1.31575
-1.44125
-1.54168
-1.63019
-1.72057
-1.81174
-1.90084
-1.98743
-2.0715
-2.15265
-2.23037
-2.30471
-2.37625
)
;
    }
    procBoundary0to2
    {
        type            processor;
        value           nonuniform List<scalar> 
46
(
-2.22066
-2.22376
-2.22679
-2.22982
-2.23287
-2.23605
-2.23948
-2.24331
-2.24768
-2.25269
-2.25838
-2.26477
-2.27184
-2.27958
-2.28801
-2.29716
-2.30709
-2.31786
-2.32955
-2.34224
-2.35602
-2.37101
-2.38729
-2.405
-2.42439
-2.25287
-2.25346
-2.25423
-2.25509
-2.25605
-2.25713
-2.25836
-2.25973
-2.26128
-2.26299
-2.26489
-2.26697
-2.26924
-2.27169
-2.27433
-2.27715
-2.28014
-2.28329
-2.28655
-2.22066
-2.28986
)
;
    }
}


// ************************************************************************* //
