/*--------------------------------*- C++ -*----------------------------------*\
| =========                 |                                                 |
| \\      /  F ield         | OpenFOAM: The Open Source CFD Toolbox           |
|  \\    /   O peration     | Version:  5.0                                   |
|   \\  /    A nd           | Web:      www.OpenFOAM.org                      |
|    \\/     M anipulation  |                                                 |
\*---------------------------------------------------------------------------*/
FoamFile
{
    version     2.0;
    format      ascii;
    class       volScalarField;
    location    "0.95";
    object      k;
}
// * * * * * * * * * * * * * * * * * * * * * * * * * * * * * * * * * * * * * //

dimensions      [0 2 -2 0 0 0 0];

internalField   nonuniform List<scalar> 
1915
(
0.010404
0.0032397
0.0263621
0.00836169
0.039113
0.0140658
0.0538009
0.020413
0.0725573
0.0282824
0.097429
0.0386866
0.130865
0.053024
0.17602
0.0752245
0.238461
0.110924
0.327004
0.205225
0.0335518
0.0389302
0.046669
0.0592237
0.0714585
0.0833701
0.0944734
0.104492
0.113313
0.120941
0.127516
0.133419
0.138108
0.141561
0.144079
0.145965
0.147504
0.148862
0.149988
0.150631
0.150493
0.149356
0.14708
0.143554
0.138673
0.132477
0.125508
0.118152
0.110494
0.102343
0.093663
0.0851979
0.0772338
0.0694832
0.0616465
0.0531502
0.0436524
0.0341056
0.0239782
0.0135656
0.0578529
0.108294
0.134436
0.150179
0.163941
0.177902
0.19318
0.209002
0.224405
0.238648
0.251283
0.262095
0.271222
0.278985
0.285524
0.291025
0.295689
0.299616
0.30268
0.304523
0.3047
0.302855
0.298771
0.292375
0.283691
0.27283
0.260159
0.246027
0.230567
0.213854
0.196115
0.178007
0.159806
0.142506
0.12563
0.108383
0.0896381
0.0692964
0.0483786
0.0234736
0.0846503
0.156129
0.183579
0.200318
0.216762
0.234394
0.252534
0.269928
0.286061
0.30082
0.314229
0.326371
0.337439
0.34747
0.356467
0.364457
0.371456
0.377399
0.382039
0.384935
0.385545
0.38341
0.378223
0.369936
0.358786
0.345129
0.329116
0.31085
0.290522
0.26836
0.244747
0.220576
0.196793
0.174139
0.152724
0.131666
0.109875
0.0866976
0.0619023
0.0291806
0.109994
0.194424
0.220316
0.238156
0.257533
0.277529
0.296313
0.313288
0.328824
0.343307
0.35697
0.369948
0.382399
0.394271
0.405476
0.415888
0.425312
0.433487
0.440037
0.444471
0.446173
0.444552
0.439126
0.429735
0.416613
0.400322
0.381176
0.359266
0.334842
0.308074
0.279253
0.249538
0.220501
0.193534
0.168795
0.145218
0.121562
0.0969012
0.07014
0.0321462
0.128813
0.225153
0.251271
0.270677
0.292014
0.312793
0.331066
0.347162
0.362027
0.376231
0.390074
0.403709
0.417325
0.430883
0.444267
0.457221
0.469324
0.48007
0.488973
0.495581
0.499252
0.499213
0.494662
0.485153
0.470699
0.45185
0.429179
0.403148
0.37411
0.342347
0.308295
0.273043
0.238555
0.207126
0.179319
0.153723
0.128768
0.103225
0.0750817
0.0330668
0.142743
0.249921
0.278877
0.300292
0.322341
0.342522
0.359728
0.375034
0.389401
0.40337
0.417324
0.431472
0.446089
0.461216
0.476765
0.492395
0.507465
0.521194
0.532973
0.542449
0.549123
0.551985
0.549748
0.541465
0.526731
0.505976
0.479913
0.449237
0.414489
0.37627
0.335656
0.294073
0.253728
0.217548
0.186729
0.15933
0.133149
0.106635
0.0769763
0.0338205
0.154808
0.271151
0.304795
0.328246
0.349506
0.368095
0.384291
0.39913
0.413039
0.426606
0.440476
0.454953
0.4704
0.486943
0.504525
0.522761
0.540913
0.558065
0.573408
0.586635
0.597648
0.605175
0.607139
0.601793
0.588227
0.56661
0.537711
0.50236
0.461241
0.415084
0.365495
0.315247
0.26774
0.226244
0.192456
0.163548
0.13629
0.108866
0.077972
0.0340467
0.166857
0.291399
0.330026
0.35474
0.374312
0.39093
0.406368
0.420849
0.433982
0.446716
0.460181
0.474835
0.490998
0.508802
0.528151
0.548656
0.569592
0.590057
0.609326
0.627445
0.644635
0.659454
0.668428
0.66851
0.658054
0.636958
0.606173
0.566509
0.518634
0.46318
0.402155
0.340056
0.282691
0.2347
0.197924
0.168181
0.14049
0.112663
0.080876
0.0339592
0.180225
0.311903
0.353911
0.378117
0.395697
0.41051
0.42507
0.438586
0.450667
0.462824
0.476246
0.491357
0.508302
0.527167
0.547883
0.570165
0.593403
0.616875
0.640295
0.664184
0.688939
0.713173
0.732894
0.742828
0.738521
0.719971
0.688725
0.645565
0.590902
0.524889
0.449703
0.372023
0.30126
0.244892
0.205191
0.176199
0.150268
0.124407
0.09235
0.0365878
0.196652
0.331491
0.372952
0.395671
0.411466
0.424891
0.437955
0.450474
0.462624
0.475422
0.489539
0.505254
0.522765
0.542252
0.563809
0.587333
0.61248
0.638966
0.66711
0.697753
0.731167
0.7659
0.798541
0.822452
0.829763
0.818052
0.78856
0.743297
0.682426
0.604892
0.512441
0.414751
0.326439
0.259477
0.21761
0.192661
0.174266
0.1565
0.125776
0.0518927
0.439005
0.386203
0.56385
0.53251
0.710911
0.674476
0.864761
0.838068
0.999638
0.982718
1.0952
0.923764
1.0322
0.843248
0.94576
0.776825
0.879088
0.726753
0.834594
0.692206
0.671901
0.664412
0.668291
0.682169
0.70492
0.735519
0.773355
0.818142
0.870195
0.929063
0.992661
1.05378
1.08645
1.05724
0.984908
0.902356
0.828411
0.767491
0.699136
0.629001
0.554339
0.483967
0.423946
0.25732
0.176671
0.124827
0.140239
0.463134
0.362249
0.265018
0.20855
0.595999
0.448809
0.31585
0.250249
0.697603
0.488059
0.344735
0.280072
0.703135
0.497182
0.361687
0.302798
0.677244
0.493399
0.372538
0.321016
0.64162
0.48478
0.379965
0.335604
0.608387
0.475267
0.385226
0.347049
0.581817
0.467173
0.389319
0.355958
0.563131
0.461914
0.393233
0.363087
0.552578
0.460378
0.397886
0.369269
0.55009
0.463135
0.404057
0.375381
0.555463
0.470645
0.412547
0.382391
0.568462
0.483368
0.424237
0.391345
0.58892
0.501827
0.440093
0.403378
0.616769
0.526638
0.461178
0.419748
0.652104
0.558519
0.488653
0.441843
0.695211
0.598256
0.523721
0.471137
0.746458
0.646505
0.567424
0.509019
0.805621
0.703349
0.620259
0.556453
0.871305
0.767778
0.681636
0.613368
0.94009
0.837125
0.74931
0.677974
1.00667
0.906699
0.819243
0.747495
1.0464
0.969678
0.88669
0.816909
1.02308
1.00518
0.942804
0.879728
0.952004
0.978154
0.966466
0.925838
0.873806
0.909599
0.929569
0.927866
0.808296
0.836813
0.861411
0.878156
0.738252
0.770897
0.794196
0.814483
0.666714
0.697883
0.726096
0.752281
0.591022
0.620205
0.646117
0.672605
0.517148
0.545789
0.5714
0.594998
0.452641
0.478837
0.503074
0.525529
0.224246
0.344417
0.38466
0.406789
0.422027
0.435013
0.447398
0.459989
0.473036
0.486782
0.501454
0.517358
0.534922
0.554526
0.576452
0.600848
0.627767
0.657419
0.690568
0.728499
0.771541
0.817947
0.864662
0.905391
0.930681
0.931902
0.90896
0.864118
0.798529
0.708904
0.595452
0.472345
0.361715
0.282064
0.240045
0.224423
0.220949
0.215593
0.18492
0.0859292
0.254594
0.351809
0.391086
0.41358
0.429577
0.443151
0.456151
0.469576
0.483622
0.498139
0.512941
0.528397
0.545362
0.564534
0.586409
0.611404
0.639949
0.672612
0.710433
0.755227
0.807818
0.866818
0.930357
0.992739
1.04121
1.06155
1.04975
1.0099
0.945888
0.844239
0.704548
0.54913
0.410953
0.316704
0.275305
0.272528
0.283643
0.283725
0.245536
0.130074
0.280995
0.357482
0.395466
0.418978
0.436532
0.451565
0.465963
0.480501
0.495553
0.510757
0.525212
0.539326
0.554797
0.572844
0.594156
0.619401
0.649306
0.684548
0.726072
0.775895
0.836186
0.907956
0.991316
1.08172
1.16264
1.20853
1.20998
1.17435
1.11319
1.0191
0.844902
0.6478
0.477134
0.365135
0.321259
0.328965
0.351165
0.347925
0.292682
0.171267
0.302545
0.363354
0.399773
0.424708
0.444506
0.462034
0.478658
0.494368
0.51044
0.526591
0.540203
0.551552
0.564109
0.580032
0.600115
0.625193
0.656159
0.693346
0.737275
0.790105
0.855955
0.937794
1.03905
1.16169
1.2929
1.37504
1.39613
1.35975
1.28387
1.20473
1.02156
0.769574
0.56409
0.434134
0.388316
0.407031
0.435524
0.422311
0.346999
0.207389
0.32012
0.369572
0.40453
0.431244
0.454267
0.476041
0.496331
0.513498
0.530384
0.54501
0.552672
0.55991
0.569605
0.583569
0.602492
0.627308
0.659087
0.698538
0.743542
0.797848
0.867518
0.956043
1.06913
1.21387
1.39603
1.55535
1.61611
1.5832
1.47485
1.36342
1.21629
0.909519
0.674829
0.532329
0.488305
0.513825
0.538323
0.515
0.426282
0.239164
0.334512
0.375675
0.409495
0.438394
0.466051
0.494753
0.517076
0.537961
0.557217
0.563462
0.557471
0.559603
0.567784
0.581414
0.600099
0.624609
0.656248
0.696591
0.743771
0.799665
0.871279
0.962904
1.0822
1.23888
1.44359
1.70245
1.84217
1.86291
1.69938
1.52641
1.35923
1.05614
0.810135
0.652429
0.600289
0.621411
0.635535
0.604888
0.497715
0.262548
0.346009
0.38103
0.414057
0.445544
0.479276
0.51504
0.536689
0.563598
0.581581
0.573548
0.563388
0.559472
0.564584
0.577084
0.595546
0.62002
0.651485
0.690993
0.739037
0.797297
0.869451
0.960222
1.08029
1.24093
1.45861
1.75574
2.05679
2.14332
1.96
1.6783
1.45491
1.22711
0.978949
0.789132
0.70977
0.707955
0.70531
0.655048
0.52959
0.277773
0.354839
0.38513
0.417319
0.451073
0.491048
0.52337
0.544863
0.560696
0.570616
0.568812
0.569825
0.561835
0.562291
0.573358
0.591468
0.615735
0.646677
0.685262
0.732476
0.790228
0.861467
0.951047
1.06761
1.22392
1.44105
1.74877
2.17752
2.21688
2.1382
1.80024
1.53962
1.35974
1.14638
0.931582
0.813596
0.772427
0.748053
0.683108
0.553786
0.291192
0.361344
0.387633
0.418452
0.452642
0.491192
0.513605
0.531382
0.53418
0.539974
0.549849
0.569492
0.561353
0.560079
0.570644
0.588691
0.612726
0.642906
0.680222
0.725875
0.781264
0.849663
0.938434
1.04978
1.19476
1.39894
1.68853
2.09767
2.2031
2.08748
1.84094
1.58243
1.38301
1.20163
1.01344
0.879565
0.820243
0.78572
0.710849
0.577714
0.305522
0.366005
0.388561
0.417312
0.449823
0.479931
0.501476
0.511149
0.513193
0.517836
0.528361
0.547904
0.554256
0.557434
0.568897
0.58741
0.61142
0.640855
0.676704
0.720277
0.772945
0.83807
0.923403
1.02896
1.15935
1.34434
1.60476
1.96533
2.1493
2.00385
1.79808
1.56801
1.36973
1.19866
1.04827
0.937011
0.879096
0.833677
0.744452
0.600079
0.314455
0.369453
0.388384
0.414644
0.44408
0.470933
0.490913
0.496094
0.498772
0.502585
0.512334
0.530081
0.544462
0.555332
0.568316
0.587772
0.61209
0.640936
0.675272
0.716504
0.766148
0.827487
0.907667
1.00485
1.12257
1.28869
1.52093
1.84113
2.05259
1.92842
1.73125
1.53069
1.34876
1.19367
1.07274
0.990193
0.941086
0.883718
0.77658
0.618344
0.318741
0.372473
0.387854
0.411709
0.439109
0.465537
0.482358
0.488122
0.491685
0.493581
0.501676
0.518196
0.538077
0.553346
0.568998
0.590066
0.615038
0.643463
0.676302
0.715117
0.76147
0.818311
0.891838
0.979761
1.08761
1.23813
1.44616
1.73021
1.93959
1.84637
1.66483
1.48501
1.32229
1.186
1.08846
1.02942
0.989598
0.922933
0.800831
0.632027
0.320417
0.375931
0.387704
0.409318
0.435165
0.459851
0.475862
0.48696
0.490188
0.48906
0.495619
0.511106
0.532963
0.552675
0.571936
0.59494
0.620668
0.648697
0.679978
0.716049
0.75885
0.811192
0.87741
0.956744
1.05734
1.19539
1.38344
1.63646
1.82638
1.75847
1.59819
1.43586
1.29121
1.17255
1.09262
1.05004
1.0172
0.944662
0.815025
0.641593
0.3211
0.380752
0.388597
0.407721
0.430486
0.451678
0.467904
0.484345
0.487609
0.486651
0.493532
0.509522
0.532102
0.555902
0.578534
0.603205
0.629456
0.656731
0.686048
0.719166
0.758347
0.806414
0.866062
0.938859
1.03341
1.16105
1.33236
1.55765
1.72115
1.66988
1.53185
1.38604
1.25743
1.15428
1.08729
1.05531
1.02613
0.950844
0.822509
0.646464
0.321755
0.387978
0.3913
0.406968
0.425679
0.443119
0.459617
0.477232
0.484493
0.486118
0.495284
0.513084
0.537274
0.564341
0.589657
0.61562
0.641727
0.667607
0.694501
0.724406
0.760059
0.804311
0.85865
0.926611
1.01601
1.13481
1.29189
1.49292
1.6283
1.58475
1.46624
1.33684
1.22307
1.13392
1.0777
1.05242
1.02462
0.950856
0.828133
0.646861
0.318092
0.398839
0.396915
0.408238
0.422969
0.437347
0.454279
0.473247
0.484612
0.489265
0.501536
0.521833
0.548019
0.577919
0.60592
0.632737
0.657938
0.681546
0.705333
0.731744
0.764132
0.805108
0.855508
0.919942
1.00476
1.11596
1.26131
1.43931
1.54291
1.50309
1.40102
1.28818
1.18937
1.11374
1.06743
1.0459
1.01855
0.948617
0.827583
0.64142
0.308297
0.414788
0.407039
0.413879
0.42485
0.436427
0.453341
0.474157
0.488993
0.497306
0.513085
0.536228
0.564653
0.596605
0.627564
0.655149
0.678423
0.6986
0.718399
0.741162
0.770758
0.809101
0.856621
0.918361
0.999002
1.10346
1.23825
1.39167
1.46523
1.42534
1.33647
1.23957
1.15583
1.09355
1.05611
1.03573
1.00572
0.93591
0.813724
0.628604
0.297036
0.437405
0.423246
0.425594
0.433553
0.442883
0.459099
0.481156
0.499032
0.511309
0.530707
0.556805
0.587578
0.621197
0.654862
0.682725
0.702819
0.718296
0.733324
0.752869
0.780168
0.816556
0.861858
0.921174
0.998081
1.09669
1.22222
1.34977
1.39343
1.35196
1.27407
1.19159
1.12164
1.07093
1.0399
1.01852
0.983445
0.910598
0.789801
0.610515
0.287845
0.468278
0.446866
0.443202
0.45
0.4588
0.474064
0.496236
0.516416
0.532141
0.554966
0.583929
0.616942
0.652071
0.687328
0.713931
0.729446
0.739208
0.750143
0.767307
0.792573
0.827076
0.870498
0.927625
1.00139
1.09526
1.21225
1.31213
1.32847
1.28415
1.21518
1.14514
1.08696
1.04512
1.01769
0.993691
0.953186
0.878104
0.760933
0.589904
0.279657
0.508861
0.479835
0.469138
0.47312
0.484652
0.499907
0.52177
0.541993
0.560245
0.58621
0.617767
0.652628
0.688686
0.723418
0.746115
0.755698
0.760512
0.768928
0.784232
0.807844
0.840514
0.881858
0.936968
1.00831
1.09888
1.20571
1.27434
1.26885
1.22186
1.16015
1.10057
1.05212
1.01695
0.991132
0.96368
0.918415
0.842416
0.729843
0.567761
0.270708
0.559824
0.523838
0.506545
0.504819
0.515181
0.533052
0.553856
0.572832
0.595325
0.624457
0.658154
0.694173
0.73022
0.761072
0.77651
0.780507
0.78248
0.789052
0.802686
0.824962
0.855087
0.8948
0.948331
1.01791
1.10619
1.19627
1.23194
1.21185
1.1639
1.1085
1.05767
1.01708
0.986722
0.961317
0.930507
0.881562
0.805554
0.69774
0.544321
0.2604
0.620289
0.57925
0.556258
0.54893
0.554411
0.569944
0.589909
0.611508
0.638042
0.669541
0.704452
0.740583
0.775288
0.798091
0.804722
0.804692
0.804812
0.809531
0.82144
0.84144
0.86908
0.90819
0.96098
1.0292
1.11183
1.17638
1.18487
1.15569
1.1088
1.05942
1.01599
0.981626
0.954577
0.928859
0.895076
0.843563
0.768233
0.665052
0.519725
0.248838
0.687966
0.643797
0.616711
0.604956
0.606236
0.617898
0.636621
0.660097
0.688331
0.720529
0.755188
0.790089
0.820627
0.831643
0.831839
0.828851
0.826398
0.828608
0.838108
0.855714
0.882803
0.921629
0.974762
1.04347
1.11021
1.14102
1.13303
1.09975
1.05582
1.01236
0.97524
0.945623
0.920699
0.894184
0.857969
0.804883
0.730738
0.632005
0.494225
0.236331
0.758008
0.713139
0.684125
0.669687
0.668021
0.676855
0.693728
0.71657
0.744204
0.775081
0.807591
0.839727
0.858758
0.86039
0.8576
0.85052
0.84395
0.843586
0.851385
0.868435
0.89561
0.934479
0.987378
1.05172
1.09369
1.09998
1.08088
1.04558
1.00494
0.966841
0.935015
0.909131
0.885412
0.857896
0.819833
0.765921
0.69333
0.598873
0.468179
0.223225
0.824605
0.781705
0.753143
0.738004
0.734783
0.741527
0.756182
0.776868
0.801931
0.829258
0.857043
0.87929
0.885827
0.885072
0.876105
0.86266
0.853659
0.852962
0.861547
0.879508
0.907536
0.947049
0.997283
1.04114
1.05929
1.05275
1.02813
0.992829
0.955801
0.922647
0.895302
0.872245
0.849281
0.820728
0.781276
0.727075
0.656314
0.565969
0.44197
0.20983
0.880061
0.842701
0.817335
0.803558
0.800044
0.805271
0.817556
0.83516
0.85602
0.877524
0.8953
0.90393
0.904092
0.893363
0.876357
0.862271
0.855902
0.858239
0.869346
0.889394
0.919207
0.958681
0.99541
1.01247
1.01382
1.00128
0.974841
0.941121
0.908198
0.879762
0.856255
0.835324
0.8127
0.783314
0.742831
0.688731
0.619982
0.533593
0.415944
0.196402
0.908792
0.885606
0.867901
0.857895
0.85508
0.859179
0.86909
0.883332
0.899329
0.909443
0.912321
0.90819
0.894542
0.877391
0.863256
0.854973
0.854068
0.861064
0.876025
0.899102
0.931196
0.961558
0.973882
0.973564
0.964855
0.947991
0.921358
0.890704
0.862396
0.838416
0.818109
0.798681
0.776063
0.745956
0.704913
0.651248
0.584593
0.502014
0.390396
0.18315
0.885992
0.887101
0.886403
0.885213
0.88515
0.888218
0.894507
0.901609
0.905729
0.902015
0.892146
0.878691
0.864675
0.853108
0.846127
0.845093
0.850784
0.863609
0.883462
0.909129
0.934744
0.943786
0.940457
0.930513
0.916209
0.895518
0.869313
0.84266
0.818968
0.798892
0.781052
0.762525
0.739633
0.708855
0.667662
0.614848
0.550374
0.471485
0.365601
0.170261
0.829306
0.840595
0.850523
0.857656
0.862263
0.8657
0.868951
0.870011
0.865578
0.857557
0.848135
0.838829
0.831439
0.827742
0.829003
0.835878
0.848705
0.868094
0.890231
0.908077
0.914078
0.909939
0.899528
0.885544
0.86793
0.845227
0.820659
0.797941
0.778282
0.761283
0.745113
0.726932
0.703554
0.672192
0.631045
0.579639
0.51759
0.442287
0.341856
0.157948
0.766856
0.778523
0.790963
0.801553
0.809344
0.814956
0.816928
0.815711
0.812081
0.807216
0.802866
0.800465
0.801121
0.805784
0.815416
0.830188
0.848891
0.869255
0.881386
0.884158
0.878889
0.869189
0.85641
0.840528
0.820363
0.797712
0.775863
0.756729
0.740293
0.72546
0.7102
0.691904
0.667927
0.63615
0.595378
0.545656
0.486359
0.414769
0.319559
0.146535
0.696076
0.713723
0.72908
0.741987
0.751762
0.760979
0.763785
0.763835
0.763709
0.763475
0.765135
0.769975
0.778215
0.790288
0.806944
0.824701
0.840266
0.849979
0.852058
0.84779
0.839129
0.827563
0.813359
0.795368
0.774483
0.753644
0.734887
0.718812
0.704733
0.691211
0.676227
0.657499
0.63292
0.600926
0.561046
0.51325
0.45685
0.389003
0.29897
0.136725
0.617362
0.637934
0.655364
0.670272
0.683124
0.694514
0.703029
0.709582
0.71589
0.722979
0.732515
0.7447
0.758571
0.773748
0.790198
0.803721
0.813101
0.817071
0.815085
0.808664
0.798969
0.786026
0.7699
0.75111
0.731641
0.713406
0.697561
0.683863
0.671319
0.658398
0.643249
0.623946
0.598855
0.567015
0.528434
0.482911
0.429537
0.365405
0.280327
0.128393
0.54685
0.565889
0.582657
0.598067
0.613063
0.627409
0.641624
0.655627
0.669669
0.684236
0.69961
0.715635
0.731773
0.747207
0.761059
0.771998
0.778719
0.780424
0.77728
0.769767
0.758537
0.744251
0.727607
0.709932
0.692719
0.677142
0.663627
0.651569
0.639859
0.627018
0.611422
0.591538
0.566189
0.535173
0.498294
0.455237
0.404881
0.344359
0.263961
0.121347
)
;

boundaryField
{
    leftWall
    {
        type            kqRWallFunction;
        value           nonuniform 0();
    }
    rightWall
    {
        type            kqRWallFunction;
        value           nonuniform List<scalar> 
43
(
0.0135656
0.0234736
0.0291806
0.0321462
0.0330668
0.0338205
0.0340467
0.0339592
0.0365878
0.0518927
0.0859292
0.130074
0.171267
0.207389
0.239164
0.262548
0.277773
0.291192
0.305522
0.314455
0.318741
0.320417
0.3211
0.321755
0.318092
0.308297
0.297036
0.287845
0.279657
0.270708
0.2604
0.248838
0.236331
0.223225
0.20983
0.196402
0.18315
0.170261
0.157948
0.146535
0.136725
0.128393
0.121347
)
;
    }
    lowerWall
    {
        type            kqRWallFunction;
        value           nonuniform List<scalar> 
66
(
0.010404
0.0032397
0.0032397
0.00836169
0.0140658
0.020413
0.0282824
0.0386866
0.053024
0.0752245
0.110924
0.205225
0.25732
0.176671
0.124827
0.140239
0.0335518
0.0578529
0.0846503
0.109994
0.128813
0.142743
0.154808
0.166857
0.180225
0.196652
0.0335518
0.0389302
0.046669
0.0592237
0.0714585
0.0833701
0.0944734
0.104492
0.113313
0.120941
0.127516
0.133419
0.138108
0.141561
0.144079
0.145965
0.147504
0.148862
0.149988
0.150631
0.150493
0.149356
0.14708
0.143554
0.138673
0.132477
0.125508
0.118152
0.110494
0.102343
0.093663
0.0851979
0.0772338
0.0694832
0.0616465
0.0531502
0.0436524
0.0341056
0.0239782
0.0135656
)
;
    }
    atmosphere
    {
        type            inletOutlet;
        inletValue      nonuniform 0();
        value           nonuniform 0();
    }
    defaultFaces
    {
        type            empty;
    }
    procBoundary1to0
    {
        type            processor;
        value           nonuniform List<scalar> 
44
(
0.0173518
0.0402564
0.0574612
0.0766583
0.100624
0.131348
0.170716
0.220679
0.283665
0.361364
0.453526
0.560218
0.684016
0.823656
0.909121
0.987334
1.04012
1.03363
1.0022
0.972299
0.810224
0.810224
0.80298
0.809693
0.82737
0.854015
0.887016
0.925445
0.968144
1.01647
1.06952
1.11007
1.11434
1.07165
0.999523
0.920802
0.847968
0.786672
0.729914
0.660197
0.58622
0.513281
0.447854
0.393568
)
;
    }
    procBoundary1to3
    {
        type            processor;
        value           nonuniform List<scalar> 
45
(
0.376472
0.40086
0.423934
0.445952
0.46674
0.487053
0.506171
0.523874
0.541017
0.558323
0.575867
0.593856
0.61232
0.630987
0.649611
0.667976
0.685982
0.703096
0.718244
0.730444
0.739184
0.743801
0.743884
0.739565
0.730956
0.718849
0.70441
0.688703
0.672853
0.657934
0.644586
0.632747
0.621659
0.610229
0.597134
0.581003
0.560763
0.535953
0.506193
0.471245
0.430623
0.383201
0.326142
0.25007
0.115571
)
;
    }
}


// ************************************************************************* //
