/*--------------------------------*- C++ -*----------------------------------*\
| =========                 |                                                 |
| \\      /  F ield         | OpenFOAM: The Open Source CFD Toolbox           |
|  \\    /   O peration     | Version:  5.0                                   |
|   \\  /    A nd           | Web:      www.OpenFOAM.org                      |
|    \\/     M anipulation  |                                                 |
\*---------------------------------------------------------------------------*/
FoamFile
{
    version     2.0;
    format      ascii;
    class       volScalarField;
    location    "0.95";
    object      p;
}
// * * * * * * * * * * * * * * * * * * * * * * * * * * * * * * * * * * * * * //

dimensions      [1 -1 -2 0 0 0 0];

internalField   nonuniform List<scalar> 
1915
(
620.304
618.196
571.615
570.058
523.291
521.376
474.109
471.906
423.659
421.857
371.731
371.336
318.031
320.318
262.416
268.425
203.026
215.753
133.567
167.25
1161.35
1124.45
1115.37
1100.76
1050.94
977.68
892.716
810.001
738.744
682.472
641.107
612.993
596.231
587.965
586.278
590.247
599.345
613.018
630.302
649.789
669.674
688.022
702.826
712.059
714.009
708.758
698.454
683.412
663.8
640.249
614.272
588.117
563.557
541.867
523.498
509.007
500.079
498.71
503.322
510.166
1109.84
1066.1
1082.9
1074.13
1021.14
938.614
844.88
756.385
681.698
623.578
581.256
552.836
534.738
524.789
521.76
524.608
532.429
544.371
559.408
576.399
593.829
610.079
623.479
632.446
634.956
630.907
622.415
609.371
591.587
570.169
546.785
523.653
502.124
483.501
468.023
455.982
449.01
449.848
456.495
464.78
1082.95
1039.54
1044.61
1023.03
961.354
875.587
783.415
697.948
625.372
567.492
523.766
492.452
471.188
458.237
452.49
452.935
458.567
468.502
481.505
496.527
512.065
526.885
539.779
549.846
555.545
557.114
551.283
539.569
522.269
501.691
479.785
459.161
441.13
426.513
415.073
406.556
402.24
402.389
407.9
416.032
1077.43
1016.4
991.982
949.558
880.367
796.817
710.857
631.467
563.384
507.691
464.044
431.15
407.19
390.866
381.514
378.591
381.498
389.855
402.13
417.266
433.04
448.575
462.787
475.34
484.874
491.869
493.287
484.999
470.174
449.536
425.632
402.863
384.348
372.58
365.106
359.815
357.311
356.756
359.563
366.172
1065.79
981.012
926.531
866.34
791.106
711.662
633.282
560.202
497.706
445.327
402.452
368.666
343.069
324.803
313.702
309.139
310.26
316.586
327.211
342.187
358.078
374.488
390.608
406.17
418.259
427.466
431.548
429.738
421.71
406.665
382.845
357.038
334.124
320.38
316.959
315.268
314.287
314.858
314.801
320.228
1032.92
927.024
848.482
775.628
699.342
623.592
549.853
483.465
427.117
378.213
336.61
305.203
284.232
272.719
268.753
269.587
273.553
278.693
285.705
295.578
305.492
315.117
326.059
340.724
354.123
365.295
371.596
373.253
368.725
355.69
337.299
315.224
290.545
272.028
268.135
272.4
274.227
276.319
274.563
277.282
971.02
852.495
760.987
685.896
614.078
529.685
451.39
394.336
348.984
309.396
276.743
257.798
249.026
247.593
251.222
258.235
267.216
276.345
286.311
295.316
301.276
301.897
297.388
294.769
297.463
307.741
317.985
321.587
317.94
306.654
290.111
268.252
246.794
226.644
219.382
230.041
236.46
240.353
238.4
236.429
875.896
756.979
668.303
609.227
542.282
447.377
368.036
327.417
294.239
265.414
245.522
233.864
229.873
231.708
237.661
246.833
258.372
271.131
284.141
296.052
306.096
310.593
308.232
295.13
273.316
262.175
268.66
275.957
275.476
264.503
245.01
221.532
199.966
179.545
171.521
187.435
199.589
206.598
206.307
194.76
738.416
643.204
574.259
538.353
478.103
393.921
335.25
298.798
267.651
240.822
221.291
210.767
206.826
207.418
211.704
219.092
228.6
239.537
250.443
261.516
275.544
293.508
304.982
305.105
284.977
251.045
231.156
235.455
239.9
228.875
205.956
177.539
152.077
131.737
125.799
144.665
161.822
171.191
171.149
159.629
539.574
511.749
476.613
454.062
404.159
350.521
309.399
268.245
231.832
203.966
186.743
173.609
164.92
160.278
160.44
164.416
171.132
177.848
182.772
188.616
204.899
227.688
255.435
275.141
276.523
254.593
216.579
199.637
209.357
202.51
174.01
137.946
106.277
84.4743
82.8557
101.845
118.28
125.579
127.942
115.386
44.065
38.9492
-4.6902
-8.84648
-5.09357
-10.496
-3.81241
-8.73755
-3.10075
-6.0069
-2.92308
-5.33062
-2.72569
-10.5935
-2.41398
-16.8329
-3.15249
-21.1241
-5.02714
-21.9084
-18.4576
-11.958
-3.73167
4.79484
11.5972
17.0115
20.8152
13.0706
-8.00746
-11.9014
-1.28052
15.0678
18.6416
4.93812
-9.06856
-15.9037
-6.49304
-2.29373
-2.03423
-2.13273
-2.2204
-2.27986
-2.3361
-9.79291
-55.6671
-46.7647
-143.233
-37.4307
-84.8842
-56.2839
-7.9644
-37.4956
-82.563
-46.7236
57.3146
-24.8195
-87.4699
-40.3851
54.7775
-34.3981
-83.7195
-26.2543
41.7211
-45.917
-64.003
-9.86194
32.4492
-51.3891
-43.3675
-3.01499
24.4574
-46.1431
-29.5548
-1.36633
16.6794
-35.7482
-20.4214
0.618432
12.3054
-23.4584
-10.2836
4.53836
10.5805
-12.1454
-0.170385
9.17391
10.0471
-3.05761
7.19594
12.8728
11.5703
4.5101
12.4666
15.8727
14.2873
10.8234
16.2793
18.1775
17.1219
15.2708
18.4277
19.2953
18.8533
17.5608
18.623
18.7343
18.7114
17.2918
16.6474
16.2765
16.6879
11.8836
11.8118
11.5677
12.2675
1.27355
4.28335
4.66227
4.87572
-9.39719
-4.52596
-3.49759
-4.85901
-18.5649
-13.6928
-11.8209
-14.6849
-8.42375
-18.3274
-18.014
-22.305
8.75762
-7.09225
-16.4911
-25.7754
13.8337
8.91407
-2.81053
-20.0245
1.9278
6.74066
3.92415
-5.49256
-12.6624
-4.82306
-4.27798
-7.58142
-15.5422
-16.8084
-12.426
-12.8411
-4.23819
-9.84992
-13.5512
-14.4121
-2.26198
-2.69446
-5.149
-8.39034
-2.08427
-2.06204
-2.45026
-3.17074
-2.21639
-2.18344
-2.16871
-2.23487
-2.29121
-2.29448
-2.29712
-2.29029
-2.3455
-2.35503
-2.36776
-2.37133
248.581
357.442
372.743
354.631
306.73
268.385
242.316
206.208
171.845
144.811
125.228
109.494
95.4286
85.3445
82.6151
86.3082
93.9867
102.443
106.541
115.901
138.905
163.834
188.126
203.512
213.802
224.777
204.697
169.985
165.685
176.179
151.307
104.394
63.7438
42.4894
41.955
55.6811
63.761
65.8408
74.8907
67.8019
188.623
243.542
272.239
253.381
205.233
166.074
135.959
107.274
81.6469
61.9727
45.3114
32.7667
23.8992
16.1663
14.0887
19.2892
30.1975
41.6714
51.8752
82.6193
117.7
147.121
170.138
168.906
139.616
141.669
160.777
145.797
115.233
124.802
126.544
79.506
30.3928
16.6148
16.3342
17.9434
17.6587
15.4405
26.9222
26.6525
173.814
176.872
188.784
162.578
114.401
69.0712
38.0128
24.7724
17.4182
11.0787
6.14425
3.36825
1.71946
-0.210262
-1.33191
-0.710476
0.750024
-0.908753
5.19223
52.2834
103.178
150.662
200.281
225.317
165.48
90.6621
85.884
102.148
94.5596
76.4351
84.5898
58.1565
13.3779
7.58617
5.41574
3.88759
2.71882
3.14133
7.39555
5.29027
128.634
124.286
120.571
86.5897
38.1103
3.06757
-0.298536
3.92842
2.95094
2.10112
1.31147
0.755516
0.36905
0.113087
-0.00913533
-0.0152407
-0.0655176
-4.78325
-15.8262
10.1066
63.8635
131.096
208.573
256.227
242.662
149.845
66.7577
55.0171
71.6249
59.3237
51.6089
36.5368
8.1345
3.88335
1.65342
0.828581
1.19576
1.97364
3.00551
1.66471
83.0262
77.9371
65.2238
27.1258
-11.2693
-8.73938
3.20155
2.79313
2.10023
1.61787
1.07995
0.700706
0.442284
0.266086
0.161435
0.119799
0.115798
-0.30259
-4.37967
-8.75975
9.0592
60.54
143.161
223.755
241.956
184.117
95.7601
40.5301
39.4554
43.447
30.667
23.0414
15.01
4.1364
0.832646
0.588092
0.973134
1.44523
1.80058
1.49468
51.5053
41.616
21.4448
-15.4115
-21.2438
0.0865275
5.89425
3.01174
2.27163
1.58066
0.977553
0.60827
0.36461
0.19093
0.084369
0.0252048
0.00766685
-0.00468595
-0.148933
-1.35069
-12.0537
-5.68722
49.5549
126.846
168.46
155.42
91.6867
37.1222
18.4095
23.0433
15.5268
13.8295
14.7587
5.03174
0.81412
0.435769
0.645588
0.975076
1.17118
1.29719
31.4945
16.1179
-8.99744
-33.8452
-12.0819
0.346393
5.0898
4.83683
2.73807
1.39599
0.724716
0.404962
0.223782
0.0776962
-0.0124293
-0.0690869
-0.0929795
-0.0601498
0.0511324
-0.0403479
-0.707109
-11.5479
6.28882
80.092
109.235
94.2607
65.2181
25.1271
9.68586
7.7351
7.20648
5.49392
3.41733
0.112351
-0.0734136
0.046498
0.247853
0.468508
0.603921
0.916821
17.1204
-1.21491
-25.9631
-25.7198
-7.02098
-0.940296
3.96926
6.63065
2.10887
0.706844
0.453324
0.136145
0.0415367
-0.0473807
-0.116273
-0.162423
-0.185334
-0.174542
-0.103612
-0.086944
-0.215591
-0.397104
1.24847
64.336
110.133
67.1075
30.9856
14.7189
7.46553
3.90244
3.06804
1.90517
0.862243
-0.311711
-0.448207
-0.265481
-0.0735591
0.0388153
0.157218
0.392614
7.85322
-11.4806
-30.6346
-19.243
-11.2627
-4.85079
-1.51818
-4.05701
-4.45215
0.250843
0.331746
-0.0264016
-0.128768
-0.183002
-0.233101
-0.267207
-0.282883
-0.27799
-0.245115
-0.218175
-0.226611
-0.233715
0.250347
50.5996
105.94
50.8096
10.1615
7.75563
5.27786
2.89348
1.52751
0.675624
0.0690743
-0.328895
-0.430666
-0.399045
-0.294571
-0.251539
-0.0722301
0.0590194
2.75249
-15.8734
-28.6466
-24.6802
-19.5805
-13.6006
-17.4307
-23.5532
-12.9426
-1.47732
0.0654802
-0.275411
-0.315648
-0.33729
-0.363729
-0.382596
-0.388462
-0.379573
-0.352124
-0.319708
-0.309518
-0.356099
0.610663
35.0779
85.8351
31.9981
3.86002
4.01288
3.38052
2.18891
1.40475
0.688283
0.0657956
-0.309984
-0.432387
-0.449612
-0.432556
-0.435064
-0.218353
0.00956432
1.50835
-17.1069
-32.4507
-33.9005
-29.7537
-28.3217
-33.6778
-28.371
-15.1682
-5.246
-1.17856
-0.521564
-0.485583
-0.493609
-0.500129
-0.504302
-0.500131
-0.484387
-0.454837
-0.415024
-0.39673
-0.461523
0.595678
24.6078
58.47
13.1365
2.0762
2.36272
2.28245
1.7692
1.35463
0.728377
0.0691004
-0.307488
-0.418248
-0.454165
-0.508892
-0.544973
-0.272354
-0.0489863
3.5908
-17.2781
-38.1468
-41.1124
-38.8441
-43.3361
-42.6377
-26.3304
-13.5883
-4.72858
-1.27714
-0.609006
-0.620096
-0.635381
-0.63331
-0.627854
-0.615387
-0.593318
-0.560915
-0.521224
-0.505566
-0.539104
0.369342
21.7856
33.3318
4.64859
1.1344
1.63022
1.61375
1.34915
1.0755
0.605902
0.0618017
-0.288164
-0.406693
-0.446915
-0.5569
-0.611271
-0.339878
-0.133515
7.10402
-19.551
-42.4134
-45.03
-44.1905
-47.8395
-44.6846
-30.7699
-20.0907
-7.65376
-1.63384
-0.688173
-0.750834
-0.770258
-0.764974
-0.752775
-0.732665
-0.704277
-0.669982
-0.635566
-0.630016
-0.611712
0.113686
18.1112
15.3338
2.07096
0.755453
1.11628
1.09447
0.916082
0.686464
0.443319
0.0695481
-0.237383
-0.399813
-0.44219
-0.59411
-0.620451
-0.369394
-0.201972
10.2339
-22.9167
-43.8469
-46.9379
-46.4025
-46.1219
-43.5383
-37.9326
-33.2048
-14.3588
-1.86704
-0.971863
-0.904289
-0.909276
-0.899347
-0.879962
-0.851222
-0.814837
-0.777603
-0.746672
-0.739613
-0.676278
-0.141078
12.7954
8.04778
1.13452
0.520391
0.698238
0.658023
0.530177
0.359284
0.228943
0.0142706
-0.22411
-0.392933
-0.459852
-0.62773
-0.607799
-0.363951
-0.244048
11.4443
-25.4248
-44.8438
-48.1119
-47.823
-46.0372
-44.3696
-42.6796
-40.5259
-20.9878
-2.71367
-1.18605
-1.02106
-1.04552
-1.03612
-1.00945
-0.970094
-0.922061
-0.881019
-0.85343
-0.83922
-0.73851
-0.343413
7.23305
4.26602
0.272
-0.0589975
0.261826
0.264172
0.186117
0.0676566
-0.0501655
-0.136877
-0.258939
-0.387263
-0.515889
-0.641264
-0.585492
-0.383854
-0.292253
11.4954
-25.1953
-45.5998
-48.7878
-48.714
-47.4866
-46.0281
-45.5991
-44.9694
-28.974
-4.79342
-1.33549
-1.13081
-1.19506
-1.18052
-1.14309
-1.08852
-1.02225
-0.976871
-0.954306
-0.92961
-0.850411
-0.676642
2.08674
0.864342
-0.193823
-0.5706
-0.162873
-0.0912818
-0.119526
-0.197655
-0.302974
-0.325072
-0.317186
-0.394105
-0.549226
-0.62108
-0.558316
-0.431006
-0.346823
11.2038
-23.1817
-45.4289
-49.0026
-49.0812
-48.5716
-47.8311
-47.7392
-48.5061
-37.2496
-8.124
-1.60721
-1.32936
-1.37288
-1.33588
-1.28371
-1.20841
-1.11904
-1.06758
-1.04511
-1.00073
-1.12841
-2.51827
-2.22628
-1.34415
-0.442975
-0.785452
-0.486929
-0.390275
-0.373771
-0.398977
-0.453671
-0.456451
-0.408371
-0.44199
-0.551934
-0.601173
-0.557218
-0.469588
-0.401595
9.16621
-20.6677
-44.4847
-49.0452
-49.5334
-49.515
-49.3294
-49.5549
-51.8612
-44.9703
-11.8268
-1.84735
-1.67775
-1.56483
-1.49678
-1.43332
-1.3359
-1.22869
-1.17178
-1.13996
-1.05087
-1.39758
-5.51936
-4.59664
-2.07605
-0.868568
-0.926558
-0.734922
-0.637452
-0.585929
-0.561568
-0.557701
-0.541925
-0.517672
-0.536623
-0.589741
-0.614428
-0.583734
-0.518428
-0.461713
3.11958
-16.3955
-43.4131
-49.0135
-50.1958
-50.4459
-50.5996
-51.5682
-56.0106
-52.476
-15.1003
-1.78662
-1.93417
-1.74756
-1.65994
-1.58872
-1.4753
-1.36483
-1.33074
-1.28377
-1.18789
-3.31664
-8.8084
-5.92278
-1.84258
-1.36813
-1.07929
-0.933737
-0.840614
-0.767249
-0.711866
-0.673584
-0.644178
-0.625052
-0.631649
-0.652514
-0.659712
-0.634732
-0.581788
-0.52987
-8.47811
-19.3777
-41.6601
-49.3543
-50.8667
-51.3025
-51.9523
-55.1349
-63.8155
-59.0643
-16.8873
-1.37259
-2.17672
-1.93749
-1.82261
-1.73613
-1.6287
-1.52649
-1.50617
-1.48973
-2.05852
-6.53023
-10.6689
-5.11897
-1.52661
-1.53783
-1.24584
-1.10674
-1.00824
-0.922545
-0.851611
-0.795931
-0.755045
-0.728448
-0.719898
-0.723409
-0.722418
-0.700192
-0.65372
-0.604868
-21.4278
-31.606
-45.4192
-51.2577
-52.2101
-53.3008
-55.3192
-64.7423
-84.2797
-64.2945
-15.6124
-0.941124
-2.42437
-2.13038
-1.96128
-1.86388
-1.77558
-1.6558
-1.56225
-1.6377
-3.04134
-12.001
-9.43413
-3.40593
-1.54261
-1.49507
-1.35566
-1.24321
-1.14357
-1.05394
-0.97704
-0.91317
-0.862595
-0.826846
-0.806354
-0.80053
-0.795093
-0.774036
-0.731639
-0.686158
-31.4513
-45.01
-61.9939
-71.9279
-67.2378
-60.8603
-67.7661
-95.2732
-102.014
-60.6928
-11.3316
-0.990103
-2.30942
-2.24175
-2.05219
-1.94716
-1.87107
-1.7322
-1.60234
-2.0996
-8.30667
-15.1587
-6.40374
-1.98391
-1.76805
-1.51153
-1.43179
-1.34864
-1.25501
-1.16569
-1.08691
-1.01955
-0.962944
-0.92017
-0.894521
-0.88395
-0.874523
-0.853734
-0.81481
-0.773353
-37.754
-53.2678
-72.1782
-91.2088
-101.493
-103.939
-113.392
-120.333
-96.7542
-47.9965
-6.42655
-1.49794
-1.77282
-2.16548
-2.05181
-1.96615
-1.90615
-1.84523
-2.28901
-6.75061
-14.6568
-12.5455
-3.7078
-2.09896
-1.8696
-1.65768
-1.54061
-1.44519
-1.35172
-1.26338
-1.18403
-1.11533
-1.0572
-1.01279
-0.986129
-0.971413
-0.958418
-0.937837
-0.902528
-0.865664
-38.8573
-56.8349
-75.0127
-93.2901
-108.714
-118.986
-121.788
-109.907
-77.0757
-29.184
-1.56946
-0.543256
-1.30536
-1.85213
-1.90219
-1.91887
-2.02445
-2.56377
-6.21919
-13.5481
-14.6116
-6.23309
-2.4599
-2.10322
-1.86218
-1.70934
-1.60887
-1.5206
-1.43379
-1.3501
-1.27302
-1.20522
-1.14882
-1.10642
-1.07837
-1.06015
-1.04502
-1.02518
-0.99386
-0.961992
-25.9862
-51.5737
-73.0571
-89.0676
-100.281
-107.078
-104.119
-85.9734
-47.764
-6.73403
3.13082
1.88628
-0.342956
-1.33092
-1.6577
-2.00827
-3.07022
-7.18237
-13.1518
-14.8492
-8.14189
-2.7163
-2.19544
-2.02658
-1.86122
-1.72699
-1.65034
-1.58137
-1.50589
-1.42933
-1.35693
-1.29249
-1.23884
-1.19788
-1.16909
-1.1492
-1.13326
-1.11477
-1.08778
-1.06112
-13.5352
-31.1123
-53.6212
-68.8395
-76.0406
-76.8761
-66.1664
-40.2286
-4.94445
9.85242
8.85935
4.8639
1.55326
-0.452324
-2.0314
-4.0449
-8.66402
-13.1534
-13.8501
-9.07309
-2.99047
-2.17333
-2.08021
-1.99833
-1.84612
-1.7424
-1.68436
-1.63703
-1.5736
-1.50433
-1.43717
-1.3767
-1.32599
-1.28668
-1.25828
-1.23814
-1.22237
-1.20574
-1.18331
-1.16189
-16.5476
-20.7497
-27.6852
-31.571
-31.1501
-26.9151
-15.0391
1.01607
15.1849
17.3098
13.1372
6.77679
1.5654
-2.03334
-5.44896
-9.31432
-12.1606
-11.8579
-7.38185
-2.8479
-2.14132
-2.05228
-2.05253
-1.98621
-1.88065
-1.80869
-1.74564
-1.70131
-1.64256
-1.57797
-1.51516
-1.45849
-1.41077
-1.37346
-1.34619
-1.32672
-1.31184
-1.29744
-1.27959
-1.2633
-13.2206
-13.9294
-14.3726
-12.9036
-10.8187
-7.08156
2.60666
14.051
17.9696
14.3636
7.99489
1.94744
-2.92038
-5.67448
-7.97977
-9.60906
-8.42452
-4.95607
-2.93065
-2.24141
-2.10653
-2.1214
-2.11292
-2.03832
-1.97009
-1.89395
-1.82795
-1.77337
-1.71318
-1.65102
-1.59169
-1.5385
-1.49376
-1.45867
-1.43296
-1.41478
-1.40137
-1.38938
-1.37594
-1.36452
-9.73703
-7.89462
-5.30551
-3.43686
-1.78368
-0.335677
2.64929
5.57136
5.34357
1.58375
-2.0446
-3.72814
-4.39754
-4.99574
-5.52904
-4.42136
-3.32866
-2.30863
-2.20765
-2.26083
-2.2213
-2.20478
-2.16434
-2.10688
-2.04308
-1.96412
-1.90168
-1.843
-1.78255
-1.72286
-1.66689
-1.61708
-1.57521
-1.5424
-1.51863
-1.50235
-1.4909
-1.48125
-1.47186
-1.465
-3.93775
-4.99422
-6.02563
-6.50093
-7.25225
-6.57193
-5.31522
-4.25035
-4.63428
-4.65312
-3.18217
-2.19137
-1.79126
-2.39306
-2.9307
-2.73033
-2.24643
-2.09558
-2.17909
-2.27798
-2.26746
-2.23812
-2.20086
-2.15801
-2.09479
-2.02852
-1.96764
-1.90856
-1.84994
-1.79343
-1.74098
-1.69441
-1.65506
-1.62447
-1.60337
-1.59016
-1.58073
-1.57293
-1.56706
-1.56442
-2.39604
-2.63199
-2.82012
-2.86435
-3.06521
-2.98271
-2.94637
-2.82518
-2.72277
-2.58482
-2.46621
-2.49658
-2.63157
-2.55342
-2.28629
-2.25837
-2.25455
-2.22361
-2.26702
-2.30815
-2.30285
-2.27799
-2.24862
-2.20376
-2.14553
-2.08565
-2.02774
-1.97114
-1.91588
-1.86314
-1.81428
-1.77081
-1.73393
-1.70664
-1.68995
-1.67981
-1.67109
-1.66441
-1.66156
-1.66255
-2.22313
-2.21001
-2.22971
-2.24024
-2.25841
-2.25973
-2.23645
-2.18705
-2.1907
-2.2346
-2.28796
-2.36376
-2.44216
-2.44998
-2.3872
-2.34805
-2.34319
-2.33521
-2.35224
-2.36212
-2.35069
-2.3281
-2.29529
-2.24624
-2.1926
-2.1382
-2.08461
-2.0322
-1.98121
-1.93271
-1.8878
-1.84871
-1.81731
-1.7956
-1.78124
-1.77109
-1.76112
-1.7557
-1.75539
-1.75903
-2.34618
-2.33024
-2.32005
-2.31203
-2.2805
-2.28539
-2.26554
-2.26555
-2.29685
-2.32876
-2.36741
-2.41763
-2.45369
-2.45678
-2.43328
-2.41186
-2.40166
-2.4029
-2.4154
-2.41063
-2.39372
-2.36968
-2.33112
-2.28632
-2.23855
-2.18927
-2.14065
-2.09344
-2.04751
-2.00444
-1.96596
-1.9343
-1.91012
-1.89057
-1.87441
-1.86036
-1.8506
-1.84663
-1.84838
-1.85378
)
;

boundaryField
{
    leftWall
    {
        type            calculated;
        value           nonuniform 0();
    }
    rightWall
    {
        type            calculated;
        value           nonuniform List<scalar> 
43
(
510.166
464.78
416.032
366.172
320.228
277.282
236.429
194.76
159.629
115.386
67.8019
26.6525
5.29027
1.66471
1.49468
1.29719
0.916821
0.392614
0.0590194
0.00956432
-0.0489863
-0.133515
-0.201972
-0.244048
-0.292253
-0.346823
-0.401595
-0.461713
-0.52987
-0.604868
-0.686158
-0.773353
-0.865664
-0.961992
-1.06112
-1.16189
-1.2633
-1.36452
-1.465
-1.56442
-1.66255
-1.75903
-1.85378
)
;
    }
    lowerWall
    {
        type            calculated;
        value           nonuniform List<scalar> 
66
(
643.848
641.74
618.196
570.058
521.376
471.906
421.857
371.336
320.318
268.425
215.753
167.25
14.1445
-31.7996
-22.836
-119.267
1161.35
1109.84
1082.95
1077.43
1065.79
1032.92
971.02
875.896
738.416
539.574
1184.9
1146.24
1137.42
1124.31
1074.49
1001.22
916.259
833.545
762.287
706.016
664.651
636.536
619.775
611.509
609.821
613.79
622.889
636.562
653.846
673.332
693.216
711.559
726.358
735.592
737.553
732.301
721.997
706.956
687.344
663.793
637.815
611.659
587.1
565.41
547.038
532.53
523.607
522.253
526.865
533.657
)
;
    }
    atmosphere
    {
        type            calculated;
        value           nonuniform 0();
    }
    defaultFaces
    {
        type            empty;
    }
    procBoundary1to0
    {
        type            processor;
        value           nonuniform List<scalar> 
44
(
624.13
574.173
524.832
475.264
424.385
371.632
316.608
258.762
196.803
129.049
57.1587
6.55832
-3.04229
-2.88764
-2.43838
-2.18664
-2.11552
-2.19632
-2.38585
-2.53187
-6.44625
-6.44625
-5.52756
-1.81269
3.91664
6.80724
8.43213
16.3303
17.5351
0.427467
3.07392
17.838
17.5045
5.22202
-9.24791
-15.5507
-8.39582
-2.31274
-1.89773
-2.01835
-2.1336
-2.20589
-2.26606
-2.32621
)
;
    }
    procBoundary1to3
    {
        type            processor;
        value           nonuniform List<scalar> 
45
(
-2.39363
-2.40073
-2.40706
-2.41426
-2.41876
-2.41534
-2.41137
-2.40593
-2.39812
-2.38327
-2.38265
-2.37497
-2.37496
-2.38721
-2.40448
-2.43452
-2.46733
-2.47455
-2.4647
-2.45305
-2.44538
-2.44145
-2.44355
-2.44981
-2.44307
-2.4239
-2.39895
-2.36684
-2.32885
-2.28638
-2.24194
-2.19913
-2.15867
-2.11972
-2.08402
-2.05299
-2.02703
-2.00491
-1.98365
-1.96325
-1.94774
-1.93978
-1.93723
-1.94039
-1.94679
)
;
    }
}


// ************************************************************************* //
