/*--------------------------------*- C++ -*----------------------------------*\
| =========                 |                                                 |
| \\      /  F ield         | OpenFOAM: The Open Source CFD Toolbox           |
|  \\    /   O peration     | Version:  5.0                                   |
|   \\  /    A nd           | Web:      www.OpenFOAM.org                      |
|    \\/     M anipulation  |                                                 |
\*---------------------------------------------------------------------------*/
FoamFile
{
    version     2.0;
    format      ascii;
    class       volScalarField;
    location    "0.95";
    object      p_rgh;
}
// * * * * * * * * * * * * * * * * * * * * * * * * * * * * * * * * * * * * * //

dimensions      [1 -1 -2 0 0 0 0];

internalField   nonuniform List<scalar> 
1915
(
643.848
641.74
642.246
640.689
641.009
639.093
638.913
636.71
635.55
633.748
630.709
630.314
624.097
626.383
615.569
621.577
603.265
615.993
580.893
614.576
1184.9
1146.24
1137.42
1124.31
1074.49
1001.22
916.259
833.545
762.287
706.016
664.651
636.536
619.775
611.509
609.821
613.79
622.889
636.562
653.846
673.332
693.216
711.559
726.358
735.592
737.553
732.301
721.997
706.956
687.344
663.793
637.815
611.659
587.1
565.41
547.038
532.53
523.607
522.253
526.865
533.657
1180.44
1132.65
1152.45
1144.76
1091.77
1009.24
915.511
827.016
752.329
694.209
651.887
623.467
605.368
595.42
592.39
595.239
603.059
615.002
630.038
647.029
664.458
680.705
694.039
702.449
704.648
700.651
692.863
679.892
662.214
640.798
617.415
594.281
572.752
554.128
538.649
526.331
519.047
520.257
527.119
535.383
1200.42
1156.81
1162.33
1140.75
1079.07
993.304
901.132
815.665
743.085
685.206
641.477
610.169
588.906
575.954
570.207
570.652
576.284
586.219
599.221
614.242
629.777
644.593
657.474
667.482
669.815
659.731
651.72
641.235
630.331
616.939
597.022
576.865
558.842
544.223
532.782
524.266
514.731
518.124
525.611
533.749
1242.05
1181.19
1156.79
1114.36
1045.17
961.622
875.661
795.922
727.71
672.186
628.842
595.953
571.994
555.67
546.319
543.394
546.301
554.658
566.931
582.064
597.831
613.338
627.52
640.029
649.245
640.642
622.409
612.594
596.762
575.802
559.415
554.158
547.763
537.373
529.899
524.585
513.442
511.684
523.509
530.976
1277.67
1192.89
1138.4
1078.23
1003
919.915
842.985
771.927
709.443
657.094
614.247
580.442
554.849
536.571
525.414
520.797
521.865
528.388
539.032
554.023
569.92
586.304
602.34
617.691
629.693
638.877
642.705
620.657
592.385
556.599
532.032
505.819
500.506
525.281
528.834
527.12
517.973
506.653
525.532
518.449
1291.9
1186
1107.42
1032.44
920.143
841.877
803.495
742.146
685.892
637.003
592.605
544.513
504.652
466.835
439.655
431.455
436.828
470.462
509.014
539.569
559.313
573.616
584.643
599.146
612.514
623.646
629.927
631.595
627.068
612.396
545.141
495.408
470.729
460.71
526.31
531.098
517.911
510.727
530.54
525.526
1277.09
1158.52
1061.59
939.374
820.367
756.601
732.373
676.387
601.751
530.931
451.22
381.847
337.89
321.924
324.27
330.968
340.404
349.17
360.05
411.451
458.225
518.967
569.391
597.1
602.547
613.02
623.297
626.901
623.254
611.97
595.335
539.956
459.738
440.732
471.506
535.455
532.218
517.507
525.176
542.494
1229.05
1110.03
1013.63
843.348
744.327
630.738
518.892
426.459
383.583
350.945
329.47
317.812
313.819
315.755
322.002
331.218
342.042
356.345
370.245
383.591
396.558
404.54
414.145
507.93
575.456
613.725
620.86
628.233
627.762
616.767
597.255
573.668
517.278
427.888
428.796
536.421
545.517
538.438
515.054
547.912
1138.66
1031.68
864.104
809.373
761.255
680.781
446.984
396.769
364.745
337.706
317.492
308.41
302.62
303.381
307.651
314.345
325.161
336.241
362.869
407.649
425.781
401.562
407.007
397.643
387.837
540.19
628.447
634.444
639.088
628.091
605.045
576.502
550.545
441.711
332.8
508.651
552.907
561.173
520.548
473.182
986.9
944.865
791.324
764.812
798.645
765.613
580.602
475.884
489.598
511.274
499.304
459.752
457.626
457.602
438.016
430.993
438.243
481.33
509.339
515.176
525.987
519.726
426.199
376.725
353.798
319.975
472.571
619.495
654.741
648.517
619.921
583.422
549.841
410.917
252.397
441.539
554.154
559.941
558.801
531.063
538.866
533.784
375.285
364.626
3.31369
-9.86613
-3.1666
-8.09175
-2.40504
-5.30651
-2.17268
1.92163
-1.91563
57.1996
-0.564832
207.885
9.80873
455.515
62.2939
717.059
941.005
1037.16
1099.05
1161.54
1222.71
1282.95
1342.08
1390.17
1413.13
1298.84
618.581
169.024
188.907
191.767
281.766
289.189
141.451
-0.299429
-0.00815534
-0.0437874
-0.0685092
-0.0644264
-0.0565417
484.462
437.145
447.311
351.605
250.84
340.774
485.878
534.25
-35.8166
293.766
542.479
646.253
7.59572
442.503
596.278
684.62
126.666
596.673
657.915
713.651
343.196
659.643
712.023
631.304
641.06
728.25
743.301
653.031
785.717
798.924
723.952
692.588
853.346
864.211
801.398
789.24
919.714
930.777
934.139
935.812
984.248
995.381
1002.9
1000.66
1046.46
1056.39
1061.15
1057.82
1107.46
1115.28
1118.19
1115.68
1167.64
1173.03
1174.71
1173.1
1226.41
1229.54
1230.29
1229.46
1283.52
1284.57
1284.61
1284.29
1338.57
1337.92
1337.51
1337.72
1388.99
1388.92
1388.66
1389.2
1434.72
1437.73
1438.11
1438.24
1480.92
1485.79
1486.82
1485.41
1529.15
1534.02
1535.89
1533
1176.15
1587.31
1587.63
1583.33
266.996
1477.12
1647.61
1638.29
200.516
466.799
1601.93
1703
210.939
219.072
544.022
1472.29
295.286
265.697
270.04
406.488
302.496
301.531
290.716
297.071
4.06558
167.223
316.62
309.513
-0.23055
1.44837
43.0286
121.182
0.00441553
0.0295392
-0.347588
-1.00165
-0.0644953
-0.031534
-0.0165409
-0.0818138
-0.0757801
-0.0790458
-0.0816799
-0.0748428
-0.0659428
-0.0754753
-0.0882038
-0.0917677
741.46
772.823
726.509
704.206
773
734.609
707.353
668.268
627.665
595.283
576.754
561.021
546.955
535.689
530.259
530.717
535.046
538.96
533.27
473.807
462.097
493.538
517.792
521.337
382.132
280.151
249.698
315.844
530.763
666.717
644.1
595.602
517.921
274.477
160.167
358.498
511.873
501.406
493.14
520.955
714.707
637.033
661.606
718.299
718.12
678.314
647.551
617.565
589.426
537.351
482.906
450.773
451.878
460.956
478.793
501.165
509.217
510.027
400.036
274.263
307.303
410.57
531.884
515.866
468.777
380.266
204.312
171.594
139.172
426.194
655.693
613.059
411.136
109.526
60.0044
141.339
183.921
148.742
142.067
235.812
741.847
615.484
618.136
721.316
673.194
627.864
594.682
358.081
195.753
106.823
62.0084
50.3733
67.8774
75.3688
130.067
241.585
347.077
366.214
252.829
258.856
305.681
347.01
390.885
481.01
441.542
371.994
340.3
139.785
105.753
85.5873
377.806
557.582
299.077
28.15
21.8982
59.1439
43.3243
10.8655
13.3962
41.4931
639.452
605.407
649.085
688.059
643.236
566.338
158.24
21.1143
5.92617
3.12255
1.9932
1.41007
1.02143
0.764185
0.640496
0.687241
0.998296
44.085
110.671
306.488
387.057
374.376
348.873
307.241
272.579
277.643
315.243
263.872
88.5956
65.1694
83.4717
260.003
261.022
12.9955
8.56204
8.4896
6.24943
3.60435
5.59341
6.14269
611.948
599.419
703.479
671.267
632.927
284.356
11.8534
6.01242
3.60847
2.36846
1.78506
1.40455
1.14396
0.965333
0.852048
0.81371
0.826818
0.576822
9.21341
295.619
425.103
481.336
572.324
555.282
256.193
190.853
143.746
227.75
127.419
49.5148
35.9321
128.688
238.782
76.5903
1.67857
1.30391
1.71856
2.2069
2.6335
2.25578
629.27
613.274
701.682
672.495
558.125
23.617
30.9967
9.573
3.10397
2.3922
1.78345
1.45257
1.20292
0.939204
0.824497
0.764878
0.738307
0.720013
0.636105
35.8285
324.052
454.547
517.106
597.837
457.525
160.136
95.4034
56.0969
114.734
29.3701
18.8994
72.0026
141.444
95.2723
1.58174
1.18642
1.41322
1.84338
3.26899
2.11239
654.435
736.641
716.46
646.894
141.298
10.7111
30.588
9.23468
3.70295
2.33058
1.79975
1.4926
1.31142
0.927542
0.778127
0.721452
0.697464
0.730354
0.836816
0.755055
0.204321
159.352
509.373
583.176
612.319
160.896
68.0335
27.4393
16.6785
18.9234
9.77942
11.2168
11.397
8.95034
2.31417
0.842588
1.04727
1.62453
4.33988
3.38143
701.856
785.24
754.949
603.984
2.91689
4.58191
8.44956
9.72046
5.14254
7.83044
1.29832
1.09643
1.14781
0.803691
0.725175
0.679025
0.656113
0.666896
0.737824
0.754365
0.625711
0.429994
170.168
599.811
642.823
251.758
33.7786
16.4173
8.8934
11.3
4.45493
3.061
1.83421
0.551015
0.409357
0.579943
0.771677
2.10903
4.13371
4.33338
856.189
836.318
747.472
151.941
2.57163
5.70321
10.6002
137.293
168.271
2.3351
1.22504
0.866425
0.764056
0.709825
0.660036
0.625612
0.609936
0.614829
0.647704
0.674642
0.666158
0.659089
1.14393
613.119
668.5
333.477
13.9024
9.19967
6.48435
4.05001
2.76631
1.84838
1.20674
0.811134
0.466373
0.497782
0.602268
3.49584
4.14451
0.951837
928.417
897.029
694.278
-1.74339
0.420525
1.04694
92.8783
318.144
324.609
111.004
1.01016
0.669262
0.629023
0.607576
0.58141
0.562089
0.556206
0.565095
0.592544
0.624961
0.635149
0.588579
1.55566
403.262
671.546
324.86
7.25272
5.35133
4.48631
3.20701
2.59605
1.98709
1.26629
0.812344
0.608196
0.49952
0.516353
3.67289
4.09221
1.03938
985.864
948.838
459.289
-12.5566
-4.71775
14.619
326.948
332.255
345.458
253.513
-0.181543
0.475437
0.511418
0.503392
0.496881
0.492699
0.496867
0.512612
0.542165
0.58198
0.600281
0.535296
1.59404
240.358
658.875
149.97
3.68413
3.56499
3.35203
2.79645
2.99856
3.51461
1.6974
0.740516
0.615746
0.55142
0.493248
3.47701
4.13328
1.25378
1046.44
962.524
228.609
-23.4591
-16.2682
28.4851
218.466
133.823
178.672
427.397
-0.226993
0.440812
0.42972
0.414435
0.416506
0.421962
0.434428
0.456501
0.488915
0.528606
0.544282
0.510815
1.42499
270.406
509.866
63.2591
2.52966
2.76063
2.69529
2.41376
3.91174
3.56975
2.80879
0.884648
0.65743
0.615196
0.501394
3.1544
3.05312
1.07788
1106.04
912.871
37.9954
-28.9195
-19.4927
26.1993
-16.5371
-9.8272
126.34
532.939
39.2971
0.41492
0.35229
0.332865
0.338149
0.350348
0.37046
0.398866
0.433209
0.467616
0.473181
0.491057
2.88179
332.271
243.013
23.5874
2.07901
2.25742
2.21313
2.02856
3.17126
3.61054
3.28299
1.30088
0.720952
0.67606
0.525816
3.30867
0.921057
0.907961
1163.84
806.589
-26.8832
-31.2156
-17.6908
26.3163
-27.5619
-20.0819
110.978
655.391
134.602
0.185502
0.252666
0.247652
0.257579
0.276964
0.30572
0.342207
0.379645
0.410476
0.417857
0.480178
3.48108
342.381
246.406
16.1647
1.79926
1.88128
1.82468
1.69376
1.59226
3.59713
3.38246
2.01309
0.787506
0.715519
0.863481
2.94382
1.03391
0.912872
1217.5
671.974
-28.3836
-32.3428
-17.8621
14.8144
-28.4248
-26.2364
89.0807
791.636
298.675
0.0309088
0.190603
0.165876
0.175133
0.201788
0.241242
0.289791
0.331687
0.358693
0.373473
0.479805
6.47542
349.945
302.592
18.9521
1.25998
1.49603
1.48231
1.4018
1.28558
3.22602
3.3894
2.36087
0.845742
0.71065
1.34043
0.938505
1.1197
0.923091
1272.04
671.682
-22.8058
-32.3534
-31.4474
-24.2172
-29.2984
-29.1342
69.9697
911.07
520.367
5.7957
0.140737
0.0764402
0.085744
0.123042
0.178111
0.246372
0.295616
0.315311
0.341746
0.406707
20.1994
354.919
235.394
7.8092
0.811315
1.12124
1.1794
1.14902
1.07242
1.33791
2.52952
1.85217
0.922195
0.720127
0.715836
0.70819
0.871187
0.92408
1327.21
736.306
-7.08434
-31.8918
-32.3907
-32.2074
-31.2464
-30.8479
71.6053
1025.04
750.599
61.4563
0.0259667
-0.0462319
-0.0131041
0.0382046
0.115609
0.215213
0.281579
0.289483
0.345048
0.182156
170.755
359.882
187.139
3.84077
0.624108
0.847614
0.933908
0.948861
0.924905
0.8718
0.939587
1.01299
0.921922
0.769752
0.720193
0.764123
0.851752
0.920128
1382.36
836.857
-5.60759
-31.2878
-32.5813
-32.3559
-32.3739
-32.2834
108.585
1132.95
965.512
154.898
-0.124078
-0.161387
-0.111522
-0.0535746
0.0521221
0.563066
0.82449
0.344043
0.431635
2.77243
258.479
365.826
109.334
1.3248
0.487792
0.64942
0.741084
0.791549
0.817222
0.821832
0.849072
0.864533
0.842708
0.787491
0.762745
0.793434
0.858739
0.915454
1434.3
1003.95
45.4676
-30.4577
-32.0791
-32.7161
-32.6213
-33.3192
213.937
1248.71
1143.81
269.478
0.0812882
-0.212846
-0.182921
-0.137525
0.0918028
2.68274
1.92892
0.319076
0.634764
159.876
280.657
293.341
35.497
0.423144
0.378141
0.502413
0.593318
0.666332
0.727163
0.783387
0.858625
0.888681
0.82947
0.781143
0.773812
0.798782
0.851725
0.903643
1477.28
1259.7
618.084
-30.2161
-32.2194
-32.6243
-33.0274
-36.313
472.045
1369.14
1274.85
348.539
0.660269
-0.160114
-0.196563
-0.196906
1.89377
3.50547
1.66583
0.443632
0.487427
225.225
269.849
125.181
6.74703
0.0763447
0.251086
0.384288
0.482244
0.56785
0.648183
0.793199
0.83638
0.8618
0.820344
0.767202
0.76797
0.790193
0.836664
0.885514
1521.17
1497.58
1415.77
124.198
-32.9386
-34.7702
-36.0369
-23.8168
995.96
1457.6
1363.7
366.566
1.44908
0.204106
-0.0906193
0.129454
2.75829
3.6074
2.0991
0.820411
1.53757
222.257
276.694
48.0433
0.458037
0.0661866
0.192914
0.304683
0.404225
0.49384
0.575648
0.739674
0.789923
0.825864
0.759619
0.747312
0.752698
0.773751
0.816144
0.861636
1573.53
1559.66
1538.24
1147.42
431.608
41.5879
101.028
661.917
1444.4
1522.8
1362.87
264.213
2.42228
0.625836
0.255594
0.726819
1.36583
2.78323
2.62466
2.51693
153.709
230.875
229.396
27.7642
0.045106
0.0926293
0.173992
0.257074
0.350702
0.440016
0.518863
0.636117
0.732578
0.714898
0.711827
0.721803
0.731223
0.751984
0.790903
0.832432
1626.27
1610.57
1590.43
1567.12
1458.88
1149.38
1219.18
1459.63
1555.26
1598.21
1148.57
105.431
3.55447
1.34945
0.856866
1.21055
1.6686
2.39114
3.75243
62.1888
224.156
239.307
5.32333
-0.204739
-0.193281
0.00650907
0.123565
0.218988
0.312462
0.400799
0.480171
0.549033
0.612226
0.651586
0.67807
0.692802
0.705768
0.726343
0.761653
0.798628
1683.97
1665.68
1647.12
1627.87
1609.67
1595.7
1591.53
1603.66
1634.77
1628.97
595.97
13.2678
4.91358
2.69335
1.74058
1.77506
2.32719
3.80537
65.715
212.635
217.159
124.394
5.34357
-0.288709
-0.141576
0.0137503
0.114321
0.202589
0.289399
0.373092
0.450199
0.518006
0.574478
0.616788
0.644818
0.663048
0.678166
0.698007
0.729542
0.761249
1756.06
1730.06
1707.8
1691.42
1679.19
1669.89
1670.1
1686.82
1719.59
1024.57
73.4033
14.0099
8.41449
5.30883
3.01507
2.95679
8.73625
97.5914
205.945
209.847
214.959
8.36515
-0.0677676
-0.171552
-0.065167
0.0598345
0.132405
0.20138
0.276854
0.353417
0.425824
0.490268
0.543923
0.584872
0.613659
0.633548
0.64949
0.667979
0.695447
0.721668
1032.96
1521.34
1742.93
1770.64
1760.85
1757.19
1747.04
1600.71
929.365
81.7945
29.4293
21.6527
14.2153
8.70001
8.73948
43.9074
161.932
216.195
209.407
213.754
18.1579
0.717671
0.516901
0.684638
0.836933
0.115295
0.158495
0.20583
0.26926
0.338531
0.405693
0.466154
0.516866
0.556183
0.584586
0.604722
0.620492
0.63713
0.66006
0.680992
310.025
512.392
729.475
881.149
998.043
906.948
635.4
274.06
47.3575
48.0548
40.2673
29.2637
39.3737
91.355
163.822
245.981
235.865
233.203
205.373
29.32
0.48075
0.645385
1.09895
1.22351
1.33701
0.0948371
0.15789
0.202218
0.260971
0.325562
0.388365
0.44504
0.492761
0.530075
0.557345
0.576814
0.591686
0.607571
0.624478
0.64023
281.753
237.084
185.695
146.103
111.664
62.8369
39.6688
48.7701
52.6888
53.9086
85.4046
158.005
265.51
262.756
260.035
258.347
255.083
155.4
-0.291108
0.232072
0.407387
0.564853
0.971167
1.291
0.359998
0.070805
0.136807
0.191394
0.251584
0.313737
0.373069
0.426263
0.471008
0.506097
0.531804
0.549988
0.56341
0.57802
0.5891
0.600236
213.248
274.464
283.396
273.233
286.589
288.037
198.625
123.734
141.46
271.571
268.8
267.262
269.711
271.424
270.895
201.02
28.607
-0.266928
-0.00135305
0.149812
0.34333
0.818788
1.20286
1.03083
-0.0165161
0.0624397
0.124882
0.183565
0.244012
0.303698
0.359671
0.409485
0.45135
0.484162
0.507934
0.524214
0.54236
0.548056
0.55474
0.56156
18.7937
103.155
172.259
167.713
211.649
160.287
249.688
250.753
249.45
199.628
153.647
173.049
199.31
157.907
25.4088
-0.62354
-0.122791
0.0329979
0.0336535
0.319006
1.1477
1.19685
1.13707
-0.0660849
-0.00585782
0.060416
0.121293
0.180375
0.238994
0.295513
0.347958
0.394526
0.43388
0.464467
0.485574
0.499144
0.521373
0.517025
0.521876
0.524519
-0.226377
-0.355101
1.77043
1.5129
7.56139
1.76282
4.03434
2.66257
-0.570854
-0.432884
-0.312702
-0.332473
-0.460095
-0.376033
-0.100335
-0.0738315
-0.069588
-0.0349817
0.579221
1.01787
1.016
0.86974
-0.0922364
-0.0518705
0.00636228
0.0662379
0.124157
0.180756
0.236018
0.288755
0.337613
0.381086
0.417964
0.44526
0.4727
0.542064
0.490059
0.487481
0.490329
0.489341
-0.00730302
0.00796711
-0.0112267
-0.0241007
-0.0429213
-0.0322431
-0.021015
0.0283755
0.0247296
-0.0191462
-0.0724801
-0.14151
-0.162738
-0.181956
-0.139469
-0.105497
-0.0948784
-0.0174612
0.65173
0.641735
0.121245
-0.112649
-0.0798095
-0.0308116
0.0228275
0.07723
0.130821
0.183236
0.234219
0.282725
0.327637
0.366721
0.404688
0.546597
0.67521
0.569798
0.454313
0.459729
0.460041
0.456403
-0.0666083
-0.0506868
-0.0405674
-0.0324734
-0.000944348
-0.00582822
0.0140194
0.0140057
-0.0172914
-0.0491973
-0.0867471
0.190834
0.247583
0.0347297
-0.0918093
-0.107738
-0.0918634
-0.0178786
-0.017637
-0.131056
-0.114142
-0.0899573
-0.0505565
-0.00676402
0.041007
0.0902928
0.138905
0.186121
0.232045
0.275117
0.313619
0.375787
0.650796
0.761818
0.772803
0.429279
0.428958
0.432926
0.431184
0.425785
)
;

boundaryField
{
    leftWall
    {
        type            fixedFluxPressure;
        gradient        nonuniform 0();
        value           nonuniform 0();
    }
    rightWall
    {
        type            fixedFluxPressure;
        gradient        uniform 0;
        value           nonuniform List<scalar> 
43
(
533.657
535.383
533.749
530.976
518.449
525.526
542.494
547.912
473.182
531.063
520.955
235.812
41.4931
6.14269
2.25578
2.11239
3.38143
4.33338
0.951837
1.03938
1.25378
1.07788
0.907961
0.912872
0.923091
0.92408
0.920128
0.915454
0.903643
0.885514
0.861636
0.832432
0.798628
0.761249
0.721668
0.680992
0.64023
0.600236
0.56156
0.524519
0.489341
0.456403
0.425785
)
;
    }
    lowerWall
    {
        type            fixedFluxPressure;
        gradient        uniform 0;
        value           nonuniform List<scalar> 
66
(
643.848
641.74
641.74
640.689
639.093
636.71
633.748
630.314
626.383
621.577
615.993
614.576
484.462
437.145
447.311
351.605
1184.9
1180.44
1200.42
1242.05
1277.67
1291.9
1277.09
1229.05
1138.66
986.9
1184.9
1146.24
1137.42
1124.31
1074.49
1001.22
916.259
833.545
762.287
706.016
664.651
636.536
619.775
611.509
609.821
613.79
622.889
636.562
653.846
673.332
693.216
711.559
726.358
735.592
737.553
732.301
721.997
706.956
687.344
663.793
637.815
611.659
587.1
565.41
547.038
532.53
523.607
522.253
526.865
533.657
)
;
    }
    atmosphere
    {
        type            totalPressure;
        rho             rho;
        psi             none;
        gamma           1;
        p0              nonuniform 0();
        value           nonuniform 0();
    }
    defaultFaces
    {
        type            empty;
    }
    procBoundary1to0
    {
        type            processor;
        value           nonuniform List<scalar> 
44
(
647.63
644.723
642.549
640.069
636.276
630.611
622.673
611.915
597.042
576.37
551.845
391.352
16.0328
-2.24183
-1.74234
-1.43582
-1.30484
-1.35485
-1.30863
-0.613596
181.574
181.574
356.276
537.787
720.822
858.404
887.781
877.026
769.811
480.063
171.016
162.103
171.46
188.207
260.876
269.201
167.856
-0.234959
0.0689239
0.00818444
-0.0446675
-0.0540035
-0.0506348
-0.0466552
)
;
    }
    procBoundary1to3
    {
        type            processor;
        value           nonuniform List<scalar> 
45
(
-0.0493523
-0.0564448
-0.062778
-0.0699764
-0.0744749
-0.0710602
-0.0670871
-0.061649
-0.0538344
-0.0389877
-0.0383642
-0.030691
-0.0306777
-0.042931
-0.0601955
0.273124
0.344794
0.317074
0.0248052
-0.0307352
-0.0800119
-0.0971578
-0.0992572
-0.105515
-0.0987794
-0.0795332
-0.0543426
-0.0222249
0.0154487
0.0579049
0.102345
0.145152
0.18562
0.224575
0.277419
0.559733
0.70471
0.727565
0.738302
0.454293
0.396546
0.404508
0.407055
0.403899
0.397493
)
;
    }
}


// ************************************************************************* //
