/*--------------------------------*- C++ -*----------------------------------*\
| =========                 |                                                 |
| \\      /  F ield         | OpenFOAM: The Open Source CFD Toolbox           |
|  \\    /   O peration     | Version:  5.0                                   |
|   \\  /    A nd           | Web:      www.OpenFOAM.org                      |
|    \\/     M anipulation  |                                                 |
\*---------------------------------------------------------------------------*/
FoamFile
{
    version     2.0;
    format      ascii;
    class       volVectorField;
    location    "0.95";
    object      U;
}
// * * * * * * * * * * * * * * * * * * * * * * * * * * * * * * * * * * * * * //

dimensions      [0 1 -1 0 0 0 0];

internalField   nonuniform List<vector> 
1915
(
(0.0133585 -0.00717075 0)
(0.0151122 0.00878862 0)
(-0.0115141 -0.0109654 0)
(-0.00355606 0.012372 0)
(-0.0232829 -0.0204703 0)
(-0.0133012 0.000181991 0)
(-0.0263332 -0.0299116 0)
(-0.0159659 -0.014436 0)
(-0.0227396 -0.0377519 0)
(-0.0151007 -0.029076 0)
(-0.013224 -0.0425835 0)
(-0.0103204 -0.0405652 0)
(0.00210864 -0.0436263 0)
(-0.000572764 -0.0460256 0)
(0.0232644 -0.040443 0)
(0.0147474 -0.0422973 0)
(0.0496702 -0.0329001 0)
(0.0365016 -0.0253857 0)
(0.0753355 -0.0251666 0)
(0.0789346 0.0411949 0)
(0.0734482 -0.114255 0)
(0.200225 -0.0390455 0)
(0.0971667 0.0500187 0)
(-0.101637 0.0837421 0)
(-0.286857 0.0913233 0)
(-0.471749 0.0853011 0)
(-0.627559 0.0692863 0)
(-0.746932 0.0494449 0)
(-0.828403 0.0300057 0)
(-0.875478 0.013406 0)
(-0.893818 0.000872059 0)
(-0.889817 -0.00737408 0)
(-0.873965 -0.0116864 0)
(-0.851787 -0.0135703 0)
(-0.826415 -0.0140999 0)
(-0.799888 -0.0141678 0)
(-0.772322 -0.0147017 0)
(-0.742259 -0.0163774 0)
(-0.707523 -0.0192743 0)
(-0.666474 -0.0229373 0)
(-0.618569 -0.0268283 0)
(-0.563971 -0.0306677 0)
(-0.503132 -0.0341798 0)
(-0.43705 -0.0367986 0)
(-0.368268 -0.0377097 0)
(-0.300644 -0.0364819 0)
(-0.236527 -0.0349055 0)
(-0.174915 -0.0336884 0)
(-0.115067 -0.0328793 0)
(-0.0574925 -0.0312975 0)
(-0.00455175 -0.0284349 0)
(0.0419758 -0.0256801 0)
(0.0823906 -0.0228233 0)
(0.117037 -0.0201584 0)
(0.145874 -0.0169493 0)
(0.167062 -0.0107504 0)
(0.174686 0.00182005 0)
(0.155326 0.0184386 0)
(0.0996625 0.0339046 0)
(0.0298447 0.0263687 0)
(-0.00566661 -0.152841 0)
(0.0112443 0.0617009 0)
(-0.158466 0.167076 0)
(-0.363223 0.206434 0)
(-0.546516 0.202614 0)
(-0.691934 0.17514 0)
(-0.792572 0.135924 0)
(-0.856679 0.0951514 0)
(-0.892869 0.0583394 0)
(-0.909335 0.0281206 0)
(-0.912723 0.0051846 0)
(-0.907735 -0.0107576 0)
(-0.894527 -0.0206521 0)
(-0.874698 -0.0261415 0)
(-0.850597 -0.0288037 0)
(-0.823696 -0.0303116 0)
(-0.794429 -0.0323997 0)
(-0.762143 -0.0363394 0)
(-0.725647 -0.0422572 0)
(-0.684113 -0.0493012 0)
(-0.637541 -0.0564411 0)
(-0.586434 -0.0632169 0)
(-0.531382 -0.0692911 0)
(-0.472924 -0.0740047 0)
(-0.411791 -0.0755537 0)
(-0.34893 -0.0727633 0)
(-0.286668 -0.0700932 0)
(-0.22555 -0.0681162 0)
(-0.166325 -0.0664099 0)
(-0.110292 -0.0628813 0)
(-0.0591529 -0.0560059 0)
(-0.0148283 -0.0485342 0)
(0.0221876 -0.0410949 0)
(0.052272 -0.0343719 0)
(0.0763643 -0.0270676 0)
(0.0943661 -0.0153145 0)
(0.105039 0.00636939 0)
(0.106342 0.0348565 0)
(0.0900035 0.0631255 0)
(0.0505431 0.0664038 0)
(-0.0933926 -0.094412 0)
(-0.157311 0.154957 0)
(-0.334203 0.282901 0)
(-0.496691 0.319067 0)
(-0.627121 0.295548 0)
(-0.723955 0.243207 0)
(-0.794118 0.18237 0)
(-0.844034 0.124498 0)
(-0.877185 0.0747558 0)
(-0.896561 0.0351437 0)
(-0.904573 0.00527531 0)
(-0.902893 -0.0162813 0)
(-0.892599 -0.0311057 0)
(-0.875396 -0.0404696 0)
(-0.853017 -0.0459803 0)
(-0.826664 -0.049741 0)
(-0.796915 -0.0539797 0)
(-0.763626 -0.0604057 0)
(-0.726261 -0.0691522 0)
(-0.684554 -0.0790962 0)
(-0.638952 -0.0887681 0)
(-0.590313 -0.0975932 0)
(-0.539504 -0.105229 0)
(-0.487349 -0.1113 0)
(-0.434235 -0.114471 0)
(-0.378066 -0.113038 0)
(-0.318566 -0.109894 0)
(-0.25858 -0.107376 0)
(-0.199868 -0.103385 0)
(-0.144634 -0.0965467 0)
(-0.0947004 -0.0859014 0)
(-0.0525654 -0.074345 0)
(-0.0193598 -0.0620952 0)
(0.00559481 -0.0509489 0)
(0.024442 -0.0402506 0)
(0.0388794 -0.0254802 0)
(0.0496833 0.000223523 0)
(0.0556556 0.034705 0)
(0.0557574 0.0739004 0)
(0.0461406 0.105827 0)
(-0.143429 0.0135076 0)
(-0.254795 0.266802 0)
(-0.416553 0.389216 0)
(-0.544396 0.409839 0)
(-0.641638 0.366858 0)
(-0.718021 0.297191 0)
(-0.779528 0.223067 0)
(-0.826497 0.153891 0)
(-0.859651 0.0941452 0)
(-0.88065 0.0459379 0)
(-0.891102 0.00861224 0)
(-0.892225 -0.0195346 0)
(-0.885006 -0.0400175 0)
(-0.870603 -0.054076 0)
(-0.850135 -0.0634676 0)
(-0.824461 -0.0704908 0)
(-0.794243 -0.0775988 0)
(-0.759876 -0.0867828 0)
(-0.721485 -0.0982132 0)
(-0.679268 -0.110629 0)
(-0.633973 -0.122127 0)
(-0.586758 -0.132114 0)
(-0.538738 -0.140253 0)
(-0.490805 -0.146542 0)
(-0.443748 -0.150648 0)
(-0.395843 -0.152607 0)
(-0.343917 -0.152759 0)
(-0.288974 -0.150006 0)
(-0.233202 -0.144018 0)
(-0.1773 -0.133779 0)
(-0.125147 -0.117868 0)
(-0.0825508 -0.0992689 0)
(-0.0523551 -0.080312 0)
(-0.0334727 -0.0643046 0)
(-0.0211802 -0.0505083 0)
(-0.0110054 -0.0340004 0)
(-0.000262378 -0.00687345 0)
(0.0110269 0.0301406 0)
(0.0206439 0.074225 0)
(0.0306573 0.13266 0)
(-0.165657 0.153479 0)
(-0.298207 0.384648 0)
(-0.442094 0.481963 0)
(-0.547852 0.481156 0)
(-0.628462 0.423236 0)
(-0.69879 0.344664 0)
(-0.75928 0.262074 0)
(-0.805138 0.183172 0)
(-0.838099 0.114353 0)
(-0.860216 0.0582809 0)
(-0.873065 0.0140088 0)
(-0.877575 -0.0205355 0)
(-0.874235 -0.0468118 0)
(-0.86331 -0.0659256 0)
(-0.845093 -0.0796723 0)
(-0.81991 -0.0905554 0)
(-0.788445 -0.101143 0)
(-0.752024 -0.113964 0)
(-0.711874 -0.12869 0)
(-0.668621 -0.143728 0)
(-0.622999 -0.156674 0)
(-0.576319 -0.167062 0)
(-0.529975 -0.17454 0)
(-0.484855 -0.179755 0)
(-0.441572 -0.182879 0)
(-0.39938 -0.185605 0)
(-0.357001 -0.187752 0)
(-0.312614 -0.187534 0)
(-0.26513 -0.184474 0)
(-0.214278 -0.175737 0)
(-0.161723 -0.154399 0)
(-0.115148 -0.126253 0)
(-0.0828719 -0.0966084 0)
(-0.0684906 -0.0729533 0)
(-0.0645621 -0.0563716 0)
(-0.0601248 -0.0404997 0)
(-0.0502152 -0.0154985 0)
(-0.0341274 0.020236 0)
(-0.0167853 0.0660169 0)
(0.00643182 0.141055 0)
(-0.171453 0.306245 0)
(-0.31078 0.499894 0)
(-0.440197 0.563024 0)
(-0.531289 0.54113 0)
(-0.603314 0.475672 0)
(-0.672817 0.391748 0)
(-0.732155 0.300163 0)
(-0.776478 0.211579 0)
(-0.809577 0.134177 0)
(-0.833589 0.071087 0)
(-0.849983 0.0207344 0)
(-0.859382 -0.0193905 0)
(-0.861517 -0.0507067 0)
(-0.855477 -0.0745686 0)
(-0.840259 -0.0931343 0)
(-0.815365 -0.108761 0)
(-0.781227 -0.123295 0)
(-0.740956 -0.138518 0)
(-0.69754 -0.154977 0)
(-0.652423 -0.172863 0)
(-0.605841 -0.188001 0)
(-0.558713 -0.200069 0)
(-0.512982 -0.207746 0)
(-0.469895 -0.211711 0)
(-0.430383 -0.212477 0)
(-0.39372 -0.213413 0)
(-0.358495 -0.215038 0)
(-0.322697 -0.216598 0)
(-0.28476 -0.215983 0)
(-0.2448 -0.20922 0)
(-0.201323 -0.190152 0)
(-0.155877 -0.157677 0)
(-0.119795 -0.114045 0)
(-0.105307 -0.0772551 0)
(-0.108559 -0.0570809 0)
(-0.11202 -0.0442559 0)
(-0.103429 -0.0252312 0)
(-0.0826475 0.00538705 0)
(-0.0562352 0.0517622 0)
(-0.0204371 0.124476 0)
(-0.171087 0.463834 0)
(-0.31266 0.610772 0)
(-0.431626 0.638149 0)
(-0.516173 0.596517 0)
(-0.584099 0.524563 0)
(-0.64444 0.434205 0)
(-0.695275 0.33274 0)
(-0.737701 0.235397 0)
(-0.773333 0.152082 0)
(-0.801316 0.0847326 0)
(-0.823051 0.031177 0)
(-0.838856 -0.0125143 0)
(-0.847397 -0.0484679 0)
(-0.846538 -0.0788733 0)
(-0.834376 -0.10559 0)
(-0.810589 -0.129366 0)
(-0.775975 -0.15035 0)
(-0.732932 -0.168656 0)
(-0.68289 -0.185533 0)
(-0.633337 -0.202805 0)
(-0.584484 -0.217332 0)
(-0.535459 -0.228277 0)
(-0.488662 -0.234914 0)
(-0.446293 -0.2394 0)
(-0.410158 -0.23884 0)
(-0.379242 -0.237849 0)
(-0.351976 -0.23812 0)
(-0.325206 -0.239614 0)
(-0.29658 -0.240088 0)
(-0.265046 -0.234848 0)
(-0.230996 -0.218343 0)
(-0.195615 -0.185239 0)
(-0.162881 -0.133356 0)
(-0.148162 -0.0796332 0)
(-0.157658 -0.0511899 0)
(-0.169042 -0.0456308 0)
(-0.161727 -0.0362101 0)
(-0.134272 -0.0157153 0)
(-0.0921204 0.0259248 0)
(-0.0387037 0.085752 0)
(-0.174139 0.625662 0)
(-0.321121 0.717241 0)
(-0.433642 0.70981 0)
(-0.520295 0.652534 0)
(-0.586319 0.564872 0)
(-0.631043 0.468033 0)
(-0.659393 0.364294 0)
(-0.699461 0.264191 0)
(-0.741329 0.177467 0)
(-0.775311 0.106486 0)
(-0.802666 0.0494368 0)
(-0.822022 7.4271e-06 0)
(-0.831562 -0.0438455 0)
(-0.829853 -0.0836072 0)
(-0.816628 -0.119499 0)
(-0.792074 -0.151978 0)
(-0.756783 -0.181085 0)
(-0.71307 -0.206612 0)
(-0.664741 -0.228139 0)
(-0.617285 -0.243856 0)
(-0.570265 -0.256757 0)
(-0.518884 -0.263687 0)
(-0.46246 -0.264069 0)
(-0.416071 -0.261385 0)
(-0.381352 -0.257508 0)
(-0.355674 -0.255955 0)
(-0.337459 -0.254926 0)
(-0.321507 -0.256303 0)
(-0.303463 -0.258853 0)
(-0.281221 -0.255825 0)
(-0.255544 -0.239899 0)
(-0.229466 -0.205734 0)
(-0.206291 -0.149641 0)
(-0.196358 -0.0798129 0)
(-0.213524 -0.0389576 0)
(-0.232931 -0.0438118 0)
(-0.226471 -0.0489824 0)
(-0.189925 -0.0449904 0)
(-0.125443 -0.0158241 0)
(-0.0479873 0.0358578 0)
(-0.188962 0.795259 0)
(-0.344468 0.824161 0)
(-0.455545 0.784066 0)
(-0.548306 0.706374 0)
(-0.610242 0.601028 0)
(-0.650787 0.496436 0)
(-0.677565 0.399894 0)
(-0.716414 0.301632 0)
(-0.754469 0.211742 0)
(-0.780236 0.132422 0)
(-0.796159 0.0662512 0)
(-0.804519 0.00837058 0)
(-0.805654 -0.0434896 0)
(-0.798311 -0.0911089 0)
(-0.782087 -0.13476 0)
(-0.755873 -0.175312 0)
(-0.719839 -0.211678 0)
(-0.676627 -0.242092 0)
(-0.631944 -0.262929 0)
(-0.591998 -0.278431 0)
(-0.553917 -0.29629 0)
(-0.507417 -0.313871 0)
(-0.448591 -0.311962 0)
(-0.390641 -0.292847 0)
(-0.344078 -0.272135 0)
(-0.324494 -0.263757 0)
(-0.315642 -0.262524 0)
(-0.311891 -0.264187 0)
(-0.306698 -0.269168 0)
(-0.295641 -0.269747 0)
(-0.279468 -0.255853 0)
(-0.262514 -0.219926 0)
(-0.24996 -0.158013 0)
(-0.249762 -0.0751014 0)
(-0.27919 -0.0172629 0)
(-0.307704 -0.0393736 0)
(-0.300748 -0.0655958 0)
(-0.251204 -0.0864201 0)
(-0.160334 -0.0859621 0)
(-0.0536675 -0.0333289 0)
(-0.221531 0.989272 0)
(-0.398251 0.928305 0)
(-0.497195 0.860731 0)
(-0.578756 0.754797 0)
(-0.631366 0.63362 0)
(-0.666695 0.518625 0)
(-0.701193 0.419219 0)
(-0.729742 0.319851 0)
(-0.751067 0.223068 0)
(-0.764537 0.13847 0)
(-0.771733 0.06803 0)
(-0.772857 0.00632163 0)
(-0.768259 -0.0501935 0)
(-0.757551 -0.102866 0)
(-0.739783 -0.152636 0)
(-0.713946 -0.199437 0)
(-0.680554 -0.24013 0)
(-0.643805 -0.270932 0)
(-0.608096 -0.290491 0)
(-0.573133 -0.304042 0)
(-0.534739 -0.323303 0)
(-0.490222 -0.347862 0)
(-0.433836 -0.361328 0)
(-0.361846 -0.352526 0)
(-0.299449 -0.307424 0)
(-0.282971 -0.263326 0)
(-0.287139 -0.257996 0)
(-0.296828 -0.261883 0)
(-0.307532 -0.269237 0)
(-0.310808 -0.274228 0)
(-0.30573 -0.264036 0)
(-0.29846 -0.227195 0)
(-0.296467 -0.158846 0)
(-0.309128 -0.0626495 0)
(-0.356169 0.0154295 0)
(-0.397083 -0.032226 0)
(-0.38835 -0.0897808 0)
(-0.324693 -0.144285 0)
(-0.204514 -0.179184 0)
(-0.0634511 -0.113539 0)
(0.108757 -0.0352218 0)
(0.157031 0.00969888 0)
(0.116679 -0.0536236 0)
(0.177658 -0.0389232 0)
(0.116594 -0.06641 0)
(0.241354 -0.0457618 0)
(0.412838 -0.17932 0)
(0.248336 -0.159536 0)
(0.64833 -0.186345 0)
(-0.171434 0.222712 0)
(0.108864 0.144353 0)
(-0.29543 0.424514 0)
(-0.261523 0.420333 0)
(-0.355987 0.516347 0)
(-0.356617 0.538999 0)
(-0.389219 0.571448 0)
(-0.389338 0.598776 0)
(-0.408955 0.611426 0)
(-0.403601 0.631989 0)
(-0.419737 0.642364 0)
(-0.423061 0.666362 0)
(-0.418515 0.684765 0)
(-0.405687 0.698315 0)
(-0.38493 0.707597 0)
(-0.358163 0.713137 0)
(-0.326849 0.715651 0)
(-0.291818 0.716218 0)
(-0.256773 0.713977 0)
(-0.222509 0.704158 0)
(-0.188065 0.685556 0)
(-0.162206 0.65453 0)
(-0.143095 0.595442 0)
(-0.220554 0.384126 0)
(-0.316291 0.193239 0)
(-0.360148 0.0592408 0)
(-0.364781 -0.00979455 0)
(-0.358838 -0.0389855 0)
(-0.400031 -0.0728807 0)
(-0.197597 -0.0926455 0)
(-0.0776235 -0.00144306 0)
(0.0497328 0.0633381 0)
(0.15761 0.106343 0)
(0.239526 0.1353 0)
(0.255935 -0.0398983 0)
(0.2967 -0.0246574 0)
(0.373011 0.0126314 0)
(-0.212079 0.392026 0)
(0.204833 -0.0773815 0)
(0.151865 0.0300696 0)
(0.0571837 0.213291 0)
(-0.412939 0.659477 0)
(0.106369 -0.0761548 0)
(-0.0519769 0.163921 0)
(-0.229901 0.420665 0)
(-0.529529 0.835187 0)
(-0.132264 0.201926 0)
(-0.227871 0.333291 0)
(-0.405259 0.598765 0)
(-0.590954 0.951511 0)
(-0.262151 0.367689 0)
(-0.351871 0.472035 0)
(-0.502194 0.728027 0)
(-0.614239 1.01325 0)
(-0.342509 0.475188 0)
(-0.432602 0.578186 0)
(-0.548793 0.81266 0)
(-0.610608 1.03709 0)
(-0.393884 0.551706 0)
(-0.476146 0.662109 0)
(-0.561762 0.868372 0)
(-0.586918 1.03854 0)
(-0.427588 0.609443 0)
(-0.495427 0.725139 0)
(-0.552626 0.902214 0)
(-0.554604 1.02714 0)
(-0.446983 0.655879 0)
(-0.498545 0.769838 0)
(-0.530114 0.918126 0)
(-0.51873 1.00894 0)
(-0.453988 0.69225 0)
(-0.489945 0.79809 0)
(-0.502633 0.919736 0)
(-0.483733 0.98671 0)
(-0.450478 0.718338 0)
(-0.472635 0.812632 0)
(-0.472465 0.911623 0)
(-0.448913 0.962897 0)
(-0.438165 0.735284 0)
(-0.44888 0.816982 0)
(-0.43982 0.897507 0)
(-0.413487 0.938068 0)
(-0.418203 0.744519 0)
(-0.420438 0.813707 0)
(-0.405686 0.879314 0)
(-0.377636 0.912462 0)
(-0.391853 0.747932 0)
(-0.388527 0.80526 0)
(-0.370551 0.858528 0)
(-0.341377 0.885903 0)
(-0.360719 0.747395 0)
(-0.354077 0.793764 0)
(-0.334611 0.836281 0)
(-0.30484 0.858215 0)
(-0.326112 0.744377 0)
(-0.317729 0.780745 0)
(-0.297981 0.813451 0)
(-0.268334 0.829631 0)
(-0.289181 0.740012 0)
(-0.279893 0.767214 0)
(-0.260552 0.790797 0)
(-0.231879 0.800961 0)
(-0.251822 0.733932 0)
(-0.240801 0.753283 0)
(-0.221596 0.768727 0)
(-0.194305 0.773139 0)
(-0.213451 0.724124 0)
(-0.199496 0.738106 0)
(-0.179496 0.74695 0)
(-0.153212 0.746445 0)
(-0.170577 0.709607 0)
(-0.154181 0.720598 0)
(-0.132485 0.724535 0)
(-0.106007 0.720173 0)
(-0.123845 0.691131 0)
(-0.104088 0.699664 0)
(-0.0799061 0.700071 0)
(-0.0519313 0.692959 0)
(-0.08148 0.664874 0)
(-0.0493458 0.675244 0)
(-0.0225082 0.672679 0)
(0.00754731 0.663577 0)
(-0.0530133 0.618477 0)
(0.00303079 0.647704 0)
(0.0360473 0.642598 0)
(0.0685945 0.631685 0)
(-0.103642 0.447734 0)
(0.0313934 0.59596 0)
(0.0868153 0.611971 0)
(0.123702 0.598887 0)
(-0.221229 0.246313 0)
(-0.0276932 0.44748 0)
(0.102533 0.551893 0)
(0.162044 0.562827 0)
(-0.280854 0.112012 0)
(-0.154438 0.257538 0)
(0.00721022 0.407986 0)
(0.14786 0.488521 0)
(-0.303669 0.0497494 0)
(-0.224592 0.143188 0)
(-0.114127 0.241756 0)
(0.0158902 0.336308 0)
(-0.299802 0.0271027 0)
(-0.233055 0.0935793 0)
(-0.17094 0.160327 0)
(-0.0914898 0.223335 0)
(-0.227781 -0.124157 0)
(-0.248337 0.0575463 0)
(-0.186712 0.125793 0)
(-0.118073 0.174934 0)
(-0.131432 -0.0408207 0)
(-0.160608 -0.0288112 0)
(-0.198728 0.0514565 0)
(-0.125958 0.130949 0)
(-0.00156881 0.0430549 0)
(-0.0389181 0.03479 0)
(-0.0552376 0.000930922 0)
(-0.0354425 -0.0334385 0)
(0.120963 0.0871633 0)
(0.0897338 0.0743134 0)
(0.0663259 0.0560948 0)
(0.0488076 0.0358397 0)
(0.215901 0.11543 0)
(0.193863 0.098362 0)
(0.173674 0.080772 0)
(0.155251 0.0654844 0)
(-0.415176 1.13702 0)
(-0.48588 1.01026 0)
(-0.544925 0.918776 0)
(-0.597718 0.794538 0)
(-0.632321 0.662538 0)
(-0.661076 0.541806 0)
(-0.687595 0.43452 0)
(-0.705213 0.330909 0)
(-0.717456 0.231891 0)
(-0.726594 0.143744 0)
(-0.731975 0.0691894 0)
(-0.73193 0.00379712 0)
(-0.726064 -0.0565274 0)
(-0.714611 -0.11305 0)
(-0.697476 -0.167199 0)
(-0.674806 -0.218046 0)
(-0.647803 -0.261173 0)
(-0.619119 -0.292004 0)
(-0.591752 -0.310521 0)
(-0.560885 -0.32545 0)
(-0.518009 -0.349617 0)
(-0.465417 -0.380832 0)
(-0.403596 -0.403988 0)
(-0.336539 -0.398218 0)
(-0.270228 -0.355608 0)
(-0.210552 -0.287513 0)
(-0.235593 -0.236711 0)
(-0.269583 -0.245122 0)
(-0.306156 -0.261176 0)
(-0.329542 -0.269068 0)
(-0.338598 -0.262915 0)
(-0.341206 -0.226541 0)
(-0.348359 -0.151656 0)
(-0.3746 -0.039305 0)
(-0.445799 0.0513318 0)
(-0.497055 -0.0291141 0)
(-0.491034 -0.121825 0)
(-0.425096 -0.215536 0)
(-0.283584 -0.284965 0)
(-0.0986868 -0.193435 0)
(-0.537256 1.15819 0)
(-0.548658 1.05296 0)
(-0.576107 0.947477 0)
(-0.597924 0.817122 0)
(-0.61384 0.682812 0)
(-0.633003 0.559853 0)
(-0.64828 0.446925 0)
(-0.65789 0.338488 0)
(-0.667033 0.237143 0)
(-0.676549 0.14683 0)
(-0.68395 0.0693889 0)
(-0.685945 0.000919825 0)
(-0.681078 -0.0626621 0)
(-0.669961 -0.122287 0)
(-0.654017 -0.179593 0)
(-0.634961 -0.233292 0)
(-0.614251 -0.278173 0)
(-0.594325 -0.309586 0)
(-0.577298 -0.328682 0)
(-0.553346 -0.350865 0)
(-0.50604 -0.387432 0)
(-0.44696 -0.423079 0)
(-0.383323 -0.445509 0)
(-0.311504 -0.440686 0)
(-0.237672 -0.393325 0)
(-0.177799 -0.322 0)
(-0.13064 -0.243156 0)
(-0.172894 -0.190377 0)
(-0.291627 -0.237118 0)
(-0.353216 -0.259012 0)
(-0.381134 -0.254726 0)
(-0.396059 -0.218025 0)
(-0.409981 -0.136108 0)
(-0.444362 0.00255173 0)
(-0.539141 0.113551 0)
(-0.593609 -0.0102552 0)
(-0.596867 -0.152073 0)
(-0.532319 -0.308638 0)
(-0.382267 -0.457222 0)
(-0.178929 -0.369323 0)
(-0.592547 1.14806 0)
(-0.57498 1.06439 0)
(-0.580325 0.953306 0)
(-0.579172 0.823227 0)
(-0.582574 0.691661 0)
(-0.590014 0.567522 0)
(-0.593596 0.452693 0)
(-0.597104 0.344235 0)
(-0.604267 0.24315 0)
(-0.616548 0.152732 0)
(-0.629432 0.0743521 0)
(-0.636329 0.0030571 0)
(-0.634267 -0.064232 0)
(-0.623807 -0.126733 0)
(-0.608121 -0.186981 0)
(-0.591954 -0.242867 0)
(-0.576374 -0.289 0)
(-0.562291 -0.3217 0)
(-0.549275 -0.343912 0)
(-0.528902 -0.38086 0)
(-0.49564 -0.428908 0)
(-0.449619 -0.469103 0)
(-0.383474 -0.495535 0)
(-0.299787 -0.487993 0)
(-0.211191 -0.426374 0)
(-0.138747 -0.345679 0)
(-0.0926741 -0.264307 0)
(-0.0615075 -0.176639 0)
(-0.096043 -0.0763733 0)
(-0.364669 -0.231061 0)
(-0.429741 -0.241888 0)
(-0.466081 -0.204328 0)
(-0.489027 -0.113186 0)
(-0.512893 0.0650753 0)
(-0.610123 0.174593 0)
(-0.645275 0.00766741 0)
(-0.623882 -0.174198 0)
(-0.540097 -0.362401 0)
(-0.412879 -0.623534 0)
(-0.275551 -0.628783 0)
(-0.610627 1.14013 0)
(-0.576315 1.05778 0)
(-0.565083 0.945228 0)
(-0.550928 0.818949 0)
(-0.547096 0.690874 0)
(-0.542789 0.56918 0)
(-0.53602 0.456174 0)
(-0.530396 0.349942 0)
(-0.532691 0.249835 0)
(-0.550016 0.161463 0)
(-0.566488 0.0822431 0)
(-0.577671 0.00532395 0)
(-0.582527 -0.0678994 0)
(-0.576348 -0.133591 0)
(-0.564165 -0.193049 0)
(-0.551908 -0.24715 0)
(-0.537297 -0.292383 0)
(-0.519503 -0.325973 0)
(-0.494572 -0.350466 0)
(-0.473036 -0.39853 0)
(-0.453451 -0.452697 0)
(-0.428535 -0.50527 0)
(-0.388947 -0.558874 0)
(-0.319035 -0.587263 0)
(-0.178551 -0.471681 0)
(-0.0747794 -0.358275 0)
(-0.0524641 -0.269258 0)
(-0.0384332 -0.179878 0)
(-0.019709 -0.0555367 0)
(-0.201457 0.057337 0)
(-0.46533 -0.200529 0)
(-0.549517 -0.180765 0)
(-0.589101 -0.0950628 0)
(-0.58102 0.0847472 0)
(-0.580902 0.214307 0)
(-0.566934 0.0061855 0)
(-0.543375 -0.202876 0)
(-0.504221 -0.400358 0)
(-0.363883 -0.687197 0)
(-0.360057 -0.848893 0)
(-0.603984 1.12396 0)
(-0.561502 1.0402 0)
(-0.539457 0.930006 0)
(-0.522112 0.809252 0)
(-0.514741 0.686507 0)
(-0.502292 0.568812 0)
(-0.500524 0.457587 0)
(-0.477064 0.333014 0)
(-0.429498 0.256379 0)
(-0.366228 0.179518 0)
(-0.329218 0.108426 0)
(-0.3549 0.0226192 0)
(-0.389278 -0.0686967 0)
(-0.417352 -0.15099 0)
(-0.436364 -0.218981 0)
(-0.445633 -0.273542 0)
(-0.439832 -0.321959 0)
(-0.456071 -0.342639 0)
(-0.414008 -0.35 0)
(-0.399502 -0.407263 0)
(-0.381825 -0.467127 0)
(-0.359732 -0.525702 0)
(-0.326841 -0.591312 0)
(-0.278084 -0.657057 0)
(-0.183077 -0.709658 0)
(0.0408999 -0.363241 0)
(0.021333 -0.250724 0)
(-0.0249485 -0.164427 0)
(-0.0223414 -0.0292163 0)
(-0.0499673 0.173927 0)
(-0.486077 -0.0173138 0)
(-0.627998 -0.122642 0)
(-0.682365 -0.0681824 0)
(-0.690246 0.0705138 0)
(-0.643526 0.187413 0)
(-0.535458 0.0104289 0)
(-0.543436 -0.218063 0)
(-0.480677 -0.431413 0)
(-0.261444 -0.756141 0)
(-0.195785 -1.05118 0)
(-0.582038 1.09757 0)
(-0.537691 1.01558 0)
(-0.51075 0.911508 0)
(-0.495798 0.798807 0)
(-0.484796 0.685705 0)
(-0.479927 0.57241 0)
(-0.525248 0.411458 0)
(-0.470214 0.298777 0)
(-0.377612 0.201325 0)
(-0.239619 0.11601 0)
(-0.197406 0.101356 0)
(-0.227612 0.0491644 0)
(-0.267731 -0.0325407 0)
(-0.303712 -0.11375 0)
(-0.335467 -0.187289 0)
(-0.35322 -0.252314 0)
(-0.357211 -0.315913 0)
(-0.346829 -0.382859 0)
(-0.330163 -0.376864 0)
(-0.323268 -0.4101 0)
(-0.302637 -0.475008 0)
(-0.279923 -0.541103 0)
(-0.250594 -0.613969 0)
(-0.205719 -0.690288 0)
(-0.135152 -0.751905 0)
(-0.0164191 -0.698581 0)
(0.318912 -0.155078 0)
(0.0152991 -0.128205 0)
(-0.0619986 0.00820913 0)
(-0.047881 0.25886 0)
(-0.484437 0.294367 0)
(-0.624518 -0.0453763 0)
(-0.725686 -0.0489212 0)
(-0.74859 0.0396711 0)
(-0.715812 0.0936319 0)
(-0.609002 -0.0260684 0)
(-0.534556 -0.309613 0)
(-0.351652 -0.609628 0)
(-0.142512 -0.986835 0)
(0.0154206 -1.17066 0)
(-0.550607 1.0655 0)
(-0.509473 0.98952 0)
(-0.484504 0.894159 0)
(-0.471603 0.793323 0)
(-0.461585 0.686898 0)
(-0.514837 0.578214 0)
(-0.527606 0.414116 0)
(-0.480231 0.266397 0)
(-0.363519 0.117824 0)
(-0.276159 0.000693674 0)
(-0.194822 0.0815515 0)
(-0.18735 0.0639844 0)
(-0.210468 -0.00807106 0)
(-0.234674 -0.0859013 0)
(-0.261593 -0.165339 0)
(-0.279955 -0.23957 0)
(-0.288294 -0.310358 0)
(-0.290813 -0.374286 0)
(-0.275061 -0.412512 0)
(-0.272334 -0.430643 0)
(-0.226325 -0.480026 0)
(-0.191882 -0.552619 0)
(-0.166196 -0.63739 0)
(-0.12873 -0.728382 0)
(-0.0816901 -0.793289 0)
(-0.00721265 -0.78548 0)
(0.246505 -0.331618 0)
(0.437523 0.0898158 0)
(-0.0994703 0.0480813 0)
(-0.0502733 0.393435 0)
(-0.201346 0.530622 0)
(-0.453918 0.0168313 0)
(-0.704252 -0.0267677 0)
(-0.752965 0.0341273 0)
(-0.685538 0.0265488 0)
(-0.580291 -0.121617 0)
(-0.379676 -0.434468 0)
(-0.186202 -0.779194 0)
(-0.0451641 -1.08179 0)
(0.00263538 -1.18816 0)
(-0.516767 1.0341 0)
(-0.480085 0.965023 0)
(-0.460687 0.880199 0)
(-0.449428 0.7966 0)
(-0.462936 0.721396 0)
(-0.631033 0.630125 0)
(-0.583124 0.433953 0)
(-0.620084 0.154607 0)
(-0.548129 -0.0137363 0)
(-0.386989 -0.0387572 0)
(-0.325941 0.0388664 0)
(-0.191724 0.0495294 0)
(-0.190402 -0.001563 0)
(-0.198232 -0.0706741 0)
(-0.212345 -0.151387 0)
(-0.222775 -0.231672 0)
(-0.22838 -0.306586 0)
(-0.229016 -0.369108 0)
(-0.21273 -0.41348 0)
(-0.180412 -0.469288 0)
(-0.136877 -0.556111 0)
(-0.106432 -0.564265 0)
(-0.0808352 -0.653557 0)
(-0.0500825 -0.76083 0)
(-0.0166022 -0.833769 0)
(0.022764 -0.85623 0)
(0.0918305 -0.714071 0)
(0.772935 0.354348 0)
(0.231083 0.308007 0)
(0.0192237 0.431831 0)
(0.0649048 0.578465 0)
(-0.0984487 0.308579 0)
(-0.426252 0.144524 0)
(-0.554174 0.0496791 0)
(-0.460466 -0.0230106 0)
(-0.34617 -0.245833 0)
(-0.178656 -0.56847 0)
(-0.062128 -0.883769 0)
(0.0243038 -1.11295 0)
(-0.00653849 -1.21098 0)
(-0.483292 1.00553 0)
(-0.452052 0.94454 0)
(-0.437008 0.873543 0)
(-0.435064 0.806711 0)
(-0.507343 0.80721 0)
(-0.625015 0.674392 0)
(-0.549617 0.351612 0)
(-0.50391 0.141885 0)
(-0.474228 -0.0163953 0)
(-0.467383 -0.130479 0)
(-0.347091 -0.0748881 0)
(-0.201685 0.00541401 0)
(-0.182604 -0.00967788 0)
(-0.178059 -0.068435 0)
(-0.178215 -0.146366 0)
(-0.1789 -0.228639 0)
(-0.177192 -0.307191 0)
(-0.171418 -0.374852 0)
(-0.154447 -0.428418 0)
(-0.123727 -0.49003 0)
(-0.0940709 -0.568051 0)
(-0.0881959 -0.624048 0)
(0.00979469 -0.672524 0)
(0.0305343 -0.785421 0)
(0.0552329 -0.864343 0)
(0.0786429 -0.905543 0)
(0.106947 -0.900132 0)
(0.531255 0.234045 0)
(0.535799 0.543171 0)
(0.191498 0.484587 0)
(0.312925 0.616464 0)
(0.244905 0.507724 0)
(0.0856999 0.352259 0)
(-0.0377696 0.1227 0)
(-0.0871124 -0.0838565 0)
(-0.0784116 -0.322307 0)
(-0.000368035 -0.657417 0)
(0.0388192 -0.927403 0)
(0.0713102 -1.11252 0)
(0.00986132 -1.17346 0)
(-0.450187 0.979403 0)
(-0.423362 0.927919 0)
(-0.411356 0.873971 0)
(-0.427998 0.83826 0)
(-0.512684 0.875212 0)
(-0.476486 0.63313 0)
(-0.428996 0.327191 0)
(-0.39259 0.131983 0)
(-0.378234 -0.0228261 0)
(-0.369328 -0.140675 0)
(-0.371124 -0.232498 0)
(-0.231517 -0.0517089 0)
(-0.190304 -0.0355369 0)
(-0.166003 -0.0785018 0)
(-0.152408 -0.150877 0)
(-0.142473 -0.232819 0)
(-0.132261 -0.313222 0)
(-0.11951 -0.385373 0)
(-0.0993782 -0.447681 0)
(-0.0713366 -0.510863 0)
(-0.0452799 -0.582628 0)
(-0.0612041 -0.647767 0)
(0.0891512 -0.72114 0)
(0.107974 -0.811525 0)
(0.127388 -0.887 0)
(0.142519 -0.934491 0)
(0.155191 -0.975642 0)
(0.336725 0.0106659 0)
(0.53011 0.548129 0)
(0.482085 0.595987 0)
(0.47661 0.586844 0)
(0.445228 0.516108 0)
(0.367314 0.398352 0)
(0.260911 0.200815 0)
(0.167015 -0.0314522 0)
(0.118318 -0.317833 0)
(0.11287 -0.68185 0)
(0.107892 -0.930524 0)
(0.0997218 -1.0885 0)
(0.0582371 -1.12392 0)
(-0.416473 0.955216 0)
(-0.392605 0.914161 0)
(-0.382711 0.87637 0)
(-0.397539 0.87976 0)
(-0.410446 0.865031 0)
(-0.325839 0.559544 0)
(-0.303985 0.320289 0)
(-0.289126 0.124533 0)
(-0.283918 -0.0270084 0)
(-0.277379 -0.136233 0)
(-0.284631 -0.225229 0)
(-0.28723 -0.104912 0)
(-0.192627 -0.0721117 0)
(-0.15131 -0.100059 0)
(-0.127458 -0.164745 0)
(-0.108255 -0.244496 0)
(-0.0897217 -0.325568 0)
(-0.0696253 -0.400484 0)
(-0.0453022 -0.467505 0)
(-0.0154428 -0.533059 0)
(0.0124532 -0.603888 0)
(-0.00590592 -0.683858 0)
(0.147659 -0.767719 0)
(0.175737 -0.845296 0)
(0.191103 -0.906508 0)
(0.203351 -0.951937 0)
(0.213759 -0.988072 0)
(0.263536 -0.107181 0)
(0.445479 0.44006 0)
(0.515991 0.592599 0)
(0.511981 0.58004 0)
(0.497656 0.529287 0)
(0.471462 0.446952 0)
(0.407748 0.280589 0)
(0.306374 0.0336395 0)
(0.238279 -0.278431 0)
(0.182072 -0.66203 0)
(0.145712 -0.908043 0)
(0.115034 -1.05193 0)
(0.0642439 -1.07585 0)
(-0.381594 0.932059 0)
(-0.359099 0.900554 0)
(-0.349078 0.873679 0)
(-0.342581 0.88209 0)
(-0.275533 0.809312 0)
(-0.215533 0.537092 0)
(-0.190827 0.318558 0)
(-0.202415 0.123227 0)
(-0.210519 -0.0303449 0)
(-0.207818 -0.129474 0)
(-0.213804 -0.195837 0)
(-0.251424 -0.155822 0)
(-0.164824 -0.11044 0)
(-0.125207 -0.126191 0)
(-0.0979421 -0.18491 0)
(-0.0725518 -0.262635 0)
(-0.046982 -0.344031 0)
(-0.0198816 -0.420816 0)
(0.0101808 -0.490491 0)
(0.0437598 -0.557402 0)
(0.0755406 -0.630512 0)
(0.0718096 -0.723594 0)
(0.211227 -0.818052 0)
(0.231414 -0.880397 0)
(0.242817 -0.923116 0)
(0.254526 -0.963929 0)
(0.263756 -0.970035 0)
(0.235342 -0.21458 0)
(0.373183 0.325915 0)
(0.471019 0.55346 0)
(0.486005 0.57393 0)
(0.485416 0.538087 0)
(0.472484 0.472515 0)
(0.442209 0.348008 0)
(0.365654 0.0981187 0)
(0.300895 -0.227567 0)
(0.223202 -0.614404 0)
(0.170518 -0.866709 0)
(0.127553 -1.0081 0)
(0.0483295 -1.01866 0)
(-0.345339 0.90849 0)
(-0.322808 0.883738 0)
(-0.307793 0.860379 0)
(-0.261561 0.856278 0)
(-0.177364 0.73133 0)
(-0.143491 0.524804 0)
(-0.106018 0.321741 0)
(-0.162206 0.121748 0)
(-0.167184 -0.0337618 0)
(-0.159219 -0.125187 0)
(-0.166542 -0.181333 0)
(-0.173001 -0.211997 0)
(-0.124885 -0.1401 0)
(-0.0917538 -0.151541 0)
(-0.0635515 -0.208047 0)
(-0.0341551 -0.285532 0)
(-0.00307269 -0.367952 0)
(0.030215 -0.446512 0)
(0.0660149 -0.518073 0)
(0.104115 -0.586515 0)
(0.139598 -0.662848 0)
(0.164058 -0.765041 0)
(0.263566 -0.856396 0)
(0.274743 -0.905252 0)
(0.284748 -0.938687 0)
(0.297781 -0.969963 0)
(0.299129 -0.919671 0)
(0.240313 -0.262752 0)
(0.326673 0.24188 0)
(0.417186 0.508297 0)
(0.446995 0.56622 0)
(0.445876 0.540002 0)
(0.440101 0.484466 0)
(0.420986 0.382752 0)
(0.381429 0.150688 0)
(0.329442 -0.17838 0)
(0.242533 -0.557001 0)
(0.197858 -0.815948 0)
(0.139782 -0.942424 0)
(0.0285645 -0.958924 0)
(-0.308022 0.882897 0)
(-0.283884 0.860928 0)
(-0.262678 0.831069 0)
(-0.176572 0.810698 0)
(-0.130472 0.671556 0)
(-0.105913 0.508585 0)
(-0.132425 0.349983 0)
(-0.154957 0.131168 0)
(-0.127904 -0.0363306 0)
(-0.117786 -0.123537 0)
(-0.124801 -0.181035 0)
(-0.126721 -0.22405 0)
(-0.0957669 -0.165692 0)
(-0.0557895 -0.176316 0)
(-0.0254226 -0.233047 0)
(0.00693943 -0.311952 0)
(0.0421669 -0.39637 0)
(0.0804455 -0.47702 0)
(0.120805 -0.549799 0)
(0.161226 -0.619216 0)
(0.197343 -0.698061 0)
(0.234215 -0.802799 0)
(0.301052 -0.884398 0)
(0.308199 -0.92198 0)
(0.314931 -0.951985 0)
(0.324045 -0.973011 0)
(0.319039 -0.875874 0)
(0.251213 -0.27633 0)
(0.297896 0.185525 0)
(0.366339 0.460773 0)
(0.40537 0.556573 0)
(0.40517 0.538797 0)
(0.401973 0.490452 0)
(0.392364 0.395234 0)
(0.380015 0.188609 0)
(0.343098 -0.140492 0)
(0.262651 -0.499257 0)
(0.228387 -0.765182 0)
(0.14653 -0.863442 0)
(0.0475005 -0.890037 0)
(-0.270404 0.85417 0)
(-0.24253 0.83064 0)
(-0.212448 0.79264 0)
(-0.113785 0.760919 0)
(-0.0919099 0.640029 0)
(-0.0706827 0.506806 0)
(-0.104249 0.375763 0)
(-0.0967279 0.122365 0)
(-0.0802548 -0.043688 0)
(-0.073872 -0.123409 0)
(-0.079236 -0.182221 0)
(-0.0809433 -0.232482 0)
(-0.0617981 -0.195086 0)
(-0.0145215 -0.20165 0)
(0.016405 -0.259508 0)
(0.0507584 -0.34095 0)
(0.0891039 -0.428184 0)
(0.131305 -0.511257 0)
(0.174544 -0.584174 0)
(0.214932 -0.65287 0)
(0.249584 -0.732488 0)
(0.293753 -0.836089 0)
(0.327448 -0.903695 0)
(0.332428 -0.932279 0)
(0.335505 -0.957021 0)
(0.336896 -0.970293 0)
(0.32641 -0.852675 0)
(0.246375 -0.277065 0)
(0.273475 0.148856 0)
(0.324826 0.418943 0)
(0.364907 0.538152 0)
(0.374606 0.537202 0)
(0.373954 0.49266 0)
(0.376037 0.398262 0)
(0.376532 0.206474 0)
(0.355035 -0.114753 0)
(0.301823 -0.447393 0)
(0.245111 -0.703936 0)
(0.131855 -0.798134 0)
(0.0573666 -0.811031 0)
(-0.233205 0.822847 0)
(-0.201986 0.795488 0)
(-0.168088 0.75369 0)
(-0.0727915 0.717881 0)
(-0.0561427 0.623805 0)
(-0.0360845 0.507986 0)
(-0.0581471 0.373974 0)
(-0.0377145 0.111148 0)
(-0.0319279 -0.0477483 0)
(-0.0285424 -0.12236 0)
(-0.0323844 -0.182059 0)
(-0.0344142 -0.235257 0)
(-0.0248209 -0.235027 0)
(0.0278739 -0.228441 0)
(0.0597106 -0.28786 0)
(0.0974037 -0.372334 0)
(0.139123 -0.462586 0)
(0.184558 -0.547969 0)
(0.228396 -0.619163 0)
(0.265694 -0.685147 0)
(0.299676 -0.76451 0)
(0.340813 -0.862937 0)
(0.348195 -0.911503 0)
(0.351051 -0.936623 0)
(0.351987 -0.958031 0)
(0.348872 -0.967692 0)
(0.323344 -0.773289 0)
(0.236462 -0.263715 0)
(0.249123 0.125815 0)
(0.287952 0.384041 0)
(0.3262 0.514768 0)
(0.34879 0.532167 0)
(0.355659 0.488634 0)
(0.36499 0.394445 0)
(0.368717 0.207047 0)
(0.358608 -0.0828057 0)
(0.316597 -0.392128 0)
(0.219321 -0.615069 0)
(0.111237 -0.72142 0)
(0.0370416 -0.744395 0)