/*--------------------------------*- C++ -*----------------------------------*\
| =========                 |                                                 |
| \\      /  F ield         | OpenFOAM: The Open Source CFD Toolbox           |
|  \\    /   O peration     | Version:  5.0                                   |
|   \\  /    A nd           | Web:      www.OpenFOAM.org                      |
|    \\/     M anipulation  |                                                 |
\*---------------------------------------------------------------------------*/
FoamFile
{
    version     2.0;
    format      ascii;
    class       surfaceScalarField;
    location    "1";
    object      alphaPhi10;
}
// * * * * * * * * * * * * * * * * * * * * * * * * * * * * * * * * * * * * * //

dimensions      [0 3 -1 0 0 0 0];

internalField   nonuniform List<scalar> 
3782
(
5.2704e-15
1.02512e-13
4.70218e-15
8.29466e-15
-2.06377e-15
-5.76224e-15
-2.1017e-15
-6.05203e-15
-1.30499e-15
-3.82159e-15
-7.06252e-16
-2.08443e-15
-3.55246e-16
-1.05051e-15
-1.69798e-16
-5.01265e-16
-7.82228e-17
-2.30102e-16
-3.51981e-17
-1.03147e-16
-1.56916e-17
-4.58726e-17
-7.03534e-18
-2.05797e-17
-3.21213e-18
-9.44681e-18
-1.49132e-18
-4.43872e-18
-6.71484e-19
-2.0399e-18
-2.38832e-19
-7.4843e-19
-4.96544e-21
-1.62608e-20
8.53116e-20
4.02032e-19
7.58047e-20
4.47397e-19
5.8689e-20
4.1125e-19
2.75198e-20
2.86453e-19
6.3631e-21
1.22286e-19
6.17109e-22
2.75897e-20
2.19383e-23
2.97678e-21
2.31079e-25
1.50944e-22
-9.62373e-27
4.41793e-24
-5.15775e-27
3.57156e-25
-1.20634e-27
5.26927e-26
-2.11536e-28
6.53871e-27
-3.15444e-29
7.3163e-28
-3.98268e-30
7.5694e-29
-4.22606e-31
6.9087e-30
-3.69838e-32
5.40431e-31
-2.56719e-33
3.51126e-32
-1.35736e-34
1.81096e-33
-5.53981e-36
7.10561e-35
-2.31482e-37
2.16167e-36
-1.44479e-38
6.83547e-38
-2.01677e-40
3.0498e-39
-1.23652e-42
2.78754e-41
-1.43946e-45
1.09341e-43
-4.1753e-61
7.0933e-47
6.46689e-63
7.12522e-14
-1.07454e-15
9.58857e-14
6.01728e-16
6.14263e-14
-1.93434e-15
2.79859e-17
2.27312e-14
4.87886e-15
2.34918e-15
3.82243e-15
1.65815e-15
1.28617e-15
6.01928e-16
9.54254e-17
7.41772e-16
-6.14231e-15
-1.75897e-15
-5.38742e-15
-1.24222e-15
-5.22038e-15
-8.8575e-16
-5.61207e-16
-5.37702e-15
-6.44969e-15
-1.84661e-15
-6.45796e-15
-1.55872e-15
-6.3426e-15
-1.21846e-15
-8.49416e-16
-6.12663e-15
-4.28227e-15
-1.23911e-15
-4.58544e-15
-1.16239e-15
-4.7385e-15
-1.01427e-15
-8.09607e-16
-4.73862e-15
-2.47336e-15
-7.2758e-16
-2.81248e-15
-7.48314e-16
-3.07589e-15
-7.22901e-16
-6.5088e-16
-3.24184e-15
-1.32676e-15
-3.98005e-16
-1.60636e-15
-4.47659e-16
-1.86895e-15
-4.7655e-16
-4.78557e-16
-2.09304e-15
-6.77822e-16
-2.07614e-16
-8.78691e-16
-2.55743e-16
-1.09439e-15
-2.99744e-16
-3.33905e-16
-1.31146e-15
-3.35464e-16
-1.04888e-16
-4.68885e-16
-1.42013e-16
-6.29565e-16
-1.83559e-16
-2.26442e-16
-8.12834e-16
-1.63408e-16
-5.20681e-17
-2.48161e-16
-7.78609e-17
-3.61786e-16
-1.11307e-16
-1.52013e-16
-5.06286e-16
-7.96318e-17
-2.5778e-17
-1.32395e-16
-4.27902e-17
-2.10847e-16
-6.78284e-17
-1.02436e-16
-3.20995e-16
-3.94584e-17
-1.2917e-17
-7.22602e-17
-2.38946e-17
-1.26123e-16
-4.20132e-17
-6.98812e-17
-2.08847e-16
-2.01355e-17
-6.62456e-18
-4.07434e-17
-1.36733e-17
-7.78691e-17
-2.6579e-17
-4.83155e-17
-1.39592e-16
-1.05819e-17
-3.47177e-18
-2.36804e-17
-7.99004e-18
-4.93597e-17
-1.70684e-17
-3.35784e-17
-9.50847e-17
-5.53826e-18
-1.79493e-18
-1.38171e-17
-4.63735e-18
-3.1413e-17
-1.08706e-17
-2.29979e-17
-6.47345e-17
-2.53698e-18
-8.03186e-19
-7.45646e-18
-2.45939e-18
-1.90015e-17
-6.49401e-18
-1.49291e-17
-4.2383e-17
-5.39347e-19
-1.64618e-19
-2.8139e-18
-8.99761e-19
-9.38383e-18
-3.12229e-18
-8.37567e-18
-2.43479e-17
6.86897e-19
2.49666e-19
8.25767e-19
6.20089e-19
-1.236e-18
-3.94171e-19
-2.82231e-18
-8.53654e-18
1.3874e-18
2.55344e-19
3.68438e-18
7.92334e-19
6.66832e-18
2.1624e-18
3.98623e-18
7.0616e-18
1.36605e-18
2.23741e-19
3.93563e-18
7.07644e-19
1.00676e-17
1.9959e-18
4.6739e-18
2.16105e-17
1.10007e-18
1.31543e-19
3.47243e-18
5.00242e-19
9.40993e-18
1.57168e-18
4.1209e-18
2.16972e-17
5.78207e-19
4.03026e-20
2.17577e-18
1.97603e-19
6.77521e-18
7.68254e-19
2.45376e-18
1.78186e-17
1.64782e-19
5.30173e-21
7.71661e-19
3.44526e-20
2.95535e-18
1.77658e-19
7.31191e-19
9.42811e-18
2.24864e-20
2.65554e-22
1.3204e-19
2.29892e-21
6.39135e-19
1.58391e-20
8.4874e-20
2.54297e-18
1.46361e-21
4.96417e-24
1.05995e-20
6.04634e-23
6.30299e-20
5.43457e-22
3.6207e-21
3.04773e-19
5.09002e-23
1.35898e-26
4.47761e-22
6.35237e-25
3.19437e-21
8.3439e-24
7.03835e-23
1.7967e-20
2.51075e-24
-2.2135e-26
1.66338e-23
-6.69009e-26
1.10821e-22
-5.78471e-26
7.23758e-25
6.57097e-22
3.6543e-25
-6.38771e-27
2.17041e-24
-3.00314e-26
1.15452e-23
-1.26707e-25
-4.19687e-25
5.20566e-23
4.57764e-26
-1.16438e-27
2.88901e-25
-6.23168e-27
1.71068e-24
-3.35693e-26
-1.52928e-25
8.66946e-24
4.97379e-27
-1.79732e-28
3.29012e-26
-1.09488e-27
2.19611e-25
-7.19329e-27
-3.90966e-26
1.25247e-24
5.18481e-28
-2.39021e-29
3.81014e-27
-1.75917e-28
2.97792e-26
-1.45506e-27
-9.38094e-27
1.91067e-25
4.92879e-29
-2.64816e-30
4.34233e-28
-2.42411e-29
4.18477e-27
-2.59225e-28
-2.05072e-27
3.10731e-26
4.0034e-30
-2.37043e-31
4.36551e-29
-2.6374e-30
5.36861e-28
-3.73152e-29
-3.88269e-28
4.84886e-27
2.65197e-31
-1.67122e-32
3.49977e-30
-2.1023e-31
5.65872e-29
-3.99771e-30
-6.00857e-29
6.71881e-28
1.38575e-32
-9.06593e-34
2.05856e-31
-1.12678e-32
4.46476e-30
-2.78132e-31
-6.77052e-30
7.66764e-29
5.55705e-34
-3.98749e-35
8.10658e-33
-3.881e-34
2.28284e-31
-9.5624e-33
-4.50432e-31
6.35434e-30
1.80298e-35
-2.05463e-36
2.02767e-34
-1.1552e-35
5.72793e-33
-6.69646e-35
-1.07427e-32
3.09515e-31
6.71094e-37
-1.33882e-37
4.03498e-36
-3.2854e-37
2.74128e-35
-8.24722e-38
-2.60455e-35
5.4191e-33
2.75104e-38
-1.37239e-39
4.84068e-38
-3.23645e-39
1.35255e-38
-8.16659e-40
-2.84587e-35
1.91211e-35
1.87426e-40
-8.74707e-42
3.29881e-40
-1.86854e-41
9.4565e-41
-1.64989e-42
-7.42326e-45
1.46594e-35
7.49876e-43
-1.55512e-44
1.23413e-42
-3.67925e-44
1.15193e-44
-1.80751e-45
-2.70029e-48
6.47803e-46
7.50378e-46
-6.46317e-63
1.32923e-45
-3.71686e-66
3.81509e-48
-2.46106e-69
-1.88835e-72
7.95495e-51
3.71933e-66
2.46295e-69
1.88835e-72
0
2.95719e-15
-2.3015e-16
1.28347e-15
-1.37822e-18
-1.2291e-16
3.36445e-17
-2.52387e-15
7.79949e-17
-2.02764e-15
1.36638e-16
-9.75718e-16
1.90126e-16
-3.10237e-16
6.99024e-17
-1.21822e-17
-8.15613e-17
-4.6425e-19
-7.65501e-18
5.8448e-11
-6.55873e-11
1.52324e-09
-2.16845e-09
1.99387e-09
-4.251e-09
8.45138e-10
-1.76419e-09
1.68165e-11
-4.73297e-11
3.81211e-14
-8.35154e-13
-1.96393e-14
-2.48331e-13
-1.12843e-13
-3.33003e-13
-2.43853e-12
-1.71391e-12
1.91684e-12
-8.6967e-12
-6.76319e-11
-5.1429e-11
-3.32364e-10
-3.02261e-10
-8.41489e-10
-1.13162e-09
-7.41628e-10
-1.82686e-09
-1.04907e-10
-6.75936e-10
-2.41139e-11
-1.84421e-11
-2.9026e-11
4.40598e-12
-3.21808e-11
-3.0519e-11
-7.70767e-10
2.22381e-11
-4.13207e-09
1.99506e-10
-4.24747e-09
3.77303e-10
-4.24621e-09
3.20917e-10
-3.71817e-09
1.82227e-10
-2.47636e-10
5.62262e-11
-4.97119e-12
-1.43416e-13
-2.13568e-14
-6.34771e-14
-2.69168e-14
-2.87733e-15
-4.74146e-15
-4.34239e-15
-4.21926e-15
-2.16371e-15
-5.00816e-15
-6.406e-15
-1.13453e-14
3.86412e-16
7.34366e-17
8.08924e-19
3.78787e-16
-1.41871e-16
4.86256e-16
-2.41911e-16
5.84837e-16
-3.32488e-16
6.78016e-16
-3.65655e-16
6.55175e-16
-1.04131e-16
3.83389e-16
1.42961e-16
6.32162e-17
1.25977e-16
9.62336e-18
5.26749e-10
-5.92349e-10
2.00582e-09
-3.27398e-09
1.57154e-09
-3.47073e-09
4.18806e-11
-3.30195e-10
6.60005e-13
-5.90188e-12
-1.10342e-14
-2.00881e-13
-5.99956e-14
-2.54327e-13
-1.7839e-13
-2.70515e-13
-5.2021e-13
-1.49991e-12
1.85146e-12
-1.2249e-11
4.92173e-11
-1.13104e-10
-1.901e-09
-1.27768e-09
-4.39256e-09
-1.85297e-09
-4.60688e-09
-1.54724e-09
-4.09968e-09
-1.1092e-09
-2.20236e-09
-6.34652e-10
-2.99376e-09
-2.34452e-10
-5.00428e-09
-1.19202e-10
-4.89213e-09
3.28682e-11
-4.72337e-09
1.05085e-10
-4.35994e-09
1.00808e-10
-2.75816e-09
2.02746e-11
-5.95373e-11
-8.05453e-14
-1.18504e-12
-1.42876e-12
-3.14596e-13
-6.93449e-13
-1.43503e-14
-3.5124e-13
-1.33909e-14
-1.10776e-14
-3.28357e-15
-2.13664e-15
-3.66149e-15
-2.70427e-15
-4.42074e-15
-8.545e-15
-1.47032e-14
-4.88179e-15
-1.73932e-16
-3.52131e-15
2.39976e-16
-2.45285e-15
5.48783e-16
-1.99757e-15
7.39631e-16
-1.71324e-15
8.02698e-16
-1.26227e-15
7.05696e-16
-5.63e-16
3.83392e-16
-7.03586e-17
1.02555e-16
-8.08903e-18
1.95304e-17
8.62235e-10
-7.19962e-10
1.34807e-09
-3.18616e-09
3.93192e-10
-3.04641e-09
5.35005e-12
-5.70796e-11
-3.35773e-15
-6.90291e-13
-4.67781e-14
-1.86001e-13
-9.99315e-14
-2.53644e-13
1.76056e-13
-6.23151e-13
-4.84585e-13
-1.01347e-12
-1.10698e-11
-2.86207e-12
-2.58086e-10
-1.64216e-11
-3.7994e-09
-4.1207e-10
-4.60489e-09
-1.00595e-09
-4.89762e-09
-1.20704e-09
-5.06732e-09
-8.7544e-10
-5.20752e-09
-4.51376e-10
-5.23438e-09
-6.26626e-11
-5.28906e-09
-1.56899e-14
-5.16143e-09
-1.30005e-13
-9.69701e-10
-8.58878e-13
-8.90751e-12
-8.25936e-13
-3.00526e-12
-4.52571e-13
-1.22369e-11
-4.32317e-12
-2.09281e-11
-8.19464e-12
-1.61205e-11
-2.21169e-11
-5.59273e-13
-1.06791e-11
-3.51117e-15
-5.6698e-13
-2.85768e-15
-2.93163e-15
-3.11162e-15
-3.46161e-15
-4.01922e-15
-9.98515e-15
-1.81084e-14
-5.59329e-15
-4.87296e-16
-4.8262e-15
-5.56203e-17
-4.01476e-15
2.41346e-16
-3.2058e-15
4.54316e-16
-2.38226e-15
5.65738e-16
-1.51774e-15
5.30176e-16
-6.08358e-16
2.9446e-16
-1.20296e-16
1.04549e-16
-1.67958e-17
2.5003e-17
9.07445e-10
-5.91761e-10
1.09825e-09
-2.75656e-09
5.86864e-11
-2.03771e-09
3.53004e-13
-2.00826e-11
-4.02687e-14
-3.45828e-13
-6.18335e-14
-1.63496e-13
-2.98741e-13
-2.41876e-13
-4.03766e-13
-8.6328e-13
-6.33541e-13
-1.14968e-12
-1.27258e-12
-1.0162e-12
-1.72007e-11
-1.99435e-13
-5.11878e-10
-5.15516e-14
-3.3789e-09
-9.05709e-13
-4.5451e-09
-7.07768e-12
-5.1942e-09
-5.57084e-11
-3.68669e-10
-3.7111e-15
-1.49736e-14
-2.27486e-14
-3.53028e-14
-2.6841e-15
-1.60039e-13
-1.32172e-14
-9.35885e-13
-1.04755e-13
-1.25734e-12
-6.21769e-13
-2.08135e-12
-3.17546e-12
-4.77868e-11
-2.16688e-11
-7.77941e-11
-2.79178e-11
-6.47889e-11
-3.22643e-11
-1.57436e-11
-3.42964e-11
-4.3848e-15
-3.22821e-12
-3.74545e-15
-3.71327e-15
-3.03519e-15
-4.3181e-15
-3.72851e-15
-1.10908e-14
-2.14606e-14
-4.528e-15
-6.13371e-16
-4.1267e-15
-2.98264e-16
-3.59676e-15
-1.264e-17
-2.95572e-15
1.79536e-16
-2.23027e-15
3.11307e-16
-1.41249e-15
3.29167e-16
-5.53404e-16
1.92723e-16
-1.40476e-16
6.98982e-17
-2.38362e-17
1.67082e-17
7.61288e-10
-5.18409e-10
9.53475e-10
-2.29361e-09
2.13243e-11
-1.39035e-09
2.88077e-14
-1.21173e-11
-7.83143e-14
-4.58676e-13
-1.04151e-13
-1.49528e-13
-4.65178e-13
1.12566e-14
-7.50616e-13
-8.52828e-13
-1.33623e-12
-9.65964e-13
-2.08571e-13
-6.65954e-13
-1.26186e-14
-1.43476e-13
-6.2876e-14
-1.30853e-15
-9.67454e-13
-1.15044e-15
-8.0438e-12
-1.38018e-15
-6.23895e-15
-1.87648e-15
-9.56762e-15
-1.24338e-15
-3.18719e-14
-1.89262e-15
-3.49541e-14
-3.70234e-15
-4.22668e-14
-2.22409e-14
5.70576e-14
-3.25159e-13
-1.70518e-11
-4.50861e-12
-9.37011e-11
-2.20292e-11
-8.47995e-11
-2.98003e-11
-7.62334e-11
-3.71071e-11
-6.45298e-11
-4.35467e-11
-3.17206e-11
-4.22872e-11
-4.5193e-15
-4.16658e-15
-3.42096e-15
-4.93544e-15
-2.82065e-15
-5.03454e-15
-3.41969e-15
-1.20334e-14
-2.44644e-14
-3.28487e-15
-5.91614e-16
-3.17058e-15
-4.09348e-16
-2.9027e-15
-2.12155e-16
-2.49782e-15
-2.46835e-17
-1.95071e-15
1.05277e-16
-1.23415e-15
1.61168e-16
-4.76451e-16
1.07627e-16
-1.18217e-16
4.16114e-17
-1.94032e-17
1.03018e-17
8.15625e-10
-6.10542e-10
1.00538e-09
-1.78737e-09
8.89164e-12
-9.50464e-10
-1.17042e-13
-1.14054e-11
-6.69415e-13
-3.31771e-12
-2.46095e-13
-4.48301e-12
-4.54639e-13
4.50473e-14
-7.19278e-13
-1.62502e-13
-1.45289e-12
-5.26416e-13
-1.05626e-12
-5.77998e-13
-3.9733e-15
-8.36463e-14
-4.33627e-15
-9.60029e-16
-4.63715e-15
-8.62797e-16
-4.92437e-15
-1.11176e-15
-5.61197e-15
-1.22732e-15
-6.35023e-15
-6.39602e-16
-8.31005e-15
-7.09212e-16
-1.84344e-14
-1.24942e-15
-6.57056e-14
-7.85599e-15
-6.35145e-13
-1.19173e-13
-7.82267e-11
-1.67061e-12
-8.23679e-11
-1.82342e-11
-7.61504e-11
-3.67793e-11
-6.80058e-11
-4.55325e-11
-4.98157e-11
-5.92658e-11
-8.18575e-15
-3.03837e-15
-5.75672e-15
-5.65415e-15
-2.05413e-15
-8.48673e-15
-1.88725e-15
-5.56189e-15
-3.04005e-15
-1.22126e-14
-2.68785e-14
-2.26873e-15
-5.02196e-16
-2.33792e-15
-4.25099e-16
-2.27617e-15
-3.15041e-16
-2.0642e-15
-1.8472e-16
-1.67908e-15
-5.47099e-17
-1.0696e-15
3.34107e-17
-4.09431e-16
4.32052e-17
-1.00621e-16
2.03072e-17
-1.63917e-17
5.48204e-18
9.44945e-10
-6.60532e-10
1.14049e-09
-1.26366e-09
1.35012e-11
-5.75914e-10
-8.51743e-14
-9.0236e-12
-4.63447e-12
-2.2268e-12
-5.81954e-12
-1.40434e-11
-5.029e-13
-4.78322e-12
-5.4227e-13
-9.15514e-14
-7.80346e-13
-7.46262e-14
-8.26345e-13
-1.76878e-13
-4.41711e-15
-3.00012e-14
-4.37803e-15
-1.0137e-15
-4.55676e-15
-7.03051e-16
-4.9467e-15
-1.29157e-15
-5.10414e-15
-1.16997e-15
-5.33816e-15
-1.07824e-15
-5.84032e-15
-1.05594e-15
-6.3848e-15
-1.23636e-15
-9.61116e-15
-1.88766e-15
-1.23669e-13
-2.72968e-15
-3.1605e-12
-3.66704e-14
-4.19919e-11
-8.87968e-13
-6.09668e-11
-1.49065e-11
-6.55205e-11
-4.00717e-11
-3.15873e-15
-1.62217e-11
-4.2402e-15
-2.7308e-15
-3.8614e-15
-5.15562e-15
-1.74433e-15
-8.57859e-15
-1.5773e-15
-6.04103e-15
-2.58382e-15
-1.17086e-14
-2.85911e-14
-1.53289e-15
-3.97731e-16
-1.69839e-15
-3.91403e-16
-1.76883e-15
-3.51701e-16
-1.70267e-15
-2.78486e-16
-1.44898e-15
-1.78264e-16
-9.43831e-16
-7.05812e-17
-3.60507e-16
-5.37178e-18
-8.79108e-17
-1.33099e-18
-1.42052e-17
-2.37619e-19
1.09629e-09
-3.37758e-10
1.29162e-09
-7.32851e-10
6.59969e-12
-3.28388e-10
-1.54066e-13
-7.76051e-12
-3.49955e-12
-2.2942e-12
-8.12868e-12
-6.93567e-12
-2.89313e-12
-7.60325e-12
-9.7424e-14
-2.85503e-12
-1.2301e-13
-1.62524e-14
-1.281e-13
-2.02161e-14
-1.96573e-14
-1.31653e-14
-4.45808e-15
-3.02616e-16
-7.49154e-15
-2.99877e-16
-9.34811e-15
-9.83367e-16
-9.95231e-15
-1.3635e-15
-9.61575e-15
-1.77707e-15
-7.43681e-15
-2.09898e-15
-5.29024e-15
-1.8084e-15
-3.54552e-15
-1.46074e-15
-5.12383e-15
-1.48237e-15
-4.02765e-14
-1.65524e-15
-9.26445e-13
-1.7459e-15
-9.62209e-12
-1.95225e-15
-3.01192e-12
-2.15159e-15
-2.90077e-15
-3.3672e-15
-3.43812e-15
-2.99256e-15
-2.84124e-15
-5.67116e-15
-1.40061e-15
-6.05718e-15
-1.29252e-15
-6.44743e-15
-2.06642e-15
-1.09824e-14
-2.95699e-14
-1.03177e-15
-3.03705e-16
-1.23495e-15
-3.39306e-16
-1.37874e-15
-3.49782e-16
-1.40872e-15
-3.24879e-16
-1.26091e-15
-2.58053e-16
-8.5112e-16
-1.48523e-16
-3.0356e-16
-4.19281e-17
3.39202e-17
2.65035e-18
3.364e-17
4.25645e-20
1.01667e-09
-4.95283e-11
1.28404e-09
-2.67547e-10
1.75439e-10
-2.07606e-10
2.95582e-12
-1.32525e-11
3.91167e-14
-7.07851e-13
-5.27475e-12
-3.97592e-13
-6.43811e-12
-1.61121e-12
-4.21113e-13
-1.56783e-12
-8.16902e-14
-3.31481e-13
-7.36008e-14
-4.22785e-15
-5.61519e-14
-7.25698e-15
-1.76022e-14
-1.50105e-14
-6.84221e-15
-1.0383e-14
-8.63414e-15
-7.42536e-16
-1.17034e-14
-1.41585e-15
-1.20831e-14
-2.97808e-15
-1.04503e-14
-4.00254e-15
-5.65845e-15
-3.97119e-15
-2.85395e-15
-2.97214e-15
-1.94877e-15
-2.00698e-15
-1.7765e-15
-1.77119e-15
-1.61741e-15
-1.91268e-15
-1.45175e-15
-2.06469e-15
-1.28947e-15
-2.32195e-15
-1.23249e-15
-3.43303e-15
-1.80289e-15
-3.19345e-15
-1.3918e-15
-6.2675e-15
-1.03029e-15
-6.8106e-15
-1.01613e-15
-6.76105e-15
-1.50872e-15
-1.02309e-14
-2.97945e-14
-7.01308e-16
-2.28365e-16
-9.07925e-16
-2.8526e-16
-1.08462e-15
-3.27733e-16
-1.17245e-15
-3.39213e-16
-1.10168e-15
-3.03282e-16
-7.83686e-16
-2.03412e-16
-2.77759e-16
-6.70419e-17
4.95056e-17
8.30026e-18
6.3571e-17
7.04608e-19
1.16426e-09
7.45762e-11
1.4749e-09
1.55104e-10
5.50376e-10
7.44686e-11
5.15588e-12
2.84633e-11
2.173e-12
1.03214e-12
1.11256e-13
4.21261e-13
-3.46621e-12
1.58154e-12
-1.73895e-12
2.11158e-12
-1.6764e-13
4.46605e-13
-1.5253e-13
5.0812e-15
-1.38172e-13
7.74007e-15
-9.44549e-14
1.22556e-15
-7.32172e-15
-4.44315e-15
-7.89263e-15
-1.82444e-15
-1.19445e-14
-2.08776e-15
-1.31726e-14
-4.04734e-15
-1.24913e-14
-5.93401e-15
-8.76122e-15
-6.93171e-15
-4.56913e-15
-6.0455e-15
-2.11658e-15
-4.04826e-15
-1.22428e-15
-2.59008e-15
-1.08186e-15
-2.09515e-15
-9.59378e-16
-2.19731e-15
-8.67814e-16
-2.42244e-15
-9.35793e-16
-3.37737e-15
-1.20156e-15
-3.45898e-15
-1.11038e-15
-6.65892e-15
-6.46263e-16
-9.14512e-15
-5.9379e-16
-7.11577e-15
-9.32729e-16
-9.56494e-15
-2.9253e-14
-4.85708e-16
-1.71304e-16
-6.78067e-16
-2.36001e-16
-8.62116e-16
-2.96e-16
-9.80651e-16
-3.31949e-16
-9.63513e-16
-3.21243e-16
-7.23069e-16
-2.37119e-16
-2.31584e-16
-7.45525e-17
1.82819e-16
6.16744e-17
2.17157e-16
3.4189e-18
7.35461e-11
1.02692e-12
1.83152e-09
1.01961e-11
7.31519e-10
1.68e-10
1.1626e-11
9.58198e-11
-1.17316e-12
9.23724e-12
2.65822e-12
1.00905e-11
2.39968e-13
5.13017e-12
-6.48743e-14
3.04549e-12
-3.14076e-13
1.00051e-12
-8.98805e-14
6.03193e-14
-7.59178e-14
1.77064e-14
-6.66805e-14
9.42838e-15
-1.7748e-14
3.98024e-16
-8.14901e-15
-1.18294e-15
-8.16153e-15
-2.68418e-15
-9.08967e-15
-4.87712e-15
-8.92166e-15
-7.57607e-15
-7.22497e-15
-9.62427e-15
-4.07995e-15
-9.49995e-15
-1.75262e-15
-6.60766e-15
-8.40511e-16
-3.65603e-15
-5.61146e-16
-2.51614e-15
-4.47263e-16
-2.35021e-15
-3.84581e-16
-2.48793e-15
-7.31116e-16
-4.103e-15
-7.30032e-16
-6.43005e-15
-7.06398e-16
-7.59621e-15
-2.52487e-16
-1.34193e-14
-1.686e-16
-7.42255e-15
-3.46475e-16
-9.24645e-15
-2.79454e-14
-3.43858e-16
-1.28898e-16
-5.1403e-16
-1.93077e-16
-6.90253e-16
-2.59858e-16
-8.2105e-16
-3.09863e-16
-8.3961e-16
-3.17676e-16
-6.6258e-16
-2.51337e-16
-1.20792e-16
-4.59416e-17
4.19866e-16
2.25472e-16
4.70146e-16
1.59643e-17
9.96267e-13
2.94557e-14
5.35753e-11
1.45758e-12
2.61079e-10
5.28742e-12
1.23183e-10
1.17143e-11
-7.52153e-12
3.78955e-11
-1.43149e-12
1.87709e-11
1.05795e-12
1.37428e-11
1.25331e-12
5.28627e-12
4.4481e-14
2.26794e-12
1.05271e-14
1.09866e-13
5.34781e-15
1.89945e-14
6.95943e-16
3.43865e-15
-3.02125e-16
8.99669e-16
-7.71757e-16
-7.34516e-16
-1.09533e-15
-2.58092e-15
-1.2761e-15
-5.29323e-15
-1.17335e-15
-8.06859e-15
-8.49124e-16
-1.08576e-14
-3.3673e-16
-1.18057e-14
-3.0131e-17
-8.75775e-15
4.32902e-17
-4.61862e-15
6.71916e-17
-2.70622e-15
9.18798e-17
-2.3606e-15
1.22356e-16
-2.50972e-15
1.08973e-15
-2.15503e-14
3.46348e-15
-1.71893e-13
1.64996e-15
-1.54879e-13
2.73147e-16
-3.08416e-14
1.36807e-16
-8.27566e-15
7.76429e-17
-9.16708e-15
-2.60913e-14
-2.48031e-16
-9.71019e-17
-3.93329e-16
-1.55865e-16
-5.5321e-16
-2.21855e-16
-6.84042e-16
-2.77532e-16
-7.24996e-16
-2.97451e-16
-5.85812e-16
-2.42912e-16
-6.27045e-17
-2.62671e-17
1.16497e-15
6.27585e-16
1.39295e-15
1.01018e-16
3.06271e-14
7.48692e-16
1.44342e-12
5.07433e-14
6.60081e-12
2.58908e-13
4.1309e-11
7.11591e-13
3.73303e-11
-1.72047e-12
2.97874e-11
6.34545e-12
2.94454e-11
1.8105e-11
2.2591e-11
1.63888e-11
6.53706e-12
1.11348e-11
8.70849e-15
2.3668e-12
8.10958e-15
2.01706e-14
8.13103e-15
3.43726e-15
7.51637e-15
1.49292e-15
7.0812e-15
-3.10592e-16
7.43159e-15
-2.40597e-15
7.88226e-15
-5.19372e-15
7.98712e-15
-7.9851e-15
7.9856e-15
-1.06677e-14
5.84073e-15
-1.19744e-14
2.75685e-15
-8.75049e-15
1.1367e-15
-4.62236e-15
7.17138e-16
-2.65823e-15
6.86716e-16
-2.22536e-15
6.67825e-16
-2.47857e-15
3.75398e-14
-9.34528e-14
6.02483e-14
-4.17173e-13
3.14019e-14
-5.63634e-13
5.29476e-16
-1.14114e-13
4.46154e-16
-1.19694e-14
2.63529e-16
-8.98235e-15
-2.39435e-14
-1.80527e-16
-7.25829e-17
-3.0088e-16
-1.23243e-16
-4.40046e-16
-1.83419e-16
-5.62959e-16
-2.3846e-16
-6.16907e-16
-2.65139e-16
-5.09673e-16
-2.21884e-16
-4.81946e-17
-2.12177e-17
2.36974e-15
8.16381e-16
2.55294e-15
1.40224e-15
3.45138e-15
1.13408e-15
5.01987e-14
3.19126e-15
3.02352e-13
1.23465e-14
8.82409e-13
1.59201e-13
2.53446e-12
-1.97659e-13
1.06922e-11
1.5084e-12
3.36351e-11
7.29257e-12
3.89261e-11
1.56156e-11
3.75628e-11
1.67262e-11
7.3241e-13
7.16089e-12
2.50202e-14
2.31167e-13
1.61698e-14
1.2711e-14
1.55202e-14
2.16156e-15
1.51036e-14
8.4432e-17
1.64692e-14
-2.07288e-15
1.73682e-14
-4.80028e-15
1.70004e-14
-7.42718e-15
1.5821e-14
-9.97069e-15
1.10646e-14
-1.00463e-14
5.26637e-15
-7.34385e-15
2.25406e-15
-4.39082e-15
1.39913e-15
-2.61029e-15
1.35928e-15
-2.17413e-15
1.28799e-15
-2.39447e-15
1.03369e-13
-1.54067e-13
1.43104e-13
-4.53343e-13
1.22252e-13
-5.39039e-13
6.10984e-15
-2.5908e-13
6.12873e-16
-3.2647e-14
4.43093e-16
-8.93036e-15
-2.16073e-14
-1.30424e-16
-5.29828e-17
-2.27022e-16
-9.43206e-17
-3.43669e-16
-1.45689e-16
-4.5363e-16
-1.95716e-16
-5.1367e-16
-2.24922e-16
-4.42049e-16
-1.95864e-16
-4.90094e-17
-2.19078e-17
2.84131e-15
7.89359e-16
3.90344e-15
1.66544e-15
3.92127e-15
1.70403e-15
3.35119e-15
1.23644e-15
1.3194e-14
1.45633e-15
1.48899e-13
2.46205e-14
7.70133e-12
2.90063e-13
3.22141e-11
2.04943e-11
8.22073e-12
1.38195e-11
1.24619e-12
1.01267e-11
2.97944e-12
7.83447e-12
-2.87288e-15
3.28455e-12
3.64865e-14
1.81304e-13
2.53345e-14
2.41927e-14
2.35359e-14
4.93154e-15
2.37605e-14
9.46288e-16
2.39663e-14
-8.88988e-16
2.40472e-14
-2.76517e-15
2.31704e-14
-4.93269e-15
1.9037e-14
-6.23641e-15
1.25471e-14
-6.69782e-15
6.8531e-15
-5.54818e-15
3.47683e-15
-3.96226e-15
2.12891e-15
-2.56301e-15
2.03825e-15
-2.07196e-15
1.91289e-15
-2.25762e-15
1.99093e-13
-1.41321e-13
2.02853e-13
-4.52989e-13
1.72048e-13
-5.04624e-13
3.91217e-14
-3.75979e-13
7.019e-16
-6.77942e-14
6.15018e-16
-9.20467e-15
-1.91493e-14
-9.10447e-17
-3.67725e-17
-1.65667e-16
-6.8577e-17
-2.59608e-16
-1.09745e-16
-3.53624e-16
-1.52084e-16
-4.14387e-16
-1.80586e-16
-3.77893e-16
-1.66175e-16
-1.18083e-16
-5.21727e-17
1.9077e-15
2.73094e-16
3.63414e-15
1.51111e-15
4.15401e-15
1.81543e-15
2.63143e-15
1.26285e-15
2.14261e-15
3.87347e-16
2.57261e-14
8.76779e-16
4.38e-11
3.50187e-12
6.64471e-11
1.70756e-11
6.16146e-11
1.8171e-11
5.12893e-11
2.02044e-11
4.01991e-11
1.75516e-11
6.82418e-12
1.05312e-11
1.79153e-12
5.2977e-12
2.62414e-13
1.55341e-12
5.16878e-14
2.15581e-13
3.20829e-14
1.93219e-14
3.13867e-14
-3.57138e-15
2.60185e-14
5.36839e-15
2.30391e-14
-5.00412e-15
1.79978e-14
-5.56133e-15
1.24143e-14
-4.89337e-15
8.12311e-15
-4.2478e-15
4.75058e-15
-3.42104e-15
2.82307e-15
-2.38968e-15
2.67871e-15
-1.91139e-15
2.5023e-15
-2.07002e-15
2.9025e-13
-1.31861e-13
2.61042e-13
-4.16514e-13
2.19153e-13
-4.58583e-13
8.2633e-14
-4.2524e-13
1.25416e-15
-8.53382e-14
8.37796e-16
-1.03131e-14
-1.65768e-14
-5.8092e-17
-2.29544e-17
-1.12676e-16
-4.5676e-17
-1.84703e-16
-7.64444e-17
-2.61242e-16
-1.09842e-16
-3.18308e-16
-1.35267e-16
-3.11257e-16
-1.3298e-16
-1.61767e-16
-6.9109e-17
4.87937e-16
9.48808e-17
2.82592e-15
4.59364e-16
3.45666e-15
1.13091e-15
2.51785e-15
1.02378e-15
9.04002e-16
3.49274e-16
1.57842e-15
6.80228e-17
3.47485e-12
2.82343e-14
7.10467e-11
6.6701e-12
7.10879e-11
1.80571e-11
7.16137e-11
1.94222e-11
7.10914e-11
1.68693e-11
6.96858e-11
1.09656e-11
6.27718e-11
1.20871e-11
5.43579e-11
8.96765e-12
2.28052e-11
4.59773e-12
-1.66969e-13
5.42679e-13
1.43293e-13
-6.57439e-13
9.66554e-14
-2.36652e-13
2.97618e-14
-4.87939e-14
1.64618e-14
-1.09392e-14
1.21795e-14
-4.0724e-15
9.11967e-15
-3.44009e-15
5.90385e-15
-3.01356e-15
3.52939e-15
-2.1304e-15
3.34225e-15
-1.69982e-15
3.12099e-15
-1.83292e-15
3.6084e-13
-1.50595e-13
3.16419e-13
-3.63889e-13
2.65213e-13
-4.02198e-13
1.11248e-13
-4.13071e-13
5.39392e-15
-7.96621e-14
1.15093e-15
-8.88218e-15
-1.38057e-14
-2.8557e-17
-1.0859e-17
-6.45989e-17
-2.52118e-17
-1.15807e-16
-4.61091e-17
-1.74282e-16
-7.03594e-17
-2.23973e-16
-9.11162e-17
-2.36414e-16
-9.63117e-17
-1.70077e-16
-6.89436e-17
-1.19888e-17
-4.80464e-18
6.34421e-16
1.05689e-16
1.40691e-15
1.97397e-16
1.41724e-15
2.65165e-16
5.36526e-16
1.73259e-16
4.44302e-16
2.2326e-17
2.6434e-13
8.98683e-15
7.93852e-12
2.33258e-13
5.52038e-11
1.57131e-12
8.20369e-11
9.06712e-12
8.30252e-11
1.55493e-11
8.19348e-11
1.10698e-11
8.19168e-11
1.17033e-11
8.1564e-11
8.67972e-12
7.96534e-11
5.58419e-12
7.63327e-11
2.68635e-12
9.64503e-12
-2.52806e-13
5.09949e-14
-1.19557e-13
1.23496e-14
-3.59202e-14
1.40525e-14
-7.74545e-15
1.24074e-14
-3.46435e-15
1.05409e-14
-3.03899e-15
7.12095e-15
-2.61599e-15
4.222e-15
-1.81312e-15
4.03526e-15
-1.45241e-15
3.77791e-15
-1.55103e-15
4.19754e-13
-1.40101e-13
3.692e-13
-3.05059e-13
3.09103e-13
-3.35825e-13
1.25888e-13
-3.46361e-13
7.39387e-15
-5.68459e-14
1.26164e-15
-6.57653e-15
-1.09707e-14
-1.16493e-18
-4.18999e-19
-1.92789e-17
-7.11976e-18
-4.96459e-17
-1.86881e-17
-8.92474e-17
-3.39972e-17
-1.28319e-16
-4.91119e-17
-1.49692e-16
-5.71515e-17
-1.31674e-16
-4.97897e-17
-6.85421e-17
-2.54828e-17
3.31696e-17
3.97717e-18
1.97624e-16
2.30616e-17
2.5914e-16
2.054e-17
1.6387e-16
2.34675e-17
1.4795e-16
1.50757e-17
8.88257e-15
2.09178e-16
2.42202e-13
5.9057e-15
1.80343e-12
2.69236e-14
1.96031e-11
3.74838e-13
2.90451e-11
1.508e-13
3.45416e-11
-1.62759e-13
8.78345e-11
8.95405e-13
9.00031e-11
5.49768e-12
8.85401e-11
5.72655e-12
7.10731e-11
2.49109e-12
5.47681e-13
1.8675e-14
9.98072e-14
-4.97447e-14
2.81893e-14
-9.52437e-15
1.525e-14
-2.91533e-15
1.53974e-14
-2.38071e-15
1.2747e-14
-2.35372e-15
8.24358e-15
-2.03148e-15
4.66136e-15
-1.44287e-15
4.77956e-15
-1.1436e-15
4.51963e-15
-1.23049e-15
4.64408e-13
-7.30167e-14
4.1698e-13
-2.4795e-13
3.48272e-13
-2.59467e-13
1.05682e-13
-2.41149e-13
6.5487e-15
-2.78113e-14
1.2833e-15
-4.48112e-15
-8.16816e-15
3.59072e-17
1.2404e-17
3.48999e-17
2.02054e-17
2.19107e-17
2.1729e-17
-2.71706e-18
-9.59545e-19
-2.78353e-17
-9.85071e-18
-4.85699e-17
-1.70865e-17
-5.42249e-17
-1.88118e-17
-3.89552e-17
-1.32213e-17
-1.27754e-17
-4.20774e-18
9.75093e-18
8.60409e-19
3.19164e-17
7.34314e-18
3.85539e-17
1.06544e-17
3.62779e-17
9.71236e-18
1.53963e-16
1.47241e-17
6.34253e-15
8.9173e-17
3.34073e-14
5.52813e-16
4.04411e-13
7.5401e-15
5.48999e-13
6.01921e-15
3.87627e-13
-2.09145e-15
3.97196e-12
3.95132e-14
1.66425e-11
1.06425e-13
1.78197e-11
2.29224e-15
1.12544e-11
-1.15678e-13
1.38657e-12
-1.70446e-14
1.84187e-14
-1.88157e-15
9.71366e-15
-1.42554e-15
1.57791e-14
-8.51063e-16
1.68856e-14
-9.85904e-16
1.35652e-14
-1.09168e-15
9.05034e-15
-1.21297e-15
5.5473e-15
-1.11927e-15
4.87418e-15
-8.99083e-16
4.73432e-15
-8.91415e-16
3.40528e-13
-2.72864e-15
4.51242e-13
-1.60273e-13
3.75621e-13
-1.74149e-13
7.76027e-14
-1.32454e-13
5.52763e-15
-9.31773e-15
1.30335e-15
-2.78485e-15
-5.43431e-15
4.95744e-17
1.10361e-17
9.33889e-17
2.31676e-17
1.38348e-16
4.29979e-17
1.60256e-16
6.83503e-17
1.52058e-16
8.22578e-17
1.2444e-16
8.25721e-17
9.73822e-17
7.31111e-17
8.31536e-17
5.94749e-17
7.82021e-17
4.78153e-17
7.78332e-17
4.08782e-17
7.88324e-17
3.44173e-17
7.77421e-17
2.87636e-17
7.94181e-17
2.74114e-17
8.80371e-17
2.27204e-17
2.23371e-16
3.24685e-17
8.45499e-16
8.32072e-17
8.62553e-15
6.67599e-17
1.56081e-14
7.15684e-17
1.41698e-14
4.14356e-17
5.39259e-14
1.81976e-16
1.60676e-13
7.66429e-16
1.62553e-13
8.84365e-16
4.53822e-14
9.09284e-16
3.1022e-14
2.05402e-16
1.77503e-14
6.30966e-18
1.45414e-14
-1.0783e-16
1.36385e-14
-2.62204e-16
1.26446e-14
-4.54357e-16
1.14797e-14
-5.94235e-16
1.02643e-14
-6.95917e-16
8.47931e-15
-7.54704e-16
5.49942e-15
-6.71796e-16
5.86843e-15
-4.66194e-16
3.74038e-14
-5.16729e-16
4.38384e-13
-4.33435e-14
3.59405e-13
-7.96057e-14
4.24301e-14
-4.67734e-14
5.20487e-15
-3.03233e-15
1.33775e-15
-1.35918e-15
-2.79166e-15
4.44258e-17
7.75399e-18
9.36495e-17
1.90593e-17
1.73178e-16
3.85726e-17
2.86996e-16
6.72842e-17
4.17609e-16
1.04355e-16
5.25777e-16
1.54219e-16
5.88714e-16
2.05056e-16
6.0578e-16
2.31521e-16
5.95349e-16
2.39034e-16
5.7583e-16
2.3235e-16
5.53442e-16
2.17151e-16
5.31889e-16
1.98777e-16
5.25527e-16
1.78258e-16
5.38704e-16
1.66803e-16
6.15673e-16
1.54801e-16
8.15449e-16
1.38236e-16
1.08316e-15
1.22448e-16
1.54103e-15
1.46475e-16
2.0934e-15
1.70722e-16
2.69289e-15
1.77091e-16
4.20143e-15
2.0567e-16
5.91753e-15
2.29042e-16
6.56087e-15
2.02825e-16
6.75315e-15
1.43727e-16
8.06972e-15
9.84328e-17
1.02705e-14
5.77412e-17
1.24706e-14
1.4e-17
1.42043e-14
-3.03942e-17
1.45642e-14
-4.90891e-17
1.38301e-14
-3.44245e-17
1.22257e-14
4.97898e-18
8.24286e-15
4.60621e-17
6.27328e-15
5.53333e-17
6.67698e-15
7.34538e-17
3.55663e-13
1.48787e-15
2.74263e-13
4.70358e-15
3.00576e-14
2.63074e-15
4.68329e-15
2.22104e-16
1.38198e-15
-1.55728e-17
-3.11241e-16
2.84361e-17
3.03858e-18
7.09681e-17
9.55907e-18
1.48734e-16
2.39359e-17
2.69923e-16
4.96324e-17
4.36376e-16
8.85521e-17
6.59892e-16
1.36324e-16
9.37901e-16
1.94185e-16
1.24722e-15
2.56485e-16
1.55606e-15
3.35515e-16
1.84638e-15
4.20221e-16
2.1179e-15
4.95629e-16
2.37793e-15
5.55309e-16
2.64575e-15
5.9814e-16
2.94763e-15
6.25684e-16
3.28915e-15
6.38024e-16
3.68222e-15
6.31855e-16
4.17098e-15
6.14086e-16
4.84197e-15
5.89483e-16
5.68752e-15
5.60305e-16
6.72049e-15
5.28041e-16
8.03294e-15
4.74503e-16
9.62532e-15
4.22689e-16
1.14911e-14
3.98138e-16
1.36978e-14
3.93916e-16
1.62322e-14
3.93178e-16
1.86868e-14
3.66476e-16
1.99656e-14
4.72435e-16
1.96424e-14
6.17845e-16
1.8837e-14
7.39023e-16
1.73057e-14
8.85624e-16
1.46939e-14
1.02445e-15
1.00963e-14
1.01546e-15
6.64451e-15
7.90617e-16
1.34465e-14
8.0761e-16
1.13772e-13
2.96223e-15
1.29852e-13
5.91183e-15
5.03711e-14
1.28259e-14
4.72727e-15
6.25369e-15
1.33396e-15
1.26378e-15
1.74944e-15
9.87783e-18
4.83916e-19
3.13157e-17
2.08087e-18
8.13807e-17
6.99468e-18
1.77917e-16
1.89264e-17
3.37012e-16
4.28042e-17
5.66028e-16
8.09197e-17
8.71697e-16
1.34196e-16
1.25669e-15
2.02245e-16
1.75842e-15
2.77378e-16
2.41389e-15
3.59773e-16
3.24771e-15
4.51241e-16
4.28369e-15
5.47236e-16
5.54704e-15
6.42098e-16
7.05275e-15
7.29956e-16
8.78117e-15
8.2302e-16
1.06961e-14
8.87971e-16
1.27305e-14
9.13359e-16
1.47918e-14
8.98437e-16
1.68087e-14
8.50269e-16
1.87134e-14
7.69238e-16
2.04716e-14
6.62182e-16
2.21255e-14
5.61919e-16
2.35268e-14
5.39075e-16
2.41581e-14
5.64524e-16
2.41005e-14
6.42391e-16
2.38659e-14
7.9255e-16
2.33684e-14
1.00948e-15
2.20317e-14
1.26969e-15
1.95707e-14
1.5274e-15
1.66022e-14
1.64172e-15
1.38211e-14
1.70719e-15
1.10819e-14
1.88853e-15
8.09192e-15
1.83369e-15
6.79614e-15
1.75831e-15
7.21371e-15
9.90817e-16
1.36738e-14
6.60787e-16
1.49588e-14
1.64994e-15
4.52805e-15
3.30909e-15
1.3323e-15
2.30678e-15
3.7755e-15
1.51829e-18
2.68475e-20
6.23694e-18
1.53647e-19
2.09217e-17
6.92153e-19
5.83184e-17
2.51756e-18
1.38518e-16
7.56692e-18
2.84587e-16
1.89713e-17
5.20456e-16
4.03943e-17
8.71035e-16
7.57017e-17
1.35801e-15
1.25482e-16
2.0126e-15
1.87975e-16
2.87758e-15
2.61452e-16
3.99845e-15
3.43172e-16