/*--------------------------------*- C++ -*----------------------------------*\
| =========                 |                                                 |
| \\      /  F ield         | OpenFOAM: The Open Source CFD Toolbox           |
|  \\    /   O peration     | Version:  5.0                                   |
|   \\  /    A nd           | Web:      www.OpenFOAM.org                      |
|    \\/     M anipulation  |                                                 |
\*---------------------------------------------------------------------------*/
FoamFile
{
    version     2.0;
    format      ascii;
    class       volScalarField;
    location    "1";
    object      alpha.water;
}
// * * * * * * * * * * * * * * * * * * * * * * * * * * * * * * * * * * * * * //

dimensions      [0 0 0 0 0 0 0];

internalField   nonuniform List<scalar> 
1935
(
1.94119e-10
-4.29049e-12
-1.73017e-10
-1.74958e-10
-1.08453e-10
-5.89243e-11
-2.99103e-11
-1.44967e-11
-6.80352e-12
-3.13371e-12
-1.43751e-12
-6.67104e-13
-3.17424e-13
-1.54826e-13
-7.3937e-14
-2.82089e-14
-6.3773e-16
1.1313e-14
1.19025e-14
1.12313e-14
7.91719e-15
3.4018e-15
7.72878e-16
8.40266e-17
4.32185e-18
1.37874e-19
1.32593e-20
2.14114e-21
2.94211e-22
3.70442e-23
4.35769e-24
4.58585e-25
4.21515e-26
3.28619e-27
2.07679e-28
1.01908e-29
3.94364e-31
1.60276e-32
9.57947e-34
1.27214e-35
7.62269e-38
8.74642e-41
5.10499e-56
1.61928e-10
1.50488e-10
9.21393e-11
6.92268e-10
-1.63626e-12
0
-1.13363e-26
2.32875e-11
-1.86593e-10
-1.66887e-10
-1.66309e-10
-1.77693e-10
-1.88475e-10
-1.92413e-10
-1.94427e-10
-1.94969e-10
-1.22602e-10
-1.3358e-10
-1.41714e-10
-1.46803e-10
-7.03788e-11
-8.12128e-11
-9.09057e-11
-9.89231e-11
-3.79403e-11
-4.64878e-11
-5.51796e-11
-6.35748e-11
-1.96466e-11
-2.57065e-11
-3.25594e-11
-3.99947e-11
-9.92042e-12
-1.39589e-11
-1.89998e-11
-2.50524e-11
-4.95484e-12
-7.55497e-12
-1.11294e-11
-1.58451e-11
-2.48492e-12
-4.13642e-12
-6.6338e-12
-1.02334e-11
-1.27053e-12
-2.32251e-12
-4.06739e-12
-6.79521e-12
-6.70218e-13
-1.34924e-12
-2.57727e-12
-4.63995e-12
-3.64527e-13
-8.08675e-13
-1.67766e-12
-3.22992e-12
-1.97587e-13
-4.86797e-13
-1.09664e-12
-2.24719e-12
-9.37829e-14
-2.71089e-13
-6.81365e-13
-1.50341e-12
-2.0667e-14
-1.05594e-13
-3.45672e-13
-8.82589e-13
2.22465e-14
3.07073e-14
-4.67927e-14
-3.16365e-13
3.82659e-14
1.03163e-13
2.36434e-13
2.61897e-13
3.83462e-14
1.09973e-13
2.8583e-13
6.14472e-13
3.13164e-14
9.87024e-14
2.69881e-13
6.21503e-13
1.64981e-14
6.19058e-14
1.93786e-13
5.09816e-13
4.70015e-15
2.17819e-14
8.33823e-14
2.64829e-13
6.40989e-16
3.68672e-15
1.77182e-14
6.96244e-14
4.18854e-17
2.93901e-16
1.72117e-15
8.13597e-15
1.52099e-18
1.26581e-17
8.76468e-17
4.75606e-16
9.04005e-20
5.456e-19
3.34685e-18
1.83942e-17
1.45111e-20
8.17008e-20
4.18399e-19
1.78412e-18
1.9974e-21
1.18193e-20
6.6706e-20
3.21345e-19
2.42688e-22
1.48514e-21
9.35543e-21
5.05015e-20
2.85466e-23
1.916e-22
1.4064e-21
8.54499e-21
3.09618e-24
2.46023e-23
2.22341e-22
1.56495e-21
2.9239e-25
2.84005e-24
3.26594e-23
2.7911e-22
2.30536e-26
2.67711e-25
4.01785e-24
4.49213e-23
1.46899e-27
1.89993e-26
3.77937e-25
6.06737e-24
7.36392e-29
9.2856e-28
2.35788e-26
6.0713e-25
3.07058e-30
2.99004e-29
7.41252e-28
3.64122e-26
1.53269e-31
8.49309e-31
4.87247e-30
8.00899e-28
9.48088e-33
2.31391e-32
5.79148e-33
3.71044e-30
9.20616e-35
2.18826e-34
5.54897e-35
3.91299e-30
5.73101e-37
1.2299e-36
1.08908e-37
2.64077e-40
1.00193e-39
2.3757e-39
1.16849e-40
3.2349e-44
-2.18389e-86
0
0
0
2.66035e-10
-2.38372e-13
-4.58333e-12
-9.42563e-11
-7.56849e-11
-3.67653e-11
-1.20855e-11
-5.04914e-13
-2.09499e-14
-1.87377e-09
6.07408e-05
0.000156899
0.000119534
1.06768e-07
1.14002e-08
5.51854e-08
8.79449e-09
9.38399e-09
1.83796e-08
2.30344e-06
1.02456e-05
2.21003e-05
3.42523e-05
1.28963e-05
1.75516e-07
1.21745e-08
4.91296e-07
7.60349e-06
9.07203e-05
0.000153928
0.000152097
0.000150232
9.64842e-05
1.34416e-08
8.1659e-10
8.18662e-10
1.30881e-09
4.514e-10
8.7542e-10
1.51755e-09
9.66381e-12
-9.92451e-16
-5.51758e-12
-9.74487e-12
-1.3845e-11
-1.58149e-11
-4.75533e-12
4.34116e-12
1.65023e-15
-1.93168e-09
0.000158246
0.00015757
1.12176e-05
1.13997e-08
8.02203e-09
8.11892e-09
8.12398e-09
9.46042e-09
3.25556e-08
3.36785e-07
5.97897e-05
0.000159586
0.000160384
0.000160403
6.98923e-05
5.95741e-05
0.000150172
0.000155801
0.000155484
0.000155139
0.00014441
2.17481e-05
1.98015e-08
7.17658e-09
8.1659e-10
7.56511e-10
8.78464e-10
3.07509e-10
8.10441e-10
1.34517e-09
-1.69502e-10
-1.29145e-10
-9.5219e-11
-8.21918e-11
-7.48394e-11
-5.88772e-11
-2.84485e-11
-3.94463e-12
-5.19155e-13
3.15777e-05
0.000165747
0.000147638
4.71491e-06
7.97413e-09
8.02183e-09
8.00166e-09
9.51201e-09
1.3348e-08
4.47437e-08
1.2373e-06
9.69239e-05
0.00016016
0.000160119
0.000160394
0.000160119
0.000159099
0.000158579
0.000157335
8.5754e-05
9.99629e-07
1.14468e-07
1.16245e-07
4.62226e-07
1.11092e-06
4.48788e-07
2.67216e-10
2.67206e-10
2.72979e-10
7.33997e-10
1.25026e-09
-1.87384e-10
-1.71589e-10
-1.52418e-10
-1.30696e-10
-1.04954e-10
-7.29429e-11
-3.24148e-11
-7.2877e-12
-1.19957e-12
4.42413e-05
0.000168058
0.000100518
6.0069e-07
8.14181e-09
8.00643e-09
1.27232e-08
6.26555e-08
6.94993e-08
4.28323e-08
2.30171e-09
6.57694e-07
8.98342e-05
0.000159347
0.000159454
8.03891e-05
2.67656e-10
4.01743e-10
4.77385e-10
8.12816e-10
3.27313e-09
3.54034e-08
1.41651e-06
4.11286e-06
4.14407e-06
3.39851e-06
2.67177e-10
2.67216e-10
2.67237e-10
6.60144e-10
1.20891e-09
-1.47404e-10
-1.42546e-10
-1.33014e-10
-1.18087e-10
-9.72457e-11
-6.81137e-11
-3.00828e-11
-8.85173e-12
-1.81498e-12
3.98124e-05
0.000169902
9.42745e-05
1.5559e-07
1.36946e-08
8.49041e-09
1.95059e-08
7.16014e-08
7.37046e-08
4.52621e-08
4.24411e-10
1.84869e-10
1.84904e-10
1.85314e-10
1.87206e-10
1.9999e-10
2.11835e-10
2.67679e-10
6.68928e-10
3.19616e-09
1.906e-07
2.93399e-06
4.17075e-06
4.17318e-06
4.16881e-06
4.00497e-06
1.27187e-07
2.67114e-10
2.68381e-10
6.06942e-10
1.18142e-09
-1.04962e-10
-1.07221e-10
-1.04999e-10
-9.77404e-11
-8.36415e-11
-5.89218e-11
-2.58787e-11
-7.52811e-12
-1.51354e-12
6.31451e-05
0.000170804
8.9276e-05
1.46418e-07
1.36337e-07
9.95293e-08
2.12284e-08
4.30609e-08
7.16862e-08
6.54816e-08
1.22309e-08
1.84869e-10
1.84857e-10
1.84905e-10
1.85315e-10
1.87193e-10
1.99515e-10
3.33057e-10
9.7428e-10
6.83913e-09
1.12025e-06
4.16486e-06
4.17318e-06
4.16881e-06
4.14665e-06
9.46971e-07
2.76313e-10
2.87517e-10
2.69113e-10
5.64202e-10
1.15104e-09
-7.1862e-11
-7.80768e-11
-8.10656e-11
-7.9381e-11
-7.07233e-11
-5.0211e-11
-2.19087e-11
-6.32639e-12
-1.26319e-12
9.21711e-05
0.00017098
8.46486e-05
4.05039e-07
4.77268e-07
1.69031e-06
2.58217e-07
9.63072e-09
3.61205e-08
6.30237e-08
1.29177e-08
1.84869e-10
1.84905e-10
2.07144e-10
2.15587e-10
2.17936e-10
2.36697e-10
2.50317e-10
2.46439e-10
1.87007e-10
1.10188e-08
1.90574e-06
4.14696e-06
4.14665e-06
2.00155e-06
1.64275e-10
2.7009e-10
4.55253e-10
2.65945e-10
5.00813e-10
1.11415e-09
-4.85335e-11
-5.6437e-11
-6.24056e-11
-6.45936e-11
-5.99724e-11
-4.33686e-11
-1.87973e-11
-5.35208e-12
-1.04881e-12
0.00010418
0.000170979
8.76334e-05
5.03188e-07
4.86951e-07
2.07285e-06
1.79742e-06
6.93164e-09
6.54862e-09
9.14495e-09
5.85492e-09
1.90187e-10
2.33086e-10
4.49321e-10
4.97997e-10
5.08133e-10
4.45517e-10
3.2824e-10
2.43549e-10
1.69822e-10
1.49782e-10
1.48224e-10
1.48207e-10
6.34601e-07
9.0311e-08
1.63159e-10
2.77107e-10
4.16409e-10
2.65055e-10
4.38268e-10
1.07248e-09
-3.28608e-11
-4.10674e-11
-4.84087e-11
-5.28654e-11
-5.12821e-11
-3.81322e-11
-1.5283e-11
1.21597e-12
-5.08497e-27
5.89453e-05
0.00017098
0.000125516
3.12227e-06
4.60425e-07
1.81285e-06
2.18042e-06
1.31708e-06
5.85564e-09
5.79811e-09
5.84402e-09
2.65215e-09
7.6611e-10
4.46428e-10
6.1604e-10
7.79614e-10
7.89951e-10
5.54075e-10
2.91722e-10
1.76439e-10
1.48535e-10
1.48502e-10
1.48207e-10
1.48513e-10
1.48517e-10
1.60884e-10
2.87042e-10
2.66821e-10
2.64977e-10
3.88116e-10
1.02738e-09
-2.25679e-11
-3.03319e-11
-3.80088e-11
-4.3587e-11
-4.39998e-11
-3.41164e-11
-1.34089e-11
1.62693e-12
5.06487e-14
3.78621e-05
0.000169684
0.000164767
1.59955e-05
3.45441e-07
3.45441e-07
1.63268e-06
1.85288e-06
4.51638e-07
5.85564e-09
1.36973e-08
1.65095e-08
1.01278e-08
4.48766e-10
7.50194e-10
1.19583e-09
1.24746e-09
1.03668e-09
6.6826e-10
3.54919e-10
1.95959e-10
1.487e-10
1.48517e-10
1.48517e-10
1.48647e-10
1.71554e-10
3.06043e-10
3.39484e-10
2.64977e-10
3.51095e-10
9.78956e-10
-1.58368e-11
-2.28093e-11
-3.01985e-11
-3.61292e-11
-3.77473e-11
-3.04941e-11
-1.06625e-11
6.36611e-12
1.78486e-13
-3.20308e-11
7.24504e-05
0.000151453
3.25971e-05
5.76244e-07
7.58108e-07
8.13396e-07
8.09003e-07
3.54308e-07
2.17569e-08
1.48188e-08
1.5639e-08
6.81162e-09
1.49703e-09
1.23293e-09
1.48898e-09
1.58503e-09
1.47369e-09
1.08169e-09
5.93539e-10
2.92579e-10
1.8374e-10
1.5551e-10
1.49832e-10
1.62e-10
1.94788e-10
3.14955e-10
4.97541e-10
2.66542e-10
3.28207e-10
9.27068e-10
-1.13776e-11
-1.74298e-11
-2.41799e-11
-2.99704e-11
-3.22312e-11
-2.70186e-11
-5.2906e-12
1.88851e-11
1.03868e-12
-2.80424e-11
5.79051e-07
1.41744e-05
2.19531e-05
1.0253e-05
5.11761e-06
2.86889e-06
8.34419e-07
6.83099e-09
6.555e-09
6.53097e-09
3.97669e-09
1.70647e-09
1.49331e-09
1.51493e-09
1.68687e-09
1.78354e-09
1.74449e-09
1.42359e-09
8.22047e-10
3.68155e-10
2.02452e-10
1.60488e-10
1.49921e-10
5.57446e-10
4.11575e-09
2.92327e-09
9.57409e-10
2.98983e-10
3.20736e-10
8.72844e-10
-8.33376e-12
-1.34476e-11
-1.93786e-11
-2.47277e-11
-2.72513e-11
-2.30801e-11
-2.61179e-12
5.15948e-11
4.15288e-12
6.43311e-12
1.33164e-11
6.03378e-09
2.01057e-06
2.95127e-06
2.78215e-06
3.08016e-06
3.08073e-06
2.42104e-06
1.71703e-07
1.60362e-09
1.49626e-09
1.49331e-09
1.49326e-09
1.55524e-09
1.77108e-09
1.80722e-09
1.80722e-09
1.57102e-09
9.4763e-10
4.14653e-10
2.07454e-10
1.56277e-10
1.5001e-10
2.88477e-09
1.90986e-08
1.77821e-08
3.39453e-09
3.45719e-10
3.20947e-10
8.21196e-10
-6.15983e-12
-1.03703e-11
-1.54087e-11
-2.01453e-11
-2.26981e-11
-1.94028e-11
-1.91086e-12
7.55456e-11
1.06796e-10
1.04631e-10
1.09194e-10
2.59347e-10
1.38492e-09
3.47819e-08
9.00222e-08
1.77633e-06
3.08131e-06
3.08073e-06
1.64525e-06
5.95045e-09
1.59786e-09
1.49631e-09
1.49331e-09
1.58844e-09
1.7739e-09
1.80722e-09
1.78285e-09
1.48262e-09
8.87465e-10
4.11721e-10
2.03628e-10
1.50251e-10
1.50116e-10
7.26175e-09
2.57002e-08
2.56985e-08
1.03955e-08
7.12689e-10
3.22057e-10
7.74592e-10
-4.5185e-12
-7.88598e-12
-1.2026e-11
-1.60673e-11
-1.85045e-11
-1.62754e-11
-1.85335e-12
7.03961e-11
1.51748e-10
1.59761e-10
1.16961e-10
4.52754e-11
6.09401e-11
1.0295e-08
8.89198e-07
1.42619e-06
8.5013e-07
7.05588e-07
2.25917e-07
2.35479e-09
1.6116e-09
1.55018e-09
1.54994e-09
1.57178e-09
1.62878e-09
1.62753e-09
1.49113e-09
1.14303e-09
7.15489e-10
3.93097e-10
2.09019e-10
1.50397e-10
1.50251e-10
9.23095e-09
2.56954e-08
2.57005e-08
1.84868e-08
2.02506e-09
3.27833e-10
7.32638e-10
-3.20207e-12
-5.79903e-12
-9.07888e-12
-1.24022e-11
-1.463e-11
-1.34807e-11
-4.27212e-12
3.77975e-11
1.40944e-10
1.60028e-10
1.23432e-10
3.20274e-11
7.69958e-12
2.11084e-07
2.52488e-06
2.69347e-06
2.72668e-06
2.73596e-06
1.40457e-06
1.04933e-08
2.14964e-09
1.59308e-09
1.52829e-09
1.46602e-09
1.33028e-09
1.26823e-09
1.08933e-09
8.22796e-10
5.80874e-10
3.75376e-10
2.16307e-10
1.50663e-10
1.50397e-10
8.29013e-09
2.56708e-08
2.56954e-08
2.29309e-08
3.50303e-09
3.58197e-10
6.94706e-10
-2.07434e-12
-3.97562e-12
-6.45931e-12
-9.08238e-12
-1.1034e-11
-1.07891e-11
-5.62268e-12
5.56993e-12
6.95005e-11
1.25243e-10
1.06652e-10
3.63995e-11
3.21388e-12
7.62671e-12
1.89266e-06
2.7199e-06
2.72436e-06
2.73293e-06
2.72436e-06
2.7112e-06
2.70626e-06
2.22528e-06
4.86609e-07
9.78118e-09
7.28485e-09
3.10085e-09
1.10832e-09
6.6324e-10
5.02925e-10
3.5991e-10
2.19134e-10
1.51036e-10
1.50663e-10
9.33621e-09
2.56597e-08
2.56808e-08
2.40034e-08
4.16085e-09
4.02359e-10
6.58468e-10
-1.03593e-12
-2.29956e-12
-4.05535e-12
-6.01813e-12
-7.64433e-12
-7.99348e-12
-5.70905e-12
-4.00334e-13
1.09573e-11
4.36597e-11
4.76224e-11
2.45849e-11
2.42103e-12
6.8822e-10
3.63793e-08
3.44618e-07
2.62954e-06
2.72687e-06
2.71842e-06
2.70995e-06
2.70923e-06
2.70678e-06
2.70263e-06
1.9426e-06
6.6972e-08
2.48878e-09
7.9909e-10
5.0061e-10
4.61301e-10
3.59853e-10
2.20852e-10
1.51574e-10
1.51038e-10
1.14614e-08
2.56359e-08
2.56597e-08
2.37019e-08
4.20356e-09
3.71012e-10
6.19487e-10
-4.2986e-14
-6.93533e-13
-1.74464e-12
-3.06979e-12
-4.32841e-12
-4.96092e-12
-4.29497e-12
-2.20408e-12
4.50534e-29
3.66342e-12
7.71378e-12
6.16265e-12
1.03904e-12
1.35617e-12
2.77961e-11
2.59623e-10
2.79709e-07
7.41228e-07
4.48923e-07
1.47307e-06
2.70776e-06
2.70285e-06
2.6962e-06
8.13618e-07
9.06295e-09
1.50932e-09
7.52495e-10
5.49292e-10
4.89613e-10
3.7051e-10
2.23948e-10
1.52949e-10
1.5158e-10
1.09077e-08
2.56014e-08
2.56352e-08
2.07344e-08
2.68316e-09
3.24633e-10
5.82006e-10
1.36101e-12
1.29956e-12
7.04918e-13
-9.34503e-14
-9.3233e-13
-1.58683e-12
-1.73069e-12
-1.21643e-12
-3.90841e-13
1.47086e-29
5.68696e-13
9.88993e-13
1.01837e-12
8.81356e-13
-7.01616e-13
5.8201e-12
1.311e-10
2.38913e-10
1.95368e-10
2.77218e-08
2.64257e-07
4.95083e-07
4.26791e-07
2.08427e-07
8.74772e-09
3.86953e-10
3.86127e-10
4.96787e-10
4.61649e-10
3.5247e-10
2.3217e-10
1.64771e-10
1.52466e-10
3.80741e-09
2.41906e-08
2.56001e-08
1.74075e-08
1.46154e-09
2.95394e-10
5.46014e-10
1.38495e-12
2.74891e-12
4.27049e-12
5.54496e-12
5.23556e-12
4.41326e-12
3.39914e-12
2.69321e-12
2.37251e-12
2.22958e-12
2.21343e-12
2.13759e-12
2.13171e-12
2.19448e-12
2.626e-12
5.369e-12
5.87174e-12
1.93493e-11
3.86952e-11
4.54298e-11
8.36028e-11
1.21933e-10
1.44246e-10
5.59046e-10
5.26459e-10
3.81836e-10
3.60586e-10
3.45948e-10
3.28346e-10
3.12094e-10
2.86738e-10
2.14064e-10
1.5468e-10
1.60245e-10
1.55604e-08
2.55016e-08
1.31267e-08
6.5858e-10
2.81695e-10
5.09272e-10
1.23811e-12
2.64933e-12
4.92654e-12
8.21728e-12
1.22785e-11
1.55739e-11
1.84143e-11
1.83176e-11
1.7697e-11
1.67304e-11
1.56448e-11
1.46171e-11
1.362e-11
1.35872e-11
1.43379e-11
1.77093e-11
2.05404e-11
2.66361e-11
3.94571e-11
4.74248e-11
6.15183e-11
9.84285e-11
1.33763e-10
1.46769e-10
1.69877e-10
2.13181e-10
2.68586e-10
3.26041e-10
3.69274e-10
3.77638e-10
3.67046e-10
3.0426e-10
1.81216e-10
1.74063e-10
7.01984e-09
1.96203e-08
8.95864e-09
5.30557e-10
2.66201e-10
4.66102e-10
7.73077e-13
1.96298e-12
4.15359e-12
7.58158e-12
1.21924e-11
1.82202e-11
2.56103e-11
3.37665e-11
4.16949e-11
4.86942e-11
5.46988e-11
5.98942e-11
6.47343e-11
6.99736e-11
7.58804e-11
8.2598e-11
9.05262e-11
1.01929e-10
1.17017e-10
1.35531e-10
1.59269e-10
1.89262e-10
2.25298e-10
2.68774e-10
3.21692e-10
3.82384e-10
4.35091e-10
4.57686e-10
4.57464e-10
4.49922e-10
4.24012e-10
3.50238e-10
2.09668e-10
1.85146e-10
2.38469e-09
7.1793e-09
5.45204e-09
1.22711e-09
2.41169e-10
4.06104e-10
2.59214e-13
8.34626e-13
2.18653e-12
4.80607e-12
9.12928e-12
1.5272e-11
2.32764e-11
3.28901e-11
4.47405e-11
5.96241e-11
7.79464e-11
9.99875e-11
1.2604e-10
1.56332e-10
1.90375e-10
2.27442e-10
2.66416e-10
3.05499e-10
3.43389e-10
3.79137e-10
4.11866e-10
4.43133e-10
4.72887e-10
4.96416e-10
5.03538e-10
5.03538e-10
5.03538e-10
4.96419e-10
4.70545e-10
4.27105e-10
3.81251e-10
3.37095e-10
2.73891e-10
2.31182e-10
2.44255e-10
4.46713e-10
9.49705e-10
6.16539e-10
2.37172e-10
3.80881e-10
3.84098e-14
1.5949e-13
5.3664e-13
1.49965e-12
3.57022e-12
7.3319e-12
1.33191e-11
2.20186e-11
3.37225e-11
4.88127e-11
6.79351e-11
9.17905e-11
1.20987e-10
1.5574e-10
1.96157e-10
2.40994e-10
2.87958e-10
3.3593e-10
3.85075e-10
4.26399e-10
4.44269e-10
4.45592e-10
4.45382e-10
4.40609e-10
4.28056e-10
4.0729e-10
3.79672e-10
3.48169e-10
3.14961e-10
2.7944e-10
2.4956e-10
2.34709e-10
2.16747e-10
1.85391e-10
1.20554e-10
6.80985e-11
9.11422e-11
1.65751e-10
1.74522e-10
3.74361e-10
2.64169e-15
1.3072e-14
5.30616e-14
1.82167e-13
5.37694e-13
1.37926e-12
3.10543e-12
6.25848e-12
1.14189e-11
1.91094e-11
2.97798e-11
4.37739e-11
6.11903e-11
8.1496e-11
1.02843e-10
1.24307e-10
1.47662e-10
1.66763e-10
1.69814e-10
1.67615e-10
1.61282e-10
1.50988e-10
1.38337e-10
1.2538e-10
1.13851e-10
1.04618e-10
9.9118e-11
9.98147e-11
1.02034e-10
1.0514e-10
1.08714e-10
1.14931e-10
1.22513e-10
1.17856e-10
9.60431e-11
6.72165e-11
5.852e-11
7.13888e-11
1.22399e-10
3.70974e-10
1.13413e-16
6.27935e-16
2.77596e-15
1.02668e-14
3.27465e-14
9.22805e-14
2.32496e-13
5.27084e-13
1.07827e-12
1.99216e-12
3.33255e-12
5.07798e-12
7.07069e-12
8.88544e-12
1.06076e-11
1.09205e-11
1.06772e-11
1.00639e-11
9.85978e-12
9.92508e-12
1.02189e-11
1.1406e-11
1.38016e-11
1.54617e-11
1.5982e-11
1.63826e-11
1.69518e-11
1.8218e-11
2.11934e-11
2.68381e-11
3.46395e-11
4.30463e-11
5.22467e-11
6.15295e-11
6.4577e-11
5.98731e-11
5.84328e-11
5.98172e-11
1.01656e-10
3.65309e-10
8.19396e-18
3.76003e-17
1.52925e-16
5.4611e-16
1.69872e-15
4.61707e-15
1.10735e-14
2.36918e-14
4.56615e-14
7.9713e-14
1.26688e-13
1.83789e-13
2.42307e-13
2.93139e-13
3.42269e-13
3.68124e-13
4.2052e-13
9.89184e-13
2.92509e-12
6.8184e-12
4.91747e-12
1.16069e-11
1.31676e-11
2.27959e-11
2.02952e-11
1.66504e-11
1.68871e-11
1.68871e-11
1.68871e-11
1.69367e-11
1.93301e-11
2.54335e-11
3.48101e-11
4.83291e-11
5.73201e-11
5.90228e-11
5.84328e-11
6.01327e-11
9.09555e-11
3.56297e-10
1.62578e-18
7.46834e-18
2.83413e-17
9.15376e-17
2.57769e-16
6.42921e-16
1.43578e-15
2.89093e-15
5.27461e-15
8.70579e-15
1.31512e-14
1.83459e-14
2.1625e-14
2.36726e-14
5.81603e-14
2.39411e-13
-1.08992e-12
1.74196e-12
5.77625e-12
-2.68155e-10
8.20184e-11
8.33942e-11
4.83992e-11
5.80675e-10
2.1046e-10
1.72987e-11
1.69254e-11
1.68871e-11
1.69367e-11
1.71096e-11
1.69387e-11
1.72177e-11
1.84491e-11
3.28306e-11
5.41679e-11
6.70187e-11
7.03303e-11
6.56455e-11
8.76376e-11
3.43158e-10
2.88999e-19
1.44759e-18
5.74884e-18
1.88288e-17
5.21715e-17
1.24677e-16
2.60687e-16
4.83144e-16
7.97924e-16
1.186e-15
1.67929e-15
1.71483e-15
1.77883e-15
-3.81136e-14
2.33014e-13
1.48095e-12
-1.54037e-10
-1.25453e-11
3.20197e-10
2.11937e-09
7.15375e-09
1.07285e-08
3.29596e-07
1.46076e-07
2.31741e-07
7.34581e-07
2.61241e-11
3.31881e-07
8.32507e-07
1.74572e-07
-1.27329e-09
-2.11051e-10
1.69415e-11
2.32036e-11
5.34958e-11
7.24353e-11
7.93502e-11
7.68526e-11
9.03253e-11
3.30188e-10
5.41683e-20
2.85622e-19
1.14464e-18
3.67451e-18
9.7791e-18
2.21535e-17
4.37484e-17
7.6358e-17
1.2505e-16
2.15059e-16
2.95146e-16
-1.22358e-16
-2.40928e-14
-9.93843e-12
-6.4949e-11
7.6903e-11
2.21995e-09
5.10615e-09
1.87854e-08
8.9359e-06
5.08464e-05
5.99971e-05
2.22916e-05
1.96707e-07
2.34635e-07
8.44748e-05
0.000203497
6.9283e-05
5.59957e-07
1.16259e-07
1.46134e-08
2.4214e-09
2.35722e-10
6.81798e-11
5.03598e-11
6.97788e-11
7.85653e-11
8.5202e-11
9.76318e-11
3.29947e-10
1.13148e-20
6.33494e-20
2.56034e-19
8.07667e-19
2.10537e-18
4.75168e-18
9.91589e-18
1.92573e-17
5.74143e-17
2.02592e-16
2.23302e-16
-3.19291e-13
-1.8907e-11
1.14276e-10
2.73933e-09
8.78983e-09
4.58807e-06
1.35163e-05
5.20799e-05
0.000126185
0.000123527
0.000122852
5.9456e-05
1.07573e-06
4.9761e-07
0.000265853
0.000348288
7.2817e-05
2.09222e-06
1.09515e-06
6.36747e-06
2.527e-08
3.44871e-09
-1.69683e-10
7.20211e-11
5.61655e-11
7.826e-11
9.09786e-11
1.16642e-10
3.3758e-10
2.43856e-21
1.48461e-20
6.21238e-20
2.04559e-19
5.81665e-19
1.59262e-18
4.81295e-18
8.1493e-18
1.6056e-15
1.62873e-15
2.55275e-16
-1.71968e-14
-2.62091e-11
5.19564e-09
4.77462e-06
1.45385e-05
0.000106938
0.000134225
0.000130879
0.000129141
0.000123217
7.1884e-05
6.89243e-06
5.09308e-06
1.33819e-06
0.000315882
0.000575993
0.000489342
4.18843e-05
2.6302e-06
6.65577e-05
0.000172597
7.27993e-05
7.14007e-09
-4.8662e-09
-1.93557e-09
1.25803e-11
9.86378e-11
1.703e-10
3.67219e-10
5.10363e-22
3.48015e-21
1.60714e-20
6.20518e-20
2.28185e-19
1.02085e-18
5.08109e-18
1.75128e-15
1.31228e-14
6.93279e-15
3.23506e-16
-3.68733e-11
1.93688e-09
5.50569e-06
0.000121289
0.000147099
0.000144509
0.000137477
5.95424e-05
5.5384e-07
2.05712e-07
1.03251e-07
4.92006e-08
1.73563e-05
0.000436238
0.000579533
0.000577488
0.000577614
0.000369434
1.8711e-05
0.000154272
0.000182315
0.0001863
5.1467e-05
2.33338e-07
8.47632e-09
1.07185e-09
2.59005e-10
2.63995e-10
4.3956e-10
9.72644e-23
7.71036e-22
4.26915e-21
2.13826e-20
1.52419e-19
4.34755e-18
3.89444e-16
3.56407e-14
4.01291e-14
1.19005e-14
2.52144e-16
-4.58729e-12
1.20008e-05
0.00016547
0.000164972
0.000149228
3.1018e-05
3.58352e-07
2.60038e-07
2.49684e-07
2.35118e-07
1.56945e-07
2.87241e-08
0.000226455
0.000608746
0.000577488
0.000577618
0.00057757
0.000585515
0.000202552
2.29245e-05
0.0001863
0.0001863
0.000147917
7.97976e-06
4.1737e-08
-7.43778e-10
5.80463e-10
4.57153e-10
5.63612e-10
1.54344e-23
1.48693e-22
1.05157e-21
8.86029e-21
2.91323e-19
7.27152e-17
5.37072e-15
9.73504e-14
6.52413e-14
7.2184e-15
1.29214e-16
-4.39454e-10
0.000178582
0.000177225
0.00010101
1.16113e-06
8.54583e-07
4.53766e-07
3.9987e-07
7.48374e-07
8.4027e-07
4.46721e-07
5.86815e-09
3.04404e-09
0.000323353
0.000577356
0.000577518
0.000585515
0.000583402
0.000108058
3.4518e-06
0.000155401
0.0001863
0.000127222
9.80564e-06
3.75405e-08
-7.15551e-10
7.22314e-10
7.4167e-10
6.46251e-10
1.83738e-24
2.25004e-23
2.20307e-22
5.4021e-21
7.97656e-19
2.83399e-16
1.53877e-14
9.88108e-14
4.29941e-14
1.70673e-15
0
0.000114162
0.00018583
9.70746e-05
2.20982e-06
4.88755e-06
7.66061e-06
7.54178e-06
1.13817e-06
5.9785e-07
7.0889e-07
1.43956e-07
3.04404e-09
2.23586e-09
9.26514e-05
0.000551184
0.000492953
0.000207288
0.000101508
2.41118e-05
8.69267e-07
1.62904e-05
0.000141561
0.000327502
3.19425e-05
3.80595e-08
2.04809e-09
7.60239e-10
7.55585e-10
6.93236e-10
1.45258e-25
2.36505e-24
3.80492e-23
3.44843e-21
1.01135e-18
4.23226e-16
1.52658e-14
9.8465e-15
-2.08562e-15
-1.83212e-15
-2.89183e-16
0.000150049
0.00018583
1.51165e-05
1.9813e-06
9.03998e-06
9.06624e-06
9.06624e-06
9.51032e-07
5.33086e-09
1.42108e-08
3.19618e-08
1.2805e-08
1.30768e-09
3.24526e-05
0.000378558
0.000159199
7.81819e-06
1.41951e-06
6.48288e-07
4.5387e-07
7.80739e-07
9.03085e-05
0.000333166
4.00582e-05
2.35009e-06
1.22169e-09
1.26438e-09
1.44518e-09
7.7855e-10
6.28934e-27
1.37606e-25
4.0311e-24
8.66537e-22
4.25094e-19
9.7034e-17
4.82787e-15
1.46929e-15
-1.46957e-14
-7.13891e-15
-1.07625e-15
8.5384e-05
0.00018583
6.66929e-06
1.59788e-06
7.19339e-06
7.28634e-06
1.08145e-06
5.73918e-09
3.95026e-09
2.57295e-08
3.57447e-08
2.38824e-08
5.94983e-10
2.29343e-11
0.000178424
9.06742e-05
1.58374e-06
6.8228e-07
4.33066e-07
3.94405e-07
4.54066e-07
3.57003e-05
0.000334452
8.227e-05
2.81683e-06
2.07813e-09
2.73282e-09
2.88212e-09
1.36396e-09
1.13343e-28
1.95406e-29
2.09864e-29
6.22919e-26
3.34221e-20
1.22973e-17
1.82899e-16
6.79464e-17
-2.44265e-14
-1.31283e-14
-2.70559e-15
7.0812e-05
0.000153527
3.4222e-06
-4.42893e-23
3.89486e-50
9.01068e-29
7.04001e-31
9.52893e-09
3.61551e-09
3.36319e-08
3.4366e-08
5.91518e-09
6.56059e-13
-7.05152e-34
0.000165729
0.000101956
3.80584e-06
4.32872e-07
3.94405e-07
3.94405e-07
3.94237e-07
3.63794e-05
0.000334452
0.000292495
3.33165e-09
1.40556e-09
2.47972e-09
2.19661e-09
1.05704e-09
6.31522e-38
2.94947e-35
1.7309e-32
6.30807e-30
1.59982e-27
5.61694e-25
2.54698e-22
1.33364e-21
-1.30448e-16
-2.8956e-15
-1.3965e-15
5.83043e-05
0.000151327
6.35266e-06
-7.18717e-24
-1.31158e-22
-3.90591e-21
-9.05304e-19
3.87186e-09
1.22568e-09
1.0366e-08
-4.53215e-14
-1.05358e-13
-2.6471e-20
-5.41861e-13
0.000146972
0.000123115
1.08699e-05
4.10289e-07
4.01293e-07
3.94405e-07
4.22485e-07
0.000130508
0.000334452
0.000281421
1.41615e-09
8.65526e-10
5.10106e-10
1.20403e-10
-4.61652e-16
3.01313e-48
4.3609e-41
1.24034e-37
1.37809e-33
2.20386e-31
3.83769e-32
0
-1.78119e-30
-1.30064e-27
-1.95789e-16
-1.29279e-16
7.84079e-06
0.000132103
8.27961e-06
-1.67489e-23
-2.4985e-22
-4.59334e-21
-9.21001e-19
-9.35505e-21
-4.88367e-20
-3.81032e-17
-9.39925e-19
-1.03964e-19
-8.70452e-13
-5.02323e-12
0.000102137
0.000140816
3.64948e-05
4.0984e-07
4.0984e-07
4.01293e-07
3.55851e-05
0.000300391
0.000333037
5.37514e-05
4.18155e-09
1.41691e-09
8.63301e-10
2.16089e-07
2.80108e-06
5.1618e-51
5.29794e-45
4.17757e-43
-1.28063e-40
-3.50915e-38
-1.00221e-35
-3.54414e-33
-1.91345e-30
-1.30855e-27
-4.82738e-28
-1.21746e-28
-1.95774e-29
5.95344e-05
5.0629e-06
-1.10627e-24
-7.15126e-24
-6.29924e-23
-8.54546e-22
-2.67426e-20
-1.07106e-21
-3.78056e-23
-1.46013e-24
-7.08895e-26
1.15666e-15
-6.40353e-16
-1.88968e-22
0.00013998
1.09024e-05
6.56713e-07
5.22405e-06
4.95941e-05
0.00020895
0.000289656
5.98642e-05
3.50464e-08
1.77007e-08
4.41172e-08
7.12998e-07
1.27451e-06
1.25487e-06
)
;

boundaryField
{
    leftWall
    {
        type            zeroGradient;
    }
    rightWall
    {
        type            zeroGradient;
    }
    lowerWall
    {
        type            zeroGradient;
    }
    atmosphere
    {
        type            inletOutlet;
        inletValue      uniform 0;
        value           nonuniform List<scalar> 
45
(
0
0
0
0
0
0
0
0
0
0
0
0
0
0
0
0
0
5.95344e-05
0
0
0
0
0
0
0
0
0
0
0
0
0
0.00013998
1.09024e-05
6.56713e-07
5.22405e-06
4.95941e-05
0.00020895
0.000289656
5.98642e-05
3.50464e-08
1.77007e-08
4.41172e-08
7.12998e-07
1.27451e-06
0
)
;
    }
    defaultFaces
    {
        type            empty;
    }
    procBoundary3to1
    {
        type            processor;
        value           nonuniform List<scalar> 
45
(
3.55271e-09
2.32126e-09
3.29714e-09
4.3248e-10
3.54913e-10
5.18082e-11
-1.57379e-10
-8.00201e-10
-6.9497e-10
-2.92516e-10
-9.37024e-11
-2.62031e-11
-5.78377e-12
-1.01664e-12
0
1.6266e-08
0.000145372
0.000143566
0.000109286
2.21577e-06
5.54785e-08
4.16261e-08
1.2906e-06
7.03743e-08
4.1208e-07
1.44535e-07
1.36426e-07
9.91537e-08
2.49731e-08
1.60382e-09
7.81633e-10
2.60166e-10
1.76571e-09
8.331e-09
9.8336e-07
5.1758e-05
0.000145327
0.000141836
0.000132401
3.80533e-06
7.08827e-10
5.97543e-10
5.91697e-10
8.83124e-10
1.6238e-09
)
;
    }
    procBoundary3to2
    {
        type            processor;
        value           nonuniform List<scalar> 
43
(
1.26485e-10
-4.35331e-12
-1.91106e-10
-1.6018e-10
-9.20498e-11
-4.69004e-11
-2.22765e-11
-1.00437e-11
-4.35153e-12
-1.83376e-12
-7.61849e-13
-3.16765e-13
-1.33565e-13
-5.69631e-14
-2.30233e-14
-6.54548e-15
3.09611e-16
2.68461e-15
2.86206e-15
2.46031e-15
1.42153e-15
4.75321e-16
8.23432e-17
6.60585e-18
2.29398e-19
8.42339e-21
1.46716e-21
2.36075e-22
3.28459e-23
4.19252e-24
4.79548e-25
4.84206e-26
4.29158e-27
3.22747e-28
1.95269e-29
8.98859e-31
2.9841e-32
7.0905e-34
1.84501e-35
4.07129e-37
2.00913e-39
6.78841e-43
-4.20358e-84
)
;
    }
}


// ************************************************************************* //
