/*--------------------------------*- C++ -*----------------------------------*\
| =========                 |                                                 |
| \\      /  F ield         | OpenFOAM: The Open Source CFD Toolbox           |
|  \\    /   O peration     | Version:  5.0                                   |
|   \\  /    A nd           | Web:      www.OpenFOAM.org                      |
|    \\/     M anipulation  |                                                 |
\*---------------------------------------------------------------------------*/
FoamFile
{
    version     2.0;
    format      ascii;
    class       volScalarField;
    location    "1";
    object      epsilon;
}
// * * * * * * * * * * * * * * * * * * * * * * * * * * * * * * * * * * * * * //

dimensions      [0 2 -3 0 0 0 0];

internalField   nonuniform List<scalar> 
1935
(
1.60615
1.30938
1.07859
0.903575
0.773144
0.677052
0.606803
0.555753
0.518885
0.492466
0.473726
0.460597
0.451507
0.445237
0.440814
0.437442
0.434453
0.431276
0.427424
0.422486
0.416124
0.408083
0.398189
0.386358
0.372596
0.356996
0.339802
0.321367
0.302028
0.282146
0.262079
0.242173
0.222745
0.204074
0.186399
0.169917
0.154793
0.141173
0.129194
0.118997
0.110736
0.104579
0.100714
1.71328
1.80952
1.896
1.97301
1.4033
1.48957
1.56978
1.64447
1.16085
1.23861
1.31331
1.38524
0.975585
1.04562
1.11493
1.18356
0.836326
0.899353
0.963387
1.02838
0.732824
0.789649
0.848657
0.909819
0.656477
0.707931
0.762287
0.819576
0.600464
0.647328
0.697457
0.75094
0.559567
0.602528
0.648853
0.698672
0.52987
0.56951
0.612429
0.658775
0.50845
0.545258
0.585138
0.628237
0.49312
0.527507
0.564687
0.604791
0.482216
0.514536
0.549333
0.586715
0.474451
0.505011
0.537722
0.572667
0.468798
0.49787
0.528775
0.561571
0.464418
0.492237
0.521599
0.55253
0.460601
0.487376
0.515431
0.54477
0.456743
0.482647
0.509605
0.5376
0.452318
0.477492
0.503531
0.5304
0.446878
0.471426
0.496689
0.522616
0.440053
0.464043
0.488632
0.51376
0.431552
0.455016
0.478998
0.503428
0.421172
0.44411
0.467514
0.491309
0.408802
0.431186
0.454009
0.477196
0.394428
0.416207
0.438421
0.460997
0.378134
0.399239
0.420795
0.442734
0.3601
0.380442
0.401281
0.422541
0.340719
0.360163
0.380156
0.400658
0.32036
0.338842
0.357926
0.377579
0.299393
0.31686
0.334987
0.353761
0.278191
0.294597
0.311728
0.329591
0.257109
0.272416
0.288515
0.305434
0.236472
0.250644
0.265674
0.281611
0.216563
0.229563
0.24348
0.258385
0.197619
0.209404
0.22215
0.235954
0.179834
0.190351
0.20185
0.214451
0.163371
0.172557
0.18271
0.193972
0.148377
0.156161
0.164854
0.174608
0.135
0.14132
0.148439
0.156508
0.123404
0.128226
0.133689
0.139923
0.113778
0.117112
0.120898
0.125228
0.106328
0.108241
0.110409
0.112883
0.101274
0.101883
0.102568
0.103343
2.04704
2.11749
2.1846
2.25035
2.31645
2.38267
2.44832
2.51061
2.56751
2.62155
2.67517
2.72761
2.77525
2.81208
2.83321
2.83781
2.82623
2.79841
2.75478
2.69614
2.62488
2.54569
2.46449
2.38642
2.3149
2.25182
2.19794
2.1525
2.11198
2.07247
2.03036
1.98299
1.92974
1.87178
1.81194
1.75675
1.71964
1.73177
1.90533
3.17599
1.71966
1.79353
1.86498
1.93602
2.0083
2.08246
2.15757
2.23117
2.30113
2.36726
2.4304
2.49125
2.5458
2.58682
2.6105
2.61652
2.60522
2.57726
2.53366
2.47595
2.40721
2.33299
2.25887
2.18867
2.12479
2.06826
2.01926
1.97682
1.93785
1.89925
1.85853
1.81406
1.76525
1.7135
1.66214
1.61721
1.59066
1.61114
1.78449
2.99666
1.45958
1.53517
1.60944
1.6839
1.75998
1.83847
1.91887
1.99925
2.07737
2.15154
2.22125
2.28645
2.34327
2.38532
2.40973
2.41599
2.4047
2.377
2.33457
2.27955
2.2154
2.14738
2.08023
2.01699
1.95943
1.90816
1.86293
1.82266
1.78522
1.74809
1.70931
1.66804
1.62443
1.57973
1.53706
1.50211
1.48602
1.51603
1.69417
2.87589
1.25591
1.33186
1.40795
1.48504
1.56401
1.64538
1.72872
1.81251
1.89456
1.97251
2.04501
2.11114
2.16713
2.20819
2.23166
2.23725
2.22573
2.19868
2.15825
2.10718
2.04889
1.98743
1.9268
1.86971
1.8175
1.77053
1.72839
1.69009
1.65405
1.61857
1.58229
1.54473
1.50629
1.46845
1.43417
1.40887
1.40321
1.44379
1.63126
2.80864
1.09832
1.1729
1.24972
1.32838
1.40923
1.49232
1.57703
1.66194
1.74492
1.8234
1.89559
1.96028
2.01394
2.05273
2.0744
2.07897
2.06738
2.0415
2.00376
1.95707
1.9047
1.84989
1.79562
1.7441
1.69649
1.65314
1.61369
1.57731
1.54286
1.5092
1.47559
1.44186
1.40863
1.37744
1.35119
1.33513
1.33972
1.39159
1.59215
2.78914
0.976869
1.04949
1.12519
1.20406
1.28546
1.36896
1.45365
1.538
1.61986
1.69667
1.76679
1.82875
1.87933
1.91536
1.93511
1.93884
1.92767
1.90358
1.86907
1.82694
1.78016
1.73145
1.68307
1.6367
1.59332
1.55327
1.51632
1.4819
1.4493
1.41783
1.38714
1.35737
1.3293
1.30452
1.28588
1.27854
1.29303
1.3565
1.57298
2.81096
0.883338
0.953362
1.02699
1.10418
1.18461
1.2671
1.35042
1.43291
1.51231
1.58624
1.65334
1.71203
1.75932
1.79268
1.81083
1.81424
1.80413
1.78246
1.75162
1.71419
1.67272
1.62952
1.58643
1.54476
1.50532
1.46843
1.43401
1.40178
1.37134
1.34238
1.31488
1.28917
1.26617
1.2475
1.23601
1.23685
1.26074
1.33576
1.56998
2.86734
0.811139
0.877967
0.948746
1.02321
1.10084
1.1808
1.26154
1.34111
1.4173
1.4878
1.55134
1.60649
1.65069
1.68177
1.69894
1.70267
1.69425
1.67555
1.64873
1.61607
1.57974
1.54168
1.50342
1.46607
1.43032
1.39652
1.36476
1.33495
1.307
1.28087
1.25676
1.23519
1.21715
1.2043
1.19949
1.20794
1.24069
1.32694
1.57987
2.95163
0.755162
0.818334
0.885575
0.956509
1.03048
1.10651
1.18322
1.25897
1.33152
1.39841
1.45811
1.50965
1.55111
1.58044
1.59721
1.6019
1.59574
1.58043
1.55787
1.53
1.49866
1.46548
1.43176
1.39847
1.36629
1.33561
1.30665
1.27953
1.25436
1.23134
1.21082
1.19344
1.18025
1.17295
1.17441
1.18997
1.23104
1.3281
1.60003
3.05779
0.711529
0.770762
0.833973
0.900743
0.970373
1.04186
1.11389
1.18488
1.25295
1.31602
1.37211
1.42025
1.45915
1.48713
1.50391
1.51008
1.50662
1.49498
1.47679
1.45368
1.42721
1.39871
1.36933
1.33998
1.31133
1.28385
1.25788
1.23371
1.21162
1.19194
1.17517
1.16204
1.15363
1.15167
1.15908
1.18134
1.2303
1.33779
1.62875
3.1812
0.677334
0.732522
0.791436
0.853655
0.9185
0.985018
1.05199
1.11799
1.18139
1.24036
1.29298
1.338
1.37451
1.40141
1.41855
1.42645
1.42588
1.41794
1.40399
1.3854
1.3635
1.33948
1.3143
1.28881
1.26371
1.23955
1.21678
1.19581
1.17705
1.16095
1.1481
1.13927
1.1356
1.13885
1.15199
1.18068
1.23727
1.3551
1.66547
3.32043
0.650399
0.701591
0.756149
0.813675
0.873543
0.93489
0.996632
1.0575
1.11611
1.17094
1.22032
1.26275
1.2972
1.32323
1.34084
1.3504
1.35253
1.34808
1.33811
1.32375
1.30611
1.28624
1.2651
1.24342
1.22191
1.2012
1.18183
1.1643
1.1491
1.1368
1.12803
1.1236
1.12469
1.13307
1.1518
1.18677
1.25094
1.37947
1.71144
3.48175
0.629067
0.67644
0.726757
0.779656
0.834581
0.890773
0.947295
1.00305
1.05686
1.10741
1.15336
1.1933
1.22619
1.25167
1.26981
1.2809
1.28543
1.28409
1.27772
1.26723
1.25358
1.23768
1.2204
1.20248
1.18462
1.16749
1.1517
1.13781
1.12641
1.11811
1.11357
1.11365
1.11952
1.13299
1.15722
1.19832
1.26995
1.40941
1.76504
3.65642
0.612047
0.655871
0.702192
0.750691
0.800881
0.852114
0.903591
0.954389
1.00349
1.04981
1.09222
1.12958
1.161
1.18604
1.20466
1.21708
1.22371
1.2251
1.22191
1.21491
1.20491
1.19272
1.17914
1.16491
1.15072
1.13726
1.12518
1.11512
1.10769
1.10354
1.10337
1.10804
1.11873
1.13727
1.16689
1.21394
1.2927
1.44254
1.82069
3.82886
0.598294
0.6389
0.681564
0.726001
0.771796
0.818399
0.865141
0.91125
0.955881
0.998133
1.03708
1.07183
1.10164
1.12605
1.14494
1.15842
1.1668
1.17049
1.17006
1.16614
1.15944
1.15067
1.1406
1.12993
1.11936
1.10959
1.1013
1.09516
1.09182
1.09194
1.09624
1.10558
1.12113
1.14474
1.17968
1.23248
1.31802
1.47755
1.87675
3.99633
0.586922
0.624679
0.664078
0.704868
0.746693
0.789091
0.831508
0.873308
0.913796
0.95224
0.987897
1.02006
1.04811
1.07165
1.0905
1.10468
1.11438
1.11995
1.12183
1.12057
1.11677
1.11111
1.10427
1.09698
1.08992
1.08378
1.07927
1.07708
1.07788
1.08235
1.09119
1.10526
1.12572
1.15439
1.19458
1.25297
1.34494
1.51346
1.93209
4.15626
0.577154
0.61244
0.648993
0.686589
0.72492
0.7636
0.802171
0.840113
0.876863
0.911832
0.944428
0.974089
1.00033
1.02279
1.04128
1.05576
1.06637
1.07336
1.07709
1.07803
1.07672
1.07379
1.06989
1.06572
1.06195
1.05931
1.05849
1.06021
1.06514
1.07396
1.08737
1.1062
1.13158
1.16531
1.2107
1.27454
1.37261
1.54942
1.9857
4.3061
0.568284
0.601469
0.635594
0.670455
0.705787
0.741262
0.776502
0.811082
0.844548
0.876428
0.906253
0.933579
0.958018
0.979269
0.997151
1.01161
1.02273
1.0307
1.03583
1.03852
1.03927
1.03866
1.03733
1.03595
1.03522
1.03584
1.03854
1.04404
1.05301
1.06612
1.08408
1.10766
1.13795
1.17672
1.22725
1.29639
1.40024
1.58462
2.03666
4.44353
0.559661
0.591089
0.623183
0.655756
0.688572
0.721355
0.753785
0.785516
0.816179
0.845394
0.872788
0.89801
0.92075
0.940764
0.957893
0.972084
0.983387
0.991963
0.998077
1.00209
1.00447
1.00576
1.00659
1.00762
1.00959
1.01318
1.01915
1.02821
1.04105
1.05834
1.08074
1.10901
1.14418
1.18795
1.24354
1.31784
1.42716
1.61838
2.08415
4.56649
0.550693
0.580669
0.611092
0.641786
0.672542
0.703119
0.733246
0.762635
0.79098
0.817975
0.843318
0.866728
0.887956
0.906804
0.923143
0.936923
0.948187
0.957077
0.963831
0.968788
0.972388
0.975162
0.977728
0.980773
0.985038
0.991244
1.00015
1.01248
1.02895
1.05022
1.07692
1.10977
1.14973
1.19842
1.259
1.3383
1.45279
1.65014
2.12754
4.67343
0.540849
0.569631
0.598695
0.627875
0.65698
0.685798
0.714095
0.741623
0.768128
0.793354
0.817051
0.838988
0.858962
0.876809
0.892423
0.905765
0.916875
0.925884
0.933017
0.9386
0.943062
0.946931
0.95083
0.955463
0.961596
0.970008
0.981466
0.996736
1.01653
1.04151
1.0723
1.10955
1.15417
1.20768
1.27315
1.35733
1.47674
1.6796
2.16664
4.76379
0.529679
0.557474
0.585437
0.613412
0.641223
0.668678
0.695572
0.721689
0.746807
0.770707
0.793175
0.814012
0.833044
0.850131
0.865181
0.878159
0.889106
0.898144
0.905492
0.911467
0.916499
0.921121
0.925972
0.931783
0.939354
0.949524
0.963119
0.98093
1.00369
1.03207
1.06667
1.10811
1.1572
1.2154
1.28566
1.37465
1.49888
1.707
2.20245
4.84096
0.516825
0.543789
0.570856
0.597879
0.624696
0.651131
0.677
0.70211
0.726264
0.749263
0.770917
0.791046
0.809488
0.826113
0.840831
0.853609
0.864478
0.873554
0.881045
0.887269
0.892654
0.897751
0.903224
0.909839
0.918443
0.929933
0.945205
0.965116
0.99044
1.02185
1.05994
1.10527
1.15861
1.2213
1.29621
1.38996
1.5192
1.73337
2.24024
4.9392
0.502041
0.528282
0.554607
0.580877
0.606943
0.632647
0.657818
0.682281
0.705855
0.728355
0.749599
0.769413
0.787638
0.804138
0.818815
0.831621
0.842576
0.851779
0.85943
0.865839
0.871442
0.876808
0.882631
0.889725
0.898999
0.911421
0.927967
0.949564
0.977039
1.01108
1.05226
1.1011
1.15829
1.22508
1.30426
1.40245
1.53647
1.75689
2.27789
5.06586
0.485196
0.510782
0.536473
0.562142
0.587653
0.612862
0.637614
0.661746
0.685086
0.707456
0.728675
0.748562
0.766947
0.783677
0.798632
0.811742
0.822999
0.832482
0.840374
0.846978
0.852736
0.858234
0.864205
0.871516
0.881145
0.894145
0.911583
0.934471
0.963691
0.99995
1.0438
1.09571
1.1563
1.22675
1.30978
1.41198
1.55039
1.77673
2.3113
5.18451
0.466287
0.491251
0.516379
0.541557
0.566666
0.591574
0.616141
0.640215
0.663629
0.686206
0.707757
0.728085
0.746997
0.764311
0.779871
0.793572
0.805374
0.815326
0.823586
0.830447
0.836353
0.841915
0.847901
0.855236
0.864972
0.878254
0.896252
0.920073
0.950654
0.988717
1.03478
1.08928
1.15276
1.22634
1.31268
1.41837
1.56063
1.79215
2.33864
5.28783
0.445427
0.469778
0.494385
0.519151
0.543973
0.568736
0.593315
0.617565
0.641325
0.66441
0.686616
0.707722
0.7275
0.745727
0.762199
0.776761
0.789339
0.799949
0.808722
0.815935
0.82203
0.827635
0.833572
0.840821
0.850501
0.863854
0.882159
0.906615
0.938213
0.977672
1.02548
1.08202
1.14779
1.22388
1.3129
1.42143
1.56685
1.80263
2.35901
5.37331
0.422837
0.446569
0.470679
0.495085
0.519707
0.544451
0.569203
0.593829
0.618167
0.642023
0.665167
0.68734
0.708275
0.727696
0.745351
0.761036
0.77461
0.786049
0.795458
0.8031
0.809419
0.815071
0.820927
0.828048
0.837621
0.850956
0.869428
0.894316
0.926635
0.967079
1.01609
1.07403
1.1414
1.21927
1.31025
1.42091
1.56869
1.80769
2.37169
5.43899
0.398948
0.421977
0.445557
0.469628
0.494116
0.518938
0.543995
0.56916
0.594272
0.619123
0.643465
0.666993
0.689362
0.710218
0.729232
0.746137
0.760757
0.773045
0.783103
0.791196
0.797778
0.803531
0.80938
0.81645
0.826006
0.839397
0.858054
0.88328
0.916069
0.957058
1.00667
1.06527
1.13343
1.21227
1.30441
1.41639
1.5657
1.80677
2.37594
5.48265
0.374299
0.396614
0.41965
0.443376
0.467748
0.492708
0.518173
0.544021
0.570084
0.596128
0.62185
0.646876
0.670777
0.693109
0.71346
0.731509
0.747057
0.760058
0.770646
0.779121
0.785967
0.791928
0.797975
0.805252
0.815029
0.828719
0.847727
0.873313
0.906342
0.94739
0.996897
1.05533
1.1234
1.20234
1.29481
1.40729
1.55722
1.79917
2.37079
5.50136
0.349275
0.370863
0.393361
0.416766
0.441064
0.466219
0.492163
0.518778
0.545882
0.573204
0.600376
0.626932
0.652333
0.676019
0.697496
0.716402
0.732558
0.745935
0.756733
0.765344
0.772386
0.778738
0.785382
0.793344
0.803744
0.817979
0.837601
0.863814
0.896992
0.937566
0.986157
1.04353
1.11062
1.18879
1.28071
1.39281
1.5424
1.78392
2.35495
5.49102
0.324236
0.345075
0.367025
0.390114
0.414354
0.439733
0.466194
0.49362
0.521803
0.550423
0.579025
0.60702
0.633724
0.658443
0.680603
0.69983
0.715987
0.729157
0.739656
0.748092
0.755333
0.762322
0.770025
0.779283
0.79085
0.805926
0.82664
0.853961
0.887422
0.926995
0.973699
1.02886
1.09399
1.17053
1.26105
1.37185
1.52008
1.75971
2.32667
5.44573
0.299492
0.319546
0.340919
0.363671
0.387843
0.413443
0.440424
0.468657
0.497902
0.527764
0.557673
0.586873
0.614487
0.639657
0.661712
0.680376
0.695665
0.707983
0.717886
0.72608
0.733536
0.74131
0.75035
0.761372
0.774847
0.791813
0.814425
0.843334
0.87771
0.916206
0.959787
1.01123
1.07302
1.14681
1.23479
1.34315
1.48884
1.72499
2.28377
5.3573
0.275289
0.294495
0.315231
0.337591
0.361648
0.387428
0.414888
0.44388
0.474108
0.505081
0.536065
0.566073
0.593948
0.61856
0.639344
0.656482
0.670288
0.681249
0.690185
0.698004
0.705718
0.714469
0.72519
0.738519
0.75524
0.77659
0.803254
0.834843
0.870098
0.907222
0.946945
0.993292
1.04963
1.11837
1.20207
1.30641
1.44801
1.67868
2.22423
5.21611
0.251793
0.270048
0.290037
0.311898
0.335737
0.3616
0.389446
0.419092
0.450167
0.482045
0.513769
0.544006
0.571129
0.593997
0.612628
0.627382
0.638723
0.647311
0.654378
0.661444
0.669865
0.680787
0.69491
0.713016
0.736443
0.765462
0.798639
0.83412
0.86985
0.904547
0.939049
0.978192
1.02688
1.0883
1.1654
1.26356
1.39885
1.62129
2.14726
5.01387
0.229094
0.246233
0.265291
0.286456
0.309881
0.335641
0.363696
0.393823
0.425554
0.458085
0.49016
0.519924
0.545352
0.565689
0.581159
0.592008
0.598932
0.603441
0.60772
0.61411
0.624588
0.640502
0.662452
0.690624
0.725494
0.765983
0.808501
0.849107
0.884737
0.914508
0.94036
0.969471
1.00812
1.05997
1.12812
1.2177
1.34419
1.55498
2.05352
4.74442
0.207232
0.223004
0.240834
0.260973
0.283634
0.308945
0.336886
0.36721
0.399345
0.432283
0.464405
0.493286
0.51659
0.533571
0.54425
0.548965
0.549314
0.548158
0.548981
0.555229
0.569839
0.594762
0.630451
0.675644
0.72829
0.785321
0.840995
0.888353
0.922168
0.942455
0.955782
0.97191
0.997218
1.03635
1.09316
1.17204
1.28729
1.48286
1.94479
4.39694
0.186242
0.200301
0.216468
0.235059
0.256369
0.280612
0.307843
0.337845
0.369999
0.403132
0.435279
0.463402
0.484455
0.497182
0.501364
0.497906
0.489943
0.481998
0.478999
0.485616
0.506026
0.54338
0.598556
0.668652
0.747491
0.828283
0.901778
0.955736
0.984862
0.993448
0.991872
0.991281
0.99917
1.02167
1.06383
1.12982
1.23221
1.41052
1.83121
3.96251
0.166238
0.178168
0.192104
0.208416
0.227481
0.249634
0.275078
0.30375
0.335146
0.368096
0.400427
0.428454
0.447665
0.455503
0.451839
0.438905
0.421994
0.407343
0.400787
0.407709
0.433554
0.483768
0.561833
0.664979
0.781421
0.895868
0.991914
1.05309
1.07799
1.07598
1.05895
1.03829
1.0232
1.02271
1.04536
1.09661
1.18683
1.35219
1.74619
3.49661
0.147499
0.156885
0.167984
0.181165
0.196844
0.215457
0.237392
0.262882
0.291807
0.323388
0.355654
0.384456
0.403061
0.405839
0.393608
0.371493
0.347291
0.328062
0.319212
0.325633
0.353501
0.411574
0.509782
0.651352
0.820371
0.984501
1.11185
1.18295
1.20832
1.20365
1.17791
1.13664
1.08922
1.05347
1.04704
1.07909
1.15715
1.31186
1.67513
2.96874
0.130506
0.137072
0.144876
0.154211
0.165432
0.178959
0.195269
0.21486
0.238158
0.265264
0.295327
0.324874
0.344777
0.342475
0.32254
0.29487
0.268544
0.249376
0.240627
0.24546
0.269505
0.323843
0.42731
0.600291
0.837142
1.0813
1.25739
1.33889
1.37732
1.39593
1.38892
1.33694
1.24055
1.13896
1.08111
1.08416
1.14941
1.29611
1.61725
2.36678
0.115887
0.119612
0.124019
0.12927
0.135566
0.143163
0.152394
0.163705
0.177716
0.195271
0.217324
0.243817
0.267331
0.258841
0.235881
0.211509
0.191599
0.178266
0.172289
0.174887
0.189594
0.225316
0.302911
0.463908
0.753636
1.13378
1.41191
1.49903
1.57804
1.67626
1.7603
1.74439
1.56688
1.31369
1.15209
1.11063
1.16807
1.32494
1.61276
1.76795
0.104274
0.105412
0.106737
0.108286
0.110105
0.112251
0.114804
0.117884
0.121722
0.126827
0.134508
0.148551
0.180082
0.157385
0.142949
0.13309
0.126354
0.122137
0.120231
0.120837
0.124881
0.134855
0.157367
0.211885
0.360055
0.74826
1.43523
1.60907
1.77388
2.00101
2.19387
2.14129
1.89807
1.53788
1.23415
1.16049
1.25258
1.52849
2.07126
2.96195
)
;

boundaryField
{
    leftWall
    {
        Cmu             0.09;
        kappa           0.41;
        E               9.8;
        type            epsilonWallFunction;
        value           nonuniform 0();
    }
    rightWall
    {
        Cmu             0.09;
        kappa           0.41;
        E               9.8;
        type            epsilonWallFunction;
        value           nonuniform List<scalar> 
43
(
3.17599
2.99666
2.87589
2.80864
2.78914
2.81096
2.86734
2.95163
3.05779
3.1812
3.32043
3.48175
3.65642
3.82886
3.99633
4.15626
4.3061
4.44353
4.56649
4.67343
4.76379
4.84096
4.9392
5.06586
5.18451
5.28783
5.37331
5.43899
5.48265
5.50136
5.49102
5.44573
5.3573
5.21611
5.01387
4.74442
4.39694
3.96251
3.49661
2.96874
2.36678
1.76795
2.96195
)
;
    }
    lowerWall
    {
        Cmu             0.09;
        kappa           0.41;
        E               9.8;
        type            epsilonWallFunction;
        value           nonuniform 0();
    }
    atmosphere
    {
        type            inletOutlet;
        inletValue      uniform 0.1;
        value           nonuniform List<scalar> 
45
(
0.1
0.1
0.1
0.1
0.1
0.1
0.1
0.1
0.1
0.1
0.1
0.1
0.1
0.1
0.1
0.1
0.1
0.180082
0.1
0.1
0.1
0.1
0.1
0.1
0.1
0.1
0.1
0.1
0.1
0.1
0.1
1.43523
1.60907
1.77388
2.00101
2.19387
2.14129
1.89807
1.53788
1.23415
1.16049
1.25258
1.52849
2.07126
0.1
)
;
    }
    defaultFaces
    {
        type            empty;
    }
    procBoundary3to1
    {
        type            processor;
        value           nonuniform List<scalar> 
45
(
1.97462
2.09676
2.20582
2.30094
2.38051
2.45055
2.51313
2.57032
2.62314
2.67425
2.72301
2.77254
2.81961
2.86156
2.90355
2.94738
2.98974
3.0265
3.0542
3.07074
3.07421
3.06311
3.03643
2.99452
2.93724
2.86568
2.78351
2.69646
2.61071
2.53081
2.45984
2.39945
2.3495
2.30685
2.26677
2.22422
2.17517
2.11802
2.05379
1.98653
1.92263
1.87602
1.88115
2.06009
3.41865
)
;
    }
    procBoundary3to2
    {
        type            processor;
        value           nonuniform List<scalar> 
43
(
1.48711
1.20715
0.991457
0.829407
0.709699
0.622225
0.558774
0.513037
0.48031
0.457125
0.440923
0.429794
0.422286
0.41727
0.41384
0.411257
0.408896
0.406231
0.402812
0.398262
0.392282
0.384645
0.375208
0.363908
0.350769
0.335907
0.31961
0.30217
0.283911
0.265177
0.246312
0.227649
0.209492
0.192114
0.175748
0.160588
0.146796
0.134513
0.123863
0.114969
0.107962
0.102982
0.1002
)
;
    }
}


// ************************************************************************* //
