/*--------------------------------*- C++ -*----------------------------------*\
| =========                 |                                                 |
| \\      /  F ield         | OpenFOAM: The Open Source CFD Toolbox           |
|  \\    /   O peration     | Version:  5.0                                   |
|   \\  /    A nd           | Web:      www.OpenFOAM.org                      |
|    \\/     M anipulation  |                                                 |
\*---------------------------------------------------------------------------*/
FoamFile
{
    version     2.0;
    format      ascii;
    class       volScalarField;
    location    "1";
    object      k;
}
// * * * * * * * * * * * * * * * * * * * * * * * * * * * * * * * * * * * * * //

dimensions      [0 2 -2 0 0 0 0];

internalField   nonuniform List<scalar> 
1935
(
0.353404
0.324111
0.300203
0.281278
0.266604
0.255368
0.246819
0.240333
0.235418
0.231702
0.228902
0.226803
0.225233
0.22405
0.223124
0.222336
0.221572
0.220716
0.219658
0.218293
0.21652
0.214252
0.211415
0.207952
0.20383
0.199032
0.193588
0.187557
0.181012
0.174039
0.166744
0.159244
0.151668
0.144151
0.136829
0.129842
0.123326
0.117408
0.112208
0.107824
0.104336
0.101802
0.100263
0.367811
0.381297
0.394219
0.406691
0.338071
0.351429
0.364546
0.377529
0.313612
0.326745
0.339931
0.353232
0.294046
0.306816
0.319888
0.333285
0.278689
0.290988
0.303781
0.317075
0.266778
0.278542
0.290935
0.30396
0.257592
0.2688
0.280715
0.293345
0.250521
0.261178
0.272573
0.28472
0.245078
0.255205
0.266063
0.277671
0.240889
0.250517
0.26084
0.271881
0.237671
0.246835
0.256642
0.267111
0.235205
0.243947
0.253265
0.263177
0.233319
0.241683
0.25055
0.259937
0.231866
0.239898
0.248361
0.257265
0.230716
0.238465
0.246572
0.255045
0.229748
0.237259
0.245061
0.25316
0.228841
0.236158
0.243706
0.251487
0.227876
0.235038
0.24238
0.249898
0.226736
0.233777
0.240954
0.248259
0.225307
0.232253
0.2393
0.246436
0.223481
0.230351
0.237294
0.244295
0.221163
0.227965
0.234819
0.24171
0.218268
0.225002
0.231776
0.238571
0.214734
0.22139
0.228079
0.234782
0.210515
0.217076
0.223668
0.230271
0.205592
0.212032
0.218506
0.224994
0.199973
0.206257
0.212585
0.218933
0.193724
0.1998
0.205932
0.212103
0.186917
0.192747
0.198643
0.20459
0.179641
0.185185
0.190807
0.196492
0.172002
0.17722
0.182527
0.187913
0.16412
0.168973
0.173926
0.178972
0.156126
0.160578
0.165139
0.169805
0.14816
0.152177
0.15631
0.160558
0.140365
0.14392
0.147594
0.151389
0.132888
0.135961
0.13915
0.142461
0.125876
0.128455
0.131141
0.133944
0.119469
0.121555
0.123734
0.126016
0.113799
0.11541
0.117092
0.118856
0.108981
0.110148
0.111364
0.112637
0.105105
0.105876
0.106673
0.107504
0.102232
0.102659
0.103097
0.103549
0.100399
0.100533
0.100668
0.100805
0.419678
0.4333
0.447481
0.462586
0.478867
0.496259
0.514531
0.533123
0.551519
0.569698
0.587647
0.605015
0.621116
0.634979
0.6458
0.653315
0.657401
0.657934
0.654897
0.648343
0.638548
0.626144
0.611969
0.596803
0.581219
0.565588
0.550109
0.534734
0.519023
0.50239
0.484201
0.463829
0.440772
0.414552
0.384589
0.350156
0.310075
0.261693
0.197393
0.0873101
0.39133
0.405924
0.421037
0.436991
0.454
0.472079
0.490975
0.510185
0.529213
0.547779
0.565735
0.582941
0.598689
0.611886
0.621886
0.628468
0.631534
0.631081
0.627175
0.61997
0.609847
0.597572
0.583956
0.569608
0.554957
0.540244
0.525571
0.51084
0.495628
0.479429
0.461728
0.442024
0.419817
0.394673
0.366107
0.333427
0.295433
0.249512
0.188362
0.083982
0.36755
0.382853
0.398666
0.415218
0.432673
0.45106
0.470184
0.489624
0.508897
0.527582
0.545408
0.562185
0.577245
0.589619
0.598775
0.604478
0.606702
0.605519
0.601084
0.593645
0.583651
0.571846
0.558937
0.545428
0.531652
0.517777
0.503826
0.489663
0.474957
0.459256
0.4421
0.423076
0.401781
0.377788
0.350631
0.319629
0.283581
0.239904
0.181508
0.0817163
0.347856
0.363617
0.379939
0.396946
0.414723
0.433264
0.452397
0.471768
0.490925
0.509385
0.526809
0.542928
0.557107
0.568594
0.576869
0.581774
0.583316
0.581631
0.576955
0.569628
0.560112
0.548991
0.536877
0.524224
0.511294
0.498202
0.484927
0.471324
0.457111
0.441922
0.425364
0.407073
0.386693
0.363841
0.338056
0.308656
0.274422
0.232781
0.176754
0.0804555
0.331687
0.347602
0.364216
0.381501
0.399462
0.418034
0.43703
0.456128
0.474904
0.492866
0.509644
0.524957
0.538218
0.548802
0.556252
0.560475
0.561515
0.559558
0.554891
0.54789
0.539013
0.528737
0.517528
0.505758
0.493655
0.481312
0.468695
0.455659
0.441964
0.427309
0.411377
0.393852
0.374411
0.352694
0.328241
0.300358
0.267807
0.228
0.173973
0.0801114
0.31841
0.334261
0.350872
0.368214
0.386173
0.404622
0.423342
0.442013
0.460224
0.477503
0.49352
0.507982
0.520348
0.530085
0.536829
0.54053
0.541268
0.53926
0.534811
0.528298
0.520141
0.510752
0.500487
0.489633
0.478374
0.466783
0.454828
0.442383
0.429253
0.415194
0.399942
0.383224
0.364743
0.344152
0.320988
0.294537
0.263535
0.225361
0.172983
0.0805663
0.307461
0.323044
0.339422
0.356534
0.374269
0.392411
0.410706
0.428826
0.446358
0.462866
0.478087
0.491716
0.50325
0.512256
0.518444
0.521804
0.522441
0.520582
0.51653
0.510634
0.503265
0.494773
0.485448
0.475513
0.46511
0.454292
0.443032
0.431231
0.418731
0.405337
0.390826
0.374958
0.357456
0.337979
0.316053
0.290942
0.261353
0.224616
0.173563
0.081684
0.298365
0.313498
0.329445
0.346111
0.363355
0.380982
0.398702
0.416162
0.432962
0.44869
0.4631
0.475928
0.486733
0.495136
0.500938
0.504135
0.504854
0.503316
0.499802
0.494626
0.488104
0.480528
0.47214
0.463118
0.453575
0.443552
0.433031
0.421933
0.410134
0.397476
0.383769
0.368794
0.352287
0.333906
0.313162
0.289297
0.260984
0.225492
0.175467
0.0833241
0.290746
0.305289
0.320636
0.336678
0.353257
0.370159
0.387116
0.403813
0.419859
0.434827
0.448437
0.460502
0.470683
0.478615
0.48418
0.487372
0.488325
0.487244
0.484377
0.479993
0.474359
0.467717
0.460268
0.45216
0.443488
0.43429
0.424553
0.414221
0.403194
0.391341
0.378496
0.364455
0.348956
0.331649
0.312033
0.289321
0.262147
0.227712
0.178447
0.0853568
0.284324
0.298176
0.312797
0.328076
0.34385
0.359908
0.375991
0.391801
0.407
0.421214
0.434093
0.445462
0.455084
0.46265
0.468073
0.471393
0.472699
0.472172
0.470022
0.466477
0.461757
0.456059
0.449552
0.442364
0.43458
0.426239
0.417337
0.407831
0.397645
0.386663
0.374734
0.361661
0.34718
0.33093
0.312388
0.290739
0.264572
0.231015
0.182269
0.0876804
0.278893
0.291997
0.305813
0.320234
0.335106
0.35023
0.365367
0.380244
0.394566
0.408001
0.420204
0.430947
0.440057
0.44733
0.452702
0.456214
0.457941
0.458012
0.456598
0.453889
0.450069
0.445309
0.439741
0.433479
0.426601
0.41915
0.411131
0.402512
0.393228
0.383178
0.372216
0.360143
0.34669
0.33148
0.313964
0.293292
0.26801
0.235162
0.186721
0.0902505
0.274299
0.286636
0.299613
0.313131
0.327049
0.341188
0.355334
0.369246
0.382663
0.395308
0.406878
0.417093
0.425763
0.432795
0.43816
0.441884
0.444024
0.444679
0.443981
0.44208
0.439128
0.435266
0.430622
0.425285
0.419329
0.412799
0.405706
0.398026
0.389703
0.380638
0.370686
0.359643
0.347229
0.333044
0.316511
0.296744
0.272232
0.239936
0.191592
0.0931454
0.270423
0.282007
0.294147
0.306757
0.319712
0.332856
0.346
0.358935
0.371435
0.38326
0.394156
0.403864
0.412186
0.419047
0.424432
0.428361
0.430882
0.432073
0.432035
0.430889
0.428759
0.425766
0.422018
0.417597
0.412572
0.406986
0.400855
0.394159
0.386845
0.378813
0.369914
0.359933
0.34857
0.335401
0.319817
0.300889
0.27705
0.245157
0.196687
0.0962862
0.267157
0.278028
0.289367
0.301099
0.313117
0.325287
0.337448
0.34942
0.361008
0.372008
0.382206
0.391387
0.39938
0.406092
0.411497
0.41561
0.418468
0.420135
0.420691
0.420232
0.418864
0.416688
0.4138
0.410278
0.406181
0.401554
0.396411
0.390734
0.384466
0.377506
0.369692
0.360796
0.350493
0.338332
0.323669
0.305527
0.282278
0.250674
0.201924
0.0993363
0.264399
0.274615
0.285211
0.296122
0.307258
0.318504
0.329727
0.340773
0.35148
0.361673
0.371177
0.379818
0.387452
0.393985
0.399377
0.403628
0.406765
0.408836
0.409909
0.410062
0.409383
0.407964
0.405888
0.403232
0.400047
0.396375
0.392229
0.387588
0.382392
0.376528
0.369824
0.362028
0.352793
0.341635
0.32787
0.310474
0.28775
0.256345
0.207202
0.102253
0.262039
0.271671
0.281598
0.291764
0.302093
0.31249
0.322841
0.333022
0.342896
0.352321
0.361152
0.36925
0.376495
0.382802
0.388123
0.392446
0.395787
0.398181
0.399684
0.400362
0.400293
0.399557
0.398234
0.396394
0.394086
0.391348
0.38819
0.384587
0.380469
0.375714
0.37013
0.363445
0.355282
0.345122
0.332239
0.315557
0.29331
0.26204
0.212424
0.105001
0.259959
0.269085
0.278427
0.287936
0.297548
0.307184
0.31675
0.326143
0.335252
0.343961
0.352154
0.359718
0.366556
0.372593
0.377782
0.382104
0.385565
0.388192
0.390032
0.391142
0.391591
0.391456
0.390809
0.389721
0.388237
0.386393
0.384195
0.381611
0.378564
0.374913
0.370451
0.364879
0.357788
0.348622
0.336608
0.320618
0.298816
0.267634
0.217498
0.107544
0.25803
0.266728
0.275572
0.284518
0.293511
0.302485
0.311362
0.320059
0.328484
0.336544
0.344146
0.3512
0.357627
0.363365
0.368369
0.372621
0.376122
0.378893
0.380974
0.382418
0.383289
0.38366
0.383602
0.383186
0.382457
0.381449
0.380164
0.378563
0.376559
0.373996
0.370644
0.366178
0.360154
0.351976
0.340824
0.325513
0.304135
0.273017
0.222338
0.109852
0.256114
0.264461
0.272892
0.281368
0.289841
0.298255
0.306546
0.314644
0.322475
0.329963
0.337034
0.343616
0.349646
0.355071
0.359857
0.363984
0.367455
0.370287
0.372518
0.374199
0.375392
0.376169
0.376604
0.376766
0.376711
0.376464
0.376027
0.375357
0.374354
0.372847
0.370584
0.367207
0.362241
0.355044
0.344748
0.330109
0.309148
0.278086
0.226869
0.111901
0.254068
0.262132
0.27023
0.278324
0.286373
0.294328
0.302134
0.309733
0.317064
0.324064
0.330674
0.336835
0.342497
0.347618
0.352168
0.356135
0.359521
0.362346
0.364646
0.366473
0.367891
0.368975
0.369801
0.370444
0.370964
0.371392
0.371726
0.37192
0.371862
0.371368
0.370159
0.36785
0.363925
0.357701
0.348258
0.334292
0.313751
0.282753
0.231027
0.113671
0.251751
0.259591
0.267424
0.275216
0.282929
0.290517
0.297935
0.305132
0.312056
0.318656
0.32488
0.330682
0.33602
0.34086
0.34518
0.34897
0.352237
0.355002
0.357305
0.359199
0.360753
0.362047
0.363165
0.364186
0.36518
0.366187
0.367206
0.368186
0.369008
0.369472
0.369276
0.368004
0.365102
0.359841
0.351249
0.337963
0.317856
0.286947
0.234762
0.115161
0.249025
0.256688
0.264315
0.271872
0.279324
0.286629
0.293747
0.300632
0.307239
0.313523
0.319441
0.324951
0.330019
0.334617
0.338727
0.342343
0.345475
0.348147
0.350403
0.352301
0.353915
0.355334
0.356648
0.35795
0.359317
0.360803
0.362413
0.364096
0.365726
0.367087
0.367856
0.367586
0.365683
0.361374
0.353635
0.341043
0.321399
0.290626
0.238061
0.116433
0.245767
0.253288
0.260752
0.268128
0.275381
0.282474
0.289367
0.29602
0.302392
0.308442
0.31413
0.319419
0.324278
0.328681
0.332614
0.336074
0.339072
0.341636
0.343814
0.345669
0.347284
0.348754
0.350185
0.351679
0.353329
0.355197
0.357303
0.3596
0.36196
0.364153
0.365835
0.366525
0.365593
0.36222
0.355332
0.343452
0.324318
0.293772
0.24101
0.118048
0.24187
0.24927
0.256602
0.263836
0.270938
0.277874
0.284606
0.291095
0.297303
0.303191
0.308721
0.313856
0.318566
0.322828
0.326626
0.329958
0.332837
0.335294
0.337379
0.339163
0.340736
0.342205
0.343688
0.345302
0.347156
0.349329
0.351853
0.354689
0.357709
0.360669
0.363203
0.364801
0.364793
0.362316
0.356252
0.345072
0.326459
0.296193
0.243385
0.120085
0.237252
0.244538
0.251755
0.258871
0.265856
0.272675
0.279293
0.285673
0.291776
0.297564
0.302997
0.30804
0.31266
0.316831
0.320538
0.323776
0.32656
0.328921
0.330913
0.332614
0.334122
0.335555
0.337046
0.338729
0.34073
0.343145
0.346023
0.349336
0.352954
0.356624
0.359955
0.362405
0.363271
0.36165
0.35638
0.345889
0.327813
0.297884
0.245162
0.121978
0.231856
0.239024
0.246128
0.253138
0.260023
0.266752
0.273289
0.279598
0.285641
0.291376
0.296764
0.301765
0.306344
0.31047
0.314125
0.317303
0.320017
0.3223
0.32421
0.325828
0.327264
0.32865
0.33013
0.331856
0.333969
0.336588
0.339778
0.343523
0.347694
0.352023
0.356096
0.359344
0.361029
0.360215
0.355704
0.345886
0.328361
0.298824
0.246312
0.123621
0.225655
0.23269
0.239671
0.246572
0.253363
0.260012
0.266486
0.272748
0.278759
0.284475
0.289853
0.294849
0.299422
0.303538
0.307172
0.310313
0.312977
0.315198
0.31704
0.31859
0.319966
0.321311
0.322787
0.32456
0.326784
0.329597
0.333084
0.337241
0.341935
0.346884
0.351649
0.355632
0.358071
0.358004
0.354206
0.34504
0.328074
0.298982
0.246807
0.124981
0.218654
0.22553
0.232369
0.239146
0.245833
0.2524
0.258814
0.265037
0.271029
0.276743
0.28213
0.287139
0.291724
0.295845
0.299477
0.302608
0.305246
0.30743
0.309223
0.310723
0.312054
0.313373
0.314861
0.316705
0.319073
0.322109
0.325913
0.330489
0.335697
0.341233
0.346633
0.351278
0.354392
0.354998
0.351858
0.343312
0.326911
0.298318
0.246613
0.126032
0.210918
0.217585
0.224243
0.230868
0.23743
0.243899
0.250241
0.256418
0.262388
0.268101
0.273504
0.278543
0.283158
0.287299
0.290933
0.294045
0.296648
0.298784
0.300529
0.301988
0.303298
0.30463
0.306178
0.308146
0.310725
0.314052
0.318234
0.323269
0.328996
0.335086
0.341052
0.346269
0.34996
0.351153
0.348604
0.340642
0.32481
0.296774
0.245682
0.126746
0.202561
0.20898
0.215416
0.221847
0.228247
0.234586
0.240834
0.24695
0.252888
0.258594
0.264006
0.269056
0.273675
0.277804
0.281401
0.284455
0.286984
0.289042
0.290723
0.292146
0.293462
0.294861
0.296549
0.298737
0.301616
0.305345
0.309999
0.315555
0.321815
0.328416
0.334865
0.340544
0.344702
0.346386
0.344356
0.336941
0.321682
0.294266
0.243944
0.127081
0.193682
0.199812
0.205987
0.212187
0.218388
0.224565
0.230685
0.236708
0.242582
0.248248
0.253631
0.258651
0.263224
0.267281
0.270776
0.273703
0.276097
0.278027
0.279604
0.280975
0.282322
0.283862
0.28581
0.288352
0.291654
0.295878
0.301109
0.307295
0.314119
0.321175
0.327995
0.334013
0.338516
0.340584
0.338995
0.332081
0.317397
0.29067
0.241295
0.126976
0.184399
0.190196
0.196066
0.201992
0.207954
0.213926
0.219877
0.225764
0.231533
0.237112
0.242415
0.247345
0.251802
0.255704
0.259007
0.261717
0.263887
0.265614
0.267038
0.268347
0.26977
0.271539
0.273867
0.27691
0.280768
0.285562
0.291507
0.29845
0.305897
0.31334
0.320376
0.326546
0.331249
0.333593
0.332356
0.325888
0.311775
0.285812
0.237584
0.126339
0.174847
0.180264
0.185783
0.191388
0.197064
0.202786
0.208522
0.214227
0.219839
0.225278
0.230442
0.23521
0.239464
0.243108
0.246099
0.248475
0.250322
0.251799
0.253085
0.254382
0.255932
0.257988
0.260762
0.264398
0.268953
0.274531
0.281334
0.289119
0.297306
0.305123
0.31215
0.318201
0.322865
0.325308
0.324276
0.318154
0.30459
0.279467
0.232609
0.125039
0.165173
0.170164
0.175283
0.180519
0.18586
0.191283
0.196756
0.202231
0.207638
0.212884
0.217847
0.222379
0.22633
0.229579
0.23212
0.234085
0.23561
0.236854
0.238028
0.239353
0.241071
0.243447
0.246705
0.25099
0.256445
0.263221
0.271235
0.280026
0.288912
0.297022
0.303881
0.30953
0.313749
0.315875
0.314766
0.308799
0.295694
0.271444
0.226166
0.12291
0.155535
0.160053
0.164723
0.169541
0.174498
0.179574
0.184738
0.189937
0.195097
0.200106
0.204818
0.209044
0.212575
0.21532
0.217396
0.218956
0.220143
0.221115
0.222121
0.22346
0.225418
0.228264
0.232207
0.237463
0.244312
0.252758
0.262329
0.272282
0.281751
0.289936
0.296349
0.301172
0.304491
0.30584
0.304226
0.298076
0.285199
0.261738
0.218152
0.119794
0.1461
0.150099
0.154271
0.158618
0.163139
0.16782
0.172631
0.17752
0.182402
0.187152
0.191591
0.195465
0.198532
0.200806
0.202438
0.203535
0.204241
0.204807
0.205586
0.206969
0.209325
0.212973
0.218154
0.225064
0.233905
0.244483
0.255967
0.267209
0.277137
0.28496
0.290323
0.293786
0.295712
0.295797
0.293187
0.286414
0.273423
0.250525
0.208587
0.115544
0.137044
0.140481
0.144103
0.147925
0.151954
0.156186
0.160599
0.165145
0.169738
0.174238
0.178433
0.182005
0.184709
0.186582
0.187726
0.188219
0.188286
0.188319
0.188811
0.190283
0.193242
0.198124
0.205217
0.214587
0.22613
0.239392
0.253213
0.265937
0.276063
0.282829
0.286543
0.288144
0.288046
0.286212
0.282054
0.274184
0.260658
0.237984
0.197476
0.109921
0.128553
0.131392
0.134417
0.137653
0.141123
0.144837
0.148792
0.152954
0.157249
0.161539
0.165593
0.169034
0.171543
0.173091
0.173706
0.173477
0.172766
0.172132
0.172237
0.173771
0.177431
0.183847
0.193414
0.206043
0.221152
0.237843
0.254455
0.268559
0.27851
0.28402
0.285833
0.285008
0.282159
0.2776
0.271117
0.261525
0.246959
0.22404
0.184375
0.102622
0.120826
0.123044
0.125433
0.128027
0.130859
0.133965
0.137365
0.14106
0.145011
0.149117
0.153164
0.156729
0.159288
0.160613
0.160678
0.159628
0.158025
0.156627
0.156236
0.157678
0.161851
0.169702
0.181965
0.198597
0.218384
0.239454
0.259227
0.274755
0.284752
0.289377
0.289362
0.285658
0.279109
0.270579
0.260552
0.248327
0.231968
0.207971
0.168321
0.0944966
0.114058
0.115664
0.117405
0.119318
0.121445
0.123835
0.12654
0.129607
0.133064
0.136899
0.140992
0.144929
0.147883
0.1491
0.148547
0.146598
0.144104
0.141987
0.141073
0.14218
0.14632
0.154858
0.169302
0.190293
0.216142
0.243142
0.266985
0.284404
0.295295
0.300279
0.299457
0.292797
0.281018
0.266347
0.250876
0.234651
0.215523
0.189712
0.150518
0.0848323
0.108426
0.109465
0.110591
0.111835
0.113234
0.114837
0.116706
0.118923
0.121589
0.124828
0.128734
0.133115
0.13685
0.137934
0.136596
0.133806
0.130721
0.128249
0.127013
0.127609
0.130941
0.13864
0.153295
0.177501
0.210618
0.246548
0.2766
0.296434
0.310034
0.318568
0.320244
0.311804
0.292667
0.267573
0.242961
0.220444
0.197405
0.169652
0.132571
0.0730634
0.104045
0.104599
0.105194
0.105846
0.10658
0.107424
0.108424
0.109649
0.111211
0.113316
0.116309
0.120589
0.125449
0.125801
0.123536
0.120488
0.117688
0.115627
0.114543
0.114677
0.116567
0.121484
0.132256
0.154033
0.191764
0.241779
0.285243
0.308398
0.328121
0.346147
0.357875
0.352828
0.322945
0.277347
0.236556
0.204707
0.17729
0.149543
0.117799
0.0603103
0.100954
0.101117
0.101288
0.101473
0.101677
0.101907
0.102175
0.1025
0.102927
0.10357
0.10473
0.107254
0.113224
0.110785
0.108517
0.106802
0.10558
0.104774
0.104337
0.104277
0.104709
0.105955
0.108862
0.115803
0.133613
0.179692
0.277469
0.315428
0.345949
0.377458
0.399426
0.389149
0.350215
0.29085
0.230418
0.189956
0.160875
0.138289
0.117918
0.0848295
)
;

boundaryField
{
    leftWall
    {
        type            kqRWallFunction;
        value           nonuniform 0();
    }
    rightWall
    {
        type            kqRWallFunction;
        value           nonuniform List<scalar> 
43
(
0.0873101
0.083982
0.0817163
0.0804555
0.0801114
0.0805663
0.081684
0.0833241
0.0853568
0.0876804
0.0902505
0.0931454
0.0962862
0.0993363
0.102253
0.105001
0.107544
0.109852
0.111901
0.113671
0.115161
0.116433
0.118048
0.120085
0.121978
0.123621
0.124981
0.126032
0.126746
0.127081
0.126976
0.126339
0.125039
0.12291
0.119794
0.115544
0.109921
0.102622
0.0944966
0.0848323
0.0730634
0.0603103
0.0848295
)
;
    }
    lowerWall
    {
        type            kqRWallFunction;
        value           nonuniform 0();
    }
    atmosphere
    {
        type            inletOutlet;
        inletValue      uniform 0.1;
        value           nonuniform List<scalar> 
45
(
0.1
0.1
0.1
0.1
0.1
0.1
0.1
0.1
0.1
0.1
0.1
0.1
0.1
0.1
0.1
0.1
0.1
0.113224
0.1
0.1
0.1
0.1
0.1
0.1
0.1
0.1
0.1
0.1
0.1
0.1
0.1
0.277469
0.315428
0.345949
0.377458
0.399426
0.389149
0.350215
0.29085
0.230418
0.189956
0.160875
0.138289
0.117918
0.1
)
;
    }
    defaultFaces
    {
        type            empty;
    }
    procBoundary3to1
    {
        type            processor;
        value           nonuniform List<scalar> 
45
(
0.387842
0.402604
0.416248
0.428996
0.440849
0.452711
0.464906
0.477571
0.491044
0.505697
0.521446
0.53846
0.556118
0.573819
0.591777
0.609851
0.627395
0.64362
0.657805
0.669437
0.678101
0.683492
0.685347
0.683598
0.678172
0.669169
0.657065
0.642658
0.626855
0.61038
0.593766
0.577347
0.56118
0.544901
0.527863
0.509277
0.488366
0.464504
0.437172
0.40588
0.369792
0.327591
0.276551
0.208694
0.091779
)
;
    }
    procBoundary3to2
    {
        type            processor;
        value           nonuniform List<scalar> 
43
(
0.337865
0.30939
0.286418
0.268452
0.25469
0.244278
0.236449
0.23058
0.226192
0.222921
0.220497
0.218712
0.217402
0.216428
0.215668
0.215008
0.214337
0.213549
0.212539
0.211208
0.209466
0.207234
0.204446
0.201054
0.19703
0.192369
0.187114
0.181317
0.175047
0.168394
0.161461
0.154361
0.147218
0.140162
0.133323
0.126831
0.120809
0.115376
0.110635
0.106675
0.103568
0.101369
0.100125
)
;
    }
}


// ************************************************************************* //
