/*--------------------------------*- C++ -*----------------------------------*\
| =========                 |                                                 |
| \\      /  F ield         | OpenFOAM: The Open Source CFD Toolbox           |
|  \\    /   O peration     | Version:  5.0                                   |
|   \\  /    A nd           | Web:      www.OpenFOAM.org                      |
|    \\/     M anipulation  |                                                 |
\*---------------------------------------------------------------------------*/
FoamFile
{
    version     2.0;
    format      ascii;
    class       volScalarField;
    location    "1";
    object      nut;
}
// * * * * * * * * * * * * * * * * * * * * * * * * * * * * * * * * * * * * * //

dimensions      [0 2 -1 0 0 0 0];

internalField   nonuniform List<scalar> 
1935
(
0.00699841
0.00722042
0.00752
0.00788044
0.00827401
0.00866869
0.00903553
0.00935379
0.00961284
0.00981129
0.0099544
0.0100512
0.0101122
0.010147
0.0101643
0.0101705
0.0101702
0.0101661
0.0101597
0.010151
0.0101395
0.0101238
0.0101024
0.0100735
0.0100355
0.0099868
0.00992596
0.00985169
0.00976354
0.00966185
0.00954791
0.00942418
0.00929446
0.00916404
0.00903974
0.00892975
0.008843
0.00878801
0.00877092
0.00879292
0.00884751
0.00891891
0.00898333
0.00710659
0.00723115
0.00737699
0.0075447
0.00733008
0.00746203
0.00761918
0.00780041
0.00762521
0.00775759
0.00791875
0.00810656
0.0079764
0.00810264
0.0082602
0.00844663
0.0083581
0.00847347
0.00862108
0.00879858
0.00874062
0.00884279
0.00897637
0.00913945
0.00909678
0.00918564
0.00930369
0.00944957
0.00940683
0.00948398
0.00958717
0.00971568
0.00966049
0.00972845
0.00981897
0.00993186
0.00985618
0.0099178
0.00999854
0.0100987
0.00999878
0.0100567
0.0101307
0.0102212
0.0100968
0.0101533
0.0102232
0.010307
0.0101601
0.0102169
0.0102848
0.0103646
0.0101982
0.0102564
0.0103241
0.0104017
0.0102191
0.0102796
0.010348
0.0104249
0.0102291
0.0102923
0.0103623
0.0104394
0.0102326
0.0102987
0.0103706
0.0104486
0.0102322
0.0103013
0.0103754
0.0104546
0.0102292
0.010301
0.0103773
0.010458
0.0102236
0.010298
0.0103763
0.0104585
0.0102146
0.0102912
0.0103713
0.0104547
0.0102008
0.010279
0.0103604
0.0104447
0.0101804
0.0102595
0.0103415
0.0104261
0.0101515
0.0102304
0.0103121
0.0103962
0.0101121
0.0101896
0.0102697
0.010352
0.0100603
0.0101347
0.0102117
0.0102906
0.00999454
0.010064
0.0101358
0.0102093
0.00991315
0.0099755
0.0100399
0.0101056
0.00981527
0.00986781
0.00992195
0.00997703
0.00970093
0.00974065
0.00978142
0.0098225
0.00957124
0.00959491
0.00961883
0.00964226
0.00942864
0.00943291
0.00943638
0.0094383
0.00927713
0.00925883
0.00923832
0.00921492
0.00912258
0.00907899
0.00903141
0.00897925
0.00897284
0.00890225
0.00882541
0.00874188
0.00883778
0.00874005
0.00863334
0.00851734
0.00872872
0.00860618
0.00847147
0.00832434
0.00865735
0.00851566
0.00835838
0.00818516
0.00863352
0.0084825
0.00831276
0.00812364
0.00866196
0.00851579
0.00834906
0.00816056
0.00873841
0.00861459
0.008471
0.00830591
0.00884651
0.00876291
0.00866428
0.00854883
0.00895786
0.00892799
0.00889221
0.00884966
0.00774373
0.00797994
0.00824934
0.00855811
0.00890944
0.00930241
0.00973191
0.0101887
0.0106623
0.0111423
0.0116178
0.0120779
0.0125108
0.0129043
0.0132483
0.0135364
0.0137625
0.0139218
0.0140121
0.0140317
0.0139804
0.0138607
0.0136765
0.0134325
0.0131338
0.0127852
0.0123915
0.0119557
0.0114796
0.0109607
0.0103925
0.00976423
0.0090609
0.00826319
0.00734672
0.00628139
0.00503195
0.00355908
0.0018405
0.000216019
0.00801469
0.00826841
0.00855477
0.00887723
0.00923689
0.00963153
0.0100553
0.0104994
0.0109537
0.0114079
0.011852
0.0122765
0.0126713
0.0130262
0.0133334
0.0135858
0.0137782
0.0139077
0.0139724
0.0139714
0.013905
0.0137756
0.0135866
0.0133418
0.013045
0.0127004
0.0123116
0.0118808
0.0114087
0.010892
0.0103239
0.00969352
0.00898579
0.00818152
0.00725756
0.00618695
0.00493837
0.00347768
0.00178943
0.000211825
0.00833004
0.00859309
0.00888767
0.00921465
0.00957317
0.0099599
0.0103689
0.010792
0.0112199
0.0116432
0.0120528
0.0124405
0.012798
0.0131171
0.0133906
0.0136116
0.0137763
0.0138825
0.0139286
0.0139138
0.0138388
0.0137054
0.0135163
0.0132744
0.0129828
0.0126449
0.0122633
0.0118394
0.0113725
0.010859
0.0102911
0.0096577
0.00894376
0.00813123
0.00719866
0.00612117
0.0048705
0.00341671
0.00175016
0.000208972
0.00867129
0.00893456
0.00922748
0.00954918
0.00989735
0.0102679
0.0106551
0.0110515
0.0114489
0.011839
0.0122139
0.0125664
0.0128895
0.0131768
0.0134205
0.0136156
0.0137587
0.0138477
0.0138812
0.0138587
0.0137808
0.0136484
0.0134634
0.0132282
0.0129452
0.0126168
0.0122448
0.0118296
0.0113694
0.0108593
0.0102915
0.00965464
0.00893441
0.00811348
0.00717166
0.00608583
0.00483012
0.00337778
0.00172368
0.000207423
0.00901509
0.00927137
0.00955317
0.00986077
0.0101909
0.0105391
0.0108999
0.0112668
0.0116326
0.01199
0.0123319
0.0126524
0.0129453
0.0132051
0.0134243
0.013599
0.013726
0.0138033
0.0138297
0.0138046
0.0137282
0.0136012
0.0134244
0.0131995
0.0129282
0.0126121
0.0122519
0.0118469
0.0113943
0.0108887
0.0103218
0.00968243
0.00895657
0.00812764
0.00717646
0.00608134
0.00481809
0.00336202
0.00171088
0.000207091
0.00934072
0.00958158
0.00984723
0.0101343
0.0104411
0.0107634
0.0110959
0.0114329
0.011768
0.0120947
0.012407
0.0126994
0.0129666
0.0132034
0.0134032
0.0135625
0.0136784
0.0137489
0.0137727
0.0137492
0.0136781
0.0135598
0.0133945
0.013183
0.0129263
0.0126249
0.0122785
0.0118856
0.0114423
0.0109426
0.0103781
0.00973752
0.00900728
0.00817135
0.0072114
0.00610669
0.00483403
0.0033696
0.0017121
0.000207824
0.00963156
0.00985161
0.0100961
0.010361
0.0106423
0.0109374
0.0112418
0.0115501
0.0118568
0.0121559
0.0124421
0.0127104
0.0129558
0.0131739
0.0133588
0.0135071
0.013616
0.0136836
0.0137086
0.01369
0.0136274
0.0135205
0.0133692
0.0131736
0.0129337
0.0126491
0.0123186
0.0119394
0.0115072
0.0110153
0.010455
0.00981515
0.00908233
0.00824101
0.00727342
0.00615941
0.00487608
0.00339933
0.00172688
0.000209429
0.00987739
0.0100748
0.0102958
0.0105368
0.0107939
0.0110631
0.0113407
0.0116226
0.0119037
0.0121784
0.0124419
0.0126896
0.0129169
0.0131197
0.0132933
0.013434
0.0135393
0.0136071
0.0136361
0.013625
0.0135732
0.0134798
0.0133445
0.0131666
0.0129452
0.012679
0.0123659
0.0120023
0.011583
0.0111009
0.010547
0.00991003
0.00917682
0.00833209
0.0073584
0.00623573
0.00494093
0.00344866
0.00175392
0.0002117
0.0100746
0.0102502
0.0104482
0.0106655
0.0108989
0.0111446
0.0113988
0.0116571
0.0119152
0.0121686
0.0124124
0.0126424
0.0128545
0.0130448
0.0132097
0.0133453
0.0134493
0.0135195
0.0135543
0.0135526
0.013513
0.0134347
0.0133167
0.0131575
0.0129558
0.0127094
0.0124151
0.0120685
0.011664
0.0111938
0.0106485
0.0100168
0.00928556
0.00843957
0.00746144
0.00633094
0.00502415
0.00351386
0.00179115
0.000214443
0.0102253
0.0103817
0.0105588
0.0107545
0.0109658
0.0111896
0.0114223
0.0116601
0.0118987
0.0121334
0.01236
0.0125748
0.012774
0.0129539
0.0131114
0.0132437
0.0133478
0.0134217
0.0134636
0.013472
0.0134456
0.0133831
0.0132829
0.0131433
0.012962
0.0127361
0.0124616
0.0121336
0.0117454
0.011289
0.0107545
0.0101304
0.00940346
0.00855834
0.00757739
0.00643983
0.0051206
0.00359034
0.00183574
0.000217499
0.0103351
0.0104756
0.010635
0.0108117
0.0110034
0.0112074
0.0114206
0.0116394
0.0118601
0.0120786
0.0122905
0.0124921
0.0126799
0.0128509
0.0130023
0.0131318
0.0132367
0.0133149
0.0133644
0.0133834
0.0133704
0.0133238
0.0132416
0.0131217
0.012961
0.0127561
0.0125023
0.0121937
0.0118233
0.0113823
0.0108606
0.0102463
0.00952575
0.00868344
0.00770113
0.00655712
0.0052249
0.00367286
0.00188405
0.000220774
0.0104115
0.0105395
0.0106846
0.0108453
0.01102
0.0112065
0.011402
0.0116036
0.0118078
0.012011
0.0122094
0.0123991
0.0125769
0.0127401
0.0128864
0.0130136
0.0131193
0.0132014
0.0132581
0.0132874
0.0132875
0.0132565
0.013192
0.0130914
0.0129513
0.0127674
0.0125346
0.0122462
0.0118946
0.0114705
0.0109632
0.0103603
0.00964808
0.00881027
0.00782785
0.00667788
0.00533196
0.00375594
0.00193034
0.000224268
0.0104624
0.0105811
0.0107148
0.0108625
0.0110228
0.0111941
0.0113739
0.0115598
0.0117487
0.0119377
0.0121231
0.0123017
0.0124702
0.0126263
0.0127679
0.0128928
0.0129991
0.0130846
0.0131476
0.0131862
0.0131983
0.0131818
0.0131341
0.0130521
0.0129319
0.0127688
0.0125568
0.012289
0.0119569
0.0115507
0.0110593
0.0104698
0.00976767
0.00893601
0.0079548
0.00679957
0.00543966
0.00383791
0.0019726
0.000228199
0.0104952
0.0106072
0.0107321
0.0108693
0.0110177
0.0111758
0.0113419
0.0115136
0.0116886
0.0118641
0.0120373
0.012205
0.0123647
0.0125139
0.0126506
0.012773
0.0128792
0.0129673
0.0130356
0.0130821
0.0131049
0.0131016
0.0130694
0.0130048
0.0129036
0.0127606
0.0125693
0.012322
0.0120099
0.0116226
0.0111482
0.0105733
0.00988273
0.00905869
0.00808002
0.00692062
0.00554751
0.00392044
0.00201549
0.000231947
0.0105159
0.0106232
0.0107416
0.0108704
0.0110089
0.011156
0.01131
0.0114693
0.0116316
0.0117947
0.0119561
0.0121134
0.0122642
0.0124064
0.012538
0.0126572
0.0127625
0.0128521
0.0129243
0.0129774
0.0130093
0.0130177
0.0129994
0.0129509
0.0128675
0.0127436
0.0125723
0.0123454
0.0120534
0.0116853
0.0112286
0.0106693
0.00999137
0.00917615
0.00820128
0.00703899
0.00565392
0.00400269
0.00205885
0.000235469
0.0105292
0.0106334
0.0107469
0.0108692
0.0109997
0.0111375
0.0112812
0.0114294
0.0115803
0.011732
0.0118826
0.0120298
0.0121718
0.0123066
0.0124324
0.0125478
0.0126512
0.012741
0.0128159
0.0128739
0.0129132
0.0129314
0.0129254
0.0128913
0.0128242
0.0127183
0.0125661
0.012359
0.0120868
0.0117379
0.0112993
0.0107561
0.0100916
0.0092862
0.0083163
0.00715246
0.00575696
0.00408323
0.00210196
0.000238739
0.010538
0.0106404
0.0107504
0.0108677
0.0109917
0.0111217
0.0112566
0.0113952
0.011536
0.0116774
0.0118178
0.0119555
0.0120887
0.0122159
0.0123356
0.0124462
0.0125467
0.0126355
0.0127113
0.0127726
0.0128175
0.0128437
0.012848
0.0128265
0.0127742
0.0126847
0.0125504
0.0123622
0.0121092
0.0117792
0.0113587
0.0108319
0.0101814
0.00938665
0.00842281
0.00725883
0.00585468
0.00416062
0.00214406
0.000241729
0.0105443
0.0106455
0.0107531
0.0108666
0.0109855
0.0111091
0.0112365
0.0113668
0.0114987
0.0116308
0.0117619
0.0118905
0.0120152
0.0121346
0.0122475
0.0123527
0.0124491
0.0125356
0.0126109
0.0126737
0.0127223
0.0127544
0.012767
0.0127562
0.0127168
0.0126422
0.0125244
0.0123539
0.0121193
0.0118078
0.0114051
0.0108948
0.0102588
0.00947534
0.00851864
0.00735603
0.00594528
0.00423346
0.00218449
0.000244418
0.0105483
0.0106491
0.0107549
0.0108655
0.0109803
0.0110987
0.0112199
0.011343
0.011467
0.0115908
0.0117133
0.0118334
0.0119497
0.0120613
0.012167
0.012266
0.0123574
0.0124401
0.0125134
0.0125759
0.0126262
0.0126623
0.0126812
0.0126791
0.0126507
0.0125893
0.0124866
0.0123325
0.0121154
0.0118217
0.0114365
0.0109428
0.0103215
0.00955013
0.00860171
0.00744211
0.00602704
0.0043005
0.00222262
0.000246788
0.0105495
0.0106501
0.0107548
0.0108631
0.0109746
0.0110886
0.0112045
0.0113214
0.0114385
0.0115549
0.0116694
0.0117813
0.0118895
0.0119931
0.0120913
0.0121834
0.0122687
0.0123465
0.0124161
0.0124766
0.0125269
0.0125649
0.0125881
0.0125927
0.0125734
0.0125235
0.0124344
0.0122957
0.0120951
0.0118187
0.0114508
0.0109737
0.0103675
0.00960893
0.00867
0.0075152
0.00609832
0.00436049
0.00225782
0.000248831
0.0105465
0.010647
0.0107507
0.0108572
0.0109659
0.0110762
0.0111874
0.0112989
0.0114097
0.0115191
0.0116262
0.0117302
0.0118304
0.0119258
0.0120161
0.0121005
0.0121787
0.0122503
0.0123149
0.0123718
0.01242
0.0124582
0.0124838
0.0124932
0.0124814
0.0124415
0.0123648
0.0122404
0.0120557
0.0117961
0.0114453
0.010985
0.0103945
0.00964966
0.00872155
0.00757345
0.00615745
0.00441204
0.00228935
0.000250553
0.010537
0.0106373
0.0107401
0.0108448
0.0109509
0.0110577
0.0111647
0.011271
0.0113759
0.0114787
0.0115785
0.0116748
0.0117667
0.0118537
0.0119354
0.0120114
0.0120815
0.0121457
0.0122037
0.0122554
0.0123001
0.0123367
0.012363
0.0123758
0.01237
0.0123389
0.0122736
0.0121629
0.0119937
0.0117509
0.0114174
0.0109743
0.0104002
0.00967024
0.00875442
0.00761498
0.0062025
0.00445325
0.00231587
0.000252036
0.0105183
0.010618
0.0107194
0.0108222
0.0109255
0.0110288
0.0111314
0.0112326
0.0113316
0.0114276
0.01152
0.0116081
0.0116914
0.0117693
0.0118417
0.0119084
0.0119694
0.0120249
0.0120751
0.0121202
0.0121599
0.0121934
0.0122192
0.0122341
0.0122334
0.0122104
0.012156
0.0120588
0.0119052
0.0116795
0.011364
0.010939
0.0103825
0.00966866
0.00876672
0.00763783
0.00623115
0.00448098
0.00233356
0.000253922
0.0104874
0.0105856
0.0106851
0.0107852
0.0108852
0.0109844
0.0110821
0.0111776
0.0112701
0.0113588
0.0114431
0.0115224
0.0115962
0.0116642
0.0117262
0.0117824
0.011833
0.0118786
0.0119198
0.011957
0.0119906
0.0120202
0.0120446
0.012061
0.0120651
0.0120501
0.0120069
0.0119238
0.0117866
0.0115791
0.0112829
0.0108774
0.01034
0.00964396
0.00875774
0.00764141
0.00624274
0.00449413
0.00234044
0.000256192
0.0104411
0.0105366
0.0106329
0.0107291
0.0108247
0.0109187
0.0110105
0.0110992
0.011184
0.0112643
0.0113393
0.0114085
0.0114715
0.0115282
0.0115785
0.0116229
0.0116619
0.0116964
0.0117273
0.0117558
0.0117825
0.0118077
0.0118305
0.0118488
0.0118581
0.0118519
0.0118211
0.0117534
0.0116343
0.0114468
0.0111718
0.0107879
0.0102715
0.00959542
0.00872716
0.00762586
0.00623813
0.00449486
0.00234042
0.000258285
0.0103759
0.010467
0.0105583
0.0106491
0.0107384
0.0108255
0.0109096
0.0109897
0.0110651
0.0111351
0.011199
0.0112564
0.0113068
0.0113504
0.0113874
0.0114184
0.0114444
0.0114665
0.0114864
0.0115055
0.0115252
0.0115463
0.0115683
0.0115892
0.0116052
0.0116097
0.0115932
0.0115434
0.0114449
0.0112801
0.0110288
0.010669
0.0101762
0.00952255
0.00867479
0.00759137
0.00621794
0.00448434
0.0023348
0.000260106
0.0102886
0.010373
0.010457
0.0105399
0.0106206
0.0106984
0.0107723
0.0108414
0.0109049
0.0109621
0.0110125
0.0110555
0.0110912
0.0111196
0.0111413
0.0111572
0.0111687
0.0111776
0.0111859
0.0111957
0.0112089
0.0112268
0.0112495
0.0112753
0.0113003
0.011318
0.0113189
0.0112902
0.0112157
0.0110769
0.0108526
0.0105199
0.0100535
0.00942496
0.00860048
0.00753795
0.00618242
0.00446298
0.00232395
0.000261629
0.0101762
0.0102509
0.0103246
0.0103965
0.0104656
0.0105308
0.0105913
0.0106462
0.0106947
0.0107361
0.0107699
0.0107958
0.0108139
0.0108249
0.0108295
0.0108292
0.0108258
0.0108214
0.0108186
0.0108198
0.0108275
0.0108435
0.0108687
0.0109018
0.0109389
0.0109734
0.0109954
0.0109917
0.0109453
0.0108364
0.0106426
0.0103402
0.0099031
0.00930239
0.00850397
0.00746542
0.00613144
0.00443075
0.00230789
0.000262838
0.0100359
0.0100974
0.0101573
0.0102145
0.010268
0.0103168
0.0103601
0.010397
0.0104266
0.0104487
0.0104628
0.010469
0.0104677
0.0104597
0.0104463
0.0104292
0.0104107
0.0103933
0.01038
0.0103738
0.0103777
0.010394
0.0104241
0.0104671
0.0105199
0.010575
0.0106224
0.0106481
0.010634
0.0105588
0.0103991
0.01013
0.00972492
0.00915457
0.00838482
0.00737324
0.00606449
0.00438722
0.00228641
0.000263708
0.0098659
0.00991025
0.00995206
0.00999028
0.010024
0.0100521
0.010074
0.0100889
0.0100963
0.0100958
0.0100875
0.0100718
0.0100493
0.0100211
0.00998907
0.00995519
0.00992209
0.0098928
0.00987064
0.00985908
0.0098615
0.00988075
0.0099185
0.00997444
0.0100457
0.0101255
0.0102025
0.0102618
0.010284
0.0102462
0.0101235
0.00989012
0.0095191
0.00898118
0.00824237
0.00726052
0.00598061
0.0043316
0.00225908
0.000264201
0.00966614
0.00968887
0.00970804
0.0097227
0.00973196
0.00973505
0.00973135
0.00972042
0.00970202
0.0096762
0.00964327
0.00960393
0.00955928
0.00951086
0.00946068
0.00941122
0.00936537
0.00932642
0.00929794
0.0092837
0.00928746
0.00931249
0.00936084
0.00943251
0.00952492
0.0096322
0.00974209
0.00983856
0.00990013
0.00990205
0.00981817
0.00962191
0.00928615
0.0087819
0.00807567
0.00712591
0.00587828
0.00426253
0.00222514
0.00026426
0.00943839
0.00943478
0.00942651
0.0094128
0.00939298
0.00936658
0.00933332
0.00929311
0.00924616
0.0091929
0.00913408
0.0090708
0.00900453
0.00893716
0.00887101
0.00880874
0.00875332
0.00870813
0.0086768
0.00866323
0.00867145
0.00870502
0.00876632
0.00885573
0.00897104
0.00910646
0.00925177
0.00938744
0.00948991
0.00953226
0.00948719
0.00932766
0.00902692
0.00855647
0.0078835
0.00696745
0.00575521
0.00417795
0.00218345
0.000263792
0.00918695
0.00915226
0.00911175
0.00906494
0.00901157
0.00895162
0.00888534
0.00881321
0.00873593
0.00865448
0.00857007
0.00848418
0.00839865
0.00831562
0.00823747
0.00816691
0.00810662
0.00805985
0.0080301
0.00802102
0.00803656
0.00808056
0.00815583
0.00826343
0.00840196
0.00856646
0.00874653
0.00892066
0.00906359
0.00914535
0.00913684
0.00901145
0.00874336
0.00830499
0.00766441
0.00678255
0.00560824
0.0040749
0.00213228
0.000262656
0.00891928
0.0088491
0.00877186
0.00868758
0.00859665
0.00849974
0.00839786
0.00829222
0.00818424
0.00807547
0.00796758
0.00786244
0.0077621
0.00766872
0.00758463
0.00751219
0.00745365
0.00741135
0.00738808
0.0073869
0.00741139
0.00746568
0.00755346
0.00767706
0.00783691
0.00802953
0.00824293
0.00845345
0.00863385
0.008752
0.00877654
0.00868102
0.00844057
0.00802944
0.00741805
0.00656923
0.00543444
0.00395036
0.00206975
0.00026066
0.00864677
0.00853746
0.00841971
0.00829429
0.0081625
0.00802603
0.00788691
0.00774738
0.00760971
0.00747612
0.00734873
0.00722964
0.00712088
0.00702469
0.00694305
0.00687738
0.0068287
0.00679774
0.00678565
0.00679439
0.00682704
0.00688822
0.00698337
0.0071176
0.00729447
0.00751156
0.00775507
0.00799929
0.0082135
0.00836401
0.00841706
0.00834539
0.00812592
0.0077354
0.00714758
0.00632849
0.00523317
0.0038029
0.00199469
0.000257596
0.00838546
0.00823478
0.00807396
0.00790479
0.00772974
0.00755189
0.00737469
0.00720171
0.00703633
0.00688156
0.00673995
0.00661361
0.00650466
0.00641531
0.00634645
0.00629787
0.00626832
0.006256
0.00625927
0.00627779
0.00631383
0.00637337
0.00646568
0.00660106
0.00678715
0.00702299
0.00729337
0.00756804
0.00781299
0.00799139
0.008067
0.00801256
0.00780673
0.00742912
0.00685766
0.00606304
0.00500558
0.00363264
0.00190686
0.000253255
0.00815649
0.00796459
0.00776021
0.00754627
0.00732671
0.00710633
0.00689043
0.00668437
0.00649308
0.00632064
0.00617016
0.00604379
0.00594389
0.00587208
0.00582765
0.00580798
0.00580843
0.00582273
0.0058444
0.00586908
0.00589783
0.00593982
0.00601197
0.0061338
0.00631906
0.00656769
0.00686154
0.007165
0.00743788
0.00763888
0.00773151
0.00768838
0.00748817
0.00711394
0.00654977
0.00577278
0.00475018
0.00343746
0.00180467
0.000247318
0.00798605
0.00775699
0.007512
0.00725503
0.0069915
0.00672814
0.0064725
0.0062323
0.00601472
0.00582573
0.00566968
0.00554926
0.00546679
0.00542345
0.00541653
0.00543976
0.00548292
0.00553249
0.00557394
0.00559636
0.00559921
0.00559828
0.00562485
0.00571424
0.0058887
0.00614676
0.00646195
0.00679181
0.00708842
0.00730796
0.00741327
0.00737497
0.00717116
0.00678843
0.00621845
0.00544826
0.00445457
0.00320271
0.00167073
0.000239197
0.00790371
0.00764778
0.00737109
0.00707803
0.00677497
0.00647022
0.00617358
0.00589565
0.00564689
0.00543672
0.00527271
0.00515984
0.00510101
0.005097
0.00514249
0.00522505
0.00532581
0.0054202
0.00548142
0.00548827
0.00543788
0.00535772
0.00530409
0.00533802
0.00549285
0.00576026
0.00609717
0.00645158
0.00676957
0.00700434
0.00711622
0.00707321
0.0068522
0.00644284
0.00584474
0.005061
0.00408047
0.0028788
0.00146025
0.000229841
0.00793796
0.00767463
0.00738498
0.00707259
0.00674338
0.00640579
0.00607066
0.0057509
0.00546091
0.0052158
0.00503039
0.00491709
0.00488328
0.00492999
0.00504552
0.0052065
0.00538146
0.00553071
0.00561111
0.00558713
0.00545077
0.00524396
0.00506036
0.00500349
0.00512521
0.00540438
0.00576996
0.00615385
0.00649491
0.00674205
0.0068517
0.00678819
0.00652519
0.00606056
0.00541001
0.0045923
0.00361277
0.00246913
0.00121723
0.000218169
0.00810735
0.00786761
0.0075978
0.0072993
0.00697546
0.00663206
0.00627768
0.00592407
0.00558686
0.00528674
0.00505041
0.00490885
0.00488868
0.00499981
0.00520639
0.00546463
0.00572689
0.005936
0.00603389
0.00597067
0.00572571
0.00534175
0.00494941
0.00472368
0.00476908
0.00505938
0.00547615
0.00590684
0.00628098
0.00654309
0.00664549
0.00654478
0.00621406
0.00565744
0.00491411
0.00403408
0.00305128
0.00199857
0.000978061
0.000202994
0.00840719
0.0082323
0.00803031
0.00780002
0.00754117
0.00725463
0.00694273
0.00660978
0.00626345
0.0059182
0.0056022
0.00536776
0.00529819
0.00550275
0.00582284
0.00617736
0.00650602
0.00674986
0.00685362
0.00676764
0.00645015
0.00589509
0.00519704
0.00460298
0.0043915
0.00464037
0.00518639
0.00571025
0.00614033
0.00643313
0.00654816
0.0064228
0.00599051
0.00526982
0.00437143
0.00339577
0.00242184
0.00151907
0.000774388
0.000185163
0.00879655
0.00872966
0.0086506
0.00855799
0.00845042
0.0083264
0.00818413
0.00802108
0.00783308
0.00761196
0.00733906
0.00696936
0.00640687
0.00701842
0.00741412
0.00771361
0.00793996
0.00808919
0.00814887
0.0080988
0.00790162
0.00749238
0.00677772
0.00569619
0.00446244
0.00388372
0.00482781
0.00556501
0.00607215
0.00640811
0.00654491
0.006365
0.00581569
0.00495061
0.00387175
0.00279838
0.00185958
0.00112604
0.000604185
0.000218655
)
;

boundaryField
{
    leftWall
    {
        type            nutkWallFunction;
        Cmu             0.09;
        kappa           0.41;
        E               9.8;
        value           nonuniform 0();
    }
    rightWall
    {
        type            nutkWallFunction;
        Cmu             0.09;
        kappa           0.41;
        E               9.8;
        value           nonuniform List<scalar> 
43
(
2.29832e-05
2.23789e-05
2.19596e-05
2.17235e-05
2.16587e-05
2.17443e-05
2.19536e-05
2.22578e-05
2.26301e-05
2.30496e-05
2.35063e-05
2.4012e-05
2.45506e-05
2.50642e-05
2.55471e-05
2.59948e-05
2.64034e-05
2.67696e-05
2.70908e-05
2.73658e-05
2.75954e-05
2.779e-05
2.80354e-05
2.83422e-05
2.86248e-05
2.8868e-05
2.90678e-05
2.92216e-05
2.93256e-05
2.93742e-05
2.93589e-05
2.92663e-05
2.90764e-05
2.8763e-05
2.82986e-05
2.76542e-05
2.67804e-05
2.56077e-05
2.42449e-05
2.25345e-05
2.02947e-05
1.76454e-05
2.25439e-05
)
;
    }
    lowerWall
    {
        type            nutkWallFunction;
        Cmu             0.09;
        kappa           0.41;
        E               9.8;
        value           nonuniform 0();
    }
    atmosphere
    {
        type            calculated;
        value           nonuniform List<scalar> 
45
(
0.009
0.009
0.009
0.009
0.009
0.009
0.009
0.009
0.009
0.009
0.009
0.009
0.009
0.009
0.009
0.009
0.009
0.00640687
0.009
0.009
0.009
0.009
0.009
0.009
0.009
0.009
0.009
0.009
0.009
0.009
0.009
0.00482781
0.00556501
0.00607215
0.00640811
0.00654491
0.006365
0.00581569
0.00495061
0.00387175
0.00279838
0.00185958
0.00112604
0.000604185
0.009
)
;
    }
    defaultFaces
    {
        type            empty;
    }
    procBoundary3to1
    {
        type            processor;
        value           nonuniform List<scalar> 
45
(
0.00685595
0.00695742
0.00706931
0.00719854
0.0073477
0.007527
0.00774028
0.00798605
0.00827298
0.00860639
0.00898693
0.00941178
0.00987159
0.0103559
0.010855
0.0113568
0.0118493
0.0123186
0.0127509
0.0131347
0.0134617
0.0137261
0.0139219
0.0140449
0.0140923
0.0140633
0.0139594
0.0137851
0.0135462
0.013249
0.0128993
0.0125027
0.0120634
0.011584
0.0110631
0.0104948
0.00986823
0.00916834
0.00837514
0.00746351
0.0064012
0.00514837
0.00365906
0.00190272
0.000221755
)
;
    }
    procBoundary3to2
    {
        type            processor;
        value           nonuniform List<scalar> 
43
(
0.00690855
0.00713666
0.00744679
0.00782003
0.00822609
0.00863103
0.00900493
0.00932691
0.00958681
0.00978385
0.00992397
0.0100168
0.0100731
0.0101031
0.0101154
0.0101167
0.0101117
0.0101033
0.0100929
0.0100808
0.0100664
0.0100486
0.010026
0.00999719
0.00996061
0.00991502
0.00985904
0.00979188
0.00971339
0.00962413
0.00952553
0.00942
0.00931104
0.00920333
0.00910257
0.00901526
0.00894804
0.00890652
0.00889372
0.00890808
0.00894179
0.00898036
0.0090046
)
;
    }
}


// ************************************************************************* //
