/*--------------------------------*- C++ -*----------------------------------*\
| =========                 |                                                 |
| \\      /  F ield         | OpenFOAM: The Open Source CFD Toolbox           |
|  \\    /   O peration     | Version:  5.0                                   |
|   \\  /    A nd           | Web:      www.OpenFOAM.org                      |
|    \\/     M anipulation  |                                                 |
\*---------------------------------------------------------------------------*/
FoamFile
{
    version     2.0;
    format      ascii;
    class       volScalarField;
    location    "1";
    object      p;
}
// * * * * * * * * * * * * * * * * * * * * * * * * * * * * * * * * * * * * * //

dimensions      [1 -1 -2 0 0 0 0];

internalField   nonuniform List<scalar> 
1935
(
-2.52449
-2.57711
-2.62922
-2.6816
-2.73512
-2.78972
-2.84539
-2.90231
-2.96083
-3.02129
-3.08382
-3.14837
-3.2147
-3.2825
-3.35145
-3.42133
-3.49198
-3.56337
-3.63554
-3.70858
-3.78259
-3.85765
-3.93384
-4.01119
-4.0897
-4.16938
-4.2502
-4.33215
-4.4152
-4.49933
-4.58451
-4.67072
-4.75795
-4.84617
-4.93538
-5.02556
-5.11671
-5.20882
-5.30189
-5.39591
-5.49087
-5.5867
-5.68381
-2.55884
-2.58987
-2.61981
-2.64916
-2.60519
-2.63056
-2.65475
-2.67767
-2.65175
-2.67261
-2.69234
-2.71061
-2.69975
-2.71663
-2.73244
-2.74681
-2.74962
-2.763
-2.77539
-2.78643
-2.80123
-2.8117
-2.82124
-2.82953
-2.85449
-2.86263
-2.86988
-2.87599
-2.90949
-2.91582
-2.9213
-2.92572
-2.9665
-2.97144
-2.97557
-2.97873
-3.02577
-3.02963
-3.03272
-3.0349
-3.08735
-3.09032
-3.09256
-3.09395
-3.15107
-3.15324
-3.15473
-3.15546
-3.21665
-3.21808
-3.2189
-3.21905
-3.28378
-3.28454
-3.28477
-3.28441
-3.35215
-3.35235
-3.35208
-3.35131
-3.42155
-3.4213
-3.42062
-3.4195
-3.49181
-3.49121
-3.49021
-3.48882
-3.56287
-3.56199
-3.56074
-3.55912
-3.63475
-3.63363
-3.63216
-3.63035
-3.70754
-3.7062
-3.70453
-3.70255
-3.78131
-3.77977
-3.77793
-3.77579
-3.85617
-3.85445
-3.85245
-3.85017
-3.93219
-3.93032
-3.92818
-3.9258
-4.0094
-4.00742
-4.00519
-4.00273
-4.08783
-4.08578
-4.0835
-4.081
-4.16747
-4.1654
-4.1631
-4.16061
-4.2483
-4.24624
-4.24398
-4.24154
-4.33029
-4.32829
-4.3261
-4.32375
-4.41341
-4.4115
-4.40941
-4.40718
-4.49763
-4.49583
-4.49388
-4.49179
-4.58293
-4.58126
-4.57945
-4.57752
-4.66927
-4.66773
-4.66609
-4.66434
-4.75662
-4.75524
-4.75375
-4.75219
-4.84498
-4.84373
-4.84242
-4.84104
-4.93431
-4.93321
-4.93206
-4.93087
-5.02461
-5.02365
-5.02266
-5.02165
-5.11588
-5.11505
-5.11421
-5.11337
-5.20811
-5.2074
-5.2067
-5.20602
-5.30129
-5.30071
-5.30013
-5.29959
-5.39543
-5.39496
-5.3945
-5.39408
-5.49049
-5.49013
-5.48977
-5.48946
-5.58642
-5.58615
-5.58589
-5.58564
-5.68368
-5.68356
-5.68343
-5.68331
-2.67688
-2.70004
-2.71517
-2.72232
-2.71993
-2.71296
-2.70005
-2.67648
-2.63914
-2.59118
-2.55009
-2.51349
-2.46439
-2.4083
-2.35641
-2.30985
-2.26597
-2.22329
-2.18203
-2.14274
-2.10455
-2.06438
-2.02223
-1.98017
-1.9416
-1.90589
-1.86998
-1.83514
-1.80274
-1.77209
-1.74461
-1.72061
-1.69733
-1.67575
-1.65746
-1.645
-1.63874
-1.64045
-1.65116
-1.66464
-2.69903
-2.7168
-2.72867
-2.73403
-2.73205
-2.72403
-2.70982
-2.68752
-2.65623
-2.62162
-2.58945
-2.55116
-2.50058
-2.45093
-2.40775
-2.36589
-2.32475
-2.2843
-2.24442
-2.20664
-2.17044
-2.13302
-2.09444
-2.05529
-2.01896
-1.98585
-1.95361
-1.92208
-1.8939
-1.86741
-1.84055
-1.81486
-1.79037
-1.7686
-1.75237
-1.74116
-1.7357
-1.73766
-1.748
-1.76093
-2.72729
-2.74067
-2.74922
-2.75243
-2.74976
-2.7415
-2.72762
-2.70741
-2.68159
-2.65602
-2.62807
-2.58782
-2.53993
-2.49758
-2.45994
-2.42206
-2.38425
-2.34673
-2.30924
-2.27376
-2.24117
-2.20866
-2.1736
-2.13785
-2.10369
-2.07285
-2.04455
-2.0157
-1.9877
-1.95999
-1.93269
-1.90595
-1.88275
-1.86347
-1.84842
-1.83803
-1.83303
-1.83495
-1.8446
-1.85665
-2.75972
-2.76973
-2.77565
-2.77713
-2.77378
-2.76561
-2.75256
-2.73436
-2.71271
-2.69248
-2.66703
-2.62822
-2.58376
-2.54697
-2.51362
-2.47958
-2.44537
-2.41137
-2.37751
-2.34458
-2.31551
-2.28788
-2.25766
-2.22568
-2.19409
-2.16385
-2.13514
-2.10674
-2.07777
-2.04918
-2.02274
-1.99882
-1.97759
-1.95952
-1.94526
-1.93541
-1.93059
-1.9322
-1.9409
-1.95177
-2.79614
-2.80337
-2.80716
-2.8072
-2.80324
-2.7952
-2.78297
-2.76644
-2.74772
-2.73113
-2.70813
-2.67211
-2.63183
-2.59923
-2.56961
-2.53916
-2.50841
-2.47781
-2.44754
-2.41809
-2.3906
-2.36482
-2.33881
-2.31118
-2.28129
-2.25039
-2.22096
-2.19306
-2.16616
-2.14028
-2.11579
-2.09334
-2.07334
-2.05622
-2.04261
-2.03302
-2.02817
-2.02923
-2.03674
-2.04617
-2.8366
-2.84154
-2.84356
-2.84242
-2.83793
-2.83
-2.81846
-2.80326
-2.78694
-2.77295
-2.75269
-2.71972
-2.68351
-2.65458
-2.62829
-2.60109
-2.57344
-2.54585
-2.51854
-2.49185
-2.46627
-2.44168
-2.41662
-2.39029
-2.36276
-2.33496
-2.30789
-2.28181
-2.25664
-2.23249
-2.20959
-2.1884
-2.16939
-2.15307
-2.13996
-2.13052
-2.12545
-2.12576
-2.13189
-2.13963
-2.88098
-2.88408
-2.88471
-2.88267
-2.87782
-2.87007
-2.85923
-2.84526
-2.83111
-2.81902
-2.8013
-2.77163
-2.73896
-2.71314
-2.68973
-2.66537
-2.64047
-2.61554
-2.59076
-2.56633
-2.54243
-2.51894
-2.49514
-2.47067
-2.44561
-2.42045
-2.39564
-2.37137
-2.34778
-2.32507
-2.30354
-2.28349
-2.26538
-2.2497
-2.23689
-2.22749
-2.22206
-2.22145
-2.22602
-2.23187
-2.92911
-2.93083
-2.93044
-2.9278
-2.92281
-2.91539
-2.90536
-2.89269
-2.88034
-2.87014
-2.85432
-2.82751
-2.79787
-2.77457
-2.75376
-2.73194
-2.70948
-2.68692
-2.66443
-2.64208
-2.61994
-2.59792
-2.57569
-2.55306
-2.53006
-2.50692
-2.48391
-2.46122
-2.43903
-2.41757
-2.39716
-2.37813
-2.3608
-2.34561
-2.33304
-2.32354
-2.3176
-2.31592
-2.31875
-2.32257
-2.9809
-2.98161
-2.98051
-2.97751
-2.97255
-2.96558
-2.95645
-2.94514
-2.93377
-2.92486
-2.91079
-2.88712
-2.86015
-2.83865
-2.82018
-2.80069
-2.78043
-2.75998
-2.73953
-2.7191
-2.6987
-2.67825
-2.65758
-2.63659
-2.61528
-2.59379
-2.57228
-2.55095
-2.52999
-2.50963
-2.49017
-2.47192
-2.45523
-2.44046
-2.42802
-2.4183
-2.41171
-2.40878
-2.40971
-2.41141
-3.03617
-3.03611
-3.03452
-3.03132
-3.02646
-3.01994
-3.01165
-3.00152
-2.99083
-2.98238
-2.97087
-2.95039
-2.92652
-2.90605
-2.88903
-2.87149
-2.85315
-2.83455
-2.81587
-2.79715
-2.77833
-2.75935
-2.7401
-2.72052
-2.70062
-2.68049
-2.66027
-2.64011
-2.62022
-2.60083
-2.58221
-2.56465
-2.54846
-2.53396
-2.52151
-2.51142
-2.50402
-2.4997
-2.49857
-2.49817
-3.09449
-3.09385
-3.09189
-3.08856
-3.08383
-3.07772
-3.07022
-3.06131
-3.05151
-3.04283
-3.0342
-3.01818
-2.99733
-2.97714
-2.96041
-2.94405
-2.92727
-2.91025
-2.8931
-2.87584
-2.8584
-2.8407
-2.82269
-2.80432
-2.7856
-2.76661
-2.74747
-2.72833
-2.70938
-2.69083
-2.67293
-2.65595
-2.64015
-2.62581
-2.61322
-2.60263
-2.59428
-2.58843
-2.58513
-2.58263
-3.1554
-3.1543
-3.15204
-3.14861
-3.144
-3.13824
-3.13136
-3.12343
-3.11474
-3.10608
-3.09758
-3.08582
-3.06821
-3.05003
-3.03362
-3.01799
-3.00235
-2.98659
-2.97073
-2.95472
-2.93845
-2.92186
-2.9049
-2.88755
-2.86983
-2.85181
-2.8336
-2.81534
-2.7972
-2.77939
-2.76212
-2.74562
-2.73012
-2.71584
-2.703
-2.6918
-2.68238
-2.67486
-2.66926
-2.66454
-3.21849
-3.21699
-3.2145
-3.211
-3.20648
-3.20099
-3.19455
-3.18724
-3.17922
-3.17079
-3.16189
-3.15101
-3.13689
-3.12173
-3.10694
-3.09244
-3.0779
-3.06323
-3.04843
-3.03344
-3.01815
-3.00248
-2.98642
-2.96994
-2.95308
-2.93591
-2.91851
-2.90104
-2.88363
-2.86647
-2.84974
-2.83364
-2.81834
-2.80403
-2.79085
-2.77894
-2.76834
-2.75899
-2.75083
-2.74405
-3.28342
-3.28161
-3.27893
-3.27537
-3.27094
-3.26566
-3.25956
-3.25269
-3.2451
-3.23689
-3.22795
-3.21771
-3.20576
-3.19295
-3.17989
-3.16673
-3.15337
-3.13978
-3.12591
-3.11176
-3.09727
-3.08238
-3.06709
-3.05139
-3.03529
-3.01887
-3.00221
-2.98544
-2.96868
-2.9521
-2.93584
-2.92005
-2.90488
-2.89045
-2.87685
-2.86415
-2.8523
-2.84103
-2.83026
-2.82117
-3.34996
-3.34789
-3.34507
-3.34147
-3.33712
-3.33203
-3.32621
-3.31969
-3.3125
-3.30463
-3.29604
-3.2865
-3.27593
-3.26465
-3.25292
-3.24088
-3.22854
-3.21588
-3.20285
-3.18945
-3.17567
-3.16147
-3.14687
-3.13187
-3.11648
-3.10075
-3.08476
-3.06863
-3.05247
-3.03639
-3.02052
-3.00498
-2.98987
-2.97525
-2.96117
-2.94761
-2.93445
-2.92121
-2.90778
-2.89632
-3.41787
-3.41559
-3.41265
-3.40904
-3.40475
-3.39981
-3.39422
-3.38801
-3.38117
-3.3737
-3.36556
-3.35669
-3.34706
-3.33682
-3.3261
-3.31498
-3.30348
-3.29158
-3.27926
-3.26652
-3.25337
-3.23981
-3.22586
-3.21152
-3.19678
-3.1817
-3.16635
-3.15081
-3.13517
-3.11954
-3.10401
-3.08866
-3.07354
-3.05867
-3.04406
-3.02962
-3.01511
-2.99987
-2.98376
-2.96991
-3.48695
-3.4845
-3.48146
-3.47782
-3.47359
-3.46877
-3.46337
-3.4574
-3.45086
-3.44375
-3.43605
-3.42772
-3.41879
-3.40933
-3.39942
-3.38907
-3.37827
-3.36704
-3.35537
-3.34324
-3.33069
-3.31772
-3.30434
-3.29059
-3.27648
-3.26201
-3.24724
-3.23224
-3.21708
-3.20185
-3.1866
-3.17138
-3.15621
-3.14106
-3.12588
-3.11053
-3.09467
-3.07743
-3.05865
-3.04247
-3.55705
-3.55445
-3.55133
-3.54767
-3.54346
-3.53873
-3.53348
-3.5277
-3.52141
-3.5146
-3.50727
-3.49941
-3.49102
-3.48215
-3.47287
-3.46316
-3.453
-3.44239
-3.43135
-3.41985
-3.40789
-3.3955
-3.38268
-3.36949
-3.35594
-3.34202
-3.32779
-3.31328
-3.29856
-3.28368
-3.26867
-3.25353
-3.23827
-3.22281
-3.20704
-3.19078
-3.17358
-3.15438
-3.13299
-3.11456
-3.62812
-3.62539
-3.62219
-3.61849
-3.6143
-3.60963
-3.60448
-3.59886
-3.59278
-3.58623
-3.57921
-3.57173
-3.5638
-3.55543
-3.54665
-3.53747
-3.52789
-3.51788
-3.50743
-3.49654
-3.48519
-3.4734
-3.46117
-3.44855
-3.43551
-3.4221
-3.40836
-3.39431
-3.37999
-3.36542
-3.35061
-3.33554
-3.32016
-3.30437
-3.28802
-3.27087
-3.25238
-3.23128
-3.20737
-3.1868
-3.70017
-3.69732
-3.69404
-3.6903
-3.68611
-3.68149
-3.67643
-3.67094
-3.66503
-3.65871
-3.65197
-3.64483
-3.63729
-3.62936
-3.62105
-3.61236
-3.60329
-3.59382
-3.58393
-3.57362
-3.56289
-3.5517
-3.54007
-3.52799
-3.51549
-3.50259
-3.48934
-3.47573
-3.46179
-3.44751
-3.43288
-3.41786
-3.40236
-3.38625
-3.36933
-3.35132
-3.3316
-3.30871
-3.28241
-3.25985
-3.77327
-3.77032
-3.76697
-3.7632
-3.75901
-3.75442
-3.74944
-3.74407
-3.73833
-3.73221
-3.72573
-3.7189
-3.71172
-3.70419
-3.69633
-3.68811
-3.67954
-3.6706
-3.66127
-3.65152
-3.64136
-3.63075
-3.61969
-3.60818
-3.59623
-3.58386
-3.57109
-3.55792
-3.54435
-3.53037
-3.51593
-3.50096
-3.48535
-3.46894
-3.45149
-3.4327
-3.41184
-3.38727
-3.35877
-3.33439
-3.84754
-3.84451
-3.8411
-3.8373
-3.83313
-3.82858
-3.82368
-3.81843
-3.81284
-3.80693
-3.8007
-3.79416
-3.78732
-3.78019
-3.77275
-3.76501
-3.75694
-3.74852
-3.73973
-3.73055
-3.72096
-3.71093
-3.70044
-3.6895
-3.6781
-3.66626
-3.65398
-3.64126
-3.62808
-3.61441
-3.60019
-3.58531
-3.56964
-3.55298
-3.53507
-3.51556
-3.49368
-3.46759
-3.43709
-3.4111
-3.92308
-3.91999
-3.91655
-3.91275
-3.90859
-3.90411
-3.89929
-3.89417
-3.88874
-3.88303
-3.87705
-3.8708
-3.8643
-3.85755
-3.85053
-3.84325
-3.83567
-3.82778
-3.81954
-3.81093
-3.80192
-3.79247
-3.78258
-3.77222
-3.76139
-3.7501
-3.73833
-3.7261
-3.71336
-3.70006
-3.68611
-3.67139
-3.65573
-3.6389
-3.62062
-3.60051
-3.57773
-3.55032
-3.51806
-3.49059
-3.99996
-3.99683
-3.99339
-3.98961
-3.98551
-3.9811
-3.97639
-3.9714
-3.96615
-3.96065
-3.95491
-3.94896
-3.94279
-3.93641
-3.92981
-3.92297
-3.91588
-3.90851
-3.90083
-3.8928
-3.88438
-3.87555
-3.86628
-3.85653
-3.84631
-3.83559
-3.8244
-3.81272
-3.8005
-3.78767
-3.7741
-3.75964
-3.74409
-3.72721
-3.70868
-3.6881
-3.66457
-3.63606
-3.60235
-3.5735
-4.07822
-4.0751
-4.07168
-4.06796
-4.06393
-4.05962
-4.05504
-4.05021
-4.04514
-4.03986
-4.03437
-4.0287
-4.02286
-4.01684
-4.01064
-4.00425
-3.99764
-3.99079
-3.98366
-3.97623
-3.96844
-3.96026
-3.95165
-3.94257
-3.93299
-3.92291
-3.91235
-3.90132
-3.88975
-3.87752
-3.86448
-3.85042
-3.83513
-3.81833
-3.7997
-3.77881
-3.75471
-3.72532
-3.69044
-3.66041
-4.15785
-4.15478
-4.15143
-4.14779
-4.14387
-4.13969
-4.13526
-4.1306
-4.12573
-4.12067
-4.11543
-4.11004
-4.10451
-4.09883
-4.09302
-4.08706
-4.08092
-4.0746
-4.06804
-4.06122
-4.05411
-4.04664
-4.03876
-4.03039
-4.02149
-4.01209
-4.00224
-3.99198
-3.98123
-3.96982
-3.95751
-3.94406
-3.92921
-3.91268
-3.89412
-3.87309
-3.84863
-3.81861
-3.78284
-3.75188
-4.23885
-4.23585
-4.2326
-4.22908
-4.22531
-4.22128
-4.21703
-4.21256
-4.20789
-4.20305
-4.19806
-4.19293
-4.18769
-4.18234
-4.17689
-4.17134
-4.16568
-4.15988
-4.15392
-4.14775
-4.14135
-4.13467
-4.1276
-4.12002
-4.11182
-4.10307
-4.09396
-4.08465
-4.075
-4.06469
-4.0534
-4.04082
-4.02664
-4.01058
-3.9923
-3.97136
-3.94676
-3.91638
-3.88005
-3.84837
-4.32115
-4.31827
-4.31516
-4.3118
-4.30819
-4.30435
-4.30028
-4.29602
-4.29157
-4.28695
-4.28218
-4.2773
-4.27231
-4.26726
-4.26215
-4.257
-4.25181
-4.24657
-4.24122
-4.23573
-4.23009
-4.22429
-4.21818
-4.21145
-4.2039
-4.19562
-4.18717
-4.17903
-4.17093
-4.16219
-4.15231
-4.14092
-4.1277
-4.11236
-4.09459
-4.07396
-4.04948
-4.01903
-3.98247
-3.95032
-4.40471
-4.40199
-4.39904
-4.39586
-4.39245
-4.38882
-4.38497
-4.38092
-4.37668
-4.37227
-4.36771
-4.36304
-4.35828
-4.35348
-4.3487
-4.34395
-4.33925
-4.33457
-4.32982
-4.32495
-4.32009
-4.31537
-4.31053
-4.30483
-4.29777
-4.28938
-4.28105
-4.2743
-4.26861
-4.2623
-4.25441
-4.24459
-4.23262
-4.21826
-4.20125
-4.18118
-4.15709
-4.12689
-4.09043
-4.05809
-4.48948
-4.48693
-4.48418
-4.48121
-4.47803
-4.47463
-4.47102
-4.4672
-4.46317
-4.45896
-4.45458
-4.45007
-4.44549
-4.44091
-4.43642
-4.43206
-4.42783
-4.42374
-4.41962
-4.4154
-4.41145
-4.40825
-4.40531
-4.40102
-4.39429
-4.38459
-4.37444
-4.36915
-4.36752
-4.36515
-4.36006
-4.35219
-4.34166
-4.32848
-4.31249
-4.29324
-4.26981
-4.24018
-4.2042
-4.17195
-4.5754
-4.57305
-4.57052
-4.56779
-4.56486
-4.56172
-4.55837
-4.55479
-4.55099
-4.54696
-4.54273
-4.53834
-4.53388
-4.52944
-4.52518
-4.52119
-4.51753
-4.51448
-4.51168
-4.50906
-4.50711
-4.50554
-4.50461
-4.5016
-4.49504
-4.48314
-4.47109
-4.46841
-4.47052
-4.47225
-4.47041
-4.46445
-4.45499
-4.44299
-4.4283
-4.41018
-4.3877
-4.35897
-4.32388
-4.29204
-4.66241
-4.66028
-4.658
-4.65554
-4.65289
-4.65005
-4.64699
-4.64369
-4.64012
-4.63628
-4.63218
-4.62785
-4.62337
-4.61892
-4.61497
-4.61186
-4.60969
-4.60941
-4.60996
-4.60985
-4.60993
-4.60987
-4.6094
-4.60575
-4.59866
-4.58786
-4.57913
-4.57565
-4.57769
-4.5834
-4.58539
-4.57973
-4.57082
-4.56069
-4.54809
-4.53169
-4.51054
-4.48309
-4.44933
-4.41828
-4.75047
-4.74858
-4.74657
-4.7444
-4.74208
-4.73958
-4.73686
-4.73388
-4.7306
-4.72698
-4.72301
-4.71866
-4.71406
-4.70976
-4.70704
-4.70712
-4.70846
-4.71068
-4.71427
-4.71671
-4.71719
-4.71751
-4.71645
-4.71184
-4.70241
-4.69751
-4.69631
-4.69746
-4.69551
-4.6996
-4.70534
-4.70285
-4.6943
-4.6832
-4.67175
-4.65738
-4.63785
-4.61195
-4.58001
-4.5502
-4.83954
-4.8379
-4.83618
-4.83435
-4.83239
-4.83028
-4.82797
-4.82539
-4.8225
-4.8192
-4.81539
-4.81103
-4.8067
-4.80405
-4.80507
-4.80822
-4.81225
-4.81456
-4.81702
-4.81926
-4.82145
-4.82366
-4.82538
-4.82263
-4.81524
-4.81675
-4.82733
-4.83709
-4.83231
-4.8285
-4.8356
-4.83848
-4.83003
-4.81515
-4.80127
-4.78706
-4.76867
-4.74437
-4.71467
-4.68664
-4.92958
-4.92821
-4.92679
-4.92532
-4.92377
-4.92212
-4.92031
-4.91827
-4.9159
-4.91306
-4.90954
-4.90543
-4.90241
-4.90401
-4.90779
-4.91077
-4.91241
-4.91349
-4.91504
-4.91823
-4.92335
-4.93004
-4.9369
-4.94179
-4.94474
-4.95134
-4.96256
-4.9754
-4.97844
-4.97634
-4.97751
-4.97953
-4.97132
-4.95413
-4.93591
-4.91945
-4.90109
-4.87813
-4.85102
-4.82532
-5.02058
-5.01947
-5.01837
-5.01728
-5.01618
-5.01505
-5.01384
-5.01247
-5.01082
-5.00867
-5.00568
-5.00255
-5.00276
-5.00643
-5.00903
-5.0086
-5.00832
-5.01015
-5.01392
-5.01933
-5.02658
-5.03579
-5.04684
-5.05945
-5.07142
-5.07934
-5.09192
-5.11232
-5.12997
-5.13274
-5.12404
-5.12099
-5.11083
-5.09
-5.06872
-5.05062
-5.03182
-5.00993
-4.98557
-4.96237
-5.11251
-5.11166
-5.11087
-5.11016
-5.10953
-5.10897
-5.10844
-5.10788
-5.10718
-5.1061
-5.10437
-5.10286
-5.10442
-5.10753
-5.10651
-5.10555
-5.10674
-5.10966
-5.11449
-5.12122
-5.13009
-5.14117
-5.1541
-5.16829
-5.1857
-5.20042
-5.22309
-5.24894
-5.26801
-5.26954
-5.25908
-5.25185
-5.24279
-5.22032
-5.19853
-5.17722
-5.1573
-5.13598
-5.11411
-5.09201
-5.20535
-5.20473
-5.20423
-5.20388
-5.2037
-5.2037
-5.20387
-5.20418
-5.20451
-5.20476
-5.20494
-5.20494
-5.2049
-5.20676
-5.20538
-5.20551
-5.20715
-5.21061
-5.21614
-5.224
-5.2343
-5.247
-5.26184
-5.27848
-5.29857
-5.32141
-5.34958
-5.36864
-5.3805
-5.38336
-5.37885
-5.37284
-5.36575
-5.34641
-5.32269
-5.2976
-5.27484
-5.25229
-5.23186
-5.20557
-5.29909
-5.29868
-5.29842
-5.29837
-5.29858
-5.29907
-5.29987
-5.30096
-5.30228
-5.30376
-5.30557
-5.30739
-5.30662
-5.30735
-5.30627
-5.30672
-5.30877
-5.3128
-5.31906
-5.32784
-5.33919
-5.35304
-5.36923
-5.38786
-5.41013
-5.43627
-5.46067
-5.4755
-5.48588
-5.49278
-5.49504
-5.49266
-5.48655
-5.46669
-5.43826
-5.40894
-5.38079
-5.35306
-5.32809
-5.29887
-5.39372
-5.39346
-5.39339
-5.39357
-5.39406
-5.39493
-5.39624
-5.39799
-5.40016
-5.40269
-5.40585
-5.40946
-5.41047
-5.40977
-5.40815
-5.40894
-5.41164
-5.41633
-5.42327
-5.43259
-5.44437
-5.45853
-5.47495
-5.49412
-5.51764
-5.54452
-5.56957
-5.5824
-5.59302
-5.60462
-5.61446
-5.61834
-5.61228
-5.58852
-5.54947
-5.51053
-5.47213
-5.434
-5.39788
-5.36588
-5.48919
-5.48903
-5.48906
-5.48934
-5.48997
-5.49106
-5.49272
-5.49504
-5.49801
-5.50167
-5.50661
-5.51327
-5.51595
-5.51384
-5.51138
-5.51252
-5.51586
-5.52096
-5.52788
-5.53682
-5.548
-5.56138
-5.57647
-5.59378
-5.61803
-5.65306
-5.68517
-5.69318
-5.69961
-5.71617
-5.74024
-5.76054
-5.75731
-5.71854
-5.65792
-5.60113
-5.55266
-5.50145
-5.44889
-5.41562
-5.58544
-5.58529
-5.58528
-5.58548
-5.58599
-5.58696
-5.58862
-5.59123
-5.59504
-5.6003
-5.60815
-5.621
-5.62973
-5.6225
-5.61707
-5.6176
-5.62056
-5.62505
-5.63103
-5.63857
-5.6481
-5.66012
-5.67416
-5.68886
-5.71042
-5.76069
-5.81146
-5.80283
-5.79435
-5.81654
-5.87351
-5.94196
-5.94837
-5.8554
-5.74119
-5.66799
-5.6135
-5.55128
-5.48581
-5.45601
-5.6832
-5.68311
-5.68308
-5.68315
-5.6834
-5.68396
-5.68506
-5.68709
-5.69057
-5.69598
-5.70518
-5.73222
-5.80392
-5.73481
-5.71986
-5.72181
-5.72629
-5.73192
-5.73834
-5.74521
-5.75278
-5.76217
-5.77532
-5.79241
-5.8114
-5.86784
-6.02158
-5.84939
-5.80537
-5.81983
-5.93577
-6.20234
-6.29991
-5.99271
-5.80453
-5.74688
-5.7178
-5.69182
-5.6603
-5.63771
)
;

boundaryField
{
    leftWall
    {
        type            calculated;
        value           nonuniform 0();
    }
    rightWall
    {
        type            calculated;
        value           nonuniform List<scalar> 
43
(
-1.66464
-1.76093
-1.85665
-1.95177
-2.04617
-2.13963
-2.23187
-2.32257
-2.41141
-2.49817
-2.58263
-2.66454
-2.74405
-2.82117
-2.89632
-2.96991
-3.04247
-3.11456
-3.1868
-3.25985
-3.33439
-3.4111
-3.49059
-3.5735
-3.66041
-3.75188
-3.84837
-3.95032
-4.05809
-4.17195
-4.29204
-4.41828
-4.5502
-4.68664
-4.82532
-4.96237
-5.09201
-5.20557
-5.29887
-5.36588
-5.41562
-5.45601
-5.63771
)
;
    }
    lowerWall
    {
        type            calculated;
        value           nonuniform 0();
    }
    atmosphere
    {
        type            calculated;
        value           nonuniform List<scalar> 
45
(
-5.73294
-5.73294
-5.73294
-5.73295
-5.73296
-5.73298
-5.73303
-5.73309
-5.73318
-5.73329
-5.73339
-5.73346
-5.73339
-5.73305
-5.73228
-5.73098
-5.72949
-6.06977
-5.73353
-5.74614
-5.76082
-5.77474
-5.78695
-5.79721
-5.80534
-5.81089
-5.81274
-5.80837
-5.7928
-5.75955
-5.7291
-6.53019
-5.79144
-5.7328
-5.75894
-6.01288
-6.92492
-7.38683
-6.07166
-5.72924
-5.72914
-5.72929
-5.73312
-5.73633
-5.7327
)
;
    }
    defaultFaces
    {
        type            empty;
    }
    procBoundary3to1
    {
        type            processor;
        value           nonuniform List<scalar> 
45
(
-2.47285
-2.51372
-2.55023
-2.58712
-2.62511
-2.66078
-2.68944
-2.70268
-2.70639
-2.69998
-2.6947
-2.68808
-2.66785
-2.62616
-2.56311
-2.50431
-2.46703
-2.42865
-2.37348
-2.31091
-2.25452
-2.20722
-2.16243
-2.12021
-2.07956
-2.03893
-1.99647
-1.95224
-1.90907
-1.86805
-1.82897
-1.79044
-1.75279
-1.71612
-1.68164
-1.6508
-1.62335
-1.59964
-1.57988
-1.56261
-1.54941
-1.54215
-1.54332
-1.55405
-1.56768
)
;
    }
    procBoundary3to2
    {
        type            processor;
        value           nonuniform List<scalar> 
43
(
-2.49002
-2.54816
-2.60553
-2.6627
-2.71989
-2.77745
-2.83556
-2.89449
-2.95465
-3.01639
-3.07994
-3.1453
-3.21231
-3.28071
-3.35021
-3.42056
-3.49165
-3.56342
-3.63595
-3.70931
-3.7836
-3.85891
-3.9353
-4.01279
-4.0914
-4.17112
-4.25195
-4.33387
-4.41686
-4.50091
-4.586
-4.67211
-4.75922
-4.84732
-4.93641
-5.02648
-5.11751
-5.20951
-5.30247
-5.39639
-5.49124
-5.58697
-5.68393
)
;
    }
}


// ************************************************************************* //
