/*--------------------------------*- C++ -*----------------------------------*\
| =========                 |                                                 |
| \\      /  F ield         | OpenFOAM: The Open Source CFD Toolbox           |
|  \\    /   O peration     | Version:  5.0                                   |
|   \\  /    A nd           | Web:      www.OpenFOAM.org                      |
|    \\/     M anipulation  |                                                 |
\*---------------------------------------------------------------------------*/
FoamFile
{
    version     2.0;
    format      ascii;
    class       volScalarField;
    location    "1";
    object      p_rgh;
}
// * * * * * * * * * * * * * * * * * * * * * * * * * * * * * * * * * * * * * //

dimensions      [1 -1 -2 0 0 0 0];

internalField   nonuniform List<scalar> 
1935
(
-0.180206
-0.167499
-0.153681
-0.139515
-0.125876
-0.112692
-0.0999447
-0.0878116
-0.0766418
-0.06676
-0.0583076
-0.0512074
-0.0452191
-0.0400273
-0.0353179
-0.030844
-0.0264564
-0.0221093
-0.0178403
-0.0137304
-0.00987487
-0.00635589
-0.00322756
-0.000519194
0.00176345
0.00363404
0.00511639
0.00623887
0.00703066
0.00752113
0.00774194
0.00772456
0.00749554
0.00707712
0.00649068
0.00575531
0.00488373
0.00388483
0.00277055
0.00155722
0.000276768
-0.00100861
-0.00270033
-0.214553
-0.245587
-0.275531
-0.304871
-0.195577
-0.220955
-0.245142
-0.268063
-0.176214
-0.197075
-0.216797
-0.235067
-0.15767
-0.174545
-0.190358
-0.204729
-0.140373
-0.153758
-0.166145
-0.177182
-0.124198
-0.134674
-0.144208
-0.152501
-0.10904
-0.117189
-0.124437
-0.130546
-0.0949896
-0.101325
-0.106801
-0.111228
-0.0823127
-0.087255
-0.0913864
-0.0945398
-0.0712481
-0.0751067
-0.078199
-0.0803779
-0.061836
-0.0647992
-0.0670396
-0.0684351
-0.0539071
-0.0560713
-0.057565
-0.0582952
-0.0471712
-0.0485981
-0.0494184
-0.0495686
-0.0413075
-0.0420713
-0.0422964
-0.0419452
-0.0360181
-0.0362194
-0.035943
-0.0351709
-0.0310634
-0.0308138
-0.0301341
-0.0290195
-0.0262842
-0.025683
-0.0246858
-0.0232952
-0.0216114
-0.02073
-0.0194773
-0.0178599
-0.0170581
-0.015938
-0.0144676
-0.0126555
-0.0126907
-0.0113546
-0.00968839
-0.0077024
-0.00859998
-0.00706386
-0.00521849
-0.00307544
-0.00487279
-0.00315643
-0.00115135
0.00112848
-0.00157226
0.000295385
0.00243212
0.004821
0.00126645
0.00324752
0.00547904
0.00794221
0.0036342
0.00568523
0.00796951
0.0104671
0.0055433
0.00761931
0.00991246
0.012402
0.00702073
0.00907874
0.0113376
0.0137774
0.00810054
0.0101021
0.0122883
0.0146416
0.00881913
0.0107326
0.0128148
0.0150504
0.00921381
0.0110158
0.0129691
0.0150611
0.00932242
0.0109958
0.0128019
0.0147304
0.00918134
0.0107147
0.0123612
0.0141128
0.00882297
0.0102109
0.0116917
0.0132585
0.00827523
0.00951765
0.0108318
0.0122107
0.00756173
0.00866188
0.0098123
0.0110046
0.00670143
0.00766375
0.00865634
0.00966797
0.00570815
0.00653832
0.00738127
0.00822176
0.00459258
0.00529764
0.00600094
0.00668339
0.00336595
0.00395302
0.00452785
0.00506855
0.00204155
0.00251614
0.00297375
0.00339143
0.000650526
0.00101793
0.001371
0.00168924
-0.00073608
-0.000465208
-0.000200633
4.29512e-05
-0.00257434
-0.00244787
-0.00232148
-0.00220111
-0.332598
-0.35576
-0.370886
-0.378034
-0.375649
-0.368673
-0.355765
-0.332194
-0.294852
-0.2469
-0.0635526
0.19824
0.15983
-0.0637681
-0.0121011
0.0345658
0.078336
0.121018
0.162298
0.206935
0.263724
0.331659
0.402274
0.394318
0.403096
0.438423
0.475458
0.526951
0.754009
0.932687
0.955875
0.975506
0.872911
0.668566
0.686822
0.69928
0.705548
0.703833
0.693123
0.679649
-0.289424
-0.307189
-0.319061
-0.324422
-0.322445
-0.314424
-0.300215
-0.277913
-0.246626
-0.212013
0.201088
0.237754
-0.0639699
-0.0412962
0.00187829
0.0437414
0.0848789
0.125328
0.165264
0.203774
0.383091
0.660748
0.701242
0.740441
0.558891
0.56716
0.817497
0.862569
0.889992
0.915646
0.91668
0.647104
0.61929
0.64103
0.657243
0.668449
0.673915
0.671945
0.661609
0.64868
-0.251746
-0.265129
-0.273682
-0.276894
-0.274222
-0.265958
-0.252078
-0.231866
-0.206049
-0.102382
0.257379
0.25284
-0.0527293
-0.0220188
0.015623
0.0535001
0.0913126
0.128847
0.166411
0.204842
0.474071
0.662967
0.697929
0.734357
0.767839
0.796148
0.823164
0.848936
0.69992
0.518025
0.543133
0.569878
0.593938
0.614818
0.628235
0.637513
0.642515
0.640595
0.630944
0.618896
-0.217636
-0.227651
-0.233566
-0.235045
-0.231701
-0.223527
-0.210472
-0.192271
-0.170628
-0.0380439
0.30184
0.169135
-0.040153
-0.00486292
0.028488
0.0625372
0.0968734
0.130892
0.164686
0.197511
0.228245
0.482342
0.68909
0.721347
0.552148
0.37823
0.406945
0.43535
0.464319
0.492913
0.519437
0.546856
0.574943
0.593088
0.605452
0.606679
0.61149
0.609888
0.60119
0.590321
-0.186891
-0.194123
-0.197913
-0.197955
-0.193997
-0.185959
-0.173722
-0.157199
-0.138478
-0.018105
0.343986
0.182873
-0.0221793
0.0100512
0.0396593
0.0701349
0.101027
0.131628
0.161822
0.191154
0.218647
0.244422
0.270435
0.298064
0.327952
0.358857
0.388282
0.416192
0.443094
0.469458
0.501108
0.526774
0.546788
0.563893
0.57708
0.576555
0.581073
0.580017
0.572504
0.563081
-0.159574
-0.164507
-0.166532
-0.165393
-0.160902
-0.152966
-0.141425
-0.126227
-0.109906
0.072951
0.381129
0.196069
-0.00609046
0.0228135
0.0490081
0.0760003
0.103703
0.131372
0.158665
0.185214
0.210757
0.235347
0.260407
0.286742
0.314268
0.342069
0.369138
0.395221
0.420406
0.447537
0.478576
0.499787
0.518791
0.535047
0.539607
0.546516
0.551584
0.551269
0.545139
0.537401
-0.135531
-0.138638
-0.139268
-0.137227
-0.132376
-0.124623
-0.113783
-0.0998106
-0.0856609
0.179219
0.413099
0.205984
0.00759876
0.0336199
0.0603512
0.0807865
0.104998
0.130001
0.154857
0.179155
0.203013
0.226508
0.250302
0.274776
0.299832
0.324997
0.349811
0.374078
0.397671
0.420404
0.447131
0.473327
0.49144
0.50124
0.508561
0.517961
0.523391
0.523995
0.519426
0.513575
-0.11461
-0.116333
-0.115944
-0.113301
-0.10831
-0.100893
-0.0908631
-0.0781905
-0.0658418
0.237277
0.440917
0.233385
0.0180389
0.0412968
0.0665681
0.0876089
0.105031
0.12759
0.150089
0.172431
0.194554
0.216579
0.238807
0.261439
0.284435
0.307572
0.330582
0.353274
0.375469
0.396927
0.417334
0.436368
0.455478
0.469139
0.481461
0.490953
0.496893
0.498581
0.495744
0.49193
-0.0967179
-0.0974225
-0.0963256
-0.0933279
-0.0883669
-0.0813916
-0.0722671
-0.0609523
-0.0495825
0.129165
0.466041
0.358712
0.0330335
0.0468609
0.0692339
0.0897752
0.107549
0.124228
0.144676
0.165099
0.185493
0.205944
0.22661
0.247603
0.268909
0.290404
0.311907
0.333238
0.3542
0.374554
0.394015
0.412264
0.428955
0.443724
0.456164
0.465884
0.472483
0.475411
0.474474
0.472775
-0.08164
-0.081589
-0.0799959
-0.0767923
-0.0719398
-0.0654108
-0.0571226
-0.046999
-0.036307
0.0838986
0.484495
0.490458
0.0752204
0.0494994
0.0665175
0.0878588
0.106844
0.121309
0.138669
0.157414
0.176242
0.195208
0.214428
0.234006
0.253904
0.274035
0.294262
0.314417
0.334304
0.353691
0.372313
0.389877
0.40607
0.420561
0.433015
0.443106
0.45051
0.454828
0.455953
0.456354
-0.0689727
-0.0683376
-0.0663759
-0.0630417
-0.0583183
-0.0522069
-0.0447043
-0.0357958
-0.025989
-0.0173123
0.210294
0.465101
0.126709
0.0501149
0.0674027
0.0839278
0.100688
0.116338
0.13248
0.149721
0.167167
0.184835
0.202831
0.221202
0.239919
0.258908
0.278051
0.297191
0.316143
0.334688
0.352584
0.369569
0.385368
0.399703
0.412295
0.422888
0.431237
0.437085
0.440392
0.442893
-0.058235
-0.0571284
-0.0548748
-0.0514442
-0.0468365
-0.0410718
-0.0341911
-0.0262661
-0.0175712
-0.00891148
0.00138352
0.0552046
0.0968789
0.0788621
0.0793857
0.088058
0.0974
0.110603
0.126454
0.142466
0.158729
0.175316
0.192276
0.209626
0.227346
0.245366
0.263577
0.281835
0.299967
0.317775
0.335043
0.351544
0.367047
0.381327
0.394175
0.405377
0.41479
0.422304
0.427908
0.432627
-0.0490036
-0.0475083
-0.0450187
-0.0415131
-0.0370002
-0.031503
-0.0250667
-0.0177602
-0.00974044
-0.00130466
0.00759504
0.0184947
0.038957
0.0571019
0.0713473
0.0867961
0.101339
0.113923
0.121599
0.136048
0.151336
0.167003
0.18307
0.199545
0.216406
0.233583
0.250975
0.268452
0.285857
0.303016
0.319743
0.335847
0.351142
0.365464
0.378691
0.390602
0.401153
0.410494
0.418654
0.425439
-0.0409542
-0.0391397
-0.0364628
-0.0329045
-0.0284751
-0.0231939
-0.017095
-0.0102211
-0.00263469
0.00558044
0.0145187
0.0247654
0.0367124
0.0496348
0.0628679
0.0814939
0.0990808
0.112672
0.121885
0.130732
0.145208
0.16009
0.175383
0.191089
0.207185
0.223607
0.240263
0.257035
0.273788
0.290373
0.306634
0.322421
0.337591
0.352044
0.3657
0.378405
0.390207
0.401442
0.412213
0.421298
-0.0338263
-0.0317534
-0.0289311
-0.025339
-0.0209873
-0.0158908
-0.0100719
-0.0035547
0.0036395
0.0115004
0.0200943
0.0296305
0.0402005
0.0515201
0.0661647
0.0799837
0.0904118
0.102594
0.114031
0.12669
0.140474
0.154666
0.169266
0.18427
0.199664
0.215394
0.231375
0.247506
0.26367
0.279747
0.295613
0.311153
0.326268
0.340916
0.355052
0.368605
0.381745
0.394927
0.408356
0.419821
-0.027386
-0.0251047
-0.0221676
-0.0185519
-0.0142677
-0.00932594
-0.00374014
0.00247626
0.00931595
0.0167844
0.0249192
0.0337956
0.0434241
0.0543737
0.0729337
0.0846212
0.096238
0.108174
0.115983
0.124001
0.13712
0.150677
0.164627
0.178971
0.193704
0.208783
0.224139
0.239681
0.255315
0.270943
0.286474
0.301828
0.316948
0.331837
0.346512
0.360952
0.375451
0.390621
0.406729
0.420573
-0.0214265
-0.0189739
-0.0159403
-0.0123018
-0.00806831
-0.00324762
0.00215216
0.00812295
0.0146618
0.0217739
0.0294774
0.0377987
0.0467307
0.0561963
0.0726589
0.0858663
0.096685
0.107947
0.119589
0.131664
0.144201
0.155507
0.162863
0.174968
0.189069
0.20352
0.218286
0.233286
0.248439
0.263672
0.278921
0.294142
0.309316
0.324495
0.339736
0.355085
0.370939
0.388104
0.406878
0.423053
-0.0157959
-0.0131971
-0.0100763
-0.0064095
-0.00220675
0.00252574
0.00778242
0.0135575
0.0198481
0.0266564
0.033989
0.0418524
0.0502371
0.0591063
0.0685179
0.0793173
0.0975612
0.108513
0.119526
0.130999
0.142951
0.155333
0.168142
0.178643
0.185556
0.199243
0.213474
0.227979
0.242698
0.257581
0.272594
0.287724
0.302989
0.318491
0.334311
0.350571
0.367759
0.386888
0.408273
0.426699
-0.0104232
-0.00769453
-0.00449128
-0.000789451
0.00340012
0.00807089
0.013218
0.0188362
0.0249212
0.0314714
0.0384868
0.0459658
0.0538991
0.062267
0.0710459
0.0802294
0.0908181
0.102497
0.111893
0.126486
0.142296
0.15407
0.166271
0.172089
0.18222
0.195599
0.209339
0.223385
0.237706
0.252275
0.267085
0.282154
0.297534
0.313363
0.329771
0.346924
0.365395
0.386425
0.410332
0.430896
-0.00532055
-0.00247463
0.000806549
0.00454679
0.00873357
0.0133593
0.0184188
0.0239056
0.0298138
0.0361381
0.0428742
0.0500169
0.0575586
0.0654891
0.0737993
0.0824887
0.0915597
0.101028
0.110918
0.121327
0.132934
0.144969
0.156348
0.167625
0.179392
0.192253
0.205511
0.219118
0.233061
0.247337
0.261963
0.276985
0.292485
0.308613
0.32561
0.34362
0.363307
0.386141
0.412436
0.434995
-0.000560913
0.00238859
0.00573926
0.00951432
0.0136996
0.0182864
0.023268
0.0286362
0.0343826
0.040499
0.0469776
0.0538111
0.0609932
0.0685186
0.0763851
0.0845974
0.0931656
0.102107
0.111443
0.121187
0.131354
0.14196
0.153019
0.164532
0.176481
0.188848
0.201621
0.214792
0.228361
0.242346
0.256786
0.271753
0.287358
0.303772
0.321277
0.340111
0.360921
0.385438
0.413945
0.438319
0.00375558
0.00679064
0.0101959
0.0139941
0.0181702
0.0227139
0.0276162
0.0328672
0.0384558
0.0443706
0.050601
0.0571382
0.0639761
0.0711119
0.0785481
0.0862935
0.0943632
0.102779
0.111565
0.120744
0.13034
0.140373
0.150857
0.1618
0.173195
0.185036
0.197317
0.210038
0.223216
0.236885
0.25111
0.265988
0.281659
0.29832
0.316255
0.33581
0.357656
0.383707
0.41421
0.440197
0.00753473
0.010631
0.0140687
0.0178707
0.0220215
0.0265086
0.0313215
0.0364479
0.0418741
0.0475858
0.0535697
0.0598153
0.0663163
0.0730712
0.0800853
0.0873707
0.0949467
0.102839
0.111075
0.119686
0.128701
0.138144
0.148039
0.158398
0.169227
0.180522
0.192284
0.204519
0.217257
0.230556
0.244504
0.259225
0.274887
0.291716
0.310003
0.330131
0.35291
0.380302
0.412559
0.440032
0.0107101
0.0138366
0.0172783
0.0210582
0.02516
0.0295703
0.0342769
0.0392654
0.0445194
0.0500218
0.0557571
0.0617131
0.0678825
0.0742643
0.0808648
0.0876984
0.0947865
0.102157
0.109842
0.117875
0.12629
0.13512
0.144395
0.15414
0.164367
0.175078
0.18627
0.197953
0.21017
0.223003
0.236571
0.251032
0.26658
0.283464
0.301992
0.322574
0.346104
0.374609
0.408325
0.437173
0.0132513
0.016372
0.0197845
0.0235111
0.0275359
0.0318446
0.036424
0.0412577
0.046327
0.0516126
0.0570971
0.0627664
0.0686118
0.0746311
0.0808299
0.0872223
0.0938296
0.10068
0.107806
0.115244
0.123031
0.131207
0.139817
0.148902
0.158484
0.168562
0.179117
0.190151
0.201723
0.213949
0.226991
0.241044
0.256335
0.273133
0.291764
0.312661
0.336758
0.366143
0.401032
0.431055
0.0151619
0.0182388
0.0215864
0.0252263
0.0291433
0.0333235
0.0377527
0.0424134
0.0472855
0.0523485
0.0575831
0.0629734
0.0685078
0.0741809
0.0799946
0.0859594
0.0920931
0.0984206
0.104974
0.111791
0.118909
0.126376
0.134257
0.142625
0.151521
0.160929
0.17078
0.181036
0.191783
0.203197
0.215505
0.228953
0.243803
0.260339
0.278896
0.299925
0.324388
0.354406
0.390171
0.42114
0.0164736
0.019469
0.0227158
0.0262349
0.0300132
0.0340372
0.0382931
0.0427635
0.0474286
0.0522673
0.0572593
0.0623857
0.0676301
0.0729802
0.0784296
0.0839807
0.0896442
0.0954399
0.101401
0.107565
0.113965
0.120649
0.127715
0.135305
0.143499
0.152254
0.161364
0.170672
0.180324
0.190631
0.201918
0.214499
0.228675
0.244737
0.263015
0.283964
0.308562
0.338941
0.37527
0.40695
0.0172378
0.0201159
0.0232272
0.0265927
0.0302018
0.0340428
0.0381037
0.0423695
0.046822
0.0514411
0.0562052
0.0610916
0.0660757
0.0711324
0.07624
0.0813865
0.0865741
0.0918187
0.0971655
0.102658
0.108298
0.114095
0.120207
0.126939
0.134487
0.142768
0.151221
0.159357
0.167463
0.176201
0.186079
0.197466
0.210689
0.226032
0.243799
0.264432
0.288911
0.319358
0.355924
0.388069
0.0175146
0.0202431
0.0231876
0.026369
0.0297799
0.0334124
0.0372586
0.0413077
0.0455459
0.0499557
0.0545146
0.0591934
0.0639536
0.0687492
0.0735337
0.0782778
0.0829823
0.0876613
0.0924072
0.0972736
0.102137
0.106855
0.111699
0.117401
0.124463
0.132845
0.141176
0.147925
0.153615
0.159924
0.167821
0.177634
0.189607
0.203968
0.220976
0.241045
0.265136
0.29534
0.331796
0.364142
0.0173663
0.0199174
0.0226669
0.0256357
0.0288207
0.0322195
0.0358308
0.0396515
0.0436748
0.0478884
0.0522693
0.056779
0.061359
0.0659336
0.0704237
0.0747828
0.0790177
0.0831113
0.0872332
0.0914597
0.0954315
0.0986498
0.103022
0.106485
0.113601
0.125565
0.132404
0.139196
0.143078
0.142482
0.146779
0.154653
0.165189
0.178367
0.194362
0.213605
0.237033
0.266669
0.302643
0.334903
0.0168551
0.0192048
0.0217334
0.0244615
0.027392
0.0305297
0.0338825
0.0374584
0.041262
0.0452894
0.0495198
0.0539066
0.0583731
0.0628111
0.0670723
0.0710635
0.0747271
0.0777959
0.0806561
0.124185
0.318405
0.361962
0.189911
0.0915587
0.0982847
0.49665
1.05474
0.44169
0.124298
0.12054
0.121906
0.127813
0.137259
0.149261
0.163955
0.182072
0.204549
0.23328
0.268369
0.300217
0.0160407
0.0181687
0.0204518
0.0229111
0.0255553
0.0283984
0.03146
0.0347631
0.0383286
0.0421671
0.0462683
0.0505951
0.0550753
0.0595295
0.0634873
0.066626
0.0902066
0.132209
0.3119
0.658354
0.645853
0.642759
0.346929
0.0777263
0.0821164
1.33313
1.72713
0.443127
0.110537
0.100163
0.122815
0.0988374
0.107646
0.117758
0.130362
0.146759
0.167905
0.195364
0.229118
0.260174
0.0149777
0.0168665
0.0188811
0.021042
0.0233633
0.0258683
0.0285903
0.0315703
0.0348501
0.0384646
0.0424395
0.0467854
0.0513831
0.0557121
0.0811405
0.127538
0.56608
0.693763
0.674246
0.663532
0.634859
0.390149
0.081809
0.0778539
0.0694064
1.57175
2.81125
2.39759
0.269338
0.0783645
0.376964
0.884271
0.417725
0.0822845
0.09367
0.10806
0.127601
0.153495
0.185441
0.21525
0.0137137
0.0153494
0.0170742
0.0189059
0.020862
0.0229731
0.0252854
0.0278576
0.0307556
0.0340547
0.0378609
0.0422262
0.0465609
0.0758965
0.63624
0.75823
0.741635
0.705232
0.324912
0.0366746
0.0328015
0.0300895
0.0281086
0.114775
2.15307
2.8463
2.82581
2.81666
1.8121
0.115471
0.765622
0.898708
0.926472
0.287632
0.0531085
0.066233
0.0845838
0.10888
0.138584
0.166611
0.0122888
0.0136621
0.0150798
0.0165532
0.0180992
0.0197512
0.0215629
0.0236068
0.0259752
0.028811
0.0323322
0.0364452
0.0987134
0.854775
0.848539
0.767829
0.182597
0.0301484
0.028113
0.0248707
0.0196809
0.012606
0.00511393
1.11807
3.00246
2.84155
2.83098
2.81789
2.85408
0.965523
0.0775348
0.882092
0.890296
0.717997
0.0453567
0.0226239
0.0407802
0.0637439
0.0908577
0.116555
0.0107359
0.0118446
0.0129457
0.01404
0.0151371
0.0162653
0.0174764
0.0188467
0.0204928
0.0226462
0.0256329
0.0287603
0.926164
0.915669
0.52999
0.0285552
0.0272934
0.0234439
0.0194092
0.0157434
0.00896165
-0.00222895
-0.015492
-0.0281177
1.58516
2.85393
2.84217
2.86196
2.83369
0.441712
-0.0753741
0.691415
0.856885
0.580771
0.0118807
-0.0191135
-0.000504675
0.0213904
0.0457528
0.0689505
0.00908223
0.00993406
0.0107227
0.0114342
0.0120636
0.0126231
0.0131488
0.0137049
0.0144068
0.0154889
0.0172169
0.602835
0.967965
0.510737
0.0263851
0.0410422
0.0540431
0.0505128
0.0129219
0.00342895
-0.00487358
-0.0188468
-0.0324954
-0.0466907
0.409933
2.74129
2.42067
0.933232
0.372937
-0.0245866
-0.133044
-0.0469072
0.603093
1.57692
0.0864926
-0.0554382
-0.0357028
-0.0143912
0.00747984
0.0295807
0.00735233
0.00796753
0.00846729
0.00882045
0.00900221
0.00900119
0.00882751
0.00852473
0.00818792
0.00794566
0.00776166
0.789135
0.975515
0.0846576
0.0176361
0.0542631
0.0527597
0.049307
0.00151709
-0.0112667
-0.0215255
-0.0341335
-0.0490698
-0.0657745
0.083129
1.86263
0.69215
-0.115223
-0.160404
-0.167281
-0.163786
-0.156073
0.317227
1.60125
0.0986143
-0.0726574
-0.0621349
-0.0395824
-0.019152
0.00713569
0.00556889
0.00598064
0.00623539
0.00628454
0.00608213
0.00559056
0.00478984
0.00369567
0.00237635
0.00089546
-0.000912796
0.449752
0.98282
0.0326543
0.00685381
0.036056
0.0345067
-0.00241135
-0.0143706
-0.0231589
-0.0343944
-0.0481888
-0.0644468
-0.083197
-0.105467
0.813923
0.324503
-0.162452
-0.177602
-0.185821
-0.188289
-0.185593
0.00730251
1.61035
0.302376
-0.0893494
-0.0761181
-0.0483854
-0.023416
0.00579494
0.0037531
0.00400638
0.00407778
0.0039025
0.00341222
0.00254033
0.00123356
-0.000523507
-0.00268398
-0.00521571
-0.00837955
0.369833
0.814836
0.00615339
-0.0106837
-0.011465
-0.0141688
-0.0188585
-0.0257513
-0.0351006
-0.0467132
-0.0608687
-0.0774515
-0.0966519
-0.120165
0.746573
0.377658
-0.164404
-0.193219
-0.205017
-0.214859
-0.218745
-0.0186532
1.61234
1.42516
-0.113036
-0.0746504
-0.0365179
-0.000396253
0.0315965
0.00195417
0.00211203
0.00208913
0.00180851
0.00117679
8.56958e-05
-0.0015775
-0.00389452
-0.0068666
-0.0105259
-0.0154698
0.297712
0.805324
0.012154
-0.0202373
-0.0213774
-0.0247193
-0.0298138
-0.0367136
-0.0456673
-0.0567976
-0.0702337
-0.0853293
-0.102639
-0.126884
0.644329
0.481342
-0.142405
-0.206218
-0.222828
-0.246934
-0.26708
0.44976
1.6073
1.377
-0.10998
-0.061507
-0.0103002
0.0422574
0.0755253
0.000252666
0.000393784
0.000404212
0.000209108
-0.000298079
-0.00127151
-0.00292922
-0.0055414
-0.00935148
-0.0146129
-0.0224623
0.00844031
0.693112
0.00938633
-0.0313832
-0.0319088
-0.0348742
-0.0393662
-0.0453397
-0.0528856
-0.0624081
-0.0744271
-0.0884705
-0.103174
-0.124733
0.394932
0.559998
-0.0134983
-0.206371
-0.228564
-0.285584
-0.157707
1.31353
1.58867
0.144433
-0.0822811
-0.027802
0.0344174
0.10108
0.145303
-0.00209172
-0.00200503
-0.00197435
-0.00204548
-0.00229492
-0.00285463
-0.00395468
-0.00598201
-0.00946209
-0.0148705
-0.0240673
-0.0511071
0.215069
-0.0249692
-0.0387555
-0.0407035
-0.0451795
-0.0508119
-0.0572305
-0.064103
-0.0716683
-0.0810652
-0.0942157
-0.111305
-0.130287
-0.186729
0.453977
-0.106402
-0.120538
-0.10907
0.0268044
0.664645
1.02512
0.0281553
-0.123225
-0.0656667
-0.0364395
-0.00666724
0.0280385
0.0505165
)
;

boundaryField
{
    leftWall
    {
        type            fixedFluxPressure;
        gradient        nonuniform 0();
        value           nonuniform 0();
    }
    rightWall
    {
        type            fixedFluxPressure;
        gradient        uniform 0;
        value           nonuniform List<scalar> 
43
(
0.679649
0.64868
0.618896
0.590321
0.563081
0.537401
0.513575
0.49193
0.472775
0.456354
0.442893
0.432627
0.425439
0.421298
0.419821
0.420573
0.423053
0.426699
0.430896
0.434995
0.438319
0.440197
0.440032
0.437173
0.431055
0.42114
0.40695
0.388069
0.364142
0.334903
0.300217
0.260174
0.21525
0.166611
0.116555
0.0689505
0.0295807
0.00713569
0.00579494
0.0315965
0.0755253
0.145303
0.0505165
)
;
    }
    lowerWall
    {
        type            fixedFluxPressure;
        gradient        nonuniform 0();
        value           nonuniform 0();
    }
    atmosphere
    {
        type            totalPressure;
        rho             rho;
        psi             none;
        gamma           1;
        p0              uniform 0;
        value           nonuniform List<scalar> 
45
(
-0.00389884
-0.00389688
-0.00389863
-0.00390517
-0.00391833
-0.00394254
-0.00398615
-0.00405196
-0.00414085
-0.00424761
-0.00435381
-0.00441584
-0.00434876
-0.00401465
-0.00324269
-0.00194214
-0.000453088
0
-0.00448873
-0.0170978
-0.031785
-0.0457023
-0.0579147
-0.0681698
-0.076298
-0.0818542
-0.0837038
-0.0793335
-0.0637631
-0.030511
-6.38531e-05
0
0
0
0
0
0
0
0
0
0
0
0
0
-0.00366189
)
;
    }
    defaultFaces
    {
        type            empty;
    }
    procBoundary3to1
    {
        type            processor;
        value           nonuniform List<scalar> 
45
(
-0.193282
-0.234157
-0.270668
-0.307563
-0.345548
-0.381218
-0.409886
-0.423125
-0.426833
-0.420426
-0.415144
-0.408517
-0.388287
-0.346605
-0.283548
-0.224713
0.143583
0.177851
0.15495
-0.0263093
0.0251631
0.0724328
0.12007
0.159512
0.200937
0.24096
0.283396
0.327546
0.370548
0.411516
0.450594
0.489117
0.526769
0.563462
0.600159
0.746623
0.987158
1.00292
1.00119
0.725618
0.730148
0.737409
0.736238
0.725514
0.711878
)
;
    }
    procBoundary3to2
    {
        type            processor;
        value           nonuniform List<scalar> 
43
(
-0.145736
-0.138553
-0.129993
-0.120621
-0.110642
-0.100415
-0.0901092
-0.0799977
-0.0704645
-0.0618697
-0.0544222
-0.0481315
-0.0428311
-0.0382441
-0.0340749
-0.0300814
-0.026123
-0.022165
-0.0182498
-0.0144625
-0.0108928
-0.00761559
-0.0046837
-0.00212225
6.56938e-05
0.00189016
0.0033673
0.0045174
0.00536495
0.00593546
0.00625354
0.00634335
0.00622759
0.00592705
0.00545988
0.00483963
0.00407751
0.00318733
0.00218442
0.00108197
-9.22893e-05
-0.00127829
-0.00282348
)
;
    }
}


// ************************************************************************* //
