/*--------------------------------*- C++ -*----------------------------------*\
| =========                 |                                                 |
| \\      /  F ield         | OpenFOAM: The Open Source CFD Toolbox           |
|  \\    /   O peration     | Version:  5.0                                   |
|   \\  /    A nd           | Web:      www.OpenFOAM.org                      |
|    \\/     M anipulation  |                                                 |
\*---------------------------------------------------------------------------*/
FoamFile
{
    version     2.0;
    format      ascii;
    class       surfaceScalarField;
    location    "1";
    object      phi;
}
// * * * * * * * * * * * * * * * * * * * * * * * * * * * * * * * * * * * * * //

dimensions      [0 3 -1 0 0 0 0];

internalField   nonuniform List<scalar> 
3782
(
1.15112e-05
2.89863e-05
1.15529e-05
3.17058e-05
1.16405e-05
3.36161e-05
1.17026e-05
3.48032e-05
1.17153e-05
3.53794e-05
1.16706e-05
3.54687e-05
1.15697e-05
3.51831e-05
1.14162e-05
3.46164e-05
1.12128e-05
3.3844e-05
1.09602e-05
3.29266e-05
1.06569e-05
3.19132e-05
1.03002e-05
3.08427e-05
9.88661e-06
2.97459e-05
9.41275e-06
2.86455e-05
8.8759e-06
2.7557e-05
8.2744e-06
2.64895e-05
7.60812e-06
2.5446e-05
6.87869e-06
2.44248e-05
6.08951e-06
2.34196e-05
5.24595e-06
2.24215e-05
4.35518e-06
2.14198e-05
3.42605e-06
2.04027e-05
2.46901e-06
1.93591e-05
1.49575e-06
1.82794e-05
5.18929e-07
1.71562e-05
-4.48123e-07
1.59854e-05
-1.39191e-06
1.47669e-05
-2.29921e-06
1.35049e-05
-3.15756e-06
1.22082e-05
-3.95583e-06
1.08908e-05
-4.68483e-06
9.57157e-06
-5.33789e-06
8.27343e-06
-5.91146e-06
7.02196e-06
-6.40543e-06
5.84337e-06
-6.823e-06
4.76185e-06
-7.17005e-06
3.79653e-06
-7.45419e-06
2.95839e-06
-7.68337e-06
2.24837e-06
-7.86429e-06
1.65727e-06
-8.0014e-06
1.16815e-06
-8.09691e-06
7.6078e-07
-8.15201e-06
4.16895e-07
1.26122e-07
2.89553e-05
8.49821e-06
2.89598e-05
6.0447e-06
2.89205e-05
3.44079e-06
7.6915e-07
2.87228e-05
3.1455e-05
8.74905e-06
3.10452e-05
6.45443e-06
3.04552e-05
4.03083e-06
1.5654e-06
2.96589e-05
3.32685e-05
9.0966e-06
3.26676e-05
7.05539e-06
3.18135e-05
4.88491e-06
2.66028e-06
3.07186e-05
3.44501e-05
9.44973e-06
3.38063e-05
7.6992e-06
3.28771e-05
5.81414e-06
3.85271e-06
3.16846e-05
3.50726e-05
9.75647e-06
3.44691e-05
8.30271e-06
3.35721e-05
6.71117e-06
5.02381e-06
3.2401e-05
3.52302e-05
9.99497e-06
3.47054e-05
8.82754e-06
3.38929e-05
7.52357e-06
6.11147e-06
3.28053e-05
3.50185e-05
1.01595e-05
3.4586e-05
9.2601e-06
3.38799e-05
8.22967e-06
7.08609e-06
3.29053e-05
3.45247e-05
1.02512e-05
3.41869e-05
9.59797e-06
3.35941e-05
8.82244e-06
7.93444e-06
3.27457e-05
3.38232e-05
1.0272e-05
3.35792e-05
9.84197e-06
3.31016e-05
9.30005e-06
8.65019e-06
3.23858e-05
3.29757e-05
1.02229e-05
3.28251e-05
9.99261e-06
3.24637e-05
9.66146e-06
9.22917e-06
3.18847e-05
3.20329e-05
1.01031e-05
3.19764e-05
1.00491e-05
3.17328e-05
9.90511e-06
9.66776e-06
3.12942e-05
3.10353e-05
9.9106e-06
3.10747e-05
1.00097e-05
3.09508e-05
1.0029e-05
9.96285e-06
3.06558e-05
3.00138e-05
9.64277e-06
3.01513e-05
9.87224e-06
3.01491e-05
1.00311e-05
1.01123e-05
2.99997e-05
2.89911e-05
9.29712e-06
2.92284e-05
9.63499e-06
2.9349e-05
9.91051e-06
1.01153e-05
2.9346e-05
2.79822e-05
8.87195e-06
2.83199e-05
9.29726e-06
2.8563e-05
9.66739e-06
9.9732e-06
2.87052e-05
2.69946e-05
8.3668e-06
2.74321e-05
8.85981e-06
2.77957e-05
9.30382e-06
9.68917e-06
2.80797e-05
2.60301e-05
7.78277e-06
2.65647e-05
8.32518e-06
2.70447e-05
8.82382e-06
9.26882e-06
2.74651e-05
2.50848e-05
7.12278e-06
2.57121e-05
7.69786e-06
2.63023e-05
8.23356e-06
8.72007e-06
2.68511e-05
2.41508e-05
6.39163e-06
2.48643e-05
6.98431e-06
2.55566e-05
7.54131e-06
8.05305e-06
2.62236e-05
2.32172e-05
5.59596e-06
2.40086e-05
6.19292e-06
2.47926e-05
6.75736e-06
7.28001e-06
2.55656e-05
2.22715e-05
4.74425e-06
2.31305e-05
5.33394e-06
2.3994e-05
5.89382e-06
6.41509e-06
2.48589e-05
2.13004e-05
3.84657e-06
2.22151e-05
4.41921e-06
2.31444e-05
4.96448e-06
5.47404e-06
2.40855e-05
2.02913e-05
2.91444e-06
2.12485e-05
3.462e-06
2.22285e-05
3.98444e-06
4.47389e-06
2.32287e-05
1.92333e-05
1.96059e-06
2.02186e-05
2.47673e-06
2.12331e-05
2.9699e-06
3.4327e-06
2.22743e-05
1.81182e-05
9.98581e-07
1.91164e-05
1.47862e-06
2.01485e-05
1.93779e-06
2.36919e-06
2.1212e-05
1.69415e-05
4.25708e-08
1.79367e-05
4.83367e-07
1.89691e-05
9.05441e-07
1.30237e-06
2.00359e-05
1.57027e-05
-8.93194e-07
1.66793e-05
-4.93266e-07
1.76946e-05
-1.09844e-07
2.51106e-07
1.87459e-05
1.44065e-05
-1.79485e-06
1.53493e-05
-1.43603e-06
1.63308e-05
-1.09137e-06
-7.66388e-07
1.73483e-05
1.30627e-05
-2.6494e-06
1.39574e-05
-2.33068e-06
1.48896e-05
-2.0236e-06
-1.73321e-06
1.58564e-05
1.16866e-05
-3.44524e-06
1.25205e-05
-3.16457e-06
1.33897e-05
-2.89278e-06
-2.63445e-06
1.42909e-05
1.02991e-05
-4.17283e-06
1.10619e-05
-3.9273e-06
1.18568e-05
-3.68769e-06
-3.45801e-06
1.26803e-05
8.9259e-06
-4.82531e-06
9.61012e-06
-4.61153e-06
1.03229e-05
-4.40047e-06
-4.19551e-06
1.10604e-05
7.59575e-06
-5.3991e-06
8.19776e-06
-5.21356e-06
8.82468e-06
-5.0274e-06
-4.84325e-06
9.47239e-06
6.33851e-06
-5.89424e-06
6.85868e-06
-5.73374e-06
7.4006e-06
-5.56934e-06
-5.40276e-06
7.96011e-06
5.18188e-06
-6.31426e-06
5.62452e-06
-6.17638e-06
6.08687e-06
-6.03169e-06
-5.88091e-06
6.56501e-06
4.14783e-06
-6.66558e-06
4.52046e-06
-6.54902e-06
4.91228e-06
-6.42352e-06
-6.28879e-06
5.32016e-06
3.24901e-06
-6.95622e-06
3.5608e-06
-6.86082e-06
3.89287e-06
-6.7556e-06
-6.63946e-06
4.24354e-06
2.48629e-06
-7.19415e-06
2.7459e-06
-7.12042e-06
3.02795e-06
-7.03766e-06
-6.94431e-06
3.3328e-06
1.84862e-06
-7.38549e-06
2.06193e-06
-7.33373e-06
2.29965e-06
-7.27538e-06
-7.20906e-06
2.5644e-06
1.31606e-06
-7.53339e-06
1.48473e-06
-7.5024e-06
1.67784e-06
-7.46849e-06
-7.43103e-06
1.89982e-06
8.65582e-07
-7.63821e-06
9.87514e-07
-7.62434e-06
1.1304e-06
-7.61139e-06
-7.59983e-06
1.29921e-06
4.78108e-07
-7.69943e-06
5.50232e-07
-7.69646e-06
6.3605e-07
-7.69719e-06
-7.70308e-06
7.39303e-07
1.45041e-07
1.67353e-07
1.93976e-07
2.26175e-07
2.83421e-05
-2.12734e-06
2.79418e-05
-4.82476e-06
2.76888e-05
-7.06246e-06
2.7495e-05
-9.09224e-06
2.727e-05
-1.10899e-05
2.66612e-05
-1.33716e-05
2.54393e-05
-1.60448e-05
2.36208e-05
-1.88828e-05
2.14224e-05
-2.15234e-05
1.91407e-05
-2.3745e-05
1.67157e-05
-2.56782e-05
1.38418e-05
-2.73889e-05
1.0345e-05
-2.86579e-05
6.27178e-06
-2.91831e-05
1.94427e-06
-2.89619e-05
-2.43663e-06
-2.81894e-05
-6.84447e-06
-2.69936e-05
-1.12395e-05
-2.54086e-05
-1.55726e-05
-2.34287e-05
-1.97379e-05
-2.10026e-05
-2.35663e-05
-1.8116e-05
-2.68673e-05
-1.49706e-05
-2.95469e-05
-1.17329e-05
-3.15617e-05
-8.51263e-06
-3.289e-05
-5.41217e-06
-3.34951e-05
-2.627e-06
-3.33517e-05
-3.94394e-07
-3.25313e-05
1.24939e-06
-3.11775e-05
2.28041e-06
-2.94197e-05
2.71905e-06
-2.7338e-05
2.6269e-06
-2.50701e-05
2.16689e-06
-2.25771e-05
1.33565e-06
-1.98391e-05
2.55393e-07
-1.68828e-05
-1.02303e-06
-1.38015e-05
-2.33173e-06
-1.058e-05
-3.60326e-06
-7.17844e-06
-4.81879e-06
-3.54811e-06
-6.02255e-06
-6.36931e-06
2.85823e-05
-1.05072e-06
2.7441e-05
-3.68343e-06
2.63603e-05
-5.98174e-06
2.53427e-05
-8.07467e-06
2.43423e-05
-1.00895e-05
2.31815e-05
-1.22108e-05
2.16721e-05
-1.45354e-05
1.97534e-05
-1.69641e-05
1.75172e-05
-1.92872e-05
1.51324e-05
-2.13602e-05
1.25531e-05
-2.30989e-05
9.51966e-06
-2.43555e-05
5.94039e-06
-2.50786e-05
2.00396e-06
-2.52467e-05
-2.09386e-06
-2.48641e-05
-6.25162e-06
-2.40316e-05
-1.04193e-05
-2.28259e-05
-1.45456e-05
-2.12823e-05
-1.85581e-05
-1.94162e-05
-2.23288e-05
-1.72319e-05
-2.56322e-05
-1.48125e-05
-2.83562e-05
-1.22465e-05
-3.05053e-05
-9.58378e-06
-3.20519e-05
-6.96601e-06
-3.29862e-05
-4.47792e-06
-3.32816e-05
-2.33156e-06
-3.29557e-05
-7.20299e-07
-3.20683e-05
3.62e-07
-3.0737e-05
9.49163e-07
-2.90684e-05
1.05045e-06
-2.70874e-05
6.45795e-07
-2.47993e-05
-1.21206e-07
-2.22585e-05
-1.20505e-06
-1.95004e-05
-2.5027e-06
-1.66117e-05
-3.9118e-06
-1.35949e-05
-5.34849e-06
-1.04329e-05
-6.76525e-06
-7.08681e-06
-8.16489e-06
-3.51225e-06
-9.59711e-06
-9.88156e-06
2.92761e-05
3.91822e-07
2.77142e-05
-2.12162e-06
2.61335e-05
-4.40101e-06
2.45704e-05
-6.51148e-06
2.3013e-05
-8.5322e-06
2.13702e-05
-1.0568e-05
1.95183e-05
-1.26835e-05
1.73883e-05
-1.48341e-05
1.50052e-05
-1.69041e-05
1.24222e-05
-1.87773e-05
9.5892e-06
-2.02659e-05
6.38989e-06
-2.11562e-05
2.79482e-06
-2.14836e-05
-1.0323e-06
-2.14195e-05
-4.96757e-06
-2.09288e-05
-8.92912e-06
-2.007e-05
-1.28595e-05
-1.88954e-05
-1.67001e-05
-1.74417e-05
-2.03733e-05
-1.5743e-05
-2.37403e-05
-1.38649e-05
-2.66266e-05
-1.19261e-05
-2.89721e-05
-9.90108e-06
-3.07602e-05
-7.79557e-06
-3.1979e-05
-5.74725e-06
-3.26112e-05
-3.84574e-06
-3.26882e-05
-2.25452e-06
-3.22579e-05
-1.15061e-06
-3.13476e-05
-5.48351e-07
-3.00053e-05
-3.93125e-07
-2.82813e-05
-6.73484e-07
-2.62567e-05
-1.37886e-06
-2.39578e-05
-2.42013e-06
-2.14582e-05
-3.70462e-06
-1.88056e-05
-5.15529e-06
-1.60252e-05
-6.69227e-06
-1.31232e-05
-8.25043e-06
-1.00803e-05
-9.80821e-06
-6.86082e-06
-1.13844e-05
-3.42251e-06
-1.30354e-05
-1.33041e-05
3.01004e-05
1.97604e-06
2.83409e-05
-3.62086e-07
2.64893e-05
-2.54945e-06
2.45889e-05
-4.61103e-06
2.26476e-05
-6.59096e-06
2.06248e-05
-8.54515e-06
1.84485e-05
-1.05072e-05
1.60669e-05
-1.24525e-05
1.34729e-05
-1.43101e-05
1.06646e-05
-1.5969e-05
7.62137e-06
-1.72227e-05
4.30001e-06
-1.78348e-05
7.38716e-07
-1.79223e-05
-2.97973e-06
-1.77011e-05
-6.757e-06
-1.71515e-05
-1.05158e-05
-1.63112e-05
-1.4191e-05
-1.52202e-05
-1.77164e-05
-1.39163e-05
-2.10152e-05
-1.24442e-05
-2.40027e-05
-1.08773e-05
-2.6602e-05
-9.32686e-06
-2.86891e-05
-7.81392e-06
-3.02134e-05
-6.27129e-06
-3.12023e-05
-4.75838e-06
-3.16542e-05
-3.39384e-06
-3.15719e-05
-2.33677e-06
-3.09936e-05
-1.72894e-06
-2.99824e-05
-1.55961e-06
-2.85777e-05
-1.7978e-06
-2.68331e-05
-2.41811e-06
-2.48308e-05
-3.38113e-06
-2.26239e-05
-4.62709e-06
-2.02517e-05
-6.07676e-06
-1.77474e-05
-7.65963e-06
-1.51274e-05
-9.31223e-06
-1.23927e-05
-1.09852e-05
-9.52731e-06
-1.26736e-05
-6.50296e-06
-1.44087e-05
-3.27873e-06
-1.62597e-05
-1.65828e-05
3.08144e-05
3.5626e-06
2.90038e-05
1.44852e-06
2.70354e-05
-5.81007e-07
2.49527e-05
-2.52833e-06
2.27734e-05
-4.41164e-06
2.04844e-05
-6.25619e-06
1.80522e-05
-8.07505e-06
1.54475e-05
-9.84773e-06
1.26541e-05
-1.15167e-05
9.66443e-06
-1.29793e-05
6.50078e-06
-1.40591e-05
3.14982e-06
-1.44838e-05
-3.52988e-07
-1.44195e-05
-3.94872e-06
-1.41053e-05
-7.55319e-06
-1.3547e-05
-1.10922e-05
-1.27723e-05
-1.4499e-05
-1.18134e-05
-1.77076e-05
-1.07077e-05
-2.06495e-05
-9.50233e-06
-2.32636e-05
-8.2632e-06
-2.55208e-05
-7.0697e-06
-2.73713e-05
-5.9634e-06
-2.87318e-05
-4.91078e-06
-2.95536e-05
-3.93658e-06
-2.98259e-05
-3.12156e-06
-2.95828e-05
-2.57983e-06
-2.89066e-05
-2.40519e-06
-2.78519e-05
-2.6143e-06
-2.64667e-05
-3.18302e-06
-2.4803e-05
-4.08175e-06
-2.29139e-05
-5.27032e-06
-2.08511e-05
-6.68986e-06
-1.86505e-05
-8.27732e-06
-1.63372e-05
-9.97297e-06
-1.39249e-05
-1.17245e-05
-1.1408e-05
-1.35021e-05
-8.77724e-06
-1.53044e-05
-6.01266e-06
-1.71733e-05
-3.07606e-06
-1.91963e-05
-1.96589e-05
3.12964e-05
5.0715e-06
2.95277e-05
3.21727e-06
2.75498e-05
1.39689e-06
2.54014e-05
-3.7994e-07
2.31047e-05
-2.115e-06
2.06633e-05
-3.8148e-06
1.80678e-05
-5.4795e-06
1.53097e-05
-7.08963e-06
1.23915e-05
-8.59851e-06
9.33161e-06
-9.91944e-06
6.13451e-06
-1.0862e-05
2.81204e-06
-1.11614e-05
-5.97344e-07
-1.10101e-05
-4.04246e-06
-1.06602e-05
-7.44963e-06
-1.01399e-05
-1.0751e-05
-9.47083e-06
-1.38831e-05
-8.68135e-06
-1.67857e-05
-7.80508e-06
-1.94023e-05
-6.8857e-06
-2.16876e-05
-5.97798e-06
-2.36169e-05
-5.14038e-06
-2.51716e-05
-4.40864e-06
-2.63011e-05
-3.78127e-06
-2.69603e-05
-3.27745e-06
-2.71324e-05
-2.94944e-06
-2.68437e-05
-2.86857e-06
-2.61554e-05
-3.09345e-06
-2.51295e-05
-3.64018e-06
-2.38187e-05
-4.49386e-06
-2.22744e-05
-5.62601e-06
-2.0545e-05
-6.99975e-06
-1.86703e-05
-8.56452e-06
-1.66814e-05
-1.02662e-05
-1.46e-05
-1.20544e-05
-1.24346e-05
-1.38899e-05
-1.01822e-05
-1.57546e-05
-7.83845e-06
-1.76481e-05
-5.39113e-06
-1.96206e-05
-2.80805e-06
-2.17794e-05
-2.24669e-05
3.15179e-05
6.45881e-06
2.98498e-05
4.88546e-06
2.79381e-05
3.30856e-06
2.58151e-05
1.74305e-06
2.3504e-05
1.96074e-07
2.10176e-05
-1.3284e-06
1.83618e-05
-2.82365e-06
1.55455e-05
-4.27337e-06
1.25956e-05
-5.64865e-06
9.56267e-06
-6.8865e-06
6.40969e-06
-7.70902e-06
3.16992e-06
-7.92161e-06
-1.01347e-07
-7.73882e-06
-3.35974e-06
-7.40184e-06
-6.54158e-06
-6.95805e-06
-9.58739e-06
-6.42502e-06
-1.24402e-05
-5.82855e-06
-1.50475e-05
-5.19774e-06
-1.73647e-05
-4.56853e-06
-1.93581e-05
-3.98458e-06
-2.10089e-05
-3.48961e-06
-2.23037e-05
-3.11386e-06
-2.32152e-05
-2.86979e-06
-2.37172e-05
-2.77542e-06
-2.38025e-05
-2.86411e-06
-2.34937e-05
-3.17738e-06
-2.28379e-05
-3.74925e-06
-2.18889e-05
-4.58927e-06
-2.06973e-05
-5.68545e-06
-1.93109e-05
-7.0124e-06
-1.77743e-05
-8.53633e-06
-1.61227e-05
-1.02161e-05
-1.43815e-05
-1.20075e-05
-1.2567e-05
-1.38689e-05
-1.06855e-05
-1.57714e-05
-8.7398e-06
-1.77002e-05
-6.72791e-06
-1.966e-05
-4.64501e-06
-2.17035e-05
-2.46982e-06
-2.39546e-05
-2.49368e-05
3.15048e-05
7.6998e-06
2.99762e-05
6.41405e-06
2.81865e-05
5.09823e-06
2.61616e-05
3.76799e-06
2.39235e-05
2.4341e-06
2.14899e-05
1.10526e-06
1.88753e-05
-2.09088e-07
1.60994e-05
-1.49746e-06
1.32037e-05
-2.753e-06
1.02427e-05
-3.92543e-06
7.20876e-06
-4.67513e-06
4.12891e-06
-4.84176e-06
1.04445e-06
-4.65437e-06
-1.99298e-06
-4.36441e-06
-4.92575e-06
-4.02528e-06
-7.69979e-06
-3.65097e-06
-1.02678e-05
-3.26051e-06
-1.2587e-05
-2.87858e-06
-1.46222e-05
-2.53331e-06
-1.63488e-05
-2.25804e-06
-1.77526e-05
-2.08578e-06
-1.88248e-05
-2.04162e-06
-1.95533e-05
-2.1413e-06
-1.99284e-05
-2.40038e-06
-1.99528e-05
-2.83966e-06
-1.96482e-05
-3.48204e-06
-1.90529e-05
-4.34449e-06
-1.82127e-05
-5.42954e-06
-1.71729e-05
-6.72522e-06
-1.59763e-05
-8.20896e-06
-1.46616e-05
-9.85109e-06
-1.32601e-05
-1.16176e-05
-1.17941e-05
-1.34735e-05
-1.02767e-05
-1.53862e-05
-8.715e-06
-1.73331e-05
-7.11248e-06
-1.93027e-05
-5.46926e-06
-2.13032e-05
-3.7871e-06
-2.33857e-05
-2.06014e-06
-2.56815e-05
-2.69969e-05
3.13067e-05
8.77897e-06
2.99454e-05
7.77537e-06
2.83201e-05
6.72348e-06
2.64512e-05
5.63692e-06
2.43587e-05
4.52654e-06
2.2062e-05
3.40203e-06
1.95801e-05
2.27278e-06
1.69361e-05
1.14651e-06
1.41596e-05
2.35072e-08
1.12959e-05
-1.06172e-06
8.43806e-06
-1.81732e-06
5.60004e-06
-2.00375e-06
2.75252e-06
-1.80685e-06
-3.62923e-08
-1.57559e-06
-2.69993e-06
-1.36164e-06
-5.18946e-06
-1.16143e-06
-7.46732e-06
-9.82658e-07
-9.50286e-06
-8.43049e-07
-1.12698e-05
-7.66329e-07
-1.27503e-05
-7.77528e-07
-1.39351e-05
-9.01019e-07
-1.48202e-05
-1.15658e-06
-1.54032e-05
-1.55824e-06
-1.56857e-05
-2.11789e-06
-1.56778e-05
-2.84759e-06
-1.54015e-05
-3.7583e-06
-1.48901e-05
-4.8559e-06
-1.41825e-05
-6.1372e-06
-1.33183e-05
-7.5894e-06
-1.23351e-05
-9.19215e-06
-1.12661e-05
-1.09201e-05
-1.01385e-05
-1.27452e-05
-8.97224e-06
-1.46397e-05
-7.77935e-06
-1.65791e-05
-6.56662e-06
-1.85458e-05
-5.33685e-06
-2.05325e-05
-4.09148e-06
-2.25486e-05
-2.83651e-06
-2.46407e-05
-1.58383e-06
-2.69342e-05
-2.85807e-05
3.09784e-05
9.68528e-06
2.98048e-05
8.94896e-06
2.83762e-05
8.15213e-06
2.67081e-05
7.30498e-06
2.48182e-05
6.41642e-06
2.2725e-05
5.4953e-06
2.0447e-05
4.55073e-06
1.80032e-05
3.59033e-06
1.54144e-05
2.61232e-06
1.27195e-05
1.63315e-06
1.0055e-05
8.47143e-07
7.47124e-06
5.8005e-07
4.90269e-06
7.61707e-07
2.40057e-06
9.2653e-07
3.34856e-08
1.00545e-06
-2.15653e-06
1.02858e-06
-4.14068e-06
1.0015e-06
-5.89714e-06
9.13411e-07
-7.4083e-06
7.44837e-07
-8.66217e-06
4.76345e-07
-9.65369e-06
9.0493e-08
-1.03832e-05
-4.27035e-07
-1.08548e-05
-1.08663e-06
-1.10769e-05
-1.89585e-06
-1.10642e-05
-2.86031e-06
-1.08394e-05
-3.98311e-06
-1.04322e-05
-5.26308e-06
-9.87641e-06
-6.69298e-06
-9.20648e-06
-8.25933e-06
-8.45495e-06
-9.94368e-06
-7.65056e-06
-1.17244e-05
-6.81687e-06
-1.35789e-05
-5.97128e-06
-1.54853e-05
-5.12503e-06
-1.74253e-05
-4.28413e-06
-1.93867e-05
-3.45086e-06
-2.13658e-05
-2.62622e-06
-2.33732e-05
-1.81686e-06
-2.545e-05
-1.05046e-06
-2.77006e-05
-2.96312e-05
3.05691e-05
1.04104e-05
2.95984e-05
9.91973e-06
2.83899e-05
9.36059e-06
2.69558e-05
8.73908e-06
2.53111e-05
8.06116e-06
2.34728e-05
7.33363e-06
2.14592e-05
6.56426e-06
1.92878e-05
5.76174e-06
1.69675e-05
4.93267e-06
1.45088e-05
4.09185e-06
1.20177e-05
3.33826e-06
9.64029e-06
2.95741e-06
7.38134e-06
3.02066e-06
5.216e-06
3.09186e-06
3.18037e-06
3.04108e-06
1.30591e-06
2.90304e-06
-3.83385e-07
2.6908e-06
-1.86886e-06
2.39889e-06
-3.13819e-06
2.01417e-06
-4.18477e-06
1.52293e-06
-5.00715e-06
9.12873e-07
-5.60902e-06
1.74842e-07
-5.99849e-06
-6.97153e-07
-6.18801e-06
-1.70633e-06
-6.19498e-06
-2.85333e-06
-6.04214e-06
-4.13595e-06
-5.75671e-06
-5.54852e-06
-5.36843e-06
-7.08126e-06
-4.90731e-06
-8.72045e-06
-4.40158e-06
-1.04494e-05
-3.87617e-06
-1.22499e-05
-3.35149e-06
-1.41036e-05
-2.84281e-06
-1.59939e-05
-2.36017e-06
-1.7908e-05
-1.90889e-06
-1.9838e-05
-1.49057e-06
-2.17841e-05
-1.10471e-06
-2.37591e-05
-7.53607e-07
-2.58011e-05
-4.58485e-07
-2.79957e-05
-3.00897e-05
3.01179e-05
1.09483e-05
2.93601e-05
1.06775e-05
2.83875e-05
1.03333e-05
2.72089e-05
9.91765e-06
2.58367e-05
9.43337e-06
2.42857e-05
8.88464e-06
2.25723e-05
8.27767e-06
2.07128e-05
7.62119e-06
1.87177e-05
6.92777e-06
1.65881e-05
6.22151e-06
1.43533e-05
5.57304e-06
1.21659e-05
5.14482e-06
1.01845e-05
5.00209e-06
8.36451e-06
4.91181e-06
6.66961e-06
4.73598e-06
5.11265e-06
4.46e-06
3.71311e-06
4.09034e-06
2.48679e-06
3.62521e-06
1.44216e-06
3.05879e-06
5.82754e-07
2.38234e-06
-9.29998e-08
1.58863e-06
-5.91382e-07
6.73226e-07
-9.23174e-07
-3.6536e-07
-1.10318e-06
-1.52632e-06
-1.1501e-06
-2.80641e-06
-1.08622e-06
-4.19982e-06
-9.36677e-07
-5.69806e-06
-7.28002e-07
-7.28993e-06
-4.86522e-07
-8.96193e-06
-2.36843e-07
-1.06991e-05
-6.0832e-10
-1.24861e-05
2.0442e-07
-1.43086e-05
3.64907e-07
-1.61544e-05
4.72052e-07
-1.80151e-05
5.21284e-07
-1.98872e-05
5.11651e-07
-2.17744e-05
4.45091e-07
-2.36925e-05
3.25417e-07
-2.56814e-05
1.52371e-07
-2.78227e-05
-2.99373e-05
2.96525e-05
1.12955e-05
2.91133e-05
1.12167e-05
2.83849e-05
1.10617e-05
2.74734e-05
1.08291e-05
2.63883e-05
1.05186e-05
2.5141e-05
1.01319e-05
2.37448e-05
9.67388e-06
2.2213e-05
9.153e-06
2.05566e-05
8.58412e-06
1.87838e-05
7.9943e-06
1.69196e-05
7.43728e-06
1.5067e-05
6.99741e-06
1.33671e-05
6.70202e-06
1.18347e-05
6.4442e-06
1.0441e-05
6.12962e-06
9.17844e-06
5.72259e-06
8.05236e-06
5.21643e-06
7.06908e-06
4.60848e-06
6.23186e-06
3.89601e-06
5.54085e-06
3.07335e-06
4.99233e-06
2.13714e-06
4.57772e-06
1.08784e-06
4.2843e-06
-7.19382e-08
4.09595e-06
-1.33797e-06
3.99359e-06
-2.70404e-06
3.95566e-06
-4.16188e-06
3.95891e-06
-5.7013e-06
3.97944e-06
-7.31046e-06
3.99396e-06
-8.97644e-06
3.98091e-06
-1.0686e-05
3.92148e-06
-1.24267e-05
3.80031e-06
-1.41874e-05
3.60589e-06
-1.596e-05
3.33071e-06
-1.77399e-05
2.97103e-06
-1.95275e-05
2.52649e-06
-2.13299e-05
1.99949e-06
-2.31655e-05
1.39401e-06
-2.5076e-05
7.13937e-07
-2.71426e-05
-2.92234e-05
2.91901e-05
1.14514e-05
2.88709e-05
1.15359e-05
2.83892e-05
1.15434e-05
2.77489e-05
1.14694e-05
2.69563e-05
1.13112e-05
2.60198e-05
1.10685e-05
2.49492e-05
1.07444e-05
2.37554e-05
1.03468e-05
2.24498e-05
9.88974e-06
2.10472e-05
9.3969e-06
1.9579e-05
8.90548e-06
1.81172e-05
8.45919e-06
1.67513e-05
8.06789e-06
1.55144e-05
7.68106e-06
1.44031e-05
7.24095e-06
1.34104e-05
6.71525e-06
1.25338e-05
6.09303e-06
1.17726e-05
5.3697e-06
1.1125e-05
4.54363e-06
1.05862e-05
3.6122e-06
1.0149e-05
2.57434e-06
9.80276e-06
1.43404e-06
9.53342e-06
1.97403e-07
9.32406e-06
-1.1286e-06
9.15564e-06
-2.53561e-06
9.00752e-06
-4.01376e-06
8.85818e-06
-5.55195e-06
8.68599e-06
-7.13827e-06
8.47023e-06
-8.76069e-06
8.192e-06
-1.04078e-05
7.83496e-06
-1.20696e-05
7.38593e-06
-1.37384e-05
6.83519e-06
-1.54093e-05
6.17658e-06
-1.70813e-05
5.40731e-06
-1.87583e-05
4.52766e-06
-2.04502e-05
3.54041e-06
-2.21783e-05
2.44983e-06
-2.39854e-05
1.26081e-06
-2.59536e-05
-2.79625e-05
2.87387e-05
1.14179e-05
2.86368e-05
1.16378e-05
2.83994e-05
1.17808e-05
2.80282e-05
1.18406e-05
2.75272e-05
1.18122e-05
2.69019e-05
1.16938e-05
2.61596e-05
1.14868e-05
2.53092e-05
1.11972e-05
2.43624e-05
1.08366e-05
2.33364e-05
1.04228e-05
2.22617e-05
9.9802e-06
2.1189e-05
9.53191e-06
2.0175e-05
9.08188e-06
1.92508e-05
8.60521e-06
1.84243e-05
8.06746e-06
1.76919e-05
7.44769e-06
1.70498e-05
6.73513e-06
1.64941e-05
5.92538e-06
1.60195e-05
5.01822e-06
1.56181e-05
4.01355e-06
1.52794e-05
2.91304e-06
1.49904e-05
1.72308e-06
1.47356e-05
4.5224e-07
1.44975e-05
-8.90534e-07
1.42574e-05
-2.29554e-06
1.39957e-05
-3.75202e-06
1.36923e-05
-5.24852e-06
1.33275e-05
-6.77349e-06
1.28828e-05
-8.31604e-06
1.23417e-05
-9.86666e-06
1.16899e-05
-1.14179e-05
1.09164e-05
-1.29648e-05
1.00131e-05
-1.4506e-05
8.97538e-06
-1.60436e-05
7.80144e-06
-1.75843e-05
6.49234e-06
-1.91411e-05
5.05129e-06
-2.07373e-05
3.4826e-06
-2.24167e-05
1.7903e-06
-2.42613e-05
-2.61722e-05
2.82975e-05
1.12001e-05
2.84068e-05
1.15284e-05
2.84067e-05
1.1781e-05
2.82975e-05
1.19498e-05
2.80812e-05
1.20285e-05
2.77611e-05
1.20138e-05
2.73425e-05
1.19054e-05
2.68327e-05
1.17071e-05
2.62421e-05
1.14271e-05
2.55871e-05
1.10779e-05
2.48926e-05
1.06747e-05
2.4194e-05
1.02306e-05
2.35281e-05
9.74776e-06
2.29192e-05
9.21414e-06
2.23766e-05
8.61005e-06
2.18996e-05
7.92465e-06
2.14842e-05
7.15052e-06
2.11245e-05
6.2851e-06
2.08126e-05
5.33016e-06
2.05384e-05
4.28767e-06
2.02894e-05
3.16206e-06
2.00507e-05
1.96178e-06
1.98056e-05
6.97419e-07
1.95363e-05
-6.21273e-07
1.92243e-05
-1.98358e-06
1.88508e-05
-3.37847e-06
1.8397e-05
-4.79469e-06
1.78448e-05
-6.22133e-06
1.71776e-05
-7.64885e-06
1.63807e-05
-9.06979e-06
1.54421e-05
-1.04792e-05
1.43523e-05
-1.18751e-05
1.31052e-05
-1.32589e-05
1.16976e-05
-1.46359e-05
1.01289e-05
-1.60156e-05
8.40107e-06
-1.74133e-05
6.51788e-06
-1.88541e-05
4.4837e-06
-2.03825e-05
2.30174e-06
-2.20793e-05
-2.38705e-05
2.78591e-05
1.08062e-05
2.81699e-05
1.12176e-05
2.83961e-05
1.15548e-05
2.85369e-05
1.1809e-05
2.85928e-05
1.19726e-05
2.85656e-05
1.2041e-05
2.84586e-05
1.20124e-05
2.82773e-05
1.18884e-05
2.80302e-05
1.16742e-05
2.77301e-05
1.13779e-05
2.73958e-05
1.1009e-05
2.70509e-05
1.05755e-05
2.67192e-05
1.00795e-05
2.64174e-05
9.51595e-06
2.61519e-05
8.87551e-06
2.59231e-05
8.1535e-06
2.57272e-05
7.34642e-06
2.55562e-05
6.45608e-06
2.54007e-05
5.48564e-06
2.52488e-05
4.43958e-06
2.5086e-05
3.32486e-06
2.48961e-05
2.15165e-06
2.46619e-05
9.31638e-07
2.4365e-05
-3.24352e-07
2.39865e-05
-1.60509e-06
2.35086e-05
-2.90057e-06
2.29135e-05
-4.19962e-06
2.21844e-05
-5.49223e-06
2.13061e-05
-6.77054e-06
2.02656e-05
-8.02929e-06
1.90525e-05
-9.26615e-06
1.76595e-05
-1.0482e-05
1.60819e-05
-1.16813e-05
1.43181e-05
-1.28721e-05
1.23689e-05
-1.40665e-05
1.02374e-05
-1.52819e-05
7.92811e-06
-1.65448e-05
5.44559e-06
-1.79e-05
2.79255e-06
-1.94263e-05
-2.1078e-05
2.74104e-05
1.02469e-05
2.79098e-05
1.07182e-05
2.83474e-05
1.11173e-05
2.87219e-05
1.14345e-05
2.90326e-05
1.16619e-05
2.928e-05
1.17936e-05
2.94657e-05
1.18267e-05
2.95931e-05
1.1761e-05
2.9668e-05
1.15992e-05
2.96996e-05
1.13463e-05
2.97001e-05
1.10085e-05
2.96844e-05
1.05912e-05
2.96669e-05
1.0097e-05
2.96574e-05
9.52546e-06
2.96588e-05
8.87401e-06
2.96702e-05
8.14218e-06
2.96861e-05
7.33051e-06
2.96978e-05
6.44433e-06
2.9694e-05
5.48947e-06
2.96617e-05
4.47191e-06
2.95852e-05
3.40136e-06
2.94471e-05
2.2897e-06
2.92299e-05
1.1489e-06
2.89138e-05
-8.24393e-09
2.84801e-05
-1.17144e-06
2.79111e-05
-2.33156e-06
2.71894e-05
-3.47794e-06
2.6299e-05
-4.60185e-06
2.52259e-05
-5.69743e-06
2.39585e-05
-6.76191e-06
2.24881e-05
-7.79576e-06
2.0809e-05
-8.80286e-06
1.89182e-05
-9.79055e-06
1.68158e-05
-1.07697e-05
1.45043e-05
-1.17549e-05
1.19879e-05
-1.27655e-05
9.27207e-06
-1.3829e-05
6.36198e-06
-1.49899e-05
3.26e-06
-1.63243e-05
-1.7818e-05
2.69345e-05
9.53595e-06
2.76065e-05
1.00462e-05
2.82374e-05
1.04863e-05
2.88255e-05
1.08465e-05
2.93692e-05
1.11181e-05
2.98679e-05
1.1295e-05
3.03215e-05
1.1373e-05
3.07316e-05
1.13509e-05
3.11013e-05
1.12296e-05
3.14356e-05
1.1012e-05
3.17416e-05
1.07025e-05
3.20272e-05
1.03055e-05
3.22997e-05
9.82453e-06
3.25633e-05
9.26194e-06
3.28176e-05
8.61972e-06
3.30587e-05
7.90101e-06
3.32789e-05
7.11034e-06
3.34685e-05
6.25471e-06
3.36151e-05
5.34292e-06
3.37034e-05
4.38354e-06
3.37169e-05
3.38789e-06
3.36374e-05
2.36922e-06
3.34461e-05
1.34026e-06
3.31235e-05
3.14278e-07
3.26508e-05
-6.98743e-07
3.20088e-05
-1.68955e-06
3.11799e-05
-2.64905e-06
3.01486e-05
-3.57046e-06
2.89014e-05
-4.45032e-06
2.74282e-05
-5.28866e-06
2.57215e-05
-6.08904e-06
2.37771e-05
-6.85851e-06
2.15941e-05
-7.60749e-06
1.91741e-05
-8.34968e-06
1.65213e-05
-9.10209e-06
1.36417e-05
-9.88583e-06
1.05419e-05
-1.07293e-05
7.22791e-06
-1.16759e-05
3.70185e-06
-1.27983e-05
-1.41161e-05
2.64121e-05
8.68947e-06
2.7238e-05
9.22031e-06
2.80412e-05
9.68314e-06
2.88196e-05
1.00681e-05
2.95709e-05
1.03667e-05
3.02936e-05
1.05723e-05
3.09863e-05
1.06803e-05
3.16487e-05
1.06885e-05
3.22814e-05
1.05969e-05
3.2886e-05
1.04074e-05
3.34651e-05
1.01234e-05
3.40215e-05
9.74912e-06
3.4557e-05
9.28901e-06
3.50712e-05
8.74774e-06
3.55605e-05
8.13039e-06
3.60184e-05
7.44314e-06
3.64351e-05
6.69358e-06
3.67988e-05
5.89106e-06
3.70955e-05
5.04626e-06
3.73084e-05
4.17066e-06
3.74193e-05
3.277e-06
3.74093e-05
2.37922e-06
3.72584e-05
1.49113e-06
3.6947e-05
6.25683e-07
3.64546e-05
-2.06333e-07
3.57611e-05
-9.96071e-07
3.48483e-05
-1.7362e-06
3.37002e-05
-2.42236e-06
3.23038e-05
-3.05396e-06
3.06495e-05
-3.63431e-06
2.87309e-05
-4.17051e-06
2.65455e-05
-4.67314e-06
2.4094e-05
-5.15597e-06
2.138e-05
-5.63569e-06
1.84097e-05
-6.13176e-06
1.51909e-05
-6.667e-06
1.17319e-05
-7.27034e-06
8.03978e-06
-7.98378e-06
4.11659e-06
-8.87513e-06
-9.99957e-06
2.58228e-05
7.72565e-06
2.67818e-05
8.26121e-06
2.7734e-05
8.73097e-06
2.86768e-05
9.12532e-06
2.96078e-05
9.43579e-06
3.05244e-05
9.65572e-06
3.14242e-05
9.78042e-06
3.23055e-05
9.80729e-06
3.31666e-05
9.73583e-06
3.40065e-05
9.5675e-06
3.48245e-05
9.30548e-06
3.56193e-05
8.95427e-06
3.63889e-05
8.51944e-06
3.71292e-05
8.00747e-06
3.78337e-05
7.42585e-06
3.84935e-05
6.78336e-06
3.90969e-05
6.09014e-06
3.96302e-05
5.3578e-06
4.00773e-05
4.59913e-06
4.04203e-05
3.82777e-06
4.06391e-05
3.05814e-06
4.07133e-05
2.30507e-06
4.06214e-05
1.58299e-06
4.03421e-05
9.05068e-07
3.98534e-05
2.82303e-07
3.91342e-05
-2.76821e-07
3.81647e-05
-7.66726e-07
3.69281e-05
-1.18575e-06
3.54108e-05
-1.53673e-06
3.36035e-05
-1.82693e-06
3.15006e-05
-2.06764e-06
2.9101e-05
-2.27354e-06
2.64072e-05
-2.46217e-06
2.34249e-05
-2.65342e-06
2.01626e-05
-2.86938e-06
1.66301e-05
-3.1346e-06
1.28381e-05
-3.47834e-06
8.79487e-06
-3.94054e-06
4.50298e-06
-4.58326e-06
-5.49659e-06
2.51467e-05
6.66447e-06
2.62164e-05
7.19151e-06
2.72924e-05
7.65497e-06
2.83721e-05
8.0456e-06
2.94527e-05
8.35521e-06
3.05311e-05
8.57732e-06
3.16042e-05
8.70731e-06
3.26689e-05
8.74253e-06
3.37223e-05
8.68244e-06
3.47614e-05
8.52849e-06
3.57828e-05
8.28408e-06
3.67827e-05
7.95435e-06
3.77562e-05
7.54597e-06
3.86965e-05
7.0671e-06
3.95951e-05
6.52732e-06
4.04407e-05
5.93768e-06
4.12202e-05
5.31067e-06
4.19179e-05
4.66013e-06
4.25161e-05
4.00098e-06
4.29949e-05
3.34892e-06
4.3333e-05
2.72004e-06
4.35077e-05
2.13036e-06
4.34957e-05
1.59507e-06
4.3273e-05
1.12773e-06
4.28159e-05
7.39444e-07
4.21009e-05
4.38186e-07
4.11063e-05
2.27869e-07
3.98132e-05
1.0726e-07
3.8207e-05
6.94872e-08
3.62777e-05
1.02397e-07
3.40205e-05
1.89565e-07
3.14356e-05
3.11343e-07
2.85275e-05
4.45943e-07
2.53042e-05
5.69862e-07
2.17765e-05
6.58273e-07
1.79571e-05
6.84839e-07
1.38586e-05
6.20184e-07
9.49052e-06
4.27487e-07
4.85553e-06
5.17268e-08
-6.41052e-07
2.43658e-05
5.5273e-06
2.55223e-05
6.03509e-06
2.66957e-05
6.48155e-06
2.78834e-05
6.85784e-06
2.90824e-05
7.15618e-06
3.02894e-05
7.37035e-06
3.15008e-05
7.49597e-06
3.27127e-05
7.53056e-06
3.39214e-05
7.47376e-06
3.51226e-05
7.32734e-06
3.63115e-05
7.09517e-06
3.74826e-05
6.78321e-06
3.86292e-05
6.39936e-06
3.97429e-05
5.9534e-06
4.08134e-05
5.45685e-06
4.18281e-05
4.92296e-06
4.27723e-05
4.36649e-06
4.36288e-05
3.80357e-06
4.43784e-05
3.25139e-06
4.49996e-05
2.72779e-06
4.54688e-05
2.25075e-06
4.57614e-05
1.83776e-06
4.58515e-05
1.505e-06
4.57126e-05
1.26664e-06
4.53179e-05
1.1341e-06
4.46411e-05
1.11504e-06
4.3657e-05
1.21201e-06
4.23435e-05
1.42077e-06
4.06834e-05
1.72958e-06
3.86657e-05
2.12006e-06
3.62861e-05
2.56915e-06
3.35463e-05
3.05119e-06
3.04529e-05
3.53927e-06
2.70168e-05
4.00598e-06
2.32514e-05
4.42365e-06
1.9172e-05
4.76421e-06
1.47939e-05
4.99833e-06
1.01285e-05
5.09288e-06
5.18012e-06
5.00007e-06
4.53907e-06
2.34651e-05
4.33652e-06
2.46834e-05
4.8168e-06
2.5927e-05
5.23799e-06
2.71931e-05
5.5917e-06
2.84787e-05
5.87055e-06
2.97804e-05
6.06866e-06
3.10945e-05
6.18189e-06
3.2417e-05
6.20805e-06
3.37437e-05
6.14706e-06
3.50699e-05
6.00113e-06
3.63903e-05
5.77477e-06
3.76987e-05
5.47488e-06
3.89873e-05
5.11066e-06
4.02472e-05
4.69355e-06
4.14669e-05
4.23708e-06
4.26332e-05
3.75668e-06
4.37302e-05
3.26951e-06
4.47396e-05
2.79416e-06
4.56407e-05
2.35031e-06
4.64103e-05
1.95824e-06
4.70228e-05
1.6382e-06
4.74511e-05
1.40949e-06
4.76666e-05
1.28951e-06
4.764e-05
1.29324e-06
4.73413e-05
1.43279e-06
4.67399e-05
1.7164e-06
4.58057e-05
2.14622e-06
4.45113e-05
2.71523e-06
4.28352e-05
3.40563e-06
4.07646e-05
4.19063e-06
3.82955e-05
5.03831e-06
3.54314e-05
5.91522e-06
3.21822e-05
6.78852e-06
2.85616e-05
7.62654e-06
2.45864e-05
8.39886e-06
2.02747e-05
9.07593e-06
1.56444e-05
9.62864e-06
1.07101e-05
1.00272e-05
5.47894e-06
1.02312e-05
1.0018e-05
2.24333e-05
3.11516e-06
2.36882e-05
3.56196e-06
2.49742e-05
3.95194e-06
2.62888e-05
4.27711e-06
2.76289e-05
4.53042e-06
2.89914e-05
4.70624e-06
3.03726e-05
4.80067e-06
3.17689e-05
4.8117e-06
3.31765e-05
4.73955e-06
3.45907e-05
4.58684e-06
3.60067e-05
4.35878e-06
3.74183e-05
4.06328e-06
3.8818e-05
3.71094e-06
4.01966e-05
3.31496e-06
4.15427e-05
2.89099e-06
4.28425e-05
2.45685e-06
4.40798e-05
2.03228e-06
4.52353e-05
1.63861e-06
4.62873e-05
1.29836e-06
4.72108e-05
1.03474e-06
4.79782e-05
8.7083e-07
4.85595e-05
8.28171e-07
4.89236e-05
9.25456e-07
4.90385e-05
1.17836e-06
4.8871e-05
1.60027e-06
4.83857e-05
2.20169e-06
4.7545e-05
2.9869e-06