/*--------------------------------*- C++ -*----------------------------------*\
| =========                 |                                                 |
| \\      /  F ield         | OpenFOAM: The Open Source CFD Toolbox           |
|  \\    /   O peration     | Version:  5.0                                   |
|   \\  /    A nd           | Web:      www.OpenFOAM.org                      |
|    \\/     M anipulation  |                                                 |
\*---------------------------------------------------------------------------*/
FoamFile
{
    version     2.0;
    format      ascii;
    class       volVectorField;
    location    "1";
    object      U;
}
// * * * * * * * * * * * * * * * * * * * * * * * * * * * * * * * * * * * * * //

dimensions      [0 1 -1 0 0 0 0];

internalField   nonuniform List<vector> 
1935
(
(0.299497 0.124157 0)
(0.325353 0.124163 0)
(0.342141 0.125214 0)
(0.350871 0.126051 0)
(0.353138 0.126494 0)
(0.350453 0.126329 0)
(0.34411 0.125539 0)
(0.335141 0.124155 0)
(0.324347 0.122216 0)
(0.312349 0.119748 0)
(0.299635 0.116747 0)
(0.286585 0.113191 0)
(0.273491 0.109043 0)
(0.260567 0.104265 0)
(0.247955 0.0988208 0)
(0.235737 0.0926842 0)
(0.223938 0.0858443 0)
(0.212542 0.078308 0)
(0.201496 0.0701023 0)
(0.190723 0.061275 0)
(0.180134 0.0518944 0)
(0.169636 0.0420479 0)
(0.15914 0.0318405 0)
(0.148573 0.0213923 0)
(0.137883 0.0108357 0)
(0.127045 0.000312047 0)
(0.116065 -0.0100327 0)
(0.104981 -0.0200535 0)
(0.093868 -0.0296102 0)
(0.0828335 -0.0385741 0)
(0.0720176 -0.0468336 0)
(0.0615842 -0.0543018 0)
(0.0517096 -0.0609225 0)
(0.0425673 -0.0666755 0)
(0.0343088 -0.0715783 0)
(0.0270436 -0.0756823 0)
(0.0208212 -0.0790641 0)
(0.015622 -0.0818116 0)
(0.011358 -0.0840075 0)
(0.00789151 -0.0857149 0)
(0.00506543 -0.0869666 0)
(0.00273818 -0.0877357 0)
(0.000819512 -0.0881745 0)
(0.299302 0.095905 0)
(0.299254 0.0675054 0)
(0.299255 0.0370922 0)
(0.298149 0.00554742 0)
(0.323771 0.0980563 0)
(0.320371 0.0705489 0)
(0.315305 0.0415291 0)
(0.30816 0.0120253 0)
(0.339879 0.101782 0)
(0.335068 0.0768726 0)
(0.327664 0.0505081 0)
(0.317674 0.0236414 0)
(0.348744 0.105953 0)
(0.343734 0.0842713 0)
(0.335792 0.0610854 0)
(0.325024 0.0371523 0)
(0.351517 0.109809 0)
(0.346993 0.0915417 0)
(0.339491 0.0717066 0)
(0.329112 0.0508689 0)
(0.349474 0.112957 0)
(0.345724 0.0980452 0)
(0.339112 0.0815542 0)
(0.329686 0.0638758 0)
(0.34378 0.115264 0)
(0.340886 0.103529 0)
(0.335322 0.0902558 0)
(0.327079 0.0757007 0)
(0.335425 0.116717 0)
(0.333377 0.107922 0)
(0.328883 0.0976735 0)
(0.321895 0.0861239 0)
(0.325209 0.117345 0)
(0.323973 0.11123 0)
(0.320533 0.103775 0)
(0.31481 0.0950543 0)
(0.31377 0.117174 0)
(0.313322 0.113474 0)
(0.310915 0.108559 0)
(0.306455 0.102447 0)
(0.301615 0.116208 0)
(0.301946 0.114655 0)
(0.300561 0.112015 0)
(0.297361 0.108263 0)
(0.289137 0.11443 0)
(0.290249 0.114757 0)
(0.289882 0.114117 0)
(0.287942 0.112458 0)
(0.276635 0.111809 0)
(0.278533 0.113753 0)
(0.279182 0.11484 0)
(0.278497 0.114998 0)
(0.264317 0.108314 0)
(0.267008 0.111617 0)
(0.268666 0.114164 0)
(0.26922 0.115866 0)
(0.252321 0.103918 0)
(0.255799 0.108334 0)
(0.258452 0.112083 0)
(0.260214 0.115063 0)
(0.240715 0.0986083 0)
(0.244966 0.103905 0)
(0.248582 0.108611 0)
(0.251508 0.112616 0)
(0.229512 0.0923865 0)
(0.234507 0.0983469 0)
(0.239039 0.103781 0)
(0.243064 0.108576 0)
(0.21868 0.0852749 0)
(0.224372 0.0916989 0)
(0.229759 0.0976508 0)
(0.234799 0.103017 0)
(0.208152 0.0773172 0)
(0.214479 0.0840232 0)
(0.220639 0.0903028 0)
(0.226596 0.0960448 0)
(0.197835 0.0685788 0)
(0.20472 0.0754047 0)
(0.211558 0.0818429 0)
(0.218317 0.0877854 0)
(0.187626 0.059147 0)
(0.194979 0.0659507 0)
(0.202385 0.0723997 0)
(0.209818 0.0783907 0)
(0.177419 0.0491285 0)
(0.185136 0.0557881 0)
(0.192991 0.0621221 0)
(0.20096 0.0680325 0)
(0.167116 0.0386476 0)
(0.175086 0.0450615 0)
(0.183261 0.0511763 0)
(0.191619 0.0568994 0)
(0.156636 0.0278435 0)
(0.164741 0.03393 0)
(0.173102 0.0397421 0)
(0.181698 0.0451928 0)
(0.145922 0.0168675 0)
(0.154038 0.0225637 0)
(0.162448 0.0280097 0)
(0.171131 0.033124 0)
(0.134946 0.00587861 0)
(0.142952 0.0111402 0)
(0.151273 0.0161757 0)
(0.159891 0.0209092 0)
(0.123717 -0.00495942 0)
(0.131491 -0.000159408 0)
(0.139591 0.00443931 0)
(0.147997 0.00876609 0)
(0.11228 -0.015485 0)
(0.119709 -0.0111567 0)
(0.127462 -0.0070038 0)
(0.135519 -0.00309188 0)
(0.100717 -0.0255436 0)
(0.107697 -0.021682 0)
(0.114991 -0.0179682 0)
(0.122575 -0.0144627 0)
(0.0891493 -0.0349929 0)
(0.0955942 -0.03158 0)
(0.102332 -0.028285 0)
(0.109338 -0.0251628 0)
(0.077736 -0.0437104 0)
(0.0835762 -0.0407172 0)
(0.0896828 -0.0378091 0)
(0.0960298 -0.0350354 0)
(0.0666633 -0.0516007 0)
(0.0718542 -0.0489902 0)
(0.0772816 -0.0464295 0)
(0.0829182 -0.0439611 0)
(0.0561331 -0.058603 0)
(0.060658 -0.0563346 0)
(0.0653896 -0.0540782 0)
(0.0702995 -0.0518687 0)
(0.0463459 -0.0646968 0)
(0.0502178 -0.0627307 0)
(0.0542702 -0.0607382 0)
(0.0584753 -0.0587446 0)
(0.0374788 -0.0699034 0)
(0.0407384 -0.0682064 0)
(0.04416 -0.0664466 0)
(0.0477186 -0.0646382 0)
(0.029662 -0.0742824 0)
(0.0323715 -0.0728327 0)
(0.0352346 -0.0712901 0)
(0.0382326 -0.0696569 0)
(0.0229563 -0.0779209 0)
(0.0251886 -0.0767105 0)
(0.0275761 -0.075389 0)
(0.0301105 -0.0739473 0)
(0.0173401 -0.0809153 0)
(0.0191644 -0.0799485 0)
(0.0211515 -0.0788692 0)
(0.0233069 -0.0776605 0)
(0.0127129 -0.0833507 0)
(0.0141802 -0.0826353 0)
(0.015816 -0.0818264 0)
(0.01764 -0.0809052 0)
(0.00891766 -0.085283 0)
(0.0100525 -0.0848178 0)
(0.0113491 -0.0842962 0)
(0.0128376 -0.0837051 0)
(0.00577953 -0.0867284 0)
(0.00658307 -0.0864876 0)
(0.00752106 -0.0862367 0)
(0.0086254 -0.0859743 0)
(0.00314923 -0.0876325 0)
(0.00361672 -0.0875529 0)
(0.00417005 -0.0875033 0)
(0.00483232 -0.0874955 0)
(0.000945198 -0.0881448 0)
(0.00108838 -0.0881543 0)
(0.00125817 -0.0882173 0)
(0.00146211 -0.088355 0)
(0.295052 -0.0258082 0)
(0.290522 -0.0535127 0)
(0.287013 -0.0754517 0)
(0.285032 -0.0955697 0)
(0.283714 -0.115845 0)
(0.279905 -0.140214 0)
(0.270715 -0.170017 0)
(0.254773 -0.20182 0)
(0.233637 -0.230781 0)
(0.210315 -0.254185 0)
(0.185144 -0.274757 0)
(0.159213 -0.294814 0)
(0.127256 -0.310757 0)
(0.087171 -0.319008 0)
(0.0425188 -0.317681 0)
(-0.00250088 -0.309915 0)
(-0.0479454 -0.297734 0)
(-0.0934958 -0.281396 0)
(-0.138767 -0.260694 0)
(-0.183118 -0.234816 0)
(-0.22497 -0.203298 0)
(-0.262078 -0.168116 0)
(-0.293076 -0.131909 0)
(-0.317373 -0.0957714 0)
(-0.334934 -0.0608822 0)
(-0.344981 -0.0290365 0)
(-0.347189 -0.00265535 0)
(-0.342002 0.0173677 0)
(-0.330326 0.03022 0)
(-0.313999 0.0363051 0)
(-0.293956 0.0369767 0)
(-0.271246 0.0337264 0)
(-0.24675 0.0266284 0)
(-0.219691 0.0169288 0)
(-0.190037 0.00457157 0)
(-0.158756 -0.00823545 0)
(-0.126103 -0.0205138 0)
(-0.0920721 -0.0320018 0)
(-0.0575471 -0.0431171 0)
(-0.0247309 -0.0469517 0)
(0.298475 -0.0176675 0)
(0.286706 -0.0450115 0)
(0.275168 -0.0683305 0)
(0.26453 -0.089397 0)
(0.254555 -0.10976 0)
(0.243948 -0.131964 0)
(0.23061 -0.157087 0)
(0.213096 -0.183648 0)
(0.191804 -0.208863 0)
(0.167342 -0.231141 0)
(0.141887 -0.249694 0)
(0.114837 -0.264518 0)
(0.0809351 -0.27488 0)
(0.0409967 -0.277922 0)
(-0.000277804 -0.274586 0)
(-0.0426346 -0.266276 0)
(-0.0853815 -0.253927 0)
(-0.127982 -0.237831 0)
(-0.169785 -0.218024 0)
(-0.210239 -0.194271 0)
(-0.247117 -0.166748 0)
(-0.277819 -0.137539 0)
(-0.302758 -0.107609 0)
(-0.321715 -0.0780168 0)
(-0.334573 -0.0496496 0)
(-0.340993 -0.0245661 0)
(-0.340547 -0.00531981 0)
(-0.334124 0.00818479 0)
(-0.322604 0.016424 0)
(-0.306939 0.0193485 0)
(-0.288201 0.0168468 0)
(-0.266389 0.0106451 0)
(-0.241324 0.000735964 0)
(-0.214163 -0.0118246 0)
(-0.185151 -0.0255319 0)
(-0.154855 -0.039566 0)
(-0.123161 -0.0533105 0)
(-0.0900218 -0.0666858 0)
(-0.0562914 -0.0801691 0)
(-0.024113 -0.0832488 0)
(0.30473 -0.00396068 0)
(0.289185 -0.0304375 0)
(0.273064 -0.0540274 0)
(0.257105 -0.0756821 0)
(0.241435 -0.0963955 0)
(0.225495 -0.117578 0)
(0.208036 -0.140077 0)
(0.188022 -0.16324 0)
(0.165182 -0.18556 0)
(0.139159 -0.205631 0)
(0.112118 -0.222183 0)
(0.0828183 -0.232928 0)
(0.0476012 -0.237825 0)
(0.00904392 -0.238166 0)
(-0.0302914 -0.233549 0)
(-0.0704749 -0.224803 0)
(-0.110671 -0.212521 0)
(-0.150245 -0.197067 0)
(-0.188467 -0.178715 0)
(-0.224802 -0.157855 0)
(-0.257011 -0.135812 0)
(-0.283387 -0.112546 0)
(-0.304288 -0.0881108 0)
(-0.319677 -0.0641949 0)
(-0.329023 -0.0418027 0)
(-0.332644 -0.0230113 0)
(-0.330725 -0.00931701 0)
(-0.32369 -0.000802693 0)
(-0.312257 0.00294912 0)
(-0.296541 0.00213398 0)
(-0.277228 -0.00356281 0)
(-0.255235 -0.0132209 0)
(-0.230769 -0.0255217 0)
(-0.204537 -0.0395622 0)
(-0.176916 -0.0546314 0)
(-0.148061 -0.0699546 0)
(-0.11785 -0.085179 0)
(-0.0862533 -0.100427 0)
(-0.0540711 -0.116229 0)
(-0.0231862 -0.118886 0)
(0.311033 0.012002 0)
(0.293997 -0.0129412 0)
(0.275686 -0.0359668 0)
(0.256774 -0.0574668 0)
(0.237521 -0.0780548 0)
(0.217753 -0.0985065 0)
(0.196834 -0.119287 0)
(0.174147 -0.1401 0)
(0.149173 -0.160085 0)
(0.121291 -0.178074 0)
(0.0924508 -0.19191 0)
(0.0613551 -0.199485 0)
(0.0258543 -0.201283 0)
(-0.0112712 -0.199588 0)
(-0.0488849 -0.194125 0)
(-0.0869118 -0.18532 0)
(-0.124452 -0.173614 0)
(-0.160817 -0.159393 0)
(-0.19527 -0.143096 0)
(-0.227004 -0.125532 0)
(-0.255613 -0.107908 0)
(-0.279366 -0.0898672 0)
(-0.297321 -0.0713528 0)
(-0.30991 -0.0534061 0)
(-0.31721 -0.036875 0)
(-0.319111 -0.0232106 0)
(-0.315609 -0.0143474 0)
(-0.307475 -0.0104338 0)
(-0.295167 -0.0110745 0)
(-0.279161 -0.0160312 0)
(-0.260195 -0.0247428 0)
(-0.238924 -0.0364482 0)
(-0.215799 -0.0504738 0)
(-0.191219 -0.0660176 0)
(-0.165437 -0.0823622 0)
(-0.13851 -0.0988992 0)
(-0.110299 -0.115531 0)
(-0.0808492 -0.132519 0)
(-0.0509319 -0.150492 0)
(-0.0219609 -0.153329 0)
(0.315391 0.0284643 0)
(0.2983 0.0056013 0)
(0.279345 -0.0161021 0)
(0.259102 -0.0367523 0)
(0.237881 -0.0566365 0)
(0.215696 -0.0761357 0)
(0.192292 -0.0954687 0)
(0.167413 -0.114418 0)
(0.140556 -0.132352 0)
(0.110986 -0.14825 0)
(0.080953 -0.160001 0)
(0.0492001 -0.165079 0)
(0.0142247 -0.165036 0)
(-0.0215474 -0.162143 0)
(-0.0573389 -0.156357 0)
(-0.093065 -0.147989 0)
(-0.127828 -0.137403 0)
(-0.160938 -0.12499 0)
(-0.191714 -0.111235 0)
(-0.219492 -0.0968747 0)
(-0.243856 -0.0828907 0)
(-0.264554 -0.0698183 0)
(-0.280683 -0.0567492 0)
(-0.291602 -0.0439972 0)
(-0.29695 -0.0328198 0)
(-0.296927 -0.0248206 0)
(-0.29226 -0.0210566 0)
(-0.283501 -0.0214514 0)
(-0.271219 -0.0256993 0)
(-0.255886 -0.033551 0)
(-0.238056 -0.0446551 0)
(-0.218276 -0.0583462 0)
(-0.19696 -0.0739243 0)
(-0.174423 -0.0907386 0)
(-0.150875 -0.108182 0)
(-0.12632 -0.125867 0)
(-0.100618 -0.143766 0)
(-0.0738737 -0.162269 0)
(-0.0468742 -0.182172 0)
(-0.0203886 -0.186003 0)
(0.316928 0.044427 0)
(0.300633 0.0240749 0)
(0.282038 0.00429266 0)
(0.26161 -0.0148621 0)
(0.239652 -0.0334692 0)
(0.216285 -0.0516666 0)
(0.191482 -0.0695047 0)
(0.165255 -0.0867731 0)
(0.137105 -0.102936 0)
(0.106914 -0.116986 0)
(0.0767145 -0.12727 0)
(0.0450583 -0.130871 0)
(0.011046 -0.129615 0)
(-0.0231306 -0.126083 0)
(-0.0568676 -0.120458 0)
(-0.0901112 -0.112989 0)
(-0.122016 -0.103976 0)
(-0.151934 -0.0937907 0)
(-0.179289 -0.0829021 0)
(-0.20356 -0.07193 0)
(-0.224422 -0.0615631 0)
(-0.241714 -0.0521844 0)
(-0.255067 -0.0437109 0)
(-0.263947 -0.0363545 0)
(-0.268024 -0.0307357 0)
(-0.267331 -0.0277503 0)
(-0.262371 -0.0281697 0)
(-0.253773 -0.0321625 0)
(-0.242114 -0.0395507 0)
(-0.227894 -0.0500324 0)
(-0.211625 -0.063224 0)
(-0.193756 -0.0785612 0)
(-0.17462 -0.0954408 0)
(-0.154498 -0.113299 0)
(-0.133532 -0.131677 0)
(-0.111713 -0.150352 0)
(-0.0889758 -0.169313 0)
(-0.0654262 -0.189041 0)
(-0.0418954 -0.210541 0)
(-0.0183969 -0.216264 0)
(0.315618 0.0593111 0)
(0.300599 0.0417604 0)
(0.283014 0.024334 0)
(0.263227 0.00717162 0)
(0.24151 -0.0096831 0)
(0.218033 -0.0262256 0)
(0.192908 -0.0424077 0)
(0.166328 -0.0580397 0)
(0.137785 -0.0727307 0)
(0.108013 -0.0856209 0)
(0.078454 -0.0946399 0)
(0.0475621 -0.0972176 0)
(0.0149857 -0.0953579 0)
(-0.017254 -0.0917354 0)
(-0.0486542 -0.0867166 0)
(-0.0792183 -0.080506 0)
(-0.108205 -0.0733801 0)
(-0.135016 -0.0656581 0)
(-0.159184 -0.0577523 0)
(-0.180321 -0.0501621 0)
(-0.19818 -0.0434016 0)
(-0.212632 -0.0378094 0)
(-0.223478 -0.0334753 0)
(-0.230423 -0.0305856 0)
(-0.23327 -0.0295514 0)
(-0.232089 -0.0309106 0)
(-0.227248 -0.0351281 0)
(-0.219272 -0.0423437 0)
(-0.208684 -0.052425 0)
(-0.195966 -0.0650947 0)
(-0.181574 -0.0799913 0)
(-0.165909 -0.0966564 0)
(-0.14927 -0.11458 0)
(-0.131857 -0.13329 0)
(-0.113771 -0.152454 0)
(-0.0950375 -0.171905 0)
(-0.0756335 -0.191673 0)
(-0.0556709 -0.212294 0)
(-0.0360248 -0.234977 0)
(-0.0159213 -0.243409 0)
(0.311882 0.0727862 0)
(0.298415 0.0581746 0)
(0.282281 0.0433669 0)
(0.263749 0.0285282 0)
(0.243055 0.0137615 0)
(0.220386 -0.000857063 0)
(0.195923 -0.0152369 0)
(0.16996 -0.0292369 0)
(0.142059 -0.0426869 0)
(0.113233 -0.0549803 0)
(0.0847607 -0.0628876 0)
(0.0555305 -0.0646984 0)
(0.0249851 -0.0627297 0)
(-0.00500395 -0.0594658 0)
(-0.033834 -0.0554099 0)
(-0.0615638 -0.0507287 0)
(-0.0875638 -0.0456667 0)
(-0.111337 -0.0404995 0)
(-0.132497 -0.035555 0)
(-0.150764 -0.0312201 0)
(-0.165955 -0.0278819 0)
(-0.177973 -0.0258241 0)
(-0.18672 -0.0252039 0)
(-0.19207 -0.0261939 0)
(-0.193973 -0.0290579 0)
(-0.19254 -0.0341072 0)
(-0.188076 -0.0415868 0)
(-0.181009 -0.051557 0)
(-0.171793 -0.063898 0)
(-0.160859 -0.078366 0)
(-0.14861 -0.0946332 0)
(-0.135384 -0.112317 0)
(-0.121447 -0.131025 0)
(-0.10697 -0.150383 0)
(-0.092039 -0.170124 0)
(-0.076692 -0.190114 0)
(-0.0609157 -0.210427 0)
(-0.0448327 -0.231605 0)
(-0.0293366 -0.25499 0)
(-0.0129354 -0.266711 0)
(0.306314 0.0846668 0)
(0.294571 0.0729955 0)
(0.280195 0.0609058 0)
(0.263379 0.0485525 0)
(0.244323 0.0360527 0)
(0.223211 0.0235069 0)
(0.200247 0.0110143 0)
(0.175738 -0.0013327 0)
(0.149514 -0.0135064 0)
(0.121818 -0.0251 0)
(0.0945633 -0.032552 0)
(0.0679283 -0.0342182 0)
(0.0401032 -0.0322756 0)
(0.012551 -0.0295892 0)
(-0.0135098 -0.0267499 0)
(-0.038299 -0.0238002 0)
(-0.0612679 -0.0208954 0)
(-0.0820479 -0.0182642 0)
(-0.10035 -0.0161632 0)
(-0.115965 -0.0148882 0)
(-0.128771 -0.0147266 0)
(-0.138711 -0.0159083 0)
(-0.145756 -0.0185899 0)
(-0.149894 -0.0229138 0)
(-0.15117 -0.0290412 0)
(-0.149737 -0.0371331 0)
(-0.145867 -0.0472949 0)
(-0.139919 -0.0595183 0)
(-0.132281 -0.0736767 0)
(-0.123328 -0.0895519 0)
(-0.113404 -0.106865 0)
(-0.102804 -0.1253 0)
(-0.0917544 -0.144537 0)
(-0.0804071 -0.164291 0)
(-0.0688474 -0.184359 0)
(-0.057108 -0.204645 0)
(-0.0451835 -0.225242 0)
(-0.0331833 -0.246655 0)
(-0.0219574 -0.270238 0)
(-0.00948765 -0.285469 0)
(0.299512 0.0948325 0)
(0.289606 0.085991 0)
(0.277202 0.0765811 0)
(0.262439 0.0667268 0)
(0.245481 0.0565324 0)
(0.226495 0.0460961 0)
(0.205673 0.0355126 0)
(0.183277 0.024855 0)
(0.159304 0.0141106 0)
(0.133526 0.00351485 0)
(0.107882 -0.00435194 0)
(0.0837073 -0.00651978 0)
(0.0589426 -0.00455045 0)
(0.0342243 -0.00247853 0)
(0.0111575 -0.000972797 0)
(-0.0105345 0.000149563 0)
(-0.030445 0.000884411 0)
(-0.0482856 0.00109094 0)
(-0.0638626 0.000548205 0)
(-0.0770282 -0.000969035 0)
(-0.087709 -0.00367172 0)
(-0.095886 -0.00773302 0)
(-0.101581 -0.0132793 0)
(-0.10485 -0.0204098 0)
(-0.105799 -0.0292108 0)
(-0.104604 -0.0397465 0)
(-0.101521 -0.0520333 0)
(-0.0968584 -0.0660137 0)
(-0.0909482 -0.0815519 0)
(-0.0841142 -0.0984503 0)
(-0.0766519 -0.11647 0)
(-0.0688123 -0.135355 0)
(-0.0607914 -0.154854 0)
(-0.0527239 -0.17475 0)
(-0.0446886 -0.194893 0)
(-0.0367149 -0.215227 0)
(-0.0288001 -0.235855 0)
(-0.0210171 -0.257221 0)
(-0.0140666 -0.280531 0)
(-0.0056991 -0.299056 0)
(0.291993 0.103188 0)
(0.283997 0.0969826 0)
(0.273709 0.0901098 0)
(0.261229 0.0826527 0)
(0.246688 0.0746888 0)
(0.230238 0.0662998 0)
(0.212049 0.0575723 0)
(0.192338 0.0485846 0)
(0.171245 0.039344 0)
(0.148395 0.0299532 0)
(0.124512 0.0218746 0)
(0.101949 0.018558 0)
(0.0802686 0.0200007 0)
(0.0589232 0.021387 0)
(0.0391443 0.0215764 0)
(0.0207285 0.0209433 0)
(0.00388944 0.0196507 0)
(-0.0111055 0.0176309 0)
(-0.0241081 0.0147156 0)
(-0.0350278 0.0107345 0)
(-0.0438285 0.00553755 0)
(-0.0505232 -0.000994301 0)
(-0.0551676 -0.00894481 0)
(-0.0578581 -0.0183682 0)
(-0.0587345 -0.0292932 0)
(-0.0579863 -0.0417196 0)
(-0.0558519 -0.0556075 0)
(-0.0526052 -0.0708665 0)
(-0.0485328 -0.0873563 0)
(-0.0439135 -0.104897 0)
(-0.0390007 -0.123287 0)
(-0.0340099 -0.142318 0)
(-0.0291101 -0.161796 0)
(-0.0244199 -0.181564 0)
(-0.0200093 -0.20152 0)
(-0.0159045 -0.221646 0)
(-0.0121009 -0.24206 0)
(-0.00862127 -0.263153 0)
(-0.00591322 -0.285874 0)
(-0.00174366 -0.306865 0)
(0.284158 0.109656 0)
(0.278109 0.105838 0)
(0.270018 0.101289 0)
(0.259953 0.0960483 0)
(0.248017 0.0901612 0)
(0.234337 0.083684 0)
(0.219064 0.0766889 0)
(0.202365 0.0692674 0)
(0.184388 0.0615188 0)
(0.165062 0.053631 0)
(0.144376 0.0463188 0)
(0.123423 0.0420297 0)
(0.104057 0.0418026 0)
(0.0862591 0.0417424 0)
(0.0698247 0.0405837 0)
(0.054636 0.038434 0)
(0.0408036 0.0353993 0)
(0.0285192 0.0314535 0)
(0.0179024 0.0264988 0)
(0.00901498 0.0204265 0)
(0.00186024 0.0131419 0)
(-0.00359928 0.00457604 0)
(-0.00744281 -0.00530935 0)
(-0.00979057 -0.0165253 0)
(-0.0108 -0.0290558 0)
(-0.0106636 -0.0428566 0)
(-0.00960503 -0.0578521 0)
(-0.00786922 -0.0739327 0)
(-0.00570684 -0.090958 0)
(-0.00335875 -0.108766 0)
(-0.0010433 -0.127187 0)
(0.0010539 -0.146054 0)
(0.0027871 -0.165224 0)
(0.00405337 -0.184586 0)
(0.0047916 -0.204086 0)
(0.0049789 -0.223743 0)
(0.00462266 -0.243701 0)
(0.00375142 -0.264351 0)
(0.00218769 -0.286494 0)
(0.00216351 -0.308229 0)
(0.276291 0.114184 0)
(0.272195 0.112474 0)
(0.266325 0.109995 0)
(0.258724 0.106747 0)
(0.249467 0.102742 0)
(0.238652 0.0980106 0)
(0.226397 0.0926085 0)
(0.212833 0.0866276 0)
(0.198073 0.0802187 0)
(0.182167 0.0736581 0)
(0.165173 0.0675858 0)
(0.147711 0.0631228 0)
(0.131149 0.0607036 0)
(0.116207 0.0588456 0)
(0.102696 0.0563074 0)
(0.0904142 0.0527855 0)
(0.0793567 0.048256 0)
(0.0695917 0.0426932 0)
(0.0611649 0.0360663 0)
(0.0541002 0.0283056 0)
(0.0483861 0.0193552 0)
(0.0439579 0.00919972 0)
(0.0407177 -0.00215376 0)
(0.0385325 -0.0146778 0)
(0.0372369 -0.028322 0)
(0.0366416 -0.0430119 0)
(0.0365374 -0.0586496 0)
(0.0367036 -0.0751159 0)
(0.036919 -0.0922746 0)
(0.0369738 -0.109982 0)
(0.0366791 -0.128095 0)
(0.0358758 -0.146486 0)
(0.034439 -0.165052 0)
(0.032281 -0.183727 0)
(0.0293506 -0.202497 0)
(0.0256276 -0.221417 0)
(0.021118 -0.240662 0)
(0.0158975 -0.260646 0)
(0.0100659 -0.282191 0)
(0.00590452 -0.303619 0)
(0.268569 0.116751 0)
(0.266398 0.116857 0)
(0.262725 0.116175 0)
(0.257573 0.114675 0)
(0.250991 0.112339 0)
(0.243048 0.109175 0)
(0.233828 0.105222 0)
(0.223429 0.100568 0)
(0.211949 0.095365 0)
(0.199486 0.0898802 0)
(0.186207 0.0845674 0)
(0.172595 0.0800253 0)
(0.159504 0.0764114 0)
(0.147546 0.0730172 0)
(0.136799 0.0690953 0)
(0.127167 0.064275 0)
(0.118605 0.0584426 0)
(0.111104 0.0515604 0)
(0.104657 0.0436092 0)
(0.0992309 0.0345485 0)
(0.0947804 0.0243575 0)
(0.0912211 0.0130571 0)
(0.0884367 0.000695913 0)
(0.0862866 -0.0126665 0)
(0.0846025 -0.0269534 0)
(0.0832018 -0.0420701 0)
(0.0818897 -0.0579062 0)
(0.0804663 -0.0743389 0)
(0.0787353 -0.09124 0)
(0.0765131 -0.108484 0)
(0.0736368 -0.125954 0)
(0.0699699 -0.143558 0)
(0.0654072 -0.161227 0)
(0.0598762 -0.178936 0)
(0.0533359 -0.196706 0)
(0.0457702 -0.214625 0)
(0.0371842 -0.232896 0)
(0.0277023 -0.251947 0)
(0.0176317 -0.272606 0)
(0.00939931 -0.293445 0)
(0.261075 0.117364 0)
(0.260772 0.118994 0)
(0.259233 0.119834 0)
(0.256463 0.119828 0)
(0.252493 0.118935 0)
(0.247366 0.117144 0)
(0.241139 0.114479 0)
(0.233886 0.111011 0)
(0.225696 0.106874 0)
(0.216687 0.10228 0)
(0.207056 0.0975304 0)
(0.197181 0.0929404 0)
(0.187606 0.0885712 0)
(0.178764 0.084072 0)
(0.170816 0.078996 0)
(0.163746 0.0730667 0)
(0.157513 0.0661714 0)
(0.152086 0.0582606 0)
(0.147424 0.0493188 0)
(0.143468 0.0393294 0)
(0.140135 0.0282987 0)
(0.137319 0.0162838 0)
(0.134887 0.00336066 0)
(0.132692 -0.0103881 0)
(0.130567 -0.0248677 0)
(0.128335 -0.0399714 0)
(0.125815 -0.0555824 0)
(0.122826 -0.0715799 0)
(0.119192 -0.0878462 0)
(0.114752 -0.104274 0)
(0.109366 -0.120774 0)
(0.102917 -0.137283 0)
(0.0953186 -0.153767 0)
(0.0865131 -0.170235 0)
(0.0764711 -0.186741 0)
(0.0651812 -0.203402 0)
(0.052649 -0.220444 0)
(0.0390478 -0.23831 0)
(0.0248744 -0.257824 0)
(0.0127369 -0.277766 0)
(0.253815 0.116061 0)
(0.255294 0.118932 0)
(0.255789 0.121022 0)
(0.255295 0.122254 0)
(0.253825 0.122572 0)
(0.251403 0.121947 0)
(0.248067 0.120386 0)
(0.243871 0.117939 0)
(0.238892 0.114705 0)
(0.233244 0.110839 0)
(0.227105 0.106532 0)
(0.220754 0.101953 0)
(0.214546 0.0971324 0)
(0.208772 0.0918962 0)
(0.203586 0.0859823 0)
(0.199006 0.0792348 0)
(0.195003 0.0715607 0)
(0.191532 0.062917 0)
(0.188532 0.053312 0)
(0.185921 0.0427596 0)
(0.183599 0.031289 0)
(0.181442 0.018975 0)
(0.179303 0.00591612 0)
(0.177032 -0.00778962 0)
(0.174461 -0.0220348 0)
(0.171421 -0.0367072 0)
(0.167742 -0.0516896 0)
(0.163256 -0.0668664 0)
(0.157808 -0.082133 0)
(0.151253 -0.097402 0)
(0.14347 -0.11261 0)
(0.134363 -0.127722 0)
(0.123861 -0.142737 0)
(0.111923 -0.157695 0)
(0.0985301 -0.172679 0)
(0.0836773 -0.187833 0)
(0.0673724 -0.203403 0)
(0.0498398 -0.21984 0)
(0.0317646 -0.237957 0)
(0.0159372 -0.256758 0)
(0.24673 0.112909 0)
(0.24988 0.116754 0)
(0.252279 0.119831 0)
(0.253914 0.122054 0)
(0.254788 0.123351 0)
(0.254911 0.123679 0)
(0.254304 0.123029 0)
(0.253004 0.121426 0)
(0.251071 0.118938 0)
(0.248597 0.115666 0)
(0.245722 0.11173 0)
(0.24264 0.10723 0)
(0.239578 0.102185 0)
(0.236728 0.0965165 0)
(0.234191 0.0900862 0)
(0.231994 0.0828189 0)
(0.230116 0.0746619 0)
(0.228498 0.0656122 0)
(0.227068 0.0556912 0)
(0.225729 0.04493 0)
(0.22436 0.0333885 0)
(0.222827 0.0211635 0)
(0.220977 0.00837303 0)
(0.218651 -0.00487711 0)
(0.215682 -0.01848 0)
(0.211907 -0.0323244 0)
(0.207165 -0.046293 0)
(0.201299 -0.0602784 0)
(0.194167 -0.0741914 0)
(0.185642 -0.0879662 0)
(0.175618 -0.101565 0)
(0.164016 -0.114983 0)
(0.150782 -0.12825 0)
(0.135889 -0.141433 0)
(0.119332 -0.154645 0)
(0.101113 -0.168051 0)
(0.0812437 -0.181915 0)
(0.0600024 -0.19669 0)
(0.0382671 -0.213173 0)
(0.0189967 -0.230622 0)
(0.239717 0.108004 0)
(0.2444 0.112574 0)
(0.248544 0.116395 0)
(0.252132 0.119371 0)
(0.255158 0.121424 0)
(0.257621 0.122497 0)
(0.259528 0.122567 0)
(0.2609 0.121639 0)
(0.261777 0.119751 0)
(0.262223 0.116967 0)
(0.262334 0.113363 0)
(0.262233 0.109002 0)
(0.262059 0.103909 0)
(0.261925 0.0980586 0)
(0.261886 0.0913974 0)
(0.26195 0.0839057 0)
(0.262088 0.0755643 0)
(0.262232 0.0664102 0)
(0.262293 0.0564934 0)
(0.262167 0.0458663 0)
(0.261723 0.0346162 0)
(0.260814 0.0228562 0)
(0.259289 0.0107049 0)
(0.256974 -0.00171756 0)
(0.253705 -0.0142958 0)
(0.249317 -0.0269314 0)
(0.243656 -0.0395155 0)
(0.236571 -0.0519502 0)
(0.227929 -0.064164 0)
(0.217617 -0.0761151 0)
(0.205543 -0.0877936 0)
(0.191644 -0.0992235 0)
(0.175881 -0.110464 0)
(0.158243 -0.121613 0)
(0.138739 -0.132806 0)
(0.117378 -0.144231 0)
(0.0941793 -0.156164 0)
(0.0694783 -0.169057 0)
(0.0443515 -0.183681 0)
(0.0219084 -0.199583 0)
(0.232639 0.101472 0)
(0.238697 0.10654 0)
(0.244405 0.110881 0)
(0.249741 0.114393 0)
(0.254695 0.116993 0)
(0.259256 0.118616 0)
(0.263421 0.119226 0)
(0.267195 0.118815 0)
(0.270598 0.117398 0)
(0.273664 0.115014 0)
(0.276448 0.111713 0)
(0.279019 0.107543 0)
(0.281448 0.102536 0)
(0.283788 0.0967026 0)
(0.286058 0.0900446 0)
(0.288238 0.0825774 0)
(0.290275 0.07433 0)
(0.292093 0.0653658 0)
(0.293594 0.0557599 0)
(0.294657 0.0455871 0)
(0.295142 0.0349529 0)
(0.294893 0.0239881 0)
(0.293751 0.0128202 0)
(0.291544 0.00158463 0)
(0.288109 -0.00961503 0)
(0.283272 -0.0206886 0)
(0.276873 -0.0315328 0)
(0.268767 -0.0420668 0)
(0.258824 -0.0522419 0)
(0.246941 -0.062043 0)
(0.233041 -0.0714899 0)
(0.217071 -0.0806377 0)
(0.19901 -0.0895766 0)
(0.178862 -0.098432 0)
(0.156649 -0.107365 0)
(0.132394 -0.116582 0)
(0.106121 -0.126368 0)
(0.078228 -0.137169 0)
(0.0499958 -0.149724 0)
(0.0246678 -0.163891 0)
(0.225342 0.0934653 0)
(0.2326 0.0988312 0)
(0.239669 0.103491 0)
(0.246529 0.107343 0)
(0.253164 0.1103 0)
(0.259557 0.112295 0)
(0.265694 0.113284 0)
(0.271568 0.113246 0)
(0.277179 0.112184 0)
(0.282537 0.110122 0)
(0.287662 0.107098 0)
(0.292578 0.103152 0)
(0.297309 0.0983279 0)
(0.301863 0.092661 0)
(0.306224 0.0861898 0)
(0.310347 0.0789638 0)
(0.314162 0.0710458 0)
(0.317573 0.0625214 0)
(0.320469 0.0534889 0)
(0.322716 0.0440519 0)
(0.32416 0.0343351 0)
(0.32464 0.0244762 0)
(0.323986 0.0146119 0)
(0.322027 0.0048761 0)
(0.318587 -0.00462617 0)
(0.313488 -0.0138012 0)
(0.306563 -0.0225641 0)
(0.297661 -0.0308573 0)
(0.286655 -0.038659 0)
(0.273448 -0.0459849 0)
(0.257968 -0.0528882 0)
(0.240179 -0.059458 0)
(0.220071 -0.0658169 0)
(0.197665 -0.0721196 0)
(0.173001 -0.0785522 0)
(0.146111 -0.0853385 0)
(0.117032 -0.0927704 0)
(0.0862283 -0.101281 0)
(0.055187 -0.111567 0)
(0.0272743 -0.123818 0)
(0.217668 0.0841602 0)
(0.225935 0.0896484 0)
(0.234152 0.0944527 0)
(0.242296 0.0984734 0)
(0.250349 0.101623 0)
(0.258289 0.103832 0)
(0.266095 0.105053 0)
(0.273748 0.105262 0)
(0.281233 0.104452 0)
(0.288541 0.102641 0)
(0.295663 0.0998611 0)
(0.302593 0.0961551 0)
(0.309318 0.0915747 0)
(0.315813 0.0861772 0)
(0.322034 0.0800282 0)
(0.327916 0.0732052 0)
(0.333368 0.0657996 0)
(0.338282 0.0579189 0)
(0.34253 0.0496834 0)
(0.345964 0.0412217 0)
(0.34842 0.032673 0)
(0.349725 0.0241843 0)
(0.349695 0.0158994 0)
(0.348148 0.0079516 0)
(0.344896 0.000452189 0)
(0.339753 -0.00650952 0)
(0.332539 -0.0128673 0)
(0.323097 -0.0185899 0)
(0.311294 -0.0236873 0)
(0.29703 -0.0282118 0)
(0.280242 -0.0322556 0)
(0.260901 -0.035946 0)
(0.239013 -0.0394419 0)
(0.214615 -0.0429294 0)
(0.187765 -0.0466202 0)
(0.15851 -0.0507557 0)
(0.126901 -0.0556323 0)
(0.0934704 -0.0616646 0)
(0.0599164 -0.0694937 0)
(0.0297222 -0.0796633 0)
(0.209469 0.0737533 0)
(0.218546 0.0792153 0)
(0.227685 0.0840159 0)
(0.236864 0.0880586 0)
(0.246062 0.0912578 0)
(0.255256 0.093546 0)
(0.264418 0.094875 0)
(0.273522 0.0952173 0)
(0.282541 0.0945667 0)
(0.291451 0.0929373 0)
(0.300226 0.0903617 0)
(0.308837 0.0868886 0)
(0.317246 0.0825805 0)
(0.325406 0.0775123 0)
(0.333252 0.0717719 0)
(0.340699 0.0654613 0)
(0.347646 0.0586964 0)
(0.353967 0.0516075 0)
(0.359521 0.0443362 0)
(0.364148 0.0370323 0)
(0.367672 0.0298516 0)
(0.369903 0.0229513 0)
(0.370646 0.0164821 0)
(0.369699 0.0105804 0)
(0.366857 0.00535892 0)
(0.361917 0.000901636 0)
(0.354686 -0.0027432 0)
(0.344987 -0.00557287 0)
(0.332675 -0.00763521 0)
(0.317645 -0.0090269 0)
(0.299833 -0.00988689 0)
(0.27922 -0.0103881 0)
(0.255828 -0.01073 0)
(0.229712 -0.0111335 0)
(0.200947 -0.0118377 0)
(0.1696 -0.013102 0)
(0.135737 -0.0152249 0)
(0.0999572 -0.0185945 0)
(0.0641622 -0.0237898 0)
(0.0319496 -0.0317705 0)
(0.200615 0.0624574 0)
(0.210294 0.0677708 0)
(0.220125 0.0724457 0)
(0.230086 0.0763895 0)
(0.240156 0.0795206 0)
(0.250307 0.0817739 0)
(0.260511 0.0831029 0)
(0.270736 0.0834813 0)
(0.28095 0.0829038 0)
(0.29112 0.0813865 0)
(0.301207 0.0789659 0)
(0.31117 0.0756985 0)
(0.320957 0.0716585 0)
(0.330506 0.0669376 0)
(0.339738 0.0616438 0)
(0.348558 0.0559015 0)
(0.356851 0.04985 0)
(0.364481 0.0436423 0)
(0.371296 0.0374421 0)
(0.377123 0.0314203 0)
(0.381771 0.0257505 0)
(0.385038 0.0206032 0)
(0.386707 0.0161381 0)
(0.386557 0.0124962 0)
(0.384364 0.00979187 0)
(0.379902 0.00810391 0)
(0.372949 0.00746408 0)
(0.363303 0.00784461 0)
(0.350795 0.00915269 0)
(0.335303 0.0112362 0)
(0.316764 0.0138974 0)
(0.295168 0.0169085 0)
(0.270551 0.0200223 0)
(0.24299 0.0229796 0)
(0.212584 0.0255123 0)
(0.179416 0.0273426 0)
(0.143574 0.028171 0)
(0.105709 0.0276422 0)
(0.067867 0.025243 0)
(0.0337442 0.0195292 0)
(0.191002 0.0504975 0)
(0.201075 0.0555655 0)
(0.211368 0.060018 0)
(0.221858 0.063767 0)
(0.232524 0.066735 0)
(0.24334 0.0688604 0)
(0.254275 0.0700994 0)
(0.265297 0.0704283 0)
(0.276373 0.0698446 0)
(0.287465 0.0683685 0)
(0.298533 0.0660428 0)
(0.309528 0.0629327 0)
(0.320394 0.0591257 0)
(0.331061 0.0547299 0)
(0.341444 0.0498733 0)
(0.351442 0.0447023 0)
(0.360931 0.0393797 0)
(0.369771 0.0340825 0)
(0.377798 0.0289985 0)
(0.384828 0.0243216 0)
(0.390657 0.020246 0)
(0.395063 0.0169589 0)
(0.397813 0.0146315 0)
(0.398665 0.0134121 0)
(0.39737 0.0134196 0)
(0.393674 0.0147323 0)
(0.38732 0.0173709 0)
(0.378062 0.0212769 0)
(0.365688 0.0263027 0)
(0.350052 0.0322236 0)
(0.331086 0.0387656 0)
(0.308789 0.0456313 0)
(0.283222 0.0525176 0)
(0.254486 0.0591233 0)
(0.222706 0.065151 0)
(0.187987 0.0703058 0)
(0.150439 0.0742893 0)
(0.110752 0.0767819 0)
(0.0710226 0.0773456 0)
(0.035032 0.0740498 0)
(0.180566 0.0381069 0)
(0.190823 0.0428571 0)
(0.201348 0.0470149 0)
(0.212118 0.0504967 0)
(0.223112 0.053229 0)
(0.234305 0.0551533 0)
(0.245668 0.0562288 0)
(0.257172 0.0564342 0)
(0.268786 0.0557706 0)
(0.280474 0.0542628 0)
(0.2922 0.0519604 0)
(0.303916 0.0489392 0)
(0.315569 0.0453001 0)
(0.327089 0.0411688 0)
(0.338392 0.036694 0)
(0.349374 0.0320452 0)
(0.359911 0.0274104 0)
(0.369857 0.022993 0)
(0.379042 0.0190077 0)
(0.387272 0.0156754 0)
(0.394331 0.0132158 0)
(0.399977 0.0118365 0)
(0.403955 0.0117223 0)
(0.406005 0.0130302 0)
(0.405859 0.015889 0)
(0.403234 0.0203889 0)
(0.397823 0.0265545 0)
(0.389311 0.034302 0)
(0.377421 0.0434145 0)
(0.361963 0.053567 0)
(0.342862 0.06438 0)
(0.320138 0.0754666 0)
(0.29388 0.0864578 0)
(0.264224 0.0970079 0)
(0.231327 0.106792 0)
(0.195318 0.115504 0)
(0.15633 0.122847 0)
(0.115082 0.128536 0)
(0.0736752 0.132205 0)
(0.0359825 0.131422 0)
(0.169281 0.0255234 0)
(0.17952 0.0299065 0)
(0.190054 0.0337206 0)
(0.200861 0.0368856 0)
(0.211922 0.0393311 0)
(0.223213 0.0410005 0)
(0.234711 0.0418546 0)
(0.246391 0.0418738 0)
(0.258228 0.0410614 0)
(0.270198 0.0394463 0)
(0.282269 0.0370853 0)
(0.294406 0.0340644 0)
(0.306562 0.0304995 0)
(0.318678 0.0265352 0)
(0.330673 0.0223428 0)
(0.342449 0.0181172 0)
(0.353882 0.0140743 0)
(0.364827 0.010447 0)
(0.375109 0.00748084 0)
(0.38453 0.00542972 0)