/*--------------------------------*- C++ -*----------------------------------*\
| =========                 |                                                 |
| \\      /  F ield         | OpenFOAM: The Open Source CFD Toolbox           |
|  \\    /   O peration     | Version:  5.0                                   |
|   \\  /    A nd           | Web:      www.OpenFOAM.org                      |
|    \\/     M anipulation  |                                                 |
\*---------------------------------------------------------------------------*/
FoamFile
{
    version     2.0;
    format      ascii;
    class       volScalarField;
    location    "0.2";
    object      alpha.water;
}
// * * * * * * * * * * * * * * * * * * * * * * * * * * * * * * * * * * * * * //

dimensions      [0 0 0 0 0 0 0];

internalField   nonuniform List<scalar> 
1915
(
-4.97325e-09
-6.16595e-09
-4.71264e-09
-3.18724e-09
-3.40951e-09
-2.55583e-09
-2.21126e-18
5.19716e-11
5.63307e-11
2.60313e-11
1.45943e-11
6.80559e-12
2.04438e-12
4.64847e-13
8.96246e-14
1.694e-14
2.96772e-15
5.02206e-16
8.25812e-17
1.31255e-17
2.02896e-18
3.0885e-19
4.70249e-20
7.28937e-21
1.38872e-21
3.30408e-17
-5.64101e-16
-1.81004e-14
-4.81443e-13
-4.04438e-12
-3.11184e-11
-1.27594e-11
-1.41459e-11
-8.55801e-11
-2.61388e-10
-5.75139e-10
-9.09578e-10
-1.23457e-09
-2.10111e-09
-3.02514e-09
-1.52618e-09
-7.55734e-10
-6.87604e-10
-1.44627e-09
-3.21477e-09
-5.51342e-09
-6.41213e-09
-4.77156e-09
-2.6036e-09
-1.73e-09
-1.01768e-09
-7.13482e-18
1.96029e-11
2.23095e-11
1.10794e-11
4.75405e-12
1.69272e-12
3.92271e-13
7.97833e-14
1.38034e-14
2.4794e-15
4.25436e-16
6.94029e-17
1.09445e-17
1.67348e-18
2.49401e-19
3.66052e-20
5.36659e-21
7.99443e-22
1.49654e-22
-1.90008e-17
-8.28988e-16
-1.80415e-14
-3.55556e-13
-3.10582e-12
-2.34462e-11
-7.02138e-12
-1.11047e-11
-6.68344e-11
-1.94422e-10
-4.09905e-10
-6.43637e-10
-9.59964e-10
-1.61605e-09
-1.98258e-09
-9.92833e-10
-5.52442e-10
-6.84531e-10
-1.56739e-09
-3.32785e-09
-5.35201e-09
-5.99589e-09
-4.39927e-09
-2.04031e-09
-6.87896e-10
-2.1002e-10
3.0648e-12
7.14191e-12
6.70543e-12
3.01048e-12
9.97488e-13
2.82525e-13
5.35631e-14
1.03472e-14
1.78294e-15
3.0885e-16
5.17733e-17
8.2399e-18
1.26434e-18
1.88286e-19
2.73452e-20
3.90813e-21
5.56767e-22
8.04348e-23
1.48437e-23
-3.13255e-17
-1.07594e-15
-1.886e-14
-2.61561e-13
-2.22014e-12
-1.43605e-11
-3.05137e-12
-8.44734e-12
-4.52181e-11
-1.22346e-10
-2.43041e-10
-3.90719e-10
-6.39226e-10
-1.0236e-09
-1.09199e-09
-5.5586e-10
-3.70848e-10
-5.9953e-10
-1.41247e-09
-2.87029e-09
-4.42257e-09
-4.87047e-09
-3.60638e-09
-1.63196e-09
-3.80065e-10
-3.17924e-11
3.02118e-12
2.97975e-12
1.17972e-12
5.28679e-13
1.48169e-13
3.32948e-14
5.71849e-15
1.05936e-15
1.91096e-16
3.24981e-17
5.33677e-18
8.38628e-19
1.27102e-19
1.86778e-20
2.67319e-21
3.757e-22
5.24802e-23
7.41543e-24
1.35855e-24
-3.79025e-17
-1.16415e-15
-1.83909e-14
-1.9971e-13
-1.4683e-12
-6.56162e-12
-1.31685e-12
-5.54195e-12
-2.39036e-11
-5.95695e-11
-1.15405e-10
-1.99142e-10
-3.47522e-10
-5.18915e-10
-4.95007e-10
-2.62669e-10
-2.18451e-10
-4.24479e-10
-9.99065e-10
-1.96097e-09
-2.94679e-09
-3.23856e-09
-2.45583e-09
-1.15396e-09
-2.56337e-10
-8.01588e-13
2.44032e-12
1.01253e-12
2.18835e-13
7.63018e-14
1.8076e-14
3.02291e-15
5.18312e-16
9.01206e-17
1.67277e-17
2.84438e-18
4.64808e-19
7.3199e-20
1.11211e-20
1.63379e-21
2.33015e-22
3.25185e-23
4.49275e-24
6.26057e-25
1.15124e-25
-2.97587e-17
-8.64355e-16
-1.26485e-14
-1.18046e-13
-7.03824e-13
-2.17344e-12
-5.11101e-13
-2.36582e-12
-8.61367e-12
-2.06635e-11
-4.18694e-11
-8.04602e-11
-1.44671e-10
-2.00277e-10
-1.75469e-10
-9.8776e-11
-1.00181e-10
-2.14989e-10
-4.99826e-10
-9.59122e-10
-1.42789e-09
-1.58679e-09
-1.24493e-09
-6.19121e-10
-1.47051e-10
5.58459e-14
1.27936e-12
2.10693e-13
4.09759e-14
1.00061e-14
1.7655e-15
2.14901e-16
3.81086e-17
6.32642e-18
1.17492e-18
2.03909e-19
3.4009e-20
5.47052e-21
8.46305e-22
1.25957e-22
1.81044e-23
2.53314e-24
3.49122e-25
4.83673e-26
9.02356e-27
-1.42476e-17
-3.9541e-16
-5.34983e-15
-4.34297e-14
-2.09119e-13
-4.77432e-13
-1.13805e-13
-5.04616e-13
-1.70683e-12
-4.39841e-12
-1.04038e-11
-2.27394e-11
-4.10589e-11
-5.29191e-11
-4.34024e-11
-2.52916e-11
-2.76434e-11
-6.00984e-11
-1.37413e-10
-2.60653e-10
-3.89049e-10
-4.41413e-10
-3.60733e-10
-1.90877e-10
-4.94549e-11
5.47719e-14
2.19333e-13
2.40011e-14
5.59716e-15
8.05072e-16
9.86961e-17
1.0097e-17
1.9361e-18
3.3875e-19
6.41712e-20
1.17412e-20
2.06482e-21
3.47611e-22
5.57836e-23
8.53643e-24
1.25154e-24
1.77351e-25
2.45965e-26
3.41565e-27
6.54049e-28
-3.16971e-18
-8.34412e-17
-1.0339e-15
-7.32844e-15
-2.92407e-14
-5.17861e-14
-2.38504e-15
-1.36174e-14
-8.12696e-14
-3.72584e-13
-1.28933e-12
-3.28345e-12
-5.92972e-12
-7.19688e-12
-5.49905e-12
-2.72854e-12
-1.51818e-12
-1.74497e-12
-3.65084e-12
-6.66065e-12
-9.23138e-12
-9.41256e-12
-6.7643e-12
-3.13052e-12
-6.82222e-13
3.31449e-14
1.12162e-14
1.24416e-15
3.02623e-16
1.35011e-17
4.76526e-19
1.58225e-19
4.82498e-20
1.15772e-20
2.49854e-21
5.19419e-22
1.01258e-22
1.8479e-23
3.15387e-24
5.05474e-25
7.66698e-26
1.11283e-26
1.56772e-27
2.20135e-28
4.39421e-29
0
-3.22751e-41
-7.09934e-39
-2.11917e-37
-1.20764e-35
-6.43444e-34
-2.85049e-32
-1.07214e-30
-3.49752e-29
-1.0021e-27
-2.53902e-26
-6.14035e-25
-4.29549e-27
-5.73855e-26
-1.25643e-22
1.77038e-14
2.40054e-13
5.76745e-13
6.82762e-13
6.81141e-13
2.83515e-13
6.09652e-14
-8.09299e-34
4.46174e-33
1.03135e-17
2.71809e-16
2.87999e-17
1.08298e-17
9.4115e-19
2.18374e-20
5.74621e-21
2.03934e-21
7.58388e-22
2.29425e-22
6.13723e-23
1.46451e-23
3.64417e-24
7.84494e-25
1.49861e-25
2.58454e-26
4.13155e-27
6.22775e-28
9.00897e-29
1.29162e-29
2.72777e-30
-7.74402e-39
-4.86853e-52
9.53214e-37
1.00406e-34
7.18169e-33
3.97052e-31
1.80531e-29
6.99513e-28
2.3622e-26
7.05628e-25
1.8839e-23
7.18779e-22
1.59672e-19
2.87647e-19
7.13406e-19
4.37579e-17
9.39972e-15
9.9552e-14
2.55201e-13
2.58918e-13
2.90354e-13
1.04348e-13
1.30465e-14
9.19873e-16
3.53003e-17
1.24069e-18
5.85883e-19
8.99791e-20
3.54819e-22
2.59356e-22
1.42868e-22
6.18894e-23
2.64231e-23
8.90609e-24
2.63031e-24
6.64389e-25
1.50237e-25
3.02989e-26
5.62423e-27
1.10206e-27
1.93091e-28
3.08368e-29
4.64313e-30
6.87618e-31
1.5622e-31
-6.02937e-38
-1.85493e-50
-1.27414e-37
-1.30169e-35
-9.00751e-34
-4.75405e-32
-2.0898e-30
-7.83122e-29
-2.55807e-27
-7.39403e-26
-1.90438e-24
3.85641e-22
1.15695e-19
8.66926e-19
1.4453e-18
2.05803e-18
2.19888e-18
2.71216e-18
8.50992e-19
4.04962e-19
3.5375e-19
3.20946e-19
4.37022e-19
4.81541e-19
2.09156e-19
4.9362e-20
1.21868e-20
1.87388e-21
4.82923e-24
4.43026e-24
2.96944e-24
1.72824e-24
8.86178e-25
3.41774e-25
1.11414e-25
3.03642e-26
7.09576e-27
1.46284e-27
2.71624e-28
4.70339e-29
7.65634e-30
1.32289e-30
2.12875e-31
3.30587e-32
8.24781e-33
-6.7933e-38
-1.69796e-36
-1.75449e-35
-8.37871e-35
-5.76758e-35
-1.53824e-34
-5.29499e-33
-1.75113e-31
-5.1076e-30
-1.32888e-28
-3.11961e-27
4.6663e-27
1.37001e-25
2.54676e-24
2.00918e-22
3.63671e-20
5.4064e-19
2.17781e-18
3.2546e-18
3.14488e-18
1.46487e-18
1.72942e-19
2.29111e-20
1.08749e-20
5.77635e-21
2.10166e-21
4.6259e-22
4.69671e-23
1.33134e-24
4.41489e-25
6.73528e-26
4.38506e-26
2.51728e-26
1.12227e-26
4.0708e-27
1.20532e-27
3.03216e-28
6.61486e-29
1.28023e-29
2.22957e-30
3.57777e-31
5.4798e-32
8.48902e-33
1.4238e-33
4.00988e-34
0
0
-6.38531e-46
-1.2576e-43
-1.24698e-41
1.25348e-37
3.98139e-36
1.34945e-34
3.60989e-33
8.6329e-32
1.8662e-30
3.73429e-29
1.0215e-27
1.05307e-25
1.9784e-23
2.96685e-22
2.10555e-21
8.29033e-21
1.67151e-20
1.2132e-20
3.40325e-21
1.93455e-21
1.00557e-21
4.14991e-22
1.60213e-22
5.09454e-23
1.03643e-23
1.13927e-24
9.59872e-26
2.09506e-26
3.20528e-27
1.79639e-27
6.14839e-28
3.21774e-28
1.31101e-28
4.2481e-29
1.147e-29
2.64595e-30
5.35558e-31
9.73962e-32
1.61136e-32
2.46767e-33
3.61784e-34
5.53758e-35
1.79182e-35
-7.08464e-63
-2.26297e-47
4.41968e-45
4.47515e-43
2.12395e-41
-1.23192e-39
4.80569e-38
1.43945e-36
3.78211e-35
8.91576e-34
1.91569e-32
7.0836e-31
2.25999e-29
4.62981e-28
7.1627e-26
3.44864e-24
2.86539e-23
9.13819e-23
1.62102e-22
2.01275e-22
2.06229e-22
1.08735e-22
3.76301e-23
1.52359e-23
6.38741e-24
2.18282e-24
5.05661e-25
7.16798e-26
6.57584e-27
6.35914e-28
1.1965e-28
8.39612e-29
1.68133e-29
7.90872e-30
3.68841e-30
1.31988e-30
3.85411e-31
9.46365e-32
2.01363e-32
3.81099e-33
6.51444e-34
1.03066e-34
1.53421e-35
2.24316e-36
7.4028e-37
-1.95825e-46
-9.36151e-46
-2.31329e-45
-1.55738e-43
-8.5591e-42
-7.4135e-41
-2.49586e-39
-7.26818e-38
-1.88221e-36
-4.33674e-35
-8.97453e-34
7.05575e-33
2.11275e-31
4.36444e-30
9.69847e-28
6.62031e-26
6.75756e-25
2.43924e-24
4.60377e-24
5.89291e-24
6.14254e-24
3.76136e-24
1.43897e-24
6.23107e-25
2.94477e-25
1.18563e-25
3.26909e-26
5.40787e-27
4.86305e-28
3.1488e-29
7.10133e-30
1.47018e-30
6.15713e-31
1.65225e-31
8.97399e-32
3.5859e-32
1.14268e-32
3.00947e-33
6.77635e-34
1.34259e-34
2.38196e-35
3.88362e-36
5.94036e-37
8.83112e-38
2.84148e-38
-2.38346e-63
-1.40839e-58
3.32772e-49
2.22971e-47
1.3076e-45
5.72189e-44
1.87143e-42
6.9396e-41
1.95783e-39
4.94663e-38
1.13243e-36
2.37227e-35
7.25763e-34
1.50958e-32
5.0284e-30
5.8922e-28
7.99023e-27
3.5507e-26
7.71669e-26
1.08295e-25
1.18993e-25
9.58233e-26
4.337e-26
2.06015e-26
1.06116e-26
4.57071e-27
1.32191e-27
2.2637e-28
2.14843e-29
2.0221e-30
4.88849e-31
3.64153e-32
1.92845e-32
3.46945e-33
1.85695e-33
8.44284e-34
2.96764e-34
8.45795e-35
2.03073e-35
4.24016e-36
7.85414e-37
1.32679e-37
2.08948e-38
3.17582e-39
1.00632e-39
-4.45925e-67
-3.32189e-54
-3.07138e-51
-3.49152e-50
-2.61459e-48
-4.79362e-46
1.52396e-46
1.74768e-45
6.28465e-44
1.89622e-42
7.88699e-41
2.61428e-39
1.05958e-36
2.07835e-35
3.6272e-33
1.44982e-30
3.65573e-29
2.59474e-28
7.91242e-28
1.40096e-27
1.77187e-27
1.86121e-27
1.26934e-27
5.80375e-28
2.74663e-28
1.14462e-28
3.35003e-29
5.91057e-30
5.55005e-31
3.94759e-32
8.06533e-33
1.32856e-33
2.57408e-34
9.90601e-35
3.22094e-35
1.70539e-35
6.69814e-36
2.08742e-36
5.39084e-37
1.19514e-37
2.32662e-38
4.09627e-39
6.67699e-40
1.04031e-40
3.29378e-41
-2.08033e-57
-4.99639e-55
-1.71433e-53
-1.24846e-51
-6.94594e-50
-7.43686e-49
-2.69345e-47
-7.93911e-46
-2.09741e-44
-4.90633e-43
-1.02407e-41
1.70407e-42
1.23835e-39
2.45892e-38
5.9293e-37
3.95959e-34
4.48197e-32
8.44077e-31
5.23197e-30
1.46141e-29
2.4265e-29
2.91454e-29
2.95644e-29
1.70217e-29
6.6016e-30
2.4758e-30
7.6489e-31
1.56208e-31
1.82231e-32
1.58416e-33
2.67126e-34
2.68652e-35
4.78661e-36
2.77861e-36
4.87801e-37
2.91715e-37
1.30244e-37
4.49306e-38
1.26065e-38
2.99272e-39
6.16803e-40
1.13915e-40
1.93296e-41
3.1015e-42
9.88593e-43
-4.72324e-75
5.35916e-61
6.15421e-59
2.13773e-57
2.80291e-55
1.22975e-53
2.62418e-53
2.39228e-50
7.48855e-49
2.12305e-47
5.46147e-46
1.29472e-44
4.39614e-43
1.04548e-41
1.99813e-40
8.61325e-38
3.45708e-35
1.15212e-33
1.24628e-32
5.47575e-32
1.28074e-31
1.98278e-31
2.34064e-31
2.37683e-31
1.40834e-31
5.32578e-32
1.67254e-32
3.56869e-33
4.2888e-34
3.13484e-35
4.0907e-36
5.85133e-37
1.5686e-37
3.34269e-38
1.11711e-38
4.13172e-39
2.16038e-39
8.37156e-40
2.58175e-40
6.62617e-41
1.45769e-41
2.84418e-42
5.05545e-43
8.39417e-44
2.71332e-44
3.77649e-79
-4.75997e-64
-3.06095e-61
-6.54399e-60
-5.25404e-58
-6.87525e-56
-1.6706e-55
-6.84373e-54
-1.95258e-52
-5.02646e-51
-1.05508e-49
-1.74715e-48
1.18093e-46
3.12085e-45
5.97442e-44
3.74171e-42
3.25953e-39
2.52927e-37
8.45741e-36
1.08186e-34
5.43385e-34
1.34207e-33
2.05689e-33
2.34639e-33
2.2038e-33
9.96487e-34
2.70686e-34
5.6913e-35
8.88858e-36
1.00479e-36
1.03459e-37
1.42553e-38
3.06817e-39
5.05731e-40
2.60212e-40
4.84321e-41
3.02176e-41
1.33902e-41
4.60114e-42
1.29079e-42
3.05884e-43
6.35483e-44
1.19124e-44
2.05825e-45
6.81158e-46
-1.53254e-68
-4.00075e-66
-1.85453e-64
-1.54936e-62
-9.65826e-61
-1.19365e-59
-4.99833e-58
-1.60286e-56
-4.67804e-55
-1.20295e-53
-2.73539e-52
-9.35454e-52
5.09225e-50
1.2418e-48
2.53127e-47
1.07252e-45
5.95407e-43
3.76107e-41
1.57395e-39
4.71079e-38
6.2377e-37
3.29909e-36
8.35557e-36
1.27823e-35
1.44628e-35
1.29855e-35
5.28062e-36
1.21387e-36
1.96603e-37
2.32492e-38
2.28509e-39
2.32025e-40
3.99691e-41
1.24038e-41
2.71358e-42
8.19309e-43
3.48086e-43
1.82125e-43
7.08675e-44
2.20072e-44
5.6759e-45
1.26648e-45
2.52213e-46
4.56105e-47
1.56468e-47
4.25976e-88
5.19869e-73
5.53213e-71
-6.13291e-69
1.99897e-67
8.18012e-67
-3.80435e-63
5.31349e-62
1.8667e-60
6.34394e-59
1.95619e-57
5.67703e-56
2.34959e-54
8.14972e-53
1.77687e-51
2.25475e-49
2.19388e-46
1.3653e-44
4.98723e-43
1.83318e-41
4.42671e-40
4.41615e-39
1.81847e-38
3.84619e-38
5.27721e-38
5.71208e-38
4.34062e-38
1.51001e-38
3.4081e-39
5.56653e-40
6.49413e-41
6.5635e-42
8.43641e-43
1.62646e-43
4.23039e-44
1.5949e-44
3.29081e-45
2.08295e-45
9.36037e-46
3.2654e-46
9.27354e-47
2.24385e-47
4.78522e-48
9.11331e-49
3.41641e-49
2.76029e-92
-2.46863e-76
-1.57211e-73
-4.65767e-72
-4.4124e-70
-5.8548e-68
-2.12838e-67
-1.02363e-65
-3.27317e-64
-9.42343e-63
-2.15891e-61
-3.49057e-60
3.07112e-58
9.10602e-57
2.1281e-55
1.38405e-53
1.37268e-50
9.93758e-49
3.05413e-47
8.03398e-46
2.40861e-44
6.94854e-43
1.00546e-41
5.6606e-41
1.4395e-40
2.13675e-40
2.36e-40
1.85569e-40
6.17889e-41
1.15552e-41
1.38165e-42
1.09841e-43
1.04369e-44
2.63619e-45
1.0219e-45
1.45121e-46
4.75371e-47
1.95798e-47
1.05082e-47
4.19054e-48
1.32809e-48
3.52225e-49
8.11424e-50
1.6375e-50
6.90565e-51
-1.38611e-81
-4.30829e-79
-2.53463e-77
-2.53655e-75
-1.87367e-73
-2.76082e-72
-1.38278e-70
-5.18554e-69
-1.76797e-67
-5.30706e-66
-1.3991e-64
-9.43728e-64
2.62337e-62
7.86296e-61
1.97807e-59
1.4734e-57
1.80614e-54
1.461e-52
4.76346e-51
1.19492e-49
2.83306e-48
7.71823e-47
2.01714e-45
2.7895e-44
1.58019e-43
4.12796e-43
6.2678e-43
6.98366e-43
5.63817e-43
1.86441e-43
3.07043e-44
2.87692e-45
2.53476e-46
3.59125e-47
7.41937e-48
2.64797e-48
7.08397e-49
1.50758e-49
9.92013e-50
4.61872e-50
1.65905e-50
4.88147e-51
1.22643e-51
2.63952e-52
1.28231e-52
2.56379e-101
1.20827e-86
1.58068e-84
-4.47786e-82
9.29987e-81
-2.33028e-79
-3.90023e-76
4.52767e-75
1.96531e-73
8.31494e-72
3.1907e-70
1.14887e-68
6.44425e-67
2.30566e-65
6.2688e-64
2.46286e-62
5.51873e-59
1.24214e-56
4.8535e-55
1.37338e-53
3.28341e-52
7.73326e-51
2.2014e-49
6.16789e-48
8.68395e-47
4.75901e-46
1.18092e-45
1.71768e-45
1.87388e-45
1.38213e-45
4.12398e-46
6.20787e-47
5.35415e-48
6.28223e-49
9.92597e-50
2.65932e-50
8.77758e-51
2.1351e-51
7.69963e-52
4.3367e-52
1.79811e-52
5.9508e-53
1.64774e-53
3.80849e-54
2.19698e-54
-5.77536e-105
-2.62155e-90
-1.90135e-87
-7.21246e-86
-8.42134e-84
-1.27814e-81
-4.90925e-81
-2.99999e-79
-1.063e-77
-3.25213e-76
-6.34925e-75
3.11251e-74
3.55419e-71
1.21979e-69
3.73148e-68
1.04481e-66
4.01658e-64
3.78642e-61
1.77654e-59
5.70916e-58
1.51818e-56
3.54031e-55
7.87831e-54
2.05602e-52
6.63771e-51
1.33766e-49
9.94895e-49
2.91646e-48
4.47808e-48
4.8882e-48
3.26501e-48
8.10081e-49
1.01036e-49
9.08508e-51
1.00426e-51
2.30566e-52
1.11841e-52
3.50719e-53
4.94291e-54
3.43488e-54
1.6806e-54
6.35586e-55
1.96205e-55
4.90887e-56
3.47938e-56
-4.10638e-96
-1.57021e-93
-1.14728e-91
-1.41726e-89
-1.2813e-87
-2.22732e-86
-1.38475e-84
-6.26997e-83
-2.57096e-81
-9.24113e-80
-2.87663e-78
-2.2615e-77
1.1367e-75
4.09599e-74
1.35616e-72
4.10723e-71
2.24511e-68
2.76622e-65
1.47022e-63
5.0665e-62
1.43045e-60
3.52582e-59
7.86162e-58
1.71009e-56
4.32127e-55
1.31486e-53
2.64288e-52
2.08403e-51
6.5483e-51
1.05366e-50
1.16965e-50
8.02363e-51
1.87774e-51
1.90086e-52
1.9539e-53
2.5848e-54
7.59001e-55
3.31506e-55
1.08973e-55
2.24905e-56
1.3453e-56
5.92211e-57
2.06558e-57
5.61051e-58
4.65348e-58
2.34133e-114
2.92836e-101
5.65129e-99
-9.25442e-97
7.71052e-95
3.14225e-93
-1.7175e-90
4.75307e-89
2.70013e-87
1.43524e-85
6.92673e-84
3.09476e-82
2.24946e-80
8.78475e-79
3.15482e-77
1.03794e-75
2.77075e-73
6.08771e-70
5.38367e-68
2.22527e-66
7.23741e-65
2.04619e-63
5.21295e-62
1.22293e-60
2.82878e-59
7.7872e-58
2.68419e-56
5.92377e-55
4.83537e-54
1.522e-53
2.429e-53
2.67822e-53
1.76671e-53
3.77944e-54
3.05117e-55
4.30045e-56
7.88013e-57
2.50051e-57
1.08014e-57
1.84248e-58
9.10609e-59
4.79045e-59
1.91743e-59
5.65394e-60
5.68603e-60
-8.76222e-121
-2.73303e-105
-2.35295e-102
-1.14547e-100
-1.64915e-98
-2.94057e-96
-1.02209e-95
-7.40424e-94
-1.84821e-92
1.52135e-91
6.84925e-89
6.05079e-87
6.31903e-85
2.62386e-83
1.02428e-81
3.74425e-80
1.40432e-78
1.67379e-75
1.23004e-72
6.356e-71
2.37354e-69
7.55055e-68
2.16906e-66
5.76855e-65
1.43382e-63
3.47384e-62
9.85668e-61
3.95939e-59
1.14151e-57
1.11362e-56
3.71165e-56
5.79931e-56
6.14306e-56
3.15577e-56
5.41407e-57
6.20914e-58
9.52067e-59
2.03979e-59
7.77863e-60
3.26783e-60
5.22036e-61
3.34565e-61
1.56387e-61
5.01177e-62
6.35136e-62
-1.75936e-111
-8.12332e-109
-7.44339e-107
-1.12485e-104
-1.23995e-102
-2.69199e-101
-2.05186e-99
-1.07947e-97
-5.20952e-96
-2.14602e-94
-7.02415e-93
1.53179e-91
1.02941e-89
4.64251e-88
1.97822e-86
8.01222e-85
3.00708e-83
2.51468e-80
5.02487e-77
3.3878e-75
1.4223e-73
4.90292e-72
1.49785e-70
4.20005e-69
1.09978e-67
2.71957e-66
6.63762e-65
1.88847e-63
7.47703e-62
2.24923e-60
2.38708e-59
8.53811e-59
1.37535e-58
1.45179e-58
6.67851e-59
8.78065e-60
1.10674e-60
1.78476e-61
6.75526e-62
2.47829e-62
8.17142e-63
1.9999e-63
1.11614e-63
4.03312e-64
6.45058e-64
4.49654e-133
1.46585e-116
3.87555e-114
1.30425e-113
9.8085e-110
1.04109e-107
-7.64758e-106
1.04037e-103
7.60331e-102
5.12328e-100
3.12235e-98
3.13517e-96
1.66689e-94
8.23288e-93
3.84462e-91
1.70749e-89
7.04499e-88
4.20122e-86
1.79919e-82
6.4495e-80
3.60864e-78
1.49538e-76
5.32492e-75
1.72302e-73
5.21414e-72
1.49525e-70
4.08625e-69
1.11081e-67
3.61194e-66
1.68303e-64
5.51924e-63
5.9232e-62
2.08875e-61
3.30306e-61
3.43531e-61
1.45628e-61
1.67461e-62
2.83671e-63
5.1846e-64
2.02999e-64
8.34963e-65
1.88022e-65
6.94367e-66
3.01946e-66
5.74237e-66
-1.49288e-136
-5.441e-121
-6.03754e-118
-3.0576e-116
-5.82295e-114
-1.41126e-111
7.82456e-111
4.12236e-109
5.63162e-107
4.4847e-105
3.12975e-103
3.98523e-101
2.31114e-99
1.25673e-97
6.46766e-96
3.16808e-94
1.4845e-92
6.50799e-91
2.56196e-88
8.76178e-85
9.05122e-83
4.6873e-81
1.94876e-79
7.17944e-78
2.44915e-76
7.93498e-75
2.47097e-73
7.40725e-72
2.21972e-70
8.18089e-69
4.67451e-67
1.737e-65
1.82764e-64
5.81009e-64
8.18525e-64
7.51849e-64
2.18009e-64
3.30649e-65
6.36616e-66
1.68149e-66
6.34814e-67
2.54756e-67
4.43932e-68
2.26401e-68
4.60518e-68
-1.33974e-127
-7.54948e-125
-7.84023e-123
-1.52377e-120
-2.10184e-118
-3.77757e-117
-4.53516e-115
-2.72542e-113
-1.617e-111
-4.9561e-110
3.94357e-108
3.52002e-106
2.25348e-104
1.35862e-102
7.76181e-101
4.22467e-99
2.20131e-97
1.10286e-95
5.20541e-94
6.09067e-91
1.81996e-87
1.45177e-85
7.39565e-84
3.14312e-82
1.20122e-80
4.28123e-79
1.45382e-77
4.75189e-76
1.50151e-74
4.79552e-73
1.90675e-71
1.1706e-69
4.5835e-68
4.94796e-67
1.56623e-66
2.17064e-66
1.78038e-66
3.80227e-67
7.58166e-68
1.39103e-68
5.73102e-69
2.27036e-69
7.02598e-70
2.35741e-70
3.33564e-70
5.63608e-146
8.63987e-133
2.90849e-130
4.51755e-128
1.17638e-125
1.66884e-123
4.24225e-122
2.59954e-119
2.57073e-117
4.35333e-115
3.59029e-113
2.74198e-111
1.96177e-109
1.32379e-107
8.47443e-106
5.17297e-104
3.02481e-102
1.70138e-100
9.24082e-99
4.75748e-97
4.87196e-94
1.67029e-90
1.4247e-88
7.89435e-87
3.68836e-85
1.56543e-83
6.26007e-82
2.4101e-80
9.00683e-79
3.26846e-77
1.21861e-75
6.11435e-74
4.71278e-72
1.75382e-70
1.61058e-69
4.44643e-69
5.78401e-69
4.21318e-69
8.00182e-70
1.83709e-70
3.85942e-71
1.88599e-71
7.3184e-72
2.54605e-72
2.31882e-72
1.62099e-147
-1.55731e-137
-1.94831e-134
-1.67456e-132
-3.42791e-130
-8.81961e-128
-1.14733e-126
-8.07111e-125
7.25596e-123
1.55872e-120
1.44201e-118
1.24334e-116
1.00662e-114
7.70016e-113
5.59531e-111
3.88063e-109
2.57987e-107
1.65055e-105
1.01999e-103
6.10955e-102
3.48666e-100
4.2961e-97
1.91122e-93
1.88597e-91
1.15476e-89
5.93394e-88
2.77294e-86
1.22437e-84
5.22213e-83
2.16877e-81
8.78418e-80
3.73339e-78
2.31069e-76
2.11951e-74
7.44049e-73
5.88712e-72
1.3944e-71
1.63085e-71
7.97472e-72
1.9986e-72
4.18828e-73
1.32525e-73
6.1165e-74
2.24064e-74
1.57987e-74
-8.6925e-145
-6.18619e-142
-9.47936e-140
-2.08093e-137
-3.603e-135
-1.80188e-133
-1.68921e-131
-4.40016e-130
3.77137e-128
4.31139e-126
4.57056e-124
4.52961e-122
4.22418e-120
3.72757e-118
3.1277e-116
2.50635e-114
1.92588e-112
1.42436e-110
1.01756e-108
7.04558e-107
4.74355e-105
3.05858e-103
1.37847e-100
1.07526e-96
1.80883e-94
1.34011e-92
7.99784e-91
4.29356e-89
2.17218e-87
1.06133e-85
5.04459e-84
2.34293e-82
1.17725e-80
9.4074e-79
9.6789e-77
3.06706e-75
2.10924e-74
4.40253e-74
4.72175e-74
1.71377e-74
5.58029e-75
1.20027e-75
4.63382e-76
1.9173e-76
1.00594e-76
1.48312e-147
1.93616e-147
3.29806e-147
5.44737e-146
2.44618e-143
3.14575e-141
1.07783e-138
2.56362e-136
3.70457e-134
4.94553e-132
6.15401e-130
7.18417e-128
7.91032e-126
8.25367e-124
8.19564e-122
7.77539e-120
7.07439e-118
6.19487e-116
5.2389e-114
4.29282e-112
3.41918e-110
2.6553e-108
2.01649e-106
1.47829e-104
2.53098e-101
1.56097e-97
1.71366e-95
1.28579e-93
8.36114e-92
5.06259e-90
2.94618e-88
1.66062e-86
9.19295e-85
5.91227e-83
7.1053e-81
7.43486e-79
1.71153e-77
8.38061e-77
1.37294e-76
1.3406e-76
5.14074e-77
1.59701e-77
4.48059e-78
1.72538e-78
6.416e-79
2.00753e-148
3.34045e-148
1.41069e-147
1.87347e-147
1.78468e-147
-9.00747e-146
3.30725e-145
8.37746e-143
1.45224e-140
2.34787e-138
3.55834e-136
5.07608e-134
6.84174e-132
8.74518e-130
1.06395e-127
1.23646e-125
1.37747e-123
1.47614e-121
1.5268e-119
1.5292e-117
1.48786e-115
1.41063e-113
1.30711e-111
1.18715e-109
1.04526e-107
1.12138e-105
1.4316e-101
1.5739e-98
1.71985e-96
1.43377e-94
1.07089e-92
7.55753e-91
5.11268e-89
3.42084e-87
2.88616e-85
4.95609e-83
4.93928e-81
8.95859e-80
3.49183e-79
5.00212e-79
3.57202e-79
1.84488e-79
5.66197e-80
2.01889e-80
6.53089e-81
1.05697e-150
3.05869e-149
1.7439e-148
2.88343e-148
4.9289e-148
1.61203e-147
1.88417e-147
2.02791e-147
3.70411e-147
2.55476e-145
4.9445e-143
9.14578e-141
1.59927e-138
2.65061e-136
4.17681e-134
6.27878e-132
9.03518e-130
1.24892e-127
1.66404e-125
2.14428e-123
2.68112e-121
3.26323e-119
3.878e-117
4.51313e-115
5.15802e-113
5.80481e-111
6.43215e-109
7.23357e-107
3.50423e-103
1.68129e-99
2.31645e-97
2.41159e-95
2.24097e-93
1.93921e-91
1.69767e-89
2.25073e-87
5.26744e-85
3.85823e-83
4.80451e-82
1.44578e-81
1.82522e-81
1.33353e-81
6.60286e-82
2.54744e-82
9.37568e-83
5.89369e-154
3.05428e-152
6.51255e-151
7.87856e-150
5.51155e-149
1.93787e-148
3.00781e-148
4.40671e-148
1.46402e-147
1.84677e-147
1.94144e-147
2.50543e-147
3.51811e-146
8.10697e-144
1.88681e-141
4.13698e-139
8.59423e-137
1.70094e-134
3.22346e-132
5.8767e-130
1.03515e-127
1.76883e-125
2.9431e-123
4.78494e-121
7.62607e-119
1.19501e-116
1.84618e-114
2.81893e-112
4.26341e-110
6.34317e-108
1.32954e-104
2.58056e-100
5.10868e-98
6.98316e-96
8.26711e-94
1.02303e-91
2.38513e-89
6.55542e-87
3.41006e-85
2.85974e-84
6.4472e-84
7.09471e-84
5.88312e-84
2.82709e-84
1.20763e-84
1.61826e-158
5.68547e-157
1.56844e-155
3.71739e-154
7.76697e-153
1.36767e-151
1.87536e-150
1.79478e-149
1.01997e-148
2.77254e-148
3.64748e-148
9.46049e-148
1.61343e-147
1.88929e-147
1.9597e-147
1.45007e-147
-9.95384e-146
-7.2147e-144
5.9545e-141
3.79263e-138
1.47355e-135
4.8174e-133
1.43664e-130
4.04356e-128
1.09379e-125
2.87508e-123
7.39737e-121
1.87255e-118
4.68067e-116
1.15836e-113
2.84308e-111
6.8845e-109
7.28067e-106
3.73234e-101
1.69482e-98
3.59907e-96
8.30438e-94
4.22721e-91
9.57814e-89
2.97611e-87
1.73468e-86
3.23234e-86
3.63359e-86
2.61959e-86
1.31112e-86
4.69041e-166
1.18127e-164
3.42034e-163
1.21855e-161
5.13792e-160
2.31996e-158
1.01788e-156
4.01404e-155
1.3391e-153
3.58601e-152
7.27144e-151
1.02424e-149
8.58754e-149
3.22626e-148
4.39198e-148
1.24882e-147
1.06194e-147
7.31698e-148
6.73242e-148
-4.29339e-147
-1.57765e-144
-4.62367e-142
-1.30197e-139
-3.53022e-137
-9.19622e-135
-2.27068e-132
-5.03469e-130
-7.61102e-128
3.16136e-125
5.61596e-122
4.82543e-119
3.63052e-116
2.61032e-113
1.82825e-110
1.24448e-107
1.13127e-103
1.6801e-98
1.3984e-95
1.23742e-92
1.73218e-90
3.24083e-89
1.23791e-88
1.81013e-88
1.89126e-88
1.15054e-88
6.84332e-183
1.38309e-181
5.80769e-180
4.5932e-178
5.68774e-176
9.41316e-174
1.80873e-171
3.57555e-169
6.68828e-167
1.12764e-164
1.6676e-162
2.12554e-160
2.29962e-158
2.07427e-156
1.52131e-154
8.72922e-153
3.67077e-151
9.94869e-150
1.26449e-148
3.72452e-148
1.20185e-147
1.00659e-147
6.37968e-148
-2.25021e-148
-1.65061e-146
2.53669e-142
-9.47317e-141
-6.77034e-138
-4.86754e-135
-3.42678e-132
-2.3658e-129
-1.60258e-126
-1.0648e-123
-6.92852e-121
-4.39958e-118
-2.70817e-115
-1.59687e-112
7.58532e-103
3.61614e-97
3.40939e-94
3.49779e-92
8.63895e-91
6.2864e-90
1.25015e-89
7.59115e-90
)
;

boundaryField
{
    leftWall
    {
        type            zeroGradient;
    }
    rightWall
    {
        type            zeroGradient;
    }
    lowerWall
    {
        type            zeroGradient;
    }
    atmosphere
    {
        type            inletOutlet;
        inletValue      uniform 0;
        value           nonuniform List<scalar> 
45
(
0
0
0
0
0
0
0
0
0
0
0
0
0
0
0
0
0
0
0
0
0
0
0
0
0
0
0
0
0
0
0
0
0
0
0
0
0
0
0
0
3.49779e-92
8.63895e-91
6.2864e-90
1.25015e-89
7.59115e-90
)
;
    }
    defaultFaces
    {
        type            empty;
    }
    procBoundary2to0
    {
        type            processor;
        value           nonuniform List<scalar> 
46
(
-3.9601e-09
-5.45065e-09
-4.53805e-09
-3.52724e-09
-5.44447e-09
-5.43465e-09
-5.8856e-28
9.58183e-11
9.25648e-11
4.64977e-11
2.98691e-11
1.85943e-11
7.47729e-12
2.06047e-12
4.85023e-13
9.77994e-14
1.76788e-14
3.14779e-15
5.45889e-16
9.10897e-17
1.47478e-17
2.35042e-18
3.75058e-19
6.1095e-20
1.21552e-20
1.14273e-15
-1.4341e-16
-1.82712e-14
-5.92001e-13
-4.74047e-12
-3.53084e-11
-1.8147e-11
-1.67111e-11
-9.67547e-11
-3.0558e-10
-6.94186e-10
-1.12882e-09
-1.45668e-09
-2.3483e-09
-3.82863e-09
-2.04922e-09
-9.57352e-10
-6.47795e-10
-1.15683e-09
-2.65446e-09
-2.65446e-09
)
;
    }
    procBoundary2to3
    {
        type            processor;
        value           nonuniform List<scalar> 
43
(
8.3258e-22
8.87527e-23
8.60905e-24
7.69337e-25
6.44957e-26
5.0662e-27
3.72093e-28
2.54843e-29
1.62651e-30
9.6611e-32
5.33195e-33
2.73003e-34
1.29482e-35
5.68015e-37
2.30201e-38
8.60799e-40
2.96434e-41
9.39509e-43
2.73743e-44
7.31747e-46
1.79347e-47
3.98674e-49
8.08718e-51
1.53543e-52
2.69525e-54
4.37285e-56
6.67144e-58
9.32537e-60
1.19567e-61
1.4053e-63
1.52155e-65
1.5049e-67
1.28521e-69
9.91112e-72
7.00972e-74
4.53871e-76
2.7012e-78
1.50872e-80
8.59455e-83
6.68708e-85
6.39044e-87
5.50525e-89
7.59115e-90
)
;
    }
}


// ************************************************************************* //
