/*--------------------------------*- C++ -*----------------------------------*\
| =========                 |                                                 |
| \\      /  F ield         | OpenFOAM: The Open Source CFD Toolbox           |
|  \\    /   O peration     | Version:  5.0                                   |
|   \\  /    A nd           | Web:      www.OpenFOAM.org                      |
|    \\/     M anipulation  |                                                 |
\*---------------------------------------------------------------------------*/
FoamFile
{
    version     2.0;
    format      ascii;
    class       surfaceScalarField;
    location    "0.2";
    object      alphaPhi10;
}
// * * * * * * * * * * * * * * * * * * * * * * * * * * * * * * * * * * * * * //

dimensions      [0 3 -1 0 0 0 0];

internalField   nonuniform List<scalar> 
3742
(
8.48285e-14
3.74985e-13
8.53222e-14
4.05331e-13
7.30576e-14
2.71141e-13
9.48408e-14
1.26727e-13
8.28234e-14
6.73263e-14
-1.90408e-15
2.85092e-14
-1.96365e-15
-2.93347e-17
-2.2832e-15
-1.4084e-16
-1.44515e-15
2.29721e-16
-8.12269e-16
2.79759e-16
-4.12842e-16
2.16083e-16
-1.38482e-16
1.09574e-16
-3.33673e-17
3.3333e-17
-6.71389e-18
7.99753e-18
-1.26917e-18
1.60734e-18
-2.18395e-19
3.243e-19
-3.59711e-20
6.03275e-20
-5.70115e-21
1.06411e-20
-8.64087e-22
1.80297e-21
-1.25977e-22
2.93384e-22
-1.78806e-23
4.62295e-23
-2.50829e-24
7.1547e-24
-3.51126e-25
1.1075e-24
-3.86064e-26
1.7574e-25
3.37977e-26
9.18831e-23
1.59775e-21
-1.41059e-21
6.98965e-20
-6.27038e-20
1.45107e-18
-2.13698e-18
2.77241e-17
-2.06072e-17
2.37832e-16
-1.65996e-16
1.78051e-15
-6.59924e-17
5.3232e-16
-6.61368e-17
8.43841e-16
-3.3561e-16
5.10005e-15
-7.78336e-16
1.49042e-14
-1.08914e-15
3.15456e-14
-6.36775e-16
4.96567e-14
1.25444e-15
7.41014e-14
6.10069e-15
1.24508e-13
5.49176e-15
1.51989e-13
4.07923e-15
7.54379e-14
5.14413e-15
4.13894e-14
1.43501e-14
5.02212e-14
4.11238e-14
1.1156e-13
8.90028e-14
2.2688e-13
1.28179e-13
3.43417e-13
1.15796e-13
3.53369e-13
7.49364e-14
2.30129e-13
5.74516e-14
9.02767e-14
3.79312e-14
2.40163e-14
-7.74965e-16
5.18156e-15
-7.61347e-16
-4.29516e-17
-9.84164e-16
-3.52514e-17
-6.8735e-16
7.6217e-17
-3.1324e-16
9.40695e-17
-1.21617e-16
5.11725e-17
-3.11006e-17
2.02106e-17
-6.6156e-18
4.97174e-18
-1.194e-18
1.134e-18
-2.14313e-19
2.19494e-19
-3.60707e-20
4.28862e-20
-5.76049e-21
7.8699e-21
-8.8305e-22
1.35614e-21
-1.29862e-22
2.23458e-22
-1.84169e-23
3.53811e-23
-2.54661e-24
5.42334e-24
-3.4846e-25
8.1514e-25
-4.76394e-26
1.22218e-25
-5.48752e-27
1.87334e-26
3.52032e-27
-1.68699e-23
2.66193e-21
-6.02277e-22
9.05447e-20
-2.19815e-20
1.52618e-18
-6.37843e-19
2.05454e-17
-6.78787e-18
1.70879e-16
-5.34103e-17
1.09187e-15
-1.43414e-17
2.30619e-16
-1.66522e-17
6.37322e-16
-4.61187e-17
3.41393e-15
1.4024e-16
9.25263e-15
1.00404e-15
1.8408e-14
2.82181e-15
2.9605e-14
7.23012e-15
4.83621e-14
1.22424e-14
7.71218e-14
8.01251e-15
8.16449e-14
5.6351e-15
4.10516e-14
8.63387e-15
2.68895e-14
2.40695e-14
4.23402e-14
6.14631e-14
9.61363e-14
1.17563e-13
1.85647e-13
1.54796e-13
2.66749e-13
1.31622e-13
2.67064e-13
6.95421e-14
1.73632e-13
2.61755e-14
6.57338e-14
8.727e-15
1.19382e-14
-1.36054e-16
6.9533e-16
-3.28746e-16
-3.67922e-17
-3.36486e-16
-9.88453e-18
-2.11022e-16
1.83541e-17
-7.67196e-17
1.79794e-17
-2.38194e-17
7.78348e-18
-4.99307e-18
2.53822e-18
-9.99835e-19
5.5656e-19
-1.77062e-19
1.25709e-19
-3.08904e-20
2.5321e-20
-5.11512e-21
4.87685e-21
-8.01512e-22
8.8475e-22
-1.2027e-22
1.5077e-22
-1.73278e-23
2.44921e-23
-2.40917e-24
3.8159e-24
-3.26586e-25
5.74362e-25
-4.37934e-26
8.45366e-26
-5.86478e-27
1.23703e-26
-6.96869e-28
1.84453e-27
3.39912e-28
3.22206e-22
3.20946e-21
1.36173e-20
9.74759e-20
1.8905e-19
1.48821e-18
1.36249e-18
1.57089e-17
8.43019e-18
1.13051e-16
2.30636e-18
4.9779e-16
9.9136e-18
9.89756e-17
8.37698e-17
4.14357e-16
3.40257e-16
1.78251e-15
9.56963e-16
4.43615e-15
2.07072e-15
8.58364e-15
4.38036e-15
1.47799e-14
8.79394e-15
2.56884e-14
1.14909e-14
3.80946e-14
7.04064e-15
3.59493e-14
5.58027e-15
1.87733e-14
1.06089e-14
1.5261e-14
2.91461e-14
2.87299e-14
6.85322e-14
6.47604e-14
1.2119e-13
1.19919e-13
1.51731e-13
1.66684e-13
1.26277e-13
1.65074e-13
6.33408e-14
1.08911e-13
1.60891e-14
4.2419e-14
1.44311e-15
7.27548e-15
-1.54013e-16
1.56827e-17
-1.48823e-16
-2.93068e-17
-8.48548e-17
-2.44109e-18
-4.06396e-17
2.63936e-18
-1.30623e-17
2.35455e-18
-3.29909e-18
9.09618e-19
-6.23919e-19
2.39166e-19
-1.20714e-19
5.20544e-20
-2.19636e-20
1.15654e-20
-3.80375e-21
2.45355e-21
-6.24429e-22
4.74898e-22
-9.71e-23
8.60951e-23
-1.44338e-23
1.46885e-23
-2.05747e-24
2.38158e-24
-2.82668e-25
3.68935e-25
-3.78056e-26
5.50076e-26
-4.99312e-27
7.98885e-27
-6.57484e-28
1.14885e-27
-7.98767e-29
1.67751e-28
3.05178e-29
1.20193e-21
2.48915e-21
3.4635e-20
7.16384e-20
4.76535e-19
1.01717e-18
4.04527e-18
9.24175e-18
2.05529e-17
5.39249e-17
4.77018e-18
1.6382e-16
2.37766e-17
3.80735e-17
1.23531e-16
1.7481e-16
3.73179e-16
6.32881e-16
8.74419e-16
1.5117e-15
1.81153e-15
3.05054e-15
3.7591e-15
5.83316e-15
6.60871e-15
1.04163e-14
7.35466e-15
1.42778e-14
4.51624e-15
1.23333e-14
4.31599e-15
6.80644e-15
9.57644e-15
6.71784e-15
2.55833e-14
1.3896e-14
5.66416e-14
3.07611e-14
9.53377e-14
5.53264e-14
1.16386e-13
7.56501e-14
9.70554e-14
7.51957e-14
4.95588e-14
5.09446e-14
1.18014e-14
2.08442e-14
3.91244e-17
3.79531e-15
-1.21996e-16
-2.46561e-18
-7.9916e-17
-1.6775e-17
-1.83923e-17
-3.86319e-19
-6.62815e-18
4.86546e-19
-1.79573e-18
2.87317e-19
-3.51164e-19
9.04641e-20
-6.49415e-20
1.81821e-20
-1.21863e-20
4.16946e-21
-2.28249e-21
9.08676e-22
-3.99253e-22
1.99376e-22
-6.58593e-23
3.9514e-23
-1.02888e-23
7.28589e-24
-1.53213e-24
1.26081e-24
-2.18081e-25
2.06281e-25
-2.98279e-26
3.20665e-26
-3.96002e-27
4.77314e-27
-5.17703e-28
6.8872e-28
-6.73004e-29
9.79445e-29
-8.32326e-30
1.40897e-29
2.54692e-30
1.32564e-21
1.16988e-21
3.55918e-20
3.22656e-20
4.48267e-19
4.24961e-19
3.25126e-18
3.36439e-18
1.17362e-17
1.58589e-17
3.18538e-18
3.55884e-17
1.6996e-17
8.36938e-18
7.14657e-17
3.67245e-17
1.98235e-16
1.23194e-16
4.64066e-16
3.15224e-16
1.02746e-15
7.40462e-16
2.11971e-15
1.60575e-15
3.35081e-15
2.87088e-15
3.33549e-15
3.65204e-15
2.12274e-15
2.94296e-15
2.42219e-15
1.67482e-15
5.81968e-15
1.77375e-15
1.50709e-14
3.69926e-15
3.20308e-14
8.01119e-15
5.24704e-14
1.41622e-14
6.36653e-14
1.92988e-14
5.40411e-14
1.94669e-14
2.87714e-14
1.36572e-14
7.2335e-15
5.91271e-15
-4.55626e-17
1.16779e-15
-6.73499e-17
-1.07696e-18
-1.97457e-17
-3.26341e-18
-3.78237e-18
-3.76397e-20
-9.73972e-19
7.61647e-20
-1.97908e-19
2.85456e-20
-2.93658e-20
6.49093e-21
-5.54976e-21
1.07226e-21
-1.03507e-21
2.66383e-22
-1.98993e-22
5.98655e-23
-3.57494e-23
1.36228e-23
-6.02689e-24
2.8196e-24
-9.58197e-25
5.38687e-25
-1.4443e-25
9.57805e-26
-2.07012e-26
1.59705e-26
-2.83811e-27
2.51172e-27
-3.76147e-28
3.75859e-28
-4.89075e-29
5.42143e-29
-6.3023e-30
7.66778e-30
-7.92089e-31
1.09272e-30
1.97433e-31
7.56318e-22
2.54204e-22
1.91219e-20
6.6702e-21
2.15983e-19
8.06807e-20
1.29744e-18
5.58693e-19
3.51575e-18
2.18361e-18
9.71125e-19
3.79965e-18
4.9332e-18
1.72435e-19
1.90109e-17
9.72488e-19
5.56362e-17
5.74303e-18
1.49055e-16
2.60772e-17
3.67952e-16
8.93736e-17
7.47971e-16
2.25178e-16
1.08148e-15
4.01452e-16
9.91324e-16
4.79374e-16
6.43084e-16
3.58674e-16
7.79259e-16
1.73155e-16
1.87001e-15
9.29924e-17
4.69668e-15
1.02129e-16
9.73249e-15
2.0135e-16
1.57691e-14
3.40827e-16
1.92792e-14
4.29141e-16
1.68337e-14
3.8705e-16
9.42572e-15
2.37751e-16
2.55721e-15
8.97061e-17
-5.31551e-18
1.48677e-17
-1.20258e-17
-6.89492e-19
-2.31951e-18
-1.73204e-19
-5.48594e-19
-2.10811e-21
-9.04913e-20
6.15536e-21
-1.34531e-20
1.22942e-21
-1.77413e-21
2.20376e-22
-3.63526e-22
4.26094e-23
-7.22088e-23
1.25334e-23
-1.45589e-23
3.2057e-24
-2.742e-24
7.85083e-25
-4.80718e-25
1.73667e-25
-7.87676e-26
3.49558e-26
-1.21337e-26
6.46227e-27
-1.76466e-27
1.10811e-27
-2.44021e-28
1.77617e-28
-3.24546e-29
2.68883e-29
-4.21579e-30
3.89873e-30
-5.4064e-31
5.51247e-31
-6.90587e-32
7.822e-32
1.42101e-32
1.8368e-22
-1.25504e-41
4.32646e-21
-3.01308e-39
4.34807e-20
-3.33144e-37
2.19867e-19
-2.58007e-35
4.67053e-19
-1.56872e-33
2.50455e-20
-7.93554e-32
1.63726e-19
-3.45205e-30
1.10772e-18
-1.3174e-28
5.72069e-18
-4.46658e-27
2.21984e-17
-1.35665e-25
6.31498e-17
-3.71312e-24
1.26949e-16
-9.19875e-23
1.70914e-16
-2.06111e-21
1.44355e-16
-3.93459e-20
7.88726e-17
-2.85332e-19
4.81409e-17
-1.66967e-18
6.04511e-17
-1.39041e-17
1.37388e-16
-3.1747e-17
2.71019e-16
-3.59296e-17
4.03443e-16
-3.34417e-17
4.3856e-16
-1.52716e-17
3.3341e-16
-3.50963e-18
1.61782e-16
-4.04728e-19
3.66156e-17
-2.44902e-20
-1.82401e-18
-1.13005e-20
-1.04152e-18
-7.50319e-21
-1.21372e-19
-4.26204e-22
-3.2579e-20
-2.39902e-23
-2.55725e-21
1.13506e-22
-3.14566e-22
2.6236e-23
-6.4786e-23
6.3004e-24
-1.70871e-23
1.57328e-24
-4.02528e-24
5.28158e-25
-8.92963e-25
1.51822e-25
-1.81063e-25
4.01701e-26
-3.35721e-26
9.30905e-27
-5.73626e-27
1.99682e-27
-9.11029e-28
3.88129e-28
-1.35375e-28
6.90351e-29
-1.89889e-29
1.13527e-29
-2.54663e-30
1.7485e-30
-3.31889e-31
2.56166e-31
-4.25176e-32
3.63826e-32
-5.53133e-33
5.16494e-33
9.48976e-34
-1.31356e-41
5.85264e-43
-2.81434e-39
-2.11876e-40
-3.14492e-37
-2.14659e-38
-2.46007e-35
-1.51443e-36
-1.51026e-33
-8.30518e-35
-7.71129e-32
-3.75283e-33
-3.38446e-30
-1.44696e-31
-1.30259e-28
-4.86574e-30
-4.45209e-27
-1.44746e-28
-1.36271e-25
-3.84568e-27
-3.75754e-24
-9.18563e-26
-9.37331e-23
-2.01201e-24
-2.11541e-21
-3.9434e-23
-4.10235e-20
-4.37814e-22
-3.19671e-19
-6.68414e-21
-3.70452e-18
-5.54762e-20
-1.82969e-17
-1.26331e-18
-2.76306e-17
-9.67487e-18
-2.85115e-17
-1.27376e-17
-1.98212e-17
-1.91234e-17
-5.57261e-18
-1.20891e-17
-2.85436e-20
-3.83557e-18
-2.57745e-21
-4.30694e-19
-1.84883e-21
-2.52188e-20
-1.54476e-20
-7.02754e-22
-2.63881e-21
-3.25559e-23
-9.8465e-22
-8.39962e-24
-2.41598e-22
-2.72441e-25
-3.6456e-23
8.84166e-25
-8.80538e-24
3.38409e-25
-2.31018e-24
1.36998e-25
-7.12015e-25
4.69093e-26
-1.91702e-25
1.97183e-26
-4.72416e-26
6.64004e-27
-1.03285e-26
1.96137e-27
-2.05434e-27
4.93802e-28
-3.70596e-28
1.09433e-28
-6.12544e-29
2.156e-29
-9.35985e-30
3.86436e-30
-1.33869e-30
6.55906e-31
-1.8185e-31
1.03359e-31
-2.38732e-32
1.53739e-32
-3.06658e-33
2.20323e-33
-4.06939e-34
3.14339e-34
5.86817e-35
-4.92499e-42
4.40106e-42
-1.50827e-40
-6.59738e-41
-1.37036e-38
-7.90532e-39
-9.79001e-37
-5.48123e-37
-5.44181e-35
-2.95241e-35
-2.49388e-33
-1.30738e-33
-9.75484e-32
-4.9312e-32
-3.32651e-30
-1.62148e-30
-1.00257e-28
-4.72075e-29
-2.69488e-27
-1.22998e-27
-6.49886e-26
-2.89196e-26
-1.82972e-24
-3.54567e-25
-1.20271e-23
-1.16062e-23
-1.93282e-22
-7.62579e-23
-6.64144e-21
-1.75649e-22
-6.68596e-20
-1.76464e-22
-1.76914e-18
-2.09773e-22
-1.05868e-17
-2.18396e-22
-1.18311e-17
-2.15535e-22
-1.38335e-17
-1.42373e-22
-8.48261e-18
-6.8528e-23
-1.29513e-18
-2.57208e-23
-9.91227e-20
-2.50278e-23
-3.97595e-21
-2.26027e-23
-1.10225e-22
-7.66715e-24
-5.09868e-23
-1.23108e-24
-9.42232e-24
-1.74853e-25
-1.49361e-24
-7.38523e-27
-5.74935e-25
1.05925e-27
-2.18903e-25
2.05006e-27
-7.60164e-26
2.27851e-27
-2.81517e-26
1.16506e-27
-8.69767e-27
6.37519e-28
-2.36941e-27
2.56606e-28
-5.58921e-28
8.56492e-29
-1.16744e-28
2.35744e-29
-2.18013e-29
5.55979e-30
-3.69582e-30
1.14544e-30
-5.82974e-31
2.10631e-31
-8.55191e-32
3.5467e-32
-1.18192e-32
5.5525e-33
-1.56903e-33
8.4198e-34
-2.02825e-34
1.22313e-34
-2.75101e-35
1.76144e-35
3.35706e-36
-1.23909e-42
4.77572e-42
-1.87243e-40
1.2003e-40
-9.3111e-39
1.22048e-39
-5.6303e-37
5.72551e-39
-3.00825e-35
3.8713e-39
-1.33694e-33
-1.60586e-37
-5.06305e-32
-6.26694e-36
-1.6716e-30
-2.09372e-34
-4.88688e-29
-6.17445e-33
-1.27875e-27
-1.62676e-31
-3.02011e-26
-3.86986e-30
-6.02373e-25
-4.93277e-29
-1.61041e-23
-9.30855e-28
-4.12173e-23
-1.59786e-26
-6.88618e-23
-2.59445e-25
-8.1978e-23
-5.38915e-24
-1.14849e-22
-4.94143e-23
-6.04983e-23
-1.24234e-22
-2.95629e-23
-1.42736e-22
-2.16298e-23
-1.25217e-22
-1.76522e-23
-5.46643e-23
-2.22154e-23
-8.38429e-24
-2.68024e-23
-1.2287e-24
-1.79159e-23
-4.81549e-25
-4.68763e-24
-1.98639e-25
-1.20052e-24
-5.12357e-26
-2.03366e-25
-6.77727e-27
-7.3846e-27
-2.38019e-28
-6.67477e-27
6.76882e-30
-4.60807e-27
2.52977e-29
-2.18256e-27
3.10207e-29
-9.8397e-28
2.46437e-29
-3.52184e-28
1.74926e-29
-1.06705e-28
8.64974e-30
-2.72793e-29
3.30351e-30
-6.05128e-30
1.00116e-30
-1.18304e-30
2.53704e-31
-2.07638e-31
5.51715e-32
-3.33852e-32
1.05588e-32
-4.95981e-33
1.8249e-33
-6.98527e-34
2.88488e-34
-9.41794e-35
4.28061e-35
-1.22963e-35
6.216e-36
-1.70866e-36
9.07652e-37
1.77431e-37
4.68217e-42
-6.23643e-49
9.53443e-41
-1.24051e-46
6.68882e-40
-1.22588e-44
6.01483e-40
-8.21474e-43
-1.91319e-38
-4.20557e-41
-1.71129e-37
-2.13693e-39
-6.12287e-36
-7.12271e-38
-2.05538e-34
-2.17908e-36
-6.10336e-33
-5.8947e-35
-1.61938e-31
-1.42718e-33
-3.87868e-30
-3.12292e-32
-5.52311e-29
-5.09043e-31
-9.82368e-28
-9.10928e-30
-1.67703e-26
-1.57504e-28
-2.81181e-25
-3.13749e-27
-7.1114e-24
-3.57981e-26
-6.49172e-23
-2.14082e-25
-1.46918e-22
-7.44677e-25
-1.46281e-22
-6.83248e-25
-1.10508e-22
-9.44365e-25
-1.66234e-23
-2.32889e-25
-1.89793e-24
-1.15595e-25
-8.17202e-25
-5.11549e-26
-4.54241e-25
-1.74706e-26
-1.88755e-25
-5.29896e-27
-4.68938e-26
-1.2223e-27
-5.19897e-27
-1.55425e-28
-1.37113e-28
-7.04584e-30
-1.11115e-28
3.03617e-31
-8.2843e-29
4.70232e-31
-5.39543e-29
4.8459e-31
-2.99739e-29
5.16712e-31
-1.25627e-29
4.03072e-31
-4.26659e-30
2.50581e-31
-1.18954e-30
1.11566e-31
-2.81952e-31
3.76414e-32
-5.80105e-32
1.0319e-32
-1.05906e-32
2.38107e-33
-1.75389e-33
4.76961e-34
-2.66392e-34
8.54401e-35
-3.79233e-35
1.38631e-35
-5.15919e-36
2.0892e-36
-6.82655e-37
2.99607e-37
-9.74475e-38
4.29687e-38
8.65074e-39
-6.11555e-49
-1.20885e-50
-1.22636e-46
-2.02679e-48
-1.21827e-44
-1.98705e-46
-8.2034e-43
-1.33182e-44
-4.21969e-41
-6.79219e-43
-2.16283e-39
-1.88071e-41
-7.28634e-38
-6.24592e-40
-2.23578e-36
-1.88443e-38
-6.07516e-35
-5.02362e-37
-1.47764e-33
-1.19827e-35
-3.2485e-32
-2.58395e-34
-5.37945e-31
-4.22605e-33
-9.66069e-30
-7.51936e-32
-1.66522e-28
-1.24844e-30
-3.10342e-27
-2.21402e-29
-3.34315e-26
-3.94608e-28
-2.12652e-25
-2.68066e-27
-7.56742e-25
-7.79994e-27
-7.34097e-25
-1.28043e-26
-2.41192e-25
-1.44869e-26
-1.33471e-25
-1.29578e-26
-7.50051e-26
-6.11094e-27
-3.33112e-26
-1.8317e-27
-1.34993e-26
-6.12643e-28
-4.64805e-27
-2.02505e-28
-1.04043e-27
-5.09868e-29
-1.2046e-28
-7.67718e-30
-9.00501e-30
-5.21941e-31
-2.64549e-30
6.59722e-34
-1.4753e-30
6.9388e-33
-1.17999e-30
7.21966e-33
-7.88471e-31
9.96125e-33
-3.90992e-31
8.73349e-33
-1.50318e-31
6.12871e-33
-4.60507e-32
3.26069e-33
-1.17345e-32
1.24224e-33
-2.55425e-33
3.71916e-34
-4.87318e-34
9.17269e-35
-8.35318e-35
1.93417e-35
-1.30322e-35
3.60564e-36
-1.89346e-36
6.03734e-37
-2.61018e-37
9.33155e-38
-3.47452e-38
1.35971e-38
-5.09828e-39
1.92214e-39
3.88542e-40
-2.42279e-50
1.21395e-50
-2.10912e-48
5.85528e-50
-1.98581e-46
-2.34472e-48
-1.33592e-44
-1.71263e-46
-6.838e-43
-9.46837e-45
-1.92217e-41
-2.85046e-43
-6.35339e-40
-9.85705e-42
-1.92197e-38
-3.02414e-40
-5.14535e-37
-8.18673e-39
-1.23268e-35
-1.9805e-37
-2.67004e-34
-4.3285e-36
-4.52434e-33
-7.47091e-35
-7.92174e-32
-1.36677e-33
-1.32436e-30
-2.28909e-32
-2.95e-29
-3.95383e-31
-4.85164e-28
-7.57672e-30
-2.61082e-27
-6.03047e-29
-6.4147e-27
-1.96471e-28
-9.70937e-27
-3.4209e-28
-1.0386e-26
-4.00272e-28
-7.88211e-27
-3.72994e-28
-2.96864e-27
-2.0321e-28
-1.19091e-27
-6.6976e-29
-5.15844e-28
-2.40922e-29
-1.90708e-28
-9.08194e-30
-4.82507e-29
-2.75258e-30
-7.26589e-30
-5.16416e-31
-6.65536e-31
-4.66e-32
-6.62675e-32
-8.7159e-34
-2.39195e-32
1.3488e-34
-2.32132e-32
1.16009e-34
-1.80979e-32
1.64969e-34
-1.05172e-32
1.64169e-34
-4.62507e-33
1.24156e-34
-1.57142e-33
8.12703e-35
-4.33648e-34
3.56386e-35
-1.00484e-34
1.17907e-35
-2.01432e-35
3.13537e-36
-3.59079e-36
7.00862e-37
-5.7794e-37
1.36786e-37
-8.60664e-38
2.37511e-38
-1.20976e-38
3.77806e-39
-1.63125e-39
5.63708e-40
-2.44723e-40
8.09312e-41
1.60643e-41
2.55573e-51
-6.72591e-55
-1.22723e-49
-1.41314e-52
-2.39444e-48
-1.76767e-50
-1.68764e-46
-1.1881e-48
-9.37094e-45
-6.2346e-47
-2.90872e-43
-2.28902e-45
-1.00314e-41
-7.90592e-44
-3.08988e-40
-2.42912e-42
-8.40534e-39
-6.58466e-41
-2.04353e-37
-1.59576e-39
-4.489e-36
-3.49625e-38
-8.35931e-35
-6.73858e-37
-1.44445e-33
-1.2217e-35
-2.43322e-32
-2.08184e-34
-5.25033e-31
-3.50311e-33
-1.02597e-29
-7.11666e-32
-6.52736e-29
-6.95224e-31
-1.75133e-28
-2.74109e-30
-2.74894e-28
-5.46823e-30
-3.03633e-28
-7.01159e-30
-2.5366e-28
-6.91906e-30
-1.08243e-28
-4.93378e-30
-4.60838e-29
-1.9358e-30
-2.21885e-29
-7.72182e-31
-9.63695e-30
-3.22643e-31
-2.93622e-30
-1.07384e-31
-5.26599e-31
-2.21029e-32
-4.90991e-32
-2.28314e-33
-2.94199e-33
-7.90524e-35
-7.32635e-34
4.1401e-36
-4.25018e-34
3.76295e-36
-3.55075e-34
1.96568e-36
-2.41489e-34
2.69543e-36
-1.23024e-34
2.24133e-36
-4.68927e-35
1.69498e-36
-1.41375e-35
8.78631e-37
-3.51257e-36
3.26085e-37
-7.44451e-37
9.44775e-38
-1.38769e-37
2.25724e-38
-2.31551e-38
4.64398e-39
-3.55001e-39
8.41206e-40
-5.10828e-40
1.38444e-40
-7.02072e-41
2.12328e-41
-1.07668e-41
3.11779e-42
6.10376e-43
-6.69638e-55
-2.9531e-57
-1.4134e-52
-6.43971e-55
-1.77816e-50
-4.578e-53
-1.20335e-48
-3.18109e-51
-6.34145e-47
-1.71725e-49
-2.34756e-45
-6.49414e-48
-8.12345e-44
-2.30306e-46
-2.50507e-42
-7.24539e-45
-6.82061e-41
-2.00981e-43
-1.66038e-39
-4.98281e-42
-3.65431e-38
-1.11691e-40
-7.08862e-37
-2.20724e-39
-1.29148e-35
-4.12244e-38
-2.21092e-34
-7.19958e-37
-4.40714e-33
-1.18524e-35
-1.0259e-31
-2.33924e-34
-8.33274e-31
-3.26918e-33
-2.67686e-30
-1.93931e-32
-4.71013e-30
-5.34336e-32
-5.73692e-30
-8.62766e-32
-5.56228e-30
-9.84698e-32
-3.03557e-30
-9.12354e-32
-1.43164e-30
-5.42822e-32
-7.53457e-31
-2.11151e-32
-3.5289e-31
-8.24773e-33
-1.13715e-31
-2.71484e-33
-2.11893e-32
-5.85784e-34
-2.06211e-33
-6.71966e-35
-1.77195e-34
-3.0241e-36
-4.39679e-35
1.16758e-38
-6.58352e-36
1.06217e-37
-6.16369e-36
2.60976e-38
-4.72539e-36
3.57143e-38
-2.79972e-36
3.50664e-38
-1.21292e-36
2.89224e-38
-4.0374e-37
1.83486e-38
-1.08474e-37
7.79274e-39
-2.44797e-38
2.49184e-39
-4.80115e-39
6.42489e-40
-8.35119e-40
1.4044e-40
-1.32469e-40
2.67165e-41
-1.96019e-41
4.57611e-42
-2.75706e-42
7.25242e-43
-4.33184e-43
1.09349e-43
2.12638e-44
-2.951e-57
-2.10158e-60
-6.46353e-55
-5.12376e-58
-4.63242e-53
-4.11517e-56
-3.22359e-51
-3.06042e-54
-1.74718e-49
-1.74327e-52
-6.65507e-48
-6.91667e-51
-2.36732e-46
-2.57713e-49
-7.47484e-45
-8.39697e-48
-2.08248e-43
-2.41073e-46
-5.18584e-42
-6.18221e-45
-1.16759e-40
-1.43305e-43
-2.32161e-39
-2.93575e-42
-4.35658e-38
-5.69363e-41
-7.63293e-37
-1.02719e-39
-1.29788e-35
-1.72812e-38
-3.46595e-34
-2.87087e-37
-4.55809e-33
-5.46979e-36
-2.23003e-32
-6.51133e-35
-5.30154e-32
-3.41553e-34
-7.98579e-32
-8.58117e-34
-8.87605e-32
-1.28825e-33
-7.77854e-32
-1.38213e-33
-3.96237e-32
-1.21602e-33
-1.91681e-32
-6.04613e-34
-8.54456e-33
-1.95807e-34
-2.75916e-33
-5.89543e-35
-5.3039e-34
-1.38272e-35
-5.18429e-35
-1.94979e-36
-3.37008e-36
-1.28537e-37
-7.34519e-37
-3.01229e-39
-1.36387e-37
7.12825e-40
-8.92751e-38
3.80789e-40
-7.73154e-38
3.5013e-40
-5.37938e-38
4.67025e-40
-2.69209e-38
4.01163e-40
-1.00224e-38
3.18352e-40
-2.94101e-39
1.59106e-40
-7.12535e-40
5.70678e-41
-1.48072e-40
1.6063e-41
-2.70141e-41
3.76447e-42
-4.45777e-42
7.5778e-43
-6.81691e-43
1.35968e-43
-9.85533e-44
2.23974e-44
-1.59137e-44
3.48624e-45
6.78054e-46
-2.02854e-60
-1.18972e-63
-4.96606e-58
-2.82648e-61
-4.0986e-56
-2.83897e-59
-3.05433e-54
-2.16389e-57
-1.74739e-52
-1.26227e-55
-7.05842e-51
-5.59354e-54
-2.63649e-49
-2.15868e-52
-8.62696e-48
-7.29652e-51
-2.48807e-46
-2.17217e-49
-6.41009e-45
-5.77748e-48
-1.49279e-43
-1.38964e-46
-3.11437e-42
-3.02368e-45
-6.00497e-41
-6.08757e-44
-1.08706e-39
-1.14385e-42
-1.83974e-38
-2.00451e-41
-3.58766e-37
-3.32911e-40
-8.7874e-36
-6.24589e-39
-9.87117e-35
-9.7548e-38
-4.30255e-34
-8.06077e-37
-9.41491e-34
-3.10226e-36
-1.3296e-33
-6.51598e-36
-1.38045e-33
-9.02962e-36
-1.08276e-33
-9.40436e-36
-4.62535e-34
-8.17609e-36
-1.79148e-34
-4.10824e-36
-5.91282e-35
-1.27154e-36
-1.30794e-35
-3.1215e-37
-1.59723e-36
-4.83856e-38
-1.32101e-37
-3.67424e-39
-2.25398e-38
-1.18287e-40
-2.43875e-39
4.81628e-42
-1.09939e-39
3.75962e-42
-1.07657e-39
3.37105e-42
-8.62551e-40
5.03505e-42
-5.06877e-40
5.09978e-42
-2.14405e-40
4.4766e-42
-6.95376e-41
2.73591e-42
-1.82593e-41
1.12439e-42
-4.05256e-42
3.50368e-43
-7.80808e-43
8.89704e-44
-1.34852e-43
1.91141e-44
-2.14269e-44
3.61885e-45
-3.19914e-45
6.23548e-46
-5.32476e-46
1.00785e-46
1.97454e-47
-1.18946e-63
-2.58496e-67
-2.83797e-61
-6.46158e-65
-2.86695e-59
-6.83293e-63
-2.19216e-57
-5.47651e-61
-1.28399e-55
-3.35329e-59
-5.721e-54
-1.55961e-57
-2.21541e-52
-6.31021e-56
-7.51699e-51
-2.23317e-54
-2.24702e-49
-6.95665e-53
-6.0013e-48
-1.93599e-51
-1.44944e-46
-4.87275e-50
-3.16817e-45
-1.11033e-48
-6.40532e-44
-2.34273e-47
-1.20787e-42
-4.61379e-46
-2.12551e-41
-8.48167e-45
-3.6853e-40
-1.46511e-43
-9.30326e-39
-2.49029e-42
-1.62456e-37
-4.31706e-41
-1.19181e-36
-6.70005e-40
-3.95067e-36
-6.21018e-39
-7.63868e-36
-2.67348e-38
-1.03603e-35
-5.87057e-38
-1.06998e-35
-7.97602e-38
-8.53756e-36
-7.93095e-38
-3.65253e-36
-6.3092e-38
-1.22308e-36
-2.38932e-38
-2.82651e-37
-5.19063e-39
-3.59765e-38
-8.22383e-40
-2.5666e-39
-8.75765e-41
-3.21581e-40
-5.46054e-42
-4.45429e-41
-1.35006e-43
-1.64089e-41
4.0325e-44
-1.28618e-41
3.71708e-44
-1.1385e-41
4.0042e-44
-7.9972e-42
5.42243e-44
-3.91376e-42
4.8936e-44
-1.42329e-42
3.88541e-44
-4.09572e-43
1.88467e-44
-9.79698e-44
6.61658e-45
-2.00882e-44
1.8435e-45
-3.65544e-45
4.26851e-46
-6.07064e-46
8.59679e-47
-9.40823e-47
1.5603e-47
-1.61912e-47
2.63553e-48
5.24206e-49
-2.58463e-67
-3.30055e-71
-6.48463e-65
-8.89815e-69
-6.88447e-63
-1.01203e-66
-5.54168e-61
-8.68388e-65
-3.40589e-59
-5.63953e-63
-1.59086e-57
-2.76996e-61
-6.46751e-56
-1.19217e-59
-2.29721e-54
-4.44663e-58
-7.18444e-53
-1.45956e-56
-2.00731e-51
-4.27913e-55
-5.07228e-50
-1.13471e-53
-1.16081e-48
-2.72634e-52
-2.4592e-47
-6.07155e-51
-4.86012e-46
-1.26055e-49
-8.96842e-45
-2.44516e-48
-1.55707e-43
-4.45919e-47
-2.91515e-42
-7.85151e-46
-6.66435e-41
-1.3379e-44
-1.262e-39
-2.19936e-43
-1.09287e-38
-3.30569e-42
-4.0076e-38
-3.13723e-41
-7.81532e-38
-1.40607e-40
-1.00399e-37
-3.14028e-40
-1.00634e-37
-4.22074e-40
-6.32866e-38
-4.11192e-40
-1.91582e-38
-3.0909e-40
-4.21503e-39
-1.03337e-40
-6.81521e-40
-1.85105e-41
-7.78574e-41
-2.16587e-42
-7.73453e-42
-1.61338e-43
-1.01292e-42
-7.04171e-45
-2.37389e-43
1.74414e-46
-1.2685e-43
2.77322e-46
-1.27671e-43
2.85885e-46
-1.03878e-43
4.59712e-46
-6.02473e-44
4.76749e-46
-2.50101e-44
4.43106e-46
-7.9914e-45
2.64909e-46
-2.08173e-45
1.07213e-46
-4.58207e-46
3.3277e-47
-8.85018e-47
8.39929e-48
-1.54608e-47
1.81598e-48
-2.50082e-48
3.49877e-49
-4.46875e-49
6.21918e-50
1.26673e-50
-3.23149e-71
-5.39935e-75
-8.74342e-69
-1.52137e-72
-1.01167e-66
-1.9692e-70
-8.70871e-65
-1.78212e-68
-5.67781e-63
-1.22057e-66
-2.81988e-61
-6.54958e-65
-1.21763e-59
-2.97979e-63
-4.5594e-58
-1.17608e-61
-1.5025e-56
-4.08328e-60
-4.4225e-55
-1.26647e-58
-1.17737e-53
-3.55405e-57
-2.84868e-52
-9.09312e-56
-6.35732e-51
-2.14821e-54
-1.32434e-49
-4.72816e-53
-2.57803e-48
-9.73104e-52
-4.71983e-47
-1.88438e-50
-8.62876e-46
-3.50982e-49
-1.68525e-44
-6.27499e-48
-3.61726e-43
-1.05628e-46
-6.82635e-42
-1.74288e-45
-6.25292e-41
-2.42676e-44
-2.3911e-40
-1.87199e-43
-4.67124e-40
-6.65963e-43
-5.88172e-40
-1.24032e-42
-5.8102e-40
-1.4818e-42
-3.27541e-40
-1.36107e-42
-8.38873e-41
-8.59966e-43
-1.4175e-41
-2.40255e-43
-1.70438e-42
-4.08867e-44
-1.65724e-43
-4.58227e-45
-1.5823e-44
-3.01921e-46
-2.62127e-45
-8.28378e-48
-1.33172e-45
1.67245e-48
-1.21396e-45
2.03865e-48
-1.09017e-45
2.9285e-48
-7.72272e-46
4.0185e-48
-3.73691e-46
3.86574e-48
-1.34697e-46
3.06e-48
-3.86764e-47
1.47418e-48
-9.2282e-48
5.19511e-49
-1.90746e-48
1.44874e-49
-3.53002e-49
3.39771e-50
-5.99455e-50
7.00903e-51
-1.11646e-50
1.32116e-51
2.81649e-52
-5.39919e-75
-1.56004e-79
-1.52675e-72
-4.70215e-77
-1.98444e-70
-6.49836e-75
-1.80188e-68
-6.27138e-73
-1.23855e-66
-4.57386e-71
-6.67318e-65
-2.6123e-69
-3.04632e-63
-1.26428e-67
-1.20652e-61
-5.30544e-66
-4.20385e-60
-1.95788e-64
-1.30849e-58
-6.45507e-63
-3.68484e-57
-1.926e-61
-9.46147e-56
-5.24183e-60
-2.24292e-54
-1.31797e-58
-4.95264e-53
-3.08873e-57
-1.02267e-51
-6.77388e-56
-1.98733e-50
-1.39875e-54
-3.8125e-49
-2.76841e-53
-7.50289e-48
-5.27093e-52
-1.50366e-46
-9.26017e-51
-3.34791e-45
-1.52727e-49
-5.43952e-44
-2.45979e-48
-3.79369e-43
-3.76476e-47
-1.14114e-42
-3.8284e-46
-1.8989e-42
-1.79907e-45
-2.18843e-42
-3.97723e-45
-2.02297e-42
-5.09285e-45
-9.0504e-43
-4.72088e-45
-2.20089e-43
-3.03249e-45
-3.73308e-44
-7.9464e-46
-4.41393e-45
-1.08449e-46
-4.32869e-46
-8.34938e-48
-5.24859e-47
-3.14296e-49
-1.18662e-47
2.38847e-51
-9.10745e-48
1.0884e-50
-9.73343e-48
1.70772e-50
-8.07877e-48
2.6888e-50
-4.69277e-48
2.91926e-50
-1.94588e-48
2.81684e-50
-6.24689e-49
1.69498e-50
-1.63386e-49
6.95356e-51
-3.64733e-50
2.17754e-51
-7.20585e-51
5.60683e-52
-1.29282e-51
1.25043e-52
-2.51809e-52
2.52126e-53
5.69907e-54
-1.55997e-79
-6.57752e-84
-4.71624e-77
-2.1434e-81
-6.5374e-75
-3.18742e-79
-6.33355e-73
-3.31106e-77
-4.63433e-71
-2.58449e-75
-2.6556e-69
-1.57567e-73
-1.29058e-67
-8.18106e-72
-5.43351e-66
-3.6645e-70
-2.0119e-64
-1.44353e-68
-6.65534e-63
-5.08063e-67
-1.99233e-61
-1.61869e-65
-5.4406e-60
-4.70664e-64
-1.37246e-58
-1.26544e-62
-3.22618e-57
-3.17061e-61
-7.09697e-56
-7.4394e-60
-1.47008e-54
-1.64483e-58
-2.97776e-53
-3.48858e-57
-6.16615e-52
-7.13403e-56
-1.18241e-50
-1.34204e-54
-2.2228e-49
-2.33984e-53
-4.68587e-48
-3.85075e-52
-9.48568e-47
-6.19439e-51
-9.58117e-46
-9.29308e-50
-3.77265e-45
-9.22553e-49
-7.10978e-45
-4.34521e-48
-8.48875e-45
-9.78492e-48
-7.95408e-45
-1.26948e-47
-3.5216e-45
-1.17387e-47
-7.1953e-46
-7.61323e-48
-8.92542e-47
-1.93371e-48
-7.04822e-48
-2.22636e-49
-5.88144e-49
-1.2213e-50
-1.30266e-49
-3.57755e-52
-8.62256e-50
5.8613e-53
-7.30511e-50
9.70122e-53
-6.71492e-50
1.37194e-52
-4.8879e-50
1.97744e-52
-2.38712e-50
1.94771e-52
-8.71563e-51
1.59515e-52
-2.53119e-51
7.89201e-53
-6.16551e-52
2.83262e-53
-1.31147e-52
8.122e-54
-2.50291e-53
1.98003e-54
-5.11309e-54
4.31376e-55
1.04575e-55
-6.50889e-84
-2.10905e-88
-2.12809e-81
-7.37087e-86
-3.19413e-79
-1.21361e-83
-3.32886e-77
-1.34996e-81
-2.60736e-75
-1.1277e-79
-1.59986e-73
-7.46426e-78
-8.33262e-72
-4.14757e-76
-3.74478e-70
-1.98927e-74
-1.47996e-68
-8.38996e-73
-5.22565e-67
-3.1624e-71
-1.67018e-65
-1.07943e-69
-4.87533e-64
-3.36975e-68
-1.31426e-62
-9.72124e-67
-3.30224e-61
-2.61328e-65
-7.77015e-60
-6.5833e-64
-1.72258e-58
-1.56351e-62
-3.7058e-57
-3.53241e-61
-8.2424e-56
-7.80785e-60
-1.68579e-54
-1.59764e-58
-3.21054e-53
-3.041e-57
-6.05772e-52
-5.41331e-56
-1.271e-50
-9.18408e-55
-2.48245e-49
-1.54376e-53
-2.47836e-48
-2.4452e-52
-9.99695e-48
-2.47655e-51
-1.93847e-47
-1.12941e-50
-2.34649e-47
-2.40324e-50
-2.21731e-47
-2.95821e-50
-9.94555e-48
-2.64076e-50
-1.80972e-48
-1.54007e-50
-1.73132e-49
-3.42165e-51
-1.45283e-50
-3.40229e-52
-1.87822e-51
-1.4936e-53
-4.93762e-52
-1.51396e-55
-4.39908e-52
2.995e-55
-4.86712e-52
6.10318e-55
-4.12936e-52
1.06274e-54
-2.45842e-52
1.21269e-54
-1.04268e-52
1.18731e-54
-3.41358e-53
7.48136e-55
-9.17921e-54
3.16223e-55
-2.1221e-54
1.02727e-55
-4.34003e-55
2.77284e-56
-9.3176e-56
6.60517e-57
1.73579e-57
-2.10903e-88
-2.38976e-93
-7.39193e-86
-9.00186e-91
-1.22099e-83
-1.5946e-88
-1.36214e-81
-1.90632e-86
-1.14131e-79
-1.71021e-84
-7.57831e-78
-1.2153e-82
-4.22314e-76
-7.24836e-81
-2.0315e-74
-3.73233e-79
-8.59309e-73
-1.68998e-77
-3.24832e-71
-6.84094e-76
-1.11191e-69
-2.50873e-74
-3.48094e-68
-8.41869e-73
-1.00695e-66
-2.61229e-71
-2.71404e-65
-7.55736e-70
-6.85489e-64
-2.05024e-68
-1.63195e-62
-5.24703e-67
-3.67448e-61
-1.27455e-65
-8.82899e-60
-3.03019e-64
-1.96802e-58
-6.7367e-63
-4.07185e-57
-1.39906e-61
-7.91368e-56
-2.72393e-60
-1.54665e-54
-4.99252e-59
-3.47534e-53
-8.72475e-58
-7.27238e-52
-1.50598e-56
-7.23656e-51
-2.62312e-55
-2.7606e-50
-3.43876e-54
-5.04039e-50
-2.05236e-53
-5.85095e-50
-5.09578e-53
-5.30387e-50
-6.55363e-53
-2.07947e-50
-5.76513e-53
-3.41215e-51
-2.98345e-53
-2.93557e-52
-5.30063e-54
-3.20882e-53
-4.0316e-55
-4.41217e-54
-1.42788e-56
-2.61293e-54
1.02675e-57
-3.00731e-54
1.97014e-57
-2.76317e-54
4.52611e-57
-2.09705e-54
6.78049e-57
-1.06017e-54
6.53369e-57
-3.98429e-55
5.78886e-57
-1.19873e-55
2.99645e-57
-3.04386e-56
1.12719e-57
-6.72445e-57
3.42046e-58
-1.51809e-57
9.01838e-59
2.59807e-59
-2.38971e-93
-4.36927e-98
-9.02441e-91
-1.77479e-95
-1.60263e-88
-3.38456e-93
-1.92203e-86
-4.3632e-91
-1.72902e-84
-4.21036e-89
-1.23191e-82
-3.2153e-87
-7.37148e-81
-2.06755e-85
-3.80595e-79
-1.14528e-83
-1.72798e-77
-5.58106e-82
-7.01344e-76
-2.43248e-80
-2.57876e-74
-9.60987e-79
-8.67635e-73
-3.47627e-77
-2.69913e-71
-1.16373e-75
-7.82754e-70
-3.63332e-74
-2.1286e-68
-1.06449e-72
-5.46011e-67
-2.94412e-71
-1.32919e-65
-7.73414e-70
-3.33869e-64
-1.99397e-68
-8.07662e-63
-4.81067e-67
-1.82795e-61
-1.07673e-65
-3.8749e-60
-2.24853e-64
-7.72305e-59
-4.40335e-63
-1.51117e-57
-8.14444e-62
-3.34822e-56
-1.44566e-60
-8.47894e-55
-2.54476e-59
-1.21436e-53
-4.47409e-58
-6.02453e-53
-5.95386e-57
-1.2179e-52
-3.73467e-56
-1.41379e-52
-9.82942e-56
-1.21928e-52
-1.30828e-55
-3.90308e-53
-1.15073e-55
-5.16911e-54
-5.94051e-56
-4.5761e-55
-9.45965e-57
-4.43402e-56
-5.1806e-58
-1.27274e-56
-1.03863e-59
-1.38635e-56
5.87546e-60
-1.68763e-56
1.56824e-59
-1.4501e-56
3.04249e-59
-9.0599e-57
3.6449e-59
-3.99767e-57
3.52583e-59
-1.36698e-57
2.37268e-59
-3.85815e-58
1.06435e-59
-9.28702e-59
3.69938e-60
-2.21917e-59
1.07856e-60
3.51096e-61
-4.35732e-98
-5.23501e-103
-1.77383e-95
-2.27946e-100
-3.39926e-93
-4.7336e-98
-4.39267e-91
-6.55625e-96
-4.2495e-89
-6.80277e-94
-3.2574e-87
-5.62489e-92
-2.09978e-85
-3.89444e-90
-1.16606e-83
-2.3248e-88
-5.69653e-82
-1.22158e-86
-2.48899e-80
-5.74495e-85
-9.85733e-79
-2.45075e-83
-3.57516e-77
-9.58475e-82
-1.19951e-75
-3.47043e-80
-3.75337e-74
-1.1724e-78
-1.10206e-72
-3.71937e-77
-3.05443e-71
-1.11468e-75
-8.03914e-70
-3.17371e-74
-2.14388e-68
-8.74482e-73
-5.60787e-67
-2.31966e-71
-1.36362e-65
-5.72501e-70
-3.09751e-64
-1.32419e-68