/*--------------------------------*- C++ -*----------------------------------*\
| =========                 |                                                 |
| \\      /  F ield         | OpenFOAM: The Open Source CFD Toolbox           |
|  \\    /   O peration     | Version:  5.0                                   |
|   \\  /    A nd           | Web:      www.OpenFOAM.org                      |
|    \\/     M anipulation  |                                                 |
\*---------------------------------------------------------------------------*/
FoamFile
{
    version     2.0;
    format      ascii;
    class       volScalarField;
    location    "0.2";
    object      k;
}
// * * * * * * * * * * * * * * * * * * * * * * * * * * * * * * * * * * * * * //

dimensions      [0 2 -2 0 0 0 0];

internalField   nonuniform List<scalar> 
1915
(
0.273359
0.293797
0.312537
0.327374
0.336255
0.337809
0.331832
0.319347
0.302149
0.282291
0.261476
0.241098
0.222154
0.205234
0.190575
0.17814
0.167718
0.159014
0.151713
0.145522
0.140191
0.135514
0.131332
0.127525
0.124006
0.0355507
0.0530386
0.0663036
0.0761433
0.0847541
0.0929197
0.100929
0.108919
0.117002
0.125315
0.134014
0.143271
0.153272
0.164175
0.176116
0.189225
0.20358
0.219192
0.235958
0.253575
0.271432
0.288499
0.303304
0.314162
0.319629
0.318887
0.311997
0.299889
0.284052
0.266154
0.247607
0.229561
0.212826
0.197862
0.18483
0.173673
0.164204
0.15617
0.149314
0.143397
0.138216
0.133608
0.129447
0.125636
0.122109
0.0366752
0.0552942
0.0684
0.0780644
0.0865731
0.0947458
0.102886
0.11112
0.119531
0.128217
0.137286
0.146855
0.157064
0.16804
0.179882
0.192661
0.206393
0.22101
0.236312
0.25191
0.267152
0.281085
0.292507
0.300167
0.303081
0.300793
0.293512
0.28207
0.267702
0.251743
0.235339
0.219427
0.20466
0.191396
0.179753
0.169673
0.160997
0.153518
0.147029
0.141339
0.136287
0.131743
0.127607
0.123807
0.120289
0.0376383
0.0573958
0.070449
0.0800253
0.0884531
0.0965914
0.104773
0.11313
0.121727
0.130626
0.139898
0.149623
0.159893
0.170786
0.18236
0.194632
0.20756
0.221013
0.234734
0.2483
0.261084
0.272266
0.280898
0.286078
0.287156
0.283913
0.276632
0.266041
0.253157
0.239031
0.224587
0.210578
0.197526
0.185719
0.175247
0.166065
0.158044
0.151023
0.144837
0.139336
0.134395
0.129912
0.12581
0.122033
0.118539
0.0384023
0.0591913
0.0724171
0.0820078
0.0903787
0.0984416
0.10657
0.114917
0.123548
0.132501
0.141817
0.151539
0.161714
0.172377
0.183539
0.195171
0.207184
0.219405
0.23155
0.243201
0.253798
0.262662
0.269073
0.272394
0.272215
0.268468
0.261458
0.251811
0.240353
0.227905
0.215205
0.202855
0.191275
0.1807
0.171208
0.16277
0.15529
0.148646
0.142711
0.137371
0.132529
0.128108
0.124049
0.120308
0.116853
0.0388934
0.0607294
0.0742461
0.083936
0.0922859
0.100258
0.108269
0.116501
0.125031
0.133889
0.143095
0.152661
0.162596
0.172896
0.183531
0.194435
0.205483
0.216478
0.227134
0.237065
0.24579
0.252769
0.257465
0.259441
0.258455
0.254528
0.247959
0.239273
0.229135
0.218184
0.207004
0.196078
0.185745
0.176204
0.167529
0.159708
0.152677
0.146347
0.140626
0.135427
0.130679
0.126323
0.122316
0.118624
0.115223
0.0391533
0.062002
0.0758713
0.0857209
0.094088
0.101972
0.109831
0.117876
0.126202
0.134843
0.143806
0.153083
0.162654
0.172482
0.182507
0.192632
0.202711
0.21254
0.221844
0.23028
0.237452
0.242937
0.246346
0.247387
0.245929
0.242043
0.236002
0.228242
0.219291
0.209646
0.19977
0.190052
0.180771
0.172097
0.164105
0.156801
0.150148
0.144086
0.138551
0.133483
0.128829
0.124546
0.120603
0.116974
0.11364
0.0392128
0.0629874
0.0772237
0.087268
0.0956853
0.103497
0.111191
0.119008
0.127061
0.135395
0.144014
0.152898
0.162008
0.171285
0.180646
0.189974
0.199115
0.207864
0.215972
0.223143
0.229054
0.233383
0.235852
0.23627
0.234578
0.23087
0.225386
0.218481
0.210575
0.202053
0.193286
0.184588
0.176192
0.168249
0.160834
0.153971
0.147644
0.14182
0.136458
0.131518
0.126964
0.122766
0.118901
0.11535
0.112096
0.0390917
0.0636648
0.0782441
0.0884918
0.0969793
0.104735
0.112266
0.119836
0.127577
0.135547
0.143753
0.152172
0.160754
0.169429
0.178099
0.18664
0.194893
0.202667
0.209736
0.215853
0.220757
0.224206
0.226002
0.226026
0.224261
0.220806
0.215867
0.209732
0.202732
0.195169
0.187342
0.179506
0.17186
0.164539
0.157623
0.151146
0.145112
0.13951
0.134318
0.129511
0.125069
0.120971
0.1172
0.113742
0.110584
0.0388052
0.0640223
0.0788912
0.089326
0.097887
0.105597
0.112972
0.12029
0.127702
0.135277
0.143031
0.150942
0.15896
0.167007
0.174984
0.182762
0.190191
0.197093
0.203271
0.208517
0.212624
0.21541
0.216734
0.216524
0.214787
0.211619
0.207191
0.201736
0.195517
0.188772
0.181743
0.174643
0.167642
0.160863
0.154388
0.148262
0.142505
0.137121
0.132104
0.127444
0.12313
0.11915
0.115492
0.112144
0.109095
0.0383682
0.0640614
0.079145
0.0897298
0.0983501
0.106014
0.113236
0.120305
0.127384
0.134552
0.141836
0.149221
0.15666
0.164077
0.171374
0.17843
0.185102
0.191231
0.196646
0.201175
0.204652
0.206938
0.207936
0.2076
0.205952
0.203075
0.199114
0.194256
0.188711
0.182668
0.176325
0.169861
0.163425
0.157132
0.151061
0.145268
0.139784
0.134624
0.129797
0.125302
0.121137
0.117295
0.113769
0.110549
0.107624
0.0377979
0.0637968
0.0790077
0.0896891
0.0983393
0.105944
0.113012
0.119834
0.12658
0.133342
0.140155
0.147013
0.153875
0.160674
0.167319
0.173696
0.179678
0.185123
0.189885
0.193819
0.196794
0.198704
0.199476
0.199085
0.197556
0.194962
0.191421
0.187087
0.182128
0.176694
0.170951
0.165051
0.159125
0.153278
0.147593
0.142127
0.136922
0.132002
0.127385
0.123078
0.119085
0.115403
0.11203
0.108955
0.106168
0.0371145
0.0632562
0.0785016
0.0892164
0.0978552
0.105378
0.112281
0.118855
0.125273
0.131634
0.137983
0.144323
0.150624
0.156828
0.162853
0.168599
0.173952
0.178791
0.182988
0.186425
0.188995
0.190614
0.191231
0.190828
0.189431
0.187103
0.18394
0.180067
0.175623
0.17073
0.165524
0.160135
0.154682
0.149261
0.143954
0.138821
0.133908
0.129249
0.124865
0.12077
0.116974
0.113476
0.110274
0.107361
0.104725
0.0363406
0.0624773
0.0776663
0.0883472
0.0969263
0.104336
0.111058
0.117377
0.123468
0.129437
0.135334
0.141174
0.146935
0.15257
0.158012
0.163172
0.167953
0.17225
0.175955
0.178969
0.181206
0.182597
0.183103
0.182715
0.181453
0.179371
0.176548
0.173086
0.169097
0.164698
0.159984
0.155073
0.15007
0.145065
0.140138
0.135349
0.130747
0.12637
0.122245
0.118388
0.114811
0.111518
0.108506
0.10577
0.103298
0.0355002
0.0615048
0.0765539
0.087135
0.0956041
0.102865
0.109384
0.115439
0.121205
0.126788
0.132248
0.137606
0.142852
0.14795
0.152845
0.157463
0.161721
0.16553
0.168801
0.17145
0.173404
0.174611
0.175037
0.174676
0.173547
0.171693
0.16918
0.166091
0.162521
0.15857
0.154316
0.149859
0.145293
0.140703
0.136162
0.131731
0.12746
0.123388
0.119544
0.115949
0.112613
0.109542
0.106737
0.10419
0.101891
0.0346171
0.0603871
0.0752244
0.0856459
0.0939566
0.101034
0.107328
0.113108
0.118547
0.123753
0.12879
0.133687
0.138444
0.143036
0.147419
0.151535
0.155314
0.158682
0.161564
0.163891
0.165603
0.166654
0.16702
0.166694
0.165691
0.164049
0.16182
0.159074
0.155891
0.152358
0.148541
0.144522
0.140387
0.136211
0.132064
0.128005
0.124082
0.120335
0.116793
0.113476
0.110399
0.107566
0.104978
0.10263
0.100511
0.0337138
0.059172
0.0737404
0.083952
0.0920625
0.0989237
0.104971
0.110467
0.115578
0.120415
0.125045
0.129503
0.133798
0.137915
0.141822
0.145473
0.148812
0.151778
0.15431
0.15635
0.157847
0.158766
0.159084
0.158795
0.157913
0.156466
0.1545
0.152073
0.14925
0.146105
0.14271
0.139119
0.135408
0.131648
0.127901
0.124223
0.120661
0.117252
0.114026
0.111002
0.108194
0.105609
0.103247
0.101102
0.0991679
0.0328096
0.0579045
0.0721632
0.0821268
0.090004
0.096624
0.102409
0.107612
0.112397
0.116875
0.121115
0.125157
0.129017
0.132691
0.136156
0.139378
0.142314
0.144914
0.147128
0.148909
0.150216
0.151017
0.151295
0.151044
0.150275
0.149012
0.147291
0.145161
0.142678
0.139905
0.136907
0.133729
0.130435
0.127086
0.123741
0.120448
0.117253
0.114189
0.111285
0.108561
0.106029
0.103695
0.10156
0.0996216
0.0978707
0.0319204
0.0566234
0.0705483
0.0802391
0.0878608
0.0942224
0.0997342
0.104642
0.109107
0.113237
0.117106
0.120757
0.124212
0.127475
0.130533
0.133361
0.135928
0.138195
0.140121
0.141668
0.142804
0.143501
0.143746
0.143533
0.14287
0.141777
0.140284
0.138433
0.136269
0.133847
0.131222
0.128444
0.125554
0.122608
0.119657
0.116746
0.113915
0.111196
0.108614
0.106188
0.10393
0.101846
0.0999374
0.0982009
0.0966301
0.0310579
0.0553604
0.0689431
0.0783495
0.0857047
0.0918001
0.097036
0.101652
0.105806
0.109606
0.113125
0.116412
0.119493
0.122378
0.125064
0.127534
0.129766
0.131731
0.133398
0.134735
0.135717
0.136322
0.136538
0.136362
0.135798
0.134863
0.133583
0.131991
0.130126
0.128034
0.125761
0.123357
0.120852
0.118293
0.115723
0.113182
0.110706
0.108322
0.106054
0.103918
0.101927
0.100085
0.0983946
0.0968533
0.0954558
0.0302303
0.0541396
0.067385
0.0765075
0.0835956
0.0894261
0.0943909
0.0987246
0.102582
0.106071
0.109267
0.112218
0.114958
0.117502
0.119851
0.122
0.123932
0.125626
0.12706
0.128211
0.129056
0.129581
0.129773
0.129631
0.129159
0.12837
0.127286
0.125933
0.124345
0.122558
0.120614
0.118553
0.116411
0.114215
0.112005
0.109815
0.107674
0.105609
0.103639
0.10178
0.100042
0.0984302
0.0969467
0.0955901
0.0943561
0.0294427
0.0529783
0.0659017
0.0747504
0.08158
0.087155
0.0918606
0.0959276
0.099509
0.102711
0.105611
0.10826
0.110693
0.11293
0.114981
0.116844
0.11851
0.119966
0.121196
0.122182
0.122908
0.123362
0.123535
0.123426
0.123038
0.122383
0.121476
0.120341
0.119005
0.117499
0.115856
0.11411
0.112296
0.110435
0.108557
0.106691
0.104863
0.103093
0.101401
0.0997981
0.098295
0.0968967
0.0956052
0.0944198
0.0933374
0.028699
0.0518878
0.0645118
0.073104
0.0796906
0.0850259
0.08949
0.0933108
0.0966398
0.0995832
0.102217
0.104597
0.106759
0.108728
0.110517
0.112131
0.113566
0.114815
0.115867
0.116711
0.117334
0.117728
0.117887
0.117809
0.117497
0.116961
0.116215
0.115276
0.114166
0.112912
0.111539
0.110078
0.108555
0.106996
0.105418
0.103845
0.102299
0.100798
0.0993571
0.0979878
0.0966986
0.0954944
0.0943775
0.093348
0.0924036
0.0280028
0.0508753
0.0632263
0.0715836
0.0779473
0.0830634
0.087308
0.0909069
0.0940103
0.0967243
0.0991256
0.10127
0.103198
0.104935
0.1065
0.1079
0.109138
0.11021
0.111112
0.111835
0.112372
0.112717
0.112865
0.112815
0.112572
0.112142
0.111536
0.11077
0.10986
0.108827
0.107695
0.106484
0.105219
0.103923
0.102609
0.101296
0.1
0.098737
0.0975196
0.0963579
0.0952592
0.0942281
0.0932673
0.0923771
0.0915563
0.0273574
0.0499455
0.0620507
0.0701967
0.0763603
0.0812802
0.0853297
0.0887328
0.0916391
0.0941541
0.0963552
0.098299
0.100027
0.101569
0.102945
0.104166
0.105239
0.106165
0.106941
0.107564
0.10803
0.108335
0.108476
0.108454
0.10827
0.107932
0.107449
0.106831
0.106094
0.105254
0.104328
0.103335
0.102294
0.101222
0.100137
0.099048
0.0979691
0.096913
0.0958904
0.0949097
0.0939775
0.0930982
0.0922743
0.0915066
0.0907948
0.026765
0.049101
0.0609874
0.068946
0.0749329
0.0796808
0.0835602
0.0867942
0.0895314
0.0918775
0.0939098
0.0956858
0.0972483
0.0986285
0.0998486
0.100923
0.101861
0.102667
0.103342
0.103885
0.104294
0.104567
0.104705
0.104706
0.104575
0.104316
0.103936
0.103445
0.102854
0.102176
0.101426
0.100618
0.0997668
0.0988872
0.0979932
0.0970944
0.0962
0.0953202
0.094464
0.0936385
0.0928494
0.0921008
0.0913951
0.0907336
0.0901165
0.0262264
0.0483434
0.0600376
0.0678323
0.0736655
0.0782647
0.0819984
0.0850886
0.0876837
0.0898889
0.0917817
0.0934201
0.0948477
0.096097
0.0971918
0.0981487
0.0989788
0.0996892
0.100283
0.100763
0.101127
0.101378
0.101514
0.101537
0.10145
0.101256
0.100963
0.100577
0.100108
0.0995659
0.0989617
0.0983073
0.0976145
0.0968948
0.0961595
0.0954188
0.0946783
0.0939462
0.0932297
0.0925349
0.0918668
0.091229
0.090624
0.0900533
0.0895173
0.0257414
0.0476742
0.0592026
0.0668563
0.0725578
0.0770302
0.0806408
0.0836107
0.0860879
0.0881774
0.0899569
0.0914844
0.0928042
0.0939495
0.0949453
0.0958097
0.0965555
0.0971914
0.0977228
0.0981531
0.0984842
0.0987174
0.0988539
0.0988956
0.098845
0.098706
0.0984835
0.0981836
0.0978137
0.0973818
0.0968967
0.0963679
0.0958045
0.095216
0.0946112
0.0939986
0.0933846
0.0927741
0.0921731
0.0915868
0.0910194
0.0904743
0.0899538
0.0894596
0.0889923
0.0253102
0.0470968
0.0584861
0.066021
0.0716114
0.0759773
0.0794848
0.082355
0.0847354
0.086731
0.0884193
0.0898586
0.0910934
0.0921574
0.0930762
0.093869
0.0945497
0.0951284
0.0956119
0.096005
0.0963108
0.0965316
0.0966695
0.0967268
0.096706
0.0966105
0.0964447
0.0962134
0.0959227
0.0955789
0.0951892
0.0947609
0.0943016
0.0938185
0.093319
0.0928099
0.0922975
0.0917854
0.0912783
0.0907805
0.0902958
0.089827
0.0893765
0.0889459
0.0885361
0.0249352
0.0466184
0.0578966
0.0653344
0.0708328
0.0751099
0.0785318
0.0813194
0.0836204
0.0855399
0.0871552
0.0885245
0.0896924
0.090693
0.0915522
0.0922898
0.0929206
0.0934555
0.0939025
0.0942672
0.0945539
0.0947656
0.0949049
0.0949745
0.0949771
0.0949157
0.0947941
0.0946165
0.0943876
0.0941129
0.0937979
0.0934485
0.093071
0.0926712
0.092255
0.091828
0.0913955
0.0909618
0.0905298
0.0901031
0.089685
0.0892781
0.0888845
0.0885059
0.0881432
0.0246228
0.046254
0.0574507
0.0648126
0.0702362
0.0744397
0.0777898
0.0805083
0.0827433
0.0846
0.0861556
0.0874685
0.088583
0.0895333
0.0903456
0.09104
0.0916318
0.0921326
0.0925511
0.0928937
0.0931653
0.0933695
0.0935096
0.0935882
0.0936082
0.0935725
0.0934844
0.0933475
0.0931658
0.0929436
0.0926857
0.0923969
0.0920821
0.0917464
0.0913945
0.0910312
0.090661
0.0902877
0.0899141
0.0895431
0.0891774
0.0888193
0.0884709
0.0881336
0.0878087
0.024385
0.0460293
0.0571775
0.0644841
0.0698474
0.0739886
0.0772766
0.0799349
0.0821124
0.0839148
0.0854194
0.0866844
0.0877541
0.0886625
0.089436
0.0900948
0.0906546
0.0911275
0.0915224
0.0918465
0.092105
0.0923021
0.0924413
0.0925255
0.0925575
0.0925401
0.0924762
0.0923691
0.092222
0.0920386
0.0918229
0.0915789
0.0913107
0.0910225
0.0907186
0.0904028
0.090079
0.0897507
0.0894208
0.0890916
0.0887654
0.0884443
0.0881302
0.0878245
0.0875286
0.0242426
0.0459862
0.0571235
0.064394
0.0697075
0.0737925
0.0770223
0.0796234
0.0817463
0.0834973
0.084954
0.0861744
0.0872028
0.088073
0.0888113
0.0894381
0.0899691
0.0904167
0.0907903
0.0910971
0.0913428
0.0915319
0.0916681
0.0917543
0.0917933
0.0917877
0.0917403
0.0916536
0.0915306
0.0913745
0.0911884
0.0909758
0.0907404
0.0904856
0.0902151
0.0899324
0.0896409
0.0893438
0.089044
0.0887437
0.0884448
0.0881493
0.087859
0.0875754
0.0872997
0.0242297
0.046189
0.0573586
0.0646089
0.0698766
0.0739035
0.0770711
0.0796103
0.0816741
0.0833699
0.0847755
0.085949
0.0869343
0.0877651
0.0884676
0.089062
0.0895641
0.0899863
0.0903381
0.090627
0.0908588
0.0910381
0.0911686
0.0912532
0.0912947
0.0912954
0.0912577
0.0911838
0.0910763
0.0909377
0.0907708
0.0905785
0.0903638
0.0901298
0.0898799
0.0896172
0.0893448
0.0890658
0.088783
0.0884987
0.0882149
0.0879334
0.0876562
0.0873847
0.0871204
0.0244005
0.0467323
0.0579818
0.0652211
0.0704357
0.0743908
0.0774808
0.0799432
0.0819344
0.0835631
0.0849075
0.0860255
0.0869606
0.0877461
0.088408
0.0889661
0.089436
0.0898301
0.0901579
0.0904267
0.0906423
0.0908093
0.0909312
0.0910109
0.0910508
0.0910531
0.0910197
0.0909526
0.0908536
0.0907249
0.0905686
0.0903871
0.090183
0.089959
0.0897179
0.0894628
0.0891967
0.0889226
0.0886434
0.0883617
0.0880798
0.0877997
0.0875235
0.087253
0.08699
0.0248381
0.0477499
0.0591277
0.0663507
0.0714869
0.0753391
0.0783206
0.0806781
0.082572
0.0841124
0.0853776
0.0864249
0.0872973
0.0880273
0.0886399
0.0891548
0.0895871
0.0899485
0.0902484
0.0904938
0.0906903
0.0908421
0.0909526
0.0910244
0.0910596
0.0910598
0.0910268
0.0909617
0.0908662
0.0907416
0.0905895
0.0904116
0.0902098
0.0899864
0.0897437
0.0894846
0.089212
0.088929
0.0886388
0.0883445
0.0880492
0.0877554
0.0874658
0.087183
0.0869094
0.0256699
0.0494266
0.06097
0.0681437
0.0731476
0.076841
0.0796629
0.0818713
0.0836306
0.0850516
0.0862119
0.0871675
0.0879599
0.0886202
0.0891725
0.0896352
0.0900225
0.0903455
0.0906129
0.0908311
0.0910053
0.0911393
0.091236
0.0912975
0.0913256
0.0913215
0.0912862
0.0912207
0.0911256
0.0910018
0.0908498
0.0906707
0.0904655
0.0902355
0.0899825
0.0897087
0.0894167
0.0891099
0.0887921
0.0884671
0.0881393
0.0878126
0.0874913
0.0871794
0.0868803
0.0271063
0.0520167
0.0637237
0.0707644
0.0755386
0.0789839
0.0815707
0.083568
0.0851428
0.0864044
0.0874278
0.0882662
0.0889583
0.0895331
0.0900124
0.090413
0.0907477
0.0910264
0.0912566
0.0914442
0.0915933
0.0917073
0.0917883
0.0918382
0.0918581
0.0918487
0.0918105
0.0917438
0.0916487
0.0915249
0.0913724
0.0911909
0.09098
0.0907399
0.0904708
0.0901737
0.0898504
0.089504
0.0891388
0.0887602
0.0883746
0.0879893
0.0876116
0.0872481
0.0869044
0.0295232
0.0558788
0.0676457
0.0743785
0.0787609
0.0818266
0.0840763
0.085785
0.0871161
0.0881734
0.0890257
0.0897206
0.0902925
0.0907664
0.0911611
0.0914907
0.0917661
0.0919953
0.0921847
0.0923387
0.0924608
0.0925534
0.0926181
0.092656
0.0926678
0.0926537
0.0926138
0.0925476
0.0924546
0.0923338
0.0921839
0.0920032
0.0917899
0.0915418
0.0912567
0.0909328
0.0905695
0.0901678
0.0897319
0.089269
0.0887899
0.0883088
0.0878396
0.0873945
0.086982
0.0335853
0.0615301
0.0730218
0.0791148
0.0828537
0.085363
0.0871538
0.0884897
0.0895187
0.0903303
0.0909819
0.0915123
0.0919486
0.0923104
0.0926123
0.092865
0.0930767
0.0932534
0.0933997
0.0935188
0.093613
0.0936839
0.0937324
0.0937592
0.0937643
0.0937477
0.0937089
0.0936472
0.0935613
0.0934498
0.0933103
0.0931398
0.0929345
0.0926895
0.0923985
0.092055
0.0916521
0.0911847
0.0906522
0.0900622
0.0894333
0.088798
0.088186
0.0876186
0.0871075
0.0404752
0.0697233
0.0800994
0.0849693
0.0877161
0.0894688
0.0906859
0.091582
0.0922692
0.0928112
0.0932477
0.0936045
0.0938996
0.0941458
0.0943527
0.0945271
0.0946742
0.094798
0.0949009
0.0949851
0.0950518
0.0951018
0.0951353
0.0951527
0.0951536
0.0951377
0.0951044
0.0950528
0.0949815
0.0948887
0.0947717
0.0946269
0.0944487
0.0942298
0.0939595
0.0936238
0.0932045
0.0926805
0.092032
0.091252
0.0903674
0.0894772
0.0886456
0.0879048
0.0872641
0.0532621
0.0815273
0.0888096
0.0915825
0.0929865
0.0938481
0.0944462
0.0948936
0.0952437
0.0955256
0.0957569
0.0959492
0.0961109
0.0962479
0.0963647
0.0964647
0.0965501
0.0966229
0.0966843
0.096735
0.0967754
0.0968059
0.0968263
0.0968364
0.0968361
0.0968249
0.0968022
0.0967674
0.0967193
0.0966565
0.096577
0.0964773
0.0963527
0.0961951
0.0959925
0.0957249
0.0953608
0.0948498
0.0941166
0.093067
0.0916559
0.09032
0.0891645
0.0882024
0.0874147
0.0865777
0.0970656
0.0976134
0.0978095
0.0979298
0.0980363
0.0981366
0.0982287
0.0983112
0.098384
0.0984478
0.0985037
0.0985527
0.0985957
0.0986337
0.0986672
0.0986968
0.0987227
0.0987453
0.0987645
0.0987804
0.0987929
0.0988019
0.0988072
0.0988086
0.0988061
0.0987992
0.0987878
0.0987715
0.0987498
0.0987221
0.098687
0.0986429
0.0985862
0.0985107
0.098404
0.0982391
0.0979544
0.097398
0.0961809
0.0931928
0.0911062
0.0895694
0.0884036
0.0875023
)
;

boundaryField
{
    leftWall
    {
        type            kqRWallFunction;
        value           nonuniform List<scalar> 
42
(
0.0355507
0.0366752
0.0376383
0.0384023
0.0388934
0.0391533
0.0392128
0.0390917
0.0388052
0.0383682
0.0377979
0.0371145
0.0363406
0.0355002
0.0346171
0.0337138
0.0328096
0.0319204
0.0310579
0.0302303
0.0294427
0.028699
0.0280028
0.0273574
0.026765
0.0262264
0.0257414
0.0253102
0.0249352
0.0246228
0.024385
0.0242426
0.0242297
0.0244005
0.0248381
0.0256699
0.0271063
0.0295232
0.0335853
0.0404752
0.0532621
0.0865777
)
;
    }
    rightWall
    {
        type            kqRWallFunction;
        value           nonuniform 0();
    }
    lowerWall
    {
        type            kqRWallFunction;
        value           nonuniform 0();
    }
    atmosphere
    {
        type            inletOutlet;
        inletValue      uniform 0.1;
        value           nonuniform List<scalar> 
45
(
0.1
0.1
0.1
0.1
0.1
0.1
0.1
0.1
0.1
0.1
0.1
0.1
0.1
0.1
0.1
0.1
0.1
0.1
0.1
0.1
0.1
0.1
0.1
0.1
0.1
0.1
0.1
0.1
0.1
0.1
0.1
0.1
0.1
0.1
0.1
0.1
0.1
0.1
0.1
0.1
0.0931928
0.0911062
0.0895694
0.0884036
0.0875023
)
;
    }
    defaultFaces
    {
        type            empty;
    }
    procBoundary2to0
    {
        type            processor;
        value           nonuniform List<scalar> 
46
(
0.272474
0.296243
0.31931
0.338901
0.352219
0.357003
0.35259
0.340132
0.321801
0.300072
0.276957
0.254108
0.232739
0.213614
0.197079
0.183143
0.171591
0.162083
0.154247
0.147728
0.142217
0.137463
0.133268
0.12948
0.125989
0.034317
0.0509436
0.0643049
0.0743196
0.0830252
0.0911428
0.0989476
0.106598
0.114249
0.122085
0.130308
0.139133
0.148772
0.159421
0.171264
0.184484
0.199207
0.215532
0.23349
0.252924
0.252924
)
;
    }
    procBoundary2to3
    {
        type            processor;
        value           nonuniform List<scalar> 
43
(
0.120718
0.118821
0.117019
0.115302
0.113663
0.112094
0.110584
0.109125
0.10771
0.10633
0.10498
0.103655
0.102355
0.101078
0.099829
0.0986113
0.0974318
0.0962976
0.0952162
0.0941946
0.0932388
0.0923533
0.0915409
0.0908025
0.0901372
0.0895428
0.0890159
0.0885523
0.0881475
0.0877971
0.0874969
0.0872432
0.0870331
0.0868645
0.086736
0.0866469
0.0865967
0.0865842
0.0866066
0.0866565
0.0867201
0.0867746
0.0867965
)
;
    }
}


// ************************************************************************* //
