/*--------------------------------*- C++ -*----------------------------------*\
| =========                 |                                                 |
| \\      /  F ield         | OpenFOAM: The Open Source CFD Toolbox           |
|  \\    /   O peration     | Version:  5.0                                   |
|   \\  /    A nd           | Web:      www.OpenFOAM.org                      |
|    \\/     M anipulation  |                                                 |
\*---------------------------------------------------------------------------*/
FoamFile
{
    version     2.0;
    format      ascii;
    class       surfaceScalarField;
    location    "0.2";
    object      phi;
}
// * * * * * * * * * * * * * * * * * * * * * * * * * * * * * * * * * * * * * //

dimensions      [0 3 -1 0 0 0 0];

internalField   nonuniform List<scalar> 
3742
(
-1.43792e-05
-6.76733e-05
-1.87234e-05
-6.28076e-05
-2.34951e-05
-5.63912e-05
-2.83222e-05
-4.82797e-05
-3.28092e-05
-3.86281e-05
-3.65866e-05
-2.78146e-05
-3.94288e-05
-1.6404e-05
-4.1286e-05
-5.01363e-06
-4.22132e-05
5.82824e-06
-4.23128e-05
1.57319e-05
-4.17026e-05
2.44504e-05
-4.05012e-05
3.18674e-05
-3.88221e-05
3.79743e-05
-3.67712e-05
4.28419e-05
-3.44445e-05
4.65914e-05
-3.19258e-05
4.93675e-05
-2.92851e-05
5.13179e-05
-2.65787e-05
5.25795e-05
-2.38513e-05
5.32712e-05
-2.11382e-05
5.34926e-05
-1.84682e-05
5.33255e-05
-1.58653e-05
5.28369e-05
-1.33508e-05
5.20822e-05
-1.09426e-05
5.11079e-05
4.99535e-05
2.08242e-06
-8.40133e-05
2.32603e-06
-8.42442e-05
3.23174e-06
-8.05017e-05
4.16713e-06
-7.80956e-05
4.81152e-06
-7.66956e-05
5.06029e-06
-7.60334e-05
4.91886e-06
-7.58742e-05
4.44466e-06
-7.6019e-05
3.71091e-06
-7.63135e-05
2.78223e-06
-7.66456e-05
1.70481e-06
-7.69354e-05
5.02818e-07
-7.71244e-05
-8.19125e-07
-7.71646e-05
-2.27713e-06
-7.70115e-05
-3.90645e-06
-7.66139e-05
-5.75809e-06
-7.59071e-05
-7.89426e-06
-7.4806e-05
-1.03838e-05
-7.32006e-05
-1.32942e-05
-7.09513e-05
-1.66712e-05
-6.78891e-05
-2.05226e-05
-6.38218e-05
-2.47775e-05
-5.85527e-05
-2.92422e-05
-5.19265e-05
-3.36117e-05
-4.39102e-05
-3.75697e-05
-3.46702e-05
-4.08386e-05
-2.45457e-05
-4.3244e-05
-1.39986e-05
-4.47332e-05
-3.52443e-06
-4.53422e-05
6.43723e-06
-4.51585e-05
1.55482e-05
-4.42943e-05
2.35861e-05
-4.28691e-05
3.04421e-05
-4.09997e-05
3.61049e-05
-3.87945e-05
4.06367e-05
-3.6349e-05
4.41459e-05
-3.37437e-05
4.67622e-05
-3.10441e-05
4.86183e-05
-2.83015e-05
4.98369e-05
-2.55561e-05
5.05259e-05
-2.28395e-05
5.0776e-05
-2.0177e-05
5.0663e-05
-1.75899e-05
5.02497e-05
-1.50962e-05
4.95885e-05
-1.27117e-05
4.87234e-05
4.76922e-05
7.90918e-07
-8.48042e-05
6.0533e-07
-8.40586e-05
1.04225e-06
-8.09387e-05
1.56899e-06
-7.86223e-05
1.93e-06
-7.70565e-05
2.01005e-06
-7.61135e-05
1.77517e-06
-7.56393e-05
1.23938e-06
-7.54832e-05
4.39161e-07
-7.55133e-05
-5.85315e-07
-7.56212e-05
-1.80091e-06
-7.57199e-05
-3.18734e-06
-7.5738e-05
-4.73914e-06
-7.56129e-05
-6.46679e-06
-7.52839e-05
-8.39539e-06
-7.46853e-05
-1.05618e-05
-7.37407e-05
-1.30099e-05
-7.23579e-05
-1.57842e-05
-7.04264e-05
-1.89184e-05
-6.7817e-05
-2.2422e-05
-6.43855e-05
-2.62606e-05
-5.99833e-05
-3.033e-05
-5.44833e-05
-3.44472e-05
-4.78093e-05
-3.83637e-05
-3.99937e-05
-4.18247e-05
-3.12091e-05
-4.46157e-05
-2.17548e-05
-4.66003e-05
-1.2014e-05
-4.77325e-05
-2.39223e-06
-4.80401e-05
6.74492e-06
-4.76008e-05
1.51089e-05
-4.652e-05
2.25053e-05
-4.49142e-05
2.88363e-05
-4.2899e-05
3.40897e-05
-4.05807e-05
3.83185e-05
-3.80517e-05
4.16169e-05
-3.53884e-05
4.40989e-05
-3.26518e-05
4.58816e-05
-2.98893e-05
4.70744e-05
-2.71375e-05
4.77741e-05
-2.44251e-05
4.80635e-05
-2.17749e-05
4.80128e-05
-1.92059e-05
4.76806e-05
-1.67339e-05
4.71165e-05
-1.43725e-05
4.6362e-05
4.54529e-05
-3.46973e-07
-8.44572e-05
-8.03075e-07
-8.36025e-05
-8.51378e-07
-8.08903e-05
-7.90816e-07
-7.86829e-05
-8.01858e-07
-7.70455e-05
-9.94872e-07
-7.59204e-05
-1.42527e-06
-7.52089e-05
-2.10886e-06
-7.47996e-05
-3.03771e-06
-7.45844e-05
-4.19359e-06
-7.44653e-05
-5.55785e-06
-7.43556e-05
-7.11764e-06
-7.41782e-05
-8.86934e-06
-7.38612e-05
-1.08197e-05
-7.33335e-05
-1.29855e-05
-7.25196e-05
-1.53902e-05
-7.1336e-05
-1.80598e-05
-6.96883e-05
-2.10152e-05
-6.7471e-05
-2.4263e-05
-6.45692e-05
-2.77825e-05
-6.0866e-05
-3.15114e-05
-5.62544e-05
-3.53373e-05
-5.06574e-05
-3.90904e-05
-4.40561e-05
-4.25659e-05
-3.65183e-05
-4.55596e-05
-2.82155e-05
-4.79036e-05
-1.94107e-05
-4.94918e-05
-1.04258e-05
-5.02883e-05
-1.59575e-06
-5.03188e-05
6.77548e-06
-4.96544e-05
1.44444e-05
-4.83935e-05
2.12444e-05
-4.66469e-05
2.70898e-05
-4.45251e-05
3.1968e-05
-4.21297e-05
3.5923e-05
-3.9548e-05
3.90352e-05
-3.68518e-05
4.14028e-05
-3.4098e-05
4.31278e-05
-3.13306e-05
4.4307e-05
-2.85835e-05
4.5027e-05
-2.58833e-05
4.53633e-05
-2.32509e-05
4.53804e-05
-2.07035e-05
4.51332e-05
-1.82552e-05
4.46682e-05
-1.5918e-05
4.40248e-05
4.32366e-05
-1.05532e-06
-8.34019e-05
-1.93168e-06
-8.27261e-05
-2.47769e-06
-8.03443e-05
-2.89008e-06
-7.82705e-05
-3.30495e-06
-7.66306e-05
-3.82385e-06
-7.54015e-05
-4.51147e-06
-7.45213e-05
-5.40145e-06
-7.39096e-05
-6.50561e-06
-7.34802e-05
-7.82317e-06
-7.31477e-05
-9.34832e-06
-7.28305e-05
-1.10759e-05
-7.24506e-05
-1.3005e-05
-7.19321e-05
-1.514e-05
-7.11985e-05
-1.74903e-05
-7.01693e-05
-2.00674e-05
-6.87588e-05
-2.28811e-05
-6.68747e-05
-2.59322e-05
-6.44199e-05
-2.92051e-05
-6.12963e-05
-3.26585e-05
-5.74127e-05
-3.62164e-05
-5.26965e-05
-3.97635e-05
-4.71102e-05
-4.31493e-05
-4.06704e-05
-4.62033e-05
-3.34643e-05
-4.8762e-05
-2.56567e-05
-5.06939e-05
-1.74788e-05
-5.19175e-05
-9.20213e-06
-5.2408e-05
-1.10524e-06
-5.21919e-05
6.55937e-06
-5.13352e-05
1.35878e-05
-4.99295e-05
1.98387e-05
-4.80781e-05
2.52383e-05
-4.58841e-05
2.9774e-05
-4.34423e-05
3.34812e-05
-4.08343e-05
3.64272e-05
-3.81271e-05
3.86955e-05
-3.53736e-05
4.03744e-05
-3.26152e-05
4.15485e-05
-2.98837e-05
4.22955e-05
-2.72039e-05
4.26835e-05
-2.45954e-05
4.2772e-05
-2.20741e-05
4.26119e-05
-1.96528e-05
4.22469e-05
-1.73421e-05
4.1714e-05
4.1045e-05
-1.54382e-06
-8.18581e-05
-2.84481e-06
-8.14251e-05
-3.86122e-06
-7.93279e-05
-4.71945e-06
-7.74123e-05
-5.53391e-06
-7.58161e-05
-6.39525e-06
-7.45401e-05
-7.36929e-06
-7.35473e-05
-8.49856e-06
-7.27804e-05
-9.80709e-06
-7.21717e-05
-1.13062e-05
-7.16486e-05
-1.3e-05
-7.11367e-05
-1.48897e-05
-7.05608e-05
-1.69768e-05
-6.98451e-05
-1.92635e-05
-6.89117e-05
-2.1753e-05
-6.76798e-05
-2.44467e-05
-6.60651e-05
-2.73403e-05
-6.39811e-05
-3.04191e-05
-6.13411e-05
-3.36512e-05
-5.80642e-05
-3.69818e-05
-5.4082e-05
-4.03289e-05
-4.93494e-05
-4.35821e-05
-4.38571e-05
-4.66087e-05
-3.76437e-05
-4.92675e-05
-3.08055e-05
-5.14274e-05
-2.34969e-05
-5.2986e-05
-1.59202e-05
-5.38826e-05
-8.30556e-06
-5.41025e-05
-8.85244e-07
-5.36741e-05
6.13091e-06
-5.26592e-05
1.25729e-05
-5.11422e-05
1.83218e-05
-4.92179e-05
2.33141e-05
-4.69813e-05
2.75373e-05
-4.45194e-05
3.10193e-05
-4.19077e-05
3.38155e-05
-3.92083e-05
3.59962e-05
-3.64709e-05
3.7637e-05
-3.37343e-05
3.8812e-05
-3.10288e-05
3.95899e-05
-2.83779e-05
4.00326e-05
-2.58001e-05
4.01942e-05
-2.33103e-05
4.0122e-05
-2.09202e-05
3.98568e-05
-1.86394e-05
3.94332e-05
3.88809e-05
-1.91714e-06
-7.99409e-05
-3.59368e-06
-7.97485e-05
-5.01687e-06
-7.79047e-05
-6.27671e-06
-7.61524e-05
-7.4651e-06
-7.46277e-05
-8.66072e-06
-7.33445e-05
-9.92578e-06
-7.22822e-05
-1.13055e-05
-7.14006e-05
-1.28302e-05
-7.0647e-05
-1.45187e-05
-6.99601e-05
-1.63817e-05
-6.92737e-05
-1.84247e-05
-6.85178e-05
-2.06505e-05
-6.76193e-05
-2.30594e-05
-6.65028e-05
-2.56491e-05
-6.50901e-05
-2.84124e-05
-6.33018e-05
-3.13344e-05
-6.1059e-05
-3.43885e-05
-5.8287e-05
-3.75321e-05
-5.49206e-05
-4.07033e-05
-5.09108e-05
-4.38192e-05
-4.62336e-05
-4.67772e-05
-4.0899e-05
-4.94623e-05
-3.49586e-05
-5.17575e-05
-2.85103e-05
-5.35583e-05
-2.16961e-05
-5.47858e-05
-1.46926e-05
-5.53965e-05
-7.69492e-06
-5.53845e-05
-8.97198e-07
-5.47796e-05
5.52603e-06
-5.364e-05
1.14332e-05
-5.20428e-05
1.67245e-05
-5.00741e-05
2.13454e-05
-4.78202e-05
2.52834e-05
-4.53606e-05
2.85598e-05
-4.27647e-05
3.12195e-05
-4.00899e-05
3.33214e-05
-3.73829e-05
3.49299e-05
-3.46804e-05
3.61094e-05
-3.20111e-05
3.69207e-05
-2.93978e-05
3.74192e-05
-2.68581e-05
3.76545e-05
-2.44059e-05
3.76698e-05
-2.20522e-05
3.75031e-05
-1.98057e-05
3.71867e-05
3.67483e-05
-2.20251e-06
-7.77384e-05
-4.1962e-06
-7.77548e-05
-5.96235e-06
-7.61385e-05
-7.57037e-06
-7.45444e-05
-9.09341e-06
-7.31046e-05
-1.05981e-05
-7.18398e-05
-1.21404e-05
-7.07399e-05
-1.37642e-05
-6.97768e-05
-1.55019e-05
-6.89093e-05
-1.73758e-05
-6.80863e-05
-1.94e-05
-6.72495e-05
-2.15826e-05
-6.63352e-05
-2.39263e-05
-6.52756e-05
-2.64295e-05
-6.39997e-05
-2.9085e-05
-6.24346e-05
-3.1879e-05
-6.05078e-05
-3.47887e-05
-5.81493e-05
-3.77795e-05
-5.52963e-05
-4.08025e-05
-5.18976e-05
-4.3793e-05
-4.79202e-05
-4.6671e-05
-4.33556e-05
-4.93436e-05
-3.82264e-05
-5.17117e-05
-3.25905e-05
-5.36791e-05
-2.65429e-05
-5.51629e-05
-2.02122e-05
-5.61035e-05
-1.3752e-05
-5.64709e-05
-7.32762e-06
-5.62664e-05
-1.10166e-06
-5.55208e-05
4.78045e-06
-5.42884e-05
1.02008e-05
-5.26394e-05
1.50755e-05
-5.06516e-05
1.93576e-05
-4.84027e-05
2.30345e-05
-4.5965e-05
2.61221e-05
-4.3402e-05
2.86565e-05
-4.0767e-05
3.06865e-05
-3.81037e-05
3.22666e-05
-3.5447e-05
3.34527e-05
-3.28244e-05
3.42981e-05
-3.02576e-05
3.48525e-05
-2.77637e-05
3.51605e-05
-2.5356e-05
3.52621e-05
-2.30446e-05
3.51918e-05
-2.08376e-05
3.49797e-05
3.46515e-05
-2.42009e-06
-7.53183e-05
-4.66875e-06
-7.55062e-05
-6.71557e-06
-7.40917e-05
-8.61524e-06
-7.26447e-05
-1.04262e-05
-7.12937e-05
-1.22039e-05
-7.00622e-05
-1.39967e-05
-6.8947e-05
-1.58451e-05
-6.79285e-05
-1.77802e-05
-6.69741e-05
-1.98251e-05
-6.60414e-05
-2.19948e-05
-6.50797e-05
-2.42979e-05
-6.40321e-05
-2.67365e-05
-6.2837e-05
-2.93065e-05
-6.14297e-05
-3.19971e-05
-5.9744e-05
-3.47894e-05
-5.77154e-05
-3.76553e-05
-5.52835e-05
-4.05552e-05
-5.23964e-05
-4.34375e-05
-4.90153e-05
-4.62381e-05
-4.51196e-05
-4.88819e-05
-4.07118e-05
-5.12862e-05
-3.5822e-05
-5.33666e-05
-3.05101e-05
-5.50443e-05
-2.48652e-05
-5.62543e-05
-1.90023e-05
-5.69519e-05
-1.30543e-05
-5.71181e-05
-7.16146e-06
-5.67597e-05
-1.46007e-06
-5.59077e-05
3.92845e-06
-5.46126e-05
8.90563e-06
-5.29378e-05
1.34007e-05
-5.09534e-05
1.73731e-05
-4.87293e-05
2.08104e-05
-4.63311e-05
2.37238e-05
-4.38167e-05
2.61421e-05
-4.12357e-05
2.81054e-05
-3.86289e-05
2.96598e-05
-3.60295e-05
3.08533e-05
-3.34639e-05
3.17325e-05
-3.0953e-05
3.23416e-05
-2.85132e-05
3.27207e-05
-2.61571e-05
3.2906e-05
-2.38945e-05
3.29292e-05
-2.17327e-05
3.28179e-05
3.25958e-05
-2.58124e-06
-7.27371e-05
-5.02496e-06
-7.30625e-05
-7.29329e-06
-7.18234e-05
-9.42866e-06
-7.05093e-05
-1.1478e-05
-6.92444e-05
-1.34864e-05
-6.80537e-05
-1.54951e-05
-6.69384e-05
-1.75391e-05
-6.58844e-05
-1.9647e-05
-6.48663e-05
-2.18401e-05
-6.38482e-05
-2.41331e-05
-6.27868e-05
-2.65333e-05
-6.16319e-05
-2.90415e-05
-6.03288e-05
-3.16516e-05
-5.88196e-05
-3.43496e-05
-5.70461e-05
-3.71132e-05
-5.49518e-05
-3.9911e-05
-5.24858e-05
-4.27012e-05
-4.96062e-05
-4.5432e-05
-4.62846e-05
-4.80419e-05
-4.25097e-05
-5.04621e-05
-3.82916e-05
-5.26201e-05
-3.36641e-05
-5.44444e-05
-2.86857e-05
-5.58711e-05
-2.34386e-05
-5.68492e-05
-1.80242e-05
-5.73464e-05
-1.25571e-05
-5.73517e-05
-7.15619e-06
-5.68758e-05
-1.93592e-06
-5.59495e-05
3.00211e-06
-5.46193e-05
7.57536e-06
-5.29425e-05
1.1724e-05
-5.09821e-05
1.54127e-05
-4.88009e-05
1.86292e-05
-4.64582e-05
2.13811e-05
-4.40072e-05
2.3691e-05
-4.14935e-05
2.55918e-05
-3.89557e-05
2.7122e-05
-3.64251e-05
2.83226e-05
-3.39269e-05
2.92343e-05
-3.14813e-05
2.9896e-05
-2.91041e-05
3.03434e-05
-2.68073e-05
3.06092e-05
-2.46003e-05
3.07221e-05
-2.24898e-05
3.07074e-05
3.05867e-05
-2.69105e-06
-7.0046e-05
-5.27567e-06
-7.04779e-05
-7.71093e-06
-6.93882e-05
-1.0029e-05
-6.81913e-05
-1.22673e-05
-6.70062e-05
-1.4462e-05
-6.5859e-05
-1.66471e-05
-6.47533e-05
-1.88523e-05
-6.36793e-05
-2.11021e-05
-6.26164e-05
-2.34153e-05
-6.1535e-05
-2.58045e-05
-6.03977e-05
-2.82753e-05
-5.91611e-05
-3.0827e-05
-5.77772e-05
-3.3451e-05
-5.61956e-05
-3.61315e-05
-5.43656e-05
-3.88439e-05
-5.22393e-05
-4.15552e-05
-4.97745e-05
-4.42234e-05
-4.6938e-05
-4.67982e-05
-4.37097e-05
-4.92224e-05
-4.00856e-05
-5.14339e-05
-3.60801e-05
-5.33698e-05
-3.17282e-05
-5.497e-05
-2.70854e-05
-5.61829e-05
-2.22257e-05
-5.6969e-05
-1.72381e-05
-5.73054e-05
-1.22208e-05
-5.7187e-05
-7.27453e-06
-5.66274e-05
-2.49557e-06
-5.56561e-05
2.03086e-06
-5.43161e-05
6.23534e-06
-5.26591e-05
1.00671e-05
-5.07415e-05
1.34951e-05
-4.86198e-05
1.65075e-05
-4.63478e-05
1.91091e-05
-4.3974e-05
2.13172e-05
-4.15407e-05
2.31585e-05
-3.90838e-05
2.46652e-05
-3.66332e-05
2.58719e-05
-3.42128e-05
2.68139e-05
-3.1842e-05
2.75252e-05
-2.95359e-05
2.80373e-05
-2.73062e-05
2.83795e-05
-2.51617e-05
2.85776e-05
-2.31088e-05
2.86545e-05
2.86299e-05
-2.75473e-06
-6.72913e-05
-5.43197e-06
-6.78007e-05
-7.98442e-06
-6.68357e-05
-1.0436e-05
-6.57397e-05
-1.28157e-05
-6.46265e-05
-1.51523e-05
-6.35224e-05
-1.74729e-05
-6.24326e-05
-1.9802e-05
-6.13503e-05
-2.21597e-05
-6.02587e-05
-2.45615e-05
-5.91332e-05
-2.70173e-05
-5.79419e-05
-2.95309e-05
-5.66475e-05
-3.20993e-05
-5.52088e-05
-3.47126e-05
-5.35823e-05
-3.73531e-05
-5.17251e-05
-3.99954e-05
-4.9597e-05
-4.26063e-05
-4.71635e-05
-4.5145e-05
-4.43994e-05
-4.75639e-05
-4.12908e-05
-4.98107e-05
-3.78388e-05
-5.18304e-05
-3.40603e-05
-5.35688e-05
-2.99898e-05
-5.49759e-05
-2.56783e-05
-5.60098e-05
-2.11918e-05
-5.66403e-05
-1.66075e-05
-5.68517e-05
-1.20094e-05
-5.66433e-05
-7.48288e-06
-5.60301e-05
-3.10878e-06
-5.50404e-05
1.04119e-06
-5.37135e-05
4.9084e-06
-5.2096e-05
8.44955e-06
-5.02384e-05
1.16375e-05
-4.81917e-05
1.44608e-05
-4.60044e-05
1.69217e-05
-4.37208e-05
1.90336e-05
-4.13801e-05
2.08178e-05
-3.90158e-05
2.23009e-05
-3.66559e-05
2.3512e-05
-3.43233e-05
2.44814e-05
-3.20365e-05
2.52383e-05
-2.981e-05
2.58108e-05
-2.7655e-05
2.62245e-05
-2.558e-05
2.65025e-05
-2.35909e-05
2.66655e-05
2.67311e-05
-2.77819e-06
-6.45131e-05
-5.50523e-06
-6.50737e-05
-8.13025e-06
-6.42107e-05
-1.06702e-05
-6.31997e-05
-1.31469e-05
-6.21499e-05
-1.55825e-05
-6.10868e-05
-1.79983e-05
-6.00168e-05
-2.04135e-05
-5.89351e-05
-2.28441e-05
-5.78281e-05
-2.53021e-05
-5.66753e-05
-2.77944e-05
-5.54496e-05
-3.03226e-05
-5.41193e-05
-3.2882e-05
-5.26494e-05
-3.54612e-05
-5.10031e-05
-3.80419e-05
-4.91445e-05
-4.05985e-05
-4.70404e-05
-4.30987e-05
-4.46634e-05
-4.55036e-05
-4.19944e-05
-4.77696e-05
-3.90248e-05
-4.98494e-05
-3.5759e-05
-5.16948e-05
-3.22149e-05
-5.32594e-05
-2.84252e-05
-5.45017e-05
-2.44361e-05
-5.5388e-05
-2.03054e-05
-5.58955e-05
-1.61e-05
-5.60135e-05
-1.18914e-05
-5.57447e-05
-7.75165e-06
-5.51046e-05
-3.7489e-06
-5.41199e-05
5.64671e-08
-5.28263e-05
3.61482e-06
-5.12659e-05
6.88912e-06
-4.94839e-05
9.8555e-06
-4.75261e-05
1.2503e-05
-4.54363e-05
1.4832e-05
-4.3255e-05
1.68524e-05
-4.10183e-05
1.85811e-05
-3.87573e-05
2.00398e-05
-3.64983e-05
2.1253e-05
-3.42629e-05
2.2246e-05
-3.20688e-05
2.30442e-05
-2.99298e-05
2.36718e-05
-2.78568e-05
2.41514e-05
-2.58577e-05
2.45034e-05
-2.39386e-05
2.47463e-05
2.48958e-05
-2.76714e-06
-6.1746e-05
-5.50644e-06
-6.23344e-05
-8.16451e-06
-6.15527e-05
-1.07521e-05
-6.06121e-05
-1.3285e-05
-5.9617e-05
-1.57797e-05
-5.8592e-05
-1.82524e-05
-5.75441e-05
-2.07175e-05
-5.647e-05
-2.3187e-05
-5.53587e-05
-2.56693e-05
-5.4193e-05
-2.81688e-05
-5.29501e-05
-3.06848e-05
-5.16033e-05
-3.32111e-05
-5.01231e-05
-3.57355e-05
-4.84788e-05
-3.82392e-05
-4.66408e-05
-4.06974e-05
-4.45821e-05
-4.30794e-05
-4.22814e-05
-4.53491e-05
-3.97246e-05
-4.74668e-05
-3.69071e-05
-4.93906e-05
-3.38352e-05
-5.10786e-05
-3.0527e-05
-5.24912e-05
-2.70126e-05
-5.35942e-05
-2.33331e-05
-5.43607e-05
-1.9539e-05
-5.47733e-05
-1.56875e-05
-5.48253e-05
-1.18394e-05
-5.45215e-05
-8.05545e-06
-5.38773e-05
-4.3931e-06
-5.29177e-05
-9.032e-07
-5.1675e-05
2.37211e-06
-5.01869e-05
5.40106e-06
-4.8494e-05
8.1626e-06
-4.66373e-05
1.06463e-05
-4.46564e-05
1.28511e-05
-4.25881e-05
1.47841e-05
-4.04655e-05
1.64584e-05
-3.83173e-05
1.78916e-05
-3.61681e-05
1.91038e-05
-3.40384e-05
2.01163e-05
-3.19448e-05
2.09506e-05
-2.99005e-05
2.16276e-05
-2.7916e-05
2.21669e-05
-2.59991e-05
2.25865e-05
-2.41553e-05
2.29025e-05
2.31291e-05
-2.72706e-06
-5.9019e-05
-5.44626e-06
-5.96152e-05
-8.10281e-06
-5.88961e-05
-1.0702e-05
-5.8013e-05
-1.32546e-05
-5.70644e-05
-1.57723e-05
-5.60743e-05
-1.82667e-05
-5.50497e-05
-2.0748e-05
-5.39886e-05
-2.32245e-05
-5.28822e-05
-2.57017e-05
-5.17158e-05
-2.81812e-05
-5.04706e-05
-3.06605e-05
-4.91239e-05
-3.31323e-05
-4.76513e-05
-3.55836e-05
-4.60275e-05
-3.79962e-05
-4.42282e-05
-4.03462e-05
-4.22321e-05
-4.26051e-05
-4.00226e-05
-4.47399e-05
-3.75898e-05
-4.67152e-05
-3.49319e-05
-4.84939e-05
-3.20564e-05
-5.00401e-05
-2.89808e-05
-5.13204e-05
-2.57323e-05
-5.23064e-05
-2.23471e-05
-5.29767e-05
-1.88687e-05
-5.33182e-05
-1.53459e-05
-5.33273e-05
-1.18303e-05
-5.30097e-05
-8.37301e-06
-5.23805e-05
-5.02228e-06
-5.14627e-05
-1.82107e-06
-5.02854e-05
1.19483e-06
-4.88825e-05
3.99806e-06
-4.72899e-05
6.57004e-06
-4.55445e-05
8.90085e-06
-4.36819e-05
1.09885e-05
-4.17354e-05
1.28376e-05
-3.97352e-05
1.44582e-05
-3.77078e-05
1.58642e-05
-3.56761e-05
1.7072e-05
-3.36591e-05
1.80993e-05
-3.16726e-05
1.89641e-05
-2.97293e-05
1.96843e-05
-2.78391e-05
2.02767e-05
-2.60095e-05
2.07568e-05
-2.4246e-05
2.1139e-05
2.14357e-05
-2.6636e-06
-5.63554e-05
-5.33562e-06
-5.69432e-05
-7.96085e-06
-5.62709e-05
-1.05403e-05
-5.54335e-05
-1.30805e-05
-5.45242e-05
-1.55892e-05
-5.35656e-05
-1.80739e-05
-5.2565e-05
-2.05412e-05
-5.15213e-05
-2.29963e-05
-5.04271e-05
-2.54417e-05
-4.92704e-05
-2.78772e-05
-4.80351e-05
-3.02985e-05
-4.67026e-05
-3.26973e-05
-4.52525e-05
-3.50606e-05
-4.36642e-05
-3.73707e-05
-4.19181e-05
-3.96054e-05
-3.99974e-05
-4.17384e-05
-3.78896e-05
-4.37402e-05
-3.5588e-05
-4.55793e-05
-3.30928e-05
-4.72237e-05
-3.04121e-05
-4.86423e-05
-2.75621e-05
-4.98073e-05
-2.45673e-05
-5.06954e-05
-2.1459e-05
-5.12894e-05
-1.82747e-05
-5.15797e-05
-1.50557e-05
-5.15646e-05
-1.18455e-05
-5.12505e-05
-8.68711e-06
-5.06517e-05
-5.62114e-06
-4.97889e-05
-2.68381e-06
-4.86886e-05
9.44514e-08
-4.73806e-05
2.69003e-06
-4.58971e-05
5.08651e-06
-4.42708e-05
7.27454e-06
-4.25336e-05
9.25128e-06
-4.07156e-05
1.10196e-05
-3.88442e-05
1.25868e-05
-3.69437e-05
1.39637e-05
-3.50352e-05
1.51635e-05
-3.31365e-05
1.62006e-05
-3.12624e-05
1.709e-05
-2.9425e-05
1.78468e-05
-2.76336e-05
1.84853e-05
-2.58956e-05
1.90189e-05
-2.42166e-05
1.946e-05
1.98195e-05
-2.58221e-06
-5.37731e-05
-5.18508e-06
-5.43403e-05
-7.75397e-06
-5.3702e-05
-1.02871e-05
-5.29004e-05
-1.27875e-05
-5.20238e-05
-1.52594e-05
-5.10937e-05
-1.77071e-05
-5.01173e-05
-2.01343e-05
-4.90942e-05
-2.25431e-05
-4.80183e-05
-2.49341e-05
-4.68794e-05
-2.73049e-05
-4.56643e-05
-2.96502e-05
-4.43574e-05
-3.1961e-05
-4.29417e-05
-3.42245e-05
-4.14007e-05
-3.64238e-05
-3.97187e-05
-3.85385e-05
-3.78826e-05
-4.05449e-05
-3.58832e-05
-4.24167e-05
-3.37161e-05
-4.41264e-05
-3.13831e-05
-4.56464e-05
-2.88921e-05
-4.69503e-05
-2.62582e-05
-4.8015e-05
-2.35027e-05
-4.88211e-05
-2.06529e-05
-4.93553e-05
-1.77405e-05
-4.96103e-05
-1.48007e-05
-4.95859e-05
-1.18699e-05
-4.92886e-05
-8.98434e-06
-4.87318e-05
-6.17802e-06
-4.79341e-05
-3.48153e-06
-4.69189e-05
-9.20746e-07
-4.57128e-05
1.48391e-06
-4.43442e-05
3.71791e-06
-4.28422e-05
5.77248e-06
-4.12351e-05
7.64421e-06
-3.955e-05
9.33442e-06
-3.78115e-05
1.08483e-05
-3.60419e-05
1.21941e-05
-3.42605e-05
1.33821e-05
-3.24838e-05
1.44239e-05
-3.07257e-05
1.5332e-05
-2.89976e-05
1.61187e-05
-2.73084e-05
1.67961e-05
-2.56654e-05
1.73759e-05
-2.40738e-05
1.78684e-05
1.82834e-05
-2.48744e-06
-5.12857e-05
-5.00376e-06
-5.1824e-05
-7.49617e-06
-5.12096e-05
-9.96099e-06
-5.04355e-05
-1.23987e-05
-4.9586e-05
-1.48107e-05
-4.86816e-05
-1.71987e-05
-4.77294e-05
-1.95637e-05
-4.67292e-05
-2.19057e-05
-4.56762e-05
-2.42233e-05
-4.45618e-05
-2.65127e-05
-4.33749e-05
-2.87676e-05
-4.21024e-05
-3.09788e-05
-4.07306e-05
-3.31337e-05
-3.92458e-05
-3.52167e-05
-3.76357e-05
-3.72092e-05
-3.58902e-05
-3.90899e-05
-3.40025e-05
-4.08358e-05
-3.19702e-05
-4.24231e-05
-2.97958e-05
-4.38282e-05
-2.7487e-05
-4.50289e-05
-2.50575e-05
-4.60059e-05
-2.25258e-05
-4.67435e-05
-1.99153e-05
-4.7231e-05
-1.7253e-05
-4.74633e-05
-1.45685e-05
-4.74409e-05
-1.18923e-05
-4.71704e-05
-9.25486e-06
-4.66637e-05
-6.6847e-06
-4.59377e-05
-4.2076e-06
-4.50129e-05
-1.84559e-06
-4.39127e-05
3.83695e-07
-4.26621e-05
2.46733e-06
-4.12867e-05
4.39713e-06
-3.98118e-05
6.16931e-06
-3.82614e-05
7.78398e-06
-3.66576e-05
9.24457e-06
-3.50207e-05
1.05571e-05
-3.33682e-05
1.17296e-05
-3.17154e-05
1.27711e-05
-3.00752e-05
1.36918e-05
-2.84583e-05
1.45018e-05
-2.68733e-05
1.52112e-05
-2.53273e-05
1.58298e-05
-2.38253e-05
1.63665e-05
1.68297e-05
-2.38277e-06
-4.8903e-05
-4.79916e-06
-4.94076e-05
-7.19948e-06
-4.88093e-05
-9.5788e-06
-4.80562e-05
-1.19356e-05
-4.72292e-05
-1.42692e-05
-4.6348e-05
-1.65791e-05
-4.54195e-05
-1.88642e-05
-4.4444e-05
-2.1123e-05
-4.34175e-05
-2.33522e-05
-4.23326e-05
-2.55472e-05
-4.11799e-05
-2.7701e-05
-3.99487e-05
-2.98041e-05
-3.86274e-05
-3.18448e-05
-3.72051e-05
-3.38086e-05
-3.5672e-05
-3.56786e-05
-3.40202e-05
-3.74361e-05
-3.2245e-05
-3.90612e-05
-3.03452e-05
-4.05333e-05
-2.83236e-05
-4.18325e-05
-2.61879e-05
-4.29402e-05
-2.39498e-05
-4.38403e-05
-2.16256e-05
-4.45203e-05
-1.92353e-05
-4.49717e-05
-1.68016e-05
-4.51907e-05
-1.43495e-05
-4.51785e-05
-1.19045e-05
-4.49414e-05
-9.49203e-06
-4.449e-05
-7.13611e-06
-4.38391e-05
-4.85847e-06
-4.30069e-05
-2.67785e-06
-4.20137e-05
-6.09485e-07
-4.08815e-05
1.33512e-06
-3.96326e-05
3.14831e-06
-3.82894e-05
4.8261e-06
-3.68731e-05
6.36767e-06
-3.54035e-05
7.77503e-06
-3.38988e-05
9.0524e-06
-3.2375e-05
1.02057e-05
-3.0846e-05
1.12422e-05
-2.9324e-05
1.21697e-05
-2.78188e-05
1.29966e-05
-2.63387e-05
1.37311e-05
-2.48905e-05
1.43816e-05
-2.34793e-05
1.49554e-05
1.54597e-05
-2.27068e-06
-4.66323e-05
-4.57744e-06
-4.71008e-05
-6.87423e-06
-4.65125e-05
-9.15525e-06
-4.57752e-05
-1.14175e-05
-4.49669e-05
-1.36587e-05
-4.41069e-05
-1.58764e-05
-4.32018e-05
-1.80684e-05
-4.22521e-05
-2.02314e-05
-4.12545e-05
-2.23612e-05
-4.02027e-05
-2.44523e-05
-3.90888e-05
-2.64974e-05
-3.79036e-05
-2.84873e-05
-3.66375e-05
-3.04107e-05
-3.52817e-05
-3.22545e-05
-3.38282e-05
-3.40036e-05
-3.22711e-05
-3.56417e-05
-3.06069e-05
-3.71516e-05
-2.88353e-05
-3.85159e-05
-2.69594e-05
-3.97176e-05
-2.49862e-05
-4.07413e-05
-2.2926e-05
-4.15739e-05
-2.0793e-05
-4.22051e-05
-1.8604e-05
-4.26283e-05
-1.63784e-05
-4.28408e-05
-1.41369e-05
-4.28443e-05
-1.1901e-05
-4.26444e-05
-9.69199e-06
-4.22505e-05
-7.52996e-06
-4.16757e-05
-5.43327e-06
-4.09357e-05
-3.4179e-06
-4.00481e-05
-1.49704e-06
-3.90321e-05
3.19122e-07
-3.79072e-05
2.02343e-06
-3.66929e-05
3.61177e-06
-3.54078e-05
5.08267e-06
-3.40698e-05
6.43698e-06
-3.26949e-05
7.67749e-06
-3.12976e-05
8.80848e-06
-2.98908e-05
9.83538e-06
-2.84854e-05
1.07644e-05
-2.70909e-05
1.16021e-05
-2.57151e-05
1.23554e-05
-2.43644e-05
1.30309e-05
-2.30441e-05
1.3635e-05
1.41738e-05
-2.15288e-06
-4.44794e-05
-4.34363e-06
-4.49101e-05
-6.52928e-06
-4.43268e-05
-8.70337e-06
-4.36011e-05
-1.08617e-05
-4.28086e-05
-1.30005e-05
-4.1968e-05
-1.51164e-05
-4.10858e-05
-1.72057e-05
-4.01628e-05
-1.92642e-05
-3.9196e-05
-2.1287e-05
-3.81799e-05
-2.3268e-05
-3.71078e-05
-2.51999e-05
-3.59717e-05
-2.70737e-05
-3.47637e-05
-2.88791e-05
-3.34763e-05
-3.0604e-05
-3.21032e-05
-3.22354e-05
-3.06397e-05
-3.37589e-05
-2.90834e-05
-3.51597e-05
-2.74344e-05
-3.64232e-05
-2.56959e-05
-3.75352e-05
-2.38742e-05
-3.84829e-05
-2.19783e-05
-3.92557e-05
-2.00203e-05
-3.98451e-05
-1.80146e-05
-4.02461e-05
-1.59774e-05
-4.04569e-05
-1.39262e-05
-4.04791e-05
-1.18788e-05
-4.03178e-05
-9.85323e-06
-3.99815e-05
-7.86626e-06
-3.94814e-05
-5.93344e-06
-3.88309e-05
-4.06839e-06
-3.80453e-05
-2.28254e-06
-3.71413e-05
-5.84922e-07
-3.61357e-05
1.01782e-06
-3.50454e-05
2.52152e-06
-3.38869e-05
3.92422e-06
-3.26759e-05
5.2259e-06
-3.14265e-05
6.42818e-06
-3.01521e-05
7.534e-06
-2.8864e-05
8.54734e-06
-2.75726e-05
9.47293e-06
-2.62865e-05
1.0316e-05
-2.50131e-05
1.1082e-05
-2.37586e-05
1.17764e-05
-2.25281e-05
1.24045e-05
1.29714e-05
-2.0305e-06
-4.24489e-05
-4.10185e-06
-4.28387e-05
-6.17236e-06
-4.22563e-05
-8.23463e-06
-4.15389e-05
-1.02834e-05
-4.07599e-05
-1.23139e-05
-3.99375e-05
-1.43217e-05
-3.9078e-05
-1.63023e-05
-3.81822e-05
-1.82508e-05
-3.72474e-05
-2.0162e-05
-3.62688e-05
-2.20295e-05
-3.52403e-05
-2.38461e-05
-3.41551e-05
-2.56033e-05
-3.30065e-05
-2.72917e-05
-3.1788e-05
-2.89005e-05
-3.04944e-05
-3.04181e-05
-2.91221e-05
-3.18323e-05
-2.76692e-05
-3.31304e-05
-2.61363e-05
-3.43001e-05
-2.45263e-05
-3.53296e-05
-2.28447e-05
-3.62083e-05
-2.10996e-05
-3.69276e-05
-1.93011e-05
-3.74807e-05
-1.74615e-05
-3.78637e-05
-1.55944e-05
-3.80755e-05
-1.37144e-05
-3.81176e-05
-1.18367e-05
-3.79947e-05
-9.97614e-06
-3.7714e-05
-8.14694e-06
-3.72852e-05
-6.36226e-06
-3.67199e-05
-4.63374e-06
-3.60311e-05
-2.9713e-06
-3.5233e-05
-1.38296e-06
-3.43404e-05
1.25166e-07
-3.33678e-05
1.54891e-06
-3.23295e-05
2.88599e-06
-3.12393e-05
4.13572e-06
-3.011e-05
5.29881e-06
-2.89531e-05
6.37712e-06
-2.77792e-05
7.37346e-06
-2.65976e-05
8.29134e-06
-2.54164e-05
9.13478e-06
-2.42426e-05
9.9081e-06
-2.3082e-05
1.06158e-05
-2.19396e-05
1.12621e-05
1.18514e-05
-1.90512e-06
-4.05438e-05
-3.8562e-06
-4.08877e-05
-5.81053e-06
-4.03019e-05
-7.75922e-06
-3.95902e-05
-9.69594e-06
-3.88231e-05
-1.16151e-05
-3.80183e-05
-1.35116e-05
-3.71816e-05
-1.53805e-05
-3.63134e-05
-1.72164e-05
-3.54115e-05
-1.90139e-05
-3.44713e-05
-2.07667e-05
-3.34875e-05
-2.2468e-05
-3.24539e-05
-2.41099e-05
-3.13646e-05
-2.56838e-05
-3.02141e-05
-2.71802e-05
-2.89981e-05
-2.85889e-05
-2.77134e-05
-2.98994e-05
-2.63587e-05
-3.1101e-05
-2.49346e-05
-3.21834e-05
-2.34439e-05
-3.31368e-05
-2.18913e-05
-3.39526e-05
-2.02838e-05
-3.46236e-05
-1.86301e-05
-3.51445e-05
-1.69405e-05
-3.55124e-05
-1.52265e-05
-3.57264e-05
-1.35004e-05
-3.57882e-05
-1.17749e-05
-3.57018e-05
-1.00626e-05
-3.54734e-05
-8.37532e-06
-3.51113e-05
-6.72436e-06
-3.46254e-05
-5.11968e-06
-3.40268e-05
-3.56991e-06
-3.33275e-05
-2.08218e-06
-3.25403e-05
-6.62077e-07
-3.16777e-05
6.86321e-07
-3.07522e-05
1.96047e-06
-2.97757e-05
3.15922e-06
-2.87595e-05
4.28258e-06
-2.77139e-05
5.33158e-06
-2.66486e-05
6.30807e-06
-2.55718e-05
7.21457e-06
-2.44912e-05
8.0541e-06
-2.34131e-05
8.83004e-06
-2.23433e-05
9.54592e-06
-2.12864e-05
1.02053e-05
1.08116e-05
-1.77974e-06
-3.8764e-05
-3.6118e-06
-3.90556e-05
-5.451e-06
-3.84628e-05
-7.28652e-06
-3.77546e-05
-9.11102e-06
-3.69987e-05
-1.09182e-05
-3.62112e-05
-1.27026e-05
-3.53973e-05
-1.44588e-05
-3.45572e-05
-1.61815e-05
-3.36887e-05
-1.78654e-05
-3.27875e-05
-1.95044e-05
-3.18485e-05
-2.1092e-05
-3.08663e-05
-2.26211e-05
-2.98355e-05
-2.4084e-05
-2.87513e-05
-2.54723e-05
-2.76098e-05
-2.67772e-05
-2.64085e-05
-2.79898e-05
-2.51462e-05
-2.91009e-05
-2.38235e-05
-3.01021e-05
-2.24428e-05
-3.09851e-05
-2.10083e-05
-3.1743e-05
-1.95259e-05
-3.23699e-05
-1.80031e-05
-3.28618e-05
-1.64486e-05
-3.32162e-05
-1.48721e-05
-3.34326e-05
-1.3284e-05
-3.35126e-05
-1.16949e-05
-3.34598e-05
-1.01154e-05
-3.32794e-05
-8.55572e-06
-3.29784e-05
-7.02533e-06
-3.25652e-05
-5.53286e-06
-3.20493e-05
-4.08583e-06
-3.14409e-05
-2.69058e-06
-3.07508e-05
-1.35223e-06
-2.99898e-05
-7.46798e-08
-2.91687e-05
1.13936e-06
-2.82979e-05
2.2884e-06
-2.73873e-05
3.37195e-06
-2.64461e-05
4.39037e-06
-2.54828e-05
5.34477e-06
-2.45051e-05
6.23687e-06
-2.35199e-05
7.06888e-06
-2.25332e-05
7.84336e-06
-2.15504e-05
8.56307e-06
-2.0576e-05
9.23089e-06
9.84955e-06
-1.65867e-06
-3.71053e-05
-3.3748e-06
-3.73395e-05
-5.10116e-06
-3.67365e-05
-6.82519e-06
-3.60306e-05
-8.5386e-06
-3.52853e-05
-1.02346e-05
-3.45151e-05
-1.19076e-05
-3.37244e-05
-1.3552e-05
-3.29128e-05
-1.51628e-05
-3.2078e-05
-1.67345e-05
-3.12157e-05
-1.82618e-05
-3.03213e-05
-1.97385e-05
-2.93896e-05
-2.11583e-05
-2.84157e-05
-2.25143e-05
-2.73953e-05
-2.37993e-05
-2.63249e-05
-2.50057e-05
-2.52021e-05
-2.61258e-05
-2.4026e-05
-2.71522e-05
-2.27971e-05
-2.80775e-05
-2.15175e-05
-2.88952e-05
-2.01906e-05
-2.95994e-05
-1.88217e-05
-3.01856e-05
-1.74169e-05
-3.06505e-05
-1.59838e-05
-3.09921e-05
-1.45305e-05
-3.12102e-05
-1.30658e-05
-3.13063e-05
-1.15988e-05
-3.12834e-05
-1.01383e-05
-3.1146e-05
-8.69312e-06
-3.09e-05
-7.27133e-06
-3.05525e-05
-5.88041e-06
-3.01114e-05
-4.52694e-06
-2.95854e-05
-3.21658e-06
-2.89836e-05
-1.95402e-06
-2.83153e-05
-7.42926e-07
-2.75899e-05
4.13951e-07
-2.68164e-05
1.51485e-06
-2.60033e-05
2.55891e-06
-2.5159e-05
3.54601e-06
-2.42909e-05
4.47668e-06
-2.34061e-05
5.35201e-06
-2.25107e-05
6.17354e-06
-2.16105e-05
6.94316e-06
-2.07105e-05
7.663e-06
-1.98149e-05
8.33533e-06
8.9623e-06
-1.54591e-06
-3.55594e-05
-3.15086e-06
-3.57346e-05
-4.76756e-06
-3.51198e-05
-6.38249e-06
-3.44157e-05
-7.98679e-06
-3.3681e-05
-9.57353e-06
-3.29284e-05
-1.11369e-05
-3.2161e-05
-1.26715e-05
-3.13782e-05
-1.41725e-05
-3.0577e-05
-1.56348e-05
-2.97534e-05
-1.70533e-05
-2.89028e-05
-1.84227e-05
-2.80202e-05
-1.97371e-05
-2.71012e-05
-2.09907e-05
-2.61416e-05
-2.21772e-05
-2.51384e-05
-2.32902e-05
-2.40891e-05
-2.43232e-05
-2.29931e-05
-2.52698e-05
-2.18505e-05
-2.61241e-05
-2.06631e-05
-2.68807e-05
-1.9434e-05
-2.75349e-05
-1.81675e-05
-2.80829e-05
-1.6869e-05
-2.8522e-05
-1.55446e-05
-2.88509e-05
-1.42016e-05
-2.90695e-05
-1.28472e-05
-2.9179e-05
-1.14893e-05
-2.9182e-05
-1.01353e-05
-2.90824e-05
-8.79278e-06
-2.88849e-05
-7.46874e-06
-2.85957e-05
-6.16964e-06
-2.82214e-05
-4.90129e-06
-2.77692e-05
-3.66874e-06
-2.7247e-05
-2.47626e-06
-2.66626e-05
-1.32731e-06
-2.60241e-05
-2.24593e-07
-2.53392e-05
8.29979e-07
-2.46156e-05
1.83527e-06
-2.38604e-05
2.79081e-06
-2.30804e-05
3.69668e-06
-2.22818e-05
4.55347e-06
-2.14705e-05
5.36221e-06
-2.06516e-05
6.12424e-06
-1.98297e-05
6.84114e-06
-1.90091e-05
7.51467e-06
8.1465e-06
-1.44351e-06
-3.4116e-05
-2.94333e-06
-3.42347e-05
-4.4544e-06
-3.36087e-05
-5.96333e-06
-3.29068e-05
-7.46125e-06
-3.21831e-05
-8.94128e-06
-3.14484e-05
-1.03977e-05
-3.07047e-05
-1.18253e-05
-2.99506e-05
-1.32194e-05
-2.91829e-05
-1.45754e-05