/*--------------------------------*- C++ -*----------------------------------*\
| =========                 |                                                 |
| \\      /  F ield         | OpenFOAM: The Open Source CFD Toolbox           |
|  \\    /   O peration     | Version:  5.0                                   |
|   \\  /    A nd           | Web:      www.OpenFOAM.org                      |
|    \\/     M anipulation  |                                                 |
\*---------------------------------------------------------------------------*/
FoamFile
{
    version     2.0;
    format      ascii;
    class       volVectorField;
    location    "0.2";
    object      U;
}
// * * * * * * * * * * * * * * * * * * * * * * * * * * * * * * * * * * * * * //

dimensions      [0 1 -1 0 0 0 0];

internalField   nonuniform List<vector> 
1915
(
(-0.127705 -0.750882 0)
(-0.169666 -0.70108 0)
(-0.21747 -0.633493 0)
(-0.26812 -0.545737 0)
(-0.317267 -0.439492 0)
(-0.360729 -0.319008 0)
(-0.395259 -0.191039 0)
(-0.419499 -0.0630202 0)
(-0.433652 0.0588405 0)
(-0.438655 0.170068 0)
(-0.43571 0.267884 0)
(-0.426054 0.35101 0)
(-0.410892 0.419375 0)
(-0.391366 0.473787 0)
(-0.368523 0.515616 0)
(-0.343297 0.546502 0)
(-0.316483 0.568116 0)
(-0.288731 0.582011 0)
(-0.260558 0.58953 0)
(-0.232371 0.591797 0)
(-0.204493 0.589727 0)
(-0.177195 0.584068 0)
(-0.150703 0.575435 0)
(-0.125227 0.564344 0)
(-0.100936 0.551221 0)
(0.0143581 -0.898986 0)
(0.0231219 -0.909486 0)
(0.0275634 -0.865093 0)
(0.0384725 -0.838705 0)
(0.0469218 -0.824788 0)
(0.0515278 -0.819462 0)
(0.0519625 -0.819667 0)
(0.0486392 -0.822979 0)
(0.0422897 -0.827608 0)
(0.0336436 -0.832355 0)
(0.0232834 -0.836428 0)
(0.0115799 -0.839289 0)
(-0.00131672 -0.840512 0)
(-0.015473 -0.839714 0)
(-0.0311607 -0.836439 0)
(-0.0488312 -0.830063 0)
(-0.0690827 -0.819715 0)
(-0.092592 -0.80423 0)
(-0.120075 -0.782069 0)
(-0.152206 -0.751275 0)
(-0.189268 -0.709548 0)
(-0.231092 -0.65432 0)
(-0.276396 -0.583443 0)
(-0.322434 -0.49608 0)
(-0.365851 -0.394006 0)
(-0.40342 -0.281086 0)
(-0.432738 -0.162787 0)
(-0.45267 -0.0450103 0)
(-0.463226 0.0670665 0)
(-0.465132 0.169521 0)
(-0.459467 0.25981 0)
(-0.447445 0.336706 0)
(-0.430294 0.400096 0)
(-0.40918 0.450701 0)
(-0.385154 0.489765 0)
(-0.359119 0.518774 0)
(-0.331819 0.539241 0)
(-0.303847 0.552566 0)
(-0.275667 0.559971 0)
(-0.247637 0.562481 0)
(-0.220045 0.560945 0)
(-0.193124 0.556061 0)
(-0.167069 0.548411 0)
(-0.142057 0.538484 0)
(-0.118247 0.5267 0)
(0.00465263 -0.914591 0)
(0.00722215 -0.908671 0)
(0.00741794 -0.872202 0)
(0.0135285 -0.846712 0)
(0.0183758 -0.830452 0)
(0.0207421 -0.82151 0)
(0.019953 -0.817882 0)
(0.0159721 -0.817701 0)
(0.00910166 -0.81942 0)
(-0.000243007 -0.821826 0)
(-0.0116712 -0.823991 0)
(-0.0248988 -0.825195 0)
(-0.0397906 -0.824828 0)
(-0.0563745 -0.822305 0)
(-0.0748373 -0.816982 0)
(-0.095503 -0.808084 0)
(-0.118795 -0.794641 0)
(-0.145185 -0.775445 0)
(-0.175097 -0.749041 0)
(-0.208782 -0.713727 0)
(-0.246198 -0.667647 0)
(-0.286678 -0.609154 0)
(-0.328755 -0.537017 0)
(-0.370165 -0.451365 0)
(-0.408194 -0.354038 0)
(-0.440345 -0.24847 0)
(-0.464781 -0.139166 0)
(-0.480592 -0.0309263 0)
(-0.487739 0.0719415 0)
(-0.486825 0.166068 0)
(-0.478827 0.249204 0)
(-0.464905 0.320231 0)
(-0.44626 0.379018 0)
(-0.424033 0.426188 0)
(-0.399239 0.462834 0)
(-0.372736 0.490274 0)
(-0.345216 0.509853 0)
(-0.317222 0.522821 0)
(-0.289175 0.530281 0)
(-0.261399 0.533168 0)
(-0.23415 0.532267 0)
(-0.207636 0.528233 0)
(-0.182029 0.521615 0)
(-0.157479 0.512876 0)
(-0.13412 0.502411 0)
(-0.00322291 -0.916012 0)
(-0.00586233 -0.90496 0)
(-0.0089953 -0.874303 0)
(-0.0082003 -0.849898 0)
(-0.00763876 -0.832426 0)
(-0.00849309 -0.821042 0)
(-0.0115578 -0.814446 0)
(-0.0171559 -0.811254 0)
(-0.0252931 -0.810174 0)
(-0.0358139 -0.810086 0)
(-0.0485162 -0.810038 0)
(-0.0632296 -0.809212 0)
(-0.0798659 -0.80687 0)
(-0.0984401 -0.802282 0)
(-0.119072 -0.794675 0)
(-0.141976 -0.783169 0)
(-0.167416 -0.766745 0)
(-0.195647 -0.744229 0)
(-0.226834 -0.714291 0)
(-0.260944 -0.675531 0)
(-0.297589 -0.626599 0)
(-0.335914 -0.566399 0)
(-0.374485 -0.494515 0)
(-0.411341 -0.411521 0)
(-0.444325 -0.319295 0)
(-0.47149 -0.220857 0)
(-0.491416 -0.119975 0)
(-0.503397 -0.020603 0)
(-0.507413 0.0736787 0)
(-0.504003 0.160015 0)
(-0.494057 0.236463 0)
(-0.478663 0.302033 0)
(-0.458958 0.356591 0)
(-0.436023 0.40066 0)
(-0.410816 0.435179 0)
(-0.384137 0.461292 0)
(-0.356627 0.480177 0)
(-0.328788 0.492944 0)
(-0.301004 0.500581 0)
(-0.273573 0.503941 0)
(-0.246729 0.503748 0)
(-0.220661 0.500615 0)
(-0.195523 0.49506 0)
(-0.171445 0.48752 0)
(-0.14854 0.478368 0)
(-0.00788305 -0.906629 0)
(-0.0155086 -0.898453 0)
(-0.022503 -0.871096 0)
(-0.0268285 -0.847946 0)
(-0.0306771 -0.830128 0)
(-0.0351432 -0.817255 0)
(-0.0410447 -0.808501 0)
(-0.0488519 -0.802858 0)
(-0.0587689 -0.799284 0)
(-0.0708345 -0.79679 0)
(-0.0850022 -0.794461 0)
(-0.101206 -0.791449 0)
(-0.119409 -0.786945 0)
(-0.139627 -0.780134 0)
(-0.161932 -0.770165 0)
(-0.186438 -0.756113 0)
(-0.213264 -0.736961 0)
(-0.242481 -0.711608 0)
(-0.274039 -0.678907 0)
(-0.307676 -0.637738 0)
(-0.342826 -0.587152 0)
(-0.378541 -0.526572 0)
(-0.41347 -0.456019 0)
(-0.445959 -0.376366 0)
(-0.474277 -0.28944 0)
(-0.496897 -0.197897 0)
(-0.512731 -0.104911 0)
(-0.521251 -0.0137612 0)
(-0.522488 0.0725766 0)
(-0.51694 0.151706 0)
(-0.505427 0.221973 0)
(-0.488949 0.28252 0)
(-0.46856 0.333214 0)
(-0.445261 0.374479 0)
(-0.419936 0.407109 0)
(-0.393327 0.43208 0)
(-0.366025 0.450416 0)
(-0.338494 0.463092 0)
(-0.311091 0.470992 0)
(-0.284095 0.47489 0)
(-0.257722 0.475453 0)
(-0.232146 0.473253 0)
(-0.207508 0.468775 0)
(-0.183922 0.462433 0)
(-0.161484 0.454579 0)
(-0.0102368 -0.892382 0)
(-0.0225291 -0.886549 0)
(-0.0336876 -0.862501 0)
(-0.0425241 -0.840978 0)
(-0.0505483 -0.823439 0)
(-0.0586411 -0.809807 0)
(-0.0675743 -0.799574 0)
(-0.0778743 -0.79202 0)
(-0.0898585 -0.786323 0)
(-0.103692 -0.781636 0)
(-0.119438 -0.777113 0)
(-0.137116 -0.771922 0)
(-0.156731 -0.765233 0)
(-0.1783 -0.756201 0)
(-0.201856 -0.743947 0)
(-0.227427 -0.727544 0)
(-0.255013 -0.706021 0)
(-0.284533 -0.678385 0)
(-0.315773 -0.643671 0)
(-0.34832 -0.601028 0)
(-0.381505 -0.54984 0)
(-0.414372 -0.489878 0)
(-0.445697 -0.421473 0)
(-0.474087 -0.345636 0)
(-0.498148 -0.264098 0)
(-0.51669 -0.179188 0)
(-0.528887 -0.0935923 0)
(-0.534369 -0.010042 0)
(-0.533218 0.068991 0)
(-0.525908 0.141505 0)
(-0.513191 0.206108 0)
(-0.495977 0.262061 0)
(-0.475225 0.309229 0)
(-0.451846 0.347952 0)
(-0.42665 0.378887 0)
(-0.400315 0.40286 0)
(-0.373389 0.420749 0)
(-0.346303 0.43341 0)
(-0.319392 0.441628 0)
(-0.292917 0.446105 0)
(-0.267083 0.447453 0)
(-0.242051 0.446201 0)
(-0.217953 0.442804 0)
(-0.19489 0.43765 0)
(-0.172944 0.43107 0)
(-0.0119084 -0.873486 0)
(-0.0279045 -0.870316 0)
(-0.042713 -0.849164 0)
(-0.0554435 -0.829407 0)
(-0.0672209 -0.812536 0)
(-0.0787179 -0.798656 0)
(-0.0906221 -0.787476 0)
(-0.10346 -0.778486 0)
(-0.117598 -0.771047 0)
(-0.133272 -0.764443 0)
(-0.150614 -0.757914 0)
(-0.169698 -0.750673 0)
(-0.190561 -0.741909 0)
(-0.213216 -0.730788 0)
(-0.237658 -0.716445 0)
(-0.263849 -0.697989 0)
(-0.291689 -0.674526 0)
(-0.320985 -0.645184 0)
(-0.351408 -0.609177 0)
(-0.382454 -0.565884 0)
(-0.413415 -0.514948 0)
(-0.443374 -0.456393 0)
(-0.471246 -0.390728 0)
(-0.495863 -0.319014 0)
(-0.516108 -0.242855 0)
(-0.531057 -0.164287 0)
(-0.540096 -0.0855885 0)
(-0.542985 -0.0090389 0)
(-0.539854 0.0633069 0)
(-0.531155 0.129782 0)
(-0.517572 0.189217 0)
(-0.499929 0.240979 0)
(-0.479086 0.284933 0)
(-0.455866 0.32134 0)
(-0.431002 0.350739 0)
(-0.405115 0.373821 0)
(-0.378711 0.391337 0)
(-0.352192 0.404032 0)
(-0.325875 0.412603 0)
(-0.300007 0.41768 0)
(-0.274782 0.419824 0)
(-0.250352 0.419521 0)
(-0.22684 0.417197 0)
(-0.20434 0.413214 0)
(-0.182917 0.407879 0)
(-0.0131153 -0.851072 0)
(-0.0319806 -0.850334 0)
(-0.0498154 -0.83178 0)
(-0.0657975 -0.813777 0)
(-0.0808047 -0.797781 0)
(-0.0953335 -0.783993 0)
(-0.109973 -0.772263 0)
(-0.125215 -0.762234 0)
(-0.141431 -0.75341 0)
(-0.158883 -0.745191 0)
(-0.177738 -0.736904 0)
(-0.198099 -0.727825 0)
(-0.220018 -0.717192 0)
(-0.243501 -0.704208 0)
(-0.268507 -0.688057 0)
(-0.294943 -0.667912 0)
(-0.322637 -0.64297 0)
(-0.351316 -0.612489 0)
(-0.38058 -0.575847 0)
(-0.409881 -0.532611 0)
(-0.438515 -0.482619 0)
(-0.465632 -0.426064 0)
(-0.490284 -0.363551 0)
(-0.511499 -0.296131 0)
(-0.528386 -0.225263 0)
(-0.540233 -0.152723 0)
(-0.546597 -0.0804407 0)
(-0.54734 -0.0103243 0)
(-0.542629 0.0559159 0)
(-0.532894 0.116893 0)
(-0.518755 0.171624 0)
(-0.500951 0.219564 0)
(-0.48025 0.26058 0)
(-0.457389 0.294867 0)
(-0.433031 0.32286 0)
(-0.407743 0.345134 0)
(-0.381991 0.362329 0)
(-0.356153 0.375087 0)
(-0.330528 0.384026 0)
(-0.305351 0.38971 0)
(-0.280807 0.392646 0)
(-0.25704 0.393284 0)
(-0.234167 0.392015 0)
(-0.212272 0.389175 0)
(-0.191413 0.385051 0)
(-0.0139741 -0.826009 0)
(-0.0350039 -0.827284 0)
(-0.0552238 -0.811047 0)
(-0.0738181 -0.794698 0)
(-0.0914951 -0.779656 0)
(-0.108602 -0.766168 0)
(-0.12563 -0.754173 0)
(-0.143017 -0.743424 0)
(-0.161111 -0.73353 0)
(-0.180168 -0.723991 0)
(-0.200365 -0.714219 0)
(-0.221815 -0.703563 0)
(-0.244569 -0.691323 0)
(-0.26862 -0.676764 0)
(-0.293897 -0.659137 0)
(-0.320264 -0.637696 0)
(-0.347497 -0.61174 0)
(-0.375275 -0.580652 0)
(-0.403162 -0.543953 0)
(-0.4306 -0.501362 0)
(-0.456916 -0.452859 0)
(-0.481342 -0.398738 0)
(-0.50306 -0.339645 0)
(-0.521267 -0.276581 0)
(-0.535254 -0.210858 0)
(-0.544482 -0.144012 0)
(-0.548637 -0.0776845 0)
(-0.547664 -0.0134715 0)
(-0.541753 0.0472 0)
(-0.531309 0.103173 0)
(-0.516894 0.153621 0)
(-0.499165 0.198073 0)
(-0.478807 0.236395 0)
(-0.456479 0.268731 0)
(-0.432779 0.295426 0)
(-0.408222 0.316957 0)
(-0.383243 0.333863 0)
(-0.358192 0.3467 0)
(-0.333353 0.356009 0)
(-0.308951 0.362292 0)
(-0.285161 0.366008 0)
(-0.262122 0.367565 0)
(-0.239943 0.367323 0)
(-0.218702 0.365592 0)
(-0.19845 0.362638 0)
(-0.0145534 -0.798917 0)
(-0.0371353 -0.801833 0)
(-0.0591334 -0.787624 0)
(-0.0797358 -0.772788 0)
(-0.0995268 -0.758697 0)
(-0.118726 -0.745622 0)
(-0.137736 -0.733559 0)
(-0.15693 -0.722334 0)
(-0.176615 -0.711639 0)
(-0.197025 -0.701053 0)
(-0.218327 -0.690072 0)
(-0.240629 -0.678118 0)
(-0.263971 -0.664563 0)
(-0.288329 -0.648745 0)
(-0.313609 -0.629994 0)
(-0.33964 -0.607656 0)
(-0.36617 -0.581131 0)
(-0.392851 -0.549917 0)
(-0.419236 -0.513656 0)
(-0.444783 -0.472186 0)
(-0.468868 -0.425581 0)
(-0.490807 -0.374196 0)
(-0.509902 -0.318675 0)
(-0.525496 -0.259945 0)
(-0.537027 -0.199172 0)
(-0.544091 -0.137684 0)
(-0.546477 -0.0768707 0)
(-0.544186 -0.018072 0)
(-0.537424 0.0375191 0)
(-0.526568 0.0889348 0)
(-0.512125 0.135477 0)
(-0.494681 0.176737 0)
(-0.474844 0.212582 0)
(-0.453203 0.243112 0)
(-0.430295 0.2686 0)
(-0.406593 0.289437 0)
(-0.382496 0.306077 0)
(-0.358333 0.318995 0)
(-0.334373 0.328664 0)
(-0.310827 0.335528 0)
(-0.287866 0.339999 0)
(-0.26562 0.342445 0)
(-0.244191 0.343193 0)
(-0.223655 0.342529 0)
(-0.204056 0.340696 0)
(-0.0148811 -0.770366 0)
(-0.0384775 -0.774583 0)
(-0.0617081 -0.762116 0)
(-0.0837726 -0.748627 0)
(-0.105151 -0.735435 0)
(-0.125961 -0.722824 0)
(-0.146521 -0.710824 0)
(-0.167142 -0.699312 0)
(-0.18808 -0.688039 0)
(-0.20954 -0.676656 0)
(-0.231668 -0.664731 0)
(-0.254555 -0.65176 0)
(-0.278224 -0.637189 0)
(-0.302634 -0.620436 0)
(-0.327671 -0.600913 0)
(-0.353144 -0.578057 0)
(-0.378784 -0.551368 0)
(-0.404235 -0.520446 0)
(-0.429061 -0.485033 0)
(-0.45275 -0.445052 0)
(-0.474735 -0.400643 0)
(-0.494418 -0.352183 0)
(-0.511208 -0.30029 0)
(-0.524567 -0.245808 0)
(-0.534056 -0.189762 0)
(-0.539375 -0.133293 0)
(-0.540389 -0.077579 0)
(-0.537141 -0.0237463 0)
(-0.529841 0.0272056 0)
(-0.518839 0.0744639 0)
(-0.504591 0.117436 0)
(-0.487617 0.155767 0)
(-0.468459 0.189327 0)
(-0.447642 0.218178 0)
(-0.425651 0.242536 0)
(-0.402916 0.262717 0)
(-0.379805 0.279101 0)
(-0.356625 0.292094 0)
(-0.33363 0.302103 0)
(-0.311022 0.309521 0)
(-0.28896 0.314712 0)
(-0.267571 0.318006 0)
(-0.24695 0.3197 0)
(-0.227168 0.320053 0)
(-0.208269 0.319287 0)
(-0.01499 -0.740891 0)
(-0.0391262 -0.746084 0)
(-0.0631095 -0.735081 0)
(-0.0861497 -0.722763 0)
(-0.108632 -0.710393 0)
(-0.130591 -0.698256 0)
(-0.152273 -0.686402 0)
(-0.173925 -0.674744 0)
(-0.195759 -0.663083 0)
(-0.217944 -0.651127 0)
(-0.240599 -0.638507 0)
(-0.26379 -0.624789 0)
(-0.287525 -0.609494 0)
(-0.311743 -0.592116 0)
(-0.336316 -0.572151 0)
(-0.361043 -0.549125 0)
(-0.385649 -0.522627 0)
(-0.409788 -0.492345 0)
(-0.433043 -0.458101 0)
(-0.454946 -0.419883 0)
(-0.474987 -0.377867 0)
(-0.49265 -0.33243 0)
(-0.507438 -0.284149 0)
(-0.518915 -0.233779 0)
(-0.526737 -0.182214 0)
(-0.530684 -0.130431 0)
(-0.530679 -0.079427 0)
(-0.526791 -0.0301501 0)
(-0.519228 0.0165605 0)
(-0.508313 0.0600194 0)
(-0.494455 0.0997228 0)
(-0.478116 0.135359 0)
(-0.459776 0.166802 0)
(-0.439906 0.194087 0)
(-0.418943 0.217378 0)
(-0.397277 0.236933 0)
(-0.375247 0.253064 0)
(-0.35314 0.266115 0)
(-0.331192 0.276437 0)
(-0.309595 0.284371 0)
(-0.288501 0.290238 0)
(-0.268029 0.294332 0)
(-0.24827 0.296919 0)
(-0.229292 0.298232 0)
(-0.211136 0.298472 0)
(-0.0149069 -0.710967 0)
(-0.039179 -0.716829 0)
(-0.0635023 -0.707037 0)
(-0.0870864 -0.695717 0)
(-0.110235 -0.684077 0)
(-0.132914 -0.672397 0)
(-0.155308 -0.660741 0)
(-0.177609 -0.649047 0)
(-0.199985 -0.637154 0)
(-0.222568 -0.62482 0)
(-0.24545 -0.611731 0)
(-0.26867 -0.597516 0)
(-0.292217 -0.581765 0)
(-0.316016 -0.564048 0)
(-0.33993 -0.543938 0)
(-0.363755 -0.521044 0)
(-0.387222 -0.495034 0)
(-0.410002 -0.465671 0)
(-0.431707 -0.43284 0)
(-0.451915 -0.396573 0)
(-0.470176 -0.357063 0)
(-0.486048 -0.314674 0)
(-0.499115 -0.26993 0)
(-0.509024 -0.2235 0)
(-0.515508 -0.176156 0)
(-0.518409 -0.128734 0)
(-0.517689 -0.0820746 0)
(-0.513435 -0.0369772 0)
(-0.505846 0.00585203 0)
(-0.495218 0.0458334 0)
(-0.481917 0.0825366 0)
(-0.466354 0.115688 0)
(-0.448955 0.145165 0)
(-0.43014 0.170983 0)
(-0.410302 0.193263 0)
(-0.389795 0.212211 0)
(-0.368931 0.228085 0)
(-0.347974 0.241172 0)
(-0.327146 0.251771 0)
(-0.306628 0.260176 0)
(-0.286562 0.266667 0)
(-0.267063 0.271505 0)
(-0.248216 0.274923 0)
(-0.230086 0.277132 0)
(-0.212716 0.278313 0)
(-0.0146557 -0.680991 0)
(-0.0387308 -0.687257 0)
(-0.0630423 -0.678445 0)
(-0.086792 -0.667959 0)
(-0.110217 -0.656953 0)
(-0.13323 -0.645701 0)
(-0.155959 -0.634272 0)
(-0.178552 -0.622625 0)
(-0.201137 -0.610632 0)
(-0.223809 -0.598088 0)
(-0.246631 -0.584728 0)
(-0.26962 -0.570238 0)
(-0.292746 -0.554271 0)
(-0.315924 -0.536466 0)
(-0.339013 -0.51647 0)
(-0.361813 -0.493961 0)
(-0.384067 -0.468681 0)
(-0.405467 -0.440451 0)
(-0.425664 -0.409206 0)
(-0.444278 -0.375005 0)
(-0.46092 -0.338046 0)
(-0.475212 -0.298669 0)
(-0.486809 -0.257344 0)
(-0.495426 -0.214654 0)
(-0.500855 -0.171264 0)
(-0.502985 -0.127884 0)
(-0.501807 -0.0852261 0)
(-0.497415 -0.0439613 0)
(-0.489998 -0.0046857 0)
(-0.479825 0.0321094 0)
(-0.467222 0.0660551 0)
(-0.452553 0.0969101 0)
(-0.436197 0.124558 0)
(-0.418526 0.148996 0)
(-0.399894 0.170313 0)
(-0.380622 0.18867 0)
(-0.360994 0.204276 0)
(-0.341253 0.217369 0)
(-0.321607 0.228202 0)
(-0.302223 0.237025 0)
(-0.283237 0.244082 0)
(-0.264758 0.249598 0)
(-0.246866 0.253781 0)
(-0.229623 0.256817 0)
(-0.213074 0.258867 0)
(-0.0142689 -0.651298 0)
(-0.0378733 -0.657742 0)
(-0.061874 -0.649696 0)
(-0.0854647 -0.639895 0)
(-0.108827 -0.629433 0)
(-0.131832 -0.618572 0)
(-0.154563 -0.607389 0)
(-0.177129 -0.595856 0)
(-0.199619 -0.58387 0)
(-0.222098 -0.571259 0)
(-0.244601 -0.5578 0)
(-0.267126 -0.543229 0)
(-0.289627 -0.527256 0)
(-0.312013 -0.509581 0)
(-0.334142 -0.489914 0)
(-0.355822 -0.467999 0)
(-0.376815 -0.443634 0)
(-0.396839 -0.416693 0)
(-0.415581 -0.387143 0)
(-0.432706 -0.355062 0)
(-0.44788 -0.320642 0)
(-0.460782 -0.284194 0)
(-0.471128 -0.246132 0)
(-0.478686 -0.206964 0)
(-0.483298 -0.167256 0)
(-0.484886 -0.127612 0)
(-0.48346 -0.0886301 0)
(-0.479117 -0.0508767 0)
(-0.472033 -0.0148541 0)
(-0.462449 0.0190204 0)
(-0.450655 0.0504295 0)
(-0.436973 0.0791605 0)
(-0.421738 0.105103 0)
(-0.40528 0.12824 0)
(-0.387917 0.148635 0)
(-0.369937 0.166409 0)
(-0.351597 0.181731 0)
(-0.333123 0.194796 0)
(-0.314705 0.205815 0)
(-0.296499 0.214999 0)
(-0.278634 0.222555 0)
(-0.261211 0.228681 0)
(-0.244308 0.233556 0)
(-0.227985 0.237344 0)
(-0.212286 0.240188 0)
(-0.0137857 -0.622175 0)
(-0.0366963 -0.628601 0)
(-0.0601359 -0.621135 0)
(-0.0832948 -0.611884 0)
(-0.106306 -0.60188 0)
(-0.129009 -0.591376 0)
(-0.151455 -0.580449 0)
(-0.173714 -0.569083 0)
(-0.195846 -0.557194 0)
(-0.217885 -0.544637 0)
(-0.239845 -0.531226 0)
(-0.261706 -0.51674 0)
(-0.283411 -0.500936 0)
(-0.304866 -0.483571 0)
(-0.325932 -0.46441 0)
(-0.346429 -0.443251 0)
(-0.366138 -0.419939 0)
(-0.384805 -0.394386 0)
(-0.402153 -0.366587 0)
(-0.417893 -0.336627 0)
(-0.431738 -0.304688 0)
(-0.443418 -0.271049 0)
(-0.452698 -0.236073 0)
(-0.459395 -0.200195 0)
(-0.463384 -0.163898 0)
(-0.464615 -0.127692 0)
(-0.46311 -0.0920796 0)
(-0.458963 -0.057538 0)
(-0.452334 -0.024491 0)
(-0.44344 0.00670699 0)
(-0.432536 0.0357822 0)
(-0.419907 0.0625468 0)
(-0.405846 0.0868968 0)
(-0.390648 0.108805 0)
(-0.374594 0.128312 0)
(-0.357942 0.145509 0)
(-0.340925 0.160528 0)
(-0.32375 0.173527 0)
(-0.306589 0.184679 0)
(-0.28959 0.19416 0)
(-0.272872 0.202148 0)
(-0.256531 0.208808 0)
(-0.24064 0.214299 0)
(-0.225259 0.218761 0)
(-0.210431 0.222322 0)
(-0.0132392 -0.593852 0)
(-0.035282 -0.600102 0)
(-0.0579585 -0.593058 0)
(-0.0804623 -0.584238 0)
(-0.102883 -0.574619 0)
(-0.125043 -0.564437 0)
(-0.146961 -0.553772 0)
(-0.168679 -0.542615 0)
(-0.190228 -0.530894 0)
(-0.211621 -0.518492 0)
(-0.232851 -0.505249 0)
(-0.253886 -0.490983 0)
(-0.27466 -0.475495 0)
(-0.295079 -0.458586 0)
(-0.315009 -0.440067 0)
(-0.334285 -0.419781 0)
(-0.352706 -0.397612 0)
(-0.37005 -0.373504 0)
(-0.386074 -0.347466 0)
(-0.400528 -0.319588 0)
(-0.41317 -0.290038 0)
(-0.423773 -0.259063 0)
(-0.432147 -0.226977 0)
(-0.438144 -0.194152 0)
(-0.441668 -0.160998 0)
(-0.442687 -0.127942 0)
(-0.441231 -0.0954098 0)
(-0.437387 -0.0638002 0)
(-0.431303 -0.0334711 0)
(-0.423167 -0.00472408 0)
(-0.413206 0.0222045 0)
(-0.401667 0.0471486 0)
(-0.38881 0.0700103 0)
(-0.374893 0.0907555 0)
(-0.360164 0.109406 0)
(-0.344855 0.126027 0)
(-0.329175 0.140721 0)
(-0.31331 0.153614 0)
(-0.29742 0.164844 0)
(-0.28164 0.174559 0)
(-0.26608 0.182905 0)
(-0.250833 0.190024 0)
(-0.235968 0.196051 0)
(-0.22154 0.201109 0)
(-0.207596 0.205308 0)
(-0.0126505 -0.566494 0)
(-0.0336974 -0.572456 0)
(-0.0554568 -0.565712 0)
(-0.0771299 -0.557227 0)
(-0.0987719 -0.547926 0)
(-0.120192 -0.538037 0)
(-0.141386 -0.527634 0)
(-0.162372 -0.516714 0)
(-0.183158 -0.50522 0)
(-0.203738 -0.49305 0)
(-0.224092 -0.480073 0)
(-0.244175 -0.466137 0)
(-0.263919 -0.451078 0)
(-0.283229 -0.434735 0)
(-0.30198 -0.416958 0)
(-0.320019 -0.397626 0)
(-0.337171 -0.376653 0)
(-0.353237 -0.354005 0)
(-0.368009 -0.329705 0)
(-0.381274 -0.303839 0)
(-0.392826 -0.276561 0)
(-0.402481 -0.248085 0)
(-0.410081 -0.218685 0)
(-0.415508 -0.188675 0)
(-0.418691 -0.158401 0)
(-0.419609 -0.128223 0)
(-0.418294 -0.0984958 0)
(-0.414829 -0.0695563 0)
(-0.409344 -0.0417055 0)
(-0.402005 -0.0152001 0)
(-0.39301 0.00975582 0)
(-0.382574 0.0330147 0)
(-0.370923 0.0544851 0)
(-0.358283 0.0741278 0)
(-0.344874 0.0919498 0)
(-0.3309 0.107996 0)
(-0.316549 0.122343 0)
(-0.301989 0.135088 0)
(-0.287363 0.146341 0)
(-0.272797 0.156224 0)
(-0.258394 0.164856 0)
(-0.244239 0.172358 0)
(-0.2304 0.178843 0)
(-0.216929 0.184416 0)
(-0.203872 0.189174 0)
(-0.0120326 -0.540215 0)
(-0.0319951 -0.545826 0)
(-0.0527265 -0.53929 0)
(-0.0734384 -0.531062 0)
(-0.0941588 -0.522027 0)
(-0.11469 -0.5124 0)
(-0.135008 -0.502255 0)
(-0.155114 -0.491594 0)
(-0.174999 -0.480367 0)
(-0.194642 -0.468492 0)
(-0.21401 -0.455856 0)
(-0.233053 -0.442333 0)
(-0.2517 -0.427789 0)
(-0.269857 -0.412094 0)
(-0.287411 -0.395128 0)
(-0.304223 -0.376797 0)
(-0.320136 -0.357041 0)
(-0.33498 -0.33584 0)
(-0.348575 -0.313225 0)
(-0.360743 -0.289279 0)
(-0.371311 -0.264138 0)
(-0.380127 -0.23799 0)
(-0.387063 -0.211067 0)
(-0.392026 -0.183637 0)
(-0.394961 -0.15599 0)
(-0.395857 -0.128428 0)
(-0.394747 -0.101249 0)
(-0.391705 -0.0747351 0)
(-0.386847 -0.0491396 0)
(-0.380316 -0.0246812 0)
(-0.372283 -0.00153632 0)
(-0.362936 0.0201637 0)
(-0.35247 0.0403336 0)
(-0.341083 0.0589308 0)
(-0.328965 0.0759511 0)
(-0.316298 0.0914227 0)
(-0.303249 0.1054 0)
(-0.289967 0.117957 0)
(-0.276583 0.12918 0)
(-0.263211 0.139167 0)
(-0.249947 0.148015 0)
(-0.236871 0.155824 0)
(-0.224046 0.162689 0)
(-0.211526 0.1687 0)
(-0.199351 0.173939 0)
(-0.011394 -0.5151 0)
(-0.0302167 -0.520331 0)
(-0.0498467 -0.513933 0)
(-0.069508 -0.505901 0)
(-0.0892065 -0.497086 0)
(-0.108741 -0.487697 0)
(-0.128076 -0.477805 0)
(-0.147197 -0.467416 0)
(-0.166082 -0.45649 0)
(-0.1847 -0.444954 0)
(-0.20301 -0.432716 0)
(-0.220956 -0.419668 0)
(-0.238468 -0.405701 0)
(-0.255457 -0.390707 0)
(-0.271818 -0.374592 0)
(-0.287427 -0.357284 0)
(-0.302147 -0.338738 0)
(-0.315831 -0.318948 0)
(-0.328328 -0.297947 0)
(-0.339486 -0.275813 0)
(-0.349164 -0.252665 0)
(-0.357236 -0.228667 0)
(-0.363599 -0.204017 0)
(-0.368179 -0.178939 0)
(-0.370935 -0.153678 0)
(-0.371863 -0.128487 0)
(-0.370995 -0.103615 0)
(-0.368396 -0.0792975 0)
(-0.364166 -0.0557499 0)
(-0.35843 -0.0331579 0)
(-0.351335 -0.0116739 0)
(-0.343041 0.00858528 0)
(-0.333719 0.02754 0)
(-0.323538 0.045146 0)
(-0.312665 0.0613906 0)
(-0.301258 0.0762883 0)
(-0.289465 0.0898759 0)
(-0.277419 0.102208 0)
(-0.265239 0.113351 0)
(-0.253027 0.123381 0)
(-0.240872 0.132377 0)
(-0.228848 0.140421 0)
(-0.217018 0.147593 0)
(-0.205429 0.153966 0)
(-0.194123 0.159612 0)
(-0.0107373 -0.491224 0)
(-0.0283941 -0.49606 0)
(-0.0468821 -0.489741 0)
(-0.0654405 -0.481854 0)
(-0.0840551 -0.473223 0)
(-0.102526 -0.46405 0)
(-0.120808 -0.454407 0)
(-0.138877 -0.444301 0)
(-0.1567 -0.433698 0)
(-0.174239 -0.422536 0)
(-0.191449 -0.410736 0)
(-0.208271 -0.398207 0)
(-0.224636 -0.384856 0)
(-0.240461 -0.370595 0)
(-0.255651 -0.355349 0)
(-0.270096 -0.33906 0)
(-0.283677 -0.3217 0)
(-0.296269 -0.303266 0)
(-0.307744 -0.283794 0)
(-0.317975 -0.263354 0)
(-0.326847 -0.242052 0)
(-0.334256 -0.220028 0)
(-0.340121 -0.197449 0)
(-0.344382 -0.174507 0)
(-0.347009 -0.151404 0)
(-0.348002 -0.128354 0)
(-0.34739 -0.105564 0)
(-0.345232 -0.0832322 0)
(-0.341613 -0.0615407 0)
(-0.336639 -0.0406477 0)
(-0.330438 -0.0206851 0)
(-0.323146 -0.00175638 0)
(-0.314908 0.016064 0)
(-0.30587 0.0327311 0)
(-0.296178 0.0482262 0)
(-0.285969 0.0625529 0)
(-0.275373 0.0757342 0)
(-0.264507 0.0878084 0)
(-0.253479 0.0988254 0)
(-0.24238 0.108843 0)
(-0.231293 0.117926 0)
(-0.220286 0.126138 0)
(-0.209418 0.133545 0)
(-0.198736 0.14021 0)
(-0.188278 0.146193 0)
(-0.0100611 -0.468651 0)
(-0.0265506 -0.473065 0)
(-0.0438858 -0.466775 0)
(-0.0613214 -0.458993 0)
(-0.0788245 -0.450517 0)
(-0.0961992 -0.441545 0)
(-0.113394 -0.432148 0)
(-0.130375 -0.422332 0)
(-0.147105 -0.412069 0)
(-0.163541 -0.401305 0)
(-0.179634 -0.389969 0)
(-0.195327 -0.377985 0)
(-0.210554 -0.365271 0)
(-0.225238 -0.351755 0)
(-0.239292 -0.337376 0)
(-0.252622 -0.322088 0)
(-0.265125 -0.30587 0)
(-0.276694 -0.288725 0)
(-0.287221 -0.270688 0)
(-0.296603 -0.251821 0)
(-0.304744 -0.232217 0)
(-0.31156 -0.211995 0)
(-0.316986 -0.191298 0)
(-0.320975 -0.170285 0)
(-0.323505 -0.149129 0)
(-0.324578 -0.128006 0)
(-0.324222 -0.107091 0)
(-0.322486 -0.086551 0)
(-0.319445 -0.0665388 0)
(-0.315188 -0.0471901 0)
(-0.309822 -0.0286193 0)
(-0.303465 -0.0109181 0)
(-0.296239 0.00584487 0)
(-0.288271 0.0216241 0)
(-0.279685 0.0363967 0)
(-0.270599 0.0501583 0)
(-0.261128 0.0629207 0)
(-0.251376 0.0747092 0)
(-0.241437 0.0855596 0)
(-0.231395 0.095516 0)
(-0.221325 0.104627 0)
(-0.21129 0.112946 0)
(-0.201346 0.120525 0)
(-0.191538 0.127417 0)
(-0.1819 0.13367 0)
(-0.00936928 -0.447424 0)
(-0.0247091 -0.451369 0)
(-0.0409059 -0.445064 0)
(-0.0572248 -0.437353 0)
(-0.073617 -0.429012 0)
(-0.089891 -0.420232 0)
(-0.10599 -0.411079 0)
(-0.121875 -0.40156 0)
(-0.137506 -0.391649 0)
(-0.152837 -0.381297 0)
(-0.167819 -0.370441 0)
(-0.182398 -0.359012 0)
(-0.19651 -0.346942 0)
(-0.210088 -0.334168 0)
(-0.223053 -0.320638 0)
(-0.235324 -0.306317 0)
(-0.246811 -0.291188 0)
(-0.257425 -0.275257 0)
(-0.267076 -0.258556 0)
(-0.275679 -0.24114 0)
(-0.283155 -0.22309 0)
(-0.289436 -0.204506 0)
(-0.294471 -0.185511 0)
(-0.298222 -0.166238 0)
(-0.300675 -0.146832 0)
(-0.301831 -0.127441 0)
(-0.301717 -0.108211 0)
(-0.300374 -0.0892838 0)
(-0.297866 -0.0707887 0)
(-0.294268 -0.0528419 0)
(-0.289671 -0.0355426 0)
(-0.284173 -0.0189723 0)
(-0.277879 -0.00319381 0)
(-0.270897 0.0117478 0)
(-0.263332 0.0258264 0)
(-0.255289 0.0390317 0)
(-0.246864 0.0513672 0)
(-0.23815 0.0628476 0)
(-0.229232 0.0734977 0)
(-0.220183 0.0833493 0)
(-0.211072 0.09244 0)
(-0.201958 0.100811 0)
(-0.192893 0.108504 0)
(-0.183919 0.115563 0)
(-0.17507 0.122027 0)
(-0.00867979 -0.427557 0)
(-0.0229032 -0.430966 0)
(-0.0379932 -0.424603 0)
(-0.0532197 -0.41694 0)
(-0.0685209 -0.408721 0)
(-0.0837093 -0.400129 0)
(-0.0987244 -0.391222 0)
(-0.113525 -0.382006 0)
(-0.128069 -0.372454 0)
(-0.142312 -0.362521 0)
(-0.156205 -0.35215 0)
(-0.169698 -0.341278 0)
(-0.182733 -0.329846 0)
(-0.195248 -0.317798 0)
(-0.207177 -0.30509 0)
(-0.218446 -0.291692 0)
(-0.228981 -0.277591 0)
(-0.238707 -0.262794 0)
(-0.247548 -0.247329 0)
(-0.255435 -0.231245 0)
(-0.262303 -0.21461 0)
(-0.268099 -0.197511 0)
(-0.272779 -0.180051 0)
(-0.276317 -0.162342 0)
(-0.278701 -0.144506 0)
(-0.279934 -0.126668 0)
(-0.280039 -0.108951 0)
(-0.279052 -0.0914739 0)
(-0.277025 -0.0743475 0)
(-0.274023 -0.0576714 0)
(-0.270121 -0.0415322 0)
(-0.265403 -0.0260021 0)
(-0.259956 -0.0111389 0)
(-0.253871 0.00301433 0)
(-0.24724 0.0164288 0)
(-0.240151 0.0290902 0)
(-0.232689 0.0409955 0)
(-0.224935 0.0521515 0)
(-0.216962 0.0625737 0)
(-0.208839 0.0722845 0)
(-0.200625 0.0813118 0)
(-0.192376 0.0896869 0)
(-0.18414 0.0974437 0)
(-0.175957 0.104616 0)
(-0.167858 0.111237 0)
(-0.00802195 -0.409022 0)
(-0.0211768 -0.411832 0)
(-0.0352024 -0.405373 0)
(-0.0493713 -0.397741 0)
(-0.063612 -0.389639 0)
(-0.0777415 -0.381235 0)
(-0.0916977 -0.372577 0)
(-0.105439 -0.363667 0)
(-0.118922 -0.354478 0)
(-0.132106 -0.344966 0)
(-0.144944 -0.335078 0)
(-0.15739 -0.324757 0)
(-0.169392 -0.313947 0)
(-0.180895 -0.302602 0)
(-0.191841 -0.29068 0)
(-0.202168 -0.278156 0)
(-0.211813 -0.265018 0)
(-0.220713 -0.251274 0)
(-0.228805 -0.236947 0)
(-0.236032 -0.22208 0)
(-0.242342 -0.20673 0)
(-0.247692 -0.190972 0)
(-0.252048 -0.174892 0)
(-0.255388 -0.158586 0)
(-0.257704 -0.142157 0)
(-0.259 -0.125709 0)
(-0.259296 -0.109348 0)
(-0.258622 -0.0931729 0)
(-0.257021 -0.0772799 0)
(-0.254549 -0.0617543 0)
(-0.251268 -0.046672 0)
(-0.247247 -0.0320974 0)
(-0.242559 -0.0180832 0)
(-0.237284 -0.00467026 0)
(-0.231496 0.00811155 0)
(-0.225274 0.0202445 0)
(-0.218689 0.0317209 0)
(-0.211813 0.0425417 0)
(-0.20471 0.0527153 0)
(-0.197441 0.0622563 0)
(-0.190061 0.0711847 0)
(-0.182618 0.0795239 0)
(-0.175159 0.0873001 0)
(-0.16772 0.0945407 0)
(-0.160332 0.101272 0)
(-0.00742207 -0.391749 0)
(-0.0195711 -0.393925 0)
(-0.0325812 -0.387344 0)
(-0.0457333 -0.379734 0)
(-0.0589496 -0.371748 0)
(-0.0720536 -0.363532 0)
(-0.0849838 -0.355125 0)
(-0.0976985 -0.346524 0)
(-0.110157 -0.337699 0)
(-0.122319 -0.328606 0)
(-0.134143 -0.319195 0)
(-0.145587 -0.309412 0)
(-0.156604 -0.299206 0)
(-0.167148 -0.288533 0)
(-0.177167 -0.277357 0)
(-0.18661 -0.265654 0)
(-0.195423 -0.253413 0)
(-0.203554 -0.240641 0)
(-0.210951 -0.227356 0)
(-0.217568 -0.213595 0)
(-0.223362 -0.199408 0)
(-0.228299 -0.184858 0)
(-0.232351 -0.170017 0)
(-0.235503 -0.154968 0)
(-0.237747 -0.139796 0)
(-0.239089 -0.124592 0)
(-0.239544 -0.109443 0)
(-0.239139 -0.094437 0)
(-0.23791 -0.0796541 0)
(-0.235901 -0.0651691 0)
(-0.233166 -0.0510486 0)
(-0.229761 -0.0373501 0)
(-0.225749 -0.0241217 0)
(-0.221194 -0.0114022 0)
(-0.216163 0.000779229 0)
(-0.21072 0.0124021 0)
(-0.204928 0.0234555 0)
(-0.198849 0.0339359 0)
(-0.19254 0.0438463 0)
(-0.186054 0.0531952 0)
(-0.179441 0.0619962 0)
(-0.172745 0.0702664 0)
(-0.166009 0.0780256 0)
(-0.159267 0.0852951 0)
(-0.152548 0.0920954 0)
(-0.00689112 -0.375639 0)
(-0.0181079 -0.377188 0)
(-0.0301573 -0.370481 0)
(-0.0423384 -0.362891 0)
(-0.0545708 -0.355021 0)
(-0.0666882 -0.346996 0)
(-0.0786308 -0.338843 0)
(-0.0903582 -0.330552 0)
(-0.101832 -0.322089 0)
(-0.113015 -0.31341 0)
(-0.123869 -0.304466 0)
(-0.134358 -0.295204 0)
(-0.14444 -0.285578 0)
(-0.154076 -0.275545 0)
(-0.163222 -0.265071 0)
(-0.171835 -0.254134 0)
(-0.17987 -0.242724 0)
(-0.187284 -0.230843 0)
(-0.194035 -0.218509 0)
(-0.200085 -0.205751 0)
(-0.205399 -0.192612 0)
(-0.20995 -0.179146 0)
(-0.213716 -0.165415 0)
(-0.216684 -0.151489 0)
(-0.218849 -0.13744 0)
(-0.220217 -0.123346 0)
(-0.2208 -0.109283 0)
(-0.22062 -0.0953235 0)
(-0.219707 -0.081539 0)
(-0.218098 -0.0679943 0)
(-0.215837 -0.054748 0)
(-0.212971 -0.0418516 0)
(-0.209553 -0.0293491 0)
(-0.205636 -0.0172767 0)
(-0.201276 -0.00566303 0)
(-0.196529 0.00547067 0)
(-0.191449 0.0161107 0)
(-0.186089 0.0262505 0)
(-0.180499 0.0358889 0)
(-0.174727 0.0450299 0)
(-0.168817 0.0536819 0)
(-0.162809 0.061857 0)
(-0.156742 0.0695694 0)
(-0.150648 0.0768355 0)
(-0.144555 0.0836708 0)
(-0.00642442 -0.360583 0)
(-0.0167848 -0.361555 0)
(-0.0279332 -0.354737 0)
(-0.0391941 -0.347175 0)
(-0.0504888 -0.339426 0)
(-0.0616632 -0.331596 0)
(-0.0726608 -0.3237 0)
(-0.0834433 -0.315719 0)
(-0.0939753 -0.307615 0)
(-0.104223 -0.299343 0)
(-0.114153 -0.290853 0)
(-0.123733 -0.282095 0)
(-0.132928 -0.273021 0)
(-0.141706 -0.263592 0)
(-0.15003 -0.253775 0)
(-0.157863 -0.243548 0)
(-0.165169 -0.232901 0)
(-0.171914 -0.221834 0)
(-0.178061 -0.210363 0)
(-0.183581 -0.19851 0)
(-0.188446 -0.186314 0)
(-0.192633 -0.17382 0)
(-0.196125 -0.16108 0)
(-0.198912 -0.148155 0)
(-0.20099 -0.135108 0)
(-0.202363 -0.122005 0)
(-0.203042 -0.10891 0)
(-0.203045 -0.0958889 0)
(-0.202398 -0.0830017 0)
(-0.201129 -0.0703058 0)