/*--------------------------------*- C++ -*----------------------------------*\
| =========                 |                                                 |
| \\      /  F ield         | OpenFOAM: The Open Source CFD Toolbox           |
|  \\    /   O peration     | Version:  5.0                                   |
|   \\  /    A nd           | Web:      www.OpenFOAM.org                      |
|    \\/     M anipulation  |                                                 |
\*---------------------------------------------------------------------------*/
FoamFile
{
    version     2.0;
    format      ascii;
    class       surfaceScalarField;
    location    "1";
    object      alphaPhi10;
}
// * * * * * * * * * * * * * * * * * * * * * * * * * * * * * * * * * * * * * //

dimensions      [0 3 -1 0 0 0 0];

internalField   nonuniform List<scalar> 
3742
(
-1.72789e-21
-8.06443e-22
-4.56027e-21
-2.17942e-21
-1.28499e-20
-6.29838e-21
-3.88644e-20
-1.95567e-20
-1.2412e-19
-6.41525e-20
-4.05832e-19
-2.15483e-19
-1.3161e-18
-7.17836e-19
-4.12911e-18
-2.31302e-18
-1.23081e-17
-7.07952e-18
-3.43901e-17
-2.03061e-17
-8.91785e-17
-5.40394e-17
-2.13259e-16
-1.3257e-16
-4.68916e-16
-2.98849e-16
-9.47855e-16
-6.18693e-16
-1.76436e-15
-1.17757e-15
-3.03309e-15
-2.06456e-15
-4.83194e-15
-3.3413e-15
-7.15761e-15
-4.99996e-15
-9.87609e-15
-6.91479e-15
-1.26313e-14
-8.77046e-15
-1.45246e-14
-9.86221e-15
-1.28765e-14
-8.39607e-15
-1.31407e-15
-8.04009e-16
2.65118e-14
1.61633e-14
1.60017e-14
-7.08804e-32
-3.97972e-31
-6.21593e-31
-1.65496e-30
-4.05532e-30
-6.81103e-30
-1.95595e-29
-2.38425e-29
-7.79232e-29
-7.44492e-29
-2.68889e-28
-2.11439e-28
-8.25827e-28
-5.53433e-28
-2.32421e-27
-1.36417e-27
-6.19562e-27
-3.25874e-27
-1.61416e-26
-7.76347e-27
-4.19773e-26
-1.88026e-26
-1.09717e-25
-4.6542e-26
-2.87113e-25
-1.17117e-25
-7.46772e-25
-2.96974e-25
-1.92049e-24
-7.53619e-25
-4.87533e-24
-1.90753e-24
-1.22329e-23
-4.81398e-24
-3.04333e-23
-1.21311e-23
-7.53946e-23
-3.06115e-23
-1.87121e-22
-7.77109e-23
-4.69702e-22
-2.00128e-22
-1.21049e-21
-5.30213e-22
-3.26726e-21
-1.47304e-21
-9.40259e-21
-4.36596e-21
-2.89443e-20
-1.38435e-20
-9.36253e-20
-4.61126e-20
-3.08505e-19
-1.56394e-19
-1.00366e-18
-5.23342e-19
-3.14404e-18
-1.68494e-18
-9.31059e-18
-5.12353e-18
-2.57314e-17
-1.45239e-17
-6.58314e-17
-3.80638e-17
-1.55275e-16
-9.1818e-17
-3.37298e-16
-2.03547e-16
-6.75498e-16
-4.1484e-16
-1.25016e-15
-7.78414e-16
-2.14464e-15
-1.3473e-15
-3.42114e-15
-2.15472e-15
-5.08727e-15
-3.18643e-15
-7.05303e-15
-4.34895e-15
-9.0596e-15
-5.4304e-15
-1.0477e-14
-6.01078e-15
-9.92306e-15
-5.3459e-15
-4.93068e-15
-2.4366e-15
3.85179e-15
-1.47293e-32
-7.25678e-32
-1.25674e-31
-2.88511e-31
-7.84234e-31
-1.12499e-30
-3.76337e-30
-3.89467e-30
-1.49797e-29
-1.20998e-29
-5.12336e-29
-3.39591e-29
-1.55241e-28
-8.7526e-29
-4.32513e-28
-2.13398e-28
-1.15308e-27
-5.10024e-28
-3.04154e-27
-1.23227e-27
-8.08026e-27
-3.05805e-27
-2.16426e-26
-7.79035e-27
-5.7964e-26
-2.01718e-26
-1.53856e-25
-5.25269e-26
-4.02927e-25
-1.36675e-25
-1.04132e-24
-3.5473e-25
-2.66387e-24
-9.19377e-25
-6.77341e-24
-2.38487e-24
-1.71896e-23
-6.20703e-24
-4.3717e-23
-1.62506e-23
-1.11983e-22
-4.29614e-23
-2.91312e-22
-1.15513e-22
-7.7996e-22
-3.19892e-22
-2.18738e-21
-9.2799e-22
-6.51791e-21
-2.85915e-21
-2.06253e-20
-9.34777e-21
-6.79714e-20
-3.17957e-20
-2.26307e-19
-1.0913e-19
-7.38599e-19
-3.66646e-19
-2.3063e-18
-1.17671e-18
-6.77212e-18
-3.54506e-18
-1.84959e-17
-9.91379e-18
-4.67069e-17
-2.55725e-17
-1.08803e-16
-6.06749e-17
-2.33847e-16
-1.32356e-16
-4.64524e-16
-2.65699e-16
-8.55086e-16
-4.91646e-16
-1.46284e-15
-8.4001e-16
-2.33192e-15
-1.32688e-15
-3.46961e-15
-1.9379e-15
-4.81732e-15
-2.61158e-15
-6.21084e-15
-3.2246e-15
-7.32365e-15
-3.58375e-15
-7.60294e-15
-3.43997e-15
-2.61071e-15
-2.50008e-33
-1.04607e-32
-2.06449e-32
-3.93331e-32
-1.26837e-31
-1.4892e-31
-6.07481e-31
-5.09791e-31
-2.39736e-30
-1.5598e-30
-8.05635e-30
-4.2805e-30
-2.39178e-29
-1.07751e-29
-6.56179e-29
-2.58325e-29
-1.74186e-28
-6.15082e-29
-4.63196e-28
-1.50217e-28
-1.25082e-27
-3.80749e-28
-3.41424e-27
-9.95213e-28
-9.3126e-27
-2.64673e-27
-2.51478e-26
-7.08015e-27
-6.70648e-26
-1.89581e-26
-1.7695e-25
-5.07824e-26
-4.63852e-25
-1.3633e-25
-1.21396e-24
-3.67803e-25
-3.18543e-24
-9.99551e-25
-8.4065e-24
-2.74035e-24
-2.23672e-23
-7.58768e-24
-6.02074e-23
-2.12697e-23
-1.65061e-22
-6.07201e-23
-4.66277e-22
-1.78487e-22
-1.37714e-21
-5.47923e-22
-4.29377e-21
-1.77307e-21
-1.40658e-20
-6.01806e-21
-4.74094e-20
-2.0977e-20
-1.59659e-19
-7.2907e-20
-5.22205e-19
-2.45557e-19
-1.6226e-18
-7.83811e-19
-4.71937e-18
-2.33573e-18
-1.27389e-17
-6.44037e-18
-3.17823e-17
-1.63577e-17
-7.32164e-17
-3.82105e-17
-1.55894e-16
-8.21164e-17
-3.07449e-16
-1.62571e-16
-5.63094e-16
-2.97001e-16
-9.60237e-16
-5.01467e-16
-1.52788e-15
-7.8325e-16
-2.2717e-15
-1.13183e-15
-3.15786e-15
-1.51162e-15
-4.09981e-15
-1.86046e-15
-4.95185e-15
-2.09716e-15
-2.1548e-15
-3.52638e-34
-1.19915e-33
-2.78271e-33
-4.15541e-33
-1.68298e-32
-1.51248e-32
-7.97174e-32
-5.03607e-32
-3.08227e-31
-1.49115e-31
-1.00645e-30
-3.9399e-31
-2.8975e-30
-9.55854e-31
-7.75117e-30
-2.22811e-30
-2.03064e-29
-5.24007e-30
-5.40513e-29
-1.28711e-29
-1.47604e-28
-3.32784e-29
-4.09141e-28
-8.94105e-29
-1.1337e-27
-2.45185e-28
-3.11087e-27
-6.77704e-28
-8.46057e-27
-1.8835e-27
-2.28971e-26
-5.26738e-27
-6.19958e-26
-1.48581e-26
-1.68711e-25
-4.23585e-26
-4.63101e-25
-1.22221e-25
-1.28502e-24
-3.57091e-25
-3.60717e-24
-1.05581e-24
-1.02463e-23
-3.15689e-24
-2.95018e-23
-9.55486e-24
-8.65615e-23
-2.94156e-23
-2.61364e-22
-9.29864e-23
-8.21151e-22
-3.05112e-22
-2.69723e-21
-1.04398e-21
-9.18242e-21
-3.69224e-21
-3.16963e-20
-1.32032e-20
-1.07901e-19
-4.64267e-20
-3.53198e-19
-1.56495e-19
-1.0911e-18
-4.96225e-19
-3.14371e-18
-1.46241e-18
-8.39465e-18
-3.97899e-18
-2.07228e-17
-9.96574e-18
-4.72918e-17
-2.29647e-17
-9.99273e-17
-4.87336e-17
-1.95948e-16
-9.53908e-17
-3.57461e-16
-1.72514e-16
-6.08035e-16
-2.88656e-16
-9.66266e-16
-4.47308e-16
-1.43728e-15
-6.42436e-16
-2.00484e-15
-8.55678e-16
-2.62721e-15
-1.05724e-15
-1.21352e-15
-4.03139e-35
-1.04089e-34
-2.97906e-34
-3.15967e-34
-1.74956e-33
-1.06379e-33
-8.06506e-33
-3.32372e-33
-3.00702e-32
-9.22372e-33
-9.3908e-32
-2.28023e-32
-2.57746e-31
-5.19434e-32
-6.59952e-31
-1.15038e-31
-1.67677e-30
-2.62812e-31
-4.41519e-30
-6.45785e-31
-1.21518e-29
-1.71711e-30
-3.43327e-29
-4.83336e-30
-9.73048e-29
-1.40024e-29
-2.73262e-28
-4.10066e-29
-7.63357e-28
-1.21196e-28
-2.13725e-27
-3.62455e-28
-6.04794e-27
-1.10172e-27
-1.73647e-26
-3.40629e-27
-5.06775e-26
-1.07073e-26
-1.50368e-25
-3.41728e-26
-4.53147e-25
-1.10499e-25
-1.38419e-24
-3.61036e-25
-4.27809e-24
-1.18931e-24
-1.33836e-23
-3.95065e-24
-4.25631e-23
-1.32892e-23
-1.38688e-22
-4.56238e-23
-4.66438e-22
-1.61048e-22
-1.61932e-21
-5.84585e-22
-5.73376e-21
-2.15608e-21
-2.02534e-20
-7.90307e-21
-6.96083e-20
-2.80788e-20
-2.27881e-19
-9.46588e-20
-7.00139e-19
-2.98281e-19
-2.00093e-18
-8.70603e-19
-5.29623e-18
-2.34281e-18
-1.29681e-17
-5.80371e-18
-2.93974e-17
-1.32402e-17
-6.1814e-17
-2.78552e-17
-1.20837e-16
-5.41368e-17
-2.201e-16
-9.73564e-17
-3.74347e-16
-1.62239e-16
-5.95815e-16
-2.509e-16
-8.89613e-16
-3.60667e-16
-1.24955e-15
-4.82824e-16
-6.03344e-16
-3.55038e-36
-6.12905e-36
-2.37231e-35
-1.43712e-35
-1.31653e-34
-3.96363e-35
-5.75783e-34
-1.03335e-34
-2.01994e-33
-2.39976e-34
-5.87727e-33
-4.98238e-34
-1.49033e-32
-9.6722e-34
-3.51747e-32
-1.8917e-33
-8.34357e-32
-4.0672e-33
-2.11631e-31
-1.02254e-32
-5.84661e-31
-3.01541e-32
-1.71946e-30
-9.95416e-32
-5.14278e-30
-3.43481e-31
-1.52337e-29
-1.18642e-30
-4.4844e-29
-4.07342e-30
-1.32813e-28
-1.39924e-29
-4.01475e-28
-4.86441e-29
-1.2444e-27
-1.7174e-28
-3.95524e-27
-6.15658e-28
-1.28512e-26
-2.23457e-27
-4.25333e-26
-8.18674e-27
-1.42821e-25
-3.01726e-26
-4.84543e-25
-1.11472e-25
-1.65593e-24
-4.11833e-25
-5.69983e-24
-1.52218e-24
-1.98317e-23
-5.65169e-24
-7.0159e-23
-2.12128e-23
-2.53314e-22
-8.08178e-23
-9.29667e-22
-3.1137e-22
-3.41901e-21
-1.19624e-21
-1.23394e-20
-4.48867e-21
-4.27892e-20
-1.61079e-20
-1.40196e-19
-5.43637e-20
-4.2919e-19
-1.70628e-19
-1.22001e-18
-4.94877e-19
-3.212e-18
-1.32273e-18
-7.83181e-18
-3.25718e-18
-1.77101e-17
-7.39739e-18
-3.72158e-17
-1.55208e-17
-7.28307e-17
-3.01385e-17
-1.33019e-16
-5.42576e-17
-2.2725e-16
-9.07252e-17
-3.64072e-16
-1.41199e-16
-5.48564e-16
-2.05037e-16
-2.78577e-16
-2.22095e-37
-1.83813e-37
-1.25412e-36
-1.57974e-37
-6.21545e-36
3.35809e-39
-2.44832e-35
2.90553e-38
-7.67519e-35
8.4503e-38
-1.96738e-34
1.67261e-37
-4.31407e-34
2.56673e-37
-8.67291e-34
3.31199e-37
-1.78292e-33
4.2142e-37
-4.05541e-33
5.58366e-37
-1.04456e-32
6.68157e-37
-3.30962e-32
1.54722e-36
-1.20017e-31
5.82884e-36
-4.1998e-31
-4.03147e-34
-1.4172e-30
-2.62268e-32
-4.73324e-30
-1.75286e-31
-1.60986e-29
-9.0748e-31
-5.6349e-29
-4.30178e-30
-2.03226e-28
-1.9667e-29
-7.50505e-28
-8.81825e-29
-2.8204e-27
-3.90199e-28
-1.07252e-26
-1.70716e-27
-4.10471e-26
-7.38127e-27
-1.57339e-25
-3.1494e-26
-6.02249e-25
-1.32539e-25
-2.30232e-24
-5.51236e-25
-8.81828e-24
-2.2761e-24
-3.39739e-23
-9.37745e-24
-1.31708e-22
-3.85962e-23
-5.10108e-22
-1.5766e-22
-1.94466e-21
-6.30062e-22
-7.16534e-21
-2.41972e-21
-2.50941e-20
-8.78443e-21
-8.24938e-20
-2.97761e-20
-2.52576e-19
-9.35123e-20
-7.17482e-19
-2.7105e-19
-1.88909e-18
-7.24378e-19
-4.61384e-18
-1.78616e-18
-1.04706e-17
-4.06996e-18
-2.21228e-17
-8.58578e-18
-4.36093e-17
-1.68006e-17
-8.03811e-17
-3.05581e-17
-1.38885e-16
-5.17857e-17
-2.25601e-16
-8.19921e-17
-1.2167e-16
-8.66887e-39
2.19899e-41
-3.50758e-38
1.59616e-40
-1.31815e-37
3.62947e-40
-4.05087e-37
5.65177e-40
-9.81368e-37
5.4477e-40
-1.88623e-36
2.28755e-40
-2.99652e-36
3.10482e-41
-4.17762e-36
2.91725e-42
-5.98411e-36
2.29563e-43
-9.38616e-36
1.63483e-44
-1.43056e-35
1.07808e-45
-4.79728e-35
2.52782e-47
-3.57812e-34
-3.66954e-45
-2.40117e-33
-5.65596e-44
-1.36538e-32
2.83354e-38
-6.54726e-32
1.38344e-36
-2.9684e-31
7.32528e-36
-1.3246e-30
-1.4355e-32
-5.93727e-30
-2.03844e-31
-2.67684e-29
-1.54779e-30
-1.20982e-28
-9.82161e-30
-5.4607e-28
-5.69539e-29
-2.45217e-27
-3.11553e-28
-1.09104e-26
-1.62928e-27
-4.7929e-26
-8.1977e-27
-2.07582e-25
-3.98695e-26
-8.87422e-25
-1.88418e-25
-3.75606e-24
-8.70321e-25
-1.57743e-23
-3.94589e-24
-6.558e-23
-1.75452e-23
-2.67525e-22
-7.59231e-23
-1.05632e-21
-3.15665e-22
-3.9784e-21
-1.24347e-21
-1.41167e-20
-4.58611e-21
-4.67893e-20
-1.57064e-20
-1.44164e-19
-4.9723e-20
-4.12178e-19
-1.45272e-19
-1.09377e-18
-3.91835e-19
-2.69746e-18
-9.77076e-19
-6.19361e-18
-2.25664e-18
-1.32665e-17
-4.83715e-18
-2.6566e-17
-9.64445e-18
-4.98562e-17
-1.79319e-17
-8.79353e-17
-3.11826e-17
-5.08873e-17
-1.70132e-40
1.86051e-42
-3.91812e-40
1.24942e-42
-9.22848e-40
4.29286e-43
-1.6079e-39
3.12371e-44
-1.74249e-39
1.69338e-45
-8.18527e-40
8.29751e-47
-1.23812e-40
3.93371e-48
-1.29648e-41
1.85897e-49
-1.14213e-42
3.63947e-51
-9.19139e-44
-1.09188e-49
-6.95299e-45
-5.02746e-49
-1.91215e-46
-1.07244e-48
3.36373e-44
-2.12671e-48
6.6047e-43
-8.41784e-49
-4.58441e-37
-5.85653e-49
-3.6752e-35
-4.95461e-49
-5.54533e-34
-5.42786e-49
-7.43652e-33
-2.38295e-48
-6.48255e-32
3.4997e-37
-4.49688e-31
3.83185e-36
-2.8147e-30
-5.81363e-32
-1.66035e-29
-7.69142e-31
-9.3871e-29
-6.70606e-30
-5.11963e-28
-4.9105e-29
-2.69902e-27
-3.22996e-28
-1.37674e-26
-1.96364e-27
-6.8071e-26
-1.12121e-26
-3.27255e-25
-6.08198e-26
-1.53483e-24
-3.16123e-25
-7.02882e-24
-1.58145e-24
-3.13101e-23
-7.60433e-24
-1.34497e-22
-3.49057e-23
-5.50989e-22
-1.51466e-22
-2.12982e-21
-6.15352e-22
-7.70457e-21
-2.32324e-21
-2.59512e-20
-8.11482e-21
-8.1207e-20
-2.61762e-20
-2.36029e-19
-7.79922e-20
-6.3783e-19
-2.14922e-19
-1.60508e-18
-5.48786e-19
-3.76829e-18
-1.30115e-18
-8.27061e-18
-2.87116e-18
-1.70096e-17
-5.91199e-18
-3.28701e-17
-1.13936e-17
-2.06237e-17
-1.54564e-42
1.13878e-44
-1.26853e-42
3.09147e-46
-5.46138e-43
7.89419e-48
-4.8028e-44
2.13451e-49
-3.05239e-45
6.21617e-51
-1.71608e-46
1.95038e-52
-9.20289e-48
6.5682e-54
-4.87874e-49
2.36167e-55
-1.06773e-50
-3.43644e-54
6.4174e-49
-3.02233e-52
2.72296e-48
-3.03822e-51
4.66793e-48
-1.32305e-50
5.13958e-48
-3.39861e-50
4.2303e-48
-6.36816e-50
3.82561e-48
-9.31951e-50
4.454e-48
-1.14631e-49
5.98304e-48
-1.70736e-49
3.84015e-47
-8.95899e-49
-1.03796e-35
-1.81129e-47
-6.6388e-34
-6.3667e-46
-1.89957e-32
-1.07603e-44
-2.1721e-31
1.31352e-36
-1.8798e-30
-2.37458e-32
-1.41459e-29
-5.59746e-31
-9.71002e-29
-6.37385e-30
-6.20239e-28
-5.63135e-29
-3.72754e-27
-4.28549e-28
-2.12434e-26
-2.93402e-27
-1.15551e-25
-1.8509e-26
-6.02515e-25
-1.09127e-25
-3.01362e-24
-6.0538e-25
-1.44053e-23
-3.16089e-24
-6.53582e-23
-1.54711e-23
-2.79302e-22
-7.05805e-23
-1.11682e-21
-2.98601e-22
-4.1602e-21
-1.16768e-21
-1.44065e-20
-4.2156e-21
-4.63648e-20
-1.40566e-20
-1.38791e-19
-4.33519e-20
-3.86986e-19
-1.23902e-19
-1.00675e-18
-3.28876e-19
-2.44836e-18
-8.12612e-19
-5.57835e-18
-1.87401e-18
-1.19382e-17
-4.04579e-18
-8.20523e-18
-4.83688e-45
2.53234e-48
-1.92862e-46
6.80144e-50
-6.54301e-48
1.74524e-51
-2.19954e-49
4.68867e-53
-7.63578e-51
1.33747e-54
-2.7779e-52
4.05797e-56
-1.06491e-53
1.30753e-57
-4.30709e-55
4.43536e-59
1.41848e-53
-1.46642e-55
6.6013e-52
-1.43514e-53
6.78098e-51
-2.0234e-52
2.95242e-50
-1.02443e-51
7.7185e-50
-2.76754e-51
1.5097e-49
-4.98056e-51
2.38754e-49
-7.05547e-51
3.49943e-49
-9.25141e-51
7.59921e-49
-2.69691e-50
1.17191e-47
-4.95309e-49
3.17699e-46
-1.19721e-47
8.28017e-45
-2.74979e-46
2.3403e-43
-3.35284e-45
-8.25082e-35
-1.0183e-43
-8.29188e-33
-1.50768e-42
-1.56623e-31
2.71158e-37
-1.78782e-30
-1.53004e-32
-1.63889e-29
-5.92907e-31
-1.31066e-28
-8.22005e-30
-9.4684e-28
-8.34584e-29
-6.30165e-27
-7.08484e-28
-3.91237e-26
-5.30283e-27
-2.2818e-25
-3.59278e-26
-1.25271e-24
-2.23165e-25
-6.46221e-24
-1.27691e-24
-3.12071e-23
-6.73433e-24
-1.40548e-22
-3.27095e-23
-5.88764e-22
-1.46246e-22
-2.29145e-21
-6.02187e-22
-8.28689e-21
-2.28677e-21
-2.78739e-20
-8.02422e-21
-8.73203e-20
-2.60747e-20
-2.55165e-19
-7.86418e-20
-6.96739e-19
-2.20666e-19
-1.78133e-18
-5.77559e-19
-4.27466e-18
-1.41423e-18
-3.25046e-18
-7.05604e-49
4.03011e-68
-3.00174e-50
6.09136e-67
-1.05288e-51
2.77296e-66
-3.56887e-53
1.96883e-66
-1.22446e-54
4.09832e-67
-4.3323e-56
5.86709e-68
-1.59447e-57
-6.98336e-67
-6.09278e-59
-1.00754e-62
2.29938e-55
-5.6619e-57
2.45159e-53
-7.88688e-55
3.54242e-52
-1.29191e-53
1.76161e-51
-6.98866e-53
4.64872e-51
-1.93425e-52
8.4162e-51
-3.48973e-52
1.27562e-50
-4.92311e-52
2.0306e-50
-7.73887e-52
9.96201e-50
-6.46912e-51
2.61596e-48
-1.62848e-49
7.63842e-47
-4.02376e-48
2.05977e-45
-9.23844e-47
5.36349e-44
-1.9492e-45
1.19672e-42
-3.80755e-44
2.86773e-41
-3.932e-43
-1.27797e-35
-9.8813e-42
-5.72536e-33
-1.37151e-40
-1.67242e-31
5.59753e-38
-2.35249e-30
-1.76973e-32
-2.49803e-29
-8.87064e-31
-2.24034e-28
-1.39546e-29
-1.77718e-27
-1.56114e-28
-1.27739e-26
-1.43286e-27
-8.42585e-26
-1.13972e-26
-5.13022e-25
-8.0609e-26
-2.88901e-24
-5.13543e-25
-1.50533e-23
-2.96805e-24
-7.25983e-23
-1.56359e-23
-3.24339e-22
-7.53754e-23
-1.34405e-21
-3.3368e-22
-5.17386e-21
-1.36078e-21
-1.85263e-20
-5.1259e-21
-6.17987e-20
-1.78806e-20
-1.92373e-19
-5.79114e-20
-5.60021e-19
-1.74648e-19
-1.52825e-18
-4.91935e-19
-1.2978e-18
-8.19938e-69
4.68966e-69
-2.04563e-67
7.46277e-68
-1.29443e-66
4.16818e-67
-1.17004e-66
7.89138e-67
-2.94568e-67
1.65669e-67
-4.93509e-68
2.28406e-68
1.39437e-66
-4.99122e-69
2.17248e-62
-1.12659e-64
6.99996e-57
-7.72815e-59
1.06123e-54
-2.19272e-56
1.77518e-53
-4.81528e-55
9.34195e-53
-2.99575e-54
2.49275e-52
-8.88467e-54
4.47143e-52
-1.66781e-53
6.92596e-52
-2.5384e-53
1.41952e-51
-7.34881e-53
2.01323e-50
-1.58663e-51
6.11296e-49
-4.41724e-50
1.73305e-47
-1.12688e-48
4.64394e-46
-2.66834e-47
1.16664e-44
-5.86879e-46
2.69506e-43
-1.18162e-44
6.0077e-42
-2.14774e-43
1.11503e-40
-3.60901e-42
2.49013e-39
-3.30072e-41
-2.44261e-36
-4.20781e-40
-6.73861e-33
-8.48353e-39
-2.57128e-31
-1.1456e-38
-4.15374e-30
-3.85318e-32
-4.89959e-29
-1.84004e-30
-4.78871e-28
-3.09183e-29
-4.07639e-27
-3.68175e-28
-3.09697e-26
-3.5563e-27
-2.12717e-25
-2.93811e-26
-1.33083e-24
-2.1322e-25
-7.62336e-24
-1.38089e-24
-4.01581e-23
-8.06877e-24
-1.95262e-22
-4.28819e-23
-8.78644e-22
-2.08452e-22
-3.66403e-21
-9.30182e-22
-1.41805e-20
-3.82224e-21
-5.10721e-20
-1.45211e-20
-1.71848e-19
-5.12595e-20
-5.42337e-19
-1.68933e-19
-5.20169e-19
-7.39856e-70
1.44774e-74
-1.99384e-68
9.17667e-74
-1.56486e-67
4.57133e-74
-3.7943e-67
6.2774e-75
-9.66988e-68
-2.82209e-74
-1.56391e-68
-1.67881e-72
2.24676e-68
-1.17779e-70
1.00369e-64
-4.23531e-67
7.70949e-59
-6.90985e-61
2.39642e-56
-5.32613e-58
5.40882e-55
-1.58889e-56
3.26418e-54
-1.13012e-55
9.25148e-54
-3.56188e-55
1.73467e-53
-6.95478e-55
3.03862e-53
-1.27466e-54
1.31343e-52
-1.07564e-53
3.93284e-51
-3.44021e-52
1.23647e-49
-1.00749e-50
3.55522e-48
-2.66465e-49
9.57109e-47
-6.47835e-48
2.42528e-45
-1.46972e-46
5.73067e-44
-3.09923e-45
1.24648e-42
-5.97806e-44
2.49698e-41
-1.04539e-42
4.92827e-40
-1.67454e-41
8.88432e-39
-2.46498e-40
1.56188e-37
-3.48438e-39
5.32551e-37
-2.60446e-38
-1.40963e-32
-4.4052e-37
-5.61079e-31
-1.7947e-36
-9.81488e-30
-1.38447e-31
-1.24746e-28
-5.33749e-30
-1.30004e-27
-9.12657e-29
-1.16546e-26
-1.1233e-27
-9.20743e-26
-1.11744e-26
-6.50528e-25
-9.44428e-26
-4.15625e-24
-6.97712e-25
-2.42331e-23
-4.59172e-24
-1.29626e-22
-2.72288e-23
-6.37037e-22
-1.4629e-22
-2.88207e-21
-7.15575e-22
-1.208e-20
-3.21377e-21
-4.74591e-20
-1.34287e-20
-1.7623e-19
-5.27071e-20
-1.95768e-19
-1.84038e-75
3.37235e-75
-2.00974e-74
2.69145e-74
-1.41731e-74
4.10312e-74
-2.50298e-75
5.56365e-75
2.99767e-74
-9.35351e-74
1.85228e-72
-6.1968e-72
1.52943e-70
-1.29597e-70
3.15939e-67
-3.29478e-69
5.72421e-61
-1.68289e-63
4.85644e-58
-8.15307e-60
1.49518e-56
-3.21087e-58
1.02838e-55
-2.6162e-57
3.07845e-55
-8.97014e-57
6.1865e-55
-1.98277e-56
1.38333e-54
-7.02265e-56
1.80912e-53
-1.82886e-54
6.77874e-52
-6.34357e-53
2.19765e-50
-1.93489e-51
6.46374e-49
-5.31501e-50
1.75783e-47
-1.33226e-48
4.49955e-46
-3.11379e-47
1.0829e-44
-6.81969e-46
2.4186e-43
-1.38191e-44
4.98679e-42
-2.5539e-43
9.59954e-41
-4.31068e-42
1.76597e-39
-6.79032e-41
3.1507e-38
-1.02447e-39
5.70204e-37
-1.47519e-38
8.76302e-36
-1.95781e-37
1.06301e-34
-1.25466e-36
-4.76883e-32
-1.18347e-35
-1.73629e-30
-3.30175e-35
-3.14186e-29
-7.12085e-31
-4.16297e-28
-2.16381e-29
-4.47128e-27
-3.57968e-28
-4.06323e-26
-4.34572e-27
-3.20776e-25
-4.25664e-26
-2.24391e-24
-3.53053e-25
-1.40769e-23
-2.54673e-24
-7.95815e-23
-1.61922e-23
-4.06702e-22
-9.15215e-23
-1.91767e-21
-4.7107e-22
-8.61052e-21
-2.28469e-21
-3.8938e-20
-1.10636e-20
-5.12391e-20
-3.5465e-76
3.51668e-76
-4.93559e-75
3.47769e-75
-1.07081e-74
1.05799e-74
-1.87285e-75
1.31058e-75
9.10341e-74
-1.38727e-73
8.45037e-72
-1.5208e-71
1.38685e-70
-3.42035e-70
4.03608e-69
-4.54655e-69
1.17807e-63
-3.17976e-66
6.26866e-60
-4.54931e-62
2.55747e-58
-2.69886e-60
2.0205e-57
-2.79512e-59
6.66972e-57
-1.19132e-58
1.62742e-56
-4.64638e-58
7.77674e-56
-7.71849e-57
2.66271e-54
-2.97424e-55
1.01393e-52
-1.02666e-53
3.38988e-51
-3.21359e-52
1.02485e-49
-9.07026e-51
2.84106e-48
-2.3378e-49
7.39018e-47
-5.62042e-48
1.81578e-45
-1.27345e-46
4.16746e-44
-2.69185e-45
8.82122e-43
-5.20261e-44
1.72951e-41
-9.14249e-43
3.2282e-40
-1.49925e-41
5.94319e-39
-2.40799e-40
1.08356e-37
-3.84686e-39
1.85692e-36
-5.66382e-38
2.94804e-35
-6.9303e-37
2.77867e-34
-6.93505e-36
3.90777e-33
-3.59109e-35
-1.68104e-31
-3.13716e-34
-5.98481e-30
-2.56089e-32
-1.07171e-28
-3.82597e-30
-1.36477e-27
-8.9899e-29
-1.3311e-26
-1.26232e-27
-1.01169e-25
-1.24055e-26
-5.70424e-25
-8.51475e-26
-1.76471e-24
-3.08485e-25
9.95694e-24
6.27487e-24
2.08748e-22
6.99844e-23
1.50028e-21
5.56665e-22
5.23935e-21
3.26075e-21
1.49672e-20
-3.11757e-77
1.04574e-80
-5.42389e-76
3.58498e-80
-2.35726e-75
2.89631e-81
-3.7746e-76
-5.99126e-78
9.75751e-74
-9.1906e-74
1.22511e-71
-1.52287e-71
3.0806e-70
-3.71086e-70
4.71543e-69
-4.94349e-69
2.45597e-66
-1.52275e-66
2.9896e-62
-3.41089e-65
1.8539e-60
-6.89183e-64
1.89517e-59
-2.64417e-62
8.31824e-59
-7.06137e-61
3.87332e-58
-2.59075e-59
8.45987e-57
-1.19342e-57
3.63882e-55
-4.40448e-56
1.35965e-53
-1.50667e-54
4.62799e-52
-4.72727e-53
1.42514e-50
-1.3505e-51
4.02571e-49
-3.55097e-50
1.06624e-47
-8.74421e-49
2.67764e-46
-2.04117e-47
6.31572e-45
-4.47251e-46
1.37228e-43
-8.97334e-45
2.737e-42
-1.6297e-43
5.16537e-41
-2.7541e-42
9.73778e-40
-4.62161e-41
1.87064e-38
-7.98321e-40
3.3999e-37
-1.29689e-38
5.3001e-36
-1.71984e-37
7.11229e-35
-1.79968e-36
9.80312e-34
-1.72347e-35
1.90857e-32
-2.57526e-34
4.67726e-31
-5.22847e-33
7.11426e-30
-3.03519e-32
6.96635e-29
8.23281e-31
6.39471e-28
1.87568e-29
9.93936e-27
4.46027e-28
2.15313e-25
1.29624e-26
4.14375e-24
3.15165e-25
5.85331e-23
5.42588e-24
5.72382e-22
6.30547e-23
4.13814e-21
5.30513e-22
2.32412e-20
3.41555e-21
1.84597e-20
-7.92279e-82
1.77469e-81
-4.81094e-81
4.1699e-81
-5.56857e-82
3.09798e-82
2.97691e-78
-9.9602e-82
3.49926e-74
-5.6779e-75
8.66154e-72
-3.39578e-72
2.89218e-70
-1.88459e-70
4.40312e-69
-1.58402e-69
9.99677e-67
-1.3825e-67
1.96855e-65
-4.38675e-66
4.27215e-64
-4.15121e-65
1.78184e-62
-9.89021e-64
5.31668e-61
-6.34557e-62
2.22539e-59
-3.66552e-60
1.14527e-57
-1.57544e-58
4.5442e-56
-5.92407e-57
1.67796e-54
-2.02039e-55
5.68728e-53
-6.25518e-54
1.76088e-51
-1.78895e-52
5.03781e-50
-4.75327e-51
1.3558e-48
-1.19028e-49
3.47562e-47
-2.84346e-48
8.40429e-46
-6.40883e-47
1.87081e-44
-1.32625e-45
3.79749e-43
-2.4851e-44
7.25282e-42
-4.33256e-43
1.39621e-40
-7.54959e-42
2.81079e-39
-1.37992e-40
5.39391e-38
-2.40216e-39
8.58353e-37
-3.37333e-38
1.1143e-35
-3.65821e-37
1.42324e-34
-3.60636e-36
3.23844e-33
-7.04637e-35
1.24783e-31
-2.60842e-33
2.93717e-30
-4.59646e-32
3.89182e-29
-2.84099e-31
3.37862e-28
1.03614e-30
2.80521e-27
2.78312e-29
4.22162e-26
4.4785e-28
1.15065e-24
2.23072e-26
2.64954e-23
1.04335e-24
3.74557e-22
2.48064e-23
3.41132e-21
3.27097e-22
2.1965e-20
2.77502e-21
1.61795e-20
-1.16081e-82
1.46375e-82
-4.85764e-82
3.881e-82
-5.1822e-83
2.65103e-83
3.72361e-82
-4.19108e-82
1.54472e-75
-1.83127e-78
1.16519e-72
-2.47637e-73
7.62601e-71
-2.53798e-71
6.9571e-70
-2.66953e-70
6.33363e-68
-9.09115e-70
2.17534e-66
-4.82787e-68
2.22049e-65
-2.45903e-66
6.31688e-64
-1.76438e-64
4.4418e-62
-8.69797e-63
2.78246e-60
-3.92873e-61
1.28053e-58
-1.77592e-59
5.20218e-57
-7.11464e-58
1.90821e-55
-2.41669e-56
6.35473e-54
-7.40942e-55
1.96057e-52
-2.1197e-53
5.63688e-51
-5.67132e-52
1.5329e-49
-1.43582e-50
3.99184e-48
-3.48065e-49
9.8437e-47
-7.99743e-48
2.23837e-45
-1.69859e-46
4.63852e-44
-3.29369e-45
9.03124e-43
-5.9803e-44
1.77847e-41
-1.08594e-42
3.71013e-40
-2.06098e-41
7.41903e-39
-3.72973e-40
1.20706e-37
-5.46323e-39
1.55208e-36
-6.18705e-38
1.92152e-35
-6.3912e-37
5.07118e-34
-1.38715e-35
2.70102e-32
-6.10919e-34
7.59533e-31
-1.31655e-32
1.08154e-29
-1.31612e-31
9.38605e-29
-6.38208e-31
5.03004e-28
-3.18469e-31
3.07315e-27
1.02545e-29
1.15195e-25
6.1886e-28
5.80763e-24
9.56252e-26
1.39748e-22
4.73479e-24
1.84873e-21
1.04849e-22
1.55439e-20
1.30897e-21
1.03825e-20
-8.32996e-84
5.72739e-85
-3.95154e-83
1.91381e-86
-3.8832e-84
-6.42226e-86
1.64541e-82
-1.86647e-81
8.51627e-79
-2.84344e-78
7.20503e-74
-1.64623e-74
8.17865e-72
-1.08236e-72
8.55495e-71
-1.25084e-71
3.17203e-70
-8.746e-71
2.24587e-68
-7.79738e-69
1.27233e-66
-3.85695e-67
1.01362e-64
-1.70265e-65
5.27719e-63
-8.25305e-64
2.5429e-61
-3.97866e-62
1.24122e-59
-1.8567e-60
5.34558e-58
-7.41408e-59
1.9455e-56
-2.51385e-57
6.40022e-55
-7.71589e-56
1.96887e-53
-2.22193e-54
5.67746e-52
-6.01825e-53
1.55322e-50
-1.5404e-51
4.07957e-49
-3.76106e-50
1.01859e-47
-8.73393e-49
2.36042e-46
-1.89953e-47
5.02474e-45
-3.83429e-46
1.01042e-43
-7.33268e-45
2.05115e-42
-1.39846e-43
4.3756e-41
-2.72299e-42
8.91952e-40
-4.97116e-41
1.48042e-38
-7.44837e-40
1.93751e-37
-8.87002e-39
2.43118e-36
-9.82591e-38
6.6283e-35
-1.92784e-36
3.70033e-33
-7.37859e-35
1.05007e-31
-1.559e-33
1.53308e-30
-1.66905e-32
1.39953e-29
-9.80939e-32
8.27466e-29
-4.16697e-31
2.95983e-28
-4.09159e-31
6.01118e-27
5.77484e-30
7.69894e-25
4.46837e-27
3.12255e-23
4.7759e-25
6.00716e-22
1.72957e-23
6.86821e-21
3.21187e-22
3.60115e-21
-2.85351e-86
1.38307e-85
-1.71268e-87
4.20947e-87
1.91476e-86
-7.6104e-86
1.06347e-81
-5.94179e-81
1.42013e-78
-4.70871e-78
4.21111e-75
-1.15962e-75
3.00635e-73
-7.58441e-74
3.70825e-72
-9.45778e-73
3.04572e-71
-6.75714e-72
3.25503e-69
-4.84868e-70
1.75246e-67
-3.05565e-68
8.2414e-66
-1.74934e-66
4.32565e-64
-8.69946e-65
2.24541e-62
-3.94748e-63
1.12121e-60
-1.69881e-61
4.78065e-59
-6.61342e-60
1.73291e-57
-2.25213e-58
5.69471e-56
-6.94984e-57
1.75872e-54
-2.02613e-55
5.11837e-53
-5.60447e-54
1.41006e-51
-1.45901e-52
3.71171e-50
-3.57874e-51
9.31631e-49
-8.34779e-50
2.19928e-47
-1.85852e-48
4.84727e-46
-3.92469e-47
1.01976e-44
-7.93075e-46
2.15452e-43
-1.58799e-44
4.65947e-42
-3.15322e-43
9.44473e-41
-5.67651e-42
1.57868e-39
-8.41617e-41
2.13579e-38
-1.03317e-39
2.80119e-37
-1.23608e-38
6.6062e-36
-2.20923e-37
3.01491e-34
-6.38628e-36
7.75889e-33
-1.24681e-34
1.05599e-31
-1.30046e-33
8.73748e-31
-7.72555e-33
6.1293e-30
-3.16074e-32
2.22208e-29
-1.38495e-31
1.03346e-28
-1.23217e-31
4.68384e-26
2.46157e-29
3.81598e-24
1.66184e-26
1.09657e-22
1.23469e-24
1.71635e-21
3.63199e-23
5.89641e-22
-6.06601e-87
1.62013e-86
-3.32744e-88
4.50105e-88
1.78632e-86
-1.56152e-86
1.75919e-81
-6.15596e-81
1.6997e-78
-4.3146e-78
2.65303e-76
-1.10206e-76
1.85828e-74
-2.27857e-75
2.46864e-73
-2.90462e-74
2.03668e-72
-3.78333e-73
1.71039e-70
-3.40957e-71
1.18721e-68
-2.49345e-69
7.42309e-67
-1.40714e-67
3.96923e-65
-6.67457e-66
1.92619e-63
-2.97664e-64
8.843e-62
-1.27866e-62
3.67203e-60
-4.97989e-61
1.33443e-58
-1.70969e-59
4.39891e-57
-5.34658e-58
1.37189e-55
-1.58303e-56
4.06554e-54
-4.48513e-55
1.13522e-52
-1.19687e-53
2.9899e-51
-2.9647e-52
7.50661e-50
-6.93128e-51
1.80676e-48
-1.57805e-49
4.14762e-47
-3.50173e-48
9.16263e-46
-7.44533e-47
2.0144e-44
-1.53057e-45
4.39559e-43
-3.02309e-44
8.68546e-42
-5.24525e-43
1.41971e-40
-7.44978e-42
1.95734e-39
-9.27932e-41
2.72471e-38
-1.24894e-39
5.73341e-37
-2.25295e-38
1.91764e-35
-4.99054e-37
4.36899e-34
-7.99522e-36
5.42002e-33
-7.59389e-35
4.01558e-32
-4.34702e-34
2.30674e-31
-1.91377e-33
1.46515e-30
-4.84657e-33
3.46319e-30
-1.41776e-32
5.52105e-28
-5.83065e-31
1.78059e-25
2.87834e-30
9.42423e-24
2.19271e-26
2.1694e-22
1.46876e-24
3.87874e-23
-6.29026e-88
3.11032e-88
-3.15788e-89
8.0009e-90
1.73282e-87
-2.99185e-88
1.55105e-81
-2.5086e-81
1.03161e-78
-9.08252e-79
2.22971e-77
-1.74477e-77
4.79082e-76
-7.81166e-77
6.70542e-75
-1.28945e-76
1.03669e-73
-2.14705e-74
1.06415e-71
-1.93327e-72
8.48783e-70
-1.47243e-70
5.1632e-68
-8.77712e-69
2.62947e-66
-4.38647e-67
1.25562e-64
-1.9445e-65
5.75319e-63
-7.90258e-64
2.38549e-61
-3.00441e-62
8.72408e-60
-1.05846e-60
2.9088e-58
-3.41418e-59
9.18798e-57
-1.02636e-57
2.78021e-55
-2.96474e-56
7.9325e-54
-8.17527e-55
2.10283e-52
-2.07377e-53
5.27292e-51
-4.86485e-52
1.29333e-49
-1.12546e-50
3.10856e-48
-2.65676e-49
7.18529e-47
-6.01529e-48
1.60648e-45
-1.21634e-46
3.44688e-44
-2.19475e-45
6.49561e-43
-3.42862e-44
1.0096e-41
-4.57468e-43
1.41369e-40
-6.87292e-42
2.21513e-39
-1.36548e-40
4.60587e-38
-2.43106e-39
1.14959e-36
-3.93316e-38
2.08316e-35
-4.77449e-37
2.26147e-34
-3.69842e-36
1.53434e-33
-1.93168e-35
8.12611e-33
-7.0865e-35
2.78984e-32
-1.38718e-34
1.64214e-31
-6.05302e-33
1.87366e-29
-7.43056e-31
2.11057e-27
-1.68022e-29
2.72775e-25
-9.98536e-29
1.15551e-23
1.0413e-26
7.87566e-25
-1.07561e-89
1.14889e-88
-5.0081e-91
2.69982e-90
2.81085e-89
-1.12059e-91
3.33199e-82
-2.77077e-84
1.37811e-79
-1.8459e-80
2.80786e-78
-9.05909e-79
1.06444e-77
-5.39087e-78
2.03773e-77
-1.26607e-77
5.39708e-75
-1.14693e-75
5.30515e-73
-1.05675e-73
4.37234e-71
-7.48531e-72
2.80585e-69
-4.35096e-70
1.50444e-67
-2.19705e-68
7.11994e-66
-9.72987e-67
3.07757e-64
-3.89874e-65
1.24369e-62
-1.47148e-63
4.65891e-61
-5.24445e-62
1.59744e-59
-1.71332e-60
5.10578e-58
-5.17306e-59
1.57039e-56
-1.51955e-57
4.61764e-55
-4.39219e-56
1.24998e-53
-1.17164e-54
3.13475e-52
-2.78457e-53
7.78671e-51
-6.40627e-52
1.98519e-49
-1.62084e-50
4.86158e-48
-4.05327e-49
1.05731e-46
-7.68217e-48
2.04474e-45
-1.07756e-46
3.43794e-44
-1.25932e-45
5.05149e-43
-1.75761e-44
8.84044e-42
-7.20636e-43
2.06104e-40
-2.42507e-41
4.03286e-39
-3.41052e-40
7.07983e-38
-3.1647e-39
9.4497e-37
-2.3207e-38
8.1431e-36
-1.20707e-37
4.81386e-35
-4.68112e-37
1.93475e-34
-1.36506e-36
5.07471e-34
-2.29611e-36
4.37549e-32
-6.97425e-34
9.64573e-30
-3.24729e-31
3.28384e-28
-9.73028e-30
6.73306e-27
-1.14791e-28
2.43334e-25
-6.98393e-28
3.08021e-28
-3.56424e-90
1.69411e-89
-1.51661e-91
3.66717e-91
2.48678e-91
-1.79401e-91
3.16152e-85
-4.13209e-85
2.37554e-81
-7.02502e-83
1.27183e-79
-8.25236e-82
7.29484e-79
-1.90438e-81
2.05527e-78
-4.56517e-79
2.53355e-76
-4.42673e-77
2.55059e-74
-4.21478e-75
1.95108e-72
-3.20443e-73
1.21675e-70
-1.83891e-71
6.56052e-69
-8.7664e-70
3.09188e-67
-3.72604e-68
1.3166e-65
-1.50444e-66
5.27506e-64
-5.7797e-65
1.99229e-62
-2.03118e-63
6.88953e-61
-6.45097e-62
2.20457e-59
-1.9392e-60
6.88105e-58
-5.90361e-59
2.1167e-56
-1.83347e-57
6.01014e-55
-5.36289e-56
1.52274e-53
-1.37185e-54
3.74807e-52
-3.05054e-53
1.0193e-50
-7.28485e-52
2.73411e-49
-1.87427e-50
5.48757e-48
-3.08135e-49
8.12536e-47
-2.93222e-48
1.02615e-45
-2.26825e-47
1.65145e-44
-1.07603e-45
8.1548e-43
-1.12851e-43
3.03602e-41
-3.52089e-42
4.45443e-40
-3.50666e-41
4.33753e-39
-1.69227e-40
3.41645e-38
-5.10751e-40
1.93742e-37
-1.14734e-39
8.30548e-37
-1.99211e-39
2.55965e-36
-2.75261e-39
5.56673e-36
-5.71401e-39
2.98313e-33
-1.37848e-35
2.02209e-30
-4.73329e-32
8.72222e-29
-2.4185e-30
1.59732e-27
-4.1805e-29
1.94167e-26
-3.86771e-28
-2.34972e-27
-4.75459e-91
3.30753e-97
-1.86111e-92
7.62022e-99
5.44139e-92
-6.60535e-92
4.46498e-86
-5.99394e-86
8.40751e-84
-1.1198e-83
9.51155e-83
-1.49723e-82
2.71363e-82
-5.61063e-82
8.12366e-80
-2.03061e-80
8.6497e-78
-1.7329e-78
8.94783e-76
-1.41654e-76
7.33069e-74
-9.97394e-75
4.49748e-72
-5.51641e-73
2.28162e-70
-2.58775e-71
1.02976e-68
-1.08226e-69
4.40982e-67
-4.30242e-68
1.79262e-65
-1.61932e-66
6.64777e-64
-5.50058e-65
2.22779e-62
-1.72715e-63
7.09122e-61
-5.64904e-62