/*--------------------------------*- C++ -*----------------------------------*\
| =========                 |                                                 |
| \\      /  F ield         | OpenFOAM: The Open Source CFD Toolbox           |
|  \\    /   O peration     | Version:  5.0                                   |
|   \\  /    A nd           | Web:      www.OpenFOAM.org                      |
|    \\/     M anipulation  |                                                 |
\*---------------------------------------------------------------------------*/
FoamFile
{
    version     2.0;
    format      ascii;
    class       volScalarField;
    location    "1";
    object      alpha.water;
}
// * * * * * * * * * * * * * * * * * * * * * * * * * * * * * * * * * * * * * //

dimensions      [0 0 0 0 0 0 0];

internalField   nonuniform List<scalar> 
1915
(
-1.1605e-16
-2.91801e-16
-7.84757e-16
-2.26928e-15
-6.94109e-15
-2.17745e-14
-6.78731e-14
-2.05067e-13
-5.89827e-13
-1.59351e-12
-4.00393e-12
-9.29765e-12
-1.9894e-11
-3.92129e-11
-7.13192e-11
-1.20027e-10
-1.8755e-10
-2.73001e-10
-3.70795e-10
-4.67541e-10
-5.30708e-10
-4.64912e-10
-4.69316e-11
-4.19691e-12
1.26485e-10
-1.1567e-25
-4.7475e-25
-2.01219e-24
-7.18924e-24
-2.2774e-23
-6.53162e-23
-1.71837e-22
-4.23393e-22
-1.00439e-21
-2.35835e-21
-5.5831e-21
-1.33918e-20
-3.23722e-20
-7.82029e-20
-1.8764e-19
-4.46124e-19
-1.0518e-18
-2.4656e-18
-5.76975e-18
-1.35561e-17
-3.2277e-17
-7.90471e-17
-2.03103e-16
-5.57324e-16
-1.63854e-15
-5.07016e-15
-1.60078e-14
-4.99811e-14
-1.50513e-13
-4.2918e-13
-1.14393e-12
-2.8269e-12
-6.4499e-12
-1.35714e-11
-2.6359e-11
-4.7366e-11
-7.89871e-11
-1.22636e-10
-1.77756e-10
-2.4066e-10
-3.02567e-10
-3.43481e-10
-3.20548e-10
-1.57711e-10
-4.35331e-12
-2.53725e-26
-1.01853e-25
-4.13361e-25
-1.46885e-24
-4.64393e-24
-1.3182e-23
-3.41572e-23
-8.31624e-23
-1.96926e-22
-4.67222e-22
-1.12763e-21
-2.76595e-21
-6.82856e-21
-1.67984e-20
-4.09556e-20
-9.89127e-20
-2.3723e-19
-5.67105e-19
-1.35638e-18
-3.25809e-18
-7.89797e-18
-1.94781e-17
-4.95237e-17
-1.32102e-16
-3.74979e-16
-1.13204e-15
-3.56446e-15
-1.13553e-14
-3.55108e-14
-1.06393e-13
-3.00147e-13
-7.88554e-13
-1.91768e-12
-4.30649e-12
-8.9311e-12
-1.71344e-11
-3.04911e-11
-5.04859e-11
-7.80109e-11
-1.12743e-10
-1.52474e-10
-1.92192e-10
-2.22631e-10
-2.28415e-10
-1.91106e-10
-4.53158e-27
-1.77222e-26
-7.09527e-26
-2.51686e-25
-7.88414e-25
-2.19637e-24
-5.56826e-24
-1.33282e-23
-3.13708e-23
-7.48985e-23
-1.834e-22
-4.57568e-22
-1.1482e-21
-2.86788e-21
-7.10585e-21
-1.74852e-20
-4.28842e-20
-1.05298e-19
-2.59857e-19
-6.46338e-19
-1.62393e-18
-4.13508e-18
-1.07415e-17
-2.87951e-17
-8.08246e-17
-2.39833e-16
-7.48745e-16
-2.40829e-15
-7.7494e-15
-2.42481e-14
-7.21626e-14
-2.01244e-13
-5.21373e-13
-1.24966e-12
-2.7682e-12
-5.67287e-12
-1.07791e-11
-1.9045e-11
-3.13836e-11
-4.83647e-11
-6.98608e-11
-9.47241e-11
-1.20569e-10
-1.43669e-10
-1.6018e-10
-6.72239e-28
-2.52848e-27
-9.98764e-27
-3.50561e-26
-1.07549e-25
-2.90862e-25
-7.14199e-25
-1.66455e-24
-3.86056e-24
-9.21088e-24
-2.27689e-23
-5.75847e-23
-1.46531e-22
-3.71222e-22
-9.36283e-22
-2.35871e-21
-5.96391e-21
-1.51978e-20
-3.91584e-20
-1.02209e-19
-2.70398e-19
-7.25129e-19
-1.97423e-18
-5.48564e-18
-1.57078e-17
-4.68651e-17
-1.46375e-16
-4.74428e-16
-1.56103e-15
-5.07131e-15
-1.58592e-14
-4.68551e-14
-1.29242e-13
-3.30723e-13
-7.83149e-13
-1.71624e-12
-3.48662e-12
-6.5832e-12
-1.15858e-11
-1.90591e-11
-2.93858e-11
-4.2582e-11
-5.81597e-11
-7.5088e-11
-9.20498e-11
-8.0952e-29
-2.86667e-28
-1.10174e-27
-3.76543e-27
-1.11366e-26
-2.8784e-26
-6.73111e-26
-1.49966e-25
-3.3685e-25
-7.93854e-25
-1.97469e-24
-5.08227e-24
-1.32058e-23
-3.41822e-23
-8.84026e-23
-2.30002e-22
-6.06746e-22
-1.62846e-21
-4.4532e-21
-1.24072e-20
-3.51749e-20
-1.01253e-19
-2.9537e-19
-8.73432e-19
-2.62924e-18
-8.11991e-18
-2.59161e-17
-8.54873e-17
-2.87947e-16
-9.68666e-16
-3.1741e-15
-9.91797e-15
-2.91154e-14
-7.95919e-14
-2.01744e-13
-4.7364e-13
-1.03097e-12
-2.08511e-12
-3.92885e-12
-6.91603e-12
-1.14054e-11
-1.76734e-11
-2.58189e-11
-3.56925e-11
-4.69004e-11
-7.52795e-30
-2.42051e-29
-8.80373e-29
-2.85571e-28
-7.9449e-28
-1.91191e-27
-4.1268e-27
-8.46563e-27
-1.77303e-26
-4.01964e-26
-1.00223e-25
-2.68107e-25
-7.34079e-25
-2.00113e-24
-5.44527e-24
-1.4963e-23
-4.20991e-23
-1.21786e-22
-3.62126e-22
-1.10304e-21
-3.42885e-21
-1.08323e-20
-3.46293e-20
-1.11678e-19
-3.63242e-19
-1.19582e-18
-4.00783e-18
-1.37255e-17
-4.78364e-17
-1.67262e-16
-5.74584e-16
-1.89872e-15
-5.93521e-15
-1.73561e-14
-4.71884e-14
-1.18999e-13
-2.78377e-13
-6.05103e-13
-1.22509e-12
-2.31626e-12
-4.10083e-12
-6.81859e-12
-1.06829e-11
-1.58296e-11
-2.22765e-11
-4.9856e-31
-1.35886e-30
-4.4181e-30
-1.29098e-29
-3.20846e-29
-6.79769e-29
-1.26773e-28
-2.21291e-28
-4.01216e-28
-8.14698e-28
-1.89146e-27
-5.44404e-27
-1.8048e-26
-5.80419e-26
-1.80793e-25
-5.59445e-25
-1.76851e-24
-5.76906e-24
-1.94368e-23
-6.7194e-23
-2.36825e-22
-8.46048e-22
-3.04661e-21
-1.10038e-20
-3.97416e-20
-1.43537e-19
-5.20062e-19
-1.89768e-18
-6.9763e-18
-2.56525e-17
-9.29593e-17
-3.25988e-16
-1.08795e-15
-3.41282e-15
-9.98551e-15
-2.71502e-14
-6.85466e-14
-1.60868e-13
-3.51644e-13
-7.17696e-13
-1.37122e-12
-2.45936e-12
-4.15397e-12
-6.631e-12
-1.00437e-11
-2.06575e-32
-4.04248e-32
-9.97141e-32
-2.27301e-31
-4.36385e-31
-6.92832e-31
-9.35346e-31
-1.13122e-30
-1.42765e-30
-1.99691e-30
-2.74021e-30
-8.33762e-30
-5.67832e-29
-3.4977e-28
-1.83362e-27
-8.13612e-27
-3.42412e-26
-1.42219e-25
-5.94744e-25
-2.50691e-24
-1.06125e-23
-4.49421e-23
-1.89643e-22
-7.94021e-22
-3.28694e-21
-1.34324e-20
-5.42519e-20
-2.17212e-19
-8.63987e-19
-3.40628e-18
-1.31941e-17
-4.95322e-17
-1.77613e-16
-6.00913e-16
-1.90205e-15
-5.60647e-15
-1.53646e-14
-3.91673e-14
-9.30267e-14
-2.06307e-13
-4.28248e-13
-8.34271e-13
-1.52986e-12
-2.6498e-12
-4.35153e-12
-4.31359e-34
-4.81082e-34
-7.4384e-34
-9.61071e-34
-8.24983e-34
-3.19914e-34
-4.10928e-35
-3.72969e-36
-2.89226e-37
-2.07365e-38
-1.41092e-39
-3.51698e-41
5.64323e-39
1.01597e-37
-6.49432e-32
-4.81228e-30
-6.7326e-29
-8.3943e-28
-6.81933e-27
-4.41763e-26
-2.58701e-25
-1.43015e-24
-7.5893e-24
-3.89068e-23
-1.93066e-22
-9.28201e-22
-4.33113e-21
-1.96758e-20
-8.73115e-20
-3.78812e-19
-1.60081e-18
-6.53263e-18
-2.54609e-17
-9.37798e-17
-3.23807e-16
-1.04297e-15
-3.12733e-15
-8.72982e-15
-2.27157e-14
-5.52033e-14
-1.25571e-13
-2.68027e-13
-5.38336e-13
-1.02074e-12
-1.83376e-12
-4.17722e-36
-1.66185e-36
-4.69594e-37
-3.06112e-38
-1.54019e-39
-7.14387e-41
-3.2511e-42
-1.49279e-43
-2.87361e-45
8.43782e-44
3.96092e-43
8.75319e-43
9.11062e-43
7.70022e-43
5.87115e-43
5.70556e-43
7.68405e-43
4.56892e-42
-1.14975e-30
-6.86072e-29
-1.83483e-27
-1.96432e-26
-1.59407e-25
-1.12647e-24
-7.2712e-24
-4.37343e-23
-2.47818e-22
-1.33337e-21
-6.85632e-21
-3.38427e-20
-1.60461e-19
-7.28155e-19
-3.14117e-18
-1.27841e-17
-4.87698e-17
-1.73658e-16
-5.76065e-16
-1.78011e-15
-5.12972e-15
-1.38087e-14
-3.47941e-14
-8.22506e-14
-1.82884e-13
-3.83639e-13
-7.61849e-13
-1.39656e-38
-2.69966e-40
-6.00846e-42
-1.49641e-43
-4.11038e-45
-1.23298e-46
-4.00868e-48
-1.40339e-49
1.96851e-48
8.82154e-47
8.95784e-46
3.97334e-45
1.05091e-44
2.05629e-44
3.21382e-44
4.30061e-44
7.31385e-44
7.74674e-43
1.88135e-41
9.04109e-40
2.38296e-38
-7.85907e-30
-7.39996e-28
-1.31149e-26
-1.40661e-25
-1.21318e-24
-9.1405e-24
-6.22932e-23
-3.91643e-22
-2.30012e-21
-1.27084e-20
-6.61947e-20
-3.24493e-19
-1.49166e-18
-6.40655e-18
-2.56439e-17
-9.55715e-17
-3.31746e-16
-1.07381e-15
-3.24627e-15
-9.18294e-15
-2.4356e-14
-6.07125e-14
-1.42628e-13
-3.16765e-13
-2.17973e-42
-4.49479e-44
-1.03366e-45
-2.59423e-47
-7.03889e-49
-2.05244e-50
-6.40315e-52
-2.11674e-53
3.48132e-50
3.41956e-48
4.85187e-47
2.48146e-46
6.8048e-46
1.2498e-45
1.8246e-45
2.51467e-45
8.41243e-45
1.78396e-43
4.82058e-42
1.21218e-40
2.92584e-39
1.2066e-37
2.70252e-36
-1.12923e-30
-4.75007e-28
-1.30457e-26
-1.72767e-25
-1.72952e-24
-1.46432e-23
-1.09815e-22
-7.47312e-22
-4.67424e-21
-2.70309e-20
-1.44828e-19
-7.19315e-19
-3.31331e-18
-1.41682e-17
-5.63279e-17
-2.08548e-16
-7.202e-16
-2.32384e-15
-7.01995e-15
-1.99006e-14
-5.30841e-14
-1.33565e-13
-2.71302e-62
-3.27972e-61
-1.35984e-60
-9.09632e-61
-1.81023e-61
-2.49834e-62
2.84786e-61
4.00278e-57
1.12922e-51
1.56853e-49
2.56666e-48
1.39239e-47
3.88277e-47
7.09623e-47
1.02123e-46
1.68669e-46
1.62102e-45
4.41083e-44
1.16273e-42
2.90488e-41
6.82154e-40
1.47487e-38
3.05443e-37
1.04554e-35
2.18659e-34
-2.01544e-31
-5.23168e-28
-1.88089e-26
-2.86679e-25
-3.19507e-24
-2.95493e-23
-2.38389e-22
-1.71926e-21
-1.12294e-20
-6.69316e-20
-3.65989e-19
-1.84428e-18
-8.59778e-18
-3.71837e-17
-1.49419e-16
-5.58811e-16
-1.95068e-15
-6.38221e-15
-1.96521e-14
-5.69631e-14
-2.62333e-63
-3.42525e-62
-1.76068e-61
-3.15808e-61
-6.35982e-62
-8.47047e-63
8.65955e-64
1.96517e-59
1.32639e-53
3.747e-51
8.19848e-50
5.09673e-49
1.51578e-48
2.86458e-48
4.42452e-48
1.37651e-47
3.26945e-46
9.49616e-45
2.54069e-43
6.37552e-42
1.50895e-40
3.33817e-39
6.81245e-38
1.27996e-36
2.37973e-35
3.9805e-34
1.28967e-32
4.13218e-32
-1.03142e-27
-3.87687e-26
-6.41372e-25
-7.72128e-24
-7.6342e-23
-6.50421e-22
-4.89234e-21
-3.29734e-20
-2.01376e-19
-1.12479e-18
-5.77725e-18
-2.73291e-17
-1.19326e-16
-4.84026e-16
-1.8457e-15
-6.6727e-15
-2.30233e-14
-6.99494e-69
-3.70207e-68
-1.70953e-68
-2.23279e-69
9.49497e-69
5.36628e-67
3.76747e-65
6.62507e-62
1.053e-55
8.0686e-53
2.3885e-51
1.69071e-50
5.32116e-50
1.04123e-49
1.94446e-49
1.79707e-48
5.98639e-47
1.8025e-45
4.93414e-44
1.25077e-42
2.98907e-41
6.73042e-40
1.40943e-38
2.72901e-37
4.93634e-36
8.53682e-35
1.43135e-33
2.41184e-32
6.84194e-31
7.8141e-30
-3.31338e-27
-1.14197e-25
-1.95921e-24
-2.46538e-23
-2.5192e-22
-2.18202e-21
-1.64512e-20
-1.10129e-19
-6.62607e-19
-3.60083e-18
-1.77318e-17
-8.07666e-17
-3.51242e-16
-1.54262e-15
-6.54548e-15
-1.44564e-69
-9.75675e-69
-1.38609e-68
-1.79276e-69
3.36782e-68
2.7397e-66
3.84662e-65
9.34239e-64
2.32303e-58
1.11166e-54
4.3259e-53
3.49585e-52
1.19333e-51
2.64228e-51
9.83472e-51
2.73359e-49
9.59194e-48
2.97885e-46
8.38205e-45
2.16607e-43
5.25935e-42
1.20843e-40
2.59942e-39
5.16639e-38
9.51835e-37
1.66894e-35
2.88659e-34
4.95724e-33
8.03007e-32
1.20222e-30
2.06895e-29
2.74191e-28
-1.11747e-26
-3.77518e-25
-6.42567e-24
-7.79143e-23
-7.24904e-22
-5.26582e-21
-2.8434e-20
-8.442e-20
1.72435e-19
4.75993e-18
3.68761e-17
1.41225e-16
3.09611e-16
-1.36407e-70
-1.1519e-69
-3.27869e-69
-3.88262e-70
3.9604e-68
4.20477e-66
9.23259e-65
1.19739e-63
5.24331e-61
5.67288e-57
3.31246e-55
3.39187e-54
1.43682e-53
5.72273e-53
1.024e-51
3.99997e-50
1.38403e-48
4.37381e-47
1.25351e-45
3.30067e-44
8.1592e-43
1.91554e-41
4.23329e-40
8.63673e-39
1.6189e-37
2.86878e-36
5.07347e-35
9.16625e-34
1.57703e-32
2.33975e-31
2.97658e-30
3.83646e-29
6.93533e-28
1.61856e-26
2.40926e-25
2.2957e-24
1.97275e-23
2.82209e-22
5.78728e-21
1.0786e-19
1.50847e-18
1.46369e-17
1.05656e-16
5.96351e-16
2.68461e-15
-3.72596e-75
-1.09922e-74
-8.33482e-76
1.64394e-72
1.52271e-68
3.16749e-66
9.3034e-65
1.2075e-63
2.36562e-61
4.21782e-60
8.08242e-59
3.02037e-57
8.19805e-56
3.11405e-54
1.47164e-52
5.39796e-51
1.84485e-49
5.80498e-48
1.67252e-46
4.45995e-45
1.12015e-43
2.68397e-42
6.07975e-41
1.27076e-39
2.42448e-38
4.3466e-37
7.84016e-36
1.48236e-34
2.6927e-33
4.08683e-32
5.04662e-31
5.98789e-30
1.25055e-28
4.54915e-27
1.04079e-25
1.35797e-24
1.14856e-23
8.88882e-23
1.21717e-21
3.12081e-20
6.99476e-19
9.79305e-18
8.91752e-17
5.765e-16
2.86206e-15
-5.87793e-76
-1.19604e-75
-8.36077e-77
1.79116e-76
7.20944e-70
4.52278e-67
2.67633e-65
2.10712e-64
1.59718e-62
5.11425e-61
4.70386e-60
1.15711e-58
7.30995e-57
4.20122e-55
1.78291e-53
6.69249e-52
2.27449e-50
7.03451e-49
2.01955e-47
5.41211e-46
1.37351e-44
3.34293e-43
7.72159e-42
1.64847e-40
3.2105e-39
5.8663e-38
1.08173e-36
2.11745e-35
4.00639e-34
6.2215e-33
7.62018e-32
8.7291e-31
2.10031e-29
1.05429e-27
2.88125e-26
4.04371e-25
3.52721e-24
1.84328e-23
9.78107e-23
3.18763e-21
1.56765e-19
3.73563e-18
4.93089e-17
4.16407e-16
2.46031e-15
-4.55043e-77
-1.05032e-76
-6.76446e-78
9.94986e-77
4.31487e-73
3.00685e-68
3.03545e-66
3.1807e-65
1.01271e-64
5.44432e-63
2.7624e-61
1.99134e-59
9.47226e-58
4.17688e-56
1.87515e-54
7.47155e-53
2.52343e-51
7.71391e-50
2.20878e-48
5.9385e-47
1.51655e-45
3.72337e-44
8.70732e-43
1.89384e-41
3.78726e-40
7.14546e-39
1.35834e-37
2.7187e-36
5.24036e-35
8.29369e-34
1.03311e-32
1.19843e-31
2.97524e-30
1.56367e-28
4.3037e-27
6.16959e-26
5.58161e-25
3.43021e-24
1.11626e-23
1.77269e-22
2.16409e-20
8.6314e-19
1.64421e-17
1.87462e-16
1.42153e-15
-1.68463e-79
-4.92206e-81
1.5549e-80
7.43491e-76
7.83247e-73
1.90873e-69
1.20715e-67
1.36662e-66
9.56463e-66
8.53723e-64
4.15491e-62
1.7688e-60
8.44625e-59
4.01533e-57
1.84703e-55
7.29412e-54
2.45539e-52
7.50278e-51
2.15792e-49
5.85878e-48
1.50768e-46
3.71145e-45
8.72491e-44
1.93215e-42
3.99787e-41
7.88922e-40
1.56177e-38
3.17149e-37
6.0761e-36
9.66315e-35
1.24087e-33
1.50884e-32
3.25112e-31
1.39273e-29
3.47033e-28
4.64909e-27
3.74989e-26
2.68283e-25
9.63273e-25
3.65781e-24
1.38277e-21
1.09899e-19
3.09955e-18
4.79284e-17
4.75321e-16
-3.87504e-80
-1.03508e-81
1.76949e-80
1.32783e-75
1.02047e-72
1.30971e-70
8.07017e-69
9.8458e-68
6.95571e-67
4.87712e-65
3.05059e-63
1.73275e-61
8.46909e-60
3.7726e-58
1.5968e-56
6.14209e-55
2.07418e-53
6.36325e-52
1.84936e-50
5.1165e-49
1.33593e-47
3.29336e-46
7.74475e-45
1.74761e-43
3.76405e-42
7.79929e-41
1.60779e-39
3.29839e-38
6.16241e-37
9.5637e-36
1.24631e-34
1.61133e-33
3.11593e-32
9.76673e-31
2.14806e-29
2.62545e-28
1.92303e-27
1.04668e-26
7.25364e-26
1.57929e-25
1.74058e-23
5.35038e-21
2.7538e-19
6.21025e-18
8.23432e-17
-4.34851e-81
-1.06364e-82
1.84337e-81
1.27092e-75
6.85657e-73
1.24748e-71
2.30024e-70
2.81911e-69
3.72356e-68
3.30405e-66
2.38176e-64
1.31992e-62
6.15343e-61
2.69996e-59
1.14198e-57
4.39157e-56
1.49413e-54
4.64147e-53
1.36755e-51
3.86648e-50
1.03276e-48
2.56576e-47
6.02861e-46
1.3855e-44
3.12329e-43
6.77609e-42
1.42234e-40
2.87271e-39
5.12211e-38
7.54016e-37
9.91334e-36
1.44169e-34
2.77734e-33
6.52291e-32
1.13875e-30
1.21524e-29
8.09122e-29
4.3318e-28
1.40996e-27
6.89981e-27
6.65238e-25
7.04124e-23
8.29275e-21
3.38834e-19
6.60585e-18
-8.03622e-83
-1.82504e-84
3.2364e-83
2.93443e-76
9.87336e-74
1.87226e-72
7.79387e-72
1.25938e-71
2.04475e-69
1.80251e-67
1.34403e-65
7.86873e-64
3.87126e-62
1.68852e-60
6.75078e-59
2.53176e-57
8.83008e-56
2.8254e-54
8.4367e-53
2.42681e-51
6.68719e-50
1.69916e-48
3.99702e-47
9.29743e-46
2.22178e-44
5.11753e-43
1.0489e-41
1.91382e-40
3.04145e-39
4.18685e-38
6.78792e-37
1.47936e-35
2.73029e-34
4.53969e-33
5.84043e-32
4.92937e-31
2.8824e-30
1.21918e-29
2.84431e-29
1.79876e-27
3.75548e-25
1.22959e-23
2.36858e-22
7.69123e-21
2.29398e-19
-2.8692e-83
-5.96705e-85
2.29762e-86
3.01429e-79
1.81262e-75
8.76982e-74
5.1405e-73
1.2165e-72
1.05346e-70
9.51128e-69
6.59984e-67
3.7609e-65
1.86409e-63
8.11544e-62
3.20337e-60
1.19317e-58
4.20244e-57
1.35869e-55
4.06814e-54
1.18851e-52
3.42875e-51
9.1552e-50
2.18069e-48
5.02554e-47
1.27896e-45
3.23742e-44
6.18416e-43
8.7117e-42
1.02931e-40
1.50752e-39
6.84167e-38
2.44317e-36
3.48076e-35
3.2584e-34
2.48132e-33
1.37833e-32
5.83323e-32
1.8999e-31
3.64408e-31
1.33392e-28
8.56432e-26
3.5584e-24
6.29674e-23
7.27558e-22
8.42339e-21
-4.10349e-84
-7.8788e-86
3.65647e-86
4.62641e-80
7.24337e-78
8.37652e-77
2.01062e-76
4.16315e-74
3.94322e-72
3.66752e-70
2.73346e-68
1.53808e-66
7.1941e-65
3.0049e-63
1.19492e-61
4.52774e-60
1.57044e-58
4.93035e-57
1.47e-55
4.45698e-54
1.38094e-52
4.03162e-51
1.03364e-49
2.29774e-48
5.45213e-47
1.4023e-45
2.31664e-44
2.22189e-43
1.74971e-42
9.13164e-41
9.8847e-39
3.10872e-37
3.14356e-36
1.55153e-35
4.87179e-35
1.15835e-34
2.1613e-34
3.25161e-34
7.67251e-34
2.03757e-30
8.77897e-27
5.54978e-25
1.23489e-23
1.57146e-22
1.46716e-21
-7.79281e-92
-1.59591e-93
9.34632e-87
6.28691e-81
1.13369e-78
1.48665e-77
5.77876e-77
1.81227e-75
1.50782e-73
1.19902e-71
8.24548e-70
4.46927e-68
2.05962e-66
8.47707e-65
3.31982e-63
1.23142e-61
4.12541e-60
1.281e-58
4.1675e-57
1.51695e-55
5.26679e-54
1.53809e-52
4.38998e-51
9.65149e-50
1.41244e-48
1.70138e-47
1.88945e-46
2.02796e-45
3.66461e-44
1.1926e-41
6.00219e-40
7.82945e-39
4.32837e-38
1.26767e-37
2.85399e-37
3.31289e-37
3.55476e-37
8.79354e-37
4.93467e-35
5.0165e-32
9.51549e-28
7.10832e-26
1.74765e-24
2.42582e-23
2.36075e-22
-1.78069e-91
-3.24823e-93
4.92727e-87
3.77461e-82
2.37965e-80
1.3528e-79
2.2808e-79
6.1968e-77
4.91907e-75
2.95911e-73
1.61712e-71
7.94777e-70
3.69459e-68
1.64046e-66
6.78928e-65
2.47915e-63
7.85356e-62
2.56271e-60
1.12544e-58
5.98903e-57
2.49196e-55
5.00067e-54
5.91449e-53
6.33091e-52
8.89157e-51
1.6906e-49
3.63706e-48
9.58003e-47
3.88656e-45
2.36533e-43
7.76581e-42
9.54813e-41
4.90664e-40
1.32501e-39
2.28816e-39
3.02659e-39
4.13606e-39
4.54332e-38
3.25502e-36
2.84406e-33
7.9437e-29
8.13865e-27
2.24719e-25
3.3175e-24
3.28459e-23
-2.29262e-91
-3.85298e-93
4.01634e-92
1.53902e-89
2.01454e-88
2.80534e-83
1.27576e-80
8.57362e-79
5.92696e-77
3.72541e-75
2.1005e-73
1.09054e-71
5.39964e-70
2.522e-68
9.79948e-67
3.05753e-65
1.09815e-63
7.57701e-62
5.27905e-60
1.48598e-58
2.15538e-57
2.42424e-56
3.1253e-55
5.53116e-54
1.10812e-52
2.37218e-51
2.38342e-49
1.5104e-47
4.86221e-46
1.63839e-44
1.6316e-43
6.45825e-43
1.31145e-42
1.72053e-42
1.74542e-42
2.04085e-42
1.67536e-41
1.15046e-39
8.08091e-38
8.66926e-35
4.93188e-30
7.89594e-28
2.52392e-26
4.03932e-25
4.19252e-24
-9.33046e-92
-1.53209e-93
4.9766e-92
2.46953e-89
3.63018e-88
9.66062e-85
9.16638e-83
7.52441e-81
5.45121e-79
3.50751e-77
2.05314e-75
1.13758e-73
5.73771e-72
2.32532e-70
8.0769e-69
3.77601e-67
3.39245e-65
1.86941e-63
4.45359e-62
6.28352e-61
7.69487e-60
1.29208e-58
3.33771e-57
7.36946e-56
1.60608e-54
9.98137e-53
3.97235e-50
2.3981e-48
1.56962e-47
4.89647e-47
8.3443e-47
7.59307e-47
2.5988e-47
1.34417e-47
2.31219e-46
5.99263e-45
1.12817e-43
1.12622e-41
1.42309e-39
7.63582e-37
1.97636e-31
6.34196e-29
2.4135e-27
4.29097e-26
4.79548e-25
-2.4701e-92
-4.42628e-94
1.90434e-92
1.71871e-89
2.78475e-88
5.41384e-87
5.39013e-85
4.52049e-83
3.33598e-81
2.26356e-79
1.4239e-77
7.53991e-76
3.222e-74
1.39884e-72
9.55424e-71
7.72697e-69
3.51996e-67
8.13517e-66
1.19375e-64
1.74912e-63
4.36705e-62
1.30489e-60
2.10596e-59
2.79909e-58
1.21764e-55
2.13498e-53
1.61412e-52
6.00471e-52
9.81054e-52
7.78272e-52
1.51597e-52
3.34971e-53
2.56457e-51
2.71267e-49
6.34982e-48
7.51249e-47
8.08098e-45
6.5036e-43
6.42631e-41
2.09933e-38
3.43705e-33
4.18093e-30
1.9712e-28
3.98157e-27
4.84206e-26
-3.25766e-93
-1.43738e-94
2.29673e-93
2.57226e-90
2.72126e-89
2.06453e-89
1.93685e-87
1.68412e-85
1.31033e-83
9.08008e-82
5.39168e-80
2.74631e-78
1.42472e-76
1.17109e-74
1.03209e-72
4.04042e-71
7.79089e-70
1.17093e-68
2.55845e-67
1.02094e-65
2.66077e-64
3.47518e-63
6.59194e-62
2.80817e-59
1.03345e-57
7.73665e-57
1.86279e-56
2.21097e-56
1.23694e-56
2.14346e-57
8.24516e-57
1.08196e-54
4.46245e-53
1.04044e-51
7.24523e-50
4.1113e-48
4.82806e-47
1.64765e-44
8.40023e-42
2.49603e-39
1.15468e-35
2.10694e-31
1.33469e-29
3.18899e-28
4.29158e-27
-6.61321e-96
-8.66621e-95
-2.05874e-94
-7.49223e-96
-1.56381e-97
3.45747e-92
3.66834e-90
3.3617e-88
2.59809e-86
1.76848e-84
1.1569e-82
8.05048e-81
7.32964e-79
5.32047e-77
1.82811e-75
3.77216e-74
7.27945e-73
2.14643e-71
9.54903e-70
2.52716e-68
3.63327e-67
1.34504e-65
3.32757e-63
7.14501e-62
3.20564e-61
5.06373e-61
3.58307e-61
3.07309e-62
1.52771e-62
2.53576e-60
2.15208e-58
4.33205e-57
4.33928e-56
4.30382e-55
7.86384e-54
2.70757e-51
1.06685e-48
3.8817e-46
1.29333e-43
3.60431e-41
6.42908e-38
7.21069e-33
7.08897e-31
2.11394e-29
3.22747e-28
-8.26936e-97
-1.20234e-95
-3.29613e-95
-1.04953e-96
-2.15352e-98
3.21416e-95
3.18352e-93
2.53231e-91
2.69237e-89
2.40358e-87
1.53687e-85
1.61508e-83
9.95522e-82
3.39054e-80
8.56459e-79
2.14864e-77
8.06398e-76
4.60455e-74
1.40471e-72
2.06493e-71
4.276e-70
9.16355e-68
2.72029e-66
1.42966e-65
2.40061e-65
1.80616e-65
1.25237e-66
1.74468e-65
1.25679e-63
7.5547e-63
1.4711e-62
1.72531e-62
2.02622e-62
8.76778e-61
5.01856e-58
2.7421e-55
1.45769e-52
7.65397e-50
3.84839e-47
1.65062e-44
9.52082e-40
1.33916e-34
2.76712e-32
1.09624e-30
1.95269e-29
-1.04085e-99
-2.13563e-98
-7.92079e-98
-1.98207e-99
-3.21594e-101
3.17432e-99
1.37673e-96
1.06392e-94
5.35326e-93
9.59358e-91
1.34293e-88
5.69687e-87
1.36033e-85
4.79406e-84
2.35756e-82
1.35477e-80
8.81278e-79
2.8701e-77
4.50013e-76
7.39745e-75
1.2302e-72
5.42218e-71
3.80424e-70
7.29674e-70
6.0683e-70
3.79111e-71
9.67241e-70
1.63923e-68
5.47198e-68
5.38649e-68
1.71231e-66
2.86526e-65
5.23183e-65
1.01533e-62
5.26625e-60
2.72764e-57
1.45201e-54
7.98823e-52
4.5594e-49
3.22338e-46
3.03051e-43
3.73933e-37
7.36599e-34
4.1901e-32
8.98859e-31
-1.77327e-106
-3.68507e-105
-8.70799e-105
-1.09825e-105
3.61463e-106
1.7701e-102
1.19447e-100
4.24125e-99
1.20398e-97
7.92106e-96
1.71738e-93
1.35259e-91
1.10314e-89
6.0661e-88
4.09256e-86
3.62004e-84
1.29175e-82
2.19022e-81
4.06957e-80
7.61398e-78
4.63827e-76
4.02991e-75
8.41694e-75
7.29522e-75
3.77947e-76
1.34391e-79
1.15708e-85
5.09251e-79
4.54813e-73
8.11915e-71
9.44693e-70
1.34062e-69
1.59259e-67
9.69635e-65
5.98453e-62
3.7979e-59
2.53288e-56
1.79332e-53
1.35408e-50
1.10184e-47
1.08415e-44
3.68931e-41
1.11938e-35
1.06966e-33
2.9841e-32
-2.98013e-107
-5.16649e-106
-1.35778e-105
-5.75138e-106
-4.28315e-108
7.82564e-108
6.24883e-106
7.80424e-104
6.18285e-102
5.9259e-100
4.1522e-98
3.76086e-96
2.93844e-94
1.86472e-92
1.10581e-90
4.00674e-89
1.21445e-87
5.69972e-86
7.5865e-84
6.85057e-82
9.51722e-81
2.65015e-80
2.64862e-80
1.26718e-81
2.77781e-85
1.65958e-91
1.27094e-95
7.25635e-90
1.26469e-86
2.01737e-83
2.77671e-80
3.91099e-77
5.15377e-74
6.35364e-71
8.08466e-68
1.01716e-64
1.27955e-61
1.64286e-58
2.20236e-55
3.17582e-52
5.06861e-49
1.11687e-44
5.79805e-38
1.4618e-35
7.0905e-34
-1.501e-111
-1.67688e-110
-8.07588e-110
-2.00167e-109
0
6.72946e-114
1.30909e-111
1.04199e-109
8.24367e-108
8.54672e-106
7.53178e-104
1.03457e-101
8.42278e-100
3.37727e-98
1.63227e-96
1.23978e-94
8.00145e-93
1.20696e-90
1.00125e-88
9.11858e-88
1.59602e-87
1.20253e-88
1.21032e-91
1.46835e-97
6.21965e-105
4.12263e-99
1.19167e-95
2.08358e-92
4.51371e-89
8.7409e-86
1.53831e-82
2.49072e-79
3.74158e-76
5.28526e-73
7.10564e-70
9.24773e-67
1.16835e-63
1.4333e-60
1.74565e-57
2.39081e-54
3.86535e-51
7.55115e-48
6.70844e-44
6.04568e-38
1.84501e-35
-5.09815e-117
-3.30992e-116
-1.17008e-115
-2.12659e-115
5.4487e-142
6.28932e-142
3.13547e-135
7.36214e-133
4.23014e-127
5.21526e-120
1.6666e-112
2.66466e-110
5.86481e-108
7.57671e-106
4.0557e-104
3.98208e-102
1.3689e-99
4.91083e-98
1.78238e-97
5.29249e-99
-9.17312e-114
-9.25441e-132
3.37421e-124
2.56332e-119
5.83114e-105
1.74312e-101
6.66446e-98
2.15399e-94
6.02275e-91
1.49016e-87
3.25514e-84
6.35632e-81
1.09116e-77
1.61829e-74
2.14069e-71
2.74021e-68
3.31616e-65
3.62963e-62
4.38422e-59
5.31321e-56
6.44525e-53
1.03869e-49
2.18638e-45
1.77975e-39
4.07129e-37
-1.15087e-123
-1.92483e-123
-2.53833e-123
-1.3512e-123
-1.90401e-145
1.25592e-145
3.26172e-135
7.76664e-133
3.0462e-132
1.08404e-132
4.41795e-136
2.40998e-139
1.2501e-142
0
-9.3608e-142
-4.57372e-144
1.29173e-116
2.37059e-123
-5.99486e-139
-3.54321e-122
-8.08023e-125
5.81883e-127
4.94733e-124
5.89182e-120
5.8706e-116
1.33302e-109
7.52715e-106
2.59341e-102
1.21508e-98
4.96487e-95
1.79813e-91
5.82346e-88
1.69305e-84
4.53246e-81
9.50306e-78
2.05861e-74
5.21047e-71
1.29795e-67
3.23404e-64
8.21966e-61
2.18683e-57
6.34279e-54
1.92315e-48
4.73787e-42
2.00913e-39
-6.78002e-135
-4.37593e-135
-6.68879e-135
-7.90712e-135
1.75419e-147
2.4246e-147
1.74398e-147
1.52003e-141
2.67482e-135
1.19499e-132
4.57108e-132
3.22112e-134
7.22396e-142
1.89153e-147
-1.48317e-141
1.10868e-126
3.36465e-124
4.65801e-123
-1.08291e-122
-3.67923e-122
5.9211e-124
6.00076e-122
6.52129e-124
2.67887e-128
3.43601e-126
5.64705e-122
1.33548e-116
2.19768e-112
5.37347e-108
2.63597e-103
1.25608e-98
3.90631e-97
3.37102e-104
0
-1.10905e-98
-1.5702e-94
-1.47294e-90
-1.18749e-86
-8.58529e-83
-6.28223e-79
-4.56803e-75
-3.50521e-71
4.80406e-57
7.61111e-49
6.78841e-43
1.30367e-150
4.05624e-151
1.0635e-150
4.50414e-150
2.42626e-149
1.66564e-148
2.21409e-147
3.7092e-147
3.79424e-141
1.49268e-136
3.37046e-133
3.4857e-136
-3.3482e-145
1.82723e-147
-1.21696e-141
5.82334e-129
1.92975e-125
4.36924e-124
4.45237e-126
1.83727e-149
1.00158e-123
5.21981e-122
1.70824e-124
8.19503e-131
3.88891e-147
2.44544e-147
8.31954e-156
0
1.39681e-112
4.00325e-104
9.37498e-99
1.6314e-97
6.90046e-100
1.35567e-129
-5.65989e-114
1.68158e-109
2.54541e-105
6.02054e-103
2.17918e-97
4.72543e-93
-4.71341e-93
-2.74539e-91
-3.05987e-87
-5.11887e-82
-4.20358e-84
)
;

boundaryField
{
    leftWall
    {
        type            zeroGradient;
    }
    rightWall
    {
        type            zeroGradient;
    }
    lowerWall
    {
        type            zeroGradient;
    }
    atmosphere
    {
        type            inletOutlet;
        inletValue      uniform 0;
        value           uniform 0;
    }
    defaultFaces
    {
        type            empty;
    }
    procBoundary2to0
    {
        type            processor;
        value           nonuniform List<scalar> 
46
(
-3.90599e-16
-1.0456e-15
-3.00984e-15
-9.16537e-15
-2.86577e-14
-8.92312e-14
-2.70127e-13
-7.81792e-13
-2.13626e-12
-5.45435e-12
-1.29045e-11
-2.81401e-11
-5.64366e-11
-1.04155e-10
-1.77288e-10
-2.79264e-10
-4.08603e-10
-5.57029e-10
-7.06285e-10
-8.12098e-10
-7.30053e-10
-8.35183e-13
-1.51421e-11
5.10842e-10
2.50304e-09
-3.68947e-25
-1.59114e-24
-7.99349e-24
-2.98745e-23
-9.52069e-23
-2.7459e-22
-7.30966e-22
-1.82014e-21
-4.32198e-21
-1.00301e-20
-2.32263e-20
-5.42421e-20
-1.27795e-19
-3.02071e-19
-7.11988e-19
-1.66708e-18
-3.87472e-18
-8.95932e-18
-2.07203e-17
-4.84019e-17
-4.84019e-17
)
;
    }
    procBoundary2to3
    {
        type            processor;
        value           nonuniform List<scalar> 
43
(
1.94119e-10
-4.29049e-12
-1.73017e-10
-1.74958e-10
-1.08453e-10
-5.89243e-11
-2.99103e-11
-1.44967e-11
-6.80352e-12
-3.13371e-12
-1.43751e-12
-6.67104e-13
-3.17424e-13
-1.54826e-13
-7.3937e-14
-2.82089e-14
-6.3773e-16
1.1313e-14
1.19025e-14
1.12313e-14
7.91719e-15
3.4018e-15
7.72878e-16
8.40266e-17
4.32185e-18
1.37874e-19
1.32593e-20
2.14114e-21
2.94211e-22
3.70442e-23
4.35769e-24
4.58585e-25
4.21515e-26
3.28619e-27
2.07679e-28
1.01908e-29
3.94364e-31
1.60276e-32
9.57947e-34
1.27214e-35
7.62269e-38
8.74642e-41
5.10499e-56
)
;
    }
}


// ************************************************************************* //
