/*--------------------------------*- C++ -*----------------------------------*\
| =========                 |                                                 |
| \\      /  F ield         | OpenFOAM: The Open Source CFD Toolbox           |
|  \\    /   O peration     | Version:  5.0                                   |
|   \\  /    A nd           | Web:      www.OpenFOAM.org                      |
|    \\/     M anipulation  |                                                 |
\*---------------------------------------------------------------------------*/
FoamFile
{
    version     2.0;
    format      ascii;
    class       volScalarField;
    location    "1";
    object      epsilon;
}
// * * * * * * * * * * * * * * * * * * * * * * * * * * * * * * * * * * * * * //

dimensions      [0 2 -3 0 0 0 0];

internalField   nonuniform List<scalar> 
1915
(
0.105641
0.111656
0.118429
0.126075
0.134737
0.1446
0.155908
0.168989
0.184286
0.202396
0.224115
0.250491
0.282869
0.322911
0.372561
0.433913
0.508917
0.598926
0.704144
0.823167
0.952878
1.08882
1.22601
1.35986
1.48711
0.201166
0.100656
0.0809012
0.073469
0.0700561
0.0685077
0.0680176
0.0682175
0.0689182
0.0700165
0.0714553
0.0732051
0.0752544
0.0776042
0.0802657
0.0832582
0.0866079
0.090348
0.0945185
0.0991664
0.104347
0.110125
0.116578
0.123799
0.131907
0.141049
0.151419
0.16327
0.176938
0.192864
0.211625
0.233965
0.26082
0.293326
0.332802
0.380668
0.438285
0.506702
0.586334
0.676659
0.776066
0.881964
0.991166
1.10045
1.20715
0.200574
0.0998138
0.0799437
0.0724399
0.0689816
0.0674066
0.0669048
0.067105
0.0678162
0.0689332
0.070397
0.072176
0.0742565
0.0766366
0.0793239
0.0823337
0.0856875
0.0894128
0.0935431
0.0981176
0.103183
0.108793
0.115012
0.121919
0.129607
0.138198
0.147843
0.158738
0.171138
0.185369
0.201852
0.221116
0.243814
0.270728
0.302752
0.340848
0.385952
0.438833
0.499911
0.569075
0.645564
0.727975
0.814435
0.902895
0.991457
0.199636
0.0988852
0.0789519
0.0713977
0.067904
0.0663067
0.0657938
0.0659925
0.0667104
0.0678411
0.0693243
0.0711271
0.0732337
0.0756404
0.0783524
0.0813818
0.0847465
0.0884699
0.0925802
0.0971109
0.102101
0.107597
0.113652
0.12033
0.127709
0.135886
0.144981
0.155145
0.166571
0.179503
0.194247
0.211181
0.230766
0.253543
0.280123
0.311161
0.347302
0.3891
0.436919
0.490826
0.550517
0.615299
0.684163
0.755926
0.829407
0.198397
0.097879
0.0779332
0.070349
0.0668295
0.065214
0.0646905
0.0648859
0.0656068
0.0667462
0.0682431
0.0700634
0.0721904
0.074619
0.0773525
0.0804008
0.0837794
0.0875084
0.0916123
0.09612
0.101065
0.106487
0.11243
0.118949
0.126107
0.133982
0.142668
0.152284
0.162976
0.174925
0.188358
0.203545
0.220814
0.240543
0.263156
0.289105
0.318839
0.352761
0.391171
0.434208
0.481808
0.533686
0.589365
0.648247
0.709699
0.196903
0.0968053
0.0768939
0.0692992
0.0657632
0.0641336
0.0636002
0.0637903
0.0645108
0.0656541
0.0671588
0.0689906
0.0711318
0.0735764
0.0763267
0.0793913
0.0827836
0.0865216
0.0906272
0.0951258
0.100047
0.105424
0.111297
0.117709
0.124715
0.132376
0.140769
0.149985
0.160136
0.171358
0.183818
0.197713
0.213277
0.230778
0.250513
0.272803
0.297965
0.326301
0.358055
0.393392
0.432371
0.474934
0.520921
0.570103
0.622225
0.195195
0.0956756
0.07584
0.0682528
0.0647092
0.0630692
0.0625267
0.0627101
0.0634269
0.0645695
0.0660767
0.0679136
0.0700626
0.072517
0.0752786
0.0783549
0.0817584
0.0855056
0.0896165
0.0941142
0.0990252
0.10438
0.110211
0.116558
0.123465
0.130983
0.139174
0.148108
0.157874
0.168572
0.180328
0.193285
0.207613
0.223505
0.241174
0.260848
0.282764
0.307148
0.334205
0.364105
0.396965
0.432854
0.471791
0.51377
0.558774
0.193317
0.0945027
0.0747771
0.0672127
0.0636695
0.0620232
0.0614726
0.0616483
0.0623586
0.0634965
0.0650008
0.0668371
0.0689875
0.0714453
0.0742117
0.0772941
0.0807046
0.0844586
0.0885749
0.0930754
0.0979845
0.103329
0.10914
0.115451
0.1223
0.12973
0.13779
0.146538
0.156041
0.166378
0.177641
0.189938
0.203393
0.218146
0.234353
0.252182
0.271812
0.29342
0.317179
0.343253
0.371788
0.402915
0.436752
0.473417
0.513037
0.191322
0.0932959
0.0737095
0.0661839
0.0626502
0.0610023
0.0604454
0.0606129
0.0613141
0.062443
0.063939
0.0657679
0.0679122
0.0703655
0.0731297
0.0762118
0.0796235
0.0833799
0.0874992
0.0920025
0.096913
0.102256
0.108061
0.114356
0.121176
0.128558
0.136543
0.145177
0.154515
0.164618
0.175554
0.187407
0.200267
0.214239
0.229439
0.245995
0.264043
0.283726
0.305194
0.328597
0.354091
0.381834
0.411994
0.444753
0.48031
0.189388
0.0920858
0.0726559
0.0651796
0.0616615
0.0600152
0.0594528
0.059611
0.0603007
0.061417
0.0628999
0.0647156
0.0668472
0.0692886
0.0720419
0.0751146
0.0785188
0.0822702
0.0863873
0.0908904
0.0958018
0.101146
0.106951
0.113243
0.120055
0.127418
0.135368
0.143945
0.153192
0.163157
0.173896
0.185471
0.197951
0.211414
0.225951
0.241657
0.258642
0.277022
0.296926
0.318491
0.341869
0.367226
0.394746
0.424635
0.457125
0.187678
0.0909061
0.0716278
0.0642059
0.0607075
0.059065
0.0584977
0.0586457
0.0593217
0.0604218
0.061887
0.0636841
0.0657966
0.0682192
0.0709541
0.0740096
0.0773982
0.0811359
0.0852416
0.0897364
0.0946438
0.099988
0.105794
0.11209
0.118904
0.126267
0.134211
0.14277
0.15198
0.161883
0.172521
0.183944
0.196205
0.209366
0.223495
0.238668
0.254973
0.272505
0.291375
0.311706
0.333638
0.357331
0.382967
0.410754
0.440923
0.186122
0.0897769
0.0706366
0.063269
0.0597922
0.0581549
0.057583
0.0577197
0.0583799
0.0594607
0.0609038
0.062677
0.0647643
0.0671611
0.0698701
0.0729002
0.0762647
0.07998
0.0840659
0.0885441
0.0934383
0.0987738
0.104577
0.110876
0.117697
0.12507
0.133024
0.14159
0.150802
0.160694
0.171302
0.182665
0.194827
0.207837
0.221748
0.23662
0.252525
0.269542
0.287764
0.307298
0.32827
0.350826
0.375133
0.401384
0.429794
0.184704
0.0887118
0.0696898
0.0623738
0.0589192
0.0572877
0.0567113
0.0568358
0.057478
0.0585364
0.0599534
0.0616976
0.0637538
0.0661179
0.0687934
0.0717897
0.0751209
0.0788044
0.0828606
0.0873122
0.0921837
0.0975015
0.103293
0.109585
0.116409
0.123792
0.131763
0.140351
0.149587
0.159501
0.170125
0.181493
0.19364
0.206606
0.220434
0.235174
0.250881
0.267621
0.285473
0.304526
0.324889
0.346689
0.370073
0.395209
0.422286
0.183333
0.0876961
0.0687869
0.0615223
0.058091
0.0564663
0.0558852
0.0559966
0.0566189
0.0576518
0.0590388
0.0607492
0.0627684
0.065093
0.0677272
0.0706812
0.0739697
0.077611
0.0816265
0.08604
0.0908771
0.0961652
0.101933
0.108209
0.115024
0.122408
0.13039
0.139001
0.148269
0.158221
0.168888
0.180299
0.192485
0.205479
0.219316
0.234036
0.249685
0.266316
0.283992
0.302788
0.322793
0.344112
0.366869
0.391203
0.41727
0.181926
0.0867109
0.0679252
0.0607161
0.0573103
0.0556933
0.0551075
0.0552047
0.0558052
0.0568098
0.058163
0.0598348
0.0618113
0.0640897
0.0666749
0.0695777
0.0728137
0.076402
0.080365
0.0847275
0.0895164
0.0947604
0.100489
0.106734
0.113526
0.120897
0.128878
0.137499
0.146791
0.156782
0.1675
0.178971
0.191222
0.204283
0.218183
0.232954
0.248634
0.265264
0.282894
0.301583
0.321402
0.342434
0.364775
0.388537
0.41384
0.180488
0.0857569
0.0671069
0.0599582
0.0565804
0.054972
0.0543814
0.0544634
0.05504
0.0560135
0.0573291
0.0589577
0.0608859
0.0631114
0.0656399
0.0684827
0.0716561
0.0751801
0.0790778
0.0833753
0.0881007
0.093284
0.0989568
0.105151
0.111901
0.119239
0.127198
0.135811
0.145108
0.155121
0.165877
0.177403
0.189724
0.202864
0.216848
0.231704
0.247461
0.264151
0.281812
0.300488
0.320231
0.341104
0.363177
0.386532
0.411257
0.179045
0.0848419
0.0663376
0.0592534
0.0559053
0.0543062
0.0537103
0.0537759
0.0543266
0.0552661
0.0565405
0.0581212
0.0599956
0.0621618
0.0646259
0.0673999
0.0705005
0.0739485
0.0777679
0.0819855
0.0866308
0.091735
0.0973312
0.103454
0.110137
0.117417
0.125328
0.133905
0.143181
0.153187
0.163954
0.175509
0.187879
0.201085
0.215149
0.230091
0.245936
0.262707
0.280431
0.299139
0.318867
0.339657
0.361555
0.384616
0.408896
0.177621
0.0839756
0.0656237
0.0586068
0.0552897
0.0536999
0.0530982
0.0531459
0.0536687
0.0545713
0.0558009
0.0573294
0.0591445
0.061245
0.0636373
0.0663336
0.0693513
0.0727115
0.076439
0.0805614
0.085109
0.0901145
0.095612
0.101638
0.108228
0.11542
0.123251
0.131758
0.140976
0.150938
0.161677
0.173222
0.185599
0.198832
0.212943
0.227947
0.24386
0.260699
0.278482
0.297228
0.316959
0.337697
0.359469
0.382304
0.406231
0.176244
0.0831683
0.0649724
0.0580243
0.0547385
0.0531578
0.0525493
0.0525775
0.0530702
0.0539332
0.0551144
0.0565863
0.0583371
0.0603658
0.0626788
0.065289
0.0682137
0.0714746
0.0750966
0.0791082
0.0835403
0.0884264
0.093802
0.0997043
0.106172
0.113243
0.120958
0.129355
0.138471
0.148344
0.159006
0.170488
0.182819
0.196023
0.210121
0.225132
0.241067
0.257933
0.275739
0.294496
0.314211
0.334892
0.356548
0.379186
0.402812
0.17494
0.0824308
0.0643912
0.0575119
0.0542572
0.0526849
0.0520684
0.0520755
0.0525359
0.0533565
0.0544859
0.0558971
0.0575786
0.0595295
0.0617565
0.0642722
0.0670944
0.0702445
0.0737479
0.0776332
0.0819318
0.0866778
0.0919076
0.0976593
0.103973
0.110888
0.118447
0.12669
0.135657
0.145386
0.155914
0.167272
0.179491
0.192597
0.206612
0.221552
0.237431
0.254256
0.272024
0.290734
0.310385
0.330972
0.352488
0.374923
0.398262
0.173741
0.0817752
0.0638885
0.0570767
0.053852
0.0522869
0.0516609
0.0516451
0.052071
0.0528465
0.0539208
0.0552675
0.0568751
0.0587427
0.060877
0.0632907
0.066001
0.0690297
0.0724018
0.0761459
0.0802936
0.0848792
0.0899394
0.0955133
0.101641
0.108365
0.115727
0.123771
0.132536
0.142065
0.152394
0.163559
0.175592
0.188521
0.202367
0.217149
0.232878
0.249563
0.267204
0.285788
0.305301
0.325728
0.347051
0.369245
0.392282
0.172681
0.0812151
0.063474
0.0567266
0.0535299
0.0519703
0.0513333
0.0512927
0.0516818
0.0524096
0.0534259
0.0547043
0.0562336
0.0580129
0.0600486
0.062353
0.0649432
0.0678403
0.0710693
0.0746582
0.0786385
0.0830443
0.0879123
0.0932817
0.0991934
0.10569
0.112815
0.120611
0.129123
0.138391
0.148457
0.159357
0.171124
0.183789
0.197374
0.211899
0.227377
0.243813
0.261209
0.279557
0.298837
0.319016
0.340067
0.361957
0.384645
0.171798
0.0807665
0.0631587
0.0564709
0.0532995
0.0517433
0.0510932
0.0510258
0.0513759
0.0520535
0.0530088
0.0542156
0.0556628
0.0573491
0.0592807
0.0614695
0.0639319
0.0666885
0.0697636
0.0731847
0.0769825
0.0811905
0.0858452
0.0909853
0.0966517
0.102887
0.109735
0.11724
0.125446
0.134396
0.144132
0.154693
0.166113
0.178425
0.191653
0.205819
0.220934
0.237008
0.254039
0.272019
0.290935
0.310759
0.33144
0.352939
0.375208
0.17114
0.0804489
0.0629565
0.0563212
0.0531711
0.0516157
0.0509501
0.0508538
0.0511626
0.0517875
0.052679
0.0538112
0.0551726
0.0567619
0.0585846
0.0606521
0.0629801
0.0655884
0.0685003
0.0717423
0.0753443
0.0793387
0.0837612
0.0886496
0.0940441
0.099987
0.106522
0.113693
0.121544
0.13012
0.139464
0.149614
0.160609
0.17248
0.185256
0.198957
0.2136
0.229192
0.245735
0.263221
0.281635
0.300953
0.321145
0.34215
0.363908
0.170766
0.0802862
0.0628846
0.056292
0.0531581
0.0515998
0.0509161
0.0507882
0.0510534
0.051623
0.0524481
0.0535027
0.0547752
0.0562637
0.0579734
0.0599148
0.0621028
0.0645561
0.0672969
0.0703505
0.0737454
0.0775128
0.0816869
0.0863043
0.0914041
0.0970273
0.103217
0.110016
0.11747
0.125621
0.134514
0.144188
0.154682
0.16603
0.178262
0.1914
0.205462
0.220458
0.236391
0.253255
0.271037
0.289714
0.309258
0.329629
0.350769
0.170748
0.080309
0.062965
0.0564022
0.0532774
0.0517117
0.0510063
0.0508439
0.0510625
0.0515742
0.0523301
0.0533042
0.0544846
0.0558692
0.0574623
0.0592736
0.0613171
0.0636101
0.0661735
0.0690312
0.0722101
0.0757396
0.0796523
0.083983
0.0887692
0.0940503
0.0998675
0.106263
0.113281
0.120964
0.129356
0.138496
0.148423
0.159174
0.170778
0.18326
0.196641
0.210933
0.226141
0.242263
0.259287
0.277196
0.29596
0.315546
0.335907
0.171182
0.0805571
0.0632268
0.0566764
0.0535514
0.051972
0.0512402
0.0510394
0.051208
0.0516584
0.052342
0.0532326
0.0543181
0.0555958
0.0570692
0.0587472
0.0606424
0.0627711
0.0651526
0.0678089
0.0707651
0.0740489
0.0776905
0.0817228
0.086181
0.0911025
0.0965265
0.102494
0.109046
0.116225
0.124073
0.13263
0.141936
0.152025
0.162929
0.174677
0.187289
0.200781
0.215161
0.23043
0.246583
0.263603
0.281469
0.300151
0.31961
0.172188
0.0810825
0.0637083
0.0571472
0.0540091
0.0524077
0.0516431
0.0513983
0.0515123
0.0518973
0.0525047
0.0533084
0.0542959
0.0554636
0.0568147
0.0583567
0.0601011
0.0620626
0.0642589
0.0667103
0.0694398
0.0724727
0.075837
0.0795632
0.0836838
0.0882339
0.09325
0.0987707
0.104835
0.111484
0.118757
0.126694
0.135334
0.144711
0.154858
0.165805
0.177575
0.190186
0.20365
0.217973
0.233154
0.249183
0.266045
0.283718
0.30217
0.173925
0.0819542
0.0644604
0.0578578
0.0546893
0.0530537
0.052247
0.0519508
0.0520034
0.0523172
0.0528436
0.0535561
0.0544418
0.0554966
0.0567226
0.0581263
0.059718
0.0615107
0.0635203
0.0657651
0.0682658
0.0710455
0.0741297
0.077546
0.0813243
0.0854965
0.0900965
0.0951599
0.100724
0.106825
0.113503
0.120794
0.128737
0.137366
0.146714
0.156811
0.167682
0.17935
0.191829
0.20513
0.219258
0.23421
0.24998
0.266554
0.283911
0.176602
0.0832639
0.0655515
0.0588658
0.0556425
0.0539557
0.0530933
0.0527343
0.0527161
0.0529506
0.053389
0.0540046
0.0547839
0.0557221
0.0568203
0.0580838
0.0595214
0.0611445
0.062967
0.0650052
0.0672775
0.0698045
0.0726087
0.0757151
0.0791506
0.0829439
0.0871257
0.0917286
0.0967861
0.102333
0.108405
0.115038
0.122267
0.130126
0.138649
0.147864
0.1578
0.16848
0.179924
0.192148
0.205162
0.218973
0.233581
0.248985
0.265177
0.180491
0.0851341
0.0670726
0.0602476
0.0569352
0.055172
0.054234
0.0537956
0.0536925
0.053836
0.0541769
0.0546878
0.0553547
0.0561718
0.0571391
0.0582605
0.0595431
0.0609966
0.062633
0.0644661
0.0665121
0.0687889
0.0713163
0.0741164
0.0772127
0.0806308
0.0843982
0.0885437
0.0930978
0.0980921
0.103559
0.109532
0.116043
0.123126
0.130812
0.139131
0.148112
0.157781
0.168162
0.179274
0.191135
0.203759
0.217158
0.23134
0.246312
0.185955
0.0877294
0.0691457
0.0621038
0.0586532
0.056777
0.0557337
0.0551913
0.0549829
0.0550187
0.0552486
0.0556445
0.0561911
0.0568815
0.0577142
0.0586915
0.0598187
0.0611033
0.0625553
0.0641863
0.0660098
0.0680411
0.0702974
0.0727975
0.0755618
0.0786128
0.0819743
0.0856718
0.0897321
0.0941834
0.0990548
0.104376
0.110179
0.116492
0.123346
0.130772
0.138797
0.147451
0.156758
0.166744
0.177433
0.188847
0.201007
0.213934
0.227649
0.19348
0.0912721
0.0719344
0.0645669
0.0609067
0.058863
0.0576705
0.0569881
0.0566452
0.0565501
0.0566509
0.0569179
0.0573343
0.0578912
0.0585851
0.0594163
0.0603878
0.0615051
0.0627755
0.0642083
0.0658146
0.0676071
0.0695998
0.0718088
0.0742514
0.0769467
0.0799152
0.0831787
0.0867606
0.0906855
0.094979
0.0996679
0.10478
0.110342
0.116383
0.122932
0.130018
0.137668
0.145912
0.154778
0.164295
0.174493
0.185403
0.197058
0.209492
0.203734
0.0960664
0.075658
0.0678097
0.0638344
0.0615421
0.0601354
0.0592611
0.0587429
0.0584852
0.0584332
0.0585542
0.0588285
0.0592442
0.059795
0.0604783
0.0612946
0.0622467
0.0633394
0.0645794
0.0659751
0.0675366
0.0692752
0.071204
0.0733374
0.0756912
0.0782826
0.0811302
0.0842537
0.0876741
0.0914137
0.0954957
0.0999443
0.104785
0.110043
0.115745
0.12192
0.128595
0.135802
0.14357
0.151933
0.160928
0.170593
0.180972
0.192114
0.217644
0.102534
0.0806126
0.0720551
0.067606
0.0649436
0.063228
0.0620888
0.06134
0.0608791
0.0606453
0.0606004
0.0607195
0.0609863
0.0613902
0.0619251
0.0625878
0.0633782
0.0642983
0.065352
0.0665451
0.0678849
0.0693802
0.0710413
0.0728796
0.0749082
0.0771409
0.0795932
0.0822814
0.0852233
0.0884374
0.0919438
0.0957632
0.0999178
0.104431
0.109327
0.114631
0.120373
0.126581
0.133288
0.14053
0.148348
0.156787
0.1659
0.175748
0.236548
0.111275
0.0871989
0.0775854
0.0724192
0.0692049
0.0670448
0.0655414
0.0644915
0.0637788
0.0633311
0.0631001
0.0630525
0.0631648
0.0634205
0.0638085
0.0643214
0.0649556
0.0657099
0.0665853
0.067585
0.0687137
0.0699777
0.0713846
0.0729434
0.0746641
0.076558
0.0786373
0.0809155
0.083407
0.0861272
0.0890927
0.0923211
0.0958313
0.0996436
0.10378
0.108263
0.113121
0.11838
0.124074
0.13024
0.13692
0.144164
0.15203
0.160588
0.262462
0.123165
0.0959625
0.0847436
0.0784811
0.0744457
0.0716536
0.0696598
0.068227
0.0672122
0.0665215
0.0660895
0.0658694
0.0658272
0.0659384
0.0661852
0.0665558
0.067042
0.0676396
0.0683466
0.0691637
0.0700931
0.0711387
0.072306
0.0736014
0.0750325
0.0766081
0.0783377
0.0802319
0.0823024
0.0845614
0.0870224
0.0897
0.0926098
0.0957691
0.0991966
0.102913
0.106942
0.11131
0.116048
0.121191
0.126781
0.13287
0.139518
0.146796
0.298642
0.139569
0.107645
0.0939066
0.0859508
0.0807082
0.0770444
0.0744193
0.0725268
0.0711728
0.0702258
0.0695928
0.0692075
0.0690216
0.0690003
0.0691186
0.0693591
0.0697097
0.0701626
0.0707135
0.0713604
0.0721035
0.0729448
0.0738876
0.0749363
0.0760964
0.0773744
0.0787775
0.0803139
0.0819925
0.0838231
0.0858162
0.0879834
0.0903375
0.0928924
0.0956637
0.0986691
0.101929
0.105466
0.109309
0.113489
0.118046
0.123028
0.128494
0.134513
0.351297
0.16283
0.12323
0.105363
0.0947896
0.0878335
0.0830434
0.0796771
0.0772927
0.0756063
0.0744268
0.0736226
0.0731018
0.0727997
0.0726705
0.0726818
0.0728113
0.0730431
0.073367
0.0737763
0.0742674
0.0748387
0.0754906
0.0762246
0.0770436
0.0779512
0.0789522
0.0800517
0.0812558
0.0825711
0.084005
0.0855656
0.0872618
0.0891034
0.0911014
0.0932683
0.0956183
0.0981679
0.100936
0.103947
0.107228
0.110813
0.114744
0.119073
0.123863
0.432693
0.196907
0.143662
0.118847
0.104386
0.0952268
0.0891884
0.0851146
0.0823277
0.0804081
0.079087
0.0781881
0.0775941
0.0772254
0.0770278
0.076964
0.0770084
0.0771435
0.0773574
0.0776423
0.0779936
0.0784087
0.0788868
0.0794283
0.0800348
0.0807086
0.0814527
0.0822708
0.0831671
0.0841464
0.0852139
0.0863756
0.0876378
0.089008
0.0904942
0.0921059
0.0938536
0.0957502
0.0978105
0.100053
0.102499
0.105176
0.108117
0.111364
0.114969
0.578096
0.249415
0.168556
0.132271
0.112834
0.101535
0.0946189
0.0902274
0.0873628
0.0854589
0.0841804
0.0833215
0.0827524
0.0823893
0.082177
0.082079
0.0820703
0.0821344
0.0822598
0.0824393
0.0826681
0.0829435
0.0832641
0.0836297
0.084041
0.0844993
0.0850064
0.0855647
0.0861769
0.0868461
0.0875758
0.08837
0.0892331
0.09017
0.0911862
0.0922882
0.0934834
0.0947805
0.09619
0.0977245
0.0993995
0.101234
0.103252
0.105482
0.107962
0.942174
0.330775
0.189393
0.138527
0.115954
0.104536
0.0982216
0.0944991
0.0921982
0.0907262
0.0897626
0.0891244
0.0887027
0.08843
0.0882636
0.0881756
0.0881476
0.0881674
0.0882268
0.0883202
0.0884442
0.0885966
0.0887763
0.0889829
0.0892164
0.0894776
0.0897674
0.090087
0.090438
0.090822
0.0912412
0.0916977
0.092194
0.092733
0.0933178
0.0939522
0.0946404
0.0953875
0.0961995
0.0970837
0.098049
0.0991063
0.100269
0.101554
0.102982
3.12462
0.383334
0.165981
0.122357
0.108246
0.102369
0.0995014
0.0979386
0.0970169
0.0964424
0.0960708
0.0958253
0.0956619
0.0955543
0.095486
0.0954464
0.0954286
0.095428
0.0954415
0.0954669
0.095503
0.0955489
0.0956041
0.0956684
0.0957418
0.0958245
0.0959166
0.0960187
0.0961312
0.0962546
0.0963897
0.096537
0.0966975
0.0968721
0.0970618
0.0972678
0.0974915
0.0977344
0.0979986
0.0982863
0.0986003
0.098944
0.0993216
0.0997381
0.1002
)
;

boundaryField
{
    leftWall
    {
        Cmu             0.09;
        kappa           0.41;
        E               9.8;
        type            epsilonWallFunction;
        value           nonuniform List<scalar> 
42
(
0.201166
0.200574
0.199636
0.198397
0.196903
0.195195
0.193317
0.191322
0.189388
0.187678
0.186122
0.184704
0.183333
0.181926
0.180488
0.179045
0.177621
0.176244
0.17494
0.173741
0.172681
0.171798
0.17114
0.170766
0.170748
0.171182
0.172188
0.173925
0.176602
0.180491
0.185955
0.19348
0.203734
0.217644
0.236548
0.262462
0.298642
0.351297
0.432693
0.578096
0.942174
3.12462
)
;
    }
    rightWall
    {
        Cmu             0.09;
        kappa           0.41;
        E               9.8;
        type            epsilonWallFunction;
        value           nonuniform 0();
    }
    lowerWall
    {
        Cmu             0.09;
        kappa           0.41;
        E               9.8;
        type            epsilonWallFunction;
        value           nonuniform 0();
    }
    atmosphere
    {
        type            inletOutlet;
        inletValue      uniform 0.1;
        value           uniform 0.1;
    }
    defaultFaces
    {
        type            empty;
    }
    procBoundary2to0
    {
        type            processor;
        value           nonuniform List<scalar> 
46
(
0.107125
0.113464
0.120668
0.128874
0.138257
0.149047
0.161552
0.176196
0.193564
0.214461
0.23999
0.27163
0.311314
0.36147
0.424956
0.50481
0.603729
0.723249
0.86285
1.01938
1.18721
1.3593
1.52858
1.68923
1.83799
0.201376
0.101398
0.081815
0.0744772
0.0711209
0.0696039
0.0691263
0.0693239
0.0700105
0.0710854
0.0724939
0.0742094
0.0762236
0.0785415
0.0811788
0.0841597
0.0875171
0.0912913
0.0955308
0.100292
0.100292
)
;
    }
    procBoundary2to3
    {
        type            processor;
        value           nonuniform List<scalar> 
43
(
1.60615
1.30938
1.07859
0.903575
0.773144
0.677052
0.606803
0.555753
0.518885
0.492466
0.473726
0.460597
0.451507
0.445237
0.440814
0.437442
0.434453
0.431276
0.427424
0.422486
0.416124
0.408083
0.398189
0.386358
0.372596
0.356996
0.339802
0.321367
0.302028
0.282146
0.262079
0.242173
0.222745
0.204074
0.186399
0.169917
0.154793
0.141173
0.129194
0.118997
0.110736
0.104579
0.100714
)
;
    }
}


// ************************************************************************* //
