/*--------------------------------*- C++ -*----------------------------------*\
| =========                 |                                                 |
| \\      /  F ield         | OpenFOAM: The Open Source CFD Toolbox           |
|  \\    /   O peration     | Version:  5.0                                   |
|   \\  /    A nd           | Web:      www.OpenFOAM.org                      |
|    \\/     M anipulation  |                                                 |
\*---------------------------------------------------------------------------*/
FoamFile
{
    version     2.0;
    format      ascii;
    class       volScalarField;
    location    "1";
    object      k;
}
// * * * * * * * * * * * * * * * * * * * * * * * * * * * * * * * * * * * * * //

dimensions      [0 2 -2 0 0 0 0];

internalField   nonuniform List<scalar> 
1915
(
0.103288
0.106941
0.110724
0.114653
0.118742
0.123015
0.127503
0.132252
0.137321
0.142795
0.148783
0.155422
0.162879
0.171342
0.181014
0.192083
0.204685
0.218858
0.234495
0.25132
0.268916
0.286786
0.30445
0.321541
0.337865
0.0135796
0.0293078
0.037789
0.0439134
0.0489369
0.0533186
0.0572813
0.0609536
0.0644185
0.0677346
0.0709464
0.0740894
0.077193
0.0802826
0.0833804
0.086506
0.0896767
0.0929081
0.0962137
0.0996058
0.103095
0.106692
0.110407
0.11425
0.118237
0.122384
0.126717
0.131269
0.136087
0.141231
0.146782
0.152836
0.159512
0.166943
0.175272
0.184634
0.19514
0.206843
0.219715
0.233625
0.248342
0.263568
0.278986
0.294321
0.30939
0.0135549
0.029314
0.0377576
0.0438433
0.0488342
0.0531903
0.0571344
0.0607944
0.0642525
0.0675666
0.07078
0.073927
0.0770361
0.0801311
0.0832331
0.0863603
0.0895289
0.0927532
0.0960456
0.0994173
0.102878
0.106437
0.110104
0.113888
0.1178
0.121854
0.126071
0.130475
0.135101
0.139994
0.145211
0.150823
0.156911
0.163572
0.170904
0.179005
0.18796
0.197822
0.208599
0.220241
0.232636
0.245625
0.259025
0.272666
0.286418
0.0135142
0.0292834
0.0376845
0.0437292
0.0486853
0.0530137
0.0569366
0.0605813
0.0640294
0.0673379
0.0705494
0.0736974
0.0768091
0.0799076
0.0830128
0.0861419
0.0893102
0.092531
0.095816
0.0991753
0.102618
0.106153
0.109788
0.11353
0.11739
0.121379
0.125511
0.129807
0.134291
0.138996
0.143963
0.149243
0.154895
0.160985
0.167584
0.174764
0.182587
0.191101
0.200332
0.21027
0.220877
0.232081
0.243799
0.255945
0.268452
0.0134596
0.0292206
0.0375744
0.0435757
0.0484951
0.0527934
0.0566924
0.0603188
0.0637535
0.0670529
0.0702588
0.073404
0.076515
0.0796141
0.0827203
0.0858503
0.0890183
0.0922371
0.0955177
0.0988697
0.102302
0.105821
0.109435
0.113151
0.116977
0.120921
0.124994
0.129212
0.133593
0.138161
0.142946
0.147982
0.153313
0.158986
0.165052
0.171562
0.178566
0.186106
0.194212
0.202899
0.212167
0.222001
0.23238
0.243281
0.25469
0.0133931
0.0291299
0.037432
0.0433876
0.0482683
0.0525343
0.0564068
0.0600119
0.0634299
0.0667165
0.069913
0.0730516
0.0761582
0.0792544
0.0823587
0.0854871
0.0886535
0.09187
0.0951473
0.0984944
0.101919
0.10543
0.109031
0.112731
0.116534
0.120449
0.124484
0.12865
0.13296
0.137431
0.142085
0.146947
0.152047
0.157419
0.163101
0.169131
0.175548
0.182388
0.189684
0.197463
0.205747
0.214553
0.223896
0.233797
0.244278
0.0133167
0.0290153
0.0372615
0.0431693
0.0480095
0.0522412
0.0560849
0.0596658
0.0630638
0.0663342
0.0695175
0.0726455
0.0757437
0.0788332
0.0819321
0.0850559
0.0882183
0.0914309
0.0947041
0.0980468
0.101467
0.104971
0.108565
0.112255
0.116046
0.119943
0.123954
0.128087
0.13235
0.136756
0.141321
0.146062
0.151001
0.156162
0.161573
0.167263
0.173264
0.179608
0.186328
0.193455
0.201022
0.209065
0.217621
0.226733
0.236449
0.0132322
0.0288798
0.0370667
0.0429247
0.0477228
0.0519185
0.0557312
0.0592855
0.0626607
0.0659114
0.0690779
0.0721916
0.0752774
0.0783563
0.0814458
0.0845615
0.0877166
0.0909227
0.09419
0.0975272
0.100942
0.104441
0.10803
0.111715
0.115499
0.119387
0.123386
0.127499
0.131735
0.136102
0.14061
0.145272
0.150103
0.155122
0.160348
0.165805
0.171518
0.177516
0.18383
0.190494
0.197545
0.205027
0.21299
0.221487
0.23058
0.0131425
0.0287262
0.0368506
0.0426579
0.0474132
0.0515718
0.0553521
0.0588778
0.0622274
0.0654554
0.0686015
0.0716968
0.0747659
0.0778298
0.0809059
0.0840095
0.0871537
0.0903501
0.0936086
0.0969382
0.100347
0.10384
0.107425
0.111106
0.114886
0.118771
0.122765
0.126871
0.131094
0.13544
0.139917
0.144533
0.149299
0.154228
0.159335
0.164639
0.170161
0.175926
0.181962
0.188303
0.194988
0.202063
0.209581
0.217602
0.226192
0.0130581
0.028559
0.0366189
0.0423749
0.0470867
0.0512075
0.054954
0.0584492
0.0617712
0.0649737
0.0680963
0.0711697
0.0742184
0.0772631
0.0803212
0.0834079
0.0865365
0.0897187
0.0929649
0.096284
0.0996833
0.10317
0.106749
0.110426
0.114206
0.11809
0.122084
0.12619
0.130411
0.134752
0.139218
0.143813
0.148547
0.153427
0.158467
0.16368
0.169083
0.174699
0.180554
0.186678
0.19311
0.199895
0.207084
0.214738
0.222921
0.012984
0.0283826
0.0363756
0.0420797
0.0467478
0.05083
0.0545418
0.0580052
0.0612976
0.0644723
0.0675687
0.070617
0.0736418
0.0766636
0.0796997
0.0827654
0.0858741
0.0890376
0.0922666
0.0955703
0.098957
0.102434
0.106006
0.109678
0.113456
0.117341
0.121338
0.125449
0.129676
0.134023
0.138492
0.143087
0.147813
0.152678
0.157689
0.162858
0.168199
0.173732
0.179478
0.185466
0.191731
0.198315
0.205266
0.21264
0.220497
0.0129154
0.0282001
0.0361245
0.0417763
0.0464004
0.0504439
0.0541203
0.0575508
0.0608121
0.0639571
0.0670248
0.0700453
0.0730431
0.0760384
0.0790487
0.0820894
0.085174
0.0883147
0.0915222
0.0948062
0.0981754
0.101637
0.105198
0.108864
0.112638
0.116524
0.120525
0.124644
0.128882
0.133241
0.137725
0.142334
0.147072
0.151945
0.156958
0.16212
0.167442
0.172941
0.178634
0.184548
0.190713
0.197165
0.203949
0.211113
0.218712
0.0128517
0.028014
0.0358688
0.0414683
0.0460486
0.0500532
0.053694
0.0570909
0.0603199
0.0634336
0.0664706
0.0694608
0.0724286
0.0753942
0.0783752
0.0813871
0.0844436
0.087557
0.0907387
0.0939986
0.0973459
0.100788
0.104333
0.107987
0.111754
0.115638
0.119643
0.12377
0.128021
0.132399
0.136904
0.141537
0.146302
0.151201
0.156238
0.16142
0.166756
0.172258
0.177942
0.183829
0.189944
0.19632
0.202992
0.210004
0.217402
0.0127891
0.0278254
0.0356108
0.0411586
0.0456958
0.0496619
0.053267
0.0566299
0.059826
0.0629071
0.0659116
0.0688694
0.0718046
0.0747375
0.0776859
0.0806652
0.0836895
0.0867716
0.0899229
0.0931541
0.0964747
0.0998933
0.103418
0.107054
0.110809
0.114687
0.118691
0.122825
0.12709
0.131486
0.136016
0.140681
0.145481
0.150418
0.155495
0.160717
0.166089
0.171623
0.177329
0.183224
0.189329
0.19567
0.202277
0.209184
0.216428
0.0127245
0.0276354
0.0353528
0.0408503
0.0453453
0.0492738
0.0528436
0.0561724
0.0593349
0.0623824
0.0653532
0.0682766
0.0711769
0.0740745
0.076987
0.0799303
0.0829186
0.0859649
0.0890813
0.0922788
0.0955676
0.098957
0.102455
0.10607
0.109807
0.113673
0.117672
0.121806
0.12608
0.130495
0.135051
0.139747
0.144587
0.149569
0.154695
0.159969
0.165395
0.170978
0.176728
0.182658
0.188782
0.19512
0.201696
0.208536
0.215668
0.0126581
0.0274458
0.0350974
0.0405464
0.0450008
0.0488926
0.0524277
0.0557227
0.0588513
0.0618646
0.0648003
0.0676878
0.0705512
0.0734109
0.0762846
0.0791884
0.0821367
0.085143
0.0882198
0.0913785
0.0946301
0.0979844
0.101451
0.105037
0.10875
0.112598
0.116584
0.120714
0.124991
0.129416
0.133993
0.13872
0.143598
0.148626
0.153806
0.159138
0.164624
0.170268
0.176076
0.182056
0.188219
0.194578
0.20115
0.207953
0.215008
0.0125912
0.0272591
0.0348474
0.0402501
0.0446657
0.0485221
0.0520235
0.055285
0.0583797
0.0613582
0.064258
0.0671082
0.0699328
0.0727522
0.0755843
0.0784452
0.0813498
0.0843118
0.0873441
0.0904587
0.0936671
0.09698
0.100407
0.103958
0.10764
0.111461
0.115427
0.119544
0.123815
0.128244
0.132832
0.137581
0.142492
0.147563
0.152793
0.158182
0.16373
0.169439
0.175311
0.18135
0.187563
0.193957
0.200543
0.207332
0.214337
0.012525
0.0270776
0.0346059
0.0399649
0.0443436
0.0481664
0.051635
0.0548636
0.0579247
0.0608682
0.0637312
0.0665428
0.0693269
0.0721038
0.0748916
0.0777065
0.0805636
0.0834769
0.0864597
0.0895246
0.0926837
0.0959482
0.0993289
0.102836
0.106478
0.110263
0.114199
0.118292
0.122547
0.126968
0.131558
0.136318
0.141249
0.14635
0.151622
0.157061
0.162666
0.168436
0.17437
0.180469
0.186735
0.193171
0.199782
0.206573
0.213549
0.0124607
0.026904
0.0343761
0.0396944
0.0440387
0.0478294
0.0512667
0.0544633
0.057491
0.0603993
0.063225
0.065997
0.068739
0.0714713
0.0742121
0.0769778
0.0797836
0.0826438
0.0855721
0.0885815
0.0916847
0.0948935
0.0982195
0.101673
0.105265
0.109004
0.112899
0.116956
0.121181
0.125581
0.130157
0.134913
0.13985
0.144967
0.150264
0.155739
0.161388
0.167208
0.173195
0.179347
0.185663
0.19214
0.198779
0.205578
0.212539
0.0123997
0.0267412
0.0341615
0.0394425
0.043755
0.0475159
0.0509232
0.0540889
0.0570838
0.0599569
0.0627449
0.0654762
0.0681746
0.0708604
0.0735517
0.076265
0.0790157
0.0818183
0.0846869
0.0876349
0.0906753
0.0938208
0.0970834
0.100475
0.104005
0.107686
0.111526
0.115532
0.119714
0.124075
0.128621
0.133355
0.138278
0.143392
0.148694
0.154183
0.159856
0.165708
0.171733
0.177924
0.184278
0.190788
0.19745
0.204258
0.211208
0.0123434
0.0265922
0.0339659
0.0392135
0.0434972
0.0472306
0.0506099
0.0537458
0.0567086
0.0595468
0.0622966
0.0649864
0.0676399
0.0702772
0.0729165
0.0755743
0.0782661
0.0810067
0.0838104
0.0866909
0.0896616
0.0927356
0.0959257
0.099244
0.102702
0.106312
0.110082
0.114023
0.118142
0.122447
0.126943
0.131633
0.136521
0.141607
0.146891
0.15237
0.158041
0.163898
0.169937
0.176147
0.18252
0.189047
0.19572
0.20253
0.209466
0.0122935
0.0264604
0.0337937
0.0390123
0.0432709
0.0469795
0.0503328
0.0534403
0.0563718
0.0591753
0.0618867
0.0645344
0.0671415
0.0697285
0.0723133
0.0749126
0.0775418
0.080216
0.0829495
0.0857563
0.0886502
0.0916447
0.0947529
0.0979877
0.101361
0.104886
0.108572
0.11243
0.116469
0.120697
0.125121
0.129744
0.134572
0.139604
0.144841
0.15028
0.155919
0.161752
0.167772
0.173972
0.180339
0.18686
0.193525
0.200321
0.207234
0.012252
0.0263499
0.03365
0.0388449
0.0430822
0.0467692
0.0500987
0.0531797
0.0560809
0.0588501
0.0615231
0.0641277
0.0666874
0.0692221
0.07175
0.0742877
0.0768507
0.079454
0.0821121
0.0848391
0.0876492
0.090556
0.093573
0.0967135
0.0999904
0.103416
0.107003
0.110761
0.1147
0.11883
0.123158
0.127689
0.132428
0.137378
0.142537
0.147906
0.15348
0.159254
0.165221
0.171373
0.177698
0.184185
0.190815
0.197574
0.204446
0.0122211
0.0262657
0.0335409
0.0387181
0.0429388
0.0466077
0.0499163
0.0529725
0.0558446
0.0585802
0.0612145
0.0637755
0.0662863
0.068767
0.0712356
0.0737086
0.0762017
0.0787297
0.0813073
0.0839487
0.086668
0.089479
0.0923957
0.0954314
0.0985996
0.101913
0.105384
0.109025
0.112845
0.116855
0.121063
0.125476
0.130099
0.134935
0.139984
0.145247
0.15072
0.156399
0.162275
0.168341
0.174585
0.180995
0.187556
0.194249
0.201054
0.0122038
0.0262136
0.0334741
0.0386407
0.0428502
0.0465051
0.0497957
0.0528293
0.0556737
0.0583761
0.0609717
0.0634883
0.0659489
0.0683737
0.0707804
0.0731857
0.0756052
0.0780537
0.0805458
0.0830957
0.0857175
0.0884252
0.0912326
0.0941535
0.0972013
0.100389
0.10373
0.107236
0.110918
0.114787
0.118852
0.12312
0.127598
0.132289
0.137195
0.142317
0.147652
0.153196
0.158942
0.16488
0.171002
0.177292
0.183739
0.190325
0.19703
0.0122035
0.0262013
0.0334592
0.0386234
0.0428279
0.0464735
0.0497496
0.0527628
0.0555809
0.0582507
0.0608074
0.0632787
0.0656877
0.0680543
0.0703967
0.0727311
0.0750733
0.0774379
0.0798396
0.0822925
0.0848105
0.0874076
0.0900975
0.092894
0.0958106
0.0988607
0.102057
0.105413
0.108939
0.112646
0.116545
0.120643
0.124948
0.129464
0.134194
0.13914
0.144299
0.149668
0.155242
0.161011
0.166966
0.173095
0.179382
0.185813
0.192369
0.0122248
0.0262384
0.033508
0.0386798
0.0428864
0.046528
0.0497934
0.0527889
0.055582
0.0582196
0.0607369
0.0631618
0.0655173
0.0678235
0.0700985
0.0723588
0.0746198
0.0768963
0.0792028
0.0815532
0.0839614
0.0864411
0.0890059
0.0916694
0.094445
0.0973461
0.100385
0.103576
0.106929
0.110456
0.114168
0.118073
0.122178
0.12649
0.131013
0.135748
0.140695
0.145851
0.151212
0.156769
0.162515
0.168436
0.174521
0.180752
0.187114
0.0122735
0.026337
0.0336359
0.0388269
0.0430441
0.0466877
0.0499465
0.0529267
0.055696
0.0583016
0.0607787
0.0631554
0.0654551
0.0676981
0.0699024
0.0720848
0.0742606
0.0764447
0.0786512
0.080894
0.0831867
0.0855427
0.0879755
0.0904983
0.0931242
0.0958662
0.0987373
0.10175
0.104916
0.108246
0.111752
0.115442
0.119325
0.123407
0.127693
0.132186
0.136886
0.141792
0.146901
0.152206
0.157699
0.16337
0.169206
0.175194
0.181317
0.012357
0.0265129
0.0338624
0.0390864
0.0433239
0.0469762
0.0502326
0.0532
0.0559463
0.0585192
0.0609545
0.0632807
0.0655215
0.0676977
0.0698276
0.0719278
0.074014
0.0761009
0.0782026
0.0803327
0.0825045
0.0847313
0.0870258
0.0894011
0.0918698
0.0944446
0.0971378
0.0999617
0.102928
0.106048
0.109332
0.11279
0.11643
0.120259
0.124283
0.128505
0.132928
0.137551
0.142371
0.147385
0.152585
0.157963
0.163508
0.169208
0.175047
0.0124847
0.0267862
0.0342123
0.0394857
0.0437546
0.0474228
0.0506813
0.0536376
0.0563609
0.0588996
0.0612904
0.0635625
0.0657404
0.0678452
0.0698957
0.0719089
0.0739005
0.0758852
0.077877
0.0798894
0.0819353
0.0840274
0.0861783
0.0884003
0.0907056
0.0931063
0.0956142
0.0982411
0.100998
0.103897
0.106946
0.110157
0.113538
0.117095
0.120836
0.124764
0.128883
0.133193
0.137693
0.142381
0.147252
0.152298
0.157511
0.162881
0.168394
0.012669
0.0271828
0.0347173
0.0400597
0.0443724
0.0480642
0.0513285
0.0542747
0.0569736
0.059475
0.0618169
0.0640298
0.0661391
0.0681666
0.0701318
0.072052
0.0739432
0.0758201
0.0776967
0.0795861
0.081501
0.0834537
0.0854561
0.08752
0.089657
0.0918783
0.0941953
0.0966189
0.0991599
0.101829
0.104635
0.107588
0.110697
0.113969
0.117409
0.121025
0.124818
0.128792
0.132946
0.137279
0.141788
0.146468
0.151312
0.156313
0.161461
0.0129254
0.0277358
0.0354177
0.0408521
0.0452226
0.0489455
0.0522182
0.0551534
0.0578242
0.0602829
0.0625693
0.0647157
0.0667486
0.0686912
0.0705636
0.0723837
0.0741677
0.0759305
0.077686
0.0794471
0.0812261
0.0830347
0.0848844
0.0867862
0.0887508
0.0907891
0.0929112
0.0951275
0.0974479
0.0998821
0.102439
0.105128
0.107957
0.110933
0.114064
0.117353
0.120806
0.124425
0.128212
0.132167
0.136288
0.140574
0.145018
0.149616
0.154361
0.0132742
0.0284881
0.0363654
0.0419186
0.0463616
0.0501221
0.0534036
0.0563238
0.0589597
0.0613668
0.0635879
0.0656573
0.0676038
0.0694515
0.0712217
0.072933
0.0746019
0.0762435
0.0778715
0.0794985
0.0811365
0.0827967
0.0844899
0.0862262
0.0880158
0.0898684
0.0917935
0.0938004
0.0958982
0.0980956
0.100401
0.102823
0.105368
0.108045
0.110858
0.113814
0.116917
0.120171
0.123577
0.127138
0.130853
0.134721
0.13874
0.142907
0.147218
0.0137419
0.0294955
0.0376269
0.0433296
0.0478599
0.0516616
0.0549483
0.0578446
0.0604336
0.0627755
0.0649171
0.0668957
0.0687422
0.0704826
0.0721393
0.0737314
0.0752761
0.0767884
0.0782818
0.0797688
0.0812607
0.0827682
0.0843013
0.0858696
0.0874821
0.0891477
0.0908749
0.0926721
0.0945473
0.0965084
0.0985628
0.100718
0.10298
0.105357
0.107853
0.110473
0.113224
0.116107
0.119126
0.122284
0.125581
0.129017
0.132594
0.136309
0.140162
0.0143636
0.0308317
0.0392889
0.045175
0.0498048
0.053646
0.0569268
0.0597829
0.0623059
0.0645627
0.0666051
0.0684742
0.0702037
0.0718214
0.0733509
0.074812
0.076222
0.0775961
0.0789474
0.0802881
0.0816288
0.0829795
0.0843496
0.0857476
0.0871817
0.0886599
0.0901897
0.0917783
0.0934328
0.09516
0.0969663
0.0988582
0.100841
0.102922
0.105104
0.107393
0.109793
0.112308
0.114941
0.117694
0.12057
0.123569
0.126694
0.129945
0.133323
0.0151869
0.0325963
0.0414659
0.0475702
0.052305
0.0561732
0.0594253
0.0622135
0.0646411
0.0667843
0.068701
0.0704368
0.0720283
0.0735051
0.0748916
0.0762084
0.0774726
0.078699
0.0799006
0.0810886
0.0822731
0.0834633
0.0846676
0.0858937
0.087149
0.0884401
0.0897738
0.0911562
0.0925933
0.0940908
0.0956542
0.0972888
0.0989994
0.100791
0.102667
0.104633
0.106692
0.108846
0.1111
0.113455
0.115914
0.118478
0.121151
0.123935
0.126831
0.0162801
0.0349286
0.0443136
0.0506654
0.0554948
0.0593579
0.0625394
0.0652148
0.0675043
0.0694949
0.0712518
0.0728251
0.0742539
0.0755692
0.0767958
0.0779541
0.079061
0.0801305
0.0811748
0.0822042
0.0832281
0.0842546
0.0852911
0.0863444
0.0874208
0.0885262
0.0896659
0.0908454
0.0920694
0.0933427
0.0946698
0.0960548
0.0975017
0.0990144
0.100596
0.10225
0.103979
0.105787
0.107674
0.109644
0.111698
0.11384
0.11607
0.118392
0.120809
0.0177473
0.038035
0.0480516
0.0546594
0.0595389
0.0633297
0.0663681
0.0688627
0.070954
0.0727415
0.074297
0.0756741
0.0769132
0.0780454
0.0790949
0.0800812
0.08102
0.0819242
0.0828047
0.0836708
0.0845305
0.085391
0.0862586
0.0871391
0.0880376
0.0889591
0.089908
0.0908885
0.0919047
0.0929601
0.0940584
0.0952028
0.0963963
0.0976418
0.0989417
0.100298
0.101714
0.103191
0.10473
0.106333
0.108002
0.109739
0.111545
0.113423
0.115376
0.0197806
0.0422457
0.0530036
0.059815
0.0646295
0.0682205
0.0709991
0.073215
0.0750302
0.0765539
0.0778617
0.0790074
0.0800301
0.0809591
0.0818163
0.0826191
0.0833813
0.0841138
0.0848261
0.0855258
0.0862196
0.0869134
0.0876123
0.088321
0.0890436
0.0897841
0.0905459
0.0913324
0.0921466
0.0929913
0.0938691
0.0947824
0.0957335
0.0967243
0.0977567
0.098832
0.0999518
0.101117
0.102329
0.103588
0.104896
0.106253
0.10766
0.10912
0.110635
0.0227345
0.0481577
0.0596721
0.066471
0.0709642
0.0741314
0.0764767
0.0782873
0.0797362
0.0809329
0.0819487
0.0828321
0.083617
0.0843277
0.0849823
0.0855946
0.0861755
0.0867336
0.0872762
0.0878091
0.0883375
0.0888659
0.0893981
0.0899378
0.0904879
0.0910514
0.091631
0.0922291
0.0928478
0.0934893
0.0941553
0.0948476
0.0955676
0.0963166
0.0970958
0.097906
0.098748
0.0996224
0.100529
0.101469
0.102443
0.103449
0.104489
0.105564
0.106675
0.0275898
0.0569555
0.0688029
0.0749694
0.0786433
0.0810483
0.0827451
0.0840172
0.0850187
0.0858392
0.0865336
0.0871373
0.0876742
0.0881614
0.088611
0.0890326
0.0894332
0.0898188
0.0901943
0.0905635
0.0909301
0.091297
0.0916668
0.0920421
0.0924248
0.092817
0.0932204
0.0936368
0.0940675
0.0945139
0.0949772
0.0954585
0.0959588
0.0964787
0.0970189
0.0975799
0.098162
0.0987653
0.0993897
0.100035
0.100701
0.101388
0.102094
0.102821
0.103568
0.0382363
0.0711843
0.0812138
0.0853075
0.0874102
0.0886907
0.0895714
0.0902313
0.0907564
0.0911929
0.0915677
0.0918978
0.0921949
0.0924669
0.09272
0.0929588
0.093187
0.0934076
0.0936232
0.0938359
0.0940475
0.0942598
0.0944742
0.094692
0.0949145
0.0951427
0.0953777
0.0956204
0.0958715
0.096132
0.0964023
0.0966832
0.0969751
0.0972784
0.0975934
0.0979203
0.0982591
0.0986097
0.0989721
0.0993458
0.0997305
0.100126
0.100531
0.100946
0.101369
0.0849228
0.094877
0.0957827
0.0960408
0.096223
0.0963854
0.0965333
0.0966672
0.0967883
0.096898
0.096998
0.09709
0.0971755
0.0972556
0.0973316
0.0974043
0.0974747
0.0975433
0.0976109
0.097678
0.0977451
0.0978128
0.0978814
0.0979514
0.0980231
0.0980968
0.0981729
0.0982517
0.0983334
0.0984182
0.0985064
0.0985981
0.0986936
0.0987929
0.098896
0.0990031
0.0991141
0.0992289
0.0993475
0.0994697
0.0995952
0.0997239
0.0998553
0.0999892
0.100125
)
;

boundaryField
{
    leftWall
    {
        type            kqRWallFunction;
        value           nonuniform List<scalar> 
42
(
0.0135796
0.0135549
0.0135142
0.0134596
0.0133931
0.0133167
0.0132322
0.0131425
0.0130581
0.012984
0.0129154
0.0128517
0.0127891
0.0127245
0.0126581
0.0125912
0.012525
0.0124607
0.0123997
0.0123434
0.0122935
0.012252
0.0122211
0.0122038
0.0122035
0.0122248
0.0122735
0.012357
0.0124847
0.012669
0.0129254
0.0132742
0.0137419
0.0143636
0.0151869
0.0162801
0.0177473
0.0197806
0.0227345
0.0275898
0.0382363
0.0849228
)
;
    }
    rightWall
    {
        type            kqRWallFunction;
        value           nonuniform 0();
    }
    lowerWall
    {
        type            kqRWallFunction;
        value           nonuniform 0();
    }
    atmosphere
    {
        type            inletOutlet;
        inletValue      uniform 0.1;
        value           uniform 0.1;
    }
    defaultFaces
    {
        type            empty;
    }
    procBoundary2to0
    {
        type            processor;
        value           nonuniform List<scalar> 
46
(
0.103482
0.107213
0.111092
0.115136
0.119363
0.123803
0.128494
0.133496
0.13889
0.144789
0.151344
0.158745
0.167226
0.177057
0.188518
0.201861
0.217241
0.234634
0.253776
0.274151
0.295067
0.315791
0.335701
0.35438
0.371707
0.0135868
0.0292605
0.0377744
0.0439354
0.0489897
0.0533947
0.0573735
0.0610552
0.0645236
0.0678387
0.0710459
0.0741822
0.0772786
0.0803619
0.083456
0.086582
0.0897589
0.0930037
0.0963316
0.0997558
0.0997558
)
;
    }
    procBoundary2to3
    {
        type            processor;
        value           nonuniform List<scalar> 
43
(
0.353404
0.324111
0.300203
0.281278
0.266604
0.255368
0.246819
0.240333
0.235418
0.231702
0.228902
0.226803
0.225233
0.22405
0.223124
0.222336
0.221572
0.220716
0.219658
0.218293
0.21652
0.214252
0.211415
0.207952
0.20383
0.199032
0.193588
0.187557
0.181012
0.174039
0.166744
0.159244
0.151668
0.144151
0.136829
0.129842
0.123326
0.117408
0.112208
0.107824
0.104336
0.101802
0.100263
)
;
    }
}


// ************************************************************************* //
