/*--------------------------------*- C++ -*----------------------------------*\
| =========                 |                                                 |
| \\      /  F ield         | OpenFOAM: The Open Source CFD Toolbox           |
|  \\    /   O peration     | Version:  5.0                                   |
|   \\  /    A nd           | Web:      www.OpenFOAM.org                      |
|    \\/     M anipulation  |                                                 |
\*---------------------------------------------------------------------------*/
FoamFile
{
    version     2.0;
    format      ascii;
    class       volScalarField;
    location    "1";
    object      nut;
}
// * * * * * * * * * * * * * * * * * * * * * * * * * * * * * * * * * * * * * //

dimensions      [0 2 -1 0 0 0 0];

internalField   nonuniform List<scalar> 
1915
(
0.00908892
0.00921823
0.00931689
0.00938386
0.00941814
0.00941873
0.00938466
0.00931505
0.00920924
0.00906711
0.00888955
0.00867913
0.00844082
0.00818255
0.00791537
0.00765276
0.00740915
0.00719772
0.00702826
0.00690574
0.00683029
0.0067983
0.00680429
0.00684261
0.00690855
8.25013e-05
0.000768015
0.00158861
0.00236229
0.00307659
0.00373473
0.00434158
0.00490169
0.00541913
0.00589743
0.0063397
0.00674859
0.00712635
0.00747482
0.00779543
0.00808924
0.00835688
0.00859866
0.00881454
0.00900424
0.00916727
0.00930298
0.00941064
0.00948945
0.00953854
0.00955704
0.00954402
0.00949861
0.00942005
0.00930795
0.00916259
0.00898549
0.00877986
0.00855123
0.0083077
0.00805975
0.0078195
0.00759927
0.00740997
0.00725956
0.0071523
0.00708888
0.0070674
0.00708454
0.00713666
8.24439e-05
0.000774824
0.00160497
0.0023882
0.0031114
0.0037775
0.00439118
0.00495696
0.00547885
0.00596044
0.00640485
0.00681484
0.00719277
0.00754065
0.00786015
0.00815255
0.00841883
0.00865964
0.00887535
0.00906607
0.0092317
0.00937197
0.00948648
0.00957472
0.00963608
0.00966991
0.00967545
0.00965196
0.00959875
0.00951536
0.00940177
0.00925881
0.00908851
0.00889459
0.00868276
0.00846084
0.00823837
0.00802591
0.00783388
0.00767132
0.00754497
0.00745882
0.00741428
0.00741083
0.00744679
8.23349e-05
0.000780467
0.00161884
0.00241046
0.00314155
0.0038147
0.00443446
0.00500524
0.00553105
0.00601546
0.00646166
0.00687245
0.00725031
0.00759739
0.00791553
0.00820624
0.00847077
0.00871007
0.00892483
0.00911553
0.00928241
0.00942558
0.00954495
0.00964034
0.00971144
0.00975785
0.00977909
0.00977463
0.00974395
0.00968666
0.00960267
0.00949242
0.0093572
0.00919948
0.00902322
0.00883405
0.0086392
0.00844712
0.00826687
0.00810721
0.00797575
0.00787836
0.0078189
0.0077993
0.00782003
8.21809e-05
0.000785111
0.00163044
0.00242926
0.00316716
0.00384645
0.00447148
0.00504658
0.00557572
0.00606248
0.00651007
0.00692135
0.00729888
0.00764492
0.00796146
0.00825021
0.00851263
0.00874992
0.00896306
0.00915283
0.0093198
0.00946437
0.00958681
0.00968724
0.00976565
0.00982193
0.00985589
0.00986727
0.00985576
0.00982116
0.00976341
0.00968281
0.00958023
0.00945734
0.00931688
0.00916286
0.00900058
0.00883655
0.00867815
0.00853304
0.0084086
0.00831129
0.00824625
0.00821713
0.00822609
8.19887e-05
0.000788902
0.00163998
0.00244481
0.00318848
0.00387296
0.00450244
0.00508115
0.00561304
0.00610165
0.00655022
0.00696165
0.00733858
0.00768335
0.00799806
0.00828459
0.00854457
0.00877942
0.00899035
0.00917841
0.00934444
0.00948915
0.00961307
0.00971663
0.00980011
0.00986369
0.00990747
0.00993144
0.00993557
0.00991985
0.00988436
0.00982938
0.00975557
0.00966414
0.00955704
0.00943711
0.00930821
0.00917523
0.0090439
0.00892052
0.00881158
0.00872323
0.00866094
0.00862912
0.00863103
8.17643e-05
0.000791943
0.00164765
0.00245738
0.00320576
0.0038945
0.00452761
0.00510923
0.00564326
0.00613323
0.00658238
0.00699364
0.00736969
0.00771296
0.00802563
0.00830971
0.00856696
0.008799
0.00900724
0.00919294
0.00935717
0.0095009
0.00962493
0.00972995
0.0098165
0.00988505
0.00993593
0.00996943
0.00998575
0.00998508
0.00996767
0.00993388
0.00988429
0.00981985
0.00974201
0.00965283
0.00955514
0.00945255
0.00934941
0.0092507
0.00916173
0.00908789
0.00903428
0.0090054
0.00900493
8.15142e-05
0.000794306
0.00165364
0.00246721
0.00321931
0.0039114
0.00454735
0.0051312
0.00566678
0.00615763
0.00660697
0.00701775
0.00739267
0.00773422
0.00804467
0.00832609
0.0085804
0.00880934
0.00901448
0.00919727
0.00935901
0.00950085
0.00962383
0.00972887
0.00981678
0.00988823
0.00994382
0.00998406
0.0100094
0.0100202
0.0100169
0.00999987
0.00996983
0.00992754
0.00987413
0.00981119
0.00974079
0.00966562
0.00958894
0.00951456
0.00944668
0.00938974
0.00934814
0.00932599
0.00932691
8.12518e-05
0.000796042
0.00165809
0.00247451
0.00322937
0.00392393
0.00456192
0.00514731
0.00568389
0.00617517
0.00662436
0.00703441
0.00740802
0.00774772
0.00805581
0.00833445
0.00858565
0.00881126
0.00901301
0.00919248
0.00935116
0.00949038
0.00961138
0.00971528
0.00980309
0.00987571
0.00993395
0.00997852
0.0100101
0.0100291
0.0100363
0.0100321
0.0100173
0.00999243
0.00995863
0.00991708
0.00986938
0.00981754
0.009764
0.00971164
0.00966371
0.00962372
0.00959526
0.00958188
0.00958681
8.10312e-05
0.000797144
0.00166105
0.00247941
0.00323612
0.00393231
0.0045716
0.0051579
0.00569497
0.00618627
0.00663499
0.00704407
0.00741623
0.00775398
0.00805967
0.00833551
0.00858355
0.00880574
0.00900391
0.00917979
0.009335
0.00947104
0.00958933
0.00969117
0.00977773
0.00985012
0.00990932
0.00995623
0.00999164
0.0100163
0.0100309
0.0100361
0.0100326
0.0100211
0.0100024
0.00997774
0.00994821
0.00991539
0.00988113
0.00984761
0.0098173
0.0097929
0.00977729
0.00977335
0.00978385
8.08437e-05
0.000797544
0.00166258
0.00248207
0.00323983
0.00393688
0.0045768
0.00516345
0.00570053
0.00619149
0.00663948
0.00704743
0.00741803
0.0077538
0.00805709
0.00833013
0.00857504
0.0087938
0.00898835
0.00916051
0.00931201
0.00944452
0.00955958
0.00965866
0.0097431
0.00981417
0.009873
0.00992066
0.00995809
0.00998616
0.0100057
0.0100174
0.0100221
0.0100204
0.0100133
0.0100015
0.00998614
0.00996841
0.00994973
0.00993175
0.00991635
0.00990562
0.00990179
0.00990715
0.00992397
8.06609e-05
0.000797223
0.00166271
0.00248263
0.00324072
0.00393798
0.00457792
0.00516441
0.00570111
0.00619143
0.00663849
0.0070452
0.0074142
0.00774801
0.00804897
0.00831932
0.00856118
0.00877661
0.00896759
0.00913602
0.00928374
0.00941251
0.00952403
0.0096199
0.00970161
0.00977056
0.00982805
0.00987525
0.00991327
0.00994309
0.00996561
0.00998167
0.00999205
0.00999753
0.00999886
0.00999685
0.00999238
0.00998643
0.00998014
0.00997476
0.00997175
0.00997269
0.00997931
0.0099934
0.0100168
8.04796e-05
0.000796179
0.00166152
0.00248126
0.00323906
0.00393591
0.00457535
0.00516123
0.00569721
0.00618666
0.00663266
0.00703808
0.00740553
0.00773747
0.00803625
0.00830407
0.00854308
0.00875536
0.00894293
0.00910775
0.00925174
0.00937676
0.00948462
0.00957702
0.0096556
0.00972192
0.00977737
0.00982329
0.00986086
0.00989119
0.00991528
0.00993403
0.00994828
0.0099588
0.00996636
0.0099717
0.00997559
0.00997885
0.0099824
0.00998723
0.00999446
0.0100053
0.0100211
0.0100432
0.0100731
8.02939e-05
0.000794594
0.00165921
0.00247818
0.00323508
0.00393098
0.00456944
0.00515434
0.00568932
0.00617773
0.0066226
0.00702675
0.00739274
0.00772299
0.0080198
0.00828536
0.0085218
0.00873121
0.00891563
0.00907708
0.00921753
0.00933894
0.00944317
0.00953206
0.00960736
0.00967072
0.00972371
0.00976777
0.0098042
0.0098342
0.00985884
0.00987911
0.00989588
0.00990996
0.0099221
0.00993301
0.00994338
0.00995393
0.0099654
0.00997859
0.00999436
0.0100137
0.0100375
0.0100669
0.0101031
8.00991e-05
0.000792684
0.001656
0.0024736
0.00322905
0.00392348
0.00456055
0.00514414
0.0056779
0.00616515
0.00660889
0.00701185
0.00737654
0.00770534
0.00800046
0.00826409
0.00849831
0.00870522
0.00888686
0.00904528
0.00918251
0.00930055
0.00940136
0.00948686
0.0095589
0.00961925
0.00966957
0.00971143
0.00974625
0.00977535
0.00979987
0.00982084
0.0098392
0.00985579
0.00987134
0.00988654
0.00990204
0.00991847
0.00993644
0.0099566
0.00997962
0.0100062
0.0100372
0.0100733
0.0101154
7.98974e-05
0.000790544
0.00165205
0.00246773
0.00322119
0.0039137
0.00454899
0.005131
0.00566338
0.00614942
0.00659206
0.00699396
0.00735758
0.0076852
0.007979
0.00824108
0.00847352
0.00867836
0.00885767
0.0090135
0.0091479
0.00926294
0.00936063
0.00944299
0.00951196
0.00956938
0.00961704
0.0096566
0.00968959
0.00971741
0.00974132
0.00976245
0.00978176
0.00980009
0.00981822
0.0098368
0.00985645
0.00987772
0.00990114
0.00992723
0.00995651
0.00998952
0.0100268
0.010069
0.0101167
7.96926e-05
0.000788231
0.00164749
0.00246073
0.00321171
0.00390187
0.00453506
0.00511528
0.00564616
0.00613097
0.00657259
0.00697362
0.00733642
0.0076632
0.00795607
0.00821705
0.00844818
0.00865147
0.00882895
0.00898269
0.00911475
0.00922724
0.00932223
0.00940179
0.00946795
0.00952266
0.00956779
0.00960509
0.00963619
0.00966258
0.00968561
0.00970648
0.00972624
0.00974578
0.00976585
0.00978712
0.00981016
0.00983548
0.00986353
0.00989472
0.00992945
0.00996812
0.0100111
0.0100588
0.0101117
7.94884e-05
0.000785794
0.00164241
0.00245274
0.00320082
0.00388827
0.00451909
0.00509732
0.00562664
0.00611024
0.00655097
0.00695133
0.0073136
0.00763991
0.00793226
0.00819263
0.00842297
0.00862525
0.00880146
0.00895366
0.00908393
0.00919437
0.00928712
0.00936431
0.00942802
0.00948029
0.00952308
0.00955824
0.00958749
0.00961241
0.00963443
0.0096548
0.00967464
0.0096949
0.00971639
0.00973976
0.00976556
0.00979426
0.00982622
0.0098618
0.00990127
0.0099449
0.00999296
0.0100457
0.0101033
7.92892e-05
0.000783284
0.00163692
0.00244395
0.00318873
0.00387316
0.00450138
0.00507751
0.00560521
0.00608766
0.00652763
0.00692754
0.00728959
0.0076158
0.00790809
0.00816834
0.00839842
0.00860025
0.00877578
0.00892703
0.00905608
0.00916503
0.00925606
0.00933133
0.00939299
0.00944316
0.00948386
0.00951705
0.00954452
0.00956796
0.00958885
0.00960855
0.00962821
0.00964883
0.00967125
0.00969615
0.00972409
0.00975549
0.0097907
0.00982996
0.00987347
0.0099214
0.00997388
0.010031
0.0100929
7.90995e-05
0.000780755
0.00163113
0.00243452
0.0031757
0.00385686
0.00448229
0.00505621
0.00558228
0.00606365
0.00650302
0.00690272
0.00726484
0.00759132
0.00788398
0.00814459
0.00837496
0.00857692
0.00875236
0.00890326
0.00903168
0.00913972
0.00922956
0.0093034
0.00936344
0.00941185
0.00945074
0.00948213
0.00950792
0.00952986
0.00954954
0.00956837
0.00958757
0.00960819
0.00963109
0.009657
0.00968645
0.00971987
0.00975758
0.00979978
0.0098466
0.0098981
0.0099543
0.0100152
0.0100808
7.8924e-05
0.000778267
0.0016252
0.00242468
0.00316202
0.0038397
0.00446223
0.00503388
0.00555833
0.00603869
0.0064776
0.0068773
0.00723979
0.00756689
0.00786032
0.00812177
0.00835293
0.00855557
0.0087315
0.00888265
0.00901103
0.00911874
0.00920793
0.00928084
0.0093397
0.00938671
0.00942407
0.00945385
0.00947804
0.00949847
0.00951681
0.00953454
0.00955296
0.00957317
0.00959608
0.00962242
0.00965275
0.00968749
0.00972691
0.00977122
0.0098205
0.00987474
0.00993388
0.0099978
0.0100664
7.87684e-05
0.000775887
0.00161927
0.00241468
0.00314802
0.00382211
0.00444166
0.00501101
0.00553387
0.0060133
0.00645188
0.00685177
0.00721488
0.00754291
0.00783748
0.00810018
0.00833261
0.00853643
0.0087134
0.00886537
0.00899428
0.00910222
0.00919132
0.00926379
0.0093219
0.00936789
0.00940399
0.00943234
0.00945501
0.00947389
0.00949074
0.00950711
0.00952438
0.00954371
0.00956606
0.00959219
0.00962269
0.00965797
0.0096983
0.00974382
0.00979461
0.00985065
0.00991179
0.00997785
0.0100486
7.86391e-05
0.000773696
0.00161354
0.00240484
0.00313412
0.00380459
0.00442113
0.0049882
0.0055095
0.00598808
0.00642645
0.00682668
0.00719059
0.00751979
0.0078158
0.0080801
0.0083142
0.00851966
0.00869816
0.00885145
0.00898145
0.00909015
0.00917967
0.00925221
0.00931
0.00935534
0.00939046
0.00941757
0.00943877
0.00945606
0.00947124
0.00948597
0.00950168
0.0095196
0.00954075
0.00956595
0.00959581
0.00963076
0.00967107
0.00971687
0.00976818
0.00982491
0.00988699
0.00995413
0.010026
7.8544e-05
0.000771791
0.00160824
0.00239552
0.00312081
0.00378771
0.00440131
0.00496615
0.00548595
0.00596375
0.00640197
0.00680264
0.00716748
0.00749801
0.00779567
0.00806182
0.0082979
0.00850536
0.00868579
0.00884087
0.00897242
0.00908238
0.00917282
0.00924589
0.00930381
0.00934885
0.00938329
0.00940934
0.00942917
0.00944482
0.00945816
0.00947093
0.00948463
0.00950058
0.00951984
0.00954331
0.00957163
0.00960527
0.00964452
0.00968951
0.00974024
0.00979659
0.00985835
0.00992533
0.00999719
7.84926e-05
0.000770293
0.00160368
0.00238719
0.0031087
0.00377221
0.004383
0.00494571
0.00546408
0.00594113
0.00637924
0.00678038
0.00714619
0.00747811
0.0077775
0.00804566
0.00828389
0.0084936
0.00867627
0.00883349
0.00896699
0.00907865
0.00917045
0.00924449
0.00930296
0.00934809
0.00938214
0.00940736
0.00942592
0.00943991
0.00945127
0.00946178
0.00947304
0.00948642
0.00950308
0.00952395
0.00954977
0.00958103
0.00961806
0.00966102
0.00970989
0.00976456
0.00982479
0.00989025
0.00996061
7.84969e-05
0.000769351
0.0016002
0.00238039
0.00309851
0.00375893
0.00436714
0.00492788
0.00544491
0.00592124
0.00635922
0.00676077
0.00712748
0.00746074
0.00776182
0.00803196
0.0082724
0.00848446
0.00866952
0.00882911
0.00896487
0.00907857
0.00917212
0.00924754
0.00930696
0.00935255
0.00938655
0.00941119
0.00942863
0.009441
0.00945027
0.00945828
0.00946669
0.00947694
0.00949028
0.0095077
0.00953001
0.00955776
0.00959133
0.00963091
0.00967651
0.00972801
0.00978517
0.00984765
0.00991502
7.85718e-05
0.000769152
0.00159823
0.00237579
0.00309109
0.00374889
0.00435487
0.00491385
0.00542966
0.00590528
0.00634305
0.00674486
0.00711228
0.00744666
0.00774922
0.00802117
0.00826368
0.00847801
0.00866547
0.00882751
0.00896568
0.00908165
0.00917725
0.0092544
0.00931513
0.00936157
0.00939587
0.00942022
0.00943677
0.00944763
0.00945481
0.00946016
0.0094654
0.00947204
0.00948139
0.00949453
0.00951232
0.0095354
0.00956421
0.00959898
0.00963975
0.00968644
0.0097388
0.00979648
0.00985904
7.87362e-05
0.000769924
0.00159828
0.00237417
0.00308747
0.00374329
0.00434751
0.00490505
0.00541977
0.00589466
0.00633208
0.00673391
0.0071017
0.00743681
0.00774046
0.00801382
0.00825805
0.00847436
0.00866402
0.00882839
0.00896896
0.0090873
0.00918512
0.00926427
0.00932665
0.00937429
0.00940927
0.00943368
0.00944964
0.00945921
0.00946439
0.00946705
0.00946893
0.00947159
0.0094764
0.00948451
0.00949685
0.00951415
0.00953689
0.00956537
0.00959969
0.00963978
0.00968543
0.00973628
0.00979188
7.90138e-05
0.000771944
0.00160098
0.00237647
0.00308883
0.00374354
0.00434664
0.00490314
0.00541694
0.00589108
0.00632792
0.00672939
0.00709706
0.00743232
0.00773643
0.00801057
0.00825592
0.00847367
0.00866508
0.00883145
0.00897419
0.0090948
0.00919489
0.00927617
0.00934045
0.00938963
0.00942565
0.00945053
0.00946628
0.0094749
0.00947833
0.00947843
0.00947693
0.00947542
0.00947531
0.0094778
0.0094839
0.00949438
0.00950982
0.00953056
0.00955677
0.00958842
0.00962532
0.00966713
0.00971339
7.9434e-05
0.000775549
0.00160703
0.00238374
0.00309658
0.00375129
0.00435409
0.00491008
0.00542321
0.00589654
0.0063325
0.00673308
0.00709994
0.00743454
0.00773821
0.00801222
0.0082578
0.00847617
0.00866858
0.00883634
0.00898078
0.00910335
0.00920555
0.00928896
0.00935528
0.00940624
0.00944368
0.00946945
0.00948544
0.00949356
0.00949565
0.00949351
0.00948883
0.0094832
0.00947803
0.00947455
0.00947381
0.00947666
0.00948371
0.00949538
0.00951189
0.00953326
0.00955932
0.00958976
0.00962413
8.00337e-05
0.000781136
0.00161729
0.00239727
0.00311234
0.00376849
0.00437207
0.00492823
0.00544097
0.00591341
0.00634809
0.00674709
0.00711221
0.00744505
0.0077471
0.00801975
0.00826433
0.00848215
0.00867451
0.00884272
0.00898811
0.00911204
0.00921595
0.00930129
0.00936962
0.00942253
0.00946167
0.00948875
0.00950551
0.00951368
0.00951499
0.00951114
0.00950373
0.0094943
0.00948421
0.00947472
0.00946688
0.00946155
0.0094594
0.00946091
0.00946631
0.00947569
0.0094889
0.00950567
0.00952553
8.08584e-05
0.000789184
0.00163275
0.00241854
0.00313806
0.00379748
0.0044032
0.0049604
0.00547311
0.00594456
0.00637741
0.00677391
0.00713608
0.00746576
0.00776463
0.0080343
0.00827628
0.00849201
0.00868288
0.00885026
0.00899549
0.0091199
0.00922484
0.00931166
0.00938177
0.00943661
0.00947766
0.00950642
0.00952445
0.0095333
0.00953454
0.00952969
0.00952026
0.00950764
0.00949315
0.00947798
0.00946314
0.00944951
0.00943776
0.00942837
0.00942162
0.00941759
0.0094162
0.00941714
0.00942
8.19642e-05
0.00080026
0.00165456
0.00244932
0.00317611
0.00384112
0.00445073
0.00501006
0.00552318
0.00599344
0.00642369
0.00681648
0.00717414
0.00749883
0.00779256
0.00805722
0.00829456
0.00850624
0.0086938
0.00885869
0.00900229
0.00912593
0.00923089
0.00931845
0.00938986
0.0094464
0.00948937
0.00952007
0.00953983
0.00955001
0.00955195
0.009547
0.00953647
0.0095216
0.00950358
0.00948349
0.00946227
0.00944072
0.00941948
0.009399
0.00937956
0.00936124
0.00934393
0.00932734
0.00931104
8.34207e-05
0.000815047
0.00168416
0.00249184
0.00322947
0.00390307
0.00451877
0.00508157
0.00559556
0.00606425
0.00649084
0.0068783
0.0072294
0.00754677
0.00783288
0.00809
0.00832022
0.00852545
0.00870744
0.00886777
0.0090079
0.00912916
0.0092328
0.00932002
0.00939194
0.00944968
0.00949435
0.00952704
0.00954887
0.00956095
0.00956439
0.0095603
0.00954978
0.00953386
0.00951355
0.00948975
0.00946327
0.00943478
0.00940484
0.00937381
0.00934189
0.00930912
0.00927534
0.00924023
0.00920333
8.53139e-05
0.00083439
0.00172337
0.00254902
0.00330218
0.00398824
0.00461282
0.00518064
0.00569583
0.00616223
0.00658355
0.0069634
0.00730524
0.00761234
0.00788776
0.00813426
0.00835437
0.00855031
0.00872407
0.0088774
0.00901184
0.00912876
0.00922939
0.00931484
0.00938614
0.00944426
0.00949011
0.00952459
0.00954859
0.00956297
0.0095686
0.00956633
0.009557
0.00954142
0.00952034
0.00949445
0.00946437
0.00943058
0.00939347
0.00935326
0.00931003
0.00926367
0.00921393
0.00916042
0.00910257
8.77534e-05
0.000859374
0.00177465
0.00262501
0.00339997
0.00410358
0.00474046
0.0053149
0.0058312
0.00629382
0.00670736
0.00707639
0.00740536
0.00769843
0.00795938
0.00819162
0.00839813
0.00858152
0.00874403
0.00888758
0.0090138
0.00912411
0.00921972
0.00930167
0.0093709
0.00942822
0.00947439
0.00951012
0.00953607
0.00955287
0.00956115
0.00956149
0.00955448
0.00954064
0.00952048
0.00949444
0.00946286
0.00942602
0.00938406
0.00933699
0.00928469
0.00922687
0.00916309
0.00909279
0.00901526
9.08848e-05
0.000891487
0.00184168
0.00272621
0.00353169
0.00425952
0.00491261
0.00549482
0.00601104
0.00646696
0.00686867
0.00722225
0.00753352
0.00780776
0.0080497
0.00826342
0.00845242
0.00861968
0.00876766
0.00889844
0.00901373
0.00911496
0.00920331
0.00927977
0.00934516
0.00940019
0.00944546
0.00948151
0.0095088
0.00952776
0.00953878
0.00954222
0.00953838
0.00952756
0.00950997
0.0094858
0.00945511
0.00941792
0.0093741
0.00932341
0.00926545
0.00919969
0.00912543
0.00904185
0.00894804
9.49194e-05
0.00093287
0.00193047
0.00286336
0.00371189
0.00447239
0.00514542
0.00573489
0.00624739
0.00669102
0.00707438
0.00740581
0.00769293
0.00794241
0.00815998
0.00835043
0.00851772
0.00866509
0.00879521
0.00891021
0.00901182
0.00910145
0.00918022
0.00924905
0.00930866
0.00935964
0.00940247
0.00943753
0.00946513
0.00948553
0.00949892
0.00950546
0.00950523
0.0094983
0.00948465
0.0094642
0.00943679
0.00940215
0.0093599
0.0093095
0.0092503
0.00918145
0.00910198
0.00901075
0.00890652
0.000100242
0.00098645
0.00205181
0.00305616
0.00396592
0.00476883
0.00546315
0.00605493
0.00655505
0.0069762
0.00733096
0.00763074
0.00788536
0.00810296
0.00829019
0.00845236
0.00859371
0.00871762
0.00882674
0.00892317
0.00900858
0.00908426
0.00915124
0.00921033
0.00926215
0.00930718
0.00934579
0.00937825
0.00940473
0.00942537
0.00944022
0.00944929
0.0094525
0.00944974
0.00944083
0.00942548
0.00940335
0.00937394
0.00933667
0.00929076
0.00923532
0.00916924
0.00909127
0.00899995
0.00889372
0.000107506
0.00106001
0.00223072
0.00334593
0.00434188
0.00519384
0.00590192
0.00648068
0.00695037
0.00733149
0.00764226
0.00789768
0.00810967
0.00828749
0.00843824
0.00856737
0.00867904
0.00877643
0.00886201
0.00893764
0.0090048
0.0090646
0.00911791
0.0091654
0.00920756
0.00924478
0.00927732
0.00930535
0.00932899
0.00934826
0.00936314
0.00937355
0.00937933
0.00938028
0.0093761
0.00936643
0.00935079
0.00932861
0.00929915
0.00926156
0.00921478
0.00915758
0.00908852
0.00900596
0.00890808
0.000118506
0.00117055
0.00252763
0.00382426
0.00493317
0.00582258
0.00651253
0.00704109
0.00744638
0.00775991
0.00800573
0.0082015
0.00835999
0.00849041
0.00859939
0.00869177
0.0087711
0.00884
0.00890046
0.00895396
0.00900161
0.00904427
0.00908259
0.00911706
0.00914804
0.00917581
0.00920054
0.00922233
0.00924125
0.00925728
0.00927037
0.00928041
0.00928722
0.00929059
0.00929023
0.00928576
0.00927673
0.00926258
0.00924262
0.00921602
0.00918179
0.00913874
0.00908549
0.00902044
0.00894179
0.000139657
0.00137873
0.00313428
0.00472806
0.00593035
0.00677226
0.00735148
0.00775407
0.00804035
0.00824958
0.00840682
0.00852818
0.00862421
0.00870193
0.00876613
0.00882013
0.0088663
0.00890633
0.00894147
0.00897264
0.00900052
0.00902565
0.0090484
0.00906907
0.00908788
0.00910498
0.00912048
0.00913442
0.00914684
0.00915771
0.00916699
0.00917458
0.00918038
0.0091842
0.00918584
0.00918503
0.00918145
0.00917467
0.00916421
0.00914945
0.00912968
0.009104
0.0090714
0.00903066
0.00898036
0.000207727
0.00211343
0.00497459
0.0067846
0.00769822
0.00816765
0.00842883
0.00858712
0.00869042
0.00876202
0.00881407
0.00885343
0.00888417
0.00890886
0.00892916
0.00894622
0.00896081
0.00897349
0.00898466
0.00899462
0.00900359
0.00901173
0.00901917
0.00902599
0.00903228
0.00903807
0.00904341
0.00904829
0.00905274
0.00905674
0.00906027
0.00906329
0.00906578
0.00906765
0.00906884
0.00906924
0.00906874
0.00906717
0.00906435
0.00906006
0.00905402
0.00904589
0.00903527
0.00902169
0.0090046
)
;

boundaryField
{
    leftWall
    {
        type            nutkWallFunction;
        Cmu             0.09;
        kappa           0.41;
        E               9.8;
        value           nonuniform List<scalar> 
42
(
2.15449e-06
2.1422e-06
2.12195e-06
2.09472e-06
2.06147e-06
2.02312e-06
1.98058e-06
1.93528e-06
1.89249e-06
1.85474e-06
1.81974e-06
1.78709e-06
1.75496e-06
1.72166e-06
1.6874e-06
1.65274e-06
1.61832e-06
1.58479e-06
1.55289e-06
1.52338e-06
1.49718e-06
1.47531e-06
1.45902e-06
1.44984e-06
1.44969e-06
1.46094e-06
1.48661e-06
1.5305e-06
1.59734e-06
1.69302e-06
1.82484e-06
2.00178e-06
2.23486e-06
2.5377e-06
2.92744e-06
3.42652e-06
4.06696e-06
4.90612e-06
6.04121e-06
7.7361e-06
1.09311e-05
2.09162e-05
)
;
    }
    rightWall
    {
        type            nutkWallFunction;
        Cmu             0.09;
        kappa           0.41;
        E               9.8;
        value           nonuniform 0();
    }
    lowerWall
    {
        type            nutkWallFunction;
        Cmu             0.09;
        kappa           0.41;
        E               9.8;
        value           nonuniform 0();
    }
    atmosphere
    {
        type            calculated;
        value           uniform 0.009;
    }
    defaultFaces
    {
        type            empty;
    }
    procBoundary2to0
    {
        type            processor;
        value           nonuniform List<scalar> 
46
(
0.00899664
0.00911751
0.00920488
0.00925761
0.00927466
0.00925511
0.00919811
0.00910298
0.00896937
0.00879767
0.0085897
0.00834956
0.00808448
0.00780542
0.00752673
0.00726475
0.00703532
0.00685072
0.0067175
0.00663571
0.00660015
0.00660277
0.00663529
0.006691
0.00676552
8.2503e-05
0.000759933
0.00156966
0.00233264
0.00303706
0.00368642
0.0042857
0.00483954
0.00535201
0.00582662
0.00626642
0.00667395
0.00705133
0.0074002
0.00772174
0.00801666
0.00828524
0.00852734
0.00874252
0.00893002
0.00893002
)
;
    }
    procBoundary2to3
    {
        type            processor;
        value           nonuniform List<scalar> 
43
(
0.00699841
0.00722042
0.00752
0.00788044
0.00827401
0.00866869
0.00903553
0.00935379
0.00961284
0.00981129
0.0099544
0.0100512
0.0101122
0.010147
0.0101643
0.0101705
0.0101702
0.0101661
0.0101597
0.010151
0.0101395
0.0101238
0.0101024
0.0100735
0.0100355
0.0099868
0.00992596
0.00985169
0.00976354
0.00966185
0.00954791
0.00942418
0.00929446
0.00916404
0.00903974
0.00892975
0.008843
0.00878801
0.00877092
0.00879292
0.00884751
0.00891891
0.00898333
)
;
    }
}


// ************************************************************************* //
