/*--------------------------------*- C++ -*----------------------------------*\
| =========                 |                                                 |
| \\      /  F ield         | OpenFOAM: The Open Source CFD Toolbox           |
|  \\    /   O peration     | Version:  5.0                                   |
|   \\  /    A nd           | Web:      www.OpenFOAM.org                      |
|    \\/     M anipulation  |                                                 |
\*---------------------------------------------------------------------------*/
FoamFile
{
    version     2.0;
    format      ascii;
    class       volScalarField;
    location    "1";
    object      p;
}
// * * * * * * * * * * * * * * * * * * * * * * * * * * * * * * * * * * * * * //

dimensions      [1 -1 -2 0 0 0 0];

internalField   nonuniform List<scalar> 
1915
(
-2.34646
-2.34391
-2.3418
-2.34018
-2.33901
-2.33816
-2.33747
-2.33685
-2.33626
-2.3357
-2.3352
-2.33479
-2.33465
-2.33507
-2.33639
-2.33895
-2.34313
-2.34938
-2.35827
-2.37039
-2.38621
-2.406
-2.42973
-2.45778
-2.49002
-2.44497
-2.44346
-2.44163
-2.4399
-2.43841
-2.43711
-2.43597
-2.43495
-2.43403
-2.43315
-2.43227
-2.43134
-2.43027
-2.42902
-2.42749
-2.42565
-2.42342
-2.42081
-2.41787
-2.41479
-2.41182
-2.40918
-2.40702
-2.40543
-2.40437
-2.40371
-2.40328
-2.40296
-2.40276
-2.40272
-2.4029
-2.40336
-2.40419
-2.40564
-2.40801
-2.41161
-2.41669
-2.42358
-2.43266
-2.44437
-2.45905
-2.47686
-2.49763
-2.52125
-2.54816
-2.50995
-2.50856
-2.50686
-2.50526
-2.50388
-2.50266
-2.50159
-2.50063
-2.49974
-2.4989
-2.49805
-2.49715
-2.49613
-2.49493
-2.49347
-2.49169
-2.48953
-2.487
-2.48414
-2.48112
-2.47815
-2.47546
-2.47324
-2.47162
-2.47059
-2.47005
-2.46984
-2.46982
-2.46998
-2.47037
-2.47106
-2.47215
-2.47372
-2.47594
-2.47907
-2.48333
-2.48892
-2.49607
-2.50505
-2.51611
-2.52949
-2.5453
-2.56338
-2.58348
-2.60553
-2.57557
-2.57429
-2.57272
-2.57124
-2.56995
-2.56881
-2.56779
-2.56687
-2.56602
-2.5652
-2.56438
-2.5635
-2.56251
-2.56136
-2.55997
-2.55828
-2.55624
-2.55384
-2.55112
-2.54821
-2.54528
-2.54258
-2.5403
-2.53861
-2.53755
-2.53706
-2.53701
-2.53726
-2.53775
-2.53849
-2.53958
-2.5411
-2.54317
-2.54592
-2.54951
-2.55413
-2.55993
-2.56708
-2.57571
-2.58599
-2.59803
-2.61188
-2.62746
-2.6445
-2.6627
-2.64183
-2.64063
-2.63917
-2.6378
-2.63659
-2.63552
-2.63456
-2.63368
-2.63285
-2.63206
-2.63126
-2.63041
-2.62947
-2.62838
-2.62707
-2.6255
-2.6236
-2.62136
-2.61882
-2.61605
-2.61321
-2.61052
-2.60819
-2.60641
-2.60526
-2.60474
-2.60477
-2.6052
-2.60594
-2.60699
-2.60839
-2.61023
-2.6126
-2.61563
-2.61944
-2.62417
-2.62994
-2.63686
-2.64499
-2.65441
-2.66516
-2.67722
-2.69052
-2.70487
-2.71989
-2.70869
-2.70758
-2.70622
-2.70493
-2.7038
-2.70279
-2.70187
-2.70103
-2.70023
-2.69947
-2.6987
-2.69789
-2.697
-2.69598
-2.69478
-2.69334
-2.69161
-2.68957
-2.68723
-2.68464
-2.68195
-2.67932
-2.67697
-2.67508
-2.6738
-2.67317
-2.67315
-2.67365
-2.67456
-2.67583
-2.67747
-2.67952
-2.68208
-2.68524
-2.68909
-2.69374
-2.69929
-2.7058
-2.71332
-2.72185
-2.73137
-2.74182
-2.75313
-2.76511
-2.77745
-2.77616
-2.77512
-2.77384
-2.77264
-2.77158
-2.77062
-2.76975
-2.76893
-2.76817
-2.76743
-2.7667
-2.76593
-2.7651
-2.76417
-2.76308
-2.76179
-2.76025
-2.75843
-2.75632
-2.75397
-2.75147
-2.74896
-2.74663
-2.74467
-2.74324
-2.74244
-2.74228
-2.74272
-2.74366
-2.74503
-2.74682
-2.74902
-2.75168
-2.75487
-2.75866
-2.76312
-2.76833
-2.77435
-2.78117
-2.78879
-2.79714
-2.80613
-2.81565
-2.82553
-2.83556
-2.84424
-2.84327
-2.84207
-2.84093
-2.83993
-2.83902
-2.83819
-2.83741
-2.83668
-2.83597
-2.83527
-2.83455
-2.83379
-2.83294
-2.83197
-2.83083
-2.82949
-2.8279
-2.82606
-2.82398
-2.82172
-2.81939
-2.81715
-2.81518
-2.81363
-2.81264
-2.81228
-2.81253
-2.81337
-2.81471
-2.81651
-2.81876
-2.82144
-2.8246
-2.82827
-2.8325
-2.83733
-2.84281
-2.84892
-2.85563
-2.86286
-2.87051
-2.87842
-2.88647
-2.89449
-2.91293
-2.91202
-2.91089
-2.90982
-2.90887
-2.90801
-2.90721
-2.90647
-2.90577
-2.9051
-2.90444
-2.90377
-2.90307
-2.90231
-2.90145
-2.90047
-2.89932
-2.89797
-2.8964
-2.8946
-2.89263
-2.89054
-2.88847
-2.88655
-2.88495
-2.88381
-2.88322
-2.88324
-2.88385
-2.88502
-2.88671
-2.88886
-2.89148
-2.89453
-2.89803
-2.902
-2.90644
-2.91138
-2.91679
-2.92265
-2.92885
-2.93529
-2.94181
-2.94829
-2.95465
-2.98226
-2.9814
-2.98034
-2.97933
-2.97843
-2.97761
-2.97685
-2.97614
-2.97547
-2.97484
-2.97421
-2.97359
-2.97295
-2.97228
-2.97153
-2.97069
-2.96973
-2.9686
-2.96729
-2.9658
-2.96412
-2.96232
-2.96048
-2.95871
-2.95714
-2.95592
-2.95515
-2.95492
-2.95526
-2.95616
-2.9576
-2.95955
-2.96196
-2.96481
-2.96807
-2.97174
-2.97579
-2.98021
-2.98499
-2.99007
-2.99536
-3.00076
-3.00613
-3.01134
-3.01639
-3.05222
-3.05142
-3.05042
-3.04947
-3.04861
-3.04783
-3.0471
-3.04643
-3.0458
-3.0452
-3.04461
-3.04404
-3.04346
-3.04286
-3.04221
-3.04151
-3.04071
-3.03979
-3.03873
-3.03751
-3.03614
-3.03465
-3.03308
-3.03152
-3.03008
-3.02887
-3.02801
-3.02758
-3.02766
-3.02826
-3.02939
-3.03102
-3.03313
-3.03568
-3.03863
-3.04194
-3.04558
-3.04951
-3.05371
-3.05811
-3.06263
-3.06718
-3.07163
-3.07588
-3.07994
-3.12284
-3.12208
-3.12115
-3.12025
-3.11944
-3.11869
-3.11801
-3.11737
-3.11677
-3.1162
-3.11566
-3.11513
-3.1146
-3.11407
-3.11351
-3.11291
-3.11226
-3.11152
-3.11068
-3.10973
-3.10865
-3.10745
-3.10618
-3.10488
-3.10363
-3.10252
-3.10166
-3.10113
-3.10101
-3.10134
-3.10215
-3.10344
-3.10519
-3.10737
-3.10993
-3.11285
-3.11606
-3.11952
-3.12318
-3.12699
-3.13087
-3.13473
-3.13847
-3.142
-3.1453
-3.19412
-3.19341
-3.19253
-3.19169
-3.19092
-3.19022
-3.18957
-3.18896
-3.1884
-3.18786
-3.18735
-3.18687
-3.18639
-3.18592
-3.18543
-3.18493
-3.1844
-3.18381
-3.18316
-3.18243
-3.1816
-3.18069
-3.1797
-3.17867
-3.17766
-3.17672
-3.17595
-3.17541
-3.17518
-3.17532
-3.17587
-3.17683
-3.17822
-3.18001
-3.18217
-3.18465
-3.18742
-3.19042
-3.19358
-3.19686
-3.20018
-3.20348
-3.20665
-3.20962
-3.21231
-3.26607
-3.26542
-3.2646
-3.2638
-3.26307
-3.26241
-3.2618
-3.26123
-3.26069
-3.26019
-3.25972
-3.25927
-3.25884
-3.25841
-3.258
-3.25757
-3.25714
-3.25667
-3.25617
-3.25562
-3.25502
-3.25434
-3.25362
-3.25285
-3.25208
-3.25135
-3.25072
-3.25025
-3.25
-3.25004
-3.2504
-3.2511
-3.25217
-3.2536
-3.25536
-3.25742
-3.25974
-3.26228
-3.26497
-3.26775
-3.27058
-3.27337
-3.27605
-3.27853
-3.28071
-3.33872
-3.33811
-3.33734
-3.33659
-3.33591
-3.33529
-3.33471
-3.33417
-3.33367
-3.33321
-3.33277
-3.33235
-3.33196
-3.33158
-3.33121
-3.33085
-3.33049
-3.33012
-3.32974
-3.32934
-3.3289
-3.32843
-3.32792
-3.32739
-3.32684
-3.32632
-3.32586
-3.3255
-3.3253
-3.32531
-3.32556
-3.32608
-3.3269
-3.32801
-3.32941
-3.33108
-3.33298
-3.33506
-3.33729
-3.33961
-3.34195
-3.34427
-3.34648
-3.34851
-3.35021
-3.41206
-3.4115
-3.41078
-3.41008
-3.40945
-3.40886
-3.40832
-3.40781
-3.40734
-3.40691
-3.4065
-3.40612
-3.40576
-3.40541
-3.40509
-3.40478
-3.40448
-3.40419
-3.4039
-3.4036
-3.4033
-3.40298
-3.40264
-3.40229
-3.40194
-3.4016
-3.40131
-3.40108
-3.40096
-3.40098
-3.40118
-3.40159
-3.40222
-3.40308
-3.40418
-3.40549
-3.40699
-3.40866
-3.41045
-3.4123
-3.41418
-3.41602
-3.41776
-3.41933
-3.42056
-3.48612
-3.48559
-3.48493
-3.48427
-3.48368
-3.48313
-3.48262
-3.48215
-3.48172
-3.48131
-3.48093
-3.48058
-3.48025
-3.47994
-3.47965
-3.47938
-3.47912
-3.47888
-3.47866
-3.47844
-3.47823
-3.47802
-3.47781
-3.4776
-3.4774
-3.47722
-3.47706
-3.47695
-3.47692
-3.47698
-3.47717
-3.4775
-3.47799
-3.47866
-3.4795
-3.48051
-3.48166
-3.48294
-3.4843
-3.48572
-3.48713
-3.4885
-3.48977
-3.49087
-3.49165
-3.56089
-3.5604
-3.55978
-3.55918
-3.55863
-3.55811
-3.55764
-3.5572
-3.55679
-3.55642
-3.55606
-3.55574
-3.55543
-3.55515
-3.55489
-3.55465
-3.55443
-3.55423
-3.55405
-3.55389
-3.55374
-3.55361
-3.55349
-3.55338
-3.55328
-3.5532
-3.55315
-3.55313
-3.55317
-3.55327
-3.55346
-3.55374
-3.55413
-3.55464
-3.55528
-3.55602
-3.55687
-3.55779
-3.55877
-3.55977
-3.56074
-3.56166
-3.56246
-3.56308
-3.56342
-3.63639
-3.63593
-3.63536
-3.6348
-3.63429
-3.63381
-3.63337
-3.63297
-3.63259
-3.63224
-3.63191
-3.63161
-3.63133
-3.63107
-3.63084
-3.63062
-3.63043
-3.63025
-3.6301
-3.62998
-3.62987
-3.62978
-3.62971
-3.62966
-3.62963
-3.62963
-3.62964
-3.62969
-3.62977
-3.62989
-3.63007
-3.63031
-3.63062
-3.63101
-3.63146
-3.63198
-3.63256
-3.63318
-3.63381
-3.63442
-3.63499
-3.63548
-3.63584
-3.63602
-3.63595
-3.71262
-3.7122
-3.71168
-3.71116
-3.71068
-3.71024
-3.70983
-3.70945
-3.7091
-3.70878
-3.70847
-3.7082
-3.70794
-3.7077
-3.70748
-3.70729
-3.70712
-3.70696
-3.70683
-3.70672
-3.70664
-3.70658
-3.70654
-3.70652
-3.70653
-3.70655
-3.7066
-3.70668
-3.70678
-3.70691
-3.70707
-3.70726
-3.70749
-3.70776
-3.70807
-3.7084
-3.70874
-3.70909
-3.70942
-3.7097
-3.70991
-3.71001
-3.70998
-3.70976
-3.70931
-3.78959
-3.78921
-3.78872
-3.78825
-3.78781
-3.7874
-3.78702
-3.78667
-3.78634
-3.78604
-3.78576
-3.78551
-3.78527
-3.78505
-3.78485
-3.78467
-3.78451
-3.78437
-3.78425
-3.78416
-3.78408
-3.78403
-3.784
-3.784
-3.78401
-3.78405
-3.78411
-3.78418
-3.78427
-3.78439
-3.78451
-3.78466
-3.78481
-3.78498
-3.78515
-3.78531
-3.78546
-3.78558
-3.78565
-3.78564
-3.78554
-3.78532
-3.78494
-3.78438
-3.7836
-3.86731
-3.86696
-3.86652
-3.86608
-3.86567
-3.8653
-3.86495
-3.86462
-3.86432
-3.86404
-3.86378
-3.86355
-3.86333
-3.86312
-3.86294
-3.86277
-3.86262
-3.86249
-3.86238
-3.86229
-3.86222
-3.86217
-3.86214
-3.86213
-3.86214
-3.86216
-3.86221
-3.86227
-3.86234
-3.86241
-3.8625
-3.86258
-3.86266
-3.86273
-3.86278
-3.8628
-3.86278
-3.8627
-3.86255
-3.86231
-3.86195
-3.86146
-3.8608
-3.85996
-3.85891
-3.94579
-3.94547
-3.94506
-3.94466
-3.94428
-3.94394
-3.94361
-3.94332
-3.94304
-3.94278
-3.94254
-3.94232
-3.94212
-3.94193
-3.94176
-3.9416
-3.94146
-3.94134
-3.94123
-3.94114
-3.94106
-3.94101
-3.94097
-3.94094
-3.94094
-3.94094
-3.94096
-3.94099
-3.94102
-3.94106
-3.94109
-3.9411
-3.94111
-3.94108
-3.94102
-3.94092
-3.94075
-3.94052
-3.94019
-3.93976
-3.9392
-3.93849
-3.93762
-3.93655
-3.9353
-4.02503
-4.02474
-4.02436
-4.02399
-4.02365
-4.02333
-4.02303
-4.02276
-4.0225
-4.02227
-4.02205
-4.02184
-4.02166
-4.02148
-4.02132
-4.02117
-4.02104
-4.02092
-4.02081
-4.02071
-4.02063
-4.02057
-4.02051
-4.02047
-4.02044
-4.02042
-4.02041
-4.0204
-4.02039
-4.02037
-4.02034
-4.0203
-4.02022
-4.02011
-4.01996
-4.01974
-4.01946
-4.01909
-4.01863
-4.01804
-4.01733
-4.01646
-4.01542
-4.0142
-4.01279
-4.10504
-4.10477
-4.10443
-4.10409
-4.10378
-4.10348
-4.10321
-4.10296
-4.10272
-4.10251
-4.1023
-4.10212
-4.10194
-4.10178
-4.10163
-4.10149
-4.10136
-4.10124
-4.10113
-4.10103
-4.10094
-4.10086
-4.10079
-4.10073
-4.10068
-4.10063
-4.10058
-4.10053
-4.10047
-4.10041
-4.10032
-4.10021
-4.10006
-4.09988
-4.09964
-4.09933
-4.09895
-4.09848
-4.0979
-4.0972
-4.09637
-4.09539
-4.09424
-4.09291
-4.0914
-4.18583
-4.18558
-4.18527
-4.18496
-4.18467
-4.1844
-4.18415
-4.18392
-4.18371
-4.18351
-4.18332
-4.18315
-4.18299
-4.18283
-4.18269
-4.18256
-4.18243
-4.18232
-4.18221
-4.1821
-4.182
-4.18191
-4.18183
-4.18174
-4.18166
-4.18158
-4.1815
-4.18141
-4.18131
-4.18119
-4.18105
-4.18088
-4.18068
-4.18042
-4.18011
-4.17973
-4.17926
-4.17871
-4.17805
-4.17727
-4.17636
-4.1753
-4.17408
-4.17269
-4.17112
-4.26739
-4.26716
-4.26688
-4.26659
-4.26633
-4.26609
-4.26586
-4.26565
-4.26546
-4.26527
-4.2651
-4.26494
-4.26479
-4.26465
-4.26452
-4.26439
-4.26427
-4.26415
-4.26404
-4.26393
-4.26383
-4.26372
-4.26362
-4.26352
-4.26341
-4.26331
-4.26319
-4.26307
-4.26292
-4.26276
-4.26257
-4.26235
-4.26209
-4.26177
-4.2614
-4.26096
-4.26044
-4.25982
-4.25911
-4.25827
-4.25731
-4.25621
-4.25495
-4.25353
-4.25195
-4.34974
-4.34953
-4.34927
-4.34901
-4.34877
-4.34855
-4.34835
-4.34816
-4.34798
-4.34782
-4.34766
-4.34752
-4.34738
-4.34725
-4.34712
-4.347
-4.34688
-4.34677
-4.34665
-4.34654
-4.34642
-4.34631
-4.34619
-4.34607
-4.34595
-4.34581
-4.34567
-4.34551
-4.34533
-4.34513
-4.3449
-4.34464
-4.34433
-4.34397
-4.34355
-4.34306
-4.34249
-4.34184
-4.34108
-4.34022
-4.33923
-4.33811
-4.33685
-4.33543
-4.33387
-4.43288
-4.43269
-4.43245
-4.43222
-4.432
-4.4318
-4.43162
-4.43145
-4.43129
-4.43114
-4.431
-4.43087
-4.43074
-4.43062
-4.4305
-4.43039
-4.43027
-4.43016
-4.43004
-4.42993
-4.42981
-4.42968
-4.42955
-4.42942
-4.42928
-4.42912
-4.42895
-4.42877
-4.42856
-4.42833
-4.42806
-4.42776
-4.42742
-4.42702
-4.42657
-4.42604
-4.42545
-4.42477
-4.42399
-4.42311
-4.42212
-4.42101
-4.41976
-4.41838
-4.41686
-4.51682
-4.51664
-4.51642
-4.51621
-4.51602
-4.51584
-4.51568
-4.51553
-4.51539
-4.51526
-4.51513
-4.51501
-4.5149
-4.51479
-4.51468
-4.51457
-4.51446
-4.51434
-4.51423
-4.51411
-4.51398
-4.51385
-4.51372
-4.51357
-4.51341
-4.51324
-4.51305
-4.51284
-4.51261
-4.51236
-4.51207
-4.51174
-4.51137
-4.51095
-4.51047
-4.50993
-4.50931
-4.50862
-4.50784
-4.50697
-4.50599
-4.5049
-4.5037
-4.50237
-4.50091
-4.60156
-4.6014
-4.6012
-4.60101
-4.60084
-4.60068
-4.60054
-4.60041
-4.60029
-4.60017
-4.60007
-4.59996
-4.59986
-4.59976
-4.59965
-4.59955
-4.59944
-4.59933
-4.59922
-4.5991
-4.59897
-4.59883
-4.59869
-4.59853
-4.59836
-4.59818
-4.59798
-4.59776
-4.59751
-4.59723
-4.59693
-4.59658
-4.59619
-4.59576
-4.59527
-4.59472
-4.5941
-4.59341
-4.59264
-4.59179
-4.59084
-4.58979
-4.58863
-4.58737
-4.586
-4.68711
-4.68696
-4.68678
-4.68661
-4.68646
-4.68633
-4.68621
-4.6861
-4.686
-4.6859
-4.68581
-4.68571
-4.68562
-4.68553
-4.68544
-4.68534
-4.68524
-4.68513
-4.68502
-4.6849
-4.68477
-4.68463
-4.68449
-4.68432
-4.68415
-4.68396
-4.68375
-4.68352
-4.68326
-4.68297
-4.68266
-4.6823
-4.68191
-4.68147
-4.68098
-4.68043
-4.67982
-4.67914
-4.67839
-4.67757
-4.67666
-4.67566
-4.67457
-4.67339
-4.67211
-4.77347
-4.77334
-4.77317
-4.77303
-4.7729
-4.77279
-4.77269
-4.7726
-4.77252
-4.77244
-4.77236
-4.77229
-4.77221
-4.77213
-4.77204
-4.77195
-4.77186
-4.77176
-4.77165
-4.77153
-4.7714
-4.77126
-4.77112
-4.77095
-4.77078
-4.77058
-4.77037
-4.77013
-4.76987
-4.76958
-4.76927
-4.76891
-4.76852
-4.76808
-4.7676
-4.76706
-4.76647
-4.76582
-4.7651
-4.76431
-4.76345
-4.76251
-4.7615
-4.7604
-4.75922
-4.86065
-4.86053
-4.86039
-4.86027
-4.86017
-4.86008
-4.86
-4.85993
-4.85987
-4.85981
-4.85975
-4.85969
-4.85962
-4.85955
-4.85948
-4.8594
-4.85931
-4.85921
-4.85911
-4.85899
-4.85887
-4.85874
-4.85859
-4.85843
-4.85825
-4.85806
-4.85785
-4.85762
-4.85736
-4.85708
-4.85676
-4.85642
-4.85603
-4.85561
-4.85514
-4.85463
-4.85406
-4.85344
-4.85276
-4.85202
-4.85122
-4.85035
-4.84941
-4.8484
-4.84732
-4.94865
-4.94856
-4.94844
-4.94834
-4.94827
-4.9482
-4.94815
-4.9481
-4.94806
-4.94801
-4.94797
-4.94792
-4.94787
-4.94781
-4.94775
-4.94768
-4.9476
-4.94751
-4.94741
-4.9473
-4.94719
-4.94706
-4.94692
-4.94676
-4.94659
-4.94641
-4.9462
-4.94598
-4.94573
-4.94546
-4.94516
-4.94483
-4.94446
-4.94406
-4.94361
-4.94313
-4.94259
-4.94201
-4.94138
-4.94069
-4.93995
-4.93915
-4.9383
-4.93738
-4.93641
-5.03748
-5.03742
-5.03734
-5.03727
-5.03722
-5.03718
-5.03714
-5.03711
-5.03709
-5.03706
-5.03703
-5.037
-5.03696
-5.03691
-5.03686
-5.0368
-5.03673
-5.03665
-5.03656
-5.03646
-5.03635
-5.03624
-5.0361
-5.03596
-5.0358
-5.03563
-5.03543
-5.03522
-5.03499
-5.03473
-5.03445
-5.03414
-5.0338
-5.03342
-5.03301
-5.03256
-5.03207
-5.03153
-5.03095
-5.03033
-5.02965
-5.02893
-5.02816
-5.02734
-5.02648
-5.12716
-5.12714
-5.12709
-5.12706
-5.12703
-5.12701
-5.12699
-5.12698
-5.12697
-5.12696
-5.12695
-5.12693
-5.1269
-5.12687
-5.12683
-5.12677
-5.12671
-5.12665
-5.12657
-5.12648
-5.12638
-5.12628
-5.12616
-5.12603
-5.12588
-5.12572
-5.12555
-5.12536
-5.12514
-5.12491
-5.12465
-5.12437
-5.12406
-5.12372
-5.12334
-5.12293
-5.12249
-5.122
-5.12148
-5.12092
-5.12032
-5.11968
-5.119
-5.11828
-5.11751
-5.21768
-5.21773
-5.21774
-5.21774
-5.21773
-5.21773
-5.21772
-5.21773
-5.21773
-5.21773
-5.21773
-5.21772
-5.2177
-5.21768
-5.21765
-5.21761
-5.21756
-5.2175
-5.21743
-5.21736
-5.21728
-5.21718
-5.21708
-5.21697
-5.21684
-5.2167
-5.21655
-5.21638
-5.21619
-5.21599
-5.21576
-5.21551
-5.21523
-5.21493
-5.2146
-5.21424
-5.21385
-5.21342
-5.21296
-5.21247
-5.21195
-5.21139
-5.2108
-5.21017
-5.20951
-5.30905
-5.30922
-5.30932
-5.30936
-5.30936
-5.30935
-5.30935
-5.30935
-5.30936
-5.30936
-5.30937
-5.30937
-5.30936
-5.30935
-5.30932
-5.30929
-5.30926
-5.30922
-5.30916
-5.30911
-5.30904
-5.30897
-5.30888
-5.30879
-5.30869
-5.30857
-5.30844
-5.3083
-5.30814
-5.30797
-5.30777
-5.30756
-5.30733
-5.30707
-5.30679
-5.30648
-5.30614
-5.30578
-5.30539
-5.30498
-5.30453
-5.30406
-5.30356
-5.30303
-5.30247
-5.40125
-5.40161
-5.40185
-5.40193
-5.40192
-5.40188
-5.40186
-5.40186
-5.40186
-5.40187
-5.40187
-5.40188
-5.40188
-5.40187
-5.40186
-5.40184
-5.40182
-5.40179
-5.40176
-5.40172
-5.40168
-5.40162
-5.40156
-5.40149
-5.40141
-5.40132
-5.40122
-5.40111
-5.40099
-5.40085
-5.4007
-5.40052
-5.40033
-5.40013
-5.3999
-5.39965
-5.39937
-5.39908
-5.39876
-5.39842
-5.39806
-5.39768
-5.39727
-5.39684
-5.39639
-5.49481
-5.49527
-5.4956
-5.49557
-5.49542
-5.49531
-5.49526
-5.49524
-5.49523
-5.49524
-5.49524
-5.49525
-5.49526
-5.49527
-5.49527
-5.49527
-5.49526
-5.49525
-5.49524
-5.49522
-5.49519
-5.49516
-5.49513
-5.49509
-5.49503
-5.49498
-5.49491
-5.49483
-5.49474
-5.49464
-5.49453
-5.4944
-5.49426
-5.4941
-5.49393
-5.49374
-5.49353
-5.4933
-5.49306
-5.4928
-5.49252
-5.49223
-5.49192
-5.49159
-5.49124
-5.59049
-5.5918
-5.59222
-5.5909
-5.58999
-5.58965
-5.58953
-5.58949
-5.58949
-5.58949
-5.58951
-5.58953
-5.58955
-5.58956
-5.58958
-5.58959
-5.58961
-5.58962
-5.58962
-5.58963
-5.58963
-5.58962
-5.58961
-5.5896
-5.58957
-5.58954
-5.58951
-5.58947
-5.58941
-5.58935
-5.58928
-5.58919
-5.5891
-5.58899
-5.58887
-5.58874
-5.5886
-5.58844
-5.58827
-5.58808
-5.58788
-5.58767
-5.58745
-5.58722
-5.58697
-5.68058
-5.69358
-5.69262
-5.6877
-5.68558
-5.68486
-5.68457
-5.68443
-5.68439
-5.68438
-5.6844
-5.68444
-5.68447
-5.68451
-5.68455
-5.6846
-5.68464
-5.68468
-5.68472
-5.68476
-5.68479
-5.68482
-5.68485
-5.68487
-5.68489
-5.68491
-5.68491
-5.68492
-5.68492
-5.68491
-5.68489
-5.68487
-5.68484
-5.68481
-5.68477
-5.68471
-5.68466
-5.68459
-5.68452
-5.68444
-5.68435
-5.68425
-5.68415
-5.68405
-5.68393
)
;

boundaryField
{
    leftWall
    {
        type            calculated;
        value           nonuniform List<scalar> 
42
(
-2.44497
-2.50995
-2.57557
-2.64183
-2.70869
-2.77616
-2.84424
-2.91293
-2.98226
-3.05222
-3.12284
-3.19412
-3.26607
-3.33872
-3.41206
-3.48612
-3.56089
-3.63639
-3.71262
-3.78959
-3.86731
-3.94579
-4.02503
-4.10504
-4.18583
-4.26739
-4.34974
-4.43288
-4.51682
-4.60156
-4.68711
-4.77347
-4.86065
-4.94865
-5.03748
-5.12716
-5.21768
-5.30905
-5.40125
-5.49481
-5.59049
-5.68058
)
;
    }
    rightWall
    {
        type            calculated;
        value           nonuniform 0();
    }
    lowerWall
    {
        type            calculated;
        value           nonuniform 0();
    }
    atmosphere
    {
        type            calculated;
        value           nonuniform List<scalar> 
45
(
-5.72917
-5.73117
-5.73154
-5.73158
-5.73159
-5.7316
-5.73162
-5.73166
-5.7317
-5.73175
-5.73181
-5.73187
-5.73193
-5.732
-5.73206
-5.73213
-5.7322
-5.73226
-5.73233
-5.73239
-5.73245
-5.73251
-5.73257
-5.73262
-5.73267
-5.73272
-5.73276
-5.7328
-5.73284
-5.73287
-5.7329
-5.73293
-5.73295
-5.73296
-5.73298
-5.73299
-5.73299
-5.73299
-5.73299
-5.73299
-5.73298
-5.73297
-5.73296
-5.73295
-5.73294
)
;
    }
    defaultFaces
    {
        type            empty;
    }
    procBoundary2to0
    {
        type            processor;
        value           nonuniform List<scalar> 
46
(
-2.28226
-2.27988
-2.27784
-2.27614
-2.27474
-2.27357
-2.27255
-2.2716
-2.27062
-2.26947
-2.2681
-2.26659
-2.26522
-2.26435
-2.26429
-2.26537
-2.26812
-2.27325
-2.28154
-2.29371
-2.31038
-2.33202
-2.35907
-2.39149
-2.42968
-2.38068
-2.37904
-2.37706
-2.3752
-2.37359
-2.37219
-2.37097
-2.36988
-2.36889
-2.36796
-2.36702
-2.36601
-2.36488
-2.36355
-2.36196
-2.36006
-2.35781
-2.35522
-2.35233
-2.34934
-2.34934
)
;
    }
    procBoundary2to3
    {
        type            processor;
        value           nonuniform List<scalar> 
43
(
-2.52449
-2.57711
-2.62922
-2.6816
-2.73512
-2.78972
-2.84539
-2.90231
-2.96083
-3.02129
-3.08382
-3.14837
-3.2147
-3.2825
-3.35145
-3.42133
-3.49198
-3.56337
-3.63554
-3.70858
-3.78259
-3.85765
-3.93384
-4.01119
-4.0897
-4.16938
-4.2502
-4.33215
-4.4152
-4.49933
-4.58451
-4.67072
-4.75795
-4.84617
-4.93538
-5.02556
-5.11671
-5.20882
-5.30189
-5.39591
-5.49087
-5.5867
-5.68381
)
;
    }
}


// ************************************************************************* //
