/*--------------------------------*- C++ -*----------------------------------*\
| =========                 |                                                 |
| \\      /  F ield         | OpenFOAM: The Open Source CFD Toolbox           |
|  \\    /   O peration     | Version:  5.0                                   |
|   \\  /    A nd           | Web:      www.OpenFOAM.org                      |
|    \\/     M anipulation  |                                                 |
\*---------------------------------------------------------------------------*/
FoamFile
{
    version     2.0;
    format      ascii;
    class       volScalarField;
    location    "1";
    object      p_rgh;
}
// * * * * * * * * * * * * * * * * * * * * * * * * * * * * * * * * * * * * * //

dimensions      [1 -1 -2 0 0 0 0];

internalField   nonuniform List<scalar> 
1915
(
-0.00217616
0.000377773
0.00248215
0.00409938
0.00527084
0.0061254
0.00681455
0.00743708
0.00802543
0.00857821
0.00908532
0.00949305
0.00963409
0.00921592
0.00789495
0.00533102
0.0011529
-0.00510061
-0.0139909
-0.026109
-0.0419325
-0.0617174
-0.0854515
-0.113494
-0.145736
-0.0353662
-0.0338566
-0.0320215
-0.0302964
-0.0288027
-0.0275024
-0.0263601
-0.0253451
-0.0244209
-0.0235443
-0.0226655
-0.0217275
-0.0206648
-0.0194078
-0.0178868
-0.0160382
-0.0138142
-0.0112018
-0.00826455
-0.00518397
-0.00221093
0.000426047
0.00258465
0.00417948
0.00523684
0.00589545
0.00632748
0.00664325
0.0068504
0.00689006
0.00670462
0.00624867
0.0054149
0.00396929
0.00159609
-0.00200064
-0.00708478
-0.0139701
-0.0230558
-0.0347636
-0.0494436
-0.0672573
-0.0880205
-0.111639
-0.138553
-0.0344094
-0.0330183
-0.0313209
-0.0297244
-0.0283377
-0.0271234
-0.0260483
-0.0250855
-0.0242026
-0.0233604
-0.0225138
-0.0216109
-0.0205909
-0.0193863
-0.0179267
-0.0161458
-0.013995
-0.011462
-0.00860454
-0.00557521
-0.00260894
7.90085e-05
0.00229616
0.0039204
0.00494728
0.00548687
0.00570135
0.0057153
0.00555791
0.00517247
0.00447552
0.00339242
0.00182397
-0.00040409
-0.00353043
-0.00778851
-0.0133826
-0.0205341
-0.029507
-0.040571
-0.0539486
-0.0697573
-0.0878431
-0.107936
-0.129993
-0.0334907
-0.0322057
-0.0306343
-0.0291553
-0.027865
-0.0267267
-0.0257091
-0.0247884
-0.023936
-0.0231177
-0.0222932
-0.0214158
-0.0204309
-0.0192764
-0.017886
-0.0161957
-0.0141569
-0.0117555
-0.00903698
-0.00612237
-0.00320046
-0.000492605
0.0017843
0.00347658
0.00453406
0.00502014
0.00507148
0.00482282
0.00433851
0.00359306
0.00250506
0.000979082
-0.00108904
-0.00383335
-0.00742594
-0.0120451
-0.0178507
-0.0249935
-0.033629
-0.0439066
-0.055943
-0.0697962
-0.0853755
-0.102417
-0.120621
-0.0325797
-0.0313878
-0.029928
-0.0285534
-0.0273489
-0.0262781
-0.0253122
-0.0244298
-0.0236063
-0.0228118
-0.0220115
-0.0211645
-0.0202225
-0.0191302
-0.0178261
-0.0162503
-0.0143545
-0.0121184
-0.00957017
-0.00680198
-0.00396879
-0.0012782
0.00105159
0.0028393
0.00398671
0.00450169
0.0044798
0.0040489
0.00330102
0.00225349
0.000855513
-0.000980494
-0.00335557
-0.00638311
-0.010194
-0.0149244
-0.020696
-0.0276097
-0.035747
-0.0451686
-0.0559099
-0.0679721
-0.0812793
-0.0956213
-0.110642
-0.0316568
-0.0305467
-0.0291848
-0.0279012
-0.0267719
-0.0257612
-0.0248424
-0.0239967
-0.0232027
-0.0224349
-0.0216641
-0.0208551
-0.0199658
-0.0189477
-0.017746
-0.0163058
-0.0145787
-0.0125375
-0.0101941
-0.00761307
-0.00491896
-0.00229082
6.44017e-05
0.00195198
0.00323413
0.00386217
0.00387801
0.0033805
0.00246966
0.00120007
-0.000435676
-0.00249283
-0.0050514
-0.00820433
-0.0120538
-0.0167058
-0.0222548
-0.0287708
-0.0362916
-0.0448212
-0.0543363
-0.0647911
-0.0760979
-0.0880778
-0.100415
-0.0307118
-0.0296744
-0.0283989
-0.027195
-0.0261315
-0.0251744
-0.024299
-0.0234887
-0.0227252
-0.0219874
-0.0212505
-0.0204848
-0.0196553
-0.0187202
-0.0176322
-0.0163414
-0.0148009
-0.0129793
-0.0108735
-0.00852348
-0.00602173
-0.00351369
-0.00118319
0.000777508
0.0022066
0.00300718
0.00316386
0.00272977
0.00178838
0.000411473
-0.00137066
-0.00357116
-0.00623442
-0.00942262
-0.0132091
-0.0176729
-0.022886
-0.0288995
-0.0357278
-0.0433453
-0.0516905
-0.0606793
-0.0701993
-0.0800887
-0.0901092
-0.0297408
-0.0287691
-0.0275712
-0.0264378
-0.0254328
-0.0245241
-0.0236892
-0.0229137
-0.022182
-0.0214763
-0.0207763
-0.0200578
-0.0192922
-0.0184443
-0.0174741
-0.0163385
-0.0149939
-0.0134064
-0.011562
-0.00947907
-0.00722015
-0.00489526
-0.0026567
-0.000679845
0.000867175
0.00185587
0.00222075
0.00196291
0.00113072
-0.000212088
-0.00201614
-0.00425978
-0.00694884
-0.010109
-0.0137787
-0.0180064
-0.022839
-0.0283103
-0.0344223
-0.041135
-0.0483678
-0.0560104
-0.0639278
-0.0719731
-0.0799977
-0.0287454
-0.0278339
-0.0267071
-0.0256376
-0.0246856
-0.0238216
-0.0230252
-0.022284
-0.0215847
-0.0209129
-0.0202518
-0.0195822
-0.018881
-0.0181196
-0.0172662
-0.0162834
-0.0151335
-0.0137825
-0.012209
-0.0104157
-0.00843898
-0.00635511
-0.00428132
-0.00236579
-0.000766259
0.000376542
0.000963074
0.000947613
0.000335995
-0.000834911
-0.00251862
-0.00467754
-0.00728838
-0.010343
-0.0138453
-0.0178093
-0.0222531
-0.0271892
-0.0326076
-0.0384621
-0.0446668
-0.0511019
-0.0576232
-0.0641005
-0.0704645
-0.0277303
-0.026875
-0.0258148
-0.0248047
-0.0239018
-0.0230799
-0.0223207
-0.0216134
-0.0209472
-0.0203101
-0.0196886
-0.0190674
-0.0184287
-0.0177502
-0.0170068
-0.016168
-0.0152018
-0.0140769
-0.0127693
-0.0112712
-0.00959839
-0.00779828
-0.00595419
-0.0041819
-0.0026166
-0.00139387
-0.000628269
-0.000397307
-0.000734399
-0.0016368
-0.00307746
-0.00502108
-0.00743302
-0.0102829
-0.0135477
-0.0172108
-0.0212607
-0.0256862
-0.0304632
-0.0355417
-0.0408381
-0.0462374
-0.0516015
-0.0568182
-0.0618697
-0.0267027
-0.0259003
-0.0249031
-0.0239489
-0.0230927
-0.0223112
-0.0215883
-0.0209152
-0.0202824
-0.0196803
-0.0190977
-0.0185237
-0.0179437
-0.0173417
-0.016698
-0.0159887
-0.0151886
-0.0142704
-0.0132106
-0.0119959
-0.0106283
-0.00913275
-0.00756376
-0.00600446
-0.00456161
-0.00335256
-0.00249043
-0.00206651
-0.00214166
-0.00274343
-0.00387122
-0.00550484
-0.00761356
-0.0101606
-0.0131085
-0.01642
-0.0200608
-0.0239983
-0.0281936
-0.0325927
-0.0371176
-0.0416655
-0.0461146
-0.0503674
-0.0544222
-0.0256687
-0.0249168
-0.02398
-0.0230793
-0.0222682
-0.0215262
-0.0208396
-0.0202005
-0.0196014
-0.0190341
-0.0184896
-0.0179598
-0.017434
-0.0169004
-0.0163438
-0.0157473
-0.0150916
-0.0143543
-0.013515
-0.0125582
-0.0114782
-0.0102846
-0.0090098
-0.00770835
-0.00645846
-0.00535291
-0.00449087
-0.00396272
-0.00384163
-0.00417547
-0.00498655
-0.00627481
-0.00802282
-0.0101999
-0.0127675
-0.0156802
-0.0188912
-0.0223534
-0.0260171
-0.0298243
-0.0337028
-0.0375634
-0.041303
-0.0448326
-0.0481315
-0.0246342
-0.023931
-0.0230524
-0.0222037
-0.0214367
-0.0207341
-0.0200835
-0.0194785
-0.0189131
-0.0183797
-0.0178723
-0.0173838
-0.0169066
-0.0164325
-0.0159506
-0.0154493
-0.0149146
-0.0143293
-0.0136773
-0.0129439
-0.0121199
-0.0112058
-0.0102182
-0.00918987
-0.00817384
-0.00723866
-0.00646278
-0.00592561
-0.00569917
-0.00583999
-0.00638515
-0.00735171
-0.00873802
-0.0105262
-0.012685
-0.015172
-0.0179387
-0.0209327
-0.0240991
-0.0273781
-0.0307021
-0.0339937
-0.0371664
-0.0401327
-0.0428311
-0.0236049
-0.0229486
-0.0221262
-0.0213285
-0.0206053
-0.0199417
-0.0193271
-0.0187562
-0.018224
-0.0177241
-0.0172516
-0.016801
-0.0163675
-0.0159448
-0.0155256
-0.0151026
-0.0146659
-0.0142037
-0.013704
-0.0131547
-0.0125464
-0.0118753
-0.0111474
-0.0103811
-0.00960869
-0.00887783
-0.00824604
-0.00777687
-0.00753269
-0.00756831
-0.00792606
-0.00863357
-0.00970177
-0.011126
-0.0128863
-0.0149497
-0.0172732
-0.019807
-0.0224971
-0.0252851
-0.0281079
-0.0308971
-0.0335786
-0.036063
-0.0382441
-0.0225859
-0.0219745
-0.0212067
-0.020459
-0.019779
-0.0191543
-0.0185756
-0.0180388
-0.0175391
-0.0170716
-0.0166321
-0.0162166
-0.0158218
-0.015443
-0.0150757
-0.0147156
-0.0143564
-0.0139905
-0.0136099
-0.0132055
-0.0127693
-0.0122969
-0.0117882
-0.011252
-0.0107071
-0.0101838
-0.00972118
-0.00936602
-0.00916759
-0.00917309
-0.00942212
-0.00994551
-0.0107613
-0.0118744
-0.0132755
-0.0149422
-0.0168409
-0.0189293
-0.0211585
-0.0234744
-0.0258193
-0.0281318
-0.0303467
-0.0323734
-0.0340749
-0.0215817
-0.0210132
-0.0202981
-0.0195992
-0.0189621
-0.018376
-0.0178329
-0.0173295
-0.0168616
-0.0164253
-0.016017
-0.0156337
-0.015273
-0.0149316
-0.0146072
-0.0142971
-0.0139977
-0.0137049
-0.0134138
-0.0131185
-0.0128128
-0.0124931
-0.0121572
-0.0118085
-0.0114566
-0.0111195
-0.0108221
-0.0105959
-0.0104763
-0.0105001
-0.0107006
-0.0111056
-0.0117349
-0.0125977
-0.013692
-0.0150046
-0.0165112
-0.0181779
-0.0199633
-0.0218198
-0.0236956
-0.0255356
-0.0272813
-0.0288451
-0.0300814
-0.0205957
-0.0200681
-0.0194038
-0.0187525
-0.0181575
-0.0176093
-0.0171013
-0.0166307
-0.0161937
-0.0157873
-0.0154081
-0.0150543
-0.0147238
-0.0144145
-0.0141252
-0.0138546
-0.0136009
-0.0133623
-0.0131358
-0.0129187
-0.0127072
-0.0124981
-0.0122893
-0.0120817
-0.0118799
-0.0116932
-0.0115362
-0.0114284
-0.0113934
-0.0114567
-0.0116433
-0.0119752
-0.0124698
-0.0131367
-0.0139769
-0.014983
-0.0161378
-0.017415
-0.0187808
-0.0201945
-0.0216108
-0.0229808
-0.0242513
-0.0253433
-0.026123
-0.0196309
-0.0191422
-0.0185264
-0.0179213
-0.0173673
-0.0168563
-0.0163826
-0.0159435
-0.0155364
-0.0151583
-0.0148067
-0.0144799
-0.0141764
-0.0138948
-0.0136345
-0.0133947
-0.0131755
-0.012976
-0.0127949
-0.0126312
-0.0124835
-0.0123496
-0.0122278
-0.0121181
-0.0120222
-0.0119444
-0.0118924
-0.0118769
-0.0119122
-0.0120141
-0.0121988
-0.0124817
-0.0128752
-0.0133866
-0.0140174
-0.0147619
-0.0156076
-0.0165336
-0.0175123
-0.0185095
-0.0194863
-0.0203996
-0.021202
-0.0218263
-0.022165
-0.0186891
-0.0182374
-0.0176681
-0.0171074
-0.016593
-0.0161179
-0.0156772
-0.0152687
-0.0148904
-0.0145393
-0.0142136
-0.0139116
-0.0136322
-0.0133746
-0.0131383
-0.0129232
-0.0127297
-0.0125577
-0.0124073
-0.0122785
-0.0121711
-0.012084
-0.0120162
-0.0119674
-0.0119381
-0.0119294
-0.0119449
-0.0119896
-0.0120705
-0.0121961
-0.0123751
-0.0126162
-0.0129261
-0.0133086
-0.0137634
-0.0142852
-0.0148627
-0.0154787
-0.0161098
-0.0167273
-0.017298
-0.0177843
-0.0181446
-0.0183253
-0.0182498
-0.017772
-0.0173554
-0.0168301
-0.0163119
-0.0158354
-0.0153949
-0.0149861
-0.014607
-0.014256
-0.0139305
-0.0136288
-0.0133497
-0.0130921
-0.0128555
-0.0126393
-0.0124438
-0.0122696
-0.0121168
-0.0119862
-0.0118785
-0.0117941
-0.0117326
-0.0116935
-0.0116766
-0.0116817
-0.0117086
-0.0117582
-0.0118316
-0.0119312
-0.0120598
-0.0122206
-0.0124165
-0.0126493
-0.0129187
-0.0132219
-0.0135525
-0.0138993
-0.0142465
-0.0145735
-0.014856
-0.0150654
-0.0151694
-0.0151319
-0.0149123
-0.0144625
-0.0168804
-0.016497
-0.0160134
-0.0155356
-0.0150953
-0.0146879
-0.0143094
-0.0139583
-0.0136331
-0.0133317
-0.0130526
-0.0127945
-0.0125568
-0.0123388
-0.0121396
-0.0119599
-0.0118
-0.0116604
-0.011542
-0.0114456
-0.0113718
-0.0113206
-0.0112921
-0.011286
-0.0113016
-0.0113381
-0.0113948
-0.0114705
-0.0115645
-0.0116759
-0.011804
-0.0119473
-0.0121036
-0.0122691
-0.0124385
-0.0126034
-0.0127522
-0.0128698
-0.0129375
-0.0129336
-0.0128335
-0.0126094
-0.0122306
-0.0116671
-0.0108928
-0.0160151
-0.0156629
-0.0152186
-0.0147788
-0.0143729
-0.0139968
-0.013647
-0.0133225
-0.0130216
-0.012743
-0.012485
-0.0122466
-0.012027
-0.0118252
-0.0116407
-0.0114738
-0.0113247
-0.0111938
-0.0110823
-0.0109905
-0.010919
-0.0108681
-0.0108377
-0.0108277
-0.0108372
-0.0108648
-0.0109091
-0.0109674
-0.0110372
-0.0111153
-0.0111983
-0.0112817
-0.0113604
-0.0114281
-0.0114771
-0.0114978
-0.0114777
-0.011402
-0.0112534
-0.0110121
-0.0106564
-0.0101623
-0.00950384
-0.00865898
-0.00761559
-0.015176
-0.014853
-0.0144455
-0.0140414
-0.0136679
-0.0133213
-0.0129989
-0.0126994
-0.0124217
-0.0121645
-0.0119264
-0.0117061
-0.011503
-0.0113157
-0.0111437
-0.0109875
-0.0108466
-0.0107215
-0.0106131
-0.0105214
-0.0104467
-0.0103894
-0.0103494
-0.0103263
-0.010319
-0.0103261
-0.0103454
-0.0103734
-0.0104067
-0.0104405
-0.0104699
-0.0104885
-0.0104896
-0.0104651
-0.0104059
-0.0103011
-0.0101379
-0.00990172
-0.00957625
-0.00914359
-0.00858423
-0.00787721
-0.00700051
-0.00593753
-0.0046837
-0.014363
-0.0140671
-0.0136937
-0.013323
-0.01298
-0.0126614
-0.0123648
-0.012089
-0.0118332
-0.0115962
-0.0113766
-0.0111732
-0.0109851
-0.0108108
-0.01065
-0.0105026
-0.0103681
-0.0102467
-0.0101389
-0.0100444
-0.00996332
-0.00989594
-0.00984195
-0.00980069
-0.00977079
-0.00975074
-0.00973782
-0.0097283
-0.00971802
-0.00970182
-0.00967362
-0.00962636
-0.00955213
-0.00944213
-0.00928637
-0.00907339
-0.00879031
-0.00842301
-0.00795623
-0.00737354
-0.00665745
-0.00578963
-0.00475119
-0.00352915
-0.00212225
-0.0135754
-0.0133043
-0.0129624
-0.0126229
-0.0123086
-0.0120166
-0.0117444
-0.0114912
-0.0112562
-0.0110383
-0.010836
-0.0106483
-0.0104739
-0.0103115
-0.0101605
-0.0100208
-0.00989133
-0.00977227
-0.00966348
-0.00956454
-0.00947555
-0.00939633
-0.0093263
-0.0092645
-0.00920943
-0.00915938
-0.00911136
-0.00906155
-0.0090056
-0.00893809
-0.00885252
-0.00874149
-0.0085968
-0.00840936
-0.00816894
-0.00786408
-0.00748227
-0.00701013
-0.00643344
-0.00573714
-0.00490548
-0.00392234
-0.00277152
-0.00144231
6.56938e-05
-0.0128123
-0.0125636
-0.0122506
-0.0119402
-0.011653
-0.0113862
-0.0111373
-0.0109057
-0.0106907
-0.0104908
-0.0103048
-0.0101318
-0.00997026
-0.00981876
-0.00967682
-0.00954368
-0.00941846
-0.00930084
-0.00919028
-0.0090863
-0.00898879
-0.00889718
-0.00881062
-0.00872796
-0.00864757
-0.00856748
-0.00848464
-0.00839525
-0.00829488
-0.00817808
-0.00803835
-0.00786836
-0.00766008
-0.00740458
-0.00709186
-0.00671088
-0.00624983
-0.00569627
-0.00503709
-0.00425858
-0.00334667
-0.00228715
-0.00106602
0.000326123
0.00189016
-0.0120722
-0.0118437
-0.011557
-0.0112738
-0.0110123
-0.0107695
-0.0105431
-0.0103324
-0.0101364
-0.00995392
-0.00978354
-0.00962445
-0.00947497
-0.00933383
-0.00920026
-0.00907316
-0.00895163
-0.00883499
-0.00872242
-0.00861343
-0.00850764
-0.00840407
-0.00830172
-0.00819931
-0.00809508
-0.00798682
-0.00787148
-0.00774536
-0.00760406
-0.00744228
-0.00725379
-0.00703166
-0.00676828
-0.00645514
-0.00608275
-0.00564081
-0.00511845
-0.00450431
-0.00378649
-0.00295268
-0.00199042
-0.000887272
0.000368878
0.00178646
0.0033673
-0.0113537
-0.0111434
-0.0108807
-0.0106228
-0.0103858
-0.0101661
-0.00996144
-0.00977092
-0.00959353
-0.00942785
-0.00927275
-0.00912709
-0.00898923
-0.00885805
-0.00873241
-0.00861107
-0.00849304
-0.00837735
-0.00826303
-0.00814956
-0.00803624
-0.00792184
-0.00780527
-0.00768516
-0.00755959
-0.00742618
-0.00728196
-0.0071234
-0.00694623
-0.00674538
-0.00651509
-0.00624896
-0.0059399
-0.00557998
-0.00516046
-0.00467199
-0.00410479
-0.00344867
-0.00269302
-0.00182694
-0.00083952
0.000279938
0.00154185
0.00295358
0.0045174
-0.0106554
-0.0104612
-0.0102205
-0.00998637
-0.00977272
-0.0095755
-0.00939199
-0.00922133
-0.00906222
-0.00891328
-0.00877337
-0.00864095
-0.00851458
-0.00839312
-0.00827518
-0.00815952
-0.00804503
-0.00793055
-0.00781507
-0.00769798
-0.0075783
-0.00745471
-0.00732609
-0.00719097
-0.00704727
-0.00689255
-0.00672399
-0.00653823
-0.00633118
-0.00609812
-0.0058338
-0.00553242
-0.00518748
-0.00479173
-0.00433732
-0.00381595
-0.003219
-0.0025375
-0.00176213
-0.00088344
0.000107917
0.00122108
0.00246489
0.00384552
0.00536495
-0.00997538
-0.00979576
-0.00957538
-0.00936391
-0.00917285
-0.00899753
-0.00883502
-0.00868411
-0.00854336
-0.00841131
-0.00828663
-0.00816755
-0.00805275
-0.00794093
-0.00783068
-0.00772078
-0.00761006
-0.00749732
-0.0073816
-0.00726207
-0.00713758
-0.00700687
-0.0068688
-0.00672175
-0.00656358
-0.00639186
-0.00620397
-0.00599674
-0.00576632
-0.00550836
-0.00521817
-0.00489054
-0.00451956
-0.00409875
-0.00362117
-0.00307963
-0.00246664
-0.00177445
-0.000995074
-0.000120509
0.000857092
0.00194541
0.00315185
0.00448148
0.00593546
-0.00931168
-0.00914601
-0.00894479
-0.00875519
-0.00858627
-0.00843264
-0.00829117
-0.00816014
-0.00803801
-0.00792314
-0.0078139
-0.00770851
-0.00760553
-0.00750351
-0.00740121
-0.00729744
-0.00719101
-0.00708085
-0.00696601
-0.00684545
-0.00671798
-0.00658245
-0.0064377
-0.00628201
-0.00611324
-0.00592913
-0.00572723
-0.00550453
-0.00525749
-0.00498216
-0.00467436
-0.00432941
-0.00394203
-0.00350647
-0.00301677
-0.00246674
-0.00185003
-0.00116006
-0.000390164
0.000466244
0.00141557
0.00246405
0.00361776
0.00488077
0.00625354
-0.0086625
-0.00851084
-0.00832842
-0.00816041
-0.00801357
-0.00788172
-0.00776143
-0.00765064
-0.00754753
-0.00745025
-0.00735685
-0.00726557
-0.00717474
-0.00708298
-0.00698922
-0.0068922
-0.00679081
-0.00668423
-0.00657151
-0.00645151
-0.00632308
-0.00618523
-0.00603672
-0.00587583
-0.00570057
-0.00550887
-0.00529841
-0.00506637
-0.00480949
-0.00452425
-0.0042069
-0.00385328
-0.00345871
-0.00301818
-0.00252659
-0.00197874
-0.00136928
-0.000692781
5.61703e-05
0.000882818
0.00179218
0.00278911
0.00387835
0.00506303
0.00634335
-0.00802592
-0.00788938
-0.00772639
-0.00758042
-0.00745599
-0.00734627
-0.00724746
-0.00715737
-0.00707368
-0.0069943
-0.00691713
-0.00684033
-0.0067621
-0.00668124
-0.00659671
-0.00650725
-0.00641192
-0.00631011
-0.00620093
-0.00608325
-0.00595611
-0.00581856
-0.00566936
-0.00550688
-0.00532937
-0.00513494
-0.00492136
-0.00468599
-0.00442592
-0.00413801
-0.00381892
-0.00346491
-0.00307184
-0.00263543
-0.00215135
-0.0016153
-0.00102287
-0.000369674
0.000348574
0.0011359
0.00199606
0.0029326
0.00394894
0.00504729
0.00622759
-0.00739982
-0.00728121
-0.00713957
-0.00701693
-0.00691564
-0.0068285
-0.00675149
-0.00668226
-0.00661814
-0.00655682
-0.00649618
-0.00643413
-0.00636896
-0.00629964
-0.0062251
-0.00614414
-0.00605607
-0.00596037
-0.00585628
-0.00574288
-0.0056194
-0.00548491
-0.00533821
-0.00517787
-0.00500239
-0.00481004
-0.00459869
-0.00436591
-0.00410909
-0.00382546
-0.00351197
-0.00316528
-0.00278182
-0.00235794
-0.00189005
-0.00137457
-0.000807925
-0.000186625
0.000492603
0.00123271
0.00203633
0.00290586
0.00384347
0.00485059
0.00592705
-0.00678158
-0.00668618
-0.00656979
-0.00647277
-0.0063957
-0.00633144
-0.00627626
-0.00622766
-0.00618295
-0.00613959
-0.00609538
-0.00604815
-0.00599636
-0.00593901
-0.00587499
-0.00580342
-0.00572376
-0.00563557
-0.00553829
-0.0054313
-0.00531394
-0.00518536
-0.00504447
-0.00489011
-0.00472098
-0.00453546
-0.00433152
-0.00410694
-0.00385945
-0.00358656
-0.00328554
-0.00295343
-0.00258715
-0.00218362
-0.00173985
-0.00125289
-0.000719869
-0.000138066
0.000494911
0.00118109
0.00192217
0.00271956
0.00357438
0.00448766
0.00545988
-0.00616884
-0.00610517
-0.0060205
-0.00595272
-0.00590111
-0.00585965
-0.00582572
-0.00579691
-0.00577071
-0.00574455
-0.00571602
-0.00568313
-0.00564452
-0.00559908
-0.0055459
-0.00548439
-0.00541418
-0.00533491
-0.00524626
-0.00514789
-0.00503926
-0.00491959
-0.00478798
-0.00464347
-0.00448488
-0.00431068
-0.00411903
-0.00390799
-0.00367553
-0.00341946
-0.0031373
-0.00282646
-0.00248431
-0.00210828
-0.00169587
-0.00124465
-0.000752337
-0.000216905
0.000363329
0.00098968
0.00166311
0.00238422
0.00315331
0.00397123
0.00483963
-0.00556592
-0.00554585
-0.00550171
-0.00546707
-0.00544086
-0.00542054
-0.00540548
-0.00539417
-0.00538431
-0.00537334
-0.00535886
-0.00533913
-0.0053128
-0.00527877
-0.0052364
-0.00518539
-0.0051255
-0.00505656
-0.00497849
-0.00489111
-0.00479393
-0.00468626
-0.00456739
-0.00443648
-0.00429244
-0.00413386
-0.00395911
-0.00376654
-0.00355437
-0.00332066
-0.0030632
-0.00277974
-0.00246804
-0.00212595
-0.00175142
-0.00134248
-0.000897372
-0.000414618
0.000106949
0.000668163
0.00126947
0.00191089
0.00259205
0.00331349
0.00407751
-0.00498068
-0.00503212
-0.00504014
-0.00503928
-0.00503235
-0.00502591
-0.0050233
-0.00502422
-0.00502646
-0.00502716
-0.00502396
-0.0050152
-0.00499948
-0.00497589
-0.00494405
-0.00490386
-0.00485523
-0.00479818
-0.00473276
-0.0046588
-0.00457584
-0.0044833
-0.00438055
-0.0042668
-0.00414102
-0.004002
-0.00384841
-0.00367885
-0.00349178
-0.00328543
-0.00305789
-0.00280721
-0.00253156
-0.00222914
-0.00189829
-0.00153748
-0.00114539
-0.000720941
-0.000263317
0.000228005
0.000753154
0.00131183
0.00190328
0.00252771
0.00318733
-0.00439492
-0.00455795
-0.00466385
-0.00470031
-0.00469853
-0.00468974
-0.00468655
-0.00469008
-0.00469716
-0.0047041
-0.00470813
-0.00470727
-0.00470012
-0.00468592
-0.00466442
-0.00463556
-0.00459938
-0.00455599
-0.00450542
-0.0044474
-0.00438146
-0.00430705
-0.00422358
-0.0041303
-0.00402631
-0.00391061
-0.00378214
-0.00363973
-0.00348204
-0.00330751
-0.00311449
-0.00290136
-0.0026666
-0.00240878
-0.00212662
-0.00181897
-0.00148488
-0.00112356
-0.000734449
-0.000317244
0.000128023
0.000600976
0.00110086
0.00162795
0.00218442
-0.00377403
-0.00413982
-0.00437633
-0.0044586
-0.00444536
-0.00441198
-0.00439052
-0.00438409
-0.00438724
-0.0043944
-0.00440148
-0.00440577
-0.00440569
-0.00440042
-0.00438964
-0.00437325
-0.00435127
-0.00432371
-0.00429039
-0.00425092
-0.0042048
-0.0041515
-0.0040904
-0.00402081
-0.003942
-0.0038532
-0.00375359
-0.00364217
-0.00351774
-0.00337895
-0.00322444
-0.00305291
-0.00286316
-0.00265413
-0.0024249
-0.00217466
-0.00190274
-0.00160861
-0.00129189
-0.000952424
-0.000590321
-0.000205923
0.000200187
0.000628605
0.00108197
-0.0036693
-0.0041249
-0.00445468
-0.00442499
-0.00427664
-0.00416919
-0.00411396
-0.00409079
-0.00408606
-0.00409111
-0.00409998
-0.00410906
-0.00411644
-0.00412113
-0.00412261
-0.00412064
-0.00411504
-0.00410558
-0.00409184
-0.00407331
-0.00404945
-0.00401972
-0.00398355
-0.00394036
-0.00388954
-0.00383051
-0.00376255
-0.00368479
-0.00359623
-0.00349577
-0.00338234
-0.00325498
-0.00311284
-0.00295518
-0.00278141
-0.002591
-0.00238351
-0.00215858
-0.00191601
-0.00165576
-0.00137792
-0.00108283
-0.000771026
-0.000441798
-9.22893e-05
-0.00479828
-0.00611132
-0.00653322
-0.00521499
-0.00430603
-0.00396126
-0.00384647
-0.00380595
-0.00379771
-0.00380587
-0.0038212
-0.00383898
-0.00385711
-0.00387456
-0.00389079
-0.00390541
-0.00391806
-0.00392824
-0.00393543
-0.00393909
-0.00393867
-0.00393365
-0.00392349
-0.00390765
-0.00388567
-0.00385703
-0.00382112
-0.00377721
-0.00372449
-0.00366219
-0.00358955
-0.00350594
-0.00341081
-0.0033037
-0.00318425
-0.00305214
-0.00290711
-0.00274898
-0.0025777
-0.00239329
-0.00219588
-0.00198574
-0.00176335
-0.00152823
-0.00127829
0.000525425
-0.012475
-0.0115143
-0.00658812
-0.00447227
-0.00375425
-0.00345872
-0.00332561
-0.00327808
-0.00327554
-0.00329551
-0.00332682
-0.00336405
-0.0034043
-0.00344597
-0.00348801
-0.00352968
-0.00357029
-0.00360926
-0.00364604
-0.00368016
-0.00371117
-0.00373868
-0.00376228
-0.00378162
-0.00379632
-0.00380598
-0.00381019
-0.00380851
-0.00380053
-0.00378591
-0.00376437
-0.00373569
-0.0036997
-0.00365627
-0.00360531
-0.00354679
-0.00348076
-0.00340733
-0.00332666
-0.00323899
-0.00314459
-0.00304383
-0.00293686
-0.00282348
)
;

boundaryField
{
    leftWall
    {
        type            fixedFluxPressure;
        gradient        uniform 0;
        value           nonuniform List<scalar> 
42
(
-0.0353662
-0.0344094
-0.0334907
-0.0325797
-0.0316568
-0.0307118
-0.0297408
-0.0287454
-0.0277303
-0.0267027
-0.0256687
-0.0246342
-0.0236049
-0.0225859
-0.0215817
-0.0205957
-0.0196309
-0.0186891
-0.017772
-0.0168804
-0.0160151
-0.015176
-0.014363
-0.0135754
-0.0128123
-0.0120722
-0.0113537
-0.0106554
-0.00997538
-0.00931168
-0.0086625
-0.00802592
-0.00739982
-0.00678158
-0.00616884
-0.00556592
-0.00498068
-0.00439492
-0.00377403
-0.0036693
-0.00479828
0.000525425
)
;
    }
    rightWall
    {
        type            fixedFluxPressure;
        gradient        nonuniform 0();
        value           nonuniform 0();
    }
    lowerWall
    {
        type            fixedFluxPressure;
        gradient        nonuniform 0();
        value           nonuniform 0();
    }
    atmosphere
    {
        type            totalPressure;
        rho             rho;
        psi             none;
        gamma           1;
        p0              uniform 0;
        value           nonuniform List<scalar> 
45
(
-0.000132923
-0.00213446
-0.00249678
-0.0025364
-0.00254812
-0.0025614
-0.00258418
-0.00261774
-0.00266082
-0.00271154
-0.00276805
-0.00282876
-0.00289238
-0.00295786
-0.00302436
-0.00309117
-0.0031577
-0.00322346
-0.00328803
-0.00335101
-0.00341207
-0.0034709
-0.00352723
-0.0035808
-0.00363137
-0.00367874
-0.0037227
-0.00376309
-0.00379976
-0.00383258
-0.00386145
-0.00388631
-0.00390712
-0.00392388
-0.00393665
-0.00394553
-0.00395066
-0.00395228
-0.00395069
-0.00394627
-0.00393955
-0.00393115
-0.00392184
-0.00391257
-0.00390446
)
;
    }
    defaultFaces
    {
        type            empty;
    }
    procBoundary2to0
    {
        type            processor;
        value           nonuniform List<scalar> 
46
(
-0.00269748
-0.000324517
0.00171984
0.00342052
0.00481864
0.00598725
0.00700639
0.00795691
0.00894206
0.0100866
0.0114619
0.0129734
0.0143388
0.0152073
0.0152683
0.0141831
0.0114339
0.00630816
-0.00197876
-0.0141524
-0.0308208
-0.0524628
-0.0795083
-0.111926
-0.150113
-0.0363966
-0.0347553
-0.0327733
-0.0309132
-0.0293063
-0.0279102
-0.0266851
-0.0255982
-0.0246107
-0.0236747
-0.0227349
-0.0217305
-0.020597
-0.0192682
-0.0176799
-0.0157781
-0.0135304
-0.0109329
-0.00805174
-0.00506161
-0.00506161
)
;
    }
    procBoundary2to3
    {
        type            processor;
        value           nonuniform List<scalar> 
43
(
-0.180206
-0.167499
-0.153681
-0.139515
-0.125876
-0.112692
-0.0999447
-0.0878116
-0.0766418
-0.06676
-0.0583076
-0.0512074
-0.0452191
-0.0400273
-0.0353179
-0.030844
-0.0264564
-0.0221093
-0.0178403
-0.0137304
-0.00987487
-0.00635589
-0.00322756
-0.000519194
0.00176345
0.00363404
0.00511639
0.00623887
0.00703066
0.00752113
0.00774194
0.00772456
0.00749554
0.00707712
0.00649068
0.00575531
0.00488373
0.00388483
0.00277055
0.00155722
0.000276768
-0.00100861
-0.00270033
)
;
    }
}


// ************************************************************************* //
