/*--------------------------------*- C++ -*----------------------------------*\
| =========                 |                                                 |
| \\      /  F ield         | OpenFOAM: The Open Source CFD Toolbox           |
|  \\    /   O peration     | Version:  5.0                                   |
|   \\  /    A nd           | Web:      www.OpenFOAM.org                      |
|    \\/     M anipulation  |                                                 |
\*---------------------------------------------------------------------------*/
FoamFile
{
    version     2.0;
    format      ascii;
    class       surfaceScalarField;
    location    "1";
    object      phi;
}
// * * * * * * * * * * * * * * * * * * * * * * * * * * * * * * * * * * * * * //

dimensions      [0 3 -1 0 0 0 0];

internalField   nonuniform List<scalar> 
3742
(
1.48256e-05
6.925e-06
1.5555e-05
7.4443e-06
1.6291e-05
8.00103e-06
1.70319e-05
8.59294e-06
1.77754e-05
9.21757e-06
1.85185e-05
9.87222e-06
1.92576e-05
1.05542e-05
1.99884e-05
1.12608e-05
2.07064e-05
1.19891e-05
2.1407e-05
1.27358e-05
2.20862e-05
1.34971e-05
2.27405e-05
1.42684e-05
2.33678e-05
1.50434e-05
2.39667e-05
1.58121e-05
2.45367e-05
1.6559e-05
2.50775e-05
1.72611e-05
2.55896e-05
1.78866e-05
2.60747e-05
1.83937e-05
2.65361e-05
1.87311e-05
2.69805e-05
1.88393e-05
2.74162e-05
1.8655e-05
2.78481e-05
1.81136e-05
2.82668e-05
1.71558e-05
2.86511e-05
1.57336e-05
1.38322e-05
6.1149e-07
3.38384e-06
1.30744e-06
3.42955e-06
2.01321e-06
3.33137e-06
2.71816e-06
3.26625e-06
3.41865e-06
3.22268e-06
4.11321e-06
3.1948e-06
4.80156e-06
3.18226e-06
5.48415e-06
3.18729e-06
6.16194e-06
3.21317e-06
6.83623e-06
3.26354e-06
7.50855e-06
3.34197e-06
8.1806e-06
3.45181e-06
8.85422e-06
3.59601e-06
9.53127e-06
3.77707e-06
1.02136e-05
3.99699e-06
1.09028e-05
4.25728e-06
1.16004e-05
4.55899e-06
1.23078e-05
4.90269e-06
1.30259e-05
5.2883e-06
1.37555e-05
5.7156e-06
1.44971e-05
6.18345e-06
1.52504e-05
6.69096e-06
1.6015e-05
7.23642e-06
1.67899e-05
7.81808e-06
1.75736e-05
8.43391e-06
1.83641e-05
9.08166e-06
1.91594e-05
9.75892e-06
1.99572e-05
1.04631e-05
2.0755e-05
1.11912e-05
2.1551e-05
1.19398e-05
2.23434e-05
1.27047e-05
2.31315e-05
1.34803e-05
2.39157e-05
1.42591e-05
2.46973e-05
1.50305e-05
2.54776e-05
1.57786e-05
2.62574e-05
1.64814e-05
2.70354e-05
1.71086e-05
2.78078e-05
1.76213e-05
2.85673e-05
1.79715e-05
2.93024e-05
1.81042e-05
2.99969e-05
1.79605e-05
3.0628e-05
1.74826e-05
3.11629e-05
1.66208e-05
3.15563e-05
1.53401e-05
1.36411e-05
5.79987e-07
2.80389e-06
1.23302e-06
2.77658e-06
1.89603e-06
2.66837e-06
2.56054e-06
2.60173e-06
3.22357e-06
2.55962e-06
3.88394e-06
2.53442e-06
4.54141e-06
2.52479e-06
5.19641e-06
2.53229e-06
5.84981e-06
2.55974e-06
6.50287e-06
2.61047e-06
7.15708e-06
2.68779e-06
7.81407e-06
2.79485e-06
8.47561e-06
2.93448e-06
9.14351e-06
3.10916e-06
9.81959e-06
3.32092e-06
1.05056e-05
3.57135e-06
1.1203e-05
3.8616e-06
1.19133e-05
4.19239e-06
1.26376e-05
4.56398e-06
1.3377e-05
4.9762e-06
1.41318e-05
5.42864e-06
1.49023e-05
5.9204e-06
1.56885e-05
6.45024e-06
1.64899e-05
7.01676e-06
1.73056e-05
7.61822e-06
1.81346e-05
8.25261e-06
1.89759e-05
8.91766e-06
1.98282e-05
9.61073e-06
2.06907e-05
1.03288e-05
2.15625e-05
1.1068e-05
2.24433e-05
1.18238e-05
2.33338e-05
1.25898e-05
2.4235e-05
1.33579e-05
2.51487e-05
1.41168e-05
2.60762e-05
1.48512e-05
2.70174e-05
1.55402e-05
2.79696e-05
1.61563e-05
2.89261e-05
1.66648e-05
2.98739e-05
1.70237e-05
3.0793e-05
1.71852e-05
3.16554e-05
1.70981e-05
3.24248e-05
1.67132e-05
3.30567e-05
1.59889e-05
3.34999e-05
1.48969e-05
1.34374e-05
5.51758e-07
2.25212e-06
1.16481e-06
2.16354e-06
1.7872e-06
2.046e-06
2.41276e-06
1.97617e-06
3.03933e-06
1.93306e-06
3.66598e-06
1.90777e-06
4.29259e-06
1.89818e-06
4.91959e-06
1.9053e-06
5.5478e-06
1.93153e-06
6.1784e-06
1.97985e-06
6.81283e-06
2.05336e-06
7.45268e-06
2.15501e-06
8.09965e-06
2.28752e-06
8.75554e-06
2.45328e-06
9.42213e-06
2.65433e-06
1.01011e-05
2.89232e-06
1.07942e-05
3.1685e-06
1.15029e-05
3.48373e-06
1.22285e-05
3.83845e-06
1.29719e-05
4.23275e-06
1.3734e-05
4.6665e-06
1.45154e-05
5.13903e-06
1.53162e-05
5.64944e-06
1.61364e-05
6.19654e-06
1.69758e-05
6.77883e-06
1.7834e-05
7.39445e-06
1.87105e-05
8.04118e-06
1.96048e-05
8.71638e-06
2.05168e-05
9.41686e-06
2.14462e-05
1.01386e-05
2.23933e-05
1.08766e-05
2.33589e-05
1.16243e-05
2.43438e-05
1.2373e-05
2.5349e-05
1.31116e-05
2.63748e-05
1.38254e-05
2.74199e-05
1.44952e-05
2.84797e-05
1.50965e-05
2.95452e-05
1.55993e-05
3.0601e-05
1.5968e-05
3.16238e-05
1.61623e-05
3.25819e-05
1.614e-05
3.34348e-05
1.58604e-05
3.41345e-05
1.52891e-05
3.46284e-05
1.44031e-05
1.32004e-05
5.25006e-07
1.7271e-06
1.10092e-06
1.58761e-06
1.6851e-06
1.46182e-06
2.27356e-06
1.38772e-06
2.86493e-06
1.3417e-06
3.45864e-06
1.31406e-06
4.0547e-06
1.30213e-06
4.65354e-06
1.30646e-06
5.25599e-06
1.32909e-06
5.86317e-06
1.37267e-06
6.47645e-06
1.44008e-06
7.09738e-06
1.53409e-06
7.72763e-06
1.65728e-06
8.36893e-06
1.81198e-06
9.02307e-06
2.00018e-06
9.6918e-06
2.22359e-06
1.03768e-05
2.4835e-06
1.10796e-05
2.78091e-06
1.18016e-05
3.11642e-06
1.2544e-05
3.49034e-06
1.33079e-05
3.90268e-06
1.40938e-05
4.35306e-06
1.49025e-05
4.8408e-06
1.57341e-05
5.36491e-06
1.65889e-05
5.92406e-06
1.74668e-05
6.51654e-06
1.83678e-05
7.14018e-06
1.92918e-05
7.79236e-06
2.02389e-05
8.46982e-06
2.12091e-05
9.16846e-06
2.22026e-05
9.88312e-06
2.32198e-05
1.06071e-05
2.42608e-05
1.1332e-05
2.53255e-05
1.20469e-05
2.64128e-05
1.27381e-05
2.75196e-05
1.33884e-05
2.86397e-05
1.39764e-05
2.97626e-05
1.44765e-05
3.08716e-05
1.48589e-05
3.19431e-05
1.50908e-05
3.29452e-05
1.51379e-05
3.38386e-05
1.4967e-05
3.45773e-05
1.45504e-05
3.51111e-05
1.38693e-05
1.29196e-05
4.9861e-07
1.22848e-06
1.0398e-06
1.04639e-06
1.58826e-06
9.13354e-07
2.14166e-06
8.34315e-07
2.69936e-06
7.83989e-07
3.26117e-06
7.52263e-07
3.82722e-06
7.36095e-07
4.39802e-06
7.35674e-07
4.97439e-06
7.52722e-07
5.55744e-06
7.89644e-07
6.14847e-06
8.49065e-07
6.74897e-06
9.33579e-07
7.3606e-06
1.04566e-06
7.98505e-06
1.18752e-06
8.6241e-06
1.36114e-06
9.27947e-06
1.56821e-06
9.95288e-06
1.81008e-06
1.06459e-05
2.08784e-06
1.13601e-05
2.40225e-06
1.20967e-05
2.75374e-06
1.28569e-05
3.1425e-06
1.36416e-05
3.56835e-06
1.44516e-05
4.03081e-06
1.52874e-05
4.52908e-06
1.61495e-05
5.06199e-06
1.70381e-05
5.62796e-06
1.79534e-05
6.22494e-06
1.88953e-05
6.85037e-06
1.98641e-05
7.50102e-06
2.08598e-05
8.17285e-06
2.18821e-05
8.86078e-06
2.29309e-05
9.55834e-06
2.40055e-05
1.02574e-05
2.51044e-05
1.09479e-05
2.62252e-05
1.16174e-05
2.73631e-05
1.22504e-05
2.85107e-05
1.28288e-05
2.96563e-05
1.33309e-05
3.0783e-05
1.37322e-05
3.18679e-05
1.4006e-05
3.28811e-05
1.41246e-05
3.37863e-05
1.40618e-05
3.45417e-05
1.3795e-05
3.51023e-05
1.33088e-05
1.2598e-05
4.72238e-07
7.56231e-07
9.80682e-07
5.37924e-07
1.49568e-06
3.98344e-07
2.01606e-06
3.13932e-07
2.54174e-06
2.58314e-07
3.07281e-06
2.21201e-07
3.60958e-06
1.99323e-07
4.15265e-06
1.92615e-07
4.70284e-06
2.02537e-07
5.26125e-06
2.31245e-07
5.82915e-06
2.8116e-07
6.40801e-06
3.5472e-07
6.99941e-06
4.54252e-07
7.60503e-06
5.8189e-07
8.22663e-06
7.39547e-07
8.86591e-06
9.28905e-07
9.52462e-06
1.15137e-06
1.02044e-05
1.40808e-06
1.09067e-05
1.69989e-06
1.16331e-05
2.02739e-06
1.23847e-05
2.39089e-06
1.31627e-05
2.79039e-06
1.39679e-05
3.2256e-06
1.48011e-05
3.69589e-06
1.56628e-05
4.20025e-06
1.65535e-05
4.73728e-06
1.74734e-05
5.30509e-06
1.84225e-05
5.90123e-06
1.94009e-05
6.52264e-06
2.04083e-05
7.16546e-06
2.14442e-05
7.82487e-06
2.25077e-05
8.49482e-06
2.35973e-05
9.16783e-06
2.47105e-05
9.83473e-06
2.58434e-05
1.04844e-05
2.69903e-05
1.11036e-05
2.81426e-05
1.16766e-05
2.9288e-05
1.21854e-05
3.04102e-05
1.26101e-05
3.14872e-05
1.29289e-05
3.24919e-05
1.312e-05
3.33916e-05
1.31621e-05
3.41495e-05
1.30371e-05
3.47261e-05
1.27323e-05
1.22419e-05
4.45938e-07
3.1028e-07
9.23331e-07
6.05138e-08
1.40689e-06
-8.5231e-08
1.89614e-06
-1.75322e-07
2.39138e-06
-2.36922e-07
2.89293e-06
-2.80352e-07
3.40128e-06
-3.09009e-07
3.91706e-06
-3.23158e-07
4.44114e-06
-3.2155e-07
4.97462e-06
-3.02227e-07
5.51874e-06
-2.62962e-07
6.07494e-06
-2.01475e-07
6.64476e-06
-1.15577e-07
7.22984e-06
-3.22058e-09
7.83193e-06
1.37467e-07
8.4527e-06
3.08114e-07
9.0939e-06
5.10164e-07
9.75718e-06
7.44797e-07
1.04441e-05
1.01295e-06
1.11562e-05
1.31533e-06
1.18947e-05
1.65238e-06
1.26608e-05
2.02426e-06
1.34556e-05
2.43083e-06
1.42798e-05
2.87165e-06
1.51342e-05
3.3459e-06
1.60191e-05
3.85237e-06
1.69348e-05
4.38937e-06
1.78814e-05
4.95469e-06
1.88585e-05
5.54548e-06
1.98658e-05
6.1582e-06
2.09022e-05
6.78843e-06
2.19663e-05
7.4307e-06
2.30559e-05
8.07829e-06
2.41675e-05
8.72309e-06
2.52965e-05
9.35543e-06
2.64361e-05
9.9639e-06
2.75773e-05
1.05354e-05
2.87077e-05
1.1055e-05
2.98115e-05
1.15063e-05
3.08683e-05
1.18721e-05
3.18537e-05
1.21346e-05
3.27388e-05
1.22769e-05
3.34915e-05
1.22844e-05
3.40776e-05
1.21462e-05
1.18566e-05
4.19889e-07
-1.09626e-07
8.67777e-07
-3.87383e-07
1.32169e-06
-5.39158e-07
1.78153e-06
-6.35165e-07
2.24783e-06
-7.03215e-07
2.72109e-06
-7.53599e-07
3.20188e-06
-7.89789e-07
3.69091e-06
-8.1219e-07
4.1891e-06
-8.19729e-07
4.69751e-06
-8.10629e-07
5.21739e-06
-7.82837e-07
5.75013e-06
-7.34223e-07
6.29724e-06
-6.62707e-07
6.86035e-06
-5.66339e-07
7.44113e-06
-4.43321e-07
8.04128e-06
-2.92038e-07
8.66249e-06
-1.1106e-07
9.30644e-06
1.00836e-07
9.97472e-06
3.44666e-07
1.06688e-05
6.21233e-07
1.13901e-05
9.31087e-07
1.21398e-05
1.27454e-06
1.2919e-05
1.65162e-06
1.37286e-05
2.06208e-06
1.45692e-05
2.50529e-06
1.54413e-05
2.98028e-06
1.63451e-05
3.4856e-06
1.72805e-05
4.01931e-06
1.82471e-05
4.57891e-06
1.9244e-05
5.16126e-06
2.027e-05
5.76241e-06
2.13232e-05
6.37756e-06
2.24006e-05
7.00086e-06
2.34984e-05
7.62529e-06
2.46112e-05
8.24261e-06
2.57319e-05
8.84322e-06
2.68511e-05
9.41617e-06
2.79568e-05
9.94928e-06
2.90339e-05
1.04293e-05
3.00639e-05
1.08421e-05
3.10249e-05
1.11736e-05
3.18915e-05
1.14103e-05
3.26359e-05
1.154e-05
3.32288e-05
1.15534e-05
1.14448e-05
3.94418e-07
-5.04053e-07
8.14165e-07
-8.0714e-07
1.24002e-06
-9.65026e-07
1.67203e-06
-1.06717e-06
2.1108e-06
-1.14198e-06
2.55693e-06
-1.19972e-06
3.01106e-06
-1.24391e-06
3.47395e-06
-1.27508e-06
3.94653e-06
-1.2923e-06
4.42987e-06
-1.29396e-06
4.92519e-06
-1.27817e-06
5.43388e-06
-1.2429e-06
5.95738e-06
-1.18623e-06
6.49731e-06
-1.10626e-06
7.05527e-06
-1.00129e-06
7.63295e-06
-8.69732e-07
8.23202e-06
-7.10148e-07
8.85413e-06
-5.21292e-07
9.5009e-06
-3.02091e-07
1.01738e-05
-5.16626e-08
1.08742e-05
2.3066e-07
1.16034e-05
5.45331e-07
1.23625e-05
8.92557e-07
1.31523e-05
1.27225e-06
1.39736e-05
1.68405e-06
1.48267e-05
2.12718e-06
1.57118e-05
2.60053e-06
1.66286e-05
3.10247e-06
1.75767e-05
3.6309e-06
1.85548e-05
4.18311e-06
1.95615e-05
4.75574e-06
2.05943e-05
5.34469e-06
2.16502e-05
5.94498e-06
2.27248e-05
6.55072e-06
2.38124e-05
7.15498e-06
2.49058e-05
7.74982e-06
2.59957e-05
8.32625e-06
2.70707e-05
8.87434e-06
2.81166e-05
9.38331e-06
2.91168e-05
9.8419e-06
3.00518e-05
1.02387e-05
3.08995e-05
1.05626e-05
3.16358e-05
1.08036e-05
3.22357e-05
1.09535e-05
1.10066e-05
3.69742e-07
-8.73805e-07
7.62642e-07
-1.20005e-06
1.16193e-06
-1.36432e-06
1.56755e-06
-1.4728e-06
1.9801e-06
-1.55454e-06
2.4002e-06
-1.61983e-06
2.82855e-06
-1.67225e-06
3.26592e-06
-1.71245e-06
3.71326e-06
-1.73963e-06
4.17161e-06
-1.75233e-06
4.64223e-06
-1.74877e-06
5.12641e-06
-1.72708e-06
5.62561e-06
-1.68542e-06
6.14136e-06
-1.62202e-06
6.67524e-06
-1.5352e-06
7.22892e-06
-1.42341e-06
7.80401e-06
-1.28525e-06
8.40214e-06
-1.11943e-06
9.0249e-06
-9.24847e-07
9.67378e-06
-7.00534e-07
1.03502e-05
-4.45714e-07
1.10553e-05
-1.59796e-07
1.17903e-05
1.57593e-07
1.2556e-05
5.06569e-07
1.3353e-05
8.8699e-07
1.41819e-05
1.29838e-06
1.50425e-05
1.73991e-06
1.59346e-05
2.21034e-06
1.68575e-05
2.70799e-06
1.781e-05
3.23066e-06
1.87902e-05
3.77557e-06
1.97955e-05
4.33934e-06
2.08226e-05
4.91786e-06
2.18671e-05
5.50628e-06
2.29231e-05
6.09895e-06
2.39836e-05
6.68936e-06
2.50396e-05
7.27022e-06
2.60805e-05
7.83348e-06
2.70933e-05
8.37047e-06
2.80632e-05
8.87207e-06
2.89729e-05
9.32899e-06
2.98033e-05
9.73212e-06
3.05339e-05
1.0073e-05
3.11433e-05
1.03442e-05
1.054e-05
3.45801e-07
-1.21961e-06
7.13319e-07
-1.56756e-06
1.08746e-06
-1.73846e-06
1.46803e-06
-1.85337e-06
1.85557e-06
-1.94207e-06
2.25068e-06
-2.01494e-06
2.65408e-06
-2.07565e-06
3.06657e-06
-2.12493e-06
3.48908e-06
-2.16213e-06
3.92265e-06
-2.18591e-06
4.3685e-06
-2.1946e-06
4.8279e-06
-2.18648e-06
5.30226e-06
-2.15978e-06
5.79306e-06
-2.11283e-06
6.30185e-06
-2.04401e-06
6.83025e-06
-1.9518e-06
7.37982e-06
-1.83483e-06
7.95216e-06
-1.69178e-06
8.54884e-06
-1.52151e-06
9.1713e-06
-1.32299e-06
9.82092e-06
-1.09533e-06
1.0499e-05
-8.37818e-07
1.12065e-05
-5.49906e-07
1.19443e-05
-2.31268e-07
1.27131e-05
1.18183e-07
1.35132e-05
4.98264e-07
1.43447e-05
9.08476e-07
1.5207e-05
1.34796e-06
1.60996e-05
1.81548e-06
1.70209e-05
2.30936e-06
1.7969e-05
2.82741e-06
1.89414e-05
3.36696e-06
1.99345e-05
3.92474e-06
2.0944e-05
4.49686e-06
2.19642e-05
5.07877e-06
2.29882e-05
5.66528e-06
2.40079e-05
6.25052e-06
2.50134e-05
6.82803e-06
2.59931e-05
7.39081e-06
2.69337e-05
7.93144e-06
2.78204e-05
8.44231e-06
2.86367e-05
8.91578e-06
2.93652e-05
9.34456e-06
2.99877e-05
9.72171e-06
1.00416e-05
3.22927e-07
-1.54253e-06
6.66395e-07
-1.91101e-06
1.01669e-06
-2.08875e-06
1.37343e-06
-2.21009e-06
1.73704e-06
-2.30567e-06
2.10814e-06
-2.38602e-06
2.48741e-06
-2.45491e-06
2.87566e-06
-2.51317e-06
3.27378e-06
-2.56025e-06
3.68284e-06
-2.59495e-06
4.10398e-06
-2.61572e-06
4.53844e-06
-2.62094e-06
4.98761e-06
-2.60894e-06
5.4529e-06
-2.57812e-06
5.93582e-06
-2.52693e-06
6.43792e-06
-2.45389e-06
6.96072e-06
-2.35764e-06
7.5058e-06
-2.23686e-06
8.07466e-06
-2.09037e-06
8.66873e-06
-1.91706e-06
9.28935e-06
-1.71597e-06
9.93777e-06
-1.48623e-06
1.0615e-05
-1.22715e-06
1.13219e-05
-9.38194e-07
1.20592e-05
-6.19041e-07
1.2827e-05
-2.69581e-07
1.36254e-05
1.10027e-07
1.44541e-05
5.19309e-07
1.53121e-05
9.57477e-07
1.61981e-05
1.42335e-06
1.71102e-05
1.91536e-06
1.80457e-05
2.43148e-06
1.90012e-05
2.96922e-06
1.99725e-05
3.52557e-06
2.09543e-05
4.09698e-06
2.19402e-05
4.67934e-06
2.29227e-05
5.268e-06
2.3893e-05
5.85779e-06
2.48408e-05
6.44304e-06
2.57545e-05
7.0177e-06
2.66214e-05
7.5754e-06
2.74276e-05
8.10961e-06
2.81583e-05
8.61388e-06
2.87983e-05
9.08176e-06
9.50758e-06
3.01241e-07
-1.84376e-06
6.21976e-07
-2.23172e-06
9.49624e-07
-2.41639e-06
1.28363e-06
-2.54408e-06
1.62434e-06
-2.64638e-06
1.97232e-06
-2.734e-06
2.32824e-06
-2.81082e-06
2.6929e-06
-2.87779e-06
3.06714e-06
-2.93449e-06
3.452e-06
-2.9798e-06
3.84859e-06
-3.0123e-06
4.25812e-06
-3.03046e-06
4.6819e-06
-3.03271e-06
5.12128e-06
-3.01752e-06
5.57776e-06
-2.9834e-06
6.05279e-06
-2.92892e-06
6.54787e-06
-2.85273e-06
7.06452e-06
-2.75351e-06
7.60418e-06
-2.63003e-06
8.16827e-06
-2.48116e-06
8.75811e-06
-2.30581e-06
9.37488e-06
-2.10301e-06
1.00196e-05
-1.87191e-06
1.06932e-05
-1.61178e-06
1.13962e-05
-1.32206e-06
1.2129e-05
-1.00235e-06
1.28915e-05
-6.52502e-07
1.36834e-05
-2.7259e-07
1.45039e-05
1.37023e-07
1.53516e-05
5.75655e-07
1.62247e-05
1.04229e-06
1.71206e-05
1.53553e-06
1.80363e-05
2.05358e-06
1.89676e-05
2.59421e-06
1.99099e-05
3.15473e-06
2.08573e-05
3.73195e-06
2.1803e-05
4.32224e-06
2.27394e-05
4.92145e-06
2.36574e-05
5.52498e-06
2.45473e-05
6.12779e-06
2.53983e-05
6.72449e-06
2.61985e-05
7.30936e-06
2.69359e-05
7.87652e-06
2.75977e-05
8.41991e-06
8.93375e-06
2.80886e-07
-2.12464e-06
5.80092e-07
-2.53091e-06
8.86187e-07
-2.72247e-06
1.19846e-06
-2.85635e-06
1.51722e-06
-2.96511e-06
1.84295e-06
-3.05971e-06
2.1763e-06
-3.14415e-06
2.518e-06
-3.21948e-06
2.86889e-06
-3.28539e-06
3.22995e-06
-3.34086e-06
3.60225e-06
-3.38459e-06
3.98695e-06
-3.41514e-06
4.38528e-06
-3.43103e-06
4.79857e-06
-3.43081e-06
5.22823e-06
-3.41304e-06
5.67566e-06
-3.37635e-06
6.14231e-06
-3.31938e-06
6.62965e-06
-3.24084e-06
7.13908e-06
-3.13947e-06
7.67197e-06
-3.01406e-06
8.22964e-06
-2.86347e-06
8.81323e-06
-2.68662e-06
9.42378e-06
-2.48248e-06
1.00622e-05
-2.25017e-06
1.0729e-05
-1.98888e-06
1.14246e-05
-1.69796e-06
1.2149e-05
-1.37695e-06
1.2902e-05
-1.02555e-06
1.36827e-05
-6.43723e-07
1.44901e-05
-2.31686e-07
1.53223e-05
2.1006e-07
1.61771e-05
6.80683e-07
1.70517e-05
1.17901e-06
1.79424e-05
1.70349e-06
1.8845e-05
2.25215e-06
1.97543e-05
2.82261e-06
2.06646e-05
3.412e-06
2.1569e-05
4.01703e-06
2.24601e-05
4.6339e-06
2.33295e-05
5.25836e-06
2.41683e-05
5.8857e-06
2.49669e-05
6.51081e-06
2.57152e-05
7.12821e-06
2.64029e-05
7.73211e-06
8.31661e-06
2.61826e-07
-2.38644e-06
5.40645e-07
-2.80972e-06
8.26203e-07
-3.008e-06
1.11772e-06
-3.14785e-06
1.41541e-06
-3.26278e-06
1.71971e-06
-3.36401e-06
2.03125e-06
-3.45565e-06
2.35066e-06
-3.53889e-06
2.67877e-06
-3.61349e-06
3.01649e-06
-3.67858e-06
3.36484e-06
-3.73293e-06
3.72492e-06
-3.7752e-06
4.0979e-06
-3.80401e-06
4.48505e-06
-3.81796e-06
4.88771e-06
-3.8157e-06
5.30722e-06
-3.79587e-06
5.745e-06
-3.75716e-06
6.20243e-06
-3.69827e-06
6.6809e-06
-3.61794e-06
7.18173e-06
-3.51491e-06
7.7062e-06
-3.38796e-06
8.25548e-06
-3.23591e-06
8.83059e-06
-3.05762e-06
9.43241e-06
-2.852e-06
1.00616e-05
-2.61807e-06
1.07186e-05
-2.35492e-06
1.14034e-05
-2.06179e-06
1.21159e-05
-1.73808e-06
1.28556e-05
-1.38335e-06
1.36213e-05
-9.97401e-07
1.44116e-05
-5.80273e-07
1.52246e-05
-1.32288e-07
1.60577e-05
3.45914e-07
1.69078e-05
8.53362e-07
1.77712e-05
1.3887e-06
1.86437e-05
1.95016e-06
1.95201e-05
2.53555e-06
2.0395e-05
3.1422e-06
2.1262e-05
3.76693e-06
2.21143e-05
4.40606e-06
2.29446e-05
5.0554e-06
2.37451e-05
5.71024e-06
2.4508e-05
6.36536e-06
2.52249e-05
7.01515e-06
7.65358e-06
2.43943e-07
-2.63037e-06
5.03471e-07
-3.06923e-06
7.69458e-07
-3.27398e-06
1.04114e-06
-3.41951e-06
1.31862e-06
-3.54026e-06
1.60233e-06
-3.64771e-06
1.89279e-06
-3.74609e-06
2.1906e-06
-3.8367e-06
2.49653e-06
-3.91943e-06
2.81143e-06
-3.99348e-06
3.13625e-06
-4.05774e-06
3.47202e-06
-4.11096e-06
3.81986e-06
-4.15185e-06
4.18098e-06
-4.17908e-06
4.55664e-06
-4.19135e-06
4.94813e-06
-4.18736e-06
5.3568e-06
-4.16583e-06
5.78398e-06
-4.12546e-06
6.23104e-06
-4.06499e-06
6.69926e-06
-3.98314e-06
7.18989e-06
-3.87861e-06
7.70409e-06
-3.75013e-06
8.24293e-06
-3.59647e-06
8.8073e-06
-3.41637e-06
9.39791e-06
-3.20868e-06
1.00152e-05
-2.97226e-06
1.06595e-05
-2.7061e-06
1.13308e-05
-2.40928e-06
1.20285e-05
-2.08106e-06
1.27519e-05
-1.72084e-06
1.34999e-05
-1.32826e-06
1.42708e-05
-9.03212e-07
1.50626e-05
-4.45867e-07
1.58726e-05
4.32864e-08
1.66979e-05
5.63387e-07
1.75349e-05
1.11319e-06
1.83795e-05
1.69099e-06
1.92271e-05
2.29461e-06
2.00727e-05
2.92134e-06
2.09108e-05
3.56792e-06
2.17357e-05
4.2305e-06
2.25413e-05
4.90463e-06
2.33214e-05
5.58528e-06
2.40696e-05
6.26693e-06
6.94341e-06
2.27093e-07
-2.85745e-06
4.68338e-07
-3.31046e-06
7.1571e-07
-3.52133e-06
9.68439e-07
-3.67221e-06
1.22658e-06
-3.79841e-06
1.4905e-06
-3.91162e-06
1.76064e-06
-4.01622e-06
2.03757e-06
-4.11363e-06
2.32196e-06
-4.20382e-06
2.6146e-06
-4.28612e-06
2.91638e-06
-4.35951e-06
3.22826e-06
-4.42284e-06
3.55129e-06
-4.47488e-06
3.88662e-06
-4.5144e-06
4.23543e-06
-4.54015e-06
4.59897e-06
-4.55089e-06
4.97851e-06
-4.54536e-06
5.37535e-06
-4.52231e-06
5.7908e-06
-4.48045e-06
6.22614e-06
-4.41847e-06
6.68259e-06
-4.33506e-06
7.16132e-06
-4.22888e-06
7.66341e-06
-4.09857e-06
8.18982e-06
-3.94278e-06
8.74131e-06
-3.76018e-06
9.3185e-06
-3.54945e-06
9.92175e-06
-3.30935e-06
1.05512e-05
-3.03872e-06
1.12066e-05
-2.7365e-06
1.18876e-05
-2.40179e-06
1.25932e-05
-2.03388e-06
1.33223e-05
-1.63229e-06
1.40732e-05
-1.19681e-06
1.4844e-05
-7.27529e-07
1.56323e-05
-2.24898e-07
1.64353e-05
3.10227e-07
1.72497e-05
8.76536e-07
1.80721e-05
1.47222e-06
1.88986e-05
2.0949e-06
1.97249e-05
2.7416e-06
2.05467e-05
3.40873e-06
2.13593e-05
4.092e-06
2.21581e-05
4.78649e-06
2.29383e-05
5.48669e-06
6.18638e-06
2.11134e-07
-3.06858e-06
4.35055e-07
-3.53437e-06
6.64736e-07
-3.75099e-06
8.99398e-07
-3.90686e-06
1.13906e-06
-4.03808e-06
1.384e-06
-4.15655e-06
1.63461e-06
-4.26682e-06
1.89137e-06
-4.37038e-06
2.15488e-06
-4.46734e-06
2.42588e-06
-4.55712e-06
2.70517e-06
-4.6388e-06
2.99366e-06
-4.71132e-06
3.29232e-06
-4.77354e-06
3.60222e-06
-4.8243e-06
3.92449e-06
-4.86242e-06
4.26032e-06
-4.88671e-06
4.61091e-06
-4.89595e-06
4.97752e-06
-4.88893e-06
5.36142e-06
-4.86435e-06
5.76387e-06
-4.82091e-06
6.18607e-06
-4.75727e-06
6.62922e-06
-4.67203e-06
7.09442e-06
-4.56378e-06
7.58268e-06
-4.43105e-06
8.09487e-06
-4.27238e-06
8.63173e-06
-4.08631e-06
9.19378e-06
-3.87141e-06
9.78135e-06
-3.62629e-06
1.03945e-05
-3.34966e-06
1.10331e-05
-3.04036e-06
1.16966e-05
-2.69739e-06
1.23843e-05
-2.31996e-06
1.3095e-05
-1.90755e-06
1.38274e-05
-1.45992e-06
1.45797e-05
-9.77216e-07
1.53499e-05
-4.59985e-07
1.61357e-05
9.0756e-08
1.69345e-05
6.73461e-07
1.77434e-05
1.28601e-06
1.85593e-05
1.92563e-06
1.93792e-05
2.58888e-06
2.01996e-05
3.27159e-06
2.10172e-05
3.9689e-06
2.18285e-05
4.6753e-06
5.38451e-06
1.95956e-07
-3.26454e-06
4.03476e-07
-3.74188e-06
6.16377e-07
-3.96388e-06
8.3386e-07
-4.12434e-06
1.0559e-06
-4.26011e-06
1.28269e-06
-4.38333e-06
1.51454e-06
-4.49866e-06
1.75187e-06
-4.60771e-06
1.99522e-06
-4.7107e-06
2.24523e-06
-4.80714e-06
2.50265e-06
-4.89622e-06
2.7683e-06
-4.97697e-06
3.04312e-06
-5.04834e-06
3.32807e-06
-5.10924e-06
3.62423e-06
-5.15858e-06
3.93273e-06
-5.1952e-06
4.25472e-06
-5.21794e-06
4.59141e-06
-5.22562e-06
4.94404e-06
-5.21696e-06
5.31382e-06
-5.19068e-06
5.70197e-06
-5.14543e-06
6.10969e-06
-5.07976e-06
6.53813e-06
-4.99223e-06
6.98837e-06
-4.88128e-06
7.46137e-06
-4.74539e-06
7.95801e-06
-4.58295e-06
8.47899e-06
-4.39238e-06
9.02486e-06
-4.17215e-06
9.59597e-06
-3.92077e-06
1.01925e-05
-3.63686e-06
1.08142e-05
-3.31918e-06
1.1461e-05
-2.96672e-06
1.21321e-05
-2.57869e-06
1.28268e-05
-2.15461e-06
1.3544e-05
-1.69439e-06
1.42824e-05
-1.19834e-06
1.50404e-05
-6.6727e-07
1.58164e-05
-1.02516e-07
1.66084e-05
4.93962e-07
1.74145e-05
1.11955e-06
1.82324e-05
1.77092e-06
1.906e-05
2.44399e-06
1.9895e-05
3.13392e-06
2.07351e-05
3.83521e-06
4.54158e-06
1.81526e-07
-3.44606e-06
3.73541e-07
-3.9339e-06
5.70579e-07
-4.16089e-06
7.71769e-07
-4.32553e-06
9.77044e-07
-4.46538e-06
1.1865e-06
-4.59279e-06
1.40038e-06
-4.71254e-06
1.61903e-06
-4.82637e-06
1.84293e-06
-4.9346e-06
2.07265e-06
-5.03686e-06
2.30885e-06
-5.13242e-06
2.55232e-06
-5.22042e-06
2.80388e-06
-5.29989e-06
3.06446e-06
-5.36983e-06
3.33508e-06
-5.42919e-06
3.61679e-06
-5.47689e-06
3.91069e-06
-5.51184e-06
4.21795e-06
-5.53287e-06
4.53976e-06
-5.53876e-06
4.87732e-06
-5.52824e-06
5.23184e-06
-5.49995e-06
5.60454e-06
-5.45247e-06
5.99662e-06
-5.38429e-06
6.40919e-06
-5.29387e-06
6.84337e-06
-5.17956e-06
7.30013e-06
-5.03971e-06
7.78039e-06
-4.87264e-06
8.28491e-06
-4.67668e-06
8.81434e-06
-4.4502e-06
9.36915e-06
-4.19167e-06
9.94963e-06
-3.89967e-06
1.05559e-05
-3.57301e-06
1.11879e-05
-3.2107e-06
1.18454e-05
-2.81209e-06
1.25279e-05
-2.37689e-06
1.32348e-05
-1.90525e-06
1.39654e-05
-1.39781e-06
1.47186e-05
-8.55777e-07
1.54936e-05
-2.8098e-07
1.6289e-05
3.24074e-07
1.71038e-05
9.56144e-07
1.79366e-05
1.61123e-06
1.8786e-05
2.28454e-06
1.96506e-05
2.97059e-06
3.66313e-06
1.67869e-07
-3.61392e-06
3.45304e-07
-4.11132e-06
5.27364e-07
-4.34293e-06
7.13151e-07
-4.51132e-06
9.02499e-07
-4.65473e-06
1.09544e-06
-4.78573e-06
1.29214e-06
-4.90924e-06
1.49289e-06
-5.02712e-06
1.69808e-06
-5.13979e-06
1.90822e-06
-5.24699e-06
2.12392e-06
-5.34811e-06
2.34588e-06
-5.44237e-06
2.57487e-06
-5.52888e-06
2.81176e-06
-5.60672e-06
3.0575e-06
-5.67492e-06
3.31307e-06
-5.73246e-06
3.57954e-06
-5.77831e-06
3.85803e-06
-5.81135e-06
4.14967e-06
-5.8304e-06
4.45565e-06
-5.83422e-06
4.77718e-06
-5.82148e-06
5.11548e-06
-5.79078e-06
5.47179e-06
-5.7406e-06
5.84731e-06
-5.66938e-06
6.24322e-06
-5.57547e-06
6.66068e-06
-5.45716e-06
7.10074e-06
-5.31271e-06
7.56443e-06
-5.14037e-06
8.05265e-06
-4.93842e-06
8.56621e-06
-4.70523e-06
9.10579e-06
-4.43926e-06
9.67194e-06
-4.13917e-06
1.02651e-05
-3.80386e-06
1.08855e-05
-3.43253e-06
1.15334e-05
-3.02475e-06
1.22087e-05
-2.58054e-06
1.29113e-05
-2.10044e-06
1.36411e-05
-1.58554e-06
1.43977e-05
-1.03758e-06
1.51807e-05
-4.58979e-07
1.59897e-05
1.47103e-07
1.68242e-05
7.76751e-07
1.76835e-05
1.42527e-06
1.85668e-05
2.08722e-06
2.75645e-06
1.55061e-07
-3.76899e-06
3.18858e-07
-4.27511e-06
4.86844e-07
-4.51092e-06
6.58107e-07
-4.68258e-06
8.32365e-07
-4.82899e-06
1.00961e-06
-4.96296e-06
1.18992e-06
-5.08954e-06
1.37352e-06
-5.21071e-06
1.56075e-06
-5.32702e-06
1.75206e-06
-5.4383e-06
1.948e-06
-5.54404e-06
2.1492e-06
-5.64355e-06
2.35637e-06
-5.73605e-06
2.57032e-06
-5.82067e-06
2.79195e-06
-5.89653e-06
3.02217e-06
-5.96269e-06
3.26201e-06
-6.01814e-06
3.51253e-06
-6.06185e-06
3.77481e-06
-6.09269e-06
4.05004e-06
-6.10945e-06
4.33941e-06
-6.11085e-06
4.64414e-06
-6.09551e-06
4.96551e-06
-6.06196e-06
5.30477e-06
-6.00864e-06
5.6632e-06
-5.93389e-06
6.04208e-06
-5.83602e-06
6.44264e-06
-5.71327e-06
6.86612e-06
-5.56384e-06
7.31368e-06
-5.38599e-06
7.78645e-06
-5.178e-06
8.28546e-06
-4.93828e-06
8.81169e-06
-4.66541e-06
9.36601e-06
-4.35819e-06
9.94921e-06
-4.01573e-06
1.0562e-05
-3.63751e-06
1.12049e-05
-3.22346e-06
1.18785e-05
-2.77401e-06
1.25831e-05
-2.29018e-06
1.33191e-05
-1.77362e-06
1.40868e-05
-1.22668e-06
1.48864e-05
-6.52413e-07
1.57178e-05
-5.46522e-08
1.6581e-05
5.62034e-07
1.74759e-05
1.19232e-06
1.83024e-06
1.43227e-07
-3.91221e-06
2.94348e-07
-4.42623e-06
4.49192e-07
-4.66576e-06
6.06785e-07
-4.84016e-06
7.6679e-07
-4.98899e-06
9.29123e-07
-5.12527e-06
1.09381e-06
-5.25422e-06
1.26103e-06
-5.37792e-06
1.43108e-06
-5.49704e-06
1.60432e-06
-5.61153e-06
1.78127e-06
-5.72098e-06
1.9625e-06
-5.82477e-06
2.14866e-06
-5.92221e-06
2.34052e-06
-6.01254e-06
2.53891e-06
-6.09491e-06
2.74468e-06
-6.16846e-06
2.95881e-06
-6.23227e-06
3.18231e-06
-6.28534e-06
3.41622e-06
-6.32661e-06
3.6617e-06
-6.35493e-06
3.91992e-06
-6.36907e-06
4.19211e-06
-6.36769e-06
4.47954e-06
-6.34939e-06
4.78353e-06
-6.31262e-06
5.10545e-06
-6.2558e-06
5.44666e-06
-6.17722e-06
5.80856e-06
-6.07516e-06
6.19257e-06
-5.94785e-06
6.60009e-06
-5.79351e-06
7.03254e-06
-5.61044e-06
7.49127e-06
-5.39702e-06
7.97763e-06
-5.15178e-06
8.49293e-06
-4.87349e-06
9.03839e-06
-4.56119e-06
9.61519e-06
-4.21431e-06
1.02244e-05
-3.8327e-06
1.08671e-05
-3.41672e-06
1.15442e-05
-2.9673e-06
1.22566e-05
-2.48602e-06
1.30051e-05
-1.97511e-06
1.37902e-05
-1.43755e-06
1.46126e-05
-8.77031e-07
1.54726e-05
-2.97982e-07
1.63704e-05
2.94457e-07
8.94522e-07
1.32477e-07
-4.04469e-06
2.71947e-07
-4.56571e-06
4.14571e-07
-4.80838e-06
5.59343e-07
-4.98493e-06
7.05907e-07
-5.13554e-06
8.541e-07
-5.27345e-06
1.00394e-06
-5.40404e-06
1.15554e-06
-5.52951e-06
1.30915e-06
-5.65064e-06
1.46512e-06
-5.76749e-06
1.62389e-06
-5.87973e-06
1.78599e-06
-5.98687e-06
1.95203e-06
-6.08826e-06
2.12273e-06
-6.18323e-06
2.29883e-06
-6.271e-06
2.48117e-06
-6.3508e-06
2.67064e-06
-6.42174e-06
2.86821e-06
-6.4829e-06
3.07489e-06
-6.53329e-06
3.29178e-06
-6.57182e-06
3.52004e-06
-6.59732e-06
3.76088e-06
-6.60853e-06
4.01558e-06
-6.60408e-06
4.28549e-06
-6.58253e-06
4.57203e-06
-6.54232e-06
4.87665e-06
-6.48183e-06
5.20088e-06
-6.39938e-06
5.54629e-06
-6.29325e-06
5.91449e-06
-6.16171e-06
6.30712e-06
-6.00307e-06
6.72585e-06
-5.81575e-06
7.17233e-06
-5.59827e-06
7.64824e-06
-5.34939e-06
8.1552e-06
-5.06815e-06
8.6948e-06
-4.75392e-06
9.26859e-06
-4.4065e-06
9.87805e-06
-4.02619e-06
1.05246e-05
-3.61384e-06
1.12095e-05
-3.17091e-06
1.19339e-05
-2.69954e-06
1.26989e-05
-2.20256e-06
1.35054e-05
-1.68351e-06
1.4354e-05
-1.14662e-06
1.52453e-05
-5.96819e-07
-3.96008e-08
1.22916e-07
-4.16762e-06
2.51789e-07
-4.69459e-06
3.83105e-07
-4.93969e-06
5.15896e-07
-5.11773e-06
6.49792e-07
-5.26942e-06
7.8461e-07
-5.40827e-06
9.2034e-07
-5.53976e-06
1.05709e-06
-5.66624e-06
1.19504e-06
-5.78859e-06
1.33454e-06
-5.90697e-06
1.47598e-06
-6.02116e-06
1.61985e-06
-6.13073e-06
1.76672e-06
-6.23513e-06
1.91724e-06
-6.33374e-06
2.07213e-06
-6.42588e-06
2.23214e-06
-6.51081e-06
2.39813e-06
-6.58773e-06
2.571e-06
-6.65578e-06
2.75173e-06
-6.71403e-06
2.94137e-06
-6.76146e-06
3.14102e-06
-6.79698e-06
3.35189e-06
-6.8194e-06
3.57525e-06
-6.82744e-06
3.81245e-06
-6.81972e-06
4.06494e-06
-6.7948e-06
4.33423e-06
-6.75112e-06
4.62194e-06
-6.68709e-06
4.92977e-06
-6.60107e-06
5.25947e-06
-6.49141e-06
5.61289e-06
-6.3565e-06
5.99191e-06
-6.19478e-06
6.39848e-06
-6.00484e-06
6.83456e-06
-5.78547e-06
7.30209e-06
-5.53569e-06
7.80304e-06
-5.25487e-06
8.33932e-06
-4.94278e-06
8.91277e-06
-4.59964e-06
9.52516e-06
-4.22623e-06
1.01781e-05
-3.82389e-06
1.08732e-05
-3.39461e-06
1.16117e-05
-2.94105e-06
1.23947e-05
-2.46654e-06
1.32231e-05
-1.97507e-06
1.40976e-05
-1.47129e-06
-9.60398e-07
1.14622e-07
-4.28225e-06
2.33932e-07
-4.81391e-06
3.54835e-07
-5.06059e-06
4.76453e-07
-5.23934e-06
5.98426e-07
-5.3914e-06
7.20607e-07
-5.53044e-06
8.42967e-07
-5.66211e-06
9.65605e-07
-5.78887e-06
1.0887e-06
-5.91169e-06
1.21256e-06
-6.03083e-06
1.33756e-06
-6.14616e-06
1.46415e-06
-6.25732e-06
1.59286e-06
-6.36385e-06
1.7243e-06
-6.46517e-06
1.85912e-06
-6.56069e-06
1.99803e-06
-6.64972e-06
2.14184e-06
-6.73153e-06
2.29138e-06
-6.80532e-06
2.44758e-06
-6.87023e-06
2.61144e-06
-6.92531e-06
2.78401e-06
-6.96955e-06
2.96647e-06
-7.00185e-06
3.16004e-06
-7.02101e-06
3.36608e-06
-7.02576e-06
3.58604e-06
-7.01474e-06
3.82145e-06
-6.98653e-06
4.07399e-06
-6.93963e-06
4.34542e-06
-6.8725e-06
4.63762e-06
-6.78362e-06
4.95256e-06
-6.67145e-06
5.29232e-06
-6.53453e-06
5.65901e-06
-6.37154e-06
6.05485e-06
-6.1813e-06
6.48204e-06
-5.96287e-06
6.9428e-06
-5.71564e-06
7.43935e-06
-5.43933e-06
7.97383e-06
-5.13412e-06
8.54828e-06
-4.80069e-06
9.16463e-06
-4.44024e-06
9.82461e-06
-4.05461e-06
1.05298e-05
-3.64622e-06
1.12814e-05
-3.21817e-06
1.20804e-05
-2.77414e-06
1.29276e-05
-2.31845e-06
-1.85592e-06
1.07589e-07
-4.38983e-06
2.18333e-07
-4.92466e-06
3.29659e-07
-5.17191e-06
4.40855e-07
-5.35053e-06
5.51625e-07
-5.50218e-06
6.6187e-07
-5.64069e-06
7.71589e-07
-5.77183e-06
8.80873e-07
-5.89815e-06
9.89915e-07
-6.02074e-06
1.09901e-06
-6.13993e-06
1.20851e-06
-6.25565e-06
1.31884e-06
-6.36764e-06
1.43048e-06
-6.47549e-06
1.54401e-06
-6.57869e-06
1.66001e-06
-6.6767e-06
1.77917e-06