/*--------------------------------*- C++ -*----------------------------------*\
| =========                 |                                                 |
| \\      /  F ield         | OpenFOAM: The Open Source CFD Toolbox           |
|  \\    /   O peration     | Version:  5.0                                   |
|   \\  /    A nd           | Web:      www.OpenFOAM.org                      |
|    \\/     M anipulation  |                                                 |
\*---------------------------------------------------------------------------*/
FoamFile
{
    version     2.0;
    format      ascii;
    class       volVectorField;
    location    "1";
    object      U;
}
// * * * * * * * * * * * * * * * * * * * * * * * * * * * * * * * * * * * * * //

dimensions      [0 1 -1 0 0 0 0];

internalField   nonuniform List<vector> 
1915
(
(0.149458 0.0786547 0)
(0.156955 0.0843064 0)
(0.164527 0.0903604 0)
(0.172158 0.0967876 0)
(0.179831 0.103559 0)
(0.187521 0.110642 0)
(0.195191 0.118007 0)
(0.202799 0.12562 0)
(0.210298 0.13345 0)
(0.21764 0.141461 0)
(0.224782 0.149615 0)
(0.231685 0.157869 0)
(0.238316 0.166161 0)
(0.244656 0.174391 0)
(0.250698 0.182393 0)
(0.25644 0.189917 0)
(0.261884 0.196614 0)
(0.267035 0.202024 0)
(0.271912 0.205583 0)
(0.276563 0.206643 0)
(0.281078 0.204504 0)
(0.285544 0.198445 0)
(0.290018 0.187759 0)
(0.294161 0.171896 0)
(0.297799 0.150328 0)
(0.00379939 0.0396859 0)
(0.0100132 0.0406139 0)
(0.0170418 0.0396133 0)
(0.0242179 0.0389145 0)
(0.0314214 0.0384293 0)
(0.0385686 0.0381064 0)
(0.0456484 0.0379481 0)
(0.0526649 0.0379815 0)
(0.0596262 0.0382449 0)
(0.0665441 0.0387792 0)
(0.0734335 0.0396248 0)
(0.080311 0.0408184 0)
(0.087195 0.0423922 0)
(0.0941048 0.0443731 0)
(0.10106 0.0467828 0)
(0.108077 0.0496372 0)
(0.115175 0.0529463 0)
(0.122368 0.0567147 0)
(0.129669 0.060939 0)
(0.13708 0.0656195 0)
(0.144608 0.0707369 0)
(0.152261 0.0762862 0)
(0.16003 0.0822438 0)
(0.167909 0.088589 0)
(0.175888 0.0952982 0)
(0.183951 0.102345 0)
(0.192078 0.109701 0)
(0.200242 0.117337 0)
(0.208418 0.125224 0)
(0.216582 0.133327 0)
(0.224718 0.141603 0)
(0.232814 0.149995 0)
(0.240866 0.158429 0)
(0.24888 0.16679 0)
(0.256872 0.174911 0)
(0.264859 0.182549 0)
(0.272843 0.189364 0)
(0.280797 0.194915 0)
(0.288662 0.198652 0)
(0.296344 0.199947 0)
(0.3037 0.198128 0)
(0.310538 0.192524 0)
(0.316618 0.18255 0)
(0.321512 0.16778 0)
(0.324546 0.148282 0)
(0.0035924 0.0332677 0)
(0.00937916 0.0333472 0)
(0.0159053 0.0322363 0)
(0.0225945 0.0315318 0)
(0.0293358 0.0310777 0)
(0.0360535 0.0308 0)
(0.0427381 0.0306894 0)
(0.0493935 0.0307658 0)
(0.0560273 0.0310624 0)
(0.0626504 0.0316165 0)
(0.0692769 0.0324654 0)
(0.0759229 0.033644 0)
(0.082606 0.0351835 0)
(0.0893445 0.0371108 0)
(0.0961573 0.0394474 0)
(0.103062 0.04221 0)
(0.110077 0.0454105 0)
(0.117217 0.0490556 0)
(0.124495 0.0531467 0)
(0.131919 0.0576808 0)
(0.139497 0.0626545 0)
(0.147232 0.068055 0)
(0.155126 0.0738666 0)
(0.163175 0.0800733 0)
(0.171375 0.0866544 0)
(0.179718 0.093587 0)
(0.188195 0.100846 0)
(0.196791 0.108403 0)
(0.205494 0.116227 0)
(0.214292 0.12428 0)
(0.223183 0.132513 0)
(0.232167 0.140861 0)
(0.241255 0.149238 0)
(0.250458 0.157523 0)
(0.259794 0.16555 0)
(0.269274 0.173086 0)
(0.278891 0.179817 0)
(0.288597 0.185343 0)
(0.298296 0.189178 0)
(0.307823 0.19076 0)
(0.316934 0.189494 0)
(0.325298 0.1848 0)
(0.33253 0.176178 0)
(0.338122 0.163295 0)
(0.34149 0.146157 0)
(0.00341392 0.0271756 0)
(0.00880664 0.0265292 0)
(0.0148631 0.0253106 0)
(0.0210917 0.0245783 0)
(0.0273911 0.0241247 0)
(0.0336938 0.0238592 0)
(0.0399923 0.0237628 0)
(0.0462908 0.023849 0)
(0.0525963 0.0241458 0)
(0.0589191 0.0246872 0)
(0.0652726 0.0255077 0)
(0.071672 0.0266403 0)
(0.0781343 0.028115 0)
(0.0846773 0.0299579 0)
(0.0913192 0.0321911 0)
(0.0980781 0.034832 0)
(0.104971 0.0378938 0)
(0.112015 0.0413851 0)
(0.119223 0.0453098 0)
(0.126605 0.0496678 0)
(0.134171 0.0544564 0)
(0.141926 0.0596671 0)
(0.149874 0.065289 0)
(0.158017 0.0713078 0)
(0.166354 0.0777059 0)
(0.174883 0.0844623 0)
(0.183602 0.0915527 0)
(0.192505 0.0989489 0)
(0.201586 0.106617 0)
(0.210841 0.114517 0)
(0.220272 0.122594 0)
(0.229883 0.13078 0)
(0.239684 0.138981 0)
(0.249685 0.147076 0)
(0.259893 0.154901 0)
(0.270306 0.16224 0)
(0.2809 0.168812 0)
(0.29161 0.174267 0)
(0.302318 0.178187 0)
(0.312831 0.180098 0)
(0.322873 0.179497 0)
(0.332077 0.1759 0)
(0.340001 0.1689 0)
(0.346134 0.158218 0)
(0.349908 0.143846 0)
(0.00324512 0.0213779 0)
(0.00827402 0.0201264 0)
(0.0138956 0.0188111 0)
(0.0196923 0.0180367 0)
(0.0255728 0.0175601 0)
(0.0314776 0.0172797 0)
(0.0374018 0.0171693 0)
(0.0433501 0.0172369 0)
(0.0493292 0.0175062 0)
(0.0553491 0.0180076 0)
(0.0614223 0.0187732 0)
(0.0675635 0.019834 0)
(0.0737889 0.0212185 0)
(0.0801157 0.0229522 0)
(0.0865618 0.0250568 0)
(0.0931451 0.0275506 0)
(0.099883 0.0304475 0)
(0.106792 0.0337575 0)
(0.113886 0.0374865 0)
(0.121177 0.0416369 0)
(0.128677 0.0462076 0)
(0.136392 0.0511938 0)
(0.144329 0.0565869 0)
(0.152492 0.0623753 0)
(0.160885 0.0685434 0)
(0.16951 0.0750716 0)
(0.178367 0.0819361 0)
(0.187456 0.0891082 0)
(0.196774 0.0965528 0)
(0.206323 0.104227 0)
(0.216101 0.112075 0)
(0.226113 0.120024 0)
(0.236362 0.127983 0)
(0.246849 0.135832 0)
(0.25757 0.143414 0)
(0.268504 0.150535 0)
(0.279612 0.156946 0)
(0.290812 0.162348 0)
(0.301973 0.166389 0)
(0.312898 0.168679 0)
(0.32331 0.168806 0)
(0.332851 0.166375 0)
(0.341091 0.161055 0)
(0.347548 0.152622 0)
(0.351712 0.141038 0)
(0.00307638 0.0158622 0)
(0.00776517 0.014108 0)
(0.0129857 0.012709 0)
(0.0183801 0.0118838 0)
(0.0238664 0.0113668 0)
(0.0293927 0.0110504 0)
(0.0349568 0.0109031 0)
(0.0405639 0.0109286 0)
(0.0462211 0.0111471 0)
(0.051938 0.0115859 0)
(0.0577266 0.0122744 0)
(0.0636008 0.0132416 0)
(0.0695765 0.0145147 0)
(0.0756701 0.0161183 0)
(0.0818992 0.0180739 0)
(0.0882814 0.0203997 0)
(0.0948338 0.0231103 0)
(0.101573 0.0262168 0)
(0.108515 0.0297267 0)
(0.115671 0.0336444 0)
(0.123055 0.0379709 0)
(0.130675 0.0427033 0)
(0.13854 0.0478359 0)
(0.146656 0.0533588 0)
(0.155028 0.0592585 0)
(0.163661 0.0655168 0)
(0.172558 0.0721108 0)
(0.181721 0.0790117 0)
(0.191149 0.0861842 0)
(0.200842 0.0935842 0)
(0.2108 0.101156 0)
(0.221019 0.10883 0)
(0.231498 0.116514 0)
(0.242226 0.124096 0)
(0.253186 0.131434 0)
(0.264343 0.138351 0)
(0.27564 0.144635 0)
(0.286986 0.150031 0)
(0.298243 0.154248 0)
(0.309218 0.156969 0)
(0.319649 0.157861 0)
(0.329208 0.156608 0)
(0.337504 0.152942 0)
(0.344104 0.146682 0)
(0.348556 0.137773 0)
(0.002906 0.0106304 0)
(0.00727321 0.00845201 0)
(0.0121228 0.00697876 0)
(0.0171431 0.00609733 0)
(0.0222599 0.00552757 0)
(0.027428 0.0051588 0)
(0.0326472 0.00495661 0)
(0.037924 0.00492144 0)
(0.0432656 0.00507028 0)
(0.0486816 0.00542765 0)
(0.0541836 0.00602069 0)
(0.0597851 0.00687654 0)
(0.0655011 0.00802103 0)
(0.0713479 0.00947767 0)
(0.0773423 0.0112675 0)
(0.0835016 0.0134085 0)
(0.0898429 0.0159159 0)
(0.0963828 0.0188016 0)
(0.103137 0.0220745 0)
(0.11012 0.0257402 0)
(0.117343 0.0298014 0)
(0.124819 0.0342576 0)
(0.132555 0.0391046 0)
(0.140561 0.0443349 0)
(0.148842 0.0499367 0)
(0.157404 0.0558938 0)
(0.166251 0.0621844 0)
(0.175386 0.068781 0)
(0.184809 0.075649 0)
(0.194517 0.0827453 0)
(0.204508 0.0900161 0)
(0.214774 0.0973938 0)
(0.225304 0.104794 0)
(0.236079 0.112113 0)
(0.24707 0.119224 0)
(0.258231 0.125971 0)
(0.269493 0.132173 0)
(0.280757 0.137616 0)
(0.291886 0.142064 0)
(0.302694 0.145257 0)
(0.312941 0.146931 0)
(0.322334 0.146834 0)
(0.330529 0.144748 0)
(0.337148 0.140525 0)
(0.341796 0.134103 0)
(0.00273492 0.00568228 0)
(0.00679691 0.00313929 0)
(0.011302 0.00159763 0)
(0.0159738 0.000656133 0)
(0.0207445 2.47683e-05 0)
(0.0255741 -0.000408075 0)
(0.0304644 -0.000678637 0)
(0.0354226 -0.000788885 0)
(0.0404565 -0.000724346 0)
(0.0455756 -0.000462902 0)
(0.0507911 2.04502e-05 0)
(0.0561163 0.000751123 0)
(0.0615656 0.00175346 0)
(0.0671546 0.00305001 0)
(0.0728999 0.00466118 0)
(0.0788183 0.00660485 0)
(0.0849265 0.0088964 0)
(0.0912413 0.0115484 0)
(0.0977783 0.0145706 0)
(0.104552 0.01797 0)
(0.111576 0.0217507 0)
(0.118862 0.0259139 0)
(0.12642 0.0304573 0)
(0.134259 0.0353754 0)
(0.142386 0.0406584 0)
(0.150806 0.0462921 0)
(0.159523 0.052257 0)
(0.168541 0.0585274 0)
(0.177858 0.065071 0)
(0.187471 0.0718471 0)
(0.197372 0.0788052 0)
(0.207551 0.0858832 0)
(0.217988 0.0930043 0)
(0.228659 0.100075 0)
(0.239524 0.106984 0)
(0.25053 0.113599 0)
(0.261601 0.119764 0)
(0.272635 0.125304 0)
(0.283497 0.130025 0)
(0.294013 0.133719 0)
(0.303967 0.136173 0)
(0.313099 0.137186 0)
(0.321114 0.136584 0)
(0.327682 0.134239 0)
(0.332464 0.13009 0)
(0.00256446 0.00101557 0)
(0.00633686 -0.00184767 0)
(0.0105212 -0.00345495 0)
(0.0148678 -0.00445921 0)
(0.0193139 -0.00515817 0)
(0.023824 -0.00566332 0)
(0.028401 -0.00601191 0)
(0.033053 -0.00620768 0)
(0.0377879 -0.00623822 0)
(0.0426154 -0.00608342 0)
(0.0475464 -0.00572028 0)
(0.0525939 -0.00512503 0)
(0.0577716 -0.00427467 0)
(0.0630949 -0.00314764 0)
(0.0685797 -0.00172417 0)
(0.0742423 1.32702e-05 0)
(0.0800993 0.00208016 0)
(0.0861669 0.00448949 0)
(0.092461 0.00725182 0)
(0.0989964 0.0103753 0)
(0.105787 0.0138653 0)
(0.112844 0.0177246 0)
(0.12018 0.0219526 0)
(0.127802 0.0265458 0)
(0.135718 0.0314966 0)
(0.143934 0.0367931 0)
(0.152453 0.0424186 0)
(0.161277 0.0483502 0)
(0.170404 0.0545589 0)
(0.179828 0.0610077 0)
(0.189539 0.0676512 0)
(0.199522 0.0744335 0)
(0.209754 0.0812866 0)
(0.220203 0.0881292 0)
(0.230826 0.0948647 0)
(0.241563 0.101381 0)
(0.252336 0.107548 0)
(0.263044 0.113222 0)
(0.273557 0.118245 0)
(0.283715 0.122449 0)
(0.293324 0.125664 0)
(0.302157 0.127729 0)
(0.30996 0.128501 0)
(0.316452 0.127872 0)
(0.321339 0.125779 0)
(0.00239617 -0.00337531 0)
(0.00589456 -0.00652453 0)
(0.00977975 -0.00819697 0)
(0.0138222 -0.0092663 0)
(0.0179638 -0.0100369 0)
(0.022172 -0.0106198 0)
(0.0264511 -0.0110529 0)
(0.0308091 -0.0113412 0)
(0.0352544 -0.011474 0)
(0.0397966 -0.0114332 0)
(0.0444464 -0.0111974 0)
(0.0492164 -0.0107444 0)
(0.05412 -0.0100524 0)
(0.059172 -0.0091009 0)
(0.0643877 -0.00787085 0)
(0.0697829 -0.00634501 0)
(0.0753738 -0.00450794 0)
(0.0811763 -0.00234633 0)
(0.087206 0.000151095 0)
(0.0934778 0.00299342 0)
(0.100005 0.00618719 0)
(0.106801 0.00973657 0)
(0.113876 0.013643 0)
(0.121239 0.0179047 0)
(0.128897 0.0225164 0)
(0.136856 0.0274691 0)
(0.145118 0.0327489 0)
(0.153685 0.0383365 0)
(0.162551 0.044207 0)
(0.171711 0.0503282 0)
(0.181152 0.0566606 0)
(0.190855 0.0631555 0)
(0.200795 0.0697544 0)
(0.210935 0.0763878 0)
(0.221231 0.082974 0)
(0.23162 0.089419 0)
(0.242024 0.0956161 0)
(0.252347 0.101447 0)
(0.262466 0.106784 0)
(0.272235 0.111492 0)
(0.281484 0.115434 0)
(0.290014 0.11848 0)
(0.297607 0.120512 0)
(0.304026 0.121435 0)
(0.309018 0.121188 0)
(0.00223225 -0.007495 0)
(0.00547196 -0.0109049 0)
(0.00907783 -0.0126445 0)
(0.0128354 -0.0137812 0)
(0.0166906 -0.014626 0)
(0.0206138 -0.0152898 0)
(0.0246092 -0.015811 0)
(0.0286854 -0.0161959 0)
(0.0328508 -0.0164354 0)
(0.0371146 -0.0165128 0)
(0.0414877 -0.0164084 0)
(0.0459821 -0.0161013 0)
(0.0506108 -0.0155711 0)
(0.055388 -0.014798 0)
(0.0603285 -0.0137639 0)
(0.0654477 -0.0124518 0)
(0.070761 -0.0108464 0)
(0.0762841 -0.00893403 0)
(0.0820321 -0.00670293 0)
(0.0880197 -0.0041432 0)
(0.0942604 -0.00124708 0)
(0.100767 0.00199106 0)
(0.107549 0.00557438 0)
(0.114617 0.00950309 0)
(0.121978 0.0137745 0)
(0.129636 0.0183823 0)
(0.137594 0.023316 0)
(0.145851 0.0285603 0)
(0.154401 0.0340947 0)
(0.163238 0.0398926 0)
(0.172346 0.0459208 0)
(0.181706 0.0521385 0)
(0.191289 0.0584967 0)
(0.201059 0.0649373 0)
(0.210969 0.0713927 0)
(0.220957 0.0777854 0)
(0.230951 0.0840284 0)
(0.240856 0.0900255 0)
(0.250562 0.0956732 0)
(0.259939 0.100863 0)
(0.268834 0.105484 0)
(0.277078 0.10943 0)
(0.284484 0.112601 0)
(0.290852 0.114913 0)
(0.295968 0.116306 0)
(0.00207263 -0.0113521 0)
(0.00507019 -0.0150035 0)
(0.00841539 -0.0168132 0)
(0.0119059 -0.018019 0)
(0.0154917 -0.018939 0)
(0.0191451 -0.0196848 0)
(0.0228707 -0.0202956 0)
(0.0266768 -0.0207788 0)
(0.0305719 -0.0211265 0)
(0.0345649 -0.0213238 0)
(0.0386666 -0.0213521 0)
(0.0428885 -0.021192 0)
(0.0472432 -0.0208241 0)
(0.0517442 -0.0202297 0)
(0.0564059 -0.0193912 0)
(0.0612429 -0.018292 0)
(0.0662703 -0.0169169 0)
(0.0715031 -0.0152523 0)
(0.0769559 -0.0132858 0)
(0.0826432 -0.0110066 0)
(0.088578 -0.00840597 0)
(0.0947728 -0.00547673 0)
(0.101238 -0.00221404 0)
(0.107983 0.00138452 0)
(0.115014 0.00531873 0)
(0.122337 0.00958511 0)
(0.129952 0.0141768 0)
(0.137858 0.0190826 0)
(0.14605 0.0242869 0)
(0.154519 0.0297688 0)
(0.163248 0.0355016 0)
(0.172218 0.0414524 0)
(0.1814 0.0475816 0)
(0.190758 0.0538419 0)
(0.200245 0.0601785 0)
(0.209804 0.0665287 0)
(0.219364 0.072822 0)
(0.22884 0.078981 0)
(0.238134 0.084922 0)
(0.247129 0.0905572 0)
(0.255694 0.0957964 0)
(0.263682 0.10055 0)
(0.270935 0.104735 0)
(0.277287 0.108274 0)
(0.282558 0.111106 0)
(0.00192083 -0.0149568 0)
(0.00469154 -0.0188354 0)
(0.00779285 -0.0207178 0)
(0.0110325 -0.0219932 0)
(0.0143642 -0.0229881 0)
(0.0177622 -0.0238155 0)
(0.0212308 -0.0245154 0)
(0.0247782 -0.0250965 0)
(0.0284126 -0.025552 0)
(0.0321428 -0.0258684 0)
(0.0359792 -0.0260285 0)
(0.0399328 -0.026014 0)
(0.0440158 -0.0258066 0)
(0.0482411 -0.0253885 0)
(0.0526224 -0.0247427 0)
(0.0571738 -0.0238531 0)
(0.0619097 -0.0227047 0)
(0.0668444 -0.0212835 0)
(0.0719924 -0.0195769 0)
(0.0773672 -0.0175734 0)
(0.0829819 -0.015263 0)
(0.0888484 -0.0126372 0)
(0.0949772 -0.00968948 0)
(0.101377 -0.00641508 0)
(0.108055 -0.00281183 0)
(0.115015 0.00111995 0)
(0.122258 0.00537684 0)
(0.129784 0.00995185 0)
(0.137585 0.0148342 0)
(0.145653 0.0200088 0)
(0.153973 0.0254555 0)
(0.162523 0.0311489 0)
(0.171275 0.0370581 0)
(0.180196 0.0431461 0)
(0.189241 0.0493694 0)
(0.198356 0.055678 0)
(0.207478 0.0620158 0)
(0.21653 0.0683205 0)
(0.225424 0.0745248 0)
(0.234061 0.0805567 0)
(0.242326 0.0863419 0)
(0.250096 0.091805 0)
(0.257237 0.0968724 0)
(0.263613 0.101472 0)
(0.269076 0.105545 0)
(0.00177761 -0.0183203 0)
(0.004337 -0.0224151 0)
(0.00720972 -0.0243719 0)
(0.0102132 -0.0257164 0)
(0.013305 -0.0267848 0)
(0.0164607 -0.027692 0)
(0.0196846 -0.0284792 0)
(0.0229843 -0.0291559 0)
(0.0263678 -0.0297171 0)
(0.0298435 -0.03015 0)
(0.0334214 -0.0304389 0)
(0.037112 -0.0305666 0)
(0.040927 -0.0305158 0)
(0.0448786 -0.0302695 0)
(0.0489799 -0.0298114 0)
(0.0532444 -0.0291257 0)
(0.0576858 -0.0281978 0)
(0.0623179 -0.0270134 0)
(0.0671544 -0.0255597 0)
(0.0722086 -0.0238244 0)
(0.0774931 -0.0217965 0)
(0.0830194 -0.0194662 0)
(0.0887979 -0.0168251 0)
(0.0948372 -0.0138665 0)
(0.101144 -0.0105856 0)
(0.107722 -0.00697962 0)
(0.114574 -0.00304846 0)
(0.121698 0.00120497 0)
(0.129087 0.0057747 0)
(0.136734 0.0106509 0)
(0.144622 0.0158198 0)
(0.152733 0.0212633 0)
(0.161041 0.0269585 0)
(0.169513 0.0328771 0)
(0.178109 0.038986 0)
(0.186781 0.045246 0)
(0.195472 0.0516129 0)
(0.204114 0.0580369 0)
(0.212632 0.0644634 0)
(0.220939 0.0708331 0)
(0.228941 0.0770833 0)
(0.236534 0.0831489 0)
(0.243606 0.0889639 0)
(0.250045 0.0944612 0)
(0.255737 0.0995795 0)
(0.00164483 -0.0214584 0)
(0.00400681 -0.0257562 0)
(0.00666473 -0.0277877 0)
(0.00944568 -0.0291999 0)
(0.0123106 -0.0303396 0)
(0.0152365 -0.0313239 0)
(0.0182273 -0.0321951 0)
(0.0212901 -0.0329642 0)
(0.0244323 -0.0336272 0)
(0.0276621 -0.0341725 0)
(0.0309889 -0.0345856 0)
(0.0344227 -0.0348503 0)
(0.0379745 -0.0349503 0)
(0.0416559 -0.0348695 0)
(0.0454794 -0.0345921 0)
(0.0494577 -0.0341028 0)
(0.053604 -0.0333872 0)
(0.0579315 -0.0324311 0)
(0.0624534 -0.0312212 0)
(0.0671822 -0.0297446 0)
(0.0721303 -0.0279894 0)
(0.0773089 -0.0259446 0)
(0.0827282 -0.0236001 0)
(0.0883966 -0.020947 0)
(0.094321 -0.0179782 0)
(0.100506 -0.0146879 0)
(0.106953 -0.0110726 0)
(0.113661 -0.00713112 0)
(0.120626 -0.00286506 0)
(0.127838 0.00172096 0)
(0.135285 0.00661903 0)
(0.142949 0.0118174 0)
(0.150807 0.0173003 0)
(0.158829 0.0230477 0)
(0.16698 0.0290348 0)
(0.175218 0.0352318 0)
(0.183492 0.0416042 0)
(0.191746 0.0481121 0)
(0.199914 0.0547109 0)
(0.207926 0.061351 0)
(0.215702 0.0679785 0)
(0.223157 0.0745355 0)
(0.2302 0.0809613 0)
(0.236741 0.0871922 0)
(0.24269 0.0931654 0)
(0.0015221 -0.024384 0)
(0.00369984 -0.0288715 0)
(0.00615574 -0.0309765 0)
(0.00872689 -0.0324544 0)
(0.0113772 -0.0336624 0)
(0.0140851 -0.0347202 0)
(0.0168539 -0.0356715 0)
(0.0196902 -0.0365285 0)
(0.0226009 -0.0372883 0)
(0.0255937 -0.0379406 0)
(0.0286773 -0.0384718 0)
(0.0318612 -0.0388669 0)
(0.0351557 -0.0391105 0)
(0.0385718 -0.0391872 0)
(0.0421212 -0.0390819 0)
(0.0458162 -0.03878 0)
(0.049669 -0.0382669 0)
(0.0536924 -0.0375287 0)
(0.0578989 -0.0365518 0)
(0.0623008 -0.0353228 0)
(0.0669098 -0.033829 0)
(0.0717371 -0.0320581 0)
(0.0767926 -0.0299985 0)
(0.0820848 -0.0276395 0)
(0.0876209 -0.0249714 0)
(0.0934055 -0.021986 0)
(0.0994412 -0.0186763 0)
(0.105727 -0.0150376 0)
(0.112261 -0.0110671 0)
(0.119034 -0.00676458 0)
(0.126037 -0.00213291 0)
(0.133253 0.00282202 0)
(0.140663 0.00809071 0)
(0.148241 0.0136599 0)
(0.155957 0.0195121 0)
(0.163775 0.0256251 0)
(0.171653 0.0319722 0)
(0.179543 0.0385214 0)
(0.187392 0.0452357 0)
(0.195141 0.0520728 0)
(0.202726 0.058985 0)
(0.210079 0.0659198 0)
(0.217127 0.0728199 0)
(0.223799 0.0796239 0)
(0.230026 0.0862671 0)
(0.00140834 -0.0271105 0)
(0.00341425 -0.0317728 0)
(0.00568018 -0.033949 0)
(0.00805351 -0.0354898 0)
(0.0105009 -0.0367626 0)
(0.0130021 -0.0378897 0)
(0.0155599 -0.0389165 0)
(0.01818 -0.0398561 0)
(0.020869 -0.0407068 0)
(0.0236338 -0.0414595 0)
(0.0264826 -0.0421017 0)
(0.0294242 -0.0426193 0)
(0.0324682 -0.042998 0)
(0.0356249 -0.043223 0)
(0.0389055 -0.04328 0)
(0.0423214 -0.0431548 0)
(0.0458843 -0.0428331 0)
(0.0496063 -0.0423012 0)
(0.0534994 -0.0415451 0)
(0.0575755 -0.0405514 0)
(0.0618459 -0.0393062 0)
(0.0663216 -0.0377965 0)
(0.0710125 -0.0360092 0)
(0.0759273 -0.0339319 0)
(0.0810733 -0.0315528 0)
(0.086456 -0.0288611 0)
(0.0920785 -0.025847 0)
(0.0979417 -0.0225021 0)
(0.104044 -0.0188201 0)
(0.110379 -0.0147965 0)
(0.116939 -0.0104293 0)
(0.123712 -0.00571933 0)
(0.130681 -0.000670848 0)
(0.137826 0.00470867 0)
(0.145121 0.0104076 0)
(0.152537 0.0164101 0)
(0.16004 0.0226954 0)
(0.167592 0.0292378 0)
(0.175149 0.0360059 0)
(0.182665 0.0429627 0)
(0.190089 0.0500649 0)
(0.197369 0.0572637 0)
(0.204448 0.0645038 0)
(0.21127 0.0717254 0)
(0.217785 0.0788622 0)
(0.00130225 -0.0296498 0)
(0.0031477 -0.0344716 0)
(0.00523516 -0.0367156 0)
(0.00742221 -0.0383159 0)
(0.00967805 -0.0396496 0)
(0.0119835 -0.0408414 0)
(0.0143407 -0.0419382 0)
(0.016755 -0.0429544 0)
(0.019232 -0.0438893 0)
(0.0217781 -0.044735 0)
(0.0244008 -0.0454801 0)
(0.0271083 -0.0461115 0)
(0.0299094 -0.0466157 0)
(0.0328139 -0.0469789 0)
(0.035832 -0.0471872 0)
(0.0389746 -0.047227 0)
(0.0422529 -0.0470846 0)
(0.0456781 -0.0467462 0)
(0.049262 -0.0461979 0)
(0.0530158 -0.0454257 0)
(0.0569509 -0.0444157 0)
(0.0610777 -0.0431535 0)
(0.0654064 -0.0416252 0)
(0.0699459 -0.0398167 0)
(0.074704 -0.0377145 0)
(0.0796868 -0.0353054 0)
(0.0848986 -0.0325769 0)
(0.0903417 -0.029518 0)
(0.0960159 -0.0261187 0)
(0.101918 -0.0223708 0)
(0.108043 -0.0182684 0)
(0.114381 -0.013808 0)
(0.12092 -0.00898913 0)
(0.127643 -0.00381468 0)
(0.134533 0.00170853 0)
(0.141566 0.00756954 0)
(0.148715 0.0137524 0)
(0.15595 0.020236 0)
(0.163239 0.0269931 0)
(0.170547 0.0339904 0)
(0.177833 0.0411878 0)
(0.18506 0.0485387 0)
(0.192185 0.0559893 0)
(0.199165 0.0634802 0)
(0.205964 0.0709442 0)
(0.00120263 -0.0320122 0)
(0.00289815 -0.0369784 0)
(0.00481813 -0.0392863 0)
(0.00683001 -0.0409424 0)
(0.00890523 -0.0423325 0)
(0.0110257 -0.043584 0)
(0.0131929 -0.044745 0)
(0.0154113 -0.0458311 0)
(0.0176861 -0.046843 0)
(0.020023 -0.0477736 0)
(0.0224287 -0.0486128 0)
(0.0249106 -0.0493484 0)
(0.0274771 -0.0499678 0)
(0.0301372 -0.050458 0)
(0.0329004 -0.050806 0)
(0.0357768 -0.0509985 0)
(0.0387771 -0.0510223 0)
(0.0419121 -0.0508638 0)
(0.0451927 -0.0505093 0)
(0.0486302 -0.0499446 0)
(0.0522353 -0.0491552 0)
(0.0560186 -0.0481264 0)
(0.0599903 -0.0468432 0)
(0.0641595 -0.0452903 0)
(0.0685347 -0.0434525 0)
(0.0731229 -0.0413149 0)
(0.0779297 -0.0388628 0)
(0.0829587 -0.0360824 0)
(0.088212 -0.0329611 0)
(0.0936889 -0.0294874 0)
(0.0993868 -0.025652 0)
(0.1053 -0.0214479 0)
(0.11142 -0.0168709 0)
(0.117737 -0.0119199 0)
(0.124237 -0.0065979 0)
(0.130902 -0.000912268 0)
(0.137715 0.00512476 0)
(0.144653 0.0114953 0)
(0.151692 0.0181755 0)
(0.158807 0.0251344 0)
(0.165971 0.0323342 0)
(0.173154 0.0397295 0)
(0.180327 0.0472674 0)
(0.18746 0.0548887 0)
(0.194525 0.0625254 0)
(0.00110855 -0.0342066 0)
(0.00266395 -0.0393033 0)
(0.0044271 -0.0416711 0)
(0.00627463 -0.0433789 0)
(0.00818 -0.0448207 0)
(0.0101259 -0.0461263 0)
(0.0121133 -0.0473452 0)
(0.014146 -0.0484942 0)
(0.0162284 -0.0495752 0)
(0.0183655 -0.0505822 0)
(0.0205634 -0.0515061 0)
(0.0228289 -0.0523358 0)
(0.0251696 -0.0530595 0)
(0.0275938 -0.0536652 0)
(0.0301104 -0.0541404 0)
(0.032729 -0.0544726 0)
(0.0354594 -0.054649 0)
(0.0383119 -0.0546564 0)
(0.0412972 -0.0544811 0)
(0.0444259 -0.0541091 0)
(0.0477086 -0.0535256 0)
(0.0511559 -0.0527155 0)
(0.0547779 -0.0516631 0)
(0.0585845 -0.0503522 0)
(0.0625844 -0.0487665 0)
(0.0667858 -0.0468893 0)
(0.0711955 -0.0447044 0)
(0.0758189 -0.0421958 0)
(0.0806601 -0.0393485 0)
(0.0857212 -0.0361486 0)
(0.0910025 -0.0325839 0)
(0.096502 -0.0286444 0)
(0.102216 -0.024323 0)
(0.108138 -0.0196157 0)
(0.114261 -0.0145224 0)
(0.120573 -0.00904755 0)
(0.127063 -0.00320084 0)
(0.133716 0.00300233 0)
(0.140517 0.00954025 0)
(0.147448 0.016384 0)
(0.154493 0.023497 0)
(0.16163 0.0308349 0)
(0.168842 0.0383453 0)
(0.176107 0.0459689 0)
(0.183407 0.0536376 0)
(0.00101963 -0.0362413 0)
(0.00244431 -0.0414562 0)
(0.00406099 -0.0438798 0)
(0.00575473 -0.0456349 0)
(0.00750068 -0.0471234 0)
(0.00928231 -0.0484772 0)
(0.0110999 -0.0497473 0)
(0.0129567 -0.0509518 0)
(0.0148563 -0.0520936 0)
(0.0168032 -0.053168 0)
(0.0188028 -0.0541668 0)
(0.0208612 -0.0550801 0)
(0.0229854 -0.0558969 0)
(0.0251829 -0.056606 0)
(0.0274621 -0.0571959 0)
(0.0298319 -0.0576544 0)
(0.0323015 -0.0579695 0)
(0.0348809 -0.0581283 0)
(0.03758 -0.0581174 0)
(0.0404093 -0.0579229 0)
(0.043379 -0.0575303 0)
(0.0464997 -0.0569239 0)
(0.0497817 -0.0560878 0)
(0.0532351 -0.0550052 0)
(0.0568694 -0.0536588 0)
(0.0606937 -0.0520311 0)
(0.0647162 -0.0501043 0)
(0.0689441 -0.0478609 0)
(0.0733835 -0.0452841 0)
(0.0780392 -0.042358 0)
(0.0829146 -0.0390683 0)
(0.0880114 -0.0354027 0)
(0.0933298 -0.0313516 0)
(0.0988686 -0.0269088 0)
(0.104625 -0.0220719 0)
(0.110593 -0.0168434 0)
(0.116768 -0.011231 0)
(0.123143 -0.00524807 0)
(0.129708 0.00108488 0)
(0.136456 0.00774044 0)
(0.143374 0.0146832 0)
(0.150453 0.0218694 0)
(0.15768 0.0292472 0)
(0.165044 0.0367571 0)
(0.172533 0.0443316 0)
(0.00093592 -0.0381242 0)
(0.00223926 -0.0434466 0)
(0.00371952 -0.0459221 0)
(0.00526967 -0.04772 0)
(0.00686634 -0.0492497 0)
(0.00849363 -0.0506455 0)
(0.0101513 -0.0519598 0)
(0.0118418 -0.053212 0)
(0.0135683 -0.0544061 0)
(0.0153345 -0.0555386 0)
(0.0171452 -0.0566023 0)
(0.0190061 -0.0575884 0)
(0.0209233 -0.0584869 0)
(0.0229038 -0.0592874 0)
(0.0249555 -0.059979 0)
(0.0270865 -0.0605504 0)
(0.0293057 -0.06099 0)
(0.0316222 -0.0612856 0)
(0.0340458 -0.0614242 0)
(0.0365862 -0.0613921 0)
(0.0392539 -0.0611749 0)
(0.042059 -0.0607572 0)
(0.0450122 -0.0601227 0)
(0.0481237 -0.0592544 0)
(0.0514039 -0.0581347 0)
(0.0548626 -0.0567451 0)
(0.0585093 -0.0550672 0)
(0.062353 -0.0530824 0)
(0.0664017 -0.0507725 0)
(0.070663 -0.0481202 0)
(0.075143 -0.0451096 0)
(0.0798471 -0.0417268 0)
(0.0847795 -0.0379605 0)
(0.0899431 -0.0338026 0)
(0.0953397 -0.0292492 0)
(0.10097 -0.0243011 0)
(0.106834 -0.0189645 0)
(0.112929 -0.0132519 0)
(0.119255 -0.00718224 0)
(0.125807 -0.000782236 0)
(0.132583 0.0059137 0)
(0.139578 0.0128628 0)
(0.146787 0.0200139 0)
(0.154204 0.0273077 0)
(0.161823 0.0346774 0)
(0.000857874 -0.0398641 0)
(0.00204928 -0.0452847 0)
(0.003403 -0.0478078 0)
(0.00481954 -0.0496437 0)
(0.00627675 -0.0512088 0)
(0.00775937 -0.0526401 0)
(0.0092666 -0.0539913 0)
(0.0108003 -0.055283 0)
(0.012363 -0.0565207 0)
(0.013958 -0.0577018 0)
(0.0155895 -0.0588205 0)
(0.0172624 -0.0598686 0)
(0.0189826 -0.0608373 0)
(0.0207563 -0.061717 0)
(0.0225909 -0.0624975 0)
(0.024494 -0.0631683 0)
(0.0264736 -0.0637185 0)
(0.0285387 -0.0641364 0)
(0.0306984 -0.0644095 0)
(0.0329621 -0.0645245 0)
(0.0353399 -0.0644675 0)
(0.0378421 -0.0642232 0)
(0.0404792 -0.0637755 0)
(0.0432617 -0.0631075 0)
(0.0462005 -0.0622013 0)
(0.0493065 -0.0610383 0)
(0.05259 -0.0595997 0)
(0.0560617 -0.0578662 0)
(0.0597317 -0.0558189 0)
(0.0636096 -0.0534397 0)
(0.0677046 -0.0507116 0)
(0.0720251 -0.0476195 0)
(0.076579 -0.044151 0)
(0.0813734 -0.0402968 0)
(0.0864143 -0.0360517 0)
(0.0917072 -0.0314154 0)
(0.0972566 -0.0263929 0)
(0.103066 -0.0209958 0)
(0.10914 -0.0152422 0)
(0.115479 -0.0091579 0)
(0.122087 -0.00277649 0)
(0.128963 0.00386027 0)
(0.136108 0.0107024 0)
(0.143522 0.0176915 0)
(0.151199 0.0247621 0)
(0.000786257 -0.0414708 0)
(0.00187524 -0.0469808 0)
(0.00311219 -0.0495467 0)
(0.00440482 -0.0514151 0)
(0.00573208 -0.0530096 0)
(0.0070793 -0.0544694 0)
(0.00844524 -0.05585 0)
(0.00983127 -0.0571732 0)
(0.0112394 -0.0584455 0)
(0.0126726 -0.0596659 0)
(0.0141344 -0.0608294 0)
(0.0156293 -0.061929 0)
(0.0171626 -0.0629566 0)
(0.0187401 -0.0639034 0)
(0.0203686 -0.0647603 0)
(0.022055 -0.0655174 0)
(0.023807 -0.0661643 0)
(0.0256329 -0.0666901 0)
(0.0275414 -0.067083 0)
(0.0295416 -0.0673302 0)
(0.0316432 -0.067418 0)
(0.0338562 -0.0673319 0)
(0.0361912 -0.0670562 0)
(0.038659 -0.0665741 0)
(0.0412707 -0.0658681 0)
(0.0440379 -0.0649197 0)
(0.046972 -0.06371 0)
(0.050085 -0.0622197 0)
(0.0533885 -0.0604297 0)
(0.0568944 -0.0583214 0)
(0.0606142 -0.0558774 0)
(0.0645594 -0.053082 0)
(0.068741 -0.049922 0)
(0.0731696 -0.0463873 0)
(0.0778552 -0.0424719 0)
(0.0828074 -0.0381747 0)
(0.0880351 -0.0334998 0)
(0.0935465 -0.0284577 0)
(0.0993492 -0.0230659 0)
(0.10545 -0.0173492 0)
(0.111855 -0.0113402 0)
(0.118569 -0.00507959 0)
(0.125597 0.00138408 0)
(0.13294 0.00799428 0)
(0.140599 0.0146875 0)
(0.000721789 -0.0429554 0)
(0.00171808 -0.0485457 0)
(0.0028479 -0.0511488 0)
(0.00402599 -0.0530438 0)
(0.00523244 -0.054661 0)
(0.00645314 -0.0561421 0)
(0.00768661 -0.0575443 0)
(0.00893385 -0.0588906 0)
(0.0101965 -0.060189 0)
(0.011477 -0.0614393 0)
(0.0127787 -0.0626378 0)
(0.0141056 -0.0637783 0)
(0.0154624 -0.0648538 0)
(0.0168547 -0.0658563 0)
(0.0182884 -0.0667773 0)
(0.0197702 -0.0676078 0)
(0.0213072 -0.0683381 0)
(0.022907 -0.0689579 0)
(0.024578 -0.0694561 0)
(0.0263288 -0.0698206 0)
(0.0281688 -0.0700384 0)
(0.0301078 -0.0700954 0)
(0.032156 -0.0699767 0)
(0.0343245 -0.0696661 0)
(0.0366246 -0.0691464 0)
(0.0390682 -0.0683999 0)
(0.0416677 -0.067408 0)
(0.0444359 -0.0661517 0)
(0.0473861 -0.064612 0)
(0.0505316 -0.0627706 0)
(0.0538863 -0.06061 0)
(0.0574638 -0.0581144 0)
(0.061278 -0.0552701 0)
(0.0653426 -0.0520669 0)
(0.069671 -0.0484982 0)
(0.074276 -0.0445621 0)
(0.0791704 -0.040262 0)
(0.084366 -0.0356076 0)
(0.089874 -0.0306153 0)
(0.0957048 -0.0253089 0)
(0.101867 -0.0197198 0)
(0.10837 -0.0138869 0)
(0.11522 -0.00785728 0)
(0.122421 -0.00168523 0)
(0.129974 0.00456837 0)
(0.000665114 -0.0443303 0)
(0.00157846 -0.0499905 0)
(0.00261053 -0.0526239 0)
(0.00368317 -0.0545387 0)
(0.00477749 -0.0561715 0)
(0.00588018 -0.0576665 0)
(0.00698965 -0.0590824 0)
(0.0081067 -0.0604437 0)
(0.00923268 -0.0617594 0)
(0.0103697 -0.0630306 0)
(0.0115209 -0.0642545 0)
(0.0126899 -0.065426 0)
(0.0138809 -0.0665388 0)
(0.0150991 -0.0675859 0)
(0.01635 -0.0685593 0)
(0.0176397 -0.069451 0)
(0.0189748 -0.0702519 0)
(0.0203625 -0.0709523 0)
(0.0218105 -0.0715419 0)
(0.0233271 -0.0720094 0)
(0.0249212 -0.0723424 0)
(0.0266021 -0.0725277 0)
(0.0283801 -0.0725511 0)
(0.0302659 -0.0723972 0)
(0.0322709 -0.0720498 0)
(0.0344074 -0.0714917 0)
(0.0366882 -0.0707052 0)
(0.0391268 -0.0696721 0)
(0.0417374 -0.068374 0)
(0.044535 -0.0667931 0)
(0.0475346 -0.0649123 0)
(0.0507521 -0.062716 0)
(0.0542036 -0.0601909 0)
(0.0579051 -0.0573263 0)
(0.0618727 -0.0541156 0)
(0.0661223 -0.0505563 0)
(0.0706693 -0.0466512 0)
(0.0755288 -0.0424091 0)
(0.0807145 -0.0378452 0)
(0.0862397 -0.0329819 0)
(0.0921158 -0.0278488 0)
(0.0983532 -0.0224832 0)
(0.10496 -0.0169294 0)
(0.111943 -0.0112394 0)
(0.119304 -0.00547095 0)
(0.000616671 -0.0456086 0)
(0.00145656 -0.0513266 0)
(0.00239982 -0.053982 0)
(0.00337563 -0.0559088 0)
(0.00436606 -0.0575496 0)
(0.00535881 -0.0590507 0)
(0.00635241 -0.0604724 0)
(0.00734757 -0.0618405 0)
(0.00834551 -0.0631652 0)
(0.00934824 -0.0644487 0)
(0.0103586 -0.065689 0)
(0.0113799 -0.0668821 0)
(0.012416 -0.0680223 0)
(0.0134718 -0.0691034 0)
(0.0145522 -0.0701185 0)
(0.0156629 -0.0710597 0)
(0.01681 -0.071919 0)
(0.0180001 -0.0726874 0)
(0.0192404 -0.0733551 0)
(0.0205388 -0.0739116 0)
(0.0219035 -0.0743456 0)
(0.0233435 -0.0746445 0)
(0.0248687 -0.0747952 0)
(0.0264896 -0.0747832 0)
(0.0282174 -0.0745934 0)
(0.0300643 -0.0742096 0)
(0.0320434 -0.0736152 0)
(0.0341686 -0.0727929 0)
(0.0364547 -0.0717255 0)
(0.0389175 -0.070396 0)
(0.0415732 -0.068788 0)
(0.0444392 -0.0668868 0)
(0.0475329 -0.0646792 0)
(0.0508724 -0.0621551 0)
(0.0544757 -0.0593075 0)
(0.0583609 -0.0561337 0)
(0.0625458 -0.0526359 0)
(0.0670474 -0.0488219 0)
(0.071882 -0.0447055 0)
(0.0770645 -0.0403075 0)
(0.0826084 -0.0356554 0)
(0.0885251 -0.0307838 0)
(0.0948243 -0.0257344 0)
(0.101512 -0.0205556 0)
(0.108592 -0.0153018 0)
(0.000576378 -0.0468042 0)
(0.00135176 -0.052565 0)
(0.0022145 -0.0552323 0)
(0.00310144 -0.0571626 0)
(0.00399567 -0.0588031 0)
(0.00488608 -0.0603024 0)
(0.00577158 -0.0617222 0)
(0.00665292 -0.0630893 0)
(0.00753138 -0.0644151 0)
(0.00840892 -0.0657027 0)
(0.00928816 -0.0669511 0)
(0.0101722 -0.068157 0)
(0.0110648 -0.0693156 0)
(0.0119701 -0.0704212 0)
(0.0128928 -0.0714676 0)
(0.0138381 -0.0724478 0)
(0.0148116 -0.0733541 0)
(0.0158194 -0.0741784 0)
(0.016868 -0.0749117 0)
(0.0179649 -0.0755441 0)
(0.0191177 -0.0760653 0)