/*--------------------------------*- C++ -*----------------------------------*\
| =========                 |                                                 |
| \\      /  F ield         | OpenFOAM: The Open Source CFD Toolbox           |
|  \\    /   O peration     | Version:  5.0                                   |
|   \\  /    A nd           | Web:      www.OpenFOAM.org                      |
|    \\/     M anipulation  |                                                 |
\*---------------------------------------------------------------------------*/
FoamFile
{
    version     2.0;
    format      ascii;
    class       volScalarField;
    location    "0.95";
    object      alpha.water;
}
// * * * * * * * * * * * * * * * * * * * * * * * * * * * * * * * * * * * * * //

dimensions      [0 0 0 0 0 0 0];

internalField   nonuniform List<scalar> 
1915
(
-4.58348e-17
-1.01732e-16
-2.28003e-16
-5.21815e-16
-1.24045e-15
-3.11887e-15
-8.36152e-15
-2.36342e-14
-6.84682e-14
-1.96632e-13
-5.44253e-13
-1.42376e-12
-3.47803e-12
-7.88198e-12
-1.65266e-11
-3.20661e-11
-5.76761e-11
-9.63861e-11
-1.49933e-10
-2.17275e-10
-2.93444e-10
-3.69391e-10
-4.34243e-10
-4.76714e-10
-4.8972e-10
-3.43249e-26
-1.40741e-25
-6.1465e-25
-2.35702e-24
-7.9414e-24
-2.36153e-23
-6.32534e-23
-1.58208e-22
-3.8518e-22
-9.42435e-22
-2.34163e-21
-5.85407e-21
-1.44898e-20
-3.5102e-20
-8.29289e-20
-1.91557e-19
-4.35243e-19
-9.7985e-19
-2.2007e-18
-4.95691e-18
-1.12333e-17
-2.56567e-17
-5.91631e-17
-1.3831e-16
-3.30726e-16
-8.20117e-16
-2.13839e-15
-5.88708e-15
-1.68881e-14
-4.91153e-14
-1.40455e-13
-3.85237e-13
-9.96435e-13
-2.40625e-12
-5.39822e-12
-1.12354e-11
-2.1712e-11
-3.90195e-11
-6.53038e-11
-1.01849e-10
-1.48088e-10
-2.0086e-10
-2.54574e-10
-3.01907e-10
-3.36081e-10
-6.77287e-27
-2.75692e-26
-1.2136e-25
-4.66663e-25
-1.55485e-24
-4.52479e-24
-1.18332e-23
-2.90615e-23
-7.02275e-23
-1.72238e-22
-4.30581e-22
-1.08151e-21
-2.68328e-21
-6.49836e-21
-1.53224e-20
-3.53669e-20
-8.06088e-20
-1.83088e-19
-4.17838e-19
-9.64056e-19
-2.25618e-18
-5.35904e-18
-1.29055e-17
-3.14849e-17
-7.79776e-17
-1.97368e-16
-5.16022e-16
-1.40716e-15
-4.00205e-15
-1.16938e-14
-3.42182e-14
-9.76463e-14
-2.66076e-13
-6.82674e-13
-1.63611e-12
-3.6501e-12
-7.57592e-12
-1.46388e-11
-2.63548e-11
-4.42208e-11
-6.91624e-11
-1.00879e-10
-1.37403e-10
-1.75073e-10
-2.09297e-10
-1.14583e-27
-4.60739e-27
-2.03311e-26
-7.7759e-26
-2.54064e-25
-7.18241e-25
-1.82004e-24
-4.35097e-24
-1.03388e-23
-2.5196e-23
-6.28427e-23
-1.57109e-22
-3.86044e-22
-9.2346e-22
-2.16502e-21
-5.00486e-21
-1.14978e-20
-2.6522e-20
-6.20033e-20
-1.47895e-19
-3.61117e-19
-9.0235e-19
-2.30024e-18
-5.95661e-18
-1.56222e-17
-4.15126e-17
-1.12316e-16
-3.11891e-16
-8.93989e-16
-2.63494e-15
-7.86073e-15
-2.32032e-14
-6.62803e-14
-1.80094e-13
-4.60293e-13
-1.1e-12
-2.45209e-12
-5.09611e-12
-9.87426e-12
-1.78338e-11
-3.00155e-11
-4.70839e-11
-6.89021e-11
-9.42267e-11
-1.20747e-10
-1.61649e-28
-6.34169e-28
-2.77735e-27
-1.0454e-26
-3.31613e-26
-9.00917e-26
-2.18124e-25
-4.98816e-25
-1.1455e-24
-2.74145e-24
-6.802e-24
-1.69735e-23
-4.13942e-23
-9.7532e-23
-2.25013e-22
-5.15854e-22
-1.1983e-21
-2.83853e-21
-6.89195e-21
-1.72466e-20
-4.45939e-20
-1.18981e-19
-3.25996e-19
-9.10915e-19
-2.57829e-18
-7.35958e-18
-2.11753e-17
-6.16429e-17
-1.82583e-16
-5.51415e-16
-1.68703e-15
-5.14951e-15
-1.53816e-14
-4.41578e-14
-1.20199e-13
-3.07602e-13
-7.36789e-13
-1.64852e-12
-3.44203e-12
-6.70103e-12
-1.21552e-11
-2.05377e-11
-3.23408e-11
-4.75344e-11
-6.5374e-11
-1.80932e-29
-6.78218e-29
-2.90574e-28
-1.06183e-27
-3.22744e-27
-8.27669e-27
-1.86495e-26
-3.92668e-26
-8.35094e-26
-1.90651e-25
-4.69488e-25
-1.19382e-24
-2.97272e-24
-7.06686e-24
-1.62265e-23
-3.68889e-23
-8.63157e-23
-2.10946e-22
-5.42231e-22
-1.45714e-21
-4.0809e-21
-1.1871e-20
-3.56424e-20
-1.09491e-19
-3.40887e-19
-1.06713e-18
-3.34321e-18
-1.04767e-17
-3.29408e-17
-1.04285e-16
-3.32185e-16
-1.05636e-15
-3.30763e-15
-1.00366e-14
-2.91004e-14
-7.97998e-14
-2.0565e-13
-4.96265e-13
-1.11902e-12
-2.35402e-12
-4.61414e-12
-8.42105e-12
-1.43118e-11
-2.26779e-11
-3.35792e-11
-1.48476e-30
-5.14056e-30
-2.10773e-29
-7.34088e-29
-2.09363e-28
-4.92377e-28
-9.799e-28
-1.73272e-27
-2.972e-27
-5.58896e-27
-1.29179e-26
-3.70946e-26
-1.07383e-25
-2.83906e-25
-6.94956e-25
-1.63971e-24
-3.95699e-24
-1.01329e-23
-2.81882e-23
-8.38483e-23
-2.62796e-22
-8.58442e-22
-2.89847e-21
-1.00178e-20
-3.50559e-20
-1.22949e-19
-4.28909e-19
-1.48255e-18
-5.07853e-18
-1.72859e-17
-5.85578e-17
-1.96921e-16
-6.5214e-16
-2.1019e-15
-6.51132e-15
-1.91823e-14
-5.33316e-14
-1.39232e-13
-3.40197e-13
-7.76122e-13
-1.65024e-12
-3.26642e-12
-6.01718e-12
-1.03251e-11
-1.65371e-11
-7.86173e-32
-2.34269e-31
-8.74445e-31
-2.7865e-30
-7.16748e-30
-1.47061e-29
-2.38995e-29
-3.01892e-29
-3.18458e-29
0
2.50946e-28
7.53181e-28
1.965e-28
-2.62752e-27
-1.13408e-26
-3.40532e-26
-9.58218e-26
-2.77987e-25
-8.8233e-25
-3.04231e-24
-1.11516e-23
-4.25688e-23
-1.67312e-22
-6.70298e-22
-2.70706e-21
-1.09001e-20
-4.33594e-20
-1.69372e-19
-6.48338e-19
-2.43483e-18
-8.98927e-18
-3.26316e-17
-1.16063e-16
-4.01563e-16
-1.33884e-15
-4.26121e-15
-1.28453e-14
-3.64576e-14
-9.70092e-14
-2.4124e-13
-5.59334e-13
-1.2072e-12
-2.42382e-12
-4.52989e-12
-7.89447e-12
-2.17544e-33
-4.42862e-33
-1.20627e-32
-2.78993e-32
-5.02988e-32
-6.91332e-32
-7.22294e-32
-5.7751e-32
-4.02719e-32
7.7162e-33
3.35666e-31
1.61785e-30
8.98016e-30
1.01204e-31
-3.55114e-29
-1.80263e-28
-8.5269e-28
-3.47686e-27
-1.43112e-26
-6.22475e-26
-2.8498e-25
-1.34299e-24
-6.43591e-24
-3.10907e-23
-1.49942e-22
-7.14453e-22
-3.33217e-21
-1.51078e-20
-6.63674e-20
-2.82506e-19
-1.16727e-18
-4.68762e-18
-1.8284e-17
-6.90322e-17
-2.50831e-16
-8.70981e-16
-2.87022e-15
-8.9224e-15
-2.60382e-14
-7.10686e-14
-1.80905e-13
-4.2862e-13
-9.44367e-13
-1.93551e-12
-3.69605e-12
-3.14986e-35
-3.41996e-35
-5.1064e-35
-5.49955e-35
-2.60021e-35
-2.6001e-37
-3.03945e-39
-3.62653e-41
3.45769e-41
4.03836e-41
3.53843e-41
2.06171e-40
9.23102e-39
1.62953e-37
1.90615e-36
-2.88729e-32
-1.15789e-30
-1.16999e-29
-8.57866e-29
-5.72715e-28
-3.73167e-27
-2.38599e-26
-1.49853e-25
-9.24636e-25
-5.58361e-24
-3.27842e-23
-1.8578e-22
-1.00994e-21
-5.25026e-21
-2.61003e-20
-1.24289e-19
-5.6795e-19
-2.4926e-18
-1.04995e-17
-4.2342e-17
-1.62808e-16
-5.93836e-16
-2.04383e-15
-6.60577e-15
-1.99692e-14
-5.62863e-14
-1.47604e-13
-3.59728e-13
-8.14941e-13
-1.71865e-12
-2.28365e-37
-7.66109e-38
-8.04586e-39
-3.68575e-41
-2.29446e-43
-1.81753e-45
-1.7581e-47
8.30775e-47
1.05371e-44
1.47233e-43
6.29087e-43
1.13871e-42
1.0571e-42
7.07915e-43
6.06865e-43
6.531e-43
9.07606e-43
7.84865e-42
2.86445e-40
-9.02659e-31
-1.56591e-29
-1.8049e-28
-1.75209e-27
-1.54091e-26
-1.26137e-25
-9.70544e-25
-7.02826e-24
-4.78509e-23
-3.06108e-22
-1.84286e-21
-1.04693e-20
-5.62637e-20
-2.86564e-19
-1.38482e-18
-6.35047e-18
-2.76008e-17
-1.13384e-16
-4.38562e-16
-1.59051e-15
-5.38769e-15
-1.69937e-14
-4.98047e-14
-1.355e-13
-3.42324e-13
-8.04091e-13
-6.54316e-40
-1.55553e-42
-7.08568e-45
-4.64722e-47
-3.92898e-49
-4.04118e-51
-4.88206e-53
2.11544e-52
3.88016e-48
1.7974e-46
1.75193e-45
7.11902e-45
1.71781e-44
3.12144e-44
4.55047e-44
6.0168e-44
1.30193e-43
2.2313e-42
6.06259e-41
1.71898e-39
4.76784e-38
-9.59726e-32
-5.56605e-30
-1.03789e-28
-1.40734e-27
-1.60619e-26
-1.62088e-25
-1.4772e-24
-1.22898e-23
-9.40515e-23
-6.66111e-22
-4.38517e-21
-2.69157e-20
-1.54418e-19
-8.29948e-19
-4.18528e-18
-1.98038e-17
-8.77669e-17
-3.63177e-16
-1.39846e-15
-4.9989e-15
-1.65638e-14
-5.08602e-14
-1.44799e-13
-3.82379e-13
-8.38928e-44
-1.11855e-46
-3.05243e-49
-1.26219e-51
-7.00628e-54
-4.89013e-56
-3.94259e-58
3.43079e-55
7.06506e-50
7.17769e-48
9.93813e-47
4.66254e-46
1.14826e-45
1.93085e-45
2.70229e-45
3.90544e-45
2.00225e-44
5.4344e-43
1.5664e-41
4.18269e-40
1.03267e-38
2.40769e-37
5.69296e-36
-4.74857e-33
-3.70925e-30
-1.04123e-28
-1.8389e-27
-2.56579e-26
-3.04639e-25
-3.18578e-24
-2.99025e-23
-2.54374e-22
-1.97178e-21
-1.39829e-20
-9.11278e-20
-5.48543e-19
-3.06388e-18
-1.59068e-17
-7.66015e-17
-3.40821e-16
-1.40051e-15
-5.3246e-15
-1.87584e-14
-6.12089e-14
-1.84301e-13
-2.90928e-62
-3.6897e-61
-1.57044e-60
-9.54623e-61
-1.22459e-61
-1.05008e-62
4.66046e-61
7.22829e-57
2.35603e-51
3.39499e-49
5.46506e-48
2.7368e-47
6.87155e-47
1.15281e-46
1.62207e-46
3.06342e-46
4.47189e-45
1.33728e-43
3.71883e-42
9.80732e-41
2.4274e-39
5.54054e-38
1.15992e-36
2.25803e-35
4.82249e-34
9.07227e-33
-4.52736e-30
-1.73027e-28
-3.73608e-27
-6.13697e-26
-8.40439e-25
-9.94954e-24
-1.03217e-22
-9.44631e-22
-7.68475e-21
-5.62441e-20
-3.76205e-19
-2.32514e-18
-1.32659e-17
-6.93335e-17
-3.31883e-16
-1.47287e-15
-6.13792e-15
-2.40457e-14
-8.60279e-14
-2.89155e-63
-3.97467e-62
-2.10997e-61
-3.81218e-61
-4.81089e-62
-3.98776e-63
4.28377e-63
3.96576e-59
2.83477e-53
8.32498e-51
1.81302e-49
1.051e-48
2.82767e-48
4.95906e-48
7.76051e-48
3.15773e-47
9.38055e-46
2.8678e-44
8.05224e-43
2.12493e-41
5.28688e-40
1.22675e-38
2.62139e-37
5.17885e-36
9.62929e-35
1.72881e-33
3.089e-32
5.50442e-31
-2.37085e-30
-3.49431e-28
-1.02016e-26
-1.9927e-25
-3.03335e-24
-3.74658e-23
-3.80915e-22
-3.26779e-21
-2.46704e-20
-1.73656e-19
-1.1483e-18
-6.94217e-18
-3.85727e-17
-2.05576e-16
-1.12134e-15
-5.96176e-15
-3.1436e-14
-7.66583e-69
-4.19376e-68
-1.65418e-68
-1.36822e-69
7.61803e-69
3.95797e-67
5.23251e-65
1.35901e-61
2.29722e-55
1.83305e-52
5.46222e-51
3.64446e-50
1.04469e-49
1.93544e-49
3.84033e-49
4.73608e-48
1.73033e-46
5.43709e-45
1.5561e-43
4.13087e-42
1.03456e-40
2.43797e-39
5.33106e-38
1.07704e-36
2.03711e-35
3.69151e-34
6.51968e-33
1.11708e-31
1.79896e-30
2.66677e-29
3.4383e-28
3.92548e-27
4.26723e-26
4.81804e-25
6.95237e-24
1.25055e-22
2.02992e-21
2.68565e-20
2.86026e-19
2.52068e-18
1.89755e-17
1.17787e-16
5.44321e-16
1.59479e-15
3.92889e-15
-1.62987e-69
-1.1468e-68
-1.60972e-68
-1.28676e-69
3.68096e-68
2.65914e-66
3.31182e-65
1.17863e-63
5.14715e-58
2.57905e-54
1.01943e-52
7.86787e-52
2.48787e-51
5.42012e-51
2.28808e-50
7.49172e-49
2.76945e-47
8.97156e-46
2.63426e-44
7.10634e-43
1.80273e-41
4.32432e-40
9.6901e-39
2.00332e-37
3.84327e-36
7.04103e-35
1.27546e-33
2.28721e-32
3.84625e-31
5.75819e-30
7.91359e-29
1.15304e-27
2.07468e-26
3.78358e-25
5.62773e-24
7.36404e-23
9.86348e-22
1.38576e-20
1.89835e-19
2.28122e-18
2.17733e-17
1.61787e-16
9.57985e-16
4.49127e-15
1.85259e-14
-1.58161e-70
-1.40228e-69
-4.09196e-69
-2.91159e-70
4.99401e-68
5.11545e-66
1.102e-64
1.46412e-63
8.70108e-61
1.3377e-56
8.02535e-55
8.02195e-54
3.28005e-53
1.34021e-52
2.63047e-51
1.09786e-49
3.97412e-48
1.31176e-46
3.91996e-45
1.07557e-43
2.7713e-42
6.77736e-41
1.55704e-39
3.2953e-38
6.40841e-37
1.1826e-35
2.18751e-34
4.12231e-33
7.3049e-32
1.10287e-30
1.43801e-29
1.9535e-28
3.95158e-27
1.0007e-25
1.74856e-24
2.0074e-23
1.97017e-22
2.39916e-21
4.3101e-20
8.87267e-19
1.35113e-17
1.33915e-16
9.20028e-16
4.76668e-15
1.99688e-14
-4.27021e-75
-1.32311e-74
-6.18175e-76
2.30948e-72
2.46612e-68
4.69037e-66
1.2805e-64
1.80871e-63
4.49467e-61
8.8323e-60
1.88123e-58
7.58022e-57
2.05666e-55
7.84486e-54
3.85385e-52
1.47293e-50
5.25975e-49
1.72878e-47
5.19062e-46
1.44081e-44
3.76566e-43
9.38259e-42
2.20567e-40
4.77161e-39
9.41343e-38
1.75094e-36
3.29639e-35
6.49832e-34
1.21271e-32
1.85713e-31
2.31833e-30
2.93208e-29
6.96486e-28
2.69305e-26
5.96953e-25
7.06689e-24
5.31577e-23
3.72353e-22
5.39202e-21
1.82152e-19
4.93331e-18
7.47432e-17
6.84962e-16
4.24297e-15
1.93746e-14
-6.90659e-76
-1.45846e-75
-6.27335e-77
2.79743e-76
1.32611e-69
8.14931e-67
4.644e-65
3.75467e-64
3.52836e-62
1.14164e-60
1.05246e-59
2.56024e-58
1.75301e-56
1.06388e-54
4.68908e-53
1.82165e-51
6.44949e-50
2.07856e-48
6.2094e-47
1.72966e-45
4.56113e-44
1.1528e-42
2.75963e-41
6.08667e-40
1.2222e-38
2.30787e-37
4.42654e-36
9.02453e-35
1.75313e-33
2.73603e-32
3.35826e-31
4.07627e-30
1.12998e-28
6.04179e-27
1.59546e-25
2.04242e-24
1.54805e-23
7.13651e-23
4.46066e-22
2.14592e-20
1.12551e-18
2.66078e-17
3.4005e-16
2.72982e-15
1.50752e-14
-5.4797e-77
-1.32047e-76
-5.21533e-78
4.04537e-77
4.40097e-73
5.59576e-68
5.88298e-66
6.08751e-65
1.93959e-64
1.13083e-62
5.95923e-61
4.58966e-59
2.29546e-57
1.0566e-55
4.92121e-54
2.03462e-52
7.13258e-51
2.26431e-49
6.72947e-48
1.87596e-46
4.96747e-45
1.26464e-43
3.06129e-42
6.86825e-41
1.41287e-39
2.7449e-38
5.4028e-37
1.12296e-35
2.22292e-34
3.53829e-33
4.40634e-32
5.37023e-31
1.53579e-29
8.63412e-28
2.30058e-26
3.03108e-25
2.4232e-24
1.19373e-23
3.53148e-23
1.13106e-21
1.54357e-19
5.92029e-18
1.0588e-16
1.12302e-15
7.89005e-15
-1.95974e-79
-3.53519e-81
1.57471e-80
5.4208e-76
7.42224e-73
3.57029e-69
2.34774e-67
2.69407e-66
1.92839e-65
1.85635e-63
9.2684e-62
4.08935e-60
2.02941e-58
1.00703e-56
4.84122e-55
1.98588e-53
6.92117e-52
2.19038e-50
6.52123e-49
1.83032e-47
4.86949e-46
1.24036e-44
3.01411e-43
6.87639e-42
1.46123e-40
2.96206e-39
6.04615e-38
1.26904e-36
2.49496e-35
4.00729e-34
5.16547e-33
6.53296e-32
1.58055e-30
7.29153e-29
1.76405e-27
2.16954e-26
1.58509e-25
9.83528e-25
2.74631e-24
1.52802e-23
9.40768e-21
7.29667e-19
1.9259e-17
2.73587e-16
2.48187e-15
-4.6538e-80
-7.65018e-82
2.29914e-80
1.41366e-75
1.15674e-72
2.41766e-70
1.61843e-68
2.01069e-67
1.43824e-66
1.07791e-64
6.90598e-63
4.05054e-61
2.05853e-59
9.53638e-58
4.19342e-56
1.67077e-54
5.83042e-53
1.84764e-51
5.54595e-50
1.58245e-48
4.2581e-47
1.08284e-45
2.62751e-44
6.10178e-43
1.34792e-41
2.86462e-40
6.0774e-39
1.28425e-37
2.45634e-36
3.86181e-35
5.08221e-34
6.78401e-33
1.42301e-31
4.77662e-30
1.03237e-28
1.15998e-27
7.5642e-27
3.9146e-26
2.19057e-25
3.11288e-25
1.17431e-22
3.49842e-20
1.71179e-18
3.55987e-17
4.27932e-16
-5.37051e-81
-8.06355e-83
3.14502e-81
1.59374e-75
9.88011e-73
2.16782e-71
4.64083e-70
6.02399e-69
7.87265e-68
7.35088e-66
5.46406e-64
3.12685e-62
1.50565e-60
6.84421e-59
3.00549e-57
1.19589e-55
4.19231e-54
1.34108e-52
4.07303e-51
1.1859e-49
3.25536e-48
8.31171e-47
2.01046e-45
4.75206e-44
1.09673e-42
2.433e-41
5.2538e-40
1.09443e-38
1.99683e-37
2.97894e-36
3.94781e-35
5.83181e-34
1.19038e-32
2.9517e-31
5.10183e-30
5.0693e-29
3.04563e-28
1.4428e-27
4.13847e-27
2.72274e-26
3.88051e-24
4.63173e-22
5.40254e-20
2.07371e-18
3.69651e-17
-9.25711e-83
-1.28326e-84
5.80095e-83
5.12385e-76
1.82034e-73
3.44884e-72
1.44263e-71
2.28772e-71
4.40473e-69
4.01368e-67
3.10656e-65
1.88038e-63
9.54208e-62
4.29843e-60
1.77717e-58
6.88247e-57
2.47182e-55
8.13622e-54
2.50052e-52
7.39681e-51
2.08974e-49
5.43515e-48
1.31207e-46
3.13944e-45
7.67338e-44
1.79756e-42
3.78006e-41
7.13615e-40
1.16531e-38
1.62966e-37
2.58682e-36
5.51831e-35
1.06851e-33
1.88289e-32
2.41838e-31
1.91943e-30
1.01458e-29
3.55691e-29
7.46205e-29
9.77402e-27
2.01907e-24
6.54282e-23
1.32061e-21
4.9335e-20
1.45457e-18
-3.49086e-83
-4.42367e-85
4.6681e-86
5.0746e-79
3.55159e-75
1.75581e-73
1.02534e-72
2.35642e-72
2.29306e-70
2.13723e-68
1.52894e-66
8.99966e-65
4.61091e-63
2.07232e-61
8.42613e-60
3.23023e-58
1.17129e-56
3.89684e-55
1.19927e-53
3.59554e-52
1.06126e-50
2.88867e-49
7.017e-48
1.6633e-46
4.3599e-45
1.12356e-43
2.18521e-42
3.15095e-41
3.82878e-40
5.63562e-39
2.45922e-37
8.79372e-36
1.26728e-34
1.21775e-33
9.23633e-33
4.81081e-32
1.85461e-31
5.06265e-31
8.74831e-31
7.30344e-28
4.5503e-25
1.8077e-23
3.04881e-22
3.50765e-21
4.57562e-20
-5.19246e-84
-6.07253e-86
4.96433e-86
7.62038e-80
1.24601e-77
1.42131e-76
3.08208e-76
8.74066e-74
8.58189e-72
8.28115e-70
6.37271e-68
3.69743e-66
1.78229e-64
7.66818e-63
3.13808e-61
1.22275e-59
4.35987e-58
1.40542e-56
4.28923e-55
1.32616e-53
4.1918e-52
1.24974e-50
3.24723e-49
7.38059e-48
1.83486e-46
4.89089e-45
8.10903e-44
7.68943e-43
6.16722e-42
3.11693e-40
3.63324e-38
1.16684e-36
1.11413e-35
4.97617e-35
1.40155e-34
2.99982e-34
4.96354e-34
7.13184e-34
2.3417e-33
1.06137e-29
4.43943e-26
2.75682e-24
5.88108e-23
7.17397e-22
6.6718e-21
-5.26165e-92
-6.9579e-94
1.12844e-86
1.1037e-80
2.10879e-78
2.8218e-77
1.07552e-76
3.80242e-75
3.28171e-73
2.71599e-71
1.93451e-69
1.0807e-67
5.11797e-66
2.16063e-64
8.67871e-63
3.30437e-61
1.13635e-59
3.61331e-58
1.19538e-56
4.38277e-55
1.53753e-53
4.66722e-52
1.38896e-50
3.11884e-49
4.62665e-48
5.63758e-47
6.28862e-46
6.70384e-45
1.19263e-43
4.30488e-41
2.2254e-39
2.7769e-38
1.37939e-37
3.56683e-37
6.74478e-37
6.70262e-37
7.07374e-37
2.8869e-36
2.18439e-34
2.39557e-31
4.54997e-27
3.35215e-25
8.0005e-24
1.07463e-22
1.03507e-21
-1.59398e-91
-1.79546e-93
7.71929e-87
7.1587e-82
4.69897e-80
2.68931e-79
4.31911e-79
1.33162e-76
1.08938e-74
6.75328e-73
3.79845e-71
1.91701e-69
9.13749e-68
4.15562e-66
1.76348e-64
6.60788e-63
2.1386e-61
7.01503e-60
3.08481e-58
1.71698e-56
7.38219e-55
1.50755e-53
1.80591e-52
1.96583e-51
2.83308e-50
5.51784e-49
1.14407e-47
2.76363e-46
1.15614e-44
7.91257e-43
2.75461e-41
3.28445e-40
1.52807e-39
3.61576e-39
5.55476e-39
6.91643e-39
1.00167e-38
1.80412e-37
1.4053e-35
1.28826e-32
3.61664e-28
3.65096e-26
9.82892e-25
1.40892e-23
1.37557e-22
-2.65604e-91
-2.75788e-93
3.73641e-92
1.24672e-89
1.47352e-88
5.61829e-83
2.65077e-80
1.85444e-78
1.31824e-76
8.50556e-75
4.91805e-73
2.61548e-71
1.32624e-69
6.34951e-68
2.52552e-66
8.01918e-65
2.88355e-63
2.0427e-61
1.46843e-59
4.2379e-58
6.23818e-57
7.10684e-56
9.31668e-55
1.68326e-53
3.43356e-52
7.3154e-51
6.29562e-49
3.96382e-47
1.51853e-45
5.44607e-44
5.26347e-43
1.88566e-42
3.38578e-42
4.02353e-42
3.9332e-42
4.9577e-42
6.31447e-41
4.6448e-39
3.34323e-37
3.7824e-34
2.146e-29
3.37138e-27
1.05559e-25
1.64626e-24
1.67967e-23
-1.12424e-91
-1.1555e-93
5.6914e-92
2.6176e-89
3.83838e-88
1.96555e-84
1.93259e-82
1.62829e-80
1.2101e-78
7.97885e-77
4.78131e-75
2.71219e-73
1.4004e-71
5.79694e-70
2.0437e-68
9.66319e-67
8.91723e-65
5.04318e-63
1.22527e-61
1.74923e-60
2.17074e-59
3.71296e-58
9.83032e-57
2.20618e-55
4.45294e-54
2.35972e-52
1.18187e-49
7.12107e-48
4.66325e-47
1.36492e-46
2.09908e-46
1.75219e-46
3.84459e-47
3.03386e-47
8.03147e-46
2.13862e-44
3.81667e-43
4.11789e-41
5.44905e-39
3.09177e-36
8.26255e-31
2.57215e-28
9.62861e-27
1.67649e-25
1.84451e-24
-3.09001e-92
-3.52144e-94
2.87491e-92
2.36248e-89
3.90879e-88
1.1079e-86
1.13553e-84
9.7628e-83
7.37883e-81
5.12398e-79
3.29682e-77
1.784e-75
7.77889e-74
3.43344e-72
2.38423e-70
1.97196e-68
9.19403e-67
2.15813e-65
3.2053e-64
4.76273e-63
1.21506e-61
3.69427e-60
6.00796e-59
7.14324e-58
3.52324e-55
5.83242e-53
4.70057e-52
1.65535e-51
2.48912e-51
1.79717e-51
1.90867e-52
7.55656e-53
8.47816e-51
9.10503e-49
2.087e-47
2.36775e-46
2.81738e-44
2.27607e-42
2.06669e-40
7.14313e-38
1.3746e-32
1.61175e-29
7.49152e-28
1.48686e-26
1.78302e-25
-4.22998e-93
-1.35787e-94
4.34147e-93
4.74553e-90
5.11857e-89
3.99155e-89
4.07234e-87
3.62376e-85
2.88385e-83
2.0424e-81
1.23819e-79
6.43056e-78
3.3949e-76
2.84569e-74
2.55943e-72
1.01961e-70
1.99244e-69
3.03837e-68
6.76148e-67
2.74871e-65
7.24289e-64
9.52018e-63
1.73652e-61
7.7123e-59
2.96305e-57
2.1514e-56
4.85212e-56
5.54536e-56
2.69701e-56
4.16041e-57
2.38748e-56
3.36936e-54
1.4129e-52
3.34668e-51
2.38364e-49
1.32891e-47
1.54378e-46
5.56616e-44
2.8083e-41
8.61295e-39
4.33588e-35
7.73942e-31
4.84023e-29
1.13873e-27
1.51107e-26
-8.33393e-96
-1.12252e-94
-2.68337e-94
-6.1547e-96
-6.1591e-98
7.07543e-92
7.6781e-90
7.19399e-88
5.67726e-86
3.94307e-84
2.63133e-82
1.86526e-80
1.7306e-78
1.27911e-76
4.46455e-75
9.34287e-74
1.83162e-72
5.49363e-71
2.4832e-69
6.64722e-68
9.66026e-67
3.62492e-65
8.97937e-63
1.95643e-61
8.43683e-61
1.27024e-60
8.43869e-61
3.35307e-62
3.40042e-62
7.56531e-60
6.40296e-58
1.29552e-56
1.29373e-55
1.30169e-54
2.45433e-53
8.72304e-51
3.45756e-48
1.27864e-45
4.35376e-43
1.23964e-40
2.23756e-37
2.53331e-32
2.4579e-30
7.23307e-29
1.0889e-27
-1.07961e-96
-1.62353e-95
-4.51665e-95
-9.06292e-97
-1.15507e-98
6.54513e-95
6.61961e-93
5.37698e-91
5.83566e-89
5.30916e-87
3.45678e-85
3.70204e-83
2.32068e-81
8.02579e-80
2.05789e-78
5.24408e-77
2.00041e-75
1.15962e-73
3.57621e-72
5.30769e-71
1.11458e-69
2.43066e-67
7.23029e-66
3.69407e-65
5.96572e-65
4.31547e-65
1.32045e-66
4.91774e-65
3.41521e-63
2.05311e-62
3.80125e-62
4.36997e-62
5.17783e-62
2.59031e-60
1.50696e-57
8.33859e-55
4.49103e-52
2.39105e-49
1.21951e-46
5.27668e-44
3.16399e-39
4.5265e-34
9.18336e-32
3.59996e-30
6.3307e-29
-1.36132e-99
-2.88431e-98
-1.08575e-97
-1.68573e-99
-1.67579e-101
6.41499e-99
2.84051e-96
2.23787e-94
1.14785e-92
2.09763e-90
2.98718e-88
1.28697e-86
3.12061e-85
1.11902e-83
5.59238e-82
3.26183e-80
2.15124e-78
7.08273e-77
1.12111e-75
1.86781e-74
3.16011e-72
1.40032e-70
9.6597e-70
1.79313e-69
1.46042e-69
4.06056e-71
2.63074e-69
4.41761e-68
1.40333e-67
1.34687e-67
4.80534e-66
7.81061e-65
1.36766e-64
2.88994e-62
1.51069e-59
7.87852e-57
4.22064e-54
2.33453e-51
1.33724e-48
9.51563e-46
9.15383e-43
1.20383e-36
2.34569e-33
1.32358e-31
2.80705e-30
-2.21595e-106
-4.76347e-105
-1.13306e-104
-1.19426e-105
5.41506e-106
3.54308e-102
2.43812e-100
8.81912e-99
2.55008e-97
1.71014e-95
3.77414e-93
3.0203e-91
2.50233e-89
1.39657e-87
9.56419e-86
8.57728e-84
3.09447e-82
5.3002e-81
9.98508e-80
1.89733e-77
1.16374e-75
1.00124e-74
2.03806e-74
1.74484e-74
3.74561e-76
1.54969e-80
5.72158e-90
1.36771e-78
1.23017e-72
2.20063e-70
2.48714e-69
3.4292e-69
4.4212e-67
2.70571e-64
1.68154e-61
1.07477e-58
7.22115e-56
5.15189e-53
3.92009e-50
3.2225e-47
3.21251e-44
1.12705e-40
3.42953e-35
3.26372e-33
8.99592e-32
-3.89082e-107
-6.93487e-106
-1.8482e-105
-7.88551e-106
-2.9061e-108
1.55701e-107
1.26178e-105
1.6065e-103
1.29597e-101
1.26393e-99
9.00356e-98
8.28687e-96
6.57292e-94
4.23144e-92
2.54367e-90
9.33172e-89
2.86421e-87
1.36219e-85
1.83575e-83
1.67265e-81
2.31977e-80
6.33011e-80
6.30807e-80
1.25571e-81
3.79851e-86
1.04549e-98
2.93755e-95
1.8434e-89
3.18568e-86
5.12802e-83
7.35849e-80
1.04206e-76
1.37996e-73
1.70944e-70
2.18787e-67
2.77035e-64
3.51039e-61
4.54551e-58
6.15369e-55
8.9648e-52
1.44615e-48
3.25459e-44
1.70963e-37
4.32356e-35
2.04784e-33
-1.89568e-111
-2.20194e-110
-1.08891e-109
-2.75606e-109
0
1.31569e-113
2.61293e-111
2.12015e-109
1.70799e-107
1.80134e-105
1.61326e-103
2.2505e-101
1.85839e-99
7.5519e-98
3.7001e-96
2.84737e-94
1.86012e-92
2.83957e-90
2.3757e-88
2.15451e-87
3.72412e-87
2.00662e-88
6.92164e-92
3.87152e-98
1.22226e-104
9.18842e-99
2.42823e-95
5.26147e-92
1.14167e-88
2.21168e-85
3.89008e-82
6.29253e-79
9.45177e-76
1.33887e-72
1.8105e-69
2.3708e-66
3.01814e-63
3.74244e-60
4.59293e-57
6.36501e-54
1.04562e-50
2.07651e-47
1.819e-43
1.66297e-37
5.13521e-35
-6.22038e-117
-4.24478e-116
-1.56608e-115
-2.95022e-115
2.33895e-142
1.49007e-142
3.00231e-135
6.67707e-133
6.06292e-127
1.89181e-119
3.52927e-112
5.72565e-110
1.27797e-107
1.67269e-105
9.06513e-104
9.01325e-102
3.13424e-99
1.13106e-97
4.07107e-97
5.46993e-99
-1.62513e-113
-1.38422e-127
2.61808e-123
6.1417e-115
1.16316e-104
4.31673e-101
1.65946e-97
5.38604e-94
1.51244e-90
3.75573e-87
8.23009e-84
1.61164e-80
2.77492e-77
4.13157e-74
5.49161e-71
7.06408e-68
8.59526e-65
9.46923e-62
1.1502e-58
1.4041e-55
1.71877e-52
2.7939e-49
5.87351e-45
4.82021e-39
1.11198e-36
-1.41012e-123
-2.51657e-123
-3.47593e-123
-1.89679e-123
-1.04416e-146
1.39404e-146
3.73682e-135
1.09756e-132
6.17513e-132
9.35832e-133
2.74548e-136
2.20732e-139
1.55948e-142
0
-6.75977e-142
0
1.9423e-116
4.50454e-123
0
-3.15671e-122
-9.67616e-126
0
4.72105e-123
1.15011e-119
1.42218e-115
3.24718e-109
1.84498e-105
6.39367e-102
3.0119e-98
1.23694e-94
4.50128e-91
1.46438e-87
4.27567e-84
1.14936e-80
2.4195e-77
5.26207e-74
1.33718e-70
3.34457e-67
8.36907e-64
2.13674e-60
5.7127e-57
1.66593e-53
5.08015e-48
1.25909e-41
5.36757e-39
-8.11286e-135
-5.61851e-135
-9.08901e-135
-1.12931e-134
1.2916e-147
2.69127e-147
4.66772e-147
6.05512e-142
5.21484e-135
1.71212e-132
6.41458e-132
2.51873e-134
1.35872e-141
1.47762e-147
-1.5318e-141
1.64188e-126
6.75083e-124
8.88285e-123
-1.63778e-122
-5.55786e-122
8.37614e-124
5.89092e-122
2.9262e-124
2.17561e-128
8.16875e-126
1.3518e-121
3.21466e-116
5.32315e-112
1.30849e-107
4.88726e-103
1.32449e-98
5.2302e-97
0
-3.39165e-103
-1.75495e-98
-2.48889e-94
-2.33853e-90
-1.88835e-86
-1.36742e-82
-1.00223e-78
-7.30006e-75
-5.61216e-71
1.23321e-56
1.96279e-48
1.75944e-42
1.4774e-150
4.99536e-151
1.34072e-150
5.83787e-150
3.23086e-149
2.32768e-148
1.72248e-147
3.12674e-147
1.69906e-140
4.20524e-136
4.84039e-133
4.12749e-136
-7.1144e-145
1.42144e-147
-1.7843e-141
1.83481e-128
5.64382e-125
1.21807e-123
4.3426e-126
2.13795e-149
1.51137e-123
7.90114e-122
1.47122e-124
3.90934e-131
2.7964e-147
1.63756e-147
0
0
5.17279e-112
1.13395e-103
1.53381e-98
3.37596e-97
4.00685e-100
0
0
2.65288e-109
4.01416e-105
9.50776e-103
3.43492e-97
7.45604e-93
-7.47075e-93
-4.34006e-91
-4.84249e-87
-8.11018e-82
-2.13514e-84
)
;

boundaryField
{
    leftWall
    {
        type            zeroGradient;
    }
    rightWall
    {
        type            zeroGradient;
    }
    lowerWall
    {
        type            zeroGradient;
    }
    atmosphere
    {
        type            inletOutlet;
        inletValue      uniform 0;
        value           uniform 0;
    }
    defaultFaces
    {
        type            empty;
    }
    procBoundary2to0
    {
        type            processor;
        value           nonuniform List<scalar> 
46
(
-1.57507e-16
-3.44211e-16
-7.65716e-16
-1.7692e-15
-4.34062e-15
-1.14384e-14
-3.20443e-14
-9.27131e-14
-2.67649e-13
-7.48382e-13
-1.98379e-12
-4.91658e-12
-1.1299e-11
-2.39778e-11
-4.69312e-11
-8.48239e-11
-1.41921e-10
-2.2041e-10
-3.18409e-10
-4.28164e-10
-5.35682e-10
-6.22094e-10
-6.71336e-10
-6.71225e-10
-6.14912e-10
-1.51936e-25
-6.24035e-25
-2.69882e-24
-1.02516e-23
-3.4661e-23
-1.0464e-22
-2.85489e-22
-7.23305e-22
-1.76292e-21
-4.26654e-21
-1.04228e-20
-2.56618e-20
-6.29392e-20
-1.51985e-19
-3.59151e-19
-8.30201e-19
-1.88374e-18
-4.21749e-18
-9.3664e-18
-2.07229e-17
-2.07229e-17
)
;
    }
    procBoundary2to3
    {
        type            processor;
        value           nonuniform List<scalar> 
43
(
-4.7241e-10
-3.52201e-10
-2.35483e-10
-1.45451e-10
-8.43925e-11
-4.66033e-11
-2.47943e-11
-1.28651e-11
-6.5932e-12
-3.38155e-12
-1.75813e-12
-9.35451e-13
-5.0866e-13
-2.7457e-13
-1.31782e-13
-2.93812e-14
5.29687e-14
7.1083e-14
7.11375e-14
6.29478e-14
4.04614e-14
1.62078e-14
3.60658e-15
4.18857e-16
2.50609e-17
8.42182e-19
6.21329e-20
9.57605e-21
1.25564e-21
1.49235e-22
1.67317e-23
1.68365e-24
1.47674e-25
1.09926e-26
6.65561e-28
3.13618e-29
1.15835e-30
4.41446e-32
2.66536e-33
3.48379e-35
2.03727e-37
2.27502e-40
8.11142e-56
)
;
    }
}


// ************************************************************************* //
