/*--------------------------------*- C++ -*----------------------------------*\
| =========                 |                                                 |
| \\      /  F ield         | OpenFOAM: The Open Source CFD Toolbox           |
|  \\    /   O peration     | Version:  5.0                                   |
|   \\  /    A nd           | Web:      www.OpenFOAM.org                      |
|    \\/     M anipulation  |                                                 |
\*---------------------------------------------------------------------------*/
FoamFile
{
    version     2.0;
    format      ascii;
    class       volScalarField;
    location    "0.95";
    object      k;
}
// * * * * * * * * * * * * * * * * * * * * * * * * * * * * * * * * * * * * * //

dimensions      [0 2 -2 0 0 0 0];

internalField   nonuniform List<scalar> 
1915
(
0.107717
0.111542
0.115511
0.119635
0.123924
0.128388
0.13304
0.137899
0.142992
0.148358
0.154054
0.160159
0.16678
0.174055
0.182159
0.191301
0.201722
0.21368
0.227428
0.243178
0.261057
0.281056
0.303002
0.326552
0.351236
0.0143797
0.0309955
0.0398126
0.0461274
0.0512868
0.0557811
0.0598478
0.0636222
0.0671912
0.0706152
0.0739395
0.0771996
0.080425
0.0836411
0.0868704
0.0901332
0.0934482
0.0968326
0.100302
0.103871
0.107553
0.111358
0.115297
0.119378
0.123611
0.128004
0.132568
0.137316
0.142271
0.147461
0.152928
0.15873
0.164944
0.17167
0.179031
0.187177
0.196279
0.206521
0.218089
0.231146
0.245808
0.262113
0.279996
0.29928
0.319685
0.0143297
0.0309395
0.0397058
0.0459739
0.0510936
0.0555556
0.0595968
0.0633523
0.0669083
0.0703249
0.0736467
0.0769087
0.0801397
0.0833643
0.0866039
0.089878
0.093204
0.0965979
0.100074
0.103646
0.107325
0.111121
0.115044
0.119101
0.123299
0.127646
0.132152
0.136826
0.141685
0.14675
0.152053
0.157636
0.163553
0.169879
0.176701
0.184127
0.19228
0.201294
0.211308
0.222449
0.234822
0.248485
0.263439
0.279613
0.296866
0.0142687
0.0308535
0.0395646
0.0457838
0.0508622
0.0552901
0.0593036
0.0630373
0.0665771
0.0699826
0.0732979
0.0765575
0.0797897
0.0830184
0.0862645
0.0895465
0.0928811
0.0962833
0.0997668
0.103344
0.107025
0.11082
0.114736
0.118781
0.122962
0.127284
0.131755
0.136383
0.141181
0.146164
0.151355
0.156785
0.162495
0.168537
0.174977
0.181892
0.189373
0.197521
0.206441
0.216237
0.227003
0.23881
0.251697
0.265663
0.280663
0.0141976
0.0307408
0.0393928
0.0455613
0.050597
0.054989
0.0589728
0.0626822
0.0662028
0.0695935
0.0728983
0.0761512
0.07938
0.0826083
0.0858564
0.0891423
0.0924821
0.0958903
0.0993799
0.102962
0.106648
0.110445
0.114362
0.118406
0.12258
0.126893
0.131348
0.135953
0.140717
0.145652
0.150774
0.156106
0.161678
0.167529
0.173707
0.180269
0.187285
0.194832
0.202993
0.211857
0.221508
0.232024
0.243467
0.25588
0.269283
0.0141175
0.0306044
0.0391939
0.0453103
0.050302
0.0546568
0.058609
0.0622919
0.0657903
0.0691629
0.0724533
0.0756953
0.0789162
0.0821395
0.085385
0.0886704
0.0920115
0.0954224
0.0989157
0.102503
0.106193
0.109995
0.113917
0.117964
0.122142
0.126456
0.13091
0.13551
0.140262
0.145176
0.150264
0.155542
0.161032
0.166763
0.172772
0.179102
0.185807
0.192948
0.200595
0.208821
0.217707
0.22733
0.237768
0.249089
0.261351
0.0140296
0.0304475
0.0389715
0.0450346
0.0499815
0.0542979
0.058217
0.0618712
0.0653449
0.0686964
0.0719688
0.0751957
0.0784045
0.081618
0.0848562
0.0881365
0.0914746
0.0948843
0.0983781
0.101967
0.105661
0.109469
0.113397
0.117451
0.121638
0.125961
0.130425
0.135033
0.139792
0.144707
0.149788
0.155047
0.1605
0.166168
0.172081
0.178271
0.184781
0.191661
0.198969
0.206771
0.215139
0.224152
0.233891
0.244437
0.255871
0.0139357
0.0302728
0.0387291
0.044738
0.0496395
0.0539167
0.0578015
0.0614254
0.0648721
0.0681995
0.0714506
0.0746587
0.077851
0.0810504
0.0842767
0.0875472
0.0908776
0.0942817
0.0977723
0.10136
0.105056
0.108867
0.112802
0.116866
0.121064
0.125402
0.129883
0.13451
0.139289
0.144222
0.149319
0.154586
0.160038
0.165689
0.171561
0.177682
0.184085
0.190812
0.197913
0.205444
0.213473
0.222073
0.231327
0.241319
0.25214
0.0138373
0.0300833
0.0384698
0.0444241
0.0492799
0.0535175
0.057367
0.060959
0.0643768
0.0676777
0.0709045
0.0740903
0.0772622
0.0804432
0.083653
0.086909
0.090227
0.0936211
0.0971041
0.100687
0.104381
0.108194
0.112133
0.116207
0.120419
0.124775
0.129278
0.133931
0.138739
0.143705
0.148834
0.154133
0.159611
0.16528
0.171157
0.177264
0.183627
0.190283
0.197272
0.204645
0.212463
0.220793
0.229713
0.239307
0.249664
0.0137362
0.0298817
0.0381971
0.0440966
0.0489067
0.0531046
0.0569187
0.0604782
0.0638657
0.0671381
0.0703379
0.073498
0.0766457
0.0798038
0.0829922
0.0862288
0.0895296
0.0929089
0.0963797
0.0999536
0.103641
0.107453
0.111395
0.115476
0.119701
0.124076
0.128604
0.133289
0.138134
0.143142
0.148317
0.153664
0.159191
0.164905
0.170822
0.176957
0.183332
0.189977
0.196928
0.204227
0.211928
0.220091
0.228788
0.238094
0.248093
0.0136345
0.0296707
0.0379141
0.0437596
0.0485251
0.0526839
0.0564623
0.0599885
0.0633444
0.0665865
0.069757
0.0728888
0.0760089
0.0791405
0.0823034
0.0855158
0.088794
0.0921526
0.0956055
0.0991653
0.102843
0.106648
0.11059
0.114675
0.118912
0.123305
0.127858
0.132576
0.137462
0.142519
0.14775
0.153158
0.15875
0.164532
0.170514
0.176709
0.183136
0.189818
0.196784
0.204071
0.211725
0.219798
0.228351
0.237452
0.247175
0.0135357
0.0294536
0.0376253
0.0434175
0.0481389
0.0522587
0.0560013
0.0594938
0.0628171
0.0660274
0.0691667
0.0722677
0.0753574
0.078459
0.0815926
0.0847766
0.0880276
0.0913609
0.0947906
0.0983299
0.101991
0.105784
0.10972
0.113807
0.118051
0.122459
0.127037
0.131788
0.136716
0.141825
0.147117
0.152595
0.158263
0.164126
0.170193
0.176473
0.18298
0.189733
0.196755
0.204077
0.211735
0.219774
0.228244
0.237204
0.246713
0.0134468
0.0292337
0.0373332
0.0430729
0.0477509
0.0518325
0.0555395
0.058998
0.062288
0.0654654
0.0685718
0.0716397
0.0746963
0.0777648
0.0808655
0.084017
0.0872364
0.0905394
0.0939408
0.0974543
0.101093
0.104868
0.108791
0.112871
0.117118
0.121537
0.126135
0.130916
0.135885
0.141046
0.1464
0.151951
0.157702
0.163657
0.169821
0.176201
0.182808
0.189655
0.196762
0.204151
0.211852
0.219899
0.228333
0.237199
0.246547
0.0133648
0.0290124
0.0370405
0.0427289
0.0473648
0.0514088
0.0550808
0.0585051
0.0617614
0.0649049
0.0679768
0.0710098
0.0740308
0.0770631
0.0801274
0.0832425
0.0864258
0.0896935
0.0930612
0.0965431
0.100153
0.103904
0.107807
0.111874
0.116114
0.120536
0.125147
0.129954
0.134959
0.140167
0.145582
0.151205
0.15704
0.163088
0.169354
0.175843
0.182561
0.189519
0.196728
0.204207
0.211976
0.220061
0.228493
0.237305
0.246535
0.0132823
0.0287915
0.0367499
0.0423888
0.0469839
0.0509914
0.0546288
0.0580192
0.0612414
0.0643502
0.0673864
0.0703825
0.0733656
0.076359
0.0793834
0.0824581
0.0856008
0.0888283
0.0921566
0.0956009
0.0991756
0.102895
0.106771
0.110816
0.115042
0.119457
0.124071
0.128892
0.133924
0.139173
0.144641
0.15033
0.156244
0.162384
0.168751
0.175349
0.182182
0.189255
0.196576
0.204156
0.212009
0.220153
0.228608
0.237396
0.246543
0.0131997
0.0285735
0.0364645
0.0420558
0.0466117
0.0505839
0.0541874
0.0575442
0.0607321
0.0638054
0.0668048
0.0697625
0.0727055
0.0756571
0.0786385
0.0816689
0.0847665
0.0879486
0.0912316
0.0946317
0.0981639
0.101843
0.105684
0.109698
0.113899
0.118297
0.122903
0.127726
0.132772
0.138047
0.143556
0.149302
0.155284
0.161505
0.167966
0.174667
0.181609
0.188795
0.196228
0.203913
0.211857
0.22007
0.228563
0.237349
0.246441
0.013118
0.0283607
0.0361872
0.0417332
0.0462518
0.0501899
0.0537604
0.0570839
0.0602375
0.0632749
0.0662364
0.0691541
0.072055
0.0749624
0.0778974
0.0808797
0.0839277
0.087059
0.0902908
0.0936397
0.0971217
0.100753
0.104547
0.10852
0.112685
0.117054
0.121638
0.126448
0.131492
0.136778
0.14231
0.148093
0.154129
0.160416
0.166956
0.173745
0.180785
0.188073
0.195609
0.203393
0.211426
0.21971
0.228249
0.237046
0.246105
0.0130384
0.0281556
0.035921
0.0414244
0.0459076
0.0498131
0.0533516
0.0566425
0.0597618
0.0627628
0.0656856
0.068562
0.0714187
0.0742793
0.0771649
0.0800953
0.0830891
0.0861644
0.0893387
0.0926293
0.0960529
0.0996261
0.103365
0.107284
0.1114
0.115725
0.120272
0.125053
0.130077
0.135354
0.140889
0.146687
0.152751
0.159083
0.165679
0.172537
0.179654
0.187026
0.194648
0.202517
0.210628
0.218977
0.227561
0.236374
0.245413
0.0129619
0.0279608
0.0356691
0.0411328
0.0455828
0.0494575
0.0529652
0.056224
0.0593092
0.0622736
0.0651568
0.0679905
0.0708014
0.0736128
0.0764459
0.0793206
0.0822557
0.0852697
0.0883803
0.0916053
0.094962
0.0984678
0.102139
0.105993
0.110045
0.11431
0.118803
0.123536
0.128519
0.133764
0.139278
0.145065
0.151131
0.157476
0.1641
0.171
0.178167
0.185597
0.193281
0.201213
0.209383
0.217782
0.2264
0.235226
0.244249
0.01289
0.0277789
0.0354347
0.0408621
0.0452814
0.0491271
0.0526053
0.0558329
0.0588843
0.0618119
0.0646549
0.0674448
0.0702081
0.0729679
0.0757456
0.078561
0.0814331
0.0843804
0.087421
0.090573
0.0938543
0.0972827
0.100876
0.104651
0.108625
0.112813
0.117232
0.121896
0.126816
0.132004
0.137469
0.143217
0.149254
0.15558
0.162196
0.169099
0.176283
0.183738
0.191453
0.199418
0.20762
0.216046
0.22468
0.233508
0.242511
0.0128239
0.0276127
0.0352214
0.0406162
0.0450078
0.0488266
0.0522768
0.0554741
0.0584922
0.061383
0.0641852
0.0669302
0.0696442
0.0723503
0.0750698
0.0778224
0.0806271
0.0835026
0.086467
0.0895388
0.0927361
0.0960771
0.0995801
0.103263
0.107143
0.111238
0.115564
0.120136
0.124968
0.130073
0.13546
0.141137
0.14711
0.153381
0.159952
0.166818
0.173975
0.181414
0.189122
0.197084
0.205284
0.213706
0.22233
0.231138
0.240107
0.0127653
0.0274655
0.0350332
0.0403997
0.0447668
0.0485612
0.0519851
0.0551533
0.0581387
0.0609926
0.0637536
0.0664526
0.0691159
0.0717662
0.0744247
0.0771111
0.0798444
0.082643
0.0855254
0.0885099
0.0916149
0.0948588
0.0982603
0.101838
0.105609
0.109593
0.113806
0.118264
0.122984
0.127976
0.133255
0.138827
0.1447
0.150878
0.157361
0.164148
0.171233
0.178607
0.186261
0.194177
0.202334
0.210714
0.219294
0.228053
0.236965
0.0127157
0.0273409
0.0348746
0.0402178
0.0445641
0.0483368
0.0517365
0.0548768
0.0578302
0.0606475
0.0633669
0.0660192
0.0686302
0.0712228
0.0738178
0.0764347
0.0790925
0.0818096
0.0846043
0.0874947
0.0904995
0.093637
0.096926
0.100385
0.104033
0.107889
0.111969
0.116292
0.120873
0.125726
0.130865
0.136298
0.142035
0.148079
0.154432
0.161094
0.168059
0.175319
0.182864
0.19068
0.198748
0.207041
0.215537
0.22421
0.233033
0.0126774
0.0272433
0.0347513
0.0400768
0.0444065
0.0481607
0.0515385
0.0546526
0.0575749
0.0603558
0.0630334
0.065638
0.0681954
0.0707282
0.0732572
0.0758017
0.0783803
0.0810113
0.0837129
0.086503
0.0894001
0.0924225
0.0955889
0.0989182
0.102429
0.10614
0.11007
0.114236
0.118654
0.123341
0.128309
0.133569
0.139132
0.145002
0.151182
0.157673
0.164469
0.171565
0.178949
0.186608
0.194525
0.20268
0.211044
0.219588
0.228282
0.0126527
0.0271779
0.0346699
0.0399845
0.0443025
0.0480418
0.0514003
0.05449
0.0573822
0.0601271
0.0627625
0.0653186
0.0678211
0.0702923
0.0727528
0.0752217
0.0777176
0.0802584
0.0828618
0.0855459
0.0883285
0.0912278
0.0942624
0.0974507
0.100812
0.104364
0.108125
0.112114
0.116348
0.120842
0.125611
0.130667
0.13602
0.141677
0.147642
0.153915
0.160495
0.167375
0.174546
0.181994
0.189703
0.197654
0.205826
0.21419
0.222709
0.0126449
0.0271516
0.034639
0.0399503
0.0442623
0.047991
0.0513333
0.0544005
0.0572638
0.0599731
0.062566
0.0650727
0.0675187
0.0699263
0.0723159
0.0747064
0.077116
0.0795625
0.0820633
0.0846359
0.0872979
0.0900671
0.0929615
0.0959993
0.099199
0.102579
0.106158
0.109953
0.113982
0.11826
0.122804
0.127625
0.132736
0.138143
0.143852
0.149865
0.156182
0.162797
0.169701
0.176884
0.18433
0.192021
0.199935
0.208049
0.216337
0.012658
0.0271727
0.0346693
0.0399866
0.0442992
0.0480222
0.0513516
0.0543986
0.0572341
0.059908
0.0624579
0.0649141
0.0673019
0.0696437
0.0719597
0.0742688
0.0765888
0.0789371
0.081331
0.0837873
0.0863233
0.0889561
0.0917032
0.0945823
0.0976113
0.100808
0.104191
0.107777
0.111584
0.115627
0.119922
0.124483
0.129321
0.134446
0.139863
0.145576
0.151586
0.157889
0.164478
0.171344
0.178473
0.185848
0.193449
0.201255
0.20924
0.0126971
0.0272524
0.0347747
0.0401088
0.0444299
0.0481526
0.0514729
0.0545019
0.0573106
0.0599492
0.0624553
0.0648594
0.067187
0.0694604
0.0716999
0.0739243
0.0761511
0.0783975
0.0806803
0.0830159
0.085421
0.0879121
0.0905059
0.0932196
0.0960702
0.099075
0.102251
0.105616
0.109187
0.112978
0.117007
0.121285
0.125826
0.130639
0.135733
0.14111
0.146775
0.152724
0.158953
0.165454
0.172215
0.179222
0.186458
0.193902
0.201531
0.0127691
0.0274052
0.0349732
0.0403372
0.0446757
0.0484043
0.0517194
0.0547326
0.0575153
0.0601179
0.0625787
0.0649285
0.0671931
0.069395
0.0715546
0.0736905
0.0758204
0.077961
0.0801286
0.0823394
0.0846093
0.0869541
0.0893898
0.0919326
0.0945988
0.0974047
0.100367
0.103502
0.106825
0.110352
0.114099
0.118078
0.122302
0.126781
0.131525
0.136538
0.141824
0.147383
0.153212
0.159305
0.165654
0.172246
0.179066
0.186096
0.193318
0.0128829
0.0276498
0.0352881
0.0406973
0.0450637
0.048805
0.052119
0.0551181
0.0578747
0.06044
0.062853
0.0651452
0.067343
0.0694693
0.0715447
0.0735879
0.0756165
0.077647
0.0796955
0.0817774
0.0839081
0.0861027
0.0883763
0.0907442
0.0932216
0.0958239
0.0985665
0.101465
0.104534
0.107788
0.111243
0.114911
0.118804
0.122932
0.127306
0.131932
0.136814
0.141953
0.14735
0.153
0.158897
0.165031
0.171391
0.177963
0.18473
0.01305
0.0280109
0.0357496
0.0412226
0.0456287
0.0493899
0.0527064
0.0556922
0.0584213
0.0609463
0.0633076
0.0655374
0.0676632
0.0697085
0.0716943
0.0736396
0.0755619
0.0774777
0.0794025
0.0813516
0.0833394
0.0853803
0.0874886
0.0896786
0.0919643
0.09436
0.09688
0.0995384
0.102349
0.105327
0.108483
0.111833
0.115386
0.119153
0.123145
0.127368
0.131827
0.136526
0.141465
0.146644
0.152058
0.1577
0.163563
0.169636
0.175906
0.0132856
0.0285207
0.036397
0.0419556
0.0464146
0.0502029
0.0535244
0.056496
0.0591942
0.0616739
0.0639771
0.0661377
0.0681844
0.0701415
0.0720309
0.0738717
0.0756818
0.0774774
0.0792738
0.0810856
0.0829269
0.0848111
0.0867515
0.0887614
0.0908538
0.0930417
0.095338
0.0977557
0.100308
0.103006
0.105864
0.108892
0.112102
0.115505
0.119108
0.122919
0.126945
0.13119
0.135657
0.140345
0.145253
0.150378
0.155715
0.161256
0.166994
0.0136097
0.0292214
0.0372814
0.0429514
0.0474776
0.051299
0.0546258
0.0575794
0.0602401
0.0626659
0.0649015
0.0669832
0.068941
0.0708007
0.0725849
0.0743134
0.076004
0.0776731
0.0793357
0.0810057
0.0826966
0.0844211
0.0861915
0.08802
0.0899184
0.0918985
0.0939718
0.09615
0.0984446
0.100867
0.103427
0.106137
0.109006
0.112044
0.115259
0.118658
0.122249
0.126035
0.130021
0.134209
0.138599
0.14319
0.14798
0.152966
0.158144
0.0140485
0.030169
0.0384696
0.0442807
0.0488881
0.0527463
0.0560746
0.0590016
0.0616131
0.0639718
0.0661261
0.0681152
0.0699713
0.0717217
0.0733899
0.0749964
0.0765591
0.0780944
0.0796169
0.0811401
0.0826767
0.0842386
0.0858372
0.0874834
0.0891879
0.0909612
0.0928136
0.0947552
0.0967962
0.0989463
0.101215
0.103612
0.106146
0.108826
0.111659
0.114652
0.117811
0.121143
0.12465
0.128336
0.132204
0.136254
0.140488
0.144904
0.149504
0.0146376
0.0314382
0.0400495
0.0460349
0.0507353
0.0546282
0.057947
0.060831
0.0633744
0.0656463
0.0677
0.0695783
0.071316
0.0729422
0.0744813
0.0759543
0.0773795
0.0787728
0.0801485
0.0815195
0.0828977
0.0842942
0.0857191
0.0871825
0.0886938
0.0902622
0.0918967
0.0936061
0.0953989
0.0972836
0.0992685
0.101361
0.10357
0.105902
0.108364
0.110961
0.113701
0.116588
0.119626
0.122819
0.126171
0.129684
0.133361
0.137204
0.141217
0.0154259
0.0331313
0.0421391
0.0483325
0.0531306
0.0570451
0.0603314
0.0631445
0.0655905
0.0677472
0.0696741
0.0714181
0.0730167
0.0745008
0.0758955
0.0772223
0.0784991
0.0797415
0.0809633
0.0821766
0.0833924
0.0846206
0.0858705
0.087151
0.0884702
0.0898362
0.0912566
0.0927388
0.09429
0.0959173
0.0976275
0.0994273
0.101323
0.103321
0.105426
0.107644
0.109981
0.112439
0.115025
0.117741
0.120591
0.123579
0.126709
0.129986
0.133414
0.0164839
0.0353925
0.0448985
0.0513277
0.0562119
0.060115
0.0633259
0.0660231
0.0683287
0.0703312
0.0720972
0.0736778
0.075113
0.0764346
0.0776682
0.0788349
0.0799522
0.0810349
0.0820959
0.0831461
0.0841956
0.0852533
0.0863273
0.0874251
0.0885539
0.0897204
0.090931
0.0921917
0.0935086
0.0948874
0.0963335
0.0978523
0.0994489
0.101128
0.102894
0.104752
0.106705
0.108757
0.110912
0.113174
0.115545
0.118029
0.120632
0.123358
0.126214
0.0179201
0.0384336
0.0485512
0.0552221
0.0601458
0.0639689
0.0670314
0.069544
0.071649
0.0734468
0.0750105
0.0763941
0.0776389
0.0787766
0.0798321
0.0808254
0.0817728
0.0826877
0.0835817
0.0844646
0.085345
0.0862306
0.0871283
0.0880445
0.0889851
0.0899556
0.0909611
0.0920067
0.093097
0.0942365
0.0954296
0.0966803
0.0979924
0.0993697
0.100816
0.102333
0.103926
0.105596
0.107347
0.109181
0.1111
0.113109
0.115212
0.117413
0.119721
0.0199247
0.0425856
0.0534197
0.0602767
0.0651236
0.0687385
0.0715354
0.0737657
0.0755923
0.077125
0.07844
0.0795917
0.0806196
0.0815535
0.0824158
0.0832244
0.0839935
0.0847346
0.0854575
0.0861704
0.0868804
0.0875938
0.0883162
0.0890528
0.0898082
0.0905869
0.0913928
0.0922298
0.0931015
0.0940113
0.0949625
0.0959579
0.0970006
0.098093
0.0992376
0.100437
0.101692
0.103006
0.104381
0.105817
0.107318
0.108885
0.110521
0.112232
0.114023
0.0228556
0.0484321
0.0599959
0.0668232
0.0713373
0.0745216
0.0768813
0.0787037
0.0801624
0.0813672
0.0823897
0.0832788
0.0840684
0.0847835
0.0854425
0.0860595
0.0866459
0.0872107
0.0877613
0.0883042
0.0888447
0.0893878
0.0899376
0.0904981
0.0910727
0.0916647
0.0922771
0.0929127
0.0935741
0.0942638
0.0949841
0.0957371
0.0965247
0.0973487
0.0982106
0.0991119
0.100054
0.101037
0.102064
0.103134
0.104249
0.105409
0.106619
0.107878
0.109194
0.0276693
0.0571364
0.0690161
0.0752008
0.0788888
0.0813065
0.0830151
0.0842977
0.0853083
0.0861364
0.0868371
0.087446
0.0879874
0.0884784
0.0889318
0.0893571
0.0897619
0.0901524
0.0905337
0.09091
0.091285
0.0916621
0.0920442
0.0924339
0.0928335
0.0932453
0.0936714
0.0941136
0.0945736
0.0950532
0.0955537
0.0960766
0.096623
0.0971941
0.0977908
0.0984139
0.0990639
0.0997414
0.100447
0.10118
0.101943
0.102734
0.103555
0.104406
0.105292
0.0380429
0.0712345
0.0813116
0.0854212
0.0875344
0.0888245
0.0897145
0.0903829
0.0909156
0.0913584
0.0917384
0.0920729
0.0923735
0.0926486
0.0929044
0.0931459
0.093377
0.0936007
0.09382
0.094037
0.0942538
0.0944722
0.0946939
0.0949203
0.0951527
0.0953925
0.0956407
0.0958985
0.0961669
0.0964466
0.0967387
0.0970437
0.0973625
0.0976954
0.0980431
0.0984058
0.0987839
0.0991773
0.0995863
0.100011
0.10045
0.100905
0.101376
0.101862
0.102364
0.0848506
0.0948802
0.0958044
0.0960686
0.0962553
0.0964217
0.0965736
0.0967113
0.0968356
0.0969481
0.0970504
0.0971443
0.0972312
0.0973127
0.0973898
0.0974636
0.097535
0.0976048
0.0976737
0.0977424
0.0978113
0.0978811
0.0979522
0.098025
0.0981
0.0981776
0.0982582
0.098342
0.0984294
0.0985206
0.098616
0.0987157
0.0988201
0.0989291
0.099043
0.0991619
0.0992858
0.0994147
0.0995485
0.0996873
0.0998307
0.0999787
0.100131
0.100288
0.100449
)
;

boundaryField
{
    leftWall
    {
        type            kqRWallFunction;
        value           nonuniform List<scalar> 
42
(
0.0143797
0.0143297
0.0142687
0.0141976
0.0141175
0.0140296
0.0139357
0.0138373
0.0137362
0.0136345
0.0135357
0.0134468
0.0133648
0.0132823
0.0131997
0.013118
0.0130384
0.0129619
0.01289
0.0128239
0.0127653
0.0127157
0.0126774
0.0126527
0.0126449
0.012658
0.0126971
0.0127691
0.0128829
0.01305
0.0132856
0.0136097
0.0140485
0.0146376
0.0154259
0.0164839
0.0179201
0.0199247
0.0228556
0.0276693
0.0380429
0.0848506
)
;
    }
    rightWall
    {
        type            kqRWallFunction;
        value           nonuniform 0();
    }
    lowerWall
    {
        type            kqRWallFunction;
        value           nonuniform 0();
    }
    atmosphere
    {
        type            inletOutlet;
        inletValue      uniform 0.1;
        value           uniform 0.1;
    }
    defaultFaces
    {
        type            empty;
    }
    procBoundary2to0
    {
        type            processor;
        value           nonuniform List<scalar> 
46
(
0.10783
0.11169
0.115709
0.119899
0.124272
0.128839
0.133617
0.13863
0.143912
0.149517
0.15552
0.16203
0.169196
0.177211
0.18632
0.196821
0.209052
0.223376
0.240136
0.259604
0.281897
0.306913
0.334284
0.36341
0.393568
0.0144164
0.0310177
0.039881
0.0462405
0.0514376
0.0559624
0.0600521
0.0638427
0.0674214
0.0708493
0.074172
0.077426
0.0806417
0.0838454
0.0870609
0.09031
0.0936128
0.0969881
0.100454
0.104025
0.104025
)
;
    }
    procBoundary2to3
    {
        type            processor;
        value           nonuniform List<scalar> 
43
(
0.376472
0.340838
0.31499
0.296608
0.283665
0.274596
0.268264
0.263873
0.26087
0.258869
0.257593
0.256835
0.256426
0.256217
0.256071
0.255852
0.255428
0.25467
0.253455
0.251669
0.249212
0.246002
0.241976
0.237097
0.231354
0.224764
0.217377
0.20932
0.200709
0.191674
0.18236
0.172919
0.163509
0.154287
0.145405
0.137003
0.129211
0.122145
0.115903
0.110571
0.106214
0.102883
0.100614
)
;
    }
}


// ************************************************************************* //
