/*--------------------------------*- C++ -*----------------------------------*\
| =========                 |                                                 |
| \\      /  F ield         | OpenFOAM: The Open Source CFD Toolbox           |
|  \\    /   O peration     | Version:  5.0                                   |
|   \\  /    A nd           | Web:      www.OpenFOAM.org                      |
|    \\/     M anipulation  |                                                 |
\*---------------------------------------------------------------------------*/
FoamFile
{
    version     2.0;
    format      ascii;
    class       volScalarField;
    location    "0.95";
    object      nut;
}
// * * * * * * * * * * * * * * * * * * * * * * * * * * * * * * * * * * * * * //

dimensions      [0 2 -1 0 0 0 0];

internalField   nonuniform List<scalar> 
1915
(
0.00953102
0.00969396
0.00983281
0.00994641
0.0100335
0.0100929
0.0101235
0.0101243
0.0100946
0.0100341
0.00994276
0.00982123
0.00967103
0.00949493
0.00929743
0.00908511
0.00886684
0.0086535
0.00845708
0.00828934
0.00816014
0.00807604
0.00803948
0.00804859
0.00809781
8.51437e-05
0.000806049
0.00167362
0.00249339
0.0032502
0.003946
0.00458504
0.00517178
0.00571051
0.00620525
0.00665972
0.00707735
0.00746127
0.00781427
0.00813882
0.00843702
0.00871058
0.00896082
0.00918865
0.00939457
0.00957868
0.0097408
0.00988041
0.00999682
0.0100892
0.0101567
0.0101985
0.0102138
0.0102021
0.0101631
0.0100967
0.0100035
0.00988459
0.00974192
0.00957878
0.00939997
0.00921203
0.0090232
0.00884305
0.00868168
0.0085486
0.00845155
0.00839557
0.00838236
0.00841034
8.5003e-05
0.000810747
0.00168518
0.00251217
0.00327598
0.00397823
0.00462301
0.00521468
0.00575749
0.0062554
0.00671214
0.00713112
0.00751547
0.00786803
0.0081913
0.00848748
0.00875842
0.00900562
0.00923022
0.00943304
0.00961453
0.00977488
0.00991399
0.0100316
0.0101272
0.0102004
0.0102507
0.0102775
0.0102805
0.0102596
0.0102148
0.0101465
0.0100556
0.00994381
0.00981344
0.0096681
0.00951266
0.00935337
0.00919767
0.00905383
0.00893023
0.00883455
0.00877289
0.00874912
0.00876453
8.48255e-05
0.000814375
0.00169453
0.00252769
0.00329751
0.00400532
0.00465502
0.0052509
0.00579712
0.00629765
0.00675617
0.00717608
0.00756052
0.00791234
0.00823408
0.00852802
0.00879612
0.00904003
0.00926111
0.0094604
0.00963868
0.00979645
0.00993398
0.0100514
0.0101485
0.0102253
0.0102815
0.0103169
0.0103314
0.0103251
0.0102981
0.0102508
0.0101841
0.0100993
0.00999825
0.00988381
0.00975965
0.00963052
0.00950221
0.0093813
0.00927481
0.00918965
0.00913197
0.00910652
0.00911628
8.46149e-05
0.00081706
0.00170183
0.00254012
0.00331499
0.00402745
0.00468125
0.00528059
0.00582959
0.00633217
0.00679198
0.00721241
0.0075966
0.00794739
0.00826736
0.00855885
0.0088239
0.0090643
0.00928158
0.00947699
0.00965155
0.00980605
0.00994107
0.010057
0.0101541
0.0102326
0.0102925
0.010334
0.0103571
0.010362
0.0103491
0.0103188
0.010272
0.0102098
0.0101339
0.0100463
0.0099501
0.00984889
0.00974715
0.00965011
0.00956345
0.00949304
0.00944447
0.00942256
0.00943097
8.43746e-05
0.000818927
0.0017073
0.00254969
0.00332864
0.00404485
0.00470194
0.00530401
0.00585515
0.00635923
0.00681987
0.00724044
0.00762405
0.00797354
0.00829153
0.00858037
0.0088422
0.0090789
0.00929214
0.00948336
0.00965379
0.00980446
0.00993621
0.0100497
0.0101456
0.0102241
0.0102859
0.0103311
0.0103601
0.0103732
0.010371
0.010354
0.0103231
0.0102792
0.0102238
0.0101587
0.0100862
0.0100091
0.00993108
0.00985612
0.00978879
0.00973391
0.00969625
0.00968023
0.00968954
8.41085e-05
0.000820066
0.00171109
0.00255664
0.00333872
0.0040578
0.00471737
0.00532147
0.00587414
0.0063792
0.00684024
0.00726059
0.00764333
0.0079913
0.00830711
0.00859316
0.00885163
0.00908449
0.00929353
0.00948033
0.00964631
0.0097927
0.00992058
0.0100309
0.0101244
0.0102018
0.0102638
0.0103108
0.0103435
0.0103623
0.0103679
0.0103609
0.0103421
0.0103126
0.0102736
0.0102265
0.0101733
0.0101164
0.0100584
0.0100026
0.00995254
0.00991213
0.00988533
0.00987594
0.00988736
8.38212e-05
0.000820543
0.00171337
0.00256116
0.00334548
0.00406658
0.00472787
0.00533333
0.00588694
0.0063925
0.00685354
0.00727336
0.007655
0.00800127
0.00831478
0.00859794
0.00885297
0.00908191
0.00928665
0.00946891
0.00963023
0.00977204
0.00989562
0.0100021
0.0100925
0.0101678
0.0102287
0.010276
0.0103106
0.0103329
0.0103439
0.0103441
0.0103345
0.010316
0.0102897
0.0102569
0.0102192
0.0101786
0.0101371
0.0100973
0.0100621
0.0100345
0.0100178
0.0100151
0.0100295
8.35173e-05
0.000820411
0.00171426
0.00256344
0.00334915
0.00407148
0.00473376
0.00533995
0.00589399
0.00639962
0.00686033
0.00727936
0.0076597
0.00800415
0.00831529
0.00859553
0.00884712
0.00907215
0.00927259
0.00945025
0.00960682
0.00974389
0.00986288
0.00996515
0.0100519
0.0101242
0.0101832
0.0102298
0.0102647
0.010289
0.0103034
0.0103087
0.0103058
0.0102956
0.0102791
0.0102575
0.0102322
0.0102046
0.0101766
0.0101501
0.0101275
0.0101112
0.0101037
0.0101077
0.0101258
8.32017e-05
0.000819719
0.00171388
0.00256367
0.00334997
0.00407277
0.00473536
0.00534168
0.00589564
0.00640095
0.00686104
0.0072791
0.00765805
0.00800066
0.00830945
0.00858684
0.00883507
0.00905627
0.00925249
0.00942562
0.00957747
0.00970975
0.00982406
0.00992189
0.0100047
0.0100736
0.01013
0.0101749
0.0102094
0.0102344
0.0102508
0.0102595
0.0102614
0.0102575
0.0102486
0.0102359
0.0102204
0.0102035
0.0101866
0.0101714
0.0101596
0.0101532
0.0101543
0.010165
0.0101875
8.28803e-05
0.000818511
0.00171233
0.002562
0.00334813
0.00407069
0.00473297
0.00533891
0.00589239
0.00639706
0.00685631
0.00727325
0.00765076
0.00799153
0.00829806
0.00857272
0.00881777
0.00903536
0.00922755
0.00939633
0.0095436
0.0096712
0.00978086
0.00987423
0.00995286
0.0100182
0.0100716
0.0101144
0.0101477
0.0101726
0.01019
0.010201
0.0102065
0.0102074
0.0102046
0.010199
0.0101916
0.0101836
0.0101761
0.0101705
0.0101682
0.0101708
0.0101799
0.0101974
0.010225
8.25636e-05
0.00081683
0.00170974
0.00255859
0.00334387
0.00406555
0.00472696
0.00533206
0.0058847
0.00638849
0.00684675
0.00726251
0.00763859
0.00797762
0.00828204
0.00855418
0.0087963
0.00901053
0.00919899
0.0093637
0.00950665
0.00962979
0.00973497
0.00982398
0.00989853
0.00996021
0.0100105
0.0100509
0.0100827
0.0101069
0.0101248
0.0101374
0.0101456
0.0101503
0.0101524
0.0101528
0.0101523
0.0101519
0.0101526
0.0101556
0.0101619
0.0101728
0.0101896
0.0102139
0.010247
8.2282e-05
0.000814727
0.0017062
0.0025536
0.00333738
0.00405759
0.00471765
0.0053215
0.00587301
0.00637573
0.0068329
0.0072475
0.00762225
0.00795969
0.00826223
0.00853214
0.00877164
0.00898288
0.00916797
0.009329
0.00946801
0.00958702
0.00968801
0.00977289
0.00984353
0.00990166
0.00994893
0.00998687
0.0100169
0.0100403
0.0100584
0.010072
0.0100824
0.0100903
0.0100966
0.0101022
0.0101078
0.0101142
0.0101224
0.0101331
0.0101473
0.010166
0.0101904
0.0102214
0.0102603
8.20367e-05
0.000812329
0.00170184
0.00254717
0.00332884
0.00404704
0.00470528
0.00530755
0.00585769
0.0063592
0.00681527
0.00722876
0.00760233
0.00793844
0.00823939
0.00850744
0.00874473
0.00895341
0.00913559
0.00929339
0.00942891
0.00954425
0.00964146
0.00972258
0.00978959
0.00984437
0.00988872
0.00992432
0.00995267
0.0099752
0.00999318
0.0100077
0.0100199
0.0100307
0.0100408
0.010051
0.0100622
0.0100749
0.0100898
0.0101078
0.0101295
0.0101557
0.0101872
0.010225
0.0102698
8.17915e-05
0.000809719
0.00169676
0.00253942
0.0033184
0.00403409
0.0046901
0.0052905
0.00583908
0.00633931
0.00679429
0.0072068
0.00757941
0.00791446
0.0082142
0.00848079
0.00871634
0.00892296
0.00910277
0.00925788
0.00939045
0.00950262
0.00959655
0.00967436
0.00973815
0.00978992
0.00983159
0.00986498
0.00989175
0.00991341
0.0099313
0.00994665
0.00996051
0.00997383
0.00998742
0.010002
0.0100183
0.0100368
0.0100582
0.0100829
0.0101117
0.010145
0.0101835
0.0102278
0.0102786
8.15445e-05
0.00080694
0.00169104
0.00253047
0.00330622
0.00401893
0.00467237
0.00527062
0.0058175
0.00631641
0.00677037
0.00718207
0.00755395
0.00788829
0.00818721
0.00845282
0.00868715
0.00889227
0.00907028
0.00922329
0.00935349
0.00946307
0.00955426
0.00962927
0.0096903
0.00973946
0.0097788
0.00981023
0.00983555
0.00985638
0.00987419
0.00989023
0.00990562
0.00992132
0.00993814
0.00995677
0.00997781
0.0100018
0.0100292
0.0100603
0.0100958
0.0101359
0.0101811
0.0102318
0.0102884
8.12989e-05
0.00080403
0.00168474
0.00252041
0.00329245
0.00400177
0.00465231
0.00524821
0.00579328
0.00629086
0.00674389
0.00715496
0.00752641
0.00786038
0.00815893
0.00842405
0.00865771
0.00886192
0.00903873
0.00919028
0.00931873
0.00942633
0.00951536
0.0095881
0.00964685
0.00969382
0.00973118
0.00976094
0.00978501
0.00980511
0.0098228
0.00983944
0.00985619
0.00987403
0.00989378
0.00991611
0.00994156
0.00997058
0.0100035
0.0100407
0.0100824
0.0101289
0.0101804
0.0102372
0.0102996
8.10582e-05
0.000801022
0.00167794
0.00250938
0.00327726
0.00398282
0.00463018
0.00522354
0.00576672
0.00626299
0.00671521
0.00712586
0.00749715
0.00783114
0.00812976
0.00839489
0.00862844
0.00883235
0.00900861
0.00915933
0.00928668
0.00939293
0.00948038
0.00955141
0.00960836
0.00965356
0.00968926
0.00971761
0.0097406
0.00976006
0.00977763
0.00979475
0.00981263
0.00983231
0.00985461
0.00988021
0.00990961
0.00994318
0.0099812
0.0100239
0.0100714
0.0101238
0.0101812
0.0102438
0.0103116
8.08261e-05
0.000797956
0.00167073
0.00249752
0.00326083
0.00396231
0.00460625
0.00519693
0.00573816
0.00623316
0.00668468
0.00709511
0.00746655
0.00780092
0.00810004
0.0083657
0.0085997
0.0088039
0.00898025
0.00913079
0.00925769
0.00936321
0.00944969
0.00951953
0.00957516
0.00961899
0.00965335
0.00968049
0.00970252
0.00972136
0.00973873
0.00975615
0.00977491
0.00979606
0.00982047
0.00984879
0.00988154
0.00991905
0.00996151
0.0100091
0.0100617
0.0101195
0.0101824
0.0102503
0.0103231
8.06067e-05
0.000794874
0.00166321
0.00248498
0.0032434
0.00394053
0.00458084
0.00516873
0.00570797
0.00620174
0.00665269
0.00706309
0.00743494
0.00777004
0.00807008
0.00833675
0.00857174
0.00877681
0.00895386
0.00910486
0.00923195
0.00933736
0.00942345
0.00949265
0.00954742
0.00959025
0.00962355
0.00964966
0.00967079
0.00968894
0.00970595
0.00972342
0.00974268
0.00976486
0.00979084
0.00982128
0.00985666
0.00989735
0.0099435
0.00999514
0.0100522
0.0101147
0.0101823
0.010255
0.0103325
8.04046e-05
0.000791829
0.0016555
0.00247196
0.00322523
0.00391779
0.00455434
0.00513935
0.00567658
0.00616915
0.00661963
0.00703018
0.00740268
0.00773881
0.00804015
0.00830826
0.00854472
0.00875123
0.00892955
0.00908162
0.0092095
0.00931542
0.00940169
0.00947076
0.00952513
0.00956732
0.00959982
0.00962504
0.00964527
0.00966264
0.00967905
0.00969619
0.00971549
0.00973813
0.00976503
0.00979688
0.00983415
0.00987714
0.00992603
0.00998086
0.0100415
0.0101078
0.0101794
0.0102561
0.0103376
8.02246e-05
0.000788884
0.00164775
0.00245872
0.00320666
0.00389451
0.0045272
0.00510927
0.00564448
0.00613589
0.00658598
0.00699682
0.00737017
0.00770758
0.00801052
0.00828044
0.00851882
0.00872723
0.00890736
0.00906105
0.00919031
0.0092973
0.0093843
0.00945376
0.00950816
0.00955006
0.009582
0.00960645
0.00962579
0.00964221
0.00965773
0.00967412
0.0096929
0.00971532
0.00974236
0.00977476
0.00981302
0.00985742
0.00990806
0.00996498
0.0100281
0.0100972
0.0101718
0.0102517
0.0103364
8.00726e-05
0.000786114
0.00164016
0.00244555
0.00318809
0.00387118
0.00449998
0.00507909
0.00561228
0.00610255
0.00655232
0.00696353
0.00733784
0.00767671
0.00798148
0.0082535
0.00849414
0.00870486
0.00888725
0.00904307
0.00917423
0.00928282
0.00937108
0.0094414
0.00949626
0.00953822
0.00956985
0.00959365
0.00961207
0.0096274
0.00964171
0.00965688
0.00967453
0.00969598
0.0097223
0.00975429
0.00979248
0.00983719
0.00988854
0.00994646
0.0100108
0.0100814
0.0101579
0.0102399
0.0103268
7.99553e-05
0.000783611
0.00163295
0.00243284
0.00317003
0.00384841
0.00447334
0.00504952
0.00558071
0.00606986
0.00651931
0.00693092
0.00730625
0.00764666
0.0079534
0.0082277
0.00847083
0.00868416
0.00886917
0.00902752
0.00916103
0.00927169
0.00936169
0.00943334
0.00948909
0.00953147
0.00956304
0.00958634
0.00960386
0.00961793
0.00963074
0.00964423
0.00966011
0.00967981
0.00970449
0.00973501
0.009772
0.0098158
0.00986656
0.00992425
0.00998866
0.0100595
0.0101364
0.0102191
0.010307
7.98811e-05
0.00078149
0.00162641
0.00242104
0.0031531
0.00382692
0.00444812
0.00502144
0.00555066
0.00603869
0.00648779
0.00689976
0.00727607
0.00761799
0.0079267
0.00820333
0.00844907
0.00866517
0.00885304
0.00901421
0.00915042
0.00926357
0.00935573
0.00942914
0.00948618
0.00952934
0.00956114
0.00958413
0.0096008
0.00961354
0.00962458
0.00963597
0.00964948
0.00966666
0.00968876
0.00971675
0.00975131
0.00979288
0.00984166
0.00989764
0.00996065
0.0100304
0.0101064
0.0101882
0.0102755
7.98603e-05
0.000779892
0.0016209
0.00241072
0.00313802
0.00380761
0.00442529
0.0049959
0.00552321
0.00601009
0.00645876
0.00687097
0.00724811
0.00759139
0.00790193
0.00818079
0.00842908
0.00864797
0.00883878
0.00900294
0.00914209
0.00925801
0.00935268
0.00942824
0.00948698
0.00953129
0.00956364
0.00958656
0.00960251
0.00961391
0.00962303
0.00963196
0.00964259
0.00965654
0.00967517
0.00969955
0.00973046
0.00976843
0.00981374
0.00986644
0.0099264
0.00999331
0.0100668
0.0101463
0.0102311
7.99059e-05
0.000778993
0.00161683
0.00240255
0.0031257
0.00379153
0.00440605
0.00497416
0.00549964
0.00598535
0.00643346
0.00684568
0.00722338
0.00756773
0.00787979
0.0081606
0.00841119
0.0086327
0.00882634
0.00899349
0.00913565
0.00925453
0.00935196
0.00942999
0.00949077
0.0095366
0.00956987
0.00959301
0.00960847
0.00961863
0.00962578
0.00963206
0.00963941
0.00964954
0.0096639
0.00968367
0.00970975
0.00974277
0.00978309
0.00983085
0.00988597
0.00994821
0.0100172
0.0100923
0.010173
8.00348e-05
0.000779015
0.00161475
0.00239734
0.00311719
0.00377995
0.0043918
0.00495772
0.00548149
0.00596598
0.00641334
0.00682526
0.0072031
0.00754804
0.00786114
0.00814339
0.00839583
0.00861955
0.00881572
0.00898564
0.00913072
0.00925256
0.00935288
0.00943358
0.00949671
0.00954441
0.00957897
0.00960271
0.00961799
0.00962715
0.00963244
0.00963603
0.00963988
0.00964576
0.00965523
0.00966954
0.00968972
0.00971649
0.00975034
0.00979148
0.00983993
0.00989548
0.00995779
0.0100263
0.0101005
8.02683e-05
0.000780231
0.00161526
0.00239606
0.00311375
0.00377435
0.00438421
0.00494835
0.0054706
0.0059538
0.00640014
0.00681133
0.00718875
0.00753362
0.00784701
0.00812998
0.00838356
0.00860884
0.00880697
0.00897919
0.00912687
0.00925148
0.00935464
0.00943811
0.00950378
0.00955367
0.00958989
0.00961463
0.00963015
0.00963867
0.00964239
0.00964344
0.00964379
0.00964524
0.0096494
0.00965762
0.00967101
0.00969041
0.00971641
0.00974932
0.00978925
0.00983606
0.00988946
0.00994895
0.0100139
8.06338e-05
0.000782976
0.00161913
0.00239985
0.00311687
0.00377651
0.00438525
0.00494818
0.00546913
0.00595098
0.00639596
0.00680584
0.00718208
0.00752596
0.00783868
0.00812134
0.00837506
0.00860095
0.00880018
0.00897398
0.00912366
0.00925062
0.00935636
0.00944251
0.00951081
0.00956309
0.00960131
0.0096275
0.00964372
0.0096521
0.00965471
0.0096536
0.0096507
0.0096478
0.00964653
0.0096483
0.0096543
0.00966544
0.00968242
0.00970565
0.00973532
0.00977138
0.00981357
0.00986143
0.00991435
8.11662e-05
0.000787661
0.00162724
0.00241005
0.00312829
0.00378851
0.00439727
0.0049597
0.00547965
0.00596007
0.00640324
0.00681106
0.00718512
0.00752687
0.00783762
0.00811865
0.00837116
0.00859638
0.00879553
0.00896986
0.00912065
0.00924924
0.00935706
0.00944558
0.0095164
0.00957117
0.00961166
0.00963968
0.00965715
0.00966597
0.00966809
0.00966541
0.00965977
0.00965292
0.00964644
0.00964176
0.0096401
0.00964245
0.00964956
0.00966194
0.00967984
0.00970329
0.00973207
0.00976575
0.00980372
8.19094e-05
0.000794781
0.00164066
0.00242828
0.00315011
0.00381285
0.00442307
0.00498591
0.00550525
0.00598409
0.00642488
0.00682967
0.00720029
0.0075384
0.00784556
0.00812323
0.00837284
0.00859573
0.00879325
0.00896669
0.00911736
0.00924657
0.00935565
0.00944598
0.00951899
0.00957616
0.00961903
0.00964924
0.00966845
0.00967837
0.00968074
0.00967728
0.00966969
0.00965958
0.00964848
0.00963777
0.00962864
0.0096221
0.00961894
0.0096197
0.00962471
0.00963401
0.00964743
0.00966456
0.00968477
8.29192e-05
0.000804937
0.00166064
0.00245645
0.00318488
0.0038526
0.00446611
0.00503049
0.00554963
0.00602669
0.00646429
0.00686479
0.00723033
0.00756291
0.00786441
0.00813661
0.00838117
0.00859968
0.00879361
0.00896439
0.00911334
0.00924179
0.00935102
0.00944228
0.00951687
0.0095761
0.00962131
0.00965389
0.00967527
0.00968692
0.00969034
0.00968703
0.00967849
0.00966615
0.0096514
0.0096355
0.00961959
0.00960461
0.00959133
0.0095803
0.00957182
0.00956598
0.00956257
0.00956118
0.00956113
8.42655e-05
0.000818867
0.00168874
0.00249698
0.00323581
0.00391163
0.00453072
0.00509798
0.00561737
0.00609222
0.00652551
0.00692002
0.00727835
0.007603
0.00789629
0.0081604
0.00839734
0.00860896
0.00879696
0.00896288
0.00910816
0.00923412
0.009342
0.009433
0.00950827
0.00956894
0.00961616
0.00965109
0.00967491
0.00968883
0.00969409
0.00969192
0.00968357
0.00967027
0.00965319
0.0096334
0.00961191
0.00958954
0.00956698
0.00954468
0.0095229
0.00950165
0.00948069
0.00945952
0.0094374
8.60371e-05
0.000837491
0.00172695
0.002553
0.00330711
0.00399505
0.00462253
0.00519423
0.00571416
0.006186
0.00661329
0.00699946
0.00734781
0.00766148
0.00794341
0.00819627
0.00842251
0.00862431
0.00880362
0.00896214
0.00910142
0.00922282
0.00932755
0.00941675
0.00949143
0.0095526
0.00960121
0.00963818
0.00966446
0.00968099
0.00968872
0.00968864
0.00968169
0.00966884
0.00965099
0.00962901
0.00960366
0.00957559
0.00954531
0.00951312
0.00947914
0.00944324
0.00940505
0.00936393
0.00931899
8.83489e-05
0.000861989
0.00177789
0.00262881
0.0034047
0.00410991
0.00474921
0.00532689
0.00584719
0.00631446
0.00673313
0.00710766
0.00744234
0.00774118
0.00800789
0.00824578
0.00845777
0.00864641
0.00881392
0.00896219
0.00909285
0.00920731
0.00930678
0.00939232
0.00946486
0.00952524
0.00957424
0.0096126
0.00964102
0.00966019
0.00967081
0.00967355
0.00966909
0.00965809
0.00964119
0.00961895
0.00959189
0.00956038
0.0095247
0.00948492
0.00944092
0.00939236
0.00933863
0.00927887
0.00921195
9.13551e-05
0.000893898
0.00184527
0.00273078
0.00353729
0.00426647
0.00492146
0.00550622
0.00602562
0.00648531
0.00689126
0.00724943
0.00756552
0.00784469
0.00809157
0.00831016
0.00850391
0.00867575
0.00882812
0.00896307
0.00908232
0.00918729
0.00927917
0.00935896
0.00942748
0.00948546
0.00953353
0.00957223
0.00960207
0.00962352
0.00963702
0.00964298
0.00964182
0.0096339
0.00961955
0.00959907
0.00957266
0.00954041
0.00950228
0.00945808
0.00940738
0.00934952
0.00928359
0.00920839
0.00912246
9.52753e-05
0.000935261
0.00193474
0.00286911
0.0037188
0.00448045
0.00515486
0.00574617
0.00626103
0.00670754
0.00709421
0.00742931
0.00772032
0.00797384
0.00819549
0.00839
0.00856127
0.00871251
0.00884635
0.00896492
0.00906995
0.00916284
0.00924473
0.00931653
0.00937899
0.00943272
0.00947819
0.00951581
0.00954593
0.00956881
0.0095847
0.00959379
0.00959625
0.00959219
0.0095817
0.00956477
0.00954132
0.00951116
0.00947396
0.00942917
0.00937607
0.00931365
0.00924062
0.00915536
0.00905598
0.000100479
0.000988689
0.00205606
0.0030621
0.00397324
0.00477724
0.0054726
0.00606571
0.00656752
0.00699077
0.007348
0.00765057
0.00790821
0.00812897
0.00831943
0.00848483
0.00862938
0.00875641
0.00886856
0.00896792
0.00905614
0.00913455
0.00920417
0.00926581
0.00932012
0.00936758
0.00940857
0.00944338
0.0094722
0.00949519
0.00951242
0.00952393
0.00952971
0.00952968
0.00952372
0.00951161
0.00949304
0.00946757
0.00943461
0.00939337
0.00934281
0.00928161
0.00920812
0.00912034
0.00901589
0.000107616
0.00106057
0.002232
0.00334866
0.0043463
0.00519989
0.0059095
0.00648963
0.00696072
0.00734346
0.00765608
0.00791357
0.0081278
0.00830797
0.00846115
0.00859272
0.0087068
0.00880658
0.00889447
0.00897236
0.00904172
0.00910366
0.00915907
0.00920862
0.00925281
0.00929205
0.00932659
0.00935664
0.00938231
0.00940364
0.00942064
0.00943324
0.00944131
0.00944469
0.00944311
0.00943624
0.00942364
0.00940473
0.00937878
0.00934484
0.00930172
0.0092479
0.00918153
0.00910033
0.00900162
0.000118368
0.00116731
0.00252182
0.00381922
0.00493079
0.00582321
0.00651578
0.00704645
0.00745342
0.00776843
0.00801572
0.00821303
0.00837313
0.0085052
0.00861587
0.00870994
0.00879095
0.00886151
0.00892359
0.00897867
0.00902787
0.00907206
0.0091119
0.00914787
0.00918036
0.00920964
0.00923589
0.00925924
0.00927974
0.00929741
0.00931218
0.00932397
0.00933263
0.00933794
0.00933965
0.00933739
0.00933072
0.00931907
0.00930171
0.00927774
0.00924599
0.00920503
0.00915305
0.00908786
0.00900678
0.000138708
0.0013725
0.00312092
0.00471446
0.0059207
0.00676721
0.00735015
0.00775543
0.00804362
0.00825425
0.00841266
0.00853509
0.00863215
0.00871089
0.0087761
0.00883111
0.00887826
0.00891925
0.00895534
0.00898743
0.00901624
0.00904227
0.00906593
0.00908751
0.00910724
0.00912527
0.00914172
0.00915665
0.00917008
0.00918201
0.00919239
0.00920113
0.00920814
0.00921324
0.00921624
0.00921687
0.0092148
0.00920961
0.00920077
0.0091876
0.00916925
0.00914465
0.00911245
0.00907097
0.00901815
0.000207607
0.00211047
0.00496579
0.00677534
0.00769163
0.00816389
0.00842718
0.00858689
0.00869115
0.0087634
0.00881596
0.00885573
0.00888685
0.00891189
0.00893254
0.00894993
0.00896484
0.00897784
0.00898932
0.00899958
0.00900885
0.00901729
0.00902503
0.00903216
0.00903876
0.00904488
0.00905054
0.00905577
0.00906057
0.00906495
0.00906887
0.00907231
0.00907523
0.00907757
0.00907924
0.00908016
0.00908019
0.00907918
0.00907692
0.00907316
0.00906757
0.00905974
0.00904915
0.00903514
0.00901688
)
;

boundaryField
{
    leftWall
    {
        type            nutkWallFunction;
        Cmu             0.09;
        kappa           0.41;
        E               9.8;
        value           nonuniform List<scalar> 
42
(
2.54544e-06
2.52139e-06
2.49199e-06
2.45762e-06
2.41876e-06
2.37599e-06
2.33008e-06
2.28183e-06
2.23203e-06
2.18174e-06
2.13267e-06
2.08832e-06
2.04726e-06
2.00586e-06
1.96422e-06
1.92289e-06
1.88243e-06
1.84349e-06
1.80672e-06
1.77285e-06
1.74268e-06
1.71715e-06
1.69735e-06
1.6846e-06
1.68056e-06
1.68732e-06
1.70755e-06
1.74468e-06
1.80309e-06
1.88835e-06
2.00752e-06
2.16943e-06
2.3852e-06
2.66882e-06
3.03824e-06
3.51743e-06
4.14037e-06
4.96366e-06
6.08589e-06
7.76236e-06
1.0878e-05
2.09037e-05
)
;
    }
    rightWall
    {
        type            nutkWallFunction;
        Cmu             0.09;
        kappa           0.41;
        E               9.8;
        value           nonuniform 0();
    }
    lowerWall
    {
        type            nutkWallFunction;
        Cmu             0.09;
        kappa           0.41;
        E               9.8;
        value           nonuniform 0();
    }
    atmosphere
    {
        type            calculated;
        value           uniform 0.009;
    }
    defaultFaces
    {
        type            empty;
    }
    procBoundary2to0
    {
        type            processor;
        value           nonuniform List<scalar> 
46
(
0.00947165
0.00963436
0.00977102
0.00987998
0.00995961
0.0100083
0.0100249
0.0100081
0.0099574
0.00987236
0.00975322
0.00960097
0.00941781
0.0092077
0.00897695
0.00873468
0.00849283
0.00826536
0.00806663
0.00790925
0.00780192
0.00774814
0.00774594
0.00778868
0.00786628
8.52421e-05
0.00080022
0.00165974
0.00247123
0.00322008
0.00390853
0.00454102
0.00512211
0.00565614
0.00614714
0.00659887
0.00701474
0.00739788
0.00775105
0.00807664
0.00837664
0.00865262
0.00890566
0.00913638
0.00934494
0.00934494
)
;
    }
    procBoundary2to3
    {
        type            processor;
        value           nonuniform List<scalar> 
43
(
0.0081788
0.00847518
0.008818
0.00916228
0.00947189
0.00972686
0.00992235
0.0100635
0.0101603
0.0102238
0.0102644
0.0102903
0.0103082
0.0103226
0.0103365
0.0103515
0.0103677
0.0103846
0.0104009
0.0104146
0.0104236
0.0104256
0.0104182
0.0103995
0.0103675
0.0103209
0.0102587
0.0101796
0.0100836
0.00997156
0.00984518
0.00970721
0.00956155
0.00941336
0.00926911
0.0091365
0.00902406
0.00894029
0.00889207
0.00888224
0.00890661
0.00895143
0.00899335
)
;
    }
}


// ************************************************************************* //
