/*--------------------------------*- C++ -*----------------------------------*\
| =========                 |                                                 |
| \\      /  F ield         | OpenFOAM: The Open Source CFD Toolbox           |
|  \\    /   O peration     | Version:  5.0                                   |
|   \\  /    A nd           | Web:      www.OpenFOAM.org                      |
|    \\/     M anipulation  |                                                 |
\*---------------------------------------------------------------------------*/
FoamFile
{
    version     2.0;
    format      ascii;
    class       volScalarField;
    location    "0.95";
    object      p;
}
// * * * * * * * * * * * * * * * * * * * * * * * * * * * * * * * * * * * * * //

dimensions      [1 -1 -2 0 0 0 0];

internalField   nonuniform List<scalar> 
1915
(
-2.30768
-2.30875
-2.31041
-2.31265
-2.31544
-2.31869
-2.32228
-2.32605
-2.32987
-2.33363
-2.33724
-2.3406
-2.34364
-2.34633
-2.34871
-2.35086
-2.35289
-2.35497
-2.35727
-2.36002
-2.36341
-2.36759
-2.37266
-2.37883
-2.38608
-2.38334
-2.38195
-2.38034
-2.37891
-2.37778
-2.37692
-2.37628
-2.37583
-2.37555
-2.37537
-2.37525
-2.37515
-2.37502
-2.37483
-2.37455
-2.3742
-2.3738
-2.37341
-2.37312
-2.37304
-2.37331
-2.37406
-2.37533
-2.37717
-2.37958
-2.3825
-2.38581
-2.38933
-2.39293
-2.39652
-2.40002
-2.40337
-2.40651
-2.40939
-2.41201
-2.41444
-2.41676
-2.41906
-2.42149
-2.42419
-2.42729
-2.43093
-2.43514
-2.43998
-2.44563
-2.45051
-2.44922
-2.44771
-2.44636
-2.44528
-2.44443
-2.4438
-2.44334
-2.44303
-2.44282
-2.44266
-2.44252
-2.44234
-2.44209
-2.44176
-2.44135
-2.44088
-2.44042
-2.44002
-2.43981
-2.43988
-2.44034
-2.44124
-2.44267
-2.44465
-2.44716
-2.45008
-2.45328
-2.45661
-2.45997
-2.46329
-2.46653
-2.46965
-2.4726
-2.47538
-2.478
-2.48052
-2.48301
-2.48553
-2.48818
-2.49106
-2.49425
-2.49778
-2.50166
-2.50579
-2.51827
-2.51707
-2.51566
-2.51439
-2.51336
-2.51254
-2.51192
-2.51145
-2.51111
-2.51086
-2.51067
-2.51047
-2.51024
-2.50995
-2.50957
-2.50911
-2.5086
-2.50807
-2.50761
-2.50727
-2.50716
-2.50735
-2.50793
-2.50898
-2.51054
-2.51261
-2.51512
-2.51797
-2.521
-2.5241
-2.5272
-2.53026
-2.53327
-2.53618
-2.539
-2.54171
-2.54434
-2.54692
-2.54948
-2.55207
-2.55473
-2.55752
-2.56046
-2.56352
-2.56651
-2.58661
-2.58549
-2.58417
-2.58298
-2.582
-2.58122
-2.5806
-2.58013
-2.57977
-2.5795
-2.57926
-2.57902
-2.57875
-2.57841
-2.57799
-2.5775
-2.57694
-2.57636
-2.57582
-2.57537
-2.5751
-2.57507
-2.57537
-2.57607
-2.57722
-2.57887
-2.58096
-2.58342
-2.58612
-2.58895
-2.59181
-2.59466
-2.59748
-2.60026
-2.60299
-2.60567
-2.60829
-2.61086
-2.61339
-2.61586
-2.6183
-2.62072
-2.62311
-2.62544
-2.62748
-2.65551
-2.65448
-2.65324
-2.65212
-2.65119
-2.65045
-2.64984
-2.64937
-2.649
-2.6487
-2.64843
-2.64817
-2.64786
-2.64749
-2.64704
-2.64651
-2.64592
-2.64529
-2.64467
-2.64413
-2.64372
-2.6435
-2.64355
-2.64394
-2.64473
-2.64597
-2.64764
-2.6497
-2.65204
-2.65456
-2.65716
-2.65976
-2.66236
-2.66493
-2.66749
-2.67001
-2.67251
-2.67497
-2.67736
-2.67966
-2.68185
-2.6839
-2.6858
-2.68747
-2.68877
-2.72499
-2.72402
-2.72287
-2.72181
-2.72094
-2.72022
-2.71963
-2.71916
-2.71878
-2.71847
-2.71818
-2.71789
-2.71757
-2.71718
-2.71672
-2.71616
-2.71554
-2.71487
-2.7142
-2.71357
-2.71304
-2.71267
-2.71251
-2.71263
-2.7131
-2.71395
-2.71521
-2.71686
-2.71882
-2.72101
-2.72331
-2.72565
-2.72799
-2.73032
-2.73263
-2.73492
-2.73719
-2.73943
-2.7416
-2.74366
-2.74557
-2.74726
-2.74871
-2.74985
-2.75059
-2.79504
-2.79414
-2.79305
-2.79206
-2.79123
-2.79054
-2.78997
-2.7895
-2.78912
-2.7888
-2.7885
-2.7882
-2.78787
-2.78748
-2.78701
-2.78645
-2.78582
-2.78512
-2.78441
-2.78372
-2.78309
-2.78259
-2.78226
-2.78216
-2.78234
-2.78286
-2.78374
-2.78498
-2.78655
-2.78837
-2.79035
-2.7924
-2.79447
-2.79653
-2.79857
-2.80058
-2.80256
-2.8045
-2.80638
-2.80815
-2.80974
-2.8111
-2.81217
-2.8129
-2.81327
-2.86566
-2.86482
-2.8638
-2.86286
-2.86207
-2.86141
-2.86086
-2.8604
-2.86002
-2.85969
-2.85939
-2.85909
-2.85876
-2.85838
-2.85792
-2.85738
-2.85675
-2.85606
-2.85532
-2.85459
-2.8539
-2.85329
-2.85283
-2.85254
-2.85249
-2.85272
-2.85326
-2.85413
-2.85531
-2.85675
-2.85839
-2.86013
-2.86192
-2.86371
-2.86546
-2.86718
-2.86885
-2.87048
-2.87203
-2.87347
-2.87474
-2.87578
-2.87654
-2.87697
-2.87713
-2.93687
-2.93607
-2.93511
-2.93422
-2.93347
-2.93284
-2.9323
-2.93186
-2.93148
-2.93115
-2.93085
-2.93056
-2.93025
-2.92988
-2.92945
-2.92894
-2.92834
-2.92767
-2.92694
-2.92619
-2.92546
-2.92478
-2.92421
-2.92379
-2.92355
-2.92354
-2.92379
-2.92433
-2.92515
-2.92624
-2.92753
-2.92895
-2.93045
-2.93197
-2.93345
-2.93489
-2.93628
-2.93759
-2.93883
-2.93995
-2.94092
-2.94168
-2.94217
-2.94239
-2.94243
-3.00866
-3.00792
-3.00701
-3.00617
-3.00545
-3.00484
-3.00433
-3.00389
-3.00352
-3.0032
-3.00291
-3.00263
-3.00233
-3.002
-3.00161
-3.00114
-3.00059
-2.99996
-2.99926
-2.99853
-2.99778
-2.99707
-2.99643
-2.9959
-2.99551
-2.99532
-2.99534
-2.9956
-2.99611
-2.99686
-2.99782
-2.99894
-3.00015
-3.0014
-3.00264
-3.00384
-3.00497
-3.00602
-3.00698
-3.00782
-3.00852
-3.00903
-3.00932
-3.00937
-3.00932
-3.08106
-3.08036
-3.0795
-3.0787
-3.07802
-3.07744
-3.07694
-3.07651
-3.07615
-3.07584
-3.07556
-3.0753
-3.07503
-3.07473
-3.07439
-3.07398
-3.07349
-3.07292
-3.07228
-3.07158
-3.07086
-3.07014
-3.06946
-3.06886
-3.06837
-3.06803
-3.06787
-3.06791
-3.06816
-3.06863
-3.06929
-3.07012
-3.07106
-3.07206
-3.07307
-3.07405
-3.07497
-3.0758
-3.07654
-3.07715
-3.07763
-3.07794
-3.07805
-3.07797
-3.07783
-3.15408
-3.15342
-3.1526
-3.15185
-3.1512
-3.15064
-3.15015
-3.14974
-3.14939
-3.14909
-3.14883
-3.14858
-3.14834
-3.14808
-3.14779
-3.14744
-3.14702
-3.14653
-3.14596
-3.14533
-3.14466
-3.14397
-3.14329
-3.14266
-3.14211
-3.14167
-3.14136
-3.14123
-3.14127
-3.1415
-3.14191
-3.14247
-3.14316
-3.14393
-3.14473
-3.14551
-3.14625
-3.14691
-3.14747
-3.14791
-3.14822
-3.14837
-3.14834
-3.14815
-3.14793
-3.22772
-3.2271
-3.22633
-3.22561
-3.22499
-3.22446
-3.22399
-3.2236
-3.22326
-3.22297
-3.22272
-3.2225
-3.22228
-3.22206
-3.22182
-3.22153
-3.22119
-3.22078
-3.22031
-3.21976
-3.21916
-3.21853
-3.21789
-3.21726
-3.21668
-3.21618
-3.21579
-3.21552
-3.2154
-3.21543
-3.21562
-3.21596
-3.21642
-3.21697
-3.21757
-3.21818
-3.21875
-3.21926
-3.21968
-3.21999
-3.22017
-3.2202
-3.22007
-3.21979
-3.21951
-3.302
-3.30141
-3.30069
-3.30001
-3.29942
-3.29891
-3.29847
-3.29809
-3.29777
-3.29749
-3.29725
-3.29705
-3.29686
-3.29668
-3.29648
-3.29625
-3.29599
-3.29567
-3.29528
-3.29484
-3.29433
-3.29378
-3.2932
-3.29262
-3.29206
-3.29154
-3.29109
-3.29074
-3.29049
-3.29038
-3.2904
-3.29054
-3.29081
-3.29116
-3.29157
-3.292
-3.29243
-3.2928
-3.2931
-3.2933
-3.29338
-3.29333
-3.29312
-3.2928
-3.29245
-3.37694
-3.37638
-3.3757
-3.37506
-3.37451
-3.37402
-3.3736
-3.37323
-3.37292
-3.37266
-3.37244
-3.37225
-3.37209
-3.37193
-3.37178
-3.37161
-3.37141
-3.37117
-3.37088
-3.37054
-3.37014
-3.36969
-3.3692
-3.36869
-3.36817
-3.36767
-3.36722
-3.36682
-3.36651
-3.36629
-3.36618
-3.36617
-3.36626
-3.36644
-3.36668
-3.36695
-3.36723
-3.36748
-3.36767
-3.36778
-3.36778
-3.36766
-3.36741
-3.36705
-3.36666
-3.45254
-3.45202
-3.45138
-3.45077
-3.45025
-3.44979
-3.44939
-3.44904
-3.44875
-3.4485
-3.44829
-3.44812
-3.44797
-3.44785
-3.44773
-3.44761
-3.44747
-3.4473
-3.4471
-3.44685
-3.44656
-3.44621
-3.44583
-3.44541
-3.44497
-3.44453
-3.4441
-3.44371
-3.44336
-3.44309
-3.44289
-3.44277
-3.44273
-3.44276
-3.44285
-3.44298
-3.44312
-3.44325
-3.44334
-3.44336
-3.44329
-3.44312
-3.44283
-3.44245
-3.44203
-3.52881
-3.52833
-3.52773
-3.52716
-3.52667
-3.52624
-3.52586
-3.52553
-3.52525
-3.52502
-3.52482
-3.52466
-3.52453
-3.52443
-3.52434
-3.52426
-3.52417
-3.52406
-3.52394
-3.52378
-3.52358
-3.52333
-3.52305
-3.52274
-3.52239
-3.52203
-3.52166
-3.52131
-3.52098
-3.52069
-3.52044
-3.52025
-3.52012
-3.52005
-3.52002
-3.52003
-3.52005
-3.52007
-3.52005
-3.51999
-3.51985
-3.51963
-3.51932
-3.51891
-3.51846
-3.60578
-3.60532
-3.60476
-3.60423
-3.60377
-3.60336
-3.60301
-3.6027
-3.60244
-3.60222
-3.60204
-3.60189
-3.60178
-3.60169
-3.60162
-3.60157
-3.60152
-3.60146
-3.6014
-3.60131
-3.60119
-3.60105
-3.60086
-3.60065
-3.6004
-3.60013
-3.59985
-3.59955
-3.59927
-3.59899
-3.59874
-3.59853
-3.59835
-3.5982
-3.59809
-3.598
-3.59793
-3.59784
-3.59774
-3.59759
-3.59739
-3.59712
-3.59677
-3.59633
-3.59583
-3.68344
-3.68301
-3.68249
-3.682
-3.68157
-3.68119
-3.68086
-3.68057
-3.68032
-3.68012
-3.67995
-3.67982
-3.67971
-3.67964
-3.67959
-3.67956
-3.67954
-3.67952
-3.6795
-3.67947
-3.67942
-3.67935
-3.67925
-3.67913
-3.67898
-3.6788
-3.6786
-3.67838
-3.67816
-3.67793
-3.67771
-3.67749
-3.6773
-3.67712
-3.67695
-3.6768
-3.67665
-3.67649
-3.6763
-3.67609
-3.67582
-3.67549
-3.67509
-3.67461
-3.67405
-3.7618
-3.76141
-3.76093
-3.76047
-3.76007
-3.75971
-3.75941
-3.75914
-3.75891
-3.75872
-3.75857
-3.75845
-3.75836
-3.75829
-3.75826
-3.75824
-3.75824
-3.75824
-3.75826
-3.75827
-3.75827
-3.75826
-3.75823
-3.75818
-3.75811
-3.75801
-3.7579
-3.75776
-3.7576
-3.75743
-3.75725
-3.75707
-3.75688
-3.7567
-3.75651
-3.75631
-3.75611
-3.75589
-3.75565
-3.75536
-3.75503
-3.75464
-3.75419
-3.75366
-3.75302
-3.84089
-3.84052
-3.84007
-3.83965
-3.83928
-3.83895
-3.83867
-3.83842
-3.83821
-3.83804
-3.8379
-3.83779
-3.83771
-3.83766
-3.83763
-3.83762
-3.83763
-3.83766
-3.83769
-3.83773
-3.83777
-3.8378
-3.83782
-3.83783
-3.83782
-3.83779
-3.83774
-3.83767
-3.83758
-3.83747
-3.83734
-3.8372
-3.83704
-3.83686
-3.83667
-3.83646
-3.83623
-3.83597
-3.83568
-3.83534
-3.83496
-3.83451
-3.834
-3.83341
-3.8327
-3.9207
-3.92036
-3.91995
-3.91955
-3.91921
-3.91891
-3.91865
-3.91842
-3.91823
-3.91807
-3.91795
-3.91785
-3.91778
-3.91774
-3.91772
-3.91772
-3.91774
-3.91778
-3.91782
-3.91788
-3.91794
-3.918
-3.91805
-3.9181
-3.91813
-3.91816
-3.91816
-3.91814
-3.91811
-3.91805
-3.91797
-3.91786
-3.91773
-3.91758
-3.9174
-3.91719
-3.91694
-3.91666
-3.91633
-3.91596
-3.91553
-3.91503
-3.91447
-3.91383
-3.91305
-4.00124
-4.00093
-4.00055
-4.00019
-3.99987
-3.9996
-3.99936
-3.99915
-3.99898
-3.99884
-3.99873
-3.99864
-3.99858
-3.99855
-3.99854
-3.99854
-3.99857
-3.99861
-3.99867
-3.99873
-3.9988
-3.99887
-3.99895
-3.99902
-3.99908
-3.99913
-3.99917
-3.99919
-3.9992
-3.99918
-3.99914
-3.99907
-3.99897
-3.99884
-3.99867
-3.99847
-3.99822
-3.99793
-3.99758
-3.99718
-3.99672
-3.99619
-3.99559
-3.9949
-3.99407
-4.08253
-4.08224
-4.08189
-4.08155
-4.08127
-4.08102
-4.0808
-4.08062
-4.08046
-4.08034
-4.08024
-4.08017
-4.08012
-4.08009
-4.08009
-4.0801
-4.08013
-4.08018
-4.08023
-4.0803
-4.08037
-4.08045
-4.08053
-4.08062
-4.08069
-4.08076
-4.08082
-4.08087
-4.0809
-4.0809
-4.08089
-4.08084
-4.08077
-4.08066
-4.08051
-4.08032
-4.08007
-4.07978
-4.07943
-4.07902
-4.07854
-4.07798
-4.07736
-4.07664
-4.07579
-4.16457
-4.1643
-4.16397
-4.16367
-4.1634
-4.16318
-4.16298
-4.16282
-4.16269
-4.16258
-4.1625
-4.16244
-4.1624
-4.16238
-4.16239
-4.1624
-4.16244
-4.16248
-4.16254
-4.1626
-4.16268
-4.16276
-4.16284
-4.16292
-4.163
-4.16308
-4.16314
-4.1632
-4.16324
-4.16326
-4.16326
-4.16323
-4.16317
-4.16308
-4.16294
-4.16276
-4.16253
-4.16224
-4.16189
-4.16148
-4.16099
-4.16043
-4.1598
-4.15907
-4.15821
-4.24736
-4.24712
-4.24681
-4.24653
-4.2463
-4.24609
-4.24592
-4.24578
-4.24566
-4.24557
-4.2455
-4.24546
-4.24543
-4.24542
-4.24543
-4.24546
-4.24549
-4.24554
-4.24559
-4.24565
-4.24572
-4.2458
-4.24588
-4.24595
-4.24603
-4.24611
-4.24617
-4.24623
-4.24627
-4.2463
-4.2463
-4.24628
-4.24623
-4.24615
-4.24602
-4.24585
-4.24563
-4.24535
-4.24501
-4.2446
-4.24412
-4.24357
-4.24294
-4.24222
-4.24139
-4.33093
-4.3307
-4.33042
-4.33016
-4.32995
-4.32976
-4.32961
-4.32949
-4.32939
-4.32932
-4.32927
-4.32924
-4.32922
-4.32922
-4.32924
-4.32927
-4.3293
-4.32935
-4.3294
-4.32946
-4.32953
-4.3296
-4.32967
-4.32974
-4.32981
-4.32987
-4.32993
-4.32999
-4.33002
-4.33005
-4.33005
-4.33003
-4.32999
-4.3299
-4.32978
-4.32962
-4.32941
-4.32914
-4.32882
-4.32843
-4.32797
-4.32744
-4.32683
-4.32614
-4.32534
-4.41526
-4.41505
-4.41479
-4.41456
-4.41436
-4.4142
-4.41408
-4.41397
-4.4139
-4.41384
-4.4138
-4.41378
-4.41378
-4.41379
-4.41381
-4.41385
-4.41389
-4.41393
-4.41398
-4.41404
-4.4141
-4.41416
-4.41422
-4.41429
-4.41435
-4.4144
-4.41445
-4.4145
-4.41453
-4.41454
-4.41454
-4.41452
-4.41447
-4.41439
-4.41428
-4.41412
-4.41392
-4.41366
-4.41336
-4.41299
-4.41256
-4.41206
-4.41149
-4.41084
-4.4101
-4.50038
-4.50018
-4.49994
-4.49973
-4.49956
-4.49942
-4.49931
-4.49923
-4.49917
-4.49913
-4.49911
-4.49911
-4.49912
-4.49914
-4.49916
-4.4992
-4.49924
-4.49929
-4.49934
-4.49939
-4.49945
-4.4995
-4.49956
-4.49961
-4.49966
-4.49971
-4.49975
-4.49978
-4.4998
-4.49981
-4.4998
-4.49977
-4.49972
-4.49964
-4.49953
-4.49938
-4.49919
-4.49895
-4.49866
-4.49832
-4.49792
-4.49745
-4.49693
-4.49634
-4.49567
-4.58629
-4.5861
-4.58588
-4.58569
-4.58554
-4.58543
-4.58534
-4.58528
-4.58523
-4.58521
-4.58521
-4.58521
-4.58523
-4.58526
-4.5853
-4.58534
-4.58539
-4.58543
-4.58548
-4.58553
-4.58558
-4.58563
-4.58568
-4.58573
-4.58577
-4.5858
-4.58583
-4.58585
-4.58587
-4.58586
-4.58585
-4.58582
-4.58576
-4.58568
-4.58557
-4.58543
-4.58524
-4.58502
-4.58475
-4.58444
-4.58407
-4.58365
-4.58318
-4.58265
-4.58206
-4.67299
-4.67282
-4.67262
-4.67245
-4.67232
-4.67223
-4.67216
-4.67212
-4.67209
-4.67209
-4.6721
-4.67212
-4.67215
-4.67218
-4.67223
-4.67227
-4.67232
-4.67237
-4.67242
-4.67247
-4.67251
-4.67256
-4.6726
-4.67264
-4.67267
-4.6727
-4.67272
-4.67273
-4.67273
-4.67273
-4.6727
-4.67267
-4.67261
-4.67253
-4.67242
-4.67228
-4.67211
-4.67191
-4.67166
-4.67137
-4.67104
-4.67067
-4.67025
-4.66979
-4.66928
-4.7605
-4.76034
-4.76016
-4.76001
-4.75991
-4.75984
-4.75979
-4.75976
-4.75976
-4.75977
-4.75979
-4.75982
-4.75986
-4.75991
-4.75996
-4.76001
-4.76006
-4.76011
-4.76016
-4.7602
-4.76025
-4.76029
-4.76032
-4.76035
-4.76038
-4.7604
-4.76042
-4.76042
-4.76042
-4.76041
-4.76038
-4.76034
-4.76028
-4.7602
-4.76009
-4.75996
-4.7598
-4.75961
-4.75939
-4.75913
-4.75883
-4.7585
-4.75814
-4.75774
-4.75731
-4.84882
-4.84868
-4.84852
-4.8484
-4.84832
-4.84826
-4.84824
-4.84823
-4.84824
-4.84827
-4.8483
-4.84835
-4.84839
-4.84845
-4.8485
-4.84855
-4.8486
-4.84866
-4.8487
-4.84875
-4.84879
-4.84883
-4.84886
-4.84889
-4.84891
-4.84893
-4.84894
-4.84894
-4.84893
-4.84891
-4.84888
-4.84884
-4.84878
-4.8487
-4.8486
-4.84848
-4.84833
-4.84816
-4.84796
-4.84772
-4.84746
-4.84717
-4.84686
-4.84652
-4.84616
-4.93796
-4.93784
-4.93771
-4.93761
-4.93755
-4.93752
-4.93752
-4.93753
-4.93756
-4.93759
-4.93764
-4.93769
-4.93775
-4.93781
-4.93786
-4.93792
-4.93797
-4.93802
-4.93807
-4.93811
-4.93815
-4.93819
-4.93822
-4.93825
-4.93827
-4.93828
-4.93829
-4.93829
-4.93828
-4.93826
-4.93823
-4.93818
-4.93813
-4.93805
-4.93796
-4.93785
-4.93771
-4.93756
-4.93737
-4.93717
-4.93693
-4.93668
-4.93641
-4.93614
-4.93585
-5.02793
-5.02784
-5.02774
-5.02767
-5.02764
-5.02763
-5.02764
-5.02767
-5.02771
-5.02776
-5.02782
-5.02788
-5.02794
-5.028
-5.02806
-5.02811
-5.02817
-5.02822
-5.02827
-5.02831
-5.02835
-5.02838
-5.02841
-5.02844
-5.02846
-5.02847
-5.02848
-5.02847
-5.02846
-5.02845
-5.02842
-5.02838
-5.02833
-5.02826
-5.02817
-5.02807
-5.02795
-5.02781
-5.02765
-5.02746
-5.02726
-5.02705
-5.02682
-5.02659
-5.02638
-5.11873
-5.11869
-5.11863
-5.1186
-5.11859
-5.1186
-5.11863
-5.11867
-5.11872
-5.11878
-5.11884
-5.1189
-5.11897
-5.11903
-5.11909
-5.11915
-5.1192
-5.11925
-5.1193
-5.11934
-5.11938
-5.11941
-5.11944
-5.11947
-5.11949
-5.1195
-5.11951
-5.11951
-5.1195
-5.11949
-5.11946
-5.11943
-5.11938
-5.11932
-5.11925
-5.11916
-5.11906
-5.11893
-5.11879
-5.11863
-5.11846
-5.11828
-5.11809
-5.11791
-5.11774
-5.2104
-5.21042
-5.21041
-5.21041
-5.21042
-5.21044
-5.21048
-5.21053
-5.21059
-5.21065
-5.21072
-5.21078
-5.21084
-5.21091
-5.21096
-5.21102
-5.21107
-5.21112
-5.21117
-5.21121
-5.21125
-5.21129
-5.21132
-5.21135
-5.21137
-5.21139
-5.2114
-5.2114
-5.2114
-5.21139
-5.21137
-5.21135
-5.21131
-5.21126
-5.2112
-5.21112
-5.21103
-5.21093
-5.21081
-5.21067
-5.21053
-5.21038
-5.21023
-5.21009
-5.20997
-5.3029
-5.30304
-5.30312
-5.30316
-5.30317
-5.30319
-5.30323
-5.30327
-5.30333
-5.30339
-5.30345
-5.30351
-5.30357
-5.30363
-5.30369
-5.30375
-5.3038
-5.30385
-5.3039
-5.30394
-5.30398
-5.30402
-5.30405
-5.30408
-5.30411
-5.30413
-5.30415
-5.30416
-5.30416
-5.30416
-5.30415
-5.30413
-5.30411
-5.30407
-5.30402
-5.30396
-5.30389
-5.30381
-5.30371
-5.3036
-5.30348
-5.30336
-5.30325
-5.30314
-5.30306
-5.39625
-5.39657
-5.39677
-5.39685
-5.39686
-5.39685
-5.39687
-5.3969
-5.39694
-5.397
-5.39705
-5.39711
-5.39716
-5.39722
-5.39727
-5.39733
-5.39738
-5.39743
-5.39748
-5.39753
-5.39757
-5.39761
-5.39765
-5.39769
-5.39772
-5.39775
-5.39777
-5.39779
-5.3978
-5.39781
-5.39781
-5.3978
-5.39779
-5.39776
-5.39773
-5.39769
-5.39764
-5.39757
-5.3975
-5.39742
-5.39733
-5.39724
-5.39715
-5.39708
-5.39703
-5.49093
-5.49138
-5.49166
-5.49161
-5.49147
-5.49139
-5.49136
-5.49137
-5.4914
-5.49144
-5.49149
-5.49154
-5.49159
-5.49165
-5.4917
-5.49176
-5.49181
-5.49187
-5.49192
-5.49197
-5.49202
-5.49207
-5.49211
-5.49216
-5.4922
-5.49223
-5.49226
-5.49229
-5.49231
-5.49233
-5.49234
-5.49235
-5.49234
-5.49234
-5.49232
-5.4923
-5.49226
-5.49222
-5.49217
-5.49212
-5.49206
-5.49199
-5.49194
-5.49189
-5.49186
-5.58808
-5.58906
-5.58941
-5.58799
-5.58704
-5.58671
-5.58662
-5.58661
-5.58663
-5.58666
-5.58671
-5.58676
-5.58682
-5.58688
-5.58694
-5.587
-5.58706
-5.58712
-5.58718
-5.58724
-5.5873
-5.58735
-5.58741
-5.58746
-5.58751
-5.58755
-5.58759
-5.58763
-5.58766
-5.58769
-5.58772
-5.58774
-5.58775
-5.58776
-5.58776
-5.58775
-5.58774
-5.58772
-5.5877
-5.58767
-5.58764
-5.5876
-5.58757
-5.58755
-5.58753
-5.68043
-5.69093
-5.69087
-5.68605
-5.68396
-5.68328
-5.68302
-5.68292
-5.6829
-5.68293
-5.68297
-5.68303
-5.68309
-5.68316
-5.68323
-5.6833
-5.68337
-5.68345
-5.68352
-5.68359
-5.68365
-5.68372
-5.68379
-5.68385
-5.68391
-5.68397
-5.68402
-5.68407
-5.68412
-5.68416
-5.6842
-5.68424
-5.68427
-5.6843
-5.68432
-5.68434
-5.68436
-5.68437
-5.68438
-5.68438
-5.68438
-5.68438
-5.68439
-5.68439
-5.6844
)
;

boundaryField
{
    leftWall
    {
        type            calculated;
        value           nonuniform List<scalar> 
42
(
-2.38334
-2.45051
-2.51827
-2.58661
-2.65551
-2.72499
-2.79504
-2.86566
-2.93687
-3.00866
-3.08106
-3.15408
-3.22772
-3.302
-3.37694
-3.45254
-3.52881
-3.60578
-3.68344
-3.7618
-3.84089
-3.9207
-4.00124
-4.08253
-4.16457
-4.24736
-4.33093
-4.41526
-4.50038
-4.58629
-4.67299
-4.7605
-4.84882
-4.93796
-5.02793
-5.11873
-5.2104
-5.3029
-5.39625
-5.49093
-5.58808
-5.68043
)
;
    }
    rightWall
    {
        type            calculated;
        value           nonuniform 0();
    }
    lowerWall
    {
        type            calculated;
        value           nonuniform 0();
    }
    atmosphere
    {
        type            calculated;
        value           nonuniform List<scalar> 
45
(
-5.72907
-5.73073
-5.7311
-5.73115
-5.73118
-5.73121
-5.73125
-5.7313
-5.73135
-5.73142
-5.73149
-5.73156
-5.73164
-5.73171
-5.73179
-5.73187
-5.73195
-5.73202
-5.7321
-5.73218
-5.73225
-5.73232
-5.73239
-5.73246
-5.73253
-5.73259
-5.73265
-5.73271
-5.73277
-5.73282
-5.73287
-5.73292
-5.73296
-5.733
-5.73304
-5.73308
-5.73311
-5.73314
-5.73317
-5.7332
-5.73323
-5.73325
-5.73328
-5.7333
-5.73333
)
;
    }
    defaultFaces
    {
        type            empty;
    }
    procBoundary2to0
    {
        type            processor;
        value           nonuniform List<scalar> 
46
(
-2.24317
-2.24466
-2.24672
-2.24932
-2.25238
-2.25581
-2.25951
-2.26338
-2.26731
-2.27117
-2.2748
-2.27805
-2.28086
-2.28325
-2.2853
-2.28709
-2.28878
-2.29058
-2.29277
-2.29561
-2.29932
-2.30412
-2.31024
-2.31769
-2.32621
-2.31675
-2.31527
-2.31357
-2.31208
-2.31091
-2.31002
-2.30938
-2.30894
-2.30866
-2.30851
-2.30842
-2.30835
-2.30825
-2.30811
-2.3079
-2.30764
-2.30736
-2.30711
-2.30699
-2.30713
-2.30713
)
;
    }
    procBoundary2to3
    {
        type            processor;
        value           nonuniform List<scalar> 
43
(
-2.39363
-2.45163
-2.50996
-2.56903
-2.62888
-2.68939
-2.75075
-2.81325
-2.87709
-2.94243
-3.00934
-3.07782
-3.14786
-3.21936
-3.29224
-3.36638
-3.44167
-3.51801
-3.59528
-3.67338
-3.75225
-3.83183
-3.9121
-3.99307
-4.07475
-4.15719
-4.2404
-4.32441
-4.40924
-4.49491
-4.58139
-4.66871
-4.75684
-4.8458
-4.93558
-5.02618
-5.11761
-5.20989
-5.30303
-5.39703
-5.49188
-5.58756
-5.68442
)
;
    }
}


// ************************************************************************* //
