/*--------------------------------*- C++ -*----------------------------------*\
| =========                 |                                                 |
| \\      /  F ield         | OpenFOAM: The Open Source CFD Toolbox           |
|  \\    /   O peration     | Version:  5.0                                   |
|   \\  /    A nd           | Web:      www.OpenFOAM.org                      |
|    \\/     M anipulation  |                                                 |
\*---------------------------------------------------------------------------*/
FoamFile
{
    version     2.0;
    format      ascii;
    class       surfaceScalarField;
    location    "0.95";
    object      phi;
}
// * * * * * * * * * * * * * * * * * * * * * * * * * * * * * * * * * * * * * //

dimensions      [0 3 -1 0 0 0 0];

internalField   nonuniform List<scalar> 
3742
(
1.50446e-05
7.84575e-06
1.59075e-05
8.44516e-06
1.6796e-05
9.08697e-06
1.771e-05
9.76779e-06
1.86491e-05
1.04838e-05
1.96118e-05
1.12306e-05
2.05962e-05
1.20032e-05
2.15989e-05
1.27961e-05
2.2616e-05
1.36031e-05
2.36418e-05
1.44173e-05
2.46696e-05
1.52305e-05
2.5691e-05
1.60334e-05
2.6696e-05
1.6815e-05
2.76724e-05
1.75621e-05
2.86051e-05
1.82586e-05
2.94757e-05
1.88842e-05
3.02606e-05
1.94139e-05
3.09309e-05
1.9818e-05
3.14521e-05
2.00621e-05
3.17842e-05
2.01084e-05
3.1886e-05
1.99195e-05
3.17195e-05
1.94621e-05
3.12551e-05
1.87128e-05
3.04813e-05
1.76626e-05
1.63253e-05
5.71633e-07
4.35247e-06
1.21297e-06
4.28635e-06
1.86672e-06
4.12537e-06
2.52478e-06
3.9944e-06
3.18428e-06
3.88512e-06
3.84427e-06
3.7983e-06
4.50482e-06
3.73713e-06
5.16664e-06
3.70509e-06
5.83088e-06
3.70544e-06
6.49904e-06
3.74114e-06
7.17286e-06
3.81482e-06
7.85424e-06
3.92879e-06
8.54527e-06
4.08513e-06
9.24815e-06
4.28562e-06
9.96519e-06
4.53171e-06
1.06987e-05
4.82452e-06
1.14509e-05
5.16476e-06
1.22239e-05
5.55278e-06
1.30199e-05
5.98832e-06
1.38405e-05
6.47084e-06
1.46873e-05
6.99894e-06
1.55614e-05
7.57107e-06
1.64635e-05
8.1849e-06
1.73936e-05
8.83764e-06
1.83515e-05
9.52597e-06
1.9336e-05
1.02461e-05
2.03455e-05
1.09937e-05
2.13776e-05
1.17641e-05
2.2429e-05
1.25518e-05
2.34955e-05
1.33507e-05
2.45722e-05
1.41538e-05
2.56526e-05
1.4953e-05
2.67292e-05
1.57384e-05
2.77928e-05
1.64986e-05
2.8832e-05
1.72193e-05
2.98331e-05
1.78831e-05
3.07784e-05
1.84686e-05
3.16463e-05
1.89502e-05
3.24103e-05
1.92981e-05
3.30394e-05
1.94793e-05
3.34997e-05
1.94592e-05
3.37573e-05
1.92046e-05
3.37819e-05
1.86882e-05
3.35521e-05
1.78923e-05
1.68172e-05
5.39367e-07
3.81309e-06
1.14232e-06
3.68339e-06
1.75882e-06
3.50887e-06
2.38163e-06
3.37158e-06
3.00816e-06
3.25858e-06
3.63753e-06
3.16892e-06
4.26986e-06
3.10481e-06
4.90585e-06
3.06911e-06
5.54663e-06
3.06466e-06
6.19365e-06
3.0941e-06
6.84864e-06
3.15981e-06
7.51349e-06
3.26393e-06
8.19024e-06
3.40837e-06
8.88106e-06
3.59478e-06
9.5882e-06
3.82457e-06
1.03139e-05
4.09882e-06
1.10604e-05
4.41829e-06
1.18298e-05
4.78337e-06
1.26241e-05
5.19404e-06
1.34451e-05
5.6498e-06
1.42942e-05
6.14982e-06
1.51726e-05
6.69274e-06
1.60809e-05
7.27658e-06
1.70195e-05
7.89905e-06
1.79881e-05
8.55736e-06
1.89859e-05
9.24824e-06
2.00117e-05
9.96796e-06
2.10634e-05
1.07123e-05
2.21386e-05
1.14766e-05
2.3234e-05
1.22553e-05
2.43455e-05
1.30423e-05
2.5468e-05
1.38304e-05
2.65957e-05
1.46108e-05
2.77212e-05
1.53732e-05
2.88355e-05
1.6105e-05
2.99275e-05
1.6791e-05
3.09834e-05
1.74127e-05
3.19857e-05
1.79478e-05
3.29132e-05
1.83706e-05
3.37406e-05
1.86519e-05
3.44391e-05
1.87607e-05
3.49782e-05
1.86655e-05
3.53282e-05
1.83383e-05
3.54636e-05
1.77569e-05
1.69113e-05
5.10878e-07
3.30223e-06
1.07858e-06
3.1157e-06
1.65984e-06
2.92761e-06
2.24871e-06
2.7827e-06
2.84306e-06
2.66424e-06
3.44217e-06
2.56979e-06
4.04624e-06
2.50075e-06
4.65598e-06
2.45939e-06
5.27251e-06
2.44815e-06
5.89725e-06
2.46936e-06
6.53188e-06
2.52517e-06
7.17827e-06
2.61753e-06
7.83842e-06
2.74821e-06
8.51445e-06
2.91875e-06
9.20853e-06
3.13048e-06
9.92287e-06
3.38447e-06
1.06596e-05
3.68151e-06
1.14209e-05
4.02208e-06
1.22087e-05
4.40629e-06
1.30246e-05
4.83389e-06
1.38701e-05
5.3043e-06
1.47465e-05
5.81638e-06
1.56544e-05
6.36864e-06
1.65943e-05
6.95915e-06
1.75661e-05
7.58556e-06
1.85693e-05
8.24509e-06
1.96027e-05
8.93453e-06
2.06649e-05
9.65017e-06
2.17536e-05
1.03878e-05
2.28663e-05
1.11427e-05
2.39994e-05
1.19092e-05
2.51489e-05
1.26809e-05
2.63096e-05
1.34501e-05
2.74754e-05
1.42074e-05
2.86386e-05
1.49418e-05
2.97898e-05
1.56398e-05
3.09172e-05
1.62853e-05
3.20061e-05
1.68589e-05
3.30384e-05
1.73383e-05
3.39923e-05
1.7698e-05
3.48426e-05
1.79104e-05
3.55613e-05
1.79468e-05
3.61197e-05
1.77799e-05
3.64902e-05
1.73864e-05
1.67505e-05
4.84814e-07
2.81742e-06
1.02004e-06
2.58048e-06
1.56825e-06
2.3794e-06
2.12479e-06
2.22617e-06
2.68802e-06
2.10101e-06
3.25751e-06
2.00031e-06
3.83352e-06
1.92473e-06
4.41682e-06
1.87609e-06
5.00854e-06
1.85644e-06
5.61007e-06
1.86783e-06
6.22306e-06
1.91218e-06
6.84933e-06
1.99126e-06
7.49084e-06
2.1067e-06
8.14965e-06
2.25994e-06
8.82787e-06
2.45225e-06
9.52765e-06
2.68468e-06
1.02511e-05
2.95807e-06
1.10002e-05
3.27294e-06
1.17769e-05
3.62958e-06
1.25829e-05
4.02791e-06
1.34197e-05
4.46754e-06
1.42884e-05
4.94768e-06
1.51899e-05
5.46714e-06
1.61246e-05
6.0244e-06
1.70926e-05
6.61751e-06
1.80936e-05
7.24412e-06
1.91266e-05
7.90148e-06
2.01904e-05
8.58638e-06
2.12831e-05
9.29511e-06
2.24023e-05
1.00234e-05
2.35451e-05
1.07664e-05
2.47077e-05
1.15183e-05
2.58856e-05
1.22721e-05
2.70732e-05
1.30198e-05
2.82637e-05
1.37513e-05
2.94485e-05
1.4455e-05
3.06172e-05
1.51167e-05
3.17565e-05
1.57196e-05
3.28503e-05
1.62445e-05
3.38792e-05
1.66691e-05
3.48203e-05
1.69693e-05
3.56478e-05
1.71193e-05
3.63338e-05
1.70939e-05
3.68502e-05
1.687e-05
1.64293e-05
4.60457e-07
2.35696e-06
9.65576e-07
2.07537e-06
1.48287e-06
1.86211e-06
2.00877e-06
1.70029e-06
2.54214e-06
1.56764e-06
3.08282e-06
1.45963e-06
3.6312e-06
1.37636e-06
4.1881e-06
1.31919e-06
4.75466e-06
1.28988e-06
5.33228e-06
1.29021e-06
5.92257e-06
1.32189e-06
6.52731e-06
1.38652e-06
7.14841e-06
1.4856e-06
7.78786e-06
1.62048e-06
8.44773e-06
1.79238e-06
9.13009e-06
2.00233e-06
9.83698e-06
2.25117e-06
1.05704e-05
2.53955e-06
1.13321e-05
2.86783e-06
1.21239e-05
3.23614e-06
1.29471e-05
3.64427e-06
1.38031e-05
4.0917e-06
1.46927e-05
4.5776e-06
1.56163e-05
5.10074e-06
1.65742e-05
5.65959e-06
1.75661e-05
6.25222e-06
1.85913e-05
6.87629e-06
1.96486e-05
7.52908e-06
2.07364e-05
8.20736e-06
2.18524e-05
8.90741e-06
2.29939e-05
9.6249e-06
2.41575e-05
1.03547e-05
2.53389e-05
1.10908e-05
2.65328e-05
1.18259e-05
2.77328e-05
1.25513e-05
2.89308e-05
1.32569e-05
3.01172e-05
1.39303e-05
3.12796e-05
1.45572e-05
3.24034e-05
1.51207e-05
3.34706e-05
1.5602e-05
3.44601e-05
1.59798e-05
3.53479e-05
1.62316e-05
3.61073e-05
1.63345e-05
3.67105e-05
1.62668e-05
1.60098e-05
4.37456e-07
1.9195e-06
9.14509e-07
1.59833e-06
1.40285e-06
1.37379e-06
1.89977e-06
1.20338e-06
2.40459e-06
1.06282e-06
2.9174e-06
9.46834e-07
3.4387e-06
8.55048e-07
3.96941e-06
7.88498e-07
4.51067e-06
7.48632e-07
5.06389e-06
7.37001e-07
5.63064e-06
7.55128e-07
6.21268e-06
8.04478e-07
6.81186e-06
8.86415e-07
7.43013e-06
1.00222e-06
8.06948e-06
1.15303e-06
8.73192e-06
1.33989e-06
9.41942e-06
1.56367e-06
1.01339e-05
1.82505e-06
1.08772e-05
2.12455e-06
1.16509e-05
2.46242e-06
1.24565e-05
2.83866e-06
1.32952e-05
3.25301e-06
1.41679e-05
3.70491e-06
1.50752e-05
4.19349e-06
1.60172e-05
4.71756e-06
1.69938e-05
5.27559e-06
1.80044e-05
5.86569e-06
1.90479e-05
6.48556e-06
2.01228e-05
7.13248e-06
2.1227e-05
7.80326e-06
2.23577e-05
8.49414e-06
2.35118e-05
9.20067e-06
2.4685e-05
9.91759e-06
2.58722e-05
1.06386e-05
2.70673e-05
1.13563e-05
2.82625e-05
1.20617e-05
2.94486e-05
1.27443e-05
3.0614e-05
1.33918e-05
3.17448e-05
1.39899e-05
3.28245e-05
1.45223e-05
3.38335e-05
1.49708e-05
3.47492e-05
1.53159e-05
3.55466e-05
1.55371e-05
3.61986e-05
1.56147e-05
1.55306e-05
4.15595e-07
1.50392e-06
8.66393e-07
1.14755e-06
1.32758e-06
9.12619e-07
1.79712e-06
7.3385e-07
2.2747e-06
5.85236e-07
2.76061e-06
4.60931e-07
3.25551e-06
3.60167e-07
3.76034e-06
2.83675e-07
4.2763e-06
2.32672e-07
4.80479e-06
2.08503e-07
5.34739e-06
2.12532e-07
5.90579e-06
2.46072e-07
6.48182e-06
3.10391e-07
7.07735e-06
4.06679e-07
7.69432e-06
5.36054e-07
8.33469e-06
6.99523e-07
9.00036e-06
8.97987e-07
9.69321e-06
1.13221e-06
1.0415e-05
1.40278e-06
1.11673e-05
1.7101e-06
1.19515e-05
2.05438e-06
1.2769e-05
2.43559e-06
1.36205e-05
2.85343e-06
1.45066e-05
3.30734e-06
1.54277e-05
3.79649e-06
1.63835e-05
4.31974e-06
1.73736e-05
4.87561e-06
1.83969e-05
5.46226e-06
1.94519e-05
6.07746e-06
2.05366e-05
6.71854e-06
2.16484e-05
7.38233e-06
2.27841e-05
8.06505e-06
2.39394e-05
8.76222e-06
2.51095e-05
9.46849e-06
2.62883e-05
1.01775e-05
2.74684e-05
1.08816e-05
2.86407e-05
1.1572e-05
2.97943e-05
1.22381e-05
3.09163e-05
1.28679e-05
3.1991e-05
1.34475e-05
3.30004e-05
1.39614e-05
3.39234e-05
1.43928e-05
3.47368e-05
1.47238e-05
3.54149e-05
1.49366e-05
1.50142e-05
3.94755e-07
1.10917e-06
8.20926e-07
7.21408e-07
1.2566e-06
4.76957e-07
1.70026e-06
2.902e-07
2.15187e-06
1.33642e-07
2.61188e-06
9.32968e-10
3.08106e-06
-1.09009e-07
3.56043e-06
-1.95697e-07
4.05122e-06
-2.58121e-07
4.55484e-06
-2.95113e-07
5.07284e-06
-3.05463e-07
5.60689e-06
-2.87977e-07
6.15875e-06
-2.4148e-07
6.73027e-06
-1.64845e-07
7.32332e-06
-5.70043e-08
7.93979e-06
8.30511e-08
8.58154e-06
2.56238e-07
9.25037e-06
4.63375e-07
9.94798e-06
7.05156e-07
1.06759e-05
9.82128e-07
1.14357e-05
1.29466e-06
1.22283e-05
1.64294e-06
1.30548e-05
2.02693e-06
1.39158e-05
2.4464e-06
1.48114e-05
2.90083e-06
1.57417e-05
3.38945e-06
1.67061e-05
3.91121e-06
1.77037e-05
4.46471e-06
1.87329e-05
5.04822e-06
1.97919e-05
5.65961e-06
2.08779e-05
6.29627e-06
2.19878e-05
6.95512e-06
2.31176e-05
7.63241e-06
2.42624e-05
8.32371e-06
2.54162e-05
9.02367e-06
2.65719e-05
9.72597e-06
2.77208e-05
1.04231e-05
2.88526e-05
1.11063e-05
2.9955e-05
1.17655e-05
3.10137e-05
1.23888e-05
3.20118e-05
1.29633e-05
3.29302e-05
1.34744e-05
3.37473e-05
1.39067e-05
3.44396e-05
1.42443e-05
1.44716e-05
3.74924e-07
7.34255e-07
7.77925e-07
3.18452e-07
1.18958e-06
6.53228e-08
1.60873e-06
-1.28939e-07
2.03556e-06
-2.93168e-07
2.47064e-06
-4.34144e-07
2.91485e-06
-5.53213e-07
3.36927e-06
-6.50102e-07
3.83513e-06
-7.23985e-07
4.31386e-06
-7.73841e-07
4.80699e-06
-7.98594e-07
5.31616e-06
-7.97146e-07
5.84309e-06
-7.68413e-07
6.38957e-06
-7.11331e-07
6.95742e-06
-6.24859e-07
7.54847e-06
-5.08002e-07
8.16452e-06
-3.59816e-07
8.80732e-06
-1.79426e-07
9.47853e-06
3.39497e-08
1.01797e-05
2.80983e-07
1.09121e-05
5.6222e-07
1.1677e-05
8.78048e-07
1.24753e-05
1.22869e-06
1.33075e-05
1.61417e-06
1.4174e-05
2.03433e-06
1.50747e-05
2.48877e-06
1.60091e-05
2.97681e-06
1.69762e-05
3.49754e-06
1.79748e-05
4.04968e-06
1.90028e-05
4.63165e-06
2.00576e-05
5.24144e-06
2.11361e-05
5.8766e-06
2.22344e-05
6.53413e-06
2.33477e-05
7.21043e-06
2.44702e-05
7.90116e-06
2.55951e-05
8.6011e-06
2.67141e-05
9.30408e-06
2.78176e-05
1.00028e-05
2.88942e-05
1.06889e-05
2.99306e-05
1.13524e-05
3.09116e-05
1.19824e-05
3.18196e-05
1.25664e-05
3.26353e-05
1.3091e-05
3.33375e-05
1.35421e-05
1.39056e-05
3.56095e-07
3.78186e-07
7.37235e-07
-6.26327e-08
1.1262e-06
-3.23622e-07
1.5221e-06
-5.2483e-07
1.92525e-06
-6.96317e-07
2.33637e-06
-8.45243e-07
2.75637e-06
-9.73202e-07
3.18637e-06
-1.0801e-06
3.62765e-06
-1.16526e-06
4.08161e-06
-1.2278e-06
4.54976e-06
-1.26675e-06
5.03372e-06
-1.2811e-06
5.53515e-06
-1.26985e-06
6.0558e-06
-1.23199e-06
6.59744e-06
-1.1665e-06
7.16183e-06
-1.0724e-06
7.75073e-06
-9.48716e-07
8.36582e-06
-7.94524e-07
9.00874e-06
-6.0896e-07
9.68095e-06
-3.91234e-07
1.03838e-05
-1.4063e-07
1.11184e-05
1.43426e-07
1.18857e-05
4.61397e-07
1.26863e-05
8.13596e-07
1.35205e-05
1.20015e-06
1.43882e-05
1.62104e-06
1.5289e-05
2.07598e-06
1.62221e-05
2.56448e-06
1.7186e-05
3.08577e-06
1.81789e-05
3.63877e-06
1.91983e-05
4.22205e-06
2.02411e-05
4.83379e-06
2.13035e-05
5.4717e-06
2.2381e-05
6.13298e-06
2.3468e-05
6.81415e-06
2.45581e-05
7.51106e-06
2.56435e-05
8.21867e-06
2.67153e-05
8.93102e-06
2.77631e-05
9.64108e-06
2.87748e-05
1.03407e-05
2.97367e-05
1.10204e-05
3.06334e-05
1.16697e-05
3.14474e-05
1.22769e-05
3.21602e-05
1.28294e-05
1.33141e-05
3.38184e-07
4.00408e-08
6.9867e-07
-4.23077e-07
1.06614e-06
-6.91074e-07
1.43993e-06
-8.98609e-07
1.82047e-06
-1.07684e-06
2.20852e-06
-1.23328e-06
2.60508e-06
-1.36974e-06
3.01127e-06
-1.48629e-06
3.42837e-06
-1.58237e-06
3.85779e-06
-1.65722e-06
4.301e-06
-1.70997e-06
4.75959e-06
-1.73969e-06
5.23518e-06
-1.74544e-06
5.72943e-06
-1.72627e-06
6.24409e-06
-1.68117e-06
6.78087e-06
-1.60918e-06
7.34146e-06
-1.5093e-06
7.92749e-06
-1.38057e-06
8.54056e-06
-1.22203e-06
9.18212e-06
-1.03279e-06
9.85347e-06
-8.11984e-07
1.05558e-05
-5.58846e-07
1.12898e-05
-2.72694e-07
1.20564e-05
4.70621e-08
1.28557e-05
4.0085e-07
1.36878e-05
7.88969e-07
1.45522e-05
1.21154e-06
1.54482e-05
1.66849e-06
1.63745e-05
2.15951e-06
1.73292e-05
2.68403e-06
1.83101e-05
3.24117e-06
1.93142e-05
3.82971e-06
2.03379e-05
4.44803e-06
2.13768e-05
5.09404e-06
2.24258e-05
5.7651e-06
2.3479e-05
6.45792e-06
2.45292e-05
7.16849e-06
2.55682e-05
7.89196e-06
2.65868e-05
8.62252e-06
2.75742e-05
9.35333e-06
2.85182e-05
1.00764e-05
2.94054e-05
1.07826e-05
3.02207e-05
1.14616e-05
3.09481e-05
1.2102e-05
1.2692e-05
3.2128e-07
-2.81209e-07
6.62053e-07
-7.63809e-07
1.00907e-06
-1.03807e-06
1.36179e-06
-1.25131e-06
1.72068e-06
-1.43571e-06
2.08655e-06
-1.59914e-06
2.46042e-06
-1.74361e-06
2.84343e-06
-1.8693e-06
3.23686e-06
-1.9758e-06
3.64206e-06
-2.06243e-06
4.06051e-06
-2.12842e-06
4.49373e-06
-2.1729e-06
4.94328e-06
-2.195e-06
5.41081e-06
-2.1938e-06
5.89797e-06
-2.16833e-06
6.40643e-06
-2.11763e-06
6.93782e-06
-2.04069e-06
7.49376e-06
-1.9365e-06
8.07577e-06
-1.80404e-06
8.68529e-06
-1.64231e-06
9.32361e-06
-1.45031e-06
9.99186e-06
-1.2271e-06
1.06909e-05
-9.71768e-07
1.14215e-05
-6.83509e-07
1.21839e-05
-3.61575e-07
1.29782e-05
-5.34926e-09
1.38041e-05
3.85651e-07
1.46609e-05
8.11756e-07
1.55473e-05
1.2731e-06
1.64617e-05
1.76959e-06
1.7402e-05
2.30087e-06
1.83654e-05
2.86628e-06
1.93487e-05
3.46481e-06
2.03477e-05
4.09502e-06
2.13578e-05
4.75498e-06
2.23735e-05
5.44219e-06
2.33885e-05
6.15349e-06
2.43955e-05
6.88494e-06
2.53863e-05
7.63175e-06
2.63515e-05
8.38812e-06
2.72807e-05
9.14719e-06
2.81624e-05
9.90094e-06
2.89838e-05
1.06402e-05
2.97313e-05
1.13545e-05
1.20327e-05
3.04944e-07
-5.86124e-07
6.27067e-07
-1.08589e-06
9.54629e-07
-1.36562e-06
1.28723e-06
-1.58389e-06
1.62538e-06
-1.77385e-06
1.96992e-06
-1.94367e-06
2.32187e-06
-2.09554e-06
2.68237e-06
-2.22978e-06
3.05265e-06
-2.34608e-06
3.43406e-06
-2.44385e-06
3.82802e-06
-2.52238e-06
4.236e-06
-2.58088e-06
4.65952e-06
-2.61853e-06
5.10016e-06
-2.63444e-06
5.55952e-06
-2.62769e-06
6.03921e-06
-2.59731e-06
6.5408e-06
-2.54229e-06
7.06588e-06
-2.46157e-06
7.61593e-06
-2.3541e-06
8.19237e-06
-2.21875e-06
8.7965e-06
-2.05443e-06
9.42943e-06
-1.86003e-06
1.00921e-05
-1.63444e-06
1.07852e-05
-1.37662e-06
1.15092e-05
-1.08556e-06
1.22642e-05
-7.60327e-07
1.30499e-05
-4.0009e-07
1.38658e-05
-4.14443e-09
1.47109e-05
4.2805e-07
1.55836e-05
8.96862e-07
1.6482e-05
1.4024e-06
1.74038e-05
1.94453e-06
1.83458e-05
2.52278e-06
1.93046e-05
3.13627e-06
2.02758e-05
3.78372e-06
2.12548e-05
4.46326e-06
2.22358e-05
5.17243e-06
2.32127e-05
5.90806e-06
2.41784e-05
6.66613e-06
2.51248e-05
7.44167e-06
2.60433e-05
8.22868e-06
2.69243e-05
9.02e-06
2.77572e-05
9.80725e-06
2.85309e-05
1.05808e-05
1.133e-05
2.89241e-07
-8.75336e-07
5.93514e-07
-1.39014e-06
9.02492e-07
-1.67458e-06
1.21586e-06
-1.89724e-06
1.53413e-06
-2.09211e-06
1.85816e-06
-2.26769e-06
2.18894e-06
-2.4263e-06
2.52759e-06
-2.56842e-06
2.87532e-06
-2.69381e-06
3.23341e-06
-2.80196e-06
3.60326e-06
-2.89222e-06
3.98626e-06
-2.96388e-06
4.38388e-06
-3.01616e-06
4.79764e-06
-3.04821e-06
5.22909e-06
-3.05913e-06
5.67977e-06
-3.04798e-06
6.1512e-06
-3.01373e-06
6.64493e-06
-2.95531e-06
7.16243e-06
-2.87159e-06
7.70507e-06
-2.7614e-06
8.27416e-06
-2.62352e-06
8.87084e-06
-2.45671e-06
9.49608e-06
-2.25969e-06
1.01507e-05
-2.0312e-06
1.08351e-05
-1.76998e-06
1.15496e-05
-1.47481e-06
1.2294e-05
-1.14456e-06
1.3068e-05
-7.78155e-07
1.38708e-05
-3.74677e-07
1.4701e-05
6.66463e-08
1.5557e-05
5.46363e-07
1.64368e-05
1.06479e-06
1.73376e-05
1.62192e-06
1.82565e-05
2.2174e-06
1.91898e-05
2.85043e-06
2.01333e-05
3.5197e-06
2.10825e-05
4.22333e-06
2.20318e-05
4.9587e-06
2.29756e-05
5.72239e-06
2.39072e-05
6.51008e-06
2.48195e-05
7.31638e-06
2.57047e-05
8.13475e-06
2.65546e-05
8.95741e-06
2.73601e-05
9.77522e-06
1.05781e-05
2.74051e-07
-1.14937e-06
5.61209e-07
-1.67728e-06
8.52393e-07
-1.96574e-06
1.14733e-06
-2.19215e-06
1.44654e-06
-2.39131e-06
1.75084e-06
-2.57197e-06
2.06119e-06
-2.73665e-06
2.37867e-06
-2.8859e-06
2.70445e-06
-3.01959e-06
3.03978e-06
-3.13728e-06
3.38596e-06
-3.23839e-06
3.74434e-06
-3.32227e-06
4.11633e-06
-3.38816e-06
4.50338e-06
-3.43527e-06
4.90698e-06
-3.46273e-06
5.3286e-06
-3.4696e-06
5.76974e-06
-3.45488e-06
6.23188e-06
-3.41746e-06
6.71648e-06
-3.35618e-06
7.22489e-06
-3.26981e-06
7.75842e-06
-3.15706e-06
8.31826e-06
-3.01653e-06
8.90539e-06
-2.84684e-06
9.52071e-06
-2.6465e-06
1.01648e-05
-2.41407e-06
1.0838e-05
-2.14805e-06
1.15405e-05
-1.84704e-06
1.2272e-05
-1.50963e-06
1.30319e-05
-1.13457e-06
1.38192e-05
-7.20717e-07
1.46327e-05
-2.67135e-07
1.54706e-05
2.26887e-07
1.63308e-05
7.61751e-07
1.72107e-05
1.33751e-06
1.81073e-05
1.9538e-06
1.90173e-05
2.60974e-06
1.99367e-05
3.30387e-06
2.08614e-05
4.03401e-06
2.17866e-05
4.79719e-06
2.27072e-05
5.58952e-06
2.36175e-05
6.40606e-06
2.45116e-05
7.2407e-06
2.53829e-05
8.08608e-06
2.62247e-05
8.93343e-06
9.77293e-06
2.59315e-07
-1.40867e-06
5.30023e-07
-1.94796e-06
8.04128e-07
-2.23982e-06
1.08139e-06
-2.46939e-06
1.36229e-06
-2.6722e-06
1.6476e-06
-2.85727e-06
1.93825e-06
-3.02729e-06
2.23526e-06
-3.18291e-06
2.53974e-06
-3.32407e-06
2.85287e-06
-3.45041e-06
3.1759e-06
-3.56142e-06
3.51011e-06
-3.65647e-06
3.85684e-06
-3.73489e-06
4.21748e-06
-3.79591e-06
4.59344e-06
-3.83869e-06
4.98614e-06
-3.86232e-06
5.39705e-06
-3.86578e-06
5.82759e-06
-3.848e-06
6.27917e-06
-3.80777e-06
6.75318e-06
-3.74383e-06
7.25092e-06
-3.65479e-06
7.77359e-06
-3.5392e-06
8.32228e-06
-3.39553e-06
8.89793e-06
-3.22215e-06
9.50128e-06
-3.01741e-06
1.01329e-05
-2.77964e-06
1.0793e-05
-2.50714e-06
1.14816e-05
-2.19826e-06
1.21984e-05
-1.85142e-06
1.29429e-05
-1.46518e-06
1.3714e-05
-1.03825e-06
1.45105e-05
-5.69601e-07
1.53307e-05
-5.84642e-08
1.61727e-05
4.9554e-07
1.70341e-05
1.09238e-06
1.79123e-05
1.73151e-06
1.88044e-05
2.41178e-06
1.97071e-05
3.13133e-06
2.06168e-05
3.8875e-06
2.15296e-05
4.67669e-06
2.24414e-05
5.49426e-06
2.33477e-05
6.33439e-06
2.42438e-05
7.18999e-06
2.51247e-05
8.05256e-06
8.91251e-06
2.45013e-07
-1.65367e-06
4.99871e-07
-2.20278e-06
7.57556e-07
-2.49748e-06
1.01784e-06
-2.72965e-06
1.28115e-06
-2.9355e-06
1.5482e-06
-3.12433e-06
1.81987e-06
-3.29895e-06
2.09709e-06
-3.46013e-06
2.38092e-06
-3.60791e-06
2.67248e-06
-3.74197e-06
2.97293e-06
-3.86186e-06
3.28349e-06
-3.96703e-06
3.60543e-06
-4.05683e-06
3.94006e-06
-4.13054e-06
4.28873e-06
-4.18737e-06
4.65282e-06
-4.22641e-06
5.03372e-06
-4.24669e-06
5.43282e-06
-4.24711e-06
5.85153e-06
-4.22648e-06
6.29119e-06
-4.1835e-06
6.75314e-06
-4.11674e-06
7.23861e-06
-4.02468e-06
7.74877e-06
-3.90568e-06
8.28465e-06
-3.75802e-06
8.84712e-06
-3.5799e-06
9.43691e-06
-3.36943e-06
1.00545e-05
-3.12475e-06
1.07002e-05
-2.84397e-06
1.13741e-05
-2.52525e-06
1.20758e-05
-2.16689e-06
1.28048e-05
-1.76731e-06
1.35604e-05
-1.32519e-06
1.43415e-05
-8.39494e-07
1.51466e-05
-3.09558e-07
1.59741e-05
2.64837e-07
1.68222e-05
8.83385e-07
1.76888e-05
1.54516e-06
1.85716e-05
2.24852e-06
1.94681e-05
2.99101e-06
2.03756e-05
3.76921e-06
2.12912e-05
4.57867e-06
2.22118e-05
5.41375e-06
2.31343e-05
6.26755e-06
2.40551e-05
7.13177e-06
7.99699e-06
2.31135e-07
-1.88478e-06
4.70707e-07
-2.44234e-06
7.12605e-07
-2.73935e-06
9.5657e-07
-2.9736e-06
1.20299e-06
-3.1819e-06
1.45248e-06
-3.37382e-06
1.70586e-06
-3.55232e-06
1.964e-06
-3.71827e-06
2.22786e-06
-3.87177e-06
2.49849e-06
-4.0126e-06
2.77698e-06
-4.14035e-06
3.06447e-06
-4.25452e-06
3.36216e-06
-4.35452e-06
3.67129e-06
-4.43968e-06
3.99315e-06
-4.50923e-06
4.32906e-06
-4.56232e-06
4.68034e-06
-4.59797e-06
5.04836e-06
-4.61514e-06
5.43449e-06
-4.61261e-06
5.84008e-06
-4.58909e-06
6.26647e-06
-4.54313e-06
6.71493e-06
-4.47315e-06
7.18672e-06
-4.37747e-06
7.68296e-06
-4.25426e-06
8.20469e-06
-4.10162e-06
8.7528e-06
-3.91755e-06
9.32805e-06
-3.7e-06
9.93099e-06
-3.44691e-06
1.0562e-05
-3.15625e-06
1.12212e-05
-2.8261e-06
1.19085e-05
-2.45465e-06
1.26237e-05
-2.04036e-06
1.33662e-05
-1.58197e-06
1.41352e-05
-1.07859e-06
1.49299e-05
-5.2982e-07
1.57491e-05
6.42202e-08
1.65915e-05
7.02745e-07
1.74557e-05
1.38426e-06
1.83403e-05
2.10641e-06
1.92437e-05
2.86591e-06
2.01639e-05
3.6584e-06
2.10993e-05
4.47837e-06
2.20478e-05
5.31906e-06
2.30073e-05
6.17233e-06
7.02892e-06
2.17682e-07
-2.10245e-06
4.42537e-07
-2.66719e-06
6.69257e-07
-2.96605e-06
8.97564e-07
-3.20188e-06
1.12774e-06
-3.41208e-06
1.36039e-06
-3.60645e-06
1.59617e-06
-3.7881e-06
1.83591e-06
-3.958e-06
2.0805e-06
-4.11635e-06
2.33086e-06
-4.26297e-06
2.58805e-06
-4.39753e-06
2.85311e-06
-4.51958e-06
3.12718e-06
-4.62858e-06
3.41141e-06
-4.72391e-06
3.70703e-06
-4.80486e-06
4.01532e-06
-4.87058e-06
4.33752e-06
-4.92018e-06
4.67497e-06
-4.95259e-06
5.02901e-06
-4.96666e-06
5.40098e-06
-4.96107e-06
5.79225e-06
-4.93439e-06
6.20412e-06
-4.88503e-06
6.63791e-06
-4.81126e-06
7.09487e-06
-4.71122e-06
7.57616e-06
-4.58293e-06
8.0829e-06
-4.4243e-06
8.61607e-06
-4.23317e-06
9.17652e-06
-4.00736e-06
9.76497e-06
-3.7447e-06
1.0382e-05
-3.4431e-06
1.10279e-05
-3.1006e-06
1.1703e-05
-2.71546e-06
1.24073e-05
-2.28628e-06
1.31408e-05
-1.812e-06
1.3903e-05
-1.29206e-06
1.46937e-05
-7.26474e-07
1.55124e-05
-1.15919e-07
1.63584e-05
5.38179e-07
1.72313e-05
1.23355e-06
1.81303e-05
1.96696e-06
1.90545e-05
2.73414e-06
2.00033e-05
3.52963e-06
2.09755e-05
4.3468e-06
2.19702e-05
5.17768e-06
6.01319e-06
2.04662e-07
-2.30711e-06
4.15392e-07
-2.87791e-06
6.27557e-07
-3.17819e-06
8.40853e-07
-3.41515e-06
1.05548e-06
-3.62671e-06
1.27194e-06
-3.8229e-06
1.49083e-06
-4.00698e-06
1.71287e-06
-4.18004e-06
1.93886e-06
-4.34233e-06
2.16967e-06
-4.49378e-06
2.40624e-06
-4.6341e-06
2.64956e-06
-4.7629e-06
2.90069e-06
-4.87971e-06
3.1607e-06
-4.98394e-06
3.43077e-06
-5.07493e-06
3.71209e-06
-5.15189e-06
4.00588e-06
-5.21396e-06
4.31342e-06
-5.26013e-06
4.63602e-06
-5.28926e-06
4.97502e-06
-5.30008e-06
5.33178e-06
-5.29116e-06
5.70765e-06
-5.26092e-06
6.10403e-06
-5.20763e-06
6.52224e-06
-5.12944e-06
6.96362e-06
-5.02432e-06
7.42945e-06
-4.89014e-06
7.92096e-06
-4.72468e-06
8.4393e-06
-4.5257e-06
8.98553e-06
-4.29093e-06
9.5606e-06
-4.01817e-06
1.01654e-05
-3.70535e-06
1.08006e-05
-3.35064e-06
1.14668e-05
-2.95249e-06
1.21645e-05
-2.50975e-06
1.28942e-05
-2.02175e-06
1.36562e-05
-1.48842e-06
1.44506e-05
-9.10362e-07
1.52778e-05
-2.88949e-07
1.61378e-05
3.73584e-07
1.70307e-05
1.07405e-06
1.79566e-05
1.80822e-06
1.89155e-05
2.57074e-06
1.99072e-05
3.35507e-06
2.09315e-05
4.15342e-06
4.95693e-06
1.92113e-07
-2.49922e-06
3.89335e-07
-3.07513e-06
5.87599e-07
-3.37644e-06
7.8654e-07
-3.61408e-06
9.86314e-07
-3.82648e-06
1.18727e-06
-4.02387e-06
1.38996e-06
-4.20967e-06
1.595e-06
-4.38507e-06
1.80311e-06
-4.55044e-06
2.01507e-06
-4.70574e-06
2.23175e-06
-4.85078e-06
2.45406e-06
-4.98522e-06
2.68299e-06
-5.10863e-06
2.91953e-06
-5.2205e-06
3.16481e-06
-5.3202e-06
3.41995e-06
-5.40702e-06
3.6861e-06
-5.48012e-06
3.96452e-06
-5.53856e-06
4.25648e-06
-5.58123e-06
4.5633e-06
-5.6069e-06
4.88635e-06
-5.6142e-06
5.22701e-06
-5.60158e-06
5.58672e-06
-5.56734e-06
5.96691e-06
-5.50964e-06
6.36905e-06
-5.42646e-06
6.79459e-06
-5.31568e-06
7.24499e-06
-5.17509e-06
7.72167e-06
-5.00238e-06
8.22602e-06
-4.79528e-06
8.75939e-06
-4.55153e-06
9.32306e-06
-4.26902e-06
9.91824e-06
-3.94583e-06
1.05461e-05
-3.58036e-06
1.12077e-05
-3.17137e-06
1.19041e-05
-2.71815e-06
1.26363e-05
-2.22056e-06
1.34051e-05
-1.67915e-06
1.42114e-05
-1.09524e-06
1.5056e-05
-4.71047e-07
1.59398e-05
1.90297e-07
1.68634e-05
8.8462e-07
1.78275e-05
1.60666e-06
1.88325e-05
2.35e-06
1.98789e-05
3.10708e-06
3.86928e-06
1.80093e-07
-2.67932e-06
3.64477e-07
-3.25951e-06
5.49529e-07
-3.56147e-06
7.3481e-07
-3.79938e-06
9.20413e-07
-4.01206e-06
1.10657e-06
-4.21004e-06
1.29375e-06
-4.39685e-06
1.4825e-06
-4.57381e-06
1.67342e-06
-4.74137e-06
1.86728e-06
-4.89959e-06
2.0648e-06
-5.04832e-06
2.26688e-06
-5.1873e-06
2.47439e-06
-5.31615e-06
2.68829e-06
-5.43442e-06
2.90962e-06
-5.54153e-06
3.13944e-06
-5.63684e-06
3.37886e-06
-5.71956e-06
3.62909e-06
-5.78878e-06
3.89135e-06
-5.84349e-06
4.16695e-06
-5.8825e-06
4.45724e-06
-5.90449e-06
4.76364e-06
-5.90798e-06
5.08761e-06
-5.89131e-06
5.43067e-06
-5.8527e-06
5.7944e-06
-5.79019e-06
6.18041e-06
-5.7017e-06
6.59036e-06
-5.58504e-06
7.02591e-06
-5.43794e-06
7.48875e-06
-5.25813e-06
7.9806e-06
-5.04337e-06
8.50312e-06
-4.79155e-06
9.05801e-06
-4.50072e-06
9.64692e-06
-4.16926e-06
1.02715e-05
-3.79591e-06
1.09332e-05
-3.37991e-06
1.16338e-05
-2.92108e-06
1.23745e-05
-2.41993e-06
1.3157e-05
-1.87775e-06
1.39827e-05
-1.29668e-06
1.48528e-05
-6.79805e-07
1.57686e-05
-3.12151e-08
1.67313e-05
6.43945e-07
1.77419e-05
1.33945e-06
1.8801e-05
2.04797e-06
2.76117e-06
1.68708e-07
-2.84803e-06
3.40991e-07
-3.4318e-06
5.13554e-07
-3.73403e-06
6.85904e-07
-3.97172e-06
8.58013e-07
-4.18416e-06
1.03007e-06
-4.38209e-06
1.20244e-06
-4.56921e-06
1.37558e-06
-4.74695e-06
1.55006e-06
-4.91586e-06
1.72653e-06
-5.07606e-06
1.90568e-06
-5.22749e-06
2.08833e-06
-5.36994e-06
2.27527e-06
-5.5031e-06
2.46741e-06
-5.62657e-06
2.66572e-06
-5.73984e-06
2.87119e-06
-5.84231e-06
3.08488e-06
-5.93326e-06
3.30796e-06
-6.01186e-06
3.5416e-06
-6.07713e-06
3.78707e-06
-6.12798e-06
4.04572e-06
-6.16314e-06
4.31897e-06
-6.18122e-06
4.60829e-06
-6.18065e-06
4.91528e-06
-6.15971e-06
5.2416e-06
-6.11652e-06
5.58898e-06
-6.04909e-06
5.95925e-06
-5.95531e-06
6.35428e-06
-5.83298e-06
6.77604e-06
-5.67989e-06
7.22653e-06
-5.49386e-06
7.70779e-06
-5.27281e-06
8.22191e-06
-5.01484e-06
8.77098e-06
-4.71833e-06
9.35711e-06
-4.38203e-06
9.98237e-06
-4.00516e-06
1.06488e-05
-3.58752e-06
1.13585e-05
-3.12958e-06
1.21133e-05
-2.63258e-06
1.29152e-05
-2.09858e-06
1.3766e-05
-1.53057e-06
1.46673e-05
-9.32526e-07
1.56206e-05
-3.09423e-07
1.66274e-05
3.32725e-07
1.76885e-05
9.86892e-07
1.64507e-06
1.58108e-07
-3.00614e-06
3.19108e-07
-3.59279e-06
4.79928e-07
-3.89485e-06
6.40064e-07
-4.13185e-06
7.99372e-07
-4.34348e-06
9.58007e-07
-4.54073e-06
1.11624e-06
-4.72745e-06
1.27448e-06
-4.9052e-06
1.43324e-06
-5.07462e-06
1.59308e-06
-5.23591e-06
1.75466e-06
-5.38908e-06
1.91871e-06
-5.53398e-06
2.08597e-06
-5.67037e-06
2.2573e-06
-5.79791e-06
2.43359e-06
-5.91613e-06
2.61576e-06
-6.0245e-06
2.80485e-06
-6.12236e-06
3.00193e-06
-6.20895e-06
3.20815e-06
-6.28336e-06
3.42474e-06
-6.34458e-06
3.65302e-06
-6.39143e-06
3.89439e-06
-6.42259e-06
4.15033e-06
-6.43661e-06
4.42248e-06
-6.43186e-06
4.71255e-06
-6.40659e-06
5.02236e-06
-6.35891e-06
5.35387e-06
-6.28681e-06
5.70912e-06
-6.18823e-06
6.09028e-06
-6.06105e-06
6.49961e-06
-5.9032e-06
6.93946e-06
-5.71266e-06
7.41225e-06
-5.48763e-06
7.92044e-06
-5.22652e-06
8.46654e-06
-4.92812e-06
9.05305e-06
-4.59167e-06
9.68248e-06
-4.21695e-06
1.03573e-05
-3.80438e-06
1.10798e-05
-3.35513e-06
1.18524e-05
-2.87118e-06
1.26772e-05
-2.35538e-06
1.35562e-05
-1.81153e-06
1.44912e-05
-1.24439e-06
1.54836e-05
-6.59732e-07
1.65348e-05
-6.42272e-08
5.34505e-07
1.48467e-07
-3.15462e-06
2.99051e-07
-3.74336e-06
4.48896e-07
-4.04472e-06
5.97508e-07
-4.28046e-06
7.44703e-07
-4.49069e-06
8.90571e-07
-4.6866e-06
1.03535e-06
-4.87223e-06
1.17937e-06
-5.04925e-06
1.32314e-06
-5.21837e-06
1.46712e-06
-5.3799e-06
1.61194e-06
-5.53391e-06
1.75827e-06
-5.68031e-06
1.90681e-06
-5.81891e-06
2.05833e-06
-5.94943e-06
2.21367e-06
-6.07147e-06
2.3737e-06
-6.18454e-06
2.53939e-06
-6.28806e-06
2.71175e-06
-6.38133e-06
2.89189e-06
-6.46351e-06
3.08099e-06
-6.53368e-06
3.28031e-06
-6.59075e-06
3.49123e-06
-6.63352e-06
3.71524e-06
-6.66062e-06
3.95394e-06
-6.67058e-06
4.2091e-06
-6.66175e-06
4.48258e-06
-6.63239e-06
4.77641e-06
-6.58065e-06
5.09277e-06
-6.50459e-06
5.43397e-06
-6.40225e-06
5.80245e-06
-6.27168e-06
6.20081e-06
-6.11101e-06
6.6317e-06
-5.91852e-06
7.09792e-06
-5.69273e-06
7.60227e-06
-5.43247e-06
8.14761e-06
-5.13701e-06
8.73679e-06
-4.80613e-06
9.37262e-06
-4.44021e-06
1.00578e-05
-4.04034e-06
1.0795e-05
-3.60835e-06
1.15866e-05
-3.14696e-06
1.24348e-05
-2.65973e-06
1.33415e-05
-2.15116e-06
1.43085e-05
-1.62669e-06
1.53369e-05
-1.09263e-06
-5.5615e-07
1.39942e-07
-3.29456e-06
2.80983e-07
-3.8844e-06
4.20623e-07
-4.18438e-06
5.58386e-07
-4.41823e-06
6.94111e-07
-4.62641e-06
8.2785e-07
-4.82035e-06
9.59818e-07
-5.0042e-06
1.09032e-06
-5.17976e-06
1.21981e-06
-5.34785e-06
1.34872e-06
-5.50883e-06
1.47764e-06
-5.66283e-06
1.60717e-06
-5.80984e-06
1.73798e-06
-5.94972e-06
1.87077e-06
-6.08222e-06
2.00632e-06
-6.20702e-06
2.14545e-06
-6.32369e-06
2.28906e-06
-6.43168e-06
2.43811e-06
-6.53038e-06
2.59363e-06
-6.61904e-06
2.75675e-06
-6.6968e-06
2.92868e-06
-6.76269e-06
3.11075e-06
-6.81559e-06
3.30441e-06
-6.8543e-06
3.51126e-06
-6.87743e-06
3.73303e-06
-6.88352e-06
3.97161e-06
-6.87097e-06
4.22906e-06
-6.8381e-06
4.50761e-06
-6.78315e-06
4.80967e-06
-6.70431e-06
5.13781e-06
-6.59982e-06
5.49475e-06
-6.46795e-06
5.88335e-06
-6.30713e-06
6.3066e-06
-6.11597e-06
6.76754e-06
-5.89342e-06
7.2693e-06
-5.63876e-06
7.81496e-06
-5.3518e-06
8.40762e-06
-5.03287e-06
9.05024e-06
-4.68295e-06
9.74564e-06
-4.30376e-06
1.04965e-05
-3.89778e-06
1.13051e-05
-3.46832e-06
1.21735e-05
-3.01957e-06
1.31034e-05
-2.55658e-06
1.4096e-05
-2.08522e-06
-1.61217e-06
1.32613e-07
-3.42716e-06
2.6499e-07
-4.01679e-06
3.95137e-07
-4.31454e-06
5.22683e-07
-4.54578e-06
6.47525e-07
-4.75126e-06
7.69742e-07
-4.94256e-06
8.89519e-07
-5.12399e-06
1.00718e-06
-5.29744e-06
1.12313e-06
-5.46379e-06
1.23779e-06
-5.6235e-06
1.3517e-06
-5.77674e-06
1.46541e-06
-5.92355e-06
1.57955e-06
-6.06385e-06
1.69476e-06
-6.19743e-06
1.81177e-06
-6.32403e-06
1.93134e-06
-6.44326e-06