/*--------------------------------*- C++ -*----------------------------------*\
| =========                 |                                                 |
| \\      /  F ield         | OpenFOAM: The Open Source CFD Toolbox           |
|  \\    /   O peration     | Version:  5.0                                   |
|   \\  /    A nd           | Web:      www.OpenFOAM.org                      |
|    \\/     M anipulation  |                                                 |
\*---------------------------------------------------------------------------*/
FoamFile
{
    version     2.0;
    format      ascii;
    class       surfaceScalarField;
    location    "0.7";
    object      alphaPhi10;
}
// * * * * * * * * * * * * * * * * * * * * * * * * * * * * * * * * * * * * * //

dimensions      [0 3 -1 0 0 0 0];

internalField   nonuniform List<scalar> 
3731
(
-4.57741e-06
-3.87071e-06
-4.57857e-06
-4.15401e-06
-5.64415e-06
-8.73257e-06
-2.612e-06
-6.44048e-06
-1.13446e-05
-1.15476e-06
-7.04909e-06
-1.24993e-05
-4.65251e-08
-7.26752e-06
-1.25459e-05
5.14765e-07
-7.20167e-06
-1.20311e-05
8.93017e-07
-7.04049e-06
-1.11381e-05
1.15359e-06
-6.88272e-06
-9.98449e-06
1.29308e-06
-6.79369e-06
-8.6914e-06
1.22669e-06
-6.77054e-06
-7.46472e-06
1.42547e-21
-4.6735e-20
8.09542e-20
2.3972e-21
-1.38727e-16
1.38808e-16
-3.55045e-14
3.53655e-14
-3.33289e-12
3.29738e-12
-1.34426e-10
1.31095e-10
-3.59393e-09
3.61271e-09
-5.2852e-08
5.04307e-08
-4.19565e-07
3.67312e-07
-2.12102e-06
9.1509e-07
-9.46664e-05
1.07121e-07
-0.000139259
-2.37008e-07
-0.000143859
-1.54732e-07
-0.000140599
6.95958e-08
-0.000140094
2.83635e-07
-0.000144839
3.71e-07
-0.000156865
3.36846e-07
-0.000164698
8.66351e-08
-0.000167515
-2.11263e-07
-0.000168256
-2.18775e-07
-0.000168625
3.63371e-08
-0.000169302
5.79814e-07
-0.000170642
1.32801e-06
-0.000172574
1.9316e-06
-0.000174396
1.82244e-06
-0.000174657
2.60478e-07
-0.000172291
-2.36586e-06
-0.000165881
-6.4094e-06
-0.000154358
-1.1523e-05
-0.000138081
-1.62779e-05
-0.000119205
-1.88754e-05
-0.000100004
-1.92015e-05
-8.16036e-05
-1.84001e-05
-6.41863e-05
-1.74172e-05
-4.74973e-05
-1.6689e-05
-3.11697e-05
-1.63276e-05
-1.51749e-05
-1.59866e-05
-1.0251e-06
-1.4159e-05
7.2469e-06
-8.73993e-06
7.4422e-06
8.7865e-20
-2.29378e-19
-5.26549e-17
5.2849e-17
-1.61242e-14
1.31874e-14
-3.33461e-13
1.51034e-12
-3.73093e-11
8.79216e-11
-1.15208e-09
2.30697e-09
-2.81558e-08
3.91487e-08
-2.30813e-07
2.28527e-07
-5.26929e-06
1.55503e-06
-1.0582e-05
9.04955e-07
-6.862e-06
-6.33786e-08
-6.42436e-06
-9.91738e-08
-9.03425e-06
-7.44721e-08
-1.43126e-05
-1.68443e-08
-2.07027e-05
-3.89087e-08
-3.73594e-05
-2.14022e-08
-8.38769e-05
-2.60605e-08
-0.000131034
-2.72323e-07
-0.000150972
-4.63507e-07
-0.000157574
-5.68564e-07
-0.000160906
-6.35941e-07
-0.000163264
-6.66803e-07
-0.000164205
-7.52977e-07
-0.000163164
-1.01604e-06
-0.000160453
-1.61998e-06
-0.000157456
-2.88947e-06
-0.000154378
-5.44368e-06
-0.000149516
-1.12717e-05
-0.000140743
-2.02966e-05
-0.000127556
-2.94641e-05
-0.000111704
-3.4728e-05
-9.52854e-05
-3.56199e-05
-7.94556e-05
-3.42299e-05
-6.45848e-05
-3.2288e-05
-5.06601e-05
-3.06137e-05
-3.75421e-05
-2.94456e-05
-2.51212e-05
-2.84075e-05
-1.33044e-05
-2.59758e-05
-4.11811e-06
-1.79263e-05
3.59811e-06
-3.36425e-18
3.02421e-18
7.23774e-16
6.84859e-16
6.11462e-14
5.32267e-14
1.83898e-12
5.01788e-12
-2.56931e-11
2.53029e-10
-1.15052e-09
5.24962e-09
-3.42169e-08
6.64964e-08
-1.62236e-06
5.36404e-07
-4.15217e-06
1.23603e-06
-1.07614e-06
-9.24356e-08
-4.90993e-08
1.4104e-08
-1.48395e-07
-9.50374e-10
-4.64335e-07
-2.56195e-09
-1.6885e-06
-2.25656e-09
-3.67809e-06
-9.08077e-09
-6.1401e-06
-5.2035e-09
-8.4197e-06
-1.48751e-08
-1.05954e-05
-4.49083e-08
-1.30564e-05
-6.02007e-08
-1.58261e-05
-4.80119e-09
-1.90568e-05
-1.16324e-08
-2.59116e-05
-4.85745e-08
-4.99748e-05
-1.99483e-07
-9.18538e-05
-7.05553e-07
-0.000120253
-1.69136e-06
-0.000132271
-2.80425e-06
-0.000136185
-7.42797e-06
-0.000132473
-1.69748e-05
-0.000125102
-2.76729e-05
-0.00011398
-4.05883e-05
-0.00010055
-4.81588e-05
-8.66338e-05
-4.95359e-05
-7.31918e-05
-4.76718e-05
-6.05835e-05
-4.48962e-05
-4.89065e-05
-4.22906e-05
-3.81448e-05
-4.02072e-05
-2.81981e-05
-3.83543e-05
-1.882e-05
-3.5354e-05
-9.69574e-06
-2.70507e-05
-6.09763e-06
-1.17074e-17
1.4366e-17
2.83222e-15
2.05743e-15
1.85456e-13
1.05435e-13
-1.02106e-12
6.73386e-12
-1.05847e-10
3.51961e-10
-2.40593e-09
6.96507e-09
-1.39078e-08
7.12177e-08
-1.15673e-06
6.55078e-07
-2.12449e-06
1.0237e-07
-1.75325e-08
-3.24508e-08
-2.95995e-09
3.6161e-10
-3.91264e-09
-3.4842e-13
-1.46053e-08
-1.2732e-11
-6.2377e-08
-1.35474e-10
-1.17857e-07
-1.30266e-10
-1.32721e-07
-8.85549e-11
-1.04174e-07
-4.73105e-10
-1.83483e-08
-6.2121e-10
-9.28377e-09
-4.03045e-10
-9.55562e-09
-4.81578e-10
-1.69992e-08
-6.95415e-10
-6.07801e-08
-1.02834e-09
-2.53192e-07
-3.21166e-09
-9.32549e-07
-1.72139e-08
-2.48386e-06
-1.06303e-07
-9.95201e-06
-4.49162e-07
-5.66063e-05
-2.30205e-06
-0.000102889
-8.31681e-06
-0.000107954
-3.19659e-05
-9.85923e-05
-4.99503e-05
-8.72825e-05
-5.94686e-05
-7.5769e-05
-6.10495e-05
-6.46622e-05
-5.87786e-05
-5.41969e-05
-5.53616e-05
-4.44753e-05
-5.20122e-05
-3.55249e-05
-4.91574e-05
-2.72561e-05
-4.6623e-05
-1.92461e-05
-4.33641e-05
-1.0225e-05
-3.6072e-05
-1.63227e-05
-3.30039e-18
9.84322e-18
9.79574e-16
6.68928e-16
6.55422e-14
2.67884e-14
2.34204e-12
2.83925e-12
6.66432e-11
2.3275e-10
9.56858e-10
6.44279e-09
6.58444e-09
6.29422e-08
-9.0437e-07
6.3175e-07
-9.60171e-07
6.15571e-08
-3.78723e-10
1.77246e-08
-3.41774e-11
1.75379e-11
-3.61253e-11
1.62021e-12
-6.30925e-11
5.88632e-13
-1.74483e-10
3.65256e-13
-3.0217e-10
1.59794e-13
-5.53098e-10
-3.74889e-13
-2.0932e-09
-1.10578e-11
-5.21571e-09
-1.32597e-11
-8.18745e-09
-1.66282e-11
-7.9217e-09
-4.85332e-11
-6.01067e-09
-1.64758e-10
-2.72049e-09
-2.67209e-10
-3.1595e-09
-5.61837e-10
-9.07347e-09
-2.44396e-09
-4.39474e-08
-9.19407e-09
-2.52629e-07
-3.95726e-08
-2.12751e-06
-2.60743e-07
-2.57306e-05
-1.75141e-06
-8.37368e-05
-2.18061e-05
-8.18953e-05
-5.41692e-05
-7.27557e-05
-6.86083e-05
-6.36913e-05
-7.01139e-05
-5.49052e-05
-6.75647e-05
-4.64993e-05
-6.37675e-05
-3.85557e-05
-5.99557e-05
-3.11207e-05
-5.65924e-05
-2.41349e-05
-5.36067e-05
-1.72286e-05
-5.02692e-05
-9.24494e-06
-4.40562e-05
-2.55676e-05
6.19481e-14
-1.59523e-14
3.71264e-14
-9.75136e-14
-1.70995e-13
-6.71638e-14
4.79013e-14
1.88929e-12
-8.55599e-11
2.85465e-10
6.39052e-10
5.01795e-09
6.9626e-09
5.66503e-08
-5.93703e-07
6.3307e-07
-6.20828e-07
2.44491e-07
-2.6203e-11
4.76148e-08
-1.45738e-11
5.63922e-12
-1.59232e-11
2.74237e-12
-1.69553e-11
1.56772e-12
-1.74939e-11
8.81811e-13
-1.75956e-11
4.43998e-13
-1.5887e-11
-3.6211e-13
-1.19596e-11
-1.22703e-12
-9.86935e-12
-1.76035e-12
-1.83318e-11
-1.29815e-12
-5.56968e-11
-2.89367e-12
-1.93523e-10
-1.04806e-11
-1.32666e-10
-4.19543e-11
-3.68894e-10
-1.95288e-10
-1.69122e-10
-7.68786e-10
4.08985e-09
-2.82934e-09
1.64477e-08
-1.29562e-08
4.63958e-08
-7.24553e-08
-8.95576e-07
-4.52528e-07
-4.54107e-05
-1.31182e-05
-6.51595e-05
-5.78889e-05
-5.81772e-05
-7.55906e-05
-5.15171e-05
-7.67741e-05
-4.4936e-05
-7.41459e-05
-3.84489e-05
-7.02546e-05
-3.21332e-05
-6.62714e-05
-2.60519e-05
-6.26738e-05
-2.01748e-05
-5.94806e-05
-1.42576e-05
-5.616e-05
-7.57833e-06
-5.07356e-05
-3.31459e-05
4.49389e-11
4.71527e-10
1.43685e-08
-1.43224e-08
8.57998e-08
-7.13385e-08
4.03883e-09
8.21058e-08
1.96205e-10
3.98898e-09
-2.86572e-09
1.09285e-08
3.1179e-09
6.85856e-08
-2.21476e-07
9.15707e-07
-3.47776e-07
4.95205e-07
-1.14171e-11
3.47467e-08
-1.20838e-11
6.0953e-12
-1.33577e-11
4.0076e-12
-1.43448e-11
2.51441e-12
-1.49574e-11
1.53312e-12
-1.54506e-11
9.24483e-13
-1.59013e-11
2.9653e-13
-1.72056e-11
7.29987e-13
-1.16625e-11
-1.57129e-12
-5.60843e-12
-9.78571e-13
-9.36218e-13
-1.34566e-12
6.47481e-13
-1.99231e-12
-1.38859e-11
-1.14633e-11
1.12233e-11
-5.51719e-11
5.02492e-10
-2.30743e-10
2.91141e-09
-1.0953e-09
1.42819e-08
-6.33873e-09
5.84811e-08
-4.41184e-08
1.16821e-07
-4.76884e-07
-2.81106e-05
-1.19694e-05
-4.9756e-05
-6.44761e-05
-4.47309e-05
-8.06157e-05
-4.01778e-05
-8.13272e-05
-3.55216e-05
-7.88018e-05
-3.07229e-05
-7.50525e-05
-2.58633e-05
-7.11304e-05
-2.10219e-05
-6.7515e-05
-1.61931e-05
-6.43093e-05
-1.11426e-05
-6.11723e-05
-5.64688e-06
-5.56865e-05
-3.87928e-05
5.38747e-11
4.17653e-10
4.9303e-07
-8.82952e-07
2.00257e-06
-4.18101e-06
1.72879e-07
4.50754e-07
4.60938e-09
1.72402e-07
-4.85545e-10
2.68734e-08
-7.85536e-08
1.38029e-07
-3.02943e-07
1.12156e-06
-4.19965e-07
5.64747e-07
-1.09015e-11
2.21762e-07
-1.13134e-11
7.04722e-12
-1.27312e-11
5.38847e-12
-1.50751e-11
4.84932e-12
-6.33367e-11
6.96643e-12
-8.01706e-11
1.45316e-11
-6.57511e-11
5.92766e-12
-2.34693e-11
-1.79995e-11
-1.00482e-11
-9.34837e-13
-5.42792e-12
-1.62752e-13
-1.12764e-12
-6.7305e-13
-3.8165e-13
-2.84329e-13
1.69648e-12
-2.54374e-12
3.36371e-11
-1.30536e-11
2.36599e-10
-7.15279e-11
1.37648e-09
-4.7312e-10
8.00258e-09
-3.70427e-09
3.55651e-08
-3.35525e-08
1.4874e-07
-5.85722e-07
-2.57986e-05
-1.32997e-05
-3.6395e-05
-7.74571e-05
-3.31191e-05
-8.38916e-05
-3.02205e-05
-8.42259e-05
-2.71056e-05
-8.19164e-05
-2.37068e-05
-7.84513e-05
-2.01085e-05
-7.47288e-05
-1.64086e-05
-7.12151e-05
-1.26333e-05
-6.80851e-05
-8.67736e-06
-6.51459e-05
-3.79242e-06
-5.89337e-05
-2.97035e-05
1.13058e-06
-1.74746e-06
7.70616e-06
-1.54926e-05
2.19755e-06
-7.7461e-06
-3.72075e-08
4.12773e-07
1.0328e-09
1.3667e-07
2.16948e-10
3.05649e-08
-8.70631e-08
1.55404e-07
-3.21198e-07
5.60908e-07
-4.64405e-07
4.24471e-07
-9.93961e-12
2.01808e-07
-9.61927e-12
8.05494e-12
-1.14454e-11
6.96433e-12
-1.52408e-11
8.98343e-12
-6.5377e-11
2.24362e-11
-3.71136e-10
4.95014e-11
-3.02597e-10
-1.52875e-10
-1.08952e-11
-3.72844e-12
-7.36586e-12
-2.21826e-12
-3.4515e-12
-2.57005e-12
-7.85154e-13
-2.36091e-12
-3.07632e-13
-9.91529e-15
1.24954e-12
-3.56679e-13
1.05517e-11
-2.81536e-12
7.37152e-11
-2.23293e-11
5.45048e-10
-2.11954e-10
3.92835e-09
-2.38013e-09
2.83024e-08
-3.42959e-08
1.57264e-07
-7.28002e-07
-2.31796e-05
-1.87895e-05
-2.54101e-05
-8.21549e-05
-2.34977e-05
-8.5804e-05
-2.1806e-05
-8.59176e-05
-1.98489e-05
-8.38735e-05
-1.75563e-05
-8.07442e-05
-1.50162e-05
-7.72693e-05
-1.23513e-05
-7.38804e-05
-9.65459e-06
-7.07824e-05
-6.92017e-06
-6.78808e-05
-2.26421e-06
-6.18677e-05
-1.69382e-05
1.25174e-05
-1.98923e-05
8.32551e-06
-1.5895e-05
-3.86999e-07
-1.11173e-06
-9.5771e-09
3.14022e-08
-4.29446e-09
1.30374e-07
1.68795e-09
1.91689e-08
-3.56125e-08
1.24785e-07
-1.41737e-07
5.66212e-08
-1.64218e-07
6.51803e-08
-1.019e-11
6.24987e-08
-8.14695e-12
9.39484e-12
-1.04584e-11
9.47023e-12
-2.73245e-11
2.87001e-11
-1.78419e-10
1.78961e-10
-1.79011e-09
9.08849e-10
-1.50741e-11
-1.26772e-10
-1.66736e-11
-4.51519e-12
-1.50833e-11
2.5336e-13
-1.24098e-11
-7.58674e-12
-2.08679e-13
-6.95681e-13
-2.02987e-13
-1.49124e-15
7.12924e-14
-4.31169e-14
1.83194e-12
-5.24063e-13
1.81331e-11
-6.50358e-12
1.75409e-10
-9.46443e-11
1.93485e-09
-1.63486e-09
4.66741e-08
-5.92341e-08
-2.14395e-06
-1.06561e-06
-1.85521e-05
-4.94394e-05
-1.66008e-05
-8.41063e-05
-1.56912e-05
-8.67135e-05
-1.48496e-05
-8.67593e-05
-1.37292e-05
-8.49939e-05
-1.22808e-05
-8.21929e-05
-1.05961e-05
-7.89541e-05
-8.8182e-06
-7.56584e-05
-7.10882e-06
-7.24918e-05
-5.60864e-06
-6.9381e-05
-2.25906e-06
-6.47818e-05
-3.43448e-05
1.27399e-06
-6.94954e-06
-7.6919e-06
1.50117e-06
1.57774e-06
-7.50295e-06
-8.72088e-06
2.60672e-06
1.32252e-06
-8.07689e-06
-9.61622e-06
2.21786e-06
5.31953e-07
-8.40991e-06
-9.96034e-06
8.76069e-07
-5.81671e-07
-8.38541e-06
-9.67621e-06
-8.65802e-07
-1.80915e-06
-7.99229e-06
-8.82684e-06
-2.65852e-06
-3.00789e-06
-7.27727e-06
-7.51903e-06
-4.31571e-06
-4.10119e-06
-6.32266e-06
-5.89514e-06
-5.7251e-06
-5.09636e-06
-5.23443e-06
-4.12895e-06
-6.86257e-06
-6.11746e-06
-2.37576e-06
-7.87046e-06
-8.32475e-07
-8.93314e-06
2.58786e-07
-1.02396e-05
1.5629e-07
-1.18332e-05
-2.22491e-09
-3.3144e-06
3.54422e-12
-3.02348e-09
4.93076e-12
6.40591e-11
5.98396e-13
9.67093e-12
9.12974e-14
3.73814e-14
8.51426e-15
3.5094e-14
-5.09939e-14
-1.67885e-14
-9.59104e-14
-4.16152e-14
-9.10827e-14
-4.54512e-14
-6.95437e-14
-3.67192e-14
-4.75386e-14
-2.48059e-14
-3.06676e-14
-1.48036e-14
-1.93604e-14
-8.06224e-15
-1.22802e-14
-4.076e-15
-7.95886e-15
-1.90797e-15
-5.30963e-15
-7.95638e-16
-3.64575e-15
-2.55122e-16
-2.56393e-15
-1.23836e-17
-1.83152e-15
1.04128e-16
1.36022e-16
6.94091e-06
-5.43974e-06
1.27917e-05
-5.85079e-06
1.90636e-05
-6.27191e-06
-6.06218e-06
2.51258e-05
5.89834e-06
-8.73136e-06
9.73052e-06
-9.68297e-06
1.34869e-05
-1.00283e-05
-5.31366e-06
1.17322e-05
3.86502e-06
-1.03785e-05
5.78621e-06
-1.16042e-05
5.5889e-06
-9.73522e-06
-3.23315e-07
6.72652e-07
1.27246e-06
-1.07749e-05
1.35128e-06
-1.16829e-05
3.23254e-07
-4.97067e-06
-3.9061e-13
-5.94345e-11
-1.45925e-06
-1.01815e-05
-1.65973e-06
-1.00804e-05
-3.07464e-11
-2.0242e-06
-4.52086e-14
-3.07746e-11
-4.04178e-06
-8.79811e-06
-3.23708e-06
-7.58974e-06
-8.84616e-12
-8.22516e-07
-9.64092e-16
-8.79929e-12
-6.27975e-06
-6.83387e-06
-4.38665e-06
-5.25043e-06
-2.21897e-13
-5.40037e-07
-1.51215e-17
-2.01191e-13
-8.03557e-06
-4.52315e-06
-7.0955e-06
-2.51913e-06
-2.71548e-14
7.62351e-08
1.52278e-16
-1.82994e-14
-9.29988e-06
-2.08561e-06
-8.81392e-06
5.67526e-07
-9.59814e-15
1.69715e-06
1.70552e-16
-4.08735e-15
-1.02505e-05
2.94526e-07
-1.18193e-05
3.72126e-06
-2.71254e-15
5.6843e-06
1.83657e-16
-7.78329e-16
-1.11062e-05
2.46773e-06
-1.39757e-05
6.59342e-06
-4.72026e-06
1.09004e-05
1.90293e-06
1.86056e-15
-1.19324e-05
4.16087e-06
-1.42693e-05
8.93204e-06
-1.04669e-05
1.44211e-05
1.07276e-05
5.92595e-15
-1.28447e-05
5.17024e-06
-1.44693e-05
1.0552e-05
-1.62311e-05
1.66091e-05
2.1024e-05
2.36228e-15
-1.37455e-05
1.28763e-06
-1.45888e-05
1.13825e-05
-1.6146e-05
1.77468e-05
2.45792e-05
-1.07529e-05
-3.50373e-06
-5.0271e-09
-1.4353e-05
2.6968e-06
-1.49247e-05
1.78691e-05
2.48639e-05
-1.57595e-05
-6.59743e-09
2.34703e-11
-3.8766e-06
-1.6309e-08
-1.34804e-05
4.58317e-06
2.35754e-05
-1.34679e-05
1.49479e-10
-3.7954e-12
-1.79417e-08
-1.05313e-09
-2.6819e-06
-3.14452e-08
3.84002e-06
-1.00864e-05
9.10876e-12
8.00216e-13
-6.82741e-10
-4.03024e-11
-3.40084e-08
-1.3748e-09
-2.27885e-08
-1.1647e-06
2.7413e-13
1.15004e-13
-3.51309e-12
1.80925e-13
-8.37234e-10
-5.02554e-11
-6.26234e-10
-2.48337e-08
6.8773e-14
2.9442e-14
1.37482e-12
5.43822e-14
7.79161e-12
-1.45923e-12
-5.13094e-11
-1.3337e-10
-4.29857e-16
-1.11653e-15
1.31073e-13
3.02913e-14
2.40849e-12
-2.58125e-14
-2.78434e-12
2.77798e-11
-2.09598e-14
-4.42763e-14
7.37812e-15
1.95343e-15
1.79348e-13
1.94606e-14
-1.64162e-13
2.87847e-12
-2.65809e-14
-5.1515e-14
-5.55748e-15
-1.15428e-14
9.49761e-15
4.40554e-15
-8.529e-15
1.98176e-13
-2.1054e-14
-4.09111e-14
-1.22126e-14
-2.51698e-14
-2.65157e-16
-5.73372e-16
4.08449e-15
1.04577e-14
-1.35515e-14
-2.86948e-14
-1.00231e-14
-2.27535e-14
-3.27145e-15
-7.89744e-15
1.49929e-16
6.63108e-16
-7.66428e-15
-1.93285e-14
-6.04457e-15
-1.69282e-14
-3.09773e-15
-9.65238e-15
-2.1197e-16
-6.08669e-17
-3.89179e-15
-1.29991e-14
-2.99348e-15
-1.19706e-14
-1.60391e-15
-7.94413e-15
-2.197e-15
-3.37941e-16
-1.73105e-15
-8.89443e-15
-1.15316e-15
-8.45178e-15
-4.61097e-16
-5.91426e-15
-2.37515e-15
-4.35192e-17
-5.90266e-16
-6.23357e-15
-1.86708e-16
-6.06662e-15
6.41677e-17
-4.3577e-15
-2.01085e-15
-4.77581e-19
-3.83347e-17
-4.47432e-15
1.77132e-16
-4.46177e-15
1.8936e-16
-3.31551e-15
-1.63927e-15
6.8251e-19
1.84967e-16
-3.28071e-15
2.98952e-16
-3.38428e-15
2.36105e-16
-2.61538e-15
-1.35599e-15
9.87166e-18
2.58976e-16
-2.44994e-15
3.26834e-16
-2.63708e-15
2.39951e-16
-2.12557e-15
-1.14828e-15
3.31915e-17
2.59703e-16
3.06619e-16
2.14116e-16
2.23369e-17
1.43107e-05
-9.15477e-06
9.58213e-07
-1.14311e-06
-1.67689e-09
-9.16067e-08
-4.57157e-08
3.53837e-08
-1.08935e-08
7.52368e-08
-3.47399e-09
7.53394e-09
-5.92754e-09
5.54734e-08
-1.11114e-08
2.35717e-08
-5.25368e-09
6.18741e-08
-1.327e-11
5.78314e-08
-1.01406e-11
5.23671e-11
-7.71177e-11
7.94443e-11
-1.02518e-09
9.83323e-10
-1.2828e-08
1.19825e-08
-2.70896e-09
6.88101e-09
-3.8344e-11
-3.55947e-12
-3.65667e-11
-8.75241e-12
-2.32414e-11
-2.66145e-11
-5.27342e-12
-8.67819e-12
-9.07729e-15
-1.72621e-18
-1.04534e-14
6.25626e-18
7.12903e-15
-3.06226e-15
1.71708e-13
-8.8647e-14
3.28026e-12
-1.95978e-12
5.0893e-11
-4.66608e-11
8.23544e-10
-1.71565e-09
5.53127e-08
-1.15159e-07
-6.67431e-06
-1.85666e-06
-1.04837e-05
-7.74686e-05
-9.78507e-06
-8.48054e-05
-9.56109e-06
-8.69372e-05
-9.29228e-06
-8.70281e-05
-8.75375e-06
-8.55325e-05
-7.922e-06
-8.30247e-05
-6.88728e-06
-7.9989e-05
-5.79387e-06
-7.67519e-05
-4.81882e-06
-7.34669e-05
-4.13824e-06
-7.00616e-05
-3.38505e-06
-6.59235e-05
-5.44962e-05
1.13368e-06
-6.70854e-07
5.2559e-10
-1.27336e-08
-2.91694e-08
3.34821e-10
-3.04143e-08
5.57498e-09
-5.75369e-09
3.27822e-09
-2.72635e-09
1.46454e-09
-1.1324e-09
4.15539e-09
-9.9332e-10
2.03194e-08
-2.0398e-08
7.07702e-08
-1.05757e-08
3.43061e-07
-1.52901e-09
1.53402e-07
-4.38723e-08
4.33558e-08
-8.89254e-08
1.38015e-07
-1.0547e-07
1.01019e-07
-4.21462e-11
1.07342e-08
-2.93093e-11
-5.28599e-12
-2.81023e-11
1.33967e-12
-2.66413e-12
-2.55815e-11
-5.75547e-17
-1.01385e-16
3.36235e-18
-3.48485e-18
-1.27347e-15
1.36717e-15
-2.71578e-15
1.93653e-16
-3.48768e-15
-1.75947e-14
5.74496e-13
-7.61854e-13
3.77442e-11
-4.61323e-11
1.31684e-09
-2.73429e-09
7.30705e-08
-1.90086e-07
-3.91465e-06
-2.50703e-05
-4.20904e-06
-8.08569e-05
-4.25364e-06
-8.47733e-05
-4.47532e-06
-8.67158e-05
-4.58919e-06
-8.69143e-05
-4.4656e-06
-8.56562e-05
-4.10227e-06
-8.33882e-05
-3.57719e-06
-8.05141e-05
-3.01279e-06
-7.73163e-05
-2.55377e-06
-7.39259e-05
-2.32629e-06
-7.02891e-05
-2.25588e-06
-6.59939e-05
-5.67521e-05
1.98011e-09
-4.07078e-10
-9.90763e-09
-5.87389e-10
-9.1416e-09
-2.38219e-10
-4.91664e-09
-2.59939e-09
-1.37343e-09
-1.21943e-09
-5.94988e-10
3.22702e-10
-2.42699e-11
2.71471e-09
-1.54175e-09
2.68555e-08
-3.88659e-08
2.95944e-07
-5.57068e-08
3.57083e-07
-7.88095e-08
2.81731e-07
-8.94528e-08
2.18353e-07
-1.06753e-07
1.51128e-07
-7.73583e-08
6.83886e-08
-6.92807e-11
4.97874e-09
-4.65224e-11
-9.94148e-12
-2.72208e-11
-7.3654e-11
-4.89461e-16
-3.01403e-13
-1.77653e-17
-4.98229e-16
3.27927e-16
-2.78802e-16
4.2077e-17
5.11547e-15
-2.80757e-15
3.44488e-15
-1.10669e-13
9.02672e-14
7.05625e-13
-9.63008e-13
6.76104e-11
-9.50814e-11
1.00969e-08
-1.27287e-08
3.148e-08
-2.17595e-07
7.24409e-07
-6.47011e-05
5.00126e-07
-8.07592e-05
5.5702e-08
-8.43286e-05
-4.17651e-07
-8.62431e-05
-7.73132e-07
-8.65591e-05
-9.38687e-07
-8.54909e-05
-9.21538e-07
-8.34057e-05
-7.79334e-07
-8.06566e-05
-6.05653e-07
-7.749e-05
-5.11388e-07
-7.40194e-05
-5.95027e-07
-7.02054e-05
-8.59579e-07
-6.57294e-05
-5.76117e-05
-5.71135e-10
-6.22479e-11
-6.55821e-10
1.79682e-10
-9.30619e-10
-4.12934e-10
-1.14674e-09
-6.02476e-10
-4.90166e-10
-4.18979e-10
2.14198e-11
2.82181e-10
5.51176e-10
3.22177e-09
-1.42678e-08
6.66151e-08
-4.75834e-08
4.3708e-07
-5.91698e-08
3.73107e-07
-6.60843e-08
2.90409e-07
-6.40637e-08
2.17939e-07
-5.55918e-08
1.42408e-07
-3.06652e-08
3.57704e-08
-1.57238e-10
-4.37184e-13
-2.59387e-11
-1.29083e-10
-1.91158e-15
-4.55749e-12
-3.80461e-16
-1.20768e-13
-3.18426e-18
-9.19279e-16
1.99647e-19
2.98374e-16
5.89761e-18
7.38942e-15
8.97781e-16
3.0737e-14
-3.25263e-14
4.82629e-13
3.33502e-14
-1.0869e-12
1.02159e-09
-1.10303e-09
1.52136e-07
-1.63788e-07
2.01559e-06
-2.02577e-05
4.60698e-06
-7.45914e-05
4.02772e-06
-8.01828e-05
3.36505e-06
-8.36683e-05
2.7471e-06
-8.56258e-05
2.23813e-06
-8.60514e-05
1.86389e-06
-8.51184e-05
1.62121e-06
-8.31644e-05
1.47889e-06
-8.05151e-05
1.36967e-06
-7.73718e-05
1.19995e-06
-7.38491e-05
8.82494e-07
-6.9888e-05
3.5106e-07
-6.51979e-05
-5.72606e-05
-2.53293e-10
2.57605e-12
-1.40435e-10
-3.39091e-11
-2.74725e-10
-3.94902e-11
-3.10726e-10
-1.24585e-10
-1.69773e-10
-1.18499e-10
2.86461e-11
3.52726e-10
1.46462e-09
2.39632e-09
-1.66134e-08
9.81345e-08
-2.50969e-08
4.48487e-07
-2.96149e-08
3.80328e-07
-2.79924e-08
2.91008e-07
-1.94305e-08
2.09956e-07
-4.6333e-09
1.02588e-07
2.9319e-11
-9.08705e-10
-3.80243e-11
-1.04505e-10
-2.37806e-13
-4.81087e-11
2.22013e-14
-2.12581e-12
-1.85362e-15
-8.57762e-14
5.37159e-16
-1.95854e-15
-5.89819e-17
4.14972e-15
-1.26055e-15
2.85618e-15
-4.48664e-15
2.30428e-13
-6.42235e-14
-4.51264e-12
1.8964e-10
-1.87605e-10
3.05522e-08
-3.15404e-08
1.39623e-06
-1.52928e-06
7.68666e-06
-5.68717e-05
7.32589e-06
-7.45452e-05
6.56969e-06
-7.94342e-05
5.80967e-06
-8.29101e-05
5.10868e-06
-8.49292e-05
4.48546e-06
-8.54371e-05
3.94331e-06
-8.45836e-05
3.49818e-06
-8.27263e-05
3.15115e-06
-8.01268e-05
2.85594e-06
-7.70659e-05
2.51757e-06
-7.35113e-05
2.02064e-06
-6.93911e-05
1.21468e-06
-6.4392e-05
-5.60459e-05
-6.63687e-12
-1.7935e-12
-3.35033e-11
-7.72716e-12
-6.30684e-11
-8.73903e-12
-7.6578e-11
-3.41281e-11
-1.47945e-11
-2.63366e-11
6.7977e-11
3.26067e-10
2.57064e-10
2.9136e-09
1.15382e-08
7.3957e-08
1.67159e-08
2.26636e-07
1.97473e-08
3.79229e-07
2.56034e-08
2.85596e-07
1.70141e-08
6.46233e-08
1.1615e-09
-4.05621e-09
-3.13179e-11
-1.30239e-10
1.15667e-11
-6.85272e-11
7.76353e-13
-1.32812e-11
-7.57204e-14
-8.08885e-13
1.16649e-15
-3.29919e-14
1.27038e-15
-1.75199e-15
-1.50513e-15
3.48158e-14
-8.98573e-16
1.30816e-14
-6.44641e-14
4.26507e-13
2.5966e-11
-3.05332e-11
3.41073e-09
-3.54427e-09
3.85334e-07
-4.1401e-07
4.85065e-06
-2.32482e-05
9.89961e-06
-6.72232e-05
9.14288e-06
-7.38067e-05
8.30625e-06
-7.86076e-05
7.48393e-06
-8.20899e-05
6.70633e-06
-8.41717e-05
5.96388e-06
-8.47342e-05
5.25964e-06
-8.39096e-05
4.64864e-06
-8.20634e-05
4.17382e-06
-7.94865e-05
3.79619e-06
-7.66934e-05
3.39191e-06
-7.31074e-05
2.82201e-06
-6.88212e-05
1.86431e-06
-6.34343e-05
-5.41816e-05
-2.98659e-13
-3.64259e-14
-8.70953e-12
-7.86283e-14
-1.70581e-11
-4.36626e-12
-1.48169e-11
-1.15344e-11
9.9563e-12
6.23962e-12
6.00456e-11
2.598e-10
1.36187e-09
2.61968e-09
1.56835e-08
1.40002e-08
4.14036e-08
4.10629e-09
5.17917e-08
3.78901e-08
3.1288e-08
1.06549e-08
2.6657e-09
-7.38406e-09
2.86719e-11
-4.9876e-10
-1.17544e-11
1.93087e-12
-4.78037e-12
-1.81093e-11
-5.06184e-13
-2.20757e-12
-6.71292e-14
-2.25673e-13
6.75805e-15
-1.13619e-14
1.25641e-15
3.8187e-15
-1.76018e-14
1.15348e-13
-5.72206e-15
7.73426e-14
-1.74631e-13
-9.1805e-12
4.77329e-10
-4.7208e-10
5.25934e-08
-5.59541e-08
2.35245e-06
-2.71629e-06
1.12537e-05
-5.22644e-05
1.10859e-05
-6.70844e-05
1.02413e-05
-7.29851e-05
9.34393e-06
-7.77155e-05
8.43729e-06
-8.11947e-05
7.52263e-06
-8.33311e-05
6.60795e-06
-8.38973e-05
5.70811e-06
-8.30892e-05
4.96135e-06
-7.99436e-05
4.49944e-06
-7.90668e-05
4.13255e-06
-7.63347e-05
3.77938e-06
-7.27545e-05
3.26118e-06
-6.83031e-05
2.29585e-06
-6.2469e-05
-5.18858e-05
-1.11219e-14
1.4136e-15
-1.98624e-12
2.27824e-14
-3.56679e-12
-1.77222e-12
-9.72136e-13
-2.86941e-12
8.8064e-12
8.80875e-12
3.63397e-12
1.77985e-10
5.43996e-10
1.23879e-09
3.46313e-09
4.33163e-10
6.45622e-09
-1.93878e-10
9.72468e-09
-1.33639e-09
5.77734e-09
-2.63637e-09
7.04684e-10
-9.40774e-10
9.52423e-11
-5.51912e-11
2.1054e-12
4.18289e-13
-4.52808e-12
-2.74773e-12
-1.22211e-13
-4.71678e-13
-1.61436e-15
-5.08423e-14
1.46378e-14
-3.87377e-15
-2.91749e-15
5.40838e-14
-7.2773e-14
1.88759e-13
-4.20076e-14
-3.31387e-13
8.84402e-11
-9.76149e-11
8.25101e-09
-8.55679e-09
6.58606e-07
-7.06619e-07
8.40242e-06
-2.93377e-05
1.24174e-05
-5.9309e-05
1.16329e-05
-6.63508e-05
1.07318e-05
-7.21123e-05
9.74447e-06
-7.67366e-05
8.68261e-06
-8.01756e-05
7.42959e-06
-8.18649e-05
6.04847e-06
-7.75772e-05
4.99262e-06
-7.39893e-05
4.49678e-06
-7.94759e-05
4.04552e-06
-7.87305e-05
3.8245e-06
-7.6116e-05
3.64326e-06
-7.25743e-05
3.30024e-06
-6.79607e-05
2.48761e-06
-6.16563e-05
-4.93982e-05
-1.0169e-15
1.27076e-15
-1.33034e-13
2.10953e-14
-4.44701e-13
-2.82008e-13
3.05452e-13
-3.41723e-13
1.8083e-12
4.69844e-12
1.15364e-11
3.18663e-11
1.68514e-10
2.76653e-11
5.66226e-10
4.4047e-11
1.48857e-09
-1.6639e-10
1.9328e-09
-3.56339e-10
7.49712e-10
-4.96322e-10
1.93683e-10
-1.0719e-10
5.70669e-11
-1.73224e-11
5.71463e-12
-1.72545e-12
-6.52758e-13
9.31378e-15
-4.94425e-14
-1.0841e-13
1.33569e-14
-8.18261e-15
4.82947e-15
4.65301e-15
-4.9999e-14
1.20787e-13
-1.45329e-13
2.42319e-13
3.65294e-12
-4.13695e-12
1.26273e-09
-1.32825e-09
9.52769e-08
-1.02992e-07
3.15996e-06
-6.07862e-06
1.28927e-05
-4.91559e-05
1.25493e-05
-5.90014e-05
1.17013e-05
-6.5513e-05
1.06836e-05
-7.1106e-05
9.51479e-06
-7.55926e-05
7.758e-06
-7.81183e-05
4.76928e-06
-5.90061e-05
4.01344e-06
-5.71206e-05
3.65869e-06
-6.98693e-05
3.05548e-06
-7.99044e-05
2.81826e-06
-7.85014e-05
2.86895e-06
-7.61726e-05
2.96294e-06
-7.26733e-05
2.86889e-06
-6.7871e-05
2.3322e-06
-6.11232e-05
-4.24452e-05
-3.35159e-15
8.9781e-16
-1.52388e-14
8.19973e-15
-6.14975e-14
1.15677e-14
-3.85157e-14
1.74443e-14
-1.3131e-13
2.06554e-13
4.62564e-12
-8.73015e-13
2.61014e-11
1.84317e-13
1.26098e-10
-3.4115e-12
2.88471e-10
-6.10369e-11
3.34683e-10
-9.21564e-11
1.4673e-10
-7.50318e-11
5.31679e-11
-2.1936e-11
1.55295e-11
-5.62832e-12
3.24261e-12
-9.97056e-13
-1.87318e-13
-1.84966e-14
2.55368e-14
-9.85493e-15
2.06603e-14
-3.30616e-15
-7.06394e-15
5.52667e-14
-1.32798e-13
1.5352e-13
-2.06813e-13
2.05216e-13
1.10984e-10
-1.13215e-10
3.30639e-08
-3.43298e-08
1.77397e-06
-1.84572e-06
1.18531e-05
-3.2379e-05
1.31192e-05
-5.10266e-05
1.23311e-05
-5.82609e-05
1.13297e-05
-6.45297e-05
1.00883e-05
-6.98822e-05
8.18231e-06
-7.36794e-05
4.45405e-06
-4.59212e-05
2.91499e-06
-5.11833e-05
1.70831e-06
-5.22492e-05
1.24658e-06
-7.90188e-05
8.33075e-07
-7.94907e-05
9.05201e-07
-7.85725e-05
1.32848e-06
-7.66108e-05
1.76333e-06
-7.31346e-05
1.90406e-06
-6.80318e-05
1.58474e-06
-6.08082e-05
-2.34284e-05
-1.42811e-15
-1.98991e-15
-2.29171e-15
4.80148e-15
-1.36397e-14
1.9349e-14
-1.99722e-14
4.56074e-14
4.55575e-14
-9.0675e-15
8.39708e-13
-9.4547e-14
5.69581e-12
-2.97763e-13
2.43823e-11
-3.63186e-12
5.00877e-11
-1.63218e-11
5.49151e-11
-2.21438e-11
3.03385e-11
-1.28677e-11
1.02409e-11
-4.44471e-12
2.88978e-12
-1.15592e-12
7.48393e-13
-2.38665e-13
1.45842e-14
-9.55711e-15
1.97898e-14
1.12782e-16
3.13126e-15
1.33524e-14
-1.09527e-13
6.4595e-14
-2.05662e-13
1.19667e-13
-1.91608e-13
-3.33606e-13
2.87838e-09
-2.97019e-09
6.38289e-07
-6.69794e-07
7.76662e-06
-1.7162e-05
1.33262e-05
-4.18071e-05
1.27359e-05
-5.04634e-05
1.17998e-05
-5.7377e-05
1.05455e-05
-6.33359e-05
8.68295e-06
-6.80626e-05
5.82611e-06
-5.38468e-05
2.13457e-06
-4.41313e-05
6.75758e-07
-4.58577e-05
-7.02873e-07
-7.7115e-05
-1.66073e-06
-7.8639e-05
-1.91351e-06
-7.92377e-05
-1.52857e-06
-7.89375e-05
-6.81065e-07
-7.70502e-05
1.5388e-07
-7.40795e-05
4.87351e-07
-6.85453e-05
3.11249e-07
-6.07083e-05
-2.23073e-05
7.17803e-15
-7.46195e-15
-1.6716e-15
-1.73472e-14
-2.3073e-15
1.98349e-14
-2.00199e-15
4.50995e-14
2.17611e-14
2.77217e-14
1.87509e-13
-4.22207e-17
1.14512e-12
-1.31452e-13
4.55326e-12
-1.29224e-12
8.33885e-12
-3.52997e-12
8.80194e-12
-3.48764e-12
5.56945e-12
-2.16069e-12
1.86127e-12
-7.54315e-13
4.64018e-13
-1.56785e-13
1.1787e-13
-1.97862e-14
9.14215e-15
5.40046e-16
6.74436e-15
8.74568e-16
-8.20351e-14
1.8212e-15
-1.8869e-13
3.00766e-14
-2.13543e-13
5.14992e-14
1.21519e-11
-1.56078e-11
8.65031e-08
-8.94663e-08
3.9592e-06
-6.26437e-06
1.27935e-05
-3.14014e-05
1.29377e-05
-4.19668e-05
1.2148e-05
-4.96969e-05
1.09807e-05
-5.62494e-05
9.20944e-06
-6.16029e-05
5.34717e-06
-5.27213e-05
2.10197e-06
-3.71828e-05
8.64068e-08
-4.19652e-05
-2.42528e-06
-6.35147e-05
-3.93707e-06
-7.56032e-05
-4.79077e-06
-7.77853e-05
-4.92418e-06
-7.91043e-05
-4.28292e-06
-7.95548e-05
-2.99216e-06
-7.63305e-05
-1.67186e-06
-7.04557e-05
-1.06354e-06
-6.55537e-05
-8.31034e-07
-6.09864e-05
-4.74951e-05
9.12431e-14
-4.15533e-15
9.20026e-14
-1.56795e-13
1.41162e-15
-3.22451e-13
-5.40435e-18
-1.23735e-14
3.83711e-15
2.38792e-14
3.46131e-14
1.71933e-14
2.0325e-13
1.16778e-14
8.39693e-13
-1.42514e-13
1.39966e-12
-4.3993e-13
1.50203e-12
-4.1633e-13
9.63934e-13
-2.62283e-13
3.40692e-13
-6.47036e-14
8.52819e-14
7.13044e-15
1.64521e-14
2.98942e-15
7.64425e-15
3.07111e-15
-4.69936e-14
-1.22437e-14
-1.45514e-13
-2.22073e-14
-1.86614e-13
-1.10764e-14
-1.53186e-13
5.03593e-15
1.07414e-09
-1.0899e-09
1.77615e-06
-1.86488e-06
1.1845e-05
-1.98132e-05
1.29796e-05
-3.25609e-05
1.23679e-05
-4.13609e-05
1.13837e-05
-4.87311e-05
9.83583e-06
-5.47193e-05
6.3794e-06
-5.25571e-05
2.5055e-06
-3.23637e-05
-1.16864e-07
-3.74375e-05
-3.07607e-06
-5.53218e-05
-5.60031e-06
-7.06517e-05
-6.99729e-06
-7.42062e-05
-7.78017e-06
-7.70025e-05
-7.87626e-06
-7.90082e-05
-7.26321e-06
-8.0168e-05
-4.93627e-06
-7.7603e-05
-2.22911e-06
-4.05899e-05
-1.22259e-06
-1.24248e-05
-2.0105e-06
-2.31819e-05
-2.96578e-05
5.41471e-14
2.20657e-05
1.64501e-13
-1.2541e-13
4.47229e-14
-5.91568e-13
-3.03998e-15
-3.65464e-13
-1.39597e-15
-9.3671e-15
3.85074e-15
1.19466e-14
2.33061e-14
4.89333e-14
1.37631e-13
8.13545e-15
2.45005e-13
1.53926e-14
2.57369e-13
1.05042e-14
1.76949e-13
1.31394e-14
6.9971e-14
1.74658e-14
1.79782e-14
8.92712e-15
6.83347e-15
5.87608e-16
-1.75689e-14
-9.68989e-15
-8.84788e-14
-3.75626e-14
-1.32707e-13
-5.10804e-14
-1.14706e-13
-4.43813e-14
-5.7372e-14
-2.19849e-14
1.60339e-07
-1.61398e-07
1.08011e-05
-7.70588e-06
1.3178e-05
-2.19596e-05
1.24849e-05
-3.18897e-05
1.16575e-05
-4.05388e-05
1.04312e-05
-4.75111e-05
7.53076e-06
-5.0902e-05
3.42951e-06
-2.99301e-05
1.61475e-07
-3.11632e-05
-3.11789e-06
-4.54913e-05
-6.39984e-06
-6.42808e-05
-8.23805e-06
-6.88144e-05
-9.51297e-06
-7.29316e-05
-1.01899e-05
-7.63255e-05
-1.02814e-05
-7.89183e-05
-9.80039e-06
-8.06514e-05
-7.09939e-06
-8.05965e-05
-9.35441e-07
-3.56108e-05
-1.406e-07
-8.00158e-06
-3.35497e-07
-1.34499e-06
-3.76571e-08
-5.31218e-06
3.6743e-05
8.30709e-14
1.55118e-05
8.47466e-14
-2.87424e-13
4.53863e-15
-6.06676e-13
-1.16235e-13
-7.02281e-13
-4.51891e-14
-1.715e-13
2.54688e-15
1.1973e-15
2.05602e-14
3.74421e-14
5.69689e-14
3.47812e-14
5.91677e-14
3.70723e-14
3.33848e-14
1.95713e-14
1.37904e-14
7.89696e-15
2.22354e-15
1.51221e-15
6.15704e-16
5.32774e-16
-3.83947e-14
-2.99254e-14
-7.52825e-14
-5.01732e-14
-7.59987e-14
-5.69848e-14
-4.24003e-14
-4.31288e-14
-9.62146e-15
-6.5738e-15
8.70049e-06
1.80608e-07
1.39226e-05
-1.01064e-05
1.28207e-05
-2.08617e-05
1.1757e-05
-3.08471e-05
1.07621e-05
-3.95663e-05
8.65326e-06
-4.54125e-05
4.62259e-06
-3.27504e-05