/*--------------------------------*- C++ -*----------------------------------*\
| =========                 |                                                 |
| \\      /  F ield         | OpenFOAM: The Open Source CFD Toolbox           |
|  \\    /   O peration     | Version:  5.0                                   |
|   \\  /    A nd           | Web:      www.OpenFOAM.org                      |
|    \\/     M anipulation  |                                                 |
\*---------------------------------------------------------------------------*/
FoamFile
{
    version     2.0;
    format      ascii;
    class       volScalarField;
    location    "0.7";
    object      epsilon;
}
// * * * * * * * * * * * * * * * * * * * * * * * * * * * * * * * * * * * * * //

dimensions      [0 2 -3 0 0 0 0];

internalField   nonuniform List<scalar> 
1915
(
0.210768
0.113676
0.174606
0.195777
0.21259
0.299488
0.253165
0.407871
0.294516
0.521363
0.339708
0.645307
0.388337
0.778136
0.444415
0.946827
0.512195
1.23902
0.577604
2.02449
0.0749683
0.0854139
0.368361
0.417326
0.693239
1.56236
3.59619
6.92743
10.8517
14.2052
16.2822
17.9933
19.162
19.8129
20.2342
20.5569
20.8627
21.1985
21.5741
21.9517
22.3303
22.7617
23.2525
23.8205
24.4797
25.2485
26.1983
27.1388
27.7954
27.7753
26.6533
24.3694
21.3406
18.0978
14.9889
12.1427
9.5146
6.91341
3.82197
1.32696
0.240778
0.240744
0.378529
0.812977
2.27746
5.30868
8.58255
10.2188
10.5954
10.701
10.2487
10.2683
10.4594
10.6381
10.7833
10.9129
11.048
11.2052
11.3987
11.6195
11.8615
12.1239
12.3778
12.5812
12.6778
12.6222
12.4668
12.2303
11.9823
11.6961
11.1804
10.2945
9.1183
7.84051
6.61366
5.5134
4.54423
3.64383
2.69269
1.60809
0.435224
0.388617
0.634723
1.45853
3.75845
7.34809
9.88601
10.1266
9.68092
9.38934
9.38311
9.67598
9.81836
9.93917
10.1166
10.3311
10.5734
10.8354
11.1087
11.3866
11.6584
11.8987
12.0538
12.0561
11.8458
11.3726
10.691
10.022
9.49898
9.09188
8.6231
7.93549
7.0439
6.07612
5.15195
4.34176
3.67476
3.1461
2.71279
2.23539
0.784939
0.635509
1.11665
2.48456
5.42114
8.7978
10.1734
9.61762
9.10461
9.09441
9.56352
9.95295
10.1352
10.346
10.6396
10.9994
11.3963
11.8062
12.2118
12.6008
12.9656
13.2858
13.5005
13.5214
13.211
12.1297
10.5109
9.27831
8.43055
7.82607
7.29004
6.67032
5.92815
5.13851
4.39174
3.74789
3.24409
2.90411
2.73372
2.65211
1.32022
1.1115
2.32391
5.11044
8.80891
10.7264
10.3449
9.13258
8.63507
8.92779
9.83594
10.5243
10.7813
11.0457
11.4404
11.9418
12.4976
13.0541
13.5529
13.9398
14.1867
14.2904
14.2242
13.8991
13.1731
12.0202
10.4543
8.83064
7.67803
6.85962
6.23382
5.6602
5.04413
4.41004
3.81693
3.31068
2.92734
2.70293
2.68602
2.97509
1.97184
2.02784
5.11126
10.6302
15.8628
14.5224
10.9647
8.83809
8.17783
8.57092
9.57332
10.4664
10.9665
11.3633
11.8423
12.4273
13.0484
13.612
14.0095
14.1451
13.9709
13.5115
12.8346
11.9849
10.9731
9.97552
9.10611
8.12487
6.95281
6.02088
5.3416
4.81819
4.31486
3.81657
3.35429
2.96095
2.66967
2.52359
2.61044
3.25916
2.22257
3.46661
6.05515
11.9083
20.1653
19.2385
12.198
8.71013
7.70983
8.06147
8.99088
9.9217
10.5055
10.9374
11.4183
11.9901
12.5742
13.0589
13.3174
13.2466
12.8159
12.0904
11.2023
10.2736
9.35238
8.50309
7.90456
7.37954
6.24045
5.2807
4.61731
4.15636
3.74878
3.35927
2.99855
2.69036
2.4658
2.37383
2.53259
3.50761
2.01052
2.59272
3.85919
8.72728
18.8341
20.7169
13.2222
8.58565
7.23792
7.44895
8.22596
9.05864
9.55979
9.91028
10.3083
10.8042
11.3116
11.71
11.8735
11.7115
11.2156
10.4717
9.62455
8.80475
8.07084
7.49103
7.22876
6.83443
5.54847
4.64565
4.06773
3.6789
3.34859
3.03834
2.74885
2.49875
2.31815
2.26064
2.46718
3.71664
1.55165
1.90909
3.71087
9.35292
18.9186
18.8231
12.8265
8.38548
6.80019
6.8472
7.46132
8.08876
8.41103
8.6145
8.88296
9.26844
9.68864
10.0147
10.1345
9.97464
9.53856
8.9096
8.21514
7.56227
6.99606
6.59448
6.56093
6.1369
4.89534
4.14821
3.69078
3.37289
3.10055
2.84197
2.59663
2.38151
2.22655
2.18905
2.43512
3.88673
2.80932
2.38249
4.78052
12.5144
19.3723
15.8454
11.4377
8.13687
6.49058
6.36474
6.76301
7.13659
7.2798
7.34387
7.48868
7.75447
8.08108
8.33244
8.42387
8.30158
7.97232
7.50071
6.98071
6.4868
6.04752
5.74867
5.80262
5.25947
4.35164
3.81549
3.47587
3.21692
2.98199
2.75086
2.52689
2.32802
2.18477
2.15728
2.43471
4.03893
0.509391
0.857469
0.467079
0.610238
0.447993
0.53143
0.444284
0.510305
0.450593
0.515151
0.463511
0.53323
0.480549
0.557564
0.500006
0.583831
0.520839
0.609282
0.542755
0.632587
0.654466
0.678233
0.708362
0.748702
0.801623
0.844932
0.856382
0.858471
0.859467
0.868337
0.892211
0.93548
1.00036
1.08749
1.19598
1.32332
1.46544
1.61693
1.77138
1.92172
2.06081
2.18203
2.27835
2.65946
2.25963
2.25853
2.74794
0.877538
0.92025
1.00372
1.30686
0.642301
0.732006
0.892795
1.34682
0.597677
0.713023
0.943053
1.57891
0.607513
0.751648
1.04409
1.74232
0.638964
0.811961
1.14761
1.85783
0.677668
0.874221
1.23412
1.92764
0.715554
0.927091
1.29464
1.95404
0.747967
0.966671
1.33623
1.96649
0.772044
0.986082
1.33768
1.93538
0.788727
0.987183
1.29328
1.77647
0.803533
0.983999
1.24775
1.64216
0.823239
0.985489
1.2154
1.5477
0.853336
0.997397
1.19675
1.4678
0.89801
1.02477
1.19734
1.42312
0.956332
1.07114
1.22194
1.41712
0.999399
1.13444
1.27512
1.45204
1.0119
1.18121
1.35183
1.53212
1.01775
1.19958
1.41201
1.63768
1.03102
1.2229
1.45272
1.72569
1.06245
1.26748
1.51893
1.82572
1.11946
1.34398
1.62403
1.97197
1.20604
1.45946
1.77928
2.18208
1.32355
1.61692
1.99078
2.46674
1.47088
1.81516
2.25751
2.8254
1.64438
2.04888
2.57168
3.24641
1.83796
2.30911
2.92007
3.71022
2.04353
2.58402
3.28559
4.19229
2.25156
2.8599
3.64891
4.66497
2.45171
3.12212
3.9856
5.08862
2.63365
3.35193
4.27082
5.43588
2.785
3.53573
4.48936
5.6882
2.89865
3.66568
4.63225
5.83638
1.90387
3.00672
6.47188
14.7433
17.6617
13.5386
10.1505
7.96495
6.46858
6.09882
6.15377
6.28269
6.29685
6.2802
6.33554
6.49159
6.71216
6.86777
6.91963
6.83357
6.61219
6.29243
5.92967
5.56722
5.22946
5.02873
4.99617
4.51354
3.99597
3.65494
3.40724
3.18796
2.96927
2.74421
2.5223
2.32392
2.18052
2.15301
2.43794
4.20015
2.06217
4.1697
8.6539
14.058
15.7174
11.9115
9.25984
7.8345
6.63446
5.86061
5.61382
5.58488
5.55405
5.52173
5.51671
5.57205
5.66109
5.69684
5.69699
5.63943
5.5136
5.32561
5.09692
4.85095
4.61571
4.51072
4.42118
4.13164
3.87111
3.66471
3.47281
3.26863
3.04431
2.80535
2.56804
2.35578
2.20085
2.16335
2.43971
4.36233
2.61052
5.51998
9.3974
13.5087
13.8035
10.515
8.37549
7.35967
6.40132
5.41713
5.10688
5.05429
5.05349
5.03567
4.9907
4.94219
4.8779
4.80406
4.76797
4.74576
4.70766
4.63284
4.52047
4.38967
4.27094
4.2517
4.19481
4.0815
3.96676
3.83245
3.65951
3.44332
3.19112
2.91931
2.65065
2.41162
2.23502
2.17961
2.44024
4.51064
3.10628
6.00264
9.60842
12.4157
11.9954
9.26103
7.34029
6.4859
5.69547
4.90679
4.66273
4.65905
4.70824
4.70719
4.63016
4.45314
4.25451
4.13387
4.10842
4.14317
4.19307
4.2205
4.21447
4.19896
4.20327
4.2529
4.29163
4.30099
4.25761
4.14368
3.95428
3.69859
3.39627
3.07343
2.75889
2.48187
2.27533
2.19693
2.44178
4.64642
3.38532
6.02039
9.03659
10.9451
10.5062
8.27267
6.43063
5.55675
4.9489
4.42667
4.2831
4.33975
4.42194
4.41348
4.24206
3.9568
3.74418
3.66312
3.6995
3.81343
3.95584
4.08393
4.18547
4.288
4.40827
4.55085
4.67974
4.74933
4.72271
4.58632
4.34591
4.02264
3.64769
3.25625
2.88266
2.558
2.31473
2.20919
2.44011
4.74178
3.37173
5.68323
8.09301
9.52681
9.26131
7.55101
5.86337
4.89607
4.38167
4.03977
3.96644
4.03937
4.0971
4.00916
3.74503
3.49699
3.37616
3.39313
3.52717
3.73958
3.98405
4.22071
4.44087
4.6653
4.90276
5.13359
5.32064
5.40474
5.34973
5.15064
4.82441
4.40457
3.93403
3.45708
3.01275
2.63278
2.34762
2.21084
2.42093
4.75555
3.23076
5.14986
7.05634
8.17574
8.10957
6.93913
5.55957
4.61707
4.08679
3.79407
3.71253
3.71752
3.66852
3.50213
3.29684
3.18056
3.19167
3.33384
3.58808
3.91707
4.27835
4.63909
4.99651
5.35568
5.69713
5.99401
6.20535
6.25981
6.13169
5.82802
5.37928
4.83262
4.24346
3.66544
3.14107
2.70063
2.37051
2.19925
2.3802
4.68312
3.01189
4.53476
6.0205
6.89031
6.97047
6.27538
5.31229
4.57939
4.04811
3.70469
3.52577
3.41024
3.28598
3.14694
3.05217
3.06455
3.20982
3.49227
3.89005
4.36062
4.86181
5.3684
5.88525
6.39115
6.7967
7.14758
7.33996
7.31498
7.06376
6.60929
5.99853
5.29344
4.56324
3.87124
3.26098
2.75813
2.38246
2.1748
2.31756
4.52215
2.79637
3.94382
5.06587
5.70722
5.85215
5.49827
4.94618
4.48597
4.05265
3.69096
3.43158
3.24299
3.09901
3.00606
3.00316
3.13615
3.42813
3.8786
4.45625
5.10708
5.78383
6.46294
7.152
7.76481
8.26106
8.62176
8.73735
8.57269
8.13995
7.48301
6.66754
5.77114
4.87973
4.06581
3.36847
2.80505
2.38605
2.14184
2.23686
4.27192
2.66645
3.42983
4.23907
4.67377
4.8203
4.67207
4.41261
4.17004
3.87941
3.57898
3.32303
3.12956
3.00926
2.98763
3.1019
3.38414
3.85942
4.52132
5.32632
6.20882
7.11498
8.00258
8.84028
9.55489
10.1371
10.4449
10.4102
10.0322
9.35027
8.43325
7.36539
6.24542
5.18082
4.24437
3.46392
2.84549
2.38821
2.10986
2.14954
3.94176
2.47081
2.99002
3.56064
3.84112
3.95914
3.91292
3.8058
3.68776
3.51302
3.30628
3.11931
2.99299
2.96495
3.07604
3.36248
3.84575
4.55323
5.47684
6.55764
7.73612
8.9292
10.0197
11.0144
11.9027
12.4845
12.6447
12.3659
11.6862
10.6786
9.43477
8.06247
6.69811
5.46212
4.40938
3.55389
2.88865
2.40062
2.09432
2.07859
3.5743
2.24027
2.6943
3.10552
3.27045
3.34184
3.32249
3.2677
3.201
3.10047
2.98844
2.90955
2.90972
3.03725
3.33966
3.8542
4.60499
5.60125
6.84457
8.25476
9.8389
11.3672
12.6459
13.9188
14.8886
15.3476
15.2386
14.6008
13.5191
12.0969
10.4489
8.73588
7.13464
5.73477
4.57152
3.64745
2.94336
2.43599
2.11605
2.06169
3.29398
2.07892
2.59856
2.84295
2.9456
2.97066
2.94069
2.89456
2.84918
2.80324
2.78735
2.84014
3.00262
3.32623
3.86693
4.66828
5.75485
7.14307
8.79044
10.6209
12.654
14.4916
16.1672
17.6555
18.5706
18.7542
18.2276
17.099
15.5008
13.558
11.447
9.40823
7.57656
6.01489
4.74536
3.75669
3.01896
2.50432
2.19391
2.13252
3.21922
1.86415
2.44569
2.71318
2.77235
2.77284
2.73526
2.70711
2.6946
2.71381
2.80957
3.01456
3.36419
3.91764
4.74825
5.91195
7.42294
9.28957
11.4843
13.9184
16.2816
18.558
20.7171
22.3022
22.9879
22.7095
21.5927
19.8264
17.5775
15.0227
12.4679
10.1112
8.04863
6.32643
4.9514
3.89707
3.12443
2.60658
2.33625
2.30553
3.45361
1.72572
2.13913
2.56514
2.74082
2.75382
2.68923
2.70287
2.75369
2.87089
3.10781
3.49232
4.06286
4.8947
6.08092
7.69748
9.74902
12.1959
14.9768
17.9581
20.9554
23.94
26.4275
27.9194
28.1525
27.1881
25.2891
22.7213
19.6912
16.5391
13.5554
10.8785
8.58243
6.69765
5.21231
4.08536
3.26766
2.72669
2.48509
2.56511
4.19957
1.66578
1.9773
2.31279
2.60598
2.73005
2.80629
2.92709
3.08074
3.31806
3.71772
4.31064
5.15276
6.33953
7.96461
10.106
12.787
15.8942
19.4113
23.2614
27.1964
30.7568
33.3812
34.5329
34.0329
32.1239
29.2359
25.7016
21.8756
18.1582
14.7446
11.7417
9.20708
7.15118
5.54465
4.33275
3.45439
2.8635
2.56701
2.81778
4.32884
1.67528
1.94462
2.22919
2.49514
2.72138
2.96573
3.20354
3.51924
3.96966
4.60046
5.46016
6.64049
8.25246
10.3974
13.1778
16.6346
20.6905
25.3232
30.2898
35.1145
39.1019
41.6225
42.1136
40.5376
37.392
33.3042
28.7429
24.18
19.903
16.0541
12.7188
9.93461
7.69345
5.95076
4.63944
3.68701
3.03584
2.67433
2.74431
3.75449
1.75077
2.01653
2.30926
2.60928
2.91564
3.25782
3.65797
4.17662
4.88689
5.81316
7.04274
8.69272
10.8867
13.7528
17.3943
21.8576
27.1046
32.9892
39.1167
44.7849
49.0351
51.135
50.5591
47.4748
42.7689
37.368
31.851
26.5859
21.7552
17.4697
13.7942
10.748
8.30761
6.41566
4.99383
3.95904
3.24514
2.82973
2.81853
3.91239
1.89802
2.1843
2.52463
2.90774
3.33281
3.8288
4.4353
5.21116
6.22782
7.56206
9.31438
11.6086
14.5751
18.3408
23.0122
28.6474
35.2032
42.4398
49.7784
56.2382
60.5748
61.8348
59.6273
54.4409
47.9305
41.2929
34.9309
29.0004
23.6336
18.9186
14.9043
11.5947
8.95252
6.90919
5.37472
4.25496
3.4785
3.02178
3.00117
4.41629
2.05696
2.44794
2.87101
3.38043
3.965
4.67666
5.56341
6.68996
8.14154
10.019
12.4393
15.5308
19.4217
24.2337
30.0725
37.0002
44.9635
53.6479
62.2687
69.4688
73.6042
73.4744
68.6597
60.6737
52.4561
44.8197
37.7434
31.2184
25.3594
20.2508
15.9312
12.3871
9.56756
7.39237
5.75785
4.55583
3.71584
3.22078
3.22058
5.15514
2.21526
2.71967
3.31923
4.04974
4.83136
5.83166
7.08805
8.6696
10.6845
13.2498
16.4889
20.528
25.4854
31.4679
38.5703
46.8571
56.2882
66.5258
76.5647
84.4232
87.6509
84.7161
75.6431
65.1322
55.7068
47.4498
39.9012
32.903
26.6196
21.2157
16.6856
12.9903
10.0629
7.81323
6.11848
4.84819
3.94191
3.4045
3.42401
5.90321
2.4257
3.02357
3.77962
4.74361
5.89883
7.33394
9.07545
11.2161
13.9279
17.3293
21.5369
26.6647
32.8105
40.0539
48.4624
58.1024
68.9906
80.8754
92.4845
100.268
98.1673
89.8137
78.0552
66.6346
56.7067
48.1035
40.3911
33.3668
26.9691
21.5029
16.9602
13.2651
10.3515
8.127
6.44261
5.11931
4.14153
3.56164
3.59044
6.52368
2.71715
3.43837
4.36716
5.56058
7.06799
8.9867
11.3642
14.2833
17.8964
22.3114
27.6446
33.9958
41.4252
49.9799
59.6703
70.5466
82.6935
96.0542
108.004
108.597
100.586
89.2743
76.989
65.3927
55.1885
46.31
38.6129
32.0245
26.1971
20.9698
16.6459
13.1358
10.3891
8.32647
6.7602
5.38294
4.31119
3.68689
3.72455
6.9404
3.10707
3.98409
5.12646
6.60742
8.50966
10.9475
14.0048
17.7906
22.4258
28.0001
34.6053
42.2803
51.0056
60.7054
71.1873
82.1524
92.9488
102.692
108.842
108.231
100.843
87.8105
74.6341
62.6442
52.2292
43.3204
35.7947
29.5741
24.3201
19.6711
15.7793
12.6233
10.1961
8.45546
7.1653
5.65341
4.44343
3.78343
3.83791
7.13088
3.59588
4.66117
6.05722
7.87378
10.2181
13.2162
16.9731
21.5966
27.1884
33.7898
41.4113
49.9559
59.2132
68.84
78.4356
87.4491
95.323
102.013
106.848
108.111
100.399
85.4297
71.2744
58.8851
48.3838
39.616
32.4494
26.6375
21.8633
17.8703
14.5345
11.8356
9.84209
8.60774
7.76784
5.85705
4.52568
3.84779
3.92825
7.17081
4.16582
5.44255
7.11737
9.29251
12.0848
15.6225
20.0074
25.2992
31.5465
38.7033
46.6474
55.1551
63.9101
72.5491
80.7691
88.2634
95.0239
101.316
106.575
108.16
97.5542
81.1696
66.6725
54.2693
43.9877
35.6361
28.9504
23.6046
19.3111
15.9134
13.1446
10.8923
9.37158
8.6077
7.34892
5.83667
4.51531
3.86819
3.98877
7.17732
4.78754
6.28285
8.23793
10.7623
13.9597
17.9364
22.7565
28.4362
34.9364
42.1279
49.8056
57.7058
65.5434
73.083
80.2106
87.0059
93.7661
100.637
106.186
105.592
91.2112
74.9691
60.9451
49.1082
39.4019
31.6455
25.55
20.7159
16.8652
13.9064
11.5609
9.74068
8.48643
7.49138
6.38583
5.41904
4.38053
3.85247
4.02516
7.22663
5.42642
7.12997
9.33197
12.1342
15.629
19.8861
24.9248
30.7038
37.1137
43.9729
51.0543
58.1267
65.0078
71.6174
78.0377
84.506
91.2563
97.97
101.704
97.8207
82.8071
67.458
54.4848
43.6033
34.7419
27.737
22.3238
17.9822
14.6326
12.0856
10.1456
8.64629
7.49341
6.53542
5.69376
5.039
4.26121
3.84152
4.06412
7.35024
6.03434
7.90592
10.2954
13.2886
16.953
21.3202
26.3663
32.003
38.0802
44.4011
50.7597
56.9898
63.0087
68.8463
74.6369
80.5276
86.4358
91.0796
91.4127
84.8378
71.9236
58.752
47.5007
37.922
30.0894
23.8737
19.1075
15.4099
12.5965
10.4852
8.8857
7.64079
6.65251
5.83545
5.17908
4.7361
4.19842
3.8585
4.12637
7.56268
6.56224
8.55341
11.0597
14.1472
17.8549
22.1799
27.0633
32.388
37.9896
43.683
49.3021
54.7397
59.9717
65.0486
70.0224
74.8152
78.8105
80.3243
77.312
69.4157
58.7702
48.7908
39.6412
31.6792
25.1819
19.9942
16.0131
13.0026
10.7411
9.04686
7.76382
6.76478
5.96359
5.30415
4.79743
4.48153
4.15393
3.90389
4.21905
7.87103
6.9767
9.03291
11.5832
14.6725
18.3137
22.4759
27.0769
31.9865
37.0446
42.0896
46.9929
51.6833
56.1472
60.3851
64.312
67.5774
69.262
68.062
63.134
55.1751
46.2949
38.4904
31.4897
25.4034
20.3433
16.3069
13.2089
10.8767
9.12801
7.81628
6.8224
6.0499
5.42802
4.91643
4.5238
4.2929
4.12848
3.97991
4.35137
8.28498
7.25702
9.32406
11.8507
14.8622
18.3499
22.2632
26.5068
30.9496
35.4442
39.8537
44.0755
48.0504
51.7411
55.0722
57.8296
59.502
59.261
56.3086
50.7866
43.5212
36.15
29.7829
24.3994
19.8672
16.1359
13.1591
10.8668
9.13318
7.82893
6.84687
6.10042
5.51874
5.04718
4.65686
4.35058
4.16482
4.10816
4.08145
4.53099
8.84403
7.39559
9.42428
11.8697
14.7403
18.0118
21.6209
25.4679
29.4276
33.3681
37.1725
40.7524
44.0443
46.9757
49.405
51.0421
51.3951
49.8863
46.1864
40.7724
34.473
28.4067
23.2282
18.9958
15.5768
12.8492
10.7112
9.06643
7.81594
6.86899
6.1502
5.59861
5.16446
4.80799
4.51001
4.27095
4.12035
4.09871
4.20432
4.76015
9.63276
)
;

boundaryField
{
    leftWall
    {
        Cmu             0.09;
        kappa           0.41;
        E               9.8;
        type            epsilonWallFunction;
        value           nonuniform 0();
    }
    rightWall
    {
        Cmu             0.09;
        kappa           0.41;
        E               9.8;
        type            epsilonWallFunction;
        value           nonuniform List<scalar> 
43
(
1.32696
1.60809
2.23539
2.65211
2.97509
3.25916
3.50761
3.71664
3.88673
4.03893
4.20015
4.36233
4.51064
4.64642
4.74178
4.75555
4.68312
4.52215
4.27192
3.94176
3.5743
3.29398
3.21922
3.45361
4.19957
4.32884
3.75449
3.91239
4.41629
5.15514
5.90321
6.52368
6.9404
7.13088
7.17081
7.17732
7.22663
7.35024
7.56268
7.87103
8.28498
8.84403
9.63276
)
;
    }
    lowerWall
    {
        Cmu             0.09;
        kappa           0.41;
        E               9.8;
        type            epsilonWallFunction;
        value           nonuniform List<scalar> 
66
(
0.210768
0.113676
0.113676
0.195777
0.299488
0.407871
0.521363
0.645307
0.778136
0.946827
1.23902
2.02449
2.65946
2.25963
2.25853
2.74794
0.0749683
0.240778
0.435224
0.784939
1.32022
1.97184
2.22257
2.01052
1.55165
2.80932
0.0749683
0.0854139
0.368361
0.417326
0.693239
1.56236
3.59619
6.92743
10.8517
14.2052
16.2822
17.9933
19.162
19.8129
20.2342
20.5569
20.8627
21.1985
21.5741
21.9517
22.3303
22.7617
23.2525
23.8205
24.4797
25.2485
26.1983
27.1388
27.7954
27.7753
26.6533
24.3694
21.3406
18.0978
14.9889
12.1427
9.5146
6.91341
3.82197
1.32696
)
;
    }
    atmosphere
    {
        type            inletOutlet;
        inletValue      nonuniform 0();
        value           nonuniform 0();
    }
    defaultFaces
    {
        type            empty;
    }
    procBoundary1to0
    {
        type            processor;
        value           nonuniform List<scalar> 
44
(
0.278157
0.18193
0.197005
0.221031
0.247249
0.275194
0.304341
0.334702
0.364702
0.387693
0.390875
0.390123
0.391488
0.396323
0.404572
0.415804
0.429537
0.445484
0.463638
0.484363
0.566608
0.566608
0.594696
0.629866
0.674448
0.714268
0.726188
0.728735
0.727209
0.72743
0.734982
0.754055
0.787209
0.835769
0.900055
0.979386
1.07206
1.1754
1.28587
1.39922
1.51077
1.61569
1.7094
1.78792
)
;
    }
    procBoundary1to3
    {
        type            processor;
        value           nonuniform List<scalar> 
45
(
2.34604
2.97129
3.73846
4.69702
5.88009
7.39643
9.34558
11.6644
14.3486
17.3629
20.6381
24.0758
27.5599
30.9734
34.2139
37.1994
39.8556
42.0809
43.6968
44.4095
43.8358
41.6471
37.8362
32.9238
27.618
22.6648
18.4868
15.1389
12.5148
10.4889
8.94534
7.7744
6.88442
6.20628
5.68564
5.27993
4.95503
4.68356
4.45302
4.2655
4.14681
4.1462
4.33377
5.00652
10.3546
)
;
    }
}


// ************************************************************************* //
