/*--------------------------------*- C++ -*----------------------------------*\
| =========                 |                                                 |
| \\      /  F ield         | OpenFOAM: The Open Source CFD Toolbox           |
|  \\    /   O peration     | Version:  5.0                                   |
|   \\  /    A nd           | Web:      www.OpenFOAM.org                      |
|    \\/     M anipulation  |                                                 |
\*---------------------------------------------------------------------------*/
FoamFile
{
    version     2.0;
    format      ascii;
    class       volScalarField;
    location    "0.7";
    object      k;
}
// * * * * * * * * * * * * * * * * * * * * * * * * * * * * * * * * * * * * * //

dimensions      [0 2 -2 0 0 0 0];

internalField   nonuniform List<scalar> 
1915
(
0.0116592
0.00771818
0.0240427
0.0133648
0.0334894
0.0177438
0.042283
0.0217992
0.0503867
0.0256718
0.0578259
0.0295967
0.0652341
0.033542
0.0733187
0.0382554
0.0831128
0.0458244
0.0958382
0.063638
0.0145558
0.0166816
0.0169807
0.0185992
0.0268448
0.0474024
0.0828425
0.126565
0.167359
0.196091
0.21336
0.226997
0.235526
0.240339
0.243646
0.246349
0.249008
0.25189
0.254999
0.25799
0.260956
0.264307
0.268076
0.272402
0.277381
0.283153
0.290284
0.297086
0.301627
0.301035
0.292299
0.274895
0.251395
0.225188
0.198633
0.172665
0.146769
0.118577
0.0797388
0.0437937
0.0158797
0.0301311
0.04153
0.0588318
0.103834
0.182797
0.259402
0.29842
0.320541
0.357172
0.394629
0.42249
0.437733
0.446766
0.454255
0.461709
0.469802
0.478449
0.486757
0.494409
0.501245
0.507029
0.512047
0.51649
0.520205
0.522223
0.521087
0.520467
0.522672
0.523797
0.514875
0.490247
0.452225
0.406725
0.3586
0.310211
0.261217
0.208228
0.144554
0.0559371
0.0237229
0.0489848
0.0676298
0.100477
0.170561
0.267439
0.33851
0.364463
0.390006
0.433615
0.487377
0.53058
0.552572
0.566688
0.580661
0.595288
0.61029
0.625018
0.63911
0.652465
0.664947
0.675816
0.683313
0.685241
0.679654
0.664333
0.641831
0.622869
0.612197
0.605563
0.592303
0.564148
0.521284
0.46915
0.412951
0.35557
0.297488
0.236495
0.166653
0.0697183
0.0352605
0.0731261
0.108281
0.165951
0.249238
0.335629
0.383458
0.398829
0.430146
0.485588
0.555599
0.604888
0.632617
0.653848
0.674986
0.697274
0.719861
0.741767
0.762378
0.781377
0.798721
0.813878
0.824746
0.828389
0.820111
0.782558
0.723148
0.678727
0.651062
0.632863
0.613395
0.583559
0.54076
0.488698
0.431968
0.373375
0.313748
0.251523
0.180802
0.0783179
0.0499434
0.109768
0.189491
0.306848
0.39463
0.41835
0.418037
0.418347
0.450763
0.514651
0.598449
0.660986
0.694431
0.720678
0.748195
0.777918
0.808376
0.837574
0.863321
0.883685
0.89787
0.906011
0.90723
0.898256
0.873752
0.832501
0.773765
0.709363
0.664142
0.632563
0.605946
0.575526
0.535474
0.487219
0.434179
0.37867
0.321451
0.260986
0.190847
0.0846534
0.0652386
0.163539
0.329085
0.53235
0.647749
0.55334
0.460004
0.432746
0.45721
0.521014
0.605596
0.676588
0.721774
0.755705
0.788889
0.824163
0.859434
0.891225
0.915347
0.928174
0.927984
0.915741
0.893862
0.863696
0.825195
0.786128
0.752129
0.711112
0.659248
0.617718
0.585032
0.554875
0.518729
0.475845
0.428227
0.377546
0.324355
0.267042
0.198734
0.0900274
0.0702919
0.222624
0.366715
0.589908
0.804307
0.711957
0.515338
0.444734
0.453402
0.511376
0.590195
0.66269
0.712948
0.750546
0.786185
0.823412
0.859781
0.89096
0.91177
0.917967
0.908208
0.884946
0.85336
0.81831
0.781647
0.746532
0.72266
0.700606
0.644083
0.596066
0.560541
0.531548
0.499369
0.46184
0.419644
0.373839
0.324773
0.270854
0.204976
0.0945823
0.065761
0.172614
0.277969
0.495844
0.792397
0.778304
0.560083
0.450905
0.442599
0.490658
0.560439
0.628324
0.676038
0.711855
0.746057
0.782408
0.81805
0.848072
0.866962
0.870557
0.858169
0.833229
0.801956
0.77025
0.74093
0.71797
0.711212
0.69392
0.623045
0.572848
0.538631
0.51165
0.482951
0.449838
0.412107
0.370322
0.324622
0.273397
0.209398
0.0983104
0.0556282
0.14107
0.277636
0.531387
0.815063
0.745754
0.559309
0.449897
0.428319
0.465792
0.526011
0.583775
0.623452
0.653383
0.683137
0.716406
0.750393
0.7796
0.798683
0.803728
0.794335
0.774004
0.748722
0.723903
0.70207
0.688091
0.694773
0.673474
0.59887
0.553007
0.522939
0.498345
0.472337
0.44231
0.407704
0.36877
0.325426
0.275876
0.212718
0.101284
0.083398
0.178518
0.337926
0.649574
0.841568
0.673552
0.524615
0.444468
0.4166
0.443719
0.491842
0.536159
0.566198
0.588947
0.613062
0.641744
0.673198
0.701327
0.721563
0.730316
0.727019
0.714382
0.697188
0.679651
0.66367
0.654919
0.666921
0.635116
0.576378
0.54025
0.515243
0.492834
0.468475
0.440097
0.407203
0.369925
0.328019
0.27942
0.216274
0.103947
0.110328
0.0977076
0.123531
0.118344
0.135386
0.133382
0.146259
0.146074
0.156566
0.157814
0.166669
0.169286
0.176845
0.180825
0.187293
0.192578
0.198158
0.204586
0.209573
0.216869
0.22959
0.243226
0.258433
0.275699
0.295135
0.311923
0.321454
0.328178
0.333551
0.3394
0.347262
0.358039
0.372094
0.389419
0.409705
0.432386
0.456702
0.481773
0.506671
0.530478
0.552347
0.571544
0.587335
0.0640718
0.0575755
0.0576825
0.0661234
0.111891
0.110272
0.114549
0.13555
0.132293
0.133917
0.142573
0.173283
0.147179
0.151209
0.163987
0.204882
0.160699
0.167094
0.183666
0.227354
0.173986
0.182848
0.202435
0.2465
0.187355
0.198538
0.220312
0.263795
0.200835
0.213985
0.237282
0.279892
0.214341
0.229138
0.253994
0.296441
0.227725
0.243419
0.268297
0.310706
0.241057
0.256722
0.279417
0.314631
0.254828
0.270301
0.291092
0.32105
0.269924
0.285096
0.304824
0.331857
0.287012
0.301644
0.320408
0.344122
0.306458
0.320314
0.338078
0.359746
0.327587
0.341192
0.358016
0.378684
0.344589
0.363409
0.380488
0.400888
0.354521
0.380827
0.40433
0.426761
0.361865
0.391422
0.422956
0.453233
0.369084
0.40105
0.43601
0.473953
0.378329
0.412551
0.450883
0.493592
0.391049
0.427877
0.469806
0.517292
0.407885
0.448131
0.494411
0.547436
0.4289
0.473568
0.525317
0.585117
0.453709
0.503741
0.562036
0.629827
0.48155
0.53764
0.603236
0.679784
0.511387
0.573883
0.647078
0.732557
0.542029
0.610896
0.691517
0.785518
0.572237
0.647075
0.734522
0.836096
0.600809
0.680893
0.773877
0.88112
0.626648
0.710605
0.807509
0.918575
0.648541
0.735017
0.83424
0.947181
0.665826
0.753483
0.853418
0.966345
0.129257
0.243152
0.427762
0.730781
0.799225
0.615449
0.490953
0.441318
0.416242
0.430704
0.460702
0.490856
0.512249
0.529146
0.547822
0.571221
0.598941
0.624856
0.646071
0.659263
0.663226
0.659224
0.650255
0.639116
0.627723
0.623994
0.628772
0.59794
0.562131
0.536769
0.516148
0.495169
0.471219
0.443045
0.410467
0.373675
0.332355
0.284247
0.220867
0.10675
0.199405
0.328593
0.531773
0.721806
0.746186
0.575062
0.469946
0.440847
0.424669
0.419768
0.432691
0.452017
0.468141
0.481664
0.495454
0.513202
0.535433
0.557744
0.579498
0.597295
0.608747
0.613293
0.612142
0.607145
0.600716
0.601816
0.600546
0.580967
0.561319
0.543927
0.525957
0.505083
0.480108
0.450656
0.416991
0.379476
0.337818
0.289676
0.226222
0.109519
0.255566
0.409596
0.577519
0.714444
0.69219
0.539691
0.448521
0.428101
0.417231
0.399523
0.405914
0.42097
0.435805
0.447646
0.457556
0.469473
0.484952
0.503946
0.526921
0.549801
0.568679
0.581257
0.587485
0.589203
0.589211
0.594446
0.593467
0.585239
0.57501
0.561861
0.544392
0.521917
0.494353
0.46213
0.426002
0.386571
0.343611
0.294767
0.23109
0.112011
0.296974
0.445806
0.598288
0.687018
0.640327
0.507532
0.420222
0.398881
0.388873
0.375338
0.381748
0.396733
0.411969
0.422946
0.430108
0.435812
0.445742
0.464674
0.4912
0.520138
0.546342
0.566371
0.579616
0.588496
0.595854
0.603955
0.608351
0.608179
0.60241
0.59009
0.570817
0.544884
0.513105
0.476641
0.436741
0.394273
0.34911
0.298908
0.234718
0.11425
0.324021
0.458633
0.586642
0.644081
0.598815
0.484639
0.395911
0.366105
0.357539
0.351947
0.360689
0.376888
0.392459
0.402364
0.40509
0.406556
0.41781
0.441647
0.474422
0.510249
0.543593
0.570695
0.590986
0.60728
0.621514
0.63458
0.644163
0.647442
0.642256
0.62784
0.604449
0.573138
0.535504
0.493384
0.448504
0.402
0.353841
0.301696
0.236568
0.115817
0.335216
0.453643
0.557719
0.600736
0.565496
0.472351
0.38626
0.345375
0.334637
0.333453
0.343525
0.359288
0.373018
0.379106
0.378406
0.384235
0.404089
0.437
0.478062
0.5213
0.561595
0.595648
0.623276
0.646814
0.667748
0.685365
0.697668
0.701063
0.693354
0.674198
0.644436
0.605828
0.560712
0.511588
0.460641
0.409242
0.357437
0.302913
0.23671
0.116036
0.339673
0.438415
0.522537
0.557165
0.534056
0.464487
0.389416
0.344413
0.32714
0.324125
0.331508
0.342659
0.350728
0.35386
0.359238
0.376917
0.409095
0.452878
0.502918
0.553644
0.600753
0.641852
0.677271
0.70814
0.73423
0.754451
0.767034
0.767629
0.75461
0.728182
0.689831
0.642028
0.587861
0.530515
0.472592
0.415621
0.359665
0.302413
0.235034
0.11484
0.340787
0.418783
0.485205
0.512938
0.500229
0.453281
0.396227
0.357879
0.336134
0.326711
0.326683
0.330563
0.335435
0.343099
0.359643
0.39052
0.43519
0.489774
0.548932
0.6074
0.661535
0.709925
0.753477
0.791414
0.819122
0.840989
0.851168
0.846103
0.825
0.788757
0.739605
0.680741
0.616058
0.549486
0.483941
0.420956
0.360509
0.300238
0.231514
0.112172
0.343849
0.401022
0.450303
0.470041
0.463812
0.434726
0.397736
0.371066
0.351349
0.338313
0.332523
0.332709
0.33902
0.354221
0.382178
0.425248
0.481493
0.546741
0.615674
0.682884
0.744901
0.800845
0.85183
0.893135
0.923891
0.944699
0.949364
0.935576
0.903461
0.854796
0.792619
0.720847
0.644391
0.567965
0.494506
0.425354
0.360267
0.29675
0.226351
0.107967
0.354967
0.389113
0.421846
0.43237
0.428717
0.411703
0.390696
0.374648
0.360801
0.349831
0.344329
0.346275
0.358197
0.383396
0.423886
0.478545
0.546179
0.622745
0.702682
0.780284
0.852026
0.916154
0.971426
1.01507
1.04868
1.06524
1.06093
1.03502
0.988775
0.924984
0.847397
0.760985
0.672074
0.585707
0.504459
0.429307
0.359649
0.292745
0.220186
0.102314
0.362325
0.382914
0.403024
0.405738
0.402066
0.392005
0.38048
0.371468
0.363586
0.358089
0.358288
0.367749
0.390097
0.428059
0.481887
0.54912
0.628938
0.717915
0.809902
0.900062
0.983169
1.05329
1.11245
1.16249
1.19432
1.20229
1.18492
1.14314
1.07949
0.997548
0.902007
0.799965
0.698839
0.602957
0.514434
0.433753
0.359832
0.289553
0.214317
0.0959258
0.365864
0.387345
0.401025
0.397855
0.392303
0.384734
0.37726
0.372058
0.369179
0.370781
0.380319
0.401314
0.436919
0.488916
0.556872
0.638767
0.732115
0.834861
0.939916
1.04703
1.14185
1.21584
1.28493
1.33631
1.36067
1.35497
1.31996
1.25833
1.17362
1.07008
0.955029
0.838136
0.725466
0.620585
0.525283
0.439586
0.362062
0.289006
0.210725
0.0911692
0.375281
0.409644
0.415293
0.410101
0.40266
0.395031
0.389096
0.386471
0.388355
0.398029
0.418512
0.452183
0.501438
0.567956
0.65137
0.749578
0.860639
0.979603
1.10037
1.22355
1.32675
1.41443
1.48963
1.53601
1.54669
1.52167
1.46417
1.37842
1.26838
1.14093
1.00773
0.876775
0.753045
0.639751
0.538164
0.447914
0.367603
0.293072
0.212162
0.0902123
0.377789
0.426191
0.439807
0.434603
0.427681
0.4205
0.417266
0.418393
0.426115
0.444924
0.476839
0.52303
0.58589
0.667905
0.769081
0.886178
1.01671
1.15675
1.29978
1.42958
1.54575
1.65014
1.72572
1.7601
1.75036
1.70008
1.61509
1.50038
1.36166
1.21204
1.06177
0.9173
0.783153
0.662024
0.554512
0.459858
0.37704
0.303074
0.220827
0.0950442
0.38717
0.423496
0.459205
0.469997
0.46687
0.458227
0.459785
0.466975
0.48286
0.512297
0.556138
0.615248
0.692736
0.79185
0.91328
1.05268
1.20459
1.3638
1.5224
1.67167
1.81123
1.92359
1.99153
2.00604
1.96861
1.88708
1.76934
1.6213
1.45562
1.28544
1.11878
0.961454
0.817571
0.689062
0.575809
0.476436
0.389413
0.3141
0.233795
0.108605
0.403448
0.432883
0.463655
0.490484
0.50069
0.507115
0.519228
0.53521
0.559815
0.599814
0.655615
0.729017
0.823813
0.942265
1.08448
1.24718
1.42084
1.60301
1.78881
1.96733
2.12149
2.23269
2.28401
2.2699
2.19726
2.07852
1.92312
1.74247
1.55233
1.36254
1.18018
1.01073
0.857592
0.721939
0.60292
0.498308
0.405101
0.319861
0.243139
0.108839
0.425365
0.453224
0.481501
0.507418
0.529375
0.553249
0.575868
0.605384
0.646197
0.700897
0.771109
0.861049
0.974785
1.11426
1.2805
1.47058
1.67629
1.89403
2.11226
2.31302
2.47316
2.57371
2.59843
2.5462
2.43059
2.26905
2.0753
1.86561
1.65237
1.44381
1.24656
1.0655
0.903337
0.760552
0.635635
0.525585
0.426306
0.332256
0.234444
0.099843
0.452467
0.481891
0.512823
0.543313
0.573344
0.605744
0.642001
0.686973
0.745676
0.817686
0.907378
1.01978
1.15869
1.32669
1.52378
1.74663
1.98865
2.24075
2.48685
2.70339
2.86154
2.94118
2.92832
2.82705
2.66038
2.454
2.22577
1.98949
1.75447
1.52819
1.31675
1.12444
0.953395
0.803492
0.672659
0.557295
0.452708
0.352416
0.244778
0.103157
0.485514
0.517988
0.554546
0.59353
0.634255
0.679014
0.730506
0.792557
0.869131
0.963343
1.07899
1.22015
1.38991
1.58989
1.81962
2.07596
2.35204
2.63547
2.90533
3.1319
3.28104
3.32837
3.26415
3.09919
2.87608
2.62868
2.3707
2.11008
1.85482
1.61196
1.3872
1.18432
1.00491
0.848313
0.711891
0.591493
0.482229
0.377463
0.264813
0.111987
0.516093
0.561387
0.605977
0.656325
0.709809
0.770394
0.840655
0.923902
1.02408
1.14503
1.29042
1.46342
1.66607
1.89904
2.16141
2.44993
2.75736
3.06923
3.35989
3.5918
3.7234
3.72526
3.58619
3.34033
3.06475
2.78433
2.50149
2.21941
1.94585
1.68819
1.45193
1.24021
1.05401
0.892109
0.751054
0.625923
0.512127
0.403376
0.287004
0.124032
0.543072
0.601087
0.66338
0.732846
0.800063
0.879882
0.972597
1.08077
1.20884
1.36051
1.53877
1.74573
1.98228
2.24802
2.54138
2.85911
3.19442
3.53264
3.84351
4.0762
4.17271
4.09506
3.84006
3.52107
3.20697
2.90483
2.60492
2.30516
2.01512
1.74615
1.5021
1.28516
1.09558
0.931441
0.787985
0.658852
0.540185
0.427076
0.307043
0.135456
0.573663
0.640558
0.716874
0.805022
0.900197
1.00792
1.12752
1.26317
1.42247
1.60795
1.82125
2.06324
2.3335
2.63043
2.95154
3.29378
3.65222
4.01503
4.34646
4.56019
4.51528
4.29381
3.96008
3.6077
3.27219
2.95428
2.64543
2.34224
2.04574
1.77312
1.52856
1.31255
1.12513
0.963862
0.821776
0.688881
0.564168
0.446511
0.323228
0.144447
0.611424
0.688939
0.778714
0.882687
1.00109
1.1376
1.29137
1.46426
1.66146
1.88449
2.1347
2.41208
2.71467
3.03998
3.38401
3.74366
4.11636
4.49597
4.81571
4.84315
4.64121
4.33237
3.97132
3.6022
3.24881
2.91437
2.59957
2.3071
2.02887
1.76278
1.52616
1.31856
1.14033
0.98911
0.85445
0.716804
0.583413
0.459949
0.333757
0.150204
0.658068
0.747723
0.852526
0.974682
1.11604
1.27982
1.4662
1.67689
1.9137
2.17657
2.46538
2.77772
3.10926
3.45437
3.80433
4.14815
4.46739
4.74086
4.90831
4.89438
4.69373
4.32684
3.92833
3.5361
3.16613
2.82212
2.506
2.22118
1.96093
1.71529
1.49538
1.30346
1.14183
1.00967
0.892034
0.743218
0.597039
0.467689
0.338389
0.152707
0.713089
0.816238
0.937406
1.07903
1.24365
1.43397
1.65046
1.89372
2.16382
2.45823
2.77376
3.10405
3.44012
3.77028
4.08284
4.36293
4.5967
4.78491
4.91184
4.93258
4.70876
4.27745
3.83899
3.42323
3.04013
2.69182
2.38094
2.10566
1.86023
1.63963
1.44258
1.2712
1.13222
1.03034
0.940457
0.761973
0.604536
0.470756
0.339269
0.153189
0.774091
0.891307
1.02908
1.18985
1.37591
1.58928
1.82987
2.09581
2.38514
2.6926
3.01134
3.33228
3.64485
3.9385
4.20557
4.43843
4.63761
4.81038
4.9403
4.95578
4.64531
4.16109
3.69849
3.26933
2.88202
2.53869
2.23821
1.97566
1.7462
1.54961
1.37722
1.22594
1.11158
1.03582
0.913974
0.762176
0.603486
0.469826
0.338565
0.153289
0.837844
0.968588
1.12179
1.29969
1.50332
1.7334
1.98831
2.26476
2.55801
2.86088
3.1649
3.46095
3.74047
3.99727
4.22906
4.43865
4.6339
4.817
4.94627
4.89497
4.47506
3.97622
3.51065
3.08474
2.70489
2.37372
2.08899
1.8422
1.62789
1.44822
1.29332
1.16182
1.05819
0.961732
0.84787
0.731671
0.592225
0.466686
0.338432
0.154048
0.901037
1.04377
1.20946
1.39966
1.6148
1.85391
2.11394
2.38993
2.67536
2.96222
3.24227
3.5082
3.75502
3.98115
4.18959
4.38695
4.57847
4.75269
4.82804
4.68484
4.23219
3.738
3.28662
2.87682
2.51437
2.20208
1.938
1.70693
1.51171
1.34899
1.21271
1.09582
0.993552
0.896134
0.798505
0.703247
0.582201
0.46486
0.340105
0.155877
0.959864
1.11154
1.2859
1.4836
1.70398
1.94478
2.2017
2.46872
2.73857
3.0035
3.25658
3.49292
3.71072
3.9115
4.09941
4.27806
4.44355
4.55791
4.53794
4.31475
3.89884
3.44812
3.03282
2.65174
2.31441
2.02325
1.7789
1.57153
1.39859
1.25553
1.1353
1.0305
0.935799
0.845904
0.760119
0.680113
0.57678
0.465957
0.344116
0.158953
1.01085
1.16838
1.34744
1.5478
1.7678
2.00412
2.25169
2.50403
2.75398
2.99473
3.22097
3.42988
3.6214
3.79753
3.95969
4.10484
4.21373
4.23727
4.11809
3.84226
3.46859
3.0969
2.73355
2.39416
2.0948
1.8355
1.61828
1.43821
1.28948
1.16612
1.06173
0.969945
0.885792
0.805664
0.730171
0.660079
0.573269
0.469852
0.350717
0.16333
1.05183
1.21203
1.39201
1.59071
1.80568
2.03289
2.26687
2.50121
2.72937
2.94567
3.14622
3.32939
3.49534
3.64435
3.77354
3.87152
3.90978
3.849
3.66214
3.36603
3.02499
2.7056
2.40156
2.11932
1.86646
1.64784
1.465
1.31408
1.18929
1.08517
0.996395
0.917787
0.844891
0.774794
0.707603
0.644491
0.571952
0.476281
0.359621
0.169094
1.08154
1.24142
1.41896
1.61244
1.81882
2.03368
2.25151
2.46627
2.67221
2.86469
3.04078
3.19917
3.33913
3.45835
3.54968
3.59637
3.57175
3.44963
3.2304
2.93869
2.62934
2.34449
2.0878
1.85699
1.65283
1.47669
1.32895
1.2063
1.10413
1.01802
0.943769
0.877199
0.814446
0.753103
0.692529
0.633383
0.570727
0.484639
0.37066
0.176755
1.09956
1.25649
1.42879
1.61428
1.80953
2.01001
2.21037
2.4051
2.58924
2.75895
2.91175
3.0461
3.15992
3.24851
3.30191
3.30333
3.23283
3.07721
2.84876
2.57534
2.29836
2.04629
1.82604
1.63549
1.47206
1.3335
1.21726
1.11992
1.03783
0.967512
0.90567
0.849056
0.794474
0.740078
0.684875
0.628925
0.569968
0.494781
0.38438
0.187197
)
;

boundaryField
{
    leftWall
    {
        type            kqRWallFunction;
        value           nonuniform 0();
    }
    rightWall
    {
        type            kqRWallFunction;
        value           nonuniform List<scalar> 
43
(
0.0437937
0.0559371
0.0697183
0.0783179
0.0846534
0.0900274
0.0945823
0.0983104
0.101284
0.103947
0.10675
0.109519
0.112011
0.11425
0.115817
0.116036
0.11484
0.112172
0.107967
0.102314
0.0959258
0.0911692
0.0902123
0.0950442
0.108605
0.108839
0.099843
0.103157
0.111987
0.124032
0.135456
0.144447
0.150204
0.152707
0.153189
0.153289
0.154048
0.155877
0.158953
0.16333
0.169094
0.176755
0.187197
)
;
    }
    lowerWall
    {
        type            kqRWallFunction;
        value           nonuniform List<scalar> 
66
(
0.0116592
0.00771818
0.00771818
0.0133648
0.0177438
0.0217992
0.0256718
0.0295967
0.033542
0.0382554
0.0458244
0.063638
0.0640718
0.0575755
0.0576825
0.0661234
0.0145558
0.0158797
0.0237229
0.0352605
0.0499434
0.0652386
0.0702919
0.065761
0.0556282
0.083398
0.0145558
0.0166816
0.0169807
0.0185992
0.0268448
0.0474024
0.0828425
0.126565
0.167359
0.196091
0.21336
0.226997
0.235526
0.240339
0.243646
0.246349
0.249008
0.25189
0.254999
0.25799
0.260956
0.264307
0.268076
0.272402
0.277381
0.283153
0.290284
0.297086
0.301627
0.301035
0.292299
0.274895
0.251395
0.225188
0.198633
0.172665
0.146769
0.118577
0.0797388
0.0437937
)
;
    }
    atmosphere
    {
        type            inletOutlet;
        inletValue      nonuniform 0();
        value           nonuniform 0();
    }
    defaultFaces
    {
        type            empty;
    }
    procBoundary1to0
    {
        type            processor;
        value           nonuniform List<scalar> 
44
(
0.0140352
0.0305673
0.0419092
0.0518127
0.0609018
0.069474
0.0779332
0.0866721
0.0960673
0.106262
0.116851
0.127283
0.137286
0.146843
0.156078
0.165191
0.174399
0.183914
0.193939
0.204676
0.221769
0.221769
0.235161
0.250199
0.267158
0.28275
0.291853
0.298361
0.303194
0.307567
0.312741
0.319669
0.328898
0.34065
0.354898
0.371404
0.389754
0.409401
0.429708
0.449999
0.469594
0.487852
0.504204
0.518184
)
;
    }
    procBoundary1to3
    {
        type            processor;
        value           nonuniform List<scalar> 
45
(
0.599337
0.678212
0.765754
0.864888
0.976085
1.1062
1.25798
1.42286
1.59833
1.7808
1.96577
2.14823
2.32324
2.48648
2.63465
2.76545
2.87681
2.96544
3.02513
3.04534
3.01223
2.91304
2.7447
2.52329
2.27501
2.03048
1.81064
1.62206
1.46343
1.33146
1.22242
1.13182
1.05544
0.989975
0.932592
0.880724
0.831891
0.783591
0.734349
0.683275
0.630066
0.573181
0.504186
0.398639
0.196008
)
;
    }
}


// ************************************************************************* //
