/*--------------------------------*- C++ -*----------------------------------*\
| =========                 |                                                 |
| \\      /  F ield         | OpenFOAM: The Open Source CFD Toolbox           |
|  \\    /   O peration     | Version:  5.0                                   |
|   \\  /    A nd           | Web:      www.OpenFOAM.org                      |
|    \\/     M anipulation  |                                                 |
\*---------------------------------------------------------------------------*/
FoamFile
{
    version     2.0;
    format      ascii;
    class       volScalarField;
    location    "0.7";
    object      nut;
}
// * * * * * * * * * * * * * * * * * * * * * * * * * * * * * * * * * * * * * //

dimensions      [0 2 -1 0 0 0 0];

internalField   nonuniform List<scalar> 
1915
(
5.8046e-05
4.7163e-05
0.000297953
8.21119e-05
0.000474804
9.46145e-05
0.000635579
0.000104858
0.000775827
0.000113767
0.000885892
0.00012217
0.00098624
0.000130126
0.00108864
0.00013911
0.00121379
0.000152531
0.00143116
0.000180036
0.000254354
0.000293217
7.04499e-05
7.46028e-05
9.35578e-05
0.000129438
0.000171754
0.000208111
0.000232296
0.00024362
0.000251627
0.000257734
0.000260542
0.000262388
0.000264043
0.000265698
0.000267484
0.000269376
0.00027126
0.000272885
0.000274463
0.000276219
0.000278156
0.000280357
0.000282871
0.00028579
0.000289478
0.000292696
0.000294585
0.000293642
0.000288501
0.000279082
0.000266531
0.000252178
0.000236906
0.000220973
0.00020376
0.000183042
0.000149725
0.000130079
9.42559e-05
0.000339405
0.000410078
0.000383168
0.000426063
0.000566491
0.000705625
0.000784327
0.000872757
0.00107293
0.00136758
0.0015645
0.00164875
0.00168865
0.00172222
0.00175807
0.001798
0.00183863
0.00187072
0.00189333
0.00190636
0.00190839
0.00190642
0.00190829
0.00192108
0.00194456
0.00196024
0.00199339
0.00205193
0.0021112
0.00213397
0.0021012
0.00201855
0.00189889
0.00174993
0.00157085
0.0013514
0.00107094
0.000698422
0.000175119
0.000116376
0.000555705
0.000648538
0.00062296
0.000696616
0.000876027
0.00104319
0.00118055
0.00141406
0.00180226
0.00227838
0.00261848
0.00279886
0.0029079
0.00299954
0.00308709
0.0031703
0.00324477
0.00330925
0.00336482
0.00341333
0.00345462
0.00348624
0.00350528
0.00350958
0.00349266
0.00346789
0.00348402
0.00355098
0.00363001
0.00366157
0.00360956
0.00347199
0.00326017
0.00297899
0.00262076
0.00216746
0.00159997
0.00092141
0.000195697
0.000142555
0.000757297
0.000944988
0.000997594
0.00103129
0.00115236
0.00130081
0.0014885
0.001829
0.00233348
0.00290501
0.00330857
0.00355379
0.00371897
0.00385395
0.00397814
0.00409239
0.00419436
0.00428354
0.0043608
0.00442835
0.00448717
0.00453455
0.00456763
0.00458197
0.00454389
0.00447773
0.00446852
0.00452514
0.00460594
0.00464507
0.00459478
0.00443949
0.00418298
0.00382393
0.00334771
0.00273093
0.00196057
0.0010762
0.000208148
0.000170041
0.00097563
0.00139058
0.00165817
0.00159111
0.00146848
0.00152036
0.00172473
0.00211775
0.00267008
0.00327704
0.00373624
0.00402558
0.00423187
0.00440385
0.0045608
0.00470588
0.00483662
0.00494942
0.00504175
0.00511433
0.00516969
0.00520773
0.00522465
0.00521591
0.00518922
0.00515425
0.00512846
0.00517029
0.00524989
0.00530099
0.00526673
0.00511604
0.0048445
0.00444495
0.00389805
0.00317686
0.00226799
0.0012204
0.000216787
0.000194258
0.001187
0.00190691
0.00239935
0.00238054
0.00189753
0.00173688
0.00190699
0.00230057
0.00285045
0.00344783
0.00393635
0.00427539
0.00452318
0.00472975
0.00491915
0.00509461
0.00525165
0.00538259
0.00548146
0.00554753
0.00558578
0.00560275
0.00560182
0.00558506
0.00557563
0.00559106
0.00560147
0.00562574
0.00570378
0.00576674
0.00575108
0.0056125
0.0053395
0.00492028
0.00433263
0.00354671
0.00254322
0.00136168
0.000223813
0.000200077
0.00128671
0.00199883
0.00263004
0.00288723
0.00237126
0.00195947
0.0020437
0.00239974
0.0029195
0.00348683
0.00398362
0.00435454
0.00463536
0.00487181
0.00508923
0.00529101
0.0054708
0.00561815
0.00572521
0.00579245
0.00582955
0.00585059
0.0058662
0.00587951
0.00589878
0.0059461
0.00598634
0.00598288
0.00605535
0.00612446
0.00611808
0.00598682
0.00571453
0.00528559
0.00467523
0.00384986
0.0027814
0.00149308
0.000229536
0.000193585
0.00103428
0.00180194
0.00253544
0.00300043
0.00263158
0.00213523
0.00213128
0.00243584
0.00290874
0.00343647
0.00392236
0.00430265
0.00460193
0.00485961
0.00509938
0.00532449
0.00552779
0.00569725
0.00582404
0.00590969
0.00596696
0.006014
0.00606442
0.00612179
0.00619319
0.00629761
0.00634102
0.00629662
0.00635733
0.00641907
0.00640429
0.00626884
0.00599403
0.00556046
0.00493945
0.00409125
0.00297576
0.00159951
0.00023404
0.000179489
0.000938177
0.00186947
0.00271717
0.00316035
0.00265914
0.00219502
0.00217241
0.00242804
0.00285176
0.00333746
0.00379186
0.0041591
0.00446014
0.00472825
0.00498372
0.00523067
0.00546197
0.00566483
0.00582859
0.00595343
0.00605161
0.00614143
0.00623665
0.00634088
0.00646181
0.0066216
0.00665175
0.00659364
0.00663504
0.00666846
0.00662675
0.00647603
0.0061955
0.00576133
0.00513925
0.00428068
0.00312906
0.00167236
0.000237544
0.00022282
0.00120386
0.00214986
0.00303451
0.00329034
0.00257681
0.00216563
0.00218507
0.00240657
0.00278405
0.00321924
0.00362525
0.00396333
0.00425079
0.00451695
0.00477985
0.0050473
0.00531266
0.00556261
0.00578234
0.0059669
0.00612352
0.00626676
0.00640891
0.00655497
0.00671506
0.00689869
0.0069025
0.00687076
0.00688466
0.0068739
0.00679521
0.00662382
0.00633682
0.00590578
0.00529035
0.00443237
0.00325725
0.00172904
0.000240767
0.00215063
0.00100203
0.00294038
0.00206555
0.00368227
0.00301296
0.00433338
0.00376321
0.00489611
0.00435108
0.00539374
0.00483691
0.00585721
0.00527795
0.0063141
0.00571703
0.00678516
0.00618265
0.00728301
0.00669141
0.00724872
0.00785025
0.00848562
0.009137
0.00977943
0.0103637
0.0108596
0.0112911
0.0116503
0.0119392
0.0121643
0.012333
0.0124564
0.0125502
0.0126316
0.0127152
0.0128098
0.0129192
0.0130432
0.0131792
0.0133238
0.0134736
0.0136268
0.000138925
0.000132033
0.000132588
0.000143201
0.00128401
0.00118924
0.00117657
0.00126536
0.00245232
0.00220494
0.00204911
0.00200651
0.00326186
0.00288598
0.00256641
0.00239273
0.00382572
0.00334309
0.00290777
0.00267005
0.00426377
0.00370584
0.00321382
0.00294355
0.00466183
0.00405798
0.00353964
0.00324899
0.00507317
0.00444514
0.00391402
0.00360821
0.00552802
0.00488831
0.00434519
0.00402187
0.00604536
0.00540804
0.00484308
0.00448926
0.00663067
0.00600857
0.00543322
0.00501518
0.0072733
0.00668258
0.00611189
0.005649
0.00796527
0.00742288
0.00688052
0.0064041
0.00868807
0.00821039
0.00772051
0.00726103
0.00941245
0.0090109
0.00859132
0.00818451
0.0100992
0.00978128
0.00944056
0.00910726
0.0106932
0.0104774
0.0102181
0.0099612
0.0111787
0.0110502
0.0108841
0.0106984
0.0115796
0.0114949
0.0114023
0.0112891
0.0118912
0.0118372
0.0117775
0.0117152
0.0121248
0.0120852
0.0120457
0.01201
0.0122941
0.0122599
0.0122317
0.0122128
0.0124153
0.012384
0.0123644
0.0123606
0.0125088
0.012483
0.0124756
0.0124912
0.0125956
0.0125817
0.0125933
0.0126359
0.0126918
0.0126972
0.012735
0.012811
0.0128058
0.0128364
0.0129051
0.0130174
0.0129392
0.0129981
0.0130989
0.0132466
0.0130892
0.0131765
0.0133073
0.0134867
0.0132509
0.0133644
0.0135236
0.0137313
0.0134194
0.0135583
0.0137412
0.0139702
0.0135923
0.0137517
0.0139521
0.0141949
0.0137647
0.0139391
0.0141506
0.0144
0.0007898
0.00176973
0.00254458
0.00326005
0.00325499
0.00251799
0.00213714
0.00220071
0.0024106
0.0027375
0.00310415
0.00345148
0.00375043
0.00401255
0.00426322
0.00452377
0.00481003
0.00511667
0.00542901
0.00572417
0.00598715
0.00621569
0.00641771
0.00660333
0.00678145
0.00696858
0.00712184
0.00712918
0.00711698
0.00709476
0.00703702
0.00692208
0.00673035
0.00643756
0.00601178
0.00540766
0.00455919
0.00337743
0.00180087
0.000244183
0.00173537
0.00233052
0.00294092
0.00333548
0.00318827
0.00249865
0.00214652
0.00223258
0.00244646
0.00270594
0.00300151
0.00329259
0.00355129
0.00378142
0.00400468
0.00425405
0.00455777
0.0049145
0.0053052
0.00569357
0.00604896
0.00635637
0.00661666
0.00683911
0.00703625
0.00722643
0.00734171
0.00735228
0.0073253
0.0072658
0.00716906
0.00702428
0.00681448
0.00651547
0.00609389
0.00550145
0.00466679
0.00349094
0.00188788
0.000247457
0.00225176
0.00273538
0.00319423
0.00340068
0.00312395
0.00249301
0.00216171
0.00224118
0.00244752
0.0026519
0.00290373
0.00315562
0.00338249
0.00358141
0.00377546
0.0040137
0.00433917
0.00475777
0.00524082
0.00573254
0.00618261
0.00656345
0.00687151
0.00711771
0.00731579
0.00748005
0.00755656
0.00755248
0.00750165
0.00741351
0.0072886
0.00711982
0.00689245
0.00658402
0.00616188
0.00557688
0.0047544
0.00358775
0.00196957
0.000250337
0.00255529
0.00297984
0.00335283
0.00342142
0.00307631
0.00250328
0.00216514
0.0022078
0.00238962
0.00258399
0.00281291
0.00304047
0.00324423
0.00342019
0.00359585
0.00383862
0.00420301
0.00470091
0.00528549
0.00587688
0.00640678
0.00684038
0.00717431
0.00742313
0.00760211
0.0077191
0.0077612
0.00773993
0.00767116
0.00756297
0.007416
0.0072246
0.00697673
0.00665278
0.00622235
0.00563715
0.00482082
0.00366018
0.00203062
0.000252837
0.0027912
0.00314447
0.00342755
0.00341117
0.00307173
0.00255525
0.00219374
0.00217087
0.00232477
0.00251838
0.0027337
0.0029458
0.00313487
0.00330141
0.00348152
0.00375958
0.00419608
0.00479228
0.00547556
0.00614457
0.00672282
0.00717749
0.00751023
0.00774044
0.00788637
0.00796386
0.00798016
0.0079435
0.00786082
0.0077353
0.00756627
0.00734937
0.00707539
0.00672814
0.00628033
0.00568583
0.00486809
0.00370807
0.00206418
0.000254591
0.00299943
0.00325893
0.0034591
0.00340927
0.00310763
0.00265931
0.0022901
0.00219269
0.00230012
0.00247717
0.00267768
0.00287617
0.00305652
0.00322635
0.00344114
0.00379964
0.00435286
0.00506529
0.00583156
0.00654027
0.00712465
0.00756547
0.00787291
0.00807088
0.00818517
0.00823502
0.00823334
0.00818431
0.00808762
0.00794249
0.00774743
0.0074996
0.00719258
0.00681357
0.00633876
0.00572516
0.00489794
0.00373527
0.00208301
0.000254815
0.0032141
0.00335906
0.00348255
0.0034173
0.00316532
0.00279824
0.00245487
0.00231225
0.00235682
0.00249208
0.00266417
0.00284259
0.00301781
0.00321791
0.00352296
0.00402004
0.00471925
0.00553683
0.00634417
0.00704275
0.00759203
0.00799246
0.00826231
0.00842687
0.00851628
0.00854648
0.00853307
0.00847197
0.0083581
0.00818844
0.00796165
0.00767659
0.00732946
0.00691053
0.00639936
0.00575668
0.00491133
0.00374256
0.00208876
0.000253451
0.00347031
0.0034807
0.00351933
0.00343663
0.00323087
0.00294671
0.00265981
0.00251713
0.00251197
0.00259309
0.00272422
0.0028838
0.00308173
0.00336662
0.00381398
0.00447881
0.00531031
0.00618195
0.00697146
0.00761454
0.0081012
0.00844933
0.00868195
0.00882006
0.00888468
0.00890563
0.0088834
0.00880796
0.00867191
0.00847176
0.00820724
0.00787893
0.00748536
0.0070195
0.00646367
0.0057823
0.00490964
0.00373039
0.00208146
0.000250416
0.00380526
0.00366996
0.00360245
0.00348408
0.00330835
0.00309347
0.00287847
0.00276241
0.00274145
0.00279089
0.00289996
0.00307202
0.00333788
0.00375658
0.0043772
0.00518956
0.00608648
0.00693635
0.00765552
0.00821796
0.00863424
0.0089312
0.00913106
0.00924584
0.00929926
0.00931609
0.00928385
0.00918933
0.00902484
0.00878803
0.00848018
0.00810341
0.00765852
0.00714067
0.00653362
0.005805
0.00489568
0.00370029
0.00206142
0.000245586
0.0042529
0.00397303
0.00377816
0.00359987
0.00343171
0.00326514
0.00311333
0.00302934
0.00302003
0.00307751
0.00321111
0.00344827
0.0038373
0.00442804
0.0052133
0.0060903
0.00695649
0.00771964
0.0083432
0.00882548
0.00918278
0.0094395
0.00960719
0.00970529
0.0097636
0.00977774
0.00973088
0.00961044
0.00941052
0.00913095
0.00877446
0.00834512
0.00784655
0.00727427
0.00661191
0.00582936
0.00487447
0.00365567
0.00202991
0.000239012
0.0047819
0.00441337
0.0041056
0.00385724
0.00367482
0.00353448
0.00342343
0.00336761
0.00338669
0.00349048
0.0037038
0.00406667
0.00461924
0.00536114
0.00621545
0.00705662
0.00781878
0.00846951
0.00900243
0.00942464
0.00974286
0.00996509
0.0101121
0.0102181
0.0102828
0.0102885
0.0102188
0.0100639
0.00982117
0.00949246
0.00908227
0.0085987
0.00804703
0.00742059
0.0067019
0.00586181
0.00485423
0.00360293
0.00198878
0.000231698
0.00537751
0.00501178
0.0046607
0.00435596
0.00414478
0.0040096
0.00391997
0.00389203
0.00395629
0.00414032
0.00447417
0.00498151
0.0056567
0.00644182
0.00724135
0.00797441
0.00861224
0.00916482
0.00963199
0.0100281
0.010323
0.0105207
0.0106757
0.0107944
0.010857
0.0108431
0.0107396
0.010541
0.0102476
0.00986294
0.00939656
0.00886134
0.00825962
0.00758201
0.00680831
0.00590862
0.00484322
0.00355246
0.00193843
0.0002271
0.00609704
0.00581197
0.00545988
0.00513868
0.00491209
0.0047759
0.00470732
0.004718
0.00484218
0.00511541
0.00555032
0.00612874
0.00680339
0.00750768
0.00817979
0.00878703
0.00933255
0.00982499
0.0102603
0.0106479
0.0109321
0.011137
0.0113114
0.0114342
0.0114802
0.0114329
0.0112839
0.011032
0.0106794
0.0102346
0.00971464
0.0091316
0.0084851
0.00776238
0.00693853
0.005981
0.00485634
0.00352349
0.0018997
0.000227522
0.00689065
0.0066842
0.00641635
0.00613167
0.00593686
0.00581801
0.00578845
0.00584677
0.00602167
0.00634125
0.00678832
0.00731841
0.00788587
0.00845548
0.00900443
0.00952157
0.0100147
0.0104862
0.0109242
0.011297
0.0115874
0.0118292
0.0120181
0.0121288
0.0121419
0.0120469
0.0118411
0.0115262
0.011108
0.0106043
0.0100346
0.009409
0.00872523
0.0079664
0.00710113
0.00609143
0.00490849
0.00353852
0.00190361
0.000235408
0.00781767
0.00754579
0.00739851
0.00725358
0.00712358
0.0070271
0.00703927
0.00712713
0.00730917
0.0076003
0.00797064
0.00838516
0.00882374
0.00928024
0.00975219
0.01023
0.0107079
0.011177
0.0116156
0.0120019
0.0123329
0.0126012
0.0127853
0.0128649
0.0128287
0.0126733
0.0124002
0.0120142
0.0115299
0.0109707
0.0103553
0.00969369
0.00898196
0.0081984
0.00730414
0.00625195
0.00500528
0.00357302
0.00191783
0.000252778
0.00879426
0.00852925
0.00836557
0.00830849
0.00826438
0.0082475
0.00828941
0.0083683
0.00850056
0.00870961
0.00897426
0.00928278
0.00963481
0.0100328
0.0104738
0.010948
0.0114313
0.0119141
0.0123805
0.0128082
0.0131699
0.0134399
0.0135959
0.0136256
0.0135262
0.0132995
0.0129508
0.0124914
0.0119436
0.011332
0.010676
0.00998591
0.00925607
0.00845996
0.00755089
0.00646946
0.0051579
0.00358706
0.00188818
0.000246287
0.0097203
0.00950678
0.00936029
0.00928709
0.00926787
0.00928862
0.0093166
0.00937248
0.00946715
0.00961059
0.00980096
0.0100484
0.0103628
0.0107471
0.0111985
0.0117006
0.0122228
0.0127497
0.0132569
0.0137125
0.0140782
0.014323
0.0144292
0.0143936
0.0142196
0.0139134
0.0134857
0.0129547
0.0123463
0.0116864
0.0109957
0.0102848
0.00954599
0.0087484
0.00783778
0.00674303
0.00538774
0.00371511
0.00180255
0.000238961
0.0105241
0.0103642
0.0102495
0.0101818
0.010147
0.0101366
0.0101408
0.0101694
0.0102402
0.0103515
0.0105215
0.0107671
0.011099
0.0115183
0.0120138
0.0125615
0.0131316
0.0136981
0.0142292
0.0146868
0.0150292
0.0152253
0.0152644
0.0151511
0.0148936
0.0145042
0.0139984
0.0133991
0.0127342
0.0120313
0.0113123
0.0105874
0.00984717
0.00905658
0.00815453
0.00706031
0.00568389
0.00395012
0.00191322
0.000244794
0.0111775
0.0110553
0.0109627
0.0109036
0.0108632
0.0108377
0.0108285
0.0108485
0.0109163
0.0110449
0.0112492
0.0115422
0.011929
0.0124038
0.0129492
0.0135393
0.0141433
0.0147295
0.0152613
0.0156974
0.0159946
0.016124
0.0160819
0.0158787
0.0155322
0.0150606
0.0144806
0.0138178
0.0131014
0.0123612
0.01162
0.0108874
0.0101519
0.00937406
0.00848621
0.00740026
0.00601669
0.00424353
0.00210295
0.000255575
0.0116539
0.0115869
0.0115112
0.0114686
0.0114362
0.0114217
0.0114324
0.0114834
0.0115933
0.0117774
0.0120477
0.0124104
0.012863
0.0133934
0.0139813
0.0145998
0.0152184
0.0158033
0.0163163
0.0167139
0.0169519
0.0169989
0.016858
0.0165509
0.0161153
0.0155674
0.014921
0.0142006
0.0134376
0.0126661
0.0119092
0.0111754
0.0104504
0.00968935
0.00881707
0.00773957
0.00635245
0.00454677
0.00230189
0.000268578
0.0119821
0.0119564
0.0119324
0.0119355
0.011924
0.0119481
0.0120111
0.0121258
0.0123091
0.0125729
0.0129239
0.0133614
0.0138766
0.0144536
0.0150705
0.015701
0.0163158
0.0168831
0.0173648
0.017713
0.0178781
0.0178154
0.0175449
0.0171316
0.0166159
0.0160047
0.0153054
0.0145348
0.0137292
0.0129344
0.0121702
0.011443
0.0107351
0.00999362
0.00913346
0.0080582
0.00666225
0.00482171
0.00247803
0.000279736
0.0122101
0.0122135
0.0122371
0.0122956
0.0123638
0.0124669
0.0126074
0.0128034
0.0130751
0.0134277
0.0138611
0.0143683
0.0149364
0.0155472
0.0161784
0.016805
0.0174007
0.0179392
0.0183842
0.0186658
0.0186915
0.0184751
0.0180821
0.0175794
0.0169936
0.0163294
0.0155937
0.0147975
0.0139661
0.013159
0.0123987
0.0116887
0.0110064
0.0102883
0.00943381
0.00834296
0.0069167
0.00503798
0.00261886
0.000287852
0.0123827
0.0124237
0.0124968
0.0126106
0.0127611
0.0129605
0.013207
0.0135099
0.0138822
0.0143253
0.0148356
0.0154028
0.0160108
0.0166414
0.0172722
0.0178796
0.0184416
0.0189397
0.0193252
0.0194393
0.0192737
0.018922
0.0184367
0.0178587
0.0172125
0.0165066
0.0157512
0.0149587
0.0141416
0.0133366
0.0125932
0.011912
0.0112649
0.0105748
0.00971977
0.00859059
0.00710554
0.00516418
0.00269172
0.000292566
0.0125439
0.0126298
0.0127597
0.0129401
0.0131731
0.0134657
0.0138151
0.0142252
0.0146975
0.0152275
0.0158076
0.016424
0.0170584
0.017691
0.0182976
0.0188509
0.0193244
0.0196979
0.0199211
0.0199198
0.0196623
0.0191884
0.0186089
0.0179643
0.0172738
0.0165463
0.0157902
0.0150141
0.0142298
0.0134614
0.0127544
0.0121133
0.0115084
0.0108508
0.00999472
0.00879355
0.00721987
0.00520321
0.00268522
0.000294318
0.012727
0.0128642
0.0130564
0.0133084
0.0136229
0.0140027
0.0144442
0.0149447
0.0154989
0.0160954
0.016721
0.0173585
0.0179875
0.0185844
0.0191273
0.0195904
0.0199497
0.0201992
0.020322
0.0202546
0.0198759
0.0192754
0.0186098
0.0179106
0.0171919
0.0164613
0.0157229
0.0149804
0.0142449
0.0135395
0.0128861
0.0122881
0.0117225
0.0110997
0.0102476
0.0089216
0.00726781
0.0051835
0.00263714
0.000294531
0.0129457
0.013137
0.0133913
0.0137118
0.0140989
0.014551
0.0150623
0.0156258
0.01623
0.0168592
0.0174958
0.0181193
0.0187082
0.019243
0.0197082
0.0200872
0.0203703
0.0205553
0.0206108
0.0204362
0.0199079
0.0191984
0.0184648
0.0177258
0.0169944
0.0162769
0.0155736
0.0148824
0.0142109
0.0135808
0.0129869
0.0124183
0.0118663
0.0112181
0.0102302
0.00895752
0.00725921
0.00513582
0.00258636
0.000294646
0.0131964
0.0134389
0.0137483
0.0141258
0.0145704
0.0150767
0.0156353
0.0162336
0.0168565
0.0174852
0.0181002
0.0186816
0.0192117
0.0196767
0.0200677
0.0203795
0.0206105
0.020751
0.0207363
0.0204227
0.0197602
0.0189802
0.0182003
0.0174391
0.0167119
0.0160248
0.0153718
0.0147438
0.0141417
0.0135736
0.0130215
0.0124718
0.0118753
0.0111119
0.0101317
0.00889104
0.00720591
0.00508807
0.00256095
0.000295541
0.0134653
0.013752
0.0141076
0.0145304
0.0150157
0.0155551
0.016136
0.0167426
0.0173569
0.0179595
0.0185315
0.0190562
0.019521
0.0199178
0.0202433
0.0204965
0.0206738
0.0207505
0.0206275
0.020193
0.0194673
0.0186417
0.0178429
0.0170823
0.0163775
0.0157344
0.015142
0.0145825
0.0140558
0.0135516
0.013046
0.0124994
0.0118562
0.011059
0.0100786
0.00883311
0.00715905
0.00506273
0.00256155
0.000297512
0.0137414
0.0140651
0.014455
0.0149071
0.0154144
0.0159658
0.0165466
0.0171393
0.0177251
0.0182855
0.0188038
0.0192674
0.0196679
0.0200009
0.0202643
0.0204547
0.0205593
0.0205283
0.0202746
0.0197499
0.0190214
0.0182132
0.0174276
0.0166883
0.0160218
0.0154319
0.0149054
0.0144242
0.0139757
0.0135308
0.0130548
0.0125084
0.0118474
0.011036
0.0100404
0.0087899
0.00713143
0.00506425
0.00258276
0.000300681
0.0140142
0.014364
0.0147747
0.0152406
0.0157526
0.0162979
0.0168608
0.0174235
0.017968
0.0184776
0.0189387
0.0193418
0.0196811
0.0199529
0.0201525
0.0202696
0.0202765
0.0201172
0.0197418
0.0191408
0.0184243
0.0176913
0.0169648
0.0162845
0.0156834
0.0151651
0.0147188
0.0143171
0.0139323
0.013528
0.0130677
0.0125165
0.0118413
0.0110137
0.0100019
0.00875
0.00712034
0.0050894
0.00262387
0.000305029
0.014272
0.0146368
0.0150555
0.0155211
0.0160232
0.0165482
0.0170804
0.0176026
0.0180985
0.0185539
0.0189579
0.0193028
0.0195836
0.0197949
0.0199273
0.019962
0.0198633
0.01959
0.0191183
0.0184814
0.0177893
0.0171166
0.0164839
0.0159127
0.015412
0.0149865
0.0146234
0.0142887
0.0139458
0.0135593
0.0130969
0.0125308
0.0118359
0.0109892
0.00996135
0.00870814
0.00713135
0.00512973
0.00267489
0.000310603
0.0145068
0.0148757
0.015291
0.0157444
0.0162251
0.0167194
0.0172121
0.0176876
0.0181317
0.0185323
0.0188806
0.0191699
0.0193943
0.0195455
0.0196097
0.0195631
0.0193747
0.01902
0.0184929
0.0178587
0.0172119
0.0166101
0.0160782
0.0156216
0.0152372
0.014914
0.0146272
0.0143395
0.0140145
0.0136228
0.0131406
0.0125487
0.0118282
0.0109612
0.00992137
0.00866919
0.00713595
0.00517923
0.00272898
0.000317935
0.0147133
0.0150769
0.015479
0.0159108
0.0163614
0.0168176
0.0172655
0.0176911
0.0180824
0.0184292
0.018724
0.0189601
0.0191303
0.0192238
0.019224
0.0191085
0.018855
0.018452
0.0179139
0.0173153
0.0167362
0.0162242
0.015798
0.0154546
0.015178
0.0149414
0.0147086
0.0144423
0.0141124
0.0136983
0.0131857
0.0125629
0.0118151
0.01093
0.00988419
0.00863983
0.00713341
0.00524051
0.00279346
0.000327409
)
;

boundaryField
{
    leftWall
    {
        type            nutkWallFunction;
        Cmu             0.09;
        kappa           0.41;
        E               9.8;
        value           nonuniform 0();
    }
    rightWall
    {
        type            nutkWallFunction;
        Cmu             0.09;
        kappa           0.41;
        E               9.8;
        value           nonuniform List<scalar> 
43
(
1.81239e-05
2.02951e-05
2.24646e-05
2.37e-05
2.45629e-05
2.52674e-05
2.58466e-05
2.63124e-05
2.67143e-05
2.70492e-05
2.73241e-05
2.76451e-05
2.79317e-05
2.81863e-05
2.83628e-05
2.83873e-05
2.82529e-05
2.79501e-05
2.74656e-05
2.68153e-05
2.60601e-05
2.54216e-05
2.5293e-05
2.60176e-05
2.65723e-05
2.66094e-05
2.51487e-05
2.56952e-05
2.8011e-05
2.92691e-05
3.04722e-05
3.13817e-05
3.19478e-05
3.21901e-05
3.22388e-05
3.22579e-05
3.23261e-05
3.2494e-05
3.27856e-05
3.31953e-05
3.37257e-05
3.44311e-05
3.54455e-05
)
;
    }
    lowerWall
    {
        type            nutkWallFunction;
        Cmu             0.09;
        kappa           0.41;
        E               9.8;
        value           nonuniform List<scalar> 
66
(
7.04036e-06
5.73372e-06
5.73372e-06
9.8626e-06
1.12868e-05
1.24397e-05
1.3434e-05
1.436e-05
1.52246e-05
1.61867e-05
1.76032e-05
2.04926e-05
1.61281e-05
1.53443e-05
1.53576e-05
1.63664e-05
0
4.0428e-06
7.34727e-06
1.12157e-05
1.52004e-05
1.86896e-05
1.98281e-05
1.88e-05
2.12748e-05
2.44034e-05
0
0
4.42777e-08
5.87558e-07
3.0026e-06
7.57424e-06
1.32836e-05
1.86298e-05
2.27276e-05
2.85127e-05
2.76994e-05
2.84473e-05
2.89291e-05
2.91993e-05
2.93835e-05
2.95321e-05
2.96748e-05
2.98293e-05
2.99963e-05
3.01566e-05
3.03147e-05
3.04922e-05
3.06904e-05
3.09161e-05
3.11734e-05
3.14685e-05
3.18286e-05
3.21676e-05
3.23915e-05
3.23625e-05
3.19295e-05
3.10453e-05
2.9801e-05
2.83355e-05
2.67512e-05
2.50849e-05
2.32791e-05
2.11005e-05
1.7562e-05
1.32786e-05
)
;
    }
    atmosphere
    {
        type            calculated;
        value           nonuniform 0();
    }
    defaultFaces
    {
        type            empty;
    }
    procBoundary1to0
    {
        type            processor;
        value           nonuniform List<scalar> 
44
(
6.3737e-05
0.000462224
0.000802388
0.0010931
0.00135011
0.00157851
0.00179609
0.00201996
0.00227748
0.00262124
0.0031439
0.00373751
0.00433286
0.00489665
0.00541916
0.00590648
0.00637281
0.00683346
0.0073012
0.00778403
0.007812
0.007812
0.00836905
0.00894472
0.00952424
0.0100736
0.0105565
0.0109941
0.0113769
0.0117039
0.0119766
0.0121967
0.0123673
0.0124961
0.0125945
0.012676
0.0127528
0.0128337
0.0129239
0.013025
0.0131367
0.0132574
0.0133848
0.0135165
)
;
    }
    procBoundary1to3
    {
        type            processor;
        value           nonuniform List<scalar> 
45
(
0.01378
0.0139325
0.0141165
0.0143331
0.0145825
0.0148897
0.01524
0.0156209
0.0160238
0.016438
0.0168514
0.0172514
0.017626
0.0179648
0.0182594
0.0185029
0.0186885
0.0188078
0.0188486
0.0187948
0.018629
0.0183379
0.0179195
0.0174047
0.0168662
0.0163715
0.0159605
0.0156418
0.0154014
0.0152113
0.0150344
0.0148296
0.0145626
0.0142121
0.0137672
0.0132219
0.0125698
0.011799
0.0108992
0.00985063
0.00861589
0.00713143
0.00527909
0.00285671
0.000333933
)
;
    }
}


// ************************************************************************* //
