/*--------------------------------*- C++ -*----------------------------------*\
| =========                 |                                                 |
| \\      /  F ield         | OpenFOAM: The Open Source CFD Toolbox           |
|  \\    /   O peration     | Version:  5.0                                   |
|   \\  /    A nd           | Web:      www.OpenFOAM.org                      |
|    \\/     M anipulation  |                                                 |
\*---------------------------------------------------------------------------*/
FoamFile
{
    version     2.0;
    format      ascii;
    class       volScalarField;
    location    "0.7";
    object      p;
}
// * * * * * * * * * * * * * * * * * * * * * * * * * * * * * * * * * * * * * //

dimensions      [1 -1 -2 0 0 0 0];

internalField   nonuniform List<scalar> 
1915
(
822.455
824.035
769.074
772.224
717.95
721.961
668.856
673.344
622.316
627.042
578.094
583.492
535.652
541.493
494.362
500.747
454.724
461.598
417.54
423.38
268.473
268.493
268.546
268.648
268.786
268.966
269.205
269.549
270.958
276.531
292.019
306.966
305.389
301.242
298.425
300.804
311.836
320.573
319.04
315.152
308.545
302.316
301.718
313.536
340.865
385.551
461.936
629.068
911.884
1274.87
1638.85
1943.81
2169.94
2321.72
2411.04
2446.82
2433.79
2378.87
2275.29
2238.27
268.409
268.425
268.483
268.591
268.734
268.904
269.111
269.05
267.149
251.729
247.585
249.104
250.636
251.531
252.872
254.996
259.048
265.34
269.366
269.393
266.89
261.496
252.786
245.167
244.894
260.51
320.638
454.506
703.868
1047.31
1407.45
1720.36
1959.95
2126.09
2229.27
2280.13
2287.18
2255.94
2192.66
2173.26
268.339
268.344
268.393
268.494
268.579
268.625
268.508
267.435
260.974
254.069
253.049
252.488
252.652
252.933
253.118
253.287
253.32
253.452
253.694
253.72
253.095
251.358
247.695
240.661
229.662
207.296
200.618
278.532
499.212
837.794
1197.66
1513.57
1762.09
1940.96
2059.28
2128.04
2157.83
2157.53
2132.91
2104.08
268.255
268.244
268.279
268.374
268.34
268.094
267.449
265.365
257.701
253.634
252.839
252.749
252.615
252.471
252.385
252.361
252.426
252.567
252.774
252.989
253.156
253.251
253.341
253.468
253.003
247.312
217.798
187.132
326.596
664.71
1033.77
1347.55
1596.49
1780.4
1907.76
1989.04
2034.52
2054.3
2050.74
2018.24
268.155
268.133
268.16
268.273
268.051
267.391
266.306
263.777
256.153
253.519
252.769
252.557
252.426
252.328
252.261
252.273
252.361
252.522
252.74
252.985
253.236
253.478
253.705
253.944
254.244
253.828
250.308
223.662
262.925
547.567
913.589
1215.07
1455.27
1636.72
1766.65
1854.3
1908.57
1938.54
1945.31
1916.55
268.048
268.05
268.162
268.238
267.658
266.408
265.055
262.288
255.271
253.235
252.7
252.464
252.302
252.2
252.152
252.177
252.274
252.433
252.633
252.85
253.066
253.277
253.475
253.662
253.899
254.022
253.186
251.099
277.061
497.449
834.907
1109.83
1332.57
1505.46
1633.02
1722.45
1780.76
1814.9
1826.27
1802.84
267.914
267.912
267.387
267.7
266.86
264.854
263.579
260.779
254.585
252.902
252.553
252.329
252.158
252.055
252.021
252.062
252.171
252.337
252.538
252.752
252.962
253.164
253.355
253.546
253.763
253.824
253.477
256.452
288.359
489.181
789.089
1025.88
1225.75
1386.08
1507.84
1595.9
1655.16
1690.36
1702.99
1677.49
267.925
267.735
263.618
264.561
263.441
262.038
261.424
258.732
254.064
252.605
252.363
252.171
252
251.902
251.882
251.939
252.063
252.24
252.448
252.665
252.878
253.082
253.275
253.479
253.712
253.772
253.599
257.214
294.673
495.765
756.352
955.299
1131.89
1278.05
1392.08
1476.91
1535.81
1572.1
1586.11
1551.07
267.122
260.235
259.486
255.169
256.622
258.408
258.288
255.963
253.406
252.415
252.183
252.016
251.844
251.751
251.746
251.82
251.957
252.147
252.364
252.588
252.805
253.01
253.205
253.411
253.639
253.684
253.674
257.308
301.18
507.547
723.302
892.715
1048.38
1180.37
1285.89
1366.59
1425.13
1464.76
1484.53
1473.66
224.039
255.624
256.302
250.736
252.673
255.601
255.421
253.88
252.972
252.29
252.028
251.872
251.698
251.613
251.627
251.714
251.861
252.064
252.291
252.521
252.74
252.946
253.139
253.34
253.527
253.494
253.86
258.135
315.756
521.525
689.317
835.827
973.288
1091.87
1188.7
1264.72
1322.51
1365.9
1393.54
1419.3
380.395
381.637
339.506
337.429
300.184
296.434
263.83
261.026
230.256
229.995
198.872
201.642
169.09
174.895
140.429
148.621
113
121.744
87.2811
94.3233
65.2951
30.5568
1.97956
-2.14391
-1.16632
-0.963014
-1.03729
-1.14932
-1.24629
-1.34239
-1.44428
-1.54818
-1.65038
-1.74933
-1.84447
-1.93554
-2.02236
-2.10501
-2.18376
-2.25901
-2.33118
-2.40065
-2.4678
415.953
397.825
369.525
326.73
344.792
327.015
295.03
259.262
291.172
272.872
249.686
248.859
254.329
242.766
243.964
253.084
226.813
229.194
248.268
253.568
203.824
220.969
249.141
253.578
182.592
212.189
248.931
253.566
159.95
196.28
245.342
253.532
134.317
174.197
240.05
253.248
106.059
143.047
227.572
252.746
76.0025
107.663
198.003
250.217
40.0614
66.1021
142.057
237.514
0.669105
17.483
74.2266
196.062
-15.7341
-27.3788
3.8175
99.6264
-4.94636
-32.6341
-48.6472
0.525221
-1.35503
-6.81491
-42.4045
-62.7246
-0.974419
-1.40668
-7.1883
-45.1836
-1.07178
-0.989661
-1.48294
-6.00412
-1.21762
-1.13367
-1.05489
-1.56911
-1.33722
-1.31853
-1.26179
-1.22744
-1.44883
-1.45857
-1.47034
-1.4755
-1.56043
-1.57898
-1.61013
-1.65602
-1.66944
-1.69399
-1.72837
-1.77786
-1.77345
-1.80282
-1.83993
-1.88717
-1.87201
-1.9045
-1.94378
-1.99074
-1.9653
-1.99957
-2.03994
-2.08692
-2.05349
-2.08865
-2.12929
-2.17578
-2.13676
-2.17216
-2.21249
-2.25799
-2.21551
-2.25057
-2.29011
-2.33424
-2.2903
-2.32458
-2.36294
-2.40542
-2.3617
-2.39493
-2.43184
-2.47253
-2.43022
-2.46221
-2.49758
-2.53645
-2.49622
-2.52688
-2.56071
-2.59789
247.852
254.473
252.389
250.805
252.261
254.198
253.964
253.211
252.818
252.232
251.911
251.743
251.573
251.492
251.527
251.623
251.779
251.995
252.231
252.465
252.685
252.889
253.079
253.272
253.422
253.374
254.22
261.61
334.831
520.209
654.906
783.195
904.665
1010.77
1098.91
1169.58
1225.04
1268.72
1298.19
1336.22
249.082
253.117
252.827
252.029
252.596
253.715
253.62
253.178
252.819
252.202
251.82
251.611
251.413
251.329
251.408
251.536
251.711
251.943
252.186
252.422
252.64
252.839
253.023
253.203
253.341
253.368
254.441
266.833
361.526
505.441
620.748
734.232
841.457
935.958
1015.51
1080.22
1131.75
1172.74
1200.72
1232.13
253.204
253.389
253.052
252.606
252.901
253.603
253.583
253.296
252.82
252.135
251.665
251.388
251.178
251.148
251.285
251.458
251.666
251.913
252.161
252.393
252.605
252.795
252.967
253.129
253.254
253.371
254.114
272.195
378.823
487.394
588.358
688.939
783.365
867.112
938.313
996.775
1043.59
1080.74
1106.67
1134.02
253.605
253.417
253.184
252.98
253.223
253.613
253.531
253.238
252.649
251.856
251.409
251.126
250.988
251.07
251.239
251.422
251.659
251.913
252.157
252.381
252.582
252.757
252.913
253.057
253.159
253.359
255.064
281.933
376.889
468.723
558.602
647.161
729.91
803.66
866.832
919.017
960.849
993.809
1017.92
1043.06
253.643
253.509
253.382
253.334
253.5
253.648
253.452
253.049
252.439
251.621
251.19
251.004
250.994
251.105
251.246
251.45
251.697
251.945
252.176
252.385
252.569
252.726
252.863
253.007
253.12
252.996
248.112
289.783
370.679
451.458
531.277
608.825
680.812
745.183
800.69
846.742
883.508
912.254
935.049
957.741
253.73
253.629
253.587
253.599
253.687
253.69
253.433
252.97
252.376
251.651
251.228
251.131
251.155
251.218
251.347
251.55
251.782
252.007
252.216
252.403
252.565
252.7
252.824
252.978
252.968
248.825
238.518
292.613
364.591
436.086
506.826
574.348
636.082
691.392
739.756
779.902
811.567
835.896
856.674
877.509
253.808
253.721
253.725
253.754
253.791
253.729
253.474
253.049
252.519
251.951
251.558
251.388
251.358
251.404
251.526
251.703
251.9
252.092
252.271
252.432
252.569
252.683
252.818
252.914
252.212
228.784
235.547
294.907
359.114
422.748
485.957
544.274
595.485
642.418
684.096
718.605
745.117
764.689
782.685
800.676
253.863
253.768
253.794
253.825
253.834
253.751
253.521
253.153
252.712
252.254
251.892
251.696
251.628
251.653
251.746
251.882
252.035
252.19
252.337
252.469
252.581
252.689
252.823
252.671
238.976
203.145
238.971
297.158
354.101
411.8
467.845
516.825
558.843
598.062
633.765
663.068
684.416
698.921
713.333
725.431
253.889
253.771
253.805
253.836
253.831
253.746
253.548
253.246
252.874
252.502
252.198
252.003
251.918
251.916
251.97
252.061
252.172
252.291
252.406
252.514
252.62
252.74
252.594
250.297
199.417
194.84
246.197
299.117
350.518
405.357
454.633
493.048
525.244
556.814
588.879
613.659
629.866
639.381
649.364
651.16
253.893
253.755
253.771
253.801
253.794
253.716
253.551
253.305
253.003
252.7
252.446
252.272
252.179
252.151
252.171
252.225
252.3
252.386
252.476
252.581
252.72
252.745
252.069
214.998
168.564
203.949
254.707
301.968
353.374
406.939
448.891
472.365
489.685
520.613
550.323
570.725
581.478
586.25
591.74
592.016
253.671
253.73
253.698
253.73
253.729
253.664
253.528
253.327
253.086
252.843
252.634
252.481
252.387
252.342
252.338
252.365
252.41
252.466
252.539
252.68
252.825
252.306
231.511
163.114
170.149
218.433
263.267
311.069
365.999
412.226
437.179
443.853
460.2
492.318
518.687
534.686
539.512
538.246
539.51
551.863
252.87
253.636
253.588
253.626
253.641
253.59
253.478
253.313
253.117
252.923
252.754
252.624
252.537
252.488
252.471
252.479
252.499
252.526
252.594
252.767
252.409
244.663
169.112
146.719
189.556
233.669
277.044
331.829
381.055
409.083
412.81
416.044
440.033
470.655
494.137
507.831
507.621
497.547
491.823
501.297
251.433
253.518
253.533
253.518
253.537
253.493
253.401
253.262
253.101
252.947
252.816
252.713
252.641
252.596
252.573
252.571
252.567
252.581
252.656
252.647
251.113
186.257
132.724
168.54
214.116
253.237
304.496
356.245
386.707
389.429
383.891
396.736
424.905
452.189
475.842
492.026
492.233
474.811
454.796
454.797
226.653
252.833
253.565
253.476
253.447
253.384
253.304
253.181
253.041
252.925
252.831
252.759
252.71
252.673
252.649
252.64
252.611
252.668
252.773
252.143
205.341
131.296
154.365
205.612
243.601
287.52
338.295
371.332
373.957
359.888
362.275
383.525
407.978
432.325
457.695
480.265
481.127
462.187
438.052
429.518
127.347
234.521
252.467
253.414
253.407
253.313
253.236
253.103
252.952
252.871
252.816
252.776
252.754
252.721
252.688
252.694
252.632
252.619
252.173
220.512
144.522
147.001
204.104
250.495
290.246
333.481
365.198
367.299
346.94
336.095
347.855
365.761
385.479
406.847
430.786
454.973
461.637
442.654
430.69
424.684
-4.27446
129.564
231.742
252.227
252.801
253.232
253.246
253.066
252.87
252.832
252.809
252.796
252.807
252.756
252.681
252.779
252.889
251.956
231.965
169.07
157.206
206.317
263.163
314.936
359.467
378.759
372.407
346.902
321.769
319.784
328.361
340.797
356.529
374.952
395.649
416.28
427.047
422.933
425.009
424.872
-74.4865
-21.8388
96.4017
204.91
245.454
252.3
252.582
252.428
252.693
252.816
252.821
252.817
252.895
252.965
252.794
252.902
253.345
243.312
208.237
193.082
223.01
273.906
342.974
419.316
435.628
407.266
361.484
321.051
301.427
298.302
300.89
308.931
321.801
337.911
356.462
374.977
387.66
395.34
418.225
423.483
-39.3733
-78.5004
-55.5465
26.7157
132.791
198.377
230.41
245.909
251.611
252.037
252.181
252.284
252.496
252.076
253.827
258.317
262.682
256.734
251.692
262.881
291.036
353.058
488.923
551.778
495.803
402.549
333.432
289.91
273.81
266.789
263.889
269.87
281.882
296.636
314.584
333.219
348.762
363.582
392.457
405.921
-3.82022
-27.3347
-67.195
-77.1399
-41.9097
19.0618
86.7744
144.628
182.634
200.644
208.925
215.15
220.778
229.902
247.85
269.428
286.958
303.321
319.984
326.363
353.415
493.676
683.209
659.438
499.923
368.269
296.639
254.495
240.204
227.707
220.197
227.301
240.205
254.796
272.773
291.463
308.085
325.386
343.918
370.677
-1.5841
-2.71682
-13.6312
-38.5567
-65.6624
-72.3568
-54.973
-24.6647
9.34086
42.4532
71.2312
99.8393
130.551
164.274
201.981
242.877
287.004
332.932
361.154
357.846
443.224
674.379
776.692
663.79
462.377
372.38
316.558
254.047
222.189
207.455
197.108
199.145
211.205
223.762
238.211
253.117
266.733
283.118
297.957
320.74
-1.49032
-1.50299
-2.22989
-4.02975
-13.8378
-27.6714
-42.7676
-53.961
-54.3949
-43.4234
-22.9471
6.12611
41.2015
77.8377
117.05
161.937
214.689
268.275
296.394
334.763
519.658
713.13
703.863
531.402
462.944
439.116
359.409
272.826
226.359
214.365
198.144
182.928
186.824
202.669
217.962
225.613
228.735
239.335
251.634
269.595
-1.69878
-1.66614
-1.67634
-1.96726
-2.58301
-3.74322
-5.68952
-11.3334
-15.9377
-17.4015
-15.1528
-8.68373
1.8256
13.6789
26.5576
41.9598
60.8615
83.904
115.425
214.577
448.767
569.744
442.551
378.706
430.094
415.852
326.271
253.665
217.805
211.227
192.726
161.239
162.875
186.461
205.027
210.095
199.515
197.769
203.769
217.066
-1.84278
-1.89711
-1.94076
-1.99165
-1.98206
-2.25153
-2.68535
-3.33673
-3.70082
-3.75617
-3.75074
-3.70307
-3.57681
-3.14415
-2.66676
-2.38828
-1.96456
4.44361
28.7102
86.3212
206.125
297.3
243.68
266.937
305.015
280.312
221.064
182.159
178.59
159.54
134.935
112.289
121.139
143.256
141.861
166.8
169.732
162.693
162.32
166.474
-1.94913
-2.02442
-2.11477
-2.20683
-2.25223
-2.35854
-2.3882
-2.46804
-2.63585
-2.80564
-2.99894
-3.25148
-3.38083
-3.20431
-2.92806
-2.90759
-3.53607
-4.02596
-1.11727
11.9067
49.2466
168.388
237.021
221.001
194.037
159.729
116.794
74.8289
97.1824
51.4933
29.0386
39.1361
53.8011
49.4002
28.4361
70.2681
106.099
128.92
130.383
122.253
-2.04873
-2.12021
-2.20811
-2.30911
-2.40655
-2.5237
-2.60524
-2.69387
-2.82376
-2.96198
-3.10545
-3.2538
-3.33041
-3.30876
-3.23894
-3.24527
-3.52817
-4.01452
-4.72366
-3.34408
18.2544
137.398
253.544
209.439
159.35
127.768
91.7599
39.7142
13.0332
-12.8377
-17.7937
0.184337
6.91848
0.00835425
3.29406
17.1483
35.9006
91.4402
105.279
87.5143
-2.14331
-2.21109
-2.29018
-2.38057
-2.47798
-2.59077
-2.70195
-2.81958
-2.94526
-3.06536
-3.17764
-3.27785
-3.33925
-3.35063
-3.34912
-3.46202
-3.66558
-3.7558
-4.07598
-4.11656
2.39229
88.5992
190.953
160.597
124.5
102.254
71.2769
32.6694
4.12339
-2.53147
-3.32795
-2.23345
-0.700376
-0.379234
0.03957
2.06664
8.10673
56.1969
80.8814
65.3172
-2.23079
-2.29609
-2.36993
-2.45216
-2.54152
-2.64134
-2.74623
-2.8569
-2.97121
-3.08118
-3.18337
-3.27139
-3.32679
-3.34537
-3.4008
-3.5657
-3.6811
-3.56774
-3.60071
-4.18038
-4.64735
29.5056
85.8321
93.4624
74.2541
44.134
16.6875
1.95651
-1.77066
-1.91173
-1.83944
-1.65323
-1.32623
-0.845653
-0.688623
-0.772819
1.86929
30.8592
56.4343
45.9441
-2.3112
-2.37378
-2.44359
-2.52047
-2.60384
-2.69464
-2.79035
-2.89053
-2.99363
-3.09479
-3.18958
-3.27034
-3.32577
-3.37147
-3.45477
-3.54568
-3.5324
-3.42013
-3.53368
-4.05605
-4.37863
-0.157579
9.11453
23.4711
17.0308
2.81267
-0.319855
-1.11215
-1.63245
-1.78963
-1.75763
-1.6505
-1.46721
-1.22968
-1.14872
-1.67698
-0.745018
10.7635
34.8607
29.9553
-2.38537
-2.44498
-2.51092
-2.5832
-2.66161
-2.74628
-2.83591
-2.92958
-3.02588
-3.12148
-3.21217
-3.29192
-3.35747
-3.41293
-3.46011
-3.48139
-3.40618
-3.35186
-3.4072
-3.63267
-3.85794
-3.46997
-1.28911
-0.252962
-0.432999
-0.860095
-1.31554
-1.52512
-1.66422
-1.76657
-1.78128
-1.7151
-1.60547
-1.50789
-1.48767
-1.84771
-1.42923
1.05189
15.0779
16.8015
-2.45433
-2.51097
-2.57333
-2.64162
-2.71585
-2.79607
-2.88163
-2.97174
-3.06507
-3.15901
-3.2498
-3.33272
-3.40313
-3.45216
-3.46892
-3.4297
-3.36133
-3.33778
-3.27952
-3.24282
-3.12965
-2.20278
-1.56293
-1.40837
-1.46461
-1.52533
-1.54865
-1.62219
-1.72571
-1.80223
-1.8254
-1.79751
-1.74759
-1.71392
-1.73327
-1.87578
-1.86472
-1.14302
4.52327
6.3258
-2.51921
-2.5731
-2.63244
-2.69759
-2.76878
-2.84619
-2.92963
-3.01854
-3.11177
-3.20691
-3.29984
-3.38547
-3.45499
-3.50124
-3.50362
-3.4559
-3.41855
-3.36658
-3.26734
-3.13361
-2.76413
-2.12272
-1.86457
-1.72456
-1.67885
-1.68373
-1.69891
-1.75571
-1.82897
-1.88102
-1.90179
-1.89645
-1.88399
-1.8876
-1.92607
-2.01836
-2.14992
-1.81351
2.796
1.3672
-2.58106
-2.63263
-2.68963
-2.7526
-2.82198
-2.8982
-2.98136
-3.07109
-3.16644
-3.26497
-3.36177
-3.4495
-3.52128
-3.56941
-3.569
-3.5434
-3.49877
-3.42043
-3.3208
-3.1421
-2.75529
-2.3486
-2.12155
-1.94971
-1.87047
-1.86188
-1.87461
-1.90816
-1.9506
-1.98141
-1.99728
-2.0028
-2.00999
-2.03381
-2.08602
-2.17726
-2.31466
-2.32899
1.72017
-0.474778
-2.64068
-2.6904
-2.74574
-2.80742
-2.87611
-2.95245
-3.03673
-3.12888
-3.22785
-3.33073
-3.43204
-3.52419
-3.60213
-3.64994
-3.65934
-3.6397
-3.58032
-3.48551
-3.37361
-3.17
-2.85719
-2.56837
-2.34828
-2.16901
-2.07443
-2.04752
-2.04471
-2.05536
-2.07353
-2.08944
-2.10018
-2.1092
-2.12405
-2.15539
-2.21157
-2.29975
-2.41871
-2.55469
-2.884
-4.89429
)
;

boundaryField
{
    leftWall
    {
        type            calculated;
        value           nonuniform 0();
    }
    rightWall
    {
        type            calculated;
        value           nonuniform List<scalar> 
43
(
2238.27
2173.26
2104.08
2018.24
1916.55
1802.84
1677.49
1551.07
1473.66
1419.3
1336.22
1232.13
1134.02
1043.06
957.741
877.509
800.676
725.431
651.16
592.016
551.863
501.297
454.797
429.518
424.684
424.872
423.483
405.921
370.677
320.74
269.595
217.066
166.474
122.253
87.5143
65.3172
45.9441
29.9553
16.8015
6.3258
1.3672
-0.474778
-4.89429
)
;
    }
    lowerWall
    {
        type            calculated;
        value           nonuniform List<scalar> 
66
(
845.982
847.573
824.035
772.224
721.961
673.344
627.042
583.492
541.493
500.747
461.598
423.38
439.918
421.791
393.491
350.695
268.473
268.409
268.339
268.255
268.155
268.048
267.914
267.925
267.122
224.039
268.496
268.516
268.569
268.672
268.809
268.99
269.228
269.572
270.981
276.582
300.45
326.006
325.902
321.347
318.103
320.603
333.084
343.193
342.282
338.596
332.057
325.854
325.261
337.079
364.408
409.094
485.48
652.612
935.428
1298.41
1662.39
1967.35
2193.48
2345.26
2434.59
2470.37
2457.33
2402.16
2298.33
2259.85
)
;
    }
    atmosphere
    {
        type            calculated;
        value           nonuniform 0();
    }
    defaultFaces
    {
        type            empty;
    }
    procBoundary1to0
    {
        type            processor;
        value           nonuniform List<scalar> 
44
(
816.837
765.582
716.991
669.987
624.191
579.302
535.769
493.853
453.714
415.591
377.851
338.59
299.838
262.701
227.441
193.959
162.1
132.133
105.292
80.2192
58.6516
58.6516
22.3862
0.773265
-0.898104
-0.933078
-1.00215
-1.09043
-1.17289
-1.25625
-1.34668
-1.4421
-1.53895
-1.63512
-1.72944
-1.82116
-1.90975
-1.99497
-2.07676
-2.15527
-2.23072
-2.30337
-2.37358
-2.44175
)
;
    }
    procBoundary1to3
    {
        type            processor;
        value           nonuniform List<scalar> 
45
(
-2.53315
-2.56022
-2.58947
-2.62181
-2.65741
-2.69864
-2.7469
-2.80115
-2.86227
-2.93114
-3.00853
-3.09496
-3.19055
-3.29375
-3.4011
-3.50709
-3.60465
-3.68436
-3.7335
-3.74936
-3.72693
-3.66247
-3.56316
-3.43021
-3.23253
-2.99835
-2.79075
-2.59731
-2.41431
-2.28243
-2.2189
-2.19718
-2.19141
-2.19457
-2.19953
-2.20424
-2.21159
-2.22675
-2.25583
-2.30423
-2.37332
-2.44858
-2.48546
-2.54401
-2.28453
)
;
    }
}


// ************************************************************************* //
