/*--------------------------------*- C++ -*----------------------------------*\
| =========                 |                                                 |
| \\      /  F ield         | OpenFOAM: The Open Source CFD Toolbox           |
|  \\    /   O peration     | Version:  5.0                                   |
|   \\  /    A nd           | Web:      www.OpenFOAM.org                      |
|    \\/     M anipulation  |                                                 |
\*---------------------------------------------------------------------------*/
FoamFile
{
    version     2.0;
    format      ascii;
    class       volVectorField;
    location    "0.7";
    object      U;
}
// * * * * * * * * * * * * * * * * * * * * * * * * * * * * * * * * * * * * * //

dimensions      [0 1 -1 0 0 0 0];

internalField   nonuniform List<vector> 
1915
(
(-0.0961185 -0.0330157 0)
(-0.0363772 -0.0289321 0)
(-0.0780318 -0.0570438 0)
(-0.0366215 -0.0765457 0)
(-0.0485237 -0.069254 0)
(-0.0211032 -0.113984 0)
(-0.0225842 -0.0748179 0)
(-0.00655321 -0.131893 0)
(-0.00421268 -0.0775283 0)
(0.00325194 -0.136618 0)
(0.00728932 -0.0785025 0)
(0.0100544 -0.132751 0)
(0.014051 -0.0774332 0)
(0.0147134 -0.125587 0)
(0.0180687 -0.0759104 0)
(0.018536 -0.116068 0)
(0.0194801 -0.0744198 0)
(0.0213586 -0.100368 0)
(0.0178029 -0.0730791 0)
(0.0201945 -0.0823627 0)
(0.0261142 -0.0245969 0)
(0.0206996 -0.0105235 0)
(-0.00966406 0.00935643 0)
(-0.085482 0.034046 0)
(-0.233909 0.0588118 0)
(-0.455968 0.0825784 0)
(-0.788752 0.143537 0)
(-1.33886 0.248986 0)
(-1.92725 0.16595 0)
(-2.25885 -0.267636 0)
(-2.3342 -0.293268 0)
(-2.36042 -0.245896 0)
(-2.37051 -0.168096 0)
(-2.37872 -0.0991652 0)
(-2.38751 -0.0519966 0)
(-2.39843 -0.0236152 0)
(-2.40718 -0.00936538 0)
(-2.41067 -0.00485016 0)
(-2.40843 -0.00374184 0)
(-2.40394 -0.00125241 0)
(-2.40218 0.00362484 0)
(-2.4065 0.0112642 0)
(-2.42129 0.0200244 0)
(-2.44636 0.0249322 0)
(-2.47553 0.0203435 0)
(-2.49534 0.00271994 0)
(-2.48243 -0.0272803 0)
(-2.4167 -0.0613782 0)
(-2.27884 -0.0967366 0)
(-2.06686 -0.125632 0)
(-1.8081 -0.13918 0)
(-1.53659 -0.139293 0)
(-1.27272 -0.134108 0)
(-1.02219 -0.129462 0)
(-0.782884 -0.127803 0)
(-0.5503 -0.129356 0)
(-0.322134 -0.13038 0)
(-0.101303 -0.119004 0)
(0.0658782 -0.0819525 0)
(0.159363 0.0564525 0)
(0.00289611 -0.0192382 0)
(-0.0376853 0.0329639 0)
(-0.112969 0.0710478 0)
(-0.212821 0.131031 0)
(-0.435698 0.232537 0)
(-0.844458 0.360619 0)
(-1.38689 0.495666 0)
(-1.96285 0.556487 0)
(-2.39641 0.45036 0)
(-2.61199 0.331051 0)
(-2.65272 0.238555 0)
(-2.54449 0.172886 0)
(-2.49194 0.121824 0)
(-2.50049 0.0828192 0)
(-2.51518 0.0515495 0)
(-2.51743 0.0280624 0)
(-2.50875 0.0118381 0)
(-2.4958 0.00214003 0)
(-2.48173 -0.00318714 0)
(-2.46624 -0.00446479 0)
(-2.44715 -0.00231402 0)
(-2.42338 0.00185233 0)
(-2.39223 0.00535707 0)
(-2.35202 0.00545829 0)
(-2.30461 0.00121471 0)
(-2.25879 -0.010997 0)
(-2.2221 -0.0415702 0)
(-2.17117 -0.0971796 0)
(-2.06959 -0.173613 0)
(-1.90213 -0.245317 0)
(-1.68666 -0.283759 0)
(-1.45449 -0.288341 0)
(-1.2264 -0.276216 0)
(-1.01039 -0.260783 0)
(-0.807909 -0.248337 0)
(-0.617582 -0.240391 0)
(-0.43734 -0.232064 0)
(-0.268392 -0.20471 0)
(-0.125426 -0.119295 0)
(0.0111107 0.0912582 0)
(-0.0499035 0.0073014 0)
(-0.11601 0.0835377 0)
(-0.191982 0.137093 0)
(-0.285069 0.250668 0)
(-0.525729 0.474677 0)
(-0.969603 0.727595 0)
(-1.51588 0.89396 0)
(-2.05588 0.835485 0)
(-2.31837 0.658255 0)
(-2.4564 0.371806 0)
(-2.51912 -0.120959 0)
(-2.49459 -0.164977 0)
(-2.49258 -0.063876 0)
(-2.50485 -0.0194361 0)
(-2.51403 -0.00755306 0)
(-2.5148 -0.006541 0)
(-2.50809 -0.0100721 0)
(-2.49751 -0.0135127 0)
(-2.4847 -0.0156115 0)
(-2.46716 -0.0177476 0)
(-2.43855 -0.0197675 0)
(-2.391 -0.0208981 0)
(-2.32242 -0.0211135 0)
(-2.24439 -0.0223191 0)
(-2.15934 -0.0280012 0)
(-2.07134 -0.0469296 0)
(-1.99604 -0.0891075 0)
(-1.92764 -0.159489 0)
(-1.83728 -0.262526 0)
(-1.69748 -0.368199 0)
(-1.51561 -0.427733 0)
(-1.3181 -0.43608 0)
(-1.12384 -0.418411 0)
(-0.939874 -0.39411 0)
(-0.768555 -0.372274 0)
(-0.610472 -0.355604 0)
(-0.464735 -0.340425 0)
(-0.329195 -0.310944 0)
(-0.20419 -0.222582 0)
(-0.0859776 -0.0060953 0)
(-0.0942842 0.0875741 0)
(-0.174827 0.142728 0)
(-0.220318 0.190834 0)
(-0.256266 0.356617 0)
(-0.471535 0.727314 0)
(-0.913038 1.10343 0)
(-1.41317 1.25693 0)
(-1.84456 1.05161 0)
(-2.04747 0.81535 0)
(-2.13128 0.468735 0)
(-2.24233 0.0261607 0)
(-2.40798 -0.0945558 0)
(-2.4777 -0.032498 0)
(-2.50437 0.023651 0)
(-2.5108 0.0198142 0)
(-2.51138 0.00409211 0)
(-2.50577 -0.0105176 0)
(-2.49616 -0.0191837 0)
(-2.48309 -0.0233839 0)
(-2.46402 -0.0285656 0)
(-2.43305 -0.0361242 0)
(-2.38463 -0.0435949 0)
(-2.31605 -0.0455969 0)
(-2.23206 -0.0466741 0)
(-2.11299 -0.0543328 0)
(-1.91754 -0.0667042 0)
(-1.77239 -0.10889 0)
(-1.68559 -0.197356 0)
(-1.59014 -0.33572 0)
(-1.46685 -0.47676 0)
(-1.31566 -0.554446 0)
(-1.15119 -0.56536 0)
(-0.990155 -0.542855 0)
(-0.837355 -0.510901 0)
(-0.694416 -0.480509 0)
(-0.56253 -0.455318 0)
(-0.44147 -0.432813 0)
(-0.327477 -0.400699 0)
(-0.213149 -0.321303 0)
(-0.0962449 -0.114775 0)
(-0.129036 0.178458 0)
(-0.18829 0.182829 0)
(-0.153821 0.200528 0)
(-0.0774643 0.412044 0)
(-0.239789 0.965847 0)
(-0.71099 1.46982 0)
(-1.20767 1.56276 0)
(-1.60524 1.20927 0)
(-1.76006 0.930672 0)
(-1.82412 0.555444 0)
(-1.98216 0.215963 0)
(-2.22117 0.0702008 0)
(-2.34572 0.0411749 0)
(-2.398 0.0383041 0)
(-2.41542 0.0241786 0)
(-2.41626 0.00152811 0)
(-2.40089 -0.0210464 0)
(-2.36628 -0.0403194 0)
(-2.31319 -0.058464 0)
(-2.24564 -0.0843032 0)
(-2.16213 -0.125362 0)
(-2.06065 -0.178229 0)
(-1.93884 -0.228078 0)
(-1.79012 -0.274252 0)
(-1.6052 -0.335689 0)
(-1.56806 -0.299932 0)
(-1.56429 -0.166225 0)
(-1.43802 -0.228377 0)
(-1.3277 -0.394346 0)
(-1.21476 -0.566748 0)
(-1.09666 -0.659256 0)
(-0.966923 -0.670592 0)
(-0.839342 -0.644353 0)
(-0.717094 -0.606988 0)
(-0.600785 -0.570298 0)
(-0.491708 -0.538484 0)
(-0.39003 -0.510159 0)
(-0.292469 -0.476489 0)
(-0.191225 -0.408535 0)
(-0.0873957 -0.214839 0)
(-0.141555 0.309098 0)
(-0.108514 0.216309 0)
(0.0762561 0.292397 0)
(0.317058 0.489651 0)
(0.189137 1.2121 0)
(-0.387868 1.87447 0)
(-0.960475 1.8625 0)
(-1.38662 1.35869 0)
(-1.52094 1.02955 0)
(-1.57051 0.645316 0)
(-1.74134 0.363282 0)
(-1.97655 0.186731 0)
(-2.12288 0.107321 0)
(-2.19929 0.0659095 0)
(-2.22539 0.0282296 0)
(-2.21819 -0.00995274 0)
(-2.18491 -0.046055 0)
(-2.12889 -0.0777785 0)
(-2.05282 -0.10562 0)
(-1.96039 -0.135326 0)
(-1.85606 -0.172708 0)
(-1.74419 -0.217318 0)
(-1.6289 -0.260371 0)
(-1.50795 -0.292346 0)
(-1.37313 -0.311373 0)
(-1.24738 -0.343166 0)
(-1.17012 -0.41431 0)
(-1.13977 -0.276906 0)
(-1.06767 -0.467018 0)
(-0.963715 -0.647034 0)
(-0.876171 -0.740625 0)
(-0.781109 -0.750528 0)
(-0.685897 -0.72244 0)
(-0.592436 -0.682571 0)
(-0.500798 -0.642593 0)
(-0.412394 -0.606982 0)
(-0.327716 -0.575332 0)
(-0.2445 -0.541424 0)
(-0.15664 -0.482404 0)
(-0.070533 -0.29856 0)
(-0.0943562 0.2519 0)
(0.187847 0.0264572 0)
(0.573551 -0.200208 0)
(1.03635 0.263821 0)
(0.74072 1.65208 0)
(0.0195243 2.41842 0)
(-0.738646 2.22342 0)
(-1.20551 1.53703 0)
(-1.30765 1.1231 0)
(-1.35009 0.74537 0)
(-1.50821 0.497738 0)
(-1.71002 0.309114 0)
(-1.85746 0.189981 0)
(-1.94863 0.106692 0)
(-1.98377 0.0358647 0)
(-1.97431 -0.0276988 0)
(-1.93081 -0.0836933 0)
(-1.86081 -0.131831 0)
(-1.77076 -0.173046 0)
(-1.66798 -0.211701 0)
(-1.56073 -0.252446 0)
(-1.45702 -0.295752 0)
(-1.36264 -0.336923 0)
(-1.2754 -0.36714 0)
(-1.18423 -0.376665 0)
(-1.1221 -0.370721 0)
(-1.19176 -0.376463 0)
(-0.908576 -0.294888 0)
(-0.826185 -0.555404 0)
(-0.733285 -0.722743 0)
(-0.673961 -0.801054 0)
(-0.607852 -0.807347 0)
(-0.541344 -0.779448 0)
(-0.473226 -0.739829 0)
(-0.403562 -0.699299 0)
(-0.333947 -0.662472 0)
(-0.265188 -0.629866 0)
(-0.195714 -0.59719 0)
(-0.119709 -0.544371 0)
(-0.0521966 -0.366961 0)
(0.0583612 0.498648 0)
(0.301311 -0.328388 0)
(0.462802 -0.286822 0)
(0.638134 0.145227 0)
(0.744699 1.52847 0)
(0.259479 2.97919 0)
(-0.617836 2.58452 0)
(-1.03851 1.70854 0)
(-1.10675 1.19193 0)
(-1.16901 0.838019 0)
(-1.26613 0.604912 0)
(-1.439 0.42336 0)
(-1.57819 0.277164 0)
(-1.6752 0.155057 0)
(-1.7165 0.0466701 0)
(-1.70795 -0.0476111 0)
(-1.66144 -0.126768 0)
(-1.58666 -0.192151 0)
(-1.49268 -0.244598 0)
(-1.38958 -0.287883 0)
(-1.28742 -0.326655 0)
(-1.19559 -0.362855 0)
(-1.12103 -0.394549 0)
(-1.06122 -0.416292 0)
(-1.00504 -0.420632 0)
(-0.993208 -0.412967 0)
(-1.10535 -0.417129 0)
(-0.685014 -0.378525 0)
(-0.609156 -0.643726 0)
(-0.534726 -0.784296 0)
(-0.500208 -0.843035 0)
(-0.456062 -0.845082 0)
(-0.412595 -0.81891 0)
(-0.365238 -0.781496 0)
(-0.314276 -0.742305 0)
(-0.261495 -0.705963 0)
(-0.208121 -0.673847 0)
(-0.153236 -0.643342 0)
(-0.0901809 -0.596111 0)
(-0.043724 -0.424027 0)
(0.227451 0.000941438 0)
(0.323716 -0.327477 0)
(0.354985 -0.296313 0)
(0.354328 0.0882542 0)
(0.416968 1.61626 0)
(0.141955 3.43431 0)
(-0.48138 2.9409 0)
(-0.795328 1.8731 0)
(-0.876789 1.25139 0)
(-0.944275 0.892149 0)
(-1.0127 0.685074 0)
(-1.17381 0.525855 0)
(-1.30375 0.362655 0)
(-1.39971 0.206397 0)
(-1.44209 0.0595495 0)
(-1.43405 -0.0671196 0)
(-1.38821 -0.170123 0)
(-1.3144 -0.252784 0)
(-1.22315 -0.314759 0)
(-1.12598 -0.359625 0)
(-1.03329 -0.392725 0)
(-0.954066 -0.417843 0)
(-0.894643 -0.435806 0)
(-0.851595 -0.443995 0)
(-0.814853 -0.439996 0)
(-0.82803 -0.440836 0)
(-0.933875 -0.492813 0)
(-0.487919 -0.509351 0)
(-0.424552 -0.724374 0)
(-0.374643 -0.826871 0)
(-0.355519 -0.86889 0)
(-0.328568 -0.868341 0)
(-0.302135 -0.844768 0)
(-0.270838 -0.810531 0)
(-0.23517 -0.773583 0)
(-0.197091 -0.738353 0)
(-0.15841 -0.706751 0)
(-0.119499 -0.677402 0)
(-0.0772888 -0.634066 0)
(-0.0482661 -0.448281 0)
(0.258027 -0.215392 0)
(0.318856 -0.343045 0)
(0.271109 -0.30729 0)
(0.167791 0.118949 0)
(0.000673951 2.02997 0)
(-0.112553 3.6399 0)
(-0.303016 3.21476 0)
(-0.477507 2.03788 0)
(-0.599637 1.31411 0)
(-0.690133 0.943146 0)
(-0.774846 0.773508 0)
(-0.931078 0.619886 0)
(-1.05108 0.442818 0)
(-1.13725 0.256148 0)
(-1.17163 0.0723368 0)
(-1.16341 -0.0855259 0)
(-1.11767 -0.211659 0)
(-1.04725 -0.310512 0)
(-0.962668 -0.380087 0)
(-0.875675 -0.424367 0)
(-0.795665 -0.450188 0)
(-0.729846 -0.463454 0)
(-0.682242 -0.467882 0)
(-0.646944 -0.464404 0)
(-0.614818 -0.45584 0)
(-0.633218 -0.468179 0)
(-0.620361 -0.545458 0)
(-0.31605 -0.637858 0)
(-0.267614 -0.784526 0)
(-0.248819 -0.853769 0)
(-0.237283 -0.882555 0)
(-0.223881 -0.881223 0)
(-0.20951 -0.860594 0)
(-0.190172 -0.829735 0)
(-0.166579 -0.795169 0)
(-0.140763 -0.760904 0)
(-0.115002 -0.728863 0)
(-0.0910268 -0.698165 0)
(-0.0727967 -0.656118 0)
(-0.0435483 -0.478366 0)
(0.0161207 -0.074472 0)
(0.0117913 -0.0812372 0)
(0.0165447 -0.0789817 0)
(0.0238983 -0.0899535 0)
(0.0128789 -0.0858041 0)
(0.0217238 -0.101271 0)
(0.00413499 -0.0912173 0)
(0.00864883 -0.108412 0)
(-0.00802404 -0.0930937 0)
(-0.00978675 -0.108852 0)
(-0.0215638 -0.0908321 0)
(-0.0295436 -0.102587 0)
(-0.0349798 -0.0847166 0)
(-0.0481233 -0.0906178 0)
(-0.0475118 -0.0755036 0)
(-0.0641529 -0.0743896 0)
(-0.0594781 -0.0641131 0)
(-0.0776746 -0.0556163 0)
(-0.0727468 -0.0513822 0)
(-0.0903835 -0.035945 0)
(-0.105182 -0.0172549 0)
(-0.124866 -0.00288532 0)
(-0.148937 0.00648885 0)
(-0.173136 0.0142526 0)
(-0.171451 0.022604 0)
(-0.0801155 0.0710682 0)
(-0.0387714 0.13612 0)
(0.00881405 0.186924 0)
(0.0566079 0.222826 0)
(0.0968467 0.246805 0)
(0.126294 0.261696 0)
(0.144774 0.270014 0)
(0.152942 0.274139 0)
(0.15169 0.276345 0)
(0.142337 0.278616 0)
(0.126572 0.282528 0)
(0.106287 0.289172 0)
(0.0833927 0.299157 0)
(0.0597006 0.312648 0)
(0.0368299 0.329438 0)
(0.0161515 0.349011 0)
(-0.00125432 0.370638 0)
(-0.0145958 0.393405 0)
(0.041603 -0.0514461 0)
(0.136913 -0.0514886 0)
(0.224005 -0.0569683 0)
(0.314052 -0.0659107 0)
(0.0538665 -0.0878337 0)
(0.107062 -0.0979215 0)
(0.159247 -0.105172 0)
(0.209316 -0.0999076 0)
(0.039613 -0.1127 0)
(0.0642934 -0.126365 0)
(0.0885257 -0.128713 0)
(0.122727 -0.11156 0)
(0.013646 -0.1241 0)
(0.0171632 -0.137132 0)
(0.0236206 -0.137608 0)
(0.0277634 -0.106382 0)
(-0.0164803 -0.122997 0)
(-0.025985 -0.131943 0)
(-0.0363027 -0.124361 0)
(-0.055127 -0.0660588 0)
(-0.045626 -0.111408 0)
(-0.0638784 -0.113322 0)
(-0.086456 -0.0940717 0)
(-0.107768 -0.0424683 0)
(-0.0712159 -0.0917414 0)
(-0.0964291 -0.0841811 0)
(-0.125549 -0.0557712 0)
(-0.153612 -0.0159227 0)
(-0.0918201 -0.066784 0)
(-0.122038 -0.050003 0)
(-0.152658 -0.0182054 0)
(-0.172582 0.0111522 0)
(-0.107206 -0.0390752 0)
(-0.140276 -0.0134978 0)
(-0.171096 0.0236755 0)
(-0.197224 0.0452385 0)
(-0.119144 -0.0107268 0)
(-0.153858 0.0245634 0)
(-0.180323 0.0737467 0)
(-0.206017 0.101614 0)
(-0.130083 0.0161267 0)
(-0.164217 0.0600804 0)
(-0.189762 0.11756 0)
(-0.219855 0.172039 0)
(-0.142102 0.038611 0)
(-0.1705 0.0903864 0)
(-0.197167 0.152586 0)
(-0.21513 0.216213 0)
(-0.157307 0.054067 0)
(-0.174906 0.112701 0)
(-0.199545 0.180737 0)
(-0.210613 0.253537 0)
(-0.174664 0.0650858 0)
(-0.180174 0.126697 0)
(-0.194882 0.199006 0)
(-0.207065 0.277133 0)
(-0.191228 0.076187 0)
(-0.18715 0.137902 0)
(-0.187661 0.208269 0)
(-0.194533 0.28769 0)
(-0.179006 0.0824141 0)
(-0.193053 0.15051 0)
(-0.182414 0.216426 0)
(-0.176082 0.289419 0)
(-0.0823731 0.114407 0)
(-0.178122 0.14676 0)
(-0.180935 0.224386 0)
(-0.16086 0.2926 0)
(-0.0358834 0.186394 0)
(-0.0724412 0.172324 0)
(-0.167884 0.203769 0)
(-0.154334 0.293309 0)
(0.0203827 0.236012 0)
(-0.0157881 0.242241 0)
(-0.0466139 0.225818 0)
(-0.13895 0.246228 0)
(0.073562 0.2655 0)
(0.047919 0.283368 0)
(0.021952 0.290923 0)
(-0.00667052 0.271859 0)
(0.113527 0.281847 0)
(0.0997787 0.302636 0)
(0.0842777 0.320884 0)
(0.0646371 0.328842 0)
(0.138565 0.29013 0)
(0.132951 0.310631 0)
(0.126881 0.330799 0)
(0.117889 0.348267 0)
(0.150164 0.293469 0)
(0.148629 0.313009 0)
(0.148034 0.332407 0)
(0.147175 0.350956 0)
(0.149877 0.294537 0)
(0.14931 0.312809 0)
(0.149986 0.331017 0)
(0.15161 0.34843 0)
(0.139483 0.295853 0)
(0.137467 0.313005 0)
(0.136252 0.330128 0)
(0.13572 0.346613 0)
(0.121223 0.299404 0)
(0.11604 0.3161 0)
(0.110812 0.332825 0)
(0.105354 0.349182 0)
(0.0975667 0.306514 0)
(0.0882355 0.323692 0)
(0.0778641 0.341068 0)
(0.0661571 0.358449 0)
(0.0709693 0.317862 0)
(0.0571781 0.336527 0)
(0.041383 0.355677 0)
(0.0232051 0.375295 0)
(0.0436999 0.333562 0)
(0.0256862 0.35464 0)
(0.00485618 0.376575 0)
(-0.0192075 0.399487 0)
(0.0177392 0.353273 0)
(-0.00384807 0.377516 0)
(-0.0288416 0.403023 0)
(-0.0576426 0.430007 0)
(-0.00528393 0.376295 0)
(-0.0295099 0.404236 0)
(-0.0574795 0.433824 0)
(-0.0895428 0.46533 0)
(-0.0241187 0.401681 0)
(-0.0498849 0.433606 0)
(-0.0794938 0.467506 0)
(-0.113211 0.503666 0)
(-0.037923 0.428341 0)
(-0.0640699 0.464296 0)
(-0.0939557 0.502481 0)
(-0.127734 0.543147 0)
(0.351534 -0.204879 0)
(0.317495 -0.31759 0)
(0.193259 -0.296334 0)
(-0.081577 0.49663 0)
(-0.356086 2.0997 0)
(-0.318229 3.57123 0)
(-0.168283 3.28662 0)
(-0.176781 2.17822 0)
(-0.312679 1.38788 0)
(-0.474099 1.02882 0)
(-0.592905 0.873754 0)
(-0.735491 0.708409 0)
(-0.836249 0.518202 0)
(-0.895309 0.298147 0)
(-0.911511 0.0810317 0)
(-0.902024 -0.105664 0)
(-0.851932 -0.251825 0)
(-0.785063 -0.364775 0)
(-0.709602 -0.438878 0)
(-0.636247 -0.480266 0)
(-0.571997 -0.49802 0)
(-0.521306 -0.500326 0)
(-0.485232 -0.493812 0)
(-0.455551 -0.483924 0)
(-0.426313 -0.481571 0)
(-0.446862 -0.51549 0)
(-0.284276 -0.578523 0)
(-0.18241 -0.71766 0)
(-0.146513 -0.814796 0)
(-0.147869 -0.866929 0)
(-0.142382 -0.888028 0)
(-0.138416 -0.886995 0)
(-0.13234 -0.869311 0)
(-0.121742 -0.841607 0)
(-0.107449 -0.809187 0)
(-0.0913538 -0.77553 0)
(-0.0757225 -0.742273 0)
(-0.0625034 -0.708644 0)
(-0.0592316 -0.667361 0)
(-0.0310258 -0.540308 0)
(0.262352 -0.177995 0)
(0.26007 -0.282072 0)
(-0.0869893 -0.0316579 0)
(-0.410124 0.665146 0)
(-0.621355 2.1123 0)
(-0.460783 3.34902 0)
(-0.128936 3.17025 0)
(-0.0518026 2.24179 0)
(-0.190156 1.49496 0)
(-0.406075 1.18033 0)
(-0.512298 0.977692 0)
(-0.616245 0.777641 0)
(-0.667178 0.556736 0)
(-0.678734 0.312286 0)
(-0.671856 0.0708726 0)
(-0.654934 -0.133024 0)
(-0.59263 -0.294356 0)
(-0.528693 -0.415554 0)
(-0.465078 -0.489232 0)
(-0.408942 -0.524933 0)
(-0.363496 -0.534176 0)
(-0.330047 -0.52711 0)
(-0.307065 -0.512878 0)
(-0.286016 -0.501015 0)
(-0.265572 -0.509166 0)
(-0.292336 -0.571279 0)
(-0.10809 -0.633928 0)
(-0.0733657 -0.761739 0)
(-0.0594611 -0.828499 0)
(-0.0663293 -0.869368 0)
(-0.0673914 -0.88787 0)
(-0.0693284 -0.887952 0)
(-0.0687619 -0.87298 0)
(-0.0644506 -0.847987 0)
(-0.057158 -0.817353 0)
(-0.0484372 -0.78408 0)
(-0.040189 -0.749548 0)
(-0.0338196 -0.713136 0)
(-0.0353633 -0.670333 0)
(-0.0205974 -0.570845 0)
(0.161792 -0.164248 0)
(-0.0760054 -0.154324 0)
(-0.305788 0.140863 0)
(-0.629121 0.856843 0)
(-0.769604 2.12675 0)
(-0.553345 3.0787 0)
(-0.174467 2.97436 0)
(-0.0473899 2.24449 0)
(-0.218801 1.61172 0)
(-0.368574 1.28286 0)
(-0.446337 1.03813 0)
(-0.49185 0.808373 0)
(-0.498695 0.562325 0)
(-0.479695 0.305492 0)
(-0.45002 0.0604855 0)
(-0.411702 -0.168505 0)
(-0.337917 -0.341118 0)
(-0.280805 -0.460774 0)
(-0.234049 -0.527848 0)
(-0.199111 -0.555384 0)
(-0.174915 -0.556399 0)
(-0.160098 -0.542162 0)
(-0.151253 -0.523894 0)
(-0.139453 -0.514102 0)
(-0.125275 -0.530284 0)
(-0.122965 -0.609424 0)
(-0.00468199 -0.692077 0)
(0.00885762 -0.772591 0)
(0.00424778 -0.831044 0)
(-0.00331549 -0.866229 0)
(-0.00917747 -0.884317 0)
(-0.0145804 -0.885796 0)
(-0.0176205 -0.873098 0)
(-0.0178121 -0.850266 0)
(-0.0157089 -0.821052 0)
(-0.0124364 -0.788084 0)
(-0.00948453 -0.752576 0)
(-0.00793068 -0.714074 0)
(-0.0119231 -0.669022 0)
(-0.00794863 -0.583012 0)
(-0.127051 -0.194849 0)
(-0.191917 0.0154159 0)
(-0.455389 0.351502 0)
(-0.72578 1.08007 0)
(-0.813791 2.09418 0)
(-0.580497 2.8208 0)
(-0.225864 2.78523 0)
(-0.0909875 2.22755 0)
(-0.223326 1.71392 0)
(-0.286076 1.35051 0)
(-0.333236 1.06501 0)
(-0.338071 0.808689 0)
(-0.309429 0.548605 0)
(-0.262209 0.285936 0)
(-0.223685 0.0175507 0)
(-0.145395 -0.214776 0)
(-0.0841474 -0.385922 0)
(-0.0453004 -0.494199 0)
(-0.022718 -0.550231 0)
(-0.0125154 -0.568982 0)
(-0.0107307 -0.563299 0)
(-0.0148138 -0.544725 0)
(-0.020538 -0.526756 0)
(-0.0165609 -0.52456 0)
(-0.0030225 -0.550918 0)
(0.049129 -0.633316 0)
(0.0574273 -0.710601 0)
(0.0637557 -0.774373 0)
(0.0527467 -0.826134 0)
(0.0433684 -0.860275 0)
(0.0349899 -0.878852 0)
(0.0276409 -0.881673 0)
(0.0221242 -0.87071 0)
(0.0186064 -0.849495 0)
(0.0168679 -0.821415 0)
(0.0162196 -0.788757 0)
(0.0154636 -0.752539 0)
(0.0134343 -0.71242 0)
(0.00718897 -0.66528 0)
(0.00472861 -0.58474 0)
(-0.176345 -0.0462523 0)
(-0.296387 0.166694 0)
(-0.540208 0.553819 0)
(-0.752491 1.20988 0)
(-0.774417 2.02138 0)
(-0.53381 2.58842 0)
(-0.207698 2.6162 0)
(-0.0604572 2.21938 0)
(-0.128393 1.76169 0)
(-0.1495 1.38649 0)
(-0.16259 1.0742 0)
(-0.136568 0.79263 0)
(-0.0829269 0.518669 0)
(-0.0235547 0.239362 0)
(0.052486 -0.0382016 0)
(0.126901 -0.260725 0)
(0.158926 -0.415459 0)
(0.167435 -0.507465 0)
(0.160456 -0.552334 0)
(0.144842 -0.564308 0)
(0.125113 -0.554687 0)
(0.10316 -0.534929 0)
(0.0830347 -0.521227 0)
(0.0798986 -0.529724 0)
(0.0983961 -0.565555 0)
(0.102057 -0.647428 0)
(0.103809 -0.707078 0)
(0.0995775 -0.770106 0)
(0.0872688 -0.818772 0)
(0.0766648 -0.852985 0)
(0.0670544 -0.872304 0)
(0.058435 -0.876219 0)
(0.0509568 -0.86642 0)
(0.0448027 -0.846388 0)
(0.040247 -0.819328 0)
(0.0370004 -0.787096 0)
(0.0339498 -0.750352 0)
(0.0296009 -0.708675 0)
(0.0218657 -0.658977 0)
(0.0145762 -0.576054 0)
(-0.247968 0.0574736 0)
(-0.36194 0.309463 0)
(-0.570089 0.701025 0)
(-0.712523 1.27538 0)
(-0.675778 1.92187 0)
(-0.432361 2.36843 0)
(-0.119695 2.43913 0)
(0.0601649 2.18297 0)
(0.0593749 1.78454 0)
(0.0579243 1.40234 0)
(0.0758776 1.06824 0)
(0.124192 0.758827 0)
(0.181888 0.458508 0)
(0.272733 0.168045 0)
(0.350826 -0.0875424 0)
(0.378657 -0.286158 0)
(0.370823 -0.418257 0)
(0.343656 -0.495615 0)
(0.307247 -0.533018 0)
(0.268245 -0.542129 0)
(0.23003 -0.532041 0)
(0.192822 -0.514131 0)
(0.161493 -0.506886 0)
(0.159684 -0.523908 0)
(0.143365 -0.594263 0)
(0.128808 -0.638493 0)
(0.132691 -0.702036 0)
(0.122483 -0.762508 0)
(0.109988 -0.810458 0)
(0.0987568 -0.844986 0)
(0.0882372 -0.864973 0)
(0.0782932 -0.869556 0)
(0.0687947 -0.860413 0)
(0.0603233 -0.841419 0)
(0.053865 -0.815574 0)
(0.0493144 -0.784074 0)
(0.0454188 -0.747009 0)
(0.0402258 -0.703645 0)
(0.0321536 -0.650285 0)
(0.021567 -0.560163 0)
(-0.304345 0.156447 0)
(-0.380608 0.437516 0)
(-0.54389 0.810429 0)
(-0.624542 1.2967 0)
(-0.547461 1.80388 0)
(-0.308041 2.15238 0)
(-0.0051363 2.24006 0)
(0.216919 2.08928 0)
(0.306049 1.76664 0)
(0.334219 1.39246 0)
(0.373915 1.0373 0)
(0.441596 0.700813 0)
(0.521181 0.391203 0)
(0.582089 0.12063 0)
(0.600862 -0.106276 0)
(0.579177 -0.276775 0)
(0.531927 -0.390769 0)
(0.473724 -0.45952 0)
(0.413294 -0.494773 0)
(0.355635 -0.505377 0)
(0.302922 -0.498556 0)
(0.254611 -0.484438 0)
(0.220273 -0.481136 0)
(0.221912 -0.504739 0)
(0.152733 -0.572409 0)
(0.151555 -0.62723 0)
(0.148341 -0.6947 0)
(0.13544 -0.754057 0)
(0.123028 -0.801581 0)
(0.111044 -0.836287 0)
(0.099195 -0.856539 0)
(0.0870914 -0.861235 0)
(0.0748762 -0.85254 0)
(0.0643436 -0.834935 0)
(0.0570555 -0.81097 0)
(0.0526131 -0.780751 0)
(0.0494177 -0.743654 0)
(0.0449563 -0.698575 0)
(0.0382544 -0.640811 0)
(0.026173 -0.53876 0)
(-0.342126 0.239081 0)
(-0.36056 0.537254 0)
(-0.476868 0.882758 0)
(-0.510498 1.28454 0)
(-0.411262 1.67649 0)
(-0.183966 1.94338 0)
(0.102561 2.02622 0)
(0.359214 1.93455 0)
(0.543837 1.68004 0)
(0.642669 1.33952 0)
(0.716285 0.983278 0)
(0.774164 0.650691 0)
(0.804196 0.361485 0)
(0.80384 0.115619 0)
(0.770697 -0.0849863 0)
(0.710559 -0.235326 0)
(0.63553 -0.338946 0)
(0.556386 -0.40493 0)
(0.478941 -0.442077 0)
(0.407023 -0.457875 0)
(0.343685 -0.457954 0)
(0.291171 -0.44707 0)
(0.262375 -0.437313 0)
(0.178208 -0.524723 0)
(0.158963 -0.552365 0)
(0.163147 -0.619426 0)
(0.153488 -0.686873 0)
(0.140552 -0.745111 0)
(0.127743 -0.792056 0)
(0.114466 -0.826508 0)
(0.100222 -0.846423 0)
(0.0838486 -0.850633 0)
(0.0676471 -0.842528 0)
(0.0560076 -0.827563 0)
(0.0493565 -0.806595 0)
(0.0465965 -0.778322 0)
(0.0457041 -0.74151 0)
(0.0434952 -0.694781 0)
(0.0400096 -0.632199 0)
(0.027482 -0.514267 0)
(-0.396948 0.29789 0)
(-0.321328 0.597893 0)
(-0.387899 0.919873 0)
(-0.387622 1.24949 0)
(-0.279508 1.54884 0)
(-0.0707304 1.74803 0)
(0.191511 1.81233 0)
(0.45344 1.7422 0)
(0.673961 1.54271 0)
(0.824906 1.25513 0)
(0.916167 0.93535 0)
(0.955512 0.632548 0)
(0.9529 0.367471 0)
(0.917735 0.144062 0)
(0.856182 -0.0364112 0)
(0.776299 -0.173962 0)
(0.687663 -0.272433 0)
(0.597004 -0.338247 0)
(0.507586 -0.378727 0)
(0.423839 -0.402159 0)
(0.35345 -0.410826 0)
(0.309423 -0.397013 0)
(0.277568 -0.399128 0)
(0.159926 -0.473338 0)
(0.167313 -0.538449 0)
(0.164849 -0.611643 0)
(0.152307 -0.678643 0)
(0.1392 -0.735433 0)
(0.124913 -0.781408 0)
(0.109623 -0.814508 0)
(0.0896768 -0.832784 0)
(0.0650965 -0.836258 0)
(0.0456821 -0.830939 0)
(0.035615 -0.820828 0)
(0.0310419 -0.803773 0)
(0.031582 -0.778083 0)
(0.0344683 -0.741719 0)
(0.0356559 -0.693231 0)
(0.0362316 -0.625961 0)
(0.0229653 -0.490072 0)
(-0.429935 0.340217 0)
(-0.277435 0.617857 0)
(-0.292964 0.9268 0)
(-0.26883 1.20036 0)
(-0.15907 1.42698 0)
(0.0289034 1.57117 0)
(0.261161 1.61259 0)
(0.502256 1.55076 0)
(0.716835 1.3893 0)
(0.875327 1.15424 0)
(0.969462 0.885924 0)
(1.00407 0.623178 0)
(0.992167 0.387802 0)
(0.946285 0.187461 0)
(0.876442 0.0235763 0)
(0.791938 -0.104703 0)
(0.699845 -0.199163 0)
(0.603497 -0.263897 0)
(0.504648 -0.30656 0)
(0.411285 -0.336942 0)
(0.338366 -0.348352 0)
(0.286775 -0.324868 0)
(0.166778 -0.388559 0)
(0.165442 -0.451279 0)
(0.170049 -0.530208 0)
(0.159904 -0.60455 0)
(0.146721 -0.669353 0)
(0.131911 -0.724303 0)
(0.115226 -0.767985 0)
(0.0941871 -0.797877 0)
(0.0621417 -0.811579 0)
(0.0299151 -0.817166 0)
(0.0135718 -0.819953 0)
(0.0055007 -0.815792 0)
(0.00383301 -0.803684 0)
(0.00884628 -0.781248 0)
(0.0166091 -0.74523 0)
(0.0217064 -0.694258 0)
(0.0242477 -0.622719 0)
(0.0135397 -0.468776 0)
(-0.311249 0.253438 0)
(-0.267945 0.608673 0)
(-0.21488 0.9092 0)
(-0.168293 1.14102 0)
(-0.0564099 1.31207 0)
(0.113534 1.41386 0)
(0.315857 1.43587 0)
(0.525436 1.37859 0)
(0.71457 1.24594 0)
(0.858718 1.05554 0)
(0.946288 0.835346 0)
(0.979093 0.614085 0)
(0.967168 0.410687 0)
(0.922107 0.233447 0)
(0.854551 0.08459 0)
(0.773198 -0.034933 0)
(0.682699 -0.123798 0)
(0.583813 -0.184872 0)
(0.478897 -0.226859 0)
(0.385541 -0.258275 0)
(0.312467 -0.264208 0)
(0.183265 -0.307685 0)
(0.160483 -0.361854 0)
(0.168559 -0.44208 0)
(0.16406 -0.5238 0)
(0.151671 -0.59621 0)
(0.137018 -0.658182 0)
(0.119499 -0.710062 0)
(0.0976205 -0.749368 0)
(0.0617323 -0.772291 0)
(0.0190863 -0.784564 0)
(-0.0100729 -0.797733 0)
(-0.0230669 -0.809878 0)
(-0.0306758 -0.812776 0)
(-0.0293494 -0.806831 0)
(-0.0197507 -0.788626 0)
(-0.00638065 -0.752647 0)
(0.00310221 -0.697805 0)
(0.0042719 -0.621896 0)
(0.00482981 -0.45896 0)
(-0.25192 0.227607 0)
(-0.360832 0.601169 0)
(-0.189742 0.861098 0)
(-0.102441 1.06471 0)
(0.019302 1.19848 0)
(0.17871 1.2724 0)
(0.356533 1.28217 0)
(0.535468 1.23057 0)
(0.694968 1.1223 0)
(0.816808 0.96898 0)
(0.891737 0.789896 0)
(0.920325 0.606046 0)
(0.909551 0.432545 0)
(0.868477 0.277014 0)
(0.806141 0.142485 0)
(0.730185 0.0322565 0)
(0.643019 -0.0488186 0)
(0.544191 -0.104605 0)
(0.441994 -0.143505 0)
(0.374896 -0.16692 0)
(0.224716 -0.244038 0)
(0.152167 -0.267057 0)
(0.163383 -0.347733 0)
(0.164408 -0.436203 0)
(0.15451 -0.517223 0)
(0.141178 -0.585879 0)
(0.123943 -0.643845 0)
(0.102384 -0.690209 0)
(0.0647868 -0.721116 0)
(0.0141732 -0.737545 0)
(-0.0271824 -0.756732 0)
(-0.0480986 -0.781867 0)
(-0.0617307 -0.800934 0)
(-0.0686318 -0.81135 0)
(-0.0654101 -0.812614 0)
(-0.0526957 -0.800181 0)
(-0.0334851 -0.763209 0)
(-0.0177438 -0.702309 0)
(-0.0161513 -0.622847 0)
(-0.00767873 -0.466473 0)
(-0.225929 0.316255 0)
(-0.44222 0.585939 0)
(-0.204982 0.780314 0)
(-0.069524 0.965569 0)
(0.0643943 1.07811 0)
(0.21861 1.13991 0)
(0.377797 1.14619 0)
(0.531583 1.104 0)
(0.663958 1.01911 0)
(0.762405 0.897432 0)
(0.822294 0.752477 0)
(0.844841 0.600217 0)
(0.834527 0.452873 0)
(0.796951 0.317463 0)
(0.738798 0.196892 0)
(0.66753 0.0961182 0)
(0.582911 0.0247841 0)
(0.485871 -0.0249827 0)
(0.398702 -0.0600712 0)
(0.361202 -0.0606642 0)
(0.149012 -0.16035 0)
(0.158094 -0.244602 0)
(0.162895 -0.340705 0)
(0.155137 -0.431519 0)
(0.144056 -0.508787 0)
(0.128836 -0.57272 0)
(0.108914 -0.624 0)
(0.0732459 -0.661039 0)
(0.0167475 -0.680377 0)
(-0.0354346 -0.701357 0)
(-0.0645162 -0.733929 0)
(-0.0834633 -0.766909 0)
(-0.0978903 -0.792962 0)
(-0.103735 -0.810425 0)
(-0.10041 -0.819206 0)
(-0.087983 -0.814216 0)
(-0.0649332 -0.779434 0)
(-0.0364417 -0.706937 0)
(-0.0243913 -0.621776 0)
(-0.0283927 -0.480674 0)
(-0.20744 0.359501 0)
(-0.229801 0.433571 0)
(-0.235891 0.760585 0)
(-0.0612938 0.876964 0)
(0.0830948 0.960167 0)
(0.230855 1.01478 0)
(0.373277 1.02198 0)
(0.50731 0.993537 0)
(0.61677 0.933842 0)
(0.693683 0.840084 0)
(0.739637 0.722838 0)
(0.756777 0.596293 0)
(0.746975 0.471612 0)
(0.711858 0.355887 0)
(0.655474 0.249536 0)
(0.586752 0.156446 0)
(0.500996 0.0975143 0)
(0.404938 0.0671889 0)
(0.32063 0.0439836 0)
(0.155721 -0.0379218 0)
(0.158453 -0.131667 0)
(0.163254 -0.234845 0)
(0.155416 -0.335731 0)
(0.144702 -0.42509 0)
(0.132768 -0.498147 0)
(0.116402 -0.554829 0)
(0.0860795 -0.596415 0)
(0.0297476 -0.617271 0)
(-0.0324798 -0.636188 0)
(-0.0693366 -0.671813 0)
(-0.0932412 -0.714106 0)
(-0.112978 -0.753557 0)
(-0.125478 -0.78545 0)
(-0.130417 -0.809304 0)
(-0.127963 -0.824624 0)
(-0.118129 -0.828049 0)
(-0.0981927 -0.810181 0)
(-0.0485385 -0.732126 0)
(0.00378566 -0.614309 0)
(-0.0341279 -0.497021 0)
(-0.192349 0.371835 0)
(-0.182981 0.452334 0)
(-0.182313 0.562701 0)
(-0.116416 0.843552 0)
(0.0720336 0.895835 0)
(0.2104 0.920017 0)
(0.338635 0.917901 0)
(0.458456 0.903083 0)
(0.54852 0.867547 0)
(0.606086 0.795249 0)
(0.641014 0.699121 0)
(0.654935 0.593254 0)
(0.646996 0.488339 0)
(0.61448 0.392724 0)
(0.557071 0.301568 0)
(0.487894 0.21232 0)
(0.399003 0.161383 0)
(0.327661 0.173734 0)
(0.173456 0.0875648 0)
(0.170368 -0.0124948 0)
(0.170887 -0.118034 0)
(0.160598 -0.226373 0)
(0.144846 -0.328435 0)
(0.133321 -0.416711 0)
(0.121973 -0.484282 0)
(0.100416 -0.531429 0)
(0.0511713 -0.554368 0)
(-0.016508 -0.56735 0)
(-0.0611332 -0.600267 0)
(-0.0893888 -0.647499 0)
(-0.113201 -0.696707 0)
(-0.13005 -0.741585 0)
(-0.139743 -0.779155 0)
(-0.143166 -0.80837 0)
(-0.140885 -0.828822 0)
(-0.132381 -0.839954 0)
(-0.116695 -0.842904 0)
(-0.0845341 -0.832758 0)
(0.0520996 -0.636874 0)
(0.0543505 -0.501606 0)
(-0.171281 0.372909 0)
(-0.155591 0.453651 0)
(-0.131787 0.525373 0)
(-0.066698 0.60344 0)
(0.0300678 0.724008 0)
(0.123146 0.870538 0)
(0.26068 0.874184 0)
(0.372402 0.872116 0)
(0.449278 0.839036 0)
(0.495067 0.772491 0)
(0.525748 0.688413 0)
(0.539069 0.597728 0)
(0.531917 0.506413 0)
(0.501353 0.42399 0)
(0.442803 0.351536 0)
(0.364019 0.279686 0)
(0.236722 0.271786 0)
(0.200738 0.201957 0)
(0.199063 0.104564 0)
(0.194 0.00362055 0)
(0.17776 -0.104299 0)
(0.152513 -0.21301 0)
(0.13242 -0.317856 0)
(0.122225 -0.406894 0)
(0.111212 -0.467372 0)
(0.0751093 -0.496284 0)
(0.0104346 -0.502787 0)
(-0.0399078 -0.525936 0)
(-0.0719046 -0.572232 0)
(-0.0981914 -0.626705 0)
(-0.118129 -0.681596 0)
(-0.130933 -0.73206 0)
(-0.137505 -0.7748 0)
(-0.139131 -0.808353 0)
(-0.136568 -0.832779 0)
(-0.129397 -0.84902 0)
(-0.118131 -0.859508 0)
(-0.104729 -0.861173 0)
(-0.0839807 -0.819452 0)
(0.130924 -0.119029 0)
(-0.143799 0.365868 0)
(-0.124943 0.445476 0)
(-0.0969904 0.515278 0)
(-0.058475 0.575383 0)
(0.00384966 0.632011 0)
(0.0849337 0.66855 0)
(0.14949 0.702385 0)
(0.198994 0.742331 0)
(0.289968 0.817025 0)
(0.360627 0.776024 0)
(0.404687 0.705269 0)
(0.418928 0.626873 0)
(0.39687 0.543578 0)
(0.342983 0.477459 0)
(0.317276 0.424623 0)
(0.285635 0.367976 0)
(0.259938 0.296795 0)
(0.248992 0.212435 0)
(0.235559 0.121289 0)
(0.212513 0.0223959 0)
(0.177049 -0.0816167 0)
(0.140486 -0.192472 0)
(0.119105 -0.305401 0)