/*--------------------------------*- C++ -*----------------------------------*\
| =========                 |                                                 |
| \\      /  F ield         | OpenFOAM: The Open Source CFD Toolbox           |
|  \\    /   O peration     | Version:  5.0                                   |
|   \\  /    A nd           | Web:      www.OpenFOAM.org                      |
|    \\/     M anipulation  |                                                 |
\*---------------------------------------------------------------------------*/
FoamFile
{
    version     2.0;
    format      ascii;
    class       volScalarField;
    location    "0.05";
    object      epsilon;
}
// * * * * * * * * * * * * * * * * * * * * * * * * * * * * * * * * * * * * * //

dimensions      [0 2 -3 0 0 0 0];

internalField   nonuniform List<scalar> 
1935
(
0.590292
0.755837
0.886508
0.967957
1.01364
1.03905
1.05418
1.0647
1.07362
1.08246
1.09201
1.10272
1.11496
1.12914
1.1458
1.16575
1.1902
1.22096
1.26076
1.31313
1.38273
1.46506
1.53036
1.56621
1.57667
1.58741
1.60386
1.53474
1.50818
1.41593
1.3104
1.22908
1.17772
1.14449
1.12026
1.10001
1.08131
1.06285
1.04363
1.0225
0.997884
0.966948
0.923913
0.856658
0.684627
0.564572
0.53849
0.523764
0.514756
0.509579
0.506975
0.506042
0.50616
0.506939
0.508156
0.509705
0.511561
0.513766
0.51642
0.519708
0.523936
0.529598
0.537452
0.548548
0.563356
0.580705
0.595256
0.606893
0.618564
0.638765
0.679042
0.731267
0.809447
0.870392
0.867728
0.809408
0.732393
0.670963
0.630836
0.606546
0.591803
0.582734
0.577392
0.574932
0.575036
0.57742
0.581224
0.584344
0.776135
0.532004
0.446422
0.400143
0.373687
0.358543
0.350073
0.345566
0.343389
0.34257
0.342542
0.342996
0.343785
0.344869
0.346287
0.348156
0.350685
0.354192
0.3591
0.365792
0.373966
0.382293
0.388305
0.393308
0.402706
0.429804
0.482632
0.519231
0.562232
0.622657
0.646429
0.611765
0.553935
0.50099
0.463914
0.440478
0.426184
0.417867
0.413947
0.414035
0.418646
0.429128
0.447915
0.480076
0.833502
0.514207
0.39698
0.335102
0.30014
0.279957
0.268326
0.261776
0.258263
0.256562
0.255942
0.255981
0.256456
0.257275
0.258435
0.26001
0.262143
0.265034
0.268878
0.273701
0.278955
0.283391
0.28564
0.287105
0.292713
0.312386
0.34338
0.37344
0.398962
0.424339
0.444147
0.436017
0.407645
0.376827
0.352446
0.335518
0.324551
0.31813
0.31561
0.317214
0.3241
0.338657
0.365411
0.414254
0.868739
0.502364
0.366777
0.296078
0.25631
0.233188
0.219605
0.211699
0.207238
0.204878
0.203802
0.203522
0.203761
0.204383
0.205347
0.206683
0.208467
0.210796
0.213714
0.217073
0.220315
0.222486
0.222943
0.22307
0.226803
0.240092
0.257177
0.282844
0.303776
0.313003
0.321082
0.319293
0.306545
0.29012
0.275424
0.264241
0.256588
0.252177
0.251052
0.253899
0.262314
0.279348
0.310895
0.370147
0.890586
0.494146
0.347485
0.271421
0.228676
0.203673
0.188776
0.179906
0.174728
0.171838
0.170374
0.169804
0.169815
0.170234
0.170986
0.172057
0.17347
0.175247
0.177347
0.179573
0.181474
0.182445
0.182362
0.182609
0.186255
0.19635
0.206801
0.225318
0.239291
0.243308
0.246448
0.245919
0.239873
0.230987
0.222192
0.214994
0.209915
0.207198
0.207286
0.211149
0.220665
0.239326
0.273992
0.34025
0.904761
0.488336
0.334845
0.255378
0.210669
0.184372
0.168535
0.158943
0.153203
0.14988
0.148081
0.147251
0.147045
0.147265
0.147804
0.148615
0.149681
0.150977
0.152432
0.153865
0.154975
0.155465
0.15555
0.156542
0.160724
0.169405
0.176574
0.188509
0.196257
0.198191
0.199398
0.198949
0.195669
0.190553
0.185154
0.180538
0.177296
0.175881
0.17693
0.181574
0.191866
0.211615
0.248443
0.319924
0.914589
0.484179
0.326419
0.24475
0.198694
0.171464
0.154922
0.144771
0.138582
0.1349
0.132817
0.131756
0.131356
0.131392
0.131736
0.132315
0.133086
0.134004
0.134994
0.135927
0.136641
0.137078
0.137646
0.139518
0.144349
0.15255
0.158304
0.164928
0.167931
0.168311
0.168474
0.167839
0.165728
0.162537
0.159099
0.156131
0.154161
0.153697
0.155456
0.160646
0.17142
0.191826
0.23018
0.306121
0.921912
0.481172
0.320725
0.23763
0.190636
0.162718
0.145633
0.13504
0.128488
0.12451
0.122186
0.120928
0.120356
0.120231
0.120407
0.120794
0.121333
0.121973
0.122654
0.123303
0.123876
0.124478
0.125614
0.12831
0.133798
0.142173
0.147595
0.149979
0.149258
0.148143
0.147471
0.146582
0.144988
0.142827
0.140554
0.138646
0.137544
0.137747
0.139989
0.145492
0.156444
0.17705
0.216281
0.296414
0.927745
0.478975
0.316825
0.232821
0.185179
0.156751
0.139247
0.128304
0.121459
0.117238
0.114714
0.113288
0.112571
0.112311
0.112348
0.112582
0.112947
0.113394
0.113885
0.114398
0.114978
0.115836
0.117519
0.120942
0.127098
0.136106
0.141688
0.140607
0.136913
0.134343
0.132896
0.131729
0.130364
0.128783
0.127224
0.126005
0.125486
0.126134
0.128656
0.134241
0.145028
0.165219
0.204181
0.287138
0.932665
0.477338
0.31409
0.229519
0.181436
0.152635
0.134809
0.123589
0.116509
0.11209
0.1094
0.107835
0.106997
0.106625
0.106552
0.106668
0.106908
0.107229
0.107613
0.108082
0.108746
0.109883
0.112061
0.116123
0.122963
0.132869
0.138733
0.134748
0.128651
0.124741
0.122565
0.121115
0.119839
0.118598
0.11749
0.116725
0.116592
0.11751
0.120137
0.125574
0.135808
0.154742
0.191128
0.268371
0.937021
0.476089
0.312118
0.227218
0.178855
0.149792
0.131728
0.120296
0.113031
0.108454
0.105631
0.103953
0.103017
0.102555
0.102395
0.102425
0.102577
0.102819
0.103152
0.103631
0.104413
0.105821
0.108435
0.113066
0.120595
0.131496
0.137552
0.131133
0.123124
0.118052
0.115223
0.113498
0.112234
0.111193
0.110372
0.1099
0.110008
0.111058
0.113635
0.118713
0.128012
0.144818
0.176127
0.238917
0.940977
0.475109
0.31065
0.225585
0.177064
0.147832
0.129602
0.118015
0.110612
0.105914
0.102988
0.101221
0.100208
0.0996766
0.0994502
0.0994167
0.0995111
0.0997076
0.100024
0.100542
0.101452
0.103106
0.106099
0.11124
0.119436
0.1313
0.137349
0.128927
0.119442
0.11342
0.110033
0.108057
0.106765
0.105837
0.105196
0.104907
0.105147
0.106221
0.108625
0.113177
0.121265
0.13539
0.160394
0.20632
0.944648
0.474309
0.309506
0.224384
0.175795
0.146469
0.128133
0.116441
0.108939
0.104153
0.10115
0.0993162
0.0982437
0.0976592
0.0973838
0.0973054
0.0973619
0.0975348
0.0978551
0.0984251
0.0994582
0.101333
0.104657
0.110257
0.119081
0.131795
0.137601
0.127572
0.116987
0.110224
0.106383
0.104189
0.10285
0.101982
0.101449
0.101267
0.101561
0.102578
0.104724
0.108646
0.115396
0.126715
0.145575
0.176976
0.948106
0.473631
0.308571
0.22346
0.174865
0.145501
0.127107
0.11535
0.107784
0.102938
0.0998799
0.0979979
0.096882
0.0962583
0.0959473
0.0958377
0.0958706
0.0960336
0.0963689
0.0969941
0.0981419
0.100211
0.103829
0.109845
0.119251
0.132668
0.138003
0.126718
0.115347
0.108032
0.103835
0.101459
0.100068
0.0992271
0.0987554
0.0986252
0.0989199
0.0998277
0.101665
0.104923
0.110349
0.119072
0.132744
0.153509
0.951392
0.473038
0.307771
0.222711
0.174153
0.14479
0.126375
0.114585
0.106982
0.102099
0.099005
0.0970899
0.0959435
0.0952919
0.0949557
0.0948251
0.0948439
0.0950056
0.0953611
0.0960407
0.097293
0.0995353
0.103417
0.109815
0.119759
0.13372
0.138387
0.126152
0.114247
0.106537
0.102071
0.0995498
0.0981085
0.0972759
0.0968341
0.0967207
0.0969802
0.0977491
0.0992625
0.101876
0.106098
0.112613
0.122266
0.135827
0.954533
0.472503
0.307058
0.222074
0.173579
0.144245
0.125835
0.114036
0.106417
0.101513
0.098399
0.0964631
0.0952966
0.0946259
0.0942726
0.0941283
0.0941397
0.0943052
0.094683
0.0954143
0.0967616
0.09916
0.103281
0.110033
0.120479
0.13483
0.13866
0.12574
0.113501
0.105523
0.100861
0.0982279
0.0967424
0.095907
0.0954754
0.0953565
0.0955613
0.0961809
0.0973824
0.0994124
0.1026
0.107344
0.114039
0.122874
0.957548
0.472009
0.306406
0.221508
0.173091
0.143803
0.125416
0.113626
0.106005
0.101096
0.0979723
0.0960252
0.0948466
0.0941638
0.0937994
0.0936467
0.0936551
0.0938273
0.0942281
0.0950079
0.0964421
0.0989831
0.103326
0.110411
0.121334
0.135938
0.138801
0.12541
0.112988
0.104838
0.100039
0.0973211
0.0957989
0.0949554
0.0945225
0.0943857
0.0945281
0.0950032
0.0959228
0.0974514
0.0997952
0.103174
0.107756
0.113516
0.960449
0.471545
0.305795
0.22099
0.172658
0.143428
0.125075
0.113304
0.105694
0.100788
0.0976627
0.0957115
0.094527
0.0938373
0.0934663
0.0933091
0.0933176
0.0934984
0.0939219
0.0947472
0.0962617
0.0989351
0.103487
0.110892
0.122286
0.13704
0.138835
0.125138
0.112633
0.104379
0.0994837
0.0967041
0.0951524
0.0942989
0.0938588
0.093699
0.0937799
0.0941249
0.0948035
0.0959204
0.0976002
0.0999601
0.103059
0.106812
0.963241
0.471101
0.305215
0.220504
0.172262
0.143095
0.124783
0.113039
0.105445
0.100549
0.0974286
0.0954784
0.0942923
0.0935995
0.0932254
0.0930665
0.0930772
0.0932675
0.0937134
0.0945815
0.0961712
0.0989694
0.103722
0.111443
0.12332
0.138138
0.138809
0.124924
0.112394
0.104076
0.0991124
0.0962867
0.0947117
0.0938483
0.093399
0.0932159
0.0932416
0.0934762
0.093958
0.0947499
0.0959245
0.0975413
0.0996114
0.102051
0.965931
0.470673
0.304658
0.220042
0.171891
0.142789
0.124523
0.112809
0.105237
0.100354
0.0972426
0.095297
0.0941124
0.0934195
0.0930446
0.0928859
0.0929003
0.0931009
0.0935685
0.0944773
0.0961379
0.0990552
0.104002
0.112038
0.124418
0.139221
0.13875
0.124764
0.112238
0.103879
0.0988656
0.096005
0.0944118
0.0935397
0.0930814
0.0928774
0.092857
0.0930028
0.0933305
0.093875
0.0946763
0.0957628
0.0971278
0.0987049
0.100347
0.968522
0.470255
0.30412
0.219599
0.171539
0.142503
0.124283
0.112603
0.105054
0.100188
0.0970875
0.0951487
0.0939679
0.0932768
0.0929029
0.092746
0.0927651
0.0929763
0.093465
0.0944127
0.096141
0.0991722
0.104308
0.112654
0.125545
0.140264
0.13867
0.12464
0.11214
0.103753
0.0987022
0.0958145
0.094207
0.0933278
0.0928618
0.092641
0.0925843
0.0926618
0.0928736
0.0932357
0.0937686
0.0944843
0.0953717
0.0963813
0.0974205
0.971014
0.469846
0.3036
0.219172
0.171202
0.142232
0.124059
0.112413
0.104888
0.10004
0.0969525
0.0950222
0.0938466
0.0931586
0.092787
0.092633
0.0926574
0.0928794
0.0933888
0.0943738
0.0961667
0.0993075
0.104626
0.113275
0.126664
0.141271
0.138611
0.124547
0.112079
0.103675
0.0985942
0.0956848
0.0940659
0.0931812
0.0927094
0.092476
0.0923923
0.0924196
0.0925472
0.0927791
0.0931241
0.0935857
0.0941532
0.0947928
0.0954443
0.973409
0.469445
0.303093
0.218759
0.170878
0.141973
0.123847
0.112234
0.104735
0.0999059
0.0968314
0.0949103
0.093741
0.0930571
0.0926886
0.0925382
0.0925685
0.0928015
0.093331
0.0943519
0.096207
0.0994532
0.104948
0.113892
0.12778
0.142275
0.138596
0.124491
0.112048
0.103628
0.0985228
0.0955954
0.0939672
0.0930784
0.0926028
0.0923606
0.092258
0.0922498
0.0923184
0.0924602
0.0926769
0.0929679
0.0933244
0.0937237
0.0941276
0.975709
0.46905
0.302601
0.218359
0.170565
0.141724
0.123644
0.112066
0.104592
0.099781
0.0967202
0.094809
0.0936465
0.0929673
0.0926026
0.0924564
0.0924929
0.0927368
0.093286
0.0943416
0.0962567
0.0996048
0.105271
0.114505
0.128892
0.143289
0.138662
0.124487
0.112046
0.103606
0.0984761
0.0955326
0.0938967
0.093005
0.0925272
0.0922796
0.0921644
0.0921322
0.0921608
0.092242
0.0923732
0.092552
0.0927715
0.0930168
0.0932632
0.977914
0.46866
0.302121
0.217971
0.170262
0.141484
0.12345
0.111905
0.104456
0.0996637
0.0966168
0.0947157
0.0935604
0.0928864
0.0925259
0.0923841
0.0924272
0.092682
0.0932504
0.0943398
0.096313
0.0997595
0.105591
0.115108
0.129988
0.144297
0.138801
0.124532
0.112069
0.1036
0.098446
0.0954877
0.0938452
0.0929515
0.0924728
0.0922223
0.0920992
0.0920515
0.0920539
0.0920953
0.0921709
0.0922774
0.0924094
0.092557
0.0927042
0.980026
0.468276
0.301653
0.217594
0.16997
0.141253
0.123263
0.111751
0.104326
0.099553
0.09652
0.094629
0.093481
0.0928125
0.0924565
0.0923195
0.0923692
0.0926349
0.0932223
0.0943445
0.096374
0.0999158
0.105907
0.115692
0.131025
0.145282
0.139026
0.124616
0.11211
0.103607
0.0984274
0.0954548
0.0938066
0.0929116
0.092433
0.0921813
0.0920538
0.0919965
0.0919824
0.0919983
0.0920384
0.0920989
0.0921758
0.0922622
0.0923475
0.982044
0.467894
0.301195
0.217227
0.169686
0.141031
0.123084
0.111604
0.104203
0.0994481
0.0964288
0.0945479
0.0934074
0.0927445
0.0923933
0.0922612
0.0923176
0.0925942
0.0932002
0.0943546
0.0964389
0.100073
0.106218
0.116257
0.132008
0.146255
0.139318
0.124729
0.112164
0.103622
0.0984167
0.0954305
0.093777
0.0928814
0.0924035
0.0921519
0.0920222
0.0919593
0.0919349
0.0919349
0.0919526
0.0919844
0.0920269
0.0920753
0.0921221
0.983971
0.467516
0.300747
0.216871
0.169412
0.140816
0.122912
0.111463
0.104086
0.0993486
0.0963427
0.0944719
0.0933389
0.0926817
0.0923353
0.0922083
0.0922716
0.0925591
0.0931835
0.0943695
0.0965076
0.100232
0.106526
0.116811
0.132963
0.147231
0.139668
0.124876
0.112233
0.103644
0.098412
0.0954123
0.0937542
0.0928583
0.0923816
0.0921307
0.0920003
0.0919343
0.0919037
0.0918938
0.0918976
0.0919114
0.0919324
0.0919573
0.0919803
0.985806
0.467139
0.300309
0.216523
0.169145
0.140609
0.122747
0.111328
0.103974
0.0992541
0.0962614
0.0944005
0.093275
0.0926235
0.0922821
0.0921603
0.0922305
0.0925289
0.0931717
0.0943889
0.09658
0.100393
0.106834
0.117359
0.133905
0.148213
0.140071
0.12506
0.112318
0.103675
0.0984124
0.095399
0.0937366
0.0928409
0.0923656
0.092116
0.0919857
0.091918
0.0918836
0.0918675
0.0918625
0.0918649
0.0918726
0.0918826
0.0918906
0.987549
0.466764
0.29988
0.216185
0.168887
0.140408
0.122588
0.111199
0.103867
0.0991643
0.0961845
0.0943335
0.0932153
0.0925696
0.0922331
0.0921166
0.0921939
0.0925033
0.0931645
0.0944129
0.0966567
0.100558
0.107142
0.117903
0.134834
0.149196
0.140518
0.125276
0.112419
0.103712
0.0984173
0.0953901
0.0937237
0.0928283
0.0923548
0.0921066
0.0919768
0.0919082
0.0918713
0.0918511
0.0918403
0.0918354
0.0918344
0.0918348
0.091833
0.9892
0.466393
0.299461
0.215855
0.168637
0.140215
0.122435
0.111075
0.103765
0.099079
0.0961119
0.0942704
0.0931595
0.0925196
0.0921882
0.0920771
0.0921616
0.0924821
0.0931618
0.0944416
0.0967381
0.100727
0.107454
0.118447
0.135751
0.15018
0.141002
0.125518
0.112533
0.103756
0.0984265
0.0953852
0.0937151
0.0928204
0.0923487
0.092102
0.0919727
0.0919036
0.0918649
0.0918418
0.0918269
0.0918168
0.0918098
0.0918037
0.0917953
0.990759
0.466025
0.299051
0.215534
0.168394
0.140028
0.122287
0.110957
0.103668
0.0989979
0.0960432
0.0942111
0.0931075
0.0924734
0.0921471
0.0920415
0.0921333
0.0924653
0.0931638
0.0944754
0.0968252
0.100902
0.107772
0.118995
0.136665
0.15117
0.141518
0.125783
0.112659
0.103806
0.0984401
0.0953846
0.0937111
0.0928174
0.0923476
0.0921023
0.0919734
0.0919037
0.0918634
0.0918377
0.0918195
0.0918054
0.0917939
0.0917831
0.0917698
0.992227
0.465661
0.29865
0.215222
0.168157
0.139846
0.122145
0.110843
0.103575
0.0989208
0.0959782
0.0941555
0.093059
0.0924306
0.0921095
0.0920096
0.092109
0.0924527
0.0931707
0.0945149
0.0969191
0.101085
0.1081
0.119553
0.137584
0.152175
0.142068
0.126071
0.112796
0.103863
0.0984584
0.0953887
0.0937123
0.0928198
0.0923518
0.0921077
0.0919789
0.0919082
0.0918661
0.091838
0.0918167
0.0917993
0.091784
0.0917693
0.0917522
0.993605
0.4653
0.298258
0.214917
0.167928
0.139671
0.122008
0.110733
0.103486
0.0988474
0.0959168
0.0941032
0.0930138
0.0923912
0.0920754
0.0919814
0.0920887
0.0924447
0.0931829
0.0945609
0.0970212
0.101279
0.108441
0.120127
0.138519
0.153206
0.142656
0.126383
0.112947
0.103926
0.0984822
0.0953983
0.0937195
0.0928283
0.0923621
0.0921188
0.0919897
0.0919176
0.0918733
0.0918424
0.091818
0.0917972
0.0917784
0.0917602
0.0917398
0.994894
0.464943
0.297874
0.214619
0.167705
0.139502
0.121876
0.110628
0.103401
0.0987778
0.0958588
0.0940541
0.0929718
0.0923551
0.0920447
0.0919568
0.0920725
0.0924415
0.093201
0.0946145
0.0971336
0.101487
0.108802
0.120725
0.139482
0.154276
0.143289
0.126724
0.113112
0.103998
0.0985125
0.0954146
0.0937338
0.0928443
0.0923796
0.0921366
0.0920064
0.0919322
0.0918852
0.091851
0.0918231
0.0917987
0.0917764
0.0917548
0.0917312
0.996096
0.46459
0.297499
0.214329
0.167488
0.139338
0.121749
0.110528
0.10332
0.0987116
0.0958041
0.0940084
0.0929331
0.0923223
0.0920176
0.0919361
0.0920608
0.0924438
0.0932262
0.0946776
0.0972589
0.101713
0.109187
0.121358
0.140489
0.1554
0.143976
0.127098
0.113294
0.10408
0.0985508
0.0954393
0.093757
0.0928691
0.0924055
0.0921621
0.09203
0.0919528
0.0919021
0.0918639
0.091832
0.0918036
0.0917775
0.0917524
0.0917255
0.997213
0.464238
0.297131
0.214047
0.167278
0.139179
0.121627
0.110431
0.103243
0.0986491
0.0957528
0.0939659
0.0928977
0.092293
0.0919942
0.0919198
0.0920543
0.0924526
0.0932599
0.0947523
0.0974009
0.101963
0.109607
0.122038
0.141556
0.156597
0.144726
0.127508
0.113495
0.104173
0.0985991
0.0954743
0.0937911
0.0929049
0.0924418
0.0921968
0.0920616
0.0919802
0.0919246
0.0918815
0.0918448
0.0918119
0.0917816
0.0917527
0.0917224
0.99825
0.463887
0.296772
0.213773
0.167076
0.139027
0.12151
0.11034
0.10317
0.0985903
0.095705
0.093927
0.092866
0.0922677
0.0919754
0.0919088
0.0920542
0.0924695
0.0933045
0.0948423
0.0975646
0.102245
0.110071
0.122781
0.142707
0.157888
0.145554
0.127963
0.113719
0.10428
0.0986599
0.0955228
0.0938393
0.0929543
0.0924906
0.0922426
0.0921025
0.0920153
0.0919535
0.0919043
0.0918618
0.0918236
0.0917887
0.0917556
0.0917217
0.999206
0.463537
0.296422
0.213509
0.166882
0.138883
0.121399
0.110253
0.103102
0.0985356
0.0956614
0.0938922
0.0928388
0.0922473
0.0919622
0.0919045
0.0920625
0.0924973
0.0933637
0.0949525
0.0977571
0.102568
0.110596
0.123609
0.143975
0.159308
0.146473
0.12847
0.113969
0.104404
0.098737
0.0955887
0.0939053
0.093021
0.0925549
0.0923017
0.0921545
0.0920593
0.0919895
0.0919327
0.0918832
0.0918389
0.0917986
0.091761
0.0917232
1.00008
0.463189
0.296088
0.21326
0.166701
0.138748
0.121296
0.110173
0.103038
0.098486
0.0956228
0.0938629
0.0928175
0.0922337
0.091957
0.0919098
0.0920828
0.0925404
0.0934431
0.0950903
0.0979883
0.102946
0.111202
0.124555
0.145406
0.160915
0.147518
0.12904
0.114252
0.104551
0.0988354
0.0956773
0.0939945
0.0931095
0.0926385
0.0923769
0.0922195
0.0921135
0.0920333
0.091967
0.0919092
0.0918577
0.0918113
0.0917686
0.0917267
1.00085
0.462861
0.295785
0.213037
0.166538
0.138626
0.121202
0.1101
0.102982
0.0984429
0.0955911
0.0938411
0.0928048
0.0922301
0.0919636
0.0919294
0.0921208
0.0926062
0.0935519
0.095267
0.0982724
0.103399
0.111913
0.125654
0.147061
0.162762
0.148739
0.129698
0.114578
0.104726
0.098962
0.095796
0.0941136
0.0932253
0.0927456
0.0924713
0.0922995
0.0921792
0.0920857
0.0920077
0.0919398
0.0918799
0.0918266
0.0917783
0.0917317
1.00149
0.462588
0.295537
0.212851
0.166399
0.138519
0.12112
0.110036
0.102934
0.0984088
0.0955692
0.0938304
0.0928051
0.0922419
0.0919888
0.0919718
0.0921869
0.0927067
0.0937045
0.0954996
0.0986292
0.103949
0.11276
0.126947
0.149
0.16494
0.150161
0.130457
0.11495
0.104935
0.0991252
0.0959549
0.0942724
0.0933764
0.0928817
0.0925885
0.0923968
0.0922576
0.0921473
0.0920548
0.0919749
0.0919051
0.0918438
0.0917892
0.0917378
1.00197
0.462435
0.295377
0.212715
0.166288
0.13843
0.12105
0.109984
0.102898
0.0983877
0.0955623
0.0938373
0.0928262
0.0922786
0.0920442
0.0920509
0.0922979
0.0928625
0.0939249
0.0958157
)
;

boundaryField
{
    leftWall
    {
        Cmu             0.09;
        kappa           0.41;
        E               9.8;
        type            epsilonWallFunction;
        value           nonuniform List<scalar> 
44
(
0.590292
0.684627
0.776135
0.833502
0.868739
0.890586
0.904761
0.914589
0.921912
0.927745
0.932665
0.937021
0.940977
0.944648
0.948106
0.951392
0.954533
0.957548
0.960449
0.963241
0.965931
0.968522
0.971014
0.973409
0.975709
0.977914
0.980026
0.982044
0.983971
0.985806
0.987549
0.9892
0.990759
0.992227
0.993605
0.994894
0.996096
0.997213
0.99825
0.999206
1.00008
1.00085
1.00149
1.00197
)
;
    }
    rightWall
    {
        Cmu             0.09;
        kappa           0.41;
        E               9.8;
        type            epsilonWallFunction;
        value           nonuniform 0();
    }
    lowerWall
    {
        Cmu             0.09;
        kappa           0.41;
        E               9.8;
        type            epsilonWallFunction;
        value           nonuniform List<scalar> 
44
(
0.590292
0.755837
0.886508
0.967957
1.01364
1.03905
1.05418
1.0647
1.07362
1.08246
1.09201
1.10272
1.11496
1.12914
1.1458
1.16575
1.1902
1.22096
1.26076
1.31313
1.38273
1.46506
1.53036
1.56621
1.57667
1.58741
1.60386
1.53474
1.50818
1.41593
1.3104
1.22908
1.17772
1.14449
1.12026
1.10001
1.08131
1.06285
1.04363
1.0225
0.997884
0.966948
0.923913
0.856658
)
;
    }
    atmosphere
    {
        type            inletOutlet;
        inletValue      nonuniform 0();
        value           nonuniform 0();
    }
    defaultFaces
    {
        type            empty;
    }
    procBoundary0to1
    {
        type            processor;
        value           nonuniform List<scalar> 
44
(
0.743964
0.587697
0.544886
0.517752
0.499236
0.487355
0.481382
0.482103
0.491257
0.508093
0.463567
0.379765
0.294007
0.227819
0.182872
0.153149
0.13336
0.120007
0.110894
0.104638
0.104638
0.101835
0.098355
0.0960258
0.0944846
0.0934778
0.0928291
0.0924162
0.0921558
0.091992
0.0918884
0.0918219
0.0917781
0.0917481
0.0917268
0.0917112
0.0916996
0.0916911
0.0916852
0.0916813
0.0916793
0.091679
0.0916802
0.0916822
)
;
    }
    procBoundary0to2
    {
        type            processor;
        value           nonuniform List<scalar> 
46
(
0.0990913
0.104632
0.113779
0.128477
0.151278
0.167494
0.151788
0.131296
0.115356
0.105178
0.0993351
0.096168
0.094484
0.0935733
0.0930542
0.0927328
0.0925134
0.0923493
0.0922178
0.0921076
0.0920133
0.091932
0.0918616
0.0917998
0.0917427
1.00225
0.462455
0.295315
0.212627
0.166202
0.138357
0.120994
0.109946
0.102878
0.0983861
0.0955786
0.0938719
0.0928806
0.0923558
0.0921489
0.0921903
0.0924826
0.0931077
0.0942534
0.0990913
0.0962613
)
;
    }
}


// ************************************************************************* //
