/*--------------------------------*- C++ -*----------------------------------*\
| =========                 |                                                 |
| \\      /  F ield         | OpenFOAM: The Open Source CFD Toolbox           |
|  \\    /   O peration     | Version:  5.0                                   |
|   \\  /    A nd           | Web:      www.OpenFOAM.org                      |
|    \\/     M anipulation  |                                                 |
\*---------------------------------------------------------------------------*/
FoamFile
{
    version     2.0;
    format      ascii;
    class       volScalarField;
    location    "0.05";
    object      k;
}
// * * * * * * * * * * * * * * * * * * * * * * * * * * * * * * * * * * * * * //

dimensions      [0 2 -2 0 0 0 0];

internalField   nonuniform List<scalar> 
1935
(
0.0229588
0.0253946
0.0286863
0.0307173
0.0318777
0.0325399
0.0329395
0.0332136
0.0334377
0.0336526
0.0338799
0.0341323
0.0344194
0.0347508
0.0351389
0.035601
0.0361627
0.0368609
0.037748
0.0388841
0.0403343
0.0420114
0.0433917
0.0440733
0.0440092
0.0438182
0.0442075
0.0441503
0.0425021
0.0417236
0.0397935
0.0377299
0.0361877
0.0351837
0.034492
0.0339529
0.0334752
0.0330113
0.03253
0.0320008
0.0313831
0.0306085
0.0295397
0.0278859
0.0284487
0.0474999
0.0559752
0.0603761
0.0627643
0.064086
0.0648361
0.0652873
0.0655924
0.0658375
0.066072
0.0663264
0.0666229
0.0669821
0.0674284
0.0679946
0.068727
0.0696894
0.070961
0.0726132
0.0746073
0.0766493
0.0780408
0.0783924
0.0775905
0.0763422
0.0762611
0.0762229
0.0741154
0.0696521
0.0662298
0.0639835
0.0627385
0.062024
0.0615541
0.0612331
0.060963
0.0606796
0.0603381
0.0598917
0.0592627
0.058288
0.0566028
0.053374
0.0312146
0.0562607
0.0665847
0.0717861
0.0746421
0.0762908
0.0772863
0.0779252
0.0783756
0.0787361
0.0790671
0.0794089
0.079792
0.0802451
0.0808002
0.0814977
0.0823903
0.0835417
0.085014
0.0868244
0.0888291
0.0906373
0.0916209
0.091567
0.0907303
0.0903818
0.0919874
0.0907277
0.0871074
0.0839916
0.0821239
0.0807877
0.0796736
0.0784196
0.077358
0.0765306
0.0758613
0.0752688
0.0746863
0.0740448
0.0732382
0.0720544
0.0700279
0.0660886
0.0329198
0.0608026
0.0720126
0.0775563
0.08061
0.0824142
0.083545
0.0843016
0.0848521
0.0852964
0.0856984
0.0861022
0.0865426
0.0870518
0.0876647
0.0884221
0.0893718
0.090563
0.0920253
0.093719
0.0954423
0.0967851
0.0972435
0.0967487
0.0957689
0.0955972
0.0961896
0.0958281
0.0927386
0.0886492
0.0874286
0.0877205
0.0875629
0.0867744
0.0857936
0.0848581
0.0840196
0.0832573
0.0825283
0.0817707
0.0808763
0.0796203
0.077499
0.0733274
0.0339715
0.0633903
0.0751164
0.0808492
0.0840038
0.0858884
0.0870939
0.0879195
0.0885307
0.0890262
0.0894697
0.0899063
0.0903718
0.0908989
0.0915211
0.0922748
0.0931972
0.0943179
0.0956355
0.097073
0.0984149
0.0992985
0.0993785
0.0987247
0.097911
0.0979405
0.0976697
0.0984204
0.0970059
0.09276
0.0910908
0.0913844
0.0915684
0.091145
0.0903738
0.0895044
0.0886491
0.0878364
0.0870522
0.0862515
0.0853369
0.0840887
0.0819939
0.0778034
0.034634
0.0649456
0.0770061
0.0828655
0.0860831
0.088014
0.0892612
0.0901251
0.0907694
0.0912909
0.0917523
0.0921978
0.0926625
0.0931775
0.0937726
0.0944773
0.0953173
0.0963047
0.097417
0.098564
0.0995533
0.100111
0.100056
0.0995898
0.0993173
0.0998002
0.0992206
0.099924
0.0986885
0.095268
0.0936719
0.0936803
0.093808
0.0935207
0.0929043
0.0921381
0.0913351
0.0905426
0.0897653
0.088974
0.0880862
0.0868964
0.0848997
0.0808084
0.0350719
0.0659184
0.0782051
0.0841582
0.0874217
0.0893826
0.0906539
0.0915378
0.0921973
0.0927278
0.0931904
0.0936282
0.0940743
0.0945573
0.0951027
0.0957329
0.0964639
0.097296
0.0981982
0.0990871
0.0998162
0.100214
0.100244
0.100194
0.100609
0.101658
0.101103
0.101179
0.0995933
0.0968865
0.0954722
0.0952109
0.0951545
0.0948652
0.0943314
0.093657
0.0929279
0.0921894
0.0914542
0.090705
0.0898756
0.0887835
0.0869493
0.0830758
0.0353798
0.0665499
0.0789895
0.0850134
0.0883129
0.090295
0.0915806
0.092474
0.0931378
0.0936666
0.0941201
0.0945398
0.094957
0.0953972
0.0958819
0.0964282
0.0970453
0.0977284
0.0984479
0.099141
0.0997155
0.100097
0.100357
0.100821
0.10193
0.103603
0.103372
0.102649
0.100492
0.0980884
0.0967446
0.0962539
0.0960008
0.0956539
0.0951559
0.0945526
0.0938977
0.0932255
0.0925495
0.0918614
0.0911131
0.0901562
0.0885663
0.085098
0.0356111
0.0669762
0.0795162
0.0855923
0.0889197
0.0909173
0.0922114
0.0931081
0.0937701
0.0942911
0.0947297
0.095126
0.0955094
0.095903
0.0963252
0.0967893
0.0973014
0.0978567
0.0984347
0.0989987
0.0995101
0.0999741
0.100538
0.101529
0.103304
0.10569
0.106013
0.10442
0.101541
0.0990914
0.0976715
0.0969736
0.0965472
0.0961308
0.0956451
0.0950958
0.0945083
0.0939039
0.0932938
0.092677
0.0920261
0.0912405
0.0899977
0.0872435
0.0357955
0.0672763
0.0798788
0.085991
0.0893389
0.0913474
0.0926462
0.0935427
0.0941996
0.0947098
0.095131
0.0955022
0.0958511
0.0961992
0.0965627
0.096953
0.097376
0.0978309
0.0983094
0.0988023
0.0993178
0.0999224
0.100811
0.102307
0.104718
0.107906
0.108873
0.106376
0.102712
0.0999843
0.0983776
0.0974828
0.0969097
0.0964284
0.095945
0.0954374
0.0949093
0.0943696
0.0938263
0.0932846
0.0927392
0.0921471
0.091339
0.0896944
0.0359506
0.0674978
0.0801364
0.0862713
0.0896328
0.0916482
0.0929491
0.0938434
0.0944935
0.0949919
0.0953954
0.0957419
0.0960582
0.0963645
0.0966759
0.0970037
0.0973554
0.0977361
0.0981514
0.0986174
0.0991807
0.0999532
0.101162
0.103129
0.106152
0.110191
0.11177
0.10837
0.103927
0.100804
0.0989479
0.097862
0.0971623
0.0966239
0.096139
0.0956652
0.0951891
0.0947094
0.0942309
0.0937635
0.0933205
0.0929111
0.092512
0.0919401
0.0360871
0.067669
0.0803242
0.0864702
0.0898388
0.0918573
0.0931579
0.0940486
0.0946914
0.095178
0.0955646
0.0958883
0.0961752
0.0964448
0.0967121
0.0969892
0.0972867
0.0976164
0.0979975
0.0984677
0.0991042
0.100053
0.101562
0.103963
0.10757
0.112449
0.114517
0.110255
0.1051
0.101553
0.0994248
0.0981568
0.0973461
0.0967581
0.0962706
0.0958248
0.0953945
0.0949698
0.0945524
0.0941544
0.0938008
0.0935312
0.0933951
0.0933941
0.0362105
0.067807
0.0804648
0.0866124
0.0899818
0.0919996
0.0932977
0.0941838
0.094819
0.0952946
0.0956658
0.0959691
0.0962305
0.0964692
0.0967006
0.0969384
0.0971966
0.0974941
0.0978619
0.0983561
0.0990773
0.100196
0.101981
0.104775
0.108922
0.114568
0.116954
0.111916
0.106156
0.102214
0.0998257
0.0983908
0.0974834
0.096853
0.0963629
0.0959411
0.0955511
0.0951764
0.0948151
0.0944796
0.0941989
0.0940231
0.0940237
0.0942729
0.0363243
0.0679233
0.0805741
0.0867155
0.0900803
0.0920938
0.0933874
0.0942678
0.0948955
0.0953608
0.0957183
0.0960041
0.0962438
0.0964571
0.0966602
0.0968684
0.0970995
0.0973787
0.0977474
0.0982763
0.0990847
0.100362
0.102394
0.10554
0.110174
0.116478
0.118995
0.113295
0.107055
0.102776
0.100159
0.0985773
0.097587
0.096921
0.096429
0.0960283
0.095674
0.0953442
0.0950338
0.0947531
0.0945303
0.0944139
0.0944726
0.0947776
0.036431
0.0680251
0.0806625
0.0867921
0.0901477
0.0921538
0.0934409
0.0943147
0.0949349
0.0953906
0.0957361
0.096007
0.0962288
0.0964217
0.0966028
0.0967893
0.0970026
0.0972735
0.0976519
0.0982206
0.0991134
0.100536
0.102788
0.106246
0.111312
0.118148
0.120621
0.114379
0.107782
0.103236
0.100428
0.0987237
0.0976641
0.096969
0.0964763
0.0960944
0.0957718
0.0954821
0.095217
0.0949836
0.0948062
0.0947262
0.094799
0.0950762
0.036532
0.0681169
0.0807371
0.0868508
0.0901937
0.0921898
0.0934685
0.0943349
0.0949475
0.0953945
0.0957295
0.0959878
0.0961951
0.0963718
0.0965361
0.0967073
0.0969096
0.0971788
0.0975721
0.0981818
0.0991537
0.100707
0.103154
0.10689
0.112334
0.119577
0.121854
0.115189
0.108342
0.103598
0.100639
0.0988349
0.0977194
0.0970013
0.0965092
0.0961441
0.0958495
0.0955952
0.0953697
0.0951767
0.0950349
0.0949766
0.0950424
0.0952646
0.0366283
0.0682018
0.0808024
0.0868975
0.0902253
0.0922093
0.0934783
0.0943365
0.0949413
0.0953802
0.0957061
0.0959539
0.0961493
0.0963134
0.0964653
0.0966258
0.0968221
0.097094
0.0975048
0.0981546
0.0991994
0.100869
0.103492
0.107473
0.11325
0.120782
0.122735
0.115759
0.108753
0.10387
0.100797
0.0989156
0.0977563
0.0970207
0.0965304
0.0961805
0.0959104
0.0956869
0.0954955
0.0953364
0.0952227
0.0951776
0.0952288
0.0953943
0.0367205
0.0682818
0.0808614
0.0869364
0.0902475
0.0922178
0.093476
0.0943254
0.0949224
0.0953538
0.0956716
0.0959106
0.0960965
0.0962508
0.0963935
0.096547
0.0967407
0.0970181
0.0974474
0.0981356
0.0992472
0.101023
0.103802
0.108005
0.11408
0.121797
0.123325
0.116132
0.10904
0.104066
0.10091
0.0989704
0.0977779
0.0970297
0.0965422
0.0962059
0.095957
0.0957598
0.0955973
0.0954663
0.0953748
0.0953383
0.0953747
0.0954929
0.0368091
0.0683579
0.0809163
0.0869703
0.0902636
0.0922194
0.093466
0.0943061
0.0948954
0.0953196
0.0956302
0.0958618
0.0960402
0.0961869
0.096323
0.0964721
0.0966656
0.0969501
0.097398
0.0981225
0.0992954
0.101167
0.104089
0.108496
0.114848
0.122669
0.123698
0.116362
0.109234
0.104202
0.100988
0.0990045
0.0977872
0.0970304
0.0965463
0.0962221
0.0959914
0.0958163
0.0956778
0.0955699
0.0954961
0.0954659
0.0954902
0.0955722
0.0368942
0.0684311
0.0809681
0.087001
0.090276
0.0922169
0.0934515
0.094282
0.0948635
0.0952809
0.0955852
0.0958106
0.0959827
0.0961237
0.0962551
0.0964017
0.0965967
0.0968892
0.0973556
0.098114
0.0993436
0.101304
0.104359
0.108959
0.11558
0.123442
0.123923
0.1165
0.109363
0.104296
0.101039
0.0990228
0.0977872
0.0970247
0.0965444
0.0962309
0.0960155
0.0958589
0.0957401
0.0956508
0.095591
0.0955659
0.0955812
0.095638
0.0369761
0.068502
0.0810177
0.0870297
0.0902865
0.0922121
0.0934346
0.0942555
0.0948292
0.0952402
0.0955387
0.0957587
0.0959259
0.0960625
0.0961906
0.0963361
0.0965337
0.0968348
0.097319
0.0981096
0.099392
0.101436
0.104615
0.109401
0.116292
0.124138
0.124049
0.116581
0.10945
0.10436
0.101071
0.0990299
0.0977807
0.0970146
0.0965382
0.0962338
0.0960313
0.0958898
0.0957869
0.0957124
0.0956637
0.0956428
0.0956522
0.0956913
0.095752
0.0370549
0.0685707
0.0810656
0.087057
0.0902959
0.0922065
0.0934168
0.0942281
0.0947943
0.095199
0.0954923
0.0957077
0.0958708
0.096004
0.09613
0.0962754
0.0964763
0.0967863
0.0972879
0.0981087
0.0994408
0.101562
0.104861
0.109824
0.116982
0.124768
0.12411
0.116623
0.10951
0.104404
0.10109
0.0990297
0.0977701
0.0970016
0.0965289
0.0962324
0.0960405
0.0959112
0.095821
0.0957581
0.0957181
0.0957006
0.0957062
0.0957329
0.0957753
0.0371307
0.0686374
0.0811121
0.0870836
0.090305
0.0922008
0.0933991
0.094201
0.0947598
0.0951586
0.0954471
0.0956584
0.0958181
0.0959488
0.0960735
0.0962196
0.0964243
0.0967431
0.0972615
0.0981112
0.0994902
0.101685
0.105097
0.110232
0.117646
0.12535
0.124146
0.116644
0.109551
0.104435
0.101101
0.0990251
0.0977572
0.0969871
0.0965176
0.0962278
0.0960446
0.0959251
0.0958448
0.0957909
0.0957575
0.0957425
0.0957455
0.0957641
0.0957932
0.0372034
0.0687023
0.0811573
0.0871095
0.0903141
0.0921956
0.0933822
0.0941749
0.0947264
0.0951197
0.0954037
0.0956114
0.0957683
0.0958971
0.0960211
0.0961684
0.0963773
0.096705
0.0972397
0.0981169
0.0995406
0.101806
0.105325
0.110625
0.118292
0.125912
0.124184
0.116663
0.109585
0.104459
0.101108
0.0990184
0.0977435
0.0969721
0.0965055
0.0962211
0.096045
0.0959332
0.0958606
0.0958135
0.0957849
0.0957718
0.0957727
0.0957852
0.095805
0.0372733
0.0687654
0.0812012
0.087135
0.0903233
0.0921911
0.0933664
0.0941501
0.0946947
0.0950826
0.0953625
0.095567
0.0957216
0.095849
0.0959728
0.0961216
0.0963349
0.0966715
0.0972219
0.0981256
0.099592
0.101924
0.105548
0.111008
0.118927
0.126468
0.124252
0.116696
0.109621
0.104481
0.101113
0.0990111
0.0977299
0.0969574
0.0964932
0.0962133
0.0960427
0.095937
0.0958703
0.0958281
0.095803
0.0957912
0.0957903
0.0957982
0.0958109
0.0373402
0.0688265
0.0812438
0.08716
0.0903329
0.0921875
0.0933519
0.094127
0.0946649
0.0950477
0.0953237
0.0955254
0.095678
0.0958043
0.0959282
0.096079
0.0962968
0.0966422
0.097208
0.0981373
0.0996446
0.102041
0.105764
0.11138
0.119546
0.127015
0.124353
0.116749
0.109662
0.104504
0.101118
0.0990044
0.0977174
0.0969437
0.0964812
0.0962049
0.0960388
0.0959377
0.0958754
0.0958369
0.0958141
0.0958027
0.0958003
0.0958044
0.0958117
0.0374043
0.0688858
0.0812851
0.0871845
0.0903427
0.0921847
0.0933388
0.0941056
0.0946371
0.095015
0.0952874
0.0954865
0.0956374
0.095763
0.0958874
0.0960402
0.0962628
0.0966169
0.0971977
0.0981517
0.0996986
0.102157
0.105976
0.111738
0.12013
0.127547
0.124495
0.116818
0.109708
0.104529
0.101125
0.0989989
0.0977062
0.0969311
0.0964701
0.0961967
0.096034
0.0959365
0.0958773
0.0958413
0.0958199
0.0958086
0.0958046
0.0958056
0.0958084
0.0374655
0.0689433
0.0813252
0.0872085
0.0903528
0.0921829
0.0933271
0.0940859
0.0946113
0.0949847
0.0952537
0.0954504
0.0955999
0.0957249
0.09585
0.0960051
0.0962325
0.0965952
0.0971908
0.0981689
0.0997542
0.102273
0.106183
0.112083
0.120682
0.128071
0.124672
0.116903
0.10976
0.104555
0.101133
0.098995
0.0976966
0.0969202
0.0964602
0.096189
0.0960291
0.0959342
0.0958773
0.0958428
0.0958221
0.0958104
0.0958049
0.0958031
0.0958022
0.0375239
0.068999
0.0813639
0.087232
0.0903631
0.0921819
0.0933167
0.094068
0.0945876
0.0949565
0.0952224
0.095417
0.0955652
0.0956899
0.0958158
0.0959734
0.0962057
0.0965771
0.0971872
0.098189
0.0998117
0.102388
0.106387
0.112421
0.121218
0.128596
0.124881
0.117006
0.10982
0.104586
0.101142
0.098993
0.097689
0.0969111
0.0964518
0.0961824
0.0960245
0.0959315
0.0958761
0.0958425
0.095822
0.0958096
0.0958024
0.0957982
0.0957941
0.0375796
0.0690529
0.0814013
0.0872548
0.0903735
0.0921816
0.0933076
0.0940517
0.0945657
0.0949305
0.0951934
0.095386
0.0955332
0.0956578
0.0957847
0.0959449
0.0961822
0.0965623
0.0971868
0.0982119
0.0998715
0.102505
0.106589
0.112753
0.121745
0.129124
0.125118
0.117131
0.109889
0.10462
0.101155
0.098993
0.0976835
0.096904
0.0964452
0.0961771
0.0960208
0.0959291
0.0958746
0.0958414
0.0958206
0.0958073
0.0957985
0.095792
0.0957851
0.0376324
0.0691049
0.0814373
0.0872769
0.0903839
0.092182
0.0932996
0.094037
0.0945457
0.0949066
0.0951667
0.0953575
0.0955038
0.0956284
0.0957565
0.0959195
0.0961618
0.0965507
0.0971897
0.098238
0.0999339
0.102623
0.106793
0.113084
0.122265
0.129653
0.12538
0.117275
0.109969
0.104659
0.10117
0.0989954
0.0976802
0.0968992
0.0964408
0.0961737
0.0960185
0.0959277
0.0958736
0.0958403
0.0958188
0.0958043
0.0957939
0.0957852
0.0957759
0.0376825
0.069155
0.0814719
0.0872983
0.0903943
0.092183
0.0932927
0.0940237
0.0945275
0.0948846
0.0951421
0.0953313
0.0954768
0.0956017
0.0957311
0.095897
0.0961446
0.0965423
0.0971959
0.0982675
0.0999998
0.102745
0.106998
0.113413
0.122777
0.130183
0.125663
0.117434
0.110057
0.104703
0.101188
0.0990003
0.0976796
0.096897
0.0964388
0.0961725
0.096018
0.0959276
0.0958735
0.0958397
0.0958174
0.0958015
0.0957893
0.0957787
0.0957671
0.0377298
0.0692031
0.0815049
0.0873189
0.0904045
0.0921845
0.0932868
0.0940118
0.0945108
0.0948645
0.0951195
0.0953072
0.0954521
0.0955774
0.0957083
0.0958772
0.0961303
0.0965372
0.0972057
0.0983008
0.10007
0.102871
0.107207
0.113745
0.123287
0.130715
0.125963
0.117607
0.110153
0.104752
0.101209
0.0990083
0.0976821
0.0968979
0.0964398
0.0961741
0.0960199
0.0959296
0.095875
0.0958403
0.0958168
0.0957994
0.0957854
0.0957727
0.095759
0.0377743
0.0692491
0.0815364
0.0873386
0.0904146
0.0921864
0.0932817
0.0940011
0.0944957
0.0948461
0.0950989
0.0952853
0.0954297
0.0955555
0.0956881
0.0958603
0.0961191
0.0965356
0.0972193
0.0983385
0.100145
0.103002
0.107422
0.114082
0.1238
0.131256
0.126283
0.117795
0.110257
0.104805
0.101235
0.0990199
0.0976882
0.0969025
0.0964443
0.0961789
0.0960247
0.0959339
0.0958785
0.0958426
0.0958175
0.0957983
0.0957824
0.0957677
0.0957519
0.0378161
0.0692931
0.0815663
0.0873573
0.0904243
0.0921886
0.0932775
0.0939916
0.0944821
0.0948294
0.0950801
0.0952653
0.0954095
0.095536
0.0956704
0.0958463
0.0961112
0.0965376
0.0972373
0.0983814
0.100226
0.103141
0.107646
0.114429
0.124322
0.13181
0.126624
0.117998
0.110371
0.104864
0.101264
0.0990357
0.0976986
0.0969114
0.0964531
0.0961875
0.096033
0.0959412
0.0958844
0.0958469
0.0958199
0.0957987
0.0957807
0.0957639
0.0957461
0.0378553
0.0693352
0.0815947
0.0873751
0.0904338
0.092191
0.093274
0.0939832
0.0944698
0.0948143
0.0950632
0.0952474
0.0953915
0.0955188
0.0956555
0.0958352
0.0961067
0.0965438
0.0972603
0.0984307
0.100315
0.10329
0.107882
0.114791
0.124859
0.132386
0.126991
0.118218
0.110495
0.10493
0.101299
0.0990568
0.0977144
0.0969257
0.0964669
0.0962009
0.0960453
0.0959521
0.0958934
0.0958537
0.0958244
0.0958009
0.0957805
0.0957615
0.0957416
0.0378918
0.0693754
0.0816217
0.0873921
0.090443
0.0921938
0.0932713
0.0939759
0.094459
0.0948009
0.0950481
0.0952316
0.0953758
0.0955043
0.0956435
0.0958276
0.0961063
0.0965549
0.0972895
0.0984878
0.100415
0.103452
0.108136
0.115174
0.125421
0.13299
0.127388
0.118459
0.110631
0.105004
0.101341
0.0990843
0.0977368
0.0969464
0.0964869
0.0962197
0.0960625
0.0959671
0.0959059
0.0958634
0.0958313
0.095805
0.095782
0.0957605
0.0957384
0.0379258
0.0694138
0.0816472
0.0874081
0.090452
0.0921969
0.0932694
0.0939698
0.0944497
0.0947893
0.0950351
0.095218
0.0953627
0.0954927
0.0956348
0.095824
0.0961107
0.096572
0.0973264
0.0985549
0.100527
0.103632
0.108412
0.115585
0.126016
0.133633
0.127821
0.118724
0.110781
0.105087
0.101391
0.0991201
0.0977675
0.0969752
0.0965143
0.0962453
0.0960855
0.0959869
0.0959223
0.0958763
0.0958408
0.0958113
0.0957853
0.0957611
0.0957365
0.0379573
0.0694507
0.0816714
0.0874235
0.0904608
0.0922004
0.0932684
0.0939651
0.094442
0.0947796
0.0950244
0.0952072
0.0953527
0.0954848
0.0956304
0.0958254
0.0961214
0.0965969
0.0973732
0.0986349
0.100657
0.103834
0.108717
0.116034
0.126657
0.134326
0.128298
0.119017
0.110948
0.105182
0.101451
0.0991662
0.0978086
0.097014
0.0965509
0.0962788
0.0961152
0.0960124
0.0959433
0.0958929
0.0958532
0.0958198
0.0957904
0.0957632
0.0957359
0.0379863
0.0694859
0.0816944
0.0874382
0.0904698
0.0922046
0.0932686
0.0939619
0.0944364
0.0947724
0.0950166
0.0951997
0.0953467
0.0954815
0.0956317
0.0958337
0.0961404
0.0966323
0.0974333
0.0987322
0.100809
0.104066
0.109062
0.116534
0.127362
0.135087
0.128827
0.119342
0.111135
0.105291
0.101525
0.0992256
0.0978629
0.0970653
0.0965987
0.096322
0.096153
0.0960444
0.0959694
0.0959135
0.0958687
0.0958308
0.0957974
0.0957668
0.0957366
0.0380127
0.0695194
0.0817161
0.0874525
0.090479
0.0922098
0.0932702
0.0939608
0.0944334
0.0947685
0.0950127
0.095197
0.0953463
0.0954849
0.0956409
0.0958515
0.0961711
0.0966821
0.0975116
0.0988527
0.100991
0.104337
0.109458
0.117102
0.128153
0.135943
0.129424
0.119706
0.111344
0.105418
0.101614
0.0993019
0.097934
0.0971324
0.0966604
0.0963769
0.0962003
0.0960838
0.0960013
0.0959385
0.0958875
0.0958443
0.0958063
0.0957718
0.0957385
0.0380357
0.0695501
0.0817363
0.0874664
0.0904888
0.0922163
0.093274
0.0939626
0.094434
0.0947691
0.0950144
0.0952009
0.0953539
0.095498
0.0956617
0.0958835
0.0962189
0.0967529
0.0976156
0.0990049
0.101213
0.104659
0.10992
0.117756
0.12906
0.136918
0.130112
0.120121
0.111582
0.105565
0.101725
0.0993998
0.0980265
0.0972191
0.0967391
0.0964459
0.0962586
0.0961317
0.0960396
0.0959682
0.0959098
0.0958603
0.095817
0.0957782
0.0957413
0.0380545
0.0695758
0.0817539
0.0874798
0.0904994
0.0922246
0.0932805
0.0939683
0.09444
0.0947764
0.0950244
0.095215
0.0953737
0.0955257
0.0957002
0.0959366
0.0962922
0.0968542
0.0977564
0.0992014
0.101489
0.105046
0.110465
0.118517
0.13011
0.138051
0.130901
0.120591
0.111848
0.105735
0.10186
0.0995253
0.0981464
0.0973306
0.0968386
0.0965313
0.0963297
0.0961891
0.0960848
0.0960028
0.0959355
0.0958786
0.0958294
0.0957856
0.0957448
0.0380682
0.0695924
0.0817672
0.0874917
0.0905103
0.0922349
0.093291
0.0939799
0.0944539
0.0947939
0.0950469
0.0952444
0.0954121
0.0955757
0.0957655
0.096022
0.0964042
0.0970015
0.0979511
0.0994608
)
;

boundaryField
{
    leftWall
    {
        type            kqRWallFunction;
        value           nonuniform List<scalar> 
44
(
0.0229588
0.0284487
0.0312146
0.0329198
0.0339715
0.034634
0.0350719
0.0353798
0.0356111
0.0357955
0.0359506
0.0360871
0.0362105
0.0363243
0.036431
0.036532
0.0366283
0.0367205
0.0368091
0.0368942
0.0369761
0.0370549
0.0371307
0.0372034
0.0372733
0.0373402
0.0374043
0.0374655
0.0375239
0.0375796
0.0376324
0.0376825
0.0377298
0.0377743
0.0378161
0.0378553
0.0378918
0.0379258
0.0379573
0.0379863
0.0380127
0.0380357
0.0380545
0.0380682
)
;
    }
    rightWall
    {
        type            kqRWallFunction;
        value           nonuniform 0();
    }
    lowerWall
    {
        type            kqRWallFunction;
        value           nonuniform List<scalar> 
44
(
0.0229588
0.0253946
0.0286863
0.0307173
0.0318777
0.0325399
0.0329395
0.0332136
0.0334377
0.0336526
0.0338799
0.0341323
0.0344194
0.0347508
0.0351389
0.035601
0.0361627
0.0368609
0.037748
0.0388841
0.0403343
0.0420114
0.0433917
0.0440733
0.0440092
0.0438182
0.0442075
0.0441503
0.0425021
0.0417236
0.0397935
0.0377299
0.0361877
0.0351837
0.034492
0.0339529
0.0334752
0.0330113
0.03253
0.0320008
0.0313831
0.0306085
0.0295397
0.0278859
)
;
    }
    atmosphere
    {
        type            inletOutlet;
        inletValue      nonuniform 0();
        value           nonuniform 0();
    }
    defaultFaces
    {
        type            empty;
    }
    procBoundary0to1
    {
        type            processor;
        value           nonuniform List<scalar> 
44
(
0.0250939
0.0466044
0.0575155
0.0639453
0.0680527
0.0709265
0.0732893
0.0758062
0.0792298
0.0845433
0.0896874
0.0930128
0.0947172
0.095318
0.0955431
0.0956224
0.0956519
0.0956732
0.0956977
0.0957249
0.0957249
0.0958152
0.0958197
0.0958233
0.0958245
0.0958222
0.0958165
0.0958081
0.0957976
0.095786
0.0957739
0.0957621
0.095751
0.0957408
0.0957318
0.0957239
0.0957174
0.0957122
0.0957083
0.0957055
0.0957037
0.0957028
0.0957027
0.0957032
)
;
    }
    procBoundary0to2
    {
        type            processor;
        value           nonuniform List<scalar> 
46
(
0.101837
0.105519
0.11111
0.119404
0.13132
0.139353
0.131782
0.121095
0.112129
0.105923
0.102024
0.0996854
0.0983014
0.0974733
0.0969637
0.0966365
0.0964152
0.0962569
0.0961372
0.0960423
0.0959645
0.095899
0.095843
0.0957938
0.0957488
0.0380761
0.0695948
0.081772
0.0874991
0.0905202
0.0922475
0.093307
0.0940002
0.0944797
0.0948268
0.0950886
0.0952971
0.0954788
0.0956601
0.0958722
0.0961571
0.0965751
0.0972182
0.0982264
0.101837
0.0998118
)
;
    }
}


// ************************************************************************* //
