/*--------------------------------*- C++ -*----------------------------------*\
| =========                 |                                                 |
| \\      /  F ield         | OpenFOAM: The Open Source CFD Toolbox           |
|  \\    /   O peration     | Version:  5.0                                   |
|   \\  /    A nd           | Web:      www.OpenFOAM.org                      |
|    \\/     M anipulation  |                                                 |
\*---------------------------------------------------------------------------*/
FoamFile
{
    version     2.0;
    format      ascii;
    class       volScalarField;
    location    "0.05";
    object      nut;
}
// * * * * * * * * * * * * * * * * * * * * * * * * * * * * * * * * * * * * * //

dimensions      [0 2 -1 0 0 0 0];

internalField   nonuniform List<scalar> 
1935
(
8.03665e-05
7.67888e-05
8.35428e-05
8.77308e-05
9.0226e-05
9.17147e-05
9.26325e-05
9.32494e-05
9.37273e-05
9.41604e-05
9.46023e-05
9.50846e-05
9.56291e-05
9.62554e-05
9.69858e-05
9.785e-05
9.88885e-05
0.000100155
0.000101718
0.000103628
0.00010589
0.000108423
0.000110729
0.000111621
0.000110557
0.000108859
0.000109665
0.000114308
0.000107798
0.000110654
0.000108758
0.000104239
0.000100075
9.73452e-05
9.55787e-05
9.4319e-05
9.3269e-05
9.22774e-05
9.12571e-05
9.01363e-05
8.88291e-05
8.72016e-05
8.50007e-05
8.16965e-05
0.000106393
0.000359673
0.000523668
0.000626379
0.000688758
0.000725366
0.000746259
0.000758078
0.000765001
0.000769544
0.00077318
0.000776779
0.000780894
0.00078595
0.000792364
0.00080063
0.000811371
0.000825335
0.000843222
0.000865086
0.000889246
0.000910549
0.000920834
0.000911334
0.000875941
0.000821167
0.000770817
0.000715052
0.00061076
0.000501644
0.000454952
0.00045521
0.000483688
0.000516016
0.000540556
0.000556354
0.000565194
0.000568667
0.000567487
0.000561513
0.00054968
0.000529552
0.000496106
0.000438766
0.000112985
0.000535474
0.000893813
0.00115906
0.00134184
0.00146099
0.00153564
0.0015815
0.00160997
0.0016287
0.00164256
0.0016546
0.00166677
0.00168045
0.0016968
0.00171696
0.00174212
0.00177341
0.00181138
0.00185478
0.00189898
0.00193402
0.00194562
0.00191862
0.00183975
0.00171054
0.00157791
0.00142679
0.00121461
0.00101968
0.000938991
0.000960169
0.00103137
0.00110475
0.00116095
0.00119671
0.00121531
0.00122021
0.00121277
0.00119178
0.00115311
0.00108887
0.000985346
0.000818815
0.000117017
0.000647067
0.00117569
0.00161547
0.00194848
0.00218351
0.0023411
0.00244335
0.00250903
0.00255218
0.00258254
0.00260653
0.00262838
0.00265095
0.00267634
0.00270629
0.00274224
0.00278512
0.00283467
0.00288816
0.00293893
0.00297491
0.00297951
0.00293422
0.00282001
0.00263294
0.00242507
0.00221313
0.00194013
0.00166678
0.0015489
0.00158833
0.00169278
0.00179839
0.00187957
0.00193159
0.00195758
0.00196102
0.00194222
0.00189708
0.00181638
0.00168473
0.00147929
0.00116818
0.000119559
0.000719896
0.00138456
0.00198695
0.00247785
0.00284712
0.00310868
0.00328619
0.00340377
0.00348163
0.00353497
0.00357447
0.00360734
0.00363844
0.0036711
0.0037077
0.00374982
0.00379813
0.00385167
0.0039069
0.00395657
0.00398865
0.00398689
0.00393237
0.00380415
0.00359575
0.00333833
0.00308224
0.00278795
0.0024741
0.00232582
0.00235395
0.00246173
0.0025771
0.00266886
0.00272855
0.00275648
0.00275351
0.00271667
0.00263703
0.00249859
0.0022781
0.00194622
0.00147186
0.00012122
0.000768223
0.00153588
0.00227691
0.00291647
0.00342305
0.00379858
0.00406338
0.00424384
0.00436494
0.00444707
0.00450542
0.00455067
0.00459005
0.00462843
0.004669
0.00471369
0.00476307
0.00481602
0.00486897
0.00491518
0.00494391
0.00494074
0.00488823
0.00476632
0.00456534
0.00428444
0.00398829
0.0036631
0.00335722
0.00320431
0.00321179
0.00330172
0.00340778
0.00349612
0.00355381
0.00357663
0.00356093
0.00349857
0.00337427
0.00316464
0.00283959
0.00236764
0.00172726
0.000122356
0.000800824
0.00164387
0.00249604
0.00326499
0.0038999
0.0043886
0.00474463
0.00499356
0.00516321
0.00527819
0.00535795
0.00541668
0.00546427
0.00550732
0.0055501
0.00559508
0.00564314
0.00569343
0.00574296
0.00578607
0.00581387
0.00581416
0.00577162
0.00566807
0.00549037
0.00521007
0.00488753
0.00454859
0.0042627
0.0041141
0.00410084
0.00416466
0.00425051
0.00432535
0.00437275
0.00438364
0.00434896
0.0042545
0.00407803
0.00378903
0.00335245
0.00273872
0.00194153
0.000123177
0.000823249
0.0017203
0.00265763
0.0035327
0.00427953
0.00487233
0.00531619
0.00563361
0.00585328
0.0060028
0.0061052
0.00617799
0.00623368
0.00628075
0.00632471
0.00636881
0.00641452
0.0064616
0.00650793
0.00654918
0.00657832
0.00658531
0.00655712
0.00647792
0.00633255
0.00607514
0.00574983
0.0054122
0.00514478
0.00499993
0.00496805
0.00500491
0.00506637
0.00512207
0.00515347
0.00514729
0.00508917
0.00495887
0.00472756
0.00435856
0.00381353
0.00306699
0.00212906
0.000123801
0.000839041
0.00177428
0.00277467
0.0037328
0.00457194
0.00525477
0.00577771
0.00615896
0.00642656
0.00660986
0.00673464
0.0068213
0.00688476
0.00693537
0.00697994
0.00702267
0.00706578
0.0071098
0.00715364
0.0071943
0.00722645
0.00724207
0.0072304
0.00717837
0.0070712
0.00685317
0.00654303
0.00621712
0.00596532
0.00582197
0.00577389
0.00578615
0.00582313
0.00585765
0.00587025
0.00584443
0.0057614
0.00559571
0.00531308
0.00487197
0.00423178
0.00337045
0.00231105
0.0001243
0.00085046
0.00181253
0.00285842
0.00387912
0.00479099
0.0055477
0.00613796
0.00657522
0.00688595
0.00710022
0.00724579
0.00734534
0.00741592
0.00746959
0.00751444
0.00755567
0.0075963
0.00763776
0.00767995
0.00772116
0.00775758
0.00778301
0.0077889
0.00776511
0.00769943
0.0075292
0.00724308
0.00693493
0.00669715
0.00655428
0.00649258
0.00648364
0.00649819
0.00651207
0.00650569
0.00646048
0.00635442
0.00615833
0.00583416
0.00533726
0.00462537
0.00367739
0.00252164
0.000124718
0.000859005
0.00184013
0.00291848
0.00398522
0.00495265
0.00576786
0.00641313
0.00689742
0.0072452
0.00748653
0.00765044
0.00776139
0.0078382
0.00789441
0.00793931
0.00797905
0.00801751
0.00805698
0.00809836
0.00814114
0.00818289
0.00821901
0.00824298
0.00824759
0.00822461
0.00810421
0.00784396
0.00755591
0.00733152
0.00718933
0.00711659
0.0070899
0.0070849
0.00708012
0.00705648
0.00699436
0.00686993
0.00665203
0.00630098
0.00577126
0.00502076
0.00403009
0.00283476
0.000125083
0.000865633
0.00186044
0.00296165
0.00406134
0.00506969
0.00592932
0.00661755
0.00713948
0.00751746
0.00778119
0.00796043
0.0080809
0.00816283
0.00822102
0.0082658
0.0083042
0.00834091
0.00837905
0.00842051
0.00846585
0.00851384
0.00856128
0.00860339
0.00863571
0.00865442
0.00858054
0.00834311
0.00807429
0.00786233
0.00772134
0.00764
0.00759896
0.00757776
0.00755738
0.00751969
0.007445
0.00730909
0.0070807
0.00672087
0.00618592
0.00543666
0.00445722
0.00328575
0.00012541
0.000870961
0.00187579
0.00299291
0.00411549
0.00515281
0.00604467
0.00676482
0.00731528
0.00771658
0.00799779
0.00818904
0.00831698
0.00840284
0.00846244
0.00850697
0.00854424
0.00857969
0.00861721
0.00865956
0.00870826
0.00876313
0.00882204
0.00888168
0.00893999
0.00899712
0.00896287
0.00874348
0.00849138
0.00829032
0.00815085
0.00806301
0.00801076
0.00797684
0.00794445
0.00789672
0.00781475
0.00767521
0.00744846
0.00709839
0.00658565
0.00587659
0.00496054
0.00387681
0.000125709
0.000875425
0.00188783
0.00301609
0.00415428
0.00521144
0.00612575
0.00686855
0.00743962
0.00785796
0.00815207
0.00835222
0.00848562
0.00857429
0.00863477
0.008679
0.0087154
0.00875006
0.00878759
0.0088315
0.00888414
0.00894615
0.00901626
0.00909224
0.00917402
0.00926473
0.00926143
0.0090554
0.00881697
0.00862484
0.00848682
0.00839412
0.0083334
0.00829
0.00824916
0.0081955
0.00811153
0.00797582
0.00776164
0.00743727
0.00696936
0.00633121
0.00551784
0.00456815
0.000125988
0.000879306
0.00189771
0.00303392
0.00418262
0.00525296
0.00618226
0.00694038
0.00752557
0.00795571
0.00825878
0.00846508
0.00860221
0.00869269
0.00875364
0.00879753
0.00883332
0.00886764
0.00890569
0.00895164
0.0090085
0.00907757
0.00915817
0.00924886
0.00935105
0.00946963
0.00948852
0.00929179
0.00906408
0.00887885
0.00874195
0.00864561
0.00857865
0.0085286
0.00848249
0.00842656
0.00834515
0.00821931
0.00802602
0.00773875
0.00733071
0.00678221
0.00609307
0.00529972
0.00012625
0.000882789
0.00190617
0.00304823
0.00420401
0.00528285
0.00622174
0.00698969
0.00758398
0.00802175
0.00833061
0.00854084
0.00868025
0.00877175
0.00883285
0.00887642
0.00891183
0.00894616
0.0089851
0.00903336
0.00909449
0.00917024
0.00926034
0.00936384
0.00948319
0.0096237
0.00965659
0.00946613
0.0092467
0.00906658
0.00893036
0.00883127
0.00875987
0.00870546
0.00865668
0.00860138
0.00852587
0.00841399
0.00824666
0.00800259
0.00766132
0.00720921
0.00664925
0.00601337
0.000126499
0.000885993
0.00191368
0.00306027
0.00422088
0.00530508
0.00624977
0.0070236
0.00762331
0.00806559
0.00837782
0.00859026
0.00873087
0.00882279
0.0088838
0.00892707
0.00896228
0.00899689
0.00903696
0.00908764
0.00915288
0.00923476
0.00933324
0.00944762
0.00958101
0.00973776
0.00977742
0.00959123
0.00937823
0.0092018
0.00906591
0.00896473
0.00889027
0.00883326
0.00878374
0.00873105
0.00866347
0.00856758
0.00842806
0.00822848
0.00795379
0.0075951
0.0071569
0.00666542
0.000126736
0.000888999
0.00192056
0.00307083
0.00423485
0.00532234
0.00627031
0.0070473
0.00764983
0.00809439
0.00840824
0.00862165
0.00876266
0.00885457
0.00891534
0.00895834
0.00899352
0.00902857
0.00906989
0.00912296
0.00919204
0.00927944
0.00938518
0.00950868
0.00965342
0.00982133
0.00986175
0.0096786
0.00947069
0.00929689
0.00916105
0.00905829
0.00898179
0.00892345
0.00887445
0.00882551
0.00876667
0.00868701
0.00857455
0.00841695
0.00820352
0.00792877
0.00759744
0.00722985
0.000126963
0.00089186
0.00192701
0.00308044
0.00424697
0.00533646
0.00628607
0.00706441
0.00766802
0.00811334
0.00842761
0.00864112
0.00878198
0.00887359
0.00893403
0.00897681
0.00901203
0.00904764
0.00909025
0.00914562
0.00921822
0.00931051
0.00942254
0.0095537
0.00970767
0.00988253
0.009919
0.00973816
0.00953427
0.00936232
0.00922634
0.00912237
0.00904454
0.0089857
0.00893797
0.00889319
0.00884295
0.00877843
0.00869042
0.00856987
0.00840936
0.00820564
0.00796298
0.00769637
0.000127181
0.000894614
0.00193315
0.0030894
0.00425792
0.0053486
0.00629882
0.00707738
0.00768094
0.00812602
0.0084399
0.00865295
0.00879331
0.00888443
0.00894449
0.00898708
0.00902243
0.00905864
0.00910254
0.00916006
0.00923587
0.0093325
0.00945
0.00958769
0.00974939
0.00992784
0.00995694
0.00977795
0.00957721
0.00940649
0.00927024
0.00916531
0.00908663
0.00902778
0.00898162
0.00894091
0.00889848
0.00884721
0.00878004
0.00869041
0.00857327
0.00842675
0.00825427
0.00806649
0.000127391
0.000897283
0.00193905
0.00309793
0.00426809
0.00535949
0.00630971
0.0070878
0.00769061
0.00813481
0.00844782
0.00866004
0.00879968
0.00889022
0.00894987
0.0089923
0.00902782
0.00906466
0.00910979
0.00916933
0.00924806
0.00934858
0.00947089
0.00961426
0.0097827
0.00996204
0.00998148
0.00980407
0.00960581
0.00943587
0.00929924
0.00919352
0.00911429
0.00905567
0.0090111
0.00897404
0.00893827
0.00889798
0.00884771
0.00878272
0.00869953
0.00859707
0.00847791
0.00834927
0.00822305
0.000127592
0.000899882
0.00194478
0.00310613
0.00427775
0.00536959
0.00631946
0.00709666
0.0076983
0.00814127
0.00845311
0.0086643
0.00880309
0.00889299
0.00895224
0.00899452
0.00903025
0.00906771
0.00911404
0.00917545
0.00925685
0.00936088
0.00948748
0.00963592
0.00981037
0.00998854
0.00999703
0.00982096
0.00962471
0.00945523
0.00931816
0.00921175
0.00913212
0.0090738
0.00903066
0.00899667
0.00896631
0.00893471
0.00889758
0.00885139
0.00879373
0.00872393
0.00864377
0.00855799
0.0084742
0.000127786
0.00090242
0.00195035
0.00311408
0.00428703
0.00537917
0.00632848
0.00710457
0.00770483
0.00814635
0.00845685
0.0086669
0.00880479
0.00889404
0.00895288
0.00899506
0.00903099
0.00906908
0.00911654
0.0091797
0.00926357
0.0093708
0.00950131
0.00965433
0.00983424
0.0100101
0.0100071
0.00983192
0.00963726
0.00946802
0.00933043
0.00922338
0.0091434
0.00908536
0.00904341
0.00901186
0.00898571
0.00896072
0.0089334
0.00890104
0.00886188
0.00881542
0.00876282
0.00870708
0.0086529
0.000127971
0.000904901
0.00195578
0.00312182
0.00429604
0.00538838
0.00633704
0.00711191
0.00771066
0.00815064
0.00845973
0.00866859
0.00880556
0.00889415
0.00895261
0.00899469
0.00903085
0.00906955
0.00911808
0.0091829
0.00926906
0.00937925
0.00951335
0.00967064
0.00985578
0.0100288
0.0100144
0.00983947
0.0096459
0.00947665
0.00933846
0.00923075
0.00915043
0.00909259
0.00905154
0.00902187
0.00899886
0.00897873
0.00895849
0.00893595
0.00890975
0.00887944
0.00884568
0.00881029
0.00877611
0.00012815
0.000907325
0.00196109
0.00312937
0.0043048
0.00539732
0.00634529
0.00711889
0.00771609
0.00815449
0.00846214
0.0086698
0.00880585
0.0088938
0.0089519
0.0089939
0.00903029
0.00906958
0.00911915
0.00918553
0.00927385
0.00938679
0.00952425
0.00968559
0.00987587
0.010046
0.0100206
0.00984539
0.00965231
0.00948275
0.00934385
0.00923547
0.00915477
0.00909701
0.00905662
0.00902831
0.00900759
0.0089909
0.00897561
0.00895984
0.00894242
0.00892293
0.00890166
0.00887965
0.00885854
0.00012832
0.000909695
0.00196626
0.00313674
0.00431336
0.00540603
0.00635329
0.00712562
0.00772127
0.00815809
0.00846431
0.00867078
0.00880592
0.00889325
0.00895101
0.00899294
0.00902957
0.00906944
0.00912002
0.00918788
0.00927823
0.00939377
0.00953439
0.00969957
0.0098949
0.0100623
0.0100267
0.00985066
0.00965754
0.00948741
0.00934768
0.00923856
0.00915744
0.00909965
0.00905971
0.00903236
0.00901323
0.00899892
0.00898699
0.00897573
0.00896411
0.00895165
0.00893841
0.00892493
0.0089121
0.000128483
0.000912012
0.00197132
0.00314394
0.00432173
0.00541454
0.00636111
0.00713217
0.00772629
0.00816155
0.00846636
0.00867167
0.00880592
0.00889266
0.0089501
0.00899198
0.00902885
0.0090693
0.00912084
0.00919013
0.00928242
0.00940041
0.009544
0.00971277
0.00991272
0.010078
0.0100334
0.00985578
0.0096622
0.00949128
0.00935062
0.00924071
0.00915911
0.00910121
0.00906152
0.00903482
0.00901677
0.00900407
0.00899435
0.00898603
0.00897811
0.00897009
0.00896187
0.00895366
0.0089459
0.000128639
0.00091428
0.00197626
0.00315098
0.00432991
0.00542287
0.00636876
0.00713859
0.0077312
0.00816494
0.00846837
0.00867254
0.00880594
0.0088921
0.00894924
0.00899109
0.0090282
0.00906922
0.0091217
0.00919237
0.00928651
0.00940684
0.00955323
0.00972537
0.00992957
0.0100933
0.0100409
0.00986111
0.00966668
0.00949478
0.0093531
0.00924234
0.00916021
0.00910212
0.00906255
0.00903627
0.00901894
0.00900728
0.00899899
0.00899251
0.0089869
0.0089816
0.00897642
0.00897137
0.00896663
0.000128788
0.000916499
0.00198109
0.00315786
0.00433792
0.00543102
0.00637625
0.00714488
0.00773603
0.00816827
0.00847036
0.00867343
0.00880601
0.00889162
0.00894848
0.00899031
0.00902768
0.00906926
0.00912266
0.00919468
0.00929061
0.00941317
0.00956223
0.00973758
0.00994592
0.0101088
0.0100493
0.00986693
0.00967128
0.0094982
0.00935538
0.00924372
0.00916101
0.00910267
0.00906313
0.00903709
0.00902022
0.00900922
0.00900182
0.00899649
0.00899226
0.00898858
0.00898518
0.00898196
0.00897895
0.00012893
0.000918671
0.00198581
0.00316458
0.00434574
0.005439
0.0063836
0.00715105
0.00774077
0.00817158
0.00847236
0.00867436
0.00880614
0.00889124
0.00894783
0.00898965
0.00902729
0.00906943
0.00912375
0.00919708
0.00929475
0.00941948
0.00957111
0.00974959
0.00996204
0.0101244
0.0100585
0.00987342
0.00967619
0.0095017
0.00935763
0.00924501
0.00916169
0.00910304
0.00906345
0.00903755
0.00902096
0.00901038
0.00900351
0.00899886
0.00899544
0.00899269
0.00899029
0.00898809
0.00898603
0.000129065
0.000920794
0.00199041
0.00317114
0.00435339
0.00544681
0.00639079
0.00715712
0.00774546
0.00817485
0.00847437
0.00867534
0.00880636
0.00889095
0.00894731
0.00898914
0.00902705
0.00906976
0.009125
0.00919963
0.00929901
0.00942584
0.00957997
0.00976149
0.00997802
0.0101403
0.0100685
0.00988058
0.00968147
0.00950538
0.00935995
0.00924632
0.00916235
0.00910337
0.00906368
0.00903783
0.0090214
0.00901106
0.00900452
0.00900024
0.00899727
0.00899503
0.00899317
0.0089915
0.00898993
0.000129193
0.000922864
0.00199489
0.00317754
0.00436086
0.00545445
0.00639785
0.00716307
0.00775007
0.0081781
0.00847639
0.00867637
0.00880665
0.00889077
0.00894691
0.00898877
0.00902697
0.00907027
0.00912643
0.00920235
0.00930342
0.00943232
0.00958889
0.00977337
0.00999388
0.0101563
0.0100792
0.00988834
0.00968715
0.00950931
0.00936243
0.00924773
0.00916307
0.00910373
0.0090639
0.00903806
0.00902171
0.00901151
0.00900513
0.00900106
0.00899832
0.00899633
0.00899473
0.00899332
0.00899196
0.000129313
0.000924877
0.00199924
0.00318377
0.00436815
0.00546191
0.00640475
0.00716892
0.00775462
0.00818133
0.00847843
0.00867745
0.00880702
0.0088907
0.00894664
0.00898855
0.00902707
0.00907097
0.00912806
0.0092053
0.00930805
0.009439
0.00959797
0.00978536
0.0100098
0.0101725
0.0100906
0.00989666
0.00969323
0.0095135
0.0093651
0.00924928
0.00916392
0.0091042
0.0090642
0.00903833
0.00902201
0.00901186
0.00900556
0.00900157
0.00899893
0.00899703
0.00899554
0.00899422
0.00899294
0.000129427
0.000926832
0.00200347
0.00318984
0.00437525
0.00546921
0.00641151
0.00717466
0.0077591
0.00818453
0.00848049
0.00867858
0.00880748
0.00889074
0.00894651
0.0089885
0.00902735
0.00907188
0.00912994
0.00920851
0.00931298
0.00944597
0.00960731
0.00979757
0.0100258
0.0101891
0.0101026
0.00990558
0.00969976
0.00951803
0.00936801
0.00925104
0.00916495
0.00910483
0.00906464
0.0090387
0.00902237
0.00901223
0.00900594
0.00900196
0.00899933
0.00899744
0.00899595
0.00899463
0.00899335
0.000129534
0.00092873
0.00200758
0.00319574
0.00438218
0.00547633
0.00641813
0.00718029
0.00776352
0.00818772
0.00848257
0.00867977
0.00880803
0.0088909
0.00894652
0.00898862
0.00902785
0.00907305
0.00913212
0.00921207
0.00931828
0.00945334
0.00961707
0.00981018
0.0100422
0.0102062
0.0101154
0.00991515
0.00970679
0.00952294
0.00937124
0.00925306
0.00916621
0.00910567
0.00906528
0.00903924
0.00902286
0.00901269
0.00900636
0.00900234
0.00899966
0.00899772
0.00899618
0.0089948
0.00899347
0.000129634
0.000930572
0.00201156
0.00320147
0.00438892
0.00548328
0.0064246
0.00718582
0.00776788
0.00819089
0.00848468
0.00868102
0.00880868
0.00889119
0.00894671
0.00898895
0.0090286
0.00907453
0.00913467
0.00921607
0.00932409
0.00946127
0.0096274
0.00982338
0.0100593
0.0102241
0.0101292
0.0099255
0.00971441
0.00952832
0.00937485
0.00925541
0.00916777
0.00910679
0.00906616
0.00904
0.00902354
0.00901329
0.00900689
0.00900278
0.00900001
0.00899797
0.00899634
0.00899488
0.00899346
0.000129727
0.000932361
0.00201543
0.00320704
0.00439549
0.00549007
0.00643093
0.00719126
0.00777219
0.00819406
0.00848683
0.00868237
0.00880945
0.00889165
0.0089471
0.00898954
0.00902966
0.00907639
0.00913769
0.00922062
0.00933054
0.00946992
0.00963852
0.00983742
0.0100772
0.010243
0.010144
0.00993674
0.00972273
0.00953425
0.00937892
0.00925817
0.00916971
0.00910825
0.00906737
0.00904104
0.00902446
0.0090141
0.00900757
0.00900333
0.00900043
0.00899827
0.00899651
0.00899493
0.00899341
0.000129815
0.000934101
0.00201919
0.00321246
0.00440189
0.00549668
0.00643713
0.00719659
0.00777646
0.00819724
0.00848905
0.00868382
0.00881038
0.00889231
0.00894776
0.00899046
0.00903113
0.00907875
0.00914131
0.0092259
0.00933784
0.00947952
0.00965068
0.00985259
0.0100963
0.0102633
0.0101602
0.00994906
0.00973189
0.00954087
0.00938358
0.00926145
0.00917212
0.00911015
0.00906896
0.00904243
0.00902567
0.00901514
0.00900845
0.00900404
0.00900096
0.00899863
0.00899672
0.008995
0.00899335
0.000129896
0.0009358
0.00202283
0.00321771
0.00440809
0.00550311
0.00644318
0.00720184
0.00778071
0.00820046
0.00849137
0.00868543
0.00881154
0.00889326
0.00894877
0.00899181
0.00903314
0.00908177
0.00914574
0.00923214
0.00934624
0.00949037
0.0096642
0.00986923
0.0101171
0.0102852
0.0101779
0.00996264
0.00974205
0.00954831
0.00938895
0.00926537
0.00917512
0.00911259
0.00907104
0.00904424
0.00902725
0.00901648
0.00900955
0.00900492
0.00900162
0.00899909
0.00899699
0.00899511
0.00899332
0.00012997
0.000937459
0.00202636
0.00322277
0.00441407
0.00550934
0.00644907
0.00720701
0.00778495
0.00820377
0.00849385
0.00868729
0.00881301
0.00889462
0.00895028
0.00899378
0.0090359
0.00908568
0.00915123
0.00923962
0.00935607
0.00950279
0.00967943
0.00988773
0.0101399
0.0103093
0.0101975
0.00997769
0.00975337
0.00955673
0.00939518
0.00927008
0.00917885
0.0091157
0.00907372
0.00904657
0.00902925
0.00901817
0.00901094
0.00900601
0.00900244
0.00899966
0.00899734
0.00899527
0.00899331
0.000130037
0.000939067
0.00202972
0.00322758
0.00441977
0.00551531
0.00645479
0.0072121
0.00778923
0.00820721
0.00849658
0.0086895
0.00881495
0.00889656
0.00895251
0.00899661
0.00903969
0.00909083
0.00915816
0.00924875
0.00936774
0.00951721
0.00969678
0.0099085
0.0101653
0.0103361
0.0102194
0.00999435
0.00976596
0.00956625
0.00940243
0.00927575
0.00918347
0.00911963
0.00907712
0.00904952
0.00903176
0.00902027
0.00901263
0.00900733
0.00900343
0.00900035
0.00899777
0.00899547
0.00899332
0.000130094
0.000940564
0.00203281
0.003232
0.00442506
0.00552096
0.00646031
0.00721714
0.00779361
0.00821092
0.0084997
0.00869225
0.00881758
0.00889934
0.00895577
0.00900068
0.00904494
0.00909767
0.00916703
0.00926005
0.00938177
0.00953409
0.00971666
0.00993195
0.0101937
0.010366
0.0102437
0.0100127
0.00977985
0.00957693
0.0094108
0.00928253
0.00918918
0.00912456
0.00908141
0.00905321
0.00903488
0.00902283
0.00901469
0.00900892
0.00900461
0.00900118
0.00899828
0.00899572
0.00899335
0.000130139
0.000941814
0.00203539
0.00323581
0.0044298
0.00552619
0.00646562
0.0072222
0.00779821
0.00821504
0.00850344
0.0086958
0.00882121
0.00890337
0.00896051
0.0090065
0.00905223
0.00910686
0.00917852
0.0092742
0.00939878
0.00955396
0.00973947
0.00995832
0.0102253
0.0103991
0.0102701
0.0100323
0.00979469
0.00958862
0.00942032
0.00929056
0.00919616
0.00913069
0.00908676
0.00905778
0.0090387
0.00902594
0.00901715
0.00901081
0.00900601
0.00900216
0.00899891
0.00899604
0.00899341
0.000130171
0.000942575
0.00203716
0.00323875
0.00443381
0.00553097
0.00647079
0.0072274
0.00780324
0.00821983
0.00850809
0.00870053
0.00882631
0.00890916
0.00896736
0.0090148
0.00906238
0.00911925
0.0091935
0.00929202
)
;

boundaryField
{
    leftWall
    {
        type            nutkWallFunction;
        Cmu             0.09;
        kappa           0.41;
        E               9.8;
        value           nonuniform List<scalar> 
44
(
1.2747e-05
1.40966e-05
1.47218e-05
1.50921e-05
1.53152e-05
1.54538e-05
1.55446e-05
1.56081e-05
1.56556e-05
1.56933e-05
1.57249e-05
1.57527e-05
1.57778e-05
1.58009e-05
1.58225e-05
1.58429e-05
1.58624e-05
1.58809e-05
1.58988e-05
1.59159e-05
1.59323e-05
1.59481e-05
1.59633e-05
1.59779e-05
1.59918e-05
1.60052e-05
1.6018e-05
1.60302e-05
1.60418e-05
1.60529e-05
1.60634e-05
1.60733e-05
1.60827e-05
1.60916e-05
1.60999e-05
1.61076e-05
1.61148e-05
1.61216e-05
1.61278e-05
1.61336e-05
1.61388e-05
1.61433e-05
1.6147e-05
1.61497e-05
)
;
    }
    rightWall
    {
        type            nutkWallFunction;
        Cmu             0.09;
        kappa           0.41;
        E               9.8;
        value           nonuniform 0();
    }
    lowerWall
    {
        type            nutkWallFunction;
        Cmu             0.09;
        kappa           0.41;
        E               9.8;
        value           nonuniform List<scalar> 
44
(
9.77825e-06
1.02607e-05
1.08734e-05
1.12321e-05
1.14311e-05
1.15429e-05
1.16098e-05
1.16554e-05
1.16925e-05
1.1728e-05
1.17654e-05
1.18067e-05
1.18535e-05
1.19073e-05
1.19699e-05
1.2044e-05
1.21333e-05
1.22433e-05
1.23813e-05
1.25555e-05
1.27738e-05
1.30209e-05
1.32202e-05
1.33173e-05
1.33083e-05
1.32815e-05
1.3339e-05
1.3356e-05
1.27977e-05
6.44981e-06
6.04779e-06
5.60537e-06
5.26561e-06
5.03994e-06
4.88229e-06
4.75815e-06
4.64722e-06
4.53862e-06
4.42501e-06
4.29896e-06
4.15032e-06
3.96153e-06
3.69644e-06
3.27519e-06
)
;
    }
    atmosphere
    {
        type            calculated;
        value           nonuniform 0();
    }
    defaultFaces
    {
        type            empty;
    }
    procBoundary0to1
    {
        type            processor;
        value           nonuniform List<scalar> 
44
(
7.61774e-05
0.000332615
0.000546394
0.000710784
0.000834887
0.000928998
0.00100423
0.00107278
0.00115003
0.00126607
0.00156168
0.00205028
0.00274627
0.00358925
0.00449256
0.00537338
0.00617453
0.00686464
0.00743255
0.00788137
0.00788137
0.00811359
0.00840148
0.00860591
0.00874651
0.00884029
0.00890101
0.00893919
0.00896249
0.00897627
0.00898413
0.00898843
0.00899064
0.00899166
0.00899205
0.00899211
0.00899202
0.00899187
0.00899172
0.00899157
0.00899142
0.00899128
0.00899116
0.00899106
)
;
    }
    procBoundary0to2
    {
        type            processor;
        value           nonuniform List<scalar> 
46
(
0.00941933
0.00957714
0.00976526
0.00998739
0.0102596
0.0104345
0.0102972
0.0100517
0.00980935
0.00960062
0.00943069
0.00929984
0.00920456
0.00913823
0.00909337
0.00906341
0.00904335
0.00902968
0.00902008
0.00901306
0.00900767
0.00900335
0.00899972
0.00899655
0.00899369
0.000130188
0.000942598
0.00203782
0.00324064
0.00443709
0.00553542
0.00647601
0.00723302
0.007809
0.00822566
0.0085141
0.00870695
0.00883346
0.00891743
0.00897715
0.00902651
0.00907639
0.00913591
0.00921302
0.00941933
0.00931439
)
;
    }
}


// ************************************************************************* //
