/*--------------------------------*- C++ -*----------------------------------*\
| =========                 |                                                 |
| \\      /  F ield         | OpenFOAM: The Open Source CFD Toolbox           |
|  \\    /   O peration     | Version:  5.0                                   |
|   \\  /    A nd           | Web:      www.OpenFOAM.org                      |
|    \\/     M anipulation  |                                                 |
\*---------------------------------------------------------------------------*/
FoamFile
{
    version     2.0;
    format      ascii;
    class       volScalarField;
    location    "0.05";
    object      p;
}
// * * * * * * * * * * * * * * * * * * * * * * * * * * * * * * * * * * * * * //

dimensions      [1 -1 -2 0 0 0 0];

internalField   nonuniform List<scalar> 
1935
(
1222.53
1222.77
1220.72
1215.58
1206.84
1194.37
1178.24
1158.62
1135.64
1109.43
1080.03
1047.44
1011.6
972.371
929.562
882.88
831.912
776.088
714.586
646.348
569.809
483.124
386.945
282.293
172.326
77.6123
28.6772
9.92533
4.50286
3.17866
2.79028
2.63112
2.52643
2.44258
2.37151
2.30837
2.25236
2.20288
2.15966
2.12269
2.09211
2.06808
2.05061
2.0395
1175.11
1175.07
1172.5
1166.8
1157.7
1145.05
1128.84
1109.17
1086.15
1059.87
1030.39
997.679
961.679
922.25
879.181
832.162
780.752
724.334
662.029
592.691
514.561
425.941
327.475
217.779
101.3
22.351
2.54477
1.16078
2.08538
2.53012
2.61731
2.57023
2.48052
2.39769
2.32577
2.26233
2.20612
2.15645
2.11306
2.07595
2.04528
2.02116
2.00356
1.99216
1128.55
1128.45
1125.43
1119.06
1109.4
1096.38
1079.93
1060.1
1036.95
1010.54
980.914
948.038
911.835
872.161
828.788
781.385
729.477
672.406
609.251
538.814
459.363
369.715
270.201
156
45.9924
4.82541
2.29812
2.2102
2.20452
2.37462
2.47746
2.4698
2.40666
2.33692
2.27101
2.21036
2.15536
2.10614
2.06279
2.02547
1.99439
1.96974
1.95152
1.93955
1083.12
1083.22
1080.19
1073.48
1063.35
1049.89
1033.1
1012.99
989.606
963.004
933.192
900.138
863.755
823.889
780.305
732.658
680.465
623.069
559.581
488.881
409.559
320.901
222.468
108.743
19.0045
3.0571
2.6921
2.41961
2.32175
2.35363
2.38669
2.37615
2.32843
2.26965
2.20996
2.15268
2.09943
2.05097
2.00773
1.97003
1.9382
1.91258
1.89336
1.88079
1039.02
1039.34
1036.55
1029.84
1019.5
1005.74
988.624
968.222
944.59
917.774
887.785
854.587
818.091
778.143
734.506
686.841
634.687
577.434
514.295
444.332
366.554
280.639
185.573
78.7816
11.9232
3.39363
2.66992
2.42275
2.33331
2.32067
2.31911
2.29579
2.25216
2.19948
2.14429
2.09001
2.03852
1.99089
1.94772
1.90948
1.87666
1.8498
1.82936
1.81618
996.392
996.845
994.354
987.879
977.59
963.729
946.439
925.833
902.007
875.029
844.921
811.656
775.154
735.265
691.764
644.336
592.564
535.918
473.749
405.357
330.163
248.207
158.188
60.8322
10.3029
3.44292
2.5769
2.38455
2.31366
2.28052
2.25513
2.2216
2.17759
2.12748
2.07513
2.02309
1.9731
1.92618
1.88299
1.84409
1.81013
1.78181
1.75994
1.74584
955.3
955.829
953.628
947.503
937.461
923.707
906.417
885.752
861.852
834.817
804.694
771.478
735.102
695.435
652.27
605.331
554.259
498.62
437.918
371.688
299.712
222.315
138.016
49.234
8.9441
3.20085
2.47959
2.33744
2.27861
2.23055
2.1902
2.14898
2.10309
2.05374
2.00294
1.95246
1.90361
1.85724
1.81395
1.77431
1.73907
1.70907
1.68534
1.66964
915.769
916.336
914.394
908.669
899.005
885.529
868.416
847.858
824.033
797.078
767.075
734.045
697.946
658.668
616.037
569.817
519.718
465.402
406.518
342.807
274.325
201.553
122.746
40.9742
7.60144
2.9544
2.3829
2.28135
2.22677
2.17034
2.12141
2.07503
2.02722
1.97784
1.9279
1.87849
1.8305
1.78455
1.74109
1.70067
1.66405
1.63207
1.60581
1.58726
877.782
878.369
876.664
871.351
862.144
849.076
832.294
812.001
788.405
761.68
731.943
699.247
663.577
624.854
582.937
537.637
488.728
435.963
379.115
318.086
253.113
184.695
110.719
34.6788
6.4
2.74495
2.28762
2.21431
2.16104
2.10075
2.04763
1.99818
1.94895
1.89944
1.85008
1.8015
1.75422
1.70861
1.66498
1.6238
1.58571
1.55143
1.52173
1.4985
841.298
841.9
840.412
835.509
826.8
814.227
797.894
778.002
754.779
728.428
699.1
666.88
631.786
593.767
552.721
508.503
460.946
409.881
355.177
296.855
235.246
170.761
100.854
29.6449
5.37007
2.55973
2.19318
2.1378
2.08463
2.02339
1.96872
1.91778
1.86787
1.81846
1.76969
1.72187
1.67525
1.62999
1.58626
1.54441
1.50487
1.46799
1.43394
1.4037
805.949
806.562
805.267
800.751
792.545
780.512
764.71
745.326
722.596
696.748
667.961
636.351
601.964
564.784
524.741
481.734
435.649
386.377
333.863
278.199
219.76
158.788
92.3068
25.4508
4.51539
2.38957
2.09782
2.0525
1.99942
1.93901
1.88441
1.83322
1.78337
1.73445
1.68643
1.63943
1.5935
1.54868
1.50501
1.46269
1.42187
1.38239
1.34342
1.30347
771.558
772.179
771.049
766.883
759.161
747.683
732.462
713.665
691.528
666.293
638.164
607.282
573.721
537.493
498.563
456.869
412.337
364.91
314.581
261.491
206.014
148.206
84.7381
21.9269
3.83186
2.23178
1.99959
1.95946
1.90683
1.84833
1.79493
1.74446
1.69536
1.64732
1.60027
1.55421
1.5091
1.46488
1.42153
1.37909
1.33752
1.29635
1.25419
1.20793
738.239
738.865
737.88
734.032
726.77
715.847
701.236
683.08
661.612
637.08
609.704
579.648
547.009
511.825
474.092
433.778
390.846
345.275
297.092
246.463
193.746
138.814
78.0822
19.0542
3.30638
2.084
1.898
1.86036
1.80869
1.75274
1.70128
1.65224
1.60443
1.55763
1.51177
1.4668
1.42268
1.37929
1.33657
1.29445
1.25277
1.21103
1.16798
1.12135
705.956
706.583
705.724
702.166
695.338
684.96
670.971
653.492
632.746
608.985
582.439
553.287
521.646
487.578
451.101
412.213
370.902
327.176
281.083
232.802
182.664
130.386
72.2088
16.7166
2.89338
1.94123
1.79225
1.75626
1.70613
1.65316
1.60413
1.55702
1.5109
1.46562
1.42116
1.37748
1.33453
1.29221
1.2504
1.20898
1.16776
1.12624
1.08347
1.03792
674.672
675.297
674.547
671.249
664.827
654.976
641.609
624.826
604.837
581.894
556.233
528.044
497.458
464.556
429.377
391.939
352.253
310.345
266.279
220.237
172.525
122.727
66.9796
14.7927
2.55663
1.80015
1.68214
1.64799
1.60005
1.55038
1.50412
1.45928
1.41512
1.3716
1.32873
1.28652
1.24494
1.20389
1.16323
1.12281
1.08243
1.04168
0.999803
0.955639
644.354
644.972
644.315
641.252
635.208
625.862
613.107
597.025
577.814
555.72
530.981
503.795
474.304
442.603
408.745
372.767
334.696
294.572
252.465
208.563
163.146
115.688
62.2712
13.1847
2.27092
1.65947
1.56799
1.53633
1.49118
1.44507
1.40179
1.35944
1.31745
1.27586
1.23474
1.19416
1.15411
1.11449
1.07515
1.03594
0.996678
0.957053
0.916498
0.874099
614.971
615.578
615.001
612.15
606.457
597.593
585.437
570.053
551.628
530.401
506.608
480.451
452.08
421.599
389.074
354.554
318.079
279.698
239.487
197.634
154.397
109.16
57.9805
11.8207
2.0214
1.51919
1.45051
1.42201
1.38018
1.33781
1.29765
1.25792
1.21822
1.17869
1.13946
1.10064
1.06222
1.02412
0.986222
0.948359
0.910388
0.872111
0.83313
0.792667
586.495
587.088
586.578
583.92
578.556
570.154
558.581
543.888
526.25
505.898
483.064
457.951
430.713
401.46
370.27
337.198
302.294
265.613
227.236
187.349
146.189
103.064
54.034
10.6519
1.79936
1.37873
1.33035
1.3058
1.2677
1.22915
1.19215
1.1551
1.11778
1.08039
1.04313
1.00612
0.969395
0.932884
0.896474
0.860036
0.823462
0.786663
0.749379
0.710869
558.901
559.477
559.027
556.547
551.493
543.533
532.527
518.515
501.66
482.184
460.314
436.25
410.15
382.127
352.265
320.624
287.263
252.239
215.636
177.637
138.463
97.3512
50.3858
9.63161
1.59566
1.23824
1.20854
1.18864
1.15445
1.11965
1.08576
1.05139
1.01644
0.981221
0.945952
0.910781
0.875755
0.840841
0.805949
0.770978
0.73586
0.700597
0.665056
0.628432
532.166
532.723
532.326
530.013
525.253
517.719
507.265
493.922
477.842
459.238
438.33
415.316
390.351
363.552
335.004
304.775
272.924
239.514
204.626
168.443
131.167
91.9772
46.9954
8.71858
1.40637
1.10106
1.08701
1.07165
1.04121
1.00988
0.978931
0.947123
0.914496
0.881398
0.848086
0.814724
0.781384
0.748063
0.714699
0.68122
0.647584
0.613864
0.579996
0.545397
506.266
506.804
506.457
504.3
499.822
492.698
482.781
470.093
454.778
437.037
417.085
395.113
371.276
345.688
318.438
289.594
259.22
227.377
194.148
159.711
124.252
86.8981
43.82
7.88318
1.23244
0.972498
0.968058
0.955947
0.928672
0.900363
0.872035
0.842593
0.812144
0.781068
0.749639
0.718033
0.686348
0.654607
0.622777
0.590809
0.558679
0.526432
0.494292
0.461819
0.428153
481.178
481.697
481.396
479.389
475.18
468.451
459.055
447.008
432.444
415.555
396.547
375.606
352.882
328.488
302.513
275.026
246.091
215.77
184.143
151.386
117.669
82.0707
40.8245
7.11898
1.07552
0.853999
0.85276
0.842123
0.817258
0.791406
0.765318
0.737976
0.709518
0.680327
0.65068
0.620765
0.590697
0.560524
0.53023
0.499794
0.469202
0.438472
0.407785
0.377203
0.345839
456.878
457.377
457.118
455.252
451.301
444.954
436.065
424.643
410.814
394.762
376.683
356.756
335.126
311.904
287.178
261.016
233.481
204.635
174.557
143.418
111.371
77.4614
37.9947
6.43648
0.932242
0.740115
0.740075
0.730085
0.707032
0.683118
0.658884
0.633361
0.606686
0.579227
0.551255
0.522963
0.494476
0.465855
0.437098
0.408195
0.379161
0.349996
0.320795
0.291685
0.262336
433.339
433.818
433.596
431.864
428.159
422.181
413.783
402.971
389.862
374.629
357.46
338.527
317.969
295.895
272.387
247.516
221.343
193.927
165.346
135.767
105.33
73.0516
35.3254
5.82179
0.796234
0.627569
0.629097
0.619643
0.597919
0.575484
0.552748
0.528774
0.503678
0.477802
0.451402
0.424666
0.397723
0.370636
0.343405
0.316026
0.288531
0.260941
0.233285
0.205656
0.177919
410.534
410.992
410.803
409.197
405.729
400.107
392.186
381.969
369.562
355.131
338.853
320.892
301.382
280.427
258.109
234.494
209.644
183.616
156.485
128.414
99.5335
68.8358
32.8098
5.25465
0.66721
0.518682
0.520474
0.510834
0.489872
0.468458
0.44689
0.424218
0.400515
0.376085
0.35116
0.325915
0.300471
0.274889
0.249163
0.223289
0.197306
0.171253
0.145152
0.119056
0.0929306
388.439
388.874
388.715
387.228
383.988
378.711
371.254
361.616
349.896
336.247
320.839
303.827
285.34
265.477
244.318
221.927
198.364
173.685
147.962
121.354
93.9801
64.8155
30.4418
4.72355
0.546097
0.416557
0.414924
0.403604
0.382748
0.361937
0.34125
0.319675
0.29721
0.274107
0.250567
0.226743
0.202748
0.178628
0.154374
0.129976
0.105474
0.080917
0.0563359
0.0317759
0.00723094
367.028
367.44
367.308
365.935
362.915
357.973
350.968
341.895
330.843
317.958
303.398
287.312
269.822
251.024
230.995
209.797
187.488
164.122
139.767
114.58
88.6676
60.9888
28.2189
4.23392
0.432001
0.318064
0.311011
0.297248
0.27614
0.255691
0.235707
0.215089
0.193745
0.171872
0.149636
0.127168
0.104562
0.0818544
0.0590277
0.0360702
0.013016
-0.0100808
-0.0331771
-0.0562287
-0.0792311
346.278
346.668
346.56
345.297
342.49
337.872
331.307
322.783
312.382
300.24
286.506
271.322
254.803
237.044
218.116
198.082
176.995
154.905
131.881
108.073
83.5779
57.3404
26.1339
3.79065
0.318824
0.216153
0.206021
0.190685
0.16949
0.149402
0.130078
0.110349
0.0900549
0.069342
0.0483435
0.0271686
0.00589662
-0.0154507
-0.0368978
-0.0584566
-0.0800961
-0.101761
-0.123402
-0.144976
-0.166484
326.165
326.533
326.449
325.292
322.69
318.386
312.246
304.253
294.485
283.064
270.134
255.828
240.257
223.509
205.656
186.756
166.857
146.008
124.275
101.804
78.6798
53.8421
24.1657
3.37936
0.203541
0.109349
0.0990067
0.0833308
0.0623933
0.0427964
0.0241663
0.00531466
-0.0139652
-0.0335632
-0.0533734
-0.073304
-0.0932901
-0.113323
-0.133434
-0.153634
-0.173891
-0.19415
-0.21436
-0.234489
-0.25455
306.661
307.008
306.947
305.891
303.485
299.484
293.754
286.277
277.121
266.402
254.255
240.804
226.156
210.396
193.591
175.794
157.051
137.405
116.92
95.7415
73.9454
50.4698
22.294
2.98629
0.0870284
0.000287494
-0.00938513
-0.0248684
-0.0453194
-0.0643033
-0.0821873
-0.100152
-0.118428
-0.136934
-0.155586
-0.174307
-0.193044
-0.211798
-0.230609
-0.249486
-0.268392
-0.287271
-0.30608
-0.324801
-0.343464
287.738
288.064
288.023
287.063
284.845
281.134
275.8
268.823
260.262
250.227
238.843
226.227
212.481
197.683
181.898
165.176
147.555
129.076
109.802
89.8745
69.3658
47.218
20.5136
2.60858
-0.0295044
-0.109236
-0.118597
-0.13385
-0.153709
-0.172002
-0.189097
-0.206156
-0.223424
-0.240844
-0.258352
-0.275883
-0.293393
-0.310896
-0.328435
-0.346018
-0.363604
-0.381138
-0.398586
-0.415947
-0.433258
269.364
269.669
269.646
268.775
266.738
263.308
258.357
251.865
243.886
234.517
223.877
212.078
199.211
185.351
170.56
154.882
138.353
121.009
102.912
84.2027
64.9468
44.0938
18.8288
2.24894
-0.145966
-0.21935
-0.228656
-0.243656
-0.262844
-0.280387
-0.296654
-0.312781
-0.329027
-0.345355
-0.361719
-0.378065
-0.394359
-0.410624
-0.426909
-0.443221
-0.459519
-0.475748
-0.491886
-0.507941
-0.523947
251.509
251.792
251.784
250.999
249.136
245.977
241.4
235.381
227.967
219.249
209.336
198.332
186.323
173.376
159.55
144.887
129.421
113.185
96.2394
78.7217
60.6882
41.0974
17.2376
1.90758
-0.262839
-0.330619
-0.339781
-0.354405
-0.372835
-0.389565
-0.404957
-0.420121
-0.435321
-0.45054
-0.465746
-0.480899
-0.495973
-0.511002
-0.526038
-0.541092
-0.556125
-0.571089
-0.585967
-0.600771
-0.61552
234.142
234.403
234.41
233.707
232.011
229.115
224.901
219.342
212.478
204.393
195.187
184.958
173.783
161.725
148.837
135.161
120.73
105.579
89.7627
73.4118
56.571
38.2105
15.726
1.58057
-0.380551
-0.443254
-0.452124
-0.466236
-0.483821
-0.499669
-0.51413
-0.528284
-0.542404
-0.556485
-0.570509
-0.584447
-0.598287
-0.61207
-0.625851
-0.639648
-0.653427
-0.667152
-0.68081
-0.694406
-0.707939
217.233
217.474
217.493
216.869
215.335
212.693
208.83
203.716
197.387
189.917
181.398
171.921
161.559
150.366
138.392
125.679
112.26
98.1687
83.4581
68.247
52.5683
35.41
14.2796
1.26443
-0.499361
-0.557315
-0.565778
-0.579264
-0.595921
-0.610808
-0.624271
-0.637357
-0.650349
-0.663254
-0.676064
-0.688761
-0.701345
-0.713866
-0.72638
-0.738912
-0.751442
-0.76394
-0.776396
-0.788808
-0.801156
200.75
200.971
201.002
200.453
199.074
196.677
193.152
188.469
182.658
175.785
167.935
159.19
149.619
139.272
128.192
116.421
103.993
90.9392
77.3077
63.2074
48.6619
32.6846
12.8946
0.959106
-0.619237
-0.672791
-0.680794
-0.693562
-0.709203
-0.723052
-0.735443
-0.747393
-0.759198
-0.77088
-0.782437
-0.79386
-0.805165
-0.816405
-0.82764
-0.838898
-0.850174
-0.861447
-0.872706
-0.88394
-0.895113
184.66
184.861
184.903
184.425
183.195
181.034
177.835
173.568
168.26
161.967
154.766
146.734
137.935
128.414
118.212
107.367
95.9105
83.8713
71.2931
58.277
44.8426
30.0319
11.5721
0.665532
-0.740139
-0.789689
-0.797217
-0.809191
-0.823734
-0.836471
-0.847722
-0.858469
-0.869022
-0.87942
-0.889671
-0.899777
-0.909768
-0.919701
-0.929636
-0.939606
-0.949618
-0.959659
-0.969717
-0.979769
-0.989767
168.928
169.11
169.161
168.751
167.665
165.731
162.846
158.981
154.158
148.428
141.859
134.523
126.478
117.765
108.423
98.4862
87.9827
76.9373
65.3905
53.4391
41.1003
27.4457
10.307
0.381977
-0.862331
-0.90812
-0.915148
-0.926256
-0.939622
-0.951185
-0.96124
-0.970722
-0.97995
-0.988986
-0.997857
-1.00658
-1.01521
-1.02379
-1.03239
-1.04104
-1.04977
-1.05856
-1.06741
-1.07627
-1.08508
153.516
153.68
153.74
153.395
152.446
150.732
148.15
144.672
140.32
135.138
129.186
122.529
115.22
107.299
98.7995
89.7528
80.1831
70.1126
59.5807
48.6805
37.4252
24.9168
9.09087
0.105999
-0.986127
-1.02825
-1.03474
-1.0449
-1.05699
-1.0673
-1.07611
-1.08427
-1.0921
-1.09969
-1.10709
-1.11435
-1.12153
-1.1287
-1.13592
-1.14322
-1.15063
-1.15814
-1.16575
-1.17341
-1.18104
138.388
138.534
138.603
138.319
137.502
135.999
133.712
130.611
126.715
122.067
116.719
110.727
104.14
96.9946
89.3214
81.1471
72.4938
63.3835
53.8546
43.9946
33.8115
22.4406
7.92322
-0.162465
-1.11135
-1.15006
-1.15609
-1.16526
-1.17596
-1.1849
-1.19237
-1.19916
-1.20554
-1.2116
-1.21742
-1.22312
-1.22878
-1.23446
-1.24024
-1.24613
-1.25218
-1.25839
-1.26473
-1.27117
-1.2776
123.511
123.64
123.717
123.493
122.799
121.5
119.502
116.77
113.32
109.191
104.431
99.0919
93.2143
86.8302
79.9671
72.65
64.8999
56.7386
48.2027
39.3723
30.2498
20.0178
6.81517
-0.420653
-1.23756
-1.27343
-1.27916
-1.28749
-1.29672
-1.30416
-1.31014
-1.31541
-1.32025
-1.32471
-1.3289
-1.33294
-1.33697
-1.34108
-1.34533
-1.34977
-1.35441
-1.35926
-1.36432
-1.36951
-1.37474
108.85
108.964
109.054
108.894
108.322
107.219
105.504
103.136
100.119
96.4895
92.302
87.6026
82.4234
76.7876
70.7199
64.2467
57.389
50.1653
42.6093
34.794
26.7306
17.6571
5.77073
-0.663086
-1.36493
-1.39838
-1.404
-1.41164
-1.41953
-1.42533
-1.42964
-1.43321
-1.43632
-1.43906
-1.4415
-1.4438
-1.44612
-1.44857
-1.45121
-1.4541
-1.45727
-1.46074
-1.46447
-1.46839
-1.47241
94.3266
94.4397
94.5614
94.4808
94.0415
93.1339
91.693
89.6776
87.082
83.9407
80.3097
76.2357
71.7423
66.843
61.5585
55.9164
49.9386
43.6399
37.0478
30.2363
23.2407
15.3435
4.79772
-0.893405
-1.49214
-1.52553
-1.53127
-1.53787
-1.54446
-1.54855
-1.55108
-1.55279
-1.55395
-1.55469
-1.55517
-1.55559
-1.55612
-1.55685
-1.55783
-1.55911
-1.56076
-1.56278
-1.56514
-1.56777
-1.57052
79.8131
79.9773
80.163
80.1809
79.8908
79.1861
78.0035
76.318
74.1345
71.4834
68.4082
64.9474
61.1213
56.9408
52.4252
47.6022
42.4919
37.1057
31.4746
25.6718
)
;

boundaryField
{
    leftWall
    {
        type            calculated;
        value           nonuniform List<scalar> 
44
(
1222.53
1175.11
1128.55
1083.12
1039.02
996.392
955.3
915.769
877.782
841.298
805.949
771.558
738.239
705.956
674.672
644.354
614.971
586.495
558.901
532.166
506.266
481.178
456.878
433.339
410.534
388.439
367.028
346.278
326.165
306.661
287.738
269.364
251.509
234.142
217.233
200.75
184.66
168.928
153.516
138.388
123.511
108.85
94.3266
79.8131
)
;
    }
    rightWall
    {
        type            calculated;
        value           nonuniform 0();
    }
    lowerWall
    {
        type            calculated;
        value           nonuniform List<scalar> 
44
(
1246.08
1246.31
1244.27
1239.12
1230.39
1217.91
1201.79
1182.16
1159.18
1132.97
1103.57
1070.98
1035.14
995.914
953.106
906.423
855.456
799.632
738.129
669.891
593.353
506.668
410.488
305.824
195.685
100.306
47.7145
16.5721
4.58844
3.19892
2.8128
2.65439
2.5499
2.46611
2.39505
2.33191
2.2759
2.22643
2.1832
2.14623
2.11566
2.09162
2.07415
2.06304
)
;
    }
    atmosphere
    {
        type            calculated;
        value           nonuniform 0();
    }
    defaultFaces
    {
        type            empty;
    }
    procBoundary0to1
    {
        type            processor;
        value           nonuniform List<scalar> 
44
(
2.03423
1.98662
1.93411
1.87589
1.81187
1.74164
1.66459
1.57994
1.48662
1.38122
1.25545
1.15107
1.0687
0.987754
0.907716
0.828931
0.750202
0.670724
0.590566
0.509909
0.509909
0.394356
0.313808
0.232248
0.14989
0.0667018
-0.0173307
-0.102222
-0.187975
-0.274605
-0.362136
-0.450594
-0.539985
-0.630291
-0.721466
-0.813457
-0.906211
-0.999678
-1.09382
-1.18859
-1.28396
-1.37991
-1.47638
-1.57327
)
;
    }
    procBoundary0to2
    {
        type            processor;
        value           nonuniform List<scalar> 
46
(
19.7288
13.0182
3.8968
-1.11874
-1.62465
-1.65576
-1.66098
-1.66675
-1.67166
-1.67392
-1.67445
-1.67406
-1.67308
-1.67163
-1.66996
-1.66833
-1.66695
-1.66587
-1.66513
-1.66476
-1.66483
-1.66534
-1.66627
-1.66752
-1.66896
65.368
65.5705
65.786
65.8984
65.7539
65.2426
64.3096
62.9425
61.1598
58.9934
56.4738
53.6217
50.4497
46.9716
43.2102
39.1925
34.9388
30.466
25.797
19.7288
20.9981
)
;
    }
}


// ************************************************************************* //
