/*--------------------------------*- C++ -*----------------------------------*\
| =========                 |                                                 |
| \\      /  F ield         | OpenFOAM: The Open Source CFD Toolbox           |
|  \\    /   O peration     | Version:  5.0                                   |
|   \\  /    A nd           | Web:      www.OpenFOAM.org                      |
|    \\/     M anipulation  |                                                 |
\*---------------------------------------------------------------------------*/
FoamFile
{
    version     2.0;
    format      ascii;
    class       volScalarField;
    location    "0.05";
    object      p_rgh;
}
// * * * * * * * * * * * * * * * * * * * * * * * * * * * * * * * * * * * * * //

dimensions      [1 -1 -2 0 0 0 0];

internalField   nonuniform List<scalar> 
1935
(
1246.08
1246.31
1244.27
1239.12
1230.39
1217.91
1201.79
1182.16
1159.18
1132.97
1103.57
1070.98
1035.14
995.914
953.106
906.423
855.456
799.632
738.129
669.891
593.353
506.668
410.488
305.824
195.685
100.306
47.7145
16.5721
4.58844
3.19892
2.8128
2.65439
2.5499
2.46611
2.39505
2.33191
2.2759
2.22643
2.1832
2.14623
2.11566
2.09162
2.07415
2.06304
1245.74
1245.7
1243.13
1237.43
1228.33
1215.68
1199.47
1179.8
1156.78
1130.5
1101.02
1068.31
1032.31
992.88
949.811
902.792
851.383
794.964
732.66
663.322
585.192
496.571
398.106
288.41
169.669
68.0231
11.6275
2.39348
2.96064
2.9198
2.80209
2.65982
2.55679
2.46973
2.39673
2.33303
2.27677
2.22709
2.18369
2.14658
2.11591
2.09179
2.07419
2.06279
1246.27
1246.16
1243.15
1236.78
1227.12
1214.1
1197.65
1177.82
1154.66
1128.26
1098.63
1065.76
1029.55
989.878
946.506
899.102
847.195
790.124
726.968
656.531
577.081
487.433
387.919
273.718
145.141
33.4071
4.30597
2.94847
2.58728
2.63543
2.65665
2.60566
2.52841
2.45554
2.38894
2.32812
2.27309
2.22386
2.18051
2.14319
2.11211
2.08746
2.06923
2.05727
1247.92
1248.03
1245
1238.28
1228.15
1214.7
1197.9
1177.79
1154.41
1127.81
1098
1064.94
1028.56
988.694
945.11
897.462
845.269
787.874
724.386
653.686
574.363
485.706
387.272
273.547
122.172
13.9096
3.91445
2.87639
2.58619
2.55102
2.56169
2.54407
2.49418
2.4347
2.37482
2.3175
2.26424
2.21578
2.17254
2.13483
2.103
2.07738
2.05816
2.04559
1250.91
1251.23
1248.44
1241.73
1231.39
1217.63
1200.52
1180.11
1156.48
1129.67
1099.68
1066.48
1029.98
990.035
946.397
898.732
846.578
789.326
726.186
656.223
578.445
492.53
397.464
287.067
99.5467
6.83201
3.53814
2.78917
2.587
2.5457
2.53502
2.50875
2.46433
2.41144
2.3562
2.30191
2.25042
2.20278
2.15961
2.12137
2.08855
2.06169
2.04126
2.02807
1255.37
1255.82
1253.33
1246.86
1236.57
1222.71
1205.42
1184.81
1160.99
1134.01
1103.9
1070.63
1034.13
994.244
950.743
903.314
851.542
794.896
732.728
664.335
589.141
507.186
417.167
301.141
80.9239
5.66161
3.26117
2.73334
2.59251
2.54443
2.51541
2.48092
2.43665
2.38648
2.33411
2.28207
2.23208
2.18516
2.14197
2.10307
2.06911
2.04079
2.01891
2.00482
1261.37
1261.89
1259.69
1253.57
1243.53
1229.77
1212.48
1191.82
1167.92
1140.88
1110.76
1077.54
1041.17
1001.5
958.336
911.396
860.324
804.685
743.984
677.753
605.777
528.381
444.082
317.303
66.2194
4.91051
3.06568
2.69769
2.59523
2.53879
2.49675
2.45515
2.40918
2.35981
2.30901
2.25853
2.20967
2.16331
2.12001
2.08038
2.04514
2.01514
1.9914
1.9757
1268.92
1269.49
1267.55
1261.82
1252.16
1238.68
1221.57
1201.01
1177.19
1150.23
1120.23
1087.2
1051.1
1011.82
969.189
922.97
872.871
818.554
759.67
695.96
627.478
554.705
475.898
333.497
55.0789
4.3484
2.92541
2.66813
2.58588
2.52457
2.47477
2.42822
2.38038
2.331
2.28105
2.23164
2.18365
2.1377
2.09424
2.05383
2.0172
1.98522
1.95896
1.94042
1278.02
1278.61
1276.9
1271.59
1262.38
1249.32
1232.53
1212.24
1188.64
1161.92
1132.18
1099.49
1063.82
1025.09
983.176
937.877
888.967
836.202
779.354
718.326
653.352
584.934
510.958
349.822
46.7896
3.94468
2.8204
2.63612
2.56479
2.50157
2.44797
2.39844
2.34919
2.29968
2.25032
2.20174
2.15446
2.10885
2.06522
2.02404
1.98595
1.95167
1.92197
1.89874
1288.62
1289.23
1287.74
1282.84
1274.13
1261.55
1245.22
1225.33
1202.11
1175.75
1146.43
1114.21
1079.11
1041.09
1000.05
955.829
908.272
857.207
802.504
744.181
682.572
618.087
548.18
366.471
40.4337
3.64113
2.73678
2.59951
2.53411
2.47105
2.41609
2.36511
2.31519
2.26578
2.21702
2.1692
2.12258
2.07732
2.03359
1.99173
1.95219
1.91532
1.88126
1.85103
1300.78
1301.4
1300.1
1295.59
1287.38
1275.35
1259.55
1240.16
1217.43
1191.58
1162.8
1131.19
1096.8
1059.62
1019.58
976.57
930.484
881.213
828.698
773.035
714.595
653.623
587.142
383.318
35.318
3.40205
2.66509
2.55731
2.49564
2.43404
2.37927
2.32806
2.27821
2.22928
2.18127
2.13426
2.08834
2.04351
1.99985
1.95752
1.9167
1.87723
1.83826
1.7983
1314.55
1315.17
1314.04
1309.87
1302.15
1290.67
1275.45
1256.65
1234.52
1209.28
1181.15
1150.27
1116.71
1080.48
1041.55
999.858
955.326
907.899
857.57
804.48
749.003
691.195
627.727
399.838
31.0262
3.20759
2.59888
2.50965
2.45075
2.39144
2.33794
2.28745
2.23835
2.19031
2.14326
2.0972
2.05208
2.00787
1.96452
1.92208
1.88051
1.83934
1.79718
1.75092
1329.83
1330.45
1329.47
1325.62
1318.36
1307.44
1292.83
1274.67
1253.2
1228.67
1201.29
1171.24
1138.6
1103.41
1065.68
1025.37
982.436
936.864
888.681
838.053
785.335
730.403
669.672
415.667
27.4475
3.04556
2.53466
2.45734
2.40094
2.34441
2.29288
2.24383
2.19602
2.14922
2.10336
2.05839
2.01427
1.97088
1.92816
1.88603
1.84436
1.80262
1.75957
1.71294
1346.6
1347.22
1346.37
1342.81
1335.98
1325.6
1311.61
1294.13
1273.39
1249.63
1223.08
1193.93
1162.29
1128.22
1091.74
1052.85
1011.54
967.817
921.724
873.443
823.305
771.027
712.85
430.747
24.2265
2.90275
2.46978
2.40105
2.34725
2.29386
2.24478
2.19766
2.15154
2.10627
2.0618
2.01812
1.97518
1.93285
1.89104
1.84962
1.8084
1.76689
1.72411
1.67856
1364.82
1365.45
1364.7
1361.4
1354.98
1345.12
1331.76
1314.97
1294.99
1272.04
1246.38
1218.19
1187.61
1154.7
1119.53
1082.09
1042.4
1000.49
956.427
910.386
862.674
812.876
757.128
444.827
21.1831
2.77129
2.40293
2.34141
2.29056
2.24057
2.19427
2.14943
2.10527
2.06175
2.01888
1.97667
1.93509
1.89404
1.85338
1.81296
1.77258
1.73183
1.68995
1.64579
1384.47
1385.09
1384.43
1381.37
1375.32
1365.98
1353.22
1337.14
1317.93
1295.84
1271.1
1243.91
1214.42
1182.72
1148.86
1112.88
1074.81
1034.69
992.581
948.679
903.261
855.804
802.387
457.745
18.2697
2.64755
2.33389
2.27907
2.23157
2.18522
2.14191
2.09956
2.05757
2.01597
1.97486
1.93428
1.89423
1.8546
1.81527
1.77606
1.73679
1.69717
1.65661
1.61421
1405.52
1406.12
1405.55
1402.7
1397
1388.14
1375.98
1360.6
1342.17
1320.95
1297.15
1271
1242.63
1212.15
1179.62
1145.1
1108.63
1070.24
1030.03
988.18
944.943
899.706
848.527
469.27
15.6081
2.53059
2.26304
2.21469
2.17094
2.12838
2.0882
2.04847
2.00877
1.96923
1.93001
1.89118
1.85276
1.81467
1.77677
1.73891
1.70093
1.66266
1.62368
1.58321
1427.94
1428.53
1428.02
1425.37
1420
1411.6
1400.03
1385.33
1367.7
1347.34
1324.51
1299.4
1272.16
1242.91
1211.72
1178.64
1143.74
1107.06
1068.68
1028.79
987.635
944.51
895.48
479.134
13.3815
2.4187
2.19078
2.14901
2.10932
2.07061
2.0336
1.99655
1.95922
1.92183
1.88458
1.84757
1.81084
1.77433
1.73792
1.70148
1.66491
1.62811
1.59082
1.55231
1451.72
1452.29
1451.84
1449.36
1444.31
1436.35
1425.34
1411.33
1394.48
1375
1353.13
1329.07
1302.97
1274.94
1245.08
1213.44
1180.08
1145.06
1108.45
1070.45
1031.28
990.169
943.203
487.542
11.3764
2.30983
2.11782
2.08293
2.0474
2.01248
1.97858
1.9442
1.90926
1.87404
1.83877
1.8036
1.76857
1.73366
1.69877
1.6638
1.62868
1.59341
1.55787
1.52125
1476.83
1477.39
1476.99
1474.68
1469.92
1462.38
1451.93
1438.59
1422.51
1403.9
1383
1359.98
1335.02
1308.22
1279.67
1249.44
1217.59
1184.18
1149.29
1113.11
1075.83
1036.64
991.661
494.5
9.45032
2.20628
2.04591
2.01755
1.98598
1.95456
1.9236
1.89179
1.85916
1.82606
1.79275
1.75939
1.72605
1.69273
1.65936
1.62589
1.59225
1.55853
1.52466
1.49006
1503.26
1503.8
1503.45
1501.3
1496.82
1489.69
1479.78
1467.09
1451.77
1434.03
1414.08
1392.11
1368.27
1342.68
1315.43
1286.59
1256.22
1224.37
1191.14
1156.71
1121.25
1083.89
1040.82
500.014
7.66182
2.11331
1.97734
1.95397
1.92576
1.89737
1.86903
1.83959
1.80914
1.77806
1.74663
1.71503
1.68334
1.6516
1.61977
1.58781
1.55568
1.52343
1.49129
1.45882
1.42515
1530.99
1531.51
1531.21
1529.2
1524.99
1518.26
1508.87
1496.82
1482.26
1465.37
1446.36
1425.42
1402.69
1378.3
1352.33
1324.84
1295.9
1265.58
1233.96
1201.2
1167.48
1131.88
1090.64
503.943
6.25504
2.03266
1.91319
1.89279
1.86714
1.84122
1.81513
1.78779
1.75933
1.73014
1.70049
1.67058
1.64051
1.61034
1.58004
1.54961
1.51901
1.48828
1.4576
1.42701
1.39565
1560
1560.5
1560.24
1558.37
1554.42
1548.07
1539.18
1527.76
1513.93
1497.88
1479.8
1459.87
1438.24
1415.02
1390.3
1364.13
1336.6
1307.75
1277.68
1246.54
1214.49
1180.58
1141.11
506.284
5.34381
1.95907
1.8524
1.83392
1.81021
1.78624
1.762
1.73648
1.7098
1.68235
1.65437
1.62608
1.59759
1.56897
1.54022
1.51131
1.48228
1.45311
1.42391
1.3948
1.36545
1590.26
1590.74
1590.52
1588.78
1585.08
1579.1
1570.7
1559.89
1546.78
1531.55
1514.38
1495.45
1474.89
1452.81
1429.31
1404.44
1378.26
1350.85
1322.27
1292.69
1262.25
1229.97
1192.25
507.304
4.56334
1.88853
1.79396
1.77716
1.75488
1.73241
1.70967
1.68569
1.6606
1.63472
1.60832
1.58159
1.55464
1.52756
1.50032
1.47295
1.44545
1.41786
1.39021
1.36258
1.33484
1621.76
1622.21
1622.02
1620.42
1616.95
1611.33
1603.41
1593.19
1580.78
1566.35
1550.07
1532.11
1512.6
1491.65
1469.33
1445.71
1420.86
1394.84
1367.71
1339.63
1310.75
1280.06
1244.03
507.026
3.84648
1.82253
1.73847
1.72255
1.70113
1.67968
1.65811
1.63544
1.61174
1.58731
1.56238
1.53714
1.51169
1.48611
1.46038
1.43451
1.40853
1.38247
1.35637
1.33028
1.30415
1654.46
1654.9
1654.74
1653.25
1650.01
1644.74
1637.28
1627.64
1615.92
1602.27
1586.86
1569.85
1551.37
1531.5
1510.34
1487.95
1464.39
1439.71
1413.99
1387.38
1360.01
1330.84
1296.47
505.532
3.18304
1.76404
1.68669
1.67003
1.6488
1.62796
1.60728
1.5857
1.56324
1.54013
1.51659
1.49277
1.46877
1.44465
1.4204
1.396
1.3715
1.34694
1.32236
1.2978
1.27326
1688.37
1688.78
1688.65
1687.27
1684.25
1679.31
1672.31
1663.23
1652.18
1639.3
1624.74
1608.65
1591.16
1572.36
1552.33
1531.14
1508.83
1485.46
1461.11
1435.92
1410.01
1382.33
1349.56
502.794
2.83172
1.71064
1.63717
1.61891
1.5975
1.57703
1.55705
1.53643
1.51508
1.49321
1.47098
1.44851
1.4259
1.40319
1.38037
1.35741
1.33436
1.31126
1.28816
1.26511
1.24211
1723.45
1723.83
1723.73
1722.46
1719.66
1715.04
1708.47
1699.95
1689.55
1677.41
1663.67
1648.49
1631.97
1614.21
1595.28
1575.25
1554.16
1532.07
1509.05
1485.24
1460.74
1434.51
1403.3
498.785
2.67224
1.65529
1.58721
1.56811
1.54667
1.52657
1.50724
1.48752
1.46722
1.44651
1.42551
1.40434
1.38306
1.36172
1.34027
1.31871
1.29707
1.27541
1.25377
1.23219
1.21068
1759.68
1760.05
1759.96
1758.8
1756.2
1751.9
1745.76
1737.77
1728
1716.58
1703.65
1689.34
1673.77
1657.02
1639.17
1620.27
1600.37
1579.52
1557.79
1535.32
1512.19
1487.35
1457.68
493.571
2.51591
1.59644
1.53585
1.51705
1.49592
1.47631
1.45768
1.43883
1.41955
1.39995
1.38014
1.36021
1.34022
1.32019
1.30008
1.27988
1.25962
1.23936
1.21915
1.19902
1.17896
1797.04
1797.39
1797.33
1796.27
1793.87
1789.87
1784.14
1776.66
1767.5
1756.78
1744.64
1731.19
1716.54
1700.78
1683.97
1666.18
1647.43
1627.79
1607.3
1586.12
1564.33
1540.85
1512.68
487.237
2.32477
1.53669
1.48373
1.46567
1.44507
1.42608
1.40819
1.39023
1.37195
1.35345
1.3348
1.31607
1.29734
1.27858
1.25977
1.2409
1.22199
1.20311
1.1843
1.16558
1.14692
1835.52
1835.84
1835.8
1834.84
1832.62
1828.91
1823.58
1816.6
1808.04
1798.01
1786.62
1774.01
1760.26
1745.46
1729.68
1712.95
1695.33
1676.85
1657.58
1637.65
1617.14
1595
1568.29
479.821
2.13799
1.47778
1.43141
1.41405
1.39408
1.37578
1.35868
1.34162
1.32435
1.30693
1.28943
1.2719
1.25439
1.23688
1.21934
1.20176
1.18417
1.16664
1.14919
1.13183
1.11452
1875.07
1875.38
1875.35
1874.48
1872.45
1869.02
1864.07
1857.57
1849.59
1840.23
1829.59
1817.79
1804.92
1791.06
1776.27
1760.59
1744.06
1726.72
1708.62
1689.91
1670.66
1649.8
1624.54
471.32
1.98225
1.41954
1.37884
1.36215
1.34287
1.32532
1.30906
1.29293
1.27668
1.26035
1.24399
1.22764
1.21135
1.19508
1.1788
1.16249
1.14619
1.12996
1.11382
1.09777
1.08176
1915.69
1915.97
1915.96
1915.18
1913.31
1910.15
1905.58
1899.56
1892.14
1883.43
1873.51
1862.51
1850.5
1837.55
1823.73
1809.06
1793.6
1777.36
1760.42
1742.9
1724.86
1705.27
1681.41
461.716
1.84526
1.36137
1.32582
1.30984
1.29134
1.27461
1.25922
1.24406
1.22886
1.21364
1.19843
1.18328
1.1682
1.15317
1.13814
1.12308
1.10805
1.09309
1.07821
1.06341
1.04866
1957.33
1957.59
1957.6
1956.89
1955.2
1952.3
1948.09
1942.53
1935.67
1927.58
1918.37
1908.14
1896.97
1884.91
1872.02
1858.35
1843.92
1828.77
1812.95
1796.6
1779.76
1761.4
1738.91
450.982
1.72033
1.30301
1.27218
1.257
1.23937
1.22352
1.20906
1.1949
1.18078
1.1667
1.15268
1.13874
1.1249
1.11112
1.09734
1.08354
1.06976
1.05603
1.04238
1.02878
1.01525
1999.98
2000.22
2000.24
1999.61
1998.08
1995.44
1991.58
1986.46
1980.13
1972.66
1964.14
1954.67
1944.3
1933.11
1921.14
1908.42
1895.01
1880.91
1866.2
1850.99
1835.31
1818.16
1797.03
439.077
1.60374
1.24436
1.21783
1.20352
1.18683
1.17194
1.15847
1.14539
1.1324
1.11949
1.10668
1.09398
1.0814
1.06888
1.05637
1.04383
1.0313
1.01881
1.00635
0.993937
0.98159
2043.61
2043.83
2043.86
2043.31
2041.93
2039.53
2036.01
2031.33
2025.52
2018.64
2010.79
2002.05
1992.48
1982.13
1971.05
1959.28
1946.85
1933.8
1920.16
1906.06
1891.52
1875.54
1855.75
425.958
1.49352
1.18539
1.16272
1.14932
1.13365
1.11981
1.10741
1.09546
1.08366
1.07198
1.06042
1.049
1.03769
1.02645
1.01522
1.00396
0.992683
0.98141
0.970151
0.958917
0.947744
2088.19
2088.39
2088.43
2087.95
2086.72
2084.56
2081.36
2077.09
2071.79
2065.49
2058.29
2050.26
2041.46
2031.94
2021.74
2010.89
1999.44
1987.4
1974.82
1961.8
1948.37
1933.56
1915.1
411.571
1.38852
1.12605
1.1068
1.09436
1.07979
1.06706
1.0558
1.04506
1.0345
1.02411
1.01386
1.00375
0.993758
0.983825
0.973891
0.96392
0.953909
0.943868
0.93381
0.923757
0.91376
2133.69
2133.87
2133.92
2133.51
2132.42
2130.49
2127.61
2123.74
2118.92
2113.19
2106.62
2099.28
2091.24
2082.52
2073.18
2063.25
2052.74
2041.7
2030.15
2018.2
2005.86
1992.21
1975.07
395.844
1.28772
1.0662
1.04997
1.03852
1.02514
1.01357
1.00352
0.994038
0.98481
0.975774
0.966903
0.958176
0.949553
0.940972
0.932374
0.923717
0.91499
0.906197
0.897355
0.888492
0.879677
2180.08
2180.24
2180.3
2179.96
2179.01
2177.29
2174.71
2171.23
2166.88
2161.7
2155.75
2149.09
2141.78
2133.86
2125.36
2116.31
2106.74
2096.67
2086.14
2075.24
2063.99
2051.48
2035.65
378.69
1.19032
1.00564
0.992076
0.981673
0.96957
0.95926
0.950454
0.94229
0.934457
0.92687
0.919473
0.912211
0.905027
0.897858
0.890644
0.883342
0.875933
0.868417
0.860811
0.853153
0.845524
2227.32
2227.47
2227.54
2227.26
2226.44
2224.94
2222.65
2219.55
2215.65
2211
2205.66
2199.66
2193.08
2185.93
2178.26
2170.08
2161.43
2152.32
2142.79
2132.93
2122.75
2111.38
2096.86
360.042
1.09618
0.944343
0.933016
0.923682
0.912973
0.904032
0.896565
0.889781
0.883401
0.877341
0.871514
0.865817
0.86016
0.854473
0.848701
0.842802
0.836752
0.830549
0.824206
0.81777
0.811335
2275.4
2275.53
2275.61
2275.38
2274.69
2273.39
2271.39
2268.66
2265.21
2261.08
2256.32
2250.98
2245.1
2238.72
2231.86
2224.54
2216.79
2208.63
2200.09
2191.26
2182.14
2171.91
2158.71
339.828
1.00551
0.88239
0.872842
0.864402
0.855169
0.84773
0.841755
0.836483
0.831644
0.827177
0.822994
0.818954
0.814923
0.810809
0.806556
0.802124
0.797483
0.792627
0.787576
0.782383
0.777152
2324.28
2324.39
2324.48
2324.32
2323.75
2322.65
2320.93
2318.57
2315.55
2311.92
2307.73
2303.03
2297.85
2292.22
2286.15
2279.68
2272.82
2265.6
2258.04
2250.22
2242.16
2233.09
2221.2
317.871
0.918227
0.819764
0.811502
0.803789
0.795901
0.790101
0.785789
0.782223
0.779107
0.776372
0.773932
0.77163
0.769309
0.766862
0.764221
0.761333
0.758159
0.754691
0.750962
0.747038
0.743023
2373.89
2374
2374.12
2374.04
2373.6
2372.69
2371.25
2369.24
2366.64
2363.5
2359.87
2355.79
2351.3
2346.4
2341.12
2335.47
2329.5
2323.2
2316.61
2309.79
2302.8
2294.9
2284.36
293.937
0.835386
0.755807
0.74833
0.741693
0.735098
0.731006
0.728482
0.726773
0.725607
0.724867
0.72439
0.723967
0.723434
0.722707
0.721732
0.720449
0.718802
0.716777
0.714414
0.711793
0.709039
2424.1
2424.26
2424.44
2424.46
2424.17
2423.47
2422.29
2420.6
2418.42
2415.77
2412.69
2409.23
2405.4
2401.22
2396.71
2391.88
2386.77
2381.39
2375.76
2369.95
)
;

boundaryField
{
    leftWall
    {
        type            fixedFluxPressure;
        gradient        uniform 0;
        value           nonuniform List<scalar> 
44
(
1246.08
1245.74
1246.27
1247.92
1250.91
1255.37
1261.37
1268.92
1278.02
1288.62
1300.78
1314.55
1329.83
1346.6
1364.82
1384.47
1405.52
1427.94
1451.72
1476.83
1503.26
1530.99
1560
1590.26
1621.76
1654.46
1688.37
1723.45
1759.68
1797.04
1835.52
1875.07
1915.69
1957.33
1999.98
2043.61
2088.19
2133.69
2180.08
2227.32
2275.4
2324.28
2373.89
2424.1
)
;
    }
    rightWall
    {
        type            fixedFluxPressure;
        gradient        nonuniform 0();
        value           nonuniform 0();
    }
    lowerWall
    {
        type            fixedFluxPressure;
        gradient        uniform 0;
        value           nonuniform List<scalar> 
44
(
1246.08
1246.31
1244.27
1239.12
1230.39
1217.91
1201.79
1182.16
1159.18
1132.97
1103.57
1070.98
1035.14
995.914
953.106
906.423
855.456
799.632
738.129
669.891
593.353
506.668
410.488
305.824
195.685
100.306
47.7145
16.5721
4.58844
3.19892
2.8128
2.65439
2.5499
2.46611
2.39505
2.33191
2.2759
2.22643
2.1832
2.14623
2.11566
2.09162
2.07415
2.06304
)
;
    }
    atmosphere
    {
        type            totalPressure;
        rho             rho;
        psi             none;
        gamma           1;
        p0              nonuniform 0();
        value           nonuniform 0();
    }
    defaultFaces
    {
        type            empty;
    }
    procBoundary0to1
    {
        type            processor;
        value           nonuniform List<scalar> 
44
(
2.05777
2.05725
2.05183
2.0407
2.02376
2.00062
1.97066
1.93309
1.88686
1.82855
1.75028
1.69406
1.66029
1.6284
1.59786
1.56905
1.54075
1.51217
1.48338
1.45457
1.45457
1.39135
1.36362
1.33537
1.30681
1.27792
1.24869
1.21912
1.18919
1.15891
1.12825
1.09719
1.06572
1.03389
1.00172
0.969288
0.936646
0.903848
0.870942
0.837973
0.804976
0.771983
0.739051
0.706285
)
;
    }
    procBoundary0to2
    {
        type            processor;
        value           nonuniform List<scalar> 
46
(
2364.01
2357.3
2348.18
267.969
0.751669
0.689619
0.683317
0.677533
0.672626
0.670361
0.669836
0.67022
0.671204
0.672651
0.674326
0.675951
0.677338
0.678415
0.679157
0.679521
0.679454
0.678939
0.67801
0.676762
0.675327
2474.98
2475.16
2475.38
2475.5
2475.36
2474.85
2473.92
2472.55
2470.77
2468.6
2466.08
2463.23
2460.06
2456.58
2452.82
2448.8
2444.55
2440.07
2435.4
2364.01
2430.6
)
;
    }
}


// ************************************************************************* //
