/*--------------------------------*- C++ -*----------------------------------*\
| =========                 |                                                 |
| \\      /  F ield         | OpenFOAM: The Open Source CFD Toolbox           |
|  \\    /   O peration     | Version:  5.0                                   |
|   \\  /    A nd           | Web:      www.OpenFOAM.org                      |
|    \\/     M anipulation  |                                                 |
\*---------------------------------------------------------------------------*/
FoamFile
{
    version     2.0;
    format      ascii;
    class       surfaceScalarField;
    location    "0.05";
    object      phi;
}
// * * * * * * * * * * * * * * * * * * * * * * * * * * * * * * * * * * * * * //

dimensions      [0 3 -1 0 0 0 0];

internalField   nonuniform List<scalar> 
3781
(
7.31471e-07
-7.31471e-07
2.02614e-06
-1.29468e-06
3.63121e-06
-1.60506e-06
5.3497e-06
-1.71849e-06
7.06919e-06
-1.7195e-06
8.74058e-06
-1.67139e-06
1.03529e-05
-1.61232e-06
1.19157e-05
-1.56276e-06
1.34476e-05
-1.53189e-06
1.49703e-05
-1.5227e-06
1.65057e-05
-1.5354e-06
1.80752e-05
-1.56957e-06
1.97007e-05
-1.62546e-06
2.14053e-05
-1.70466e-06
2.32161e-05
-1.81078e-06
2.5166e-05
-1.9499e-06
2.72978e-05
-2.13176e-06
2.96682e-05
-2.37041e-06
3.23577e-05
-2.6895e-06
3.54567e-05
-3.09899e-06
3.91246e-05
-3.66796e-06
4.34591e-05
-4.33442e-06
4.80425e-05
-4.58345e-06
5.19365e-05
-3.89401e-06
5.42933e-05
-2.35681e-06
5.59032e-05
-1.60984e-06
5.9383e-05
-3.47985e-06
6.5939e-05
-6.55603e-06
6.67946e-05
-8.55618e-07
6.01933e-05
6.60125e-06
5.11092e-05
9.0841e-06
4.30563e-05
8.05295e-06
3.77467e-05
5.30961e-06
3.39441e-05
3.80253e-06
3.08009e-05
3.14341e-06
2.7998e-05
2.80287e-06
2.5371e-05
2.62682e-06
2.28054e-05
2.56566e-06
2.02048e-05
2.60072e-06
1.74857e-05
2.71909e-06
1.45809e-05
2.9047e-06
1.14558e-05
3.12503e-06
8.14386e-06
3.31182e-06
3.32579e-06
1.16828e-06
-1.89976e-06
2.57348e-06
-2.69987e-06
4.06005e-06
-3.09164e-06
5.57183e-06
-3.23027e-06
7.0676e-06
-3.21526e-06
8.52805e-06
-3.13183e-06
9.9507e-06
-3.03497e-06
1.13434e-05
-2.95547e-06
1.27196e-05
-2.90808e-06
1.40952e-05
-2.89828e-06
1.5487e-05
-2.92719e-06
1.69122e-05
-2.99478e-06
1.83887e-05
-3.10198e-06
1.9936e-05
-3.25198e-06
2.15766e-05
-3.45133e-06
2.33377e-05
-3.71106e-06
2.52543e-05
-4.04829e-06
2.73713e-05
-4.48745e-06
2.97442e-05
-5.06239e-06
3.24434e-05
-5.79818e-06
3.55156e-05
-6.74012e-06
3.89179e-05
-7.73673e-06
4.25512e-05
-8.21681e-06
4.61848e-05
-7.52761e-06
4.92902e-05
-5.46221e-06
5.07642e-05
-3.08379e-06
4.96556e-05
-2.37128e-06
5.15562e-05
-8.45658e-06
5.67705e-05
-6.06989e-06
5.63745e-05
6.99721e-06
5.04038e-05
1.5055e-05
4.36631e-05
1.47933e-05
3.80455e-05
1.09272e-05
3.37899e-05
8.05798e-06
3.04658e-05
6.46748e-06
2.76504e-05
5.61834e-06
2.51008e-05
5.17647e-06
2.26658e-05
5.00034e-06
2.02381e-05
5.0283e-06
1.77291e-05
5.22826e-06
1.50639e-05
5.57004e-06
1.21913e-05
5.99755e-06
9.11027e-06
6.39299e-06
6.52563e-06
1.46812e-06
-3.36789e-06
2.91754e-06
-4.14928e-06
4.27854e-06
-4.45264e-06
5.58383e-06
-4.53556e-06
6.84876e-06
-4.48019e-06
8.08295e-06
-4.36602e-06
9.29556e-06
-4.24758e-06
1.04964e-05
-4.15633e-06
1.16962e-05
-4.10785e-06
1.29062e-05
-4.10834e-06
1.41386e-05
-4.15951e-06
1.54058e-05
-4.26201e-06
1.67215e-05
-4.41772e-06
1.81009e-05
-4.63138e-06
1.95616e-05
-4.91196e-06
2.11246e-05
-5.27409e-06
2.28159e-05
-5.73962e-06
2.4667e-05
-6.33849e-06
2.67117e-05
-7.1071e-06
2.89858e-05
-8.07229e-06
3.1482e-05
-9.23635e-06
3.41474e-05
-1.04021e-05
3.69466e-05
-1.1016e-05
3.98023e-05
-1.03833e-05
4.22832e-05
-7.94313e-06
4.26767e-05
-3.47719e-06
4.07628e-05
-4.57488e-07
3.80378e-05
-5.73149e-06
3.6049e-05
-4.08108e-06
3.5407e-05
7.63904e-06
3.4733e-05
1.5729e-05
3.33991e-05
1.61272e-05
3.12487e-05
1.30777e-05
2.88766e-05
1.043e-05
2.65787e-05
8.76528e-06
2.4418e-05
7.77913e-06
2.23612e-05
7.23343e-06
2.03534e-05
7.00813e-06
1.83377e-05
7.04387e-06
1.62575e-05
7.30844e-06
1.40579e-05
7.76962e-06
1.16898e-05
8.3657e-06
9.11656e-06
8.96633e-06
9.3229e-06
1.61008e-06
-4.97797e-06
3.0736e-06
-5.61279e-06
4.34009e-06
-5.71914e-06
5.4878e-06
-5.68327e-06
6.56901e-06
-5.5614e-06
7.61555e-06
-5.41256e-06
8.64763e-06
-5.27967e-06
9.6791e-06
-5.1878e-06
1.07205e-05
-5.14921e-06
1.17807e-05
-5.1686e-06
1.28685e-05
-5.2473e-06
1.39928e-05
-5.38625e-06
1.51632e-05
-5.58811e-06
1.63906e-05
-5.85885e-06
1.76878e-05
-6.2091e-06
1.90692e-05
-6.65552e-06
2.05516e-05
-7.22196e-06
2.21523e-05
-7.93921e-06
2.38856e-05
-8.8404e-06
2.57563e-05
-9.94304e-06
2.77333e-05
-1.12134e-05
2.97616e-05
-1.24304e-05
3.18034e-05
-1.30578e-05
3.37907e-05
-1.23706e-05
3.53993e-05
-9.55172e-06
3.54475e-05
-3.52542e-06
3.54919e-05
-5.01908e-07
3.19693e-05
-2.20884e-06
2.72607e-05
6.2762e-07
2.55947e-05
9.30504e-06
2.61618e-05
1.51621e-05
2.66562e-05
1.56328e-05
2.60318e-05
1.37022e-05
2.4713e-05
1.17487e-05
2.31459e-05
1.03322e-05
2.15242e-05
9.40088e-06
1.99043e-05
8.85327e-06
1.82892e-05
8.62336e-06
1.66576e-05
8.67549e-06
1.49756e-05
8.99037e-06
1.31985e-05
9.54678e-06
1.1268e-05
1.02963e-05
9.10634e-06
1.1128e-05
1.18263e-05
1.6433e-06
-6.62127e-06
3.08914e-06
-7.05863e-06
4.28466e-06
-6.91466e-06
5.3211e-06
-6.71971e-06
6.26873e-06
-6.50903e-06
7.1732e-06
-6.31703e-06
8.06321e-06
-6.16968e-06
8.95684e-06
-6.08144e-06
9.86588e-06
-6.05825e-06
1.07986e-05
-6.10136e-06
1.17618e-05
-6.21048e-06
1.27617e-05
-6.38611e-06
1.38047e-05
-6.63115e-06
1.48981e-05
-6.9522e-06
1.60496e-05
-7.36062e-06
1.72676e-05
-7.87354e-06
1.856e-05
-8.51435e-06
1.99319e-05
-9.31115e-06
2.13813e-05
-1.02898e-05
2.28923e-05
-1.1454e-05
2.44221e-05
-1.27432e-05
2.59156e-05
-1.39239e-05
2.73359e-05
-1.4478e-05
2.86436e-05
-1.36784e-05
2.97013e-05
-1.06094e-05
3.06565e-05
-4.4806e-06
3.12344e-05
-1.07987e-06
2.81583e-05
8.67185e-07
2.37724e-05
5.01349e-06
2.18839e-05
1.11934e-05
2.21941e-05
1.48518e-05
2.26253e-05
1.52015e-05
2.23256e-05
1.40019e-05
2.14723e-05
1.26021e-05
2.03498e-05
1.14548e-05
1.91182e-05
1.06324e-05
1.7849e-05
1.01225e-05
1.6566e-05
9.90639e-06
1.52668e-05
9.97475e-06
1.39294e-05
1.03277e-05
1.25117e-05
1.09645e-05
1.09423e-05
1.18657e-05
9.10538e-06
1.29649e-05
1.41126e-05
1.61234e-06
-8.23361e-06
3.01562e-06
-8.46192e-06
4.15355e-06
-8.05259e-06
5.11253e-06
-7.67868e-06
5.96714e-06
-7.36363e-06
6.76943e-06
-7.11932e-06
7.55329e-06
-6.95354e-06
8.34019e-06
-6.86833e-06
9.14351e-06
-6.86158e-06
9.9718e-06
-6.92964e-06
1.08308e-05
-7.06952e-06
1.17251e-05
-7.28041e-06
1.26587e-05
-7.56477e-06
1.36356e-05
-7.92909e-06
1.46596e-05
-8.38453e-06
1.57334e-05
-8.94737e-06
1.68577e-05
-9.6387e-06
1.80283e-05
-1.04817e-05
1.92314e-05
-1.1493e-05
2.04396e-05
-1.26622e-05
2.16066e-05
-1.39101e-05
2.26839e-05
-1.50012e-05
2.36537e-05
-1.54479e-05
2.45618e-05
-1.45864e-05
2.54964e-05
-1.1544e-05
2.72855e-05
-6.26968e-06
2.75649e-05
-1.35926e-06
2.50121e-05
3.42002e-06
2.16311e-05
8.39457e-06
2.00414e-05
1.27831e-05
1.9902e-05
1.49912e-05
1.99497e-05
1.51537e-05
1.96387e-05
1.43129e-05
1.89877e-05
1.32531e-05
1.81342e-05
1.23083e-05
1.71799e-05
1.15867e-05
1.61829e-05
1.11195e-05
1.51709e-05
1.09184e-05
1.41488e-05
1.09969e-05
1.31009e-05
1.13757e-05
1.19852e-05
1.20802e-05
1.07194e-05
1.31315e-05
9.15676e-06
1.45275e-05
1.62123e-05
1.54705e-06
-9.78066e-06
2.89226e-06
-9.80713e-06
3.97994e-06
-9.14027e-06
4.88404e-06
-8.58277e-06
5.67525e-06
-8.15485e-06
6.40651e-06
-7.85057e-06
7.1139e-06
-7.66093e-06
7.82091e-06
-7.57534e-06
8.54232e-06
-7.58299e-06
9.28717e-06
-7.67449e-06
1.0061e-05
-7.84332e-06
1.08672e-05
-8.08661e-06
1.17081e-05
-8.40568e-06
1.25852e-05
-8.80618e-06
1.34989e-05
-9.29825e-06
1.44479e-05
-9.89636e-06
1.54273e-05
-1.06182e-05
1.64265e-05
-1.14808e-05
1.74251e-05
-1.24916e-05
1.8391e-05
-1.36281e-05
1.92806e-05
-1.47998e-05
2.00586e-05
-1.57792e-05
2.07364e-05
-1.61257e-05
2.14343e-05
-1.52842e-05
2.23719e-05
-1.24817e-05
2.42302e-05
-8.12793e-06
2.43242e-05
-1.45325e-06
2.22562e-05
5.48789e-06
1.98755e-05
1.07753e-05
1.86097e-05
1.40489e-05
1.82102e-05
1.53907e-05
1.79965e-05
1.53674e-05
1.76332e-05
1.46762e-05
1.70834e-05
1.38029e-05
1.64018e-05
1.29899e-05
1.56463e-05
1.23423e-05
1.48588e-05
1.19071e-05
1.40638e-05
1.17134e-05
1.32694e-05
1.17913e-05
1.24642e-05
1.21809e-05
1.16091e-05
1.29354e-05
1.06181e-05
1.41224e-05
9.32503e-06
1.58206e-05
1.81001e-05
1.46605e-06
-1.12467e-05
2.74567e-06
-1.10867e-05
3.7875e-06
-1.01821e-05
4.65127e-06
-9.44654e-06
5.39965e-06
-8.90323e-06
6.0828e-06
-8.53373e-06
6.73666e-06
-8.3148e-06
7.38546e-06
-8.22415e-06
8.04481e-06
-8.24233e-06
8.72427e-06
-8.35395e-06
9.42933e-06
-8.54839e-06
1.01629e-05
-8.82016e-06
1.0926e-05
-9.16881e-06
1.17184e-05
-9.59858e-06
1.25381e-05
-1.0118e-05
1.33808e-05
-1.0739e-05
1.42379e-05
-1.14753e-05
1.50952e-05
-1.2338e-05
1.59297e-05
-1.33262e-05
1.67096e-05
-1.4408e-05
1.73983e-05
-1.54884e-05
1.7975e-05
-1.63559e-05
1.84764e-05
-1.66271e-05
1.90533e-05
-1.58611e-05
1.99707e-05
-1.33991e-05
2.15974e-05
-9.7547e-06
2.15018e-05
-1.35756e-06
1.99182e-05
7.07144e-06
1.82799e-05
1.24135e-05
1.73008e-05
1.5028e-05
1.68207e-05
1.58707e-05
1.64851e-05
1.57031e-05
1.60983e-05
1.5063e-05
1.5615e-05
1.42861e-05
1.50528e-05
1.35521e-05
1.4444e-05
1.29511e-05
1.3818e-05
1.25331e-05
1.31961e-05
1.23353e-05
1.25887e-05
1.23988e-05
1.19906e-05
1.2779e-05
1.13716e-05
1.35544e-05
1.0656e-05
1.48381e-05
9.68025e-06
1.67963e-05
1.9668e-05
1.38056e-06
-1.26273e-05
2.593e-06
-1.22992e-05
3.59227e-06
-1.11814e-05
4.42492e-06
-1.02792e-05
5.14415e-06
-9.62246e-06
5.79536e-06
-9.18494e-06
6.41265e-06
-8.93209e-06
7.01994e-06
-8.83143e-06
7.63309e-06
-8.85548e-06
8.26197e-06
-8.98283e-06
8.91218e-06
-9.1986e-06
9.58629e-06
-9.49427e-06
1.02847e-05
-9.86718e-06
1.10058e-05
-1.03197e-05
1.17461e-05
-1.08583e-05
1.24992e-05
-1.14921e-05
1.32549e-05
-1.2231e-05
1.39973e-05
-1.30805e-05
1.47038e-05
-1.40327e-05
1.53458e-05
-1.50499e-05
1.58949e-05
-1.60376e-05
1.63431e-05
-1.68042e-05
1.67414e-05
-1.70254e-05
1.72387e-05
-1.63584e-05
1.80865e-05
-1.42469e-05
1.94089e-05
-1.10772e-05
1.91507e-05
-1.09934e-06
1.79665e-05
8.25562e-06
1.68437e-05
1.35363e-05
1.6104e-05
1.57677e-05
1.56431e-05
1.63316e-05
1.52787e-05
1.60675e-05
1.49003e-05
1.54413e-05
1.44729e-05
1.47136e-05
1.40009e-05
1.40241e-05
1.35038e-05
1.34483e-05
1.30037e-05
1.30332e-05
1.25201e-05
1.28188e-05
1.2067e-05
1.28519e-05
1.16489e-05
1.31972e-05
1.12532e-05
1.395e-05
1.08344e-05
1.52569e-05
1.02744e-05
1.73564e-05
2.06707e-05
1.29759e-06
-1.39249e-05
2.44525e-06
-1.34469e-05
3.4049e-06
-1.2141e-05
4.21214e-06
-1.10864e-05
4.91095e-06
-1.03213e-05
5.54108e-06
-9.81507e-06
6.13383e-06
-9.52485e-06
6.712e-06
-9.4096e-06
7.29117e-06
-9.43465e-06
7.88129e-06
-9.57295e-06
8.48801e-06
-9.80532e-06
9.11378e-06
-1.012e-05
9.75851e-06
-1.05119e-05
1.042e-05
-1.09812e-05
1.10937e-05
-1.1532e-05
1.17724e-05
-1.21708e-05
1.2445e-05
-1.29037e-05
1.3096e-05
-1.37314e-05
1.37045e-05
-1.46412e-05
1.42467e-05
-1.55921e-05
1.47022e-05
-1.64931e-05
1.50719e-05
-1.71739e-05
1.541e-05
-1.73634e-05
1.58459e-05
-1.67943e-05
1.65859e-05
-1.4987e-05
1.7599e-05
-1.20902e-05
1.72348e-05
-7.35181e-07
1.6359e-05
9.13144e-06
1.55907e-05
1.43047e-05
1.5044e-05
1.63144e-05
1.46454e-05
1.67302e-05
1.4301e-05
1.64118e-05
1.39519e-05
1.57904e-05
1.35766e-05
1.50889e-05
1.31773e-05
1.44234e-05
1.27677e-05
1.38578e-05
1.23665e-05
1.34344e-05
1.19932e-05
1.31921e-05
1.16669e-05
1.31782e-05
1.14047e-05
1.34594e-05
1.12205e-05
1.41342e-05
1.11205e-05
1.5357e-05
1.10846e-05
1.73922e-05
2.07854e-05
1.2421e-06
-1.5167e-05
2.34878e-06
-1.45535e-05
3.28767e-06
-1.30799e-05
4.08661e-06
-1.18854e-05
4.78207e-06
-1.10167e-05
5.40876e-06
-1.04418e-05
5.99515e-06
-1.01112e-05
6.56273e-06
-9.97718e-06
7.12666e-06
-9.99858e-06
7.69688e-06
-1.01432e-05
8.27909e-06
-1.03875e-05
8.87571e-06
-1.07167e-05
9.48645e-06
-1.11227e-05
1.01087e-05
-1.16034e-05
1.07375e-05
-1.21607e-05
1.1365e-05
-1.27984e-05
1.19805e-05
-1.35191e-05
1.2569e-05
-1.432e-05
1.31124e-05
-1.51846e-05
1.35912e-05
-1.60709e-05
1.39915e-05
-1.68934e-05
1.43201e-05
-1.75024e-05
1.46282e-05
-1.76715e-05
1.50179e-05
-1.71841e-05
1.56456e-05
-1.56147e-05
1.63837e-05
-1.28284e-05
1.59569e-05
-3.0836e-07
1.53042e-05
9.78404e-06
1.47754e-05
1.48335e-05
1.43739e-05
1.67159e-05
1.40435e-05
1.70607e-05
1.37356e-05
1.67196e-05
1.34211e-05
1.6105e-05
1.30897e-05
1.54202e-05
1.27453e-05
1.47678e-05
1.24001e-05
1.4203e-05
1.20716e-05
1.3763e-05
1.17806e-05
1.34831e-05
1.1552e-05
1.34068e-05
1.1417e-05
1.35944e-05
1.14201e-05
1.41311e-05
1.16363e-05
1.51408e-05
1.22105e-05
1.68179e-05
1.95202e-05
1.18116e-06
-1.63481e-05
2.24012e-06
-1.56125e-05
3.15059e-06
-1.39904e-05
3.93465e-06
-1.26694e-05
4.62224e-06
-1.17043e-05
5.24296e-06
-1.10625e-05
5.82201e-06
-1.06903e-05
6.37901e-06
-1.05342e-05
6.9282e-06
-1.05478e-05
7.47914e-06
-1.06941e-05
8.03743e-06
-1.09458e-05
8.60542e-06
-1.12846e-05
9.18276e-06
-1.17e-05
9.76673e-06
-1.21874e-05
1.03523e-05
-1.27463e-05
1.09319e-05
-1.3378e-05
1.14952e-05
-1.40825e-05
1.20292e-05
-1.4854e-05
1.25185e-05
-1.56738e-05
1.2948e-05
-1.65004e-05
1.33091e-05
-1.72545e-05
1.36108e-05
-1.78041e-05
1.38968e-05
-1.79575e-05
1.42423e-05
-1.75295e-05
1.47566e-05
-1.6129e-05
1.52447e-05
-1.33165e-05
1.47978e-05
1.38585e-07
1.43142e-05
1.02676e-05
1.39592e-05
1.51885e-05
1.36759e-05
1.69992e-05
1.34166e-05
1.73199e-05
1.31567e-05
1.69795e-05
1.28845e-05
1.63772e-05
1.25984e-05
1.57063e-05
1.23046e-05
1.50616e-05
1.20152e-05
1.44924e-05
1.17471e-05
1.40311e-05
1.15223e-05
1.37079e-05
1.13695e-05
1.35596e-05
1.13295e-05
1.36345e-05
1.14653e-05
1.39953e-05
1.18878e-05
1.47183e-05
1.28207e-05
1.58851e-05
1.75364e-05
1.12553e-06
-1.74737e-05
2.14012e-06
-1.66271e-05
3.02276e-06
-1.4873e-05
3.79149e-06
-1.34382e-05
4.47107e-06
-1.23839e-05
5.08664e-06
-1.1678e-05
5.66021e-06
-1.12639e-05
6.20939e-06
-1.10834e-05
6.74729e-06
-1.10857e-05
7.28286e-06
-1.12297e-05
7.82146e-06
-1.14844e-05
8.36537e-06
-1.18286e-05
8.91425e-06
-1.22489e-05
9.46543e-06
-1.27386e-05
1.00141e-05
-1.32949e-05
1.05532e-05
-1.39171e-05
1.10734e-05
-1.46027e-05
1.15636e-05
-1.53441e-05
1.20111e-05
-1.61213e-05
1.24046e-05
-1.68939e-05
1.27389e-05
-1.75889e-05
1.30236e-05
-1.80888e-05
1.3294e-05
-1.82279e-05
1.36025e-05
-1.78381e-05
1.40236e-05
-1.655e-05
1.42977e-05
-1.35907e-05
1.38501e-05
5.86247e-07
1.34896e-05
1.0628e-05
1.32582e-05
1.54199e-05
1.30664e-05
1.7191e-05
1.2871e-05
1.75153e-05
1.26593e-05
1.71912e-05
1.24295e-05
1.66069e-05
1.21855e-05
1.59504e-05
1.19354e-05
1.53117e-05
1.16916e-05
1.47363e-05
1.14704e-05
1.42522e-05
1.12939e-05
1.38844e-05
1.1192e-05
1.36616e-05
1.12076e-05
1.36189e-05
1.14071e-05
1.37957e-05
1.18993e-05
1.42261e-05
1.28739e-05
1.49105e-05
1.57432e-05
1.07455e-06
-1.85482e-05
2.04775e-06
-1.76003e-05
2.90312e-06
-1.57284e-05
3.65576e-06
-1.41908e-05
4.32638e-06
-1.30545e-05
4.93635e-06
-1.2288e-05
5.50481e-06
-1.18323e-05
6.04735e-06
-1.16259e-05
6.57583e-06
-1.16142e-05
7.0985e-06
-1.17523e-05
7.62036e-06
-1.20063e-05
8.14357e-06
-1.23518e-05
8.66782e-06
-1.27731e-05
9.19064e-06
-1.32614e-05
9.70758e-06
-1.38119e-05
1.02123e-05
-1.44218e-05
1.06967e-05
-1.50871e-05
1.11512e-05
-1.57986e-05
1.15659e-05
-1.6536e-05
1.19323e-05
-1.72604e-05
1.22477e-05
-1.79042e-05
1.25208e-05
-1.83619e-05
1.27795e-05
-1.84865e-05
1.30596e-05
-1.81182e-05
1.34112e-05
-1.69016e-05
1.34976e-05
-1.36772e-05
1.30611e-05
1.02275e-06
1.27928e-05
1.08963e-05
1.26508e-05
1.55619e-05
1.25294e-05
1.73124e-05
1.23884e-05
1.76563e-05
1.22212e-05
1.73585e-05
1.20311e-05
1.6797e-05
1.18251e-05
1.61563e-05
1.16127e-05
1.55241e-05
1.1406e-05
1.4943e-05
1.12207e-05
1.44375e-05
1.10775e-05
1.40276e-05
1.10048e-05
1.37343e-05
1.10429e-05
1.35807e-05
1.12509e-05
1.35877e-05
1.1717e-05
1.37601e-05
1.25694e-05
1.40581e-05
1.43373e-05
1.02758e-06
-1.95758e-05
1.96196e-06
-1.85346e-05
2.79055e-06
-1.6557e-05
3.52623e-06
-1.49265e-05
4.18655e-06
-1.37148e-05
4.78979e-06
-1.28913e-05
5.35254e-06
-1.23951e-05
5.88854e-06
-1.21619e-05
6.40839e-06
-1.2134e-05
6.91954e-06
-1.22635e-05
7.42659e-06
-1.25133e-05
7.93154e-06
-1.28567e-05
8.43414e-06
-1.32757e-05
8.93215e-06
-1.37594e-05
9.42159e-06
-1.43013e-05
9.89688e-06
-1.48971e-05
1.03511e-05
-1.55413e-05
1.07763e-05
-1.62238e-05
1.11646e-05
-1.69244e-05
1.151e-05
-1.76058e-05
1.1811e-05
-1.82052e-05
1.20755e-05
-1.86264e-05
1.23251e-05
-1.87362e-05
1.25845e-05
-1.83776e-05
1.28882e-05
-1.72053e-05
1.28057e-05
-1.35947e-05
1.23891e-05
1.43928e-06
1.21926e-05
1.10928e-05
1.21168e-05
1.56377e-05
1.20498e-05
1.73795e-05
1.19538e-05
1.77522e-05
1.18256e-05
1.74867e-05
1.16712e-05
1.69515e-05
1.14989e-05
1.63285e-05
1.13188e-05
1.57043e-05
1.11424e-05
1.51194e-05
1.09841e-05
1.45958e-05
1.08628e-05
1.41489e-05
1.08035e-05
1.37935e-05
1.08408e-05
1.35434e-05
1.10222e-05
1.34062e-05
1.14115e-05
1.33708e-05
1.2085e-05
1.33846e-05
1.33144e-05
9.83973e-07
-2.05598e-05
1.88169e-06
-1.94324e-05
2.68393e-06
-1.73592e-05
3.40182e-06
-1.56444e-05
4.05041e-06
-1.43634e-05
4.64547e-06
-1.34863e-05
5.20142e-06
-1.2951e-05
5.73031e-06
-1.26908e-05
6.24155e-06
-1.26452e-05
6.74182e-06
-1.27638e-05
7.23525e-06
-1.30068e-05
7.72369e-06
-1.33452e-05
8.20691e-06
-1.3759e-05
8.68297e-06
-1.42354e-05
9.14834e-06
-1.47667e-05
9.5982e-06
-1.53469e-05
1.00267e-05
-1.59698e-05
1.04274e-05
-1.66245e-05
1.07941e-05
-1.72911e-05
1.11224e-05
-1.7934e-05
1.14118e-05
-1.84946e-05
1.16692e-05
-1.88838e-05
1.19118e-05
-1.89788e-05
1.21565e-05
-1.86223e-05
1.24293e-05
-1.74781e-05
1.21968e-05
-1.33621e-05
1.18065e-05
1.82954e-06
1.16674e-05
1.12319e-05
1.16408e-05
1.56643e-05
1.1615e-05
1.74052e-05
1.15555e-05
1.78117e-05
1.14605e-05
1.75817e-05
1.1337e-05
1.70749e-05
1.11942e-05
1.64715e-05
1.10415e-05
1.58569e-05
1.08899e-05
1.5271e-05
1.07523e-05
1.47334e-05
1.06449e-05
1.42564e-05
1.05887e-05
1.38497e-05
1.06118e-05
1.35204e-05
1.07496e-05
1.32684e-05
1.10446e-05
1.30759e-05
1.15365e-05
1.28927e-05
1.26141e-05
9.43136e-07
-2.15029e-05
1.80594e-06
-2.02952e-05
2.58221e-06
-1.81355e-05
3.28158e-06
-1.63437e-05
3.91711e-06
-1.4999e-05
4.50251e-06
-1.40717e-05
5.05035e-06
-1.34988e-05
5.57124e-06
-1.32117e-05
6.07348e-06
-1.31475e-05
6.56301e-06
-1.32533e-05
7.04353e-06
-1.34873e-05
7.51667e-06
-1.38183e-05
7.98228e-06
-1.42246e-05
8.43863e-06
-1.46918e-05
8.88271e-06
-1.52107e-05
9.31038e-06
-1.57746e-05
9.71674e-06
-1.63762e-05
1.00966e-05
-1.70043e-05
1.04451e-05
-1.76396e-05
1.0759e-05
-1.82479e-05
1.10385e-05
-1.87741e-05
1.12897e-05
-1.9135e-05
1.15266e-05
-1.92157e-05
1.17608e-05
-1.88565e-05
1.20138e-05
-1.77312e-05
1.16535e-05
-1.30018e-05
1.12932e-05
2.18982e-06
1.12008e-05
1.13243e-05
1.12107e-05
1.56544e-05
1.12156e-05
1.74002e-05
1.11847e-05
1.78426e-05
1.11171e-05
1.76493e-05
1.10201e-05
1.7172e-05
1.09023e-05
1.65892e-05
1.0773e-05
1.59862e-05
1.0642e-05
1.54021e-05
1.05204e-05
1.4855e-05
1.0422e-05
1.43548e-05
1.03637e-05
1.39079e-05
1.03671e-05
1.3517e-05
1.04575e-05
1.3178e-05
1.06614e-05
1.2872e-05
1.09968e-05
1.25574e-05
1.21583e-05
9.04517e-07
-2.24074e-05
1.73384e-06
-2.11245e-05
2.48445e-06
-1.88861e-05
3.16472e-06
-1.7024e-05
3.78605e-06
-1.56203e-05
4.36042e-06
-1.46461e-05
4.89887e-06
-1.40373e-05
5.41075e-06
-1.37236e-05
5.9034e-06
-1.36401e-05
6.38206e-06
-1.3732e-05
6.85002e-06
-1.39553e-05
7.30874e-06
-1.4277e-05
7.75808e-06
-1.46739e-05
8.19656e-06
-1.51303e-05
8.62159e-06
-1.56358e-05
9.02966e-06
-1.61827e-05
9.41672e-06
-1.67632e-05
9.77851e-06
-1.73661e-05
1.01113e-05
-1.79723e-05
1.04127e-05
-1.85494e-05
1.06835e-05
-1.90449e-05
1.0929e-05
-1.93806e-05
1.1161e-05
-1.94477e-05
1.1387e-05
-1.90824e-05
1.16257e-05
-1.79699e-05
1.1152e-05
-1.25282e-05
1.08278e-05
2.51405e-06
1.07775e-05
1.13745e-05
1.08159e-05
1.5616e-05
1.08439e-05
1.73722e-05
1.08351e-05
1.78514e-05
1.07897e-05
1.76947e-05
1.07145e-05
1.72472e-05
1.06179e-05
1.66858e-05
1.05083e-05
1.60958e-05
1.03944e-05
1.55159e-05
1.02858e-05
1.49635e-05
1.01937e-05
1.44469e-05
1.01315e-05
1.397e-05
1.01153e-05
1.35333e-05
1.01625e-05
1.31308e-05
1.02889e-05
1.27456e-05
1.0501e-05
1.23453e-05
1.18759e-05
8.67633e-07
-2.3275e-05
1.66461e-06
-2.19215e-05
2.38986e-06
-1.96113e-05
3.05059e-06
-1.76847e-05
3.65676e-06
-1.62265e-05
4.21893e-06
-1.52083e-05
4.74684e-06
-1.45652e-05
5.24876e-06
-1.42255e-05
5.73116e-06
-1.41225e-05
6.1987e-06
-1.41995e-05
6.65428e-06
-1.44108e-05
7.09919e-06
-1.47219e-05
7.53332e-06
-1.5108e-05
7.9554e-06
-1.55524e-05
8.3632e-06
-1.60436e-05
8.75378e-06
-1.65733e-05
9.12376e-06
-1.71332e-05
9.46969e-06
-1.77121e-05
9.78864e-06
-1.82913e-05
1.0079e-05
-1.88397e-05
1.03417e-05
-1.93076e-05
1.05817e-05
-1.96206e-05
1.08092e-05
-1.96751e-05
1.10288e-05
-1.93021e-05
1.12587e-05
-1.81997e-05
1.06745e-05
-1.1944e-05
1.03941e-05
2.79449e-06
1.03853e-05
1.13833e-05
1.04479e-05
1.55534e-05
1.04938e-05
1.73264e-05
1.0502e-05
1.78431e-05
1.04741e-05
1.77227e-05
1.04167e-05
1.73046e-05
1.03376e-05
1.67649e-05
1.02444e-05
1.6189e-05
1.01449e-05
1.56155e-05
1.00471e-05
1.50613e-05
9.96007e-06
1.45339e-05
9.89424e-06
1.40358e-05
9.86131e-06
1.35662e-05
9.87301e-06
1.31191e-05
9.93853e-06
1.26801e-05
1.00587e-05
1.22251e-05
1.17165e-05
8.32068e-07
-2.41071e-05
1.59762e-06
-2.2687e-05
2.29778e-06
-2.03115e-05
2.93864e-06
-1.83256e-05
3.52893e-06
-1.68167e-05
4.07795e-06
-1.57573e-05
4.59434e-06
-1.50816e-05
5.08543e-06
-1.47166e-05
5.55698e-06
-1.45941e-05
6.01311e-06
-1.46556e-05
6.45639e-06
-1.48541e-05
6.88795e-06
-1.51535e-05
7.30771e-06
-1.55278e-05
7.71457e-06
-1.59592e-05
8.10662e-06
-1.64356e-05
8.4814e-06
-1.6948e-05
8.83608e-06
-1.74879e-05
9.16787e-06
-1.80439e-05
9.47446e-06
-1.85979e-05
9.75475e-06
-1.912e-05
1.00099e-05
-1.95627e-05
1.02444e-05
-1.98551e-05
1.04674e-05
-1.98982e-05
1.06821e-05
-1.95169e-05
1.09084e-05
-1.8426e-05
1.02294e-05
-1.1265e-05
9.99492e-06
3.02898e-06
1.0022e-05
1.13562e-05
1.01034e-05
1.5472e-05
1.0162e-05
1.72678e-05
1.01826e-05
1.78225e-05
1.01677e-05
1.77375e-05
1.01242e-05
1.73482e-05
1.00592e-05
1.683e-05
9.97954e-06
1.62686e-05
9.892e-06
1.5703e-05
9.80336e-06
1.515e-05
9.72089e-06
1.46164e-05
9.65259e-06
1.41042e-05
9.60688e-06
1.36119e-05
9.59167e-06
1.31343e-05
9.61117e-06
1.26606e-05
9.66784e-06
1.21685e-05
1.16406e-05
7.97485e-07
-2.49046e-05
1.53237e-06
-2.34219e-05
2.20768e-06
-2.09868e-05
2.82847e-06
-1.89464e-05
3.40231e-06
-1.73906e-05
3.93742e-06
-1.62924e-05
4.44149e-06
-1.55857e-05
4.92105e-06
-1.51961e-05
5.38122e-06
-1.50542e-05
5.82568e-06
-1.51001e-05
6.25669e-06
-1.52851e-05
6.67526e-06
-1.55721e-05
7.08132e-06
-1.59339e-05
7.47391e-06
-1.63518e-05
7.85143e-06
-1.68131e-05
8.21177e-06
-1.73084e-05
8.55259e-06
-1.78287e-05
8.8716e-06
-1.83629e-05
9.16698e-06
-1.88932e-05
9.43798e-06
-1.9391e-05
9.68587e-06
-1.98106e-05
9.91497e-06
-2.00842e-05
1.01337e-05
-2.01168e-05
1.03442e-05
-1.97275e-05
1.05689e-05
-1.86506e-05
9.84607e-06
-1.05422e-05
9.64606e-06
3.22902e-06
9.69349e-06
1.13088e-05
9.783e-06
1.53825e-05
9.84743e-06
1.72034e-05
9.87502e-06
1.7795e-05
9.86893e-06
1.77437e-05
9.83552e-06
1.73816e-05
9.78133e-06
1.68842e-05
9.71251e-06
1.63374e-05
9.63482e-06
1.57807e-05
9.55394e-06
1.52309e-05
9.47571e-06
1.46946e-05
9.4062e-06
1.41737e-05
9.35154e-06
1.36666e-05
9.31701e-06
1.31688e-05
9.3056e-06
1.2672e-05
9.31253e-06
1.21616e-05
9.33386e-06
1.16192e-05
1.10293e-05
7.63651e-07
-2.56682e-05
1.4685e-06
-2.41268e-05
2.1192e-06
-2.16375e-05
2.71976e-06
-1.9547e-05
3.27673e-06
-1.79476e-05
3.79737e-06
-1.6813e-05
4.28849e-06
-1.60768e-05
4.75594e-06
-1.56636e-05
5.2043e-06
-1.55026e-05
5.63686e-06
-1.55327e-05
6.05562e-06
-1.57039e-05
6.46148e-06
-1.59779e-05
6.85438e-06
-1.63268e-05
7.23351e-06
-1.67309e-05
7.59747e-06
-1.71771e-05
7.94449e-06
-1.76554e-05
8.2726e-06
-1.81568e-05
8.57992e-06
-1.86702e-05
8.86498e-06
-1.91783e-05
9.12735e-06
-1.96534e-05
9.36836e-06
-2.00516e-05
9.59217e-06
-2.0308e-05
9.80661e-06
-2.03313e-05
1.00129e-05
-1.99337e-05
1.02327e-05
-1.88704e-05
9.5347e-06
-9.84422e-06
9.35203e-06
3.4117e-06
9.40074e-06
1.12601e-05
9.48609e-06
1.52971e-05
9.54862e-06
1.71408e-05
9.57784e-06
1.77657e-05
9.57629e-06
1.77452e-05
9.54945e-06
1.74084e-05
9.50308e-06
1.69305e-05
9.4425e-06
1.6398e-05
9.37265e-06
1.58506e-05
9.29823e-06
1.53053e-05
9.22388e-06
1.4769e-05
9.15423e-06
1.42433e-05
9.0936e-06
1.37272e-05
9.04555e-06
1.32168e-05
9.01159e-06
1.27059e-05
8.98916e-06
1.21841e-05
8.97198e-06
1.16365e-05
1.10572e-05
7.30428e-07
-2.63987e-05
1.40577e-06
-2.48021e-05
2.03207e-06
-2.22638e-05
2.61232e-06
-2.01272e-05
3.15211e-06
-1.84874e-05
3.65781e-06
-1.73187e-05
4.1355e-06
-1.65545e-05
4.59039e-06
-1.61185e-05
5.0266e-06
-1.59388e-05
5.44708e-06
-1.59531e-05
5.85361e-06
-1.61104e-05
6.247e-06
-1.63713e-05
6.6272e-06
-1.6707e-05
6.9935e-06
-1.70973e-05
7.34471e-06
-1.75283e-05
7.67931e-06
-1.799e-05
7.99565e-06
-1.84732e-05
8.29214e-06
-1.89667e-05
8.56764e-06
-1.94538e-05
8.8219e-06
-1.99077e-05
9.05632e-06
-2.0286e-05
9.2749e-06
-2.05266e-05
9.48492e-06
-2.05413e-05
9.68588e-06
-2.01347e-05
9.89752e-06
-1.9082e-05
9.25526e-06
-9.20196e-06
9.09054e-06
3.57644e-06
9.13256e-06
1.12181e-05
9.20698e-06
1.52227e-05
9.26231e-06
1.70855e-05
9.28886e-06
1.77392e-05
9.28819e-06
1.77459e-05
9.26479e-06
1.74318e-05
9.22349e-06
1.69718e-05
9.16883e-06
1.64527e-05
9.10492e-06
1.59145e-05
9.03565e-06
1.53746e-05
8.9647e-06
1.48399e-05
8.89558e-06
1.43124e-05
8.83136e-06
1.37914e-05
8.77425e-06
1.32739e-05
8.72503e-06
1.27551e-05
8.68141e-06
1.22277e-05
8.63748e-06
1.16805e-05
1.11062e-05
6.97765e-07
-2.70964e-05
1.34406e-06
-2.54484e-05
1.94614e-06
-2.28659e-05
2.50602e-06
-2.06871e-05
3.02839e-06
-1.90097e-05
3.51881e-06
-1.78092e-05
3.98268e-06
-1.70183e-05
4.42466e-06
-1.65604e-05
4.84846e-06
-1.63626e-05
5.25672e-06
-1.63614e-05
5.65105e-06
-1.65048e-05
6.03217e-06
-1.67524e-05
6.40004e-06
-1.70748e-05
6.75405e-06
-1.74513e-05
7.09316e-06
-1.78674e-05
7.41608e-06
-1.83129e-05
7.72139e-06
-1.87785e-05
8.00778e-06
-1.92531e-05
8.27431e-06
-1.97203e-05
8.5209e-06
-2.01542e-05
8.74896e-06
-2.05141e-05
8.96229e-06
-2.07399e-05
9.16763e-06
-2.07466e-05
9.36322e-06
-2.03303e-05
9.56894e-06
-1.92877e-05
8.97647e-06
-8.60948e-06
8.83811e-06
3.71483e-06
8.87559e-06
1.11806e-05
8.93839e-06
1.51599e-05
8.98432e-06
1.70396e-05
9.00543e-06
1.77181e-05
9.00285e-06
1.77485e-05
8.98023e-06
1.74544e-05
8.94161e-06
1.70105e-05
8.89075e-06
1.65036e-05
8.83105e-06
1.59742e-05
8.76567e-06
1.544e-05
8.69749e-06
1.4908e-05
8.6292e-06
1.43807e-05
8.56293e-06
1.38577e-05
8.50008e-06
1.33368e-05
8.4409e-06
1.28143e-05
8.38363e-06
1.22849e-05
8.32377e-06
1.17404e-05
1.11738e-05
6.65654e-07
-2.77621e-05
1.28332e-06
-2.6066e-05
1.86133e-06
-2.34439e-05
2.40079e-06
-2.12266e-05
2.90555e-06
-1.95145e-05
3.38042e-06
-1.8284e-05
3.83017e-06
-1.74681e-05
4.25898e-06
-1.69893e-05
4.67017e-06
-1.67738e-05
5.06611e-06
-1.67573e-05
5.44827e-06
-1.68869e-05
5.81728e-06
-1.71214e-05
6.17313e-06
-1.74307e-05
6.51528e-06
-1.77934e-05
6.84283e-06
-1.8195e-05
7.15466e-06
-1.86247e-05
7.44956e-06
-1.90734e-05
7.72642e-06
-1.95299e-05
7.98448e-06
-1.99784e-05
8.22376e-06
-2.03935e-05
8.44566e-06
-2.0736e-05
8.65378e-06
-2.0948e-05
8.8544e-06
-2.09473e-05
9.04498e-06
-2.05209e-05
9.24631e-06
-1.94891e-05
8.71058e-06
-8.07373e-06
8.59579e-06
3.82963e-06
8.62654e-06
1.11499e-05
8.67651e-06
1.51099e-05
8.71145e-06
1.70047e-05
8.72508e-06
1.77044e-05
8.71838e-06
1.77552e-05
8.69439e-06
1.74785e-05
8.65639e-06
1.70485e-05
8.60749e-06
1.65525e-05
8.55044e-06
1.60312e-05
8.48775e-06
1.55026e-05
8.4217e-06
1.49741e-05
8.35425e-06
1.44482e-05
8.2869e-06
1.3925e-05
8.22047e-06
1.34032e-05
8.15489e-06
1.28799e-05
8.08878e-06
1.2351e-05
8.01859e-06
1.18106e-05
1.12522e-05
6.34092e-07
-2.83962e-05
1.2235e-06
-2.66554e-05
1.77758e-06
-2.3998e-05
2.29658e-06
-2.17456e-05
2.78358e-06
-2.00015e-05
3.24269e-06
-1.87431e-05
3.6781e-06
-1.79035e-05
4.09352e-06
-1.74047e-05
4.49193e-06
-1.71722e-05
4.87549e-06
-1.71409e-05
5.24551e-06
-1.72569e-05
5.60256e-06
-1.74785e-05
5.94665e-06
-1.77748e-05
6.27729e-06
-1.81241e-05
6.59372e-06
-1.85114e-05
6.89494e-06
-1.8926e-05
7.17993e-06
-1.93584e-05
7.44773e-06
-1.97977e-05
7.69772e-06
-2.02284e-05
7.93e-06
-2.06258e-05
8.14593e-06
-2.09519e-05
8.34896e-06
-2.11511e-05
8.54498e-06
-2.11433e-05
8.73081e-06
-2.07067e-05
8.92581e-06
-1.96841e-05
8.48443e-06
-7.63231e-06
8.37414e-06
3.9399e-06
8.38734e-06
1.11367e-05
8.41979e-06
1.50775e-05
8.44129e-06
1.69832e-05
8.44555e-06
1.77002e-05
8.43293e-06
1.77678e-05
8.40577e-06
1.75056e-05
8.3667e-06
1.70876e-05
8.31818e-06
1.6601e-05
8.26242e-06
1.6087e-05
8.20138e-06
1.55637e-05
8.1368e-06
1.50387e-05
8.0701e-06
1.45149e-05
8.00228e-06
1.39928e-05
7.93377e-06
1.34717e-05
7.86431e-06
1.29493e-05
7.79269e-06
1.24227e-05
7.71632e-06
1.1887e-05
1.13367e-05
6.03038e-07
-2.89992e-05
1.16454e-06
-2.72169e-05
1.69481e-06
-2.45283e-05
2.19334e-06
-2.22441e-05
2.66247e-06
-2.04706e-05
3.10565e-06
-1.91863e-05
3.52653e-06
-1.83244e-05
3.9284e-06
-1.78065e-05
4.31393e-06
-1.75578e-05
4.68505e-06
-1.7512e-05
5.04295e-06
-1.76148e-05
5.38816e-06
-1.78237e-05
5.72069e-06
-1.81073e-05
6.04012e-06
-1.84435e-05
6.34577e-06
-1.88171e-05
6.63679e-06
-1.9217e-05
6.91226e-06
-1.96338e-05
7.17139e-06
-2.00568e-05
7.41364e-06
-2.04706e-05
7.63916e-06
-2.08513e-05
7.8493e-06
-2.1162e-05
8.04734e-06
-2.13491e-05
8.23885e-06
-2.13348e-05
8.4197e-06
-2.08875e-05
8.6047e-06
-1.98691e-05
8.27956e-06
-7.30717e-06
8.16234e-06
4.0571e-06
8.15199e-06
1.1147e-05
8.16414e-06
1.50654e-05
8.17069e-06
1.69766e-05
8.16433e-06
1.77065e-05
8.1445e-06
1.77877e-05
8.11281e-06
1.75374e-05
8.07129e-06
1.71291e-05
8.02187e-06
1.66505e-05
7.96628e-06
1.61426e-05
7.906e-06
1.5624e-05
7.84232e-06
1.51024e-05
7.77621e-06
1.4581e-05
7.70833e-06
1.40607e-05
7.63882e-06
1.35412e-05
7.56729e-06
1.30208e-05
7.49267e-06
1.24973e-05
7.41297e-06
1.19667e-05
1.14241e-05
5.72411e-07
-2.95716e-05
1.10633e-06
-2.77509e-05
1.61294e-06
-2.50349e-05
2.09101e-06
-2.27222e-05
2.54219e-06
-2.09218e-05
2.96933e-06
-1.96135e-05
3.37554e-06
-1.87306e-05
3.76373e-06
-1.81947e-05
4.13627e-06
-1.79303e-05
4.4949e-06
-1.78706e-05
4.84071e-06
-1.79606e-05
5.17417e-06
-1.81572e-05
5.4953e-06
-1.84284e-05
5.80375e-06
-1.87519e-05