/*--------------------------------*- C++ -*----------------------------------*\
| =========                 |                                                 |
| \\      /  F ield         | OpenFOAM: The Open Source CFD Toolbox           |
|  \\    /   O peration     | Version:  5.0                                   |
|   \\  /    A nd           | Web:      www.OpenFOAM.org                      |
|    \\/     M anipulation  |                                                 |
\*---------------------------------------------------------------------------*/
FoamFile
{
    version     2.0;
    format      ascii;
    class       volVectorField;
    location    "0.05";
    object      U;
}
// * * * * * * * * * * * * * * * * * * * * * * * * * * * * * * * * * * * * * //

dimensions      [0 1 -1 0 0 0 0];

internalField   nonuniform List<vector> 
1935
(
(0.00503017 -0.00434437 0)
(0.0189794 -0.00842244 0)
(0.0401965 -0.0109444 0)
(0.0640504 -0.0118791 0)
(0.0886357 -0.0118716 0)
(0.112862 -0.0114712 0)
(0.136295 -0.0109951 0)
(0.158933 -0.0105994 0)
(0.180984 -0.0103469 0)
(0.202744 -0.0102534 0)
(0.224525 -0.0103155 0)
(0.246639 -0.0105267 0)
(0.269393 -0.0108863 0)
(0.293106 -0.0114032 0)
(0.318134 -0.0121005 0)
(0.344901 -0.0130192 0)
(0.373937 -0.014227 0)
(0.40597 -0.0158246 0)
(0.441814 -0.0180008 0)
(0.483342 -0.0207989 0)
(0.529815 -0.0251127 0)
(0.587456 -0.0310239 0)
(0.651465 -0.0341025 0)
(0.706417 -0.0299444 0)
(0.744831 -0.0228885 0)
(0.768111 -0.0337904 0)
(0.791682 -0.0727346 0)
(0.832674 -0.131566 0)
(0.948615 -0.213301 0)
(0.96961 -0.0626889 0)
(0.823319 0.015621 0)
(0.667422 0.0515211 0)
(0.570828 0.0328892 0)
(0.50978 0.0225622 0)
(0.460642 0.0189939 0)
(0.418879 0.0172594 0)
(0.38045 0.016374 0)
(0.343642 0.0160867 0)
(0.306998 0.0163754 0)
(0.269241 0.0172006 0)
(0.229273 0.0184761 0)
(0.186325 0.0200079 0)
(0.140278 0.0213637 0)
(0.0923741 0.0215376 0)
(0.00915012 -0.0135612 0)
(0.0266086 -0.0217476 0)
(0.0471931 -0.0262055 0)
(0.0687426 -0.0279175 0)
(0.0902651 -0.0279439 0)
(0.111364 -0.0272038 0)
(0.131918 -0.0262848 0)
(0.151974 -0.0255086 0)
(0.171692 -0.0250239 0)
(0.191284 -0.0248822 0)
(0.210984 -0.0250905 0)
(0.231037 -0.0256448 0)
(0.251692 -0.02655 0)
(0.273213 -0.0278327 0)
(0.295896 -0.0295505 0)
(0.320091 -0.031803 0)
(0.346234 -0.0347483 0)
(0.374895 -0.0386171 0)
(0.406762 -0.0437621 0)
(0.442883 -0.0504297 0)
(0.483539 -0.0593922 0)
(0.530213 -0.0691714 0)
(0.581106 -0.0735446 0)
(0.625442 -0.0664334 0)
(0.665823 -0.0457432 0)
(0.712513 -0.021964 0)
(0.742623 -0.014416 0)
(0.716216 -0.0250396 0)
(0.784282 0.0265613 0)
(0.829387 0.0939863 0)
(0.767926 0.156378 0)
(0.658286 0.133821 0)
(0.576501 0.0941459 0)
(0.50867 0.0677391 0)
(0.456347 0.0541305 0)
(0.413527 0.0471637 0)
(0.375802 0.0435752 0)
(0.340593 0.0422027 0)
(0.306186 0.0425543 0)
(0.271224 0.044361 0)
(0.23454 0.0473512 0)
(0.195199 0.0510077 0)
(0.152674 0.0542203 0)
(0.107276 0.0547534 0)
(0.0122392 -0.0281159 0)
(0.0317942 -0.0367815 0)
(0.0514422 -0.0408491 0)
(0.0704804 -0.0422818 0)
(0.0888108 -0.0420263 0)
(0.106607 -0.0410026 0)
(0.124029 -0.0398383 0)
(0.141216 -0.0388956 0)
(0.158312 -0.0383542 0)
(0.175473 -0.0382854 0)
(0.192864 -0.0387082 0)
(0.21066 -0.0396276 0)
(0.229048 -0.0410592 0)
(0.248232 -0.0430468 0)
(0.268443 -0.0456767 0)
(0.289953 -0.0490923 0)
(0.313095 -0.0535124 0)
(0.338283 -0.0592439 0)
(0.365985 -0.0666821 0)
(0.396759 -0.0761424 0)
(0.430674 -0.087819 0)
(0.467927 -0.0997578 0)
(0.507544 -0.106015 0)
(0.539234 -0.0991997 0)
(0.573237 -0.0726069 0)
(0.615855 -0.0313418 0)
(0.622801 -0.00915286 0)
(0.554945 -0.0927629 0)
(0.529119 -0.0588607 0)
(0.517554 0.0896513 0)
(0.498566 0.16978 0)
(0.482921 0.173457 0)
(0.460921 0.134197 0)
(0.428728 0.10266 0)
(0.395089 0.0841261 0)
(0.363368 0.0736652 0)
(0.333476 0.0680694 0)
(0.30466 0.0657885 0)
(0.276139 0.0661085 0)
(0.247096 0.0686421 0)
(0.216748 0.0730173 0)
(0.184346 0.0785495 0)
(0.14917 0.0838078 0)
(0.110638 0.0860783 0)
(0.0137109 -0.0449649 0)
(0.0343897 -0.0526466 0)
(0.0532481 -0.0549904 0)
(0.0703375 -0.0553659 0)
(0.0861569 -0.0544897 0)
(0.101264 -0.0531104 0)
(0.116041 -0.0517661 0)
(0.130727 -0.0507742 0)
(0.145488 -0.0502945 0)
(0.160458 -0.0503923 0)
(0.175759 -0.051088 0)
(0.191514 -0.0523925 0)
(0.207856 -0.0543316 0)
(0.224932 -0.0569649 0)
(0.242906 -0.0604004 0)
(0.261974 -0.0648112 0)
(0.28236 -0.0704499 0)
(0.304316 -0.0776533 0)
(0.328078 -0.0868057 0)
(0.353823 -0.0981566 0)
(0.381328 -0.111495 0)
(0.41034 -0.124544 0)
(0.439595 -0.131431 0)
(0.459874 -0.123975 0)
(0.486388 -0.0932259 0)
(0.516407 -0.0359437 0)
(0.517487 -0.00538865 0)
(0.491185 -0.0503915 0)
(0.421887 -0.0311029 0)
(0.370092 0.0841184 0)
(0.366307 0.167821 0)
(0.378069 0.172346 0)
(0.378146 0.145836 0)
(0.363068 0.121084 0)
(0.341637 0.104226 0)
(0.318654 0.0936858 0)
(0.295498 0.0876623 0)
(0.272477 0.085154 0)
(0.249406 0.0856221 0)
(0.225887 0.0887671 0)
(0.201381 0.0942777 0)
(0.175164 0.101519 0)
(0.146194 0.109124 0)
(0.113084 0.114524 0)
(0.0140328 -0.0626365 0)
(0.0349842 -0.0684562 0)
(0.0531516 -0.0682957 0)
(0.0688453 -0.0671048 0)
(0.0828614 -0.0653562 0)
(0.0959709 -0.0635462 0)
(0.108704 -0.0620481 0)
(0.121385 -0.0610801 0)
(0.134219 -0.0607452 0)
(0.147339 -0.0610798 0)
(0.160848 -0.0620929 0)
(0.174837 -0.0637943 0)
(0.189394 -0.0662161 0)
(0.204616 -0.0694278 0)
(0.22061 -0.0735507 0)
(0.237495 -0.0787705 0)
(0.25539 -0.0853468 0)
(0.2744 -0.0936035 0)
(0.294559 -0.103864 0)
(0.315766 -0.116242 0)
(0.33759 -0.130202 0)
(0.359582 -0.143263 0)
(0.380076 -0.149694 0)
(0.392341 -0.141115 0)
(0.411775 -0.108316 0)
(0.428636 -0.0408099 0)
(0.455993 -0.0125653 0)
(0.440243 -0.00977929 0)
(0.368955 0.0293647 0)
(0.317051 0.111262 0)
(0.311417 0.160966 0)
(0.321347 0.165745 0)
(0.322678 0.149693 0)
(0.313524 0.132015 0)
(0.298793 0.118295 0)
(0.281708 0.108809 0)
(0.263765 0.103073 0)
(0.245544 0.100653 0)
(0.227158 0.101311 0)
(0.20844 0.104936 0)
(0.188963 0.111394 0)
(0.167944 0.120285 0)
(0.144014 0.130608 0)
(0.115105 0.140355 0)
(0.0137175 -0.0802584 0)
(0.0343055 -0.083876 0)
(0.0517965 -0.0808805 0)
(0.0664892 -0.0778259 0)
(0.0792577 -0.0750128 0)
(0.0909548 -0.0726795 0)
(0.102189 -0.0710046 0)
(0.113344 -0.0700773 0)
(0.124659 -0.0699205 0)
(0.136281 -0.0705236 0)
(0.148306 -0.0718711 0)
(0.160805 -0.0739635 0)
(0.173837 -0.0768316 0)
(0.187459 -0.0805478 0)
(0.201727 -0.0852359 0)
(0.216691 -0.0910788 0)
(0.232385 -0.0983199 0)
(0.248791 -0.107239 0)
(0.265793 -0.118065 0)
(0.283112 -0.130759 0)
(0.30021 -0.144541 0)
(0.316591 -0.156849 0)
(0.330526 -0.162185 0)
(0.337766 -0.152903 0)
(0.352555 -0.119814 0)
(0.365751 -0.0585349 0)
(0.412788 -0.0144212 0)
(0.39102 0.0237192 0)
(0.329701 0.0753664 0)
(0.290626 0.130169 0)
(0.283016 0.160301 0)
(0.28513 0.163131 0)
(0.283643 0.152692 0)
(0.276358 0.139827 0)
(0.265228 0.12869 0)
(0.252107 0.120406 0)
(0.238073 0.115147 0)
(0.223697 0.112906 0)
(0.209192 0.113718 0)
(0.1945 0.117695 0)
(0.179251 0.124962 0)
(0.1626 0.135506 0)
(0.142922 0.148926 0)
(0.117589 0.164063 0)
(0.0130948 -0.0973277 0)
(0.0329188 -0.0987221 0)
(0.0497126 -0.092876 0)
(0.0636583 -0.0878399 0)
(0.0755738 -0.0838392 0)
(0.086303 -0.0808933 0)
(0.0964771 -0.0789895 0)
(0.106512 -0.0780794 0)
(0.116669 -0.0780932 0)
(0.127111 -0.0789617 0)
(0.137935 -0.0806349 0)
(0.149202 -0.0830948 0)
(0.160951 -0.0863633 0)
(0.173208 -0.0905075 0)
(0.185989 -0.0956443 0)
(0.199292 -0.101941 0)
(0.21308 -0.109609 0)
(0.22725 -0.118865 0)
(0.241589 -0.129838 0)
(0.255726 -0.142341 0)
(0.269108 -0.155439 0)
(0.281299 -0.166608 0)
(0.29081 -0.170794 0)
(0.295032 -0.161448 0)
(0.307293 -0.129951 0)
(0.320638 -0.0785484 0)
(0.370499 -0.0161648 0)
(0.344047 0.0494479 0)
(0.296885 0.105439 0)
(0.270494 0.145497 0)
(0.261444 0.163595 0)
(0.258614 0.164289 0)
(0.254846 0.156352 0)
(0.248178 0.146168 0)
(0.239186 0.136818 0)
(0.228779 0.129491 0)
(0.217672 0.124652 0)
(0.206326 0.122546 0)
(0.194976 0.123419 0)
(0.183624 0.127605 0)
(0.171959 0.135531 0)
(0.159147 0.147668 0)
(0.143446 0.164408 0)
(0.121801 0.185757 0)
(0.0123484 -0.113589 0)
(0.0312025 -0.112885 0)
(0.0472808 -0.104354 0)
(0.0606368 -0.0973513 0)
(0.0719651 -0.0921076 0)
(0.0820458 -0.0884802 0)
(0.0914925 -0.0862878 0)
(0.100727 -0.0853492 0)
(0.110023 -0.0854998 0)
(0.119555 -0.0866061 0)
(0.129424 -0.0885762 0)
(0.139685 -0.0913662 0)
(0.150365 -0.094982 0)
(0.16147 -0.0994783 0)
(0.172985 -0.104957 0)
(0.184869 -0.111562 0)
(0.197036 -0.119462 0)
(0.209332 -0.128809 0)
(0.221493 -0.139632 0)
(0.233123 -0.151632 0)
(0.24372 -0.16379 0)
(0.252969 -0.173724 0)
(0.259674 -0.176974 0)
(0.262222 -0.168241 0)
(0.272893 -0.139964 0)
(0.286439 -0.0973246 0)
(0.331373 -0.0158837 0)
(0.302677 0.0687376 0)
(0.26934 0.126453 0)
(0.251487 0.157418 0)
(0.242711 0.168611 0)
(0.237686 0.1675 0)
(0.232786 0.160448 0)
(0.226554 0.15169 0)
(0.218988 0.143437 0)
(0.210531 0.136755 0)
(0.201638 0.132185 0)
(0.192675 0.130102 0)
(0.183876 0.130901 0)
(0.175309 0.13511 0)
(0.166771 0.143453 0)
(0.157575 0.156921 0)
(0.146102 0.176842 0)
(0.129172 0.204808 0)
(0.0115775 -0.128942 0)
(0.0293933 -0.126321 0)
(0.0447584 -0.115353 0)
(0.0576218 -0.106483 0)
(0.0685353 -0.0999968 0)
(0.0781869 -0.0956452 0)
(0.0871467 -0.0931092 0)
(0.0958231 -0.0920888 0)
(0.104493 -0.0923288 0)
(0.113333 -0.0936299 0)
(0.122449 -0.0958546 0)
(0.131897 -0.0989281 0)
(0.141694 -0.102834 0)
(0.151833 -0.10761 0)
(0.162278 -0.113336 0)
(0.172963 -0.120128 0)
(0.183774 -0.128111 0)
(0.194529 -0.137373 0)
(0.204952 -0.147861 0)
(0.214667 -0.159194 0)
(0.223256 -0.170338 0)
(0.230541 -0.179113 0)
(0.235535 -0.181713 0)
(0.23723 -0.173998 0)
(0.246648 -0.149536 0)
(0.259982 -0.113255 0)
(0.296769 -0.0137468 0)
(0.268711 0.0834774 0)
(0.245812 0.140909 0)
(0.23378 0.166602 0)
(0.226111 0.173834 0)
(0.220604 0.171402 0)
(0.215475 0.164619 0)
(0.209734 0.156576 0)
(0.20326 0.148957 0)
(0.196274 0.14265 0)
(0.189087 0.138185 0)
(0.182002 0.135989 0)
(0.17527 0.13655 0)
(0.169046 0.140533 0)
(0.163312 0.148903 0)
(0.157709 0.163108 0)
(0.151127 0.185408 0)
(0.140949 0.219466 0)
(0.0108425 -0.143383 0)
(0.0276392 -0.139041 0)
(0.042315 -0.12591 0)
(0.0547472 -0.115315 0)
(0.0653527 -0.107626 0)
(0.0747188 -0.102533 0)
(0.0833579 -0.0996091 0)
(0.0916529 -0.0984547 0)
(0.0998721 -0.0987314 0)
(0.108193 -0.100177 0)
(0.116723 -0.102607 0)
(0.125516 -0.105912 0)
(0.134588 -0.110051 0)
(0.143921 -0.115037 0)
(0.153469 -0.12093 0)
(0.16315 -0.127813 0)
(0.172837 -0.135769 0)
(0.182344 -0.144832 0)
(0.191405 -0.154884 0)
(0.199689 -0.165495 0)
(0.206876 -0.17566 0)
(0.212902 -0.183428 0)
(0.216874 -0.185614 0)
(0.218166 -0.179006 0)
(0.226457 -0.158127 0)
(0.239084 -0.125835 0)
(0.266969 -0.0101249 0)
(0.241435 0.0944063 0)
(0.225997 0.150848 0)
(0.217914 0.17345 0)
(0.211651 0.178505 0)
(0.206515 0.175282 0)
(0.201663 0.168558 0)
(0.196504 0.160885 0)
(0.19094 0.153611 0)
(0.185112 0.147482 0)
(0.179259 0.142981 0)
(0.173659 0.140541 0)
(0.168592 0.140682 0)
(0.164329 0.144134 0)
(0.161106 0.151978 0)
(0.15907 0.165909 0)
(0.158106 0.188789 0)
(0.157429 0.226175 0)
(0.0101728 -0.157071 0)
(0.0260106 -0.151197 0)
(0.0400274 -0.136157 0)
(0.0520613 -0.123986 0)
(0.0624154 -0.115152 0)
(0.0715795 -0.109314 0)
(0.0800032 -0.105968 0)
(0.0880354 -0.104632 0)
(0.0959293 -0.104893 0)
(0.103857 -0.106431 0)
(0.111925 -0.109016 0)
(0.120188 -0.112501 0)
(0.128658 -0.116819 0)
(0.137315 -0.121957 0)
(0.146107 -0.127949 0)
(0.154945 -0.134849 0)
(0.163701 -0.142703 0)
(0.172196 -0.151496 0)
(0.180191 -0.161068 0)
(0.187412 -0.170967 0)
(0.193628 -0.180238 0)
(0.198859 -0.187161 0)
(0.202206 -0.189085 0)
(0.203326 -0.18346 0)
(0.210586 -0.165499 0)
(0.222176 -0.135218 0)
(0.241622 -0.00573353 0)
(0.219593 0.102494 0)
(0.209353 0.157665 0)
(0.204024 0.178498 0)
(0.19915 0.182467 0)
(0.194725 0.17885 0)
(0.190406 0.172177 0)
(0.185878 0.164715 0)
(0.181109 0.157625 0)
(0.176224 0.151544 0)
(0.171435 0.1469 0)
(0.167009 0.1441 0)
(0.163267 0.143644 0)
(0.160596 0.146233 0)
(0.159506 0.152892 0)
(0.160747 0.165189 0)
(0.165662 0.18576 0)
(0.177827 0.219887 0)
(0.00956812 -0.170134 0)
(0.0245194 -0.16287 0)
(0.0379043 -0.146131 0)
(0.0495478 -0.132526 0)
(0.0596657 -0.122613 0)
(0.0686613 -0.11604 0)
(0.0769224 -0.112249 0)
(0.0847601 -0.11069 0)
(0.0924072 -0.110888 0)
(0.100026 -0.112468 0)
(0.107721 -0.115156 0)
(0.115542 -0.118771 0)
(0.123504 -0.123214 0)
(0.131584 -0.128449 0)
(0.139728 -0.134482 0)
(0.147851 -0.14134 0)
(0.155828 -0.149036 0)
(0.163496 -0.157521 0)
(0.170651 -0.166603 0)
(0.177073 -0.175827 0)
(0.182609 -0.184307 0)
(0.187329 -0.190529 0)
(0.19027 -0.192268 0)
(0.191326 -0.187398 0)
(0.197664 -0.171578 0)
(0.20811 -0.141669 0)
(0.220314 -0.000923826 0)
(0.201903 0.108503 0)
(0.195229 0.162294 0)
(0.191844 0.182124 0)
(0.188207 0.185633 0)
(0.184592 0.181919 0)
(0.180906 0.175345 0)
(0.177015 0.168038 0)
(0.172955 0.161049 0)
(0.168855 0.154938 0)
(0.164917 0.150082 0)
(0.161406 0.146836 0)
(0.158667 0.145639 0)
(0.157167 0.147085 0)
(0.157587 0.151985 0)
(0.161036 0.161441 0)
(0.169556 0.176965 0)
(0.187603 0.200681 0)
(0.0090211 -0.182571 0)
(0.0231605 -0.174048 0)
(0.0359445 -0.155802 0)
(0.0471999 -0.140904 0)
(0.0570786 -0.129989 0)
(0.0659122 -0.122709 0)
(0.0740316 -0.118465 0)
(0.0817102 -0.116653 0)
(0.0891579 -0.116746 0)
(0.0965247 -0.118321 0)
(0.103907 -0.121064 0)
(0.111356 -0.124759 0)
(0.118883 -0.129278 0)
(0.126467 -0.134559 0)
(0.134055 -0.140585 0)
(0.141568 -0.147357 0)
(0.148892 -0.154861 0)
(0.155884 -0.163022 0)
(0.162372 -0.17163 0)
(0.168188 -0.180241 0)
(0.173239 -0.188034 0)
(0.177618 -0.193675 0)
(0.180274 -0.195256 0)
(0.181322 -0.190899 0)
(0.18688 -0.176542 0)
(0.196294 -0.14569 0)
(0.202606 0.00393147 0)
(0.187422 0.11297 0)
(0.183187 0.165365 0)
(0.181184 0.184631 0)
(0.178582 0.188065 0)
(0.175744 0.184456 0)
(0.172694 0.178047 0)
(0.169411 0.170886 0)
(0.165976 0.163964 0)
(0.16253 0.157789 0)
(0.159267 0.152688 0)
(0.156444 0.148958 0)
(0.154407 0.146953 0)
(0.153644 0.147122 0)
(0.154868 0.150012 0)
(0.159207 0.156191 0)
(0.168552 0.166009 0)
(0.186157 0.178825 0)
(0.00852312 -0.194434 0)
(0.0219172 -0.184766 0)
(0.0341305 -0.165178 0)
(0.0449987 -0.149115 0)
(0.0546275 -0.137278 0)
(0.0632906 -0.129324 0)
(0.0712696 -0.124628 0)
(0.0788022 -0.122542 0)
(0.0860748 -0.122497 0)
(0.0932232 -0.124027 0)
(0.100336 -0.12678 0)
(0.107461 -0.13051 0)
(0.114609 -0.13506 0)
(0.121761 -0.140345 0)
(0.128869 -0.146323 0)
(0.135859 -0.152975 0)
(0.142631 -0.160266 0)
(0.149065 -0.168101 0)
(0.155018 -0.176264 0)
(0.160363 -0.184324 0)
(0.165054 -0.191527 0)
(0.169189 -0.196676 0)
(0.171628 -0.198102 0)
(0.1727 -0.194052 0)
(0.17763 -0.18064 0)
(0.18623 -0.147582 0)
(0.187747 0.00870853 0)
(0.175319 0.116305 0)
(0.172795 0.167315 0)
(0.171787 0.18628 0)
(0.17002 0.189859 0)
(0.167869 0.186491 0)
(0.16541 0.180304 0)
(0.16268 0.173302 0)
(0.159793 0.166444 0)
(0.156891 0.160201 0)
(0.154159 0.154857 0)
(0.151839 0.15065 0)
(0.150255 0.147849 0)
(0.149863 0.146761 0)
(0.151317 0.147696 0)
(0.155583 0.150827 0)
(0.164098 0.15585 0)
(0.178914 0.161198 0)
(0.00806721 -0.205769 0)
(0.0207734 -0.195052 0)
(0.0324439 -0.174262 0)
(0.0429259 -0.157147 0)
(0.0522914 -0.144463 0)
(0.0607682 -0.135874 0)
(0.0685963 -0.130734 0)
(0.0759815 -0.128363 0)
(0.0830877 -0.128153 0)
(0.0900359 -0.129604 0)
(0.0969065 -0.132329 0)
(0.103743 -0.136053 0)
(0.110555 -0.140595 0)
(0.117326 -0.145845 0)
(0.124013 -0.151744 0)
(0.130551 -0.158252 0)
(0.136854 -0.165318 0)
(0.14282 -0.172835 0)
(0.148335 -0.180584 0)
(0.153305 -0.188154 0)
(0.157716 -0.194845 0)
(0.161661 -0.199574 0)
(0.163923 -0.200839 0)
(0.165039 -0.196944 0)
(0.169467 -0.184121 0)
(0.177484 -0.147573 0)
(0.17506 0.0133194 0)
(0.164965 0.11877 0)
(0.163683 0.168446 0)
(0.163401 0.187264 0)
(0.162297 0.191118 0)
(0.160729 0.188072 0)
(0.158791 0.182151 0)
(0.156552 0.175331 0)
(0.154138 0.168549 0)
(0.151689 0.162254 0)
(0.149376 0.156693 0)
(0.147417 0.152055 0)
(0.146099 0.148529 0)
(0.145819 0.146308 0)
(0.147123 0.145529 0)
(0.150754 0.14613 0)
(0.157687 0.147555 0)
(0.169011 0.14823 0)
(0.00764675 -0.216617 0)
(0.0197141 -0.204932 0)
(0.0308665 -0.183059 0)
(0.0409638 -0.164992 0)
(0.0500532 -0.151528 0)
(0.0583258 -0.142344 0)
(0.0659873 -0.136774 0)
(0.0732157 -0.134111 0)
(0.0801543 -0.133718 0)
(0.08691 -0.13506 0)
(0.0935543 -0.137725 0)
(0.100126 -0.14141 0)
(0.106635 -0.145909 0)
(0.113066 -0.151095 0)
(0.119381 -0.156889 0)
(0.125524 -0.163236 0)
(0.131424 -0.170071 0)
(0.136993 -0.177281 0)
(0.142143 -0.184649 0)
(0.146804 -0.191782 0)
(0.150986 -0.198026 0)
(0.154773 -0.202388 0)
(0.156881 -0.203492 0)
(0.158056 -0.199649 0)
(0.162081 -0.1872 0)
(0.169703 -0.145817 0)
(0.164083 0.0176842 0)
(0.155946 0.120555 0)
(0.155585 0.168961 0)
(0.155825 0.187737 0)
(0.155234 0.191936 0)
(0.154146 0.189261 0)
(0.152654 0.183638 0)
(0.15084 0.17702 0)
(0.148831 0.170334 0)
(0.146759 0.164012 0)
(0.144779 0.158276 0)
(0.143078 0.153274 0)
(0.141903 0.149134 0)
(0.141578 0.14596 0)
(0.14253 0.143782 0)
(0.145292 0.142425 0)
(0.15046 0.141309 0)
(0.158479 0.139143 0)
(0.00725568 -0.227011 0)
(0.0187252 -0.214426 0)
(0.0293814 -0.191575 0)
(0.0390967 -0.17264 0)
(0.0478992 -0.15846 0)
(0.0559509 -0.148716 0)
(0.0634289 -0.142732 0)
(0.0704878 -0.139778 0)
(0.0772525 -0.139187 0)
(0.0838169 -0.140401 0)
(0.0902441 -0.142979 0)
(0.0965684 -0.146596 0)
(0.102799 -0.151025 0)
(0.108922 -0.156121 0)
(0.114905 -0.161789 0)
(0.120701 -0.167963 0)
(0.126248 -0.174568 0)
(0.131478 -0.181485 0)
(0.136316 -0.188501 0)
(0.140716 -0.195242 0)
(0.144703 -0.201093 0)
(0.148348 -0.205131 0)
(0.150319 -0.206077 0)
(0.151567 -0.202225 0)
(0.155259 -0.190022 0)
(0.162589 -0.142514 0)
(0.154477 0.0217646 0)
(0.147978 0.121778 0)
(0.148295 0.169025 0)
(0.1489 0.187825 0)
(0.148697 0.192405 0)
(0.147993 0.190123 0)
(0.146872 0.184816 0)
(0.145419 0.178416 0)
(0.143752 0.171846 0)
(0.141995 0.165528 0)
(0.140283 0.159665 0)
(0.138775 0.154376 0)
(0.137672 0.149742 0)
(0.13723 0.145812 0)
(0.137767 0.142553 0)
(0.139645 0.13976 0)
(0.143205 0.13693 0)
(0.14853 0.1331 0)
(0.00688881 -0.236976 0)
(0.0177946 -0.223552 0)
(0.0279738 -0.199811 0)
(0.0373108 -0.180084 0)
(0.0458184 -0.165243 0)
(0.0536351 -0.154977 0)
(0.0609143 -0.148596 0)
(0.0677907 -0.145353 0)
(0.0743734 -0.144557 0)
(0.0807446 -0.145625 0)
(0.0869596 -0.148096 0)
(0.0930485 -0.151622 0)
(0.0990193 -0.155958 0)
(0.104861 -0.160945 0)
(0.110545 -0.166473 0)
(0.116031 -0.172466 0)
(0.121269 -0.178842 0)
(0.126201 -0.18548 0)
(0.13077 -0.192171 0)
(0.134943 -0.198558 0)
(0.138757 -0.204061 0)
(0.142272 -0.207811 0)
(0.144116 -0.208606 0)
(0.145448 -0.204702 0)
(0.148854 -0.192655 0)
(0.155866 -0.138041 0)
(0.145842 0.0254482 0)
(0.140774 0.122541 0)
(0.141631 0.168745 0)
(0.142497 0.187631 0)
(0.142584 0.192604 0)
(0.14218 0.190721 0)
(0.141361 0.185735 0)
(0.140207 0.179564 0)
(0.138828 0.173127 0)
(0.137333 0.166842 0)
(0.135841 0.160901 0)
(0.134483 0.155399 0)
(0.13342 0.15039 0)
(0.132849 0.145886 0)
(0.132993 0.141828 0)
(0.134102 0.138021 0)
(0.136349 0.134064 0)
(0.139658 0.129286 0)
(0.00654167 -0.246535 0)
(0.0169122 -0.232324 0)
(0.0266312 -0.207773 0)
(0.0355944 -0.187319 0)
(0.0438022 -0.171868 0)
(0.0513729 -0.161111 0)
(0.0584407 -0.154352 0)
(0.065123 -0.150824 0)
(0.0715157 -0.149819 0)
(0.0776906 -0.150731 0)
(0.0836962 -0.153078 0)
(0.0895589 -0.156495 0)
(0.0952854 -0.160722 0)
(0.100866 -0.165584 0)
(0.106277 -0.170962 0)
(0.111485 -0.17677 0)
(0.116448 -0.182921 0)
(0.121117 -0.189293 0)
(0.125448 -0.195683 0)
(0.12942 -0.201748 0)
(0.133077 -0.206937 0)
(0.136469 -0.21043 0)
(0.138193 -0.211084 0)
(0.139608 -0.207102 0)
(0.142767 -0.195163 0)
(0.149429 -0.132406 0)
(0.137885 0.0286922 0)
(0.134108 0.122848 0)
(0.135447 0.168192 0)
(0.136514 0.187221 0)
(0.136818 0.192596 0)
(0.136645 0.191107 0)
(0.136066 0.186442 0)
(0.135155 0.180505 0)
(0.134012 0.174214 0)
(0.132736 0.167988 0)
(0.131426 0.16201 0)
(0.130193 0.156364 0)
(0.129161 0.151083 0)
(0.128477 0.14616 0)
(0.1283 0.141533 0)
(0.128791 0.137029 0)
(0.130048 0.132352 0)
(0.131883 0.126984 0)
(0.00621052 -0.255703 0)
(0.0160695 -0.240751 0)
(0.0253433 -0.215461 0)
(0.0339382 -0.194342 0)
(0.0418435 -0.178324 0)
(0.0491608 -0.167107 0)
(0.0560073 -0.159988 0)
(0.0624864 -0.156183 0)
(0.0686823 -0.154966 0)
(0.0746581 -0.155714 0)
(0.0804562 -0.157927 0)
(0.0860996 -0.161222 0)
(0.0915942 -0.165327 0)
(0.0969318 -0.170053 0)
(0.102092 -0.175273 0)
(0.107047 -0.180895 0)
(0.111761 -0.186826 0)
(0.116196 -0.192945 0)
(0.120314 -0.199054 0)
(0.124105 -0.204824 0)
(0.127618 -0.209729 0)
(0.13089 -0.21299 0)
(0.132497 -0.213514 0)
(0.13399 -0.209444 0)
(0.136935 -0.197616 0)
(0.143298 -0.125539 0)
(0.130665 0.0314684 0)
(0.127975 0.12273 0)
(0.129688 0.1674 0)
(0.130899 0.186647 0)
(0.131352 0.192432 0)
(0.131346 0.19133 0)
(0.130949 0.186979 0)
(0.130229 0.181276 0)
(0.129278 0.17514 0)
(0.128181 0.168992 0)
(0.127025 0.163013 0)
(0.125898 0.157278 0)
(0.124898 0.15181 0)
(0.124134 0.146596 0)
(0.123712 0.141574 0)
(0.12375 0.136608 0)
(0.124247 0.131455 0)
(0.125187 0.125849 0)
(0.00589237 -0.264492 0)
(0.0152597 -0.248843 0)
(0.024102 -0.222881 0)
(0.0323347 -0.201148 0)
(0.039937 -0.184605 0)
(0.0469959 -0.172958 0)
(0.0536144 -0.165495 0)
(0.0598835 -0.161421 0)
(0.0658775 -0.159994 0)
(0.071652 -0.160573 0)
(0.0772443 -0.162643 0)
(0.0826745 -0.165807 0)
(0.0879477 -0.16978 0)
(0.0930568 -0.174363 0)
(0.0979848 -0.179422 0)
(0.102707 -0.184857 0)
(0.107196 -0.190575 0)
(0.111418 -0.196452 0)
(0.115344 -0.202298 0)
(0.118968 -0.207796 0)
(0.122346 -0.212442 0)
(0.125503 -0.215491 0)
(0.126999 -0.215897 0)
(0.128561 -0.211738 0)
(0.131338 -0.200057 0)
(0.137533 -0.117637 0)
(0.124491 0.0338346 0)
(0.122506 0.1223 0)
(0.124382 0.166457 0)
(0.125631 0.18597 0)
(0.12616 0.192163 0)
(0.126257 0.191436 0)
(0.125986 0.187388 0)
(0.125409 0.181912 0)
(0.124607 0.175935 0)
(0.123656 0.169879 0)
(0.122627 0.163924 0)
(0.121592 0.158144 0)
(0.120628 0.152557 0)
(0.119814 0.147148 0)
(0.119227 0.141862 0)
(0.118922 0.136596 0)
(0.118974 0.131151 0)
(0.119123 0.125387 0)
(0.119405 0.118938 0)
(0.00558515 -0.272912 0)
(0.014478 -0.256608 0)
(0.0229014 -0.230033 0)
(0.0307781 -0.207737 0)
(0.0380786 -0.190706 0)
(0.0448766 -0.178654 0)
(0.0512627 -0.170865 0)
(0.0573173 -0.166531 0)
(0.063106 -0.164896 0)
(0.0686781 -0.165305 0)
(0.0740665 -0.167227 0)
(0.0792888 -0.170254 0)
(0.0843495 -0.174089 0)
(0.0892423 -0.178524 0)
(0.093953 -0.183419 0)
(0.0984609 -0.18867 0)
(0.102742 -0.194181 0)
(0.10677 -0.199829 0)
(0.110519 -0.205428 0)
(0.11399 -0.210672 0)
(0.117241 -0.215079 0)
(0.120287 -0.217935 0)
(0.121677 -0.218234 0)
(0.123306 -0.21399 0)
(0.12596 -0.202469 0)
(0.132098 -0.109607 0)
(0.119406 0.0359414 0)
(0.117727 0.121758 0)
(0.11952 0.165495 0)
(0.12069 0.185273 0)
(0.121214 0.191847 0)
(0.121353 0.191469 0)
(0.121158 0.187706 0)
(0.12068 0.182448 0)
(0.119989 0.176627 0)
(0.11915 0.17067 0)
(0.118225 0.164759 0)
(0.11727 0.158966 0)
(0.116342 0.153311 0)
(0.115504 0.147778 0)
(0.114805 0.142323 0)
(0.114278 0.136867 0)
(0.113953 0.131275 0)
(0.113765 0.125346 0)
(0.113459 0.119118 0)
(0.00528763 -0.280972 0)
(0.0137214 -0.264052 0)
(0.0217375 -0.236921 0)
(0.0292646 -0.214107 0)
(0.0362653 -0.196623 0)
(0.0428016 -0.184192 0)
(0.0489529 -0.176092 0)
(0.0547902 -0.171508 0)
(0.0603718 -0.169669 0)
(0.0657414 -0.169908 0)
(0.0709282 -0.17168 0)
(0.0759475 -0.174565 0)
(0.0808034 -0.178258 0)
(0.0854906 -0.182544 0)
(0.0899968 -0.187276 0)
(0.0943044 -0.192346 0)
(0.0983933 -0.197656 0)
(0.102241 -0.203085 0)
(0.105827 -0.20845 0)
(0.109156 -0.213458 0)
(0.112287 -0.217644 0)
(0.115225 -0.220322 0)
(0.116514 -0.220525 0)
(0.118205 -0.216187 0)
(0.120734 -0.204784 0)
(0.126818 -0.102617 0)
(0.114903 0.0377767 0)
(0.113397 0.121258 0)
(0.114993 0.164626 0)
(0.116017 0.18463 0)
(0.116478 0.191539 0)
(0.116608 0.191474 0)
(0.116444 0.187969 0)
(0.116026 0.182914 0)
(0.115413 0.177243 0)
(0.114659 0.171386 0)
(0.113814 0.165531 0)
(0.112925 0.159749 0)
(0.112034 0.154061 0)
(0.111188 0.148457 0)
(0.110423 0.142901 0)
(0.10975 0.137335 0)
(0.109187 0.131662 0)
(0.108682 0.125744 0)
(0.108094 0.119479 0)
(0.00499921 -0.288676 0)
(0.012988 -0.271181 0)
(0.0206076 -0.243547 0)
(0.0277915 -0.220258 0)
(0.0344953 -0.202354 0)
(0.0407703 -0.189567 0)
(0.0466858 -0.181173 0)
(0.0523047 -0.176347 0)
(0.0576785 -0.174309 0)
(0.0628462 -0.174379 0)
(0.0678338 -0.176 0)
(0.0726549 -0.178743 0)
(0.0773129 -0.182293 0)
(0.0818035 -0.186429 0)
(0.086116 -0.190999 0)
(0.0902354 -0.195892 0)
(0.0941448 -0.201008 0)
(0.0978251 -0.206228 0)
(0.101259 -0.211374 0)
(0.104454 -0.21616 0)
(0.107471 -0.220139 0)
(0.110305 -0.222652 0)
(0.111498 -0.222766 0)
(0.11324 -0.218325 0)
(0.115639 -0.207027 0)
(0.121666 -0.0960496 0)
(0.110566 0.0393778 0)
(0.109255 0.120832 0)
(0.110676 0.163886 0)
(0.111539 0.184081 0)
(0.111905 0.191276 0)
(0.111991 0.191485 0)
(0.111824 0.188211 0)
(0.111433 0.183339 0)
(0.110868 0.177807 0)
(0.110173 0.172049 0)
(0.109389 0.166254 0)
(0.108551 0.160498 0)
(0.107694 0.154803 0)
(0.10685 0.149165 0)
(0.106047 0.143555 0)
(0.105288 0.137928 0)
(0.104572 0.132222 0)
(0.103877 0.126327 0)
(0.103087 0.120174 0)
(0.00471974 -0.29603 0)
(0.0122769 -0.277999 0)
(0.0195099 -0.249914 0)
(0.0263569 -0.226189 0)
(0.032767 -0.207896 0)
(0.038782 -0.194775 0)
(0.044462 -0.186102 0)
(0.0498623 -0.181046 0)
(0.0550287 -0.178814 0)
(0.0599958 -0.178718 0)
(0.0647869 -0.180189 0)
(0.0694142 -0.18279 0)
(0.0738806 -0.186197 0)
(0.0781824 -0.190184 0)
(0.0823105 -0.194594 0)
(0.086252 -0.199315 0)
(0.0899924 -0.204245 0)
(0.0935154 -0.209266 0)
(0.096806 -0.214203 0)
(0.0998752 -0.21878 0)
(0.102784 -0.222566 0)
(0.105515 -0.224926 0)
(0.106618 -0.224956 0)
(0.108403 -0.220409 0)
(0.110684 -0.209221 0)
(0.116719 -0.089911 0)
(0.106456 0.040745 0)
(0.105286 0.120451 0)
(0.106517 0.163275 0)
(0.10721 0.183642 0)
(0.107459 0.191085 0)
(0.107474 0.19153 0)
(0.107276 0.188458 0)
(0.106887 0.183748 0)
(0.106344 0.178341 0)
(0.105685 0.172675 0)
(0.104944 0.166942 0)
(0.104146 0.16122 0)
(0.103316 0.155536 0)
(0.102481 0.149888 0)
(0.101657 0.144257 0)
(0.100845 0.138609 0)
(0.10004 0.132895 0)
(0.0992216 0.127041 0)
(0.0983141 0.120971 0)
(0.00444909 -0.303042 0)
(0.0115874 -0.28451 0)
(0.0184431 -0.256021 0)
(0.0249593 -0.231899 0)
(0.0310794 -0.213246 0)
(0.0368364 -0.199814 0)
(0.0422818 -0.190878 0)
(0.0474643 -0.1856 0)
(0.0524242 -0.183182 0)
(0.0571927 -0.182923 0)
(0.0617902 -0.184247 0)
(0.0662278 -0.186706 0)
(0.0705082 -0.189972 0)
(0.0746281 -0.193812 0)
(0.0785797 -0.198067 0)
(0.0823519 -0.202621 0)
(0.0859322 -0.207372 0)
(0.0893065 -0.212203 0)
(0.092462 -0.216943 0)
(0.0954114 -0.221323 0)
(0.0982156 -0.224927 0)
(0.100849 -0.227143 0)
(0.101869 -0.227096 0)
(0.103686 -0.222441 0)
(0.105881 -0.211378 0)
(0.112069 -0.0841477 0)
(0.102801 0.0419956 0)
(0.10157 0.120211 0)
(0.102509 0.162825 0)
(0.102998 0.183335 0)
(0.103107 0.190986 0)
(0.10303 0.191632 0)
(0.10278 0.188731 0)
(0.10237 0.184161 0)
(0.10183 0.178864 0)
(0.101189 0.173281 0)
(0.100473 0.167608 0)
(0.0997033 0.161924 0)
(0.0988967 0.15626 0)
(0.0980717 0.150619 0)
(0.0972403 0.144989 0)
(0.096401 0.139343 0)
(0.0955442 0.133646 0)
(0.094656 0.127839 0)
(0.0936831 0.12186 0)
(0.00418688 -0.309715 0)
(0.0109183 -0.290718 0)
(0.0174058 -0.26187 0)
(0.0235974 -0.237388 0)
(0.0294313 -0.218404 0)
(0.0349327 -0.204682 0)
(0.0401453 -0.195497 0)
(0.0451113 -0.19001 0)
(0.0498664 -0.187411 0)
(0.0544382 -0.186994 0)
(0.0588451 -0.188173 0)
(0.0630971 -0.190494 0)
(0.0671964 -0.193622 0)
(0.0711405 -0.197319 0)
(0.0749225 -0.201422 0)
(0.0785327 -0.205815 0)
(0.0819604 -0.210394 0)
(0.0851933 -0.215044 0)
(0.0882203 -0.219597 0)
(0.0910554 -0.223791 0)
(0.0937596 -0.227225 0)
(0.0962985 -0.229306 0)
(0.0972403 -0.229186 0)
(0.0990814 -0.224418 0)
(0.101215 -0.213425 0)
(0.107559 -0.0801403 0)
(0.0994071 0.0432101 0)
(0.0980008 0.120191 0)
(0.0985932 0.162586 0)
(0.0988568 0.183184 0)
(0.0988148 0.190998 0)
(0.0986312 0.191807 0)
(0.098314 0.189048 0)
(0.0978666 0.184595 0)
(0.0973121 0.179391 0)
(0.0966741 0.173881 0)
(0.0959721 0.168262 0)
(0.0952203 0.162616 0)
(0.0944314 0.156977 0)
(0.0936182 0.151352 0)
(0.0927882 0.145736 0)
(0.0919381 0.140108 0)
(0.0910585 0.13444 0)
(0.090136 0.128688 0)
(0.0891354 0.122793 0)
(0.00393237 -0.316056 0)
(0.0102682 -0.296626 0)
(0.0163964 -0.267463 0)
(0.0222694 -0.242656 0)
(0.0278215 -0.223369 0)
(0.0330702 -0.209377 0)
(0.0380522 -0.199959 0)
(0.0428035 -0.194272 0)
(0.0473558 -0.191501 0)
(0.0517332 -0.19093 0)
(0.0559525 -0.191969 0)
(0.0600224 -0.194155 0)
(0.0639453 -0.197147 0)
(0.0677188 -0.200705 0)
(0.0713371 -0.204663 0)
(0.0747916 -0.2089 0)
(0.0780731 -0.213316 0)
(0.0811708 -0.217793 0)
(0.0840749 -0.222169 0)
(0.0868006 -0.226189 0)
(0.0894081 -0.229461 0)
(0.091855 -0.231415 0)
(0.092725 -0.231227 0)
(0.094582 -0.22634 0)
(0.0966393 -0.215362 0)
(0.103003 -0.077452 0)
(0.0957979 0.0444088 0)
(0.0943302 0.120402 0)
(0.0946569 0.162554 0)
(0.0947283 0.183192 0)
(0.094541 0.191125 0)
(0.0942483 0.192063 0)
(0.0938551 0.189419 0)
(0.0933593 0.185061 0)
(0.0927788 0.179934 0)
(0.0921321 0.174484 0)
(0.0914335 0.168911 0)
(0.0906923 0.1633 0)
(0.0899172 0.157688 0)
(0.0891168 0.152084 0)
(0.0882951 0.146489 0)
(0.0874476 0.140887 0)
(0.0865651 0.135256 0)
(0.0856354 0.12956 0)
(0.0846336 0.123745 0)
(0.00368464 -0.322067 0)
(0.00963547 -0.302238 0)
(0.015413 -0.272801 0)
(0.0209741 -0.247703 0)
(0.0262488 -0.228139 0)
(0.0312482 -0.213898 0)
(0.0360019 -0.204262 0)
(0.0405408 -0.198386 0)
(0.0448922 -0.19545 0)
(0.0490778 -0.194732 0)
(0.0531123 -0.195635 0)
(0.0570037 -0.19769 0)
(0.0607541 -0.200551 0)
(0.0643617 -0.203974 0)
(0.0678213 -0.207791 0)
(0.0711255 -0.211881 0)
(0.0742662 -0.21614 0)
(0.0772338 -0.220455 0)
(0.08002 -0.224663 0)
(0.0826403 -0.228517 0)
(0.0851544 -0.231637 0)
(0.087512 -0.233473 0)
(0.0883163 -0.23322 0)
(0.0901817 -0.228206 0)
(0.0921561 -0.217234 0)
(0.0983954 -0.0751979 0)
(0.0918486 0.0455333 0)
(0.0904581 0.120733 0)