/*--------------------------------*- C++ -*----------------------------------*\
| =========                 |                                                 |
| \\      /  F ield         | OpenFOAM: The Open Source CFD Toolbox           |
|  \\    /   O peration     | Version:  5.0                                   |
|   \\  /    A nd           | Web:      www.OpenFOAM.org                      |
|    \\/     M anipulation  |                                                 |
\*---------------------------------------------------------------------------*/
FoamFile
{
    version     2.0;
    format      ascii;
    class       surfaceScalarField;
    location    "0.95";
    object      alphaPhi10;
}
// * * * * * * * * * * * * * * * * * * * * * * * * * * * * * * * * * * * * * //

dimensions      [0 3 -1 0 0 0 0];

internalField   nonuniform List<scalar> 
3781
(
-5.8007e-07
5.8007e-07
-2.14584e-06
1.56577e-06
-3.80875e-06
1.6629e-06
-5.37601e-06
1.56727e-06
-6.86511e-06
1.4891e-06
-8.30255e-06
1.43744e-06
-9.70088e-06
1.39832e-06
-1.10592e-05
1.35828e-06
-1.23688e-05
1.30964e-06
-1.36183e-05
1.24946e-06
-1.4796e-05
1.17774e-06
-1.58921e-05
1.09605e-06
-1.68987e-05
1.00663e-06
-1.78106e-05
9.11915e-07
-1.86247e-05
8.1414e-07
-1.934e-05
7.15212e-07
-1.99565e-05
6.16569e-07
-2.04757e-05
5.19151e-07
-2.08991e-05
4.23453e-07
-2.12288e-05
3.29639e-07
-2.14662e-05
2.37395e-07
-2.16114e-05
1.45197e-07
-2.16599e-05
4.85071e-08
-2.16014e-05
-5.85114e-08
-2.14414e-05
-1.59963e-07
-2.11861e-05
-2.55306e-07
-2.08392e-05
-3.46841e-07
-2.04002e-05
-4.39063e-07
-1.9864e-05
-5.36172e-07
-1.92228e-05
-6.4116e-07
-1.84692e-05
-7.53671e-07
-1.7601e-05
-8.68208e-07
-1.62001e-05
-9.68113e-07
-1.4876e-05
-1.04369e-06
-1.42706e-05
-1.25159e-06
-1.27837e-05
-1.48691e-06
-1.11752e-05
-1.59069e-06
-9.49342e-06
-1.63463e-06
-7.78926e-06
-1.67813e-06
-6.03483e-06
-1.68322e-06
-4.243e-06
-1.58665e-06
-2.68214e-06
-1.63918e-06
-1.13502e-06
-1.55809e-06
-1.40171e-06
-1.49657e-06
2.07664e-06
-3.15088e-06
3.22008e-06
-4.85284e-06
3.36486e-06
-6.52618e-06
3.24061e-06
-8.15339e-06
3.11631e-06
-9.72754e-06
3.01159e-06
-1.12372e-05
2.90803e-06
-1.26691e-05
2.7901e-06
-1.40104e-05
2.65093e-06
-1.52508e-05
2.48994e-06
-1.63832e-05
2.31015e-06
-1.74033e-05
2.11608e-06
-1.83092e-05
1.91258e-06
-1.91014e-05
1.70413e-06
-1.97818e-05
1.49451e-06
-2.03532e-05
1.28662e-06
-2.08191e-05
1.08242e-06
-2.11829e-05
8.82954e-07
-2.1448e-05
6.8859e-07
-2.16176e-05
4.99275e-07
-2.16949e-05
3.14622e-07
-2.16832e-05
1.33535e-07
-2.15897e-05
-4.49761e-08
-2.14242e-05
-2.24027e-07
-2.11849e-05
-3.99315e-07
-2.08687e-05
-5.71498e-07
-2.04735e-05
-7.42033e-07
-1.99972e-05
-9.15361e-07
-1.94364e-05
-1.09691e-06
-1.87863e-05
-1.29128e-06
-1.80398e-05
-1.50017e-06
-1.71436e-05
-1.72045e-06
-1.61734e-05
-1.94433e-06
-1.5074e-05
-2.18819e-06
-1.38712e-05
-2.49225e-06
-1.25767e-05
-2.80439e-06
-1.0943e-05
-3.03691e-06
-9.41174e-06
-3.17135e-06
-7.86504e-06
-3.23511e-06
-6.35941e-06
-3.20367e-06
-4.86815e-06
-3.09553e-06
-3.49127e-06
-3.02718e-06
-2.35257e-06
-2.82598e-06
-2.4587e-06
-1.843e-06
3.91964e-06
-3.45095e-06
4.82804e-06
-5.09431e-06
5.00822e-06
-6.76112e-06
4.90742e-06
-8.39917e-06
4.75436e-06
-9.97809e-06
4.59051e-06
-1.14779e-05
4.40785e-06
-1.28845e-05
4.19668e-06
-1.41879e-05
3.9543e-06
-1.53815e-05
3.68361e-06
-1.64619e-05
3.39054e-06
-1.74278e-05
3.08196e-06
-1.82797e-05
2.76451e-06
-1.90195e-05
2.44394e-06
-1.96499e-05
2.1249e-06
-2.01742e-05
1.81083e-06
-2.05957e-05
1.50392e-06
-2.09179e-05
1.20518e-06
-2.11441e-05
9.14851e-07
-2.12777e-05
6.32865e-07
-2.13222e-05
3.59122e-07
-2.1282e-05
9.32983e-08
-2.11617e-05
-1.65295e-07
-2.09677e-05
-4.18037e-07
-2.07015e-05
-6.65494e-07
-2.03637e-05
-9.09305e-07
-1.99533e-05
-1.15245e-06
-1.94682e-05
-1.40044e-06
-1.89049e-05
-1.66019e-06
-1.82581e-05
-1.93812e-06
-1.75203e-05
-2.23789e-06
-1.6682e-05
-2.55876e-06
-1.57282e-05
-2.89813e-06
-1.4653e-05
-3.26341e-06
-1.34809e-05
-3.66436e-06
-1.2225e-05
-4.06029e-06
-1.08762e-05
-4.38567e-06
-9.42221e-06
-4.61081e-06
-7.915e-06
-4.72344e-06
-6.47561e-06
-4.70763e-06
-5.1677e-06
-4.56387e-06
-3.96021e-06
-4.28674e-06
-2.9274e-06
-3.85879e-06
-3.30464e-06
-1.94836e-06
5.868e-06
-3.61135e-06
6.49103e-06
-5.27713e-06
6.674e-06
-6.95723e-06
6.58752e-06
-8.60161e-06
6.39873e-06
-1.01747e-05
6.16365e-06
-1.16554e-05
5.88851e-06
-1.3031e-05
5.57233e-06
-1.42946e-05
5.21784e-06
-1.54426e-05
4.83161e-06
-1.64742e-05
4.42211e-06
-1.73902e-05
3.998e-06
-1.81927e-05
3.56707e-06
-1.88847e-05
3.13586e-06
-1.94693e-05
2.70951e-06
-1.99502e-05
2.29174e-06
-2.03311e-05
1.88483e-06
-2.06156e-05
1.48966e-06
-2.0807e-05
1.10631e-06
-2.0909e-05
7.34795e-07
-2.09253e-05
3.75419e-07
-2.08604e-05
2.84571e-08
-2.07192e-05
-3.06552e-07
-2.05061e-05
-6.31148e-07
-2.0224e-05
-9.47562e-07
-1.98743e-05
-1.259e-06
-1.94566e-05
-1.57019e-06
-1.89686e-05
-1.88837e-06
-1.84064e-05
-2.22246e-06
-1.77634e-05
-2.58104e-06
-1.70316e-05
-2.96978e-06
-1.62007e-05
-3.38957e-06
-1.5261e-05
-3.83785e-06
-1.42108e-05
-4.31366e-06
-1.30637e-05
-4.81139e-06
-1.18302e-05
-5.29387e-06
-1.05142e-05
-5.70168e-06
-9.13513e-06
-5.98984e-06
-7.72671e-06
-6.13186e-06
-6.33178e-06
-6.10256e-06
-5.01526e-06
-5.88039e-06
-3.87108e-06
-5.43092e-06
-2.95488e-06
-4.775e-06
-4.03192e-06
-1.98464e-06
7.85264e-06
-3.73964e-06
8.24603e-06
-5.46436e-06
8.39872e-06
-7.17174e-06
8.29491e-06
-8.82352e-06
8.05051e-06
-1.0388e-05
7.72817e-06
-1.18464e-05
7.34688e-06
-1.31888e-05
6.91471e-06
-1.4411e-05
6.44005e-06
-1.55124e-05
5.93299e-06
-1.64944e-05
5.40416e-06
-1.73599e-05
4.86349e-06
-1.81123e-05
4.31946e-06
-1.87554e-05
3.77895e-06
-1.92932e-05
3.24729e-06
-1.97298e-05
2.72837e-06
-2.00694e-05
2.2244e-06
-2.03157e-05
1.73601e-06
-2.04724e-05
1.26299e-06
-2.0543e-05
8.05386e-07
-2.05316e-05
3.64018e-07
-2.04429e-05
-6.02456e-08
-2.02817e-05
-4.67776e-07
-2.00521e-05
-8.60758e-07
-1.9757e-05
-1.24263e-06
-1.93979e-05
-1.61805e-06
-1.89746e-05
-1.99351e-06
-1.84847e-05
-2.37832e-06
-1.79232e-05
-2.78394e-06
-1.72826e-05
-3.2216e-06
-1.65535e-05
-3.69892e-06
-1.57257e-05
-4.2174e-06
-1.4791e-05
-4.7725e-06
-1.37478e-05
-5.35689e-06
-1.26022e-05
-5.95698e-06
-1.13606e-05
-6.53548e-06
-1.00331e-05
-7.02916e-06
-8.64465e-06
-7.37828e-06
-7.23021e-06
-7.54631e-06
-5.83062e-06
-7.50214e-06
-4.50423e-06
-7.20678e-06
-3.36013e-06
-6.57502e-06
-2.49472e-06
-5.64041e-06
-4.63467e-06
-2.01759e-06
9.87023e-06
-3.87051e-06
1.00989e-05
-5.66354e-06
1.01918e-05
-7.4036e-06
1.0035e-05
-9.0634e-06
9.71031e-06
-1.0618e-05
9.28278e-06
-1.20526e-05
8.78148e-06
-1.33606e-05
8.22269e-06
-1.45407e-05
7.62016e-06
-1.55949e-05
6.98721e-06
-1.6527e-05
6.33621e-06
-1.73414e-05
5.67791e-06
-1.80429e-05
5.02102e-06
-1.86364e-05
4.37239e-06
-1.91265e-05
3.73737e-06
-1.9518e-05
3.11986e-06
-1.98155e-05
2.52194e-06
-2.00233e-05
1.94378e-06
-2.01449e-05
1.38459e-06
-2.01838e-05
8.44358e-07
-2.01444e-05
3.24575e-07
-2.00315e-05
-1.73133e-07
-1.98501e-05
-6.4918e-07
-1.96042e-05
-1.10669e-06
-1.92964e-05
-1.55042e-06
-1.8928e-05
-1.98639e-06
-1.84989e-05
-2.42269e-06
-1.80063e-05
-2.87092e-06
-1.74446e-05
-3.34565e-06
-1.68048e-05
-3.86132e-06
-1.60759e-05
-4.42781e-06
-1.52467e-05
-5.0466e-06
-1.43089e-05
-5.71034e-06
-1.32587e-05
-6.40713e-06
-1.20948e-05
-7.12079e-06
-1.08171e-05
-7.81319e-06
-9.43929e-06
-8.40701e-06
-7.99658e-06
-8.821e-06
-6.52933e-06
-9.01355e-06
-5.07453e-06
-8.95695e-06
-3.67496e-06
-8.60635e-06
-2.46463e-06
-7.78535e-06
-1.59936e-06
-6.50569e-06
-5.10712e-06
-2.06842e-06
1.19387e-05
-4.01667e-06
1.20472e-05
-5.87587e-06
1.2051e-05
-7.64763e-06
1.18067e-05
-9.31388e-06
1.13765e-05
-1.08569e-05
1.08258e-05
-1.22664e-05
1.0191e-05
-1.35392e-05
9.4955e-06
-1.46769e-05
8.75786e-06
-1.56839e-05
7.99422e-06
-1.65661e-05
7.21833e-06
-1.73295e-05
6.44131e-06
-1.79802e-05
5.67171e-06
-1.85238e-05
4.91603e-06
-1.89659e-05
4.17945e-06
-1.93119e-05
3.46591e-06
-1.95673e-05
2.77729e-06
-1.97364e-05
2.11295e-06
-1.9823e-05
1.47112e-06
-1.98302e-05
8.5154e-07
-1.97622e-05
2.5666e-07
-1.96246e-05
-3.10761e-07
-1.94225e-05
-8.51277e-07
-1.91598e-05
-1.36938e-06
-1.88388e-05
-1.87146e-06
-1.84605e-05
-2.36469e-06
-1.80247e-05
-2.85845e-06
-1.7529e-05
-3.36665e-06
-1.69671e-05
-3.90758e-06
-1.63286e-05
-4.49983e-06
-1.56003e-05
-5.15609e-06
-1.47692e-05
-5.87765e-06
-1.38257e-05
-6.65384e-06
-1.27626e-05
-7.47028e-06
-1.15683e-05
-8.31513e-06
-1.02292e-05
-9.1522e-06
-8.7612e-06
-9.87506e-06
-7.21925e-06
-1.03629e-05
-5.65834e-06
-1.05745e-05
-4.11257e-06
-1.05027e-05
-2.58869e-06
-1.01302e-05
-1.25052e-06
-9.12352e-06
-3.28668e-07
-7.42754e-06
-5.4827e-06
-2.14156e-06
1.40802e-05
-4.17926e-06
1.40849e-05
-6.09626e-06
1.3968e-05
-7.89387e-06
1.36043e-05
-9.56257e-06
1.30452e-05
-1.10914e-05
1.23546e-05
-1.24745e-05
1.15741e-05
-1.37116e-05
1.07327e-05
-1.48071e-05
9.85335e-06
-1.57676e-05
8.95465e-06
-1.66006e-05
8.05137e-06
-1.73139e-05
7.15464e-06
-1.79147e-05
6.27244e-06
-1.84092e-05
5.41061e-06
-1.88039e-05
4.57411e-06
-1.9105e-05
3.76705e-06
-1.93189e-05
2.99109e-06
-1.94503e-05
2.24436e-06
-1.95025e-05
1.52337e-06
-1.94783e-05
8.27309e-07
-1.93818e-05
1.60184e-07
-1.92191e-05
-4.73429e-07
-1.89961e-05
-1.07432e-06
-1.87164e-05
-1.64906e-06
-1.83817e-05
-2.20614e-06
-1.79929e-05
-2.75352e-06
-1.75503e-05
-3.30106e-06
-1.70522e-05
-3.86477e-06
-1.64924e-05
-4.46736e-06
-1.58594e-05
-5.13284e-06
-1.51377e-05
-5.87779e-06
-1.4312e-05
-6.70334e-06
-1.33709e-05
-7.59486e-06
-1.23024e-05
-8.53879e-06
-1.10774e-05
-9.54016e-06
-9.65507e-06
-1.05745e-05
-8.05166e-06
-1.14784e-05
-6.3579e-06
-1.20566e-05
-4.66041e-06
-1.22718e-05
-3.00429e-06
-1.21588e-05
-1.32289e-06
-1.18116e-05
1.90631e-07
-1.0637e-05
1.23257e-06
-8.46947e-06
-5.81561e-06
-2.23398e-06
1.63142e-05
-4.34987e-06
1.62008e-05
-6.31076e-06
1.59288e-05
-8.12434e-06
1.54179e-05
-9.78953e-06
1.47104e-05
-1.13011e-05
1.38662e-05
-1.26566e-05
1.29296e-05
-1.38585e-05
1.19346e-05
-1.4913e-05
1.09079e-05
-1.58286e-05
9.87032e-06
-1.66147e-05
8.83745e-06
-1.72802e-05
7.82014e-06
-1.78332e-05
6.82541e-06
-1.82807e-05
5.85817e-06
-1.86298e-05
4.92314e-06
-1.88877e-05
4.02497e-06
-1.90618e-05
3.16519e-06
-1.91575e-05
2.34006e-06
-1.91773e-05
1.54324e-06
-1.9123e-05
7.72941e-07
-1.89985e-05
3.57111e-08
-1.88111e-05
-6.60827e-07
-1.85676e-05
-1.31785e-06
-1.82714e-05
-1.94521e-06
-1.79234e-05
-2.55418e-06
-1.75241e-05
-3.15281e-06
-1.70753e-05
-3.74985e-06
-1.65774e-05
-4.36265e-06
-1.60257e-05
-5.01912e-06
-1.54081e-05
-5.7504e-06
-1.47073e-05
-6.57856e-06
-1.39059e-05
-7.50481e-06
-1.29914e-05
-8.50928e-06
-1.19457e-05
-9.58454e-06
-1.07094e-05
-1.07763e-05
-9.19055e-06
-1.20931e-05
-7.39504e-06
-1.32728e-05
-5.46689e-06
-1.39828e-05
-3.56103e-06
-1.4176e-05
-1.78815e-06
-1.39302e-05
4.85571e-08
-1.36482e-05
1.74433e-06
-1.23328e-05
2.95738e-06
-9.68251e-06
-6.24679e-06
-2.3332e-06
1.86474e-05
-4.50731e-06
1.83749e-05
-6.49281e-06
1.79143e-05
-8.30957e-06
1.72347e-05
-9.96444e-06
1.63653e-05
-1.14562e-05
1.53579e-05
-1.27844e-05
1.42578e-05
-1.39529e-05
1.31031e-05
-1.49695e-05
1.19245e-05
-1.58441e-05
1.07449e-05
-1.65872e-05
9.58059e-06
-1.7209e-05
8.44192e-06
-1.77183e-05
7.33469e-06
-1.81226e-05
6.2625e-06
-1.84294e-05
5.22999e-06
-1.86474e-05
4.24291e-06
-1.87852e-05
3.30297e-06
-1.88488e-05
2.4037e-06
-1.88398e-05
1.53422e-06
-1.87578e-05
6.90951e-07
-1.86068e-05
-1.15256e-07
-1.8396e-05
-8.71699e-07
-1.81336e-05
-1.58025e-06
-1.78228e-05
-2.25601e-06
-1.74627e-05
-2.91423e-06
-1.70539e-05
-3.56158e-06
-1.66009e-05
-4.20292e-06
-1.61082e-05
-4.85532e-06
-1.55746e-05
-5.55269e-06
-1.49896e-05
-6.33541e-06
-1.43349e-05
-7.2333e-06
-1.35919e-05
-8.24778e-06
-1.27503e-05
-9.35083e-06
-1.17859e-05
-1.05488e-05
-1.05946e-05
-1.19667e-05
-8.98456e-06
-1.36989e-05
-6.85407e-06
-1.53871e-05
-4.5293e-06
-1.628e-05
-2.31207e-06
-1.63076e-05
-4.22575e-07
-1.56008e-05
1.48222e-06
-1.5551e-05
3.24539e-06
-1.40962e-05
4.6015e-06
-1.10384e-05
-6.96478e-06
-2.45134e-06
2.10987e-05
-4.69402e-06
2.06176e-05
-6.71724e-06
1.99376e-05
-8.55599e-06
1.90734e-05
-1.02243e-05
1.80336e-05
-1.17223e-05
1.6856e-05
-1.30495e-05
1.55849e-05
-1.42098e-05
1.42634e-05
-1.52119e-05
1.29266e-05
-1.60667e-05
1.15997e-05
-1.6786e-05
1.02999e-05
-1.73809e-05
9.03686e-06
-1.78612e-05
7.81499e-06
-1.82348e-05
6.63609e-06
-1.85097e-05
5.50484e-06
-1.86959e-05
4.42912e-06
-1.88043e-05
3.41141e-06
-1.8842e-05
2.44139e-06
-1.88087e-05
1.50093e-06
-1.87011e-05
5.8334e-07
-1.85231e-05
-2.93294e-07
-1.8287e-05
-1.10779e-06
-1.80039e-05
-1.86338e-06
-1.76761e-05
-2.58381e-06
-1.73002e-05
-3.29013e-06
-1.68765e-05
-3.98527e-06
-1.64141e-05
-4.66527e-06
-1.59254e-05
-5.34401e-06
-1.54159e-05
-6.06225e-06
-1.4879e-05
-6.87222e-06
-1.42981e-05
-7.81423e-06
-1.36563e-05
-8.8895e-06
-1.29502e-05
-1.00566e-05
-1.21533e-05
-1.1344e-05
-1.10863e-05
-1.30242e-05
-9.22691e-06
-1.55064e-05
-5.94343e-06
-1.36531e-05
-2.81584e-06
-1.12408e-05
-5.11847e-07
-1.09198e-05
1.02489e-06
-8.31645e-06
3.0257e-06
-1.68312e-05
4.49882e-06
-1.55604e-05
5.79495e-06
-1.23283e-05
-8.24054e-06
-2.45597e-06
2.35547e-05
-4.71293e-06
2.28745e-05
-6.73283e-06
2.19574e-05
-8.56693e-06
2.09075e-05
-1.02338e-05
1.97004e-05
-1.17309e-05
1.83531e-05
-1.30541e-05
1.69081e-05
-1.42061e-05
1.54154e-05
-1.51955e-05
1.39159e-05
-1.60335e-05
1.24378e-05
-1.67326e-05
1.0999e-05
-1.73051e-05
9.60937e-06
-1.77615e-05
8.27142e-06
-1.81099e-05
6.98446e-06
-1.83583e-05
5.75324e-06
-1.85184e-05
4.58919e-06
-1.86035e-05
3.49656e-06
-1.86223e-05
2.46019e-06
-1.85724e-05
1.45095e-06
-1.84456e-05
4.5657e-07
-1.82459e-05
-4.9303e-07
-1.79905e-05
-1.36317e-06
-1.76941e-05
-2.15975e-06
-1.73577e-05
-2.92022e-06
-1.69736e-05
-3.67418e-06
-1.65419e-05
-4.41703e-06
-1.60786e-05
-5.12854e-06
-1.56076e-05
-5.81494e-06
-1.51454e-05
-6.52449e-06
-1.46944e-05
-7.32307e-06
-1.42452e-05
-8.26319e-06
-1.37887e-05
-9.3451e-06
-1.33352e-05
-1.05066e-05
-1.28035e-05
-1.18574e-05
-1.1864e-05
-1.34611e-05
-6.59218e-06
-9.22758e-06
-2.50856e-06
-3.9793e-06
-6.79207e-07
-8.8739e-06
6.73728e-07
-1.07342e-05
1.67792e-06
-7.77621e-06
4.24289e-06
-1.51132e-05
4.63886e-06
-1.26436e-05
4.38146e-06
-6.63649e-06
-3.03806e-06
-2.24223e-06
2.57969e-05
-4.47711e-06
2.51094e-05
-6.4703e-06
2.39506e-05
-8.29733e-06
2.27346e-05
-9.97569e-06
2.13788e-05
-1.14902e-05
1.98676e-05
-1.28285e-05
1.82464e-05
-1.39911e-05
1.65781e-05
-1.49861e-05
1.49108e-05
-1.58247e-05
1.32764e-05
-1.652e-05
1.16943e-05
-1.70855e-05
1.01749e-05
-1.75332e-05
8.71915e-06
-1.78711e-05
7.32242e-06
-1.81065e-05
5.98858e-06
-1.82523e-05
4.73499e-06
-1.83248e-05
3.56903e-06
-1.83352e-05
2.47063e-06
-1.8279e-05
1.39481e-06
-1.81418e-05
3.193e-07
-1.79273e-05
-7.07532e-07
-1.76596e-05
-1.63081e-06
-1.73579e-05
-2.4615e-06
-1.70207e-05
-3.25735e-06
-1.66348e-05
-4.05991e-06
-1.6199e-05
-4.8527e-06
-1.57367e-05
-5.59056e-06
-1.52845e-05
-6.26651e-06
-1.48722e-05
-6.93548e-06
-1.45154e-05
-7.67752e-06
-1.42152e-05
-8.55827e-06
-1.39774e-05
-9.57111e-06
-1.39151e-05
-1.05305e-05
-1.28537e-05
-9.14756e-06
-5.29375e-06
-4.9663e-06
-2.189e-06
-2.07606e-06
-1.4132e-06
-6.42197e-06
-1.67377e-07
-1.31602e-05
1.29529e-06
-1.22754e-05
2.12007e-06
-8.8885e-06
2.10848e-06
-4.85001e-06
1.02346e-06
-2.96386e-07
2.72235e-07
-7.80905e-09
-3.59382e-10
-1.75108e-06
2.7548e-05
-3.85898e-06
2.72173e-05
-5.78761e-06
2.58793e-05
-7.45472e-06
2.43063e-05
-9.12472e-06
1.85421e-05
-1.05384e-05
1.56516e-05
-1.17508e-05
1.37007e-05
-1.2857e-05
1.21265e-05
-1.38478e-05
1.08136e-05
-1.47473e-05
9.69784e-06
-1.55571e-05
8.69936e-06
-1.62796e-05
7.76228e-06
-1.69924e-05
6.85935e-06
-1.74782e-05
6.02375e-06
-1.77242e-05
6.23451e-06
-1.78741e-05
4.88491e-06
-1.79477e-05
3.6426e-06
-1.79612e-05
2.48414e-06
-1.79087e-05
1.3423e-06
-1.77529e-05
1.63521e-07
-1.7513e-05
-9.46094e-07
-1.72175e-05
-1.92629e-06
-1.69014e-05
-2.77697e-06
-1.65751e-05
-3.57961e-06
-1.62032e-05
-4.40215e-06
-1.5749e-05
-5.19905e-06
-1.52345e-05
-5.77882e-06
-1.46816e-05
-6.02772e-06
-1.41346e-05
-6.06324e-06
-1.36028e-05
-5.98026e-06
-1.30694e-05
-5.62389e-06
-1.23969e-05
-4.64191e-06
-9.57191e-06
-2.93951e-06
-2.95654e-06
-4.66961e-07
-1.60145e-06
-8.07374e-07
-2.70542e-06
-3.28205e-06
-3.16912e-06
-1.35607e-05
-1.22832e-06
-1.40019e-05
6.07943e-07
-1.33261e-05
1.67622e-06
-8.85775e-06
2.85928e-07
-3.4139e-07
6.55763e-09
-1.72695e-08
2.63502e-10
-1.7882e-09
-4.6742e-10
-1.17751e-06
2.1435e-05
-2.3795e-06
1.47595e-05
-3.20586e-06
7.94913e-06
-3.57673e-06
3.28165e-06
-3.68552e-06
9.66613e-07
-3.78067e-06
3.13698e-07
-3.91525e-06
9.4455e-08
-4.10886e-06
5.56623e-08
-4.41061e-06
4.69187e-08
-4.73796e-06
4.13349e-08
-5.14221e-06
3.75129e-08
-5.59206e-06
3.66987e-08
-6.07254e-06
3.95211e-08
-6.73423e-06
5.17776e-08
-7.59691e-06
1.14996e-07
-8.31276e-06
2.17069e-07
-8.69291e-06
2.33066e-07
-8.98433e-06
1.90407e-07
-9.86676e-06
1.32065e-07
-1.11888e-05
1.03715e-08
-1.13239e-05
3.82083e-19
-1.10373e-05
1.85063e-18
-1.02789e-05
-7.77033e-16
-9.7825e-06
-1.6234e-14
-9.43625e-06
-1.99547e-13
-8.93491e-06
-1.72765e-12
-7.89725e-06
-1.26688e-11
-6.63146e-06
-5.74435e-11
-5.50028e-06
-2.20492e-10
-4.44572e-06
-1.43889e-09
-3.16094e-06
-9.92059e-09
-1.32829e-06
-6.9156e-08
-1.98297e-07
-1.08427e-07
-6.67329e-07
-3.37106e-08
-5.11748e-07
-5.17219e-07
-6.47755e-06
-5.89215e-06
-4.35692e-06
-1.53466e-05
-2.85937e-06
-1.5926e-05
-6.43238e-07
-1.24851e-05
2.62514e-07
-2.76034e-06
6.75358e-09
-1.01594e-07
1.66526e-09
-1.52059e-08
1.18668e-09
-1.95101e-09
-4.64463e-10
-3.90425e-07
5.11485e-07
-2.91945e-07
2.59812e-07
-2.53537e-07
1.06303e-07
-2.19335e-07
5.19665e-08
-2.16829e-07
3.38648e-08
-2.12795e-07
2.11188e-08
-2.18211e-07
1.47383e-08
-2.3632e-07
1.06364e-08
-2.44291e-07
7.65681e-09
-2.43005e-07
5.56976e-09
-2.3288e-07
4.13145e-09
-2.14374e-07
3.14153e-09
-1.86397e-07
2.43695e-09
-1.4192e-07
1.91594e-09
-1.27898e-07
1.47244e-09
-1.26099e-07
6.44273e-10
-1.20499e-07
8.14929e-10
-1.07052e-07
1.05346e-09
-6.14237e-08
8.2921e-10
5.78485e-18
5.67282e-17
1.45049e-17
5.21131e-17
-7.19184e-17
2.40787e-16
-1.4725e-15
6.23546e-16
-1.80149e-14
3.08382e-16
-1.54421e-13
-8.59687e-15
-1.11345e-12
-1.05286e-13
-5.0458e-12
-1.13315e-12
-1.80737e-11
-1.13864e-11
-1.04979e-10
-1.07438e-10
-7.37234e-10
-8.10668e-10
-6.65823e-09
-4.0956e-09
-7.61435e-08
-1.031e-09
-2.02028e-07
1.8971e-09
-2.24039e-07
-1.11513e-07
-6.7354e-07
-3.38403e-06
-5.50089e-06
-8.58638e-06
-6.79446e-06
-1.34501e-05
-3.70713e-06
-9.4219e-06
-3.5858e-08
-6.55933e-06
-5.73201e-08
-2.84844e-06
1.31379e-08
-2.74582e-07
4.94643e-09
-1.00167e-08
2.99392e-09
-1.08205e-09
-2.45798e-10
-1.2359e-07
-7.40506e-09
-4.50015e-08
1.80481e-08
-3.29254e-08
1.59512e-08
-2.91399e-08
8.57769e-09
-2.35226e-08
4.88353e-09
-2.0952e-08
2.96772e-09
-1.84955e-08
1.85597e-09
-1.60912e-08
1.17243e-09
-1.37926e-08
7.40795e-10
-1.16368e-08
4.71434e-10
-9.60989e-09
3.03867e-10
-7.71239e-09
1.98655e-10
-5.97501e-09
1.31012e-10
-4.43817e-09
8.71446e-11
-3.17467e-09
5.73019e-11
-2.65878e-09
3.8043e-11
-1.91208e-09
2.43433e-11
-8.74606e-10
1.26813e-11
3.69983e-14
3.16818e-12
6.52369e-16
-2.42208e-16
1.60366e-15
1.21253e-16
2.94622e-15
7.7957e-16
1.14738e-15
2.70839e-15
-1.49465e-14
3.97602e-15
-1.6925e-14
-6.61847e-15
-8.37393e-14
-5.84325e-14
-9.66398e-13
-5.81831e-13
-1.09529e-11
-4.26323e-12
-1.2441e-10
-2.09326e-11
-1.0047e-09
-4.27551e-11
-7.47055e-09
9.96018e-10
-3.96604e-08
1.62008e-08
-1.64623e-07
8.10105e-08
-1.36823e-06
-5.11485e-07
-3.02048e-06
-5.97998e-06
-5.45699e-06
-1.23619e-05
-3.00522e-06
-1.3701e-05
-1.91698e-06
-1.38317e-05
-4.93473e-07
-1.30758e-05
4.07907e-07
-9.47804e-06
1.18534e-08
-1.18055e-07
4.99843e-09
-5.08144e-09
1.24535e-09
-9.509e-10
1.81261e-09
-7.85929e-09
9.61708e-10
-5.85519e-09
1.77367e-09
-3.85221e-09
2.12143e-09
-2.57267e-09
1.21966e-09
-1.83898e-09
6.67957e-10
-1.45094e-09
3.72747e-10
-1.15338e-09
2.07477e-10
-9.0947e-10
1.14604e-10
-7.08184e-10
6.19852e-11
-5.4092e-10
3.30728e-11
-4.0129e-10
1.74888e-11
-2.85939e-10
9.36899e-12
-1.9356e-10
5.16844e-12
-1.23213e-10
2.97818e-12
-7.30833e-11
1.72872e-12
-3.87748e-11
9.94504e-13
-1.58797e-11
5.10343e-13
-3.26622e-12
1.90357e-13
1.71693e-16
3.67366e-14
1.38739e-15
-6.94803e-18
4.96529e-15
1.25371e-16
1.25224e-14
1.98665e-15
1.4981e-14
1.04527e-14
-2.08493e-14
2.48512e-14
-4.50095e-14
1.75273e-14
-9.41345e-14
-2.80276e-14
-7.07913e-13
-1.47034e-13
-7.12709e-12
5.70907e-14
-5.24624e-11
1.80588e-11
-3.84979e-10
1.86031e-10
-2.02455e-09
1.33247e-09
4.01639e-09
3.86801e-09
9.29357e-08
4.92576e-09
-6.63549e-07
-1.31002e-07
-3.09103e-06
-1.6478e-06
-1.48295e-06
-1.00444e-05
-3.44378e-06
-1.08212e-05
-4.20653e-06
-1.30074e-05
-2.55122e-06
-1.45417e-05
-4.52022e-07
-1.23894e-05
-3.13752e-10
-5.97881e-07
5.88965e-10
-5.77492e-09
1.76634e-09
-1.22811e-09
1.02359e-07
7.06869e-10
3.01433e-10
-3.19236e-10
2.13991e-10
-2.74519e-10
3.03274e-10
-1.38813e-10
1.59573e-10
-7.30819e-11
8.40705e-11
-4.64759e-11
4.2934e-11
-3.41848e-11
2.09493e-11
-2.68921e-11
9.70718e-12
-2.13707e-11
4.16004e-12
-1.65458e-11
1.61013e-12
-1.21881e-11
5.40238e-13
-8.39684e-12
1.54209e-13
-5.34075e-12
4.95181e-14
-3.10182e-12
2.80056e-14
-1.62056e-12
2.1292e-14
-7.11701e-13
1.54155e-14
-2.21169e-13
8.02733e-15
-2.93944e-14
3.33205e-15
2.36869e-16
7.10527e-15
3.48229e-15
-5.09183e-17
1.66252e-14
-2.8451e-16
5.88262e-14
1.49068e-15
1.16952e-13
3.3232e-14
8.09946e-14
7.37816e-14
-1.69283e-13
6.67467e-14
-2.06387e-13
6.01846e-15
-6.16462e-13
1.06367e-13
-3.66905e-12
1.67006e-12
-2.00517e-11
2.28658e-11
-3.57615e-11
1.22845e-10
-6.05981e-09
9.1173e-10
-9.22008e-09
2.93459e-10
-7.60512e-09
-1.24388e-09
-1.12794e-07
-2.32525e-08
-1.31352e-06
-2.16119e-07
-5.26973e-06
-2.01967e-06
-5.76554e-06
-1.00264e-05
-4.91405e-06
-1.40671e-05
-3.73376e-06
-1.56049e-05
-1.09675e-06
-1.48638e-05
-1.50451e-08
-1.61371e-06
-8.66185e-12
-1.95156e-08
-1.4687e-09
1.46126e-09
3.90169e-07
2.64065e-10
4.41306e-11
2.37845e-11
4.40158e-11
1.35846e-11
4.43237e-11
1.47288e-11
2.05393e-11
1.32213e-11
1.00267e-11
9.77379e-12
4.57977e-12
6.30477e-12
1.89765e-12
3.63516e-12
6.73698e-13
1.8646e-12
1.68247e-13
8.20525e-13
-5.00735e-15
2.75499e-13
-4.27048e-14
3.56468e-14
-3.6089e-14
-3.63385e-14
-2.10381e-14
-3.94951e-14
-9.03622e-15
-2.48772e-14
-3.02989e-15
-1.11387e-14
-6.00308e-16
-3.11238e-15
-3.78505e-17
-5.90225e-16
1.31001e-15
6.41673e-15
1.55958e-16
4.62765e-14
-3.45653e-15
1.82138e-13
-1.43876e-14
4.4282e-13
-3.19544e-14
7.36828e-13
-4.51389e-14
8.03808e-13
-5.68462e-14
2.90703e-13
-7.85751e-14
-9.41716e-13
-4.70371e-14
-1.05758e-12
2.22189e-13
-2.51304e-12
2.06744e-12
-9.99312e-13
1.07773e-11
-1.22128e-09
1.26946e-10
-2.98141e-09
-6.98518e-13
-2.02951e-09
-1.83703e-10
3.63724e-10
-2.54938e-10
-1.77106e-08
-4.07248e-09
-1.8857e-07
-4.27116e-08
-1.85296e-06
-2.71154e-07
-5.48486e-06
-4.51579e-06
-5.30496e-06
-1.42347e-05
-4.48589e-06
-1.62237e-05
-3.09906e-06
-1.59979e-05
-7.228e-08
-4.20815e-06
-2.02611e-08
-6.92393e-08
-5.10922e-08
2.28192e-08
8.90737e-07
3.96069e-11
5.44068e-12
1.12676e-11
8.58638e-12
8.68284e-12
6.36372e-12
6.23502e-12
2.6077e-12
4.3839e-12
1.15939e-12
2.86135e-12
4.6364e-13
1.72948e-12
1.54355e-13
9.73596e-13
3.20388e-14
5.10597e-13
-7.50015e-15
2.4795e-13
-1.45238e-14
1.09788e-13
-9.994e-15
4.33295e-14
-5.81916e-15
1.47442e-14
-2.97883e-15
4.09751e-15
-9.5002e-16
8.00923e-16
-2.07486e-16
3.64847e-17
1.16114e-16
-4.47301e-17
4.18969e-17
1.118e-15
1.47285e-16
1.08493e-14
-3.20003e-15
5.50797e-14
-1.56184e-14
2.06387e-13
-4.56682e-14
5.59163e-13
-1.09498e-13
1.13351e-12
-2.14435e-13
1.68084e-12
-3.68803e-13
1.5377e-12
-5.532e-13
-6.70536e-14
-5.83346e-13
-3.116e-12
3.08292e-14
-2.26085e-12
8.69215e-13
-7.11476e-11
6.20194e-12
-3.78519e-10
3.0087e-11
-2.43718e-10
-3.00653e-12
-1.72329e-10
-1.57229e-12
-2.64938e-10
-3.70406e-11
-3.16862e-09
-9.25197e-10
-3.25943e-08
-1.14527e-08
-1.98306e-07
-9.32421e-08
-3.81305e-06
-8.56632e-07
-5.46528e-06
-1.2867e-05
-5.34198e-06
-1.62114e-05
-4.20699e-06
-1.64706e-05
-1.84352e-07
-5.85706e-06
-8.71849e-08
-1.65534e-07
-1.50437e-07
7.39772e-08
-7.69468e-07
1.43163e-06
2.00672e-05
4.88415e-12
6.74206e-13
2.41919e-12
1.43232e-12
1.93687e-12
8.80963e-13
1.30304e-12
3.36539e-13
8.45862e-13
1.38016e-13
5.14733e-13
4.86065e-14
2.92535e-13
1.27711e-14
1.55767e-13
2.42176e-15
7.77031e-14
-8.85062e-16
3.61586e-14
-1.81613e-15
1.5473e-14
-2.2014e-16
5.9764e-15
-7.34384e-17
2.04791e-15
-1.50738e-16
5.97082e-16
1.07559e-16
1.87165e-16
6.98102e-17
4.1549e-17
1.45092e-16
1.42048e-17
6.92412e-17
-1.25138e-16
-1.50518e-15
2.91433e-15
-7.90357e-15
2.73604e-14
-2.67966e-14
1.21815e-13
-7.02545e-14
3.77268e-13
-1.65378e-13
8.83298e-13
-3.43854e-13
1.56027e-12
-6.39337e-13
1.92774e-12
-1.0296e-12
1.2009e-12
-1.28557e-12
-9.32521e-13
-8.57857e-13
-7.90916e-13
7.22739e-13
-2.60372e-11
2.03492e-12
-1.82526e-11
6.62378e-14
-1.97941e-11
3.39695e-13
-1.89343e-11
-8.11779e-14
-4.39229e-11
-4.31962e-12
-6.90182e-10
-1.81729e-10
-7.71762e-09
-2.64136e-09
-6.70353e-08
-2.94552e-08
-4.50478e-07
-2.39603e-07
-5.01422e-06
-4.13991e-06
-4.33365e-06
-1.67759e-05
-4.76468e-06
-1.63977e-05
-4.23642e-07
-6.91454e-06
-2.25723e-07
-3.66031e-07
-2.86806e-07
1.40735e-07
-1.08516e-06
2.09707e-06
3.05778e-05
6.03353e-13
8.49377e-14
4.18793e-13
2.21417e-13
3.32337e-13
1.18381e-13
2.16677e-13
4.60024e-14
1.34058e-13
2.02163e-14
7.76583e-14
8.1516e-15
4.21104e-14
2.61526e-15
2.13995e-14
2.13308e-15
1.01759e-14
1.06658e-15
4.5635e-15
-1.63115e-16
1.84734e-15
5.94925e-16
6.31728e-16
3.51603e-16
2.0612e-16
1.08491e-16
7.57181e-17
3.9649e-17
3.05674e-17
1.04201e-16
6.46779e-18
1.35473e-17
-3.09203e-16
-7.31147e-16
-1.18387e-15
-3.52242e-15
-2.47017e-15
-1.18775e-14
-9.73683e-16
-3.22507e-14
3.59929e-14
-7.74107e-14
1.70937e-13
-1.77668e-13
5.00293e-13
-3.78239e-13
1.07048e-12
-7.42154e-13
1.65971e-12
-1.28864e-12
1.66891e-12
-1.82668e-12
6.51233e-13
-1.80573e-12
-8.6001e-13
-7.15448e-13
-1.30648e-12
9.52349e-13
-1.68421e-12
3.15367e-13
-1.23618e-12
6.2574e-14
-1.14892e-12
9.44701e-14
2.24645e-13
-1.84897e-13
-1.34903e-10
-3.85387e-11
-1.98295e-09
-7.60013e-10
-2.05351e-08
-1.05505e-08
-1.51328e-07
-1.06098e-07
-3.52552e-06
-9.42512e-07
-5.45139e-06
-1.45626e-05
-4.50424e-06
-1.65459e-05
-9.24114e-07
-9.13387e-06
-4.49572e-07
-8.35178e-07
-5.74254e-07
1.78032e-07
-2.40488e-06
2.90042e-06
3.83913e-05
7.47269e-14
1.02252e-14
6.45793e-14
3.67249e-14
5.0071e-14
1.92342e-14
3.2036e-14
8.20658e-15
1.92244e-14
5.10124e-15
1.07593e-14
2.61742e-15
5.68513e-15
4.15497e-16
2.77399e-15
1.19184e-15
1.2185e-15
8.09087e-16
6.06717e-16
4.08276e-16
3.33245e-16
2.15011e-16
9.78699e-17
8.11592e-17
2.01917e-17
1.26069e-16
2.19789e-17
3.48331e-17
-3.29609e-17
-5.21492e-17
-1.97581e-16
-3.2109e-16
-7.53604e-16
-1.30735e-15
-2.23768e-15
-4.38613e-15
-5.21533e-15
-1.26872e-14
-8.78624e-15
-3.19461e-14
-7.41614e-15
-7.212e-14
3.06192e-14
-1.55549e-13
1.87689e-13
-3.33215e-13
5.38685e-13
-6.7982e-13
1.05799e-12
-1.26456e-12
1.41961e-12
-2.00242e-12
1.15768e-12
-2.42459e-12
3.31812e-13
-1.89095e-12
-1.93455e-13
-5.25992e-13
-1.31412e-13
2.53258e-13
-9.26539e-14
4.03779e-14
-7.31467e-14
5.39308e-14
2.24407e-13
5.28391e-14
-2.86828e-11
-7.98487e-12
-5.42554e-10
-2.29781e-10
-6.93095e-09
-4.03522e-09
-6.08774e-08
-4.99689e-08
-4.64559e-07
-4.12169e-07
-5.4304e-06
-7.43677e-06
-5.96221e-06
-1.52759e-05
-2.46543e-06
-1.20032e-05
-6.89149e-07
-2.53697e-06
-9.42339e-07
1.20683e-07
-4.23968e-06
3.7889e-06
4.42156e-05
8.95444e-15
1.27083e-15
9.39276e-15
7.66415e-15
7.0103e-15
4.19799e-15
4.4477e-15
1.29938e-15
2.59943e-15
1.63716e-15
1.3822e-15
1.19073e-15
8.19233e-16
7.04385e-16
5.20026e-16
4.37711e-16
2.49169e-16
2.34803e-16
1.08603e-16
1.01012e-16
3.40909e-17
2.16723e-17
2.98105e-17
4.50201e-17
-3.46354e-18
-4.98567e-18
-5.22129e-17
-7.28759e-17
-1.2904e-16
-1.78078e-16
-3.29149e-16
-4.59734e-16
-9.38182e-16
-1.36579e-15
-2.53292e-15
-3.99648e-15
-5.95568e-15
-1.07657e-14
-1.16419e-14
-2.62592e-14
-1.79383e-14
-5.86299e-14
-1.83571e-14
-1.23545e-13
7.1236e-15
-2.5359e-13
1.53796e-13
-5.25059e-13
4.55533e-13
-1.03311e-12
8.22566e-13
-1.80185e-12
9.56266e-13
-2.54667e-12
6.62835e-13
-2.61538e-12
2.12045e-13
-1.68369e-12
-3.21048e-14
-4.95802e-13
-1.23332e-14
2.06063e-14
-7.88227e-16
4.23858e-14
2.29457e-14
6.46707e-14
-6.47922e-12
-1.50859e-12
-1.67663e-10
-6.96411e-11
-2.59997e-09
-1.60345e-09
-2.76835e-08
-2.48783e-08
-1.54276e-07
-2.86208e-07
-4.9981e-06
-3.34372e-06
-5.15143e-06
-1.45476e-05
-4.58435e-06
-1.21503e-05
-1.2713e-06
-3.5983e-06
-1.66257e-06
-2.85965e-08
-6.24884e-06
4.3536e-06
4.40667e-05
1.02439e-15
2.69856e-16
1.31542e-15
1.80417e-15
9.10447e-16
1.37717e-15
6.32641e-16
8.51622e-16
4.58926e-16
5.45768e-16
2.76526e-16
3.26432e-16
1.65237e-16
1.85461e-16
9.06016e-17
7.77913e-17
3.76538e-17
2.82208e-17
9.20571e-18
6.96217e-18
9.68616e-18
1.43784e-17
-1.84502e-17
-2.56618e-17
-5.32792e-17
-7.04955e-17
-9.24904e-17
-1.18303e-16
-1.56595e-16
-1.97101e-16
-3.26734e-16
-4.13019e-16
-8.30019e-16
-1.07966e-15
-2.1438e-15
-2.95713e-15
-5.06738e-15
-7.70522e-15
-1.0535e-14
-1.85999e-14
-1.89089e-14
-4.17031e-14
-2.87038e-14
-8.83699e-14
-3.44907e-14
-1.80758e-13
-2.34958e-14
-3.65351e-13
5.22936e-14
-7.26477e-13
2.40342e-13
-1.36982e-12
4.28242e-13
-2.2041e-12
4.50725e-13
-2.75131e-12
2.91205e-13
-2.43793e-12
1.11047e-13
-1.3937e-12
1.28386e-14
-4.42263e-13
-4.88116e-14
-3.38849e-14
-2.86909e-14
4.455e-14
-1.39572e-12
-1.57151e-13
-5.70022e-11
-1.42209e-11
-1.21538e-09
-4.45427e-10
-1.76012e-08
-8.46274e-09
-1.83977e-07
-1.20133e-07
-2.85659e-06
-8.88362e-07
-5.99647e-06
-1.19839e-05
-5.35117e-06
-1.23165e-05
-1.66595e-06
-4.62107e-06
-2.19625e-06
-2.29639e-07
-5.70683e-06
3.99101e-06
4.09363e-05
1.24636e-16
4.68329e-16
2.15322e-16
5.13319e-16
1.66687e-16
3.40998e-16
1.17879e-16
2.01408e-16
7.81885e-17
9.49504e-17
4.63911e-17
4.56286e-17
2.4828e-17
2.0382e-17
1.08982e-17
7.6791e-18
3.43766e-18
2.17752e-18
2.84517e-18
4.30445e-18
-1.19887e-17
-1.67393e-17
-3.31516e-17
-4.33579e-17
-5.65315e-17
-7.02879e-17
-8.21566e-17
-9.86135e-17
-1.25369e-16
-1.47696e-16
-2.41896e-16
-2.84878e-16
-5.83223e-16
-7.01123e-16
-1.48068e-15
-1.86194e-15
-3.54311e-15
-4.79886e-15
-7.68992e-15
-1.16253e-14
-1.49806e-14
-2.64147e-14
-2.61967e-14
-5.69049e-14
-4.1188e-14
-1.18053e-13