/*--------------------------------*- C++ -*----------------------------------*\
| =========                 |                                                 |
| \\      /  F ield         | OpenFOAM: The Open Source CFD Toolbox           |
|  \\    /   O peration     | Version:  5.0                                   |
|   \\  /    A nd           | Web:      www.OpenFOAM.org                      |
|    \\/     M anipulation  |                                                 |
\*---------------------------------------------------------------------------*/
FoamFile
{
    version     2.0;
    format      ascii;
    class       volScalarField;
    location    "0.95";
    object      epsilon;
}
// * * * * * * * * * * * * * * * * * * * * * * * * * * * * * * * * * * * * * //

dimensions      [0 2 -3 0 0 0 0];

internalField   nonuniform List<scalar> 
1935
(
0.0108834
0.0335973
0.0589841
0.085223
0.110863
0.135307
0.158639
0.181169
0.20319
0.224886
0.246337
0.267556
0.288531
0.309254
0.329751
0.350089
0.370388
0.390822
0.411612
0.433025
0.455374
0.479036
0.504522
0.532692
0.563587
0.596424
0.631285
0.66848
0.708307
0.750896
0.796052
0.843118
0.890933
0.938046
0.984226
1.02391
1.04622
1.04628
1.01937
0.959135
0.862016
0.729947
0.56443
0.376927
0.0270189
0.0317134
0.0452442
0.0587005
0.0713238
0.0830148
0.0938449
0.10393
0.11338
0.122282
0.130699
0.138681
0.146272
0.15352
0.160485
0.167238
0.173869
0.180485
0.18721
0.194185
0.201573
0.209554
0.21834
0.228329
0.239731
0.252396
0.26637
0.281763
0.29868
0.317177
0.337209
0.358577
0.380879
0.403413
0.425186
0.444455
0.458513
0.464697
0.460309
0.442684
0.409827
0.361069
0.297558
0.22352
0.0451364
0.0354566
0.0452192
0.0558819
0.0657833
0.0747188
0.0827609
0.0900431
0.0966951
0.102824
0.108515
0.113834
0.11884
0.123591
0.128148
0.132581
0.136971
0.141414
0.146024
0.150931
0.15629
0.162277
0.169107
0.177047
0.186254
0.196857
0.209017
0.222911
0.238713
0.256553
0.276476
0.298383
0.32196
0.346598
0.371323
0.394735
0.414892
0.429436
0.43577
0.431222
0.413266
0.380087
0.331821
0.272
0.0630407
0.0402782
0.0475669
0.0568514
0.065532
0.0732291
0.080008
0.0860278
0.0914429
0.0963788
0.100932
0.105177
0.109179
0.112998
0.1167
0.120357
0.124054
0.127895
0.132002
0.136519
0.14162
0.147508
0.154426
0.162625
0.172349
0.183857
0.197435
0.213387
0.232012
0.25356
0.278172
0.305806
0.33615
0.368556
0.401986
0.434973
0.465534
0.491215
0.509258
0.516643
0.509973
0.485803
0.442472
0.382913
0.0810425
0.0457276
0.0508944
0.0591461
0.0670085
0.0739192
0.0799193
0.0851822
0.0898797
0.0941486
0.0980916
0.101787
0.105302
0.108699
0.112048
0.115428
0.118937
0.122691
0.126834
0.131539
0.137016
0.143515
0.151334
0.160787
0.172235
0.186086
0.202801
0.222873
0.246799
0.275008
0.307761
0.345041
0.386453
0.431182
0.477984
0.525145
0.570407
0.611083
0.644322
0.666966
0.674829
0.662167
0.62421
0.561976
0.0995615
0.0516547
0.0547869
0.0621056
0.0692902
0.0756009
0.0810426
0.0857897
0.0900219
0.0938814
0.0974722
0.100873
0.10415
0.10737
0.110608
0.113955
0.117523
0.121453
0.125919
0.131136
0.13737
0.144945
0.154241
0.165698
0.179846
0.197311
0.218812
0.245142
0.277105
0.315389
0.360393
0.412036
0.469647
0.531999
0.597427
0.663809
0.728454
0.788416
0.841091
0.883937
0.912752
0.919111
0.893747
0.83403
0.11891
0.0579711
0.0590411
0.0654524
0.0720215
0.0778332
0.0828461
0.0872248
0.0911482
0.0947576
0.0981546
0.101415
0.104606
0.107796
0.111068
0.114528
0.118312
0.122589
0.127578
0.133552
0.140853
0.14991
0.161232
0.17545
0.193348
0.215879
0.24417
0.279484
0.323104
0.376093
0.438962
0.511331
0.591821
0.678319
0.768427
0.859484
0.948255
1.03156
1.10766
1.17606
1.23449
1.27222
1.27485
1.23593
0.13923
0.0645892
0.0635093
0.0690152
0.0750119
0.0804
0.0850822
0.0892035
0.0929351
0.0964119
0.09973
0.102961
0.10617
0.109431
0.112838
0.116515
0.120627
0.125384
0.131061
0.138007
0.146671
0.157626
0.171571
0.189418
0.21233
0.241762
0.279483
0.327504
0.387859
0.462142
0.550848
0.652761
0.76491
0.883447
1.00485
1.126
1.24312
1.35289
1.45529
1.55401
1.65218
1.73829
1.79407
1.8154
0.160406
0.0713752
0.0680475
0.0726552
0.07813
0.0831703
0.0876124
0.0915752
0.0952159
0.0986592
0.101992
0.105282
0.108591
0.112
0.115616
0.119589
0.124117
0.129465
0.135977
0.144106
0.15444
0.167746
0.185001
0.207519
0.237028
0.275759
0.326484
0.392406
0.476739
0.58181
0.707759
0.851435
1.00661
1.16627
1.32543
1.48109
1.62943
1.7672
1.89712
2.02959
2.17832
2.33344
2.47608
2.62234
0.181884
0.0781142
0.0724977
0.0762458
0.0812718
0.0860521
0.0903488
0.09425
0.0978956
0.101396
0.104829
0.108251
0.111728
0.115346
0.119229
0.123558
0.128575
0.134609
0.142096
0.151618
0.16395
0.180111
0.201475
0.229929
0.268038
0.319207
0.387775
0.478831
0.59743
0.746868
0.926217
1.12836
1.34089
1.55129
1.753
1.94483
2.12458
2.29009
2.44755
2.61627
2.82631
3.07092
3.33757
3.6802
0.202728
0.0845594
0.0767265
0.0797009
0.0843786
0.0890009
0.0932533
0.097193
0.10094
0.104588
0.108199
0.111825
0.115529
0.119407
0.123606
0.12834
0.133908
0.140715
0.149314
0.160452
0.175144
0.194752
0.221193
0.257169
0.306467
0.374263
0.467318
0.593669
0.7612
0.97445
1.23012
1.5137
1.80167
2.07214
2.31707
2.54114
2.74882
2.94022
3.12521
3.33576
3.61822
3.97769
4.39996
4.92969
0.220777
0.0902624
0.0805291
0.0828961
0.0873615
0.0919454
0.0962665
0.100355
0.10431
0.108202
0.112077
0.115977
0.119965
0.12415
0.128704
0.133882
0.140048
0.147706
0.157549
0.170533
0.187981
0.211715
0.244383
0.289834
0.353616
0.443539
0.570035
0.745661
0.982544
1.28677
1.65064
2.04717
2.43371
2.77185
3.05228
3.29442
3.51692
3.72153
3.93521
4.21124
4.60313
5.11569
5.73346
6.52756
0.233849
0.0947897
0.0836937
0.0856875
0.0900999
0.0947728
0.0992827
0.103641
0.107919
0.112162
0.116392
0.120639
0.124967
0.129499
0.134435
0.140081
0.146873
0.15543
0.166619
0.181652
0.202239
0.230798
0.270939
0.32806
0.410166
0.528823
0.699803
0.942233
1.27426
1.70387
2.21689
2.768
3.283
3.69202
3.98531
4.21055
4.38886
4.5571
4.83481
5.27292
5.87396
6.58457
7.41374
8.64439
0.241803
0.0981473
0.0862892
0.0881765
0.0926902
0.0975527
0.102343
0.107067
0.111767
0.116452
0.121115
0.12577
0.130482
0.135389
0.140722
0.146836
0.154254
0.163726
0.176323
0.193568
0.217641
0.251706
0.300603
0.371743
0.476401
0.631256
0.859418
1.18894
1.64584
2.24057
2.95233
3.71519
4.40336
4.87677
5.12656
5.22224
5.22407
5.37024
5.8168
6.59844
7.60523
8.5443
9.46773
11.3123
0.248597
0.100946
0.088733
0.0907163
0.0954005
0.100449
0.105532
0.110667
0.115851
0.121042
0.126196
0.131306
0.136434
0.141731
0.147456
0.154017
0.162026
0.17238
0.186389
0.205941
0.233767
0.273927
0.332762
0.420182
0.551576
0.750145
1.04837
1.48533
2.09607
2.89402
3.85761
4.91551
5.85587
6.30937
6.28192
6.06596
5.88501
6.14286
6.87667
8.21975
10.0417
10.4392
10.8547
12.8399
0.26187
0.104037
0.0913744
0.0935979
0.0984804
0.103525
0.108786
0.1143
0.119994
0.125745
0.13145
0.13707
0.142655
0.14836
0.154466
0.16143
0.169956
0.181104
0.196447
0.218297
0.249987
0.296596
0.366218
0.471682
0.633199
0.881616
1.26029
1.82037
2.6048
3.62723
4.87799
6.34286
7.12689
6.94622
6.88046
6.35446
6.30429
6.78269
7.83889
9.80349
10.9663
10.8511
11.6352
14.5429
0.288404
0.108166
0.0917396
0.0927794
0.0972513
0.102505
0.108406
0.114813
0.121509
0.128266
0.13491
0.14136
0.147656
0.153975
0.16065
0.168184
0.177324
0.18926
0.205846
0.229834
0.265238
0.318264
0.39885
0.52302
0.716071
1.01651
1.47734
2.15604
3.08516
4.22249
5.37353
6.18829
6.61949
6.60256
6.31797
6.176
6.43102
7.11475
8.1371
9.49626
10.7927
11.4844
12.5747
15.8744
0.267878
0.105578
0.0893531
0.0888517
0.092886
0.0985026
0.105078
0.112273
0.119782
0.127337
0.134739
0.141898
0.148863
0.155829
0.163181
0.171476
0.181518
0.194594
0.212785
0.239162
0.27832
0.337556
0.428458
0.569565
0.789104
1.12702
1.63135
2.33852
3.23205
4.19642
5.02532
5.62411
6.03848
5.9573
5.82355
5.8817
6.28238
7.00764
7.94139
9.17051
10.8164
12.2461
13.6099
15.7521
0.239991
0.104163
0.0869635
0.0857281
0.089133
0.0944739
0.100928
0.108096
0.115673
0.123398
0.131078
0.138623
0.146069
0.153592
0.161549
0.170531
0.181459
0.195781
0.215736
0.244623
0.287389
0.351943
0.450931
0.603781
0.838015
1.1876
1.68408
2.33472
3.09245
3.84378
4.46968
4.96746
5.36054
5.47913
5.49983
5.64518
6.07931
6.81608
7.82479
9.19251
11.0761
13.0487
14.8043
14.9442
0.219017
0.103351
0.0846402
0.0829437
0.0858053
0.0905673
0.096426
0.103029
0.11013
0.11752
0.125043
0.132626
0.140308
0.148229
0.156726
0.166387
0.178182
0.193627
0.215059
0.245915
0.291348
0.359478
0.462974
0.620397
0.855766
1.19401
1.65031
2.21388
2.83244
3.42012
3.91419
4.33609
4.71952
5.00661
5.22805
5.53575
5.9782
6.72516
7.82784
9.37115
11.479
14.0968
15.6823
14.1652
0.206235
0.101262
0.0832192
0.0810723
0.0832782
0.0872807
0.0923125
0.0980746
0.104386
0.111103
0.118124
0.125405
0.132992
0.141035
0.149847
0.159997
0.172462
0.188708
0.211081
0.243024
0.289661
0.358861
0.462468
0.616879
0.841481
1.1531
1.55622
2.03213
2.53462
3.00613
3.41901
3.80221
4.19163
4.565
4.94189
5.4374
5.96414
6.71473
7.90894
9.65057
12.1038
15.3898
16.5721
13.8024
10.9176
0.199681
0.10023
0.0831506
0.0803961
0.0818028
0.0849441
0.0890622
0.0938824
0.0992696
0.105136
0.11143
0.118148
0.125357
0.133221
0.142046
0.152372
0.165097
0.181647
0.204288
0.236298
0.282521
0.350178
0.449719
0.594835
0.800477
1.07753
1.42483
1.82261
2.23441
2.62475
2.98797
3.35821
3.7728
4.22373
4.70902
5.28488
5.94404
6.74665
8.01228
9.92062
12.679
16.426
17.5614
13.886
10.6206
0.196877
0.100632
0.0841354
0.080731
0.0813145
0.0835925
0.0868122
0.0907029
0.0951544
0.100117
0.105579
0.111571
0.118189
0.125609
0.134142
0.1443
0.156914
0.173296
0.195465
0.226432
0.270785
0.334673
0.426953
0.558587
0.740779
0.980518
1.27454
1.60568
1.94736
2.27978
2.61056
2.97743
3.41969
3.94113
4.53184
5.18942
5.9161
6.78395
8.09086
10.0999
13.0656
17.1694
18.4931
14.2903
10.645
0.19595
0.101807
0.0856269
0.0816876
0.0815513
0.0830552
0.0854643
0.088509
0.0920912
0.0961837
0.100802
0.106005
0.111907
0.118701
0.126697
0.136382
0.148521
0.164292
0.185472
0.214685
0.255775
0.314248
0.397299
0.513357
0.670669
0.873862
1.11957
1.39464
1.68114
1.96997
2.27625
2.63988
3.10367
3.68459
4.37151
5.12974
5.91591
6.81594
8.1224
10.1444
13.1419
17.2912
19.1779
14.8685
10.9159
0.195821
0.103199
0.0872055
0.0828832
0.082185
0.0830565
0.0847882
0.0871139
0.089941
0.093255
0.0970879
0.101515
0.106664
0.112735
0.120034
0.129022
0.140395
0.155197
0.174964
0.201922
0.239241
0.291318
0.363961
0.46408
0.597244
0.766814
0.970148
1.19822
1.44003
1.69357
1.97775
2.33325
2.8064
3.42758
4.18992
5.05214
5.93278
6.84877
8.10964
10.07
12.9532
16.75
19.4088
15.6242
11.386
0.19607
0.104509
0.0886262
0.0840396
0.0829303
0.08332
0.0845218
0.0862728
0.0884824
0.0911409
0.0942883
0.0980075
0.102432
0.107763
0.114293
0.122454
0.132872
0.14646
0.164529
0.188933
0.222244
0.267927
0.330405
0.414778
0.525784
0.665797
0.832878
1.02163
1.22629
1.4493
1.71099
2.05154
2.52041
3.15863
3.96978
4.92049
5.92266
6.88047
8.06131
9.904
12.6404
16.2528
19.2343
16.3412
11.9912
0.196614
0.105636
0.0897898
0.0850063
0.0835988
0.0836349
0.0844416
0.0857569
0.0874875
0.0896235
0.0922056
0.0953177
0.0990918
0.103722
0.109484
0.116773
0.126149
0.1384
0.154632
0.176369
0.205673
0.245245
0.298432
0.368995
0.460417
0.574715
0.711275
0.86732
1.04068
1.23617
1.47404
1.79262
2.24321
2.87664
3.71002
4.72047
5.81827
6.8811
7.98535
9.6428
12.1625
15.5935
18.9083
17.0396
12.7111
0.197475
0.106591
0.0906869
0.0857291
0.0840938
0.0838703
0.0843902
0.0853876
0.0867638
0.0885034
0.0906427
0.0932611
0.0964832
0.10049
0.105537
0.11198
0.120311
0.131206
0.14559
0.164704
0.190188
0.224131
0.269064
0.327773
0.402859
0.496031
0.607484
0.736299
0.88274
1.05311
1.26606
1.55646
1.97563
2.58374
3.41468
4.45764
5.63301
6.79654
7.85048
9.29359
11.5204
14.6172
17.9679
17.4652
13.5226
0.198682
0.107423
0.0913492
0.0862092
0.0843827
0.0839613
0.0842729
0.0850446
0.0861686
0.0876212
0.0894306
0.0916671
0.0944439
0.0979258
0.102343
0.108011
0.115358
0.124959
0.137583
0.154235
0.176211
0.205126
0.242894
0.291599
0.353218
0.42922
0.520286
0.626734
0.750321
0.897895
1.08624
1.34616
1.72428
2.28178
3.08003
4.11171
5.31659
6.56735
7.66191
8.91615
10.8137
13.5095
16.6002
17.5364
14.4697
0.200242
0.108172
0.0918189
0.0864729
0.0844695
0.0838869
0.0840435
0.0846561
0.0856068
0.0868613
0.0884371
0.0903929
0.0928278
0.0958877
0.0997757
0.104768
0.111233
0.119658
0.130675
0.145099
0.163954
0.188487
0.220154
0.260532
0.311154
0.3733
0.447919
0.536049
0.640225
0.767196
0.931702
1.1603
1.49419
1.9902
2.7184
3.70252
4.88897
6.17076
7.39727
8.53461
10.084
12.3807
15.2266
17.2768
15.5377
0.202126
0.108865
0.0921331
0.0865522
0.0843739
0.0836503
0.083686
0.084186
0.0850212
0.0861459
0.0875661
0.0893273
0.0915133
0.0942497
0.0977127
0.10214
0.107847
0.115241
0.124844
0.137314
0.153459
0.174251
0.200804
0.234328
0.276034
0.327046
0.388423
0.461557
0.549256
0.657768
0.799708
0.997433
1.28623
1.71642
2.35233
3.25917
4.39861
5.68177
6.96989
8.05025
9.31204
11.1994
13.7081
16.2117
16.2729
0.204272
0.109506
0.0923166
0.086475
0.0841187
0.0832652
0.0832016
0.0836204
0.084381
0.0854267
0.0867515
0.088388
0.0904039
0.0929052
0.0960416
0.100016
0.105093
0.111614
0.120008
0.130807
0.144652
0.162303
0.184624
0.212555
0.247071
0.289152
0.339868
0.400717
0.474458
0.566618
0.687731
0.856175
1.10127
1.46593
2.00744
2.79403
3.84286
5.06466
6.33749
7.48606
8.56689
10.0257
12.0862
14.4566
16.0391
0.20659
0.110085
0.0923822
0.0862615
0.0837245
0.0827479
0.0825992
0.0829578
0.0836724
0.0846755
0.0859501
0.0875161
0.0894263
0.0917676
0.0946652
0.0982891
0.102862
0.108666
0.116054
0.125455
0.137384
0.152437
0.171291
0.19469
0.223427
0.258353
0.300478
0.351257
0.413218
0.491077
0.593433
0.735041
0.939536
1.24213
1.69103
2.34492
3.26187
4.39248
5.6267
6.81938
7.79362
8.90598
10.5144
12.5594
14.6151
0.208975
0.110583
0.0923348
0.0859255
0.0832081
0.0821142
0.0818905
0.0822036
0.0828917
0.0838779
0.085135
0.0866714
0.0885261
0.0907687
0.0935022
0.0968675
0.101049
0.106281
0.112851
0.121109
0.131466
0.144397
0.160439
0.180187
0.20429
0.233484
0.268682
0.311211
0.363281
0.428805
0.514654
0.632413
0.800608
1.04712
1.41081
1.94037
2.68729
3.6827
4.81825
5.96753
6.99118
7.93239
9.10778
10.6978
12.5568
0.211315
0.110979
0.0921749
0.085477
0.0825832
0.0813783
0.0810879
0.0813659
0.082041
0.0830278
0.0842902
0.0858267
0.0876639
0.0898562
0.0924868
0.0956712
0.0995614
0.104349
0.110271
0.11761
0.126698
0.137917
0.151696
0.168517
0.188915
0.213519
0.243132
0.278912
0.322731
0.377758
0.449385
0.546522
0.683325
0.881167
1.17022
1.5891
2.18037
2.98007
3.97983
5.05309
6.0897
7.02126
7.92346
9.05315
10.4971
0.213508
0.111253
0.0919026
0.0849246
0.0818621
0.0805536
0.0802036
0.0804541
0.0811253
0.0821243
0.0834076
0.0849647
0.0868121
0.0889907
0.0915668
0.0946341
0.0983166
0.102771
0.108191
0.114807
0.122887
0.132739
0.144713
0.159198
0.176642
0.197575
0.222686
0.252962
0.289945
0.336159
0.395762
0.47549
0.585921
0.742991
0.969345
1.29451
1.75224
2.37338
3.17373
4.12838
5.11727
6.04883
6.8868
7.7252
8.73315
0.215467
0.111387
0.0915193
0.0842768
0.0810565
0.0796525
0.0792494
0.0794782
0.0801515
0.0811699
0.0824835
0.084075
0.0859516
0.0881433
0.0907018
0.0937026
0.0972461
0.10146
0.106502
0.11256
0.119851
0.128627
0.139172
0.151806
0.166901
0.184903
0.206395
0.232197
0.263561
0.302463
0.352071
0.4174
0.506214
0.63012
0.805646
1.05467
1.40311
1.87684
2.49453
3.25925
4.14593
5.04551
5.8732
6.62116
7.37435
0.217127
0.111371
0.0910282
0.0835428
0.0801779
0.0786869
0.0782367
0.078448
0.0791268
0.0801686
0.081518
0.0831516
0.0850698
0.087293
0.0898612
0.0928342
0.0962933
0.100342
0.105109
0.110746
0.117432
0.125371
0.134796
0.145973
0.159209
0.17488
0.193469
0.215653
0.242431
0.275335
0.316753
0.370378
0.441824
0.53939
0.674863
0.863992
1.12603
1.48163
1.94882
2.5378
3.24476
4.04556
4.84959
5.58503
6.26967
0.218441
0.1112
0.0904351
0.0827323
0.0792373
0.0776682
0.077176
0.0773729
0.0780591
0.0791255
0.0805127
0.0821925
0.0841591
0.0864257
0.0890224
0.0919966
0.0954134
0.099357
0.103931
0.109261
0.115491
0.12279
0.131349
0.141388
0.153163
0.166987
0.183261
0.202534
0.225598
0.253632
0.288422
0.332665
0.390377
0.467412
0.572014
0.715242
0.910904
1.17458
1.52144
1.96301
2.50281
3.13025
3.81118
4.48885
5.10807
0.219386
0.110875
0.0897475
0.0818549
0.0782452
0.0766068
0.0760774
0.0762619
0.0769559
0.0780466
0.0794711
0.0811975
0.0832155
0.0855321
0.0881696
0.0911652
0.0945713
0.0984559
0.102904
0.108016
0.113913
0.120731
0.128629
0.13779
0.148427
0.160799
0.175237
0.192184
0.212264
0.23638
0.265863
0.302671
0.349658
0.410911
0.492117
0.600877
0.746785
0.940998
1.19509
1.51905
1.91836
2.38989
2.91707
3.47017
4.02441
0.219952
0.110401
0.0889744
0.0809206
0.0772116
0.0755124
0.0749499
0.0751234
0.0758246
0.0769377
0.0783974
0.0801687
0.0822377
0.0846067
0.0872919
0.0903225
0.0937405
0.0976012
0.101974
0.106941
0.112601
0.119067
0.126471
0.134964
0.144724
0.155966
0.16896
0.184064
0.201768
0.222761
0.248034
0.279005
0.317696
0.366943
0.430632
0.513909
0.623267
0.766374
0.951453
1.18611
1.47551
1.81987
2.2121
2.63823
3.08428
0.220141
0.109789
0.0881258
0.079939
0.0761456
0.0743936
0.0738019
0.0739651
0.0746721
0.075805
0.0772964
0.079109
0.0812265
0.0836474
0.0863831
0.0894565
0.0929017
0.0967639
0.1011
0.105977
0.111478
0.117696
0.124739
0.132734
0.141828
0.152201
0.164073
0.177732
0.193561
0.21209
0.234053
0.26048
0.292803
0.332986
0.383673
0.448312
0.531226
0.637525
0.772778
0.942326
1.15021
1.39773
1.68222
1.99703
2.33405
0.219964
0.109053
0.0872124
0.0789194
0.0750558
0.0732585
0.0726409
0.0727941
0.0735052
0.0746545
0.0761731
0.0780225
0.0801841
0.0826539
0.0854397
0.0885597
0.0920417
0.095923
0.100251
0.105081
0.110482
0.116532
0.123321
0.130954
0.139555
0.149271
0.160284
0.172824
0.187194
0.203799
0.223186
0.246105
0.273572
0.306953
0.348044
0.399153
0.463128
0.543317
0.643379
0.766882
0.916689
1.09415
1.29837
1.52606
1.7722
0.219432
0.108206
0.0862454
0.0778708
0.07395
0.0721143
0.0714736
0.0716171
0.0723301
0.073492
0.0750332
0.0769139
0.0791142
0.0816283
0.0844614
0.0876282
0.0911517
0.0950635
0.0994029
0.104218
)
;

boundaryField
{
    leftWall
    {
        Cmu             0.09;
        kappa           0.41;
        E               9.8;
        type            epsilonWallFunction;
        value           nonuniform List<scalar> 
44
(
0.0108834
0.0270189
0.0451364
0.0630407
0.0810425
0.0995615
0.11891
0.13923
0.160406
0.181884
0.202728
0.220777
0.233849
0.241803
0.248597
0.26187
0.288404
0.267878
0.239991
0.219017
0.206235
0.199681
0.196877
0.19595
0.195821
0.19607
0.196614
0.197475
0.198682
0.200242
0.202126
0.204272
0.20659
0.208975
0.211315
0.213508
0.215467
0.217127
0.218441
0.219386
0.219952
0.220141
0.219964
0.219432
)
;
    }
    rightWall
    {
        Cmu             0.09;
        kappa           0.41;
        E               9.8;
        type            epsilonWallFunction;
        value           nonuniform 0();
    }
    lowerWall
    {
        Cmu             0.09;
        kappa           0.41;
        E               9.8;
        type            epsilonWallFunction;
        value           nonuniform List<scalar> 
44
(
0.0108834
0.0335973
0.0589841
0.085223
0.110863
0.135307
0.158639
0.181169
0.20319
0.224886
0.246337
0.267556
0.288531
0.309254
0.329751
0.350089
0.370388
0.390822
0.411612
0.433025
0.455374
0.479036
0.504522
0.532692
0.563587
0.596424
0.631285
0.66848
0.708307
0.750896
0.796052
0.843118
0.890933
0.938046
0.984226
1.02391
1.04622
1.04628
1.01937
0.959135
0.862016
0.729947
0.56443
0.376927
)
;
    }
    atmosphere
    {
        type            inletOutlet;
        inletValue      nonuniform 0();
        value           nonuniform 0();
    }
    defaultFaces
    {
        type            empty;
    }
    procBoundary0to1
    {
        type            processor;
        value           nonuniform List<scalar> 
44
(
0.175309
0.146197
0.210827
0.321635
0.494386
0.76236
1.18198
1.85287
2.91747
4.54115
5.76512
7.45797
10.0821
13.29
16.4102
19.0833
17.1604
14.6782
12.8405
11.6235
11.6235
8.50732
8.16322
8.06482
8.17764
8.47632
8.93893
9.55439
10.3212
11.2546
12.3554
13.5883
14.7783
15.2409
14.1335
12.0742
9.95327
8.21561
6.9231
5.6853
4.57582
3.54249
2.68525
2.03049
)
;
    }
    procBoundary0to2
    {
        type            processor;
        value           nonuniform List<scalar> 
46
(
0.109565
0.115509
0.122127
0.129508
0.137753
0.146985
0.157354
0.169045
0.182296
0.197418
0.214824
0.23506
0.258854
0.287159
0.321203
0.362533
0.41303
0.474876
0.550441
0.642056
0.751651
0.8803
1.02779
1.19242
1.37111
0.218568
0.10727
0.0852367
0.0768017
0.0728354
0.0709676
0.0703065
0.0704401
0.0711528
0.0723236
0.0738822
0.0757882
0.0780211
0.0805737
0.0834496
0.0866608
0.0902271
0.0941755
0.0985399
0.109565
0.103361
)
;
    }
}


// ************************************************************************* //
