/*--------------------------------*- C++ -*----------------------------------*\
| =========                 |                                                 |
| \\      /  F ield         | OpenFOAM: The Open Source CFD Toolbox           |
|  \\    /   O peration     | Version:  5.0                                   |
|   \\  /    A nd           | Web:      www.OpenFOAM.org                      |
|    \\/     M anipulation  |                                                 |
\*---------------------------------------------------------------------------*/
FoamFile
{
    version     2.0;
    format      ascii;
    class       volScalarField;
    location    "0.95";
    object      k;
}
// * * * * * * * * * * * * * * * * * * * * * * * * * * * * * * * * * * * * * //

dimensions      [0 2 -2 0 0 0 0];

internalField   nonuniform List<scalar> 
1935
(
0.00175324
0.00342356
0.00499004
0.0063813
0.00760629
0.00868806
0.00966104
0.0105562
0.011396
0.0121942
0.0129586
0.0136937
0.014402
0.015086
0.0157488
0.0163945
0.0170283
0.0176565
0.0182863
0.0189258
0.0195836
0.0202699
0.0209982
0.0217913
0.0226386
0.0235207
0.0244403
0.0254043
0.0264184
0.0274833
0.0285914
0.0297247
0.0308542
0.0319483
0.0330046
0.033884
0.0343667
0.0343601
0.0337586
0.0324043
0.0301664
0.0269951
0.0227328
0.0173518
0.00357372
0.00797586
0.0113449
0.0142868
0.0168256
0.0190219
0.0209529
0.0226891
0.024285
0.0257786
0.0271951
0.0285517
0.0298606
0.0311322
0.0323765
0.0336045
0.0348282
0.0360611
0.0373181
0.0386149
0.0399686
0.0413976
0.0429238
0.044547
0.0462545
0.0480677
0.0500023
0.0520731
0.054292
0.0566631
0.0591766
0.0618021
0.0644823
0.067128
0.0696097
0.0717239
0.0731981
0.0737355
0.0730262
0.0707384
0.0665583
0.0602065
0.0514696
0.0402564
0.00504936
0.0112597
0.0156617
0.0194212
0.0226372
0.0254023
0.0278179
0.029975
0.0319443
0.0337766
0.0355068
0.0371592
0.0387517
0.0402994
0.0418166
0.0433185
0.0448212
0.0463423
0.0479008
0.0495166
0.0512106
0.0530054
0.0549244
0.056969
0.0591596
0.0615196
0.0640735
0.0668456
0.0698563
0.0731148
0.0766107
0.0803039
0.0841139
0.0879109
0.0915058
0.0946457
0.0970086
0.098216
0.0978556
0.0954899
0.0906616
0.0829224
0.0719279
0.0574612
0.00632447
0.014043
0.0192293
0.023557
0.027232
0.0303763
0.033111
0.0355422
0.0377532
0.039804
0.0417367
0.0435812
0.0453597
0.0470913
0.048794
0.0504862
0.0521877
0.0539195
0.055704
0.0575651
0.0595284
0.0616211
0.0638706
0.0662928
0.0689211
0.0717918
0.0749436
0.0784155
0.0822406
0.0864368
0.0909942
0.0958614
0.100933
0.106041
0.110949
0.115354
0.118879
0.121085
0.121498
0.1196
0.114801
0.106438
0.0938969
0.0766583
0.00749185
0.0165753
0.0224242
0.0271924
0.0312119
0.0346382
0.03761
0.0402463
0.0426403
0.0448596
0.0469517
0.0489505
0.0508819
0.0527678
0.0546293
0.0564879
0.0583666
0.06029
0.0622845
0.0643789
0.0666046
0.0689972
0.0715874
0.0744118
0.0775185
0.0809622
0.0848028
0.0891009
0.0939088
0.0992571
0.105136
0.111478
0.118141
0.124909
0.131492
0.137528
0.142576
0.146147
0.147731
0.146772
0.142572
0.134187
0.120564
0.100624
0.00860707
0.0189587
0.0253888
0.0305155
0.0348057
0.0384532
0.0416137
0.0444173
0.0469648
0.0493296
0.0515631
0.0537021
0.0557748
0.0578057
0.0598185
0.0618377
0.0638897
0.0660033
0.0682098
0.0705443
0.0730464
0.0757618
0.0787323
0.0820158
0.0856824
0.0898137
0.0945
0.0998334
0.105895
0.112732
0.120331
0.128591
0.137312
0.146203
0.1549
0.162968
0.169898
0.175152
0.178226
0.178606
0.175557
0.167814
0.153722
0.131348
0.00970067
0.0212352
0.0281799
0.0336067
0.0381168
0.0419458
0.0452658
0.048216
0.0509031
0.0534043
0.0557737
0.0580497
0.0602622
0.0624377
0.0646022
0.0667835
0.0690121
0.0713216
0.0737498
0.0763403
0.0791433
0.0822186
0.0856259
0.0894491
0.0937903
0.0987697
0.104522
0.111186
0.118884
0.127683
0.137553
0.148326
0.159697
0.171252
0.182526
0.193005
0.202103
0.209243
0.213984
0.215973
0.2146
0.208293
0.194687
0.170716
0.0107858
0.023413
0.0308113
0.0364934
0.0411895
0.0451759
0.0486401
0.0517284
0.0545518
0.0571896
0.0596971
0.0621136
0.06447
0.0667942
0.0691149
0.0714635
0.0738752
0.07639
0.079054
0.0819217
0.0850577
0.0885407
0.0924556
0.0969218
0.102086
0.108126
0.115239
0.123634
0.13349
0.144895
0.157772
0.171827
0.186558
0.201359
0.215639
0.228817
0.240237
0.249293
0.25568
0.259367
0.260131
0.256182
0.244443
0.220679
0.0118597
0.0254743
0.0332683
0.0391725
0.0440351
0.0481686
0.0517734
0.0550014
0.057966
0.0607476
0.0634014
0.0659666
0.0684744
0.0709544
0.0734378
0.0759605
0.0785635
0.0812947
0.084211
0.0873811
0.0908888
0.094836
0.099344
0.10458
0.110756
0.118126
0.126986
0.137643
0.150356
0.165228
0.182081
0.200376
0.219281
0.237895
0.255491
0.271478
0.285177
0.295975
0.303772
0.309045
0.312313
0.311765
0.303948
0.283665
0.0128999
0.0273783
0.0355168
0.0416224
0.046646
0.0509288
0.0546811
0.0580588
0.0611768
0.0641151
0.0669278
0.0696531
0.0723226
0.074967
0.077621
0.0803252
0.0831281
0.0860875
0.0892738
0.0927741
0.0966974
0.101173
0.106375
0.112534
0.119949
0.128991
0.140092
0.153704
0.170193
0.189658
0.211722
0.235425
0.25939
0.282285
0.303265
0.321871
0.337536
0.349715
0.358535
0.365133
0.371169
0.375133
0.373501
0.361364
0.0138715
0.0290799
0.037527
0.0438302
0.049025
0.053472
0.0573889
0.0609351
0.0642262
0.0673406
0.07033
0.0732314
0.076076
0.0788963
0.0817304
0.0846252
0.0876379
0.0908387
0.0943152
0.0981774
0.102566
0.107649
0.113666
0.120935
0.129878
0.141027
0.15501
0.172484
0.193958
0.219487
0.248341
0.278876
0.308867
0.336346
0.360391
0.380967
0.398001
0.411054
0.420412
0.428171
0.437312
0.447
0.453615
0.453526
0.0146896
0.0304837
0.0392288
0.045746
0.0511369
0.0557737
0.0598813
0.0636236
0.0671157
0.0704328
0.073623
0.0767211
0.0797581
0.0827682
0.0857939
0.0888893
0.0921219
0.0955775
0.099365
0.103623
0.108532
0.114314
0.121287
0.129892
0.140714
0.15451
0.172184
0.194677
0.222674
0.256116
0.293718
0.332813
0.369898
0.402007
0.428183
0.449389
0.466554
0.479137
0.488443
0.498359
0.512443
0.529534
0.545715
0.560218
0.015268
0.031483
0.0405385
0.0473025
0.0529234
0.0577812
0.0621113
0.0660834
0.0698106
0.0733627
0.0767823
0.0801013
0.0833501
0.0865653
0.089794
0.0930981
0.0965579
0.100278
0.104392
0.109078
0.11456
0.121131
0.129212
0.139394
0.152484
0.169535
0.191823
0.220657
0.256917
0.300339
0.348881
0.398547
0.443958
0.480374
0.506862
0.526116
0.539087
0.54733
0.558302
0.575691
0.59994
0.626284
0.65123
0.684016
0.0155946
0.0320393
0.0414471
0.0485103
0.0544008
0.0595065
0.0640846
0.0683148
0.0723074
0.0761238
0.0797995
0.0833621
0.0868415
0.0902761
0.093718
0.0972373
0.100928
0.104917
0.10937
0.114507
0.120613
0.128062
0.137404
0.149416
0.165181
0.186132
0.214012
0.250569
0.29686
0.352319
0.414099
0.476857
0.532441
0.572217
0.5953
0.605255
0.605383
0.609921
0.628583
0.662772
0.706574
0.743211
0.769655
0.823656
0.0158259
0.0322281
0.0420536
0.049471
0.0556522
0.0610009
0.0658267
0.0703261
0.074602
0.0787038
0.0826569
0.0864828
0.0902095
0.0938769
0.0975402
0.101278
0.105199
0.109455
0.114251
0.119859
0.126631
0.13504
0.145785
0.159867
0.178692
0.204148
0.238521
0.284014
0.341773
0.410838
0.487895
0.567255
0.636462
0.673866
0.679455
0.669568
0.656722
0.665681
0.698502
0.759625
0.841047
0.850357
0.852704
0.909121
0.0162777
0.0322137
0.0424567
0.0502717
0.0567562
0.0622828
0.067311
0.0720634
0.0766292
0.0810351
0.0852893
0.089403
0.0933992
0.0973172
0.101213
0.105171
0.109318
0.113832
0.118964
0.125053
0.132519
0.141944
0.154201
0.170541
0.19273
0.223144
0.264636
0.319799
0.389651
0.472591
0.565582
0.665788
0.72236
0.723822
0.725823
0.696449
0.689358
0.709337
0.758281
0.847843
0.895734
0.880795
0.899036
0.987334
0.0173503
0.0322996
0.0420432
0.0497109
0.0562028
0.0619169
0.0672735
0.0724408
0.0774611
0.0823254
0.087018
0.0915364
0.0959004
0.100154
0.104369
0.108633
0.11307
0.117877
0.12336
0.129928
0.138092
0.14856
0.162372
0.18105
0.206713
0.242164
0.290616
0.35451
0.433526
0.522302
0.607392
0.668701
0.704916
0.713712
0.701439
0.691632
0.700832
0.731454
0.777343
0.83672
0.890137
0.911291
0.942196
1.04012
0.0168225
0.0311019
0.0407004
0.0479483
0.0543675
0.0602918
0.0659811
0.0715302
0.0769445
0.0821991
0.0872698
0.0921527
0.0968719
0.101479
0.10606
0.110719
0.115585
0.120863
0.126891
0.134109
0.143092
0.154683
0.170067
0.190956
0.219606
0.258715
0.310817
0.37663
0.452743
0.52985
0.594673
0.642922
0.67873
0.68202
0.676235
0.676308
0.692882
0.72496
0.765052
0.817444
0.886879
0.94064
0.983587
1.03363
0.0156352
0.0293962
0.0390726
0.0462352
0.0525558
0.0584874
0.0642374
0.0698833
0.0754301
0.0808551
0.0861359
0.0912692
0.0962775
0.101206
0.106134
0.111177
0.116499
0.122344
0.129062
0.137102
0.147053
0.159793
0.176614
0.19925
0.22978
0.270249
0.321844
0.383365
0.449772
0.512593
0.564612
0.607167
0.642202
0.656339
0.658328
0.662225
0.679574
0.711131
0.754024
0.812076
0.891424
0.968365
1.02647
1.0022
0.0146477
0.0276392
0.037283
0.0444899
0.050761
0.0566056
0.0622512
0.0677994
0.0732802
0.0786906
0.084022
0.0892791
0.0944881
0.0996823
0.104937
0.110373
0.11617
0.122586
0.129983
0.138817
0.149686
0.163464
0.181402
0.2051
0.23624
0.276043
0.324436
0.379199
0.435469
0.487076
0.530619
0.568619
0.602901
0.626937
0.640978
0.65477
0.671673
0.702605
0.749194
0.814319
0.901699
1.00459
1.0563
0.972299
0.0139896
0.0264376
0.0358021
0.0429789
0.0491736
0.05488
0.0603413
0.0656871
0.0709784
0.0762402
0.0814855
0.0867319
0.0920098
0.0973634
0.102865
0.108632
0.114853
0.121766
0.129738
0.139221
0.150805
0.165317
0.183884
0.207843
0.238413
0.27613
0.320197
0.368065
0.415678
0.459094
0.497242
0.532738
0.567115
0.596473
0.620683
0.647087
0.669295
0.699676
0.750032
0.823233
0.923718
1.05172
1.0873
0.959208
0.810224
0.0136239
0.0258762
0.0348944
0.0419215
0.0479746
0.0535016
0.0587412
0.0638373
0.0688751
0.0739052
0.0789637
0.0840859
0.0893144
0.0947038
0.10033
0.106307
0.112805
0.120067
0.128446
0.138364
0.150376
0.165222
0.183859
0.207331
0.236451
0.271305
0.310773
0.352429
0.393161
0.43073
0.465525
0.500275
0.536481
0.571442
0.603502
0.635819
0.667176
0.700784
0.754364
0.834371
0.946284
1.09018
1.12252
0.964324
0.80298
0.0134518
0.0257372
0.0344926
0.0413353
0.0472163
0.0525484
0.0575591
0.0623962
0.0671591
0.0719179
0.0767287
0.0816444
0.0867221
0.0920286
0.0976474
0.103692
0.110321
0.11776
0.126316
0.136389
0.148521
0.163298
0.181503
0.203908
0.231013
0.262653
0.297669
0.333988
0.369367
0.40276
0.435457
0.470345
0.509086
0.549883
0.59032
0.629113
0.665747
0.704034
0.759828
0.843945
0.963394
1.11901
1.15641
0.982676
0.809693
0.0133847
0.0258144
0.0344311
0.0411309
0.0468561
0.0520073
0.0568057
0.0613992
0.0658949
0.070376
0.0749133
0.0795745
0.0844302
0.0895589
0.0950524
0.101026
0.10763
0.115069
0.123612
0.133607
0.1455
0.159844
0.177228
0.19818
0.222975
0.251342
0.282243
0.314041
0.345223
0.375549
0.406827
0.442114
0.48341
0.529843
0.578612
0.625716
0.66744
0.708733
0.764996
0.849627
0.969985
1.12632
1.18273
1.00858
0.82737
0.013366
0.0260042
0.0345785
0.0411941
0.0468034
0.0518075
0.0564266
0.0608086
0.0650645
0.0692852
0.0735514
0.0779413
0.0825358
0.087423
0.0927022
0.0984903
0.104932
0.112211
0.120561
0.130276
0.141719
0.155323
0.171559
0.190849
0.213244
0.23847
0.265667
0.293633
0.321438
0.349367
0.379494
0.415003
0.458284
0.509415
0.56555
0.621709
0.671227
0.714817
0.769513
0.851519
0.967178
1.11024
1.19527
1.04206
0.854015
0.0133703
0.0262598
0.0348491
0.0414273
0.0469621
0.051859
0.0563392
0.0605502
0.0646048
0.0685975
0.0726147
0.0767409
0.0810637
0.0856774
0.090686
0.0962076
0.10238
0.109371
0.117381
0.126657
0.137489
0.150207
0.165154
0.182607
0.202645
0.224974
0.248893
0.273592
0.298587
0.324481
0.353454
0.388744
0.433155
0.487577
0.549581
0.614232
0.673866
0.721753
0.77343
0.850449
0.960264
1.09699
1.19605
1.07533
0.887016
0.013391
0.0265589
0.0351921
0.0417624
0.0472551
0.0520804
0.0564603
0.0605417
0.0644369
0.0682414
0.0720434
0.0759302
0.0799925
0.0843273
0.0890405
0.0942488
0.100084
0.106698
0.114265
0.122989
0.133101
0.14485
0.158481
0.174172
0.191951
0.211597
0.232634
0.254534
0.277123
0.301162
0.32882
0.363306
0.40779
0.464013
0.530268
0.601885
0.670488
0.727266
0.776723
0.845968
0.947456
1.07864
1.19287
1.10908
0.925445
0.0134274
0.0268886
0.0355781
0.0421559
0.047628
0.0524087
0.0567205
0.0607089
0.0644843
0.0681411
0.0717666
0.075448
0.0792756
0.0833462
0.0877643
0.0926435
0.0981085
0.104296
0.11136
0.119468
0.128804
0.139556
0.151896
0.165939
0.181687
0.198978
0.217501
0.236956
0.257387
0.279649
0.305769
0.338802
0.382205
0.438646
0.507494
0.584498
0.661334
0.727398
0.776854
0.837686
0.928101
1.04838
1.16831
1.13405
0.968144
0.0134802
0.0272405
0.0359891
0.0425811
0.0480449
0.0527993
0.0570671
0.0609919
0.0646817
0.0682279
0.0717155
0.0752288
0.0788557
0.0826898
0.0868318
0.0913902
0.0964815
0.10223
0.10877
0.116242
0.124791
0.134562
0.145675
0.158206
0.172148
0.187388
0.203737
0.221064
0.239556
0.260088
0.284516
0.315663
0.3569
0.411404
0.480634
0.560262
0.642796
0.718108
0.773558
0.827845
0.905574
1.01187
1.12604
1.147
1.01647
0.0135494
0.0276083
0.0364141
0.0430211
0.0484822
0.0532214
0.0574618
0.0613452
0.0649767
0.0684442
0.0718289
0.075211
0.0786739
0.0823062
0.0862031
0.090466
0.0952027
0.100526
0.106553
0.113402
0.121191
0.130031
0.140009
0.151177
0.163526
0.176987
0.19146
0.206924
0.22365
0.242481
0.26508
0.293996
0.332424
0.383662
0.45031
0.53008
0.615549
0.697292
0.765095
0.817266
0.881364
0.973307
1.08154
1.14874
1.06952
0.0136335
0.0279868
0.0368449
0.0434641
0.0489239
0.0536537
0.0578773
0.0617351
0.0653291
0.0687437
0.0720556
0.0753401
0.0786749
0.0821426
0.0858312
0.0898343
0.0942504
0.0991808
0.104728
0.110995
0.118076
0.126059
0.13501
0.144966
0.155924
0.167846
0.180694
0.194519
0.209625
0.226788
0.247469
0.273916
0.309061
0.356141
0.417995
0.495625
0.582205
0.66888
0.745608
0.799756
0.853963
0.931335
1.02998
1.12057
1.11007
0.0137294
0.0283702
0.0372738
0.0439008
0.0493577
0.0540804
0.0582936
0.0621363
0.0657083
0.06909
0.0723537
0.0755697
0.0788094
0.0821486
0.0856675
0.0894514
0.0935891
0.0981712
0.103288
0.109028
0.11547
0.122684
0.130723
0.139616
0.149367
0.159961
0.1714
0.183776
0.197393
0.212942
0.231676
0.255533
0.287121
0.329487
0.385589
0.457478
0.542097
0.630016
0.711592
0.775624
0.825979
0.887765
0.971693
1.0627
1.11434
0.0138333
0.028751
0.0376927
0.0443219
0.0497733
0.054489
0.0586951
0.0625299
0.0660907
0.0694547
0.07269
0.0758615
0.0790348
0.0822784
0.0856649
0.0892707
0.0931753
0.0974593
0.102202
0.107479
0.113359
0.119899
0.127143
0.135115
0.143826
0.153277
0.163496
0.174589
0.186844
0.200856
0.217678
0.23894
0.26689
0.304272
0.353945
0.418156
0.497406
0.584358
0.66937
0.742434
0.793387
0.843636
0.91222
0.994985
1.07165
0.0139402
0.029121
0.0380928
0.0447188
0.0501613
0.0548691
0.0590698
0.062901
0.0664582
0.0698157
0.0730377
0.0761841
0.0793148
0.0824916
0.0857794
0.0892463
0.0929625
0.0969992
0.101426
0.106309
0.111706
0.117666
0.124226
0.131411
0.139233
0.147706
0.156869
0.166832
0.177852
0.19043
0.205431
0.224194
0.248599
0.28102
0.324074
0.38006
0.450082
0.53249
0.616963
0.693956
0.754813
0.802835
0.856305
0.924492
0.999523
0.0140451
0.0294718
0.0384656
0.0450831
0.0505135
0.055212
0.0594077
0.063238
0.0667967
0.0701556
0.0733754
0.0765119
0.0796194
0.0827535
0.085972
0.0893349
0.0929043
0.0967423
0.10091
0.105464
0.110455
0.115926
0.121909
0.128427
0.135497
0.143137
0.151392
0.160367
0.170281
0.181547
0.194863
0.211304
0.232397
0.260119
0.296754
0.344482
0.404702
0.477164
0.557889
0.63645
0.705109
0.759897
0.805903
0.85807
0.920802
0.0141434
0.0297956
0.0388038
0.045408
0.0508231
0.0555106
0.0597012
0.0635319
0.0670952
0.0704609
0.0736866
0.0768242
0.0799235
0.0830344
0.0862082
0.0894976
0.0929568
0.0966403
0.100601
0.104888
0.109545
0.114611
0.120114
0.126075
0.132513
0.13945
0.146931
0.155049
0.163988
0.174081
0.185879
0.200229
0.218338
0.241801
0.272522
0.312456
0.363106
0.424834
0.496154
0.572625
0.6449
0.70676
0.756374
0.800081
0.847968
0.0142313
0.0300866
0.0391015
0.045688
0.0510849
0.0557596
0.0599442
0.0637756
0.0673451
0.0707208
0.0739578
0.0771046
0.0802069
0.0833098
0.0864585
0.0896997
0.0930804
0.0966479
0.100448
0.104523
0.108913
0.113649
0.118757
0.12426
0.130174
0.136524
0.143351
0.150735
0.158827
0.167891
0.178357
0.190876
0.206384
0.226126
0.251635
0.284577
0.32642
0.377945
0.438734
0.506813
0.578234
0.644605
0.700384
0.745742
0.786672
0.0143058
0.0303403
0.0393545
0.0459193
0.0512954
0.0559554
0.0601327
0.0639641
0.0675403
0.0709275
0.0741788
0.0773401
0.0804533
0.0835593
0.0866985
0.0899116
0.0932399
0.0967241
0.100404
0.104316
0.108494
0.112968
0.117759
0.122889
0.128375
0.134239
0.140519
0.147284
0.154653
0.162833
0.172154
0.183112
0.196412
0.213008
0.234091
0.261016
0.295106
0.337329
0.387925
0.446093
0.509743
0.575368
0.635844
0.686686
0.729914
0.0143652
0.0305544
0.0395606
0.0460997
0.0514524
0.0560955
0.0602639
0.0640942
0.0676763
0.0710752
0.0743422
0.0775208
0.08065
0.0837669
0.0869078
0.0901087
0.0934053
0.0968331
0.100426
0.104216
0.108233
0.112501
0.117042
0.121874
0.127014
0.132483
0.138314
0.144562
0.151324
0.15876
0.167118
0.17677
0.188244
0.202249
0.219687
0.241617
0.269144
0.303229
0.344425
0.392609
0.446728
0.504529
0.562258
0.615245
0.660197
0.0144082
0.0307276
0.0397186
0.0462284
0.0515549
0.0561791
0.0603365
0.0641639
0.0677504
0.07116
0.0744426
0.0776394
0.0807873
0.0839201
0.0870706
0.0902707
0.0935517
0.0969444
0.100478
0.104181
0.108077
0.112189
0.116536
0.121135
0.126001
0.131153
0.136619
0.142445
0.148706
0.155525
0.163088
0.171671
0.181662
0.193583
0.208098
0.226004
0.248174
0.275441
0.30843
0.347347
0.391753
0.440338
0.490776
0.540078
0.58622
0.0144347
0.0308598
0.0398285
0.0463055
0.0516033
0.0562061
0.0603503
0.0641725
0.0677613
0.0711798
0.0744765
0.0776912
0.0808584
0.0840097
0.0871747
0.090382
0.0936592
0.0970332
0.100529
0.104172
0.107982
0.111979
0.11618
0.1206
0.125252
0.130155
0.135331
0.140817
0.146673
0.15299
0.159908
0.167631
0.17644
0.186715
0.198936
0.213686
0.231622
0.253406
0.279605
0.310538
0.346108
0.385637
0.427792
0.470826
0.513281
0.0144445
0.0309514
0.0398911
0.0463321
0.0515986
0.0561777
0.0603063
0.0641207
0.0677092
0.071134
0.0744425
0.0776733
0.080859
0.0840292
0.0872112
0.0904306
0.0937122
0.0970795
0.100555
0.104158
0.10791
0.111825
0.115919
0.120206
0.124697
0.129408
0.134358
0.139576
0.145109
0.151026
0.157431
0.164472
0.172354
0.181349
0.191801
0.204129
0.218809
0.23634
0.257177
0.28164
0.309792
0.341331
0.375539
0.411391
0.447854
0.0144383
0.0310036
0.039908
0.0463097
0.0515426
0.0560956
0.060206
0.06401
0.0675952
0.0710232
0.0743406
0.0775846
0.0807868
0.083975
0.0871743
0.0904083
0.0936993
0.0970681
0.100534
0.104116
0.10783
0.11169
0.115709
0.119899
0.124272
0.128839
0.133617
0.13863
0.143912
0.149517
0.15552
0.16203
0.169196
0.177211
0.18632
0.196821
0.209052
0.223376
0.240136
0.259604
0.281897
0.306913
0.334284
0.36341
0.393568
0.0144164
0.0310177
0.039881
0.0462405
0.0514376
0.0559624
0.0600521
0.0638427
0.0674214
0.0708493
0.074172
0.077426
0.0806417
0.0838454
0.0870609
0.09031
0.0936128
0.0969881
0.100454
0.104025
)
;

boundaryField
{
    leftWall
    {
        type            kqRWallFunction;
        value           nonuniform List<scalar> 
44
(
0.00175324
0.00357372
0.00504936
0.00632447
0.00749185
0.00860707
0.00970067
0.0107858
0.0118597
0.0128999
0.0138715
0.0146896
0.015268
0.0155946
0.0158259
0.0162777
0.0173503
0.0168225
0.0156352
0.0146477
0.0139896
0.0136239
0.0134518
0.0133847
0.013366
0.0133703
0.013391
0.0134274
0.0134802
0.0135494
0.0136335
0.0137294
0.0138333
0.0139402
0.0140451
0.0141434
0.0142313
0.0143058
0.0143652
0.0144082
0.0144347
0.0144445
0.0144383
0.0144164
)
;
    }
    rightWall
    {
        type            kqRWallFunction;
        value           nonuniform 0();
    }
    lowerWall
    {
        type            kqRWallFunction;
        value           nonuniform List<scalar> 
44
(
0.00175324
0.00342356
0.00499004
0.0063813
0.00760629
0.00868806
0.00966104
0.0105562
0.011396
0.0121942
0.0129586
0.0136937
0.014402
0.015086
0.0157488
0.0163945
0.0170283
0.0176565
0.0182863
0.0189258
0.0195836
0.0202699
0.0209982
0.0217913
0.0226386
0.0235207
0.0244403
0.0254043
0.0264184
0.0274833
0.0285914
0.0297247
0.0308542
0.0319483
0.0330046
0.033884
0.0343667
0.0343601
0.0337586
0.0324043
0.0301664
0.0269951
0.0227328
0.0173518
)
;
    }
    atmosphere
    {
        type            inletOutlet;
        inletValue      nonuniform 0();
        value           nonuniform 0();
    }
    defaultFaces
    {
        type            empty;
    }
    procBoundary0to1
    {
        type            processor;
        value           nonuniform List<scalar> 
44
(
0.010404
0.0263621
0.039113
0.0538009
0.0725573
0.097429
0.130865
0.17602
0.238461
0.327004
0.439005
0.56385
0.710911
0.864761
0.999638
1.0952
1.0322
0.94576
0.879088
0.834594
0.834594
0.671901
0.664412
0.668291
0.682169
0.70492
0.735519
0.773355
0.818142
0.870195
0.929063
0.992661
1.05378
1.08645
1.05724
0.984908
0.902356
0.828411
0.767491
0.699136
0.629001
0.554339
0.483967
0.423946
)
;
    }
    procBoundary0to2
    {
        type            processor;
        value           nonuniform List<scalar> 
46
(
0.107717
0.111542
0.115511
0.119635
0.123924
0.128388
0.13304
0.137899
0.142992
0.148358
0.154054
0.160159
0.16678
0.174055
0.182159
0.191301
0.201722
0.21368
0.227428
0.243178
0.261057
0.281056
0.303002
0.326552
0.351236
0.0143797
0.0309955
0.0398126
0.0461274
0.0512868
0.0557811
0.0598478
0.0636222
0.0671912
0.0706152
0.0739395
0.0771996
0.080425
0.0836411
0.0868704
0.0901332
0.0934482
0.0968326
0.100302
0.107717
0.103871
)
;
    }
}


// ************************************************************************* //
