/*--------------------------------*- C++ -*----------------------------------*\
| =========                 |                                                 |
| \\      /  F ield         | OpenFOAM: The Open Source CFD Toolbox           |
|  \\    /   O peration     | Version:  5.0                                   |
|   \\  /    A nd           | Web:      www.OpenFOAM.org                      |
|    \\/     M anipulation  |                                                 |
\*---------------------------------------------------------------------------*/
FoamFile
{
    version     2.0;
    format      ascii;
    class       volScalarField;
    location    "0.95";
    object      nut;
}
// * * * * * * * * * * * * * * * * * * * * * * * * * * * * * * * * * * * * * //

dimensions      [0 2 -1 0 0 0 0];

internalField   nonuniform List<scalar> 
1935
(
2.54191e-05
3.13975e-05
3.7994e-05
4.30036e-05
4.69681e-05
5.02074e-05
5.29519e-05
5.53575e-05
5.75231e-05
5.95093e-05
6.13526e-05
6.30767e-05
6.46985e-05
6.62329e-05
6.76942e-05
6.90971e-05
7.04574e-05
7.17913e-05
7.3115e-05
7.4445e-05
7.57979e-05
7.71926e-05
7.86551e-05
8.02295e-05
8.18427e-05
8.34808e-05
8.51587e-05
8.68898e-05
8.86817e-05
9.05316e-05
9.24215e-05
9.43166e-05
9.61668e-05
9.79298e-05
9.96085e-05
0.000100919
0.000101601
0.000101555
0.000100619
9.85301e-05
9.50112e-05
8.98504e-05
8.24024e-05
7.18912e-05
4.25418e-05
0.000180532
0.000256024
0.000312945
0.000357233
0.000392279
0.000421036
0.000445797
0.000468148
0.0004891
0.000509274
0.00052904
0.000548629
0.000568194
0.000587854
0.000607718
0.000627886
0.000648455
0.000669504
0.000691094
0.000713261
0.000736035
0.000759463
0.000782204
0.000803203
0.000823887
0.000844768
0.000866136
0.000888195
0.000911048
0.000934639
0.000958663
0.00098251
0.00100531
0.00102566
0.0010417
0.0010517
0.00105299
0.00104268
0.00101732
0.00097285
0.000903523
0.000801258
0.000652522
5.0838e-05
0.000321809
0.000488197
0.000607469
0.00070109
0.000777246
0.000841523
0.000898068
0.000949782
0.00099857
0.00104563
0.0010917
0.00113726
0.00118263
0.00122808
0.00127382
0.00132002
0.0013668
0.00141418
0.00146206
0.00151019
0.00155821
0.0016055
0.0016498
0.00169117
0.00173028
0.00176774
0.00180409
0.00183983
0.00187532
0.00191058
0.0019451
0.00197777
0.00200679
0.00202949
0.00204239
0.0020414
0.00202166
0.00197768
0.00190308
0.00179003
0.00162818
0.00140324
0.0010925
5.71045e-05
0.000440649
0.000699621
0.000878502
0.00101847
0.00113404
0.00123325
0.00132158
0.00140281
0.0014795
0.00155329
0.00162525
0.00169607
0.00176625
0.00183613
0.00190598
0.00197591
0.00204587
0.0021156
0.00218458
0.00225199
0.00231678
0.00237752
0.00243213
0.00248049
0.00252296
0.00256028
0.00259345
0.00262364
0.00265192
0.0026789
0.00270448
0.00272756
0.00274589
0.00275598
0.00275324
0.00273211
0.0026863
0.00260881
0.00249179
0.00232587
0.00209882
0.00179333
0.00138121
6.23315e-05
0.00054074
0.000889216
0.00112515
0.00130844
0.00146082
0.00159293
0.00171138
0.00182063
0.00192371
0.00202262
0.00211867
0.00221275
0.00230544
0.00239712
0.00248795
0.00257784
0.00266637
0.00275275
0.00283579
0.00291394
0.00298543
0.00304774
0.00309937
0.00314001
0.00317024
0.00319149
0.00320589
0.00321596
0.00322419
0.00323246
0.00324151
0.00325047
0.00325665
0.0032556
0.00324148
0.00320739
0.00314576
0.00304846
0.00290685
0.00271093
0.00244734
0.00209577
0.00162155
6.69671e-05
0.000626256
0.00105889
0.00134944
0.00157352
0.00176028
0.0019231
0.00206972
0.00220516
0.00233281
0.00245493
0.00257306
0.00268817
0.00280091
0.00291156
0.00302007
0.00312595
0.00322824
0.00332541
0.00341541
0.0034958
0.00356401
0.003617
0.00365359
0.00367388
0.0036794
0.00367312
0.00365911
0.00364207
0.00362652
0.00361593
0.00361183
0.00361317
0.00361614
0.00361459
0.00360083
0.00356628
0.00350201
0.00339894
0.00324797
0.00303898
0.00275759
0.00237957
0.00186168
7.12244e-05
0.000700076
0.00121051
0.00155299
0.00181557
0.00203448
0.00222593
0.00239875
0.00255849
0.00270883
0.00285227
0.00299046
0.00312446
0.00325487
0.0033818
0.00350484
0.00362297
0.00373449
0.00383697
0.00392735
0.00400226
0.00405838
0.00409262
0.00410431
0.00409466
0.00406706
0.00402687
0.00398097
0.00393684
0.00390134
0.0038793
0.00387237
0.00387834
0.00389116
0.00390202
0.0039007
0.00387672
0.00381988
0.00372049
0.00356953
0.00335749
0.00306925
0.00267583
0.00212224
7.51994e-05
0.00076383
0.00134532
0.0017367
0.00203557
0.00228454
0.00250261
0.00269972
0.00288191
0.00305314
0.00321606
0.00337243
0.00352334
0.00366926
0.00381005
0.00394482
0.00407189
0.00418863
0.00429159
0.00437662
0.00443942
0.00447612
0.00448398
0.00446337
0.00441742
0.00435222
0.00427647
0.00420051
0.0041349
0.00408857
0.00406699
0.00407073
0.00409504
0.00413052
0.00416481
0.00418487
0.0041784
0.0041343
0.00404282
0.00389599
0.0036861
0.00339795
0.0029975
0.0024143
7.89163e-05
0.000818274
0.00146383
0.00190081
0.00223369
0.00251074
0.00275354
0.00297312
0.003176
0.00336638
0.00354709
0.00371995
0.00388602
0.00404561
0.00419821
0.00434239
0.00447562
0.00459426
0.00469369
0.00476865
0.00481396
0.00482543
0.00480121
0.00474334
0.00465772
0.00455409
0.00444519
0.00434525
0.00426779
0.00422307
0.00421585
0.00424409
0.00429915
0.00436731
0.00443235
0.00447847
0.00449196
0.00446137
0.00437767
0.00423523
0.00402996
0.00374887
0.00335797
0.00276163
8.23422e-05
0.000863628
0.00156598
0.00204494
0.00240952
0.00271274
0.00297848
0.00321882
0.00344075
0.00364872
0.0038457
0.00403357
0.00421335
0.00438512
0.00454796
0.00469975
0.00483705
0.00495505
0.00504787
0.00510911
0.00513287
0.00511486
0.00505473
0.00495694
0.00483105
0.00469127
0.00455502
0.00444049
0.00436355
0.00433454
0.00435575
0.0044208
0.00451602
0.004623
0.00472178
0.00479431
0.00482624
0.00480637
0.00472687
0.00458628
0.00438699
0.00412425
0.0037618
0.00319344
8.54236e-05
0.000900049
0.0016519
0.00216933
0.00256357
0.00289135
0.00317858
0.00343829
0.00367793
0.00390224
0.00411433
0.00431616
0.00450865
0.00469164
0.00486373
0.00502203
0.00516204
0.00527769
0.00536172
0.00540655
0.00540568
0.00535527
0.0052569
0.00511832
0.00495374
0.00478266
0.00462752
0.00451021
0.00444796
0.00444939
0.00451224
0.0046241
0.00476553
0.00491355
0.00504489
0.00514029
0.00518639
0.00517201
0.00508996
0.00494633
0.00475698
0.00452092
0.0042089
0.00375514
8.79642e-05
0.000926556
0.00171988
0.00227204
0.00269396
0.00304489
0.00335236
0.00363028
0.00388657
0.00412626
0.00435264
0.00456773
0.00477239
0.00496618
0.00514713
0.00531152
0.00545368
0.00556615
0.00564017
0.00566696
0.00563955
0.00555503
0.00541753
0.00523909
0.00503948
0.00484421
0.00468086
0.00457437
0.00454181
0.00458794
0.0047038
0.00486957
0.00505985
0.00524734
0.00540601
0.00551708
0.00557036
0.00555189
0.00545635
0.00530784
0.00513429
0.00493316
0.00467473
0.00432719
8.97164e-05
0.000941098
0.0017672
0.00235014
0.00279778
0.00317053
0.00349712
0.00379225
0.00406431
0.00431863
0.00455871
0.00478668
0.00500333
0.00520791
0.00539788
0.0055686
0.00571317
0.00582258
0.00588648
0.00589483
0.00584038
0.00572161
0.00554593
0.00533061
0.00510187
0.00489159
0.00473225
0.00465071
0.00466196
0.00476466
0.00494144
0.00516459
0.00540325
0.00562519
0.00580175
0.00591652
0.00595949
0.00591632
0.00580232
0.0056568
0.00551477
0.00536115
0.00514842
0.00487126
9.05166e-05
0.000941303
0.00179174
0.00240192
0.00287355
0.00326687
0.00361155
0.00392301
0.00421011
0.00447853
0.00473202
0.00497283
0.00520169
0.00541756
0.00561728
0.00579528
0.00594334
0.00605081
0.00610562
0.00609641
0.00601575
0.00586397
0.00565259
0.00540501
0.00515453
0.00493946
0.0047964
0.00475265
0.00481899
0.00498605
0.0052274
0.00550856
0.00579431
0.00604271
0.0062214
0.00631339
0.00631385
0.00623441
0.0061134
0.00599142
0.00590807
0.00581822
0.00563105
0.00539738
9.06742e-05
0.000926028
0.00179376
0.00242806
0.00292185
0.00333404
0.00369539
0.00402213
0.00432357
0.00460572
0.00487256
0.00512647
0.00536813
0.00559621
0.00580694
0.00599382
0.00614729
0.00625497
0.00630291
0.0062783
0.00617362
0.00599147
0.0057482
0.00547419
0.00521012
0.00500022
0.00488408
0.00488763
0.00501549
0.00524907
0.00555364
0.00589156
0.00622581
0.00647744
0.00661411
0.00665171
0.00659567
0.00649238
0.00638557
0.00631804
0.00633984
0.00623413
0.00602869
0.00579325
9.10628e-05
0.000897709
0.00177546
0.00243009
0.00294387
0.00337237
0.00374837
0.00408909
0.00440425
0.00470001
0.00498048
0.00524812
0.00550355
0.00574518
0.00596871
0.00616672
0.00632832
0.00643934
0.00648384
0.0064474
0.00632237
0.00611383
0.00584353
0.00554945
0.00527958
0.00508314
0.00500115
0.00505637
0.00524591
0.00554164
0.00590192
0.00628969
0.00658945
0.00678825
0.00689106
0.00686979
0.00678415
0.00667646
0.00660159
0.00659922
0.00658475
0.00643455
0.00625206
0.00603279
9.39416e-05
0.000868048
0.00173411
0.00239715
0.00292323
0.00336603
0.0037573
0.00411358
0.00444429
0.00475553
0.00505146
0.00533462
0.00560573
0.00586317
0.0061024
0.00631511
0.00648883
0.00660758
0.00665348
0.00661051
0.00647063
0.00624108
0.00594914
0.00564055
0.0053706
0.00519219
0.00514516
0.00524615
0.0054827
0.00581455
0.00617904
0.00650333
0.00675605
0.00694346
0.00700881
0.00697084
0.00687371
0.00676794
0.00668342
0.00663514
0.00660731
0.00650799
0.00635372
0.00613354
9.50791e-05
0.000824598
0.00166851
0.00232876
0.00286399
0.00332133
0.0037288
0.00410152
0.00444842
0.00477554
0.0050872
0.0053862
0.00567352
0.00594766
0.00620408
0.00643409
0.00662409
0.00675619
0.00681025
0.00676805
0.00662112
0.00637941
0.00607539
0.00576193
0.00550043
0.00534506
0.00532972
0.00545923
0.0057078
0.00602101
0.00633337
0.00661463
0.00686608
0.00702728
0.00706725
0.00699889
0.0068776
0.00674992
0.00663327
0.00655791
0.00654471
0.00650267
0.00639755
0.00610423
9.16759e-05
0.000746646
0.00157998
0.00224422
0.00278898
0.00325879
0.00367965
0.0040661
0.00442692
0.00476816
0.00509426
0.00540824
0.0057113
0.0060019
0.00627548
0.0065233
0.00673147
0.00688076
0.00694887
0.00691565
0.006772
0.00652962
0.0062256
0.00591781
0.00567044
0.00553475
0.00553567
0.00566542
0.00588741
0.00615218
0.00641899
0.0066792
0.00692433
0.00707599
0.00709215
0.0069916
0.00683694
0.0066774
0.00653944
0.00645656
0.0064569
0.00646776
0.00640543
0.0060489
8.81669e-05
0.000665242
0.00147805
0.00214775
0.00270265
0.00318412
0.00361696
0.00401544
0.00438845
0.00474217
0.00508123
0.00540895
0.00572684
0.00603316
0.0063236
0.00658948
0.00681665
0.0069849
0.00707063
0.00705252
0.00692138
0.00668985
0.00639695
0.00610242
0.00586939
0.00574364
0.00574031
0.00584551
0.00602555
0.00624301
0.00647389
0.006711
0.00693164
0.00706557
0.00707275
0.00697018
0.00679185
0.00660637
0.00645341
0.00636853
0.00637474
0.00644315
0.00640342
0.00600646
8.54064e-05
0.000621212
0.00138623
0.00205059
0.00261322
0.00310564
0.00354985
0.00395955
0.00434364
0.00470851
0.00505901
0.00539864
0.00572908
0.00604934
0.00635522
0.00663816
0.00688389
0.0070714
0.00717671
0.00717803
0.00706621
0.0068541
0.00658034
0.00630249
0.00607934
0.00595117
0.00592933
0.00599983
0.0061354
0.00631011
0.00650845
0.00671792
0.0069056
0.00701429
0.007016
0.00693069
0.00675974
0.00656157
0.00640153
0.00632025
0.00634453
0.00646854
0.00642046
0.00599948
0.0054116
8.36582e-05
0.000601237
0.00131792
0.00196735
0.0025322
0.00303279
0.00348686
0.00390668
0.00430081
0.00467562
0.0050361
0.00538595
0.00572712
0.00605907
0.00637788
0.00667518
0.00693689
0.00714273
0.00726837
0.00729169
0.00720357
0.00701598
0.00676505
0.00650389
0.00628603
0.00614794
0.00610053
0.00613328
0.00622616
0.00636157
0.00652759
0.00670736
0.00686575
0.0069581
0.00696096
0.00688454
0.00673972
0.00655124
0.00639217
0.00631571
0.00635625
0.00651195
0.00645764
0.00602716
0.00546388
8.27195e-05
0.000592419
0.00127267
0.00190478
0.00246751
0.00297299
0.00343471
0.00386312
0.00426602
0.00464953
0.0050186
0.00537703
0.005727
0.00606829
0.00639732
0.006706
0.00698067
0.00720191
0.0073467
0.00739379
0.0073315
0.00717104
0.00694434
0.00669916
0.00648376
0.00633215
0.00625686
0.00625238
0.00630539
0.00640388
0.0065373
0.00668706
0.00682084
0.00690497
0.00692059
0.00686406
0.00674258
0.00657578
0.00642211
0.00634679
0.00639326
0.00656383
0.00650812
0.00608165
0.00554288
8.2284e-05
0.000589097
0.00124605
0.0018639
0.00242295
0.00293092
0.00339814
0.00383336
0.00424354
0.00463436
0.00501061
0.00537605
0.00573297
0.0060814
0.00641805
0.00673521
0.00701982
0.00725348
0.00741461
0.00748342
0.0074492
0.00731748
0.00711526
0.00688558
0.00667183
0.00650623
0.0064038
0.00636431
0.00638026
0.00644342
0.00654398
0.00666389
0.0067764
0.00685721
0.00689265
0.00686914
0.00677713
0.00663258
0.0064845
0.00640432
0.00644337
0.00660293
0.00656466
0.00615733
0.00564394
8.21074e-05
0.000589729
0.00123399
0.00184267
0.00239886
0.0029084
0.00337968
0.00382019
0.00423617
0.00463289
0.00501487
0.00538577
0.00574792
0.00610148
0.00644344
0.00676653
0.0070584
0.00730178
0.00747663
0.00756461
0.00755554
0.00745322
0.00727802
0.00706366
0.00685245
0.00667453
0.00654759
0.00647614
0.00645755
0.00648639
0.00655362
0.00664329
0.00673539
0.00681395
0.00687034
0.0068856
0.00683477
0.00671459
0.00657163
0.00648036
0.00649947
0.00662306
0.00662481
0.00625502
0.00576502
8.2057e-05
0.000593845
0.00123329
0.00183795
0.00239345
0.00290497
0.00337983
0.00382472
0.00424536
0.00464672
0.00503308
0.005408
0.00577376
0.00613065
0.00647594
0.00680283
0.00709975
0.00735065
0.00753697
0.00764173
0.00765502
0.00757894
0.00742974
0.00723538
0.00702922
0.00684173
0.00669403
0.00659408
0.0065432
0.0065383
0.00657145
0.00662965
0.00669973
0.00677376
0.00684761
0.00690078
0.00690038
0.00681399
0.00667849
0.00657246
0.00656542
0.00666374
0.00669366
0.00636858
0.00590533
8.20828e-05
0.000600967
0.00124139
0.00184655
0.00240403
0.00291879
0.00339759
0.00384665
0.00427135
0.00467645
0.00506609
0.00544374
0.0058117
0.00617035
0.00651728
0.00684621
0.00714645
0.00740316
0.00759922
0.00771883
0.0077522
0.00769986
0.00757447
0.0073991
0.00720228
0.00701146
0.00684778
0.00672288
0.00664157
0.00660336
0.00660161
0.00662673
0.00667184
0.00673625
0.00682114
0.00690691
0.00695394
0.00691786
0.00679957
0.00667955
0.00664261
0.00671512
0.00677297
0.00649698
0.00606404
8.21702e-05
0.000610461
0.00125621
0.00186565
0.00242775
0.00294741
0.00343108
0.00388465
0.00431333
0.00472172
0.00511393
0.00549335
0.00586232
0.00622143
0.00656859
0.00689813
0.00720031
0.00746154
0.00766606
0.0077991
0.00785094
0.00782059
0.00771758
0.00756077
0.00737454
0.00718361
0.00700859
0.00686313
0.00675432
0.00668337
0.00664624
0.00663739
0.00665469
0.00670228
0.0067882
0.0068977
0.00698786
0.00700646
0.00691871
0.0067955
0.00672923
0.00676731
0.00683692
0.00662727
0.00623824
8.2315e-05
0.000621695
0.00127609
0.00189288
0.00246197
0.00298826
0.00347797
0.00393677
0.00436975
0.00478143
0.00517586
0.00555645
0.00592564
0.00628419
0.00663044
0.00695945
0.00726247
0.0075272
0.00773921
0.00788468
0.00795389
0.00794447
0.00786317
0.00772511
0.00755097
0.00736283
0.00718028
0.00701769
0.0068835
0.00678044
0.006707
0.0066618
0.00664859
0.00667585
0.00675018
0.00687073
0.00699448
0.00706693
0.00702896
0.00691773
0.00682524
0.00682103
0.00687442
0.0067519
0.00642641
8.25142e-05
0.000634172
0.00129972
0.0019263
0.00250442
0.00303893
0.00353587
0.00400079
0.00443864
0.00485389
0.00525057
0.00563211
0.00600103
0.00635836
0.0067029
0.00703048
0.00733343
0.00760078
0.00781947
0.00797657
0.00806241
0.00807336
0.00801363
0.007895
0.0077347
0.00755213
0.00736542
0.00718885
0.00703153
0.00689749
0.00678764
0.00670434
0.00665613
0.00665648
0.00671357
0.00683011
0.0069751
0.00709142
0.00712199
0.00704345
0.00693301
0.00688646
0.0069139
0.00687428
0.00662569
8.27623e-05
0.000647532
0.00132612
0.00196438
0.00255315
0.00309723
0.00360252
0.00407443
0.00451782
0.00493712
0.00533631
0.00571887
0.00608739
0.00644317
0.0067855
0.00711099
0.00741312
0.00768231
0.00790685
0.00807481
0.00817662
0.00820758
0.00816963
0.00807142
0.00792693
0.00775276
0.00756527
0.00737801
0.00720034
0.00703737
0.00689211
0.00677005
0.00668359
0.00665064
0.00668477
0.00678331
0.00693552
0.00708689
0.00717856
0.0071507
0.00704816
0.00697041
0.006965
0.006971
0.00681525
8.30501e-05
0.000661495
0.00135447
0.00200584
0.00260652
0.00316125
0.0036758
0.00415548
0.00460509
0.00502897
0.00543109
0.00581493
0.00618318
0.00653737
0.00687726
0.00720027
0.007501
0.00777128
0.0080008
0.00817871
0.00829569
0.00834624
0.00833026
0.00825358
0.00812698
0.00796422
0.00777956
0.00758545
0.00739107
0.00720236
0.00702404
0.00686395
0.0067372
0.00666506
0.00666573
0.00674144
0.00688245
0.00705336
0.00719097
0.00723255
0.00716733
0.00707495
0.00703091
0.00703067
0.00696789
8.3365e-05
0.000675802
0.0013841
0.00204957
0.00266307
0.00322926
0.0037538
0.0042419
0.0046983
0.00512729
0.0055328
0.0059183
0.00628657
0.00663934
0.00697682
0.00729718
0.0075961
0.00786677
0.00810033
0.00828709
0.0084182
0.00848759
0.00849354
0.00843928
0.00833261
0.00818437
0.00800651
0.00781003
0.00760365
0.00739374
0.00718623
0.00699052
0.00682329
0.00670809
0.00666751
0.00671106
0.00682647
0.00699665
0.00716675
0.00727467
0.00726898
0.00719235
0.00712288
0.00709426
0.00707207
8.3692e-05
0.000690187
0.00141437
0.0020946
0.00272154
0.00329974
0.00383477
0.00433179
0.00479544
0.00523
0.00563934
0.00602692
0.00639558
0.00674724
0.00708251
0.00740022
0.00769707
0.00796754
0.00820419
0.00839853
0.0085424
0.0086295
0.00865684
0.00862547
0.00854043
0.00840972
0.00824286
0.00804912
0.00783642
0.00761119
0.00738002
0.00715301
0.00694738
0.00678768
0.00669979
0.00669981
0.00678438
0.00692945
0.00711002
0.00726292
0.00733451
0.00731293
0.00724581
0.00719043
0.00716062
8.40154e-05
0.000704392
0.00144469
0.00214004
0.00278078
0.00337132
0.00391717
0.00442341
0.00489466
0.00533512
0.00574866
0.00613872
0.00650817
0.0068591
0.00719245
0.00750765
0.00780231
0.00807209
0.00831089
0.00851147
0.0086665
0.00876976
0.00881741
0.00880878
0.00874649
0.00863593
0.00848416
0.00829858
0.00808601
0.0078525
0.00760473
0.00735277
0.00711336
0.00691082
0.0067728
0.00672087
0.00676058
0.00687626
0.0070384
0.00721463
0.00734783
0.00740179
0.00737722
0.00731961
0.00726956
8.43205e-05
0.000718188
0.00147456
0.00218511
0.00283976
0.00344278
0.00399958
0.00451521
0.00499423
0.00544085
0.00585887
0.00625172
0.00662234
0.00697291
0.00730468
0.00761759
0.00791004
0.00817874
0.00841884
0.00862432
0.00878875
0.00890629
0.00897266
0.00898593
0.00894678
0.0088583
0.00872524
0.0085531
0.00834735
0.00811331
0.00785723
0.0075885
0.00732255
0.00708229
0.00689551
0.00678756
0.00677196
0.00684404
0.00698081
0.0071483
0.00731456
0.00743217
0.0074765
0.00745763
0.00741022
8.45954e-05
0.000731396
0.00150354
0.00222914
0.00289761
0.00351304
0.00408076
0.00460578
0.00509265
0.00554552
0.00596819
0.00636409
0.00673616
0.00708672
0.00741724
0.0077281
0.00801839
0.00828573
0.00852638
0.00873547
0.00890754
0.0090373
0.00912039
0.00915409
0.00913765
0.00907228
0.00896072
0.00880664
0.00861409
0.00838737
0.00813189
0.00785588
0.00757286
0.00730331
0.00707361
0.00691077
0.00683445
0.00684974
0.00694473
0.00709284
0.00725817
0.00741182
0.00751691
0.00755937
0.00755277
8.48311e-05
0.000743891
0.00153129
0.00227155
0.00295355
0.00358116
0.00415962
0.0046939
0.00518853
0.00564765
0.00607504
0.00647412
0.00684786
0.00719867
0.00752823
0.00783729
0.00812549
0.00839126
0.00863183
0.00884335
0.00902136
0.00916122
0.00925879
0.00931097
0.00931606
0.00927386
0.0091855
0.00905304
0.00887914
0.00866698
0.00842087
0.00814758
0.00785836
0.00757062
0.00730795
0.00709688
0.00696061
0.00691208
0.00694969
0.00705725
0.00720715
0.00736471
0.00750306
0.0075986
0.00764788
8.50217e-05
0.000755588
0.00155751
0.00231188
0.00300693
0.00364633
0.00423521
0.0047785
0.0052807
0.00574595
0.00617802
0.00658032
0.00695584
0.00730709
0.00763591
0.00794335
0.00822955
0.00849359
0.00873352
0.00894646
0.00912882
0.00927673
0.00938644
0.00945481
0.00947963
0.00945975
0.00939512
0.00928651
0.00913536
0.00894374
0.00871482
0.00845381
0.00816957
0.00787618
0.00759357
0.00734587
0.00715712
0.00704534
0.00701742
0.0070671
0.00717631
0.00731873
0.00746541
0.00758933
0.00767949
8.5164e-05
0.000766422
0.001582
0.00234972
0.00305721
0.00370787
0.00430672
0.00485865
0.00536814
0.0058393
0.0062759
0.00668135
0.00705869
0.00741047
0.00773869
0.00804465
0.00832889
0.00859105
0.0088299
0.00904335
0.00922866
0.0093827
0.00950225
0.00958436
0.00962666
0.0096275
0.00958602
0.00950208
0.00937616
0.00920938
0.00900382
0.00876326
0.00849432
0.00820784
0.00791974
0.00765051
0.00742266
0.00725623
0.007164
0.00714822
0.00720008
0.00730194
0.00743126
0.00756492
0.00768532
8.52567e-05
0.000776344
0.00160459
0.00238479
0.00310396
0.00376523
0.00437352
0.00493362
0.00545
0.00592676
0.00636766
0.00677613
0.00715521
0.00750752
0.00783519
0.00813974
0.00842203
0.00868217
0.00891952
0.0091327
0.00931973
0.00947815
0.00960535
0.00969874
0.00975604
0.00977542
0.00975561
0.00969586
0.00959601
0.00945645
0.00927839
0.00906438
0.00881916
0.00855068
0.00827105
0.00799666
0.00774686
0.00754112
0.00739511
0.00731721
0.00730676
0.00735461
0.00744565
0.00756225
0.00768774
8.52999e-05
0.000785312
0.00162515
0.00241683
0.00314683
0.00381799
0.00443506
0.00500279
0.0055256
0.00600757
0.00645247
0.00686372
0.00724439
0.00759716
0.00792425
0.00822738
0.00850768
0.00876565
0.00900114
0.00921337
0.009401
0.00956226
0.0096951
0.00979739
0.00986712
0.00990252
0.00990218
0.00986509
0.0097907
0.00967891
0.00953032
0.00934655
0.00913085
0.00888888
0.0086295
0.00836514
0.00811138
0.00788533
0.00770289
0.00757582
0.00750941
0.00750186
0.00754517
0.00762724
0.007734
8.52948e-05
0.000793289
0.00164356
0.00244569
0.00318559
0.00386583
0.00449098
0.00506572
0.00559443
0.00608117
0.00652969
0.00694343
0.00732547
0.00767854
0.00800496
0.0083066
0.00858481
0.00884042
0.00907369
0.00928437
0.00947165
0.00963436
0.00977102
0.00987998
0.00995961
0.0100083
0.0100249
0.0100081
0.0099574
0.00987236
0.00975322
0.00960097
0.00941781
0.0092077
0.00897695
0.00873468
0.00849283
0.00826536
0.00806663
0.00790925
0.00780192
0.00774814
0.00774594
0.00778868
0.00786628
8.52421e-05
0.00080022
0.00165974
0.00247123
0.00322008
0.00390853
0.00454102
0.00512211
0.00565614
0.00614714
0.00659887
0.00701474
0.00739788
0.00775105
0.00807664
0.00837664
0.00865262
0.00890566
0.00913638
0.00934494
)
;

boundaryField
{
    leftWall
    {
        type            nutkWallFunction;
        Cmu             0.09;
        kappa           0.41;
        E               9.8;
        value           nonuniform List<scalar> 
44
(
3.54252e-06
5.15198e-06
6.13458e-06
6.86012e-06
7.45552e-06
7.97766e-06
8.45419e-06
8.89827e-06
9.31389e-06
9.69697e-06
1.00395e-05
1.03177e-05
1.05093e-05
1.06157e-05
1.06904e-05
1.08436e-05
1.08265e-05
3.667e-06
3.13452e-06
2.67363e-06
2.35644e-06
2.17648e-06
2.09082e-06
2.05726e-06
2.04786e-06
2.05006e-06
2.0604e-06
2.07863e-06
2.10502e-06
2.13948e-06
2.18122e-06
2.22871e-06
2.27986e-06
2.33228e-06
2.3835e-06
2.43131e-06
2.47389e-06
2.5099e-06
2.53848e-06
2.55918e-06
2.57186e-06
2.5766e-06
2.5736e-06
2.56308e-06
)
;
    }
    rightWall
    {
        type            nutkWallFunction;
        Cmu             0.09;
        kappa           0.41;
        E               9.8;
        value           nonuniform 0();
    }
    lowerWall
    {
        type            nutkWallFunction;
        Cmu             0.09;
        kappa           0.41;
        E               9.8;
        value           nonuniform List<scalar> 
44
(
2.58744e-06
3.75987e-06
4.58768e-06
5.20678e-06
5.69168e-06
6.08466e-06
6.41533e-06
6.7035e-06
6.96165e-06
7.19736e-06
7.41517e-06
7.61793e-06
7.80765e-06
7.98599e-06
8.15455e-06
8.315e-06
8.46911e-06
8.61873e-06
8.7658e-06
8.91225e-06
9.06006e-06
9.21137e-06
9.36885e-06
9.53693e-06
9.71275e-06
9.89196e-06
1.00749e-05
1.02625e-05
1.04557e-05
1.06542e-05
1.08563e-05
1.10585e-05
1.12559e-05
1.14435e-05
1.16208e-05
1.1766e-05
1.1845e-05
1.18439e-05
1.17455e-05
1.15203e-05
1.11364e-05
1.05638e-05
9.73212e-06
8.54656e-06
)
;
    }
    atmosphere
    {
        type            calculated;
        value           nonuniform 0();
    }
    defaultFaces
    {
        type            empty;
    }
    procBoundary0to1
    {
        type            processor;
        value           nonuniform List<scalar> 
44
(
5.55702e-05
0.000427822
0.000653066
0.00080995
0.000958383
0.00112062
0.001304
0.00150494
0.00175417
0.00211926
0.00300866
0.00383662
0.00451153
0.00506417
0.00548042
0.00565689
0.00558785
0.00548444
0.00541658
0.00539331
0.00539331
0.00477596
0.00486693
0.00498401
0.00512152
0.00527612
0.00544684
0.00563375
0.00583672
0.00605543
0.00628746
0.00652648
0.00676262
0.00697037
0.00711778
0.00723063
0.00736262
0.00751787
0.00765752
0.00773772
0.00778174
0.00780699
0.00785037
0.00796642
)
;
    }
    procBoundary0to2
    {
        type            processor;
        value           nonuniform List<scalar> 
46
(
0.00953102
0.00969396
0.00983281
0.00994641
0.0100335
0.0100929
0.0101235
0.0101243
0.0100946
0.0100341
0.00994276
0.00982123
0.00967103
0.00949493
0.00929743
0.00908511
0.00886684
0.0086535
0.00845708
0.00828934
0.00816014
0.00807604
0.00803948
0.00804859
0.00809781
8.51437e-05
0.000806049
0.00167362
0.00249339
0.0032502
0.003946
0.00458504
0.00517178
0.00571051
0.00620525
0.00665972
0.00707735
0.00746127
0.00781427
0.00813882
0.00843702
0.00871058
0.00896082
0.00918865
0.00953102
0.00939457
)
;
    }
}


// ************************************************************************* //
