/*--------------------------------*- C++ -*----------------------------------*\
| =========                 |                                                 |
| \\      /  F ield         | OpenFOAM: The Open Source CFD Toolbox           |
|  \\    /   O peration     | Version:  5.0                                   |
|   \\  /    A nd           | Web:      www.OpenFOAM.org                      |
|    \\/     M anipulation  |                                                 |
\*---------------------------------------------------------------------------*/
FoamFile
{
    version     2.0;
    format      ascii;
    class       volScalarField;
    location    "0.95";
    object      p;
}
// * * * * * * * * * * * * * * * * * * * * * * * * * * * * * * * * * * * * * //

dimensions      [1 -1 -2 0 0 0 0];

internalField   nonuniform List<scalar> 
1935
(
730.917
728.29
724.716
720.334
715.628
710.819
706.035
701.355
696.837
692.534
688.493
684.753
681.342
678.282
675.579
673.233
671.231
669.551
668.165
667.038
666.131
665.394
664.773
664.218
663.749
663.338
662.942
662.531
662.077
661.551
660.926
660.119
659.088
658.354
656.687
654.825
652.393
649.356
645.817
641.838
637.877
633.237
628.669
624.13
685.422
682.705
679.129
674.842
670.258
665.559
660.845
656.185
651.64
647.272
643.134
639.274
635.728
632.518
629.658
627.146
624.971
623.112
621.539
620.217
619.106
618.16
617.329
616.576
615.865
615.169
614.463
613.713
612.888
611.957
610.895
609.705
608.437
606.949
604.599
601.908
599.169
596.327
592.89
589.246
585.638
581.729
577.782
574.173
640.077
636.894
633.248
629.15
624.743
620.175
615.545
610.922
606.377
601.976
597.778
593.836
590.188
586.861
583.865
581.202
578.861
576.82
575.051
573.517
572.176
570.985
569.895
568.864
567.853
566.835
565.78
564.653
563.419
562.043
560.495
558.776
556.894
554.653
551.77
548.562
545.389
542.214
538.892
535.712
532.637
529.558
526.896
524.832
594.795
590.898
586.922
582.873
578.568
574.082
569.507
564.916
560.382
555.973
551.752
547.772
544.073
540.678
537.6
534.838
532.382
530.209
528.29
526.589
525.065
523.674
522.372
521.117
519.867
518.59
517.256
515.834
514.288
512.584
510.684
508.563
506.191
503.453
500.221
496.68
493.08
489.529
486.158
483.096
480.382
478.008
476.287
475.264
549.288
544.676
540.154
535.958
531.647
527.179
522.629
518.065
513.557
509.173
504.974
501.01
497.318
493.921
490.827
488.033
485.529
483.292
481.292
479.493
477.855
476.333
474.886
473.472
472.051
470.592
469.067
467.445
465.697
463.786
461.67
459.297
456.61
453.523
449.974
446.083
442.036
438.01
434.221
430.915
428.311
426.263
424.919
424.385
503.339
498.066
492.887
488.413
484.018
479.528
474.986
470.454
465.996
461.673
457.541
453.646
450.02
446.68
443.632
440.87
438.381
436.142
434.124
432.291
430.601
429.009
427.473
425.954
424.419
422.837
421.183
419.432
417.558
415.525
413.276
410.733
407.799
404.377
400.426
396.035
391.348
386.602
382.122
378.266
375.496
373.391
371.984
371.632
456.807
450.904
445.023
440.205
435.685
431.155
426.623
422.139
417.759
413.538
409.521
405.749
402.245
399.021
396.078
393.407
390.991
388.809
386.831
385.021
383.333
381.72
380.142
378.562
376.955
375.294
373.556
371.725
369.781
367.685
365.363
362.695
359.525
355.716
351.236
346.169
340.573
334.748
329.211
324.475
321.46
319.056
317.139
316.608
409.579
403.053
396.462
391.281
386.629
382.064
377.559
373.152
368.889
364.814
360.966
357.371
354.047
350.999
348.219
345.695
343.408
341.336
339.452
337.719
336.083
334.492
332.905
331.297
329.648
327.939
326.152
324.276
322.305
320.2
317.862
315.11
311.697
307.429
302.291
296.299
289.244
281.687
274.624
268.73
265.862
263.144
260.101
258.762
361.544
354.391
347.123
341.603
336.838
332.264
327.82
323.53
319.431
315.555
311.93
308.571
305.487
302.673
300.115
297.793
295.685
293.771
292.032
290.426
288.888
287.351
285.778
284.16
282.493
280.759
278.943
277.048
275.086
273.026
270.738
267.955
264.304
259.496
253.437
245.852
236.297
226.311
217.341
209.862
208.248
205.729
200.607
196.803
312.6
304.826
296.97
291.172
286.336
281.795
277.458
273.336
269.453
265.831
262.486
259.421
256.635
254.113
251.833
249.763
247.879
246.164
244.613
243.187
241.789
240.33
238.779
237.159
235.486
233.745
231.913
230.009
228.082
226.119
223.961
221.244
217.389
211.8
204.081
194.292
183.277
173.224
162.622
151.187
150.372
148.232
139.062
129.049
262.244
253.9
245.613
239.633
234.79
230.341
226.17
222.272
218.66
215.343
212.327
209.605
207.166
204.987
203.031
201.255
199.622
198.132
196.805
195.609
194.393
193.023
191.483
189.851
188.18
186.445
184.596
182.674
180.79
178.983
177.104
174.694
170.681
163.629
153.948
146.716
144.942
142.736
130.112
111.608
101.944
94.9681
77.8497
57.1587
210.267
201.489
193.042
187.03
182.266
177.973
174.025
170.404
167.108
164.137
161.483
159.133
157.068
155.261
153.652
152.175
150.782
149.494
148.396
147.475
146.473
145.175
143.59
141.904
140.232
138.514
136.635
134.658
132.817
131.297
130.096
128.595
124.495
115.666
110.09
124.231
140.695
138.223
120.999
98.5434
70.1317
48.14
25.7073
6.55832
157.167
148.042
139.722
133.706
128.905
124.604
120.79
117.446
114.529
112.004
109.834
107.977
106.409
105.095
103.921
102.785
101.608
100.458
99.5849
99.0406
98.3271
97.0564
95.2997
93.4806
91.8336
90.203
88.2973
86.1904
84.3489
83.2803
83.2782
83.2269
78.9147
73.5481
91.4075
129.589
142.667
130.193
107.269
79.4562
34.7444
10.4506
1.44268
-3.04229
103.378
93.0243
84.1634
76.8295
70.7122
65.9442
62.3021
59.5053
57.3552
55.7228
54.5052
53.5857
52.9173
52.5439
52.4728
52.2685
51.675
50.8612
50.5288
50.9501
50.9917
49.8701
47.8506
45.9392
44.5794
43.352
41.5352
39.1942
37.1997
36.4002
37.2013
38.0341
36.6021
48.4208
87.3855
120.592
121.967
100.332
78.825
45.7885
9.71253
-0.78384
-1.90778
-2.88764
49.947
37.9958
30.1962
23.5804
18.7261
15.8695
14.0822
12.9256
12.1815
11.7355
11.5231
11.4593
11.5019
11.7123
12.2718
12.7346
12.8094
12.5972
12.6974
13.3984
13.8883
13.4211
12.2588
11.3097
10.8634
10.5216
9.64226
8.27628
7.05954
6.35896
6.21806
6.9091
10.9049
33.6162
65.8686
83.6584
83.0328
74.7005
64.5593
23.1851
0.38593
-1.49428
-1.98479
-2.43838
11.4891
5.18074
2.77189
0.959748
0.104717
-0.204629
-0.352478
-0.427046
-0.485859
-0.535885
-0.579692
-0.617204
-0.648254
-0.67217
-0.677085
-0.665427
-0.65866
-0.668351
-0.690493
-0.746495
-0.794969
-0.79508
-0.796572
-0.800562
-0.80753
-0.820064
-0.839178
-0.863894
-0.891119
-0.942087
-1.01219
0.553474
7.08852
19.2648
31.4159
40.1571
59.9117
80.4573
66.8734
9.29177
0.232407
-1.67763
-2.02592
-2.18664
-0.570228
-0.762523
-0.558979
-0.593037
-0.643073
-0.681172
-0.706732
-0.724651
-0.739409
-0.752178
-0.763226
-0.772297
-0.778716
-0.781157
-0.781848
-0.786155
-0.796653
-0.81032
-0.82329
-0.827378
-0.81974
-0.810931
-0.805379
-0.802105
-0.800693
-0.801029
-0.802377
-0.801033
-0.788972
-0.769877
-0.757797
-0.371054
1.71609
6.73165
12.0329
29.6624
57.1142
77.7319
69.9853
19.9851
-0.479107
-2.03248
-2.16859
-2.11552
-0.767286
-0.819425
-0.77716
-0.775129
-0.771476
-0.773211
-0.779542
-0.788123
-0.797031
-0.805643
-0.813621
-0.820594
-0.82614
-0.830027
-0.833974
-0.839972
-0.847911
-0.855941
-0.862544
-0.865547
-0.862732
-0.857107
-0.852106
-0.847945
-0.844568
-0.841585
-0.838015
-0.831505
-0.81687
-0.789548
-0.738214
-0.640884
-0.381538
0.100658
6.67721
27.0804
51.1896
61.9526
51.497
16.3547
-1.3728
-2.01884
-2.21216
-2.19632
-0.825727
-0.842781
-0.827612
-0.824576
-0.819782
-0.82028
-0.825128
-0.832394
-0.840575
-0.848943
-0.857001
-0.864335
-0.870679
-0.876063
-0.881361
-0.8874
-0.894035
-0.900339
-0.905259
-0.907493
-0.906077
-0.902122
-0.897362
-0.892364
-0.887341
-0.882153
-0.876221
-0.868328
-0.85628
-0.83687
-0.798946
-0.785849
-0.8739
-0.772441
0.990865
11.6845
32.2653
40.5772
35.1095
14.3356
-0.571816
-1.87979
-2.34633
-2.38585
-0.875171
-0.883914
-0.874791
-0.874106
-0.872992
-0.874865
-0.879324
-0.885465
-0.892509
-0.899875
-0.907093
-0.913792
-0.919754
-0.925014
-0.929986
-0.935118
-0.940431
-0.945385
-0.949142
-0.950686
-0.949369
-0.945753
-0.940766
-0.934923
-0.92865
-0.922088
-0.915251
-0.907851
-0.899455
-0.888922
-0.87252
-0.856066
-0.856346
-0.787437
-0.476903
0.823399
14.1104
30.0273
27.6302
12.0779
-0.1973
-1.97536
-2.59244
-2.53187
-0.931688
-0.934181
-0.929983
-0.929321
-0.929082
-0.930858
-0.934531
-0.939599
-0.94553
-0.951842
-0.958123
-0.964047
-0.96942
-0.97423
-0.978688
-0.983051
-0.987346
-0.991242
-0.994125
-0.995216
-0.993978
-0.990585
-0.985559
-0.979402
-0.972679
-0.965969
-0.959846
-0.954877
-0.951624
-0.950294
-0.949265
-0.938688
-0.916591
-0.887835
-0.868698
-0.514034
2.21822
18.3132
21.5274
7.75172
-2.13488
-3.03122
-2.72882
-2.32619
-6.44625
-0.988226
-0.987107
-0.984437
-0.98349
-0.983463
-0.98507
-0.98823
-0.992589
-0.997736
-1.00327
-1.00884
-1.01415
-1.01902
-1.02341
-1.02742
-1.03121
-1.03481
-1.03802
-1.04038
-1.04128
-1.04025
-1.03725
-1.0326
-1.02677
-1.02048
-1.01463
-1.01034
-1.00872
-1.01075
-1.01699
-1.0248
-1.02627
-1.01555
-0.994943
-0.997621
-0.950604
-0.15055
5.09289
13.7197
2.46829
-5.60005
-4.75639
-2.56837
-1.56151
-5.52756
-1.04302
-1.04089
-1.03853
-1.03738
-1.03744
-1.03891
-1.04169
-1.04551
-1.05003
-1.05493
-1.0599
-1.06467
-1.06908
-1.07306
-1.07666
-1.08
-1.08312
-1.08589
-1.08797
-1.08887
-1.08818
-1.08578
-1.08188
-1.07696
-1.07178
-1.06745
-1.06539
-1.06699
-1.07332
-1.08446
-1.09808
-1.10874
-1.11099
-1.10327
-1.10865
-1.14452
-0.971845
0.438386
5.21991
-3.85131
-11.3186
-6.9041
-1.49369
0.0740869
-1.81269
-1.09819
-1.09566
-1.09331
-1.09203
-1.09202
-1.09328
-1.09568
-1.09899
-1.10296
-1.10728
-1.11169
-1.11596
-1.11992
-1.1235
-1.12672
-1.12969
-1.13245
-1.13495
-1.13692
-1.13796
-1.13773
-1.13609
-1.13323
-1.12959
-1.12595
-1.12346
-1.12359
-1.12779
-1.13706
-1.15127
-1.16837
-1.18448
-1.19548
-1.1999
-1.20932
-1.24819
-1.2499
-0.861541
-0.34339
-9.1468
-22.2149
-8.82794
1.96374
2.80305
3.91664
-1.15405
-1.15122
-1.14881
-1.14742
-1.14727
-1.14828
-1.15031
-1.15317
-1.15662
-1.16041
-1.16431
-1.16811
-1.17165
-1.17485
-1.17774
-1.1804
-1.18291
-1.18524
-1.18722
-1.18851
-1.18882
-1.18805
-1.18636
-1.18419
-1.18225
-1.18162
-1.18369
-1.18979
-1.2008
-1.21657
-1.2354
-1.25424
-1.27013
-1.28227
-1.29603
-1.32123
-1.33608
-1.28677
-1.84845
-10.2077
-25.1949
-11.4941
3.36024
2.44136
6.80724
-1.21037
-1.20739
-1.20492
-1.20344
-1.20315
-1.20393
-1.20562
-1.20805
-1.21103
-1.21434
-1.21777
-1.22114
-1.22429
-1.22717
-1.22977
-1.23218
-1.2345
-1.23675
-1.23882
-1.24042
-1.24133
-1.24146
-1.24097
-1.24026
-1.23997
-1.24106
-1.2447
-1.25206
-1.26386
-1.27997
-1.29904
-1.31868
-1.33663
-1.35259
-1.36972
-1.391
-1.41998
-1.5579
-2.12847
-9.33455
-22.4683
-16.1452
-3.29209
-1.06404
8.43213
-1.26721
-1.26415
-1.26163
-1.26009
-1.25966
-1.26022
-1.26161
-1.26366
-1.26621
-1.26908
-1.27208
-1.27505
-1.27787
-1.28045
-1.2828
-1.28502
-1.28721
-1.28944
-1.29162
-1.29358
-1.2951
-1.2961
-1.29673
-1.29735
-1.29853
-1.30104
-1.30587
-1.31393
-1.32579
-1.34133
-1.35949
-1.37838
-1.39617
-1.4126
-1.43058
-1.45466
-1.4881
-1.57351
-2.00973
-7.2111
-20.145
-21.8436
-8.84971
2.40903
16.3303
-1.32458
-1.32151
-1.31897
-1.31737
-1.31683
-1.31718
-1.31829
-1.31999
-1.32216
-1.32462
-1.32723
-1.32985
-1.33235
-1.33467
-1.33682
-1.33889
-1.34098
-1.3432
-1.34553
-1.34782
-1.34991
-1.35171
-1.35334
-1.3551
-1.35746
-1.36106
-1.36667
-1.37498
-1.38637
-1.40071
-1.41716
-1.43419
-1.45018
-1.46454
-1.47898
-1.49535
-1.50287
-1.50897
-1.85209
-5.41173
-18.2397
-30.6402
-13.1262
11.8735
17.5351
-1.38251
-1.37948
-1.37693
-1.37529
-1.37463
-1.3748
-1.37564
-1.37703
-1.37884
-1.38094
-1.3832
-1.38549
-1.38771
-1.38981
-1.39179
-1.39373
-1.39576
-1.39797
-1.40041
-1.40299
-1.40556
-1.40806
-1.41053
-1.4132
-1.41646
-1.42081
-1.42684
-1.43503
-1.44561
-1.45839
-1.47269
-1.48731
-1.50086
-1.51259
-1.52339
-1.53418
-1.53292
-1.51644
-1.75294
-3.49941
-15.5146
-33.9747
-19.5613
12.6221
0.427467
-1.44101
-1.43805
-1.43551
-1.43382
-1.43305
-1.43303
-1.43364
-1.43475
-1.43624
-1.43801
-1.43995
-1.44194
-1.44391
-1.44581
-1.44765
-1.44949
-1.45146
-1.45368
-1.45619
-1.45897
-1.46193
-1.46497
-1.46811
-1.47148
-1.47538
-1.48018
-1.48633
-1.49414
-1.50371
-1.51481
-1.52684
-1.53889
-1.54983
-1.55893
-1.56672
-1.57504
-1.58028
-1.57447
-1.67976
-2.56527
-10.2203
-26.9934
-20.7415
6.84677
3.07392
-1.50008
-1.4972
-1.49467
-1.49293
-1.49205
-1.49188
-1.49227
-1.49313
-1.49434
-1.49582
-1.49746
-1.49918
-1.50092
-1.50264
-1.50435
-1.50612
-1.50804
-1.51025
-1.51281
-1.51572
-1.51893
-1.52236
-1.52598
-1.52986
-1.53417
-1.5392
-1.54525
-1.55253
-1.56102
-1.57044
-1.58029
-1.58982
-1.59817
-1.6046
-1.60911
-1.61295
-1.61477
-1.59904
-1.59689
-2.03798
-5.63824
-18.0466
-19.7475
1.1889
17.838
-1.5597
-1.5569
-1.55438
-1.5526
-1.55162
-1.5513
-1.55152
-1.55215
-1.55312
-1.55433
-1.55571
-1.55718
-1.5587
-1.56025
-1.56184
-1.56354
-1.56543
-1.56763
-1.57021
-1.5732
-1.57655
-1.58021
-1.58413
-1.58832
-1.59287
-1.59795
-1.60377
-1.61044
-1.61787
-1.62575
-1.63363
-1.64094
-1.64699
-1.65114
-1.65308
-1.65341
-1.65227
-1.6397
-1.60654
-1.75008
-2.92386
-11.3385
-18.631
-4.20473
17.5045
-1.61985
-1.61714
-1.61464
-1.61282
-1.61177
-1.61133
-1.61138
-1.61183
-1.61259
-1.61356
-1.61469
-1.61592
-1.61723
-1.61861
-1.62008
-1.6217
-1.62356
-1.62575
-1.62834
-1.63134
-1.63476
-1.63852
-1.64258
-1.64691
-1.65153
-1.65655
-1.66207
-1.66813
-1.67458
-1.68112
-1.68734
-1.69282
-1.69702
-1.6994
-1.69954
-1.69742
-1.69342
-1.68311
-1.65226
-1.63919
-1.96019
-4.93774
-14.3238
-12.0504
5.22202
-1.68053
-1.67792
-1.67545
-1.67361
-1.6725
-1.67196
-1.67188
-1.67217
-1.67273
-1.6735
-1.6744
-1.67541
-1.6765
-1.6777
-1.67903
-1.68056
-1.68237
-1.68453
-1.6871
-1.6901
-1.69351
-1.69728
-1.70135
-1.70568
-1.71026
-1.71513
-1.72032
-1.72582
-1.73144
-1.73688
-1.7418
-1.74587
-1.74872
-1.74994
-1.7492
-1.74628
-1.7413
-1.73397
-1.71809
-1.68808
-1.70963
-2.19175
-7.28484
-15.6456
-9.24791
-1.74175
-1.73924
-1.73683
-1.73499
-1.73384
-1.73322
-1.73303
-1.73317
-1.73356
-1.73413
-1.73483
-1.73562
-1.73651
-1.73751
-1.73868
-1.74009
-1.74181
-1.74391
-1.74644
-1.74939
-1.75275
-1.75646
-1.76047
-1.7647
-1.76915
-1.77381
-1.77868
-1.7837
-1.78866
-1.79327
-1.79722
-1.80029
-1.80227
-1.80287
-1.80192
-1.79929
-1.79498
-1.78942
-1.78309
-1.77141
-1.75056
-1.79821
-2.36856
-8.7858
-15.5507
-1.80351
-1.80113
-1.79878
-1.79697
-1.79578
-1.7951
-1.7948
-1.79482
-1.79506
-1.79546
-1.79596
-1.79656
-1.79724
-1.79804
-1.79903
-1.80027
-1.80186
-1.80385
-1.80628
-1.80915
-1.81243
-1.81605
-1.81993
-1.82402
-1.82828
-1.8327
-1.83726
-1.84189
-1.84637
-1.85039
-1.85371
-1.85616
-1.85763
-1.85799
-1.85717
-1.85521
-1.85217
-1.84815
-1.84444
-1.84216
-1.83361
-1.80898
-1.85669
-2.38024
-8.39582
-1.86582
-1.86357
-1.8613
-1.85952
-1.85832
-1.85757
-1.85719
-1.85709
-1.85719
-1.85744
-1.85778
-1.85819
-1.85869
-1.8593
-1.86009
-1.86114
-1.86254
-1.86435
-1.86662
-1.86935
-1.87249
-1.87599
-1.87974
-1.88367
-1.88773
-1.8919
-1.89618
-1.90049
-1.90463
-1.90832
-1.91128
-1.91342
-1.91469
-1.91505
-1.9145
-1.9132
-1.91133
-1.90898
-1.90645
-1.90569
-1.90649
-1.89853
-1.87288
-1.90358
-2.31274
-1.92866
-1.92654
-1.92437
-1.92262
-1.92141
-1.92061
-1.92015
-1.91995
-1.91994
-1.92006
-1.92026
-1.92052
-1.92085
-1.92128
-1.92187
-1.92271
-1.92387
-1.92544
-1.92748
-1.92999
-1.93295
-1.93627
-1.93988
-1.94365
-1.94752
-1.95147
-1.9555
-1.95956
-1.96349
-1.96702
-1.96989
-1.97199
-1.97331
-1.97386
-1.97365
-1.97289
-1.9719
-1.97088
-1.96989
-1.96937
-1.97105
-1.97438
-1.96884
-1.93284
-1.89773
-1.99204
-1.99004
-1.98795
-1.98625
-1.98502
-1.98419
-1.98366
-1.98338
-1.98327
-1.98329
-1.98338
-1.98353
-1.98372
-1.98399
-1.9844
-1.98501
-1.98591
-1.98719
-1.98892
-1.99113
-1.99383
-1.99693
-2.00035
-2.00396
-2.00767
-2.01142
-2.01525
-2.01913
-2.02295
-2.02646
-2.02943
-2.0317
-2.03327
-2.03414
-2.03435
-2.03407
-2.03371
-2.03366
-2.03408
-2.035
-2.03689
-2.04145
-2.04847
-2.04532
-2.01835
-2.05593
-2.05405
-2.05204
-2.05037
-2.04915
-2.04828
-2.0477
-2.04735
-2.04718
-2.04712
-2.04713
-2.04719
-2.04728
-2.04743
-2.04766
-2.04806
-2.04869
-2.04964
-2.05101
-2.05286
-2.0552
-2.05801
-2.06119
-2.06462
-2.06816
-2.07177
-2.07545
-2.07923
-2.08302
-2.08663
-2.0898
-2.09235
-2.09425
-2.09552
-2.09619
-2.09641
-2.09658
-2.09719
-2.09855
-2.10075
-2.10388
-2.10844
-2.11595
-2.12651
-2.1336
-2.12034
-2.11857
-2.11664
-2.11501
-2.11378
-2.11289
-2.11228
-2.11188
-2.11166
-2.11155
-2.11151
-2.11151
-2.11153
-2.11158
-2.11167
-2.11186
-2.11223
-2.11285
-2.11382
-2.11524
-2.11715
-2.11957
-2.12244
-2.12563
-2.12902
-2.13254
-2.13617
-2.13994
-2.14378
-2.14753
-2.15091
-2.15374
-2.15596
-2.15762
-2.15877
-2.15955
-2.16026
-2.16135
-2.1632
-2.16603
-2.16992
-2.17509
-2.18209
-2.19194
-2.20589
-2.18526
-2.1836
-2.18174
-2.18015
-2.17893
-2.17804
-2.1774
-2.17698
-2.17673
-2.17659
-2.17652
-2.17649
-2.17646
-2.17643
-2.1764
-2.17642
-2.17653
-2.17682
-2.17739
-2.17833
-2.17975
-2.18171
-2.18419
-2.1871
-2.19034
-2.19383
-2.19749
-2.20132
-2.20524
-2.20909
-2.21264
-2.2157
-2.21822
-2.22025
-2.22188
-2.22321
-2.22445
-2.22593
-2.22801
-2.23094
-2.23492
-2.24015
-2.24696
-2.25549
-2.26606
-2.25073
-2.24916
-2.24738
-2.24583
-2.24463
-2.24373
-2.24309
-2.24266
-2.24239
-2.24224
-2.24216
-2.24211
-2.24205
-2.24196
-2.24183
-2.24169
-2.24159
-2.24158
-2.24176
-2.24224
-2.24317
-2.24466
-2.24672
-2.24932
-2.25238
-2.25581
-2.25951
-2.26338
-2.26731
-2.27117
-2.2748
-2.27805
-2.28086
-2.28325
-2.2853
-2.28709
-2.28878
-2.29058
-2.29277
-2.29561
-2.29932
-2.30412
-2.31024
-2.31769
-2.32621
-2.31675
-2.31527
-2.31357
-2.31208
-2.31091
-2.31002
-2.30938
-2.30894
-2.30866
-2.30851
-2.30842
-2.30835
-2.30825
-2.30811
-2.3079
-2.30764
-2.30736
-2.30711
-2.30699
-2.30713
)
;

boundaryField
{
    leftWall
    {
        type            calculated;
        value           nonuniform List<scalar> 
44
(
730.917
685.422
640.077
594.795
549.288
503.339
456.807
409.579
361.544
312.6
262.244
210.267
157.167
103.378
49.947
11.4891
-0.570228
-0.767286
-0.825727
-0.875171
-0.931688
-0.988226
-1.04302
-1.09819
-1.15405
-1.21037
-1.26721
-1.32458
-1.38251
-1.44101
-1.50008
-1.5597
-1.61985
-1.68053
-1.74175
-1.80351
-1.86582
-1.92866
-1.99204
-2.05593
-2.12034
-2.18526
-2.25073
-2.31675
)
;
    }
    rightWall
    {
        type            calculated;
        value           nonuniform 0();
    }
    lowerWall
    {
        type            calculated;
        value           nonuniform List<scalar> 
44
(
754.461
751.833
748.26
743.878
739.171
734.362
729.579
724.898
720.38
716.078
712.037
708.296
704.886
701.825
699.123
696.776
694.774
693.094
691.709
690.582
689.674
688.938
688.316
687.761
687.293
686.882
686.486
686.075
685.62
685.095
684.469
683.662
682.3
680.891
679.766
678.369
675.925
672.814
669.158
664.964
660.658
656.523
652.069
647.63
)
;
    }
    atmosphere
    {
        type            calculated;
        value           nonuniform 0();
    }
    defaultFaces
    {
        type            empty;
    }
    procBoundary0to1
    {
        type            processor;
        value           nonuniform List<scalar> 
44
(
620.304
571.615
523.291
474.109
423.659
371.731
318.031
262.416
203.026
133.567
44.065
-4.6902
-5.09357
-3.81241
-3.10075
-2.92308
-2.72569
-2.41398
-3.15249
-5.02714
-5.02714
-18.4576
-11.958
-3.73167
4.79484
11.5972
17.0115
20.8152
13.0706
-8.00746
-11.9014
-1.28052
15.0678
18.6416
4.93812
-9.06856
-15.9037
-6.49304
-2.29373
-2.03423
-2.13273
-2.2204
-2.27986
-2.3361
)
;
    }
    procBoundary0to2
    {
        type            processor;
        value           nonuniform List<scalar> 
46
(
-2.30768
-2.30875
-2.31041
-2.31265
-2.31544
-2.31869
-2.32228
-2.32605
-2.32987
-2.33363
-2.33724
-2.3406
-2.34364
-2.34633
-2.34871
-2.35086
-2.35289
-2.35497
-2.35727
-2.36002
-2.36341
-2.36759
-2.37266
-2.37883
-2.38608
-2.38334
-2.38195
-2.38034
-2.37891
-2.37778
-2.37692
-2.37628
-2.37583
-2.37555
-2.37537
-2.37525
-2.37515
-2.37502
-2.37483
-2.37455
-2.3742
-2.3738
-2.37341
-2.37312
-2.30768
-2.37304
)
;
    }
}


// ************************************************************************* //
