/*--------------------------------*- C++ -*----------------------------------*\
| =========                 |                                                 |
| \\      /  F ield         | OpenFOAM: The Open Source CFD Toolbox           |
|  \\    /   O peration     | Version:  5.0                                   |
|   \\  /    A nd           | Web:      www.OpenFOAM.org                      |
|    \\/     M anipulation  |                                                 |
\*---------------------------------------------------------------------------*/
FoamFile
{
    version     2.0;
    format      ascii;
    class       surfaceScalarField;
    location    "0.95";
    object      phi;
}
// * * * * * * * * * * * * * * * * * * * * * * * * * * * * * * * * * * * * * //

dimensions      [0 3 -1 0 0 0 0];

internalField   nonuniform List<scalar> 
3781
(
-5.28583e-07
5.28583e-07
-2.06234e-06
1.53376e-06
-3.71192e-06
1.64958e-06
-5.27796e-06
1.56604e-06
-6.77283e-06
1.49488e-06
-8.21949e-06
1.44666e-06
-9.62828e-06
1.40879e-06
-1.0997e-05
1.36875e-06
-1.23165e-05
1.31943e-06
-1.35746e-05
1.25815e-06
-1.47597e-05
1.18509e-06
-1.58616e-05
1.1019e-06
-1.68725e-05
1.01091e-06
-1.77871e-05
9.14576e-07
-1.86023e-05
8.15186e-07
-1.93169e-05
7.14647e-07
-1.99313e-05
6.14394e-07
-2.04467e-05
5.15354e-07
-2.08647e-05
4.18025e-07
-2.11873e-05
3.22575e-07
-2.14159e-05
2.28614e-07
-2.15502e-05
1.34357e-07
-2.15844e-05
3.41918e-08
-2.15107e-05
-7.37392e-08
-2.13355e-05
-1.75145e-07
-2.10659e-05
-2.6968e-07
-2.07052e-05
-3.60687e-07
-2.02525e-05
-4.52655e-07
-1.97028e-05
-5.49728e-07
-1.90481e-05
-6.54702e-07
-1.82811e-05
-7.66944e-07
-1.73997e-05
-8.81474e-07
-1.64122e-05
-9.87453e-07
-1.53314e-05
-1.08082e-06
-1.40478e-05
-1.28358e-06
-1.25555e-05
-1.49227e-06
-1.09586e-05
-1.59697e-06
-9.30309e-06
-1.65548e-06
-7.60524e-06
-1.69785e-06
-5.90462e-06
-1.70062e-06
-4.25346e-06
-1.65116e-06
-2.60509e-06
-1.64837e-06
-1.05399e-06
-1.5511e-06
-1.37608e-06
-1.45367e-06
1.98225e-06
-3.08935e-06
3.16944e-06
-4.78762e-06
3.34785e-06
-6.46529e-06
3.24371e-06
-8.10018e-06
3.12977e-06
-9.68297e-06
3.02945e-06
-1.1201e-05
2.92682e-06
-1.26401e-05
2.80789e-06
-1.39873e-05
2.66662e-06
-1.52321e-05
2.50294e-06
-1.63672e-05
2.32013e-06
-1.73882e-05
2.12291e-06
-1.82935e-05
1.91621e-06
-1.90835e-05
1.70462e-06
-1.97603e-05
1.49193e-06
-2.03267e-05
1.28106e-06
-2.07863e-05
1.07395e-06
-2.11425e-05
8.71634e-07
-2.1399e-05
6.74488e-07
-2.15589e-05
4.82518e-07
-2.16257e-05
2.95361e-07
-2.16033e-05
1.11933e-07
-2.15001e-05
-6.9023e-08
-2.13247e-05
-2.49106e-07
-2.10749e-05
-4.24914e-07
-2.07478e-05
-5.9679e-07
-2.03416e-05
-7.66915e-07
-1.98542e-05
-9.40065e-07
-1.92821e-05
-1.12177e-06
-1.86204e-05
-1.31645e-06
-1.7862e-05
-1.52535e-06
-1.6999e-05
-1.7444e-06
-1.60205e-05
-1.96604e-06
-1.48918e-05
-2.20948e-06
-1.36631e-05
-2.51229e-06
-1.2343e-05
-2.81238e-06
-1.09074e-05
-3.03252e-06
-9.39735e-06
-3.16555e-06
-7.85985e-06
-3.23535e-06
-6.34377e-06
-3.2167e-06
-4.86327e-06
-3.13166e-06
-3.50568e-06
-3.00597e-06
-2.29204e-06
-2.76474e-06
-2.39829e-06
-1.81547e-06
3.79772e-06
-3.41392e-06
4.76789e-06
-5.05557e-06
4.9895e-06
-6.72481e-06
4.91295e-06
-8.36726e-06
4.77222e-06
-9.95123e-06
4.61342e-06
-1.14559e-05
4.43152e-06
-1.28667e-05
4.21865e-06
-1.41732e-05
3.97314e-06
-1.53688e-05
3.69855e-06
-1.64499e-05
3.40117e-06
-1.74151e-05
3.08812e-06
-1.8265e-05
2.76617e-06
-1.90016e-05
2.44119e-06
-1.96276e-05
2.1179e-06
-2.01462e-05
1.79973e-06
-2.05611e-05
1.48884e-06
-2.08758e-05
1.18626e-06
-2.10935e-05
8.92259e-07
-2.12179e-05
6.06913e-07
-2.12528e-05
3.30233e-07
-2.12028e-05
6.19621e-08
-2.10733e-05
-1.98535e-07
-2.08701e-05
-4.52345e-07
-2.05947e-05
-7.00247e-07
-2.02476e-05
-9.43947e-07
-1.98276e-05
-1.18691e-06
-1.93326e-05
-1.43507e-06
-1.87588e-05
-1.69553e-06
-1.81007e-05
-1.97454e-06
-1.73509e-05
-2.27518e-06
-1.64995e-05
-2.59583e-06
-1.55319e-05
-2.9336e-06
-1.4445e-05
-3.29638e-06
-1.32658e-05
-3.69145e-06
-1.20054e-05
-4.07286e-06
-1.06596e-05
-4.37824e-06
-9.2433e-06
-4.58189e-06
-7.8056e-06
-4.67305e-06
-6.38347e-06
-4.63882e-06
-5.03259e-06
-4.48254e-06
-3.84103e-06
-4.19752e-06
-2.8404e-06
-3.76537e-06
-3.21107e-06
-1.93157e-06
5.72929e-06
-3.58956e-06
6.42589e-06
-5.2539e-06
6.65383e-06
-6.93461e-06
6.59366e-06
-8.58085e-06
6.41846e-06
-1.01564e-05
6.18902e-06
-1.16396e-05
5.9147e-06
-1.30174e-05
5.59646e-06
-1.42825e-05
5.23821e-06
-1.54312e-05
4.84722e-06
-1.64624e-05
4.43242e-06
-1.73771e-05
4.00277e-06
-1.81772e-05
3.56625e-06
-1.88655e-05
3.12956e-06
-1.94455e-05
2.69791e-06
-1.99209e-05
2.27507e-06
-2.02953e-05
1.86327e-06
-2.05725e-05
1.46341e-06
-2.07559e-05
1.07569e-06
-2.08493e-05
7.00302e-07
-2.08568e-05
3.37741e-07
-2.07832e-05
-1.16386e-08
-2.06334e-05
-3.48288e-07
-2.0412e-05
-6.7378e-07
-2.01217e-05
-9.90536e-07
-1.97637e-05
-1.30198e-06
-1.93373e-05
-1.61331e-06
-1.88401e-05
-1.93225e-06
-1.82677e-05
-2.26797e-06
-1.76133e-05
-2.62886e-06
-1.68687e-05
-3.01982e-06
-1.60239e-05
-3.44063e-06
-1.50697e-05
-3.88781e-06
-1.40063e-05
-4.35973e-06
-1.28492e-05
-4.84855e-06
-1.16087e-05
-5.31344e-06
-1.0291e-05
-5.69592e-06
-8.91816e-06
-5.95471e-06
-7.52446e-06
-6.06674e-06
-6.15201e-06
-6.01127e-06
-4.8632e-06
-5.77136e-06
-3.74932e-06
-5.31139e-06
-2.86516e-06
-4.64954e-06
-3.90467e-06
-1.97517e-06
7.70446e-06
-3.72735e-06
8.17808e-06
-5.45041e-06
8.37689e-06
-7.15701e-06
8.30025e-06
-8.80882e-06
8.07027e-06
-1.03739e-05
7.75414e-06
-1.18332e-05
7.37392e-06
-1.31763e-05
6.93963e-06
-1.4399e-05
6.46086e-06
-1.55002e-05
5.94847e-06
-1.64814e-05
5.41359e-06
-1.73451e-05
4.8665e-06
-1.80948e-05
4.31594e-06
-1.87343e-05
3.76899e-06
-1.92675e-05
3.23115e-06
-1.96987e-05
2.70631e-06
-2.00321e-05
2.19667e-06
-2.02716e-05
1.7029e-06
-2.04208e-05
1.22491e-06
-2.04836e-05
7.63047e-07
-2.04642e-05
3.18364e-07
-2.03676e-05
-1.08213e-07
-2.01988e-05
-5.17172e-07
-1.99617e-05
-9.10871e-07
-1.96592e-05
-1.29301e-06
-1.92926e-05
-1.66858e-06
-1.88613e-05
-2.04462e-06
-1.83625e-05
-2.431e-06
-1.7791e-05
-2.83951e-06
-1.71387e-05
-3.28111e-06
-1.63961e-05
-3.76247e-06
-1.55532e-05
-4.2835e-06
-1.46028e-05
-4.83823e-06
-1.35444e-05
-5.41812e-06
-1.23855e-05
-6.00741e-06
-1.11339e-05
-6.56513e-06
-9.80254e-06
-7.02724e-06
-8.41909e-06
-7.33815e-06
-7.01971e-06
-7.46612e-06
-5.64462e-06
-7.38636e-06
-4.3481e-06
-7.06788e-06
-3.23584e-06
-6.42365e-06
-2.40281e-06
-5.48257e-06
-4.47478e-06
-2.01315e-06
9.71761e-06
-3.8641e-06
1.0029e-05
-5.65486e-06
1.01677e-05
-7.39289e-06
1.00383e-05
-9.05125e-06
9.72863e-06
-1.0605e-05
9.30792e-06
-1.20392e-05
8.80814e-06
-1.3347e-05
8.24741e-06
-1.45269e-05
7.64069e-06
-1.55805e-05
7.00206e-06
-1.65113e-05
6.34446e-06
-1.73238e-05
5.67901e-06
-1.80227e-05
5.01476e-06
-1.86125e-05
4.35886e-06
-1.90982e-05
3.71687e-06
-1.94847e-05
3.09274e-06
-1.97765e-05
2.48851e-06
-1.9978e-05
1.90434e-06
-2.00927e-05
1.33967e-06
-2.01245e-05
7.94867e-07
-2.00779e-05
2.71725e-07
-1.9958e-05
-2.2814e-07
-1.97697e-05
-7.05402e-07
-1.95171e-05
-1.16348e-06
-1.92027e-05
-1.60747e-06
-1.88275e-05
-2.04379e-06
-1.83909e-05
-2.48117e-06
-1.789e-05
-2.93195e-06
-1.73184e-05
-3.4111e-06
-1.66667e-05
-3.93276e-06
-1.59237e-05
-4.50551e-06
-1.50785e-05
-5.12872e-06
-1.41236e-05
-5.79312e-06
-1.3056e-05
-6.48565e-06
-1.18754e-05
-7.18803e-06
-1.05836e-05
-7.85696e-06
-9.19877e-06
-8.41205e-06
-7.75924e-06
-8.77769e-06
-6.30755e-06
-8.91781e-06
-4.88072e-06
-8.81319e-06
-3.5152e-06
-8.4334e-06
-2.33982e-06
-7.59904e-06
-1.50808e-06
-6.31431e-06
-4.9164e-06
-2.06719e-06
1.17848e-05
-4.01334e-06
1.19752e-05
-5.86935e-06
1.20237e-05
-7.63786e-06
1.18068e-05
-9.3014e-06
1.13922e-05
-1.08424e-05
1.0849e-05
-1.22507e-05
1.02164e-05
-1.35226e-05
9.51935e-06
-1.46596e-05
8.77766e-06
-1.56657e-05
8.0082e-06
-1.65465e-05
7.22529e-06
-1.73081e-05
6.44051e-06
-1.79561e-05
5.66282e-06
-1.84964e-05
4.89912e-06
-1.89344e-05
4.1549e-06
-1.92758e-05
3.43418e-06
-1.95261e-05
2.73872e-06
-1.96895e-05
2.06783e-06
-1.97699e-05
1.42001e-06
-1.97706e-05
7.95572e-07
-1.96962e-05
1.97354e-07
-1.95524e-05
-3.72006e-07
-1.93442e-05
-9.13515e-07
-1.90756e-05
-1.43209e-06
-1.87486e-05
-1.93447e-06
-1.83642e-05
-2.42827e-06
-1.79217e-05
-2.92363e-06
-1.74183e-05
-3.43538e-06
-1.6847e-05
-3.98242e-06
-1.61967e-05
-4.583e-06
-1.54541e-05
-5.24809e-06
-1.46067e-05
-5.97615e-06
-1.36456e-05
-6.75421e-06
-1.25636e-05
-7.56763e-06
-1.13487e-05
-8.40297e-06
-9.99016e-06
-9.2155e-06
-8.51074e-06
-9.89146e-06
-6.96884e-06
-1.03196e-05
-5.42317e-06
-1.04635e-05
-3.91007e-06
-1.03263e-05
-2.42662e-06
-9.91685e-06
-1.12907e-06
-8.89658e-06
-2.44429e-07
-7.19895e-06
-5.25998e-06
-2.14183e-06
1.39266e-05
-4.17657e-06
1.40099e-05
-6.08924e-06
1.39363e-05
-7.8824e-06
1.35999e-05
-9.54728e-06
1.30571e-05
-1.10732e-05
1.23749e-05
-1.24543e-05
1.15974e-05
-1.36901e-05
1.07552e-05
-1.47847e-05
9.87221e-06
-1.57442e-05
8.96772e-06
-1.6576e-05
8.05713e-06
-1.72876e-05
7.15211e-06
-1.7886e-05
6.26113e-06
-1.83775e-05
5.39061e-06
-1.87685e-05
4.54595e-06
-1.90656e-05
3.7313e-06
-1.9275e-05
2.94808e-06
-1.94014e-05
2.19427e-06
-1.94481e-05
1.46673e-06
-1.94181e-05
7.65506e-07
-1.93158e-05
9.51274e-08
-1.91477e-05
-5.40127e-07
-1.89195e-05
-1.14177e-06
-1.86346e-05
-1.71694e-06
-1.82947e-05
-2.2744e-06
-1.79004e-05
-2.82254e-06
-1.7452e-05
-3.37204e-06
-1.69472e-05
-3.94014e-06
-1.63792e-05
-4.55046e-06
-1.57355e-05
-5.22668e-06
-1.50005e-05
-5.98313e-06
-1.41594e-05
-6.81718e-06
-1.3202e-05
-7.71163e-06
-1.21146e-05
-8.65505e-06
-1.08648e-05
-9.6528e-06
-9.41558e-06
-1.06647e-05
-7.79534e-06
-1.15117e-05
-6.09594e-06
-1.2019e-05
-4.41042e-06
-1.2149e-05
-2.7918e-06
-1.19449e-05
-1.15949e-06
-1.15492e-05
3.04638e-07
-1.03607e-05
1.30189e-06
-8.19621e-06
-5.55842e-06
-2.234e-06
1.61606e-05
-4.34573e-06
1.61216e-05
-6.30108e-06
1.58917e-05
-8.10905e-06
1.54079e-05
-9.76936e-06
1.47174e-05
-1.12772e-05
1.38827e-05
-1.26302e-05
1.29504e-05
-1.38305e-05
1.19555e-05
-1.4884e-05
1.09257e-05
-1.57989e-05
9.88258e-06
-1.6584e-05
8.84225e-06
-1.7248e-05
7.81617e-06
-1.77989e-05
6.81202e-06
-1.82438e-05
5.83548e-06
-1.85897e-05
4.8919e-06
-1.88444e-05
3.98592e-06
-1.90149e-05
3.11858e-06
-1.91064e-05
2.28581e-06
-1.91214e-05
1.48176e-06
-1.90618e-05
7.05897e-07
-1.89323e-05
-3.44205e-08
-1.87402e-05
-7.32182e-07
-1.84923e-05
-1.38969e-06
-1.81917e-05
-2.01749e-06
-1.78392e-05
-2.62699e-06
-1.74353e-05
-3.22641e-06
-1.69819e-05
-3.8254e-06
-1.64792e-05
-4.44291e-06
-1.59214e-05
-5.10826e-06
-1.52957e-05
-5.85236e-06
-1.45843e-05
-6.69446e-06
-1.3771e-05
-7.63057e-06
-1.28445e-05
-8.63813e-06
-1.17824e-05
-9.71713e-06
-1.0517e-05
-1.09182e-05
-8.96298e-06
-1.22187e-05
-7.14664e-06
-1.33281e-05
-5.20225e-06
-1.39634e-05
-3.29702e-06
-1.40542e-05
-1.56155e-06
-1.36804e-05
2.15314e-07
-1.3326e-05
1.84692e-06
-1.19923e-05
3.00306e-06
-9.35235e-06
-5.94673e-06
-2.33175e-06
1.84924e-05
-4.50042e-06
1.82903e-05
-6.47921e-06
1.78705e-05
-8.28911e-06
1.72178e-05
-9.93804e-06
1.63663e-05
-1.14253e-05
1.537e-05
-1.27505e-05
1.42756e-05
-1.39172e-05
1.31223e-05
-1.49329e-05
1.19414e-05
-1.58069e-05
1.07566e-05
-1.65493e-05
9.58473e-06
-1.71701e-05
8.43689e-06
-1.76777e-05
7.31963e-06
-1.80798e-05
6.23758e-06
-1.83842e-05
5.19631e-06
-1.85997e-05
4.20142e-06
-1.87349e-05
3.25375e-06
-1.87953e-05
2.3462e-06
-1.8782e-05
1.46855e-06
-1.86953e-05
6.1919e-07
-1.854e-05
-1.89803e-07
-1.83253e-05
-9.46873e-07
-1.80594e-05
-1.65558e-06
-1.77449e-05
-2.33193e-06
-1.73811e-05
-2.99084e-06
-1.69687e-05
-3.63875e-06
-1.65128e-05
-4.28133e-06
-1.6018e-05
-4.93775e-06
-1.54822e-05
-5.64408e-06
-1.48937e-05
-6.44082e-06
-1.42339e-05
-7.35426e-06
-1.3486e-05
-8.37843e-06
-1.26417e-05
-9.48246e-06
-1.16688e-05
-1.069e-05
-1.04483e-05
-1.21387e-05
-8.80513e-06
-1.38619e-05
-6.71412e-06
-1.54191e-05
-4.34997e-06
-1.63275e-05
-2.05602e-06
-1.63482e-05
-1.70555e-07
-1.55659e-05
1.66168e-06
-1.51583e-05
3.33796e-06
-1.36686e-05
4.61918e-06
-1.06336e-05
-6.6069e-06
-2.44951e-06
2.09419e-05
-4.68507e-06
2.05259e-05
-6.69991e-06
1.98853e-05
-8.53003e-06
1.90479e-05
-1.01909e-05
1.80272e-05
-1.16834e-05
1.68625e-05
-1.30068e-05
1.5599e-05
-1.4165e-05
1.42805e-05
-1.51661e-05
1.29424e-05
-1.60204e-05
1.16109e-05
-1.67393e-05
1.03036e-05
-1.73336e-05
9.03118e-06
-1.78127e-05
7.79869e-06
-1.81846e-05
6.60945e-06
-1.84577e-05
5.46944e-06
-1.86424e-05
4.38617e-06
-1.87494e-05
3.36068e-06
-1.87848e-05
2.38163e-06
-1.87479e-05
1.43169e-06
-1.8636e-05
5.07227e-07
-1.84541e-05
-3.71643e-07
-1.82151e-05
-1.1859e-06
-1.79294e-05
-1.94127e-06
-1.75987e-05
-2.66262e-06
-1.72197e-05
-3.36988e-06
-1.67936e-05
-4.06487e-06
-1.63307e-05
-4.7442e-06
-1.58438e-05
-5.42461e-06
-1.53378e-05
-6.15008e-06
-1.48051e-05
-6.9736e-06
-1.42283e-05
-7.931e-06
-1.35939e-05
-9.01287e-06
-1.29028e-05
-1.01736e-05
-1.21203e-05
-1.14725e-05
-1.10505e-05
-1.32084e-05
-9.32079e-06
-1.55916e-05
-6.72056e-06
-1.80193e-05
-3.46866e-06
-1.95794e-05
-4.0816e-07
-1.94087e-05
1.69759e-06
-1.76716e-05
3.26301e-06
-1.67237e-05
4.61047e-06
-1.5016e-05
5.84323e-06
-1.18663e-05
-7.83002e-06
-2.46153e-06
2.34034e-05
-4.7076e-06
2.2772e-05
-6.71663e-06
2.18943e-05
-8.5392e-06
2.08705e-05
-1.01961e-05
1.96841e-05
-1.16856e-05
1.8352e-05
-1.30037e-05
1.69171e-05
-1.41527e-05
1.54294e-05
-1.51404e-05
1.39301e-05
-1.59778e-05
1.24483e-05
-1.66767e-05
1.10026e-05
-1.7249e-05
9.60349e-06
-1.77048e-05
8.25443e-06
-1.8052e-05
6.95669e-06
-1.82995e-05
5.71695e-06
-1.84592e-05
4.54583e-06
-1.85441e-05
3.4456e-06
-1.85618e-05
2.39934e-06
-1.85089e-05
1.37876e-06
-1.83781e-05
3.76439e-07
-1.81753e-05
-5.74433e-07
-1.79181e-05
-1.44312e-06
-1.76203e-05
-2.23904e-06
-1.72818e-05
-3.00109e-06
-1.68954e-05
-3.75629e-06
-1.64627e-05
-4.49763e-06
-1.6002e-05
-5.20489e-06
-1.55384e-05
-5.88821e-06
-1.50879e-05
-6.60059e-06
-1.46521e-05
-7.40933e-06
-1.42221e-05
-8.36103e-06
-1.37949e-05
-9.4401e-06
-1.33952e-05
-1.05732e-05
-1.2985e-05
-1.18827e-05
-1.22759e-05
-1.39175e-05
-1.04198e-05
-1.74477e-05
-6.56693e-06
-2.18721e-05
-1.7606e-06
-2.43858e-05
2.15723e-06
-2.33265e-05
4.27094e-06
-1.97853e-05
4.70185e-06
-1.71546e-05
5.09361e-06
-1.54078e-05
5.86213e-06
-1.26349e-05
-9.33288e-06
-2.26687e-06
2.56703e-05
-4.48639e-06
2.49915e-05
-6.46651e-06
2.38745e-05
-8.27714e-06
2.26811e-05
-9.93965e-06
2.13466e-05
-1.14424e-05
1.98548e-05
-1.27727e-05
1.82474e-05
-1.393e-05
1.65867e-05
-1.49219e-05
1.4922e-05
-1.57592e-05
1.32856e-05
-1.64542e-05
1.16976e-05
-1.70201e-05
1.01694e-05
-1.7468e-05
8.70229e-06
-1.78054e-05
7.29409e-06
-1.80407e-05
5.9523e-06
-1.8187e-05
4.6921e-06
-1.82604e-05
3.51905e-06
-1.82711e-05
2.41003e-06
-1.82128e-05
1.32043e-06
-1.80719e-05
2.3557e-07
-1.78557e-05
-7.90608e-07
-1.75881e-05
-1.71076e-06
-1.7287e-05
-2.5402e-06
-1.69493e-05
-3.33878e-06
-1.65627e-05
-4.14288e-06
-1.6129e-05
-4.93128e-06
-1.56768e-05
-5.65712e-06
-1.52457e-05
-6.31925e-06
-1.48661e-05
-6.98023e-06
-1.4557e-05
-7.71846e-06
-1.43312e-05
-8.58682e-06
-1.42154e-05
-9.55583e-06
-1.43016e-05
-1.04871e-05
-1.45959e-05
-1.15884e-05
-1.44462e-05
-1.40673e-05
-1.14221e-05
-2.04719e-05
-5.89272e-06
-2.74015e-05
-5.8125e-07
-2.96972e-05
3.50305e-06
-2.74108e-05
5.86977e-06
-2.2152e-05
5.38763e-06
-1.66725e-05
4.7628e-06
-1.4783e-05
4.81817e-06
-1.26902e-05
-1.10784e-05
-1.77835e-06
2.74486e-05
-3.88522e-06
2.70983e-05
-5.80846e-06
2.57977e-05
-7.62118e-06
2.44938e-05
-9.31964e-06
2.30451e-05
-1.0864e-05
2.13991e-05
-1.22315e-05
1.96149e-05
-1.34212e-05
1.77765e-05
-1.44409e-05
1.59417e-05
-1.53011e-05
1.41458e-05
-1.60141e-05
1.24106e-05
-1.65943e-05
1.07496e-05
-1.70555e-05
9.16348e-06
-1.74073e-05
7.64593e-06
-1.76523e-05
6.19729e-06
-1.78023e-05
4.84207e-06
-1.78776e-05
3.59436e-06
-1.78933e-05
2.42574e-06
-1.78428e-05
1.27e-06
-1.77047e-05
9.73779e-08
-1.74891e-05
-1.00613e-06
-1.72251e-05
-1.97475e-06
-1.69328e-05
-2.83249e-06
-1.66055e-05
-3.66617e-06
-1.62277e-05
-4.52067e-06
-1.58025e-05
-5.35644e-06
-1.53665e-05
-6.09308e-06
-1.49701e-05
-6.71573e-06
-1.46549e-05
-7.29542e-06
-1.44724e-05
-7.90092e-06
-1.4509e-05
-8.55019e-06
-1.49169e-05
-9.14802e-06
-1.60425e-05
-9.36148e-06
-1.80474e-05
-9.58345e-06
-1.83119e-05
-1.38028e-05
-1.30316e-05
-2.57521e-05
-7.24976e-06
-3.31833e-05
-2.77078e-06
-3.41762e-05
1.49578e-06
-3.16774e-05
4.94307e-06
-2.55993e-05
5.77978e-06
-1.75092e-05
4.31573e-06
-1.33189e-05
6.68872e-06
-1.50632e-05
-1.87306e-05
-1.22421e-06
2.86728e-05
-2.88978e-06
2.87639e-05
-4.68266e-06
2.75906e-05
-6.5301e-06
2.63413e-05
-8.3194e-06
2.48344e-05
-9.94025e-06
2.302e-05
-1.13682e-05
2.10429e-05
-1.26119e-05
1.90201e-05
-1.36822e-05
1.7012e-05
-1.45897e-05
1.50532e-05
-1.53445e-05
1.31654e-05
-1.59618e-05
1.13669e-05
-1.6459e-05
9.66068e-06
-1.68506e-05
8.03752e-06
-1.71274e-05
6.47408e-06
-1.73007e-05
5.01539e-06
-1.73928e-05
3.68651e-06
-1.74194e-05
2.45235e-06
-1.73792e-05
1.22974e-06
-1.72607e-05
-2.10758e-08
-1.70773e-05
-1.18956e-06
-1.68448e-05
-2.20726e-06
-1.65724e-05
-3.10485e-06
-1.62556e-05
-3.98296e-06
-1.5893e-05
-4.88333e-06
-1.54941e-05
-5.75528e-06
-1.5088e-05
-6.49922e-06
-1.47164e-05
-7.08736e-06
-1.44287e-05
-7.58307e-06
-1.43408e-05
-7.98878e-06
-1.47711e-05
-8.11989e-06
-1.6337e-05
-7.58221e-06
-2.13329e-05
-4.36554e-06
-2.87868e-05
-2.12952e-06
-2.41981e-05
-1.83916e-05
-1.66513e-05
-3.32989e-05
-1.16883e-05
-3.81463e-05
-6.74145e-06
-3.91231e-05
-1.1169e-06
-3.73019e-05
4.49857e-06
-3.12148e-05
2.08929e-05
-3.39035e-05
3.18739e-05
-2.43e-05
3.57781e-05
-1.89674e-05
-1.8881e-05
-1.07813e-06
2.9751e-05
-1.73585e-06
2.94216e-05
-3.31885e-06
2.91736e-05
-5.24447e-06
2.82669e-05
-7.14758e-06
2.67375e-05
-8.80907e-06
2.46814e-05
-1.02645e-05
2.24983e-05
-1.15362e-05
2.02918e-05
-1.26474e-05
1.81232e-05
-1.36048e-05
1.60107e-05
-1.44153e-05
1.39759e-05
-1.50882e-05
1.20397e-05
-1.56375e-05
1.021e-05
-1.60801e-05
8.4801e-06
-1.64189e-05
6.81288e-06
-1.66559e-05
5.25245e-06
-1.67944e-05
3.82494e-06
-1.68331e-05
2.49109e-06
-1.67886e-05
1.18521e-06
-1.67123e-05
-9.73253e-08
-1.66124e-05
-1.28951e-06
-1.64449e-05
-2.37477e-06
-1.61926e-05
-3.35712e-06
-1.58686e-05
-4.30697e-06
-1.55172e-05
-5.23472e-06
-1.51741e-05
-6.09835e-06
-1.48403e-05
-6.83309e-06
-1.45174e-05
-7.41024e-06
-1.42513e-05
-7.84918e-06
-1.42509e-05
-7.98913e-06
-1.63599e-05
-6.01095e-06
-2.98682e-05
5.9261e-06
-5.05661e-05
1.63324e-05
-4.35584e-05
-9.13718e-06
-2.9474e-05
-3.2476e-05
-2.2573e-05
-4.01999e-05
-1.7494e-05
-4.32253e-05
-1.14226e-05
-4.51945e-05
1.08008e-07
-4.88325e-05
2.19145e-05
-5.30213e-05
3.45117e-05
-4.65007e-05
3.69721e-05
-2.67604e-05
3.37448e-05
-1.57401e-05
-4.50287e-06
-4.35166e-06
3.41026e-05
-1.78014e-06
2.68501e-05
-2.56815e-06
2.99616e-05
-4.00341e-06
2.97022e-05
-5.49179e-06
2.82259e-05
-6.81756e-06
2.60072e-05
-7.96396e-06
2.36448e-05
-8.94985e-06
2.12776e-05
-9.80284e-06
1.89762e-05
-1.05442e-05
1.6752e-05
-1.11922e-05
1.4624e-05
-1.17658e-05
1.26132e-05
-1.22956e-05
1.07398e-05
-1.28381e-05
9.02259e-06
-1.34387e-05
7.41352e-06
-1.40451e-05
5.85885e-06
-1.45561e-05
4.3359e-06
-1.49033e-05
2.83831e-06
-1.50795e-05
1.3614e-06
-1.51534e-05
-2.34264e-08
-1.526e-05
-1.18293e-06
-1.5471e-05
-2.16375e-06
-1.57294e-05
-3.09875e-06
-1.60601e-05
-3.97625e-06
-1.65925e-05
-4.70232e-06
-1.75909e-05
-5.09994e-06
-1.93765e-05
-5.04751e-06
-2.23446e-05
-4.44216e-06
-2.70122e-05
-3.18165e-06
-3.39038e-05
-1.09747e-06
-4.40878e-05
4.17298e-06
-5.20039e-05
1.38422e-05
-4.62257e-05
1.05542e-05
-3.65495e-05
-1.88134e-05
-3.30416e-05
-3.59839e-05
-2.9163e-05
-4.40785e-05
-2.33418e-05
-4.90466e-05
-1.49249e-05
-5.36113e-05
-4.34355e-06
-5.94138e-05
5.27055e-06
-6.26354e-05
1.12049e-05
-5.2435e-05
2.05895e-05
-3.6145e-05
1.73948e-05
-1.25454e-05
1.57931e-05
-2.01265e-06
3.61153e-05
-2.7398e-06
2.75773e-05
-2.77177e-06
2.99936e-05
-3.1907e-06
3.01211e-05
-3.63501e-06
2.86702e-05
-4.16501e-06
2.65372e-05
-4.73249e-06
2.42122e-05
-5.31512e-06
2.18603e-05
-5.89553e-06
1.95567e-05
-6.47335e-06
1.73298e-05
-7.05018e-06
1.52008e-05
-7.62682e-06
1.31899e-05
-8.2038e-06
1.13168e-05
-8.77663e-06
9.59542e-06
-9.36044e-06
7.99733e-06
-9.97336e-06
6.47177e-06
-1.0613e-05
4.97554e-06
-1.12625e-05
3.48777e-06
-1.19233e-05
2.02221e-06
-1.26142e-05
6.67445e-07
-1.33307e-05
-4.66389e-07
-1.40875e-05
-1.40692e-06
-1.49489e-05
-2.23741e-06
-1.60171e-05
-2.90802e-06
-1.74672e-05
-3.2523e-06
-1.95696e-05
-2.99754e-06
-2.26763e-05
-1.94084e-06
-2.70999e-05
-1.85492e-08
-3.29932e-05
2.71161e-06
-4.014e-05
6.04937e-06
-4.57882e-05
9.8211e-06
-4.36368e-05
1.16908e-05
-3.53451e-05
2.26248e-06
-3.34963e-05
-2.06622e-05
-3.31244e-05
-3.63558e-05
-3.1268e-05
-4.59348e-05
-2.60427e-05
-5.4272e-05
-1.85855e-05
-6.10685e-05
-1.21686e-05
-6.58307e-05
-7.44163e-06
-6.73624e-05
4.27369e-07
-6.0304e-05
1.08165e-05
-4.65341e-05
2.05864e-06
-3.78754e-06
3.54571e-05
4.32587e-07
3.56827e-05
-1.33989e-06
2.93497e-05
-1.71366e-06
3.03673e-05
-1.51777e-06
2.99252e-05
-1.33215e-06
2.84846e-05
-1.31856e-06
2.65236e-05
-1.46056e-06
2.43543e-05
-1.72906e-06
2.21288e-05
-2.09695e-06
1.99245e-05
-2.548e-06
1.77809e-05
-3.06952e-06
1.57224e-05
-3.64889e-06
1.37692e-05
-4.27135e-06
1.19393e-05
-4.92033e-06
1.02444e-05
-5.59643e-06
8.67343e-06
-6.31683e-06
7.19217e-06
-7.10268e-06
5.76139e-06
-7.97194e-06
4.35702e-06
-8.94047e-06
2.99074e-06
-1.00089e-05
1.7359e-06
-1.11568e-05
6.81516e-07
-1.23964e-05
-1.67358e-07
-1.38084e-05
-8.25438e-07
-1.55146e-05
-1.20184e-06
-1.76746e-05
-1.09224e-06
-2.04681e-05
-2.04101e-07
-2.40841e-05
1.67517e-06
-2.86081e-05
4.50545e-06
-3.37858e-05
7.88925e-06
-3.86459e-05
1.09095e-05
-4.0645e-05
1.18201e-05
-3.69156e-05
7.96145e-06
-3.00871e-05
-4.56602e-06
-2.91964e-05
-2.15529e-05
-3.1703e-05
-3.38492e-05
-3.00984e-05
-4.75395e-05
-2.6495e-05
-5.78753e-05
-2.17037e-05
-6.58598e-05
-1.73898e-05
-7.01447e-05
-1.35879e-05
-7.11642e-05
-6.06841e-06
-6.78236e-05
4.64075e-07
-5.30666e-05
-1.15017e-05
8.17821e-06
4.91842e-05
2.01107e-06
3.36716e-05
2.59539e-07
3.11013e-05
1.13903e-07
3.0513e-05
5.31812e-07
2.95073e-05
9.8706e-07
2.80293e-05
1.29807e-06
2.62126e-05
1.43296e-06
2.42194e-05
1.39904e-06
2.21627e-05
1.21278e-06
2.01108e-05
8.90589e-07
1.81031e-05
4.48515e-07
1.61645e-05
-9.66869e-08
1.43144e-05
-7.27057e-07
1.25696e-05
-1.42449e-06
1.09418e-05
-2.18068e-06
9.42961e-06
-3.00379e-06
8.01529e-06
-3.91505e-06
6.67264e-06
-4.94091e-06
5.38287e-06
-6.10519e-06
4.15502e-06
-7.41296e-06
3.04367e-06
-8.85282e-06
2.12137e-06
-1.04447e-05
1.42453e-06
-1.22625e-05
9.92351e-07
-1.44053e-05
9.40935e-07
-1.69765e-05
1.47892e-06
-2.00474e-05
2.86678e-06
-2.36302e-05
5.25792e-06
-2.76119e-05
8.48714e-06
-3.16024e-05
1.18798e-05
-3.4754e-05
1.40611e-05
-3.5907e-05
1.29731e-05
-3.46304e-05
6.68488e-06
-3.34614e-05
-5.73504e-06
-3.39962e-05
-2.10181e-05
-3.25157e-05
-3.53298e-05
-2.96256e-05
-5.04296e-05
-2.67682e-05
-6.07327e-05
-2.36689e-05
-6.89591e-05
-2.06155e-05
-7.3198e-05
-1.8191e-05
-7.35887e-05
-1.62016e-05
-6.9813e-05
-1.23154e-05
-5.69528e-05
-2.16937e-05
1.75565e-05
5.64371e-05
2.13453e-06
3.15371e-05
1.54974e-06
3.16861e-05
1.77785e-06
3.02849e-05
2.36348e-06
2.89216e-05
2.98282e-06
2.741e-05
3.48532e-06
2.57101e-05
3.81836e-06
2.38863e-05
3.97088e-06
2.20102e-05
3.94813e-06
2.01335e-05
3.76109e-06
1.82901e-05
3.42306e-06
1.65025e-05
2.94901e-06
1.47885e-05
2.35526e-06
1.31634e-05
1.658e-06
1.16391e-05
8.67796e-07
1.02198e-05
-1.63125e-08
8.89939e-06
-1.00835e-06
7.66466e-06
-2.13158e-06
6.50609e-06
-3.41004e-06
5.43349e-06
-4.85553e-06
4.48914e-06
-6.46976e-06
3.7356e-06
-8.27441e-06
3.22918e-06
-1.03229e-05
3.04083e-06
-1.26782e-05
3.29622e-06
-1.53802e-05
4.18092e-06
-1.84066e-05
5.89312e-06
-2.16484e-05
8.49975e-06
-2.48905e-05
1.17292e-05
-2.77758e-05
1.4765e-05
-2.98396e-05
1.61249e-05
-3.08294e-05
1.39629e-05
-3.11087e-05
6.9642e-06
-3.19445e-05
-4.8993e-06
-3.33833e-05
-1.95793e-05
-3.34844e-05
-3.52287e-05
-3.21084e-05
-5.18055e-05
-2.74924e-05
-6.53487e-05
-2.5222e-05
-7.12295e-05
-2.31303e-05
-7.52897e-05
-2.17969e-05
-7.49222e-05
-2.13895e-05
-7.02204e-05
-2.18204e-05
-5.65219e-05
-2.70435e-05
2.27796e-05
-3.05784e-05
5.9972e-05
6.12547e-05
1.83146e-06
2.97056e-05
2.34295e-06
3.11746e-05
2.99805e-06
2.96298e-05
3.77605e-06
2.81436e-05
4.54058e-06
2.66455e-05
5.19222e-06
2.50585e-05
5.68139e-06
2.33971e-05
5.99022e-06
2.17013e-05
6.11686e-06
2.00069e-05
6.06661e-06
1.83403e-05
5.84826e-06
1.67208e-05
5.47288e-06
1.51639e-05
4.95317e-06
1.36831e-05
4.30212e-06
1.22901e-05
3.52955e-06
1.09924e-05
2.63786e-06
9.79107e-06
1.61942e-06
8.68309e-06
4.57792e-07
7.66772e-06
-8.66641e-07
6.75792e-06
-2.36775e-06
5.99025e-06
-4.05353e-06
5.42137e-06
-5.94098e-06
5.11662e-06
-8.05986e-06
5.15969e-06
-1.04341e-05
5.67048e-06
-1.30513e-05
6.79809e-06
-1.5828e-05
8.66977e-06
-1.85967e-05
1.12684e-05
-2.11206e-05
1.42532e-05
-2.31418e-05
1.67862e-05
-2.45129e-05
1.74959e-05
-2.53879e-05
1.48379e-05
-2.62768e-05
7.85312e-06
-2.78954e-05
-3.28068e-06
-3.01748e-05
-1.72999e-05
-3.20812e-05
-3.33223e-05
-3.25776e-05
-5.13091e-05
-2.99362e-05
-6.79902e-05
-2.68704e-05
-7.42953e-05
-2.52997e-05
-7.68603e-05
-2.47519e-05
-7.547e-05
-2.53343e-05
-6.9638e-05
-2.86278e-05
-5.32284e-05
-2.93311e-05
2.34829e-05
-3.10919e-05
6.17328e-05
6.25641e-05
1.63511e-06
2.80705e-05
2.75514e-06
3.00545e-05
3.76952e-06
2.86154e-05
4.74646e-06
2.71667e-05
5.65172e-06
2.57402e-05
6.43295e-06
2.42772e-05
7.05467e-06
2.27754e-05
7.49993e-06
2.12561e-05
7.76371e-06
1.97431e-05
7.84738e-06
1.82567e-05
7.75578e-06
1.68125e-05
7.49603e-06
1.54237e-05
7.07692e-06
1.41022e-05
6.50794e-06
1.28591e-05
5.79705e-06
1.17033e-05
4.94771e-06
1.06404e-05
3.95654e-06
9.67426e-06
2.81329e-06
8.81097e-06
1.50433e-06
8.06688e-06
1.84296e-08
7.47614e-06
-1.65146e-06
7.09125e-06
-3.5134e-06
6.97854e-06
-5.57485e-06
7.22113e-06
-7.82701e-06
7.92263e-06
-1.02207e-05
9.19171e-06
-1.26427e-05
1.10918e-05
-1.49143e-05
1.354e-05
-1.68265e-05
1.61653e-05
-1.82241e-05
1.81837e-05
-1.91386e-05
1.84105e-05
-1.98836e-05
1.55829e-05
-2.09686e-05
8.93808e-06
-2.28393e-05
-1.40994e-06
-2.54262e-05
-1.4713e-05
-2.81871e-05
-3.05613e-05
-3.05549e-05
-4.89413e-05
-3.11823e-05
-6.73628e-05
-2.84627e-05
-7.70148e-05
-2.73439e-05
-7.79791e-05
-2.72116e-05
-7.56024e-05
-2.88025e-05
-6.80471e-05
-3.30381e-05
-4.89928e-05
-2.99918e-05
2.04365e-05
-3.08369e-05
6.2578e-05
6.3556e-05
1.55332e-06
2.65172e-05
2.9573e-06
2.86505e-05
4.20388e-06
2.73688e-05
5.34272e-06
2.60279e-05
6.37153e-06
2.47114e-05
7.26523e-06
2.33835e-05
8.00127e-06
2.20393e-05
8.56627e-06
2.0691e-05
8.95451e-06
1.93549e-05
9.16514e-06
1.8046e-05
9.20022e-06
1.67774e-05
9.06374e-06
1.55601e-05
8.76119e-06
1.44048e-05
8.29889e-06
1.33214e-05
7.68269e-06
1.23195e-05
6.91593e-06
1.14072e-05
5.99775e-06
1.05924e-05
4.92277e-06
9.88596e-06
3.68314e-06
9.3065e-06
2.27266e-06
8.88661e-06
6.89446e-07
8.67445e-06
-1.06401e-06
8.73199e-06
-2.97666e-06
9.13377e-06
-5.01641e-06
9.96237e-06
-7.11337e-06
1.12886e-05
-9.14726e-06
1.31257e-05
-1.09555e-05
1.53482e-05
-1.23768e-05
1.75867e-05
-1.33383e-05
1.91453e-05
-1.39623e-05
1.90345e-05
-1.46056e-05
1.62262e-05
-1.57404e-05
1.00728e-05
-1.77133e-05
5.63052e-07
-2.05416e-05
-1.18848e-05
-2.40353e-05
-2.70676e-05
-2.79486e-05
-4.5028e-05
-3.09953e-05
-6.43161e-05
-2.9771e-05
-7.82391e-05
-2.92727e-05
-7.84774e-05
-2.93592e-05
-7.55158e-05
-3.0311e-05
-6.70953e-05
-3.34919e-05
-4.58119e-05
-2.88516e-05
1.57962e-05
-2.98332e-05
6.35597e-05
6.42974e-05
1.51637e-06
2.50008e-05
3.04088e-06
2.7126e-05
4.41594e-06
2.59938e-05
5.66386e-06
2.478e-05
6.78627e-06
2.3589e-05
7.76988e-06
2.23999e-05
8.60019e-06
2.1209e-05
9.26703e-06
2.00242e-05
9.76487e-06
1.88571e-05
1.00917e-05
1.77193e-05
1.02476e-05
1.66214e-05
1.02345e-05
1.55732e-05
1.00554e-05
1.4584e-05
9.71399e-06
1.36628e-05
9.21427e-06
1.28192e-05
8.55906e-06
1.20624e-05
7.74894e-06
1.14026e-05
6.78206e-06
1.08528e-05
5.65557e-06
1.0433e-05
4.36871e-06
1.01734e-05
2.92597e-06
1.01172e-05
1.33954e-06
1.03184e-05
-3.65955e-07
1.08393e-05
-2.14449e-06
1.17409e-05
-3.91826e-06
1.30624e-05
-5.57399e-06
1.47814e-05
-6.97717e-06
1.67513e-05
-8.01605e-06
1.86255e-05
-8.67673e-06
1.98059e-05
-9.122e-06
1.94797e-05
-9.70389e-06
1.68081e-05
-1.08495e-05
1.12184e-05
-1.28733e-05
2.58693e-06
-1.58684e-05
-8.88968e-06
-1.98371e-05
-2.30989e-05
-2.47704e-05
-4.00947e-05
-2.99001e-05
-5.91864e-05
-3.15065e-05
-7.66327e-05
-3.17523e-05
-7.82317e-05
-3.25159e-05
-7.47522e-05
-3.4e-05
-6.56113e-05
-3.53657e-05
-4.44462e-05
-2.85894e-05
9.0199e-06
-2.8589e-05
6.35594e-05
6.4522e-05
1.48617e-06
2.35146e-05
3.05339e-06
2.55588e-05
4.4888e-06
2.45584e-05
5.79791e-06
2.34708e-05
6.98063e-06
2.24063e-05
8.02825e-06
2.13523e-05
8.93058e-06
2.03067e-05
9.67957e-06
1.92752e-05
1.027e-05
1.82666e-05
1.06992e-05
1.72901e-05
1.09661e-05
1.63546e-05
1.10709e-05
1.54685e-05
1.10148e-05
1.464e-05
1.07999e-05
1.38777e-05
1.04287e-05
1.31904e-05
9.90331e-06
1.25878e-05
9.22524e-06
1.20806e-05
8.39515e-06
1.16829e-05
7.41413e-06
1.1414e-05
6.28623e-06
1.13013e-05
5.0215e-06
1.13819e-05
3.63932e-06
1.17006e-05
2.17274e-06
1.23058e-05
6.74235e-07
1.32394e-05
-7.79531e-07
1.45162e-05
-2.0897e-06
1.60916e-05
-3.1523e-06
1.78139e-05
-3.89822e-06
1.93714e-05
-4.35323e-06
2.02609e-05
-4.69358e-06
1.98201e-05
-5.24613e-06
1.73606e-05
-6.39525e-06
1.23675e-05
-8.43917e-06
4.63083e-06
-1.1515e-05
-5.81382e-06
-1.57088e-05
-1.89051e-05
-2.11642e-05
-3.46393e-05
-2.7512e-05
-5.28387e-05
-3.26996e-05
-7.14451e-05
-3.40773e-05
-7.68539e-05
-3.57692e-05
-7.30603e-05
-3.775e-05
-6.36305e-05
-3.79371e-05
-4.42591e-05
-3.05304e-05
1.61326e-06
-2.71853e-05
6.02142e-05
6.39551e-05
1.44988e-06
2.20647e-05
3.0212e-06
2.39874e-05
4.47506e-06
2.31045e-05
5.80925e-06
2.21366e-05
7.02294e-06
2.11926e-05
8.10977e-06
2.02654e-05
9.06207e-06
1.93544e-05
9.87323e-06
1.84641e-05
1.05384e-05
1.76014e-05
1.10545e-05
1.6774e-05
1.14196e-05
1.59895e-05
1.16329e-05
1.52551e-05
1.16946e-05
1.45784e-05
1.16053e-05
1.3967e-05
1.13666e-05
1.34292e-05
1.09801e-05
1.29742e-05
1.0448e-05
1.26128e-05
9.77254e-06
1.23583e-05
8.95781e-06
1.22287e-05
8.01142e-06
1.22477e-05
6.94745e-06
1.24458e-05
5.78955e-06
1.28585e-05
4.57435e-06
1.3521e-05
3.35488e-06
1.44588e-05
2.2013e-06
1.56697e-05
1.19545e-06
1.70974e-05
4.13066e-07
1.85963e-05
-1.10144e-07