/*--------------------------------*- C++ -*----------------------------------*\
| =========                 |                                                 |
| \\      /  F ield         | OpenFOAM: The Open Source CFD Toolbox           |
|  \\    /   O peration     | Version:  5.0                                   |
|   \\  /    A nd           | Web:      www.OpenFOAM.org                      |
|    \\/     M anipulation  |                                                 |
\*---------------------------------------------------------------------------*/
FoamFile
{
    version     2.0;
    format      ascii;
    class       volScalarField;
    location    "0.05";
    object      alpha.water;
}
// * * * * * * * * * * * * * * * * * * * * * * * * * * * * * * * * * * * * * //

dimensions      [0 0 0 0 0 0 0];

internalField   nonuniform List<scalar> 
1915
(
7.66972e-15
6.79411e-17
8.41989e-15
9.02674e-17
6.31359e-15
1.17924e-16
2.57623e-15
6.41012e-17
9.34034e-16
2.92046e-17
3.36602e-16
1.30652e-17
1.1812e-16
5.69265e-18
4.16541e-17
2.54997e-18
1.50225e-17
1.24004e-18
5.47583e-18
6.41994e-19
1.07213e-37
9.49337e-38
-1.26168e-42
-5.744e-44
-2.1731e-45
-7.3524e-47
-2.00149e-48
-3.89773e-50
0
1.46085e-66
2.53654e-50
4.68017e-51
2.07989e-52
9.63148e-54
4.61793e-55
2.15281e-56
9.70998e-58
4.22388e-59
1.76657e-60
7.08117e-62
2.71169e-63
9.88792e-65
3.42164e-66
1.11972e-67
3.45251e-69
9.99059e-71
2.70125e-72
6.78982e-74
1.57703e-75
3.35931e-77
6.49977e-79
1.12772e-80
1.72374e-82
2.26349e-84
2.46091e-86
2.09493e-88
1.27926e-90
4.85438e-93
8.91291e-96
4.72652e-99
3.86662e-35
2.08471e-35
1.41651e-37
4.53241e-39
1.386e-40
4.56266e-42
1.68552e-43
6.94052e-45
3.09856e-46
1.45798e-47
3.15273e-48
3.36711e-49
1.6339e-50
7.36877e-52
3.36057e-53
1.48991e-54
6.39266e-56
2.64595e-57
1.05329e-58
4.021e-60
1.46792e-61
5.10983e-63
1.69102e-64
5.30337e-66
1.57076e-67
4.37664e-69
1.14217e-70
2.77728e-72
6.25301e-74
1.29345e-75
2.43358e-77
4.10948e-79
6.11574e-81
7.81707e-83
8.26562e-85
6.83144e-87
4.03326e-89
1.45785e-91
2.36092e-94
3.80986e-98
4.43158e-33
1.7726e-33
1.41498e-35
4.47996e-37
1.39511e-38
4.67084e-40
1.72726e-41
7.02183e-43
3.07091e-44
1.41026e-45
1.31064e-46
1.08287e-47
4.93996e-49
2.0539e-50
8.55656e-52
3.46417e-53
1.35711e-54
5.12837e-56
1.86395e-57
6.49831e-59
2.16739e-60
6.89749e-62
2.08863e-63
6.00001e-65
1.62977e-66
4.17027e-68
1.00093e-69
2.24208e-71
4.65897e-73
8.91435e-75
1.55588e-76
2.44715e-78
3.41257e-80
4.12574e-82
4.18739e-84
3.39767e-86
2.03215e-88
7.63837e-91
1.30064e-93
4.912e-99
2.6088e-31
8.48227e-32
7.17925e-34
2.26216e-35
7.1106e-37
2.38482e-38
8.65052e-40
3.37841e-41
1.39897e-42
6.02936e-44
3.74375e-45
2.46261e-46
1.01554e-47
3.86681e-49
1.46298e-50
5.37621e-52
1.91128e-53
6.55294e-55
2.16068e-56
6.83355e-58
2.06779e-59
5.9713e-61
1.64126e-62
4.28146e-64
1.05665e-65
2.45833e-67
5.3695e-69
1.09581e-70
2.0777e-72
3.63507e-74
5.81932e-76
8.43439e-78
1.09161e-79
1.2383e-81
1.19882e-83
9.50468e-86
5.74151e-88
2.26002e-90
4.53416e-93
2.19501e-98
9.71999e-30
2.72947e-30
2.07978e-32
6.77379e-34
2.29581e-35
8.1183e-37
2.96993e-38
1.11402e-39
4.24538e-41
1.66609e-42
9.19373e-44
4.74225e-45
1.75427e-46
6.15076e-48
2.12342e-49
7.11364e-51
2.30414e-52
7.19426e-54
2.15942e-55
6.21513e-57
1.71097e-58
4.49403e-60
1.12331e-61
2.66455e-63
5.97944e-65
1.26502e-66
2.51308e-68
4.66653e-70
8.05614e-72
1.2848e-73
1.87828e-75
2.49306e-77
2.96734e-79
3.11393e-81
2.80977e-83
2.08771e-85
1.17904e-87
4.92089e-90
1.21036e-92
7.46573e-98
2.57561e-28
6.5757e-29
4.54312e-31
1.53695e-32
5.33353e-34
1.89808e-35
6.8643e-37
2.50065e-38
9.12323e-40
3.46139e-41
2.14777e-42
8.60975e-44
2.84923e-45
9.29583e-47
2.95843e-48
9.12309e-50
2.71738e-51
7.79573e-53
2.14838e-54
5.67312e-56
1.43193e-57
3.44618e-59
7.88755e-61
1.71208e-62
3.51348e-64
6.7932e-66
1.23258e-67
2.08918e-69
3.29036e-71
4.78484e-73
6.37522e-75
7.70096e-77
8.3261e-79
7.9007e-81
6.36608e-83
4.89155e-85
3.05821e-87
1.3882e-89
3.38186e-92
2.05577e-97
5.1967e-27
1.26275e-27
8.52111e-30
3.06567e-31
1.09871e-32
3.95327e-34
1.42367e-35
5.10121e-37
1.82841e-38
6.73735e-40
4.31953e-41
1.49318e-42
4.57023e-44
1.39911e-45
4.1575e-47
1.19483e-48
3.31185e-50
8.83056e-52
2.25924e-53
5.5326e-55
1.29368e-56
2.88117e-58
6.09552e-60
1.22154e-61
2.3114e-63
4.11483e-65
6.86159e-67
1.06631e-68
1.53637e-70
2.0372e-72
2.46234e-74
2.82747e-76
3.02306e-78
2.91391e-80
2.49083e-82
1.83509e-84
1.10408e-86
4.8382e-89
1.13941e-91
6.51195e-97
8.1924e-26
2.00008e-26
1.40715e-28
5.58031e-30
2.11518e-31
7.78495e-33
2.8053e-34
9.9422e-36
3.60407e-37
1.58691e-38
7.96288e-40
2.54825e-41
7.51755e-43
2.1847e-44
6.14298e-46
1.66666e-47
4.35273e-49
1.09167e-50
2.62299e-52
6.02339e-54
1.31872e-55
2.74544e-57
5.41993e-59
1.01136e-60
1.777e-62
2.92831e-64
4.61452e-66
6.96849e-68
9.8156e-70
1.2845e-71
1.55465e-73
1.73022e-75
1.75867e-77
1.61617e-79
1.32031e-81
9.30748e-84
5.36194e-86
2.24542e-88
5.03775e-91
2.64599e-96
4.72275e-24
8.3275e-25
2.07219e-27
9.51461e-29
3.99843e-30
1.56501e-31
5.78496e-33
2.06885e-34
7.67442e-36
4.91864e-37
1.66633e-38
4.85573e-40
1.40411e-41
3.92444e-43
1.05721e-44
2.74018e-46
6.81984e-48
1.62636e-49
3.70782e-51
8.06194e-53
1.66745e-54
3.26829e-56
6.32872e-58
1.16736e-59
2.03403e-61
3.3378e-63
5.14385e-65
7.42178e-67
9.9923e-69
1.25071e-70
1.44924e-72
1.54659e-74
1.5095e-76
1.33337e-78
1.04766e-80
7.10342e-83
3.90307e-85
1.53057e-87
2.99528e-90
-1.30139e-93
5.12186e-23
8.22283e-24
2.34456e-25
7.95986e-27
3.12066e-28
1.14558e-29
3.89805e-31
1.20769e-32
4.02623e-34
1.31463e-35
4.06346e-37
1.20374e-38
3.42736e-40
9.37779e-42
2.46412e-43
6.21068e-45
1.49924e-46
3.45997e-48
7.61817e-50
1.5958e-51
3.25658e-53
6.48093e-55
1.22355e-56
2.18488e-58
3.68211e-60
5.84217e-62
8.70374e-64
1.21403e-65
1.58039e-67
1.91325e-69
2.14513e-71
2.21586e-73
2.09356e-75
1.78919e-77
1.35807e-79
8.86856e-82
4.69867e-84
1.79321e-86
3.64012e-89
-1.8349e-99
1.93033e-18
5.22126e-19
5.23304e-19
2.21024e-19
1.05319e-19
3.97394e-20
1.82855e-20
5.58849e-21
3.20535e-21
7.92948e-22
6.41069e-22
1.24038e-22
1.59133e-22
2.37847e-23
4.91796e-23
5.92845e-24
1.7818e-23
1.85336e-24
7.11543e-24
6.22412e-25
8.94855e-26
6.757e-26
4.08961e-26
1.77429e-26
7.2712e-27
2.92857e-27
1.14937e-27
4.36703e-28
1.59742e-28
5.59694e-29
1.86891e-29
5.9151e-30
1.76329e-30
4.91422e-31
1.26959e-31
3.0118e-32
6.49343e-33
1.25881e-33
2.17148e-34
3.3027e-35
4.39872e-36
5.1113e-37
5.01123e-38
9.03709e-20
1.72165e-20
3.36029e-21
6.05296e-22
5.17721e-20
8.41915e-21
1.19621e-21
1.83035e-22
1.03241e-20
1.68381e-21
2.49508e-22
3.21649e-23
1.34805e-21
2.56094e-22
3.82426e-23
4.8965e-24
1.78507e-22
3.44894e-23
5.27658e-24
6.82425e-25
2.40438e-23
4.53003e-24
6.9543e-25
9.04647e-26
3.71089e-24
6.36368e-25
9.36735e-26
1.20073e-26
7.27668e-25
1.0709e-25
1.41826e-26
1.7119e-27
1.86541e-25
2.33548e-26
2.66605e-27
2.87745e-28
5.95318e-26
6.5474e-27
6.47792e-28
6.12858e-29
1.74913e-26
2.11071e-27
1.81079e-28
1.54677e-29
6.66754e-27
6.82659e-28
5.7199e-29
4.53272e-30
2.94842e-27
2.67354e-28
2.08099e-29
1.5326e-30
1.21628e-27
1.05045e-28
7.77751e-30
5.439e-31
4.79163e-28
3.99469e-29
2.84346e-30
1.91135e-31
1.84751e-28
1.4828e-29
1.01438e-30
6.56581e-32
6.94974e-29
5.36399e-30
3.52458e-31
2.19651e-32
2.53275e-29
1.87904e-30
1.18587e-31
7.11559e-33
8.88707e-30
6.33315e-31
3.83822e-32
2.21743e-33
2.98571e-30
2.04158e-31
1.18766e-32
6.60476e-34
9.55301e-31
6.25917e-32
3.49268e-33
1.86886e-34
2.8947e-31
1.81442e-32
9.70361e-34
4.99299e-35
8.25485e-32
4.94137e-33
2.53065e-34
1.25151e-35
2.19952e-32
1.2552e-33
6.15166e-35
2.92284e-36
5.43154e-33
2.95022e-34
1.38313e-35
6.31332e-37
1.23199e-33
6.36089e-35
2.8529e-36
1.25149e-37
2.54236e-34
1.24675e-35
5.35317e-37
2.25904e-38
4.72722e-35
2.20156e-36
9.0633e-38
3.68573e-39
7.84715e-36
3.47349e-37
1.37439e-38
5.39991e-40
1.15382e-36
4.86283e-38
1.85572e-39
7.06805e-41
1.49429e-37
6.0122e-39
2.22218e-40
8.23873e-42
1.69962e-38
6.54982e-40
2.35611e-41
8.54199e-43
1.65226e-39
6.14405e-41
2.1621e-42
7.70093e-44
9.2377e-23
7.063e-24
3.74687e-25
1.8511e-26
9.06217e-28
4.19897e-29
1.81569e-30
7.28225e-32
2.66009e-33
9.09352e-35
2.95759e-36
9.17699e-38
2.71983e-39
7.70519e-41
2.08685e-42
5.40173e-44
1.33546e-45
3.15058e-47
7.08461e-49
1.51645e-50
3.08401e-52
5.95092e-54
1.08746e-55
1.87791e-57
3.05718e-59
4.67946e-61
6.71434e-63
9.00102e-65
1.12305e-66
1.29819e-68
1.38224e-70
1.34603e-72
1.18316e-74
9.19127e-77
6.07084e-79
3.68001e-81
1.88301e-83
6.90117e-86
1.33915e-88
-2.00474e-98
2.12276e-23
1.41765e-24
9.93587e-26
6.18111e-27
3.38837e-28
1.70858e-29
7.8826e-31
3.42191e-32
1.39954e-33
5.3329e-35
1.90206e-36
6.38572e-38
2.02552e-39
6.08618e-41
1.73546e-42
4.70143e-44
1.2107e-45
2.96409e-47
6.89732e-49
1.52461e-50
3.20114e-52
6.37315e-54
1.20135e-55
2.14081e-57
3.60005e-59
5.70157e-61
8.48545e-63
1.18385e-64
1.54426e-66
1.87807e-68
2.12286e-70
2.22223e-72
2.14456e-74
1.89556e-76
1.51865e-78
1.08459e-80
6.70468e-83
3.37168e-85
1.21005e-87
2.17927e-90
3.62723e-24
2.42105e-25
1.72568e-26
1.12189e-27
6.36333e-29
3.28641e-30
1.59783e-31
7.35076e-33
3.15952e-34
1.26814e-35
4.77031e-37
1.68683e-38
5.62105e-40
1.76878e-41
5.26415e-43
1.48347e-44
3.96132e-46
1.00269e-47
2.40581e-49
5.47021e-51
1.17665e-52
2.39462e-54
4.60671e-56
8.36619e-58
1.43207e-59
2.3063e-61
3.48748e-63
4.94067e-65
6.5417e-67
8.07425e-69
9.26402e-71
9.8491e-73
9.6638e-75
8.70015e-77
7.11854e-79
5.20467e-81
3.29504e-83
1.69822e-85
6.2377e-88
1.14185e-90
5.60369e-25
3.59417e-26
2.48616e-27
1.6243e-28
9.36617e-30
5.03089e-31
2.52379e-32
1.18068e-33
5.16447e-35
2.11844e-36
8.16745e-38
2.96525e-39
1.01539e-40
3.2838e-42
1.00402e-43
2.90438e-45
7.95267e-47
2.06158e-48
5.05919e-50
1.17494e-51
2.5808e-53
5.35732e-55
1.04989e-56
1.93996e-58
3.37475e-60
5.51746e-62
8.46129e-64
1.21448e-65
1.62764e-67
2.03151e-69
2.35469e-71
2.52633e-73
2.49871e-75
2.26503e-77
1.86402e-79
1.36963e-81
8.7106e-84
4.51061e-86
1.66577e-88
3.06707e-91
7.91946e-26
5.43474e-27
3.89218e-28
2.61657e-29
1.56888e-30
8.65673e-32
4.41876e-33
2.09708e-34
9.29412e-36
3.8599e-37
1.50623e-38
5.53463e-40
1.91828e-41
6.27968e-43
1.94355e-44
5.69087e-46
1.57709e-47
4.13688e-49
1.027e-50
2.41207e-52
5.35627e-54
1.12364e-55
2.22446e-57
4.15049e-59
7.28773e-61
1.20212e-62
1.85912e-64
2.68974e-66
3.63159e-68
4.56354e-70
5.32159e-72
5.73915e-74
5.7002e-76
5.18304e-78
4.2737e-80
3.14294e-82
1.99894e-84
1.03476e-86
3.82172e-89
7.05042e-92
1.07131e-26
7.81054e-28
5.87212e-29
4.10256e-30
2.55676e-31
1.45892e-32
7.66921e-34
3.73553e-35
1.69359e-36
7.17327e-38
2.84709e-39
1.06158e-40
3.72627e-42
1.23334e-43
3.8542e-45
1.13823e-46
3.17851e-48
8.39532e-50
2.09734e-51
4.95448e-53
1.10611e-54
2.33205e-56
4.63848e-58
8.69297e-60
1.53273e-61
2.53814e-63
3.93959e-65
5.71869e-67
7.74398e-69
9.75556e-71
1.1398e-72
1.23075e-74
1.2229e-76
1.1114e-78
9.151e-81
6.71443e-83
4.25803e-85
2.19726e-87
8.09314e-90
1.49109e-92
1.42833e-27
1.0798e-28
8.43637e-30
6.0814e-31
3.91159e-32
2.30053e-33
1.24467e-34
6.22941e-36
2.89678e-37
1.25606e-38
5.09356e-40
1.93654e-41
6.91733e-43
2.32546e-44
7.36791e-46
2.20244e-47
6.21597e-49
1.6571e-50
4.17334e-52
9.92801e-54
2.23003e-55
4.72656e-57
9.4443e-59
1.77695e-60
3.14371e-62
5.22078e-64
8.12263e-66
1.18127e-67
1.60174e-69
2.01929e-71
2.35938e-73
2.54582e-75
2.52559e-77
2.28951e-79
1.8785e-81
1.37215e-83
8.65523e-86
4.43985e-88
1.62561e-90
2.98078e-93
1.99529e-28
1.51094e-29
1.2007e-30
8.82606e-32
5.80727e-33
3.49565e-34
1.93551e-35
9.90852e-37
4.7095e-38
2.08532e-39
8.62635e-41
3.34176e-42
1.21476e-43
4.1505e-45
1.33475e-46
4.04439e-48
1.15556e-49
3.11479e-51
7.92238e-53
1.9013e-54
4.30403e-56
9.18498e-58
1.84627e-59
3.49176e-61
6.20486e-63
1.03428e-64
1.61404e-66
2.35282e-68
3.19555e-70
4.03223e-72
4.71189e-74
5.08047e-76
5.03179e-78
4.54959e-80
3.71951e-82
2.70456e-84
1.69663e-86
8.64844e-89
3.14546e-91
5.73334e-94
3.16805e-29
2.29017e-30
1.79535e-31
1.31882e-32
8.73768e-34
5.31718e-35
2.98318e-36
1.54941e-37
7.4759e-39
3.361e-40
1.4115e-41
5.54932e-43
2.0462e-44
7.0873e-46
2.30881e-47
7.08116e-49
2.04619e-50
5.57338e-52
1.43125e-53
3.4651e-55
7.9067e-57
1.69947e-58
3.43808e-60
6.53941e-62
1.16786e-63
1.95508e-65
3.06205e-67
4.47663e-69
6.09344e-71
7.69994e-73
9.00367e-75
9.70627e-77
9.6034e-79
8.66677e-81
7.06625e-83
5.1199e-85
3.19791e-87
1.62184e-89
5.86606e-92
1.06371e-94
6.19091e-30
4.07326e-31
3.03417e-32
2.16327e-33
1.40932e-34
8.50605e-36
4.7608e-37
2.4764e-38
1.19986e-39
5.42665e-41
2.29545e-42
9.09681e-44
3.3826e-45
1.18173e-46
3.88286e-48
1.20095e-49
3.49867e-51
9.60407e-53
2.48456e-54
6.05687e-56
1.39096e-57
3.00746e-59
6.11714e-61
1.1692e-62
2.09717e-64
3.52419e-66
5.53753e-68
8.11726e-70
1.10715e-71
1.40098e-73
1.63932e-75
1.76722e-77
1.74723e-79
1.57463e-81
1.28125e-83
9.25948e-86
5.76564e-88
2.91371e-90
1.04986e-92
1.89707e-95
1.44343e-30
8.61932e-32
5.99785e-33
4.06236e-34
2.54775e-35
1.49572e-36
8.20773e-38
4.21097e-39
2.02149e-40
9.08961e-42
3.83256e-43
1.51698e-44
5.64244e-46
1.97398e-47
6.50039e-49
2.01613e-50
5.892e-52
1.62283e-53
4.21273e-55
1.03052e-56
2.37453e-58
5.15057e-60
1.05078e-61
2.01397e-63
3.62137e-65
6.0987e-67
9.60006e-69
1.40919e-70
1.92386e-72
2.43553e-74
2.84965e-76
3.0701e-78
3.03194e-80
2.72806e-82
2.21538e-84
1.5974e-86
9.922e-89
5.00129e-91
1.79761e-93
3.24168e-96
3.98032e-31
2.16297e-32
1.40053e-33
8.9292e-35
5.31962e-36
2.99271e-37
1.58584e-38
7.90777e-40
3.70947e-41
1.6371e-42
6.79979e-44
2.65928e-45
9.79705e-47
3.40164e-48
1.11356e-49
3.43789e-51
1.00115e-52
2.75001e-54
7.12424e-56
1.74007e-57
4.00488e-59
8.67934e-61
1.76946e-62
3.38941e-64
6.09115e-66
1.02518e-67
1.6126e-69
2.36504e-71
3.2252e-73
4.07725e-75
4.76232e-77
5.12018e-79
5.04459e-81
4.52709e-83
3.6661e-85
2.63597e-87
1.63283e-89
8.21007e-92
2.94506e-94
5.30409e-97
1.26768e-31
6.33722e-33
3.83459e-34
2.29833e-35
1.29469e-36
6.92802e-38
3.5121e-39
1.68439e-40
7.63623e-42
3.27107e-43
1.32374e-44
5.0607e-46
1.82787e-47
6.23795e-49
2.01152e-50
6.12898e-52
1.76437e-53
4.7977e-55
1.23188e-56
2.98517e-58
6.8225e-60
1.46929e-61
2.97843e-63
5.67559e-65
1.01507e-66
1.70071e-68
2.66365e-70
3.8901e-72
5.28283e-74
6.65043e-76
7.73461e-78
8.27936e-80
8.12057e-82
7.25456e-84
5.84853e-86
4.18707e-88
2.58337e-90
1.29451e-92
4.63168e-95
8.32895e-98
4.28573e-32
2.01879e-33
1.15805e-34
6.58688e-36
3.53143e-37
1.80366e-38
8.75435e-40
4.03243e-41
1.76114e-42
7.28877e-44
2.85762e-45
1.06112e-46
3.73149e-48
1.24257e-49
3.91771e-51
1.16933e-52
3.30313e-54
8.82751e-56
2.23079e-57
5.3273e-59
1.20124e-60
2.555e-62
5.12e-64
9.65259e-66
1.70916e-67
2.83683e-69
4.40367e-71
6.37687e-73
8.5893e-75
1.07272e-76
1.23793e-78
1.31501e-80
1.28011e-82
1.13519e-84
9.08658e-87
6.4612e-89
3.96159e-91
1.97429e-93
7.03352e-96
1.26114e-98
1.44951e-32
6.53795e-34
3.60203e-35
1.96648e-36
1.01361e-37
4.9839e-39
2.33232e-40
1.03744e-41
4.38215e-43
1.7567e-44
6.68073e-46
2.40967e-47
8.24191e-49
2.67286e-50
8.21737e-52
2.39447e-53
6.61114e-55
1.72887e-56
4.27989e-58
1.00228e-59
2.21851e-61
4.63652e-63
9.13761e-65
1.69566e-66
2.95766e-68
4.83929e-70
7.41008e-72
1.05906e-73
1.4086e-75
1.73786e-77
1.98186e-79
2.08109e-81
2.00316e-83
1.757e-85
1.39151e-87
9.79446e-90
5.94827e-92
2.93892e-94
1.03946e-96
1.85362e-99
4.80629e-33
2.0867e-34
1.11056e-35
5.85516e-37
2.92012e-38
1.3911e-39
6.31553e-41
2.72868e-42
1.12082e-43
4.37358e-45
1.62043e-46
5.69849e-48
1.90159e-49
6.02017e-51
1.8078e-52
5.14796e-54
1.38974e-55
3.55522e-57
8.61404e-59
1.97542e-60
4.28407e-62
8.77702e-64
1.69663e-65
3.08977e-67
5.29184e-69
8.50623e-71
1.28024e-72
1.79932e-74
2.3544e-76
2.8588e-78
3.20976e-80
3.31941e-82
3.14766e-84
2.72067e-86
2.12407e-88
1.47439e-90
8.8352e-93
4.31111e-95
1.50803e-97
2.66498e-100
1.55167e-33
6.4922e-35
3.3422e-36
1.70462e-37
8.24334e-39
3.81424e-40
1.68469e-41
7.09197e-43
2.84202e-44
1.08317e-45
3.92343e-47
1.34992e-48
4.41005e-50
1.36748e-51
4.02349e-53
1.12292e-54
2.97163e-56
7.45326e-58
1.77076e-59
3.98233e-61
8.47044e-63
1.70224e-64
3.22804e-66
5.76795e-68
9.69418e-70
1.52941e-71
2.25961e-73
3.11803e-75
4.00645e-77
4.77796e-79
5.26965e-81
5.3541e-83
4.98878e-85
4.23764e-87
3.25179e-89
2.21898e-91
1.30761e-93
6.27811e-96
2.16347e-98
3.77396e-101
4.84739e-34
1.95568e-35
9.73893e-37
4.80526e-38
2.25362e-39
1.01316e-40
4.35592e-42
1.78797e-43
6.99727e-45
2.60798e-46
9.24913e-48
3.11892e-49
9.99442e-51
3.04186e-52
8.78914e-54
2.4098e-55
6.26655e-57
1.54474e-58
3.60729e-60
7.97409e-62
1.66712e-63
3.29286e-65
6.13696e-67
1.0776e-68
1.77961e-70
2.75846e-72
4.00371e-74
5.42684e-76
6.84889e-78
8.02147e-80
8.68768e-82
8.66729e-84
7.92923e-86
6.61249e-88
4.98111e-90
3.33639e-92
1.92973e-94
9.09515e-97
3.07898e-99
5.28469e-102
1.45559e-34
5.66591e-36
2.72882e-37
1.30209e-38
5.92006e-40
2.58493e-41
1.08138e-42
4.32675e-44
1.65332e-45
6.02591e-47
2.09266e-48
6.91834e-50
2.17571e-51
6.5044e-53
1.84735e-54
4.9816e-56
1.27466e-57
3.09274e-59
7.11037e-61
1.54766e-62
3.18618e-64
6.19706e-66
1.13723e-67
1.96602e-69
3.19615e-71
4.876e-73
6.96407e-75
9.2865e-77
1.15272e-78
1.32755e-80
1.41347e-82
1.38596e-84
1.24591e-86
1.02073e-88
7.552e-91
4.96684e-93
2.81995e-95
1.30438e-97
4.33446e-100
7.30953e-103
4.17389e-35
1.56831e-36
7.30343e-38
3.36888e-39
1.48419e-40
6.29075e-42
2.55922e-43
9.97548e-45
3.71964e-46
1.32501e-47
4.50374e-49
1.45921e-50
4.5026e-52
1.32206e-53
3.69111e-55
9.79174e-57
2.46625e-58
5.89322e-60
1.33487e-61
2.86342e-63
5.8108e-65
1.1142e-66
2.01587e-68
3.43585e-70
5.50651e-72
8.28064e-74
1.16558e-75
1.53151e-77
1.87275e-79
2.12415e-81
2.22684e-83
2.1494e-85
1.90162e-87
1.53297e-89
1.11579e-91
7.21783e-94
4.02955e-96
1.83227e-98
5.98495e-101
9.92398e-104
1.13576e-35
4.12117e-37
1.85518e-38
8.26934e-40
3.52864e-41
1.45109e-42
5.73764e-44
2.1774e-45
7.91777e-47
2.75485e-48
9.15931e-50
2.90671e-51
8.79565e-53
2.53544e-54
6.95625e-56
1.81494e-57
4.49925e-59
1.05883e-60
2.36323e-62
4.9973e-64
1.00003e-65
1.89137e-67
3.3759e-69
5.67708e-71
8.97736e-73
1.33202e-74
1.84984e-76
2.39776e-78
2.89196e-80
3.2348e-82
3.3437e-84
3.18175e-86
2.77484e-88
2.20492e-90
1.58194e-92
1.00873e-94
5.55144e-97
2.48843e-99
8.01317e-102
1.30982e-104
2.91454e-36
1.02175e-37
4.44482e-39
1.91392e-40
7.90756e-42
3.15379e-43
1.21146e-44
4.47384e-46
1.58567e-47
5.38571e-49
1.75056e-50
5.43837e-52
1.61298e-53
4.56245e-55
1.22955e-56
3.15393e-58
7.69308e-60
1.78262e-61
3.91992e-63
8.17081e-65
1.61246e-66
3.00852e-68
5.2989e-70
8.79489e-72
1.37286e-73
2.01092e-75
2.75698e-77
3.52787e-79
4.2003e-81
4.63749e-83
4.73131e-85
4.44352e-87
3.82497e-89
3.00041e-91
2.12567e-93
1.33897e-95
7.28296e-98
3.22829e-100
1.02854e-102
1.66325e-105
7.00789e-37
2.37504e-38
9.98271e-40
4.1516e-41
1.66045e-42
6.42122e-44
2.39561e-45
8.60626e-47
2.97208e-48
9.8506e-50
3.12887e-51
9.51162e-53
2.76393e-54
7.66843e-56
2.02916e-57
5.11555e-59
1.22737e-60
2.7996e-62
6.06401e-64
1.24579e-65
2.42425e-67
4.46204e-69
7.75548e-71
1.27062e-72
1.95825e-74
2.83244e-76
3.83502e-78
4.84661e-80
5.69909e-82
6.21461e-84
6.26227e-86
5.8095e-88
4.94071e-90
3.83046e-92
2.68359e-94
1.67296e-96
9.01484e-99
3.96346e-101
1.25394e-103
2.01378e-106
1.56809e-37
5.14259e-39
2.0885e-40
8.38892e-42
3.24803e-43
1.21791e-44
4.41288e-46
1.54211e-47
5.18831e-49
1.67776e-50
5.20674e-52
1.54851e-53
4.40758e-55
1.19918e-56
3.11497e-58
7.71616e-60
1.82066e-61
4.08722e-63
8.71908e-65
1.76521e-66
3.38692e-68
6.14941e-70
1.05476e-71
1.70587e-73
2.59597e-75
3.70836e-77
4.9596e-79
6.19189e-81
7.19341e-83
7.75036e-85
7.71739e-87
7.07613e-89
5.94997e-91
4.56338e-93
3.16538e-95
1.95603e-97
1.04639e-99
4.57568e-102
1.44248e-104
2.30931e-107
3.24179e-38
1.03027e-39
4.04418e-41
1.5695e-42
5.88477e-44
2.14026e-45
7.53354e-47
2.56144e-48
8.39709e-50
2.64963e-51
8.03451e-53
2.33776e-54
6.51774e-56
1.7389e-57
4.43384e-59
1.07913e-60
2.50392e-62
5.53189e-64
1.16218e-65
2.31862e-67
4.38636e-69
7.85618e-71
1.32981e-72
2.12324e-74
3.19076e-76
4.5022e-78
5.94867e-80
7.33827e-82
8.42478e-84
8.97139e-86
8.83085e-88
8.00663e-90
6.66035e-92
5.05727e-94
3.47678e-96
2.13263e-98
1.13477e-100
4.94796e-103
1.55936e-105
2.49746e-108
6.14606e-39
1.89682e-40
7.20227e-42
2.70272e-43
9.82085e-45
3.46681e-46
1.18621e-47
3.92626e-49
1.25478e-50
3.86505e-52
1.14556e-53
3.26194e-55
8.91019e-57
2.33154e-58
5.83654e-60
1.3959e-61
3.18541e-63
6.92657e-65
1.43323e-66
2.818e-68
5.25685e-70
9.28871e-72
1.55183e-73
2.44636e-75
3.63094e-77
5.06136e-79
6.60804e-81
8.05628e-83
9.14236e-85
9.62489e-87
9.36873e-89
8.40295e-91
6.91894e-93
5.20494e-95
3.5499e-97
2.1643e-99
1.14755e-101
5.00155e-104
1.58068e-106
2.54123e-109
1.06074e-39
3.18811e-41
1.1725e-42
4.25995e-44
1.50196e-45
5.15194e-47
1.7153e-48
5.53206e-50
1.72493e-51
5.19042e-53
1.50463e-54
4.19512e-56
1.12326e-57
2.88401e-59
7.09054e-61
1.66695e-62
3.74223e-64
8.01118e-66
1.63305e-67
3.16513e-69
5.82344e-71
1.01537e-72
1.67459e-74
2.60701e-76
3.82243e-78
5.265e-80
6.79381e-82
8.18782e-84
9.18683e-86
9.56462e-88
9.20965e-90
8.17482e-92
6.66615e-94
4.97174e-96
3.36713e-98
2.0431e-100
1.0814e-102
4.72271e-105
1.50136e-107
2.43079e-110
1.65516e-40
4.86249e-42
1.73539e-43
6.11569e-45
2.09576e-46
6.99604e-48
2.2697e-49
7.14154e-51
2.17503e-52
6.39994e-54
1.81617e-55
4.96226e-57
1.30332e-58
3.28553e-60
7.93788e-62
1.83534e-63
4.05528e-65
8.55035e-67
1.71775e-68
3.28303e-70
5.95953e-72
1.02567e-73
1.6704e-75
2.56887e-77
3.72185e-79
5.06703e-81
6.464e-83
7.70328e-85
8.54826e-87
8.80411e-89
8.389e-91
7.37256e-93
5.95718e-95
4.408e-97
2.96732e-99
1.79435e-101
9.49838e-104
4.16675e-106
1.33658e-108
2.1863e-111
2.32125e-41
6.69597e-43
2.32481e-44
7.96564e-46
2.6588e-47
8.65442e-49
2.74069e-50
8.42636e-52
2.51022e-53
7.23193e-55
2.01133e-56
5.3908e-58
1.39013e-59
3.44355e-61
8.18171e-63
1.86174e-64
4.0512e-66
8.41759e-68
1.66748e-69
3.14416e-71
5.63358e-73
9.57437e-75
1.54037e-76
2.34097e-78
3.35266e-80
4.51306e-82
5.69377e-84
6.71185e-86
7.36885e-88
7.51056e-90
7.08469e-92
6.16743e-94
4.94087e-96
3.62995e-98
2.4313e-100
1.46724e-102
7.78262e-105
3.4382e-107
1.11638e-109
1.85084e-112
2.91278e-42
8.29486e-44
2.81006e-45
9.38766e-47
3.05972e-48
9.73313e-50
3.01478e-51
9.07355e-53
2.64822e-54
7.48101e-56
2.04177e-57
5.37452e-59
1.36219e-60
3.31899e-62
7.76184e-64
1.7396e-65
3.73074e-67
7.6442e-69
1.49407e-70
2.78097e-72
4.92096e-74
8.26277e-76
1.31385e-77
1.97406e-79
2.79585e-81
3.72272e-83
4.64669e-85
5.42028e-87
5.88985e-89
5.94316e-91
5.5524e-93
4.79028e-95
3.8072e-97
2.77939e-99
1.85427e-101
1.11841e-103
5.9565e-106
2.65717e-108
8.76205e-111
1.47697e-113
3.26148e-43
9.22484e-45
3.05956e-46
9.99701e-48
3.19044e-49
9.94271e-51
3.01883e-52
8.91158e-54
2.55271e-55
7.08207e-57
1.89953e-58
4.91706e-60
1.22634e-61
2.94213e-63
6.77905e-65
1.4978e-66
3.1684e-68
6.40679e-70
1.23638e-71
2.27322e-73
3.97498e-75
6.59793e-77
1.03745e-78
1.54185e-80
2.16055e-82
2.84691e-84
3.51725e-86
4.06168e-88
4.37019e-90
4.36762e-92
4.04325e-94
3.45895e-96
2.72916e-98
1.9815e-100
1.31829e-102
7.95972e-105
4.26562e-107
1.92685e-109
6.47431e-112
1.113e-114
3.25593e-44
9.20671e-46
3.00011e-47
9.61934e-49
3.01453e-50
9.22686e-52
2.7523e-53
7.98516e-55
2.24901e-56
6.13792e-58
1.62032e-59
4.1303e-61
1.01493e-62
2.40031e-64
5.45476e-66
1.18927e-67
2.48364e-69
4.96031e-71
9.4585e-73
1.71903e-74
2.97238e-76
4.88026e-78
7.59264e-80
1.11678e-81
1.54912e-83
2.02104e-85
2.47262e-87
2.82806e-89
3.01438e-91
2.98528e-93
2.7398e-95
2.32554e-97
1.82289e-99
1.31752e-101
8.75214e-104
5.29911e-106
2.86407e-108
1.31393e-110
4.51404e-113
7.93691e-116
2.85055e-45
8.06287e-47
2.59125e-48
8.18154e-50
2.52514e-51
7.61082e-53
2.23559e-54
6.38793e-56
1.77235e-57
4.76643e-59
1.24034e-60
3.11785e-62
7.55812e-64
1.76407e-65
3.95796e-67
8.52296e-69
1.75864e-70
3.47152e-72
6.54482e-74
1.17641e-75
2.01236e-77
3.2695e-79
5.03454e-81
7.33062e-83
1.00677e-84
1.30061e-86
1.57582e-88
1.78512e-90
1.88485e-92
1.84959e-94
1.68276e-96
1.41707e-98
1.10354e-100
7.94147e-103
5.27021e-105
3.20321e-107
1.7493e-109
8.17264e-112
2.88059e-114
5.19339e-117
)
;

boundaryField
{
    leftWall
    {
        type            zeroGradient;
    }
    rightWall
    {
        type            zeroGradient;
    }
    lowerWall
    {
        type            zeroGradient;
    }
    atmosphere
    {
        type            inletOutlet;
        inletValue      nonuniform 0();
        value           nonuniform 0();
    }
    defaultFaces
    {
        type            empty;
    }
    procBoundary1to0
    {
        type            processor;
        value           nonuniform List<scalar> 
44
(
4.37388e-13
2.61293e-13
1.3593e-13
4.46471e-14
1.36602e-14
4.1062e-15
1.19634e-15
3.43928e-16
9.80555e-17
2.73564e-17
7.24084e-18
1.68286e-18
3.50689e-19
7.09605e-20
1.55487e-20
4.03439e-21
1.27003e-21
4.67229e-22
1.9014e-22
8.20946e-23
2.50119e-24
2.50119e-24
1.30299e-24
5.83003e-25
2.51759e-25
1.07651e-25
4.51685e-26
1.84568e-26
7.30258e-27
2.78346e-27
1.01721e-27
3.54716e-28
1.17403e-28
3.66482e-29
1.0708e-29
2.90297e-30
7.23026e-31
1.63645e-31
3.3268e-32
6.00384e-33
9.51624e-34
1.3138e-34
1.57246e-35
1.63113e-36
)
;
    }
    procBoundary1to3
    {
        type            processor;
        value           nonuniform List<scalar> 
45
(
1.24242e-39
5.30529e-41
1.99506e-42
6.90445e-44
2.43643e-45
9.32965e-47
2.47604e-48
7.9473e-50
2.48306e-51
7.57844e-53
2.25494e-54
6.5304e-56
1.83787e-57
5.01844e-59
1.32739e-60
3.39549e-62
8.38614e-64
1.9965e-65
4.57425e-67
1.00697e-68
2.12646e-70
4.30063e-72
8.31574e-74
1.53464e-75
2.69806e-77
4.51025e-79
7.15401e-81
1.07428e-82
1.52349e-84
2.0349e-86
2.55242e-88
2.99695e-90
3.28298e-92
3.34392e-94
3.15715e-96
2.75635e-98
2.22236e-100
1.65528e-102
1.14128e-104
7.30667e-107
4.34887e-109
2.38475e-111
1.15662e-113
4.36827e-116
8.46953e-119
)
;
    }
}


// ************************************************************************* //
