/*--------------------------------*- C++ -*----------------------------------*\
| =========                 |                                                 |
| \\      /  F ield         | OpenFOAM: The Open Source CFD Toolbox           |
|  \\    /   O peration     | Version:  5.0                                   |
|   \\  /    A nd           | Web:      www.OpenFOAM.org                      |
|    \\/     M anipulation  |                                                 |
\*---------------------------------------------------------------------------*/
FoamFile
{
    version     2.0;
    format      ascii;
    class       volScalarField;
    location    "0.05";
    object      epsilon;
}
// * * * * * * * * * * * * * * * * * * * * * * * * * * * * * * * * * * * * * //

dimensions      [0 2 -3 0 0 0 0];

internalField   nonuniform List<scalar> 
1915
(
0.743964
0.580122
0.587697
0.710278
0.544886
0.855146
0.517752
0.956291
0.499236
1.03027
0.487355
1.08842
0.481382
1.14227
0.482103
1.20677
0.491257
1.30649
0.508093
1.52041
0.577493
0.754951
0.878862
0.944658
0.974758
0.986218
0.988893
0.987837
0.985422
0.98267
0.980118
0.978836
0.977577
0.97628
0.974962
0.973632
0.972294
0.970948
0.969594
0.968231
0.966862
0.965489
0.964118
0.962752
0.961394
0.960047
0.958707
0.957365
0.956005
0.95459
0.95305
0.951234
0.94881
0.945045
0.938305
0.924972
0.89733
0.840424
0.735759
0.594053
0.675738
0.561913
0.537533
0.523813
0.515737
0.511392
0.509366
0.50864
0.508554
0.508734
0.509025
0.509555
0.510019
0.510349
0.510557
0.510668
0.510704
0.510684
0.510619
0.510521
0.510394
0.510244
0.510074
0.509887
0.509689
0.509484
0.509279
0.50908
0.508902
0.508764
0.508707
0.508808
0.509213
0.510204
0.512283
0.516287
0.523474
0.535626
0.557726
0.680331
0.774786
0.5245
0.440292
0.396856
0.37335
0.360877
0.354632
0.351822
0.350806
0.35066
0.350896
0.351378
0.351868
0.352279
0.352595
0.352827
0.352988
0.353095
0.353159
0.35319
0.353194
0.353177
0.353143
0.353096
0.35304
0.35298
0.352925
0.35289
0.352899
0.353005
0.353307
0.354003
0.355475
0.35844
0.364216
0.375189
0.395741
0.434498
0.512903
0.774775
0.832462
0.504633
0.388153
0.32905
0.297064
0.279622
0.270346
0.265678
0.263545
0.262746
0.262606
0.262832
0.26316
0.263476
0.263741
0.263948
0.264101
0.26421
0.264284
0.26433
0.264355
0.264362
0.264356
0.264341
0.26432
0.264302
0.264296
0.264324
0.264426
0.264681
0.265242
0.266397
0.268676
0.273036
0.281178
0.296169
0.323825
0.376358
0.485694
0.835105
0.867711
0.493678
0.357712
0.288832
0.251417
0.230665
0.21924
0.213142
0.210067
0.208657
0.208132
0.208085
0.208231
0.208427
0.208615
0.208771
0.208893
0.208982
0.209045
0.209087
0.209111
0.209122
0.209123
0.209119
0.209114
0.209116
0.209139
0.209214
0.209393
0.209782
0.210576
0.212129
0.215066
0.220473
0.230242
0.247781
0.279682
0.340274
0.468009
0.872346
0.890639
0.489647
0.340422
0.26425
0.222762
0.199576
0.186576
0.179406
0.175592
0.17368
0.17282
0.172535
0.172515
0.172601
0.172714
0.172821
0.172909
0.172977
0.173026
0.173059
0.173079
0.173089
0.173093
0.173094
0.173099
0.173115
0.173164
0.17328
0.173533
0.174049
0.175057
0.176958
0.180436
0.186652
0.1976
0.216886
0.251584
0.317345
0.456586
0.894482
0.911167
0.493091
0.3322
0.249221
0.204168
0.17904
0.164861
0.156903
0.152536
0.150232
0.149106
0.148625
0.148467
0.148458
0.148507
0.148571
0.14863
0.148677
0.148713
0.148738
0.148753
0.148762
0.148767
0.148772
0.148783
0.148813
0.148885
0.149042
0.149365
0.15
0.151202
0.153407
0.157336
0.164194
0.176043
0.196615
0.233307
0.302619
0.449297
0.907385
0.950108
0.508144
0.331067
0.240081
0.191585
0.164906
0.149899
0.14141
0.136662
0.134079
0.132751
0.132117
0.13185
0.131764
0.13176
0.131786
0.13182
0.131851
0.131875
0.131893
0.131904
0.131911
0.131916
0.131924
0.131942
0.131985
0.132078
0.132274
0.132664
0.133409
0.134786
0.137254
0.141563
0.148946
0.16151
0.183081
0.221276
0.293136
0.44472
0.914857
1.06537
0.543584
0.335048
0.233769
0.182225
0.154582
0.139167
0.130419
0.125465
0.122715
0.121249
0.120506
0.120156
0.12001
0.119963
0.11996
0.119973
0.119989
0.120004
0.120014
0.120022
0.120027
0.120033
0.120043
0.120068
0.120122
0.120237
0.120469
0.120921
0.121766
0.123299
0.125996
0.130626
0.138446
0.151593
0.173964
0.213326
0.287054
0.441903
0.919206
1.36945
0.596359
0.336245
0.226228
0.173775
0.146305
0.131062
0.12237
0.117391
0.114586
0.113048
0.112237
0.11183
0.11164
0.11156
0.111533
0.11153
0.111534
0.111541
0.111546
0.11155
0.111554
0.11156
0.111573
0.111603
0.111668
0.111802
0.112068
0.112576
0.113512
0.115181
0.118075
0.122978
0.131163
0.144792
0.16781
0.208087
0.28319
0.440215
0.921789
0.463567
1.05234
0.379765
0.710806
0.294007
0.445895
0.227819
0.296554
0.182872
0.216642
0.153149
0.171185
0.13336
0.143647
0.120007
0.126151
0.110894
0.114676
0.104638
0.107004
0.101835
0.098355
0.0960258
0.0944846
0.0934778
0.0928291
0.0924162
0.0921558
0.091992
0.0918884
0.0918219
0.0917781
0.0917481
0.0917268
0.0917112
0.0916996
0.0916911
0.0916852
0.0916813
0.0916793
0.091679
0.0916802
0.0916822
2.07015
1.50483
1.27313
1.35708
0.878456
0.72936
0.628609
0.594652
0.508956
0.470479
0.423859
0.389429
0.330104
0.323487
0.303433
0.281585
0.235689
0.237024
0.22872
0.216148
0.182361
0.185022
0.181647
0.174553
0.150409
0.152743
0.151399
0.147366
0.130341
0.132075
0.131563
0.129233
0.11731
0.118518
0.118341
0.116971
0.108675
0.109485
0.109437
0.108617
0.102894
0.103424
0.103417
0.102917
0.0990193
0.0993555
0.099356
0.0990445
0.0964369
0.0966412
0.096636
0.0964362
0.094732
0.0948482
0.0948337
0.0946999
0.0936202
0.0936782
0.0936546
0.0935594
0.0929048
0.0929246
0.0928933
0.0928201
0.0924497
0.0924447
0.0924072
0.0923463
0.0921626
0.0921416
0.0920993
0.0920447
0.091982
0.0919504
0.0919043
0.0918529
0.0918675
0.091829
0.09178
0.0917298
0.0917938
0.0917504
0.0916991
0.0916491
0.0917448
0.0916979
0.0916447
0.0915945
0.0917111
0.0916615
0.0916067
0.0915559
0.0916868
0.091635
0.0915787
0.0915273
0.0916687
0.0916149
0.0915572
0.0915051
0.0916547
0.0915991
0.0915401
0.0914873
0.0916438
0.0915863
0.0915261
0.0914725
0.0916353
0.091576
0.0915145
0.0914601
0.0916289
0.0915677
0.0915048
0.0914495
0.0916243
0.0915611
0.0914968
0.0914405
0.0916212
0.0915558
0.09149
0.0914328
0.0916192
0.0915515
0.0914843
0.0914261
0.0916176
0.0915477
0.091479
0.09142
0.868547
0.519125
0.309796
0.212184
0.164329
0.13884
0.124498
0.116209
0.111397
0.108638
0.107092
0.106252
0.105813
0.105593
0.10549
0.105445
0.105429
0.105424
0.105423
0.105424
0.105426
0.105428
0.105434
0.10545
0.105485
0.10556
0.105712
0.106009
0.106568
0.107583
0.109372
0.112436
0.117571
0.126062
0.140092
0.163637
0.20463
0.280747
0.439227
0.923404
0.513065
0.375864
0.26049
0.191761
0.153434
0.131621
0.118873
0.111321
0.106852
0.10424
0.102745
0.101913
0.101464
0.10123
0.101112
0.101055
0.101028
0.101016
0.10101
0.101007
0.101006
0.101008
0.101014
0.101032
0.101071
0.101155
0.101324
0.101649
0.102252
0.103337
0.105228
0.108437
0.113767
0.122514
0.136871
0.160838
0.202385
0.279235
0.438681
0.924486
0.345865
0.278623
0.2153
0.170546
0.142181
0.124683
0.113935
0.107353
0.103358
0.100974
0.0995829
0.098791
0.0983523
0.0981156
0.0979908
0.097926
0.0978926
0.097875
0.0978653
0.0978596
0.0978568
0.0978574
0.0978642
0.0978834
0.0979273
0.0980193
0.098202
0.0985505
0.0991921
0.100336
0.102313
0.105641
0.111132
0.120085
0.134703
0.158999
0.20096
0.278328
0.438407
0.925274
0.253564
0.216746
0.180473
0.151812
0.131678
0.118277
0.109595
0.104076
0.100634
0.0985336
0.0972827
0.0965562
0.0961443
0.0959157
0.0957907
0.0957227
0.0956854
0.0956642
0.0956515
0.0956437
0.0956395
0.0956395
0.0956466
0.0956675
0.095715
0.0958137
0.0960083
0.0963767
0.0970501
0.0982419
0.100289
0.103714
0.109333
0.118449
0.13327
0.157815
0.200077
0.277803
0.438295
0.925905
0.198941
0.177145
0.155237
0.136676
0.122604
0.112621
0.105832
0.101358
0.0984895
0.0966995
0.0956118
0.0949675
0.0945942
0.0943817
0.0942618
0.0941941
0.0941551
0.0941317
0.0941172
0.0941078
0.0941026
0.0941022
0.0941097
0.0941319
0.0941824
0.0942867
0.0944911
0.0948757
0.0955747
0.0968051
0.0989076
0.102409
0.108126
0.117367
0.132342
0.157069
0.199545
0.277513
0.438278
0.926453
0.16409
0.15077
0.13707
0.12488
0.115106
0.10781
0.102638
0.0991148
0.0967961
0.0953171
0.0944003
0.0938463
0.0935186
0.0933274
0.0932165
0.0931515
0.0931126
0.0930884
0.0930727
0.0930624
0.0930565
0.0930559
0.0930636
0.0930869
0.0931399
0.0932487
0.0934608
0.0938581
0.0945771
0.0958375
0.0979826
0.101542
0.107334
0.116668
0.131754
0.156611
0.199235
0.277366
0.438315
0.926958
0.14098
0.132678
0.123932
0.115854
0.109096
0.103844
0.0999891
0.0972856
0.0954625
0.0942746
0.0935236
0.0930608
0.092781
0.0926138
0.0925139
0.0924536
0.0924161
0.0923919
0.0923757
0.0923648
0.0923585
0.0923577
0.0923657
0.0923899
0.0924447
0.0925571
0.0927751
0.0931822
0.0939163
0.0951992
0.097376
0.100978
0.106825
0.116226
0.131391
0.156339
0.199063
0.277302
0.438381
0.927441
0.125304
0.120064
0.114415
0.10904
0.104393
0.100663
0.0978451
0.0958179
0.09442
0.0934903
0.0928909
0.0925138
0.0922808
0.0921379
0.0920501
0.0919952
0.0919598
0.0919363
0.09192
0.091909
0.0919024
0.0919016
0.0919098
0.0919347
0.091991
0.0921059
0.0923284
0.0927426
0.0934879
0.0947872
0.096987
0.100619
0.106505
0.115953
0.131174
0.156183
0.198974
0.277287
0.438463
0.927913
0.114534
0.111202
0.107535
0.10396
0.100787
0.0981741
0.0961505
0.094662
0.093614
0.0929031
0.0924354
0.0921349
0.0919446
0.0918248
0.0917488
0.0916997
0.091667
0.0916444
0.0916285
0.0916174
0.0916108
0.0916099
0.0916184
0.0916438
0.0917011
0.0918179
0.0920436
0.0924631
0.0932163
0.0945271
0.0967432
0.100397
0.106309
0.11579
0.131048
0.156099
0.198935
0.277299
0.438553
0.928376
0.107095
0.104972
0.102591
0.100224
0.098077
0.0962705
0.0948418
0.0937694
0.0929994
0.0924666
0.0921086
0.0918732
0.0917203
0.0916211
0.0915561
0.0915126
0.0914826
0.0914613
0.0914458
0.0914348
0.0914282
0.0914274
0.091436
0.0914618
0.0915199
0.091638
0.0918661
0.0922891
0.0930479
0.0943668
0.0965939
0.100262
0.106193
0.115696
0.130978
0.156057
0.198925
0.277326
0.438647
0.928833
0.101964
0.100612
0.0990729
0.0975164
0.0960791
0.0948468
0.0938537
0.093094
0.0925377
0.0921448
0.0918748
0.0916927
0.091571
0.0914895
0.0914342
0.0913959
0.0913685
0.0913484
0.0913335
0.0913228
0.0913163
0.0913156
0.0913243
0.0913504
0.091409
0.0915281
0.0917577
0.0921832
0.0929458
0.0942702
0.0965048
0.100183
0.106126
0.115643
0.130943
0.156041
0.198931
0.277362
0.438742
0.929283
0.0984457
0.0975885
0.0966006
0.0955864
0.0946348
0.0938047
0.0931236
0.0925927
0.0921961
0.0919096
0.0917079
0.091568
0.0914715
0.0914047
0.0913576
0.0913238
0.0912988
0.09128
0.0912657
0.0912553
0.091249
0.0912484
0.0912572
0.0912835
0.0913425
0.0914622
0.0916929
0.0921201
0.0928853
0.0942133
0.096453
0.100138
0.106089
0.115616
0.130927
0.15604
0.198947
0.277403
0.438839
0.929725
0.0960583
0.0955175
0.0948885
0.094234
0.0936104
0.0930572
0.0925949
0.0922274
0.0919468
0.0917392
0.0915889
0.0914814
0.0914047
0.0913496
0.0913094
0.0912794
0.0912566
0.091239
0.0912253
0.0912152
0.0912091
0.0912086
0.0912176
0.091244
0.0913032
0.0914235
0.0916549
0.0920833
0.0928501
0.0941807
0.0964238
0.100113
0.10607
0.115604
0.130924
0.156047
0.198968
0.277446
0.438935
0.930159
0.0944589
0.0941189
0.0937213
0.0933024
0.0928969
0.0925307
0.0922187
0.0919653
0.091767
0.0916163
0.0915038
0.0914206
0.0913591
0.0913133
0.0912786
0.0912518
0.0912309
0.0912144
0.0912013
0.0911916
0.0911857
0.0911853
0.0911944
0.091221
0.0912804
0.091401
0.0916329
0.0920621
0.0928302
0.0941625
0.096408
0.1001
0.106062
0.115601
0.130927
0.156059
0.198992
0.277491
0.439031
0.930581
0.0934023
0.0931881
0.0929377
0.0926707
0.0924079
0.0921658
0.091955
0.0917794
0.0916384
0.0915279
0.0914426
0.0913773
0.0913272
0.0912885
0.0912582
0.0912342
0.0912149
0.0911993
0.0911869
0.0911776
0.0911719
0.0911717
0.0911809
0.0912076
0.0912672
0.091388
0.0916203
0.0920501
0.0928191
0.0941526
0.0963999
0.100095
0.106059
0.115603
0.130934
0.156074
0.199019
0.277537
0.439127
0.930993
0.0927137
0.092577
0.0924188
0.0922482
0.092077
0.0919157
0.0917717
0.0916485
0.0915465
0.091464
0.091398
0.0913457
0.0913041
0.0912709
0.0912441
0.0912223
0.0912044
0.0911897
0.0911779
0.0911689
0.0911635
0.0911634
0.0911728
0.0911997
0.0912594
0.0913804
0.091613
0.0920433
0.092813
0.0941475
0.0963962
0.100093
0.10606
0.115607
0.130944
0.156091
0.199047
0.277585
0.439223
0.931393
0.0922698
0.0921801
0.0920785
0.091968
0.0918548
0.0917454
0.0916449
0.0915563
0.0914806
0.0914172
0.0913649
0.0913219
0.0912867
0.0912577
0.0912336
0.0912137
0.091197
0.0911831
0.0911718
0.0911632
0.0911581
0.0911582
0.0911677
0.0911947
0.0912546
0.0913758
0.0916087
0.0920394
0.0928096
0.094145
0.096395
0.100093
0.106063
0.115613
0.130955
0.156108
0.199075
0.277633
0.439319
0.931779
0.0919855
0.0919237
0.0918564
0.0917829
0.0917058
0.0916291
0.0915566
0.0914907
0.0914325
0.0913823
0.0913395
0.0913033
0.0912728
0.091247
0.0912253
0.0912068
0.0911912
0.0911781
0.0911673
0.0911591
0.0911542
0.0911546
0.0911642
0.0911914
0.0912514
0.0913728
0.091606
0.092037
0.0928078
0.094144
0.0963951
0.100095
0.106067
0.115621
0.130967
0.156127
0.199105
0.277683
0.439415
0.93215
0.0918033
0.0917577
0.0917109
0.0916597
0.091605
0.0915489
0.0914943
0.0914432
0.0913968
0.0913556
0.0913195
0.0912882
0.0912612
0.091238
0.0912181
0.0912009
0.0911863
0.0911738
0.0911636
0.0911557
0.0911511
0.0911516
0.0911615
0.0911888
0.091249
0.0913706
0.091604
0.0920354
0.0928068
0.0941437
0.096396
0.100098
0.106072
0.115629
0.13098
0.156147
0.199136
0.277733
0.439511
0.932507
0.0916854
0.091649
0.0916142
0.0915766
0.0915355
0.0914924
0.0914493
0.0914078
0.0913693
0.0913343
0.0913031
0.0912754
0.0912512
0.09123
0.0912115
0.0911955
0.0911817
0.0911699
0.0911601
0.0911526
0.0911483
0.0911491
0.0911591
0.0911866
0.091247
0.0913688
0.0916025
0.0920343
0.0928061
0.0941439
0.0963972
0.100101
0.106077
0.115637
0.130993
0.156168
0.199168
0.277784
0.439606
0.932846
0.0916074
0.0915762
0.0915484
0.0915188
0.0914862
0.0914512
0.0914156
0.0913806
0.0913475
0.0913169
0.0912891
0.0912642
0.0912421
0.0912226
0.0912054
0.0911904
0.0911773
0.0911661
0.0911568
0.0911496
0.0911456
0.0911466
0.0911569
0.0911845
0.0912451
0.0913671
0.091601
0.0920332
0.0928057
0.0941442
0.0963988
0.100104
0.106082
0.115646
0.131007
0.156189
0.1992
0.277836
0.4397
0.933169
0.091554
0.0915256
0.0915019
0.0914772
0.0914499
0.0914202
0.0913894
0.0913588
0.0913295
0.0913021
0.091277
0.0912542
0.0912338
0.0912156
0.0911995
0.0911854
0.091173
0.0911623
0.0911534
0.0911466
0.0911429
0.0911441
0.0911546
0.0911824
0.0912432
0.0913654
0.0915997
0.0920323
0.0928053
0.0941447
0.0964004
0.100107
0.106088
0.115655
0.131021
0.15621
0.199234
0.277889
0.439794
0.933474
0.0915159
0.091489
0.0914676
0.0914459
0.0914219
0.0913957
0.0913682
0.0913407
0.0913142
0.0912892
0.0912661
0.091245
0.091226
0.091209
0.0911938
0.0911805
0.0911687
0.0911585
0.09115
0.0911436
0.0911401
0.0911416
0.0911523
0.0911803
0.0912413
0.0913638
0.0915983
0.0920313
0.092805
0.0941453
0.0964023
0.100111
0.106094
0.115665
0.131036
0.156233
0.199268
0.277942
0.439888
0.933761
0.0914873
0.0914611
0.0914411
0.0914213
0.0913995
0.0913756
0.0913505
0.0913253
0.0913008
0.0912776
0.0912561
0.0912364
0.0912186
0.0912026
0.0911883
0.0911756
0.0911644
0.0911547
0.0911466
0.0911405
0.0911373
0.0911391
0.0911499
0.0911782
0.0912394
0.0913621
0.0915969
0.0920304
0.0928046
0.0941459
0.0964042
0.100114
0.106101
0.115675
0.131051
0.156256
0.199303
0.277996
0.43998
0.934028
0.0914649
0.091439
0.0914198
0.0914012
0.0913808
0.0913586
0.0913352
0.0913117
0.0912888
0.0912671
0.0912469
0.0912284
0.0912116
0.0911964
0.0911829
0.0911708
0.0911602
0.0911509
0.0911432
0.0911374
0.0911345
0.0911365
0.0911476
0.091176
0.0912374
0.0913604
0.0915956
0.0920295
0.0928044
0.0941465
0.0964062
0.100118
0.106107
0.115685
0.131067
0.156279
0.199338
0.278051
0.440071
0.934276
0.0914467
0.0914208
0.091402
0.0913842
0.0913649
0.0913439
0.0913218
0.0912996
0.091278
0.0912574
0.0912384
0.0912208
0.0912049
0.0911905
0.0911776
0.0911661
0.091156
0.0911472
0.0911398
0.0911343
0.0911317
0.0911339
0.0911452
0.0911738
0.0912354
0.0913586
0.0915942
0.0920286
0.0928042
0.0941473
0.0964083
0.100122
0.106114
0.115696
0.131083
0.156304
0.199374
0.278106
0.440162
0.934503
0.0914314
0.0914054
0.0913868
0.0913695
0.0913509
0.0913308
0.0913098
0.0912886
0.091268
0.0912485
0.0912304
0.0912137
0.0911985
0.0911849
0.0911726
0.0911616
0.0911519
0.0911435
0.0911365
0.0911313
0.0911289
0.0911313
0.0911428
0.0911717
0.0912335
0.091357
0.0915929
0.0920277
0.092804
0.0941481
0.0964105
0.100127
0.106121
0.115707
0.131099
0.156328
0.199411
0.278162
0.44025
0.93471
0.0914185
0.0913921
0.0913735
0.0913565
0.0913385
0.0913191
0.0912989
0.0912786
0.0912589
0.0912402
0.0912229
0.091207
0.0911925
0.0911794
0.0911677
0.0911572
0.091148
0.0911399
0.0911332
0.0911283
0.0911261
0.0911288
0.0911405
0.0911696
0.0912316
0.0913554
0.0915916
0.0920269
0.0928039
0.094149
0.0964129
0.100131
0.106128
0.115718
0.131116
0.156353
0.199448
0.278217
0.440338
0.934896
0.0914073
0.0913806
0.0913619
0.091345
0.0913274
0.0913086
0.091289
0.0912694
0.0912505
0.0912325
0.0912159
0.0912007
0.0911868
0.0911743
0.0911631
0.0911531
0.0911442
0.0911365
0.0911301
0.0911255
0.0911235
0.0911264
0.0911383
0.0911676
0.0912299
0.0913539
0.0915904
0.0920263
0.0928039
0.09415
0.0964153
0.100136
0.106136
0.11573
0.131133
0.156378
0.199485
0.278273
0.440423
0.935061
0.0913977
0.0913705
0.0913516
0.0913348
0.0913174
0.091299
0.0912799
0.091261
0.0912427
0.0912254
0.0912094
0.0911948
0.0911815
0.0911695
0.0911587
0.0911491
0.0911406
0.0911333
0.0911272
0.0911228
0.0911211
0.0911242
0.0911363
0.0911657
0.0912282
0.0913525
0.0915894
0.0920257
0.092804
0.0941512
0.0964179
0.10014
0.106143
0.115741
0.13115
0.156403
0.199522
0.278329
0.440506
0.935203
0.0913893
0.0913615
0.0913424
0.0913255
0.0913083
0.0912902
0.0912716
0.0912532
0.0912354
0.0912187
0.0912033
0.0911892
0.0911764
0.0911649
0.0911546
0.0911454
0.0911373
0.0911302
0.0911244
0.0911203
0.0911188
0.0911221
0.0911344
0.091164
0.0912267
0.0913512
0.0915885
0.0920252
0.0928043
0.0941524
0.0964206
0.100145
0.106151
0.115753
0.131168
0.156429
0.19956
0.278384
0.440588
0.935321
0.0913819
0.0913535
0.091334
0.091317
0.0912999
0.091282
0.0912638
0.0912459
0.0912286
0.0912125
0.0911976
0.091184
0.0911716
0.0911606
0.0911507
0.0911418
0.091134
0.0911273
0.0911217
0.0911179
0.0911166
0.0911201
0.0911326
0.0911624
0.0912253
0.0913501
0.0915876
0.0920249
0.0928046
0.0941537
0.0964233
0.10015
0.106159
0.115765
0.131185
0.156454
0.199597
0.278439
0.440666
0.935415
0.0913751
0.0913462
0.0913262
0.091309
0.0912919
0.0912742
0.0912564
0.0912388
0.091222
0.0912064
0.091192
0.0911788
0.091167
0.0911563
0.0911468
0.0911383
0.0911308
0.0911244
0.0911191
0.0911154
0.0911144
0.0911181
0.0911307
0.0911607
0.0912238
0.0913489
0.0915868
0.0920245
0.0928049
0.0941551
0.0964262
0.100155
0.106167
0.115777
0.131203
0.156481
0.199635
0.278494
0.440743
0.935489
)
;

boundaryField
{
    leftWall
    {
        Cmu             0.09;
        kappa           0.41;
        E               9.8;
        type            epsilonWallFunction;
        value           nonuniform 0();
    }
    rightWall
    {
        Cmu             0.09;
        kappa           0.41;
        E               9.8;
        type            epsilonWallFunction;
        value           nonuniform List<scalar> 
43
(
0.594053
0.680331
0.774775
0.835105
0.872346
0.894482
0.907385
0.914857
0.919206
0.921789
0.923404
0.924486
0.925274
0.925905
0.926453
0.926958
0.927441
0.927913
0.928376
0.928833
0.929283
0.929725
0.930159
0.930581
0.930993
0.931393
0.931779
0.93215
0.932507
0.932846
0.933169
0.933474
0.933761
0.934028
0.934276
0.934503
0.93471
0.934896
0.935061
0.935203
0.935321
0.935415
0.935489
)
;
    }
    lowerWall
    {
        Cmu             0.09;
        kappa           0.41;
        E               9.8;
        type            epsilonWallFunction;
        value           nonuniform List<scalar> 
66
(
0.743964
0.580122
0.580122
0.710278
0.855146
0.956291
1.03027
1.08842
1.14227
1.20677
1.30649
1.52041
2.07015
1.50483
1.27313
1.35708
0.577493
0.675738
0.774786
0.832462
0.867711
0.890639
0.911167
0.950108
1.06537
1.36945
0.577493
0.754951
0.878862
0.944658
0.974758
0.986218
0.988893
0.987837
0.985422
0.98267
0.980118
0.978836
0.977577
0.97628
0.974962
0.973632
0.972294
0.970948
0.969594
0.968231
0.966862
0.965489
0.964118
0.962752
0.961394
0.960047
0.958707
0.957365
0.956005
0.95459
0.95305
0.951234
0.94881
0.945045
0.938305
0.924972
0.89733
0.840424
0.735759
0.594053
)
;
    }
    atmosphere
    {
        type            inletOutlet;
        inletValue      nonuniform 0();
        value           nonuniform 0();
    }
    defaultFaces
    {
        type            empty;
    }
    procBoundary1to0
    {
        type            processor;
        value           nonuniform List<scalar> 
44
(
0.856658
0.584344
0.480076
0.414254
0.370147
0.34025
0.319924
0.306121
0.296414
0.287138
0.268371
0.238917
0.20632
0.176976
0.153509
0.135827
0.122874
0.113516
0.106812
0.102051
0.100347
0.100347
0.0974205
0.0954443
0.0941276
0.0932632
0.0927042
0.0923475
0.0921221
0.0919803
0.0918906
0.091833
0.0917953
0.0917698
0.0917522
0.0917398
0.0917312
0.0917255
0.0917224
0.0917217
0.0917232
0.0917267
0.0917317
0.0917378
)
;
    }
    procBoundary1to3
    {
        type            processor;
        value           nonuniform List<scalar> 
45
(
0.0916826
0.091615
0.0915432
0.0914733
0.0914135
0.0913681
0.0913387
0.0913184
0.091301
0.0912838
0.0912663
0.0912487
0.0912315
0.0912152
0.0912
0.091186
0.0911733
0.0911619
0.0911517
0.0911425
0.0911343
0.0911271
0.0911209
0.0911159
0.0911125
0.0911116
0.0911155
0.0911284
0.0911586
0.091222
0.0913473
0.0915856
0.0920239
0.0928051
0.0941564
0.0964293
0.10016
0.106175
0.115789
0.131222
0.156507
0.199673
0.278549
0.440817
0.935544
)
;
    }
}


// ************************************************************************* //
