/*--------------------------------*- C++ -*----------------------------------*\
| =========                 |                                                 |
| \\      /  F ield         | OpenFOAM: The Open Source CFD Toolbox           |
|  \\    /   O peration     | Version:  5.0                                   |
|   \\  /    A nd           | Web:      www.OpenFOAM.org                      |
|    \\/     M anipulation  |                                                 |
\*---------------------------------------------------------------------------*/
FoamFile
{
    version     2.0;
    format      ascii;
    class       volScalarField;
    location    "0.05";
    object      k;
}
// * * * * * * * * * * * * * * * * * * * * * * * * * * * * * * * * * * * * * //

dimensions      [0 2 -2 0 0 0 0];

internalField   nonuniform List<scalar> 
1915
(
0.0250939
0.0208067
0.0466044
0.0293739
0.0575155
0.0337626
0.0639453
0.0367705
0.0680527
0.0389641
0.0709265
0.0406953
0.0732893
0.0422925
0.0758062
0.0441592
0.0792298
0.0469023
0.0845433
0.0521559
0.0206963
0.0253553
0.0284601
0.0301085
0.0308859
0.0311988
0.0312829
0.0312643
0.0312055
0.0311351
0.0310672
0.0310315
0.0309985
0.030965
0.0309314
0.0308978
0.0308642
0.0308306
0.0307969
0.0307631
0.0307292
0.0306953
0.0306615
0.0306279
0.0305945
0.0305614
0.0305285
0.0304953
0.0304615
0.0304258
0.030386
0.0303376
0.030271
0.0301659
0.0299792
0.0296199
0.0289013
0.027464
0.024821
0.0234145
0.0292474
0.0476817
0.055645
0.0595131
0.0614074
0.0622945
0.0626681
0.0627897
0.0627964
0.0627569
0.0627028
0.0626414
0.0625849
0.0625377
0.0624993
0.0624683
0.062443
0.062422
0.0624042
0.0623889
0.0623758
0.0623644
0.0623546
0.0623462
0.062339
0.0623323
0.0623256
0.0623178
0.0623067
0.0622888
0.0622567
0.0621961
0.0620787
0.0618482
0.0613939
0.0604983
0.0587269
0.0551707
0.0477018
0.0293693
0.0323415
0.0568161
0.0665981
0.0712798
0.0736613
0.0748798
0.0754841
0.0757638
0.0758762
0.0759067
0.0758994
0.0758697
0.0758354
0.0758038
0.075777
0.0757548
0.0757365
0.0757213
0.0757085
0.0756976
0.0756883
0.0756804
0.0756736
0.0756677
0.0756624
0.0756571
0.0756508
0.075642
0.0756274
0.0756009
0.0755512
0.0754569
0.0752781
0.0749419
0.0743146
0.0731468
0.0709484
0.0666525
0.0574458
0.0323519
0.0341203
0.0615381
0.0722557
0.0773261
0.0799394
0.0813292
0.0820671
0.0824487
0.082636
0.0827195
0.0827492
0.0827476
0.0827341
0.0827174
0.0827013
0.082687
0.0826747
0.082664
0.0826549
0.0826469
0.0826399
0.0826337
0.0826282
0.082623
0.0826179
0.0826122
0.0826045
0.0825924
0.0825717
0.0825342
0.0824652
0.0823386
0.0821087
0.0816961
0.0809612
0.0796493
0.0772561
0.0726413
0.0626152
0.0342348
0.035214
0.0642305
0.0755748
0.080891
0.0836284
0.0851032
0.0859096
0.0863473
0.0865788
0.0866955
0.0867493
0.0867671
0.086768
0.0867619
0.0867535
0.0867449
0.0867368
0.0867295
0.0867229
0.086717
0.0867116
0.0867066
0.0867019
0.0866972
0.0866921
0.0866856
0.086676
0.0866604
0.0866331
0.0865845
0.0864974
0.0863429
0.0860725
0.0856049
0.0848003
0.0834042
0.0809044
0.0761107
0.0655977
0.035405
0.035945
0.0659297
0.0777656
0.0832502
0.0860419
0.0875416
0.0883685
0.0888266
0.0890771
0.08921
0.0892764
0.0893049
0.0893142
0.0893144
0.0893107
0.0893056
0.0893003
0.0892951
0.0892903
0.0892857
0.0892815
0.0892774
0.0892733
0.0892689
0.0892636
0.0892562
0.0892447
0.0892254
0.0891918
0.0891328
0.0890296
0.0888517
0.0885493
0.0880411
0.0871881
0.0857357
0.0831637
0.0782421
0.0673906
0.0361142
0.0366319
0.067279
0.0794849
0.0850341
0.0877974
0.089262
0.0900672
0.090516
0.0907649
0.0908999
0.0909692
0.0910014
0.0910141
0.091017
0.0910155
0.0910121
0.0910082
0.0910042
0.0910003
0.0909966
0.0909931
0.0909895
0.0909858
0.0909816
0.0909759
0.0909676
0.0909542
0.0909313
0.0908917
0.0908232
0.090706
0.0905085
0.0901806
0.089641
0.0887514
0.0872557
0.0846252
0.0795974
0.0684903
0.0365386
0.0379343
0.0688895
0.0811973
0.0866103
0.0892206
0.0905792
0.0913209
0.0917344
0.0919648
0.0920904
0.0921551
0.0921856
0.0921978
0.0922007
0.0921994
0.0921963
0.0921926
0.0921889
0.0921854
0.0921821
0.0921789
0.0921757
0.0921721
0.0921677
0.0921617
0.0921524
0.092137
0.0921107
0.0920655
0.0919885
0.0918591
0.0916452
0.0912963
0.0907313
0.0898116
0.0882791
0.0855964
0.0804756
0.0691699
0.0367913
0.041452
0.0714181
0.0832707
0.0881955
0.0904836
0.0916578
0.0922969
0.0926536
0.0928523
0.0929599
0.0930144
0.0930393
0.0930482
0.0930492
0.0930465
0.0930426
0.0930385
0.0930345
0.0930309
0.0930275
0.0930243
0.0930211
0.0930174
0.0930128
0.0930062
0.0929958
0.0929785
0.092949
0.0928988
0.0928143
0.0926743
0.0924463
0.0920797
0.0914932
0.0905475
0.0889821
0.0862516
0.0810495
0.0695897
0.0369423
0.0494816
0.0755948
0.0858747
0.0898398
0.0916466
0.0925745
0.0930834
0.0933688
0.0935274
0.0936115
0.0936523
0.093669
0.0936728
0.0936705
0.0936656
0.0936602
0.093655
0.0936503
0.0936462
0.0936425
0.093639
0.0936356
0.0936317
0.0936268
0.0936195
0.093608
0.0935888
0.0935564
0.0935016
0.0934104
0.0932612
0.0930211
0.0926393
0.0920341
0.0910655
0.0894701
0.0866964
0.0814249
0.0698477
0.0370337
0.0896874
0.0670583
0.0930128
0.0867098
0.0947172
0.0938808
0.095318
0.0955853
0.0955431
0.0959567
0.0956224
0.0959616
0.0956519
0.0958992
0.0956732
0.0958492
0.0956977
0.0958233
0.0957249
0.0958144
0.0958152
0.0958197
0.0958233
0.0958245
0.0958222
0.0958165
0.0958081
0.0957976
0.095786
0.0957739
0.0957621
0.095751
0.0957408
0.0957318
0.0957239
0.0957174
0.0957122
0.0957083
0.0957055
0.0957037
0.0957028
0.0957027
0.0957032
0.054277
0.0438166
0.038926
0.0401973
0.0794603
0.0736515
0.0706867
0.0726878
0.0910676
0.0874613
0.0851339
0.0858123
0.0947054
0.0928131
0.0913044
0.0913035
0.0957159
0.0947957
0.0939472
0.0937819
0.0959361
0.0955202
0.0950787
0.0949232
0.095947
0.095777
0.0955587
0.0954501
0.0959158
0.0958588
0.0957565
0.0956899
0.0958863
0.0958773
0.0958324
0.0957942
0.0958672
0.0958748
0.0958561
0.0958339
0.0958556
0.0958661
0.0958572
0.0958424
0.0958479
0.0958554
0.0958481
0.0958352
0.0958414
0.0958433
0.0958338
0.0958199
0.0958337
0.0958296
0.0958164
0.0958
0.095824
0.0958142
0.095797
0.0957776
0.0958121
0.0957974
0.0957763
0.095754
0.0957986
0.0957796
0.0957551
0.0957303
0.095784
0.0957614
0.095734
0.095707
0.0957689
0.0957434
0.0957136
0.0956847
0.095754
0.0957261
0.0956942
0.0956639
0.0957398
0.0957097
0.0956762
0.0956448
0.0957265
0.0956947
0.0956598
0.0956273
0.0957144
0.095681
0.0956449
0.0956116
0.0957036
0.0956688
0.0956316
0.0955976
0.0956941
0.095658
0.0956198
0.0955851
0.095686
0.0956486
0.0956094
0.095574
0.0956791
0.0956404
0.0956002
0.0955642
0.0956734
0.0956333
0.0955922
0.0955556
0.0956688
0.0956273
0.0955852
0.0955479
0.0956651
0.0956223
0.0955792
0.0955412
0.0956622
0.0956179
0.0955738
0.0955351
0.09566
0.0956142
0.0955691
0.0955297
0.0956582
0.0956109
0.0955648
0.0955249
0.0603868
0.0816039
0.088743
0.0914328
0.0926958
0.0933592
0.0937294
0.0939387
0.0940534
0.0941117
0.0941372
0.0941444
0.0941422
0.0941359
0.0941283
0.0941209
0.0941143
0.0941086
0.0941038
0.0940995
0.0940957
0.0940919
0.0940877
0.0940823
0.0940743
0.0940617
0.0940408
0.0940056
0.0939467
0.0938496
0.0936924
0.0934417
0.0930465
0.0924249
0.0914357
0.0898131
0.0870011
0.0816717
0.0700064
0.0370914
0.0809098
0.0880232
0.0913052
0.092804
0.0935831
0.0940113
0.0942552
0.0943925
0.094465
0.0944981
0.0945082
0.0945057
0.0944972
0.0944867
0.0944761
0.0944667
0.0944585
0.0944517
0.094446
0.0944411
0.0944368
0.0944325
0.0944279
0.0944219
0.0944133
0.0943996
0.094377
0.0943393
0.0942768
0.0941746
0.0940102
0.0937504
0.0933435
0.0927074
0.0916998
0.0900533
0.0872084
0.0818321
0.0701027
0.0371297
0.088926
0.0915959
0.0930705
0.0938452
0.0942802
0.0945287
0.0946706
0.0947475
0.0947834
0.0947941
0.0947901
0.0947786
0.0947642
0.0947496
0.0947362
0.0947247
0.0947151
0.0947071
0.0947005
0.0946949
0.09469
0.0946853
0.0946802
0.0946737
0.0946644
0.0946497
0.0946256
0.0945858
0.09452
0.0944133
0.0942429
0.0939751
0.0935583
0.0929095
0.0918861
0.0902192
0.0873471
0.0819346
0.07016
0.037157
0.0924836
0.0935504
0.0942014
0.0945772
0.0947962
0.0949212
0.0949887
0.0950194
0.0950262
0.0950183
0.0950024
0.0949831
0.0949635
0.0949454
0.0949295
0.0949161
0.0949051
0.0948961
0.0948886
0.0948824
0.0948769
0.0948717
0.0948661
0.0948591
0.0948491
0.0948336
0.0948082
0.0947664
0.094698
0.0945875
0.094412
0.0941375
0.0937122
0.0930528
0.092016
0.0903323
0.0874387
0.081999
0.0701934
0.0371781
0.0941806
0.0946129
0.0948954
0.095064
0.095159
0.0952069
0.0952245
0.0952223
0.0952075
0.0951854
0.0951601
0.0951345
0.0951107
0.0950897
0.0950717
0.0950568
0.0950445
0.0950345
0.0950263
0.0950195
0.0950135
0.0950078
0.0950018
0.0949943
0.0949837
0.0949674
0.094941
0.0948976
0.0948269
0.0947132
0.0945335
0.0942535
0.0938211
0.093153
0.0921054
0.0904082
0.0874981
0.0820388
0.0702125
0.0371959
0.0950324
0.0951983
0.0953131
0.0953774
0.0954047
0.095407
0.0953933
0.0953693
0.0953395
0.0953071
0.0952749
0.0952447
0.0952177
0.0951944
0.0951749
0.0951587
0.0951455
0.0951347
0.0951259
0.0951185
0.095112
0.095106
0.0950995
0.0950916
0.0950806
0.0950636
0.0950362
0.0949915
0.094919
0.0948027
0.0946195
0.0943351
0.0938971
0.0932219
0.0921658
0.0904583
0.087536
0.0820628
0.070223
0.0372118
0.0954633
0.0955201
0.0955591
0.0955726
0.0955646
0.0955416
0.0955093
0.0954718
0.0954323
0.0953932
0.0953564
0.0953231
0.095294
0.0952692
0.0952485
0.0952315
0.0952175
0.0952062
0.0951968
0.095189
0.0951821
0.0951757
0.0951689
0.0951607
0.0951492
0.0951316
0.0951035
0.0950578
0.0949837
0.0948655
0.0946796
0.0943916
0.0939491
0.0932686
0.092206
0.0904908
0.0875597
0.0820769
0.0702286
0.0372268
0.0956779
0.0956924
0.0956987
0.0956884
0.0956631
0.0956271
0.0955848
0.0955397
0.0954947
0.0954518
0.0954124
0.0953774
0.0953471
0.0953214
0.0953
0.0952824
0.095268
0.0952562
0.0952465
0.0952383
0.0952312
0.0952244
0.0952174
0.0952088
0.095197
0.095179
0.0951503
0.0951037
0.0950285
0.0949087
0.0947207
0.09443
0.0939841
0.0932995
0.0922321
0.0905114
0.0875741
0.0820849
0.0702314
0.0372412
0.0957796
0.0957792
0.095772
0.0957516
0.0957187
0.0956769
0.09563
0.0955815
0.0955341
0.0954895
0.0954491
0.0954134
0.0953827
0.0953568
0.0953352
0.0953174
0.0953027
0.0952907
0.0952807
0.0952723
0.0952649
0.0952579
0.0952506
0.0952418
0.0952297
0.0952114
0.0951822
0.095135
0.0950589
0.0949379
0.0947483
0.0944555
0.0940072
0.0933196
0.0922487
0.0905242
0.0875827
0.0820892
0.0702325
0.0372554
0.0958217
0.0958163
0.0958041
0.0957799
0.0957445
0.095701
0.095653
0.0956039
0.0955562
0.0955117
0.0954715
0.0954361
0.0954057
0.09538
0.0953585
0.0953407
0.095326
0.0953139
0.0953038
0.0952952
0.0952876
0.0952805
0.095273
0.095264
0.0952517
0.0952331
0.0952036
0.0951559
0.0950791
0.0949572
0.0947664
0.0944722
0.094022
0.0933323
0.092259
0.0905318
0.0875875
0.0820912
0.0702327
0.0372692
0.0958319
0.0958247
0.0958106
0.0957856
0.0957502
0.0957073
0.0956602
0.0956122
0.0955657
0.0955224
0.0954834
0.095449
0.0954194
0.0953943
0.0953733
0.0953557
0.0953412
0.0953291
0.095319
0.0953103
0.0953026
0.0952954
0.0952878
0.0952787
0.0952662
0.0952474
0.0952176
0.0951695
0.0950923
0.0949696
0.094778
0.0944827
0.0940313
0.0933401
0.0922651
0.0905362
0.08759
0.0820918
0.0702323
0.0372829
0.0958247
0.0958162
0.0958013
0.0957766
0.0957425
0.0957014
0.0956565
0.0956108
0.0955665
0.0955252
0.0954879
0.095455
0.0954266
0.0954024
0.095382
0.0953649
0.0953506
0.0953387
0.0953286
0.09532
0.0953123
0.095305
0.0952973
0.0952881
0.0952755
0.0952565
0.0952265
0.0951782
0.0951006
0.0949775
0.0947852
0.0944891
0.0940368
0.0933446
0.0922686
0.0905384
0.087591
0.0820916
0.0702315
0.0372963
0.095808
0.0957979
0.0957826
0.0957587
0.0957263
0.0956877
0.0956456
0.0956027
0.0955612
0.0955224
0.0954873
0.0954562
0.0954292
0.0954061
0.0953865
0.09537
0.0953561
0.0953444
0.0953345
0.0953259
0.0953182
0.0953109
0.0953032
0.0952939
0.0952812
0.0952622
0.095232
0.0951835
0.0951056
0.0949822
0.0947895
0.0944928
0.0940399
0.093347
0.0922703
0.0905394
0.0875911
0.0820908
0.0702305
0.0373093
0.0957859
0.0957743
0.0957585
0.0957355
0.0957051
0.0956693
0.0956303
0.0955906
0.095552
0.095516
0.0954832
0.0954541
0.0954287
0.0954068
0.0953882
0.0953723
0.0953589
0.0953475
0.0953378
0.0953293
0.0953217
0.0953144
0.0953067
0.0952974
0.0952847
0.0952655
0.0952353
0.0951866
0.0951085
0.0949848
0.0947918
0.0944948
0.0940414
0.093348
0.0922708
0.0905395
0.0875907
0.0820896
0.0702292
0.0373221
0.0957612
0.0957479
0.0957318
0.0957098
0.0956815
0.0956484
0.0956125
0.0955761
0.0955406
0.0955073
0.095477
0.0954499
0.0954261
0.0954055
0.0953878
0.0953727
0.0953598
0.0953487
0.0953393
0.095331
0.0953235
0.0953162
0.0953085
0.0952992
0.0952865
0.0952673
0.095237
0.0951882
0.09511
0.0949861
0.0947928
0.0944955
0.0940419
0.0933482
0.0922707
0.090539
0.0875898
0.0820882
0.0702277
0.0373345
0.0957353
0.0957206
0.0957043
0.0956833
0.0956571
0.0956266
0.0955938
0.0955605
0.095528
0.0954974
0.0954694
0.0954443
0.0954222
0.0954028
0.0953861
0.0953717
0.0953594
0.0953488
0.0953396
0.0953315
0.0953241
0.0953169
0.0953093
0.0953
0.0952873
0.0952681
0.0952377
0.0951888
0.0951105
0.0949864
0.094793
0.0944955
0.0940417
0.0933478
0.0922701
0.0905381
0.0875886
0.0820866
0.070226
0.0373466
0.0957095
0.0956936
0.0956773
0.0956573
0.095633
0.0956051
0.0955751
0.0955447
0.095515
0.095487
0.0954612
0.095438
0.0954174
0.0953993
0.0953835
0.0953699
0.0953581
0.0953479
0.095339
0.0953311
0.0953239
0.0953169
0.0953093
0.0953001
0.0952874
0.0952682
0.0952377
0.0951888
0.0951104
0.0949862
0.0947927
0.094495
0.094041
0.093347
0.0922691
0.090537
0.0875872
0.0820847
0.0702241
0.0373581
0.0956846
0.0956677
0.0956515
0.0956326
0.09561
0.0955844
0.0955571
0.0955293
0.0955021
0.0954764
0.0954527
0.0954313
0.0954121
0.0953952
0.0953804
0.0953675
0.0953562
0.0953465
0.0953379
0.0953303
0.0953232
0.0953163
0.0953088
0.0952997
0.095287
0.0952678
0.0952373
0.0951884
0.0951099
0.0949856
0.094792
0.0944942
0.09404
0.0933459
0.0922679
0.0905357
0.0875857
0.0820827
0.070222
0.0373693
0.095661
0.0956435
0.0956275
0.0956095
0.0955886
0.0955651
0.09554
0.0955146
0.0954897
0.0954661
0.0954443
0.0954244
0.0954066
0.0953908
0.0953769
0.0953646
0.095354
0.0953446
0.0953364
0.095329
0.0953221
0.0953154
0.095308
0.0952989
0.0952862
0.095267
0.0952366
0.0951876
0.0951091
0.0949848
0.094791
0.0944931
0.0940389
0.0933446
0.0922666
0.0905342
0.0875839
0.0820805
0.0702197
0.0373799
0.0956392
0.0956212
0.0956054
0.0955884
0.0955689
0.0955472
0.0955242
0.0955008
0.0954779
0.0954562
0.095436
0.0954176
0.095401
0.0953862
0.0953731
0.0953616
0.0953514
0.0953425
0.0953345
0.0953274
0.0953207
0.0953141
0.0953069
0.0952978
0.0952853
0.0952661
0.0952357
0.0951867
0.0951081
0.0949837
0.0947898
0.0944919
0.0940375
0.0933432
0.0922651
0.0905326
0.087582
0.0820781
0.0702171
0.03739
0.0956192
0.0956008
0.0955853
0.0955691
0.0955509
0.0955308
0.0955096
0.095488
0.0954669
0.0954468
0.0954281
0.095411
0.0953955
0.0953816
0.0953692
0.0953583
0.0953486
0.0953401
0.0953325
0.0953256
0.0953191
0.0953127
0.0953055
0.0952966
0.0952841
0.095265
0.0952346
0.0951856
0.095107
0.0949825
0.0947885
0.0944905
0.0940361
0.0933417
0.0922635
0.0905309
0.08758
0.0820755
0.0702144
0.0373996
0.0956011
0.0955825
0.0955673
0.0955518
0.0955347
0.095516
0.0954962
0.0954762
0.0954566
0.0954379
0.0954205
0.0954045
0.09539
0.0953769
0.0953653
0.0953549
0.0953457
0.0953376
0.0953303
0.0953237
0.0953174
0.0953111
0.0953041
0.0952953
0.0952828
0.0952637
0.0952333
0.0951843
0.0951057
0.0949812
0.0947872
0.094489
0.0940345
0.09334
0.0922617
0.090529
0.0875778
0.0820728
0.0702113
0.0374086
0.0955848
0.0955661
0.0955511
0.0955362
0.0955201
0.0955025
0.095484
0.0954653
0.095447
0.0954296
0.0954133
0.0953983
0.0953846
0.0953723
0.0953613
0.0953515
0.0953428
0.095335
0.095328
0.0953216
0.0953155
0.0953094
0.0953025
0.0952938
0.0952814
0.0952624
0.095232
0.095183
0.0951043
0.0949798
0.0947857
0.0944875
0.0940329
0.0933383
0.0922599
0.090527
0.0875755
0.0820699
0.0702081
0.037417
0.0955703
0.0955514
0.0955366
0.0955223
0.0955069
0.0954903
0.0954729
0.0954553
0.0954381
0.0954217
0.0954064
0.0953923
0.0953794
0.0953678
0.0953574
0.0953481
0.0953397
0.0953323
0.0953256
0.0953194
0.0953136
0.0953076
0.0953008
0.0952922
0.0952799
0.0952609
0.0952306
0.0951816
0.0951029
0.0949783
0.0947841
0.0944858
0.0940311
0.0933365
0.092258
0.0905249
0.0875731
0.0820669
0.0702046
0.0374248
0.0955574
0.0955383
0.0955236
0.0955097
0.095495
0.0954792
0.0954627
0.0954461
0.0954299
0.0954144
0.0953999
0.0953866
0.0953744
0.0953634
0.0953535
0.0953446
0.0953367
0.0953296
0.0953231
0.0953172
0.0953115
0.0953057
0.0952991
0.0952905
0.0952783
0.0952594
0.0952291
0.0951801
0.0951014
0.0949768
0.0947825
0.0944842
0.0940294
0.0933347
0.0922561
0.0905228
0.0875706
0.0820637
0.0702009
0.037432
0.0955459
0.0955266
0.095512
0.0954984
0.0954842
0.0954691
0.0954534
0.0954376
0.0954222
0.0954075
0.0953938
0.0953811
0.0953695
0.0953591
0.0953497
0.0953412
0.0953336
0.0953268
0.0953206
0.0953149
0.0953094
0.0953038
0.0952973
0.0952888
0.0952767
0.0952579
0.0952276
0.0951786
0.0950999
0.0949752
0.0947809
0.0944825
0.0940276
0.0933328
0.0922541
0.0905206
0.087568
0.0820603
0.070197
0.0374386
0.0955357
0.0955161
0.0955016
0.0954882
0.0954744
0.0954598
0.0954448
0.0954297
0.095415
0.095401
0.0953879
0.0953758
0.0953648
0.0953549
0.0953459
0.0953378
0.0953306
0.095324
0.0953181
0.0953126
0.0953073
0.0953018
0.0952954
0.0952871
0.095275
0.0952563
0.095226
0.0951771
0.0950983
0.0949736
0.0947793
0.0944807
0.0940258
0.0933309
0.092252
0.0905183
0.0875652
0.0820569
0.0701929
0.0374445
0.0955266
0.0955068
0.0954922
0.095479
0.0954655
0.0954514
0.0954368
0.0954223
0.0954082
0.0953948
0.0953823
0.0953708
0.0953603
0.0953508
0.0953422
0.0953345
0.0953275
0.0953213
0.0953156
0.0953103
0.0953052
0.0952998
0.0952936
0.0952854
0.0952734
0.0952547
0.0952245
0.0951755
0.0950968
0.094972
0.0947776
0.094479
0.094024
0.093329
0.0922499
0.090516
0.0875624
0.0820533
0.0701886
0.0374497
0.0955185
0.0954984
0.0954837
0.0954705
0.0954573
0.0954436
0.0954295
0.0954155
0.0954019
0.095389
0.095377
0.095366
0.0953559
0.0953468
0.0953386
0.0953312
0.0953246
0.0953186
0.0953131
0.095308
0.095303
0.0952978
0.0952917
0.0952836
0.0952717
0.095253
0.0952229
0.095174
0.0950952
0.0949704
0.094776
0.0944773
0.0940222
0.093327
0.0922478
0.0905136
0.0875596
0.0820496
0.0701841
0.0374543
0.0955112
0.0954908
0.0954759
0.0954628
0.0954498
0.0954363
0.0954226
0.095409
0.0953959
0.0953835
0.0953719
0.0953613
0.0953517
0.0953429
0.0953351
0.095328
0.0953216
0.0953159
0.0953106
0.0953057
0.0953009
0.0952958
0.0952898
0.0952818
0.09527
0.0952514
0.0952213
0.0951724
0.0950937
0.0949688
0.0947743
0.0944756
0.0940204
0.0933251
0.0922458
0.0905112
0.0875567
0.0820458
0.0701795
0.0374582
0.0955047
0.0954839
0.0954689
0.0954557
0.0954428
0.0954295
0.0954161
0.0954029
0.0953902
0.0953782
0.0953671
0.0953569
0.0953476
0.0953392
0.0953316
0.0953248
0.0953187
0.0953132
0.0953082
0.0953034
0.0952988
0.0952939
0.095288
0.0952801
0.0952684
0.0952498
0.0952198
0.0951709
0.0950921
0.0949673
0.0947727
0.0944739
0.0940186
0.0933232
0.0922437
0.0905088
0.0875537
0.082042
0.0701747
0.0374613
0.0954988
0.0954776
0.0954623
0.0954491
0.0954362
0.0954232
0.0954101
0.0953972
0.0953848
0.0953732
0.0953624
0.0953526
0.0953436
0.0953356
0.0953283
0.0953218
0.0953159
0.0953106
0.0953058
0.0953012
0.0952967
0.0952919
0.0952862
0.0952784
0.0952667
0.0952483
0.0952183
0.0951694
0.0950906
0.0949658
0.0947712
0.0944723
0.0940169
0.0933213
0.0922416
0.0905064
0.0875508
0.0820381
0.0701698
0.0374637
0.0954935
0.0954719
0.0954563
0.095443
0.0954301
0.0954172
0.0954043
0.0953917
0.0953796
0.0953684
0.095358
0.0953485
0.0953399
0.0953321
0.0953251
0.0953188
0.0953132
0.0953081
0.0953035
0.0952991
0.0952947
0.0952901
0.0952844
0.0952767
0.0952651
0.0952467
0.0952168
0.095168
0.0950892
0.0949643
0.0947696
0.0944707
0.0940152
0.0933195
0.0922395
0.090504
0.0875478
0.0820342
0.0701649
0.0374654
)
;

boundaryField
{
    leftWall
    {
        type            kqRWallFunction;
        value           nonuniform 0();
    }
    rightWall
    {
        type            kqRWallFunction;
        value           nonuniform List<scalar> 
43
(
0.0234145
0.0293693
0.0323519
0.0342348
0.035405
0.0361142
0.0365386
0.0367913
0.0369423
0.0370337
0.0370914
0.0371297
0.037157
0.0371781
0.0371959
0.0372118
0.0372268
0.0372412
0.0372554
0.0372692
0.0372829
0.0372963
0.0373093
0.0373221
0.0373345
0.0373466
0.0373581
0.0373693
0.0373799
0.03739
0.0373996
0.0374086
0.037417
0.0374248
0.037432
0.0374386
0.0374445
0.0374497
0.0374543
0.0374582
0.0374613
0.0374637
0.0374654
)
;
    }
    lowerWall
    {
        type            kqRWallFunction;
        value           nonuniform List<scalar> 
66
(
0.0250939
0.0208067
0.0208067
0.0293739
0.0337626
0.0367705
0.0389641
0.0406953
0.0422925
0.0441592
0.0469023
0.0521559
0.054277
0.0438166
0.038926
0.0401973
0.0206963
0.0292474
0.0323415
0.0341203
0.035214
0.035945
0.0366319
0.0379343
0.041452
0.0494816
0.0206963
0.0253553
0.0284601
0.0301085
0.0308859
0.0311988
0.0312829
0.0312643
0.0312055
0.0311351
0.0310672
0.0310315
0.0309985
0.030965
0.0309314
0.0308978
0.0308642
0.0308306
0.0307969
0.0307631
0.0307292
0.0306953
0.0306615
0.0306279
0.0305945
0.0305614
0.0305285
0.0304953
0.0304615
0.0304258
0.030386
0.0303376
0.030271
0.0301659
0.0299792
0.0296199
0.0289013
0.027464
0.024821
0.0234145
)
;
    }
    atmosphere
    {
        type            inletOutlet;
        inletValue      nonuniform 0();
        value           nonuniform 0();
    }
    defaultFaces
    {
        type            empty;
    }
    procBoundary1to0
    {
        type            processor;
        value           nonuniform List<scalar> 
44
(
0.0278859
0.053374
0.0660886
0.0733274
0.0778034
0.0808084
0.0830758
0.085098
0.0872435
0.0896944
0.0919401
0.0933941
0.0942729
0.0947776
0.0950762
0.0952646
0.0953943
0.0954929
0.0955722
0.095638
0.095752
0.095752
0.0957753
0.0957932
0.095805
0.0958109
0.0958117
0.0958084
0.0958022
0.0957941
0.0957851
0.0957759
0.0957671
0.095759
0.0957519
0.0957461
0.0957416
0.0957384
0.0957365
0.0957359
0.0957366
0.0957385
0.0957413
0.0957448
)
;
    }
    procBoundary1to3
    {
        type            processor;
        value           nonuniform List<scalar> 
45
(
0.095704
0.0956567
0.0956079
0.0955609
0.0955203
0.0954885
0.0954665
0.0954506
0.0954371
0.0954243
0.0954114
0.0953987
0.0953864
0.0953747
0.0953637
0.0953537
0.0953445
0.0953362
0.0953287
0.095322
0.0953159
0.0953105
0.0953056
0.0953011
0.0952969
0.0952927
0.0952882
0.0952827
0.0952751
0.0952636
0.0952453
0.0952153
0.0951665
0.0950878
0.0949628
0.0947681
0.0944691
0.0940135
0.0933177
0.0922375
0.0905016
0.0875447
0.0820301
0.0701597
0.0374666
)
;
    }
}


// ************************************************************************* //
