/*--------------------------------*- C++ -*----------------------------------*\
| =========                 |                                                 |
| \\      /  F ield         | OpenFOAM: The Open Source CFD Toolbox           |
|  \\    /   O peration     | Version:  5.0                                   |
|   \\  /    A nd           | Web:      www.OpenFOAM.org                      |
|    \\/     M anipulation  |                                                 |
\*---------------------------------------------------------------------------*/
FoamFile
{
    version     2.0;
    format      ascii;
    class       volScalarField;
    location    "0.05";
    object      nut;
}
// * * * * * * * * * * * * * * * * * * * * * * * * * * * * * * * * * * * * * //

dimensions      [0 2 -1 0 0 0 0];

internalField   nonuniform List<scalar> 
1915
(
7.61774e-05
6.71631e-05
0.000332615
0.000109329
0.000546394
0.00011997
0.000710784
0.000127248
0.000834887
0.000132624
0.000928998
0.000136942
0.00100423
0.000140929
0.00107278
0.000145433
0.00115003
0.000151539
0.00126607
0.000161023
6.67544e-05
7.66413e-05
8.29458e-05
8.63664e-05
8.80776e-05
8.88268e-05
8.9065e-05
8.90542e-05
8.89368e-05
8.8784e-05
8.86273e-05
8.85397e-05
8.84654e-05
8.83917e-05
8.83191e-05
8.82476e-05
8.81772e-05
8.81072e-05
8.80375e-05
8.79679e-05
8.78984e-05
8.78292e-05
8.77605e-05
8.76925e-05
8.76251e-05
8.75583e-05
8.74916e-05
8.74241e-05
8.73542e-05
8.72787e-05
8.71914e-05
8.70799e-05
8.69196e-05
8.6661e-05
8.62063e-05
8.53654e-05
8.3777e-05
8.0774e-05
7.53608e-05
8.30591e-05
0.00011393
0.000364147
0.000518429
0.000608543
0.000658046
0.000682949
0.000693914
0.000697604
0.000697871
0.000696746
0.000695147
0.000693067
0.000691187
0.000689698
0.000688572
0.000687739
0.000687133
0.000686698
0.000686393
0.00068619
0.00068607
0.000686022
0.000686036
0.000686102
0.000686209
0.000686339
0.000686469
0.000686563
0.00068656
0.000686349
0.000685719
0.000684251
0.000681127
0.000674765
0.000662191
0.000638024
0.000592954
0.000511444
0.000367191
0.000114106
0.000121501
0.000553911
0.000906618
0.00115224
0.00130799
0.00139834
0.00144602
0.0014684
0.00147702
0.00147882
0.00147754
0.00147436
0.00147098
0.00146804
0.00146569
0.00146387
0.00146249
0.00146146
0.0014607
0.00146015
0.00145978
0.00145954
0.00145942
0.00145939
0.00145941
0.00145946
0.00145944
0.00145925
0.00145865
0.00145719
0.00145403
0.00144755
0.00143473
0.00141019
0.00136469
0.00128346
0.00114477
0.000920212
0.00057906
0.000121581
0.000125865
0.00067539
0.00121055
0.00163543
0.00193604
0.00212894
0.00224213
0.00230279
0.00233199
0.00234381
0.00234674
0.00234464
0.00234095
0.00233719
0.00233394
0.00233131
0.00232926
0.0023277
0.00232653
0.00232567
0.00232506
0.00232465
0.00232439
0.00232424
0.00232413
0.00232397
0.00232359
0.00232266
0.0023206
0.00231626
0.00230749
0.00229045
0.00225835
0.00220001
0.00209805
0.00192782
0.00165881
0.00126185
0.000726505
0.00012631
0.000128617
0.000752109
0.00143702
0.00203891
0.00250355
0.00282588
0.00302975
0.00314825
0.0032115
0.00324192
0.00325414
0.0032562
0.003254
0.00325047
0.00324692
0.00324384
0.00324135
0.00323941
0.00323795
0.00323686
0.00323609
0.00323554
0.00323517
0.00323489
0.00323459
0.00323407
0.00323299
0.00323068
0.00322588
0.00321628
0.00319771
0.00316297
0.00310027
0.00299147
0.00281095
0.00252668
0.00210631
0.00153216
0.000827495
0.000129325
0.000130562
0.000798953
0.00159882
0.00236047
0.00299103
0.00345591
0.00376688
0.00395813
0.00406696
0.00412402
0.0041507
0.00416022
0.00416156
0.00415951
0.00415644
0.0041534
0.00415078
0.00414867
0.00414705
0.00414584
0.00414497
0.00414434
0.00414386
0.00414343
0.00414284
0.00414175
0.00413952
0.00413495
0.00412583
0.00410815
0.00407504
0.00401517
0.00391102
0.00373751
0.00346234
0.00305024
0.00247416
0.00173617
0.000895198
0.000131228
0.000132545
0.000826179
0.00171164
0.00261123
0.00339796
0.00400521
0.00442851
0.0046996
0.00486078
0.00495002
0.00499501
0.00501473
0.00502145
0.00502208
0.00502025
0.00501774
0.00501531
0.00501326
0.00501163
0.0050104
0.00500949
0.0050088
0.00500823
0.00500759
0.00500659
0.00500466
0.00500077
0.004993
0.00497786
0.00494932
0.00489729
0.00480593
0.00465202
0.00440452
0.00402694
0.00348508
0.00276258
0.00188428
0.000939652
0.00013242
0.000136312
0.000840545
0.0017923
0.00281205
0.00373948
0.00447778
0.00500707
0.00535585
0.00556977
0.00569262
0.00575764
0.00578906
0.00580233
0.00580649
0.00580652
0.00580495
0.005803
0.00580118
0.00579967
0.0057985
0.0057976
0.00579689
0.00579621
0.00579531
0.00579375
0.00579072
0.00578467
0.00577281
0.00575022
0.00570853
0.00563431
0.00550726
0.00529907
0.00497424
0.00449477
0.00383103
0.00298002
0.00198839
0.000968255
0.000133162
0.000145156
0.000844487
0.0018626
0.00299467
0.00404365
0.00489129
0.0055091
0.00592416
0.00618451
0.00633776
0.00642191
0.00646496
0.00648503
0.00649307
0.00649526
0.00649488
0.00649359
0.00649215
0.00649086
0.0064898
0.00648896
0.00648822
0.00648741
0.0064862
0.00648397
0.0064796
0.006471
0.00645441
0.00642337
0.00636716
0.00626905
0.00610472
0.00584173
0.00544178
0.00486762
0.00409627
0.00313858
0.00205958
0.00098629
0.000133622
0.000160911
0.000862419
0.00197387
0.00321095
0.00434998
0.0052719
0.00594989
0.00641166
0.00670631
0.00688287
0.00698259
0.00703555
0.00706172
0.00707341
0.00707774
0.00707861
0.00707806
0.00707706
0.00707603
0.00707513
0.00707435
0.00707359
0.00707263
0.00707106
0.00706807
0.00706223
0.00705084
0.00702921
0.0069893
0.00691818
0.00679616
0.00659549
0.00628065
0.00581206
0.00515472
0.00429319
0.00325087
0.00210707
0.000997429
0.000133908
0.00156168
0.000384584
0.00205028
0.00095198
0.00274627
0.00177895
0.00358925
0.00277281
0.00449256
0.00382516
0.00537338
0.00484142
0.00617453
0.00576204
0.00686464
0.00655433
0.00743255
0.00720633
0.00788137
0.00772153
0.00811359
0.00840148
0.00860591
0.00874651
0.00884029
0.00890101
0.00893919
0.00896249
0.00897627
0.00898413
0.00898843
0.00899064
0.00899166
0.00899205
0.00899211
0.00899202
0.00899187
0.00899172
0.00899157
0.00899142
0.00899128
0.00899116
0.00899106
0.000128077
0.000114824
0.000107115
0.00010716
0.000646878
0.000669366
0.000715382
0.000799654
0.00146653
0.0014633
0.00153896
0.00170182
0.00244535
0.00239665
0.00247265
0.00266445
0.00349842
0.00341215
0.00347301
0.00366208
0.00454227
0.00443821
0.00447899
0.00464579
0.00550849
0.00540509
0.00542827
0.00556414
0.00635247
0.0062616
0.00627258
0.00637676
0.00705375
0.00698057
0.00698444
0.00706061
0.00761123
0.00755607
0.00755645
0.00761001
0.0080369
0.00799749
0.0079965
0.00803288
0.00835002
0.00832307
0.00832176
0.00834569
0.00857246
0.00855467
0.00855344
0.00856867
0.00872534
0.00871391
0.00871284
0.00872215
0.00882716
0.00881991
0.00881895
0.00882435
0.00889295
0.00888832
0.00888739
0.00889026
0.0089342
0.00893113
0.00893018
0.00893144
0.00895929
0.00895711
0.00895609
0.00895634
0.00897406
0.00897236
0.00897126
0.00897088
0.00898244
0.00898097
0.00897979
0.00897901
0.00898699
0.0089856
0.00898433
0.00898331
0.00898928
0.0089879
0.00898657
0.00898539
0.00899032
0.00898891
0.0089875
0.00898623
0.00899067
0.00898922
0.00898775
0.00898639
0.00899067
0.00898916
0.00898763
0.00898622
0.00899051
0.00898894
0.00898735
0.00898589
0.00899029
0.00898865
0.00898701
0.00898551
0.00899004
0.00898834
0.00898665
0.0089851
0.0089898
0.00898802
0.00898628
0.0089847
0.00898957
0.00898772
0.00898593
0.00898431
0.00898933
0.00898742
0.00898559
0.00898394
0.00898911
0.00898714
0.00898526
0.00898358
0.00898894
0.0089869
0.00898498
0.00898327
0.000377862
0.0011545
0.00228789
0.00354596
0.00470595
0.00564992
0.00635083
0.00683427
0.00714689
0.00733747
0.00744744
0.00750747
0.00753829
0.00755294
0.00755911
0.00756113
0.00756128
0.00756072
0.00755996
0.00755922
0.00755851
0.00755772
0.0075566
0.00755463
0.00755085
0.00754346
0.00752923
0.0075025
0.00745383
0.00736823
0.00722347
0.00698905
0.00662739
0.00609866
0.00537108
0.00443651
0.00332906
0.00213831
0.00100422
0.00013409
0.00114835
0.00185527
0.00288033
0.00404217
0.00513707
0.00604336
0.0067262
0.00720343
0.00751626
0.00771001
0.00782382
0.00788728
0.00792077
0.00793733
0.00794483
0.00794773
0.00794846
0.00794828
0.00794776
0.00794716
0.0079465
0.00794568
0.00794439
0.00794202
0.00793745
0.00792855
0.00791157
0.00788
0.00782312
0.00772421
0.00755895
0.00729476
0.00689277
0.00631374
0.00552929
0.00453789
0.00338206
0.00215834
0.00100824
0.00013421
0.00205775
0.00271005
0.00362096
0.00464756
0.00562655
0.00645003
0.00707968
0.007526
0.00782279
0.00800928
0.00812052
0.00818362
0.00821762
0.00823491
0.00824308
0.00824653
0.00824766
0.00824775
0.00824743
0.00824693
0.00824632
0.00824544
0.00824398
0.00824123
0.00823591
0.00822563
0.00820616
0.00817025
0.00810612
0.00799565
0.00781287
0.00752375
0.00708875
0.00646957
0.00564111
0.00460729
0.00341688
0.0021708
0.00101052
0.000134293
0.00303588
0.00363399
0.00442533
0.00530285
0.00614201
0.00685594
0.00740959
0.00780757
0.00807579
0.00824657
0.0083498
0.00840921
0.00844175
0.00845864
0.00846685
0.00847047
0.00847181
0.00847207
0.00847186
0.00847144
0.00847083
0.0084699
0.00846827
0.00846518
0.0084592
0.00844771
0.00842608
0.00838648
0.00831626
0.00819621
0.00799914
0.00769005
0.00722912
0.00657917
0.0057179
0.00465351
0.00343916
0.00217833
0.00101174
0.000134354
0.00401273
0.00454793
0.00522083
0.0059509
0.00664719
0.00724367
0.00771119
0.00805124
0.00828315
0.00843255
0.00852394
0.00857717
0.00860671
0.00862226
0.00862997
0.00863346
0.00863481
0.00863514
0.00863498
0.00863459
0.00863398
0.00863299
0.00863121
0.00862782
0.00862127
0.00860877
0.00858536
0.00854276
0.00846764
0.00833999
0.00813175
0.00780728
0.00732677
0.00665408
0.0057692
0.00468347
0.00345302
0.00218271
0.00101233
0.000134403
0.00495341
0.00540986
0.00596493
0.00655602
0.00711682
0.00759878
0.00797941
0.00825888
0.00845142
0.00857674
0.00865419
0.00869976
0.0087253
0.00873889
0.0087457
0.00874882
0.00875005
0.00875034
0.00875019
0.0087498
0.00874916
0.00874811
0.00874619
0.00874255
0.00873555
0.00872224
0.00869743
0.00865247
0.00857358
0.00844012
0.00822347
0.0078876
0.00739282
0.00670389
0.00580255
0.00470236
0.00346139
0.00218516
0.00101255
0.000134445
0.0058178
0.00618917
0.00663135
0.00709573
0.00753404
0.00791123
0.00821071
0.00843226
0.00858619
0.00868726
0.00875026
0.00878765
0.00880876
0.00882007
0.00882575
0.00882835
0.00882935
0.00882956
0.00882937
0.00882895
0.00882829
0.00882717
0.00882514
0.0088213
0.00881395
0.0088
0.00877413
0.0087274
0.00864569
0.00850796
0.0082852
0.00794115
0.0074363
0.00673613
0.00582364
0.00471394
0.00346626
0.00218641
0.00101256
0.000134483
0.00657509
0.00686414
0.00720396
0.00755745
0.00788973
0.00817584
0.0084039
0.00857361
0.00869236
0.0087709
0.00882022
0.00884966
0.00886637
0.00887534
0.00887983
0.00888184
0.00888257
0.00888265
0.0088824
0.00888195
0.00888124
0.00888007
0.00887795
0.00887396
0.00886633
0.00885192
0.00882526
0.00877724
0.0086935
0.00855273
0.00832566
0.00797593
0.00746418
0.00675644
0.00583661
0.00472079
0.00346895
0.00218696
0.00101245
0.000134519
0.00720867
0.00742458
0.00767662
0.00793721
0.00818147
0.00839188
0.00856011
0.0086859
0.00877442
0.00883331
0.00887049
0.00889278
0.00890545
0.00891222
0.00891556
0.008917
0.00891744
0.00891738
0.00891707
0.00891657
0.00891583
0.00891461
0.00891242
0.0089083
0.00890047
0.00888573
0.0088585
0.00880957
0.00872442
0.00858153
0.00835151
0.00799793
0.00748158
0.00676888
0.00584433
0.00472468
0.0034703
0.00218709
0.00101227
0.000134554
0.00771612
0.00787136
0.00805194
0.00823799
0.00841208
0.00856214
0.00868241
0.00877268
0.00883649
0.00887913
0.00890614
0.00892235
0.00893153
0.00893638
0.00893869
0.00893961
0.00893978
0.00893959
0.00893921
0.00893867
0.00893789
0.00893664
0.00893439
0.00893019
0.00892222
0.00890723
0.00887961
0.00883005
0.00874392
0.00859961
0.00836761
0.00801149
0.00749214
0.00677625
0.00584873
0.00472673
0.00347087
0.00218698
0.00101206
0.000134588
0.00810619
0.00821388
0.00833901
0.00846769
0.00858801
0.00869179
0.00877514
0.00883788
0.00888236
0.00891215
0.00893104
0.00894233
0.00894867
0.00895192
0.00895338
0.00895385
0.0089538
0.00895349
0.00895305
0.00895247
0.00895167
0.00895038
0.00894809
0.00894383
0.00893575
0.0089206
0.00889271
0.00884273
0.00875595
0.00861069
0.00837739
0.00801962
0.00749834
0.00678045
0.00585109
0.00472767
0.00347095
0.00218673
0.00101183
0.000134621
0.00839462
0.00846685
0.00855078
0.00863704
0.00871768
0.00878728
0.00884325
0.00888545
0.00891541
0.00893547
0.00894814
0.00895564
0.00895975
0.00896175
0.00896253
0.00896264
0.0089624
0.00896201
0.00896151
0.00896091
0.00896008
0.00895877
0.00895646
0.00895215
0.00894401
0.00892874
0.00890067
0.0088504
0.00876318
0.0086173
0.00838316
0.00802433
0.00750184
0.00678269
0.0058522
0.00472795
0.00347076
0.0021864
0.00101158
0.000134654
0.00860025
0.00864713
0.00870167
0.00875771
0.0088101
0.00885533
0.00889171
0.00891914
0.00893859
0.00895155
0.00895965
0.00896434
0.00896679
0.00896785
0.00896812
0.00896795
0.00896758
0.00896711
0.00896659
0.00896596
0.00896512
0.0089638
0.00896146
0.00895712
0.00894893
0.00893359
0.00890539
0.00885493
0.00876743
0.00862114
0.00838645
0.00802694
0.00750367
0.00678374
0.00585257
0.00472783
0.0034704
0.00218601
0.00101133
0.000134686
0.00874185
0.00877129
0.00880561
0.00884088
0.00887385
0.00890228
0.00892512
0.00894229
0.00895438
0.00896235
0.00896721
0.0089699
0.00897117
0.00897156
0.00897145
0.0089711
0.00897063
0.00897011
0.00896956
0.00896893
0.00896808
0.00896674
0.0089644
0.00896003
0.00895181
0.00893641
0.00890813
0.00885754
0.00876985
0.00862329
0.00838824
0.00802828
0.00750452
0.00678409
0.0058525
0.00472748
0.00346994
0.0021856
0.00101107
0.000134716
0.00883616
0.00885401
0.00887489
0.00889636
0.0089164
0.00893363
0.00894741
0.00895767
0.00896481
0.00896938
0.00897204
0.00897336
0.00897381
0.00897374
0.00897338
0.0089729
0.00897237
0.00897183
0.00897126
0.00897062
0.00896977
0.00896843
0.00896608
0.0089617
0.00895345
0.00893802
0.00890968
0.00885899
0.00877117
0.00862442
0.00838913
0.00802887
0.00750477
0.00678401
0.00585216
0.00472698
0.00346941
0.00218516
0.00101081
0.000134746
0.00889699
0.00890738
0.0089196
0.00893218
0.00894387
0.00895386
0.00896176
0.00896754
0.00897143
0.00897379
0.008975
0.00897542
0.00897533
0.00897496
0.00897445
0.00897389
0.00897333
0.00897277
0.00897221
0.00897157
0.00897071
0.00896937
0.00896701
0.00896263
0.00895436
0.0089389
0.00891052
0.00885977
0.00877184
0.00862496
0.00838948
0.00802901
0.00750467
0.00678369
0.00585165
0.00472639
0.00346883
0.0021847
0.00101054
0.000134775
0.00893498
0.00894069
0.00894751
0.00895452
0.00896099
0.00896645
0.00897066
0.00897361
0.00897546
0.00897641
0.00897671
0.00897656
0.00897615
0.0089756
0.008975
0.0089744
0.00897382
0.00897326
0.0089727
0.00897206
0.00897122
0.00896988
0.00896752
0.00896312
0.00895485
0.00893936
0.00891095
0.00886014
0.00877214
0.00862515
0.00838953
0.00802888
0.00750436
0.0067832
0.00585104
0.00472573
0.00346822
0.00218422
0.00101026
0.000134803
0.00895792
0.00896079
0.00896431
0.00896794
0.00897125
0.00897394
0.00897591
0.00897715
0.00897775
0.00897786
0.00897761
0.00897713
0.00897653
0.00897588
0.00897523
0.00897461
0.00897403
0.00897349
0.00897293
0.00897231
0.00897146
0.00897013
0.00896777
0.00896337
0.00895509
0.00893958
0.00891114
0.00886029
0.00877222
0.00862513
0.00838939
0.0080286
0.00750392
0.00678262
0.00585036
0.00472502
0.00346757
0.00218372
0.00100998
0.00013483
0.00897127
0.00897244
0.00897402
0.00897566
0.00897709
0.00897817
0.00897882
0.00897905
0.00897893
0.00897855
0.00897799
0.00897733
0.00897663
0.00897593
0.00897527
0.00897466
0.00897409
0.00897356
0.00897302
0.0089724
0.00897156
0.00897023
0.00896787
0.00896348
0.00895518
0.00893967
0.00891119
0.0088603
0.00877217
0.008625
0.00838915
0.00802822
0.0075034
0.00678197
0.00584962
0.00472427
0.0034669
0.00218321
0.0010097
0.000134855
0.00897871
0.00897889
0.00897934
0.00897983
0.0089802
0.00898035
0.00898026
0.00897993
0.00897942
0.00897877
0.00897805
0.0089773
0.00897656
0.00897586
0.00897521
0.00897461
0.00897406
0.00897354
0.00897301
0.0089724
0.00897158
0.00897025
0.0089679
0.0089635
0.0089552
0.00893967
0.00891117
0.00886024
0.00877205
0.00862479
0.00838883
0.00802778
0.00750282
0.00678127
0.00584884
0.00472348
0.0034662
0.00218268
0.0010094
0.000134879
0.0089826
0.00898221
0.00898203
0.00898188
0.00898167
0.00898132
0.00898082
0.0089802
0.00897949
0.00897871
0.00897792
0.00897715
0.00897641
0.00897572
0.00897508
0.0089745
0.00897397
0.00897347
0.00897296
0.00897236
0.00897154
0.00897023
0.00896787
0.00896348
0.00895517
0.00893962
0.0089111
0.00886013
0.00877188
0.00862454
0.00838847
0.00802729
0.00750219
0.00678052
0.00584802
0.00472266
0.00346547
0.00218214
0.00100911
0.000134901
0.00898443
0.00898373
0.0089832
0.00898271
0.00898218
0.00898158
0.00898088
0.00898012
0.00897932
0.0089785
0.00897769
0.00897692
0.0089762
0.00897553
0.00897492
0.00897436
0.00897385
0.00897337
0.00897287
0.00897229
0.00897148
0.00897017
0.00896782
0.00896342
0.00895511
0.00893955
0.008911
0.00885999
0.00877168
0.00862426
0.00838808
0.00802676
0.00750153
0.00677973
0.00584716
0.0047218
0.00346472
0.00218158
0.00100881
0.000134922
0.00898512
0.00898424
0.00898352
0.00898285
0.00898217
0.00898145
0.00898067
0.00897985
0.00897902
0.0089782
0.00897741
0.00897665
0.00897596
0.00897532
0.00897473
0.0089742
0.00897371
0.00897325
0.00897277
0.0089722
0.0089714
0.00897009
0.00896775
0.00896335
0.00895503
0.00893946
0.00891089
0.00885984
0.00877146
0.00862395
0.00838766
0.00802621
0.00750083
0.00677891
0.00584627
0.00472092
0.00346395
0.002181
0.0010085
0.000134942
0.0089852
0.00898421
0.00898339
0.00898264
0.0089819
0.00898112
0.00898031
0.00897949
0.00897867
0.00897786
0.00897709
0.00897637
0.00897571
0.00897509
0.00897454
0.00897403
0.00897356
0.00897312
0.00897265
0.00897209
0.0089713
0.00897001
0.00896766
0.00896327
0.00895494
0.00893935
0.00891076
0.00885966
0.00877123
0.00862363
0.00838722
0.00802563
0.00750011
0.00677807
0.00584534
0.00472001
0.00346315
0.00218042
0.00100819
0.000134959
0.00898496
0.00898392
0.00898305
0.00898226
0.00898149
0.0089807
0.0089799
0.00897909
0.00897829
0.00897751
0.00897678
0.00897609
0.00897545
0.00897487
0.00897434
0.00897385
0.00897341
0.00897298
0.00897252
0.00897198
0.0089712
0.00896991
0.00896757
0.00896317
0.00895484
0.00893924
0.00891061
0.00885948
0.00877098
0.00862329
0.00838676
0.00802503
0.00749937
0.00677719
0.00584439
0.00471907
0.00346233
0.00217982
0.00100787
0.000134975
0.00898459
0.00898351
0.00898261
0.00898181
0.00898103
0.00898025
0.00897947
0.00897868
0.00897791
0.00897716
0.00897646
0.0089758
0.00897519
0.00897464
0.00897413
0.00897367
0.00897324
0.00897283
0.00897239
0.00897186
0.00897109
0.0089698
0.00896747
0.00896307
0.00895473
0.00893911
0.00891046
0.00885928
0.00877072
0.00862293
0.00838629
0.00802442
0.0074986
0.00677629
0.00584342
0.00471811
0.0034615
0.00217921
0.00100755
0.00013499
0.00898417
0.00898306
0.00898215
0.00898134
0.00898057
0.0089798
0.00897903
0.00897827
0.00897753
0.00897681
0.00897614
0.00897551
0.00897493
0.0089744
0.00897392
0.00897348
0.00897307
0.00897267
0.00897224
0.00897172
0.00897096
0.00896968
0.00896735
0.00896295
0.00895461
0.00893898
0.0089103
0.00885908
0.00877045
0.00862257
0.0083858
0.00802379
0.00749782
0.00677538
0.00584243
0.00471714
0.00346065
0.00217859
0.00100723
0.000135002
0.00898373
0.0089826
0.00898168
0.00898087
0.00898011
0.00897936
0.00897861
0.00897788
0.00897716
0.00897647
0.00897583
0.00897522
0.00897467
0.00897417
0.0089737
0.00897328
0.00897289
0.0089725
0.00897209
0.00897158
0.00897083
0.00896956
0.00896723
0.00896283
0.00895448
0.00893883
0.00891013
0.00885887
0.00877017
0.0086222
0.00838531
0.00802314
0.00749702
0.00677444
0.00584142
0.00471614
0.00345979
0.00217796
0.00100691
0.000135013
0.0089833
0.00898215
0.00898122
0.00898041
0.00897966
0.00897892
0.0089782
0.00897749
0.00897679
0.00897613
0.00897551
0.00897494
0.00897441
0.00897392
0.00897348
0.00897308
0.0089727
0.00897233
0.00897193
0.00897142
0.00897068
0.00896941
0.00896709
0.00896269
0.00895433
0.00893868
0.00890995
0.00885864
0.00876988
0.00862182
0.0083848
0.00802249
0.00749621
0.0067735
0.0058404
0.00471514
0.00345891
0.00217733
0.00100659
0.000135022
0.00898289
0.00898172
0.00898078
0.00897997
0.00897922
0.0089785
0.00897779
0.0089771
0.00897643
0.0089758
0.0089752
0.00897465
0.00897414
0.00897367
0.00897325
0.00897286
0.0089725
0.00897214
0.00897175
0.00897126
0.00897052
0.00896926
0.00896694
0.00896254
0.00895418
0.00893851
0.00890976
0.00885841
0.00876958
0.00862143
0.00838429
0.00802183
0.0074954
0.00677255
0.00583937
0.00471413
0.00345804
0.00217669
0.00100626
0.00013503
0.00898249
0.00898131
0.00898036
0.00897955
0.0089788
0.00897809
0.0089774
0.00897673
0.00897608
0.00897546
0.00897489
0.00897435
0.00897386
0.00897342
0.00897301
0.00897264
0.00897229
0.00897194
0.00897156
0.00897108
0.00897035
0.0089691
0.00896678
0.00896238
0.00895402
0.00893833
0.00890956
0.00885817
0.00876928
0.00862103
0.00838377
0.00802117
0.00749458
0.00677159
0.00583833
0.00471311
0.00345716
0.00217606
0.00100594
0.000135035
0.00898211
0.00898091
0.00897995
0.00897914
0.0089784
0.0089777
0.00897702
0.00897636
0.00897573
0.00897513
0.00897458
0.00897406
0.00897359
0.00897316
0.00897277
0.00897241
0.00897208
0.00897174
0.00897137
0.0089709
0.00897018
0.00896893
0.00896662
0.00896222
0.00895385
0.00893815
0.00890935
0.00885793
0.00876897
0.00862063
0.00838326
0.0080205
0.00749375
0.00677063
0.00583729
0.00471209
0.00345627
0.00217542
0.00100562
0.000135039
0.00898177
0.00898055
0.00897958
0.00897877
0.00897803
0.00897733
0.00897666
0.00897602
0.0089754
0.00897483
0.00897429
0.00897379
0.00897334
0.00897292
0.00897255
0.0089722
0.00897188
0.00897156
0.0089712
0.00897073
0.00897002
0.00896878
0.00896646
0.00896206
0.00895369
0.00893798
0.00890916
0.00885769
0.00876867
0.00862024
0.00838274
0.00801983
0.00749291
0.00676965
0.00583623
0.00471105
0.00345538
0.00217479
0.0010053
0.000135041
)
;

boundaryField
{
    leftWall
    {
        type            nutkWallFunction;
        Cmu             0.09;
        kappa           0.41;
        E               9.8;
        value           nonuniform 0();
    }
    rightWall
    {
        type            nutkWallFunction;
        Cmu             0.09;
        kappa           0.41;
        E               9.8;
        value           nonuniform List<scalar> 
43
(
7.23041e-06
9.34964e-06
1.03187e-05
1.09044e-05
1.12591e-05
1.14709e-05
1.15964e-05
1.16708e-05
1.17151e-05
1.17419e-05
1.17588e-05
1.177e-05
1.1778e-05
1.17841e-05
1.17893e-05
1.17939e-05
1.17983e-05
1.18025e-05
1.18067e-05
1.18107e-05
1.18147e-05
1.18186e-05
1.18224e-05
1.18261e-05
1.18297e-05
1.18332e-05
1.18366e-05
1.18398e-05
1.18429e-05
1.18459e-05
1.18487e-05
1.18513e-05
1.18537e-05
1.1856e-05
1.18581e-05
1.186e-05
1.18617e-05
1.18633e-05
1.18646e-05
1.18657e-05
1.18666e-05
1.18673e-05
1.18678e-05
)
;
    }
    lowerWall
    {
        type            nutkWallFunction;
        Cmu             0.09;
        kappa           0.41;
        E               9.8;
        value           nonuniform List<scalar> 
66
(
2.53006e-06
1.28628e-06
1.28628e-06
8.31546e-06
9.65996e-06
1.05245e-05
1.11297e-05
1.15937e-05
1.2012e-05
1.24895e-05
1.31707e-05
1.44147e-05
9.18006e-06
7.18733e-06
6.16146e-06
6.43493e-06
1.25236e-06
9.30887e-06
1.03154e-05
1.08693e-05
1.12017e-05
1.14206e-05
1.16239e-05
1.20037e-05
1.29934e-05
1.50861e-05
1.25236e-06
2.6018e-06
3.42305e-06
3.83818e-06
4.02944e-06
4.10563e-06
4.12604e-06
4.12153e-06
4.10725e-06
4.09015e-06
4.07364e-06
4.06495e-06
4.05692e-06
4.04876e-06
4.04055e-06
4.03235e-06
4.02415e-06
4.01594e-06
4.0077e-06
3.99942e-06
3.99112e-06
3.98281e-06
3.97452e-06
3.96628e-06
3.95809e-06
3.94996e-06
3.94185e-06
3.9337e-06
3.92537e-06
3.91658e-06
3.90678e-06
3.89484e-06
3.8784e-06
3.85242e-06
3.80611e-06
3.71654e-06
3.53548e-06
3.16545e-06
2.45472e-06
2.05865e-06
)
;
    }
    atmosphere
    {
        type            calculated;
        value           nonuniform 0();
    }
    defaultFaces
    {
        type            empty;
    }
    procBoundary1to0
    {
        type            processor;
        value           nonuniform List<scalar> 
44
(
8.16965e-05
0.000438766
0.000818815
0.00116818
0.00147186
0.00172726
0.00194153
0.00212906
0.00231105
0.00252164
0.00283476
0.00328575
0.00387681
0.00456815
0.00529972
0.00601337
0.00666542
0.00722985
0.00769637
0.00806649
0.00822305
0.00822305
0.0084742
0.0086529
0.00877611
0.00885854
0.0089121
0.0089459
0.00896663
0.00897895
0.00898603
0.00898993
0.00899196
0.00899294
0.00899335
0.00899347
0.00899346
0.00899341
0.00899335
0.00899332
0.00899331
0.00899332
0.00899335
0.00899341
)
;
    }
    procBoundary1to3
    {
        type            processor;
        value           nonuniform List<scalar> 
45
(
0.00899116
0.00898891
0.00898679
0.0089848
0.00898304
0.00898152
0.00898027
0.00897929
0.00897846
0.00897773
0.00897704
0.00897638
0.00897575
0.00897515
0.00897458
0.00897406
0.00897358
0.00897314
0.00897274
0.00897238
0.00897205
0.00897174
0.00897143
0.00897108
0.00897062
0.00896991
0.00896868
0.00896637
0.00896197
0.00895359
0.00893786
0.00890901
0.00885748
0.00876839
0.00861985
0.00838221
0.00801914
0.00749205
0.00676865
0.00583515
0.00471
0.00345448
0.00217414
0.00100499
0.000135041
)
;
    }
}


// ************************************************************************* //
