/*--------------------------------*- C++ -*----------------------------------*\
| =========                 |                                                 |
| \\      /  F ield         | OpenFOAM: The Open Source CFD Toolbox           |
|  \\    /   O peration     | Version:  5.0                                   |
|   \\  /    A nd           | Web:      www.OpenFOAM.org                      |
|    \\/     M anipulation  |                                                 |
\*---------------------------------------------------------------------------*/
FoamFile
{
    version     2.0;
    format      ascii;
    class       volScalarField;
    location    "0.05";
    object      p_rgh;
}
// * * * * * * * * * * * * * * * * * * * * * * * * * * * * * * * * * * * * * //

dimensions      [1 -1 -2 0 0 0 0];

internalField   nonuniform List<scalar> 
1915
(
2.05777
2.05721
2.05725
2.05665
2.05183
2.05192
2.0407
2.042
2.02376
2.02611
2.00062
2.00334
1.97066
1.97242
1.93309
1.93093
1.88686
1.87294
1.82855
1.78794
1.11181
1.11161
1.10948
1.10502
1.0983
1.08967
1.07954
1.06834
1.05641
1.04404
1.03143
1.01876
1.00613
0.993655
0.981395
0.969406
0.957733
0.946413
0.93548
0.924967
0.9149
0.905305
0.8962
0.8876
0.879511
0.871938
0.864879
0.858332
0.852297
0.846773
0.841767
0.837289
0.833359
0.829999
0.827238
0.825102
0.823601
0.822713
0.822353
0.822375
1.11174
1.1114
1.10905
1.10443
1.09772
1.08918
1.07919
1.06812
1.0563
1.04401
1.03146
1.01884
1.00625
0.993805
0.981568
0.969596
0.957933
0.946619
0.935689
0.925175
0.915106
0.905509
0.896403
0.887802
0.879714
0.872141
0.865083
0.858538
0.852504
0.846981
0.841977
0.837501
0.833572
0.830213
0.82745
0.825304
0.823774
0.822833
0.82242
0.822408
1.11242
1.11215
1.10958
1.10464
1.09774
1.08914
1.07916
1.06812
1.05635
1.04409
1.03157
1.01896
1.00639
0.993953
0.981723
0.969754
0.958093
0.946778
0.935843
0.925322
0.915247
0.905642
0.89653
0.887924
0.879833
0.872259
0.8652
0.858655
0.852619
0.847095
0.842088
0.837607
0.83367
0.830298
0.827514
0.825331
0.823745
0.822732
0.822278
0.822265
1.11407
1.11415
1.11159
1.10631
1.09898
1.09006
1.07984
1.06863
1.05672
1.04437
1.03177
1.01909
1.00647
0.993987
0.981727
0.969739
0.958062
0.946734
0.935787
0.925253
0.915164
0.905545
0.89642
0.887803
0.879702
0.872121
0.865057
0.858506
0.852464
0.846932
0.841913
0.837415
0.833456
0.830054
0.827229
0.824994
0.823348
0.822294
0.821858
0.821889
1.11678
1.11745
1.11507
1.10944
1.10154
1.09202
1.08129
1.06968
1.05744
1.04483
1.03202
1.01918
1.00642
0.993843
0.981514
0.969479
0.957772
0.946422
0.935457
0.924907
0.914799
0.905161
0.896016
0.88738
0.879263
0.871667
0.86459
0.858027
0.851972
0.846424
0.841385
0.836861
0.832869
0.829426
0.826555
0.824271
0.822588
0.821536
0.821154
0.821235
1.12064
1.12222
1.12007
1.11401
1.10534
1.09498
1.08348
1.07122
1.05846
1.04543
1.03228
1.01916
1.0062
0.993469
0.981032
0.968926
0.957174
0.945797
0.934813
0.924244
0.914116
0.904455
0.895285
0.886624
0.878482
0.870864
0.863766
0.857184
0.85111
0.84554
0.840474
0.83592
0.831891
0.828409
0.825499
0.823185
0.821495
0.820476
0.820155
0.820274
1.12595
1.12873
1.12679
1.12007
1.11035
1.09885
1.08631
1.07317
1.05969
1.04608
1.03247
1.01899
1.00575
0.992813
0.980234
0.968036
0.956231
0.944823
0.933818
0.923231
0.913082
0.903396
0.894197
0.885505
0.877334
0.869687
0.862563
0.855955
0.849856
0.84426
0.839167
0.834582
0.830522
0.827009
0.824076
0.821755
0.820086
0.819116
0.818851
0.818996
1.13135
1.13725
1.13556
1.1277
1.11651
1.10352
1.08964
1.07539
1.06102
1.04669
1.03251
1.01859
1.00501
0.991827
0.979081
0.966778
0.954912
0.943471
0.932447
0.921844
0.911675
0.901963
0.892733
0.884008
0.875802
0.868122
0.860967
0.85433
0.848204
0.842581
0.837461
0.832851
0.828768
0.82524
0.822303
0.819998
0.818369
0.817457
0.817239
0.817399
1.13099
1.14948
1.14785
1.13721
1.12377
1.10884
1.09331
1.07773
1.06231
1.04714
1.03231
1.01789
1.00393
0.990473
0.977542
0.965125
0.953196
0.941723
0.930683
0.920066
0.90988
0.900144
0.890884
0.882125
0.873883
0.866168
0.85898
0.852313
0.846158
0.840511
0.835369
0.830742
0.826648
0.823119
0.820197
0.817927
0.816352
0.815501
0.815323
0.815492
1.13432
1.17239
1.16669
1.14932
1.13206
1.11455
1.09707
1.07998
1.06339
1.04732
1.03178
1.01682
1.00246
0.98872
0.975598
0.963065
0.951074
0.939572
0.928519
0.917894
0.907695
0.89794
0.888654
0.879862
0.871586
0.863837
0.856615
0.849918
0.843738
0.83807
0.832913
0.828277
0.824185
0.82067
0.817779
0.815559
0.814047
0.813256
0.813112
0.813286
1.75028
1.63522
1.69406
1.61767
1.66029
1.60166
1.6284
1.57119
1.59786
1.54418
1.56905
1.52018
1.54075
1.49614
1.51217
1.47112
1.48338
1.44505
1.45457
1.41835
1.39135
1.36362
1.33537
1.30681
1.27792
1.24869
1.21912
1.18919
1.15891
1.12825
1.09719
1.06572
1.03389
1.00172
0.969288
0.936646
0.903848
0.870942
0.837973
0.804976
0.771983
0.739051
0.706285
1.35853
1.3565
1.35707
1.3118
1.47271
1.41074
1.37244
1.32731
1.49979
1.42684
1.38008
1.33655
1.49288
1.43063
1.3841
1.34101
1.4817
1.42795
1.38259
1.3402
1.46754
1.41934
1.37578
1.33479
1.4499
1.40599
1.36474
1.32555
1.42953
1.38921
1.35038
1.31315
1.40713
1.36991
1.33344
1.29819
1.38311
1.34866
1.31448
1.2812
1.35815
1.3259
1.29393
1.26258
1.33237
1.30218
1.27218
1.24266
1.30609
1.27771
1.24949
1.2217
1.27935
1.25262
1.22605
1.19988
1.25215
1.22698
1.20197
1.17733
1.22452
1.20085
1.17732
1.15413
1.19647
1.17425
1.15214
1.13034
1.168
1.14718
1.12644
1.10598
1.13911
1.11965
1.10024
1.08107
1.1098
1.09164
1.07353
1.05563
1.08006
1.06318
1.04633
1.02967
1.04988
1.03427
1.01867
1.00323
1.01931
1.00494
0.990577
0.976353
0.988388
0.97525
0.962112
0.94909
0.957178
0.945256
0.933329
0.921496
0.925745
0.91502
0.904287
0.893627
0.894142
0.884599
0.875041
0.865537
0.862418
0.854042
0.845643
0.837276
0.830619
0.823395
0.816139
0.80889
0.798784
0.792701
0.786571
0.780422
0.766952
0.762001
0.756981
0.751912
0.735172
0.73134
0.727414
0.723403
0.703556
0.70081
0.697942
0.694953
1.21818
1.21029
1.18918
1.16305
1.1408
1.12021
1.10057
1.08188
1.06408
1.04708
1.03083
1.01533
1.00056
0.986537
0.973227
0.960582
0.948532
0.937006
0.925946
0.915318
0.905114
0.895345
0.886038
0.87722
0.868913
0.861132
0.85388
0.847157
0.840955
0.835271
0.830106
0.825471
0.821391
0.817903
0.815054
0.812891
0.811445
0.810711
0.810596
0.810773
1.26469
1.23216
1.20387
1.1743
1.14839
1.12501
1.10336
1.08315
1.06418
1.04629
1.02935
1.01333
0.99818
0.983886
0.970401
0.957652
0.945552
0.93401
0.922951
0.912329
0.902127
0.892354
0.883033
0.874195
0.865864
0.858056
0.85078
0.844035
0.837818
0.832126
0.826961
0.822335
0.818277
0.814824
0.812025
0.809923
0.80854
0.807857
0.807765
0.807944
1.28554
1.24634
1.21353
1.18204
1.15379
1.12831
1.105
1.0835
1.06351
1.04481
1.02726
1.01077
0.995276
0.980744
0.967105
0.954271
0.942133
0.930585
0.919537
0.90893
0.898741
0.888973
0.87965
0.870801
0.862453
0.854628
0.847334
0.840576
0.834351
0.828657
0.8235
0.818893
0.814865
0.811455
0.80871
0.806669
0.805345
0.804707
0.804636
0.804816
1.29445
1.2543
1.21915
1.18637
1.15667
1.12977
1.10524
1.08272
1.0619
1.04254
1.02448
1.00759
0.991814
0.977085
0.963324
0.950425
0.938266
0.926725
0.9157
0.90512
0.894955
0.885204
0.87589
0.867041
0.858688
0.850855
0.843554
0.83679
0.830565
0.824879
0.819737
0.815156
0.811165
0.807803
0.805114
0.803134
0.801866
0.801269
0.801215
0.801395
1.29665
1.25681
1.22081
1.18744
1.15698
1.12925
1.10392
1.08068
1.05926
1.03941
1.02095
1.00376
0.987765
0.972889
0.959042
0.946106
0.933946
0.922428
0.911438
0.900899
0.890772
0.881052
0.871759
0.862924
0.854578
0.846748
0.839449
0.83269
0.826474
0.820804
0.815686
0.811138
0.807188
0.803877
0.801245
0.799323
0.798107
0.797545
0.797506
0.797686
1.29361
1.25467
1.21882
1.18548
1.15483
1.12674
1.101
1.07735
1.05554
1.03536
1.01663
0.999244
0.983106
0.96814
0.954248
0.941305
0.929167
0.91769
0.906752
0.896267
0.886192
0.876517
0.867261
0.858454
0.850129
0.842314
0.83503
0.828286
0.822088
0.816442
0.811355
0.806845
0.802942
0.799683
0.797108
0.79524
0.794071
0.79354
0.793513
0.793694
1.28644
1.24879
1.21367
1.18082
1.15039
1.12234
1.0965
1.0727
1.05072
1.03038
1.01151
0.994021
0.977817
0.962821
0.94893
0.936013
0.923922
0.912506
0.901637
0.891223
0.881215
0.871601
0.862397
0.853633
0.845343
0.837558
0.8303
0.823583
0.817414
0.811799
0.80675
0.802283
0.798429
0.795224
0.792703
0.790887
0.789759
0.789256
0.789239
0.78942
1.27601
1.23987
1.20582
1.17378
1.14389
1.11616
1.0905
1.06676
1.0448
1.02444
1.00557
0.988076
0.971887
0.956922
0.943078
0.930223
0.918205
0.90687
0.896088
0.885762
0.875838
0.866302
0.857167
0.848462
0.840223
0.832482
0.825263
0.818583
0.812452
0.806879
0.801873
0.797455
0.793652
0.7905
0.788033
0.786264
0.785175
0.784695
0.784687
0.784867
1.26298
1.22846
1.19569
1.16467
1.13555
1.10836
1.08308
1.0596
1.0378
1.01758
0.998805
0.981405
0.965306
0.950433
0.936682
0.923925
0.912007
0.900777
0.890101
0.87988
0.870058
0.860617
0.851567
0.842938
0.834766
0.827083
0.819918
0.813288
0.807205
0.80168
0.796725
0.792359
0.78861
0.785512
0.783096
0.781372
0.780317
0.779859
0.779857
0.780037
1.24787
1.21501
1.18364
1.15377
1.12557
1.0991
1.07434
1.05126
1.02978
1.0098
0.991228
0.974007
0.958071
0.943347
0.929736
0.917111
0.905323
0.89422
0.883669
0.873572
0.86387
0.854541
0.845595
0.837059
0.82897
0.821362
0.814263
0.807695
0.801671
0.796203
0.791305
0.786995
0.783302
0.780258
0.777891
0.77621
0.775187
0.774747
0.774752
0.77493
1.23108
1.1999
1.16997
1.14133
1.11415
1.08849
1.06439
1.04183
1.02076
1.00112
0.982851
0.965889
0.950181
0.935661
0.922234
0.909777
0.898146
0.887193
0.876789
0.866835
0.85727
0.848071
0.839246
0.830821
0.822832
0.815313
0.808296
0.801802
0.795847
0.790445
0.785609
0.78136
0.777726
0.774736
0.772418
0.770777
0.769783
0.769361
0.76937
0.769547
1.21293
1.18339
1.15492
1.12755
1.10145
1.07669
1.05332
1.03136
1.0108
0.991595
0.973695
0.95706
0.94164
0.927374
0.914172
0.901917
0.890471
0.879693
0.869456
0.859663
0.850254
0.841203
0.832517
0.82422
0.816348
0.808935
0.802013
0.795605
0.78973
0.784402
0.779635
0.775452
0.771878
0.768944
0.766674
0.765072
0.764106
0.763699
0.763713
0.763887
1.19366
1.16571
1.13868
1.1126
1.0876
1.06378
1.04121
1.01993
0.99995
0.981243
0.963782
0.947534
0.932455
0.918489
0.905551
0.89353
0.882297
0.871717
0.861668
0.852055
0.842819
0.833935
0.825405
0.817253
0.809514
0.802222
0.795409
0.789101
0.783317
0.778071
0.77338
0.769267
0.765757
0.762879
0.760657
0.759093
0.758154
0.757762
0.757779
0.757951
1.17344
1.14703
1.12141
1.0966
1.07272
1.04988
1.02815
1.0076
0.988253
0.970104
0.953138
0.937328
0.922637
0.909011
0.896372
0.884617
0.873623
0.863264
0.853423
0.84401
0.834966
0.826265
0.817908
0.809918
0.802327
0.795171
0.788482
0.782286
0.776603
0.771448
0.766841
0.762802
0.759359
0.756539
0.754366
0.75284
0.751927
0.751549
0.751568
0.751738
1.15241
1.12748
1.10323
1.07966
1.0569
1.03506
1.01421
0.994425
0.975757
0.958215
0.94179
0.926463
0.912199
0.89895
0.886643
0.875182
0.864452
0.854336
0.844724
0.835529
0.826694
0.818192
0.810024
0.802212
0.794785
0.787781
0.781229
0.775157
0.769585
0.764531
0.760014
0.756055
0.752682
0.749923
0.7478
0.746312
0.745424
0.745059
0.745081
0.745248
1.13066
1.10714
1.08421
1.06187
1.04023
1.01938
0.999432
0.980457
0.962509
0.945613
0.929767
0.914958
0.901156
0.888316
0.87637
0.86523
0.854789
0.844938
0.835574
0.826614
0.818004
0.809717
0.801754
0.794134
0.786887
0.780048
0.773647
0.767711
0.762262
0.757317
0.752896
0.749023
0.745725
0.743029
0.740957
0.739508
0.738646
0.738294
0.738317
0.738481
1.10826
1.08609
1.06444
1.04329
1.02275
1.00292
0.983892
0.965748
0.948551
0.932332
0.917098
0.902838
0.889527
0.877123
0.865565
0.85477
0.844641
0.835076
0.825978
0.81727
0.808901
0.800844
0.7931
0.785687
0.778633
0.771972
0.765734
0.759946
0.754629
0.749802
0.745487
0.741705
0.738486
0.735856
0.733837
0.732427
0.731591
0.731252
0.731277
0.731438
1.08523
1.06437
1.04396
1.02399
1.00455
0.985734
0.967637
0.950346
0.933925
0.918409
0.903812
0.890127
0.877332
0.865389
0.854242
0.843815
0.834018
0.824756
0.815942
0.807502
0.799388
0.791575
0.784064
0.776871
0.770023
0.763553
0.757491
0.751861
0.746686
0.741986
0.737782
0.734099
0.730963
0.728403
0.72644
0.725071
0.724261
0.723934
0.723961
0.724118
1.06161
1.04203
1.02283
1.00402
0.985666
0.967871
0.950719
0.934296
0.91867
0.903879
0.889939
0.87685
0.864592
0.853131
0.842416
0.832376
0.82293
0.81399
0.805475
0.797318
0.789472
0.781917
0.77465
0.767689
0.76106
0.754793
0.748916
0.743455
0.738432
0.733867
0.729783
0.726203
0.723156
0.72067
0.718764
0.717438
0.716655
0.716341
0.716369
0.716522
1.03743
1.01909
1.0011
0.983422
0.966158
0.949383
0.933184
0.917643
0.902825
0.888775
0.87551
0.863034
0.851331
0.84037
0.830104
0.820469
0.811391
0.802788
0.794587
0.786725
0.779161
0.771874
0.764864
0.758147
0.751746
0.745692
0.740011
0.734728
0.729866
0.725445
0.721488
0.718018
0.715065
0.712657
0.710812
0.70953
0.708775
0.708474
0.708502
0.708652
1.01272
0.99561
0.978797
0.962258
0.946074
0.930321
0.915079
0.900427
0.88643
0.873131
0.860555
0.848706
0.837571
0.827126
0.817325
0.808111
0.799415
0.791163
0.783289
0.775734
0.768462
0.761455
0.754712
0.748248
0.742086
0.736254
0.730778
0.725683
0.720991
0.716721
0.712898
0.709545
0.706691
0.704364
0.702583
0.701347
0.700622
0.700334
0.700363
0.700508
0.987511
0.971622
0.955983
0.940571
0.925464
0.910732
0.896448
0.882689
0.869519
0.856982
0.845104
0.833892
0.823339
0.813421
0.804098
0.795318
0.787017
0.779129
0.771593
0.764357
0.757387
0.750668
0.744201
0.737999
0.732084
0.726483
0.721222
0.716322
0.711807
0.707697
0.704014
0.700784
0.698034
0.695793
0.69408
0.692892
0.692196
0.691922
0.691952
0.692093
0.961855
0.947177
0.932703
0.918412
0.904376
0.89066
0.877334
0.86447
0.85213
0.840359
0.829186
0.81862
0.808657
0.799277
0.790444
0.782108
0.774214
0.766701
0.759513
0.752605
0.745946
0.739524
0.73334
0.727407
0.721748
0.716385
0.711345
0.706649
0.702319
0.698374
0.694839
0.691737
0.689097
0.686946
0.685303
0.684165
0.683501
0.683241
0.683272
0.683408
0.935802
0.922324
0.909006
0.895828
0.882856
0.87015
0.857778
0.845807
0.834297
0.823295
0.81283
0.802916
0.793551
0.784717
0.776382
0.768502
0.761025
0.753895
0.747064
0.740491
0.734151
0.728032
0.722138
0.716481
0.711083
0.705966
0.701154
0.696668
0.692529
0.688757
0.685375
0.682407
0.679882
0.677825
0.676255
0.67517
0.674539
0.674294
0.674325
0.674456
0.909405
0.897116
0.884943
0.872867
0.860948
0.849245
0.837819
0.826736
0.816053
0.805819
0.796065
0.786807
0.778045
0.769764
0.761936
0.754519
0.747466
0.740728
0.734261
0.728031
0.722015
0.716205
0.710606
0.705231
0.700099
0.695232
0.690653
0.686383
0.682442
0.678849
0.675626
0.672798
0.670391
0.668433
0.666939
0.665909
0.665311
0.665081
0.665114
0.665239
0.882719
0.871604
0.860562
0.849574
0.838698
0.827986
0.817496
0.807292
0.797432
0.787963
0.778918
0.770317
0.762162
0.75444
0.747124
0.740177
0.733556
0.727217
0.721121
0.715239
0.709552
0.704056
0.698755
0.693665
0.688803
0.684192
0.679851
0.675802
0.672063
0.668654
0.665595
0.662912
0.660629
0.658772
0.657358
0.656385
0.655822
0.655608
0.655641
0.655761
0.855793
0.845835
0.835908
0.825995
0.816146
0.806411
0.796846
0.787511
0.778464
0.769754
0.761416
0.753472
0.745926
0.738767
0.731969
0.725498
0.719315
0.713381
0.707661
0.70213
0.696776
0.691596
0.686597
0.681794
0.677206
0.672853
0.668754
0.66493
0.661399
0.658178
0.655289
0.652755
0.6506
0.648848
0.647516
0.646602
0.646075
0.645877
0.645911
0.646026
0.828677
0.819857
0.811027
0.802171
0.793333
0.78456
0.775904
0.767424
0.759179
0.75122
0.743585
0.736297
0.729361
0.722768
0.716492
0.710503
0.704763
0.699237
0.693896
0.688721
0.683702
0.67884
0.674144
0.66963
0.665317
0.661224
0.657371
0.653776
0.650456
0.647428
0.644713
0.642331
0.640308
0.638665
0.637417
0.636563
0.636074
0.635892
0.635927
0.636036
0.801416
0.793713
0.785962
0.778144
0.770299
0.762469
0.754704
0.747063
0.739607
0.732389
0.725451
0.718816
0.712491
0.706466
0.700717
0.695212
0.689919
0.684805
0.679846
0.675027
0.670344
0.665801
0.661409
0.657185
0.653148
0.649317
0.645712
0.642348
0.639242
0.636411
0.633873
0.631648
0.629759
0.628228
0.627067
0.626275
0.625824
0.625659
0.625694
0.625797
0.774052
0.767447
0.760754
0.753955
0.747082
0.740174
0.733278
0.726457
0.719774
0.713287
0.707038
0.701053
0.695339
0.689884
0.684664
0.679648
0.674803
0.670103
0.665527
0.661066
0.656718
0.652493
0.648404
0.64447
0.640709
0.637142
0.633785
0.630655
0.627766
0.625134
0.622776
0.620711
0.61896
0.617542
0.61647
0.615741
0.615329
0.615181
0.615217
0.615314
0.746626
0.741098
0.735444
0.729643
0.72372
0.717708
0.711659
0.705636
0.699708
0.693938
0.688371
0.683034
0.67793
0.673047
0.668358
0.663831
0.659437
0.655151
0.650957
0.646852
0.642839
0.63893
0.635143
0.631497
0.628013
0.624709
0.621601
0.618706
0.616036
0.613606
0.611431
0.609529
0.607917
0.606615
0.605634
0.604969
0.604596
0.604465
0.604501
0.604593
0.719177
0.714702
0.710064
0.705238
0.70024
0.695101
0.689874
0.684629
0.679439
0.674374
0.669481
0.664785
0.66029
0.655976
0.651817
0.647779
0.643833
0.63996
0.636147
0.632396
0.628717
0.625124
0.621638
0.61828
0.615071
0.61203
0.609173
0.606513
0.604064
0.601837
0.599847
0.598108
0.596638
0.595453
0.594563
0.593963
0.59363
0.593516
0.593553
0.593638
0.691749
0.688289
0.684631
0.680748
0.676649
0.672364
0.667947
0.663471
0.659014
0.654645
0.650416
0.646352
0.642451
0.638695
0.635052
0.631493
0.627989
0.624524
0.621091
0.617695
0.614351
0.611078
0.607898
0.604832
0.601901
0.599124
0.596516
0.594092
0.591863
0.589839
0.588034
0.58646
0.585132
0.584064
0.583265
0.582729
0.582436
0.58234
0.582378
0.582456
)
;

boundaryField
{
    leftWall
    {
        type            fixedFluxPressure;
        gradient        nonuniform 0();
        value           nonuniform 0();
    }
    rightWall
    {
        type            fixedFluxPressure;
        gradient        uniform 0;
        value           nonuniform List<scalar> 
43
(
0.822375
0.822408
0.822265
0.821889
0.821235
0.820274
0.818996
0.817399
0.815492
0.813286
0.810773
0.807944
0.804816
0.801395
0.797686
0.793694
0.78942
0.784867
0.780037
0.77493
0.769547
0.763887
0.757951
0.751738
0.745248
0.738481
0.731438
0.724118
0.716522
0.708652
0.700508
0.692093
0.683408
0.674456
0.665239
0.655761
0.646026
0.636036
0.625797
0.615314
0.604593
0.593638
0.582456
)
;
    }
    lowerWall
    {
        type            fixedFluxPressure;
        gradient        uniform 0;
        value           nonuniform List<scalar> 
66
(
2.05777
2.05721
2.05721
2.05665
2.05192
2.042
2.02611
2.00334
1.97242
1.93093
1.87294
1.78794
1.35853
1.3565
1.35707
1.3118
1.11181
1.11174
1.11242
1.11407
1.11678
1.12064
1.12595
1.13135
1.13099
1.13432
1.11181
1.11161
1.10948
1.10502
1.0983
1.08967
1.07954
1.06834
1.05641
1.04404
1.03143
1.01876
1.00613
0.993655
0.981395
0.969406
0.957733
0.946413
0.93548
0.924967
0.9149
0.905305
0.8962
0.8876
0.879511
0.871938
0.864879
0.858332
0.852297
0.846773
0.841767
0.837289
0.833359
0.829999
0.827238
0.825102
0.823601
0.822713
0.822353
0.822375
)
;
    }
    atmosphere
    {
        type            totalPressure;
        rho             rho;
        psi             none;
        gamma           1;
        p0              nonuniform 0();
        value           nonuniform 0();
    }
    defaultFaces
    {
        type            empty;
    }
    procBoundary1to0
    {
        type            processor;
        value           nonuniform List<scalar> 
44
(
2.06304
2.06279
2.05727
2.04559
2.02807
2.00482
1.9757
1.94042
1.89874
1.85103
1.7983
1.75092
1.71294
1.67856
1.64579
1.61421
1.58321
1.55231
1.52125
1.49006
1.42515
1.42515
1.39565
1.36545
1.33484
1.30415
1.27326
1.24211
1.21068
1.17896
1.14692
1.11452
1.08176
1.04866
1.01525
0.98159
0.947744
0.91376
0.879677
0.845524
0.811335
0.777152
0.743023
0.709039
)
;
    }
    procBoundary1to3
    {
        type            processor;
        value           nonuniform List<scalar> 
45
(
0.673794
0.672205
0.670512
0.668645
0.666628
0.664394
0.661893
0.659161
0.656176
0.652947
0.649501
0.645891
0.64219
0.638473
0.634806
0.631236
0.627788
0.624459
0.621234
0.618084
0.614981
0.611904
0.608838
0.605782
0.602744
0.599739
0.596789
0.593918
0.591149
0.588504
0.585999
0.583649
0.581466
0.579458
0.577637
0.576012
0.574598
0.573409
0.572455
0.571746
0.571275
0.57102
0.570942
0.570981
0.571055
)
;
    }
}


// ************************************************************************* //
