/*--------------------------------*- C++ -*----------------------------------*\
| =========                 |                                                 |
| \\      /  F ield         | OpenFOAM: The Open Source CFD Toolbox           |
|  \\    /   O peration     | Version:  5.0                                   |
|   \\  /    A nd           | Web:      www.OpenFOAM.org                      |
|    \\/     M anipulation  |                                                 |
\*---------------------------------------------------------------------------*/
FoamFile
{
    version     2.0;
    format      ascii;
    class       surfaceScalarField;
    location    "1";
    object      alphaPhi10;
}
// * * * * * * * * * * * * * * * * * * * * * * * * * * * * * * * * * * * * * //

dimensions      [0 3 -1 0 0 0 0];

internalField   nonuniform List<scalar> 
3731
(
1.21477e-06
-4.06674e-07
1.21477e-06
-2.00708e-07
-8.45548e-07
1.01406e-06
-8.98752e-07
-1.26152e-06
1.15312e-07
-1.04511e-06
-1.64625e-06
-9.29801e-07
-8.72658e-07
-1.89159e-06
-1.80246e-06
-4.4511e-07
-1.91255e-06
-2.24757e-06
2.198e-07
-1.67495e-06
-2.02777e-06
1.06541e-06
-1.14937e-06
-9.62357e-07
2.08926e-06
-3.47936e-07
1.12691e-06
3.66681e-06
2.5763e-07
4.79372e-06
1.00711e-05
-1.00695e-05
8.54714e-06
1.0972e-06
8.20701e-07
7.79579e-06
-9.39712e-06
1.02578e-05
-1.98253e-05
1.04282e-05
-2.92701e-05
9.44482e-06
-3.69104e-05
7.64026e-06
-4.25421e-05
5.63168e-06
-4.64011e-05
3.85905e-06
-4.88992e-05
2.49809e-06
-5.04084e-05
1.5092e-06
-5.11674e-05
7.58986e-07
-5.12532e-05
8.57834e-08
-5.07762e-05
-4.7697e-07
-4.97669e-05
-1.00926e-06
-4.82674e-05
-1.49954e-06
-4.63239e-05
-1.94352e-06
-4.39619e-05
-2.36202e-06
-4.11929e-05
-2.769e-06
-3.80242e-05
-3.16794e-06
-3.43563e-05
-3.55449e-06
-3.03066e-05
-3.89799e-06
-2.62488e-05
-3.95041e-06
-2.21933e-05
-3.9923e-06
-1.79156e-05
-4.23551e-06
-1.35067e-05
-4.40651e-06
-8.98608e-06
-4.52059e-06
-4.53032e-06
-4.45576e-06
-5.13225e-07
-4.0171e-06
2.73805e-06
-3.25132e-06
5.20543e-06
-2.46738e-06
6.93308e-06
-1.72788e-06
8.24605e-06
-1.31309e-06
9.4896e-06
-1.24345e-06
1.06403e-05
-1.15069e-06
1.12203e-05
-5.8505e-07
1.038e-05
8.3799e-07
7.70437e-06
2.67582e-06
3.54217e-06
4.1622e-06
3.54018e-06
1.55559e-06
-1.15493e-05
-4.10897e-06
6.61464e-06
-1.3436e-05
1.72151e-05
-2.36908e-05
2.05126e-05
-3.2792e-05
1.95294e-05
-3.98067e-05
1.64595e-05
-4.47435e-05
1.2577e-05
-4.80353e-05
8.92352e-06
-5.01573e-05
5.98101e-06
-5.14701e-05
3.81095e-06
-5.2178e-05
2.21702e-06
-5.23756e-05
9.56653e-07
-5.21449e-05
-1.44943e-07
-5.14529e-05
-1.16896e-06
-5.03045e-05
-2.15761e-06
-4.87339e-05
-3.07006e-06
-4.67874e-05
-3.88973e-06
-4.44961e-05
-4.65264e-06
-4.18838e-05
-5.37953e-06
-3.89785e-05
-6.06711e-06
-3.58166e-05
-6.70247e-06
-3.22199e-05
-7.26294e-06
-2.68361e-05
-7.3151e-06
-2.22563e-05
-7.11021e-06
-1.83451e-05
-7.72609e-06
-1.5059e-05
-7.72245e-06
-1.17799e-05
-7.32397e-06
-8.09595e-06
-6.90266e-06
-4.43082e-06
-7.47962e-06
-1.31356e-06
-6.23611e-06
1.08807e-06
-4.86884e-06
2.7939e-06
-3.43402e-06
4.06711e-06
-2.58641e-06
5.21078e-06
-2.38722e-06
6.25125e-06
-2.19116e-06
6.9416e-06
-1.2904e-06
6.96203e-06
7.79542e-07
6.15094e-06
3.47426e-06
4.00204e-06
6.31291e-06
7.54429e-06
-5.41134e-06
-6.05869e-06
-1.37574e-05
1.50766e-05
-2.23329e-05
2.57907e-05
-3.01759e-05
2.83556e-05
-3.66409e-05
2.59944e-05
-4.15773e-05
2.1396e-05
-4.52603e-05
1.62601e-05
-4.79564e-05
1.16196e-05
-4.98716e-05
7.89613e-06
-5.1158e-05
5.09733e-06
-5.18952e-05
2.95422e-06
-5.2112e-05
1.17363e-06
-5.18386e-05
-4.182e-07
-5.10881e-05
-1.91943e-06
-4.98936e-05
-3.35206e-06
-4.83104e-05
-4.65318e-06
-4.63929e-05
-5.80672e-06
-4.41716e-05
-6.87205e-06
-4.16718e-05
-7.87375e-06
-3.89341e-05
-8.79539e-06
-3.60023e-05
-9.61894e-06
-3.29087e-05
-1.03207e-05
-2.81648e-05
-1.09006e-05
-2.33513e-05
-1.1259e-05
-1.92663e-05
-1.12507e-05
-1.55648e-05
-1.05136e-05
-1.19306e-05
-1.06334e-05
-9.00577e-06
-1.00842e-05
-5.78486e-06
-1.00075e-05
-3.45151e-06
-7.44267e-06
-1.58393e-06
-5.81738e-06
-8.6583e-08
-4.65402e-06
9.72132e-07
-3.6453e-06
1.91883e-06
-3.334e-06
2.81891e-06
-3.09151e-06
3.49499e-06
-1.96675e-06
3.659e-06
4.879e-07
3.61573e-06
3.46225e-06
2.89899e-06
7.03467e-06
1.04433e-05
-9.89044e-06
3.83509e-06
-1.89761e-05
2.42518e-05
-2.66132e-05
3.34278e-05
-3.28528e-05
3.45952e-05
-3.78396e-05
3.09813e-05
-4.1789e-05
2.53422e-05
-4.49153e-05
1.93841e-05
-4.73327e-05
1.40369e-05
-4.91386e-05
9.70206e-06
-5.04281e-05
6.38671e-06
-5.12093e-05
3.73514e-06
-5.14301e-05
1.39459e-06
-5.11337e-05
-7.10461e-07
-5.02946e-05
-2.75778e-06
-4.90386e-05
-4.60821e-06
-4.74389e-05
-6.25082e-06
-4.55745e-05
-7.67005e-06
-4.34499e-05
-8.99379e-06
-4.10743e-05
-1.02417e-05
-3.84554e-05
-1.13992e-05
-3.56654e-05
-1.23745e-05
-3.27149e-05
-1.31879e-05
-2.96532e-05
-1.38868e-05
-2.63603e-05
-1.44796e-05
-2.26382e-05
-1.51407e-05
-1.90884e-05
-1.55736e-05
-1.51186e-05
-1.59068e-05
-1.08277e-05
-1.56128e-05
-7.55635e-06
-1.33636e-05
-4.89643e-06
-1.01768e-05
-3.07994e-06
-7.71199e-06
-2.16333e-06
-4.7937e-06
-1.74976e-06
-3.7777e-06
-1.09514e-06
-3.9888e-06
-3.36304e-07
-3.85058e-06
3.31677e-07
-2.64205e-06
8.19368e-07
-7.01667e-09
1.19787e-06
3.07489e-06
1.41625e-06
6.82945e-06
1.18595e-05
-1.20043e-05
1.58436e-05
-2.13206e-05
3.35682e-05
-2.83076e-05
4.04149e-05
-3.36432e-05
3.99308e-05
-3.78498e-05
3.5188e-05
-4.1239e-05
2.87307e-05
-4.39716e-05
2.21149e-05
-4.60687e-05
1.61373e-05
-4.7382e-05
1.10148e-05
-4.74856e-05
6.49331e-06
-4.62419e-05
3.16976e-06
-4.45302e-05
1.02043e-06
-4.32267e-05
-5.15624e-07
-4.25578e-05
-1.94945e-06
-4.20965e-05
-3.53546e-06
-4.12321e-05
-4.95354e-06
-4.04199e-05
-6.21115e-06
-3.97957e-05
-7.79506e-06
-3.88252e-05
-9.90232e-06
-3.71088e-05
-1.24716e-05
-3.46099e-05
-1.46731e-05
-3.1893e-05
-1.5829e-05
-2.91153e-05
-1.65914e-05
-2.6366e-05
-1.72048e-05
-2.35674e-05
-1.78963e-05
-2.07672e-05
-1.83339e-05
-1.79178e-05
-1.87046e-05
-1.48304e-05
-1.86393e-05
-1.14401e-05
-1.76853e-05
-7.31406e-06
-1.49788e-05
-4.97599e-06
-1.02134e-05
-3.81838e-06
-6.11468e-06
-3.92199e-06
-3.93224e-06
-4.0751e-06
-4.1013e-06
-3.43948e-06
-4.48647e-06
-2.68e-06
-3.26403e-06
-1.83713e-06
-7.15843e-07
-1.12789e-06
2.22093e-06
-2.58687e-07
5.94578e-06
1.14433e-05
-1.28706e-05
2.87143e-05
-2.21091e-05
4.28069e-05
-2.86146e-05
4.69204e-05
-3.33724e-05
4.46887e-05
-3.70323e-05
3.8848e-05
-3.987e-05
3.1568e-05
-4.18194e-05
2.40781e-05
-4.12053e-05
1.55345e-05
-3.09475e-05
7.48239e-06
-1.9431e-05
3.63415e-06
-1.56246e-05
1.70334e-06
-1.44136e-05
6.89459e-07
-1.40131e-05
-2.66579e-07
-1.44662e-05
-1.29181e-06
-1.52168e-05
-2.41462e-06
-1.53883e-05
-3.40166e-06
-1.55097e-05
-4.23063e-06
-1.60592e-05
-5.23349e-06
-1.74844e-05
-4.8919e-06
-2.00792e-05
-5.66347e-06
-2.37187e-05
-7.71154e-06
-2.73793e-05
-9.39196e-06
-2.73137e-05
-1.55457e-05
-2.53169e-05
-1.91655e-05
-2.30088e-05
-2.01496e-05
-2.07664e-05
-2.05231e-05
-1.8493e-05
-2.09176e-05
-1.61744e-05
-2.08973e-05
-1.37837e-05
-2.00154e-05
-1.08021e-05
-1.79043e-05
-7.38374e-06
-1.38964e-05
-5.84876e-06
-7.81302e-06
-5.79528e-06
-4.14065e-06
-7.01656e-06
-4.16677e-06
-6.47722e-06
-5.02484e-06
-5.44977e-06
-3.98705e-06
-4.52514e-06
-1.6858e-06
-3.51585e-06
1.07119e-06
-2.1852e-06
4.60023e-06
9.00942e-06
-1.32079e-05
4.19222e-05
-2.21671e-05
5.17661e-05
-2.8201e-05
5.29543e-05
-3.24332e-05
4.89213e-05
-3.54559e-05
4.18729e-05
-3.7193e-05
3.33628e-05
-3.41411e-05
2.14027e-05
-1.69974e-05
9.553e-06
-1.21403e-05
4.56104e-06
-1.14839e-05
2.88713e-06
-1.16322e-05
1.68087e-06
-1.18444e-05
7.20775e-07
-1.19178e-05
-3.07437e-07
-1.2035e-05
-1.31195e-06
-1.22379e-05
-2.44236e-06
-1.25909e-05
-3.66979e-06
-1.27613e-05
-4.82806e-06
-1.3319e-05
-4.61232e-06
-1.1142e-05
-5.40803e-06
-9.832e-06
-5.14022e-06
-8.04709e-06
-7.4973e-06
-8.08247e-06
-7.10111e-06
-1.28401e-05
-5.68446e-06
-2.0286e-05
-7.60342e-06
-2.11192e-05
-1.67514e-05
-1.99451e-05
-2.16013e-05
-1.83905e-05
-2.24015e-05
-1.67344e-05
-2.24931e-05
-1.49651e-05
-2.17246e-05
-1.3139e-05
-1.96708e-05
-1.09998e-05
-1.59771e-05
-8.10611e-06
-1.0382e-05
-7.66527e-06
-4.78648e-06
-1.01765e-05
-3.63046e-06
-9.76076e-06
-5.43475e-06
-8.95284e-06
-4.77251e-06
-7.37414e-06
-2.90103e-06
-5.82944e-06
-5.08702e-07
-3.80529e-06
2.20535e-06
5.32669e-06
-1.36207e-05
5.55429e-05
-2.2075e-05
6.02204e-05
-2.74924e-05
5.83701e-05
-3.10382e-05
5.24679e-05
-3.28669e-05
4.37109e-05
-2.96104e-05
3.01792e-05
-1.3474e-05
1.28029e-05
-1.04471e-05
6.46442e-06
-1.07598e-05
4.70947e-06
-1.12234e-05
3.23541e-06
-1.18283e-05
2.10742e-06
-1.2404e-05
1.08072e-06
-1.30751e-05
-8.55653e-07
-1.86603e-05
-3.77557e-06
-2.32735e-05
-6.55513e-06
-2.54372e-05
-8.04589e-06
-2.57941e-05
-9.43254e-06
-2.06236e-05
-1.06458e-05
-1.46871e-05
-1.07434e-05
-1.08925e-05
-8.1994e-06
-8.72291e-06
-7.24765e-06
-7.07278e-06
-5.94427e-06
-4.41227e-06
-5.74557e-06
-5.88153e-06
-4.48289e-06
-8.64291e-06
-4.37483e-06
-1.5936e-05
-6.40111e-06
-1.72946e-05
-1.91346e-05
-1.66677e-05
-2.30388e-05
-1.563e-05
-2.27032e-05
-1.446e-05
-2.07824e-05
-1.3321e-05
-1.70461e-05
-1.15644e-05
-1.17498e-05
-9.28725e-06
-5.17563e-06
-1.30657e-05
-2.93023e-06
-1.2835e-05
-5.66163e-06
-1.23155e-05
-5.52655e-06
-1.01348e-05
-4.34936e-06
-7.79536e-06
-3.00943e-06
-4.73753e-06
-1.35734e-06
5.89159e-07
-1.48026e-05
7.03455e-05
-2.23267e-05
6.77438e-05
-2.67862e-05
6.28301e-05
-2.89991e-05
5.46579e-05
-2.61279e-05
4.08132e-05
-1.32468e-05
1.72042e-05
-9.73974e-06
9.20922e-06
-1.04436e-05
6.90702e-06
-1.13962e-05
5.58995e-06
-1.30933e-05
4.81859e-06
-1.55414e-05
4.34663e-06
-3.19889e-05
1.68397e-06
-3.75986e-05
-1.71968e-06
-3.78045e-05
-4.87134e-06
-3.67546e-05
-7.67629e-06
-3.57944e-05
-9.57566e-06
-3.48438e-05
-1.05097e-05
-3.32984e-05
-1.22258e-05
-2.95694e-05
-1.43718e-05
-2.46963e-05
-1.29767e-05
-1.96187e-05
-1.37092e-05
-1.20388e-05
-1.42803e-05
-4.67821e-06
-1.08411e-05
-3.09934e-06
-4.91512e-06
-2.51096e-06
-4.21051e-06
-5.30153e-06
-3.24045e-06
-1.07236e-05
-4.97537e-06
-1.54846e-05
-1.47766e-05
-1.57221e-05
-2.23901e-05
-1.52629e-05
-2.11734e-05
-1.45466e-05
-1.76431e-05
-1.09423e-05
-1.0765e-05
-9.22815e-06
-4.15399e-06
-1.33387e-05
-2.8829e-06
-1.50043e-05
-6.03466e-06
-1.44118e-05
-6.28424e-06
-1.30556e-05
-5.01939e-06
-9.81481e-06
-4.5987e-06
-5.45757e-06
-5.03177e-06
-4.99765e-06
-1.72814e-05
8.76271e-05
-2.33284e-05
7.37893e-05
-2.60076e-05
6.54909e-05
-2.30073e-05
5.15886e-05
-1.3832e-05
2.31755e-05
-1.00227e-05
1.36509e-05
-1.09972e-05
1.0353e-05
-1.47401e-05
1.05608e-05
-2.57339e-05
1.36812e-05
-3.51166e-05
1.15687e-05
-3.79032e-05
7.02893e-06
-3.78991e-05
2.25496e-06
-3.7117e-05
-1.89737e-06
-3.61666e-05
-5.21734e-06
-3.53258e-05
-7.73149e-06
-3.20603e-05
-8.05303e-06
-2.61983e-05
-7.80489e-06
-2.43849e-05
-9.3109e-06
-2.29391e-05
-1.54099e-05
-2.09598e-05
-1.48298e-05
-2.01128e-05
-1.29132e-05
-1.75434e-05
-1.4905e-05
-8.5273e-06
-1.45304e-05
-3.33809e-06
-7.11318e-06
-1.9894e-06
-5.16415e-06
-1.49287e-06
-3.29562e-06
-2.61868e-06
-3.44201e-06
-9.44788e-06
-3.85389e-06
-1.48114e-05
-1.42259e-05
-1.53022e-05
-2.05231e-05
-1.19389e-05
-1.64906e-05
-7.86141e-06
-6.2031e-06
-7.19006e-06
-2.71691e-06
-1.48347e-05
-3.20834e-06
-1.49012e-05
-5.22923e-06
-1.02987e-05
-2.52697e-06
-6.84266e-06
-5.47449e-09
-5.10874e-06
-7.36224e-09
-3.86948e-06
-1.01424e-08
-2.78428e-09
6.96552e-06
-7.94649e-07
-4.11154e-07
1.22721e-05
3.22313e-06
-1.93788e-10
-2.82821e-09
4.78975e-06
2.76859e-10
-3.72883e-10
-3.39781e-09
7.81861e-10
1.277e-09
2.21005e-10
5.53498e-07
-5.55684e-07
-2.84627e-07
2.82027e-07
7.34179e-06
-1.03435e-05
-2.54209e-06
2.5716e-06
2.31149e-05
-2.51606e-05
-1.83968e-05
1.33935e-05
2.95382e-05
-3.17543e-05
-2.92292e-05
2.71701e-05
3.45981e-05
-3.44622e-05
-3.29766e-05
2.99693e-05
3.701e-05
-3.55164e-05
-3.40036e-05
3.85519e-05
-3.57482e-05
3.93781e-05
-3.4332e-05
3.73514e-05
-3.15382e-05
3.73359e-05
-2.94091e-05
4.01787e-05
-2.78509e-05
4.36842e-05
-2.90594e-05
4.40349e-05
-3.01685e-05
4.34932e-05
-2.88274e-05
4.26825e-05
-2.68546e-05
4.15411e-05
-2.46108e-05
4.00503e-05
-2.22132e-05
3.82048e-05
-1.96663e-05
3.6021e-05
-1.69321e-05
3.35821e-05
-1.39264e-05
3.10051e-05
-1.05057e-05
1.85835e-05
-6.48354e-06
2.81505e-06
-1.22513e-06
1.88079e-08
2.9708e-07
2.73262e-08
1.37317e-07
2.67557e-09
2.40196e-08
1.49657e-10
3.45999e-09
9.39075e-12
2.60925e-10
4.91894e-13
2.13357e-11
1.50176e-12
1.58971e-05
-2.95943e-06
1.58255e-05
6.54715e-07
7.61323e-06
8.50789e-06
3.41081e-05
-2.64947e-05
3.30955e-06
-2.08563e-07
9.28766e-07
4.76251e-06
-1.43134e-05
2.38116e-05
5.21249e-05
-3.23268e-05
-1.70274e-06
9.48112e-07
-1.57174e-05
1.71604e-05
-2.92134e-05
3.71888e-05
5.94615e-05
-3.65697e-05
-1.61486e-05
1.36585e-05
-2.78852e-05
2.87729e-05
-3.66871e-05
4.58277e-05
6.18748e-05
-3.92201e-05
-2.70621e-05
2.40193e-05
-3.47965e-05
3.63398e-05
-4.00737e-05
5.09794e-05
5.95068e-05
-3.83651e-05
-3.30719e-05
3.175e-05
-3.84313e-05
4.14931e-05
-4.04551e-05
5.28336e-05
4.95129e-05
-3.53361e-05
-3.60236e-05
3.58747e-05
-3.954e-05
4.48066e-05
-3.6253e-05
4.97279e-05
4.78437e-05
-3.25317e-05
-3.74417e-05
3.86754e-05
-3.77443e-05
4.50732e-05
-3.33868e-05
4.51576e-05
4.81167e-05
-3.18737e-05
-3.72952e-05
4.02573e-05
-3.394e-05
4.17719e-05
-3.25726e-05
4.46704e-05
4.73049e-05
-3.06881e-05
-3.42726e-05
3.87421e-05
-3.17822e-05
4.02198e-05
-3.06188e-05
4.43517e-05
4.78478e-05
-3.03182e-05
-3.15684e-05
3.69412e-05
-3.10109e-05
4.05888e-05
-2.95511e-05
4.37708e-05
4.824e-05
-2.89384e-05
-3.01349e-05
3.65133e-05
-2.9154e-05
4.0571e-05
-2.90256e-05
4.45298e-05
4.87706e-05
-3.06001e-05
-2.90325e-05
3.6939e-05
-2.80425e-05
4.02444e-05
-2.89566e-05
4.6043e-05
4.97015e-05
-2.84955e-05
-2.74826e-05
3.70856e-05
-2.75859e-05
4.11187e-05
-2.82297e-05
4.80746e-05
4.88053e-05
-2.6128e-05
-2.64415e-05
4.28747e-05
-2.86438e-05
4.64904e-05
-2.86599e-05
4.87406e-05
4.74166e-05
-2.6174e-05
-2.94583e-05
4.44649e-05
-2.84114e-05
4.65398e-05
-2.64717e-05
4.73262e-05
4.53769e-05
-2.3239e-05
-2.79608e-05
4.36993e-05
-2.6666e-05
4.54265e-05
-2.45591e-05
4.5546e-05
4.14783e-05
-1.83178e-05
-2.58095e-05
4.26909e-05
-2.43463e-05
4.40708e-05
-2.23185e-05
4.36935e-05
3.6511e-05
-1.21308e-05
-2.33486e-05
4.14501e-05
-2.18071e-05
4.25688e-05
-1.99046e-05
4.18896e-05
3.46435e-05
-9.89067e-06
-2.06944e-05
3.99371e-05
-1.90211e-05
4.09112e-05
-1.7332e-05
4.02677e-05
3.44603e-05
-9.28228e-06
-1.78319e-05
3.81036e-05
-1.59351e-05
3.90235e-05
-1.42271e-05
3.85991e-05
3.5139e-05
-9.31057e-06
-1.47338e-05
3.59064e-05
-1.24857e-05
3.67766e-05
-1.03752e-05
3.65059e-05
3.44719e-05
-8.0635e-06
-1.13898e-05
3.33701e-05
-8.75166e-06
3.41398e-05
-6.13814e-06
3.39012e-05
3.2409e-05
-3.69146e-06
-7.76947e-06
3.06336e-05
-4.86497e-06
3.12357e-05
-1.90056e-06
3.09385e-05
2.96048e-05
9.57149e-07
-3.769e-06
2.76801e-05
-8.21263e-07
2.82888e-05
2.26168e-06
2.78566e-05
2.65247e-05
5.34356e-06
5.40863e-07
1.15897e-05
3.37598e-06
2.14412e-05
6.49781e-06
2.47367e-05
2.34213e-05
9.6008e-06
2.29685e-06
1.52072e-07
6.22875e-06
3.09431e-06
9.90445e-06
1.05852e-05
1.73889e-05
1.36875e-05
6.32647e-07
3.78317e-08
2.57416e-06
-4.01755e-07
6.94121e-06
-2.95327e-07
1.32277e-06
1.29461e-05
5.69334e-08
3.08311e-09
3.31638e-07
2.30017e-08
8.92761e-07
4.71976e-08
4.90944e-08
1.7127e-06
6.38946e-09
8.58024e-11
3.02702e-08
1.19889e-09
7.84415e-08
1.74399e-09
1.42024e-09
1.27607e-07
3.33417e-10
6.40211e-13
1.56881e-09
5.5912e-11
3.38205e-09
5.38528e-11
-5.26561e-11
4.74128e-09
2.12876e-11
-2.17393e-13
8.13839e-11
1.51906e-12
1.29311e-10
4.42127e-13
-2.51518e-12
8.00933e-11
1.24245e-12
2.86166e-12
3.57921e-12
8.03276e-13
-2.40739e-05
8.52069e-05
-2.57679e-05
7.54606e-05
-2.21735e-05
6.17273e-05
-1.49134e-05
3.01175e-05
-1.12057e-05
1.99736e-05
-1.25951e-05
1.54235e-05
-2.09881e-05
1.90066e-05
-3.09426e-05
2.21782e-05
-3.59779e-05
1.84263e-05
-3.66874e-05
1.28337e-05
-3.64341e-05
7.33111e-06
-3.5644e-05
2.02037e-06
-3.53617e-05
-1.41356e-06
-2.92294e-05
-2.65293e-06
-1.66164e-05
-2.51761e-06
-9.73917e-06
-1.81728e-06
-7.65834e-06
-3.42139e-06
-8.93359e-06
-9.0648e-06
-1.77083e-05
-1.43906e-05
-1.60416e-05
-1.59686e-05
-1.47e-05
-1.46965e-05
-1.53854e-05
-1.31353e-05
-1.34895e-05
-1.66487e-05
-5.10166e-06
-9.81557e-06
-2.26065e-06
-6.21669e-06
-9.78904e-07
-4.16251e-06
-5.17239e-07
-3.65835e-06
-1.81558e-06
-2.81344e-06
-1.01655e-05
-2.2103e-06
-1.25146e-05
-1.09501e-05
-5.86022e-06
-1.23639e-05
-4.0363e-06
-2.12484e-06
-7.70321e-06
-8.45254e-07
-9.05033e-06
-1.4167e-06
-3.40962e-06
-1.2e-06
-2.72447e-09
-7.09115e-09
-1.46105e-09
-3.32171e-09
-9.31533e-10
-9.0478e-09
-1.56016e-10
-1.11425e-08
-2.94029e-09
-2.97267e-05
8.25933e-05
-2.64139e-05
7.16435e-05
-1.70064e-05
3.92826e-05
-1.3009e-05
2.71192e-05
-1.40792e-05
2.17986e-05
-2.17816e-05
2.64442e-05
-3.08851e-05
2.92361e-05
-3.27806e-05
2.44584e-05
-3.29841e-05
1.89717e-05
-3.08274e-05
1.11068e-05
-2.42718e-05
3.55192e-06
-1.37324e-05
2.31673e-07
-6.04573e-06
-1.67173e-08
-2.02494e-06
-6.50793e-08
-1.06478e-06
-1.38731e-07
-8.45771e-07
-2.68701e-07
-5.36575e-06
-1.59927e-06
-1.10661e-05
-9.61658e-06
-1.52852e-05
-1.30128e-05
-1.61393e-05
-2.00733e-05
-1.16958e-05
-2.22843e-05
-1.08537e-05
-1.65579e-05
-1.15218e-05
-1.9762e-05
-9.80557e-06
-2.3087e-05
-3.92002e-06
-1.95331e-05
-1.80712e-06
-4.17991e-06
-2.69432e-07
-3.82505e-06
-2.3566e-07
-3.13077e-06
-1.86749e-06
-7.20139e-07
-4.92829e-06
-1.3323e-06
-2.96016e-06
-5.31045e-06
-1.09255e-06
-1.45668e-06
-1.4491e-06
-1.82928e-08
-4.99979e-07
-2.27526e-07
-6.24228e-09
-1.31775e-07
-8.47039e-09
-2.58637e-09
-1.32934e-08
-5.2149e-12
-4.39644e-09
-7.31387e-08
5.69312e-09
-6.36639e-08
-1.21254e-09
-3.26164e-05
7.85229e-05
-2.07989e-05
5.38097e-05
-1.61981e-05
3.52638e-05
-1.78197e-05
2.97142e-05
-2.20855e-05
3.60624e-05
-2.82609e-05
3.47721e-05
-2.92273e-05
3.06784e-05
-2.66375e-05
2.23344e-05
-1.57924e-05
8.55883e-06
-4.24183e-06
8.21527e-07
-3.4848e-07
1.5069e-07
-2.72349e-09
9.4488e-09
-1.93533e-08
-9.89126e-12
-8.34554e-08
-5.30673e-10
-2.16086e-07
-3.51492e-09
-4.50266e-07
-1.7722e-08
-3.24001e-06
-1.21233e-07
-9.2157e-06
-9.42699e-07
-1.04265e-05
-5.12478e-06
-1.13755e-05
-9.77591e-06
-1.22045e-05
-1.6183e-05
-1.21911e-05
-1.54417e-05
-1.1304e-05
-1.93572e-05
-9.07477e-06
-2.42013e-05
-4.06032e-06
-2.66188e-05
-1.27147e-06
-8.45364e-06
2.10079e-08
-4.06096e-07
2.12631e-07
-2.93765e-06
-1.73763e-07
-4.59451e-07
-1.25207e-06
-4.2112e-07
-1.77909e-06
-2.90759e-06
-8.99798e-08
-1.51357e-06
-1.09618e-07
-2.47964e-09
-1.18296e-07
3.39902e-09
-2.32047e-08
-8.63997e-09
-2.91447e-08
1.3514e-09
-5.77778e-08
-4.02705e-08
-3.28809e-08
-9.61605e-08
-2.63461e-09
-1.04128e-07
-1.92083e-08
-2.76345e-05
6.82669e-05
-2.00482e-05
4.45634e-05
-2.17041e-05
3.75031e-05
-2.39019e-05
4.43828e-05
-2.61463e-05
4.05575e-05
-2.60268e-05
3.55528e-05
-2.08103e-05
2.59419e-05
-8.67112e-06
6.67212e-06
-9.12484e-07
6.15106e-07
-1.54688e-07
7.02731e-08
-9.44035e-09
6.30436e-09
-8.27724e-11
1.68527e-10
-1.01991e-10
-1.09754e-13
-6.52137e-10
-1.2114e-13
-4.16669e-09
-1.10502e-12
-2.28509e-08
-1.18956e-11
-1.47986e-07
-1.29762e-10
-1.09283e-06
-5.56181e-10
-1.04878e-06
-2.525e-09
-2.12895e-06
-3.90776e-08
-4.79477e-06
-2.85477e-07
-8.13248e-06
-2.32199e-06
-9.28795e-06
-1.65691e-05
-8.74849e-06
-2.30087e-05
-4.44273e-06
-2.85936e-05
-1.07124e-07
-2.31934e-05
-2.41614e-08
-5.57175e-07
4.30379e-07
-2.30755e-06
1.1719e-07
-6.77281e-07
-3.32457e-07
-2.07822e-07
-1.03259e-06
-1.87113e-06
-2.99661e-08
-2.08948e-06
3.50642e-10
-2.2308e-08
-6.45749e-10
6.67046e-10
-8.25779e-09
3.62506e-11
-6.07462e-08
8.38254e-09
-5.23311e-08
-4.58193e-08
-3.58869e-08
-1.11413e-07
-1.16077e-08
-1.26162e-07
-1.31464e-08
-2.55938e-05
5.16031e-05
-2.53373e-05
4.69507e-05
-2.62394e-05
4.94653e-05
-2.63897e-05
4.66012e-05
-2.4969e-05
4.1324e-05
-1.83923e-05
3.12976e-05
-5.83091e-06
7.97838e-06
-6.5107e-07
5.9126e-07
-7.46013e-08
4.52385e-08
-6.31091e-09
2.91804e-09
-1.43545e-10
1.44171e-10
-2.84288e-12
2.93636e-11
-2.19342e-14
-2.74214e-12
-1.64e-13
-1.21597e-15
-1.88786e-12
-3.0682e-14
-1.8561e-11
-1.99691e-13
-7.11564e-11
-6.67524e-13
-7.0656e-10
-7.39747e-12
-3.17573e-09
-4.48562e-11
-4.1168e-08
-7.04028e-10
-3.18016e-07
-6.96045e-09
-2.54027e-06
-7.80712e-08
-4.92473e-06
-1.19216e-06
-6.71288e-06
-1.81863e-05
-4.5692e-06
-2.81931e-05
-3.65931e-07
-2.4319e-05
-9.71773e-09
-8.97844e-07
1.88597e-07
-1.79963e-07
8.07191e-07
-6.49591e-07
3.04134e-07
-5.00794e-08
7.03257e-08
-1.10641e-06
3.88205e-08
-7.95026e-07
2.738e-09
-9.52606e-08
1.65877e-10
4.3411e-10
-2.20853e-09
1.81734e-09
-2.7983e-08
8.83263e-09
-3.35735e-08
-3.89182e-08
-2.42963e-08
-1.18425e-07
-6.20414e-09
-9.15554e-08
-3.46171e-10
-3.08455e-05
5.3496e-05
-2.83276e-05
5.30536e-05
-2.77287e-05
5.08036e-05
-2.61502e-05
4.69823e-05
-2.01084e-05
3.73952e-05
-6.46421e-06
1.30082e-05
-5.92939e-07
8.96572e-07
-4.91709e-08
3.54161e-08
-3.35129e-09
7.98663e-10
-8.80016e-10
1.20498e-09
-6.811e-10
7.86642e-10
-1.89809e-10
6.86075e-10
-4.05814e-15
1.07179e-10
-1.16802e-14
-7.80593e-16
-1.48383e-14
-1.81073e-15
-7.01698e-14
-3.69977e-14
-5.77788e-13
-5.57414e-14
-7.56025e-12
-2.77454e-13
-4.95106e-11
-2.35785e-12
-7.12217e-10
-3.78079e-11
-7.24344e-09
-4.55324e-10
-8.09284e-08
-5.07064e-09
-1.22226e-06
-7.19912e-08
-4.21115e-06
-1.78538e-06
-2.07159e-06
-2.77476e-05
-3.19706e-07
-8.18419e-06
8.85113e-08
-1.56765e-06
1.22993e-07
-4.76036e-07
1.44739e-06
-8.73676e-07
2.43257e-07
-1.0723e-08
3.82184e-07
-3.63573e-07
1.76502e-08
-1.10698e-07
4.33818e-09
-2.26865e-08
7.17007e-10
1.86501e-09
1.06738e-11
5.37176e-10
-1.06452e-09
2.03254e-10
-1.1876e-08
-4.24536e-10
-5.48689e-09
-1.19586e-07
-3.83665e-10
-1.42188e-09
-7.29836e-10
-3.01228e-05
5.55222e-05
-2.93353e-05
5.36552e-05
-2.76218e-05
5.08554e-05
-2.28979e-05
4.38131e-05
-9.04279e-06
2.25563e-05
-8.20142e-07
2.16101e-06
-3.18995e-08
8.55711e-08
7.51823e-10
4.19589e-09
3.42378e-10
2.87743e-09
9.39275e-11
3.01296e-09
-4.58424e-10
2.1993e-09
-9.51855e-10
1.57283e-09
-2.53981e-14
6.65053e-10
-3.56247e-14
3.02309e-17
-2.48772e-14
2.19684e-14
-2.99177e-14
-2.21187e-14
-4.57859e-14
-3.61231e-14
-2.71602e-13
-8.24586e-14
-2.05975e-12
-4.90081e-13
-3.27249e-11
-9.636e-12
-3.3894e-10
-1.55513e-10
-3.90429e-09
-2.38903e-09
-3.73855e-08
-3.71091e-08
-1.48894e-06
-3.30125e-07
-2.7949e-07
-2.16609e-05
1.64177e-08
-7.58567e-06
4.00354e-07
-3.33361e-06
6.32701e-07
-9.72398e-07
1.42542e-06
-1.68426e-07
7.94889e-07
3.8301e-08
1.32492e-07
-1.26537e-07
3.77705e-08
-2.92885e-08
2.6092e-09
-3.27904e-09
1.97747e-09
6.83791e-09
1.9904e-11
6.01068e-10
2.7805e-10
4.9294e-11
4.35027e-11
-1.39314e-10
-2.89193e-11
-1.17274e-08
-2.53447e-10
-6.25442e-10
-1.51465e-09
-3.0348e-05
5.61699e-05
-2.87942e-05
5.34184e-05
-2.52611e-05
4.87474e-05
-1.39262e-05
3.20178e-05
-1.69491e-06
5.58121e-06
-6.89637e-08
5.10272e-07
-2.951e-09
1.89418e-08
-3.19894e-09
4.65251e-09
-2.66086e-09
5.39278e-09
-2.77665e-10
7.13438e-09
-3.14926e-10
5.00747e-10
-2.2568e-10
1.67037e-09
-3.22526e-13
4.55e-10
-2.71334e-13
3.32763e-15
-2.92136e-14
-2.83533e-13
-2.32682e-14
-1.8225e-14
-2.83724e-14
-3.19581e-14
-5.87686e-14
-5.10467e-14
-5.79272e-13
-1.28414e-13
-9.06095e-12
-1.48806e-12
-1.33009e-10
-3.66338e-11
-1.2719e-09
-9.04235e-10
-9.06253e-09
-2.95297e-08
9.51581e-08
-4.35238e-07
1.40517e-06
-5.56597e-06
1.4184e-06
-1.11864e-05
1.48027e-06
-1.19518e-05
9.45002e-07
-3.50595e-06
5.16717e-07
-2.4462e-07
5.69515e-07
1.51467e-08
2.02863e-07
3.44127e-11
1.24156e-08
-1.83701e-10
-5.33237e-11
3.48747e-09
1.33101e-09
1.14574e-09
1.53193e-11
5.38058e-10
5.49399e-11
6.15363e-11
5.25172e-11
-6.8516e-11
4.33618e-11
-1.70837e-10
-1.27206e-10
-3.66481e-10
-2.14988e-10
-2.98837e-05
5.425e-05
-2.78134e-05
5.2681e-05
-2.17057e-05
4.39434e-05
-4.37524e-06
1.28461e-05
-3.55024e-07
1.67124e-06
-1.5454e-07
3.64558e-07
-6.40688e-07
4.80056e-07
-1.22658e-08
3.02916e-09
-4.32473e-09
-4.43217e-09
-2.26408e-10
1.71667e-10
-1.97408e-10
3.8269e-11
-3.01249e-11
3.23079e-11
-4.06103e-13
2.742e-12
-2.38786e-13
9.93595e-15
-1.69977e-14
-1.29175e-13
-1.07359e-14
-1.82529e-14
-1.34975e-14
-2.93291e-14
-1.58654e-14
-4.73154e-14
-3.45458e-14
-1.04823e-13
-4.41246e-13
-1.00626e-12
-2.05736e-11
-1.57253e-11
-6.54584e-10
-2.59111e-10
-2.06908e-08
-9.49298e-09
3.90422e-07
-9.63626e-07
1.19073e-06
-7.72084e-06
3.40643e-06
-1.2998e-05
3.89981e-06
-1.21196e-05
6.68835e-07
-6.56516e-06
1.34472e-07
-3.9388e-07
1.35799e-07
8.63114e-09
9.02842e-08
-5.0519e-09
3.89651e-09
8.66042e-09
-1.3222e-09
4.36257e-09
1.17599e-10
5.87049e-10
8.95841e-13
5.40285e-10
-3.97215e-12
1.1e-10
8.0403e-11
-2.83559e-11
1.37314e-11
-2.15347e-10
-2.76116e-12
-9.43427e-10
-2.17749e-10
-2.94496e-05
5.46995e-05
-2.59715e-05
5.05583e-05
-9.17739e-06
2.83176e-05
-2.01107e-06
5.68112e-06
-2.52129e-06
2.22099e-06
-7.66457e-06
6.00315e-06
-4.10122e-06
2.44612e-06
-2.62515e-07
-3.21761e-07
-3.18871e-08
-2.30878e-07
-6.36941e-10
-3.12359e-08
-3.3711e-11
-5.65911e-10
-1.01516e-12
4.48016e-13
1.44314e-13
6.48558e-13
5.87944e-14
4.37559e-13
1.25228e-14
-2.23393e-14
-7.93419e-16
-1.72214e-14
-2.36839e-15
-2.75987e-14
-3.34634e-15
-4.63665e-14
1.25735e-15
-9.70144e-14
1.19336e-14
-8.38199e-13
7.87636e-12
-2.27341e-11
5.55803e-10
-7.91976e-10
3.72982e-08
-4.62299e-08
2.68835e-06
-6.74232e-06
2.81779e-06
-1.24537e-05
3.80542e-06
-1.34162e-05
3.68054e-06
-1.14474e-05
5.63651e-07
-4.99808e-06
-1.9999e-08
-2.55496e-07
8.15227e-09
4.16266e-09
2.10279e-08
-1.37955e-09
1.44118e-08
-9.87876e-10
-4.65256e-10
4.79647e-09
-1.4378e-10
1.03226e-09
7.5849e-11
8.95746e-10
5.90273e-11
1.70838e-10
1.1645e-10
-1.20633e-11
1.23302e-10
-9.34556e-11
6.09034e-11
-2.17604e-09
-3.9377e-10
-2.87566e-05
5.52276e-05
-2.3554e-05
4.66688e-05
-4.54993e-06
1.235e-05
-3.74777e-06
4.52572e-06
-6.04014e-06
4.02199e-06
-9.30533e-06
6.79021e-06
-9.04711e-06
2.63593e-06
-2.35467e-06
-1.3626e-06
-3.58632e-07
-1.71241e-06
-1.7164e-08
-3.75671e-07
-2.32695e-10
-1.69837e-08
-9.34568e-13
-1.71217e-10
-4.00669e-15
-6.88826e-13
3.70161e-14
3.75762e-15
1.25161e-14
-6.03236e-15
1.15453e-14
-1.39601e-14
1.03491e-14
-3.04662e-14
2.55852e-14
-4.59484e-14
2.57628e-13
-2.04811e-13
5.55975e-12
-4.23786e-12
1.16532e-10
-1.2879e-10
2.85733e-09
-3.53987e-09
1.05178e-07
-1.48862e-07
2.7728e-06
-1.04235e-05
3.68519e-06
-1.27903e-05
4.01413e-06
-1.30394e-05
2.58193e-06
-9.28737e-06
8.95462e-08
-1.05569e-06
-1.17068e-08
-1.12437e-07
4.57366e-09
-2.33986e-09
8.29167e-09
-6.97948e-10
5.47888e-09
-1.22132e-09
7.84228e-10
1.08863e-09
3.3427e-11
2.17262e-09
2.18961e-10
1.30409e-09
1.87159e-10
2.47504e-10
2.21598e-10
2.4259e-11
2.57015e-10
-7.73825e-10
2.42177e-10
-1.79784e-09
-3.65655e-10
-2.77365e-05
5.28595e-05
-9.86505e-06
3.15435e-05
-2.69684e-06
5.17013e-06
-3.01237e-06
3.82006e-06
-8.38101e-06
9.34843e-06
-8.9293e-06
7.79068e-06
-8.70845e-06
2.86727e-06
-7.87714e-06
-1.74173e-06
-2.29246e-06
-7.81724e-06
-1.3541e-07
-2.35897e-06
-3.64891e-09
-1.37602e-07
-4.92039e-11
-3.79678e-09
-6.808e-14
-4.91912e-11
2.31112e-14
-2.31563e-13
2.20519e-14
-1.18157e-14
2.56314e-14
-8.97053e-15
4.34162e-14
-3.20764e-14
2.21323e-13
-2.1222e-13
2.6739e-12
-1.87485e-12
3.8201e-11
-3.55544e-11
5.77781e-10
-6.46275e-10
1.04713e-08
-1.34821e-08
2.90097e-07
-4.29458e-07
3.02105e-06
-7.54209e-06
3.73596e-06
-1.28818e-05
3.85266e-06
-1.25949e-05
6.81235e-07
-4.56539e-06
5.50737e-08
-3.12346e-07
-2.09307e-09
-4.47651e-08
1.02447e-09
-1.78548e-09
2.42132e-09
1.66957e-10
2.50094e-09
9.52032e-12
1.29815e-09
2.84804e-09
5.4631e-10
3.2215e-09
2.88604e-10
1.69574e-09
2.3132e-10
3.27316e-10
2.51058e-10
1.18221e-10
6.43742e-10
-6.33558e-10
2.82083e-10
-9.35653e-10
-4.37091e-11
-2.58366e-05
5.08307e-05
-4.58869e-06
1.46219e-05
-2.18123e-06
2.67245e-06
-2.66605e-06
3.35506e-06
-6.17718e-06
1.00724e-05
-5.1457e-06
6.99948e-06
-2.79083e-06
9.79881e-07
-1.09215e-05
-2.27224e-06
-1.14125e-05
-1.17706e-05
-1.4081e-06
-1.09762e-05
-6.04638e-08
-1.50242e-06
-1.34886e-09
-6.35584e-08
-9.02527e-12
-1.44594e-09
-1.47387e-13
-9.39009e-12
6.03369e-14
-3.62807e-13
6.82559e-14
-2.31503e-14
1.38834e-13
-8.99045e-14
1.9869e-12
-2.09337e-12
1.91841e-11
-1.41548e-11
2.05266e-10
-2.00519e-10
2.38917e-09
-2.75262e-09
3.52487e-08
-4.61816e-08
6.64543e-07
-1.06206e-06
2.90304e-06
-8.0327e-06
3.97059e-06
-1.31994e-05
3.17136e-06
-1.14104e-05
1.54796e-07
-1.53847e-06
2.52287e-08
-1.80934e-07
2.386e-10
-1.83799e-08
6.1718e-10
-5.35864e-10
9.48518e-10
2.12385e-10
2.7732e-09
8.41227e-10
2.95716e-09
6.20626e-09
6.65284e-09
4.4142e-08
3.7636e-09
2.91368e-08
4.07034e-10
3.81788e-09
9.55152e-10
1.72607e-09
8.78426e-10
-6.17588e-11
3.22423e-11
-1.1027e-10
-3.77033e-12
-1.63367e-05
4.40915e-05
-2.10023e-06
8.86248e-06
-8.13602e-07
1.26223e-06
-3.2338e-06
2.82988e-06
-4.32676e-06
9.10602e-06
-1.4498e-06
4.48138e-06
-5.47665e-07
2.19617e-07
-9.59151e-06
-1.01045e-06
-1.14633e-05
-1.09873e-05
-3.76028e-06
-1.94005e-05
-2.93302e-07
-5.08228e-06
-1.07146e-08
-3.56493e-07
-1.24315e-10
-1.15457e-08
-5.33063e-12
-1.93036e-10
1.72126e-13
-9.99031e-12
5.76471e-13
-7.8816e-13
1.06568e-12
-6.10236e-13
1.77998e-11
-1.87637e-11
1.16435e-10
-9.31179e-11
1.00869e-09
-9.95681e-10
9.2458e-09
-1.07946e-08
1.13534e-07
-1.48643e-07
1.71487e-06
-2.66738e-06
4.07612e-06
-1.07326e-05
4.10499e-06
-1.23344e-05
1.03025e-06
-5.58525e-06
1.35481e-07
-3.72085e-07
1.40926e-08
-5.6949e-08
5.27638e-10
-4.83865e-09
3.01174e-10
-1.14279e-10
5.03906e-10
1.07245e-10
2.06178e-09
9.40622e-10
2.30457e-08
3.0309e-08
3.81689e-08
5.60163e-08
2.42635e-08
4.44374e-08
8.27465e-10
2.92046e-08
1.05556e-10
5.26533e-09
7.72526e-11
4.30584e-11
6.99823e-13
-3.20948e-11
-1.68466e-12
-6.2519e-06
3.06906e-05
-8.30286e-07
3.29331e-06
-2.32593e-07
6.25622e-07
-1.55514e-06
2.11674e-06
-2.19743e-06
4.03681e-06
-4.39132e-07
8.89792e-07
-3.01089e-07
1.24501e-07
-1.96891e-06
-2.38602e-07
-7.72425e-06
-9.79151e-06
-7.93799e-06
-2.23971e-05
-1.47158e-06
-2.26513e-05
-8.85669e-08
-1.77632e-06
-1.57016e-09
-1.04077e-07
-6.24795e-11
-2.03712e-09
3.47317e-12
-1.16501e-10
5.12026e-12
-7.20402e-12
6.7411e-12
-2.6608e-12
2.17059e-10
-4.02798e-10
7.37543e-10
-5.41645e-10
5.3294e-09
-5.44619e-09
4.1832e-08
-4.83452e-08
4.09061e-07
-5.19786e-07
2.33964e-06
-6.01393e-06
4.03115e-06
-1.12511e-05
3.65709e-06
-1.09826e-05
1.86549e-07
-1.94102e-06
3.46404e-08
-2.16571e-07
3.12493e-09