/*--------------------------------*- C++ -*----------------------------------*\
| =========                 |                                                 |
| \\      /  F ield         | OpenFOAM: The Open Source CFD Toolbox           |
|  \\    /   O peration     | Version:  5.0                                   |
|   \\  /    A nd           | Web:      www.OpenFOAM.org                      |
|    \\/     M anipulation  |                                                 |
\*---------------------------------------------------------------------------*/
FoamFile
{
    version     2.0;
    format      ascii;
    class       volScalarField;
    location    "1";
    object      alpha.water;
}
// * * * * * * * * * * * * * * * * * * * * * * * * * * * * * * * * * * * * * //

dimensions      [0 0 0 0 0 0 0];

internalField   nonuniform List<scalar> 
1915
(
1
0.999998
1
1
1
1
1
1
1
1
1
1
1
1
1
1
1
1
0.999999
1
0.999988
0.998218
0.902194
0.998768
1
1
1
1
1
1
1
1
1
1
1
1
1
1
1
0.999996
0.996348
0.992716
0.993366
0.996393
0.999045
0.999789
1
1
1
1
1
1
0.99997
0.999991
1
0.999631
0.999475
0.999896
1
0.998081
0.995591
0.959882
0.97257
1
1
1
1
1
1
1
1
0.999999
0.999999
0.999999
1
0.999997
0.999989
0.999964
0.999913
0.999802
0.999431
0.995956
0.927937
0.881761
0.890863
0.90541
0.941554
0.972601
0.991012
0.997398
0.999973
0.999995
0.999972
0.999969
1
0.99911
0.994973
0.997291
0.999626
0.999347
0.990581
0.967403
1.00001
1
1
1
1
1
0.999997
0.999997
0.999997
0.999988
0.999992
0.999999
0.999998
0.999999
0.999981
0.999919
0.999746
0.999434
0.999108
0.998127
0.968454
0.859568
0.818561
0.808406
0.804758
0.804512
0.822871
0.835291
0.92365
0.987093
0.999956
0.999967
0.99996
0.999959
0.968054
0.986788
0.999474
1
0.999013
0.997388
0.999997
0.999997
0.999991
0.999964
0.999989
0.999999
0.999999
0.999996
1
0.999991
0.999704
0.999998
0.999993
0.999919
0.999955
0.999848
0.999625
0.999171
0.998098
0.995617
0.994829
0.994223
0.992603
0.936604
0.875534
0.80461
0.738749
0.734973
0.733307
0.790942
0.948342
0.999958
0.999958
0.999435
0.947861
0.939068
0.994631
1
0.999725
0.999961
0.999993
0.999994
0.999994
0.999984
0.999992
1
1.00001
1.00018
0.955472
0.893559
0.865012
0.855945
0.867293
0.882692
0.895325
0.922729
0.956008
0.981734
0.994429
0.994861
0.994232
0.993277
0.993015
0.993156
0.993113
0.993273
0.989704
0.824903
0.728308
0.728308
0.7406
0.985109
0.999953
0.992794
0.933744
0.924797
0.995096
1
0.999997
0.99997
0.999978
0.999994
1
0.999993
0.999924
0.999737
0.88715
0.437978
0.300001
0.289636
0.284364
0.283703
0.315471
0.3334
0.345434
0.377226
0.428225
0.52165
0.667019
0.822888
0.947961
0.991123
0.992405
0.993074
0.993274
0.993272
0.993272
0.993134
0.887921
0.728308
0.732668
0.856693
0.999833
0.971813
0.9208
0.924546
0.995009
0.934883
1
0.999996
0.999972
1
0.999895
0.999352
0.994234
0.59264
0.255594
0.239994
0.240844
0.241411
0.241768
0.242688
0.245479
0.25372
0.266939
0.273097
0.260222
0.252288
0.236107
0.217113
0.402994
0.709783
0.941433
0.990602
0.99272
0.993294
0.993185
0.993097
0.992842
0.871544
0.737463
0.804832
0.999121
0.987935
0.931099
0.912441
0.971739
0.990079
1
0.999999
1.00001
0.999875
0.999439
0.993051
0.580359
0.242208
0.240685
0.240031
0.240685
0.241225
0.249365
0.385937
0.506886
0.569786
0.583115
0.488761
0.335594
0.260698
0.203952
0.18035
0.156392
0.131798
0.332232
0.676052
0.958716
0.992013
0.993139
0.992843
0.992281
0.987264
0.744324
0.699101
0.998335
0.995185
0.97461
0.913287
0.916648
1
1
1
0.999945
0.999766
0.995131
0.647824
0.244157
0.243088
0.24215
0.2391
0.240487
0.552504
0.820075
0.846095
0.83794
0.833442
0.824648
0.808605
0.784362
0.585896
0.477799
0.369073
0.196771
0.125012
0.118663
0.112901
0.394119
0.880423
0.991665
0.99237
0.990118
0.902592
0.651072
0.672802
0.997614
0.992377
0.974167
0.932202
0.862167
0.850394
1
0.999988
0.999727
0.996632
0.709604
0.267385
0.256432
0.244157
0.332393
0.789748
0.844706
0.852114
0.851864
0.851864
0.846104
0.798068
0.654247
0.57435
0.583206
0.587393
0.569419
0.557633
0.510151
0.118474
0.113379
0.108874
0.0997293
0.256496
0.878411
0.988946
0.915265
0.543621
0.420398
0.735971
0.966142
0.75982
0.482153
0.381434
0.368902
0.409039
0.967172
0.995032
0.29656
0.384364
2.04318e-05
2.06977e-05
2.06977e-05
2.06977e-05
2.70792e-05
0.0752081
0.00285053
0.390708
0.173968
0.918081
0.503066
0.964055
0.890482
0.956394
0.958797
0.954401
0.958631
0.934246
0.853029
0.837028
0.905545
0.989038
0.998711
0.99957
0.999809
0.999887
0.999903
0.999911
0.999913
0.999911
0.920927
0.471539
0.177784
0.0271504
0.000216314
1.34719e-05
9.3191e-07
5.6023e-08
3.55271e-09
0.934967
0.954196
0.981759
1
0.213415
0.459816
0.987207
0.999485
0.0107382
0.738786
0.996697
0.99879
0.245036
0.992651
0.994413
0.996698
0.827319
0.986995
0.992586
0.986953
0.979673
0.98211
0.986922
0.919314
0.972856
0.97938
0.960314
0.729629
0.967195
0.967517
0.806443
0.741021
0.963812
0.927547
0.763433
0.757565
0.944644
0.768886
0.773302
0.767072
0.852231
0.779402
0.779488
0.769635
0.785454
0.783361
0.782188
0.853954
0.789761
0.789699
0.784469
0.902669
0.792695
0.792198
0.856189
0.922672
0.816912
0.864712
0.968668
0.94809
0.974807
0.980522
0.979543
0.962275
0.997377
0.994453
0.98917
0.940336
0.998881
0.997167
0.994603
0.873778
0.999502
0.998938
0.997096
0.835904
0.999808
0.99954
0.998242
0.858501
0.999895
0.999773
0.999067
0.919309
0.999902
0.999875
0.999586
0.977223
0.999911
0.999897
0.999766
0.99066
0.999912
0.999908
0.999888
0.998802
0.999909
0.999899
0.999898
0.999879
0.829062
0.998617
0.999877
0.999767
0.316289
0.568749
0.855564
0.999687
0.033246
0.0946789
0.256283
0.504971
0.000254443
0.00534988
0.0204123
0.0355047
1.32986e-05
4.44557e-05
0.000100546
0.000127585
7.2369e-07
2.28e-06
3.90581e-06
-2.93233e-06
4.56606e-08
5.12555e-08
9.78401e-08
1.71717e-08
2.32126e-09
3.29714e-09
4.3248e-10
3.54913e-10
0.999981
0.999828
0.99728
0.718757
0.309329
0.288357
0.267385
0.686124
0.835946
0.852363
0.852363
0.852363
0.850795
0.731201
0.462851
0.24083
0.176083
0.263439
0.464665
0.569419
0.406411
0.384414
0.454892
0.244376
0.110379
0.0997293
0.0925479
0.0807072
0.250087
0.800761
0.647569
0.19928
0.283404
0.526032
0.398072
0.0668123
8.70125e-05
4.79436e-05
9.13943e-06
-1.39631e-16
0.999743
0.997335
0.748493
0.362719
0.336024
0.32526
0.756109
0.831104
0.838919
0.849549
0.760011
0.367332
0.181083
0.0754399
0.0246419
0.00907675
0.0738477
0.357808
0.46599
0.50102
0.356362
0.352288
0.366401
0.464832
0.292526
0.151176
0.169187
0.0759918
0.0459933
0.172065
0.345791
0.0742991
0.0413785
0.0922943
0.0111986
0.000344807
0.000314845
0.000856296
0.000670526
4.05054e-05
0.997255
0.919359
0.43234
0.397529
0.458209
0.746811
0.796894
0.819015
0.713255
0.169277
0.0364359
0.000848182
3.86769e-07
2.43982e-06
1.48531e-05
6.02744e-05
0.0323649
0.257343
0.358038
0.352801
0.432424
0.471203
0.478531
0.479072
0.483028
0.145244
0.0813805
0.200098
0.0447658
0.0431748
0.119533
0.0944698
0.000216438
0.0104505
0.00694667
0.000372349
0.00152592
0.00324177
0.00323776
0.000752386
0.952243
0.549596
0.468827
0.580239
0.751854
0.762023
0.782686
0.524287
0.0712728
0.000943248
6.5642e-05
1.14898e-07
-5.40016e-08
-1.03521e-07
-5.32038e-07
-1.13097e-05
-1.49143e-05
-3.15034e-05
0.00279281
0.0617179
0.150189
0.339738
0.474755
0.478531
0.477286
0.35357
0.0111592
0.193193
0.060459
0.0431748
0.104924
0.104865
0.000110032
5.20074e-05
6.85346e-05
0.00156387
0.00324759
0.0032508
0.00323927
0.00159106
0.792616
0.556196
0.654949
0.77584
0.763152
0.751502
0.496851
0.0235618
0.000947639
7.63874e-05
8.20163e-07
-7.82975e-08
-6.00898e-11
2.33039e-10
-1.31291e-09
-7.80598e-09
7.27171e-08
-9.92007e-08
1.06469e-07
6.98188e-07
2.38966e-05
0.00027072
0.130254
0.472495
0.475939
0.469359
0.00978186
0.0205487
0.0954598
0.0439357
0.100044
0.0719834
0.000915702
3.91878e-05
2.65128e-05
0.00155636
0.00324923
0.00323927
0.00287193
3.27999e-05
0.659345
0.642818
0.787859
0.784622
0.775193
0.575015
0.0193823
0.000939948
0.000126813
6.78894e-05
6.25698e-05
5.60078e-05
5.26552e-06
2.70521e-10
2.4622e-10
6.31511e-10
1.26744e-09
1.78748e-09
-1.75016e-08
1.69605e-07
1.87436e-06
1.74813e-05
0.000219273
0.0888048
0.475819
0.164311
0.00857179
0.00857179
0.0849033
0.056869
0.0511702
0.00794854
0.00570129
3.27698e-05
2.65116e-05
0.00047214
0.0016346
0.0031953
0.000304639
0
0.704413
0.798496
0.791553
0.793593
0.685242
0.0512323
0.00100593
0.000307487
0.000205627
0.000213755
0.000230243
0.000232612
0.000146019
2.65142e-10
1.21631e-09
2.3341e-09
2.3872e-09
2.17003e-09
3.35569e-09
1.81933e-08
-3.60075e-09
-2.4411e-07
9.09407e-06
0.000247675
0.432752
0.0472786
0.0181493
0.00857179
0.0368886
0.052746
0.0279611
0.000824771
0.000605984
0.000742042
2.4711e-05
8.24788e-06
7.43282e-06
0.00192584
1.41614e-05
3.52147e-05
0.740523
0.800715
0.801694
0.756069
0.143735
0.00106293
0.000444488
0.000419452
0.000426867
0.000625122
0.000170236
0.000232418
0.00016499
3.00896e-10
4.0426e-08
2.34575e-09
2.4195e-09
2.4319e-09
2.77249e-09
-8.74529e-09
-1.65861e-07
-1.95181e-06
1.95798e-05
0.000177361
0.0783382
0.126665
0.125729
0.0316185
0.0116605
0.0186233
0.0147873
0.00211202
0.000322486
0.000445
2.3887e-05
7.4341e-06
6.91783e-06
5.40942e-06
1.10307e-05
6.70157e-05
0.809084
0.806172
0.805408
0.396903
0.0051217
0.0028718
0.00106315
0.0150718
7.2669e-05
6.16217e-05
1.30262e-05
6.86031e-05
2.43257e-05
1.08699e-09
1.29507e-07
2.42595e-09
2.42548e-09
2.43168e-09
2.46278e-09
3.25205e-09
1.41522e-08
1.32094e-07
-5.54208e-05
0.00105617
0.0247726
0.153843
0.151774
0.111245
0.00984933
0.00304257
0.00406977
0.00222851
0.00016152
9.34268e-05
9.59329e-06
7.34946e-06
6.23331e-06
5.40942e-06
1.30102e-05
0
0.818364
0.817978
0.702042
0.0379217
0.0225227
0.064099
0.211689
0.0256284
6.09268e-05
5.92221e-06
1.66258e-06
3.75592e-07
2.71562e-08
2.29855e-07
1.28649e-07
2.53037e-09
2.44041e-09
2.45748e-09
2.56085e-09
3.67422e-09
1.60709e-08
6.92597e-08
5.36217e-07
0.072297
0.146839
0.153407
0.153221
0.100555
0.00794615
0.00109854
0.000710849
0.000918475
0.000297104
4.11983e-05
4.26076e-05
9.68773e-06
6.75208e-06
5.47434e-06
7.11143e-05
5.21088e-06
0.82521
0.821072
0.419083
0.051485
0.0429327
0.27119
0.29371
0.202948
0.00107098
9.65468e-05
-7.91381e-06
-3.81544e-07
1.51997e-08
1.51137e-08
3.66366e-09
3.58501e-09
2.85206e-09
2.78978e-09
4.13073e-09
6.15249e-09
2.38597e-08
1.0363e-06
1.32305e-05
0.142821
0.1534
0.153387
0.153532
0.015526
0.00101647
0.000463343
0.00026177
0.000252775
0.000152066
2.46311e-05
2.42921e-05
8.07283e-06
7.52277e-06
3.54184e-05
7.19442e-05
1.15445e-05
0.854473
0.702805
0.045605
0.0604019
0.0900668
0.29371
0.29371
0.29371
0.225641
0.000822882
-5.48795e-05
3.70016e-07
1.72762e-09
5.03342e-09
3.72264e-09
3.58408e-09
3.32489e-09
3.41913e-09
9.97447e-09
1.60133e-08
-1.0297e-07
2.73563e-06
4.55296e-05
0.0905497
0.151251
0.153531
0.0752815
0.00136424
0.000341792
0.00019469
7.5521e-05
9.84643e-05
3.53552e-05
1.27909e-05
9.54527e-06
8.76361e-06
8.37364e-06
7.33786e-05
7.26614e-05
6.34604e-06
0.878457
0.485333
0.0249125
0.0465437
0.202624
0.291132
0.232168
0.270892
0.642774
0.307641
0.000333247
1.2036e-05
5.61274e-07
7.02404e-09
5.01713e-09
3.78339e-09
3.40423e-09
4.28011e-09
5.95754e-08
1.94775e-07
-5.12532e-07
4.74834e-06
0.00014718
0.0706857
0.147021
0.151808
0.00925771
0.000467558
0.000119651
6.19453e-05
1.47773e-05
3.16136e-05
6.07383e-05
0.000230774
9.47177e-05
9.50853e-06
4.56444e-05
7.32879e-05
2.42737e-05
-9.93248e-23
0.832377
0.16047
0.0158379
0.054918
0.277302
0.285573
0.0131578
0.216581
0.669094
0.680696
0.00241653
0.000158969
-1.06031e-05
5.74221e-07
4.70373e-08
8.19082e-09
4.32092e-09
8.95132e-09
2.9144e-07
1.30041e-06
1.54692e-06
-1.6057e-05
0.000350362
0.119917
0.141999
0.0907819
0.00750277
0.000211954
3.72296e-05
1.22407e-05
2.42176e-06
1.23323e-05
0.000180003
0.00142255
0.00159205
0.000389018
0.0001297
1.18e-06
4.98229e-08
1.30615e-24
0.70539
0.0158571
0.0112058
0.051699
0.253982
0.16844
0.00897118
0.0406771
0.529955
0.826961
0.432764
0.000590755
5.22187e-05
5.16728e-06
5.81337e-07
6.84424e-08
1.47176e-08
3.71548e-06
1.40798e-06
9.9374e-06
3.77588e-05
0.000142018
0.0462674
0.132608
0.140996
0.00853989
0.000365629
4.99322e-05
8.8979e-06
3.30054e-06
6.87733e-07
2.40303e-06
0.00105772
0.00159988
0.00159366
0.00162884
0.000383851
2.09412e-06
1.01547e-07
0
0.523919
0.0111595
0.0089724
0.0475837
0.113245
0.0148683
0.00828886
0.00897057
0.247078
0.843752
0.884449
0.0552125
0.000296093
0.000266456
8.59866e-06
3.43439e-07
1.24345e-07
4.3907e-05
2.52174e-05
3.75519e-05
0.000215754
0.000929065
0.114549
0.123705
0.0981767
0.00975005
0.000186296
1.36227e-05
2.30997e-06
4.93426e-07
2.61876e-07
6.07476e-07
0.00154239
0.00158448
0.00159499
0.00160547
0.000798878
3.37884e-06
1.51641e-07
-8.8254e-10
0.347049
0.00881787
0.00839138
0.0237469
0.00926801
0.00817104
0.00825245
0.0084326
0.0601205
0.806382
0.9423
0.573075
0.0291322
0.00158941
5.55965e-06
1.63709e-06
3.43565e-07
4.10492e-05
6.68881e-05
0.00015698
0.000710359
0.0168804
0.114138
0.121257
0.00725096
0.000311462
3.62437e-05
3.01479e-06
4.2532e-07
1.51039e-07
1.92852e-07
2.47998e-07
0.000949772
0.00159628
0.00160394
0.0016043
0.000602945
2.27646e-06
9.3276e-08
-2.47456e-10
0.177185
0.00839101
0.00768782
0.00743121
0.00757261
0.00819154
0.00824968
0.00865438
0.0112267
0.631355
0.942302
0.877494
0.180678
0.00295939
1.32155e-05
6.87553e-06
1.41126e-06
1.08668e-05
9.5031e-05
0.000624644
0.00650667
0.0853417
0.106264
0.0857625
0.00676308
0.00015124
8.92688e-06
8.83794e-07
1.00082e-07
2.20551e-08
1.68027e-07
1.92852e-07
6.64024e-06
0.00157638
0.00159499
0.0013119
0.000137249
7.71025e-07
3.0469e-08
-1.75342e-10
0.157033
0.00846621
0.00838582
0.00798459
0.00824433
0.00824296
0.00824884
0.00823704
0.00834378
0.544125
0.946482
0.941024
0.348398
0.00264417
3.50472e-05
1.37331e-05
1.0558e-05
8.93953e-05
0.000587436
0.00555925
0.0716996
0.0962792
0.102551
0.00564974
0.000272595
3.01241e-05
1.74864e-06
9.78209e-08
1.9182e-08
1.30403e-08
2.07108e-07
2.13108e-07
2.21014e-07
0.000484889
0.000966901
0.000268338
1.17658e-05
1.74562e-07
6.277e-09
-6.18883e-25
0.19551
0.00857174
0.00840996
0.00857863
0.00823324
0.00825368
0.00814293
0.00823521
0.00824009
0.601209
0.955334
0.948999
0.433045
0.00339942
0.000148012
3.48154e-05
8.84083e-05
0.000585361
0.00586988
0.0679091
0.0901194
0.0911967
0.0700147
0.00535257
0.00013465
7.73208e-06
4.8341e-07
3.21055e-08
1.25315e-08
1.22515e-08
2.62696e-07
2.11027e-07
2.51735e-07
2.20872e-06
4.16742e-05
4.97435e-06
7.22943e-07
4.61345e-08
3.41694e-09
2.96609e-10
0.319838
0.00849134
0.00847451
0.00850023
0.00844926
0.00811529
0.0082236
0.00817279
0.00829452
0.792559
0.961286
0.955406
0.421718
0.00325828
0.00107275
0.000147472
0.000631991
0.00909179
0.0690373
0.0881705
0.0884266
0.0901194
0.00776308
0.000285082
3.07549e-05
1.5047e-06
4.08093e-08
1.14086e-08
1.22211e-08
1.22562e-08
3.85333e-08
5.96863e-08
9.13821e-06
3.85786e-05
2.39054e-05
1.49772e-06
6.92465e-08
7.20139e-09
3.23958e-09
3.14121e-08
0.607212
0.0464525
0.00819711
0.00830767
0.00826727
0.00818559
0.00822937
0.0081968
0.338423
0.953502
0.96273
0.961366
0.215464
0.00365806
0.00190375
0.000851804
0.0139964
0.076845
0.089781
0.0884466
0.0881705
0.0623141
0.00472598
0.000145115
1.19859e-05
6.41848e-07
1.75317e-08
7.78386e-09
1.33826e-08
1.22515e-08
3.33279e-06
4.4328e-05
5.5398e-05
5.30632e-05
3.67853e-05
2.16497e-06
1.0836e-08
3.23779e-09
2.91325e-09
9.86828e-08
0.934414
0.607222
0.243427
0.0102039
0.00827707
0.00830045
0.00827503
0.147454
0.861583
0.977656
0.970069
0.724354
0.0785427
0.00920541
0.00409569
0.0304585
0.0924021
0.091018
0.0892499
0.0892482
0.0696295
0.0010772
0.000314178
0.000250031
0.000147581
3.04962e-05
-8.35365e-09
1.84068e-09
9.90584e-09
2.29155e-08
1.53026e-05
5.5398e-05
5.5398e-05
4.31331e-05
1.46056e-05
4.86756e-07
3.70071e-09
2.95086e-09
2.95227e-09
5.99675e-08
0.998335
0.993472
0.91467
0.642904
0.451757
0.404479
0.575292
0.91741
0.989596
0.981867
0.977726
0.321352
0.0270373
0.0173275
0.0558086
0.0905508
0.091932
0.0905508
0.0904378
0.0666886
0.000888694
0.000301969
0.000222597
0.000433421
0.000443891
7.56772e-05
-6.84912e-09
8.57887e-10
1.88128e-09
2.09468e-08
9.48142e-06
5.35874e-05
5.5398e-05
6.36061e-06
6.08986e-08
3.18093e-09
2.73909e-09
5.21626e-09
1.35463e-07
2.42091e-08
0.99961
0.999035
0.998266
0.997574
0.988237
0.985047
0.996322
0.994578
0.993674
0.989596
0.583672
0.0593421
0.0414117
0.065781
0.0904013
0.090324
0.0905508
0.0895789
0.0555065
0.000549494
0.000106088
0.000190032
0.000167926
0.000439931
0.000430656
3.46315e-05
2.39483e-11
6.06562e-11
8.62203e-10
1.48857e-07
2.29828e-06
6.65137e-06
1.03332e-05
8.0363e-08
8.23146e-09
2.74139e-09
2.6139e-09
1.00511e-08
2.65169e-07
3.22717e-08
0.999687
0.999529
0.999032
0.998618
0.998479
0.997336
0.997162
0.996322
0.968619
0.648617
0.0713651
0.0552104
0.059478
0.0871745
0.0885708
0.0900971
0.0860195
0.0350833
0.000241787
8.49224e-05
0.000127188
0.000159595
0.000158618
0.000304312
9.06454e-05
-1.2703e-12
-4.3529e-18
2.37484e-11
4.68776e-09
4.38916e-08
2.69564e-08
5.61003e-08
7.04397e-08
1.16177e-08
3.03947e-09
2.59232e-09
2.61962e-09
2.68828e-09
2.65169e-07
1.91862e-08
0.999529
0.999134
0.99895
0.998819
0.998609
0.998479
0.990002
0.887631
0.352547
0.0546333
0.0519578
0.0746204
0.0831696
0.0857869
0.0877476
0.0618325
0.00441065
4.2377e-05
5.71607e-06
4.76644e-05
0.000109662
0.00020179
4.19582e-05
5.78391e-05
-8.75055e-13
-1.73743e-11
-5.56446e-18
5.29016e-11
8.50451e-10
1.5235e-09
2.67869e-09
6.34762e-09
7.73514e-09
5.59954e-09
4.61876e-09
3.20551e-09
6.76256e-08
9.36234e-07
2.14988e-07
7.0696e-29
0.741256
0.866725
0.9285
0.907609
0.85532
0.744621
0.492221
0.118215
0.0546333
0.0489779
0.0475657
0.0609014
0.0693426
0.0519531
0.00936562
-3.09688e-05
1.98126e-06
-1.2577e-06
1.16468e-05
3.79657e-05
0.000239982
0.000282428
7.17133e-06
2.58174e-12
0
-1.03824e-11
-2.217e-11
8.71057e-12
1.38579e-10
3.37177e-10
9.03463e-10
1.49432e-09
2.35365e-09
4.80082e-09
5.42174e-09
4.61997e-09
1.06815e-08
1.06187e-06
8.40548e-08
1.186e-26
0.0905492
0.179235
0.30565
0.290707
0.220771
0.167423
0.164981
0.146825
0.0690428
0.0436061
0.0273676
0.010462
0.000133497
3.38437e-05
7.84523e-06
2.47916e-06
8.9786e-07
1.34369e-06
8.9658e-06
0.000217481
0.000244391
0.000236102
3.38471e-11
7.64067e-12
4.87102e-11
4.74717e-11
2.44749e-11
3.52079e-11
2.4984e-10
5.86597e-10
8.20993e-10
9.82738e-10
1.58347e-09
2.24859e-09
3.29025e-09
4.81408e-07
3.57516e-06
4.37272e-07
3.04056e-10
2.74785e-10
0.000143466
0.000138118
0.00501148
0.0265858
0.0603115
0.0588986
0.0420379
0.0314537
0.0388495
0.0299542
0.00125332
-2.05003e-05
8.52732e-06
1.00469e-05
1.99684e-06
9.09745e-07
7.37396e-07
1.05001e-06
7.89821e-05
0.000172399
0.000116697
1.47973e-09
2.4286e-10
3.4444e-11
2.47363e-10
5.0641e-10
5.08959e-10
5.25386e-10
5.28587e-10
5.42828e-10
5.51332e-10
6.00166e-10
8.11212e-10
2.19701e-09
1.44341e-08
4.60382e-06
3.772e-06
6.94673e-10
5.33037e-10
1.32495e-09
1.22072e-06
1.63896e-07
2.36307e-08
4.55165e-05
0.00109739
-4.52904e-08
-2.66107e-10
-3.00782e-13
-5.78861e-15
1.819e-09
6.01391e-07
4.66605e-07
1.73108e-06
3.58526e-05
3.94565e-05
5.48177e-06
3.14994e-07
2.80484e-06
3.18599e-05
1.7035e-05
3.03076e-08
1.10879e-08
1.50658e-09
8.80968e-11
3.10519e-10
9.20456e-10
8.77131e-10
6.09074e-10
5.30115e-10
5.20071e-10
5.93746e-10
7.60082e-10
1.59664e-09
1.61727e-08
1.70587e-05
1.76067e-05
1.34953e-06
6.00223e-10
6.3014e-10
1.67984e-09
-9.21542e-08
5.90557e-10
-2.3622e-17
-1.0767e-15
-1.20475e-10
-4.46259e-12
-6.96848e-16
-2.12283e-12
-5.15479e-13
3.23414e-25
1.819e-09
1.01983e-05
0.000104871
0.000112665
0.000103778
6.28748e-06
8.18462e-08
6.3144e-06
9.81985e-08
7.48914e-08
4.7596e-08
3.02644e-08
6.2437e-09
1.88458e-09
3.72283e-10
9.0452e-10
8.64447e-10
6.04835e-10
5.47943e-10
1.30246e-10
-7.18178e-09
4.34601e-07
6.47385e-05
0.000125793
4.45308e-05
1.375e-08
6.0029e-10
5.9729e-10
8.3076e-10
1.66645e-09
5.18082e-11
-1.57379e-10
-8.00201e-10
-6.9497e-10
-2.92516e-10
-9.37024e-11
-2.62031e-11
-5.78377e-12
-1.01664e-12
0
1.6266e-08
0.000145372
0.000143566
0.000109286
2.21577e-06
5.54785e-08
4.16261e-08
1.2906e-06
7.03743e-08
4.1208e-07
1.44535e-07
1.36426e-07
9.91537e-08
2.49731e-08
1.60382e-09
7.81633e-10
2.60166e-10
1.76571e-09
8.331e-09
9.8336e-07
5.1758e-05
0.000145327
0.000141836
0.000132401
3.80533e-06
7.08827e-10
5.97543e-10
5.91697e-10
8.83124e-10
1.6238e-09
)
;

boundaryField
{
    leftWall
    {
        type            zeroGradient;
    }
    rightWall
    {
        type            zeroGradient;
    }
    lowerWall
    {
        type            zeroGradient;
    }
    atmosphere
    {
        type            inletOutlet;
        inletValue      nonuniform 0();
        value           nonuniform 0();
    }
    defaultFaces
    {
        type            empty;
    }
    procBoundary1to0
    {
        type            processor;
        value           nonuniform List<scalar> 
44
(
0.998397
1
1
1
1
1
1
1
1
0.99998
0.924896
0.216913
2.06977e-05
2.70777e-05
9.64979e-05
0.000104036
0.00217717
0.0212687
0.171825
0.451235
0.960607
0.960607
0.963984
0.975413
0.985244
0.995493
0.99755
0.999284
0.999785
0.999879
0.999903
0.999911
0.999913
0.999912
0.962205
0.581112
0.191463
0.0820822
0.00748056
9.16704e-05
7.09836e-06
5.42121e-07
3.74056e-08
2.50304e-09
)
;
    }
    procBoundary1to3
    {
        type            processor;
        value           nonuniform List<scalar> 
45
(
1.94119e-10
1.61928e-10
1.50488e-10
9.21393e-11
6.92268e-10
2.66035e-10
-2.38372e-13
-4.58333e-12
-9.42563e-11
-7.56849e-11
-3.67653e-11
-1.20855e-11
-5.04914e-13
-2.09499e-14
-1.87377e-09
6.07408e-05
0.000156899
0.000119534
1.06768e-07
1.14002e-08
5.51854e-08
8.79449e-09
9.38399e-09
1.83796e-08
2.30344e-06
1.02456e-05
2.21003e-05
3.42523e-05
1.28963e-05
1.75516e-07
1.21745e-08
4.91296e-07
7.60349e-06
9.07203e-05
0.000153928
0.000152097
0.000150232
9.64842e-05
1.34416e-08
8.1659e-10
8.18662e-10
1.30881e-09
4.514e-10
8.7542e-10
1.51755e-09
)
;
    }
}


// ************************************************************************* //
