/*--------------------------------*- C++ -*----------------------------------*\
| =========                 |                                                 |
| \\      /  F ield         | OpenFOAM: The Open Source CFD Toolbox           |
|  \\    /   O peration     | Version:  5.0                                   |
|   \\  /    A nd           | Web:      www.OpenFOAM.org                      |
|    \\/     M anipulation  |                                                 |
\*---------------------------------------------------------------------------*/
FoamFile
{
    version     2.0;
    format      ascii;
    class       volScalarField;
    location    "1";
    object      epsilon;
}
// * * * * * * * * * * * * * * * * * * * * * * * * * * * * * * * * * * * * * //

dimensions      [0 2 -3 0 0 0 0];

internalField   nonuniform List<scalar> 
1915
(
0.219355
0.0368927
0.183841
0.113575
0.265456
0.252282
0.404396
0.45595
0.610799
0.744166
0.908165
1.16637
1.3353
1.80671
1.9556
2.83792
2.86103
4.69682
4.13436
10.438
0.698137
0.907426
1.24754
1.84502
2.51082
3.21422
3.92231
4.59989
5.22586
5.79787
6.32896
6.8406
7.35672
7.90691
8.45351
8.97818
9.4659
9.90365
10.2752
10.5592
10.7319
10.766
10.6262
10.3093
9.8578
9.25375
8.50781
7.6066
6.54298
5.37376
4.3099
3.38814
2.67564
2.15433
1.74795
1.37994
1.02958
0.715866
0.427904
0.158795
1.16939
1.17243
1.63261
1.98052
2.21424
2.38111
2.5265
2.66691
2.80911
2.95694
3.11219
3.27613
3.4507
3.64282
3.83865
4.03015
4.21129
4.37567
4.51579
4.62275
4.68704
4.69979
4.65359
4.54415
4.37151
4.13413
3.8335
3.46992
3.04805
2.58844
2.13571
1.73332
1.41245
1.16498
0.96576
0.791549
0.635998
0.492968
0.356334
0.301044
2.07973
1.56553
1.8066
1.97586
2.06045
2.11032
2.16238
2.22727
2.30731
2.40199
2.50982
2.63008
2.76271
2.90778
3.05896
3.21194
3.36262
3.5062
3.63644
3.74543
3.82411
3.86382
3.85771
3.80011
3.686
3.51321
3.2826
2.99512
2.65557
2.27863
1.89443
1.54117
1.24941
1.02624
0.849061
0.698124
0.566472
0.450873
0.35402
0.410892
3.09813
1.88915
1.89511
1.94454
1.9726
1.99305
2.023
2.06881
2.13206
2.21184
2.30663
2.41606
2.54018
2.67789
2.8255
2.98012
3.13893
3.29813
3.45181
3.59168
3.70719
3.78667
3.81913
3.79526
3.70903
3.55727
3.34013
3.05987
2.72269
2.34281
1.9454
1.56934
1.25527
1.01633
0.832279
0.680077
0.551234
0.443416
0.363716
0.464483
4.02005
2.14539
1.96026
1.92933
1.92937
1.94084
1.96584
2.00757
2.06674
2.14225
2.23305
2.34034
2.46535
2.6072
2.76333
2.93205
3.11209
3.30084
3.49254
3.67814
3.84518
3.97793
4.05958
4.0753
4.01582
3.87443
3.65129
3.35051
2.98167
2.56313
2.1203
1.69293
1.33129
1.05935
0.857343
0.697029
0.565233
0.456629
0.380468
0.472478
4.73301
2.33847
2.01688
1.93377
1.91745
1.92655
1.9534
1.99762
2.0571
2.13047
2.21898
2.32649
2.45557
2.6056
2.77466
2.96239
3.16973
3.39594
3.6358
3.87952
4.11344
4.31708
4.46434
4.53359
4.51045
4.38178
4.14681
3.81231
3.39131
2.90673
2.39148
1.89078
1.4624
1.14446
0.917432
0.745203
0.607449
0.491767
0.408876
0.47274
5.35158
2.48663
2.06944
1.95455
1.9304
1.94237
1.97586
2.02539
2.08411
2.15101
2.23558
2.34419
2.47826
2.63704
2.81945
3.02682
3.26239
3.5282
3.82149
4.13313
4.45064
4.74975
4.98916
5.13524
5.16574
5.05859
4.8111
4.43445
3.94686
3.37743
2.76778
2.17146
1.65655
1.27859
1.02091
0.836757
0.694557
0.568397
0.460392
0.460067
5.93631
2.61031
2.12208
1.99096
1.96756
1.98833
2.0315
2.08209
2.12983
2.18634
2.26768
2.37801
2.51689
2.68333
2.87784
3.10355
3.36526
3.66699
4.00896
4.38589
4.78883
5.20201
5.58451
5.85843
5.97519
5.90545
5.64706
5.22164
4.65488
3.98567
3.26601
2.55675
1.9362
1.48293
1.19002
0.99952
0.864091
0.741407
0.596716
0.467851
6.57558
2.73033
2.18086
2.04529
2.03058
2.06406
2.1116
2.14637
2.17654
2.2279
2.30959
2.42171
2.56359
2.73553
2.93987
3.18117
3.46547
3.79841
4.18202
4.61494
5.09331
5.61211
6.1522
6.63676
6.91998
6.9254
6.664
6.18589
5.52783
4.74497
3.90529
3.07547
2.33612
1.79488
1.46417
1.28079
1.17613
1.0878
0.955286
0.754374
7.43416
2.85045
2.24906
2.11854
2.11647
2.15625
2.18676
2.19988
2.22715
2.28078
2.36385
2.47544
2.61657
2.78982
2.99956
3.25159
3.55288
3.91134
4.33071
4.81374
5.36277
5.97827
6.65411
7.36203
7.92009
8.08287
7.85876
7.34152
6.5799
5.66895
4.70422
3.76041
2.90211
2.26503
1.89455
1.73468
1.699
1.69341
1.60005
1.56722
4.88085
6.70621
5.86028
6.46246
7.29398
7.44714
8.67683
8.74606
10.0257
7.7746
8.55021
6.67872
7.18344
5.74661
6.20479
5.02933
5.4893
4.49337
4.96894
4.09838
3.8127
3.61247
3.48026
3.40382
3.3761
3.39412
3.45666
3.56207
3.70757
3.88872
4.09721
4.31775
4.52544
4.68657
4.76586
4.73167
4.56502
4.28675
3.91449
3.42102
2.90069
2.41131
1.97462
16.6647
8.97464
5.05244
6.34392
7.27639
5.77412
4.66571
4.488
7.12134
5.30286
4.23532
3.68323
6.55103
4.81326
3.7788
3.19421
5.75308
4.31138
3.40448
2.88696
5.04348
3.88058
3.12266
2.6977
4.46464
3.53435
2.91661
2.58144
4.0109
3.26316
2.76601
2.50657
3.66263
3.05344
2.65271
2.45309
3.39944
2.89312
2.56477
2.40965
3.20409
2.77089
2.49536
2.37112
3.06318
2.67997
2.44148
2.33697
2.96717
2.61646
2.40217
2.30945
2.9105
2.57837
2.37777
2.29151
2.89077
2.56598
2.3706
2.28603
2.90851
2.58223
2.38426
2.29514
2.96623
2.6312
2.42265
2.32204
3.06581
2.71681
2.49077
2.37238
3.20868
2.84372
2.59517
2.4527
3.39515
3.01646
2.74326
2.57159
3.62167
3.23654
2.94099
2.73799
3.87691
3.49792
3.18817
2.95722
4.13793
3.78168
3.47169
3.22342
4.36948
4.05413
3.7611
3.51115
4.53095
4.27279
4.01427
3.78125
4.58976
4.40123
4.1943
3.99435
4.52972
4.42344
4.2757
4.11798
4.35455
4.32594
4.24167
4.13742
4.05514
4.09006
4.08014
4.04944
3.57375
3.68879
3.77566
3.83687
3.04939
3.18407
3.30384
3.39399
2.54877
2.67306
2.7798
2.86288
2.09676
2.20582
2.30094
2.38051
5.13222
2.80262
2.30991
2.20201
2.20707
2.23352
2.24715
2.26493
2.30193
2.35913
2.43873
2.54369
2.67778
2.846
3.0547
3.3107
3.62067
3.99559
4.4422
4.96851
5.58211
6.28668
7.08487
7.967
8.81487
9.28594
9.17553
8.68565
7.83339
6.77686
5.68392
4.65067
3.69041
2.94703
2.52329
2.38847
2.47818
2.68273
2.68721
2.85588
3.89272
2.69777
2.35205
2.27236
2.27691
2.30312
2.33705
2.37866
2.42509
2.47797
2.54487
2.63412
2.75214
2.90635
3.10552
3.35717
3.6622
4.04091
4.50641
5.06752
5.73306
6.5105
7.40883
8.42575
9.5092
10.4093
10.5932
10.1192
9.27616
8.08509
6.85678
5.76883
4.75995
3.88542
3.35596
3.1891
3.42271
3.9383
4.04759
4.65395
3.21522
2.58758
2.36942
2.32468
2.35519
2.42253
2.50224
2.5729
2.62226
2.65666
2.69588
2.75704
2.84684
2.97479
3.15314
3.38593
3.67165
4.04743
4.52306
5.10738
5.80912
6.6385
7.61261
8.74893
10.0412
11.3727
12.1264
11.6754
10.7562
9.53857
8.18598
7.05541
6.09907
5.09231
4.37652
4.01648
4.14576
4.51058
4.5233
4.91471
2.83084
2.49969
2.38428
2.39937
2.49459
2.63614
2.78433
2.89224
2.93267
2.92207
2.90799
2.91227
2.94922
3.03292
3.17584
3.38198
3.65587
4.02236
4.49859
5.09459
5.82349
6.68982
7.71559
8.94693
10.4214
12.1282
13.7084
13.5217
12.3857
11.0424
9.60277
8.40336
7.54443
6.35615
5.52612
4.74892
4.66784
4.84623
4.94083
5.92996
2.61707
2.45087
2.43047
2.52964
2.72339
2.98166
3.24248
3.40752
3.41597
3.28481
3.14385
3.04431
3.01266
3.05069
3.16371
3.34739
3.6047
3.95784
4.42859
5.03416
5.79305
6.69143
7.74519
9.03721
10.6452
12.6943
15.1054
15.7615
14.2867
12.6891
11.123
9.83236
8.7988
7.335
6.27239
5.36859
5.1667
5.23752
5.46461
7.26501
2.50639
2.44621
2.51788
2.72096
3.05448
3.50126
3.96538
4.22061
4.00034
3.5985
3.3071
3.12384
3.03794
3.03963
3.12498
3.28671
3.52712
3.86589
4.32055
4.91326
5.67305
6.61171
7.73107
9.04646
10.6912
13.0343
16.2041
17.745
16.2481
14.4318
12.7192
11.3877
10.0816
8.35393
6.88577
5.97609
5.7313
5.71763
6.03786
8.70533
2.4549
2.47355
2.63395
2.9567
3.47706
4.22594
5.02318
4.88861
4.32313
3.83422
3.44128
3.1817
3.04553
3.01487
3.07526
3.21678
3.44097
3.7625
4.19754
4.76862
5.50804
6.45875
7.67704
9.0147
10.5048
12.8693
16.0382
18.4472
17.8372
15.9587
14.1846
12.8928
11.5402
9.4589
7.61374
6.63083
6.35812
6.27165
6.6322
10.2156
2.43259
2.51223
2.74974
3.18702
3.91105
5.08129
5.40246
5.00132
4.69816
4.12116
3.61089
3.25938
3.06457
2.99646
3.03055
3.15194
3.35852
3.65992
4.07047
4.61217
5.31914
6.24238
7.47383
8.95923
10.1063
12.0291
14.6619
17.4948
18.4225
16.8906
15.2393
14.0058
12.6836
10.385
8.35939
7.27869
6.93361
6.83985
7.22211
11.7804
2.41877
2.5395
2.82397
3.31648
4.09209
4.88398
5.26842
4.87334
4.93845
4.46337
3.81878
3.37272
3.11334
3.00174
3.00469
3.10309
3.28971
3.56852
3.95018
4.45353
5.1073
5.95283
7.07362
8.31886
9.37517
10.9492
13.2297
15.8713
17.8855
16.9716
15.655
14.4956
13.0657
10.9143
8.95015
7.83677
7.40746
7.31002
7.762
13.3808
2.40108
2.53966
2.82784
3.28491
3.8463
4.23003
4.31574
4.29234
4.55717
4.45275
3.93643
3.49449
3.19514
3.04158
3.00873
3.07959
3.24385
3.49965
3.8523
4.31575
4.91031
5.67046
6.50545
7.34498
8.42917
9.92233
11.9768
14.4658
16.6981
16.4161
15.3897
14.3673
12.9094
11.0194
9.30902
8.25798
7.79402
7.68799
8.2964
15.1199
2.3757
2.51125
2.76526
3.11298
3.45003
3.62659
3.66415
3.69563
3.87221
4.03374
3.90915
3.60077
3.30964
3.1229
3.04992
3.08878
3.22992
3.46501
3.79242
4.21756
4.74529
5.37444
5.98516
6.67737
7.6746
9.05993
10.945
13.3533
15.5517
15.5371
14.7093
13.7888
12.4516
10.8608
9.44986
8.524
8.07787
8.00524
8.81177
16.8702
2.34585
2.4668
2.6724
2.91049
3.11324
3.19332
3.21169
3.24185
3.35152
3.53408
3.7433
3.66916
3.45127
3.24899
3.13083
3.13272
3.2513
3.46963
3.77493
4.16086
4.61688
5.11324
5.58436
6.19417
7.09738
8.36451
10.0917
12.3338
14.2412
14.4677
13.8589
13.0117
11.8547
10.5585
9.41947
8.63856
8.24792
8.24007
9.23547
18.2772
2.31833
2.4244
2.58795
2.75072
2.85499
2.89468
2.91396
2.93961
3.01901
3.17803
3.43116
3.64966
3.59575
3.41109
3.24702
3.2093
3.30888
3.51582
3.80097
4.14388
4.52467
4.90818
5.28958
5.83691
6.65793
7.81416
9.39208
11.3453
12.9696
13.409
12.9712
12.1985
11.2174
10.175
9.25953
8.61681
8.29973
8.37434
9.52466
19.2468
2.30008
2.40084
2.53955
2.63407
2.67174
2.7016
2.74019
2.76097
2.81729
2.95298
3.1851
3.50735
3.69008
3.58234
3.38431
3.31288
3.40315
3.60652
3.8727
4.16656
4.46683
4.75321
5.06961
5.57382
6.33098
7.39494
8.8301
10.5657
12.0019
12.4325
12.091
11.4078
10.5856
9.74562
9.00692
8.48112
8.2406
8.39451
9.65416
19.776
2.29506
2.40477
2.52372
2.54335
2.55086
2.58629
2.65346
2.67727
2.70783
2.81791
3.01709
3.31906
3.66298
3.71579
3.52268
3.4369
3.53597
3.74534
3.99143
4.22907
4.43817
4.63007
4.91181
5.38801
6.09885
7.09603
8.43642
9.99102
11.1396
11.495
11.2239
10.644
9.96324
9.28548
8.69071
8.26006
8.08131
8.29199
9.61123
19.8693
2.29962
2.4096
2.50401
2.47825
2.47929
2.52957
2.609
2.64964
2.66276
2.74992
2.9167
3.16548
3.49966
3.76204
3.65188
3.57825
3.70868
3.92945
4.14535
4.31149
4.41784
4.54451
4.80996
5.26601
5.9445
6.89115
8.13926
9.45335
10.325
10.5813
10.3617
9.89145
9.34081
8.79988
8.32476
7.97664
7.84175
8.07282
9.38809
19.4704
2.31265
2.39636
2.45791
2.43547
2.44631
2.5058
2.59128
2.6521
2.66413
2.73407
2.87549
3.08554
3.36544
3.69535
3.76732
3.73427
3.91378
4.14288
4.3011
4.36907
4.38775
4.48639
4.74838
5.19458
5.85439
6.77113
7.89849
8.90889
9.52471
9.68602
9.50714
9.14406
8.71674
8.29331
7.9178
7.63972
7.537
7.75355
8.99305
18.5177
2.3429
2.38614
2.4114
2.40746
2.43845
2.50513
2.60367
2.67352
2.69827
2.75887
2.88239
3.06662
3.31971
3.65749
3.84036
3.89217
4.1353
4.35341
4.41416
4.35813
4.33437
4.44583
4.71669
5.16358
5.815
6.6894
7.63126
8.3641
8.76635
8.83932
8.68395
8.41137
8.09525
7.77148
7.4778
7.25602
7.16893
7.34476
8.4585
17.1245
2.39774
2.40876
2.41
2.41489
2.46294
2.54517
2.6481
2.7219
2.75845
2.81535
2.92559
3.09083
3.32748
3.67144
3.91788
4.06205
4.363
4.50869
4.41068
4.28494
4.28266
4.4223
4.70939
5.16642
5.82103
6.60714
7.31958
7.81964
8.05692
8.05901
7.91506
7.70688
7.47802
7.23877
7.01019
6.82829
6.73642
6.86371
7.83207
15.4887
2.48644
2.4771
2.46779
2.4756
2.53732
2.62705
2.72831
2.80442
2.84435
2.89565
2.99325
3.14103
3.36201
3.70727
3.99429
4.25789
4.55548
4.48067
4.28709
4.20133
4.24604
4.41652
4.72287
5.19264
5.83159
6.47929
6.97883
7.29272
7.40521
7.35275
7.21357
7.04525
6.87215
6.69421
6.51376
6.3543
6.25437
6.34093
7.16617
13.796
2.6174
2.58293
2.57858
2.59266
2.66344
2.75501
2.84856
2.92245
2.94841
2.99119
3.0749
3.20338
3.40357
3.73688
4.04946
4.45544
4.49713
4.28055
4.15241
4.13665
4.22799
4.429
4.75644
5.23875
5.80497
6.27486
6.60492
6.78173
6.80606
6.71644
6.58047
6.43601
6.29465
6.1505
6.0004
5.8564
5.75435
5.80967
6.5103
12.2094
2.79892
2.72257
2.71288
2.75711
2.84314
2.93891
3.01912
3.05084
3.05341
3.09192
3.16087
3.26701
3.43713
3.72272
4.06574
4.33796
4.20368
4.08778
4.05103
4.09762
4.23168
4.463
4.80512
5.26246
5.69829
6.0088
6.20947
6.28751
6.25135
6.1404
6.00884
5.88025
5.75782
5.63308
5.50095
5.36833
5.26585
5.2996
5.89976
10.8104
3.03458
2.92055
2.8816
2.91596
2.99356
3.07794
3.1356
3.141
3.15584
3.19004
3.24322
3.32466
3.45596
3.65745
3.93584
3.99838
3.96858
3.9552
3.99036
4.08859
4.26282
4.52715
4.86591
5.20047
5.47649
5.68192
5.79644
5.80677
5.73294
5.61355
5.48964
5.37443
5.26571
5.15397
5.03314
4.90793
4.80702
4.82955
5.35994
9.6599
3.30582
3.16624
3.09713
3.08991
3.12432
3.1735
3.21357
3.23501
3.25444
3.27951
3.31606
3.37307
3.46575
3.60582
3.73761
3.7997
3.83512
3.88465
3.97205
4.11414
4.32582
4.60303
4.86459
5.04897
5.20144
5.32623
5.37591
5.33935
5.24553
5.12829
5.0158
4.91374
4.81662
4.71465
4.60156
4.48184
4.38409
4.40068
4.87632
8.69211
3.57822
3.42558
3.33263
3.29116
3.28668
3.30195
3.31985
3.3318
3.34143
3.3539
3.37468
3.41114
3.47315
3.5573
3.63823
3.70698
3.77709
3.86816
3.99707
4.17687
4.40262
4.60935
4.75639
4.84358
4.91329
4.96389
4.95581
4.88862
4.78752
4.68107
4.58279
4.4938
4.40696
4.31268
4.20541
4.09067
3.99706
4.0099
4.43815
7.84091
3.80804
3.65504
3.54733
3.4803
3.44449
3.42823
3.41911
3.41219
3.40775
3.40734
3.41489
3.4361
3.47612
3.5328
3.60093
3.67941
3.7752
3.8999
4.06443
4.2537
4.40854
4.5162
4.57938
4.60617
4.61644
4.60103
4.54723
4.46322
4.36505
4.27157
4.18768
4.11075
4.03264
3.94441
3.84192
3.73209
3.64306
3.65284
4.03785
7.07571
3.95966
3.81692
3.70321
3.61888
3.55931
3.51686
3.48499
3.46113
3.44412
3.43353
3.43174
3.44544
3.47838
3.53077
3.60318
3.69801
3.81941
3.97316
4.13985
4.24845
4.30949
4.34118
4.35465
4.34132
4.3036
4.24124
4.15996
4.06935
3.979
3.89859
3.82764
3.76081
3.68957
3.60603
3.5077
3.4028
3.31847
3.32534
3.6701
6.37875
4.01755
3.89235
3.77828
3.68344
3.60768
3.54683
3.49939
3.46442
3.43906
3.42436
3.42519
3.44568
3.48681
3.54836
3.63656
3.75476
3.89256
4.02656
4.10158
4.13148
4.12896
4.11499
4.09513
4.05052
3.97902
3.89135
3.79831
3.70833
3.62809
3.55967
3.49934
3.44022
3.37395
3.29397
3.19944
3.09956
3.02
3.02412
3.33126
5.73964
3.98021
3.87703
3.76326
3.6612
3.57572
3.5065
3.45318
3.41584
3.39362
3.38854
3.40592
3.44627
3.5081
3.58558
3.69147
3.80485
3.89241
3.94085
3.95197
3.93532
3.90269
3.86234
3.8129
3.74307
3.65383
3.55721
3.46359
3.37965
3.30989
3.25159
3.19923
3.14538
3.0824
3.00517
2.91438
2.81981
2.74528
2.74712
3.01935
5.15228
3.84101
3.77026
3.65403
3.54492
3.45991
3.39941
3.35912
3.33553
3.32915
3.34445
3.38897
3.45524
3.52707
3.5939
3.66839
3.72283
3.75383
3.75772
3.73833
3.70199
3.65433
3.59483
3.52067
3.43405
3.33897
3.24375
3.15646
3.08178
3.02146
2.97097
2.92397
2.87322
2.81222
2.73739
2.65063
2.56201
2.49319
2.49365
2.73433
4.61746
3.44726
3.44152
3.39226
3.32961
3.27735
3.24996
3.24178
3.24705
3.26611
3.30667
3.36449
3.42031
3.46477
3.49621
3.52124
3.53974
3.54416
3.5291
3.49739
3.45159
3.39179
3.31715
3.23008
3.13731
3.04374
2.95524
2.87717
2.81221
2.75978
2.71478
2.67086
2.6215
2.5615
2.48907
2.40729
2.3259
2.26385
2.26421
2.47782
4.14189
2.92575
2.96884
2.99939
3.0166
3.02431
3.04086
3.06628
3.09717
3.13023
3.17332
3.21226
3.24863
3.27667
3.29586
3.30838
3.31408
3.30692
3.28368
3.24559
3.19272
3.12444
3.04268
2.95282
2.86143
2.77367
2.69389
2.62527
2.5688
2.52229
2.48065
2.43798
2.38884
2.32955
2.26021
2.18519
2.11249
2.05796
2.05973
2.25226
3.73711
2.45055
2.51313
2.57032
2.62314
2.67425
2.72301
2.77254
2.81961
2.86156
2.90355
2.94738
2.98974
3.0265
3.0542
3.07074
3.07421
3.06311
3.03643
2.99452
2.93724
2.86568
2.78351
2.69646
2.61071
2.53081
2.45984
2.39945
2.3495
2.30685
2.26677
2.22422
2.17517
2.11802
2.05379
1.98653
1.92263
1.87602
1.88115
2.06009
3.41865
)
;

boundaryField
{
    leftWall
    {
        Cmu             0.09;
        kappa           0.41;
        E               9.8;
        type            epsilonWallFunction;
        value           nonuniform 0();
    }
    rightWall
    {
        Cmu             0.09;
        kappa           0.41;
        E               9.8;
        type            epsilonWallFunction;
        value           nonuniform List<scalar> 
43
(
0.158795
0.301044
0.410892
0.464483
0.472478
0.47274
0.460067
0.467851
0.754374
1.56722
2.85588
4.65395
4.91471
5.92996
7.26501
8.70533
10.2156
11.7804
13.3808
15.1199
16.8702
18.2772
19.2468
19.776
19.8693
19.4704
18.5177
17.1245
15.4887
13.796
12.2094
10.8104
9.6599
8.69211
7.84091
7.07571
6.37875
5.73964
5.15228
4.61746
4.14189
3.73711
3.41865
)
;
    }
    lowerWall
    {
        Cmu             0.09;
        kappa           0.41;
        E               9.8;
        type            epsilonWallFunction;
        value           nonuniform List<scalar> 
66
(
0.219355
0.0368927
0.0368927
0.113575
0.252282
0.45595
0.744166
1.16637
1.80671
2.83792
4.69682
10.438
16.6647
8.97464
5.05244
6.34392
0.698137
1.16939
2.07973
3.09813
4.02005
4.73301
5.35158
5.93631
6.57558
7.43416
0.698137
0.907426
1.24754
1.84502
2.51082
3.21422
3.92231
4.59989
5.22586
5.79787
6.32896
6.8406
7.35672
7.90691
8.45351
8.97818
9.4659
9.90365
10.2752
10.5592
10.7319
10.766
10.6262
10.3093
9.8578
9.25375
8.50781
7.6066
6.54298
5.37376
4.3099
3.38814
2.67564
2.15433
1.74795
1.37994
1.02958
0.715866
0.427904
0.158795
)
;
    }
    atmosphere
    {
        type            inletOutlet;
        inletValue      nonuniform 0();
        value           nonuniform 0();
    }
    defaultFaces
    {
        type            empty;
    }
    procBoundary1to0
    {
        type            processor;
        value           nonuniform List<scalar> 
44
(
0.467088
0.291429
0.356176
0.494353
0.704102
0.999172
1.39952
1.92893
2.60596
3.41889
4.27733
5.27839
6.4941
7.53575
9.01089
9.2203
8.26093
7.30072
6.53508
5.96343
4.59944
4.59944
4.34651
4.18308
4.08959
4.05344
4.06672
4.1232
4.21629
4.3386
4.48213
4.63597
4.78367
4.90185
4.96215
4.93541
4.79205
4.52088
4.15745
3.72794
3.23633
2.73299
2.25805
1.83799
)
;
    }
    procBoundary1to3
    {
        type            processor;
        value           nonuniform List<scalar> 
45
(
1.60615
1.71328
1.80952
1.896
1.97301
2.04704
2.11749
2.1846
2.25035
2.31645
2.38267
2.44832
2.51061
2.56751
2.62155
2.67517
2.72761
2.77525
2.81208
2.83321
2.83781
2.82623
2.79841
2.75478
2.69614
2.62488
2.54569
2.46449
2.38642
2.3149
2.25182
2.19794
2.1525
2.11198
2.07247
2.03036
1.98299
1.92974
1.87178
1.81194
1.75675
1.71964
1.73177
1.90533
3.17599
)
;
    }
}


// ************************************************************************* //
