/*--------------------------------*- C++ -*----------------------------------*\
| =========                 |                                                 |
| \\      /  F ield         | OpenFOAM: The Open Source CFD Toolbox           |
|  \\    /   O peration     | Version:  5.0                                   |
|   \\  /    A nd           | Web:      www.OpenFOAM.org                      |
|    \\/     M anipulation  |                                                 |
\*---------------------------------------------------------------------------*/
FoamFile
{
    version     2.0;
    format      ascii;
    class       volScalarField;
    location    "1";
    object      k;
}
// * * * * * * * * * * * * * * * * * * * * * * * * * * * * * * * * * * * * * //

dimensions      [0 2 -2 0 0 0 0];

internalField   nonuniform List<scalar> 
1915
(
0.012124
0.00368844
0.0311376
0.0094173
0.0462543
0.0160331
0.0634756
0.0237764
0.0846549
0.0329174
0.111085
0.0443136
0.144104
0.0591324
0.185494
0.0795609
0.238995
0.110733
0.31075
0.187264
0.0255501
0.0304716
0.0377572
0.0490297
0.0602904
0.0711099
0.0812218
0.0903471
0.0984108
0.105546
0.112016
0.118124
0.124153
0.130428
0.136483
0.142142
0.147304
0.151881
0.15574
0.158697
0.160532
0.160974
0.159672
0.156653
0.152258
0.146093
0.138161
0.128167
0.115833
0.101351
0.087258
0.0740485
0.0630108
0.0543502
0.0471465
0.0401805
0.0330145
0.0258992
0.0183836
0.0105235
0.0450734
0.0852455
0.108569
0.125526
0.141027
0.156113
0.171572
0.186837
0.201297
0.214774
0.227469
0.239749
0.25191
0.263869
0.275551
0.286825
0.297476
0.307263
0.31585
0.322799
0.327619
0.329836
0.329025
0.324855
0.317164
0.305551
0.289861
0.269877
0.245551
0.217507
0.187749
0.159252
0.134836
0.115016
0.098419
0.083274
0.0680284
0.0525064
0.0369157
0.0181741
0.0661247
0.125034
0.151173
0.170427
0.188744
0.206955
0.225009
0.242228
0.258334
0.273474
0.288017
0.302373
0.316812
0.331281
0.345681
0.359801
0.373395
0.386164
0.397664
0.40729
0.414332
0.418094
0.418001
0.413549
0.404281
0.38981
0.370002
0.344669
0.313858
0.278332
0.240301
0.203142
0.170312
0.143583
0.121431
0.101894
0.0835144
0.065436
0.0468158
0.0223478
0.0862204
0.157386
0.184061
0.204538
0.22494
0.245014
0.264142
0.281991
0.298687
0.314581
0.330112
0.345717
0.361666
0.377931
0.39436
0.41074
0.426856
0.4424
0.456853
0.469473
0.479335
0.485437
0.486856
0.482802
0.472743
0.456277
0.433245
0.403588
0.367527
0.325963
0.280951
0.236125
0.195996
0.16301
0.136013
0.112872
0.0921793
0.0725839
0.0523755
0.0242328
0.102713
0.183858
0.211576
0.23308
0.254753
0.275805
0.295491
0.313756
0.330888
0.347294
0.363456
0.379924
0.397034
0.414775
0.432964
0.451434
0.470058
0.488568
0.506383
0.52263
0.536175
0.545664
0.549715
0.547152
0.537248
0.519392
0.493442
0.459484
0.418004
0.370251
0.318258
0.26568
0.217837
0.178313
0.146421
0.119979
0.0973561
0.0765339
0.055162
0.0244779
0.114598
0.205054
0.235054
0.257877
0.280454
0.302152
0.322365
0.341138
0.358621
0.375211
0.391623
0.408626
0.426629
0.445608
0.465357
0.485792
0.506948
0.528667
0.550341
0.57096
0.589248
0.603455
0.611488
0.611727
0.603156
0.58477
0.556381
0.518251
0.471066
0.416312
0.356445
0.295384
0.238942
0.192101
0.154795
0.124835
0.100237
0.0781684
0.0554072
0.0244535
0.124463
0.222155
0.255346
0.279954
0.303557
0.326058
0.347051
0.366407
0.383894
0.399957
0.416154
0.433476
0.452165
0.472119
0.493163
0.51534
0.538862
0.563766
0.589571
0.615219
0.639462
0.660211
0.674201
0.679024
0.673248
0.655359
0.625084
0.582951
0.529905
0.467683
0.399118
0.328478
0.262163
0.206728
0.163094
0.129191
0.102538
0.0791988
0.0551293
0.0239796
0.133476
0.236674
0.273427
0.300324
0.325407
0.34918
0.371203
0.39061
0.406898
0.421877
0.437782
0.455331
0.474529
0.495192
0.517277
0.540971
0.566588
0.594294
0.62378
0.654204
0.684486
0.713114
0.736783
0.749816
0.749153
0.733077
0.701484
0.655543
0.596564
0.526696
0.449144
0.368295
0.290938
0.225436
0.174324
0.136032
0.107481
0.0833825
0.0581041
0.0242742
0.143011
0.25046
0.290535
0.320091
0.347161
0.372534
0.394991
0.412617
0.426936
0.441318
0.457241
0.474953
0.4944
0.515504
0.538388
0.56335
0.59078
0.620938
0.653581
0.688092
0.723673
0.759516
0.793797
0.820717
0.830485
0.818786
0.786759
0.73737
0.672481
0.594997
0.50878
0.418126
0.32945
0.253033
0.193617
0.150992
0.121456
0.0974906
0.070966
0.0336835
0.15531
0.265611
0.307958
0.340135
0.369248
0.395432
0.416002
0.431137
0.445
0.459574
0.475626
0.493245
0.512536
0.533671
0.556968
0.582819
0.611663
0.64392
0.679388
0.717686
0.758376
0.800882
0.844131
0.885528
0.912497
0.910219
0.880551
0.829193
0.758515
0.673595
0.579617
0.480947
0.382316
0.295424
0.2278
0.181553
0.153063
0.130946
0.0998142
0.055052
0.396877
0.335655
0.486453
0.445133
0.580933
0.536176
0.658854
0.607049
0.715044
0.575147
0.656761
0.533148
0.598143
0.495854
0.554984
0.467468
0.523505
0.447385
0.501513
0.434105
0.426255
0.422705
0.42261
0.425407
0.430844
0.438923
0.449718
0.463223
0.479301
0.497652
0.517666
0.538244
0.557675
0.573725
0.584104
0.586711
0.580022
0.564721
0.541086
0.506213
0.466429
0.426226
0.387842
0.213187
0.140886
0.096019
0.112994
0.374244
0.281821
0.195312
0.166945
0.454823
0.323379
0.233864
0.206266
0.459675
0.335336
0.258142
0.239649
0.440836
0.337809
0.277742
0.268155
0.420985
0.33918
0.294921
0.2924
0.405073
0.341486
0.310099
0.312811
0.393927
0.34478
0.323255
0.329579
0.386979
0.3487
0.33426
0.342852
0.383363
0.35292
0.343182
0.352886
0.382308
0.357137
0.350273
0.360124
0.383246
0.361343
0.355958
0.365204
0.385841
0.365706
0.360736
0.368886
0.390021
0.370502
0.365134
0.371913
0.395916
0.376138
0.369767
0.374932
0.403839
0.383174
0.375285
0.378458
0.414194
0.392192
0.382294
0.383059
0.427272
0.403688
0.391421
0.38946
0.443269
0.418137
0.403337
0.398376
0.462226
0.435915
0.418677
0.410569
0.48384
0.457086
0.437847
0.426709
0.507229
0.481095
0.460707
0.447076
0.530728
0.506476
0.486146
0.471066
0.55193
0.530825
0.511878
0.496674
0.568161
0.551261
0.534944
0.520993
0.577308
0.565393
0.552771
0.541166
0.578188
0.572063
0.563621
0.554994
0.570594
0.570128
0.566237
0.561432
0.553023
0.557591
0.559285
0.559934
0.520085
0.531241
0.540614
0.548498
0.481099
0.494651
0.507372
0.518246
0.441159
0.454973
0.467645
0.478857
0.402604
0.416248
0.428996
0.440849
0.179607
0.281634
0.32609
0.360462
0.390481
0.415175
0.433661
0.449022
0.463801
0.478731
0.494414
0.51132
0.52984
0.55042
0.573587
0.599815
0.629461
0.663207
0.701012
0.74283
0.788471
0.83735
0.888756
0.941118
0.98577
1.00175
0.979064
0.930358
0.855678
0.763495
0.662978
0.559515
0.453996
0.357785
0.282175
0.232038
0.20697
0.192363
0.155965
0.0824727
0.212678
0.298397
0.343999
0.37922
0.408567
0.432666
0.4528
0.470398
0.486069
0.500555
0.514961
0.53029
0.547193
0.566398
0.588713
0.61468
0.644017
0.678336
0.718091
0.763142
0.813189
0.867664
0.925995
0.986756
1.04536
1.08612
1.08041
1.03431
0.962375
0.864952
0.758989
0.654522
0.547565
0.442593
0.356849
0.298463
0.276764
0.273235
0.231731
0.11517
0.245772
0.315442
0.360355
0.395778
0.426374
0.453805
0.478053
0.498314
0.514226
0.526919
0.538647
0.551272
0.565444
0.582149
0.602617
0.627006
0.654837
0.689399
0.730716
0.778491
0.832212
0.891236
0.955217
1.02365
1.09444
1.1593
1.18464
1.14186
1.06896
0.973416
0.863983
0.760415
0.659657
0.547839
0.448723
0.374855
0.34336
0.3246
0.264303
0.114675
0.275044
0.332415
0.376091
0.413675
0.448992
0.482719
0.512974
0.536525
0.551624
0.560168
0.566917
0.574099
0.583198
0.595724
0.612987
0.635188
0.662512
0.697013
0.739388
0.789308
0.846481
0.909472
0.977909
1.05286
1.13438
1.21956
1.2881
1.26063
1.18041
1.08235
0.972288
0.868643
0.776799
0.657818
0.551377
0.453847
0.406688
0.369083
0.290957
0.130177
0.300208
0.349588
0.393549
0.435695
0.478643
0.52216
0.561969
0.590423
0.602911
0.600585
0.59549
0.592765
0.595386
0.603783
0.618639
0.639358
0.666
0.700318
0.74348
0.795728
0.857035
0.924147
0.995923
1.0757
1.16546
1.26909
1.37971
1.39435
1.30158
1.19515
1.08302
0.978294
0.879951
0.748838
0.633505
0.529442
0.471612
0.419172
0.32709
0.149418
0.322107
0.367223
0.413133
0.461799
0.515696
0.574641
0.630982
0.666893
0.659737
0.633561
0.614842
0.604467
0.602192
0.607522
0.620321
0.639777
0.665919
0.700251
0.74354
0.796501
0.859895
0.9323
1.01103
1.09395
1.18679
1.30693
1.45499
1.51112
1.42088
1.30814
1.19329
1.09041
0.980668
0.839134
0.705268
0.603304
0.539616
0.474178
0.366728
0.169064
0.341134
0.384418
0.433317
0.489934
0.55832
0.641201
0.722883
0.726622
0.690953
0.657788
0.630167
0.612816
0.605994
0.608652
0.61969
0.638123
0.663937
0.69814
0.741385
0.794415
0.858252
0.934038
1.0231
1.11006
1.19498
1.31784
1.46736
1.56503
1.51797
1.40578
1.29213
1.19492
1.08586
0.930048
0.779693
0.675831
0.608369
0.531482
0.408553
0.18886
0.357061
0.399581
0.451338
0.515475
0.59928
0.714302
0.757661
0.740437
0.726553
0.68648
0.648426
0.622481
0.610139
0.609487
0.618547
0.635926
0.661266
0.695081
0.737888
0.790422
0.853908
0.930261
1.02358
1.1243
1.18946
1.29057
1.41781
1.54083
1.56567
1.4716
1.36655
1.27481
1.17002
1.00714
0.851326
0.743716
0.669791
0.585474
0.450756
0.208472
0.36948
0.411019
0.463678
0.530581
0.617792
0.701977
0.750472
0.73375
0.750605
0.719746
0.670057
0.635345
0.616782
0.612034
0.618489
0.634408
0.658946
0.692069
0.734004
0.785305
0.846897
0.92015
1.00883
1.09644
1.15954
1.24529
1.36065
1.48185
1.56048
1.49557
1.40706
1.32014
1.21185
1.05944
0.910369
0.802294
0.721478
0.630894
0.490427
0.227719
0.378217
0.417687
0.467992
0.530214
0.598489
0.649249
0.673001
0.685633
0.720888
0.721497
0.683017
0.648726
0.626369
0.617583
0.620796
0.634639
0.657994
0.690247
0.731154
0.780928
0.83991
0.909215
0.978547
1.03996
1.11022
1.19762
1.3077
1.42877
1.5231
1.48779
1.41223
1.33182
1.22296
1.08593
0.952828
0.849031
0.764436
0.668267
0.525396
0.24825
0.383599
0.419781
0.464703
0.515612
0.563469
0.595868
0.614581
0.630973
0.659007
0.684347
0.68148
0.659895
0.638634
0.626814
0.626294
0.637483
0.659427
0.690853
0.730836
0.778845
0.833961
0.894422
0.947763
1.00086
1.06938
1.1556
1.26252
1.3867
1.48462
1.46201
1.39447
1.3182
1.21563
1.09535
0.979781
0.883208
0.797935
0.699138
0.554716
0.266885
0.386444
0.418731
0.457179
0.496523
0.531256
0.553871
0.56964
0.584987
0.606709
0.634796
0.664723
0.66609
0.652612
0.639848
0.635208
0.643219
0.663726
0.694554
0.733635
0.779341
0.829435
0.879771
0.922978
0.97206
1.03742
1.12063
1.22388
1.34549
1.43316
1.42305
1.36514
1.2915
1.19818
1.09414
0.994034
0.905394
0.821765
0.722866
0.578019
0.28113
0.387823
0.416506
0.449174
0.479994
0.504258
0.521801
0.536477
0.550544
0.569117
0.595317
0.630698
0.661891
0.665536
0.655548
0.646986
0.651664
0.671097
0.701741
0.739828
0.782389
0.82646
0.867599
0.904241
0.950322
1.01258
1.09221
1.19112
1.30124
1.37792
1.38011
1.33034
1.25974
1.17565
1.08562
0.997989
0.916694
0.835996
0.738915
0.594536
0.290664
0.388777
0.414999
0.443583
0.466386
0.48301
0.498383
0.513904
0.526735
0.542741
0.566844
0.600866
0.643733
0.672014
0.671012
0.660119
0.662297
0.681716
0.71286
0.749794
0.788187
0.825157
0.857919
0.889724
0.934009
0.993895
1.07029
1.16386
1.26503
1.33445
1.33717
1.29223
1.22597
1.15045
1.07165
0.99373
0.918515
0.841225
0.746819
0.603663
0.29588
0.389989
0.415262
0.440328
0.454584
0.467199
0.482076
0.499511
0.51198
0.525058
0.546633
0.577811
0.61968
0.665329
0.681607
0.672675
0.674585
0.695906
0.728394
0.763811
0.796984
0.825358
0.849479
0.879045
0.922502
0.980839
1.05506
1.14544
1.23832
1.29292
1.29223
1.25114
1.1904
1.1227
1.05288
0.982801
0.912466
0.838043
0.74616
0.605051
0.297062
0.391403
0.414998
0.436281
0.445178
0.456277
0.471756
0.489568
0.503081
0.513998
0.53316
0.561315
0.598512
0.644468
0.682857
0.68394
0.688414
0.713877
0.748073
0.780751
0.806954
0.825288
0.843405
0.872327
0.91532
0.972767
1.04537
1.13179
1.21107
1.2503
1.24453
1.2065
1.15198
1.09164
1.02943
0.965823
0.899734
0.827433
0.737038
0.598108
0.293587
0.393213
0.412788
0.429778
0.438262
0.449607
0.46522
0.48284
0.497731
0.50812
0.525362
0.551057
0.584827
0.626328
0.672806
0.693722
0.70363
0.7348
0.770182
0.797234
0.813705
0.823416
0.839213
0.868611
0.911811
0.969123
1.04121
1.12054
1.18046
1.20459
1.19369
1.15832
1.11018
1.05699
1.00138
0.943153
0.880684
0.810113
0.720048
0.58269
0.284739
0.396483
0.410966
0.423582
0.433216
0.445893
0.461521
0.479724
0.494896
0.506186
0.522309
0.546255
0.577811
0.617435
0.665935
0.699247
0.718879
0.75692
0.791388
0.808821
0.812915
0.818665
0.836325
0.867278
0.911426
0.969148
1.03915
1.10551
1.14685
1.15769
1.1417
1.10803
1.06551
1.01895
0.969001
0.915188
0.855653
0.786112
0.695644
0.559752
0.271127
0.40206
0.412515
0.422088
0.431978
0.445753
0.462319
0.480318
0.495385
0.507546
0.523204
0.545904
0.575912
0.614596
0.664718
0.705428
0.735126
0.779112
0.806518
0.808189
0.805512
0.813953
0.834972
0.868061
0.913824
0.972663
1.036
1.08506
1.11019
1.11032
1.09004
1.05732
1.01892
0.977661
0.932593
0.882302
0.824883
0.755463
0.664831
0.531132
0.254052
0.410801
0.418604
0.426564
0.436207
0.450791
0.467507
0.484845
0.499787
0.512173
0.527301
0.548892
0.577509
0.615239
0.666276
0.711734
0.753644
0.797294
0.803066
0.795396
0.797233
0.81092
0.835431
0.870783
0.918171
0.976062
1.02788
1.06024
1.07182
1.06345
1.0397
1.00747
0.971713
0.93384
0.892311
0.844669
0.788547
0.719488
0.629745
0.49929
0.235285
0.423335
0.428321
0.436252
0.446024
0.460912
0.477297
0.493554
0.508148
0.519317
0.53377
0.554216
0.581264
0.617423
0.667866
0.71623
0.771984
0.790851
0.782718
0.781977
0.791341
0.810081
0.837883
0.875489
0.924234
0.975452
1.01185
1.03054
1.03178
1.01712
0.990907
0.959089
0.925018
0.889106
0.849504
0.803641
0.748767
0.68088
0.592964
0.466827
0.216674
0.440182
0.441108
0.448199
0.460307
0.476051
0.492383
0.50722
0.518058
0.527336
0.541671
0.560985
0.586165
0.619688
0.665788
0.717232
0.760105
0.761817
0.763849
0.772653
0.788617
0.811836
0.842718
0.881712
0.927892
0.966753
0.98896
0.996844
0.990312
0.971133
0.943529
0.912266
0.879445
0.844821
0.806476
0.761949
0.708447
0.64216
0.556785
0.435696
0.199623
0.461469
0.458882
0.463096
0.473939
0.488504
0.503581
0.516424
0.525192
0.536009
0.550354
0.568555
0.591645
0.621519
0.659422
0.704558
0.727163
0.739281
0.751886
0.768208
0.78953
0.816803
0.850848
0.889125
0.922839
0.946395
0.959022
0.959481
0.94738
0.925357
0.897309
0.86691
0.835324
0.801858
0.764609
0.721232
0.669046
0.604593
0.522277
0.406698
0.185323
0.48566
0.480655
0.481915
0.488743
0.4993
0.511277
0.522804
0.533484
0.545319
0.559418
0.576562
0.597634
0.623819
0.65553
0.686208
0.70896
0.727907
0.747102
0.768822
0.794547
0.825404
0.860281
0.8901
0.90848
0.919851
0.924815
0.919395
0.903293
0.879765
0.85213
0.822994
0.792797
0.760557
0.724418
0.682164
0.631339
0.568934
0.489953
0.380054
0.172655
0.509982
0.503641
0.502579
0.506184
0.513263
0.522441
0.532497
0.543045
0.554794
0.5685
0.584794
0.604287
0.627559
0.653629
0.679189
0.702729
0.725317
0.748759
0.774591
0.803876
0.835603
0.862427
0.879958
0.888014
0.890804
0.888384
0.877464
0.85863
0.834609
0.808161
0.780628
0.751968
0.721032
0.686031
0.644925
0.59556
0.535358
0.459814
0.355528
0.161086
0.531253
0.524614
0.522065
0.523332
0.527751
0.534523
0.542845
0.552556
0.563946
0.577328
0.593065
0.611499
0.632722
0.655977
0.680126
0.704546
0.729601
0.756228
0.785321
0.814918
0.838336
0.854086
0.862214
0.863389
0.859638
0.850377
0.834906
0.81445
0.790801
0.765819
0.740007
0.712916
0.683285
0.649414
0.609487
0.56167
0.503758
0.431641
0.332777
0.150332
0.547003
0.540909
0.537653
0.537399
0.539956
0.544929
0.551963
0.561044
0.572225
0.58551
0.600999
0.619044
0.639633
0.662297
0.686596
0.712328
0.739578
0.768632
0.797162
0.817268
0.829892
0.836721
0.838709
0.834881
0.8256
0.81124
0.79283
0.771662
0.748864
0.725431
0.701287
0.67567
0.64726
0.614476
0.575741
0.529523
0.473927
0.405162
0.311476
0.140211
0.556161
0.551227
0.547807
0.546721
0.548207
0.552127
0.558517
0.567431
0.578686
0.592294
0.608499
0.6274
0.648704
0.671953
0.697382
0.724917
0.753121
0.779125
0.796869
0.80754
0.812293
0.813136
0.810533
0.802529
0.789106
0.771733
0.751897
0.730744
0.709083
0.687165
0.664527
0.640205
0.612877
0.581108
0.543556
0.49896
0.445666
0.380148
0.291384
0.130611
0.558431
0.555157
0.551785
0.550292
0.551375
0.555144
0.561686
0.571079
0.583232
0.598205
0.616249
0.63708
0.660151
0.684474
0.711018
0.73714
0.75893
0.774668
0.78431
0.788702
0.788919
0.785687
0.778819
0.767253
0.751324
0.732608
0.712518
0.691988
0.671591
0.651063
0.629706
0.606459
0.580054
0.549219
0.512833
0.469864
0.418843
0.356458
0.272362
0.121471
0.552807
0.552307
0.549035
0.547365
0.548951
0.554035
0.562296
0.573416
0.587389
0.60448
0.625137
0.648261
0.671824
0.694276
0.71649
0.735117
0.749521
0.759058
0.763973
0.764816
0.762043
0.755477
0.744867
0.730657
0.713517
0.694611
0.675068
0.655586
0.63643
0.617105
0.596778
0.574377
0.548738
0.518767
0.483539
0.442212
0.393445
0.334081
0.254399
0.112824
0.527015
0.53212
0.5346
0.537122
0.54191
0.550382
0.561972
0.576061
0.592535
0.611937
0.633545
0.655002
0.674839
0.692398
0.707998
0.721317
0.73134
0.737309
0.73941
0.737809
0.732357
0.72295
0.709962
0.694356
0.6769
0.65848
0.639903
0.621613
0.6036
0.585259
0.565716
0.54395
0.518929
0.489769
0.455742
0.416119
0.369601
0.31314
0.237624
0.104807
0.489285
0.499095
0.508802
0.518614
0.528999
0.541699
0.556598
0.573142
0.59072
0.609809
0.628554
0.646818
0.663567
0.678332
0.691021
0.701396
0.708631
0.71223
0.712215
0.708468
0.700861
0.689638
0.675537
0.659508
0.64235
0.624764
0.607285
0.590136
0.573095
0.555512
0.536531
0.515226
0.490731
0.462397
0.429702
0.391872
0.347559
0.29387
0.222284
0.0976713
0.452711
0.464906
0.477571
0.491044
0.505697
0.521446
0.53846
0.556118
0.573819
0.591777
0.609851
0.627395
0.64362
0.657805
0.669437
0.678101
0.683492
0.685347
0.683598
0.678172
0.669169
0.657065
0.642658
0.626855
0.61038
0.593766
0.577347
0.56118
0.544901
0.527863
0.509277
0.488366
0.464504
0.437172
0.40588
0.369792
0.327591
0.276551
0.208694
0.091779
)
;

boundaryField
{
    leftWall
    {
        type            kqRWallFunction;
        value           nonuniform 0();
    }
    rightWall
    {
        type            kqRWallFunction;
        value           nonuniform List<scalar> 
43
(
0.0105235
0.0181741
0.0223478
0.0242328
0.0244779
0.0244535
0.0239796
0.0242742
0.0336835
0.055052
0.0824727
0.11517
0.114675
0.130177
0.149418
0.169064
0.18886
0.208472
0.227719
0.24825
0.266885
0.28113
0.290664
0.29588
0.297062
0.293587
0.284739
0.271127
0.254052
0.235285
0.216674
0.199623
0.185323
0.172655
0.161086
0.150332
0.140211
0.130611
0.121471
0.112824
0.104807
0.0976713
0.091779
)
;
    }
    lowerWall
    {
        type            kqRWallFunction;
        value           nonuniform List<scalar> 
66
(
0.012124
0.00368844
0.00368844
0.0094173
0.0160331
0.0237764
0.0329174
0.0443136
0.0591324
0.0795609
0.110733
0.187264
0.213187
0.140886
0.096019
0.112994
0.0255501
0.0450734
0.0661247
0.0862204
0.102713
0.114598
0.124463
0.133476
0.143011
0.15531
0.0255501
0.0304716
0.0377572
0.0490297
0.0602904
0.0711099
0.0812218
0.0903471
0.0984108
0.105546
0.112016
0.118124
0.124153
0.130428
0.136483
0.142142
0.147304
0.151881
0.15574
0.158697
0.160532
0.160974
0.159672
0.156653
0.152258
0.146093
0.138161
0.128167
0.115833
0.101351
0.087258
0.0740485
0.0630108
0.0543502
0.0471465
0.0401805
0.0330145
0.0258992
0.0183836
0.0105235
)
;
    }
    atmosphere
    {
        type            inletOutlet;
        inletValue      nonuniform 0();
        value           nonuniform 0();
    }
    defaultFaces
    {
        type            empty;
    }
    procBoundary1to0
    {
        type            processor;
        value           nonuniform List<scalar> 
44
(
0.0200397
0.0476143
0.0681066
0.0904654
0.117256
0.149735
0.188782
0.235307
0.290248
0.353929
0.424803
0.501125
0.581966
0.647163
0.719684
0.728592
0.685475
0.641116
0.605297
0.579004
0.487336
0.487336
0.479438
0.476486
0.477487
0.481821
0.489111
0.499044
0.511243
0.525247
0.54052
0.556311
0.571492
0.584501
0.593476
0.596482
0.591427
0.577064
0.554922
0.526004
0.489961
0.450177
0.409847
0.371707
)
;
    }
    procBoundary1to3
    {
        type            processor;
        value           nonuniform List<scalar> 
45
(
0.353404
0.367811
0.381297
0.394219
0.406691
0.419678
0.4333
0.447481
0.462586
0.478867
0.496259
0.514531
0.533123
0.551519
0.569698
0.587647
0.605015
0.621116
0.634979
0.6458
0.653315
0.657401
0.657934
0.654897
0.648343
0.638548
0.626144
0.611969
0.596803
0.581219
0.565588
0.550109
0.534734
0.519023
0.50239
0.484201
0.463829
0.440772
0.414552
0.384589
0.350156
0.310075
0.261693
0.197393
0.0873101
)
;
    }
}


// ************************************************************************* //
