/*--------------------------------*- C++ -*----------------------------------*\
| =========                 |                                                 |
| \\      /  F ield         | OpenFOAM: The Open Source CFD Toolbox           |
|  \\    /   O peration     | Version:  5.0                                   |
|   \\  /    A nd           | Web:      www.OpenFOAM.org                      |
|    \\/     M anipulation  |                                                 |
\*---------------------------------------------------------------------------*/
FoamFile
{
    version     2.0;
    format      ascii;
    class       volScalarField;
    location    "1";
    object      nut;
}
// * * * * * * * * * * * * * * * * * * * * * * * * * * * * * * * * * * * * * //

dimensions      [0 2 -1 0 0 0 0];

internalField   nonuniform List<scalar> 
1915
(
6.03092e-05
3.31884e-05
0.000474646
7.02768e-05
0.00072536
9.17048e-05
0.000896702
0.000111588
0.00105596
0.000131046
0.0012229
0.000151523
0.00139964
0.000174183
0.00158352
0.000200744
0.00179679
0.00023496
0.00210211
0.000302367
8.41563e-05
9.20922e-05
0.000102846
0.000117263
0.000130294
0.000141588
0.000151372
0.000159707
0.00016679
0.000172924
0.00017843
0.000183579
0.000188571
0.000193632
0.000198319
0.000202536
0.000206306
0.000209631
0.000212449
0.000214659
0.000216118
0.000216621
0.000215935
0.000214236
0.000211651
0.00020758
0.000201926
0.000194358
0.000184557
0.000172038
0.000158996
0.000145651
0.00013355
0.000123405
0.000114449
0.000105296
9.52782e-05
8.43303e-05
7.10817e-05
6.27662e-05
0.000156359
0.000557827
0.00064979
0.000716027
0.000808388
0.00092118
0.00104861
0.00117804
0.00129823
0.00140398
0.00149631
0.00157905
0.00165511
0.00172021
0.00178019
0.0018372
0.00189118
0.00194186
0.00198824
0.00202865
0.00206102
0.00208334
0.00209369
0.00209011
0.00207099
0.00203248
0.00197254
0.0018891
0.00178034
0.00164495
0.00148544
0.00131684
0.00115846
0.00102198
0.000902674
0.000788467
0.000654888
0.000503325
0.000344197
9.87452e-05
0.000189218
0.000898747
0.00113849
0.00132301
0.00155606
0.00182662
0.00210722
0.00237092
0.00260315
0.00280223
0.00297465
0.00312867
0.00326971
0.00339683
0.00351577
0.00362743
0.00373165
0.0038278
0.0039138
0.00398611
0.00404025
0.00407168
0.00407632
0.00405042
0.00399074
0.00389265
0.00375347
0.00356972
0.00333849
0.00305981
0.00274331
0.00240985
0.00208942
0.00180801
0.00156302
0.00133847
0.00110812
0.000854717
0.000557186
0.000109391
0.000215955
0.00118007
0.00160891
0.0019363
0.00230854
0.00271086
0.00310399
0.00345933
0.00376596
0.00402676
0.00425194
0.00445222
0.00463441
0.00480038
0.00495372
0.00509498
0.00522424
0.00534079
0.00544187
0.00552288
0.00557796
0.00560082
0.00558571
0.00552763
0.0054229
0.00526724
0.00505762
0.00479088
0.004465
0.00408171
0.0036517
0.00319748
0.00275422
0.00235309
0.00200048
0.001686
0.00138731
0.00106933
0.000678793
0.000113784
0.000236191
0.00141808
0.00205523
0.00253423
0.00302738
0.00352743
0.00399744
0.00441323
0.00476779
0.00506718
0.00532413
0.00555082
0.00575465
0.00593872
0.00610538
0.00625547
0.00638988
0.00650832
0.00660784
0.00668348
0.00672881
0.00673651
0.00669941
0.00661148
0.00646871
0.0062665
0.00600161
0.00567115
0.00527405
0.00481353
0.00429936
0.00375252
0.00320798
0.00270127
0.00225058
0.00185866
0.00150918
0.00115448
0.000719787
0.000114132
0.000249722
0.00161826
0.00246545
0.00309502
0.00369183
0.00426494
0.00478792
0.00524312
0.00562675
0.0059473
0.00622052
0.00645941
0.00667099
0.00685868
0.00702435
0.0071697
0.00729703
0.00740709
0.00749733
0.00756267
0.00759684
0.00759176
0.0075381
0.00742873
0.0072591
0.00702363
0.0067185
0.00634064
0.00588897
0.00536632
0.00478145
0.00415313
0.00351367
0.00290204
0.00235063
0.00188209
0.00148865
0.00111827
0.000675746
0.000113841
0.00026052
0.00178625
0.00283563
0.00360884
0.00429609
0.00492606
0.00548621
0.00596571
0.0063642
0.0066931
0.00697204
0.00721405
0.00742488
0.00760725
0.00776354
0.00789668
0.00801056
0.00810752
0.0081862
0.00824183
0.00826894
0.00825918
0.00819962
0.00808076
0.00789697
0.00764138
0.0073093
0.00689709
0.00640306
0.00582853
0.00517979
0.00447202
0.00373405
0.00300824
0.00234493
0.00179518
0.00136239
0.00099318
0.000594127
0.000112488
0.000270105
0.00193132
0.00317076
0.00407718
0.00484359
0.0055189
0.00610446
0.00659524
0.0069963
0.00732652
0.00760634
0.00784661
0.00805202
0.00822463
0.00836803
0.00848656
0.00858537
0.00866831
0.00873521
0.00878236
0.00880525
0.0087981
0.00874855
0.00863716
0.00845341
0.00819008
0.00784253
0.00740694
0.00688096
0.00626413
0.00555899
0.00477469
0.00393453
0.00308438
0.00229829
0.00166622
0.00120323
0.000843986
0.000509199
0.000113351
0.000279929
0.00206778
0.00348347
0.00450854
0.00534178
0.00605136
0.00664974
0.00713893
0.00753704
0.00786773
0.00814698
0.00838343
0.00858128
0.00874309
0.00887373
0.00897866
0.00906424
0.0091356
0.00919297
0.00923358
0.00925395
0.00925103
0.0092179
0.00913426
0.00897018
0.00871242
0.00835971
0.00791064
0.00736287
0.00671487
0.00596552
0.00511619
0.00418144
0.00321042
0.00230429
0.00160203
0.00112882
0.000786355
0.000474471
0.00013536
0.000292018
0.00222753
0.00379512
0.00491484
0.00579784
0.0065266
0.00712251
0.00760454
0.00800228
0.00833434
0.008613
0.00884533
0.00903563
0.00918783
0.00930778
0.00940188
0.00947732
0.0095407
0.00959221
0.00963005
0.0096521
0.00965617
0.00963766
0.00958627
0.00946183
0.00922505
0.00887969
0.00842883
0.00786958
0.00720339
0.00642742
0.00553608
0.00453287
0.00346784
0.00246514
0.00171015
0.00124106
0.000911302
0.000560396
0.000174043
0.00290441
0.001512
0.00363417
0.00275946
0.00416418
0.0034743
0.00450256
0.00379208
0.00458978
0.00382932
0.00454025
0.0038304
0.00448249
0.00385069
0.00446762
0.00391053
0.00449332
0.00400897
0.00455557
0.00413828
0.00428893
0.00445157
0.00461861
0.00478503
0.00494844
0.00510849
0.00526583
0.0054215
0.00557661
0.00573176
0.00588646
0.00603871
0.00618506
0.00632114
0.0064429
0.00654752
0.00663268
0.00669548
0.00673131
0.00674146
0.00675013
0.00678063
0.00685595
0.000245453
0.00019905
0.000164231
0.000181132
0.00173235
0.00123795
0.000735836
0.0005589
0.00261436
0.00177483
0.0011622
0.00103961
0.00290291
0.00210263
0.0015871
0.00161819
0.00304015
0.00238215
0.00203927
0.00224167
0.00316261
0.00266812
0.00250685
0.00285235
0.00330767
0.00296947
0.00296732
0.00341149
0.00348203
0.00327861
0.0034
0.00390016
0.00367979
0.0035839
0.00379072
0.00431264
0.00389095
0.00387461
0.00413278
0.00465112
0.00410548
0.00414279
0.0044251
0.0049226
0.00431543
0.00438482
0.00467075
0.00513641
0.00451561
0.00460036
0.00487546
0.00530296
0.00470382
0.00479158
0.00504635
0.00543255
0.00488018
0.00496231
0.00519088
0.00553434
0.00504648
0.00511729
0.00531631
0.00561655
0.00520529
0.00526123
0.00542932
0.00568729
0.00535929
0.00539853
0.00553602
0.0057542
0.00551126
0.0055334
0.00564175
0.00582349
0.00566359
0.00566956
0.00575086
0.00589949
0.00581752
0.00580974
0.00586669
0.00598516
0.00597261
0.00595516
0.00599171
0.00608305
0.00612638
0.00610487
0.00612681
0.00619567
0.00627452
0.00625529
0.00626991
0.00632318
0.00641204
0.00640097
0.00641582
0.00646055
0.00653534
0.00653685
0.00655651
0.00659868
0.00664216
0.00665841
0.00668666
0.00673186
0.00672904
0.00676248
0.00680302
0.00685658
0.00678769
0.00684141
0.00689974
0.00696822
0.00681186
0.0068856
0.00696665
0.00705694
0.00683124
0.00691603
0.00701254
0.00712203
0.0068723
0.00696957
0.00708045
0.00720858
0.00695742
0.00706931
0.00719854
0.0073477
0.000565694
0.00254712
0.00414308
0.0053106
0.00621764
0.00694567
0.00753202
0.00801167
0.00841034
0.00874326
0.0090211
0.00925048
0.00943534
0.00958067
0.00969331
0.00978041
0.00984896
0.00990741
0.00995626
0.00999529
0.0100234
0.0100377
0.010034
0.0100054
0.00992152
0.00972594
0.00940228
0.00896893
0.00841226
0.00774152
0.00695975
0.00605829
0.00502657
0.00390933
0.00283997
0.00202882
0.0015557
0.00124139
0.000814699
0.00021435
0.00104577
0.00297047
0.00452806
0.0056957
0.00659816
0.00731528
0.00789564
0.00837223
0.0087682
0.00910017
0.00937835
0.00960803
0.0097916
0.00993429
0.0100442
0.010129
0.0101928
0.0102483
0.0102984
0.0103433
0.010381
0.0104071
0.0104162
0.0104005
0.0103426
0.0101994
0.0099173
0.00951475
0.00898593
0.00832801
0.00756124
0.00668349
0.00566906
0.00453748
0.00341503
0.00251394
0.00201415
0.00170611
0.00119403
0.000256507
0.00169081
0.00346089
0.00493243
0.00606433
0.00694703
0.00765089
0.00821988
0.00868611
0.00907557
0.00940574
0.00968613
0.00992043
0.0101079
0.0102531
0.0103653
0.0104498
0.0105111
0.0105683
0.0106245
0.0106795
0.01073
0.0107686
0.0107873
0.0107794
0.010736
0.0106358
0.0104156
0.0100507
0.00956118
0.00894038
0.00820695
0.00737601
0.00642119
0.00530437
0.00414067
0.00314864
0.00255939
0.00210236
0.00138992
0.000240813
0.00240509
0.0039785
0.00533914
0.00641895
0.0072731
0.0079554
0.00850574
0.00895753
0.00933826
0.00966469
0.00994692
0.0101855
0.0103793
0.0105311
0.0106485
0.0107368
0.0108053
0.0108704
0.0109373
0.0110059
0.0110737
0.0111277
0.011155
0.0111509
0.011113
0.011037
0.0108932
0.0105776
0.0101249
0.00954806
0.00886003
0.00808113
0.00719836
0.00612718
0.0049513
0.00390361
0.00318895
0.0025298
0.00154206
0.000257193
0.00309935
0.00448781
0.00573521
0.0067538
0.00757104
0.00822983
0.00876575
0.00920727
0.0095771
0.00988285
0.0101515
0.0103877
0.0105899
0.0107549
0.0108873
0.0109907
0.0110744
0.0111526
0.0112335
0.01132
0.0114112
0.011487
0.0115256
0.0115236
0.0114836
0.0114187
0.0113419
0.0111018
0.0106721
0.0101311
0.0094905
0.0087604
0.00792019
0.00688047
0.0057585
0.00469914
0.00387435
0.00301926
0.00176205
0.000276575
0.00372559
0.00496145
0.00610078
0.00705385
0.00783595
0.00848812
0.00903632
0.00948373
0.00979238
0.0100392
0.0102878
0.0105269
0.0107432
0.0109281
0.0110823
0.0112083
0.0113153
0.0114156
0.0115163
0.0116211
0.0117305
0.0118315
0.0118995
0.0119058
0.0118567
0.011794
0.0117582
0.0115816
0.0111829
0.0106716
0.0100757
0.00939698
0.00858529
0.00758601
0.00650128
0.00548147
0.00457257
0.00353923
0.00200469
0.000295501
0.00426635
0.00537687
0.00641573
0.0073065
0.00806857
0.00875605
0.00936266
0.00972017
0.00993895
0.0101563
0.0103857
0.0106229
0.0108522
0.0110589
0.0112385
0.0113928
0.0115296
0.0116587
0.0117851
0.0119109
0.0120358
0.0121569
0.0122711
0.0123022
0.0122342
0.0121454
0.0120825
0.0119496
0.0116264
0.0111451
0.0105935
0.00996722
0.00919556
0.00823023
0.00718607
0.00619941
0.00523899
0.00405356
0.00226507
0.000314238
0.0047169
0.00571997
0.00666737
0.00750365
0.00826434
0.00903717
0.00956316
0.00986583
0.0101123
0.0102915
0.0104797
0.0106994
0.0109328
0.0111574
0.0113623
0.0115472
0.0117178
0.0118807
0.0120387
0.0121914
0.0123374
0.0124767
0.0126166
0.012698
0.0125993
0.0124616
0.0123392
0.0122135
0.0119755
0.0115393
0.0110287
0.010443
0.00971372
0.00879055
0.00780298
0.00683916
0.0058232
0.00451036
0.00253199
0.00033203
0.00507961
0.00598712
0.00685196
0.00763956
0.00839425
0.0090806
0.00962123
0.00994288
0.0102677
0.0104457
0.0105813
0.0107716
0.0109971
0.011231
0.0114579
0.0116731
0.0118791
0.0120796
0.012275
0.0124628
0.012639
0.0128008
0.012949
0.0130061
0.0129072
0.0127468
0.0125945
0.012452
0.0122535
0.0118614
0.0113819
0.0108205
0.010116
0.00925545
0.00833387
0.00739218
0.00632439
0.00490045
0.0027888
0.000348785
0.00536188
0.00618257
0.00697051
0.00770231
0.00838133
0.00896855
0.00944536
0.0098567
0.0102632
0.0105216
0.010666
0.0108388
0.0110513
0.0112858
0.0115281
0.0117707
0.0120123
0.0122526
0.0124894
0.0127177
0.01293
0.0131207
0.0132473
0.0132522
0.0131606
0.0130096
0.0128505
0.0127006
0.0125035
0.0121355
0.0116634
0.0111111
0.010427
0.00963144
0.00877744
0.00785627
0.00674781
0.00522792
0.00299452
0.000366835
0.0055745
0.00631536
0.00702843
0.0076862
0.00828245
0.0088114
0.00927743
0.00969561
0.010094
0.0104493
0.0106922
0.0108842
0.0110909
0.011323
0.0115747
0.0118411
0.0121167
0.0123968
0.0126755
0.0129445
0.0131908
0.0133966
0.0135072
0.0135016
0.0134108
0.0132659
0.013107
0.0129605
0.0127554
0.0123816
0.0118979
0.0113417
0.0106812
0.00994223
0.00914273
0.00823616
0.00709383
0.00549534
0.00314283
0.00037999
0.00572949
0.00639703
0.00703905
0.00762351
0.00815899
0.00864603
0.00909307
0.00950039
0.00988464
0.010262
0.0106236
0.0108828
0.0111064
0.0113409
0.0115988
0.0118861
0.0121945
0.0125133
0.012832
0.0131376
0.0134109
0.0136234
0.0137294
0.0137292
0.0136476
0.0135121
0.0133584
0.01321
0.0129802
0.0125974
0.0121024
0.011537
0.0108992
0.0102043
0.00944101
0.00854037
0.00736873
0.00570725
0.00325588
0.000389178
0.00583895
0.00643994
0.00701642
0.00753818
0.00801575
0.00846548
0.00888918
0.00927979
0.00965563
0.0100365
0.0104338
0.0108035
0.0110865
0.0113386
0.0116024
0.0119091
0.0122499
0.0126058
0.0129601
0.0132948
0.0135862
0.0138026
0.013912
0.0139252
0.01386
0.0137394
0.0135953
0.0134321
0.0131755
0.0127842
0.0122796
0.0117085
0.0110893
0.0104248
0.00968065
0.00877697
0.00757857
0.00586787
0.00334002
0.000395065
0.00591426
0.00645614
0.00697326
0.00743199
0.00785888
0.00827462
0.00867413
0.00904412
0.00941015
0.00979284
0.0102017
0.0106335
0.0110145
0.0113119
0.0115882
0.0119163
0.0122905
0.0126812
0.0130651
0.0134191
0.0137188
0.0139363
0.0140533
0.0140861
0.0140427
0.0139415
0.0138063
0.0136314
0.0133536
0.0129436
0.0124296
0.0118577
0.0112529
0.0106056
0.0098674
0.00895286
0.00772872
0.00597967
0.00339717
0.000398415
0.00596421
0.00645377
0.0069144
0.00731251
0.00770122
0.00808718
0.00846294
0.00881164
0.00916293
0.00954347
0.00995922
0.0104127
0.0108763
0.0112528
0.0115606
0.0119165
0.0123264
0.0127492
0.0131548
0.0135175
0.0138141
0.0140269
0.0141587
0.014215
0.0141968
0.0141183
0.0139969
0.0138133
0.0135057
0.0130742
0.0125518
0.0119817
0.0113859
0.0107448
0.0100027
0.00907179
0.00782156
0.00604293
0.00342805
0.00039972
0.00599565
0.00643263
0.0068413
0.00719722
0.00755737
0.00791828
0.00826791
0.00859671
0.00892963
0.00930331
0.00972218
0.0101847
0.0106812
0.0111552
0.0115282
0.0119199
0.0123672
0.0128174
0.0132345
0.0135929
0.0138753
0.0140873
0.0142384
0.0143188
0.0143267
0.0142722
0.0141642
0.0139636
0.0136265
0.0131738
0.0126434
0.0120745
0.0114819
0.0108382
0.0100848
0.00913379
0.00785769
0.00605616
0.00342945
0.00039842
0.00601712
0.00639947
0.0067634
0.00709785
0.007437
0.00777346
0.00809721
0.00840702
0.0087221
0.00908552
0.00950437
0.00997622
0.0104907
0.0110247
0.0114969
0.0119324
0.0124161
0.0128863
0.0132995
0.0136391
0.0139072
0.0141283
0.0143004
0.0144046
0.0144384
0.0144099
0.0143071
0.0140773
0.0137109
0.0132397
0.0127012
0.0121308
0.0115354
0.0108821
0.0101112
0.00913704
0.00783673
0.00601818
0.0033979
0.000394049
0.00603862
0.00637028
0.00669651
0.00701606
0.0073382
0.00765237
0.00795497
0.00824493
0.00854629
0.00889951
0.0093171
0.00979837
0.0103354
0.0109124
0.0114586
0.0119498
0.0124691
0.0129477
0.0133382
0.0136469
0.0139165
0.0141592
0.0143523
0.0144789
0.0145369
0.0145283
0.0144135
0.0141526
0.0137598
0.0132718
0.0127242
0.0121475
0.0115429
0.0108739
0.0100807
0.00908112
0.00775813
0.00592978
0.00333381
0.00038634
0.00606767
0.00635811
0.00665321
0.00695453
0.00726069
0.00755805
0.00784092
0.00811441
0.00840483
0.00875087
0.00916773
0.00965783
0.0102166
0.0108313
0.0114313
0.0119735
0.0125215
0.0129843
0.0133279
0.0136283
0.0139228
0.0141885
0.0144005
0.0145471
0.0146274
0.0146202
0.0144764
0.0141856
0.0137711
0.0132692
0.0127116
0.0121241
0.0115036
0.0108134
0.00999418
0.0089684
0.007625
0.00579571
0.00324169
0.000375034
0.00610839
0.00636656
0.00663592
0.00691746
0.00720805
0.00748775
0.00775452
0.00801623
0.0083003
0.00864198
0.00905885
0.00955627
0.0101328
0.010777
0.011414
0.0120055
0.0125587
0.0129539
0.0132815
0.0136153
0.0139384
0.0142228
0.0144496
0.0146117
0.0147031
0.0146757
0.0144967
0.0141775
0.0137448
0.0132316
0.0126637
0.0120621
0.0114207
0.0107047
0.0098579
0.00880704
0.00744913
0.00562884
0.00313085
0.000361143
0.00616228
0.00639247
0.00664258
0.00690577
0.00717851
0.00744211
0.00769641
0.007952
0.00823227
0.00857251
0.0089902
0.00949253
0.0100803
0.0107427
0.0114012
0.0120384
0.0125169
0.0128811
0.0132535
0.0136245
0.013969
0.0142661
0.0145031
0.014675
0.0147521
0.014685
0.0144711
0.0141278
0.0136803
0.0131574
0.0125807
0.0119654
0.0113026
0.01056
0.00968693
0.00861599
0.00725083
0.00544688
0.00301269
0.000346067
0.0062304
0.0064321
0.00666429
0.00691644
0.00717383
0.00742442
0.00766927
0.00791736
0.00819659
0.00854052
0.00896063
0.00946524
0.0100552
0.0107165
0.0113873
0.0119868
0.0124255
0.012846
0.0132632
0.0136597
0.0140174
0.0143212
0.014561
0.0147248
0.0147615
0.0146491
0.0144026
0.0140381
0.0135777
0.0130484
0.0124651
0.0118376
0.0111561
0.0103915
0.00949853
0.00841429
0.0070479
0.0052647
0.00289585
0.000331759
0.0063158
0.00648903
0.00669809
0.00693275
0.00717449
0.00741516
0.00765481
0.00790332
0.00819355
0.00854538
0.0089704
0.00947584
0.0100596
0.0107002
0.0113511
0.011902
0.0123944
0.0128641
0.0133103
0.0137216
0.0140858
0.014392
0.0146219
0.0147385
0.0147192
0.0145681
0.014294
0.0139109
0.0134426
0.0129089
0.012321
0.0116848
0.0109896
0.0102089
0.00930151
0.00820836
0.00684373
0.0050832
0.00277733
0.000319983
0.00642136
0.00656699
0.00674875
0.00695757
0.00718142
0.00741341
0.00765478
0.0079179
0.00822372
0.00858828
0.00902219
0.0095299
0.0101056
0.0107256
0.0113386
0.0119052
0.0124341
0.0129315
0.013393
0.0138103
0.0141745
0.0144704
0.014658
0.014712
0.0146404
0.0144521
0.0141513
0.0137534
0.0132796
0.0127433
0.0121533
0.0115121
0.0108085
0.0100178
0.00910155
0.00800407
0.00664488
0.00490943
0.00266588
0.000308658
0.00654161
0.00666424
0.00682124
0.00700665
0.00721383
0.00743957
0.00768704
0.00796591
0.00829037
0.00867269
0.00912043
0.00963449
0.0102053
0.010809
0.0114113
0.0119894
0.0125355
0.0130443
0.0135097
0.0139242
0.0142735
0.0145227
0.0146517
0.0146526
0.0145357
0.0143094
0.0139826
0.0135728
0.0130948
0.0125572
0.0119674
0.0113247
0.0106173
0.0098216
0.00890127
0.00780366
0.00645344
0.00474541
0.00256323
0.000297846
0.00667029
0.00677688
0.00691495
0.00708241
0.0072774
0.00750078
0.00775677
0.00805307
0.00839945
0.00880386
0.00926977
0.00979421
0.0103651
0.0109623
0.0115613
0.0121418
0.0126903
0.0131976
0.0136565
0.0140509
0.0143478
0.0145369
0.0146105
0.0145651
0.0144068
0.0141452
0.0137965
0.0133759
0.012894
0.0123568
0.011769
0.0111275
0.0104197
0.00962285
0.00870209
0.00760768
0.0062693
0.00459047
0.00246831
0.000287458
0.00680086
0.00689887
0.00702535
0.00718228
0.00737213
0.00759918
0.00786795
0.00818498
0.00855654
0.00898608
0.00947273
0.0100102
0.0105859
0.0111809
0.011775
0.0123491
0.0128888
0.0133827
0.013815
0.0141495
0.0143833
0.0145143
0.0145382
0.0144501
0.0142544
0.0139652
0.0135992
0.0131696
0.0126845
0.0121486
0.0115639
0.0109252
0.0102194
0.00942374
0.008505
0.00741611
0.00609154
0.00444287
0.00237912
0.000277376
0.0069292
0.00702573
0.00714832
0.00730332
0.00749728
0.00773536
0.00802274
0.00836447
0.00876373
0.00922015
0.0097292
0.0102815
0.0108619
0.0114523
0.0120363
0.0125961
0.0131141
0.0135682
0.0139336
0.0142058
0.0143823
0.0144611
0.0144383
0.0143105
0.0140844
0.0137745
0.0133958
0.0129597
0.0124726
0.0119386
0.0113575
0.0107225
0.0100196
0.00922651
0.00831108
0.00722892
0.00591908
0.00430078
0.00229385
0.000267494
0.00705141
0.00715443
0.00728145
0.007444
0.00765198
0.00791005
0.00822262
0.00859285
0.00902118
0.0095045
0.0100351
0.0105994
0.0111804
0.0117597
0.0123255
0.012853
0.0133177
0.0137052
0.0140089
0.0142262
0.014353
0.0143844
0.0143173
0.0141544
0.0139043
0.0135793
0.0131919
0.0127517
0.0122642
0.0117326
0.0111551
0.0105238
0.00982404
0.00903365
0.00812172
0.00704639
0.00575121
0.00416277
0.00221116
0.000257745
0.00716053
0.00728169
0.00742455
0.0076066
0.00783872
0.00812668
0.00847122
0.0088719
0.0093274
0.00983288
0.0103782
0.0109462
0.011517
0.0120709
0.0125947
0.0130642
0.013469
0.0137997
0.0140514
0.0142207
0.0143019
0.0142892
0.0141832
0.0139914
0.0137227
0.0133868
0.0129938
0.0125516
0.012065
0.0115362
0.0109622
0.010334
0.00963659
0.00884812
0.00793884
0.00686946
0.00558798
0.00402818
0.0021302
0.000248111
0.00725127
0.00740477
0.00758249
0.00779822
0.00806443
0.00838867
0.00876774
0.00919792
0.00967475
0.0101921
0.0107369
0.0112892
0.0118296
0.0123412
0.0128118
0.0132289
0.0135821
0.0138636
0.0140692
0.0141942
0.0142318
0.0141806
0.0140443
0.0138308
0.0135483
0.0132049
0.0128087
0.0123661
0.0118814
0.0113554
0.0107842
0.0101581
0.00946157
0.00867338
0.00776517
0.00670019
0.00543077
0.00389765
0.00205094
0.000238685
0.00736428
0.00755131
0.00776797
0.00802442
0.00832772
0.00868485
0.00909316
0.00954559
0.0100329
0.0105467
0.0110692
0.0115906
0.0120943
0.0125649
0.01299
0.01336
0.0136666
0.0139034
0.014066
0.0141489
0.0141493
0.0140678
0.0139093
0.0136804
0.0133885
0.0130405
0.0126431
0.0122016
0.0117193
0.0111961
0.0106268
0.0100012
0.00930375
0.00851378
0.00760478
0.00654238
0.00528279
0.00377349
0.00197443
0.000229742
0.007527
0.00774028
0.00798605
0.00827298
0.00860639
0.00898693
0.00941178
0.00987159
0.0103559
0.010855
0.0113568
0.0118493
0.0123186
0.0127509
0.0131347
0.0134617
0.0137261
0.0139219
0.0140449
0.0140923
0.0140633
0.0139594
0.0137851
0.0135462
0.013249
0.0128993
0.0125027
0.0120634
0.011584
0.0110631
0.0104948
0.00986823
0.00916834
0.00837514
0.00746351
0.0064012
0.00514837
0.00365906
0.00190272
0.000221755
)
;

boundaryField
{
    leftWall
    {
        type            nutkWallFunction;
        Cmu             0.09;
        kappa           0.41;
        E               9.8;
        value           nonuniform 0();
    }
    rightWall
    {
        type            nutkWallFunction;
        Cmu             0.09;
        kappa           0.41;
        E               9.8;
        value           nonuniform List<scalar> 
43
(
9.26244e-06
1.20136e-05
1.32419e-05
1.37547e-05
1.38197e-05
1.38141e-05
1.36873e-05
1.37657e-05
1.60447e-05
2.01761e-05
2.21003e-05
2.78752e-05
3.01327e-05
3.28249e-05
3.26774e-05
3.49808e-05
3.75526e-05
3.99149e-05
4.16223e-05
4.37413e-05
4.55871e-05
4.69007e-05
4.77456e-05
4.82179e-05
4.83242e-05
4.80108e-05
4.72033e-05
4.59328e-05
4.42872e-05
4.2405e-05
4.0453e-05
3.858e-05
3.69377e-05
3.5422e-05
3.3982e-05
3.259e-05
3.12274e-05
2.98826e-05
2.85494e-05
2.72346e-05
2.59635e-05
2.4785e-05
2.37744e-05
)
;
    }
    lowerWall
    {
        type            nutkWallFunction;
        Cmu             0.09;
        kappa           0.41;
        E               9.8;
        value           nonuniform List<scalar> 
66
(
7.17698e-06
3.91295e-06
3.91295e-06
8.33371e-06
1.07566e-05
1.29585e-05
1.50916e-05
1.73314e-05
1.98091e-05
2.27149e-05
2.64425e-05
3.36344e-05
2.8089e-05
2.32228e-05
1.94579e-05
2.0977e-05
1.02906e-05
1.83658e-05
2.19237e-05
2.47709e-05
2.68436e-05
2.82256e-05
2.93139e-05
3.02675e-05
3.12385e-05
3.24399e-05
1.02906e-05
1.11894e-05
1.23838e-05
1.39998e-05
1.542e-05
1.66518e-05
1.77124e-05
1.86084e-05
1.93594e-05
1.9996e-05
2.05531e-05
2.1063e-05
2.15522e-05
2.20476e-05
2.25133e-05
2.29384e-05
2.33181e-05
2.36487e-05
2.39232e-05
2.4131e-05
2.42589e-05
2.42897e-05
2.41992e-05
2.39877e-05
2.36757e-05
2.32297e-05
2.26403e-05
2.18706e-05
2.08735e-05
1.96248e-05
1.83109e-05
1.69682e-05
1.57405e-05
1.46911e-05
1.37452e-05
1.27509e-05
1.16223e-05
1.03573e-05
8.78827e-06
6.69321e-06
)
;
    }
    atmosphere
    {
        type            calculated;
        value           nonuniform 0();
    }
    defaultFaces
    {
        type            empty;
    }
    procBoundary1to0
    {
        type            processor;
        value           nonuniform List<scalar> 
44
(
7.73795e-05
0.000700141
0.00117208
0.00148995
0.00175744
0.00201953
0.00229184
0.00258342
0.00290947
0.00329754
0.00379704
0.00428186
0.00469374
0.00500199
0.00517319
0.00518163
0.00511914
0.00506699
0.00504578
0.00505953
0.00464723
0.00464723
0.00475956
0.00488479
0.00501749
0.00515453
0.00529435
0.00543607
0.00557913
0.00572294
0.00586653
0.00600809
0.00614471
0.00627268
0.0063882
0.00648804
0.00656938
0.00662929
0.00666621
0.00667963
0.00667595
0.00667376
0.00669502
0.00676552
)
;
    }
    procBoundary1to3
    {
        type            processor;
        value           nonuniform List<scalar> 
45
(
0.00699841
0.00710659
0.00723115
0.00737699
0.0075447
0.00774373
0.00797994
0.00824934
0.00855811
0.00890944
0.00930241
0.00973191
0.0101887
0.0106623
0.0111423
0.0116178
0.0120779
0.0125108
0.0129043
0.0132483
0.0135364
0.0137625
0.0139218
0.0140121
0.0140317
0.0139804
0.0138607
0.0136765
0.0134325
0.0131338
0.0127852
0.0123915
0.0119557
0.0114796
0.0109607
0.0103925
0.00976423
0.0090609
0.00826319
0.00734672
0.00628139
0.00503195
0.00355908
0.0018405
0.000216019
)
;
    }
}


// ************************************************************************* //
