/*--------------------------------*- C++ -*----------------------------------*\
| =========                 |                                                 |
| \\      /  F ield         | OpenFOAM: The Open Source CFD Toolbox           |
|  \\    /   O peration     | Version:  5.0                                   |
|   \\  /    A nd           | Web:      www.OpenFOAM.org                      |
|    \\/     M anipulation  |                                                 |
\*---------------------------------------------------------------------------*/
FoamFile
{
    version     2.0;
    format      ascii;
    class       volScalarField;
    location    "1";
    object      p;
}
// * * * * * * * * * * * * * * * * * * * * * * * * * * * * * * * * * * * * * //

dimensions      [1 -1 -2 0 0 0 0];

internalField   nonuniform List<scalar> 
1915
(
556.986
556.407
509.189
509.091
462.315
461.683
414.805
413.835
366.316
365.755
316.895
317.655
266.612
269.701
215.581
221.961
162.746
174.444
103.058
126.598
925.362
897.375
887.039
871.995
834.304
781.319
720.873
662.215
611.34
570.57
539.746
517.564
502.663
493.999
490.991
492.553
497.861
506.231
516.959
529.253
541.962
553.268
561.547
567.647
571.434
570.56
564.045
551.365
533.453
511.882
490.728
471.552
455.291
441.304
428.548
417.525
410.175
408.597
411.575
416.01
875.015
841.095
850.494
842.042
803.236
744.77
678.546
616.077
563.266
521.426
489.571
465.967
449.125
438.495
432.807
431.402
433.701
439.111
447
456.739
467.499
478.044
487.737
494.802
497.959
496.797
490.21
478.893
463.956
446.454
429.657
414.638
401.566
389.456
377.615
367.128
360.651
360.343
364.692
370.057
843.337
809.474
812.437
797.579
754.292
693.343
627.118
565.778
513.94
472.218
439.391
413.863
394.51
380.734
371.75
366.88
365.634
367.605
372.285
379.317
388.114
398.189
409.499
421.019
427.58
428.478
424.348
415.302
402.15
386.88
371.675
358.841
349.129
339.808
329.35
319.725
313.793
312.62
316.029
321.347
827.979
782.939
766.381
738.389
689.738
628.766
565.604
508.109
459.267
418.649
385.265
358.29
337.223
321.587
310.624
303.306
299.247
298.332
300.188
304.94
312.066
321.371
333.459
345.896
355.421
361.838
363.973
361.563
354.238
340.746
324.808
309.878
299.441
292.99
283.985
274.42
268.453
266.185
267.07
271.475
812.925
750.943
712.984
672.878
619.297
558.397
498.413
445.183
398.657
356.338
324.49
301.105
283.288
270.217
260.61
253.231
248.199
245.396
244.218
245.243
247.953
252.934
262.279
273.801
286.698
297.247
303.811
305.552
301.743
294.676
283.645
268.131
254.964
247.727
240.994
231.044
224.686
221.431
219.854
222.626
784.86
707.726
652.449
603.121
545.733
484.781
427.168
375.14
332.608
300.892
279.85
264.01
252.227
243.788
236.876
231.37
227.644
225.161
223.193
221.974
220.624
218.099
215.036
215.407
225.64
237.122
246.897
251.899
251.603
248.087
239.654
227.639
213.622
204.837
199.798
189.558
182.596
177.96
175.613
177.494
737.279
650.85
584.346
529.141
469.303
408.601
354.29
313.52
288.66
271.819
257.515
246.115
236.875
229.952
223.891
219.289
216.312
215.023
217.089
219.321
220.055
219.685
211.251
195.852
187.939
188.186
196.509
205.018
207.384
203.985
196.96
186.312
172.447
164.88
160.003
149.506
140.977
135.9
132.338
132.486
665.652
579.474
508.8
451.353
391.187
336.74
300.783
282.071
267.229
252.187
239.339
228.674
216.92
203.895
191.925
183.48
179.833
184.219
193.847
203.526
211.969
217.1
215.61
202.289
188.554
171.006
160.189
163.817
167.181
165.361
158.644
146.013
131.46
127.717
120.814
108.692
98.4676
92.5265
88.9161
86.2545
562.928
493.576
426.142
370.946
318.856
287.358
275.24
263.439
249.503
234.405
216.07
197.049
178.616
159.606
143.692
129.005
121.955
131.346
147.958
161.162
173.145
189.881
203.436
201.206
191.168
175.628
152.042
135.65
133.038
131.446
125.486
105.267
90.7312
90.8142
82.0918
65.3371
51.4791
46.0936
43.9286
40.3553
416
391.932
337.886
295.282
269.891
263.872
258.005
243.601
220.938
197.75
173.283
147.558
123.499
104.312
84.7504
64.6487
58.2073
74.6235
96.2441
113.874
126.46
149.271
174.342
185.318
183.16
172.252
150.483
125.155
109.715
102.176
94.0079
70.525
55.2882
54.4198
43.6814
24.4932
13.9795
11.753
11.3399
10.9883
32.3683
33.5215
10.1773
6.44248
11.9801
6.03748
12.8342
10.9056
12.8136
5.86353
12.5672
-6.52841
8.20721
-10.9275
3.0879
-4.15764
2.58358
5.31935
8.27276
14.2054
21.314
24.8262
26.9257
28.145
27.1235
25.8509
24.7935
21.6648
16.3945
9.31038
0.337836
-10.8998
-24.6956
-38.4297
-39.9894
-23.2645
-7.78907
-3.23681
-2.39329
-2.25327
-2.34448
-2.41809
-2.47285
5.23692
-23.7485
-20.2231
-93.9062
-15.5915
-43.0193
-39.3308
-3.87035
-11.7586
-52.5474
-33.3742
43.9359
-19.3138
-53.8918
-17.7835
49.7404
-31.4109
-36.4782
3.60356
49.771
-26.8247
-12.9798
20.4111
46.7832
-11.4449
5.8566
26.6163
40.9458
2.96027
16.1566
26.5044
36.263
13.7583
19.9325
26.4671
33.4842
19.8207
22.5461
27.5125
32.9672
22.7994
25.6609
29.8554
34.1738
26.2444
28.9297
32.2822
36.4606
29.2525
32.1042
36.2105
40.7283
31.454
35.0198
41.0387
45.7266
32.522
37.9491
45.4355
46.9087
31.7028
38.6563
46.0127
42.8477
29.9777
36.5004
44.3167
36.2252
26.6537
33.0664
40.6535
28.1731
21.176
27.2672
34.2532
22.3059
13.6713
18.852
25.2573
18.1089
4.17193
7.95207
12.8896
10.8825
-7.40042
-5.16302
-3.18036
-4.62706
-21.0771
-19.7347
-20.6395
-25.3232
-36.3604
-35.0658
-36.4936
-41.8995
-47.6745
-49.8576
-51.0164
-54.3695
-40.2972
-53.6241
-60.4484
-64.2417
-18.5545
-32.6476
-46.2554
-57.5022
-5.4862
-9.6015
-15.6956
-23.85
-2.78734
-3.10822
-4.02275
-5.60132
-2.33834
-2.4268
-2.60526
-2.84312
-2.39423
-2.41489
-2.4381
-2.48085
-2.46668
-2.50194
-2.53738
-2.58091
-2.51372
-2.55023
-2.58712
-2.62511
198.38
270.273
253.52
243.883
245.351
243.872
230.111
201.837
167.525
136.372
113.29
87.9699
69.0986
54.368
40.77
29.585
31.0391
48.8354
66.0516
78.8302
89.5054
110.378
137.706
155.63
162.642
154.038
134.15
116.291
95.8128
75.3481
60.2324
47.152
30.3351
22.8188
13.3223
4.9042
3.51783
3.60968
3.23447
2.51258
151.03
183.816
200.754
217.736
220.981
207.415
175.327
133.854
100.501
72.0946
56.1466
41.653
34.2085
30.1406
27.7166
25.9506
25.9511
34.0114
40.8664
43.3997
54.1833
74.7189
98.8489
115.389
131.769
136.009
102.911
93.8755
80.3495
54.4983
32.8204
31.012
19.2581
7.08572
3.78137
3.33847
3.37198
3.28486
2.96356
2.67739
138.822
148.096
176.933
189.511
178.096
147.764
102.276
65.1687
45.1281
34.1817
29.4074
27.7618
27.5932
27.4296
27.1328
26.9931
27.1813
28.2979
24.8231
19.818
19.6987
31.7692
54.4822
78.8551
104.693
122.086
93.6782
61.9444
61.0481
45.1556
25.349
19.4925
13.4159
4.56078
3.11855
3.09388
3.10682
2.9192
2.66924
2.43882
109.558
126.302
149.665
144.761
120.963
80.4318
41.0341
28.0043
28.914
28.1545
27.6168
27.4636
27.4081
27.3228
27.2119
27.1905
27.1423
26.8254
26.4797
23.8208
19.6705
14.6164
20.4924
48.6328
93.1494
115.668
98.0584
37.9945
42.3521
37.8868
25.8149
12.6956
7.13874
3.69624
2.81464
2.74889
2.66854
2.48783
2.34423
2.17144
84.3281
102.901
109.961
97.0046
67.4166
31.1257
19.4565
28.2634
28.0239
27.7814
27.5863
27.4591
27.3706
27.2688
27.1665
27.1148
27.0716
26.9645
26.8739
26.6861
26.4516
26.3393
21.0109
29.7482
91.9353
110.264
83.5171
44.8322
33.6355
32.9099
23.8498
7.68131
3.24988
3.00856
2.60866
2.41181
2.22206
2.11776
1.9849
1.91372
67.2826
76.6137
74.8899
58.1793
31.5113
19.0823
29.6937
29.4296
28.2214
27.8244
27.6286
27.4717
27.3419
27.2175
27.102
27.0187
26.9532
26.8811
26.8501
26.8589
26.8493
26.8393
26.7088
24.5463
79.3319
78.3205
65.5626
61.2986
44.8123
26.1368
14.8454
5.07967
2.12087
2.42579
2.33074
2.0525
1.83722
1.8143
1.73097
1.74775
53.6118
55.9107
49.1706
32.0364
23.6311
33.1135
34.0492
30.3722
28.3951
27.9065
27.6492
27.4494
27.2894
27.152
27.0315
26.9327
26.853
26.7811
26.7452
26.7527
26.7894
26.8641
26.928
26.8006
53.2963
45.5665
49.9179
67.9144
52.2692
17.1946
5.32025
3.08841
2.03815
1.95557
1.97905
1.7726
1.5748
1.54016
1.57499
1.61258
43.9475
42.1956
32.1301
26.0458
42.5288
43.1661
36.7414
30.8757
28.0848
27.7656
27.5829
27.3842
27.2133
27.0716
26.949
26.8427
26.7556
26.686
26.6468
26.6512
26.7045
26.7827
27.1286
29.9332
43.4405
34.3171
29.9457
56.1663
40.8763
10.7923
1.8602
1.55957
1.7482
1.7474
1.69669
1.56629
1.41084
1.36514
1.44266
1.47965
37.8907
33.5592
24.767
45.467
68.2278
58.0068
37.9819
28.5901
27.7634
27.5266
27.4709
27.2939
27.127
26.9831
26.854
26.7414
26.6494
26.5786
26.5366
26.5319
26.5571
26.5674
27.0923
30.3283
49.2867
46.5694
29.1541
31.146
20.603
5.25466
1.05094
1.03477
1.38935
1.49845
1.46042
1.38548
1.29197
1.26108
1.31697
1.35395
34.913
29.6145
27.8403
51.6971
66.2118
56.1683
33.8232
29.1331
28.0667
27.5087
27.3816
27.1995
27.034
26.8852
26.7474
26.6275
26.5304
26.4564
26.4074
26.3821
26.352
26.2332
26.6326
29.5636
46.5014
49.2247
40.7579
20.6231
4.68671
1.47832
0.522797
0.744049
1.07321
1.22905
1.24579
1.21024
1.16358
1.15302
1.19398
1.23557
35.235
27.9483
23.1718
34.7366
46.0324
30.6665
24.1929
30.9527
27.8704
27.4055
27.2949
27.0902
26.9261
26.7752
26.6286
26.5006
26.399
26.3228
26.2697
26.2346
26.1848
26.0554
26.306
31.4646
40.0743
44.4128
35.8278
9.95
1.08931
0.328002
0.357642
0.557923
0.83279
0.999739
1.04789
1.04098
1.02339
1.02834
1.06964
1.12024
36.0987
17.7863
5.38532
13.8211
16.9053
2.67159
8.5476
23.7756
23.6435
27.042
27.1654
26.9578
26.8018
26.6537
26.4971
26.3595
26.2545
26.1792
26.1274
26.0918
26.0459
25.9418
26.0384
30.0223
36.0605
34.7228
15.3103
2.74073
0.460204
0.295407
0.341429
0.455735
0.667173
0.82897
0.881803
0.881344
0.87778
0.895718
0.946693
1.00822
33.9693
-0.0502269
-9.93949
-2.76102
-3.61823
-15.2381
-7.14662
14.1371
18.9908
22.1141
26.8331
26.78
26.6724
26.5278
26.3525
26.2015
26.095
26.0249
25.9804
25.9527
25.9257
25.9048
26.0704
29.0896
31.159
20.1717
4.15577
0.900636
0.247309
0.238982
0.266856
0.357147
0.537235
0.700391
0.75243
0.736261
0.729774
0.75978
0.826502
0.896944
26.9152
-12.669
-18.4024
-14.5762
-12.2721
-21.0603
-14.4519
2.63502
15.3049
15.4156
25.1902
26.561
26.5825
26.4213
26.1956
26.0205
25.9159
25.8573
25.8246
25.8084
25.8122
25.9043
25.9472
27.2218
22.9785
8.05639
1.01775
0.018651
0.0344899
0.0962365
0.139479
0.226248
0.393556
0.549372
0.627042
0.617106
0.593327
0.630891
0.708798
0.783514
13.6758
-17.6957
-20.9745
-19.1921
-16.837
-18.5776
-15.9874
-9.40308
4.0449
12.7761
18.8387
26.2487
26.4743
26.3273
26.0164
25.7992
25.7065
25.6699
25.6547
25.6578
25.6622
25.7234
25.1419
21.4305
12.116
2.44511
0.21853
-0.259068
-0.138539
-0.0538581
-0.00252078
0.0739984
0.218068
0.348307
0.441856
0.484971
0.475388
0.512823
0.591078
0.665474
2.73035
-19.5956
-21.6181
-20.5596
-19.8261
-18.0454
-17.0666
-16.2515
-9.43142
6.21731
11.9642
23.1107
26.1327
26.1588
25.7531
25.4995
25.4466
25.4549
25.4864
25.5312
25.491
24.7157
21.3598
13.2182
4.06341
0.366943
-0.283625
-0.308437
-0.234859
-0.182183
-0.140192
-0.0770043
0.0288191
0.158353
0.234689
0.296201
0.34788
0.39863
0.470552
0.53994
-3.35918
-19.7841
-21.4876
-20.6526
-19.408
-18.2467
-18.301
-19.0721
-16.4307
-6.33187
3.53626
15.6216
24.5881
25.7976
25.3045
25.0872
25.126
25.2229
25.3355
25.4077
25.1138
22.5352
14.2658
5.40821
0.67729
-0.232424
-0.468457
-0.403945
-0.342004
-0.300816
-0.265314
-0.218853
-0.152682
-0.0219254
0.0439611
0.109757
0.203538
0.280836
0.34255
0.404901
-7.66669
-19.06
-20.8546
-19.9505
-19.1746
-19.0249
-19.2771
-19.9123
-18.7962
-16.5664
-4.52508
9.75827
22.5095
24.8748
24.6653
24.6129
24.778
24.9944
25.1597
25.0288
23.6139
16.2966
5.83924
0.359565
-0.288431
-0.489495
-0.491379
-0.467977
-0.438495
-0.40695
-0.374555
-0.343642
-0.303953
-0.211949
-0.121368
-0.0302303
0.0819553
0.154387
0.205844
0.260704
-8.81429
-18.6583
-20.5126
-19.8375
-19.6335
-19.6899
-19.881
-20.148
-20.1132
-22.5541
-14.8674
1.92957
19.5618
23.7255
23.9307
24.1091
24.4209
24.7228
24.7016
23.5913
17.0828
7.34174
-0.0519458
-0.783327
-0.574287
-0.594892
-0.573088
-0.554539
-0.532659
-0.504416
-0.472551
-0.444099
-0.420581
-0.370288
-0.252529
-0.131763
-0.0324887
0.0192279
0.0648103
0.110566
-8.87098
-18.4537
-20.412
-20.0789
-20.0266
-20.1252
-20.2596
-20.3482
-21.4817
-28.2854
-25.3625
-6.50275
15.9873
22.6688
23.1259
23.5456
23.9674
24.0833
23.0186
16.7072
8.10816
1.04064
-1.62063
-0.760367
-0.692451
-0.641028
-0.644434
-0.63929
-0.621145
-0.594043
-0.560765
-0.526513
-0.497294
-0.446981
-0.346017
-0.236221
-0.161408
-0.11633
-0.0758504
-0.040665
-8.52901
-18.3716
-20.29
-20.2031
-20.149
-20.242
-20.343
-20.3839
-22.9058
-39.9312
-34.6044
-10.6735
12.4343
20.5813
21.8829
22.7065
22.9459
21.8179
15.3112
7.4316
1.84327
-1.65468
-1.31879
-0.854765
-0.771038
-0.740798
-0.735943
-0.726548
-0.707286
-0.679423
-0.643935
-0.602681
-0.559864
-0.50493
-0.428962
-0.350016
-0.289096
-0.246796
-0.213806
-0.188804
-13.6887
-19.8746
-20.9221
-20.5058
-20.1117
-20.152
-20.5814
-21.8579
-34.7004
-53.7749
-38.0495
-8.70411
9.26025
15.6607
19.4633
20.893
19.3406
12.5803
5.61531
1.15685
-1.60164
-1.44069
-0.987982
-0.950482
-0.852579
-0.829279
-0.82262
-0.812217
-0.792065
-0.763157
-0.726283
-0.682371
-0.635243
-0.581968
-0.519783
-0.458153
-0.408092
-0.372108
-0.348149
-0.331245
-34.936
-40.2535
-31.9019
-22.8296
-22.2962
-22.6488
-24.453
-40.4806
-64.1138
-60.6327
-34.5038
-7.10941
2.42587
8.04096
15.1225
14.4086
8.17329
2.62711
-0.55966
-2.6582
-2.47748
-1.28997
-1.06444
-1.0387
-0.970289
-0.923804
-0.907742
-0.89771
-0.877095
-0.846764
-0.809159
-0.765642
-0.718726
-0.668427
-0.614361
-0.563409
-0.522358
-0.49335
-0.476618
-0.46808
-52.7764
-64.1522
-66.4883
-60.0973
-54.7379
-55.2544
-67.242
-85.2343
-81.5885
-57.2409
-26.4463
-9.3999
-4.79823
1.37716
5.41072
2.56821
-0.898203
-2.43486
-3.57519
-2.95644
-1.42273
-1.18169
-1.18351
-1.14236
-1.07695
-1.02708
-1.00069
-0.987273
-0.964146
-0.931373
-0.892938
-0.850318
-0.804497
-0.75714
-0.709983
-0.667512
-0.633826
-0.611167
-0.60073
-0.597892
-61.7992
-72.3987
-82.0697
-89.4866
-93.7416
-97.21
-98.1878
-91.2348
-70.2107
-41.613
-17.3636
-11.0162
-7.70534
-4.23606
-2.82049
-3.73859
-4.15841
-4.12258
-2.92352
-1.53362
-1.29467
-1.27116
-1.27241
-1.24308
-1.20199
-1.15
-1.10856
-1.08399
-1.05387
-1.0173
-0.977194
-0.935203
-0.891131
-0.84691
-0.805849
-0.77017
-0.742533
-0.725325
-0.720116
-0.721424
-68.7083
-74.5183
-80.3514
-86.8189
-90.9738
-89.7618
-83.5294
-68.3571
-44.9172
-20.1541
-12.691
-9.58173
-8.3808
-6.6984
-5.51562
-4.96837
-4.09051
-2.55786
-1.62062
-1.39601
-1.39135
-1.3991
-1.37975
-1.35675
-1.32764
-1.26816
-1.21817
-1.18114
-1.14348
-1.10329
-1.06165
-1.01951
-0.977554
-0.937464
-0.901406
-0.871076
-0.848467
-0.835874
-0.83491
-0.839435
-66.1768
-71.7917
-73.9461
-74.5965
-73.0258
-66.0852
-52.8349
-33.8402
-19.3171
-12.3939
-8.84221
-8.13953
-7.1988
-5.9863
-4.58874
-3.20702
-2.43148
-1.75792
-1.52327
-1.50906
-1.5231
-1.50982
-1.4793
-1.45512
-1.42321
-1.36569
-1.31498
-1.27198
-1.23014
-1.18792
-1.14573
-1.1043
-1.06458
-1.02804
-0.996169
-0.970279
-0.951892
-0.94315
-0.945578
-0.952644
-34.2397
-43.1285
-46.9142
-45.5873
-41.0195
-32.5869
-24.3058
-17.2422
-10.4218
-7.15778
-6.63232
-5.62086
-3.98423
-3.0835
-2.65666
-2.19141
-1.88116
-1.74119
-1.66636
-1.64652
-1.63394
-1.59911
-1.56036
-1.53033
-1.49617
-1.44758
-1.40048
-1.35651
-1.31346
-1.27082
-1.22906
-1.18897
-1.15156
-1.11818
-1.09003
-1.06796
-1.05315
-1.04759
-1.05268
-1.06176
-8.13169
-10.4203
-12.5048
-14.4469
-15.1693
-13.1351
-8.65934
-5.17058
-5.09968
-5.069
-4.26288
-3.24431
-2.84345
-2.48582
-2.10916
-1.97587
-1.9325
-1.8598
-1.79639
-1.75866
-1.73184
-1.68537
-1.63695
-1.60211
-1.56761
-1.52469
-1.48059
-1.43723
-1.39443
-1.35238
-1.31172
-1.27326
-1.23809
-1.20766
-1.18305
-1.16446
-1.15267
-1.14964
-1.15676
-1.16745
-2.97812
-3.04958
-3.38203
-3.85418
-3.78487
-3.56483
-3.37531
-3.06202
-2.6405
-2.52848
-2.6156
-2.42644
-2.33262
-2.28113
-2.18175
-2.08817
-2.02903
-1.95819
-1.90139
-1.86217
-1.82303
-1.77387
-1.72151
-1.68208
-1.64337
-1.60137
-1.55857
-1.51609
-1.47415
-1.43324
-1.39399
-1.3572
-1.32404
-1.29647
-1.27567
-1.26036
-1.25103
-1.24976
-1.25839
-1.27033
-2.52884
-2.61073
-2.74101
-2.85373
-2.8672
-2.89672
-2.90085
-2.85922
-2.76837
-2.44104
-2.31608
-2.32089
-2.331
-2.30955
-2.24277
-2.16358
-2.09542
-2.03599
-1.98816
-1.94792
-1.90344
-1.85514
-1.80434
-1.76074
-1.71922
-1.67739
-1.6356
-1.59424
-1.55354
-1.5141
-1.47649
-1.44157
-1.41089
-1.38652
-1.36954
-1.35654
-1.34859
-1.34842
-1.3581
-1.37097
-2.62538
-2.66386
-2.67632
-2.67895
-2.67275
-2.66544
-2.6723
-2.66188
-2.61716
-2.51533
-2.43029
-2.40465
-2.38835
-2.34386
-2.27594
-2.20734
-2.15052
-2.101
-2.05763
-2.01677
-1.97329
-1.92672
-1.87977
-1.83584
-1.79392
-1.75297
-1.71254
-1.6727
-1.63358
-1.59616
-1.56126
-1.52958
-1.50285
-1.48058
-1.46582
-1.45344
-1.44562
-1.44611
-1.45648
-1.46991
-2.66078
-2.68944
-2.70268
-2.70639
-2.69998
-2.6947
-2.68808
-2.66785
-2.62616
-2.56311
-2.50431
-2.46703
-2.42865
-2.37348
-2.31091
-2.25452
-2.20722
-2.16243
-2.12021
-2.07956
-2.03893
-1.99647
-1.95224
-1.90907
-1.86805
-1.82897
-1.79044
-1.75279
-1.71612
-1.68164
-1.6508
-1.62335
-1.59964
-1.57988
-1.56261
-1.54941
-1.54215
-1.54332
-1.55405
-1.56768
)
;

boundaryField
{
    leftWall
    {
        type            calculated;
        value           nonuniform 0();
    }
    rightWall
    {
        type            calculated;
        value           nonuniform List<scalar> 
43
(
416.01
370.057
321.347
271.475
222.626
177.494
132.486
86.2545
40.3553
10.9883
2.51258
2.67739
2.43882
2.17144
1.91372
1.74775
1.61258
1.47965
1.35395
1.23557
1.12024
1.00822
0.896944
0.783514
0.665474
0.53994
0.404901
0.260704
0.110566
-0.040665
-0.188804
-0.331245
-0.46808
-0.597892
-0.721424
-0.839435
-0.952644
-1.06176
-1.16745
-1.27033
-1.37097
-1.46991
-1.56768
)
;
    }
    lowerWall
    {
        type            calculated;
        value           nonuniform List<scalar> 
66
(
580.53
579.95
556.407
509.091
461.683
413.835
365.755
317.655
269.701
221.961
174.444
126.598
27.6454
-0.879626
3.30568
-69.9407
925.362
875.015
843.337
827.979
812.925
784.86
737.279
665.652
562.928
416
948.905
920.877
908.282
895.51
857.847
804.863
744.417
685.759
634.883
594.113
563.289
541.107
526.206
517.543
514.535
516.096
521.404
529.774
540.503
552.796
565.42
576.64
584.935
591.105
594.955
594.099
587.588
574.909
556.996
535.425
514.272
495.096
478.834
464.847
452.092
441.06
433.706
432.138
435.118
439.508
)
;
    }
    atmosphere
    {
        type            calculated;
        value           nonuniform 0();
    }
    defaultFaces
    {
        type            empty;
    }
    procBoundary1to0
    {
        type            processor;
        value           nonuniform List<scalar> 
44
(
558.628
509.88
462.015
414.055
365.049
314.736
263.079
209.945
154.672
96.2743
39.8066
15.5591
13.2904
13.4281
13.616
13.6754
13.6497
13.2385
11.1584
10.3798
16.2703
16.2703
22.8918
27.1897
28.1674
26.5924
24.3096
21.5141
17.0845
11.2973
4.08684
-4.92418
-16.4188
-29.3739
-35.428
-24.9668
-10.4159
-2.81394
-2.09642
-2.09119
-2.17775
-2.28674
-2.36586
-2.42968
)
;
    }
    procBoundary1to3
    {
        type            processor;
        value           nonuniform List<scalar> 
45
(
-2.52449
-2.55884
-2.58987
-2.61981
-2.64916
-2.67688
-2.70004
-2.71517
-2.72232
-2.71993
-2.71296
-2.70005
-2.67648
-2.63914
-2.59118
-2.55009
-2.51349
-2.46439
-2.4083
-2.35641
-2.30985
-2.26597
-2.22329
-2.18203
-2.14274
-2.10455
-2.06438
-2.02223
-1.98017
-1.9416
-1.90589
-1.86998
-1.83514
-1.80274
-1.77209
-1.74461
-1.72061
-1.69733
-1.67575
-1.65746
-1.645
-1.63874
-1.64045
-1.65116
-1.66464
)
;
    }
}


// ************************************************************************* //
