/*--------------------------------*- C++ -*----------------------------------*\
| =========                 |                                                 |
| \\      /  F ield         | OpenFOAM: The Open Source CFD Toolbox           |
|  \\    /   O peration     | Version:  5.0                                   |
|   \\  /    A nd           | Web:      www.OpenFOAM.org                      |
|    \\/     M anipulation  |                                                 |
\*---------------------------------------------------------------------------*/
FoamFile
{
    version     2.0;
    format      ascii;
    class       volScalarField;
    location    "1";
    object      p_rgh;
}
// * * * * * * * * * * * * * * * * * * * * * * * * * * * * * * * * * * * * * //

dimensions      [1 -1 -2 0 0 0 0];

internalField   nonuniform List<scalar> 
1915
(
580.53
579.95
579.82
579.721
580.032
579.401
579.61
578.639
578.207
577.646
575.874
576.633
572.677
575.767
568.733
575.113
562.986
574.683
550.384
573.924
948.905
920.877
908.282
895.51
857.847
804.863
744.417
685.759
634.883
594.113
563.289
541.107
526.206
517.543
514.535
516.096
521.404
529.774
540.503
552.796
565.42
576.64
584.935
591.105
594.955
594.099
587.588
574.909
556.996
535.425
514.272
495.096
478.834
464.847
452.092
441.06
433.706
432.138
435.118
439.508
945.334
908.894
919.189
912.673
873.867
815.4
749.176
686.707
633.896
592.056
560.201
536.597
519.755
509.125
503.438
502.032
504.33
509.739
517.624
527.356
538.09
548.389
553.282
557.089
560.889
560.753
556.717
547.59
533.952
516.901
500.285
485.269
472.194
460.084
448.245
437.696
430.927
430.782
435.296
440.642
959.947
923.358
930.156
915.296
872.01
811.061
744.835
683.496
631.657
589.935
557.109
531.579
512.227
498.452
489.468
484.597
483.349
485.313
489.973
496.967
505.726
515.686
523.507
522.221
523.961
523.664
519.105
510.03
499.037
485.228
480.414
475.04
466.841
457.521
447.063
437.438
427.754
428.784
433.685
439.065
992.621
947.313
931.185
903.193
854.541
793.564
730.407
672.914
624.071
583.453
550.07
523.093
501.979
486.391
475.427
468.097
464.044
463.111
464.93
469.608
476.558
485.454
497.412
509.75
519.008
516.205
508.285
494.198
476.03
461.916
445.704
440.263
455.74
457.787
448.783
439.131
424.673
420.958
430.99
436.28
1024.76
962.826
924.874
884.768
831.187
770.285
710.303
657.075
610.551
568.266
526.956
490.465
466.606
451.615
444.41
440.291
437.933
440.931
446.798
453.268
458.665
463.737
472.95
484.269
497.111
507.69
514.245
516.019
511.455
469.503
438.025
422.511
411.946
456.466
452.876
441.41
422.553
417.404
430.707
434.518
1043.84
966.697
911.422
862.097
804.713
743.758
686.127
634.051
562.39
414.464
357.725
339.203
326.056
317.446
318.754
317.886
317.274
323.015
334.243
357.193
393.453
431.255
460.551
472.089
482.653
494.308
504.135
509.137
508.841
505.289
469.635
416.326
403.437
426.739
458.733
441.244
421.083
417.417
433.3
419.625
1043.34
956.914
890.402
835.207
775.337
714.468
658.592
495.031
367.116
345.506
331.461
320.235
311.104
304.462
299.255
297.173
298.238
298.831
296.961
296.767
292.553
286.375
334.776
413.181
476.096
491.378
500.348
509.032
511.366
507.939
500.837
453.101
398.239
411.271
465.8
451.882
425.976
415.194
429.763
435.518
1018.8
932.627
861.957
804.461
744.141
687.441
505.886
367.875
352.496
337.223
324.606
314.131
305.249
340.406
371.107
384.853
385.908
357.006
312.598
295.853
284.276
281.081
271.138
249.14
306.119
409.87
498.776
514.151
517.913
515.989
509.074
494.672
394.41
374.713
473.379
460.146
442.662
415.087
412.662
439.407
963.167
893.816
826.36
771.091
717.149
546.784
373.264
361.036
346.724
330.407
312.626
418.361
506.914
498.308
479.134
462.648
452.082
455.058
461.977
395.826
364.588
337.851
282.513
251.591
239.015
221.171
310.027
488.078
529.944
528.634
521.774
466.559
351.456
360.227
481.377
462.528
441.39
419.225
389.057
380.776
863.328
839.253
785.091
741.103
587.445
383.808
373.046
353.157
369.925
551.119
551.211
528.797
504.627
485.44
463.304
421.736
351.024
331.736
357.314
376.814
381.368
398.912
402.765
238.709
234.274
221.353
195.497
240.225
502.705
544.563
503.468
313.905
243.602
383.757
475.877
364.488
229.891
182.655
176.642
194.227
510.975
525.901
171.588
215.482
12.5838
6.6413
13.4881
11.5595
13.5224
58.4066
15.415
283.091
146.39
714.923
426.809
807.072
797.719
859.244
914.054
915.839
977.106
1005.68
968.08
996.707
1124.05
1278.01
1344.43
1398.24
1449.63
1499.52
1547.97
1594.67
1639.34
1684.6
1601.93
846.688
332.193
52.0187
0.0712083
-0.136217
-0.190583
-0.202532
-0.193282
467.924
448.444
465.595
400.929
100.718
206.949
496.719
538.839
-4.82075
384.665
556.263
634.81
138.15
582.046
619.282
688.268
539.681
644.704
688.64
730.924
698.262
713.908
750.857
727.242
757.665
780.118
785.821
617.965
816.83
830.297
705.245
660.009
874.299
848.127
708.285
710.068
912.246
749.105
758.239
757.814
872.618
802.941
807.222
801.727
851.049
851.539
853.661
933.105
900.685
903.467
901.811
1036.59
948.778
951.77
1031.75
1113.27
1022.2
1085.47
1218.74
1195.32
1265.87
1280.05
1286.16
1261.16
1347.85
1350.52
1351.36
1278.81
1402.28
1406.34
1410.39
1231.69
1453.98
1459.26
1463.61
1220.82
1503.77
1508.55
1513.02
1297.81
1551.79
1555.38
1559.23
1433.89
1598.15
1600.35
1601.86
1564.55
1642.95
1644.27
1643.15
1623.33
1686.67
1687.96
1686.5
1679.23
1734.91
1732.71
1731.55
1728.16
1487.86
1786.69
1782.18
1778.19
584.811
1050.8
1582.61
1845.43
61.7337
178.198
489.3
969.268
-0.245652
9.74937
39.3293
68.3057
-0.221652
-0.245087
-0.306502
-0.487933
-0.240786
-0.258099
-0.277812
-0.335261
-0.251153
-0.286398
-0.32173
-0.365443
-0.234157
-0.270668
-0.307563
-0.345548
693.207
765.023
747.01
599.688
398.76
386.914
362.785
541.511
581.261
558.224
535.143
509.822
490.176
416.325
270.071
149.132
118.579
179.559
296.249
360.812
290.906
300.904
363.072
276.93
217.702
203.833
180.395
156.683
219.936
471.692
380.847
146.159
170.928
283.352
210.6
38.4271
4.05568
4.12821
3.73382
3.00742
693.88
725.359
607.313
415.034
403.799
384.394
586.018
585.226
556.112
533.472
468.954
241.454
132.979
71.6057
41.6265
31.4173
66.5525
228.646
294.184
315.719
248.034
266.359
298.145
368.078
290.992
218.556
195.229
135.64
105.841
148.377
220.936
71.8582
42.2466
57.6934
10.399
4.06849
4.08576
4.29234
3.87028
3.24235
728.789
692.026
433.036
425.041
449.488
589.719
573.83
549.797
467.252
134.816
51.5325
28.8547
28.1851
28.0227
27.7332
27.6203
46.9005
180.979
237.014
228.914
275.852
310.841
337.884
362.577
390.753
208.517
142.365
180.794
88.0962
71.2634
96.5845
75.9155
14.1354
11.3286
7.8156
3.90553
4.60022
5.42667
5.17434
3.47507
719.635
478.685
450.355
516.755
602.79
568.768
542.594
364.189
75.1693
29.3988
28.2994
28.1043
28.0487
27.9634
27.8522
27.8239
27.7734
27.4459
28.9077
63.9609
116.432
232.69
324.977
355.533
399.253
342.594
105.841
162.279
81.6866
66.1594
93.6068
80.45
7.8498
4.37017
3.49915
4.39041
5.38764
5.20898
5.058
3.83035
631.494
487.065
562.211
632.604
594.268
549.945
362.705
45.1984
29.3674
28.5242
28.277
28.1492
28.0608
27.9589
27.8566
27.805
27.7618
27.6546
27.5641
27.3768
27.1582
27.2161
111.506
356.204
420.766
434.558
90.9514
59.6898
100.141
63.8919
93.5162
58.001
4.57137
3.72572
3.31709
4.175
5.15241
5.04126
4.65513
2.62648
555.526
552.637
658.153
639.049
605.41
444.974
44.7646
30.8647
29.0552
28.6147
28.4149
28.2532
28.0859
27.9576
27.8421
27.7588
27.6933
27.6212
27.5902
27.5992
27.5908
27.5924
27.611
90.9465
431.881
200.548
72.6405
68.3765
108.328
68.9245
53.4195
11.6967
7.07638
3.19013
3.09045
3.14171
3.78592
4.91694
2.69633
2.48787
610.716
687.318
675.095
659.572
565.596
74.3651
35.6342
31.4056
29.3481
28.8659
28.6216
28.4237
28.1953
27.9425
27.8221
27.7233
27.6435
27.5717
27.5358
27.5432
27.58
27.6544
27.7257
27.7867
395.856
83.6955
65.0419
75.4745
82.1927
59.6416
28.1933
4.53032
3.30728
3.33214
2.78911
2.56966
2.37121
3.85166
2.37672
2.43094
667.275
716.122
706.879
662.442
164.195
44.9011
37.9565
32.0698
29.2851
29.1326
28.5675
28.421
28.1935
27.913
27.7905
27.6842
27.5971
27.5274
27.4883
27.4926
27.5458
27.6225
27.9865
30.9238
110.133
141.634
136.475
83.5864
51.5197
27.2886
15.132
4.17639
2.86073
2.96291
2.55822
2.41398
2.2581
2.21113
2.29338
2.37743
760.425
753.496
744.023
400.367
73.6888
61.461
39.823
42.9258
28.7211
28.4744
28.3754
28.2479
28.0415
27.876
27.747
27.6343
27.5422
27.4714
27.4294
27.4247
27.4499
27.4604
27.9357
32.1631
72.2748
184.679
165.418
131.261
30.2806
8.86121
5.57369
3.91525
2.42623
2.47459
2.36179
2.28485
2.19035
2.15872
2.22139
2.24676
808.165
802.502
691.317
88.4292
88.4117
117.605
234.543
54.2639
29.0689
28.459
28.3279
28.1446
27.9787
27.8301
27.6922
27.5721
27.4751
27.4011
27.3521
27.3268
27.2967
27.1779
27.5778
98.7364
186.022
194.943
186.301
116.464
13.1303
3.4597
2.13831
2.5555
2.29826
2.21259
2.23066
2.16405
2.11462
2.10285
2.20576
2.18515
858.141
846.732
441.575
87.0126
89.7903
301.769
317.724
234.086
29.9341
28.4987
28.284
28.0868
27.9231
27.7722
27.6256
27.4976
27.396
27.3198
27.2667
27.2316
27.1819
27.0534
27.3161
174.711
193.857
198.184
189.743
26.4109
3.0987
1.78649
1.61536
1.80668
1.98124
2.02127
2.06908
2.04602
2.02788
2.06061
2.13829
2.12873
933.288
755.912
54.264
78.2181
112.414
311.753
317.629
332.857
261.337
28.9548
28.1577
28.008
27.8516
27.7035
27.5469
27.4093
27.3043
27.229
27.1772
27.1416
27.0956
26.9945
27.136
126.037
195.736
196.791
95.3125
5.2213
1.86847
1.5494
1.47044
1.60881
1.75406
1.8922
1.94163
1.94035
1.93637
2.02249
2.07271
2.06469
1003.15
535.898
18.6176
49.634
220.78
306.697
249.809
313.767
728.441
362.242
28.3035
27.8963
27.7761
27.6309
27.4556
27.3046
27.1981
27.128
27.0836
27.0561
27.0282
27.0131
27.3357
108.089
194.282
188.57
15.461
2.51901
1.48229
1.41037
1.38626
1.4951
1.70729
2.05783
1.95993
1.84986
1.88319
1.94366
1.95637
2.00006
990.103
173.953
1.05934
50.0528
309.381
310.151
1.91234
254.109
789.776
803.295
29.1401
27.9016
27.7271
27.5789
27.3526
27.1774
27.0728
27.0142
26.9819
26.9668
26.9709
27.0426
27.509
166.975
188.253
114.136
10.8461
1.42054
1.23444
1.2673
1.2992
1.39742
1.75852
3.35042
3.62399
2.22364
1.90015
1.78917
1.86578
1.94043
868.415
2.7028
-6.20416
44.5753
291.695
186.448
-3.92096
41.0278
646.507
1014.62
543.698
28.1748
27.7487
27.5448
27.2283
27.0105
26.9178
26.8857
26.8676
26.881
26.9191
27.1065
82.3372
183.099
183.934
13.9897
1.87217
1.01257
1.08345
1.16136
1.20953
1.28813
2.70914
3.49539
3.58142
3.6671
2.15107
1.72658
1.80242
1.87669
666.628
-4.21543
-9.00411
40.8883
124.668
2.02538
-5.31712
-3.63981
304.329
1074.63
1131.85
94.2072
27.7732
27.7618
27.03
26.766
26.7128
26.7764
26.7843
26.8447
27.0299
27.1568
167.502
170.942
129.499
13.9644
1.21802
0.974818
1.03409
1.08447
1.12617
1.18979
3.2456
3.42837
3.51799
3.59276
2.62429
1.66893
1.73677
1.80596
456.073
-6.82302
-9.08952
12.0151
-5.85267
-6.13941
-6.0863
-6.6196
64.2508
1059.43
1248.71
773.412
64.3645
29.217
26.6332
26.4107
26.4478
26.5985
26.7451
26.9362
27.3728
46.1391
166.251
166.792
11.57
1.50005
0.900725
0.921374
0.979897
1.02072
1.05628
1.10281
2.42237
3.40654
3.48253
3.5488
2.32078
1.60518
1.66401
1.72624
237.48
-6.13858
-8.90064
-8.34958
-7.37916
-6.37792
-6.55008
-6.62854
-1.97347
853.422
1293.26
1218.38
272.461
30.3234
26.0607
25.9995
26.1571
26.3865
26.6676
27.2653
33.9429
135.086
153.413
119.728
10.3933
1.09575
0.898069
0.910406
0.938809
0.970248
1.00284
1.03379
1.08235
3.33398
3.45017
3.15183
1.64795
1.53261
1.58305
1.63787
217.502
-5.10046
-7.06994
-6.96945
-6.39343
-6.45181
-6.63448
-6.91836
-6.73075
758.11
1342
1350.98
519.929
28.9457
25.4144
25.5622
25.8695
26.2844
26.9764
32.9861
121.196
146.655
148.242
8.74106
1.2496
0.881761
0.862929
0.879114
0.900881
0.929115
0.961259
0.989719
1.01325
1.75762
2.56566
1.68603
1.41787
1.45299
1.49833
1.54408
283.713
-4.20098
-6.40013
-5.81583
-6.2778
-6.34601
-6.64524
-6.59652
-7.72273
868.34
1398.52
1407.94
662.235
29.2205
24.8366
25.0878
25.5895
26.4452
33.2486
119.307
143.776
138.313
104.114
8.69941
0.99841
0.860866
0.846668
0.851139
0.869256
0.896357
0.930008
0.964183
0.993462
1.04669
1.20641
1.26157
1.33005
1.37412
1.41454
1.44972
487.562
-3.69424
-5.63869
-5.51205
-5.53668
-6.14609
-6.07963
-6.19914
-8.5328
1187.1
1453.31
1468.15
666.056
27.1671
25.0894
24.4823
25.4709
37.4237
123.607
145.311
140.119
139.238
12.2325
1.13382
0.824295
0.809307
0.811899
0.821248
0.840512
0.868375
0.903903
0.94519
1.00204
1.1025
1.15578
1.20008
1.25879
1.30099
1.33398
1.35902
961.948
56.2457
-6.16737
-5.57374
-5.2444
-5.41579
-5.77489
-7.1037
509.771
1477.35
1507.87
1535.03
356.492
23.1343
24.1228
23.8651
43.398
137.453
151.239
144.64
141.439
100.123
8.19869
0.888006
0.772356
0.77746
0.783117
0.793504
0.813665
0.842572
0.884771
0.994444
1.05933
1.10886
1.14493
1.15103
1.19763
1.23361
1.25756
1.27462
1520.2
970.924
374.462
-4.20135
-6.87132
-7.18502
-9.03148
206.328
1369.94
1566.4
1579.91
1198.8
134.668
25.0093
23.5958
66.7103
163.457
155.61
149.484
147.382
114.947
2.16506
1.12206
1.04115
0.939244
0.791073
0.75642
0.76647
0.787098
0.81745
0.880459
0.990634
1.03755
1.06746
1.0741
1.10158
1.14182
1.17083
1.18756
1.1962
1667.55
1647.8
1509.81
1048.36
724.668
642.764
924.826
1495.78
1623.69
1634.73
1658.4
545.518
43.4686
32.929
103.206
160.171
159.083
155.168
153.833
113.569
1.83031
1.06132
0.922865
1.32695
1.41038
0.826386
0.722486
0.735916
0.759044
0.79185
0.846571
0.965118
1.01406
0.976997
1.01331
1.05568
1.08937
1.11203
1.12269
1.12534
1720.25
1708.63
1697.59
1688.94
1668.06
1658.9
1678.01
1681.85
1701.27
1722.6
1023.92
96.4526
67.8301
114.7
159.964
158.908
158.892
157.197
97.7143
1.22775
0.677017
0.850025
0.809405
1.32317
1.34774
0.694426
0.674185
0.698759
0.728879
0.765712
0.809645
0.859389
0.910018
0.935979
0.976911
1.01258
1.04022
1.05744
1.0631
1.06138
1773.57
1767.47
1760.72
1753.49
1749.08
1748.19
1754.1
1767.73
1740.17
1175.8
120.536
93.9043
102.962
155.634
159.387
162.745
156.116
63.8738
0.667369
0.603187
0.685661
0.73757
0.755126
1.04635
0.682096
0.574694
0.624689
0.661713
0.699385
0.739649
0.781258
0.823449
0.865432
0.905414
0.941456
0.971786
0.994394
1.00699
1.00843
1.00346
1836.45
1830.09
1827.58
1826.68
1827.86
1834.55
1831.68
1656
652.998
93.4016
91.8655
135.664
152.862
159.051
164.178
116.279
7.85945
0.226189
0.391122
0.485106
0.588959
0.77744
0.504018
0.558398
0.480316
0.537837
0.588544
0.631543
0.673393
0.715606
0.757805
0.79924
0.838963
0.875494
0.907367
0.933254
0.951763
0.962157
0.958358
0.950883
1422.66
1660.04
1777.5
1737.83
1639.76
1430.92
943.787
216.755
98.777
90.9405
88.6942
115.881
134.086
100.855
17.6909
-0.287432
0.0874915
0.221097
0.321259
0.392763
0.801853
0.919992
0.418477
0.434434
0.468591
0.517184
0.564282
0.608246
0.651301
0.693941
0.735702
0.775795
0.813199
0.846586
0.874739
0.896806
0.911634
0.919252
0.912249
0.902998
177.215
354.474
608.32
576.125
433.816
327.844
327.376
294.108
136.706
85.2397
53.1703
19.963
-0.546616
-0.390741
-0.066712
0.0557061
0.0958749
0.169481
0.248324
0.708199
0.789498
0.819192
0.389609
0.424449
0.458947
0.501867
0.545975
0.589327
0.632135
0.674182
0.714843
0.7533
0.788471
0.818905
0.843517
0.863079
0.881125
0.877801
0.869799
0.859108
-0.589792
-0.672411
9.16509
53.7152
124.165
121.437
86.4403
64.6659
80.5213
62.0703
2.08882
-0.380288
-0.225893
-0.171223
-0.0886417
0.00266575
0.0614492
0.132942
0.352374
0.586537
0.50944
0.31507
0.367425
0.406854
0.445571
0.487571
0.530365
0.572852
0.614784
0.655693
0.694945
0.731737
0.764896
0.792469
0.8133
0.838179
0.845775
0.83918
0.830551
0.818607
-0.374324
-0.458485
-0.589067
-0.603992
1.6438
-0.744923
-0.748962
-0.707326
-0.616483
-0.289141
-0.162898
-0.167998
-0.175388
-0.0805824
-0.00605676
9.01802e-05
0.0571518
0.121933
0.232217
0.240596
0.248519
0.296779
0.347551
0.391149
0.432669
0.474501
0.516294
0.557648
0.598354
0.637797
0.675401
0.710319
0.741007
0.765405
0.819027
0.833196
0.806202
0.80347
0.793788
0.780927
-0.410154
-0.448429
-0.460895
-0.463519
-0.457319
-0.450009
-0.456872
-0.446449
-0.401726
-0.299903
-0.214859
-0.166653
0.0591821
0.120923
0.169171
0.0220073
0.0650935
0.128407
0.158019
0.198822
0.242247
0.288776
0.335672
0.379594
0.421507
0.462457
0.502893
0.542727
0.581853
0.619265
0.65415
0.686808
0.855861
1.01326
0.848169
0.762016
0.769816
0.769324
0.758949
0.745523
-0.381218
-0.409886
-0.423125
-0.426833
-0.420426
-0.415144
-0.408517
-0.388287
-0.346605
-0.283548
-0.224713
0.143583
0.177851
0.15495
-0.0263093
0.0251631
0.0724328
0.12007
0.159512
0.200937
0.24096
0.283396
0.327546
0.370548
0.411516
0.450594
0.489117
0.526769
0.563462
0.600159
0.746623
0.987158
1.00292
1.00119
0.725618
0.730148
0.737409
0.736238
0.725514
0.711878
)
;

boundaryField
{
    leftWall
    {
        type            fixedFluxPressure;
        gradient        nonuniform 0();
        value           nonuniform 0();
    }
    rightWall
    {
        type            fixedFluxPressure;
        gradient        uniform 0;
        value           nonuniform List<scalar> 
43
(
439.508
440.642
439.065
436.28
434.518
419.625
435.518
439.407
380.776
194.227
3.00742
3.24235
3.47507
3.83035
2.62648
2.48787
2.43094
2.37743
2.24676
2.18515
2.12873
2.06469
2.00006
1.94043
1.87669
1.80596
1.72624
1.63787
1.54408
1.44972
1.35902
1.27462
1.1962
1.12534
1.06138
1.00346
0.950883
0.902998
0.859108
0.818607
0.780927
0.745523
0.711878
)
;
    }
    lowerWall
    {
        type            fixedFluxPressure;
        gradient        uniform 0;
        value           nonuniform List<scalar> 
66
(
580.53
579.95
579.95
579.721
579.401
578.639
577.646
576.633
575.767
575.113
574.683
573.924
467.924
448.444
465.595
400.929
948.905
945.334
959.947
992.621
1024.76
1043.84
1043.34
1018.8
963.167
863.328
948.905
920.877
908.282
895.51
857.847
804.863
744.417
685.759
634.883
594.113
563.289
541.107
526.206
517.543
514.535
516.096
521.404
529.774
540.503
552.796
565.42
576.64
584.935
591.105
594.955
594.099
587.588
574.909
556.996
535.425
514.272
495.096
478.834
464.847
452.092
441.06
433.706
432.138
435.118
439.508
)
;
    }
    atmosphere
    {
        type            totalPressure;
        rho             rho;
        psi             none;
        gamma           1;
        p0              nonuniform 0();
        value           nonuniform 0();
    }
    defaultFaces
    {
        type            empty;
    }
    procBoundary1to0
    {
        type            processor;
        value           nonuniform List<scalar> 
44
(
582.134
580.511
579.733
578.859
576.941
573.714
569.145
563.097
554.911
543.592
497.515
133.765
13.8942
14.0861
14.3727
14.4924
16.1597
31.9585
165.306
437.164
974.031
974.031
1034.93
1103.21
1168.03
1232.36
1287.24
1341.91
1393.96
1444.64
1494.32
1542.72
1589.15
1634.66
1622.7
1011.75
343.913
155.179
14.5511
0.120957
-0.0740001
-0.133681
-0.150344
-0.150113
)
;
    }
    procBoundary1to3
    {
        type            processor;
        value           nonuniform List<scalar> 
45
(
-0.180206
-0.214553
-0.245587
-0.275531
-0.304871
-0.332598
-0.35576
-0.370886
-0.378034
-0.375649
-0.368673
-0.355765
-0.332194
-0.294852
-0.2469
-0.0635526
0.19824
0.15983
-0.0637681
-0.0121011
0.0345658
0.078336
0.121018
0.162298
0.206935
0.263724
0.331659
0.402274
0.394318
0.403096
0.438423
0.475458
0.526951
0.754009
0.932687
0.955875
0.975506
0.872911
0.668566
0.686822
0.69928
0.705548
0.703833
0.693123
0.679649
)
;
    }
}


// ************************************************************************* //
