/*--------------------------------*- C++ -*----------------------------------*\
| =========                 |                                                 |
| \\      /  F ield         | OpenFOAM: The Open Source CFD Toolbox           |
|  \\    /   O peration     | Version:  5.0                                   |
|   \\  /    A nd           | Web:      www.OpenFOAM.org                      |
|    \\/     M anipulation  |                                                 |
\*---------------------------------------------------------------------------*/
FoamFile
{
    version     2.0;
    format      ascii;
    class       surfaceScalarField;
    location    "1";
    object      phi;
}
// * * * * * * * * * * * * * * * * * * * * * * * * * * * * * * * * * * * * * //

dimensions      [0 3 -1 0 0 0 0];

internalField   nonuniform List<scalar> 
3731
(
1.20272e-06
-3.98344e-07
1.20273e-06
-1.95384e-07
-8.24881e-07
1.00734e-06
-8.87132e-07
-1.22582e-06
1.20211e-07
-1.03203e-06
-1.59723e-06
-9.11817e-07
-8.61345e-07
-1.83607e-06
-1.77316e-06
-4.42416e-07
-1.85905e-06
-2.21558e-06
2.06456e-07
-1.6322e-06
-2.00912e-06
1.02829e-06
-1.12376e-06
-9.80829e-07
2.02509e-06
-3.43913e-07
1.04426e-06
3.57266e-06
2.51363e-07
4.61692e-06
1.00173e-05
-1.00173e-05
9.01179e-06
1.00547e-06
1.01299e-06
7.9988e-06
-9.10186e-06
1.01149e-05
-1.93593e-05
1.02574e-05
-2.86514e-05
9.29209e-06
-3.61874e-05
7.53599e-06
-4.17775e-05
5.59017e-06
-4.56546e-05
3.87708e-06
-4.82086e-05
2.55399e-06
-4.97803e-05
1.57165e-06
-5.05825e-05
8.02212e-07
-5.06806e-05
9.80811e-08
-5.0185e-05
-4.95564e-07
-4.91529e-05
-1.03214e-06
-4.76426e-05
-1.51024e-06
-4.57041e-05
-1.93852e-06
-4.33613e-05
-2.3428e-06
-4.0624e-05
-2.73734e-06
-3.74949e-05
-3.12907e-06
-3.39761e-05
-3.51876e-06
-3.01066e-05
-3.86954e-06
-2.6081e-05
-4.02555e-06
-2.20024e-05
-4.07866e-06
-1.77116e-05
-4.29076e-06
-1.32827e-05
-4.42895e-06
-8.75614e-06
-4.52654e-06
-4.31485e-06
-4.44129e-06
-3.14544e-07
-4.00031e-06
2.89914e-06
-3.21368e-06
5.31178e-06
-2.41264e-06
6.98182e-06
-1.67005e-06
8.25055e-06
-1.26872e-06
9.46935e-06
-1.21881e-06
1.06023e-05
-1.13294e-06
1.11704e-05
-5.68087e-07
1.03155e-05
8.54897e-07
7.63964e-06
2.67584e-06
3.50571e-06
4.13394e-06
3.50571e-06
1.63503e-06
-1.16523e-05
-4.02584e-06
6.66635e-06
-1.30502e-05
1.70231e-05
-2.31052e-05
2.01699e-05
-3.2063e-05
1.92152e-05
-3.90004e-05
1.62294e-05
-4.39217e-05
1.24573e-05
-4.72417e-05
8.91022e-06
-4.94143e-05
6.04961e-06
-5.07776e-05
3.91732e-06
-5.15182e-05
2.31229e-06
-5.17296e-05
1.01363e-06
-5.14983e-05
-1.33277e-07
-5.08028e-05
-1.19106e-06
-4.96535e-05
-2.18144e-06
-4.80922e-05
-3.07148e-06
-4.61652e-05
-3.86554e-06
-4.39023e-05
-4.60568e-06
-4.13287e-05
-5.31094e-06
-3.84738e-05
-5.98404e-06
-3.53733e-05
-6.61923e-06
-3.20419e-05
-7.20094e-06
-2.84291e-05
-7.63835e-06
-2.45788e-05
-7.92899e-06
-2.05179e-05
-8.35165e-06
-1.63202e-05
-8.62663e-06
-1.21164e-05
-8.73038e-06
-8.04483e-06
-8.51281e-06
-4.28131e-06
-7.76383e-06
-1.16735e-06
-6.32764e-06
1.19176e-06
-4.77176e-06
2.85127e-06
-3.32956e-06
4.09681e-06
-2.51426e-06
5.23117e-06
-2.35317e-06
6.26457e-06
-2.16634e-06
6.95729e-06
-1.26081e-06
6.98192e-06
8.30266e-07
6.12672e-06
3.53105e-06
3.96908e-06
6.29158e-06
7.47479e-06
-5.40848e-06
-6.24381e-06
-1.35342e-05
1.47921e-05
-2.18151e-05
2.53039e-05
-2.95067e-05
2.78615e-05
-3.58809e-05
2.55894e-05
-4.07785e-05
2.11271e-05
-4.44564e-05
1.61352e-05
-4.71676e-05
1.16214e-05
-4.91111e-05
7.99302e-06
-5.04276e-05
5.23388e-06
-5.11849e-05
3.06957e-06
-5.14145e-05
1.24323e-06
-5.115e-05
-3.97787e-07
-5.04103e-05
-1.93074e-06
-4.92329e-05
-3.35884e-06
-4.76755e-05
-4.62892e-06
-4.57885e-05
-5.75256e-06
-4.36019e-05
-6.79221e-06
-4.11458e-05
-7.76711e-06
-3.84558e-05
-8.67403e-06
-3.55855e-05
-9.48954e-06
-3.25795e-05
-1.02069e-05
-2.93738e-05
-1.08441e-05
-2.5892e-05
-1.14108e-05
-2.22285e-05
-1.20152e-05
-1.84517e-05
-1.24034e-05
-1.45868e-05
-1.25954e-05
-1.07383e-05
-1.23612e-05
-7.08379e-06
-1.14184e-05
-3.92636e-06
-9.48507e-06
-1.55652e-06
-7.14159e-06
-2.43885e-08
-4.86169e-06
1.01845e-06
-3.55709e-06
1.96984e-06
-3.30457e-06
2.87165e-06
-3.06815e-06
3.53987e-06
-1.92902e-06
3.79162e-06
5.78504e-07
3.62349e-06
3.69918e-06
2.88069e-06
7.03438e-06
1.03555e-05
-9.72112e-06
3.47731e-06
-1.85935e-05
2.36645e-05
-2.60573e-05
3.27678e-05
-3.2179e-05
3.39832e-05
-3.70961e-05
3.05065e-05
-4.10082e-05
2.50392e-05
-4.41175e-05
1.92444e-05
-4.65334e-05
1.40373e-05
-4.83571e-05
9.81671e-06
-4.9675e-05
6.55183e-06
-5.04849e-05
3.87949e-06
-5.07567e-05
1.51495e-06
-5.05033e-05
-6.51119e-07
-4.97651e-05
-2.66899e-06
-4.85968e-05
-4.52709e-06
-4.70682e-05
-6.15755e-06
-4.52277e-05
-7.59306e-06
-4.30995e-05
-8.92037e-06
-4.07156e-05
-1.01511e-05
-3.81079e-05
-1.12817e-05
-3.53321e-05
-1.22654e-05
-3.24474e-05
-1.30916e-05
-2.9453e-05
-1.38385e-05
-2.63599e-05
-1.45039e-05
-2.32093e-05
-1.51657e-05
-1.99662e-05
-1.56465e-05
-1.66331e-05
-1.59285e-05
-1.32134e-05
-1.57809e-05
-9.77999e-06
-1.48518e-05
-6.58421e-06
-1.26808e-05
-4.0486e-06
-9.6772e-06
-2.48713e-06
-6.42315e-06
-1.71202e-06
-4.33221e-06
-1.01459e-06
-4.002e-06
-2.43983e-07
-3.83876e-06
4.2619e-07
-2.59919e-06
9.35925e-07
6.87701e-08
1.27095e-06
3.36415e-06
1.42012e-06
6.88521e-06
1.17756e-05
-1.17877e-05
1.5265e-05
-2.09205e-05
3.27973e-05
-2.776e-05
3.96073e-05
-3.29911e-05
3.92143e-05
-3.71281e-05
3.46435e-05
-4.04721e-05
2.83832e-05
-4.31862e-05
2.19585e-05
-4.53519e-05
1.62031e-05
-4.70634e-05
1.15282e-05
-4.84969e-05
7.98524e-06
-4.94654e-05
4.848e-06
-4.98392e-05
1.88881e-06
-4.96431e-05
-8.47292e-07
-4.89414e-05
-3.3707e-06
-4.78218e-05
-5.6466e-06
-4.63642e-05
-7.61517e-06
-4.45893e-05
-9.36798e-06
-4.25027e-05
-1.1007e-05
-4.01408e-05
-1.2513e-05
-3.75335e-05
-1.3889e-05
-3.47472e-05
-1.50517e-05
-3.18853e-05
-1.59534e-05
-2.90088e-05
-1.6715e-05
-2.6191e-05
-1.73218e-05
-2.33884e-05
-1.79683e-05
-2.05946e-05
-1.84403e-05
-1.77857e-05
-1.87374e-05
-1.49656e-05
-1.86009e-05
-1.21638e-05
-1.76537e-05
-9.30437e-06
-1.55403e-05
-6.74196e-06
-1.22396e-05
-5.05684e-06
-8.10826e-06
-4.38007e-06
-5.00899e-06
-3.97335e-06
-4.40871e-06
-3.30824e-06
-4.50387e-06
-2.61766e-06
-3.28977e-06
-1.87796e-06
-6.70933e-07
-1.07419e-06
2.56038e-06
-2.24428e-07
6.03544e-06
1.15512e-05
-1.26599e-05
2.79249e-05
-2.17277e-05
4.18651e-05
-2.80991e-05
4.59786e-05
-3.27587e-05
4.38739e-05
-3.63637e-05
3.82486e-05
-3.92452e-05
3.12646e-05
-4.15535e-05
2.42669e-05
-4.35213e-05
1.81709e-05
-4.52651e-05
1.3272e-05
-4.69144e-05
9.63454e-06
-4.81565e-05
6.09009e-06
-4.87238e-05
2.45613e-06
-4.86293e-05
-9.41792e-07
-4.79963e-05
-4.00369e-06
-4.70097e-05
-6.63315e-06
-4.57494e-05
-8.87551e-06
-4.41606e-05
-1.09567e-05
-4.21614e-05
-1.30062e-05
-3.97582e-05
-1.49161e-05
-3.70171e-05
-1.66301e-05
-3.4024e-05
-1.80448e-05
-3.09562e-05
-1.90211e-05
-2.8052e-05
-1.96193e-05
-2.54364e-05
-1.99374e-05
-2.29539e-05
-2.04507e-05
-2.06095e-05
-2.07847e-05
-1.83119e-05
-2.10351e-05
-1.60192e-05
-2.08936e-05
-1.37446e-05
-1.99282e-05
-1.14721e-05
-1.78127e-05
-9.35265e-06
-1.43591e-05
-7.77704e-06
-9.68387e-06
-7.19235e-06
-5.59369e-06
-7.01386e-06
-4.5872e-06
-6.4401e-06
-5.07763e-06
-5.71161e-06
-4.01826e-06
-4.72748e-06
-1.65507e-06
-3.50676e-06
1.33967e-06
-2.24046e-06
4.76914e-06
9.31072e-06
-1.30195e-05
4.09444e-05
-2.18244e-05
5.067e-05
-2.77358e-05
5.189e-05
-3.18993e-05
4.80374e-05
-3.50174e-05
4.13666e-05
-3.74013e-05
3.36485e-05
-3.93873e-05
2.62529e-05
-4.1559e-05
2.03426e-05
-4.40399e-05
1.57529e-05
-4.60893e-05
1.1684e-05
-4.7365e-05
7.3658e-06
-4.78584e-05
2.94945e-06
-4.7727e-05
-1.07314e-06
-4.7125e-05
-4.60568e-06
-4.63123e-05
-7.44587e-06
-4.54148e-05
-9.77301e-06
-4.43021e-05
-1.20695e-05
-4.27239e-05
-1.45844e-05
-4.04716e-05
-1.71684e-05
-3.76283e-05
-1.94734e-05
-3.41972e-05
-2.14759e-05
-3.02854e-05
-2.2933e-05
-2.68046e-05
-2.31001e-05
-2.41157e-05
-2.26263e-05
-2.18761e-05
-2.26903e-05
-1.99788e-05
-2.2682e-05
-1.82459e-05
-2.27679e-05
-1.65429e-05
-2.25967e-05
-1.48112e-05
-2.166e-05
-1.30934e-05
-1.95304e-05
-1.15212e-05
-1.59314e-05
-1.03469e-05
-1.08582e-05
-1.00147e-05
-5.92584e-06
-1.00422e-05
-4.5597e-06
-9.58492e-06
-5.53494e-06
-8.85792e-06
-4.74526e-06
-7.66713e-06
-2.84586e-06
-6.03627e-06
-2.91189e-07
-3.87617e-06
2.60904e-06
5.43455e-06
-1.3464e-05
5.44084e-05
-2.17864e-05
5.89925e-05
-2.71099e-05
5.72135e-05
-3.07253e-05
5.16528e-05
-3.33312e-05
4.39724e-05
-3.54437e-05
3.57611e-05
-3.7934e-05
2.87432e-05
-4.1106e-05
2.35146e-05
-4.39385e-05
1.85855e-05
-4.57565e-05
1.3502e-05
-4.67787e-05
8.38799e-06
-4.70331e-05
3.20383e-06
-4.66283e-05
-1.47788e-06
-4.59735e-05
-5.26055e-06
-4.53243e-05
-8.09505e-06
-4.47331e-05
-1.03642e-05
-4.4102e-05
-1.27006e-05
-4.30857e-05
-1.56007e-05
-4.13625e-05
-1.88916e-05
-3.89477e-05
-2.18882e-05
-3.58666e-05
-2.45571e-05
-3.1786e-05
-2.70136e-05
-2.68142e-05
-2.80718e-05
-2.28597e-05
-2.65808e-05
-2.01827e-05
-2.53673e-05
-1.85774e-05
-2.42873e-05
-1.75053e-05
-2.38399e-05
-1.65089e-05
-2.35931e-05
-1.54422e-05
-2.27267e-05
-1.43053e-05
-2.06673e-05
-1.32586e-05
-1.69781e-05
-1.26326e-05
-1.14842e-05
-1.26684e-05
-5.88997e-06
-1.28411e-05
-4.38703e-06
-1.24751e-05
-5.90094e-06
-1.18379e-05
-5.38245e-06
-1.06649e-05
-4.0189e-06
-8.35356e-06
-2.6025e-06
-4.73881e-06
-1.00571e-06
6.95744e-07
-1.46815e-05
6.909e-05
-2.21113e-05
6.64222e-05
-2.65898e-05
6.16919e-05
-2.95403e-05
5.46034e-05
-3.18336e-05
4.62657e-05
-3.45381e-05
3.84656e-05
-3.82047e-05
3.24097e-05
-4.18094e-05
2.71193e-05
-4.43259e-05
2.11019e-05
-4.55281e-05
1.47043e-05
-4.57813e-05
8.64116e-06
-4.56359e-05
3.05844e-06
-4.52433e-05
-1.87045e-06
-4.471e-05
-5.79388e-06
-4.41455e-05
-8.65958e-06
-4.36537e-05
-1.08559e-05
-4.30974e-05
-1.32569e-05
-4.21008e-05
-1.65973e-05
-4.05613e-05
-2.04312e-05
-3.85404e-05
-2.39091e-05
-3.62785e-05
-2.6819e-05
-3.34155e-05
-2.98766e-05
-2.87559e-05
-3.27314e-05
-2.29767e-05
-3.236e-05
-1.84431e-05
-2.99009e-05
-1.6249e-05
-2.64814e-05
-1.59246e-05
-2.41644e-05
-1.59106e-05
-2.3607e-05
-1.5606e-05
-2.30313e-05
-1.51277e-05
-2.11456e-05
-1.4576e-05
-1.75298e-05
-1.44163e-05
-1.16439e-05
-1.48749e-05
-5.43136e-06
-1.48968e-05
-4.36514e-06
-1.46403e-05
-6.15746e-06
-1.40771e-05
-5.94564e-06
-1.31517e-05
-4.94434e-06
-1.08819e-05
-4.87226e-06
-6.35609e-06
-5.53151e-06
-5.66035e-06
-1.71955e-05
8.62855e-05
-2.32255e-05
7.24522e-05
-2.65174e-05
6.49838e-05
-2.88918e-05
5.69778e-05
-3.1609e-05
4.89829e-05
-3.55239e-05
4.23805e-05
-3.96253e-05
3.65111e-05
-4.23198e-05
2.98138e-05
-4.35954e-05
2.23776e-05
-4.4008e-05
1.51169e-05
-4.39867e-05
8.61983e-06
-4.38073e-05
2.87905e-06
-4.35586e-05
-2.11917e-06
-4.31897e-05
-6.16279e-06
-4.2776e-05
-9.07324e-06
-4.23856e-05
-1.12463e-05
-4.181e-05
-1.38325e-05
-4.06121e-05
-1.77952e-05
-3.89909e-05
-2.20524e-05
-3.71178e-05
-2.57821e-05
-3.51176e-05
-2.88192e-05
-3.27962e-05
-3.2198e-05
-2.95618e-05
-3.59657e-05
-2.33555e-05
-3.85663e-05
-1.61872e-05
-3.70693e-05
-1.22587e-05
-3.04099e-05
-1.28037e-05
-2.36194e-05
-1.45903e-05
-2.18204e-05
-1.52908e-05
-2.23308e-05
-1.55037e-05
-2.09328e-05
-1.54236e-05
-1.76098e-05
-1.55119e-05
-1.15557e-05
-1.60712e-05
-4.87198e-06
-1.59537e-05
-4.48269e-06
-1.57278e-05
-6.38333e-06
-1.52962e-05
-6.37727e-06
-1.45752e-05
-5.66528e-06
-1.26646e-05
-6.78286e-06
-9.15354e-06
-9.04261e-06
-1.48139e-05
6.96652e-06
-1.07921e-06
-5.74692e-07
1.21581e-05
9.19203e-06
-3.9042e-06
-3.61517e-06
1.22325e-05
1.30725e-05
-1.05193e-05
1.77863e-06
7.67871e-06
7.78255e-06
2.99511e-06
1.90861e-05
-9.52495e-06
-1.60718e-05
1.79258e-05
2.57495e-05
-2.27351e-05
-2.56801e-05
2.77381e-05
2.9648e-05
-2.95786e-05
-3.0686e-05
3.04677e-05
3.26397e-05
-3.36777e-05
-3.36853e-05
3.239e-05
3.52782e-05
-3.63237e-05
-3.55231e-05
3.40323e-05
3.75562e-05
-3.78011e-05
-3.64986e-05
3.93748e-05
-3.83173e-05
4.07419e-05
-3.80977e-05
4.17131e-05
-3.73062e-05
4.23429e-05
-3.60967e-05
4.26485e-05
-3.45457e-05
4.26453e-05
-3.28235e-05
4.23786e-05
-3.1082e-05
4.18451e-05
-2.92505e-05
4.10157e-05
-2.7207e-05
3.98779e-05
-2.49725e-05
3.84237e-05
-2.2571e-05
3.66516e-05
-1.99935e-05
3.45763e-05
-1.72021e-05
3.22681e-05
-1.41303e-05
2.98431e-05
-1.06616e-05
2.73514e-05
-6.64132e-06
2.46341e-05
-2.22759e-06
2.17042e-05
1.38369e-06
1.8636e-05
3.17619e-06
1.58618e-05
5.6054e-06
1.35693e-05
1.1592e-05
1.24678e-05
1.62194e-05
1.18803e-05
2.1095e-05
2.54351e-05
1.68151e-05
-4.65693e-06
1.59438e-05
8.7129e-07
7.29438e-06
8.64939e-06
3.37294e-05
-2.6435e-05
9.2178e-06
-1.64223e-06
6.85338e-07
9.40376e-06
-1.45611e-05
2.38959e-05
5.13761e-05
-3.22078e-05
-5.83275e-06
1.18692e-05
-1.65158e-05
2.00869e-05
-2.9349e-05
3.6729e-05
5.85947e-05
-3.65677e-05
-1.95006e-05
2.18448e-05
-2.84097e-05
2.89961e-05
-3.69863e-05
4.53056e-05
6.15743e-05
-3.99658e-05
-2.84126e-05
2.75224e-05
-3.55817e-05
3.61651e-05
-4.10243e-05
5.07483e-05
6.25504e-05
-4.20005e-05
-3.42141e-05
3.21579e-05
-3.96241e-05
4.1575e-05
-4.2731e-05
5.38552e-05
6.23552e-05
-4.25358e-05
-3.76721e-05
3.61523e-05
-4.1457e-05
4.536e-05
-4.29285e-05
5.53267e-05
6.13635e-05
-4.19368e-05
-3.94662e-05
3.92948e-05
-4.18222e-05
4.77159e-05
-4.22032e-05
5.57077e-05
5.99441e-05
-4.07838e-05
-4.00636e-05
4.15573e-05
-4.13526e-05
4.9005e-05
-4.0997e-05
5.53521e-05
5.84214e-05
-3.94743e-05
-3.98208e-05
4.30608e-05
-4.03627e-05
4.95469e-05
-3.95892e-05
5.45786e-05
5.6921e-05
-3.80888e-05
-3.89912e-05
4.39543e-05
-3.89668e-05
4.95226e-05
-3.79983e-05
5.361e-05
5.54984e-05
-3.65757e-05
-3.77324e-05
4.43805e-05
-3.73139e-05
4.9104e-05
-3.61797e-05
5.24759e-05
5.41147e-05
-3.4796e-05
-3.61377e-05
4.44214e-05
-3.54451e-05
4.84115e-05
-3.41584e-05
5.11892e-05
5.26723e-05
-3.2716e-05
-3.42998e-05
4.41755e-05
-3.34065e-05
4.75181e-05
-3.2017e-05
4.97998e-05
5.10909e-05
-3.04356e-05
-3.23378e-05
4.36898e-05
-3.12964e-05
4.64767e-05
-2.98189e-05
4.83222e-05
4.92644e-05
-2.79924e-05
-3.04034e-05
4.30113e-05
-2.92203e-05
4.52936e-05
-2.75556e-05
4.66576e-05
4.71437e-05
-2.5435e-05
-2.83865e-05
4.21473e-05
-2.70497e-05
4.39568e-05
-2.51952e-05
4.48031e-05
4.47589e-05
-2.28104e-05
-2.615e-05
4.10903e-05
-2.46987e-05
4.25054e-05
-2.27391e-05
4.28435e-05
4.21056e-05
-2.00858e-05
-2.37076e-05
3.98254e-05
-2.215e-05
4.09478e-05
-2.01692e-05
4.08628e-05
3.94507e-05
-1.75143e-05
-2.10679e-05
3.83223e-05
-1.93862e-05
3.9266e-05
-1.7462e-05
3.89386e-05
3.7084e-05
-1.50952e-05
-1.82051e-05
3.6534e-05
-1.63271e-05
3.7388e-05
-1.43979e-05
3.70094e-05
3.50762e-05
-1.23901e-05
-1.50837e-05
3.44156e-05
-1.28953e-05
3.51996e-05
-1.07463e-05
3.48603e-05
3.31184e-05
-8.78846e-06
-1.16978e-05
3.19831e-05
-9.14269e-06
3.26445e-05
-6.59357e-06
3.23112e-05
3.07691e-05
-4.24426e-06
-8.03692e-06
2.93584e-05
-5.21772e-06
2.98253e-05
-2.32894e-06
2.94224e-05
2.79868e-05
4.5344e-07
-4.01199e-06
2.67291e-05
-1.14034e-06
2.69537e-05
1.87998e-06
2.64021e-05
2.49677e-05
4.89909e-06
3.99022e-07
2.41025e-05
3.18339e-06
2.41693e-05
6.1674e-06
2.34181e-05
2.19212e-05
9.21382e-06
4.58023e-06
2.09059e-05
7.73897e-06
2.10106e-05
1.07472e-05
2.04098e-05
1.90095e-05
1.3659e-05
7.68362e-06
1.63985e-05
1.17168e-05
1.69773e-05
1.51024e-05
1.70242e-05
1.58851e-05
1.82268e-05
9.91506e-06
1.20888e-05
1.41571e-05
1.27353e-05
1.78464e-05
1.33349e-05
1.19183e-05
2.18132e-05
1.35995e-05
1.00813e-05
1.61024e-05
1.02324e-05
1.95367e-05
9.90061e-06
7.57793e-06
2.38771e-05
1.69916e-05
9.30911e-06
1.9098e-05
8.12606e-06
2.25318e-05
6.46681e-06
3.67404e-06
2.64357e-05
2.16425e-05
8.76158e-06
2.30789e-05
6.68968e-06
2.52613e-05
4.2845e-06
1.37878e-06
2.75565e-05
2.57295e-05
2.637e-05
2.7253e-05
2.80604e-05
-2.39908e-05
8.38412e-05
-2.60611e-05
7.45225e-05
-2.7977e-05
6.68997e-05
-3.03266e-05
5.93273e-05
-3.38937e-05
5.25501e-05
-3.7854e-05
4.63408e-05
-4.04404e-05
3.90975e-05
-4.15702e-05
3.09437e-05
-4.20786e-05
2.28859e-05
-4.23446e-05
1.53829e-05
-4.23677e-05
8.64293e-06
-4.24055e-05
2.91681e-06
-4.24137e-05
-2.11093e-06
-4.23138e-05
-6.26276e-06
-4.20464e-05
-9.34061e-06
-4.15805e-05
-1.17121e-05
-4.07126e-05
-1.47004e-05
-3.90622e-05
-1.94457e-05
-3.74304e-05
-2.36842e-05
-3.58231e-05
-2.73894e-05
-3.3904e-05
-3.07383e-05
-3.15111e-05
-3.45909e-05
-2.83943e-05
-3.90826e-05
-2.30225e-05
-4.39381e-05
-1.49085e-05
-4.51833e-05
-7.74519e-06
-3.75732e-05
-7.16508e-06
-2.41995e-05
-1.11208e-05
-1.78647e-05
-1.43442e-05
-1.91073e-05
-1.54972e-05
-1.97799e-05
-1.59052e-05
-1.72018e-05
-1.5772e-05
-1.16889e-05
-1.61778e-05
-4.4662e-06
-1.61415e-05
-4.5189e-06
-1.56626e-05
-6.86231e-06
-1.52275e-05
-6.81232e-06
-1.44507e-05
-6.44215e-06
-1.12705e-05
-9.963e-06
-7.74075e-06
-1.25724e-05
-2.25547e-05
-2.9874e-05
8.15074e-05
-2.97054e-05
7.4354e-05
-3.08807e-05
6.8075e-05
-3.3237e-05
6.16836e-05
-3.6032e-05
5.53451e-05
-3.79441e-05
4.82529e-05
-3.88244e-05
3.99778e-05
-3.92546e-05
3.13738e-05
-3.94583e-05
2.30897e-05
-3.9748e-05
1.56726e-05
-3.993e-05
8.82491e-06
-4.02407e-05
3.22744e-06
-4.05728e-05
-1.77882e-06
-4.08461e-05
-5.98941e-06
-4.05654e-05
-9.62131e-06
-3.91951e-05
-1.30824e-05
-3.77564e-05
-1.61392e-05
-3.62541e-05
-2.09479e-05
-3.48429e-05
-2.50954e-05
-3.33473e-05
-2.8885e-05
-3.14277e-05
-3.26578e-05
-2.8962e-05
-3.70567e-05
-2.57487e-05
-4.22959e-05
-2.16636e-05
-4.80232e-05
-1.53767e-05
-5.14701e-05
-6.57749e-06
-4.63725e-05
-2.43183e-06
-2.83452e-05
-4.16636e-06
-1.61302e-05
-1.01771e-05
-1.30966e-05
-1.38336e-05
-1.61233e-05
-1.47019e-05
-1.63335e-05
-1.37179e-05
-1.26728e-05
-1.36994e-05
-4.48473e-06
-1.43542e-05
-3.86411e-06
-1.49559e-05
-6.26066e-06
-1.80079e-05
-3.7603e-06
-1.52702e-05
-9.17994e-06
-3.43501e-06
-2.17981e-05
1.10304e-05
-2.70378e-05
-1.15243e-05
-3.39188e-05
7.88586e-05
-3.36592e-05
7.40944e-05
-3.43674e-05
6.87832e-05
-3.54024e-05
6.27186e-05
-3.61098e-05
5.60526e-05
-3.63438e-05
4.84869e-05
-3.64333e-05
4.00673e-05
-3.64378e-05
3.13783e-05
-3.63362e-05
2.29881e-05
-3.65309e-05
1.58673e-05
-3.7052e-05
9.34608e-06
-3.78758e-05
4.05123e-06
-3.85454e-05
-1.10928e-06
-3.85475e-05
-5.98729e-06
-3.68544e-05
-1.13144e-05
-3.51782e-05
-1.47586e-05
-3.42301e-05
-1.70873e-05
-3.32358e-05
-2.19422e-05
-3.18184e-05
-2.65128e-05
-3.00149e-05
-3.06885e-05
-2.80261e-05
-3.46466e-05
-2.58072e-05
-3.92755e-05
-2.3121e-05
-4.49821e-05
-1.99689e-05
-5.11753e-05
-1.54903e-05
-5.59487e-05
-7.36844e-06
-5.44944e-05
2.31571e-07
-3.59452e-05
1.1917e-06
-1.70903e-05
-2.20154e-06
-9.70334e-06
-8.0638e-06
-1.02611e-05
-1.02969e-05
-1.41004e-05
-8.58017e-06
-1.43896e-05
-5.17029e-06
-7.89462e-06
-9.44434e-06
4.09953e-07
-1.28004e-05
-2.90459e-06
-1.78118e-05
1.25108e-06
-1.52374e-05
-1.17544e-05
-8.85838e-06
-2.81771e-05
-1.43633e-06
-3.44598e-05
-1.29606e-05
-3.76493e-05
7.6542e-05
-3.68052e-05
7.32503e-05
-3.61922e-05
6.81702e-05
-3.55994e-05
6.21258e-05
-3.49269e-05
5.53801e-05
-3.43492e-05
4.79092e-05
-3.39221e-05
3.96401e-05
-3.34314e-05
3.08876e-05
-3.29249e-05
2.24816e-05
-3.26268e-05
1.55692e-05
-3.09073e-05
7.6266e-06
-2.92138e-05
2.35768e-06
-2.8862e-05
-1.46112e-06
-2.91876e-05
-5.66162e-06
-3.01678e-05
-1.03343e-05
-3.11857e-05
-1.37407e-05
-3.16859e-05
-1.65871e-05
-3.07083e-05
-2.29198e-05
-2.87683e-05
-2.84528e-05
-2.65671e-05
-3.28898e-05
-2.41094e-05
-3.71043e-05
-2.18238e-05
-4.15611e-05
-1.97704e-05
-4.70355e-05
-1.74707e-05
-5.3475e-05
-1.41869e-05
-5.92325e-05
-9.44673e-06
-5.92346e-05
1.22453e-06
-4.66165e-05
3.2981e-06
-1.91639e-05
3.21516e-06
-9.6204e-06
-4.86534e-07
-6.55937e-06
-3.20692e-06
-1.138e-05
-2.05387e-06
-1.55427e-05
6.586e-06
-1.65345e-05
-4.34629e-07
7.43057e-06
-1.15218e-05
8.18262e-06
-1.52917e-05
5.02093e-06
-1.37018e-05
-1.33443e-05
-9.93118e-06
-3.19478e-05
-5.44122e-06
-3.89498e-05
-1.84018e-05
-3.98664e-05
7.44079e-05
-3.80187e-05
7.14025e-05
-3.63549e-05
6.65065e-05
-3.48851e-05
6.06559e-05
-3.3611e-05
5.4106e-05
-3.25853e-05
4.68835e-05
-3.16666e-05
3.87214e-05
-2.96903e-05
2.89114e-05
-2.53491e-05
1.81403e-05
-2.04793e-05
1.06995e-05
-1.88444e-05
5.99165e-06
-1.88961e-05
2.40944e-06
-1.9719e-05
-6.38231e-07
-2.10583e-05
-4.32232e-06
-2.28202e-05
-8.57236e-06
-2.422e-05
-1.23408e-05
-2.45773e-05
-1.62298e-05
-2.52248e-05
-2.22724e-05
-2.52948e-05
-2.83827e-05
-2.4156e-05
-3.40286e-05
-2.09275e-05
-4.03328e-05
-1.69626e-05
-4.5526e-05
-1.51976e-05
-4.88005e-05
-1.41001e-05
-5.45725e-05
-1.18948e-05
-6.14379e-05
-9.23282e-06
-6.18965e-05
6.60405e-07
-5.65097e-05
7.13045e-06
-2.56339e-05
9.27793e-06
-1.17679e-05
7.29048e-06
-4.57193e-06
4.68479e-06
-8.77428e-06
5.41117e-06
-1.6269e-05
6.1562e-06
-1.72795e-05
6.3375e-06
7.24925e-06
-3.80972e-06
1.83298e-05
-8.21779e-06
9.42899e-06
-8.80162e-06
-1.27605e-05
-7.27496e-06
-3.34744e-05
-5.17711e-06
-4.10476e-05
-2.3579e-05
-4.01724e-05
7.20445e-05
-3.78295e-05
6.90596e-05
-3.58281e-05
6.45051e-05
-3.41276e-05
5.89554e-05
-3.2663e-05
5.26414e-05
-3.13316e-05
4.55521e-05
-2.74136e-05
3.48034e-05
-1.54413e-05
1.6939e-05
-9.03919e-06
1.17382e-05
-7.56798e-06
9.22824e-06
-8.24985e-06
6.67348e-06
-9.8243e-06
3.98392e-06
-1.17007e-05
1.2382e-06
-1.38122e-05
-2.21091e-06
-1.60453e-05
-6.33925e-06
-1.78443e-05
-1.05417e-05
-1.89087e-05
-1.51655e-05
-1.9956e-05
-2.12251e-05
-2.04799e-05
-2.78588e-05
-1.95656e-05
-3.49429e-05
-1.72224e-05
-4.26759e-05
-1.31048e-05
-4.96436e-05
-9.85451e-06
-5.20508e-05
-9.7888e-06
-5.46382e-05
-7.83835e-06
-6.33883e-05
-3.15235e-06
-6.65825e-05
6.75975e-06
-6.64218e-05
1.86347e-05
-3.75088e-05
1.90765e-05
-1.22097e-05
1.71828e-05
-2.6782e-06
1.47514e-05
-6.34285e-06
1.28729e-05
-1.43905e-05
8.2835e-06
-1.26902e-05
7.59873e-06
7.934e-06
3.66437e-06
2.22642e-05
7.87448e-08
1.30146e-05
-2.44834e-06
-1.02334e-05
-3.27549e-06
-3.26473e-05
-4.86444e-06
-3.94587e-05
-2.84434e-05
-3.94727e-05
6.95804e-05
-3.71964e-05
6.67834e-05
-3.53079e-05
6.26165e-05
-3.37413e-05
5.73887e-05
-3.21027e-05
5.10029e-05
-2.91338e-05
4.25832e-05
-8.54341e-06
1.4213e-05
4.89103e-06
3.50459e-06
2.81244e-06
1.38168e-05
2.07668e-07
1.1833e-05
-1.79663e-06
8.67775e-06
-3.6328e-06
5.82011e-06
-5.59929e-06
3.2047e-06
-7.84808e-06
3.78512e-08
-1.01883e-05
-3.99907e-06
-1.21862e-05
-8.54385e-06
-1.36571e-05
-1.36946e-05
-1.49619e-05
-1.99202e-05
-1.59182e-05
-2.69025e-05
-1.63129e-05
-3.45482e-05
-1.61715e-05
-4.28173e-05
-1.47193e-05
-5.10958e-05
-6.68218e-06
-6.00879e-05
-3.13403e-06
-5.81863e-05
2.14592e-08
-6.65438e-05
8.26844e-06
-7.48295e-05
1.68713e-05
-7.50247e-05
3.06282e-05
-5.12657e-05
3.13733e-05
-1.29548e-05
2.89303e-05
-2.35152e-07
2.73975e-05
-4.81004e-06
2.16869e-05
-8.67997e-06
1.16542e-05
-2.65747e-06
7.95353e-06
1.16347e-05
8.13292e-06
2.20848e-05
6.91658e-06
1.42309e-05
3.5052e-06
-6.82202e-06
-7.23042e-08
-2.90698e-05
-3.63969e-06
-3.58913e-05
-3.20831e-05
-3.84827e-05
6.72793e-05
-3.65563e-05
6.4857e-05
-3.51494e-05
6.12097e-05
-3.38094e-05
5.60487e-05
-3.06222e-05
4.78156e-05
-1.02649e-05
2.22259e-05
-3.0113e-06
6.95941e-06
-3.53174e-06
4.02497e-06
-2.23385e-06
1.25189e-05
-8.36998e-07
1.04362e-05
-9.90422e-08
7.93976e-06
-4.36737e-07
6.15778e-06
-1.55994e-06
4.32787e-06
-3.266e-06
1.74394e-06
-5.28246e-06
-1.98265e-06
-7.19503e-06
-6.63129e-06
-8.76863e-06
-1.2121e-05
-1.01288e-05
-1.856e-05
-1.13148e-05
-2.57166e-05
-1.24515e-05
-3.34115e-05
-1.37675e-05
-4.15013e-05
-1.42047e-05
-5.06585e-05
-9.57841e-06
-6.47142e-05
2.93456e-06
-7.06993e-05
1.14021e-05
-7.50113e-05
1.79647e-05
-8.13921e-05
2.26436e-05
-7.97036e-05
3.39307e-05
-6.25528e-05
4.36141e-05
-2.26382e-05
4.00974e-05
3.2815e-06
3.66159e-05
-1.32856e-06
2.90292e-05
-1.09326e-06
1.80449e-05
8.32688e-06
1.15251e-05
1.81544e-05
1.07401e-05
2.28697e-05
1.02385e-05
1.47326e-05
7.22405e-06
-3.80761e-06
1.43821e-06
-2.3284e-05
-2.45972e-06
-3.19934e-05
-3.45428e-05
-3.75116e-05
6.53165e-05
-3.60824e-05
6.34278e-05
-3.546e-05
6.05873e-05
-3.57533e-05
5.6342e-05
-3.55418e-05
4.76041e-05
-3.73059e-05
2.39901e-05
-3.79735e-05
7.62694e-06
-3.12177e-05
-2.73075e-06
-1.85213e-05
-1.77543e-07
-7.37639e-06
-7.08645e-07
-1.59953e-06
2.16289e-06
6.4599e-07
3.91224e-06
9.72797e-07
4.00106e-06
2.25002e-07
2.49177e-06
-1.16551e-06
-5.92124e-07
-2.73234e-06
-5.06445e-06
-4.11932e-06
-1.0734e-05
-5.22968e-06
-1.74497e-05
-6.01865e-06
-2.49276e-05
-6.50422e-06
-3.29259e-05
-6.54789e-06
-4.14577e-05
-5.61513e-06
-5.15913e-05
-1.6983e-06
-6.86311e-05
1.15415e-05
-8.39391e-05
2.02383e-05
-8.37082e-05
2.33198e-05
-8.44736e-05
2.57424e-05
-8.21261e-05
3.09502e-05
-6.77606e-05
4.63312e-05
-3.80193e-05
4.66236e-05
2.98909e-06
4.08991e-05
4.39601e-06
3.20428e-05
7.76305e-06
2.22353e-05
1.81343e-05
1.55299e-05
2.48598e-05
1.35402e-05
2.48595e-05
1.24072e-05
1.58655e-05
9.03949e-06
-4.39894e-07
3.16891e-06
-1.74134e-05
-5.64224e-07
-2.82603e-05
-3.51071e-05
-3.64982e-05
6.3726e-05
-3.56517e-05
6.25813e-05
-3.61419e-05
6.10775e-05
-4.04161e-05
6.06162e-05
-4.02641e-05
4.74521e-05
-4.13794e-05
2.51054e-05
-4.20344e-05
8.28198e-06
-3.90836e-05
-5.68162e-06
-2.61181e-05
-1.3143e-05
-1.30291e-05
-1.37976e-05
-4.27382e-06
-6.59242e-06
3.3426e-07
-6.95826e-07
2.43649e-06
1.89884e-06
2.94096e-06
1.9873e-06
2.37106e-06
-2.22098e-08
1.31574e-06
-4.00912e-06
3.17972e-07
-9.73625e-06
-2.76145e-07
-1.68555e-05
-1.9688e-07
-2.50068e-05
9.54593e-07
-3.40773e-05
3.973e-06
-4.44761e-05
1.02164e-05
-5.78347e-05
1.7608e-05
-7.60227e-05
1.92566e-05
-8.55877e-05
2.26402e-05
-8.70918e-05
2.4867e-05
-8.67004e-05
2.58849e-05
-8.3144e-05
2.89846e-05
-7.08603e-05
3.68834e-05
-4.59181e-05
4.3884e-05
-4.01148e-06
3.96139e-05
8.66616e-06
3.11957e-05
1.61812e-05
2.36145e-05
2.57156e-05
1.86105e-05
2.98638e-05
1.63909e-05
2.70791e-05
1.4575e-05
1.76814e-05
1.1003e-05
3.13207e-06
5.77959e-06
-1.219e-05
1.77023e-06
-2.42509e-05
-3.33369e-05
-3.52841e-05
6.24344e-05
-3.49699e-05
6.22672e-05
-3.63696e-05
6.24772e-05
-3.888e-05
6.31267e-05
-3.69686e-05
4.55407e-05
-3.72057e-05
2.53425e-05
-3.74177e-05
8.49392e-06
-3.64576e-05
-6.64169e-06
-2.97846e-05
-1.9816e-05
-1.88951e-05
-2.46872e-05
-7.71083e-06
-1.77766e-05
-8.58938e-07
-7.54773e-06
3.16945e-06
-2.12958e-06
5.15423e-06
2.57443e-09
5.51836e-06
-3.86332e-07
5.01878e-06
-3.50952e-06
4.45398e-06
-9.17146e-06
4.39376e-06
-1.67953e-05
5.25049e-06
-2.58635e-05
7.45242e-06
-3.62793e-05
1.15514e-05
-4.8575e-05
1.73929e-05
-6.36762e-05
2.21581e-05
-8.07879e-05
2.33303e-05
-8.676e-05
2.4962e-05
-8.87235e-05
2.63472e-05
-8.80856e-05
2.69747e-05
-8.37715e-05
3.05079e-05
-7.43935e-05
3.2239e-05
-4.76492e-05
3.83025e-05
-1.0075e-05
3.57292e-05
1.12394e-05
2.90082e-05
2.29022e-05
2.36746e-05
3.10492e-05
2.06094e-05
3.2929e-05
1.88571e-05
2.88313e-05
1.67388e-05
1.97998e-05
1.30853e-05
6.78552e-06
8.27594e-06
-7.38063e-06
3.68985e-06
-1.96648e-05
-2.9647e-05
-3.35861e-05
6.12245e-05
-3.33595e-05
6.20405e-05
-3.50642e-05
6.41818e-05
-3.37723e-05
6.18348e-05
-3.10673e-05
4.28357e-05
-3.09046e-05
2.51798e-05
-3.0937e-05
8.52632e-06
-3.00049e-05
-7.57384e-06
-2.93372e-05
-2.04837e-05
-2.40445e-05
-2.99799e-05
-1.17683e-05
-3.00528e-05
-2.73113e-06
-1.65849e-05
3.48183e-06
-8.34253e-06
7.16489e-06
-3.68044e-06
8.4664e-06
-1.68785e-06
8.42812e-06
-3.47127e-06
8.20299e-06
-8.94634e-06
8.56765e-06
-1.71599e-05
9.95718e-06
-2.7253e-05
1.26791e-05
-3.90012e-05
1.6923e-05
-5.28189e-05
2.24423e-05
-6.91955e-05
2.53272e-05
-8.36728e-05
2.68196e-05
-8.82524e-05
2.79557e-05
-8.98596e-05
2.90673e-05
-8.91972e-05
3.10981e-05
-8.58023e-05
3.36038e-05
-7.68992e-05
3.25884e-05
-4.66338e-05
3.36702e-05
-1.11567e-05
3.14851e-05
1.34245e-05
2.67593e-05
2.7628e-05
2.33675e-05
3.4441e-05
2.18796e-05
3.44168e-05
2.07875e-05
2.99234e-05
1.8659e-05
2.19282e-05
1.50263e-05
1.04182e-05
1.03266e-05
-2.68094e-06
5.16604e-06
-1.45042e-05
-2.44809e-05
-3.13065e-05
5.98149e-05
-3.04823e-05
6.12163e-05
-3.04801e-05
6.41797e-05
-2.63912e-05
5.77458e-05
-2.41138e-05
4.05584e-05
-2.38498e-05
2.49157e-05
-2.41802e-05
8.8568e-06
-2.32861e-05
-8.46798e-06
-2.30028e-05
-2.07669e-05
-2.31039e-05
-2.98788e-05
-1.63369e-05
-3.68199e-05
-5.35436e-06
-2.75674e-05
3.5531e-06
-1.725e-05
9.21421e-06
-9.34153e-06
1.13513e-05
-3.82502e-06
1.15442e-05
-3.66412e-06
1.14945e-05
-8.8966e-06
1.21781e-05
-1.78435e-05
1.39628e-05
-2.90378e-05
1.69421e-05
-4.19805e-05
2.10884e-05
-5.69652e-05
2.63111e-05
-7.44183e-05
2.87133e-05
-8.6075e-05
3.01727e-05
-8.97118e-05
3.10547e-05
-9.07417e-05
3.21553e-05
-9.02977e-05
3.49072e-05
-8.85542e-05
3.38396e-05
-7.58315e-05
3.04411e-05
-4.32353e-05
2.91117e-05
-9.82729e-06
2.72499e-05
1.52863e-05
2.44771e-05
3.04008e-05
2.28586e-05
3.60595e-05
2.23963e-05
3.48791e-05
2.19254e-05
3.03943e-05
2.01458e-05
2.37079e-05
1.66675e-05
1.38964e-05
1.18713e-05
2.11531e-06
6.18175e-06
-8.8147e-06
-1.82992e-05
-2.86549e-05
5.80342e-05
-2.65495e-05
5.9111e-05
-2.37061e-05
6.13363e-05
-1.82877e-05
5.23274e-05
-1.65862e-05
3.88568e-05
-1.63021e-05
2.46316e-05
-1.78095e-05
1.03643e-05
-1.71217e-05
-9.15574e-06
-1.70019e-05
-2.08868e-05
-1.71221e-05
-2.97585e-05
-1.71559e-05
-3.67861e-05
-6.95221e-06
-3.77711e-05
3.61866e-06
-2.78208e-05
1.13471e-05
-1.707e-05
1.40861e-05
-6.56402e-06
1.42101e-05
-3.78809e-06
1.42043e-05
-8.89088e-06
1.52528e-05
-1.8892e-05
1.76101e-05
-3.13952e-05
2.11219e-05
-4.54923e-05
2.53365e-05
-6.11798e-05
3.04762e-05
-7.9558e-05
3.2358e-05
-8.79568e-05
3.30015e-05
-9.03554e-05
3.3632e-05
-9.13721e-05
3.44644e-05
-9.11301e-05
3.45435e-05
-8.86333e-05
3.04097e-05
-7.16978e-05
2.63388e-05
-3.91644e-05
2.455e-05
-8.03848e-06
2.35893e-05
1.6247e-05
2.26476e-05
3.13425e-05
2.27618e-05
3.59453e-05
2.29587e-05
3.46821e-05
2.26183e-05
3.07347e-05
2.13105e-05
2.50156e-05
1.79735e-05
1.72335e-05
1.29851e-05
7.10365e-06
6.95519e-06
-2.78473e-06
-1.1344e-05
-2.54956e-05
5.55373e-05
-2.13462e-05
5.49616e-05
-1.55989e-05
5.5589e-05
-1.1121e-05
4.78495e-05
-9.85858e-06
3.75944e-05
-9.97351e-06
2.47466e-05
-1.22175e-05
1.26083e-05
-1.19489e-05
-9.42435e-06
-1.17887e-05
-2.1047e-05
-1.19119e-05
-2.96353e-05
-1.22231e-05
-3.64749e-05
-8.05463e-06
-4.19396e-05
2.94512e-06
-3.88206e-05
1.27776e-05
-2.69025e-05
1.59856e-05
-9.77199e-06
1.59218e-05
-3.72433e-06
1.60581e-05
-9.02715e-06
1.7751e-05
-2.05849e-05
2.11743e-05
-3.48185e-05
2.61089e-05
-5.0427e-05
3.13334e-05
-6.64043e-05
3.48142e-05
-8.30387e-05
3.50595e-05
-8.82021e-05
3.52689e-05
-9.05648e-05
3.5818e-05
-9.19212e-05
3.64501e-05
-9.17621e-05
3.36151e-05
-8.57984e-05
2.64165e-05
-6.44991e-05