/*--------------------------------*- C++ -*----------------------------------*\
| =========                 |                                                 |
| \\      /  F ield         | OpenFOAM: The Open Source CFD Toolbox           |
|  \\    /   O peration     | Version:  5.0                                   |
|   \\  /    A nd           | Web:      www.OpenFOAM.org                      |
|    \\/     M anipulation  |                                                 |
\*---------------------------------------------------------------------------*/
FoamFile
{
    version     2.0;
    format      ascii;
    class       volVectorField;
    location    "1";
    object      U;
}
// * * * * * * * * * * * * * * * * * * * * * * * * * * * * * * * * * * * * * //

dimensions      [0 1 -1 0 0 0 0];

internalField   nonuniform List<vector> 
1915
(
(0.0171609 -0.00489423 0)
(0.0171601 0.00898039 0)
(-0.00510394 -0.00550851 0)
(-0.00021491 0.0158692 0)
(-0.0156328 -0.0107101 0)
(-0.011429 0.0068905 0)
(-0.0180694 -0.0154653 0)
(-0.0137443 -0.00460046 0)
(-0.0145353 -0.0190495 0)
(-0.0118541 -0.0154908 0)
(-0.00636271 -0.0206248 0)
(-0.0065579 -0.0229557 0)
(0.00558342 -0.0195606 0)
(0.00184239 -0.024745 0)
(0.0208137 -0.015152 0)
(0.0128567 -0.018724 0)
(0.0390416 -0.0071044 0)
(0.0269779 -0.00153735 0)
(0.0581872 0.00088666 0)
(0.0591495 0.0403222 0)
(0.064339 -0.0967992 0)
(0.177488 -0.0346963 0)
(0.102493 0.042567 0)
(-0.063546 0.0696932 0)
(-0.208046 0.073647 0)
(-0.352277 0.0675168 0)
(-0.472359 0.0539992 0)
(-0.564133 0.0388619 0)
(-0.629361 0.0259456 0)
(-0.673414 0.0164443 0)
(-0.70176 0.00974072 0)
(-0.718255 0.00465267 0)
(-0.724736 0.000151162 0)
(-0.721389 -0.00427328 0)
(-0.710356 -0.00821464 0)
(-0.692043 -0.011838 0)
(-0.667318 -0.0151973 0)
(-0.636698 -0.0184787 0)
(-0.600382 -0.0217925 0)
(-0.558415 -0.0251939 0)
(-0.510766 -0.0286803 0)
(-0.457881 -0.0316784 0)
(-0.401269 -0.0325114 0)
(-0.34323 -0.0327732 0)
(-0.28364 -0.0346884 0)
(-0.221206 -0.0363393 0)
(-0.1572 -0.0383514 0)
(-0.0930464 -0.0386964 0)
(-0.0319622 -0.0351564 0)
(0.0202233 -0.0283803 0)
(0.0604904 -0.0213559 0)
(0.0895917 -0.0149562 0)
(0.109833 -0.0115421 0)
(0.12666 -0.0111146 0)
(0.143116 -0.0107532 0)
(0.156823 -0.00671406 0)
(0.158735 0.00358471 0)
(0.137468 0.0176223 0)
(0.0861225 0.0304194 0)
(0.0236643 0.0224631 0)
(0.00177595 -0.13706 0)
(0.0189879 0.0406313 0)
(-0.105088 0.133266 0)
(-0.262204 0.162831 0)
(-0.402344 0.158884 0)
(-0.517225 0.137366 0)
(-0.599499 0.107184 0)
(-0.655648 0.0774083 0)
(-0.692884 0.0527835 0)
(-0.717059 0.0343297 0)
(-0.731641 0.0206559 0)
(-0.738262 0.00982823 0)
(-0.73792 0.000362626 0)
(-0.731496 -0.00847829 0)
(-0.718237 -0.0166434 0)
(-0.69871 -0.0240015 0)
(-0.673686 -0.0306143 0)
(-0.643706 -0.036838 0)
(-0.609099 -0.0428601 0)
(-0.570223 -0.0487474 0)
(-0.527549 -0.0544687 0)
(-0.481704 -0.0596347 0)
(-0.432413 -0.0627865 0)
(-0.37888 -0.0640168 0)
(-0.322214 -0.0672134 0)
(-0.263097 -0.0696452 0)
(-0.20284 -0.0708024 0)
(-0.143256 -0.0691658 0)
(-0.0866533 -0.0629228 0)
(-0.0365373 -0.050974 0)
(0.00278917 -0.0385852 0)
(0.0310692 -0.0268273 0)
(0.0506351 -0.0201911 0)
(0.0666434 -0.0189638 0)
(0.0821988 -0.0172428 0)
(0.0950263 -0.00878577 0)
(0.101777 0.0103657 0)
(0.0985039 0.0347859 0)
(0.0796123 0.0574123 0)
(0.0414804 0.0569894 0)
(-0.0718929 -0.0964871 0)
(-0.116471 0.111535 0)
(-0.248678 0.218443 0)
(-0.371485 0.248047 0)
(-0.473716 0.231397 0)
(-0.553187 0.192574 0)
(-0.612627 0.14705 0)
(-0.65692 0.105318 0)
(-0.689262 0.0718418 0)
(-0.7121 0.046759 0)
(-0.726804 0.0274857 0)
(-0.733785 0.0114784 0)
(-0.733448 -0.00283383 0)
(-0.726221 -0.0162081 0)
(-0.71236 -0.0287036 0)
(-0.692644 -0.0398529 0)
(-0.667932 -0.049735 0)
(-0.638778 -0.0588567 0)
(-0.605542 -0.0674154 0)
(-0.568661 -0.0754116 0)
(-0.528789 -0.0827306 0)
(-0.486771 -0.0893604 0)
(-0.442773 -0.09513 0)
(-0.395048 -0.100024 0)
(-0.343779 -0.105466 0)
(-0.290598 -0.108447 0)
(-0.23598 -0.109256 0)
(-0.180448 -0.10609 0)
(-0.126274 -0.0967562 0)
(-0.0763989 -0.0796732 0)
(-0.0361234 -0.0600858 0)
(-0.00851939 -0.0416339 0)
(0.00838464 -0.0312424 0)
(0.0211386 -0.0292449 0)
(0.034538 -0.0269137 0)
(0.0463777 -0.0161518 0)
(0.0537234 0.00769954 0)
(0.0546031 0.0379635 0)
(0.0504261 0.0693548 0)
(0.0383761 0.0915299 0)
(-0.115887 -0.0130638 0)
(-0.19799 0.19714 0)
(-0.321183 0.298409 0)
(-0.420859 0.318347 0)
(-0.499282 0.288567 0)
(-0.561143 0.237132 0)
(-0.610344 0.181519 0)
(-0.649108 0.131589 0)
(-0.678829 0.0914424 0)
(-0.701102 0.0607851 0)
(-0.716493 0.0357456 0)
(-0.724241 0.013941 0)
(-0.724257 -0.0058095 0)
(-0.716996 -0.0241781 0)
(-0.703154 -0.0411593 0)
(-0.683721 -0.056164 0)
(-0.659567 -0.0693887 0)
(-0.631169 -0.0816087 0)
(-0.598865 -0.0929515 0)
(-0.563084 -0.103289 0)
(-0.524482 -0.112266 0)
(-0.48392 -0.119885 0)
(-0.441896 -0.126785 0)
(-0.398373 -0.133381 0)
(-0.35389 -0.140032 0)
(-0.308328 -0.144679 0)
(-0.261382 -0.147288 0)
(-0.21316 -0.145464 0)
(-0.163982 -0.135768 0)
(-0.115474 -0.113364 0)
(-0.0730953 -0.0850077 0)
(-0.0431516 -0.0572257 0)
(-0.0276335 -0.0404744 0)
(-0.0197911 -0.0375899 0)
(-0.00955101 -0.0354624 0)
(0.00149155 -0.0230302 0)
(0.0103199 0.00382782 0)
(0.0162457 0.0370171 0)
(0.0202604 0.0722121 0)
(0.0255074 0.115295 0)
(-0.136179 0.096828 0)
(-0.238674 0.288942 0)
(-0.352025 0.371228 0)
(-0.438443 0.375785 0)
(-0.504146 0.334434 0)
(-0.556573 0.274197 0)
(-0.599144 0.211532 0)
(-0.633348 0.155554 0)
(-0.660665 0.109504 0)
(-0.683134 0.0729037 0)
(-0.700824 0.0426102 0)
(-0.710582 0.0159498 0)
(-0.711701 -0.00839088 0)
(-0.704953 -0.0310068 0)
(-0.691651 -0.0518109 0)
(-0.673153 -0.0700747 0)
(-0.650048 -0.0862258 0)
(-0.622448 -0.101254 0)
(-0.590587 -0.115343 0)
(-0.554962 -0.128567 0)
(-0.516272 -0.140339 0)
(-0.475543 -0.150013 0)
(-0.434264 -0.157925 0)
(-0.393585 -0.164018 0)
(-0.35358 -0.170233 0)
(-0.313777 -0.175247 0)
(-0.273892 -0.178547 0)
(-0.233623 -0.17745 0)
(-0.193687 -0.167899 0)
(-0.153107 -0.145998 0)
(-0.11263 -0.11309 0)
(-0.0808124 -0.0742939 0)
(-0.0643302 -0.0480632 0)
(-0.0592558 -0.0435199 0)
(-0.0533154 -0.0427445 0)
(-0.0427478 -0.0299141 0)
(-0.032211 -0.00245556 0)
(-0.021043 0.0312309 0)
(-0.0107917 0.0674033 0)
(0.00717233 0.124463 0)
(-0.143752 0.22101 0)
(-0.255512 0.382117 0)
(-0.360958 0.438499 0)
(-0.438956 0.425882 0)
(-0.49659 0.373771 0)
(-0.541976 0.305966 0)
(-0.578272 0.237082 0)
(-0.607997 0.174949 0)
(-0.634331 0.124473 0)
(-0.658111 0.0874027 0)
(-0.680329 0.0544624 0)
(-0.693755 0.0220099 0)
(-0.696635 -0.00829982 0)
(-0.690839 -0.0361268 0)
(-0.678863 -0.0609145 0)
(-0.66282 -0.0823716 0)
(-0.642749 -0.1018 0)
(-0.617447 -0.120237 0)
(-0.585835 -0.137174 0)
(-0.548719 -0.152698 0)
(-0.507622 -0.165502 0)
(-0.46348 -0.17523 0)
(-0.42029 -0.184673 0)
(-0.380775 -0.192015 0)
(-0.344504 -0.198529 0)
(-0.310385 -0.202259 0)
(-0.277557 -0.204558 0)
(-0.244998 -0.202888 0)
(-0.21233 -0.193075 0)
(-0.179751 -0.171921 0)
(-0.147657 -0.13756 0)
(-0.119531 -0.091948 0)
(-0.10402 -0.0548516 0)
(-0.100394 -0.0464633 0)
(-0.0979178 -0.0491973 0)
(-0.087847 -0.0371699 0)
(-0.0753608 -0.0112453 0)
(-0.0591113 0.0212227 0)
(-0.0430712 0.0582459 0)
(-0.0159447 0.112471 0)
(-0.14583 0.352061 0)
(-0.261429 0.473782 0)
(-0.359369 0.501408 0)
(-0.430095 0.471016 0)
(-0.480732 0.408045 0)
(-0.51932 0.332388 0)
(-0.548746 0.257566 0)
(-0.576249 0.194058 0)
(-0.609728 0.145161 0)
(-0.646008 0.109491 0)
(-0.669473 0.0706959 0)
(-0.682053 0.0292285 0)
(-0.683801 -0.00903608 0)
(-0.677941 -0.0438682 0)
(-0.667058 -0.0729266 0)
(-0.654694 -0.0969597 0)
(-0.641351 -0.119838 0)
(-0.623232 -0.142946 0)
(-0.595665 -0.164199 0)
(-0.558982 -0.182449 0)
(-0.515021 -0.196814 0)
(-0.459633 -0.20626 0)
(-0.405221 -0.21058 0)
(-0.361496 -0.213147 0)
(-0.326681 -0.219928 0)
(-0.297585 -0.224024 0)
(-0.272009 -0.226135 0)
(-0.248246 -0.224116 0)
(-0.22389 -0.214094 0)
(-0.198974 -0.192078 0)
(-0.1747 -0.156072 0)
(-0.153967 -0.106445 0)
(-0.1431 -0.0596351 0)
(-0.142109 -0.0471477 0)
(-0.142299 -0.0543596 0)
(-0.133246 -0.0445383 0)
(-0.11993 -0.0220493 0)
(-0.0989899 0.00768068 0)
(-0.0736524 0.0421194 0)
(-0.0354684 0.0798849 0)
(-0.148611 0.488258 0)
(-0.266298 0.561949 0)
(-0.354629 0.559366 0)
(-0.417137 0.510922 0)
(-0.460535 0.436744 0)
(-0.49193 0.354187 0)
(-0.520263 0.278394 0)
(-0.561192 0.222368 0)
(-0.610846 0.177655 0)
(-0.643874 0.130573 0)
(-0.661971 0.0829048 0)
(-0.672232 0.0333068 0)
(-0.670054 -0.0131411 0)
(-0.661047 -0.0514011 0)
(-0.651243 -0.0806832 0)
(-0.642434 -0.104472 0)
(-0.634553 -0.128416 0)
(-0.623871 -0.156539 0)
(-0.60515 -0.187862 0)
(-0.574985 -0.215736 0)
(-0.5363 -0.241106 0)
(-0.486201 -0.261034 0)
(-0.419342 -0.257546 0)
(-0.349157 -0.240962 0)
(-0.302719 -0.237769 0)
(-0.274566 -0.237477 0)
(-0.25597 -0.239608 0)
(-0.242464 -0.238341 0)
(-0.228342 -0.228939 0)
(-0.212381 -0.207101 0)
(-0.195778 -0.169354 0)
(-0.183136 -0.114972 0)
(-0.178845 -0.0608924 0)
(-0.181383 -0.0458942 0)
(-0.183096 -0.05871 0)
(-0.175404 -0.0516901 0)
(-0.163613 -0.0344635 0)
(-0.139281 -0.0124737 0)
(-0.0986125 0.0136212 0)
(-0.0417489 0.0366174 0)
(-0.159729 0.629873 0)
(-0.279531 0.644283 0)
(-0.352792 0.610073 0)
(-0.404948 0.544078 0)
(-0.439754 0.460799 0)
(-0.46934 0.377186 0)
(-0.514179 0.310806 0)
(-0.575482 0.260404 0)
(-0.617999 0.206938 0)
(-0.646664 0.148079 0)
(-0.653313 0.0880393 0)
(-0.653159 0.0312075 0)
(-0.649344 -0.0181915 0)
(-0.642117 -0.0575387 0)
(-0.63377 -0.0866192 0)
(-0.626525 -0.109506 0)
(-0.620015 -0.133932 0)
(-0.609347 -0.165875 0)
(-0.591444 -0.202502 0)
(-0.565969 -0.23668 0)
(-0.53485 -0.266738 0)
(-0.499459 -0.296208 0)
(-0.451051 -0.319919 0)
(-0.370216 -0.301469 0)
(-0.286553 -0.276219 0)
(-0.239714 -0.250613 0)
(-0.227025 -0.243685 0)
(-0.227551 -0.243008 0)
(-0.225434 -0.235924 0)
(-0.219585 -0.215432 0)
(-0.211257 -0.177124 0)
(-0.20658 -0.118468 0)
(-0.207094 -0.0588769 0)
(-0.212428 -0.0448551 0)
(-0.213221 -0.0618126 0)
(-0.207053 -0.0583784 0)
(-0.197365 -0.0478323 0)
(-0.176017 -0.041558 0)
(-0.131255 -0.0363382 0)
(-0.0574101 -0.0259891 0)
(-0.182445 0.791549 0)
(-0.309076 0.714241 0)
(-0.359585 0.649497 0)
(-0.397625 0.570467 0)
(-0.427585 0.485921 0)
(-0.472372 0.412048 0)
(-0.539267 0.355761 0)
(-0.592131 0.296884 0)
(-0.617085 0.223579 0)
(-0.627138 0.151945 0)
(-0.628817 0.0877194 0)
(-0.626747 0.0299471 0)
(-0.623703 -0.0206647 0)
(-0.61912 -0.0614167 0)
(-0.613426 -0.0911148 0)
(-0.608395 -0.114002 0)
(-0.602299 -0.139061 0)
(-0.589508 -0.174484 0)
(-0.568655 -0.215937 0)
(-0.544043 -0.253566 0)
(-0.516681 -0.284041 0)
(-0.48487 -0.317769 0)
(-0.449117 -0.352799 0)
(-0.391849 -0.36487 0)
(-0.275052 -0.335696 0)
(-0.185392 -0.288356 0)
(-0.16863 -0.241301 0)
(-0.199687 -0.235529 0)
(-0.215576 -0.233235 0)
(-0.2202 -0.21638 0)
(-0.22074 -0.180119 0)
(-0.222152 -0.118846 0)
(-0.223264 -0.0540125 0)
(-0.228406 -0.0454179 0)
(-0.228532 -0.0631517 0)
(-0.224196 -0.0634907 0)
(-0.215391 -0.0581193 0)
(-0.197294 -0.065644 0)
(-0.161534 -0.0878626 0)
(-0.0996016 -0.0947234 0)
(0.0847362 -0.00291483 0)
(0.122609 0.0190557 0)
(0.10189 -0.0131909 0)
(0.164693 -0.0205427 0)
(0.124444 -0.0313845 0)
(0.261507 -0.0465001 0)
(0.371186 -0.132653 0)
(-0.145401 0.119798 0)
(-0.201909 0.107948 0)
(-0.304905 0.243597 0)
(-0.348004 0.276177 0)
(-0.378273 0.304794 0)
(-0.401562 0.317185 0)
(-0.42359 0.340853 0)
(-0.43179 0.341523 0)
(-0.455505 0.368106 0)
(-0.44971 0.360693 0)
(-0.474453 0.394275 0)
(-0.459219 0.376399 0)
(-0.481295 0.416449 0)
(-0.478093 0.433598 0)
(-0.467124 0.445811 0)
(-0.450313 0.45418 0)
(-0.428689 0.459107 0)
(-0.405356 0.460825 0)
(-0.381933 0.459749 0)
(-0.357702 0.455189 0)
(-0.331494 0.447795 0)
(-0.303588 0.437229 0)
(-0.274337 0.423278 0)
(-0.243705 0.405872 0)
(-0.211191 0.384988 0)
(-0.175608 0.360683 0)
(-0.135343 0.334518 0)
(-0.0895073 0.31064 0)
(-0.0411735 0.285427 0)
(-0.00424131 0.253797 0)
(0.010071 0.226754 0)
(0.0301236 0.192665 0)
(0.108492 0.129052 0)
(0.165913 0.136844 0)
(0.219032 0.131872 0)
(0.26383 0.126272 0)
(0.202867 -0.0264202 0)
(0.236485 -0.0269474 0)
(0.289772 0.0117901 0)
(-0.215259 0.335192 0)
(0.166245 -0.0702141 0)
(0.0646314 0.0453011 0)
(-0.0344028 0.196083 0)
(-0.398611 0.534368 0)
(-0.0551244 0.0440636 0)
(-0.151166 0.17121 0)
(-0.299037 0.360411 0)
(-0.495846 0.635964 0)
(-0.236176 0.208525 0)
(-0.315089 0.288464 0)
(-0.449936 0.480139 0)
(-0.549946 0.692085 0)
(-0.344607 0.289773 0)
(-0.424921 0.379075 0)
(-0.528821 0.55703 0)
(-0.576341 0.713381 0)
(-0.419639 0.344906 0)
(-0.493836 0.44923 0)
(-0.562458 0.603019 0)
(-0.581275 0.715471 0)
(-0.468446 0.392804 0)
(-0.528593 0.50089 0)
(-0.569429 0.626474 0)
(-0.569672 0.707057 0)
(-0.496794 0.433225 0)
(-0.539063 0.534667 0)
(-0.560175 0.635812 0)
(-0.548903 0.692877 0)
(-0.50786 0.464252 0)
(-0.535536 0.554573 0)
(-0.541279 0.6351 0)
(-0.525787 0.675723 0)
(-0.506116 0.484779 0)
(-0.52201 0.563876 0)
(-0.518964 0.628454 0)
(-0.501847 0.658171 0)
(-0.495493 0.49811 0)
(-0.50147 0.566736 0)
(-0.494336 0.617873 0)
(-0.476522 0.641224 0)
(-0.4777 0.505207 0)
(-0.477859 0.563981 0)
(-0.467127 0.605856 0)
(-0.448648 0.625582 0)
(-0.455314 0.507858 0)
(-0.451558 0.557148 0)
(-0.437677 0.59197 0)
(-0.418444 0.610163 0)
(-0.43005 0.506151 0)
(-0.42292 0.547752 0)
(-0.407075 0.576676 0)
(-0.38698 0.593022 0)
(-0.403027 0.501966 0)
(-0.393535 0.537088 0)
(-0.376714 0.560713 0)
(-0.354923 0.573507 0)
(-0.376564 0.495731 0)
(-0.365405 0.524332 0)
(-0.346657 0.54267 0)
(-0.323095 0.551043 0)
(-0.349846 0.4867 0)
(-0.336632 0.509865 0)
(-0.31572 0.522497 0)
(-0.291632 0.525362 0)
(-0.320814 0.475632 0)
(-0.305749 0.49381 0)
(-0.283825 0.500432 0)
(-0.260088 0.496011 0)
(-0.289822 0.462437 0)
(-0.272983 0.476591 0)
(-0.250783 0.477634 0)
(-0.227382 0.464951 0)
(-0.257228 0.446758 0)
(-0.238392 0.458208 0)
(-0.216074 0.455304 0)
(-0.19345 0.435931 0)
(-0.222968 0.42812 0)
(-0.201445 0.43817 0)
(-0.178242 0.43364 0)
(-0.155926 0.411128 0)
(-0.186762 0.405904 0)
(-0.16164 0.415268 0)
(-0.135802 0.410975 0)
(-0.111818 0.389297 0)
(-0.148239 0.379652 0)
(-0.119381 0.388191 0)
(-0.0896308 0.384513 0)
(-0.061114 0.365885 0)
(-0.106472 0.349765 0)
(-0.0754596 0.356809 0)
(-0.042675 0.353085 0)
(-0.0100101 0.336573 0)
(-0.0603491 0.319516 0)
(-0.029271 0.322867 0)
(0.00402145 0.318049 0)
(0.0383839 0.302396 0)
(-0.0109503 0.293428 0)
(0.0194325 0.29255 0)
(0.0518292 0.283218 0)
(0.085803 0.266024 0)
(0.0316637 0.266057 0)
(0.0681936 0.265661 0)
(0.102246 0.254566 0)
(0.134567 0.23501 0)
(0.0581923 0.232589 0)
(0.108073 0.232606 0)
(0.147191 0.225561 0)
(0.182285 0.209676 0)
(0.0860139 0.173814 0)
(0.13333 0.182288 0)
(0.170847 0.189211 0)
(0.214928 0.181614 0)
(0.138833 0.0809825 0)
(0.158048 0.105672 0)
(0.183657 0.131659 0)
(0.231329 0.123838 0)
(0.176019 0.103167 0)
(0.189015 0.0871015 0)
(0.217913 0.0594103 0)
(0.258912 0.0156248 0)
(0.223844 0.104603 0)
(0.233414 0.0839935 0)
(0.253102 0.0584191 0)
(0.277491 0.025064 0)
(0.26638 0.097828 0)
(0.27078 0.0717018 0)
(0.279294 0.0424746 0)
(0.288515 0.00978584 0)
(-0.343348 0.892632 0)
(-0.363286 0.756145 0)
(-0.380152 0.676176 0)
(-0.404613 0.595522 0)
(-0.443796 0.51925 0)
(-0.504359 0.458178 0)
(-0.557185 0.390993 0)
(-0.578532 0.311399 0)
(-0.587827 0.232011 0)
(-0.592268 0.155878 0)
(-0.594223 0.087884 0)
(-0.594176 0.028831 0)
(-0.594684 -0.0228528 0)
(-0.594212 -0.0648439 0)
(-0.592245 -0.0951995 0)
(-0.588463 -0.117284 0)
(-0.579011 -0.144392 0)
(-0.55884 -0.189801 0)
(-0.535461 -0.233977 0)
(-0.514589 -0.271829 0)
(-0.49106 -0.302849 0)
(-0.45911 -0.338886 0)
(-0.422832 -0.381611 0)
(-0.371451 -0.427707 0)
(-0.271294 -0.428249 0)
(-0.146765 -0.34629 0)
(-0.0764048 -0.244119 0)
(-0.122278 -0.202068 0)
(-0.190686 -0.21823 0)
(-0.212506 -0.209832 0)
(-0.221242 -0.180042 0)
(-0.223716 -0.117698 0)
(-0.222895 -0.047615 0)
(-0.226056 -0.0456402 0)
(-0.227019 -0.0659825 0)
(-0.220663 -0.0673209 0)
(-0.208741 -0.0533345 0)
(-0.183378 -0.0560488 0)
(-0.131582 -0.0698516 0)
(-0.122232 -0.120946 0)
(-0.43909 0.86321 0)
(-0.411606 0.765837 0)
(-0.415169 0.693085 0)
(-0.440144 0.621427 0)
(-0.482464 0.556806 0)
(-0.518884 0.487403 0)
(-0.537049 0.40555 0)
(-0.543101 0.318887 0)
(-0.547005 0.234621 0)
(-0.549773 0.1576 0)
(-0.553517 0.0879479 0)
(-0.556478 0.0288304 0)
(-0.561186 -0.0221431 0)
(-0.56574 -0.0641457 0)
(-0.568753 -0.0955063 0)
(-0.56016 -0.11927 0)
(-0.53065 -0.156084 0)
(-0.512767 -0.208005 0)
(-0.494262 -0.251137 0)
(-0.47513 -0.289292 0)
(-0.45133 -0.32666 0)
(-0.4212 -0.3683 0)
(-0.381805 -0.417383 0)
(-0.334254 -0.472619 0)
(-0.26539 -0.501313 0)
(-0.151517 -0.423868 0)
(-0.0531547 -0.272112 0)
(-0.00252144 -0.170154 0)
(-0.107961 -0.169648 0)
(-0.183528 -0.192566 0)
(-0.204225 -0.17445 0)
(-0.193351 -0.125372 0)
(-0.194083 -0.0395226 0)
(-0.194419 -0.0452203 0)
(-0.20328 -0.0725474 0)
(-0.215928 -0.0635602 0)
(-0.259211 -0.0697063 0)
(-0.151051 -0.166573 0)
(0.0281497 -0.219071 0)
(0.183452 -0.279495 0)
(-0.492891 0.81623 0)
(-0.457488 0.762871 0)
(-0.463332 0.703433 0)
(-0.481456 0.639621 0)
(-0.494259 0.572292 0)
(-0.50072 0.496193 0)
(-0.501827 0.409573 0)
(-0.501627 0.320444 0)
(-0.500633 0.236192 0)
(-0.500082 0.160524 0)
(-0.50546 0.089873 0)
(-0.514541 0.0324892 0)
(-0.5265 -0.0183826 0)
(-0.533802 -0.0616158 0)
(-0.52938 -0.102156 0)
(-0.487677 -0.136448 0)
(-0.475673 -0.167623 0)
(-0.465981 -0.216938 0)
(-0.449546 -0.26216 0)
(-0.427081 -0.303681 0)
(-0.399752 -0.345952 0)
(-0.371447 -0.394327 0)
(-0.337772 -0.450506 0)
(-0.298445 -0.508919 0)
(-0.250135 -0.551473 0)
(-0.164409 -0.525797 0)
(-0.0491058 -0.302783 0)
(0.0434824 -0.170681 0)
(0.0134148 -0.10768 0)
(-0.0861677 -0.139551 0)
(-0.145669 -0.158284 0)
(-0.13037 -0.136648 0)
(-0.0939436 -0.0465778 0)
(-0.0966825 -0.0307577 0)
(-0.139339 -0.0597326 0)
(-0.203134 -0.0164135 0)
(-0.260099 -0.12037 0)
(-0.174408 -0.27036 0)
(-0.0742734 -0.320116 0)
(0.0033645 -0.100345 0)
(-0.534182 0.792318 0)
(-0.500204 0.754684 0)
(-0.498308 0.701718 0)
(-0.490346 0.640052 0)
(-0.481316 0.571283 0)
(-0.472867 0.493314 0)
(-0.466064 0.407403 0)
(-0.4584 0.320806 0)
(-0.451187 0.237028 0)
(-0.447601 0.162378 0)
(-0.444886 0.093785 0)
(-0.399049 0.040969 0)
(-0.391205 -0.00764668 0)
(-0.395784 -0.0593207 0)
(-0.405909 -0.11917 0)
(-0.411374 -0.160973 0)
(-0.437701 -0.17321 0)
(-0.428643 -0.221884 0)
(-0.407171 -0.268031 0)
(-0.378376 -0.315212 0)
(-0.346569 -0.356764 0)
(-0.31297 -0.408352 0)
(-0.282933 -0.471616 0)
(-0.255205 -0.538277 0)
(-0.217447 -0.59089 0)
(-0.164387 -0.586375 0)
(-0.0668541 -0.404875 0)
(0.050101 -0.185179 0)
(0.0691347 -0.0996233 0)
(0.0190497 -0.0745446 0)
(-0.0394307 -0.126719 0)
(-0.0550964 -0.15317 0)
(-0.00846403 -0.14539 0)
(0.10938 0.0350974 0)
(-0.0656724 0.00746042 0)
(-0.196037 0.0344449 0)
(-0.218689 -0.13654 0)
(-0.161075 -0.313909 0)
(-0.105382 -0.381317 0)
(-0.0708632 -0.185887 0)
(-0.556271 0.772048 0)
(-0.523156 0.74026 0)
(-0.502422 0.689431 0)
(-0.480859 0.628965 0)
(-0.462718 0.560229 0)
(-0.448265 0.484492 0)
(-0.432742 0.40457 0)
(-0.415886 0.321017 0)
(-0.390399 0.224792 0)
(-0.29623 0.140082 0)
(-0.258506 0.0685901 0)
(-0.249094 0.0228115 0)
(-0.258549 -0.0124011 0)
(-0.274764 -0.0526858 0)
(-0.296883 -0.0992838 0)
(-0.317824 -0.137268 0)
(-0.332652 -0.175408 0)
(-0.334757 -0.243887 0)
(-0.343366 -0.302925 0)
(-0.342974 -0.334256 0)
(-0.310194 -0.373029 0)
(-0.251213 -0.417183 0)
(-0.214431 -0.48407 0)
(-0.198651 -0.554152 0)
(-0.171669 -0.617584 0)
(-0.148357 -0.61882 0)
(-0.0905657 -0.565131 0)
(0.0702174 -0.203771 0)
(0.145268 -0.104116 0)
(0.122029 -0.0532811 0)
(0.0696594 -0.100914 0)
(0.0421859 -0.16278 0)
(0.0829077 -0.198935 0)
(0.123954 0.107991 0)
(0.0204743 0.16224 0)
(-0.102103 0.0729545 0)
(-0.125043 -0.137022 0)
(-0.108305 -0.34008 0)
(-0.0891207 -0.420451 0)
(-0.0723309 -0.225893 0)
(-0.555606 0.74869 0)
(-0.520282 0.718085 0)
(-0.492091 0.670295 0)
(-0.467755 0.611367 0)
(-0.448139 0.544985 0)
(-0.427847 0.476737 0)
(-0.402674 0.401148 0)
(-0.328834 0.271103 0)
(-0.12528 0.144929 0)
(-0.0922189 0.0983074 0)
(-0.101224 0.0609761 0)
(-0.118896 0.0301181 0)
(-0.142923 0.00153562 0)
(-0.170405 -0.0343389 0)
(-0.200567 -0.0767093 0)
(-0.22837 -0.117207 0)
(-0.247987 -0.161448 0)
(-0.260397 -0.225604 0)
(-0.273478 -0.295265 0)
(-0.272607 -0.374401 0)
(-0.251671 -0.456101 0)
(-0.204983 -0.510975 0)
(-0.147049 -0.496163 0)
(-0.134031 -0.559567 0)
(-0.10745 -0.63789 0)
(-0.104451 -0.647117 0)
(0.000279084 -0.602361 0)
(0.226883 -0.278152 0)
(0.24331 -0.114662 0)
(0.260804 -0.040493 0)
(0.203859 -0.0821 0)
(0.171604 -0.163996 0)
(0.153651 -0.138157 0)
(0.125865 0.0435459 0)
(0.0694639 0.213159 0)
(0.0140837 0.114672 0)
(-0.0167507 -0.123116 0)
(-0.0382451 -0.341212 0)
(-0.057407 -0.420878 0)
(-0.0636841 -0.257793 0)
(-0.540297 0.723763 0)
(-0.506884 0.6942 0)
(-0.47979 0.64906 0)
(-0.458679 0.593177 0)
(-0.437457 0.533092 0)
(-0.408471 0.465697 0)
(-0.33806 0.316451 0)
(0.0210051 0.0878497 0)
(0.105921 0.122025 0)
(0.0240133 0.10685 0)
(-0.0111795 0.0793821 0)
(-0.0354727 0.0514765 0)
(-0.0600084 0.0235494 0)
(-0.0882198 -0.0107392 0)
(-0.120217 -0.052362 0)
(-0.149934 -0.09728 0)
(-0.17268 -0.147581 0)
(-0.19085 -0.20985 0)
(-0.20624 -0.280731 0)
(-0.215555 -0.358821 0)
(-0.217498 -0.443658 0)
(-0.208755 -0.524081 0)
(-0.172628 -0.587527 0)
(-0.0351832 -0.557503 0)
(-0.0204272 -0.661448 0)
(0.0123294 -0.729703 0)
(0.193452 -0.747127 0)
(0.364045 -0.459142 0)
(0.372428 -0.105958 0)
(0.409794 -0.0181602 0)
(0.367822 -0.0635721 0)
(0.361041 -0.140406 0)
(0.201235 -0.088573 0)
(0.131816 0.108917 0)
(0.100779 0.226934 0)
(0.0968545 0.146671 0)
(0.0742426 -0.0904519 0)
(0.0284529 -0.325602 0)
(-0.0276872 -0.385569 0)
(-0.0550786 -0.307342 0)
(-0.520451 0.698887 0)
(-0.4912 0.671903 0)
(-0.470897 0.630951 0)
(-0.454796 0.5805 0)
(-0.426616 0.515249 0)
(-0.363889 0.382694 0)
(0.0585391 0.0153881 0)
(-0.173752 0.0151229 0)
(0.0351171 0.130427 0)
(-0.00983255 0.125306 0)
(-0.00457997 0.0958585 0)
(-0.000680517 0.0668414 0)
(-0.0108086 0.041523 0)
(-0.0296779 0.0111346 0)
(-0.0560712 -0.0292974 0)
(-0.0829121 -0.0768362 0)
(-0.106047 -0.131537 0)
(-0.124983 -0.196242 0)
(-0.141792 -0.268094 0)
(-0.155929 -0.346203 0)
(-0.170128 -0.429642 0)
(-0.202439 -0.519555 0)
(-0.260509 -0.629218 0)
(0.0448745 -0.615327 0)
(0.0982087 -0.699274 0)
(0.191813 -0.801307 0)
(0.268198 -0.800049 0)
(0.388339 -0.639248 0)
(0.494496 -0.15766 0)
(0.562622 0.018644 0)
(0.513408 -0.0316573 0)
(0.473434 -0.0503184 0)
(0.302319 0.0257389 0)
(0.16668 0.150773 0)
(0.140418 0.226924 0)
(0.137955 0.149039 0)
(0.11726 -0.0491592 0)
(0.0730307 -0.270362 0)
(-0.019274 -0.346097 0)
(-0.0408167 -0.344872 0)
(-0.500037 0.676783 0)
(-0.477319 0.654096 0)
(-0.46575 0.620773 0)
(-0.454777 0.575308 0)
(-0.439726 0.499956 0)
(-0.47194 0.172591 0)
(-0.566385 0.0694668 0)
(-0.436216 0.000544555 0)
(-0.353556 0.105301 0)
(-0.125432 0.069687 0)
(-0.050122 0.0616472 0)
(0.00104946 0.058042 0)
(0.0150777 0.0470641 0)
(0.0107178 0.0246716 0)
(-0.00497313 -0.011232 0)
(-0.0255836 -0.0585963 0)
(-0.0455603 -0.115969 0)
(-0.0620355 -0.182981 0)
(-0.0745287 -0.257153 0)
(-0.0819046 -0.336072 0)
(-0.0852759 -0.418989 0)
(-0.109219 -0.51674 0)
(-0.12005 -0.684427 0)
(0.127164 -0.852754 0)
(0.236411 -0.830366 0)
(0.280023 -0.847409 0)
(0.31598 -0.824224 0)
(0.369454 -0.670927 0)
(0.44432 -0.351214 0)
(0.662973 0.0339757 0)
(0.601644 0.0139028 0)
(0.49617 0.0407145 0)
(0.357347 0.138428 0)
(0.21751 0.219582 0)
(0.181392 0.243236 0)
(0.170218 0.154504 0)
(0.144937 -0.021321 0)
(0.0868597 -0.203152 0)
(0.00909003 -0.307221 0)
(-0.0165375 -0.359307 0)
(-0.479384 0.65875 0)
(-0.463442 0.642982 0)
(-0.458981 0.621722 0)
(-0.46633 0.589152 0)
(-0.534644 0.470836 0)
(-0.5431 0.237707 0)
(-0.540702 0.084123 0)
(-0.539286 -0.0450279 0)
(-0.475271 -0.0829731 0)
(-0.211455 -0.0688868 0)
(-0.0987998 -0.0164205 0)
(-0.0156095 0.0222001 0)
(0.0243174 0.0349072 0)
(0.0388868 0.0264276 0)
(0.0366014 -0.000812554 0)
(0.024311 -0.0448916 0)
(0.00965994 -0.103476 0)
(-0.00151724 -0.173977 0)
(-0.00552214 -0.253158 0)
(0.00182676 -0.339162 0)
(0.0262901 -0.434619 0)
(0.0501066 -0.554855 0)
(0.220851 -0.741168 0)
(0.239447 -0.864919 0)
(0.273072 -0.883407 0)
(0.30826 -0.879681 0)
(0.332974 -0.843397 0)
(0.330193 -0.702793 0)
(0.382523 -0.459565 0)
(0.563394 -0.0149041 0)
(0.584101 0.0669056 0)
(0.464039 0.123343 0)
(0.352281 0.23046 0)
(0.256553 0.28387 0)
(0.218892 0.265722 0)
(0.201509 0.170101 0)
(0.170196 0.0130713 0)
(0.111558 -0.150495 0)
(0.0442516 -0.269588 0)
(0.0122653 -0.355392 0)
(-0.456986 0.644484 0)
(-0.446086 0.638412 0)
(-0.450513 0.63185 0)
(-0.477311 0.634552 0)
(-0.492537 0.464412 0)
(-0.479147 0.25817 0)
(-0.473644 0.0865949 0)
(-0.475294 -0.0637351 0)
(-0.463353 -0.198382 0)
(-0.305132 -0.210009 0)
(-0.161908 -0.115939 0)
(-0.042801 -0.0363735 0)
(0.0225748 0.00377875 0)
(0.0589387 0.0140663 0)
(0.0720069 0.000366609 0)
(0.0686475 -0.0369821 0)
(0.0597287 -0.0955416 0)
(0.0542746 -0.17075 0)
(0.058322 -0.258412 0)
(0.0774771 -0.35784 0)
(0.116052 -0.474288 0)
(0.158585 -0.622238 0)
(0.287422 -0.81269 0)
(0.29209 -0.879428 0)
(0.307464 -0.899879 0)
(0.332779 -0.894077 0)
(0.342668 -0.854871 0)
(0.322287 -0.748007 0)
(0.391045 -0.47171 0)
(0.497631 -0.0540265 0)
(0.499409 0.111943 0)
(0.417847 0.206097 0)
(0.332062 0.295867 0)
(0.27426 0.325413 0)
(0.249064 0.286984 0)
(0.230227 0.191267 0)
(0.194917 0.0504488 0)
(0.138 -0.0997221 0)
(0.0764797 -0.225904 0)
(0.0346936 -0.325518 0)
(-0.430472 0.63233 0)
(-0.422319 0.635781 0)
(-0.433959 0.643594 0)
(-0.437464 0.647103 0)
(-0.412459 0.450209 0)
(-0.390027 0.258452 0)
(-0.390096 0.0865019 0)
(-0.387224 -0.0725724 0)
(-0.37721 -0.207234 0)
(-0.361686 -0.307339 0)
(-0.236492 -0.23996 0)
(-0.0802031 -0.117017 0)
(0.0137841 -0.0485095 0)
(0.0753361 -0.0146635 0)
(0.104552 -0.00830427 0)
(0.109157 -0.0346179 0)
(0.104503 -0.0918523 0)
(0.103602 -0.172627 0)
(0.113783 -0.270448 0)
(0.139683 -0.383964 0)
(0.183637 -0.518458 0)
(0.233509 -0.680408 0)
(0.324416 -0.840644 0)
(0.334941 -0.894313 0)
(0.346898 -0.912916 0)
(0.364309 -0.906964 0)
(0.363428 -0.868485 0)
(0.386139 -0.796035 0)
(0.447241 -0.477411 0)
(0.433315 -0.111153 0)
(0.424387 0.127491 0)
(0.371465 0.265399 0)
(0.313483 0.341112 0)
(0.281492 0.348841 0)
(0.269571 0.301999 0)
(0.253823 0.213185 0)
(0.216958 0.0879546 0)
(0.162147 -0.0517293 0)
(0.101709 -0.176059 0)
(0.0500579 -0.278547 0)
(-0.399966 0.619835 0)
(-0.392636 0.632125 0)
(-0.389465 0.656364 0)
(-0.348052 0.615705 0)
(-0.317104 0.427448 0)
(-0.298605 0.256072 0)
(-0.298831 0.0888067 0)
(-0.298705 -0.0810868 0)
(-0.291194 -0.209314 0)
(-0.285129 -0.305638 0)
(-0.284437 -0.382072 0)
(-0.133159 -0.223512 0)
(-0.00229057 -0.125407 0)
(0.0909539 -0.0624363 0)
(0.137177 -0.0263539 0)
(0.14663 -0.035987 0)
(0.143535 -0.0908016 0)
(0.145517 -0.178093 0)
(0.160538 -0.286586 0)
(0.190615 -0.413035 0)
(0.234301 -0.56091 0)
(0.287449 -0.732289 0)
(0.362863 -0.867632 0)
(0.37544 -0.911155 0)
(0.384508 -0.923477 0)
(0.392581 -0.919022 0)
(0.396468 -0.893062 0)
(0.452387 -0.770347 0)
(0.416906 -0.459072 0)
(0.372047 -0.112543 0)
(0.356994 0.147102 0)
(0.325373 0.301695 0)
(0.294373 0.365967 0)
(0.282564 0.357869 0)
(0.278001 0.310561 0)
(0.268309 0.233697 0)
(0.235173 0.1237 0)
(0.182541 -0.00381777 0)
(0.118949 -0.119911 0)
(0.0597995 -0.219623 0)
(-0.368683 0.603882 0)
(-0.358115 0.619748 0)
(-0.317183 0.649006 0)
(-0.241175 0.562144 0)
(-0.216057 0.406839 0)
(-0.203595 0.255358 0)
(-0.210577 0.0891059 0)
(-0.21624 -0.0907668 0)
(-0.212977 -0.211824 0)
(-0.211559 -0.303601 0)
(-0.208352 -0.377912 0)
(-0.182965 -0.339623 0)
(-0.0227582 -0.223784 0)
(0.106155 -0.128405 0)
(0.169529 -0.0513013 0)
(0.179749 -0.0378625 0)
(0.174932 -0.0904659 0)
(0.179333 -0.18642 0)
(0.200399 -0.306895 0)
(0.237261 -0.445331 0)
(0.284835 -0.60167 0)
(0.350636 -0.780062 0)
(0.402333 -0.894954 0)
(0.40763 -0.921928 0)
(0.413648 -0.932 0)
(0.415965 -0.9281 0)
(0.427382 -0.914483 0)
(0.426454 -0.776676 0)
(0.349498 -0.427101 0)
(0.308933 -0.0927144 0)
(0.298308 0.1632 0)
(0.286361 0.319193 0)
(0.281503 0.370983 0)
(0.285392 0.355855 0)
(0.285791 0.313744 0)
(0.275004 0.25257 0)
(0.249925 0.159728 0)
(0.197631 0.0468546 0)
(0.130042 -0.0597544 0)
(0.0681606 -0.152051 0)
(-0.337445 0.582056 0)
(-0.317793 0.587181 0)
(-0.206492 0.61054 0)
(-0.148831 0.512591 0)
(-0.127474 0.391165 0)
(-0.116466 0.256534 0)
(-0.145807 0.124012 0)
(-0.143543 -0.0990284 0)
(-0.145172 -0.213687 0)
(-0.146656 -0.302598 0)
(-0.145724 -0.372914 0)
(-0.146199 -0.43388 0)
(-0.0456458 -0.333702 0)
(0.109687 -0.215606 0)
(0.190851 -0.0789467 0)
(0.201622 -0.0371548 0)
(0.194368 -0.0900826 0)
(0.203099 -0.199494 0)
(0.234383 -0.336049 0)
(0.287899 -0.486683 0)
(0.352739 -0.650664 0)
(0.426241 -0.846871 0)
(0.429576 -0.90153 0)
(0.432636 -0.925828 0)
(0.434548 -0.937996 0)
(0.438886 -0.936016 0)
(0.445403 -0.891902 0)
(0.383674 -0.683072 0)
(0.291922 -0.376053 0)
(0.255745 -0.0734963 0)
(0.251498 0.167768 0)
(0.258489 0.320225 0)
(0.272029 0.362931 0)
(0.281159 0.352528 0)
(0.284822 0.314852 0)
(0.276497 0.261081 0)
(0.256053 0.194505 0)
(0.20698 0.0992999 0)
(0.138953 0.00362923 0)
(0.0756005 -0.0768637 0)
(-0.303791 0.553375 0)
(-0.274522 0.533045 0)
(-0.130418 0.531079 0)
(-0.0880384 0.468946 0)
(-0.0579283 0.381475 0)
(-0.046435 0.25792 0)
(-0.0932752 0.13613 0)
(-0.0894347 -0.101607 0)
(-0.0851734 -0.217367 0)
(-0.0878689 -0.302505 0)
(-0.0882768 -0.370234 0)
(-0.0888567 -0.429964 0)
(-0.0780171 -0.469274 0)
(0.0692814 -0.331787 0)
(0.175624 -0.114594 0)
(0.198328 -0.0368388 0)
(0.195408 -0.0939239 0)
(0.215154 -0.222174 0)
(0.263833 -0.377056 0)
(0.341113 -0.543855 0)
(0.434347 -0.701855 0)
(0.454296 -0.855785 0)
(0.451674 -0.901218 0)
(0.452691 -0.926655 0)
(0.451023 -0.941048 0)
(0.453027 -0.941585 0)
(0.436917 -0.867648 0)
(0.330407 -0.622255 0)
(0.247653 -0.333844 0)
(0.213616 -0.0591881 0)
(0.212561 0.162695 0)
(0.232917 0.307239 0)
(0.254102 0.351095 0)
(0.264757 0.346185 0)
(0.270635 0.315862 0)
(0.266916 0.270373 0)
(0.247747 0.218955 0)
(0.20493 0.149063 0)
(0.140972 0.0682563 0)
(0.0788546 0.00328588 0)