/*--------------------------------*- C++ -*----------------------------------*\
| =========                 |                                                 |
| \\      /  F ield         | OpenFOAM: The Open Source CFD Toolbox           |
|  \\    /   O peration     | Version:  5.0                                   |
|   \\  /    A nd           | Web:      www.OpenFOAM.org                      |
|    \\/     M anipulation  |                                                 |
\*---------------------------------------------------------------------------*/
FoamFile
{
    version     2.0;
    format      ascii;
    class       volScalarField;
    location    "0.2";
    object      alpha.water;
}
// * * * * * * * * * * * * * * * * * * * * * * * * * * * * * * * * * * * * * //

dimensions      [0 0 0 0 0 0 0];

internalField   nonuniform List<scalar> 
1935
(
8.3258e-22
8.87527e-23
8.60905e-24
7.69337e-25
6.44957e-26
5.0662e-27
3.72093e-28
2.54843e-29
1.62651e-30
9.6611e-32
5.33195e-33
2.73003e-34
1.29482e-35
5.68015e-37
2.30201e-38
8.60799e-40
2.96434e-41
9.39509e-43
2.73743e-44
7.31747e-46
1.79347e-47
3.98674e-49
8.08718e-51
1.53543e-52
2.69525e-54
4.37285e-56
6.67144e-58
9.32537e-60
1.19567e-61
1.4053e-63
1.52155e-65
1.5049e-67
1.28521e-69
9.91112e-72
7.00972e-74
4.53871e-76
2.7012e-78
1.50872e-80
8.59455e-83
6.68708e-85
6.39044e-87
5.50525e-89
7.59115e-90
9.77684e-22
6.84815e-22
3.39008e-22
1.25411e-22
9.47178e-23
6.28441e-23
2.99119e-23
1.06935e-23
8.59543e-24
5.44012e-24
2.49812e-24
8.65345e-25
7.32298e-25
4.44588e-25
1.97533e-25
6.64197e-26
5.87957e-26
3.43338e-26
1.47844e-26
4.83421e-27
4.44776e-27
2.50126e-27
1.04567e-27
3.33119e-28
3.16231e-28
1.71594e-28
6.97738e-29
2.16988e-29
2.09753e-29
1.10668e-29
4.38496e-30
1.33396e-30
1.30207e-30
6.69781e-31
2.59105e-31
7.727e-32
7.55997e-32
3.79733e-32
1.43708e-32
4.21046e-33
4.09637e-33
2.0133e-33
7.46859e-34
2.15467e-34
2.0678e-34
9.96523e-35
3.63096e-35
1.03386e-35
9.70782e-36
4.59743e-36
1.64866e-36
4.64396e-37
4.23213e-37
1.97394e-37
6.98075e-38
1.94991e-38
1.71081e-38
7.87678e-39
2.75255e-39
7.64261e-40
6.40478e-40
2.91773e-40
1.0095e-40
2.79286e-41
2.21831e-41
1.00233e-41
3.44033e-42
9.50632e-43
7.10225e-43
3.19115e-43
1.08874e-43
3.01188e-44
2.10085e-44
9.41252e-45
3.19864e-45
8.87974e-46
5.74016e-46
2.57211e-46
8.72572e-47
2.43651e-47
1.44891e-47
6.51421e-48
2.21228e-48
6.25417e-49
3.38008e-49
1.53009e-49
5.22326e-50
1.56439e-50
7.29328e-51
3.33713e-51
1.14963e-51
3.65361e-52
1.4408e-52
6.76712e-53
2.36391e-53
7.90809e-54
2.62659e-54
1.27768e-54
4.55214e-55
1.58772e-55
4.3583e-56
2.24901e-56
8.2288e-57
2.95703e-57
6.65115e-58
3.65363e-58
1.39927e-58
5.11002e-59
9.37675e-60
5.51804e-60
2.24115e-60
8.19803e-61
1.20983e-61
7.79941e-62
3.38186e-62
1.22211e-62
1.43023e-63
1.03428e-63
4.80756e-64
1.76222e-64
1.54399e-65
1.2858e-65
6.43197e-66
2.50421e-66
1.51827e-67
1.50756e-67
8.07948e-68
3.37344e-68
1.52079e-69
1.56863e-69
9.51997e-70
4.28564e-70
1.43961e-71
1.48686e-71
1.05155e-71
5.12995e-72
1.23951e-73
1.31262e-73
1.08962e-73
5.78247e-74
9.80516e-76
1.07803e-75
1.06291e-75
6.14104e-76
7.01059e-78
8.55587e-78
9.64141e-78
6.15623e-78
4.48005e-80
6.90407e-80
7.91603e-80
5.84511e-80
2.72468e-82
5.19455e-82
6.19856e-82
5.28042e-82
1.63653e-84
3.67432e-84
4.66382e-84
4.57072e-84
1.01119e-86
2.47862e-86
3.44149e-86
3.79299e-86
5.94038e-89
1.45742e-88
2.33876e-88
2.73419e-88
7.92587e-90
1.76171e-89
5.37241e-89
1.19634e-88
3.36853e-23
7.13033e-24
1.25334e-24
1.87089e-25
2.41565e-26
2.73489e-27
2.74351e-28
2.45891e-29
1.98239e-30
1.4457e-31
9.58223e-33
5.79557e-34
3.20969e-35
1.63252e-36
7.64535e-38
3.30408e-39
1.32025e-40
4.88583e-42
1.67692e-43
5.34446e-45
1.5832e-46
4.36256e-48
1.11879e-49
2.67094e-51
5.93562e-53
1.22733e-54
2.35915e-56
4.20908e-58
6.95455e-60
1.06066e-61
1.48635e-63
1.90169e-65
2.20203e-67
2.2796e-69
2.07351e-71
1.61565e-73
1.03726e-75
5.14474e-78
1.74324e-80
2.87632e-83
2.77338e-24
5.67072e-25
9.68788e-26
1.41399e-26
1.78905e-27
1.98793e-28
1.96007e-29
1.72887e-30
1.37324e-31
9.87666e-33
6.46203e-34
3.86132e-35
2.11439e-36
1.06411e-37
4.93455e-39
2.11311e-40
8.37227e-42
3.07419e-43
1.04762e-44
3.3173e-46
9.77031e-48
2.67864e-49
6.83986e-51
1.62717e-52
3.60638e-54
7.44385e-56
1.4297e-57
2.55149e-59
4.22174e-61
6.45595e-63
9.0835e-65
1.16859e-66
1.36276e-68
1.42319e-70
1.30825e-72
1.03209e-74
6.72141e-77
3.38772e-79
1.16807e-81
1.95698e-84
2.18437e-25
4.30904e-26
7.11032e-27
1.00947e-27
1.2506e-28
1.36391e-29
1.32153e-30
1.14686e-31
8.97255e-33
6.36253e-34
4.10799e-35
2.42437e-36
1.31218e-37
6.53226e-39
2.99849e-40
1.27192e-41
4.99525e-43
1.81935e-44
6.15395e-46
1.93554e-47
5.66629e-49
1.54526e-50
3.92794e-52
9.30985e-54
2.05758e-55
4.23911e-57
8.13513e-59
1.45226e-60
2.4066e-62
3.69075e-64
5.21527e-66
6.7489e-68
7.92994e-70
8.3593e-72
7.77105e-74
6.21217e-76
4.10759e-78
2.10603e-80
7.3977e-83
1.25958e-85
1.63655e-26
3.13528e-27
5.00709e-28
6.85724e-29
8.26733e-30
8.82663e-31
8.40452e-32
7.17634e-33
5.5294e-34
3.86524e-35
2.46232e-36
1.43497e-37
7.67535e-39
3.77879e-40
1.71666e-41
7.21164e-43
2.80688e-44
1.01384e-45
3.40324e-47
1.06299e-48
3.09267e-50
8.38823e-52
2.12237e-53
5.01139e-55
1.10442e-56
2.27119e-58
4.35528e-60
7.77833e-62
1.29122e-63
1.98645e-65
2.82015e-67
3.67264e-69
4.35048e-71
4.63212e-73
4.35811e-75
3.53319e-77
2.37422e-79
1.23955e-81
4.44025e-84
7.6866e-87
1.16494e-27
2.17343e-28
3.37752e-29
4.49049e-30
5.22366e-31
5.4174e-32
5.04247e-33
4.23343e-34
3.2133e-35
2.21438e-36
1.39181e-37
8.00908e-39
4.23326e-40
2.06102e-41
9.26558e-43
3.85461e-44
1.4867e-45
5.32502e-47
1.77377e-48
5.50168e-50
1.59068e-51
4.29085e-53
1.08063e-54
2.54208e-56
5.58678e-58
1.14691e-59
2.19809e-61
3.92835e-63
6.53452e-65
1.00885e-66
1.43965e-68
1.88778e-70
2.25586e-72
2.42782e-74
2.31366e-76
1.90397e-78
1.30146e-80
6.92559e-83
2.5321e-85
4.45653e-88
7.87084e-29
1.43284e-29
2.17238e-30
2.81624e-31
3.1877e-32
3.20085e-33
2.88074e-34
2.3627e-35
1.76048e-36
1.1961e-37
7.41944e-39
4.21627e-40
2.20236e-41
1.06041e-42
4.71779e-44
1.94365e-45
7.42898e-47
2.63869e-48
8.72228e-50
2.68663e-51
7.71972e-53
2.07118e-54
5.19257e-56
1.2171e-57
2.66789e-59
5.46872e-61
1.04778e-62
1.87447e-64
3.12571e-66
4.84512e-68
6.95364e-70
9.18712e-72
1.10829e-73
1.20662e-75
1.16574e-77
9.74687e-80
6.7839e-82
3.68303e-84
1.37556e-86
2.46118e-89
5.03966e-30
8.97308e-31
1.33029e-31
1.68531e-32
1.86325e-33
1.82382e-34
1.59612e-35
1.26561e-36
9.16891e-38
6.10287e-39
3.73004e-40
2.09396e-41
1.08122e-42
5.14937e-44
2.2676e-45
9.253e-47
3.50525e-48
1.23481e-49
4.05103e-51
1.23932e-52
3.53958e-54
9.44713e-56
2.35819e-57
5.50879e-59
1.20472e-60
2.46655e-62
4.72616e-64
8.46733e-66
1.41612e-67
2.2052e-69
3.18504e-71
4.24295e-73
5.17141e-75
5.70059e-77
5.58868e-79
4.75236e-81
3.37143e-83
1.86932e-85
7.13862e-88
1.2984e-90
3.05329e-31
5.32973e-32
7.74583e-33
9.61332e-34
1.04024e-34
9.95828e-36
8.51496e-37
6.58305e-38
4.63203e-39
2.98163e-40
1.78215e-41
9.82377e-43
5.01039e-44
2.36134e-45
1.02956e-46
4.16216e-48
1.5631e-49
5.4625e-51
1.77903e-52
5.40689e-54
1.53532e-55
4.07752e-57
1.01372e-58
2.36085e-60
5.15283e-62
1.05418e-63
2.021e-65
3.62795e-67
6.08908e-69
9.53185e-71
1.38651e-72
1.86385e-74
2.2972e-76
2.56635e-78
2.55565e-80
2.21257e-82
1.60163e-84
9.07911e-87
3.54871e-89
6.56145e-92
1.74757e-32
2.99795e-33
4.28198e-34
5.21955e-35
5.54202e-36
5.20039e-37
4.35471e-38
3.29497e-39
2.26551e-40
1.42314e-41
8.25722e-43
4.41258e-44
2.20826e-45
1.02416e-46
4.41837e-48
1.77044e-49
6.59391e-51
2.28675e-52
7.39575e-54
2.23376e-55
6.30844e-57
1.66771e-58
4.13098e-60
9.59528e-62
2.09111e-63
4.27687e-65
8.20823e-67
1.47729e-68
2.4899e-70
3.92107e-72
5.74879e-74
7.80512e-76
9.73701e-78
1.10354e-79
1.11746e-81
9.86049e-84
7.29135e-86
4.23048e-88
1.69431e-90
3.18451e-93
9.43427e-34
1.59453e-34
2.24407e-35
2.69361e-36
2.8136e-37
2.59448e-38
2.1328e-39
1.58261e-40
1.06636e-41
6.56153e-43
3.72239e-44
1.94306e-45
9.44926e-47
4.26021e-48
1.80695e-49
7.13577e-51
2.63381e-52
9.06827e-54
2.91383e-55
8.74978e-57
2.45869e-58
6.47294e-60
1.59825e-61
3.70441e-63
8.06513e-65
1.65003e-66
3.17219e-68
5.72783e-70
9.70195e-72
1.53826e-73
2.27513e-75
3.12272e-77
3.94703e-79
4.5429e-81
4.68287e-83
4.21642e-85
3.18858e-87
1.89574e-89
7.78869e-92
1.48768e-94
4.79626e-35
8.00699e-36
1.11329e-36
1.31937e-37
1.35932e-38
1.23493e-39
9.991e-41
7.28833e-42
4.82315e-43
2.9126e-44
1.6208e-45
8.29571e-47
3.9498e-48
1.74205e-49
7.19639e-51
2.76678e-52
1.00577e-53
3.41967e-55
1.08972e-56
3.25368e-58
9.10216e-60
2.38764e-61
5.87982e-63
1.36068e-64
2.96134e-66
6.06431e-68
1.16868e-69
2.11871e-71
3.60947e-73
5.76685e-75
8.61244e-77
1.1962e-78
1.53351e-80
1.79443e-82
1.88508e-84
1.73391e-86
1.34255e-88
8.18901e-91
3.45572e-93
6.70113e-96
2.29266e-36
3.7904e-37
5.22086e-38
6.12543e-39
6.24136e-40
5.60095e-41
4.47088e-42
3.21423e-43
2.09409e-44
1.24395e-45
6.80379e-47
3.42113e-48
1.59984e-49
6.92859e-51
2.8075e-52
1.05873e-53
3.7593e-55
1.24807e-56
3.91538e-58
1.15665e-59
3.20872e-61
8.38376e-63
2.06008e-64
4.76302e-66
1.03692e-67
2.127e-69
4.11208e-71
7.49092e-73
1.28466e-74
2.07019e-76
3.12488e-78
4.39654e-80
5.72278e-82
6.81561e-84
7.30516e-86
6.87219e-88
5.45469e-90
3.41794e-92
1.4839e-94
2.91808e-97
1.02887e-37
1.68908e-38
2.31122e-39
2.69204e-40
2.72015e-41
2.41762e-42
1.90896e-43
1.3559e-44
8.71777e-46
5.10597e-47
2.75112e-48
1.36195e-49
6.267e-51
2.67008e-52
1.06436e-53
3.94911e-55
1.37865e-56
4.50163e-58
1.38562e-59
4.01364e-61
1.09384e-62
2.8332e-64
6.92052e-66
1.59342e-67
3.47006e-69
7.13246e-71
1.38437e-72
2.53628e-74
4.38264e-76
7.13024e-78
1.08894e-79
1.55362e-81
2.05556e-83
2.49447e-85
2.73101e-87
2.63069e-89
2.1432e-91
1.38175e-93
6.18795e-96
1.23579e-98
4.32849e-39
7.07561e-40
9.64592e-41
1.11859e-41
1.12399e-42
9.92065e-44
7.76888e-45
5.46539e-46
3.47627e-47
2.01219e-48
1.07045e-49
5.22876e-51
2.37249e-52
9.96408e-54
3.91422e-55
1.43125e-56
4.92527e-58
1.58596e-59
4.8138e-61
1.37559e-62
3.70035e-64
9.44262e-66
2.27505e-67
5.17562e-69
1.12362e-70
2.30737e-72
4.48731e-74
8.2548e-76
1.43715e-77
2.36212e-79
3.6527e-81
5.28936e-83
7.1212e-85
8.81532e-87
9.8697e-89
9.74661e-91
8.16132e-93
5.42498e-95
2.51761e-97
5.15935e-100
1.70486e-40
2.78274e-41
3.79077e-42
4.38952e-43
4.39872e-44
3.86621e-45
3.01064e-46
2.10309e-47
1.32655e-48
7.60642e-50
4.0043e-51
1.93414e-52
8.67196e-54
3.59747e-55
1.3954e-56
5.03781e-58
1.71167e-59
5.44352e-61
1.63265e-62
4.61339e-64
1.22816e-65
3.10317e-67
7.41213e-69
1.67439e-70
3.60636e-72
7.36358e-74
1.42727e-75
2.62425e-77
4.5914e-79
7.61436e-81
1.19125e-82
1.7501e-84
2.39811e-86
3.02985e-88
3.47196e-90
3.51924e-92
3.03427e-94
2.08659e-96
1.01209e-98
2.17737e-101
6.27914e-42
1.02631e-42
1.40129e-43
1.62514e-44
1.62888e-45
1.4297e-46
1.11004e-47
7.7195e-49
4.84056e-50
2.75598e-51
1.43899e-52
6.88797e-54
3.05813e-55
1.25563e-56
4.81838e-58
1.72079e-59
5.78295e-61
1.81951e-62
5.40068e-64
1.51115e-65
3.98684e-67
9.99342e-69
2.37104e-70
5.32823e-72
1.14302e-73
2.32902e-75
4.51463e-77
8.32158e-79
1.46199e-80
2.44069e-82
3.85617e-84
5.74027e-86
7.99611e-88
1.03053e-89
1.20874e-91
1.25857e-93
1.11942e-95
7.99778e-98
4.09864e-100
9.45664e-103
2.1604e-43
3.54615e-44
4.86803e-45
5.67192e-46
5.70316e-47
5.01312e-48
3.89137e-49
2.70101e-50
1.6879e-51
9.56482e-53
4.9645e-54
2.36008e-55
1.03976e-56
4.23386e-58
1.61048e-59
5.69992e-61
1.89805e-62
5.9183e-64
1.74133e-65
4.83221e-67
1.26528e-68
3.15034e-70
7.43331e-72
1.66353e-73
3.55973e-75
7.24864e-77
1.40712e-78
2.60331e-80
4.60124e-82
7.74763e-84
1.23812e-85
1.86964e-87
2.64987e-89
3.48545e-91
4.18563e-93
4.47754e-95
4.11091e-97
3.06023e-99
1.67423e-101
4.23454e-104
6.93848e-45
1.14706e-45
1.5882e-46
1.86493e-47
1.88693e-48
1.66587e-49
1.29636e-50
9.00442e-52
5.62168e-53
3.17812e-54
1.64349e-55
7.77631e-57
3.40664e-58
1.37844e-59
5.20732e-61
1.82984e-62
6.04834e-64
1.87215e-65
5.46907e-67
1.50747e-68
3.92319e-70
9.71624e-72
2.28288e-73
5.09402e-75
1.08846e-76
2.21707e-78
4.3137e-80
8.01662e-82
1.42667e-83
2.42498e-85
3.92243e-87
6.01209e-89
8.67414e-91
1.16491e-92
1.43282e-94
1.5757e-96
1.49573e-98
1.16619e-100
6.91728e-103
1.96673e-105
2.07923e-46
3.47195e-47
4.86403e-48
5.77462e-49
5.89733e-50
5.24445e-51
4.10275e-52
2.85918e-53
1.78778e-54
1.01068e-55
5.21893e-57
2.46305e-58
1.07513e-59
4.3315e-61
1.62815e-62
5.69069e-64
1.87036e-65
5.75657e-67
1.6723e-68
4.5854e-70
1.18779e-71
2.93004e-73
6.8639e-75
1.52895e-76
3.26578e-78
6.66078e-80
1.30014e-81
2.42905e-83
4.35571e-85
7.47809e-87
1.22495e-88
1.90657e-90
2.80125e-92
3.84237e-94
4.8427e-96
5.47956e-98
5.39071e-100
4.43523e-102
2.90849e-104
9.49979e-107
5.81348e-48
9.83272e-49
1.39826e-49
1.68373e-50
1.74094e-51
1.56406e-52
1.23342e-53
8.64645e-55
5.42796e-56
3.07565e-57
1.58943e-58
7.49784e-60
3.26769e-61
1.31333e-62
4.92114e-64
1.71387e-65
5.61069e-67
1.71988e-68
4.97627e-70
1.35937e-71
3.50978e-73
8.63502e-75
2.01937e-76
4.49559e-78
9.60926e-80
1.96439e-81
3.85016e-83
7.23737e-85
1.30858e-86
2.27066e-88
3.7687e-90
5.95918e-92
8.91978e-94
1.25012e-95
1.61531e-97
1.88271e-99
1.92595e-101
1.68906e-103
1.25179e-105
4.75663e-108
1.51819e-49
2.60844e-50
3.77408e-51
4.62415e-52
4.85561e-53
4.41966e-54
3.52291e-55
2.49057e-56
1.57351e-57
8.95702e-59
4.64244e-60
2.19353e-61
9.5637e-63
3.84183e-64
1.43766e-65
4.99769e-67
1.63234e-68
4.99146e-70
1.44061e-71
3.92625e-73
1.01181e-74
2.48596e-76
5.81066e-78
1.2943e-79
2.77144e-81
5.68408e-83
1.11963e-84
2.1192e-86
3.86626e-88
6.78457e-90
1.14155e-91
1.83461e-93
2.79866e-95
4.00938e-97
5.31467e-99
6.39061e-101
6.82887e-103
6.46744e-105
5.53586e-107
2.44914e-109
3.83724e-51
6.75214e-52
9.61883e-53
1.19699e-53
1.28026e-54
1.18394e-55
9.56407e-57
6.83571e-58
4.35655e-59
2.49687e-60
1.30069e-61
6.16811e-63
2.69557e-64
1.08429e-65
4.0594e-67
1.41094e-68
4.60532e-70
1.40697e-71
4.05661e-73
1.10459e-74
2.84496e-76
6.98925e-78
1.63476e-79
3.64738e-81
7.83172e-83
1.61299e-84
3.19578e-86
6.09528e-88
1.1228e-89
1.99372e-91
3.40243e-93
5.56002e-95
8.64755e-97
1.26692e-98
1.72423e-100
2.14338e-102
2.40732e-104
2.5014e-106
2.51688e-108
1.2834e-110
9.22316e-53
1.6649e-53
2.4142e-54
2.93199e-55
3.19432e-56
3.00924e-57
2.46976e-58
1.78883e-59
1.15264e-60
6.66543e-62
3.49696e-63
1.6676e-64
7.31842e-66
2.95305e-67
1.10798e-68
3.85679e-70
1.26e-71
3.85175e-73
1.111e-74
3.0266e-76
7.80088e-78
1.9186e-79
4.49567e-81
1.00577e-82
2.16773e-84
4.48734e-86
8.94981e-88
1.72134e-89
3.2036e-91
5.75934e-93
9.97369e-95
1.65792e-96
2.63008e-98
3.94261e-100
5.5148e-102
7.10707e-104
8.45831e-106
9.81602e-108
1.17275e-109
6.77519e-112
2.06484e-54
3.83655e-55
5.71022e-56
7.00943e-57
7.55388e-58
7.26601e-59
6.07288e-60
4.46729e-61
2.91643e-62
1.7051e-63
9.02689e-65
4.33682e-66
1.9147e-67
7.76351e-69
2.924e-70
1.02096e-71
3.34353e-73
1.0242e-74
2.95953e-76
8.07667e-78
2.0858e-79
5.14175e-81
1.20832e-82
2.71333e-84
5.87557e-86
1.22353e-87
2.45843e-89
4.77137e-91
8.97725e-93
1.63485e-94
2.87422e-96
4.86216e-98
7.87063e-100
1.20796e-101
1.73896e-103
2.33206e-105
2.97156e-107
3.92155e-109
5.5666e-111
3.57257e-113
4.30288e-56
8.26043e-57
1.26533e-57
1.59356e-58
1.70241e-59
1.66931e-60
1.4238e-61
1.0659e-62
7.06411e-64
4.1835e-65
2.23895e-66
1.08561e-67
4.82995e-69
1.97113e-70
7.4641e-72
2.61819e-73
8.60756e-75
2.64576e-76
7.66912e-78
2.09929e-79
5.43857e-81
1.34525e-82
3.1739e-84
7.16068e-86
1.55931e-87
3.26913e-89
6.62233e-91
1.29782e-92
2.46998e-94
4.55878e-96
8.14025e-98
1.40193e-99
2.31678e-101
3.64327e-103
5.40747e-105
7.58391e-107
1.04772e-108
1.59719e-110
2.67178e-112
1.8696e-114
8.35121e-58
1.66279e-58
2.63034e-59
3.40866e-60
3.71114e-61
3.656e-62
3.18805e-63
2.43329e-64
1.63998e-65
9.85496e-67
5.34086e-68
2.61786e-69
1.17558e-70
4.83623e-72
1.844e-73
6.50727e-75
2.15061e-76
6.64201e-78
1.93374e-79
5.31575e-81
1.38305e-82
3.43642e-84
8.14791e-86
1.84863e-87
4.05159e-89
8.55856e-91
1.74911e-92
3.46346e-94
6.67119e-96
1.24849e-97
2.2652e-99
3.97336e-101
6.70689e-103
1.08169e-104
1.6592e-106
2.4494e-108
3.72181e-110
6.6249e-112
1.28722e-113
9.66654e-116
1.5101e-59
3.13053e-60
5.13213e-61
6.86433e-62
7.68808e-63
7.6501e-64
6.82998e-65
5.32313e-66
3.65424e-67
2.23166e-68
1.22661e-69
6.08709e-71
2.76308e-72
1.14752e-73
4.41178e-75
1.56839e-76
5.21755e-78
1.62112e-79
4.7461e-81
1.31171e-82
3.43117e-84
8.57229e-86
2.04455e-87
4.669e-89
1.03074e-90
2.19542e-92
4.52958e-94
9.0676e-96
1.76857e-97
3.35757e-99
6.19246e-101
1.10678e-102
1.90939e-104
3.16218e-106
5.02841e-108
7.87797e-110
1.33663e-111
2.78933e-113
6.18613e-115
4.92338e-117
2.54562e-61
5.51616e-62
9.40511e-63
1.30258e-63
1.5049e-64
1.53267e-65
1.40277e-66
1.11785e-67
7.82702e-69
4.86456e-70
2.71553e-71
1.36624e-72
6.2775e-74
2.63539e-75
1.02298e-76
3.66828e-78
1.22987e-79
3.84882e-81
1.1344e-82
3.15548e-84
8.30693e-86
2.08881e-87
5.0159e-89
1.15387e-90
2.5678e-92
5.51844e-94
1.15014e-95
2.32896e-97
4.60193e-99
8.86653e-101
1.66297e-102
3.02996e-104
5.34634e-106
9.1063e-108
1.50735e-109
2.53149e-111
4.86479e-113
1.18647e-114
2.95099e-116
2.46566e-118
4.00413e-63
9.10565e-64
1.62046e-64
2.33146e-65
2.78667e-66
2.94622e-67
2.7675e-68
2.25744e-69
1.61408e-70
1.02217e-71
5.80251e-73
2.96353e-74
1.38003e-75
5.86382e-77
2.30093e-78
8.33228e-80
2.81865e-81
8.89432e-83
2.64194e-84
7.40391e-86
1.96346e-87
4.97361e-89
1.20347e-90
2.79099e-92
6.26542e-94
1.35949e-95
2.86385e-97
5.869e-99
1.1754e-100
2.29927e-102
4.38725e-104
8.15315e-106
1.47274e-107
2.58529e-109
4.47826e-111
8.15701e-113
1.79591e-114
5.07191e-116
1.39243e-117
1.21294e-119
5.88323e-65
1.40992e-65
2.6283e-66
3.94113e-67
4.8882e-68
5.4463e-69
5.25457e-70
4.39149e-71
3.20975e-72
2.0735e-73
1.19832e-74
6.21996e-76
2.93897e-77
1.26537e-78
5.02491e-80
1.83965e-81
6.28577e-83
2.00207e-84
5.9992e-86
1.69542e-87
4.53326e-89
1.15775e-90
2.82509e-92
6.60975e-94
1.49779e-95
3.28325e-97
6.99446e-99
1.45136e-100
2.94733e-102
5.85597e-104
1.13727e-105
2.15695e-107
3.99323e-109
7.24417e-111
1.32203e-112
2.64535e-114
6.71868e-116
2.16826e-117
6.48352e-119
5.8585e-121
8.20061e-67
2.05105e-67
4.01954e-68
6.30286e-69
8.34703e-70
9.69821e-71
9.61758e-72
8.24277e-73
6.16458e-74
4.06639e-75
2.39504e-76
1.26477e-77
6.07036e-79
2.65112e-80
1.06656e-81
3.95169e-83
1.36516e-84
4.39309e-86
1.32919e-87
3.79139e-89
1.02297e-90
2.63612e-92
6.49154e-94
1.53328e-95
3.50937e-97
7.77593e-99
1.67608e-100
3.52305e-102
7.25739e-104
1.46519e-105
2.89752e-107
5.61264e-109
1.06656e-110
2.00669e-112
3.89044e-114
8.66257e-116
2.54108e-117
9.23177e-119
2.97482e-120
2.77807e-122
1.15641e-68
2.82724e-69
5.809e-70
9.78075e-71
1.3894e-71
1.66564e-72
1.69936e-73
1.49494e-74
1.14508e-75
7.72039e-77
4.63886e-78
2.49479e-79
1.21749e-80
5.39889e-82
2.20257e-83
8.26669e-85
2.89011e-86
9.40489e-88
2.87571e-89
8.28587e-91
2.25773e-92
5.87467e-94
1.46092e-95
3.48573e-97
8.06285e-99
1.80678e-100
3.94223e-102
8.39754e-104
1.75549e-105
3.60274e-107
7.25892e-109
1.4374e-110
2.80919e-112
5.50707e-114
1.1455e-115
2.87095e-117
9.68356e-119
3.90237e-120
1.344e-121
1.29361e-123
1.55721e-70
4.00576e-71
8.56356e-72
1.51418e-72
2.23135e-73
2.76165e-74
2.90191e-75
2.623e-76
2.05982e-77
1.42087e-78
8.7181e-80
4.77954e-81
2.3739e-82
1.06988e-83
4.43026e-85
1.68587e-86
5.96983e-88
1.96615e-89
6.08036e-91
1.77107e-92
4.87694e-94
1.28222e-95
3.22212e-97
7.77054e-99
1.81746e-100
4.12084e-102
9.10552e-104
1.96643e-105
4.1733e-107
8.7104e-109
1.78922e-110
3.62618e-112
7.30745e-114
1.50148e-115
3.38823e-117
9.63934e-119
3.7047e-120
1.63414e-121
5.97764e-123
5.91765e-125
1.98918e-72
5.45357e-73
1.22516e-73
2.25993e-74
3.455e-75
4.42299e-76
4.79329e-77
4.45703e-78
3.59227e-79
2.53785e-80
1.59169e-81
8.90389e-83
4.50512e-84
2.06539e-85
8.68851e-87
3.35504e-88
1.20433e-89
4.01751e-91
1.25752e-92
3.70545e-94
1.03187e-95
2.74294e-97
6.96919e-99
1.69969e-100
4.02177e-102
9.23082e-104
2.06646e-105
4.52624e-107
9.75616e-109
2.07198e-110
4.3426e-112
9.02183e-114
1.88107e-115
4.08103e-117
1.01075e-118
3.27731e-120
1.41804e-121
6.7696e-123
2.61765e-124
2.66094e-126
2.41018e-74
7.07699e-75
1.67922e-75
3.24229e-76
5.15901e-77
6.84532e-78
7.66347e-79
7.34062e-80
6.07963e-81
4.40377e-82
2.8261e-83
1.61468e-84
8.33034e-86
3.88833e-87
1.66312e-88
6.52206e-90
2.37509e-91
8.03092e-93
2.5461e-94
7.59471e-96
2.14012e-97
5.75525e-99
1.4793e-100
3.65044e-102
8.74242e-104
2.03211e-105
4.61084e-107
1.02473e-108
2.24436e-110
4.85312e-112
1.03891e-113
2.21709e-115
4.80417e-117
1.11028e-118
3.05125e-120
1.12644e-121
5.41499e-123
2.77226e-124
1.12907e-125
1.17698e-127
2.77009e-76
8.75706e-77
2.20456e-77
4.47294e-78
7.42931e-79
1.02408e-79
1.18655e-80
1.17263e-81
9.99326e-83
7.4305e-84
4.88449e-85
2.85315e-86
1.50229e-87
7.14558e-89
3.11007e-90
1.2396e-91
4.58297e-93
1.57186e-94
5.05088e-96
1.52612e-97
4.35431e-99
1.18529e-100
3.08371e-102
7.70329e-104
1.86811e-105
4.39947e-107
1.0122e-108
2.28356e-110
5.08484e-112
1.12039e-113
2.45316e-115
5.3925e-117
1.2213e-118
3.03702e-120
9.3427e-122
3.9043e-123
2.05841e-124
1.12202e-125
4.79969e-127
5.12504e-129
3.0231e-78
1.03379e-78
2.77318e-79
5.93431e-80
1.03197e-80
1.48138e-81
1.77993e-82
1.81791e-83
1.59639e-84
1.21999e-85
8.22401e-87
4.91631e-88
2.6444e-89
1.28284e-90
5.68639e-92
2.30532e-93
8.65929e-95
3.01461e-96
9.82445e-98
3.00873e-99
8.69703e-101
2.39769e-102
6.3172e-104
1.59829e-105
3.92668e-107
9.37356e-109
2.1878e-110
5.01301e-112
1.13564e-113
2.55242e-115
5.72682e-117
1.30145e-118
3.1027e-120
8.39043e-122
2.90419e-123
1.36083e-124
7.7772e-126
4.48852e-127
2.01232e-128
2.19885e-130
3.13922e-80
1.16581e-80
3.34504e-81
7.57485e-82
1.38311e-82
2.07261e-83
2.58772e-84
2.73606e-85
2.47946e-86
1.95007e-87
1.34959e-88
8.2654e-90
4.54599e-91
2.25125e-92
1.01712e-93
4.19745e-95
1.60301e-96
5.66842e-98
1.87476e-99
5.82292e-101
1.70623e-102
4.76669e-104
1.27251e-105
3.26244e-107
8.12409e-109
1.96678e-110
4.65944e-112
1.08506e-113
2.50297e-115
5.74639e-117
1.3245e-118
3.12671e-120
7.91329e-122
2.35067e-123
9.15998e-125
4.75675e-126
2.91774e-127
1.77536e-128
8.32727e-130
9.30359e-132
3.11135e-82
1.25841e-82
3.87376e-83
9.30926e-84
1.78934e-84
2.8053e-85
3.6466e-86
3.99826e-87
3.74467e-88
3.03496e-89
2.15899e-90
1.35607e-91
7.63398e-93
3.86267e-94
1.78028e-95
7.48449e-97
2.90827e-98
1.0453e-99
3.51089e-101
1.10664e-102
3.2891e-104
9.31681e-106
2.52157e-107
6.5546e-109
1.65533e-110
4.06654e-112
9.78521e-114
2.31783e-115
5.45081e-117
1.28073e-118
3.04278e-120
7.50702e-122
2.03616e-123
6.69786e-125
2.92616e-126
1.66346e-127
1.08629e-128
6.94597e-130
3.40367e-131
3.88535e-133
2.95524e-84
1.30359e-84
4.31354e-85
1.10238e-85
2.23507e-86
3.67317e-87
4.97994e-88
5.67122e-89
5.49744e-90
4.59748e-91
3.36576e-92
2.17054e-93
1.25193e-94
6.47838e-96
3.04861e-97
1.30675e-98
5.1704e-100
1.8903e-101
6.45219e-103
2.06531e-104
6.23035e-106
1.79057e-107
4.91623e-109
1.29653e-110
3.32291e-112
8.28971e-114
2.0278e-115
4.89121e-117
1.17456e-118
2.8317e-120
6.96538e-122
1.80935e-123
5.31084e-125
1.94347e-126
9.44235e-128
5.80795e-129
4.01198e-130
2.68906e-131
1.37496e-132
1.60266e-134
2.69839e-86
1.29844e-86
4.62466e-87
1.25858e-87
2.69545e-88
4.65045e-89
6.58575e-90
7.80114e-91
7.83757e-92
6.77212e-93
5.10833e-94
3.38617e-95
2.0032e-96
1.0612e-97
5.10355e-99
2.23238e-100
9.00162e-102
3.35026e-103
1.16303e-104
3.78341e-106
1.15929e-107
3.38285e-109
9.42939e-111
2.52492e-112
6.5727e-114
1.66668e-115
4.14932e-117
1.02071e-118
2.50837e-120
6.22652e-122
1.59471e-123
4.39883e-125
1.40944e-126
5.73887e-128
3.06801e-129
2.02097e-130
1.46933e-131
1.03023e-132
5.49077e-134
6.53167e-136
2.10794e-88
1.07631e-88
4.07317e-89
1.22926e-89
2.88199e-90
5.31955e-91
7.98139e-92
9.94621e-93
1.04522e-93
9.40053e-95
7.35282e-96
5.03592e-97
3.0697e-98
1.67116e-99
8.24231e-101
3.69001e-102
1.52052e-103
5.77481e-105
2.04334e-106
6.76915e-108
2.11065e-109
6.26448e-111
1.77577e-112
4.83574e-114
1.2807e-115
3.3067e-117
8.3917e-119
2.10972e-120
5.32196e-122
1.36664e-123
3.67093e-125
1.08556e-126
3.82385e-128
1.72661e-129
1.0048e-130
7.03169e-132
5.36196e-133
3.92689e-134
2.17931e-135
2.64589e-137
6.55964e-89
2.41002e-89
6.75465e-90
1.48501e-90
2.62255e-91
3.85671e-92
4.73514e-93
4.90485e-94
4.34941e-95
3.3594e-96
2.27299e-97
1.37086e-98
7.38718e-100
3.61147e-101
1.60295e-102
6.5579e-104
2.47277e-105
8.69439e-107
2.86253e-108
8.87003e-110
2.61775e-111
7.37472e-113
1.9946e-114
5.24759e-116
1.34481e-117
3.39944e-119
8.81142e-121
2.27642e-122
5.93181e-124
1.58792e-125
4.51538e-127
1.4448e-128
5.61339e-130
2.79253e-131
1.75326e-132
1.29736e-133
1.03579e-134
7.91652e-136
4.57416e-137
5.69578e-139
)
;

boundaryField
{
    leftWall
    {
        type            zeroGradient;
    }
    rightWall
    {
        type            zeroGradient;
    }
    lowerWall
    {
        type            zeroGradient;
    }
    atmosphere
    {
        type            inletOutlet;
        inletValue      uniform 0;
        value           nonuniform List<scalar> 
45
(
7.59115e-90
7.92587e-90
1.76171e-89
5.37241e-89
1.19634e-88
6.55964e-89
2.41002e-89
6.75465e-90
1.48501e-90
2.62255e-91
3.85671e-92
4.73514e-93
4.90485e-94
4.34941e-95
3.3594e-96
2.27299e-97
1.37086e-98
7.38718e-100
3.61147e-101
1.60295e-102
6.5579e-104
2.47277e-105
8.69439e-107
2.86253e-108
8.87003e-110
2.61775e-111
7.37472e-113
1.9946e-114
5.24759e-116
1.34481e-117
3.39944e-119
8.81142e-121
2.27642e-122
5.93181e-124
1.58792e-125
4.51538e-127
1.4448e-128
5.61339e-130
2.79253e-131
1.75326e-132
1.29736e-133
1.03579e-134
7.91652e-136
4.57416e-137
5.69578e-139
)
;
    }
    defaultFaces
    {
        type            empty;
    }
    procBoundary3to1
    {
        type            processor;
        value           nonuniform List<scalar> 
45
(
8.44844e-21
1.00003e-20
7.20667e-21
3.68277e-21
1.41109e-21
3.92853e-22
8.53057e-23
1.53645e-23
2.3438e-24
3.08675e-25
3.55866e-26
3.63006e-27
3.30421e-28
2.70241e-29
1.99732e-30
1.34044e-31
8.20206e-33
4.59193e-34
2.35924e-35
1.11528e-36
4.862e-38
1.95842e-39
7.30104e-41
2.52275e-42
8.08898e-44
2.40916e-45
6.66976e-47
1.71729e-48
4.11304e-50
9.16263e-52
1.89758e-53
3.64985e-55
6.50963e-57
1.07404e-58
1.6338e-60
2.28066e-62
2.90272e-64
3.33866e-66
3.42772e-68
3.08694e-70
2.37734e-72
1.50592e-74
7.35741e-77
2.45261e-79
3.98891e-82
)
;
    }
    procBoundary3to2
    {
        type            processor;
        value           nonuniform List<scalar> 
43
(
1.38872e-21
1.49654e-22
1.48437e-23
1.35855e-24
1.15124e-25
9.02356e-27
6.54049e-28
4.39421e-29
2.72777e-30
1.5622e-31
8.24781e-33
4.00988e-34
1.79182e-35
7.4028e-37
2.84148e-38
1.00632e-39
3.29378e-41
9.88593e-43
2.71332e-44
6.81158e-46
1.56468e-47
3.41641e-49
6.90565e-51
1.28231e-52
2.19698e-54
3.47938e-56
4.65348e-58
5.68603e-60
6.35136e-62
6.45058e-64
5.74237e-66
4.60518e-68
3.33564e-70
2.31882e-72
1.57987e-74
1.00594e-76
6.416e-79
6.53089e-81
9.37568e-83
1.20763e-84
1.31112e-86
1.15054e-88
7.59115e-90
)
;
    }
}


// ************************************************************************* //
