/*--------------------------------*- C++ -*----------------------------------*\
| =========                 |                                                 |
| \\      /  F ield         | OpenFOAM: The Open Source CFD Toolbox           |
|  \\    /   O peration     | Version:  5.0                                   |
|   \\  /    A nd           | Web:      www.OpenFOAM.org                      |
|    \\/     M anipulation  |                                                 |
\*---------------------------------------------------------------------------*/
FoamFile
{
    version     2.0;
    format      ascii;
    class       surfaceScalarField;
    location    "0.2";
    object      alphaPhi10;
}
// * * * * * * * * * * * * * * * * * * * * * * * * * * * * * * * * * * * * * //

dimensions      [0 3 -1 0 0 0 0];

internalField   nonuniform List<scalar> 
3782
(
2.67533e-26
-2.50519e-26
2.63269e-27
-3.17348e-27
2.39711e-28
-3.60882e-28
2.05638e-29
-3.75123e-29
1.65853e-30
-3.61567e-30
1.25439e-31
-3.2212e-31
8.87797e-33
-2.66818e-32
5.8681e-34
-2.10187e-33
3.61631e-35
-1.52863e-34
2.07374e-36
-1.02789e-35
1.10442e-37
-6.39279e-37
5.45222e-39
-3.67602e-38
2.49026e-40
-1.95285e-39
1.05037e-41
-9.57418e-41
4.08403e-43
-4.32648e-42
1.46118e-44
-1.7996e-43
4.80212e-46
-6.88005e-45
1.44743e-47
-2.41401e-46
3.99515e-49
-7.76178e-48
1.00842e-50
-2.28345e-49
2.32472e-52
-6.13698e-51
4.88914e-54
-1.50428e-52
9.48717e-56
-3.35674e-54
1.68163e-57
-6.88737e-56
2.70794e-59
-1.28312e-57
3.96233e-61
-2.20285e-59
5.2681e-63
-3.50323e-61
6.35699e-65
-5.06645e-63
6.97933e-67
-6.65888e-65
6.98876e-69
-7.96623e-67
6.37678e-71
-8.68907e-69
5.31912e-73
-8.62245e-71
4.04198e-75
-7.40439e-73
2.82983e-77
-5.71672e-75
1.81599e-79
-4.04489e-77
1.06984e-81
-2.59651e-79
5.84565e-84
-1.50573e-81
2.86159e-86
-7.92383e-84
1.41265e-88
-3.65488e-86
7.0943e-91
-1.65209e-88
3.68697e-93
-7.35953e-91
2.02191e-93
-3.29064e-93
-7.75117e-95
-1.618e-26
3.08845e-26
-6.15187e-27
2.13447e-26
-1.28738e-27
1.02467e-26
3.63148e-27
-5.53671e-29
-2.16764e-27
2.84538e-27
-9.07422e-28
1.89909e-27
-2.45486e-28
8.86231e-28
3.05953e-28
-4.10965e-29
-2.52718e-28
2.46878e-28
-1.09256e-28
1.59885e-28
-3.19251e-29
7.27183e-29
2.44949e-29
-6.3801e-30
-2.65234e-29
2.02459e-29
-1.15563e-29
1.27454e-29
-3.47155e-30
5.65887e-30
1.86301e-30
-7.36181e-31
-2.54585e-30
1.56645e-30
-1.10546e-30
9.60419e-31
-3.34691e-31
4.17002e-31
1.34415e-31
-7.26185e-32
-2.25308e-31
1.1412e-31
-9.6974e-32
6.82913e-32
-2.93173e-32
2.90526e-32
9.18638e-33
-6.41084e-33
-1.84647e-32
7.80906e-33
-7.8585e-33
4.57421e-33
-2.36171e-33
1.91064e-33
5.93829e-34
-5.16862e-34
-1.40425e-33
5.00777e-34
-5.90651e-34
2.88104e-34
-1.76106e-34
1.18417e-34
3.62531e-35
-3.845e-35
-9.923e-35
3.0081e-35
-4.12615e-35
1.7033e-35
-1.21989e-35
6.90528e-36
2.08704e-36
-2.65407e-36
-6.51683e-36
1.68846e-36
-2.68162e-36
9.43558e-37
-7.86487e-37
3.78232e-37
1.13124e-37
-1.70517e-37
-3.9764e-37
8.83889e-38
-1.62174e-37
4.88882e-38
-4.72349e-38
1.94282e-38
5.76433e-39
-1.02135e-38
-2.25274e-38
4.30709e-39
-9.12402e-39
2.365e-39
-2.64317e-39
9.34312e-40
2.75713e-40
-5.70757e-40
-1.18385e-39
1.94999e-40
-4.77252e-40
1.06635e-40
-1.37778e-40
4.19996e-41
1.23605e-41
-2.97622e-41
-5.76464e-41
8.18743e-42
-2.31905e-41
4.47379e-42
-6.68646e-42
1.76205e-42
5.18639e-43
-1.44784e-42
-2.59782e-42
3.18248e-43
-1.04581e-42
1.74364e-43
-3.01902e-43
6.88913e-44
2.03397e-44
-6.56764e-44
-1.08207e-43
1.14329e-44
-4.37242e-44
6.30338e-45
-1.26715e-44
2.50653e-45
7.44589e-46
-2.77626e-45
-4.16046e-45
3.78991e-46
-1.69291e-45
2.11057e-46
-4.93952e-46
8.47565e-47
2.54131e-47
-1.09284e-46
-1.47471e-46
1.15756e-47
-6.06332e-47
6.5367e-48
-1.78664e-47
2.66037e-48
8.07775e-49
-4.00277e-48
-4.81276e-48
3.25323e-49
-2.00668e-48
1.87034e-49
-5.99083e-49
7.74297e-50
2.38888e-50
-1.36313e-49
-1.44434e-49
8.40263e-51
-6.13028e-50
4.93881e-51
-1.86057e-50
2.08767e-51
6.56792e-52
-4.31278e-51
-3.98126e-51
1.99243e-52
-1.72698e-51
1.20243e-52
-5.34819e-52
5.21028e-53
1.70498e-53
-1.26685e-52
-1.00685e-52
4.3334e-54
-4.48168e-53
2.69715e-54
-1.42279e-53
1.2029e-54
4.10444e-55
-3.45532e-54
-2.33379e-54
8.63844e-56
-1.07067e-54
5.57059e-56
-3.49743e-55
2.56784e-56
9.12959e-57
-8.741e-56
-4.95328e-56
1.57745e-57
-2.35298e-56
1.05895e-57
-7.93897e-57
5.06712e-58
1.87586e-58
-2.04924e-57
-9.61771e-58
2.63678e-59
-4.754e-58
1.85245e-59
-1.66332e-58
9.24238e-60
3.55877e-60
-4.45055e-59
-1.70685e-59
4.05249e-61
-8.82588e-60
2.98205e-61
-3.21531e-60
1.55852e-61
6.23174e-62
-8.9519e-61
-2.78097e-61
5.71954e-63
-1.50502e-61
4.41854e-63
-5.73339e-62
2.43072e-63
1.00709e-63
-1.66743e-62
-4.14859e-63
7.39509e-65
-2.35669e-63
6.03022e-65
-9.42986e-64
3.50887e-65
1.50246e-65
-2.87624e-64
-5.64382e-65
8.75356e-67
-3.38829e-65
7.58713e-67
-1.43067e-65
4.69311e-67
2.10036e-67
-4.59554e-66
-6.98533e-67
9.50923e-69
-4.47246e-67
8.8121e-69
-2.00369e-67
5.82408e-69
2.76758e-69
-6.80434e-68
-7.8555e-69
9.49802e-71
-5.42063e-69
9.46495e-71
-2.59225e-69
6.71841e-71
3.40695e-71
-9.34302e-70
-7.97548e-71
8.68131e-73
-6.03458e-71
9.41815e-73
-3.09846e-71
7.22071e-73
3.92493e-73
-1.19137e-71
-7.67426e-73
7.30692e-75
-6.17089e-73
8.69445e-75
-3.42497e-73
7.25121e-75
4.24457e-75
-1.41135e-73
-6.87256e-75
5.6875e-77
-5.79718e-75
7.48287e-77
-3.50511e-75
6.82776e-77
4.32384e-77
-1.55532e-75
-5.65558e-77
4.10575e-79
-5.00072e-77
6.03086e-79
-3.32586e-77
6.05384e-79
4.16594e-79
-1.59693e-77
-4.28066e-79
2.76851e-81
-3.94777e-79
4.57584e-81
-2.93128e-79
5.07964e-81
3.81457e-81
-1.53071e-79
-2.91631e-81
1.75787e-83
-2.89925e-81
3.29369e-83
-2.40525e-81
4.05513e-83
3.33797e-83
-1.37336e-81
-1.75159e-83
1.04512e-85
-2.10429e-83
2.26745e-85
-1.84283e-83
3.10092e-85
2.80915e-85
-1.15762e-83
-9.74617e-86
6.0606e-88
-1.43602e-85
1.50345e-87
-1.32441e-85
2.29302e-87
2.28973e-87
-9.21943e-86
-5.19688e-88
3.44457e-90
-9.31109e-88
9.71761e-90
-8.97769e-88
1.65405e-89
1.82111e-89
-7.00284e-88
-2.67715e-90
1.94128e-92
-5.72351e-90
6.26793e-92
-5.87751e-90
1.26835e-91
1.77074e-91
-5.15361e-90
-1.36668e-92
2.15043e-93
-3.34212e-92
6.73162e-93
-4.37915e-92
2.33509e-92
5.39223e-92
-4.67784e-92
-1.59969e-94
-3.10463e-94
-6.05266e-94
-5.31952e-94
6.42418e-29
1.03093e-27
2.42529e-29
2.06343e-28
5.40283e-30
3.4425e-29
9.09214e-31
4.90356e-30
1.24864e-31
6.06069e-31
1.45274e-32
6.58761e-32
1.46436e-33
6.3625e-33
1.29821e-34
5.5054e-34
1.02331e-35
4.29649e-35
7.2315e-37
3.04093e-36
4.61133e-38
1.96106e-37
2.66734e-39
1.15688e-38
1.40557e-40
6.26431e-40
6.77172e-42
3.1226e-41
2.99165e-43
1.43655e-42
1.21498e-44
6.11271e-44
4.54544e-46
2.41038e-45
1.56918e-47
8.8224e-47
5.00552e-49
3.00157e-48
1.47694e-50
9.50358e-50
4.03394e-52
2.80304e-51
1.02028e-53
7.7074e-53
2.38968e-55
1.97677e-54
5.18113e-57
4.73037e-56
1.03893e-58
1.05611e-57
1.92393e-60
2.19894e-59
3.28298e-62
4.26602e-61
5.14589e-64
7.6999e-63
7.37707e-66
1.29006e-64
9.61547e-68
1.99972e-66
1.1304e-69
2.8547e-68
1.18553e-71
3.72908e-70
1.09251e-73
4.41829e-72
8.65859e-76
4.68991e-74
5.71904e-78
4.38273e-76
2.99904e-80
3.51487e-78
1.15126e-82
2.32637e-80
2.76873e-85
1.19109e-82
2.80437e-88
4.1686e-85
7.0773e-88
-2.52987e-30
8.46237e-29
5.77337e-31
1.63568e-29
2.25831e-31
2.6421e-30
4.51782e-32
3.66618e-31
6.70507e-33
4.4393e-32
8.1249e-34
4.73493e-33
8.377e-35
4.4935e-34
7.52059e-36
3.82495e-35
5.96738e-37
2.93954e-36
4.22903e-38
2.0507e-37
2.6979e-39
1.30461e-38
1.55875e-40
7.59816e-40
8.19599e-42
4.06478e-41
3.93741e-43
2.00318e-42
1.73386e-44
9.11685e-44
7.01741e-46
3.84022e-45
2.61616e-47
1.49994e-46
9.00048e-49
5.44137e-48
2.86164e-50
1.836e-49
8.41786e-52
5.76888e-51
2.29284e-53
1.68965e-52
5.78536e-55
4.61678e-54
1.35243e-56
1.17751e-55
2.92814e-58
2.80425e-57
5.86694e-60
6.236e-59
1.08635e-61
1.29443e-60
1.85503e-63
2.50602e-62
2.91228e-65
4.51861e-64
4.18583e-67
7.57173e-66
5.47624e-69
1.17537e-67
6.46997e-71
1.68262e-69
6.82866e-73
2.20752e-71
6.34234e-75
2.63113e-73
5.07427e-77
2.81447e-75
3.38919e-79
2.65537e-77
1.80042e-81
2.15417e-79
7.0138e-84
1.44508e-81
1.71447e-86
7.51312e-84
1.76528e-89
2.67392e-86
4.60518e-89
-7.99691e-31
6.61774e-30
-5.71014e-32
1.24384e-30
2.12427e-33
1.94486e-31
1.48974e-33
2.60508e-32
2.86282e-34
3.07394e-33
3.86268e-35
3.21198e-34
4.20976e-36
2.99429e-35
3.89966e-37
2.50667e-36
3.15142e-38
1.89651e-37
2.25722e-39
1.30372e-38
1.44839e-40
8.17972e-40
8.39092e-42
4.70195e-41
4.41478e-43
2.48448e-42
2.11931e-44
1.21017e-43
9.31706e-46
5.4474e-45
3.76243e-47
2.2709e-46
1.39905e-48
8.78391e-48
4.80002e-50
3.15769e-49
1.52193e-51
1.05648e-50
4.46507e-53
3.29372e-52
1.21322e-54
9.57847e-54
3.05472e-56
2.60046e-55
7.12867e-58
6.59503e-57
1.54154e-59
1.56301e-58
3.08677e-61
3.46199e-60
5.71611e-63
7.1645e-62
9.76951e-65
1.38429e-63
1.53657e-66
2.49389e-65
2.21493e-68
4.18055e-67
2.9096e-70
6.50079e-69
3.4562e-72
9.33625e-71
3.67291e-74
1.23078e-72
3.44025e-76
1.47657e-74
2.7805e-78
1.59274e-76
1.87948e-80
1.51832e-78
1.01233e-82
1.24705e-80
4.00604e-85
8.48709e-83
9.96338e-88
4.48528e-85
1.04363e-90
1.62495e-87
2.83999e-90
-1.06494e-31
4.92482e-31
-1.14804e-32
9.02528e-32
-8.41073e-34
1.37356e-32
-1.86165e-35
1.78576e-33
6.44194e-36
2.03152e-34
1.3575e-36
2.06498e-35
1.73787e-37
1.88218e-36
1.74133e-38
1.54934e-37
1.47042e-39
1.15387e-38
1.08113e-40
7.81507e-40
7.0489e-42
4.835e-41
4.12332e-43
2.74274e-42
2.18165e-44
1.43123e-43
1.05036e-45
6.88955e-45
4.6227e-47
3.06686e-46
1.86649e-48
1.26517e-47
6.93387e-50
4.84577e-49
2.37546e-51
1.72604e-50
7.51865e-53
5.7257e-52
2.20178e-54
1.77107e-53
5.9719e-56
5.11364e-55
1.50127e-57
1.37939e-56
3.49905e-59
3.47859e-58
7.56041e-61
8.2047e-60
1.51354e-62
1.81025e-61
2.80409e-64
3.73548e-63
4.7987e-66
7.20458e-65
7.5645e-68
1.29718e-66
1.09406e-69
2.17603e-68
1.44379e-71
3.391e-70
1.72528e-73
4.8881e-72
1.84722e-75
6.47864e-74
1.74608e-77
7.82858e-76
1.4267e-79
8.52201e-78
9.76773e-82
8.21504e-80
5.33881e-84
6.83755e-82
2.14777e-86
4.72555e-84
5.43798e-89
2.54101e-86
5.7935e-92
9.37867e-89
1.66323e-91
-1.10532e-32
3.4846e-32
-1.32331e-33
6.2377e-33
-1.24917e-34
9.26377e-34
-8.91561e-36
1.17393e-34
-3.82637e-37
1.29878e-35
1.09985e-38
1.27659e-36
4.58864e-39
1.12499e-37
6.03188e-40
9.0524e-39
5.73097e-41
6.62026e-40
4.48996e-42
4.41761e-41
3.0397e-43
2.69502e-42
1.82024e-44
1.50866e-43
9.77535e-46
7.77457e-45
4.7511e-47
3.69845e-46
2.10331e-48
1.62809e-47
8.52184e-50
6.64616e-49
3.17151e-51
2.52063e-50
1.08727e-52
8.89617e-52
3.44124e-54
2.92602e-53
1.00728e-55
8.98008e-55
2.73029e-57
2.57443e-56
6.85931e-59
6.90046e-58
1.59802e-60
1.73056e-59
3.45255e-62
4.06277e-61
6.91465e-64
8.93083e-63
1.28244e-65
1.83801e-64
2.19881e-67
3.53964e-66
3.47602e-69
6.37153e-68
5.04735e-71
1.07005e-69
6.69573e-73
1.6719e-71
8.05452e-75
2.42035e-73
8.6949e-77
3.22735e-75
8.30069e-79
3.93092e-77
6.86234e-81
4.32194e-79
4.76254e-83
4.21688e-81
2.64367e-85
3.56014e-83
1.08195e-87
2.5011e-85
2.78995e-90
1.36971e-87
3.02212e-93
5.15465e-90
9.27335e-93
-9.94981e-34
2.34081e-33
-1.23791e-34
4.1022e-34
-1.26022e-35
5.95739e-35
-1.05695e-36
7.37395e-36
-7.15625e-38
7.96244e-37
-3.56138e-39
7.62155e-38
-7.63163e-41
6.52369e-39
9.15961e-42
5.06739e-40
1.54774e-42
3.60691e-41
1.47965e-43
2.35668e-42
1.10387e-44
1.41694e-43
6.98814e-46
7.82839e-45
3.88433e-47
3.98439e-46
1.93039e-48
1.87331e-47
8.67268e-50
8.15571e-49
3.54859e-51
3.29485e-50
1.32934e-52
1.23748e-51
4.57705e-54
4.32798e-53
1.45272e-55
1.41158e-54
4.25996e-57
4.2989e-56
1.15608e-58
1.22385e-57
2.90704e-60
3.26015e-59
6.77836e-62
8.13253e-61
1.466e-63
1.90082e-62
2.94023e-65
4.16413e-64
5.46402e-67
8.55011e-66
9.39414e-69
1.64473e-67
1.49055e-70
2.9612e-69
2.17471e-72
4.98129e-71
2.90244e-74
7.80818e-73
3.51765e-76
1.13595e-74
3.83191e-78
1.52502e-76
3.69785e-80
1.87383e-78
3.09587e-82
2.08273e-80
2.17991e-84
2.05878e-82
1.22995e-86
1.76488e-84
5.12454e-89
1.26166e-86
1.34645e-91
7.04406e-89
1.48259e-94
2.70516e-91
4.93545e-94
-8.06943e-35
1.49074e-34
-1.01832e-35
2.56344e-35
-1.06642e-36
3.64874e-36
-9.43544e-38
4.42142e-37
-7.09355e-39
4.6683e-38
-4.47134e-40
4.3654e-39
-2.28294e-41
3.64631e-40
-8.19744e-43
2.75834e-41
-4.43608e-45
1.90349e-42
2.55549e-45
1.20117e-43
2.87728e-46
7.07084e-45
2.14833e-47
3.83385e-46
1.30264e-48
1.92752e-47
6.81956e-50
8.95868e-49
3.16783e-51
3.85815e-50
1.32546e-52
1.54283e-51
5.04223e-54
5.73948e-53
1.75492e-55
1.98956e-54
5.61303e-57
6.43593e-56
1.65522e-58
1.9454e-57
4.51097e-60
5.50116e-59
1.13813e-61
1.45676e-60
2.66147e-63
3.6156e-62
5.77205e-65
8.41618e-64
1.16103e-66
1.83811e-65
2.1648e-68
3.76694e-67
3.73662e-70
7.24152e-69
5.95734e-72
1.30473e-70
8.74268e-74
2.19972e-72
1.17511e-75
3.46152e-74
1.43634e-77
5.06459e-76
1.58048e-79
6.85113e-78
1.54326e-81
8.49989e-80
1.30971e-83
9.55987e-82
9.36544e-86
9.58391e-84
5.37572e-88
8.35107e-86
2.28189e-90
6.08143e-88
6.112e-93
3.46515e-90
6.83915e-96
1.35915e-92
2.51369e-95
-6.00003e-36
8.98729e-36
-7.59807e-37
1.51996e-36
-8.03596e-38
2.12545e-37
-7.2538e-39
2.5273e-38
-5.65953e-40
2.61528e-39
-3.82124e-41
2.39404e-40
-2.23511e-42
1.95572e-41
-1.11189e-43
1.44601e-42
-4.45195e-45
9.73651e-44
-1.20054e-46
5.98888e-45
5.93198e-49
3.41543e-46
3.66931e-49
1.79329e-47
3.16177e-50
8.85557e-49
1.92682e-51
4.04806e-50
9.73348e-53
1.72493e-51
4.2891e-54
6.8298e-53
1.68839e-55
2.51732e-54
6.01672e-57
8.65142e-56
1.95714e-58
2.77656e-57
5.84344e-60
8.33264e-59
1.60759e-61
2.34122e-60
4.0863e-63
6.16525e-62
9.61495e-65
1.52303e-63
2.09669e-66
3.53216e-65
4.23942e-68
7.69419e-67
7.94648e-70
1.57459e-68
1.37943e-71
3.02667e-70
2.21324e-73
5.46057e-72
3.27169e-75
9.23325e-74
4.43458e-77
1.45971e-75
5.4734e-79
2.14965e-77
6.09082e-81
2.93277e-79
6.02463e-83
3.67742e-81
5.18835e-85
4.18953e-83
3.77147e-87
4.2642e-85
2.20423e-89
3.78107e-87
9.53884e-92
2.80801e-89
2.6053e-94
1.6346e-91
2.95968e-97
6.55381e-94
1.22779e-96
-4.12748e-37
5.12163e-37
-5.21872e-38
8.53955e-38
-5.52816e-39
1.17594e-38
-5.02129e-40
1.37532e-39
-3.9707e-41
1.39812e-40
-2.74937e-42
1.25578e-41
-1.68234e-43
1.00553e-42
-9.08603e-45
7.28003e-44
-4.28476e-46
4.79671e-45
-1.7428e-47
2.88596e-46
-5.71566e-49
1.60682e-47
-1.24495e-50
8.23014e-49
8.9341e-53
3.94146e-50
2.99146e-53
1.74978e-51
2.13277e-54
7.33719e-53
1.09642e-55
2.86107e-54
4.70836e-57
1.04515e-55
1.77248e-58
3.56252e-57
5.98319e-60
1.13477e-58
1.83397e-61
3.38247e-60
5.14434e-63
9.44676e-62
1.32727e-64
2.47486e-63
3.16054e-66
6.08799e-65
6.96155e-68
1.40738e-66
1.42017e-69
3.05937e-68
2.68431e-71
6.25565e-70
4.69839e-73
1.2031e-71
7.60329e-75
2.17498e-73
1.13435e-76
3.69119e-75
1.55321e-78
5.86746e-77
1.93886e-80
8.70481e-79
2.18511e-82
1.19888e-80
2.19228e-84
1.52088e-82
1.91806e-86
1.75699e-84
1.41876e-88
1.81764e-86
8.44949e-91
1.64195e-88
3.72937e-93
1.24496e-90
1.03835e-95
7.41161e-93
1.19406e-98
3.0399e-95
5.76038e-98
-2.64003e-38
2.75487e-38
-3.32562e-39
4.53966e-39
-3.51489e-40
6.17109e-40
-3.19242e-41
7.11592e-41
-2.53271e-42
7.1232e-42
-1.76858e-43
6.29229e-43
-1.10015e-44
4.94985e-44
-6.118e-46
3.51709e-45
-3.0362e-47
2.27221e-46
-1.35294e-48
1.33958e-47
-5.31036e-50
7.30526e-49
-1.81933e-51
3.66363e-50
-5.10544e-53
1.71526e-51
-9.94729e-55
7.43898e-53
1.43531e-57
3.03206e-54
1.40386e-57
1.14959e-55
8.94887e-59
4.14098e-57
4.00766e-60
1.39292e-58
1.49223e-61
4.39908e-60
4.86818e-63
1.30295e-61
1.42513e-64
3.61891e-63
3.79242e-66
9.43679e-65
9.24531e-68
2.31282e-66
2.07479e-69
5.33252e-68
4.29897e-71
1.15747e-69
8.237e-73
2.36629e-71
1.45991e-74
4.5565e-73
2.39126e-76
8.26033e-75
3.61121e-78
1.40818e-76
5.00753e-80
2.25267e-78
6.33544e-82
3.36996e-80
7.24437e-84
4.69011e-82
7.38349e-86
6.02593e-84
6.57124e-88
7.06693e-86
4.95076e-90
7.43936e-88
3.00613e-92
6.8543e-90
1.35298e-94
5.31196e-92
3.83195e-97
3.2374e-94
4.41538e-100
1.3591e-96
2.59761e-99
-1.57446e-39
1.39661e-39
-1.97484e-40
2.28033e-40
-2.07939e-41
3.06765e-41
-1.88322e-42
3.49609e-42
-1.49196e-43
3.45434e-43
-1.04291e-44
3.00803e-44
-6.51763e-46
2.33003e-45
-3.66133e-47
1.62849e-46
-1.85114e-48
1.03388e-47
-8.51437e-50
5.98552e-49
-3.52624e-51
3.20304e-50
-1.32621e-52
1.57569e-51
-4.44388e-54
7.23517e-53
-1.31852e-55
3.07683e-54
-3.28995e-57
1.22836e-55
-6.23309e-59
4.56242e-57
-4.16875e-61
1.60193e-58
3.45321e-62
5.25449e-60
2.27664e-63
1.63458e-61
9.33079e-65
4.78963e-63
3.0908e-66
1.31813e-64
8.88884e-68
3.42306e-66
2.28541e-69
8.36343e-68
5.33224e-71
1.92443e-69
1.13849e-72
4.1738e-71
2.2351e-74
8.53727e-73
4.04427e-76
1.64721e-74
6.74774e-78
2.99697e-76
1.03671e-79
5.13662e-78
1.46175e-81
8.27706e-80
1.8805e-83
1.24984e-81
2.18734e-85
1.7596e-83
2.26924e-87
2.29219e-85
2.05733e-89
2.73202e-87
1.58002e-91
2.92992e-89
9.78173e-94
2.75653e-91
4.48264e-96
2.18593e-93
1.28382e-98
1.36518e-95
1.44259e-101
5.86906e-98
1.12658e-100
-8.76805e-41
6.66356e-41
-1.0955e-41
1.08086e-41
-1.14895e-42
1.44264e-42
-1.0366e-43
1.62899e-43
-8.18493e-45
1.59254e-44
-5.70817e-46
1.3703e-45
-3.56489e-47
1.0476e-46
-2.00627e-48
7.2183e-48
-1.02016e-49
4.51336e-49
-4.74501e-51
2.57148e-50
-2.00395e-52
1.35318e-51
-7.78244e-54
6.54309e-53
-2.74791e-55
2.95173e-54
-8.89628e-57
1.23309e-55
-2.59512e-58
4.83626e-57
-6.8306e-60
1.76501e-58
-1.56311e-61
6.08435e-60
-2.96082e-63
1.9605e-61
-3.76257e-65
5.97299e-63
1.40615e-67
1.71353e-64
3.04171e-68
4.62802e-66
1.30038e-69
1.19242e-67
4.03461e-71
2.89451e-69
1.05259e-72
6.62604e-71
2.42115e-74
1.43695e-72
5.01535e-76
2.94298e-74
9.45591e-78
5.69433e-76
1.63095e-79
1.0407e-77
2.5772e-81
1.79497e-79
3.72524e-83
2.91638e-81
4.9029e-85
4.44964e-83
5.8271e-87
6.34384e-85
6.17236e-89
8.38826e-87
5.71059e-91
1.01726e-88
4.47247e-93
1.11269e-90
2.81933e-95
1.07018e-92
1.31003e-97
8.69347e-95
3.75052e-100
5.56927e-97
3.87635e-103
2.45361e-99
4.71003e-102
-4.56264e-42
2.98804e-42
-5.6845e-43
4.82804e-43
-5.9421e-44
6.41023e-44
-5.34144e-45
7.18985e-45
-4.20155e-46
6.97187e-46
-2.91972e-47
5.9419e-47
-1.81802e-48
4.49383e-48
-1.02122e-49
3.05955e-49
-5.19251e-51
1.88828e-50
-2.42113e-52
1.06107e-51
-1.02897e-53
5.50236e-53
-4.04241e-55
2.62052e-54
-1.45503e-56
1.16377e-55
-4.85525e-58
4.785e-57
-1.48483e-59
1.84673e-58
-4.2102e-61
6.63289e-60
-1.0896e-62
2.25093e-61
-2.58146e-64
7.14357e-63
-5.50612e-66
2.14332e-64
-1.03143e-67
6.05848e-66
-1.62413e-69
1.61313e-67
-1.79721e-71
4.08703e-69
6.00321e-76
9.77283e-71
7.53624e-75
2.20773e-72
2.78427e-76
4.77451e-74
7.20244e-78
9.76867e-76
1.55045e-79
1.89192e-77
2.9232e-81
3.46808e-79
4.9273e-83
6.0206e-81
7.48393e-85
9.87304e-83
1.0249e-86
1.52367e-84
1.2587e-88
2.20223e-86
1.37067e-90
2.95908e-88
1.29794e-92
3.65543e-90
1.0356e-94
4.08274e-92
6.60787e-97
4.01884e-94
3.06901e-99
3.34793e-96
8.45671e-102
2.20241e-98
6.69618e-105
9.95374e-101
1.91093e-103
-2.21893e-43
1.25756e-43
-2.76081e-44
2.02978e-44
-2.87979e-45
2.68805e-45
-2.58139e-46
3.00257e-46
-2.02367e-47
2.89512e-47
-1.40118e-48
2.44989e-48
-8.69282e-50
1.83727e-49
-4.86657e-51
1.23882e-50
-2.46813e-52
7.56369e-52
-1.14917e-53
4.20089e-53
-4.8861e-55
2.1513e-54
-1.92512e-56
1.01122e-55
-6.97421e-58
4.42979e-57
-2.35327e-59
1.79613e-58
-7.32526e-61
6.83419e-60
-2.13301e-62
2.42011e-61
-5.74229e-64
8.0977e-63
-1.44204e-65
2.53485e-64
-3.35803e-67
7.50591e-66
-7.22312e-69
2.09549e-67
-1.44241e-70
5.51513e-69
-2.63515e-72
1.38179e-70
-4.35952e-74
3.27184e-72
-6.4693e-76
7.3311e-74
-8.20949e-78
1.57025e-75
-8.01319e-80
3.18954e-77
-3.35506e-82
6.14927e-79
9.17447e-84
1.12527e-80
3.25885e-85
1.96185e-82
6.73885e-87
3.24451e-84
1.09549e-88
5.06239e-86
1.49635e-90
7.41713e-88
1.74061e-92
1.01303e-89
1.70822e-94
1.2755e-91
1.37201e-96
1.4559e-93
8.48015e-99
1.46831e-95
3.53787e-101
1.25608e-97
6.60118e-104
8.50037e-100
-2.8368e-107
3.95326e-102
7.65703e-105
-1.00835e-44
4.96105e-45
-1.25522e-45
8.02209e-46
-1.3086e-46
1.06257e-46
-1.17123e-47
1.18516e-47
-9.16011e-49
1.1392e-48
-6.32363e-50
9.59517e-50
-3.90984e-51
7.1523e-51
-2.18105e-52
4.7872e-52
-1.10239e-53
2.89799e-53
-5.1173e-55
1.59434e-54
-2.17118e-56
8.08008e-56
-8.54625e-58
3.75628e-57
-3.09872e-59
1.62639e-58
-1.04884e-60
6.5157e-60
-3.28535e-62
2.44881e-61
-9.66385e-64
8.56531e-63
-2.64184e-65
2.83073e-64
-6.78151e-67
8.75509e-66
-1.6284e-68
2.56234e-67
-3.65412e-70
7.07491e-69
-7.73314e-72
1.84316e-70
-1.53092e-73
4.57602e-72
-2.83583e-75
1.07506e-73
-4.95951e-77
2.39358e-75
-8.12214e-79
5.10007e-77
-1.24594e-80
1.03257e-78
-1.79037e-82
1.98859e-80
-2.41838e-84
3.64384e-82
-3.06717e-86
6.37047e-84
-3.65206e-88
1.059e-85
-4.09397e-90
1.66629e-87
-4.33728e-92
2.47021e-89
-4.34722e-94
3.42536e-91
-4.09439e-96
4.39346e-93
-3.5378e-98
5.12534e-95
-2.66511e-100
5.2995e-97
-1.59912e-102
4.66154e-99
-6.47087e-105
3.25297e-101
-5.32061e-108
1.56481e-103
3.08201e-106
-4.28011e-46
1.8323e-46
-5.34183e-47
2.97713e-47
-5.57638e-48
3.95535e-48
-4.99161e-49
4.4171e-49
-3.90018e-50
4.24364e-50
-2.68757e-51
3.56657e-51
-1.65749e-52
2.64885e-52
-9.21788e-54
1.76402e-53
-4.64397e-55
1.06118e-54
-2.14854e-56
5.79565e-56
-9.08842e-58
2.91296e-57
-3.56835e-59
1.34205e-58
-1.29174e-60
5.75482e-60
-4.37021e-62
2.2824e-61
-1.37057e-63
8.48879e-63
-4.04435e-65
2.93805e-64
-1.11206e-66
9.60739e-66
-2.88012e-68
2.94082e-67
-7.00443e-70
8.52066e-69
-1.59928e-71
2.33039e-70
-3.46241e-73
6.01831e-72
-7.05835e-75
1.48245e-73
-1.35671e-76
3.45965e-75
-2.48391e-78
7.66242e-77
-4.30218e-80
1.62679e-78
-7.06002e-82
3.28783e-80
-1.09874e-83
6.33398e-82
-1.62748e-85
1.16362e-83
-2.28918e-87
2.04419e-85
-3.04702e-89
3.4233e-87
-3.82295e-91
5.44151e-89
-4.48898e-93
8.173e-91
-4.87282e-95
1.15165e-92
-4.79393e-97
1.50551e-94
-4.14136e-99
1.7953e-96
-2.98471e-101
1.90291e-98
-1.64427e-103
1.72059e-100
-5.82514e-106
1.23785e-102
-3.7205e-109
6.16421e-105
1.23956e-107
-1.69607e-47
6.32869e-48
-2.12723e-48
1.03641e-48
-2.22825e-49
1.38516e-49
-1.99861e-50
1.55306e-50
-1.56275e-51
1.49526e-51
-1.0765e-52
1.25715e-52
-6.63055e-54
9.3254e-54
-3.67997e-55
6.19365e-55
-1.84931e-56
3.71101e-56
-8.53104e-58
2.01643e-57
-3.59806e-59
1.00725e-58
-1.40862e-60
4.60851e-60
-5.08662e-62
1.96105e-61
-1.7176e-63
7.71451e-63
-5.3814e-65
2.8447e-64
-1.58809e-66
9.76018e-66
-4.3737e-68
3.16339e-67
-1.13647e-69
9.59934e-69
-2.77883e-71
2.75787e-70
-6.39466e-73
7.48287e-72
-1.39906e-74
1.91845e-73
-2.89121e-76
4.69506e-75
-5.65256e-78
1.08986e-76
-1.0563e-79
2.40412e-78
-1.87422e-81
5.09105e-80
-3.16213e-83
1.02812e-81
-5.07613e-85
1.98305e-83
-7.77653e-87
3.65541e-85
-1.13342e-88
6.45874e-87
-1.56443e-90
1.09062e-88
-2.03423e-92
1.75269e-90
-2.4706e-94
2.66886e-92
-2.76463e-96
3.8235e-94
-2.79127e-98
5.09631e-96
-2.4613e-100
6.21397e-98
-1.79929e-102
6.75326e-100
-9.97497e-105
6.27853e-102
-3.50979e-107
4.66072e-104
-2.09667e-110
2.41035e-106
4.99662e-109
-6.27087e-49
2.04213e-49
-7.92342e-50
3.38137e-50
-8.34719e-51
4.55963e-51
-7.51778e-52
5.14734e-52
-5.89383e-53
4.97972e-53
-4.06554e-54
4.1991e-54
-2.50473e-55
3.11874e-55
-1.38916e-56
2.07072e-56
-6.97132e-58
1.23857e-57
-3.20951e-59
6.71043e-59
-1.35054e-60
3.33855e-60
-5.27403e-62
1.52006e-61
-1.89989e-63
6.43164e-63
-6.40102e-65
2.51443e-64
-2.00203e-66
9.20979e-66
-5.90131e-68
3.13804e-67
-1.6249e-69
1.00984e-68
-4.2256e-71
3.04292e-70
-1.03543e-72
8.68241e-72
-2.39152e-74
2.34065e-73
-5.2603e-76
5.96605e-75
-1.09503e-77
1.45265e-76
-2.16106e-79
3.35839e-78
-4.08511e-81
7.38745e-80
-7.34858e-83
1.56217e-81
-1.25979e-84
3.15553e-83
-2.05918e-86
6.09963e-85
-3.21811e-88
1.12915e-86
-4.79238e-90
2.0081e-88
-6.76717e-92
3.42126e-90
-9.00997e-94
5.56177e-92
-1.12101e-95
8.59009e-94
-1.2852e-97
1.25169e-95
-1.32906e-99
1.70164e-97
-1.19962e-101
2.12207e-99
-8.96786e-104
2.36532e-101
-5.07743e-106
2.26221e-103
-1.82176e-108
1.73522e-105
-1.07552e-111
9.36796e-108
2.03158e-110
-2.1619e-50
6.15062e-51
-2.75922e-51
1.03306e-51
-2.93056e-52
1.4098e-52
-2.65619e-53
1.60703e-53
-2.09224e-54
1.5665e-54
-1.44795e-55
1.32829e-55
-8.93838e-57
9.90248e-57
-4.9617e-58
6.58856e-58
-2.48997e-59
3.94314e-59
-1.14546e-60
2.13488e-60
-4.81394e-62
1.06014e-61
-1.87673e-63
4.81329e-63
-6.7483e-65
2.02909e-64
-2.26932e-66
7.89861e-66
-7.08594e-68
2.87906e-67
-2.0858e-69
9.75936e-69
-5.73861e-71
3.12365e-70
-1.49215e-72
9.3619e-72
-3.65916e-74
2.65717e-73
-8.46738e-76
7.12807e-75
-1.86815e-77
1.80889e-76
-3.90646e-79
4.38793e-78
-7.75648e-81
1.01165e-79
-1.47755e-82
2.22174e-81
-2.6832e-84
4.69671e-83
-4.65223e-86
9.49944e-85
-7.70485e-88
1.84195e-86
-1.22222e-89
3.42722e-88
-1.85066e-91
6.13947e-90
-2.66147e-93
1.05609e-91
-3.61443e-95
1.7377e-93
-4.59344e-97
2.72355e-95
-5.38576e-99
4.0381e-97
-5.70221e-101
5.60097e-99
-5.27442e-103
7.14588e-101
-4.04445e-105
8.17165e-103
-2.35316e-107
8.04498e-105
-8.72839e-110
6.3893e-107
-5.26509e-113
3.62768e-109
8.39496e-112
-6.94548e-52
1.72779e-52
-8.97903e-53
2.95352e-53
-9.63928e-54
4.09182e-54
-8.81341e-55
4.7236e-55
-6.99035e-56
4.65231e-56
-4.86351e-57
3.97734e-57
-3.01395e-58
2.98377e-58
-1.67742e-59
1.99418e-59
-8.43137e-61
1.19695e-60
-3.88126e-62
6.4904e-62
-1.63116e-63
3.22383e-63
-6.35552e-65
1.4626e-64
-2.2833e-66
6.15527e-66
-7.66966e-68
2.39034e-67
-2.39224e-69
8.68661e-69
-7.0345e-71
2.93462e-70
-1.93411e-72
9.35798e-72
-5.02786e-74
2.79419e-73
-1.23349e-75
7.90129e-75
-2.85789e-77
2.11229e-76
-6.31897e-79
5.34442e-78
-1.32578e-80
1.29332e-79
-2.64468e-82
2.97729e-81
-5.06837e-84
6.53584e-83
-9.27427e-86
1.38276e-84
-1.62301e-87
2.80319e-86
-2.71776e-89
5.45739e-88
-4.36673e-91
1.02148e-89
-6.70936e-93
1.84458e-91
-9.80899e-95
3.20567e-93
-1.3567e-96
5.34179e-95
-1.75918e-98
8.50024e-97
-2.10816e-100
1.28288e-98
-2.28513e-102
1.81605e-100
-2.16763e-104
2.37109e-102
-1.7081e-106
2.78282e-104
-1.02574e-108
2.82259e-106
-3.98001e-111
2.32783e-108
-2.526e-114
1.40453e-110
3.55364e-113
-2.07821e-53
4.57428e-54
-2.72926e-54
8.00328e-55
-2.96945e-55
1.11438e-55
-2.74566e-56
1.30661e-56
-2.19791e-57
1.30394e-57
-1.54065e-58
1.12695e-58
-9.60377e-60
8.52912e-60
-5.369e-61
5.73996e-61
-2.70764e-62
3.46329e-62
-1.24924e-63
1.88504e-63
-5.25784e-65
9.38561e-65
-2.05016e-66
4.26366e-66
-7.36766e-68
1.79485e-67
-2.4746e-69
6.96674e-69
-7.71686e-71
2.52876e-70
-2.2685e-72
8.52913e-72
-6.23651e-74
2.7143e-73
-1.62147e-75
8.08736e-75
-3.98047e-77
2.28194e-76
-9.23429e-79
6.08841e-78
-2.04589e-80
1.53802e-79
-4.30551e-82
3.71794e-81
-8.62464e-84
8.55665e-83
-1.66182e-85
1.87976e-84
-3.06178e-87
3.9844e-86
-5.40363e-89
8.10405e-88
-9.14073e-91
1.58556e-89
-1.48627e-92
2.98787e-91
-2.31528e-94
5.44285e-93
-3.43847e-96
9.56265e-95
-4.84065e-98
1.61465e-96
-6.40141e-100
2.60981e-98
-7.83926e-102
4.01089e-100
-8.70074e-104
5.7967e-102
-8.46901e-106
7.74748e-104
-6.8688e-108
9.33638e-106
-4.27566e-110
9.76789e-108
-1.75839e-112
8.39998e-110
-1.20909e-115
5.4619e-112
1.55077e-114
-5.79385e-55
1.13525e-55
-7.74742e-56
2.039e-56
-8.5648e-57
2.89781e-57
-8.02929e-58
3.40053e-58
-6.50266e-59
3.44824e-59
-4.6026e-60
3.02092e-60
-2.89205e-61
2.31249e-61
-1.62725e-62
1.57091e-62
-8.24871e-64
9.55024e-64
-3.82088e-65
5.22934e-65
-1.61305e-66
2.61554e-66
-6.30365e-68
1.19217e-67
-2.26905e-69
5.02995e-69
-7.6297e-71
1.95513e-70
-2.38134e-72
7.10117e-72
-7.00496e-74
2.39541e-73
-1.92718e-75
7.62044e-75
-5.01483e-77
2.26933e-76
-1.23254e-78
6.39904e-78
-2.86425e-80
1.70642e-79
-6.3606e-82
4.30978e-81
-1.34286e-83
1.04206e-82
-2.70135e-85
2.40054e-84
-5.23299e-87
5.28352e-86
-9.70628e-89
1.1232e-87
-1.72719e-90
2.29432e-89
-2.95069e-92
4.51508e-91
-4.85386e-94
8.57288e-93
-7.66389e-96
1.5765e-94
-1.15591e-97
2.80187e-96
-1.65599e-99
4.79637e-98
-2.23322e-101
7.87811e-100
-2.79481e-103
1.23337e-101
-3.1769e-105
1.82041e-103
-3.17503e-107
2.49145e-105
-2.6548e-109
3.08459e-107
-1.72175e-111
3.33419e-109
-7.62462e-114
3.00715e-111
-5.84229e-117
2.14504e-113
6.99422e-116
-1.50324e-56
2.61544e-57
-2.05449e-57
4.84019e-58
-2.31274e-58
7.05882e-59
-2.20377e-59
8.42317e-60
-1.81012e-60
8.60318e-61
-1.29671e-61
7.66087e-62
-8.23099e-63
5.94675e-63
-4.6707e-64
4.08773e-64
-2.3844e-65
2.50981e-65
-1.11085e-66
1.38562e-66
-4.71183e-68
6.9768e-68
-1.8483e-69
3.19724e-69
-6.67361e-71
1.35466e-70
-2.24954e-72
5.28284e-72
-7.03588e-74
1.92344e-73
-2.07334e-75
6.5002e-75
-5.71393e-77
2.07058e-76
-1.48944e-78
6.17247e-78
-3.66794e-80
1.74199e-79
-8.54408e-82
4.64955e-81
-1.90284e-83
1.17564e-82
-4.03201e-85
2.84683e-84
-8.14825e-87
6.57225e-86
-1.58736e-88
1.45086e-87
-2.96466e-90
3.09659e-89
-5.31975e-92
6.35838e-91
-9.17897e-94
1.25969e-92
-1.52764e-95
2.41182e-94
-2.44482e-97
4.48038e-96
-3.74489e-99
8.05987e-98
-5.45986e-101
1.39953e-99
-7.50911e-103
2.33699e-101
-9.60481e-105
3.72843e-103
-1.1185e-106
5.62179e-105
-1.14855e-108
7.88175e-107
-9.92046e-111
1.00326e-108
-6.74734e-113
1.12294e-110
-3.27894e-115
1.07064e-112
-2.86565e-118
8.55505e-115
3.25205e-117
-3.62736e-58
5.58872e-59
-5.08344e-59
1.06988e-59
-5.84821e-60
1.60636e-60
-5.67665e-61
1.96613e-61
-4.74073e-62
2.0254e-62
-3.44539e-63
1.83813e-63
-2.21422e-64
1.45065e-64
-1.26982e-65
1.01149e-65
-6.54115e-67
6.28678e-67
-3.07066e-68
3.50721e-68
-1.3109e-69
1.78154e-69
-5.17008e-71
8.22499e-71
-1.87536e-72
3.5064e-72
-6.34603e-74
1.37445e-73
-1.99162e-75
5.02537e-75
-5.8865e-77
1.70432e-76
-1.62687e-78
5.44483e-78
-4.25241e-80
1.62732e-79
-1.05024e-81
4.60329e-81
-2.45425e-83
1.23149e-82
-5.48557e-85
3.12148e-84
-1.16735e-86
7.57948e-86
-2.37124e-88
1.75563e-87
-4.64761e-90
3.89146e-89
-8.74374e-92
8.347e-91
-1.58265e-93
1.72449e-92
-2.75883e-95
3.44228e-94
-4.64635e-97
6.65075e-96
-7.53848e-99
1.24891e-97
-1.17291e-100
2.27539e-99
-1.74052e-102
4.00969e-101
-2.44168e-104
6.8098e-103
-3.1927e-106
1.10752e-104
-3.81029e-108
1.70654e-106
-4.02351e-110
2.45196e-108
-3.5991e-112
3.21192e-110
-2.5892e-114
3.73434e-112
-1.41054e-116
3.80334e-114
-1.42624e-119
3.48069e-116
1.54812e-118
-8.13841e-60
1.1075e-60
-1.17338e-60
2.20208e-61
-1.384e-61
3.41623e-62
-1.37238e-62
4.30271e-63
-1.16822e-63
4.53099e-64
-8.6343e-65
4.17414e-65
-5.6308e-66
3.35785e-66
-3.27045e-67
2.38077e-67
-1.70337e-68
1.50142e-68
-8.0725e-70
8.48257e-70
-3.47471e-71
4.35604e-71
-1.38013e-72
2.03013e-72
-5.03716e-74
8.72475e-74
-1.71368e-75
3.44384e-75
-5.40395e-77
1.26668e-76
-1.60404e-78
4.31825e-78
-4.451e-80
1.3858e-79
-1.16791e-81
4.15878e-81
-2.89569e-83
1.18085e-82
-6.79467e-85
3.17064e-84
-1.52545e-86
8.06684e-86
-3.26262e-88
1.96653e-87
-6.66583e-90
4.57536e-89
-1.31525e-91
1.01937e-90
-2.49384e-93
2.19953e-92