/*--------------------------------*- C++ -*----------------------------------*\
| =========                 |                                                 |
| \\      /  F ield         | OpenFOAM: The Open Source CFD Toolbox           |
|  \\    /   O peration     | Version:  5.0                                   |
|   \\  /    A nd           | Web:      www.OpenFOAM.org                      |
|    \\/     M anipulation  |                                                 |
\*---------------------------------------------------------------------------*/
FoamFile
{
    version     2.0;
    format      ascii;
    class       volScalarField;
    location    "0.2";
    object      epsilon;
}
// * * * * * * * * * * * * * * * * * * * * * * * * * * * * * * * * * * * * * //

dimensions      [0 2 -3 0 0 0 0];

internalField   nonuniform List<scalar> 
1935
(
0.120308
0.116931
0.113912
0.111183
0.108689
0.106388
0.104241
0.102219
0.100297
0.0984536
0.0966747
0.0949493
0.0932715
0.0916397
0.0900561
0.0885261
0.087057
0.0856574
0.0843357
0.0830993
0.0819538
0.0809026
0.0799468
0.0790849
0.0783137
0.0776283
0.0770228
0.0764909
0.0760263
0.075623
0.0752758
0.0749803
0.0747335
0.0745337
0.0743808
0.0742764
0.0742234
0.074225
0.0742823
0.0743893
0.0745258
0.074651
0.0747132
0.115982
0.112069
0.108419
0.105029
0.112691
0.108892
0.105384
0.102158
0.109776
0.106097
0.102728
0.0996557
0.107163
0.103609
0.100378
0.0974516
0.104795
0.101371
0.0982759
0.0954894
0.102627
0.0993349
0.0963756
0.0937246
0.10062
0.0974644
0.0946404
0.0921214
0.098745
0.095729
0.0930407
0.0906515
0.0969767
0.0941043
0.0915527
0.0892918
0.0952954
0.0925709
0.0901575
0.0880245
0.093686
0.091114
0.0888407
0.0868354
0.0921377
0.0897225
0.0875915
0.0857138
0.0906438
0.0883894
0.0864021
0.0846522
0.0892013
0.0871104
0.0852678
0.0836452
0.0878104
0.0858844
0.0841863
0.0826898
0.0864738
0.0847121
0.0831569
0.0817843
0.0851962
0.083596
0.0821805
0.0809284
0.0839829
0.0825392
0.0812587
0.0801224
0.0828396
0.0815453
0.0803933
0.0793671
0.0817711
0.0806173
0.0795858
0.0786631
0.080781
0.0797573
0.0788376
0.0780106
0.0798714
0.0789664
0.0781488
0.0774095
0.0790427
0.0782444
0.0775189
0.076859
0.0782934
0.07759
0.0769466
0.0763577
0.0776206
0.0770005
0.0764296
0.0759036
0.0770203
0.0764726
0.0759651
0.0754944
0.0764877
0.0760025
0.0755498
0.0751273
0.0760178
0.0755859
0.0751803
0.0747994
0.0756053
0.0752185
0.074853
0.0745078
0.0752453
0.0748962
0.0745644
0.0742495
0.0749333
0.0746151
0.0743112
0.0740215
0.0746655
0.0743717
0.0740902
0.073821
0.0744386
0.0741629
0.0738984
0.0736451
0.0742505
0.0739861
0.0737328
0.0734906
0.0740997
0.0738388
0.0735903
0.0733542
0.0739855
0.0737187
0.0734677
0.0732319
0.0739074
0.0736233
0.073361
0.0731191
0.0738648
0.0735493
0.0732658
0.0730107
0.0738546
0.0734921
0.0731765
0.0729014
0.0738695
0.0734446
0.0730878
0.0727871
0.0738952
0.0733986
0.072996
0.0726681
0.0739109
0.0733474
0.0729044
0.0725537
0.0739025
0.0732987
0.0728328
0.0724701
0.101717
0.0985433
0.0956564
0.0930289
0.0906394
0.0884697
0.086503
0.0847236
0.0831174
0.0816713
0.0803739
0.0792146
0.0781842
0.0772744
0.0764783
0.0757903
0.0752068
0.0747264
0.0743503
0.074083
0.0739325
0.0739112
0.0740359
0.0743285
0.0748166
0.0755336
0.0765198
0.077823
0.0794998
0.0816179
0.0842591
0.0875252
0.0915498
0.0965212
0.102739
0.110758
0.121827
0.139533
0.179033
0.379016
0.0990374
0.0960637
0.093384
0.0909665
0.0887843
0.0868146
0.0850369
0.0834334
0.0819883
0.0806881
0.0795213
0.0784778
0.0775493
0.0767283
0.0760092
0.0753878
0.0748615
0.0744302
0.0740963
0.0738653
0.0737464
0.0737525
0.0739015
0.0742159
0.0747237
0.0754588
0.0764619
0.077781
0.0794731
0.0816057
0.0842607
0.0875397
0.0915758
0.0965565
0.102779
0.110797
0.121849
0.139507
0.178863
0.378116
0.0967091
0.0939241
0.0914276
0.0891889
0.087182
0.0853804
0.0837613
0.0823052
0.0809956
0.0798186
0.0787626
0.0778179
0.0769768
0.0762327
0.0755808
0.0750178
0.0745424
0.0741551
0.0738595
0.0736619
0.0735721
0.0736042
0.0737763
0.0741115
0.0746384
0.0753914
0.0764112
0.0777463
0.0794535
0.0816006
0.0842694
0.0875613
0.0916087
0.0965982
0.102826
0.11084
0.121874
0.139481
0.178682
0.377145
0.0946649
0.0920491
0.0897198
0.0876419
0.0857852
0.084127
0.0826427
0.0813119
0.0801174
0.0790453
0.078084
0.0772243
0.0764588
0.0757817
0.0751888
0.0746776
0.0742475
0.0738999
0.0736391
0.0734722
0.0734097
0.0734661
0.0736601
0.0740155
0.0745611
0.0753315
0.0763679
0.0777187
0.0794411
0.0816028
0.0842854
0.08759
0.0916484
0.0966464
0.102878
0.110888
0.121902
0.139454
0.178491
0.376107
0.0928519
0.0903902
0.0882104
0.086276
0.0845559
0.0830226
0.0816543
0.0804311
0.0793356
0.0783537
0.0774743
0.0766883
0.0759887
0.0753703
0.0748295
0.0743644
0.073975
0.0736634
0.0734345
0.0732959
0.0732588
0.0733382
0.0735532
0.073928
0.0744917
0.0752793
0.076332
0.0776986
0.0794361
0.0816122
0.0843084
0.0876255
0.0916948
0.0967008
0.102936
0.11094
0.121933
0.139426
0.17829
0.375009
0.091228
0.0889088
0.0868647
0.0850588
0.0834594
0.0820392
0.0807743
0.0796448
0.0786354
0.0777321
0.076924
0.0762025
0.0755609
0.0749945
0.0745
0.0740762
0.0737235
0.0734446
0.0732449
0.0731326
0.0731193
0.0732204
0.0734555
0.073849
0.0744304
0.0752347
0.0763036
0.0776857
0.0794381
0.0816286
0.0843383
0.0876678
0.0917476
0.0967611
0.102999
0.110997
0.121967
0.139398
0.178082
0.373861
0.0897595
0.0875738
0.0856547
0.0839656
0.0824747
0.0811547
0.0799823
0.0789377
0.0780047
0.0771705
0.0764254
0.0757609
0.0751707
0.0746505
0.0741976
0.0738109
0.0734915
0.0732425
0.0730698
0.0729819
0.0729909
0.0731126
0.0733669
0.0737784
0.0743769
0.0751978
0.0762825
0.0776799
0.0794472
0.0816518
0.0843748
0.0877164
0.0918063
0.0968269
0.103066
0.111058
0.122003
0.13937
0.177867
0.372672
0.0884193
0.0863602
0.0845579
0.0829763
0.0815841
0.0803547
0.0792651
0.0782961
0.0774322
0.0766608
0.0759719
0.0753582
0.074814
0.0743353
0.0739198
0.0735668
0.0732778
0.0730563
0.0729085
0.0728434
0.0728734
0.0730146
0.0732872
0.0737162
0.0743314
0.0751683
0.0762686
0.0776811
0.0794629
0.0816815
0.0844176
0.0877709
0.0918706
0.0968978
0.103138
0.111122
0.122041
0.139341
0.177647
0.371446
0.0871859
0.0852481
0.0835561
0.0820747
0.0807736
0.0796269
0.0786124
0.0777117
0.0769099
0.076195
0.0755574
0.07499
0.0744874
0.0740462
0.0736646
0.0733423
0.0730811
0.072885
0.0727603
0.0727165
0.0727663
0.0729261
0.0732163
0.073662
0.0742934
0.075146
0.0762616
0.0776889
0.079485
0.0817173
0.0844662
0.087831
0.09194
0.0969733
0.103215
0.111189
0.122081
0.139313
0.177422
0.370184
0.0860422
0.0842217
0.0826348
0.0812479
0.0800317
0.0789614
0.0780158
0.0771774
0.0764321
0.0757683
0.0751771
0.0746518
0.0741875
0.0737808
0.0734302
0.0731361
0.0729005
0.0727278
0.0726247
0.072601
0.0726694
0.0728468
0.0731539
0.0736158
0.0742629
0.0751307
0.0762612
0.077703
0.0795132
0.0817588
0.0845202
0.087896
0.0920141
0.097053
0.103294
0.11126
0.122124
0.139288
0.177196
0.368879
0.0849749
0.0832684
0.0817827
0.0804854
0.0793491
0.07835
0.0774682
0.0766873
0.0759936
0.0753767
0.0748279
0.074341
0.0739115
0.0735365
0.0732147
0.0729467
0.0727349
0.072584
0.0725011
0.0724961
0.0725823
0.0727765
0.0730997
0.0735772
0.0742395
0.0751222
0.0762671
0.0777231
0.0795469
0.0818056
0.0845791
0.0879657
0.0920923
0.0971366
0.103378
0.111334
0.122173
0.139272
0.17699
0.367586
0.0839738
0.0823787
0.0809905
0.0797791
0.0787184
0.0777863
0.076964
0.0762363
0.0755905
0.0750166
0.0745068
0.0740552
0.0736577
0.0733118
0.0730165
0.0727727
0.0725831
0.0724526
0.0723886
0.0724014
0.0725043
0.0727146
0.0730532
0.0735458
0.0742227
0.0751198
0.0762789
0.0777486
0.0795858
0.0818572
0.0846424
0.0880393
0.0921742
0.0972236
0.103465
0.111413
0.122228
0.13927
0.17682
0.366373
0.0830312
0.0815451
0.0802516
0.0791225
0.0781338
0.0772649
0.0764985
0.0758205
0.0752191
0.0746851
0.0742113
0.0737922
0.0734243
0.0731052
0.0728345
0.0726131
0.0724442
0.0723328
0.0722867
0.0723162
0.0724351
0.0726606
0.0730141
0.0735211
0.0742122
0.0751232
0.076296
0.0777791
0.0796292
0.0819128
0.0847093
0.0881162
0.092259
0.0973131
0.103555
0.111495
0.122289
0.139279
0.176678
0.36525
0.0821417
0.0807622
0.0795604
0.0785106
0.0775906
0.0767816
0.0760679
0.0754364
0.0748765
0.0743796
0.0739391
0.0735503
0.0732097
0.0729155
0.0726675
0.072467
0.0723173
0.0722238
0.0721944
0.0722398
0.0723738
0.0726139
0.0729816
0.0735025
0.0742072
0.0751317
0.0763177
0.0778137
0.0796762
0.0819717
0.0847791
0.0881954
0.0923457
0.0974042
0.103646
0.111578
0.122352
0.139295
0.176555
0.3642
0.0813016
0.0800261
0.0789131
0.0779395
0.0770851
0.0763331
0.0756691
0.0750814
0.0745602
0.0740979
0.0736886
0.0733277
0.0730125
0.0727414
0.0725145
0.0723333
0.0722016
0.0721248
0.0721111
0.0721715
0.0723198
0.0725739
0.0729551
0.0734893
0.0742072
0.0751446
0.0763432
0.0778516
0.0797261
0.0820328
0.0848505
0.0882758
0.092433
0.0974955
0.103736
0.111662
0.122416
0.139313
0.176439
0.363182
0.0805087
0.0793341
0.0783069
0.0774063
0.0766146
0.0759166
0.0752996
0.074753
0.0742681
0.0738382
0.0734578
0.0731231
0.0728314
0.0725817
0.0723744
0.0722113
0.0720962
0.072035
0.0720361
0.0721105
0.0722724
0.0725396
0.0729337
0.0734806
0.0742111
0.0751608
0.0763717
0.0778919
0.0797778
0.0820953
0.0849227
0.0883563
0.0925198
0.0975856
0.103826
0.111743
0.122477
0.139327
0.176316
0.362162
0.0797619
0.0786844
0.0777394
0.0769087
0.0761766
0.0755298
0.0749571
0.0744493
0.0739985
0.0735989
0.0732455
0.072935
0.0726652
0.0724355
0.0722463
0.0721
0.0720004
0.0719538
0.0719687
0.0720562
0.0722308
0.0725104
0.0729167
0.0734757
0.074218
0.0751795
0.0764019
0.0779334
0.0798301
0.0821576
0.0849942
0.0884354
0.0926045
0.0976731
0.103912
0.111821
0.122534
0.139336
0.176185
0.361141
0.0790605
0.0780759
0.0772093
0.0764449
0.0757693
0.0751709
0.07464
0.0741686
0.0737498
0.0733784
0.0730502
0.0727622
0.0725129
0.0723016
0.0721294
0.0719986
0.0719135
0.0718804
0.0719081
0.0720079
0.0721944
0.0724856
0.0729034
0.0734737
0.0742272
0.0751998
0.0764331
0.0779751
0.0798819
0.0822188
0.0850638
0.088512
0.092686
0.0977567
0.103993
0.111893
0.122585
0.139339
0.176048
0.360125
0.0784043
0.0775077
0.0767152
0.0760135
0.0753912
0.0748384
0.0743468
0.0739094
0.0735205
0.0731755
0.0728707
0.0726038
0.0723734
0.0721793
0.0720227
0.0719063
0.0718346
0.0718141
0.0718537
0.071965
0.0721626
0.0724646
0.072893
0.0734739
0.0742379
0.0752208
0.0764642
0.0780161
0.0799322
0.0822778
0.0851304
0.0885849
0.0927631
0.0978352
0.104069
0.111959
0.122629
0.139335
0.175904
0.359119
0.0777933
0.0769792
0.0762563
0.0756133
0.0750409
0.0745308
0.0740759
0.0736704
0.0733094
0.072989
0.072706
0.0724586
0.0722457
0.0720675
0.0719255
0.0718224
0.0717631
0.0717543
0.0718049
0.0719267
0.0721346
0.0724467
0.072885
0.0734757
0.0742494
0.0752419
0.0764947
0.0780556
0.0799803
0.0823337
0.0851932
0.0886531
0.0928348
0.0979076
0.104137
0.112018
0.122666
0.139323
0.175754
0.358129
0.077227
0.0764897
0.0758314
0.0752432
0.0747172
0.0742469
0.0738262
0.0734504
0.0731154
0.0728177
0.072555
0.0723257
0.0721291
0.0719656
0.0718369
0.0717462
0.0716983
0.0717002
0.071761
0.0718926
0.0721099
0.0724313
0.0728787
0.0734784
0.074261
0.0752623
0.0765237
0.0780928
0.0800253
0.0823858
0.0852512
0.0887158
0.0929003
0.0979731
0.104199
0.112069
0.122695
0.139304
0.175599
0.35716
0.0767051
0.0760382
0.0754395
0.0749019
0.074419
0.0739854
0.0735965
0.0732483
0.0729373
0.0726608
0.0724168
0.0722042
0.0720226
0.0718727
0.0717563
0.071677
0.0716396
0.0716513
0.0717214
0.0718619
0.0720879
0.0724178
0.0728735
0.0734814
0.0742722
0.0752814
0.0765505
0.0781271
0.0800664
0.0824331
0.0853038
0.0887722
0.0929587
0.0980308
0.104252
0.112111
0.122716
0.139277
0.175441
0.356217
0.0762264
0.0756238
0.0750796
0.0745883
0.0741449
0.0737453
0.0733857
0.0730629
0.0727741
0.0725171
0.0722905
0.0720933
0.0719255
0.071788
0.071683
0.0716141
0.0715863
0.071607
0.0716856
0.0718343
0.0720681
0.0724056
0.072869
0.0734843
0.0742823
0.0752987
0.0765747
0.0781578
0.0801032
0.0824752
0.0853503
0.0888218
0.0930095
0.0980802
0.104296
0.112145
0.122727
0.139243
0.175279
0.355307
0.0757896
0.075245
0.0747502
0.0743011
0.0738939
0.0735254
0.0731927
0.0728932
0.0726248
0.0723859
0.0721751
0.0719921
0.071837
0.071711
0.0716164
0.0715569
0.0715379
0.0715668
0.0716531
0.0718091
0.0720501
0.0723945
0.0728645
0.0734865
0.074291
0.0753136
0.0765956
0.0781844
0.080135
0.0825115
0.0853901
0.0888638
0.093052
0.0981209
0.104332
0.112169
0.12273
0.139201
0.175115
0.354434
0.0753931
0.0749003
0.07445
0.0740391
0.0736647
0.0733245
0.0730163
0.0727382
0.0724886
0.0722661
0.07207
0.0718999
0.0717564
0.0716408
0.0715557
0.0715049
0.0714938
0.0715301
0.0716233
0.071786
0.0720332
0.0723838
0.0728598
0.0734875
0.0742977
0.0753258
0.076613
0.0782066
0.0801614
0.0825415
0.0854228
0.088898
0.093086
0.0981524
0.104357
0.112183
0.122724
0.139152
0.174951
0.353603
0.0750346
0.074588
0.0741774
0.0738008
0.073456
0.0731415
0.0728556
0.072597
0.0723644
0.072157
0.0719742
0.071816
0.0716831
0.0715771
0.0715005
0.0714575
0.0714536
0.0714965
0.071596
0.0717644
0.0720173
0.0723732
0.0728544
0.0734872
0.0743022
0.0753349
0.0766264
0.0782239
0.0801822
0.082565
0.0854482
0.088924
0.0931111
0.0981745
0.104373
0.112188
0.122709
0.139097
0.174787
0.352818
0.074712
0.0743061
0.0739308
0.0735847
0.0732665
0.0729751
0.0727094
0.0724685
0.0722515
0.0720577
0.0718871
0.0717397
0.0716164
0.071519
0.0714503
0.0714143
0.0714168
0.0714656
0.0715706
0.0717442
0.0720019
0.0723625
0.0728481
0.0734851
0.0743041
0.0753407
0.0766356
0.0782362
0.080197
0.0825818
0.0854659
0.0889417
0.0931273
0.0981871
0.10438
0.112184
0.122685
0.139036
0.174624
0.352085
0.0744228
0.0740525
0.0737084
0.0733894
0.073095
0.0728243
0.0725768
0.0723518
0.0721489
0.0719676
0.071808
0.0716703
0.0715558
0.0714662
0.0714044
0.0713748
0.0713831
0.0714371
0.0715469
0.071725
0.0719869
0.0723513
0.0728406
0.0734811
0.0743034
0.0753429
0.0766405
0.0782433
0.0802059
0.0825917
0.0854761
0.088951
0.0931344
0.0981903
0.104376
0.11217
0.122654
0.138969
0.174463
0.351407
0.0741646
0.0738253
0.0735084
0.0732134
0.0729399
0.0726878
0.0724566
0.072246
0.0720557
0.0718857
0.071736
0.0716073
0.0715006
0.0714181
0.0713626
0.0713386
0.0713519
0.0714105
0.0715245
0.0717064
0.0719718
0.0723395
0.0728318
0.073475
0.0742998
0.0753415
0.0766409
0.0782452
0.0802086
0.0825947
0.0854785
0.088952
0.0931327
0.0981842
0.104363
0.112147
0.122614
0.138898
0.174307
0.350788
0.0739348
0.0736222
0.0733289
0.0730549
0.0728001
0.0725644
0.0723477
0.07215
0.0719712
0.0718113
0.0716707
0.0715499
0.0714504
0.0713741
0.0713243
0.0713052
0.0713231
0.0713857
0.0715032
0.0716883
0.0719566
0.0723269
0.0728216
0.0734668
0.0742933
0.0753364
0.0766369
0.0782418
0.0802054
0.0825909
0.0854735
0.0889448
0.0931222
0.098169
0.104342
0.112115
0.122567
0.138822
0.174155
0.350231
0.0737308
0.073441
0.0731681
0.0729123
0.0726738
0.0724526
0.0722489
0.0720628
0.0718943
0.0717435
0.071611
0.0714975
0.0714044
0.0713338
0.071289
0.0712744
0.0712962
0.0713622
0.0714828
0.0716705
0.0719411
0.0723134
0.0728097
0.0734563
0.0742839
0.0753277
0.0766285
0.0782333
0.0801962
0.0825806
0.0854613
0.0889298
0.0931034
0.0981452
0.104311
0.112076
0.122513
0.138742
0.17401
0.34974
0.0735501
0.0732793
0.0730238
0.0727837
0.0725594
0.072351
0.0721589
0.0719831
0.0718238
0.0716814
0.0715562
0.0714493
0.071362
0.0712965
0.0712562
0.0712456
0.0712708
0.0713398
0.0714629
0.0716528
0.0719252
0.0722989
0.0727963
0.0734437
0.0742716
0.0753155
0.0766159
0.0782199
0.0801815
0.0825639
0.085442
0.0889072
0.0930766
0.0981132
0.104272
0.112028
0.122453
0.13866
0.173871
0.349315
0.0733899
0.0731346
0.0728935
0.0726668
0.0724548
0.0722577
0.0720759
0.0719094
0.0717586
0.0716237
0.0715053
0.0714044
0.0713224
0.0712616
0.0712254
0.0712183
0.0712465
0.0713181
0.0714433
0.0716349
0.0719086
0.0722832
0.0727812
0.0734287
0.0742565
0.0752998
0.0765992
0.0782017
0.0801613
0.0825412
0.0854162
0.0888775
0.0930424
0.0980735
0.104226
0.111974
0.122388
0.138576
0.173741
0.34896
0.073247
0.0730038
0.0727744
0.0725589
0.0723576
0.0721706
0.071998
0.07184
0.071697
0.0715691
0.071457
0.0713616
0.0712846
0.0712281
0.0711957
0.0711918
0.0712228
0.0712966
0.0714236
0.0716165
0.0718911
0.0722663
0.0727643
0.0734116
0.0742387
0.0752808
0.0765787
0.0781791
0.0801362
0.082513
0.0853842
0.0888413
0.0930013
0.0980268
0.104173
0.111913
0.122318
0.138491
0.173619
0.348674
0.0731179
0.0728833
0.072663
0.0724569
0.0722649
0.0720868
0.0719227
0.0717727
0.0716369
0.0715157
0.0714096
0.0713197
0.0712474
0.0711951
0.0711663
0.0711655
0.0711989
0.0712748
0.0714033
0.0715973
0.0718726
0.0722479
0.0727457
0.0733923
0.0742182
0.0752587
0.0765546
0.0781524
0.0801064
0.0824796
0.0853467
0.0887992
0.0929539
0.0979738
0.104114
0.111848
0.122244
0.138405
0.173507
0.348457
0.0729983
0.0727689
0.0725553
0.0723569
0.072173
0.0720032
0.0718472
0.0717048
0.0715762
0.0714616
0.0713615
0.0712769
0.0712094
0.0711613
0.071136
0.0711382
0.0711741
0.0712519
0.0713819
0.0715768
0.0718525
0.0722278
0.0727251
0.0733707
0.0741951
0.0752337
0.076527
0.0781219
0.0800725
0.0824416
0.0853043
0.0887518
0.0929012
0.0979153
0.10405
0.111777
0.122167
0.13832
0.173406
0.348306
0.0728834
0.0726557
0.0724467
0.0722546
0.0720781
0.0719162
0.0717681
0.0716335
0.0715122
0.0714044
0.0713105
0.0712315
0.0711689
0.0711252
0.0711036
0.0711089
0.0711474
0.0712272
0.0713586
0.0715545
0.0718306
0.0722057
0.0727023
0.0733467
0.0741695
0.0752059
0.0764965
0.0780881
0.0800349
0.0823998
0.0852577
0.0887
0.0928439
0.0978524
0.103981
0.111703
0.122088
0.138237
0.173315
0.348216
0.0727679
0.0725387
0.0723323
0.0721457
0.0719762
0.0718222
0.0716824
0.0715559
0.0714424
0.0713418
0.0712546
0.0711816
0.0711244
0.0710853
0.0710678
0.0710766
0.0711179
0.0711999
0.0713329
0.0715298
0.0718063
0.0721813
0.0726773
0.0733205
0.0741415
0.0751755
0.0764633
0.0780515
0.0799943
0.0823548
0.0852078
0.0886449
0.0927833
0.0977863
0.10391
0.111627
0.122009
0.138155
0.173234
0.348174
0.0726469
0.0724135
0.0722086
0.0720269
0.0718647
0.071719
0.071588
0.0714703
0.0713652
0.0712725
0.0711925
0.071126
0.0710747
0.0710408
0.0710278
0.0710403
0.0710848
0.0711693
0.0713042
0.0715023
0.0717795
0.0721546
0.07265
0.0732921
0.0741114
0.0751431
0.0764281
0.0780129
0.0799518
0.0823078
0.085156
0.0885878
0.0927209
0.0977185
0.103837
0.111551
0.12193
0.138077
0.173162
0.348163
0.0725178
0.0722788
0.0720748
0.0718984
0.0717438
0.071607
0.0714854
0.0713771
0.071281
0.0711967
0.0711245
0.0710651
0.0710201
0.0709918
0.0709837
0.0710004
0.0710483
0.0711357
0.0712727
0.0714724
0.0717505
0.0721259
0.0726211
0.0732622
0.07408
0.0751097
0.076392
0.0779736
0.0799088
0.0822606
0.0851041
0.088531
0.0926589
0.0976515
0.103766
0.111476
0.121854
0.138004
0.1731
0.348151
0.0723835
0.0721391
0.0719367
0.0717659
0.0716194
0.071492
0.07138
0.0712812
0.0711943
0.0711187
0.0710544
0.0710022
0.0709636
0.070941
0.0709379
0.0709589
0.0710105
0.0711009
0.0712403
0.0714418
0.071721
0.072097
0.0725921
0.0732326
0.0740492
0.0750772
0.0763572
0.077936
0.0798678
0.0822159
0.0850552
0.0884775
0.0926008
0.097589
0.103699
0.111407
0.121784
0.137938
0.173045
0.348083
0.0722573
0.0720098
0.0718099
0.0716452
0.0715065
0.0713877
0.0712845
0.0711944
0.0711158
0.0710478
0.0709906
0.0709448
0.070912
0.0708946
0.070896
0.070921
0.070976
0.0710691
0.0712108
0.071414
0.0716945
0.0720711
0.0725664
0.0732067
0.0740225
0.0750492
0.0763274
0.077904
0.0798332
0.0821782
0.0850141
0.0884329
0.0925524
0.0975369
0.103644
0.11135
0.121729
0.137891
0.173018
0.347888
0.0721684
0.0719205
0.0717235
0.0715633
0.0714302
0.0713172
0.07122
0.0711357
0.0710625
0.0709996
0.070947
0.0709055
0.0708766
0.0708626
0.070867
0.0708947
0.070952
0.0710471
0.0711904
0.0713949
0.0716763
0.0720535
0.0725491
0.0731893
0.0740047
0.0750307
0.076308
0.0778833
0.0798109
0.082154
0.0849877
0.0884041
0.0925211
0.0975031
0.103608
0.111313
0.121692
0.137859
0.172992
0.347333
)
;

boundaryField
{
    leftWall
    {
        Cmu             0.09;
        kappa           0.41;
        E               9.8;
        type            epsilonWallFunction;
        value           nonuniform 0();
    }
    rightWall
    {
        Cmu             0.09;
        kappa           0.41;
        E               9.8;
        type            epsilonWallFunction;
        value           nonuniform List<scalar> 
43
(
0.379016
0.378116
0.377145
0.376107
0.375009
0.373861
0.372672
0.371446
0.370184
0.368879
0.367586
0.366373
0.36525
0.3642
0.363182
0.362162
0.361141
0.360125
0.359119
0.358129
0.35716
0.356217
0.355307
0.354434
0.353603
0.352818
0.352085
0.351407
0.350788
0.350231
0.34974
0.349315
0.34896
0.348674
0.348457
0.348306
0.348216
0.348174
0.348163
0.348151
0.348083
0.347888
0.347333
)
;
    }
    lowerWall
    {
        Cmu             0.09;
        kappa           0.41;
        E               9.8;
        type            epsilonWallFunction;
        value           nonuniform 0();
    }
    atmosphere
    {
        type            inletOutlet;
        inletValue      uniform 0.1;
        value           nonuniform List<scalar> 
45
(
0.0747132
0.0739025
0.0732987
0.0728328
0.0724701
0.0721684
0.0719205
0.0717235
0.0715633
0.0714302
0.0713172
0.07122
0.0711357
0.0710625
0.0709996
0.070947
0.0709055
0.0708766
0.0708626
0.070867
0.0708947
0.070952
0.0710471
0.0711904
0.0713949
0.0716763
0.0720535
0.0725491
0.0731893
0.0740047
0.0750307
0.076308
0.0778833
0.0798109
0.082154
0.0849877
0.0884041
0.0925211
0.0975031
0.103608
0.111313
0.121692
0.137859
0.172992
0.347333
)
;
    }
    defaultFaces
    {
        type            empty;
    }
    procBoundary3to1
    {
        type            processor;
        value           nonuniform List<scalar> 
45
(
0.124152
0.11975
0.115729
0.111934
0.10837
0.10486
0.101456
0.098325
0.095447
0.0928084
0.0903975
0.0882024
0.086211
0.0844109
0.0827903
0.0813375
0.0800413
0.0788914
0.0778782
0.0769931
0.0762291
0.0755808
0.0750453
0.0746225
0.0743153
0.0741307
0.0740799
0.074179
0.0744491
0.0749169
0.0756155
0.0765847
0.0778718
0.0795334
0.081637
0.0842644
0.0875176
0.0915305
0.0964924
0.102704
0.110724
0.121807
0.139558
0.179193
0.37985
)
;
    }
    procBoundary3to2
    {
        type            processor;
        value           nonuniform List<scalar> 
43
(
0.125187
0.121729
0.118608
0.115762
0.11314
0.1107
0.108405
0.106227
0.104137
0.102117
0.100149
0.0982239
0.0963358
0.094485
0.0926763
0.0909183
0.0892224
0.087601
0.0860663
0.0846292
0.0832979
0.0820778
0.0809706
0.0799753
0.0790879
0.0783025
0.0776118
0.077008
0.0764833
0.0760305
0.0756432
0.0753166
0.0750477
0.0748357
0.0746823
0.0745923
0.0745735
0.0746354
0.0747863
0.0750259
0.075331
0.0756357
0.0758245
)
;
    }
}


// ************************************************************************* //
