/*--------------------------------*- C++ -*----------------------------------*\
| =========                 |                                                 |
| \\      /  F ield         | OpenFOAM: The Open Source CFD Toolbox           |
|  \\    /   O peration     | Version:  5.0                                   |
|   \\  /    A nd           | Web:      www.OpenFOAM.org                      |
|    \\/     M anipulation  |                                                 |
\*---------------------------------------------------------------------------*/
FoamFile
{
    version     2.0;
    format      ascii;
    class       volScalarField;
    location    "0.2";
    object      k;
}
// * * * * * * * * * * * * * * * * * * * * * * * * * * * * * * * * * * * * * //

dimensions      [0 2 -2 0 0 0 0];

internalField   nonuniform List<scalar> 
1935
(
0.120718
0.118821
0.117019
0.115302
0.113663
0.112094
0.110584
0.109125
0.10771
0.10633
0.10498
0.103655
0.102355
0.101078
0.099829
0.0986113
0.0974318
0.0962976
0.0952162
0.0941946
0.0932388
0.0923533
0.0915409
0.0908025
0.0901372
0.0895428
0.0890159
0.0885523
0.0881475
0.0877971
0.0874969
0.0872432
0.0870331
0.0868645
0.086736
0.0866469
0.0865967
0.0865842
0.0866066
0.0866565
0.0867201
0.0867746
0.0867965
0.117702
0.114926
0.112306
0.109853
0.115822
0.113081
0.110517
0.108134
0.114051
0.111358
0.108856
0.106548
0.112379
0.109744
0.107311
0.105081
0.110798
0.108228
0.10587
0.10372
0.109295
0.1068
0.104521
0.102454
0.107863
0.105448
0.103254
0.101271
0.106492
0.104164
0.102058
0.100162
0.105172
0.102938
0.100924
0.0991165
0.103897
0.101763
0.0998444
0.0981275
0.10266
0.100631
0.0988123
0.0971879
0.101457
0.0995387
0.0978225
0.0962922
0.100285
0.0984818
0.096871
0.0954364
0.099143
0.0974589
0.0959558
0.0946177
0.0980325
0.0964701
0.095076
0.0938347
0.0969564
0.0955169
0.0942319
0.0930869
0.0959189
0.0946019
0.0934249
0.0923747
0.094925
0.0937283
0.092657
0.091699
0.0939799
0.0928998
0.0919304
0.0910612
0.0930887
0.0921197
0.0912474
0.0904625
0.0922556
0.091391
0.0906097
0.089904
0.0914837
0.0907158
0.0900188
0.0893863
0.0907749
0.0900951
0.0894751
0.0889097
0.0901295
0.0895291
0.0889786
0.0884738
0.0895467
0.0890168
0.0885282
0.0880775
0.0890244
0.0885565
0.0881223
0.0877196
0.0885598
0.0881456
0.0877589
0.0873981
0.0881494
0.0877813
0.0874356
0.0871111
0.0877895
0.0874604
0.0871496
0.0868562
0.0874763
0.0871798
0.0868981
0.086631
0.0872062
0.0869362
0.0866786
0.0864332
0.086976
0.0867268
0.0864883
0.0862604
0.0867828
0.0865489
0.0863246
0.0861101
0.0866243
0.0864
0.086185
0.0859796
0.0864985
0.0862775
0.0860667
0.0858662
0.0864035
0.0861789
0.0859666
0.0857665
0.0863373
0.0861012
0.0858812
0.0856767
0.086297
0.0860407
0.0858063
0.0855925
0.0862783
0.0859924
0.0857372
0.0855099
0.0862742
0.0859506
0.0856696
0.0854256
0.0862749
0.0859094
0.0856009
0.0853398
0.0862694
0.0858663
0.0855342
0.0852595
0.0862538
0.0858287
0.085484
0.0852024
0.10744
0.105112
0.102984
0.101038
0.0992592
0.0976351
0.0961534
0.0948029
0.0935733
0.092455
0.0914393
0.0905178
0.0896824
0.0889248
0.0882368
0.0876098
0.0870347
0.0865023
0.0860026
0.0855253
0.0850596
0.0845937
0.0841151
0.0836103
0.0830641
0.0824594
0.0817762
0.0809911
0.0800752
0.0789931
0.0776993
0.0761352
0.0742228
0.0718556
0.0688834
0.0650817
0.0600841
0.0531899
0.0425919
0.0215036
0.105809
0.103576
0.10155
0.0997123
0.0980444
0.0965306
0.0951566
0.0939092
0.0927769
0.0917492
0.0908168
0.0899709
0.0892034
0.0885063
0.0878717
0.0872912
0.0867566
0.0862589
0.0857889
0.0853368
0.0848922
0.0844439
0.08398
0.0834871
0.0829506
0.0823536
0.0816766
0.0808961
0.0799838
0.0789041
0.0776119
0.0760485
0.0741361
0.0717683
0.0687949
0.0649915
0.0599923
0.0530978
0.0425058
0.0214695
0.104311
0.102178
0.100251
0.0985133
0.0969461
0.0955318
0.094254
0.0930985
0.0920527
0.0911053
0.0902467
0.0894681
0.0887611
0.0881181
0.0875313
0.086993
0.086495
0.086029
0.0855862
0.0851573
0.0847323
0.0843005
0.0838503
0.0833688
0.0828415
0.082252
0.0815809
0.080805
0.0798961
0.0788187
0.0775279
0.0759651
0.0740525
0.0716837
0.0687087
0.0649032
0.0599018
0.0530063
0.0424195
0.0214326
0.102932
0.100896
0.0990677
0.0974261
0.0959512
0.0946269
0.0934357
0.0923623
0.0913934
0.0905175
0.0897247
0.0890059
0.088353
0.0877585
0.0872147
0.0867143
0.0862496
0.0858125
0.0853946
0.0849871
0.0845804
0.084164
0.0837267
0.083256
0.0827376
0.0821552
0.0814898
0.0807183
0.0798126
0.0787374
0.0774479
0.0758854
0.0739722
0.0716022
0.0686251
0.064817
0.059813
0.0529157
0.0423333
0.0213932
0.10166
0.0997178
0.0979831
0.096433
0.0950468
0.0938052
0.0926921
0.0916925
0.0907925
0.0899805
0.0892463
0.088581
0.0879766
0.0874256
0.0869206
0.0864546
0.08602
0.0856093
0.0852144
0.0848267
0.0844369
0.0840349
0.0836098
0.0831492
0.0826392
0.0820637
0.0814038
0.0806365
0.0797338
0.0786607
0.0773721
0.0758097
0.0738958
0.0715241
0.0685446
0.0647334
0.0597261
0.0528265
0.0422476
0.0213514
0.100483
0.0986321
0.0969867
0.0955229
0.0942189
0.0930554
0.0920148
0.0910818
0.0902439
0.0894893
0.0888078
0.0881905
0.0876296
0.0871178
0.0866478
0.0862129
0.0858059
0.0854193
0.0850455
0.084676
0.084302
0.0839135
0.0834998
0.0830488
0.0825468
0.0819779
0.0813231
0.0805598
0.07966
0.0785887
0.077301
0.0757384
0.0738234
0.0714497
0.0684673
0.0646527
0.0596415
0.052739
0.0421628
0.0213077
0.0993887
0.0976282
0.0960687
0.0946863
0.0934592
0.0923676
0.0913942
0.0905234
0.0897422
0.0890393
0.0884053
0.0878314
0.0873098
0.0868333
0.0863952
0.0859885
0.0856066
0.0852422
0.0848877
0.0845351
0.0841757
0.0837998
0.0833969
0.0829551
0.0824606
0.0818979
0.0812481
0.0804885
0.0795914
0.0785217
0.0772346
0.0756717
0.0737552
0.0713792
0.0683936
0.064575
0.0595595
0.0526535
0.0420792
0.0212623
0.0983682
0.0966962
0.0952198
0.093915
0.09276
0.0917354
0.0908238
0.0900101
0.0892813
0.0886263
0.0880355
0.0875009
0.0870149
0.0865706
0.0861613
0.0857805
0.0854215
0.0850774
0.0847408
0.0844039
0.0840581
0.083694
0.0833012
0.0828679
0.0823807
0.0818239
0.0811788
0.0804228
0.0795282
0.0784599
0.0771731
0.0756095
0.0736914
0.0713127
0.0683236
0.0645005
0.0594802
0.0525702
0.0419972
0.0212154
0.0974121
0.0958274
0.0944317
0.0932013
0.0921147
0.0911528
0.0902986
0.0895374
0.0888567
0.0882456
0.0876949
0.0871964
0.0867429
0.086328
0.0859451
0.0855879
0.08525
0.0849246
0.0846045
0.0842822
0.0839491
0.083596
0.0832127
0.0827875
0.0823071
0.0817559
0.0811152
0.0803626
0.0794702
0.0784031
0.0771165
0.075552
0.073632
0.0712503
0.0682572
0.0644294
0.0594038
0.0524893
0.0419167
0.0211671
0.0965126
0.0950143
0.0936974
0.0925386
0.091517
0.0906142
0.0898137
0.0891014
0.0884651
0.0878944
0.0873803
0.0869152
0.0864919
0.086104
0.0857453
0.0854098
0.0850913
0.0847832
0.0844784
0.0841695
0.0838483
0.0835056
0.0831312
0.0827137
0.0822397
0.0816938
0.0810573
0.0803078
0.0794175
0.0783514
0.0770647
0.0754991
0.0735768
0.0711919
0.0681944
0.0643615
0.0593303
0.0524106
0.0418376
0.0211171
0.0956629
0.0942503
0.0930105
0.0919211
0.0909619
0.0901151
0.0893652
0.0886985
0.0881034
0.0875701
0.0870899
0.0866553
0.0862597
0.0858968
0.0855607
0.0852454
0.0849448
0.0846526
0.0843621
0.0840657
0.0837556
0.0834225
0.0830566
0.0826463
0.0821784
0.0816374
0.0810049
0.0802583
0.0793698
0.0783045
0.0770175
0.0754506
0.0735258
0.0711373
0.0681352
0.0642968
0.0592595
0.0523341
0.0417594
0.0210672
0.0948576
0.0935302
0.0923661
0.091344
0.0904447
0.0896514
0.0889493
0.0883254
0.087769
0.0872704
0.0868215
0.0864153
0.0860453
0.0857055
0.0853901
0.0850934
0.0848095
0.0845323
0.0842549
0.0839703
0.0836705
0.0833466
0.0829886
0.0825851
0.0821229
0.0815866
0.0809578
0.0802138
0.079327
0.0782623
0.0769748
0.0754062
0.0734788
0.0710864
0.0680795
0.0642352
0.0591916
0.0522601
0.0416828
0.0210199
0.0940926
0.0928496
0.0917599
0.0908033
0.0899619
0.0892197
0.088563
0.0879796
0.0874593
0.0869932
0.0865736
0.0861937
0.0858473
0.0855289
0.0852327
0.0849532
0.0846848
0.0844214
0.0841565
0.0838829
0.0835928
0.0832774
0.0829268
0.0825297
0.082073
0.0815411
0.0809157
0.0801742
0.0792888
0.0782244
0.0769363
0.0753659
0.0734355
0.0710391
0.0680271
0.0641769
0.0591267
0.0521889
0.0416086
0.0209758
0.0933646
0.0922053
0.0911887
0.0902959
0.0895103
0.0888172
0.0882037
0.0876586
0.0871723
0.0867367
0.0863444
0.085989
0.0856647
0.085366
0.0850877
0.0848243
0.0845702
0.0843197
0.0840662
0.0838029
0.0835219
0.0832146
0.082871
0.0824799
0.0820283
0.0815006
0.0808783
0.0801391
0.0792549
0.0781908
0.0769018
0.0753294
0.0733959
0.0709954
0.0679782
0.0641218
0.059065
0.0521208
0.0415375
0.0209344
0.0926718
0.0915951
0.09065
0.0898193
0.0890876
0.0884415
0.0878692
0.0873604
0.0869063
0.0864993
0.0861325
0.0858
0.0854963
0.0852161
0.0849543
0.0847058
0.0844651
0.0842266
0.0839838
0.0837301
0.0834576
0.0831577
0.0828207
0.0824354
0.0819885
0.0814647
0.0808455
0.0801083
0.0792252
0.0781611
0.0768711
0.0752966
0.0733599
0.0709551
0.0679326
0.0640701
0.0590066
0.0520561
0.0414702
0.020895
0.0920131
0.0910174
0.0901421
0.0893715
0.0886918
0.0880907
0.0875577
0.0870834
0.0866597
0.0862796
0.0859368
0.0856257
0.0853411
0.0850781
0.0848318
0.0845971
0.0843689
0.0841415
0.0839088
0.083664
0.0833994
0.0831066
0.0827758
0.0823957
0.0819534
0.0814332
0.0808167
0.0800814
0.0791992
0.078135
0.0768439
0.0752673
0.0733273
0.0709182
0.0678904
0.0640219
0.0589519
0.0519954
0.0414072
0.0208557
0.0913881
0.0904714
0.0896637
0.0889511
0.0883213
0.0877634
0.0872678
0.0868261
0.0864311
0.0860763
0.085756
0.0854649
0.0851983
0.0849513
0.0847194
0.0844976
0.084281
0.0840641
0.0838407
0.0836042
0.0833471
0.0830609
0.0827359
0.0823608
0.0819226
0.0814058
0.0807919
0.0800583
0.0791769
0.0781126
0.0768203
0.0752414
0.0732982
0.0708847
0.0678518
0.0639773
0.058901
0.0519385
0.0413481
0.0208164
0.090797
0.0899566
0.089214
0.0885571
0.087975
0.0874581
0.0869981
0.0865873
0.0862194
0.0858885
0.0855892
0.0853169
0.085067
0.084835
0.0846165
0.0844067
0.0842009
0.0839937
0.083779
0.0835503
0.0833002
0.0830202
0.0827005
0.0823302
0.0818959
0.0813823
0.0807708
0.0800387
0.079158
0.0780935
0.0767999
0.0752188
0.0732724
0.0708547
0.0678166
0.0639363
0.0588538
0.0518856
0.0412928
0.0207772
0.0902404
0.0894729
0.0887925
0.0881887
0.0876519
0.087174
0.0867476
0.086366
0.0860236
0.085715
0.0854355
0.0851807
0.0849464
0.0847284
0.0845223
0.0843238
0.0841281
0.0839298
0.0837233
0.0835019
0.0832583
0.082984
0.0826695
0.0823035
0.0818729
0.0813624
0.0807531
0.0800224
0.0791423
0.0780775
0.0767827
0.0751994
0.0732498
0.070828
0.067785
0.063899
0.0588105
0.0518368
0.0412414
0.0207384
0.0897187
0.0890204
0.0883988
0.0878451
0.0873513
0.0869101
0.0865153
0.0861612
0.0858426
0.085555
0.085294
0.0850556
0.0848359
0.0846308
0.0844364
0.0842483
0.0840619
0.0838721
0.0836731
0.0834585
0.0832209
0.0829521
0.0826423
0.0822804
0.0818534
0.0813456
0.0807384
0.0800091
0.0791295
0.0780643
0.0767683
0.0751829
0.0732302
0.0708045
0.0677567
0.0638653
0.0587711
0.0517921
0.0411943
0.0207002
0.0892324
0.0885989
0.0880326
0.0875259
0.0870722
0.0866655
0.0863004
0.085972
0.0856758
0.0854078
0.085164
0.0849409
0.0847346
0.0845417
0.084358
0.0841796
0.0840019
0.0838199
0.083628
0.0834197
0.0831878
0.082924
0.0826187
0.0822607
0.0818368
0.0813317
0.0807264
0.0799984
0.0791193
0.0780538
0.0767566
0.0751691
0.0732135
0.070784
0.0677317
0.0638353
0.0587357
0.0517516
0.0411514
0.0206627
0.0887816
0.0882084
0.0876934
0.0872305
0.0868142
0.0864396
0.0861021
0.0857976
0.0855222
0.0852724
0.0850447
0.0848357
0.0846421
0.0844603
0.0842867
0.0841173
0.0839477
0.0837729
0.0835875
0.0833851
0.0831585
0.0828994
0.0825982
0.0822438
0.081823
0.0813203
0.080717
0.0799901
0.0791114
0.0780456
0.0767474
0.075158
0.0731996
0.0707666
0.06771
0.0638088
0.0587042
0.0517156
0.0411128
0.0206263
0.0883663
0.0878484
0.0873806
0.0869581
0.0865763
0.0862314
0.0859195
0.0856372
0.0853812
0.0851483
0.0849354
0.0847396
0.0845576
0.0843862
0.0842219
0.0840608
0.0838986
0.0837306
0.0835512
0.0833543
0.0831326
0.0828779
0.0825806
0.0822295
0.0818116
0.0813113
0.0807096
0.0799839
0.0791057
0.0780396
0.0767403
0.0751491
0.0731882
0.0707519
0.0676915
0.0637859
0.0586767
0.0516838
0.0410788
0.020591
0.087986
0.0875183
0.0870936
0.086708
0.0863579
0.0860403
0.085752
0.0854901
0.0852519
0.0850346
0.0848355
0.0846518
0.0844806
0.0843188
0.084163
0.0840096
0.0838544
0.0836925
0.0835188
0.0833269
0.0831098
0.0828591
0.0825655
0.0822176
0.0818024
0.0813042
0.0807042
0.0799795
0.0791018
0.0780355
0.0767353
0.0751425
0.0731793
0.0707401
0.0676761
0.0637665
0.0586532
0.0516566
0.0410493
0.0205572
0.0876396
0.0872172
0.0868314
0.0864793
0.0861581
0.0858654
0.0855986
0.0853555
0.0851337
0.0849308
0.0847443
0.0845718
0.0844105
0.0842575
0.0841097
0.0839634
0.0838145
0.0836584
0.0834898
0.0833026
0.0830897
0.0828429
0.0825526
0.0822077
0.081795
0.0812988
0.0807004
0.0799768
0.0790995
0.0780331
0.0767322
0.075138
0.0731727
0.0707308
0.0676637
0.0637506
0.0586337
0.0516337
0.0410245
0.020525
0.0873259
0.0869439
0.086593
0.086271
0.0859759
0.0857058
0.0854587
0.0852327
0.0850259
0.0848361
0.0846612
0.084499
0.0843468
0.084202
0.0840614
0.0839216
0.0837785
0.0836278
0.083464
0.0832811
0.0830721
0.0828288
0.0825417
0.0821995
0.0817892
0.081295
0.0806981
0.0799755
0.0790987
0.0780323
0.0767307
0.0751354
0.0731684
0.0707242
0.0676542
0.0637381
0.0586181
0.0516153
0.0410042
0.0204947
0.0870434
0.0866971
0.0863772
0.0860821
0.0858104
0.0855607
0.0853314
0.0851209
0.0849277
0.0847499
0.0845856
0.0844328
0.084289
0.0841516
0.0840177
0.0838838
0.0837462
0.0836003
0.083441
0.0832621
0.0830567
0.0828167
0.0825325
0.0821929
0.0817848
0.0812925
0.080697
0.0799755
0.0790993
0.0780329
0.0767309
0.0751345
0.0731661
0.0707199
0.0676477
0.063729
0.0586064
0.0516014
0.0409886
0.0204662
0.0867902
0.0864752
0.0861826
0.0859114
0.0856606
0.0854291
0.0852158
0.0850193
0.0848385
0.0846716
0.084517
0.0843727
0.0842365
0.084106
0.0839781
0.0838498
0.0837171
0.0835757
0.0834204
0.0832452
0.0830432
0.0828062
0.0825248
0.0821876
0.0817817
0.0812911
0.0806971
0.0799765
0.079101
0.0780348
0.0767325
0.0751354
0.0731658
0.0707181
0.067644
0.0637233
0.0585987
0.0515919
0.0409777
0.02044
0.0865645
0.0862765
0.0860078
0.0857576
0.0855253
0.08531
0.085111
0.0849272
0.0847575
0.0846005
0.0844547
0.0843182
0.0841889
0.0840646
0.0839424
0.0838191
0.083691
0.0835537
0.0834021
0.0832304
0.0830314
0.0827973
0.0825184
0.0821835
0.0817795
0.0812907
0.0806981
0.0799786
0.0791037
0.0780378
0.0767355
0.0751379
0.0731674
0.0707185
0.0676431
0.0637208
0.0585947
0.0515867
0.0409713
0.020416
0.0863641
0.0860995
0.0858514
0.0856195
0.0854034
0.0852025
0.0850162
0.0848437
0.084684
0.0845359
0.084398
0.0842686
0.0841457
0.0840271
0.08391
0.0837913
0.0836674
0.0835339
0.0833858
0.0832172
0.0830211
0.0827896
0.0825131
0.0821804
0.0817783
0.0812912
0.0806999
0.0799815
0.0791074
0.0780419
0.0767397
0.0751419
0.0731709
0.0707213
0.0676448
0.0637216
0.0585946
0.0515858
0.0409694
0.0203944
0.0861871
0.0859421
0.0857116
0.0854955
0.0852935
0.0851052
0.0849302
0.0847678
0.0846171
0.0844771
0.0843464
0.0842235
0.0841064
0.0839929
0.0838805
0.0837661
0.083646
0.083516
0.0833711
0.0832054
0.0830121
0.082783
0.0825088
0.0821781
0.0817779
0.0812924
0.0807025
0.0799852
0.0791119
0.078047
0.0767451
0.0751473
0.0731761
0.0707261
0.0676492
0.0637255
0.0585981
0.0515892
0.0409719
0.0203753
0.0860312
0.0858024
0.0855867
0.085384
0.0851942
0.085017
0.0848519
0.0846985
0.0845559
0.0844232
0.0842991
0.084182
0.0840702
0.0839616
0.0838535
0.083743
0.0836264
0.0834997
0.0833578
0.0831949
0.0830041
0.0827773
0.0825052
0.0821765
0.0817781
0.0812942
0.0807057
0.0799896
0.0791173
0.0780531
0.0767516
0.0751542
0.0731831
0.0707331
0.0676561
0.0637324
0.0586052
0.0515966
0.0409788
0.0203589
0.085894
0.0856783
0.0854747
0.0852833
0.0851038
0.0849362
0.0847799
0.0846346
0.0844993
0.0843732
0.0842551
0.0841435
0.0840366
0.0839324
0.0838284
0.0837215
0.0836083
0.0834846
0.0833455
0.0831852
0.0829968
0.0827723
0.0825022
0.0821755
0.0817788
0.0812964
0.0807094
0.0799945
0.0791232
0.0780599
0.0767592
0.0751623
0.0731917
0.070742
0.0676655
0.0637423
0.0586157
0.0516079
0.0409898
0.0203452
0.0857731
0.0855672
0.0853732
0.085191
0.0850204
0.0848611
0.0847127
0.0845745
0.0844459
0.084326
0.0842134
0.0841069
0.0840047
0.0839047
0.0838045
0.0837011
0.0835911
0.0834703
0.0833339
0.0831761
0.08299
0.0827676
0.0824996
0.0821747
0.0817798
0.081299
0.0807134
0.0799998
0.0791298
0.0780675
0.0767677
0.0751716
0.0732017
0.0707528
0.0676771
0.0637548
0.0586294
0.0516228
0.0410046
0.0203342
0.0856655
0.0854664
0.0852796
0.0851048
0.0849417
0.0847896
0.0846482
0.0845167
0.0843943
0.0842801
0.0841729
0.0840712
0.0839735
0.0838775
0.083781
0.0836811
0.0835742
0.0834563
0.0833225
0.0831671
0.0829833
0.0827631
0.082497
0.082174
0.0817808
0.0813017
0.0807176
0.0800054
0.0791366
0.0780756
0.0767769
0.0751818
0.073213
0.0707652
0.0676907
0.0637698
0.058646
0.0516412
0.041023
0.0203259
0.0855678
0.0853725
0.0851907
0.0850218
0.0848648
0.0847193
0.0845843
0.084459
0.0843426
0.084234
0.084132
0.0840352
0.0839418
0.08385
0.0837572
0.0836606
0.0835568
0.0834418
0.0833107
0.0831577
0.0829762
0.0827581
0.0824941
0.082173
0.0817816
0.0813041
0.0807217
0.080011
0.0791436
0.0780839
0.0767865
0.0751928
0.0732252
0.0707789
0.0677059
0.0637869
0.0586651
0.0516624
0.0410446
0.0203201
0.0854762
0.0852819
0.0851031
0.0849386
0.0847871
0.0846475
0.0845186
0.0843995
0.084289
0.0841861
0.0840894
0.0839975
0.0839087
0.083821
0.083732
0.0836389
0.0835383
0.0834262
0.0832978
0.0831474
0.0829682
0.0827524
0.0824904
0.0821713
0.0817817
0.0813061
0.0807253
0.0800162
0.0791504
0.0780922
0.0767962
0.075204
0.073238
0.0707934
0.0677223
0.0638054
0.058686
0.0516857
0.0410685
0.0203168
0.0853868
0.0851908
0.0850135
0.0848525
0.0847059
0.084572
0.0844493
0.0843363
0.084232
0.0841348
0.0840437
0.0839569
0.0838728
0.0837895
0.0837045
0.0836151
0.0835179
0.0834089
0.0832833
0.0831355
0.0829588
0.0827453
0.0824855
0.0821684
0.0817808
0.081307
0.0807279
0.0800206
0.0791564
0.0780999
0.0768056
0.075215
0.0732508
0.070808
0.0677391
0.0638245
0.0587079
0.0517103
0.0410937
0.0203153
0.0852957
0.0850962
0.0849193
0.0847614
0.0846195
0.0844914
0.084375
0.0842685
0.0841705
0.0840796
0.0839942
0.0839129
0.0838338
0.0837551
0.0836743
0.0835888
0.0834951
0.0833894
0.0832668
0.0831218
0.0829476
0.0827365
0.0824789
0.0821639
0.0817783
0.0813064
0.0807292
0.0800237
0.0791613
0.0781064
0.0768139
0.0752251
0.0732627
0.070822
0.0677553
0.0638432
0.0587294
0.0517346
0.0411188
0.020315
0.0852012
0.0849973
0.0848204
0.0846655
0.0845286
0.0844065
0.0842967
0.0841969
0.0841056
0.084021
0.0839417
0.0838659
0.0837921
0.0837181
0.0836418
0.0835602
0.0834702
0.0833678
0.0832483
0.0831061
0.0829346
0.0827258
0.0824705
0.0821577
0.0817741
0.0813041
0.0807288
0.080025
0.0791643
0.0781112
0.0768204
0.0752335
0.073273
0.0708343
0.0677697
0.06386
0.0587487
0.0517565
0.0411413
0.0203147
0.0851054
0.0848976
0.0847212
0.0845696
0.0844378
0.0843218
0.0842186
0.0841256
0.0840408
0.0839625
0.0838891
0.0838189
0.0837501
0.0836808
0.0836087
0.0835311
0.0834446
0.0833455
0.0832289
0.0830895
0.0829204
0.082714
0.0824609
0.08215
0.0817683
0.0813001
0.0807265
0.0800244
0.0791654
0.0781139
0.0768248
0.0752395
0.0732808
0.0708438
0.067781
0.0638732
0.0587637
0.051773
0.0411575
0.0203121
0.0850176
0.0848075
0.0846324
0.0844844
0.0843576
0.0842472
0.0841499
0.0840628
0.0839838
0.083911
0.0838427
0.0837773
0.0837129
0.0836477
0.0835793
0.083505
0.0834216
0.0833252
0.0832112
0.0830741
0.0829071
0.0827027
0.0824513
0.0821421
0.081762
0.0812952
0.080723
0.0800223
0.0791646
0.0781145
0.0768267
0.0752428
0.0732855
0.0708499
0.0677884
0.0638815
0.0587722
0.0517804
0.0411606
0.0203045
0.0849573
0.0847469
0.0845734
0.0844282
0.0843048
0.0841983
0.0841048
0.0840216
0.0839463
0.083877
0.083812
0.0837497
0.0836881
0.0836255
0.0835594
0.0834873
0.0834059
0.0833113
0.0831989
0.0830633
0.0828977
0.0826944
0.0824442
0.0821361
0.0817569
0.0812911
0.0807197
0.0800198
0.0791629
0.0781136
0.0768266
0.0752436
0.0732871
0.0708522
0.0677913
0.0638845
0.0587744
0.0517792
0.041151
0.0202827
)
;

boundaryField
{
    leftWall
    {
        type            kqRWallFunction;
        value           nonuniform 0();
    }
    rightWall
    {
        type            kqRWallFunction;
        value           nonuniform List<scalar> 
43
(
0.0215036
0.0214695
0.0214326
0.0213932
0.0213514
0.0213077
0.0212623
0.0212154
0.0211671
0.0211171
0.0210672
0.0210199
0.0209758
0.0209344
0.020895
0.0208557
0.0208164
0.0207772
0.0207384
0.0207002
0.0206627
0.0206263
0.020591
0.0205572
0.020525
0.0204947
0.0204662
0.02044
0.020416
0.0203944
0.0203753
0.0203589
0.0203452
0.0203342
0.0203259
0.0203201
0.0203168
0.0203153
0.020315
0.0203147
0.0203121
0.0203045
0.0202827
)
;
    }
    lowerWall
    {
        type            kqRWallFunction;
        value           nonuniform 0();
    }
    atmosphere
    {
        type            inletOutlet;
        inletValue      uniform 0.1;
        value           nonuniform List<scalar> 
45
(
0.0867965
0.0862538
0.0858287
0.085484
0.0852024
0.0849573
0.0847469
0.0845734
0.0844282
0.0843048
0.0841983
0.0841048
0.0840216
0.0839463
0.083877
0.083812
0.0837497
0.0836881
0.0836255
0.0835594
0.0834873
0.0834059
0.0833113
0.0831989
0.0830633
0.0828977
0.0826944
0.0824442
0.0821361
0.0817569
0.0812911
0.0807197
0.0800198
0.0791629
0.0781136
0.0768266
0.0752436
0.0732871
0.0708522
0.0677913
0.0638845
0.0587744
0.0517792
0.041151
0.0202827
)
;
    }
    defaultFaces
    {
        type            empty;
    }
    procBoundary3to1
    {
        type            processor;
        value           nonuniform List<scalar> 
45
(
0.12272
0.119704
0.116904
0.114238
0.111721
0.10923
0.106806
0.104569
0.102506
0.100606
0.0988586
0.097256
0.0957891
0.0944494
0.0932288
0.0921191
0.0911124
0.0902006
0.0893753
0.0886278
0.087949
0.0873293
0.0867587
0.0862267
0.0857222
0.0852338
0.0847491
0.0842551
0.0837377
0.0831814
0.0825686
0.0818791
0.0810891
0.0801697
0.0790849
0.0777895
0.0762245
0.0743118
0.0719451
0.0689737
0.0651731
0.0601767
0.0532822
0.0426775
0.0215352
)
;
    }
    procBoundary3to2
    {
        type            processor;
        value           nonuniform List<scalar> 
43
(
0.124006
0.122109
0.120289
0.118539
0.116853
0.115223
0.11364
0.112096
0.110584
0.109095
0.107624
0.106168
0.104725
0.103298
0.101891
0.100511
0.0991679
0.0978707
0.0966301
0.0954558
0.0943561
0.0933374
0.0924036
0.0915563
0.0907948
0.0901165
0.0895173
0.0889923
0.0885361
0.0881432
0.0878087
0.0875286
0.0872997
0.0871204
0.08699
0.0869094
0.0868803
0.0869044
0.086982
0.0871075
0.0872641
0.0874147
0.0875023
)
;
    }
}


// ************************************************************************* //
