/*--------------------------------*- C++ -*----------------------------------*\
| =========                 |                                                 |
| \\      /  F ield         | OpenFOAM: The Open Source CFD Toolbox           |
|  \\    /   O peration     | Version:  5.0                                   |
|   \\  /    A nd           | Web:      www.OpenFOAM.org                      |
|    \\/     M anipulation  |                                                 |
\*---------------------------------------------------------------------------*/
FoamFile
{
    version     2.0;
    format      ascii;
    class       volScalarField;
    location    "0.2";
    object      nut;
}
// * * * * * * * * * * * * * * * * * * * * * * * * * * * * * * * * * * * * * //

dimensions      [0 2 -1 0 0 0 0];

internalField   nonuniform List<scalar> 
1935
(
0.0109016
0.0108667
0.0108189
0.0107617
0.0106979
0.0106295
0.0105581
0.0104849
0.0104104
0.0103353
0.0102599
0.0101844
0.010109
0.010034
0.00995961
0.0098861
0.00981387
0.00974336
0.00967504
0.00960942
0.009547
0.00948822
0.00943348
0.00938305
0.00933712
0.00929575
0.00925888
0.0092264
0.00919812
0.00917379
0.00915318
0.00913604
0.00912212
0.00911117
0.00910292
0.009097
0.00909294
0.00909012
0.00908779
0.0090852
0.00908186
0.00907805
0.00907506
0.0107503
0.010607
0.0104699
0.0103408
0.0107135
0.0105689
0.010431
0.0103014
0.0106643
0.0105192
0.0103815
0.0102525
0.0106065
0.0104618
0.0103251
0.0101976
0.0105429
0.0103995
0.0102646
0.0101394
0.0104758
0.0103343
0.010202
0.0100796
0.0104065
0.0102677
0.0101386
0.0100196
0.0103361
0.0102008
0.0100754
0.00996026
0.0102654
0.0101341
0.0100129
0.00990199
0.0101948
0.010068
0.00995149
0.00984511
0.0101245
0.0100028
0.00989128
0.00978971
0.0100547
0.00993859
0.00983236
0.00973584
0.00998565
0.00987539
0.00977477
0.00968349
0.00991735
0.00981331
0.00971852
0.00963266
0.00985001
0.00975246
0.0096637
0.00958336
0.00978387
0.009693
0.00961038
0.00953564
0.0097192
0.00963512
0.00955871
0.00948959
0.00965634
0.00957908
0.00950888
0.00944535
0.00959566
0.00952518
0.0094611
0.00940305
0.00953755
0.00947371
0.00941559
0.00936287
0.00948241
0.00942496
0.00937258
0.00932496
0.00943058
0.00937921
0.00933226
0.00928946
0.00938236
0.00933667
0.00929479
0.00925649
0.00933794
0.00929749
0.00926028
0.00922612
0.00929746
0.00926176
0.00922877
0.00919836
0.00926095
0.00922948
0.00920027
0.00917321
0.00922835
0.0092006
0.0091747
0.00915059
0.00919954
0.009175
0.00915198
0.00913043
0.00917436
0.00915253
0.00913195
0.00911259
0.00915259
0.00913302
0.00911448
0.00909695
0.00913404
0.00911628
0.00909938
0.00908334
0.00911847
0.00910211
0.00908649
0.00907163
0.00910567
0.00909032
0.00907563
0.00906164
0.00909542
0.0090807
0.00906662
0.00905319
0.00908748
0.00907304
0.00905924
0.00904612
0.00908153
0.00906707
0.00905327
0.00904019
0.00907719
0.00906246
0.00904843
0.00903518
0.00907396
0.00905881
0.0090444
0.00903083
0.00907127
0.0090557
0.00904086
0.00902691
0.00906858
0.00905274
0.00903755
0.00902327
0.00906558
0.00904975
0.00903441
0.00901992
0.0090625
0.00904696
0.00903168
0.00901714
0.00906025
0.00904507
0.00902994
0.00901544
0.0102135
0.0100906
0.00997851
0.00987625
0.00978289
0.00969751
0.00961924
0.00954732
0.009481
0.00941963
0.00936254
0.00930905
0.00925844
0.00920985
0.00916229
0.00911452
0.00906504
0.00901204
0.00895329
0.00888615
0.00880752
0.00871382
0.008601
0.00846461
0.00829987
0.00810181
0.00786543
0.00758593
0.00725893
0.00688074
0.00644852
0.00596047
0.00541576
0.00481439
0.00415658
0.00344179
0.00266697
0.00182483
0.000911931
0.000109801
0.0101739
0.0100508
0.00993876
0.00983691
0.00974432
0.00966006
0.00958324
0.00951304
0.00944867
0.0093894
0.00933451
0.00928324
0.00923481
0.00918831
0.00914269
0.00909668
0.00904876
0.00899708
0.0089394
0.00887309
0.00879503
0.00870166
0.00858895
0.00845248
0.00828749
0.00808905
0.00785222
0.00757224
0.0072448
0.00686628
0.0064339
0.00594592
0.00540159
0.00480095
0.00414428
0.00343107
0.00265835
0.00181885
0.000909113
0.000109714
0.010126
0.0100041
0.00989342
0.00979313
0.00970235
0.00962011
0.0095455
0.00947765
0.00941572
0.00935892
0.00930648
0.00925761
0.00921146
0.0091671
0.00912343
0.00907917
0.00903277
0.00898237
0.00892572
0.00886019
0.00878268
0.00868961
0.00857699
0.00844041
0.00827515
0.00807633
0.00783903
0.00755857
0.0072307
0.00685185
0.00641932
0.00593142
0.00538747
0.00478756
0.00413203
0.00342041
0.00264979
0.00181294
0.000906344
0.000109619
0.010073
0.00995335
0.00984506
0.00974724
0.00965896
0.00957935
0.00950743
0.00944229
0.00938307
0.00932893
0.00927906
0.00923263
0.00918878
0.00914653
0.00910477
0.0090622
0.00901726
0.00896808
0.00891241
0.00884761
0.00877058
0.00867778
0.00856522
0.0084285
0.00826296
0.00806373
0.00782597
0.00754503
0.00721672
0.00683754
0.00640485
0.00591704
0.00537347
0.00477429
0.0041199
0.00340986
0.00264132
0.0018071
0.000903633
0.000109517
0.0100174
0.0099007
0.00979546
0.00970073
0.00961554
0.00953893
0.00946997
0.00940775
0.00935135
0.00929993
0.00925264
0.00920863
0.00916702
0.00912681
0.00908688
0.00904593
0.00900237
0.00895432
0.00889956
0.00883543
0.00875885
0.00866627
0.00855372
0.00841686
0.00825101
0.00805136
0.00781312
0.00753169
0.00720294
0.00682343
0.00639059
0.00590285
0.00535966
0.0047612
0.00410793
0.00339946
0.00263298
0.00180137
0.000900989
0.00010941
0.00996085
0.00984769
0.00974595
0.00965468
0.00957289
0.00949958
0.00943376
0.00937451
0.00932096
0.00927223
0.00922747
0.0091858
0.00914634
0.00910807
0.00906988
0.00903044
0.00898816
0.00894118
0.00888725
0.00882373
0.00874754
0.00865514
0.00854258
0.00840553
0.00823936
0.00803928
0.00780055
0.00751862
0.00718943
0.00680958
0.00637658
0.00588891
0.00534608
0.00474834
0.00409617
0.00338925
0.00262481
0.00179576
0.000898423
0.000109296
0.00990457
0.00979531
0.00969739
0.00960983
0.0095316
0.00946168
0.00939909
0.00934287
0.00929213
0.00924602
0.00920368
0.00916425
0.00912682
0.00909039
0.00905382
0.00901578
0.0089747
0.0089287
0.00887553
0.00881256
0.0087367
0.00864444
0.00853184
0.00839458
0.00822806
0.00802755
0.00778831
0.00750588
0.00717624
0.00679605
0.00636288
0.00587528
0.0053328
0.00473576
0.00408467
0.00337927
0.00261682
0.00179031
0.000895945
0.000109178
0.00984928
0.00974422
0.00965034
0.00956662
0.00949202
0.00942552
0.00936613
0.0093129
0.00926492
0.00922135
0.00918133
0.00914401
0.00910849
0.00907377
0.00903871
0.00900198
0.008962
0.00891689
0.00886442
0.00880193
0.00872636
0.0086342
0.00852152
0.00838403
0.00821716
0.00801619
0.00777645
0.00749351
0.00716341
0.00678288
0.00634953
0.00586199
0.00531986
0.00472349
0.00407346
0.00336954
0.00260905
0.00178502
0.000893562
0.000109056
0.0097954
0.00969476
0.00960506
0.00952526
0.00945433
0.00939123
0.00933498
0.00928464
0.00923933
0.00919819
0.00916039
0.00912508
0.00909135
0.00905822
0.00902455
0.00898903
0.00895006
0.00890577
0.00885391
0.00879186
0.00871653
0.00862444
0.00851166
0.00837392
0.00820667
0.00800524
0.00776499
0.00748154
0.00715098
0.0067701
0.00633657
0.00584908
0.00530727
0.00471155
0.00406255
0.00336007
0.0026015
0.00177989
0.000891273
0.00010893
0.00974314
0.00964709
0.00956167
0.00948584
0.00941856
0.00935881
0.00930563
0.00925809
0.00921533
0.00917651
0.0091408
0.00910737
0.00907533
0.00904369
0.00901132
0.00897691
0.00893886
0.00889531
0.00884402
0.00878234
0.00870721
0.00861515
0.00850224
0.00836424
0.00819661
0.00799471
0.00775395
0.00746999
0.00713897
0.00675773
0.00632402
0.00583656
0.00529505
0.00469996
0.00405194
0.00335086
0.00259414
0.00177488
0.000889043
0.0001088
0.00969257
0.00960126
0.00952019
0.00944834
0.00938468
0.00932822
0.00927802
0.00923319
0.00919286
0.00915624
0.00912251
0.00909085
0.00906038
0.00903013
0.00899897
0.00896558
0.00892839
0.00888551
0.00883471
0.00877336
0.0086984
0.00860633
0.00849328
0.00835499
0.00818697
0.0079846
0.00774333
0.00745885
0.00712738
0.00674579
0.00631188
0.00582444
0.00528322
0.00468872
0.00404164
0.00334189
0.00258693
0.0017699
0.00088675
0.000108667
0.00964369
0.00955721
0.00948054
0.00941268
0.00935261
0.00929938
0.00925208
0.00920985
0.00917186
0.00913732
0.00910546
0.00907546
0.00904646
0.00901749
0.00898744
0.008955
0.00891859
0.00887633
0.00882598
0.00876491
0.00869007
0.00859798
0.00848476
0.00834618
0.00817775
0.00797491
0.00773313
0.00744815
0.00711621
0.00673427
0.00630017
0.00581273
0.00527177
0.00467783
0.00403164
0.00333314
0.00257984
0.00176492
0.000884352
0.000108538
0.00959648
0.00951491
0.00944267
0.00937877
0.00932225
0.00927219
0.00922771
0.00918798
0.00915222
0.00911967
0.00908957
0.00906113
0.00903351
0.00900574
0.00897672
0.00894514
0.00890944
0.00886773
0.00881778
0.00875697
0.00868223
0.0085901
0.00847669
0.00833779
0.00816897
0.00796565
0.00772336
0.00743787
0.00710549
0.00672319
0.00628889
0.00580145
0.00526073
0.00466731
0.00402195
0.00332464
0.00257291
0.00175999
0.000881915
0.000108415
0.00955088
0.00947429
0.00940648
0.00934653
0.00929351
0.00924654
0.00920479
0.00916749
0.00913387
0.00910321
0.00907478
0.00904781
0.00902147
0.00899482
0.00896676
0.00893599
0.00890093
0.00885972
0.00881013
0.00874952
0.00867485
0.00858265
0.00846905
0.00832985
0.00816063
0.00795684
0.00771404
0.00742806
0.00709522
0.00671259
0.00627808
0.00579063
0.00525013
0.0046572
0.00401264
0.00331645
0.00256621
0.0017552
0.000879517
0.000108299
0.00950689
0.0094353
0.00937192
0.00931588
0.0092663
0.00922235
0.00918326
0.00914828
0.00911671
0.00908786
0.00906101
0.00903543
0.00901031
0.0089847
0.00895754
0.0089275
0.00889305
0.0088523
0.00880302
0.00874259
0.00866795
0.00857566
0.00846185
0.00832234
0.00815272
0.00794847
0.00770519
0.00741873
0.00708547
0.00670249
0.00626778
0.00578032
0.00524002
0.00464756
0.00400375
0.00330863
0.0025598
0.00175063
0.000877243
0.000108194
0.00946452
0.00939792
0.00933894
0.00928676
0.00924055
0.00919954
0.00916302
0.00913029
0.00910069
0.00907355
0.00904821
0.00902394
0.00899995
0.00897533
0.008949
0.00891967
0.00888577
0.00884544
0.00879645
0.00873617
0.00866156
0.00856917
0.00845515
0.00831532
0.0081453
0.00794061
0.00769684
0.00740991
0.00707623
0.00669293
0.00625803
0.00577055
0.00523046
0.00463844
0.00399535
0.00330125
0.00255378
0.00174637
0.000875193
0.000108091
0.00942381
0.00936216
0.00930753
0.00925912
0.0092162
0.00917806
0.00914402
0.00911345
0.00908572
0.00906022
0.0090363
0.00901328
0.00899037
0.00896668
0.00894113
0.00891244
0.00887906
0.00883913
0.0087904
0.00873026
0.00865568
0.00856319
0.00844896
0.00830883
0.00813843
0.0079333
0.00768908
0.0074017
0.00706762
0.006684
0.00624892
0.00576142
0.00522152
0.00462991
0.0039875
0.00329437
0.00254819
0.00174244
0.00087334
0.000107988
0.00938483
0.00932806
0.00927767
0.00923295
0.00919323
0.00915784
0.0091262
0.0090977
0.00907176
0.00904782
0.00902526
0.00900341
0.00898151
0.00895869
0.00893388
0.0089058
0.00887291
0.00883334
0.00878486
0.00872486
0.00865029
0.00855771
0.00844329
0.00830288
0.00813212
0.00792659
0.00768193
0.00739413
0.00705967
0.00667576
0.0062405
0.00575299
0.00521325
0.00462204
0.00398026
0.00328802
0.00254305
0.00173886
0.000871685
0.000107886
0.00934769
0.00929567
0.0092494
0.00920825
0.0091716
0.00913887
0.00910951
0.00908298
0.00905876
0.0090363
0.00901501
0.00899427
0.00897334
0.00895133
0.00892722
0.00889971
0.00886728
0.00882806
0.00877982
0.00871995
0.0086454
0.00855274
0.00843814
0.00829748
0.00812639
0.00792048
0.00767543
0.00738723
0.00705242
0.00666824
0.00623282
0.00574529
0.00520571
0.00461485
0.00397365
0.00328225
0.00253839
0.00173564
0.000870231
0.000107784
0.0093125
0.00926505
0.00922274
0.00918501
0.0091513
0.0091211
0.00909392
0.00906927
0.00904667
0.00902561
0.00900554
0.00898584
0.00896581
0.00894458
0.00892111
0.00889415
0.00886216
0.00882327
0.00877526
0.00871552
0.008641
0.00854828
0.00843353
0.00829263
0.00812125
0.00791499
0.00766958
0.00738103
0.0070459
0.00666146
0.0062259
0.00573835
0.00519891
0.00460837
0.00396771
0.00327706
0.00253423
0.00173279
0.000868981
0.000107684
0.00927936
0.00923627
0.00919773
0.00916324
0.00913232
0.00910452
0.00907941
0.00905653
0.00903545
0.00901571
0.00899678
0.00897807
0.00895889
0.00893839
0.00891554
0.0088891
0.00885752
0.00881895
0.00877116
0.00871155
0.00863708
0.00854431
0.00842943
0.00828833
0.0081167
0.00791014
0.00766441
0.00737554
0.00704012
0.00665546
0.00621976
0.00573219
0.00519288
0.00460264
0.00396245
0.00327249
0.00253058
0.00173033
0.000867936
0.000107586
0.00924836
0.00920939
0.00917439
0.00914295
0.00911466
0.00908911
0.00906593
0.00904472
0.00902508
0.00900657
0.00898871
0.00897093
0.00895254
0.00893273
0.00891047
0.00888451
0.00885333
0.00881507
0.00876751
0.00870803
0.00863362
0.00854083
0.00842585
0.00828459
0.00811274
0.00790593
0.00765991
0.00737077
0.00703511
0.00665025
0.00621442
0.00572684
0.00518764
0.00459765
0.00395789
0.00326854
0.00252744
0.00172825
0.000867096
0.00010749
0.00921957
0.00918443
0.00915274
0.00912414
0.00909828
0.00907484
0.00905346
0.0090338
0.0090155
0.00899815
0.0089813
0.00896438
0.00894674
0.00892757
0.00890586
0.00888037
0.00884957
0.00881161
0.00876428
0.00870495
0.00863061
0.00853782
0.00842278
0.0082814
0.00810937
0.00790235
0.00765611
0.00736673
0.00703085
0.00664583
0.0062099
0.00572231
0.0051832
0.00459344
0.00395404
0.00326522
0.00252484
0.00172655
0.00086646
0.000107398
0.00919305
0.00916142
0.00913277
0.00910678
0.00908319
0.00906168
0.00904197
0.00902375
0.0090067
0.00899042
0.0089745
0.00895839
0.00894146
0.00892289
0.0089017
0.00887665
0.00884622
0.00880856
0.00876145
0.00870229
0.00862804
0.00853528
0.00842022
0.00827875
0.00810659
0.00789941
0.00765298
0.00736342
0.00702737
0.00664221
0.0062062
0.00571859
0.00517957
0.00458999
0.0039509
0.00326253
0.00252276
0.00172525
0.000866026
0.000107309
0.00916878
0.00914035
0.00911446
0.00909087
0.00906933
0.0090496
0.00903142
0.00901453
0.00899862
0.00898334
0.00896828
0.00895293
0.00893665
0.00891865
0.00889796
0.00887333
0.00884325
0.00880588
0.00875901
0.00870002
0.00862589
0.00853319
0.00841814
0.00827663
0.00810439
0.00789709
0.00765053
0.00736083
0.00702465
0.00663938
0.00620331
0.0057157
0.00517675
0.00458732
0.00394849
0.00326048
0.0025212
0.00172432
0.00086579
0.000107225
0.00914676
0.0091212
0.00909779
0.00907635
0.00905668
0.00903856
0.00902178
0.0090061
0.00899124
0.00897688
0.00896261
0.00894796
0.00893229
0.00891483
0.0088946
0.00887037
0.00884064
0.00880357
0.00875694
0.00869814
0.00862415
0.00853154
0.00841653
0.00827503
0.00810276
0.0078954
0.00764875
0.00735896
0.00702269
0.00663735
0.00620124
0.00571363
0.00517473
0.00458542
0.00394678
0.00325906
0.00252017
0.00172378
0.000865749
0.000107145
0.00912691
0.00910389
0.0090827
0.00906318
0.00904518
0.00902851
0.009013
0.00899841
0.00898451
0.00897099
0.00895746
0.00894345
0.00892835
0.00891139
0.0088916
0.00886776
0.00883837
0.00880159
0.00875521
0.00869661
0.00862279
0.00853031
0.00841538
0.00827393
0.00810168
0.00789431
0.00764764
0.0073578
0.00702149
0.00663611
0.00619998
0.00571237
0.00517351
0.00458429
0.00394578
0.00325827
0.00251965
0.00172361
0.000865897
0.000107071
0.00910915
0.00908835
0.00906911
0.00905129
0.00903477
0.0090194
0.00900502
0.00899143
0.0089784
0.00896564
0.00895278
0.00893937
0.0089248
0.00890831
0.00888894
0.00886547
0.00883642
0.00879993
0.0087538
0.00869543
0.0086218
0.00852947
0.00841467
0.00827332
0.00810113
0.00789381
0.00764716
0.00735733
0.00702102
0.00663563
0.0061995
0.0057119
0.00517307
0.0045839
0.00394548
0.00325808
0.00251963
0.0017238
0.000866228
0.000107002
0.00909338
0.0090745
0.00905695
0.00904061
0.0090254
0.00901117
0.0089978
0.00898509
0.00897285
0.00896078
0.00894854
0.00893568
0.0089216
0.00890555
0.00888658
0.00886348
0.00883474
0.00879855
0.0087527
0.00869457
0.00862115
0.00852902
0.00841439
0.00827317
0.00810111
0.00789388
0.0076473
0.00735754
0.00702126
0.00663591
0.0061998
0.00571222
0.00517339
0.00458424
0.00394585
0.0032585
0.00252011
0.00172434
0.000866735
0.000106939
0.00907947
0.00906222
0.00904611
0.00903105
0.00901697
0.00900375
0.00899127
0.00897935
0.00896781
0.00895637
0.0089447
0.00893234
0.00891872
0.00890309
0.00888449
0.00886174
0.00883333
0.00879744
0.00875187
0.008694
0.00862083
0.00852892
0.0084145
0.00827347
0.00810158
0.0078945
0.00764805
0.00735839
0.0070222
0.00663691
0.00620084
0.00571329
0.00517447
0.0045853
0.00394688
0.0032595
0.00252106
0.00172523
0.00086741
0.000106883
0.0090673
0.0090514
0.00903649
0.00902252
0.00900941
0.00899706
0.00898536
0.00897415
0.00896323
0.00895236
0.0089412
0.00892931
0.00891611
0.00890088
0.00888265
0.00886024
0.00883215
0.00879657
0.00875129
0.00869371
0.0086208
0.00852916
0.00841498
0.00827419
0.00810252
0.00789564
0.00764937
0.00735987
0.00702381
0.00663862
0.00620261
0.00571508
0.00517626
0.00458705
0.00394855
0.00326105
0.00252248
0.00172644
0.000868244
0.000106834
0.00905671
0.00904191
0.00902799
0.00901492
0.00900262
0.00899102
0.00897999
0.0089694
0.00895905
0.00894869
0.008938
0.00892654
0.00891375
0.00889888
0.00888101
0.00885893
0.00883117
0.0087959
0.00875093
0.00869365
0.00862105
0.0085297
0.00841581
0.0082753
0.0081039
0.00789727
0.00765124
0.00736193
0.00702605
0.00664099
0.00620507
0.00571757
0.00517873
0.00458945
0.00395082
0.00326314
0.00252432
0.00172796
0.000869227
0.000106791
0.00904758
0.0090336
0.00902047
0.00900812
0.0089965
0.00898553
0.00897509
0.00896504
0.00895519
0.0089453
0.00893504
0.00892398
0.00891156
0.00889706
0.00887953
0.00885779
0.00883035
0.00879541
0.00875076
0.00869381
0.00862153
0.00853051
0.00841695
0.00827677
0.00810568
0.00789936
0.0076536
0.00736455
0.00702887
0.00664398
0.00620817
0.00572072
0.00518185
0.00459247
0.00395366
0.00326573
0.00252658
0.00172976
0.000870346
0.000106756
0.00903972
0.00902635
0.00901379
0.00900201
0.00899094
0.00898049
0.00897055
0.00896097
0.00895157
0.0089421
0.00893224
0.00892157
0.00890951
0.00889536
0.00887816
0.00885676
0.00882966
0.00879505
0.00875074
0.00869413
0.00862221
0.00853155
0.00841836
0.00827855
0.00810782
0.00790185
0.00765642
0.00736766
0.00703224
0.00664754
0.00621186
0.00572446
0.00518556
0.00459606
0.00395703
0.00326878
0.00252921
0.00173183
0.000871587
0.000106728
0.00903297
0.00901997
0.00900782
0.00899645
0.0089858
0.00897578
0.00896626
0.00895711
0.00894811
0.00893904
0.00892956
0.00891924
0.00890754
0.00889372
0.00887687
0.0088558
0.00882903
0.00879477
0.00875082
0.00869458
0.00862304
0.00853278
0.00841999
0.00828058
0.00811026
0.00790468
0.00765963
0.00737121
0.00703608
0.0066516
0.00621607
0.00572874
0.0051898
0.00460015
0.00396087
0.00327225
0.00253217
0.00173413
0.000872932
0.000106707
0.00902715
0.00901432
0.00900239
0.0089913
0.00898097
0.0089713
0.00896215
0.00895336
0.00894474
0.00893603
0.00892691
0.00891694
0.00890558
0.00889211
0.00887559
0.00885486
0.00882844
0.00879454
0.00875096
0.00869511
0.00862398
0.00853413
0.00842178
0.00828282
0.00811294
0.0079078
0.00766316
0.00737511
0.0070403
0.00665609
0.00622073
0.00573347
0.00519449
0.00460468
0.00396511
0.00327606
0.00253541
0.00173662
0.00087436
0.000106693
0.00902204
0.0090092
0.00899736
0.00898644
0.00897634
0.00896694
0.00895811
0.00894965
0.00894138
0.00893302
0.00892424
0.00891462
0.0089036
0.00889046
0.00887429
0.0088539
0.00882784
0.00879431
0.00875111
0.00869566
0.00862495
0.00853556
0.00842367
0.00828517
0.00811577
0.00791109
0.0076669
0.00737927
0.00704481
0.00666088
0.00622571
0.00573853
0.00519951
0.00460952
0.00396964
0.00328013
0.00253886
0.00173924
0.00087584
0.000106685
0.00901744
0.00900447
0.0089926
0.00898176
0.00897183
0.00896266
0.0089541
0.00894595
0.008938
0.00892997
0.00892153
0.00891225
0.00890157
0.00888877
0.00887294
0.0088529
0.00882719
0.00879403
0.00875122
0.00869619
0.00862592
0.00853698
0.00842556
0.00828756
0.00811865
0.00791446
0.00767074
0.00738354
0.00704946
0.00666583
0.00623087
0.00574378
0.00520472
0.00461455
0.00397433
0.00328433
0.0025424
0.00174192
0.000877328
0.000106682
0.00901321
0.00900002
0.00898807
0.00897725
0.00896743
0.00895846
0.00895014
0.00894227
0.00893463
0.00892692
0.00891881
0.00890986
0.00889951
0.00888704
0.00887154
0.00885184
0.00882649
0.00879369
0.00875127
0.00869665
0.00862681
0.00853832
0.00842738
0.00828987
0.00812146
0.00791777
0.00767452
0.00738776
0.00705407
0.00667075
0.006236
0.00574902
0.00520992
0.00461957
0.00397902
0.00328852
0.00254591
0.00174455
0.000878761
0.000106683
0.00900926
0.00899586
0.0089838
0.00897298
0.00896325
0.00895445
0.00894635
0.00893874
0.00893138
0.00892398
0.00891617
0.00890753
0.00889748
0.00888533
0.00887014
0.00885077
0.00882575
0.0087933
0.00875124
0.008697
0.00862757
0.00853952
0.00842903
0.00829199
0.00812406
0.00792084
0.00767806
0.00739173
0.00705842
0.00667541
0.00624088
0.00575399
0.00521487
0.00462435
0.00398345
0.00329245
0.00254918
0.00174695
0.000880038
0.000106683
0.0090057
0.00899213
0.00897999
0.00896918
0.00895953
0.00895087
0.00894297
0.00893559
0.00892848
0.00892133
0.00891379
0.00890542
0.00889565
0.00888377
0.00886886
0.00884976
0.00882504
0.00879289
0.00875115
0.00869725
0.00862818
0.0085405
0.00843042
0.00829379
0.00812628
0.00792349
0.00768112
0.00739518
0.00706222
0.0066795
0.00624517
0.00575839
0.00521924
0.00462855
0.00398734
0.00329586
0.00255194
0.0017489
0.000881011
0.000106677
0.00900283
0.00898918
0.008977
0.00896621
0.00895664
0.00894809
0.00894034
0.00893314
0.00892622
0.00891927
0.00891194
0.00890378
0.00889421
0.00888254
0.00886784
0.00884896
0.00882446
0.00879254
0.00875105
0.00869741
0.00862861
0.00854122
0.00843144
0.00829514
0.00812796
0.00792551
0.00768346
0.00739783
0.00706515
0.00668266
0.00624851
0.00576181
0.00522265
0.00463182
0.00399033
0.00329839
0.00255383
0.00174999
0.00088128
0.000106657
0.00900112
0.00898746
0.00897529
0.00896452
0.008955
0.00894652
0.00893886
0.00893176
0.00892494
0.00891811
0.00891089
0.00890284
0.00889339
0.00888184
0.00886726
0.0088485
0.00882412
0.00879233
0.00875098
0.00869748
0.00862883
0.00854161
0.00843201
0.00829589
0.0081289
0.00792664
0.00768478
0.00739934
0.00706682
0.00668448
0.00625043
0.0057638
0.00522464
0.00463373
0.00399206
0.00329981
0.00255479
0.00175032
0.000881002
0.000106597
)
;

boundaryField
{
    leftWall
    {
        type            nutkWallFunction;
        Cmu             0.09;
        kappa           0.41;
        E               9.8;
        value           nonuniform 0();
    }
    rightWall
    {
        type            nutkWallFunction;
        Cmu             0.09;
        kappa           0.41;
        E               9.8;
        value           nonuniform List<scalar> 
43
(
6.48571e-06
6.47207e-06
6.45734e-06
6.44155e-06
6.42481e-06
6.40725e-06
6.38901e-06
6.37015e-06
6.35069e-06
6.33052e-06
6.31037e-06
6.29125e-06
6.27338e-06
6.2566e-06
6.2406e-06
6.22464e-06
6.20865e-06
6.1927e-06
6.17688e-06
6.16128e-06
6.14598e-06
6.13108e-06
6.11666e-06
6.10281e-06
6.08961e-06
6.07714e-06
6.06546e-06
6.05466e-06
6.04479e-06
6.03591e-06
6.02807e-06
6.0213e-06
6.01565e-06
6.01111e-06
6.00767e-06
6.00531e-06
6.00391e-06
6.0033e-06
6.00318e-06
6.00304e-06
6.00199e-06
5.99886e-06
5.98984e-06
)
;
    }
    lowerWall
    {
        type            nutkWallFunction;
        Cmu             0.09;
        kappa           0.41;
        E               9.8;
        value           nonuniform 0();
    }
    atmosphere
    {
        type            calculated;
        value           nonuniform List<scalar> 
45
(
0.00907506
0.00906025
0.00904507
0.00902994
0.00901544
0.00900112
0.00898746
0.00897529
0.00896452
0.008955
0.00894652
0.00893886
0.00893176
0.00892494
0.00891811
0.00891089
0.00890284
0.00889339
0.00888184
0.00886726
0.0088485
0.00882412
0.00879233
0.00875098
0.00869748
0.00862883
0.00854161
0.00843201
0.00829589
0.0081289
0.00792664
0.00768478
0.00739934
0.00706682
0.00668448
0.00625043
0.0057638
0.00522464
0.00463373
0.00399206
0.00329981
0.00255479
0.00175032
0.000881002
0.000106597
)
;
    }
    defaultFaces
    {
        type            empty;
    }
    procBoundary3to1
    {
        type            processor;
        value           nonuniform List<scalar> 
45
(
0.0109175
0.0107692
0.0106282
0.0104931
0.0103658
0.0102405
0.0101195
0.0100089
0.00990784
0.0098152
0.00973004
0.0096515
0.00957883
0.00951136
0.0094485
0.00938969
0.00933433
0.00928178
0.00923127
0.00918185
0.00913237
0.00908136
0.00902703
0.0089672
0.00889921
0.00881999
0.00872593
0.00861298
0.00847667
0.00831218
0.00811449
0.00787856
0.00759954
0.00727299
0.00689514
0.0064631
0.00597497
0.00542991
0.00482782
0.00416889
0.00345252
0.00267563
0.00183085
0.000914789
0.000109882
)
;
    }
    procBoundary3to2
    {
        type            processor;
        value           nonuniform List<scalar> 
43
(
0.0110553
0.0110242
0.0109795
0.0109245
0.0108619
0.0107938
0.0107214
0.0106461
0.0105686
0.0104895
0.0104091
0.0103279
0.0102461
0.010164
0.010082
0.0100005
0.00991998
0.00984099
0.00976414
0.00969007
0.00961941
0.00955275
0.00949058
0.00943329
0.00938112
0.00933417
0.00929243
0.00925576
0.00922393
0.0091967
0.00917377
0.00915485
0.00913968
0.00912795
0.00911934
0.00911342
0.00910962
0.00910714
0.00910498
0.00910212
0.00909787
0.00909253
0.00908808
)
;
    }
}


// ************************************************************************* //
