/*--------------------------------*- C++ -*----------------------------------*\
| =========                 |                                                 |
| \\      /  F ield         | OpenFOAM: The Open Source CFD Toolbox           |
|  \\    /   O peration     | Version:  5.0                                   |
|   \\  /    A nd           | Web:      www.OpenFOAM.org                      |
|    \\/     M anipulation  |                                                 |
\*---------------------------------------------------------------------------*/
FoamFile
{
    version     2.0;
    format      ascii;
    class       volScalarField;
    location    "0.2";
    object      p;
}
// * * * * * * * * * * * * * * * * * * * * * * * * * * * * * * * * * * * * * //

dimensions      [1 -1 -2 0 0 0 0];

internalField   nonuniform List<scalar> 
1935
(
-2.14431
-2.23443
-2.32263
-2.40923
-2.49445
-2.57839
-2.66106
-2.74248
-2.82269
-2.90183
-2.98006
-3.05765
-3.13487
-3.21201
-3.28932
-3.36699
-3.44517
-3.52393
-3.60329
-3.68322
-3.76369
-3.84465
-3.92606
-4.00789
-4.09016
-4.17287
-4.25608
-4.33981
-4.42411
-4.50903
-4.59459
-4.68082
-4.76775
-4.85538
-4.94374
-5.03283
-5.12268
-5.21331
-5.30475
-5.39703
-5.49021
-5.58421
-5.67901
-2.14956
-2.15837
-2.17047
-2.18545
-2.23878
-2.24633
-2.25684
-2.26993
-2.32624
-2.33275
-2.3419
-2.35338
-2.41225
-2.41785
-2.42583
-2.43591
-2.49698
-2.50181
-2.50877
-2.51765
-2.58054
-2.5847
-2.59079
-2.59863
-2.66293
-2.66656
-2.67193
-2.67889
-2.74417
-2.7474
-2.75219
-2.75844
-2.82431
-2.82727
-2.83162
-2.83729
-2.90345
-2.90626
-2.91031
-2.91553
-2.98177
-2.98452
-2.98838
-2.99328
-3.05949
-3.06226
-3.066
-3.07067
-3.13687
-3.1397
-3.14339
-3.14787
-3.21417
-3.21707
-3.22072
-3.22507
-3.29162
-3.29458
-3.29819
-3.3024
-3.3694
-3.37238
-3.37593
-3.37999
-3.44764
-3.4506
-3.45405
-3.45796
-3.52641
-3.5293
-3.53263
-3.53635
-3.60573
-3.60852
-3.61169
-3.61522
-3.68559
-3.68825
-3.69125
-3.69458
-3.76597
-3.76849
-3.77131
-3.77443
-3.84683
-3.8492
-3.85185
-3.85478
-3.92814
-3.93037
-3.93286
-3.93562
-4.00988
-4.01199
-4.01435
-4.01695
-4.09206
-4.09408
-4.09632
-4.09878
-4.1747
-4.17664
-4.17877
-4.18112
-4.25784
-4.2597
-4.26175
-4.26398
-4.34151
-4.34331
-4.34526
-4.34739
-4.42575
-4.42748
-4.42935
-4.43136
-4.5106
-4.51225
-4.51402
-4.51592
-4.59609
-4.59765
-4.59932
-4.60109
-4.68224
-4.6837
-4.68526
-4.6869
-4.76907
-4.77043
-4.77186
-4.77337
-4.85661
-4.85785
-4.85916
-4.86053
-4.94486
-4.94599
-4.94717
-4.9484
-5.03385
-5.03486
-5.03592
-5.03703
-5.1236
-5.12451
-5.12545
-5.12644
-5.21414
-5.21495
-5.2158
-5.21667
-5.3055
-5.30623
-5.30698
-5.30775
-5.39772
-5.39839
-5.39905
-5.39972
-5.49087
-5.49148
-5.49206
-5.49262
-5.5849
-5.58549
-5.58603
-5.58652
-5.6798
-5.68045
-5.681
-5.68146
-2.20368
-2.22528
-2.24909
-2.27467
-2.30155
-2.32933
-2.35764
-2.38616
-2.41459
-2.44267
-2.47017
-2.49689
-2.52265
-2.54731
-2.57077
-2.59295
-2.61379
-2.63329
-2.65144
-2.66828
-2.68386
-2.69823
-2.71145
-2.72359
-2.73469
-2.74482
-2.75401
-2.76229
-2.76969
-2.77624
-2.78197
-2.78689
-2.79104
-2.79445
-2.79715
-2.79917
-2.80053
-2.80121
-2.80128
-2.80094
-2.28598
-2.3051
-2.3263
-2.3492
-2.37341
-2.39856
-2.42435
-2.45046
-2.47664
-2.50263
-2.52821
-2.55318
-2.57737
-2.60063
-2.62286
-2.64396
-2.66388
-2.6826
-2.70011
-2.71643
-2.73159
-2.74563
-2.75862
-2.77058
-2.78157
-2.79163
-2.80078
-2.80906
-2.81649
-2.82308
-2.82887
-2.83386
-2.83809
-2.84159
-2.84438
-2.84648
-2.84793
-2.84871
-2.84886
-2.84859
-2.36753
-2.38451
-2.40343
-2.42399
-2.44584
-2.46867
-2.49219
-2.51612
-2.54022
-2.56425
-2.588
-2.61128
-2.63393
-2.6558
-2.67678
-2.69679
-2.71577
-2.73367
-2.7505
-2.76625
-2.78095
-2.79463
-2.80732
-2.81906
-2.82989
-2.83982
-2.84889
-2.85712
-2.86452
-2.87111
-2.87691
-2.88194
-2.88622
-2.88978
-2.89264
-2.89482
-2.89634
-2.8972
-2.89744
-2.89724
-2.44843
-2.46354
-2.48048
-2.49898
-2.51875
-2.53949
-2.56095
-2.58288
-2.60506
-2.62725
-2.64927
-2.67095
-2.69211
-2.71262
-2.73239
-2.75131
-2.76933
-2.78641
-2.80253
-2.81768
-2.83189
-2.84516
-2.85751
-2.86898
-2.87959
-2.88936
-2.8983
-2.90643
-2.91376
-2.92031
-2.9261
-2.93114
-2.93545
-2.93904
-2.94195
-2.9442
-2.94578
-2.94672
-2.94703
-2.94691
-2.52874
-2.54223
-2.55743
-2.57412
-2.59202
-2.61088
-2.63048
-2.65057
-2.67097
-2.69145
-2.71185
-2.73199
-2.75174
-2.77095
-2.78953
-2.80739
-2.82447
-2.84072
-2.85612
-2.87066
-2.88434
-2.89716
-2.90915
-2.92031
-2.93066
-2.94022
-2.94899
-2.95699
-2.96423
-2.97071
-2.97645
-2.98147
-2.98578
-2.9894
-2.99234
-2.99463
-2.99627
-2.99727
-2.99766
-2.99759
-2.6085
-2.62058
-2.63425
-2.64933
-2.66557
-2.68274
-2.70064
-2.71906
-2.73781
-2.75671
-2.77559
-2.79429
-2.81269
-2.83067
-2.84811
-2.86494
-2.88109
-2.89653
-2.91121
-2.92511
-2.93825
-2.9506
-2.96219
-2.97301
-2.98307
-2.99238
-3.00096
-3.00879
-3.0159
-3.02229
-3.02797
-3.03295
-3.03724
-3.04086
-3.04381
-3.04613
-3.04781
-3.04886
-3.04932
-3.04932
-2.68771
-2.69856
-2.71091
-2.72456
-2.73932
-2.75497
-2.77133
-2.78822
-2.80546
-2.8229
-2.84036
-2.85773
-2.87487
-2.89166
-2.90802
-2.92386
-2.93912
-2.95374
-2.96771
-2.98098
-2.99356
-3.00543
-3.01659
-3.02704
-3.03679
-3.04584
-3.05418
-3.06183
-3.06879
-3.07506
-3.08065
-3.08557
-3.08982
-3.09342
-3.09638
-3.09871
-3.10042
-3.10152
-3.10203
-3.1021
-2.76637
-2.77618
-2.78736
-2.79977
-2.8132
-2.82749
-2.84247
-2.85797
-2.87384
-2.88993
-2.90609
-2.92221
-2.93817
-2.95386
-2.96918
-2.98408
-2.99847
-3.01231
-3.02557
-3.03821
-3.05023
-3.0616
-3.07232
-3.08239
-3.0918
-3.10056
-3.10866
-3.1161
-3.12289
-3.12902
-3.1345
-3.13933
-3.14353
-3.14709
-3.15004
-3.15237
-3.1541
-3.15524
-3.15581
-3.15593
-2.8445
-2.85342
-2.86361
-2.87492
-2.88719
-2.90027
-2.91401
-2.92825
-2.94287
-2.95773
-2.9727
-2.98767
-3.00253
-3.01717
-3.03153
-3.04552
-3.05908
-3.07216
-3.08473
-3.09675
-3.1082
-3.11907
-3.12935
-3.13902
-3.14808
-3.15653
-3.16437
-3.17158
-3.17818
-3.18415
-3.18951
-3.19424
-3.19837
-3.20188
-3.2048
-3.20712
-3.20886
-3.21003
-3.21065
-3.21082
-2.92216
-2.93034
-2.93967
-2.95004
-2.96129
-2.97329
-2.98592
-2.99903
-3.01252
-3.02626
-3.04013
-3.05404
-3.06788
-3.08156
-3.095
-3.10813
-3.1209
-3.13325
-3.14514
-3.15655
-3.16744
-3.17781
-3.18763
-3.1969
-3.2056
-3.21374
-3.22129
-3.22827
-3.23466
-3.24046
-3.24567
-3.2503
-3.25433
-3.25778
-3.26066
-3.26296
-3.2647
-3.26589
-3.26655
-3.26678
-2.99944
-3.00701
-3.01562
-3.02516
-3.03552
-3.04657
-3.0582
-3.0703
-3.08277
-3.09548
-3.10836
-3.12128
-3.13418
-3.14695
-3.15954
-3.17186
-3.18387
-3.19552
-3.20676
-3.21757
-3.22792
-3.23778
-3.24715
-3.25601
-3.26435
-3.27216
-3.27943
-3.28615
-3.29232
-3.29794
-3.30299
-3.30749
-3.31142
-3.3148
-3.31762
-3.31989
-3.32163
-3.32283
-3.32353
-3.3238
-3.07646
-3.08353
-3.09151
-3.10035
-3.10992
-3.12012
-3.13087
-3.14206
-3.1536
-3.16539
-3.17735
-3.18938
-3.2014
-3.21333
-3.22511
-3.23668
-3.24797
-3.25894
-3.26956
-3.27978
-3.28959
-3.29896
-3.30788
-3.31633
-3.3243
-3.33177
-3.33874
-3.34521
-3.35115
-3.35657
-3.36146
-3.36581
-3.36963
-3.37292
-3.37568
-3.37791
-3.37963
-3.38084
-3.38158
-3.38189
-3.15338
-3.16001
-3.16746
-3.17567
-3.18455
-3.194
-3.20396
-3.21433
-3.22503
-3.23598
-3.2471
-3.2583
-3.26951
-3.28067
-3.29169
-3.30254
-3.31315
-3.32347
-3.33348
-3.34314
-3.35243
-3.36132
-3.36979
-3.37783
-3.38543
-3.39256
-3.39923
-3.40543
-3.41113
-3.41634
-3.42105
-3.42526
-3.42896
-3.43215
-3.43483
-3.43702
-3.43872
-3.43993
-3.44069
-3.44104
-3.23031
-3.23657
-3.24356
-3.25122
-3.25947
-3.26826
-3.2775
-3.28713
-3.29707
-3.30726
-3.3176
-3.32804
-3.33851
-3.34893
-3.35926
-3.36942
-3.37938
-3.38909
-3.39852
-3.40763
-3.41641
-3.42482
-3.43285
-3.44049
-3.44771
-3.45451
-3.46088
-3.46679
-3.47225
-3.47725
-3.48177
-3.48582
-3.48938
-3.49247
-3.49508
-3.49721
-3.49888
-3.50009
-3.50088
-3.50125
-3.30741
-3.31333
-3.3199
-3.32706
-3.33476
-3.34294
-3.35154
-3.36049
-3.36975
-3.37922
-3.38887
-3.3986
-3.40838
-3.41812
-3.42778
-3.4373
-3.44664
-3.45577
-3.46464
-3.47322
-3.4815
-3.48945
-3.49705
-3.50428
-3.51113
-3.51759
-3.52365
-3.52929
-3.5345
-3.53927
-3.5436
-3.54748
-3.55091
-3.55388
-3.5564
-3.55848
-3.56011
-3.56132
-3.56212
-3.56253
-3.38479
-3.39039
-3.39656
-3.40327
-3.41046
-3.41809
-3.4261
-3.43445
-3.44307
-3.4519
-3.46089
-3.46998
-3.4791
-3.48821
-3.49724
-3.50616
-3.51492
-3.52348
-3.53181
-3.53988
-3.54768
-3.55517
-3.56234
-3.56918
-3.57567
-3.58179
-3.58753
-3.59289
-3.59784
-3.60239
-3.60652
-3.61023
-3.61352
-3.61637
-3.6188
-3.62082
-3.62241
-3.62361
-3.62443
-3.62486
-3.46252
-3.46782
-3.47362
-3.4799
-3.48663
-3.49375
-3.50123
-3.50902
-3.51706
-3.5253
-3.53369
-3.54217
-3.55069
-3.55919
-3.56764
-3.57598
-3.58417
-3.59219
-3.60001
-3.60759
-3.61491
-3.62196
-3.62872
-3.63516
-3.64129
-3.64707
-3.65251
-3.65758
-3.66228
-3.6666
-3.67053
-3.67406
-3.6772
-3.67994
-3.68227
-3.68422
-3.68578
-3.68696
-3.68779
-3.68825
-3.54068
-3.54568
-3.55113
-3.55702
-3.56332
-3.56997
-3.57696
-3.58423
-3.59173
-3.59943
-3.60725
-3.61517
-3.62311
-3.63105
-3.63894
-3.64673
-3.65439
-3.66189
-3.66921
-3.67631
-3.68318
-3.68979
-3.69614
-3.7022
-3.70797
-3.71342
-3.71855
-3.72334
-3.72778
-3.73187
-3.7356
-3.73896
-3.74195
-3.74456
-3.7468
-3.74868
-3.75019
-3.75136
-3.7522
-3.75269
-3.61931
-3.62401
-3.62914
-3.63466
-3.64055
-3.64678
-3.65331
-3.6601
-3.6671
-3.67428
-3.68158
-3.68896
-3.69637
-3.70377
-3.71112
-3.71839
-3.72554
-3.73255
-3.73938
-3.74602
-3.75245
-3.75864
-3.76459
-3.77028
-3.77569
-3.78081
-3.78564
-3.79015
-3.79434
-3.79821
-3.80173
-3.80492
-3.80775
-3.81024
-3.81239
-3.81419
-3.81566
-3.81681
-3.81765
-3.81816
-3.69842
-3.70285
-3.70766
-3.71284
-3.71836
-3.72419
-3.73029
-3.73663
-3.74317
-3.74986
-3.75667
-3.76354
-3.77044
-3.77733
-3.78417
-3.79094
-3.7976
-3.80413
-3.81049
-3.81669
-3.82269
-3.82847
-3.83404
-3.83936
-3.84443
-3.84923
-3.85376
-3.858
-3.86194
-3.86558
-3.86891
-3.87191
-3.8746
-3.87697
-3.87902
-3.88075
-3.88217
-3.8833
-3.88414
-3.88467
-3.77805
-3.78221
-3.78673
-3.79158
-3.79675
-3.80221
-3.80791
-3.81383
-3.81993
-3.82616
-3.8325
-3.83889
-3.8453
-3.8517
-3.85806
-3.86435
-3.87054
-3.8766
-3.88253
-3.88829
-3.89388
-3.89927
-3.90446
-3.90942
-3.91416
-3.91865
-3.92289
-3.92686
-3.93056
-3.93398
-3.93711
-3.93995
-3.94249
-3.94474
-3.94669
-3.94835
-3.94972
-3.95082
-3.95166
-3.95221
-3.85818
-3.86209
-3.86633
-3.87089
-3.87574
-3.88084
-3.88617
-3.89169
-3.89736
-3.90316
-3.90905
-3.91498
-3.92093
-3.92687
-3.93276
-3.93859
-3.94433
-3.94995
-3.95545
-3.9608
-3.96599
-3.971
-3.97583
-3.98045
-3.98487
-3.98906
-3.99302
-3.99673
-4.00019
-4.0034
-4.00634
-4.00901
-4.01141
-4.01354
-4.01539
-4.01698
-4.0183
-4.01938
-4.02021
-4.02077
-3.93882
-3.9425
-3.94649
-3.95077
-3.9553
-3.96007
-3.96504
-3.97018
-3.97546
-3.98085
-3.9863
-3.9918
-3.99731
-4.0028
-4.00825
-4.01364
-4.01895
-4.02415
-4.02924
-4.0342
-4.03901
-4.04366
-4.04814
-4.05243
-4.05654
-4.06044
-4.06413
-4.06759
-4.07083
-4.07383
-4.07658
-4.07909
-4.08135
-4.08336
-4.08512
-4.08664
-4.08791
-4.08896
-4.08978
-4.09035
-4.01997
-4.02344
-4.02719
-4.0312
-4.03545
-4.0399
-4.04453
-4.04931
-4.05421
-4.05919
-4.06424
-4.06932
-4.07441
-4.07948
-4.08451
-4.08948
-4.09438
-4.09919
-4.10389
-4.10847
-4.11291
-4.11722
-4.12137
-4.12535
-4.12916
-4.13278
-4.13621
-4.13944
-4.14245
-4.14525
-4.14783
-4.15019
-4.15231
-4.15421
-4.15587
-4.15732
-4.15854
-4.15955
-4.16037
-4.16094
-4.10163
-4.10491
-4.10843
-4.11219
-4.11616
-4.12031
-4.12461
-4.12905
-4.13358
-4.13819
-4.14285
-4.14753
-4.15222
-4.15689
-4.16152
-4.1661
-4.17061
-4.17503
-4.17937
-4.18359
-4.1877
-4.19167
-4.19551
-4.19919
-4.20272
-4.20608
-4.20926
-4.21226
-4.21506
-4.21767
-4.22008
-4.22228
-4.22428
-4.22606
-4.22764
-4.22901
-4.23018
-4.23117
-4.23197
-4.23254
-4.18382
-4.18691
-4.19022
-4.19374
-4.19744
-4.2013
-4.20529
-4.20939
-4.21358
-4.21782
-4.22211
-4.22642
-4.23073
-4.23501
-4.23927
-4.24348
-4.24762
-4.25169
-4.25568
-4.25957
-4.26335
-4.26701
-4.27055
-4.27395
-4.27721
-4.28032
-4.28327
-4.28605
-4.28865
-4.29108
-4.29332
-4.29538
-4.29725
-4.29893
-4.30041
-4.30171
-4.30283
-4.30378
-4.30457
-4.30514
-4.26653
-4.26945
-4.27255
-4.27584
-4.27929
-4.28286
-4.28655
-4.29034
-4.29419
-4.2981
-4.30203
-4.30598
-4.30993
-4.31386
-4.31776
-4.32162
-4.32542
-4.32916
-4.33282
-4.33639
-4.33986
-4.34324
-4.34649
-4.34963
-4.35263
-4.3555
-4.35823
-4.3608
-4.36322
-4.36547
-4.36756
-4.36947
-4.37122
-4.37279
-4.37419
-4.37542
-4.37649
-4.3774
-4.37817
-4.37874
-4.3498
-4.35254
-4.35544
-4.3585
-4.3617
-4.36501
-4.36841
-4.37189
-4.37543
-4.379
-4.38261
-4.38622
-4.38983
-4.39343
-4.397
-4.40053
-4.40401
-4.40743
-4.41078
-4.41406
-4.41725
-4.42034
-4.42333
-4.42622
-4.42898
-4.43163
-4.43414
-4.43651
-4.43875
-4.44083
-4.44277
-4.44455
-4.44618
-4.44765
-4.44897
-4.45013
-4.45114
-4.45202
-4.45276
-4.45332
-4.43363
-4.43619
-4.4389
-4.44174
-4.44469
-4.44774
-4.45086
-4.45405
-4.45729
-4.46056
-4.46385
-4.46715
-4.47045
-4.47373
-4.47698
-4.48021
-4.48339
-4.48651
-4.48958
-4.49257
-4.49549
-4.49833
-4.50107
-4.50372
-4.50626
-4.50869
-4.511
-4.51319
-4.51525
-4.51717
-4.51896
-4.52062
-4.52213
-4.5235
-4.52473
-4.52583
-4.52679
-4.52763
-4.52835
-4.52889
-4.51804
-4.52043
-4.52294
-4.52557
-4.52828
-4.53108
-4.53394
-4.53685
-4.5398
-4.54278
-4.54578
-4.54878
-4.55178
-4.55477
-4.55774
-4.56067
-4.56357
-4.56642
-4.56921
-4.57195
-4.57461
-4.5772
-4.57971
-4.58213
-4.58446
-4.58668
-4.5888
-4.59081
-4.59271
-4.59448
-4.59613
-4.59766
-4.59906
-4.60034
-4.60148
-4.60251
-4.60341
-4.60421
-4.60491
-4.60544
-4.60307
-4.60528
-4.60759
-4.61
-4.61249
-4.61504
-4.61765
-4.6203
-4.62299
-4.62569
-4.62842
-4.63114
-4.63386
-4.63658
-4.63927
-4.64193
-4.64456
-4.64716
-4.6497
-4.65218
-4.65461
-4.65697
-4.65926
-4.66146
-4.66358
-4.66562
-4.66756
-4.66939
-4.67113
-4.67275
-4.67427
-4.67568
-4.67697
-4.67815
-4.67921
-4.68017
-4.68102
-4.68178
-4.68244
-4.68295
-4.68872
-4.69076
-4.69288
-4.69508
-4.69735
-4.69967
-4.70203
-4.70444
-4.70687
-4.70932
-4.71178
-4.71425
-4.71671
-4.71916
-4.7216
-4.72401
-4.72639
-4.72874
-4.73104
-4.73329
-4.73549
-4.73763
-4.73971
-4.74171
-4.74364
-4.74549
-4.74725
-4.74892
-4.7505
-4.75199
-4.75337
-4.75466
-4.75585
-4.75693
-4.75792
-4.7588
-4.75959
-4.76031
-4.76093
-4.76143
-4.77504
-4.7769
-4.77883
-4.78083
-4.78288
-4.78498
-4.78712
-4.78929
-4.79148
-4.79368
-4.7959
-4.79812
-4.80034
-4.80255
-4.80474
-4.80692
-4.80906
-4.81118
-4.81325
-4.81528
-4.81727
-4.8192
-4.82107
-4.82288
-4.82462
-4.82629
-4.82789
-4.8294
-4.83083
-4.83218
-4.83344
-4.83461
-4.83569
-4.83668
-4.83758
-4.8384
-4.83913
-4.83979
-4.84038
-4.84086
-4.86205
-4.86373
-4.86548
-4.86728
-4.86913
-4.87102
-4.87293
-4.87488
-4.87684
-4.87882
-4.88081
-4.88279
-4.88478
-4.88676
-4.88872
-4.89067
-4.89259
-4.89448
-4.89634
-4.89816
-4.89994
-4.90167
-4.90335
-4.90497
-4.90653
-4.90803
-4.90946
-4.91082
-4.91211
-4.91332
-4.91445
-4.91551
-4.91648
-4.91738
-4.9182
-4.91894
-4.91962
-4.92023
-4.92078
-4.92123
-4.94977
-4.95129
-4.95286
-4.95447
-4.95613
-4.95781
-4.95952
-4.96125
-4.963
-4.96476
-4.96652
-4.96829
-4.97005
-4.97181
-4.97355
-4.97528
-4.97699
-4.97867
-4.98032
-4.98193
-4.98351
-4.98505
-4.98654
-4.98798
-4.98937
-4.9907
-4.99197
-4.99318
-4.99432
-4.9954
-4.99641
-4.99735
-4.99823
-4.99903
-4.99977
-5.00044
-5.00105
-5.00161
-5.00212
-5.00254
-5.03825
-5.03961
-5.04101
-5.04244
-5.0439
-5.04539
-5.0469
-5.04843
-5.04997
-5.05152
-5.05307
-5.05462
-5.05617
-5.05772
-5.05925
-5.06076
-5.06226
-5.06374
-5.06518
-5.0666
-5.06799
-5.06933
-5.07064
-5.07191
-5.07312
-5.07429
-5.07541
-5.07647
-5.07747
-5.07842
-5.07931
-5.08014
-5.08091
-5.08162
-5.08227
-5.08287
-5.08341
-5.08392
-5.08439
-5.08478
-5.12753
-5.12872
-5.12996
-5.13122
-5.1325
-5.1338
-5.13512
-5.13645
-5.13778
-5.13913
-5.14047
-5.14182
-5.14316
-5.1445
-5.14582
-5.14713
-5.14843
-5.1497
-5.15095
-5.15217
-5.15337
-5.15453
-5.15566
-5.15675
-5.1578
-5.1588
-5.15977
-5.16068
-5.16155
-5.16236
-5.16313
-5.16385
-5.16451
-5.16513
-5.1657
-5.16622
-5.1667
-5.16715
-5.16758
-5.16793
-5.21762
-5.21867
-5.21975
-5.22084
-5.22195
-5.22306
-5.22419
-5.22533
-5.22647
-5.22761
-5.22875
-5.22989
-5.23103
-5.23216
-5.23328
-5.23439
-5.23548
-5.23656
-5.23761
-5.23864
-5.23965
-5.24063
-5.24158
-5.2425
-5.24338
-5.24423
-5.24504
-5.24581
-5.24654
-5.24723
-5.24787
-5.24847
-5.24903
-5.24955
-5.25003
-5.25048
-5.25089
-5.25129
-5.25167
-5.25199
-5.30858
-5.30949
-5.31041
-5.31133
-5.31227
-5.31321
-5.31415
-5.31509
-5.31603
-5.31698
-5.31792
-5.31886
-5.31979
-5.32072
-5.32163
-5.32254
-5.32343
-5.32431
-5.32517
-5.32601
-5.32683
-5.32763
-5.3284
-5.32915
-5.32987
-5.33056
-5.33122
-5.33184
-5.33243
-5.33299
-5.33351
-5.334
-5.33445
-5.33488
-5.33527
-5.33563
-5.33598
-5.33632
-5.33664
-5.33693
-5.40043
-5.4012
-5.40196
-5.40273
-5.40348
-5.40424
-5.40499
-5.40575
-5.40649
-5.40724
-5.40798
-5.40871
-5.40944
-5.41016
-5.41088
-5.41158
-5.41227
-5.41295
-5.41361
-5.41426
-5.4149
-5.41552
-5.41611
-5.41669
-5.41724
-5.41777
-5.41828
-5.41876
-5.41921
-5.41964
-5.42004
-5.42041
-5.42076
-5.42108
-5.42138
-5.42167
-5.42194
-5.42221
-5.42249
-5.42274
-5.49322
-5.49384
-5.49444
-5.49504
-5.49562
-5.49619
-5.49675
-5.49731
-5.49785
-5.4984
-5.49893
-5.49946
-5.49998
-5.5005
-5.501
-5.5015
-5.50199
-5.50247
-5.50294
-5.5034
-5.50384
-5.50428
-5.5047
-5.5051
-5.50549
-5.50586
-5.50621
-5.50655
-5.50686
-5.50716
-5.50744
-5.50769
-5.50793
-5.50815
-5.50836
-5.50856
-5.50875
-5.50895
-5.50918
-5.50938
-5.58701
-5.5875
-5.58796
-5.58839
-5.5888
-5.58919
-5.58956
-5.58992
-5.59027
-5.59061
-5.59093
-5.59125
-5.59156
-5.59186
-5.59215
-5.59244
-5.59272
-5.59299
-5.59326
-5.59351
-5.59376
-5.59401
-5.59424
-5.59446
-5.59468
-5.59488
-5.59508
-5.59526
-5.59543
-5.59559
-5.59573
-5.59587
-5.59599
-5.5961
-5.5962
-5.59629
-5.59639
-5.5965
-5.59666
-5.59681
-5.68188
-5.68225
-5.68257
-5.68285
-5.68309
-5.6833
-5.68348
-5.68365
-5.68379
-5.68391
-5.68403
-5.68413
-5.68422
-5.6843
-5.68438
-5.68445
-5.68451
-5.68457
-5.68462
-5.68467
-5.68472
-5.68476
-5.6848
-5.68484
-5.68487
-5.6849
-5.68493
-5.68495
-5.68497
-5.68498
-5.685
-5.685
-5.685
-5.685
-5.68499
-5.68497
-5.68495
-5.68495
-5.68498
-5.68506
)
;

boundaryField
{
    leftWall
    {
        type            calculated;
        value           nonuniform 0();
    }
    rightWall
    {
        type            calculated;
        value           nonuniform List<scalar> 
43
(
-2.80094
-2.84859
-2.89724
-2.94691
-2.99759
-3.04932
-3.1021
-3.15593
-3.21082
-3.26678
-3.3238
-3.38189
-3.44104
-3.50125
-3.56253
-3.62486
-3.68825
-3.75269
-3.81816
-3.88467
-3.95221
-4.02077
-4.09035
-4.16094
-4.23254
-4.30514
-4.37874
-4.45332
-4.52889
-4.60544
-4.68295
-4.76143
-4.84086
-4.92123
-5.00254
-5.08478
-5.16793
-5.25199
-5.33693
-5.42274
-5.50938
-5.59681
-5.68506
)
;
    }
    lowerWall
    {
        type            calculated;
        value           nonuniform 0();
    }
    atmosphere
    {
        type            calculated;
        value           nonuniform List<scalar> 
45
(
-5.72904
-5.72904
-5.72904
-5.72904
-5.72904
-5.72904
-5.72904
-5.72904
-5.72904
-5.72904
-5.72904
-5.72904
-5.72904
-5.72904
-5.72904
-5.72904
-5.72904
-5.72904
-5.72904
-5.72904
-5.72904
-5.72904
-5.72904
-5.72904
-5.72904
-5.72904
-5.72904
-5.72904
-5.72904
-5.72904
-5.72904
-5.72904
-5.72904
-5.72904
-5.72904
-5.72904
-5.72904
-5.72904
-5.72904
-5.72904
-5.72904
-5.72904
-5.72904
-5.72904
-5.72904
)
;
    }
    defaultFaces
    {
        type            empty;
    }
    procBoundary3to1
    {
        type            processor;
        value           nonuniform List<scalar> 
45
(
-2.05193
-2.05828
-2.06861
-2.08261
-2.09976
-2.12054
-2.145
-2.17182
-2.20047
-2.23041
-2.26116
-2.29231
-2.32348
-2.35436
-2.38467
-2.41417
-2.44268
-2.47001
-2.49605
-2.5207
-2.54389
-2.5656
-2.58581
-2.60456
-2.62188
-2.63783
-2.65247
-2.66588
-2.67813
-2.68929
-2.69942
-2.70857
-2.71679
-2.72411
-2.73057
-2.73619
-2.74101
-2.74505
-2.74835
-2.75095
-2.75286
-2.75411
-2.7547
-2.75467
-2.75425
)
;
    }
    procBoundary3to2
    {
        type            processor;
        value           nonuniform List<scalar> 
43
(
-2.1435
-2.23408
-2.3226
-2.4094
-2.4947
-2.57862
-2.6612
-2.74248
-2.82252
-2.90145
-2.97946
-3.05681
-3.1338
-3.21072
-3.28782
-3.36531
-3.44335
-3.522
-3.60128
-3.68118
-3.76165
-3.84264
-3.9241
-4.006
-4.08834
-4.17113
-4.2544
-4.33819
-4.42255
-4.50752
-4.59314
-4.67944
-4.76644
-4.85416
-4.94261
-5.03181
-5.12175
-5.21247
-5.30397
-5.39629
-5.4895
-5.58341
-5.678
)
;
    }
}


// ************************************************************************* //
