/*--------------------------------*- C++ -*----------------------------------*\
| =========                 |                                                 |
| \\      /  F ield         | OpenFOAM: The Open Source CFD Toolbox           |
|  \\    /   O peration     | Version:  5.0                                   |
|   \\  /    A nd           | Web:      www.OpenFOAM.org                      |
|    \\/     M anipulation  |                                                 |
\*---------------------------------------------------------------------------*/
FoamFile
{
    version     2.0;
    format      ascii;
    class       volScalarField;
    location    "0.2";
    object      p_rgh;
}
// * * * * * * * * * * * * * * * * * * * * * * * * * * * * * * * * * * * * * //

dimensions      [1 -1 -2 0 0 0 0];

internalField   nonuniform List<scalar> 
1935
(
0.199972
0.175176
0.15291
0.132855
0.114792
0.0986418
0.0843861
0.0720176
0.0614922
0.0526995
0.0454558
0.0395179
0.0346111
0.0304597
0.0268169
0.0234891
0.0203472
0.0173254
0.01441
0.0116255
0.00902001
0.00664869
0.00455857
0.00277741
0.00131009
0.000141301
-0.00075781
-0.00142198
-0.00188598
-0.00218169
-0.00233643
-0.00237121
-0.00229952
-0.00212882
-0.0018648
-0.00151543
-0.00109227
-0.000609694
-8.57529e-05
0.000446013
0.000932925
0.00147765
0.00210001
0.194725
0.185908
0.17381
0.158838
0.170829
0.163274
0.152769
0.139676
0.149299
0.142792
0.133642
0.122163
0.129839
0.124231
0.116254
0.10617
0.112262
0.107435
0.100474
0.0915979
0.0964942
0.0923289
0.0862372
0.0783971
0.0825177
0.0788865
0.0735177
0.0665532
0.0703244
0.0670955
0.0623036
0.0560608
0.0598757
0.056919
0.0525624
0.0468947
0.0510724
0.0482686
0.0442172
0.0389907
0.0437466
0.0409966
0.0371403
0.0322403
0.0376767
0.0349078
0.0311631
0.0265003
0.0326118
0.0297818
0.0260954
0.021609
0.0283006
0.0253978
0.021747
0.0174042
0.0245178
0.0215577
0.0179461
0.0137382
0.0210859
0.0181029
0.0145533
0.0104885
0.0178851
0.0149233
0.0114678
0.00756362
0.0148518
0.0119558
0.00862757
0.00490352
0.0119684
0.0091768
0.00600361
0.00247513
0.00925129
0.00659174
0.00359134
0.000266018
0.00673722
0.00422352
0.00140133
-0.00172283
0.00446867
0.00210075
-0.000549692
-0.00348344
0.00248107
0.000247737
-0.00224625
-0.00500627
0.000794303
-0.00132196
-0.00367912
-0.00628439
-0.000589964
-0.00260786
-0.00484764
-0.00731605
-0.00168624
-0.00362144
-0.00575966
-0.00810538
-0.00252027
-0.0043829
-0.00642963
-0.00866166
-0.00312311
-0.00491701
-0.00687597
-0.0089977
-0.00352597
-0.00524927
-0.00711843
-0.00912835
-0.00375707
-0.00540334
-0.00717633
-0.00906944
-0.00383993
-0.00539964
-0.00706766
-0.00883732
-0.00379262
-0.00525508
-0.00680907
-0.00844888
-0.00362812
-0.0049838
-0.00641643
-0.00792191
-0.00335623
-0.00459888
-0.00590614
-0.00727575
-0.00298684
-0.00411455
-0.00529642
-0.0065319
-0.00253251
-0.00354789
-0.00460819
-0.00571428
-0.00200949
-0.00291927
-0.00386519
-0.00484899
-0.00143746
-0.00225231
-0.00309367
-0.00396377
-0.000840188
-0.001574
-0.00232222
-0.00308749
-0.000252726
-0.000918477
-0.0015827
-0.00224894
0.000273962
-0.000330876
-0.000913137
-0.00147978
0.000784461
0.000193791
-0.000338435
-0.000829364
0.00130456
0.000656569
0.000109462
-0.000353161
0.1406
0.119003
0.0951948
0.0696134
0.042729
0.0149507
-0.013359
-0.0418744
-0.0703037
-0.098385
-0.125886
-0.152603
-0.178365
-0.203031
-0.22649
-0.248665
-0.269508
-0.289002
-0.307156
-0.323998
-0.339576
-0.353945
-0.367168
-0.379304
-0.39041
-0.400535
-0.409722
-0.418004
-0.425408
-0.43196
-0.437685
-0.442608
-0.44676
-0.45017
-0.45287
-0.454888
-0.456242
-0.456931
-0.456998
-0.456653
0.123628
0.104508
0.0833129
0.0604108
0.0362027
0.0110445
-0.0147406
-0.0408564
-0.0670323
-0.0930215
-0.118601
-0.143571
-0.167761
-0.191025
-0.21325
-0.234352
-0.254275
-0.272992
-0.290501
-0.306819
-0.321979
-0.336027
-0.349008
-0.360972
-0.371964
-0.382021
-0.391177
-0.399456
-0.406883
-0.413477
-0.419259
-0.424252
-0.428483
-0.431979
-0.434768
-0.436876
-0.43832
-0.439099
-0.439255
-0.438985
0.108008
0.0910349
0.0721107
0.0515486
0.0296967
0.00686694
-0.01665
-0.0405826
-0.0646792
-0.0887083
-0.112459
-0.135741
-0.158388
-0.180261
-0.201244
-0.221253
-0.240227
-0.258133
-0.274959
-0.290711
-0.305411
-0.319089
-0.331781
-0.343522
-0.354345
-0.364279
-0.373349
-0.381576
-0.388976
-0.395567
-0.401368
-0.406397
-0.410679
-0.414237
-0.417096
-0.419279
-0.420801
-0.421662
-0.421902
-0.421704
0.0936535
0.078547
0.0616061
0.0431006
0.0233374
0.00259455
-0.0188671
-0.0408
-0.0629721
-0.0851682
-0.107191
-0.128861
-0.150022
-0.17054
-0.190303
-0.209226
-0.227247
-0.244327
-0.260446
-0.275601
-0.289803
-0.303071
-0.315428
-0.326899
-0.337507
-0.347272
-0.356212
-0.364342
-0.371677
-0.378231
-0.384018
-0.389055
-0.393362
-0.39696
-0.399869
-0.402112
-0.403699
-0.404633
-0.404951
-0.404822
0.0805015
0.0670189
0.0518166
0.0351291
0.0172278
-0.00163739
-0.021231
-0.0413292
-0.0617203
-0.0822064
-0.102605
-0.122749
-0.142492
-0.161707
-0.180287
-0.198148
-0.215226
-0.231478
-0.246878
-0.261415
-0.275092
-0.287917
-0.299902
-0.311063
-0.321415
-0.330971
-0.339743
-0.347742
-0.354979
-0.361464
-0.367209
-0.372228
-0.376537
-0.380154
-0.383097
-0.385383
-0.387024
-0.388021
-0.38841
-0.388348
0.0685267
0.0564559
0.0427783
0.0277006
0.0114636
-0.00571012
-0.0236085
-0.042028
-0.0607768
-0.0796746
-0.0985543
-0.117263
-0.135663
-0.153635
-0.171078
-0.187909
-0.204063
-0.219495
-0.234174
-0.248083
-0.261215
-0.273571
-0.285155
-0.295975
-0.306038
-0.315352
-0.323925
-0.331763
-0.338872
-0.345262
-0.35094
-0.355918
-0.360208
-0.363825
-0.366783
-0.369098
-0.370781
-0.371832
-0.372288
-0.372289
0.0577315
0.0468822
0.0345386
0.0208835
0.00613073
-0.00952182
-0.0258846
-0.0427746
-0.0600173
-0.0774492
-0.0949182
-0.112285
-0.129422
-0.146217
-0.162575
-0.178414
-0.193672
-0.208298
-0.222261
-0.235537
-0.248113
-0.259983
-0.271144
-0.281597
-0.291346
-0.300391
-0.308738
-0.316388
-0.323347
-0.329617
-0.335206
-0.340122
-0.344373
-0.347972
-0.350931
-0.353262
-0.354974
-0.356072
-0.356587
-0.35665
0.0481217
0.0383191
0.0271348
0.0147303
0.00129487
-0.0129961
-0.0279739
-0.0434751
-0.0593431
-0.0754302
-0.0915975
-0.107717
-0.123673
-0.139361
-0.154688
-0.169579
-0.183971
-0.197813
-0.21107
-0.223715
-0.23573
-0.247102
-0.257825
-0.267894
-0.277307
-0.286064
-0.294163
-0.301605
-0.30839
-0.314522
-0.320002
-0.324836
-0.329032
-0.332596
-0.33554
-0.337873
-0.339605
-0.340741
-0.341311
-0.341431
0.0396825
0.0307649
0.0205792
0.00926648
-0.00300643
-0.0160848
-0.0298197
-0.0440659
-0.0586842
-0.0735418
-0.0885132
-0.103481
-0.118338
-0.132987
-0.147342
-0.161331
-0.174891
-0.187974
-0.20054
-0.212561
-0.224014
-0.234884
-0.245158
-0.254831
-0.263895
-0.272346
-0.28018
-0.287396
-0.293991
-0.299965
-0.30532
-0.310056
-0.314179
-0.317693
-0.320608
-0.322933
-0.324674
-0.32584
-0.32646
-0.326632
0.0323635
0.0241843
0.0148513
0.00448626
-0.00676533
-0.0187683
-0.031392
-0.0445088
-0.057995
-0.0717322
-0.0856072
-0.0995132
-0.113351
-0.127031
-0.140472
-0.153605
-0.166371
-0.178721
-0.190616
-0.202023
-0.212919
-0.223285
-0.233107
-0.242375
-0.251079
-0.259213
-0.266769
-0.273745
-0.280135
-0.285937
-0.291149
-0.295772
-0.299806
-0.303258
-0.306131
-0.308435
-0.310178
-0.311366
-0.312028
-0.312252
0.0260762
0.0185082
0.00990058
0.000355995
-0.0100002
-0.0210511
-0.0326836
-0.0447859
-0.057249
-0.0699671
-0.0828387
-0.0957669
-0.108661
-0.121438
-0.134022
-0.146348
-0.158358
-0.170004
-0.181246
-0.192054
-0.202401
-0.212267
-0.221637
-0.230496
-0.238833
-0.246641
-0.253909
-0.260633
-0.266805
-0.272421
-0.277478
-0.281973
-0.285906
-0.289281
-0.292102
-0.294376
-0.29611
-0.297313
-0.298013
-0.298282
0.0207021
0.0136418
0.00565306
-0.00317945
-0.0127493
-0.022957
-0.0337049
-0.0448959
-0.0564342
-0.068226
-0.0801801
-0.0922091
-0.10423
-0.116166
-0.127948
-0.139511
-0.150802
-0.161774
-0.172389
-0.182613
-0.192423
-0.201795
-0.210713
-0.219163
-0.22713
-0.234605
-0.241578
-0.24804
-0.253984
-0.259402
-0.264291
-0.268646
-0.272466
-0.275754
-0.278512
-0.280747
-0.282465
-0.283676
-0.284409
-0.284719
0.016107
0.0094755
0.00202099
-0.00618866
-0.0150644
-0.024522
-0.0344782
-0.0448489
-0.0555503
-0.0664993
-0.0776145
-0.0888168
-0.10003
-0.111184
-0.122212
-0.133056
-0.143664
-0.153992
-0.164001
-0.173662
-0.182947
-0.191834
-0.200306
-0.208348
-0.215943
-0.223081
-0.229752
-0.235945
-0.241651
-0.246862
-0.251572
-0.255777
-0.259474
-0.262664
-0.265351
-0.267539
-0.269235
-0.270448
-0.271209
-0.271555
0.0121549
0.0058967
-0.00108777
-0.00874549
-0.0170027
-0.0257887
-0.0350328
-0.0446625
-0.0546048
-0.064786
-0.0751331
-0.0855741
-0.0960395
-0.106464
-0.116785
-0.12695
-0.13691
-0.146622
-0.15605
-0.165164
-0.173939
-0.182351
-0.190383
-0.198018
-0.205242
-0.212042
-0.218406
-0.224324
-0.229785
-0.23478
-0.239303
-0.243349
-0.246914
-0.25
-0.252607
-0.254741
-0.256409
-0.25762
-0.258406
-0.258785
0.00872011
0.00279967
-0.00376119
-0.0109219
-0.0186216
-0.0268013
-0.0354013
-0.0443591
-0.0536107
-0.0630905
-0.0727323
-0.0824706
-0.0922413
-0.101984
-0.111642
-0.121166
-0.130509
-0.139633
-0.148502
-0.157088
-0.165366
-0.173313
-0.180911
-0.188145
-0.194999
-0.201459
-0.207515
-0.213153
-0.218363
-0.223137
-0.227466
-0.231346
-0.234773
-0.237746
-0.240268
-0.242343
-0.243978
-0.245184
-0.245989
-0.246396
0.00569641
9.31403e-05
-0.00607677
-0.0127826
-0.0199742
-0.0276025
-0.0356165
-0.0439623
-0.0525828
-0.0614191
-0.0704108
-0.0794977
-0.0886212
-0.0977256
-0.106759
-0.115676
-0.124433
-0.132993
-0.141325
-0.1494
-0.157194
-0.164687
-0.17186
-0.178696
-0.185183
-0.191304
-0.197049
-0.202405
-0.207362
-0.211909
-0.21604
-0.219749
-0.223032
-0.225889
-0.228321
-0.230332
-0.23193
-0.233127
-0.233945
-0.234382
0.00300169
-0.0022956
-0.00809806
-0.0143824
-0.021107
-0.0282304
-0.0357086
-0.0434939
-0.0515348
-0.0597775
-0.0681666
-0.076647
-0.0851648
-0.0936693
-0.102113
-0.110453
-0.118651
-0.126672
-0.134486
-0.142066
-0.149391
-0.15644
-0.163195
-0.169641
-0.175763
-0.181548
-0.186983
-0.192056
-0.196757
-0.201076
-0.205006
-0.208541
-0.211677
-0.214414
-0.216752
-0.218696
-0.220253
-0.221436
-0.222266
-0.22273
0.000578557
-0.00442
-0.00987396
-0.0157651
-0.022058
-0.0287167
-0.0357021
-0.0429708
-0.0504758
-0.0581674
-0.0659947
-0.0739072
-0.0818557
-0.0897938
-0.0976783
-0.10547
-0.113133
-0.120635
-0.12795
-0.135052
-0.141921
-0.148537
-0.154884
-0.160946
-0.16671
-0.172162
-0.177289
-0.18208
-0.186526
-0.190616
-0.194344
-0.197703
-0.200691
-0.203305
-0.205547
-0.207421
-0.208935
-0.210102
-0.210939
-0.211428
-0.00160848
-0.00631612
-0.0114394
-0.0169629
-0.0228552
-0.0290838
-0.0356129
-0.0424022
-0.0494081
-0.0565847
-0.0638851
-0.0712631
-0.0786738
-0.0860749
-0.0934271
-0.100695
-0.107845
-0.11485
-0.121683
-0.128322
-0.134749
-0.140944
-0.146893
-0.15258
-0.157992
-0.163116
-0.16794
-0.172453
-0.176646
-0.180509
-0.184035
-0.187218
-0.190056
-0.192547
-0.194692
-0.196495
-0.197964
-0.199111
-0.199952
-0.200463
-0.00357768
-0.0080053
-0.0128162
-0.017996
-0.0235154
-0.0293438
-0.0354475
-0.0417887
-0.0483267
-0.0550189
-0.0618222
-0.0686944
-0.0755947
-0.0824848
-0.089329
-0.0960951
-0.102754
-0.10928
-0.115649
-0.121843
-0.127841
-0.133629
-0.13919
-0.144512
-0.14958
-0.154384
-0.15891
-0.16315
-0.167094
-0.170733
-0.17406
-0.177069
-0.179759
-0.182127
-0.184175
-0.185905
-0.187327
-0.188453
-0.189294
-0.189823
-0.00533494
-0.00949704
-0.0140147
-0.0188733
-0.0240442
-0.0294981
-0.0352027
-0.0411223
-0.0472188
-0.0534529
-0.059785
-0.0661766
-0.0725908
-0.0789932
-0.0853519
-0.0916381
-0.0978259
-0.103892
-0.109816
-0.115579
-0.121165
-0.126559
-0.131746
-0.136712
-0.141448
-0.145939
-0.150177
-0.15415
-0.15785
-0.16127
-0.164401
-0.16724
-0.169783
-0.172029
-0.17398
-0.175638
-0.177011
-0.178113
-0.178952
-0.179496
-0.00687812
-0.0107919
-0.0150357
-0.0195938
-0.024438
-0.0295395
-0.0348675
-0.0403882
-0.046066
-0.0518647
-0.0577482
-0.0636818
-0.0696323
-0.075569
-0.0814639
-0.0872913
-0.0930284
-0.0986546
-0.104151
-0.109502
-0.114691
-0.119705
-0.124531
-0.129156
-0.133569
-0.137759
-0.141717
-0.145432
-0.148896
-0.152101
-0.155042
-0.157714
-0.160114
-0.16224
-0.164095
-0.165681
-0.167004
-0.16808
-0.168914
-0.169469
-0.0082012
-0.011885
-0.0158735
-0.02015
-0.0246864
-0.0294548
-0.0344255
-0.0395669
-0.0448459
-0.0502295
-0.0556851
-0.0611816
-0.0666897
-0.0721824
-0.0776348
-0.0830247
-0.0883317
-0.0935377
-0.0986261
-0.103582
-0.108392
-0.113042
-0.117522
-0.121819
-0.125923
-0.129823
-0.133511
-0.136976
-0.140212
-0.143211
-0.145967
-0.148477
-0.150737
-0.152747
-0.154508
-0.156021
-0.157294
-0.158341
-0.159167
-0.159731
-0.009298
-0.0127693
-0.0165195
-0.0205309
-0.024776
-0.0292278
-0.0338581
-0.0386373
-0.0435354
-0.0485225
-0.0535697
-0.0586495
-0.0637362
-0.0688061
-0.0738377
-0.0788113
-0.0837093
-0.0885156
-0.0932155
-0.0977957
-0.102244
-0.106548
-0.110697
-0.114681
-0.118489
-0.122112
-0.125541
-0.128768
-0.131784
-0.134584
-0.137163
-0.139516
-0.141641
-0.143537
-0.145204
-0.146646
-0.147868
-0.148885
-0.149699
-0.150269
-0.010165
-0.013439
-0.0169652
-0.0207255
-0.0246931
-0.0288422
-0.0331466
-0.0375793
-0.0421131
-0.0467217
-0.0513795
-0.0560627
-0.0607489
-0.0654176
-0.0700501
-0.0746293
-0.0791398
-0.0835675
-0.0878994
-0.0921236
-0.0962288
-0.100204
-0.10404
-0.107726
-0.111252
-0.114611
-0.117793
-0.12079
-0.123597
-0.126207
-0.128614
-0.130816
-0.132811
-0.134596
-0.136172
-0.137542
-0.138713
-0.139698
-0.140499
-0.141071
-0.0108025
-0.013891
-0.0172042
-0.0207243
-0.0244255
-0.028284
-0.0322757
-0.0363763
-0.040562
-0.0448096
-0.0490972
-0.053404
-0.0577108
-0.0619999
-0.0662553
-0.0704622
-0.0746071
-0.0786778
-0.0826627
-0.0865511
-0.0903325
-0.0939972
-0.0975357
-0.100939
-0.104198
-0.107305
-0.110252
-0.113032
-0.115638
-0.118066
-0.12031
-0.122366
-0.124234
-0.125911
-0.127399
-0.128698
-0.129817
-0.130769
-0.131554
-0.132124
-0.0112152
-0.0141256
-0.0172335
-0.0205214
-0.0239654
-0.0275437
-0.0312349
-0.0350177
-0.0388712
-0.0427756
-0.0467119
-0.0506626
-0.0546112
-0.0585426
-0.0624431
-0.0662999
-0.0701014
-0.0738367
-0.0774955
-0.0810678
-0.0845443
-0.0879158
-0.0911736
-0.0943094
-0.0973153
-0.100184
-0.102907
-0.10548
-0.107896
-0.110149
-0.112236
-0.114153
-0.115898
-0.117471
-0.118871
-0.120102
-0.121168
-0.122085
-0.12285
-0.123417
-0.011411
-0.0141471
-0.017054
-0.0201156
-0.02331
-0.0266179
-0.0300204
-0.0334993
-0.0370366
-0.0406155
-0.0442199
-0.0478348
-0.0514464
-0.0550419
-0.0586095
-0.0621383
-0.065618
-0.0690389
-0.0723916
-0.075667
-0.0788565
-0.0819518
-0.0849449
-0.0878283
-0.0905947
-0.0932373
-0.0957495
-0.0981252
-0.100359
-0.102446
-0.104382
-0.106165
-0.107792
-0.109262
-0.110577
-0.111739
-0.112753
-0.113633
-0.114376
-0.114935
-0.0114007
-0.0139629
-0.0166713
-0.019511
-0.0224628
-0.0255096
-0.0286353
-0.0318243
-0.0350616
-0.0383327
-0.0416242
-0.0449235
-0.0482191
-0.0515
-0.0547562
-0.0579781
-0.0611566
-0.0642829
-0.0673484
-0.0703449
-0.0732644
-0.0760996
-0.0788433
-0.0814885
-0.0840286
-0.0864574
-0.0887688
-0.0909571
-0.0930171
-0.0949445
-0.0967358
-0.0983884
-0.0999008
-0.101272
-0.102504
-0.103596
-0.104557
-0.105398
-0.106117
-0.106664
-0.0111975
-0.0135846
-0.0160958
-0.0187178
-0.0214336
-0.0242287
-0.0270895
-0.0300028
-0.0329559
-0.0359367
-0.0389342
-0.0419376
-0.0449373
-0.047924
-0.050889
-0.0538237
-0.0567201
-0.05957
-0.0623658
-0.0651
-0.0677656
-0.0703558
-0.0728641
-0.0752843
-0.0776104
-0.0798363
-0.0819565
-0.0839658
-0.0858596
-0.0876338
-0.0892855
-0.0908125
-0.0922134
-0.093488
-0.0946366
-0.0956609
-0.0965668
-0.0973674
-0.0980578
-0.0985913
-0.0108167
-0.0130272
-0.0153426
-0.0177512
-0.0202382
-0.0227913
-0.0253991
-0.0280506
-0.0307351
-0.0334427
-0.036164
-0.0388902
-0.0416129
-0.0443242
-0.0470164
-0.0496819
-0.0523133
-0.0549035
-0.0574456
-0.0599328
-0.062359
-0.0647179
-0.0670038
-0.0692108
-0.0713334
-0.0733661
-0.0753038
-0.0771417
-0.0788757
-0.0805025
-0.0820193
-0.0834244
-0.0847167
-0.0858959
-0.0869624
-0.0879178
-0.0887679
-0.0895253
-0.0901849
-0.0907012
-0.0102759
-0.0123092
-0.0144311
-0.0166313
-0.0188971
-0.0212182
-0.0235849
-0.0259882
-0.0284191
-0.0308695
-0.0333314
-0.0357973
-0.0382601
-0.0407128
-0.0431486
-0.0455608
-0.0479428
-0.0502882
-0.0525908
-0.0548447
-0.0570443
-0.0591841
-0.0612587
-0.0632628
-0.0651912
-0.067039
-0.0688016
-0.0704747
-0.0720548
-0.0735389
-0.074925
-0.0762113
-0.0773971
-0.078482
-0.0794666
-0.0803524
-0.0811452
-0.0818573
-0.0824833
-0.0829795
-0.00959482
-0.0114518
-0.0133838
-0.0153817
-0.0174346
-0.0195337
-0.021671
-0.023839
-0.0260302
-0.0282378
-0.0304552
-0.0326758
-0.0348937
-0.0371025
-0.0392964
-0.0414693
-0.0436153
-0.0457289
-0.0478045
-0.0498369
-0.051821
-0.0537518
-0.0556245
-0.0574342
-0.0591763
-0.0608463
-0.0624401
-0.0639541
-0.0653852
-0.066731
-0.0679896
-0.0691596
-0.0702403
-0.0712317
-0.0721342
-0.0729495
-0.0736834
-0.074348
-0.0749377
-0.075411
-0.00879527
-0.0104791
-0.0122264
-0.014029
-0.0158775
-0.0177644
-0.0196833
-0.0216276
-0.0235915
-0.025569
-0.0275547
-0.029543
-0.0315286
-0.0335061
-0.0354702
-0.0374157
-0.0393372
-0.0412299
-0.0430889
-0.0449095
-0.0466872
-0.0484174
-0.0500959
-0.0517183
-0.0532804
-0.0547784
-0.0562088
-0.0575684
-0.0588547
-0.0600655
-0.0611992
-0.0622546
-0.0632313
-0.0641293
-0.0649492
-0.065693
-0.0663665
-0.0669815
-0.0675326
-0.0679803
-0.00790143
-0.00941702
-0.0109859
-0.0126007
-0.0142532
-0.0159373
-0.0176475
-0.0193786
-0.0211256
-0.0228838
-0.0246485
-0.0264151
-0.0281789
-0.0299353
-0.0316796
-0.0334072
-0.0351134
-0.0367939
-0.0384445
-0.0400609
-0.0416393
-0.0431756
-0.044666
-0.0461067
-0.0474942
-0.0488251
-0.0500964
-0.0513055
-0.05245
-0.0535282
-0.0545388
-0.0554807
-0.0563537
-0.0571581
-0.0578948
-0.058566
-0.0591777
-0.0597411
-0.0602512
-0.0606708
-0.00693942
-0.00829312
-0.00969049
-0.0111249
-0.0125893
-0.0140787
-0.0155886
-0.017115
-0.0186538
-0.0202012
-0.0217534
-0.0233066
-0.0248568
-0.0263999
-0.0279319
-0.0294487
-0.0309464
-0.0324212
-0.0338694
-0.0352875
-0.0366719
-0.0380194
-0.0393266
-0.0405902
-0.0418072
-0.0429747
-0.0440903
-0.0451515
-0.0461565
-0.0471037
-0.0479921
-0.048821
-0.0495904
-0.0503007
-0.0509533
-0.0515507
-0.0520989
-0.0526089
-0.0530758
-0.053465
-0.00593677
-0.00713549
-0.00836814
-0.0096288
-0.0109118
-0.0122132
-0.0135295
-0.0148577
-0.0161948
-0.0175378
-0.0188838
-0.0202295
-0.0215716
-0.0229068
-0.0242315
-0.0255423
-0.0268361
-0.0281095
-0.0293596
-0.0305833
-0.0317778
-0.0329402
-0.0340677
-0.0351575
-0.0362071
-0.037214
-0.038176
-0.0390912
-0.039958
-0.0407751
-0.0415417
-0.0422576
-0.0429228
-0.0435383
-0.0441058
-0.044628
-0.0451109
-0.0455655
-0.0459873
-0.0463439
-0.00492174
-0.00597208
-0.00704584
-0.00813812
-0.00924471
-0.0103628
-0.0114901
-0.0126247
-0.0137644
-0.0149071
-0.0160505
-0.0171922
-0.0183294
-0.0194595
-0.0205797
-0.0216873
-0.0227796
-0.0238542
-0.0249087
-0.0259407
-0.0269478
-0.0279276
-0.0288777
-0.0297959
-0.0306799
-0.0315277
-0.0323374
-0.0331075
-0.0338367
-0.034524
-0.0351688
-0.0357712
-0.0363315
-0.0368511
-0.0373319
-0.0377769
-0.0381926
-0.0385897
-0.0389645
-0.0392866
-0.00392238
-0.00482946
-0.00574831
-0.00667547
-0.00760843
-0.00854578
-0.00948646
-0.0104294
-0.0113736
-0.0123175
-0.0132598
-0.0141986
-0.0151319
-0.0160578
-0.0169743
-0.0178795
-0.0187714
-0.0196483
-0.0205083
-0.0213497
-0.0221705
-0.0229688
-0.0237426
-0.02449
-0.0252092
-0.0258985
-0.0265563
-0.0271815
-0.0277732
-0.0283304
-0.0288531
-0.0293412
-0.0297956
-0.0302176
-0.0306096
-0.030975
-0.0313206
-0.0316576
-0.0319838
-0.0322697
-0.00296377
-0.00372877
-0.00449296
-0.00525476
-0.00601367
-0.0067698
-0.00752327
-0.00827407
-0.00902197
-0.00976644
-0.0105067
-0.0112418
-0.0119705
-0.0126916
-0.013404
-0.0141064
-0.0147977
-0.0154768
-0.0161424
-0.0167931
-0.0174276
-0.0180443
-0.0186417
-0.0192182
-0.0197724
-0.020303
-0.020809
-0.0212893
-0.0217432
-0.0221703
-0.0225703
-0.0229434
-0.0232905
-0.0236131
-0.0239137
-0.0241962
-0.0244681
-0.0247416
-0.0250173
-0.0252649
-0.00207274
-0.00269254
-0.00329824
-0.00389075
-0.00447181
-0.00504308
-0.00560588
-0.00616121
-0.0067097
-0.00725167
-0.00778714
-0.00831591
-0.00883763
-0.00935191
-0.00985829
-0.0103563
-0.0108455
-0.0113252
-0.0117947
-0.0122532
-0.0126998
-0.0131333
-0.0135527
-0.0139569
-0.0143449
-0.014716
-0.0150692
-0.0154039
-0.0157196
-0.0160158
-0.0162925
-0.0165497
-0.0167881
-0.0170091
-0.0172151
-0.0174104
-0.0176031
-0.0178083
-0.0180318
-0.0182388
-0.00132208
-0.0018144
-0.00227427
-0.00270618
-0.00311484
-0.00350403
-0.00387673
-0.00423534
-0.00458175
-0.00491741
-0.00524339
-0.00556052
-0.0058694
-0.00617052
-0.00646422
-0.00675078
-0.00703033
-0.00730288
-0.0075683
-0.00782631
-0.00807653
-0.00831851
-0.00855172
-0.00877568
-0.0089899
-0.00919393
-0.00938735
-0.00956974
-0.00974068
-0.00989977
-0.0100467
-0.0101812
-0.0103034
-0.010414
-0.0105142
-0.0106067
-0.010699
-0.0108115
-0.0109681
-0.0111248
-0.000766027
-0.00114116
-0.00146422
-0.00174243
-0.00198317
-0.00219265
-0.00237589
-0.00253699
-0.00267935
-0.00280578
-0.00291862
-0.00301981
-0.00311101
-0.00319361
-0.00326881
-0.00333759
-0.00340079
-0.00345908
-0.00351298
-0.0035629
-0.00360912
-0.00365187
-0.00369129
-0.00372748
-0.0037605
-0.00379036
-0.003817
-0.00384029
-0.00386
-0.00387579
-0.00388722
-0.00389378
-0.00389495
-0.00389032
-0.00387969
-0.0038633
-0.0038444
-0.00383807
-0.00387554
-0.00394843
)
;

boundaryField
{
    leftWall
    {
        type            fixedFluxPressure;
        gradient        nonuniform 0();
        value           nonuniform 0();
    }
    rightWall
    {
        type            fixedFluxPressure;
        gradient        uniform 0;
        value           nonuniform List<scalar> 
43
(
-0.456653
-0.438985
-0.421704
-0.404822
-0.388348
-0.372289
-0.35665
-0.341431
-0.326632
-0.312252
-0.298282
-0.284719
-0.271555
-0.258785
-0.246396
-0.234382
-0.22273
-0.211428
-0.200463
-0.189823
-0.179496
-0.169469
-0.159731
-0.150269
-0.141071
-0.132124
-0.123417
-0.114935
-0.106664
-0.0985913
-0.0907012
-0.0829795
-0.075411
-0.0679803
-0.0606708
-0.053465
-0.0463439
-0.0392866
-0.0322697
-0.0252649
-0.0182388
-0.0111248
-0.00394843
)
;
    }
    lowerWall
    {
        type            fixedFluxPressure;
        gradient        nonuniform 0();
        value           nonuniform 0();
    }
    atmosphere
    {
        type            totalPressure;
        rho             rho;
        psi             none;
        gamma           1;
        p0              uniform 0;
        value           uniform 0;
    }
    defaultFaces
    {
        type            empty;
    }
    procBoundary3to1
    {
        type            processor;
        value           nonuniform List<scalar> 
45
(
0.227633
0.221275
0.210948
0.196953
0.179794
0.159021
0.13456
0.107743
0.0790895
0.0491491
0.0183966
-0.0127505
-0.0439229
-0.0748005
-0.105109
-0.134615
-0.163119
-0.190455
-0.216495
-0.241141
-0.264332
-0.286038
-0.306255
-0.325002
-0.34232
-0.358267
-0.37291
-0.38632
-0.398572
-0.409732
-0.419862
-0.429014
-0.437232
-0.444553
-0.45101
-0.456632
-0.461448
-0.465491
-0.468793
-0.471387
-0.473301
-0.474554
-0.475143
-0.475115
-0.474693
)
;
    }
    procBoundary3to2
    {
        type            processor;
        value           nonuniform List<scalar> 
43
(
0.200778
0.175524
0.15294
0.132686
0.11455
0.0984156
0.0842452
0.0720137
0.0616646
0.0530788
0.0460613
0.0403558
0.0356786
0.0317492
0.0283142
0.0251687
0.0221745
0.0192625
0.0164193
0.01367
0.0110639
0.00866113
0.00651673
0.0046675
0.0031264
0.00188496
0.000919132
0.00019537
-0.000323841
-0.000675142
-0.00089026
-0.000992991
-0.000998102
-0.00091312
-0.000742335
-0.00049035
-0.000163087
0.000232961
0.000688993
0.00117703
0.0016464
0.00227395
0.00310532
)
;
    }
}


// ************************************************************************* //
