/*--------------------------------*- C++ -*----------------------------------*\
| =========                 |                                                 |
| \\      /  F ield         | OpenFOAM: The Open Source CFD Toolbox           |
|  \\    /   O peration     | Version:  5.0                                   |
|   \\  /    A nd           | Web:      www.OpenFOAM.org                      |
|    \\/     M anipulation  |                                                 |
\*---------------------------------------------------------------------------*/
FoamFile
{
    version     2.0;
    format      ascii;
    class       surfaceScalarField;
    location    "0.2";
    object      phi;
}
// * * * * * * * * * * * * * * * * * * * * * * * * * * * * * * * * * * * * * //

dimensions      [0 3 -1 0 0 0 0];

internalField   nonuniform List<scalar> 
3782
(
4.86527e-05
-6.51069e-06
4.65261e-05
-8.32393e-06
4.44195e-05
-1.00266e-05
4.23326e-05
-1.16148e-05
4.02671e-05
-1.3085e-05
3.82255e-05
-1.44339e-05
3.62115e-05
-1.5659e-05
3.42291e-05
-1.67585e-05
3.2283e-05
-1.7731e-05
3.03784e-05
-1.8576e-05
2.85205e-05
-1.9294e-05
2.67145e-05
-1.98861e-05
2.49656e-05
-2.03543e-05
2.32786e-05
-2.07016e-05
2.16578e-05
-2.09318e-05
2.0107e-05
-2.10495e-05
1.86292e-05
-2.106e-05
1.72267e-05
-2.09692e-05
1.5901e-05
-2.07836e-05
1.46527e-05
-2.05099e-05
1.34818e-05
-2.01548e-05
1.23874e-05
-1.97251e-05
1.1368e-05
-1.92273e-05
1.04217e-05
-1.86677e-05
9.54601e-06
-1.8052e-05
8.73823e-06
-1.73854e-05
7.99536e-06
-1.66727e-05
7.31431e-06
-1.59179e-05
6.69196e-06
-1.51246e-05
6.12526e-06
-1.42958e-05
5.6113e-06
-1.34342e-05
5.14733e-06
-1.25424e-05
4.73085e-06
-1.16228e-05
4.35973e-06
-1.06784e-05
4.03234e-06
-9.71341e-06
3.74776e-06
-8.7335e-06
3.5061e-06
-7.74749e-06
3.30899e-06
-6.7688e-06
3.16015e-06
-5.818e-06
3.06572e-06
-4.9264e-06
3.03325e-06
-4.14021e-06
3.06735e-06
-3.52319e-06
-3.16429e-06
-4.61908e-06
4.46876e-05
-2.86702e-06
4.33722e-05
-1.25826e-06
4.20266e-05
4.06676e-05
2.06329e-07
-6.44709e-06
4.28108e-05
-4.70402e-06
4.16291e-05
-3.09677e-06
4.04194e-05
3.91963e-05
-1.62544e-06
-8.16401e-06
4.09481e-05
-6.42967e-06
3.98948e-05
-4.82465e-06
3.88144e-05
3.772e-05
-3.34836e-06
-9.76681e-06
3.91001e-05
-8.04205e-06
3.817e-05
-6.44076e-06
3.72131e-05
3.62411e-05
-4.96181e-06
-1.12531e-05
3.72682e-05
-9.53958e-06
3.64565e-05
-7.94418e-06
3.56177e-05
3.47622e-05
-6.46528e-06
-1.26205e-05
3.54548e-05
-1.09208e-05
3.47568e-05
-9.33405e-06
3.40309e-05
3.32865e-05
-7.85834e-06
-1.38673e-05
3.3663e-05
-1.21846e-05
3.30741e-05
-1.06097e-05
3.24561e-05
3.18175e-05
-9.14072e-06
-1.49921e-05
3.18967e-05
-1.333e-05
3.14119e-05
-1.17708e-05
3.08968e-05
3.0359e-05
-1.03123e-05
-1.59942e-05
3.01599e-05
-1.43567e-05
2.97744e-05
-1.28172e-05
2.93573e-05
2.89152e-05
-1.13733e-05
-1.68733e-05
2.84573e-05
-1.52649e-05
2.8166e-05
-1.37492e-05
2.78416e-05
2.74903e-05
-1.23242e-05
-1.76301e-05
2.67933e-05
-1.6055e-05
2.65909e-05
-1.45676e-05
2.63542e-05
2.60884e-05
-1.31657e-05
-1.82655e-05
2.51727e-05
-1.67284e-05
2.50539e-05
-1.52736e-05
2.48993e-05
2.4714e-05
-1.38991e-05
-1.87817e-05
2.36002e-05
-1.7287e-05
2.35591e-05
-1.58689e-05
2.34812e-05
2.33711e-05
-1.4526e-05
-1.91813e-05
2.20799e-05
-1.77331e-05
2.21108e-05
-1.63559e-05
2.21041e-05
2.20637e-05
-1.50485e-05
-1.94678e-05
2.06158e-05
-1.80698e-05
2.07129e-05
-1.67373e-05
2.07715e-05
2.07956e-05
-1.54691e-05
-1.96451e-05
1.92115e-05
-1.83009e-05
1.93686e-05
-1.70164e-05
1.9487e-05
1.957e-05
-1.57908e-05
-1.97182e-05
1.78697e-05
-1.84306e-05
1.8081e-05
-1.7197e-05
1.82533e-05
1.839e-05
-1.6017e-05
-1.96924e-05
1.65928e-05
-1.84637e-05
1.68523e-05
-1.72834e-05
1.7073e-05
1.72579e-05
-1.61514e-05
-1.95732e-05
1.53824e-05
-1.84052e-05
1.56843e-05
-1.72801e-05
1.5948e-05
1.6176e-05
-1.61982e-05
-1.93668e-05
1.42393e-05
-1.82606e-05
1.45781e-05
-1.71921e-05
1.48794e-05
1.51456e-05
-1.61617e-05
-1.90792e-05
1.31637e-05
-1.80353e-05
1.35342e-05
-1.70242e-05
1.38683e-05
1.41677e-05
-1.60464e-05
-1.87167e-05
1.21553e-05
-1.77351e-05
1.25527e-05
-1.67815e-05
1.29147e-05
1.32431e-05
-1.58568e-05
-1.82851e-05
1.12131e-05
-1.73653e-05
1.16328e-05
-1.64691e-05
1.20185e-05
1.23716e-05
-1.55976e-05
-1.77903e-05
1.03357e-05
-1.69311e-05
1.07737e-05
-1.60917e-05
1.11791e-05
1.15531e-05
-1.52733e-05
-1.72376e-05
9.52129e-06
-1.64378e-05
9.97387e-06
-1.56542e-05
1.03955e-05
1.0787e-05
-1.4888e-05
-1.66319e-05
8.76773e-06
-1.58897e-05
9.23175e-06
-1.51607e-05
9.6664e-06
1.00723e-05
-1.4446e-05
-1.59777e-05
8.07272e-06
-1.52914e-05
8.54543e-06
-1.46153e-05
8.99037e-06
9.40802e-06
-1.3951e-05
-1.5279e-05
7.43378e-06
-1.46464e-05
7.91287e-06
-1.40218e-05
8.36577e-06
8.79278e-06
-1.34066e-05
-1.45393e-05
6.84843e-06
-1.39584e-05
7.33199e-06
-1.33835e-05
7.79089e-06
8.22526e-06
-1.2816e-05
-1.37616e-05
6.3142e-06
-1.32303e-05
6.80071e-06
-1.27035e-05
7.26401e-06
7.7041e-06
-1.21823e-05
-1.29488e-05
5.82872e-06
-1.24651e-05
6.31703e-06
-1.19846e-05
6.78346e-06
7.22791e-06
-1.15084e-05
-1.21034e-05
5.38978e-06
-1.16655e-05
5.87904e-06
-1.12297e-05
6.34767e-06
6.79541e-06
-1.07972e-05
-1.12283e-05
4.99536e-06
-1.08344e-05
5.48506e-06
-1.04419e-05
5.95521e-06
6.40544e-06
-1.0052e-05
-1.03268e-05
4.64375e-06
-9.97545e-06
5.13365e-06
-9.62515e-06
5.60489e-06
6.05701e-06
-9.27673e-06
-9.40337e-06
4.3337e-06
-9.09348e-06
4.82375e-06
-8.78442e-06
5.29582e-06
5.74936e-06
-8.47678e-06
-8.46431e-06
4.0645e-06
-8.19535e-06
4.55479e-06
-7.92703e-06
5.02749e-06
5.482e-06
-7.65968e-06
-7.51927e-06
3.83628e-06
-7.29131e-06
4.32682e-06
-7.06366e-06
4.79983e-06
5.25473e-06
-6.83639e-06
-6.5828e-06
3.65027e-06
-6.39666e-06
4.14068e-06
-6.21009e-06
4.61326e-06
5.06757e-06
-6.02293e-06
-5.67677e-06
3.50903e-06
-5.53406e-06
3.99797e-06
-5.38932e-06
4.46852e-06
4.92052e-06
-5.24226e-06
-4.83362e-06
3.41626e-06
-4.7363e-06
3.90065e-06
-4.63392e-06
4.36615e-06
4.81301e-06
-4.52642e-06
-4.09954e-06
3.37559e-06
-4.0486e-06
3.84973e-06
-3.9877e-06
4.30525e-06
4.74286e-06
-3.91754e-06
-3.53482e-06
3.38723e-06
-3.52768e-06
3.84259e-06
-3.504e-06
4.28158e-06
4.70481e-06
-3.46595e-06
-3.21543e-06
-3.23994e-06
-3.24233e-06
-3.22639e-06
1.67245e-06
4.38006e-05
2.96146e-06
4.20766e-05
4.07718e-06
4.03421e-05
5.02612e-06
3.86144e-05
5.81701e-06
3.69088e-05
6.46026e-06
3.52384e-05
6.96746e-06
3.36139e-05
7.35089e-06
3.20447e-05
7.62317e-06
3.05383e-05
7.79684e-06
2.91007e-05
7.88411e-06
2.77363e-05
7.8966e-06
2.64481e-05
7.84512e-06
2.52379e-05
7.73961e-06
2.41063e-05
7.58905e-06
2.3053e-05
7.4014e-06
2.20769e-05
7.18364e-06
2.11765e-05
6.94182e-06
2.035e-05
6.68105e-06
1.95955e-05
6.40564e-06
1.89111e-05
6.11912e-06
1.82951e-05
5.82436e-06
1.77461e-05
5.5236e-06
1.72629e-05
5.21857e-06
1.68446e-05
4.91053e-06
1.6491e-05
4.60034e-06
1.62019e-05
4.28854e-06
1.59775e-05
3.97538e-06
1.58184e-05
3.66085e-06
1.57255e-05
3.34479e-06
1.56999e-05
3.02685e-06
1.57429e-05
2.70654e-06
1.58563e-05
2.3833e-06
1.60416e-05
2.05648e-06
1.63006e-05
1.72539e-06
1.66343e-05
1.38935e-06
1.70428e-05
1.04784e-06
1.75233e-05
7.0067e-07
1.80661e-05
3.48755e-07
1.8632e-05
1.88251e-05
-1.41695e-07
4.23168e-05
1.17566e-06
4.07593e-05
2.3301e-06
3.91877e-05
3.32749e-06
3.7617e-05
4.17558e-06
3.60608e-05
4.88354e-06
3.45304e-05
5.46151e-06
3.3036e-05
5.92031e-06
3.15859e-05
6.27104e-06
3.01876e-05
6.52484e-06
2.88468e-05
6.69259e-06
2.75685e-05
6.78478e-06
2.63559e-05
6.81127e-06
2.52114e-05
6.78122e-06
2.41364e-05
6.70301e-06
2.31312e-05
6.58418e-06
2.21957e-05
6.43143e-06
2.13292e-05
6.25063e-06
2.05308e-05
6.04689e-06
1.97992e-05
5.82455e-06
1.91334e-05
5.58727e-06
1.85324e-05
5.33808e-06
1.79953e-05
5.07945e-06
1.75215e-05
4.81335e-06
1.71107e-05
4.5413e-06
1.6763e-05
4.26445e-06
1.64787e-05
3.98361e-06
1.62583e-05
3.69931e-06
1.61027e-05
3.41184e-06
1.60129e-05
3.12128e-06
1.59904e-05
2.82757e-06
1.60367e-05
2.53048e-06
1.61534e-05
2.22969e-06
1.63424e-05
1.92479e-06
1.66055e-05
1.61534e-06
1.69438e-05
1.3009e-06
1.73572e-05
9.8115e-07
1.78431e-05
6.5607e-07
1.83912e-05
3.26607e-07
1.89615e-05
1.91517e-05
-1.85012e-06
4.08186e-05
-5.08609e-07
3.94178e-05
6.79391e-07
3.79997e-05
1.71905e-06
3.65774e-05
2.61724e-06
3.51626e-05
3.3821e-06
3.37656e-05
4.02261e-06
3.23954e-05
4.54833e-06
3.10602e-05
4.96911e-06
2.97668e-05
5.29486e-06
2.85211e-05
5.53536e-06
2.7328e-05
5.70006e-06
2.61912e-05
5.79795e-06
2.51135e-05
5.83749e-06
2.40968e-05
5.82646e-06
2.31422e-05
5.77196e-06
2.22502e-05
5.68041e-06
2.14208e-05
5.55748e-06
2.06537e-05
5.40818e-06
1.99485e-05
5.23685e-06
1.93048e-05
5.04721e-06
1.8722e-05
4.84242e-06
1.82e-05
4.62511e-06
1.77388e-05
4.39744e-06
1.73384e-05
4.16116e-06
1.69993e-05
3.91766e-06
1.67222e-05
3.66797e-06
1.6508e-05
3.4129e-06
1.63578e-05
3.15298e-06
1.62729e-05
2.88854e-06
1.62549e-05
2.61977e-06
1.63054e-05
2.34667e-06
1.64265e-05
2.06916e-06
1.66199e-05
1.78709e-06
1.68876e-05
1.50022e-06
1.72306e-05
1.20835e-06
1.76491e-05
9.11348e-07
1.81401e-05
6.09361e-07
1.86932e-05
3.0335e-07
1.92675e-05
1.9455e-05
-3.45264e-06
3.93094e-05
-2.09154e-06
3.80567e-05
-8.75408e-07
3.67835e-05
2.00434e-07
3.55015e-05
1.14204e-06
3.4221e-05
1.95657e-06
3.2951e-05
2.65201e-06
3.17e-05
3.23685e-06
3.04753e-05
3.7199e-06
2.92837e-05
4.11001e-06
2.8131e-05
4.41597e-06
2.7022e-05
4.64635e-06
2.59608e-05
4.80937e-06
2.49505e-05
4.91278e-06
2.39934e-05
4.96384e-06
2.30911e-05
4.96923e-06
2.22448e-05
4.935e-06
2.1455e-05
4.86665e-06
2.07221e-05
4.76904e-06
2.00461e-05
4.64646e-06
1.94273e-05
4.50266e-06
1.88658e-05
4.34086e-06
1.83618e-05
4.16382e-06
1.79158e-05
3.97384e-06
1.75283e-05
3.77286e-06
1.72003e-05
3.56245e-06
1.69326e-05
3.3439e-06
1.67265e-05
3.11819e-06
1.65835e-05
2.88609e-06
1.6505e-05
2.64817e-06
1.64928e-05
2.40483e-06
1.65488e-05
2.1563e-06
1.6675e-05
1.90273e-06
1.68735e-05
1.64417e-06
1.71461e-05
1.38062e-06
1.74942e-05
1.11206e-06
1.79177e-05
8.38576e-07
1.84136e-05
5.60461e-07
1.89713e-05
2.78781e-07
1.95492e-05
1.97338e-05
-4.94894e-06
3.77931e-05
-3.57292e-06
3.66807e-05
-2.33415e-06
3.55448e-05
-1.22827e-06
3.43956e-05
-2.49833e-07
3.32425e-05
6.07497e-07
3.20937e-05
1.35075e-06
3.09567e-05
1.98749e-06
2.98386e-05
2.52557e-06
2.87456e-05
2.97295e-06
2.76836e-05
3.33756e-06
2.66574e-05
3.62718e-06
2.56712e-05
3.84931e-06
2.47283e-05
4.0111e-06
2.38316e-05
4.11927e-06
2.2983e-05
4.18009e-06
2.2184e-05
4.19931e-06
2.14358e-05
4.18215e-06
2.07392e-05
4.13334e-06
2.00949e-05
4.0571e-06
1.95035e-05
3.95714e-06
1.89657e-05
3.83673e-06
1.84822e-05
3.69869e-06
1.80538e-05
3.54545e-06
1.76816e-05
3.37908e-06
1.73666e-05
3.20133e-06
1.71103e-05
3.01364e-06
1.69142e-05
2.81722e-06
1.67799e-05
2.61302e-06
1.67092e-05
2.40182e-06
1.6704e-05
2.1842e-06
1.67664e-05
1.96064e-06
1.68986e-05
1.73146e-06
1.71027e-05
1.49693e-06
1.73806e-05
1.25724e-06
1.77339e-05
1.01259e-06
1.81623e-05
7.63227e-07
1.86629e-05
5.09649e-07
1.92249e-05
2.53104e-07
1.98058e-05
1.99869e-05
-6.33888e-06
3.62736e-05
-4.95262e-06
3.52944e-05
-3.69656e-06
3.42887e-05
-2.56662e-06
3.32657e-05
-1.55779e-06
3.22337e-05
-6.64368e-07
3.12003e-05
1.19902e-07
3.01725e-05
8.01703e-07
2.91568e-05
1.38802e-06
2.81593e-05
1.88602e-06
2.71856e-05
2.30285e-06
2.62405e-05
2.6456e-06
2.53284e-05
2.92111e-06
2.44528e-05
3.13596e-06
2.36168e-05
3.29641e-06
2.28225e-05
3.4083e-06
2.20721e-05
3.47705e-06
2.1367e-05
3.50768e-06
2.07086e-05
3.50472e-06
2.00979e-05
3.47228e-06
1.9536e-05
3.41403e-06
1.9024e-05
3.33322e-06
1.8563e-05
3.23273e-06
1.81543e-05
3.11508e-06
1.77992e-05
2.98245e-06
1.74993e-05
2.8367e-06
1.72561e-05
2.67944e-06
1.70715e-05
2.51204e-06
1.69473e-05
2.33562e-06
1.68856e-05
2.15113e-06
1.68884e-05
1.95937e-06
1.69581e-05
1.76098e-06
1.70969e-05
1.55649e-06
1.73071e-05
1.34634e-06
1.75908e-05
1.13092e-06
1.79493e-05
9.10619e-07
1.83826e-05
6.85886e-07
1.88877e-05
4.57411e-07
1.94533e-05
2.26663e-07
2.00365e-05
2.02136e-05
-7.62243e-06
3.47554e-05
-6.2307e-06
3.39027e-05
-4.9626e-06
3.30206e-05
-3.81429e-06
3.21174e-05
-2.78118e-06
3.12006e-05
-1.8581e-06
3.02772e-05
-1.03942e-06
2.93538e-05
-3.19134e-07
2.84365e-05
3.08967e-07
2.75312e-05
8.51279e-07
2.66433e-05
1.31425e-06
2.57776e-05
1.70431e-06
2.49384e-05
2.02772e-06
2.41294e-05
2.29054e-06
2.33539e-05
2.49855e-06
2.26145e-05
2.65722e-06
2.19134e-05
2.77168e-06
2.12526e-05
2.84666e-06
2.06336e-05
2.88653e-06
2.0058e-05
2.89527e-06
1.95272e-05
2.87646e-06
1.90428e-05
2.83335e-06
1.86061e-05
2.76883e-06
1.82188e-05
2.68546e-06
1.78826e-05
2.58549e-06
1.75992e-05
2.47092e-06
1.73706e-05
2.34347e-06
1.71989e-05
2.20463e-06
1.70861e-05
2.05569e-06
1.70345e-05
1.89778e-06
1.70463e-05
1.73182e-06
1.71241e-05
1.55866e-06
1.72701e-05
1.37898e-06
1.74868e-05
1.19342e-06
1.77763e-05
1.00254e-06
1.81401e-05
8.06914e-07
1.85782e-05
6.07181e-07
1.90874e-05
4.04234e-07
1.96563e-05
1.99749e-07
2.0241e-05
2.04134e-05
-8.79976e-06
3.32428e-05
-7.40739e-06
3.25103e-05
-6.13241e-06
3.17456e-05
-4.97124e-06
3.09562e-05
-3.91965e-06
3.0149e-05
-2.97297e-06
2.93305e-05
-2.12609e-06
2.85069e-05
-1.37363e-06
2.76841e-05
-7.09977e-07
2.68676e-05
-1.29399e-07
2.60627e-05
3.73905e-07
2.52743e-05
8.05727e-07
2.45066e-05
1.17178e-06
2.37634e-05
1.47764e-06
2.30481e-05
1.72867e-06
2.23635e-05
1.92995e-06
2.17121e-05
2.08631e-06
2.10962e-05
2.20223e-06
2.05176e-05
2.28189e-06
1.99783e-05
2.32912e-06
1.948e-05
2.34742e-06
1.90245e-05
2.33998e-06
1.86135e-05
2.3097e-06
1.82491e-05
2.25915e-06
1.79331e-05
2.19066e-06
1.76677e-05
2.10628e-06
1.7455e-05
2.00784e-06
1.72973e-05
1.89696e-06
1.7197e-05
1.77506e-06
1.71564e-05
1.64338e-06
1.7178e-05
1.50304e-06
1.72644e-05
1.355e-06
1.74181e-05
1.20013e-06
1.76417e-05
1.03921e-06
1.79372e-05
8.72993e-07
1.83064e-05
7.02213e-07
1.8749e-05
5.27696e-07
1.92619e-05
3.50513e-07
1.98335e-05
1.72524e-07
2.0419e-05
2.05859e-05
-9.87118e-06
3.17406e-05
-8.48308e-06
3.11222e-05
-7.20634e-06
3.04689e-05
-6.03763e-06
2.97875e-05
-4.97312e-06
2.90845e-05
-4.00855e-06
2.8366e-05
-3.13931e-06
2.76377e-05
-2.36057e-06
2.69053e-05
-1.66727e-06
2.61743e-05
-1.05423e-06
2.54497e-05
-5.16216e-07
2.47363e-05
-4.79753e-08
2.40383e-05
3.55682e-07
2.33597e-05
6.99847e-07
2.27039e-05
9.89463e-07
2.20738e-05
1.22928e-06
2.14723e-05
1.4238e-06
2.09017e-05
1.57727e-06
2.03642e-05
1.69366e-06
1.98619e-05
1.77666e-06
1.9397e-05
1.82966e-06
1.89715e-05
1.85579e-06
1.85874e-05
1.85792e-06
1.82469e-05
1.83863e-06
1.79524e-05
1.80027e-06
1.7706e-05
1.74496e-06
1.75103e-05
1.67462e-06
1.73676e-05
1.59094e-06
1.72806e-05
1.49546e-06
1.72518e-05
1.38957e-06
1.72839e-05
1.27448e-06
1.73795e-05
1.15131e-06
1.75413e-05
1.02108e-06
1.77719e-05
8.84722e-07
1.80736e-05
7.43133e-07
1.84479e-05
5.97214e-07
1.88949e-05
4.47942e-07
1.94112e-05
2.96547e-07
1.99849e-05
1.45013e-07
2.05705e-05
2.07309e-05
-1.08373e-05
3.02537e-05
-9.45832e-06
2.97433e-05
-8.18485e-06
2.91955e-05
-7.01381e-06
2.86165e-05
-5.9417e-06
2.80124e-05
-4.96467e-06
2.7389e-05
-4.0786e-06
2.67516e-05
-3.27912e-06
2.61059e-05
-2.5617e-06
2.54569e-05
-1.92167e-06
2.48097e-05
-1.35428e-06
2.41689e-05
-8.54773e-07
2.35388e-05
-4.18416e-07
2.29234e-05
-4.05475e-08
2.2326e-05
2.83373e-07
2.17499e-05
5.57737e-07
2.11979e-05
7.8675e-07
2.06726e-05
9.74412e-07
2.01765e-05
1.12449e-06
1.97118e-05
1.24051e-06
1.9281e-05
1.32576e-06
1.88862e-05
1.3833e-06
1.85298e-05
1.41592e-06
1.82143e-05
1.42621e-06
1.79421e-05
1.41654e-06
1.77157e-05
1.38907e-06
1.75377e-05
1.34576e-06
1.74109e-05
1.28839e-06
1.7338e-05
1.21861e-06
1.73216e-05
1.13788e-06
1.73646e-05
1.04756e-06
1.74698e-05
9.48869e-07
1.76399e-05
8.42967e-07
1.78778e-05
7.30927e-07
1.81856e-05
6.13784e-07
1.85651e-05
4.92565e-07
1.90161e-05
3.68353e-07
1.95354e-05
2.42437e-07
2.01108e-05
1.16822e-07
2.06961e-05
2.08477e-05
-1.16988e-05
2.87869e-05
-1.03339e-05
2.83784e-05
-9.06864e-06
2.79302e-05
-7.90028e-06
2.74482e-05
-6.82568e-06
2.69378e-05
-5.84139e-06
2.64047e-05
-4.94371e-06
2.5854e-05
-4.12874e-06
2.52909e-05
-3.39241e-06
2.47205e-05
-2.73051e-06
2.41478e-05
-2.13878e-06
2.35771e-05
-1.61288e-06
2.30129e-05
-1.14851e-06
2.2459e-05
-7.41404e-07
2.19189e-05
-3.87374e-07
2.13959e-05
-8.23646e-08
2.08929e-05
1.77537e-07
2.04127e-05
3.96073e-07
1.9958e-05
5.76807e-07
1.95311e-05
7.23104e-07
1.91347e-05
8.38128e-07
1.87712e-05
9.24834e-07
1.84431e-05
9.85974e-07
1.81531e-05
1.0241e-06
1.79039e-05
1.04158e-06
1.76982e-05
1.04059e-06
1.75387e-05
1.02314e-06
1.74284e-05
9.91085e-07
1.737e-05
9.46124e-07
1.73665e-05
8.89822e-07
1.74209e-05
8.23629e-07
1.7536e-05
7.4889e-07
1.77147e-05
6.66869e-07
1.79598e-05
5.78763e-07
1.82737e-05
4.85728e-07
1.86581e-05
3.88888e-07
1.9113e-05
2.89362e-07
1.96349e-05
1.8831e-07
2.02118e-05
8.75814e-08
2.07969e-05
2.09353e-05
-1.2457e-05
2.73448e-05
-1.11108e-05
2.70323e-05
-9.85857e-06
2.6678e-05
-8.69774e-06
2.62874e-05
-7.62555e-06
2.58657e-05
-6.63893e-06
2.54181e-05
-5.73461e-06
2.49497e-05
-4.90911e-06
2.44654e-05
-4.15879e-06
2.39702e-05
-3.47989e-06
2.34689e-05
-2.86856e-06
2.29658e-05
-2.32088e-06
2.24652e-05
-1.83294e-06
2.1971e-05
-1.40084e-06
2.14868e-05
-1.02075e-06
2.10158e-05
-6.889e-07
2.0561e-05
-4.01663e-07
2.01255e-05
-1.5553e-07
1.97118e-05
5.28538e-08
1.93227e-05
2.2668e-07
1.89608e-05
3.68972e-07
1.86288e-05
4.82587e-07
1.83295e-05
5.70211e-07
1.80655e-05
6.34343e-07
1.78398e-05
6.77345e-07
1.76552e-05
7.01402e-07
1.75146e-05
7.08549e-07
1.74212e-05
7.00681e-07
1.73779e-05
6.79559e-07
1.73877e-05
6.46824e-07
1.74536e-05
6.04008e-07
1.75788e-05
5.52553e-07
1.77661e-05
4.93825e-07
1.80185e-05
4.29129e-07
1.83384e-05
3.59719e-07
1.87275e-05
2.86801e-07
1.91859e-05
2.11509e-07
1.97102e-05
1.34875e-07
2.02885e-05
5.81592e-08
2.08736e-05
2.09934e-05
-1.31133e-05
2.5932e-05
-1.17904e-05
2.57095e-05
-1.05558e-05
2.54433e-05
-9.40709e-06
2.51387e-05
-8.34196e-06
2.48006e-05
-7.35772e-06
2.44338e-05
-6.45147e-06
2.40434e-05
-5.62013e-06
2.36341e-05
-4.86049e-06
2.32106e-05
-4.16917e-06
2.27775e-05
-3.54273e-06
2.23394e-05
-2.97764e-06
2.19001e-05
-2.47035e-06
2.14637e-05
-2.01732e-06
2.10337e-05
-1.61502e-06
2.06135e-05
-1.25999e-06
2.0206e-05
-9.4886e-07
1.98143e-05
-6.78348e-07
1.94413e-05
-4.45302e-07
1.90896e-05
-2.46699e-07
1.87622e-05
-7.96534e-08
1.84618e-05
5.85765e-08
1.81912e-05
1.70585e-07
1.79535e-05
2.58866e-07
1.77515e-05
3.25703e-07
1.75883e-05
3.73286e-07
1.74671e-05
4.03666e-07
1.73908e-05
4.18767e-07
1.73628e-05
4.20394e-07
1.7386e-05
4.10251e-07
1.74637e-05
3.89945e-07
1.75991e-05
3.60984e-07
1.77951e-05
3.24836e-07
1.80546e-05
2.82894e-07
1.83803e-05
2.365e-07
1.87739e-05
1.86934e-07
1.92354e-05
1.35351e-07
1.97618e-05
8.26647e-08
2.03411e-05
3.01705e-08
2.0926e-05
2.10236e-05
-1.36695e-05
2.4553e-05
-1.23744e-05
2.44144e-05
-1.11616e-05
2.42306e-05
-1.00295e-05
2.40066e-05
-8.97584e-06
2.37469e-05
-7.9984e-06
2.34564e-05
-7.09466e-06
2.31397e-05
-6.26192e-06
2.28013e-05
-5.49735e-06
2.2446e-05
-4.79795e-06
2.20781e-05
-4.16065e-06
2.17021e-05
-3.58229e-06
2.13218e-05
-3.05967e-06
2.09411e-05
-2.58956e-06
2.05636e-05
-2.16876e-06
2.01926e-05
-1.79406e-06
1.98313e-05
-1.46235e-06
1.94826e-05
-1.17058e-06
1.91495e-05
-9.1579e-07
1.88349e-05
-6.95125e-07
1.85415e-05
-5.0584e-07
1.82725e-05
-3.45301e-07
1.80307e-05
-2.1099e-07
1.78192e-05
-1.00524e-07
1.7641e-05
-1.16106e-08
1.74994e-05
5.79079e-08
1.73975e-05
1.10078e-07
1.73386e-05
1.4684e-07
1.7326e-05
1.70032e-07
1.73628e-05
1.81399e-07
1.74524e-05
1.82597e-07
1.75978e-05
1.75256e-07
1.78024e-05
1.60866e-07
1.8069e-05
1.40906e-07
1.84003e-05
1.16804e-07
1.8798e-05
8.99246e-08
1.92623e-05
6.15227e-08
1.97902e-05
3.26264e-08
2.037e-05
3.97391e-09
2.09547e-05
2.10276e-05
-1.41279e-05
2.32118e-05
-1.28645e-05
2.3151e-05
-1.16778e-05
2.3044e-05
-1.05663e-05
2.28951e-05
-9.52831e-06
2.27089e-05
-8.56185e-06
2.249e-05
-7.66479e-06
2.22426e-05
-6.83481e-06
2.19713e-05
-6.06943e-06
2.16806e-05
-5.36603e-06
2.13748e-05
-4.72189e-06
2.10579e-05
-4.13419e-06
2.07341e-05
-3.60005e-06
2.0407e-05
-3.11656e-06
2.00801e-05
-2.68077e-06
1.97568e-05
-2.28977e-06
1.94403e-05
-1.94069e-06
1.91335e-05
-1.63068e-06
1.88395e-05
-1.357e-06
1.85612e-05
-1.11693e-06
1.83015e-05
-9.07887e-07
1.80635e-05
-7.27344e-07
1.78501e-05
-5.72878e-07
1.76647e-05
-4.42165e-07
1.75103e-05
-3.32974e-07
1.73902e-05
-2.43173e-07
1.73077e-05
-1.70727e-07
1.72662e-05
-1.13691e-07
1.72689e-05
-7.02033e-08
1.73193e-05
-3.84837e-08
1.74206e-05
-1.68195e-08
1.75762e-05
-3.58268e-09
1.77891e-05
2.83399e-09
1.80626e-05
3.97165e-09
1.83991e-05
1.33167e-09
1.88006e-05
-3.63462e-09
1.92673e-05
-9.5596e-09
1.97961e-05
-1.52461e-08
2.03757e-05
-1.99551e-08
2.09594e-05
2.10076e-05
-1.44911e-05
2.19121e-05
-1.32632e-05
2.19232e-05
-1.21063e-05
2.18871e-05
-1.10193e-05
2.18081e-05
-1.00008e-05
2.16904e-05
-9.04915e-06
2.15383e-05
-8.16265e-06
2.13561e-05
-7.33932e-06
2.1148e-05
-6.57701e-06
2.09183e-05
-5.87346e-06
2.06712e-05
-5.22626e-06
2.04107e-05
-4.63293e-06
2.01408e-05
-4.09088e-06
1.98649e-05
-3.59749e-06
1.95867e-05
-3.15009e-06
1.93094e-05
-2.74603e-06
1.90362e-05
-2.38265e-06
1.87701e-05
-2.05734e-06
1.85142e-05
-1.76752e-06
1.82713e-05
-1.51067e-06
1.80446e-05
-1.2843e-06
1.78371e-05
-1.08603e-06
1.76519e-05
-9.13533e-07
1.74922e-05
-7.64548e-07
1.73613e-05
-6.36909e-07
1.72626e-05
-5.2852e-07
1.71993e-05
-4.37366e-07
1.7175e-05
-3.61507e-07
1.71931e-05
-2.99072e-07
1.72569e-05
-2.48259e-07
1.73698e-05
-2.07326e-07
1.75352e-05
-1.74588e-07
1.77564e-05
-1.484e-07
1.80364e-05
-1.27155e-07
1.83779e-05
-1.0928e-07
1.87827e-05
-9.32398e-08
1.92512e-05
-7.7566e-08
1.97804e-05
-6.093e-08
2.0359e-05
-4.23179e-08
2.09408e-05
2.09653e-05
-1.47621e-05
2.06573e-05
-1.35731e-05
2.07341e-05
-1.24494e-05
2.07634e-05
-1.13903e-05
2.0749e-05
-1.03948e-05
2.06949e-05
-9.46161e-06
2.06051e-05
-8.58929e-06
2.04838e-05
-7.77622e-06
2.03349e-05
-7.0206e-06
2.01627e-05
-6.32048e-06
1.99711e-05
-5.67377e-06
1.9764e-05
-5.07829e-06
1.95453e-05
-4.53174e-06
1.93184e-05
-4.03176e-06
1.90867e-05
-3.57597e-06
1.88536e-05
-3.16193e-06
1.86222e-05
-2.78723e-06
1.83954e-05
-2.44945e-06
1.81764e-05
-2.14618e-06
1.79681e-05
-1.87507e-06
1.77735e-05
-1.63378e-06
1.75958e-05
-1.42004e-06
1.74381e-05
-1.23162e-06
1.73037e-05
-1.06634e-06
1.7196e-05
-9.22096e-07
1.71183e-05
-7.96844e-07
1.70741e-05
-6.88594e-07
1.70668e-05
-5.95417e-07
1.70999e-05
-5.15444e-07
1.71769e-05
-4.46863e-07
1.73012e-05
-3.8791e-07
1.74763e-05
-3.36865e-07
1.77053e-05
-2.92042e-07
1.79916e-05
-2.5178e-07
1.83376e-05
-2.14444e-07
1.87454e-05
-1.78422e-07
1.92152e-05
-1.42153e-07
1.97441e-05
-1.04181e-07
2.03211e-05
-6.32759e-08
2.08998e-05
2.0902e-05
-1.49442e-05
1.94501e-05
-1.3797e-05
1.95869e-05
-1.27096e-05
1.9676e-05
-1.16816e-05
1.97209e-05
-1.07123e-05
1.97255e-05
-9.80078e-06
1.96936e-05
-8.94593e-06
1.96289e-05
-8.14646e-06
1.95355e-05
-7.40088e-06
1.94171e-05
-6.70753e-06
1.92778e-05
-6.06463e-06
1.91211e-05
-5.47027e-06
1.89509e-05
-4.92242e-06
1.87705e-05
-4.419e-06
1.85833e-05
-3.95786e-06
1.83925e-05
-3.5368e-06
1.82011e-05
-3.15362e-06
1.80123e-05
-2.80608e-06
1.78289e-05
-2.49197e-06
1.76539e-05
-2.20907e-06
1.74906e-05
-1.95521e-06
1.73419e-05
-1.72821e-06
1.72111e-05
-1.52595e-06
1.71015e-05
-1.34635e-06
1.70164e-05
-1.18736e-06
1.69593e-05
-1.04699e-06
1.69337e-05
-9.23289e-07
1.69431e-05
-8.14343e-07
1.6991e-05
-7.18298e-07
1.70808e-05
-6.33339e-07
1.72163e-05
-5.57689e-07
1.74006e-05
-4.89606e-07
1.76373e-05
-4.27368e-07
1.79293e-05
-3.69274e-07
1.82795e-05
-3.13631e-07
1.86897e-05
-2.58765e-07
1.91603e-05
-2.0303e-07
1.96884e-05
-1.44864e-07
2.02629e-05
-8.2878e-08
2.08379e-05
2.08191e-05
-1.50411e-05
1.8293e-05
-1.39382e-05
1.8484e-05
-1.28897e-05
1.86275e-05
-1.18955e-05
1.87267e-05
-1.09553e-05
1.87853e-05
-1.00684e-05
1.88067e-05
-9.23404e-06
1.87946e-05
-8.45122e-06
1.87527e-05
-7.71875e-06
1.86847e-05
-7.03526e-06
1.85943e-05
-6.39925e-06
1.84851e-05
-5.80906e-06
1.83607e-05
-5.26293e-06
1.82244e-05
-4.75902e-06
1.80794e-05
-4.29542e-06
1.79289e-05
-3.87014e-06
1.77759e-05
-3.48118e-06
1.76233e-05
-3.1265e-06
1.74742e-05
-2.80405e-06
1.73315e-05
-2.51177e-06
1.71983e-05
-2.24761e-06
1.70777e-05
-2.00953e-06
1.6973e-05
-1.79551e-06
1.68875e-05
-1.60355e-06
1.68244e-05
-1.43167e-06
1.67874e-05
-1.27795e-06
1.678e-05
-1.14045e-06
1.68056e-05
-1.01732e-06
1.68678e-05
-9.06715e-07
1.69702e-05
-8.0682e-07
1.71164e-05
-7.1586e-07
1.73096e-05
-6.32075e-07
1.75535e-05
-5.5372e-07
1.78509e-05
-4.79059e-07
1.82048e-05
-4.06358e-07
1.8617e-05
-3.33887e-07
1.90878e-05
-2.59933e-07
1.96144e-05
-1.8284e-07
2.01858e-05
-1.01094e-07
2.07561e-05
2.0718e-05
-1.50565e-05
1.71879e-05
-1.40001e-05
1.74275e-05
-1.29927e-05
1.76201e-05
-1.20348e-05
1.77687e-05
-1.11261e-05
1.78766e-05
-1.02664e-05
1.7947e-05
-9.45524e-06
1.79834e-05
-8.69184e-06
1.79893e-05
-7.9753e-06
1.79681e-05
-7.30451e-06
1.79235e-05
-6.67822e-06
1.78588e-05
-6.09504e-06
1.77775e-05
-5.55345e-06
1.76828e-05
-5.05183e-06
1.75778e-05
-4.58848e-06
1.74656e-05
-4.16165e-06
1.7349e-05
-3.7695e-06
1.72312e-05
-3.41018e-06
1.71149e-05
-3.0818e-06
1.70031e-05
-2.78245e-06
1.6899e-05
-2.51022e-06
1.68055e-05
-2.26319e-06
1.6726e-05
-2.03943e-06
1.66637e-05
-1.83705e-06
1.6622e-05
-1.65413e-06
1.66045e-05
-1.48881e-06
1.66146e-05
-1.33921e-06
1.6656e-05
-1.20351e-06
1.67321e-05
-1.07988e-06
1.68466e-05
-9.66536e-07
1.7003e-05
-8.61702e-07
1.72048e-05
-7.63611e-07
1.74554e-05
-6.70503e-07
1.77578e-05
-5.80617e-07
1.81149e-05
-4.92187e-07
1.85286e-05
-4.03442e-07
1.89991e-05
-3.1261e-07
1.95236e-05
-2.17958e-07
2.00911e-05
-1.17864e-07
2.0656e-05
2.06002e-05
-1.49946e-05
1.61361e-05
-1.39861e-05
1.64191e-05
-1.30218e-05
1.66557e-05
-1.2102e-05
1.6849e-05
-1.12271e-05
1.70017e-05
-1.03969e-05
1.71169e-05
-9.61134e-06
1.71978e-05
-8.86984e-06
1.72478e-05
-8.17176e-06
1.727e-05
-7.51626e-06
1.7268e-05
-6.90232e-06
1.72449e-05
-6.32877e-06
1.7204e-05
-5.79433e-06
1.71484e-05
-5.2976e-06
1.70811e-05
-4.83708e-06
1.7005e-05
-4.41119e-06
1.69231e-05
-4.0183e-06
1.68383e-05
-3.65672e-06
1.67533e-05
-3.32473e-06
1.66711e-05
-3.02055e-06
1.65948e-05
-2.74241e-06
1.65274e-05
-2.4885e-06
1.64721e-05
-2.257e-06
1.64322e-05
-2.0461e-06
1.64111e-05
-1.85397e-06
1.64124e-05
-1.67881e-06
1.64395e-05
-1.5188e-06
1.6496e-05
-1.37215e-06
1.65855e-05
-1.23707e-06
1.67116e-05
-1.11181e-06
1.68778e-05
-9.94578e-07
1.70876e-05
-8.83627e-07
1.73444e-05
-7.77187e-07
1.76514e-05
-6.73483e-07
1.80112e-05
-5.70727e-07
1.84258e-05
-4.67114e-07
1.88955e-05
-3.60829e-07
1.94173e-05
-2.50069e-07
1.99804e-05
-1.33121e-07
2.05391e-05
2.04671e-05
-1.48593e-05
1.51386e-05
-1.39e-05
1.54598e-05
-1.29801e-05
1.57358e-05
-1.21002e-05
1.59691e-05
-1.12608e-05
1.61623e-05
-1.04622e-05
1.63182e-05
-9.70426e-06
1.64399e-05
-8.98687e-06
1.65304e-05
-8.30955e-06
1.65927e-05
-7.67169e-06
1.66301e-05
-7.07248e-06
1.66457e-05
-6.51099e-06
1.66425e-05
-5.98613e-06
1.66235e-05
-5.49669e-06
1.65917e-05
-5.04138e-06
1.65497e-05
-4.61881e-06
1.65006e-05
-4.2275e-06
1.6447e-05
-3.86594e-06
1.63917e-05
-3.53254e-06
1.63377e-05
-3.22568e-06
1.62879e-05
-2.94371e-06
1.62454e-05
-2.68493e-06
1.62133e-05
-2.44764e-06
1.61949e-05
-2.2301e-06
1.61936e-05
-2.03057e-06
1.62129e-05
-1.84732e-06
1.62562e-05
-1.67858e-06
1.63273e-05
-1.52262e-06
1.64295e-05
-1.37769e-06
1.65666e-05
-1.24205e-06
1.67421e-05
-1.11394e-06
1.69595e-05
-9.91612e-07
1.72221e-05
-8.73309e-07
1.75331e-05
-7.57248e-07
1.78952e-05
-6.41629e-07
1.83102e-05
-5.24623e-07
1.87785e-05
-4.04377e-07
1.9297e-05
-2.79034e-07
1.9855e-05
-1.46799e-07
2.04068e-05
2.03203e-05
-1.46548e-05
1.41958e-05
-1.37456e-05
1.45505e-05
-1.28711e-05
1.48613e-05
-1.20323e-05
1.51303e-05
-1.123e-05
1.53599e-05
-1.04645e-05
1.55528e-05
-9.73608e-06
1.57115e-05
-9.04472e-06
1.5839e-05
-8.3902e-06
1.59382e-05
-7.77209e-06
1.6012e-05
-7.18979e-06
1.60634e-05
-6.64257e-06
1.60953e-05
-6.12951e-06
1.61105e-05
-5.64962e-06
1.61118e-05
-5.20176e-06
1.61019e-05
-4.78471e-06
1.60835e-05
-4.39718e-06
1.60594e-05
-4.03778e-06
1.60323e-05
-3.70509e-06
1.6005e-05
-3.39761e-06
1.59805e-05
-3.11382e-06
1.59616e-05
-2.85212e-06
1.59516e-05
-2.61092e-06
1.59537e-05
-2.38858e-06
1.59713e-05
-2.18344e-06
1.60077e-05
-1.99382e-06
1.60666e-05
-1.81804e-06
1.61515e-05
-1.65441e-06
1.62659e-05
-1.50122e-06
1.64134e-05
-1.35676e-06
1.65976e-05
-1.21931e-06
1.6822e-05
-1.08713e-06
1.70899e-05
-9.58474e-07
1.74044e-05
-8.31564e-07
1.77683e-05
-7.04594e-07
1.81832e-05
-5.75722e-07
1.86496e-05
-4.43069e-07
1.91644e-05
-3.04729e-07
1.97167e-05
-1.58843e-07
2.0261e-05
2.01614e-05
-1.43852e-05
1.33077e-05
-1.35263e-05
1.36916e-05
-1.2698e-05
1.40329e-05
-1.19013e-05
1.43336e-05
-1.11372e-05
1.45958e-05
-1.04063e-05
1.48218e-05
-9.70891e-06
1.50142e-05
-9.04528e-06
1.51754e-05
-8.41535e-06
1.53083e-05
-7.81888e-06
1.54155e-05
-7.25545e-06
1.55e-05
-6.72451e-06
1.55643e-05
-6.22531e-06
1.56113e-05
-5.75703e-06
1.56435e-05
-5.3187e-06
1.56636e-05
-4.90926e-06
1.56741e-05
-4.52756e-06
1.56778e-05
-4.17236e-06
1.56772e-05
-3.84238e-06
1.56751e-05
-3.53626e-06
1.56743e-05
-3.25256e-06
1.56779e-05
-2.98983e-06
1.56889e-05
-2.74656e-06
1.57104e-05
-2.52121e-06
1.57459e-05
-2.3122e-06
1.57987e-05
-2.11793e-06
1.58724e-05
-1.93678e-06
1.59703e-05
-1.76711e-06
1.60962e-05
-1.60726e-06
1.62536e-05
-1.45556e-06
1.64459e-05
-1.31032e-06
1.66768e-05
-1.16983e-06
1.69494e-05
-1.03236e-06
1.7267e-05
-8.96137e-07
1.7632e-05
-7.59369e-07
1.80465e-05
-6.20203e-07
1.85104e-05
-4.76743e-07
1.90209e-05
-3.27048e-07
1.9567e-05
-1.69206e-07
2.01031e-05
1.99922e-05
-1.40545e-05
1.24742e-05
-1.3246e-05
1.28831e-05
-1.24642e-05
1.32511e-05
-1.17103e-05
1.35797e-05
-1.09853e-05
1.38708e-05
-1.029e-05
1.41266e-05
-9.62498e-06
1.43491e-05
-8.99052e-06
1.45409e-05
-8.38674e-06
1.47045e-05
-7.81359e-06
1.48424e-05
-7.27079e-06
1.49572e-05
-6.75794e-06
1.50515e-05
-6.27449e-06
1.51278e-05
-5.81972e-06
1.51887e-05
-5.39285e-06
1.52367e-05
-4.99295e-06
1.52742e-05
-4.61901e-06
1.53038e-05
-4.26994e-06
1.53281e-05
-3.94457e-06
1.53497e-05
-3.64167e-06
1.53714e-05
-3.35992e-06
1.53962e-05
-3.09797e-06
1.54269e-05
-2.85441e-06
1.54669e-05
-2.62779e-06
1.55193e-05
-2.41663e-06
1.55876e-05
-2.21938e-06
1.56751e-05
-2.0345e-06
1.57855e-05
-1.8604e-06
1.59221e-05
-1.69549e-06
1.60887e-05
-1.53812e-06
1.62886e-05
-1.38666e-06
1.65253e-05
-1.23942e-06
1.68022e-05
-1.09469e-06
1.71222e-05