/*--------------------------------*- C++ -*----------------------------------*\
| =========                 |                                                 |
| \\      /  F ield         | OpenFOAM: The Open Source CFD Toolbox           |
|  \\    /   O peration     | Version:  5.0                                   |
|   \\  /    A nd           | Web:      www.OpenFOAM.org                      |
|    \\/     M anipulation  |                                                 |
\*---------------------------------------------------------------------------*/
FoamFile
{
    version     2.0;
    format      ascii;
    class       surfaceScalarField;
    location    "0.2";
    object      alphaPhi10;
}
// * * * * * * * * * * * * * * * * * * * * * * * * * * * * * * * * * * * * * //

dimensions      [0 3 -1 0 0 0 0];

internalField   nonuniform List<scalar> 
3781
(
-9.29205e-07
9.29206e-07
1.05431e-06
-1.98351e-06
4.39957e-06
-3.34527e-06
8.10857e-06
-3.70899e-06
1.17749e-05
-3.66636e-06
1.52782e-05
-3.50329e-06
1.86049e-05
-3.32666e-06
2.17765e-05
-3.17161e-06
2.4824e-05
-3.04755e-06
2.77786e-05
-2.95453e-06
3.0668e-05
-2.88946e-06
3.35168e-05
-2.84872e-06
3.63459e-05
-2.82917e-06
3.91743e-05
-2.82837e-06
4.20188e-05
-2.84447e-06
4.48948e-05
-2.87606e-06
4.78168e-05
-2.92203e-06
5.07982e-05
-2.98133e-06
5.3851e-05
-3.05286e-06
5.69863e-05
-3.13523e-06
6.02128e-05
-3.22657e-06
6.35372e-05
-3.32436e-06
6.69623e-05
-3.42515e-06
7.04867e-05
-3.52433e-06
7.41025e-05
-3.61583e-06
7.77943e-05
-3.69184e-06
8.15368e-05
-3.7425e-06
8.52925e-05
-3.75563e-06
8.90089e-05
-3.71643e-06
9.26161e-05
-3.6072e-06
9.6023e-05
-3.40696e-06
9.91134e-05
-3.09034e-06
0.00010174
-2.62691e-06
0.000103702
-1.96194e-06
0.000104722
-1.01941e-06
0.000104348
3.74059e-07
0.000101755
2.59286e-06
9.64154e-05
5.33932e-06
8.78112e-05
8.60417e-06
7.56446e-05
1.21667e-05
6.01042e-05
1.55402e-05
4.21593e-05
1.79449e-05
2.35133e-05
1.8646e-05
1.73064e-05
1.36832e-06
-4.39113e-07
4.09684e-06
-4.71203e-06
7.35611e-06
-6.60455e-06
1.07242e-05
-7.07703e-06
1.40339e-05
-6.97613e-06
1.72266e-05
-6.696e-06
2.0294e-05
-6.39407e-06
2.32505e-05
-6.12805e-06
2.6118e-05
-5.91508e-06
2.892e-05
-5.75653e-06
3.16788e-05
-5.64827e-06
3.4415e-05
-5.58492e-06
3.71473e-05
-5.56146e-06
3.98927e-05
-5.57374e-06
4.26666e-05
-5.6184e-06
4.54832e-05
-5.69267e-06
4.83553e-05
-5.79415e-06
5.12945e-05
-5.92047e-06
5.43106e-05
-6.06899e-06
5.74118e-05
-6.23645e-06
6.06039e-05
-6.41867e-06
6.38897e-05
-6.61013e-06
6.72681e-05
-6.80358e-06
7.07334e-05
-6.98958e-06
7.42735e-05
-7.15597e-06
7.78691e-05
-7.28739e-06
8.14913e-05
-7.36472e-06
8.51002e-05
-7.36457e-06
8.86426e-05
-7.25879e-06
9.20494e-05
-7.01398e-06
9.52334e-05
-6.59095e-06
9.8087e-05
-5.94393e-06
0.00010048
-5.01982e-06
0.000102273
-3.75462e-06
0.000103338
-2.08513e-06
0.000103606
1.06706e-07
0.000103258
2.94063e-06
0.000101909
6.68787e-06
9.90162e-05
1.14972e-05
9.37469e-05
1.7436e-05
8.50633e-05
2.42239e-05
7.2024e-05
3.09842e-05
5.44657e-05
3.62043e-05
3.79397e-05
2.56565e-06
-3.00476e-06
5.83496e-06
-7.98133e-06
9.12883e-06
-9.89842e-06
1.23295e-05
-1.02777e-05
1.54119e-05
-1.00586e-05
1.83774e-05
-9.66148e-06
2.12393e-05
-9.25597e-06
2.4016e-05
-8.90474e-06
2.67274e-05
-8.62651e-06
2.93935e-05
-8.42256e-06
3.20331e-05
-8.28789e-06
3.46641e-05
-8.21594e-06
3.7303e-05
-8.20036e-06
3.99649e-05
-8.23563e-06
4.26636e-05
-8.31706e-06
4.54115e-05
-8.44055e-06
4.82196e-05
-8.60229e-06
5.10975e-05
-8.79838e-06
5.40529e-05
-9.02442e-06
5.70915e-05
-9.27505e-06
6.02164e-05
-9.54354e-06
6.34275e-05
-9.82122e-06
6.67209e-05
-1.0097e-05
7.00878e-05
-1.03565e-05
7.35138e-05
-1.0582e-05
7.69771e-05
-1.07507e-05
8.04474e-05
-1.0835e-05
8.38842e-05
-1.08014e-05
8.72351e-05
-1.06097e-05
9.04338e-05
-1.02127e-05
9.33987e-05
-9.55579e-06
9.60311e-05
-8.57642e-06
9.82155e-05
-7.20415e-06
9.98218e-05
-5.36091e-06
0.000100697
-2.96016e-06
0.000100718
8.56517e-08
9.9763e-05
3.89542e-06
9.77904e-05
8.66052e-06
9.47137e-05
1.45739e-05
9.03456e-05
2.18041e-05
8.42115e-05
3.0358e-05
7.53824e-05
3.98133e-05
6.26708e-05
4.89113e-05
5.51438e-05
3.0547e-06
-6.05947e-06
6.74674e-06
-1.16734e-05
1.0184e-05
-1.33357e-05
1.33484e-05
-1.34421e-05
1.63133e-05
-1.30235e-05
1.91354e-05
-1.24836e-05
2.18538e-05
-1.19743e-05
2.44967e-05
-1.15476e-05
2.70868e-05
-1.12167e-05
2.9644e-05
-1.09797e-05
3.21859e-05
-1.08298e-05
3.47289e-05
-1.0759e-05
3.7288e-05
-1.07594e-05
3.98768e-05
-1.08245e-05
4.25077e-05
-1.0948e-05
4.51917e-05
-1.11245e-05
4.79383e-05
-1.13488e-05
5.07552e-05
-1.16153e-05
5.36484e-05
-1.19176e-05
5.66216e-05
-1.22483e-05
5.96759e-05
-1.25978e-05
6.28092e-05
-1.29545e-05
6.60154e-05
-1.33032e-05
6.9284e-05
-1.36251e-05
7.25988e-05
-1.38968e-05
7.5937e-05
-1.40889e-05
7.9268e-05
-1.4166e-05
8.25518e-05
-1.40852e-05
8.57381e-05
-1.37959e-05
8.87642e-05
-1.32389e-05
9.15548e-05
-1.23463e-05
9.40203e-05
-1.10419e-05
9.60575e-05
-9.24141e-06
9.75505e-05
-6.85385e-06
9.83727e-05
-3.78242e-06
9.83901e-05
6.83234e-08
9.74698e-05
4.81564e-06
9.55149e-05
1.06154e-05
9.24355e-05
1.76534e-05
8.81181e-05
2.61214e-05
8.23306e-05
3.61441e-05
7.45427e-05
4.75902e-05
6.37729e-05
5.9679e-05
7.02451e-05
3.27509e-06
-9.33456e-06
7.19851e-06
-1.55968e-05
1.07432e-05
-1.68804e-05
1.39131e-05
-1.6612e-05
1.68247e-05
-1.59351e-05
1.95659e-05
-1.52247e-05
2.21932e-05
-1.46016e-05
2.47442e-05
-1.40987e-05
2.72459e-05
-1.37184e-05
2.97198e-05
-1.34536e-05
3.2184e-05
-1.3294e-05
3.46545e-05
-1.32295e-05
3.71456e-05
-1.32505e-05
3.96701e-05
-1.33489e-05
4.22393e-05
-1.35172e-05
4.48631e-05
-1.37483e-05
4.75497e-05
-1.40355e-05
5.03058e-05
-1.43713e-05
5.31356e-05
-1.47475e-05
5.60415e-05
-1.51542e-05
5.90229e-05
-1.55793e-05
6.20763e-05
-1.60078e-05
6.51942e-05
-1.64211e-05
6.83649e-05
-1.67959e-05
7.15715e-05
-1.71034e-05
7.4791e-05
-1.73083e-05
7.7993e-05
-1.73681e-05
8.11394e-05
-1.72316e-05
8.41823e-05
-1.68388e-05
8.70641e-05
-1.61206e-05
8.97159e-05
-1.49982e-05
9.20583e-05
-1.33843e-05
9.40014e-05
-1.11845e-05
9.5447e-05
-8.29944e-06
9.62915e-05
-4.62692e-06
9.64248e-05
-6.49448e-08
9.57378e-05
5.50262e-06
9.41255e-05
1.22277e-05
9.14687e-05
2.03102e-05
8.75962e-05
2.99939e-05
8.22153e-05
4.15149e-05
7.48373e-05
5.49662e-05
6.45659e-05
6.99483e-05
8.48273e-05
3.389e-06
-1.27236e-05
7.39835e-06
-1.96061e-05
1.09781e-05
-2.04601e-05
1.41443e-05
-1.97781e-05
1.70263e-05
-1.88171e-05
1.97215e-05
-1.792e-05
2.22935e-05
-1.71737e-05
2.47847e-05
-1.65898e-05
2.7225e-05
-1.61588e-05
2.96378e-05
-1.58664e-05
3.20421e-05
-1.56983e-05
3.44541e-05
-1.56415e-05
3.68881e-05
-1.56845e-05
3.93563e-05
-1.58172e-05
4.18696e-05
-1.60304e-05
4.44369e-05
-1.63157e-05
4.70657e-05
-1.66643e-05
4.97613e-05
-1.7067e-05
5.25273e-05
-1.75134e-05
5.53645e-05
-1.79914e-05
5.82715e-05
-1.84863e-05
6.12435e-05
-1.89798e-05
6.42724e-05
-1.945e-05
6.73458e-05
-1.98693e-05
7.04466e-05
-2.02042e-05
7.35521e-05
-2.04139e-05
7.66334e-05
-2.04493e-05
7.96541e-05
-2.02523e-05
8.25702e-05
-1.9755e-05
8.5329e-05
-1.88794e-05
8.78694e-05
-1.75385e-05
9.01219e-05
-1.56369e-05
9.2011e-05
-1.30736e-05
9.34569e-05
-9.74534e-06
9.43791e-05
-5.54912e-06
9.46962e-05
-3.82036e-07
9.43261e-05
5.87269e-06
9.31759e-05
1.33779e-05
9.11114e-05
2.23747e-05
8.79044e-05
3.32007e-05
8.31606e-05
4.62552e-05
7.62523e-05
6.1876e-05
6.61988e-05
8.00075e-05
9.94754e-05
3.44663e-06
-1.61702e-05
7.44796e-06
-2.36075e-05
1.10007e-05
-2.40128e-05
1.41397e-05
-2.29172e-05
1.69944e-05
-2.16717e-05
1.96591e-05
-2.05847e-05
2.21963e-05
-1.97109e-05
2.46485e-05
-1.9042e-05
2.70469e-05
-1.85572e-05
2.94156e-05
-1.82351e-05
3.17744e-05
-1.80571e-05
3.41398e-05
-1.80069e-05
3.65261e-05
-1.80708e-05
3.89454e-05
-1.82365e-05
4.14082e-05
-1.84932e-05
4.39229e-05
-1.88303e-05
4.64961e-05
-1.92375e-05
4.91325e-05
-1.97034e-05
5.18347e-05
-2.02156e-05
5.4603e-05
-2.07597e-05
5.74348e-05
-2.13181e-05
6.03249e-05
-2.187e-05
6.32646e-05
-2.23897e-05
6.62415e-05
-2.28462e-05
6.92387e-05
-2.32014e-05
7.22344e-05
-2.34096e-05
7.52014e-05
-2.34162e-05
7.81058e-05
-2.31568e-05
8.09075e-05
-2.25567e-05
8.35593e-05
-2.15312e-05
8.60076e-05
-1.99867e-05
8.81933e-05
-1.78226e-05
9.00547e-05
-1.4935e-05
9.15301e-05
-1.12207e-05
9.2561e-05
-6.57999e-06
9.3092e-05
-9.13037e-07
9.30647e-05
5.8999e-06
9.23967e-05
1.4046e-05
9.09358e-05
2.38357e-05
8.83909e-05
3.57456e-05
8.42519e-05
5.03941e-05
7.77293e-05
6.83989e-05
6.77751e-05
8.99654e-05
0.000114248
3.46604e-06
-1.96362e-05
7.39897e-06
-2.75404e-05
1.08812e-05
-2.7495e-05
1.39712e-05
-2.60073e-05
1.67925e-05
-2.4493e-05
1.94307e-05
-2.32229e-05
2.19424e-05
-2.22226e-05
2.43675e-05
-2.14671e-05
2.67363e-05
-2.09259e-05
2.90727e-05
-2.05715e-05
3.13965e-05
-2.03809e-05
3.37246e-05
-2.03349e-05
3.60709e-05
-2.04171e-05
3.84477e-05
-2.06133e-05
4.08648e-05
-2.09103e-05
4.33304e-05
-2.12959e-05
4.58505e-05
-2.17576e-05
4.84293e-05
-2.22822e-05
5.10687e-05
-2.2855e-05
5.37682e-05
-2.34592e-05
5.6525e-05
-2.40748e-05
5.93333e-05
-2.46783e-05
6.21844e-05
-2.52408e-05
6.50661e-05
-2.57278e-05
6.79621e-05
-2.60974e-05
7.08519e-05
-2.62994e-05
7.37099e-05
-2.62742e-05
7.65054e-05
-2.59522e-05
7.92017e-05
-2.52531e-05
8.17572e-05
-2.40867e-05
8.41254e-05
-2.23549e-05
8.6257e-05
-1.99542e-05
8.81025e-05
-1.67806e-05
8.96161e-05
-1.27343e-05
9.07576e-05
-7.7215e-06
9.14909e-05
-1.64631e-06
9.17705e-05
5.62026e-06
9.15072e-05
1.43093e-05
9.04995e-05
2.48433e-05
8.83269e-05
3.79182e-05
8.42689e-05
5.4452e-05
7.73505e-05
7.53173e-05
6.68968e-05
0.000100419
0.000129027
3.45596e-06
-2.30922e-05
7.28146e-06
-3.13659e-05
1.06652e-05
-3.08788e-05
1.36897e-05
-2.90317e-05
1.64695e-05
-2.72728e-05
1.90793e-05
-2.58327e-05
2.1568e-05
-2.47113e-05
2.39714e-05
-2.38705e-05
2.63172e-05
-2.32717e-05
2.86285e-05
-2.28828e-05
3.09245e-05
-2.26769e-05
3.32216e-05
-2.26321e-05
3.55339e-05
-2.27294e-05
3.7873e-05
-2.29523e-05
4.02486e-05
-2.32859e-05
4.26684e-05
-2.37157e-05
4.51379e-05
-2.42272e-05
4.76609e-05
-2.48051e-05
5.02386e-05
-2.54327e-05
5.28704e-05
-2.60909e-05
5.55529e-05
-2.67574e-05
5.82804e-05
-2.74058e-05
6.10442e-05
-2.80046e-05
6.38325e-05
-2.85161e-05
6.663e-05
-2.88949e-05
6.94174e-05
-2.90868e-05
7.21712e-05
-2.9028e-05
7.4863e-05
-2.8644e-05
7.74601e-05
-2.78501e-05
7.99253e-05
-2.65519e-05
8.22183e-05
-2.4648e-05
8.42979e-05
-2.20337e-05
8.61245e-05
-1.86071e-05
8.76633e-05
-1.42731e-05
8.88857e-05
-8.94388e-06
8.97627e-05
-2.52329e-06
9.02397e-05
5.14327e-06
9.01731e-05
1.43759e-05
8.92168e-05
2.57997e-05
8.61211e-05
3.73957e-05
7.81805e-05
4.58878e-05
6.69268e-05
5.26555e-05
5.73079e-05
8.09271e-05
0.000133767
3.42213e-06
-2.65143e-05
7.11517e-06
-3.5059e-05
1.03837e-05
-3.41474e-05
1.3331e-05
-3.19789e-05
1.60616e-05
-3.00034e-05
1.86385e-05
-2.84097e-05
2.11029e-05
-2.71757e-05
2.34853e-05
-2.62529e-05
2.58108e-05
-2.55973e-05
2.81006e-05
-2.51726e-05
3.03729e-05
-2.49492e-05
3.26434e-05
-2.49026e-05
3.49256e-05
-2.50115e-05
3.72307e-05
-2.52575e-05
3.9568e-05
-2.56232e-05
4.19447e-05
-2.60924e-05
4.4366e-05
-2.66485e-05
4.68349e-05
-2.72741e-05
4.93526e-05
-2.79505e-05
5.1918e-05
-2.86563e-05
5.45277e-05
-2.9367e-05
5.71759e-05
-3.0054e-05
5.98543e-05
-3.06831e-05
6.25517e-05
-3.12135e-05
6.52537e-05
-3.15969e-05
6.79423e-05
-3.17754e-05
7.05957e-05
-3.16814e-05
7.3188e-05
-3.12363e-05
7.56891e-05
-3.03513e-05
7.80657e-05
-2.89285e-05
8.0282e-05
-2.68643e-05
8.23021e-05
-2.40538e-05
8.40921e-05
-2.03971e-05
8.56221e-05
-1.58031e-05
8.68639e-05
-1.01858e-05
8.77755e-05
-3.43489e-06
8.82487e-05
4.65569e-06
8.6839e-05
1.36583e-05
7.31387e-05
1.89075e-05
4.34691e-05
1.40093e-05
2.52114e-05
4.26393e-06
2.32824e-05
2.4329e-06
2.84554e-05
9.52991e-06
6.99956e-05
3.42744e-06
-2.99417e-05
7.03642e-06
-3.86679e-05
1.02355e-05
-3.73465e-05
1.31482e-05
-3.48916e-05
1.58702e-05
-3.27254e-05
1.84541e-05
-3.09935e-05
2.09339e-05
-2.96555e-05
2.33357e-05
-2.86548e-05
2.56819e-05
-2.79434e-05
2.79917e-05
-2.74823e-05
3.02822e-05
-2.72397e-05
3.25683e-05
-2.71888e-05
3.4863e-05
-2.73063e-05
3.71771e-05
-2.75715e-05
3.95194e-05
-2.79655e-05
4.18967e-05
-2.84696e-05
4.43137e-05
-2.90655e-05
4.67733e-05
-2.97337e-05
4.92762e-05
-3.04534e-05
5.18212e-05
-3.12012e-05
5.44047e-05
-3.19505e-05
5.70211e-05
-3.26704e-05
5.96624e-05
-3.33243e-05
6.23177e-05
-3.38689e-05
6.49734e-05
-3.42526e-05
6.76124e-05
-3.44144e-05
7.02139e-05
-3.42829e-05
7.27532e-05
-3.37756e-05
7.52018e-05
-3.27999e-05
7.75279e-05
-3.12547e-05
7.96978e-05
-2.90341e-05
8.16766e-05
-2.60327e-05
8.34305e-05
-2.2151e-05
8.49252e-05
-1.72977e-05
8.61174e-05
-1.13781e-05
8.69079e-05
-4.22596e-06
8.25596e-05
3.93127e-06
5.20622e-05
7.60874e-06
1.40463e-05
1.59196e-06
4.2927e-06
-2.94918e-08
3.9397e-06
4.65815e-07
3.53236e-06
1.09471e-06
5.78748e-06
2.98912e-06
9.9452e-06
3.38614e-06
-3.33279e-05
6.86498e-06
-4.21468e-05
9.95794e-06
-4.04395e-05
1.28027e-05
-3.77364e-05
1.54846e-05
-3.54072e-05
1.80462e-05
-3.35552e-05
2.05147e-05
-3.2124e-05
2.29115e-05
-3.10516e-05
2.52557e-05
-3.02876e-05
2.75644e-05
-2.9791e-05
2.98531e-05
-2.95284e-05
3.21355e-05
-2.94712e-05
3.44236e-05
-2.95944e-05
3.67275e-05
-2.98754e-05
3.90552e-05
-3.02932e-05
4.14132e-05
-3.08276e-05
4.38056e-05
-3.14579e-05
4.62349e-05
-3.2163e-05
4.87015e-05
-3.29201e-05
5.12041e-05
-3.37038e-05
5.37393e-05
-3.44857e-05
5.63016e-05
-3.52327e-05
5.88834e-05
-3.59061e-05
6.14744e-05
-3.64599e-05
6.40617e-05
-3.68398e-05
6.66288e-05
-3.69815e-05
6.91558e-05
-3.68098e-05
7.16187e-05
-3.62385e-05
7.39896e-05
-3.51708e-05
7.62368e-05
-3.3502e-05
7.83261e-05
-3.11233e-05
8.02203e-05
-2.7927e-05
8.18795e-05
-2.38102e-05
8.32538e-05
-1.86719e-05
8.42549e-05
-1.23806e-05
7.9585e-05
-4.70748e-06
4.13114e-05
1.83679e-06
4.82259e-06
2.27423e-07
1.98849e-06
3.30191e-08
1.26144e-06
5.93925e-08
1.09046e-06
1.81098e-07
1.18524e-06
4.58322e-07
1.94881e-06
1.25174e-06
4.41616e-06
3.33e-06
-3.66579e-05
6.66991e-06
-4.54867e-05
9.65133e-06
-4.34209e-05
1.2422e-05
-4.05071e-05
1.50567e-05
-3.80419e-05
1.7589e-05
-3.60875e-05
2.00398e-05
-3.45748e-05
2.24264e-05
-3.34383e-05
2.47647e-05
-3.26259e-05
2.70695e-05
-3.20958e-05
2.93545e-05
-3.18134e-05
3.1632e-05
-3.17487e-05
3.39128e-05
-3.18752e-05
3.6206e-05
-3.21686e-05
3.85191e-05
-3.26064e-05
4.08577e-05
-3.31661e-05
4.32256e-05
-3.38258e-05
4.56247e-05
-3.45622e-05
4.80554e-05
-3.53508e-05
5.05163e-05
-3.61646e-05
5.30039e-05
-3.69734e-05
5.55132e-05
-3.7742e-05
5.80369e-05
-3.84298e-05
6.05652e-05
-3.89883e-05
6.30856e-05
-3.93603e-05
6.55822e-05
-3.94781e-05
6.8035e-05
-3.92626e-05
7.04198e-05
-3.86233e-05
7.27079e-05
-3.74589e-05
7.48659e-05
-3.566e-05
7.68562e-05
-3.31135e-05
7.86354e-05
-2.97062e-05
8.01496e-05
-2.53243e-05
8.12894e-05
-1.98122e-05
8.04056e-05
-1.15186e-05
4.15744e-05
-3.70575e-06
3.02871e-06
7.21317e-08
8.01764e-07
7.11649e-08
4.16119e-07
3.39809e-08
2.73955e-07
3.42464e-08
2.60557e-07
6.44702e-08
3.59967e-07
1.80231e-07
6.9452e-07
5.45031e-07
2.16658e-06
3.26138e-06
-3.99193e-05
6.4566e-06
-4.86819e-05
9.32299e-06
-4.62873e-05
1.20144e-05
-4.31984e-05
1.45952e-05
-4.06227e-05
1.70911e-05
-3.85834e-05
1.95177e-05
-3.70014e-05
2.18884e-05
-3.58089e-05
2.4216e-05
-3.49535e-05
2.6513e-05
-3.43929e-05
2.87913e-05
-3.40917e-05
3.10616e-05
-3.4019e-05
3.33334e-05
-3.4147e-05
3.56149e-05
-3.44501e-05
3.79125e-05
-3.4904e-05
4.02311e-05
-3.54848e-05
4.25741e-05
-3.61687e-05
4.49431e-05
-3.69311e-05
4.73381e-05
-3.77458e-05
4.97577e-05
-3.85843e-05
5.21988e-05
-3.94145e-05
5.46565e-05
-4.01997e-05
5.71239e-05
-4.08971e-05
5.95916e-05
-4.14559e-05
6.20471e-05
-4.18158e-05
6.44743e-05
-4.19053e-05
6.68529e-05
-4.16412e-05
6.91571e-05
-4.09276e-05
7.13561e-05
-3.96579e-05
7.3413e-05
-3.77169e-05
7.52843e-05
-3.49848e-05
7.69166e-05
-3.13385e-05
7.82293e-05
-2.66375e-05
7.81102e-05
-1.9696e-05
4.90091e-05
-1.13996e-05
3.59243e-06
-1.25045e-06
4.93745e-07
5.04259e-08
1.86937e-07
3.90791e-08
8.84999e-08
1.73695e-08
6.3755e-08
1.30844e-08
6.81451e-08
2.17333e-08
1.22329e-07
6.56914e-08
3.21964e-07
2.15979e-07
9.24157e-07
3.18233e-06
-4.31016e-05
6.22902e-06
-5.17286e-05
8.97795e-06
-4.90362e-05
1.15855e-05
-4.5806e-05
1.41063e-05
-4.31435e-05
1.65591e-05
-4.10362e-05
1.89548e-05
-3.93971e-05
2.13034e-05
-3.81575e-05
2.3615e-05
-3.7265e-05
2.58997e-05
-3.66776e-05
2.81675e-05
-3.63595e-05
3.04275e-05
-3.6279e-05
3.26879e-05
-3.64074e-05
3.49556e-05
-3.67178e-05
3.72362e-05
-3.71846e-05
3.95338e-05
-3.77824e-05
4.18512e-05
-3.84861e-05
4.41897e-05
-3.92696e-05
4.65492e-05
-4.01053e-05
4.89283e-05
-4.09634e-05
5.13241e-05
-4.18102e-05
5.37319e-05
-4.26075e-05
5.6145e-05
-4.33103e-05
5.85542e-05
-4.38651e-05
6.09467e-05
-4.42083e-05
6.33058e-05
-4.42644e-05
6.56095e-05
-4.39449e-05
6.783e-05
-4.31481e-05
6.99328e-05
-4.17607e-05
7.18759e-05
-3.96601e-05
7.36084e-05
-3.67173e-05
7.50632e-05
-3.27932e-05
7.60323e-05
-2.76087e-05
6.06376e-05
-2.05023e-05
8.74805e-06
-4.98671e-06
4.43817e-07
-2.61654e-07
1.16598e-07
3.55125e-08
4.31978e-08
1.85374e-08
1.97144e-08
7.18827e-09
1.53467e-08
4.44988e-09
1.8694e-08
6.92882e-09
4.20786e-08
2.24188e-08
1.36059e-07
7.94656e-08
3.29195e-07
3.0945e-06
-4.61961e-05
5.98994e-06
-5.4624e-05
8.61952e-06
-5.16658e-05
1.11392e-05
-4.83257e-05
1.35942e-05
-4.55986e-05
1.59974e-05
-4.34394e-05
1.83557e-05
-4.17553e-05
2.06759e-05
-4.04777e-05
2.29658e-05
-3.95549e-05
2.52333e-05
-3.89451e-05
2.74863e-05
-3.86125e-05
2.97323e-05
-3.8525e-05
3.19782e-05
-3.86532e-05
3.42295e-05
-3.89692e-05
3.6491e-05
-3.9446e-05
3.8766e-05
-4.00574e-05
4.10567e-05
-4.07768e-05
4.33641e-05
-4.1577e-05
4.56882e-05
-4.24293e-05
4.80274e-05
-4.33026e-05
5.03791e-05
-4.41619e-05
5.27387e-05
-4.49672e-05
5.50998e-05
-4.56713e-05
5.74526e-05
-4.62179e-05
5.97839e-05
-4.65396e-05
6.20756e-05
-4.6556e-05
6.43033e-05
-4.61726e-05
6.6436e-05
-4.52808e-05
6.84347e-05
-4.37593e-05
7.02514e-05
-4.14767e-05
7.1825e-05
-3.82909e-05
7.30504e-05
-3.40188e-05
7.08271e-05
-2.54158e-05
2.33351e-05
-1.321e-05
7.38475e-07
-1.30209e-06
1.17855e-07
-3.32994e-08
3.36225e-08
1.80224e-08
9.7395e-09
7.62551e-09
4.51729e-09
2.60062e-09
3.83885e-09
1.40279e-09
5.24724e-09
2.11751e-09
1.39353e-08
7.30439e-09
4.83994e-08
2.70183e-08
1.05486e-07
2.99912e-06
-4.91952e-05
5.74112e-06
-5.7366e-05
8.24959e-06
-5.41743e-05
1.06775e-05
-5.07536e-05
1.30613e-05
-4.79824e-05
1.54087e-05
-4.57867e-05
1.77232e-05
-4.40698e-05
2.0009e-05
-4.27636e-05
2.22715e-05
-4.18174e-05
2.45165e-05
-4.11901e-05
2.675e-05
-4.0846e-05
2.8978e-05
-4.0753e-05
3.12056e-05
-4.08809e-05
3.34375e-05
-4.12011e-05
3.56773e-05
-4.16858e-05
3.79276e-05
-4.23078e-05
4.01902e-05
-4.30394e-05
4.24658e-05
-4.38526e-05
4.47542e-05
-4.47177e-05
4.70541e-05
-4.56025e-05
4.93629e-05
-4.64707e-05
5.16761e-05
-4.72804e-05
5.3987e-05
-4.79822e-05
5.62854e-05
-4.85163e-05
5.85568e-05
-4.8811e-05
6.07809e-05
-4.87801e-05
6.29305e-05
-4.83223e-05
6.49706e-05
-4.73208e-05
6.68567e-05
-4.56455e-05
6.8534e-05
-4.3154e-05
6.99284e-05
-3.9685e-05
7.0514e-05
-3.46011e-05
4.39511e-05
-2.53111e-05
1.72229e-06
-4.23229e-06
1.90543e-07
-3.27452e-07
2.96194e-08
8.504e-09
7.19975e-09
8.68444e-09
2.15377e-09
2.8136e-09
1.07356e-09
8.5053e-10
9.88258e-10
4.20284e-10
1.47712e-09
6.26517e-10
4.35834e-09
2.30914e-09
1.55549e-08
9.33265e-09
4.20022e-08
2.89704e-06
-5.20923e-05
5.48348e-06
-5.99525e-05
7.86887e-06
-5.65596e-05
1.02011e-05
-5.30858e-05
1.25085e-05
-5.02898e-05
1.47942e-05
-4.80725e-05
1.7059e-05
-4.63346e-05
1.93045e-05
-4.50091e-05
2.1534e-05
-4.40468e-05
2.37512e-05
-4.34073e-05
2.59604e-05
-4.30552e-05
2.81658e-05
-4.29584e-05
3.03713e-05
-4.30864e-05
3.25803e-05
-4.341e-05
3.47954e-05
-4.39009e-05
3.70187e-05
-4.4531e-05
3.92513e-05
-4.52721e-05
4.1494e-05
-4.60953e-05
4.37464e-05
-4.69701e-05
4.60073e-05
-4.78634e-05
4.82741e-05
-4.87375e-05
5.05423e-05
-4.95487e-05
5.28047e-05
-5.02445e-05
5.50499e-05
-5.07616e-05
5.72618e-05
-5.10229e-05
5.94173e-05
-5.09356e-05
6.14856e-05
-5.03906e-05
6.34268e-05
-4.9262e-05
6.51911e-05
-4.74098e-05
6.67151e-05
-4.46779e-05
6.7873e-05
-4.08429e-05
6.38965e-05
-3.06528e-05
1.10116e-05
-1.37589e-05
4.45007e-07
-1.08964e-06
3.28287e-08
-7.96579e-08
5.63162e-09
8.0055e-09
1.47395e-09
3.49273e-09
4.93458e-10
9.55736e-10
2.64815e-10
2.63452e-10
2.59056e-10
1.21815e-10
4.16153e-10
1.79706e-10
1.37e-09
7.00689e-10
5.55616e-09
3.04251e-09
1.49664e-08
2.78876e-06
-5.4881e-05
5.21713e-06
-6.23808e-05
7.4771e-06
-5.88196e-05
9.70977e-06
-5.53185e-05
1.19358e-05
-5.25158e-05
1.41544e-05
-5.0291e-05
1.63637e-05
-4.85439e-05
1.85633e-05
-4.72088e-05
2.07543e-05
-4.62378e-05
2.29385e-05
-4.55915e-05
2.51185e-05
-4.52352e-05
2.72968e-05
-4.51367e-05
2.94759e-05
-4.52656e-05
3.16582e-05
-4.55923e-05
3.38453e-05
-4.60881e-05
3.60388e-05
-4.67245e-05
3.82395e-05
-4.74728e-05
4.04478e-05
-4.83036e-05
4.26635e-05
-4.91859e-05
4.48855e-05
-5.00853e-05
4.7111e-05
-5.0963e-05
4.93352e-05
-5.17728e-05
5.15499e-05
-5.24592e-05
5.37424e-05
-5.29542e-05
5.58941e-05
-5.31745e-05
5.79786e-05
-5.30201e-05
5.99608e-05
-5.23728e-05
6.17958e-05
-5.10971e-05
6.34273e-05
-4.90413e-05
6.47784e-05
-4.60292e-05
6.51536e-05
-4.11977e-05
3.40181e-05
-2.94337e-05
1.17561e-06
-3.8058e-06
1.39428e-07
-3.72957e-07
8.44766e-09
-4.38112e-09
7.47109e-10
4.44676e-09
2.68284e-10
1.26705e-09
1.10834e-10
2.99919e-10
6.60166e-11
7.66811e-11
6.80792e-11
3.4095e-11
1.15837e-10
4.99005e-11
4.18372e-10
2.02497e-10
1.88031e-09
9.35062e-10
4.94801e-09
2.67444e-06
-5.75555e-05
4.94154e-06
-6.46479e-05
7.07313e-06
-6.09512e-05
9.20209e-06
-5.74475e-05
1.13418e-05
-5.46555e-05
1.34881e-05
-5.24374e-05
1.56368e-05
-5.06926e-05
1.77854e-05
-4.93573e-05
1.99327e-05
-4.83851e-05
2.2079e-05
-4.77378e-05
2.42249e-05
-4.73811e-05
2.63715e-05
-4.72833e-05
2.85199e-05
-4.7414e-05
3.06715e-05
-4.77438e-05
3.28271e-05
-4.82437e-05
3.49877e-05
-4.88851e-05
3.7154e-05
-4.96391e-05
3.93263e-05
-5.04759e-05
4.15043e-05
-5.13639e-05
4.3687e-05
-5.22679e-05
4.58712e-05
-5.31472e-05
4.80516e-05
-5.39532e-05
5.02188e-05
-5.46264e-05
5.2358e-05
-5.50934e-05
5.44475e-05
-5.5264e-05
5.64571e-05
-5.50297e-05
5.8347e-05
-5.42627e-05
6.00668e-05
-5.28169e-05
6.15533e-05
-5.05277e-05
6.26668e-05
-4.71429e-05
5.79119e-05
-3.64601e-05
6.62545e-06
-1.49384e-05
3.92148e-07
-1.02971e-06
2.38103e-08
-9.45121e-08
6.46059e-10
2.98679e-09
-2.04803e-11
1.70668e-09
4.80927e-11
3.97394e-10
2.60816e-11
8.78894e-11
1.65908e-11
2.14554e-11
1.76952e-11
9.27479e-12
3.14579e-11
1.34189e-11
1.21914e-10
5.55658e-11
5.95112e-10
2.69022e-10
1.4965e-09
2.55394e-06
-6.01094e-05
4.65548e-06
-6.67495e-05
6.65488e-06
-6.29506e-05
8.67565e-06
-5.94682e-05
1.07244e-05
-5.67043e-05
1.27937e-05
-5.45067e-05
1.4877e-05
-5.27759e-05
1.69698e-05
-5.14501e-05
1.90689e-05
-5.04843e-05
2.11726e-05
-4.98414e-05
2.32798e-05
-4.94883e-05
2.53901e-05
-4.93936e-05
2.75034e-05
-4.95274e-05
2.96201e-05
-4.98605e-05
3.17404e-05
-5.03641e-05
3.38649e-05
-5.10096e-05
3.59941e-05
-5.17683e-05
3.81283e-05
-5.26101e-05
4.02673e-05
-5.35029e-05
4.24097e-05
-5.44103e-05
4.45522e-05
-5.52898e-05
4.66883e-05
-5.60894e-05
4.8807e-05
-5.67451e-05
5.0891e-05
-5.71773e-05
5.29149e-05
-5.72879e-05
5.48442e-05
-5.6959e-05
5.66341e-05
-5.60526e-05
5.8228e-05
-5.44108e-05
5.95488e-05
-5.18487e-05
5.98419e-05
-4.74228e-05
3.00551e-05
-3.44695e-05
9.57279e-07
-3.95787e-06
1.13468e-07
-3.91989e-07
3.9297e-09
-1.57515e-08
-1.87236e-10
2.16248e-09
-4.78964e-11
6.13667e-10
7.85338e-12
1.17611e-10
6.10352e-12
2.41657e-11
4.12278e-12
5.79027e-12
4.50064e-12
2.4686e-12
8.23436e-12
3.52085e-12
3.3562e-11
1.45345e-11
1.74202e-10
7.27078e-11
1.05733e-09
4.17282e-10
4.0656e-09
2.42688e-06
-6.25363e-05
4.35696e-06
-6.86796e-05
6.21923e-06
-6.48129e-05
8.12692e-06
-6.13759e-05
1.00801e-05
-5.86574e-05
1.20681e-05
-5.64947e-05
1.4082e-05
-5.47898e-05
1.6115e-05
-5.3483e-05
1.81618e-05
-5.25311e-05
2.02186e-05
-5.18983e-05
2.22828e-05
-5.15524e-05
2.43524e-05
-5.14632e-05
2.64263e-05
-5.16013e-05
2.85039e-05
-5.1938e-05
3.0585e-05
-5.24452e-05
3.26699e-05
-5.30945e-05
3.4759e-05
-5.38573e-05
3.68526e-05
-5.47037e-05
3.89505e-05
-5.56008e-05
4.10512e-05
-5.6511e-05
4.31507e-05
-5.73892e-05
4.52412e-05
-5.81799e-05
4.73094e-05
-5.88134e-05
4.93349e-05
-5.92028e-05
5.12886e-05
-5.92415e-05
5.31309e-05
-5.88014e-05
5.48119e-05
-5.77335e-05
5.62687e-05
-5.58675e-05
5.73669e-05
-5.29471e-05
5.29226e-05
-4.29956e-05
5.88918e-06
-1.77102e-05
3.69224e-07
-1.08602e-06
2.42583e-08
-1.071e-07
-3.64852e-11
1.07594e-10
-1.84725e-10
8.69645e-10
-2.29035e-11
1.80913e-10
1.26265e-12
3.14271e-11
1.47331e-12
6.03906e-12
1.01055e-12
1.55336e-12
1.11841e-12
7.20311e-13
2.07113e-12
9.33033e-13
8.7443e-12
3.64546e-12
4.73509e-11
1.85807e-11
2.99217e-10
1.0806e-10
1.0549e-09
2.2928e-06
-6.48291e-05
4.04307e-06
-7.04298e-05
5.76172e-06
-6.65315e-05
7.55088e-06
-6.31651e-05
9.40409e-06
-6.05106e-05
1.13072e-05
-5.83979e-05
1.32485e-05
-5.67311e-05
1.52185e-05
-5.5453e-05
1.72097e-05
-5.45222e-05
1.92161e-05
-5.39047e-05
2.12334e-05
-5.35697e-05
2.32583e-05
-5.34881e-05
2.52886e-05
-5.36316e-05
2.73229e-05
-5.39723e-05
2.93607e-05
-5.4483e-05
3.14021e-05
-5.51359e-05
3.34477e-05
-5.59029e-05
3.54978e-05
-5.67538e-05
3.75522e-05
-5.76553e-05
3.9609e-05
-5.85678e-05
4.16633e-05
-5.94435e-05
4.37057e-05
-6.02222e-05
4.57204e-05
-6.0828e-05
4.76833e-05
-6.11657e-05
4.95607e-05
-6.1119e-05
5.13082e-05
-6.05489e-05
5.28696e-05
-5.92948e-05
5.41721e-05
-5.717e-05
5.45928e-05
-5.33656e-05
2.97739e-05
-4.06552e-05
9.14841e-07
-4.6566e-06
1.06155e-07
-4.22196e-07
2.88933e-09
-2.22818e-08
-2.55599e-10
8.42014e-10
-6.7825e-11
2.9764e-10
-7.08012e-12
4.89205e-11
1.22548e-13
7.80314e-12
3.68322e-13
1.45069e-12
2.59512e-13
4.4916e-13
2.75756e-13
2.61317e-13
5.02503e-13
2.80519e-13
2.15994e-12
8.93615e-13
1.20167e-11
4.53284e-12
7.76157e-11
2.63258e-11
2.52853e-10
2.1515e-06
-6.69806e-05
3.70949e-06
-7.19878e-05
5.27582e-06
-6.80979e-05
6.94058e-06
-6.48298e-05
8.69003e-06
-6.22601e-05
1.05058e-05
-6.02136e-05
1.23724e-05
-5.85978e-05
1.42774e-05
-5.7358e-05
1.62106e-05
-5.64554e-05
1.81639e-05
-5.5858e-05
2.01311e-05
-5.55369e-05
2.21075e-05
-5.54645e-05
2.409e-05
-5.56141e-05
2.60768e-05
-5.59591e-05
2.80671e-05
-5.64733e-05
3.00611e-05
-5.71299e-05
3.20594e-05
-5.79011e-05
3.40625e-05
-5.8757e-05
3.60702e-05
-5.9663e-05
3.80802e-05
-6.05778e-05
4.00863e-05
-6.14497e-05
4.20773e-05
-6.22132e-05
4.40342e-05
-6.27849e-05
4.59292e-05
-6.30607e-05
4.77237e-05
-6.29135e-05
4.93678e-05
-6.2193e-05
5.07992e-05
-6.07262e-05
5.19128e-05
-5.82836e-05
4.88537e-05
-5.03133e-05
6.35839e-06
-2.26497e-05
3.62103e-07
-1.24477e-06
2.37691e-08
-1.23354e-07
6.66437e-11
-3.02853e-09
-1.34731e-10
4.1241e-10
-2.06879e-11
8.47233e-11
-1.75705e-12
1.19414e-11
2.43616e-14
1.84154e-12
9.97601e-14
3.81754e-13
7.46691e-14
1.70087e-13
7.42954e-14
1.33173e-13
1.2457e-13
1.29525e-13
5.07164e-13
2.35094e-13
2.86505e-12
1.05166e-12
1.86981e-11
6.09042e-12
5.66621e-11
2.00295e-06
-6.89835e-05
3.34914e-06
-7.3334e-05
4.75175e-06
-6.95005e-05
6.28622e-06
-6.63643e-05
7.92938e-06
-6.39032e-05
9.65683e-06
-6.19411e-05
1.14485e-05
-6.03895e-05
1.32881e-05
-5.91976e-05
1.51624e-05
-5.83297e-05
1.70608e-05
-5.77564e-05
1.89752e-05
-5.74514e-05
2.09e-05
-5.73893e-05
2.2831e-05
-5.75452e-05
2.47662e-05
-5.78943e-05
2.67047e-05
-5.84118e-05
2.86468e-05
-5.9072e-05
3.05935e-05
-5.98478e-05
3.25456e-05
-6.07091e-05
3.45027e-05
-6.16201e-05
3.64618e-05
-6.25369e-05
3.84158e-05
-6.34037e-05
4.0351e-05
-6.41483e-05
4.22452e-05
-6.46791e-05
4.40661e-05
-6.48817e-05
4.57701e-05
-6.46174e-05
4.73008e-05
-6.37238e-05
4.85878e-05
-6.20133e-05
4.93013e-05
-5.89952e-05
3.20239e-05
-4.79797e-05
9.94683e-07
-6.42992e-06
1.12538e-07
-4.69161e-07
4.20019e-09
-2.72279e-08
-1.56035e-10
6.30034e-11
-4.58251e-11
1.47178e-10
-5.41941e-12
2.10866e-11
-3.79705e-13
2.60821e-12
1.65249e-14
4.33423e-13
3.31713e-14
1.35519e-13
2.78892e-14
9.30867e-14
2.81521e-14
9.69016e-14
3.83266e-14
9.70319e-14
1.18587e-13
9.54783e-14
6.38712e-13
2.328e-13
4.22281e-12
1.33426e-12
1.19399e-11
1.84519e-06
-7.08287e-05
2.94923e-06
-7.4438e-05
4.1745e-06
-7.07257e-05
5.57424e-06
-6.7764e-05
7.11105e-06
-6.544e-05
8.75205e-06
-6.35821e-05
1.0471e-05
-6.21084e-05
1.22469e-05
-6.09734e-05
1.40628e-05
-6.01456e-05
1.59057e-05
-5.95994e-05
1.77659e-05
-5.93116e-05
1.96363e-05
-5.92597e-05
2.15124e-05
-5.94213e-05
2.33919e-05
-5.97738e-05
2.52741e-05
-6.02939e-05
2.71597e-05
-6.09575e-05
2.905e-05
-6.17381e-05
3.09461e-05
-6.26052e-05
3.28478e-05
-6.35217e-05
3.47513e-05
-6.44405e-05
3.66481e-05
-6.53005e-05
3.85222e-05
-6.60224e-05
4.03479e-05
-6.65048e-05
4.20883e-05
-6.66221e-05
4.36938e-05
-6.62229e-05
4.5101e-05
-6.51309e-05
4.62138e-05
-6.3126e-05
4.51563e-05
-5.79383e-05
8.72559e-06
-3.03404e-05
3.69877e-07
-1.55735e-06
2.46729e-08
-1.51132e-07
2.66345e-10
-5.17203e-09
-8.68874e-11
1.42084e-10
-1.25698e-11
3.6854e-11
-1.14884e-12
4.37494e-12
-5.99416e-14
5.32783e-13
1.33706e-14
1.20103e-13
1.51279e-14
7.40474e-14
1.54996e-14
7.80241e-14
1.65078e-14
8.04286e-14
1.91368e-14
7.81439e-14
3.22027e-14
6.88408e-14
1.33999e-13
6.52378e-14
8.94079e-13
2.70114e-13
2.36262e-12
1.66718e-06
-7.24959e-05
2.48634e-06
-7.52572e-05
3.52172e-06
-7.17611e-05
4.78639e-06
-6.90287e-05
6.22128e-06
-6.68749e-05
7.78174e-06
-6.51425e-05
9.43353e-06
-6.37602e-05
1.115e-05
-6.26899e-05
1.29103e-05
-6.19059e-05
1.46989e-05
-6.13879e-05
1.65042e-05
-6.11169e-05
1.83183e-05
-6.10738e-05
2.01365e-05
-6.12394e-05
2.19563e-05
-6.15936e-05
2.37775e-05
-6.21152e-05
2.56014e-05
-6.27814e-05
2.74298e-05
-6.35666e-05
2.92643e-05
-6.44397e-05
3.11045e-05
-6.53619e-05
3.29464e-05
-6.62824e-05
3.478e-05
-6.71341e-05
3.65868e-05
-6.78292e-05
3.83375e-05
-6.82556e-05
3.99904e-05
-6.8275e-05
4.14899e-05
-6.77224e-05
4.27652e-05
-6.64063e-05
4.35975e-05
-6.39592e-05
3.48388e-05
-5.13759e-05
1.22293e-06
-1.01677e-05
1.29649e-07
-5.37777e-07
5.07478e-09
-3.3533e-08
-4.7111e-11
-5.97641e-10
-2.38996e-11
6.33894e-11
-2.67971e-12
8.64949e-12
-2.0343e-13
8.20533e-13
-4.64769e-15
1.18297e-13
9.0445e-15
5.77145e-14
1.02102e-14
6.17243e-14
1.04741e-14
6.5969e-14
1.09371e-14
6.45919e-14
1.1557e-14
5.798e-14
1.31109e-14
4.87447e-14
2.79273e-14
3.78352e-14
1.79665e-13
5.91151e-14
4.38468e-13
1.43478e-06
-7.39307e-05
1.92121e-06
-7.57436e-05
2.76256e-06