/*--------------------------------*- C++ -*----------------------------------*\
| =========                 |                                                 |
| \\      /  F ield         | OpenFOAM: The Open Source CFD Toolbox           |
|  \\    /   O peration     | Version:  5.0                                   |
|   \\  /    A nd           | Web:      www.OpenFOAM.org                      |
|    \\/     M anipulation  |                                                 |
\*---------------------------------------------------------------------------*/
FoamFile
{
    version     2.0;
    format      ascii;
    class       volScalarField;
    location    "0.2";
    object      alpha.water;
}
// * * * * * * * * * * * * * * * * * * * * * * * * * * * * * * * * * * * * * //

dimensions      [0 0 0 0 0 0 0];

internalField   nonuniform List<scalar> 
1935
(
1
1
1
1
1
1
1
1
1
1
1
1
1
1
1
1
1
1
1
1
1
1
1
1
1
1
1
1
1
1
1
1
1
1
1
1
1
1
1
1
0.999998
0.999999
1
0.998593
1
1
1
1
1
1
1
1
1
1
1
1
1
1
1
1
1
1
1
1
1
1
1
1
1
1
1
1
1
1
1
1
1
1
1
1
1
1
1
1
1
1
1
0.999672
1
1
1
1
1
1
1
1
1
1
1
1
1
1
1
1
1
1
1
1
1
1
1
1
1
1
1
1
1
1
1
1
1
1
1
1
1
1
1
1
1
1
0.999994
0.99999
1
1
1
1
1
1
1
1
1
1
1
1
1
1
1
1
1
1
1
1
1
1
1
1
1
1
1
1
1
1
1
1
1
1
1
1
1
1
1
1
1
0.999942
0.99987
0.999953
1
1
1
1
1
1
1
1
1
1
1
1
1
1
1
1
1
1
1
1
1
1
1
1
1
1
1
1
1
1
1
1
1
1
1
1
1
1
1
1
0.999931
0.99987
0.99987
0.999871
1
1
1
1
1
1
1
1
1
1
1
1
1
1
1
1
1
1
1
1
1
1
1
1
1
1
1
1
1
1
1
1
1
1
1
1
1
1
1
1
0.999984
0.999901
0.99987
0.999924
1
1
1
1
1
1
1
1
1
1
1
1
1
1
1
1
1
1
1
1
1
1
1
1
1
1
1
1
1
1
1
1
1
1
1
1
1
1
1
1
1
0.999997
0.99998
0.999981
1
1
1
1
1
1
1
1
1
1
1
1
1
1
1
1
1
1
1
1
1
1
1
1
1
1
1
1
1
1
1
1
1
1
1
1
1
1
1
1
1
1
0.999998
0.999995
1
1
1
1
1
1
1
1
1
1
1
1
1
1
1
1
1
1
1
1
1
1
1
1
1
1
1
1
1
1
1
1
1
1
1
1
1
1
1
1
0.983126
0.944571
0.971011
0.999996
1
1
1
1
1
1
1
1
1
1
1
1
1
1
1
1
1
1
1
1
1
1
1
1
1
1
1
1
1
1
1
1
1
1
1
1
0.999971
0.997084
0.949643
0.758012
0.49794
0.350141
0.473436
0.813357
1
1
1
1
1
1
1
1
1
1
1
1
1
1
1
1
1
1
1
1
1
1
1
1
1
1
1
1
1
1
1
1
1
1
1
0.999999
0.993765
0.858049
0.452682
0.112845
0.0229727
0.0162859
0.03188
0.25734
1
1
1
1
1
1
1
1
1
1
1
1
1
1
1
1
1
1
1
1
1
1
1
1
1
1
1
1
1
1
1
1
1
1
0.999998
0.998001
0.804523
0.300669
0.0229827
0.00571143
0.0039879
0.00495912
0.00945599
0.0247203
1
1
1
1
1
1
1
1
1
1
1
1
1
1
1
1
1
1
1
1
1
1
1
1
1
1
1
1
1
1
1
1
1
0.999999
0.999919
0.82714
0.283891
0.0156179
0.00360455
0.0014761
0.00109758
0.00156526
0.00331733
0.00873502
1
1
1
1
1
1
1
1
1
1
1
1
1
1
1
1
1
1
1
1
1
1
1
1
1
1
1
1
1
1
1
1
1
0.999979
0.899543
0.352617
0.0178374
0.00337453
0.00110921
0.000399033
0.000311001
0.000496471
0.00113276
0.00304739
1
1
1
1
1
1
1
1
1
1
1
1
1
1
1
1
1
1
1
1
1
1
1
1
1
1
1
1
1
1
1
1
0.999996
0.983898
0.503794
0.0357171
0.00338019
0.00104562
0.000317145
0.000111035
8.91112e-05
0.000155608
0.000395186
0.00121204
1
1
1
1
1
1
1
1
1
1
1
1
1
1
1
1
1
1
1
1
1
1
1
1
1
1
1
1
1
1
1
1
0.999966
0.714404
0.106819
0.00395693
0.000977657
0.000315739
9.15826e-05
3.13244e-05
2.54879e-05
4.8432e-05
0.000144533
0.000423432
1
1
1
1
1
1
1
1
1
1
1
1
1
1
1
1
1
1
1
1
1
1
1
1
1
1
1
1
1
1
1
0.999994
0.920035
0.282264
0.00601145
0.00122711
0.000308807
8.93841e-05
2.63682e-05
8.86756e-06
7.23758e-06
1.48961e-05
4.74664e-05
0.000141822
1
1
1
1
1
1
1
1
1
1
1
1
1
1
1
1
1
1
1
1
1
1
1
1
1
1
1
1
1
1
0.999999
0.999926
0.578104
0.0369243
0.00188292
0.00037107
9.21634e-05
2.58625e-05
7.58416e-06
2.50008e-06
2.02485e-06
4.38286e-06
1.45702e-05
4.51936e-05
1
1
1
1
1
1
1
1
1
1
1
1
1
1
1
1
1
1
1
1
1
1
1
1
1
1
1
1
1
1
1
0.872034
0.186703
0.00364902
0.000620232
0.000122875
2.72768e-05
7.46223e-06
2.15071e-06
6.97618e-07
5.57571e-07
1.25046e-06
4.28079e-06
1.37407e-05
1
1
1
1
1
1
1
1
1
1
1
1
1
1
1
1
1
1
1
1
1
1
1
1
1
1
1
1
1
0.999999
0.999911
0.509307
0.0184321
0.00113249
0.000193814
3.72795e-05
8.04106e-06
2.13897e-06
5.98717e-07
1.92317e-07
1.51246e-07
3.46099e-07
1.2212e-06
4.25828e-06
1
1
1
1
1
1
1
1
1
1
1
1
1
1
1
1
1
1
1
1
1
1
1
1
1
1
1
1
1
1.00001
0.864635
0.156403
0.00255805
0.000371505
5.97355e-05
1.08093e-05
2.28027e-06
5.98225e-07
1.62952e-07
5.26485e-08
4.0819e-08
9.32654e-08
3.38621e-07
1.23638e-06
4.04044e-06
1
1
1
1
1
1
1
1
1
1
1
1
1
1
1
1
1
1
1
1
1
1
1
1
1
1
1
1
1
0.999931
0.503935
0.0151492
0.0008036
0.000108307
1.76258e-05
3.07119e-06
6.31215e-07
1.63614e-07
4.37228e-08
1.46792e-08
1.13335e-08
2.48713e-08
9.16269e-08
3.46349e-07
1.19493e-06
1
1
1
1
1
1
1
1
1
1
1
1
1
1
1
1
1
1
1
1
1
1
1
1
1
1
1
1
1.00001
0.893079
0.160614
0.0020126
0.000248671
3.23589e-05
4.8885e-06
8.25688e-07
1.68325e-07
4.27877e-08
1.19606e-08
4.6781e-09
3.56525e-09
6.87444e-09
2.45786e-08
9.41298e-08
3.38928e-07
1
1
1
1
1
1
1
1
1
1
1
1
1
1
1
1
1
1
1
1
1
1
1
1
1
1
1
1
0.999976
0.542289
0.0172829
0.000615028
6.72095e-05
8.92292e-06
1.28812e-06
2.12188e-07
4.36212e-08
1.11621e-08
3.66819e-09
1.96083e-09
1.61637e-09
2.22147e-09
6.73735e-09
2.51045e-08
9.2137e-08
1
1
1
1
1
1
1
1
1
1
1
1
1
1
1
1
1
1
1
1
1
1
1
1
1
1
1
1
0.951785
0.19726
0.00176323
0.000189614
1.92003e-05
2.32489e-06
3.18337e-07
5.2114e-08
1.13303e-08
3.25963e-09
1.55148e-09
1.15563e-09
1.06184e-09
1.09386e-09
1.95278e-09
6.59134e-09
2.41729e-08
1
1
1
1
1
1
1
1
1
1
1
1
1
1
1
1
1
1
1
1
1
1
1
1
1
1
1
0.999984
0.617522
0.0278801
0.000504332
4.26477e-05
4.68619e-06
5.61165e-07
7.47939e-08
1.26867e-08
3.27799e-09
1.33195e-09
9.75916e-10
9.40998e-10
8.82254e-10
7.62131e-10
7.65891e-10
1.68361e-09
6.11087e-09
1
1
1
1
1
1
1
1
1
1
1
1
1
1
1
1
1
1
1
1
1
1
1
1
1
1
1.00001
0.999775
0.265048
0.00163902
0.000149826
1.1919e-05
1.09642e-06
1.21735e-07
1.6496e-08
3.31779e-09
1.22239e-09
8.46849e-10
8.28613e-10
7.92193e-10
7.08582e-10
5.80881e-10
4.2344e-10
4.69789e-10
1.50745e-09
1
1
1
1
1
1
1
1
1
1
1
1
1
1
1
1
1
1
1
1
1
1
1
1
1
1
1.00008
0.726244
0.0520101
0.000442849
2.95998e-05
2.46689e-06
2.33418e-07
2.53095e-08
3.83625e-09
1.17401e-09
7.25151e-10
7.18583e-10
7.00961e-10
6.30728e-10
5.19986e-10
3.95224e-10
2.77261e-10
1.87118e-10
3.62418e-10
1
0.999999
1
1
1
1
1
1
1
1
1
1
1
1
1
1
1
1
1
1
1
1
1
1
1
0.999999
0.999949
0.356418
0.00152772
0.00011545
6.30521e-06
4.781e-07
4.33321e-08
5.01873e-09
1.15371e-09
6.03534e-10
6.11539e-10
6.10873e-10
5.66063e-10
4.74907e-10
3.52977e-10
2.35569e-10
1.5269e-10
9.61058e-11
9.89829e-11
1
0.999994
0.999997
0.999999
1
1
1
1
1
1
1
1
1
1
1
1
1
1
1
1
1
1
1
1
1
1.00002
0.882467
0.101421
0.000417834
2.27239e-05
1.34973e-06
8.48851e-08
7.42171e-09
1.1658e-09
4.96402e-10
5.03476e-10
5.24493e-10
5.03444e-10
4.38164e-10
3.32719e-10
2.18021e-10
1.26999e-10
6.94515e-11
4.26261e-11
2.96079e-11
1
0.999969
0.999985
0.999994
0.999997
0.999999
0.999999
1
1
1
1
1
1
1
1
1
1
1
1
1
1
1
1
1
0.999999
0.999975
0.486251
0.00586727
9.24442e-05
2.56225e-06
1.83452e-07
1.17888e-08
1.35442e-09
4.22912e-10
3.87045e-10
4.38167e-10
4.41927e-10
4.02145e-10
3.16988e-10
2.11335e-10
1.20169e-10
6.07087e-11
2.88619e-11
1.44639e-11
1.08752e-11
1
0.999833
0.999914
0.999964
0.999984
0.999993
0.999996
0.999998
0.999999
0.999999
0.999999
0.999999
0.999999
0.999999
0.999999
0.999999
0.999999
0.999999
0.999999
0.999999
0.999999
0.999998
0.999999
1
1.00001
0.999717
0.181823
0.000434406
2.09977e-05
6.92204e-07
2.4078e-08
1.64706e-09
3.77815e-10
2.90972e-10
3.40551e-10
3.75288e-10
3.64455e-10
3.03045e-10
2.08989e-10
1.19676e-10
5.8451e-11
2.55871e-11
1.0657e-11
4.50337e-12
3.09051e-12
1.00001
0.999166
0.999504
0.999788
0.999906
0.999957
0.999977
0.999987
0.999992
0.999994
0.999996
0.999996
0.999997
0.999997
0.999997
0.999996
0.999996
0.999995
0.999994
0.999993
0.999991
0.999991
0.999994
0.999991
1.00005
0.633803
0.0235536
8.12496e-05
-3.52604e-07
5.25322e-08
2.64524e-09
3.50848e-10
2.11007e-10
2.54756e-10
3.04644e-10
3.16754e-10
2.85293e-10
2.09402e-10
1.23265e-10
5.97463e-11
2.49737e-11
9.52593e-12
3.5099e-12
1.31984e-12
6.63416e-13
0.992369
0.993796
0.997117
0.998763
0.999444
0.999743
0.999859
0.999921
0.999952
0.999965
0.999973
0.999977
0.99998
0.999981
0.99998
0.999978
0.999975
0.999971
0.999965
0.999959
0.999949
0.999949
0.999969
0.999943
0.999659
0.277588
0.000389309
1.39506e-05
2.38191e-07
2.84005e-09
2.19317e-10
1.46247e-10
1.89009e-10
2.31267e-10
2.69514e-10
2.58485e-10
2.05639e-10
1.29438e-10
6.40993e-11
2.61211e-11
9.38406e-12
3.15647e-12
1.04162e-12
3.53398e-13
1.42295e-13
0.514948
0.626512
0.866721
0.986978
0.996728
0.99848
0.999156
0.999526
0.999707
0.999789
0.999834
0.999861
0.999876
0.99988
0.999878
0.999868
0.99985
0.999825
0.999794
0.999758
0.999707
0.999701
0.999807
0.999707
0.886916
0.0800173
7.96015e-05
-1.10075e-06
4.53559e-09
1.92706e-11
9.02077e-11
1.31055e-10
1.79103e-10
2.09117e-10
2.29323e-10
1.97688e-10
1.33427e-10
7.01657e-11
2.90277e-11
1.00149e-11
3.12354e-12
9.3936e-13
2.80855e-13
8.64551e-14
2.98009e-14
0.0028706
0.0386149
0.210775
0.552587
0.842004
0.972021
0.995004
0.99717
0.998247
0.998729
0.998992
0.999156
0.999244
0.999272
0.999256
0.999202
0.999104
0.998964
0.998792
0.998596
0.998306
0.998315
0.998863
0.998043
0.380194
0.000601487
7.53314e-06
-2.72387e-07
-1.13294e-09
5.6663e-11
8.61932e-11
1.30728e-10
1.67869e-10
1.85497e-10
1.81511e-10
1.3652e-10
7.63667e-11
3.29215e-11
1.13918e-11
3.38695e-12
9.35265e-13
2.5292e-13
6.91171e-14
1.9442e-14
5.94359e-15
2.87622e-16
3.2297e-16
1.29038e-09
0.0191888
0.180623
0.455343
0.707514
0.870024
0.951431
0.983975
0.993034
0.994907
0.995429
0.995601
0.995518
0.995212
0.994663
0.9933
0.98906
0.982178
0.964585
0.967168
0.993701
0.939106
0.116583
5.84728e-05
-9.41537e-07
-5.49723e-09
1.20615e-11
5.64779e-11
8.84101e-11
1.26528e-10
1.50526e-10
1.59284e-10
1.29499e-10
8.19054e-11
3.76854e-11
1.32938e-11
3.89568e-12
1.02082e-12
2.54413e-13
6.24822e-14
1.55476e-14
4.02126e-15
1.11699e-15
1.80513e-14
5.41874e-16
-1.50674e-25
-7.85241e-14
-2.96747e-12
2.8987e-11
0.0735357
0.201509
0.351592
0.500143
0.608159
0.679711
0.719677
0.733183
0.727674
0.706263
0.667557
0.614169
0.55367
0.485511
0.393429
0.409263
0.645247
0.317323
0.0129007
6.75661e-08
-3.4625e-07
-6.36334e-10
4.99131e-11
5.78529e-11
8.55438e-11
1.14743e-10
1.25669e-10
1.26206e-10
8.17179e-11
4.15041e-11
1.56957e-11
4.62128e-12
1.17503e-12
2.77297e-13
6.319e-14
1.42283e-14
3.23002e-15
7.64209e-16
1.9606e-16
7.45339e-14
1.70595e-15
-3.54033e-15
-7.12478e-14
-2.84083e-13
-6.67373e-16
-5.22591e-12
-8.20684e-17
-3.1981e-19
0.00152409
0.0244175
0.0501476
0.0691303
0.0761801
0.0731235
0.0619496
0.0444305
0.0250263
0.00769302
-4.51341e-15
5.01715e-22
1.2756e-18
0.0371864
-7.97014e-09
-4.69021e-08
-1.99732e-10
-1.20971e-08
-5.58967e-11
5.50661e-11
5.94945e-11
7.7376e-11
9.48913e-11
9.94722e-11
8.50143e-11
4.44884e-11
1.75957e-11
5.46809e-12
1.38948e-12
3.16153e-13
6.83377e-14
1.43615e-14
2.98103e-15
6.2235e-16
1.34444e-16
3.2129e-17
1.04488e-13
6.71825e-15
-8.14865e-15
-2.69251e-13
-1.9173e-12
-1.3036e-11
-8.00988e-12
-6.58819e-12
-3.72196e-11
-1.10603e-10
-2.25081e-10
-8.41621e-10
-2.36429e-09
-1.65428e-09
-1.01706e-09
-5.27273e-10
-2.88709e-10
-1.29473e-10
-6.03795e-11
-2.42526e-10
-6.68783e-10
-1.21437e-09
-3.16201e-08
-3.33614e-09
-1.85479e-08
-9.2456e-09
-4.17779e-10
3.17912e-11
5.73164e-11
5.99424e-11
6.81013e-11
7.48335e-11
7.08354e-11
4.64032e-11
2.02162e-11
6.2655e-12
1.60964e-12
3.64457e-13
7.62704e-14
1.52873e-14
2.98112e-15
5.73394e-16
1.1077e-16
2.20186e-17
4.95313e-18
9.31621e-14
9.8072e-15
-1.09112e-14
-4.5527e-13
-3.41352e-12
-2.31219e-11
-1.46546e-11
-1.18599e-11
-6.556e-11
-2.12221e-10
-4.8822e-10
-1.55343e-09
-4.58759e-09
-3.48307e-09
-2.61383e-09
-1.41524e-09
-7.50015e-10
-3.40157e-10
-3.31237e-10
-6.85415e-10
-1.62612e-09
-2.81911e-09
-6.50028e-09
-2.29762e-09
-5.17901e-09
-7.359e-09
-4.38213e-11
8.35754e-11
8.22367e-11
5.96707e-11
5.85083e-11
5.6585e-11
4.20588e-11
2.03272e-11
7.39982e-12
1.87808e-12
4.08916e-13
8.42787e-14
1.64887e-14
3.09122e-15
5.62667e-16
1.00891e-16
1.81478e-17
3.34731e-18
7.18272e-19
3.26064e-14
6.36062e-15
-1.46959e-14
-5.85446e-13
-4.45785e-12
-3.08927e-11
-1.96704e-11
-1.60309e-11
-8.74182e-11
-2.8374e-10
-6.5871e-10
-1.13775e-09
-1.42297e-09
-1.99158e-09
-3.49563e-09
-2.20669e-09
-1.04324e-09
-5.20922e-10
-5.69906e-10
-1.20985e-09
-2.7445e-09
-4.2971e-09
-3.97913e-09
-3.11015e-09
-6.48567e-09
-8.8733e-09
1.64431e-14
1.01954e-10
1.00289e-10
6.25775e-11
4.57859e-11
3.66428e-11
2.01191e-11
7.19993e-12
2.13132e-12
4.70532e-13
9.09475e-14
1.73023e-14
3.18319e-15
5.61537e-16
9.60378e-17
1.6169e-17
2.72805e-18
4.70826e-19
9.69543e-20
6.68114e-15
1.17307e-15
-1.73667e-14
-6.34985e-13
-4.91913e-12
-3.515e-11
-2.08666e-11
-1.76051e-11
-9.75635e-11
-3.14365e-10
-7.28453e-10
-1.22606e-09
-1.55447e-09
-2.32392e-09
-4.00815e-09
-2.34551e-09
-1.10817e-09
-6.0007e-10
-8.37146e-10
-1.89821e-09
-3.9601e-09
-5.45065e-09
-4.53805e-09
-3.52724e-09
-5.44447e-09
-5.43465e-09
-5.8856e-28
9.58183e-11
9.25648e-11
4.64977e-11
2.98691e-11
1.85943e-11
7.47729e-12
2.06047e-12
4.85023e-13
9.77994e-14
1.76788e-14
3.14779e-15
5.45889e-16
9.10897e-17
1.47478e-17
2.35042e-18
3.75058e-19
6.1095e-20
1.21552e-20
1.14273e-15
-1.4341e-16
-1.82712e-14
-5.92001e-13
-4.74047e-12
-3.53084e-11
-1.8147e-11
-1.67111e-11
-9.67547e-11
-3.0558e-10
-6.94186e-10
-1.12882e-09
-1.45668e-09
-2.3483e-09
-3.82863e-09
-2.04922e-09
-9.57352e-10
-6.47795e-10
-1.15683e-09
-2.65446e-09
)
;

boundaryField
{
    leftWall
    {
        type            zeroGradient;
    }
    rightWall
    {
        type            zeroGradient;
    }
    lowerWall
    {
        type            zeroGradient;
    }
    atmosphere
    {
        type            inletOutlet;
        inletValue      nonuniform 0();
        value           nonuniform 0();
    }
    defaultFaces
    {
        type            empty;
    }
    procBoundary0to1
    {
        type            processor;
        value           nonuniform List<scalar> 
44
(
0.990958
0.999954
0.999978
0.999979
0.999964
0.999978
0.999984
0.999922
0.999056
0.988973
0.926432
0.540861
0.0359038
0.0110959
0.00351561
0.00128634
0.00043334
0.000122542
4.42329e-05
1.22958e-05
1.22958e-05
6.64823e-06
4.32088e-06
1.47329e-06
4.36871e-07
1.17816e-07
2.97855e-08
7.26233e-09
1.73028e-09
3.85298e-10
9.39515e-11
2.6577e-11
1.19503e-11
3.31566e-12
5.10224e-13
8.13966e-14
1.27728e-14
1.92745e-15
2.78487e-16
3.83783e-17
5.02734e-18
6.26827e-19
7.46592e-20
8.44844e-21
)
;
    }
    procBoundary0to2
    {
        type            processor;
        value           nonuniform List<scalar> 
46
(
-4.97325e-09
-6.16595e-09
-4.71264e-09
-3.18724e-09
-3.40951e-09
-2.55583e-09
-2.21126e-18
5.19716e-11
5.63307e-11
2.60313e-11
1.45943e-11
6.80559e-12
2.04438e-12
4.64847e-13
8.96246e-14
1.694e-14
2.96772e-15
5.02206e-16
8.25812e-17
1.31255e-17
2.02896e-18
3.0885e-19
4.70249e-20
7.28937e-21
1.38872e-21
3.30408e-17
-5.64101e-16
-1.81004e-14
-4.81443e-13
-4.04438e-12
-3.11184e-11
-1.27594e-11
-1.41459e-11
-8.55801e-11
-2.61388e-10
-5.75139e-10
-9.09578e-10
-1.23457e-09
-2.10111e-09
-3.02514e-09
-1.52618e-09
-7.55734e-10
-6.87604e-10
-1.44627e-09
-4.97325e-09
-3.21477e-09
)
;
    }
}


// ************************************************************************* //
