/*--------------------------------*- C++ -*----------------------------------*\
| =========                 |                                                 |
| \\      /  F ield         | OpenFOAM: The Open Source CFD Toolbox           |
|  \\    /   O peration     | Version:  5.0                                   |
|   \\  /    A nd           | Web:      www.OpenFOAM.org                      |
|    \\/     M anipulation  |                                                 |
\*---------------------------------------------------------------------------*/
FoamFile
{
    version     2.0;
    format      ascii;
    class       volScalarField;
    location    "0.2";
    object      epsilon;
}
// * * * * * * * * * * * * * * * * * * * * * * * * * * * * * * * * * * * * * //

dimensions      [0 2 -3 0 0 0 0];

internalField   nonuniform List<scalar> 
1935
(
0.0449929
0.146192
0.264412
0.362312
0.446028
0.519641
0.586196
0.64794
0.706605
0.76359
0.82009
0.877189
0.935915
0.997278
1.06228
1.13191
1.20712
1.28881
1.37776
1.47454
1.57944
1.69233
1.81256
1.93882
2.06906
2.20039
2.32909
2.4507
2.56017
2.65223
2.72169
2.76395
2.77539
2.75328
2.69551
2.60302
2.49101
2.35378
2.18873
1.99653
1.78241
1.56011
1.35909
1.22997
0.0847937
0.122995
0.163204
0.195309
0.221046
0.242479
0.261117
0.277994
0.293822
0.30912
0.324298
0.339714
0.355697
0.37256
0.390612
0.410153
0.431472
0.454838
0.480482
0.508576
0.539199
0.572309
0.6077
0.644974
0.683505
0.72243
0.760653
0.796883
0.829707
0.857702
0.879584
0.894388
0.901644
0.901553
0.895062
0.887524
0.892322
0.908905
0.938576
0.985646
1.06057
1.18481
1.3933
1.71621
0.128163
0.146147
0.168915
0.185834
0.198528
0.208554
0.216962
0.224469
0.231572
0.238625
0.245902
0.253631
0.262014
0.27124
0.281486
0.292921
0.3057
0.319958
0.3358
0.353283
0.372397
0.393047
0.415026
0.437998
0.461484
0.484858
0.507361
0.528131
0.546269
0.560923
0.571408
0.577339
0.578772
0.576345
0.571394
0.566576
0.567919
0.578984
0.603764
0.648237
0.724387
0.859908
1.11438
1.58446
0.161094
0.168985
0.182492
0.191227
0.197105
0.201442
0.204979
0.208205
0.211464
0.215011
0.219042
0.223724
0.229199
0.2356
0.243045
0.251642
0.261485
0.272645
0.285158
0.299021
0.314166
0.330452
0.347647
0.365413
0.3833
0.400752
0.417122
0.431708
0.443812
0.452823
0.458316
0.460174
0.458698
0.454713
0.449667
0.445893
0.4475
0.458252
0.482718
0.527457
0.604726
0.742817
1.00927
1.54105
0.188054
0.186675
0.194098
0.197737
0.199348
0.200121
0.200637
0.201255
0.202225
0.203731
0.20592
0.208915
0.212822
0.217735
0.223735
0.230891
0.239254
0.248854
0.259684
0.271697
0.284788
0.298785
0.313434
0.328396
0.343239
0.35745
0.370457
0.381664
0.390511
0.396549
0.399536
0.399533
0.397003
0.392886
0.388681
0.386624
0.390243
0.403496
0.431905
0.484056
0.575301
0.737511
1.04359
1.64967
0.210847
0.199298
0.202138
0.202573
0.201524
0.200002
0.198523
0.197395
0.196827
0.196969
0.197939
0.19983
0.202722
0.206679
0.211757
0.217995
0.225414
0.234012
0.243751
0.254557
0.266298
0.278784
0.291755
0.304875
0.317737
0.329873
0.340777
0.349947
0.356937
0.361434
0.363338
0.36285
0.360551
0.357462
0.355113
0.355703
0.362623
0.38018
0.415112
0.478876
0.592362
0.796368
1.17589
1.90101
0.230648
0.208074
0.207036
0.205371
0.202688
0.199719
0.196926
0.194609
0.192969
0.192148
0.192249
0.193349
0.195509
0.198775
0.203179
0.208739
0.215453
0.223296
0.232211
0.242102
0.252827
0.264187
0.275926
0.287724
0.299205
0.30995
0.319521
0.327502
0.333553
0.337475
0.339288
0.339306
0.338203
0.337066
0.337469
0.34165
0.353106
0.376798
0.421113
0.501196
0.645294
0.90664
1.38702
2.26799
0.248297
0.214163
0.209636
0.206467
0.202751
0.198872
0.195225
0.192104
0.189716
0.188204
0.187668
0.188177
0.189779
0.192507
0.196378
0.201392
0.207531
0.214754
0.222991
0.232138
0.242047
0.252525
0.263327
0.27416
0.284684
0.294535
0.303344
0.310776
0.316586
0.320677
0.323171
0.324475
0.325346
0.326942
0.330922
0.339685
0.357098
0.389302
0.447266
0.55175
0.742282
1.08959
1.70493
2.74895
0.264386
0.218429
0.210696
0.206327
0.201892
0.197419
0.193212
0.189552
0.186647
0.184642
0.183638
0.183699
0.184868
0.187165
0.190598
0.195154
0.200805
0.207502
0.215168
0.223697
0.232946
0.242735
0.252841
0.263001
0.272921
0.282292
0.290812
0.298228
0.304379
0.30926
0.313081
0.316335
0.319862
0.32492
0.333332
0.347841
0.373095
0.417312
0.496208
0.641898
0.917293
1.42141
2.23255
3.39749
0.279322
0.221463
0.210761
0.205338
0.200333
0.195435
0.190851
0.186829
0.183571
0.181221
0.179878
0.179604
0.180435
0.182386
0.185457
0.189628
0.194867
0.201119
0.20831
0.216337
0.225072
0.234351
0.243981
0.253736
0.263372
0.272635
0.281293
0.289167
0.296176
0.302399
0.30813
0.313948
0.320795
0.330087
0.34394
0.365717
0.401475
0.463101
0.575628
0.793919
1.22231
1.99197
3.04704
4.22644
0.293392
0.223658
0.21019
0.203771
0.198252
0.193011
0.188152
0.183882
0.180386
0.177799
0.176215
0.175694
0.176267
0.177944
0.180721
0.184575
0.189472
0.19536
0.202169
0.209812
0.218175
0.227121
0.236491
0.246101
0.255758
0.265269
0.274467
0.283248
0.29161
0.299714
0.307939
0.316969
0.327892
0.342377
0.36303
0.394235
0.444388
0.53125
0.694652
1.02568
1.69642
2.78576
3.98869
5.06011
0.306955
0.225294
0.209199
0.20179
0.195761
0.190211
0.185136
0.180693
0.17704
0.174298
0.172554
0.17186
0.172245
0.173715
0.176264
0.179869
0.1845
0.19011
0.196643
0.204026
0.21217
0.220971
0.230305
0.240037
0.250027
0.260144
0.270293
0.280442
0.290672
0.30123
0.3126
0.325603
0.341546
0.362499
0.391844
0.435534
0.505238
0.626009
0.855865
1.29665
2.07176
3.19674
4.45953
5.64405
0.320039
0.226521
0.20793
0.19952
0.192969
0.187121
0.181864
0.177296
0.173544
0.170712
0.168872
0.168071
0.168332
0.169661
0.17205
0.175481
0.179928
0.185358
0.191729
0.198991
0.207083
0.215936
0.225469
0.235598
0.24624
0.257332
0.268849
0.280842
0.293479
0.307111
0.322352
0.340217
0.362342
0.391402
0.43193
0.49198
0.586969
0.748475
1.02218
1.45704
2.11493
3.10712
4.37172
5.89244
0.332723
0.22745
0.206467
0.197041
0.189951
0.183805
0.178382
0.173723
0.169915
0.16704
0.165158
0.164307
0.164504
0.165753
0.168051
0.171385
0.175738
0.181092
0.187426
0.194714
0.202931
0.212044
0.222022
0.232833
0.24446
0.256908
0.270234
0.284577
0.300213
0.317617
0.337581
0.36139
0.391152
0.430415
0.485254
0.566202
0.692563
0.886939
1.15604
1.52197
2.07212
2.95618
4.18575
5.86078
0.345063
0.228156
0.204862
0.194404
0.186761
0.180315
0.174739
0.170009
0.166176
0.163298
0.161417
0.160564
0.160751
0.161983
0.164258
0.167574
0.171927
0.177316
0.183743
0.191215
0.19974
0.209332
0.220009
0.231801
0.244758
0.258966
0.274571
0.29182
0.311114
0.333094
0.358785
0.38984
0.429024
0.481036
0.553769
0.660554
0.819444
1.03033
1.26409
1.54525
2.00063
2.80036
3.99198
5.6492
0.357097
0.228687
0.203145
0.191646
0.183442
0.176698
0.170977
0.166193
0.162359
0.159506
0.157664
0.156852
0.157078
0.158351
0.160673
0.164051
0.1685
0.174039
0.180697
0.188514
0.19754
0.207836
0.219477
0.232561
0.247213
0.263609
0.282004
0.302769
0.326466
0.353945
0.386534
0.426382
0.477104
0.544739
0.639186
0.775563
0.959945
1.14863
1.30856
1.50943
1.89748
2.63305
3.79295
5.39646
0.368853
0.229074
0.201334
0.188793
0.18003
0.172993
0.167136
0.162312
0.158496
0.155694
0.153921
0.153187
0.1535
0.154868
0.157303
0.160827
0.165469
0.171275
0.178304
0.186634
0.196358
0.207591
0.220473
0.235172
0.251904
0.27095
0.292689
0.317647
0.346583
0.380612
0.421453
0.471895
0.536557
0.622917
0.743216
0.907877
1.08254
1.20148
1.28443
1.42937
1.76838
2.45191
3.58253
5.16217
0.380351
0.229341
0.199437
0.185863
0.176554
0.169234
0.163254
0.158404
0.154622
0.151893
0.150216
0.149594
0.150035
0.151551
0.154165
0.157913
0.162847
0.169039
0.176582
0.185595
0.19622
0.208632
0.223039
0.239696
0.258918
0.281108
0.306795
0.336693
0.371802
0.41357
0.464208
0.527285
0.608488
0.71684
0.863723
1.03621
1.15179
1.18985
1.2169
1.3226
1.61752
2.24484
3.33519
4.92156
0.391613
0.229501
0.19746
0.182871
0.173037
0.165455
0.159367
0.154506
0.150774
0.148136
0.146578
0.146098
0.146706
0.148421
0.151277
0.155328
0.160652
0.167349
0.175551
0.18542
0.197154
0.210993
0.227225
0.246198
0.268345
0.294211
0.324502
0.360161
0.402481
0.453315
0.515499
0.593446
0.693908
0.827298
0.994377
1.1291
1.1622
1.13762
1.12719
1.20123
1.44926
2.00472
3.02017
4.58622
0.402659
0.229564
0.195404
0.17983
0.169501
0.161683
0.155508
0.150654
0.146989
0.144458
0.14304
0.142731
0.143541
0.145501
0.14866
0.153093
0.158902
0.166223
0.175229
0.186131
0.199188
0.214712
0.233079
0.254747
0.280282
0.310396
0.346006
0.388322
0.438993
0.500373
0.576021
0.671234
0.794042
0.952815
1.11269
1.17145
1.13258
1.06584
1.02948
1.07521
1.27301
1.73955
2.63435
4.09623
0.413522
0.22954
0.19327
0.176749
0.165968
0.157947
0.151712
0.146883
0.143301
0.140896
0.139637
0.139522
0.140568
0.142818
0.146338
0.151227
0.157618
0.165683
0.175639
0.187754
0.202353
0.219829
0.240658
0.265421
0.294838
0.329814
0.371513
0.421463
0.481731
0.555289
0.646443
0.761355
0.909018
1.08149
1.18966
1.16964
1.0807
0.987371
0.93246
0.952793
1.10068
1.46998
2.20794
3.4729
5.10087
0.424246
0.22944
0.191059
0.173639
0.162457
0.154276
0.148011
0.143231
0.13975
0.137484
0.136402
0.136504
0.137817
0.140399
0.144337
0.149756
0.156822
0.16575
0.176805
0.190317
0.206684
0.226391
0.250026
0.278308
0.312134
0.352632
0.40125
0.459886
0.531112
0.618584
0.727371
0.864719
1.03688
1.19256
1.22167
1.13954
1.01876
0.909234
0.841039
0.839655
0.942154
1.21805
1.78682
2.79807
4.24727
0.434904
0.229278
0.188774
0.170514
0.158994
0.150701
0.144441
0.139735
0.136372
0.134262
0.133372
0.133711
0.135319
0.138271
0.142681
0.148701
0.156537
0.166447
0.178753
0.193851
0.212222
0.234452
0.261255
0.293507
0.332303
0.379026
0.435453
0.503905
0.587554
0.690731
0.819263
0.981389
1.16383
1.2624
1.21727
1.09337
0.95378
0.834945
0.757627
0.738797
0.803233
0.998566
1.41111
2.16024
3.30586
0.445615
0.229079
0.18642
0.167395
0.155608
0.14726
0.141045
0.136437
0.133209
0.131266
0.130581
0.131174
0.133103
0.136463
0.141395
0.148088
0.156786
0.167798
0.181508
0.198387
0.219009
0.244069
0.274422
0.311121
0.355485
0.409185
0.474367
0.553845
0.651433
0.772123
0.922646
1.109
1.27084
1.2907
1.18918
1.0392
0.889448
0.766034
0.683031
0.651127
0.685767
0.817235
1.10194
1.6223
2.43978
0.456566
0.228878
0.184017
0.164314
0.152345
0.144001
0.137869
0.133383
0.130303
0.128537
0.128067
0.128928
0.131199
0.135001
0.140505
0.147937
0.157588
0.169824
0.185096
0.203959
0.227086
0.2553
0.289608
0.33126
0.381825
0.443298
0.51824
0.610026
0.723073
0.863011
1.03754
1.23271
1.33621
1.2857
1.14648
0.98162
0.827544
0.702948
0.617118
0.576179
0.588833
0.672828
0.861838
1.20603
1.74709
0.468053
0.228722
0.181603
0.16133
0.149268
0.140986
0.134971
0.130623
0.1277
0.126114
0.125863
0.127003
0.129635
0.133909
0.140031
0.148268
0.158963
0.172544
0.189539
0.210593
0.236494
0.268199
0.306888
0.354027
0.411464
0.481551
0.567313
0.672721
0.802748
0.963719
1.16251
1.33685
1.36255
1.25835
1.09551
0.923302
0.768864
0.645587
0.559263
0.512739
0.510018
0.56036
0.682015
0.902049
1.24232
0.480531
0.228669
0.179261
0.158539
0.146466
0.138294
0.132417
0.128215
0.125446
0.124037
0.124006
0.12543
0.128437
0.133211
0.139992
0.149098
0.160925
0.175971
0.19485
0.21831
0.24726
0.28281
0.326326
0.379513
0.444527
0.524111
0.621808
0.742141
0.890611
1.07435
1.28207
1.39985
1.35723
1.21658
1.04012
0.865679
0.713669
0.593593
0.508642
0.459304
0.4464
0.473704
0.54979
0.687216
0.894357
0.494676
0.228796
0.177146
0.156088
0.144061
0.13602
0.130283
0.126217
0.123589
0.122347
0.122528
0.124238
0.127631
0.132926
0.140406
0.150436
0.163479
0.18011
0.201034
0.227115
0.259397
0.299155
0.347959
0.407778
0.481101
0.571106
0.681884
0.81843
0.986822
1.19459
1.38319
1.42485
1.33003
1.16595
0.98268
0.809535
0.661969
0.546516
0.464383
0.414353
0.395132
0.40708
0.453051
0.537371
0.661027
0.511477
0.229269
0.175541
0.154192
0.142205
0.134273
0.128647
0.124688
0.122176
0.121079
0.121462
0.123453
0.12724
0.133074
0.141285
0.152293
0.166629
0.184954
0.20808
0.236994
0.272891
0.317224
0.371788
0.438834
0.521222
0.622602
0.747567
0.901521
1.09119
1.3102
1.44747
1.42165
1.2889
1.11013
0.924659
0.755302
0.613663
0.5039
0.425657
0.376483
0.35371
0.355657
0.38198
0.432748
0.505656
0.532468
0.230636
0.174925
0.153136
0.141076
0.133167
0.127586
0.12368
0.121244
0.120267
0.120834
0.123101
0.127285
0.133674
0.142642
0.154671
0.170368
0.190488
0.21596
0.24791
0.287694
0.336963
0.397753
0.472625
0.564841
0.678561
0.81877
0.991164
1.20269
1.40652
1.47354
1.39605
1.23803
1.05109
0.866848
0.703193
0.568622
0.465332
0.391721
0.344466
0.320048
0.315638
0.329225
0.358918
0.401358
0.560357
0.234682
0.17604
0.153267
0.140848
0.132801
0.127156
0.123232
0.120825
0.119937
0.120673
0.12321
0.127793
0.134746
0.144493
0.157577
0.174688
0.196686
0.224628
0.259793
0.303719
0.358265
0.425727
0.509005
0.611806
0.738795
0.895275
1.08717
1.31476
1.47593
1.47267
1.35477
1.18012
0.989949
0.809696
0.653343
0.526759
0.430489
0.361956
0.317279
0.292476
0.284143
0.289508
0.305936
0.330058
0.595765
0.243242
0.179321
0.154794
0.14167
0.133237
0.12739
0.123365
0.120938
0.120112
0.121004
0.123809
0.128794
0.136321
0.146861
0.161023
0.179584
0.20352
0.234026
0.272553
0.320834
0.38096
0.455501
0.547722
0.661826
0.802953
0.976653
1.18869
1.407
1.5034
1.44734
1.30141
1.11686
0.927332
0.753458
0.605954
0.488175
0.399269
0.335924
0.294106
0.269694
0.259037
0.259108
0.267137
0.280126
0.633913
0.257495
0.185265
0.157793
0.14349
0.134484
0.128282
0.124076
0.121589
0.12081
0.121857
0.124934
0.130332
0.138443
0.149786
0.165038
0.185068
0.210971
0.244097
0.286082
0.338879
0.404822
0.486773
0.588388
0.714408
0.870447
1.06246
1.29489
1.47877
1.50151
1.40314
1.2384
1.04919
0.864292
0.699172
0.561377
0.452662
0.371178
0.313175
0.27434
0.250713
0.238757
0.235431
0.238097
0.244211
0.669835
0.280671
0.194531
0.162293
0.146212
0.136416
0.129796
0.12535
0.122785
0.122053
0.123266
0.126634
0.132463
0.141175
0.153335
0.169684
0.191185
0.219055
0.254809
0.300288
0.357685
0.429599
0.519185
0.630494
0.768779
0.940181
1.1512
1.38273
1.5081
1.47508
1.34481
1.16774
0.979707
0.802155
0.647054
0.519555
0.420025
0.345874
0.293086
0.257359
0.234787
0.222163
0.216665
0.215877
0.217673
0.695102
0.320267
0.208053
0.168283
0.149728
0.138937
0.131852
0.127166
0.124527
0.123865
0.125275
0.128967
0.135263
0.144607
0.157607
0.175066
0.198032
0.227848
0.266197
0.315139
0.377133
0.455065
0.552375
0.673468
0.824
1.01067
1.24031
1.44387
1.4997
1.42446
1.27311
1.09204
0.909143
0.741233
0.597263
0.480457
0.390084
0.323056
0.275268
0.242569
0.221293
0.208418
0.20154
0.198511
0.197552
0.706178
0.394197
0.226995
0.175833
0.154097
0.142099
0.134456
0.129521
0.126814
0.126254
0.127907
0.13198
0.138799
0.148833
0.162722
0.181324
0.205767
0.23751
0.278401
0.330726
0.397234
0.481127
0.586102
0.71679
0.878994
1.08034
1.31549
1.46652
1.46016
1.35145
1.19028
1.01188
0.838055
0.681891
0.54997
0.444066
0.362682
0.302467
0.259398
0.22958
0.209659
0.196905
0.189162
0.184669
0.181929
0.751761
0.45532
0.250102
0.184813
0.159505
0.146175
0.137828
0.132544
0.129728
0.129268
0.131199
0.135712
0.143134
0.153944
0.168812
0.188639
0.214621
0.248323
0.291742
0.347384
0.418293
0.508008
0.620432
0.760189
0.932383
1.14344
1.3499
1.43298
1.38445
1.25903
1.09834
0.928741
0.767414
0.624675
0.505406
0.410389
0.33768
0.283888
0.245211
0.21809
0.199518
0.187085
0.178889
0.17344
0.169538
0.764185
0.377601
0.262059
0.194377
0.166059
0.151387
0.142187
0.136467
0.13346
0.133057
0.135272
0.140281
0.148395
0.160097
0.176075
0.197265
0.224917
0.260682
0.306688
0.365626
0.440811
0.536154
0.655744
0.80417
0.984908
1.19881
1.34449
1.3546
1.28114
1.15359
1.00149
0.84518
0.698647
0.570301
0.463848
0.379443
0.314954
0.26713
0.232489
0.207858
0.190592
0.178591
0.170215
0.164185
0.159524
0.756314
0.37499
0.25405
0.199616
0.172767
0.157403
0.147399
0.141316
0.138092
0.137676
0.140156
0.145739
0.15466
0.167398
0.184652
0.207384
0.236888
0.274882
0.323603
0.385871
0.465238
0.566045
0.692441
0.850087
1.03863
1.21359
1.27797
1.25256
1.16853
1.04565
0.905553
0.764296
0.633346
0.51951
0.425557
0.35123
0.294384
0.252024
0.221052
0.198695
0.182666
0.171158
0.162772
0.156426
0.151295
0.725568
0.361232
0.250811
0.199906
0.174879
0.160203
0.150604
0.144754
0.141975
0.142065
0.14522
0.151668
0.161623
0.175592
0.194313
0.218776
0.250312
0.290703
0.342299
0.408037
0.491676
0.597637
0.730042
0.890553
1.05289
1.16077
1.18868
1.14719
1.0589
0.942374
0.814663
0.688437
0.572751
0.472864
0.390701
0.325711
0.275843
0.238419
0.210748
0.190451
0.175577
0.16459
0.156302
0.149807
0.144419
0.716346
0.3501
0.247468
0.198263
0.173298
0.159359
0.150959
0.146
0.143885
0.14476
0.148849
0.156317
0.16749
0.182931
0.203418
0.229982
0.26398
0.307216
0.36201
0.431171
0.51792
0.625252
0.754747
0.890889
1.01032
1.08227
1.0896
1.04054
0.953186
0.845296
0.730366
0.618746
0.517531
0.430648
0.359319
0.302797
0.259194
0.226175
0.201448
0.183002
0.169195
0.158732
0.150614
0.144082
0.138566
0.728845
0.342026
0.241428
0.194758
0.17065
0.157363
0.149915
0.146224
0.145562
0.147836
0.153206
0.16197
0.174571
0.191637
0.213972
0.242609
0.278858
0.324372
0.381169
0.451428
0.537278
0.639193
0.75199
0.861571
0.948683
0.993453
0.98669
0.935042
0.852755
0.755088
0.653238
0.555658
0.467916
0.392904
0.331327
0.282353
0.244294
0.215164
0.19304
0.176248
0.163418
0.153468
0.145563
0.139067
0.133511
0.758896
0.334677
0.233044
0.189549
0.167422
0.155528
0.149403
0.147119
0.147925
0.151662
0.158471
0.168686
0.182781
0.201386
0.22528
0.255448
0.293068
0.339545
0.396539
0.46523
0.54602
0.636984
0.731142
0.81581
0.876605
0.901106
0.885012
0.833892
0.758907
0.672417
0.583581
0.499266
0.423858
0.359498
0.306555
0.264207
0.230997
0.205265
0.185427
0.170103
0.158161
0.148703
0.141035
0.134626
0.129085
0.799389
0.328038
0.224491
0.183762
0.163821
0.153669
0.14915
0.148455
0.15084
0.156115
0.164411
0.176053
0.191517
0.2114
0.236419
0.267487
0.305533
0.351567
0.406519
0.470735
)
;

boundaryField
{
    leftWall
    {
        Cmu             0.09;
        kappa           0.41;
        E               9.8;
        type            epsilonWallFunction;
        value           nonuniform List<scalar> 
44
(
0.0449929
0.0847937
0.128163
0.161094
0.188054
0.210847
0.230648
0.248297
0.264386
0.279322
0.293392
0.306955
0.320039
0.332723
0.345063
0.357097
0.368853
0.380351
0.391613
0.402659
0.413522
0.424246
0.434904
0.445615
0.456566
0.468053
0.480531
0.494676
0.511477
0.532468
0.560357
0.595765
0.633913
0.669835
0.695102
0.706178
0.751761
0.764185
0.756314
0.725568
0.716346
0.728845
0.758896
0.799389
)
;
    }
    rightWall
    {
        Cmu             0.09;
        kappa           0.41;
        E               9.8;
        type            epsilonWallFunction;
        value           nonuniform 0();
    }
    lowerWall
    {
        Cmu             0.09;
        kappa           0.41;
        E               9.8;
        type            epsilonWallFunction;
        value           nonuniform List<scalar> 
44
(
0.0449929
0.146192
0.264412
0.362312
0.446028
0.519641
0.586196
0.64794
0.706605
0.76359
0.82009
0.877189
0.935915
0.997278
1.06228
1.13191
1.20712
1.28881
1.37776
1.47454
1.57944
1.69233
1.81256
1.93882
2.06906
2.20039
2.32909
2.4507
2.56017
2.65223
2.72169
2.76395
2.77539
2.75328
2.69551
2.60302
2.49101
2.35378
2.18873
1.99653
1.78241
1.56011
1.35909
1.22997
)
;
    }
    atmosphere
    {
        type            inletOutlet;
        inletValue      nonuniform 0();
        value           nonuniform 0();
    }
    defaultFaces
    {
        type            empty;
    }
    procBoundary0to1
    {
        type            processor;
        value           nonuniform List<scalar> 
44
(
1.10297
1.88854
2.17256
2.41554
2.73999
3.20239
3.7876
4.42612
5.05279
5.65979
6.20064
6.71289
7.19589
7.51284
7.48533
7.24043
6.9367
6.59507
6.21723
5.74948
5.74948
6.59575
5.80787
4.68392
3.48095
2.4493
1.68101
1.15521
0.811687
0.591386
0.449702
0.356916
0.294481
0.25114
0.220086
0.197158
0.179759
0.166232
0.155488
0.146794
0.139642
0.133661
0.128562
0.124152
)
;
    }
    procBoundary0to2
    {
        type            processor;
        value           nonuniform List<scalar> 
46
(
0.543302
0.620833
0.696288
0.75943
0.799832
0.81002
0.788408
0.739866
0.673166
0.597968
0.521574
0.449488
0.385163
0.330203
0.284792
0.248187
0.21917
0.196384
0.178538
0.164507
0.153366
0.144372
0.136952
0.130666
0.125187
0.842773
0.322197
0.217567
0.178714
0.160474
0.151867
0.148865
0.149701
0.153616
0.160387
0.170105
0.183054
0.199687
0.220524
0.246152
0.277276
0.314596
0.358712
0.409911
0.543302
0.467739
)
;
    }
}


// ************************************************************************* //
