/*--------------------------------*- C++ -*----------------------------------*\
| =========                 |                                                 |
| \\      /  F ield         | OpenFOAM: The Open Source CFD Toolbox           |
|  \\    /   O peration     | Version:  5.0                                   |
|   \\  /    A nd           | Web:      www.OpenFOAM.org                      |
|    \\/     M anipulation  |                                                 |
\*---------------------------------------------------------------------------*/
FoamFile
{
    version     2.0;
    format      ascii;
    class       volScalarField;
    location    "0.2";
    object      p;
}
// * * * * * * * * * * * * * * * * * * * * * * * * * * * * * * * * * * * * * //

dimensions      [1 -1 -2 0 0 0 0];

internalField   nonuniform List<scalar> 
1935
(
2218.41
2222.46
2227.84
2231.34
2231.55
2228.36
2222.3
2213.91
2203.57
2191.51
2177.87
2162.7
2146.02
2127.77
2107.87
2086.22
2062.68
2037.11
2009.35
1979.22
1946.57
1911.24
1873.13
1832.16
1788.35
1741.86
1693.01
1642.36
1590.81
1539.67
1490.8
1446.73
1410.83
1387.59
1383.04
1404.91
1458.52
1549.27
1680.7
1851.44
2051.55
2261.49
2455.44
2611.28
2169.35
2172.79
2175.83
2177.16
2175.92
2171.89
2165.38
2156.73
2146.21
2134
2120.19
2104.82
2087.88
2069.32
2049.05
2026.95
2002.89
1976.72
1948.28
1917.4
1883.93
1847.72
1808.68
1766.76
1722.03
1674.65
1625
1573.7
1521.68
1470.32
1421.5
1377.73
1342.25
1319.06
1312.58
1327.52
1372.98
1455.45
1580.81
1750.73
1958.91
2187.83
2409.39
2591.71
2119.92
2123.98
2125.32
2124.38
2121.31
2115.95
2108.47
2099.09
2087.98
2075.23
2060.91
2045
2027.48
2008.27
1987.28
1964.36
1939.4
1912.23
1882.68
1850.61
1815.87
1778.33
1737.92
1694.65
1648.59
1599.99
1549.26
1497.07
1444.43
1392.72
1343.83
1300.2
1264.94
1241.78
1235.04
1249.83
1291.62
1367.18
1480.84
1635.04
1828.46
2053.31
2290.96
2512.35
2069.1
2074.14
2074.82
2072.51
2068.07
2061.53
2053.05
2042.84
2031
2017.59
2002.61
1986.05
1967.83
1947.87
1926.05
1902.23
1876.27
1848.02
1817.31
1783.98
1747.92
1709
1667.18
1622.48
1575.03
1525.08
1473.09
1419.77
1366.11
1313.5
1263.75
1219.23
1182.82
1158.01
1148.85
1159.74
1195.81
1262.44
1363.84
1502.8
1679.82
1891.87
2129.17
2374.41
2016.98
2022.68
2023.08
2020.02
2014.75
2007.43
1998.24
1987.38
1974.95
1960.97
1945.42
1928.27
1909.42
1888.77
1866.2
1841.56
1814.7
1785.47
1753.69
1719.24
1681.97
1641.79
1598.65
1552.6
1503.77
1452.44
1399.06
1344.33
1289.22
1235.05
1183.55
1136.9
1097.77
1069.34
1055.23
1059.41
1086.32
1140.59
1226.48
1347.55
1506.16
1702.51
1932.45
2187.24
1963.51
1969.55
1969.77
1966.31
1960.57
1952.78
1943.15
1931.88
1919.05
1904.66
1888.68
1871.06
1851.7
1830.48
1807.26
1781.91
1754.26
1724.16
1691.44
1655.96
1617.6
1576.25
1531.88
1484.53
1434.34
1381.58
1326.68
1270.32
1213.39
1157.13
1103.12
1053.33
1010.16
976.4
955.204
949.99
964.513
1002.71
1068.6
1166.14
1299.13
1470.82
1682.99
1935.24
1908.73
1914.85
1914.93
1911.29
1905.34
1897.32
1887.48
1876
1862.94
1848.29
1832.03
1814.07
1794.31
1772.63
1748.89
1722.93
1694.59
1663.72
1630.16
1593.76
1554.39
1511.96
1466.42
1417.81
1366.26
1312.03
1255.53
1197.36
1138.34
1079.59
1022.5
968.812
920.574
880.147
850.123
833.253
832.433
850.811
891.775
959.003
1056.7
1190.57
1369.94
1604.65
1852.73
1858.75
1858.72
1855.06
1849.07
1841.02
1831.15
1819.62
1806.48
1791.72
1775.3
1757.13
1737.1
1715.07
1690.91
1664.45
1635.53
1603.99
1569.68
1532.44
1492.15
1448.7
1402.05
1352.23
1299.35
1243.65
1185.48
1125.39
1064.12
1002.6
942.059
883.93
829.901
781.832
741.678
711.411
692.99
688.522
700.097
729.367
779.676
860.012
992.28
1196.18
1795.62
1801.42
1801.31
1797.75
1791.88
1783.93
1774.16
1762.71
1749.63
1734.89
1718.43
1700.16
1679.97
1657.71
1633.23
1606.37
1576.97
1544.86
1509.9
1471.92
1430.79
1386.41
1338.72
1287.75
1233.59
1176.42
1116.59
1054.55
990.918
926.506
862.291
799.425
739.192
682.925
631.911
587.314
550.056
520.439
496.456
473.43
453.936
462.777
544.611
720.811
1737.54
1743.04
1742.9
1739.53
1733.86
1726.13
1716.58
1705.33
1692.4
1677.78
1661.39
1643.13
1622.88
1600.49
1575.79
1548.64
1518.86
1486.29
1450.76
1412.13
1370.26
1325.04
1276.41
1224.37
1168.99
1110.43
1048.97
984.996
919.025
851.697
783.772
716.106
649.591
585.058
523.172
464.272
407.486
348.144
277.479
200.932
149.099
138.806
173.351
278.384
1678.11
1683.27
1683.13
1680.01
1674.63
1667.21
1657.96
1646.99
1634.32
1619.92
1603.69
1585.54
1565.32
1542.89
1518.08
1490.73
1460.67
1427.73
1391.74
1352.56
1310.03
1264.07
1214.59
1161.57
1105.07
1045.2
982.199
916.373
848.129
777.957
706.409
634.073
561.503
489.117
416.992
343.936
264.917
175.042
91.1839
45.7276
30.9614
32.8428
38.7039
53.948
1617.18
1621.97
1621.88
1619.06
1614.02
1606.97
1598.1
1587.49
1575.16
1561.05
1545.07
1527.11
1507.02
1484.65
1459.83
1432.38
1402.13
1368.92
1332.57
1292.94
1249.87
1203.27
1153.04
1099.16
1041.65
980.598
916.174
848.622
778.248
705.403
630.468
553.825
475.804
396.492
314.718
225.906
129.88
52.2093
17.1028
11.0751
10.129
10.8891
12.2942
11.9477
1555.12
1559.54
1559.54
1557.04
1552.39
1545.75
1537.31
1527.14
1515.21
1501.46
1485.81
1468.13
1448.26
1426.03
1401.29
1373.84
1343.51
1310.13
1273.53
1233.55
1190.05
1142.93
1092.08
1037.48
979.096
917.006
851.327
782.235
709.949
634.715
556.8
476.491
394.003
308.527
215.839
116.299
39.7558
10.188
6.3633
5.53781
5.77286
6.31385
6.84965
7.22682
1492.06
1496.13
1496.23
1494.07
1489.83
1483.65
1475.69
1465.99
1454.52
1441.21
1425.96
1408.62
1389.05
1367.07
1342.49
1315.13
1284.82
1251.38
1214.63
1174.42
1130.62
1083.1
1031.78
976.581
917.491
854.536
787.792
717.381
643.457
566.205
485.866
402.767
316.712
224.341
122.539
39.9597
8.66393
4.6302
4.12259
4.27705
4.59873
4.90685
5.04053
5.15036
1428.13
1431.85
1432.09
1430.27
1426.45
1420.75
1413.31
1404.13
1393.17
1380.35
1365.56
1348.64
1329.44
1307.78
1283.45
1256.29
1226.09
1192.69
1155.91
1115.6
1071.63
1023.86
972.192
916.564
856.931
793.293
725.691
654.206
578.957
500.13
418.063
333.094
243.362
142.736
49.9734
9.58701
3.92175
3.2674
3.42667
3.68722
3.92507
4.07308
4.01331
3.83586
1363.42
1366.82
1367.2
1365.73
1362.34
1357.14
1350.23
1341.61
1331.2
1318.93
1304.65
1288.23
1269.47
1248.2
1224.22
1197.33
1167.35
1134.1
1097.41
1057.14
1013.12
965.247
913.404
857.509
797.507
733.376
665.13
592.83
516.599
436.713
353.682
267.021
171.308
70.5259
13.7857
3.53848
2.60358
2.72587
2.97804
3.21567
3.3949
3.48464
3.42334
3.3195
1298.05
1301.15
1301.68
1300.54
1297.58
1292.9
1286.55
1278.51
1268.69
1257.01
1243.3
1227.42
1209.18
1188.38
1164.83
1138.31
1108.65
1075.66
1039.19
999.071
955.166
907.34
855.478
799.487
739.295
674.863
606.195
533.352
456.519
376.154
292.669
202.954
101.582
24.3915
4.18872
2.2099
2.13753
2.37202
2.60514
2.81074
2.96206
3.03884
3.02651
2.9633
1232.12
1234.91
1235.6
1234.78
1232.25
1228.09
1222.32
1214.89
1205.7
1194.64
1181.56
1166.28
1148.62
1128.36
1105.32
1079.27
1050.03
1017.43
981.29
941.469
897.816
850.192
798.474
742.555
682.352
617.816
548.953
475.859
398.856
318.586
234.24
139.131
45.1671
6.55487
2.1223
1.70513
1.86061
2.07206
2.27329
2.45335
2.58451
2.65469
2.66652
2.6002
1165.69
1168.19
1169.04
1168.53
1166.43
1162.8
1157.62
1150.82
1142.29
1131.9
1119.48
1104.86
1087.84
1068.2
1045.75
1020.26
991.558
959.451
923.78
884.391
841.132
793.86
742.443
686.763
626.728
562.289
493.468
420.447
343.751
263.809
176.797
78.891
14.6778
2.43905
1.32772
1.40175
1.60415
1.78788
1.96573
2.12414
2.23976
2.30138
2.31997
2.26273
1098.84
1101.06
1102.06
1101.85
1100.18
1097.08
1092.51
1086.36
1078.52
1068.84
1057.13
1043.22
1026.89
1007.94
986.16
961.336
933.273
901.789
866.718
827.9
785.181
738.412
687.452
632.175
572.487
508.35
439.83
367.253
291.295
211
119.501
33.2349
4.19088
1.21937
0.991028
1.17329
1.35179
1.51521
1.67536
1.81655
1.92112
1.97873
1.99737
1.9584
1031.65
1033.58
1034.72
1034.8
1033.56
1031.01
1027.06
1021.59
1014.47
1005.52
994.574
981.42
965.851
947.655
926.623
902.55
875.237
844.499
810.163
772.061
730.033
683.923
633.58
578.877
519.725
456.107
388.175
316.45
241.347
158.992
66.4443
10.4988
1.51398
0.675847
0.766519
0.949656
1.10379
1.25433
1.40043
1.52824
1.62484
1.68153
1.70173
1.67458
1.6336
964.151
965.789
967.067
967.422
966.625
964.628
961.323
956.565
950.19
942.021
931.867
919.522
904.772
887.401
867.203
843.974
817.518
787.647
754.179
716.942
675.763
630.475
580.922
526.975
468.557
405.696
338.68
268.161
193.254
107.56
27.6603
2.94015
0.5477
0.40061
0.570996
0.724757
0.864305
1.00534
1.13985
1.25721
1.34757
1.40332
1.4245
1.40328
1.35343
896.401
897.729
899.138
899.765
899.417
897.998
895.363
891.341
885.75
878.396
869.081
857.596
843.724
827.252
807.972
785.685
760.193
731.308
698.845
662.621
622.451
578.156
529.573
476.577
419.108
357.271
291.539
222.345
146.181
60.0353
8.58476
0.860687
0.11566
0.207151
0.370011
0.503241
0.635187
0.767867
0.892604
1.00155
1.08665
1.14077
1.16148
1.14402
1.0894
828.43
829.422
830.955
831.85
831.97
831.159
829.228
825.978
821.208
814.711
806.279
795.704
782.771
767.271
748.997
727.752
703.338
675.566
644.246
609.186
570.189
527.063
479.638
427.793
371.504
310.991
246.866
178.558
100.172
25.235
2.14456
-0.00565073
-0.12054
0.0331583
0.167587
0.290056
0.416496
0.541442
0.657889
0.759749
0.840185
0.892383
0.912583
0.897358
0.845056
760.27
760.868
762.525
763.686
764.307
764.145
762.96
760.527
756.622
751.025
743.524
733.91
721.976
707.518
690.336
670.234
647.018
620.493
590.465
556.729
519.076
477.3
431.227
380.746
325.888
267.032
204.658
136.033
57.4739
7.91903
0.401893
-0.37625
-0.297912
-0.149532
-0.0315225
0.0863214
0.207483
0.325343
0.434699
0.530473
0.606657
0.656928
0.676992
0.663771
0.615199
691.936
692.031
693.83
695.264
696.435
696.981
696.601
695.038
692.048
687.401
680.881
672.282
661.404
648.055
632.045
613.186
591.285
566.146
537.566
505.326
469.2
428.972
384.463
335.576
282.432
225.541
164.69
94.8497
24.896
1.62456
-0.503434
-0.593825
-0.455484
-0.333641
-0.223341
-0.108447
0.00740953
0.118898
0.222053
0.312493
0.384792
0.433182
0.453315
0.442241
0.397861
623.423
622.804
624.812
626.549
628.348
629.686
630.188
629.561
627.544
623.901
618.414
610.885
601.123
588.949
574.189
556.666
536.194
512.578
485.604
455.039
420.641
382.178
339.467
292.441
241.33
186.536
126.168
56.6153
8.07964
0.0311417
-0.827772
-0.760397
-0.620988
-0.513148
-0.406138
-0.294735
-0.184102
-0.0783148
0.0192954
0.104875
0.173538
0.220038
0.240216
0.231385
0.191618
554.729
553.031
555.349
557.479
560.024
562.27
563.756
564.15
563.174
560.589
556.187
549.779
541.191
530.259
516.827
500.733
481.803
459.844
434.636
405.932
373.474
337.018
296.372
251.52
202.807
150.129
89.3701
25.8125
1.31809
-0.959306
-1.0234
-0.898169
-0.786308
-0.685593
-0.580475
-0.472918
-0.367206
-0.266548
-0.173979
-0.0929722
-0.027848
0.0167294
0.0369003
0.0302585
-0.00470722
485.619
482.529
485.255
487.962
491.432
494.743
497.344
498.862
499.005
497.538
494.268
489.026
481.66
472.03
460
445.426
428.151
407.987
384.71
358.066
327.783
293.599
255.322
212.999
166.937
115.896
56.037
8.60449
-0.31708
-1.21899
-1.17157
-1.04438
-0.946407
-0.849188
-0.746757
-0.643231
-0.542076
-0.446099
-0.358181
-0.281522
-0.219887
-0.177283
-0.157151
-0.161671
-0.191915
415.01
411.104
414.345
417.879
422.51
427.106
430.994
433.762
435.114
434.829
432.736
428.696
422.589
414.304
403.735
390.764
375.25
357.018
335.849
311.484
283.638
252.031
216.477
177.098
133.889
83.7613
28.0439
1.35072
-1.21942
-1.37367
-1.28614
-1.18978
-1.10017
-1.00495
-0.905602
-0.806025
-0.709095
-0.617461
-0.533893
-0.461357
-0.403117
-0.362514
-0.342459
-0.344908
-0.370691
341.868
338.912
342.153
347.1
353.226
359.364
364.746
368.916
371.578
372.538
371.663
368.853
364.027
357.115
348.047
336.738
323.077
306.91
288.029
266.181
241.07
212.394
179.979
143.948
103.618
54.922
9.81045
-0.7128
-1.58092
-1.52282
-1.41835
-1.33431
-1.24749
-1.1539
-1.05755
-0.961655
-0.868682
-0.781155
-0.701706
-0.633056
-0.578033
-0.539396
-0.519478
-0.519958
-0.541637
268.143
264.799
268.714
275.671
283.726
291.678
298.722
304.408
308.463
310.724
311.098
309.532
305.994
300.463
292.914
283.308
271.572
257.589
241.18
222.106
200.069
174.754
145.974
113.607
75.5701
30.368
2.06875
-1.31487
-1.72333
-1.64664
-1.55423
-1.47415
-1.38806
-1.29627
-1.20278
-1.11029
-1.02104
-0.937418
-0.861859
-0.796841
-0.744809
-0.708044
-0.688341
-0.687022
-0.704936
192.83
188.303
193.479
203.462
214.206
224.406
233.289
240.529
245.966
249.503
251.101
250.755
248.483
244.314
238.278
230.389
220.63
208.934
195.172
179.138
160.556
139.13
114.644
86.5391
50.8889
12.1073
-0.870763
-1.93431
-1.86223
-1.76563
-1.68803
-1.60888
-1.52255
-1.43229
-1.34132
-1.25191
-1.16614
-1.08617
-1.01425
-0.952601
-0.903334
-0.868325
-0.84891
-0.846006
-0.860437
103.199
106.455
116.275
130.931
144.955
157.786
168.736
177.61
184.404
189.143
191.865
192.642
191.55
188.672
184.097
177.898
170.12
160.767
149.783
137.024
122.286
105.366
85.8475
62.3592
31.2986
3.57062
-1.41533
-2.06576
-1.98769
-1.89063
-1.81561
-1.73638
-1.65051
-1.5618
-1.47307
-1.38644
-1.30386
-1.22732
-1.1588
-1.10027
-1.05356
-1.02019
-1.0011
-0.996825
-1.00804
17.754
31.957
44.2991
62.104
78.5263
92.9877
105.287
115.461
123.517
129.416
133.196
134.99
134.957
133.245
130.007
125.391
119.518
112.493
104.381
95.1591
84.8369
73.3981
59.8651
41.3724
16.0196
-0.192634
-2.22757
-2.17492
-2.084
-2.01009
-1.93716
-1.85711
-1.77185
-1.68463
-1.59795
-1.51387
-1.43426
-1.36093
-1.29564
-1.24007
-1.19575
-1.16388
-1.1451
-1.13964
-1.14793
-2.08448
1.02481
5.05848
14.1737
25.0904
36.4701
47.0715
56.38
64.2037
70.3901
74.7175
77.2155
78.0072
77.2578
75.1992
72.0632
68.0766
63.5119
58.6414
53.6579
49.0148
44.8626
38.5592
25.4361
4.72963
-1.66204
-2.33731
-2.27678
-2.19028
-2.12326
-2.05107
-1.97086
-1.88633
-1.80054
-1.71584
-1.63423
-1.5575
-1.4873
-1.42514
-1.37242
-1.33036
-1.29987
-1.28138
-1.27489
-1.28055
-1.97307
-1.65084
-1.83611
-1.31584
1.93214
5.8206
9.65651
13.2111
16.8852
20.4771
23.3491
25.2114
25.9733
25.704
24.6675
23.1295
21.3501
19.7238
18.6743
18.3584
19.4851
23.2016
24.6205
15.0045
-0.224395
-2.1593
-2.37395
-2.35081
-2.29467
-2.23109
-2.15775
-2.07731
-1.99351
-1.9092
-1.82659
-1.74758
-1.67382
-1.60676
-1.5477
-1.49777
-1.45789
-1.42871
-1.4105
-1.40314
-1.40654
-1.99914
-1.98293
-2.0062
-2.00546
-2.13689
-2.24051
-1.2925
0.00240253
1.12735
1.27647
0.974
0.517316
0.00662363
-0.408454
-0.553578
-0.34027
0.222131
1.14223
2.38128
3.61685
4.84029
8.05649
13.0311
4.69412
-2.42006
-2.6991
-2.50925
-2.45996
-2.40508
-2.33537
-2.2579
-2.17626
-2.09306
-2.0104
-1.93017
-1.85403
-1.78345
-1.71965
-1.66373
-1.61655
-1.5788
-1.55091
-1.53302
-1.52495
-1.52647
-2.06628
-2.03746
-2.06769
-2.09028
-2.11879
-2.13487
-2.21533
-2.46057
-2.56607
-2.55916
-2.65376
-2.79298
-2.91512
-3.01387
-3.06505
-3.05867
-3.00338
-2.91681
-2.85968
-2.88839
-2.87833
-2.82468
-1.74785
-2.98048
-2.901
-2.83957
-2.6755
-2.58345
-2.50723
-2.4292
-2.34846
-2.26641
-2.18443
-2.10401
-2.02667
-1.95382
-1.88669
-1.82632
-1.77359
-1.72917
-1.69353
-1.66694
-1.64943
-1.64083
-1.64078
-2.14131
-2.12152
-2.13811
-2.15822
-2.18469
-2.21027
-2.24061
-2.2974
-2.33337
-2.36325
-2.45139
-2.59159
-2.68493
-2.74039
-2.77724
-2.79916
-2.79962
-2.77341
-2.75312
-2.78478
-2.85267
-2.93581
-2.93201
-2.91771
-2.95217
-2.86454
-2.75007
-2.66308
-2.58473
-2.50636
-2.42672
-2.34666
-2.26737
-2.19018
-2.11642
-2.04732
-1.98395
-1.92718
-1.87771
-1.83604
-1.8025
-1.77723
-1.7602
-1.75121
-1.74989
-2.2195
-2.20443
-2.21339
-2.22864
-2.25192
-2.28209
-2.31825
-2.36136
-2.39736
-2.42188
-2.43961
-2.4796
-2.52223
-2.56252
-2.60147
-2.63959
-2.67704
-2.7159
-2.76346
-2.81886
-2.87267
-2.93034
-2.96344
-2.93296
-2.92179
-2.86204
-2.78687
-2.71502
-2.64314
-2.5693
-2.49374
-2.41766
-2.34243
-2.26942
-2.19991
-2.13503
-2.0757
-2.02268
-1.97653
-1.93761
-1.90616
-1.88223
-1.86577
-1.85656
-1.85419
-2.29561
-2.28823
-2.29282
-2.30372
-2.32163
-2.34719
-2.37992
-2.41796
-2.45464
-2.48673
-2.51739
-2.55453
-2.59375
-2.63179
-2.66795
-2.70232
-2.73537
-2.76893
-2.80589
-2.84476
-2.88112
-2.91386
-2.93423
-2.92515
-2.90689
-2.86686
-2.8128
-2.75324
-2.68929
-2.62172
-2.55173
-2.48087
-2.41067
-2.34256
-2.27782
-2.2175
-2.16245
-2.11329
-2.07048
-2.03432
-2.00497
-1.98243
-1.96663
-1.95733
-1.95416
-2.37083
-2.37152
-2.37417
-2.38219
-2.39591
-2.41599
-2.44219
-2.47298
-2.50507
-2.53722
-2.57034
-2.60597
-2.64212
-2.67696
-2.70999
-2.7412
-2.77087
-2.79987
-2.82962
-2.85992
-2.88781
-2.91078
-2.92417
-2.92182
-2.9073
-2.87728
-2.83482
-2.78431
-2.7278
-2.66682
-2.60296
-2.53793
-2.47332
-2.41057
-2.35093
-2.29539
-2.24473
-2.19948
-2.16005
-2.12667
-2.09944
-2.07836
-2.06331
-2.05407
-2.05037
-2.44514
-2.45186
-2.45414
-2.46083
-2.47192
-2.48819
-2.50947
-2.53467
-2.56216
-2.59096
-2.62102
-2.6524
-2.68404
-2.71499
-2.74481
-2.77344
-2.80105
-2.82791
-2.85422
-2.87947
)
;

boundaryField
{
    leftWall
    {
        type            calculated;
        value           nonuniform List<scalar> 
44
(
2218.41
2169.35
2119.92
2069.1
2016.98
1963.51
1908.73
1852.73
1795.62
1737.54
1678.11
1617.18
1555.12
1492.06
1428.13
1363.42
1298.05
1232.12
1165.69
1098.84
1031.65
964.151
896.401
828.43
760.27
691.936
623.423
554.729
485.619
415.01
341.868
268.143
192.83
103.199
17.754
-2.08448
-1.97307
-1.99914
-2.06628
-2.14131
-2.2195
-2.29561
-2.37083
-2.44514
)
;
    }
    rightWall
    {
        type            calculated;
        value           nonuniform 0();
    }
    lowerWall
    {
        type            calculated;
        value           nonuniform List<scalar> 
44
(
2241.95
2246
2251.39
2254.88
2255.09
2251.9
2245.84
2237.45
2227.11
2215.05
2201.41
2186.24
2169.56
2151.31
2131.41
2109.76
2086.23
2060.66
2032.89
2002.77
1970.11
1934.79
1896.67
1855.7
1811.9
1765.41
1716.56
1665.91
1614.35
1563.21
1514.34
1470.28
1434.37
1411.14
1406.59
1428.45
1482.06
1572.82
1704.24
1874.99
2075.1
2285.03
2478.99
2634.79
)
;
    }
    atmosphere
    {
        type            calculated;
        value           nonuniform 0();
    }
    defaultFaces
    {
        type            empty;
    }
    procBoundary0to1
    {
        type            processor;
        value           nonuniform List<scalar> 
44
(
2713.18
2701.43
2681.67
2604.54
2456.17
2225.47
1900.4
1478.06
977.374
468.152
100.827
-1.15399
-1.7021
0.762771
1.84334
3.30952
3.06156
2.61049
2.22148
1.91528
1.91528
1.4444
1.23473
0.985277
0.746049
0.524451
0.315853
0.118246
-0.0696235
-0.248812
-0.420218
-0.584484
-0.741766
-0.891799
-1.03434
-1.16956
-1.298
-1.42032
-1.53709
-1.64877
-1.75569
-1.85819
-1.95674
-2.05193
)
;
    }
    procBoundary0to2
    {
        type            processor;
        value           nonuniform List<scalar> 
46
(
-2.90204
-2.91981
-2.92941
-2.92798
-2.91552
-2.89089
-2.85552
-2.81191
-2.76193
-2.70723
-2.6495
-2.59046
-2.53166
-2.47448
-2.42009
-2.36942
-2.32317
-2.28185
-2.2458
-2.2152
-2.19014
-2.1706
-2.15644
-2.14747
-2.1435
-2.51819
-2.52823
-2.53078
-2.53713
-2.54687
-2.56082
-2.5789
-2.60036
-2.62415
-2.64951
-2.67604
-2.70341
-2.73103
-2.75835
-2.78502
-2.81093
-2.83608
-2.86042
-2.88356
-2.90204
-2.90477
)
;
    }
}


// ************************************************************************* //
