/*--------------------------------*- C++ -*----------------------------------*\
| =========                 |                                                 |
| \\      /  F ield         | OpenFOAM: The Open Source CFD Toolbox           |
|  \\    /   O peration     | Version:  5.0                                   |
|   \\  /    A nd           | Web:      www.OpenFOAM.org                      |
|    \\/     M anipulation  |                                                 |
\*---------------------------------------------------------------------------*/
FoamFile
{
    version     2.0;
    format      ascii;
    class       volScalarField;
    location    "0.2";
    object      p_rgh;
}
// * * * * * * * * * * * * * * * * * * * * * * * * * * * * * * * * * * * * * //

dimensions      [1 -1 -2 0 0 0 0];

internalField   nonuniform List<scalar> 
1935
(
2241.95
2246
2251.39
2254.88
2255.09
2251.9
2245.84
2237.45
2227.11
2215.05
2201.41
2186.24
2169.56
2151.31
2131.41
2109.76
2086.23
2060.66
2032.89
2002.77
1970.11
1934.79
1896.67
1855.7
1811.9
1765.41
1716.56
1665.91
1614.35
1563.21
1514.34
1470.28
1434.37
1411.14
1406.59
1428.45
1482.06
1572.82
1704.24
1874.99
2075.1
2285.03
2478.99
2634.79
2239.98
2243.42
2246.46
2247.79
2246.55
2242.52
2236.01
2227.36
2216.84
2204.63
2190.82
2175.45
2158.51
2139.95
2119.68
2097.58
2073.52
2047.35
2018.91
1988.03
1954.56
1918.35
1879.31
1837.39
1792.66
1745.28
1695.64
1644.33
1592.31
1540.95
1492.13
1448.36
1412.88
1389.69
1383.21
1398.15
1443.61
1526.08
1651.44
1821.36
2029.54
2258.46
2480.02
2662.32
2237.64
2241.69
2243.04
2242.1
2239.03
2233.67
2226.19
2216.81
2205.7
2192.95
2178.62
2162.72
2145.2
2125.99
2104.99
2082.08
2057.12
2029.94
2000.4
1968.33
1933.58
1896.05
1855.64
1812.36
1766.31
1717.7
1666.98
1614.79
1562.15
1510.44
1461.54
1417.92
1382.66
1359.49
1352.76
1367.54
1409.34
1484.9
1598.56
1752.76
1946.18
2171.03
2408.68
2630.07
2233.91
2238.94
2239.63
2237.31
2232.87
2226.33
2217.86
2207.65
2195.81
2182.39
2167.42
2150.85
2132.63
2112.67
2090.85
2067.03
2041.08
2012.82
1982.11
1948.79
1912.72
1873.81
1831.99
1787.29
1739.83
1689.88
1637.9
1584.57
1530.91
1478.3
1428.56
1384.03
1347.62
1322.82
1313.65
1324.54
1360.61
1427.24
1528.65
1667.6
1844.62
2056.67
2293.95
2539.21
2228.87
2234.57
2234.97
2231.91
2226.64
2219.32
2210.13
2199.27
2186.84
2172.86
2157.31
2140.16
2121.31
2100.66
2078.09
2053.45
2026.59
1997.36
1965.58
1931.13
1893.86
1853.68
1810.55
1764.49
1715.66
1664.33
1610.95
1556.22
1501.11
1446.94
1395.44
1348.79
1309.66
1281.23
1267.12
1271.3
1298.21
1352.48
1438.37
1559.44
1718.04
1914.37
2144.32
2399.11
2222.49
2228.52
2228.74
2225.28
2219.55
2211.76
2202.13
2190.86
2178.03
2163.63
2147.66
2130.04
2110.67
2089.45
2066.24
2040.89
2013.24
1983.13
1950.42
1914.94
1876.58
1835.23
1790.86
1743.51
1693.32
1640.55
1585.66
1529.3
1472.37
1416.11
1362.1
1312.31
1269.14
1235.38
1214.18
1208.97
1223.49
1261.68
1327.57
1425.12
1558.11
1729.77
1941.93
2194.2
2214.8
2220.92
2220.99
2217.36
2211.4
2203.39
2193.55
2182.07
2169
2154.36
2138.09
2120.13
2100.38
2078.7
2054.96
2028.99
2000.66
1969.79
1936.23
1899.83
1860.46
1818.02
1772.48
1723.87
1672.32
1618.1
1561.59
1503.42
1444.41
1385.66
1328.57
1274.88
1226.64
1186.21
1156.19
1139.32
1138.5
1156.88
1197.84
1265.07
1362.76
1496.63
1676
1910.71
2205.88
2211.9
2211.87
2208.21
2202.23
2194.17
2184.3
2172.77
2159.63
2144.87
2128.45
2110.28
2090.25
2068.23
2044.06
2017.6
1988.68
1957.15
1922.83
1885.6
1845.3
1801.85
1755.21
1705.39
1652.51
1596.8
1538.64
1478.55
1417.27
1355.76
1295.21
1237.08
1183.05
1134.98
1094.83
1064.56
1046.14
1041.67
1053.25
1082.52
1132.83
1213.16
1345.43
1549.33
2195.86
2201.66
2201.55
2197.99
2192.11
2184.17
2174.4
2162.95
2149.87
2135.13
2118.67
2100.4
2080.21
2057.95
2033.46
2006.61
1977.21
1945.1
1910.14
1872.16
1831.03
1786.65
1738.96
1687.99
1633.82
1576.66
1516.83
1454.79
1391.16
1326.75
1262.53
1199.66
1139.43
1083.16
1032.15
987.553
950.295
920.679
896.695
873.669
847.429
840.854
933.26
1121.05
2184.87
2190.37
2190.22
2186.86
2181.19
2173.46
2163.9
2152.65
2139.73
2125.11
2108.72
2090.46
2070.21
2047.81
2023.12
1995.96
1966.18
1933.61
1898.09
1859.46
1817.59
1772.36
1723.73
1671.69
1616.31
1557.76
1496.3
1432.32
1366.35
1299.02
1231.1
1163.43
1096.92
1032.38
970.499
911.598
854.799
794.168
702.302
540.118
372.065
295.724
385.368
642.304
2172.95
2178.1
2177.97
2174.85
2169.47
2162.04
2152.79
2141.83
2129.16
2114.75
2098.52
2080.37
2060.15
2037.72
2012.92
1985.57
1955.5
1922.56
1886.58
1847.39
1804.87
1758.9
1709.42
1656.41
1599.9
1540.04
1477.03
1411.21
1342.96
1272.79
1201.24
1128.91
1056.34
983.952
911.827
838.771
756.67
599.705
315.458
102.006
42.8126
41.3884
54.9584
181.657
2160.17
2164.96
2164.87
2162.05
2157.01
2149.96
2141.08
2130.48
2118.15
2104.04
2088.06
2070.1
2050.01
2027.64
2002.82
1975.37
1945.12
1911.91
1875.56
1835.93
1792.86
1746.25
1696.03
1642.15
1584.64
1523.59
1459.16
1391.61
1321.24
1248.39
1173.46
1096.81
1018.79
939.48
857.706
767.811
566.833
215.849
30.1127
14.7163
12.8352
14.1221
17.9666
25.9001
2146.71
2151.13
2151.13
2148.63
2143.97
2137.34
2128.9
2118.73
2106.8
2093.05
2077.4
2059.72
2039.85
2017.62
1992.88
1965.43
1935.1
1901.72
1865.12
1825.14
1781.64
1734.52
1683.67
1629.06
1570.69
1508.6
1442.92
1373.82
1301.54
1226.3
1148.39
1068.08
985.592
900.116
807.381
605.728
208.126
20.0097
9.08517
7.00177
7.01312
7.8305
9.40178
12.9808
2132.7
2136.77
2136.87
2134.71
2130.47
2124.29
2116.33
2106.63
2095.16
2081.86
2066.6
2049.27
2029.69
2007.71
1983.13
1955.77
1925.46
1892.02
1855.27
1815.06
1771.26
1723.74
1672.42
1617.22
1558.13
1495.18
1428.43
1358.02
1284.1
1206.85
1126.51
1043.41
957.354
864.969
698.888
266.276
20.7205
7.43054
5.47312
5.17307
5.43841
5.86523
6.40614
7.74133
2118.28
2122
2122.23
2120.42
2116.6
2110.9
2103.46
2094.27
2083.32
2070.5
2055.71
2038.79
2019.59
1997.92
1973.6
1946.44
1916.24
1882.83
1846.06
1805.75
1761.77
1714
1662.34
1606.71
1547.08
1483.44
1415.84
1344.35
1269.11
1190.28
1108.21
1023.24
933.508
821.783
398.009
34.9026
6.9424
4.67846
4.33548
4.45392
4.67665
4.87051
4.97592
5.36166
2103.54
2106.94
2107.32
2105.84
2102.45
2097.26
2090.35
2081.72
2071.32
2059.04
2044.77
2028.34
2009.59
1988.32
1964.34
1937.45
1907.47
1874.22
1837.53
1797.25
1753.24
1705.36
1653.52
1597.62
1537.62
1473.49
1405.25
1332.95
1256.72
1176.83
1093.8
1007.14
911.398
599.479
93.5055
7.20425
4.06656
3.69943
3.78587
3.97894
4.15386
4.26057
4.27032
4.37269
2088.6
2091.69
2092.23
2091.08
2088.12
2083.44
2077.09
2069.05
2059.24
2047.55
2033.85
2017.97
1999.72
1978.93
1955.37
1928.86
1899.2
1866.21
1829.73
1789.62
1745.71
1697.89
1646.02
1590.03
1529.84
1465.41
1396.74
1323.9
1247.07
1166.7
1083.22
993.496
828.975
248.102
9.72684
3.96956
3.17196
3.23315
3.41651
3.60828
3.75832
3.84115
3.85454
3.86585
2073.56
2076.35
2077.04
2076.23
2073.7
2069.54
2063.76
2056.33
2047.15
2036.09
2023.01
2007.73
1990.06
1969.81
1946.76
1920.72
1891.48
1858.87
1822.74
1782.91
1739.26
1691.64
1639.92
1584
1523.8
1459.26
1390.4
1317.3
1240.3
1160.03
1075.68
980.515
531.965
38.4351
4.54654
2.8585
2.77953
2.93524
3.12111
3.2969
3.42766
3.49982
3.52022
3.47964
2058.5
2061.01
2061.85
2061.35
2059.25
2055.61
2050.43
2043.63
2035.11
2024.72
2012.3
1997.68
1980.65
1961.02
1938.56
1913.08
1884.37
1852.27
1816.6
1777.21
1733.95
1686.68
1635.26
1579.58
1519.55
1455.11
1386.29
1313.26
1236.57
1156.63
1069.61
857.572
182.096
6.58652
2.77374
2.40416
2.5213
2.68735
2.86047
3.01758
3.13308
3.19531
3.2166
3.16781
2043.51
2045.73
2046.72
2046.51
2044.85
2041.75
2037.17
2031.03
2023.19
2013.5
2001.8
1987.89
1971.56
1952.61
1930.83
1906
1877.94
1846.46
1811.38
1772.57
1729.85
1683.08
1632.12
1576.84
1517.15
1453.02
1384.5
1311.92
1235.96
1155.67
1064.08
514.824
22.5303
3.23279
2.1186
2.15313
2.30404
2.4619
2.6206
2.7614
2.86593
2.92372
2.94319
2.90709
2028.64
2030.57
2031.71
2031.79
2030.56
2028
2024.05
2018.59
2011.47
2002.52
1991.57
1978.42
1962.85
1944.65
1923.62
1899.55
1872.23
1841.5
1807.16
1769.06
1727.03
1680.92
1630.58
1575.87
1516.72
1453.1
1385.17
1313.45
1238.34
1156
928.617
167.273
5.05879
2.04286
1.82301
1.95742
2.10306
2.25192
2.39758
2.52529
2.62188
2.67862
2.69906
2.6728
2.63462
2013.96
2015.6
2016.88
2017.23
2016.44
2014.44
2011.13
2006.38
2000
1991.83
1981.68
1969.33
1954.58
1937.21
1917.01
1893.79
1867.33
1837.46
1803.99
1766.75
1725.58
1680.29
1630.73
1576.79
1518.37
1455.51
1388.49
1317.97
1243.07
1157.3
557.218
19.8779
2.4403
1.56401
1.63929
1.77779
1.91478
2.05532
2.18971
2.30703
2.39739
2.45315
2.47441
2.45346
2.40449
1999.52
2000.85
2002.26
2002.88
2002.54
2001.12
1998.48
1994.46
1988.87
1981.51
1972.2
1960.71
1946.84
1930.37
1911.09
1888.8
1863.31
1834.43
1801.96
1765.74
1725.57
1681.27
1632.69
1579.7
1522.23
1460.39
1394.66
1325.46
1249.31
1045.32
186.687
4.18173
1.49282
1.34593
1.47852
1.60727
1.73849
1.87103
1.99574
2.10467
2.18977
2.24389
2.26462
2.24724
2.19289
1985.35
1986.34
1987.87
1988.77
1988.89
1988.08
1986.15
1982.9
1978.13
1971.63
1963.2
1952.62
1939.69
1924.19
1905.92
1884.67
1860.26
1832.49
1801.17
1766.11
1727.11
1683.98
1636.56
1584.71
1528.42
1467.91
1403.79
1335.48
1257.06
653.149
23.2764
1.8621
1.11406
1.20039
1.326
1.44722
1.57347
1.69837
1.81481
1.91667
1.99711
2.04931
2.06951
2.05431
2.00208
1971.49
1972.09
1973.75
1974.91
1975.53
1975.37
1974.18
1971.75
1967.84
1962.25
1954.74
1945.13
1933.2
1918.74
1901.56
1881.45
1858.24
1831.71
1801.69
1767.95
1730.3
1688.52
1642.45
1591.97
1537.11
1478.25
1415.88
1347.26
1210.35
247.817
3.74664
1.0644
0.936541
1.0645
1.18008
1.29761
1.41872
1.53657
1.64592
1.74169
1.81788
1.86815
1.88821
1.875
1.82645
1957.96
1958.06
1959.86
1961.29
1962.46
1963.01
1962.63
1961.06
1958.07
1953.43
1946.91
1938.31
1927.43
1914.08
1898.07
1879.21
1857.31
1832.17
1803.59
1771.35
1735.23
1695
1650.49
1601.6
1548.46
1491.57
1430.72
1360.86
807.178
38.1522
1.40045
0.72614
0.816468
0.933095
1.04278
1.15759
1.27344
1.38493
1.48808
1.57852
1.65082
1.69921
1.71934
1.70827
1.66389
1944.76
1944.14
1946.15
1947.89
1949.69
1951.03
1951.53
1950.9
1948.88
1945.24
1939.75
1932.22
1922.46
1910.29
1895.53
1878.01
1857.53
1833.92
1806.94
1776.38
1741.98
1703.52
1660.81
1613.78
1562.67
1507.88
1447.52
1377.66
359.27
3.51602
0.691341
0.576676
0.701799
0.808352
0.915223
1.02661
1.13724
1.24303
1.34064
1.42622
1.49488
1.54138
1.56156
1.55273
1.51296
1931.9
1930.2
1932.52
1934.65
1937.19
1939.44
1940.92
1941.32
1940.34
1937.76
1933.35
1926.95
1918.36
1907.43
1893.99
1877.9
1858.97
1837.01
1811.8
1783.1
1750.64
1714.19
1673.54
1628.69
1579.97
1527.3
1466.64
1026.35
74.2502
1.02713
0.394488
0.482392
0.59118
0.691608
0.796697
0.904251
1.00996
1.11062
1.20319
1.2842
1.34932
1.3939
1.41407
1.40743
1.37246
1919.13
1916.04
1918.77
1921.47
1924.94
1928.26
1930.86
1932.37
1932.52
1931.05
1927.78
1922.54
1915.17
1905.54
1893.51
1878.94
1861.66
1841.5
1818.22
1791.58
1761.3
1727.11
1688.83
1646.51
1600.45
1549.41
1489.48
520.458
3.30424
0.379856
0.270973
0.389817
0.487168
0.584331
0.686758
0.790283
0.891438
0.987414
1.07533
1.15199
1.21363
1.25623
1.27636
1.27184
1.2416
1905.39
1901.48
1904.72
1908.26
1912.89
1917.49
1921.38
1924.14
1925.5
1925.21
1923.12
1919.08
1912.97
1904.69
1894.12
1881.15
1865.63
1847.4
1826.23
1801.87
1774.02
1742.41
1706.86
1667.48
1624.27
1574.17
1343.43
153.846
0.893076
0.150547
0.20625
0.300733
0.390219
0.485434
0.58478
0.684358
0.781288
0.872921
0.956489
1.02903
1.08727
1.12787
1.14792
1.14547
1.11969
1889.65
1886.64
1889.91
1894.87
1901
1907.14
1912.52
1916.69
1919.36
1920.32
1919.44
1916.63
1911.81
1904.89
1895.83
1884.52
1870.86
1854.69
1835.81
1813.96
1788.85
1760.17
1727.76
1691.73
1651.39
1602.66
763.215
9.90713
0.109797
0.0289176
0.129715
0.21349
0.300292
0.393884
0.490225
0.586124
0.679097
0.766624
0.846073
0.914723
0.969746
1.00838
1.0283
1.02782
1.00614
1873.86
1870.24
1874.28
1881.32
1889.41
1897.37
1904.42
1910.11
1914.17
1916.43
1916.81
1915.24
1911.7
1906.17
1898.62
1889.02
1877.28
1863.3
1846.89
1827.81
1805.77
1780.46
1751.68
1719.32
1681.3
1635.62
295.337
0.987668
-0.0839383
-0.0398194
0.0515221
0.131558
0.217652
0.309443
0.402929
0.495423
0.584669
0.668291
0.74385
0.808868
0.8609
0.897665
0.917368
0.918687
0.900772
1857.03
1851.09
1856.83
1867.29
1878.23
1888.51
1897.43
1904.68
1910.13
1913.67
1915.27
1914.93
1912.65
1908.48
1902.45
1894.56
1884.8
1873.1
1859.34
1843.3
1824.72
1803.29
1778.81
1750.7
1715.15
1067.48
39.9516
-0.135058
-0.198639
-0.101371
-0.0238449
0.0553001
0.141627
0.23189
0.322861
0.412267
0.49804
0.578002
0.649923
0.711575
0.760842
0.795851
0.815266
0.81817
0.803739
1813.25
1818.96
1834.5
1851.99
1867.18
1880.53
1891.68
1900.66
1907.51
1912.27
1915.01
1915.79
1914.7
1911.83
1907.25
1901.05
1893.26
1883.9
1872.91
1860.14
1845.39
1828.47
1808.98
1785.45
1753.9
483.151
0.978043
-0.318554
-0.264096
-0.167434
-0.092419
-0.0131922
0.0726742
0.161391
0.250116
0.336747
0.419326
0.495872
0.56439
0.622915
0.669623
0.702998
0.72209
0.726362
0.715144
936.64
1149.53
1589.68
1821.66
1855.44
1873.03
1886.53
1897.36
1905.74
1911.79
1915.64
1917.49
1917.48
1915.78
1912.53
1907.9
1902
1894.93
1886.76
1877.47
1867.06
1855.61
1842.27
1823.6
1597.37
144.098
-0.303054
-0.394131
-0.301245
-0.227342
-0.154413
-0.0743687
0.0108969
0.0981171
0.184791
0.268878
0.348488
0.421818
0.487107
0.542675
0.586997
0.618868
0.637643
0.643104
0.63482
5.04319
73.9582
394.941
1033.34
1577.08
1827.82
1880.73
1894.03
1903.83
1910.91
1915.72
1918.52
1919.47
1918.77
1916.69
1913.45
1909.28
1904.46
1899.27
1893.93
1888.75
1884.62
1879.32
1864.69
706.515
1.28816
-0.480587
-0.434429
-0.347424
-0.280399
-0.208214
-0.128003
-0.0434683
0.0423174
0.127016
0.208628
0.285353
0.355558
0.417719
0.470436
0.512501
0.542987
0.561473
0.567966
0.562304
-0.0695405
0.252687
0.0674208
37.0776
347.313
873.615
1356.99
1669.57
1828.05
1893.53
1913.63
1919.05
1920.81
1920.87
1919.67
1917.55
1914.73
1910.51
1901.4
1887.99
1855.67
1864.29
1916.17
1802.73
223.376
-0.144582
-0.472215
-0.447296
-0.391147
-0.32756
-0.254225
-0.173778
-0.0899846
-0.00567502
0.0769337
0.155946
0.229705
0.296763
0.355822
0.405752
0.445636
0.474816
0.493022
0.500385
0.496984
-0.0343784
-0.0181753
-0.0414403
-0.0406954
-0.172132
-0.275753
145.008
397.488
693.194
984.919
1196.63
1336.62
1414.55
1440.64
1429.68
1387.87
1312.46
1208.59
1091.09
958.541
779.026
813.321
1281.48
629.5
24.8661
-0.73421
-0.545167
-0.4952
-0.440315
-0.370613
-0.293138
-0.211505
-0.128302
-0.0456402
0.0345919
0.110726
0.181313
0.245107
0.301034
0.348207
0.385955
0.413849
0.431742
0.439806
0.438292
-0.0397216
-0.0109029
-0.0411259
-0.0637178
-0.0922252
-0.108305
-0.188771
-0.434007
-0.539509
2.55298
48.8068
100.759
139.068
153.242
147.003
124.387
88.9742
49.7764
14.7417
-0.861832
-0.851772
-0.798117
75.5638
-0.953933
-0.87453
-0.813007
-0.648962
-0.556892
-0.480671
-0.402639
-0.321903
-0.23985
-0.157873
-0.077453
-0.000113088
0.0727392
0.139871
0.200239
0.252972
0.297393
0.333031
0.359626
0.377131
0.385734
0.385778
-0.0523742
-0.0325876
-0.0491786
-0.0692855
-0.0957571
-0.121332
-0.151678
-0.208461
-0.244433
-0.274309
-0.362452
-0.502655
-0.596001
-0.651457
-0.688303
-0.710227
-0.710681
-0.684471
-0.664181
-0.695844
-0.763736
-0.84688
-0.843139
-0.828782
-0.863277
-0.775619
-0.661138
-0.574143
-0.495792
-0.417423
-0.33778
-0.257726
-0.178434
-0.101239
-0.0274794
0.041615
0.104984
0.161752
0.211225
0.252892
0.286434
0.311708
0.328735
0.337722
0.33905
-0.0676112
-0.052544
-0.0614976
-0.0767476
-0.100031
-0.1302
-0.166355
-0.20947
-0.245469
-0.269988
-0.287716
-0.327715
-0.370345
-0.410634
-0.449588
-0.487703
-0.525147
-0.56401
-0.611567
-0.666973
-0.720779
-0.778458
-0.811565
-0.78107
-0.769907
-0.71016
-0.634977
-0.563128
-0.49125
-0.417405
-0.341849
-0.265773
-0.190542
-0.117529
-0.0480186
0.0168646
0.0761869
0.129206
0.175364
0.214278
0.245731
0.269656
0.286117
0.295334
0.297699
-0.0801795
-0.0727954
-0.0773937
-0.0882911
-0.106204
-0.131757
-0.164492
-0.202528
-0.239209
-0.271302
-0.301963
-0.339102
-0.378319
-0.416368
-0.45253
-0.486893
-0.519941
-0.553506
-0.590457
-0.629337
-0.665691
-0.698439
-0.718814
-0.709729
-0.691479
-0.651455
-0.597368
-0.537809
-0.473863
-0.406293
-0.336301
-0.265438
-0.195236
-0.127131
-0.0623914
-0.00207429
0.0529833
0.102144
0.144951
0.181107
0.210461
0.232996
0.248802
0.258104
0.261269
-0.0912691
-0.0919613
-0.0946105
-0.102633
-0.116347
-0.136433
-0.162627
-0.193425
-0.225514
-0.257665
-0.290783
-0.326416
-0.36256
-0.397411
-0.430442
-0.461643
-0.491314
-0.520316
-0.55006
-0.580365
-0.608258
-0.631233
-0.64462
-0.642267
-0.627757
-0.597732
-0.55526
-0.504751
-0.448246
-0.387261
-0.323405
-0.258374
-0.193762
-0.131013
-0.0713693
-0.0158343
0.0348319
0.080076
0.119511
0.152893
0.180115
0.201194
0.216247
0.225488
0.22919
-0.10086
-0.107573
-0.109859
-0.116548
-0.12764
-0.143903
-0.165187
-0.190387
-0.217875
-0.246681
-0.27674
-0.308118
-0.33976
-0.370713
-0.400534
-0.429158
-0.456767
-0.483627
-0.509941
-0.535188
)
;

boundaryField
{
    leftWall
    {
        type            fixedFluxPressure;
        gradient        uniform 0;
        value           nonuniform List<scalar> 
44
(
2241.95
2239.98
2237.64
2233.91
2228.87
2222.49
2214.8
2205.88
2195.86
2184.87
2172.95
2160.17
2146.71
2132.7
2118.28
2103.54
2088.6
2073.56
2058.5
2043.51
2028.64
2013.96
1999.52
1985.35
1971.49
1957.96
1944.76
1931.9
1919.13
1905.39
1889.65
1873.86
1857.03
1813.25
936.64
5.04319
-0.0695405
-0.0343784
-0.0397216
-0.0523742
-0.0676112
-0.0801795
-0.0912691
-0.10086
)
;
    }
    rightWall
    {
        type            fixedFluxPressure;
        gradient        nonuniform 0();
        value           nonuniform 0();
    }
    lowerWall
    {
        type            fixedFluxPressure;
        gradient        uniform 0;
        value           nonuniform List<scalar> 
44
(
2241.95
2246
2251.39
2254.88
2255.09
2251.9
2245.84
2237.45
2227.11
2215.05
2201.41
2186.24
2169.56
2151.31
2131.41
2109.76
2086.23
2060.66
2032.89
2002.77
1970.11
1934.79
1896.67
1855.7
1811.9
1765.41
1716.56
1665.91
1614.35
1563.21
1514.34
1470.28
1434.37
1411.14
1406.59
1428.45
1482.06
1572.82
1704.24
1874.99
2075.1
2285.03
2478.99
2634.79
)
;
    }
    atmosphere
    {
        type            totalPressure;
        rho             rho;
        psi             none;
        gamma           1;
        p0              nonuniform 0();
        value           nonuniform 0();
    }
    defaultFaces
    {
        type            empty;
    }
    procBoundary0to1
    {
        type            processor;
        value           nonuniform List<scalar> 
44
(
2736.51
2772.06
2799.39
2769.34
2668.06
2484.44
2206.46
1831.19
1377.24
910.551
559.294
292.777
20.1085
8.5048
4.95736
5.00072
4.19434
3.55494
3.15374
2.87155
2.87155
2.44802
2.28908
2.09002
1.90347
1.73581
1.58192
1.4396
1.30755
1.1847
1.07016
0.963295
0.863943
0.772378
0.688844
0.613182
0.544857
0.48321
0.427665
0.377787
0.333243
0.293698
0.258691
0.227633
)
;
    }
    procBoundary0to2
    {
        type            processor;
        value           nonuniform List<scalar> 
46
(
-0.55777
-0.575543
-0.585137
-0.583709
-0.571247
-0.546611
-0.51124
-0.467624
-0.417644
-0.362942
-0.305221
-0.246182
-0.187382
-0.1302
-0.0758055
-0.0251328
0.0211119
0.0624284
0.0984857
0.129085
0.15414
0.17368
0.187847
0.196815
0.200778
-0.108577
-0.118626
-0.121176
-0.127518
-0.137266
-0.151209
-0.169289
-0.190752
-0.214546
-0.239904
-0.26643
-0.293803
-0.321428
-0.348743
-0.375419
-0.401325
-0.426476
-0.450817
-0.473954
-0.55777
-0.495172
)
;
    }
}


// ************************************************************************* //
