/*--------------------------------*- C++ -*----------------------------------*\
| =========                 |                                                 |
| \\      /  F ield         | OpenFOAM: The Open Source CFD Toolbox           |
|  \\    /   O peration     | Version:  5.0                                   |
|   \\  /    A nd           | Web:      www.OpenFOAM.org                      |
|    \\/     M anipulation  |                                                 |
\*---------------------------------------------------------------------------*/
FoamFile
{
    version     2.0;
    format      ascii;
    class       surfaceScalarField;
    location    "0.2";
    object      phi;
}
// * * * * * * * * * * * * * * * * * * * * * * * * * * * * * * * * * * * * * //

dimensions      [0 3 -1 0 0 0 0];

internalField   nonuniform List<scalar> 
3781
(
-9.6033e-07
9.6033e-07
1.01249e-06
-1.97282e-06
4.35651e-06
-3.34403e-06
8.06931e-06
-3.71279e-06
1.17398e-05
-3.6705e-06
1.52454e-05
-3.50556e-06
1.85719e-05
-3.32651e-06
2.17411e-05
-3.1692e-06
2.47844e-05
-3.0433e-06
2.77332e-05
-2.94887e-06
3.0616e-05
-2.88275e-06
3.34572e-05
-2.84123e-06
3.62783e-05
-2.82106e-06
3.9098e-05
-2.81971e-06
4.19332e-05
-2.83523e-06
4.47994e-05
-2.86615e-06
4.77106e-05
-2.91126e-06
5.06801e-05
-2.96946e-06
5.37197e-05
-3.03957e-06
5.68398e-05
-3.12014e-06
6.00491e-05
-3.20928e-06
6.33535e-05
-3.30442e-06
6.67556e-05
-3.40213e-06
7.02535e-05
-3.49782e-06
7.3839e-05
-3.58553e-06
7.74965e-05
-3.65753e-06
8.12007e-05
-3.70414e-06
8.4914e-05
-3.71337e-06
8.85847e-05
-3.67064e-06
9.21431e-05
-3.55844e-06
9.5499e-05
-3.35591e-06
9.85366e-05
-3.03753e-06
0.000101109
-2.57226e-06
0.000103013
-1.90441e-06
0.000103966
-9.52375e-07
0.000103501
4.64282e-07
0.000100814
2.68779e-06
9.53624e-05
5.45112e-06
8.66254e-05
8.73696e-06
7.43026e-05
1.23228e-05
5.86049e-05
1.56978e-05
4.05703e-05
1.80346e-05
2.19991e-05
1.85711e-05
1.70298e-05
1.34889e-06
-3.88559e-07
4.06805e-06
-4.69199e-06
7.32828e-06
-6.60426e-06
1.07003e-05
-7.08476e-06
1.4014e-05
-6.98428e-06
1.72095e-05
-6.701e-06
2.02779e-05
-6.39492e-06
2.32337e-05
-6.12497e-06
2.60991e-05
-5.90872e-06
2.88978e-05
-5.74761e-06
3.16525e-05
-5.6374e-06
3.43838e-05
-5.57253e-06
3.71105e-05
-5.54781e-06
3.98497e-05
-5.55892e-06
4.26168e-05
-5.60233e-06
4.54258e-05
-5.67516e-06
4.82894e-05
-5.77483e-06
5.12188e-05
-5.89886e-06
5.42237e-05
-6.04449e-06
5.73119e-05
-6.20837e-06
6.04889e-05
-6.38625e-06
6.37571e-05
-6.57259e-06
6.71151e-05
-6.76017e-06
7.05569e-05
-6.93964e-06
7.40704e-05
-7.09901e-06
7.7636e-05
-7.22314e-06
8.12251e-05
-7.29322e-06
8.4798e-05
-7.28623e-06
8.83017e-05
-7.17441e-06
9.16679e-05
-6.92466e-06
9.481e-05
-6.49798e-06
9.76209e-05
-5.84838e-06
9.99707e-05
-4.92209e-06
0.00010172
-3.65376e-06
0.000102745
-1.97771e-06
0.000102986
2.23895e-07
0.000102586
3.08722e-06
0.000101169
6.86853e-06
9.81841e-05
1.17218e-05
9.27949e-05
1.7712e-05
8.39561e-05
2.45366e-05
7.07374e-05
3.12533e-05
5.3064e-05
3.62445e-05
3.74987e-05
2.55215e-06
-2.94071e-06
5.81457e-06
-7.95441e-06
9.11028e-06
-9.89997e-06
1.23155e-05
-1.029e-05
1.54023e-05
-1.00711e-05
1.8371e-05
-9.66967e-06
2.12346e-05
-9.2586e-06
2.40118e-05
-8.90214e-06
2.67226e-05
-8.61952e-06
2.93871e-05
-8.41208e-06
3.20244e-05
-8.27469e-06
3.46524e-05
-8.20055e-06
3.72877e-05
-8.18309e-06
3.99453e-05
-8.21656e-06
4.2639e-05
-8.29605e-06
4.53811e-05
-8.41728e-06
4.81825e-05
-8.57623e-06
5.10525e-05
-8.76884e-06
5.39986e-05
-8.99055e-06
5.70261e-05
-9.23591e-06
6.0138e-05
-9.49809e-06
6.33338e-05
-9.76844e-06
6.66095e-05
-1.00359e-05
6.99562e-05
-1.02864e-05
7.33593e-05
-1.05021e-05
7.67971e-05
-1.06609e-05
8.02394e-05
-1.07356e-05
8.36462e-05
-1.0693e-05
8.69654e-05
-1.04936e-05
9.01314e-05
-1.00906e-05
9.30629e-05
-9.42953e-06
9.56621e-05
-8.44759e-06
9.78134e-05
-7.07341e-06
9.93867e-05
-5.22698e-06
0.000100228
-2.81909e-06
0.000100212
2.40133e-07
9.92169e-05
4.08215e-06
9.71942e-05
8.89118e-06
9.40558e-05
1.48602e-05
8.96183e-05
2.21495e-05
8.34109e-05
3.0744e-05
7.45e-05
4.01642e-05
6.17091e-05
4.90354e-05
5.46971e-05
3.04159e-06
-5.9823e-06
6.73047e-06
-1.16433e-05
1.01717e-05
-1.33412e-05
1.33416e-05
-1.346e-05
1.63115e-05
-1.30409e-05
1.91374e-05
-1.24956e-05
2.18583e-05
-1.19795e-05
2.45027e-05
-1.15465e-05
2.70935e-05
-1.12103e-05
2.96505e-05
-1.09691e-05
3.21916e-05
-1.08158e-05
3.47333e-05
-1.07422e-05
3.72904e-05
-1.07402e-05
3.98767e-05
-1.08028e-05
4.25044e-05
-1.09237e-05
4.51844e-05
-1.10972e-05
4.79259e-05
-1.13178e-05
5.07367e-05
-1.15796e-05
5.36224e-05
-1.18763e-05
5.65865e-05
-1.22001e-05
5.963e-05
-1.25415e-05
6.27504e-05
-1.28889e-05
6.59417e-05
-1.32272e-05
6.91933e-05
-1.35379e-05
7.24889e-05
-1.37977e-05
7.5806e-05
-1.3978e-05
7.9114e-05
-1.40436e-05
8.23735e-05
-1.39525e-05
8.55345e-05
-1.36546e-05
8.85351e-05
-1.30912e-05
9.13003e-05
-1.21947e-05
9.3741e-05
-1.08883e-05
9.57541e-05
-9.08647e-06
9.72227e-05
-6.69558e-06
9.80185e-05
-3.61492e-06
9.80024e-05
2.56206e-07
9.70402e-05
5.04442e-06
9.50269e-05
1.09044e-05
9.18686e-05
1.80186e-05
8.74549e-05
2.65631e-05
8.15684e-05
3.66306e-05
7.37008e-05
4.80317e-05
6.28701e-05
5.98661e-05
6.97949e-05
3.26234e-06
-9.24464e-06
7.18521e-06
-1.55662e-05
1.07355e-05
-1.68914e-05
1.39118e-05
-1.66363e-05
1.68289e-05
-1.59581e-05
1.95743e-05
-1.5241e-05
2.22049e-05
-1.46101e-05
2.47584e-05
-1.41e-05
2.7262e-05
-1.37139e-05
2.97371e-05
-1.34442e-05
3.2202e-05
-1.32808e-05
3.46727e-05
-1.32129e-05
3.71635e-05
-1.3231e-05
3.9687e-05
-1.33264e-05
4.22547e-05
-1.34914e-05
4.48762e-05
-1.37187e-05
4.75596e-05
-1.40012e-05
5.03113e-05
-1.43313e-05
5.31355e-05
-1.47005e-05
5.60344e-05
-1.50989e-05
5.90073e-05
-1.55144e-05
6.20504e-05
-1.5932e-05
6.51563e-05
-1.63331e-05
6.83134e-05
-1.66949e-05
7.15046e-05
-1.6989e-05
7.47072e-05
-1.71806e-05
7.78913e-05
-1.72277e-05
8.10189e-05
-1.70801e-05
8.40428e-05
-1.66786e-05
8.69059e-05
-1.59542e-05
8.95398e-05
-1.48286e-05
9.18653e-05
-1.32138e-05
9.37923e-05
-1.10135e-05
9.52213e-05
-8.12456e-06
9.60455e-05
-4.43908e-06
9.61492e-05
1.52488e-07
9.54169e-05
5.77677e-06
9.37332e-05
1.25881e-05
9.09701e-05
2.07817e-05
8.69545e-05
3.05787e-05
8.14142e-05
4.21709e-05
7.38754e-05
5.55705e-05
6.34975e-05
7.0244e-05
8.43491e-05
3.37734e-06
-1.2622e-05
7.38802e-06
-1.95768e-05
1.09741e-05
-2.04775e-05
1.41469e-05
-1.9809e-05
1.70346e-05
-1.88457e-05
1.97345e-05
-1.7941e-05
2.23106e-05
-1.71861e-05
2.48051e-05
-1.65946e-05
2.72484e-05
-1.61571e-05
2.96637e-05
-1.58596e-05
3.20701e-05
-1.56872e-05
3.44839e-05
-1.56267e-05
3.69191e-05
-1.56662e-05
3.93881e-05
-1.57954e-05
4.19014e-05
-1.60048e-05
4.44682e-05
-1.62854e-05
4.70955e-05
-1.66285e-05
4.97887e-05
-1.70245e-05
5.2551e-05
-1.74629e-05
5.53835e-05
-1.79314e-05
5.82843e-05
-1.84152e-05
6.12488e-05
-1.88965e-05
6.42687e-05
-1.93531e-05
6.73318e-05
-1.9758e-05
7.04211e-05
-2.00783e-05
7.35141e-05
-2.02736e-05
7.65823e-05
-2.02958e-05
7.95897e-05
-2.00876e-05
8.24929e-05
-1.95817e-05
8.52397e-05
-1.8701e-05
8.77693e-05
-1.73582e-05
9.00126e-05
-1.54571e-05
9.18933e-05
-1.28942e-05
9.33299e-05
-9.56117e-06
9.42378e-05
-5.34705e-06
9.45284e-05
-1.38061e-07
9.41101e-05
6.19502e-06
9.28763e-05
1.3822e-05
9.06801e-05
2.29779e-05
8.7288e-05
3.39707e-05
8.23217e-05
4.71372e-05
7.518e-05
6.27122e-05
6.49526e-05
8.04713e-05
9.89851e-05
3.43661e-06
-1.60586e-05
7.44067e-06
-2.35809e-05
1.09999e-05
-2.40367e-05
1.41452e-05
-2.29544e-05
1.70054e-05
-2.17059e-05
1.96751e-05
-2.06106e-05
2.22168e-05
-1.97279e-05
2.46733e-05
-1.9051e-05
2.70757e-05
-1.85595e-05
2.94481e-05
-1.8232e-05
3.18104e-05
-1.80494e-05
3.4179e-05
-1.79952e-05
3.6568e-05
-1.80553e-05
3.89897e-05
-1.82171e-05
4.14543e-05
-1.84693e-05
4.397e-05
-1.88012e-05
4.65436e-05
-1.9202e-05
4.91795e-05
-1.96604e-05
5.18802e-05
-2.01636e-05
5.46458e-05
-2.0697e-05
5.74739e-05
-2.12433e-05
6.03592e-05
-2.17817e-05
6.3293e-05
-2.22869e-05
6.62631e-05
-2.2728e-05
6.92526e-05
-2.30678e-05
7.22403e-05
-2.32613e-05
7.5199e-05
-2.32545e-05
7.80955e-05
-2.29842e-05
8.08902e-05
-2.23764e-05
8.35364e-05
-2.13472e-05
8.59809e-05
-1.98027e-05
8.81648e-05
-1.7641e-05
9.00256e-05
-1.47549e-05
9.14993e-05
-1.10349e-05
9.25228e-05
-6.37054e-06
9.30324e-05
-6.4766e-07
9.29579e-05
6.26954e-06
9.22013e-05
1.45785e-05
9.05967e-05
2.45826e-05
8.78498e-05
3.67176e-05
8.34704e-05
5.15167e-05
7.67141e-05
6.94685e-05
6.65954e-05
9.05901e-05
0.000113755
3.45794e-06
-1.95165e-05
7.39459e-06
-2.75175e-05
1.0883e-05
-2.75251e-05
1.39787e-05
-2.60501e-05
1.6805e-05
-2.45322e-05
1.94482e-05
-2.32538e-05
2.19648e-05
-2.22445e-05
2.4395e-05
-2.14812e-05
2.67687e-05
-2.09333e-05
2.911e-05
-2.05733e-05
3.14386e-05
-2.0378e-05
3.37711e-05
-2.03278e-05
3.61217e-05
-2.04059e-05
3.85023e-05
-2.05977e-05
4.09228e-05
-2.08898e-05
4.33912e-05
-2.12696e-05
4.59134e-05
-2.17243e-05
4.84936e-05
-2.22406e-05
5.11335e-05
-2.28035e-05
5.38326e-05
-2.33962e-05
5.65882e-05
-2.39989e-05
5.93945e-05
-2.4588e-05
6.22428e-05
-2.51352e-05
6.51211e-05
-2.56063e-05
6.80133e-05
-2.59601e-05
7.08993e-05
-2.61472e-05
7.37539e-05
-2.61091e-05
7.65466e-05
-2.5777e-05
7.92418e-05
-2.50716e-05
8.1798e-05
-2.39034e-05
8.41693e-05
-2.2174e-05
8.63066e-05
-1.97783e-05
8.81596e-05
-1.6608e-05
8.96802e-05
-1.25555e-05
9.08234e-05
-7.51377e-06
9.15445e-05
-1.36876e-06
9.17856e-05
6.02844e-06
9.14428e-05
1.49213e-05
9.03079e-05
2.57175e-05
8.79801e-05
3.90455e-05
8.38013e-05
5.56954e-05
7.68902e-05
7.63796e-05
6.65249e-05
0.000100955
0.000128449
3.44982e-06
-2.29663e-05
7.27963e-06
-3.13474e-05
1.06689e-05
-3.09144e-05
1.36981e-05
-2.90793e-05
1.64825e-05
-2.73166e-05
1.90971e-05
-2.58684e-05
2.15911e-05
-2.47385e-05
2.4e-05
-2.389e-05
2.63516e-05
-2.32849e-05
2.86687e-05
-2.28905e-05
3.09706e-05
-2.26799e-05
3.32736e-05
-2.26307e-05
3.55914e-05
-2.27237e-05
3.79358e-05
-2.2942e-05
4.03163e-05
-2.32703e-05
4.27405e-05
-2.36938e-05
4.52139e-05
-2.41978e-05
4.77401e-05
-2.47667e-05
5.03204e-05
-2.53838e-05
5.2954e-05
-2.60298e-05
5.56378e-05
-2.66827e-05
5.8366e-05
-2.73162e-05
6.113e-05
-2.78993e-05
6.39184e-05
-2.83946e-05
6.67159e-05
-2.87576e-05
6.95037e-05
-2.8935e-05
7.22586e-05
-2.8864e-05
7.49529e-05
-2.84713e-05
7.75544e-05
-2.7673e-05
8.00265e-05
-2.63756e-05
8.23296e-05
-2.44771e-05
8.44226e-05
-2.18713e-05
8.62655e-05
-1.84509e-05
8.78217e-05
-1.41117e-05
8.90582e-05
-8.75029e-06
8.99387e-05
-2.24927e-06
9.03989e-05
5.5683e-06
9.02906e-05
1.50295e-05
8.92781e-05
2.673e-05
8.67134e-05
4.16101e-05
8.16326e-05
6.07762e-05
7.30917e-05
8.49205e-05
6.15772e-05
0.00011247
0.000142547
3.41784e-06
-2.63842e-05
7.1154e-06
-3.50449e-05
1.03886e-05
-3.41876e-05
1.33396e-05
-3.20303e-05
1.60742e-05
-3.00512e-05
1.86558e-05
-2.84499e-05
2.11255e-05
-2.72082e-05
2.35139e-05
-2.62784e-05
2.58458e-05
-2.56168e-05
2.81423e-05
-2.51869e-05
3.04214e-05
-2.49591e-05
3.26989e-05
-2.49081e-05
3.49879e-05
-2.50127e-05
3.72996e-05
-2.52538e-05
3.96433e-05
-2.5614e-05
4.20259e-05
-2.60765e-05
4.44527e-05
-2.66245e-05
4.69267e-05
-2.72407e-05
4.9449e-05
-2.7906e-05
5.20184e-05
-2.85993e-05
5.46317e-05
-2.9296e-05
5.72833e-05
-2.99678e-05
5.9965e-05
-3.05809e-05
6.26657e-05
-3.10953e-05
6.53713e-05
-3.14633e-05
6.80644e-05
-3.16281e-05
7.07234e-05
-3.1523e-05
7.3323e-05
-3.10709e-05
7.5834e-05
-3.0184e-05
7.82236e-05
-2.87652e-05
8.04569e-05
-2.67104e-05
8.24985e-05
-2.39128e-05
8.43146e-05
-2.0267e-05
8.58743e-05
-1.56713e-05
8.7147e-05
-1.00231e-05
8.80872e-05
-3.18939e-06
8.85907e-05
5.0648e-06
8.84142e-05
1.5206e-05
8.70145e-05
2.81297e-05
8.32262e-05
4.53984e-05
7.56847e-05
6.83178e-05
6.38572e-05
9.6748e-05
5.03823e-05
0.000125945
0.000155251
3.42476e-06
-2.98089e-05
7.03818e-06
-3.86583e-05
1.02409e-05
-3.73903e-05
1.31566e-05
-3.4946e-05
1.58819e-05
-3.27766e-05
1.84702e-05
-3.10382e-05
2.09554e-05
-2.96934e-05
2.33636e-05
-2.86866e-05
2.57168e-05
-2.79699e-05
2.80341e-05
-2.75043e-05
3.03325e-05
-2.72575e-05
3.26267e-05
-2.72024e-05
3.49295e-05
-2.73155e-05
3.72516e-05
-2.75759e-05
3.96017e-05
-2.79641e-05
4.19865e-05
-2.84613e-05
4.44108e-05
-2.90488e-05
4.68773e-05
-2.97072e-05
4.93868e-05
-3.04155e-05
5.19381e-05
-3.11505e-05
5.45277e-05
-3.18856e-05
5.71502e-05
-3.25902e-05
5.97976e-05
-3.32284e-05
6.24596e-05
-3.37573e-05
6.51226e-05
-3.41263e-05
6.777e-05
-3.42755e-05
7.03816e-05
-3.41346e-05
7.29332e-05
-3.36225e-05
7.53972e-05
-3.2648e-05
7.77427e-05
-3.11107e-05
7.99368e-05
-2.89045e-05
8.19461e-05
-2.59221e-05
8.37374e-05
-2.20583e-05
8.52772e-05
-1.72111e-05
8.65226e-05
-1.12685e-05
8.73989e-05
-4.06569e-06
8.77631e-05
4.70058e-06
8.72772e-05
1.56919e-05
8.49496e-05
3.04573e-05
7.85798e-05
5.17682e-05
6.64779e-05
8.04197e-05
5.08196e-05
0.000112406
3.67035e-05
0.000140061
0.000164374
3.38488e-06
-3.31938e-05
6.8677e-06
-4.21412e-05
9.96314e-06
-4.04858e-05
1.28099e-05
-3.77927e-05
1.54945e-05
-3.54612e-05
1.80603e-05
-3.36039e-05
2.05341e-05
-3.21673e-05
2.29375e-05
-3.109e-05
2.52892e-05
-3.03216e-05
2.7606e-05
-2.98212e-05
2.99034e-05
-2.95548e-05
3.21949e-05
-2.94938e-05
3.44922e-05
-2.96128e-05
3.68053e-05
-2.9889e-05
3.91422e-05
-3.0301e-05
4.15091e-05
-3.08282e-05
4.39104e-05
-3.14501e-05
4.63483e-05
-3.21452e-05
4.88235e-05
-3.28907e-05
5.13346e-05
-3.36615e-05
5.38782e-05
-3.44293e-05
5.64492e-05
-3.51612e-05
5.90401e-05
-3.58193e-05
6.16409e-05
-3.63581e-05
6.4239e-05
-3.67244e-05
6.68184e-05
-3.68549e-05
6.93597e-05
-3.66759e-05
7.18397e-05
-3.61025e-05
7.42312e-05
-3.50395e-05
7.65039e-05
-3.33834e-05
7.86247e-05
-3.10253e-05
8.05584e-05
-2.78558e-05
8.22671e-05
-2.3767e-05
8.37039e-05
-1.86479e-05
8.48056e-05
-1.23701e-05
8.54943e-05
-4.75441e-06
8.56297e-05
4.56513e-06
8.45984e-05
1.67233e-05
7.98176e-05
3.5238e-05
7.23959e-05
5.91899e-05
6.07218e-05
9.20938e-05
4.53757e-05
0.000127752
2.99632e-05
0.000155473
0.000172534
3.32988e-06
-3.65237e-05
6.67302e-06
-4.54843e-05
9.65568e-06
-4.34684e-05
1.24273e-05
-4.05644e-05
1.50641e-05
-3.8098e-05
1.76001e-05
-3.61399e-05
2.00563e-05
-3.46234e-05
2.24496e-05
-3.34833e-05
2.47957e-05
-3.26677e-05
2.71092e-05
-3.21347e-05
2.94036e-05
-3.18492e-05
3.16909e-05
-3.17812e-05
3.39819e-05
-3.19038e-05
3.62855e-05
-3.21926e-05
3.8609e-05
-3.26245e-05
4.0958e-05
-3.31772e-05
4.33362e-05
-3.38283e-05
4.57457e-05
-3.45547e-05
4.81868e-05
-3.53318e-05
5.06581e-05
-3.61328e-05
5.31565e-05
-3.69277e-05
5.5677e-05
-3.76818e-05
5.82126e-05
-3.83548e-05
6.07538e-05
-3.88993e-05
6.32884e-05
-3.9259e-05
6.58009e-05
-3.93674e-05
6.8272e-05
-3.9147e-05
7.06783e-05
-3.85088e-05
7.2992e-05
-3.73532e-05
7.51812e-05
-3.55726e-05
7.721e-05
-3.30541e-05
7.90375e-05
-2.96834e-05
8.06143e-05
-2.53437e-05
8.18768e-05
-1.99104e-05
8.2768e-05
-1.32614e-05
8.3262e-05
-5.24842e-06
8.31291e-05
4.69807e-06
8.07975e-05
1.90549e-05
7.53688e-05
4.06667e-05
6.5413e-05
6.91458e-05
5.36404e-05
0.000103866
4.16219e-05
0.000139771
2.97461e-05
0.000167349
0.000179766
3.26212e-06
-3.97858e-05
6.45954e-06
-4.86817e-05
9.32586e-06
-4.63348e-05
1.20172e-05
-4.32558e-05
1.45995e-05
-4.06803e-05
1.70988e-05
-3.86392e-05
1.95305e-05
-3.70551e-05
2.19079e-05
-3.58607e-05
2.42435e-05
-3.50034e-05
2.65497e-05
-3.44408e-05
2.88379e-05
-3.41375e-05
3.11188e-05
-3.40621e-05
3.34017e-05
-3.41867e-05
3.56945e-05
-3.44854e-05
3.80037e-05
-3.49337e-05
4.0334e-05
-3.55076e-05
4.26888e-05
-3.61831e-05
4.50696e-05
-3.69356e-05
4.74768e-05
-3.7739e-05
4.99089e-05
-3.85649e-05
5.23629e-05
-3.93817e-05
5.48342e-05
-4.01531e-05
5.73161e-05
-4.08367e-05
5.97995e-05
-4.13827e-05
6.22723e-05
-4.17318e-05
6.47189e-05
-4.1814e-05
6.71194e-05
-4.15475e-05
6.94491e-05
-4.08385e-05
7.16783e-05
-3.95824e-05
7.37714e-05
-3.76658e-05
7.56872e-05
-3.49699e-05
7.73759e-05
-3.13721e-05
7.87739e-05
-2.67417e-05
7.98257e-05
-2.09622e-05
8.05388e-05
-1.39745e-05
8.0916e-05
-5.62569e-06
7.99504e-05
5.66374e-06
7.51645e-05
2.38408e-05
6.66054e-05
4.92258e-05
5.60089e-05
7.97422e-05
4.66154e-05
0.00011326
3.95414e-05
0.000146845
3.34793e-05
0.000173411
0.000184285
3.18362e-06
-4.29694e-05
6.23125e-06
-5.17294e-05
8.97875e-06
-4.90823e-05
1.15853e-05
-4.58624e-05
1.41069e-05
-4.32019e-05
1.65626e-05
-4.10949e-05
1.89632e-05
-3.94557e-05
2.13185e-05
-3.82159e-05
2.36382e-05
-3.73231e-05
2.59324e-05
-3.6735e-05
2.82106e-05
-3.64157e-05
3.04818e-05
-3.63333e-05
3.2754e-05
-3.64589e-05
3.5034e-05
-3.67653e-05
3.73271e-05
-3.72268e-05
3.96375e-05
-3.7818e-05
4.1968e-05
-3.85135e-05
4.43198e-05
-3.92874e-05
4.66931e-05
-4.01122e-05
4.90865e-05
-4.09583e-05
5.14972e-05
-4.17924e-05
5.39209e-05
-4.25767e-05
5.6351e-05
-4.32668e-05
5.87785e-05
-4.38102e-05
6.11912e-05
-4.41445e-05
6.35727e-05
-4.41955e-05
6.59016e-05
-4.38765e-05
6.81511e-05
-4.3088e-05
7.02878e-05
-4.1719e-05
7.22713e-05
-3.96492e-05
7.40529e-05
-3.67515e-05
7.55704e-05
-3.28895e-05
7.67607e-05
-2.79321e-05
7.76277e-05
-2.18291e-05
7.83049e-05
-1.46517e-05
7.85652e-05
-5.88602e-06
7.46047e-05
9.6242e-06
6.6387e-05
3.20585e-05
5.63067e-05
5.93061e-05
4.7372e-05
8.86769e-05
4.16489e-05
0.000118983
3.93453e-05
0.000149148
3.88649e-05
0.000173892
0.000186312
3.09606e-06
-4.60655e-05
5.99094e-06
-5.46242e-05
8.61766e-06
-5.1709e-05
1.11353e-05
-4.838e-05
1.35904e-05
-4.5657e-05
1.5996e-05
-4.35004e-05
1.83589e-05
-4.18186e-05
2.06857e-05
-4.05427e-05
2.29838e-05
-3.96212e-05
2.5261e-05
-3.90121e-05
2.75248e-05
-3.86795e-05
2.97825e-05
-3.8591e-05
3.20408e-05
-3.87171e-05
3.43051e-05
-3.90297e-05
3.658e-05
-3.95017e-05
3.88688e-05
-4.01068e-05
4.11738e-05
-4.08185e-05
4.34959e-05
-4.16096e-05
4.58352e-05
-4.24515e-05
4.81904e-05
-4.33135e-05
5.05589e-05
-4.41609e-05
5.29365e-05
-4.49543e-05
5.53167e-05
-4.56471e-05
5.76903e-05
-4.61839e-05
6.00444e-05
-4.64985e-05
6.2361e-05
-4.65121e-05
6.46168e-05
-4.61322e-05
6.67814e-05
-4.52526e-05
6.88169e-05
-4.37545e-05
7.06769e-05
-4.15092e-05
7.23034e-05
-3.83781e-05
7.36276e-05
-3.42137e-05
7.46264e-05
-2.89309e-05
7.54249e-05
-2.26275e-05
7.61525e-05
-1.53793e-05
7.36028e-05
-3.33639e-06
6.63442e-05
1.68829e-05
5.63813e-05
4.20213e-05
4.71227e-05
6.85646e-05
4.07614e-05
9.50382e-05
3.80825e-05
0.000121662
3.88721e-05
0.000148359
4.10484e-05
0.000171715
0.00018854
3.00066e-06
-4.90662e-05
5.7404e-06
-5.7364e-05
8.24447e-06
-5.42131e-05
1.06693e-05
-5.08048e-05
1.30524e-05
-4.80402e-05
1.54017e-05
-4.58497e-05
1.77204e-05
-4.41373e-05
2.00127e-05
-4.2835e-05
2.22834e-05
-4.18919e-05
2.45382e-05
-4.12669e-05
2.67828e-05
-4.09241e-05
2.90228e-05
-4.08311e-05
3.12634e-05
-4.09577e-05
3.3509e-05
-4.12752e-05
3.57629e-05
-4.17557e-05
3.8028e-05
-4.23719e-05
4.03058e-05
-4.30963e-05
4.25973e-05
-4.3901e-05
4.49023e-05
-4.47565e-05
4.72197e-05
-4.56308e-05
4.9547e-05
-4.64882e-05
5.188e-05
-4.72873e-05
5.42121e-05
-4.79792e-05
5.65334e-05
-4.85052e-05
5.88297e-05
-4.87948e-05
6.10811e-05
-4.87636e-05
6.32611e-05
-4.83122e-05
6.53351e-05
-4.73267e-05
6.72601e-05
-4.56795e-05
6.89825e-05
-4.32316e-05
7.04352e-05
-3.98308e-05
7.15709e-05
-3.53494e-05
7.24497e-05
-2.98097e-05
7.32725e-05
-2.34504e-05
7.27667e-05
-1.48735e-05
6.67186e-05
2.71171e-06
5.71615e-05
2.644e-05
4.75102e-05
5.16726e-05
4.0147e-05
7.59278e-05
3.59467e-05
9.92385e-05
3.51646e-05
0.000122444
3.7477e-05
0.000146046
4.06565e-05
0.000168536
0.000188735
2.8983e-06
-5.19645e-05
5.4805e-06
-5.99462e-05
7.85988e-06
-5.65924e-05
1.01879e-05
-5.31328e-05
1.24938e-05
-5.03461e-05
1.47808e-05
-4.81367e-05
1.70495e-05
-4.6406e-05
1.93012e-05
-4.50867e-05
2.15389e-05
-4.41296e-05
2.37659e-05
-4.3494e-05
2.59864e-05
-4.31446e-05
2.82042e-05
-4.30489e-05
3.0423e-05
-4.31766e-05
3.26461e-05
-4.34983e-05
3.4876e-05
-4.39856e-05
3.71147e-05
-4.46106e-05
3.93636e-05
-4.53452e-05
4.16231e-05
-4.61606e-05
4.38933e-05
-4.70267e-05
4.61731e-05
-4.79106e-05
4.846e-05
-4.87751e-05
5.07496e-05
-4.95769e-05
5.3035e-05
-5.02645e-05
5.5305e-05
-5.07752e-05
5.75437e-05
-5.10335e-05
5.97283e-05
-5.09482e-05
6.18286e-05
-5.04125e-05
6.38053e-05
-4.93033e-05
6.56092e-05
-4.74834e-05
6.71795e-05
-4.48019e-05
6.84487e-05
-4.11e-05
6.94206e-05
-3.63213e-05
7.02946e-05
-3.06837e-05
7.11397e-05
-2.42955e-05
6.72365e-05
-1.09703e-05
5.85358e-05
1.14124e-05
4.87122e-05
3.62636e-05
4.05849e-05
5.98001e-05
3.51066e-05
8.1406e-05
3.25149e-05
0.00010183
3.29325e-05
0.000122026
3.61778e-05
0.000142801
4.08867e-05
0.000163827
0.000184512
2.78944e-06
-5.47539e-05
5.21136e-06
-6.23681e-05
7.46357e-06
-5.88447e-05
9.69079e-06
-5.53601e-05
1.19144e-05
-5.25697e-05
1.41337e-05
-5.0356e-05
1.63465e-05
-4.86188e-05
1.85521e-05
-4.72923e-05
2.07511e-05
-4.63286e-05
2.29453e-05
-4.56881e-05
2.51366e-05
-4.53359e-05
2.73275e-05
-4.52398e-05
2.95203e-05
-4.53693e-05
3.1717e-05
-4.5695e-05
3.39194e-05
-4.6188e-05
3.61289e-05
-4.68201e-05
3.83465e-05
-4.75627e-05
4.05726e-05
-4.83867e-05
4.28072e-05
-4.92613e-05
4.50492e-05
-5.01526e-05
4.72961e-05
-5.1022e-05
4.95432e-05
-5.1824e-05
5.17825e-05
-5.25038e-05
5.40014e-05
-5.29941e-05
5.61814e-05
-5.32134e-05
5.82964e-05
-5.30633e-05
6.03117e-05
-5.24278e-05
6.21828e-05
-5.11744e-05
6.38542e-05
-4.91548e-05
6.52574e-05
-4.62051e-05
6.63558e-05
-4.21985e-05
6.72302e-05
-3.71956e-05
6.80761e-05
-3.15295e-05
6.67445e-05
-2.29639e-05
5.96529e-05
-3.87873e-06
5.01954e-05
2.08699e-05
4.16252e-05
4.48338e-05
3.52746e-05
6.61507e-05
3.1376e-05
8.53046e-05
2.99883e-05
0.000103218
3.12561e-05
0.000120758
3.53062e-05
0.000138751
4.15738e-05
0.000157559
0.000176599
2.67427e-06
-5.74282e-05
4.93239e-06
-6.46262e-05
7.05428e-06
-6.09666e-05
9.17643e-06
-5.74822e-05
1.13128e-05
-5.47061e-05
1.34592e-05
-5.25024e-05
1.56109e-05
-5.07705e-05
1.77651e-05
-4.94466e-05
1.99205e-05
-4.8484e-05
2.20766e-05
-4.78442e-05
2.42339e-05
-4.74932e-05
2.63932e-05
-4.73991e-05
2.85555e-05
-4.75316e-05
3.07218e-05
-4.78613e-05
3.2893e-05
-4.83593e-05
3.50702e-05
-4.89972e-05
3.72539e-05
-4.97465e-05
3.94447e-05
-5.05776e-05
4.16425e-05
-5.14591e-05
4.38462e-05
-5.23563e-05
4.60531e-05
-5.32288e-05
4.82577e-05
-5.40286e-05
5.04507e-05
-5.46968e-05
5.26176e-05
-5.5161e-05
5.47366e-05
-5.53324e-05
5.67776e-05
-5.51044e-05
5.87012e-05
-5.43514e-05
6.0457e-05
-5.29302e-05
6.19831e-05
-5.06809e-05
6.32131e-05
-4.74351e-05
6.41604e-05
-4.31458e-05
6.50285e-05
-3.80637e-05
6.57074e-05
-3.22085e-05
6.08278e-05
-1.80842e-05
5.17926e-05
5.15646e-06
4.28642e-05
2.97984e-05
3.58664e-05
5.18316e-05
3.10635e-05
7.09535e-05
2.84012e-05
8.7967e-05
2.79222e-05
0.000103697
2.98078e-05
0.000118873
3.43566e-05
0.000134202
4.16926e-05
0.000150223
0.000166502
2.55262e-06
-5.99808e-05
4.64225e-06
-6.67158e-05
6.62979e-06
-6.29541e-05
8.64224e-06
-5.94947e-05
1.06866e-05
-5.67505e-05
1.27553e-05
-5.4571e-05
1.48412e-05
-5.28565e-05
1.69394e-05
-5.15448e-05
1.90464e-05
-5.05909e-05
2.11599e-05
-4.99577e-05
2.32785e-05
-4.96119e-05
2.54016e-05
-4.95222e-05
2.75289e-05
-4.96589e-05
2.96604e-05
-4.99928e-05
3.17966e-05
-5.04955e-05
3.39379e-05
-5.11386e-05
3.6085e-05
-5.18936e-05
3.82383e-05
-5.27309e-05
4.03978e-05
-5.36185e-05
4.25621e-05
-5.45207e-05
4.47282e-05
-5.53949e-05
4.68896e-05
-5.619e-05
4.90353e-05
-5.68425e-05
5.11479e-05
-5.72736e-05
5.32021e-05
-5.73867e-05
5.51634e-05
-5.70657e-05
5.69869e-05
-5.61748e-05
5.86162e-05
-5.45596e-05
5.99824e-05
-5.20471e-05
6.105e-05
-4.85027e-05
6.18989e-05
-4.39947e-05
6.2704e-05
-3.88689e-05
6.10045e-05
-3.05089e-05
5.34257e-05
-1.05055e-05
4.43039e-05
1.42783e-05
3.6659e-05
3.74432e-05
3.1109e-05
5.73816e-05
2.7529e-05
7.45335e-05
2.58156e-05
8.96804e-05
2.60185e-05
0.000103494
2.83303e-05
0.000116561
3.31016e-05
0.000129431
4.07755e-05
0.000142549
5.16151e-05
0.000155663
0.000170005
2.42411e-06
-6.24049e-05
4.33884e-06
-6.86306e-05
6.18673e-06
-6.4802e-05
8.08439e-06
-6.13923e-05
1.00321e-05
-5.86982e-05
1.20187e-05
-5.65577e-05
1.40349e-05
-5.48726e-05
1.60731e-05
-5.3583e-05
1.81277e-05
-5.26455e-05
2.01943e-05
-5.20244e-05
2.22699e-05
-5.16875e-05
2.43524e-05
-5.16046e-05
2.64402e-05
-5.17467e-05
2.85328e-05
-5.20853e-05
3.06298e-05
-5.25925e-05
3.27317e-05
-5.32404e-05
3.4839e-05
-5.40008e-05
3.69521e-05
-5.4844e-05
3.90711e-05
-5.57375e-05
4.11944e-05
-5.6644e-05
4.33182e-05
-5.75188e-05
4.54348e-05
-5.83066e-05
4.75308e-05
-5.89385e-05
4.95858e-05
-5.93285e-05
5.15702e-05
-5.93711e-05
5.34445e-05
-5.894e-05
5.51584e-05
-5.78887e-05
5.66494e-05
-5.60506e-05
5.78488e-05
-5.32465e-05
5.87641e-05
-4.94179e-05
5.95725e-05
-4.48031e-05
6.01483e-05
-3.94447e-05
5.48904e-05
-2.52509e-05
4.59866e-05
-1.60177e-06
3.76946e-05
2.25704e-05
3.1386e-05
4.37519e-05
2.70267e-05
6.17409e-05
2.43956e-05
7.71646e-05
2.34087e-05
9.06672e-05
2.41188e-05
0.000102784
2.67059e-05
0.000113974
3.15042e-05
0.000124633
3.90105e-05
0.000135043
4.96847e-05
0.000144988
0.000154958
2.28832e-06
-6.46932e-05
4.019e-06
-7.03612e-05
5.72026e-06
-6.65032e-05
7.49748e-06
-6.31695e-05
9.34406e-06
-6.05447e-05
1.12452e-05
-5.84589e-05
1.31885e-05
-5.68159e-05
1.51637e-05
-5.55582e-05
1.71626e-05
-5.46444e-05
1.91789e-05
-5.40407e-05
2.12077e-05
-5.37163e-05
2.32453e-05
-5.36423e-05
2.52895e-05
-5.37909e-05
2.73387e-05
-5.41345e-05
2.93924e-05
-5.46463e-05
3.14509e-05
-5.52989e-05
3.35148e-05
-5.60647e-05
3.55847e-05
-5.69139e-05
3.76605e-05
-5.78133e-05
3.97404e-05
-5.87239e-05
4.18197e-05
-5.9598e-05
4.38888e-05
-6.03757e-05
4.59318e-05
-6.09815e-05
4.79245e-05
-6.13212e-05
4.98328e-05
-6.12793e-05
5.16118e-05
-6.0719e-05
5.32049e-05
-5.94818e-05
5.45437e-05
-5.73894e-05
5.55852e-05
-5.4288e-05
5.63892e-05
-5.0222e-05
5.70971e-05
-4.5511e-05
5.54079e-05
-3.77556e-05
4.76679e-05
-1.75108e-05
3.89996e-05
7.06649e-06
3.19306e-05
2.96393e-05
2.68022e-05
4.88805e-05
2.33888e-05
6.51543e-05
2.14986e-05
7.90549e-05
2.10721e-05
9.10936e-05
2.21589e-05
0.000101697
2.49118e-05
0.000111221
2.96098e-05
0.000119935
3.66736e-05
0.000127979
4.65297e-05
0.000135132
0.000141283
2.14517e-06
-6.68384e-05
3.67797e-06
-7.1894e-05
5.22325e-06
-6.80485e-05
6.87396e-06
-6.48202e-05
8.61571e-06
-6.22865e-05
1.0429e-05
-6.02722e-05
1.22976e-05
-5.86844e-05
1.42079e-05
-5.74685e-05
1.61491e-05
-5.65856e-05
1.81123e-05
-5.60039e-05
2.0091e-05
-5.56949e-05
2.20802e-05
-5.56315e-05
2.40766e-05
-5.57872e-05
2.60782e-05
-5.61361e-05
2.80843e-05
-5.66524e-05
3.00952e-05
-5.73099e-05
3.21117e-05
-5.80812e-05
3.41347e-05
-5.89369e-05
3.6164e-05
-5.98426e-05
3.81973e-05
-6.07573e-05
4.02287e-05
-6.16294e-05
4.22468e-05
-6.23937e-05
4.42324e-05
-6.29671e-05
4.61572e-05
-6.3246e-05
4.79821e-05
-6.31042e-05
4.96564e-05
-6.23933e-05
5.11172e-05
-6.09426e-05
5.22929e-05
-5.85651e-05
5.31815e-05
-5.51765e-05
5.3926e-05
-5.09665e-05
5.4489e-05
-4.6074e-05
4.92755e-05
-3.2542e-05
4.0615e-05
-8.85035e-06
3.27945e-05
1.4887e-05
2.68717e-05
3.55622e-05
2.27092e-05
5.30429e-05
2.00494e-05
6.7814e-05
1.87466e-05
8.03577e-05
1.87587e-05
9.10816e-05
2.01259e-05
0.00010033
2.29678e-05
0.000108379
2.74916e-05
0.000115411
3.39973e-05
0.000121474
4.27834e-05
0.000126346
0.000129671
1.99455e-06
-6.8833e-05
3.30776e-06
-7.32072e-05
4.68489e-06
-6.94257e-05
6.2032e-06
-6.63385e-05
7.83785e-06
-6.39211e-05
9.56285e-06
-6.19972e-05
1.13568e-05
-6.04783e-05
1.32021e-05
-5.93138e-05
1.50847e-05
-5.84682e-05
1.69934e-05
-5.79126e-05
1.89196e-05
-5.76211e-05
2.08571e-05
-5.7569e-05
2.28019e-05
-5.7732e-05
2.47516e-05
-5.80859e-05
2.67057e-05
-5.86064e-05
2.86645e-05
-5.92687e-05
3.06292e-05
-6.0046e-05
3.2601e-05
-6.09086e-05
3.45795e-05
-6.18212e-05
3.65621e-05
-6.27398e-05
3.85414e-05
-6.36088e-05
4.05037e-05
-6.4356e-05
4.24266e-05
-6.489e-05
4.42771e-05
-6.50965e-05
4.60106e-05
-6.48377e-05
4.75699e-05
-6.39526e-05
4.88861e-05
-6.22589e-05
4.99024e-05
-5.95814e-05
5.06547e-05
-5.59288e-05
5.12621e-05
-5.1574e-05
4.99808e-05
-4.47927e-05
4.2233e-05
-2.47942e-05
3.39631e-05
-5.80397e-07
2.7262e-05
2.15881e-05
2.23424e-05
4.04818e-05
1.89651e-05
5.64201e-05
1.69187e-05
6.98605e-05
1.60932e-05
8.11833e-05
1.64564e-05
9.07184e-05
1.80362e-05
9.87502e-05
2.09171e-05
0.000105498
2.52365e-05
0.000111091
3.11797e-05
0.00011553
3.89087e-05
0.000118617
0.000119976
1.83347e-06
-7.06664e-05
2.89372e-06
-7.42675e-05
4.08864e-06
-7.06206e-05
5.47052e-06
-6.77204e-05
6.99868e-06
-6.54493e-05
8.63784e-06
-6.36364e-05
1.03599e-05
-6.22004e-05
1.21424e-05
-6.10963e-05
1.39675e-05
-6.02933e-05
1.58213e-05
-5.97664e-05
1.76935e-05
-5.94933e-05
1.95768e-05
-5.94523e-05
2.14665e-05
-5.96217e-05
2.33603e-05
-5.99797e-05
2.52577e-05
-6.05038e-05
2.71595e-05
-6.11705e-05
2.90674e-05
-6.19539e-05
3.09828e-05
-6.2824e-05
3.29054e-05
-6.37438e-05
3.4832e-05
-6.46665e-05
3.67539e-05
-6.55307e-05
3.86549e-05
-6.6257e-05
4.05089e-05
-6.6744e-05
4.22782e-05
-6.68658e-05
4.39121e-05
-6.64716e-05
4.53456e-05
-6.53861e-05
4.65023e-05
-6.34155e-05
4.73673e-05
-6.04465e-05
4.80442e-05
-5.66056e-05
4.85732e-05
-5.2103e-05
4.37465e-05
-3.99659e-05
3.54044e-05
-1.64522e-05
2.79498e-05
6.87417e-06
2.22799e-05
2.72581e-05
1.82051e-05
4.45567e-05
1.54788e-05
5.91465e-05
1.39438e-05
7.13955e-05
1.35167e-05
8.16104e-05
1.41691e-05
9.0066e-05
1.5915e-05
9.70043e-05
1.88041e-05
0.000102609
2.29144e-05
0.000106981
2.83387e-05
0.000110106
3.51331e-05
0.000111823
0.000111831
1.64753e-06
-7.23139e-05
2.40933e-06
-7.50293e-05
3.41017e-06
-7.16214e-05
4.65649e-06
-6.89667e-05
6.08375e-06
-6.68766e-05
7.64398e-06
-6.51966e-05
9.30061e-06
-6.38571e-05
1.10253e-05
-6.2821e-05
1.2796e-05
-6.2064e-05
1.45963e-05
-6.15667e-05
1.64141e-05
-6.13111e-05
1.82413e-05
-6.12795e-05
2.00729e-05
-6.14533e-05
2.19067e-05
-6.18135e-05
2.37426e-05
-6.23397e-05
2.55821e-05
-6.301e-05
2.74274e-05
-6.37992e-05
2.92803e-05
-6.46769e-05
3.11409e-05
-6.56043e-05
3.30051e-05
-6.65307e-05
3.48631e-05
-6.73886e-05
3.66961e-05
-6.809e-05
3.84744e-05
-6.85222e-05
4.01552e-05
-6.85466e-05
4.16815e-05
-6.7998e-05
4.29821e-05
-6.66866e-05
4.39812e-05
-6.44147e-05
4.46914e-05
-6.11566e-05
4.52182e-05
-5.71325e-05
4.44992e-05
-5.1384e-05
3.67954e-05
-3.22622e-05
2.89394e-05
-8.59616e-06
2.25341e-05
1.32794e-05
1.7751e-05
3.20412e-05
1.4371e-05
4.79367e-05
1.21922e-05
6.13253e-05
1.10935e-05
7.24941e-05
1.10079e-05
8.16961e-05
1.19058e-05
8.91681e-05
1.3786e-05
9.51241e-05
1.66667e-05
9.97286e-05
2.05768e-05
0.000103071
2.55394e-05
0.000105143
3.15339e-05
0.000105829
0.000104917
1.39515e-06
-7.37091e-05
1.81129e-06
-7.54454e-05
2.61674e-06
-7.24269e-05
3.73749e-06
-7.00875e-05
5.07699e-06
-6.8216e-05