/*--------------------------------*- C++ -*----------------------------------*\
| =========                 |                                                 |
| \\      /  F ield         | OpenFOAM: The Open Source CFD Toolbox           |
|  \\    /   O peration     | Version:  5.0                                   |
|   \\  /    A nd           | Web:      www.OpenFOAM.org                      |
|    \\/     M anipulation  |                                                 |
\*---------------------------------------------------------------------------*/
FoamFile
{
    version     2.0;
    format      ascii;
    class       volVectorField;
    location    "0.2";
    object      U;
}
// * * * * * * * * * * * * * * * * * * * * * * * * * * * * * * * * * * * * * //

dimensions      [0 1 -1 0 0 0 0];

internalField   nonuniform List<vector> 
1935
(
(-0.0187867 0.00967743 0)
(-0.00599742 -0.0137399 0)
(0.0377625 -0.0251024 0)
(0.0889057 -0.027998 0)
(0.141503 -0.0274189 0)
(0.192798 -0.0258482 0)
(0.241645 -0.0242085 0)
(0.287991 -0.0227778 0)
(0.332259 -0.0216147 0)
(0.374946 -0.0207073 0)
(0.41649 -0.0200232 0)
(0.457269 -0.0195281 0)
(0.497612 -0.0191928 0)
(0.537804 -0.0189953 0)
(0.578101 -0.0189193 0)
(0.618732 -0.0189533 0)
(0.659907 -0.0190891 0)
(0.701822 -0.0193202 0)
(0.744655 -0.0196406 0)
(0.788566 -0.0200435 0)
(0.833692 -0.0205199 0)
(0.88014 -0.0210566 0)
(0.927973 -0.021635 0)
(0.977199 -0.022229 0)
(1.02775 -0.0228033 0)
(1.07946 -0.0233113 0)
(1.13205 -0.0236932 0)
(1.18507 -0.0238742 0)
(1.2379 -0.0237625 0)
(1.28967 -0.0232483 0)
(1.33926 -0.0222007 0)
(1.38522 -0.02046 0)
(1.42564 -0.0178465 0)
(1.45826 -0.013993 0)
(1.47935 -0.00838966 0)
(1.48631 0.00116563 0)
(1.46585 0.0153649 0)
(1.41004 0.0345672 0)
(1.31123 0.0582889 0)
(1.16284 0.0843517 0)
(0.962761 0.108034 0)
(0.718851 0.122405 0)
(0.4515 0.120989 0)
(0.194119 0.104333 0)
(0.00591742 0.00914115 0)
(0.0361258 -0.0326638 0)
(0.0808949 -0.053192 0)
(0.128853 -0.0591655 0)
(0.17664 -0.0589346 0)
(0.223118 -0.0566608 0)
(0.267818 -0.0540272 0)
(0.31076 -0.051653 0)
(0.352229 -0.0497306 0)
(0.392574 -0.0482842 0)
(0.432132 -0.0472778 0)
(0.471212 -0.0466614 0)
(0.510097 -0.0463887 0)
(0.549043 -0.0464219 0)
(0.58828 -0.0467314 0)
(0.62802 -0.0472932 0)
(0.668451 -0.0480874 0)
(0.709746 -0.0490947 0)
(0.752054 -0.0502938 0)
(0.795501 -0.0516585 0)
(0.840184 -0.0531547 0)
(0.88616 -0.0547371 0)
(0.93344 -0.0563459 0)
(0.981975 -0.0579028 0)
(1.03164 -0.0593069 0)
(1.08221 -0.06043 0)
(1.13335 -0.0611121 0)
(1.18457 -0.061157 0)
(1.23523 -0.0603281 0)
(1.28447 -0.0583431 0)
(1.33118 -0.0548685 0)
(1.374 -0.0495069 0)
(1.41126 -0.041783 0)
(1.44096 -0.0310113 0)
(1.46119 -0.0162818 0)
(1.46905 0.00425582 0)
(1.4688 0.032353 0)
(1.45754 0.0688154 0)
(1.42913 0.11412 0)
(1.37386 0.167402 0)
(1.27763 0.22442 0)
(1.12436 0.275651 0)
(0.902612 0.306694 0)
(0.623808 0.303568 0)
(0.0196711 -0.0163539 0)
(0.0587696 -0.0661802 0)
(0.106483 -0.08788 0)
(0.153338 -0.0932864 0)
(0.198175 -0.09198 0)
(0.241312 -0.088509 0)
(0.282884 -0.0847537 0)
(0.323076 -0.0814299 0)
(0.362169 -0.0787648 0)
(0.400458 -0.0767885 0)
(0.438225 -0.0754584 0)
(0.475735 -0.0747118 0)
(0.513235 -0.0744875 0)
(0.55095 -0.0747326 0)
(0.589087 -0.0754027 0)
(0.62783 -0.0764595 0)
(0.667347 -0.0778684 0)
(0.707781 -0.0795944 0)
(0.749253 -0.0815985 0)
(0.791857 -0.0838333 0)
(0.835652 -0.086239 0)
(0.880659 -0.0887389 0)
(0.926849 -0.0912337 0)
(0.974132 -0.0935963 0)
(1.02234 -0.095665 0)
(1.07123 -0.0972369 0)
(1.12042 -0.098061 0)
(1.16943 -0.0978317 0)
(1.2176 -0.0961819 0)
(1.2641 -0.0926762 0)
(1.30788 -0.0868041 0)
(1.34767 -0.0779717 0)
(1.38196 -0.0654929 0)
(1.40897 -0.0485808 0)
(1.42673 -0.0263575 0)
(1.4329 0.00193333 0)
(1.426 0.0381264 0)
(1.4048 0.0843423 0)
(1.36848 0.142865 0)
(1.31573 0.215161 0)
(1.24282 0.299686 0)
(1.14047 0.38859 0)
(0.990802 0.464747 0)
(0.778263 0.501463 0)
(0.0238357 -0.0473313 0)
(0.0697078 -0.104779 0)
(0.121207 -0.124789 0)
(0.168582 -0.127854 0)
(0.212136 -0.124614 0)
(0.253309 -0.119618 0)
(0.292789 -0.114671 0)
(0.330994 -0.110437 0)
(0.368277 -0.107107 0)
(0.404944 -0.104687 0)
(0.441262 -0.103116 0)
(0.477474 -0.102315 0)
(0.513804 -0.102205 0)
(0.550457 -0.10272 0)
(0.587617 -0.103799 0)
(0.625451 -0.105388 0)
(0.664102 -0.107437 0)
(0.703692 -0.109893 0)
(0.744318 -0.112697 0)
(0.786046 -0.115778 0)
(0.828909 -0.119049 0)
(0.872898 -0.1224 0)
(0.917956 -0.12569 0)
(0.963966 -0.128743 0)
(1.01074 -0.131338 0)
(1.058 -0.133199 0)
(1.10538 -0.133988 0)
(1.15238 -0.133298 0)
(1.19837 -0.130643 0)
(1.24255 -0.125449 0)
(1.28396 -0.117053 0)
(1.32141 -0.104695 0)
(1.35355 -0.08752 0)
(1.37879 -0.0645806 0)
(1.39539 -0.0348482 0)
(1.4014 0.00275289 0)
(1.39487 0.0494974 0)
(1.37403 0.107225 0)
(1.33752 0.177945 0)
(1.28409 0.263545 0)
(1.21194 0.364659 0)
(1.11698 0.477958 0)
(0.988561 0.591012 0)
(0.809255 0.675466 0)
(0.0253742 -0.0818273 0)
(0.0748883 -0.146466 0)
(0.128858 -0.162919 0)
(0.17692 -0.162311 0)
(0.220028 -0.15648 0)
(0.260178 -0.149723 0)
(0.298397 -0.143564 0)
(0.335286 -0.138489 0)
(0.371289 -0.134596 0)
(0.406745 -0.131839 0)
(0.441935 -0.130127 0)
(0.477098 -0.129359 0)
(0.51245 -0.129441 0)
(0.548185 -0.13029 0)
(0.584473 -0.131831 0)
(0.621465 -0.133993 0)
(0.659288 -0.136708 0)
(0.698047 -0.139907 0)
(0.737818 -0.143507 0)
(0.778648 -0.147413 0)
(0.820547 -0.15151 0)
(0.863487 -0.155654 0)
(0.907389 -0.159663 0)
(0.95212 -0.163313 0)
(0.997478 -0.166325 0)
(1.04318 -0.168356 0)
(1.08886 -0.168988 0)
(1.13403 -0.16772 0)
(1.17809 -0.163961 0)
(1.2203 -0.157017 0)
(1.25977 -0.146097 0)
(1.29543 -0.130303 0)
(1.32609 -0.108645 0)
(1.35038 -0.0800527 0)
(1.36682 -0.0433888 0)
(1.37383 0.0025157 0)
(1.36975 0.0589734 0)
(1.35294 0.127671 0)
(1.32172 0.210558 0)
(1.27413 0.309695 0)
(1.20727 0.426571 0)
(1.11642 0.560317 0)
(0.992582 0.7034 0)
(0.820554 0.833069 0)
(0.0262303 -0.117867 0)
(0.0773195 -0.189593 0)
(0.132186 -0.201653 0)
(0.180401 -0.196681 0)
(0.22324 -0.187835 0)
(0.262835 -0.179099 0)
(0.300319 -0.171635 0)
(0.336384 -0.165702 0)
(0.371527 -0.161265 0)
(0.406122 -0.158208 0)
(0.440465 -0.156398 0)
(0.474804 -0.155706 0)
(0.509354 -0.156018 0)
(0.544305 -0.157231 0)
(0.579818 -0.159253 0)
(0.616035 -0.161997 0)
(0.653071 -0.165378 0)
(0.691016 -0.169303 0)
(0.729933 -0.173671 0)
(0.769851 -0.17836 0)
(0.810766 -0.183227 0)
(0.852634 -0.188094 0)
(0.895365 -0.192741 0)
(0.938814 -0.196897 0)
(0.982775 -0.200232 0)
(1.02697 -0.202338 0)
(1.07103 -0.202728 0)
(1.11451 -0.200819 0)
(1.15685 -0.195926 0)
(1.19735 -0.187256 0)
(1.23521 -0.173911 0)
(1.26951 -0.15489 0)
(1.2992 -0.129106 0)
(1.32315 -0.0954092 0)
(1.34017 -0.0526065 0)
(1.34902 0.000522606 0)
(1.34844 0.0653349 0)
(1.33706 0.143569 0)
(1.3132 0.237475 0)
(1.27434 0.349813 0)
(1.21635 0.48334 0)
(1.13261 0.639249 0)
(1.01256 0.813391 0)
(0.84071 0.988489 0)
(0.0267713 -0.154756 0)
(0.0782307 -0.233034 0)
(0.132804 -0.240352 0)
(0.180566 -0.230847 0)
(0.223023 -0.218872 0)
(0.262219 -0.208064 0)
(0.299243 -0.199226 0)
(0.334787 -0.192386 0)
(0.369363 -0.18738 0)
(0.403357 -0.184013 0)
(0.437077 -0.182103 0)
(0.470778 -0.181489 0)
(0.504677 -0.182032 0)
(0.538962 -0.183607 0)
(0.573791 -0.186104 0)
(0.609298 -0.189416 0)
(0.64559 -0.193439 0)
(0.682745 -0.198059 0)
(0.720816 -0.203152 0)
(0.75982 -0.208572 0)
(0.799743 -0.214146 0)
(0.840529 -0.219664 0)
(0.882082 -0.224871 0)
(0.924253 -0.229455 0)
(0.966838 -0.233033 0)
(1.00957 -0.235145 0)
(1.05209 -0.235239 0)
(1.09399 -0.232661 0)
(1.13474 -0.226647 0)
(1.17373 -0.216324 0)
(1.21024 -0.200711 0)
(1.24347 -0.178731 0)
(1.27255 -0.14924 0)
(1.29656 -0.111054 0)
(1.31459 -0.0629729 0)
(1.32575 -0.0037628 0)
(1.32912 0.0679925 0)
(1.32359 0.15424 0)
(1.30748 0.257844 0)
(1.27771 0.382821 0)
(1.22886 0.533729 0)
(1.15223 0.714262 0)
(1.03572 0.922963 0)
(0.863461 1.14644 0)
(0.0270784 -0.192037 0)
(0.0781445 -0.275999 0)
(0.131633 -0.278467 0)
(0.178472 -0.264573 0)
(0.220365 -0.249577 0)
(0.259162 -0.236733 0)
(0.29583 -0.226509 0)
(0.331012 -0.218735 0)
(0.365196 -0.213129 0)
(0.398763 -0.209425 0)
(0.43202 -0.207393 0)
(0.465223 -0.206836 0)
(0.498591 -0.207589 0)
(0.532309 -0.209505 0)
(0.566532 -0.212451 0)
(0.601388 -0.216301 0)
(0.636978 -0.220928 0)
(0.673372 -0.226199 0)
(0.710613 -0.231965 0)
(0.748711 -0.238057 0)
(0.787644 -0.244273 0)
(0.82735 -0.250373 0)
(0.867729 -0.256068 0)
(0.908635 -0.261006 0)
(0.949867 -0.264763 0)
(0.991171 -0.266828 0)
(1.03222 -0.266592 0)
(1.07263 -0.263342 0)
(1.11192 -0.256248 0)
(1.14953 -0.244372 0)
(1.18485 -0.22667 0)
(1.21719 -0.202022 0)
(1.24584 -0.16926 0)
(1.27007 -0.127207 0)
(1.28923 -0.07469 0)
(1.30269 -0.0104831 0)
(1.3098 0.0669292 0)
(1.30958 0.159918 0)
(1.30005 0.272355 0)
(1.27703 0.409765 0)
(1.23302 0.578503 0)
(1.15626 0.783966 0)
(1.0358 1.02829 0)
(0.861348 1.30268 0)
(0.0271838 -0.229367 0)
(0.0773371 -0.317974 0)
(0.129239 -0.315625 0)
(0.17484 -0.297653 0)
(0.215997 -0.279871 0)
(0.254328 -0.26511 0)
(0.29065 -0.253545 0)
(0.325528 -0.244838 0)
(0.359408 -0.238615 0)
(0.392648 -0.234547 0)
(0.425543 -0.232363 0)
(0.458345 -0.231834 0)
(0.491269 -0.232765 0)
(0.524496 -0.234987 0)
(0.558176 -0.238345 0)
(0.592434 -0.242691 0)
(0.627361 -0.247876 0)
(0.663024 -0.253745 0)
(0.699456 -0.260127 0)
(0.736663 -0.266827 0)
(0.774617 -0.273617 0)
(0.813254 -0.280231 0)
(0.852474 -0.286345 0)
(0.892134 -0.291575 0)
(0.932046 -0.295455 0)
(0.971968 -0.297431 0)
(1.0116 -0.296847 0)
(1.05058 -0.292935 0)
(1.08849 -0.284813 0)
(1.12482 -0.27149 0)
(1.15903 -0.251884 0)
(1.19054 -0.22485 0)
(1.21876 -0.189224 0)
(1.24314 -0.143864 0)
(1.26318 -0.0876415 0)
(1.27844 -0.0193187 0)
(1.28836 0.0628595 0)
(1.29174 0.161929 0)
(1.28541 0.282557 0)
(1.26207 0.430375 0)
(1.21034 0.612398 0)
(1.11452 0.840901 0)
(0.968884 1.12247 0)
(0.788324 1.44706 0)
(0.0271125 -0.266467 0)
(0.0759883 -0.358631 0)
(0.125994 -0.351598 0)
(0.170163 -0.329939 0)
(0.21045 -0.309664 0)
(0.248227 -0.293157 0)
(0.28416 -0.280331 0)
(0.318731 -0.270722 0)
(0.352333 -0.263881 0)
(0.385289 -0.259434 0)
(0.417877 -0.257072 0)
(0.450338 -0.256538 0)
(0.482875 -0.257612 0)
(0.515665 -0.260101 0)
(0.548852 -0.263826 0)
(0.582551 -0.268619 0)
(0.616851 -0.274309 0)
(0.65181 -0.280718 0)
(0.687457 -0.287653 0)
(0.723793 -0.294895 0)
(0.760786 -0.302193 0)
(0.798373 -0.309251 0)
(0.836457 -0.315721 0)
(0.874902 -0.321183 0)
(0.913529 -0.325138 0)
(0.952115 -0.326993 0)
(0.990382 -0.326047 0)
(1.028 -0.321489 0)
(1.06457 -0.31239 0)
(1.09965 -0.29772 0)
(1.13276 -0.276369 0)
(1.16339 -0.247185 0)
(1.19103 -0.209025 0)
(1.21523 -0.160785 0)
(1.23556 -0.10136 0)
(1.25163 -0.0294025 0)
(1.26261 0.0572151 0)
(1.2661 0.161838 0)
(1.2564 0.28924 0)
(1.22325 0.449171 0)
(1.14823 0.658944 0)
(1.00807 0.927609 0)
(0.811384 1.23893 0)
(0.626987 1.58401 0)
(0.0268826 -0.303425 0)
(0.0742136 -0.398111 0)
(0.122126 -0.38656 0)
(0.16474 -0.361612 0)
(0.204043 -0.339142 0)
(0.241168 -0.321068 0)
(0.276642 -0.307078 0)
(0.310865 -0.29661 0)
(0.34417 -0.289164 0)
(0.376846 -0.284329 0)
(0.409144 -0.281769 0)
(0.441288 -0.281202 0)
(0.473469 -0.282384 0)
(0.505851 -0.285099 0)
(0.538573 -0.289148 0)
(0.571741 -0.294339 0)
(0.605436 -0.300481 0)
(0.63971 -0.307373 0)
(0.674588 -0.3148 0)
(0.710067 -0.322522 0)
(0.746115 -0.330264 0)
(0.78267 -0.337706 0)
(0.819639 -0.344472 0)
(0.856894 -0.350114 0)
(0.894269 -0.354101 0)
(0.931553 -0.355803 0)
(0.96849 -0.354481 0)
(1.00477 -0.349281 0)
(1.04003 -0.339236 0)
(1.07385 -0.323282 0)
(1.10578 -0.300287 0)
(1.13537 -0.269097 0)
(1.16213 -0.228585 0)
(1.18561 -0.177659 0)
(1.20537 -0.115158 0)
(1.2207 -0.0395346 0)
(1.22977 0.051488 0)
(1.22908 0.161713 0)
(1.21215 0.300787 0)
(1.16179 0.486368 0)
(1.03811 0.731618 0)
(0.834287 1.055 0)
(0.588517 1.38957 0)
(0.4441 1.7162 0)
(0.0265079 -0.340195 0)
(0.0721004 -0.436415 0)
(0.117799 -0.42055 0)
(0.158774 -0.392715 0)
(0.196993 -0.368347 0)
(0.233367 -0.348892 0)
(0.268297 -0.333849 0)
(0.302105 -0.322582 0)
(0.335069 -0.314556 0)
(0.367437 -0.309337 0)
(0.399433 -0.306568 0)
(0.431258 -0.305944 0)
(0.463088 -0.307203 0)
(0.495074 -0.310106 0)
(0.527343 -0.314434 0)
(0.559992 -0.319975 0)
(0.593094 -0.326514 0)
(0.626696 -0.333832 0)
(0.660817 -0.341691 0)
(0.695452 -0.349832 0)
(0.73057 -0.357956 0)
(0.766111 -0.365722 0)
(0.801988 -0.372729 0)
(0.83808 -0.378502 0)
(0.874233 -0.382479 0)
(0.910249 -0.383997 0)
(0.945884 -0.382277 0)
(0.980842 -0.376427 0)
(1.01477 -0.365441 0)
(1.04727 -0.348219 0)
(1.07791 -0.323608 0)
(1.10619 -0.290442 0)
(1.13164 -0.247581 0)
(1.15373 -0.193871 0)
(1.17169 -0.128008 0)
(1.18391 -0.0484777 0)
(1.18863 0.0470868 0)
(1.18292 0.165398 0)
(1.15332 0.321868 0)
(1.06821 0.570848 0)
(0.946221 0.961161 0)
(0.749569 1.36469 0)
(0.524249 1.65014 0)
(0.325374 1.84911 0)
(0.026015 -0.376445 0)
(0.069736 -0.47325 0)
(0.113164 -0.453346 0)
(0.152456 -0.423036 0)
(0.189515 -0.397072 0)
(0.225045 -0.376433 0)
(0.259343 -0.360463 0)
(0.292661 -0.348475 0)
(0.325223 -0.339913 0)
(0.357239 -0.334328 0)
(0.388902 -0.331347 0)
(0.420389 -0.330652 0)
(0.451858 -0.33196 0)
(0.483445 -0.335016 0)
(0.515261 -0.339579 0)
(0.547396 -0.345418 0)
(0.579913 -0.3523 0)
(0.612852 -0.359984 0)
(0.64623 -0.368214 0)
(0.680038 -0.37671 0)
(0.714247 -0.385155 0)
(0.748802 -0.393187 0)
(0.783619 -0.400381 0)
(0.818587 -0.406237 0)
(0.853559 -0.410164 0)
(0.888345 -0.411463 0)
(0.922709 -0.409318 0)
(0.956357 -0.402793 0)
(0.988938 -0.390839 0)
(1.02004 -0.372319 0)
(1.04919 -0.346045 0)
(1.07588 -0.310814 0)
(1.09955 -0.265411 0)
(1.11943 -0.208538 0)
(1.13389 -0.139007 0)
(1.14167 -0.055602 0)
(1.14252 0.0449551 0)
(1.13066 0.175562 0)
(1.09425 0.417562 0)
(0.986408 0.735771 0)
(0.825617 1.11163 0)
(0.657502 1.50002 0)
(0.488054 1.78756 0)
(0.37885 1.92041 0)
(0.0254253 -0.412028 0)
(0.0671829 -0.50854 0)
(0.108321 -0.484902 0)
(0.145907 -0.452518 0)
(0.18174 -0.425243 0)
(0.216342 -0.403615 0)
(0.249922 -0.38685 0)
(0.282669 -0.374228 0)
(0.31476 -0.365185 0)
(0.346367 -0.359263 0)
(0.377652 -0.35608 0)
(0.408769 -0.355305 0)
(0.439853 -0.356642 0)
(0.471024 -0.359818 0)
(0.502378 -0.364576 0)
(0.533994 -0.370665 0)
(0.565927 -0.377835 0)
(0.598209 -0.385828 0)
(0.630853 -0.394369 0)
(0.663852 -0.403161 0)
(0.697175 -0.41187 0)
(0.730773 -0.420113 0)
(0.764567 -0.427444 0)
(0.798453 -0.433339 0)
(0.832288 -0.437173 0)
(0.865885 -0.438213 0)
(0.899005 -0.4356 0)
(0.931346 -0.42835 0)
(0.962537 -0.415364 0)
(0.992132 -0.395455 0)
(1.01961 -0.367378 0)
(1.04441 -0.329855 0)
(1.06582 -0.281523 0)
(1.08239 -0.221102 0)
(1.09242 -0.147766 0)
(1.09702 -0.0610872 0)
(1.0952 0.0459146 0)
(1.07999 0.232626 0)
(0.985071 0.50088 0)
(0.840062 0.823627 0)
(0.693579 1.19499 0)
(0.583594 1.56917 0)
(0.488227 1.85571 0)
(0.471493 1.96256 0)
(0.0247578 -0.446818 0)
(0.0644895 -0.542232 0)
(0.103339 -0.515187 0)
(0.139209 -0.481107 0)
(0.17376 -0.452791 0)
(0.207357 -0.430363 0)
(0.240135 -0.412937 0)
(0.27223 -0.399776 0)
(0.303778 -0.390315 0)
(0.334912 -0.384094 0)
(0.365767 -0.380727 0)
(0.39647 -0.379873 0)
(0.427135 -0.381225 0)
(0.457863 -0.384495 0)
(0.488737 -0.389411 0)
(0.519821 -0.395706 0)
(0.551163 -0.403115 0)
(0.582789 -0.411362 0)
(0.614708 -0.420159 0)
(0.646912 -0.429192 0)
(0.679375 -0.438111 0)
(0.712047 -0.446515 0)
(0.744859 -0.453938 0)
(0.777706 -0.459826 0)
(0.810448 -0.463524 0)
(0.842894 -0.464257 0)
(0.874793 -0.461117 0)
(0.90582 -0.453064 0)
(0.935569 -0.438937 0)
(0.963544 -0.417483 0)
(0.989166 -0.387374 0)
(1.0118 -0.347195 0)
(1.0303 -0.295478 0)
(1.04245 -0.231383 0)
(1.0494 -0.15546 0)
(1.05312 -0.0660343 0)
(1.05774 0.0730044 0)
(0.974126 0.303431 0)
(0.832821 0.589993 0)
(0.693298 0.917773 0)
(0.590161 1.26381 0)
(0.54128 1.60974 0)
(0.515639 1.88883 0)
(0.563244 2.00502 0)
(0.0240282 -0.480709 0)
(0.0616917 -0.57429 0)
(0.098265 -0.54418 0)
(0.132414 -0.508759 0)
(0.165634 -0.479653 0)
(0.198156 -0.456604 0)
(0.230055 -0.438651 0)
(0.261421 -0.425052 0)
(0.292351 -0.415243 0)
(0.322947 -0.40877 0)
(0.353313 -0.405244 0)
(0.383552 -0.404318 0)
(0.413756 -0.405676 0)
(0.444007 -0.409019 0)
(0.474373 -0.414062 0)
(0.504907 -0.420524 0)
(0.535646 -0.428126 0)
(0.566612 -0.43658 0)
(0.597811 -0.445583 0)
(0.629236 -0.454809 0)
(0.660861 -0.463891 0)
(0.692642 -0.472413 0)
(0.72451 -0.479883 0)
(0.756362 -0.485722 0)
(0.788052 -0.489235 0)
(0.819379 -0.489601 0)
(0.85007 -0.485855 0)
(0.879766 -0.476889 0)
(0.90801 -0.461468 0)
(0.934248 -0.438251 0)
(0.957862 -0.405796 0)
(0.978025 -0.362525 0)
(0.992646 -0.30731 0)
(1.00118 -0.240409 0)
(1.00727 -0.163769 0)
(1.01566 -0.0653629 0)
(0.964882 0.141291 0)
(0.827934 0.400859 0)
(0.686315 0.695691 0)
(0.577692 0.998275 0)
(0.51557 1.30643 0)
(0.507536 1.61426 0)
(0.527217 1.87409 0)
(0.562312 2.0303 0)
(0.0232491 -0.513611 0)
(0.0588144 -0.604687 0)
(0.0931282 -0.57186 0)
(0.125553 -0.53543 0)
(0.157398 -0.505767 0)
(0.188781 -0.482271 0)
(0.219729 -0.463924 0)
(0.250293 -0.449987 0)
(0.280535 -0.439907 0)
(0.310526 -0.433234 0)
(0.340343 -0.42958 0)
(0.370064 -0.428595 0)
(0.39976 -0.429957 0)
(0.429494 -0.433359 0)
(0.45932 -0.438503 0)
(0.489278 -0.445098 0)
(0.519398 -0.452855 0)
(0.549697 -0.461473 0)
(0.580178 -0.47064 0)
(0.610836 -0.480016 0)
(0.641645 -0.489222 0)
(0.672565 -0.497821 0)
(0.703526 -0.5053 0)
(0.734423 -0.511046 0)
(0.765097 -0.51432 0)
(0.795329 -0.514247 0)
(0.824813 -0.509792 0)
(0.853146 -0.499771 0)
(0.879813 -0.482859 0)
(0.904211 -0.457608 0)
(0.925686 -0.422425 0)
(0.942748 -0.375781 0)
(0.953324 -0.31725 0)
(0.96054 -0.249278 0)
(0.96801 -0.170835 0)
(0.956459 -0.00577782 0)
(0.83579 0.235166 0)
(0.689335 0.510414 0)
(0.572021 0.785708 0)
(0.494573 1.05407 0)
(0.460343 1.32199 0)
(0.47339 1.59288 0)
(0.51925 1.84096 0)
(0.544735 2.04564 0)
(0.0224294 -0.545445 0)
(0.0558729 -0.633398 0)
(0.0879417 -0.598207 0)
(0.118636 -0.561078 0)
(0.149066 -0.531075 0)
(0.179254 -0.507297 0)
(0.209186 -0.488687 0)
(0.238881 -0.474517 0)
(0.268367 -0.464244 0)
(0.297689 -0.457427 0)
(0.326897 -0.453681 0)
(0.356045 -0.452658 0)
(0.385182 -0.454027 0)
(0.414357 -0.457476 0)
(0.443605 -0.462702 0)
(0.472959 -0.469403 0)
(0.502439 -0.477281 0)
(0.532058 -0.486029 0)
(0.561821 -0.495324 0)
(0.591721 -0.504816 0)
(0.621734 -0.514113 0)
(0.651821 -0.522757 0)
(0.681907 -0.530208 0)
(0.71188 -0.535813 0)
(0.741564 -0.538786 0)
(0.77071 -0.538184 0)
(0.798974 -0.532895 0)
(0.825896 -0.521643 0)
(0.850907 -0.503002 0)
(0.873389 -0.475394 0)
(0.892447 -0.437093 0)
(0.90559 -0.38713 0)
(0.913624 -0.326662 0)
(0.921357 -0.25876 0)
(0.934426 -0.152494 0)
(0.849189 0.0739367 0)
(0.703993 0.341595 0)
(0.578318 0.606684 0)
(0.488817 0.853998 0)
(0.435464 1.08884 0)
(0.42007 1.32187 0)
(0.445369 1.56069 0)
(0.507652 1.79687 0)
(0.555744 2.02363 0)
(0.0215753 -0.57614 0)
(0.0528741 -0.660397 0)
(0.0827064 -0.623197 0)
(0.111663 -0.585661 0)
(0.140639 -0.555523 0)
(0.16958 -0.53162 0)
(0.198439 -0.512878 0)
(0.227203 -0.498578 0)
(0.255873 -0.488193 0)
(0.284466 -0.481292 0)
(0.313006 -0.477496 0)
(0.341526 -0.476455 0)
(0.370055 -0.477839 0)
(0.398622 -0.481332 0)
(0.427254 -0.486623 0)
(0.45597 -0.493409 0)
(0.484786 -0.501383 0)
(0.513712 -0.510233 0)
(0.542751 -0.519629 0)
(0.571898 -0.529211 0)
(0.60113 -0.538571 0)
(0.630404 -0.547231 0)
(0.659641 -0.554616 0)
(0.688711 -0.560031 0)
(0.717417 -0.562629 0)
(0.745472 -0.56139 0)
(0.772482 -0.555114 0)
(0.797932 -0.542425 0)
(0.821213 -0.521778 0)
(0.841676 -0.491451 0)
(0.85764 -0.449871 0)
(0.86726 -0.396845 0)
(0.874714 -0.336186 0)
(0.883874 -0.266809 0)
(0.853558 -0.0837467 0)
(0.721797 0.176304 0)
(0.590583 0.441996 0)
(0.492648 0.684264 0)
(0.426565 0.903328 0)
(0.391815 1.10915 0)
(0.390015 1.31189 0)
(0.42339 1.52081 0)
(0.498737 1.73714 0)
(0.576825 1.95709 0)
(0.0206908 -0.605626 0)
(0.049818 -0.685649 0)
(0.077412 -0.646799 0)
(0.104616 -0.609134 0)
(0.132101 -0.579055 0)
(0.15975 -0.555184 0)
(0.187486 -0.536436 0)
(0.215266 -0.522111 0)
(0.243065 -0.511697 0)
(0.270874 -0.504774 0)
(0.298693 -0.500969 0)
(0.326531 -0.499936 0)
(0.354401 -0.501346 0)
(0.382315 -0.504881 0)
(0.410288 -0.510229 0)
(0.438331 -0.517083 0)
(0.466455 -0.525135 0)
(0.494669 -0.534067 0)
(0.522977 -0.543545 0)
(0.551371 -0.553197 0)
(0.579831 -0.562599 0)
(0.608306 -0.571247 0)
(0.636707 -0.57853 0)
(0.664884 -0.583696 0)
(0.692607 -0.585829 0)
(0.719547 -0.583825 0)
(0.745252 -0.576384 0)
(0.769156 -0.562017 0)
(0.790645 -0.53905 0)
(0.808808 -0.505651 0)
(0.820989 -0.460866 0)
(0.828736 -0.40618 0)
(0.836728 -0.345386 0)
(0.84517 -0.231022 0)
(0.743982 0.00729956 0)
(0.606324 0.277055 0)
(0.499796 0.525764 0)
(0.42502 0.743498 0)
(0.377207 0.9378 0)
(0.356591 1.1185 0)
(0.364664 1.29429 0)
(0.404157 1.47371 0)
(0.48396 1.66252 0)
(0.587683 1.85446 0)
(0.0197776 -0.633835 0)
(0.0466974 -0.709113 0)
(0.0720373 -0.668977 0)
(0.0974672 -0.631449 0)
(0.123425 -0.60162 0)
(0.14974 -0.577933 0)
(0.176311 -0.559308 0)
(0.203064 -0.545062 0)
(0.229946 -0.534702 0)
(0.256923 -0.527819 0)
(0.283971 -0.524049 0)
(0.311079 -0.523051 0)
(0.33824 -0.524499 0)
(0.365455 -0.528078 0)
(0.392726 -0.533478 0)
(0.420059 -0.54039 0)
(0.447462 -0.548507 0)
(0.474942 -0.55751 0)
(0.502504 -0.567056 0)
(0.530142 -0.576765 0)
(0.55783 -0.586193 0)
(0.585511 -0.594804 0)
(0.613078 -0.601941 0)
(0.640356 -0.60679 0)
(0.667077 -0.608355 0)
(0.692858 -0.605434 0)
(0.717193 -0.596621 0)
(0.739479 -0.580306 0)
(0.75907 -0.554673 0)
(0.774263 -0.518053 0)
(0.783229 -0.470283 0)
(0.790642 -0.415496 0)
(0.799746 -0.351181 0)
(0.759469 -0.157701 0)
(0.627373 0.107598 0)
(0.509724 0.366576 0)
(0.426225 0.592836 0)
(0.369071 0.787886 0)
(0.33535 0.960711 0)
(0.325358 1.11944 0)
(0.340488 1.27115 0)
(0.383805 1.42266 0)
(0.463581 1.57965 0)
(0.576449 1.73851 0)
(0.753256 1.91597 0)
(0.0188375 -0.660697 0)
(0.0434992 -0.730729 0)
(0.0665488 -0.68968 0)
(0.0901738 -0.652554 0)
(0.114566 -0.623165 0)
(0.139515 -0.59982 0)
(0.164887 -0.581446 0)
(0.190579 -0.567386 0)
(0.216509 -0.557162 0)
(0.242614 -0.55038 0)
(0.26885 -0.546687 0)
(0.295183 -0.54575 0)
(0.32159 -0.547251 0)
(0.34806 -0.550878 0)
(0.374587 -0.556326 0)
(0.401171 -0.563292 0)
(0.42782 -0.571468 0)
(0.454541 -0.580534 0)
(0.481339 -0.590144 0)
(0.508207 -0.599902 0)
(0.535116 -0.609342 0)
(0.561997 -0.617889 0)
(0.588721 -0.624831 0)
(0.61508 -0.629284 0)
(0.640761 -0.630157 0)
(0.665325 -0.626147 0)
(0.688214 -0.615729 0)
(0.708819 -0.597163 0)
(0.726245 -0.568521 0)
(0.737853 -0.528718 0)
(0.745153 -0.479129 0)
(0.752527 -0.423988 0)
(0.757793 -0.309799 0)
(0.652865 -0.0643043 0)
(0.524369 0.20221 0)
(0.429975 0.441489 0)
(0.364255 0.645612 0)
(0.320657 0.820731 0)
(0.297779 0.974733 0)
(0.295729 1.11409 0)
(0.315798 1.24434 0)
(0.360916 1.37051 0)
(0.437977 1.49652 0)
(0.549461 1.62016 0)
(0.712394 1.75055 0)
(0.0178776 -0.686134 0)
(0.0402035 -0.750418 0)
(0.0608962 -0.708843 0)
(0.0826742 -0.672391 0)
(0.105465 -0.643643 0)
(0.129021 -0.6208 0)
(0.153175 -0.602812 0)
(0.177785 -0.589043 0)
(0.202738 -0.579036 0)
(0.227945 -0.572415 0)
(0.253334 -0.568838 0)
(0.278854 -0.567987 0)
(0.304466 -0.569553 0)
(0.330148 -0.573233 0)
(0.355887 -0.57873 0)
(0.381683 -0.585746 0)
(0.407542 -0.59398 0)
(0.433474 -0.603109 0)
(0.459484 -0.612782 0)
(0.485564 -0.622586 0)
(0.511678 -0.632024 0)
(0.53774 -0.640478 0)
(0.563598 -0.647171 0)
(0.589004 -0.651133 0)
(0.613593 -0.651175 0)
(0.63687 -0.645878 0)
(0.658239 -0.633596 0)
(0.677059 -0.61245 0)
(0.691743 -0.580608 0)
(0.700249 -0.537707 0)
(0.707227 -0.487684 0)
(0.714946 -0.428535 0)
(0.672733 -0.232877 0)
(0.545091 0.0324939 0)
(0.437588 0.284978 0)
(0.362381 0.502705 0)
(0.310135 0.686959 0)
(0.277218 0.844634 0)
(0.262705 0.981967 0)
(0.266613 1.10407 0)
(0.290062 1.21527 0)
(0.335549 1.31901 0)
(0.408217 1.41747 0)
(0.512414 1.50826 0)
(0.656759 1.59297 0)
(0.0169189 -0.710067 0)
(0.0367809 -0.768061 0)
(0.0550027 -0.726381 0)
(0.0748808 -0.690896 0)
(0.0960378 -0.663007 0)
(0.11819 -0.640841 0)
(0.141121 -0.623377 0)
(0.164646 -0.610006 0)
(0.188616 -0.600296 0)
(0.212907 -0.593889 0)
(0.237427 -0.590465 0)
(0.262103 -0.58972 0)
(0.286883 -0.591361 0)
(0.311736 -0.595097 0)
(0.336647 -0.600643 0)
(0.361614 -0.607711 0)
(0.386644 -0.616003 0)
(0.411751 -0.625199 0)
(0.436942 -0.634937 0)
(0.462206 -0.644785 0)
(0.487496 -0.65421 0)
(0.512712 -0.662538 0)
(0.537668 -0.668918 0)
(0.562075 -0.672283 0)
(0.585511 -0.671335 0)
(0.607428 -0.664533 0)
(0.627208 -0.650097 0)
(0.644013 -0.626035 0)
(0.655316 -0.591022 0)
(0.662181 -0.545865 0)
(0.668836 -0.494938 0)
(0.673452 -0.389655 0)
(0.570573 -0.141073 0)
(0.450713 0.121492 0)
(0.364117 0.354685 0)
(0.303276 0.552318 0)
(0.261624 0.719272 0)
(0.237226 0.861503 0)
(0.229229 0.983924 0)
(0.23763 1.09061 0)
(0.263335 1.1849 0)
(0.308241 1.26914 0)
(0.375886 1.3442 0)
(0.469896 1.40759 0)
(0.595075 1.45607 0)
(0.0159976 -0.732413 0)
(0.033178 -0.783474 0)
(0.0487447 -0.742176 0)
(0.0666671 -0.708002 0)
(0.0861725 -0.681222 0)
(0.106932 -0.659926 0)
(0.128661 -0.64313 0)
(0.151121 -0.630264 0)
(0.174117 -0.620923 0)
(0.197494 -0.614779 0)
(0.221133 -0.611536 0)
(0.244943 -0.610911 0)
(0.268861 -0.612631 0)
(0.29285 -0.616424 0)
(0.316891 -0.622019 0)
(0.340986 -0.629139 0)
(0.365145 -0.637493 0)
(0.389386 -0.646762 0)
(0.413718 -0.65657 0)
(0.438127 -0.666462 0)
(0.462557 -0.675859 0)
(0.486885 -0.684024 0)
(0.510894 -0.690018 0)
(0.534245 -0.692668 0)
(0.556461 -0.690553 0)
(0.576946 -0.682002 0)
(0.595049 -0.665098 0)
(0.609378 -0.637866 0)
(0.617539 -0.599585 0)
(0.623906 -0.553641 0)
(0.630066 -0.499941 0)
(0.593429 -0.309841 0)
(0.470704 -0.0477638 0)
(0.370159 0.199717 0)
(0.300007 0.412807 0)
(0.250245 0.592569 0)
(0.217279 0.74432 0)
(0.199779 0.872719 0)
(0.196971 0.981685 0)
(0.208828 1.07455 0)
(0.235999 1.15392 0)
(0.279791 1.22139 0)
(0.342418 1.27715 0)
(0.426159 1.31885 0)
(0.53323 1.34213 0)
(0.0151287 -0.753092 0)
(0.0292752 -0.796368 0)
(0.0419198 -0.756081 0)
(0.0578526 -0.72365 0)
(0.075721 -0.698274 0)
(0.095135 -0.678061 0)
(0.115718 -0.662086 0)
(0.137162 -0.649825 0)
(0.159221 -0.640919 0)
(0.181704 -0.635075 0)
(0.204465 -0.632029 0)
(0.227398 -0.631529 0)
(0.25043 -0.633326 0)
(0.27352 -0.63717 0)
(0.296653 -0.642809 0)
(0.319831 -0.64998 0)
(0.343072 -0.6584 0)
(0.366399 -0.667746 0)
(0.389822 -0.677631 0)
(0.413327 -0.687566 0)
(0.436846 -0.69692 0)
(0.460234 -0.704881 0)
(0.483239 -0.710409 0)
(0.505473 -0.712214 0)
(0.526403 -0.70874 0)
(0.545395 -0.698169 0)
(0.561646 -0.678465 0)
(0.572817 -0.648034 0)
(0.579279 -0.607017 0)
(0.585229 -0.559642 0)
(0.589674 -0.471492 0)
(0.493047 -0.222102 0)
(0.381378 0.0367919 0)
(0.300396 0.266139 0)
(0.242645 0.460933 0)
(0.20189 0.625159 0)
(0.176183 0.763387 0)
(0.164373 0.879283 0)
(0.165806 0.97605 0)
(0.180396 1.05649 0)
(0.208512 1.12272 0)
(0.250919 1.17591 0)
(0.308822 1.21595 0)
(0.383289 1.24086 0)
(0.474832 1.24688 0)
(0.0141856 -0.771968 0)
(0.0248087 -0.806321 0)
(0.0342156 -0.767939 0)
(0.0481902 -0.737811 0)
(0.064499 -0.714192 0)
(0.082672 -0.695294 0)
(0.102212 -0.680289 0)
(0.122726 -0.668727 0)
(0.143913 -0.660306 0)
(0.165544 -0.654782 0)
(0.187447 -0.651935 0)
(0.209502 -0.651549 0)
(0.231633 -0.653408 0)
(0.253796 -0.657289 0)
(0.27598 -0.662961 0)
(0.298194 -0.670177 0)
(0.320465 -0.678663 0)
(0.34282 -0.688093 0)
(0.365276 -0.698059 0)
(0.387814 -0.708035 0)
(0.410358 -0.717331 0)
(0.432743 -0.725044 0)
(0.454679 -0.730023 0)
(0.475731 -0.730845 0)
(0.495318 -0.725808 0)
(0.51277 -0.712934 0)
(0.52685 -0.690111 0)
(0.534949 -0.65626 0)
(0.540601 -0.613939 0)
(0.545366 -0.564795 0)
(0.517377 -0.387616 0)
(0.399618 -0.13161 0)
(0.304881 0.111454 0)
(0.238557 0.322224 0)
(0.190481 0.500821 0)
(0.157319 0.651369 0)
(0.13774 0.77741 0)
(0.130728 0.88191 0)
(0.135717 0.96758 0)
(0.152532 1.03684 0)
(0.181261 1.09154 0)
(0.222199 1.13267 0)
(0.275786 1.16005 0)
(0.342187 1.17219 0)
(0.420801 1.16636 0)
(0.0126526 -0.788592 0)
(0.0192468 -0.812782 0)
(0.0252107 -0.777651 0)
(0.0373726 -0.750532 0)
(0.0522969 -0.729068 0)
(0.0694114 -0.711727 0)
(0.0880709 -0.697833 0)
(0.107788 -0.687041 0)
(0.128201 -0.679129 0)
(0.149044 -0.673923 0)
(0.170126 -0.671256 0)
(0.191317 -0.670957 0)
(0.212537 -0.672849 0)
(0.233749 -0.676739 0)
(0.254945 -0.682423 0)
(0.276146 -0.689671 0)
(0.297387 -0.698217 0)
(0.318703 -0.707729 0)
(0.340117 -0.717778 0)
(0.361611 -0.727793 0)
(0.383103 -0.737012 0)
(0.404408 -0.744435 0)
(0.425202 -0.748782 0)
(0.445004 -0.748481 0)
(0.463196 -0.741664 0)
(0.478992 -0.726195 0)
(0.49034 -0.700103 0)
(0.49666 -0.663073 0)
(0.501764 -0.619047 0)
(0.505658 -0.549335 0)
(0.417776 -0.306115 0)
(0.314143 -0.051772 0)
(0.237915 0.17512 0)
(0.18259 0.369349 0)
(0.142496 0.533832 0)
(0.115855 0.672147 0)
(0.101531 0.787078 0)
(0.0986535 0.88112 0)
(0.106697 0.956663 0)
(0.125371 1.0159 0)
(0.154507 1.06053 0)
(0.194002 1.09152 0)
(0.243723 1.10884 0)
(0.30321 1.11147 0)
(0.371225 1.09765 0)
(0.00935065 -0.801815 0)
(0.0116534 -0.815274 0)
(0.0144277 -0.785305 0)
(0.0250723 -0.761986 0)
(0.0389135 -0.74309 0)
(0.0552462 -0.727533 0)
(0.0732571 -0.714862 0)
(0.0923567 -0.704876 0)
(0.112127 -0.697466 0)
(0.13227 -0.692542 0)
(0.152584 -0.690007 0)
(0.172934 -0.689746 0)
(0.193244 -0.691622 0)
(0.213482 -0.69548 0)
(0.233654 -0.701141 0)
(0.253789 -0.708396 0)
(0.273932 -0.716985 0)
(0.29413 -0.72657 0)
(0.314414 -0.736698 0)
(0.334771 -0.746746 0)
(0.355116 -0.755874 0)
(0.37525 -0.762965 0)
(0.394822 -0.7666 0)
(0.413312 -0.765039 0)
(0.430066 -0.756224 0)
(0.443973 -0.737874 0)
(0.452482 -0.708452 0)
(0.457792 -0.669234 0)
(0.461851 -0.623492 0)
(0.443567 -0.463864 0)
(0.33159 -0.218277 0)
(0.241699 0.0199151 0)
(0.178267 0.229646 0)
(0.131402 0.40907 0)
(0.09805 0.561016 0)
(0.0770077 0.688205 0)
(0.0672468 0.7929 0)
(0.0679952 0.877291 0)
(0.0787103 0.943578 0)
(0.0989638 0.993835 0)
(0.128361 1.02973 0)
(0.166486 1.05227 0)
(0.212799 1.06166 0)
(0.266435 1.05736 0)
(0.325865 1.03838 0)
(0.00259317 -0.809555 0)
(0.000824787 -0.814019 0)
(0.00146493 -0.791249 0)
(0.0110188 -0.772506 0)
(0.0242214 -0.75657 0)
(0.0401455 -0.742974 0)
(0.0578026 -0.731578 0)
(0.0765064 -0.722381 0)