/*--------------------------------*- C++ -*----------------------------------*\
| =========                 |                                                 |
| \\      /  F ield         | OpenFOAM: The Open Source CFD Toolbox           |
|  \\    /   O peration     | Version:  5.0                                   |
|   \\  /    A nd           | Web:      www.OpenFOAM.org                      |
|    \\/     M anipulation  |                                                 |
\*---------------------------------------------------------------------------*/
FoamFile
{
    version     2.0;
    format      ascii;
    class       surfaceScalarField;
    location    "0.4";
    object      alphaPhi10;
}
// * * * * * * * * * * * * * * * * * * * * * * * * * * * * * * * * * * * * * //

dimensions      [0 3 -1 0 0 0 0];

internalField   nonuniform List<scalar> 
3782
(
-2.45382e-14
2.4094e-13
-3.13597e-14
4.93149e-14
-4.41135e-14
6.71538e-14
-7.40215e-14
1.01868e-13
-1.34313e-13
1.87855e-13
-1.81825e-13
3.13904e-13
-1.48897e-13
3.98625e-13
-1.90972e-13
3.30951e-13
-2.03534e-13
1.5411e-13
-2.13404e-13
6.02645e-15
-1.99458e-13
4.74904e-15
-1.94688e-13
4.0023e-16
-1.83904e-13
-3.75044e-14
-1.54741e-13
-5.22495e-14
-1.22764e-13
-3.11995e-14
-9.10948e-14
-2.5388e-14
-5.13571e-14
-4.39932e-14
-1.78405e-14
-4.20836e-14
-3.92944e-15
-1.90579e-14
-8.7405e-16
-4.50117e-15
-1.65951e-16
-1.16402e-15
-2.34854e-17
-2.66552e-16
-2.64105e-18
-3.84326e-17
-2.43439e-19
-4.60792e-18
-1.96767e-20
-4.5279e-19
-1.34869e-21
-3.89309e-20
-7.73883e-23
-2.82181e-21
-3.78411e-24
-1.70521e-22
-1.59993e-25
-8.74739e-24
-5.87661e-27
-3.86082e-25
-1.87851e-28
-1.47156e-26
-5.26363e-30
-4.84807e-28
-1.2976e-31
-1.38923e-29
-2.77725e-33
-3.47152e-31
-5.1207e-35
-7.45955e-33
-8.08293e-37
-1.36548e-34
-1.07264e-38
-2.1148e-36
-1.15974e-40
-2.70977e-38
-9.89008e-43
-2.77393e-40
-6.13018e-45
-2.18698e-42
-2.24383e-47
-1.21168e-44
-2.33051e-50
-3.77192e-47
-2.67187e-50
5.53811e-13
-2.83276e-13
4.52174e-13
-9.28483e-14
5.39078e-13
-1.25662e-13
-7.4119e-12
3.7888e-11
1.03613e-12
-5.89309e-13
1.57644e-12
-9.04091e-13
1.90983e-12
-3.41548e-13
-1.43751e-13
8.0744e-11
1.24237e-12
-9.2894e-13
1.76786e-12
-1.04392e-12
1.65774e-12
-3.4188e-13
-1.68969e-13
1.45629e-12
1.16452e-12
-9.53489e-13
1.62081e-12
-1.10803e-12
1.62677e-12
-4.08806e-13
-2.25774e-13
1.37499e-12
1.56261e-12
-9.59413e-13
1.06336e-12
-3.51807e-13
1.22998e-12
-4.58818e-13
-8.15323e-13
1.55135e-12
1.0712e-12
-9.78428e-13
1.06489e-12
-7.01419e-13
1.55235e-12
-7.32088e-13
-7.98412e-12
9.10605e-12
1.99711e-12
-2.6134e-12
4.01472e-12
-4.85448e-12
4.45927e-12
-1.32746e-12
-9.61647e-11
9.30143e-11
1.95077e-12
-3.20434e-12
5.43893e-12
-7.7781e-12
6.23276e-12
-2.75409e-12
-1.59098e-12
9.57911e-10
5.03154e-13
-1.24387e-12
2.10349e-12
-8.71302e-12
2.16427e-12
-4.36045e-12
-2.94007e-12
3.15303e-12
-1.58003e-16
-4.21219e-13
1.36408e-12
-9.16348e-12
4.02765e-12
-1.81485e-11
-9.04902e-12
9.64768e-12
8.95254e-14
-4.47444e-13
-2.49017e-12
-5.2317e-12
9.34188e-14
-2.1187e-11
-7.86671e-12
1.14489e-11
6.93439e-14
-4.45626e-13
-9.15771e-13
-1.76465e-12
-2.32204e-12
-1.93049e-11
-3.36674e-11
1.82357e-13
1.19814e-13
-4.86506e-13
6.7796e-13
-1.6509e-12
-7.5699e-12
-7.11812e-12
-4.74611e-11
-5.60876e-13
5.26677e-14
-4.73908e-13
7.49874e-13
-1.70164e-12
2.69447e-12
-6.45753e-12
-2.49149e-11
-3.9945e-12
9.61976e-14
-4.53302e-13
7.11141e-13
-1.71997e-12
2.97945e-12
-6.33736e-12
-2.29146e-11
9.40437e-12
-1.5765e-14
-3.6799e-13
1.62327e-13
-1.4933e-12
1.30905e-12
-5.74637e-12
-2.06496e-11
5.51468e-12
-1.62496e-13
-2.19167e-13
-5.88472e-13
-9.34146e-13
-1.92868e-12
-3.80014e-12
-1.44341e-11
-5.75084e-12
-1.83455e-13
-7.85613e-14
-7.5467e-13
-3.447e-13
-2.90169e-12
-1.47935e-12
-5.90929e-12
-1.09122e-11
-8.83464e-14
-1.61914e-14
-3.85555e-13
-7.41192e-14
-1.61422e-12
-3.37823e-13
-1.4314e-12
-6.4452e-12
-1.93842e-14
-2.80924e-15
-8.86004e-14
-1.06552e-14
-3.95737e-13
-4.86534e-14
-2.16488e-13
-1.68763e-12
-3.65667e-15
-6.10666e-16
-1.34504e-14
-1.92683e-15
-5.99e-14
-5.76256e-15
-2.19599e-14
-2.6482e-13
-1.09287e-15
-9.25438e-17
-3.09009e-15
-3.44724e-16
-8.43447e-15
-1.11505e-15
-3.18315e-15
-2.91724e-14
-1.68337e-16
-1.07804e-17
-6.94125e-16
-4.22185e-17
-2.5369e-15
-1.48847e-16
-4.70333e-16
-7.02563e-15
-2.09018e-17
-1.01856e-18
-8.94334e-17
-4.10385e-18
-3.42017e-16
-1.49623e-17
-4.91378e-17
-1.19703e-15
-2.11507e-18
-8.45868e-20
-9.40166e-18
-3.51084e-19
-3.73535e-17
-1.32219e-18
-4.48061e-18
-1.36664e-16
-1.87784e-19
-5.9807e-21
-8.6897e-19
-2.56668e-20
-3.59429e-18
-1.00162e-19
-3.51289e-19
-1.36885e-17
-1.41083e-20
-3.5523e-22
-6.81997e-20
-1.58092e-21
-2.94586e-19
-6.40454e-21
-2.32715e-20
-1.17006e-18
-8.86727e-22
-1.80663e-23
-4.49058e-21
-8.37501e-23
-2.03057e-20
-3.53404e-22
-1.33335e-21
-8.42452e-20
-4.75404e-23
-7.99503e-25
-2.53418e-22
-3.8851e-24
-1.20448e-21
-1.71763e-23
-6.7597e-23
-5.23574e-21
-2.20652e-24
-3.09488e-26
-1.24683e-23
-1.58723e-25
-6.26945e-23
-7.39982e-25
-3.05371e-24
-2.86729e-22
-8.9009e-26
-1.04978e-27
-5.37215e-25
-5.71946e-27
-2.87895e-24
-2.82811e-26
-1.22901e-25
-1.39274e-23
-3.12324e-27
-3.14533e-29
-2.02798e-26
-1.83384e-28
-1.16614e-25
-9.68012e-28
-4.44873e-27
-6.0005e-25
-9.59792e-29
-8.3712e-31
-6.76035e-28
-5.269e-30
-4.20076e-27
-2.99474e-29
-1.46467e-28
-2.31155e-26
-2.59212e-30
-1.95618e-32
-2.00046e-29
-1.34083e-31
-1.35656e-28
-8.27063e-31
-4.32724e-30
-8.00201e-28
-6.06952e-32
-3.98758e-34
-5.18062e-31
-3.00666e-33
-3.86977e-30
-2.03092e-32
-1.1437e-31
-2.45551e-29
-1.2217e-33
-7.08177e-36
-1.1653e-32
-5.95181e-35
-9.68909e-32
-4.458e-34
-2.72767e-33
-6.64333e-31
-2.10498e-35
-1.07583e-37
-2.27405e-34
-1.02451e-36
-2.13205e-33
-8.64498e-36
-5.81957e-35
-1.59384e-32
-3.03757e-37
-1.35899e-39
-3.7785e-36
-1.49747e-38
-4.05575e-35
-1.45224e-37
-1.09354e-36
-3.32819e-34
-3.55509e-39
-1.39531e-41
-5.20008e-38
-1.83406e-40
-6.50529e-37
-2.10485e-39
-1.81944e-38
-5.87649e-36
-3.27965e-41
-1.09659e-43
-5.82728e-40
-1.80694e-42
-8.7127e-39
-2.56625e-41
-2.65133e-40
-8.61993e-38
-2.22114e-43
-5.71739e-46
-5.08087e-42
-1.31489e-44
-9.45982e-41
-2.51353e-43
-3.3104e-42
-1.01448e-39
-9.22184e-46
-1.3303e-48
-3.24729e-44
-6.49571e-47
-7.8976e-43
-2.40003e-45
-5.43633e-44
-9.54754e-42
-1.35697e-48
-1.12388e-46
-3.81563e-45
-5.0326e-44
1.97293e-10
9.40601e-13
2.08034e-10
5.83885e-11
1.71424e-10
1.13805e-10
1.49638e-11
5.84001e-11
4.68516e-12
8.80766e-12
1.77742e-12
3.74819e-12
1.6946e-12
2.14497e-12
5.66818e-12
7.43416e-12
3.34269e-11
5.41954e-11
1.76434e-10
2.88619e-10
1.73856e-09
1.88421e-09
1.34207e-08
3.00637e-09
3.36063e-06
4.2051e-07
4.34382e-05
2.04779e-05
7.69888e-05
5.58611e-05
7.56905e-05
6.33314e-05
7.51089e-05
6.69583e-05
7.54546e-05
6.96957e-05
6.49244e-05
6.84543e-05
1.75924e-05
3.3644e-05
-3.45078e-07
6.5252e-06
-7.98564e-08
2.00786e-06
-2.74404e-08
5.96889e-07
-1.06653e-08
1.73181e-07
-2.91439e-09
4.41266e-08
-6.59612e-10
9.95178e-09
-1.33448e-10
2.04216e-09
-2.4789e-11
3.87516e-10
-4.22877e-12
6.8301e-11
-6.48505e-13
1.11796e-11
-8.15245e-14
1.70172e-12
-7.75849e-15
2.43466e-13
1.68676e-15
3.41831e-14
3.64136e-16
5.45217e-15
2.42914e-17
6.01139e-16
1.3411e-18
5.25458e-17
5.42347e-20
3.6626e-18
1.3536e-21
1.92566e-19
1.42114e-23
6.80682e-21
1.18382e-22
9.2903e-11
-6.66749e-12
8.48042e-11
8.12464e-11
6.34992e-11
1.60832e-10
2.20997e-11
5.17188e-11
8.95369e-12
1.61682e-11
4.99089e-12
5.84305e-12
9.41659e-12
7.1159e-12
4.31837e-11
5.97595e-11
5.24681e-10
5.96953e-10
3.40973e-09
3.44566e-09
2.79436e-08
1.80595e-08
3.67703e-07
1.18522e-07
1.0315e-05
3.18094e-06
5.82588e-05
3.9168e-05
7.1289e-05
5.9666e-05
7.1644e-05
6.38627e-05
7.18844e-05
6.6375e-05
7.0165e-05
6.87682e-05
4.97854e-05
5.92596e-05
3.43248e-06
1.6289e-05
-3.13811e-07
3.77397e-06
-9.21564e-08
1.18845e-06
-3.33167e-08
3.64438e-07
-1.012e-08
1.0235e-07
-2.48199e-09
2.52254e-08
-5.34404e-10
5.57055e-09
-1.0518e-10
1.13129e-09
-1.91619e-11
2.1402e-10
-3.2134e-12
3.77537e-11
-4.823e-13
6.20996e-12
-5.48158e-14
9.59014e-13
6.46865e-17
1.41498e-13
1.51385e-15
2.48257e-14
2.12495e-16
3.66722e-15
1.50849e-17
3.96549e-16
8.59504e-19
3.49893e-17
3.52837e-20
2.46998e-18
8.90999e-22
1.31542e-19
9.42506e-24
4.70465e-21
8.24563e-23
1.55087e-09
-2.02121e-11
1.36944e-09
1.27868e-09
2.25565e-10
1.28286e-09
5.49785e-11
1.67953e-10
2.19596e-11
4.75862e-11
1.15504e-11
1.34743e-11
5.95067e-11
1.96302e-11
1.02061e-09
6.93352e-10
5.05539e-09
4.82666e-09
2.80094e-08
3.29635e-08
1.97078e-07
1.74701e-07
1.84028e-06
9.79219e-07
2.71717e-05
1.97207e-05
6.67727e-05
5.69696e-05
6.63189e-05
6.1007e-05
6.66722e-05
6.39626e-05
6.73765e-05
6.65325e-05
6.12843e-05
6.53896e-05
2.52403e-05
3.39902e-05
-7.59002e-07
5.98425e-06
-2.5481e-07
1.93193e-06
-7.69071e-08
6.28552e-07
-2.54649e-08
1.95822e-07
-6.85359e-09
5.44278e-08
-1.61424e-09
1.32437e-08
-3.44786e-10
2.86664e-09
-6.75382e-11
5.7134e-10
-1.22588e-11
1.07526e-10
-2.04273e-12
1.90144e-11
-2.96794e-13
3.16019e-12
-3.26131e-14
5.05845e-13
2.80869e-15
8.59161e-14
1.18928e-15
1.65367e-14
1.1878e-16
2.25581e-15
8.76453e-18
2.44264e-16
5.0866e-19
2.17612e-17
2.11233e-20
1.55234e-18
5.38377e-22
8.35462e-20
5.72389e-24
3.01692e-21
5.31604e-23
4.60334e-09
-4.65782e-11
5.48986e-09
2.60466e-09
9.69133e-10
2.98441e-09
1.78328e-10
6.91885e-10
6.67888e-11
1.51165e-10
3.63041e-11
4.20292e-11
5.94684e-11
2.18417e-11
9.18289e-09
2.10939e-09
3.36619e-08
3.49502e-08
1.83627e-07
3.43945e-07
1.04082e-06
2.00741e-06
1.64602e-05
1.6365e-05
5.72401e-05
5.3228e-05
6.22432e-05
5.9381e-05
6.25994e-05
6.11625e-05
6.32881e-05
6.29688e-05
6.17575e-05
6.46151e-05
4.27906e-05
5.04181e-05
3.5029e-06
1.06325e-05
-4.52114e-07
2.35635e-06
-1.39018e-07
9.0638e-07
-4.51963e-08
3.01847e-07
-1.2998e-08
9.69197e-08
-3.31549e-09
2.74758e-08
-8.14599e-10
6.64654e-09
-1.83682e-10
1.4079e-09
-3.64455e-11
2.74913e-10
-6.64001e-12
5.09335e-11
-1.09724e-12
8.95024e-12
-1.45165e-13
1.51454e-12
-5.52344e-15
2.64708e-13
3.16015e-15
5.59655e-14
6.49207e-16
9.80262e-15
6.23726e-17
1.29338e-15
4.73701e-18
1.40736e-16
2.78517e-19
1.2654e-17
1.1678e-20
9.1131e-19
2.99989e-22
4.95094e-20
3.20122e-24
1.80314e-21
3.18875e-23
5.91843e-09
-6.79333e-11
6.64664e-09
2.52719e-09
3.79158e-09
3.31878e-09
2.42565e-10
1.50011e-09
9.1234e-11
3.36759e-10
5.35048e-11
1.52175e-10
1.21237e-10
7.93461e-11
7.80354e-09
1.4919e-09
3.23201e-07
1.46441e-07
3.12002e-06
4.36211e-06
2.18884e-05
2.4826e-05
5.30029e-05
5.32943e-05
5.74952e-05
5.76342e-05
5.78516e-05
5.89121e-05
5.87604e-05
6.01561e-05
5.86408e-05
6.24407e-05
4.93286e-05
5.51184e-05
1.32312e-05
1.84129e-05
-3.79545e-07
2.5192e-06
-1.49796e-07
1.04414e-06
-5.39877e-08
3.82061e-07
-1.74066e-08
1.35333e-07
-4.84158e-09
4.62449e-08
-1.34034e-09
1.3127e-08
-3.42938e-10
3.10213e-09
-7.79711e-11
6.51613e-10
-1.61003e-11
1.27051e-10
-3.02806e-12
2.32766e-11
-4.89118e-13
4.0893e-12
-4.98142e-14
7.2692e-13
3.66014e-15
1.49704e-13
2.23716e-15
3.29891e-14
3.19416e-16
5.35583e-15
3.08307e-17
6.9791e-16
2.37818e-18
7.62292e-17
1.41193e-19
6.90282e-18
5.96773e-21
5.01155e-19
1.54253e-22
2.74518e-20
1.64874e-24
1.00737e-21
1.78545e-23
6.7983e-09
-4.4711e-10
2.14232e-09
3.50047e-09
8.19568e-10
2.32966e-09
4.59001e-10
1.01984e-09
1.86361e-10
7.62746e-10
2.88556e-10
1.45158e-09
5.49361e-10
1.80973e-09
2.49014e-09
1.47166e-09
4.61331e-06
1.84006e-06
2.94116e-05
2.69516e-05
5.11324e-05
5.08237e-05
5.25018e-05
5.38821e-05
5.36861e-05
5.64174e-05
5.46414e-05
5.77341e-05
5.48535e-05
6.00391e-05
4.89039e-05
5.47275e-05
2.03422e-05
2.43799e-05
2.93625e-07
2.47464e-06
-5.07615e-08
9.88192e-07
-2.92022e-08
4.13754e-07
-1.70282e-08
1.56539e-07
-5.22193e-09
5.85062e-08
-1.60844e-09
2.01979e-08
-4.95007e-10
5.62151e-09
-1.30847e-10
1.32155e-09
-3.02772e-11
2.78211e-10
-6.28761e-12
5.41618e-11
-1.16333e-12
1.00189e-11
-1.69607e-13
1.83289e-12
-7.27727e-15
3.67474e-13
4.51522e-15
8.70419e-14
1.15775e-15
1.75883e-14
1.46574e-16
2.73759e-15
1.42484e-17
3.54978e-16
1.10864e-18
3.88924e-17
6.62957e-20
3.54147e-18
2.81944e-21
2.58831e-19
7.31902e-23
1.42777e-20
7.8169e-25
5.27287e-22
9.34955e-24
1.00767e-08
-1.16635e-09
3.60502e-09
3.4616e-09
1.18143e-09
1.64261e-09
6.67479e-10
1.60606e-09
1.36765e-09
3.31704e-09
3.90471e-09
1.33673e-08
2.08385e-08
7.00736e-08
2.83123e-08
6.23943e-08
7.49462e-06
4.95243e-06
4.46655e-05
3.95787e-05
4.81277e-05
4.88579e-05
4.9839e-05
5.29096e-05
5.12506e-05
5.59701e-05
5.13007e-05
5.7522e-05
4.69659e-05
5.33788e-05
2.20402e-05
2.61466e-05
1.10345e-06
2.17385e-06
1.67241e-07
8.38731e-07
3.40227e-08
3.96086e-07
-4.10894e-09
1.63471e-07
-3.59227e-09
6.19938e-08
-1.21e-09
2.20043e-08
-4.70248e-10
7.59998e-09
-1.61146e-10
2.16692e-09
-4.48213e-11
5.15939e-10
-1.06535e-11
1.09565e-10
-2.23432e-12
2.16435e-11
-3.98156e-13
4.11489e-12
-4.41614e-14
8.18288e-13
4.40436e-15
1.92101e-13
2.85344e-15
4.63289e-14
5.16212e-16
8.67874e-15
6.26984e-17
1.31827e-15
6.1217e-18
1.70386e-16
4.7903e-19
1.87113e-17
2.87961e-20
1.71144e-18
1.22989e-21
1.2578e-19
3.1996e-23
6.9801e-21
3.4046e-25
2.59165e-22
4.58895e-24
1.14683e-08
-1.49095e-09
4.41607e-09
1.46955e-09
1.87966e-09
2.08377e-09
2.09392e-09
1.54183e-09
1.2901e-08
8.3702e-09
5.13947e-08
1.01129e-07
4.02838e-07
9.50975e-07
8.73393e-06
1.38493e-05
3.39101e-05
3.84728e-05
4.58897e-05
4.7975e-05
4.49914e-05
3.14365e-05
4.5952e-05
4.1928e-05
4.79099e-05
5.1485e-05
4.42755e-05
4.54692e-05
2.24914e-05
2.45054e-05
1.42577e-06
1.85789e-06
3.12113e-07
5.07441e-07
1.07445e-07
2.91112e-07
1.83579e-08
1.46498e-07
1.05293e-09
6.48994e-08
-5.10271e-10
2.44571e-08
-1.99354e-10
7.45405e-09
-1.04953e-10
2.3797e-09
-4.44961e-11
7.39316e-10
-1.34922e-11
1.8344e-10
-3.35211e-12
3.99238e-11
-7.06173e-13
8.10249e-12
-1.12577e-13
1.64334e-12
-3.37833e-15
3.78282e-13
4.63978e-15
9.97341e-14
1.33845e-15
2.25469e-14
2.07657e-16
4.00012e-15
2.48683e-17
5.99236e-16
2.4338e-18
7.72632e-17
1.91161e-19
8.49799e-18
1.15306e-20
7.80039e-19
4.93562e-22
5.7599e-20
1.28347e-23
3.21308e-21
1.35511e-25
1.19835e-22
2.11472e-24
4.50411e-09
-1.74314e-09
1.13257e-08
3.95746e-11
3.36813e-09
4.01849e-09
3.15396e-09
1.70402e-09
8.29988e-08
2.35588e-08
1.36865e-06
1.30649e-06
1.44813e-05
1.67517e-05
3.72058e-05
4.3487e-05
3.31598e-05
4.45677e-05
1.8729e-05
4.24453e-05
1.80044e-05
1.49536e-05
2.37327e-05
7.35703e-06
2.36204e-05
7.40992e-06
1.62654e-05
4.03626e-06
3.03896e-06
-4.37138e-07
3.26618e-07
-9.32879e-08
1.10221e-07
1.61559e-07
3.65308e-08
9.25762e-08
6.30544e-09
5.25965e-08
5.88605e-10
2.60915e-08
2.78391e-12
9.88706e-09
-2.29587e-11
3.08426e-09
-1.55022e-11
7.12244e-10
-9.68609e-12
2.18354e-10
-3.46451e-12
5.91996e-11
-9.15687e-13
1.34765e-11
-1.88175e-13
2.90125e-12
-2.02741e-14
6.70961e-13
4.64442e-15
1.82982e-13
2.50331e-15
4.85521e-14
5.20847e-16
1.0094e-14
7.61175e-17
1.73305e-15
9.07132e-18
2.57328e-16
8.89126e-19
3.31137e-17
6.99875e-20
3.64606e-18
4.22769e-21
3.35661e-19
1.80904e-22
2.48876e-20
4.68541e-24
1.39471e-21
4.87808e-26
5.221e-23
9.16165e-25
1.49491e-09
-2.17833e-10
1.09035e-08
-2.48747e-09
3.585e-09
5.68957e-09
3.45942e-09
1.9606e-09
2.18563e-08
5.60961e-09
1.70187e-05
9.69091e-06
3.68371e-05
4.40915e-05
3.69654e-05
4.48924e-05
3.56242e-05
4.63091e-05
2.63733e-05
4.6411e-05
4.21067e-06
2.50252e-05
2.68147e-06
3.29365e-06
2.49145e-06
1.77987e-06
1.9403e-06
5.37108e-07
7.09293e-07
1.23689e-07
1.80489e-07
3.67624e-08
4.0183e-08
5.10993e-08
7.42314e-09
3.58064e-08
6.53816e-10
2.05165e-08
-6.17242e-10
1.11034e-08
-3.10319e-10
4.15746e-09
-3.8738e-11
1.27038e-09
-1.28225e-12
3.05009e-10
-1.30013e-12
6.05374e-11
-6.94102e-13
1.7021e-11
-2.02875e-13
4.27952e-12
-3.5794e-14
1.04547e-12
1.77875e-15
2.94732e-13
3.31617e-15
8.79668e-14
9.75998e-16
2.14799e-14
1.76188e-16
4.20209e-15
2.52402e-17
7.08001e-16
3.00437e-18
1.04456e-16
2.94812e-19
1.34184e-17
2.32217e-20
1.47875e-18
1.40136e-21
1.36491e-19
5.97259e-23
1.01582e-20
1.53174e-24
5.71647e-22
1.55514e-26
2.14638e-23
3.7351e-25
1.27465e-09
-2.72363e-11
1.07449e-08
-4.69897e-09
6.55922e-09
1.54473e-09
5.18714e-09
2.8453e-09
7.06194e-09
3.58449e-09
2.81038e-05
1.14705e-05
3.64752e-05
4.03484e-05
3.71111e-05
4.49191e-05
3.67113e-05
4.68581e-05
3.4932e-05
4.8374e-05
6.10971e-06
4.22812e-05
1.08996e-06
6.00814e-06
4.82077e-07
1.35615e-06
2.94708e-07
3.46009e-07
1.24017e-07
1.08734e-07
3.42935e-08
3.20757e-08
5.45127e-09
2.07967e-08
-1.13872e-09
1.48365e-08
-2.37915e-09
9.00546e-09
-1.0836e-09
4.35336e-09
-3.14879e-10
1.57534e-09
-6.46228e-11
4.66431e-10
-8.32742e-12
1.21306e-10
-2.66719e-14
2.48044e-11
-7.27446e-14
4.69637e-12
-2.88822e-14
1.33776e-12
-1.52e-15
4.13553e-13
2.95864e-15
1.36867e-13
1.30105e-15
3.8989e-14
2.99556e-16
8.67712e-15
5.1744e-17
1.64022e-15
7.39313e-18
2.73074e-16
8.81818e-19
4.00918e-17
8.66338e-20
5.14294e-18
6.81561e-21
5.67272e-19
4.09306e-22
5.24941e-20
1.72598e-23
3.92104e-21
4.33147e-25
2.21525e-22
4.17907e-27
8.33735e-24
1.43377e-25
1.58923e-11
-4.16583e-11
1.38307e-09
-5.88527e-10
1.12203e-08
-1.1481e-09
5.79874e-09
5.72103e-09
9.87176e-09
3.45289e-09
1.85849e-05
4.99165e-06
3.35706e-05
3.17593e-05
3.54366e-05
4.31938e-05
3.5638e-05
4.67353e-05
3.5146e-05
4.91453e-05
1.98476e-05
4.72544e-05
5.31276e-07
1.8599e-05
1.47557e-07
1.27412e-06
4.65821e-08
2.49427e-07
1.76364e-08
6.31652e-08
3.36301e-09
1.41764e-08
-2.48661e-09
9.0095e-09
-2.96905e-09
6.26813e-09
-1.54389e-09
3.47017e-09
-5.61573e-10
1.61369e-09
-1.57819e-10
5.60871e-10
-3.54972e-11
1.64433e-10
-6.42574e-12
4.19925e-11
-8.78639e-13
9.74977e-12
-5.87414e-14
1.90888e-12
-4.45578e-16
4.74655e-13
1.26968e-15
1.84082e-13
1.00584e-15
6.09304e-14
3.27115e-16
1.54628e-14
7.13508e-17
3.25022e-15
1.24571e-17
6.02609e-16
1.80415e-18
9.94923e-17
2.1699e-19
1.45528e-17
2.13626e-20
1.86516e-18
1.67245e-21
2.05975e-19
9.90654e-23
1.91126e-20
4.06463e-24
1.4329e-21
9.65392e-26
8.12629e-23
8.02396e-28
3.06339e-24
5.17535e-26
1.45763e-11
-7.80608e-11
-3.45925e-10
-2.11808e-10
4.63671e-09
-2.01038e-09
1.32758e-08
1.91074e-09
1.64327e-08
3.86738e-09
4.38831e-06
6.21585e-07
2.78557e-05
1.34172e-05
3.23213e-05
3.90224e-05
3.32802e-05
4.59864e-05
3.3193e-05
4.9376e-05
2.90759e-05
5.15191e-05
1.44469e-06
2.84062e-05
8.2875e-08
1.72661e-06
1.08662e-08
2.45132e-07
1.55785e-09
3.35134e-08
-1.31527e-09
6.42785e-09
-2.3777e-09
4.16589e-09
-1.51588e-09
2.47512e-09
-6.72267e-10
1.30416e-09
-2.3486e-10
5.81264e-10
-6.55368e-11
1.99993e-10
-1.55453e-11
5.6528e-11
-3.13583e-12
1.4344e-11
-5.44312e-13
3.33546e-12
-8.12932e-14
7.69348e-13
-9.42997e-15
2.09477e-13
-7.03963e-16
8.22361e-14
3.57524e-17
2.41448e-14
3.37878e-17
5.59638e-15
9.70521e-18
1.14179e-15
1.93266e-18
2.09012e-16
2.99956e-19
3.42801e-17
3.72936e-20
4.99828e-18
3.69615e-21
6.40267e-19
2.83976e-22
7.08208e-20
1.59773e-23
6.59344e-21
5.88508e-25
4.96564e-22
1.08518e-26
2.82966e-23
4.68208e-30
1.06952e-24
1.76743e-26
3.25017e-11
-8.72933e-11
9.95604e-11
-2.22097e-10
-4.77139e-09
-7.67155e-10
8.88529e-09
-3.279e-09
4.95599e-08
8.93711e-09
6.30008e-07
7.42937e-08
1.25957e-05
2.02089e-06
2.52248e-05
2.11739e-05
2.8877e-05
4.26528e-05
2.93365e-05
4.91284e-05
2.85252e-05
5.25818e-05
1.36202e-06
2.48562e-05
-1.30984e-08
1.83064e-06
-3.60587e-09
2.00824e-07
-6.16549e-12
1.48254e-08
-1.62815e-09
3.8269e-09
-1.19534e-09
1.80568e-09
-6.39284e-10
9.73606e-10
-2.67897e-10
4.83074e-10
-9.14646e-11
2.04202e-10
-2.56744e-11
6.88122e-11
-6.15421e-12
1.94476e-11
-1.30573e-12
4.79867e-12
-2.44554e-13
1.14431e-12
-4.21108e-14
2.76541e-13
-6.62606e-15
9.82072e-14
-1.02622e-15
3.36156e-14
-1.48818e-16
8.64107e-15
-1.92198e-17
1.91072e-15
-2.09642e-18
3.82274e-16
-1.83229e-19
6.91566e-17
-1.21044e-20
1.12586e-17
-6.12907e-22
1.63521e-18
-4.42175e-23
2.09313e-19
-7.04293e-24
2.32047e-20
-9.50642e-25
2.17134e-21
-7.86571e-26
1.64775e-22
-3.5507e-27
9.48122e-24
-3.34008e-29
3.62122e-25
5.93877e-27
4.48676e-11
-8.7143e-11
1.86398e-10
-2.43291e-10
7.43823e-10
-1.05906e-09
-1.52617e-08
-5.51819e-09
4.18968e-09
-2.78808e-09
4.83681e-08
3.30927e-08
1.98309e-06
1.26776e-07
1.44522e-05
1.22882e-06
2.10822e-05
1.84267e-05
2.17088e-05
3.80688e-05
1.42291e-05
3.06576e-05
-2.55341e-07
1.03046e-05
-1.06649e-07
1.28862e-06
-1.32101e-09
9.93508e-08
-1.48446e-09
8.84961e-09
-9.78491e-10
1.85929e-09
-5.40747e-10
7.73667e-10
-2.61204e-10
3.82226e-10
-1.03684e-10
1.75942e-10
-3.43587e-11
7.01009e-11
-9.59373e-12
2.31318e-11
-2.32712e-12
6.45616e-12
-4.91295e-13
1.57867e-12
-9.42343e-14
3.89629e-13
-1.72999e-14
1.06105e-13
-3.22533e-15
4.19907e-14
-5.95342e-16
1.20634e-14
-1.03023e-16
2.89248e-15
-1.65217e-17
6.24432e-16
-2.42063e-18
1.23188e-16
-3.22084e-19
2.21054e-17
-3.87932e-20
3.58336e-18
-4.2001e-21
5.20053e-19
-4.02383e-22
6.67031e-20
-3.30645e-23
7.42979e-21
-2.20636e-24
7.00331e-22
-1.08966e-25
5.3663e-23
-3.36711e-27
3.12592e-24
-2.28402e-29
1.21171e-25
1.98189e-27
2.77597e-11
-7.88415e-11
1.57616e-10
-2.60618e-10
3.13337e-10
-9.51332e-10
-2.2332e-09
-3.13687e-09
-6.94178e-09
-1.38011e-08
4.62578e-09
5.65612e-09
1.42188e-07
3.20528e-08
1.39806e-06
4.2315e-09
5.68698e-06
1.0627e-07
5.9166e-06
8.24214e-07
2.20149e-06
4.97208e-07
1.38258e-07
6.40157e-07
-1.5527e-08
7.24739e-07
-4.53667e-09
6.4457e-08
-1.06538e-09
4.01985e-09
-4.87136e-10
8.09021e-10
-2.38759e-10
3.21243e-10
-1.05186e-10
1.44564e-10
-3.93325e-11
6.19365e-11
-1.25393e-11
2.32772e-11
-3.43915e-12
7.5061e-12
-8.23131e-13
2.05388e-12
-1.69103e-13
5.09766e-13
-3.29681e-14
1.29665e-13
-6.67286e-15
4.52898e-14
-1.3986e-15
1.5238e-14
-2.75441e-16
3.94729e-15
-5.03829e-17
9.16596e-16
-8.51755e-18
1.95247e-16
-1.31575e-18
3.82672e-17
-1.84191e-19
6.84867e-18
-2.31619e-20
1.11047e-18
-2.58054e-21
1.61635e-19
-2.49533e-22
2.08417e-20
-2.02736e-23
2.33895e-21
-1.31356e-24
2.22578e-22
-6.21753e-26
1.72482e-23
-1.82676e-27
1.01772e-24
-1.1178e-29
4.00349e-26
6.47556e-28
-1.66852e-11
-5.73063e-11
-4.0376e-11
-1.99642e-10
-1.28593e-10
-6.6041e-10
-5.99783e-11
-2.05258e-09
-7.39769e-09
-7.55313e-09
-8.2191e-09
-1.31835e-08
1.72648e-10
4.27093e-09
-5.43182e-08
-1.44562e-09
1.20697e-07
-2.58356e-07
1.65966e-07
5.81848e-08
-9.02374e-08
2.45159e-07
-1.67408e-07
3.69002e-07
-3.46175e-08
1.52318e-07
-2.51505e-09
2.02079e-08
-5.76417e-10
1.67565e-09
-2.34025e-10
3.39923e-10
-1.01403e-10
1.22312e-10
-4.08633e-11
5.08486e-11
-1.43902e-11
2.05382e-11
-4.38458e-12
7.36198e-12
-1.16268e-12
2.29716e-12
-2.67352e-13
6.0705e-13
-5.34526e-14
1.59629e-13
-1.12253e-14
4.71883e-14
-2.55472e-15
1.74098e-14
-5.55825e-16
4.85808e-15
-1.12217e-16
1.21025e-15
-2.09972e-17
2.77127e-16
-3.62467e-18
5.86855e-17
-5.71533e-19
1.14746e-17
-8.15734e-20
2.05414e-18
-1.04304e-20
3.33944e-19
-1.17677e-21
4.88433e-20
-1.14638e-22
6.34295e-21
-9.3321e-24
7.18461e-22
-6.02711e-25
6.91439e-23
-2.83161e-26
5.42865e-24
-8.23026e-28
3.25044e-25
-4.72054e-30
1.30049e-26
2.07246e-28
-4.26076e-11
-2.42705e-11
-1.50988e-10
-8.79734e-11
-5.16204e-10
-2.94736e-10
-1.6391e-09
-9.3504e-10
-5.89056e-09
-3.05726e-09
-2.05011e-08
-7.92514e-09
-4.88089e-08
-1.65258e-09
-1.11429e-07
-5.86803e-10
-3.90363e-07
-3.43836e-08
-4.01983e-07
-1.15283e-08
-3.13031e-07
5.91156e-08
-1.19625e-07
1.11129e-07
-1.56927e-08
4.44045e-08
-1.34315e-09
5.73034e-09
-2.93026e-10
5.29562e-10
-1.01395e-10
1.14014e-10
-3.95947e-11
3.98866e-11
-1.47919e-11
1.60505e-11
-4.92843e-12
6.25123e-12
-1.43108e-12
2.15581e-12
-3.60378e-13
6.40408e-13
-7.69019e-14
1.7897e-13
-1.66451e-14
4.80293e-14
-3.89941e-15
1.7617e-14
-9.25156e-16
5.35575e-15
-2.03764e-16
1.43365e-15
-4.16168e-17
3.52146e-16
-7.87426e-18
8.02202e-17
-1.37449e-18
1.69674e-17
-2.19253e-19
3.32075e-18
-3.16601e-20
5.96306e-19
-4.09335e-21
9.74448e-20
-4.66415e-22
1.43558e-20
-4.58173e-23
1.8814e-21
-3.75434e-24
2.15452e-22
-2.43655e-25
2.09986e-23
-1.14875e-26
1.67221e-24
-3.34709e-28
1.01726e-25
-1.819e-30
4.1471e-27
6.48349e-29
-2.62133e-11
-6.0566e-12
-9.79401e-11
-2.23198e-11
-3.38307e-10
-7.70556e-11
-1.10049e-09
-2.52148e-10
-3.12666e-09
-6.92538e-10
-1.17556e-08
-1.81967e-09
-2.75892e-08
-6.94753e-10
-6.24947e-08
-1.18719e-09
-1.21067e-07
-5.38029e-09
-1.41869e-07
-5.90327e-09
-1.12496e-07
1.1556e-08
-3.79237e-08
2.39571e-08
-4.79396e-09
1.00337e-08
-4.66267e-10
1.36014e-09
-1.07519e-10
1.40842e-10
-3.62378e-11
3.2265e-11
-1.34925e-11
1.12972e-11
-4.81012e-12
4.50985e-12
-1.52662e-12
1.70788e-12
-4.18997e-13
5.71939e-13
-9.87255e-14
1.71084e-13
-2.17623e-14
4.9295e-14
-5.29624e-15
1.62675e-14
-1.31252e-15
5.47444e-15
-3.13247e-16
1.51036e-15
-6.93937e-17
3.99456e-16
-1.42689e-17
9.77377e-17
-2.72029e-18
2.22693e-17
-4.78771e-19
4.72151e-18
-7.70701e-20
9.27722e-19
-1.12375e-20
1.67546e-19
-1.46749e-21
2.75847e-20
-1.68886e-22
4.10145e-21
-1.67521e-23
5.43401e-22
-1.3856e-24
6.30104e-23
-9.07371e-26
6.22769e-24
-4.31584e-27
5.03643e-25
-1.26828e-28
3.11682e-26
-6.54461e-31
1.29674e-27
1.98007e-29
-7.09315e-12
-9.59937e-13
-2.6956e-11
-3.61441e-12
-9.59027e-11
-1.22809e-11
-3.22063e-10
-4.03113e-11
-8.0146e-10
-1.02777e-10
-3.033e-09
-2.2773e-10
-7.79722e-09
-1.02198e-12
-1.56583e-08
-3.98596e-10
-2.52649e-08
-1.41969e-09
-3.2794e-08
-1.30474e-09
-2.63908e-08
1.81341e-09
-9.04479e-09
4.17056e-09
-1.19716e-09
1.8588e-09
-1.33414e-10
2.80834e-10
-3.22725e-11
3.26605e-11
-1.0899e-11
7.91459e-12
-3.9822e-12
2.80453e-12
-1.37104e-12
1.11856e-12
-4.12058e-13
4.14697e-13
-1.07517e-13
1.41821e-13
-2.53997e-14
4.40926e-14
-6.45887e-15
1.44849e-14
-1.66238e-15
5.10448e-15
-4.13669e-16
1.45172e-15
-9.90897e-17
4.00783e-16
-2.20593e-17
1.05797e-16
-4.5641e-18
2.59382e-17
-8.76502e-19
5.93434e-18
-1.55519e-19
1.26515e-18
-2.52615e-20
2.50251e-19
-3.71963e-21
4.55623e-20
-4.90827e-22
7.57345e-21
-5.71043e-23
1.13856e-21
-5.72817e-24
1.52746e-22
-4.7926e-25
1.79597e-23
-3.17543e-26
1.80234e-24
-1.52866e-27
1.48196e-25
-4.54587e-29
9.34145e-27
-2.22466e-31
3.97152e-28
5.89687e-30
-1.15912e-12
-1.03296e-13
-4.51056e-12
-4.03474e-13
-1.59334e-11
-1.38573e-12
-5.3743e-11
-4.68989e-12
-1.22323e-10
-1.12881e-11
-5.48311e-10
-1.93449e-11
-1.26451e-09
-9.49949e-12
-2.47266e-09
-7.95151e-11
-4.28035e-09
-2.42799e-10
-5.80261e-09
-2.18349e-10
-4.80178e-09
2.54918e-10
-1.73888e-09
6.17241e-10
-2.56976e-10
2.98502e-10
-3.26746e-11
5.06911e-11
-8.27098e-12
6.63383e-12
-2.7994e-12
1.69259e-12
-1.00989e-12
6.09042e-13
-3.34892e-13
2.44524e-13
-9.66172e-14
9.71276e-14
-2.56888e-14
3.40126e-14
-6.9195e-15
1.16635e-14
-1.87333e-15
4.15064e-15
-4.85623e-16
1.26736e-15
-1.2182e-16
3.62776e-16
-2.9338e-17
1.008e-16
-6.57254e-18
2.67204e-17
-1.37015e-18
6.59173e-18
-2.65359e-19
1.51925e-18
-4.75144e-20
3.26582e-19
-7.795e-21
6.51913e-20
-1.16017e-21
1.19915e-20
-1.54858e-22
2.01625e-21
-1.82366e-23
3.06997e-22
-1.85277e-24
4.17655e-23
-1.57086e-25
4.98602e-24
-1.0552e-26
5.08649e-25
-5.15272e-28
4.25689e-26
-1.55378e-29
2.73621e-27
-7.19398e-32
1.19e-28
1.71088e-30
-1.23345e-13
-1.02705e-14
-4.99639e-13
-3.59867e-14
-1.81518e-12
-1.24278e-13
-6.26802e-12
-4.30931e-13
-1.56095e-11
-9.39863e-13
-6.06453e-11
-9.50964e-13
-1.39867e-10
-2.22216e-12
-3.15501e-10
-1.15487e-11
-6.23531e-10
-3.54868e-11
-8.86034e-10
-3.10593e-11
-7.50977e-10
3.25583e-11
-2.85962e-10
8.19076e-11
-4.76673e-11
4.3382e-11
-6.91172e-12
8.17628e-12
-1.81947e-12
1.17386e-12
-6.13408e-13
3.0825e-13
-2.19294e-13
1.1825e-13
-7.1581e-14
5.34643e-14
-2.20237e-14
2.15399e-14
-6.45577e-15
8.23067e-15
-1.85629e-15
3.02749e-15
-5.0559e-16
9.88234e-16
-1.32398e-16
2.95499e-16
-3.35806e-17
8.59176e-17
-8.15152e-18
2.41209e-17
-1.84212e-18
6.44858e-18
-3.87696e-19
1.60603e-18
-7.58515e-20
3.73938e-19
-1.37269e-20
8.12503e-20
-2.2776e-21
1.64039e-20
-3.43098e-22
3.05449e-21
-4.6386e-23
5.20417e-22
-5.53693e-24
8.03778e-23
-5.70573e-25
1.1104e-23
-4.90976e-26
1.34752e-24
-3.34913e-27
1.3989e-25
-1.66169e-28
1.19277e-26
-5.08814e-30
7.82582e-28
-2.22317e-32
3.48433e-29
4.83201e-31
-1.58416e-14
-1.57669e-15
-4.5553e-14
-4.0695e-15
-1.60464e-13
-1.0943e-14
-5.27392e-13
-2.97787e-14
-1.78901e-12
-5.73803e-14
-5.19239e-12
-2.58712e-15
-1.30749e-11
-2.9157e-13
-3.29909e-11
-1.37554e-12
-7.96539e-11
-4.27586e-12
-1.19402e-10
-3.7768e-12
-1.03987e-10
3.95014e-12
-4.20291e-11
9.9186e-12
-7.78024e-12
5.76522e-12
-1.25971e-12
1.13473e-12
-3.37288e-13
1.72432e-13
-1.166e-13
4.84521e-14
-4.33612e-14
2.3296e-14
-1.55246e-14
1.10944e-14
-5.1321e-15
4.88813e-15
-1.59421e-15
1.93347e-15
-4.60677e-16
6.75e-16
-1.2694e-16
2.13624e-16
-3.37827e-17
6.54055e-17
-8.68703e-18
1.93394e-17
-2.13176e-18
5.50607e-18
-4.87195e-19
1.4895e-18
-1.03741e-19
3.75562e-19
-2.0542e-20
8.85539e-20
-3.7636e-21
1.94918e-20
-6.32551e-22
3.98808e-21
-9.65843e-23
7.53067e-22
-1.32447e-23
1.30218e-22
-1.60471e-24
2.04292e-23
-1.67957e-25
2.86935e-24
-1.46885e-26
3.54346e-25
-1.01885e-27
3.7469e-26
-5.14304e-29
3.25778e-27
-1.60092e-30
2.18361e-28
-6.5877e-33
9.9582e-30
1.32756e-31
-4.35282e-15
-1.77076e-16
-1.27533e-14
-4.9866e-16
-3.12098e-14
-1.16381e-15
-7.02153e-14
-2.11931e-15
-1.97288e-13
-2.42455e-15
-4.4318e-13
-1.11805e-15
-1.18658e-12
-2.22368e-14
-3.78169e-12
-1.34002e-13
-9.74184e-12
-4.06739e-13
-1.51674e-11
-3.94559e-13
-1.31796e-11
4.66036e-13
-5.61321e-12
1.12353e-12
-1.10572e-12
6.81596e-13
-1.89673e-13
1.35097e-13
-5.28787e-14
2.0152e-14
-2.08189e-14
8.12508e-15
-8.81367e-15
4.78134e-15
-3.3685e-15
2.37202e-15
-1.15947e-15
1.04272e-15
-3.61614e-16
3.9501e-16
-1.06027e-16
1.3485e-16
-2.98297e-17
4.39412e-17
-8.09255e-18
1.37645e-17
-2.11533e-18
4.14982e-18
-5.26214e-19
1.20145e-18
-1.21916e-19
3.29776e-19
-2.63205e-20
8.43827e-20
-5.28467e-21
2.01927e-20
-9.81916e-22
4.51131e-21
-1.67433e-22
9.37073e-22
-2.59515e-23
1.79726e-22
-3.61468e-24
3.15852e-23
-4.45109e-25
5.03968e-24
-4.73784e-26
7.20437e-25
-4.21608e-27
9.0623e-26
-2.97716e-28
9.76877e-27
-1.53068e-29
8.6674e-28
-4.84815e-31
5.93915e-29
-1.87597e-33
2.77509e-30
3.54616e-32
-5.52797e-16
-1.67671e-17
-1.90721e-15
-4.90336e-17
-5.62324e-15
-1.16431e-16
-1.3615e-14
-1.93195e-16
-2.85721e-14
-9.32913e-17
-5.47041e-14
4.45082e-16
-1.39272e-13
1.03795e-15
-4.44082e-13
-4.74255e-15
-1.13787e-12
-3.11047e-14
-1.75355e-12
-3.10345e-14
-1.52329e-12
5.45636e-14
-6.69036e-13
1.16663e-13
-1.31396e-13
7.27593e-14
-2.32281e-14
1.40259e-14
-8.10809e-15
2.51683e-15
-3.98234e-15
1.59266e-15
-1.77514e-15
9.30428e-16
-6.90006e-16
4.55744e-16
-2.38972e-16
1.91948e-16
-7.59973e-17
7.27751e-17
-2.2854e-17
2.56829e-17
-6.58587e-18