/*--------------------------------*- C++ -*----------------------------------*\
| =========                 |                                                 |
| \\      /  F ield         | OpenFOAM: The Open Source CFD Toolbox           |
|  \\    /   O peration     | Version:  5.0                                   |
|   \\  /    A nd           | Web:      www.OpenFOAM.org                      |
|    \\/     M anipulation  |                                                 |
\*---------------------------------------------------------------------------*/
FoamFile
{
    version     2.0;
    format      ascii;
    class       volScalarField;
    location    "0.4";
    object      alpha.water;
}
// * * * * * * * * * * * * * * * * * * * * * * * * * * * * * * * * * * * * * //

dimensions      [0 0 0 0 0 0 0];

internalField   nonuniform List<scalar> 
1935
(
1.34254e-09
4.57582e-10
4.83309e-10
5.2558e-10
6.53363e-10
1.36045e-09
2.07373e-09
1.38589e-09
2.09202e-09
2.34925e-09
2.18305e-09
1.88295e-09
1.79198e-09
1.41034e-09
8.82173e-10
5.99845e-10
3.83222e-10
1.78287e-10
5.46263e-11
1.52102e-11
5.83215e-12
1.13643e-12
1.45816e-13
1.63107e-14
1.58181e-15
1.35675e-16
9.85391e-18
6.01447e-19
3.12902e-20
1.39861e-21
5.38388e-23
1.78957e-24
5.15889e-26
1.28462e-27
2.7193e-29
4.79623e-31
6.89111e-33
7.89702e-35
6.99317e-37
4.50375e-39
1.85144e-41
3.82457e-44
-6.17685e-49
7.10825e-09
2.12095e-09
1.36237e-09
1.83958e-09
1.37971e-08
1.11102e-08
1.83966e-09
5.26196e-07
1.82779e-08
2.57735e-08
9.6117e-09
1.0036e-08
1.98431e-08
2.57605e-08
1.26397e-08
1.00815e-08
1.60864e-08
2.52378e-08
1.17436e-08
1.01991e-08
1.87187e-08
1.72524e-08
1.36384e-08
1.12635e-08
2.38259e-08
8.04537e-08
1.63543e-08
1.90035e-08
4.44984e-08
1.35131e-07
2.34159e-08
3.18476e-08
3.77182e-08
1.37685e-07
3.84075e-08
4.55545e-08
7.16434e-09
1.41814e-07
2.53837e-07
5.09788e-08
2.3973e-09
8.2875e-08
3.4362e-07
8.70324e-08
2.18191e-09
3.1874e-08
3.43157e-07
5.56066e-07
2.42919e-09
4.71652e-09
1.33092e-07
9.19661e-07
3.94518e-09
9.44327e-09
2.744e-08
3.78879e-07
2.77037e-09
1.11143e-08
4.08159e-08
1.48737e-07
2.21559e-09
8.56582e-09
3.43115e-08
1.25596e-07
1.42681e-09
5.23448e-09
2.07927e-08
8.14843e-08
6.87343e-10
2.3554e-09
9.37429e-09
3.75736e-08
2.07094e-10
6.54128e-10
2.43235e-09
9.37579e-09
4.26858e-11
1.35079e-10
3.68935e-10
1.3659e-09
1.44847e-11
3.28896e-11
8.41557e-11
1.82797e-10
5.44001e-12
1.69734e-11
3.24575e-11
5.8045e-11
6.9675e-13
3.18714e-12
1.22927e-11
3.81632e-11
8.05218e-14
3.78426e-13
1.49058e-12
5.52071e-12
8.06038e-15
3.94058e-14
1.61137e-13
6.19281e-13
7.16058e-16
3.65311e-15
1.55918e-14
6.22867e-14
5.4017e-17
2.88456e-16
1.28838e-15
5.3585e-15
3.43414e-18
1.92451e-17
9.02026e-17
3.91257e-16
1.86928e-19
1.10501e-18
5.46045e-18
2.47834e-17
8.78856e-21
5.52052e-20
2.89469e-19
1.38063e-18
3.57879e-22
2.40726e-21
1.34881e-20
6.79567e-20
1.26624e-23
9.19405e-23
5.54414e-22
2.96656e-21
3.91346e-25
3.09615e-24
2.02574e-23
1.15584e-22
1.05429e-26
9.18229e-26
6.58221e-25
4.01602e-24
2.45506e-28
2.37916e-27
1.88803e-26
1.23808e-25
4.90292e-30
5.35436e-29
4.76019e-28
3.37894e-27
8.29985e-32
1.03817e-30
1.04859e-29
8.12446e-29
1.16113e-33
1.69847e-32
1.98166e-31
1.68267e-30
1.30189e-35
2.29169e-34
3.15402e-33
2.93059e-32
1.12118e-37
2.48492e-36
4.15488e-35
4.16138e-34
6.76993e-40
2.06089e-38
4.3752e-37
4.65366e-36
2.22714e-42
1.25501e-40
3.50486e-39
3.24886e-38
-1.08293e-48
2.84519e-43
1.21167e-41
3.04171e-41
1.9455e-06
2.30315e-06
2.29441e-06
1.31732e-06
1.74791e-08
5.70852e-09
7.51436e-09
2.80802e-08
1.64811e-07
8.43823e-07
6.52188e-06
2.91265e-05
2.98677e-05
0.143992
0.755769
0.972113
0.979372
0.981018
0.967337
0.695907
0.118189
0.00891613
0.00237857
0.000639849
0.000148004
3.14043e-05
6.11166e-06
1.09256e-06
1.79351e-07
2.71033e-08
3.86122e-09
5.73244e-10
9.13487e-11
2.89961e-11
4.07191e-12
2.97289e-13
1.7735e-14
7.91551e-16
2.33007e-17
3.2723e-19
1.09461e-06
8.93776e-07
9.33027e-07
6.19112e-07
5.96654e-08
3.80856e-08
5.14689e-08
1.81894e-07
2.22287e-06
1.29575e-05
9.06669e-05
0.000933387
0.0138496
0.308016
0.892221
0.965732
0.973372
0.978347
0.922464
0.478607
0.0388692
0.0058829
0.00168436
0.000426138
9.68534e-05
2.02295e-05
3.88907e-06
6.89115e-07
1.12622e-07
1.70741e-08
2.48024e-09
3.88437e-10
9.77222e-11
2.47237e-11
2.78294e-12
2.15167e-13
1.33622e-14
6.19021e-16
1.8974e-17
2.82799e-19
1.22939e-05
1.89499e-05
7.80996e-06
5.57597e-07
1.11859e-07
7.14778e-08
1.8116e-07
5.00373e-06
2.03036e-05
0.000126721
0.000800261
0.00478136
0.091039
0.625303
0.954233
0.963232
0.96586
0.960118
0.779267
0.209033
0.0128484
0.00378585
0.00106776
0.000257238
5.71944e-05
1.18013e-05
2.25723e-06
3.98601e-07
6.50768e-08
9.90707e-09
1.50676e-09
2.63887e-10
9.55833e-11
1.79898e-11
1.80574e-12
1.44484e-13
9.23449e-15
4.41016e-16
1.3987e-17
2.1621e-19
8.0897e-06
0.000100308
6.19764e-05
2.80477e-06
3.25494e-07
1.15838e-07
1.96575e-07
2.28063e-05
0.000132837
0.00100665
0.00398049
0.0558054
0.42911
0.914729
0.95012
0.957719
0.963228
0.893355
0.451292
0.0444659
0.00743377
0.0022337
0.000591099
0.000147496
3.29977e-05
6.47855e-06
1.18159e-06
2.08467e-07
3.43842e-08
5.33981e-09
8.68984e-10
2.53344e-10
7.54908e-11
1.09306e-11
1.09907e-12
9.02814e-14
5.90483e-15
2.89075e-16
9.41901e-18
1.49573e-19
1.42211e-05
0.000121764
0.00011543
2.6041e-05
9.54464e-07
3.75378e-07
5.33395e-07
2.02208e-05
0.000911625
0.0123603
0.106269
0.485229
0.894465
0.940392
0.946523
0.949871
0.927376
0.647524
0.11925
0.0118732
0.00409349
0.00118445
0.000334749
8.76575e-05
1.92686e-05
3.6372e-06
6.3741e-07
1.07355e-07
1.71425e-08
2.76061e-09
6.51298e-10
2.28319e-10
4.76167e-11
6.1533e-12
6.27323e-13
5.25578e-14
3.50658e-15
1.75389e-16
5.84718e-18
9.47885e-20
2.99183e-05
0.000157363
9.95186e-05
1.65906e-05
3.59942e-06
4.92931e-06
5.83411e-06
8.22714e-06
0.00476361
0.17133
0.659236
0.912234
0.93007
0.935715
0.939538
0.927116
0.72638
0.203818
0.0181896
0.00619715
0.00199744
0.000614846
0.000192564
4.9301e-05
1.04094e-05
1.96407e-06
3.44978e-07
5.6936e-08
9.17624e-09
1.75059e-09
5.37507e-10
1.52734e-10
2.60805e-11
3.26228e-12
3.36437e-13
2.86161e-14
1.94186e-15
9.89485e-17
3.36454e-18
5.54539e-20
9.82272e-05
0.000186614
5.64168e-05
1.70763e-05
1.36998e-05
3.93417e-05
0.000147507
1.47149e-05
0.000128359
0.548116
0.90634
0.922603
0.925722
0.93035
0.925521
0.746147
0.248256
0.0231378
0.00786977
0.00278979
0.000889852
0.000313799
9.67129e-05
2.37832e-05
4.98588e-06
9.48046e-07
1.67975e-07
2.84869e-08
5.07956e-09
1.22658e-09
3.79779e-10
8.50114e-11
1.3137e-11
1.63056e-12
1.69705e-13
1.46149e-14
1.00618e-15
5.20974e-17
1.80151e-18
3.00673e-20
0.000115306
0.00022105
4.97811e-05
2.43725e-05
6.24649e-05
0.000242082
0.00195017
0.0389258
0.257746
0.555467
0.812655
0.912968
0.922707
0.920077
0.755458
0.276262
0.0241107
0.00844445
0.00334461
0.00111793
0.000362746
0.000129004
4.06097e-05
1.01203e-05
2.15448e-06
4.15891e-07
7.54721e-08
1.34757e-08
2.79621e-09
7.97027e-10
2.18599e-10
4.19696e-11
6.20018e-12
7.68756e-13
8.0609e-14
7.01515e-15
4.89024e-16
2.5675e-17
9.00747e-19
1.51716e-20
6.86828e-05
0.000344231
8.92321e-05
2.7711e-05
0.000195443
0.00479709
0.0646229
0.4476
0.767898
0.646303
0.344249
0.428368
0.539101
0.489381
0.239148
0.0315927
0.00725367
0.00314882
0.00124321
0.000421444
0.000135013
3.94575e-05
1.38419e-05
3.79357e-06
8.35247e-07
1.66025e-07
3.13122e-08
6.1764e-09
1.5497e-09
4.60722e-10
1.08458e-10
1.90089e-11
2.75691e-12
3.42134e-13
3.60977e-14
3.16971e-15
2.23376e-16
1.1872e-17
4.21728e-19
7.14596e-21
6.03049e-05
0.000344231
0.000168134
3.31818e-05
4.25236e-05
0.0822412
0.485556
0.772884
0.779351
0.785701
0.311762
0.0787886
0.045204
0.026778
0.00850449
0.00516286
0.00260863
0.00102464
0.000415337
0.000151045
4.75427e-05
1.26972e-05
3.4457e-06
1.21199e-06
2.93256e-07
6.07161e-08
1.23123e-08
2.86269e-09
8.39612e-10
2.3169e-10
4.8005e-11
8.04246e-12
1.15707e-12
1.43795e-13
1.52525e-14
1.34984e-15
9.60502e-17
5.16069e-18
1.8532e-19
3.14912e-21
1.61849e-07
0.000343066
0.00037149
4.8324e-05
6.11918e-05
0.199256
0.759993
0.778768
0.783558
0.785134
0.458796
0.0387622
0.0155268
0.00607591
0.0026627
0.00137005
0.000725891
0.00032662
0.000137295
5.02153e-05
1.55918e-05
4.45397e-06
1.02208e-06
2.65913e-07
9.04108e-08
2.07932e-08
4.82622e-09
1.37761e-09
4.19408e-10
1.01739e-10
1.95098e-11
3.20184e-12
4.58718e-13
5.70949e-14
6.08506e-15
5.42353e-16
3.89338e-17
2.1126e-18
7.65831e-20
1.30086e-21
4.91737e-07
0.000129023
0.000557282
9.26811e-05
6.86271e-05
0.0816826
0.725495
0.783694
0.784612
0.785774
0.762558
0.141723
0.00612811
0.00280528
0.00110451
0.000457195
0.000231948
0.000106644
4.38128e-05
1.62277e-05
5.11191e-06
1.43291e-06
3.667e-07
7.53281e-08
1.95095e-08
6.65878e-09
2.02567e-09
6.59227e-10
1.8403e-10
4.0092e-11
7.40553e-12
1.20233e-12
1.71834e-13
2.14239e-14
2.29369e-15
2.05807e-16
1.48974e-17
8.15799e-19
2.98195e-20
5.04701e-22
9.6575e-07
1.08566e-06
0.000209255
0.000528836
7.59571e-05
9.71496e-05
0.510548
0.782918
0.784884
0.785127
0.785478
0.354952
0.00606399
0.00101698
0.00047375
0.000157709
7.65826e-05
3.42979e-05
1.39386e-05
5.21811e-06
1.59585e-06
4.502e-07
1.14488e-07
2.72663e-08
5.97911e-09
2.14509e-09
8.75998e-10
2.85887e-10
7.0809e-11
1.45601e-11
2.64113e-12
4.2613e-13
6.08348e-14
7.60139e-15
8.17623e-16
7.38467e-17
5.38775e-18
2.97489e-19
1.09424e-20
1.83119e-22
1.5622e-06
1.53978e-06
4.62222e-05
0.000780729
0.000498127
0.000365483
0.0639806
0.652058
0.784243
0.784884
0.784486
0.413182
0.00635781
0.000410112
0.000163547
5.64974e-05
2.4513e-05
1.09358e-05
4.59984e-06
1.69558e-06
5.06258e-07
1.34509e-07
3.4994e-08
8.75456e-09
2.39313e-09
8.87134e-10
3.69967e-10
1.07487e-10
2.45662e-11
4.92588e-12
8.84975e-13
1.42281e-13
2.03128e-14
2.54513e-15
2.7511e-16
2.50109e-17
1.83858e-18
1.02268e-19
3.77677e-21
6.18842e-23
6.12114e-07
1.18566e-06
3.65557e-06
0.000417783
0.00168233
0.00148494
0.00167469
0.177132
0.642112
0.784243
0.738459
0.298588
0.00362144
0.000150656
6.30294e-05
1.80005e-05
7.73317e-06
3.55968e-06
1.47782e-06
5.35212e-07
1.58156e-07
4.18366e-08
1.05303e-08
2.9101e-09
9.17381e-10
4.07384e-10
1.43094e-10
3.65207e-11
7.98788e-12
1.57414e-12
2.80164e-13
4.48333e-14
6.39642e-15
8.0329e-16
8.7267e-17
7.99352e-18
5.93297e-19
3.33906e-20
1.24823e-21
2.03766e-23
4.54815e-07
1.69846e-06
4.12453e-06
6.58033e-05
0.00111509
0.00207327
0.00192416
0.00321477
0.140094
0.31744
0.237455
0.097642
0.00634758
0.000219805
1.62421e-05
5.55388e-06
2.5315e-06
1.13579e-06
4.58636e-07
1.63338e-07
4.83609e-08
1.2871e-08
3.29286e-09
1.04188e-09
3.87833e-10
1.70116e-10
4.89978e-11
1.1652e-11
2.48681e-12
4.83603e-13
8.54855e-14
1.36432e-14
1.94873e-15
2.45777e-16
2.68965e-17
2.48907e-18
1.87156e-19
1.0702e-20
4.07528e-22
6.70126e-24
3.21264e-07
1.1979e-06
3.66818e-06
1.52492e-05
0.000251359
0.00107442
0.00178129
0.00193138
0.00337978
0.00696238
0.00568918
0.0024389
0.00261984
7.58206e-05
4.48816e-06
1.64454e-06
7.82448e-07
3.45456e-07
1.36829e-07
4.80381e-08
1.45164e-08
3.92238e-09
1.12644e-09
3.87077e-10
1.73376e-10
5.93657e-11
1.5298e-11
3.52108e-12
7.42102e-13
1.43603e-13
2.53618e-14
4.05642e-15
5.82238e-16
7.40038e-17
8.18369e-18
7.67216e-19
5.85699e-20
3.40566e-21
1.32002e-22
2.16321e-24
1.45424e-07
5.38936e-07
2.05677e-06
7.44726e-06
4.45677e-05
0.000439539
0.000982616
0.00110447
0.000829034
0.00112623
0.00104806
0.000522198
2.7665e-05
2.16988e-06
1.10462e-06
4.50898e-07
2.27028e-07
9.93733e-08
3.90824e-08
1.36166e-08
4.25421e-09
1.16833e-09
4.09473e-10
1.60081e-10
6.49786e-11
1.80891e-11
4.47313e-12
1.01564e-12
2.13066e-13
4.12051e-14
7.29357e-15
1.17224e-15
1.69499e-16
2.17575e-17
2.43573e-18
2.3168e-19
1.79805e-20
1.06461e-21
4.20947e-23
6.84927e-25
3.45413e-08
1.31344e-07
4.75023e-07
1.6287e-06
1.62845e-05
9.91689e-05
0.00022964
0.000383978
0.000327026
0.000203438
0.000213449
0.000119721
8.86554e-06
7.38878e-07
3.14281e-07
1.25251e-07
6.19126e-08
2.71765e-08
1.07068e-08
3.69921e-09
1.15862e-09
4.11318e-10
1.41651e-10
6.18858e-11
1.91302e-11
5.08762e-12
1.24069e-12
2.80626e-13
5.89036e-14
1.14264e-14
2.03344e-15
3.2932e-16
4.80872e-17
6.24667e-18
7.09114e-19
6.85216e-20
5.41152e-21
3.26584e-22
1.31958e-23
2.12196e-25
4.91641e-09
1.83848e-08
6.67354e-08
2.33941e-07
1.36426e-06
1.54606e-05
4.52013e-05
7.11315e-05
6.12786e-05
3.59285e-05
3.80198e-05
2.34836e-05
2.44486e-06
2.22939e-07
7.42971e-08
3.26938e-08
1.59083e-08
7.05296e-09
2.76195e-09
9.63695e-10
3.59919e-10
1.29115e-10
5.20114e-11
1.84072e-11
5.13673e-12
1.34991e-12
3.28403e-13
7.44363e-14
1.56944e-14
3.06364e-15
5.49656e-16
8.99138e-17
1.32857e-17
1.7496e-18
2.01693e-19
1.98239e-20
1.59486e-21
9.82138e-23
4.06151e-24
6.42309e-26
5.8211e-10
2.02897e-09
7.46534e-09
2.5001e-08
1.58297e-07
2.62043e-06
6.48422e-06
8.51713e-06
6.93778e-06
5.42609e-06
6.1839e-06
4.1841e-06
5.8895e-07
6.64352e-08
1.64582e-08
7.82567e-09
3.82622e-09
1.72424e-09
6.80085e-10
2.89137e-10
1.04291e-10
4.16294e-11
1.60675e-11
4.65112e-12
1.29715e-12
3.40762e-13
8.32375e-14
1.89858e-14
4.03419e-15
7.94673e-16
1.44088e-16
2.38574e-17
3.57367e-18
4.7783e-19
5.60119e-20
5.60597e-21
4.59899e-22
2.89305e-23
1.22606e-24
1.89729e-26
1.18776e-10
2.74047e-10
7.89544e-10
2.44852e-09
3.99591e-08
2.80722e-07
5.66847e-07
7.54764e-07
7.63793e-07
7.77443e-07
9.05515e-07
6.27698e-07
1.25907e-07
1.68547e-08
3.46977e-09
1.72139e-09
8.71734e-10
4.2047e-10
2.02453e-10
7.58087e-11
3.05461e-11
1.21644e-11
3.79535e-12
1.10801e-12
3.11016e-13
8.22131e-14
2.0251e-14
4.66348e-15
1.00139e-15
1.99541e-16
3.66419e-17
6.15225e-18
9.35726e-19
1.27204e-19
1.51796e-20
1.54855e-21
1.29657e-22
8.33987e-24
3.62564e-25
5.46313e-27
7.31126e-11
1.1688e-10
2.05047e-10
4.50993e-10
6.72475e-09
2.34907e-08
3.58665e-08
4.37269e-08
6.94729e-08
1.00816e-07
1.20588e-07
8.76571e-08
2.42741e-08
3.63615e-09
6.71339e-10
3.57394e-10
2.17946e-10
1.15402e-10
4.7707e-11
2.0207e-11
8.25806e-12
2.76346e-12
8.45338e-13
2.50907e-13
7.11931e-14
1.90168e-14
4.73872e-15
1.10469e-15
2.40283e-16
4.85345e-17
9.04272e-18
1.54207e-18
2.38471e-19
3.29977e-20
4.01254e-21
4.17582e-22
3.57113e-23
2.35065e-24
1.04899e-25
1.53201e-27
2.13335e-11
6.6799e-11
1.65265e-10
3.47949e-10
8.78867e-10
1.80823e-09
1.85367e-09
3.08458e-09
6.36239e-09
1.19641e-08
1.37819e-08
1.10974e-08
4.02958e-09
5.70577e-10
1.25017e-10
8.28635e-11
5.29649e-11
2.59346e-11
1.17971e-11
4.98419e-12
1.77159e-12
5.72354e-13
1.79726e-13
5.42527e-14
1.56169e-14
4.22796e-15
1.06847e-15
2.52705e-16
5.57878e-17
1.14428e-17
2.16646e-18
3.75741e-19
5.91468e-20
8.33869e-21
1.0341e-21
1.09861e-22
9.60222e-24
6.47221e-25
2.96578e-26
4.1808e-28
2.66336e-12
9.87242e-12
3.15874e-11
8.28128e-11
1.69066e-10
2.27476e-10
2.26569e-10
3.10598e-10
6.88325e-10
1.20282e-09
1.58916e-09
1.31657e-09
5.19818e-10
8.67043e-11
2.55379e-11
2.11543e-11
1.23622e-11
5.96653e-12
2.6323e-12
9.88301e-13
3.41018e-13
1.13831e-13
3.65626e-14
1.12483e-14
3.29251e-15
9.05494e-16
2.32539e-16
5.58982e-17
1.25449e-17
2.61669e-18
5.04077e-19
8.90111e-20
1.42761e-20
2.05229e-21
2.59729e-22
2.81837e-23
2.51881e-24
1.73927e-25
8.18455e-27
1.10957e-28
2.86874e-13
1.14947e-12
4.10276e-12
1.25645e-11
3.17414e-11
6.04466e-11
7.66033e-11
7.83428e-11
9.48753e-11
1.43837e-10
1.84962e-10
1.69723e-10
6.31932e-11
1.37739e-11
6.11191e-12
4.90765e-12
2.59631e-12
1.18094e-12
4.73874e-13
1.77206e-13
6.33854e-14
2.17396e-14
7.14269e-15
2.24318e-15
6.68827e-16
1.87182e-16
4.89264e-17
1.19707e-17
2.73464e-18
5.80745e-19
1.13946e-19
2.05043e-20
3.3532e-21
4.91837e-22
6.35537e-23
7.04676e-24
6.4417e-25
4.55802e-26
2.20231e-27
2.86242e-29
2.63858e-14
1.13241e-13
4.40961e-13
1.49872e-12
4.33334e-12
1.04684e-11
2.1379e-11
3.51397e-11
3.81163e-11
3.21872e-11
2.9672e-11
2.26528e-11
8.05366e-12
2.02692e-12
1.18729e-12
8.86341e-13
4.33231e-13
1.93031e-13
7.95178e-14
3.08166e-14
1.1355e-14
3.99506e-15
1.34413e-15
4.31389e-16
1.31187e-16
3.74139e-17
9.96602e-18
2.48466e-18
5.78368e-19
1.25168e-19
2.50342e-20
4.59385e-21
7.66466e-22
1.1476e-22
1.51462e-23
1.71648e-24
1.60524e-25
1.16399e-26
5.77278e-28
7.17512e-30
2.06038e-15
9.43783e-15
3.98825e-14
1.4742e-13
4.57647e-13
1.20842e-12
2.78376e-12
5.61961e-12
8.59447e-12
8.77821e-12
5.35086e-12
2.22468e-12
8.87701e-13
2.60516e-13
2.00205e-13
1.29353e-13
6.57243e-14
3.03898e-14
1.29582e-14
5.17921e-15
1.96171e-15
7.08446e-16
2.44245e-16
8.01726e-17
2.4892e-17
7.24207e-18
1.96781e-18
5.00358e-19
1.18775e-19
2.62139e-20
5.34775e-21
1.00125e-21
1.70509e-22
2.60688e-23
3.51497e-24
4.07191e-25
3.89587e-26
2.89473e-27
1.47287e-28
1.74718e-30
1.40322e-16
6.88428e-16
3.14355e-15
1.25297e-14
4.08756e-14
1.10966e-13
2.54259e-13
5.07555e-13
8.57576e-13
1.10677e-12
7.90356e-13
2.29262e-13
9.12539e-14
3.14239e-14
2.8272e-14
1.8319e-14
9.68531e-15
4.63938e-15
2.04259e-15
8.40863e-16
3.27562e-16
1.21484e-16
4.29397e-17
1.44248e-17
4.57619e-18
1.35938e-18
3.77074e-19
9.7853e-20
2.37026e-20
5.33777e-21
1.11122e-21
2.12357e-22
3.69218e-23
5.76523e-24
7.94233e-25
9.40511e-26
9.20514e-27
7.00677e-28
3.65536e-29
4.13251e-31
8.46371e-18
4.49635e-17
2.22702e-16
9.47015e-16
3.2529e-15
9.11399e-15
2.10598e-14
4.20105e-14
7.15459e-14
9.12482e-14
7.42412e-14
2.38313e-14
9.04973e-15
3.66188e-15
3.84436e-15
2.51561e-15
1.38036e-15
6.8448e-16
3.11237e-16
1.32083e-16
5.29528e-17
2.01773e-17
7.31517e-18
2.51631e-18
8.16236e-19
2.47736e-19
7.01944e-20
1.8601e-20
4.59984e-21
1.05741e-21
2.24715e-22
4.3843e-23
7.78391e-24
1.24143e-24
1.74733e-25
2.11485e-26
2.11693e-27
1.65009e-28
8.81991e-30
9.49439e-32
4.54347e-19
2.63078e-18
1.42283e-17
6.43883e-17
2.34818e-16
6.9045e-16
1.64989e-15
3.36619e-15
5.85169e-15
7.52678e-15
6.37987e-15
2.36067e-15
8.98305e-16
4.80104e-16
4.91209e-16
3.33106e-16
1.89821e-16
9.75894e-17
4.58946e-17
2.00984e-17
8.29781e-18
3.25015e-18
1.20919e-18
4.26138e-19
1.41423e-19
4.3882e-20
1.2707e-20
3.4399e-21
8.6875e-22
2.0392e-22
4.42479e-23
8.81501e-24
1.59818e-24
2.60332e-25
3.74321e-26
4.62957e-27
4.73787e-28
3.77985e-29
2.06832e-30
2.11917e-32
2.18505e-20
1.38154e-19
8.16985e-19
3.95186e-18
1.54326e-17
4.83162e-17
1.21463e-16
2.57197e-16
4.64781e-16
6.15654e-16
5.4869e-16
2.26846e-16
8.79336e-17
6.36427e-17
6.00098e-17
4.25125e-17
2.52111e-17
1.34606e-17
6.55594e-18
2.96558e-18
1.26178e-18
5.08323e-19
1.94171e-19
7.01429e-20
2.38292e-20
7.56298e-21
2.2391e-21
6.1943e-22
1.59808e-22
3.83101e-23
8.48875e-24
1.72685e-24
3.19702e-25
5.31821e-26
7.81004e-27
9.86741e-28
1.03198e-28
8.42128e-30
4.71326e-31
4.59664e-33
9.52933e-22
6.60905e-21
4.22955e-20
2.19867e-19
9.28328e-19
3.13181e-18
8.39711e-18
1.87042e-17
3.56036e-17
4.91096e-17
4.61106e-17
2.13066e-17
8.39047e-18
7.78176e-18
7.09499e-18
5.23843e-18
3.23874e-18
1.79832e-18
9.08164e-19
4.24748e-19
1.86386e-19
7.72786e-20
3.03248e-20
1.12348e-20
3.90907e-21
1.26962e-21
3.84439e-22
1.08712e-22
2.86565e-23
7.0168e-24
1.58775e-24
3.29803e-25
6.23419e-26
1.05884e-26
1.58766e-27
2.04827e-28
2.18802e-29
1.825e-30
1.04372e-31
9.69339e-34
3.76586e-23
2.89186e-22
1.97639e-21
1.11302e-20
5.13875e-20
1.89111e-19
5.48019e-19
1.30079e-18
2.63402e-18
3.81369e-18
3.76802e-18
2.02592e-18
9.16903e-19
8.85214e-19
8.11619e-19
6.24476e-19
4.03081e-19
2.33022e-19
1.22147e-19
5.91205e-20
2.67772e-20
1.14335e-20
4.61166e-21
1.75317e-21
6.25058e-22
2.0783e-22
6.4382e-23
1.86137e-23
5.01386e-24
1.25403e-24
2.89768e-25
6.14519e-26
1.18579e-26
2.05572e-27
3.1461e-28
4.14267e-29
4.51732e-30
3.84811e-31
2.24648e-32
1.98847e-34
1.33467e-24
1.13883e-23
8.31757e-23
5.1275e-22
2.62418e-21
1.06834e-20
3.39076e-20
8.68215e-20
1.88546e-19
2.89153e-19
3.0071e-19
1.88895e-19
1.01973e-19
9.56989e-20
8.98841e-20
7.21746e-20
4.86881e-20
2.9333e-20
1.59742e-20
8.00805e-21
3.74641e-21
1.64846e-21
6.83807e-22
2.66876e-22
9.75414e-23
3.32138e-23
1.05288e-23
3.11264e-24
8.56821e-25
2.18897e-25
5.16462e-26
1.11804e-26
2.20174e-27
3.89476e-28
6.08111e-29
8.1684e-30
9.08632e-31
7.89828e-32
4.70165e-33
3.9708e-35
4.23939e-26
3.9944e-25
3.11885e-24
2.13596e-23
1.23462e-22
5.65742e-22
1.9945e-21
5.57122e-21
1.30164e-20
2.16056e-20
2.3385e-20
1.70189e-20
1.05084e-20
9.95125e-21
9.65554e-21
8.10549e-21
5.71896e-21
3.59354e-21
2.03469e-21
1.05724e-21
5.1123e-22
2.31944e-22
9.90013e-23
3.96849e-23
1.48751e-23
5.18873e-24
1.68347e-24
5.08956e-25
1.43175e-25
3.73594e-26
8.99889e-27
1.98811e-27
3.99439e-28
7.20693e-29
1.14746e-29
1.57139e-30
1.78187e-31
1.57906e-32
9.57378e-34
7.72537e-36
1.20994e-27
1.21902e-26
1.02103e-25
7.93381e-25
5.32181e-24
2.8082e-23
1.11714e-22
3.4409e-22
8.72917e-22
1.58193e-21
1.77619e-21
1.4871e-21
1.02041e-21
9.99934e-22
1.00865e-21
8.8652e-22
6.54569e-22
4.29261e-22
2.52868e-22
1.36273e-22
6.81501e-23
3.18986e-23
1.40164e-23
5.77313e-24
2.21999e-24
7.93475e-25
2.63528e-25
8.14794e-26
2.34232e-26
6.2418e-27
1.53462e-27
3.4591e-28
7.08784e-29
1.30379e-29
2.11566e-30
2.95199e-31
3.40972e-32
3.07752e-33
1.89818e-34
1.46578e-36
3.05196e-29
3.13566e-28
2.81835e-27
2.56285e-26
2.07904e-25
1.30432e-24
5.96661e-24
2.05227e-23
5.66772e-23
1.12523e-22
1.34195e-22
1.2551e-22
9.48897e-23
9.75056e-23
1.02674e-22
9.46409e-23
7.31476e-23
5.00928e-23
3.07176e-23
1.71785e-23
8.88965e-24
4.29478e-24
1.94359e-24
8.22869e-25
3.24722e-25
1.18951e-25
4.04442e-26
1.27889e-26
3.75674e-27
1.02221e-27
2.56466e-28
5.89602e-29
1.23161e-29
2.30857e-30
3.81579e-31
5.42106e-32
6.37313e-33
5.85274e-34
3.66786e-35
2.71519e-37
6.69815e-31
6.51165e-30
6.24978e-29
6.93704e-28
7.23464e-27
5.65616e-26
3.04589e-25
1.18408e-24
3.57105e-24
7.75567e-24
1.01624e-23
1.02467e-23
8.62373e-24
9.20852e-24
1.00883e-23
9.89656e-24
7.99521e-24
5.72058e-24
3.65348e-24
2.12129e-24
1.13646e-24
5.66967e-25
2.6436e-25
1.15089e-25
4.66209e-26
1.75064e-26
6.0943e-27
1.97087e-27
5.91535e-28
1.64322e-28
4.20599e-29
9.85848e-30
2.09842e-30
4.00598e-31
6.74032e-32
9.74311e-33
1.16484e-33
1.0873e-34
6.91475e-36
4.91618e-38
1.26927e-32
1.03266e-31
1.26251e-30
1.69085e-29
2.19752e-28
2.28874e-27
1.49352e-26
6.6289e-26
2.19588e-25
5.21033e-25
7.63122e-25
8.14158e-25
7.6547e-25
8.43358e-25
9.76022e-25
1.00774e-24
8.56256e-25
6.40265e-25
4.26041e-25
2.56934e-25
1.42566e-25
7.34778e-26
3.53143e-26
1.58146e-26
6.5782e-27
2.53266e-27
9.02811e-28
2.98609e-28
9.1568e-29
2.59645e-29
6.7783e-30
1.61927e-30
3.5105e-31
6.82159e-32
1.16761e-32
1.71591e-33
2.08437e-34
1.97545e-35
1.2732e-36
8.71112e-39
2.01938e-34
1.45817e-33
2.26565e-32
4.3769e-31
6.52048e-30
8.69178e-29
7.11419e-28
3.62943e-27
1.32592e-26
3.44225e-26
5.62844e-26
6.34798e-26
6.46361e-26
7.42704e-26
9.10796e-26
9.70227e-26
8.74917e-26
6.89357e-26
4.81757e-26
3.03813e-26
1.7563e-26
9.39175e-27
4.65321e-27
2.14379e-27
9.1571e-28
3.61474e-28
1.31932e-28
4.46227e-29
1.39765e-29
4.04381e-30
1.0762e-30
2.61865e-31
5.77782e-32
1.14178e-32
1.98598e-33
2.96484e-34
3.65585e-35
3.51415e-36
2.29248e-37
1.51217e-39
2.53915e-36
1.36075e-35
3.39551e-34
9.84091e-33
2.15114e-31
3.21257e-30
3.36101e-29
1.95058e-28
7.70063e-28
2.07847e-27
3.38573e-27
3.57436e-27
4.07452e-27
5.08796e-27
6.54337e-27
7.30403e-27
6.78093e-27
5.46826e-27
3.93079e-27
2.55876e-27
1.52542e-27
8.50481e-28
4.58136e-28
2.25852e-28
1.02665e-28
4.28866e-29
1.6481e-29
5.8477e-30
1.91588e-30
5.78421e-31
1.59696e-31
4.02105e-32
9.17188e-33
1.87215e-33
3.35968e-34
5.09177e-35
6.36627e-36
6.19835e-37
4.08689e-38
2.60243e-40
2.10271e-38
4.06997e-37
1.36075e-35
3.39551e-34
6.28916e-33
8.7187e-32
1.03948e-30
8.74372e-30
4.94347e-29
2.06693e-28
6.2899e-28
1.37485e-27
2.38511e-27
3.29975e-27
4.1537e-27
5.26803e-27
4.54846e-27
3.17174e-27
2.00983e-27
1.17055e-27
6.31853e-28
3.1713e-28
1.47875e-28
6.39103e-29
2.55267e-29
9.41982e-30
3.21684e-30
1.01573e-30
2.95787e-31
7.9118e-32
1.99144e-32
4.59321e-33
9.53326e-34
1.75624e-34
2.82105e-35
4.35906e-36
5.56187e-37
5.52302e-38
3.70804e-39
2.31724e-41
)
;

boundaryField
{
    leftWall
    {
        type            zeroGradient;
    }
    rightWall
    {
        type            zeroGradient;
    }
    lowerWall
    {
        type            zeroGradient;
    }
    atmosphere
    {
        type            inletOutlet;
        inletValue      uniform 0;
        value           nonuniform List<scalar> 
45
(
0
0
0
0
0
2.10271e-38
4.06997e-37
1.36075e-35
3.39551e-34
6.28916e-33
8.7187e-32
1.03948e-30
8.74372e-30
4.94347e-29
2.06693e-28
6.2899e-28
1.37485e-27
2.38511e-27
3.29975e-27
4.1537e-27
5.26803e-27
4.54846e-27
3.17174e-27
2.00983e-27
1.17055e-27
6.31853e-28
3.1713e-28
1.47875e-28
6.39103e-29
2.55267e-29
9.41982e-30
3.21684e-30
1.01573e-30
2.95787e-31
7.9118e-32
1.99144e-32
4.59321e-33
9.53326e-34
1.75624e-34
2.82105e-35
4.35906e-36
5.56187e-37
5.52302e-38
3.70804e-39
2.31724e-41
)
;
    }
    defaultFaces
    {
        type            empty;
    }
    procBoundary3to1
    {
        type            processor;
        value           nonuniform List<scalar> 
45
(
1.59296e-09
1.86039e-09
8.66165e-10
1.19168e-09
3.41866e-08
1.39451e-07
1.21263e-07
2.33255e-09
5.23324e-09
8.26484e-09
4.86769e-09
3.8668e-09
4.06043e-09
9.52344e-09
1.07713e-08
2.26091e-08
2.3212e-08
6.77794e-08
0.0759021
0.644945
0.973758
0.981253
0.982571
0.984915
0.820475
0.229064
0.0124341
0.00334035
0.000880102
0.000206705
4.46109e-05
8.80737e-06
1.59111e-06
2.62837e-07
3.97146e-08
5.56736e-09
7.91858e-10
1.17211e-10
3.066e-11
4.96005e-12
3.76842e-13
2.13382e-14
9.0773e-16
2.48591e-17
3.34002e-19
)
;
    }
    procBoundary3to2
    {
        type            processor;
        value           nonuniform List<scalar> 
43
(
3.84323e-10
4.364e-10
4.89051e-10
6.0378e-10
9.93834e-10
1.26264e-09
1.30985e-09
1.36987e-09
1.54945e-09
1.60405e-09
1.53179e-09
1.12464e-09
8.59559e-10
5.58703e-10
3.5678e-10
1.98151e-10
9.68168e-11
3.64065e-11
1.10371e-11
3.81907e-12
1.06484e-12
1.40895e-13
1.88324e-14
2.11057e-15
2.07209e-16
1.77849e-17
1.26954e-18
7.50943e-20
3.72274e-21
1.53773e-22
5.23984e-24
1.46222e-25
3.24459e-27
5.25211e-29
5.667e-31
4.16472e-33
2.52671e-35
2.32291e-37
1.08579e-39
4.20301e-42
8.00008e-45
-8.5657e-48
-2.15586e-51
)
;
    }
}


// ************************************************************************* //
