/*--------------------------------*- C++ -*----------------------------------*\
| =========                 |                                                 |
| \\      /  F ield         | OpenFOAM: The Open Source CFD Toolbox           |
|  \\    /   O peration     | Version:  5.0                                   |
|   \\  /    A nd           | Web:      www.OpenFOAM.org                      |
|    \\/     M anipulation  |                                                 |
\*---------------------------------------------------------------------------*/
FoamFile
{
    version     2.0;
    format      ascii;
    class       volScalarField;
    location    "0.4";
    object      epsilon;
}
// * * * * * * * * * * * * * * * * * * * * * * * * * * * * * * * * * * * * * //

dimensions      [0 2 -3 0 0 0 0];

internalField   nonuniform List<scalar> 
1935
(
1.89494
1.929
1.96567
2.00334
2.03786
2.063
2.07171
2.05818
2.01959
1.95716
1.87913
1.78641
1.68328
1.57466
1.46394
1.35171
1.23582
1.11314
0.982468
0.846574
0.711946
0.586453
0.476485
0.385266
0.312835
0.257088
0.215008
0.183547
0.160071
0.142491
0.12923
0.119137
0.111393
0.105431
0.100872
0.0974797
0.0951383
0.0938365
0.093658
0.0947511
0.0972142
0.100693
0.103
2.02476
2.13786
2.22711
2.28421
2.08574
2.22978
2.35034
2.43396
2.15552
2.33875
2.50009
2.61874
2.23171
2.46227
2.67476
2.83886
2.3079
2.59228
2.86614
3.08794
2.37398
2.71491
3.0582
3.35049
2.41766
2.81178
3.22746
3.60075
2.42741
2.8634
3.34557
3.80434
2.39586
2.85432
3.38558
3.92361
2.32281
2.77914
3.33063
3.92709
2.21966
2.64651
3.18107
3.80343
2.09534
2.48088
2.97257
3.56718
1.9572
2.29304
2.72402
3.26355
1.81464
2.09851
2.45753
2.91469
1.67535
1.91253
2.19954
2.55898
1.54242
1.74469
1.97327
2.24325
1.41297
1.5939
1.78533
1.99298
1.28013
1.44936
1.62276
1.79902
1.13795
1.29793
1.46283
1.62839
0.985983
1.13289
1.28815
1.44766
0.830512
0.95819
1.09666
1.24323
0.681701
0.785757
0.900718
1.02518
0.549068
0.62884
0.71779
0.81529
0.438236
0.496354
0.561212
0.632524
0.350297
0.391081
0.436331
0.48588
0.283068
0.311013
0.341695
0.374989
0.232853
0.25177
0.272265
0.29424
0.195782
0.208544
0.222172
0.236588
0.168487
0.177121
0.1862
0.195674
0.148316
0.15419
0.160273
0.166535
0.133289
0.13731
0.141411
0.145577
0.121977
0.12474
0.127515
0.130297
0.113371
0.115263
0.117133
0.118983
0.106776
0.10804
0.109271
0.110473
0.101719
0.102502
0.103255
0.103983
0.097898
0.0982757
0.0986363
0.0989857
0.0951453
0.0951381
0.095133
0.0951373
0.0934105
0.0929914
0.0925948
0.0922334
0.0927574
0.0918616
0.0909962
0.0901898
0.0933607
0.0919117
0.090454
0.0890531
0.0954663
0.0934754
0.0913057
0.0890747
0.0991215
0.0970067
0.0942855
0.0909684
0.102604
0.101662
0.0997612
0.0961667
2.30646
2.2895
2.24125
2.17382
2.10082
2.03218
1.97066
1.9124
1.85159
1.78613
1.71968
1.65508
1.58582
1.52392
1.48318
1.46275
1.46159
1.47607
1.49981
1.52558
1.54895
1.56876
1.57142
1.51366
1.37396
1.18751
0.984084
0.783071
0.605243
0.462472
0.355415
0.278486
0.224603
0.187601
0.162984
0.148054
0.142361
0.150711
0.203941
0.652621
2.47464
2.46263
2.40572
2.31906
2.22151
2.12801
2.04408
1.96577
1.88611
1.80387
1.7243
1.64858
1.57222
1.51015
1.46863
1.44676
1.44302
1.45333
1.47182
1.49332
1.51783
1.54318
1.53746
1.45152
1.29364
1.10829
0.914198
0.726438
0.562673
0.432043
0.334127
0.263553
0.213925
0.179751
0.157045
0.143455
0.138769
0.147967
0.202088
0.651729
2.68348
2.67682
2.60623
2.49104
2.35819
2.23031
2.11684
2.01358
1.91229
1.81153
1.71762
1.63013
1.55095
1.49018
1.44897
1.42665
1.42126
1.42863
1.44406
1.46557
1.49745
1.52519
1.49461
1.37487
1.20597
1.02566
0.841989
0.668043
0.518654
0.400336
0.311714
0.247662
0.202451
0.171244
0.150554
0.138379
0.134741
0.144777
0.199611
0.648409
2.93586
2.93662
2.84763
2.69366
2.51335
2.34083
2.18991
2.05595
1.92882
1.80841
1.69998
1.60471
1.52603
1.46643
1.42588
1.40375
1.39763
1.4038
1.41965
1.44786
1.48896
1.50433
1.43409
1.28494
1.11433
0.941636
0.769193
0.60949
0.474489
0.368327
0.288881
0.231313
0.190538
0.162338
0.143707
0.132976
0.130396
0.141236
0.196594
0.642885
3.22905
3.2441
3.13512
2.9328
2.6933
2.46797
2.27472
2.10521
1.94749
1.80572
1.68412
1.58321
1.5028
1.44267
1.40242
1.38075
1.37505
1.3827
1.4044
1.44617
1.48783
1.4675
1.35035
1.18596
1.02145
0.857782
0.697309
0.552099
0.431235
0.336832
0.266234
0.214949
0.178506
0.15327
0.136681
0.127388
0.125848
0.137441
0.19313
0.635378
3.55128
3.59497
3.47211
3.21576
2.90756
2.6247
2.38565
2.17323
1.98183
1.8178
1.68149
1.57148
1.48594
1.42352
1.38283
1.36193
1.35856
1.37205
1.40744
1.45966
1.47797
1.4007
1.24704
1.08425
0.92944
0.775439
0.62763
0.496949
0.389732
0.306486
0.244251
0.198926
0.166624
0.144244
0.129638
0.121743
0.121207
0.133488
0.18932
0.626143
3.87862
3.9746
3.85606
3.54777
3.16446
2.81929
2.52414
2.26332
2.03773
1.84875
1.69501
1.57318
1.48042
1.41429
1.37255
1.35328
1.35589
1.38313
1.43394
1.47427
1.4363
1.30014
1.13568
0.984557
0.839619
0.695816
0.561247
0.444877
0.350607
0.277765
0.223297
0.183524
0.155108
0.135431
0.122716
0.116159
0.116572
0.12947
0.185261
0.615447
4.17567
4.35115
4.2691
3.92533
3.46638
3.05281
2.69309
2.38296
2.11992
1.90268
1.7283
1.59277
1.49177
1.42126
1.37845
1.36272
1.37831
1.42461
1.47083
1.46017
1.34599
1.18007
1.02674
0.888779
0.752861
0.62003
0.499052
0.396497
0.314292
0.250997
0.203629
0.168951
0.144126
0.12697
0.116031
0.110733
0.112031
0.125467
0.181044
0.60355
4.39495
4.67359
4.67537
4.3346
3.80788
3.32089
2.89794
2.53487
2.23028
1.98171
1.7853
1.63561
1.52672
1.45242
1.40989
1.40085
1.43192
1.47847
1.47887
1.38324
1.21943
1.0603
0.924874
0.797206
0.670149
0.54911
0.441714
0.3522
0.281042
0.226374
0.185411
0.155348
0.133802
0.118967
0.109675
0.105548
0.10766
0.121553
0.176754
0.590705
4.4927
4.89047
5.01721
4.7498
4.17858
3.62239
3.13442
2.71619
2.36712
2.08505
1.86682
1.7068
1.59409
1.51934
1.48115
1.47875
1.49637
1.49356
1.40843
1.25097
1.08743
0.951686
0.830406
0.710495
0.592684
0.483916
0.389659
0.312174
0.250959
0.203983
0.168727
0.1428
0.124217
0.111499
0.10372
0.100671
0.103522
0.117792
0.172467
0.577149
4.44416
4.95708
5.22687
5.13333
4.57581
3.95027
3.39591
2.92039
2.52499
2.20837
1.96896
1.80604
1.70052
1.62895
1.59518
1.57954
1.53416
1.4318
1.27404
1.11045
0.971876
0.854156
0.74169
0.62953
0.521944
0.425093
0.343083
0.276434
0.224023
0.183821
0.153603
0.131351
0.115425
0.104621
0.0982208
0.0961539
0.0996671
0.114234
0.16825
0.563094
4.24141
4.86327
5.27065
5.45354
5.0204
4.30341
3.6724
3.13697
2.69516
2.34463
2.08433
1.91632
1.83953
1.79578
1.75051
1.6739
1.51685
1.31997
1.13834
0.991062
0.871929
0.764462
0.658684
0.554919
0.458203
0.373178
0.30209
0.244886
0.20014
0.165834
0.140024
0.121014
0.107453
0.0983701
0.093216
0.0920372
0.0961368
0.110925
0.164158
0.54872
3.91807
4.60798
5.14052
5.45363
5.36844
4.65363
3.94219
3.35082
2.86734
2.48682
2.20897
2.03866
1.98689
1.99966
1.92256
1.72509
1.4505
1.20586
1.02465
0.892053
0.783386
0.681892
0.582519
0.487679
0.401686
0.327591
0.266388
0.217436
0.179222
0.149945
0.127955
0.111783
0.100316
0.092769
0.0887344
0.0883514
0.0929636
0.107905
0.16032
0.534173
3.49822
4.18859
4.79182
5.18069
5.3651
4.91146
4.17565
3.54852
3.03459
2.63095
2.34032
2.17418
2.15546
2.2107
2.03786
1.69645
1.35912
1.10492
0.932865
0.80885
0.704751
0.607316
0.514313
0.428305
0.352312
0.287987
0.235413
0.193593
0.161019
0.136095
0.11738
0.103664
0.0940272
0.0878389
0.0848007
0.0851266
0.0901924
0.105284
0.157146
0.519982
3.02661
3.62538
4.24201
4.70478
4.98037
4.96826
4.40023
3.74472
3.20397
2.78127
2.47856
2.31243
2.33172
2.38322
2.04771
1.61587
1.26706
1.02385
0.860261
0.738946
0.635845
0.541405
0.454445
0.376663
0.309641
0.253851
0.208711
0.173
0.14526
0.12407
0.108191
0.0966155
0.0885856
0.0835949
0.0814369
0.0823866
0.087848
0.103077
0.15447
0.506146
2.58496
3.03543
3.56027
4.06366
4.44083
4.67914
4.55213
3.97747
3.39899
2.95639
2.63844
2.44074
2.42662
2.40555
1.97968
1.52781
1.19529
0.964868
0.803689
0.680139
0.575904
0.483817
0.40244
0.332099
0.272975
0.224567
0.185796
0.155305
0.1317
0.113718
0.100294
0.0905827
0.0839591
0.0800198
0.0786336
0.0801258
0.0859264
0.101272
0.152197
0.492635
2.23526
2.54055
2.90758
3.3261
3.73994
4.07927
4.25541
4.11471
3.63942
3.19518
2.8788
2.60744
2.44538
2.22675
1.83529
1.45309
1.14775
0.923087
0.757739
0.629013
0.523007
0.43326
0.35721
0.293647
0.241499
0.199492
0.166195
0.140176
0.120119
0.104898
0.0935987
0.0855088
0.0801124
0.0770908
0.0763741
0.0783304
0.0844135
0.0998426
0.15024
0.479428
1.98551
2.19429
2.42314
2.68067
2.96315
3.23686
3.45049
3.52382
3.4164
3.1216
2.85055
2.56999
2.28477
2.02079
1.72526
1.40118
1.11182
0.885729
0.713985
0.580763
0.474384
0.387925
0.317414
0.260257
0.2144
0.17802
0.149473
0.127311
0.110312
0.0974761
0.0880167
0.0813348
0.0770045
0.0747766
0.0746327
0.0769772
0.0832855
0.0987548
0.148523
0.466521
1.79608
1.96692
2.1288
2.28209
2.42851
2.56511
2.67692
2.7405
2.72497
2.62465
2.46474
2.28168
2.10143
1.91734
1.6543
1.34475
1.06251
0.836805
0.663597
0.530709
0.42739
0.346106
0.281816
0.230988
0.190963
0.159623
0.135248
0.116443
0.102094
0.0913238
0.0834589
0.0779963
0.074586
0.0730367
0.0733738
0.0760334
0.0825094
0.0979657
0.14698
0.453927
1.61187
1.77899
1.93199
2.06476
2.17372
2.25774
2.31722
2.35276
2.35738
2.32364
2.25418
2.15369
2.01976
1.82221
1.54652
1.24738
0.980782
0.766631
0.601878
0.47646
0.380593
0.30676
0.249568
0.205143
0.17063
0.143869
0.123199
0.107337
0.0952953
0.0863178
0.079833
0.0754212
0.0727974
0.0718199
0.0725516
0.0754569
0.0820437
0.0974273
0.145557
0.441671
1.39929
1.56432
1.72173
1.86422
1.98591
2.0827
2.15232
2.19443
2.20753
2.18648
2.12777
2.02402
1.86396
1.64004
1.37098
1.10147
0.866056
0.676536
0.530115
0.418738
0.334166
0.269692
0.220293
0.182295
0.153004
0.130423
0.113058
0.0997857
0.0897577
0.082335
0.0770405
0.073528
0.0715687
0.0710642
0.0721109
0.0751975
0.0818404
0.0970886
0.144207
0.429791
1.16137
1.31013
1.45758
1.59718
1.72265
1.82803
1.90747
1.95921
1.9767
1.95343
1.88416
1.76461
1.59402
1.38086
1.1481
0.925093
0.732013
0.575645
0.453765
0.360468
0.28945
0.235341
0.193973
0.162231
0.137814
0.119024
0.104601
0.0936031
0.0853284
0.0792496
0.0749756
0.0722253
0.0708197
0.0706988
0.0719885
0.0751982
0.0818464
0.0968973
0.142897
0.41832
0.923691
1.04428
1.16631
1.28458
1.39353
1.48736
1.56002
1.60808
1.62301
1.59847
1.53067
1.41961
1.27076
1.09647
0.914892
0.74421
0.596269
0.475127
0.379396
0.305194
0.248153
0.204382
0.170748
0.144844
0.124864
0.10946
0.0976278
0.0886147
0.0818572
0.0769322
0.0735255
0.071414
0.0704628
0.0706462
0.0721159
0.0753983
0.0820061
0.0968023
0.141598
0.40729
0.712288
0.801539
0.892488
0.98127
1.06363
1.13495
1.19196
1.22875
1.23841
1.21635
1.16073
1.07346
0.960814
0.833036
0.702429
0.580064
0.473035
0.383989
0.312331
0.255805
0.211676
0.177372
0.150733
0.130042
0.113979
0.101537
0.0919534
0.0846518
0.0791944
0.0752501
0.0725727
0.07099
0.0704063
0.0708255
0.0724222
0.0757348
0.0822632
0.096755
0.140288
0.396723
0.541213
0.602935
0.665652
0.72672
0.783263
0.832151
0.871749
0.896199
0.901031
0.883435
0.842779
0.781128
0.703324
0.616323
0.527776
0.444288
0.370178
0.307293
0.255584
0.213924
0.180768
0.154555
0.133908
0.117684
0.104973
0.0950609
0.0873954
0.0815488
0.0771914
0.0740709
0.0719997
0.0708496
0.0705587
0.0711571
0.0728375
0.0761461
0.0825635
0.0967113
0.138949
0.386634
0.411915
0.452723
0.493788
0.533394
0.569781
0.601274
0.626101
0.640564
0.641984
0.628821
0.600973
0.560012
0.509093
0.452466
0.39463
0.339455
0.289584
0.246326
0.209915
0.179898
0.155494
0.135833
0.120093
0.107559
0.0976339
0.0898343
0.0837733
0.0791437
0.0757039
0.0732669
0.0716938
0.070894
0.0708342
0.0715659
0.0732963
0.0765749
0.082857
0.0966326
0.137567
0.377033
0.318369
0.344683
0.370785
0.39557
0.417938
0.437332
0.451858
0.459542
0.45894
0.44929
0.430683
0.404154
0.371594
0.335448
0.298281
0.262327
0.229203
0.199824
0.174507
0.153149
0.135407
0.120835
0.108973
0.099396
0.0917286
0.0856543
0.0809104
0.0772822
0.0745972
0.0727204
0.0715529
0.0710347
0.0711558
0.0719851
0.0737404
0.0769704
0.0831007
0.0964875
0.136133
0.36793
0.252236
0.269041
0.285426
0.300697
0.314215
0.325611
0.333608
0.337168
0.335555
0.328429
0.315929
0.298699
0.277831
0.254703
0.230756
0.207281
0.185259
0.165317
0.147752
0.13261
0.119774
0.109037
0.100158
0.0928926
0.0870143
0.0823215
0.07864
0.0758233
0.0737512
0.0723291
0.0714895
0.0711967
0.0714592
0.0723593
0.0741215
0.0772907
0.08326
0.0962526
0.134643
0.359333
0.205833
0.216566
0.226825
0.23617
0.244256
0.250713
0.254829
0.256062
0.254055
0.248678
0.240062
0.228609
0.214949
0.19986
0.184161
0.1686
0.153778
0.140115
0.127849
0.117073
0.107773
0.0998666
0.0932339
0.0877414
0.0832554
0.0796501
0.0768126
0.0746449
0.0730652
0.0720093
0.0714336
0.0713211
0.0716945
0.0726454
0.0744026
0.0775044
0.0833097
0.0959127
0.1331
0.351254
0.173169
0.180057
0.186491
0.192169
0.196957
0.200481
0.202374
0.202364
0.200289
0.196117
0.18996
0.182072
0.172827
0.162677
0.152096
0.141529
0.131347
0.121826
0.113148
0.105404
0.0986204
0.0927732
0.0878085
0.0836556
0.0802374
0.0774767
0.0753015
0.0736473
0.0724599
0.0716974
0.0713338
0.0713658
0.0718265
0.0728142
0.0745591
0.0775912
0.0832349
0.0954615
0.13151
0.343703
0.149938
0.154385
0.158434
0.161881
0.164629
0.166422
0.167063
0.16642
0.164427
0.161096
0.156517
0.150858
0.14435
0.137267
0.129892
0.122499
0.115319
0.108539
0.102286
0.0966401
0.0916357
0.087275
0.083537
0.0803858
0.0777777
0.0756661
0.0740057
0.0727549
0.0718784
0.07135
0.0711566
0.0713048
0.0718348
0.0728491
0.0745778
0.0775414
0.0830303
0.0949008
0.129888
0.33669
0.133174
0.136051
0.13859
0.140654
0.142149
0.142921
0.142864
0.141918
0.140064
0.13733
0.13379
0.129559
0.124788
0.119648
0.11432
0.108975
0.103764
0.0988106
0.0942072
0.0900147
0.086267
0.0829754
0.0801346
0.0777274
0.0757296
0.0741134
0.0728506
0.0719147
0.0712834
0.0709416
0.0708847
0.0711264
0.0717117
0.0727456
0.0744566
0.0773552
0.0826994
0.0942389
0.128251
0.330223
0.120873
0.122719
0.124279
0.125469
0.126192
0.126358
0.125915
0.124839
0.123135
0.120835
0.117999
0.114711
0.111073
0.1072
0.103209
0.099213
0.0953136
0.0915951
0.0881231
0.0849439
0.0820863
0.0795638
0.077378
0.0755216
0.0739818
0.072742
0.0717848
0.0710937
0.0706553
0.0704614
0.0705138
0.0708307
0.0714604
0.0725089
0.0742024
0.0770412
0.0822528
0.09349
0.126616
0.32431
0.111687
0.11284
0.113754
0.11437
0.114603
0.114405
0.113749
0.112633
0.11107
0.109092
0.10675
0.104105
0.101231
0.0982062
0.0951126
0.0920269
0.0890191
0.0861486
0.0834628
0.0809966
0.0787734
0.0768061
0.0750992
0.0736506
0.0724538
0.0714992
0.0707763
0.070275
0.0699873
0.0699104
0.0700499
0.0704272
0.0710924
0.072152
0.0738291
0.0766143
0.0817068
0.0926718
0.125005
0.318953
0.10471
0.105373
0.105843
0.106063
0.105976
0.105551
0.104778
0.103664
0.102227
0.100496
0.0985111
0.0963207
0.0939787
0.0915423
0.089069
0.0866136
0.0842261
0.0819495
0.0798187
0.0778607
0.0760941
0.0745305
0.0731755
0.0720297
0.0710902
0.0703516
0.0698078
0.0694528
0.0692826
0.0692975
0.069506
0.0699314
0.0706251
0.0716931
0.0733557
0.0760938
0.0810809
0.0918044
0.123436
0.314153
0.0993311
0.099618
0.0997536
0.0996848
0.0993712
0.0987958
0.0979572
0.0968648
0.0955371
0.0939998
0.0922848
0.0904292
0.0884734
0.0864597
0.0844302
0.0824253
0.0804816
0.0786312
0.076901
0.0753117
0.0738788
0.0726125
0.0715186
0.0705991
0.0698533
0.0692786
0.0688717
0.0686293
0.06855
0.0686364
0.068899
0.0693624
0.0700787
0.0711534
0.0728034
0.0755012
0.0803967
0.0909086
0.121928
0.309907
0.0951428
0.0950999
0.0949489
0.0946391
0.094144
0.0934549
0.0925738
0.0915102
0.0902792
0.0889011
0.0873999
0.0858035
0.084142
0.0824467
0.0807491
0.0790793
0.0774652
0.0759315
0.0744991
0.073185
0.072002
0.0709593
0.0700626
0.0693148
0.0687168
0.0682676
0.0679657
0.0678101
0.0678011
0.067943
0.0682476
0.0687408
0.069475
0.0705549
0.0721946
0.0748585
0.0796757
0.0900048
0.120498
0.306208
0.0918825
0.0914991
0.0910511
0.0904998
0.0898296
0.0890358
0.0881196
0.0870859
0.0859433
0.0847039
0.0833836
0.0820014
0.0805786
0.0791381
0.0777032
0.0762967
0.0749403
0.0736535
0.0724531
0.0713532
0.070365
0.0694968
0.0687544
0.0681412
0.067659
0.0673082
0.0670889
0.0670012
0.0670472
0.0672324
0.0675699
0.0680864
0.0688347
0.069919
0.0715506
0.0741868
0.0789385
0.0891121
0.11916
0.303043
0.0894014
0.088599
0.0877872
0.0869484
0.0860772
0.0851682
0.0842146
0.0832103
0.0821526
0.0810428
0.0798869
0.0786949
0.0774802
0.0762582
0.0750461
0.073861
0.0727198
0.0716383
0.0706304
0.0697082
0.0688815
0.0681582
0.0675438
0.0670425
0.0666566
0.0663876
0.0662366
0.0662051
0.0662963
0.0665169
0.0668811
0.0674165
0.0681764
0.0692646
0.0708902
0.0735047
0.0782029
0.0882473
0.117929
0.300387
0.0876604
0.0862747
0.0849649
0.083747
0.0826238
0.0815774
0.0805804
0.0796062
0.0786345
0.0776524
0.0766543
0.0756411
0.0746186
0.073596
0.0725849
0.0715984
0.0706495
0.069751
0.0689148
0.0681512
0.0674692
0.066876
0.0663774
0.0659775
0.0656793
0.0654852
0.065397
0.0654172
0.06555
0.0658032
0.0661919
0.0667447
0.0675154
0.0686079
0.0702301
0.0728285
0.0774856
0.0874279
0.116823
0.298205
0.0867496
0.0844819
0.0824613
0.080743
0.0793136
0.0781129
0.0770718
0.0761315
0.0752478
0.0743914
0.0735449
0.0727005
0.0718573
0.0710194
0.0701942
0.0693909
0.0686199
0.0678915
0.0672156
0.0666015
0.0660569
0.0655889
0.0652027
0.0649028
0.0646924
0.0645744
0.0645512
0.0646258
0.0648033
0.0650922
0.0655082
0.0660808
0.0668643
0.0679628
0.0695835
0.07217
0.0767953
0.0866593
0.115846
0.296402
0.0868767
0.0831878
0.0802072
0.0779197
0.076189
0.0748573
0.0737909
0.0728916
0.0720918
0.0713477
0.0706328
0.069933
0.0692429
0.0685629
0.0678974
0.0672531
0.0666379
0.0660603
0.0655286
0.0650508
0.0646339
0.064284
0.0640063
0.063805
0.0636835
0.0636448
0.0636915
0.0638272
0.0640571
0.0643902
0.0648425
0.0654437
0.0662485
0.0673609
0.068988
0.0715721
0.0761832
0.0860102
0.115102
0.29499
0.0878571
0.0821875
0.0783096
0.0756499
0.0737774
0.0724087
0.0713568
0.0704997
0.0697592
0.0690861
0.0684511
0.0678381
0.0672402
0.0666566
0.06609
0.0655458
0.0650307
0.0645518
0.0641163
0.0637313
0.063403
0.0631369
0.0629378
0.0628096
0.0627555
0.0627784
0.0628813
0.0630675
0.0633424
0.063715
0.0642014
0.064831
0.0656581
0.066786
0.0684202
0.0710016
0.0755991
0.0854082
0.114536
0.293198
)
;

boundaryField
{
    leftWall
    {
        Cmu             0.09;
        kappa           0.41;
        E               9.8;
        type            epsilonWallFunction;
        value           nonuniform 0();
    }
    rightWall
    {
        Cmu             0.09;
        kappa           0.41;
        E               9.8;
        type            epsilonWallFunction;
        value           nonuniform List<scalar> 
43
(
0.652621
0.651729
0.648409
0.642885
0.635378
0.626143
0.615447
0.60355
0.590705
0.577149
0.563094
0.54872
0.534173
0.519982
0.506146
0.492635
0.479428
0.466521
0.453927
0.441671
0.429791
0.41832
0.40729
0.396723
0.386634
0.377033
0.36793
0.359333
0.351254
0.343703
0.33669
0.330223
0.32431
0.318953
0.314153
0.309907
0.306208
0.303043
0.300387
0.298205
0.296402
0.29499
0.293198
)
;
    }
    lowerWall
    {
        Cmu             0.09;
        kappa           0.41;
        E               9.8;
        type            epsilonWallFunction;
        value           nonuniform 0();
    }
    atmosphere
    {
        type            inletOutlet;
        inletValue      uniform 0.1;
        value           nonuniform List<scalar> 
45
(
0.1
0.1
0.1
0.1
0.1
0.0878571
0.0821875
0.0783096
0.0756499
0.0737774
0.0724087
0.0713568
0.0704997
0.0697592
0.0690861
0.0684511
0.0678381
0.0672402
0.0666566
0.06609
0.0655458
0.0650307
0.0645518
0.0641163
0.0637313
0.063403
0.0631369
0.0629378
0.0628096
0.0627555
0.0627784
0.0628813
0.0630675
0.0633424
0.063715
0.0642014
0.064831
0.0656581
0.066786
0.0684202
0.0710016
0.0755991
0.0854082
0.114536
0.293198
)
;
    }
    defaultFaces
    {
        type            empty;
    }
    procBoundary3to1
    {
        type            processor;
        value           nonuniform List<scalar> 
45
(
1.86245
1.97131
2.06103
2.12699
2.16446
2.17254
2.15098
2.1073
2.05189
1.99517
1.944
1.89949
1.85763
1.81301
1.76236
1.70687
1.65117
1.58885
1.53049
1.49218
1.47435
1.47677
1.49637
1.52678
1.55952
1.58691
1.60476
1.60656
1.56499
1.44472
1.26107
1.04976
0.836218
0.644925
0.490542
0.374811
0.291926
0.234111
0.194526
0.168176
0.152028
0.145402
0.152917
0.205089
0.650895
)
;
    }
    procBoundary3to2
    {
        type            processor;
        value           nonuniform List<scalar> 
43
(
1.75292
1.7663
1.77843
1.78885
1.79545
1.79503
1.78409
1.75996
1.72167
1.67015
1.60857
1.536
1.45425
1.3656
1.27151
1.17215
1.06676
0.954928
0.83802
0.719881
0.6061
0.502309
0.412521
0.338365
0.279319
0.233511
0.19854
0.172052
0.152015
0.136807
0.125192
0.116256
0.109349
0.104018
0.0999665
0.0970193
0.0951045
0.0942377
0.094501
0.095984
0.0986158
0.101735
0.103058
)
;
    }
}


// ************************************************************************* //
