/*--------------------------------*- C++ -*----------------------------------*\
| =========                 |                                                 |
| \\      /  F ield         | OpenFOAM: The Open Source CFD Toolbox           |
|  \\    /   O peration     | Version:  5.0                                   |
|   \\  /    A nd           | Web:      www.OpenFOAM.org                      |
|    \\/     M anipulation  |                                                 |
\*---------------------------------------------------------------------------*/
FoamFile
{
    version     2.0;
    format      ascii;
    class       volScalarField;
    location    "0.4";
    object      p;
}
// * * * * * * * * * * * * * * * * * * * * * * * * * * * * * * * * * * * * * //

dimensions      [1 -1 -2 0 0 0 0];

internalField   nonuniform List<scalar> 
1935
(
-5.23336
-5.32712
-5.41928
-5.50847
-5.59277
-5.67063
-5.74057
-5.80123
-5.8513
-5.88922
-5.91334
-5.92253
-5.91661
-5.89568
-5.85988
-5.81023
-5.74881
-5.67851
-5.60288
-5.52578
-5.45074
-5.38051
-5.31703
-5.26158
-5.21501
-5.17781
-5.15022
-5.13232
-5.12393
-5.12456
-5.13356
-5.15039
-5.17457
-5.20556
-5.24272
-5.28538
-5.33296
-5.38498
-5.44101
-5.50073
-5.56443
-5.63314
-5.6975
-5.34389
-5.4483
-5.54714
-5.63673
-5.44155
-5.54931
-5.64987
-5.73902
-5.53792
-5.64857
-5.75033
-5.83846
-5.63064
-5.7437
-5.84621
-5.93286
-5.71807
-5.83331
-5.93654
-6.02194
-5.79884
-5.91632
-6.0209
-6.10616
-5.87158
-5.99167
-6.09844
-6.1847
-5.93503
-6.05842
-6.16897
-6.25929
-5.98788
-6.11552
-6.2322
-6.33077
-6.02812
-6.16068
-6.28463
-6.39307
-6.05384
-6.19017
-6.32124
-6.44038
-6.06287
-6.20148
-6.33761
-6.4645
-6.05493
-6.19392
-6.333
-6.4667
-6.02993
-6.16742
-6.30851
-6.44961
-5.98719
-6.11985
-6.25951
-6.4043
-5.92728
-6.05066
-6.18317
-6.32421
-5.85254
-5.96227
-6.08137
-6.21002
-5.76679
-5.8597
-5.9604
-6.06928
-5.6748
-5.74949
-5.82942
-5.91464
-5.58175
-5.63862
-5.69803
-5.75957
-5.49228
-5.53307
-5.57404
-5.61452
-5.40973
-5.43695
-5.46251
-5.48568
-5.33614
-5.35241
-5.36582
-5.3757
-5.27257
-5.28031
-5.28453
-5.28471
-5.2196
-5.22089
-5.21845
-5.21187
-5.17741
-5.17395
-5.16684
-5.1557
-5.14596
-5.13894
-5.12852
-5.11433
-5.12508
-5.11536
-5.10251
-5.08626
-5.11449
-5.10277
-5.08815
-5.07055
-5.11356
-5.10047
-5.08473
-5.06645
-5.12148
-5.10756
-5.09134
-5.07303
-5.13761
-5.12333
-5.10719
-5.08938
-5.1615
-5.1473
-5.13165
-5.11469
-5.19264
-5.1789
-5.164
-5.14804
-5.23031
-5.21728
-5.20327
-5.18836
-5.27368
-5.26146
-5.2484
-5.23457
-5.32199
-5.3106
-5.2985
-5.28582
-5.37473
-5.36416
-5.35303
-5.34155
-5.43151
-5.42174
-5.41158
-5.40131
-5.49202
-5.48306
-5.47375
-5.46455
-5.55661
-5.54836
-5.53935
-5.53012
-5.62622
-5.61792
-5.60643
-5.59152
-5.69029
-5.68024
-5.66347
-5.63803
-5.71701
-5.78124
-5.82316
-5.84359
-5.84525
-5.8326
-5.81128
-5.78864
-5.77572
-5.78051
-5.7932
-5.80554
-6.0902
-9.79645
-25.7104
-31.8432
-26.5969
-20.4486
-13.2985
-5.18912
-1.72204
0.371309
1.08444
1.34918
1.50471
1.59764
1.65791
1.70101
1.73099
1.75142
1.76558
1.77496
1.78045
1.78413
1.78931
1.79899
1.81438
1.83492
1.8566
1.87301
-5.81606
-5.8737
-5.90784
-5.92119
-5.91612
-5.89625
-5.86667
-5.83357
-5.8068
-5.79724
-5.80292
-5.88969
-6.80384
-14.2543
-27.7461
-28.4386
-22.5339
-16.1015
-8.05758
-2.96795
-1.14208
0.20757
0.790355
1.03444
1.18812
1.28794
1.3604
1.41536
1.45606
1.48624
1.50887
1.52541
1.53717
1.54653
1.55661
1.5699
1.58735
1.6085
1.62984
1.64575
-5.91201
-5.96244
-5.98762
-5.99411
-5.98361
-5.9581
-5.92181
-5.87774
-5.83291
-5.81855
-5.87937
-6.32968
-9.81878
-21.5763
-27.976
-23.5413
-17.5813
-10.805
-3.31594
-1.9304
-0.759943
0.107076
0.507209
0.729656
0.880544
0.98688
1.06894
1.1335
1.18372
1.22262
1.25252
1.27524
1.29284
1.30788
1.32291
1.33966
1.35874
1.37988
1.40025
1.4152
-6.00251
-6.04663
-6.06539
-6.06591
-6.05026
-6.01967
-5.97801
-5.9208
-5.85467
-5.84657
-6.21385
-9.1541
-19.1912
-26.4042
-23.7671
-17.7492
-11.6835
-4.58656
-1.21226
-1.41553
-0.61994
-0.0577552
0.234394
0.438973
0.5849
0.695433
0.784538
0.856881
0.915104
0.961392
0.997676
1.02611
1.04921
1.06945
1.08883
1.1085
1.12886
1.14983
1.16915
1.18311
-6.0871
-6.12595
-6.14249
-6.14119
-6.12074
-6.08553
-6.04095
-5.98552
-5.93355
-6.11217
-9.56492
-19.4237
-24.7368
-22.4542
-16.7686
-11.2919
-4.88822
-0.262162
-1.33258
-1.14258
-0.622096
-0.277141
-0.028629
0.158586
0.300071
0.413789
0.508459
0.587068
0.651635
0.703872
0.745682
0.779405
0.807551
0.832324
0.855276
0.877234
0.898541
0.919307
0.937692
0.950772
-6.1674
-6.20006
-6.21887
-6.22051
-6.19699
-6.15217
-6.10664
-6.08101
-6.17923
-8.08856
-15.6208
-20.0641
-18.5729
-14.0063
-9.60106
-4.32376
0.181457
-0.692518
-1.46075
-1.11548
-0.776332
-0.507943
-0.28764
-0.112619
0.0269095
0.143546
0.24238
0.325608
0.394834
0.451654
0.498057
0.536375
0.568885
0.59742
0.623192
0.646872
0.668831
0.689303
0.706782
0.719007
-6.24661
-6.27829
-6.30043
-6.30785
-6.28138
-6.2159
-6.14869
-6.13781
-6.51371
-10.6937
-11.9464
-11.2432
-8.75574
-5.96557
-2.60228
0.215093
-0.571461
-1.71304
-1.49196
-1.2304
-0.97543
-0.740165
-0.538922
-0.371928
-0.232788
-0.114181
-0.0127426
0.0733913
0.145718
0.205901
0.255953
0.298026
0.334052
0.36551
0.393385
0.418285
0.440627
0.460709
0.477275
0.488644
-6.32978
-6.36933
-6.39658
-6.41666
-6.40028
-6.3049
-6.23401
-7.07144
-11.5948
-15.3096
-11.7905
-3.24852
2.22394
4.34848
3.57087
-0.442926
-2.01464
-1.82346
-1.63213
-1.40812
-1.17535
-0.962406
-0.775703
-0.615199
-0.477559
-0.358865
-0.256639
-0.169238
-0.0951439
-0.0326516
0.0201267
0.0650399
0.103667
0.137211
0.16653
0.192218
0.214715
0.234322
0.249971
0.260493
-6.41037
-6.46497
-6.51112
-6.55798
-6.58446
-6.47179
-7.09454
-9.70453
-11.7608
-17.0335
-16.8467
-9.19441
2.10697
5.39458
1.92448
-1.65109
-2.00434
-1.94688
-1.79004
-1.57949
-1.36422
-1.16792
-0.994051
-0.840856
-0.707106
-0.590508
-0.489321
-0.402096
-0.32736
-0.263522
-0.208956
-0.162158
-0.121844
-0.086986
-0.0567915
-0.0306757
-0.00821776
0.010838
0.0255751
0.03527
-6.48277
-6.56153
-6.63322
-6.71687
-6.85003
-6.63631
-5.64759
-6.24566
-11.9051
-19.189
-19.465
-13.4171
-6.91985
-3.41608
-2.36091
-2.2162
-2.21586
-2.10392
-1.93235
-1.7349
-1.53648
-1.3562
-1.19452
-1.0502
-0.922355
-0.809717
-0.711064
-0.625176
-0.550765
-0.486502
-0.431099
-0.383354
-0.342191
-0.306683
-0.27608
-0.249834
-0.227585
-0.209152
-0.195322
-0.186421
-6.54033
-6.63769
-6.73582
-6.84633
-7.00092
-4.1759
2.64838
-1.74968
-10.8513
-20.1195
-18.8726
-9.53067
-5.05178
-3.00202
-2.54145
-2.4694
-2.37437
-2.22662
-2.05372
-1.87051
-1.69248
-1.529
-1.38013
-1.24554
-1.1249
-1.01747
-0.922394
-0.838725
-0.76548
-0.701677
-0.64634
-0.598492
-0.557183
-0.521555
-0.490915
-0.46479
-0.442909
-0.42518
-0.412252
-0.404066
-6.57529
-6.67598
-6.78931
-6.86982
-6.58227
-4.41747
6.20897
3.75222
-7.98903
-19.1804
-21.3317
-9.17291
-3.99433
-2.74984
-2.58453
-2.52712
-2.43127
-2.30006
-2.14894
-1.99071
-1.83596
-1.68991
-1.55416
-1.42963
-1.31664
-1.21498
-1.12406
-1.04326
-0.971915
-0.909366
-0.854874
-0.807602
-0.766684
-0.731334
-0.700954
-0.675172
-0.653824
-0.6369
-0.624906
-0.617216
-6.59232
-6.70031
-6.79822
-6.84827
-6.79431
-6.89213
4.10899
9.84999
-2.09406
-15.9842
-22.6039
-11.6492
-3.3532
-2.63709
-2.57778
-2.54945
-2.47116
-2.36551
-2.24111
-2.10787
-1.97354
-1.84327
-1.71988
-1.60508
-1.49964
-1.40372
-1.31712
-1.23957
-1.17068
-1.11002
-1.05696
-1.01074
-0.970587
-0.935811
-0.905937
-0.880713
-0.860071
-0.844095
-0.833267
-0.82536
-6.59268
-6.72534
-6.82332
-6.92155
-7.01279
-6.6903
-3.9294
10.0906
7.31383
-7.85676
-18.7578
-12.9374
-3.4602
-2.76429
-2.6411
-2.61712
-2.54828
-2.45565
-2.34759
-2.23058
-2.11087
-1.99309
-1.88025
-1.77413
-1.67563
-1.58517
-1.50287
-1.42874
-1.36264
-1.30422
-1.2529
-1.20801
-1.16884
-1.13485
-1.10571
-1.08125
-1.06147
-1.04645
-1.03662
-1.02905
-6.55931
-6.71847
-6.84659
-6.94481
-7.04209
-7.01527
-6.71476
-0.497691
11.0441
7.22875
-4.12942
-9.85677
-3.76883
-2.99071
-2.78624
-2.73881
-2.66531
-2.57285
-2.47001
-2.36117
-2.25063
-2.14189
-2.03731
-1.93836
-1.84591
-1.76049
-1.6824
-1.6118
-1.54864
-1.49259
-1.44313
-1.39964
-1.36158
-1.32854
-1.30031
-1.2768
-1.25802
-1.24401
-1.23519
-1.22802
-6.48007
-6.65012
-6.8115
-6.92051
-7.01896
-7.16211
-7.38022
-7.49746
-3.50104
2.17201
1.14171
-4.06129
-4.14069
-3.25534
-2.93513
-2.88536
-2.80726
-2.70865
-2.60459
-2.49862
-2.39321
-2.29049
-2.19198
-2.09872
-2.01142
-1.93059
-1.85656
-1.78948
-1.72925
-1.67557
-1.62794
-1.58589
-1.54902
-1.51708
-1.48992
-1.4675
-1.4498
-1.43682
-1.42895
-1.42237
-6.35437
-6.51558
-6.68201
-6.82598
-6.94439
-7.10338
-7.44046
-7.98222
-8.62113
-7.65189
-6.10986
-5.31407
-4.25869
-3.54063
-3.20911
-3.09625
-2.97822
-2.86067
-2.7489
-2.64137
-2.5378
-2.43864
-2.34443
-2.25568
-2.17281
-2.09617
-2.02596
-1.96223
-1.9048
-1.85335
-1.8075
-1.76691
-1.73133
-1.70062
-1.67469
-1.65348
-1.63693
-1.62498
-1.61798
-1.61215
-6.19144
-6.32719
-6.4697
-6.60798
-6.72235
-6.83315
-6.97951
-7.19268
-7.39286
-7.20837
-6.39191
-5.45774
-4.51327
-3.85512
-3.52594
-3.32422
-3.15824
-3.01891
-2.89704
-2.78578
-2.68225
-2.58525
-2.49432
-2.40937
-2.33047
-2.25769
-2.19103
-2.13038
-2.07551
-2.02615
-1.98201
-1.94292
-1.90875
-1.87941
-1.85482
-1.8349
-1.81954
-1.80862
-1.8024
-1.7974
-6.00879
-6.11062
-6.21323
-6.31108
-6.39366
-6.44811
-6.46128
-6.43897
-6.39168
-6.22139
-5.80332
-5.20116
-4.57264
-4.06513
-3.73559
-3.49986
-3.31602
-3.16711
-3.03981
-2.92666
-2.82372
-2.72888
-2.64106
-2.55972
-2.48455
-2.41536
-2.35195
-2.2941
-2.24158
-2.19418
-2.15176
-2.11425
-2.0816
-2.05375
-2.03059
-2.01199
-1.9978
-1.98788
-1.98237
-1.9782
-5.82545
-5.89343
-5.95688
-6.01008
-6.0451
-6.05066
-6.01639
-5.93693
-5.8009
-5.58077
-5.2637
-4.87173
-4.4672
-4.11196
-3.83556
-3.61846
-3.44348
-3.29768
-3.17198
-3.06065
-2.9602
-2.86847
-2.78419
-2.70655
-2.63502
-2.56921
-2.5088
-2.45354
-2.40323
-2.35778
-2.31714
-2.28131
-2.25029
-2.22399
-2.20228
-2.18497
-2.17191
-2.16293
-2.15806
-2.15471
-5.6555
-5.69427
-5.7256
-5.74464
-5.74496
-5.71973
-5.66338
-5.56888
-5.42562
-5.22125
-4.96218
-4.67223
-4.38264
-4.11906
-3.89546
-3.70816
-3.54971
-3.41335
-3.29384
-3.18736
-3.09125
-3.00372
-2.9235
-2.84974
-2.7818
-2.71922
-2.66165
-2.60887
-2.56076
-2.51732
-2.47858
-2.44456
-2.41523
-2.3905
-2.3702
-2.35412
-2.3421
-2.33399
-2.32969
-2.32711
-5.50659
-5.5223
-5.52899
-5.52309
-5.50015
-5.45563
-5.38567
-5.28604
-5.15193
-4.98039
-4.77686
-4.55623
-4.33567
-4.12954
-3.9458
-3.78468
-3.64337
-3.51867
-3.40762
-3.3078
-3.21732
-3.13474
-3.05898
-2.98922
-2.92485
-2.86542
-2.81065
-2.76038
-2.71458
-2.67329
-2.63656
-2.60442
-2.57681
-2.55362
-2.53464
-2.51968
-2.5086
-2.50128
-2.49751
-2.49564
-5.38157
-5.38048
-5.36979
-5.34708
-5.3096
-5.25454
-5.17942
-5.08197
-4.96095
-4.81709
-4.65488
-4.48258
-4.30978
-4.14463
-3.99221
-3.85394
-3.7293
-3.61697
-3.51541
-3.42318
-3.339
-3.26179
-3.19069
-3.12501
-3.06423
-3.008
-2.95612
-2.9085
-2.86516
-2.82616
-2.79154
-2.76132
-2.7354
-2.71364
-2.69588
-2.68193
-2.67169
-2.66506
-2.66177
-2.66055
-5.28001
-5.26759
-5.24579
-5.21306
-5.16786
-5.10867
-5.03395
-4.94298
-4.83587
-4.71414
-4.58122
-4.44216
-4.30252
-4.16714
-4.0393
-3.92054
-3.81119
-3.7109
-3.61896
-3.53456
-3.45689
-3.3852
-3.31886
-3.25733
-3.20024
-3.14734
-3.09851
-3.05371
-3.01299
-2.97639
-2.94393
-2.91559
-2.89128
-2.87087
-2.8542
-2.84114
-2.83163
-2.82564
-2.8228
-2.82214
-5.20008
-5.18056
-5.15242
-5.11468
-5.06653
-5.0072
-4.93598
-4.85284
-4.75847
-4.65439
-4.54309
-4.42781
-4.312
-4.19869
-4.09011
-3.98757
-3.89165
-3.80242
-3.71962
-3.64285
-3.57162
-3.50545
-3.4439
-3.38662
-3.33336
-3.28396
-3.23835
-3.19653
-3.15853
-3.12437
-3.09405
-3.06753
-3.04473
-3.02554
-3.00985
-2.99759
-2.98874
-2.98331
-2.98089
-2.98074
-5.13935
-5.11571
-5.08447
-5.04503
-4.99699
-4.93993
-4.87365
-4.79849
-4.71528
-4.62537
-4.53059
-4.43312
-4.3352
-4.23883
-4.14557
-4.05647
-3.97213
-3.89278
-3.81842
-3.74888
-3.68388
-3.62317
-3.56645
-3.51352
-3.46421
-3.41845
-3.37618
-3.33741
-3.30215
-3.2704
-3.24215
-3.21736
-3.19596
-3.17789
-3.16311
-3.15158
-3.14334
-3.13844
-3.13642
-3.13671
-5.0952
-5.06946
-5.03722
-4.99811
-4.95194
-4.89849
-4.83779
-4.77034
-4.69693
-4.61869
-4.537
-4.4534
-4.36942
-4.28645
-4.20563
-4.12777
-4.05342
-3.98288
-3.91624
-3.85349
-3.7945
-3.73914
-3.68725
-3.6387
-3.59342
-3.55134
-3.51244
-3.4767
-3.44413
-3.41471
-3.38843
-3.36526
-3.34519
-3.32818
-3.31424
-3.30341
-3.29577
-3.29136
-3.28972
-3.2904
-5.06554
-5.03906
-5.00717
-4.96959
-4.92623
-4.87698
-4.82199
-4.76175
-4.69698
-4.62859
-4.55764
-4.48525
-4.41254
-4.34052
-4.27003
-4.20175
-4.13613
-4.07347
-4.01392
-3.95754
-3.9043
-3.85415
-3.80701
-3.76281
-3.72151
-3.68307
-3.64746
-3.61466
-3.58466
-3.55746
-3.53305
-3.51144
-3.49262
-3.47665
-3.46356
-3.45342
-3.44636
-3.44243
-3.44116
-3.44217
-5.04911
-5.02278
-4.99203
-4.95662
-4.91645
-4.87151
-4.822
-4.76837
-4.71121
-4.65127
-4.58936
-4.52635
-4.46306
-4.40028
-4.33864
-4.27868
-4.2208
-4.16526
-4.11225
-4.06183
-4.01404
-3.96888
-3.92632
-3.88633
-3.84887
-3.81392
-3.78145
-3.75144
-3.7239
-3.6988
-3.67618
-3.65607
-3.63851
-3.62357
-3.61134
-3.60193
-3.59545
-3.592
-3.59108
-3.59237
-5.04493
-5.01934
-4.99017
-4.95716
-4.92025
-4.87948
-4.83506
-4.78739
-4.73697
-4.68438
-4.63029
-4.57533
-4.52017
-4.46538
-4.41147
-4.35888
-4.30792
-4.25885
-4.21182
-4.16694
-4.12426
-4.0838
-4.04557
-4.00955
-3.97572
-3.94407
-3.91456
-3.88719
-3.86197
-3.83889
-3.81801
-3.79938
-3.78309
-3.76923
-3.7579
-3.74924
-3.74338
-3.74039
-3.7398
-3.74132
-5.05199
-5.02755
-5.00017
-4.96963
-4.93589
-4.89905
-4.85932
-4.81705
-4.77264
-4.72657
-4.67934
-4.63145
-4.5834
-4.53564
-4.48857
-4.44253
-4.3978
-4.35457
-4.31301
-4.27321
-4.23526
-4.19917
-4.16497
-4.13266
-4.10222
-4.07365
-4.04693
-4.02205
-3.99904
-3.97792
-3.95876
-3.94164
-3.92664
-3.9139
-3.90353
-3.89566
-3.89042
-3.8879
-3.88761
-3.88932
-5.06925
-5.04621
-5.02075
-4.99268
-4.96201
-4.92888
-4.8935
-4.85615
-4.81716
-4.77691
-4.73577
-4.69414
-4.65238
-4.61085
-4.56985
-4.52965
-4.49049
-4.45254
-4.41594
-4.38079
-4.34717
-4.31511
-4.28464
-4.25577
-4.22849
-4.2028
-4.1787
-4.1562
-4.13532
-4.11613
-4.09869
-4.08309
-4.06945
-4.05788
-4.04851
-4.04146
-4.03686
-4.03478
-4.03477
-4.03661
-5.09571
-5.07422
-5.05073
-5.02511
-4.99743
-4.96782
-4.93649
-4.90366
-4.8696
-4.83458
-4.79888
-4.7628
-4.72663
-4.69062
-4.65502
-4.62005
-4.58589
-4.55271
-4.52061
-4.48971
-4.46005
-4.4317
-4.40468
-4.379
-4.35467
-4.33169
-4.31009
-4.28987
-4.27109
-4.2538
-4.23809
-4.22405
-4.21179
-4.20143
-4.19309
-4.18687
-4.1829
-4.18125
-4.18148
-4.18342
-5.1303
-5.11043
-5.08895
-5.06576
-5.04098
-5.01475
-4.98722
-4.95857
-4.929
-4.8987
-4.86789
-4.83678
-4.80559
-4.77452
-4.74376
-4.71348
-4.68385
-4.65498
-4.627
-4.59997
-4.57397
-4.54905
-4.52523
-4.50253
-4.48098
-4.46058
-4.44136
-4.42336
-4.40663
-4.39123
-4.37725
-4.36478
-4.35393
-4.3448
-4.33749
-4.3321
-4.32875
-4.3275
-4.32794
-4.32993
-5.17191
-5.1537
-5.13424
-5.11349
-5.09157
-5.06858
-5.04465
-5.01989
-4.99445
-4.96847
-4.94209
-4.91547
-4.88877
-4.86216
-4.83577
-4.80975
-4.78423
-4.75932
-4.7351
-4.71166
-4.68904
-4.66731
-4.64648
-4.62659
-4.60767
-4.58974
-4.57283
-4.55699
-4.54227
-4.52874
-4.51649
-4.50558
-4.49613
-4.48821
-4.48191
-4.47733
-4.47457
-4.47368
-4.4743
-4.4763
-5.21947
-5.20299
-5.18562
-5.16735
-5.14825
-5.12841
-5.10791
-5.08683
-5.06523
-5.04322
-5.0209
-4.99839
-4.9758
-4.95325
-4.93087
-4.90875
-4.88701
-4.86574
-4.84501
-4.82489
-4.80543
-4.78668
-4.76868
-4.75146
-4.73505
-4.71949
-4.70482
-4.69108
-4.67833
-4.66664
-4.65607
-4.6467
-4.6386
-4.63186
-4.62654
-4.62273
-4.6205
-4.61995
-4.62069
-4.62268
-5.27217
-5.25753
-5.24236
-5.22661
-5.21035
-5.19361
-5.17642
-5.15881
-5.14083
-5.12253
-5.10398
-5.08526
-5.06645
-5.04765
-5.02896
-5.01045
-4.99221
-4.97432
-4.95684
-4.93982
-4.92333
-4.90741
-4.89209
-4.87741
-4.86342
-4.85014
-4.83763
-4.82594
-4.8151
-4.80518
-4.79624
-4.78835
-4.78155
-4.77593
-4.77153
-4.76842
-4.76668
-4.7664
-4.76725
-4.76919
-5.32946
-5.3168
-5.30395
-5.29082
-5.27743
-5.26375
-5.24977
-5.2355
-5.22094
-5.20612
-5.19108
-5.17588
-5.16059
-5.14527
-5.13
-5.11484
-5.09987
-5.08514
-5.0707
-5.05662
-5.04294
-5.0297
-5.01695
-5.00472
-4.99305
-4.98198
-4.97156
-4.96183
-4.95283
-4.94462
-4.93723
-4.93073
-4.92516
-4.92057
-4.91701
-4.91453
-4.91323
-4.91317
-4.91407
-4.91593
-5.39085
-5.38035
-5.37
-5.35962
-5.34915
-5.33852
-5.32768
-5.3166
-5.30529
-5.29375
-5.282
-5.2701
-5.25809
-5.24602
-5.23394
-5.22192
-5.21001
-5.19826
-5.18672
-5.17542
-5.16442
-5.15376
-5.14347
-5.1336
-5.12417
-5.11524
-5.10683
-5.09899
-5.09175
-5.08515
-5.07922
-5.07402
-5.06958
-5.06593
-5.06312
-5.0612
-5.06025
-5.06036
-5.06127
-5.06301
-5.45575
-5.44769
-5.44011
-5.43266
-5.42519
-5.41761
-5.40984
-5.40184
-5.39361
-5.38516
-5.37651
-5.3677
-5.35875
-5.34973
-5.34067
-5.33161
-5.32261
-5.31369
-5.3049
-5.29628
-5.28787
-5.27969
-5.27179
-5.2642
-5.25695
-5.25008
-5.24361
-5.23757
-5.232
-5.22692
-5.22237
-5.21837
-5.21495
-5.21215
-5.21
-5.20854
-5.20787
-5.20806
-5.20892
-5.21049
-5.52256
-5.51771
-5.51359
-5.50942
-5.50512
-5.50062
-5.49587
-5.49085
-5.48556
-5.48004
-5.47431
-5.46842
-5.46238
-5.45625
-5.45005
-5.44382
-5.43759
-5.4314
-5.42528
-5.41925
-5.41335
-5.40759
-5.40202
-5.39665
-5.39152
-5.38663
-5.38203
-5.37773
-5.37375
-5.37011
-5.36684
-5.36395
-5.36147
-5.35941
-5.35782
-5.35675
-5.35626
-5.35646
-5.35721
-5.35853
-5.5839
-5.58557
-5.5875
-5.58789
-5.58743
-5.58642
-5.58489
-5.58294
-5.58063
-5.57802
-5.57519
-5.57216
-5.56897
-5.56567
-5.56228
-5.55882
-5.55532
-5.5518
-5.54829
-5.5448
-5.54136
-5.53797
-5.53467
-5.53146
-5.52837
-5.5254
-5.52258
-5.51992
-5.51742
-5.51511
-5.51299
-5.51107
-5.50938
-5.50792
-5.50673
-5.50583
-5.50532
-5.50532
-5.50577
-5.50668
-5.6358
-5.65311
-5.6636
-5.66919
-5.67273
-5.67512
-5.67668
-5.67763
-5.67816
-5.67836
-5.67831
-5.67806
-5.67766
-5.67714
-5.6765
-5.67578
-5.67498
-5.67412
-5.67321
-5.67225
-5.67127
-5.67026
-5.66924
-5.66821
-5.66719
-5.66617
-5.66517
-5.66419
-5.66324
-5.66231
-5.66142
-5.66056
-5.65975
-5.65897
-5.65824
-5.65758
-5.65702
-5.65667
-5.65657
-5.65679
)
;

boundaryField
{
    leftWall
    {
        type            calculated;
        value           nonuniform 0();
    }
    rightWall
    {
        type            calculated;
        value           nonuniform List<scalar> 
43
(
1.87301
1.64575
1.4152
1.18311
0.950772
0.719007
0.488644
0.260493
0.03527
-0.186421
-0.404066
-0.617216
-0.82536
-1.02905
-1.22802
-1.42237
-1.61215
-1.7974
-1.9782
-2.15471
-2.32711
-2.49564
-2.66055
-2.82214
-2.98074
-3.13671
-3.2904
-3.44217
-3.59237
-3.74132
-3.88932
-4.03661
-4.18342
-4.32993
-4.4763
-4.62268
-4.76919
-4.91593
-5.06301
-5.21049
-5.35853
-5.50668
-5.65679
)
;
    }
    lowerWall
    {
        type            calculated;
        value           nonuniform 0();
    }
    atmosphere
    {
        type            calculated;
        value           nonuniform List<scalar> 
45
(
-5.73335
-5.73151
-5.73023
-5.72945
-5.72912
-5.72904
-5.72904
-5.72904
-5.72904
-5.72904
-5.72904
-5.72904
-5.72904
-5.72904
-5.72904
-5.72904
-5.72904
-5.72904
-5.72904
-5.72904
-5.72904
-5.72904
-5.72904
-5.72904
-5.72904
-5.72904
-5.72904
-5.72904
-5.72904
-5.72904
-5.72904
-5.72904
-5.72904
-5.72904
-5.72904
-5.72904
-5.72904
-5.72904
-5.72904
-5.72904
-5.72904
-5.72904
-5.72904
-5.72904
-5.72904
)
;
    }
    defaultFaces
    {
        type            empty;
    }
    procBoundary3to1
    {
        type            processor;
        value           nonuniform List<scalar> 
45
(
-5.13831
-5.24647
-5.34808
-5.44473
-5.53427
-5.61687
-5.68606
-5.73465
-5.76275
-5.77288
-5.76947
-5.75835
-5.74728
-5.74593
-5.76173
-5.7751
-5.76749
-5.97384
-7.94255
-24.1925
-34.4289
-30.2967
-24.2314
-17.6717
-8.45526
-2.45166
0.56727
1.39007
1.67352
1.82803
1.91212
1.95891
1.98858
2.00665
2.01631
2.02084
2.02206
2.02095
2.01934
2.02021
2.0264
2.03923
2.05827
2.07953
2.09604
)
;
    }
    procBoundary3to2
    {
        type            processor;
        value           nonuniform List<scalar> 
43
(
-5.11762
-5.20789
-5.29614
-5.38141
-5.4623
-5.53713
-5.6044
-5.66282
-5.71118
-5.74826
-5.77279
-5.78408
-5.78203
-5.76688
-5.73918
-5.7
-5.65103
-5.59457
-5.53342
-5.47047
-5.40838
-5.34937
-5.29527
-5.24755
-5.2073
-5.17527
-5.15188
-5.13726
-5.13129
-5.13367
-5.14398
-5.16177
-5.1865
-5.21759
-5.25445
-5.29659
-5.34354
-5.39488
-5.4502
-5.50912
-5.5719
-5.63952
-5.7034
)
;
    }
}


// ************************************************************************* //
