/*--------------------------------*- C++ -*----------------------------------*\
| =========                 |                                                 |
| \\      /  F ield         | OpenFOAM: The Open Source CFD Toolbox           |
|  \\    /   O peration     | Version:  5.0                                   |
|   \\  /    A nd           | Web:      www.OpenFOAM.org                      |
|    \\/     M anipulation  |                                                 |
\*---------------------------------------------------------------------------*/
FoamFile
{
    version     2.0;
    format      ascii;
    class       volScalarField;
    location    "0.4";
    object      p_rgh;
}
// * * * * * * * * * * * * * * * * * * * * * * * * * * * * * * * * * * * * * //

dimensions      [1 -1 -2 0 0 0 0];

internalField   nonuniform List<scalar> 
1935
(
-2.88908
-2.91751
-2.94374
-2.96639
-2.98353
-2.9936
-2.99512
-2.98673
-2.9671
-2.93469
-2.88782
-2.82536
-2.74712
-2.6532
-2.54374
-2.41975
-2.28328
-2.13726
-1.98518
-1.83094
-1.67803
-1.52922
-1.38641
-1.25091
-1.12354
-1.00479
-0.894899
-0.793933
-0.701705
-0.617712
-0.541312
-0.471943
-0.409122
-0.352306
-0.300845
-0.254065
-0.21137
-0.172274
-0.136353
-0.103257
-0.0732886
-0.0474508
-0.0163888
-2.99959
-3.10401
-3.20286
-3.29244
-3.03191
-3.13967
-3.24026
-3.32814
-3.06234
-3.17296
-3.27477
-3.3629
-3.0885
-3.20155
-3.30409
-3.39075
-3.10878
-3.22399
-3.32726
-3.41267
-3.12175
-3.23925
-3.34383
-3.42909
-3.12606
-3.246
-3.35295
-3.4392
-3.12041
-3.24354
-3.35441
-3.4447
-3.10358
-3.23094
-3.34791
-3.44645
-3.07358
-3.20573
-3.32936
-3.43839
-3.02832
-3.16441
-3.29469
-3.4146
-2.9657
-3.10421
-3.23938
-3.36562
-2.88544
-3.02442
-3.1631
-3.29431
-2.78745
-2.92492
-3.06595
-3.20591
-2.67105
-2.80368
-2.94324
-3.08767
-2.53679
-2.66015
-2.79257
-2.9333
-2.38701
-2.49673
-2.61578
-2.74421
-2.22553
-2.31843
-2.41911
-2.52788
-2.0571
-2.13179
-2.21172
-2.29691
-1.88691
-1.94377
-2.00318
-2.06472
-1.71957
-1.76036
-1.80133
-1.8418
-1.55843
-1.58565
-1.61121
-1.63438
-1.40552
-1.42179
-1.4352
-1.44508
-1.2619
-1.26964
-1.27386
-1.27404
-1.12813
-1.12942
-1.12698
-1.1204
-1.0044
-1.00093
-0.993825
-0.982681
-0.890637
-0.883616
-0.873201
-0.85901
-0.786692
-0.776969
-0.76412
-0.747867
-0.692264
-0.680541
-0.665923
-0.648325
-0.606713
-0.593622
-0.577882
-0.559604
-0.529227
-0.515311
-0.499089
-0.480779
-0.459157
-0.444883
-0.428739
-0.410934
-0.396049
-0.381851
-0.366201
-0.349239
-0.33939
-0.325644
-0.31075
-0.294784
-0.288443
-0.275408
-0.261403
-0.246486
-0.24236
-0.230145
-0.217081
-0.203253
-0.200401
-0.189014
-0.176911
-0.164229
-0.162033
-0.151458
-0.140329
-0.12885
-0.126854
-0.117085
-0.106917
-0.0966498
-0.094552
-0.085584
-0.0762807
-0.0670787
-0.0654606
-0.057214
-0.0482072
-0.0389722
-0.0405307
-0.0322367
-0.0207444
-0.00582742
-0.00917671
0.000871706
0.017643
0.0430777
-3.36817
-3.43156
-3.4735
-3.49622
-3.50092
-3.4883
-3.46698
-3.44429
-3.43106
-3.43425
-3.43364
-3.39304
-3.67596
329.769
1746.6
2247.13
2269.38
2279.38
2254.49
1626.93
277.414
23.5966
8.9992
5.19195
4.19561
4.01547
4.01651
4.04785
4.07569
4.09576
4.10987
4.11925
4.12473
4.12841
4.1336
4.14327
4.15867
4.1792
4.20088
4.21729
-3.40382
-3.46194
-3.49598
-3.51009
-3.50636
-3.48655
-3.45694
-3.42352
-3.39184
-3.35644
-3.17506
-1.23323
28.9445
729.61
2122.42
2298.68
2322.98
2341.38
2214.9
1151.54
94.8335
16.7785
7.25454
4.46985
3.83088
3.74624
3.77937
3.82663
3.86594
3.89589
3.91849
3.93501
3.94678
3.95614
3.96622
3.9795
3.99696
4.01811
4.03945
4.05536
-3.40607
-3.44004
-3.49277
-3.51719
-3.5078
-3.48239
-3.44582
-3.38983
-3.30715
-3.02962
-1.42474
7.97046
217.802
1527.31
2334.38
2361.07
2373.53
2366.1
1926.34
517.498
33.4906
11.9453
5.62339
3.84136
3.49753
3.49161
3.55006
3.61003
3.65942
3.69818
3.72807
3.75078
3.76838
3.78342
3.79845
3.8152
3.83428
3.85542
3.87579
3.89074
-3.43988
-3.24981
-3.36592
-3.5167
-3.50735
-3.47729
-3.43542
-3.3208
-2.97524
-0.748068
6.43687
135.108
1073.09
2299.13
2391.64
2416.96
2437.02
2266.67
1147.4
114.05
20.8005
8.1569
4.2776
3.35563
3.21078
3.25397
3.32962
3.39949
3.45728
3.50349
3.53976
3.5682
3.59129
3.61153
3.63092
3.65059
3.67094
3.69191
3.71123
3.7252
-3.44078
-3.19931
-3.23236
-3.46407
-3.50901
-3.47531
-3.43031
-3.32356
-0.948026
28.7159
270.05
1248
2309.42
2431.42
2453.08
2467.29
2415.05
1690.21
312.119
32.4158
12.6574
5.41953
3.45319
2.99632
2.95954
3.03252
3.11937
3.19659
3.26093
3.31312
3.35493
3.38865
3.4168
3.44157
3.46452
3.48648
3.50779
3.52855
3.54694
3.56002
-3.41036
-3.10219
-3.27569
-3.49911
-3.51033
-3.46196
-3.414
-3.38198
9.2374
452.787
1750.09
2422.25
2471.44
2491.1
2505.73
2477.79
1945.46
547.065
49.8618
18.1349
7.24257
3.8134
2.90438
2.69626
2.73178
2.82583
2.92033
3.00279
3.07189
3.12869
3.17509
3.21341
3.24592
3.27445
3.30022
3.3239
3.34586
3.36633
3.38381
3.39604
-3.23176
-3.02102
-3.40025
-3.51557
-3.49836
-3.36255
-2.99867
-3.35201
-3.41621
1495.37
2476.62
2521.93
2532.97
2548.45
2538.57
2049.42
683.065
64.4925
22.8379
9.16661
4.21061
2.86594
2.47178
2.43875
2.52633
2.63387
2.73316
2.81892
2.89118
2.95135
3.0014
3.04347
3.0795
3.11096
3.13883
3.16373
3.18607
3.20616
3.22272
3.23409
-3.19108
-2.93331
-3.44211
-3.53364
-3.41015
-2.80974
2.06374
105.19
715.918
1549.3
2275.95
2566.54
2599.4
2594.13
2130.49
779.133
68.5916
24.7342
10.5864
4.54965
2.65907
2.21481
2.15297
2.22775
2.343
2.4568
2.55807
2.6453
2.71936
2.78185
2.83462
2.87954
2.91816
2.95171
2.98103
3.00671
3.02921
3.04882
3.06447
3.07499
-3.32829
-2.58895
-3.36983
-3.59395
-3.13714
10.2343
181.988
1282.85
2203.67
1848.04
977.925
1227.95
1558.3
1418.33
693.865
92.2613
21.7799
10.01
4.67619
2.51901
1.90898
1.82995
1.93002
2.05426
2.17949
2.29416
2.39496
2.48211
2.55683
2.62067
2.67523
2.72203
2.76234
2.7972
2.8274
2.85351
2.87597
2.89503
2.90976
2.91946
-3.35025
-2.59098
-3.18244
-3.66441
-3.76999
239.059
1430.46
2277.93
2291.36
2302.82
903.678
222.088
129.458
78.5757
25.6952
15.9769
8.43822
3.8749
2.24808
1.66545
1.55837
1.6358
1.77017
1.90791
2.03304
2.14499
2.2435
2.32936
2.40376
2.46802
2.52343
2.57117
2.61233
2.64784
2.67845
2.70469
2.72694
2.74537
2.7592
2.7681
-3.51433
-2.57527
-2.58748
-3.67476
-3.79045
601.099
2302.75
2355.1
2360.47
2355.97
1370.86
110.653
44.9035
18.3879
8.53206
4.69707
2.84515
1.7861
1.38677
1.30678
1.38016
1.50998
1.64848
1.78078
1.90089
2.00811
2.10314
2.1868
2.26004
2.32384
2.37918
2.42702
2.46833
2.50396
2.5346
2.56073
2.58261
2.60034
2.61326
2.62145
-3.4766
-3.1796
-1.96787
-3.48589
-3.27276
251.411
2254.04
2431.65
2422.75
2415.16
2341.17
432.425
18.0636
9.02706
3.93007
1.98464
1.38356
1.12707
1.08379
1.15666
1.27703
1.41169
1.54414
1.66777
1.78058
1.88221
1.97311
2.05391
2.12525
2.1878
2.24229
2.28956
2.33048
2.36583
2.39621
2.422
2.44334
2.46027
2.47226
2.47995
-3.41978
-3.52739
-2.96617
-2.00433
-3.38433
-3.41504
1623.83
2491.98
2486.26
2473.14
2467.63
1115.41
19.0168
3.75247
2.09175
1.11938
0.940807
0.912572
0.972508
1.07814
1.20099
1.32764
1.44997
1.56449
1.66986
1.76577
1.85236
1.92992
1.9988
2.05946
2.11252
2.15874
2.1989
2.23367
2.26355
2.28877
2.30941
2.32539
2.33622
2.34412
-3.34515
-3.47788
-3.43113
-1.15012
-2.15678
-2.26395
206.561
2125.5
2550.9
2537.8
2525.61
1328.69
20.3767
1.80663
1.13114
0.808354
0.773592
0.822244
0.90978
1.01738
1.13324
1.24981
1.36233
1.46837
1.56685
1.65731
1.7396
1.81373
1.87983
1.93825
1.98957
2.03446
2.07363
2.10762
2.13676
2.16122
2.181
2.19602
2.20585
2.21342
-3.24115
-3.39841
-3.51835
-2.24464
1.84728
1.22021
2.1493
589.626
2141.56
2608.6
2445.57
982.627
11.5445
0.824524
0.738695
0.636959
0.67644
0.755077
0.851025
0.956738
1.06603
1.17438
1.27886
1.37779
1.47022
1.55565
1.63374
1.70433
1.76749
1.82354
1.87301
1.91649
1.95456
1.98759
2.01582
2.03933
2.05812
2.07212
2.08095
2.08811
-3.08805
-3.25388
-3.40705
-3.30714
0.148433
3.25073
2.52757
6.78176
474.4
1080.76
808.815
330.052
20.7496
0.879638
0.510369
0.523938
0.591802
0.685678
0.787445
0.892413
0.997433
1.10004
1.19851
1.29176
1.37906
1.4599
1.53393
1.60101
1.66123
1.71492
1.76254
1.80459
1.84146
1.8734
1.90056
1.92298
1.94068
1.95366
1.96153
1.96811
-2.88774
-3.04591
-3.20379
-3.30766
-2.60865
0.081833
2.192
2.16983
6.54538
19.9178
17.0519
6.59507
8.27686
0.187383
0.271952
0.374964
0.490009
0.606045
0.717099
0.824319
0.927777
1.0269
1.12109
1.20984
1.29271
1.36935
1.43956
1.50329
1.56072
1.61217
1.65802
1.69861
1.73419
1.7649
1.79083
1.81204
1.82859
1.84054
1.84754
1.85337
-2.64966
-2.78402
-2.92116
-3.04038
-3.02342
-1.73693
0.0379643
0.25586
-0.918713
0.317159
0.857098
-0.0690881
-0.874143
-0.306183
0.0192242
0.21863
0.383819
0.522695
0.644359
0.755526
0.859019
0.95601
1.04694
1.13188
1.21079
1.28357
1.35023
1.41088
1.46574
1.51511
1.55924
1.59834
1.63251
1.66185
1.68643
1.70635
1.72172
1.73264
1.73886
1.74386
-2.39097
-2.49245
-2.59382
-2.6875
-2.71711
-2.47201
-2.01365
-1.43355
-1.59208
-1.86846
-1.4142
-1.15078
-0.922907
-0.444759
-0.116759
0.118286
0.3019
0.450686
0.577923
0.691046
0.793983
0.888818
0.976634
1.05798
1.13315
1.20234
1.26575
1.32359
1.37611
1.42351
1.46593
1.50344
1.5361
1.56395
1.58711
1.60571
1.6199
1.62982
1.63533
1.6395
-2.13059
-2.19851
-2.26178
-2.31437
-2.34522
-2.29875
-2.1547
-1.97953
-1.87987
-1.75331
-1.42851
-1.0902
-0.76333
-0.416295
-0.140439
0.0765089
0.251423
0.397188
0.522878
0.634195
0.73465
0.826372
0.910654
0.988296
1.05983
1.12564
1.18604
1.24131
1.29161
1.33707
1.37771
1.41353
1.44455
1.47086
1.49257
1.50987
1.52293
1.53192
1.53679
1.54014
-1.88278
-1.92155
-1.95286
-1.97183
-1.97166
-1.93714
-1.86623
-1.76407
-1.62676
-1.42809
-1.16616
-0.883754
-0.607705
-0.346097
-0.122689
0.0645786
0.223011
0.359363
0.478873
0.585356
0.681458
0.768994
0.849207
0.922968
0.990907
1.05349
1.11106
1.16384
1.21195
1.25539
1.29413
1.32816
1.35748
1.38221
1.40252
1.41859
1.43061
1.43872
1.44302
1.4456
-1.65529
-1.671
-1.67769
-1.67179
-1.6487
-1.60325
-1.53219
-1.43184
-1.2977
-1.1261
-0.922076
-0.702513
-0.483884
-0.278172
-0.0944922
0.0666292
0.207931
0.332627
0.443675
0.543497
0.63398
0.716561
0.792321
0.862081
0.926452
0.985878
1.04065
1.09092
1.13672
1.17801
1.21474
1.24688
1.27448
1.29768
1.31666
1.33161
1.34269
1.35002
1.35379
1.35566
-1.45095
-1.44986
-1.43917
-1.41646
-1.37896
-1.32383
-1.24866
-1.15119
-1.03006
-0.886075
-0.72379
-0.551622
-0.37907
-0.213995
-0.0615928
0.0766732
0.201314
0.313649
0.415202
0.507433
0.591617
0.668825
0.739927
0.805608
0.866386
0.922614
0.974499
1.02212
1.06546
1.10446
1.13907
1.1693
1.19522
1.21697
1.23474
1.24868
1.25893
1.26555
1.26884
1.27007
-1.26934
-1.25692
-1.23512
-1.20239
-1.15718
-1.09799
-1.02327
-0.932293
-0.825171
-0.70342
-0.570495
-0.431442
-0.29183
-0.156463
-0.0286281
0.0901285
0.199477
0.299774
0.391712
0.476109
0.553778
0.625466
0.691814
0.753341
0.81043
0.86333
0.912165
0.95696
0.997683
1.03428
1.06674
1.09508
1.11939
1.1398
1.15647
1.16953
1.17904
1.18503
1.18787
1.18853
-1.10861
-1.08909
-1.06095
-1.02321
-0.975064
-0.915727
-0.844509
-0.761372
-0.667
-0.562917
-0.451614
-0.336339
-0.220532
-0.107225
0.00135462
0.103893
0.199815
0.289051
0.371847
0.448619
0.519849
0.58602
0.647567
0.704843
0.758105
0.807507
0.853117
0.894938
0.93294
0.9671
0.997418
1.02394
1.04674
1.06593
1.08162
1.09388
1.10272
1.10815
1.11057
1.11072
-0.966338
-0.942696
-0.911456
-0.872015
-0.823973
-0.766913
-0.700638
-0.625476
-0.542269
-0.452357
-0.357576
-0.260104
-0.162181
-0.0658104
0.0274481
0.116545
0.200885
0.280231
0.354592
0.42414
0.489131
0.54985
0.606565
0.659497
0.7088
0.754568
0.796835
0.835605
0.870865
0.902613
0.930863
0.955658
0.977057
0.995123
1.00991
1.02144
1.02967
1.03458
1.0366
1.03631
-0.83988
-0.814137
-0.781896
-0.74279
-0.696622
-0.643165
-0.582474
-0.515017
-0.441611
-0.363372
-0.281683
-0.19808
-0.114101
-0.0311339
0.0496917
0.127548
0.201896
0.272441
0.339078
0.401834
0.460821
0.516185
0.568074
0.616615
0.661898
0.703978
0.742881
0.778616
0.811189
0.840607
0.866889
0.890056
0.910135
0.927141
0.941075
0.951906
0.959554
0.963963
0.965601
0.964923
-0.727156
-0.700675
-0.668777
-0.631204
-0.587844
-0.538587
-0.483601
-0.423365
-0.358595
-0.290203
-0.219247
-0.146859
-0.0741483
-0.0021276
0.0683544
0.13664
0.202261
0.264921
0.324466
0.380846
0.434084
0.484238
0.53138
0.575575
0.616876
0.65532
0.690933
0.72373
0.753724
0.780925
0.805335
0.826953
0.845765
0.861741
0.874832
0.884967
0.892033
0.89596
0.897232
0.89622
-0.626879
-0.600554
-0.569801
-0.53439
-0.494226
-0.449282
-0.399774
-0.34614
-0.288984
-0.229039
-0.167131
-0.104118
-0.0408351
0.0219525
0.0835887
0.143546
0.201429
0.256964
0.309983
0.360399
0.408184
0.453345
0.495907
0.535902
0.573361
0.608313
0.640781
0.670785
0.698333
0.723425
0.746045
0.76616
0.783722
0.798659
0.810887
0.820303
0.826777
0.830229
0.831152
0.829859
-0.538082
-0.512498
-0.483319
-0.450316
-0.413407
-0.372628
-0.328211
-0.280541
-0.230119
-0.177537
-0.123439
-0.068486
-0.01332
0.041471
0.095375
0.14797
0.198925
0.247998
0.295027
0.339908
0.382588
0.423044
0.461277
0.497297
0.531125
0.562782
0.592287
0.619654
0.644882
0.667956
0.688835
0.707463
0.723758
0.737622
0.748945
0.757608
0.763471
0.766455
0.767049
0.765525
-0.459741
-0.435295
-0.407914
-0.377377
-0.343642
-0.306797
-0.267071
-0.224797
-0.180389
-0.134317
-0.0870836
-0.0391969
0.00885183
0.0566098
0.103677
0.149717
0.194455
0.237681
0.279244
0.319037
0.356995
0.393081
0.427281
0.459594
0.49003
0.518603
0.545326
0.570201
0.593214
0.61433
0.633491
0.650617
0.665608
0.678349
0.688718
0.696591
0.701828
0.70435
0.704641
0.702935
-0.390803
-0.367764
-0.342301
-0.31423
-0.283564
-0.250433
-0.21505
-0.177699
-0.138714
-0.0984601
-0.0573233
-0.0156895
0.0260684
0.0676032
0.108603
0.148797
0.187959
0.225909
0.262508
0.297655
0.331279
0.363338
0.393808
0.422682
0.449962
0.475651
0.499752
0.522252
0.543124
0.562317
0.579759
0.595356
0.608999
0.620567
0.629939
0.636992
0.641594
0.643668
0.643682
0.64184
-0.330259
-0.308774
-0.285287
-0.259666
-0.23198
-0.202376
-0.171045
-0.138218
-0.104153
-0.069129
-0.0334341
0.00264198
0.0388176
0.0748269
0.110425
0.145396
0.179552
0.212739
0.244833
0.27574
0.305392
0.333743
0.360766
0.386447
0.410777
0.433752
0.45536
0.475576
0.494358
0.511647
0.52736
0.5414
0.553658
0.564016
0.572361
0.57858
0.582549
0.584195
0.583964
0.582029
-0.277052
-0.257183
-0.235695
-0.212509
-0.187729
-0.161496
-0.133968
-0.105321
-0.0757471
-0.0454493
-0.0146398
0.0164667
0.0476582
0.0787303
0.109491
0.139767
0.169404
0.198269
0.226256
0.25328
0.279277
0.304202
0.328023
0.35072
0.372276
0.392674
0.411891
0.42989
0.446622
0.462019
0.475999
0.488468
0.499321
0.508455
0.515765
0.521154
0.524506
0.525752
0.525312
0.523324
-0.230042
-0.21183
-0.192372
-0.171623
-0.149695
-0.126707
-0.102775
-0.078022
-0.0525806
-0.0265938
-0.000212938
0.0264047
0.0530999
0.0797156
0.106102
0.132118
0.157639
0.182554
0.20677
0.230214
0.252828
0.274565
0.295391
0.315279
0.334202
0.352135
0.369043
0.384884
0.399601
0.413128
0.425386
0.436289
0.445746
0.453665
0.459958
0.46454
0.467306
0.468187
0.467573
0.465568
-0.188158
-0.171675
-0.154309
-0.13603
-0.116931
-0.0970977
-0.0765994
-0.0555106
-0.0339147
-0.0119056
0.0104124
0.032926
0.0555164
0.0780635
0.10045
0.122564
0.144304
0.165577
0.186306
0.206427
0.225884
0.244632
0.262635
0.279857
0.296266
0.311827
0.326499
0.340237
0.352985
0.364679
0.375249
0.384619
0.392714
0.399456
0.404773
0.40859
0.410812
0.41137
0.410621
0.408632
-0.150581
-0.135942
-0.120767
-0.10502
-0.0887583
-0.0720198
-0.0548312
-0.0372245
-0.0192426
-0.000941231
0.0176107
0.0363331
0.0551384
0.0739355
0.092633
0.111142
0.129381
0.147273
0.164754
0.181766
0.198256
0.214182
0.229502
0.244178
0.258172
0.271446
0.283955
0.295653
0.30649
0.316407
0.325345
0.333242
0.340035
0.345662
0.350062
0.353173
0.354905
0.355187
0.354342
0.352401
-0.116755
-0.104098
-0.0912465
-0.078122
-0.0647261
-0.0510479
-0.0370728
-0.0227979
-0.00823536
0.00658625
0.0216232
0.0368196
0.0521111
0.0674286
0.082701
0.0978581
0.112833
0.127565
0.141997
0.156077
0.169758
0.182997
0.195753
0.207985
0.219654
0.230719
0.241139
0.25087
0.259868
0.268083
0.275468
0.28197
0.287542
0.292134
0.295696
0.29817
0.299474
0.299533
0.298634
0.296774
-0.0861906
-0.075691
-0.0653375
-0.0549619
-0.0444891
-0.0338576
-0.0230186
-0.011945
-0.000630197
0.0109132
0.0226565
0.0345594
0.0465731
0.0586442
0.0707169
0.0827353
0.094646
0.106398
0.117943
0.129237
0.140235
0.150899
0.161187
0.171062
0.180486
0.18942
0.197827
0.205671
0.212913
0.219514
0.225435
0.230638
0.235083
0.238732
0.241542
0.243462
0.244409
0.244302
0.243393
0.241652
-0.0582813
-0.0502175
-0.0426361
-0.0351879
-0.0277226
-0.0201377
-0.0123649
-0.00436904
0.00385934
0.0123104
0.0209603
0.0297756
0.0387166
0.0477403
0.056802
0.0658578
0.0748648
0.0837817
0.0925688
0.101188
0.109603
0.117778
0.125677
0.133268
0.140517
0.147393
0.153863
0.1599
0.165471
0.170547
0.1751
0.179099
0.182517
0.185322
0.187475
0.18893
0.189605
0.189408
0.18855
0.186982
-0.0314168
-0.026562
-0.022443
-0.018278
-0.0139761
-0.00947715
-0.0047243
0.000299169
0.00558271
0.011103
0.0168297
0.0227286
0.0287636
0.0348982
0.0410969
0.0473254
0.0535505
0.0597405
0.0658647
0.0718936
0.0777986
0.0835516
0.0891253
0.0944931
0.0996296
0.104511
0.109114
0.113417
0.117397
0.121033
0.124306
0.127195
0.129678
0.131731
0.13332
0.1344
0.134888
0.134681
0.133937
0.132617
0.00179074
0.000117087
-0.0018103
-0.00220155
-0.00174374
-0.000727374
0.000795553
0.00275094
0.0050621
0.00766345
0.0105017
0.0135318
0.0167151
0.0200183
0.023412
0.0268698
0.0303677
0.0338831
0.0373951
0.0408836
0.0443292
0.0477133
0.0510177
0.054225
0.0573191
0.0602845
0.0631068
0.0657722
0.0682677
0.0705809
0.0727
0.0746134
0.0763076
0.0777651
0.0789614
0.0798571
0.0803705
0.0803701
0.0799217
0.0790085
0.0453125
0.0279984
0.0175065
0.0119189
0.00838295
0.00599211
0.00443086
0.00347413
0.00295168
0.00275262
0.00280134
0.00304501
0.00344535
0.00397389
0.00460879
0.00533263
0.00613103
0.00699163
0.00790343
0.00885638
0.00984099
0.0108482
0.0118693
0.0128963
0.0139214
0.0149377
0.0159387
0.0169189
0.0178733
0.0187979
0.0196895
0.0205455
0.0213634
0.0221392
0.0228661
0.023529
0.0240849
0.0244354
0.0245399
0.0243227
)
;

boundaryField
{
    leftWall
    {
        type            fixedFluxPressure;
        gradient        nonuniform 0();
        value           nonuniform 0();
    }
    rightWall
    {
        type            fixedFluxPressure;
        gradient        uniform 0;
        value           nonuniform List<scalar> 
43
(
4.21729
4.05536
3.89074
3.7252
3.56002
3.39604
3.23409
3.07499
2.91946
2.7681
2.62145
2.47995
2.34412
2.21342
2.08811
1.96811
1.85337
1.74386
1.6395
1.54014
1.4456
1.35566
1.27007
1.18853
1.11072
1.03631
0.964923
0.89622
0.829859
0.765525
0.702935
0.64184
0.582029
0.523324
0.465568
0.408632
0.352401
0.296774
0.241652
0.186982
0.132617
0.0790085
0.0243227
)
;
    }
    lowerWall
    {
        type            fixedFluxPressure;
        gradient        nonuniform 0();
        value           nonuniform 0();
    }
    atmosphere
    {
        type            totalPressure;
        rho             rho;
        psi             none;
        gamma           1;
        p0              uniform 0;
        value           nonuniform List<scalar> 
45
(
-0.00430571
-0.00246615
-0.00119154
-0.000412194
-7.55146e-05
0
0
0
0
0
0
0
0
0
0
0
0
0
0
0
0
0
0
0
0
0
0
0
0
0
0
0
0
0
0
0
0
0
0
0
0
0
0
0
0
)
;
    }
    defaultFaces
    {
        type            empty;
    }
    procBoundary3to1
    {
        type            processor;
        value           nonuniform List<scalar> 
45
(
-2.85875
-2.96691
-3.06851
-3.16517
-3.25463
-3.33699
-3.40622
-3.45508
-3.48318
-3.4933
-3.4899
-3.47878
-3.46772
-3.46634
-3.48214
-3.49549
-3.48788
-3.69413
167.187
1446.81
2185.37
2206.57
2215.64
2227.53
1862.27
521.47
31.1626
11.2765
5.95732
4.57831
4.29327
4.25853
4.27176
4.2868
4.29596
4.30042
4.30162
4.30051
4.2989
4.29977
4.30596
4.31879
4.33783
4.35909
4.3756
)
;
    }
    procBoundary3to2
    {
        type            processor;
        value           nonuniform List<scalar> 
43
(
-2.77334
-2.79829
-2.8206
-2.83932
-2.85305
-2.86009
-2.85895
-2.84832
-2.82698
-2.79373
-2.74727
-2.68691
-2.61254
-2.52441
-2.42305
-2.30952
-2.1855
-2.05331
-1.91572
-1.77563
-1.63567
-1.49807
-1.36465
-1.23688
-1.11584
-1.00226
-0.89656
-0.798869
-0.709061
-0.626819
-0.55173
-0.483322
-0.421056
-0.364337
-0.312581
-0.265271
-0.221947
-0.18218
-0.145542
-0.111654
-0.080754
-0.0538292
-0.0222942
)
;
    }
}


// ************************************************************************* //
