/*--------------------------------*- C++ -*----------------------------------*\
| =========                 |                                                 |
| \\      /  F ield         | OpenFOAM: The Open Source CFD Toolbox           |
|  \\    /   O peration     | Version:  5.0                                   |
|   \\  /    A nd           | Web:      www.OpenFOAM.org                      |
|    \\/     M anipulation  |                                                 |
\*---------------------------------------------------------------------------*/
FoamFile
{
    version     2.0;
    format      ascii;
    class       surfaceScalarField;
    location    "0.4";
    object      phi;
}
// * * * * * * * * * * * * * * * * * * * * * * * * * * * * * * * * * * * * * //

dimensions      [0 3 -1 0 0 0 0];

internalField   nonuniform List<scalar> 
3782
(
-5.07249e-05
7.71638e-05
-5.59081e-05
7.07093e-05
-6.08547e-05
6.36149e-05
-6.55338e-05
5.58899e-05
-6.99427e-05
4.75844e-05
-7.40835e-05
3.87547e-05
-7.79412e-05
2.94381e-05
-8.1461e-05
1.96541e-05
-8.4535e-05
9.42253e-06
-8.69968e-05
-1.20928e-06
-8.86449e-05
-1.20913e-05
-8.93023e-05
-2.2951e-05
-8.88584e-05
-3.34677e-05
-8.72641e-05
-4.33614e-05
-8.45208e-05
-5.24022e-05
-8.07066e-05
-6.03453e-05
-7.59958e-05
-6.69454e-05
-7.06515e-05
-7.20108e-05
-6.49803e-05
-7.54796e-05
-5.9275e-05
-7.74447e-05
-5.37696e-05
-7.81171e-05
-4.86207e-05
-7.77591e-05
-4.3911e-05
-7.66243e-05
-3.96644e-05
-7.49215e-05
-3.5865e-05
-7.28024e-05
-3.24757e-05
-7.03636e-05
-2.94522e-05
-6.76592e-05
-2.6752e-05
-6.47198e-05
-2.43384e-05
-6.15668e-05
-2.21823e-05
-5.82213e-05
-2.02608e-05
-5.47089e-05
-1.85555e-05
-5.10602e-05
-1.70505e-05
-4.73086e-05
-1.57309e-05
-4.34851e-05
-1.45814e-05
-3.96159e-05
-1.3586e-05
-3.57212e-05
-1.27259e-05
-3.18147e-05
-1.19762e-05
-2.79009e-05
-1.13006e-05
-2.39651e-05
-1.06467e-05
-1.99478e-05
-9.95152e-06
-1.56878e-05
-9.20157e-06
-1.08005e-05
-4.48712e-06
8.19353e-05
-4.14564e-05
8.61727e-05
-3.35075e-05
8.9696e-05
-2.4099e-05
-1.35858e-05
9.23583e-05
7.52867e-05
-4.60339e-05
7.93236e-05
-3.75443e-05
8.26181e-05
-2.73935e-05
-1.59851e-05
8.50174e-05
6.79852e-05
-5.04042e-05
7.1833e-05
-4.13922e-05
7.49433e-05
-3.05038e-05
-1.81956e-05
7.71538e-05
6.0069e-05
-5.45833e-05
6.37809e-05
-4.5104e-05
6.67955e-05
-3.35184e-05
-2.03364e-05
6.89363e-05
5.16163e-05
-5.86153e-05
5.52894e-05
-4.87771e-05
5.83586e-05
-3.65877e-05
-2.25954e-05
6.06176e-05
4.26974e-05
-6.2558e-05
4.64597e-05
-5.25394e-05
4.97889e-05
-3.99168e-05
-2.5234e-05
5.24275e-05
3.333e-05
-6.64499e-05
3.72939e-05
-5.65033e-05
4.10829e-05
-4.37058e-05
-2.85388e-05
4.43877e-05
2.34802e-05
-7.0276e-05
2.76921e-05
-6.07152e-05
3.20785e-05
-4.80921e-05
-3.27934e-05
3.63331e-05
1.30875e-05
-7.3941e-05
1.74851e-05
-6.51128e-05
2.24888e-05
-5.30958e-05
-3.81331e-05
2.78286e-05
2.09567e-06
-7.72459e-05
6.46485e-06
-6.9482e-05
1.18712e-05
-5.85021e-05
-4.4372e-05
1.811e-05
-9.4135e-06
-7.99238e-05
-5.43183e-06
-7.34636e-05
-4.24376e-08
-6.38915e-05
-5.11069e-05
6.69246e-06
-2.11771e-05
-8.16977e-05
-1.79648e-05
-7.66759e-05
-1.30907e-05
-6.87656e-05
-5.76761e-05
-6.52147e-06
-3.27967e-05
-8.23687e-05
-3.06651e-05
-7.88075e-05
-2.67211e-05
-7.27096e-05
-6.36352e-05
-2.07621e-05
-4.39281e-05
-8.1802e-05
-4.31239e-05
-7.96116e-05
-4.04651e-05
-7.53684e-05
-6.85682e-05
-3.55321e-05
-5.43011e-05
-7.99032e-05
-5.50744e-05
-7.88384e-05
-5.41885e-05
-7.62543e-05
-7.16737e-05
-5.1083e-05
-6.3568e-05
-7.66804e-05
-6.60409e-05
-7.63655e-05
-6.72842e-05
-7.5011e-05
-7.22197e-05
-6.67381e-05
-7.13343e-05
-7.22914e-05
-7.53951e-05
-7.23047e-05
-7.87701e-05
-7.1636e-05
-6.99754e-05
-8.10144e-05
-7.72629e-05
-6.70393e-05
-8.25558e-05
-6.70118e-05
-8.76689e-05
-6.65229e-05
-6.53305e-05
-9.23138e-05
-8.12127e-05
-6.13062e-05
-8.72361e-05
-6.09884e-05
-9.34357e-05
-6.03233e-05
-5.91142e-05
-9.9652e-05
-8.32847e-05
-5.54662e-05
-8.95349e-05
-5.47382e-05
-9.6142e-05
-5.37163e-05
-5.22367e-05
-0.000103019
-8.37652e-05
-4.98181e-05
-8.98406e-05
-4.86628e-05
-9.63168e-05
-4.72401e-05
-4.54166e-05
-0.000103137
-8.30175e-05
-4.45597e-05
-8.86569e-05
-4.30235e-05
-9.46588e-05
-4.12382e-05
-3.90989e-05
-0.000100976
-8.13908e-05
-3.97932e-05
-8.64615e-05
-3.79528e-05
-9.18181e-05
-3.58816e-05
-3.34996e-05
-9.74175e-05
-7.91682e-05
-3.55465e-05
-8.36352e-05
-3.34858e-05
-8.83022e-05
-3.12145e-05
-2.86731e-05
-9.31287e-05
-7.65511e-05
-3.17979e-05
-8.0443e-05
-2.95938e-05
-8.44559e-05
-2.72016e-05
-2.45767e-05
-8.85523e-05
-7.36623e-05
-2.84992e-05
-7.70405e-05
-2.62156e-05
-8.04756e-05
-2.37665e-05
-2.1119e-05
-8.39333e-05
-7.05645e-05
-2.55938e-05
-7.3501e-05
-2.32791e-05
-7.6447e-05
-2.08205e-05
-1.81944e-05
-7.93716e-05
-6.72856e-05
-2.3028e-05
-6.98486e-05
-2.07161e-05
-7.23889e-05
-1.82802e-05
-1.57041e-05
-7.48791e-05
-6.38384e-05
-2.07564e-05
-6.60855e-05
-1.84689e-05
-6.82898e-05
-1.60759e-05
-1.35662e-05
-7.04277e-05
-6.02347e-05
-1.87431e-05
-6.22108e-05
-1.64928e-05
-6.41333e-05
-1.41534e-05
-1.17174e-05
-6.59821e-05
-5.64918e-05
-1.69602e-05
-5.82308e-05
-1.47537e-05
-5.99117e-05
-1.24726e-05
-1.01113e-05
-6.15178e-05
-5.26343e-05
-1.53861e-05
-5.41618e-05
-1.32263e-05
-5.56307e-05
-1.10036e-05
-8.71427e-06
-5.70278e-05
-4.86914e-05
-1.40032e-05
-5.00272e-05
-1.18905e-05
-5.13068e-05
-9.72401e-06
-7.50172e-06
-5.25194e-05
-4.4692e-05
-1.27963e-05
-4.5853e-05
-1.07295e-05
-4.69612e-05
-8.61579e-06
-6.45448e-06
-4.80085e-05
-4.06615e-05
-1.17506e-05
-4.16627e-05
-9.72836e-06
-4.26149e-05
-7.66366e-06
-5.55686e-06
-4.35125e-05
-3.66203e-05
-1.08515e-05
-3.74759e-05
-8.87275e-06
-3.82856e-05
-6.85396e-06
-4.79549e-06
-3.9047e-05
-3.25838e-05
-1.00824e-05
-3.33085e-05
-8.14808e-06
-3.39886e-05
-6.17384e-06
-4.15864e-06
-3.46255e-05
-2.85615e-05
-9.42188e-06
-2.91731e-05
-7.53649e-06
-2.97376e-05
-5.60936e-06
-3.6351e-06
-3.02611e-05
-2.455e-05
-8.83703e-06
-2.50761e-05
-7.01039e-06
-2.55447e-05
-5.14076e-06
-3.21128e-06
-2.59685e-05
-2.05119e-05
-8.273e-06
-2.10045e-05
-6.51781e-06
-2.14164e-05
-4.72886e-06
-2.86339e-06
-2.17643e-05
-1.63195e-05
-7.64125e-06
-1.68856e-05
-5.95181e-06
-1.73381e-05
-4.27635e-06
-2.53853e-06
-1.76629e-05
-1.15885e-05
-6.85322e-06
-1.24066e-05
-5.13372e-06
-1.31506e-05
-3.53241e-06
-2.10031e-06
-1.35888e-05
-5.18834e-06
-6.11992e-06
-7.3431e-06
-8.77859e-06
9.42366e-05
-2.03832e-06
9.49654e-05
1.20328e-05
9.46319e-05
2.55526e-05
9.34206e-05
3.76919e-05
9.16424e-05
4.76504e-05
8.96813e-05
5.49047e-05
8.79042e-05
5.93566e-05
8.65906e-05
6.13244e-05
8.58296e-05
6.15137e-05
8.53475e-05
6.08748e-05
8.47438e-05
6.01508e-05
8.4011e-05
5.93803e-05
8.16286e-05
5.94126e-05
8.04507e-05
6.1755e-05
7.96395e-05
6.31124e-05
7.89879e-05
6.49477e-05
7.857e-05
6.69941e-05
7.83317e-05
6.88786e-05
7.82005e-05
7.04995e-05
7.79409e-05
7.21587e-05
7.68593e-05
7.54434e-05
7.38913e-05
8.33114e-05
6.78797e-05
9.57204e-05
6.0106e-05
0.000110432
5.34708e-05
0.000120683
4.85881e-05
0.000122573
4.46763e-05
0.000119095
4.11193e-05
0.000113875
3.76717e-05
0.000108783
3.42676e-05
0.000104468
3.08914e-05
0.000101094
2.75363e-05
9.86695e-05
2.41938e-05
9.71538e-05
2.08534e-05
9.64959e-05
1.75022e-05
9.66465e-05
1.41243e-05
9.7564e-05
1.07007e-05
9.921e-05
7.20873e-06
0.000101532
3.62464e-06
0.000104382
0.000105966
8.65678e-05
-3.58867e-06
8.69651e-05
1.16355e-05
8.63079e-05
2.62098e-05
8.4796e-05
3.92038e-05
8.28114e-05
4.9635e-05
8.08258e-05
5.68903e-05
7.92687e-05
6.09137e-05
7.84898e-05
6.21034e-05
7.85471e-05
6.14563e-05
7.88331e-05
6.05889e-05
7.85466e-05
6.04374e-05
7.79663e-05
5.99606e-05
7.64335e-05
6.09455e-05
7.58041e-05
6.23844e-05
7.53433e-05
6.35732e-05
7.49933e-05
6.52977e-05
7.48338e-05
6.71536e-05
7.483e-05
6.88824e-05
7.49047e-05
7.04249e-05
7.46181e-05
7.24452e-05
7.26468e-05
7.74147e-05
6.78776e-05
8.80806e-05
6.04042e-05
0.000103194
5.2521e-05
0.000118315
4.68329e-05
0.000126371
4.30458e-05
0.00012636
4.00614e-05
0.000122079
3.72603e-05
0.000116676
3.44401e-05
0.000111603
3.15599e-05
0.000107348
2.86208e-05
0.000104033
2.56315e-05
0.000101659
2.25992e-05
0.000100186
1.9527e-05
9.9568e-05
1.64138e-05
9.97598e-05
1.32537e-05
0.000100724
1.00371e-05
0.000102427
6.75082e-06
0.000104819
3.38236e-06
0.000107751
0.000109348
7.84908e-05
-4.92562e-06
7.86914e-05
1.14349e-05
7.78324e-05
2.70688e-05
7.61092e-05
4.0927e-05
7.39962e-05
5.1748e-05
7.20636e-05
5.88229e-05
7.07595e-05
6.22178e-05
7.04892e-05
6.23737e-05
7.12678e-05
6.06777e-05
7.22074e-05
5.96493e-05
7.23869e-05
6.02579e-05
7.17815e-05
6.0566e-05
7.11967e-05
6.15302e-05
7.11248e-05
6.24563e-05
7.10049e-05
6.36931e-05
7.09735e-05
6.53291e-05
7.10834e-05
6.70437e-05
7.13249e-05
6.86408e-05
7.15118e-05
7.0238e-05
7.08704e-05
7.30866e-05
6.7227e-05
8.10581e-05
6.03688e-05
9.49387e-05
5.1823e-05
0.00011174
4.46114e-05
0.000125527
4.01951e-05
0.000130787
3.75156e-05
0.000129039
3.54066e-05
0.000124188
3.33194e-05
0.000118764
3.10954e-05
0.000113827
2.87178e-05
0.000109726
2.62061e-05
0.000106545
2.35843e-05
0.000104281
2.08716e-05
0.000102899
1.80816e-05
0.000102358
1.52225e-05
0.000102619
1.22974e-05
0.000103649
9.30579e-06
0.000105418
6.24435e-06
0.00010788
3.11419e-06
0.000110881
0.000112462
7.02335e-05
-6.22284e-06
7.04374e-05
1.1231e-05
6.95796e-05
2.79267e-05
6.78387e-05
4.26679e-05
6.58091e-05
5.37777e-05
6.41925e-05
6.04395e-05
6.33623e-05
6.3048e-05
6.36479e-05
6.20881e-05
6.46483e-05
5.96773e-05
6.53702e-05
5.89273e-05
6.5965e-05
5.96631e-05
6.6094e-05
6.04369e-05
6.63703e-05
6.12539e-05
6.66436e-05
6.21831e-05
6.68294e-05
6.35073e-05
6.70814e-05
6.50771e-05
6.74526e-05
6.66725e-05
6.79088e-05
6.81847e-05
6.79331e-05
7.02137e-05
6.57661e-05
7.52536e-05
6.01028e-05
8.67214e-05
5.15911e-05
0.00010345
4.276e-05
0.000120571
3.67825e-05
0.000131504
3.37451e-05
0.000133825
3.21205e-05
0.000130664
3.08072e-05
0.000125501
2.9368e-05
0.000120203
2.76963e-05
0.000115499
2.57953e-05
0.000111627
2.36964e-05
0.000108644
2.14345e-05
0.000106542
1.90403e-05
0.000105293
1.65376e-05
0.000104861
1.39435e-05
0.000105213
1.1269e-05
0.000106324
8.52117e-06
0.000108166
5.70538e-06
0.000110696
2.83299e-06
0.000113753
0.000115295
6.21334e-05
-7.73867e-06
6.26136e-05
1.07509e-05
6.19786e-05
2.85617e-05
6.04396e-05
4.42069e-05
5.88093e-05
5.5408e-05
5.80573e-05
6.11915e-05
5.8404e-05
6.27013e-05
5.97779e-05
6.07142e-05
6.08369e-05
5.86184e-05
6.1075e-05
5.86892e-05
6.13066e-05
5.94316e-05
6.16814e-05
6.00621e-05
6.21887e-05
6.07466e-05
6.26073e-05
6.17645e-05
6.30121e-05
6.31025e-05
6.34823e-05
6.46069e-05
6.40814e-05
6.60734e-05
6.45517e-05
6.77144e-05
6.36194e-05
7.1146e-05
5.91185e-05
7.97545e-05
5.10816e-05
9.47583e-05
4.13673e-05
0.000113165
3.34136e-05
0.000128524
2.92047e-05
0.000135713
2.75949e-05
0.000135434
2.6937e-05
0.000131322
2.63309e-05
0.000126107
2.54703e-05
0.000121064
2.42978e-05
0.000116671
2.28355e-05
0.000113089
2.11257e-05
0.000110354
1.92118e-05
0.000108456
1.71324e-05
0.000107372
1.4919e-05
0.000107074
1.25957e-05
0.000107536
1.0181e-05
0.000108738
7.68907e-06
0.000110658
5.13356e-06
0.000113251
2.53499e-06
0.000116352
0.00011783
5.44857e-05
-9.79678e-06
5.56108e-05
9.62572e-06
5.55074e-05
2.86651e-05
5.43552e-05
4.53591e-05
5.33289e-05
5.64343e-05
5.38509e-05
6.06695e-05
5.59962e-05
6.0556e-05
5.7917e-05
5.87933e-05
5.81313e-05
5.84041e-05
5.77661e-05
5.90544e-05
5.78633e-05
5.93343e-05
5.8243e-05
5.96824e-05
5.86836e-05
6.03059e-05
5.91632e-05
6.12849e-05
5.96879e-05
6.25778e-05
6.03296e-05
6.39652e-05
6.10036e-05
6.53994e-05
6.0774e-05
6.7944e-05
5.73137e-05
7.46063e-05
5.01251e-05
8.69431e-05
4.00883e-05
0.000104795
3.04004e-05
0.000122853
2.44144e-05
0.000134511
2.21697e-05
0.000137958
2.18597e-05
0.000135744
2.2025e-05
0.000131156
2.20241e-05
0.000126108
2.16671e-05
0.000121421
2.09377e-05
0.000117401
1.98736e-05
0.000114153
1.85255e-05
0.000111702
1.69432e-05
0.000110039
1.51706e-05
0.000109145
1.32444e-05
0.000109
1.11946e-05
0.000109586
9.0457e-06
0.000110887
6.81885e-06
0.000112885
4.5351e-06
0.000115535
2.22375e-06
0.000118663
0.000120054
4.73133e-05
-1.27223e-05
4.95322e-05
7.4068e-06
5.0509e-05
2.76883e-05
5.00464e-05
4.58217e-05
4.96294e-05
5.68512e-05
5.13137e-05
5.89853e-05
5.37323e-05
5.81375e-05
5.51986e-05
5.7327e-05
5.51703e-05
5.84324e-05
5.50196e-05
5.92051e-05
5.51299e-05
5.9224e-05
5.53723e-05
5.944e-05
5.57716e-05
5.99067e-05
5.62973e-05
6.07592e-05
5.69487e-05
6.19264e-05
5.76449e-05
6.3269e-05
5.7691e-05
6.53533e-05
5.48532e-05
7.07818e-05
4.85036e-05
8.09559e-05
3.8551e-05
9.68957e-05
2.75776e-05
0.000115769
1.96549e-05
0.000130775
1.62056e-05
0.00013796
1.58213e-05
0.000138342
1.65876e-05
0.000134978
1.74218e-05
0.000130322
1.79216e-05
0.000125609
1.79917e-05
0.00012135
1.76477e-05
0.000117745
1.69396e-05
0.000114861
1.59235e-05
0.000112718
1.46529e-05
0.000111309
1.31753e-05
0.000110623
1.15311e-05
0.000110644
9.7545e-06
0.000111363
7.87513e-06
0.000112767
5.92014e-06
0.00011484
3.91719e-06
0.000117538
1.90338e-06
0.000120677
0.000121957
4.05242e-05
-1.69134e-05
4.42788e-05
3.65214e-06
4.70827e-05
2.48844e-05
4.80727e-05
4.48317e-05
4.85908e-05
5.63332e-05
5.11711e-05
5.64049e-05
5.31757e-05
5.6133e-05
5.30194e-05
5.74833e-05
5.2865e-05
5.85868e-05
5.28459e-05
5.92242e-05
5.2711e-05
5.93589e-05
5.28725e-05
5.92785e-05
5.33081e-05
5.94711e-05
5.39493e-05
6.01179e-05
5.47321e-05
6.11435e-05
5.48831e-05
6.3118e-05
5.22001e-05
6.80363e-05
4.62164e-05
7.67655e-05
3.65113e-05
9.0661e-05
2.47757e-05
0.000108631
1.50538e-05
0.00012549
1.00671e-05
0.000135762
9.1481e-06
0.000138879
1.02439e-05
0.000137246
1.18089e-05
0.000133413
1.31492e-05
0.000128982
1.40441e-05
0.000124714
1.4465e-05
0.00012093
1.44497e-05
0.00011776
1.40551e-05
0.000115256
1.33402e-05
0.000113433
1.23602e-05
0.000112289
1.1164e-05
0.000111819
9.79434e-06
0.000112014
8.28855e-06
0.000112868
6.6803e-06
0.000114375
5.00163e-06
0.000116518
3.28589e-06
0.000119254
1.57681e-06
0.000122386
0.000123534
3.3553e-05
-2.26379e-05
3.89964e-05
-1.79131e-06
4.42806e-05
1.96002e-05
4.79247e-05
4.11877e-05
4.93352e-05
5.49226e-05
5.10126e-05
5.47275e-05
5.12625e-05
5.5883e-05
5.1424e-05
5.73218e-05
5.15486e-05
5.84622e-05
5.14566e-05
5.93162e-05
5.08248e-05
5.99908e-05
5.05412e-05
5.9562e-05
5.10209e-05
5.89914e-05
5.17093e-05
5.94296e-05
5.21234e-05
6.07294e-05
4.99133e-05
6.53282e-05
4.38367e-05
7.41129e-05
3.38593e-05
8.67429e-05
2.16508e-05
0.000102869
1.06259e-05
0.000119656
4.10239e-06
0.000132014
2.29423e-06
0.00013757
3.35161e-06
0.000137822
5.43558e-06
0.000135162
7.52149e-06
0.000131327
9.20964e-06
0.000127294
1.03977e-05
0.000123526
1.10967e-05
0.000120231
1.13557e-05
0.000117501
1.12341e-05
0.000115378
1.07906e-05
0.000113876
1.00799e-05
0.000113
9.15089e-06
0.000112748
8.0473e-06
0.000113118
6.80853e-06
0.000114107
5.47124e-06
0.000115712
4.07133e-06
0.000117918
2.64671e-06
0.000120678
1.2467e-06
0.000123786
0.000124781
2.54185e-05
-2.99464e-05
3.25446e-05
-8.91736e-06
4.02962e-05
1.18486e-05
4.71843e-05
3.42996e-05
4.90976e-05
5.30094e-05
4.92836e-05
5.45415e-05
4.96417e-05
5.55249e-05
5.0129e-05
5.68346e-05
5.03467e-05
5.82445e-05
5.00715e-05
5.95913e-05
4.93094e-05
6.07529e-05
4.80254e-05
6.0846e-05
4.80564e-05
5.89605e-05
4.77427e-05
5.97433e-05
4.47718e-05
6.37003e-05
3.88668e-05
7.12332e-05
2.95472e-05
8.34325e-05
1.75718e-05
9.87183e-05
6.04469e-06
0.000114397
-1.61224e-06
0.000127313
-4.35943e-06
0.000134761
-3.6369e-06
0.000136848
-1.33233e-06
0.000135517
1.30671e-06
0.000132523
3.68016e-06
0.000128954
5.58041e-06
0.000125393
6.97181e-06
0.000122134
7.884e-06
0.000119318
8.36883e-06
0.000117016
8.48354e-06
0.000115263
8.28412e-06
0.000114075
7.82277e-06
0.000113461
7.14725e-06
0.000113423
6.30115e-06
0.000113964
5.32493e-06
0.000115083
4.25726e-06
0.00011678
3.13682e-06
0.000119039
2.00491e-06
0.00012181
9.15479e-07
0.000124876
0.000125696
1.52804e-05
-3.85343e-05
2.37649e-05
-1.74018e-05
3.28946e-05
2.71895e-06
4.33485e-05
2.38456e-05
4.62164e-05
5.01414e-05
4.72961e-05
5.34618e-05
4.80239e-05
5.47971e-05
4.85726e-05
5.62859e-05
4.88006e-05
5.80165e-05
4.83828e-05
6.00091e-05
4.69786e-05
6.21572e-05
4.38318e-05
6.39927e-05
4.0199e-05
6.25933e-05
3.7747e-05
6.21953e-05
3.23633e-05
6.9084e-05
2.32356e-05
8.03608e-05
1.20571e-05
9.46111e-05
1.14024e-06
0.000109635
-6.87848e-06
0.000122415
-1.04664e-05
0.000130901
-1.02947e-05
0.000134589
-8.07065e-06
0.000134624
-5.15109e-06
0.000132597
-2.28304e-06
0.000129655
2.07184e-07
0.000126463
2.21633e-06
0.000123384
3.74021e-06
0.00012061
4.81336e-06
0.000118245
5.48408e-06
0.000116346
5.80442e-06
0.000114943
5.82562e-06
0.000114054
5.59633e-06
0.00011369
5.16205e-06
0.000113858
4.56548e-06
0.00011456
3.84725e-06
0.000115802
3.04717e-06
0.00011758
2.20559e-06
0.00011988
1.36565e-06
0.00012265
5.843e-07
0.000125657
0.00012628
2.55936e-06
-4.76151e-05
1.20256e-05
-2.6868e-05
2.15947e-05
-6.85018e-06
3.31101e-05
1.23302e-05
4.27722e-05
4.04794e-05
4.46047e-05
5.16293e-05
4.56449e-05
5.37569e-05
4.62968e-05
5.5634e-05
4.65237e-05
5.77896e-05
4.61272e-05
6.04056e-05
4.48041e-05
6.34802e-05
4.21414e-05
6.66555e-05
3.64858e-05
6.82488e-05
3.03328e-05
6.83483e-05
2.1049e-05
7.83678e-05
9.26986e-06
9.214e-05
-2.14513e-06
0.000106026
-1.07301e-05
0.00011822
-1.52868e-05
0.000126972
-1.60413e-05
0.000131656
-1.43093e-05
0.000132857
-1.14616e-05
0.000131776
-8.37364e-06
0.000129509
-5.48851e-06
0.00012677
-2.99294e-06
0.000123968
-9.42824e-07
0.000121334
6.6581e-07
0.000119002
1.86306e-06
0.000117048
2.69042e-06
0.000115518
3.19314e-06
0.00011444
3.41675e-06
0.000113831
3.40566e-06
0.000113702
3.20263e-06
0.000114061
2.84884e-06
0.000114914
2.38447e-06
0.000116266
1.84965e-06
0.000118115
1.28544e-06
0.000120444
7.34773e-07
0.000123201
2.5065e-07
0.000126141
0.000126531
-1.17902e-05
-5.6587e-05
-1.23273e-06
-3.74254e-05
8.65675e-06
-1.67397e-05
1.87026e-05
2.28434e-06
3.51417e-05
2.40403e-05
4.04085e-05
4.63624e-05
4.20475e-05
5.21179e-05
4.28977e-05
5.47838e-05
4.32217e-05
5.74656e-05
4.29579e-05
6.06694e-05
4.19197e-05
6.45184e-05
3.98639e-05
6.87113e-05
3.50745e-05
7.30382e-05
2.53871e-05
7.80357e-05
1.21792e-05
9.15757e-05
-1.04986e-06
0.000105369
-1.15376e-05
0.000116514
-1.78749e-05
0.000124557
-2.01806e-05
0.000129278
-1.95324e-05
0.000131007
-1.72348e-05
0.00013056
-1.42872e-05
0.000128828
-1.12695e-05
0.000126492
-8.47166e-06
0.000123972
-6.02186e-06
0.000121518
-3.96302e-06
0.000119275
-2.29433e-06
0.000117333
-9.93156e-07
0.000115747
-2.64246e-08
0.000114551
6.43786e-07
0.00011377
1.05741e-06
0.000113417
1.25473e-06
0.000113504
1.2756e-06
0.00011404
1.15942e-06
0.00011503
9.45481e-07
0.00011648
6.7362e-07
0.000118386
3.85101e-07
0.000120733
1.2376e-07
0.000123462
-8.15944e-08
0.000126346
0.000126449
-2.70898e-05
-6.50293e-05
-1.58513e-05
-4.8664e-05
-3.75778e-06
-2.88331e-05
7.83384e-06
-9.30727e-06
2.28593e-05
9.0149e-06
3.40567e-05
3.5165e-05
3.66786e-05
4.9496e-05
3.79186e-05
5.35438e-05
3.84377e-05
5.69465e-05
3.84234e-05
6.06837e-05
3.78017e-05
6.51402e-05
3.57898e-05
7.07231e-05
3.08655e-05
7.79626e-05
1.82837e-05
9.06175e-05
3.04644e-06
0.000106813
-9.70005e-06
0.000118116
-1.83272e-05
0.000125141
-2.26736e-05
0.000128904
-2.35955e-05
0.0001302
-2.23018e-05
0.000129714
-1.98578e-05
0.000128116
-1.69823e-05
0.000125953
-1.40858e-05
0.000123595
-1.13829e-05
0.00012127
-8.97672e-06
0.000119112
-6.90746e-06
0.000117206
-5.18013e-06
0.000115606
-3.7798e-06
0.000114347
-2.68041e-06
0.000113452
-1.84979e-06
0.000112939
-1.2527e-06
0.00011282
-8.52576e-07
0.000113104
-6.12304e-07
0.000113799
-4.94382e-07
0.000114912
-4.60761e-07
0.000116446
-4.72535e-07
0.000118398
-4.89982e-07
0.00012075
-4.77564e-07
0.00012345
-4.63709e-07
0.000126333
0.000125986
-4.44487e-05
-7.16636e-05
-3.42294e-05
-5.88832e-05
-2.11251e-05
-4.19375e-05
-8.29639e-06
-2.2136e-05
3.58691e-06
-2.86841e-06
2.00754e-05
1.86765e-05
2.88379e-05
4.07335e-05
3.08863e-05
5.14954e-05
3.16694e-05
5.61634e-05
3.18438e-05
6.05093e-05
3.16945e-05
6.52895e-05
2.98551e-05
7.25625e-05
2.17497e-05
8.60679e-05
6.19278e-06
0.000106174
-8.1005e-06
0.000121106
-1.86316e-05
0.000128647
-2.48039e-05
0.000131313
-2.72588e-05
0.000131359
-2.70697e-05
0.00013001
-2.52889e-05
0.000127933
-2.27123e-05
0.000125539
-1.98515e-05
0.000123092
-1.70052e-05
0.000120749
-1.43376e-05
0.000118602
-1.19328e-05
0.000116707
-9.82636e-06
0.0001151
-8.02502e-06
0.000113804
-6.51757e-06
0.000112839
-5.28219e-06
0.000112217
-4.29071e-06
0.000111948
-3.51136e-06
0.000112041
-2.91042e-06
0.000112503
-2.45305e-06
0.000113342
-2.10351e-06
0.000114563
-1.82526e-06
0.000116168
-1.58101e-06
0.000118154
-1.3337e-06
0.000120503
-1.05708e-06
0.000123173
-8.22657e-07
0.000126098
0.000125163
-6.33304e-05
-7.50714e-05
-5.63136e-05
-6.59e-05
-4.53528e-05
-5.28983e-05
-3.18515e-05
-3.56373e-05
-1.87241e-05
-1.59958e-05
-3.51487e-06
3.46724e-06
1.38169e-05
2.34017e-05
2.20802e-05
4.32321e-05
2.31429e-05
5.51007e-05
2.31182e-05
6.05341e-05
2.21099e-05
6.62978e-05
2.02007e-05
7.44717e-05
9.98791e-06
9.62807e-05
-6.91014e-06
0.000123072
-2.08312e-05
0.000135027
-2.88143e-05
0.00013663
-3.22732e-05
0.000134772
-3.2733e-05
0.000131819
-3.13417e-05
0.000128619
-2.89265e-05
0.000125518
-2.60438e-05
0.000122657
-2.30399e-05
0.000120088
-2.01192e-05
0.000117828
-1.73965e-05
0.000115879
-1.4931e-05
0.000114241
-1.27468e-05
0.000112915
-1.08457e-05
0.000111903
-9.21558e-06
0.000111209
-7.83528e-06
0.000110836
-6.67824e-06
0.000110791
-5.71461e-06
0.000111077
-4.91255e-06
0.000111701
-4.23899e-06
0.000112668
-3.65987e-06
0.000113984
-3.14042e-06
0.000115649
-2.6455e-06
0.000117659
-2.14207e-06
0.00012
-1.61522e-06
0.000122646
-1.15632e-06
0.000125639
0.000124007
-8.15656e-05
-7.45201e-05
-7.93067e-05
-6.8159e-05
-7.34798e-05
-5.87252e-05
-6.34038e-05
-4.57133e-05
-5.02366e-05
-2.9163e-05
-3.54402e-05
-1.13292e-05
-1.84144e-05
6.37598e-06
5.57131e-07
2.42605e-05
1.03824e-05
4.52754e-05
1.03813e-05
6.05351e-05
4.19448e-06
7.24847e-05
-7.31076e-06
8.59769e-05
-2.14506e-05
0.000110421
-3.35917e-05
0.000135214
-3.99583e-05
0.000141394
-4.20918e-05
0.000138763
-4.15787e-05
0.000134259
-3.95053e-05
0.000129745
-3.65791e-05
0.000125693
-3.3265e-05
0.000122204
-2.986e-05
0.000119252
-2.65449e-05
0.000116773
-2.34255e-05
0.000114709
-2.05591e-05
0.000113013
-1.79715e-05
0.000111654
-1.56678e-05
0.000110612
-1.36395e-05
0.000109875
-1.1869e-05
0.000109438
-1.03328e-05
0.0001093
-9.00388e-06
0.000109462
-7.85279e-06
0.000109926
-6.84873e-06
0.000110697
-5.95996e-06
0.00011178
-5.15408e-06
0.000113178
-4.39826e-06
0.000114893
-3.66e-06
0.000116921
-2.91087e-06
0.000119251
-2.14609e-06
0.000121882
-1.45708e-06
0.00012495
0.00012255
-9.65158e-05
-7.03182e-05
-9.90969e-05
-6.55779e-05
-9.93302e-05
-5.84919e-05
-9.63757e-05
-4.86678e-05
-8.9684e-05
-3.58547e-05
-8.05709e-05
-2.04422e-05
-7.04809e-05
-3.71408e-06
-6.03379e-05
1.41176e-05
-4.97314e-05
3.46688e-05
-4.51905e-05
5.59942e-05
-4.90113e-05
7.63055e-05
-5.92944e-05
9.62599e-05
-6.70698e-05
0.000118196
-6.62407e-05
0.000134384
-6.18526e-05
0.000137006
-5.68689e-05
0.00013378
-5.18757e-05
0.000129266
-4.7022e-05
0.000124892
-4.23855e-05
0.000121056
-3.80224e-05
0.000117841
-3.39665e-05
0.000115196
-3.02361e-05
0.000113043
-2.68376e-05
0.00011131
-2.37674e-05
0.000109943
-2.1014e-05
0.0001089
-1.856e-05
0.000108158
-1.6383e-05
0.000107698
-1.44579e-05
0.000107513
-1.27568e-05
0.000107599
-1.12509e-05
0.000107956
-9.91022e-06
0.000108585
-8.70448e-06
0.000109491
-7.60304e-06
0.000110678
-6.57509e-06
0.00011215
-5.58991e-06
0.000113908
-4.61784e-06
0.000115949
-3.63502e-06
0.000118268
-2.64421e-06
0.000120891
-1.72243e-06
0.000124028
0.000120827
-0.000106361
-6.36095e-05
-0.000112467
-5.94719e-05
-0.000117515
-5.34431e-05
-0.000120952
-4.52312e-05
-0.000122196
-3.46103e-05
-0.000121166
-2.14723e-05
-0.000118766
-6.11458e-06
-0.00011595
1.13013e-05
-0.000112425
3.1144e-05
-0.000109525
5.30946e-05
-0.000108304
7.50844e-05
-0.000107625
9.55811e-05
-0.000102098
0.000112668
-9.0732e-05
0.000123019
-7.92054e-05
0.000125479
-6.93284e-05
0.000123903
-6.1053e-05
0.00012099
-5.40321e-05
0.000117871
-4.79843e-05
0.000115009
-4.27011e-05
0.000112557
-3.80386e-05
0.000110533
-3.38984e-05
0.000108903
-3.02104e-05
0.000107622
-2.69211e-05
0.000106653
-2.39871e-05
0.000105966
-2.13701e-05
0.000105541
-1.9035e-05
0.000105363
-1.69487e-05
0.000105427
-1.50791e-05
0.00010573
-1.3395e-05
0.000106272
-1.18658e-05
0.000107056
-1.04617e-05
0.000108087
-9.15299e-06
0.00010937
-7.91057e-06
0.000110907
-6.70583e-06
0.000112703
-5.51198e-06
0.000114755
-4.3091e-06
0.000117065
-3.10404e-06
0.000119686
-1.94989e-06
0.000122874
0.000118877
-0.000110869
-5.57601e-05
-0.000118673
-5.16676e-05
-0.000126144
-4.59719e-05
-0.000132928
-3.84471e-05
-0.000138654
-2.88846e-05
-0.00014297
-1.71566e-05
-0.000145778
-3.30613e-06
-0.000147114
1.2637e-05
-0.000146567
3.05967e-05
-0.00014358
5.01077e-05
-0.000138071
6.95759e-05
-0.000129437
8.69471e-05
-0.000117085
0.000100316
-0.000102579
0.000108512
-8.89682e-05
0.000111869
-7.73514e-05
0.000112286
-6.76542e-05
0.000111293
-5.95477e-05
0.000109764
-5.26988e-05
0.00010816
-4.68355e-05
0.000106694
-4.17541e-05
0.000105452
-3.73063e-05
0.000104455
-3.33833e-05
0.000103699
-2.99037e-05
0.000103174
-2.68036e-05
0.000102866
-2.40313e-05
0.000102768
-2.15425e-05
0.000102874
-1.92985e-05
0.000103183
-1.7264e-05
0.000103695
-1.54063e-05
0.000104414
-1.36947e-05
0.000105344
-1.20997e-05
0.000106492
-1.05932e-05
0.000107863
-9.14751e-06
0.000109462
-7.73626e-06
0.000111292
-6.33517e-06
0.000113354
-4.92731e-06
0.000115657
-3.51997e-06
0.000118278
-2.13781e-06
0.000121492
0.00011674
-0.000111048
-4.78486e-05
-0.000119093
-4.36229e-05
-0.000127039
-3.80266e-05
-0.000134588
-3.08979e-05
-0.000141392
-2.20799e-05
-0.000147066
-1.14826e-05
-0.000151255
8.8231e-07
-0.000153521
1.49035e-05
-0.000153256
3.03316e-05
-0.000149713
4.65647e-05
-0.000142576
6.24382e-05
-0.000132087
7.64588e-05
-0.000119185
8.74143e-05
-0.000105476
9.48026e-05
-9.25998e-05
9.89929e-05
-8.12675e-05
0.000100953
-7.15517e-05
0.000101577
-6.32832e-05
0.000101496
-5.62267e-05
0.000101103
-5.0159e-05
0.000100626
-4.48943e-05
0.000100187
-4.02858e-05
9.98462e-05
-3.62197e-05
9.96332e-05
-3.26071e-05
9.95612e-05
-2.93777e-05
9.9637e-05
-2.64742e-05
9.98649e-05
-2.38489e-05
0.000100249
-2.14605e-05
0.000100795
-1.92727e-05
0.000101507
-1.72527e-05
0.000102394
-1.53703e-05
0.000103462
-1.35972e-05
0.000104719
-1.19067e-05
0.000106172
-1.0273e-05
0.000107828
-8.67155e-06
0.00010969
-7.08023e-06
0.000111763
-5.48384e-06
0.000114061
-3.887e-06
0.000116682
-2.28604e-06
0.000119891
0.000114454
-0.000108306
-4.05187e-05
-0.00011576
-3.61692e-05
-0.000123122
-3.06646e-05
-0.000130117
-2.39028e-05
-0.000136408
-1.57888e-05
-0.000141612
-6.27926e-06
-0.000145316
4.58642e-06
-0.000147055
1.66425e-05
-0.000146308
2.95843e-05
-0.000142604
4.28615e-05
-0.000135817
5.56503e-05
-0.000126388
6.70303e-05
-0.00011526
7.62858e-05
-0.000103606
8.31486e-05
-9.24271e-05
8.78145e-05
-8.22569e-05
9.07832e-05
-7.32614e-05
9.25818e-05
-6.54049e-05
9.36391e-05
-5.85646e-05
9.42627e-05
-5.25948e-05
9.46566e-05
-4.73577e-05
9.49498e-05
-4.27337e-05
9.52223e-05
-3.86239e-05
9.55233e-05
-3.49469e-05
9.58843e-05
-3.16362e-05
9.63263e-05
-2.86364e-05
9.68651e-05
-2.59009e-05
9.75136e-05
-2.33897e-05
9.82833e-05
-2.10674e-05
9.9185e-05
-1.89028e-05
0.000100229
-1.68671e-05
0.000101426
-1.49338e-05
0.000102786
-1.30778e-05
0.000104316
-1.12751e-05
0.000106025
-9.50278e-06
0.000107918
-7.74039e-06
0.00011
-5.97336e-06
0.000112294
-4.20141e-06
0.00011491
-2.39624e-06
0.000118086
0.000112057
-0.000103866
-3.407e-05
-0.000110366
-2.96695e-05
-0.000116718
-2.43128e-05
-0.000122673
-1.7947e-05
-0.000127934
-1.05288e-05
-0.000132156
-2.05645e-06
-0.000134977
7.40711e-06
-0.000136018
1.76837e-05
-0.000134925
2.84908e-05
-0.000131463
3.93994e-05
-0.000125668
4.98553e-05
-0.000117929
5.92912e-05
-0.000108924
6.72816e-05
-9.94278e-05
7.3652e-05
-9.00979e-05
7.84846e-05
-8.13496e-05
8.20349e-05
-7.33766e-05
8.46088e-05
-6.62231e-05
8.64856e-05
-5.985e-05
8.78896e-05
-5.41806e-05
8.89872e-05
-4.91276e-05
8.98968e-05
-4.46065e-05
9.07012e-05
-4.05414e-05
9.14582e-05
-3.68662e-05
9.22091e-05
-3.35244e-05
9.29845e-05
-3.04676e-05
9.38083e-05
-2.7654e-05
9.47e-05
-2.50472e-05
9.56765e-05
-2.26152e-05
9.6753e-05
-2.03292e-05
9.79433e-05
-1.8163e-05
9.92601e-05
-1.6092e-05
0.000100715
-1.40929e-05
0.000102317
-1.21434e-05
0.000104076
-1.02222e-05
0.000105997
-8.30984e-06
0.000108088
-6.39152e-06
0.000110375
-4.46124e-06
0.000112979
-2.47187e-06
0.000116097
0.000109585
-9.86241e-05
-2.85746e-05
-0.00010409
-2.42036e-05
-0.000109352
-1.90507e-05
-0.000114199
-1.31002e-05
-0.000118382
-6.34555e-06
-0.000121629
1.19081e-06
-0.00012365
9.42781e-06
-0.000124176
1.82097e-05
-0.000122988
2.73031e-05
-0.000119985
3.63958e-05
-0.000115251
4.51212e-05
-0.000109083
5.31231e-05
-0.000101936
6.01348e-05
-9.43154e-05
6.60316e-05
-8.66653e-05
7.08345e-05
-7.93004e-05
7.467e-05
-7.24033e-05
7.77117e-05
-6.60539e-05
8.01362e-05
-6.02641e-05
8.20999e-05
-5.50071e-05
8.37302e-05
-5.02373e-05
8.5127e-05
-4.59024e-05
8.63663e-05
-4.19506e-05
8.75064e-05
-3.83335e-05
8.8592e-05
-3.50072e-05
8.96582e-05
-3.19326e-05
9.07337e-05
-2.90752e-05
9.18425e-05
-2.64039e-05
9.30052e-05
-2.3891e-05
9.42401e-05
-2.15113e-05
9.55635e-05
-1.92412e-05
9.69899e-05
-1.70584e-05
9.8532e-05
-1.49417e-05
0.000100201
-1.28702e-05
0.000102004
-1.08239e-05
0.00010395
-8.78409e-06
0.000106048
-6.73541e-06
0.000108327
-4.6661e-06
0.00011091
-2.51675e-06
0.000113947
0.000107069
-9.31525e-05
-2.39744e-05
-9.76574e-05
-1.96987e-05
-0.000101921
-1.47874e-05
-0.000105772
-9.24913e-06
-0.000109017
-3.10053e-06
-0.000111448
3.62201e-06
-0.000112856
1.08361e-05
-0.000113059
1.84121e-05
-0.000111926
2.61703e-05
-0.000109419
3.38892e-05
-0.000105623
4.13252e-05
-0.000100748
4.8248e-05
-9.50958e-05
5.44824e-05
-8.8999e-05
5.99347e-05
-8.27608e-05
6.45963e-05
-7.66155e-05
6.85247e-05
-7.07196e-05
7.18157e-05
-6.51617e-05
7.45783e-05
-5.99799e-05
7.6918e-05
-5.51786e-05
7.89289e-05
-5.0742e-05
8.06905e-05
-4.66439e-05
8.22682e-05
-4.28532e-05
8.37157e-05
-3.9338e-05
8.50767e-05
-3.60672e-05
8.63874e-05
-3.30118e-05
8.76783e-05
-3.01449e-05