/*--------------------------------*- C++ -*----------------------------------*\
| =========                 |                                                 |
| \\      /  F ield         | OpenFOAM: The Open Source CFD Toolbox           |
|  \\    /   O peration     | Version:  5.0                                   |
|   \\  /    A nd           | Web:      www.OpenFOAM.org                      |
|    \\/     M anipulation  |                                                 |
\*---------------------------------------------------------------------------*/
FoamFile
{
    version     2.0;
    format      ascii;
    class       volVectorField;
    location    "0.4";
    object      U;
}
// * * * * * * * * * * * * * * * * * * * * * * * * * * * * * * * * * * * * * //

dimensions      [0 1 -1 0 0 0 0];

internalField   nonuniform List<vector> 
1935
(
(0.770025 -0.518934 0)
(0.697937 -0.57601 0)
(0.620621 -0.630852 0)
(0.538407 -0.682781 0)
(0.451778 -0.731789 0)
(0.361396 -0.777902 0)
(0.267853 -0.821123 0)
(0.171691 -0.861131 0)
(0.0735325 -0.897079 0)
(-0.0257115 -0.927432 0)
(-0.124328 -0.950094 0)
(-0.219856 -0.962879 0)
(-0.309729 -0.964206 0)
(-0.39182 -0.953242 0)
(-0.464479 -0.929692 0)
(-0.526166 -0.893926 0)
(-0.575515 -0.847289 0)
(-0.611654 -0.792204 0)
(-0.634638 -0.731929 0)
(-0.645572 -0.66985 0)
(-0.646305 -0.608872 0)
(-0.638967 -0.551113 0)
(-0.625553 -0.497823 0)
(-0.607691 -0.44953 0)
(-0.586575 -0.406223 0)
(-0.56299 -0.36757 0)
(-0.537421 -0.333106 0)
(-0.510187 -0.302351 0)
(-0.481539 -0.274865 0)
(-0.45172 -0.250285 0)
(-0.420996 -0.228342 0)
(-0.389659 -0.208826 0)
(-0.358003 -0.191556 0)
(-0.326291 -0.176365 0)
(-0.294732 -0.163088 0)
(-0.263479 -0.151563 0)
(-0.232619 -0.14161 0)
(-0.202161 -0.133005 0)
(-0.171949 -0.125431 0)
(-0.141483 -0.118386 0)
(-0.109554 -0.111272 0)
(-0.0736215 -0.104107 0)
(-0.0292662 -0.0936055 0)
(0.823105 -0.446676 0)
(0.870027 -0.359077 0)
(0.910571 -0.255866 0)
(0.94275 -0.140873 0)
(0.748344 -0.500206 0)
(0.792954 -0.406368 0)
(0.830948 -0.294742 0)
(0.860317 -0.169669 0)
(0.668338 -0.551235 0)
(0.710577 -0.451222 0)
(0.746344 -0.331053 0)
(0.773623 -0.195607 0)
(0.583388 -0.599921 0)
(0.623632 -0.494132 0)
(0.657948 -0.365629 0)
(0.684231 -0.219953 0)
(0.494255 -0.64662 0)
(0.533238 -0.535931 0)
(0.567352 -0.399821 0)
(0.594335 -0.2444 0)
(0.401682 -0.691967 0)
(0.440312 -0.577995 0)
(0.475831 -0.435755 0)
(0.505845 -0.271673 0)
(0.306056 -0.736626 0)
(0.345001 -0.621833 0)
(0.383401 -0.475815 0)
(0.419168 -0.304472 0)
(0.207452 -0.780829 0)
(0.246783 -0.668515 0)
(0.288891 -0.522275 0)
(0.332286 -0.347216 0)
(0.105869 -0.824023 0)
(0.144741 -0.718117 0)
(0.190115 -0.576284 0)
(0.241085 -0.402302 0)
(0.00152187 -0.864492 0)
(0.0379141 -0.769025 0)
(0.0843012 -0.636678 0)
(0.14067 -0.469169 0)
(-0.104421 -0.899407 0)
(-0.0734301 -0.817725 0)
(-0.0296161 -0.699615 0)
(0.0274792 -0.544934 0)
(-0.209197 -0.925447 0)
(-0.186588 -0.859717 0)
(-0.149464 -0.759348 0)
(-0.0962784 -0.622041 0)
(-0.309544 -0.939839 0)
(-0.297498 -0.890973 0)
(-0.270241 -0.810731 0)
(-0.224977 -0.694801 0)
(-0.402679 -0.940746 0)
(-0.402687 -0.908465 0)
(-0.387974 -0.849745 0)
(-0.354188 -0.758926 0)
(-0.486479 -0.926758 0)
(-0.499709 -0.90915 0)
(-0.500527 -0.871217 0)
(-0.483759 -0.807133 0)
(-0.558594 -0.89722 0)
(-0.585135 -0.890545 0)
(-0.603098 -0.869567 0)
(-0.607631 -0.82922 0)
(-0.616637 -0.853032 0)
(-0.654946 -0.852457 0)
(-0.689043 -0.842451 0)
(-0.715255 -0.819008 0)
(-0.658816 -0.796922 0)
(-0.705766 -0.797689 0)
(-0.752323 -0.79227 0)
(-0.796216 -0.77758 0)
(-0.684768 -0.733077 0)
(-0.736397 -0.731568 0)
(-0.790206 -0.725662 0)
(-0.845 -0.71289 0)
(-0.695773 -0.666065 0)
(-0.74827 -0.660224 0)
(-0.804179 -0.650829 0)
(-0.862903 -0.635833 0)
(-0.694321 -0.599831 0)
(-0.744714 -0.588993 0)
(-0.798724 -0.574987 0)
(-0.856013 -0.556122 0)
(-0.683342 -0.537211 0)
(-0.729742 -0.521648 0)
(-0.779353 -0.503146 0)
(-0.831926 -0.480352 0)
(-0.665578 -0.479855 0)
(-0.707079 -0.460343 0)
(-0.751104 -0.43809 0)
(-0.797431 -0.412058 0)
(-0.64323 -0.428443 0)
(-0.679661 -0.405945 0)
(-0.717872 -0.380926 0)
(-0.757656 -0.352607 0)
(-0.617866 -0.382943 0)
(-0.649527 -0.358408 0)
(-0.682293 -0.331598 0)
(-0.715969 -0.301933 0)
(-0.590462 -0.342891 0)
(-0.617885 -0.317127 0)
(-0.645868 -0.28935 0)
(-0.674227 -0.259126 0)
(-0.561553 -0.30765 0)
(-0.58533 -0.281293 0)
(-0.60927 -0.253178 0)
(-0.633193 -0.222988 0)
(-0.531421 -0.27658 0)
(-0.552105 -0.250096 0)
(-0.572683 -0.22209 0)
(-0.592988 -0.192341 0)
(-0.500249 -0.2491 0)
(-0.518304 -0.222803 0)
(-0.536083 -0.195199 0)
(-0.553447 -0.166142 0)
(-0.468208 -0.224736 0)
(-0.484001 -0.198813 0)
(-0.499422 -0.171783 0)
(-0.514365 -0.143549 0)
(-0.435503 -0.203134 0)
(-0.449315 -0.177686 0)
(-0.462716 -0.151312 0)
(-0.47562 -0.12394 0)
(-0.402378 -0.18403 0)
(-0.41443 -0.159106 0)
(-0.426065 -0.133408 0)
(-0.43721 -0.106882 0)
(-0.369097 -0.167209 0)
(-0.379566 -0.142827 0)
(-0.389629 -0.117788 0)
(-0.399226 -0.0920584 0)
(-0.335906 -0.15248 0)
(-0.344942 -0.128634 0)
(-0.353591 -0.104217 0)
(-0.361808 -0.079218 0)
(-0.303006 -0.139668 0)
(-0.310744 -0.116338 0)
(-0.318115 -0.0925009 0)
(-0.325096 -0.0681589 0)
(-0.27055 -0.12861 0)
(-0.277118 -0.105776 0)
(-0.283338 -0.0824766 0)
(-0.289207 -0.0587196 0)
(-0.23864 -0.119137 0)
(-0.244176 -0.0967953 0)
(-0.249367 -0.0740051 0)
(-0.254234 -0.0507674 0)
(-0.207323 -0.111049 0)
(-0.211992 -0.089228 0)
(-0.216291 -0.0669474 0)
(-0.220262 -0.0441809 0)
(-0.176527 -0.104055 0)
(-0.180571 -0.0828331 0)
(-0.184166 -0.0611228 0)
(-0.187372 -0.0388256 0)
(-0.14589 -0.0976592 0)
(-0.149719 -0.0771875 0)
(-0.152962 -0.0562464 0)
(-0.155629 -0.0345507 0)
(-0.114343 -0.0911424 0)
(-0.118703 -0.0715971 0)
(-0.12235 -0.0518512 0)
(-0.125017 -0.0312313 0)
(-0.0791443 -0.0839826 0)
(-0.0849715 -0.0650078 0)
(-0.0904703 -0.0464918 0)
(-0.0945317 -0.0273232 0)
(-0.0336833 -0.0709283 0)
(-0.0393357 -0.0494051 0)
(-0.0463884 -0.0292158 0)
(-0.054027 -0.0127849 0)
(0.966983 -0.0122932 0)
(0.980482 0.125659 0)
(0.982275 0.258455 0)
(0.973727 0.378172 0)
(0.95738 0.477359 0)
(0.937092 0.551064 0)
(0.917019 0.598186 0)
(0.900586 0.621468 0)
(0.889443 0.62689 0)
(0.883574 0.622164 0)
(0.882736 0.614502 0)
(0.888759 0.606833 0)
(0.844012 0.596588 0)
(0.831421 0.62608 0)
(0.826515 0.641912 0)
(0.819761 0.661297 0)
(0.813601 0.68336 0)
(0.810171 0.70357 0)
(0.809005 0.720968 0)
(0.808361 0.737767 0)
(0.804852 0.76502 0)
(0.791587 0.832542 0)
(0.736669 0.943928 0)
(0.660719 1.08811 0)
(0.580017 1.20167 0)
(0.522556 1.23064 0)
(0.480222 1.19982 0)
(0.442669 1.14788 0)
(0.406722 1.09602 0)
(0.371494 1.05186 0)
(0.336558 1.0173 0)
(0.301764 0.992445 0)
(0.267107 0.976877 0)
(0.232585 0.970061 0)
(0.198105 0.971475 0)
(0.16347 0.980669 0)
(0.128448 0.997228 0)
(0.0932021 1.0206 0)
(0.0571055 1.04927 0)
(0.0215398 1.06529 0)
(0.881341 -0.0296726 0)
(0.891373 0.120202 0)
(0.889675 0.263917 0)
(0.877848 0.392415 0)
(0.858839 0.496821 0)
(0.837334 0.571396 0)
(0.818321 0.615247 0)
(0.805772 0.631996 0)
(0.802431 0.630296 0)
(0.806666 0.622812 0)
(0.814414 0.618139 0)
(0.806078 0.609745 0)
(0.781046 0.616559 0)
(0.775999 0.635798 0)
(0.774064 0.648506 0)
(0.769624 0.666571 0)
(0.76649 0.686394 0)
(0.765857 0.704962 0)
(0.767182 0.721947 0)
(0.76718 0.740663 0)
(0.762964 0.778125 0)
(0.73208 0.871376 0)
(0.658645 1.01367 0)
(0.573131 1.16999 0)
(0.50054 1.2657 0)
(0.456153 1.27525 0)
(0.424385 1.23508 0)
(0.395551 1.18035 0)
(0.366986 1.12807 0)
(0.337926 1.08402 0)
(0.30816 1.0496 0)
(0.277751 1.02488 0)
(0.246859 1.00948 0)
(0.215604 1.00288 0)
(0.184007 1.0046 0)
(0.151985 1.01418 0)
(0.119423 1.03126 0)
(0.0865669 1.0553 0)
(0.0528669 1.0848 0)
(0.0198905 1.10102 0)
(0.792288 -0.0440078 0)
(0.800464 0.117444 0)
(0.796661 0.272153 0)
(0.782565 0.409521 0)
(0.761764 0.518311 0)
(0.739881 0.591995 0)
(0.72247 0.630373 0)
(0.714192 0.637726 0)
(0.718873 0.62598 0)
(0.730646 0.613948 0)
(0.742241 0.618476 0)
(0.727198 0.613744 0)
(0.719115 0.627497 0)
(0.721377 0.639712 0)
(0.721584 0.651526 0)
(0.719912 0.668554 0)
(0.720076 0.686723 0)
(0.722354 0.704262 0)
(0.725577 0.721223 0)
(0.724553 0.744043 0)
(0.716348 0.803951 0)
(0.654332 0.931767 0)
(0.568197 1.09654 0)
(0.480775 1.24884 0)
(0.422492 1.31795 0)
(0.391175 1.30831 0)
(0.36929 1.26091 0)
(0.348675 1.20515 0)
(0.326971 1.15374 0)
(0.303645 1.11084 0)
(0.278788 1.07745 0)
(0.252673 1.05357 0)
(0.225563 1.03886 0)
(0.197649 1.03287 0)
(0.169033 1.03514 0)
(0.139738 1.0453 0)
(0.109761 1.06302 0)
(0.0794405 1.08779 0)
(0.048289 1.11808 0)
(0.0180942 1.13427 0)
(0.702203 -0.0567605 0)
(0.710039 0.116246 0)
(0.706564 0.28131 0)
(0.692247 0.427698 0)
(0.67153 0.540213 0)
(0.651661 0.611109 0)
(0.638323 0.642368 0)
(0.637124 0.639818 0)
(0.647461 0.616361 0)
(0.657278 0.602712 0)
(0.659017 0.60668 0)
(0.659753 0.617498 0)
(0.664559 0.629656 0)
(0.669382 0.638434 0)
(0.671023 0.651107 0)
(0.672627 0.667259 0)
(0.675862 0.68459 0)
(0.680751 0.701793 0)
(0.684046 0.71974 0)
(0.67977 0.752253 0)
(0.647507 0.85307 0)
(0.564956 1.00956 0)
(0.469347 1.18797 0)
(0.389453 1.31791 0)
(0.347979 1.35627 0)
(0.329041 1.33004 0)
(0.316142 1.27814 0)
(0.302819 1.22299 0)
(0.287266 1.17349 0)
(0.269245 1.13256 0)
(0.249042 1.10092 0)
(0.227041 1.07851 0)
(0.203591 1.06498 0)
(0.178967 1.05993 0)
(0.15336 1.06301 0)
(0.126886 1.07391 0)
(0.0996357 1.09235 0)
(0.0720056 1.11786 0)
(0.043572 1.14884 0)
(0.0162837 1.16482 0)
(0.614084 -0.0703822 0)
(0.624213 0.113607 0)
(0.623163 0.289841 0)
(0.611176 0.444856 0)
(0.59292 0.559531 0)
(0.579046 0.624243 0)
(0.577171 0.646189 0)
(0.589571 0.631043 0)
(0.606946 0.601692 0)
(0.604926 0.597896 0)
(0.606555 0.608918 0)
(0.611377 0.618645 0)
(0.617284 0.62539 0)
(0.621871 0.634387 0)
(0.625362 0.647647 0)
(0.629605 0.663794 0)
(0.635256 0.680979 0)
(0.641234 0.697789 0)
(0.641679 0.720138 0)
(0.626216 0.78391 0)
(0.556683 0.92204 0)
(0.461134 1.10483 0)
(0.3628 1.27726 0)
(0.301823 1.37082 0)
(0.278177 1.37979 0)
(0.270578 1.34135 0)
(0.265574 1.28771 0)
(0.2586 1.23456 0)
(0.248468 1.18789 0)
(0.235234 1.14966 0)
(0.219319 1.12033 0)
(0.201184 1.09981 0)
(0.181244 1.08783 0)
(0.159837 1.08404 0)
(0.137227 1.08816 0)
(0.11361 1.09995 0)
(0.0891525 1.11916 0)
(0.0643023 1.14535 0)
(0.0386965 1.17684 0)
(0.0144308 1.1923 0)
(0.530435 -0.0877632 0)
(0.546368 0.106992 0)
(0.550707 0.295059 0)
(0.543704 0.459537 0)
(0.529376 0.57365 0)
(0.525555 0.626487 0)
(0.540446 0.632105 0)
(0.56888 0.604704 0)
(0.5744 0.597117 0)
(0.568184 0.605311 0)
(0.569057 0.610276 0)
(0.572789 0.613504 0)
(0.577018 0.619054 0)
(0.581284 0.628936 0)
(0.586157 0.642913 0)
(0.59206 0.659327 0)
(0.598889 0.675595 0)
(0.602681 0.693181 0)
(0.594402 0.734162 0)
(0.540789 0.845698 0)
(0.45057 1.01392 0)
(0.341314 1.20826 0)
(0.259156 1.35019 0)
(0.22179 1.40372 0)
(0.214486 1.38912 0)
(0.216358 1.34353 0)
(0.218002 1.29059 0)
(0.216397 1.24063 0)
(0.210961 1.19749 0)
(0.201976 1.16249 0)
(0.18995 1.1359 0)
(0.175399 1.11765 0)
(0.15878 1.10749 0)
(0.140481 1.10519 0)
(0.120822 1.11052 0)
(0.100061 1.12329 0)
(0.0784304 1.14331 0)
(0.0564156 1.17012 0)
(0.0337127 1.20197 0)
(0.0125455 1.21665 0)
(0.450731 -0.112205 0)
(0.476361 0.0904297 0)
(0.491679 0.291771 0)
(0.493528 0.469118 0)
(0.484926 0.582253 0)
(0.489736 0.614988 0)
(0.518126 0.605908 0)
(0.537034 0.585638 0)
(0.537738 0.591437 0)
(0.537161 0.60661 0)
(0.538401 0.608004 0)
(0.539861 0.609489 0)
(0.542897 0.614425 0)
(0.547512 0.624224 0)
(0.553387 0.638262 0)
(0.560178 0.653475 0)
(0.565424 0.668437 0)
(0.560168 0.697161 0)
(0.515211 0.78668 0)
(0.434091 0.930969 0)
(0.320946 1.12659 0)
(0.21978 1.30233 0)
(0.16483 1.39926 0)
(0.151347 1.41652 0)
(0.15724 1.38614 0)
(0.166699 1.33802 0)
(0.173691 1.28778 0)
(0.176507 1.2419 0)
(0.175051 1.20284 0)
(0.169764 1.17144 0)
(0.161211 1.14792 0)
(0.149935 1.13218 0)
(0.136422 1.12408 0)
(0.121095 1.12342 0)
(0.104313 1.13007 0)
(0.0863808 1.14388 0)
(0.0675839 1.16469 0)
(0.048433 1.19205 0)
(0.0286813 1.2241 0)
(0.0106498 1.23777 0)
(0.373502 -0.148324 0)
(0.413497 0.0599411 0)
(0.444962 0.274161 0)
(0.463376 0.468074 0)
(0.465484 0.581533 0)
(0.484079 0.584569 0)
(0.512889 0.57358 0)
(0.51279 0.58982 0)
(0.511193 0.602737 0)
(0.51255 0.60523 0)
(0.511578 0.607249 0)
(0.510826 0.610176 0)
(0.51358 0.614431 0)
(0.518962 0.62261 0)
(0.525647 0.633938 0)
(0.531594 0.647222 0)
(0.529501 0.670063 0)
(0.485626 0.743365 0)
(0.409275 0.866661 0)
(0.299155 1.04712 0)
(0.182876 1.23863 0)
(0.109501 1.37057 0)
(0.085554 1.42092 0)
(0.0912706 1.41179 0)
(0.106723 1.37353 0)
(0.121736 1.3265 0)
(0.13277 1.28038 0)
(0.139088 1.23919 0)
(0.140917 1.20453 0)
(0.13879 1.17698 0)
(0.133294 1.15669 0)
(0.124981 1.14363 0)
(0.114352 1.13771 0)
(0.101846 1.1388 0)
(0.0878477 1.14684 0)
(0.0726956 1.16171 0)
(0.0567145 1.18328 0)
(0.0404301 1.21107 0)
(0.0236494 1.24315 0)
(0.00875998 1.25559 0)
(0.296267 -0.198225 0)
(0.349175 0.01377 0)
(0.40082 0.233114 0)
(0.446799 0.447132 0)
(0.469647 0.56942 0)
(0.486307 0.561116 0)
(0.490303 0.574934 0)
(0.492675 0.591503 0)
(0.49406 0.600659 0)
(0.494651 0.604774 0)
(0.491132 0.605752 0)
(0.486298 0.605713 0)
(0.486922 0.608558 0)
(0.49218 0.61596 0)
(0.497604 0.627177 0)
(0.496706 0.649834 0)
(0.462988 0.716445 0)
(0.380341 0.825477 0)
(0.270421 0.984756 0)
(0.147973 1.1718 0)
(0.0580318 1.32587 0)
(0.0209856 1.40475 0)
(0.0228751 1.4185 0)
(0.0412608 1.39437 0)
(0.0627756 1.35424 0)
(0.0813576 1.31065 0)
(0.0952099 1.26949 0)
(0.104167 1.2333 0)
(0.108628 1.20316 0)
(0.109152 1.17953 0)
(0.106318 1.16254 0)
(0.100671 1.15222 0)
(0.0927071 1.14853 0)
(0.0828682 1.15142 0)
(0.0715509 1.16085 0)
(0.0591145 1.17676 0)
(0.0459117 1.19902 0)
(0.0324739 1.22713 0)
(0.0186583 1.25906 0)
(0.00688964 1.27003 0)
(0.208987 -0.265485 0)
(0.274316 -0.0516017 0)
(0.346869 0.16496 0)
(0.422926 0.391376 0)
(0.468266 0.54904 0)
(0.467644 0.564519 0)
(0.469709 0.573926 0)
(0.474636 0.584819 0)
(0.478194 0.59666 0)
(0.478012 0.608061 0)
(0.473719 0.614496 0)
(0.463821 0.607604 0)
(0.456119 0.59936 0)
(0.458794 0.60522 0)
(0.448308 0.61832 0)
(0.399618 0.677767 0)
(0.334212 0.792812 0)
(0.228625 0.943556 0)
(0.1071 1.11579 0)
(0.0101479 1.27318 0)
(-0.0391269 1.37283 0)
(-0.0438119 1.40795 0)
(-0.0255026 1.39954 0)
(2.08691e-05 1.36927 0)
(0.0246429 1.33093 0)
(0.0451653 1.29201 0)
(0.0607861 1.2561 0)
(0.07163 1.22492 0)
(0.0781437 1.19925 0)
(0.0808664 1.17948 0)
(0.0803441 1.16577 0)
(0.0770937 1.15817 0)
(0.0715912 1.1567 0)
(0.0642701 1.16136 0)
(0.0555272 1.17216 0)
(0.0457325 1.18905 0)
(0.0352566 1.2119 0)
(0.0246265 1.2402 0)
(0.0137453 1.27179 0)
(0.00505092 1.28109 0)
(0.104981 -0.347874 0)
(0.183353 -0.131882 0)
(0.26554 0.0746752 0)
(0.358529 0.302222 0)
(0.440308 0.533392 0)
(0.444109 0.557355 0)
(0.448938 0.565917 0)
(0.455127 0.578371 0)
(0.45943 0.594102 0)
(0.458485 0.611229 0)
(0.453418 0.627655 0)
(0.438714 0.634359 0)
(0.395336 0.605608 0)
(0.366899 0.609221 0)
(0.332795 0.666963 0)
(0.266057 0.766336 0)
(0.169711 0.907054 0)
(0.0590388 1.07095 0)
(-0.0361545 1.22141 0)
(-0.091771 1.3298 0)
(-0.104615 1.3827 0)
(-0.0893808 1.3903 0)
(-0.0627431 1.37145 0)
(-0.0343871 1.34045 0)
(-0.00874924 1.30573 0)
(0.012519 1.27181 0)
(0.0291058 1.24106 0)
(0.0412392 1.21466 0)
(0.0493376 1.19326 0)
(0.0538872 1.17719 0)
(0.0553817 1.16662 0)
(0.0542963 1.16165 0)
(0.0510764 1.16234 0)
(0.0461362 1.16871 0)
(0.0398645 1.18081 0)
(0.0326344 1.19859 0)
(0.0248248 1.22192 0)
(0.0169475 1.25028 0)
(0.00893916 1.28135 0)
(0.00324973 1.28876 0)
(-0.0203084 -0.440122 0)
(0.0708465 -0.221899 0)
(0.148673 -0.0183201 0)
(0.224931 0.189159 0)
(0.398714 0.499515 0)
(0.416012 0.540297 0)
(0.42251 0.556909 0)
(0.42884 0.572453 0)
(0.434171 0.591929 0)
(0.433134 0.615689 0)
(0.427074 0.644077 0)
(0.416781 0.669737 0)
(0.386779 0.667826 0)
(0.298348 0.660505 0)
(0.241919 0.746397 0)
(0.144009 0.879544 0)
(0.0293785 1.0298 0)
(-0.0681099 1.17295 0)
(-0.130785 1.28323 0)
(-0.153467 1.34763 0)
(-0.14548 1.36967 0)
(-0.121491 1.36254 0)
(-0.0923999 1.33985 0)
(-0.0639204 1.31063 0)
(-0.0386032 1.28003 0)
(-0.0173626 1.25095 0)
(-0.000333866 1.22497 0)
(0.0126763 1.20299 0)
(0.0220229 1.18555 0)
(0.0281221 1.17293 0)
(0.0314062 1.16533 0)
(0.0323006 1.16285 0)
(0.0312136 1.16557 0)
(0.0285347 1.17355 0)
(0.0246396 1.18684 0)
(0.0198983 1.20541 0)
(0.0146909 1.22911 0)
(0.00949978 1.25738 0)
(0.00424686 1.28781 0)
(0.0014659 1.29302 0)
(-0.155883 -0.533679 0)
(-0.0608277 -0.327359 0)
(0.0351257 -0.1158 0)
(0.121162 0.0723174 0)
(0.244261 0.319695 0)
(0.379134 0.511022 0)
(0.386537 0.546293 0)
(0.392453 0.566597 0)
(0.398836 0.589602 0)
(0.399329 0.619013 0)
(0.39366 0.655134 0)
(0.386187 0.694337 0)
(0.373821 0.726553 0)
(0.27418 0.740861 0)
(0.170503 0.861642 0)
(0.0496513 1.00923 0)
(-0.0668782 1.1418 0)
(-0.145664 1.24676 0)
(-0.183906 1.31424 0)
(-0.188523 1.3449 0)
(-0.172222 1.34716 0)
(-0.146272 1.33201 0)
(-0.117835 1.30826 0)
(-0.0905613 1.28141 0)
(-0.0661525 1.25467 0)
(-0.0452777 1.2299 0)
(-0.0280769 1.20819 0)
(-0.0144135 1.1902 0)
(-0.00401457 1.17635 0)
(0.00345846 1.16691 0)
(0.00837561 1.16204 0)
(0.0111132 1.16187 0)
(0.012042 1.16648 0)
(0.0115257 1.17594 0)
(0.009924 1.1903 0)
(0.00760035 1.20953 0)
(0.00493287 1.23346 0)
(0.00237727 1.26152 0)
(-0.000382509 1.29114 0)
(-0.000431873 1.29407 0)
(-0.294678 -0.624997 0)
(-0.203489 -0.441714 0)
(-0.083213 -0.229639 0)
(0.0133106 -0.0338411 0)
(0.10712 0.159625 0)
(0.305299 0.44017 0)
(0.338283 0.521804 0)
(0.343958 0.557658 0)
(0.349675 0.587462 0)
(0.352523 0.621645 0)
(0.349566 0.6643 0)
(0.345132 0.713045 0)
(0.336159 0.765855 0)
(0.230188 0.849631 0)
(0.0839361 1.01099 0)
(-0.0373365 1.14542 0)
(-0.138342 1.24041 0)
(-0.196746 1.29997 0)
(-0.218099 1.32899 0)
(-0.213662 1.33376 0)
(-0.194572 1.32238 0)
(-0.169055 1.3021 0)
(-0.14201 1.27804 0)
(-0.116065 1.25335 0)
(-0.0925303 1.2299 0)
(-0.071991 1.20882 0)
(-0.0546178 1.19083 0)
(-0.0403454 1.17638 0)
(-0.0289701 1.16578 0)
(-0.0202121 1.15923 0)
(-0.0137536 1.15687 0)
(-0.00926216 1.15882 0)
(-0.00640129 1.16515 0)
(-0.00483231 1.17594 0)
(-0.00421214 1.19123 0)
(-0.00418901 1.21098 0)
(-0.00439706 1.23502 0)
(-0.00440725 1.26277 0)
(-0.00484202 1.29211 0)
(-0.00232698 1.29127 0)
(-0.44203 -0.705665 0)
(-0.367465 -0.555862 0)
(-0.254272 -0.365479 0)
(-0.125614 -0.15485 0)
(-0.0312134 0.0351317 0)
(0.0911777 0.265916 0)
(0.261361 0.483735 0)
(0.280877 0.539891 0)
(0.285092 0.582341 0)
(0.28814 0.625116 0)
(0.287631 0.674221 0)
(0.284499 0.737074 0)
(0.280571 0.827956 0)
(0.125488 1.00035 0)
(-0.0304321 1.16773 0)
(-0.131433 1.26765 0)
(-0.206112 1.31706 0)
(-0.243428 1.33486 0)
(-0.251083 1.33265 0)
(-0.240008 1.31814 0)
(-0.218841 1.29696 0)
(-0.193345 1.27305 0)
(-0.166991 1.24893 0)
(-0.141725 1.22608 0)
(-0.118588 1.20543 0)
(-0.0980755 1.18755 0)
(-0.080354 1.17283 0)
(-0.0653843 1.16153 0)
(-0.0530011 1.15384 0)
(-0.0429658 1.1499 0)
(-0.0349994 1.14982 0)
(-0.028803 1.15368 0)
(-0.0240671 1.16157 0)
(-0.0204741 1.17354 0)
(-0.0176975 1.18962 0)
(-0.0154006 1.20977 0)
(-0.0132366 1.23382 0)
(-0.010806 1.26126 0)
(-0.00911218 1.29085 0)
(-0.00423414 1.28463 0)
(-0.592353 -0.759659 0)
(-0.54822 -0.648607 0)
(-0.468798 -0.495407 0)
(-0.34318 -0.30192 0)
(-0.226693 -0.0920751 0)
(-0.1097 0.117293 0)
(0.0413857 0.333367 0)
(0.198355 0.505974 0)
(0.208951 0.567061 0)
(0.210622 0.619238 0)
(0.204829 0.674962 0)
(0.186179 0.762478 0)
(0.18003 0.931067 0)
(0.0288327 1.17117 0)
(-0.163862 1.31883 0)
(-0.235545 1.36602 0)
(-0.281808 1.36814 0)
(-0.297435 1.35064 0)
(-0.29114 1.3252 0)
(-0.272497 1.29727 0)
(-0.247726 1.26957 0)
(-0.220696 1.2435 0)
(-0.193734 1.21977 0)
(-0.168183 1.19876 0)
(-0.14477 1.18069 0)
(-0.12384 1.16572 0)
(-0.10549 1.15397 0)
(-0.0896566 1.14553 0)
(-0.0761781 1.14049 0)
(-0.064831 1.13893 0)
(-0.0553575 1.14091 0)
(-0.0474801 1.14651 0)
(-0.0409089 1.15578 0)
(-0.0353436 1.16878 0)
(-0.0304744 1.18552 0)
(-0.0259838 1.20597 0)
(-0.0215504 1.22996 0)
(-0.0168138 1.25712 0)
(-0.0130996 1.28733 0)
(-0.0060514 1.27441 0)
(-0.729709 -0.774415 0)
(-0.724538 -0.697681 0)
(-0.691408 -0.585008 0)
(-0.618688 -0.431783 0)
(-0.506835 -0.241994 0)
(-0.38302 -0.046515 0)
(-0.249076 0.14792 0)
(-0.0861016 0.348521 0)
(0.0818328 0.546045 0)
(0.111482 0.613192 0)
(0.0784716 0.672891 0)
(-0.00884995 0.7683 0)
(-0.110281 1.04768 0)
(-0.254408 1.34594 0)
(-0.35638 1.43404 0)
(-0.373002 1.42319 0)
(-0.376824 1.38551 0)
(-0.364009 1.34346 0)
(-0.340395 1.30383 0)
(-0.311703 1.26855 0)
(-0.281244 1.23789 0)
(-0.250997 1.21155 0)
(-0.222155 1.18916 0)
(-0.195398 1.17038 0)
(-0.171067 1.15499 0)
(-0.149283 1.14286 0)
(-0.130016 1.13393 0)
(-0.113141 1.12818 0)
(-0.0984644 1.1256 0)
(-0.0857572 1.12623 0)
(-0.074766 1.13011 0)
(-0.0652238 1.13728 0)
(-0.0568536 1.14779 0)
(-0.0493696 1.16169 0)
(-0.0424795 1.17899 0)
(-0.0358879 1.19965 0)
(-0.0293041 1.22352 0)
(-0.022417 1.25048 0)
(-0.0167295 1.28147 0)
(-0.00769325 1.26096 0)
(-0.836524 -0.747725 0)
(-0.868157 -0.693786 0)
(-0.882949 -0.61251 0)
(-0.873002 -0.49917 0)
(-0.827754 -0.354113 0)
(-0.753965 -0.182749 0)
(-0.667975 -0.00116783 0)
(-0.581384 0.187658 0)
(-0.498919 0.397533 0)
(-0.384416 0.612209 0)
(-0.397686 0.783832 0)
(-0.463512 0.956542 0)
(-0.566673 1.19513 0)
(-0.611371 1.40839 0)
(-0.574501 1.44634 0)
(-0.524886 1.40876 0)
(-0.480405 1.35693 0)
(-0.436726 1.30776 0)
(-0.394416 1.2651 0)
(-0.354479 1.22938 0)
(-0.317201 1.19988 0)
(-0.282771 1.17568 0)
(-0.25128 1.15596 0)
(-0.222731 1.14012 0)
(-0.197051 1.12775 0)
(-0.174106 1.11859 0)
(-0.153715 1.11247 0)
(-0.135663 1.10931 0)
(-0.119713 1.10907 0)
(-0.105613 1.11175 0)
(-0.0931041 1.11738 0)
(-0.0819227 1.12598 0)
(-0.0718003 1.13761 0)
(-0.0624648 1.1523 0)
(-0.0536416 1.17007 0)
(-0.0450594 1.19087 0)
(-0.0364603 1.21463 0)
(-0.0275898 1.24147 0)
(-0.0199686 1.27324 0)
(-0.00911786 1.24462 0)
(-0.902169 -0.68842 0)
(-0.959257 -0.644881 0)
(-1.00932 -0.580187 0)
(-1.048 -0.490576 0)
(-1.06965 -0.373511 0)
(-1.06959 -0.230658 0)
(-1.05014 -0.0692512 0)
(-1.02793 0.110197 0)
(-1.00703 0.319632 0)
(-0.967057 0.560573 0)
(-0.94519 0.801764 0)
(-0.941283 1.02232 0)
(-0.931389 1.21812 0)
(-0.851461 1.33655 0)
(-0.742588 1.35505 0)
(-0.646618 1.32607 0)
(-0.568036 1.28519 0)
(-0.501515 1.24492 0)
(-0.444687 1.20935 0)
(-0.395384 1.17948 0)
(-0.352068 1.15502 0)
(-0.313702 1.1353 0)
(-0.279567 1.11967 0)
(-0.249138 1.10758 0)
(-0.221997 1.09867 0)
(-0.19779 1.09266 0)
(-0.176199 1.08941 0)
(-0.156924 1.0888 0)
(-0.139681 1.09082 0)
(-0.124196 1.09544 0)
(-0.1102 1.1027 0)
(-0.0974301 1.11263 0)
(-0.0856263 1.12527 0)
(-0.0745299 1.14067 0)
(-0.0638846 1.15884 0)
(-0.0534433 1.17977 0)
(-0.0429803 1.20342 0)
(-0.0323002 1.23022 0)
(-0.0227917 1.26262 0)
(-0.0102876 1.22576 0)
(-0.927025 -0.610897 0)
(-0.995539 -0.569567 0)
(-1.06255 -0.510674 0)
(-1.12525 -0.43159 0)
(-1.18041 -0.329919 0)
(-1.22443 -0.204566 0)
(-1.25495 -0.0563448 0)
(-1.27361 0.113641 0)
(-1.27906 0.306502 0)
(-1.26265 0.521104 0)
(-1.22485 0.742062 0)
(-1.16473 0.9422 0)
(-1.07493 1.09628 0)
(-0.953167 1.18639 0)
(-0.826838 1.21469 0)
(-0.71704 1.20873 0)
(-0.625171 1.18884 0)
(-0.548619 1.16491 0)
(-0.484354 1.14183 0)
(-0.429688 1.12156 0)
(-0.382574 1.10466 0)
(-0.34151 1.09107 0)
(-0.30541 1.08056 0)
(-0.273466 1.07286 0)
(-0.245063 1.06775 0)
(-0.219706 1.06507 0)
(-0.196985 1.06472 0)
(-0.176544 1.06665 0)
(-0.158065 1.07084 0)
(-0.141257 1.07732 0)
(-0.125848 1.08611 0)
(-0.111578 1.09727 0)
(-0.0981972 1.11085 0)
(-0.0854612 1.12689 0)
(-0.0731325 1.14543 0)
(-0.0609863 1.16646 0)
(-0.048826 1.19003 0)
(-0.0365105 1.21683 0)
(-0.0251827 1.24964 0)
(-0.0111765 1.20476 0)
(-0.919468 -0.528345 0)
(-0.988491 -0.485916 0)
(-1.05781 -0.428365 0)
(-1.1251 -0.353748 0)
(-1.18754 -0.260148 0)
(-1.24192 -0.146353 0)
(-1.28513 -0.0122302 0)
(-1.31414 0.141254 0)
(-1.32406 0.311689 0)
(-1.30806 0.492934 0)
(-1.26195 0.672321 0)
(-1.18501 0.831671 0)
(-1.08216 0.954966 0)
(-0.964326 1.03418 0)
(-0.847922 1.07387 0)
(-0.743432 1.08756 0)
(-0.653215 1.0868 0)
(-0.57642 1.07925 0)
(-0.511063 1.06942 0)
(-0.4551 1.05968 0)
(-0.406755 1.05118 0)
(-0.364608 1.04439 0)
(-0.327552 1.03946 0)
(-0.294732 1.03644 0)
(-0.265474 1.03528 0)
(-0.239239 1.03598 0)
(-0.215581 1.03852 0)
(-0.194124 1.04292 0)
(-0.174538 1.04922 0)
(-0.156531 1.05745 0)
(-0.139833 1.06769 0)
(-0.124195 1.08001 0)
(-0.10938 1.09446 0)
(-0.0951592 1.1111 0)
(-0.0813141 1.12998 0)
(-0.067639 1.15111 0)
(-0.0539607 1.17463 0)
(-0.0401825 1.20144 0)
(-0.0271365 1.23436 0)
(-0.0117802 1.18206 0)
(-0.890193 -0.449469 0)
(-0.953518 -0.4055 0)
(-1.01712 -0.348665 0)
(-1.0789 -0.277644 0)
(-1.1362 -0.191184 0)
(-1.18595 -0.0885881 0)
(-1.22478 0.0299001 0)
(-1.24901 0.162788 0)
(-1.25419 0.306956 0)
(-1.23562 0.456268 0)
(-1.19047 0.600653 0)
(-1.11993 0.728589 0)
(-1.03021 0.830742 0)
(-0.931019 0.903643 0)
(-0.832436 0.949941 0)
(-0.740987 0.976431 0)
(-0.659377 0.989939 0)
(-0.587863 0.995772 0)
(-0.525612 0.997539 0)
(-0.471392 0.997508 0)
(-0.423962 0.997022 0)
(-0.382218 0.996851 0)
(-0.345233 0.997428 0)
(-0.312244 0.999002 0)
(-0.282629 1.00173 0)
(-0.255876 1.00571 0)
(-0.231554 1.01105 0)
(-0.209301 1.01782 0)
(-0.188799 1.02611 0)
(-0.169769 1.03601 0)
(-0.151955 1.04761 0)
(-0.135124 1.061 0)
(-0.119055 1.07627 0)
(-0.103538 1.09348 0)
(-0.0883688 1.11268 0)
(-0.0733592 1.13392 0)
(-0.0583532 1.15739 0)
(-0.0432852 1.18418 0)
(-0.0286609 1.21691 0)
(-0.0121185 1.15803 0)
(-0.848446 -0.378724 0)
(-0.903396 -0.333822 0)
(-0.958061 -0.278196 0)
(-1.01055 -0.211085 0)
(-1.05852 -0.131826 0)
(-1.09924 -0.0402235 0)
(-1.12968 0.063136 0)
(-1.14672 0.17644 0)
(-1.14707 0.296601 0)
(-1.12798 0.418684 0)
(-1.0884 0.535872 0)
(-1.03015 0.640923 0)
(-0.957999 0.728389 0)
(-0.878548 0.796114 0)
(-0.798134 0.845347 0)
(-0.721361 0.879587 0)
(-0.65067 0.902837 0)
(-0.586923 0.918596 0)
(-0.530028 0.929555 0)
(-0.479429 0.937625 0)
(-0.434399 0.944104 0)
(-0.394195 0.949854 0)
(-0.358135 0.955446 0)
(-0.325621 0.961271 0)
(-0.296139 0.967604 0)
(-0.269248 0.974657 0)
(-0.244572 0.982598 0)
(-0.221786 0.991578 0)
(-0.200603 1.00173 0)
(-0.18077 1.01319 0)
(-0.162054 1.02606 0)
(-0.144243 1.04047 0)
(-0.127133 1.0565 0)
(-0.110532 1.07423 0)
(-0.0942514 1.09373 0)
(-0.0781157 1.11508 0)
(-0.0619809 1.1385 0)
(-0.0458001 1.16521 0)
(-0.0297739 1.19745 0)
(-0.012228 1.13307 0)
(-0.801008 -0.317748 0)
(-0.847097 -0.272769 0)
(-0.892308 -0.21899 0)
(-0.935024 -0.156093 0)
(-0.973301 -0.0838587 0)
(-1.00492 -0.0024211 0)
(-1.02748 0.0874289 0)
(-1.03861 0.183982 0)
(-1.03616 0.284582 0)
(-1.01861 0.385531 0)
(-0.985838 0.482334 0)
(-0.939468 0.570516 0)
(-0.882832 0.646725 0)
(-0.820178 0.709464 0)
(-0.755643 0.75914 0)
(-0.692451 0.797519 0)
(-0.63264 0.826891 0)
(-0.577236 0.849493 0)
(-0.526557 0.86723 0)
(-0.480493 0.881597 0)
(-0.43871 0.893721 0)
(-0.400781 0.90443 0)
(-0.366265 0.914331 0)
(-0.334736 0.923877 0)
(-0.305811 0.933415 0)
(-0.279143 0.94322 0)
(-0.254426 0.953521 0)
(-0.231388 0.964514 0)
(-0.209786 0.976374 0)
(-0.189399 0.989258 0)
(-0.170025 1.00331 0)
(-0.151472 1.01865 0)
(-0.133556 1.03539 0)
(-0.116102 1.05361 0)
(-0.0989355 1.07339 0)
(-0.081891 1.09481 0)
(-0.064833 1.11817 0)
(-0.047724 1.14472 0)
(-0.0305021 1.17623 0)
(-0.0121526 1.1075 0)
(-0.7522 -0.266441 0)
(-0.790129 -0.222144 0)
(-0.826735 -0.170687 0)
(-0.860701 -0.112061 0)
(-0.890496 -0.0463458 0)
(-0.91441 0.0261383 0)
(-0.930688 0.104543 0)
(-0.937666 0.187407 0)
(-0.933969 0.272644 0)
(-0.918829 0.357608 0)
(-0.892408 0.439315 0)
(-0.855966 0.514919 0)
(-0.81173 0.58226 0)
(-0.762455 0.64024 0)
(-0.710871 0.688856 0)
(-0.659241 0.728945 0)
(-0.609176 0.761784 0)
(-0.561658 0.788763 0)
(-0.517175 0.811181 0)
(-0.475874 0.830156 0)
(-0.437686 0.846601 0)
(-0.40242 0.861245 0)
(-0.369831 0.874669 0)
(-0.339652 0.887331 0)
(-0.311623 0.899604 0)
(-0.285493 0.911797 0)
(-0.261031 0.924172 0)
(-0.238024 0.936954 0)
(-0.216275 0.950344 0)
(-0.1956 0.96452 0)
(-0.175825 0.979636 0)
(-0.156781 0.995829 0)
(-0.138306 1.01321 0)
(-0.120238 1.03187 0)
(-0.102416 1.05189 0)
(-0.0846835 1.07337 0)
(-0.0669122 1.09661 0)
(-0.049068 1.1229 0)
(-0.0308777 1.15351 0)
(-0.0119365 1.08162 0)
(-0.704322 -0.223732 0)
(-0.735312 -0.180683 0)
(-0.764711 -0.131818 0)
(-0.79148 -0.077319 0)
(-0.814455 -0.0174384 0)
(-0.832375 0.0474021 0)
(-0.844011 0.116398 0)
(-0.848232 0.188354 0)
(-0.844189 0.261702 0)
(-0.831495 0.334574 0)
(-0.810376 0.404967 0)
(-0.781735 0.471006 0)
(-0.747045 0.531239 0)
(-0.708104 0.584829 0)
(-0.666734 0.631589 0)
(-0.624528 0.671864 0)
(-0.582721 0.706342 0)
(-0.542169 0.735865 0)
(-0.503396 0.761299 0)
(-0.466673 0.783451 0)
(-0.432089 0.803035 0)
(-0.399616 0.82066 0)
(-0.369154 0.836841 0)
(-0.340564 0.852013 0)
(-0.313687 0.866544 0)
(-0.288361 0.880748 0)
(-0.264424 0.894898 0)
(-0.241717 0.909235 0)
(-0.220089 0.923971 0)
(-0.199389 0.93929 0)
(-0.179472 0.955356 0)
(-0.160191 0.972307 0)
(-0.141402 0.990257 0)
(-0.122957 1.0093 0)
(-0.104708 1.0295 0)
(-0.0865081 1.05099 0)
(-0.0682345 1.07407 0)
(-0.0498544 1.10001 0)
(-0.0309339 1.12957 0)
(-0.0116167 1.05568 0)
(-0.658246 -0.188219 0)
(-0.683624 -0.14678 0)
(-0.707291 -0.100603 0)
(-0.728447 -0.0499724 0)
(-0.746218 0.00478198 0)
(-0.759703 0.063193 0)
(-0.768051 0.124548 0)
(-0.770513 0.187891 0)
(-0.76657 0.252052 0)
(-0.756029 0.315704 0)
(-0.739098 0.377474 0)
(-0.716402 0.436086 0)
(-0.688918 0.490523 0)
(-0.65783 0.540135 0)
(-0.624369 0.584667 0)
(-0.58966 0.624214 0)
(-0.554638 0.659123 0)
(-0.52001 0.689894 0)
(-0.486272 0.717093 0)
(-0.453738 0.741294 0)
(-0.422581 0.763037 0)
(-0.392873 0.782818 0)
(-0.364612 0.801077 0)
(-0.337752 0.818203 0)
(-0.312218 0.834541 0)
(-0.287915 0.850394 0)
(-0.26474 0.866029 0)
(-0.242581 0.881687 0)
(-0.221324 0.897578 0)
(-0.20085 0.913887 0)
(-0.181038 0.930776 0)
(-0.161763 0.948379 0)
(-0.142894 0.966808 0)
(-0.124301 0.986151 0)
(-0.105848 1.00649 0)
(-0.0873953 1.02792 0)
(-0.0688282 1.05079 0)
(-0.0501141 1.07627 0)
(-0.030703 1.1047 0)
(-0.0112212 1.02991 0)
(-0.614 -0.15853 0)
(-0.634961 -0.118885 0)
(-0.654206 -0.0753579 0)
(-0.671119 -0.0282726 0)