/*--------------------------------*- C++ -*----------------------------------*\
| =========                 |                                                 |
| \\      /  F ield         | OpenFOAM: The Open Source CFD Toolbox           |
|  \\    /   O peration     | Version:  5.0                                   |
|   \\  /    A nd           | Web:      www.OpenFOAM.org                      |
|    \\/     M anipulation  |                                                 |
\*---------------------------------------------------------------------------*/
FoamFile
{
    version     2.0;
    format      ascii;
    class       volScalarField;
    location    "0.7";
    object      alpha.water;
}
// * * * * * * * * * * * * * * * * * * * * * * * * * * * * * * * * * * * * * //

dimensions      [0 0 0 0 0 0 0];

internalField   nonuniform List<scalar> 
1935
(
-2.38467e-11
-1.6155e-11
-1.07804e-11
-6.97096e-12
-4.24755e-12
-2.28804e-12
-8.50118e-13
2.98787e-13
2.6196e-12
6.01136e-12
1.09542e-11
1.8668e-11
3.19037e-11
4.65209e-11
4.72007e-11
4.36131e-11
3.39411e-11
2.13486e-11
1.15135e-11
5.95361e-12
2.93414e-12
1.20734e-12
3.47674e-13
6.20005e-14
7.38007e-15
8.38167e-16
1.05346e-16
1.28282e-17
1.22298e-18
1.12286e-19
9.75613e-21
7.57193e-22
4.91997e-23
2.64909e-24
1.1691e-25
4.09157e-27
1.1218e-28
2.72838e-30
1.16121e-31
1.63903e-33
9.50154e-36
1.02111e-38
8.76799e-55
-3.44442e-11
-3.76904e-11
-3.04853e-11
-1.51381e-11
-2.48345e-11
-2.8809e-11
-2.452e-11
-1.2239e-11
-1.778e-11
-2.20679e-11
-2.00554e-11
-1.04488e-11
-1.24679e-11
-1.67427e-11
-1.65406e-11
-9.47133e-12
-8.38835e-12
-1.23671e-11
-1.35308e-11
-9.00642e-12
-5.21887e-12
-8.65711e-12
-1.06945e-11
-8.57897e-12
-2.72266e-12
-5.45954e-12
-7.85306e-12
-7.68545e-12
-8.02964e-13
-2.70476e-12
-4.93541e-12
-5.97649e-12
1.39247e-12
-2.93834e-13
-2.07345e-12
-3.56483e-12
5.80769e-12
3.88871e-12
1.10431e-12
-7.18369e-13
1.22311e-11
1.18533e-11
9.57228e-12
5.59923e-12
2.17783e-11
2.37262e-11
2.44465e-11
2.15372e-11
3.72833e-11
4.24308e-11
4.80823e-11
5.07034e-11
6.5222e-11
7.54247e-11
8.56485e-11
9.86031e-11
9.26919e-11
1.30048e-10
1.54261e-10
1.75984e-10
9.15745e-11
1.74584e-10
2.56185e-10
3.21007e-10
8.01009e-11
1.66771e-10
3.44725e-10
5.14239e-10
5.5475e-11
1.34326e-10
3.25071e-10
6.37651e-10
2.99186e-11
8.09012e-11
2.39883e-10
5.86258e-10
1.50025e-11
3.71718e-11
1.15095e-10
3.51543e-10
8.13728e-12
1.7995e-11
4.10202e-11
1.21083e-10
4.12534e-12
1.01527e-11
1.99762e-11
3.97511e-11
1.56672e-12
4.94161e-12
1.14216e-11
2.12954e-11
3.76096e-13
1.58892e-12
4.93755e-12
1.11948e-11
5.53717e-14
2.92557e-13
1.21784e-12
3.72827e-12
6.68766e-15
3.82153e-14
1.79548e-13
6.73954e-13
9.16548e-16
5.81953e-15
2.89003e-14
1.11276e-13
1.36641e-16
1.06825e-15
6.12736e-15
2.52498e-14
1.41692e-17
1.38607e-16
9.62352e-16
4.52857e-15
1.3413e-18
1.60966e-17
1.31674e-16
6.89735e-16
1.1498e-19
1.64925e-18
1.59163e-17
9.37808e-17
8.96554e-21
1.52667e-19
1.75108e-18
1.18109e-17
5.75009e-22
1.1762e-20
1.68022e-19
1.3709e-18
2.87911e-23
6.77709e-22
1.2792e-20
1.37786e-19
1.14632e-24
2.767e-23
7.11868e-22
1.1153e-20
3.65823e-26
7.61656e-25
2.60747e-23
6.64445e-22
9.46499e-28
1.35367e-26
4.90455e-25
2.47601e-23
2.67924e-29
2.2777e-28
1.90991e-27
3.12799e-25
1.57067e-30
5.20326e-30
3.31577e-31
5.4034e-30
1.63151e-32
4.87442e-32
1.18588e-33
4.30595e-32
9.77957e-35
2.79844e-34
7.50391e-37
1.89725e-34
1.65149e-37
5.0024e-37
7.56048e-44
2.04175e-41
-5.33258e-68
2.18422e-64
0
-1.7389e-44
-1.56972e-13
8.94263e-14
4.85453e-12
9.57414e-12
2.08463e-10
2.07257e-07
2.55556e-06
2.58897e-06
2.58535e-06
2.08591e-06
4.31098e-06
6.01373e-06
9.46069e-07
5.14651e-06
1.39529e-05
4.14963e-06
5.70518e-07
9.61506e-06
8.36858e-05
4.3514e-05
6.55217e-07
1.08698e-06
0.000185377
0.000621468
0.000691497
0.000115461
1.62883e-07
3.44963e-09
1.3662e-11
7.62829e-12
1.08911e-09
1.2713e-09
1.52481e-09
1.47659e-09
1.1962e-09
1.0727e-09
7.28105e-10
2.23422e-10
2.13688e-10
0.256517
0
4.39079e-13
1.94801e-12
4.74507e-11
7.5381e-08
1.70051e-06
2.58367e-06
2.57414e-06
2.58368e-06
2.57129e-06
7.84797e-07
1.02067e-07
5.89385e-07
6.66403e-06
1.35149e-05
5.93293e-07
3.524e-07
1.38964e-05
8.21214e-05
1.84974e-07
4.82022e-07
1.02247e-06
0.000401681
0.000778416
0.000779379
0.000718689
8.79372e-05
4.78089e-08
-7.88117e-10
1.99243e-11
1.49806e-09
1.74363e-09
1.94135e-09
1.92996e-09
1.63439e-09
1.59305e-09
1.45972e-09
6.02806e-10
2.12557e-10
0.765055
2.64079e-13
3.4336e-12
7.28943e-12
1.21797e-10
3.6088e-07
2.57735e-06
2.57691e-06
2.57676e-06
2.57393e-06
2.53866e-06
1.13495e-08
4.06435e-08
1.15751e-06
6.91123e-06
4.76613e-06
5.76402e-07
2.90027e-07
6.86858e-06
3.47829e-05
1.20338e-07
6.18703e-08
3.95421e-07
0.000385979
0.000779379
0.00077983
0.000780281
0.000686255
2.17575e-05
5.42642e-11
6.90943e-11
1.88257e-09
1.85255e-09
1.99348e-09
1.99348e-09
1.78484e-09
1.81666e-09
2.33545e-09
1.3246e-09
2.14162e-10
0.840223
1.20715e-12
1.68731e-11
1.38617e-11
8.1344e-11
2.35158e-07
2.44463e-06
2.57742e-06
2.57589e-06
2.57254e-06
1.24397e-06
4.98058e-09
2.07478e-08
1.03353e-06
3.16002e-06
2.72026e-07
1.11949e-06
2.89645e-07
1.1196e-06
3.68119e-07
3.61735e-07
9.58668e-09
3.06144e-08
9.97787e-05
0.000775218
0.000780281
0.000780498
0.000780715
0.000535846
1.12831e-05
8.41469e-11
2.52879e-09
1.83479e-09
1.96951e-09
1.99348e-09
1.79364e-09
1.84421e-09
2.94801e-09
2.0559e-09
2.19453e-10
0.682249
6.91623e-13
2.40887e-11
4.81809e-11
6.81388e-11
5.94852e-08
9.54471e-07
2.57742e-06
2.57659e-06
2.3879e-06
2.1155e-08
3.95888e-09
4.62415e-08
5.21491e-07
1.05581e-08
2.42182e-07
8.60353e-07
2.78184e-07
4.05884e-06
7.57938e-07
7.40188e-07
7.85465e-09
6.61424e-09
9.27418e-09
0.000174727
0.000704396
0.000780715
0.000780715
0.000780715
0.000107435
1.28776e-10
2.81896e-09
1.62022e-09
1.659e-09
1.9149e-09
1.69873e-09
1.84601e-09
3.03256e-09
2.60852e-09
2.28906e-10
0.417458
-2.97693e-13
1.76328e-11
8.24871e-11
1.11877e-09
2.71406e-08
3.40895e-08
1.05051e-06
1.97354e-06
6.25562e-07
3.95888e-09
3.85386e-09
2.47944e-08
1.69497e-08
2.49072e-09
2.64961e-07
1.85635e-07
2.70843e-07
4.97273e-06
3.00902e-06
4.5959e-07
8.35637e-09
6.25474e-09
5.36437e-09
4.53784e-09
3.4352e-05
0.000681865
0.000780715
0.000776076
0.000138514
1.59421e-10
2.73869e-09
1.38093e-09
1.35064e-09
1.58026e-09
1.55899e-09
1.79567e-09
3.03256e-09
2.8687e-09
2.43443e-10
0.301961
-2.53632e-12
7.35852e-12
7.88099e-11
1.05027e-09
9.01246e-09
2.16346e-09
8.51153e-09
1.21214e-07
4.78637e-09
5.64024e-09
2.93168e-09
3.43634e-09
1.76051e-09
1.52783e-09
2.256e-07
8.2073e-08
1.2068e-08
3.91898e-06
3.91311e-06
9.01786e-07
6.1826e-09
5.37679e-09
4.83337e-09
3.40495e-09
3.10061e-09
3.60339e-05
0.000685809
0.000429833
5.08701e-05
2.02133e-10
1.913e-09
1.28035e-09
1.26365e-09
1.34304e-09
1.44327e-09
1.56892e-09
3.03256e-09
2.9327e-09
2.63193e-10
0.29974
-3.64942e-12
7.16888e-13
4.61203e-11
6.60484e-10
1.73041e-09
1.07732e-09
1.80946e-09
2.33964e-09
2.30237e-09
5.04112e-09
2.66017e-09
2.06473e-09
1.57584e-09
1.50271e-09
4.06173e-08
1.58918e-08
1.2068e-08
1.2068e-08
5.0362e-07
2.77829e-07
2.09019e-08
3.0918e-08
1.18859e-08
3.10068e-09
3.10065e-09
3.10068e-09
7.88995e-09
1.7846e-07
2.80078e-06
9.81725e-10
1.25739e-09
1.27026e-09
1.24733e-09
1.24663e-09
1.33625e-09
1.31713e-09
3.03157e-09
2.85034e-09
2.87151e-10
0.299275
-3.21811e-12
2.29036e-30
1.48068e-11
2.5785e-10
5.70949e-10
6.62125e-10
7.85702e-10
9.7577e-10
1.59526e-09
3.15671e-09
2.52124e-09
2.27004e-09
1.77801e-09
1.49572e-09
1.36724e-09
6.16397e-09
1.2388e-07
6.14923e-08
5.29838e-09
4.56483e-09
2.35343e-08
8.21379e-08
7.41684e-08
1.09346e-08
3.07892e-09
3.13631e-09
3.2243e-09
4.36114e-08
1.79798e-08
4.63521e-09
1.50947e-09
1.70796e-09
1.20941e-09
1.20115e-09
1.22882e-09
1.18271e-09
2.54725e-09
2.35126e-09
3.21462e-10
0.23333
-1.47788e-12
-2.08092e-13
2.46598e-12
6.61587e-11
2.37136e-10
4.40684e-10
5.19125e-10
6.34455e-10
1.02065e-09
1.82287e-09
2.13689e-09
2.20051e-09
1.93002e-09
1.49822e-09
1.33351e-09
1.36724e-09
2.59973e-08
5.25123e-08
4.20424e-08
3.66584e-09
6.05441e-08
8.25067e-08
8.24239e-08
3.28427e-08
3.13443e-09
3.03898e-09
3.82592e-09
2.43808e-07
1.08717e-07
1.96326e-08
5.39944e-08
2.71047e-09
1.15026e-09
1.15517e-09
1.15031e-09
1.11777e-09
1.4801e-09
1.47664e-09
4.97823e-10
0.224116
2.16515e-12
1.00703e-12
2.04873e-12
1.141e-11
7.35415e-11
2.19108e-10
3.40683e-10
4.71967e-10
7.38877e-10
1.11752e-09
1.49384e-09
1.84593e-09
1.77229e-09
1.46523e-09
1.32881e-09
1.56747e-09
1.49277e-09
6.7469e-10
5.31936e-10
5.26535e-10
5.50212e-08
8.22882e-08
8.24512e-08
3.55524e-08
3.51129e-09
3.87272e-09
7.98981e-06
6.91073e-05
2.02354e-05
9.24393e-07
1.48596e-07
1.24457e-09
1.1051e-09
1.1012e-09
1.10192e-09
1.05451e-09
7.86275e-10
7.48251e-10
1.90205e-09
0.393526
1.54373e-11
8.92756e-12
5.01879e-12
7.84913e-12
1.72224e-11
6.47164e-11
1.53659e-10
2.68191e-10
4.41143e-10
6.32715e-10
8.49939e-10
1.18272e-09
1.32787e-09
1.21555e-09
1.1111e-09
1.30899e-09
1.75621e-09
1.5954e-09
6.12005e-10
5.205e-10
3.67826e-08
8.15308e-08
7.80765e-08
1.64688e-08
4.19335e-09
4.59408e-09
0.000105824
0.000175817
0.00015133
2.6394e-05
2.93518e-08
1.91677e-09
1.08116e-09
1.05011e-09
1.04806e-09
9.36262e-10
6.85165e-10
6.86678e-10
2.39882e-08
0.570497
4.47787e-11
3.29709e-11
2.03288e-11
1.32997e-11
1.60656e-11
2.21162e-11
4.25153e-11
9.12894e-11
1.7301e-10
2.73137e-10
3.78632e-10
5.50041e-10
7.74735e-10
7.76649e-10
7.16268e-10
7.31293e-10
7.6864e-10
6.40572e-10
5.14981e-10
5.18721e-10
1.22771e-08
7.41519e-08
3.09204e-08
8.47422e-09
4.74601e-09
5.16813e-09
0.000174244
0.000176032
0.000176022
0.000107683
2.06063e-06
4.75775e-09
1.04435e-09
9.51785e-10
9.31832e-10
8.18627e-10
6.8573e-10
5.78011e-07
5.01536e-07
0.672664
9.58183e-11
8.31434e-11
6.2165e-11
4.04623e-11
2.97364e-11
2.84122e-11
3.35695e-11
4.17385e-11
5.83741e-11
8.89674e-11
1.28645e-10
1.89579e-10
3.04416e-10
3.74397e-10
3.65657e-10
3.8064e-10
4.55986e-10
5.16554e-10
5.1393e-10
5.14981e-10
6.67386e-09
1.0692e-08
1.17169e-08
1.04161e-08
5.19192e-09
4.28468e-05
0.000175807
0.000176022
0.000176029
0.000149653
6.15399e-06
8.96833e-09
1.32358e-09
8.79633e-10
8.20107e-10
7.54288e-10
6.85133e-10
9.55103e-06
0.001396
0.706709
1.7535e-10
1.66462e-10
1.42114e-10
1.11011e-10
7.83467e-11
5.7137e-11
5.10218e-11
5.31112e-11
6.09052e-11
7.38066e-11
9.0231e-11
1.11933e-10
1.45532e-10
1.8921e-10
2.49887e-10
4.2828e-10
7.3238e-10
7.47264e-10
5.62197e-10
5.18721e-10
8.00571e-10
2.84596e-09
8.25137e-09
1.05924e-08
5.91295e-09
7.62371e-05
0.000175624
0.000175892
0.000176026
0.000110959
2.42039e-06
9.60655e-09
1.72261e-09
8.77944e-10
8.05829e-10
7.40277e-10
6.8573e-10
6.87496e-10
0.0198384
0.360758
3.13658e-10
2.95215e-10
2.76168e-10
2.22699e-10
1.64302e-10
1.16402e-10
9.118e-11
8.62047e-11
8.89883e-11
9.66792e-11
1.10352e-10
1.28205e-10
1.5275e-10
1.97459e-10
3.73272e-10
7.21697e-10
7.68797e-10
6.20862e-10
5.19061e-10
5.89111e-10
2.15685e-09
4.68441e-09
2.61301e-08
1.24386e-08
7.43395e-09
0.000121721
0.000175743
0.000175735
0.000176765
3.52486e-05
7.42422e-08
4.90791e-09
1.55517e-09
9.37799e-10
8.5783e-10
7.54144e-10
6.87496e-10
5.1478e-05
0.0080604
-2.93166e-28
5.71077e-10
5.18877e-10
4.31433e-10
4.11402e-10
5.20724e-10
4.20405e-10
2.09048e-10
9.36518e-11
9.01441e-11
9.40559e-11
1.06519e-10
1.31564e-10
1.63455e-10
2.4387e-10
4.85616e-10
6.12423e-10
4.66656e-10
4.3683e-10
4.56731e-10
6.57117e-07
3.17978e-06
2.86338e-06
4.85873e-07
1.51212e-08
1.19896e-08
0.000142944
0.000173523
0.000175589
6.87839e-05
1.82833e-07
1.34185e-08
3.12081e-09
1.02105e-09
1.14142e-09
1.14226e-09
1.14639e-09
7.96652e-10
1.34001e-11
7.50698e-12
0
7.27023e-10
7.12354e-10
5.5997e-10
5.52247e-10
6.94959e-10
1.26398e-09
1.47359e-09
6.93692e-10
9.10629e-11
9.37861e-11
9.69563e-11
1.06558e-10
1.46543e-10
2.435e-10
4.47431e-10
4.08955e-10
3.89779e-10
3.94476e-10
1.05793e-06
6.5234e-06
6.64762e-06
6.62037e-06
1.80598e-06
4.44958e-08
3.25098e-08
5.62784e-05
0.000167501
7.13562e-05
2.78545e-09
2.98041e-10
2.27336e-10
3.33654e-10
5.11058e-10
1.13317e-09
1.31774e-09
1.27093e-09
1.18349e-09
8.30812e-10
1.34271e-10
8.44375e-10
7.34335e-10
7.34335e-10
6.62725e-10
5.93731e-10
6.56459e-10
8.6313e-10
1.38561e-09
2.36816e-09
8.44099e-09
1.37688e-08
8.07075e-09
5.00696e-10
1.48501e-10
2.74184e-10
3.87117e-10
3.83268e-10
3.85897e-10
3.43011e-07
6.18631e-06
6.64762e-06
6.66387e-06
6.64848e-06
1.99103e-06
6.29329e-08
1.88447e-06
7.17385e-06
1.46258e-10
1.79947e-10
1.15931e-10
2.20735e-10
2.27336e-10
2.57199e-10
3.98825e-10
1.07655e-09
2.05498e-09
2.00757e-09
1.56171e-09
9.06732e-10
1.38725e-10
8.05346e-09
6.50905e-10
7.34335e-10
7.21832e-10
6.39737e-10
5.08799e-10
3.05214e-10
1.93803e-10
6.33419e-09
2.45707e-08
2.74831e-08
2.75732e-08
2.12032e-08
4.99941e-09
2.98039e-10
3.68445e-10
3.85897e-10
3.89497e-10
1.84375e-06
6.55714e-06
6.61844e-06
6.6807e-06
2.43321e-06
2.04181e-07
3.35552e-08
2.78058e-10
2.42945e-10
2.15045e-10
2.15304e-10
2.15008e-10
2.5756e-10
2.8319e-10
2.90169e-10
3.43425e-10
9.91152e-10
2.57044e-09
2.79492e-09
2.09602e-09
1.1067e-09
4.06463e-10
3.16154e-09
3.60055e-10
6.30554e-10
6.72172e-10
6.14608e-10
4.25579e-10
2.23875e-10
1.91294e-10
5.17832e-09
2.68856e-08
2.75723e-08
2.76032e-08
2.76335e-08
2.54403e-08
8.14917e-09
5.11984e-10
3.89497e-10
3.60665e-10
2.11358e-07
1.23152e-06
1.20234e-06
1.333e-07
2.56292e-10
2.53171e-10
2.59403e-10
2.63973e-10
2.68694e-10
2.72397e-10
2.76552e-10
2.90998e-10
2.92853e-10
2.93176e-10
2.92221e-10
3.35139e-10
1.05423e-09
2.75389e-09
2.94543e-09
2.74951e-09
1.57151e-09
5.72777e-10
3.60983e-10
1.21973e-10
3.29355e-10
4.86424e-10
4.75515e-10
3.68392e-10
2.23368e-10
1.899e-10
4.99386e-10
1.76952e-08
2.76033e-08
2.76335e-08
2.7642e-08
2.76536e-08
2.7657e-08
1.84907e-08
3.05112e-09
3.01912e-10
2.70955e-10
2.62795e-10
2.59912e-10
2.59321e-10
2.58572e-10
2.59216e-10
2.5919e-10
2.64472e-10
2.70439e-10
2.77797e-10
2.92165e-10
2.99052e-10
2.98882e-10
3.02647e-10
3.3013e-10
3.93444e-10
7.01343e-10
1.58709e-09
2.28626e-09
2.21929e-09
1.52233e-09
6.62414e-10
1.52246e-10
4.37292e-11
1.10665e-10
2.16972e-10
2.80863e-10
2.65261e-10
2.18495e-10
1.89181e-10
1.89143e-10
5.99894e-10
1.20411e-08
2.76255e-08
2.76537e-08
2.7657e-08
2.7657e-08
2.7657e-08
1.7926e-08
2.08694e-09
4.25018e-10
4.36335e-10
3.56969e-10
2.95991e-10
2.7596e-10
2.64398e-10
2.67485e-10
2.71577e-10
2.77788e-10
2.87389e-10
3.00595e-10
3.03529e-10
3.00334e-10
3.07205e-10
4.46468e-10
5.88347e-10
5.83148e-10
1.5625e-09
1.88985e-09
1.76554e-09
1.66032e-09
8.86405e-10
1.76713e-10
2.19798e-11
4.27811e-11
8.19344e-11
1.32268e-10
1.74636e-10
1.92178e-10
1.89097e-10
1.8908e-10
1.89143e-10
8.52088e-10
3.92226e-09
1.14133e-08
1.74577e-08
1.51873e-08
8.71662e-09
3.03087e-09
1.13394e-09
8.05242e-10
6.63824e-10
5.36513e-10
4.16155e-10
3.16543e-10
2.57804e-10
2.55578e-10
2.61179e-10
2.75451e-10
2.94926e-10
3.01237e-10
3.03085e-10
3.00695e-10
3.09106e-10
3.0967e-10
3.10587e-10
2.79934e-08
3.43086e-08
3.42897e-08
1.38474e-08
9.94786e-10
8.22354e-10
2.29648e-10
9.10267e-12
1.85718e-11
3.51965e-11
6.20742e-11
1.00793e-10
1.40749e-10
1.7024e-10
1.97238e-10
2.00773e-10
1.61645e-10
1.5859e-10
3.49051e-10
4.86302e-10
3.97183e-10
2.88035e-10
2.97298e-10
2.99332e-10
2.73084e-10
2.28136e-10
1.93056e-10
1.66346e-10
1.59764e-10
1.64969e-10
1.86837e-10
2.1046e-10
2.67952e-10
2.97768e-10
2.95914e-10
3.07121e-10
3.03113e-10
3.71326e-10
3.10587e-10
3.14598e-10
6.03659e-10
9.38965e-09
2.59682e-08
1.14694e-08
9.53561e-10
7.96241e-10
3.29129e-10
2.18255e-12
5.60318e-12
1.19111e-11
2.28566e-11
4.10842e-11
6.70018e-11
9.80652e-11
1.32079e-10
1.48991e-10
1.51532e-10
1.58625e-10
1.58555e-10
1.51183e-10
1.35781e-10
1.17916e-10
9.96177e-11
8.81577e-11
8.79833e-11
8.91231e-11
8.7055e-11
8.49194e-11
8.80088e-11
9.75269e-11
1.39861e-10
2.40127e-10
2.15593e-10
2.83176e-10
5.58294e-10
5.36191e-10
2.67768e-08
3.85369e-06
2.55892e-06
3.21249e-10
7.7956e-10
1.69035e-09
8.21422e-10
4.4496e-10
4.51214e-10
4.6793e-10
3.24024e-10
3.96065e-13
1.18063e-12
2.80021e-12
5.65552e-12
1.01535e-11
1.66229e-11
2.48156e-11
3.32009e-11
3.79412e-11
3.6743e-11
3.42933e-11
3.16677e-11
3.0832e-11
3.13624e-11
3.39112e-11
3.911e-11
4.51149e-11
5.20629e-11
5.10458e-11
4.64218e-11
4.46377e-11
4.80436e-11
1.16274e-10
8.56898e-11
2.035e-10
1.25054e-09
5.88657e-09
1.34366e-08
1.9859e-06
1.46317e-05
2.578e-06
1.41572e-06
1.10504e-07
0.000207385
1.85796e-05
-4.0709e-10
6.92876e-10
-6.89591e-11
1.64744e-10
1.68297e-10
9.16677e-14
2.7232e-13
6.43426e-13
1.26469e-12
2.13495e-12
3.18493e-12
4.26632e-12
5.2111e-12
6.05416e-12
6.9974e-12
8.31029e-12
1.03012e-11
1.31682e-11
1.67781e-11
2.11666e-11
2.64248e-11
2.6401e-11
2.47132e-11
1.99881e-11
1.69737e-11
1.74361e-11
-3.45986e-11
3.23499e-11
1.29795e-09
2.522e-08
3.38182e-08
1.74642e-05
8.70531e-05
6.15988e-05
0.000148482
0.000586827
0.000583647
0.000561481
0.000654026
0.000606737
7.99812e-05
5.12774e-08
-1.44514e-10
8.23943e-11
3.87815e-12
1.81625e-14
5.65296e-14
1.35085e-13
2.63241e-13
4.37005e-13
6.46559e-13
8.97833e-13
1.23247e-12
1.73734e-12
2.53305e-12
3.73724e-12
5.37117e-12
7.21565e-12
9.16519e-12
1.02176e-11
9.96477e-12
9.47108e-12
8.56342e-12
7.97297e-12
5.82012e-12
-1.06058e-10
5.84371e-10
1.14183e-08
3.2666e-08
4.18752e-05
6.24691e-05
0.000156716
0.00062633
0.00062872
0.000629226
0.000628977
0.000473831
0.000654026
0.000658204
0.000661918
0.000256081
2.93419e-07
5.59775e-09
1.3207e-10
-2.15465e-26
2.98026e-15
9.54938e-15
2.29132e-14
4.48849e-14
7.76942e-14
1.28801e-13
2.17229e-13
3.7857e-13
6.61027e-13
1.10409e-12
1.69777e-12
2.35824e-12
2.98443e-12
3.4712e-12
3.88859e-12
4.0239e-12
4.30154e-12
4.30507e-12
3.80468e-12
4.74716e-12
8.28862e-11
1.33901e-08
5.31272e-06
2.56131e-05
0.000419289
0.000471491
0.000473547
0.000476816
0.000308907
0.000108689
0.000143995
4.05371e-05
0.000108443
0.000658699
0.000666666
0.000673526
5.40448e-05
6.43853e-09
2.34077e-10
0
4.39434e-16
1.45665e-15
3.59531e-15
7.55478e-15
1.51943e-14
3.14184e-14
6.64104e-14
1.35614e-13
2.54025e-13
4.26715e-13
6.46824e-13
9.04752e-13
1.19172e-12
1.48401e-12
1.68302e-12
2.16455e-12
2.63748e-12
7.94034e-13
4.85998e-13
-4.63359e-11
5.71735e-09
6.87829e-06
0.000295158
0.00050156
0.000492028
0.000479353
0.000187734
3.58495e-07
3.69362e-07
3.87286e-07
4.37697e-07
4.41628e-07
6.8813e-07
0.00040724
0.000672564
0.000674644
0.000184464
2.70043e-08
-1.61664e-09
-1.03921e-17
6.08481e-17
2.12577e-16
5.68067e-16
1.38932e-15
3.47056e-15
8.85416e-15
2.14761e-14
4.67508e-14
9.00909e-14
1.56416e-13
2.5112e-13
3.78436e-13
5.32294e-13
6.71137e-13
9.91123e-13
1.93555e-12
1.78942e-12
-8.60448e-12
-2.0928e-11
7.25845e-10
1.28074e-07
0.000465313
0.000510555
0.000510555
0.000199644
1.55449e-07
2.0089e-07
3.43339e-07
3.80592e-07
3.78911e-07
3.83169e-07
3.8792e-07
4.43839e-07
0.000398547
0.000674515
0.00067486
0.000226064
2.35845e-08
1.76196e-09
4.70368e-10
8.15148e-18
3.13581e-17
9.62103e-17
2.85423e-16
8.72436e-16
2.58219e-15
6.84098e-15
1.58353e-14
3.26205e-14
6.14269e-14
1.0694e-13
1.70931e-13
2.43013e-13
3.89672e-13
1.02607e-12
3.85164e-12
5.77844e-13
-2.11274e-13
-7.67881e-10
1.54448e-08
0.000301926
0.000604995
0.000498973
7.17412e-06
1.44751e-07
1.46231e-07
2.15083e-07
6.79135e-07
8.2519e-07
3.91267e-07
3.82623e-07
3.85868e-07
1.18487e-06
0.000648319
0.00067486
0.000675026
0.000151818
3.56115e-08
5.33612e-08
0
1.02541e-18
4.58903e-18
1.6901e-17
6.10791e-17
2.22255e-16
7.48867e-16
2.1945e-15
5.5875e-15
1.26487e-14
2.57836e-14
4.72274e-14
7.68183e-14
1.32261e-13
3.90707e-13
5.16068e-12
6.18615e-12
1.07923e-12
-1.17936e-10
3.23174e-09
0.000100664
0.00063093
0.000607058
2.22568e-06
1.44796e-07
1.44987e-07
1.45431e-07
8.5657e-07
8.5657e-07
7.91379e-07
3.78589e-07
3.79424e-07
3.84694e-07
0.000251251
0.000671595
0.000674377
0.00044903
1.59579e-05
1.03735e-08
3.02638e-08
1.95733e-08
1.14643e-19
6.27365e-19
2.85786e-18
1.26075e-17
5.46335e-17
2.13433e-16
7.12744e-16
2.03495e-15
5.02729e-15
1.08101e-14
2.03272e-14
3.69615e-14
1.26653e-13
1.76137e-12
1.15458e-11
2.88498e-11
9.56208e-12
8.22398e-10
1.35178e-05
0.000415037
0.000643081
0.000212389
1.44797e-07
1.44796e-07
1.448e-07
1.6023e-07
6.18493e-07
6.90694e-07
3.12123e-07
3.24782e-07
3.88769e-07
2.6569e-05
0.000466452
0.000673988
0.000325217
1.12774e-05
9.00965e-09
4.94397e-09
1.23357e-09
-5.82465e-14
1.07032e-20
7.4929e-20
4.32142e-19
2.35744e-18
1.24062e-17
5.77595e-17
2.24263e-16
7.18858e-16
1.91723e-15
4.28951e-15
8.51436e-15
2.72934e-14
4.57942e-13
3.75417e-12
3.67634e-12
4.48451e-12
2.07995e-10
1.259e-08
5.83926e-05
0.000575662
0.000656089
9.33316e-05
1.44797e-07
1.44797e-07
1.44797e-07
1.44801e-07
1.44925e-07
1.45341e-07
1.49106e-07
1.95901e-07
7.39151e-06
8.41394e-05
0.000163371
0.000130416
5.78969e-06
2.40229e-07
4.19484e-08
1.03408e-08
8.40278e-10
2.05597e-05
7.76165e-22
7.27727e-21
5.43301e-20
3.74868e-19
2.46156e-18
1.39852e-17
6.38376e-17
2.30736e-16
6.62367e-16
1.55842e-15
4.17963e-15
5.57095e-14
7.48578e-13
1.68767e-12
7.33058e-12
5.83136e-11
9.96725e-10
4.64385e-08
8.47006e-05
0.000616552
0.000682082
7.54309e-05
1.44811e-07
1.44798e-07
1.44816e-07
1.44947e-07
1.45265e-07
1.46595e-07
1.59205e-07
1.5166e-06
1.15638e-05
1.56147e-05
2.07207e-06
2.54292e-06
1.5951e-06
6.93743e-07
2.40243e-07
1.21295e-07
0.000141357
0.000347556
4.02978e-23
5.3501e-22
5.31925e-21
4.7274e-20
3.944e-19
2.78052e-18
1.52e-17
6.29234e-17
1.96828e-16
5.32256e-16
2.64047e-15
7.20503e-14
9.32435e-13
2.74419e-12
1.58322e-11
2.78365e-10
3.49582e-09
8.38111e-08
9.00454e-05
0.000642787
0.000704435
0.000179816
1.45311e-07
1.44989e-07
1.66521e-07
1.59985e-07
1.4697e-07
1.48638e-07
1.5399e-07
3.15882e-07
1.00108e-06
1.09257e-06
1.54421e-06
2.07231e-06
2.54631e-06
2.36906e-05
7.30077e-05
0.000110407
0.000110856
2.99196e-05
1.31956e-24
2.70913e-23
3.74068e-22
4.34438e-21
4.64174e-20
4.14038e-19
2.78543e-18
1.35391e-17
4.85818e-17
1.61489e-16
1.68122e-15
5.89152e-14
8.331e-13
3.40405e-12
2.07482e-11
3.63849e-10
5.46074e-09
9.45641e-08
7.36623e-05
0.000663551
0.000716962
0.000400801
1.644e-07
1.50938e-07
1.80362e-07
3.47748e-05
0.000103116
3.36295e-05
1.78578e-07
2.63487e-07
8.27254e-07
5.11505e-05
8.13904e-05
5.71062e-05
5.99465e-05
6.93076e-05
7.15616e-05
3.11771e-05
2.32379e-06
-9.83317e-24
2.33459e-26
8.28291e-25
1.70001e-23
2.63068e-22
3.59908e-21
4.12868e-20
3.53515e-19
2.12856e-18
9.28343e-18
3.62615e-17
4.11547e-16
1.72555e-14
3.43775e-13
2.19242e-12
1.48882e-11
2.62938e-10
3.93031e-09
6.35654e-08
3.73194e-05
0.000585593
0.000717998
0.000717516
0.000561008
3.76713e-07
2.82896e-06
8.24717e-05
0.000129753
0.000130682
0.000111619
6.15187e-05
9.45544e-05
0.000109098
0.000109112
0.000108983
1.78195e-05
1.79482e-05
5.43273e-06
6.44097e-09
-4.97188e-12
-3.66241e-20
1.71359e-28
1.24451e-26
4.3012e-25
9.35693e-24
1.63074e-22
2.39789e-21
2.6964e-20
2.13566e-19
1.18748e-18
5.21124e-18
3.7687e-17
1.66527e-15
5.3716e-14
4.83752e-13
5.98525e-12
5.56235e-11
1.12865e-09
1.6662e-08
3.1749e-07
0.000250183
0.000717797
0.000717998
0.000717516
0.000439121
6.54891e-06
1.47598e-05
0.000125394
0.000130523
0.000130716
0.000130409
0.000129165
0.000106744
1.57497e-05
1.23042e-05
1.08373e-08
4.2097e-09
4.69608e-10
-4.61943e-12
3.89783e-13
3.91484e-13
2.87703e-31
6.14798e-29
4.58496e-27
1.62472e-25
3.69724e-24
6.66875e-23
9.63065e-22
1.01811e-20
7.5405e-20
4.09956e-19
2.10766e-18
4.60702e-17
3.7129e-15
1.20125e-13
8.27663e-13
9.86316e-12
9.79015e-11
1.9661e-09
3.69483e-08
6.37492e-07
0.000288294
0.000717627
0.000717959
0.000614995
5.28719e-06
5.20742e-06
1.60555e-05
0.000116432
0.000130409
0.000130104
5.10563e-05
2.75704e-06
1.45096e-08
3.42064e-09
7.90676e-11
-2.99298e-11
-1.08062e-11
3.99799e-12
3.98941e-12
4.23872e-13
-6.64892e-44
4.56244e-36
6.99678e-31
8.02273e-29
3.37846e-27
8.17446e-26
1.50983e-24
2.26191e-23
2.56395e-22
2.14843e-21
1.25759e-20
3.21874e-19
1.11377e-16
1.22889e-14
3.35449e-13
1.85599e-12
2.07429e-11
1.76294e-10
2.9226e-09
4.5286e-08
9.2043e-07
0.000183419
0.000523512
0.000181964
5.20754e-06
5.20754e-06
5.20754e-06
1.32727e-05
3.07324e-05
2.06345e-05
2.94408e-07
1.45099e-08
7.67818e-09
2.16099e-10
2.19505e-28
-2.77493e-17
6.3113e-15
4.97479e-12
1.16779e-13
1.3134e-16
)
;

boundaryField
{
    leftWall
    {
        type            zeroGradient;
    }
    rightWall
    {
        type            zeroGradient;
    }
    lowerWall
    {
        type            zeroGradient;
    }
    atmosphere
    {
        type            inletOutlet;
        inletValue      uniform 0;
        value           nonuniform List<scalar> 
45
(
0
0
0
0
0
0
0
0
0
0
0
0
0
0
0
0
0
1.11377e-16
1.22889e-14
3.35449e-13
1.85599e-12
2.07429e-11
1.76294e-10
2.9226e-09
4.5286e-08
9.2043e-07
0.000183419
0.000523512
0.000181964
5.20754e-06
5.20754e-06
5.20754e-06
1.32727e-05
3.07324e-05
2.06345e-05
2.94408e-07
1.45099e-08
7.67818e-09
2.16099e-10
0
0
0
0
0
0
)
;
    }
    defaultFaces
    {
        type            empty;
    }
    procBoundary3to1
    {
        type            processor;
        value           nonuniform List<scalar> 
45
(
-3.50688e-11
-4.79223e-11
-4.98366e-11
-3.86499e-11
-1.9424e-11
-1.54109e-12
1.72745e-12
8.96374e-12
9.73303e-12
2.89924e-11
7.77632e-11
4.33433e-07
2.19375e-06
1.53007e-06
2.19496e-07
1.48712e-06
1.65107e-05
4.28186e-05
2.13853e-05
8.73444e-06
3.21898e-06
8.41479e-07
9.81961e-07
6.39288e-05
0.000159743
9.52572e-07
2.79519e-06
1.21352e-05
4.45793e-05
7.24896e-05
3.88275e-07
1.30693e-08
1.24537e-09
5.75383e-12
4.88709e-12
3.49502e-10
4.29056e-10
7.18095e-10
7.71095e-10
6.40861e-10
5.41622e-10
2.39188e-10
2.19897e-10
0.0015302
0.263025
)
;
    }
    procBoundary3to2
    {
        type            processor;
        value           nonuniform List<scalar> 
43
(
-1.27268e-11
-8.08561e-12
-5.01806e-12
-2.97977e-12
-1.61992e-12
-7.01802e-13
-5.80755e-14
8.75148e-13
2.41376e-12
4.58977e-12
7.84695e-12
1.31822e-11
1.99868e-11
2.1291e-11
2.0202e-11
1.68132e-11
1.16764e-11
6.87381e-12
3.63479e-12
1.75528e-12
7.23377e-13
2.23042e-13
4.41503e-14
5.39817e-15
5.30373e-16
5.90501e-17
7.20302e-18
7.69499e-19
8.24186e-20
8.44825e-21
7.81081e-22
6.10484e-23
4.01247e-24
2.20838e-25
9.82785e-27
3.37484e-28
8.52878e-30
1.4787e-31
2.20405e-33
4.72686e-35
2.23871e-37
5.19662e-41
-1.92568e-73
)
;
    }
}


// ************************************************************************* //
