/*--------------------------------*- C++ -*----------------------------------*\
| =========                 |                                                 |
| \\      /  F ield         | OpenFOAM: The Open Source CFD Toolbox           |
|  \\    /   O peration     | Version:  5.0                                   |
|   \\  /    A nd           | Web:      www.OpenFOAM.org                      |
|    \\/     M anipulation  |                                                 |
\*---------------------------------------------------------------------------*/
FoamFile
{
    version     2.0;
    format      ascii;
    class       surfaceScalarField;
    location    "0.7";
    object      alphaPhi10;
}
// * * * * * * * * * * * * * * * * * * * * * * * * * * * * * * * * * * * * * //

dimensions      [0 3 -1 0 0 0 0];

internalField   nonuniform List<scalar> 
3782
(
-9.455e-16
1.26266e-16
-6.7292e-16
9.93684e-17
-4.68563e-16
6.83813e-17
-3.13788e-16
4.01977e-17
-1.96433e-16
1.82635e-17
-1.07813e-16
3.97379e-18
-4.04718e-17
-8.14789e-19
5.22518e-17
9.84348e-19
1.90149e-16
1.32584e-17
3.75179e-16
4.3665e-17
6.3802e-16
1.13053e-16
1.04115e-15
2.43075e-16
1.64371e-15
4.95909e-16
1.89559e-15
9.126e-16
1.7828e-15
1.1464e-15
1.43902e-15
1.18985e-15
9.19086e-16
1.02667e-15
4.64757e-16
6.96022e-16
2.09376e-16
3.89712e-16
9.22198e-17
2.05742e-16
3.63605e-17
1.05019e-16
1.05144e-17
4.50533e-17
1.79961e-18
1.33873e-17
1.69876e-19
2.4068e-18
1.1544e-20
2.77727e-19
8.14139e-22
2.90769e-20
4.40451e-23
3.28344e-21
-9.46889e-25
3.54644e-22
-5.01132e-25
2.88314e-23
-7.48339e-26
2.1936e-24
-7.88966e-27
1.51702e-25
-6.25109e-28
8.91254e-27
-3.84518e-29
4.05713e-28
-1.85622e-30
1.3433e-29
-6.8855e-32
2.75234e-31
-1.95515e-33
6.87198e-34
-4.78144e-35
-1.47423e-34
-2.04668e-36
-8.0094e-36
-2.91317e-38
-8.95276e-37
-1.67979e-40
-1.01117e-38
-1.79155e-43
-5.09558e-41
-8.37224e-60
-5.06548e-44
-3.50859e-60
2.25893e-16
-1.41364e-15
2.63697e-16
-1.68506e-15
1.76255e-16
-1.4812e-15
-7.97667e-16
2.35072e-18
1.78357e-16
-1.07363e-15
2.1269e-16
-1.35953e-15
1.40145e-16
-1.25944e-15
-6.82374e-16
-6.06705e-19
1.283e-16
-8.0364e-16
1.61056e-16
-1.09033e-15
1.09587e-16
-1.0794e-15
-6.10566e-16
-5.31008e-18
8.20243e-17
-5.84424e-16
1.12015e-16
-8.58584e-16
8.36134e-17
-9.2424e-16
-5.74417e-16
-1.46919e-17
4.33228e-17
-4.04318e-16
6.72861e-17
-6.52372e-16
5.91355e-17
-7.77619e-16
-5.61407e-16
-7.09093e-18
1.46892e-17
-2.56431e-16
2.91048e-17
-4.65539e-16
3.26939e-17
-6.26267e-16
-5.44378e-16
1.46812e-18
-1.1978e-18
-1.3519e-16
9.02601e-19
-2.96618e-16
5.21928e-18
-4.64303e-16
-4.91819e-16
3.08852e-18
-2.26733e-18
-3.99419e-17
-7.43221e-18
-1.47155e-16
-1.33925e-17
-2.9197e-16
-3.82206e-16
-1.6468e-17
7.91649e-18
1.44155e-16
-1.69593e-18
-1.58691e-17
-1.29748e-17
-1.21654e-16
-2.25817e-16
-2.44671e-17
4.54344e-17
4.11564e-16
2.51778e-17
3.58381e-16
1.24529e-17
2.0433e-16
-4.46853e-17
-7.89822e-18
1.30649e-16
7.65523e-16
1.38737e-16
8.66052e-16
1.10295e-16
8.4905e-16
6.27964e-16
5.94482e-17
3.05233e-16
1.27768e-15
3.64093e-16
1.56205e-15
4.13487e-16
1.83704e-15
1.88051e-15
3.74892e-16
6.3014e-16
2.09311e-15
8.07171e-16
2.63321e-15
1.00642e-15
3.28498e-15
3.88969e-15
1.15083e-15
1.30145e-15
3.31574e-15
1.65731e-15
4.41853e-15
2.12152e-15
5.49746e-15
6.89234e-15
2.57e-15
2.28749e-15
3.64157e-15
3.33142e-15
6.6601e-15
4.3049e-15
9.19062e-15
1.1513e-14
5.12547e-15
2.71154e-15
3.33127e-15
5.44925e-15
6.96864e-15
8.31867e-15
1.32208e-14
1.90882e-14
1.01997e-14
2.63668e-15
2.43347e-15
6.19251e-15
5.91696e-15
1.32915e-14
1.37004e-14
2.53601e-14
1.89708e-14
1.99903e-15
1.3156e-15
5.56115e-15
3.81288e-15
1.46291e-14
1.1172e-14
2.45317e-14
2.54611e-14
1.13466e-15
5.65133e-16
3.63628e-15
1.70963e-15
1.20236e-14
6.11054e-15
1.86149e-14
2.52778e-14
5.69271e-16
2.50092e-16
1.67894e-15
6.35679e-16
6.13518e-15
1.97389e-15
7.12082e-15
1.87398e-14
3.06955e-16
1.16977e-16
7.62317e-16
2.85595e-16
2.07744e-15
6.17846e-16
1.63857e-15
7.19791e-15
1.6003e-16
4.49442e-17
4.17987e-16
1.3546e-16
9.10206e-16
2.92229e-16
5.62227e-16
2.18615e-15
6.31106e-17
1.08052e-17
2.10017e-16
4.58143e-17
5.08619e-16
1.32747e-16
2.72828e-16
1.05133e-15
1.54572e-17
1.39016e-18
7.00917e-17
8.15461e-18
2.26894e-16
3.49195e-17
1.00547e-16
5.39932e-16
2.2392e-18
1.0817e-19
1.2967e-17
7.42726e-19
5.74158e-17
4.13625e-18
1.70664e-17
1.83633e-16
2.52742e-19
8.00971e-21
1.6072e-18
5.77768e-20
8.22309e-18
3.28833e-19
1.48494e-18
3.3135e-17
3.1408e-20
5.71429e-22
2.22644e-19
5.20223e-21
1.20485e-18
3.31922e-20
1.49455e-19
5.05117e-18
4.19935e-21
2.54308e-24
3.68091e-20
1.44617e-22
2.28938e-19
1.59822e-21
9.17272e-21
1.01987e-18
3.78122e-22
-4.91148e-24
4.20764e-21
-5.10898e-23
3.17954e-20
-3.72516e-22
-1.8368e-21
1.61653e-19
3.01455e-23
-8.02546e-25
4.16192e-22
-1.10901e-23
3.71553e-21
-1.04815e-22
-6.20272e-22
2.10246e-20
2.08633e-24
-8.79615e-26
3.49143e-23
-1.4893e-24
3.70058e-22
-1.71261e-23
-1.17486e-22
2.35961e-21
1.24857e-25
-7.00426e-27
2.51624e-24
-1.44802e-25
3.19863e-23
-2.09294e-24
-1.73967e-23
2.34406e-22
5.71735e-27
-4.04692e-28
1.41092e-25
-9.74346e-27
2.26543e-24
-1.87216e-25
-2.05292e-24
2.02416e-23
1.81547e-28
-1.7693e-29
5.31334e-27
-4.40566e-28
1.15363e-25
-1.16047e-26
-1.85124e-25
1.38102e-24
3.61609e-30
-5.98613e-31
1.14938e-28
-1.29206e-29
3.54587e-27
-4.55629e-28
-1.18365e-26
6.3428e-26
2.1961e-32
-1.60101e-32
8.26422e-31
-2.39345e-31
3.98076e-29
-9.03562e-30
-4.6419e-28
1.25933e-27
-9.10072e-34
-4.50202e-34
-1.48852e-32
-4.03054e-33
-7.92664e-31
-3.96581e-32
-6.45963e-30
-4.18366e-29
-6.45954e-35
-2.64314e-35
-3.4753e-34
-9.14122e-35
-7.95685e-33
-4.64768e-35
-2.41593e-32
-2.45736e-30
-8.93061e-36
-2.78759e-37
-4.72617e-36
-8.51692e-37
-1.04524e-35
-7.64474e-37
-4.32773e-34
-1.99088e-32
-6.8415e-38
-1.65451e-39
-4.61564e-38
-4.81945e-39
-1.90286e-37
-3.93034e-39
-4.24084e-36
-4.27205e-34
-3.31784e-40
-2.76523e-42
-2.17825e-40
-8.49132e-42
-3.66591e-39
-2.98916e-42
-5.91095e-39
-4.23489e-36
-4.52546e-43
-1.14482e-56
-1.74945e-43
-4.21979e-53
-3.16403e-42
-1.56576e-49
-9.79208e-46
-5.91411e-39
-1.14517e-56
-4.22094e-53
-1.56618e-49
-9.78647e-46
-1.18841e-17
-1.00426e-17
-2.59608e-17
2.49257e-17
7.16279e-16
1.04605e-15
-4.91894e-14
5.63511e-14
-1.44996e-12
1.64517e-12
-5.96164e-11
1.0016e-10
-1.09411e-10
2.56975e-10
-1.35657e-10
2.67182e-10
-7.60602e-11
2.86235e-10
-6.66963e-12
3.25172e-10
-3.06927e-10
1.81999e-10
-1.76303e-10
5.23459e-12
-2.23592e-10
3.09995e-11
-7.0295e-10
1.40065e-10
-1.81358e-10
7.3478e-10
-8.90626e-11
1.07399e-10
-3.53962e-11
3.00893e-12
-2.48067e-09
-2.92639e-10
-1.48465e-09
-3.46773e-09
-2.06728e-10
-7.86174e-11
-1.13486e-10
-6.32455e-11
7.34591e-10
-5.79351e-10
-6.95834e-09
-2.28965e-08
-1.56274e-08
-6.4204e-08
-9.77202e-09
-6.38317e-08
-8.2922e-10
-2.81868e-08
-4.26514e-11
-8.03485e-10
-1.16209e-12
-4.22697e-11
-1.09293e-14
-1.18427e-12
-6.23089e-15
-1.69135e-15
-4.34575e-15
-7.61669e-14
-1.29558e-15
-8.9682e-14
4.39888e-15
-9.62663e-14
1.00293e-14
-9.07733e-14
1.21568e-14
-7.35004e-14
1.36058e-14
-7.27961e-14
7.87672e-15
-5.91255e-14
4.83463e-15
-2.56898e-14
1.88669e-15
-1.77958e-14
-4.12635e-05
-1.82883e-17
7.54621e-18
1.49561e-18
1.82284e-16
-4.51294e-15
5.61016e-15
-3.87249e-13
4.43456e-13
-1.28515e-11
1.78779e-11
-9.3306e-11
2.18172e-10
-1.09313e-10
2.66101e-10
-1.17211e-10
2.80202e-10
-1.27758e-10
2.8321e-10
-6.91183e-11
2.46993e-10
-2.55127e-11
3.03368e-11
-9.90073e-12
2.50202e-12
-5.34845e-11
6.59296e-11
-2.8392e-10
3.29909e-10
-1.83262e-10
2.15799e-10
-1.43138e-11
1.23589e-11
-2.38073e-11
3.14656e-13
-1.05126e-09
-2.6911e-10
-3.79905e-11
-5.02083e-09
-2.37984e-11
-1.24188e-11
7.40472e-11
-2.64746e-11
-5.42769e-11
-4.53308e-10
-2.02751e-08
-3.39516e-08
-1.90676e-08
-6.54651e-08
-1.60503e-08
-6.6609e-08
-9.74465e-09
-6.42387e-08
-6.21938e-10
-2.65362e-08
-2.04144e-11
-6.48868e-10
-2.67767e-14
-2.11146e-11
-1.29447e-14
-5.12067e-15
-8.058e-15
-1.01157e-13
-3.32123e-15
-1.10373e-13
4.39815e-15
-1.13878e-13
1.23587e-14
-1.10227e-13
1.66919e-14
-9.50871e-14
2.04855e-14
-9.81958e-14
1.82619e-14
-1.10196e-13
7.88181e-15
-6.21583e-14
5.61017e-15
-1.7292e-14
-5.91412e-05
-1.55246e-17
3.9409e-17
1.23024e-16
6.8271e-16
-1.85466e-15
1.09033e-14
-3.86553e-13
8.24054e-13
-5.89592e-11
3.40595e-11
-8.41325e-11
2.37731e-10
-9.02849e-11
2.74498e-10
-9.68425e-11
2.81221e-10
-1.03676e-10
2.76289e-10
-3.16778e-11
1.51631e-10
-6.0018e-12
6.36132e-12
3.38948e-12
3.03022e-12
-1.39347e-10
9.07914e-11
-1.69721e-10
2.44895e-10
-6.25955e-11
-1.80711e-11
2.43474e-12
1.42368e-11
-6.12978e-12
-3.86216e-13
-5.63085e-10
-6.55862e-11
-5.91086e-11
-3.17572e-10
-7.13668e-12
-1.92296e-11
3.20827e-12
-4.5354e-12
-3.22606e-10
-1.47957e-10
-1.85001e-08
-2.31143e-08
-1.88434e-08
-6.48796e-08
-1.79747e-08
-6.7227e-08
-1.45352e-08
-6.74189e-08
-6.47603e-09
-6.34276e-08
-2.24037e-10
-1.45419e-08
-5.37081e-14
-2.45069e-10
-2.20498e-14
-8.80121e-15
-1.08097e-14
-1.50229e-13
-5.04782e-15
-1.19851e-13
2.86301e-15
-1.21479e-13
1.1008e-14
-1.18062e-13
1.66907e-14
-1.04556e-13
2.19351e-14
-1.0813e-13
2.67437e-14
-1.65628e-13
1.40219e-14
-1.06663e-13
1.15404e-14
-1.70766e-14
-5.93098e-05
-1.28163e-16
9.01904e-17
-2.02424e-16
1.77694e-15
6.11678e-15
5.82845e-15
4.9467e-13
3.35755e-13
-2.36517e-11
1.45628e-11
-6.54564e-11
1.26536e-10
-6.78725e-11
2.74394e-10
-7.21595e-11
2.75681e-10
-4.83778e-11
2.50163e-10
-7.15652e-12
2.76331e-11
-1.18569e-12
7.04263e-13
3.72977e-12
2.95984e-12
-4.70093e-11
4.2758e-11
-1.26881e-11
-3.63673e-12
-1.99069e-11
-1.99102e-12
-3.09294e-12
2.28689e-11
-1.24787e-11
-4.64065e-13
-6.9028e-12
-3.39749e-11
-7.78005e-12
-5.72507e-11
1.19843e-12
-2.75617e-11
-1.72059e-12
-7.42528e-13
-1.35825e-10
-9.68048e-12
-8.54496e-09
-1.64597e-09
-1.5437e-08
-5.505e-08
-1.66124e-08
-6.57899e-08
-1.57203e-08
-6.76861e-08
-1.03636e-08
-6.77963e-08
-4.06463e-09
-5.76848e-08
-6.77004e-14
-5.91921e-09
-3.81577e-14
-1.36527e-14
-1.16394e-14
-2.03074e-13
-6.06444e-15
-1.20408e-13
1.30998e-15
-1.21775e-13
8.68282e-15
-1.25122e-13
1.43067e-14
-1.09556e-13
2.01495e-14
-1.13604e-13
2.92102e-14
-1.87646e-13
2.11236e-14
-1.46104e-13
1.95613e-14
-1.71345e-14
-4.37266e-05
-9.72721e-17
6.4867e-17
-3.51259e-16
1.98135e-15
6.58482e-15
6.70034e-15
2.78464e-13
7.04565e-14
5.62896e-13
2.53484e-12
-4.48305e-11
6.84891e-12
-4.54469e-11
2.73218e-10
-4.12858e-11
2.73929e-10
-1.92889e-11
1.24467e-10
-4.88149e-13
1.73971e-12
7.43399e-14
3.66117e-13
-3.71757e-12
3.69526e-12
-8.82879e-13
1.83229e-13
-5.6291e-13
1.60055e-13
-1.58064e-12
7.34289e-12
5.8837e-13
2.89949e-12
-7.01067e-12
-3.06307e-13
-8.4492e-12
-1.03242e-10
-1.03652e-11
-4.81823e-11
-1.78829e-12
-2.23383e-11
-4.553e-13
-6.02188e-13
-9.26171e-12
-6.35192e-13
-1.59736e-09
-7.59183e-12
-5.87853e-09
-7.25942e-10
-1.27427e-08
-3.20987e-08
-1.37228e-08
-6.57088e-08
-1.26778e-08
-6.78355e-08
-3.54585e-09
-6.58033e-08
-6.52767e-14
-1.10766e-08
-4.15307e-14
-1.76392e-14
-1.03772e-14
-2.03266e-13
-5.33165e-15
-1.06284e-13
3.33171e-16
-1.00777e-13
6.62923e-15
-1.1766e-13
1.12288e-14
-1.06607e-13
1.58691e-14
-1.17762e-13
2.74835e-14
-1.90557e-13
2.8296e-14
-1.69953e-13
3.12685e-14
-1.75118e-14
-2.81831e-05
-1.10281e-16
-2.28409e-17
-1.4377e-16
1.14145e-15
1.64986e-15
7.95568e-15
-4.01004e-14
1.10736e-13
4.60756e-14
5.13543e-13
-1.83906e-12
-7.08192e-13
-1.25001e-11
8.07677e-13
-1.17631e-11
4.20581e-11
-1.2912e-12
-1.22584e-12
-4.16696e-14
5.03e-13
-6.04121e-15
3.1633e-13
6.73485e-14
3.93652e-13
2.0984e-13
-1.2467e-13
9.58243e-14
5.26803e-13
2.44245e-12
1.0456e-11
3.17595e-12
-6.05393e-13
1.74404e-12
2.90343e-14
2.10404e-11
-7.22731e-11
3.49357e-13
-1.37407e-10
-5.07985e-13
-4.44115e-11
-5.59644e-14
-5.21974e-13
-7.9105e-14
-4.13343e-13
-7.33219e-12
-4.58019e-13
-7.30767e-10
-2.04038e-12
-4.38078e-09
-3.51819e-10
-9.73243e-09
-3.01382e-08
-1.0738e-08
-6.58235e-08
-5.65115e-09
-6.91825e-08
-7.65669e-14
-8.38214e-09
-3.44428e-14
-4.28113e-14
-7.81216e-15
-1.82661e-13
-3.62055e-15
-9.70625e-14
4.31332e-16
-9.2893e-14
4.85117e-15
-1.00483e-13
8.77337e-15
-1.0196e-13
1.24551e-14
-1.12419e-13
2.30967e-14
-1.92414e-13
2.97274e-14
-1.78657e-13
4.02631e-14
-1.81659e-14
-2.09035e-05
-1.3058e-17
-1.95922e-16
-2.29424e-17
2.85961e-16
-6.75626e-17
6.55873e-15
-1.4429e-14
8.74688e-14
-4.96598e-15
1.25392e-13
-8.11664e-15
-9.42422e-14
1.05353e-13
-4.35393e-13
6.61981e-13
-1.16518e-12
3.65664e-14
-5.83597e-13
1.63816e-14
5.14144e-13
3.21085e-14
2.43545e-13
6.5511e-14
8.83953e-14
1.29115e-13
1.89568e-14
5.64551e-13
1.13177e-13
3.27627e-12
2.50772e-12
1.58894e-12
1.99357e-13
1.44579e-12
2.22571e-14
5.48079e-11
-1.39323e-11
4.06175e-11
-1.99841e-11
-7.53948e-13
-2.77902e-11
6.21114e-15
-1.26821e-12
1.4762e-15
-5.11785e-13
-1.32143e-14
-5.09866e-13
-1.70031e-12
-4.68999e-13
-3.53286e-10
-2.81659e-13
-3.64917e-09
-1.05528e-11
-5.69517e-09
-2.73915e-08
-2.4366e-09
-1.90367e-10
-3.25925e-13
-1.43926e-09
-1.77158e-14
-3.09568e-13
-4.23891e-15
-1.15887e-13
-1.2204e-15
-9.68148e-14
1.68746e-15
-9.3347e-14
4.73555e-15
-9.22938e-14
7.92012e-15
-9.67424e-14
1.00281e-14
-9.55957e-14
1.91322e-14
-1.92653e-13
2.57895e-14
-1.80281e-13
4.54227e-14
-1.97902e-14
-1.86988e-05
-1.07316e-17
-2.8123e-16
1.84597e-17
6.92878e-17
4.63575e-16
2.60141e-15
5.98146e-15
4.08371e-14
1.5426e-14
5.23e-14
2.22288e-14
6.00549e-14
1.41913e-13
-7.81483e-14
2.02205e-13
-2.24727e-13
5.47286e-14
1.84555e-14
7.19257e-14
3.59618e-13
4.59468e-14
2.26553e-13
4.83906e-14
1.66153e-13
7.65601e-14
1.09012e-13
1.01872e-13
8.2439e-14
1.2162e-12
2.05338e-13
4.9833e-13
2.5836e-14
3.27967e-13
4.12933e-14
1.02504e-12
-1.3776e-12
1.02803e-11
-3.96546e-12
1.11595e-12
-1.05955e-12
-1.16298e-15
-9.46837e-13
2.60914e-13
-4.23916e-12
5.01743e-14
-2.58101e-12
1.38673e-14
-4.85071e-13
4.52439e-15
-3.20424e-13
-1.02733e-11
-3.4459e-13
-5.77489e-13
-8.42541e-11
-9.37642e-12
-5.54375e-11
-2.55085e-13
-8.33034e-11
-3.26774e-15
-2.51794e-13
5.19054e-16
-8.83767e-14
2.44401e-15
-1.03128e-13
4.31298e-15
-9.26392e-14
5.91561e-15
-8.92728e-14
7.9205e-15
-8.98057e-14
9.187e-15
-8.33128e-14
1.71268e-14
-1.91546e-13
2.13786e-14
-1.66875e-13
6.23614e-14
-3.60803e-14
-1.58929e-05
-2.48641e-17
-2.45216e-16
6.40682e-18
2.06783e-18
3.42735e-16
5.58104e-16
5.16038e-15
1.19419e-14
1.06618e-14
2.93811e-14
1.44617e-14
4.90316e-14
3.42586e-14
4.7179e-14
5.76317e-14
3.45675e-14
6.11462e-14
9.96117e-14
9.50191e-14
1.91716e-13
7.49619e-14
2.00988e-13
7.43588e-14
1.73674e-13
6.52412e-14
1.22204e-13
6.09336e-14
7.88118e-14
2.09214e-13
6.11209e-14
2.55721e-13
1.11226e-13
4.74703e-12
6.39982e-13
1.43964e-12
-7.43682e-13
2.76275e-13
-1.67265e-12
1.74734e-13
-3.95015e-13
1.01793e-12
-2.33158e-12
1.62163e-12
-4.65958e-12
6.24537e-13
-5.56554e-12
1.13443e-13
-1.8082e-12
4.19104e-14
-2.93048e-13
3.33622e-14
-3.98024e-13
4.26767e-13
-8.46332e-11
2.4548e-12
-2.65278e-11
1.89993e-13
-7.99377e-11
1.61423e-14
1.91573e-12
7.47578e-15
1.97239e-14
8.26893e-15
-1.77788e-13
7.98777e-15
-9.05706e-14
8.5784e-15
-8.63552e-14
9.27623e-15
-8.30909e-14
9.27159e-15
-7.71974e-14
1.57034e-14
-1.31645e-13
1.8652e-14
-1.07381e-13
3.34774e-13
-3.12143e-13
-1.05144e-05
-1.84656e-17
-1.10396e-16
-2.97176e-18
-1.66502e-17
1.0114e-16
1.83238e-16
2.33004e-15
2.3588e-15
7.7036e-15
1.18641e-14
1.33996e-14
3.00688e-14
1.93353e-14
3.93044e-14
2.96318e-14
4.76572e-14
5.05614e-14
7.49597e-14
8.62828e-14
1.13003e-13
9.65804e-14
1.47699e-13
1.01013e-13
1.52111e-13
8.41466e-14
1.20372e-13
7.43338e-14
7.5719e-14
8.81227e-14
4.68913e-14
1.74609e-13
2.88406e-14
2.5363e-12
-2.84872e-14
1.74963e-12
-1.69118e-13
1.04481e-12
-3.93667e-14
1.14792e-12
-1.86912e-14
2.4799e-12
-2.60319e-12
2.53599e-12
-4.57918e-12
2.37374e-12
-5.26862e-12
1.97875e-13
-2.36642e-12
1.3366e-13
-3.06805e-13
1.50928e-12
-1.57718e-12
2.18466e-11
-1.03955e-10
6.76248e-11
-4.63456e-11
6.34063e-12
-7.34061e-12
1.15828e-13
2.29094e-11
1.74923e-13
-7.87916e-12
3.93439e-15
-2.01531e-13
1.20777e-14
-8.83525e-14
1.20761e-14
-8.12855e-14
1.1289e-14
-7.82537e-14
1.01776e-14
-7.24677e-14
1.27005e-14
-5.99484e-14
2.63566e-14
-7.39665e-14
5.42585e-12
-5.57631e-12
-9.05484e-06
2.32238e-17
3.78691e-16
2.05715e-17
1.67019e-16
6.87879e-17
1.73214e-16
5.97186e-16
7.44919e-16
3.61275e-15
3.03831e-15
9.58458e-15
1.17016e-14
1.55123e-14
2.19651e-14
2.47139e-14
3.33991e-14
4.30409e-14
5.12947e-14
6.86221e-14
6.76775e-14
9.25922e-14
8.72957e-14
1.04944e-13
1.07259e-13
1.00241e-13
9.63046e-14
8.41115e-14
6.85232e-14
8.46496e-14
4.60193e-14
1.02143e-13
3.40259e-14
9.31428e-14
6.898e-15
4.80388e-14
-1.3671e-14
3.29468e-14
-1.89648e-14
3.51983e-14
-1.68796e-14
3.53571e-12
-2.62592e-12
3.33376e-12
-4.28261e-12
3.06742e-12
-4.88381e-12
4.85254e-13
-1.88615e-12
4.00061e-13
-3.31147e-13
2.43303e-11
-2.56173e-11
8.78827e-10
-2.04804e-09
1.51205e-09
-1.25484e-08
6.18987e-11
-4.65495e-09
-8.57666e-12
-2.1977e-12
-1.10383e-12
-1.56638e-11
-2.29426e-14
-1.10081e-12
1.61768e-14
-1.06179e-13
1.58845e-14
-7.71258e-14
1.38282e-14
-7.34037e-14
1.13955e-14
-6.44889e-14
1.94919e-14
-4.14575e-14
3.66557e-13
-4.11303e-13
1.11973e-10
-1.17329e-10
-1.74261e-05
2.67261e-16
1.74573e-15
1.62701e-16
1.13672e-15
1.43094e-16
6.09098e-16
3.32809e-16
6.75245e-16
1.01758e-15
1.40911e-15
4.0028e-15
2.9171e-15
9.28624e-15
7.48726e-15
1.70314e-14
1.48166e-14
2.9656e-14
2.49384e-14
4.48097e-14
3.34614e-14
6.40068e-14
4.15733e-14
8.66205e-14
5.4402e-14
9.17254e-14
5.89601e-14
8.30642e-14
4.74009e-14
8.32843e-14
3.26357e-14
9.54167e-14
2.37358e-14
1.27531e-13
1.56997e-14
9.68825e-14
-3.27941e-15
5.8944e-14
-8.80297e-15
6.16562e-14
-1.48638e-14
3.91516e-12
-1.07543e-12
4.08985e-12
-4.42921e-12
2.09015e-12
-4.18547e-12
5.67564e-13
-7.72526e-13
6.30453e-13
-3.51771e-13
3.5304e-10
-3.77792e-10
5.01294e-09
-7.4999e-09
6.01375e-09
-1.35009e-08
1.91777e-09
-1.37753e-08
-2.05769e-10
-3.43003e-09
-6.71675e-12
-1.78877e-10
-2.14697e-13
-5.8785e-12
1.55767e-14
-2.08592e-13
1.91042e-14
-7.16894e-14
1.58814e-14
-6.41678e-14
1.72491e-14
-5.34272e-14
1.53124e-14
-3.94877e-14
9.10212e-12
-9.49961e-12
2.5805e-09
-2.69373e-09
-2.4336e-05
1.05222e-15
4.29063e-15
7.91698e-16
3.56041e-15
5.30133e-16
2.42076e-15
5.02825e-16
1.42673e-15
7.61508e-16
1.32534e-15
1.35857e-15
1.95853e-15
3.12921e-15
2.92104e-15
7.14696e-15
4.48449e-15
1.38537e-14
7.57012e-15
2.23141e-14
1.15563e-14
3.27848e-14
1.50688e-14
5.00357e-14
1.98026e-14
6.13981e-14
2.71069e-14
6.28725e-14
2.42194e-14
5.93543e-14
1.70946e-14
6.18652e-14
1.06665e-14
6.30947e-14
4.73777e-15
4.9128e-14
-1.52246e-15
4.85694e-14
-7.57667e-15
4.86351e-14
-1.34627e-14
3.57091e-12
-4.66276e-13
4.04078e-12
-2.28336e-12
2.71629e-13
-1.44077e-12
5.55264e-13
-6.7488e-13
9.37103e-13
-3.78919e-13
4.73892e-09
-1.55484e-09
8.72433e-09
-1.05162e-08
8.304e-09
-1.306e-08
7.74992e-09
-1.31884e-08
5.22693e-10
-7.90457e-09
-2.1046e-11
-5.69116e-10
-9.57687e-13
-2.61231e-11
-2.16344e-14
-7.73935e-13
1.91982e-14
-7.10139e-14
1.59951e-14
-5.00909e-14
1.99867e-14
-4.35937e-14
1.44239e-14
-3.65354e-14
1.97584e-10
-3.33702e-10
6.10766e-08
-6.36773e-08
-2.76395e-05
2.76545e-15
8.15455e-15
2.51951e-15
7.82606e-15
1.95053e-15
6.46984e-15
1.42339e-15
4.54239e-15
1.36101e-15
3.15432e-15
1.50207e-15
2.57307e-15
2.1641e-15
2.66244e-15
3.13206e-15
3.33685e-15
5.03466e-15
4.46398e-15
8.23859e-15
5.37713e-15
1.25613e-14
6.34597e-15
1.98379e-14
7.48992e-15
3.06711e-14
9.40433e-15
3.3755e-14
1.01245e-14
3.3848e-14
8.6855e-15
3.71487e-14
7.8482e-15
4.5898e-14
4.25673e-15
4.77055e-14
-1.54961e-15
4.91442e-14
-7.25819e-15
5.43367e-14
-1.79813e-14
9.36529e-13
-2.82739e-14
1.02218e-12
-2.4228e-13
8.27253e-13
-4.11386e-13
1.43261e-12
-5.24931e-13
2.30058e-12
-5.19759e-13
9.85679e-09
-2.46372e-09
1.08304e-08
-1.1462e-08
1.01896e-08
-1.23834e-08
9.52825e-09
-1.25031e-08
2.14666e-09
-1.1585e-08
1.59234e-12
-4.34512e-10
-3.02066e-13
-2.36078e-11
-3.00835e-14
-5.86257e-13
1.72224e-14
-6.70335e-14
1.60938e-14
-4.27098e-14
1.93726e-14
-3.6303e-14
1.45316e-14
-3.16274e-14
2.89256e-11
-2.16439e-09
2.78063e-07
-8.27666e-07
-2.59363e-05
5.76757e-15
1.37284e-14
5.94217e-15
1.39763e-14
5.36319e-15
1.29943e-14
4.44949e-15
1.08536e-14
3.42074e-15
7.96761e-15
3.03193e-15
5.65277e-15
3.24766e-15
4.63384e-15
3.79291e-15
4.37181e-15
4.93416e-15
4.31257e-15
6.57472e-15
4.87123e-15
8.65442e-15
5.52652e-15
1.15415e-14
6.16992e-15
1.58929e-14
6.9218e-15
2.14057e-14
7.31742e-15
3.04926e-14
7.34691e-15
5.65956e-14
9.09528e-15
7.35355e-14
6.16392e-15
7.60823e-14
-1.14506e-15
5.77658e-14
-5.86165e-15
7.75258e-14
-3.28393e-14
2.66108e-13
-3.36299e-14
6.78904e-13
7.48659e-14
1.03639e-12
5.33898e-13
1.89878e-12
-3.41489e-13
4.2624e-12
-8.87811e-13
1.3446e-08
-4.61508e-09
1.28014e-08
-1.09823e-08
1.21075e-08
-1.16728e-08
1.12017e-08
-1.15369e-08
8.91384e-10
-6.21088e-09
1.21645e-11
-1.25325e-10
-3.68686e-13
-1.03433e-11
-2.46904e-14
-3.5658e-13
2.03685e-14
-5.39968e-14
1.88088e-14
-3.54805e-14
2.04351e-14
-2.85047e-14
1.47918e-14
-2.39983e-14
5.4012e-10
-2.70449e-09
-1.65254e-06
-5.41813e-07
-1.69123e-15
1.10881e-14
2.29175e-14
1.15414e-14
2.26531e-14
1.1818e-14
2.1784e-14
9.79458e-15
1.90761e-14
7.75461e-15
1.60051e-14
6.21443e-15
1.18696e-14
5.89932e-15
8.51179e-15
6.34743e-15
6.2215e-15
7.24114e-15
5.7242e-15
8.6927e-15
5.7629e-15
1.07582e-14
6.06743e-15
1.3347e-14
6.44377e-15
1.71272e-14
6.60382e-15
2.51222e-14
7.0769e-15
5.45466e-14
1.1404e-14
7.7081e-14
1.19875e-14
8.45983e-14
5.67596e-15
7.61742e-14
-1.00261e-15
1.00009e-13
-4.33177e-14
1.32298e-12
-1.2212e-12
5.53398e-12
-3.58322e-12
5.1816e-12
1.1624e-12
2.72249e-12
-7.05581e-13
3.14764e-12
-6.96475e-13
1.13201e-11
-2.65113e-12
1.55586e-08
-8.10787e-09
1.49962e-08
-1.06932e-08
1.38278e-08
-1.06382e-08
9.79576e-09
-7.38957e-09
9.06924e-11
-7.6168e-10
1.39768e-12
-3.31113e-11
-2.66828e-13
-1.55873e-12
-1.91716e-14
-1.32674e-13
3.09106e-14
-5.14941e-14
2.56297e-14
-3.50092e-14
3.18427e-14
-2.9255e-14
2.70113e-14
-1.85863e-14
-1.15828e-08
-4.27801e-14
-1.47058e-17
-8.40023e-15
-1.70594e-15
2.18132e-14
3.4389e-14
2.08292e-14
3.40273e-14
2.00482e-14
2.86946e-14
2.21916e-14
2.91489e-14
3.07107e-14
3.88313e-14
2.28432e-14
4.12348e-14
9.44978e-15
1.24277e-14
7.05106e-15
8.04e-15
7.61588e-15
6.63551e-15
8.76991e-15
6.52422e-15
1.10239e-14
6.12155e-15
1.47347e-14
5.86783e-15
1.99701e-14
6.15735e-15
3.441e-14
7.49274e-15
6.45236e-14
1.0983e-14
6.96209e-14
7.58239e-15
6.15431e-14
2.66399e-15
6.90461e-14
-4.82255e-15
1.07419e-11
-1.0711e-11
2.41418e-10
-6.55264e-11
3.40055e-10
-1.71646e-10
1.70559e-10
-2.20381e-10
4.50826e-12
-4.99201e-11
1.07452e-11
-6.54748e-12
4.80203e-11
-1.00968e-11
1.58635e-08
-7.49849e-09
1.52959e-08
-9.61384e-09
1.17496e-08
-7.29978e-09
7.03241e-10
-1.497e-09
1.16221e-11
-5.45172e-11
-4.84972e-13
-3.01915e-12
-2.66616e-13
-1.82465e-13
3.65718e-14
-3.41589e-14
5.61009e-14
-3.76614e-14
4.71209e-14
-2.97271e-14
3.70297e-14
-2.27619e-14
2.08365e-14
-1.49922e-14
8.91655e-16
-1.76551e-14
1.33602e-16
-5.15415e-15
-1.57234e-15
2.91358e-14
3.37388e-14
3.12753e-14
3.45073e-14
2.79281e-14
3.18401e-14
3.19224e-14
3.10945e-14
5.30054e-14
3.74769e-14
8.44791e-14
6.73427e-14
1.09507e-13
7.95678e-14
4.7922e-14
7.56417e-14
1.15322e-14
4.45586e-14
9.12859e-15
1.07477e-14
9.89087e-15
8.50884e-15
1.2106e-14
1.00473e-14
1.96161e-14
5.64249e-15
3.58541e-14
6.4571e-15
5.22726e-14
7.90705e-15
5.18461e-14
4.64211e-15
5.97464e-14
1.42231e-15
3.04843e-12
-2.9859e-12
6.31434e-10
-4.32391e-11
7.86701e-10
-1.18047e-10
7.81308e-10
-1.73137e-10
7.78504e-10
-2.13373e-10
3.8642e-11
-7.40336e-11
3.62575e-11
-9.48003e-12
2.17644e-10
-9.38321e-11
1.69278e-08
-1.97406e-09
1.1646e-08
-8.90858e-10
1.54394e-09
-7.8991e-11
5.61641e-11
-5.46076e-12
2.45164e-12
-3.48502e-13
8.56215e-14
-9.66599e-15
1.19372e-14
-1.92739e-14
4.50803e-14
-1.45549e-14
7.61799e-14
-2.78463e-14
6.66391e-14
-3.04442e-14
5.28171e-14
-1.96427e-14
3.8967e-14
-1.13624e-14
1.75442e-14
-6.82676e-15
2.87063e-15
-1.84844e-15
-1.67628e-13
3.05554e-14
3.00201e-14
3.44746e-14
3.2147e-14
3.26446e-14
3.20861e-14
3.48065e-14
2.91236e-14
4.66955e-14
2.97933e-14
7.63106e-14
2.93722e-14
1.66445e-13
6.58453e-14
4.13645e-13
1.97459e-13
1.16533e-12
9.60573e-13
1.12753e-12
9.00489e-13
3.74729e-13
6.21736e-13
3.9878e-14
2.21029e-13
2.1071e-14
3.13801e-14
3.87109e-14
8.14652e-15
4.69863e-14
5.79468e-15
5.45482e-14
3.13663e-15
6.13987e-14
4.00212e-16
4.98203e-10
-1.18748e-11
8.40894e-10
-7.96002e-11
8.56995e-10
-1.41097e-10
8.51164e-10
-1.69859e-10
7.3341e-10
-1.00983e-10
8.12711e-11
-3.38844e-11
1.04077e-10
-9.57136e-12
4.60047e-10
-5.67241e-12
9.7599e-10
-1.11423e-12
8.48199e-11
-1.13051e-13
5.80735e-12
-1.48978e-14
4.32496e-13
-1.19047e-14
6.4828e-14
-2.31791e-14
1.98937e-14
-1.42072e-14
2.3753e-14
-8.85641e-15
4.28499e-14
-8.36702e-15
1.05431e-13
-1.69949e-14
1.18988e-13
-2.38992e-14
9.28462e-14
-1.14693e-14
4.90788e-14
-6.88217e-16
2.5429e-14
1.1956e-15
1.21344e-14
-1.34608e-16
-2.88705e-14
2.94271e-14
2.08718e-14
3.51193e-14
2.80282e-14
3.75224e-14
2.88142e-14
3.41808e-14
2.63155e-14
2.74576e-14
1.88888e-14
2.25927e-14
9.85431e-15
7.88711e-14
1.02509e-14
1.69437e-12
2.6253e-13
2.63596e-12
1.11045e-12
2.52946e-12
9.69207e-13
2.27417e-12
8.64172e-13
1.1209e-12
6.12162e-13
6.68006e-14
3.59398e-13
4.73133e-14
4.29136e-14
5.02374e-14
5.95239e-15
5.74673e-14
1.78922e-15
6.56957e-14
-7.37876e-16
8.86106e-10
-6.1953e-12
8.90311e-10
-7.20483e-11
8.09993e-10
-4.27308e-11
6.80401e-10
-4.39271e-11
-3.69613e-12
-1.32242e-11
-8.02565e-12
-1.72284e-12
6.90028e-12
-2.24002e-13
1.2634e-12
-3.72459e-14
1.49445e-13
-1.5255e-14
3.5825e-14
-1.32568e-14
2.45254e-14
-1.77656e-14
2.34518e-14
-1.23675e-14
2.83594e-14
-9.86871e-15
2.78221e-14
-8.29985e-15
2.68188e-14
-6.51702e-15
3.67721e-14
-5.25114e-15
1.20498e-13
-8.9511e-15
1.79939e-13
-3.48713e-15
1.40246e-13
1.37462e-14
6.59997e-14
2.42454e-14
2.24948e-14
1.65125e-14
1.10851e-14
7.19007e-15
1.20849e-14
2.16356e-14
7.14469e-15
3.23387e-14
1.79541e-14
3.57338e-14
2.15393e-14
3.32232e-14
2.08225e-14
2.10847e-14
1.39587e-14
1.68295e-14
8.06093e-15
2.01101e-14
6.84225e-15
1.64219e-12
1.46215e-13
2.46444e-12
6.15788e-13
2.65551e-12
7.64655e-13
2.82392e-12
6.99401e-13
2.84404e-12
5.89627e-13
1.68699e-12
4.19734e-13
1.55769e-13
1.28662e-13
7.94271e-14
3.59587e-14
8.85889e-14
6.08776e-16
1.11169e-13
-3.58347e-15
8.48506e-11
-6.64263e-14
1.65425e-10
-2.46795e-14
1.40338e-10
-1.74679e-14
1.51831e-11
-1.34368e-14
1.97263e-12
-1.14017e-14
2.65745e-13
-9.09317e-15
5.901e-14
-1.22417e-14
3.76187e-14
-1.22849e-14
3.50803e-14
-1.08436e-14
3.42558e-14
-1.0645e-14
3.40992e-14
-1.04648e-14
3.37159e-14
-9.75275e-15
3.19667e-14
-8.36099e-15
3.00268e-14
-6.58123e-15
2.84849e-14
-4.46263e-15
3.86131e-14
-2.47624e-15
1.39762e-13
9.40496e-16
1.81644e-13
2.263e-14
1.66402e-13
4.61515e-14
1.0512e-13
5.7884e-14
2.95485e-14
4.09974e-14
6.60714e-15
1.83966e-14
4.46653e-15
8.12866e-15
1.70449e-15
2.03109e-14
5.62387e-15
2.58217e-14
1.07171e-14
2.71972e-14
1.15749e-14
1.96072e-14
9.85789e-15
1.58104e-14
6.63479e-15
1.6811e-14
5.5037e-15
5.16319e-13
1.37264e-14
2.36564e-12
2.07781e-13
2.62937e-12
5.04601e-13
2.80669e-12
5.1964e-13
2.97009e-12
4.26468e-13
3.08143e-12
3.10844e-13
3.02762e-12
1.84451e-13
8.68587e-13
3.17601e-14
3.64941e-14
-5.20544e-14
8.89456e-14
-2.08534e-14
4.31897e-14
-1.46378e-14
3.7345e-14
-1.3645e-14
3.62881e-14
-1.41176e-14
3.58499e-14
-1.39216e-14
3.58879e-14
-1.09692e-14
3.57527e-14
-9.48543e-15
3.57167e-14
-9.67825e-15
3.6334e-14
-1.00384e-14
3.64425e-14
-1.02255e-14
3.67217e-14
-9.98452e-15
3.72942e-14
-9.65652e-15
3.60697e-14
-8.46505e-15
3.43414e-14
-6.65552e-15
3.31706e-14
-4.62947e-15
3.55741e-14
-3.14431e-15
4.33794e-14
7.61042e-16
8.4375e-14
9.5427e-15
1.49103e-13
4.42932e-14
1.34052e-13
8.09473e-14
9.42096e-14
8.2756e-14
3.36955e-14
6.01393e-14
5.5001e-15
3.24193e-14
7.26231e-15
2.63285e-15
5.92102e-16
7.27271e-15
1.36911e-15
1.34914e-14
3.01265e-15
1.61788e-14
4.71061e-15
1.60318e-14
5.23097e-15
1.39008e-14
5.06564e-15
1.47629e-14
4.32933e-15
2.40696e-14
4.31569e-15
3.90284e-13
8.66954e-15
2.47185e-12
5.26946e-14
2.73711e-12
2.58916e-13
2.90393e-12
2.62122e-13
3.05504e-12
1.61726e-13
3.19374e-12
4.77527e-14
3.25365e-12
-2.61562e-14
6.95903e-13
-5.79089e-14
2.91914e-14
-2.19648e-14
5.61128e-14
-1.38613e-14
5.52221e-14
-1.41709e-14
4.34389e-14
-1.36163e-14
3.88699e-14
-1.20919e-14
3.72976e-14
-1.01931e-14
3.68337e-14
-9.12767e-15
3.73346e-14
-9.51691e-15
3.77627e-14
-9.61447e-15
3.836e-14
-9.71845e-15
3.91372e-14
-9.40774e-15
3.93181e-14
-8.60767e-15
3.79834e-14
-7.02422e-15
3.60585e-14
-4.94623e-15
3.59941e-14
-2.54397e-15
5.49556e-14
4.53787e-16
5.75155e-14
6.39251e-15
5.06826e-14
2.46392e-14
1.3538e-13
6.84387e-14
1.1506e-13
7.96659e-14
8.16467e-14
1.77636e-13
4.80585e-14
8.94431e-14
8.20484e-15
5.30995e-14
1.24714e-14
1.1946e-15
2.40886e-16
2.59096e-15
4.56574e-16
5.30879e-15
8.90001e-16
8.71119e-15
1.60096e-15
1.14748e-14
2.4955e-15
1.28582e-14
3.14253e-15
1.37814e-14
3.19801e-15
1.49746e-14
2.91866e-15
2.09723e-14
2.56675e-15
1.90813e-13
8.34812e-16
8.22614e-13
1.08951e-15
1.80019e-12
9.30159e-15
1.71755e-12
4.81724e-15
1.15853e-12
-1.49034e-14
4.84517e-13
-1.91905e-14
1.55639e-13
-1.26062e-14
1.00111e-13
-8.56955e-15
8.83852e-14
-8.66498e-15
7.65149e-14
-8.372e-15
6.22463e-14
-7.88096e-15
4.84241e-14
-7.2672e-15
3.82232e-14
-7.13953e-15
3.53451e-14
-7.17217e-15
3.55429e-14
-7.44083e-15
3.7166e-14
-8.07613e-15
3.93356e-14
-9.01604e-15
4.13973e-14
-7.58224e-15
4.09222e-14
-5.84994e-15
3.9415e-14
-5.82743e-15
3.73849e-14
-1.0394e-15
3.62557e-14
4.26089e-17
3.5312e-14
3.11349e-15
4.0362e-14
6.43457e-15
2.60849e-12
8.06118e-13
2.55938e-12
1.43386e-12
2.1606e-12
1.80334e-12
7.20605e-14
8.18715e-13
1.81348e-14
8.03263e-14
1.03068e-14
6.16189e-14
2.15431e-14
4.85975e-16
5.96246e-17
1.06383e-15
1.37153e-16
2.19576e-15
2.72737e-16
4.16286e-15
5.11233e-16
7.05347e-15
9.09355e-16
1.00713e-14
1.39146e-15
1.27793e-14
1.77033e-15
1.49704e-14
1.93251e-15
1.61104e-14
1.55343e-15
1.43833e-14
7.92904e-16
1.66719e-14
3.53361e-16
4.30999e-14
-2.14568e-16
4.94467e-14
-1.44323e-15
3.73131e-14
-2.3045e-15
3.28004e-14
-2.56753e-15
3.47449e-14
-2.6072e-15
3.55587e-14
-2.63978e-15
3.13495e-14
-2.95063e-15
2.62938e-14
-3.39527e-15
2.30634e-14
-3.69786e-15
2.13582e-14
-3.84944e-15
2.15948e-14
-3.76092e-15
2.34709e-14
-4.10394e-15
2.78659e-14
-5.86067e-15
3.53757e-14
1.83791e-15