/*--------------------------------*- C++ -*----------------------------------*\
| =========                 |                                                 |
| \\      /  F ield         | OpenFOAM: The Open Source CFD Toolbox           |
|  \\    /   O peration     | Version:  5.0                                   |
|   \\  /    A nd           | Web:      www.OpenFOAM.org                      |
|    \\/     M anipulation  |                                                 |
\*---------------------------------------------------------------------------*/
FoamFile
{
    version     2.0;
    format      ascii;
    class       volScalarField;
    location    "0.7";
    object      epsilon;
}
// * * * * * * * * * * * * * * * * * * * * * * * * * * * * * * * * * * * * * //

dimensions      [0 2 -3 0 0 0 0];

internalField   nonuniform List<scalar> 
1935
(
2.34604
2.38428
2.3941
2.37816
2.34028
2.285
2.21752
2.1431
2.06497
1.98578
1.9076
1.8318
1.75917
1.68991
1.62373
1.55986
1.49726
1.43461
1.37053
1.30372
1.23308
1.15791
1.07801
0.993831
0.906436
0.817496
0.729114
0.643585
0.563426
0.491357
0.4279
0.372943
0.325895
0.285868
0.251838
0.222777
0.197771
0.176027
0.156958
0.140208
0.125655
0.113381
0.103633
2.97129
3.73846
4.69702
5.88009
3.00262
3.75506
4.68695
5.82638
2.99505
3.72
4.60983
5.68775
2.95311
3.64051
4.47661
5.48018
2.88279
3.52544
4.29998
5.22124
2.79083
3.38437
4.09318
4.92862
2.68414
3.22673
3.86903
4.61903
2.57052
3.06271
3.63968
4.30772
2.45438
2.89842
3.41397
4.00564
2.33931
2.73841
3.19729
3.71918
2.22794
2.58597
2.99356
3.45282
2.12208
2.44323
2.80522
3.20929
2.02267
2.3113
2.63343
2.98965
1.92993
2.19031
2.47814
2.79351
1.84342
2.0796
2.3383
2.61931
1.76215
1.97781
2.21208
2.46451
1.68467
1.88305
2.09698
2.32588
1.60928
1.79309
1.99012
2.19971
1.53413
1.70552
1.88839
2.08205
1.4574
1.61793
1.78868
1.96896
1.37752
1.52817
1.68817
1.85682
1.29333
1.43455
1.5845
1.74251
1.20424
1.33602
1.47607
1.62379
1.11042
1.23237
1.36222
1.49944
1.01278
1.12429
1.24334
1.36948
0.912982
1.0134
1.12093
1.23522
0.813306
0.902086
0.99746
1.09915
0.71636
0.793243
0.876072
0.964661
0.624795
0.689858
0.760162
0.835572
0.542257
0.596211
0.65461
0.717425
0.469582
0.513725
0.561528
0.613035
0.40673
0.442437
0.481079
0.522736
0.353079
0.381713
0.412644
0.445965
0.30763
0.330457
0.355043
0.381487
0.269204
0.287332
0.306788
0.327666
0.236598
0.25095
0.266296
0.282723
0.208706
0.220014
0.232063
0.244938
0.184588
0.193407
0.20278
0.212782
0.163514
0.170248
0.177391
0.185009
0.145024
0.149958
0.155185
0.160761
0.12892
0.13226
0.135794
0.139566
0.115248
0.117154
0.119168
0.121318
0.104236
0.104851
0.105499
0.10619
7.39643
9.34558
11.6644
14.3486
17.3629
20.6381
24.0758
27.5599
30.9734
34.2139
37.1994
39.8556
42.0809
43.6968
44.4095
43.8358
41.6471
37.8362
32.9238
27.618
22.6648
18.4868
15.1389
12.5148
10.4889
8.94534
7.7744
6.88442
6.20628
5.68564
5.27993
4.95503
4.68356
4.45302
4.2655
4.14681
4.1462
4.33377
5.00652
10.3546
7.27261
9.11033
11.27
13.7382
16.4732
19.4047
22.4391
25.4708
28.3956
31.1219
33.5703
35.6577
37.2673
38.2176
38.2581
37.1288
34.6954
31.1278
26.8733
22.4854
18.4716
15.1162
12.4593
10.4189
8.8823
7.73957
6.89381
6.26121
5.77719
5.39997
5.0999
4.85397
4.6436
4.46048
4.30931
4.21459
4.23115
4.44667
5.21547
10.8163
7.04335
8.74724
10.7271
12.9636
15.4124
18.0051
20.6552
23.2675
25.7494
28.0176
29.995
31.5959
32.7034
33.1559
32.7637
31.3734
28.976
25.8212
22.2427
18.6573
15.4216
12.7299
10.6116
9.0043
7.81358
6.94455
6.31668
5.86146
5.51693
5.24327
5.0197
4.83128
4.66528
4.51594
4.38953
4.30908
4.32965
4.56051
5.38231
10.956
6.73133
8.28786
10.0777
12.0782
14.2453
16.5147
18.8079
21.0399
23.1283
24.9976
26.5748
27.7776
28.5003
28.6124
27.9838
26.5432
24.3533
21.6542
18.7003
15.7957
13.1943
11.0325
9.33275
8.04898
7.10719
6.43008
5.95165
5.61645
5.37207
5.17653
5.01096
4.86662
4.73488
4.61205
4.50539
4.43638
4.45802
4.68636
5.54753
11.1
6.36034
7.76373
9.36198
11.1312
13.0295
14.998
16.9665
18.86
20.6054
22.1348
23.3814
24.2711
24.7149
24.6157
23.8943
22.5345
20.6296
18.379
15.9758
13.6387
11.55
9.8098
8.43673
7.39849
6.63984
6.10116
5.72963
5.47929
5.3072
5.17243
5.05469
4.94733
4.84487
4.74573
4.65794
4.60193
4.62704
4.84753
5.7227
11.3915
5.95347
7.20443
8.61631
10.1656
11.8136
13.5079
15.1866
16.7836
18.2344
19.4788
20.458
21.1091
21.3591
21.1436
20.4235
19.2163
17.6186
15.7873
13.86
11.9892
10.3133
8.90967
7.79434
6.94774
6.32907
5.89392
5.60233
5.41662
5.29967
5.21394
5.13822
5.0651
4.99073
4.91552
4.84776
4.80704
4.839
5.05603
5.92795
11.7305
5.53196
6.63632
7.87224
9.21755
10.6374
12.086
13.5107
14.8515
16.0517
17.059
17.8235
18.2942
18.4197
18.1596
17.5001
16.4728
15.1631
13.6982
12.1707
10.6917
9.35677
8.22504
7.315
6.62226
6.11665
5.76463
5.53629
5.40314
5.33176
5.28823
5.25171
5.213
5.1685
5.11973
5.07461
5.05188
5.09455
5.31562
6.18557
12.0974
5.11468
6.0821
7.15619
8.31651
9.53214
10.763
11.9627
13.0811
14.0696
14.8837
15.4818
15.8248
15.8781
15.619
15.0484
14.2015
13.1496
11.9915
10.7916
9.62922
8.57275
7.66779
6.93379
6.36954
5.95831
5.67762
5.50483
5.41709
5.38537
5.38166
5.38492
5.38344
5.37295
5.35471
5.33598
5.33456
5.39251
5.62628
6.50835
12.6059
4.71463
5.55656
6.48388
7.47816
8.51241
9.55218
10.5579
11.4875
12.3004
12.9592
13.4308
13.6861
13.7027
13.4699
12.9963
12.315
11.4837
10.577
9.64184
8.73437
7.90412
7.1864
6.59941
6.14615
5.81835
5.60177
5.47999
5.43431
5.44241
5.48047
5.52687
5.56775
5.59701
5.61461
5.62668
5.65018
5.7279
5.98269
6.89204
13.3129
4.33932
5.06857
5.86531
6.71326
7.58926
8.46419
9.30488
10.0765
10.7455
11.2814
11.658
11.8545
11.8567
11.6616
11.2807
10.7432
10.0943
9.39036
8.66654
7.96279
7.31523
6.75127
6.28735
5.92938
5.6749
5.51577
5.44101
5.43734
5.48803
5.57175
5.66692
5.75707
5.83325
5.89316
5.94099
5.99267
6.09294
6.37506
7.3257
14.2075
3.99389
4.62383
5.30646
6.02766
6.76786
7.50282
8.20512
8.84625
9.39879
9.83822
10.1443
10.3019
10.3029
10.148
9.84955
9.43182
8.93024
8.38711
7.82997
7.28748
6.78617
6.34743
5.98578
5.70881
5.51806
5.40997
5.37843
5.41624
5.51212
5.64637
5.79653
5.94384
6.07578
6.18655
6.27702
6.36063
6.48302
6.78909
7.79322
15.2174
3.68119
4.22511
4.80972
5.42294
6.04846
6.6663
7.25411
7.78875
8.24806
8.6125
8.86639
8.99895
9.00551
8.88884
8.66021
8.33968
7.95471
7.53732
7.10997
6.69356
6.30789
5.96975
5.69185
5.48257
5.34607
5.28214
5.28937
5.36729
5.50908
5.69757
5.9089
6.12168
6.32034
6.49466
6.64019
6.76481
6.91007
7.22309
8.26458
16.1109
3.40204
3.87267
4.37443
4.89712
5.42725
5.94855
6.44293
6.89175
7.27727
7.58395
7.79961
7.91643
7.93175
7.84895
7.6779
7.43474
7.14081
6.82059
6.49301
6.17378
5.878
5.61913
5.40828
5.25406
5.16227
5.13574
5.17812
5.29409
5.47961
5.72156
5.99776
6.2835
6.56094
6.81615
7.03788
7.22507
7.40818
7.7068
8.73797
16.7661
3.1555
3.56465
3.99747
4.44541
4.89739
5.34026
5.75945
6.14005
6.46787
6.73054
6.91853
7.02595
7.05121
6.99755
6.87319
6.691
6.46758
6.22184
5.97008
5.72459
5.49732
5.29933
5.1405
5.02945
4.97306
4.9773
5.05054
5.2002
5.42549
5.71738
6.05686
6.41813
6.78315
7.13613
7.45964
7.74295
8.00439
8.29461
9.29999
17.029
2.93922
3.29754
3.67382
4.06094
4.44985
4.82992
5.18948
5.51661
5.79993
6.02957
6.19794
6.30038
6.33579
6.30687
6.22022
6.08596
5.91705
5.72825
5.53365
5.34333
5.16716
5.0146
4.89461
4.8158
4.78606
4.8141
4.91184
5.08872
5.3476
5.68314
6.07754
6.50823
6.95951
7.41457
7.85178
8.25342
8.64334
9.00116
10.1159
17.6379
2.74975
3.06659
3.39713
3.73544
4.07414
4.40466
4.71763
5.00347
5.25305
5.45839
5.61329
5.71392
5.75927
5.75136
5.69529
5.59894
5.47241
5.32729
5.17574
5.02632
4.88758
4.76793
4.67575
4.61967
4.60848
4.65305
4.76774
4.96389
5.24762
5.61561
6.05057
6.53594
7.0576
7.59492
8.12119
8.61379
9.09303
9.57606
11.1398
20.1392
2.58283
2.86619
3.16015
3.45977
3.75902
4.05096
4.32804
4.58252
4.80698
4.99487
5.14103
5.24213
5.29707
5.30718
5.27623
5.21024
5.11707
5.0059
4.88704
4.76798
4.65638
4.56001
4.4869
4.44576
4.4462
4.50051
4.62428
4.83129
5.1292
5.51402
5.9738
6.4967
7.06489
7.6498
8.21558
8.73232
9.22092
9.90692
12.0016
24.9467
2.4337
2.69021
2.95514
3.22437
3.49295
3.7552
4.00497
4.23597
4.44209
4.61785
4.75883
4.86204
4.92619
4.95198
4.94203
4.90084
4.8345
4.75028
4.65681
4.56074
4.46903
4.38896
4.32839
4.29619
4.30279
4.36125
4.48739
4.69641
4.99603
5.38532
5.85962
6.40759
7.00654
7.62168
8.21322
8.75875
9.31618
10.2142
12.8728
29.3981
2.29735
2.53234
2.77428
3.01971
3.26452
3.50405
3.73322
3.94683
4.13977
4.30739
4.4458
4.55221
4.62519
4.66483
4.67283
4.65243
4.60826
4.5462
4.47332
4.39549
4.31901
4.25072
4.19828
4.17067
4.17888
4.2367
4.35962
4.5622
4.85504
5.24375
5.72749
6.29525
6.92295
7.57488
8.21453
8.83237
9.5089
10.5837
13.4204
30.0267
2.16883
2.38634
2.60989
2.83654
3.06284
3.28488
3.49846
3.69918
3.8827
4.045
4.18262
4.2929
4.37427
4.42634
4.45004
4.44757
4.42226
4.37952
4.3245
4.2623
4.19858
4.13967
4.09291
4.06719
4.07364
4.12615
4.2405
4.43245
4.71628
5.10226
5.59312
6.18034
6.8417
7.54441
8.25813
8.98344
9.80642
11.0481
14.0313
30.8577
2.04352
2.24643
2.45486
2.6663
2.87781
3.08609
3.28756
3.47848
3.65511
3.81392
3.95178
4.06618
4.15542
4.21878
4.25659
4.27025
4.26224
4.23723
4.19886
4.1514
4.09977
4.04965
4.0079
3.98306
3.9861
4.0309
4.13401
4.31345
4.5868
4.96848
5.46554
6.07326
6.77289
7.53552
8.33556
9.17402
10.1288
11.5018
14.6121
32.0134
1.91741
2.1075
2.3029
2.50141
2.70051
2.89737
3.08891
3.27189
3.44308
3.59934
3.73784
3.85622
3.95276
4.02648
4.07725
4.10579
4.11511
4.10769
4.0863
4.0543
4.01571
3.97542
3.9396
3.91627
3.91607
3.95294
4.04426
4.21011
4.47153
4.84733
5.34936
5.97741
6.71646
7.54079
8.4255
9.36851
10.438
11.9207
15.1552
33.233
1.78744
1.96555
2.14893
2.33567
2.52356
2.71015
2.89277
3.06863
3.23487
3.38875
3.52774
3.64967
3.75287
3.83623
3.89933
3.94366
3.97081
3.98209
3.97935
3.96491
3.94174
3.91373
3.88613
3.86625
3.8643
3.89416
3.97392
4.12561
4.37359
4.74122
5.24563
5.89152
6.6676
7.55003
8.51202
9.54843
10.7184
12.2985
15.6577
34.4467
1.65174
1.81789
1.98939
2.16455
2.34144
2.51793
2.69169
2.86032
3.02134
3.17239
3.31125
3.43603
3.54524
3.63772
3.71441
3.77595
3.82258
3.85489
3.87372
3.88025
3.87615
3.86403
3.84798
3.83436
3.83276
3.85689
3.92541
4.06197
4.29403
4.64952
5.15124
5.80932
6.61773
7.55135
8.58176
9.70181
10.9634
12.6357
16.1215
35.6378
1.50984
1.66346
1.82254
1.98558
2.15091
2.31666
2.48087
2.64147
2.79638
2.94364
3.08138
3.20811
3.32274
3.4262
3.51829
3.59875
3.66741
3.72409
3.76858
3.80066
3.82039
3.8287
3.82812
3.82382
3.82458
3.84387
3.90067
4.01994
4.23173
4.56816
5.05776
5.71887
6.54933
7.52729
8.61996
9.81853
11.1692
12.934
16.55
36.8149
1.36278
1.50294
1.64862
1.79851
1.95119
2.10506
2.25849
2.40977
2.55725
2.69946
2.83479
2.96341
3.0858
3.2015
3.31028
3.41187
3.50579
3.59112
3.66643
3.72975
3.77902
3.81284
3.8317
3.83925
3.84344
3.85748
3.9007
3.99891
4.18379
4.49085
4.9553
5.60277
6.43442
7.43585
8.5895
9.87239
11.3178
13.1812
16.9328
37.9735
1.21302
1.33871
1.46986
1.6054
1.7441
1.88468
2.02587
2.16634
2.30471
2.4408
2.57514
2.70737
2.83759
2.96605
3.09294
3.21823
3.34126
3.46039
3.57272
3.67402
3.75919
3.82359
3.86497
3.88534
3.89213
3.89866
3.92483
3.99692
4.14684
4.41035
4.82709
5.42745
6.21753
7.20327
8.4074
9.78953
11.3405
13.3142
17.2096
38.9968
1.0642
1.17456
1.29024
1.41034
1.53384
1.65972
1.78731
1.91618
2.04648
2.17788
2.31072
2.44554
2.58324
2.72484
2.87132
3.02315
3.17972
3.3387
3.49533
3.64215
3.76967
3.86859
3.93344
3.96507
3.97136
3.96633
3.97118
4.01272
4.12233
4.33422
4.69072
5.22631
5.95592
6.89533
8.07449
9.50655
11.1572
13.234
17.2621
39.5622
0.920553
1.01522
1.11489
1.21901
1.32712
1.43886
1.55379
1.6718
1.79314
1.91834
2.04841
2.18481
2.32943
2.48448
2.65205
2.83358
3.02885
3.23474
3.4439
3.64403
3.81911
3.95393
4.04029
4.07921
4.07973
4.05877
4.03965
4.05243
4.1307
4.3101
4.62686
5.10559
5.75693
6.61551
7.72006
9.10732
10.7716
12.9001
16.9978
39.2941
0.788482
0.86815
0.952624
1.04162
1.13492
1.23238
1.33403
1.44019
1.55159
1.66943
1.79557
1.93251
2.0835
2.25226
2.44263
2.65761
2.89776
3.15887
3.42945
3.68957
3.91425
4.08265
4.18505
4.22557
4.21548
4.17701
4.13645
4.12717
4.18364
4.33916
4.6209
5.04767
5.62969
6.4027
7.41447
8.69991
10.2949
12.3905
16.4302
38.0261
0.671463
0.737337
0.80762
0.882247
0.961228
1.04471
1.13309
1.22711
1.32801
1.43772
1.55901
1.69565
1.85253
2.03551
2.2509
2.50409
2.79683
3.12292
3.46364
3.78744
4.05908
4.25239
4.3633
4.40347
4.38387
4.32594
4.26282
4.23111
4.26487
4.39397
4.63997
5.0198
5.54742
6.25026
7.17258
8.3484
9.82349
11.7985
15.6269
35.7089
0.570072
0.623683
0.681193
0.74271
0.808452
0.87882
0.954515
1.03668
1.12707
1.22834
1.34426
1.48007
1.64271
1.84088
2.08438
2.382
2.73675
3.13823
3.55559
3.94154
4.24967
4.45947
4.58417
4.62593
4.58972
4.50446
4.41573
4.3639
4.37983
4.48508
4.69779
5.03502
5.51179
6.15379
6.99405
8.06011
9.39565
11.2056
14.7124
32.2628
0.483855
0.526921
0.573338
0.623347
0.677326
0.735885
0.799984
0.87111
0.951515
1.04454
1.15504
1.28991
1.45868
1.67372
1.94948
2.29896
2.72553
3.21023
3.70416
4.14145
4.47787
4.71191
4.85229
4.88652
4.8151
4.69492
4.58427
4.52044
4.52735
4.61844
4.80849
5.11349
5.54824
6.13477
6.89651
7.85731
9.06912
10.7644
14.1547
28.3957
0.411551
0.445816
0.482908
0.523159
0.56707
0.615405
0.669333
0.730632
0.801984
0.887407
0.992882
1.1272
1.30297
1.53727
1.85037
2.25932
2.7648
3.33327
3.89408
4.36993
4.72891
4.99068
5.1422
5.14543
5.03179
4.88585
4.76513
4.70187
4.71401
4.80687
4.99168
5.2804
5.68561
6.22473
6.91368
7.7781
8.89211
10.5243
13.7568
24.1372
0.351387
0.378484
0.407946
0.440166
0.475725
0.515501
0.560823
0.613706
0.677211
0.755991
0.857186
0.991668
1.17564
1.43187
1.78795
2.26188
2.84624
3.48816
4.09684
4.59817
4.98293
5.26397
5.40584
5.37593
5.23984
5.0851
4.96655
4.91347
4.93929
5.04469
5.23716
5.52235
5.90827
6.41001
7.04528
7.84718
8.91315
10.513
13.4587
19.4132
0.301374
0.32273
0.346066
0.37181
0.400595
0.433374
0.471589
0.517457
0.574402
0.64762
0.74546
0.881023
1.07432
1.35342
1.75013
2.28341
2.93387
3.63182
4.27585
4.79644
5.20544
5.50977
5.64973
5.60367
5.45571
5.29741
5.18405
5.14412
5.18522
5.30891
5.51726
5.81117
6.19588
6.68539
7.30659
8.11315
9.22065
10.854
13.3045
14.3186
0.259551
0.276335
0.294787
0.315352
0.33869
0.365788
0.398142
0.438047
0.489084
0.556931
0.650774
0.78544
0.984094
1.27943
1.70733
2.28572
2.98629
3.72869
4.40457
4.94811
5.38352
5.71815
5.87799
5.83549
5.68467
5.52726
5.41985
5.39125
5.44573
5.58972
5.82188
6.14216
6.55871
7.09368
7.78815
8.70833
9.94047
11.4924
12.7696
9.45704
0.224139
0.23723
0.251728
0.268071
0.286911
0.309224
0.336491
0.370993
0.41632
0.478257
0.56631
0.696157
0.89282
1.19215
1.63365
2.23678
2.97099
3.75085
4.46039
5.03158
5.4955
5.86646
6.07182
6.05425
5.91573
5.77422
5.68552
5.67189
5.75107
5.9316
6.21388
6.6022
7.11108
7.76585
8.59656
9.6165
10.7497
11.6087
10.9903
5.7313
0.193671
0.203701
0.214898
0.227674
0.242643
0.260725
0.283317
0.31258
0.351936
0.40693
0.486769
0.606857
0.792246
1.0797
1.5116
2.11314
2.86033
3.66984
4.41754
5.02236
5.51055
5.9016
6.1474
6.18164
6.08322
5.98452
5.94196
5.98424
6.12762
6.37813
6.73883
7.21363
7.80807
8.51982
9.30933
10.055
10.4658
9.94716
7.58982
3.42042
0.167113
0.174505
0.182829
0.192445
0.203896
0.217997
0.236
0.259851
0.292655
0.339475
0.408761
0.514731
0.680592
0.940623
1.33661
1.90072
2.62498
3.44222
4.23191
4.88958
5.40805
5.78137
5.98637
6.04288
6.01003
5.99574
6.05504
6.19519
6.41939
6.73113
7.12651
7.59109
8.09842
8.59914
8.97748
8.99783
8.31726
6.58328
3.86188
2.24363
0.143872
0.148908
0.154625
0.161308
0.16939
0.17953
0.192758
0.210713
0.236076
0.273347
0.330239
0.419901
0.562991
0.786698
1.12415
1.60589
2.24068
2.99767
3.80293
4.55577
5.19036
5.64398
5.79899
5.71677
5.63932
5.69533
5.859
6.07822
6.33354
6.61925
6.91811
7.1917
7.38283
7.41113
7.16763
6.46663
5.13433
3.29217
1.74675
1.71997
0.123776
0.12666
0.129957
0.133848
0.138615
0.144697
0.152799
0.1641
0.180663
0.206314
0.248523
0.321875
0.44938
0.643482
0.922692
1.31053
1.82352
2.4549
3.18579
4.02047
4.96238
5.84927
6.16755
5.64854
5.18956
5.17727
5.36414
5.5802
5.7729
5.94092
6.0677
6.0747
5.87964
5.41375
4.61849
3.49372
2.17809
1.23756
0.914714
1.83493
0.10698
0.107907
0.108969
0.110228
0.111783
0.113786
0.116496
0.12037
0.126313
0.136391
0.156257
0.204852
0.350383
0.531834
0.774215
1.09289
1.50014
1.99997
2.60145
3.37729
4.52897
5.96006
6.35115
5.84234
5.08142
4.73632
4.75867
4.83657
4.87476
4.86498
4.78984
4.55988
4.07339
3.1591
1.20235
0.580645
0.370143
0.289048
0.421631
3.11091
)
;

boundaryField
{
    leftWall
    {
        Cmu             0.09;
        kappa           0.41;
        E               9.8;
        type            epsilonWallFunction;
        value           nonuniform 0();
    }
    rightWall
    {
        Cmu             0.09;
        kappa           0.41;
        E               9.8;
        type            epsilonWallFunction;
        value           nonuniform List<scalar> 
43
(
10.3546
10.8163
10.956
11.1
11.3915
11.7305
12.0974
12.6059
13.3129
14.2075
15.2174
16.1109
16.7661
17.029
17.6379
20.1392
24.9467
29.3981
30.0267
30.8577
32.0134
33.233
34.4467
35.6378
36.8149
37.9735
38.9968
39.5622
39.2941
38.0261
35.7089
32.2628
28.3957
24.1372
19.4132
14.3186
9.45704
5.7313
3.42042
2.24363
1.71997
1.83493
3.11091
)
;
    }
    lowerWall
    {
        Cmu             0.09;
        kappa           0.41;
        E               9.8;
        type            epsilonWallFunction;
        value           nonuniform 0();
    }
    atmosphere
    {
        type            inletOutlet;
        inletValue      uniform 0.1;
        value           nonuniform List<scalar> 
45
(
0.1
0.1
0.1
0.1
0.1
0.1
0.1
0.1
0.1
0.1
0.1
0.1
0.1
0.1
0.1
0.1
0.1
0.350383
0.531834
0.774215
1.09289
1.50014
1.99997
2.60145
3.37729
4.52897
5.96006
6.35115
5.84234
5.08142
4.73632
4.75867
4.83657
4.87476
4.86498
4.78984
4.55988
4.07339
3.1591
0.1
0.1
0.1
0.1
0.1
0.1
)
;
    }
    defaultFaces
    {
        type            empty;
    }
    procBoundary3to1
    {
        type            processor;
        value           nonuniform List<scalar> 
45
(
2.27835
2.89865
3.66568
4.63225
5.83638
7.39559
9.42428
11.8697
14.7403
18.0118
21.6209
25.4679
29.4276
33.3681
37.1725
40.7524
44.0443
46.9757
49.405
51.0421
51.3951
49.8863
46.1864
40.7724
34.473
28.4067
23.2282
18.9958
15.5768
12.8492
10.7112
9.06643
7.81594
6.86899
6.1502
5.59861
5.16446
4.80799
4.51001
4.27095
4.12035
4.09871
4.20432
4.76015
9.63276
)
;
    }
    procBoundary3to2
    {
        type            processor;
        value           nonuniform List<scalar> 
43
(
1.84806
1.88784
1.90735
1.90807
1.8923
1.86308
1.82438
1.7791
1.72962
1.67789
1.6254
1.57317
1.52177
1.47134
1.42165
1.37212
1.32196
1.27019
1.21583
1.15795
1.09588
1.02928
0.958263
0.883473
0.806066
0.72765
0.650131
0.575485
0.506123
0.443808
0.388897
0.341234
0.300277
0.265252
0.235292
0.209536
0.187236
0.16774
0.150586
0.135514
0.122463
0.111551
0.103039
)
;
    }
}


// ************************************************************************* //
