/*--------------------------------*- C++ -*----------------------------------*\
| =========                 |                                                 |
| \\      /  F ield         | OpenFOAM: The Open Source CFD Toolbox           |
|  \\    /   O peration     | Version:  5.0                                   |
|   \\  /    A nd           | Web:      www.OpenFOAM.org                      |
|    \\/     M anipulation  |                                                 |
\*---------------------------------------------------------------------------*/
FoamFile
{
    version     2.0;
    format      ascii;
    class       surfaceScalarField;
    location    "0.7";
    object      phi;
}
// * * * * * * * * * * * * * * * * * * * * * * * * * * * * * * * * * * * * * //

dimensions      [0 3 -1 0 0 0 0];

internalField   nonuniform List<scalar> 
3782
(
3.96143e-05
-3.40063e-06
4.15994e-05
-3.76166e-06
4.33948e-05
-3.63245e-06
4.49332e-05
-3.03574e-06
4.61586e-05
-2.01249e-06
4.70286e-05
-6.18103e-07
4.75142e-05
1.08262e-06
4.75996e-05
3.02037e-06
4.72804e-05
5.12522e-06
4.65622e-05
7.32893e-06
4.5459e-05
9.56683e-06
4.39912e-05
1.1779e-05
4.21845e-05
1.3911e-05
4.00686e-05
1.59134e-05
3.76762e-05
1.77422e-05
3.50422e-05
1.93577e-05
3.22036e-05
2.07243e-05
2.91996e-05
2.18108e-05
2.60708e-05
2.25897e-05
2.28599e-05
2.30387e-05
1.96114e-05
2.31412e-05
1.63709e-05
2.28879e-05
1.31849e-05
2.2279e-05
1.00998e-05
2.13253e-05
7.1604e-06
2.00501e-05
4.40824e-06
1.84898e-05
1.87986e-06
1.66926e-05
-3.95248e-07
1.47172e-05
-2.39624e-06
1.2629e-05
-4.11188e-06
1.04951e-05
-5.54042e-06
8.38115e-06
-6.68911e-06
6.34945e-06
-7.5732e-06
4.45746e-06
-8.21491e-06
2.75698e-06
-8.64229e-06
1.2934e-06
-8.88825e-06
1.04492e-07
-8.98943e-06
-7.81823e-07
-8.98494e-06
-1.35062e-06
-8.91452e-06
-1.60413e-06
-8.81602e-06
-1.56553e-06
-8.7223e-06
-1.28125e-06
-8.65785e-06
-8.20552e-07
-2.70966e-07
-5.70199e-06
4.09889e-05
-8.32983e-06
4.46341e-05
-1.12924e-05
4.84897e-05
5.25692e-05
-1.45921e-05
-5.93093e-06
4.31581e-05
-8.39205e-06
4.70952e-05
-1.11452e-05
5.12428e-05
5.56059e-05
-1.41819e-05
-5.58505e-06
4.51107e-05
-7.78557e-06
4.92957e-05
-1.0226e-05
5.36833e-05
5.82687e-05
-1.28888e-05
-4.70005e-06
4.67751e-05
-6.56191e-06
5.11576e-05
-8.60636e-06
5.57277e-05
6.04709e-05
-1.08085e-05
-3.33142e-06
4.8094e-05
-4.79418e-06
5.26204e-05
-6.3803e-06
5.73139e-05
6.21503e-05
-8.05965e-06
-1.54972e-06
4.90256e-05
-2.57079e-06
5.36414e-05
-3.65688e-06
5.84e-05
6.3268e-05
-4.77463e-06
5.65322e-07
4.95429e-05
1.13812e-08
5.41954e-05
-5.52284e-07
5.89636e-05
6.38067e-05
-1.09095e-06
2.93028e-06
4.9633e-05
2.85319e-06
5.42725e-05
2.81715e-06
5.89997e-05
6.37672e-05
2.85662e-06
5.46303e-06
4.92952e-05
5.8591e-06
5.38764e-05
6.34144e-06
5.85173e-05
6.31656e-05
6.943e-06
8.08507e-06
4.8539e-05
8.93965e-06
5.30218e-05
9.91968e-06
5.75373e-05
6.20297e-05
1.10557e-05
1.07235e-05
4.73824e-05
1.20133e-05
5.17319e-05
1.34617e-05
5.60889e-05
6.03954e-05
1.5096e-05
1.33119e-05
4.58495e-05
1.50076e-05
5.00363e-05
1.68888e-05
5.42077e-05
5.83044e-05
1.89798e-05
1.57912e-05
4.39693e-05
1.78586e-05
4.79689e-05
2.01334e-05
5.19329e-05
5.58019e-05
2.2636e-05
1.81086e-05
4.17741e-05
2.05109e-05
4.55666e-05
2.31376e-05
4.93062e-05
5.29341e-05
2.60054e-05
2.02177e-05
3.92987e-05
2.29162e-05
4.28681e-05
2.5852e-05
4.63703e-05
4.97478e-05
2.90384e-05
2.20769e-05
3.65795e-05
2.50317e-05
3.99133e-05
2.82335e-05
4.31685e-05
4.62894e-05
3.16918e-05
2.36493e-05
3.36546e-05
2.68195e-05
3.67431e-05
3.02435e-05
3.97445e-05
4.26051e-05
3.39278e-05
2.49019e-05
3.05635e-05
2.82456e-05
3.33994e-05
3.18477e-05
3.61423e-05
3.87411e-05
3.57117e-05
2.5806e-05
2.73472e-05
2.92799e-05
2.99255e-05
3.30149e-05
3.24073e-05
3.47441e-05
3.70119e-05
2.63375e-05
2.40484e-05
2.98969e-05
2.63662e-05
3.37182e-05
2.8586e-05
3.06621e-05
3.78002e-05
2.64781e-05
2.07115e-05
3.00765e-05
2.27678e-05
3.39361e-05
2.47264e-05
2.65447e-05
3.80536e-05
2.62172e-05
1.73822e-05
2.98068e-05
1.91782e-05
3.36548e-05
2.08783e-05
2.24428e-05
3.77566e-05
2.5554e-05
1.41072e-05
2.90856e-05
1.56466e-05
3.28711e-05
1.70928e-05
1.84093e-05
3.69046e-05
2.44992e-05
1.09333e-05
2.79235e-05
1.22223e-05
3.15949e-05
1.34214e-05
1.44975e-05
3.55067e-05
2.30773e-05
7.90608e-06
2.63459e-05
8.95369e-06
2.98523e-05
9.91509e-06
1.07605e-05
3.35893e-05
2.13274e-05
5.06839e-06
2.43944e-05
5.88674e-06
2.76869e-05
6.62259e-06
7.24951e-06
3.11979e-05
1.93027e-05
2.4583e-06
2.21265e-05
3.06288e-06
2.51607e-05
3.58844e-06
4.0118e-06
2.83984e-05
1.70683e-05
1.07238e-07
1.96142e-05
5.16936e-07
2.23519e-05
8.50719e-07
1.08852e-06
2.52752e-05
1.4698e-05
-1.96181e-06
1.69399e-05
-1.72492e-06
1.93518e-05
-1.56119e-06
-1.48777e-06
2.19281e-05
1.2269e-05
-3.73572e-06
1.41909e-05
-3.64681e-06
1.62582e-05
-3.62851e-06
-3.69529e-06
1.84657e-05
9.85675e-06
-5.21133e-06
1.14537e-05
-5.24374e-06
1.31692e-05
-5.34407e-06
-5.52445e-06
1.49984e-05
7.53312e-06
-6.395e-06
8.81069e-06
-6.52131e-06
1.0179e-05
-6.71237e-06
-6.97823e-06
1.16328e-05
5.36429e-06
-7.30182e-06
6.33796e-06
-7.49497e-06
7.37448e-06
-7.7489e-06
-8.0718e-06
8.46805e-06
3.40964e-06
-7.95448e-06
4.10357e-06
-8.1889e-06
4.83372e-06
-8.47905e-06
-8.8315e-06
5.59342e-06
1.72101e-06
-8.38209e-06
2.16679e-06
-8.63467e-06
2.62454e-06
-8.93681e-06
-9.29348e-06
3.08652e-06
3.41491e-07
-8.61909e-06
5.76912e-07
-8.8701e-06
8.03454e-07
-9.16334e-06
-9.50231e-06
1.01228e-06
-6.96789e-07
-8.70412e-06
-6.28955e-07
-8.93793e-06
-5.8655e-07
-9.20575e-06
-9.50953e-06
-5.79327e-07
-1.37606e-06
-8.67867e-06
-1.42954e-06
-8.88445e-06
-1.51984e-06
-9.11544e-06
-9.37207e-06
-1.65731e-06
-1.69757e-06
-8.58524e-06
-1.82458e-06
-8.75743e-06
-1.99399e-06
-8.94604e-06
-9.14993e-06
-2.21613e-06
-1.68616e-06
-8.46461e-06
-1.8404e-06
-8.60319e-06
-2.03634e-06
-8.7501e-06
-8.90273e-06
-2.28355e-06
-1.39335e-06
-8.35251e-06
-1.53381e-06
-8.46274e-06
-1.70918e-06
-8.57473e-06
-8.68466e-06
-1.92724e-06
-8.97084e-07
-8.27598e-06
-9.92385e-07
-8.36743e-06
-1.11068e-06
-8.45643e-06
-8.53833e-06
-1.25701e-06
-2.97035e-07
-3.29604e-07
-3.70093e-07
-4.20183e-07
-1.86677e-05
6.38037e-05
-2.31325e-05
6.95274e-05
-2.7937e-05
7.55615e-05
-3.29957e-05
8.18145e-05
-3.818e-05
8.81182e-05
-4.33081e-05
9.41983e-05
-4.81448e-05
9.96593e-05
-5.24158e-05
0.000103997
-5.58129e-05
0.000106599
-5.80143e-05
0.000106783
-5.8721e-05
0.000103858
-5.7712e-05
9.7204e-05
-5.49245e-05
8.63656e-05
-5.04943e-05
7.1156e-05
-4.49681e-05
5.17524e-05
-3.91778e-05
2.88618e-05
-3.41361e-05
3.82113e-06
-3.07897e-05
-2.13052e-05
-2.9757e-05
-4.34952e-05
-3.01964e-05
-6.01e-05
-3.02494e-05
-7.06258e-05
-2.89939e-05
-7.66998e-05
-2.66095e-05
-8.05854e-05
-2.37419e-05
-8.26801e-05
-2.07388e-05
-8.28554e-05
-1.73072e-05
-8.16863e-05
-1.39017e-05
-7.91675e-05
-1.10023e-05
-7.5541e-05
-8.59093e-06
-7.12708e-05
-6.34366e-06
-6.6661e-05
-3.84215e-06
-6.19677e-05
-7.52601e-07
-5.74944e-05
3.0319e-06
-5.37306e-05
7.28169e-06
-5.13621e-05
1.13775e-05
-5.12042e-05
1.43775e-05
-5.41575e-05
1.50012e-05
-6.12199e-05
1.04775e-05
-7.34004e-05
4.07631e-06
-8.22108e-05
-8.09472e-05
-1.78856e-05
6.75075e-05
-2.18758e-05
7.35175e-05
-2.60822e-05
7.97679e-05
-3.04012e-05
8.61335e-05
-3.46912e-05
9.24081e-05
-3.87676e-05
9.82747e-05
-4.2414e-05
0.000103306
-4.53919e-05
0.000106975
-4.7453e-05
0.00010866
-4.83677e-05
0.000107697
-4.79639e-05
0.000103454
-4.61758e-05
9.54158e-05
-4.30957e-05
8.32856e-05
-3.90347e-05
6.70949e-05
-3.45543e-05
4.7272e-05
-3.03585e-05
2.46659e-05
-2.72257e-05
6.88313e-07
-2.57823e-05
-2.27486e-05
-2.60982e-05
-4.31793e-05
-2.72975e-05
-5.89007e-05
-2.80864e-05
-6.98369e-05
-2.78501e-05
-7.69362e-05
-2.67276e-05
-8.17078e-05
-2.51198e-05
-8.42879e-05
-2.31342e-05
-8.48409e-05
-2.06511e-05
-8.41694e-05
-1.75075e-05
-8.23112e-05
-1.41836e-05
-7.88649e-05
-1.11738e-05
-7.42805e-05
-8.30098e-06
-6.95339e-05
-5.21469e-06
-6.5054e-05
-1.68178e-06
-6.10274e-05
2.32994e-06
-5.77423e-05
6.59531e-06
-5.56275e-05
1.05913e-05
-5.52002e-05
1.34408e-05
-5.70069e-05
1.38612e-05
-6.16404e-05
9.87408e-06
-6.94133e-05
5.29721e-06
-7.7634e-05
-7.565e-05
-1.60906e-05
7.07092e-05
-1.94746e-05
7.69015e-05
-2.29572e-05
8.32504e-05
-2.64254e-05
8.96018e-05
-2.97356e-05
9.57183e-05
-3.27162e-05
0.000101255
-3.51813e-05
0.000105771
-3.69389e-05
0.000108732
-3.78119e-05
0.000109533
-3.76678e-05
0.000107553
-3.64508e-05
0.000102237
-3.42186e-05
9.31835e-05
-3.11755e-05
8.02426e-05
-2.76901e-05
6.36095e-05
-2.42642e-05
4.38462e-05
-2.14863e-05
2.18879e-05
-1.99085e-05
-8.89486e-07
-1.98653e-05
-2.27917e-05
-2.11263e-05
-4.19184e-05
-2.29206e-05
-5.71064e-05
-2.43939e-05
-6.83635e-05
-2.50568e-05
-7.62733e-05
-2.50217e-05
-8.17429e-05
-2.43427e-05
-8.49669e-05
-2.31107e-05
-8.6073e-05
-2.1399e-05
-8.58811e-05
-1.90252e-05
-8.4685e-05
-1.58446e-05
-8.20456e-05
-1.26073e-05
-7.75178e-05
-9.49512e-06
-7.2646e-05
-6.18952e-06
-6.83596e-05
-2.54028e-06
-6.46766e-05
1.42335e-06
-6.17059e-05
5.47237e-06
-5.96765e-05
9.14425e-06
-5.88721e-05
1.16901e-05
-5.95528e-05
1.19811e-05
-6.19314e-05
8.72601e-06
-6.61582e-05
4.05059e-06
-7.29585e-05
-7.15994e-05
-1.34108e-05
7.33115e-05
-1.60958e-05
7.95865e-05
-1.87733e-05
8.59279e-05
-2.13295e-05
9.21579e-05
-2.36289e-05
9.80178e-05
-2.55238e-05
0.00010315
-2.68641e-05
0.000107111
-2.75114e-05
0.00010938
-2.73619e-05
0.000109384
-2.63721e-05
0.000106563
-2.45808e-05
0.000100446
-2.21341e-05
9.07368e-05
-1.92956e-05
7.74041e-05
-1.64329e-05
6.07467e-05
-1.39794e-05
4.13926e-05
-1.23967e-05
2.03053e-05
-1.20388e-05
-1.24741e-06
-1.30209e-05
-2.18097e-05
-1.49981e-05
-3.99411e-05
-1.73179e-05
-5.47866e-05
-1.94065e-05
-6.62749e-05
-2.08896e-05
-7.47902e-05
-2.1734e-05
-8.08985e-05
-2.18662e-05
-8.48346e-05
-2.13324e-05
-8.66068e-05
-2.0218e-05
-8.69955e-05
-1.8532e-05
-8.6371e-05
-1.60571e-05
-8.45205e-05
-1.30646e-05
-8.05102e-05
-9.97398e-06
-7.57366e-05
-6.68846e-06
-7.16451e-05
-3.14055e-06
-6.82245e-05
5.94156e-07
-6.54406e-05
4.30057e-06
-6.33829e-05
7.60095e-06
-6.21725e-05
9.92824e-06
-6.18801e-05
1.04301e-05
-6.24332e-05
8.01058e-06
-6.37387e-05
3.22275e-06
-6.81707e-05
-6.83766e-05
-9.99659e-06
7.52485e-05
-1.19256e-05
8.15155e-05
-1.37558e-05
8.77581e-05
-1.53799e-05
9.3782e-05
-1.66785e-05
9.93164e-05
-1.75324e-05
0.000104004
-1.78312e-05
0.00010741
-1.749e-05
0.000109038
-1.64726e-05
0.000108366
-1.48083e-05
0.000104899
-1.26081e-05
9.82461e-05
-1.00737e-05
8.82023e-05
-7.48941e-06
7.48198e-05
-5.19653e-06
5.84538e-05
-3.56076e-06
3.97569e-05
-2.91504e-06
1.96596e-05
-3.45745e-06
-7.05011e-07
-5.15941e-06
-2.01077e-05
-7.67571e-06
-3.74248e-05
-1.04796e-05
-5.19827e-05
-1.31264e-05
-6.36281e-05
-1.53308e-05
-7.25858e-05
-1.6973e-05
-7.92563e-05
-1.79325e-05
-8.38752e-05
-1.81187e-05
-8.64206e-05
-1.76073e-05
-8.75069e-05
-1.65178e-05
-8.74604e-05
-1.48432e-05
-8.61951e-05
-1.24626e-05
-8.28909e-05
-9.6629e-06
-7.85363e-05
-6.57293e-06
-7.47351e-05
-3.27894e-06
-7.15185e-05
9.3209e-08
-6.88128e-05
3.34787e-06
-6.66376e-05
6.19792e-06
-6.50225e-05
8.25463e-06
-6.39368e-05
8.98316e-06
-6.31618e-05
7.62326e-06
-6.23788e-05
3.63628e-06
-6.41837e-05
-6.47403e-05
-6.00946e-06
7.64833e-05
-7.15698e-06
8.2663e-05
-8.13083e-06
8.87319e-05
-8.83499e-06
9.44861e-05
-9.17059e-06
9.96519e-05
-9.04796e-06
0.000103881
-8.39766e-06
0.00010676
-7.1849e-06
0.000107826
-5.42867e-06
0.00010661
-3.21522e-06
0.000102686
-7.0467e-07
9.57355e-05
1.87412e-06
8.56235e-05
4.23603e-06
7.24579e-05
6.07416e-06
5.66157e-05
7.09347e-06
3.87375e-05
7.06801e-06
1.9685e-05
5.90723e-06
4.55759e-07
3.71475e-06
-1.79153e-05
8.0546e-07
-3.45155e-05
-2.39761e-06
-4.87796e-05
-5.5157e-06
-6.051e-05
-8.29818e-06
-6.98033e-05
-1.06365e-05
-7.6918e-05
-1.24184e-05
-8.20933e-05
-1.34186e-05
-8.54203e-05
-1.36495e-05
-8.72761e-05
-1.31963e-05
-8.79136e-05
-1.22662e-05
-8.71252e-05
-1.06539e-05
-8.45033e-05
-8.31072e-06
-8.08795e-05
-5.57292e-06
-7.74729e-05
-2.6766e-06
-7.44148e-05
2.07706e-07
-7.16971e-05
2.901e-06
-6.93309e-05
5.18632e-06
-6.73078e-05
6.80258e-06
-6.55531e-05
7.46356e-06
-6.38227e-05
6.82617e-06
-6.17414e-05
3.53956e-06
-6.08971e-05
-6.12008e-05
-1.61254e-06
7.70049e-05
-1.97985e-06
8.30303e-05
-2.11454e-06
8.88666e-05
-1.935e-06
9.43066e-05
-1.36427e-06
9.90812e-05
-3.4143e-07
0.000102859
1.16583e-06
0.000105252
3.1483e-06
0.000105843
5.54309e-06
0.000104215
8.22441e-06
0.000100004
1.10035e-05
9.29564e-05
1.36383e-05
8.29888e-05
1.58572e-05
7.0239e-05
1.73894e-05
5.50835e-05
1.80031e-05
3.81238e-05
1.75501e-05
2.0138e-05
1.60073e-05
1.99858e-06
1.35114e-05
-1.54194e-05
1.03485e-05
-3.13526e-05
6.86909e-06
-4.53003e-05
3.40014e-06
-5.70411e-05
1.76881e-07
-6.658e-05
-2.6739e-06
-7.40673e-05
-5.07721e-06
-7.969e-05
-6.87974e-06
-8.36178e-05
-8.0372e-06
-8.61186e-05
-8.43787e-06
-8.75129e-05
-8.28746e-06
-8.72756e-05
-7.33008e-06
-8.54606e-05
-5.54182e-06
-8.26677e-05
-3.34133e-06
-7.96733e-05
-1.01832e-06
-7.67378e-05
1.23702e-06
-7.39524e-05
3.26165e-06
-7.13555e-05
4.8888e-06
-6.8935e-05
5.94015e-06
-6.66044e-05
6.261e-06
-6.41436e-05
5.68964e-06
-6.117e-05
2.94338e-06
-5.81508e-05
-5.82574e-05
3.03791e-06
7.68236e-05
3.42804e-06
8.26402e-05
4.09512e-06
8.81995e-05
5.10513e-06
9.32966e-05
6.51363e-06
9.76727e-05
8.35486e-06
0.000101017
1.06298e-05
0.000102977
1.32952e-05
0.000103178
1.62553e-05
0.000101255
1.93581e-05
9.69014e-05
2.23996e-05
8.9915e-05
2.51374e-05
8.02509e-05
2.73172e-05
6.80593e-05
2.87027e-05
5.36979e-05
2.91117e-05
3.77149e-05
2.84486e-05
2.08011e-05
2.67302e-05
3.71692e-06
2.41016e-05
-1.27907e-05
2.08228e-05
-2.80739e-05
1.71987e-05
-4.16762e-05
1.3514e-05
-5.33564e-05
9.98987e-06
-6.30559e-05
6.768e-06
-7.08454e-05
3.93625e-06
-7.68582e-05
1.57343e-06
-8.1255e-05
-2.84961e-07
-8.42602e-05
-1.66347e-06
-8.61344e-05
-2.29718e-06
-8.66419e-05
-2.03442e-06
-8.57234e-05
-1.01597e-06
-8.36862e-05
4.00632e-07
-8.10899e-05
1.93594e-06
-7.82731e-05
3.399e-06
-7.54155e-05
4.64491e-06
-7.26014e-05
5.54347e-06
-6.98335e-05
5.96545e-06
-6.70264e-05
5.79775e-06
-6.39759e-05
4.91507e-06
-6.02873e-05
2.46536e-06
-5.57011e-05
-5.5792e-05
7.79973e-06
7.59668e-05
8.90825e-06
8.15317e-05
1.03254e-05
8.67823e-05
1.21018e-05
9.15202e-05
1.42732e-05
9.55013e-05
1.68508e-05
9.84397e-05
1.98109e-05
0.000100017
2.30852e-05
9.99034e-05
2.65559e-05
9.77843e-05
3.00556e-05
9.34017e-05
3.33745e-05
8.65962e-05
3.62769e-05
7.73485e-05
3.85272e-05
6.58091e-05
3.99186e-05
5.23064e-05
4.03043e-05
3.73293e-05
3.96218e-05
2.14836e-05
3.79097e-05
5.42902e-06
3.53108e-05
-1.01918e-05
3.20559e-05
-2.4819e-05
2.84135e-05
-3.80338e-05
2.46393e-05
-4.95822e-05
2.09432e-05
-5.93599e-05
1.74755e-05
-6.73777e-05
1.43357e-05
-7.37183e-05
1.15889e-05
-7.85082e-05
9.25151e-06
-8.19228e-05
7.27574e-06
-8.41586e-05
5.86205e-06
-8.52282e-05
5.20758e-06
-8.50689e-05
5.24165e-06
-8.37202e-05
5.66864e-06
-8.15169e-05
6.22578e-06
-7.88302e-05
6.74028e-06
-7.593e-05
7.09683e-06
-7.2958e-05
7.2041e-06
-6.99408e-05
6.9696e-06
-6.67919e-05
6.28338e-06
-6.32897e-05
4.965e-06
-5.89689e-05
2.40092e-06
-5.3137e-05
-5.33911e-05
1.25478e-05
7.44747e-05
1.43242e-05
7.97553e-05
1.64305e-05
8.46761e-05
1.89027e-05
8.90479e-05
2.17598e-05
9.26442e-05
2.49942e-05
9.52053e-05
2.85633e-05
9.64482e-05
3.2382e-05
9.60848e-05
3.63194e-05
9.38468e-05
4.02014e-05
8.95197e-05
4.38195e-05
8.29781e-05
4.69487e-05
7.42192e-05
4.93714e-05
6.33864e-05
5.09044e-05
5.07735e-05
5.14243e-05
3.68094e-05
5.08875e-05
2.20204e-05
4.93396e-05
6.97693e-06
4.69129e-05
-7.76517e-06
4.38096e-05
-2.17157e-05
4.02654e-05
-3.44897e-05
3.65119e-05
-4.58286e-05
3.27476e-05
-5.55956e-05
2.9124e-05
-6.37541e-05
2.57427e-05
-7.03371e-05
2.2656e-05
-7.54215e-05
1.98535e-05
-7.91203e-05
1.73249e-05
-8.163e-05
1.52705e-05
-8.31738e-05
1.38113e-05
-8.36097e-05
1.28783e-05
-8.27872e-05
1.22409e-05
-8.08795e-05
1.16961e-05
-7.82854e-05
1.11273e-05
-7.53612e-05
1.04761e-05
-7.23067e-05
9.71638e-06
-6.91811e-05
8.82382e-06
-6.58993e-05
7.7052e-06
-6.21711e-05
6.02766e-06
-5.72914e-05
2.78283e-06
-4.98922e-05
-5.06083e-05
1.71748e-05
7.23959e-05
1.95612e-05
7.73689e-05
2.22902e-05
8.1947e-05
2.53851e-05
8.5953e-05
2.88507e-05
8.91787e-05
3.26649e-05
9.1391e-05
3.6772e-05
9.23412e-05
4.10764e-05
9.17803e-05
4.54415e-05
8.94817e-05
4.96931e-05
8.52681e-05
5.36293e-05
7.90418e-05
5.70378e-05
7.08108e-05
5.97176e-05
6.07066e-05
6.1503e-05
4.89881e-05
6.22854e-05
3.6027e-05
6.20287e-05
2.22771e-05
6.07753e-05
8.23026e-06
5.86413e-05
-5.63112e-06
5.58005e-05
-1.88749e-05
5.24582e-05
-3.11474e-05
4.88218e-05
-4.21922e-05
4.50767e-05
-5.18505e-05
4.13711e-05
-6.00485e-05
3.78093e-05
-6.67752e-05
3.44464e-05
-7.20585e-05
3.12693e-05
-7.59432e-05
2.83437e-05
-7.87044e-05
2.578e-05
-8.06101e-05
2.35491e-05
-8.13789e-05
2.1614e-05
-8.0852e-05
1.98482e-05
-7.91137e-05
1.80945e-05
-7.65318e-05
1.63027e-05
-7.35694e-05
1.44786e-05
-7.04826e-05
1.26816e-05
-6.73842e-05
1.10011e-05
-6.42188e-05
9.41937e-06
-6.05894e-05
7.46848e-06
-5.53405e-05
3.87923e-06
-4.6303e-05
-4.67291e-05
2.1591e-05
6.97847e-05
2.45255e-05
7.44343e-05
2.78086e-05
7.86639e-05
3.14527e-05
8.23088e-05
3.54512e-05
8.51802e-05
3.97715e-05
8.70707e-05
4.43492e-05
8.77635e-05
4.9084e-05
8.70456e-05
5.38388e-05
8.47269e-05
5.84441e-05
8.06628e-05
6.27082e-05
7.47777e-05
6.64323e-05
6.70867e-05
6.94304e-05
5.77085e-05
7.155e-05
4.68684e-05
7.26906e-05
3.48864e-05
7.28161e-05
2.21516e-05
7.19589e-05
9.08746e-06
7.02146e-05
-3.88689e-06
6.7729e-05
-1.63893e-05
6.46774e-05
-2.80958e-05
6.1242e-05
-3.87567e-05
5.75917e-05
-4.82002e-05
5.38669e-05
-5.63238e-05
5.0169e-05
-6.30773e-05
4.65534e-05
-6.84429e-05
4.30446e-05
-7.24344e-05
3.98249e-05
-7.54848e-05
3.68299e-05
-7.7615e-05
3.39249e-05
-7.84739e-05
3.10491e-05
-7.79762e-05
2.81412e-05
-7.62058e-05
2.5108e-05
-7.34985e-05
2.19597e-05
-7.04211e-05
1.87371e-05
-6.72599e-05
1.55521e-05
-6.41992e-05
1.25995e-05
-6.12662e-05
1.00354e-05
-5.80253e-05
7.65913e-06
-5.29642e-05
4.16387e-06
-4.28077e-05
-4.25652e-05
2.57229e-05
6.66978e-05
2.91424e-05
7.10148e-05
3.29112e-05
7.48951e-05
3.70327e-05
7.81874e-05
4.14914e-05
8.07215e-05
4.62476e-05
8.23146e-05
5.1232e-05
8.2779e-05
5.63435e-05
8.19341e-05
6.14485e-05
7.96219e-05
6.63856e-05
7.57257e-05
7.0975e-05
7.01883e-05
7.50321e-05
6.30295e-05
7.83845e-05
5.43561e-05
8.08898e-05
4.43631e-05
8.24513e-05
3.3325e-05
8.30282e-05
2.15747e-05
8.26392e-05
9.47643e-06
8.13577e-05
-2.60544e-06
7.93011e-05
-1.43327e-05
7.6615e-05
-2.54096e-05
7.34556e-05
-3.55973e-05
6.99734e-05
-4.4718e-05
6.62992e-05
-5.26496e-05
6.25332e-05
-5.93114e-05
5.87302e-05
-6.46399e-05
5.49821e-05
-6.86864e-05
5.14358e-05
-7.19385e-05
4.79388e-05
-7.4118e-05
4.43878e-05
-7.49228e-05
4.07145e-05
-7.43029e-05
3.67519e-05
-7.22433e-05
3.24602e-05
-6.92068e-05
2.78934e-05
-6.58543e-05
2.30681e-05
-6.24346e-05
1.80601e-05
-5.91912e-05
1.31066e-05
-5.63127e-05
8.68414e-06
-5.36029e-05
5.58254e-06
-4.98626e-05
3.95809e-06
-4.11833e-05
-3.86071e-05
2.95107e-05
6.31925e-05
3.33528e-05
6.71727e-05
3.75409e-05
7.0707e-05
4.20711e-05
7.36572e-05
4.69214e-05
7.58712e-05
5.20473e-05
7.71887e-05
5.73778e-05
7.74485e-05
6.28135e-05
7.64984e-05
6.8227e-05
7.42085e-05
7.3467e-05
7.04856e-05
7.83668e-05
6.52885e-05
8.27557e-05
5.86406e-05
8.6474e-05
5.06378e-05
8.93875e-05
4.14496e-05
9.1401e-05
3.13114e-05
9.24673e-05
2.05084e-05
9.25899e-05
9.35386e-06
9.18197e-05
-1.83528e-06
9.02466e-05
-1.27595e-05
8.79871e-05
-2.31502e-05
8.51716e-05
-3.27818e-05
8.19309e-05
-4.14774e-05
7.83855e-05
-4.91041e-05
7.46355e-05
-5.55613e-05
7.07567e-05
-6.07611e-05
6.68824e-05
-6.4812e-05
6.30094e-05
-6.80655e-05
5.90126e-05
-7.01212e-05
5.48444e-05
-7.07546e-05
5.04054e-05
-6.98639e-05
4.54626e-05
-6.73005e-05
4.00472e-05
-6.37914e-05
3.41615e-05
-5.99686e-05
2.77283e-05
-5.60014e-05
2.06776e-05
-5.21405e-05
1.31114e-05
-4.87465e-05
5.72631e-06
-4.62178e-05
-3.68612e-07
-4.37677e-05
1.09845e-06
-4.26503e-05
-3.75086e-05
3.29054e-05
5.93255e-05
3.71096e-05
6.29685e-05
4.16537e-05
6.61629e-05
4.65279e-05
6.8783e-05
5.17054e-05
7.06937e-05
5.71391e-05
7.1755e-05
6.27581e-05
7.18294e-05
6.84669e-05
7.07897e-05
7.41454e-05
6.853e-05
7.96534e-05
6.49776e-05
8.48375e-05
6.01045e-05
8.95407e-05
5.39373e-05
9.36152e-05
4.65633e-05
9.69342e-05
3.81306e-05
9.94035e-05
2.88421e-05
0.000100969
1.89429e-05
0.00010162
8.70312e-06
0.000101386
-1.60126e-06
0.000100331
-1.17048e-05
9.85448e-05
-2.13639e-05
9.61317e-05
-3.03687e-05
9.32033e-05
-3.8549e-05
8.98689e-05
-4.57697e-05
8.62284e-05
-5.19208e-05
8.23719e-05
-5.69046e-05
7.84299e-05
-6.087e-05
7.43041e-05
-6.39397e-05
6.99087e-05
-6.57258e-05
6.52071e-05
-6.6053e-05
5.99948e-05
-6.46515e-05
5.42162e-05
-6.15219e-05
4.79527e-05
-5.75278e-05
4.10917e-05
-5.31077e-05
3.34546e-05
-4.83643e-05
2.47947e-05
-4.34805e-05
1.48061e-05
-3.87579e-05
3.46812e-06
-3.48798e-05
-5.63484e-06
-3.46647e-05
-6.94181e-06
-4.13434e-05
-4.44505e-05
3.58654e-05
5.51519e-05
4.03735e-05
5.84605e-05
4.52136e-05
6.13228e-05
5.0371e-05
6.36256e-05
5.58158e-05
6.52489e-05
6.14993e-05
6.60715e-05
6.73524e-05
6.59763e-05
7.32841e-05
6.4858e-05
7.91827e-05
6.26314e-05
8.49191e-05
5.92412e-05
9.03528e-05
5.46708e-05
9.53401e-05
4.895e-05
9.97444e-05
4.21591e-05
0.000103446
3.44289e-05
0.000106352
2.59359e-05
0.000108403
1.6892e-05
0.000109575
7.53086e-06
0.000109881
-1.90658e-06
0.00010936
-1.11844e-05
0.000108078
-2.00814e-05
0.000106114
-2.84049e-05
0.00010356
-3.59946e-05
0.000100509
-4.27187e-05
9.70559e-05
-4.84682e-05
9.33069e-05
-5.31556e-05
8.93677e-05
-5.69308e-05
8.50735e-05
-5.96456e-05
8.03953e-05
-6.10476e-05
7.52089e-05
-6.08666e-05
6.93411e-05
-5.87838e-05
6.30192e-05
-5.51999e-05
5.62884e-05
-5.07971e-05
4.8985e-05
-4.58042e-05
4.09502e-05
-4.03296e-05
3.19929e-05
-3.45232e-05
2.18712e-05
-2.86362e-05
1.04672e-05
-2.34758e-05
-1.63741e-06
-2.25601e-05
-9.82106e-06
-3.31597e-05
-5.42715e-05
3.83539e-05
5.07258e-05
4.31098e-05
5.37045e-05
4.81886e-05
5.62441e-05
5.35719e-05
5.82423e-05
5.92273e-05
5.95935e-05
6.51061e-05
6.01928e-05
7.11411e-05
5.99412e-05
7.72467e-05
5.87523e-05
8.33195e-05
5.65586e-05
8.9241e-05
5.33197e-05
9.48831e-05
4.90287e-05
0.000100115
4.37183e-05
0.00010481
3.74637e-05
0.000108857
3.03821e-05
0.000112165
2.26284e-05
0.000114669
1.43873e-05
0.000116338
5.86216e-06
0.000117167
-2.73615e-06
0.00011718
-1.11966e-05
0.000116417
-1.93187e-05
0.000114939
-2.69264e-05
0.000112813
-3.38689e-05
0.000110112
-4.0018e-05
0.000106918
-4.52736e-05
0.000103339
-4.95772e-05
9.94282e-05
-5.30196e-05
9.50757e-05
-5.52931e-05
9.01532e-05
-5.6125e-05
8.4505e-05
-5.52185e-05
7.82941e-05
-5.25728e-05
7.17753e-05
-4.86811e-05
6.4897e-05
-4.39188e-05
5.75764e-05
-3.84836e-05
4.9823e-05
-3.25763e-05
4.17746e-05
-2.64748e-05
3.37719e-05
-2.06335e-05
2.6347e-05
-1.60509e-05
1.91452e-05
-1.53582e-05
1.08842e-05
-2.48987e-05
-4.33873e-05
4.03368e-05
4.61007e-05
4.52858e-05
4.87555e-05
5.05479e-05
5.0982e-05
5.61018e-05
5.26884e-05
6.19136e-05
5.37817e-05
6.79347e-05
5.41716e-05
7.41008e-05
5.37751e-05
8.03315e-05
5.25216e-05
8.65313e-05
5.03589e-05
9.25918e-05
4.72591e-05
9.83967e-05
4.32238e-05
0.000103827
3.82885e-05
0.000108766
3.25243e-05
0.00011311
2.60376e-05
0.000116773
1.89662e-05
0.000119687
1.14726e-05
0.000121815
3.73477e-06
0.00012314
-4.06166e-06
0.000123671
-1.1727e-05
0.00012343
-1.90779e-05
0.000122459
-2.59556e-05
0.000120808
-3.22179e-05
0.000118528
-3.77384e-05
0.000115678
-4.24227e-05
0.000112315
-4.62149e-05
0.000108431
-4.91357e-05
0.000104009
-5.08708e-05
9.88677e-05
-5.09837e-05
9.30458e-05
-4.93966e-05
8.68155e-05
-4.63425e-05
8.02523e-05
-4.2118e-05
7.33036e-05
-3.69701e-05
6.59703e-05
-3.11503e-05
5.83526e-05
-2.49586e-05
5.06807e-05
-1.88029e-05
4.33339e-05
-1.32867e-05
3.66904e-05
-9.40732e-06
3.01987e-05
-8.86657e-06
1.9354e-05
-1.4054e-05
-2.40333e-05
4.17823e-05
4.13303e-05
4.68698e-05
4.3668e-05
5.22603e-05
4.55915e-05
5.79303e-05
4.70184e-05
6.38447e-05
4.78673e-05
6.99559e-05
4.80605e-05
7.62022e-05
4.75288e-05
8.25084e-05
4.62154e-05
8.87862e-05
4.40811e-05
9.49371e-05
4.11083e-05
0.000100855
3.73058e-05
0.000106432
3.27114e-05
0.000111563
2.73933e-05
0.000116152
2.14492e-05
0.000120115
1.5003e-05
0.000123388
8.19903e-06
0.000125929
1.19463e-06
0.000127711
-5.84442e-06
0.000128731
-1.27463e-05
0.000128999
-1.93459e-05
0.000128542
-2.54987e-05
0.000127391
-3.10672e-05
0.000125583
-3.59301e-05
0.000123148
-3.99883e-05
0.000120095
-4.31612e-05
0.000116327
-4.53684e-05
0.000111819
-4.63623e-05
0.000106657
-4.58219e-05
0.000100966
-4.3706e-05
9.48174e-05
-4.01938e-05
8.82032e-05
-3.55037e-05
8.11105e-05
-2.98774e-05
7.35633e-05
-2.36031e-05
6.56463e-05
-1.70416e-05
5.74988e-05
-1.06554e-05
4.92567e-05
-5.04468e-06
4.0807e-05
-9.57554e-07
3.13347e-05
6.05684e-07
1.82459e-05
-9.65194e-07
-5.78741e-06
4.26612e-05
3.64693e-05
4.78318e-05
3.84975e-05
5.32951e-05
4.01281e-05
5.90259e-05
4.12876e-05
6.49886e-05
4.19046e-05
7.11364e-05
4.19127e-05
7.74105e-05
4.12546e-05
8.37406e-05
3.98854e-05
9.00454e-05
3.77763e-05
9.62349e-05
3.49187e-05
0.000102213
3.13273e-05
0.000107883
2.70416e-05
0.000113149
2.21273e-05
0.000117923
1.66749e-05
0.00012213
1.07968e-05
0.000125706
4.62262e-06
0.000128607
-1.7061e-06
0.000130801
-8.0387e-06
0.000132275
-1.42199e-05
0.000133031
-2.01021e-05
0.00013308
-2.55477e-05
0.000132437
-3.04244e-05
0.000131119
-3.46118e-05
0.000129129
-3.79983e-05
0.000126443
-4.04752e-05
0.000122989
-4.1915e-05
0.000118743
-4.2116e-05
0.000113806
-4.08843e-05
0.000108273
-3.81729e-05
0.000102161
-3.40819e-05
9.5451e-05
-2.8794e-05
8.81291e-05
-2.25555e-05
8.02079e-05
-1.56818e-05
7.17308e-05
-8.56454e-06
6.27459e-05
-1.67054e-06
5.32371e-05
4.46406e-06
4.30161e-05
9.26339e-06
3.14265e-05
1.21953e-05
1.74269e-05
1.30344e-05
1.16395e-05
4.29489e-05
3.1574e-05
4.81453e-05
3.3301e-05
5.36242e-05
3.46493e-05
5.93588e-05
3.55531e-05
6.53133e-05
3.595e-05
7.14421e-05
3.57839e-05
7.76892e-05
3.50075e-05
8.39889e-05
3.35857e-05
9.02664e-05
3.14987e-05
9.64399e-05
2.87453e-05
0.000102423
2.53442e-05
0.000108128
2.13367e-05
0.000113469
1.67858e-05
0.000118369
1.17758e-05
0.000122756
6.40938e-06
0.000126574
8.04174e-07
0.000129779
-4.91102e-06
0.000132339
-1.05981e-05
0.000134235
-1.61156e-05
0.000135459
-2.1327e-05
0.000136012
-2.60998e-05
0.000135892
-3.03045e-05
0.000135095
-3.38147e-05
0.000133603
-3.65069e-05
0.000131381
-3.82528e-05
0.000128376
-3.89098e-05
0.000124571
-3.83113e-05
0.000120002
-3.63154e-05
0.000114701
-3.2872e-05
0.000108664
-2.80446e-05
0.000101866
-2.19959e-05
9.42868e-05
-1.49767e-05
8.59285e-05
-7.3235e-06
7.68118e-05
5.52141e-07
6.69507e-05
8.19052e-06
5.62956e-05
1.51192e-05
4.46737e-05
2.08853e-05
3.1726e-05
2.51429e-05
1.69662e-05
2.77943e-05
2.86057e-05
4.26278e-05
2.67029e-05
4.77909e-05
2.81379e-05
5.32258e-05
2.92144e-05
5.89047e-05
2.98741e-05
6.4792e-05
3.00628e-05
7.08432e-05
2.97327e-05
7.70054e-05
2.88453e-05
8.32173e-05
2.73738e-05
8.94101e-05
2.53059e-05
9.55098e-05
2.26456e-05
0.000101439
1.94152e-05
0.000107119
1.56563e-05
0.000112476
1.14293e-05
0.000117439
6.81274e-06
0.000121947
1.90081e-06
0.000125951
-3.19899e-06
0.000129408
-8.36841e-06
0.00013229
-1.34806e-05
0.000134579
-1.84044e-05
0.000136261
-2.30091e-05
0.000137325
-2.71639e-05
0.000137757
-3.07364e-05
0.000137535
-3.35929e-05
0.000136625
-3.55968e-05
0.000134979
-3.66063e-05
0.000132541
-3.64718e-05
0.000129271
-3.50417e-05
0.000125149
-3.21936e-05
0.000120155
-2.78772e-05
0.000114253
-2.21432e-05
0.000107408
-1.51502e-05
9.95909e-05
-7.1601e-06
9.08012e-05
1.46617e-06
8.10669e-05
1.02865e-05
7.04147e-05
1.88428e-05
5.88115e-05
2.67223e-05
4.61421e-05
3.35547e-05
3.22245e-05
3.90605e-05
1.6855e-05
4.31638e-05
4.54607e-05
4.16913e-05
2.19162e-05
4.67599e-05
2.30692e-05
5.2089e-05
2.38854e-05
5.76502e-05
2.43129e-05
6.34084e-05
2.43046e-05
6.93207e-05
2.38204e-05
7.53369e-05
2.2829e-05
8.14001e-05
2.13106e-05
8.74478e-05
1.92583e-05
9.3413e-05
1.66803e-05
9.92271e-05
1.36011e-05
0.000104822
1.00614e-05
0.000110133
6.11866e-06
0.0001151
1.84536e-06
0.000119673
-2.67209e-06
0.000123809
-7.33513e-06
0.000127475
-1.20347e-05
0.000130648
-1.6653e-05
0.00013331
-2.10662e-05
0.000135446
-2.51455e-05
0.000137039
-2.87572e-05
0.000138064
-3.17614e-05
0.000138484
-3.4012e-05
0.000138244
-3.53572e-05
0.000137277
-3.56397e-05
0.000135506
-3.47005e-05
0.000132855
-3.23907e-05
0.000129256
-2.85941e-05
0.00012464
-2.32613e-05
0.000118942
-1.64459e-05
0.00011211
-8.31801e-06
0.000104107
8.4348e-07
9.4932e-05
1.06408e-05
8.46477e-05
2.05708e-05
7.33351e-05
3.01553e-05
6.09913e-05
3.90661e-05
4.75382e-05
4.70078e-05
3.28893e-05
5.37095e-05
1.69949e-05
5.90582e-05
6.24556e-05
4.01476e-05
1.72754e-05
4.5059e-05
1.81578e-05
5.02186e-05
1.87257e-05
5.55983e-05
1.89332e-05
6.11632e-05
1.87397e-05
6.68724e-05
1.81112e-05
7.26787e-05
1.70227e-05
7.85297e-05
1.54596e-05
8.43685e-05
1.34195e-05
9.01358e-05
1.0913e-05
9.57718e-05
7.96508e-06
0.000101218
4.61489e-06
0.000106422
9.15475e-07
0.000111334
-3.06688e-06
0.000115915
-7.25357e-06
0.000120135
-1.15546e-05
0.00012397
-1.58696e-05
0.000127405
-2.0088e-05
0.000130428
-2.40898e-05
0.000133027
-2.77447e-05
0.000135181
-3.09106e-05
0.000136853
-3.34335e-05
0.000137989
-3.51477e-05
0.000138511
-3.58795e-05
0.000138322
-3.54511e-05
0.00013731
-3.36884e-05
0.000135359
-3.04398e-05
0.000132358
-2.55926e-05
0.000128196
-1.91e-05
0.000122783
-1.10324e-05
0.000116051
-1.58575e-06
0.00010795
8.94447e-06
9.84697e-05
2.01206e-05
8.77178e-05
3.13227e-05
7.58955e-05
4.19776e-05
6.30089e-05
5.19528e-05
4.89681e-05
6.10486e-05
3.37239e-05
6.89537e-05
1.73139e-05
7.54682e-05
7.97695e-05
3.8023e-05
1.28416e-05
4.27141e-05
1.34667e-05
4.76401e-05
1.37997e-05
5.2773e-05
1.38004e-05
5.80791e-05
1.34336e-05
6.35194e-05
1.2671e-05
6.90498e-05
1.14923e-05
7.46224e-05
9.88707e-06
8.01864e-05
7.85552e-06
8.56898e-05
5.40953e-06
9.10819e-05
2.57301e-06
9.63149e-05
-6.18163e-07
0.000101347
-4.11629e-06
0.000106142
-7.86235e-06
0.000110675
-1.17864e-05
0.000114928
-1.58077e-05
0.000118893
-1.98343e-05
0.000122566
-2.37616e-05
0.000125947
-2.74705e-05
0.000129027
-3.08242e-05
0.000131782
-3.36657e-05
0.000134165
-3.58168e-05
0.000136099
-3.70816e-05
0.000137474
-3.72551e-05
0.000138155
-3.61313e-05
0.000137981
-3.35147e-05
0.000136799
-2.9258e-05