/*--------------------------------*- C++ -*----------------------------------*\
| =========                 |                                                 |
| \\      /  F ield         | OpenFOAM: The Open Source CFD Toolbox           |
|  \\    /   O peration     | Version:  5.0                                   |
|   \\  /    A nd           | Web:      www.OpenFOAM.org                      |
|    \\/     M anipulation  |                                                 |
\*---------------------------------------------------------------------------*/
FoamFile
{
    version     2.0;
    format      ascii;
    class       volVectorField;
    location    "0.7";
    object      U;
}
// * * * * * * * * * * * * * * * * * * * * * * * * * * * * * * * * * * * * * //

dimensions      [0 1 -1 0 0 0 0];

internalField   nonuniform List<vector> 
1935
(
(-0.0234217 0.416382 0)
(-0.0275299 0.438619 0)
(-0.0270242 0.459201 0)
(-0.0221842 0.477353 0)
(-0.0134751 0.492388 0)
(-0.00147806 0.503778 0)
(0.0131526 0.51114 0)
(0.029737 0.514237 0)
(0.0476051 0.512963 0)
(0.0661183 0.507329 0)
(0.0846854 0.497446 0)
(0.102773 0.483504 0)
(0.119908 0.465755 0)
(0.135678 0.444501 0)
(0.149728 0.420081 0)
(0.161755 0.39286 0)
(0.171503 0.363227 0)
(0.178762 0.331594 0)
(0.183367 0.29839 0)
(0.185202 0.264067 0)
(0.184208 0.229095 0)
(0.180391 0.19396 0)
(0.173832 0.159163 0)
(0.164698 0.125208 0)
(0.15325 0.0925894 0)
(0.139838 0.06178 0)
(0.124892 0.0332059 0)
(0.108901 0.00722796 0)
(0.0923835 -0.0158779 0)
(0.0758491 -0.0359377 0)
(0.059777 -0.0528841 0)
(0.0446048 -0.0667488 0)
(0.0307205 -0.0776567 0)
(0.0184586 -0.085813 0)
(0.00809642 -0.091492 0)
(-0.00015254 -0.0950253 0)
(-0.00615212 -0.0967914 0)
(-0.00986278 -0.0972028 0)
(-0.0113652 -0.0966907 0)
(-0.0108796 -0.0956826 0)
(-0.00877354 -0.0945678 0)
(-0.00555049 -0.0936396 0)
(-0.00181371 -0.0931883 0)
(-0.0462006 0.455109 0)
(-0.0716394 0.494948 0)
(-0.100505 0.537169 0)
(-0.132873 0.581962 0)
(-0.0488792 0.48087 0)
(-0.0725645 0.524273 0)
(-0.0992643 0.570103 0)
(-0.128944 0.618468 0)
(-0.0461187 0.504615 0)
(-0.0671852 0.551119 0)
(-0.0907536 0.600002 0)
(-0.116699 0.651267 0)
(-0.0383643 0.525438 0)
(-0.0561035 0.574495 0)
(-0.0757804 0.625797 0)
(-0.0971989 0.679232 0)
(-0.0262269 0.542597 0)
(-0.04011 0.593607 0)
(-0.0553499 0.646654 0)
(-0.0716961 0.701515 0)
(-0.0104444 0.555529 0)
(-0.0201209 0.607867 0)
(-0.0305835 0.661982 0)
(-0.0415463 0.717543 0)
(0.00817856 0.563843 0)
(0.00289202 0.616892 0)
(-0.00264201 0.671421 0)
(-0.00811967 0.727003 0)
(0.0288237 0.567317 0)
(0.0279599 0.620489 0)
(0.0273405 0.674823 0)
(0.0272719 0.729811 0)
(0.0507044 0.565878 0)
(0.0541707 0.618629 0)
(0.0583165 0.672219 0)
(0.0634387 0.726075 0)
(0.0730855 0.559583 0)
(0.0806893 0.611423 0)
(0.0893465 0.663787 0)
(0.099336 0.716052 0)
(0.0953002 0.548594 0)
(0.106773 0.599095 0)
(0.119613 0.64982 0)
(0.134072 0.700115 0)
(0.116758 0.533156 0)
(0.13178 0.581953 0)
(0.148421 0.630696 0)
(0.166908 0.678715 0)
(0.136949 0.513578 0)
(0.155162 0.560363 0)
(0.175196 0.606848 0)
(0.197246 0.652355 0)
(0.155432 0.490213 0)
(0.176461 0.534734 0)
(0.199465 0.578742 0)
(0.224607 0.62156 0)
(0.171839 0.463445 0)
(0.195297 0.5055 0)
(0.220845 0.546861 0)
(0.248613 0.586863 0)
(0.185854 0.433681 0)
(0.211352 0.47311 0)
(0.239021 0.511698 0)
(0.268962 0.548797 0)
(0.197217 0.401349 0)
(0.224363 0.438025 0)
(0.253735 0.473747 0)
(0.285405 0.50789 0)
(0.205711 0.36689 0)
(0.234113 0.400717 0)
(0.264774 0.433509 0)
(0.297738 0.464666 0)
(0.211167 0.330764 0)
(0.24043 0.361673 0)
(0.271966 0.391494 0)
(0.305795 0.419657 0)
(0.213465 0.293449 0)
(0.243191 0.321395 0)
(0.275186 0.348224 0)
(0.309452 0.3734 0)
(0.21254 0.255442 0)
(0.242328 0.280402 0)
(0.274365 0.30424 0)
(0.308637 0.326453 0)
(0.208398 0.217259 0)
(0.237844 0.239234 0)
(0.269503 0.260101 0)
(0.303346 0.279389 0)
(0.201123 0.179428 0)
(0.229827 0.198447 0)
(0.260689 0.216383 0)
(0.293672 0.232802 0)
(0.190894 0.142487 0)
(0.218466 0.158604 0)
(0.24812 0.173673 0)
(0.279816 0.1873 0)
(0.177994 0.106967 0)
(0.204061 0.120268 0)
(0.232115 0.132563 0)
(0.262113 0.143494 0)
(0.162807 0.0733771 0)
(0.18703 0.0839824 0)
(0.213122 0.0936251 0)
(0.241039 0.101985 0)
(0.145812 0.0421861 0)
(0.167899 0.050253 0)
(0.191713 0.057399 0)
(0.217213 0.0633411 0)
(0.127563 0.0137957 0)
(0.147283 0.0195205 0)
(0.168565 0.0243622 0)
(0.191369 0.0280743 0)
(0.10865 -0.0114781 0)
(0.125851 -0.00786057 0)
(0.144423 -0.00509287 0)
(0.164333 -0.00338702 0)
(0.0896676 -0.0334273 0)
(0.104279 -0.0316466 0)
(0.120053 -0.0306864 0)
(0.136959 -0.0307265 0)
(0.071172 -0.0519607 0)
(0.0832081 -0.0517201 0)
(0.0961872 -0.052271 0)
(0.110078 -0.0537646 0)
(0.053673 -0.0670989 0)
(0.0632278 -0.0680863 0)
(0.0735016 -0.0698329 0)
(0.0844612 -0.0724645 0)
(0.0376211 -0.0789678 0)
(0.0448572 -0.080869 0)
(0.0525941 -0.0834894 0)
(0.0607936 -0.0869326 0)
(0.023402 -0.0877868 0)
(0.02854 -0.0902984 0)
(0.0339752 -0.0934782 0)
(0.0396622 -0.09741 0)
(0.0113343 -0.0938548 0)
(0.0146415 -0.0966965 0)
(0.0180643 -0.100142 0)
(0.0215493 -0.104258 0)
(0.00166307 -0.0975378 0)
(0.00344258 -0.100463 0)
(0.00518483 -0.103915 0)
(0.00682878 -0.107941 0)
(-0.0054536 -0.0992566 0)
(-0.00487272 -0.102061 0)
(-0.00444786 -0.105303 0)
(-0.00424624 -0.109013 0)
(-0.00996484 -0.0994726 0)
(-0.0102392 -0.102004 0)
(-0.0107497 -0.104875 0)
(-0.0115669 -0.108097 0)
(-0.0119541 -0.0986716 0)
(-0.0127408 -0.100836 0)
(-0.0138017 -0.103237 0)
(-0.0152068 -0.10587 0)
(-0.0116632 -0.0973386 0)
(-0.0126401 -0.0991037 0)
(-0.0138864 -0.101007 0)
(-0.0154658 -0.103026 0)
(-0.00950367 -0.0959204 0)
(-0.0103945 -0.0973178 0)
(-0.0115096 -0.0987669 0)
(-0.0129002 -0.10023 0)
(-0.00604619 -0.094761 0)
(-0.00664716 -0.0958803 0)
(-0.00739475 -0.0969881 0)
(-0.00832183 -0.0980348 0)
(-0.00198056 -0.0941843 0)
(-0.00218381 -0.0951537 0)
(-0.00243723 -0.0960787 0)
(-0.00275177 -0.0969034 0)
(-0.170753 0.632299 0)
(-0.214984 0.689085 0)
(-0.263052 0.749355 0)
(-0.314285 0.812355 0)
(-0.36761 0.87657 0)
(-0.42144 0.939458 0)
(-0.473611 0.997183 0)
(-0.521465 1.04472 0)
(-0.561954 1.07598 0)
(-0.591747 1.08392 0)
(-0.607516 1.06126 0)
(-0.606436 1.00118 0)
(-0.586782 0.898223 0)
(-0.548457 0.749168 0)
(-0.495351 0.554556 0)
(-0.434182 0.320301 0)
(-0.375282 0.0593091 0)
(-0.330043 -0.206567 0)
(-0.307739 -0.443532 0)
(-0.306039 -0.619743 0)
(-0.315064 -0.7253 0)
(-0.31049 -0.780928 0)
(-0.289077 -0.816119 0)
(-0.259796 -0.83559 0)
(-0.230428 -0.835111 0)
(-0.19842 -0.819137 0)
(-0.160305 -0.790927 0)
(-0.127341 -0.75576 0)
(-0.100415 -0.714331 0)
(-0.0772639 -0.66791 0)
(-0.0536866 -0.618742 0)
(-0.0253802 -0.570399 0)
(0.0102586 -0.528912 0)
(0.0528448 -0.502727 0)
(0.0979991 -0.501768 0)
(0.136367 -0.536604 0)
(0.159001 -0.61865 0)
(0.15672 -0.758531 0)
(0.0222917 -0.88139 0)
(0.094196 -0.861052 0)
(-0.163312 0.672423 0)
(-0.202855 0.732672 0)
(-0.245041 0.795777 0)
(-0.288995 0.860621 0)
(-0.333495 0.925271 0)
(-0.376847 0.986671 0)
(-0.417009 1.04055 0)
(-0.451585 1.08163 0)
(-0.478054 1.10351 0)
(-0.493868 1.09924 0)
(-0.496876 1.062 0)
(-0.485687 0.985957 0)
(-0.460246 0.867218 0)
(-0.422482 0.705174 0)
(-0.377019 0.503338 0)
(-0.330533 0.26963 0)
(-0.291013 0.0184515 0)
(-0.266801 -0.22948 0)
(-0.260864 -0.445881 0)
(-0.272051 -0.610275 0)
(-0.285766 -0.720041 0)
(-0.289962 -0.787866 0)
(-0.280982 -0.832515 0)
(-0.265753 -0.855945 0)
(-0.247702 -0.859519 0)
(-0.225594 -0.85063 0)
(-0.197162 -0.827177 0)
(-0.162053 -0.788215 0)
(-0.129209 -0.742905 0)
(-0.0997449 -0.695133 0)
(-0.070018 -0.648361 0)
(-0.0365082 -0.605211 0)
(0.00232611 -0.569602 0)
(0.0456571 -0.54708 0)
(0.0894682 -0.544256 0)
(0.125855 -0.568389 0)
(0.144608 -0.62719 0)
(0.162433 -0.72632 0)
(0.0325101 -0.817375 0)
(0.0697391 -0.793036 0)
(-0.146388 0.70799 0)
(-0.179985 0.770626 0)
(-0.215067 0.835314 0)
(-0.250647 0.900613 0)
(-0.285445 0.964231 0)
(-0.317831 1.02274 0)
(-0.345968 1.07167 0)
(-0.367904 1.10556 0)
(-0.381701 1.11808 0)
(-0.385712 1.1026 0)
(-0.378859 1.05304 0)
(-0.361073 0.9647 0)
(-0.333565 0.835376 0)
(-0.299264 0.666414 0)
(-0.262609 0.463027 0)
(-0.229606 0.234498 0)
(-0.206285 -0.00460468 0)
(-0.19795 -0.235847 0)
(-0.204169 -0.437329 0)
(-0.223069 -0.594635 0)
(-0.241495 -0.708045 0)
(-0.253826 -0.78526 0)
(-0.255781 -0.837811 0)
(-0.251154 -0.86706 0)
(-0.241932 -0.875378 0)
(-0.226911 -0.870831 0)
(-0.206608 -0.856178 0)
(-0.178527 -0.824396 0)
(-0.144457 -0.775501 0)
(-0.112104 -0.726515 0)
(-0.0801751 -0.681812 0)
(-0.0451423 -0.642631 0)
(-0.006243 -0.610981 0)
(0.0352821 -0.590099 0)
(0.075729 -0.583919 0)
(0.107908 -0.596383 0)
(0.123495 -0.631712 0)
(0.153963 -0.691834 0)
(0.0296303 -0.771925 0)
(0.0255423 -0.743968 0)
(-0.121357 0.737846 0)
(-0.148141 0.801815 0)
(-0.175353 0.86693 0)
(-0.201969 0.931477 0)
(-0.226744 0.992897 0)
(-0.248242 1.04756 0)
(-0.264887 1.09091 0)
(-0.275233 1.11753 0)
(-0.277984 1.12135 0)
(-0.27233 1.09631 0)
(-0.25815 1.03715 0)
(-0.236359 0.940354 0)
(-0.208972 0.805085 0)
(-0.179201 0.634007 0)
(-0.151205 0.433282 0)
(-0.129765 0.212874 0)
(-0.119324 -0.0135914 0)
(-0.122686 -0.23009 0)
(-0.138312 -0.420118 0)
(-0.162158 -0.573369 0)
(-0.185539 -0.68964 0)
(-0.204522 -0.773818 0)
(-0.2166 -0.833341 0)
(-0.220338 -0.870158 0)
(-0.21843 -0.884633 0)
(-0.210167 -0.885259 0)
(-0.196147 -0.875807 0)
(-0.174735 -0.853902 0)
(-0.148614 -0.809333 0)
(-0.115811 -0.758956 0)
(-0.0841754 -0.716067 0)
(-0.0499814 -0.679918 0)
(-0.0130598 -0.650785 0)
(0.0251012 -0.630143 0)
(0.0613457 -0.619885 0)
(0.0896643 -0.621496 0)
(0.103771 -0.635493 0)
(0.143932 -0.662949 0)
(0.0325835 -0.720216 0)
(-0.000706551 -0.710248 0)
(-0.0897737 0.76116 0)
(-0.109242 0.825484 0)
(-0.128216 0.890012 0)
(-0.145704 0.952827 0)
(-0.160568 1.0112 0)
(-0.17162 1.06145 0)
(-0.177638 1.09905 0)
(-0.177621 1.11877 0)
(-0.170932 1.115 0)
(-0.157443 1.08236 0)
(-0.137838 1.01643 0)
(-0.113661 0.914696 0)
(-0.0873499 0.77737 0)
(-0.0620764 0.607873 0)
(-0.0415325 0.412874 0)
(-0.0293561 0.202185 0)
(-0.0285317 -0.0119391 0)
(-0.0400981 -0.215815 0)
(-0.0621421 -0.396625 0)
(-0.0900871 -0.546833 0)
(-0.11824 -0.665224 0)
(-0.142915 -0.754763 0)
(-0.162699 -0.820236 0)
(-0.17601 -0.86417 0)
(-0.181406 -0.886579 0)
(-0.179068 -0.894062 0)
(-0.170833 -0.890168 0)
(-0.157066 -0.874205 0)
(-0.13869 -0.837447 0)
(-0.110936 -0.789849 0)
(-0.081218 -0.749117 0)
(-0.0494151 -0.715268 0)
(-0.0158669 -0.687446 0)
(0.0177732 -0.666024 0)
(0.0489178 -0.651609 0)
(0.073014 -0.644231 0)
(0.0860988 -0.64211 0)
(0.126264 -0.643439 0)
(0.0415165 -0.673434 0)
(-0.00115642 -0.680465 0)
(-0.0532687 0.777414 0)
(-0.0652338 0.841218 0)
(-0.0759352 0.904311 0)
(-0.0844654 0.964642 0)
(-0.0898453 1.0194 0)
(-0.091126 1.06498 0)
(-0.0874905 1.097 0)
(-0.0783628 1.11053 0)
(-0.0636351 1.10053 0)
(-0.0437732 1.06227 0)
(-0.020004 0.992172 0)
(0.0057489 0.888537 0)
(0.0308999 0.752252 0)
(0.0524495 0.587133 0)
(0.0672966 0.399882 0)
(0.0727181 0.199692 0)
(0.066915 -0.00255872 0)
(0.0499382 -0.195368 0)
(0.0238026 -0.368501 0)
(-0.00747087 -0.515817 0)
(-0.0395336 -0.635478 0)
(-0.0691126 -0.729029 0)
(-0.0945401 -0.799721 0)
(-0.115312 -0.850095 0)
(-0.130306 -0.879664 0)
(-0.135349 -0.895143 0)
(-0.132474 -0.898335 0)
(-0.127009 -0.887623 0)
(-0.115718 -0.85784 0)
(-0.0947663 -0.816577 0)
(-0.0689827 -0.779318 0)
(-0.0409068 -0.747279 0)
(-0.0119782 -0.719721 0)
(0.0160803 -0.696638 0)
(0.0411615 -0.678021 0)
(0.0599958 -0.663202 0)
(0.070455 -0.64963 0)
(0.101503 -0.633837 0)
(0.035374 -0.636953 0)
(0.0150686 -0.646253 0)
(-0.0134513 0.786372 0)
(-0.0179931 0.848908 0)
(-0.0206539 0.909884 0)
(-0.0206425 0.967185 0)
(-0.0171649 1.01802 0)
(-0.00951785 1.0589 0)
(0.00277755 1.08571 0)
(0.0198758 1.09395 0)
(0.0414717 1.07909 0)
(0.0666415 1.0371 0)
(0.0938475 0.965095 0)
(0.120956 0.861995 0)
(0.145393 0.729107 0)
(0.164418 0.57034 0)
(0.175466 0.392091 0)
(0.176554 0.202756 0)
(0.166702 0.0118579 0)
(0.146524 -0.170922 0)
(0.118039 -0.337102 0)
(0.0846438 -0.481334 0)
(0.0499152 -0.601475 0)
(0.0167196 -0.697959 0)
(-0.0132152 -0.772813 0)
(-0.0390301 -0.828247 0)
(-0.0597073 -0.865866 0)
(-0.0756438 -0.887533 0)
(-0.0810968 -0.898337 0)
(-0.0838138 -0.894366 0)
(-0.0783473 -0.871113 0)
(-0.0641616 -0.837804 0)
(-0.0440669 -0.805015 0)
(-0.0214419 -0.774414 0)
(0.00138932 -0.746343 0)
(0.0227662 -0.720979 0)
(0.0409745 -0.698153 0)
(0.0537094 -0.676974 0)
(0.0600008 -0.655017 0)
(0.0799445 -0.628431 0)
(0.0240222 -0.608011 0)
(0.0257001 -0.610486 0)
(0.0281697 0.788046 0)
(0.0307613 0.848694 0)
(0.0357072 0.907031 0)
(0.0436676 0.960938 0)
(0.0552499 1.00771 0)
(0.070917 1.04404 0)
(0.0908679 1.06616 0)
(0.114925 1.06999 0)
(0.14244 1.05156 0)
(0.172213 1.00746 0)
(0.202507 0.935371 0)
(0.231117 0.834689 0)
(0.255571 0.706919 0)
(0.273408 0.555848 0)
(0.282512 0.387375 0)
(0.281444 0.209009 0)
(0.269754 0.0290683 0)
(0.248269 -0.144252 0)
(0.218948 -0.303802 0)
(0.184734 -0.444696 0)
(0.14867 -0.564577 0)
(0.113283 -0.663124 0)
(0.0803093 -0.741415 0)
(0.050815 -0.801116 0)
(0.0257104 -0.844107 0)
(0.00540707 -0.873121 0)
(-0.0114949 -0.890044 0)
(-0.0216505 -0.890304 0)
(-0.0222866 -0.876143 0)
(-0.0159941 -0.852269 0)
(-0.00367093 -0.823985 0)
(0.0112031 -0.794618 0)
(0.0261565 -0.765735 0)
(0.0396489 -0.737965 0)
(0.0502909 -0.711226 0)
(0.0564225 -0.684625 0)
(0.0576487 -0.656044 0)
(0.0671464 -0.621393 0)
(0.0188741 -0.580939 0)
(0.0278921 -0.579411 0)
(0.0702519 0.782638 0)
(0.0795303 0.840904 0)
(0.0915094 0.896218 0)
(0.106716 0.94651 0)
(0.125581 0.989202 0)
(0.148358 1.02124 0)
(0.175011 1.03919 0)
(0.205119 1.03945 0)
(0.237802 1.01856 0)
(0.271687 0.97366 0)
(0.30494 0.902915 0)
(0.335376 0.806028 0)
(0.360669 0.68456 0)
(0.37862 0.542035 0)
(0.387458 0.383762 0)
(0.386116 0.216357 0)
(0.374448 0.0470469 0)
(0.353346 -0.117117 0)
(0.324651 -0.270024 0)
(0.290886 -0.407216 0)
(0.254698 -0.526135 0)
(0.218392 -0.625914 0)
(0.183703 -0.70693 0)
(0.151806 -0.770281 0)
(0.123538 -0.817485 0)
(0.0991431 -0.850625 0)
(0.07799 -0.871842 0)
(0.0614822 -0.880259 0)
(0.0515532 -0.875111 0)
(0.0489096 -0.858165 0)
(0.0517225 -0.8338 0)
(0.0569576 -0.805694 0)
(0.0624466 -0.776194 0)
(0.0668957 -0.746441 0)
(0.0692898 -0.716561 0)
(0.0684849 -0.685686 0)
(0.0643382 -0.651759 0)
(0.0646634 -0.610391 0)
(0.018499 -0.555802 0)
(0.0347142 -0.560493 0)
(0.111641 0.770504 0)
(0.127053 0.826004 0)
(0.145405 0.878031 0)
(0.167094 0.924596 0)
(0.1924 0.963289 0)
(0.221396 0.99132 0)
(0.253868 1.00562 0)
(0.289223 1.00303 0)
(0.326441 0.980587 0)
(0.364061 0.935894 0)
(0.400235 0.867512 0)
(0.432856 0.775349 0)
(0.459758 0.660919 0)
(0.47897 0.527411 0)
(0.488975 0.379509 0)
(0.488935 0.222982 0)
(0.478847 0.0640882 0)
(0.45958 -0.0910871 0)
(0.43277 -0.237211 0)
(0.400589 -0.370188 0)
(0.365354 -0.487381 0)
(0.329173 -0.587526 0)
(0.293736 -0.670462 0)
(0.260258 -0.736769 0)
(0.229472 -0.787498 0)
(0.201368 -0.824153 0)
(0.175712 -0.848837 0)
(0.154041 -0.862434 0)
(0.137043 -0.864233 0)
(0.125854 -0.853546 0)
(0.118943 -0.832863 0)
(0.113734 -0.806014 0)
(0.108648 -0.77623 0)
(0.102968 -0.745268 0)
(0.0962653 -0.71354 0)
(0.0881125 -0.680178 0)
(0.079129 -0.642687 0)
(0.0751922 -0.595542 0)
(0.0171417 -0.529785 0)
(0.0530468 -0.543499 0)
(0.151373 0.752106 0)
(0.172303 0.804559 0)
(0.196322 0.853129 0)
(0.223711 0.895938 0)
(0.254618 0.930764 0)
(0.288981 0.955087 0)
(0.326451 0.966196 0)
(0.366326 0.961354 0)
(0.407515 0.938044 0)
(0.44854 0.894279 0)
(0.487599 0.828933 0)
(0.522697 0.742045 0)
(0.551832 0.635025 0)
(0.57322 0.510698 0)
(0.585521 0.373142 0)
(0.588024 0.227345 0)
(0.580754 0.0787108 0)
(0.564481 -0.0674882 0)
(0.54061 -0.20656 0)
(0.510987 -0.334735 0)
(0.477633 -0.449368 0)
(0.442451 -0.548924 0)
(0.40705 -0.632813 0)
(0.372655 -0.701131 0)
(0.33999 -0.754416 0)
(0.308768 -0.793524 0)
(0.279905 -0.820416 0)
(0.254621 -0.838188 0)
(0.232073 -0.844937 0)
(0.21197 -0.838604 0)
(0.194944 -0.820502 0)
(0.178782 -0.794421 0)
(0.16217 -0.764466 0)
(0.145086 -0.733062 0)
(0.127775 -0.701082 0)
(0.110844 -0.667748 0)
(0.0964532 -0.629524 0)
(0.0932752 -0.577369 0)
(0.0238468 -0.495085 0)
(0.0659815 -0.502596 0)
(0.188668 0.727979 0)
(0.214471 0.777189 0)
(0.243438 0.822211 0)
(0.275752 0.861294 0)
(0.311453 0.89241 0)
(0.350374 0.913312 0)
(0.392077 0.921626 0)
(0.4358 0.915002 0)
(0.480435 0.891321 0)
(0.524536 0.848952 0)
(0.56639 0.78702 0)
(0.604133 0.705649 0)
(0.63592 0.606122 0)
(0.660124 0.490903 0)
(0.675527 0.363511 0)
(0.681467 0.228233 0)
(0.677926 0.0897204 0)
(0.665526 -0.0474446 0)
(0.645425 -0.179117 0)
(0.619162 -0.301839 0)
(0.588464 -0.413011 0)
(0.555018 -0.510924 0)
(0.520307 -0.594651 0)
(0.485521 -0.663859 0)
(0.451379 -0.718558 0)
(0.417239 -0.758943 0)
(0.386172 -0.788473 0)
(0.357556 -0.809688 0)
(0.330661 -0.81887 0)
(0.303509 -0.814198 0)
(0.275987 -0.79646 0)
(0.24872 -0.769941 0)
(0.21999 -0.739418 0)
(0.190102 -0.707767 0)
(0.159754 -0.676528 0)
(0.130479 -0.645419 0)
(0.105758 -0.609944 0)
(0.0937694 -0.555954 0)
(0.0239307 -0.453308 0)
(0.0724422 -0.453756 0)
(0.222914 0.698697 0)
(0.252941 0.744539 0)
(0.286152 0.785982 0)
(0.322644 0.821409 0)
(0.362373 0.84899 0)
(0.405096 0.866733 0)
(0.450321 0.872579 0)
(0.497265 0.864527 0)
(0.54484 0.840809 0)
(0.591667 0.8001 0)
(0.636144 0.741732 0)
(0.676549 0.665886 0)
(0.71119 0.573711 0)
(0.738572 0.467346 0)
(0.757557 0.349809 0)
(0.767491 0.224769 0)
(0.768273 0.0962292 0)
(0.760348 -0.0318298 0)
(0.744626 -0.15574 0)
(0.722349 -0.272338 0)
(0.694957 -0.379118 0)
(0.663908 -0.474274 0)
(0.630545 -0.556633 0)
(0.596003 -0.625503 0)
(0.560914 -0.680445 0)
(0.525127 -0.721563 0)
(0.491836 -0.754233 0)
(0.459635 -0.77686 0)
(0.427312 -0.785599 0)
(0.39476 -0.780189 0)
(0.358594 -0.761279 0)
(0.32042 -0.7323 0)
(0.279758 -0.699904 0)
(0.23625 -0.666862 0)
(0.190412 -0.63541 0)
(0.143916 -0.606546 0)
(0.100799 -0.576442 0)
(0.0599256 -0.527615 0)
(0.0159504 -0.419335 0)
(0.0843372 -0.411199 0)
(0.253636 0.664847 0)
(0.287257 0.707255 0)
(0.324038 0.745136 0)
(0.364006 0.777007 0)
(0.40705 0.801228 0)
(0.452878 0.816049 0)
(0.500969 0.819693 0)
(0.550546 0.810472 0)
(0.600565 0.786924 0)
(0.649737 0.747986 0)
(0.696583 0.693162 0)
(0.739527 0.622675 0)
(0.777018 0.537556 0)
(0.807678 0.439656 0)
(0.830431 0.331563 0)
(0.844607 0.216414 0)
(0.850008 0.0976518 0)
(0.846896 -0.0212629 0)
(0.835943 -0.137084 0)
(0.818108 -0.246929 0)
(0.794554 -0.348419 0)
(0.76651 -0.439724 0)
(0.735176 -0.519517 0)
(0.701661 -0.586841 0)
(0.666277 -0.640883 0)
(0.63036 -0.682529 0)
(0.59525 -0.716312 0)
(0.55959 -0.738284 0)
(0.522244 -0.745819 0)
(0.483621 -0.738514 0)
(0.440332 -0.715561 0)
(0.392418 -0.682213 0)
(0.341106 -0.645885 0)
(0.284823 -0.608755 0)
(0.222973 -0.573407 0)
(0.156283 -0.542567 0)
(0.0888535 -0.51604 0)
(0.00543303 -0.481355 0)
(-0.0366729 -0.427587 0)
(0.0829716 -0.367593 0)
(0.280471 0.627013 0)
(0.317085 0.665969 0)
(0.356802 0.700336 0)
(0.399593 0.72877 0)
(0.445299 0.749805 0)
(0.493593 0.761913 0)
(0.543946 0.763574 0)
(0.595605 0.753369 0)
(0.647587 0.730105 0)
(0.698699 0.69294 0)
(0.747591 0.641528 0)
(0.792826 0.576124 0)
(0.832992 0.497659 0)
(0.866815 0.407747 0)
(0.893271 0.308608 0)
(0.911672 0.202936 0)
(0.921723 0.0936909 0)
(0.923522 -0.0161139 0)
(0.917517 -0.123604 0)
(0.90441 -0.226165 0)
(0.885102 -0.321571 0)
(0.860599 -0.408031 0)
(0.831956 -0.484157 0)
(0.800253 -0.54885 0)
(0.765531 -0.601143 0)
(0.730069 -0.642384 0)
(0.693952 -0.675097 0)
(0.655469 -0.695036 0)
(0.614576 -0.700131 0)
(0.569649 -0.689191 0)
(0.519728 -0.660167 0)
(0.464687 -0.621652 0)
(0.405643 -0.579568 0)
(0.340144 -0.535219 0)
(0.266386 -0.490806 0)
(0.183686 -0.449798 0)
(0.0980492 -0.418447 0)
(-0.0451362 -0.414337 0)
(-0.0932434 -0.438133 0)
(0.0141899 -0.356849 0)
(0.303137 0.585767 0)
(0.342173 0.621284 0)
(0.384235 0.652214 0)
(0.429248 0.677337 0)
(0.477016 0.695355 0)
(0.527193 0.704938 0)
(0.579254 0.704792 0)
(0.632481 0.693736 0)
(0.685956 0.670804 0)
(0.738589 0.635349 0)
(0.789151 0.587146 0)
(0.836341 0.526486 0)
(0.878876 0.45422 0)
(0.915581 0.371763 0)
(0.945481 0.28104 0)
(0.967878 0.184369 0)
(0.982398 0.0843084 0)
(0.988996 -0.0165163 0)
(0.987928 -0.115554 0)
(0.979665 -0.210438 0)
(0.964872 -0.299109 0)
(0.944343 -0.379872 0)
(0.918954 -0.451347 0)
(0.889714 -0.512389 0)
(0.856423 -0.562015 0)
(0.822087 -0.60178 0)
(0.785686 -0.631756 0)
(0.74542 -0.648162 0)
(0.701339 -0.649785 0)
(0.651546 -0.632428 0)
(0.596222 -0.597373 0)
(0.537574 -0.554266 0)
(0.474874 -0.505923 0)
(0.406114 -0.453232 0)
(0.329869 -0.397727 0)
(0.245777 -0.342246 0)
(0.1562 -0.294771 0)
(0.00849364 -0.285802 0)
(-0.0164753 -0.376271 0)
(-0.226721 -0.488835 0)
(0.321406 0.541667 0)
(0.362323 0.573784 0)
(0.406177 0.601364 0)
(0.452854 0.623309 0)
(0.502132 0.63847 0)
(0.553656 0.645695 0)
(0.606912 0.643889 0)
(0.661221 0.632077 0)
(0.715735 0.609488 0)
(0.76946 0.575638 0)
(0.821282 0.530412 0)
(0.870029 0.47413 0)
(0.914538 0.407583 0)
(0.953727 0.33203 0)
(0.986678 0.249153 0)
(1.01269 0.160965 0)
(1.03134 0.0696833 0)
(1.04246 -0.0223941 0)
(1.04616 -0.113 0)
(1.0427 -0.199986 0)
(1.03258 -0.281461 0)
(1.01636 -0.355836 0)
(0.994718 -0.421793 0)
(0.968489 -0.478241 0)
(0.937498 -0.524405 0)
(0.904261 -0.561722 0)
(0.86823 -0.587295 0)
(0.827157 -0.599445 0)
(0.779775 -0.594491 0)
(0.726565 -0.569443 0)
(0.669497 -0.531011 0)
(0.609963 -0.484175 0)
(0.54683 -0.430654 0)
(0.479534 -0.371949 0)
(0.408629 -0.310162 0)
(0.336596 -0.249055 0)
(0.268674 -0.199097 0)
(0.202345 -0.195846 0)
(0.138724 -0.332968 0)
(0.0383139 -0.629833 0)
(0.335089 0.49526 0)
(0.37737 0.524032 0)
(0.422491 0.548361 0)
(0.470307 0.567259 0)
(0.520578 0.579713 0)
(0.572945 0.584731 0)
(0.626911 0.581389 0)
(0.681838 0.56889 0)
(0.736945 0.54663 0)
(0.791325 0.514264 0)
(0.843977 0.471771 0)
(0.893844 0.4195 0)
(0.939875 0.358195 0)
(0.981082 0.288994 0)
(1.01661 0.213382 0)
(1.04576 0.133122 0)
(1.06809 0.0501502 0)
(1.08336 -0.0335229 0)
(1.09152 -0.115866 0)
(1.09274 -0.1949 0)
(1.0873 -0.268924 0)
(1.07562 -0.33646 0)
(1.05816 -0.396212 0)
(1.03552 -0.44721 0)
(1.00784 -0.48893 0)
(0.975546 -0.521933 0)
(0.939536 -0.543022 0)
(0.897679 -0.548254 0)
(0.848615 -0.534639 0)
(0.795038 -0.505144 0)
(0.738513 -0.463984 0)
(0.678918 -0.41351 0)
(0.615805 -0.356024 0)
(0.549493 -0.294135 0)
(0.481417 -0.231419 0)
(0.414292 -0.173378 0)
(0.351597 -0.130233 0)
(0.293117 -0.122734 0)
(0.227158 -0.183471 0)
(0.155775 -0.350781 0)
(0.344029 0.447093 0)
(0.387171 0.472586 0)
(0.433051 0.493765 0)
(0.481501 0.509744 0)
(0.532268 0.519633 0)
(0.584993 0.522579 0)
(0.6392 0.517808 0)
(0.694289 0.504675 0)
(0.749543 0.482719 0)
(0.804138 0.451713 0)
(0.857172 0.411713 0)
(0.907696 0.363096 0)
(0.954764 0.306571 0)
(0.997483 0.243178 0)
(1.03506 0.174246 0)
(1.06684 0.101334 0)
(1.09235 0.0261424 0)
(1.1113 -0.0495532 0)
(1.12355 -0.123894 0)
(1.12916 -0.195103 0)
(1.12827 -0.261665 0)
(1.12118 -0.322135 0)
(1.10817 -0.375254 0)
(1.08959 -0.420072 0)
(1.06561 -0.455948 0)
(1.03593 -0.482558 0)
(0.999565 -0.49683 0)
(0.957203 -0.494103 0)
(0.90961 -0.47504 0)
(0.857593 -0.441925 0)
(0.801741 -0.396723 0)
(0.741791 -0.341948 0)
(0.677644 -0.28041 0)
(0.609747 -0.215574 0)
(0.539135 -0.152016 0)
(0.46707 -0.0960311 0)
(0.393727 -0.0565958 0)
(0.316476 -0.0461857 0)
(0.230723 -0.0770841 0)
(0.129921 -0.147186 0)
(0.348103 0.397716 0)
(0.391608 0.420005 0)
(0.437747 0.438139 0)
(0.486334 0.451323 0)
(0.537107 0.458779 0)
(0.589712 0.459776 0)
(0.643692 0.45367 0)
(0.698487 0.439948 0)
(0.753436 0.418266 0)
(0.807793 0.388496 0)
(0.860746 0.350761 0)
(0.911446 0.305458 0)
(0.959047 0.253271 0)
(1.00275 0.195158 0)
(1.04182 0.132321 0)
(1.07567 0.0661529 0)
(1.10383 -0.001834 0)
(1.12597 -0.0700162 0)
(1.14189 -0.136728 0)
(1.15154 -0.200407 0)
(1.15501 -0.259603 0)
(1.15241 -0.312953 0)
(1.14389 -0.359228 0)
(1.12959 -0.397336 0)
(1.10941 -0.426295 0)
(1.08289 -0.444908 0)
(1.04947 -0.450867 0)
(1.00951 -0.442033 0)
(0.963989 -0.417795 0)
(0.913467 -0.379319 0)
(0.857919 -0.328676 0)
(0.797102 -0.268397 0)
(0.730951 -0.201589 0)
(0.659728 -0.132145 0)
(0.583899 -0.0648824 0)
(0.503647 -0.00563337 0)
(0.41803 0.0387856 0)
(0.324866 0.0615535 0)
(0.22335 0.0584376 0)
(0.118863 0.0285748 0)
(0.347239 0.347699 0)
(0.390607 0.366864 0)
(0.436504 0.382057 0)
(0.48473 0.392568 0)
(0.535017 0.397715 0)
(0.587017 0.396877 0)
(0.640296 0.389522 0)
(0.694329 0.375246 0)
(0.74851 0.353807 0)
(0.802163 0.325157 0)
(0.854558 0.289471 0)
(0.90494 0.247162 0)
(0.952558 0.198891 0)
(0.996698 0.145548 0)
(1.03672 0.0882283 0)
(1.07207 0.0281912 0)
(1.10231 -0.0331857 0)
(1.12712 -0.0944355 0)
(1.1463 -0.154059 0)
(1.1597 -0.210607 0)
(1.16734 -0.262711 0)
(1.1692 -0.309037 0)
(1.16529 -0.348328 0)
(1.15553 -0.379386 0)
(1.13969 -0.400984 0)
(1.11733 -0.41171 0)
(1.08808 -0.409749 0)
(1.05205 -0.393455 0)
(1.00962 -0.362306 0)
(0.960944 -0.31709 0)
(0.905864 -0.259551 0)
(0.844128 -0.192216 0)
(0.775628 -0.118409 0)
(0.700485 -0.0422414 0)
(0.618918 0.031552 0)
(0.530771 0.0978478 0)
(0.434945 0.151485 0)
(0.330399 0.188253 0)
(0.218971 0.206698 0)
(0.111066 0.204158 0)
(0.341432 0.297626 0)
(0.38416 0.313757 0)
(0.42931 0.326117 0)
(0.476669 0.334073 0)
(0.525969 0.337032 0)
(0.576872 0.334466 0)
(0.628962 0.32594 0)
(0.681752 0.311143 0)
(0.734687 0.289914 0)
(0.787154 0.262271 0)
(0.838503 0.228428 0)
(0.888067 0.18881 0)
(0.935185 0.144049 0)
(0.979234 0.094977 0)
(1.01966 0.0425978 0)
(1.05597 -0.0119417 0)
(1.08779 -0.0673821 0)
(1.11482 -0.122377 0)
(1.13686 -0.175541 0)
(1.15378 -0.225517 0)
(1.16549 -0.270967 0)
(1.1719 -0.310562 0)
(1.17286 -0.342989 0)
(1.16814 -0.36692 0)
(1.15739 -0.380972 0)
(1.14012 -0.383655 0)
(1.11591 -0.373376 0)
(1.08451 -0.348819 0)
(1.04576 -0.309471 0)
(0.999471 -0.255887 0)
(0.945293 -0.189671 0)
(0.882918 -0.113419 0)
(0.812196 -0.0306737 0)
(0.73326 0.0542499 0)
(0.646431 0.136693 0)
(0.551656 0.212119 0)
(0.448093 0.276381 0)
(0.335632 0.326423 0)
(0.217493 0.361463 0)
(0.106512 0.377754 0)
(0.33077 0.248106 0)
(0.372354 0.2613 0)
(0.416245 0.270939 0)
(0.462227 0.276459 0)
(0.510033 0.277347 0)
(0.559333 0.273156 0)
(0.609735 0.263532 0)
(0.660787 0.248241 0)
(0.711982 0.227189 0)
(0.762771 0.200443 0)
(0.812577 0.168245 0)
(0.860818 0.131018 0)
(0.906926 0.089366 0)
(0.950373 0.0440622 0)
(0.990691 -0.00397132 0)
(1.02749 -0.0536837 0)
(1.06044 -0.103916 0)
(1.08931 -0.153422 0)
(1.11394 -0.200906 0)
(1.1342 -0.245048 0)
(1.14997 -0.284511 0)
(1.16108 -0.317916 0)
(1.16726 -0.343848 0)
(1.16816 -0.360844 0)
(1.16324 -0.367385 0)
(1.15188 -0.361909 0)
(1.1334 -0.342898 0)
(1.1072 -0.309151 0)
(1.0727 -0.260156 0)
(1.02934 -0.196414 0)
(0.976604 -0.11957 0)
(0.914083 -0.0323786 0)
(0.84157 0.0613262 0)
(0.759339 0.156802 0)
(0.668119 0.249307 0)
(0.568254 0.334997 0)
(0.459133 0.410439 0)
(0.341153 0.472906 0)
(0.218173 0.521522 0)
(0.10433 0.551134 0)
(0.315461 0.199762 0)
(0.355399 0.210128 0)
(0.397524 0.217164 0)
(0.441616 0.220372 0)
(0.487414 0.219306 0)
(0.5346 0.213589 0)
(0.582807 0.202938 0)
(0.631616 0.187179 0)
(0.680567 0.166268 0)
(0.729173 0.140309 0)
(0.776931 0.109554 0)
(0.823342 0.0744166 0)
(0.867934 0.0354639 0)
(0.910278 -0.00659335 0)
(0.950007 -0.0509112 0)
(0.986824 -0.0965258 0)
(1.02051 -0.142367 0)
(1.0509 -0.187273 0)
(1.0779 -0.230002 0)
(1.10142 -0.269241 0)
(1.12132 -0.303595 0)
(1.1374 -0.33158 0)
(1.14926 -0.351624 0)
(1.15638 -0.362082 0)
(1.158 -0.361262 0)
(1.15325 -0.347474 0)
(1.14113 -0.319187 0)
(1.12068 -0.275226 0)
(1.09097 -0.215091 0)
(1.05113 -0.139383 0)
(1.00052 -0.0499462 0)
(0.938615 0.0502795 0)
(0.865047 0.157026 0)
(0.780231 0.264614 0)
(0.685622 0.367947 0)
(0.582244 0.464415 0)
(0.469401 0.551394 0)
(0.347486 0.625982 0)
(0.220586 0.686707 0)
(0.103694 0.72646 0)
(0.295856 0.153224 0)
(0.333659 0.160888 0)
(0.373517 0.165451 0)
(0.415215 0.166475 0)
(0.458496 0.163574 0)
(0.50306 0.156433 0)
(0.54856 0.144823 0)
(0.594616 0.12862 0)
(0.640814 0.107815 0)
(0.686726 0.0825284 0)
(0.731923 0.0530136 0)
(0.775991 0.019658 0)
(0.818555 -0.0170204 0)
(0.85929 -0.0563781 0)
(0.897941 -0.0976523 0)
(0.934327 -0.139968 0)
(0.968346 -0.182342 0)
(0.999959 -0.223678 0)
(1.02916 -0.262759 0)
(1.05592 -0.298234 0)
(1.08013 -0.328591 0)
(1.10152 -0.352161 0)
(1.11958 -0.367126 0)
(1.13353 -0.37158 0)
(1.14236 -0.363584 0)
(1.1448 -0.341259 0)
(1.13953 -0.303049 0)
(1.12529 -0.247827 0)
(1.10087 -0.175108 0)
(1.06521 -0.0857583 0)
(1.01771 0.0180346 0)
(0.957707 0.133171 0)
(0.884382 0.255023 0)
(0.798302 0.376029 0)
(0.701381 0.490479 0)
(0.596009 0.598088 0)
(0.480887 0.697378 0)
(0.355859 0.784675 0)
(0.225114 0.857337 0)
(0.104387 0.905818 0)
(0.272458 0.109118 0)
(0.307663 0.114221 0)
(0.34478 0.116455 0)
(0.383597 0.115434 0)
(0.423869 0.110827 0)
(0.465311 0.102367 0)
(0.507604 0.0898718 0)
(0.550401 0.0732503 0)
(0.593336 0.0525158 0)
(0.63604 0.0277912 0)
(0.678155 -0.000688371 0)
(0.719355 -0.0325762 0)
(0.759359 -0.0674158 0)
(0.797957 -0.104645 0)
(0.835019 -0.143596 0)
(0.870504 -0.183495 0)
(0.904458 -0.223445 0)
(0.936989 -0.262405 0)
(0.968222 -0.299151 0)
(0.998231 -0.33224 0)
(1.02694 -0.359966 0)
(1.05402 -0.380354 0)
(1.07876 -0.391212 0)
(1.10007 -0.390267 0)
(1.11657 -0.375252 0)
(1.12652 -0.344022 0)
(1.12823 -0.29516 0)
(1.12039 -0.227773 0)
(1.10158 -0.141318 0)
(1.07087 -0.0371346 0)
(1.02785 0.0814551 0)
(0.971777 0.212187 0)
(0.900843 0.35148 0)
(0.818862 0.491017 0)
(0.721053 0.616596 0)
(0.614054 0.735028 0)
(0.496893 0.847661 0)
(0.368396 0.949066 0)
(0.232854 1.0345 0)
(0.106774 1.09148 0)
(0.245928 0.0680373 0)
(0.278116 0.0707484 0)
(0.312054 0.0708173 0)
(0.347539 0.0679067 0)
(0.38434 0.0617317 0)
(0.422189 0.0520694 0)
(0.460794 0.03877 0)
(0.499841 0.0217655 0)
(0.539012 0.00107537 0)
(0.577994 -0.0231902 0)
(0.616499 -0.0508306 0)
(0.654284 -0.0815574 0)
(0.691171 -0.114997 0)
(0.727069 -0.150691 0)
(0.761989 -0.18809 0)
(0.796052 -0.226536 0)
(0.829481 -0.265231 0)
(0.862564 -0.303181 0)
(0.895599 -0.339128 0)
(0.928792 -0.371469 0)
(0.962119 -0.398187 0)
(0.995141 -0.416831 0)
(1.02684 -0.424624 0)