/*--------------------------------*- C++ -*----------------------------------*\
| =========                 |                                                 |
| \\      /  F ield         | OpenFOAM: The Open Source CFD Toolbox           |
|  \\    /   O peration     | Version:  5.0                                   |
|   \\  /    A nd           | Web:      www.OpenFOAM.org                      |
|    \\/     M anipulation  |                                                 |
\*---------------------------------------------------------------------------*/
FoamFile
{
    version     2.0;
    format      ascii;
    class       volScalarField;
    location    "0.8";
    object      epsilon;
}
// * * * * * * * * * * * * * * * * * * * * * * * * * * * * * * * * * * * * * //

dimensions      [0 2 -3 0 0 0 0];

internalField   nonuniform List<scalar> 
1915
(
0.153652
0.0616855
0.124323
0.121274
0.156111
0.196461
0.195794
0.280139
0.242994
0.377149
0.302679
0.498478
0.383032
0.669719
0.495448
0.952897
0.650308
1.52229
0.824809
2.97309
5.27256
12.5474
16.5862
18.5714
19.597
19.7722
19.2462
18.2729
17.1549
16.1594
15.468
15.1605
15.2363
15.6437
16.3199
17.2299
18.1732
19.0469
19.7524
20.1777
20.2263
19.8431
19.0364
17.8958
16.5825
15.2654
14.0477
12.9474
11.9278
10.9381
9.94257
8.92803
7.89446
6.84609
5.785
4.65361
3.55154
2.38705
1.33105
0.528232
18.6756
18.1239
18.5256
16.9826
15.6573
14.5341
13.3931
12.1431
10.8445
9.63237
8.63346
7.91548
7.4772
7.26852
7.23404
7.34101
7.50671
7.68885
7.84974
7.94816
7.94423
7.80984
7.53921
7.15664
6.71118
6.25387
5.8167
5.40797
5.02001
4.63973
4.25734
3.86857
3.4728
3.07071
2.6615
2.23561
1.7815
1.32428
0.925147
0.781472
30.191
21.538
20.426
19.5156
19.3999
19.4308
19.0694
18.0175
16.2047
13.8512
11.4067
9.29925
7.73131
6.70496
6.12007
5.84421
5.75661
5.77593
5.84259
5.9056
5.92004
5.85161
5.68368
5.42695
5.11807
4.79762
4.49027
4.20117
3.92329
3.64615
3.36322
3.07249
2.77424
2.47002
2.16165
1.84866
1.52849
1.20437
0.910332
0.93029
38.3059
24.5248
23.7503
24.8218
26.8846
28.9607
30.3864
30.5194
28.7124
24.9282
19.9461
15.0592
11.1027
8.35551
6.68497
5.77302
5.33355
5.16462
5.13692
5.1631
5.17976
5.14132
5.02093
4.81938
4.56666
4.29977
4.04202
3.79814
3.56117
3.32105
3.07297
2.81632
2.5519
2.28192
2.01048
1.74247
1.48103
1.22823
1.00292
1.05312
42.9799
26.4989
27.2411
31.0811
35.9923
41.0194
45.8155
49.5113
49.9826
46.1002
37.765
28.0491
19.302
12.8241
8.77348
6.57522
5.49515
5.01547
4.84024
4.80257
4.80215
4.77617
4.68636
4.52329
4.30823
4.07318
3.84227
3.62111
3.40379
3.18144
2.95144
2.71408
2.46991
2.22079
1.9719
1.73153
1.5082
1.30783
1.14249
1.245
44.3519
27.035
29.3369
35.8089
43.3168
51.4287
60.3944
70.5227
78.82
81.4148
69.7168
53.2041
36.2876
22.3548
13.2553
8.4155
6.14814
5.15301
4.75211
4.6179
4.5834
4.5591
4.49438
4.36535
4.18015
3.96591
3.74886
3.53814
3.3291
3.11565
2.89784
2.67607
2.44967
2.21891
1.98854
1.76822
1.57003
1.40656
1.29138
1.46282
43.1921
26.4885
29.4073
36.0262
42.247
49.641
56.2006
65.9945
82.2453
101.71
107.611
95.2245
67.8646
40.6201
21.6495
11.7093
7.33353
5.52568
4.80405
4.54103
4.45984
4.4296
4.3852
4.28538
4.12366
3.92557
3.71665
3.50701
3.29587
3.08547
2.87718
2.67011
2.46178
2.24995
2.03735
1.83307
1.64991
1.50462
1.42453
1.66305
40.4055
25.4434
28.4567
34.0368
38.6524
42.7782
42.889
46.4686
56.4854
71.6227
90.685
103.954
99.7137
69.9322
35.4052
16.8089
9.07146
6.09501
4.95718
4.53865
4.40247
4.36112
4.32765
4.24754
4.10248
3.91883
3.72066
3.5073
3.28747
3.07649
2.87537
2.6817
2.49151
2.29991
2.10638
1.91737
1.74428
1.60518
1.53869
1.83347
36.7345
24.2125
27.2317
31.9176
34.7261
35.1232
32.1146
32.295
37.5555
47.6181
62.1087
76.4923
84.9821
82.5181
51.3513
23.1308
11.1788
6.78955
5.17638
4.58781
4.3916
4.33458
4.30425
4.23854
4.10725
3.9328
3.73742
3.52015
3.29728
3.08554
2.88828
2.70465
2.53097
2.36049
2.18879
2.01768
1.85471
1.71955
1.66775
2.076
33.3844
23.0654
25.6684
29.3695
30.2919
27.8079
24.6197
24.372
27.0304
32.9813
43.2291
55.533
65.8625
71.6412
57.1545
28.642
13.1963
7.49218
5.42578
4.67218
4.41542
4.34026
4.31017
4.25407
4.13336
3.9636
3.76349
3.54584
3.3255
3.11328
2.91634
2.73758
2.57644
2.4274
2.28117
2.1324
1.98207
1.84882
1.80693
2.35776
0.814408
1.40923
0.836898
1.12131
0.90155
1.11266
1.00456
1.21991
1.14266
1.39694
1.31451
1.62192
1.51824
1.88096
1.74764
2.16081
1.99656
2.46642
2.25423
2.7835
3.08065
3.35211
3.59755
3.80581
3.94491
4.00621
4.00466
3.9266
3.80831
3.66588
3.52497
3.4121
3.34775
3.2602
3.00794
2.6707
2.33457
2.04927
1.82922
1.67157
1.56728
1.50653
1.48027
4.79513
3.75348
2.94812
4.07452
1.6201
1.76757
2.23431
6.22961
1.40134
1.76446
2.71704
7.06242
1.54395
2.12653
3.49724
7.47444
1.82502
2.72312
4.7396
7.93011
2.1756
3.51552
6.31698
8.50328
2.51528
3.89222
6.48377
10.3356
2.80721
3.94535
5.988
10.4002
3.14948
4.11895
6.14561
9.61747
3.49125
4.39493
6.04478
8.73822
3.79667
4.62688
5.82493
7.65295
4.08491
4.86505
5.78379
6.97541
4.35249
5.12869
5.95083
6.82061
4.58011
5.37982
6.19918
6.95782
4.74688
5.57292
6.41009
7.16052
4.82834
5.65549
6.47326
7.25933
4.82083
5.62526
6.35798
7.11281
4.67615
5.50681
6.20032
6.86751
4.48783
5.2997
6.03259
6.62678
4.25435
4.95294
5.75337
6.38431
4.0163
4.60371
5.29004
6.00175
3.80219
4.28442
4.85038
5.47931
3.63531
4.01451
4.4742
4.98842
3.52841
3.80924
4.17076
4.58887
3.40944
3.67148
3.94731
4.28217
3.13542
3.52283
3.79029
4.06756
2.77966
3.21282
3.59851
3.8916
2.44229
2.85174
3.26384
3.64551
2.16858
2.53459
2.92472
3.32139
1.96745
2.29182
2.64681
3.02294
1.83201
2.1245
2.44908
2.80081
1.75102
2.02234
2.3262
2.66049
1.71303
1.97197
2.26373
2.58809
27.03
21.6064
23.7783
26.5896
26.192
22.5502
19.9186
20.0012
22.1401
25.5946
32.3658
42.0249
52.1206
59.3462
53.0684
30.4052
14.6646
8.09538
5.67566
4.78091
4.46795
4.37367
4.34175
4.29
4.17507
4.00837
3.80963
3.59576
3.37604
3.16132
2.96163
2.78255
2.62757
2.49736
2.38164
2.26189
2.12835
1.99582
1.9542
2.64607
22.2756
19.9295
21.8295
23.9746
22.8352
19.5608
17.7231
18.3662
20.276
22.6077
26.9925
34.1008
42.6595
49.0463
45.2309
29.0604
15.311
8.53519
5.90526
4.90611
4.54548
4.43203
4.39464
4.34461
4.23395
4.07288
3.88221
3.67242
3.4509
3.2317
3.02696
2.84375
2.68761
2.56554
2.47867
2.40177
2.29818
2.16937
2.12051
2.95355
18.6691
18.2048
19.9881
21.6796
20.3735
17.6916
16.7439
18.3635
20.9542
22.5786
25.163
29.854
36.1096
40.4995
37.5733
26.199
15.1044
8.78255
6.09806
5.03882
4.6433
4.51289
4.468
4.41762
4.3137
4.16191
3.98059
3.77379
3.5494
3.32455
3.1133
2.92346
2.76073
2.63353
2.5534
2.51915
2.48461
2.38093
2.31524
3.30867
15.9093
16.5796
18.3547
19.7102
18.4713
16.3099
16.302
18.9949
22.7493
24.5538
25.8249
28.0457
31.3403
33.502
31.1052
22.8963
14.3322
8.84815
6.24461
5.17129
4.7572
4.61506
4.5641
4.51233
4.41616
4.27496
4.10243
3.89813
3.67049
3.43938
3.22068
3.02242
2.84948
2.70902
2.61405
2.58244
2.62201
2.62863
2.54795
3.76141
13.8621
15.1203
16.8738
17.8754
16.5913
15.2435
16.2171
20.0068
24.9315
26.4517
26.5559
26.9435
27.5347
27.9781
25.817
19.7243
13.2857
8.76138
6.34353
5.29755
4.88293
4.73638
4.68265
4.63124
4.54039
4.40897
4.24488
4.04339
3.8128
3.57543
3.34895
3.14126
2.95574
2.79766
2.67911
2.62066
2.65271
2.798
2.83537
4.45703
12.2901
13.7718
15.2544
15.8112
14.8738
14.5717
16.5513
21.4593
27.3894
27.6835
25.856
24.683
23.8811
23.4706
21.4462
16.8781
12.1221
8.53852
6.39728
5.41373
5.01611
4.87313
4.82015
4.77038
4.6832
4.56105
4.40565
4.2086
3.9757
3.73223
3.49829
3.28137
3.08261
2.90469
2.75879
2.66584
2.65851
2.79149
3.12867
4.66382
10.9293
12.3862
13.5313
13.902
13.695
14.454
17.4346
23.5214
29.3765
27.3218
24.02
21.7556
20.4371
19.6808
17.8191
14.4121
10.9714
8.2254
6.40838
5.51834
5.15305
5.02081
4.9713
4.92324
4.84089
4.72806
4.5829
4.39433
4.16011
3.90978
3.66903
3.44455
3.23427
3.03693
2.86266
2.73483
2.68871
2.80217
3.26409
4.26704
9.64647
11.0306
12.1065
12.6894
13.2993
15.109
19.0041
25.6583
29.4019
25.3041
21.2801
18.7197
17.3809
16.5073
14.8562
12.348
9.91679
7.88777
6.39295
5.61406
5.29164
5.17552
5.13139
5.08559
5.00947
4.90623
4.77407
4.59895
4.36607
4.10813
3.8613
3.63287
3.41586
3.20229
2.99997
2.83766
2.75368
2.82276
3.22426
3.90218
9.16419
10.2477
11.4558
12.4684
13.9033
16.8132
21.5299
26.6491
26.8734
22.1605
18.2585
15.9619
14.7894
13.8972
12.4929
10.6835
9.01302
7.56456
6.36856
5.70555
5.43136
5.3347
5.29745
5.25461
5.18491
5.09161
4.97429
4.81046
4.5843
4.32579
4.07413
3.84796
3.63371
3.41028
3.1788
2.98086
2.86014
2.8741
3.14449
3.70205
9.57837
10.4133
11.9001
13.3902
15.5578
19.5163
23.9933
25.3209
22.8244
18.6523
15.4787
13.6567
12.6579
11.7935
10.646
9.37813
8.27326
7.2826
6.35044
5.79717
5.57223
5.49659
5.46724
5.42761
5.36402
5.28018
5.17639
5.02372
4.80664
4.55206
4.30165
4.08777
3.89378
3.67332
3.40635
3.16833
3.01704
3.00251
3.23313
3.74248
9.57485
10.9413
12.6904
14.4931
17.3129
21.0825
23.0061
21.5563
18.7068
15.5614
13.2172
11.8182
10.9358
10.1245
9.21966
8.37007
7.69583
7.06051
6.3424
5.89096
5.71411
5.65958
5.63809
5.60195
5.54362
5.46769
5.37396
5.23531
5.02808
4.77068
4.52697
4.33942
4.19437
4.0097
3.6878
3.3996
3.22464
3.20444
3.43993
4.06649
8.64697
10.6087
12.5393
14.6982
17.2896
19.1732
19.1181
17.4932
15.363
13.17
11.4804
10.3654
9.55066
8.80977
8.12055
7.59139
7.24197
6.88537
6.34142
5.98632
5.85676
5.82262
5.80809
5.77525
5.71968
5.64615
5.55124
5.41971
5.22864
4.96923
4.7337
4.57835
4.50371
4.42968
4.0225
3.67286
3.48087
3.46883
3.72092
4.56703
8.00394
9.63491
11.4505
13.3465
14.9754
15.777
15.4466
14.3294
12.8857
11.3799
10.1327
9.19066
8.42871
7.77397
7.27266
6.989
6.87496
6.72259
6.34343
6.08339
6.00067
5.98613
5.97765
5.94709
5.89092
5.81144
5.70433
5.56632
5.3882
5.14098
4.91712
4.78716
4.7507
4.79911
4.39872
3.99222
3.79816
3.81564
4.101
5.19424
7.82654
8.98512
10.3275
11.6694
12.6979
13.1175
12.8305
12.0463
11.037
9.98071
9.02288
8.20385
7.50895
6.95774
6.62441
6.53543
6.5926
6.57754
6.35777
6.18731
6.14773
6.15173
6.14896
6.11935
6.05949
5.97011
5.85164
5.70199
5.51415
5.28352
5.08039
4.97822
4.91706
4.90726
4.77311
4.37278
4.2154
4.31348
4.66192
5.98393
7.89085
8.7673
9.72687
10.6287
11.2488
11.4038
11.0607
10.3836
9.589
8.79071
8.03102
7.34189
6.75033
6.32152
6.14333
6.21634
6.40702
6.48791
6.39615
6.30118
6.29957
6.32117
6.32414
6.29428
6.22861
6.12889
5.99874
5.83722
5.63802
5.41157
5.22641
5.18321
5.07256
4.87232
4.91146
4.85227
4.79886
5.09003
5.53856
6.9865
7.97148
8.69253
9.41541
10.0204
10.3537
10.3001
9.85223
9.15977
8.41468
7.68348
7.06236
6.55781
6.12998
5.84005
5.80434
6.00961
6.30925
6.46847
6.46032
6.42521
6.45729
6.49595
6.50492
6.47367
6.40053
6.29003
6.14858
5.97816
5.77059
5.53344
5.34292
5.24871
5.07958
4.86537
5.00325
5.28559
5.59364
6.22583
6.84097
8.19813
7.87062
8.54798
9.11914
9.55039
9.71598
9.53341
8.99439
8.23875
7.44608
6.71808
6.19124
5.84748
5.61227
5.48817
5.57803
5.8823
6.26283
6.50673
6.5349
6.55679
6.62247
6.67868
6.69416
6.65975
6.57661
6.45348
6.30074
6.12806
5.92271
5.66007
5.40183
5.16941
4.95676
4.79352
4.95564
5.40825
5.87643
6.54677
8.01143
9.47296
7.56059
8.23398
8.74498
9.06707
9.15221
8.91728
8.33281
7.50204
6.66327
6.00417
5.56155
5.30753
5.20485
5.24172
5.44278
5.81354
6.24075
6.53203
6.60502
6.69905
6.79963
6.87352
6.89587
6.85574
6.75831
6.61844
6.45176
6.27668
6.04622
5.74212
5.3994
5.08849
4.83467
4.67134
4.74189
5.03307
5.4181
6.12343
7.01306
10.4316
7.2193
7.79918
8.26904
8.54759
8.59138
8.34418
7.76064
6.92351
6.11565
5.53469
5.16664
4.98585
4.9694
5.10824
5.39736
5.81797
6.25687
6.57704
6.721
6.86802
6.99599
7.08432
7.11418
7.06662
6.94788
6.78553
6.59737
6.38167
6.06191
5.70569
5.33101
4.98446
4.70699
4.53959
4.56681
4.83357
5.42189
6.20467
6.31935
10.8508
6.88263
7.36089
7.72934
7.96128
7.99347
7.76715
7.25029
6.50298
5.79189
5.28155
4.97328
4.85075
4.89552
5.09712
5.44722
5.91202
6.36837
6.71711
6.89643
7.07212
7.21688
7.3147
7.35255
7.29593
7.14775
6.95784
6.72857
6.40427
6.0018
5.59893
5.20797
4.85475
4.5785
4.42687
4.48071
4.85409
5.72904
6.69663
6.3045
11.1876
6.57911
6.95946
7.2327
7.38215
7.37312
7.18647
6.81515
6.23975
5.64662
5.20302
4.9455
4.86875
4.95821
5.20275
5.59479
6.0929
6.57664
6.93871
7.1226
7.31189
7.46577
7.56834
7.61112
7.53676
7.35339
7.11421
6.7883
6.36205
5.9001
5.46243
5.06112
4.714
4.45352
4.32798
4.4219
4.87907
5.88283
6.89982
6.4304
11.3124
6.13497
6.61797
6.81272
6.91172
6.86493
6.69895
6.44845
6.07133
5.62547
5.26025
5.05286
5.01624
5.14178
5.42069
5.84067
6.35598
6.87011
7.18484
7.38476
7.5869
7.74694
7.84896
7.87969
7.78738
7.55715
7.21986
6.78016
6.27549
5.76969
5.30845
4.90449
4.57035
4.33102
4.2293
4.34199
4.80108
5.75369
6.64553
6.63839
11.3105
5.55354
6.13535
6.49182
6.59033
6.5075
6.3734
6.18658
5.94442
5.65295
5.40011
5.26323
5.27279
5.43453
5.74283
6.17997
6.70191
7.17356
7.42691
7.6794
7.90179
8.06832
8.16517
8.16342
8.02184
7.71996
7.2692
6.72419
6.1507
5.61227
5.14015
4.74224
4.42624
4.20981
4.12712
4.24049
4.65308
5.46759
6.24719
6.80706
11.6477
5.05273
5.54071
5.99033
6.23077
6.29295
6.23341
6.07782
5.89272
5.72233
5.58816
5.54108
5.61225
5.81698
6.15634
6.62602
7.09231
7.44414
7.74092
8.03044
8.27268
8.44262
8.51875
8.45463
8.21957
7.8092
7.24402
6.60952
5.98492
5.4293
4.95908
4.57612
4.28296
4.09095
4.02659
4.14133
4.52043
5.23947
6.08663
6.80916
12.4967
4.66479
5.07228
5.44462
5.73868
5.96171
6.01152
5.98155
5.93888
5.88678
5.85204
5.88659
6.02333
6.2815
6.65408
7.0837
7.44629
7.77788
8.12919
8.45715
8.72279
8.89284
8.90602
8.70799
8.33604
7.79284
7.12666
6.42931
5.77975
5.22454
4.76873
4.40859
4.14221
3.97602
3.93062
4.05
4.40676
5.09397
6.11374
6.65094
13.1434
4.3828
4.72961
5.06317
5.34792
5.57277
5.71667
5.82224
5.92294
5.97999
6.05024
6.17634
6.38591
6.69596
7.07754
7.4267
7.80197
8.20394
8.6114
8.98593
9.277
9.41245
9.26603
8.87452
8.3224
7.65117
6.91429
6.18832
5.54233
5.0047
4.57402
4.24274
4.00576
3.86579
3.83796
3.95606
4.27565
4.88754
5.89937
6.19944
12.5491
4.19916
4.49145
4.80023
5.08355
5.3293
5.52985
5.69943
5.85775
6.01431
6.1909
6.40855
6.68487
7.02682
7.42022
7.8358
8.27576
8.73913
9.21198
9.65158
9.9325
9.86428
9.47041
8.86594
8.141
7.38037
6.61766
5.90096
5.28286
4.77723
4.37981
4.08129
3.87495
3.76095
3.74943
3.86317
4.13704
4.63473
5.43238
5.70704
11.8073
3.9949
4.32167
4.63242
4.91306
5.17937
5.4289
5.65905
5.88777
6.12895
6.39622
6.70087
7.05212
7.45228
7.89417
8.36435
8.86078
9.39039
9.9506
10.3928
10.4099
10.0379
9.41801
8.6396
7.81259
7.01006
6.25957
5.58582
5.01242
4.54883
4.1898
3.92591
3.7503
3.66213
3.66836
3.78433
4.02966
4.44456
5.06449
5.44949
11.4003
3.71777
4.09352
4.45098
4.80027
5.10031
5.3923
5.68141
5.98122
6.30319
6.6605
7.05734
7.49419
7.96798
8.47214
9.00065
9.55486
10.1431
10.6952
10.7548
10.4365
9.8425
9.07917
8.23113
7.37807
6.58212
5.87382
5.25813
4.7404
4.32473
4.00642
3.77719
3.63128
3.56841
3.59467
3.72182
3.96243
4.33103
4.81569
5.38958
10.7642
3.42567
3.83455
4.22629
4.61209
4.99306
5.3736
5.75422
6.1288
6.5247
6.97326
7.47261
8.01682
8.58878
9.15489
9.69714
10.2195
10.652
10.7198
10.4973
10.0073
9.32391
8.52876
7.69834
6.88308
6.13459
5.48328
4.9326
4.47501
4.1091
3.8313
3.63512
3.5167
3.47742
3.52408
3.66649
3.91175
4.2487
4.63445
5.32354
10.1812
3.19267
3.61388
4.03841
4.45525
4.85963
5.27747
5.71996
6.17714
6.66183
7.19138
7.75875
8.35436
8.94384
9.46522
9.90766
10.2222
10.2738
10.1322
9.81066
9.29518
8.62773
7.8843
7.11518
6.3681
5.6906
5.10767
4.62228
4.2232
3.90555
3.66604
3.50013
3.40623
3.38794
3.45377
3.61337
3.8649
4.18016
4.51482
5.28381
10.1241
3.04181
3.46495
3.90389
4.34825
4.79321
5.24551
5.71019
6.19165
6.70327
7.24279
7.79782
8.34982
8.85956
9.26436
9.50727
9.58586
9.51369
9.32549
8.99929
8.51219
7.90239
7.22996
6.53836
5.87162
5.27166
4.75961
4.33557
3.99039
3.71737
3.51284
3.37407
3.30189
3.30264
3.38794
3.56948
3.8394
4.14423
4.43579
5.09612
9.9979
2.96365
3.38846
3.83757
4.3014
4.77311
5.25075
5.7323
6.21771
6.71073
7.2051
7.68166
8.11828
8.48646
8.7405
8.85132
8.83528
8.71996
8.51592
8.19949
7.75398
7.20749
6.60752
5.9959
5.41112
4.88747
4.44261
4.07638
3.78056
3.54786
3.37484
3.26046
3.20797
3.22704
3.33438
3.54894
3.86791
4.19747
4.4113
4.86246
9.3462
)
;

boundaryField
{
    leftWall
    {
        Cmu             0.09;
        kappa           0.41;
        E               9.8;
        type            epsilonWallFunction;
        value           nonuniform 0();
    }
    rightWall
    {
        Cmu             0.09;
        kappa           0.41;
        E               9.8;
        type            epsilonWallFunction;
        value           nonuniform List<scalar> 
43
(
0.528232
0.781472
0.93029
1.05312
1.245
1.46282
1.66305
1.83347
2.076
2.35776
2.64607
2.95355
3.30867
3.76141
4.45703
4.66382
4.26704
3.90218
3.70205
3.74248
4.06649
4.56703
5.19424
5.98393
6.9865
8.19813
9.47296
10.4316
10.8508
11.1876
11.3124
11.3105
11.6477
12.4967
13.1434
12.5491
11.8073
11.4003
10.7642
10.1812
10.1241
9.9979
9.3462
)
;
    }
    lowerWall
    {
        Cmu             0.09;
        kappa           0.41;
        E               9.8;
        type            epsilonWallFunction;
        value           nonuniform List<scalar> 
66
(
0.153652
0.0616855
0.0616855
0.121274
0.196461
0.280139
0.377149
0.498478
0.669719
0.952897
1.52229
2.97309
4.79513
3.75348
2.94812
4.07452
5.27256
18.6756
30.191
38.3059
42.9799
44.3519
43.1921
40.4055
36.7345
33.3844
5.27256
12.5474
16.5862
18.5714
19.597
19.7722
19.2462
18.2729
17.1549
16.1594
15.468
15.1605
15.2363
15.6437
16.3199
17.2299
18.1732
19.0469
19.7524
20.1777
20.2263
19.8431
19.0364
17.8958
16.5825
15.2654
14.0477
12.9474
11.9278
10.9381
9.94257
8.92803
7.89446
6.84609
5.785
4.65361
3.55154
2.38705
1.33105
0.528232
)
;
    }
    atmosphere
    {
        type            inletOutlet;
        inletValue      nonuniform 0();
        value           nonuniform 0();
    }
    defaultFaces
    {
        type            empty;
    }
    procBoundary1to0
    {
        type            processor;
        value           nonuniform List<scalar> 
44
(
0.236698
0.142906
0.156544
0.183844
0.218316
0.260875
0.314
0.379827
0.457357
0.537845
0.603102
0.670815
0.750291
0.846974
0.964914
1.10707
1.27365
1.46251
1.66721
1.87702
2.50743
2.50743
2.74598
2.96085
3.13923
3.26591
3.33582
3.35487
3.32718
3.27286
3.21115
3.15688
3.13407
3.06728
2.8278
2.50931
2.19041
1.91373
1.69227
1.52602
1.40868
1.33233
1.28947
1.27344
)
;
    }
    procBoundary1to3
    {
        type            processor;
        value           nonuniform List<scalar> 
45
(
1.48041
1.70756
1.96037
2.24607
2.56551
2.9385
3.36534
3.82211
4.29931
4.78736
5.27772
5.76203
6.23358
6.68826
7.11172
7.4865
7.80413
8.04615
8.18418
8.20989
8.13916
7.99074
7.76725
7.45312
7.04095
6.55078
6.02118
5.48946
4.98724
4.53977
4.16019
3.84831
3.59711
3.40054
3.25585
3.1635
3.12892
3.16527
3.2959
3.55261
3.9483
4.3381
4.46925
4.77666
9.11997
)
;
    }
}


// ************************************************************************* //
