/*--------------------------------*- C++ -*----------------------------------*\
| =========                 |                                                 |
| \\      /  F ield         | OpenFOAM: The Open Source CFD Toolbox           |
|  \\    /   O peration     | Version:  5.0                                   |
|   \\  /    A nd           | Web:      www.OpenFOAM.org                      |
|    \\/     M anipulation  |                                                 |
\*---------------------------------------------------------------------------*/
FoamFile
{
    version     2.0;
    format      ascii;
    class       volScalarField;
    location    "0.8";
    object      k;
}
// * * * * * * * * * * * * * * * * * * * * * * * * * * * * * * * * * * * * * //

dimensions      [0 2 -2 0 0 0 0];

internalField   nonuniform List<scalar> 
1915
(
0.0094323
0.00510097
0.020512
0.00967903
0.0287526
0.0133748
0.0366923
0.0169692
0.0448731
0.0207223
0.0538659
0.0250028
0.0644899
0.0305058
0.0778989
0.0386681
0.0955478
0.0529242
0.118544
0.0827729
0.0997629
0.17179
0.208966
0.226324
0.235704
0.23826
0.235112
0.228068
0.219367
0.21124
0.205477
0.202991
0.203831
0.207518
0.213493
0.221142
0.228741
0.235544
0.24076
0.243547
0.243214
0.239377
0.232141
0.222288
0.211153
0.200042
0.189667
0.180051
0.1708
0.161426
0.151593
0.14115
0.130043
0.118233
0.105604
0.0913096
0.0761933
0.0584134
0.039624
0.0236765
0.281112
0.459752
0.507233
0.51968
0.531233
0.538009
0.534363
0.518571
0.492635
0.46158
0.432057
0.40924
0.395298
0.389921
0.3915
0.397633
0.407036
0.418193
0.429161
0.437771
0.441945
0.440142
0.431837
0.418021
0.401021
0.383268
0.366168
0.349889
0.333819
0.317122
0.299203
0.279769
0.25868
0.235831
0.211013
0.183605
0.151943
0.116754
0.0769531
0.0347906
0.389558
0.635313
0.694889
0.735001
0.777281
0.809926
0.823778
0.813884
0.778732
0.723295
0.659522
0.600408
0.553937
0.522478
0.50489
0.498265
0.49992
0.507078
0.516769
0.525806
0.531121
0.530267
0.521972
0.506912
0.487693
0.467226
0.447224
0.427888
0.408482
0.388008
0.365814
0.341598
0.31521
0.286563
0.255569
0.221931
0.184915
0.143694
0.0969497
0.0391854
0.457619
0.763691
0.855818
0.940903
1.02755
1.10206
1.15549
1.177
1.1524
1.07803
0.967742
0.849007
0.743927
0.66396
0.61101
0.580597
0.567138
0.565235
0.570089
0.577153
0.582278
0.582106
0.574542
0.559677
0.53998
0.518495
0.497113
0.476104
0.454706
0.431859
0.406967
0.379778
0.350128
0.31793
0.283219
0.24603
0.206033
0.162222
0.111995
0.0424613
0.495679
0.842954
0.982085
1.12442
1.26452
1.39293
1.50979
1.60341
1.63461
1.5791
1.42802
1.22952
1.02961
0.861675
0.741751
0.668219
0.628981
0.612045
0.608471
0.611308
0.614899
0.614899
0.608347
0.594548
0.575416
0.55377
0.531696
0.509592
0.486773
0.462249
0.435592
0.406609
0.37508
0.340841
0.303968
0.264701
0.223022
0.177876
0.125119
0.0474206
0.507761
0.872502
1.05404
1.24931
1.43457
1.61301
1.79566
1.99512
2.16417
2.23858
2.07487
1.80038
1.47923
1.16914
0.928807
0.777475
0.695391
0.655576
0.639721
0.636238
0.637102
0.636778
0.631522
0.619458
0.601452
0.579973
0.557337
0.534262
0.510185
0.484365
0.456624
0.426784
0.394496
0.35942
0.321539
0.281123
0.238261
0.192057
0.13771
0.0527988
0.500309
0.866715
1.06911
1.26967
1.43128
1.60034
1.74617
1.94635
2.24115
2.56684
2.70191
2.56366
2.1519
1.64493
1.20769
0.923898
0.772813
0.699891
0.667778
0.656266
0.653592
0.652508
0.648545
0.638389
0.621641
0.600641
0.577648
0.553465
0.527883
0.500944
0.472622
0.442635
0.410462
0.375506
0.33752
0.296619
0.252721
0.204768
0.148125
0.0575552
0.479723
0.842339
1.05327
1.2347
1.36585
1.47458
1.50661
1.60897
1.82585
2.1195
2.4783
2.74152
2.73556
2.28652
1.60184
1.11766
0.864373
0.746581
0.694503
0.673738
0.667076
0.664925
0.661665
0.652932
0.637245
0.617005
0.594332
0.569044
0.541795
0.513873
0.485251
0.455521
0.424031
0.389916
0.352586
0.311822
0.267178
0.217095
0.156154
0.0614366
0.450694
0.80724
1.02382
1.18849
1.28137
1.31517
1.28439
1.32393
1.46838
1.70013
2.0071
2.31125
2.52898
2.56897
2.02091
1.34182
0.965849
0.795001
0.720564
0.689874
0.678932
0.675392
0.672255
0.664665
0.650026
0.630362
0.607593
0.581474
0.553383
0.524787
0.49589
0.466444
0.435835
0.403018
0.367008
0.327079
0.282239
0.230542
0.166277
0.0666922
0.422846
0.758541
0.976288
1.12364
1.17469
1.1466
1.11121
1.14613
1.24583
1.41213
1.65902
1.94354
2.20197
2.39532
2.19609
1.54159
1.06378
0.842258
0.745978
0.705448
0.690114
0.684983
0.681761
0.674985
0.661264
0.641953
0.618595
0.592202
0.564033
0.535021
0.505732
0.476283
0.446372
0.41508
0.380935
0.342501
0.298058
0.245159
0.178125
0.0726968
0.143739
0.134762
0.165448
0.164711
0.184517
0.186971
0.20256
0.207577
0.220847
0.228901
0.24016
0.251543
0.260813
0.275207
0.282665
0.299308
0.305431
0.324524
0.328554
0.350435
0.375259
0.398952
0.421989
0.444238
0.464137
0.481218
0.496179
0.507919
0.51802
0.526951
0.535635
0.54535
0.557029
0.563595
0.550935
0.526166
0.497668
0.471471
0.450373
0.43501
0.424973
0.41953
0.417888
0.0956624
0.0810211
0.0687524
0.0846798
0.158399
0.152134
0.149762
0.199165
0.188929
0.192241
0.204108
0.26215
0.215792
0.231377
0.260779
0.309931
0.244623
0.277573
0.335089
0.359173
0.275518
0.332836
0.424448
0.421722
0.304952
0.369577
0.459217
0.528359
0.329867
0.383569
0.456672
0.566807
0.356594
0.399437
0.479329
0.576136
0.383096
0.422262
0.489554
0.580053
0.407621
0.443851
0.494162
0.563224
0.431512
0.465549
0.504629
0.552414
0.454895
0.488504
0.523603
0.559164
0.477287
0.511547
0.546459
0.577553
0.498109
0.533038
0.568333
0.598815
0.516111
0.550656
0.584152
0.615757
0.530667
0.564153
0.592575
0.622039
0.538734
0.574359
0.600472
0.625035
0.545522
0.580586
0.609539
0.630266
0.550582
0.579885
0.614192
0.637577
0.555508
0.579871
0.608982
0.638641
0.561327
0.581604
0.605621
0.632604
0.56891
0.58537
0.605599
0.628258
0.578536
0.591384
0.608394
0.628192
0.583201
0.599206
0.613706
0.631424
0.569323
0.601614
0.62
0.637302
0.543342
0.584467
0.618298
0.641256
0.515127
0.557818
0.598301
0.633538
0.490667
0.531737
0.573318
0.613613
0.472163
0.510798
0.551108
0.591989
0.459744
0.49626
0.534958
0.575154
0.452723
0.487781
0.525304
0.564881
0.450172
0.484386
0.521244
0.560518
0.39969
0.703447
0.913081
1.04388
1.06503
1.00856
0.986536
1.03788
1.13716
1.25642
1.44327
1.68785
1.94895
2.16917
2.13526
1.63102
1.14514
0.885613
0.770658
0.721116
0.701493
0.694644
0.691179
0.684798
0.671659
0.652673
0.629438
0.603336
0.575102
0.54565
0.515817
0.485975
0.456218
0.426245
0.394472
0.358191
0.314672
0.260825
0.19054
0.0786285
0.382366
0.649135
0.844498
0.961363
0.965357
0.917747
0.920055
0.994431
1.09753
1.19836
1.33762
1.53289
1.76493
1.96454
1.9714
1.62284
1.19772
0.923064
0.794355
0.737218
0.713645
0.705008
0.700988
0.694805
0.682181
0.66385
0.641481
0.615842
0.587454
0.557497
0.526993
0.496444
0.466136
0.436375
0.406671
0.373637
0.33213
0.277845
0.204061
0.0847962
0.371042
0.600295
0.77794
0.883134
0.884249
0.855049
0.887586
0.996576
1.12676
1.21717
1.31575
1.45495
1.63365
1.78485
1.79611
1.5593
1.21485
0.952404
0.816267
0.753557
0.726728
0.716437
0.711704
0.705574
0.693744
0.676485
0.655198
0.63002
0.601474
0.570989
0.539735
0.508266
0.476858
0.445924
0.415946
0.385732
0.349221
0.296358
0.219399
0.0917302
0.365935
0.559942
0.718604
0.812499
0.81863
0.809518
0.874974
1.01996
1.18807
1.29101
1.35892
1.43479
1.53734
1.62968
1.63953
1.47223
1.20501
0.972544
0.835504
0.76973
0.740734
0.729229
0.723954
0.717837
0.706949
0.690943
0.670748
0.646053
0.617386
0.586377
0.554323
0.521769
0.488878
0.455896
0.423382
0.391856
0.359933
0.314545
0.236241
0.100473
0.370749
0.529171
0.667399
0.748883
0.759683
0.78044
0.879134
1.0584
1.26078
1.35983
1.39924
1.42753
1.45675
1.501
1.50445
1.38066
1.17893
0.983397
0.851462
0.785259
0.755479
0.743438
0.737987
0.732103
0.721989
0.707203
0.688107
0.663969
0.63526
0.603777
0.570925
0.537189
0.502543
0.466997
0.43095
0.395079
0.359847
0.322224
0.249241
0.112543
0.390639
0.50753
0.619951
0.688364
0.715733
0.772458
0.902133
1.11235
1.34057
1.40723
1.3919
1.37601
1.36723
1.38779
1.38454
1.29161
1.1422
0.984351
0.863767
0.799727
0.770658
0.758867
0.753642
0.74817
0.738726
0.725139
0.70719
0.683789
0.655145
0.623252
0.589664
0.554766
0.518264
0.479861
0.439783
0.398599
0.356772
0.313698
0.257178
0.114163
0.425369
0.496601
0.583291
0.646824
0.700399
0.790193
0.946758
1.18527
1.40652
1.406
1.34337
1.29331
1.27153
1.28315
1.27598
1.20756
1.10016
0.977122
0.872104
0.812898
0.785971
0.77518
0.770514
0.765521
0.756884
0.744523
0.727876
0.705603
0.677161
0.644844
0.610623
0.574736
0.536524
0.495256
0.450984
0.404327
0.355703
0.306036
0.254473
0.10676
0.461755
0.502808
0.573873
0.642227
0.719991
0.837697
1.01462
1.26033
1.41722
1.3504
1.25839
1.19739
1.17803
1.1868
1.17875
1.13071
1.05698
0.965542
0.877406
0.824928
0.80125
0.792056
0.788204
0.783793
0.77611
0.765008
0.74992
0.729237
0.701292
0.66855
0.633824
0.597316
0.557837
0.513993
0.465589
0.413576
0.358457
0.300768
0.23974
0.100226
0.511978
0.537254
0.603167
0.679595
0.776559
0.919111
1.10958
1.30125
1.35206
1.25258
1.15649
1.10349
1.09244
1.10021
1.09394
1.06331
1.0165
0.952259
0.880982
0.836208
0.816471
0.809284
0.806446
0.802715
0.796011
0.786199
0.772826
0.753557
0.726629
0.694176
0.659145
0.622635
0.582757
0.536908
0.484379
0.427103
0.365901
0.299896
0.224987
0.0970793
0.581013
0.601961
0.671795
0.755724
0.86557
1.02811
1.19885
1.27316
1.23278
1.13545
1.05734
1.02089
1.01745
1.02444
1.02173
1.00613
0.980809
0.939458
0.884114
0.847162
0.831672
0.826717
0.825024
0.822009
0.816251
0.80767
0.795884
0.778021
0.75234
0.720647
0.685959
0.650419
0.611711
0.56494
0.507884
0.445188
0.37869
0.306946
0.225434
0.0983437
0.624474
0.66924
0.745052
0.830988
0.950944
1.09634
1.18248
1.16357
1.10096
1.02718
0.973978
0.952758
0.953339
0.959446
0.961163
0.958599
0.951307
0.92896
0.887287
0.858049
0.846884
0.844224
0.843684
0.841402
0.83649
0.828976
0.81845
0.802218
0.777834
0.746356
0.712587
0.679354
0.64435
0.59937
0.536329
0.467612
0.396519
0.320755
0.235
0.104617
0.615984
0.690614
0.77118
0.863222
0.968482
1.04787
1.06492
1.03317
0.987919
0.941024
0.908902
0.897368
0.898742
0.904156
0.910617
0.9192
0.926797
0.920452
0.89054
0.868946
0.862139
0.861725
0.862248
0.860644
0.856319
0.849351
0.839084
0.82383
0.801224
0.770027
0.737341
0.707008
0.677633
0.640606
0.56936
0.493954
0.418693
0.339212
0.248067
0.113641
0.606889
0.672928
0.748952
0.828881
0.898229
0.938924
0.943716
0.925915
0.900971
0.875128
0.857409
0.850776
0.851644
0.857216
0.86869
0.886821
0.906001
0.912034
0.893839
0.879983
0.877524
0.879268
0.880735
0.879668
0.875585
0.868393
0.857386
0.841891
0.820706
0.790917
0.759548
0.731486
0.705103
0.677093
0.605547
0.524069
0.445436
0.362665
0.265316
0.124696
0.612863
0.660621
0.717455
0.775386
0.822255
0.848744
0.853545
0.845247
0.833213
0.821463
0.812995
0.809284
0.810387
0.817707
0.834828
0.861612
0.889857
0.904551
0.8981
0.891648
0.893232
0.896998
0.899319
0.898612
0.894447
0.886636
0.874885
0.858631
0.836863
0.808709
0.779292
0.753507
0.724715
0.691991
0.640738
0.558044
0.478161
0.393931
0.290471
0.138277
0.628082
0.663836
0.704304
0.744022
0.774572
0.790089
0.790725
0.783465
0.77642
0.77219
0.770069
0.770386
0.774294
0.7855
0.809143
0.844035
0.880007
0.901138
0.904413
0.904318
0.909462
0.915074
0.918167
0.917647
0.91316
0.904629
0.892037
0.874924
0.852351
0.824668
0.796773
0.775633
0.742184
0.69459
0.656488
0.596955
0.519153
0.438171
0.329568
0.15472
0.643878
0.672416
0.702156
0.728791
0.746793
0.752467
0.746337
0.734929
0.72616
0.721526
0.723932
0.732393
0.743675
0.760994
0.791411
0.833601
0.876494
0.903214
0.913067
0.918092
0.92634
0.933636
0.937417
0.93691
0.931901
0.922559
0.909102
0.891307
0.868082
0.839494
0.81094
0.785037
0.746654
0.697721
0.666167
0.628192
0.568288
0.497085
0.38747
0.173144
0.651851
0.677896
0.700207
0.718391
0.728019
0.726398
0.71361
0.695894
0.681292
0.673941
0.679541
0.695925
0.717619
0.743716
0.780764
0.828782
0.877099
0.910142
0.923027
0.932825
0.944007
0.952885
0.957283
0.956566
0.950772
0.94042
0.926055
0.908066
0.885003
0.854175
0.819614
0.78202
0.740238
0.695105
0.664292
0.636107
0.583006
0.514896
0.44481
0.190417
0.651129
0.676451
0.695256
0.707408
0.711913
0.70584
0.688216
0.663793
0.64412
0.638517
0.647609
0.668398
0.697395
0.732966
0.776614
0.828619
0.880113
0.916781
0.933225
0.948771
0.962808
0.97313
0.978057
0.976848
0.969874
0.958135
0.942592
0.92432
0.899074
0.864701
0.823026
0.77905
0.734201
0.689743
0.653881
0.620142
0.574902
0.526847
0.435751
0.198484
0.650898
0.671121
0.687243
0.696263
0.697238
0.688445
0.668354
0.641065
0.621009
0.618231
0.630572
0.65488
0.688538
0.73033
0.779585
0.834649
0.886683
0.925482
0.947429
0.967119
0.98327
0.994636
1.00003
0.998115
0.989365
0.975737
0.958337
0.936598
0.903855
0.865015
0.820714
0.77411
0.728022
0.684725
0.648761
0.619787
0.5979
0.561157
0.432404
0.20336
0.653387
0.668224
0.678836
0.684813
0.68398
0.674543
0.655997
0.631337
0.614413
0.613957
0.628548
0.655465
0.692318
0.73776
0.790813
0.848558
0.901387
0.942117
0.966716
0.988496
1.00576
1.01763
1.0234
1.0206
1.00941
0.993467
0.972592
0.941931
0.902312
0.859367
0.813682
0.766915
0.721817
0.681392
0.650129
0.632546
0.632404
0.604036
0.440602
0.207357
0.659989
0.670192
0.675917
0.67752
0.674074
0.665915
0.653826
0.636686
0.624364
0.625731
0.641557
0.669853
0.70845
0.755866
0.811081
0.870473
0.924589
0.965847
0.990455
1.01289
1.03044
1.0423
1.0481
1.04371
1.02962
1.00963
0.98092
0.941952
0.89717
0.851084
0.80452
0.758652
0.715719
0.678742
0.652268
0.642133
0.649855
0.621308
0.443561
0.208369
0.660492
0.677958
0.680359
0.679936
0.674742
0.6678
0.661791
0.654487
0.648808
0.652444
0.668856
0.697497
0.736635
0.784877
0.840712
0.900112
0.955495
0.992335
1.01742
1.04012
1.05752
1.06879
1.07327
1.06722
1.04936
1.02163
0.983844
0.93826
0.889508
0.841203
0.794402
0.74998
0.70957
0.675633
0.651851
0.642773
0.647091
0.609004
0.442381
0.21061
0.653328
0.679274
0.692886
0.69383
0.687591
0.683179
0.680723
0.680261
0.682036
0.690117
0.708143
0.736996
0.776072
0.824126
0.879127
0.937149
0.987914
1.01896
1.047
1.07028
1.08736
1.09761
1.09919
1.08914
1.06567
1.0291
0.982798
0.931313
0.87947
0.82998
0.783661
0.741084
0.703279
0.671924
0.649483
0.638554
0.635667
0.592143
0.448922
0.218055
0.650125
0.673316
0.69546
0.707133
0.71107
0.712013
0.711525
0.71368
0.721251
0.734389
0.755378
0.78536
0.824493
0.871994
0.926806
0.978298
1.01833
1.05115
1.08064
1.10426
1.12068
1.12874
1.12525
1.10796
1.07616
1.03061
0.976948
0.920889
0.867162
0.817521
0.772412
0.732043
0.696907
0.668004
0.646897
0.635098
0.628361
0.593498
0.468581
0.230366
0.65163
0.673144
0.693367
0.710731
0.726729
0.735445
0.743307
0.754188
0.767769
0.784935
0.808521
0.840008
0.879911
0.926825
0.975767
1.01716
1.05354
1.0886
1.11936
1.1434
1.15886
1.16172
1.14811
1.12051
1.07855
1.02492
0.965794
0.907105
0.852866
0.804086
0.760828
0.722942
0.690475
0.663864
0.643994
0.631914
0.624678
0.602082
0.469235
0.230081
0.656533
0.677553
0.698456
0.717702
0.73542
0.751095
0.768015
0.787836
0.807007
0.829044
0.85633
0.890078
0.930721
0.975326
1.01552
1.05545
1.09489
1.13211
1.16455
1.18904
1.20112
1.19212
1.16435
1.12337
1.07148
1.01183
0.949693
0.890502
0.837107
0.790061
0.749125
0.713854
0.683917
0.659191
0.639829
0.625736
0.614358
0.593376
0.45257
0.22213
0.664031
0.684535
0.706889
0.728637
0.749624
0.769998
0.791072
0.813806
0.838423
0.865971
0.897386
0.933274
0.973451
1.01621
1.05884
1.10118
1.1429
1.1828
1.21806
1.24053
1.2377
1.21101
1.16786
1.11392
1.05463
0.992064
0.929673
0.871852
0.820462
0.77581
0.737471
0.704804
0.677195
0.654028
0.634615
0.617506
0.599238
0.568161
0.433238
0.214387
0.664035
0.691256
0.716882
0.74092
0.765149
0.789991
0.815437
0.842595
0.872117
0.904572
0.940277
0.979325
1.02127
1.06502
1.10915
1.15323
1.19743
1.24132
1.27495
1.27852
1.25443
1.21171
1.15575
1.09355
1.03001
0.96718
0.907044
0.851964
0.803421
0.761575
0.725917
0.695727
0.670249
0.648578
0.629381
0.610272
0.58692
0.546892
0.422237
0.208068
0.652134
0.687193
0.719946
0.752043
0.780495
0.809531
0.839646
0.871696
0.906279
0.944052
0.98486
1.02819
1.07328
1.11913
1.165
1.2108
1.25683
1.29795
1.30487
1.28531
1.24556
1.19219
1.13028
1.06492
1.00044
0.939495
0.882877
0.831505
0.786332
0.747468
0.714403
0.686444
0.662843
0.642636
0.624123
0.604399
0.577609
0.529051
0.416592
0.19987
0.634053
0.675232
0.71375
0.751302
0.788252
0.825473
0.863137
0.900618
0.940017
0.983504
1.03045
1.07988
1.13002
1.17802
1.22252
1.26399
1.29767
1.30559
1.29292
1.26091
1.21395
1.15711
1.095
1.03083
0.968457
0.910655
0.858244
0.811059
0.769459
0.733536
0.702831
0.676744
0.65463
0.635589
0.617852
0.597736
0.567743
0.511745
0.406587
0.193853
0.618236
0.662909
0.706632
0.748712
0.78903
0.830355
0.873588
0.917709
0.963647
1.01253
1.06342
1.11523
1.1651
1.20838
1.24451
1.27067
1.27783
1.27082
1.25053
1.21569
1.16857
1.11386
1.05462
0.993997
0.935703
0.882162
0.834155
0.791143
0.753055
0.719874
0.69121
0.666585
0.645508
0.627211
0.609936
0.589365
0.55672
0.496284
0.39638
0.194738
0.608295
0.654714
0.701292
0.747189
0.792175
0.837145
0.882566
0.928727
0.976623
1.02585
1.0752
1.12309
1.1665
1.2009
1.22257
1.23178
1.22963
1.21863
1.19717
1.16328
1.11905
1.0681
1.01315
0.957249
0.903829
0.855026
0.811304
0.77222
0.737424
0.706728
0.679803
0.656313
0.635967
0.618247
0.601571
0.58119
0.546759
0.483436
0.380303
0.188956
0.604218
0.651771
0.700258
0.748797
0.796879
0.844514
0.891593
0.938136
0.984444
1.02995
1.07306
1.1121
1.14492
1.16825
1.18019
1.18219
1.17641
1.16369
1.14222
1.11041
1.06966
1.02283
0.972659
0.92196
0.87364
0.829553
0.790069
0.754717
0.722974
0.69455
0.669172
0.646656
0.626963
0.609997
0.594791
0.577077
0.543725
0.475881
0.365066
0.181714
)
;

boundaryField
{
    leftWall
    {
        type            kqRWallFunction;
        value           nonuniform 0();
    }
    rightWall
    {
        type            kqRWallFunction;
        value           nonuniform List<scalar> 
43
(
0.0236765
0.0347906
0.0391854
0.0424613
0.0474206
0.0527988
0.0575552
0.0614366
0.0666922
0.0726968
0.0786285
0.0847962
0.0917302
0.100473
0.112543
0.114163
0.10676
0.100226
0.0970793
0.0983437
0.104617
0.113641
0.124696
0.138277
0.15472
0.173144
0.190417
0.198484
0.20336
0.207357
0.208369
0.21061
0.218055
0.230366
0.230081
0.22213
0.214387
0.208068
0.19987
0.193853
0.194738
0.188956
0.181714
)
;
    }
    lowerWall
    {
        type            kqRWallFunction;
        value           nonuniform List<scalar> 
66
(
0.0094323
0.00510097
0.00510097
0.00967903
0.0133748
0.0169692
0.0207223
0.0250028
0.0305058
0.0386681
0.0529242
0.0827729
0.0956624
0.0810211
0.0687524
0.0846798
0.0997629
0.281112
0.389558
0.457619
0.495679
0.507761
0.500309
0.479723
0.450694
0.422846
0.0997629
0.17179
0.208966
0.226324
0.235704
0.23826
0.235112
0.228068
0.219367
0.21124
0.205477
0.202991
0.203831
0.207518
0.213493
0.221142
0.228741
0.235544
0.24076
0.243547
0.243214
0.239377
0.232141
0.222288
0.211153
0.200042
0.189667
0.180051
0.1708
0.161426
0.151593
0.14115
0.130043
0.118233
0.105604
0.0913096
0.0761933
0.0584134
0.039624
0.0236765
)
;
    }
    atmosphere
    {
        type            inletOutlet;
        inletValue      nonuniform 0();
        value           nonuniform 0();
    }
    defaultFaces
    {
        type            empty;
    }
    procBoundary1to0
    {
        type            processor;
        value           nonuniform List<scalar> 
44
(
0.0126181
0.0277737
0.0381723
0.0477817
0.0575019
0.0679147
0.0796147
0.0932012
0.109097
0.127105
0.146047
0.164389
0.181763
0.198663
0.215821
0.233894
0.253267
0.273937
0.29535
0.316623
0.35148
0.35148
0.374059
0.396234
0.417617
0.437461
0.455322
0.471279
0.485158
0.497699
0.509703
0.521557
0.534734
0.541647
0.528764
0.504584
0.476955
0.450924
0.428979
0.412031
0.399983
0.392316
0.388407
0.387637
)
;
    }
    procBoundary1to3
    {
        type            processor;
        value           nonuniform List<scalar> 
45
(
0.419275
0.451136
0.484947
0.521495
0.56066
0.604588
0.652895
0.702665
0.752943
0.802908
0.851924
0.899384
0.944829
0.988018
1.02788
1.0631
1.09305
1.11635
1.13098
1.13644
1.13411
1.12549
1.11084
1.08887
1.05862
1.02098
0.978341
0.933258
0.888179
0.845335
0.806158
0.770911
0.739113
0.710244
0.683976
0.660079
0.6385
0.61946
0.603405
0.590395
0.577234
0.546473
0.471322
0.352551
0.177449
)
;
    }
}


// ************************************************************************* //
