/*--------------------------------*- C++ -*----------------------------------*\
| =========                 |                                                 |
| \\      /  F ield         | OpenFOAM: The Open Source CFD Toolbox           |
|  \\    /   O peration     | Version:  5.0                                   |
|   \\  /    A nd           | Web:      www.OpenFOAM.org                      |
|    \\/     M anipulation  |                                                 |
\*---------------------------------------------------------------------------*/
FoamFile
{
    version     2.0;
    format      ascii;
    class       volScalarField;
    location    "0.8";
    object      nut;
}
// * * * * * * * * * * * * * * * * * * * * * * * * * * * * * * * * * * * * * //

dimensions      [0 2 -1 0 0 0 0];

internalField   nonuniform List<scalar> 
1915
(
5.21121e-05
3.79634e-05
0.000304582
6.95245e-05
0.000476609
8.19477e-05
0.000618863
9.2511e-05
0.000745792
0.000102472
0.000862754
0.000112869
0.000977217
0.000125059
0.00110232
0.000141222
0.00126347
0.000165597
0.00153337
0.000207401
0.000169887
0.000211682
0.000236944
0.000248233
0.000255144
0.000258398
0.000258492
0.000256192
0.000252463
0.000248526
0.000245661
0.000244615
0.000245416
0.00024775
0.000251359
0.000255449
0.000259118
0.000262158
0.000264113
0.000264568
0.000263212
0.000259894
0.000254779
0.0002485
0.000241985
0.000235926
0.000230473
0.000225346
0.000220119
0.000214413
0.000208018
0.000200838
0.000192794
0.00018377
0.0001735
0.000161245
0.000147116
0.000128649
0.000106161
9.55109e-05
0.000380824
0.00104964
0.00124993
0.00143123
0.00162217
0.00179239
0.00191882
0.00199311
0.00201411
0.00199069
0.00194599
0.00190424
0.00188084
0.00188256
0.00190688
0.00193844
0.00198637
0.00204707
0.00211168
0.00217005
0.00221272
0.00223247
0.00222616
0.0021975
0.00215664
0.00211397
0.00207456
0.00203736
0.00199784
0.00195075
0.0018925
0.00182092
0.00173416
0.00163006
0.00150569
0.00135711
0.00116632
0.000926408
0.000576081
0.000139397
0.000452386
0.0016866
0.0021276
0.00249136
0.00280285
0.00303838
0.00320277
0.00330883
0.00336805
0.00339927
0.00343196
0.00348889
0.00357199
0.00366422
0.00374869
0.00382329
0.00390731
0.00400655
0.00411368
0.00421337
0.0042885
0.00432471
0.00431427
0.0042614
0.00418243
0.00409516
0.00400885
0.00392222
0.00382771
0.00371613
0.00358102
0.00341809
0.00322329
0.00299214
0.0027194
0.00239786
0.00201338
0.00154297
0.000929257
0.00014855
0.000492023
0.00214029
0.00277547
0.00320996
0.00353466
0.00377436
0.00395451
0.00408528
0.00416272
0.00419579
0.00422575
0.00430787
0.00448618
0.00474846
0.00502619
0.0052552
0.00542755
0.00556753
0.00569411
0.0058065
0.00589106
0.00593159
0.00591701
0.0058496
0.00574644
0.00562712
0.00550242
0.00537124
0.0052253
0.00505419
0.00485067
0.00460914
0.00432348
0.00398663
0.00359078
0.00312646
0.00257958
0.00192832
0.00112557
0.000154081
0.000514491
0.00241336
0.00318652
0.00366103
0.00399837
0.00425706
0.00447779
0.00467335
0.0048112
0.0048681
0.00485982
0.00485058
0.00494294
0.00521079
0.005644
0.00611181
0.00647946
0.00672199
0.00688424
0.00700308
0.0070862
0.00712475
0.00710739
0.00703334
0.00691683
0.00677589
0.00662189
0.00645427
0.00626518
0.00604465
0.00578586
0.00548244
0.00512635
0.00470803
0.00421709
0.00364186
0.0029681
0.00217734
0.00123322
0.000162558
0.000523177
0.00253425
0.00340836
0.00392277
0.0042759
0.00455314
0.00480502
0.00507985
0.00534796
0.00553967
0.00555757
0.00548312
0.00542693
0.00550307
0.00585739
0.00646451
0.00707876
0.00750631
0.00775063
0.00788928
0.00797027
0.00800459
0.00798636
0.00791129
0.00778848
0.00763336
0.00745725
0.00726066
0.00703672
0.00677702
0.0064757
0.00612578
0.00571769
0.00523971
0.00467925
0.00402252
0.00325417
0.00236018
0.00132166
0.000171514
0.000521573
0.00255234
0.00349808
0.00402721
0.00436411
0.00464327
0.00488284
0.00516624
0.00549635
0.00583009
0.0061056
0.00621178
0.00614106
0.00599506
0.00606319
0.00656083
0.00732956
0.00797843
0.00835407
0.00853586
0.00862058
0.00865069
0.00863244
0.00855902
0.00843408
0.00827123
0.0080801
0.00786115
0.00760936
0.00731982
0.00698721
0.00660395
0.0061594
0.00564033
0.00503241
0.00431977
0.00348389
0.00250806
0.00138621
0.000179269
0.000512606
0.00250981
0.00350864
0.00403105
0.00434381
0.00457461
0.00476319
0.00501396
0.00531171
0.00564495
0.00609557
0.00650707
0.00675432
0.00672843
0.00652247
0.00668838
0.00741255
0.00823042
0.008757
0.00900116
0.00909697
0.00912409
0.00910473
0.00903321
0.00890859
0.00874304
0.00854439
0.00830924
0.0080362
0.00772502
0.00737025
0.00696386
0.00649492
0.0059494
0.00531173
0.00456406
0.00368321
0.00264251
0.00142626
0.000185278
0.000497659
0.00242219
0.00346432
0.00398295
0.00425535
0.00443213
0.00462309
0.00488472
0.00516707
0.00546303
0.00583753
0.00628522
0.00677341
0.00719798
0.00715785
0.0070055
0.00751044
0.00837794
0.00902737
0.00933632
0.00944653
0.00947127
0.0094496
0.00938063
0.00925877
0.00909329
0.00888989
0.00864454
0.00835869
0.008033
0.00766255
0.00723987
0.00675462
0.00619286
0.00553845
0.00477194
0.00386546
0.00278181
0.00149202
0.000192826
0.000482018
0.00224512
0.00334194
0.003869
0.00409983
0.004255
0.00451391
0.00485088
0.00516781
0.00544153
0.00573021
0.0061218
0.00662565
0.00720789
0.00759435
0.00746756
0.00771784
0.00852166
0.00923065
0.00958636
0.00970762
0.0097294
0.00970538
0.00963888
0.00952114
0.00935749
0.00915094
0.00890151
0.00860984
0.00827495
0.00789304
0.00745771
0.00696011
0.00638799
0.00572515
0.00495104
0.00403389
0.0029258
0.00158033
0.000201732
0.00228323
0.00115984
0.00294369
0.00217752
0.00339881
0.00282765
0.00367601
0.00317888
0.0038416
0.00337567
0.00394892
0.00351105
0.00403237
0.00362394
0.00411466
0.00373133
0.00420519
0.00384298
0.0043098
0.00397069
0.00411397
0.00427332
0.00445489
0.00466687
0.00491471
0.00520226
0.00553291
0.0059131
0.00634166
0.0068172
0.00732529
0.00784459
0.00834151
0.00876865
0.00908186
0.00932957
0.00954809
0.00976233
0.00997981
0.0101886
0.010371
0.0105146
0.0106175
0.000171761
0.0001574
0.000144302
0.000158389
0.00139382
0.00117847
0.000903441
0.000573068
0.00229241
0.00188505
0.00137996
0.000875768
0.00271444
0.00226575
0.0017501
0.00115663
0.002951
0.00254642
0.00213217
0.0014641
0.00314025
0.00283604
0.00256674
0.00188238
0.00332752
0.00315832
0.00292719
0.00243089
0.00348856
0.00335617
0.00313451
0.00278018
0.00363371
0.00348621
0.00336468
0.00310622
0.00378335
0.00365137
0.00356831
0.00346542
0.0039387
0.00383203
0.00377304
0.00373058
0.00410247
0.00400946
0.00396254
0.00393733
0.00427884
0.00418766
0.00414638
0.0041257
0.00447637
0.00437769
0.00433534
0.00431472
0.00470418
0.00458855
0.00453507
0.00450695
0.00496513
0.00482539
0.00474429
0.00470072
0.00525733
0.00509206
0.00497061
0.00489595
0.00558602
0.00539148
0.00523376
0.00511978
0.00596801
0.00572432
0.00554296
0.00539494
0.00641289
0.00611032
0.00590104
0.00573051
0.00691506
0.00657351
0.00630947
0.00611615
0.00745831
0.00710567
0.00680563
0.00657325
0.00801289
0.00768194
0.00737731
0.00712125
0.00853736
0.00826311
0.00798726
0.00773964
0.00897837
0.00880144
0.0085874
0.00837956
0.00930389
0.00924669
0.00912755
0.00898668
0.00955866
0.0095692
0.00956127
0.00950993
0.00977853
0.00982014
0.0098708
0.009909
0.00999171
0.0100399
0.0101146
0.0102026
0.0101982
0.0102462
0.0103275
0.0104337
0.0103836
0.0104329
0.0105167
0.0106298
0.0105346
0.0105886
0.0106762
0.0107943
0.0106472
0.0107084
0.0108019
0.0109255
0.000531915
0.00206121
0.00315559
0.00368832
0.00389759
0.00405975
0.00439754
0.00484714
0.00525662
0.00555089
0.00579231
0.00610104
0.00655897
0.00713572
0.00773225
0.00787435
0.00804806
0.00871952
0.00941781
0.00978909
0.00991243
0.00992934
0.00990281
0.00983808
0.00972472
0.00956458
0.00935976
0.0091111
0.00881708
0.00847623
0.00808543
0.00763882
0.00712907
0.00654756
0.00588029
0.00510504
0.00418713
0.00306774
0.00167204
0.000210281
0.000590707
0.00190291
0.00294033
0.0034695
0.00367294
0.00387527
0.00429863
0.00484587
0.00534683
0.00571691
0.00596579
0.00620154
0.00657173
0.00708204
0.00773315
0.00815629
0.0084324
0.00898448
0.00961684
0.00997004
0.0100839
0.0100932
0.0100633
0.0100004
0.00989226
0.00973825
0.00953964
0.00929458
0.00900031
0.00865561
0.00825745
0.00779996
0.00727614
0.0066801
0.00600495
0.0052313
0.0043199
0.00320269
0.00176734
0.000219104
0.000663689
0.0017815
0.00272498
0.00323776
0.00345404
0.00371926
0.00423455
0.00486752
0.00545301
0.00590539
0.00619189
0.00638169
0.00665178
0.00707938
0.00772729
0.00835246
0.0087939
0.00929533
0.00983367
0.0101425
0.0102367
0.0102363
0.010203
0.0101424
0.0100413
0.00989615
0.00970598
0.00946614
0.00917321
0.00882602
0.00842136
0.00795293
0.00741305
0.00679558
0.00609814
0.00531569
0.00441759
0.00331992
0.00187117
0.000228883
0.000757527
0.00170198
0.00253206
0.00301437
0.00326527
0.00361614
0.0042266
0.00492919
0.00558418
0.00610922
0.00643565
0.00660624
0.00678703
0.00713474
0.00777768
0.00851985
0.0091183
0.00962075
0.0100608
0.0103115
0.0103804
0.0103703
0.010335
0.0102777
0.0101853
0.0100507
0.00987006
0.00963658
0.00934613
0.00899736
0.00858661
0.00810673
0.00754882
0.00690497
0.00617152
0.00535136
0.00444684
0.0033875
0.00197135
0.000241541
0.00089243
0.00166676
0.00237575
0.00282367
0.0031306
0.00359614
0.00428922
0.00503919
0.00573811
0.00629151
0.00663537
0.00680701
0.00693634
0.00724746
0.00789028
0.00869792
0.00941527
0.00993409
0.0102859
0.0104759
0.0105198
0.0105023
0.0104676
0.0104157
0.0103326
0.0102092
0.010039
0.00981278
0.00952581
0.0091763
0.00875977
0.00826785
0.00768992
0.00701577
0.00623888
0.00536042
0.00439329
0.00333972
0.00197184
0.000255761
0.00111747
0.00168336
0.00226757
0.00269721
0.00309973
0.00368539
0.00442538
0.00518932
0.00590526
0.00643796
0.00674367
0.00690383
0.00704481
0.00738529
0.00804463
0.00889574
0.00968617
0.0102132
0.0104964
0.0106324
0.0106561
0.0106357
0.010605
0.0105606
0.0104874
0.0103758
0.0102166
0.00999883
0.00971636
0.00936702
0.00894532
0.00844125
0.007842
0.00713467
0.00630959
0.00536391
0.0043091
0.00317271
0.00190262
0.000251507
0.00148999
0.00179192
0.00226295
0.00270856
0.00322383
0.00388797
0.0046271
0.00537548
0.00606087
0.00651188
0.00676179
0.00691952
0.00711995
0.00752932
0.00822323
0.00910612
0.00992868
0.0104468
0.0106815
0.0107772
0.0107893
0.0107714
0.0107481
0.0107129
0.0106506
0.0105515
0.0104044
0.0101969
0.00992022
0.00957192
0.00914613
0.00863071
0.00801021
0.00726889
0.00639432
0.00537993
0.0042352
0.00300812
0.00178552
0.0002404
0.00198928
0.00206276
0.00244825
0.00292536
0.00350808
0.00418005
0.00487534
0.00557163
0.00614809
0.00648596
0.00669731
0.0068931
0.00718589
0.00767929
0.00841748
0.00931863
0.0101393
0.0106373
0.0108378
0.0109093
0.0109191
0.0109094
0.0108964
0.0108719
0.0108217
0.0107356
0.0106019
0.0104069
0.0101379
0.00979188
0.00936369
0.00883896
0.00819893
0.00742499
0.00650325
0.00542493
0.00419955
0.00288425
0.00160433
0.000231685
0.00257426
0.002535
0.0028582
0.00333375
0.00390367
0.00452197
0.00514662
0.00571845
0.00612229
0.00637196
0.00659266
0.0068659
0.00726251
0.00783908
0.00862116
0.00952462
0.0103178
0.0107887
0.0109682
0.01103
0.0110463
0.0110493
0.0110491
0.0110363
0.0109987
0.0109258
0.0108063
0.010624
0.0103656
0.0100257
0.00959776
0.00906731
0.00841139
0.00760767
0.00664279
0.00550764
0.00421292
0.00281632
0.0014488
0.000229115
0.00317192
0.00313179
0.00341323
0.00383866
0.0043341
0.00487443
0.00539117
0.00576136
0.00599257
0.00622084
0.0065004
0.00686845
0.00736046
0.00800894
0.00882525
0.00971482
0.0104649
0.0109072
0.0110778
0.0111419
0.0111717
0.0111909
0.0112049
0.0112044
0.0111789
0.0111189
0.0110132
0.0108443
0.0105981
0.0102678
0.00984474
0.00931415
0.00864895
0.00781966
0.00681526
0.00562987
0.0042779
0.00282412
0.00141468
0.000232582
0.00366555
0.00368416
0.00393676
0.00428816
0.00470093
0.00513111
0.00546998
0.00565268
0.00583163
0.00610226
0.00645954
0.00691284
0.00747978
0.00818296
0.00901824
0.00988069
0.0105835
0.0110002
0.0111716
0.0112481
0.0112965
0.0113338
0.0113624
0.0113739
0.0113598
0.0113115
0.0112184
0.0110633
0.0108297
0.0105088
0.0100951
0.00957199
0.00890881
0.00806345
0.00701999
0.00578875
0.00438821
0.00288959
0.00144487
0.000242228
0.00394927
0.00404623
0.00426855
0.00456272
0.00488249
0.0051542
0.00533865
0.00549179
0.00571756
0.00605142
0.00647617
0.00699191
0.00761166
0.0083515
0.00919029
0.0100171
0.0106747
0.0110743
0.0112555
0.0113519
0.0114219
0.0114779
0.0115206
0.011543
0.0115383
0.0114991
0.0114147
0.0112705
0.01105
0.010739
0.0103366
0.00982613
0.00917617
0.00833782
0.00725305
0.00597877
0.00453258
0.00298539
0.00148843
0.000254495
0.0041415
0.00422992
0.00440885
0.00463298
0.00484885
0.00502898
0.0051891
0.00538463
0.00566964
0.00605684
0.00652972
0.00708805
0.00774457
0.00850708
0.00933853
0.0101274
0.0107456
0.011136
0.0113354
0.0114563
0.0115494
0.0116236
0.0116789
0.0117105
0.0117127
0.0116786
0.0115982
0.01146
0.0112506
0.0109511
0.0105595
0.0100595
0.00941868
0.00859763
0.00750261
0.00619163
0.00470153
0.00310232
0.00154483
0.000269417
0.00431917
0.00437143
0.00448575
0.00463694
0.00479208
0.00494246
0.00511035
0.00533774
0.00566115
0.00608495
0.00659285
0.007185
0.00787133
0.00864908
0.00946868
0.0102233
0.01081
0.0111955
0.0114179
0.0115645
0.0116804
0.0117714
0.0118377
0.0118763
0.0118827
0.0118509
0.0117725
0.0116367
0.0114307
0.0111405
0.0107584
0.0102646
0.00961327
0.00878222
0.0077411
0.00640946
0.00488149
0.00323783
0.00162886
0.000287577
0.00449936
0.00452374
0.00458976
0.00468741
0.0048002
0.00492657
0.00508755
0.00532025
0.005658
0.00610474
0.00664556
0.00727531
0.00799336
0.00878442
0.00959157
0.010314
0.0108783
0.0112647
0.0115095
0.0116805
0.0118168
0.0119222
0.0119973
0.0120406
0.0120488
0.0120172
0.0119385
0.0118026
0.0115972
0.0113104
0.0109322
0.0104461
0.00977325
0.00891178
0.00789744
0.00660969
0.0050547
0.00339476
0.00176496
0.000308373
0.00468069
0.00468136
0.00471271
0.00477049
0.00484784
0.00494741
0.00508836
0.005307
0.00563987
0.00609802
0.00667863
0.0073616
0.00811988
0.00892459
0.00971166
0.0104067
0.0109588
0.0113507
0.0116143
0.0118067
0.01196
0.0120769
0.0121581
0.0122036
0.0122114
0.0121781
0.0120974
0.01196
0.0117529
0.0114626
0.0110775
0.0105675
0.00987763
0.00900515
0.00798282
0.00671944
0.0051962
0.00357196
0.00197516
0.000329112
0.00485881
0.00483844
0.00483884
0.00486343
0.00490955
0.00498131
0.00509556
0.00529014
0.00561025
0.00608472
0.00671268
0.00745416
0.00825831
0.00907046
0.0098356
0.0105093
0.0110553
0.0114577
0.0117336
0.011944
0.0121108
0.0122358
0.0123205
0.0123656
0.0123707
0.0123337
0.0122497
0.0121103
0.0119018
0.0116015
0.0111923
0.0106473
0.00994918
0.00907171
0.00801421
0.00673358
0.00520565
0.00364464
0.00222271
0.000344483
0.00504685
0.00500155
0.00497478
0.00496724
0.00498392
0.00502831
0.00511564
0.00528601
0.00560387
0.0061113
0.00678691
0.00757566
0.00840994
0.00922438
0.00997314
0.0106295
0.0111708
0.0115805
0.011867
0.0120935
0.0122698
0.0123995
0.0124848
0.0125269
0.0125267
0.0124836
0.012394
0.0122506
0.0120323
0.0117193
0.0112908
0.0107346
0.0100347
0.0091659
0.00811501
0.00687688
0.00549014
0.00407959
0.00243676
0.000339891
0.0052817
0.0051975
0.00514053
0.00510441
0.00509262
0.00511207
0.00518033
0.0053422
0.00567538
0.00621515
0.00692635
0.00774153
0.00858607
0.00939745
0.0101342
0.0107765
0.0113089
0.0117205
0.0120199
0.0122566
0.0124377
0.0125682
0.0126515
0.012688
0.0126795
0.0126277
0.0125288
0.0123713
0.0121292
0.0118027
0.0113715
0.01082
0.0101342
0.00929521
0.00829467
0.00715253
0.00593403
0.00456765
0.00266286
0.000343015
0.00558251
0.00545954
0.00536575
0.00530156
0.00526737
0.0052723
0.00534184
0.00551635
0.00586601
0.00642328
0.00714953
0.00797138
0.0088116
0.00961054
0.0103327
0.0109615
0.0114825
0.0118924
0.0121959
0.0124349
0.0126147
0.0127416
0.0128203
0.0128491
0.0128295
0.0127666
0.0126526
0.0124684
0.0122089
0.0118712
0.0114415
0.0109036
0.0102417
0.00943929
0.00848975
0.00741854
0.00628275
0.00490356
0.00277131
0.000345892
0.00595865
0.00580852
0.00568498
0.00559634
0.00554634
0.00555347
0.00564537
0.0058469
0.0062134
0.00677272
0.00749036
0.00829438
0.00911035
0.00988322
0.0105825
0.0111925
0.0116987
0.0120999
0.0123958
0.0126281
0.0128002
0.0129189
0.0129898
0.0130081
0.0129749
0.0128955
0.012757
0.0125517
0.0122781
0.0119344
0.0115098
0.0109885
0.010352
0.00958003
0.00865937
0.00760598
0.00646084
0.00503522
0.00275367
0.000345427
0.00639978
0.00625062
0.00611502
0.00601994
0.00596873
0.0059914
0.00611264
0.00634981
0.00673466
0.00728321
0.00796839
0.00872867
0.00949803
0.010228
0.0108912
0.0114724
0.0119601
0.0123351
0.0126156
0.0128336
0.0129923
0.0130984
0.0131567
0.0131631
0.0131139
0.0130108
0.0128486
0.0126253
0.0123421
0.0119971
0.0115806
0.0110763
0.0104627
0.00971395
0.00880745
0.00774496
0.00654978
0.00502288
0.00265322
0.000352955
0.00691728
0.00676851
0.00665578
0.00657417
0.00653865
0.00659083
0.00674113
0.00700622
0.00740598
0.00793753
0.00857497
0.00927113
0.00997435
0.010644
0.0112554
0.011794
0.0122446
0.012582
0.0128471
0.0130471
0.0131889
0.0132793
0.0133205
0.0133086
0.0132395
0.013112
0.012928
0.0126914
0.0124036
0.0120615
0.0116551
0.0111672
0.0105739
0.00984543
0.00895286
0.00788674
0.00665128
0.00505139
0.00266455
0.000367398
0.00752853
0.00736402
0.00726667
0.00722276
0.00723124
0.00731968
0.00749678
0.00777917
0.00818167
0.00868612
0.00926779
0.00989105
0.0105176
0.011116
0.0116672
0.012145
0.0125374
0.0128464
0.0130878
0.013266
0.0133884
0.0134602
0.0134787
0.0134412
0.0133471
0.0131964
0.0129962
0.0127526
0.0124652
0.0121294
0.0117339
0.0112609
0.0106848
0.00997384
0.00909438
0.00803054
0.00678224
0.00520841
0.00290214
0.000382194
0.00819243
0.00803998
0.00794698
0.00792212
0.0079729
0.00809764
0.00831315
0.0086198
0.0090121
0.00947551
0.0099945
0.0105432
0.0110932
0.0116185
0.0120969
0.012505
0.0128435
0.01312
0.013334
0.0134892
0.0135914
0.0136383
0.0136236
0.0135554
0.0134348
0.0132659
0.0130571
0.0128129
0.0125301
0.0122024
0.0118172
0.0113558
0.0107917
0.0100911
0.00921618
0.0081553
0.00689444
0.00533638
0.00297948
0.000362489
0.00885126
0.00873583
0.00867156
0.00866855
0.00873458
0.00888156
0.00911785
0.00943142
0.00980159
0.0102241
0.0106855
0.0111654
0.0116431
0.0120965
0.0124974
0.0128503
0.013151
0.0133952
0.0135829
0.0137161
0.0137947
0.0138034
0.0137487
0.0136471
0.0135047
0.0133262
0.0131171
0.0128772
0.0126016
0.0122819
0.0119043
0.0114492
0.0108896
0.0101898
0.00931338
0.00824179
0.00695016
0.00537153
0.00297346
0.00035387
0.00945054
0.00938961
0.00936878
0.00939935
0.00948985
0.00964959
0.00988196
0.0101755
0.0105192
0.0109017
0.0113094
0.0117265
0.012137
0.0125255
0.0128772
0.0131872
0.013452
0.0136681
0.0138351
0.0139443
0.0139767
0.013937
0.0138453
0.0137173
0.0135632
0.013385
0.013182
0.0129497
0.0126819
0.012368
0.0119932
0.0115375
0.0109742
0.0102676
0.00938253
0.00829537
0.00697295
0.00534806
0.00295995
0.00035034
0.00993388
0.00995106
0.00998458
0.0100562
0.0101732
0.0103461
0.010575
0.0108525
0.0111688
0.0115134
0.0118747
0.0122399
0.0125961
0.0129317
0.0132371
0.0135083
0.0137422
0.0139368
0.0140765
0.0141321
0.0141088
0.0140307
0.0139148
0.0137761
0.0136207
0.0134497
0.013256
0.0130328
0.0127711
0.0124587
0.0120803
0.0116159
0.0110403
0.0103203
0.00942065
0.00831804
0.00697543
0.00531509
0.00294442
0.000341771
0.0102952
0.0103825
0.0104806
0.0106038
0.0107494
0.0109379
0.0111681
0.0114336
0.0117275
0.0120428
0.0123694
0.012696
0.0130112
0.0133048
0.0135712
0.013809
0.0140159
0.0141765
0.0142486
0.0142464
0.0141862
0.0140891
0.0139686
0.0138335
0.0136854
0.0135242
0.0133417
0.0131268
0.0128675
0.0125508
0.0121608
0.0116787
0.0110813
0.0103398
0.00941948
0.00829715
0.00693297
0.00523093
0.00289808
0.000334007
0.010562
0.0107013
0.0108486
0.0110147
0.0111997
0.0114126
0.0116524
0.011911
0.0121886
0.0124842
0.0127887
0.0130916
0.0133809
0.0136424
0.0138711
0.0140702
0.014228
0.014311
0.0143321
0.0142987
0.0142249
0.0141289
0.0140175
0.0138942
0.01376
0.0136116
0.0134397
0.0132298
0.0129678
0.0126397
0.01223
0.0117208
0.0110912
0.0103169
0.00937045
0.00822033
0.00682794
0.00508572
0.00279479
0.000332191
0.0107745
0.010944
0.011128
0.011324
0.0115299
0.0117583
0.0120078
0.0122706
0.0125454
0.0128305
0.0131179
0.0133987
0.0136598
0.0138841
0.0140692
0.0142155
0.014304
0.0143451
0.014346
0.0143096
0.0142448
0.0141626
0.0140686
0.0139638
0.0138471
0.0137125
0.0135482
0.0133386
0.0130681
0.0127221
0.0122851
0.0117403
0.0110691
0.0102512
0.00926614
0.00808861
0.00667304
0.00490979
0.0026762
0.000337123
0.0109481
0.011134
0.0113382
0.0115555
0.0117831
0.0120242
0.0122768
0.0125376
0.0128059
0.0130769
0.0133428
0.0135955
0.0138229
0.0140101
0.0141493
0.0142455
0.0143035
0.0143323
0.0143333
0.0143078
0.0142621
0.0142014
0.0141292
0.0140454
0.0139466
0.0138239
0.0136636
0.0134496
0.0131656
0.0127964
0.0123269
0.0117409
0.0110217
0.0101538
0.00912455
0.00791798
0.00649219
0.00474187
0.00255424
0.000321407
0.0110867
0.0112831
0.0115001
0.0117317
0.0119736
0.0122246
0.0124809
0.0127393
0.0129974
0.0132505
0.0134908
0.0137109
0.0139017
0.0140532
0.0141624
0.0142363
0.0142839
0.0143116
0.0143205
0.0143115
0.0142873
0.0142499
0.0142007
0.0141377
0.0140548
0.0139409
0.0137815
0.0135599
0.0132593
0.0128646
0.0123606
0.0117316
0.0109628
0.0100434
0.00897165
0.00774879
0.0063389
0.00462032
0.00246678
0.000317967
)
;

boundaryField
{
    leftWall
    {
        type            nutkWallFunction;
        Cmu             0.09;
        kappa           0.41;
        E               9.8;
        value           nonuniform 0();
    }
    rightWall
    {
        type            nutkWallFunction;
        Cmu             0.09;
        kappa           0.41;
        E               9.8;
        value           nonuniform List<scalar> 
43
(
1.36063e-05
1.62861e-05
1.72116e-05
1.78645e-05
1.88026e-05
1.97606e-05
2.05763e-05
2.12032e-05
2.20101e-05
2.29015e-05
2.37431e-05
2.4582e-05
2.54858e-05
2.6579e-05
2.80645e-05
2.83326e-05
2.73765e-05
2.66567e-05
2.4685e-05
2.64203e-05
2.70721e-05
2.81173e-05
2.9339e-05
3.0761e-05
3.24022e-05
3.43035e-05
3.75302e-05
3.6524e-05
3.67055e-05
3.70202e-05
3.71175e-05
3.75024e-05
4.24822e-05
4.23186e-05
4.18682e-05
4.10346e-05
3.79359e-05
3.71252e-05
3.64439e-05
3.62598e-05
3.80262e-05
3.73611e-05
3.49596e-05
)
;
    }
    lowerWall
    {
        type            nutkWallFunction;
        Cmu             0.09;
        kappa           0.41;
        E               9.8;
        value           nonuniform List<scalar> 
66
(
6.33933e-06
4.64035e-06
4.64035e-06
8.44506e-06
9.86611e-06
1.10504e-05
1.2146e-05
1.32684e-05
1.45646e-05
1.62677e-05
1.88184e-05
2.31325e-05
1.9424e-05
1.7986e-05
1.66659e-05
1.8358e-05
1.94854e-05
4.25367e-05
4.93505e-05
5.31035e-05
5.50704e-05
5.56773e-05
5.53039e-05
5.42562e-05
5.27362e-05
5.12267e-05
1.94854e-05
2.50264e-05
2.73807e-05
2.84009e-05
2.89342e-05
2.90775e-05
2.89009e-05
2.8501e-05
2.79974e-05
2.7517e-05
2.71701e-05
2.70189e-05
2.70701e-05
2.72936e-05
2.76512e-05
2.8101e-05
2.85394e-05
2.89252e-05
2.92169e-05
2.93713e-05
2.93529e-05
2.91399e-05
2.87331e-05
2.81676e-05
2.75118e-05
2.68381e-05
2.61902e-05
2.55721e-05
2.496e-05
2.43209e-05
2.3628e-05
2.28645e-05
2.20176e-05
2.10719e-05
2.00011e-05
1.86999e-05
1.71947e-05
1.51942e-05
1.26674e-05
9.92354e-06
)
;
    }
    atmosphere
    {
        type            calculated;
        value           nonuniform 0();
    }
    defaultFaces
    {
        type            empty;
    }
    procBoundary1to0
    {
        type            processor;
        value           nonuniform List<scalar> 
44
(
6.05391e-05
0.000485803
0.000837731
0.00111768
0.00136308
0.00159124
0.00181677
0.00205825
0.00234213
0.00270342
0.00318302
0.00362565
0.003963
0.00419379
0.00434453
0.00444739
0.00453262
0.00461788
0.00470897
0.00480682
0.0044342
0.0044342
0.00458591
0.00477234
0.00500005
0.00527373
0.00559342
0.0059583
0.00636697
0.00681157
0.00728142
0.00775512
0.00821124
0.00860841
0.00889851
0.00913175
0.00934699
0.00956242
0.00978693
0.0100125
0.0102214
0.0103969
0.0105294
0.0106198
)
;
    }
    procBoundary1to3
    {
        type            processor;
        value           nonuniform List<scalar> 
45
(
0.010687
0.0107271
0.0107968
0.0108973
0.0110273
0.0111953
0.0113999
0.0116262
0.0118678
0.0121193
0.0123765
0.0126345
0.0128888
0.0131359
0.0133707
0.0135866
0.0137783
0.0139399
0.0140661
0.014158
0.0142223
0.0142672
0.0142981
0.0143171
0.0143248
0.0143214
0.0143068
0.0142796
0.0142358
0.0141666
0.0140595
0.0138989
0.0136682
0.0133509
0.0129318
0.0123956
0.0117265
0.0109109
0.0099423
0.0088304
0.00759516
0.00619557
0.00447345
0.00234186
0.000310741
)
;
    }
}


// ************************************************************************* //
