/*--------------------------------*- C++ -*----------------------------------*\
| =========                 |                                                 |
| \\      /  F ield         | OpenFOAM: The Open Source CFD Toolbox           |
|  \\    /   O peration     | Version:  5.0                                   |
|   \\  /    A nd           | Web:      www.OpenFOAM.org                      |
|    \\/     M anipulation  |                                                 |
\*---------------------------------------------------------------------------*/
FoamFile
{
    version     2.0;
    format      ascii;
    class       volScalarField;
    location    "0.8";
    object      p;
}
// * * * * * * * * * * * * * * * * * * * * * * * * * * * * * * * * * * * * * //

dimensions      [1 -1 -2 0 0 0 0];

internalField   nonuniform List<scalar> 
1915
(
810.421
808.008
760.175
758.609
709.909
708.733
659.897
658.841
610.416
609.489
561.599
560.781
513.358
512.569
465.651
465.573
417.086
421.557
361.764
373.521
2354.46
2231.38
1996.45
1631.82
1241.37
906.947
668.954
526.647
448.856
404.496
380.937
372.679
374.831
387.406
415.095
463.855
543.941
652.025
781.531
921.785
1059.93
1184.13
1286.94
1368.22
1433.52
1488.84
1537.23
1578.59
1611.02
1632.25
1640.77
1636.01
1618.22
1588.5
1549.09
1499.09
1451.45
1412.71
1394.06
1401.1
2400.88
2240.18
1973.27
1546.87
1125.76
789.653
562.681
439.463
383.875
354.669
336.153
324.87
318.203
320.4
338.795
382.815
451.517
546.776
664.522
795.756
928.785
1052.15
1157.73
1244
1315.06
1375.54
1427.78
1471.73
1506.1
1529.21
1540.03
1538.22
1524.11
1498.86
1464.35
1422.47
1380.85
1347.13
1333.98
1348.98
2490.81
2146.69
1747.14
1295.99
907.723
607.957
409.209
322.983
303.911
292.251
278.816
270.915
262.711
259.525
269.988
301.855
358.068
440.277
545.713
666.903
793.373
913.962
1019.47
1107.7
1182.85
1248.76
1306.4
1354.71
1392.66
1418.96
1433.29
1435.73
1426.86
1407.98
1381.13
1349.07
1317.05
1291.46
1278.33
1289.54
2398.36
1854.2
1337.87
900.146
559.681
308.381
171.034
170.048
219.451
228.333
211.316
208.885
199.913
190.459
192.441
215.669
263.978
338.755
437.702
553.983
677.667
796.647
898.856
983.188
1057.76
1127.53
1191.8
1246.33
1289.49
1319.84
1338.01
1344.77
1340.95
1328.02
1308.24
1284.4
1261.05
1240.41
1226.05
1229.14
2052.04
1395.08
822.928
422.742
182.244
59.4021
31.3592
83.7723
180.508
189
150.27
151.678
137.583
117.088
108.397
123.605
167.857
241.028
339.387
455.972
581.993
704.188
802.41
876.773
944.307
1013.19
1083.77
1146.44
1196.54
1231.19
1252.8
1263.23
1263.55
1255.33
1241.05
1223.68
1206.61
1191.37
1175.19
1168.47
1555
883.307
353.349
124.491
34.194
-6.25846
-0.825583
72.8777
179.198
211.317
179.687
143.433
89.6816
52.8257
31.0388
31.6292
68.9569
143.836
247.232
368.345
500.136
632.686
734.671
800.07
858.688
919.488
986.097
1053.82
1110.85
1149.25
1173.29
1186.51
1190.02
1185.29
1175
1162.32
1149.87
1138.79
1124.85
1106.34
1076.32
457.4
79.2178
21.2726
3.1325
-8.23697
-8.50284
34.8086
101.073
192.042
208.764
145.388
74.8694
46.2302
20.2688
-11.2664
-12.2575
50.4935
160.089
288.7
426.04
565.794
678.428
745.583
802.168
860.427
916.327
978.01
1034.11
1073.16
1097.65
1112.59
1118.27
1115.76
1108.13
1098.87
1089.94
1082.15
1071.72
1056.03
726.777
181.741
5.97826
1.83791
0.413947
2.26301
11.1155
21.6673
27.998
97.7468
148.981
115.355
77.6915
52.2536
35.6187
17.1729
-17.3309
-10.3306
83.1957
217.348
356.304
492.675
610.814
685.733
744.077
806.019
867.263
922.733
968.527
1002.13
1024.84
1040.81
1047.79
1045.67
1038.98
1032.4
1026.91
1022.23
1015.9
1006.39
540.25
39.0887
-3.61562
-0.595475
0.945632
3.43461
9.01689
16.3083
19.3978
35.7104
65.0297
76.1817
60.5339
45.0087
37.7237
33.4558
19.1257
-7.73897
33.1563
157.334
294.495
424.411
537.752
614.891
671.523
734.494
808.091
867.532
904.701
931.065
953.235
971.134
980.111
976.633
967.257
961.379
958.962
957.347
951.96
941.44
466.481
17.0258
-4.00633
-1.59714
0.504066
1.88596
6.47056
14.531
23.0879
27.2495
26.0863
37.4938
43.0446
37.6207
34.8788
33.1429
29.9075
19.1155
21.3002
113.836
244.709
368.309
470.676
543.453
597.844
663.785
736.275
795.778
831.151
857.066
881.691
903.365
917.815
916.227
901.232
889.023
885.206
885.568
880.92
868.957
294.705
282.091
231.85
202.407
179.861
143.49
137.681
101.353
102.885
68.7165
73.5589
42.4026
48.8705
25.5742
29.9296
20.8579
18.9286
21.5261
16.5266
22.6916
22.9977
23.219
23.3691
23.3378
23.3172
19.2139
9.83805
-9.0418
-27.1313
-32.8347
-22.5529
-7.0851
-2.15054
-1.89068
-1.94941
-2.04999
-2.13218
-2.2057
-2.2793
-2.35156
-2.42081
-2.48778
-2.55338
257.569
197.171
162.127
141.148
165.369
115.127
83.9042
95.4923
100.699
58.6077
23.5951
23.4801
62.901
30.7415
-21.6103
-51.6031
38.1886
23.6126
-13.7784
-68.857
23.8921
22.4083
15.144
-18.2548
21.7611
22.0511
21.0029
14.742
22.0861
22.2078
22.0261
20.9789
22.7108
22.4661
22.2777
23.1582
22.9505
22.7495
22.7013
23.4001
23.0951
22.9909
23.001
23.3092
23.2611
23.1986
23.224
23.3691
23.4243
23.3869
23.4325
23.5475
23.5563
23.5537
23.6144
23.7416
23.6571
23.6992
23.7584
23.9027
23.6773
23.8303
23.8599
24.0431
23.3316
23.9222
23.9585
24.1284
20.2562
23.8964
24.1946
24.1769
5.49089
23.2729
24.3644
24.3301
-20.6667
14.2254
24.0775
24.5653
-35.9439
-14.3652
18.4932
23.9877
-29.7806
-37.7473
-12.8912
18.9372
-9.22844
-32.0811
-39.9557
-16.5435
-2.31321
-9.52436
-31.1728
-41.8492
-1.98725
-2.42037
-7.86641
-25.7653
-2.04856
-2.06313
-2.48307
-5.41032
-2.16204
-2.15366
-2.16081
-2.56291
-2.25203
-2.29167
-2.31822
-2.37871
-2.32567
-2.37885
-2.43879
-2.49922
-2.39602
-2.44513
-2.50424
-2.57263
-2.4634
-2.50889
-2.55985
-2.6182
-2.52749
-2.56966
-2.61524
-2.66404
-2.58954
-2.6277
-2.66833
-2.71064
445.259
33.7108
-0.867087
-2.4382
-1.61864
-1.52076
6.66741
18.5673
26.4373
29.2994
25.0836
23.9935
30.1546
32.1891
32.002
31.1141
30.0059
28.7851
29.3339
88.701
204.756
318.41
413.587
480.713
530.997
600.686
668.928
718.035
752.567
781.586
809.309
835.771
857.587
868.19
856.29
832.767
812.717
807.481
804.923
795.914
364.504
47.9705
5.26051
-1.43564
-3.70775
-7.14637
1.74297
20.9151
27.4058
28.6647
29.5768
24.5298
24.9883
29.064
29.9683
29.4333
28.9712
30.0147
35.026
76.8249
172.782
270.682
360.454
428.072
474.204
539.587
603.409
643.685
675.322
705.331
735.169
764.991
793.32
815.185
822.434
802.987
763.456
731.75
723.935
721.103
245.729
67.3522
18.0183
4.2095
-3.2989
-9.98654
-5.8573
20.7778
27.3224
28.5071
27.8766
25.9911
25.0434
27.4519
28.5898
28.2926
28.0126
29.1952
34.7505
69.6852
148.633
231.743
309.7
375.792
423.395
479.705
536.981
570.715
598.512
628.069
659.303
690.935
721.5
748.463
768.068
770.151
740.892
680.937
642.849
643.432
145.855
90.8462
43.8982
19.8118
-1.83082
-17.044
-10.198
20.2713
27.2293
28.1902
27.2863
26.0258
25.4144
26.7168
27.6138
27.4874
27.2223
27.8496
32.4427
61.9987
130.02
204.08
272.196
321.426
367.303
421.512
472.715
499.33
520.936
549.239
581.939
615.475
646.819
673.028
695.005
708.495
699.108
651.595
585.557
573.284
78.2412
116.198
87.0996
43.9916
-6.8874
-39.4129
-7.80765
22.394
27.3112
27.806
26.968
26.214
25.8804
26.5
26.9989
26.9282
26.6492
26.7141
29.7275
52.7202
112.887
182.849
244.138
271.041
310.668
368.658
415.414
430.947
440.29
466.969
502.865
539.688
573.143
600.1
619.782
634.021
634.389
608.164
555.471
530.976
33.0625
123.62
116.239
48.6699
-41.2469
-52.0483
1.99502
25.0611
27.3204
27.4963
26.8899
26.3771
26.1469
26.42
26.6251
26.5474
26.2947
26.1628
27.7819
43.3327
94.8384
160.506
212.854
238.274
269.724
326.044
369.738
364.344
350.142
377.296
420.729
463.863
500.842
529.864
552.23
568.229
571.841
556.297
526.245
511.1
2.58801
85.4893
71.0209
-8.96839
-62.7659
-26.9627
17.2939
26.4063
27.1775
27.1545
26.764
26.4053
26.2233
26.3092
26.3611
26.2718
26.0729
25.946
26.8162
36.74
77.4293
136.35
181.244
211.625
241.719
294.128
326.656
297.037
265.99
284.721
334.739
387.801
430.052
460.756
486.155
508.794
523.399
510.961
493.168
484.563
19.1851
24.6206
-6.61136
-41.8331
-32.0139
10.633
24.7137
26.5213
26.9393
26.8671
26.5895
26.3284
26.1786
26.1701
26.1468
26.0508
25.8945
25.8043
26.2689
32.4873
62.3403
114.647
154.779
183.635
216.683
265.188
270.03
245.169
229.008
221.208
252.49
312.769
362.716
393.933
419.629
446.669
468.993
469.088
463.333
456.354
23.4937
0.482424
-19.79
-15.9282
8.85608
24.0499
25.9632
26.3878
26.6477
26.5883
26.3827
26.1933
26.0717
26.0207
25.9608
25.8605
25.7258
25.636
25.8611
28.1218
46.9749
95.3412
129.524
155.661
190.852
230.052
217.132
211.799
212.236
200.505
200.253
249.806
304.966
331.781
353.264
381.806
409.976
428.055
435.053
432.097
23.4194
16.3522
11.6816
16.8662
23.2128
25.495
25.7912
26.0753
26.2811
26.2656
26.1493
26.0277
25.9341
25.8687
25.7937
25.6939
25.577
25.4895
25.4784
22.6895
29.4068
74.5827
106.937
131.312
164.884
187.056
185.059
193.353
197.613
189.57
186.459
216.486
254.897
256.192
279.367
313.488
346.832
373.921
388.069
395.377
23.5587
22.9595
22.887
24.145
25.0068
25.2431
25.4039
25.6904
25.9115
25.9591
25.9222
25.855
25.7854
25.719
25.6411
25.5475
25.4547
25.3971
25.1592
18.8196
12.5035
53.8912
87.7541
110.597
136.469
143.724
160.825
182.792
188.192
181.456
179.006
188.047
185.77
143.996
182.14
233.867
275.984
307.835
327.179
329.247
23.5439
23.9547
24.3663
24.6778
24.823
24.9529
25.1697
25.4326
25.6305
25.7133
25.724
25.6917
25.6386
25.5753
25.5001
25.4154
25.3435
25.3251
25.0193
16.2396
1.24764
36.4261
70.0214
91.4041
101.691
106.511
134.67
170.85
183.112
174.722
159.812
125.424
98.9707
61.2748
84.7871
139.089
197.127
235.105
260.391
253.975
23.7179
24.0397
24.284
24.459
24.6254
24.8305
25.0572
25.2671
25.4285
25.524
25.5595
25.5457
25.5015
25.4398
25.3677
25.2911
25.2332
25.2572
25.0479
10.5034
-7.49312
21.4588
53.9785
74.3658
72.4317
80.6572
103.699
134.798
161.489
158.014
119.17
60.7708
29.2232
20.0025
25.5067
53.9368
113.203
154.011
186.338
179.163
23.9175
24.135
24.3099
24.4726
24.6451
24.8228
24.9895
25.1409
25.2745
25.3804
25.4318
25.4237
25.3795
25.3138
25.2409
25.1695
25.1256
25.1647
24.8816
5.27442
-18.8335
7.17894
39.2952
60.567
60.8154
69.5401
82.8599
90.4257
110.437
109.605
50.2913
15.9596
4.86617
4.70767
2.50577
8.27986
36.47
66.2509
111.244
110.887
24.0931
24.2789
24.4386
24.5849
24.7193
24.8385
24.941
25.0376
25.1513
25.2792
25.3462
25.3311
25.2758
25.1965
25.1169
25.0475
25.0174
25.0693
24.5876
-2.05573
-32.469
-7.25323
27.9812
43.2958
51.2101
62.2343
77.0723
79.4781
64.8642
38.5736
7.17556
1.88605
0.956558
1.26708
1.03354
0.825146
3.68821
12.9604
47.2393
61.0924
24.2621
24.4306
24.5662
24.6832
24.78
24.8522
24.8978
24.9406
25.0325
25.1596
25.2446
25.2402
25.1794
25.0801
24.9901
24.9255
24.9207
25.0027
24.2768
-9.77482
-46.8447
-19.513
15.6464
31.3054
40.0373
56.2405
75.1664
65.0264
23.2188
3.85036
0.783006
0.826249
0.719499
0.952067
0.948733
0.790864
1.29338
4.80958
16.645
30.464
24.3827
24.5725
24.68
24.7637
24.8277
24.8606
24.8521
24.8323
24.901
24.9825
25.0453
25.0673
25.0336
24.9397
24.8465
24.7985
24.8433
24.9686
23.9712
-19.3237
-61.4981
-30.1953
2.74226
21.1404
30.8977
48.0775
52.2123
23.025
0.914535
0.0968102
0.356174
0.58153
0.660102
0.830802
0.896311
0.956597
1.28878
2.49803
6.12741
19.3652
24.3804
24.6344
24.7725
24.8306
24.8662
24.8685
24.8193
24.767
24.7987
24.7976
24.7437
24.7687
24.8164
24.7553
24.6736
24.6534
24.7392
24.7665
20.7933
-31.3489
-69.7459
-37.411
-8.90548
10.4276
22.6707
31.2941
13.4407
0.632235
0.203327
0.12306
0.273289
0.435192
0.518543
0.620365
0.677337
0.71738
0.763595
0.757553
1.07046
17.6906
24.325
24.5547
24.7783
24.8749
24.8987
24.8873
24.8215
24.7644
24.7507
24.6893
24.5985
24.5654
24.5848
24.5506
24.5001
24.4934
24.5495
24.165
14.3694
-46.7541
-72.5253
-35.3857
-10.7644
0.854959
9.56106
9.71467
-0.116673
-0.164118
-0.00837981
0.0615202
0.16482
0.270234
0.338837
0.40255
0.433065
0.434441
0.38142
0.174653
-0.672808
10.5801
24.4357
24.4457
24.6319
24.811
24.8844
24.8946
24.8293
24.7719
24.7176
24.6264
24.5435
24.4957
24.4402
24.3864
24.3599
24.3586
24.4031
23.8002
5.16384
-65.5085
-69.9864
-24.556
-5.72987
-1.10305
-0.794008
-0.502215
-0.432844
-0.305775
-0.144194
-0.0605773
0.0224011
0.0978821
0.153555
0.198163
0.220801
0.228031
0.226379
0.277259
-0.138708
7.66845
24.6325
24.5346
24.4844
24.6129
24.7541
24.8219
24.7891
24.7291
24.6654
24.5946
24.5253
24.4454
24.3483
24.2963
24.2687
24.274
24.307
23.4022
-12.0248
-85.5958
-64.2987
-14.3422
-1.63764
-0.837115
-0.738437
-0.655364
-0.523601
-0.385644
-0.265199
-0.192219
-0.126861
-0.0711053
-0.0295343
0.000504091
0.0189126
0.0382701
0.0919932
0.315887
0.283973
-3.57652
24.1278
24.7417
24.5921
24.5506
24.591
24.6738
24.6783
24.6414
24.607
24.5545
24.486
24.3952
24.3135
24.2539
24.2242
24.2743
24.2435
22.7652
-41.9586
-95.6979
-49.0582
-6.59707
-0.827696
-0.64464
-0.681341
-0.639985
-0.554494
-0.460702
-0.380811
-0.322345
-0.273441
-0.2345
-0.208386
-0.194662
-0.19171
-0.190448
-0.165195
-0.00444435
0.497929
-6.08116
16.8045
24.1669
24.6919
24.766
24.6513
24.65
24.6023
24.5609
24.5429
24.5169
24.4569
24.3769
24.2904
24.2224
24.2282
24.3047
24.0001
-0.12754
-83.3441
-83.9908
-26.7499
-1.89915
-0.642943
-0.604038
-0.667283
-0.649922
-0.600535
-0.544868
-0.492436
-0.450474
-0.416029
-0.391322
-0.379146
-0.381536
-0.401839
-0.443255
-0.507564
-0.641324
-0.882651
-0.748191
-23.4364
9.55868
23.7788
24.3954
24.741
24.8299
24.6874
24.5645
24.5431
24.516
24.4576
24.3764
24.288
24.2318
24.1925
23.5907
18.6587
-50.7553
-97.6787
-53.8374
-8.36241
-0.901493
-0.561646
-0.634324
-0.693329
-0.691256
-0.668047
-0.636984
-0.605133
-0.57733
-0.554866
-0.540346
-0.537051
-0.54875
-0.582665
-0.650534
-0.758837
-0.92781
-1.8377
0.707417
-41.1615
-32.0971
-4.79718
18.4227
23.9429
24.3238
24.3949
24.5462
24.606
24.5772
24.514
24.4338
24.3472
24.221
23.6266
19.6292
-39.3112
-92.9368
-73.9477
-18.065
-1.3484
-0.658884
-0.612054
-0.708728
-0.758318
-0.761022
-0.751349
-0.736702
-0.719443
-0.703097
-0.689536
-0.681063
-0.680832
-0.692745
-0.722702
-0.776592
-0.834681
-0.862339
-1.51095
0.352891
-18.6326
-39.0573
-42.5801
-25.2663
-1.84478
12.9972
21.521
23.7712
24.0159
23.9401
23.8425
23.7356
23.5962
23.1168
13.9965
-45.6084
-92.6027
-76.4388
-22.233
-1.47564
-0.733349
-0.613045
-0.687376
-0.790702
-0.852427
-0.8539
-0.847956
-0.842488
-0.835116
-0.827004
-0.819516
-0.814336
-0.814154
-0.822854
-0.844693
-0.877756
-0.896192
-0.855668
-1.26809
0.894917
-3.88556
-11.864
-27.3741
-41.0703
-42.1519
-31.1328
-17.1627
-6.60203
-0.353703
4.24221
4.68171
0.887156
-10.1181
-30.6628
-69.9748
-89.5629
-61.5681
-20.3634
-1.90468
-0.911635
-0.710225
-0.716665
-0.786448
-0.885198
-0.948299
-0.957179
-0.952728
-0.952764
-0.951577
-0.94857
-0.944696
-0.941272
-0.940787
-0.947374
-0.96509
-0.990948
-1.00581
-0.996055
-1.18761
0.979305
-2.58131
-3.16536
-6.14553
-15.0495
-27.2574
-37.9873
-44.9744
-47.9109
-48.046
-47.9177
-51.1094
-57.9411
-67.8596
-73.4221
-63.2014
-37.0403
-11.9362
-1.75368
-1.12606
-1.0174
-0.921494
-0.900125
-0.94792
-1.00452
-1.03267
-1.06016
-1.06406
-1.06767
-1.06955
-1.06882
-1.06625
-1.06319
-1.06215
-1.06737
-1.08314
-1.10523
-1.12685
-1.11628
-1.36906
3.69618
-2.53088
-2.53045
-2.96632
-3.91474
-6.37445
-10.9749
-17.4919
-24.23
-30.3689
-34.6927
-36.9708
-36.5309
-32.7032
-25.1773
-13.3723
-5.15662
-1.78511
-1.20776
-1.20101
-1.17985
-1.1156
-1.12259
-1.16722
-1.15937
-1.13803
-1.16182
-1.18575
-1.18917
-1.19114
-1.19036
-1.187
-1.1825
-1.17934
-1.18134
-1.19141
-1.20988
-1.22858
-1.22782
-1.64871
3.22918
-2.63071
-2.63959
-2.6757
-2.79794
-3.14583
-3.78843
-4.15128
-4.97612
-6.34437
-7.03395
-6.8811
-5.93706
-4.72077
-4.07997
-3.15782
-2.01055
-1.51043
-1.46062
-1.4494
-1.37957
-1.33988
-1.3673
-1.37111
-1.33005
-1.29189
-1.28851
-1.31325
-1.31568
-1.31793
-1.31614
-1.3105
-1.30245
-1.29416
-1.28831
-1.28707
-1.29462
-1.31287
-1.31673
-1.66817
-0.208723
-2.68335
-2.74091
-2.79261
-2.82012
-2.83066
-2.93297
-3.03515
-3.20792
-3.40422
-3.44479
-3.26309
-2.90008
-2.63906
-2.55318
-2.39315
-2.14556
-1.93139
-1.81854
-1.71081
-1.62635
-1.60593
-1.59958
-1.55558
-1.50953
-1.47977
-1.45102
-1.4429
-1.44797
-1.45168
-1.44884
-1.44021
-1.4265
-1.40874
-1.38816
-1.36799
-1.35686
-1.35073
-1.28425
-1.88537
-0.368838
-2.71854
-2.77854
-2.84406
-2.90011
-2.93541
-2.98076
-3.00342
-2.97149
-2.92025
-2.86857
-2.79669
-2.71646
-2.67681
-2.63055
-2.53293
-2.38676
-2.21783
-2.08287
-1.97165
-1.91066
-1.87369
-1.81599
-1.75259
-1.69958
-1.6561
-1.61228
-1.58555
-1.59086
-1.59358
-1.58959
-1.57811
-1.55768
-1.52734
-1.48719
-1.44238
-1.39988
-1.34289
-1.27293
-1.77716
0.561875
-2.75616
-2.80525
-2.8584
-2.91165
-2.95981
-3.00589
-3.03041
-3.02027
-2.99119
-2.96155
-2.932
-2.88453
-2.80515
-2.71581
-2.61885
-2.49476
-2.3605
-2.24982
-2.18002
-2.13162
-2.06242
-1.98472
-1.92477
-1.87437
-1.81748
-1.76863
-1.74594
-1.74312
-1.74136
-1.73603
-1.72254
-1.69668
-1.65609
-1.60101
-1.53688
-1.46176
-1.36543
-1.38048
-1.77051
3.11597
)
;

boundaryField
{
    leftWall
    {
        type            calculated;
        value           nonuniform 0();
    }
    rightWall
    {
        type            calculated;
        value           nonuniform List<scalar> 
43
(
1401.1
1348.98
1289.54
1229.14
1168.47
1106.34
1056.03
1006.39
941.44
868.957
795.914
721.103
643.432
573.284
530.976
511.1
484.563
456.354
432.097
395.377
329.247
253.975
179.163
110.887
61.0924
30.464
19.3652
17.6906
10.5801
7.66845
-3.57652
-6.08116
-0.748191
0.707417
0.352891
0.894917
0.979305
3.69618
3.22918
-0.208723
-0.368838
0.561875
3.11597
)
;
    }
    lowerWall
    {
        type            calculated;
        value           nonuniform List<scalar> 
66
(
833.951
831.551
808.008
758.609
708.733
658.841
609.489
560.781
512.569
465.573
421.557
373.521
281.535
221.137
186.092
165.113
2354.46
2400.88
2490.81
2398.36
2052.04
1555
1076.32
726.777
540.25
466.481
2374.61
2254.85
2019.99
1655.37
1264.92
930.491
692.497
550.19
472.399
428.039
404.481
396.223
398.374
410.949
438.638
487.398
567.485
675.569
805.074
945.329
1083.48
1207.68
1310.49
1391.76
1457.06
1512.38
1560.77
1602.13
1634.56
1655.79
1664.31
1659.55
1641.76
1612.05
1572.64
1522.64
1474.98
1436.22
1417.6
1423.49
)
;
    }
    atmosphere
    {
        type            calculated;
        value           nonuniform 0();
    }
    defaultFaces
    {
        type            empty;
    }
    procBoundary1to0
    {
        type            processor;
        value           nonuniform List<scalar> 
44
(
810.755
760.666
711.072
661.445
612.149
563.396
515.1
466.932
417.852
365.481
309.29
255.406
207.531
166.235
131.082
101.706
78.1517
60.2127
45.4652
31.0095
17.5296
17.5296
18.1632
17.7748
14.8231
6.60549
-8.00636
-21.8902
-28.2209
-24.8205
-13.7682
-4.35076
-1.95849
-1.77458
-1.83336
-1.93142
-2.01333
-2.0866
-2.16158
-2.23676
-2.30994
-2.38124
-2.45105
-2.51968
)
;
    }
    procBoundary1to3
    {
        type            processor;
        value           nonuniform List<scalar> 
45
(
-2.61791
-2.6504
-2.68421
-2.71964
-2.756
-2.79457
-2.83505
-2.87596
-2.91602
-2.95371
-2.98757
-3.00911
-3.01281
-3.00382
-2.99509
-2.97533
-2.91366
-2.82241
-2.73937
-2.66372
-2.56722
-2.46173
-2.37245
-2.31174
-2.25493
-2.18381
-2.11753
-2.06868
-2.02425
-1.97502
-1.93289
-1.9086
-1.89678
-1.89025
-1.88389
-1.87017
-1.84364
-1.80195
-1.74565
-1.67601
-1.56914
-1.37085
-1.43451
-1.95
7.26996
)
;
    }
}


// ************************************************************************* //
