/*--------------------------------*- C++ -*----------------------------------*\
| =========                 |                                                 |
| \\      /  F ield         | OpenFOAM: The Open Source CFD Toolbox           |
|  \\    /   O peration     | Version:  5.0                                   |
|   \\  /    A nd           | Web:      www.OpenFOAM.org                      |
|    \\/     M anipulation  |                                                 |
\*---------------------------------------------------------------------------*/
FoamFile
{
    version     2.0;
    format      ascii;
    class       surfaceScalarField;
    location    "0.8";
    object      phi;
}
// * * * * * * * * * * * * * * * * * * * * * * * * * * * * * * * * * * * * * //

dimensions      [0 3 -1 0 0 0 0];

internalField   nonuniform List<scalar> 
3731
(
-2.06147e-06
-2.63546e-06
-2.06147e-06
-2.40409e-06
-4.43723e-06
-4.46556e-06
-1.97025e-06
-5.87759e-06
-6.43581e-06
-1.47343e-06
-7.12552e-06
-7.90924e-06
-1.10154e-06
-8.25568e-06
-9.01078e-06
-8.37229e-07
-9.29188e-06
-9.84801e-06
-6.04102e-07
-1.0237e-05
-1.04521e-05
-3.04824e-07
-1.10791e-05
-1.07569e-05
3.07333e-07
-1.18978e-05
-1.04496e-05
1.88049e-06
-1.32162e-05
-8.56911e-06
6.04385e-06
-6.04385e-06
-2.1797e-05
2.78409e-05
-5.38054e-05
3.20084e-05
-8.14314e-05
2.7626e-05
-0.000102098
2.06669e-05
-0.000116244
1.41457e-05
-0.000125265
9.02112e-06
-0.000130506
5.2406e-06
-0.00013351
3.00472e-06
-0.00013585
2.33931e-06
-0.000138258
2.4081e-06
-0.000140683
2.42509e-06
-0.000142781
2.09786e-06
-0.000144008
1.2274e-06
-0.000143671
-3.37091e-07
-0.000141609
-2.06177e-06
-0.000137776
-3.83296e-06
-0.000132175
-5.60173e-06
-0.000124935
-7.23937e-06
-0.000116381
-8.5542e-06
-0.000106976
-9.40535e-06
-9.72805e-05
-9.69526e-06
-8.78796e-05
-9.40085e-06
-7.91966e-05
-8.683e-06
-7.13092e-05
-7.88742e-06
-6.39858e-05
-7.32343e-06
-5.68915e-05
-7.09426e-06
-4.97713e-05
-7.12015e-06
-4.25134e-05
-7.25793e-06
-3.51375e-05
-7.37589e-06
-2.77204e-05
-7.41711e-06
-2.0346e-05
-7.37441e-06
-1.30984e-05
-7.24762e-06
-6.08436e-06
-7.01402e-06
5.02955e-07
-6.58731e-06
6.4451e-06
-5.94215e-06
1.09595e-05
-4.51444e-06
1.26697e-05
-1.71016e-06
8.95079e-06
3.71891e-06
8.95079e-06
-2.7749e-05
2.17051e-05
-6.10955e-05
6.11874e-05
-9.10797e-05
6.19926e-05
-0.000111524
4.80702e-05
-0.000123709
3.28523e-05
-0.000130676
2.1112e-05
-0.000134445
1.27907e-05
-0.000135996
6.79143e-06
-0.000136408
3.41638e-06
-0.000136867
2.79857e-06
-0.000137597
3.13855e-06
-0.000138206
3.03345e-06
-0.000138481
2.37312e-06
-0.00013832
1.06677e-06
-0.000137715
-9.42215e-07
-0.000136178
-3.59916e-06
-0.000133259
-6.75153e-06
-0.000128739
-1.01217e-05
-0.000122655
-1.33237e-05
-0.00011524
-1.59697e-05
-0.000106881
-1.77639e-05
-9.80764e-05
-1.84998e-05
-8.93744e-05
-1.81029e-05
-8.11972e-05
-1.68601e-05
-7.36468e-05
-1.54378e-05
-6.65441e-05
-1.44261e-05
-5.96229e-05
-1.40155e-05
-5.26894e-05
-1.40536e-05
-4.56698e-05
-1.42775e-05
-3.86038e-05
-1.44419e-05
-3.15753e-05
-1.44456e-05
-2.46747e-05
-1.4275e-05
-1.7996e-05
-1.39264e-05
-1.16421e-05
-1.33679e-05
-5.7313e-06
-1.24981e-05
-5.82267e-07
-1.10912e-05
3.50593e-06
-8.60264e-06
6.0243e-06
-4.22853e-06
6.07873e-06
3.66448e-06
1.50295e-05
-4.22659e-05
6.39711e-05
-7.50486e-05
9.397e-05
-9.89693e-05
8.59134e-05
-0.00011452
6.36211e-05
-0.000124263
4.25954e-05
-0.00013029
2.7139e-05
-0.00013348
1.59804e-05
-0.000134085
7.39651e-06
-0.000133157
2.48848e-06
-0.000132343
1.98423e-06
-0.000132046
2.84135e-06
-0.000131776
2.76369e-06
-0.000131489
2.08649e-06
-0.000131176
7.53263e-07
-0.000130611
-1.50665e-06
-0.000129366
-4.84448e-06
-0.000127019
-9.09853e-06
-0.000123299
-1.38417e-05
-0.000118141
-1.8482e-05
-0.000111688
-2.24223e-05
-0.000104251
-2.52011e-05
-9.62686e-05
-2.6482e-05
-8.82811e-05
-2.60904e-05
-8.07219e-05
-2.44194e-05
-7.36832e-05
-2.24765e-05
-6.69845e-05
-2.11248e-05
-6.0385e-05
-2.06151e-05
-5.37391e-05
-2.06995e-05
-4.70102e-05
-2.10065e-05
-4.02716e-05
-2.11804e-05
-3.36226e-05
-2.10947e-05
-2.71586e-05
-2.0739e-05
-2.098e-05
-2.0105e-05
-1.51933e-05
-1.91546e-05
-9.90546e-06
-1.7786e-05
-5.27123e-06
-1.57254e-05
-1.5334e-06
-1.23405e-05
9.92102e-07
-6.75403e-06
2.20576e-06
2.45082e-06
1.72353e-05
-4.42984e-05
0.000108269
-7.47446e-05
0.000124416
-9.58886e-05
0.000107057
-0.000110734
7.84666e-05
-0.000121392
5.32535e-05
-0.000128437
3.41841e-05
-0.000131798
1.93406e-05
-0.000131474
7.07345e-06
-0.000129324
3.37605e-07
-0.000127658
3.18337e-07
-0.000126947
2.13081e-06
-0.000126172
1.98866e-06
-0.000125367
1.28165e-06
-0.000124612
-1.99118e-09
-0.000123774
-2.34449e-06
-0.000122521
-6.09767e-06
-0.000120487
-1.11329e-05
-0.000117347
-1.69817e-05
-0.000112934
-2.28949e-05
-0.000107301
-2.80546e-05
-0.000100677
-3.18261e-05
-9.34401e-05
-3.37184e-05
-8.61431e-05
-3.33874e-05
-7.92341e-05
-3.13284e-05
-7.27706e-05
-2.894e-05
-6.65476e-05
-2.73478e-05
-6.03231e-05
-2.68395e-05
-5.39928e-05
-2.70298e-05
-4.75542e-05
-2.7445e-05
-4.11288e-05
-2.76059e-05
-3.48314e-05
-2.7392e-05
-2.8757e-05
-2.68134e-05
-2.30076e-05
-2.58544e-05
-1.76961e-05
-2.4466e-05
-1.292e-05
-2.25621e-05
-8.72622e-06
-1.99192e-05
-5.16325e-06
-1.59034e-05
-2.47976e-06
-9.43752e-06
-1.00813e-06
9.79197e-07
1.62271e-05
-3.90936e-05
0.000147363
-6.44664e-05
0.000149789
-8.23571e-05
0.000124948
-9.75019e-05
9.36114e-05
-0.000111191
6.69429e-05
-0.000121662
4.46549e-05
-0.00012626
2.3939e-05
-0.000125824
6.63725e-06
-0.000123745
-1.74213e-06
-0.000122242
-1.1847e-06
-0.00012156
1.44957e-06
-0.000120505
9.32953e-07
-0.000119398
1.74932e-07
-0.000118242
-1.15806e-06
-0.000116989
-3.59707e-06
-0.00011553
-7.55638e-06
-0.000113617
-1.30466e-05
-0.000110894
-1.97044e-05
-0.000107109
-2.668e-05
-0.000102237
-3.29268e-05
-9.6431e-05
-3.76319e-05
-8.9968e-05
-4.01813e-05
-8.33815e-05
-3.99739e-05
-7.71124e-05
-3.75976e-05
-7.11652e-05
-3.48872e-05
-6.53886e-05
-3.31244e-05
-5.95467e-05
-3.26814e-05
-5.35471e-05
-3.30294e-05
-4.74059e-05
-3.35862e-05
-4.13027e-05
-3.37091e-05
-3.53547e-05
-3.334e-05
-2.96423e-05
-3.25258e-05
-2.42637e-05
-3.1233e-05
-1.93387e-05
-2.9391e-05
-1.49638e-05
-2.69371e-05
-1.11473e-05
-2.37357e-05
-7.75185e-06
-1.92989e-05
-4.79185e-06
-1.23975e-05
-2.62598e-06
-1.18668e-06
1.36012e-05
-2.97579e-05
0.000177121
-4.72684e-05
0.0001673
-5.96249e-05
0.000137305
-7.47591e-05
0.000108746
-9.09162e-05
8.31e-05
-9.97814e-05
5.35201e-05
-0.000101458
2.56156e-05
-0.000105093
1.02725e-05
-0.00011209
5.25514e-06
-0.000112978
-2.97261e-07
-0.000112054
5.25403e-07
-0.000112587
1.46628e-06
-0.000113137
7.24856e-07
-0.000112054
-2.24139e-06
-0.000110161
-5.48951e-06
-0.000108263
-9.45433e-06
-0.000106318
-1.49918e-05
-0.000103901
-2.21218e-05
-0.000100661
-2.99193e-05
-9.65244e-05
-3.70637e-05
-9.16229e-05
-4.25334e-05
-8.60892e-05
-4.5715e-05
-8.02674e-05
-4.57957e-05
-7.45504e-05
-4.33146e-05
-6.89503e-05
-4.04873e-05
-6.34759e-05
-3.85988e-05
-5.79932e-05
-3.8164e-05
-5.23476e-05
-3.8675e-05
-4.65509e-05
-3.9383e-05
-4.08268e-05
-3.94332e-05
-3.52637e-05
-3.89031e-05
-2.99102e-05
-3.78793e-05
-2.48593e-05
-3.6284e-05
-2.02463e-05
-3.40039e-05
-1.61761e-05
-3.10073e-05
-1.26402e-05
-2.72716e-05
-9.44713e-06
-2.24919e-05
-6.15135e-06
-1.56933e-05
-2.80943e-06
-4.5286e-06
1.07917e-05
-1.91839e-05
0.000196305
-2.92659e-05
0.000177381
-3.57118e-05
0.00014375
-4.47343e-05
0.000117768
-4.57754e-05
8.41412e-05
-4.10738e-05
4.88185e-05
-3.54138e-05
1.99555e-05
-2.94268e-05
4.28545e-06
-2.51741e-05
1.0025e-06
-3.66755e-05
1.12041e-05
-6.73048e-05
3.11547e-05
-9.5552e-05
2.97135e-05
-0.000105132
1.03052e-05
-0.000104848
-2.52583e-06
-0.000102744
-7.59362e-06
-0.000100509
-1.16888e-05
-9.84677e-05
-1.70336e-05
-9.63044e-05
-2.42851e-05
-9.35739e-05
-3.26498e-05
-9.01115e-05
-4.05261e-05
-8.60699e-05
-4.6575e-05
-8.15453e-05
-5.02397e-05
-7.64829e-05
-5.08581e-05
-7.12872e-05
-4.85103e-05
-6.60713e-05
-4.57031e-05
-6.08072e-05
-4.38629e-05
-5.56028e-05
-4.33685e-05
-5.03049e-05
-4.39729e-05
-4.49803e-05
-4.47075e-05
-3.97637e-05
-4.46498e-05
-3.46629e-05
-4.40039e-05
-2.96888e-05
-4.28534e-05
-2.49365e-05
-4.10363e-05
-2.05749e-05
-3.83655e-05
-1.6736e-05
-3.48462e-05
-1.34051e-05
-3.06026e-05
-1.041e-05
-2.5487e-05
-7.27216e-06
-1.88311e-05
-3.06715e-06
-8.73361e-06
7.72458e-06
-9.32184e-06
0.000205627
-1.40487e-05
0.000182108
-1.97511e-05
0.000149453
-2.46675e-05
0.000122684
-2.01111e-05
7.95848e-05
-9.42874e-06
3.81361e-05
-3.26311e-06
1.37899e-05
2.50599e-06
-1.48366e-06
8.03384e-06
-4.52535e-06
1.37062e-05
5.53176e-06
1.94076e-05
2.54533e-05
7.82093e-07
4.83391e-05
-4.71479e-05
5.82353e-05
-8.49698e-05
3.5296e-05
-9.45405e-05
1.97706e-06
-9.17822e-05
-1.4447e-05
-8.98404e-05
-1.89754e-05
-8.80516e-05
-2.6074e-05
-8.58682e-05
-3.48331e-05
-8.3031e-05
-4.33633e-05
-7.96669e-05
-4.99391e-05
-7.58817e-05
-5.40249e-05
-7.15254e-05
-5.52143e-05
-6.69714e-05
-5.30643e-05
-6.24494e-05
-5.02251e-05
-5.7693e-05
-4.86194e-05
-5.25663e-05
-4.84951e-05
-4.74907e-05
-4.90485e-05
-4.28186e-05
-4.93797e-05
-3.82739e-05
-4.91944e-05
-3.37238e-05
-4.8554e-05
-2.91608e-05
-4.74164e-05
-2.46833e-05
-4.55138e-05
-2.05146e-05
-4.25342e-05
-1.68361e-05
-3.85247e-05
-1.36443e-05
-3.37944e-05
-1.08062e-05
-2.83251e-05
-8.0408e-06
-2.15965e-05
-4.61288e-06
-1.21615e-05
3.1117e-06
-8.48152e-07
0.000206475
-2.85218e-06
0.000184112
-1.08192e-05
0.00015742
-1.56774e-05
0.000127543
-1.01441e-05
7.40514e-05
1.25818e-06
2.67339e-05
1.04344e-05
4.61372e-06
1.57292e-05
-6.77854e-06
2.08335e-05
-9.62961e-06
2.70105e-05
-6.45215e-07
3.37997e-05
1.86641e-05
3.74541e-05
4.46846e-05
1.97928e-05
7.58966e-05
-2.60536e-05
8.11424e-05
-6.57878e-05
4.17112e-05
-7.94389e-05
-7.95884e-07
-8.03851e-05
-1.80292e-05
-7.93009e-05
-2.71582e-05
-7.77036e-05
-3.64304e-05
-7.54766e-05
-4.55903e-05
-7.27058e-05
-5.27099e-05
-6.95661e-05
-5.71647e-05
-6.60342e-05
-5.87461e-05
-6.21372e-05
-5.69613e-05
-5.81368e-05
-5.42255e-05
-5.37849e-05
-5.29713e-05
-4.89795e-05
-5.33005e-05
-4.44886e-05
-5.35394e-05
-4.05076e-05
-5.33607e-05
-3.66257e-05
-5.30764e-05
-3.26628e-05
-5.25169e-05
-2.85542e-05
-5.1525e-05
-2.43414e-05
-4.97266e-05
-2.02854e-05
-4.65902e-05
-1.66572e-05
-4.21529e-05
-1.3487e-05
-3.69646e-05
-1.06889e-05
-3.11232e-05
-8.03042e-06
-2.4255e-05
-4.90195e-06
-1.529e-05
-1.79025e-06
7.78544e-06
0.000198689
5.62938e-06
0.000186268
-1.80858e-06
0.000164858
-7.85894e-06
0.000133593
-5.58129e-06
7.17738e-05
-1.39233e-06
2.25449e-05
8.40167e-06
-5.18028e-06
1.76307e-05
-1.60076e-05
2.37941e-05
-1.5793e-05
2.86433e-05
-5.49444e-06
3.33348e-05
1.39726e-05
3.62052e-05
4.18142e-05
3.52149e-05
7.68869e-05
4.81778e-06
0.00011154
-3.80754e-05
8.46044e-05
-6.30921e-05
2.42209e-05
-6.97893e-05
-1.1332e-05
-7.03979e-05
-2.65496e-05
-6.94114e-05
-3.74169e-05
-6.77556e-05
-4.72462e-05
-6.55879e-05
-5.48776e-05
-6.30843e-05
-5.96683e-05
-6.02329e-05
-6.15976e-05
-5.6898e-05
-6.02962e-05
-5.33118e-05
-5.78117e-05
-4.93237e-05
-5.69595e-05
-4.53356e-05
-5.72885e-05
-4.17091e-05
-5.7166e-05
-3.8315e-05
-5.67548e-05
-3.50033e-05
-5.63881e-05
-3.16302e-05
-5.58899e-05
-2.8064e-05
-5.50912e-05
-2.41918e-05
-5.35988e-05
-2.01606e-05
-5.06215e-05
-1.63647e-05
-4.59488e-05
-1.30072e-05
-4.03221e-05
-1.0128e-05
-3.40024e-05
-7.48554e-06
-2.68975e-05
-4.33577e-06
-1.84398e-05
-6.12602e-06
4.93329e-06
-1.61873e-05
-1.35688e-05
9.93302e-06
6.11895e-06
-1.96636e-05
-1.80198e-05
1.05699e-05
5.58682e-06
-2.29194e-05
-2.14993e-05
9.06636e-06
3.86958e-06
-2.56255e-05
-2.39239e-05
6.29414e-06
1.41847e-06
-2.76703e-05
-2.54636e-05
2.95824e-06
-1.47755e-06
-2.90522e-05
-2.64094e-05
-5.31827e-07
-4.68642e-06
-2.98215e-05
-2.69244e-05
-4.17135e-06
-8.29068e-06
-3.00048e-05
-2.65352e-05
-8.67995e-06
-1.24677e-05
-2.96485e-05
-2.49612e-05
-1.40416e-05
-1.73716e-05
-2.27135e-05
-1.96193e-05
-2.16004e-05
-2.38082e-05
-2.10031e-05
-2.84609e-05
-2.0172e-05
-3.33019e-05
-1.80558e-05
-3.80406e-05
-1.52069e-05
-4.05713e-05
-1.32304e-05
-4.01405e-05
-1.07631e-05
-4.03991e-05
-8.82371e-06
-3.89374e-05
-7.27459e-06
-3.7363e-05
-6.16299e-06
-3.55681e-05
-5.2825e-06
-3.38635e-05
-4.09753e-06
-3.21931e-05
1.34107e-06
-3.05086e-05
1.12398e-05
-2.44778e-05
2.04787e-05
-1.38297e-05
2.7503e-05
-3.0916e-06
3.22941e-05
6.35967e-06
3.51613e-05
1.4014e-05
3.6647e-05
1.96187e-05
3.72352e-05
2.34081e-05
3.72707e-05
2.57466e-05
3.70004e-05
2.69393e-05
2.72478e-05
1.8986e-05
-9.05299e-06
2.47799e-05
-5.79388e-06
2.43749e-05
4.04994e-07
2.04954e-05
3.87952e-06
1.57744e-05
-1.42575e-05
1.92507e-05
-9.27023e-06
1.73882e-05
2.2675e-06
3.29109e-05
4.97271e-06
1.2097e-05
-1.72881e-05
1.39006e-05
-1.10738e-05
1.1737e-05
4.43107e-06
4.02089e-05
4.439e-06
7.92853e-06
-1.89225e-05
8.96103e-06
-1.21063e-05
6.25735e-06
7.13475e-06
4.40189e-05
2.44738e-06
3.74868e-06
-1.9713e-05
4.11407e-06
-1.24717e-05
7.052e-07
1.05436e-05
4.64237e-05
-1.69962e-06
6.93595e-08
-2.03141e-05
-2.43837e-06
-9.96399e-06
8.95018e-07
7.21022e-06
5.16451e-05
-4.32634e-06
-4.10099e-06
-2.03845e-05
1.00575e-05
-2.41224e-05
1.82414e-05
-9.73838e-07
7.09608e-05
-1.07425e-06
-6.99542e-06
-2.2069e-05
1.01134e-06
-3.21291e-05
1.14914e-05
-1.1454e-05
7.32873e-05
9.16485e-06
-1.04059e-05
-2.57047e-05
-8.33403e-06
-3.42009e-05
-3.78577e-06
-1.60022e-05
5.38742e-05
1.56274e-05
-1.66932e-05
-2.86309e-05
-1.97429e-05
-3.11512e-05
-2.14907e-05
-1.42544e-05
3.02717e-05
2.11178e-06
-2.45303e-05
-2.79088e-05
-2.91753e-05
-2.65062e-05
-3.05361e-05
-1.28936e-05
1.46011e-05
-1.48656e-05
-3.13477e-05
-2.5022e-05
-3.63727e-05
-2.14812e-05
-3.88704e-05
-1.03959e-05
7.34937e-06
-3.16187e-05
-3.74154e-05
-2.09084e-05
-4.28002e-05
-1.60963e-05
-4.72748e-05
-5.92131e-06
7.38676e-06
-4.73122e-05
-4.20661e-05
-1.6883e-05
-4.73912e-05
-1.07712e-05
-5.3031e-05
-2.81507e-07
1.0962e-05
-5.66063e-05
-4.37865e-05
-1.36677e-05
-4.88563e-05
-5.70146e-06
-5.48445e-05
5.70668e-06
1.57444e-05
-5.96269e-05
-4.24913e-05
-1.13169e-05
-4.68295e-05
-1.36331e-06
-5.15292e-05
1.04064e-05
2.05612e-05
-5.6346e-05
-4.44494e-05
-7.26655e-06
-4.46217e-05
-1.19109e-06
-4.60133e-05
1.1798e-05
2.34184e-05
-4.88705e-05
-4.23234e-05
-3.88062e-06
-4.16817e-05
-1.83279e-06
-4.25134e-05
1.26297e-05
2.38747e-05
-4.29697e-05
-3.93148e-05
-1.92886e-06
-4.31446e-05
1.99705e-06
-4.07729e-05
1.02579e-05
2.20187e-05
-3.89169e-05
-3.6697e-05
-7.99954e-07
-3.89245e-05
4.22458e-06
-3.72245e-05
8.5579e-06
1.97774e-05
-3.49832e-05
-3.45721e-05
-9.13222e-08
-3.52668e-05
4.91919e-06
-3.67768e-05
1.00679e-05
1.64481e-05
-3.34475e-05
-3.25626e-05
2.78164e-07
-3.274e-05
5.09663e-06
-3.28674e-05
1.01954e-05
1.53595e-05
-3.17788e-05
-3.06135e-05
3.83133e-07
-3.0406e-05
4.88916e-06
-3.00557e-05
9.84501e-06
1.48283e-05
-2.95245e-05
-2.89477e-05
4.85307e-06
-2.82728e-05
4.21428e-06
-2.74945e-05
9.06675e-06
1.39366e-05
-2.66028e-05
-2.24123e-05
1.34357e-05
-2.67777e-05
8.57972e-06
-2.53202e-05
7.60926e-06
1.24778e-05
-2.38615e-05
-1.13713e-05
2.17154e-05
-1.9616e-05
1.68244e-05
-2.42311e-05
1.22243e-05
1.00268e-05
-2.17801e-05
3.47934e-07
2.77271e-05
-7.00218e-06
2.41746e-05
-1.46617e-05
1.98838e-05
1.54296e-05
-2.00645e-05
1.02329e-05
3.15081e-05
5.38565e-06
2.90218e-05
-3.58513e-07
2.5628e-05
2.15355e-05
-6.4645e-06
1.74537e-05
3.36731e-05
1.44426e-05
3.2033e-05
1.04379e-05
2.96326e-05
2.65822e-05
5.39118e-06
2.23036e-05
3.47775e-05
2.05579e-05
3.37787e-05
1.80264e-05
3.2164e-05
3.00028e-05
1.46058e-05
2.52998e-05
3.52243e-05
2.43637e-05
3.47149e-05
2.28534e-05
3.36743e-05
3.21471e-05
2.07091e-05
2.68674e-05
3.52963e-05
2.64e-05
3.51822e-05
2.54715e-05
3.46028e-05
3.35667e-05
2.40519e-05
2.73502e-05
2.71132e-05
2.64745e-05
2.53951e-05
1.44007e-05
0.000188168
1.42603e-05
0.000186409
1.01311e-05
0.000168987
6.11377e-06
0.00013761
9.21316e-06
6.86744e-05
8.66587e-06
2.30922e-05
6.7144e-06
-3.22882e-06
1.15856e-05
-2.08788e-05
2.05337e-05
-2.47411e-05
2.3824e-05
-8.78474e-06
2.6217e-05
1.15796e-05
2.70453e-05
4.0986e-05
2.58203e-05
7.81119e-05
8.52469e-06
0.000128835
-2.4672e-05
0.000117801
-5.0697e-05
5.02458e-05
-6.13046e-05
-7.24386e-07
-6.28998e-05
-2.49545e-05
-6.23753e-05
-3.79413e-05
-6.11449e-05
-4.84766e-05
-5.94844e-05
-5.65381e-05
-5.75206e-05
-6.16321e-05
-5.51618e-05
-6.39564e-05
-5.2307e-05
-6.3151e-05
-4.9209e-05
-6.09097e-05
-4.58021e-05
-6.03664e-05
-4.26129e-05
-6.04777e-05
-3.96211e-05
-6.01578e-05
-3.67517e-05
-5.96241e-05
-3.3978e-05
-5.91618e-05
-3.11654e-05
-5.87025e-05
-2.81882e-05
-5.80683e-05
-2.48239e-05
-5.69631e-05
-2.07816e-05
-5.46637e-05
-1.64112e-05
-5.03192e-05
-1.24117e-05
-4.43216e-05
-9.25701e-06
-3.7157e-05
-6.73883e-06
-2.94157e-05
-3.95836e-06
-2.12202e-05
-1.00844e-05
1.80871e-05
0.000175054
2.12688e-05
0.000183227
2.16807e-05
0.000168575
2.17967e-05
0.000137494
2.28909e-05
6.75802e-05
1.87015e-05
2.72816e-05
1.38645e-05
1.60818e-06
8.91411e-06
-1.59284e-05
1.23978e-05
-2.82248e-05
1.29368e-05
-9.32371e-06
1.32723e-05
1.12441e-05
1.30695e-05
4.11888e-05
8.19818e-06
8.29832e-05
-2.57368e-06
0.000139607
-2.175e-05
0.000136977
-4.23205e-05
7.08164e-05
-5.43151e-05
1.12701e-05
-5.55246e-05
-2.37449e-05
-5.50386e-05
-3.84273e-05
-5.40499e-05
-4.94653e-05
-5.27877e-05
-5.78003e-05
-5.12674e-05
-6.31524e-05
-4.94125e-05
-6.58113e-05
-4.71429e-05
-6.54206e-05
-4.46938e-05
-6.33588e-05
-4.20174e-05
-6.30429e-05
-3.94288e-05
-6.30663e-05
-3.70027e-05
-6.25839e-05
-3.47534e-05
-6.18735e-05
-3.2588e-05
-6.13272e-05
-3.03595e-05
-6.09309e-05
-2.79577e-05
-6.04702e-05
-2.52438e-05
-5.9677e-05
-2.17079e-05
-5.81997e-05
-1.69031e-05
-5.5124e-05
-1.16525e-05
-4.95722e-05
-7.67294e-06
-4.11366e-05
-5.36641e-06
-3.17222e-05
-3.50986e-06
-2.30768e-05
-1.35942e-05
1.91781e-05
0.000160315
2.60105e-05
0.000176395
3.01302e-05
0.000164455
3.55642e-05
0.00013206
3.43036e-05
6.88407e-05
2.8726e-05
3.28592e-05
2.24836e-05
7.85062e-06
1.52761e-05
-8.72088e-06
8.95091e-06
-2.18997e-05
7.29094e-07
-1.10188e-06
-3.44899e-06
1.54222e-05
-6.28703e-06
4.40268e-05
-1.25889e-05
8.9285e-05
-1.91354e-05
0.000146154
-2.53381e-05
0.00014318
-3.77941e-05
8.32724e-05
-4.82385e-05
2.17145e-05
-4.90502e-05
-2.29332e-05
-4.82458e-05
-3.92318e-05
-4.73476e-05
-5.03635e-05
-4.63941e-05
-5.87538e-05
-4.52576e-05
-6.42889e-05
-4.39008e-05
-6.71681e-05
-4.225e-05
-6.70714e-05
-4.04187e-05
-6.51901e-05
-3.83194e-05
-6.51421e-05
-3.61959e-05
-6.51898e-05
-3.43179e-05
-6.4462e-05
-3.27017e-05
-6.34896e-05
-3.11522e-05
-6.28767e-05
-2.94696e-05
-6.26136e-05
-2.75262e-05
-6.24135e-05
-2.52416e-05
-6.19617e-05
-2.24008e-05
-6.10404e-05
-1.82311e-05
-5.92937e-05
-1.2189e-05
-5.56143e-05
-5.90965e-06
-4.7416e-05
-2.89636e-06
-3.47355e-05
-2.48032e-06
-2.34928e-05
-1.60746e-05
1.77093e-05
0.000145053
2.80463e-05
0.000166058
3.60131e-05
0.000156489
4.49072e-05
0.000123166
4.21954e-05
7.15525e-05
3.74705e-05
3.75841e-05
3.13828e-05
1.39383e-05
2.39763e-05
-1.31444e-06
1.31929e-05
-1.11163e-05
-1.8573e-06
1.39483e-05
-1.7165e-05
3.07299e-05
-2.82663e-05
5.51282e-05
-3.63909e-05
9.74097e-05
-3.52354e-05
0.000144998
-3.07957e-05
0.00013874
-3.48107e-05
8.72874e-05
-4.17201e-05
2.86239e-05
-4.3149e-05
-2.15043e-05
-4.20438e-05
-4.0337e-05
-4.12016e-05
-5.12057e-05
-4.05286e-05
-5.94268e-05
-3.97759e-05
-6.50415e-05
-3.89016e-05
-6.80424e-05
-3.7861e-05
-6.8112e-05
-3.6478e-05
-6.65732e-05
-3.47345e-05
-6.68856e-05
-3.30093e-05
-6.69149e-05
-3.16582e-05
-6.58131e-05
-3.06785e-05
-6.44694e-05
-2.97318e-05
-6.38234e-05
-2.85527e-05
-6.37927e-05
-2.70038e-05
-6.39624e-05
-2.50155e-05
-6.395e-05
-2.25304e-05
-6.35256e-05
-1.92747e-05
-6.25494e-05
-1.44255e-05
-6.04634e-05
-6.39453e-06
-5.54469e-05
5.49584e-07
-4.16796e-05
9.20904e-07
-2.38641e-05
-1.51537e-05
1.39686e-05
0.000129385
2.69813e-05
0.000153045
3.86579e-05
0.000144812
4.78549e-05
0.000113969
4.72292e-05
7.21781e-05
4.39749e-05
4.08385e-05
3.8628e-05
1.92852e-05
3.03849e-05
6.92869e-06
1.58397e-05
3.42888e-06
-1.81354e-06
3.16016e-05
-2.09341e-05
4.98505e-05
-3.89176e-05
7.31116e-05
-4.94861e-05
0.000107978
-4.39515e-05
0.000139463
-3.42952e-05
0.000129084
-3.22354e-05
8.52276e-05
-3.52701e-05
3.16586e-05
-3.78716e-05
-1.89028e-05
-3.64366e-05
-4.1772e-05
-3.56424e-05
-5.19999e-05
-3.52097e-05
-5.98595e-05
-3.48394e-05
-6.54119e-05
-3.44095e-05
-6.84723e-05
-3.38843e-05
-6.86372e-05
-3.27898e-05
-6.76676e-05
-3.13399e-05
-6.83355e-05
-2.99753e-05
-6.82794e-05
-2.9145e-05
-6.66435e-05
-2.88054e-05
-6.48089e-05
-2.84138e-05
-6.4215e-05
-2.76734e-05
-6.45331e-05
-2.64765e-05
-6.51592e-05
-2.48093e-05
-6.56172e-05
-2.2651e-05
-6.56838e-05
-1.988e-05
-6.53204e-05
-1.60993e-05
-6.42442e-05
-1.02272e-05
-6.1319e-05
7.39314e-07
-5.26461e-05
5.21363e-06
-2.83384e-05
-9.94002e-06
1.08926e-05
0.000114166
2.61219e-05
0.000137816
3.93964e-05
0.000131538
4.87864e-05
0.000104579
5.01792e-05
7.07853e-05
4.84207e-05
4.2597e-05
4.42176e-05
2.34883e-05
3.57793e-05
1.5367e-05
1.47396e-05
2.44685e-05
-7.36278e-06
5.3704e-05
-2.82144e-05
7.07021e-05
-4.58345e-05
9.07318e-05
-5.3514e-05
0.000115658
-4.61171e-05
0.000132066
-3.50703e-05
0.000118037
-2.98184e-05
7.99757e-05
-3.01798e-05
3.20201e-05
-3.30396e-05
-1.6043e-05
-3.1362e-05
-4.34497e-05
-3.05737e-05
-5.27881e-05
-3.03204e-05
-6.01128e-05
-3.02541e-05
-6.54782e-05
-3.02026e-05
-6.85238e-05
-3.00711e-05
-6.87686e-05
-2.93033e-05
-6.84355e-05
-2.81946e-05
-6.94442e-05
-2.72373e-05
-6.92366e-05
-2.69701e-05
-6.69107e-05
-2.72432e-05
-6.45358e-05
-2.7249e-05
-6.42092e-05
-2.68344e-05
-6.49477e-05
-2.59288e-05
-6.60648e-05
-2.46021e-05
-6.6944e-05
-2.29161e-05
-6.73698e-05
-2.07447e-05
-6.74918e-05
-1.77925e-05
-6.71964e-05
-1.35358e-05
-6.55757e-05
-6.68624e-06
-5.94957e-05
2.75994e-06
-3.77846e-05
-7.18008e-06
1.1348e-05
0.000101743
2.72282e-05
0.000121935
4.05833e-05
0.000118183
4.89434e-05
9.62193e-05
5.18728e-05
6.78559e-05
5.15131e-05
4.29568e-05
4.78599e-05
2.71415e-05
3.3779e-05
2.9448e-05
6.04876e-06
5.21987e-05
-1.63077e-05
7.60605e-05
-3.56686e-05
9.0063e-05
-4.94904e-05
0.000104554
-5.29124e-05
0.00011908
-4.4622e-05
0.000123776
-3.37524e-05
0.000107168
-2.72727e-05
7.3496e-05
-2.60585e-05
3.08058e-05
-2.79004e-05
-1.42011e-05
-2.64551e-05
-4.4895e-05
-2.58021e-05
-5.34412e-05
-2.57346e-05
-6.01803e-05
-2.59155e-05
-6.52972e-05
-2.61617e-05
-6.82777e-05
-2.63709e-05
-6.85594e-05
-2.59643e-05
-6.88422e-05
-2.52365e-05
-7.0172e-05
-2.47578e-05
-6.97154e-05
-2.51157e-05
-6.65529e-05
-2.5912e-05
-6.37395e-05
-2.61174e-05
-6.40038e-05
-2.58927e-05
-6.51723e-05
-2.52216e-05
-6.67359e-05
-2.42498e-05
-6.79158e-05
-2.31383e-05
-6.84813e-05
-2.17404e-05
-6.88897e-05
-1.97242e-05
-6.92126e-05
-1.66983e-05
-6.86016e-05
-1.15809e-05
-6.46131e-05
-1.06964e-06
-4.82959e-05
-8.24973e-06
1.57184e-05
9.51899e-05
2.90885e-05
0.000108565
4.15143e-05
0.000105757
4.98588e-05
8.78748e-05
5.37925e-05
6.39222e-05
5.3843e-05
4.29062e-05
4.75095e-05
3.34749e-05
2.47487e-05
5.22089e-05
-4.22609e-06
8.11735e-05
-2.55508e-05
9.73851e-05
-4.12993e-05
0.000105812
-5.01245e-05
0.000113379
-4.96816e-05
0.000118637
-4.10247e-05
0.000115119
-3.08632e-05
9.70061e-05
-2.40928e-05
6.67257e-05
-2.18737e-05
2.85867e-05
-2.26199e-05
-1.34549e-05
-2.15569e-05
-4.5958e-05
-2.12218e-05
-5.37763e-05
-2.1431e-05
-5.99711e-05
-2.18702e-05
-6.4858e-05
-2.24111e-05
-6.77368e-05
-2.28783e-05
-6.80923e-05
-2.26853e-05
-6.90351e-05
-2.22847e-05
-7.05726e-05
-2.21348e-05
-6.98652e-05
-2.30692e-05
-6.56185e-05
-2.40549e-05
-6.27538e-05
-2.45723e-05
-6.34865e-05
-2.45224e-05
-6.52222e-05
-2.40881e-05
-6.71702e-05
-2.35402e-05
-6.84637e-05
-2.31208e-05
-6.89008e-05
-2.25911e-05
-6.94193e-05
-2.14476e-05
-7.03561e-05
-1.91739e-05
-7.08754e-05
-1.47491e-05
-6.90378e-05
-5.7274e-06
-5.73176e-05
-1.39771e-05
2.05217e-05
9.02955e-05
3.11313e-05
9.79558e-05
4.26628e-05
9.42252e-05
5.16125e-05
7.89251e-05
5.62187e-05
5.9316e-05
5.31845e-05
4.59405e-05
3.68338e-05
4.98257e-05
8.98087e-06
8.00618e-05
-1.65776e-05
0.000106732
-3.39987e-05
0.000114806
-4.46445e-05
0.000116457
-4.84004e-05
0.000117135
-4.49216e-05
0.000115158
-3.61719e-05
0.000106369
-2.67972e-05
8.76313e-05
-2.00936e-05
6.00222e-05
-1.71548e-05
2.56478e-05
-1.74699e-05
-1.31398e-05
-1.68437e-05
-4.65842e-05
-1.69196e-05
-5.37003e-05
-1.74376e-05
-5.94531e-05
-1.81388e-05
-6.41568e-05
-1.89165e-05
-6.69591e-05
-1.95372e-05
-6.74716e-05
-1.94534e-05
-6.91189e-05
-1.9315e-05
-7.07111e-05
-1.92363e-05
-6.99438e-05
-1.95661e-05
-6.52887e-05
-2.02032e-05
-6.21167e-05
-2.17858e-05
-6.19039e-05
-2.22151e-05
-6.47928e-05
-2.21524e-05
-6.72329e-05
-2.22528e-05
-6.83633e-05
-2.2805e-05
-6.83486e-05
-2.32716e-05
-6.89527e-05
-2.291e-05
-7.07177e-05
-2.12813e-05
-7.25041e-05
-1.79921e-05
-7.2327e-05
-1.16025e-05
-6.37072e-05
-2.55797e-05
2.1437e-05
7.09703e-05
3.24501e-05
8.69428e-05
4.53879e-05
8.12874e-05
5.57105e-05
6.86025e-05
5.50701e-05
5.99563e-05
4.021e-05
6.08006e-05
1.24707e-05
7.7565e-05
-1.42603e-05
0.000106793
-3.16144e-05
0.000124086
-4.15285e-05
0.00012472
-4.59358e-05
0.000120865
-4.50453e-05
0.000116244
-3.93305e-05
0.000109443
-3.0647e-05
9.7686e-05
-2.20158e-05
7.90001e-05
-1.55721e-05
5.35786e-05
-1.22507e-05
2.23264e-05
-1.23223e-05
-1.30682e-05
-1.23778e-05
-4.65287e-05
-1.292e-05
-5.31581e-05
-1.36964e-05
-5.86767e-05
-1.46248e-05
-6.32284e-05
-1.56151e-05
-6.59688e-05
-1.62267e-05
-6.686e-05
-1.62326e-05
-6.9113e-05
-1.63242e-05
-7.06195e-05
-1.65663e-05
-6.97017e-05
-1.5931e-05
-6.5924e-05
-1.5548e-05
-6.24998e-05
-1.70721e-05
-6.03797e-05
-1.82483e-05
-6.36166e-05
-1.89606e-05
-6.65206e-05
-2.01948e-05
-6.71291e-05
-2.24341e-05
-6.61093e-05
-2.40027e-05
-6.73842e-05
-2.42359e-05
-7.04844e-05
-2.29693e-05
-7.37708e-05
-1.97297e-05
-7.55665e-05
-1.30423e-05
-7.03947e-05
-3.86219e-05
1.05636e-05
4.55411e-05
2.64103e-05
7.1096e-05
3.73347e-05
7.03631e-05
3.85777e-05
6.73595e-05
2.78552e-05
7.06788e-05
5.38417e-06
8.32717e-05
-2.07783e-05
0.000103727
-3.77371e-05
0.000123752
-4.47467e-05
0.000131096
-4.67286e-05
0.000126702
-4.52256e-05
0.000119362
-4.05543e-05
0.000111573
-3.33182e-05
0.000102207
-2.48441e-05
8.92119e-05
-1.69534e-05
7.11095e-05
-1.0975e-05
4.76002e-05
-7.68019e-06
1.90315e-05
-7.32654e-06
-1.34219e-05
-8.0521e-06
-4.58032e-05
-9.10994e-06
-5.21003e-05
-1.00954e-05
-5.76913e-05
-1.11755e-05
-6.21482e-05
-1.22145e-05
-6.49298e-05
-1.27276e-05
-6.63468e-05
-1.28299e-05
-6.90107e-05
-1.29915e-05
-7.04579e-05
-1.29719e-05
-6.97212e-05
-1.14389e-05
-6.7457e-05
-1.04538e-05
-6.34849e-05
-1.12942e-05
-5.95394e-05
-1.24865e-05
-6.24243e-05
-1.40852e-05
-6.49218e-05
-1.6877e-05
-6.43374e-05
-2.24889e-05
-6.04974e-05
-2.50487e-05
-6.48243e-05
-2.53751e-05
-7.0158e-05
-2.40366e-05
-7.51093e-05
-2.03554e-05
-7.92477e-05
-1.26105e-05
-7.81396e-05
-5.12325e-05
-1.69738e-05
3.08962e-05
-7.49255e-07
5.48715e-05
5.21621e-06
6.43976e-05
1.97896e-07
7.23778e-05
-1.4296e-05
8.51727e-05
-3.29498e-05
0.000101925
-4.79181e-05
0.000118696
-5.38066e-05
0.00012964
-5.26508e-05
0.00012994
-4.84711e-05
0.000122523
-4.25173e-05
0.000113408
-3.52059e-05
0.000104261
-2.70914e-05
9.40926e-05
-1.89954e-05
8.11159e-05
-1.19112e-05
6.40254e-05
-6.60678e-06
4.22957e-05
-3.63259e-06
1.60573e-05
-3.10489e-06
-1.39496e-05
-4.02451e-06
-4.48836e-05
-5.2896e-06
-5.08352e-05
-6.51698e-06
-5.64639e-05
-7.70532e-06
-6.09599e-05
-8.65174e-06
-6.39834e-05
-8.93407e-06
-6.60645e-05
-8.84373e-06
-6.91011e-05
-8.40947e-06
-7.08922e-05
-7.34163e-06
-7.07891e-05
-5.99109e-06
-6.88076e-05
-5.09737e-06
-6.43786e-05
-5.40226e-06
-5.92345e-05
-6.31272e-06
-6.15138e-05
-7.77205e-06
-6.34625e-05
-1.12674e-05
-6.08421e-05
-2.28974e-05
-4.88673e-05
-2.59298e-05
-6.17919e-05
-2.58501e-05
-7.02377e-05
-2.43696e-05
-7.65898e-05
-2.08203e-05
-8.2797e-05
-1.28288e-05
-8.6131e-05
-6.40613e-05
-4.29461e-05
2.65301e-05
-3.53197e-05
4.7245e-05
-3.38684e-05
6.29463e-05
-3.97277e-05
7.82371e-05
-4.94447e-05
9.48897e-05
-5.847e-05
0.000110951
-6.28353e-05
0.000123061
-6.10049e-05
0.00012781
-5.48539e-05
0.000123789
-4.67804e-05
0.000114449
-3.79945e-05
0.000104622
-2.9172e-05
9.5439e-05
-2.07379e-05
8.56585e-05
-1.31998e-05
7.35778e-05
-7.00457e-06
5.78301e-05
-2.48134e-06
3.77725e-05
1.30984e-07
1.3445e-05
4.04978e-07
-1.42236e-05
-4.05512e-07
-4.40731e-05
-1.5471e-06
-4.96936e-05
-2.98208e-06
-5.50289e-05
-4.23573e-06
-5.97062e-05
-5.14639e-06
-6.30728e-05
-5.20116e-06
-6.60097e-05
-4.89822e-06
-6.9404e-05
-4.25931e-06
-7.15311e-05
-3.27308e-06
-7.17753e-05
-1.91383e-06
-7.01668e-05
-3.51279e-07
-6.59411e-05
-1.28218e-08
-5.95729e-05
-1.10786e-06
-6.04188e-05
-2.53683e-06
-6.20335e-05
-4.4542e-06
-5.89247e-05
-1.80076e-05
-3.53139e-05
-2.45309e-05
-5.52687e-05
-2.44979e-05
-7.02707e-05
-2.33513e-05
-7.77364e-05
-2.07302e-05
-8.5418e-05
-1.3349e-05
-9.35123e-05
-7.74103e-05
-5.74932e-05
2.7417e-05
-5.64576e-05
4.62095e-05
-5.78631e-05
6.43518e-05
-6.17902e-05
8.21642e-05
-6.5965e-05
9.90645e-05
-6.80335e-05
0.000113019
-6.64636e-05
0.000121491
-6.0977e-05
0.000122323
-5.2567e-05
0.000115379
-4.24088e-05
0.000104291
-3.20417e-05
9.42548e-05
-2.25574e-05
8.59548e-05
-1.42745e-05
7.73756e-05
-7.47744e-06
6.67807e-05
-2.1972e-06
5.25498e-05
1.59936e-06
3.39759e-05
3.85089e-06
1.11934e-05
4.42451e-06
-1.47972e-05
3.45061e-06
-4.30992e-05
1.97388e-06
-4.82168e-05
3.79052e-07
-5.34341e-05
-9.72741e-07
-5.83545e-05
-1.8522e-06
-6.21933e-05
-1.81794e-06
-6.6044e-05
-1.58939e-06
-6.96326e-05
-1.06783e-06
-7.20526e-05
-1.94499e-07
-7.26486e-05
8.95015e-07
-7.12563e-05
2.21553e-06
-6.72617e-05
3.65196e-06
-6.10094e-05
2.46951e-06
-5.92363e-05
-8.12805e-07
-5.87512e-05
-3.82009e-06
-5.59174e-05
-9.16871e-06
-2.99653e-05
-2.05726e-05
-4.38648e-05
-2.11346e-05
-6.97086e-05
-2.09749e-05
-7.78962e-05
-2.02174e-05
-8.61754e-05
-1.40169e-05
-9.97128e-05
-9.14272e-05
-6.22744e-05
3.00645e-05
-6.35363e-05
4.74714e-05
-6.51507e-05
6.59663e-05
-6.68341e-05
8.38475e-05
-6.73965e-05
9.9627e-05
-6.58505e-05
0.000111473
-6.17937e-05
0.000117434
-5.53233e-05
0.000115853
-4.66055e-05
0.000106661
-3.59395e-05
9.3625e-05
-2.51636e-05
8.34789e-05
-1.56921e-05
7.64833e-05
-7.86498e-06
6.95485e-05
-1.93639e-06
6.08521e-05
2.44246e-06
4.8171e-05
5.67542e-06
3.0743e-05
7.96493e-06
8.90391e-06
8.95237e-06
-1.57847e-05
7.26477e-06
-4.14116e-05
5.33423e-06
-4.62863e-05
3.57014e-06
-5.167e-05
2.12008e-06
-5.69044e-05
1.31807e-06