/*--------------------------------*- C++ -*----------------------------------*\
| =========                 |                                                 |
| \\      /  F ield         | OpenFOAM: The Open Source CFD Toolbox           |
|  \\    /   O peration     | Version:  5.0                                   |
|   \\  /    A nd           | Web:      www.OpenFOAM.org                      |
|    \\/     M anipulation  |                                                 |
\*---------------------------------------------------------------------------*/
FoamFile
{
    version     2.0;
    format      ascii;
    class       volVectorField;
    location    "0.8";
    object      U;
}
// * * * * * * * * * * * * * * * * * * * * * * * * * * * * * * * * * * * * * //

dimensions      [0 1 -1 0 0 0 0];

internalField   nonuniform List<vector> 
1915
(
(-0.0488225 -0.0214184 0)
(-0.0158742 -0.0117746 0)
(-0.0490161 -0.0401418 0)
(-0.0229474 -0.0366175 0)
(-0.0398863 -0.056489 0)
(-0.0174847 -0.0614579 0)
(-0.0307499 -0.0705958 0)
(-0.0113725 -0.0789776 0)
(-0.0240874 -0.0831983 0)
(-0.00708657 -0.0918987 0)
(-0.019264 -0.0948775 0)
(-0.00430946 -0.102158 0)
(-0.0147558 -0.105605 0)
(-0.00227995 -0.111361 0)
(-0.00876784 -0.114517 0)
(0.000606627 -0.116412 0)
(0.000800894 -0.121626 0)
(0.0106756 -0.106743 0)
(0.0181661 -0.133475 0)
(0.0440286 -0.0907065 0)
(0.213397 -0.181793 0)
(-0.0609457 0.166753 0)
(-0.571834 0.21849 0)
(-1.00418 0.189905 0)
(-1.34178 0.140107 0)
(-1.57963 0.0945868 0)
(-1.73657 0.0607789 0)
(-1.83182 0.0371974 0)
(-1.88577 0.0239678 0)
(-1.92122 0.0204156 0)
(-1.95478 0.0208678 0)
(-1.9904 0.0198821 0)
(-2.02464 0.015067 0)
(-2.051 0.00587073 0)
(-2.0602 -0.00651958 0)
(-2.04201 -0.0199832 0)
(-1.9994 -0.0320448 0)
(-1.93159 -0.0436609 0)
(-1.83863 -0.0542334 0)
(-1.72427 -0.0625008 0)
(-1.59436 -0.0676215 0)
(-1.45642 -0.0690294 0)
(-1.31901 -0.066661 0)
(-1.18968 -0.0616231 0)
(-1.07199 -0.0561911 0)
(-0.964368 -0.052427 0)
(-0.86225 -0.0510547 0)
(-0.761179 -0.051568 0)
(-0.658583 -0.0529963 0)
(-0.553994 -0.0544361 0)
(-0.448263 -0.0554762 0)
(-0.342583 -0.0560658 0)
(-0.238175 -0.056212 0)
(-0.13641 -0.0557365 0)
(-0.0384801 -0.0539823 0)
(0.0510226 -0.0504093 0)
(0.124968 -0.0410667 0)
(0.175753 -0.0200597 0)
(0.176296 0.0202571 0)
(0.106447 0.050352 0)
(-0.226864 0.0902457 0)
(-0.603503 0.471714 0)
(-1.13693 0.499032 0)
(-1.48942 0.40073 0)
(-1.70444 0.283422 0)
(-1.82868 0.187894 0)
(-1.89951 0.117489 0)
(-1.93293 0.0659775 0)
(-1.94271 0.0362519 0)
(-1.94785 0.0292246 0)
(-1.95785 0.0314902 0)
(-1.96892 0.0313686 0)
(-1.97595 0.0261536 0)
(-1.97719 0.0142216 0)
(-1.97168 -0.00475013 0)
(-1.95868 -0.0290743 0)
(-1.92797 -0.0558495 0)
(-1.87476 -0.083496 0)
(-1.7983 -0.109407 0)
(-1.7007 -0.130564 0)
(-1.58662 -0.144665 0)
(-1.46248 -0.150104 0)
(-1.33609 -0.146417 0)
(-1.21495 -0.136004 0)
(-1.10301 -0.124162 0)
(-0.999264 -0.115681 0)
(-0.899953 -0.112199 0)
(-0.801486 -0.112524 0)
(-0.701929 -0.114521 0)
(-0.601198 -0.116185 0)
(-0.500367 -0.116637 0)
(-0.400731 -0.11573 0)
(-0.303597 -0.113418 0)
(-0.210348 -0.10937 0)
(-0.122501 -0.102498 0)
(-0.0430191 -0.0909278 0)
(0.0236026 -0.0686663 0)
(0.070937 -0.0274347 0)
(0.094538 0.0431986 0)
(0.102382 0.126187 0)
(-0.424082 0.444714 0)
(-0.858827 0.793519 0)
(-1.28589 0.756924 0)
(-1.5513 0.5744 0)
(-1.71954 0.390608 0)
(-1.82764 0.25054 0)
(-1.89153 0.148496 0)
(-1.91396 0.0729212 0)
(-1.90644 0.0313444 0)
(-1.89228 0.025693 0)
(-1.88558 0.0316774 0)
(-1.88261 0.0305891 0)
(-1.87869 0.0234843 0)
(-1.87477 0.00973485 0)
(-1.86961 -0.0123979 0)
(-1.85831 -0.0434664 0)
(-1.83386 -0.0820774 0)
(-1.79097 -0.124185 0)
(-1.72726 -0.164635 0)
(-1.64346 -0.198447 0)
(-1.54304 -0.221807 0)
(-1.43135 -0.23199 0)
(-1.31576 -0.227796 0)
(-1.20401 -0.212726 0)
(-1.10011 -0.195304 0)
(-1.00289 -0.182967 0)
(-0.908717 -0.178062 0)
(-0.814523 -0.178577 0)
(-0.718987 -0.181228 0)
(-0.622567 -0.182955 0)
(-0.526722 -0.182561 0)
(-0.432861 -0.179897 0)
(-0.342342 -0.174891 0)
(-0.256657 -0.167171 0)
(-0.177359 -0.155627 0)
(-0.106272 -0.137554 0)
(-0.0457311 -0.106689 0)
(8.40534e-05 -0.0548752 0)
(0.0242445 0.0327518 0)
(0.0518341 0.1733 0)
(-0.47631 0.871615 0)
(-0.890864 1.11603 0)
(-1.24769 0.984155 0)
(-1.4906 0.714133 0)
(-1.66899 0.464282 0)
(-1.79721 0.281457 0)
(-1.8702 0.154802 0)
(-1.88389 0.0647588 0)
(-1.85923 0.0132563 0)
(-1.83189 0.0117515 0)
(-1.81538 0.024495 0)
(-1.80635 0.0243844 0)
(-1.79489 0.0180562 0)
(-1.78394 0.00495489 0)
(-1.77323 -0.0189042 0)
(-1.75948 -0.0556409 0)
(-1.73727 -0.103788 0)
(-1.70118 -0.158591 0)
(-1.64733 -0.212945 0)
(-1.57501 -0.259617 0)
(-1.48646 -0.29309 0)
(-1.38593 -0.309385 0)
(-1.28056 -0.305877 0)
(-1.17842 -0.286859 0)
(-1.08329 -0.264472 0)
(-0.993529 -0.248909 0)
(-0.905377 -0.243217 0)
(-0.816059 -0.244402 0)
(-0.724701 -0.24801 0)
(-0.632479 -0.24974 0)
(-0.541346 -0.248247 0)
(-0.452763 -0.2435 0)
(-0.368054 -0.235388 0)
(-0.28878 -0.223472 0)
(-0.216571 -0.206749 0)
(-0.1527 -0.182529 0)
(-0.0969973 -0.144043 0)
(-0.0512459 -0.081358 0)
(-0.023756 0.0201013 0)
(0.00211773 0.179923 0)
(-0.443002 1.30212 0)
(-0.781034 1.40767 0)
(-1.06765 1.18273 0)
(-1.28801 0.845942 0)
(-1.49687 0.560868 0)
(-1.68069 0.359565 0)
(-1.79235 0.215408 0)
(-1.7934 0.0775834 0)
(-1.77516 -0.00418643 0)
(-1.76145 -0.00570917 0)
(-1.73803 0.0121623 0)
(-1.7269 0.0122496 0)
(-1.71238 0.0067385 0)
(-1.69649 -0.00625532 0)
(-1.67908 -0.0307096 0)
(-1.66002 -0.0699531 0)
(-1.63708 -0.12391 0)
(-1.6052 -0.188301 0)
(-1.5592 -0.254755 0)
(-1.49706 -0.313461 0)
(-1.41994 -0.35695 0)
(-1.33095 -0.379361 0)
(-1.23646 -0.376688 0)
(-1.14421 -0.35426 0)
(-1.05717 -0.328291 0)
(-0.973906 -0.311318 0)
(-0.891617 -0.305806 0)
(-0.807472 -0.307989 0)
(-0.720462 -0.312667 0)
(-0.632603 -0.314124 0)
(-0.546272 -0.311157 0)
(-0.46279 -0.30401 0)
(-0.383286 -0.292468 0)
(-0.309387 -0.27595 0)
(-0.24282 -0.253678 0)
(-0.184636 -0.223736 0)
(-0.133632 -0.180227 0)
(-0.0874755 -0.110396 0)
(-0.0521057 0.00196313 0)
(-0.0245954 0.154509 0)
(-0.36241 1.66901 0)
(-0.590993 1.63455 0)
(-0.779361 1.34602 0)
(-0.943951 0.996698 0)
(-1.1947 0.698232 0)
(-1.4276 0.463922 0)
(-1.43463 0.256717 0)
(-1.39639 0.0933704 0)
(-1.5337 0.0326856 0)
(-1.67185 0.0293298 0)
(-1.59182 0.0336144 0)
(-1.60153 0.0136978 0)
(-1.6167 -0.00348043 0)
(-1.61165 -0.0203982 0)
(-1.58681 -0.0476989 0)
(-1.55807 -0.0892381 0)
(-1.53164 -0.145057 0)
(-1.50197 -0.215028 0)
(-1.4626 -0.290644 0)
(-1.40977 -0.359526 0)
(-1.34444 -0.411956 0)
(-1.26877 -0.441036 0)
(-1.18745 -0.4389 0)
(-1.105 -0.413346 0)
(-1.02343 -0.38478 0)
(-0.944583 -0.366655 0)
(-0.866672 -0.363762 0)
(-0.787719 -0.368156 0)
(-0.705642 -0.374159 0)
(-0.623113 -0.374955 0)
(-0.542296 -0.37027 0)
(-0.464172 -0.360735 0)
(-0.389533 -0.345827 0)
(-0.320131 -0.324664 0)
(-0.257973 -0.29677 0)
(-0.20397 -0.26128 0)
(-0.156924 -0.214145 0)
(-0.111549 -0.143783 0)
(-0.0649355 -0.0277283 0)
(-0.0241581 0.120059 0)
(-0.26206 1.93052 0)
(-0.384204 1.77713 0)
(-0.479504 1.4503 0)
(-0.540812 1.18302 0)
(-0.724096 0.973438 0)
(-0.606423 0.695199 0)
(-0.537032 0.292744 0)
(-0.437863 0.0771305 0)
(-0.398785 0.00208819 0)
(-0.21914 0.024164 0)
(-0.764963 0.168255 0)
(-1.29457 0.0702392 0)
(-1.47035 0.0202802 0)
(-1.50307 -0.0162118 0)
(-1.48512 -0.0575728 0)
(-1.45169 -0.104622 0)
(-1.41903 -0.165871 0)
(-1.38989 -0.239782 0)
(-1.35681 -0.321614 0)
(-1.31303 -0.398288 0)
(-1.2584 -0.457409 0)
(-1.19644 -0.492817 0)
(-1.12927 -0.495766 0)
(-1.05549 -0.470036 0)
(-0.980111 -0.440505 0)
(-0.90521 -0.420014 0)
(-0.830694 -0.415355 0)
(-0.755572 -0.422492 0)
(-0.679292 -0.431273 0)
(-0.60449 -0.431217 0)
(-0.53067 -0.425019 0)
(-0.458606 -0.413646 0)
(-0.388745 -0.395951 0)
(-0.323135 -0.37044 0)
(-0.264362 -0.337014 0)
(-0.213486 -0.296188 0)
(-0.169194 -0.245634 0)
(-0.127189 -0.177276 0)
(-0.0784572 -0.0679838 0)
(-0.0238405 0.105926 0)
(-0.158813 2.07927 0)
(-0.197513 1.85143 0)
(-0.228712 1.5069 0)
(-0.287614 1.27932 0)
(-0.440167 0.906607 0)
(-0.149046 0.453539 0)
(-0.0791292 0.173348 0)
(-0.00911211 0.0182135 0)
(0.0596375 0.0011008 0)
(0.189897 0.0773027 0)
(0.27121 0.252324 0)
(0.22988 0.491508 0)
(-0.287319 0.314847 0)
(-1.0277 0.026623 0)
(-1.36177 -0.06025 0)
(-1.33304 -0.110557 0)
(-1.29736 -0.177564 0)
(-1.26839 -0.258571 0)
(-1.24134 -0.347227 0)
(-1.20711 -0.430539 0)
(-1.16212 -0.495057 0)
(-1.11071 -0.535083 0)
(-1.05312 -0.544992 0)
(-0.989523 -0.521638 0)
(-0.923421 -0.492913 0)
(-0.85852 -0.474942 0)
(-0.787854 -0.468688 0)
(-0.711953 -0.474958 0)
(-0.643244 -0.481973 0)
(-0.578863 -0.481226 0)
(-0.513725 -0.474505 0)
(-0.448594 -0.462489 0)
(-0.383597 -0.443177 0)
(-0.321141 -0.414119 0)
(-0.264729 -0.375386 0)
(-0.215895 -0.329288 0)
(-0.173486 -0.275173 0)
(-0.134524 -0.206832 0)
(-0.0935496 -0.107303 0)
(-0.0497997 0.0580047 0)
(-0.0563151 2.13613 0)
(-0.0387685 1.87473 0)
(-0.0452218 1.56205 0)
(-0.209298 1.28855 0)
(-0.264006 0.779351 0)
(-0.0478515 0.276813 0)
(0.115988 0.0908562 0)
(0.190461 -0.0449545 0)
(0.252224 -0.0662296 0)
(0.339896 0.0342651 0)
(0.44252 0.221957 0)
(0.545335 0.462754 0)
(0.494936 0.741158 0)
(-0.00899287 0.607712 0)
(-0.687706 0.138231 0)
(-1.12387 -0.128301 0)
(-1.16499 -0.182954 0)
(-1.14232 -0.269134 0)
(-1.11927 -0.36535 0)
(-1.09413 -0.456426 0)
(-1.05872 -0.526239 0)
(-1.01581 -0.569982 0)
(-0.968313 -0.584854 0)
(-0.916663 -0.564417 0)
(-0.858734 -0.535385 0)
(-0.800862 -0.521029 0)
(-0.732575 -0.523645 0)
(-0.664509 -0.527093 0)
(-0.605945 -0.526605 0)
(-0.550609 -0.524268 0)
(-0.49469 -0.518088 0)
(-0.437191 -0.50696 0)
(-0.377457 -0.487529 0)
(-0.317637 -0.456174 0)
(-0.262057 -0.413157 0)
(-0.213396 -0.362039 0)
(-0.171235 -0.303814 0)
(-0.133136 -0.234373 0)
(-0.0954614 -0.140601 0)
(-0.0526821 0.00176997 0)
(0.0321832 2.09668 0)
(0.097572 1.90324 0)
(0.0784388 1.65718 0)
(-0.105756 1.3292 0)
(-0.111143 0.752492 0)
(-0.0737166 0.242023 0)
(0.0468051 -0.0207701 0)
(0.204124 -0.0984486 0)
(0.302859 -0.120996 0)
(0.373871 -0.0299612 0)
(0.436959 0.1682 0)
(0.523317 0.440205 0)
(0.541714 0.788987 0)
(0.396813 1.0082 0)
(-0.244102 0.630079 0)
(-0.804342 0.0757083 0)
(-0.996128 -0.172245 0)
(-1.01486 -0.274155 0)
(-0.998117 -0.377126 0)
(-0.978475 -0.475772 0)
(-0.952688 -0.551331 0)
(-0.918455 -0.598417 0)
(-0.881299 -0.616238 0)
(-0.837921 -0.601134 0)
(-0.788055 -0.574205 0)
(-0.73329 -0.563096 0)
(-0.673056 -0.567836 0)
(-0.620177 -0.568455 0)
(-0.570904 -0.564809 0)
(-0.523122 -0.561092 0)
(-0.475768 -0.555647 0)
(-0.426636 -0.546426 0)
(-0.373706 -0.529069 0)
(-0.316796 -0.496301 0)
(-0.25988 -0.449849 0)
(-0.207715 -0.395759 0)
(-0.163031 -0.333672 0)
(-0.124817 -0.261847 0)
(-0.0880935 -0.173219 0)
(-0.0444598 -0.0420595 0)
(0.0455829 -0.157531 0)
(0.0968281 -0.122889 0)
(0.0584863 -0.193355 0)
(0.112181 -0.172306 0)
(0.0535653 -0.230706 0)
(0.10012 -0.215019 0)
(0.0346053 -0.263451 0)
(0.070275 -0.24718 0)
(0.00646707 -0.289244 0)
(0.0307264 -0.268122 0)
(-0.0277412 -0.307749 0)
(-0.013838 -0.280503 0)
(-0.0666908 -0.319218 0)
(-0.0607634 -0.288166 0)
(-0.110045 -0.324155 0)
(-0.109529 -0.289826 0)
(-0.158984 -0.322861 0)
(-0.161942 -0.280507 0)
(-0.21486 -0.315472 0)
(-0.219623 -0.257504 0)
(-0.282286 -0.237146 0)
(-0.344334 -0.228965 0)
(-0.398558 -0.223449 0)
(-0.438391 -0.213155 0)
(-0.461885 -0.175746 0)
(-0.463697 -0.154216 0)
(-0.45778 -0.129293 0)
(-0.447942 -0.10496 0)
(-0.433582 -0.0865065 0)
(-0.414086 -0.0699662 0)
(-0.39706 -0.0572644 0)
(-0.380168 -0.0430701 0)
(-0.354329 -0.0304105 0)
(-0.206396 0.0504721 0)
(-0.0937235 0.172383 0)
(0.00901235 0.265246 0)
(0.0999912 0.329277 0)
(0.171799 0.368497 0)
(0.222571 0.390295 0)
(0.255622 0.400517 0)
(0.274783 0.403115 0)
(0.282974 0.401262 0)
(0.282774 0.397228 0)
(0.194702 -0.0968595 0)
(0.299624 -0.0649804 0)
(0.404736 -0.0197152 0)
(0.144823 0.166881 0)
(0.182047 -0.141481 0)
(0.245201 -0.0929626 0)
(0.279229 0.020743 0)
(0.133461 0.322932 0)
(0.146862 -0.182294 0)
(0.184243 -0.116141 0)
(0.190399 0.0366958 0)
(0.0824464 0.416125 0)
(0.0992054 -0.20755 0)
(0.122929 -0.126583 0)
(0.109377 0.0577158 0)
(0.020467 0.479331 0)
(0.0465959 -0.219803 0)
(0.0706295 -0.140059 0)
(0.0470602 0.0979918 0)
(-0.0632571 0.533391 0)
(-0.00553786 -0.226743 0)
(0.0259132 -0.151681 0)
(0.0122702 0.294661 0)
(-0.123869 0.588712 0)
(-0.0582389 -0.234138 0)
(0.0843959 -0.139841 0)
(0.325448 -0.00760631 0)
(-0.102355 0.676179 0)
(-0.111516 -0.239491 0)
(-0.0418366 -0.329851 0)
(0.121037 -0.202275 0)
(0.113382 0.891929 0)
(-0.171681 -0.253226 0)
(-0.136289 -0.386246 0)
(-0.19974 -0.154105 0)
(0.219825 0.79195 0)
(-0.25038 -0.33184 0)
(-0.251655 -0.379446 0)
(-0.327999 -0.171041 0)
(-0.0920982 0.42016 0)
(-0.324191 -0.333446 0)
(-0.34843 -0.333223 0)
(-0.41917 -0.163888 0)
(-0.321256 0.231018 0)
(-0.393251 -0.305273 0)
(-0.428406 -0.275594 0)
(-0.496647 -0.13907 0)
(-0.4756 0.104708 0)
(-0.462956 -0.262678 0)
(-0.501119 -0.215323 0)
(-0.572228 -0.0973913 0)
(-0.610168 0.0746783 0)
(-0.524784 -0.214346 0)
(-0.556137 -0.152159 0)
(-0.625349 -0.0364687 0)
(-0.689146 0.0991447 0)
(-0.53442 -0.166735 0)
(-0.581332 -0.0909016 0)
(-0.636701 0.0317365 0)
(-0.707575 0.150092 0)
(-0.484219 -0.148493 0)
(-0.58414 -0.0396567 0)
(-0.595815 0.0900129 0)
(-0.648195 0.209446 0)
(-0.47824 -0.109002 0)
(-0.595127 0.0134457 0)
(-0.550786 0.138804 0)
(-0.560559 0.256085 0)
(-0.460049 -0.0589217 0)
(-0.513021 -0.0386339 0)
(-0.537649 0.149484 0)
(-0.510081 0.274729 0)
(-0.440295 -0.0324799 0)
(-0.45301 -0.00224117 0)
(-0.558265 0.160287 0)
(-0.482817 0.275255 0)
(-0.42205 -0.0147451 0)
(-0.423674 0.0381515 0)
(-0.447929 0.0767801 0)
(-0.458901 0.273485 0)
(-0.399722 -0.00360436 0)
(-0.402004 0.0519363 0)
(-0.397727 0.103025 0)
(-0.423779 0.184485 0)
(-0.378698 0.00486608 0)
(-0.377558 0.058805 0)
(-0.373865 0.114083 0)
(-0.363067 0.162971 0)
(-0.360649 0.0134995 0)
(-0.352825 0.0631253 0)
(-0.346449 0.116341 0)
(-0.337225 0.169974 0)
(-0.339901 0.0152729 0)
(-0.332975 0.0669321 0)
(-0.319469 0.116361 0)
(-0.307667 0.167134 0)
(-0.187972 0.0827511 0)
(-0.315581 0.0572594 0)
(-0.299669 0.11427 0)
(-0.279351 0.163259 0)
(-0.0718296 0.200942 0)
(-0.154619 0.120704 0)
(-0.285588 0.0929101 0)
(-0.262189 0.153444 0)
(0.0402262 0.289454 0)
(-0.02879 0.235076 0)
(-0.101509 0.157633 0)
(-0.226399 0.109536 0)
(0.134835 0.344618 0)
(0.0882142 0.311058 0)
(0.0320034 0.26232 0)
(-0.0343836 0.189871 0)
(0.202896 0.375881 0)
(0.174815 0.35409 0)
(0.137118 0.322538 0)
(0.0863047 0.279346 0)
(0.246772 0.393031 0)
(0.231805 0.37855 0)
(0.20897 0.357113 0)
(0.17606 0.329209 0)
(0.272361 0.401043 0)
(0.265286 0.392707 0)
(0.252497 0.377884 0)
(0.232847 0.357724 0)
(0.284119 0.4033 0)
(0.281484 0.399968 0)
(0.27428 0.390901 0)
(0.261933 0.376346 0)
(0.28549 0.40263 0)
(0.28496 0.4034 0)
(0.280535 0.39922 0)
(0.27163 0.389988 0)
(0.0660083 1.98745 0)
(0.211478 1.91152 0)
(0.198213 1.71567 0)
(0.0935669 1.38298 0)
(0.10872 0.682576 0)
(0.126696 0.212428 0)
(0.128863 -0.0533025 0)
(0.0801882 -0.223089 0)
(0.249018 -0.185629 0)
(0.31277 -0.070913 0)
(0.347987 0.132068 0)
(0.385254 0.425747 0)
(0.393422 0.780353 0)
(0.349653 1.25967 0)
(-0.121133 1.06836 0)
(-0.592141 0.377207 0)
(-0.833872 -0.0816733 0)
(-0.886647 -0.26684 0)
(-0.880769 -0.38468 0)
(-0.864718 -0.489704 0)
(-0.846292 -0.570704 0)
(-0.820547 -0.621463 0)
(-0.791409 -0.642899 0)
(-0.75556 -0.632044 0)
(-0.713616 -0.608527 0)
(-0.664645 -0.60159 0)
(-0.618512 -0.603308 0)
(-0.576367 -0.601076 0)
(-0.534977 -0.596449 0)
(-0.495691 -0.592202 0)
(-0.456954 -0.587305 0)
(-0.416612 -0.579995 0)
(-0.373038 -0.566652 0)
(-0.322119 -0.538093 0)
(-0.261397 -0.488139 0)
(-0.200187 -0.429428 0)
(-0.148781 -0.364571 0)
(-0.109312 -0.290014 0)
(-0.0780431 -0.204309 0)
(-0.0400536 -0.0835563 0)
(0.0997137 1.85397 0)
(0.29525 1.89789 0)
(0.298529 1.7357 0)
(0.300334 1.40766 0)
(0.338227 0.689097 0)
(0.278086 0.252744 0)
(0.254006 -0.0161151 0)
(0.182474 -0.200103 0)
(0.1049 -0.322011 0)
(0.177514 -0.10697 0)
(0.182305 0.117865 0)
(0.177677 0.425825 0)
(0.183664 0.822086 0)
(0.10398 1.38969 0)
(-0.182445 1.34625 0)
(-0.477919 0.641044 0)
(-0.722516 0.0520953 0)
(-0.771081 -0.248659 0)
(-0.768579 -0.390222 0)
(-0.756062 -0.500633 0)
(-0.742252 -0.585255 0)
(-0.723451 -0.639095 0)
(-0.699757 -0.665046 0)
(-0.672821 -0.658403 0)
(-0.639559 -0.636394 0)
(-0.600569 -0.632526 0)
(-0.565478 -0.632823 0)
(-0.530464 -0.628841 0)
(-0.497847 -0.622632 0)
(-0.467661 -0.617478 0)
(-0.437616 -0.613001 0)
(-0.405652 -0.607323 0)
(-0.370595 -0.597748 0)
(-0.329416 -0.579143 0)
(-0.272639 -0.53881 0)
(-0.197052 -0.471839 0)
(-0.130295 -0.393819 0)
(-0.085062 -0.314485 0)
(-0.0609453 -0.230446 0)
(-0.0386505 -0.120988 0)
(0.117042 1.71243 0)
(0.339509 1.84804 0)
(0.372719 1.70993 0)
(0.447387 1.38803 0)
(0.540634 0.713717 0)
(0.411285 0.311252 0)
(0.381829 0.0455635 0)
(0.304705 -0.132817 0)
(0.177229 -0.276878 0)
(0.0114926 -0.0825247 0)
(-0.0186161 0.116143 0)
(-0.0830281 0.43215 0)
(-0.106265 0.895675 0)
(-0.186116 1.47638 0)
(-0.317029 1.46527 0)
(-0.439233 0.81336 0)
(-0.636801 0.174329 0)
(-0.675994 -0.240324 0)
(-0.665418 -0.396589 0)
(-0.655278 -0.510336 0)
(-0.644972 -0.596383 0)
(-0.631419 -0.652318 0)
(-0.613823 -0.68127 0)
(-0.593842 -0.679298 0)
(-0.571032 -0.657977 0)
(-0.540736 -0.656277 0)
(-0.512676 -0.656851 0)
(-0.484418 -0.650841 0)
(-0.46056 -0.64241 0)
(-0.439512 -0.636441 0)
(-0.417841 -0.632881 0)
(-0.393182 -0.629285 0)
(-0.364251 -0.622856 0)
(-0.33009 -0.611352 0)
(-0.284629 -0.589307 0)
(-0.21471 -0.541269 0)
(-0.119877 -0.43802 0)
(-0.0529101 -0.330756 0)
(-0.0297412 -0.244853 0)
(-0.0292161 -0.161 0)
(0.102915 1.56238 0)
(0.341805 1.75964 0)
(0.415181 1.65545 0)
(0.566474 1.34181 0)
(0.63985 0.725486 0)
(0.530283 0.360685 0)
(0.49977 0.113791 0)
(0.430126 -0.0502682 0)
(0.289071 -0.174292 0)
(0.0293662 0.0543502 0)
(-0.140564 0.188392 0)
(-0.347632 0.462084 0)
(-0.448477 0.940099 0)
(-0.486752 1.51214 0)
(-0.447334 1.4622 0)
(-0.432514 0.89218 0)
(-0.551069 0.26639 0)
(-0.589277 -0.232916 0)
(-0.572496 -0.406344 0)
(-0.563947 -0.519234 0)
(-0.55673 -0.604644 0)
(-0.547861 -0.661845 0)
(-0.536289 -0.691649 0)
(-0.52494 -0.692397 0)
(-0.508884 -0.675392 0)
(-0.484713 -0.6758 0)
(-0.461495 -0.676403 0)
(-0.439657 -0.667302 0)
(-0.424298 -0.655588 0)
(-0.412213 -0.649047 0)
(-0.39839 -0.647351 0)
(-0.380071 -0.646981 0)
(-0.356135 -0.644459 0)
(-0.326075 -0.637578 0)
(-0.287819 -0.625031 0)
(-0.235491 -0.599253 0)
(-0.151287 -0.536505 0)
(-0.0267284 -0.366427 0)
(0.0257938 -0.238071 0)
(0.00937831 -0.1802 0)
(0.0652346 1.40365 0)
(0.307377 1.63983 0)
(0.419788 1.55875 0)
(0.625094 1.22394 0)
(0.652162 0.726691 0)
(0.623164 0.400968 0)
(0.589405 0.174441 0)
(0.530234 0.029718 0)
(0.340033 -0.0442437 0)
(0.0331191 0.224275 0)
(-0.148162 0.423803 0)
(-0.439116 0.65825 0)
(-0.634068 1.05618 0)
(-0.649963 1.47012 0)
(-0.517826 1.38064 0)
(-0.426647 0.895328 0)
(-0.467426 0.317458 0)
(-0.512988 -0.213887 0)
(-0.489233 -0.41946 0)
(-0.482401 -0.527627 0)
(-0.477501 -0.610244 0)
(-0.472902 -0.667514 0)
(-0.467036 -0.698425 0)
(-0.465147 -0.699963 0)
(-0.451239 -0.687378 0)
(-0.432548 -0.692102 0)
(-0.413269 -0.692113 0)
(-0.397873 -0.678271 0)
(-0.390845 -0.662113 0)
(-0.387084 -0.65561 0)
(-0.380193 -0.65688 0)
(-0.367266 -0.660862 0)
(-0.347896 -0.663167 0)
(-0.322342 -0.661428 0)
(-0.289774 -0.654488 0)
(-0.246404 -0.63955 0)
(-0.186147 -0.603788 0)
(-0.0821226 -0.501945 0)
(0.0741452 -0.238548 0)
(0.0902827 -0.125611 0)
(0.0457851 1.24073 0)
(0.26683 1.49108 0)
(0.432632 1.40829 0)
(0.613379 1.09433 0)
(0.67386 0.730453 0)
(0.677422 0.434323 0)
(0.649887 0.228156 0)
(0.600748 0.119148 0)
(0.364947 0.119863 0)
(-0.00660547 0.427935 0)
(-0.240586 0.61853 0)
(-0.528229 0.844969 0)
(-0.708348 1.15228 0)
(-0.691768 1.3918 0)
(-0.532827 1.26659 0)
(-0.411823 0.851199 0)
(-0.400775 0.333656 0)
(-0.446981 -0.17251 0)
(-0.415541 -0.435866 0)
(-0.409227 -0.536026 0)
(-0.405654 -0.613714 0)
(-0.40465 -0.669806 0)
(-0.40391 -0.70146 0)
(-0.407565 -0.70317 0)
(-0.398193 -0.695914 0)
(-0.383829 -0.705132 0)
(-0.369105 -0.703365 0)
(-0.361977 -0.683362 0)
(-0.362842 -0.663143 0)
(-0.365168 -0.657538 0)
(-0.3634 -0.662493 0)
(-0.354622 -0.671392 0)
(-0.339366 -0.678495 0)
(-0.319282 -0.681455 0)
(-0.294167 -0.680509 0)
(-0.260628 -0.673358 0)
(-0.214914 -0.649833 0)
(-0.145781 -0.576901 0)
(-0.0552811 -0.340755 0)
(0.130042 -0.0633133 0)
(0.0650562 1.09696 0)
(0.259996 1.31988 0)
(0.456864 1.26637 0)
(0.607456 1.02278 0)
(0.684252 0.718514 0)
(0.708762 0.451275 0)
(0.68598 0.268857 0)
(0.63082 0.201296 0)
(0.24286 0.378717 0)
(-0.0986065 0.664735 0)
(-0.358144 0.827864 0)
(-0.597858 1.0081 0)
(-0.718377 1.20776 0)
(-0.667103 1.30806 0)
(-0.511168 1.15039 0)
(-0.385909 0.78686 0)
(-0.346942 0.325766 0)
(-0.37664 -0.148047 0)
(-0.347693 -0.452557 0)
(-0.341629 -0.543854 0)
(-0.339376 -0.61549 0)
(-0.341568 -0.669188 0)
(-0.344883 -0.700129 0)
(-0.351317 -0.70259 0)
(-0.348847 -0.702191 0)
(-0.337525 -0.714219 0)
(-0.32909 -0.710586 0)
(-0.330889 -0.684376 0)
(-0.339615 -0.658979 0)
(-0.345302 -0.656814 0)
(-0.345824 -0.665922 0)
(-0.340178 -0.679459 0)
(-0.328726 -0.690407 0)
(-0.314832 -0.696105 0)
(-0.299046 -0.699256 0)
(-0.277148 -0.69948 0)
(-0.244142 -0.68763 0)
(-0.200182 -0.634645 0)
(-0.118796 -0.447872 0)
(0.0940868 -0.0844483 0)
(0.12159 1.01083 0)
(0.287243 1.16676 0)
(0.47196 1.1419 0)
(0.614019 0.950011 0)
(0.702088 0.691079 0)
(0.734258 0.454927 0)
(0.696659 0.30196 0)
(0.556398 0.396368 0)
(0.0927586 0.686891 0)
(-0.225178 0.89587 0)
(-0.460018 1.01262 0)
(-0.631589 1.12583 0)
(-0.686432 1.22224 0)
(-0.609606 1.22098 0)
(-0.465496 1.04178 0)
(-0.346297 0.717067 0)
(-0.293554 0.305757 0)
(-0.301947 -0.138501 0)
(-0.281722 -0.465059 0)
(-0.277602 -0.54887 0)
(-0.278051 -0.614813 0)
(-0.283379 -0.665875 0)
(-0.290552 -0.695671 0)
(-0.300554 -0.699274 0)
(-0.300709 -0.705272 0)
(-0.292768 -0.719866 0)
(-0.291689 -0.714923 0)
(-0.295077 -0.679981 0)
(-0.311343 -0.645147 0)
(-0.321386 -0.653061 0)
(-0.32252 -0.66797 0)
(-0.319653 -0.685802 0)
(-0.312878 -0.698677 0)
(-0.306543 -0.704296 0)
(-0.301548 -0.709348 0)
(-0.291665 -0.715642 0)
(-0.270086 -0.71513 0)
(-0.235502 -0.685648 0)
(-0.152328 -0.543161 0)
(-0.0103755 -0.0714491 0)
(0.181052 0.961558 0)
(0.320402 1.0738 0)
(0.483875 1.04657 0)
(0.630119 0.884622 0)
(0.730551 0.659384 0)
(0.755362 0.450635 0)
(0.619886 0.383859 0)
(0.329185 0.672443 0)
(-0.0853398 0.974724 0)
(-0.360634 1.09927 0)
(-0.534791 1.15023 0)
(-0.631064 1.18992 0)
(-0.628823 1.20066 0)
(-0.535851 1.13173 0)
(-0.404288 0.941812 0)
(-0.293814 0.647384 0)
(-0.233765 0.277959 0)
(-0.225278 -0.139019 0)
(-0.219469 -0.474391 0)
(-0.218328 -0.550092 0)
(-0.221812 -0.611158 0)
(-0.230008 -0.659947 0)
(-0.241623 -0.688919 0)
(-0.253569 -0.693371 0)
(-0.25371 -0.706509 0)
(-0.250132 -0.722604 0)
(-0.255347 -0.715772 0)
(-0.248264 -0.666242 0)
(-0.253516 -0.636056 0)
(-0.280423 -0.64231 0)
(-0.287518 -0.666281 0)
(-0.287113 -0.688884 0)
(-0.287697 -0.701074 0)
(-0.293076 -0.703014 0)
(-0.301641 -0.70935 0)
(-0.303773 -0.722853 0)
(-0.291735 -0.734234 0)
(-0.262144 -0.723254 0)
(-0.202976 -0.614108 0)
(-0.158896 -0.196341 0)
(0.170125 0.892088 0)
(0.325305 1.00336 0)
(0.503013 0.969398 0)
(0.677997 0.822473 0)
(0.776932 0.61081 0)
(0.654262 0.482921 0)
(0.35151 0.613749 0)
(-0.0267131 0.958544 0)
(-0.331064 1.20116 0)
(-0.494794 1.24291 0)
(-0.582708 1.2282 0)
(-0.60465 1.20298 0)
(-0.55724 1.152 0)
(-0.455001 1.04231 0)
(-0.33481 0.849811 0)
(-0.233658 0.579802 0)
(-0.170819 0.24595 0)
(-0.147178 -0.131389 0)
(-0.161722 -0.478146 0)
(-0.164319 -0.547494 0)
(-0.170083 -0.604547 0)
(-0.180394 -0.651675 0)
(-0.196327 -0.680024 0)
(-0.20873 -0.686155 0)
(-0.208095 -0.706494 0)
(-0.209532 -0.722747 0)
(-0.215688 -0.714451 0)
(-0.20804 -0.665874 0)
(-0.19835 -0.635596 0)
(-0.211391 -0.624725 0)
(-0.230246 -0.656811 0)
(-0.236996 -0.684002 0)
(-0.249157 -0.693881 0)
(-0.275522 -0.690609 0)
(-0.302826 -0.698384 0)
(-0.31553 -0.722214 0)
(-0.309118 -0.747767 0)
(-0.282424 -0.755391 0)
(-0.226007 -0.684267 0)
(-0.11232 -0.351337 0)
(-0.00764823 0.53285 0)
(0.233552 0.815534 0)
(0.43549 0.76456 0)
(0.536556 0.620963 0)
(0.459674 0.589592 0)
(0.23791 0.717189 0)
(-0.111554 0.949922 0)
(-0.405355 1.21028 0)
(-0.552233 1.32919 0)
(-0.598556 1.3039 0)
(-0.599527 1.24117 0)
(-0.558432 1.1722 0)
(-0.478493 1.0843 0)
(-0.372199 0.954286 0)
(-0.262608 0.765265 0)
(-0.171761 0.515782 0)
(-0.11082 0.211363 0)
(-0.0726975 -0.13409 0)
(-0.107354 -0.473606 0)
(-0.114107 -0.539932 0)
(-0.121588 -0.595461 0)
(-0.133334 -0.641273 0)
(-0.151008 -0.669093 0)
(-0.162886 -0.680388 0)
(-0.161543 -0.705783 0)
(-0.167396 -0.721071 0)
(-0.166817 -0.709386 0)
(-0.155639 -0.676813 0)
(-0.137997 -0.641997 0)
(-0.136984 -0.61006 0)
(-0.15066 -0.642406 0)
(-0.166824 -0.671851 0)
(-0.189795 -0.67592 0)
(-0.255173 -0.665187 0)
(-0.31082 -0.679235 0)
(-0.327379 -0.718253 0)
(-0.321124 -0.760515 0)
(-0.292589 -0.790828 0)
(-0.226655 -0.756894 0)
(-0.0981275 -0.460423 0)
(-0.330778 0.36927 0)
(-0.0812496 0.576449 0)
(0.0664792 0.592522 0)
(0.0671279 0.644673 0)
(-0.0690822 0.782456 0)
(-0.297392 0.972007 0)
(-0.535198 1.17491 0)
(-0.670672 1.32437 0)
(-0.689062 1.35296 0)
(-0.647593 1.28722 0)
(-0.582011 1.19874 0)
(-0.496354 1.10799 0)
(-0.395988 1.00442 0)
(-0.290019 0.869191 0)
(-0.191208 0.688524 0)
(-0.111828 0.457666 0)
(-0.0579163 0.178345 0)
(-0.0148944 -0.139273 0)
(-0.0571536 -0.462744 0)
(-0.0637703 -0.526269 0)
(-0.0743684 -0.583817 0)
(-0.0878155 -0.629448 0)
(-0.105044 -0.658714 0)
(-0.114798 -0.676295 0)
(-0.112551 -0.706099 0)
(-0.114686 -0.723143 0)
(-0.0975352 -0.718951 0)
(-0.0793656 -0.697473 0)
(-0.0712821 -0.645361 0)
(-0.0639732 -0.603368 0)
(-0.0739103 -0.632828 0)
(-0.0879418 -0.657291 0)
(-0.105427 -0.644815 0)
(-0.221943 -0.597295 0)
(-0.321875 -0.652435 0)
(-0.329769 -0.718228 0)
(-0.32274 -0.775575 0)
(-0.294786 -0.829466 0)
(-0.229111 -0.840574 0)
(-0.104698 -0.588919 0)
(-0.580844 0.279034 0)
(-0.479697 0.492977 0)
(-0.409186 0.635229 0)
(-0.44446 0.778034 0)
(-0.554437 0.945696 0)
(-0.684797 1.11716 0)
(-0.780284 1.25815 0)
(-0.79426 1.33069 0)
(-0.735569 1.3064 0)
(-0.641241 1.21848 0)
(-0.533408 1.11934 0)
(-0.421463 1.02274 0)
(-0.311448 0.918573 0)
(-0.209428 0.788858 0)
(-0.122162 0.620486 0)
(-0.0550206 0.407308 0)
(-0.0110332 0.149733 0)
(0.0279291 -0.143816 0)
(-0.011079 -0.454162 0)
(-0.014711 -0.513368 0)
(-0.028082 -0.570169 0)
(-0.0439083 -0.616759 0)
(-0.0604583 -0.64935 0)
(-0.0679571 -0.674747 0)
(-0.0654574 -0.707514 0)
(-0.0587956 -0.726985 0)
(-0.0472072 -0.728256 0)
(-0.0328741 -0.715154 0)
(-0.00864571 -0.672909 0)
(0.00126116 -0.601763 0)
(-0.00913813 -0.622846 0)
(-0.0229093 -0.642678 0)
(-0.0436279 -0.612834 0)
(-0.110302 -0.453203 0)
(-0.302757 -0.623637 0)
(-0.30541 -0.720209 0)
(-0.303177 -0.790835 0)
(-0.283774 -0.863002 0)
(-0.231352 -0.921544 0)
(-0.114964 -0.722549 0)
(-0.717623 0.266864 0)
(-0.705629 0.470962 0)
(-0.701059 0.655727 0)
(-0.738842 0.834646 0)
(-0.796585 1.00805 0)
(-0.842353 1.15864 0)
(-0.849176 1.25982 0)
(-0.803343 1.28371 0)
(-0.712177 1.22591 0)
(-0.592256 1.12203 0)
(-0.461793 1.01944 0)
(-0.336825 0.928005 0)
(-0.225164 0.832198 0)
(-0.130701 0.715285 0)
(-0.0557436 0.561873 0)
(-0.000469861 0.365036 0)
(0.036969 0.125336 0)
(0.0809614 -0.148531 0)
(0.0349258 -0.447029 0)
(0.0302724 -0.501121 0)
(0.0149148 -0.554862 0)
(-0.00294723 -0.603516 0)
(-0.0195482 -0.640456 0)
(-0.0255493 -0.675398 0)
(-0.0224952 -0.710537 0)
(-0.0168482 -0.733498 0)
(-0.00892916 -0.738182 0)
(0.00270617 -0.722763 0)
(0.0228044 -0.683173 0)
(0.0403553 -0.620189 0)
(0.0368266 -0.6163 0)
(0.0206141 -0.631266 0)
(-0.0429204 -0.593778 0)
(-0.0286315 -0.311348 0)
(-0.237717 -0.566318 0)
(-0.254697 -0.719903 0)
(-0.262971 -0.80172 0)
(-0.260132 -0.886265 0)
(-0.232979 -0.989847 0)
(-0.126986 -0.861211 0)
(-0.757609 0.291479 0)
(-0.775726 0.47779 0)
(-0.790747 0.669164 0)
(-0.814166 0.854421 0)
(-0.831758 1.02256 0)
(-0.828394 1.15395 0)
(-0.794888 1.22514 0)
(-0.729628 1.21841 0)
(-0.633097 1.1349 0)
(-0.508809 1.01471 0)
(-0.374818 0.912401 0)
(-0.248131 0.832123 0)
(-0.140053 0.750561 0)
(-0.0553373 0.650475 0)
(0.00702118 0.512776 0)
(0.0513848 0.329434 0)
(0.0858286 0.102503 0)
(0.14469 -0.156249 0)
(0.0790418 -0.434232 0)
(0.0716604 -0.484465 0)
(0.0554 -0.537689 0)
(0.0358677 -0.589379 0)
(0.0181982 -0.631231 0)
(0.0136829 -0.674899 0)
(0.015941 -0.71324 0)
(0.0186968 -0.738589 0)
(0.0246362 -0.74596 0)
(0.0317144 -0.730335 0)
(0.0391446 -0.690807 0)
(0.0517461 -0.637939 0)
(0.0627693 -0.609506 0)
(0.0408226 -0.600029 0)
(-0.134581 -0.559892 0)
(-0.109067 -0.248497 0)
(-0.132242 -0.336308 0)
(-0.180546 -0.713597 0)
(-0.213538 -0.798428 0)
(-0.246442 -0.887225 0)
(-0.24528 -1.05297 0)
(-0.119218 -1.00598 0)
(-0.721687 0.32932 0)
(-0.747867 0.494999 0)
(-0.758175 0.680355 0)
(-0.761112 0.859854 0)
(-0.748856 1.0141 0)
(-0.715266 1.12528 0)
(-0.661687 1.17612 0)
(-0.59058 1.15082 0)
(-0.496232 1.04588 0)
(-0.383405 0.896898 0)
(-0.277399 0.794854 0)
(-0.167203 0.736356 0)
(-0.0653245 0.675797 0)
(0.011981 0.59542 0)
(0.0631314 0.472944 0)
(0.0974649 0.299297 0)
(0.130016 0.0788116 0)
(0.207687 -0.166904 0)
(0.121463 -0.412383 0)
(0.111027 -0.462141 0)
(0.0951644 -0.518714 0)
(0.0738323 -0.574044 0)
(0.0568165 -0.623242 0)
(0.0520281 -0.673333 0)
(0.0522831 -0.713584 0)
(0.0531653 -0.740596 0)
(0.0564002 -0.748775 0)
(0.0548572 -0.734185 0)
(0.0474891 -0.698191 0)
(0.0446465 -0.644942 0)
(0.0530228 -0.593127 0)
(-0.0232203 -0.445268 0)
(-0.135465 -0.425103 0)
(-0.178333 -0.308561 0)
(-0.173052 -0.405564 0)
(-0.256073 -0.633166 0)
(-0.26348 -0.768559 0)
(-0.367299 -0.84394 0)
(-0.317533 -1.14903 0)
(-0.0447341 -1.15806 0)
(-0.611943 0.36421 0)
(-0.663146 0.516699 0)
(-0.663083 0.682559 0)
(-0.645694 0.846473 0)
(-0.608642 0.983637 0)
(-0.55111 1.07799 0)
(-0.480809 1.11632 0)
(-0.403783 1.0792 0)
(-0.2996 0.957308 0)
(-0.22624 0.829333 0)
(-0.168749 0.723995 0)
(-0.100673 0.644785 0)
(-0.00959641 0.590816 0)
(0.0630526 0.54415 0)
(0.109798 0.440078 0)
(0.136471 0.274545 0)
(0.167317 0.0574703 0)