/*--------------------------------*- C++ -*----------------------------------*\
| =========                 |                                                 |
| \\      /  F ield         | OpenFOAM: The Open Source CFD Toolbox           |
|  \\    /   O peration     | Version:  5.0                                   |
|   \\  /    A nd           | Web:      www.OpenFOAM.org                      |
|    \\/     M anipulation  |                                                 |
\*---------------------------------------------------------------------------*/
FoamFile
{
    version     2.0;
    format      ascii;
    class       surfaceScalarField;
    location    "0.15";
    object      alphaPhi10;
}
// * * * * * * * * * * * * * * * * * * * * * * * * * * * * * * * * * * * * * //

dimensions      [0 3 -1 0 0 0 0];

internalField   nonuniform List<scalar> 
3731
(
2.59129e-07
8.85671e-07
2.59129e-07
2.94273e-07
1.07681e-06
4.26869e-07
9.35245e-07
-2.33759e-08
1.16295e-06
3.19873e-07
-1.20061e-07
3.73596e-07
4.07432e-08
-1.58482e-08
4.39915e-09
2.56881e-09
-4.06537e-09
1.77233e-09
-1.2127e-09
-4.25327e-10
3.71827e-10
-5.48311e-10
1.34158e-10
2.74375e-10
-7.44043e-11
4.99998e-12
1.99273e-10
5.85861e-11
2.22942e-11
2.56441e-10
-8.98367e-32
6.26946e-33
7.17152e-31
-4.41478e-30
4.672e-29
-1.05802e-28
1.07248e-28
-1.82303e-28
5.39262e-29
-9.54993e-29
4.5105e-30
-1.40182e-29
2.52333e-31
-9.35361e-31
1.5418e-32
-4.67116e-32
1.11065e-33
-2.18946e-33
1.01963e-34
-1.12289e-34
1.02458e-35
-6.09602e-36
9.49723e-37
-2.73391e-37
7.90765e-38
-3.22962e-39
6.10595e-39
3.60786e-40
4.35023e-40
5.19583e-41
2.97445e-41
5.08055e-42
1.96109e-42
4.25417e-43
1.23891e-43
3.24207e-44
7.46347e-45
2.29711e-45
4.27142e-46
1.52641e-46
2.31347e-47
9.54053e-48
1.18081e-48
5.60795e-49
5.65343e-50
3.09425e-50
2.52622e-51
1.59828e-51
1.04763e-52
7.70388e-53
4.00598e-54
3.45231e-54
1.40165e-55
1.43189e-55
4.44566e-57
5.46608e-57
1.26329e-58
1.90676e-58
3.16801e-60
6.02123e-60
6.87262e-62
1.69966e-61
1.25532e-63
4.21508e-63
1.85873e-65
8.96247e-65
2.11186e-67
1.57604e-66
1.68691e-69
2.19844e-68
8.24115e-72
2.19798e-70
1.93075e-74
1.36411e-72
1.30531e-77
4.07168e-75
3.51409e-82
3.22748e-78
2.86683e-83
3.62008e-32
2.64489e-31
1.13261e-27
-2.58144e-27
1.09401e-26
-3.04945e-26
1.8335e-26
-3.94124e-26
4.72516e-27
-1.5306e-26
3.47591e-28
-1.82885e-27
2.13922e-29
-1.17701e-28
1.39743e-30
-6.04915e-30
9.89001e-32
-2.87651e-31
7.95966e-33
-1.38536e-32
6.77641e-34
-6.59145e-34
5.52948e-35
-2.57167e-35
4.20013e-36
-3.06903e-37
3.0053e-37
6.4652e-38
2.01713e-38
9.23479e-39
1.30601e-39
8.74596e-40
8.16084e-41
7.02543e-41
4.88998e-42
5.10572e-42
2.79705e-43
3.43809e-43
1.52178e-44
2.16706e-44
7.84675e-46
1.28374e-45
3.81972e-47
7.15303e-47
1.74798e-48
3.74526e-48
7.48437e-50
1.83892e-49
2.98231e-51
8.44335e-51
1.09904e-52
3.61248e-52
3.7179e-54
1.43393e-53
1.14414e-55
5.25144e-55
3.16716e-57
1.76191e-56
7.77458e-59
5.36608e-58
1.66134e-60
1.46564e-59
3.01536e-62
3.53188e-61
4.49518e-64
7.343e-63
5.24672e-66
1.27677e-64
4.47645e-68
1.77645e-66
2.5188e-70
1.83133e-68
7.91697e-73
1.25988e-70
1.06429e-75
4.79661e-73
3.83641e-79
7.40239e-76
2.28071e-79
2.45395e-29
2.55157e-30
1.87324e-25
-4.961e-25
9.42668e-25
-3.39332e-24
1.12972e-24
-3.36532e-24
1.93231e-25
-9.75591e-25
1.30439e-26
-9.81006e-26
8.44235e-28
-6.0893e-27
5.61564e-29
-3.14931e-28
3.80867e-30
-1.48407e-29
2.74078e-31
-6.7108e-31
2.03056e-32
-2.83798e-32
1.46362e-33
-9.45495e-34
1.00299e-34
-5.91689e-36
6.54098e-36
2.49913e-36
4.02015e-37
3.08179e-37
2.38843e-38
2.64167e-38
1.36959e-39
1.93778e-39
7.53537e-41
1.2889e-40
3.96162e-42
7.94949e-42
1.98336e-43
4.59139e-43
9.42307e-45
2.49368e-44
4.23316e-46
1.27504e-45
1.791e-47
6.13391e-47
7.10492e-49
2.77169e-48
2.62934e-50
1.1734e-49
9.02347e-52
4.63884e-51
2.85148e-53
1.70532e-52
8.22671e-55
5.79875e-54
2.14427e-56
1.81162e-55
4.9834e-58
5.15515e-57
1.01553e-59
1.32119e-58
1.77551e-61
3.00443e-60
2.58701e-63
5.94192e-62
3.01859e-65
9.94257e-64
2.6684e-67
1.35335e-65
1.64281e-69
1.41093e-67
6.16023e-72
1.02942e-69
1.10925e-74
4.48054e-72
6.20689e-78
8.82136e-75
4.98461e-78
1.19089e-27
-1.66054e-27
1.2199e-23
-4.817e-23
4.86922e-23
-2.19343e-22
3.91103e-23
-1.68132e-22
5.06994e-24
-3.70247e-23
3.29518e-25
-3.2093e-24
2.19635e-26
-1.91332e-25
1.46086e-27
-9.79327e-27
9.50246e-29
-4.51972e-28
6.25258e-30
-1.92584e-29
4.13049e-31
-7.31581e-31
2.66314e-32
-2.0491e-32
1.65436e-33
4.55233e-35
9.86209e-35
6.23377e-35
5.5898e-36
6.52622e-36
3.06419e-37
5.03851e-37
1.62029e-38
3.37417e-38
8.22339e-40
2.0585e-39
3.99106e-41
1.16701e-40
1.84616e-42
6.20346e-42
8.11231e-44
3.10396e-43
3.37439e-45
1.4636e-44
1.32367e-46
6.50064e-46
4.87598e-48
2.71551e-47
1.67856e-49
1.06435e-48
5.3697e-51
3.90191e-50
1.58559e-52
1.33256e-51
4.28718e-54
4.21796e-53
1.05108e-55
1.22954e-54
2.30846e-57
3.27383e-56
4.47303e-59
7.87906e-58
7.4982e-61
1.69051e-59
1.05967e-62
3.17481e-61
1.21899e-64
5.0896e-63
1.08605e-66
6.72139e-65
6.93695e-69
6.93051e-67
2.77575e-71
5.11909e-69
5.60889e-74
2.31494e-71
4.12812e-77
5.46064e-74
4.59128e-77
-2.35892e-23
2.55392e-26
4.19723e-22
-2.83412e-21
1.68475e-21
-9.51819e-21
9.61397e-22
-5.7989e-21
9.92253e-23
-9.96772e-22
6.24875e-24
-7.48877e-23
4.19192e-25
-4.20691e-24
2.75101e-26
-2.08561e-25
1.7202e-27
-9.30314e-27
1.05274e-28
-3.73047e-28
6.32841e-30
-1.27598e-29
3.70311e-31
-2.89418e-31
2.10495e-32
4.35474e-33
1.15424e-33
1.13541e-33
6.07745e-35
1.01604e-34
3.0944e-36
7.08924e-36
1.51852e-37
4.35285e-37
7.15341e-39
2.44815e-38
3.22406e-40
1.28287e-39
1.38582e-41
6.31277e-41
5.66264e-43
2.92719e-42
2.19221e-44
1.28034e-43
8.01166e-46
5.28029e-45
2.75285e-47
2.05032e-46
8.85236e-49
7.47901e-48
2.64986e-50
2.55513e-49
7.33714e-52
8.1444e-51
1.86506e-53
2.41035e-52
4.31267e-55
6.58316e-54
8.97022e-57
1.64657e-55
1.65477e-58
3.73444e-57
2.6589e-60
7.58196e-59
3.63348e-62
1.35456e-60
4.08625e-64
2.07992e-62
3.60365e-66
2.65356e-64
2.30162e-68
2.66951e-66
9.39998e-71
1.93564e-68
2.07402e-73
9.16835e-71
2.02143e-76
2.39459e-73
2.51886e-76
-3.48096e-21
2.56592e-22
1.04286e-20
-1.16018e-19
4.49285e-20
-3.05684e-19
1.85535e-20
-1.53613e-19
1.54125e-21
-2.07738e-20
9.2348e-23
-1.31737e-21
6.08827e-24
-6.79036e-23
3.89873e-25
-3.19764e-24
2.34625e-26
-1.36072e-25
1.35294e-27
-5.10457e-27
7.53923e-29
-1.55923e-28
4.07119e-30
-2.58493e-30
2.1459e-31
1.09405e-31
1.09556e-32
1.58446e-32
5.40327e-34
1.2326e-33
2.57407e-35
7.83356e-35
1.18083e-36
4.44036e-36
5.19954e-38
2.31796e-37
2.19088e-39
1.13031e-38
8.8069e-41
5.18345e-40
3.36695e-42
2.24212e-41
1.22028e-43
9.15585e-43
4.17818e-45
3.52811e-44
1.34629e-46
1.28113e-45
4.06456e-48
4.37439e-47
1.14393e-49
1.40046e-48
2.98337e-51
4.18848e-50
7.15886e-53
1.16487e-51
1.56702e-54
2.99524e-53
3.096e-56
7.06878e-55
5.4482e-58
1.51687e-56
8.39402e-60
2.92361e-58
1.1065e-61
4.9786e-60
1.20791e-63
7.3205e-62
1.03853e-65
8.98462e-64
6.47216e-68
8.70964e-66
2.63812e-70
6.15844e-68
6.23897e-73
2.99608e-70
7.2566e-76
8.57784e-73
9.93196e-76
-1.16043e-19
1.39051e-20
3.3323e-19
-3.69289e-18
1.02854e-18
-7.50707e-18
2.82496e-19
-2.99593e-18
1.86168e-20
-3.06252e-19
1.04941e-21
-1.64415e-20
6.73518e-23
-7.82419e-22
4.19056e-24
-3.50167e-23
2.43174e-25
-1.41631e-24
1.33597e-26
-4.94381e-26
7.02437e-28
-1.31754e-27
3.5703e-29
-1.07026e-29
1.77623e-30
1.67526e-30
8.56397e-32
1.72436e-31
3.99113e-33
1.19051e-32
1.79375e-34
6.96419e-34
7.75557e-36
3.67611e-35
3.21714e-37
1.7956e-36
1.27677e-38
8.21144e-38
4.83401e-40
3.53576e-39
1.74095e-41
1.43715e-40
5.94597e-43
5.51805e-42
1.91946e-44
2.00047e-43
5.83532e-46
6.83859e-45
1.66368e-47
2.1999e-46
4.42696e-49
6.64136e-48
1.09323e-50
1.87505e-49
2.48866e-52
4.92916e-51
5.17976e-54
1.19991e-52
9.75792e-56
2.68604e-54
1.64262e-57
5.47965e-56
2.42968e-59
1.00672e-57
3.08581e-61
1.63883e-59
3.25321e-63
2.30991e-61
2.69422e-65
2.72099e-63
1.63619e-67
2.52495e-65
6.77014e-70
1.79604e-67
1.59008e-72
8.6045e-70
2.11234e-75
2.63162e-72
3.16676e-75
1.02718e-20
8.34099e-20
1.1243e-17
-9.52847e-17
1.83797e-17
-1.20885e-16
2.83744e-18
-3.15059e-17
1.56782e-19
-2.5113e-18
8.7735e-21
-1.2669e-19
5.53964e-22
-5.91609e-21
3.36209e-23
-2.58486e-22
1.89422e-24
-1.00477e-23
1.00462e-25
-3.25753e-25
5.08153e-27
-7.14179e-27
2.48725e-28
4.99207e-29
1.18703e-29
1.76798e-29
5.47463e-31
1.45591e-30
2.43421e-32
9.1108e-32
1.04189e-33
4.96599e-33
4.28468e-35
2.46597e-34
1.68902e-36
1.13761e-35
6.36636e-38
4.92232e-37
2.28859e-39
2.00722e-38
7.82514e-41
7.73052e-40
2.53757e-42
2.8136e-41
7.78022e-44
9.67281e-43
2.24756e-45
3.13716e-44
6.09347e-47
9.58032e-46
1.54337e-48
2.74765e-47
3.63246e-50
7.3765e-49
7.8934e-52
1.84606e-50
1.57129e-53
4.28426e-52
2.83745e-55
9.15869e-54
4.59005e-57
1.78787e-55
6.54085e-59
3.15013e-57
8.01912e-61
4.92945e-59
8.16162e-63
6.69146e-61
6.53874e-65
7.5918e-63
3.91201e-67
6.87502e-65
1.62481e-69
4.8515e-67
3.83512e-72
2.34821e-69
5.55857e-75
7.30574e-72
8.89175e-75
3.50869e-17
-1.66335e-16
2.79619e-16
-1.64805e-15
1.46951e-16
-9.81162e-16
1.51639e-17
-1.47273e-16
8.57862e-19
-1.05872e-17
5.14807e-20
-5.72658e-19
3.26069e-21
-2.78936e-20
1.9497e-22
-1.22142e-21
1.08113e-23
-4.60966e-23
5.63417e-25
-1.36517e-24
2.79881e-26
-1.96979e-26
1.3452e-27
1.06449e-27
6.2454e-29
1.31358e-28
2.78857e-30
9.29185e-30
1.19675e-31
5.383e-31
4.93341e-33
2.7728e-32
1.95053e-34
1.31105e-33
7.3825e-36
5.77658e-35
2.66923e-37
2.3903e-36
9.19846e-39
9.32638e-38
3.0139e-40
3.43765e-39
9.36451e-42
1.19762e-40
2.75123e-43
3.94184e-42
7.61812e-45
1.22434e-43
1.98082e-46
3.58227e-45
4.81562e-48
9.84985e-47
1.0891e-49
2.53736e-48
2.27737e-51
6.1e-50
4.37008e-53
1.36185e-51
7.62283e-55
2.80556e-53
1.19387e-56
5.28905e-55
1.65104e-58
9.02215e-57
1.96857e-60
1.37073e-58
1.95062e-62
1.81215e-60
1.52715e-64
2.00838e-62
9.01194e-67
1.79248e-64
3.67264e-69
1.24298e-66
8.53628e-72
5.94325e-69
1.3061e-74
1.83696e-71
2.23221e-74
2.35452e-15
-7.77744e-15
2.67317e-15
-9.37176e-15
5.5465e-16
-2.97825e-15
4.76798e-17
-3.77933e-16
3.1766e-18
-2.81811e-17
2.10422e-19
-1.66655e-18
1.34743e-20
-8.47348e-20
8.01838e-22
-3.70264e-21
4.43858e-23
-1.33193e-22
2.31291e-24
-3.28806e-24
1.14966e-25
1.12239e-26
5.48947e-27
7.87041e-27
2.50736e-28
6.81804e-28
1.09683e-29
4.34465e-29
4.59866e-31
2.37668e-30
1.84726e-32
1.17376e-31
7.10202e-34
5.35215e-33
2.60964e-35
2.27948e-34
9.14929e-37
9.12517e-36
3.05466e-38
3.44524e-37
9.69119e-40
1.22881e-38
2.91477e-41
4.14236e-40
8.28899e-43
1.31933e-41
2.22218e-44
3.96616e-43
5.59698e-46
1.1236e-44
1.31916e-47
2.99324e-46
2.89569e-49
7.47748e-48
5.8861e-51
1.74548e-49
1.10013e-52
3.79012e-51
1.87362e-54
7.61069e-53
2.87355e-56
1.40239e-54
3.90554e-58
2.34656e-56
4.59726e-60
3.51348e-58
4.52552e-62
4.60721e-60
3.52191e-64
5.11636e-62
2.02232e-66
4.54412e-64
7.8895e-69
3.08531e-66
1.74704e-71
1.4195e-68
2.8329e-74
4.22604e-71
5.13483e-74
7.83738e-11
6.25842e-11
2.54632e-10
1.9695e-10
8.81929e-11
1.63115e-11
2.29731e-10
3.5079e-10
2.77015e-11
2.49522e-12
1.12351e-12
2.75942e-10
5.20269e-12
2.86054e-13
-1.47396e-12
2.96098e-11
1.06226e-12
8.66512e-14
-4.49272e-13
4.7882e-12
2.05144e-13
4.35948e-14
-6.32211e-14
6.85785e-13
4.62047e-14
2.19598e-14
1.67027e-14
1.08745e-13
1.41748e-14
1.03558e-14
1.12451e-14
2.5399e-14
5.40457e-15
4.82659e-15
4.55169e-15
7.45856e-15
2.41656e-15
1.9241e-15
2.7201e-15
5.68715e-16
8.43062e-16
1.26636e-16
1.93899e-16
2.81393e-17
3.97241e-17
6.41215e-18
7.89315e-18
1.47539e-18
1.54596e-18
3.448e-19
3.00811e-19
8.26029e-20
5.86851e-20
2.03975e-20
1.15888e-20
5.1901e-21
2.33566e-21
1.35167e-21
4.82624e-22
3.56037e-22
1.02073e-22
9.34724e-23
2.19004e-23
2.4092e-23
4.69593e-24
6.01122e-24
9.8781e-25
1.43386e-24
1.99872e-25
3.23344e-25
3.8137e-26
6.82489e-26
6.72252e-27
1.33632e-26
1.06895e-27
2.40801e-27
1.48263e-28
3.96554e-28
1.6843e-29
5.94626e-29
1.30089e-30
8.1579e-30
-8.57553e-33
-3.06236e-32
-2.21637e-13
2.13891e-10
-3.09283e-13
8.76465e-14
-3.30272e-14
-3.24235e-13
-2.73529e-14
5.12752e-15
3.40071e-10
5.1083e-10
-1.64178e-12
9.10245e-11
-9.12576e-13
-1.2384e-12
-7.93994e-13
-7.60704e-14
3.05984e-10
1.1982e-10
7.59433e-12
5.83073e-11
-7.57915e-13
2.39496e-12
-3.89483e-13
-1.68956e-13
5.98788e-11
-4.42788e-12
5.65403e-11
-6.63845e-12
1.94018e-12
5.19783e-12
7.2879e-14
-8.25639e-14
5.92775e-12
-7.22645e-13
5.5789e-12
-7.88118e-13
5.09282e-12
-6.00722e-13
2.2178e-13
1.93381e-13
7.43629e-13
-1.16553e-13
3.8322e-13
-6.49147e-14
2.36921e-13
-3.22507e-14
-1.32102e-14
2.34676e-13
1.14631e-13
1.15805e-14
6.82231e-14
1.55822e-14
3.72428e-14
1.05184e-14
4.46281e-15
2.78957e-14
2.86926e-14
1.12367e-14
2.59603e-14
1.12632e-14
1.76903e-14
8.8817e-15
3.38274e-15
8.21771e-15
9.40182e-15
4.60684e-15
1.00645e-14
4.55515e-15
6.69329e-15
3.05081e-15
1.13626e-15
2.30723e-15
3.08432e-15
1.70555e-15
2.97949e-15
1.30994e-15
1.57538e-15
7.12426e-16
2.65436e-16
5.22461e-16
8.24456e-16
4.2486e-16
6.06284e-16
2.80537e-16
2.99996e-16
1.42542e-16
5.55715e-17
1.05139e-16
1.65433e-16
8.56602e-17
1.11544e-16
5.42876e-17
5.45735e-17
2.78107e-17
1.10303e-17
1.96412e-17
3.07042e-17
1.71949e-17
1.96926e-17
1.04042e-17
9.54797e-18
5.25027e-18
2.08724e-18
3.47776e-18
5.5459e-18
3.47672e-18
3.37691e-18
1.96488e-18
1.6113e-18
9.60134e-19
3.79462e-19
5.90924e-19
9.84071e-19
6.99671e-19
5.65581e-19
3.64829e-19
2.63969e-19
1.71048e-19
6.66993e-20
9.70026e-20
1.72122e-19
1.40737e-19
9.28594e-20
6.68878e-20
4.21462e-20
2.98155e-20
1.13857e-20
1.54413e-20
2.98286e-20
2.85743e-20
1.49846e-20
1.21848e-20
6.57144e-21
5.10547e-21
1.89402e-21
2.38872e-21
5.15534e-21
5.91456e-21
2.38343e-21
2.22192e-21
1.00192e-21
8.62689e-22
3.07988e-22
3.59544e-22
8.95567e-22
1.25864e-21
3.75176e-22
4.09079e-22
1.49591e-22
1.44642e-22
4.91157e-23
5.26928e-23
1.57676e-22
2.76568e-22
5.87671e-23
7.67099e-23
2.19191e-23
2.42244e-23
7.71096e-24
7.5241e-24
2.83257e-23
6.26079e-23
9.22218e-24
1.47503e-23
3.16248e-24
4.08254e-24
1.19737e-24
1.04791e-24
5.20307e-24
1.44596e-23
1.45958e-24
2.91379e-24
4.51321e-25
6.96999e-25
1.84883e-25
1.42611e-25
9.72176e-25
3.35458e-24
2.33926e-25
5.88119e-25
6.40305e-26
1.21003e-25
2.8536e-26
1.90164e-26
1.82358e-25
7.67788e-25
3.79033e-26
1.19729e-25
9.06588e-27
2.13254e-26
4.41873e-27
2.49252e-27
3.36852e-26
1.7036e-25
6.15083e-27
2.41472e-26
1.28124e-27
3.78284e-27
6.86548e-28
3.21926e-28
5.9922e-27
3.60913e-26
9.82715e-28
4.73283e-27
1.79656e-28
6.65592e-28
1.06511e-28
4.09605e-29
1.00279e-27
7.20922e-27
1.51129e-28
8.8596e-28
2.46625e-29
1.14115e-28
1.6333e-29
5.10754e-30
1.54015e-28
1.34387e-27
2.1799e-29
1.56172e-28
3.2477e-30
1.8734e-29
2.4416e-30
6.16861e-31
2.10695e-29
2.31811e-28
2.86318e-30
2.5642e-29
3.99523e-31
2.90159e-30
3.50517e-31
7.07912e-32
2.44994e-30
3.67465e-29
3.29222e-31
3.88916e-30
4.43508e-32
4.19223e-31
4.76699e-32
7.50821e-33
2.17392e-31
5.32306e-30
3.08258e-32
5.4144e-31
4.20741e-33
5.60435e-32
6.07499e-33
7.05442e-34
8.60337e-33
7.04566e-31
1.86939e-33
6.90497e-32
3.00027e-34
6.89696e-33
7.19664e-34
5.40123e-35
-1.72022e-33
-4.78751e-35
7.33305e-36
2.51559e-36
1.24432e-14
-3.49836e-14
5.7066e-15
-1.56557e-14
1.18128e-15
-4.37556e-15
1.21762e-16
-6.83314e-16
9.04902e-18
-5.3396e-17
6.28017e-19
-3.33492e-18
4.05636e-20
-1.73466e-19
2.42159e-21
-7.34573e-21
1.34852e-22
-2.32248e-22
7.08681e-24
-2.8795e-24
3.54922e-25
2.96794e-25
1.69117e-26
3.45482e-26
7.67522e-28
2.49012e-27
3.3258e-29
1.47608e-28
1.37725e-30
7.75017e-30
5.45e-32
3.71676e-31
2.05963e-33
1.65356e-32
7.42602e-35
6.88411e-34
2.55107e-36
2.69542e-35
8.33673e-38
9.95393e-37
2.58692e-39
3.47199e-38
7.60655e-41
1.14442e-39
2.11443e-42
3.56378e-41
5.54168e-44
1.04761e-42
1.36518e-45
2.90314e-44
3.14964e-47
7.57026e-46
6.77599e-49
1.85298e-47
1.35217e-50
4.24415e-49
2.48646e-52
9.05994e-51
4.1782e-54
1.79311e-52
6.3459e-56
3.26759e-54
8.58301e-58
5.43161e-56
1.01231e-59
8.12957e-58
1.00912e-61
1.07532e-59
8.08836e-64
1.22213e-61
4.78926e-66
1.13935e-63
1.8073e-68
7.97575e-66
3.629e-71
3.59668e-68
6.92469e-74
9.97383e-71
1.21495e-73
2.20606e-14
-1.02026e-13
7.38414e-15
-1.40852e-14
1.81224e-15
-2.84129e-15
2.39317e-16
-5.62035e-16
1.92758e-17
-6.36463e-17
1.34023e-18
-4.27961e-18
8.75126e-20
-2.20139e-19
5.29376e-21
-8.76477e-21
2.985e-22
-1.84939e-22
1.5934e-23
7.44858e-24
8.05e-25
1.20752e-24
3.84764e-26
9.89553e-26
1.74758e-27
6.41852e-27
7.55988e-29
3.62616e-28
3.11724e-30
1.85243e-29
1.22547e-31
8.71852e-31
4.59206e-33
3.82104e-32
1.63905e-34
1.56948e-33
5.56709e-36
6.06576e-35
1.79706e-37
2.21092e-36
5.50472e-39
7.60985e-38
1.59729e-40
2.47463e-39
4.38153e-42
7.60191e-41
1.13356e-43
2.20469e-42
2.75834e-45
6.02995e-44
6.29245e-47
1.55293e-45
1.3405e-48
3.75814e-47
2.65416e-50
8.52366e-49
4.85544e-52
1.80559e-50
8.14491e-54
3.55632e-52
1.24054e-55
6.47413e-54
1.69287e-57
1.08061e-55
2.03195e-59
1.6355e-57
2.08888e-61
2.20982e-59
1.76573e-63
2.60608e-61
1.14742e-65
2.59052e-63
5.09855e-68
2.04951e-65
1.2308e-70
1.16459e-67
2.39669e-73
3.72771e-70
4.14564e-73
-3.02837e-14
-9.58133e-14
3.88907e-15
-1.24451e-14
1.66242e-15
-1.98157e-15
3.21448e-16
-3.7062e-16
3.15794e-17
-4.19609e-17
2.01006e-18
-2.652e-18
1.31992e-19
-1.17584e-19
8.33753e-21
-2.70592e-21
4.87889e-22
1.53934e-22
2.65566e-23
2.7103e-23
1.35749e-24
2.40769e-24
6.56408e-26
1.6829e-25
3.01004e-27
1.01927e-26
1.31074e-28
5.55719e-28
5.42439e-30
2.79391e-29
2.13433e-31
1.30772e-30
7.98617e-33
5.70932e-32
2.84074e-34
2.33622e-33
9.59829e-36
8.98875e-35
3.07681e-37
3.25988e-36
9.34731e-39
1.1157e-37
2.68737e-40
3.6057e-39
7.29917e-42
1.10043e-40
1.86918e-43
3.17037e-42
4.5022e-45
8.61599e-44
1.01709e-46
2.20616e-45
2.14756e-48
5.31382e-47
4.22008e-50
1.20131e-48
7.67605e-52
2.54165e-50
1.28347e-53
5.01292e-52
1.95486e-55
9.16821e-54
2.67934e-57
1.54369e-55
3.24938e-59
2.36908e-57
3.40348e-61
3.26785e-59
2.97073e-63
3.9706e-61
2.04358e-65
4.12696e-63
1.00538e-67
3.50401e-65
2.93463e-70
2.24742e-67
3.23575e-73
9.3534e-70
1.68718e-72
-1.20448e-14
-3.45905e-14
3.71909e-15
-4.65434e-15
1.52658e-15
-9.4622e-16
2.7836e-16
-1.57574e-16
2.70599e-17
-1.38346e-17
1.83765e-18
-6.67183e-19
1.24198e-19
-6.30063e-21
7.91957e-21
3.23773e-21
4.67967e-22
4.48306e-22
2.58583e-23
4.09958e-23
1.34193e-24
3.07563e-24
6.56417e-26
2.01605e-25
3.0357e-27
1.18858e-26
1.3302e-28
6.40829e-28
5.53186e-30
3.17868e-29
2.18494e-31
1.46334e-30
8.19465e-33
6.31371e-32
2.91772e-34
2.56112e-33
9.8597e-36
9.78869e-35
3.16126e-37
3.53167e-36
9.60478e-39
1.20377e-37
2.7618e-40
3.87742e-39
7.50465e-42
1.18016e-40
1.92358e-43
3.39263e-42
4.64082e-45
9.20396e-44
1.0511e-46
2.35364e-45
2.22781e-48
5.66426e-47
4.40103e-50
1.28015e-48
8.06302e-52
2.70946e-50
1.36109e-53
5.35058e-52
2.09903e-55
9.80973e-54
2.92339e-57
1.65843e-55
3.619e-59
2.56119e-57
3.89345e-61
3.56591e-59
3.52119e-63
4.39249e-61
2.54248e-65
4.65557e-63
1.34515e-67
4.06912e-65
4.43026e-70
2.77521e-67
6.07908e-73
1.31426e-69
3.05187e-72
-5.52594e-15
7.74756e-15
3.48019e-15
-5.9163e-16
1.33947e-15
-1.62355e-16
1.69225e-16
-1.53092e-17
1.41006e-17
7.66896e-20
1.05409e-18
2.19951e-19
7.45368e-20
3.58388e-20
4.9304e-21
3.99071e-21
3.02969e-22
3.64122e-22
1.73581e-23
2.88582e-23
9.32013e-25
2.0441e-24
4.70577e-26
1.31522e-25
2.23945e-27
7.76459e-27
1.00618e-28
4.235e-28
4.27282e-30
2.14424e-29
1.71659e-31
1.01153e-30
6.52993e-33
4.46236e-32
2.35267e-34
1.84622e-33
8.0269e-36
7.17926e-35
2.59194e-37
2.62645e-36
7.91767e-39
9.05073e-38
2.28613e-40
2.94023e-39
6.23208e-42
9.00814e-41
1.60164e-43
2.60302e-42
3.87352e-45
7.0923e-44
8.79552e-47
1.82095e-45
1.86979e-48
4.40105e-47
3.70793e-50
9.99838e-49
6.82735e-52
2.13054e-50
1.16014e-53
4.24567e-52
1.80464e-55
7.87923e-54
2.54162e-57
1.35382e-55
3.19184e-59
2.13598e-57
3.49723e-61
3.05831e-59
3.23716e-63
3.90717e-61
2.408e-65
4.34338e-63
1.3257e-67
4.04562e-65
4.62278e-70
2.92021e-67
6.89048e-73
1.42456e-69
3.41622e-72
3.88243e-14
1.4393e-14
4.22317e-15
2.02826e-15
5.3403e-16
1.85065e-16
5.93904e-17
1.85108e-17
5.44848e-18
2.2283e-18
4.40576e-19
2.55479e-19
3.24418e-20
2.59752e-20
2.19832e-21
2.33831e-21
1.38048e-22
1.8924e-22
8.08002e-24
1.39444e-23
4.42806e-25
9.43508e-25
2.2798e-26
5.89722e-26
1.10539e-27
3.4204e-27
5.05605e-29
1.84755e-28
2.18423e-30
9.32187e-30
8.9189e-32
4.40412e-31
3.44403e-33
1.95208e-32
1.25792e-34
8.13037e-34
4.34544e-36
3.18605e-35
1.41925e-37
1.17589e-36
4.3804e-39
4.09023e-38
1.27668e-40
1.34147e-39
3.51015e-42
4.14903e-41
9.09275e-44
1.21008e-42
2.21555e-45
3.32698e-44
5.06749e-47
8.61777e-46
1.08514e-48
2.10109e-47
2.16825e-50
4.81515e-49
4.02491e-52
1.03525e-50
6.9011e-54
2.08235e-52
1.08448e-55
3.90326e-54
1.54549e-57
6.78017e-56
1.968e-59
1.08276e-57
2.19233e-61
1.57154e-59
2.0706e-63
2.03876e-61
1.57906e-65
2.30603e-63
8.95168e-68
2.18727e-65
3.21795e-70
1.62508e-67
4.94772e-73
8.33042e-70
2.1253e-72
1.46937e-14
2.39106e-15
2.04522e-15
7.15764e-16
1.98192e-16
1.01412e-16
1.96038e-17
1.1528e-17
1.82832e-18
1.26713e-18
1.53434e-19
1.30134e-19
1.16469e-20
1.21771e-20
8.09021e-22
1.0361e-21
5.1876e-23
8.06415e-23
3.09038e-24
5.77774e-24
1.7188e-25
3.82931e-25
8.95895e-27
2.35643e-26
4.3889e-28
1.35039e-27
2.02514e-29
7.22513e-29
8.81526e-31
3.61732e-30
3.62378e-32
1.69803e-31
1.40775e-33
7.48626e-33
5.16989e-35
3.10427e-34
1.79494e-36
1.21207e-35
5.89041e-38
4.46039e-37
1.82631e-39
1.54795e-38
5.34612e-41
5.06809e-40
1.47615e-42
1.56564e-41
3.8399e-44
4.56302e-43
9.39563e-46
1.25424e-44
2.15818e-47
3.24944e-46
4.64194e-49
7.92751e-48
9.31836e-51
1.81877e-49
1.7384e-52
3.91646e-51
2.99686e-54
7.89409e-53
4.73773e-56
1.48359e-54
6.79697e-58
2.58539e-56
8.72057e-60
4.14466e-58
9.79814e-62
6.04272e-60
9.34532e-64
7.87918e-62
7.20845e-66
8.96095e-64
4.1441e-68
8.54844e-66
1.51834e-70
6.41116e-68
2.39175e-73
3.34008e-70
8.69773e-73
2.41111e-15
9.54548e-16
4.30509e-16
1.92823e-16
5.29977e-17
3.1185e-17
5.61533e-18
4.12168e-18
5.40318e-19
4.73702e-19
4.69387e-20
4.88219e-20
3.68409e-21
4.54535e-21
2.63497e-22
3.84628e-22
1.73215e-23
2.97993e-23
1.05366e-24
2.12734e-24
5.96235e-26
1.40617e-25
3.15175e-27
8.63691e-27
1.56142e-28
4.94297e-28
7.26799e-30
2.64184e-29
3.18468e-31
1.32119e-30
1.31549e-32
6.19334e-32
5.12749e-34
2.72559e-33
1.88708e-35
1.12762e-34
6.55953e-37
4.3906e-36
2.15358e-38
1.61044e-37
6.67638e-40
5.56827e-39
1.95337e-41
1.81572e-40
5.38941e-43
5.58506e-42
1.40065e-44
1.62052e-43
3.42381e-46
4.43426e-45
7.85694e-48
1.14367e-46
1.68844e-49
2.77793e-48
3.38692e-51
6.34646e-50
6.31501e-53
1.36121e-51
1.0883e-54
2.73362e-53
1.7204e-56
5.12049e-55
2.46885e-58
8.8974e-57
3.16969e-60
1.4229e-58
3.56553e-62
2.07063e-60
3.40681e-64
2.69656e-62
2.63453e-66
3.06513e-64
1.52013e-68
2.9247e-66
5.60011e-71
2.19508e-68
8.88815e-74
1.14501e-70
2.98694e-73
5.18815e-16
3.10445e-16
9.07355e-17
5.80332e-17
1.2434e-17
9.2088e-18
1.42805e-18
1.25189e-18
1.44011e-19
1.48011e-19
1.29777e-20
1.55148e-20
1.05313e-21
1.46053e-21
7.76181e-23
1.24668e-22
5.23884e-24
9.72923e-24
3.26055e-25
6.98903e-25
1.88166e-26
4.64524e-26
1.01138e-27
2.86754e-27
5.08083e-29
1.6488e-28
2.39225e-30
8.85043e-30
1.05794e-31
4.44348e-31
4.40156e-33
2.09005e-32
1.72493e-34
9.22339e-34
6.37256e-36
3.82364e-35
2.22053e-37
1.49069e-36
7.29942e-39
5.47024e-38
2.26346e-40
1.89078e-39
6.61836e-42
6.1589e-41
1.82364e-43
1.89111e-42
4.73051e-45
5.47409e-44
1.15364e-46
1.49354e-45
2.64021e-48
3.8392e-47
5.65678e-50
9.29082e-49
1.13107e-51
2.11416e-50
2.10177e-53
4.51562e-52
3.60934e-55
9.02951e-54
5.68507e-57
1.68401e-55
8.1284e-59
2.91342e-57
1.03976e-60
4.63926e-59
1.16544e-62
6.72316e-61
1.10984e-64
8.72127e-63
8.55719e-67
9.87798e-65
4.92597e-69
9.39642e-67
1.81197e-71
7.03415e-69
2.87385e-74
3.66149e-71
9.5343e-74
1.1424e-16
7.90962e-17
1.96459e-17
1.53169e-17
2.78461e-18
2.45673e-18
3.36109e-19
3.39372e-19
3.53446e-20
4.09407e-20
3.29753e-21
4.37088e-21
2.76051e-22
4.17969e-22
2.09309e-23
3.61671e-23
1.4493e-24
2.85631e-24
9.22773e-26
2.07318e-25
5.4333e-27
1.39046e-26
2.9721e-28
8.65262e-28
1.51599e-29
5.01129e-29
7.23169e-31
2.70781e-30
3.23371e-32
1.36774e-31
1.35788e-33
6.46877e-33
5.36178e-35
2.86874e-34
1.99284e-36
1.19438e-35
6.97638e-38
4.67333e-37
2.30107e-39
1.71997e-38
7.15139e-41
5.95824e-40
2.09365e-42
1.94373e-41
5.77079e-44
5.97316e-43
1.49623e-45
1.72929e-44
3.64456e-47
4.71598e-46
8.32562e-49
1.21102e-47
1.77952e-50
2.92616e-49
3.54776e-52
6.64533e-51
6.57014e-54
1.41599e-52
1.12396e-55
2.8237e-54
1.76287e-57
5.25029e-56
2.50894e-59
9.05356e-58
3.19366e-61
1.43667e-59
3.56131e-63
2.07449e-61
3.37363e-65
2.6811e-63
2.58769e-67
3.02552e-65
1.48229e-69
2.86776e-67
5.42845e-72
2.1397e-69
8.57622e-75
1.11055e-71
2.884e-74
2.35721e-17
1.7537e-17
4.0893e-18
3.54895e-18
5.94245e-19
5.86703e-19
7.42443e-20
8.30003e-20
8.07753e-21
1.02313e-20
7.77298e-22
1.11415e-21
6.69503e-23
1.08466e-22
5.21158e-24
9.53746e-24
3.69647e-25
7.64033e-25
2.40541e-26
5.6155e-26
1.44429e-27
3.80789e-27
8.03936e-29
2.39264e-28
4.16436e-30
1.39771e-29
2.01358e-31
7.61103e-31
9.11068e-33
3.8714e-32
3.86484e-34
1.84266e-33
1.53942e-35
8.2188e-35
5.76372e-37
3.43951e-36
2.03e-38
1.35196e-37
6.72864e-40
4.9955e-39
2.09921e-41
1.73636e-40
6.16328e-43
5.6802e-42
1.70212e-44
1.74938e-43
4.41815e-46
5.07283e-45
1.07655e-47
1.38491e-46
2.45836e-49
3.55833e-48
5.24901e-51
8.59861e-50
1.04472e-52
1.95205e-51
1.93033e-54
4.15624e-53
3.29285e-56
8.27881e-55
5.14721e-58
1.53708e-56
7.29721e-60
2.64588e-58
9.24848e-62
4.19019e-60
1.02646e-63
6.03699e-62
9.67502e-66
7.7836e-64
7.38289e-68
8.76147e-66
4.20752e-70
8.28349e-68
1.53342e-72
6.16513e-70
2.41151e-75
3.1925e-72
8.27103e-75
4.51972e-18
3.57893e-18
8.03363e-19
7.49919e-19
1.20011e-19
1.28001e-19
1.54403e-20
1.85942e-20
1.72936e-21
2.34505e-21
1.71075e-22
2.60674e-22
1.51226e-23
2.58572e-23
1.2061e-24
2.3126e-24
8.74901e-26
1.88108e-25
5.81176e-27
1.40145e-26
3.55552e-28
9.61793e-28
2.01281e-29
6.10767e-29
1.05851e-30
3.60162e-30
5.18752e-32
1.97773e-31
2.37525e-33
1.01359e-32
1.0182e-34
4.85723e-34
4.0928e-36
2.17977e-35
1.54452e-37
9.17256e-37
5.47669e-39
3.62322e-38
1.82567e-40
1.34463e-39
5.7227e-42
4.6916e-41
1.6866e-43
1.53981e-42
4.67177e-45
4.75541e-44
1.21528e-46
1.3821e-45
2.9655e-48
3.78002e-47
6.77687e-50
9.72537e-49
1.44709e-51
2.35232e-50
2.8786e-53
5.34323e-52
5.31272e-55
1.13791e-53
9.04731e-57
2.2664e-55
1.41107e-58
4.20639e-57
1.99505e-60
7.23645e-59
2.52057e-62
1.14512e-60
2.78767e-64
1.6483e-62
2.61761e-66
2.12303e-64
1.98961e-68
2.38723e-66
1.12941e-70
2.25467e-68
4.10059e-73
1.67651e-70
6.42518e-76
8.67486e-73
2.24524e-75
8.18434e-19
6.89102e-19
1.49433e-19
1.48223e-19
2.29521e-20
2.60074e-20
3.03261e-21
3.87287e-21
3.48532e-22
4.99325e-22
3.53431e-23
5.66272e-23
3.19883e-24
5.72119e-24
2.60863e-25
5.20363e-25
1.93207e-26
4.29769e-26
1.30839e-27
3.24604e-27
8.1472e-29
2.2551e-28
4.68703e-30
1.4477e-29
2.50099e-31
8.61993e-31
1.24182e-32
4.77445e-32
5.75293e-34
2.46593e-33
2.49186e-35
1.18995e-34
1.01087e-36
5.37367e-36
3.84557e-38
2.27403e-37
1.37317e-39
9.02795e-39
4.60514e-41
3.36548e-40
1.45092e-42
1.17892e-41
4.2945e-44
3.88268e-43
1.1937e-45
1.20266e-44
3.11376e-47
3.50421e-46
7.61374e-49
9.60401e-48
1.74236e-50
2.47515e-49
3.72346e-52
5.99475e-51
7.40839e-54
1.36306e-52
1.36684e-55
2.90492e-54
2.32574e-57
5.78856e-56
3.62275e-59
1.07465e-57
5.11354e-61
1.84905e-59
6.44769e-63
2.9262e-61
7.11512e-65
4.21222e-63
6.66539e-67
5.42594e-65
5.0543e-69
6.1026e-67
2.8627e-71
5.76628e-69
1.03731e-73
4.29075e-71
1.62235e-76
2.22257e-73
5.75763e-76
1.4162e-19
1.2661e-19
2.64938e-20
2.77703e-20
4.17411e-21
4.98432e-21
5.64836e-22
7.58495e-22
6.64203e-23
9.97639e-23
6.88618e-24
1.1525e-23
6.36633e-25
1.18454e-24
5.29764e-26
1.09459e-25
3.99904e-27
9.17237e-27
2.75666e-28
7.01963e-28
1.745e-29
4.93477e-29
1.01916e-30
3.20175e-30
5.51364e-32
1.92456e-31
2.77209e-33
1.07508e-32
1.29873e-34
5.5951e-34
5.68239e-36
2.71851e-35
2.32594e-37
1.23524e-36
8.91892e-39
5.25633e-38
3.20703e-40
2.09717e-39
1.08208e-41
7.85268e-41
3.42712e-43
2.76159e-42
1.01888e-44
9.1265e-44
2.84258e-46
2.83541e-45
7.43714e-48
8.28284e-47
1.8228e-49
2.27502e-48
4.17867e-51
5.8738e-50
8.94043e-53
1.42474e-51
1.78e-54
3.2434e-53
3.2847e-56
6.91892e-55
5.58781e-58
1.3798e-56
8.69904e-60
2.56332e-58
1.22684e-61
4.41317e-60
1.54537e-63
6.9885e-62
1.7035e-65
1.00674e-63
1.59421e-67
1.29809e-65
1.20789e-69
1.46185e-67
6.8382e-72
1.38366e-69
2.47785e-74
1.03192e-71
3.87635e-77
5.36043e-74
1.39254e-76
2.35652e-20
2.23467e-20
4.50016e-21
4.97004e-21
7.24907e-22
9.08418e-22
1.0016e-22
1.40792e-22
1.20169e-23
1.8843e-23
1.27043e-24
2.21279e-24
1.1969e-25
2.30966e-25
1.01415e-26
2.16519e-26
7.78795e-28
1.83864e-27
5.45576e-29
1.42431e-28
3.50591e-30
1.01238e-29
2.07632e-31
6.63402e-31
1.13774e-32
4.02345e-32
5.7874e-34
2.26564e-33
2.74029e-35
1.18766e-34
1.21048e-36
5.80807e-36
4.99742e-38
2.65454e-37
1.93096e-39
1.13554e-38
6.99027e-41
4.55197e-40
2.37257e-42
1.71162e-41
7.55295e-44
6.04185e-43
2.25538e-45
2.00328e-44
6.31561e-47
6.2416e-46
1.65743e-48
1.82781e-47
4.07221e-50
5.03098e-49
9.3529e-52
1.30125e-50
2.00383e-53
3.16101e-52
3.99318e-55
7.20508e-54
7.37251e-57
1.53866e-55
1.25442e-58
3.07139e-57
1.95275e-60
5.71103e-59
2.75347e-62
9.84172e-61
3.46759e-64
1.56016e-62
3.82203e-66
2.2505e-64
3.5774e-68
2.90668e-66
2.71213e-70
3.28056e-68
1.53723e-72
3.11391e-70
5.5808e-75
2.33072e-72
8.75118e-78
1.21614e-74
3.17385e-77
3.7844e-21
3.80716e-21
7.34853e-22
8.54179e-22
1.20616e-22
1.5833e-22
1.69644e-23
2.49087e-23
2.07083e-24
3.38287e-24
2.22668e-25
4.02896e-25
2.1327e-26
4.26212e-26
1.83605e-27
4.04634e-27
1.43156e-28
3.47674e-28
1.01741e-29
2.72262e-29
6.62699e-31
1.95443e-30
3.97448e-32
1.29226e-31
2.20338e-33
7.90112e-33
1.13286e-34
4.48178e-34
5.41669e-36
2.36485e-35
2.41403e-37
1.16336e-36
1.00461e-38
5.34541e-38
3.90958e-40
2.29758e-39
1.42432e-41
9.24972e-41
4.86141e-43
3.49139e-42
1.55517e-44
1.23661e-43
4.66339e-46
4.11241e-45
1.31051e-47
1.28464e-46
3.44938e-49
3.77045e-48
8.49529e-51
1.0398e-49
1.95485e-52
2.69385e-51
4.19419e-54
6.55311e-53
8.36671e-56
1.4955e-54
1.54583e-57
3.19716e-56
2.63144e-59
6.3886e-58
4.09779e-61
1.18918e-59
5.78e-63
2.05174e-61
7.28246e-65
3.25722e-63
8.03289e-67
4.70699e-65
7.52796e-69
6.09364e-67
5.71789e-71
6.89829e-69
3.24971e-73
6.57332e-71
1.18412e-75
4.94415e-73
1.86482e-78
2.59528e-75
6.81551e-78
5.87873e-22
6.28363e-22
1.15631e-22
1.41526e-22
1.92739e-23
2.64974e-23
2.75127e-24