/*--------------------------------*- C++ -*----------------------------------*\
| =========                 |                                                 |
| \\      /  F ield         | OpenFOAM: The Open Source CFD Toolbox           |
|  \\    /   O peration     | Version:  5.0                                   |
|   \\  /    A nd           | Web:      www.OpenFOAM.org                      |
|    \\/     M anipulation  |                                                 |
\*---------------------------------------------------------------------------*/
FoamFile
{
    version     2.0;
    format      ascii;
    class       volScalarField;
    location    "0.15";
    object      alpha.water;
}
// * * * * * * * * * * * * * * * * * * * * * * * * * * * * * * * * * * * * * //

dimensions      [0 0 0 0 0 0 0];

internalField   nonuniform List<scalar> 
1915
(
0.013929
-9.65534e-19
0.0535366
0.00058715
0.0327833
0.00336218
0.0101729
0.00875626
0.000774445
0.00416976
6.73589e-05
0.000575831
4.04733e-05
-1.64895e-06
2.20603e-05
-1.06293e-06
9.16034e-06
-5.52884e-09
1.94927e-06
-6.38026e-09
8.72023e-27
9.10141e-25
7.76313e-24
1.14008e-23
8.43749e-24
1.6167e-24
1.20258e-25
6.73255e-27
4.05586e-28
3.34056e-29
3.31859e-30
3.22815e-31
2.85864e-32
2.33891e-33
1.75876e-34
1.26171e-35
8.77125e-37
5.89336e-38
3.8069e-39
2.35411e-40
1.38817e-41
7.77491e-43
4.11861e-44
2.05431e-45
9.60169e-47
4.18293e-48
1.68825e-49
6.26816e-51
2.12263e-52
6.48672e-54
1.76481e-55
4.19909e-57
8.52999e-59
1.43059e-60
1.8865e-62
1.8147e-64
1.12752e-66
3.66507e-69
4.1552e-72
5.49508e-76
2.74343e-25
2.75202e-22
1.68723e-21
2.00247e-21
9.73837e-22
1.41521e-22
1.02609e-23
6.26646e-25
3.97669e-26
2.97104e-27
2.4944e-28
2.09641e-29
1.66227e-30
1.24134e-31
8.67888e-33
5.85096e-34
3.838e-35
2.43801e-36
1.49131e-37
8.74541e-39
4.89745e-40
2.60893e-41
1.31686e-42
6.27145e-44
2.80511e-45
1.1723e-46
4.55032e-48
1.62897e-49
5.33299e-51
1.58002e-52
4.18047e-54
9.70939e-56
1.93466e-57
3.20449e-59
4.21518e-61
4.11416e-63
2.68557e-65
9.91838e-68
1.69016e-70
1.93595e-73
5.24925e-23
3.62637e-20
1.47076e-19
1.39133e-19
4.95136e-20
5.83306e-21
4.12362e-22
2.61312e-23
1.66245e-24
1.14471e-25
8.43417e-27
6.23733e-28
4.43589e-29
3.00997e-30
1.92603e-31
1.19287e-32
7.19218e-34
4.20005e-35
2.36321e-36
1.2758e-37
6.58346e-39
3.23541e-40
1.50864e-41
6.6481e-43
2.75662e-44
1.07025e-45
3.86855e-47
1.29317e-48
3.96559e-50
1.10462e-51
2.76065e-53
6.09308e-55
1.16328e-56
1.86782e-58
2.42373e-60
2.39603e-62
1.64081e-64
6.49071e-67
9.38351e-70
3.00948e-73
3.97826e-21
2.71934e-18
7.56654e-18
5.78014e-18
1.54801e-18
1.5556e-19
1.08191e-20
6.98561e-22
4.41047e-23
2.8517e-24
1.89627e-25
1.25607e-26
8.08679e-28
5.00468e-29
2.95371e-30
1.69241e-31
9.43478e-33
5.09224e-34
2.64861e-35
1.32237e-36
6.31469e-38
2.87396e-39
1.24218e-40
5.07952e-42
1.95696e-43
7.07e-45
2.38217e-46
7.43814e-48
2.13588e-49
5.5882e-51
1.31685e-52
2.75432e-54
5.01672e-56
7.75453e-58
9.80653e-60
9.59345e-62
6.57825e-64
2.48349e-66
3.83516e-69
1.87082e-74
4.69827e-19
1.29591e-16
2.62916e-16
1.64747e-16
3.45576e-17
3.04139e-18
2.06898e-19
1.33869e-20
8.33929e-22
5.13089e-23
3.14662e-24
1.89911e-25
1.11892e-26
6.37337e-28
3.50122e-29
1.87102e-30
9.71498e-32
4.87986e-33
2.36168e-34
1.09725e-35
4.87728e-37
2.06715e-38
8.32537e-40
3.17465e-41
1.14161e-42
3.85406e-44
1.21519e-45
3.5568e-47
9.59441e-49
2.36434e-50
5.26528e-52
1.04515e-53
1.81622e-55
2.69603e-57
3.29832e-59
3.13802e-61
2.06538e-63
8.0311e-66
1.27915e-68
3.86451e-74
1.18353e-16
4.16629e-15
6.67109e-15
3.54983e-15
5.9605e-16
4.59086e-17
2.99856e-18
1.91198e-19
1.1685e-20
6.90288e-22
3.97598e-23
2.22752e-24
1.21925e-25
6.48568e-27
3.35281e-28
1.68556e-29
8.21766e-31
3.87123e-32
1.75605e-33
7.64491e-35
3.18396e-36
1.26457e-37
4.77403e-39
1.70723e-40
5.7612e-42
1.82678e-43
5.41593e-45
1.49266e-46
3.79811e-48
8.84841e-50
1.86792e-51
3.52625e-53
5.8496e-55
8.32069e-57
9.77747e-59
8.88962e-61
5.52937e-63
2.25334e-65
4.20876e-68
1.55137e-73
3.45554e-15
9.82653e-14
1.32582e-13
5.93626e-14
7.87561e-15
5.24909e-16
3.26701e-17
2.04205e-18
1.22292e-19
6.99277e-21
3.84557e-22
2.0418e-23
1.05945e-24
5.35821e-26
2.63602e-27
1.25812e-28
5.81005e-30
2.58857e-31
1.10937e-32
4.5598e-34
1.79225e-35
6.7167e-37
2.3927e-38
8.07558e-40
2.57306e-41
7.7081e-43
2.16088e-44
5.63781e-46
1.35997e-47
3.00891e-49
6.04486e-51
1.08849e-52
1.7262e-54
2.3504e-56
2.63795e-58
2.25337e-60
1.43194e-62
5.47053e-65
1.22993e-67
5.60394e-73
1.47255e-14
1.84068e-12
1.94845e-12
6.54771e-13
6.7922e-14
4.1589e-15
2.55938e-16
1.59148e-17
9.42453e-19
5.28331e-20
2.82424e-21
1.45604e-22
7.31643e-24
3.57439e-25
1.69175e-26
7.74163e-28
3.41891e-29
1.45386e-30
5.93837e-32
2.32391e-33
8.69061e-35
3.09735e-36
1.04909e-37
3.36654e-39
1.02008e-40
2.90733e-42
7.75944e-44
1.92914e-45
4.43974e-47
9.3851e-49
1.80442e-50
3.11481e-52
4.74169e-54
6.19705e-56
6.64603e-58
5.49927e-60
3.50064e-62
1.35667e-64
3.18999e-67
1.50226e-72
5.23427e-12
2.55105e-11
1.68947e-11
3.74223e-12
3.32163e-13
2.12989e-14
1.37708e-15
8.72916e-17
5.20246e-18
2.9143e-19
1.54807e-20
7.9237e-22
3.92708e-23
1.87795e-24
8.65347e-26
3.84076e-27
1.64017e-28
6.7282e-30
2.64619e-31
9.95746e-33
3.57694e-34
1.2237e-35
3.97671e-37
1.22416e-38
3.55839e-40
9.73206e-42
2.49388e-43
5.95815e-45
1.31916e-46
2.68652e-48
4.98457e-50
8.31882e-52
1.22651e-53
1.55438e-55
1.61496e-57
1.3166e-59
8.20585e-62
3.14821e-64
7.3655e-67
3.35522e-72
1.92089e-10
1.80405e-10
7.13935e-11
1.12475e-11
9.928e-13
7.2856e-14
5.08557e-15
3.33128e-16
2.02828e-17
1.15527e-18
6.23353e-20
3.21987e-21
1.592e-22
7.53804e-24
3.42278e-25
1.49104e-26
6.22869e-28
2.49274e-29
9.54451e-31
3.49081e-32
1.21731e-33
4.03914e-35
1.27238e-36
3.79568e-38
1.06922e-39
2.83477e-41
7.04648e-43
1.63467e-44
3.5193e-46
6.98248e-48
1.26524e-49
2.06877e-51
3.0009e-53
3.76402e-55
3.91151e-57
3.12406e-59
1.85881e-61
6.64085e-64
1.4729e-66
6.19262e-72
5.08801e-07
1.28607e-06
1.04489e-07
3.63865e-06
3.90297e-08
9.01628e-07
1.46877e-08
6.81899e-08
3.87821e-09
1.60652e-08
1.31988e-09
4.30785e-09
5.65329e-10
1.02357e-09
2.7195e-10
3.5693e-10
1.32185e-10
1.43391e-10
6.54312e-11
6.61589e-11
2.40021e-11
6.2692e-12
1.45573e-12
3.36577e-13
7.81175e-14
1.82563e-14
4.33783e-15
1.05701e-15
2.6524e-16
6.84069e-17
1.79878e-17
4.76314e-18
1.25198e-18
3.22006e-19
7.99749e-20
1.89552e-20
4.24215e-21
8.8797e-22
1.72369e-22
3.07953e-23
5.02944e-24
7.46516e-25
1.01014e-25
2.7778e-06
0
3.69623e-09
1.24932e-09
5.91128e-06
2.21901e-06
5.20828e-09
1.62066e-09
5.22973e-06
2.98967e-06
6.13023e-08
5.46057e-09
4.70942e-07
8.26862e-07
4.86373e-07
1.34768e-08
1.15344e-08
2.71715e-08
8.74822e-08
4.39436e-08
3.73427e-09
1.81074e-09
1.29197e-09
4.66657e-09
1.014e-09
8.65703e-10
5.42954e-10
4.96144e-10
4.10937e-10
4.70897e-10
4.01607e-10
2.4309e-10
1.76938e-10
2.13796e-10
1.79177e-10
8.77894e-11
7.39418e-11
7.25925e-11
5.08078e-11
2.24391e-11
2.26863e-11
1.82527e-11
1.10113e-11
4.80703e-12
5.2025e-12
3.78401e-12
2.18472e-12
9.59089e-13
1.08317e-12
7.41172e-13
4.17512e-13
1.82379e-13
2.22738e-13
1.42208e-13
7.72442e-14
3.33415e-14
4.54305e-14
2.67675e-14
1.39045e-14
5.89783e-15
9.202e-15
4.95744e-15
2.44617e-15
1.01396e-15
1.86643e-15
9.0833e-16
4.22188e-16
1.69968e-16
3.82967e-16
1.65767e-16
7.17651e-17
2.78543e-17
8.02822e-17
3.03742e-17
1.20717e-17
4.47479e-18
1.73253e-17
5.63794e-18
2.02133e-18
7.06956e-19
3.85909e-18
1.06902e-18
3.39294e-19
1.10282e-19
8.83347e-19
2.08187e-19
5.75127e-20
1.70713e-20
2.05446e-19
4.16247e-20
9.90315e-21
2.63668e-21
4.77798e-20
8.47751e-21
1.73587e-21
4.08335e-22
1.09193e-20
1.73348e-21
3.08527e-22
6.35763e-23
2.4124e-21
3.49505e-22
5.50192e-23
9.93733e-24
5.08037e-22
6.82278e-23
9.69219e-24
1.54905e-24
1.00799e-22
1.26912e-23
1.6575e-24
2.38096e-25
1.86609e-23
2.22059e-24
2.70726e-25
3.55777e-26
3.1978e-24
3.61812e-25
4.16679e-26
5.09432e-27
5.03924e-25
5.44745e-26
5.98145e-27
6.9021e-28
7.25742e-26
7.53148e-27
7.94905e-28
8.76098e-29
9.5053e-27
9.5247e-28
9.72052e-29
1.03389e-29
9.51759e-10
4.64544e-10
1.38235e-10
2.24109e-11
2.22573e-12
1.81598e-13
1.34398e-14
9.10544e-16
5.69502e-17
3.32494e-18
1.83646e-19
9.62425e-21
4.78873e-22
2.26938e-23
1.02666e-24
4.43801e-26
1.8334e-27
7.23563e-29
2.72579e-30
9.79067e-32
3.34826e-33
1.0884e-34
3.35658e-36
9.79923e-38
2.70134e-39
7.01117e-41
1.70735e-42
3.88484e-44
8.21752e-46
1.60571e-47
2.87479e-49
4.66504e-51
6.75914e-53
8.55406e-55
9.133e-57
7.73469e-59
4.61271e-61
1.45975e-63
2.47235e-66
7.62846e-72
1.39669e-09
5.4416e-10
1.63886e-10
3.25941e-11
3.84857e-12
3.35452e-13
2.584e-14
1.81611e-15
1.17053e-16
7.05451e-18
3.99969e-19
2.1321e-20
1.07361e-21
5.12841e-23
2.32929e-24
1.00729e-25
4.15022e-27
1.62938e-28
6.0934e-30
2.16907e-31
7.34215e-33
2.36019e-34
7.19403e-36
2.07542e-37
5.65481e-39
1.45145e-40
3.49902e-42
7.89377e-44
1.65919e-45
3.23132e-47
5.78988e-49
9.45661e-51
1.39034e-52
1.8078e-54
2.02578e-56
1.87476e-58
1.33125e-60
6.28474e-63
1.33385e-65
1.50829e-70
1.10693e-09
2.3731e-10
9.06681e-11
3.00868e-11
5.00832e-12
4.5397e-13
3.52047e-14
2.6007e-15
1.77572e-16
1.11417e-17
6.48169e-19
3.53271e-20
1.81381e-21
8.80018e-23
4.0431e-24
1.76168e-25
7.28904e-27
2.86554e-28
1.07045e-29
3.79716e-31
1.27832e-32
4.0807e-34
1.23373e-35
3.52749e-37
9.52135e-39
2.42108e-40
5.78469e-42
1.29467e-43
2.70372e-45
5.24295e-47
9.38184e-49
1.5366e-50
2.27843e-52
3.01249e-54
3.4744e-56
3.38704e-58
2.64773e-60
1.51261e-62
5.22112e-65
6.49725e-68
8.47012e-10
2.02884e-10
7.83404e-11
2.45994e-11
3.98373e-12
3.74991e-13
3.04824e-14
2.31119e-15
1.6083e-16
1.03247e-17
6.1539e-19
3.42401e-20
1.78712e-21
8.78388e-23
4.07906e-24
1.79364e-25
7.47477e-27
2.95386e-28
1.10723e-29
3.9392e-31
1.3294e-32
4.25253e-34
1.28821e-35
3.69086e-37
9.98676e-39
2.54719e-40
6.11039e-42
1.37474e-43
2.89083e-45
5.65681e-47
1.02431e-48
1.70366e-50
2.57698e-52
3.49703e-54
4.17656e-56
4.26777e-58
3.57419e-60
2.28423e-62
9.74652e-65
1.99766e-67
1.58673e-09
9.14083e-11
6.49723e-11
1.66626e-11
2.08791e-12
1.99009e-13
1.70747e-14
1.35303e-15
9.85414e-17
6.60702e-18
4.10318e-19
2.37305e-20
1.28339e-21
6.51189e-23
3.10734e-24
1.39734e-25
5.9333e-27
2.38199e-28
9.04842e-30
3.25251e-31
1.10649e-32
3.56185e-34
1.08433e-35
3.11921e-37
8.46891e-39
2.16703e-40
5.21591e-42
1.17812e-43
2.48956e-45
4.90254e-47
8.95071e-49
1.50477e-50
2.30804e-52
3.18881e-54
3.8973e-56
4.10223e-58
3.57147e-60
2.41343e-62
1.11881e-64
2.59308e-67
2.09949e-09
3.45978e-10
4.67209e-11
6.50805e-12
7.74503e-13
7.86502e-14
7.09233e-15
5.7869e-16
4.31446e-17
2.96117e-18
1.88258e-19
1.11422e-20
6.16345e-22
3.19636e-23
1.55782e-24
7.14847e-26
3.09308e-27
1.26335e-28
4.87454e-30
1.77729e-31
6.12447e-33
1.99439e-34
6.13506e-36
1.78162e-37
4.87973e-39
1.25899e-40
3.05486e-42
6.95657e-44
1.48269e-45
2.94722e-47
5.43784e-49
9.25403e-51
1.43997e-52
2.02412e-54
2.52632e-56
2.72954e-58
2.45474e-60
1.71693e-62
8.25082e-65
1.98994e-67
4.32852e-10
1.32939e-10
1.91172e-11
2.27614e-12
2.59063e-13
2.67799e-14
2.47738e-15
2.0679e-16
1.5732e-17
1.0996e-18
7.10588e-20
4.26715e-21
2.391e-22
1.25425e-23
6.17604e-25
2.86067e-26
1.24841e-27
5.13912e-29
1.9972e-30
7.33121e-32
2.54235e-33
8.32856e-35
2.57656e-36
7.52303e-38
2.07139e-39
5.37211e-41
1.31034e-42
3e-44
6.4303e-46
1.28598e-47
2.38866e-49
4.09552e-51
6.42719e-53
9.123e-55
1.15155e-56
1.26061e-58
1.15131e-60
8.22142e-63
4.06013e-65
1.01105e-67
1.03391e-10
2.77865e-11
4.82228e-12
6.4919e-13
7.67237e-14
8.12999e-15
7.71834e-16
6.60537e-17
5.14086e-18
3.66701e-19
2.41244e-20
1.47129e-21
8.35341e-23
4.43048e-24
2.20136e-25
1.02702e-26
4.50723e-28
1.86335e-29
7.26414e-31
2.67227e-32
9.28008e-34
3.04258e-35
9.41619e-37
2.74953e-38
7.56959e-40
1.96275e-41
4.7865e-43
1.09575e-44
2.34888e-46
4.69914e-48
8.73469e-50
1.49938e-51
2.35711e-53
3.35393e-55
4.24743e-57
4.66966e-59
4.28822e-61
3.08475e-63
1.53878e-65
3.87888e-68
2.80528e-11
6.41426e-12
1.14298e-12
1.65671e-13
2.055e-14
2.24731e-15
2.19201e-16
1.92392e-17
1.53275e-18
1.11684e-19
7.48993e-21
4.64683e-22
2.67835e-23
1.43921e-24
7.23082e-26
3.40476e-27
1.50544e-28
6.26018e-30
2.45114e-31
9.04441e-33
3.14672e-34
1.03256e-35
3.19553e-37
9.32413e-39
2.56362e-40
6.63557e-42
1.61478e-43
3.6879e-45
7.88553e-47
1.57347e-48
2.91714e-50
4.99489e-52
7.83374e-54
1.11234e-55
1.40631e-57
1.54439e-59
1.41773e-61
1.02044e-63
5.0989e-66
1.28864e-68
6.87393e-12
1.50831e-12
2.67751e-13
3.99302e-14
5.11761e-15
5.75391e-16
5.75298e-17
5.1681e-18
4.20827e-19
3.12934e-20
2.13831e-21
1.34951e-22
7.89964e-24
4.3041e-25
2.18909e-26
1.04184e-27
4.64893e-29
1.94811e-30
7.67592e-32
2.8465e-33
9.94108e-35
3.27081e-36
1.01394e-37
2.9609e-39
8.14082e-41
2.10567e-42
5.11754e-44
1.16665e-45
2.48892e-47
4.95336e-49
9.15647e-51
1.56288e-52
2.44303e-54
3.45721e-56
4.35623e-58
4.76873e-60
4.36523e-62
3.1347e-64
1.56386e-66
3.94796e-69
1.51167e-12
3.34221e-13
5.98832e-14
9.10676e-15
1.19525e-15
1.3755e-16
1.406e-17
1.29002e-18
1.07174e-19
8.12172e-21
5.64836e-22
3.62337e-23
2.15302e-24
1.18918e-25
6.12323e-27
2.94649e-28
1.32767e-29
5.61117e-31
2.22718e-32
8.31057e-34
2.91732e-35
9.63828e-37
2.99739e-38
8.77328e-40
2.41585e-41
6.25369e-43
1.52007e-44
3.46366e-46
7.38188e-48
1.46691e-49
2.70641e-51
4.60883e-53
7.18547e-55
1.01393e-56
1.27372e-58
1.39002e-60
1.26857e-62
9.0842e-65
4.52119e-67
1.13881e-69
3.06921e-13
6.91328e-14
1.2628e-14
1.95943e-15
2.62579e-16
3.08471e-17
3.21698e-18
3.00928e-19
2.5468e-20
1.96413e-21
1.38867e-22
9.04592e-24
5.452e-25
3.05089e-26
1.58978e-27
7.73314e-29
3.51855e-30
1.49999e-31
5.99942e-33
2.25361e-34
7.95649e-36
2.64146e-37
8.24771e-39
2.42191e-40
6.68583e-42
1.73388e-43
4.21957e-45
9.62089e-47
2.05065e-48
4.0735e-50
7.50953e-52
1.27732e-53
1.98848e-55
2.80104e-57
3.512e-59
3.82496e-61
3.48371e-63
2.48995e-65
1.23718e-67
3.11072e-70
5.88758e-14
1.35017e-14
2.51839e-15
3.98643e-16
5.44594e-17
6.51907e-18
6.92417e-19
6.59289e-20
5.67536e-21
4.4483e-22
3.19337e-23
2.11015e-24
1.28883e-25
7.30154e-27
3.84807e-28
1.89127e-29
8.68639e-31
3.73454e-32
1.50502e-33
5.69142e-35
2.02122e-36
6.74444e-38
2.11506e-39
6.23346e-41
1.72593e-42
4.48662e-44
1.09385e-45
2.49727e-47
5.32724e-49
1.05866e-50
1.95176e-52
3.31903e-54
5.16447e-56
7.27024e-58
9.10911e-60
9.91387e-62
9.02394e-64
6.44709e-66
3.2029e-68
8.05044e-71
1.08077e-14
2.51485e-15
4.77975e-16
7.70509e-17
1.07112e-17
1.30411e-18
1.40823e-19
1.36253e-20
1.19114e-21
9.47462e-23
6.89729e-24
4.61793e-25
2.85539e-26
1.63623e-27
8.71488e-29
4.32503e-30
2.00414e-31
8.68607e-33
3.52599e-34
1.34207e-35
4.79365e-37
1.60764e-38
5.06363e-40
1.49793e-41
4.16055e-43
1.08436e-44
2.6492e-46
6.05803e-48
1.2939e-49
2.5736e-51
4.7476e-53
8.07671e-55
1.25712e-56
1.77016e-58
2.21862e-60
2.41586e-62
2.20073e-64
1.57414e-66
7.83287e-69
1.97168e-71
1.9114e-15
4.49569e-16
8.67958e-17
1.42138e-17
2.00634e-18
2.47953e-19
2.71697e-20
2.6665e-21
2.36338e-22
1.90483e-23
1.40416e-24
9.51333e-26
5.94818e-27
3.44413e-28
1.85221e-29
9.27459e-31
4.33304e-32
1.89207e-33
7.73284e-35
2.96131e-36
1.06349e-37
3.5838e-39
1.13356e-40
3.3655e-42
9.37676e-44
2.4502e-45
5.99901e-47
1.37422e-48
2.93929e-50
5.85304e-52
1.08076e-53
1.84019e-55
2.86665e-57
4.04046e-59
5.07018e-61
5.52955e-63
5.04752e-65
3.61999e-67
1.8073e-69
4.56443e-72
3.27075e-16
7.74543e-17
1.51401e-17
2.51197e-18
3.59195e-19
4.49632e-20
4.98953e-21
4.95775e-22
4.4472e-23
3.62595e-24
2.70253e-25
1.85024e-26
1.16832e-27
6.82773e-29
3.7037e-30
1.86946e-31
8.79876e-33
3.86816e-34
1.59067e-35
6.12548e-37
2.21083e-38
7.48316e-40
2.37614e-41
7.07854e-43
1.97791e-44
5.18115e-46
1.27117e-47
2.91702e-49
6.24832e-51
1.24583e-52
2.30314e-54
3.92615e-56
6.12413e-58
8.6452e-60
1.08696e-61
1.1884e-63
1.08828e-65
7.83652e-68
3.9318e-70
9.98058e-73
5.43208e-17
1.29e-17
2.5445e-18
4.26544e-19
6.16401e-20
7.79833e-21
8.74577e-22
8.78119e-23
7.95749e-24
6.55216e-25
4.92985e-26
3.40563e-27
2.16886e-28
1.27769e-29
6.98304e-31
3.54943e-32
1.68139e-33
7.43585e-35
3.0744e-36
1.18974e-37
4.31301e-39
1.46559e-40
4.66977e-42
1.39532e-43
3.90896e-45
1.02623e-46
2.52259e-48
5.79813e-50
1.24376e-51
2.48319e-53
4.59669e-55
7.84718e-57
1.22608e-58
1.7344e-60
2.18639e-62
2.39849e-64
2.20582e-66
1.59687e-68
8.0639e-71
2.06081e-73
8.77687e-18
2.08178e-18
4.12981e-19
6.97525e-20
1.01623e-20
1.29652e-21
1.46645e-22
1.48492e-23
1.35689e-24
1.12636e-25
8.54126e-27
5.94478e-28
3.81293e-29
2.26137e-30
1.24374e-31
6.35916e-33
3.02888e-34
1.34625e-35
5.5918e-37
2.17295e-38
7.90683e-40
2.69572e-41
8.61446e-43
2.58054e-44
7.24526e-46
1.90572e-47
4.69214e-49
1.08004e-50
2.31989e-52
4.63779e-54
8.59722e-56
1.47006e-57
2.30149e-59
3.26394e-61
4.12802e-63
4.54747e-65
4.2044e-67
3.06382e-69
1.55951e-71
4.01879e-74
1.38235e-18
3.26098e-19
6.48453e-20
1.10046e-20
1.61243e-21
2.06992e-22
2.35633e-23
2.4016e-24
2.20881e-25
1.84524e-26
1.40794e-27
9.85781e-29
6.35873e-30
3.79159e-31
2.09596e-32
1.07675e-33
5.15122e-35
2.29889e-36
9.58412e-38
3.73687e-39
1.36384e-40
4.6622e-42
1.49333e-43
4.48245e-45
1.26071e-46
3.32103e-48
8.18763e-50
1.88692e-51
4.05781e-53
8.12232e-55
1.50785e-56
2.58294e-58
4.05311e-60
5.76529e-62
7.31994e-64
8.1041e-66
7.54017e-68
5.53779e-70
2.84536e-72
7.40495e-75
2.12626e-19
4.96507e-20
9.86314e-21
1.67718e-21
2.46557e-22
3.17773e-23
3.63324e-24
3.71999e-25
3.43729e-26
2.88484e-27
2.21119e-28
1.55503e-29
1.00732e-30
6.0308e-32
3.34652e-33
1.72536e-34
8.28166e-36
3.70726e-37
1.54987e-38
6.05815e-40
2.21597e-41
7.58995e-43
2.43522e-44
7.32029e-46
2.06143e-47
5.43617e-49
1.34153e-50
3.09457e-52
6.6615e-54
1.33496e-55
2.48192e-57
4.25976e-59
6.70166e-61
9.56544e-63
1.21996e-64
1.3585e-66
1.27326e-68
9.4363e-71
4.90117e-73
1.29007e-75
3.20072e-20
7.35664e-21
1.45464e-21
2.47169e-22
3.63682e-23
4.69566e-24
5.38122e-25
5.5243e-26
5.11895e-27
4.30875e-28
3.31228e-29
2.33611e-30
1.51756e-31
9.11007e-33
5.06819e-34
2.61928e-35
1.26006e-36
5.65214e-38
2.36733e-39
9.26859e-41
3.39514e-42
1.1643e-43
3.7395e-45
1.12506e-46
3.17051e-48
8.36617e-50
2.06582e-51
4.7684e-53
1.02728e-54
2.06087e-56
3.83722e-58
6.59962e-60
1.04126e-61
1.49198e-63
1.9126e-65
2.14392e-67
2.02625e-69
1.51721e-71
7.97749e-74
2.12694e-76
4.72778e-21
1.06202e-21
2.08166e-22
3.52439e-23
5.17812e-24
6.68322e-25
7.66134e-26
7.87102e-27
7.30113e-28
6.15315e-29
4.73648e-30
3.34524e-31
2.17614e-32
1.30816e-33
7.2873e-35
3.77083e-36
1.81612e-37
8.15484e-39
3.41865e-40
1.33951e-41
4.90979e-43
1.68455e-44
5.41242e-46
1.6288e-47
4.59096e-49
1.21164e-50
2.9925e-52
6.90983e-54
1.48951e-55
2.99106e-57
5.57758e-59
9.61423e-61
1.52169e-62
2.18982e-64
2.82336e-66
3.18848e-68
3.04193e-70
2.30418e-72
1.22828e-74
3.32207e-77
6.87477e-22
1.49593e-22
2.89236e-23
4.86431e-24
7.11912e-25
9.16546e-26
1.04895e-26
1.07649e-27
9.97866e-29
8.40632e-30
6.4696e-31
4.56902e-32
2.97233e-33
1.78694e-34
9.95551e-36
5.15207e-37
2.48157e-38
1.11434e-39
4.67145e-41
1.83023e-42
6.70742e-44
2.30079e-45
7.39021e-47
2.22326e-48
6.26441e-50
1.65284e-51
4.08152e-53
9.42505e-55
2.03252e-56
4.08508e-58
7.62936e-60
1.31824e-61
2.0937e-63
3.02749e-65
3.92849e-67
4.47356e-69
4.31292e-71
3.30922e-73
1.7911e-75
4.92156e-78
9.87691e-23
2.0595e-23
3.90447e-24
6.49987e-25
9.4524e-26
1.21134e-26
1.38137e-27
1.41357e-28
1.30724e-29
1.09908e-30
8.44438e-32
5.95495e-33
3.86894e-34
2.32329e-35
1.29301e-36
6.68486e-38
3.21685e-39
1.4432e-40
6.04459e-42
2.36606e-43
8.66311e-45
2.96887e-46
9.52721e-48
2.86356e-49
8.06182e-51
2.12556e-52
5.2462e-54
1.21121e-55
2.61258e-57
5.25522e-59
9.83039e-61
1.70294e-62
2.71503e-64
3.94688e-66
5.15811e-68
5.92825e-70
5.7822e-72
4.50012e-74
2.4769e-76
6.92511e-79
1.40657e-23
2.77671e-24
5.12464e-25
8.41005e-26
1.21199e-26
1.54274e-27
1.74969e-28
1.78224e-29
1.64163e-30
1.37541e-31
1.05346e-32
7.4082e-34
4.80087e-35
2.87617e-36
1.59724e-37
8.24105e-39
3.95812e-40
1.77252e-41
7.41088e-43
2.89594e-44
1.05857e-45
3.62195e-47
1.16051e-48
3.48307e-50
9.79307e-52
2.57914e-53
6.36039e-55
1.4678e-56
3.16632e-58
6.37408e-60
1.19434e-61
2.0748e-63
3.32184e-65
4.85751e-67
6.39846e-69
7.42925e-71
7.33977e-73
5.80245e-75
3.25303e-77
9.26868e-80
1.98899e-24
3.67254e-25
6.54474e-26
1.05376e-26
1.50042e-27
1.89287e-28
2.13113e-29
2.15718e-30
1.97604e-31
1.64743e-32
1.25619e-33
8.79788e-35
5.68015e-36
3.39119e-37
1.8772e-38
9.65637e-40
4.62476e-41
2.0655e-42
8.61376e-44
3.35778e-45
1.22453e-46
4.18044e-48
1.33664e-49
4.00387e-51
1.12377e-52
2.95521e-54
7.27963e-56
1.67885e-57
3.62155e-59
7.29629e-61
1.36963e-62
2.38667e-64
3.83893e-66
5.65032e-68
7.5079e-70
8.8161e-72
8.83368e-74
7.10433e-76
4.06376e-78
1.18184e-80
2.78971e-25
4.76908e-26
8.13768e-27
1.27859e-27
1.79284e-28
2.23653e-29
2.49507e-30
2.50569e-31
2.27928e-32
1.8883e-33
1.43161e-34
9.97385e-36
6.40817e-37
3.80864e-38
2.09944e-39
1.07573e-40
5.13302e-42
2.28453e-43
9.49577e-45
3.69003e-46
1.3417e-47
4.56765e-49
1.45662e-50
4.35277e-52
1.21907e-53
3.20005e-55
7.87198e-57
1.81401e-58
3.91282e-60
7.88981e-62
1.48401e-63
2.59485e-65
4.19533e-67
6.21952e-69
8.34409e-71
9.92011e-73
1.00949e-74
8.27237e-77
4.83651e-79
1.43804e-81
3.86254e-26
6.07554e-27
9.85099e-28
1.502e-28
2.06672e-29
2.54333e-30
2.80632e-31
2.79176e-32
2.51827e-33
2.07054e-34
1.55894e-35
1.0792e-36
6.89309e-38
4.0745e-39
2.23457e-40
1.13951e-41
5.4131e-43
2.39905e-44
9.93221e-46
3.84516e-47
1.39317e-48
4.72713e-50
1.50283e-51
4.47823e-53
1.2511e-54
3.27729e-56
8.0494e-58
1.85321e-59
3.99707e-61
8.06744e-63
1.52084e-64
2.66943e-66
4.34065e-68
6.48647e-70
8.79497e-72
1.05994e-73
1.09704e-75
9.17552e-78
5.49335e-80
1.67265e-82
5.23563e-27
7.57017e-28
1.15978e-28
1.70715e-29
2.2968e-30
2.78153e-31
3.03017e-32
2.98167e-33
2.66363e-34
2.17094e-35
1.62149e-36
1.11425e-37
7.06852e-39
4.15176e-40
2.26352e-41
1.14791e-42
5.4248e-44
2.39255e-45
9.86004e-47
3.80081e-48
1.37154e-49
4.63617e-51
1.46878e-52
4.36295e-54
1.21551e-55
3.17678e-57
7.78929e-59
1.79161e-60
3.86412e-62
7.80798e-64
1.47569e-65
2.60133e-67
4.25695e-69
6.41777e-71
8.80405e-73
1.07699e-74
1.13551e-76
9.71077e-79
5.96498e-81
1.86311e-83
6.87387e-28
9.17718e-29
1.32483e-29
1.87485e-30
2.45826e-31
2.92289e-32
3.13831e-33
3.05026e-34
2.69538e-35
2.17531e-36
1.61021e-37
1.09737e-38
6.90826e-40
4.02883e-41
2.18197e-42
1.09971e-43
5.16696e-45
2.26647e-46
9.29284e-48
3.56504e-49
1.2807e-50
4.31113e-52
1.36059e-53
4.02766e-55
1.11875e-56
2.91673e-58
7.13896e-60
1.64049e-61
3.53852e-63
7.15989e-65
1.35719e-66
2.40404e-68
3.96212e-70
6.03192e-72
8.38177e-74
1.04223e-75
1.12125e-77
9.8231e-80
6.20357e-82
1.99106e-84
8.64232e-29
1.0749e-29
1.46289e-30
1.98545e-31
2.53034e-32
2.94769e-33
3.11444e-34
2.98622e-35
2.6074e-36
2.08172e-37
1.52581e-38
1.03046e-39
6.43279e-41
3.72241e-42
2.00143e-43
1.00191e-44
4.67772e-46
2.03973e-47
8.31689e-49
3.1741e-50
1.13475e-51
3.80275e-53
1.19524e-54
3.52526e-56
9.76116e-58
2.53842e-59
6.20191e-61
1.42393e-62
3.07228e-64
6.22701e-66
1.18438e-67
2.10943e-69
3.50421e-71
5.39273e-73
7.60017e-75
9.62085e-77
1.058e-78
9.51446e-81
6.19083e-83
2.04541e-85
1.02971e-29
1.20707e-30
1.55407e-31
2.02175e-32
2.5002e-33
2.84894e-34
2.95809e-35
2.79499e-36
2.40916e-37
1.90124e-38
1.37885e-39
9.22168e-41
5.70515e-42
3.27386e-43
1.74662e-44
8.68039e-46
4.02535e-47
1.7442e-48
7.06994e-50
2.68336e-51
9.54411e-53
3.18331e-54
9.96261e-56
2.92723e-57
8.07904e-59
2.09561e-60
5.11117e-62
1.17267e-63
2.53154e-65
5.14168e-67
9.81813e-69
1.75948e-70
2.94878e-72
4.59242e-74
6.57332e-76
8.48477e-78
9.55564e-80
8.83953e-82
5.93954e-84
2.02397e-86
1.15269e-30
1.29e-31
1.58e-32
1.97295e-33
2.3662e-34
2.63453e-35
2.68547e-36
2.49824e-37
2.12418e-38
1.65589e-39
1.18755e-40
7.86099e-42
4.81733e-43
2.74015e-44
1.44996e-45
7.15133e-47
3.2928e-48
1.41735e-49
5.70968e-51
2.15465e-52
7.62287e-54
2.53011e-55
7.88346e-57
2.30736e-58
6.34754e-60
1.64235e-61
3.99927e-63
9.17118e-65
1.9816e-66
4.03499e-68
7.74009e-70
1.39679e-71
2.36405e-73
3.73049e-75
5.43087e-77
7.16026e-79
8.27452e-81
7.8909e-83
5.48816e-85
1.93272e-87
)
;

boundaryField
{
    leftWall
    {
        type            zeroGradient;
    }
    rightWall
    {
        type            zeroGradient;
    }
    lowerWall
    {
        type            zeroGradient;
    }
    atmosphere
    {
        type            inletOutlet;
        inletValue      nonuniform 0();
        value           nonuniform 0();
    }
    defaultFaces
    {
        type            empty;
    }
    procBoundary1to0
    {
        type            processor;
        value           nonuniform List<scalar> 
44
(
0.506927
0.0923385
0.0152274
0.00259382
6.77334e-05
4.53487e-05
3.06721e-05
1.79109e-05
7.51641e-06
1.14908e-06
1.65838e-07
4.59233e-08
1.36534e-08
3.65467e-09
1.13156e-09
5.70622e-10
3.61982e-10
2.4998e-10
1.6488e-10
8.29318e-11
2.58516e-11
2.58516e-11
7.72008e-12
2.09183e-12
5.70694e-13
1.57829e-13
4.42198e-14
1.26028e-14
3.65948e-15
1.07893e-15
3.20599e-16
9.50929e-17
2.78615e-17
7.97922e-18
2.21096e-18
5.8692e-19
1.47834e-19
3.50038e-20
7.7225e-21
1.57439e-21
2.94373e-22
5.00927e-23
7.72481e-24
1.09252e-24
)
;
    }
    procBoundary1to3
    {
        type            processor;
        value           nonuniform List<scalar> 
45
(
1.27223e-26
1.1517e-27
1.10966e-28
1.09437e-29
1.13089e-30
1.2048e-31
1.30293e-32
1.52916e-33
1.83838e-34
2.13942e-35
2.32663e-36
2.32682e-37
2.1299e-38
1.78545e-39
1.37418e-40
9.7411e-42
6.37961e-43
3.87115e-44
2.18193e-45
1.14483e-46
5.60204e-48
2.56056e-49
1.09466e-50
4.38176e-52
1.6438e-53
5.78398e-55
1.91024e-56
5.92555e-58
1.7276e-59
4.73743e-61
1.22283e-62
2.97355e-64
6.8177e-66
1.475e-67
3.01274e-69
5.80971e-71
1.0567e-72
1.80809e-74
2.89472e-76
4.29278e-78
5.79122e-80
6.88077e-82
6.7791e-84
4.89142e-86
1.78347e-88
)
;
    }
}


// ************************************************************************* //
