/*--------------------------------*- C++ -*----------------------------------*\
| =========                 |                                                 |
| \\      /  F ield         | OpenFOAM: The Open Source CFD Toolbox           |
|  \\    /   O peration     | Version:  5.0                                   |
|   \\  /    A nd           | Web:      www.OpenFOAM.org                      |
|    \\/     M anipulation  |                                                 |
\*---------------------------------------------------------------------------*/
FoamFile
{
    version     2.0;
    format      ascii;
    class       volScalarField;
    location    "0.15";
    object      k;
}
// * * * * * * * * * * * * * * * * * * * * * * * * * * * * * * * * * * * * * //

dimensions      [0 2 -2 0 0 0 0];

internalField   nonuniform List<scalar> 
1915
(
0.0359596
0.0290939
0.0713838
0.0470618
0.0969728
0.0582148
0.128676
0.0657393
0.157699
0.0686388
0.165285
0.0675869
0.150554
0.0640967
0.134154
0.0605269
0.129816
0.0577055
0.144141
0.0591722
0.011921
0.0166284
0.0169615
0.0177379
0.0193992
0.0204782
0.0211011
0.0214112
0.0215132
0.02148
0.0213614
0.0211901
0.0209988
0.0208559
0.0207247
0.0205941
0.020465
0.0203388
0.020216
0.0200966
0.0199801
0.0198663
0.0197545
0.0196441
0.0195334
0.0194202
0.0193007
0.0191694
0.0190183
0.0188363
0.0186081
0.0183124
0.0179204
0.0173934
0.0170304
0.0167458
0.0168154
0.0167209
0.0159986
0.00963338
0.0108582
0.022922
0.0303182
0.0354313
0.0386132
0.0404772
0.0414967
0.0420026
0.0422044
0.0422277
0.0421472
0.042007
0.0418349
0.0416468
0.0414643
0.0412951
0.0411418
0.0410041
0.0408807
0.0407696
0.0406688
0.0405764
0.0404904
0.0404079
0.040325
0.0402356
0.0401312
0.0399999
0.0398248
0.0395832
0.0392435
0.0387633
0.0380844
0.0371254
0.0356929
0.033783
0.0311094
0.0273887
0.0219023
0.0106603
0.0129817
0.0292718
0.0386953
0.0447003
0.0483814
0.0505151
0.0516849
0.0522886
0.0525706
0.0526709
0.0526675
0.0526043
0.0525071
0.0523873
0.052256
0.0521251
0.0520003
0.0518837
0.0517757
0.0516756
0.0515824
0.0514943
0.0514091
0.0513237
0.0512331
0.0511301
0.0510044
0.0508417
0.0506219
0.050318
0.0498927
0.049296
0.0484591
0.0472862
0.0456346
0.0432991
0.0400121
0.035266
0.0279686
0.0132913
0.0150275
0.0347214
0.0452972
0.051687
0.0554548
0.0575672
0.0586941
0.0592654
0.0595347
0.0596426
0.0596634
0.0596361
0.059582
0.0595044
0.0594118
0.0593141
0.0592166
0.0591219
0.0590309
0.0589437
0.0588594
0.0587767
0.0586933
0.0586054
0.0585077
0.0583921
0.0582472
0.0580572
0.0578005
0.0574477
0.0569592
0.0562814
0.0553409
0.0540355
0.0522179
0.0496695
0.0460646
0.0408217
0.0325989
0.0155103
0.0168427
0.0395922
0.0511752
0.0577753
0.0614393
0.0633635
0.0643154
0.0647507
0.0649241
0.0649707
0.0649581
0.0649184
0.0648673
0.0647986
0.0647206
0.064639
0.064557
0.0644759
0.0643964
0.064318
0.06424
0.0641608
0.0640776
0.0639865
0.0638814
0.0637535
0.0635905
0.0633757
0.0630864
0.0626921
0.0621517
0.06141
0.0603914
0.0589903
0.0570552
0.0543597
0.050548
0.0449781
0.0361135
0.017249
0.0187575
0.0436865
0.0564339
0.0633625
0.0669136
0.0685655
0.0692397
0.0694434
0.0694389
0.0693553
0.0692517
0.0691513
0.0690614
0.0689704
0.068882
0.0687973
0.0687163
0.0686383
0.0685623
0.0684872
0.0684113
0.0683324
0.0682474
0.0681516
0.0680382
0.0678979
0.0677176
0.0674799
0.0671613
0.0667305
0.0661459
0.0653513
0.0642697
0.0627938
0.0607685
0.0579605
0.0539939
0.0481771
0.0388201
0.0186074
0.0201158
0.0469734
0.060948
0.0685842
0.0721672
0.0735176
0.0738223
0.0736967
0.0734297
0.0731469
0.0728963
0.0726901
0.0725235
0.0723803
0.0722576
0.0721513
0.0720571
0.0719713
0.0718908
0.0718127
0.0717343
0.0716524
0.071563
0.0714608
0.0713383
0.0711853
0.0709883
0.0707292
0.070384
0.0699209
0.0692978
0.0684579
0.0673237
0.0657862
0.0636875
0.0607879
0.0566958
0.0506798
0.0409289
0.0196742
0.0210799
0.0501142
0.0651425
0.0737585
0.0774679
0.0784516
0.0782709
0.0777068
0.0770897
0.0765405
0.0760915
0.0757396
0.0754628
0.0752412
0.0750637
0.0749195
0.0747993
0.0746958
0.074603
0.0745161
0.0744307
0.0743424
0.0742463
0.0741359
0.0740032
0.0738374
0.0736242
0.073345
0.0729754
0.0724833
0.0718261
0.0709469
0.0697673
0.0681771
0.066016
0.0630385
0.0588401
0.0526574
0.0425846
0.0205159
0.0295608
0.0557577
0.0709687
0.0798151
0.0832167
0.0835604
0.0827063
0.0815748
0.0805199
0.0796436
0.0789523
0.0784213
0.0780081
0.077688
0.0774395
0.0772443
0.0770877
0.0769581
0.0768464
0.0767455
0.0766491
0.0765513
0.0764461
0.0763261
0.0761823
0.0760034
0.0757743
0.0754762
0.0750841
0.0745656
0.0738781
0.0729639
0.0717443
0.070108
0.0678922
0.0648463
0.0605552
0.05423
0.0438906
0.0211823
0.052083
0.0696646
0.0814375
0.0880512
0.0898551
0.0889719
0.0871671
0.0853268
0.0837563
0.0825063
0.0815419
0.080806
0.0802408
0.0798089
0.0794782
0.0792227
0.0790219
0.0788598
0.0787241
0.0786049
0.0784941
0.0783843
0.0782681
0.0781371
0.0779815
0.0777892
0.0775447
0.0772286
0.0768156
0.0762731
0.0755579
0.0746124
0.073357
0.0716794
0.0694144
0.0663075
0.0619341
0.0554854
0.0449234
0.021711
0.168434
0.0713812
0.181971
0.108668
0.182846
0.150568
0.174745
0.171904
0.162488
0.172928
0.150351
0.16424
0.140149
0.153207
0.132112
0.14307
0.125938
0.134716
0.12121
0.128055
0.122759
0.118532
0.115137
0.112389
0.110153
0.108321
0.10681
0.105556
0.104506
0.103621
0.102867
0.102218
0.101654
0.101159
0.10072
0.100328
0.0999746
0.0996545
0.0993633
0.0990978
0.0988556
0.0986351
0.0984301
0.058795
0.0410513
0.0506671
0.0618666
0.0840725
0.0973473
0.0993261
0.107339
0.122114
0.112439
0.116286
0.125651
0.157455
0.148905
0.150489
0.15409
0.173099
0.172127
0.172643
0.171962
0.172066
0.175961
0.176836
0.174279
0.163118
0.168976
0.170631
0.16824
0.152392
0.158452
0.160578
0.158874
0.14254
0.14791
0.150051
0.148945
0.134244
0.13861
0.140475
0.139754
0.127481
0.130837
0.132308
0.131797
0.12203
0.124499
0.125571
0.125156
0.117646
0.119391
0.120104
0.119719
0.11412
0.115288
0.115701
0.115309
0.111275
0.111991
0.112157
0.111739
0.108968
0.109331
0.109299
0.108846
0.107088
0.107175
0.106981
0.10649
0.105545
0.105415
0.105091
0.104559
0.104269
0.103967
0.103537
0.102967
0.103205
0.102767
0.102249
0.101644
0.10231
0.101763
0.101173
0.100535
0.101549
0.100914
0.100265
0.0995982
0.100896
0.10019
0.0994917
0.0987993
0.10033
0.0995662
0.0988267
0.0981119
0.0998326
0.0990222
0.098249
0.0975149
0.0993925
0.0985433
0.097742
0.0969915
0.0989993
0.0981177
0.0972929
0.0965286
0.098645
0.097736
0.0968915
0.0961156
0.0983238
0.0973911
0.0965298
0.0957442
0.098031
0.0970772
0.0962015
0.0954077
0.0977628
0.0967899
0.0959014
0.0951008
0.0975166
0.0965256
0.0956256
0.0948192
0.0972891
0.0962816
0.095371
0.0945592
0.0858577
0.0914819
0.096687
0.0986739
0.0974554
0.0946633
0.0916191
0.0889502
0.0868118
0.0851622
0.0839099
0.082955
0.0822294
0.0816786
0.0812593
0.0809377
0.0806874
0.0804883
0.0803246
0.0801839
0.0800561
0.0799322
0.0798033
0.0796601
0.079492
0.0792861
0.0790265
0.078693
0.0782603
0.0776954
0.0769549
0.0759805
0.0746924
0.0729768
0.0706668
0.0675039
0.0630562
0.0564985
0.0457482
0.0221352
0.111289
0.113491
0.113459
0.110297
0.105393
0.100315
0.0958872
0.0923517
0.0896429
0.0875995
0.0860568
0.0848887
0.0840047
0.0833349
0.0828256
0.0824356
0.0821334
0.0818946
0.0817005
0.0815361
0.0813893
0.0812496
0.0811068
0.0809506
0.0807695
0.0805498
0.0802751
0.079925
0.0794736
0.0788876
0.0781234
0.0771223
0.0758036
0.0740528
0.071701
0.0684862
0.0639706
0.057316
0.0464051
0.0224748
0.132858
0.133421
0.128553
0.120713
0.112483
0.105335
0.0996681
0.0953692
0.0921608
0.0897638
0.0879612
0.0866015
0.0855727
0.0847919
0.0841969
0.0837406
0.083387
0.0831082
0.0828829
0.0826938
0.0825271
0.0823707
0.0822133
0.0820436
0.0818492
0.0816158
0.0813264
0.0809603
0.0804911
0.0798854
0.079099
0.078073
0.076726
0.0749424
0.0725516
0.069289
0.0647114
0.0579709
0.0469239
0.0227458
0.154525
0.149209
0.139524
0.12823
0.117747
0.109211
0.102699
0.0978658
0.0942845
0.0916138
0.0896082
0.0880926
0.0869416
0.0860642
0.0853926
0.0848755
0.0844736
0.0841565
0.0839007
0.0836871
0.0835004
0.0833271
0.0831549
0.0829715
0.0827637
0.0825169
0.0822133
0.0818318
0.0813459
0.0807215
0.0799144
0.0788651
0.0774916
0.0756775
0.0732505
0.0699436
0.0653097
0.0584932
0.047331
0.0229618
0.166715
0.157105
0.144797
0.132028
0.120713
0.111674
0.10483
0.09974
0.0959583
0.0931269
0.0909884
0.0893616
0.0881178
0.087163
0.0864274
0.0858576
0.0854128
0.0850608
0.0847765
0.0845397
0.0843335
0.0841437
0.0839569
0.08376
0.0835392
0.0832792
0.082962
0.0825659
0.082064
0.0814221
0.0805956
0.0795246
0.0781264
0.0762838
0.0738232
0.0704756
0.0657906
0.0589068
0.0476475
0.0231337
0.167535
0.157142
0.144782
0.132383
0.121488
0.112732
0.106026
0.100978
0.0971799
0.0943013
0.0921026
0.0904127
0.0891081
0.0880979
0.0873133
0.0867012
0.0862203
0.085838
0.0855284
0.0852702
0.085046
0.0848405
0.0846397
0.0844299
0.0841966
0.083924
0.0835938
0.0831838
0.0826669
0.0820086
0.0811639
0.0800725
0.0786514
0.0767822
0.0742906
0.0709056
0.0661745
0.0592318
0.0478908
0.0232705
0.161901
0.1524
0.141348
0.130348
0.120614
0.112659
0.106436
0.101654
0.0979841
0.0951554
0.0929626
0.0912553
0.0899221
0.088879
0.0880613
0.0874181
0.0869091
0.0865021
0.0861709
0.0858941
0.0856537
0.0854339
0.0852201
0.0849981
0.084753
0.0844685
0.0841259
0.0837029
0.0831719
0.0824982
0.0816365
0.0805262
0.0790837
0.0771901
0.0746698
0.0712509
0.0664785
0.0594842
0.0480752
0.0233794
0.153646
0.145662
0.136374
0.127094
0.118771
0.111825
0.106256
0.10187
0.0984278
0.0957223
0.0935894
0.0919044
0.0905718
0.0895173
0.0886822
0.0880193
0.0874906
0.0870648
0.0867164
0.0864241
0.0861697
0.0859373
0.0857117
0.0854786
0.0852225
0.0849269
0.0845728
0.0841375
0.0835934
0.0829054
0.0820279
0.0809001
0.0794378
0.0775217
0.0749753
0.0715256
0.0667166
0.0596776
0.0482123
0.0234666
0.144876
0.138471
0.130954
0.123367
0.116445
0.110533
0.105668
0.101736
0.0985774
0.0960435
0.0940102
0.0923791
0.0910717
0.0900249
0.0891869
0.0885153
0.087975
0.0875365
0.0871755
0.086871
0.0866052
0.0863619
0.0861261
0.0858829
0.0856168
0.085311
0.0849463
0.0844997
0.0839433
0.083242
0.08235
0.081206
0.0797257
0.077789
0.075219
0.0717418
0.0669005
0.0598231
0.0483118
0.0235366
0.13666
0.131653
0.125705
0.119619
0.113958
0.109004
0.10482
0.10135
0.0984982
0.0961627
0.0942551
0.0927011
0.0914383
0.0904149
0.0895867
0.0889163
0.088372
0.0879268
0.0875575
0.0872443
0.0869696
0.0867175
0.086473
0.086221
0.085946
0.085631
0.0852565
0.0847995
0.0842319
0.0835184
0.082613
0.0814542
0.0799574
0.0780021
0.075411
0.0719094
0.0670399
0.0599299
0.0483815
0.0235933
0.12945
0.125579
0.120927
0.116093
0.111504
0.107389
0.103825
0.100795
0.0982487
0.0961219
0.0943545
0.0928926
0.0916887
0.090701
0.0898929
0.0892323
0.0886909
0.0882443
0.0878711
0.0875524
0.0872714
0.0870125
0.0867608
0.0865014
0.0862186
0.0858953
0.085512
0.0850455
0.0844677
0.083743
0.0828254
0.0816532
0.0801415
0.0781696
0.0755597
0.0720369
0.067143
0.0600056
0.0484277
0.0236397
0.123351
0.12036
0.116731
0.112901
0.109191
0.105786
0.102763
0.100135
0.0978788
0.0959589
0.0943369
0.0929755
0.0918397
0.0908968
0.090117
0.089473
0.0889404
0.0884972
0.0881239
0.0878028
0.087518
0.0872542
0.0869969
0.0867313
0.0864419
0.0861113
0.0857201
0.0852451
0.0846581
0.0839234
0.0829948
0.0818105
0.0802855
0.0782989
0.0756725
0.0721311
0.0672166
0.0600564
0.0484554
0.0236781
0.118296
0.115964
0.113119
0.110075
0.107069
0.10425
0.101691
0.0994183
0.0974287
0.0957061
0.0942281
0.0929704
0.0919078
0.0910157
0.0902699
0.0896481
0.0891289
0.0886932
0.0883231
0.0880024
0.0877159
0.0874492
0.0871878
0.0869174
0.0866224
0.0862856
0.0858875
0.0854049
0.0848095
0.0840658
0.0831273
0.0819323
0.0803956
0.0783961
0.0757554
0.0721982
0.0672662
0.0600874
0.0484687
0.0237102
0.114148
0.112298
0.110044
0.107605
0.105156
0.102813
0.100644
0.0986799
0.0969299
0.0953904
0.0940506
0.0928955
0.0919081
0.0910699
0.0903622
0.0897664
0.0892644
0.0888394
0.0884754
0.0881575
0.0878714
0.0876033
0.0873394
0.0870653
0.0867657
0.0864236
0.0860195
0.0855303
0.0849276
0.0841758
0.0832287
0.0820242
0.0804773
0.0784666
0.0758137
0.0722431
0.0672966
0.0601026
0.0484707
0.0237374
0.110755
0.109254
0.107438
0.10546
0.103447
0.101489
0.0996442
0.0979449
0.0964066
0.0950338
0.0938231
0.092767
0.0918541
0.0910711
0.0904036
0.0898363
0.0893542
0.0889425
0.0885869
0.0882738
0.0879899
0.0877219
0.0874566
0.08718
0.0868769
0.0865305
0.0861213
0.0856262
0.0850171
0.0842583
0.0833036
0.0820909
0.0805351
0.0785149
0.0758516
0.0722699
0.0673114
0.0601054
0.0484639
0.0237606
0.107978
0.106725
0.105233
0.103605
0.101932
0.100282
0.0987045
0.0972301
0.0958767
0.0946532
0.0935614
0.0925985
0.0917576
0.0910295
0.0904029
0.0898658
0.0894053
0.0890087
0.0886633
0.0883566
0.0880763
0.0878098
0.0875443
0.0872662
0.0869605
0.0866105
0.0861971
0.0856971
0.0850824
0.0843175
0.0833562
0.0821365
0.0805732
0.0785448
0.075873
0.072282
0.0673138
0.0600981
0.0484502
0.0237805
0.105695
0.104619
0.103365
0.102002
0.100592
0.0991891
0.0978312
0.0965464
0.0953531
0.0942619
0.093278
0.0924016
0.091629
0.090954
0.0903682
0.0898616
0.0894238
0.0890436
0.0887097
0.0884107
0.0881352
0.0878713
0.0876066
0.0873278
0.0870204
0.0866677
0.0862508
0.0857466
0.0851272
0.0843571
0.0833902
0.0821645
0.0805948
0.0785597
0.0758807
0.0722822
0.0673062
0.060083
0.0484309
0.0237976
0.10381
0.102858
0.101778
0.100615
0.0994106
0.098204
0.0970261
0.0959005
0.0948447
0.09387
0.0929829
0.0921856
0.0914769
0.0908525
0.0903063
0.0898302
0.0894154
0.0890523
0.0887307
0.0884404
0.0881707
0.0879102
0.0876471
0.0873685
0.0870601
0.0867055
0.0862857
0.0857781
0.0851548
0.0843803
0.0834086
0.0821779
0.0806029
0.0785623
0.0758774
0.0722728
0.0672905
0.0600616
0.0484072
0.023812
0.102244
0.101377
0.100425
0.0994128
0.0983683
0.0973187
0.096288
0.0952958
0.0943577
0.0934846
0.0926837
0.0919583
0.0913085
0.0907317
0.0902234
0.089777
0.0893851
0.0890393
0.0887307
0.0884497
0.0881863
0.08793
0.0876693
0.0873915
0.0870827
0.0867268
0.0863049
0.0857946
0.085168
0.0843899
0.0834142
0.0821794
0.0806
0.0785548
0.0758653
0.0722557
0.0672684
0.060035
0.0483798
0.0238241
0.100933
0.100126
0.0992669
0.098369
0.0974488
0.0965246
0.0956142
0.0947335
0.0938957
0.093111
0.0923863
0.0917255
0.0911297
0.0905972
0.0901246
0.0897068
0.0893373
0.0890088
0.0887132
0.0884419
0.0881855
0.0879339
0.087676
0.0873997
0.0870911
0.0867344
0.086311
0.0857985
0.0851693
0.0843882
0.0834093
0.082171
0.0805881
0.0785392
0.0758459
0.0722323
0.0672411
0.0600043
0.0483492
0.023834
0.0998276
0.0990611
0.0982708
0.0974598
0.0966366
0.0958127
0.0950007
0.0942131
0.0934608
0.0927526
0.092095
0.0914921
0.0909452
0.0904535
0.0900144
0.0896236
0.0892757
0.0889642
0.0886817
0.0884203
0.0881711
0.0879245
0.08767
0.0873955
0.0870876
0.0867306
0.0863062
0.0857921
0.0851608
0.0843773
0.0833958
0.0821547
0.0805689
0.0785171
0.0758207
0.072204
0.0672096
0.0599701
0.048316
0.0238417
0.0988894
0.0981502
0.0974099
0.096665
0.0959178
0.0951744
0.0944432
0.0937333
0.0930536
0.0924115
0.0918129
0.0912614
0.0907587
0.0903044
0.0898964
0.0895311
0.0892037
0.0889086
0.0886389
0.0883873
0.0881456
0.0879043
0.0876534
0.0873812
0.0870744
0.0867176
0.0862925
0.0857772
0.0851443
0.0843589
0.0833754
0.0821321
0.080544
0.0784898
0.0757909
0.0721716
0.0671746
0.059933
0.0482804
0.0238471
0.0980863
0.0973653
0.0966618
0.0959676
0.0952802
0.0946017
0.0939367
0.0932919
0.092674
0.0920891
0.0915421
0.0910363
0.0905733
0.0901529
0.0897735
0.0894319
0.0891241
0.0888446
0.0885874
0.0883455
0.0881112
0.0878754
0.0876284
0.0873586
0.0870532
0.0866969
0.0862717
0.0857556
0.0851215
0.0843347
0.0833494
0.0821044
0.0805144
0.0784583
0.0757574
0.072136
0.0671367
0.0598934
0.0482427
0.0238504
0.0973932
0.0966842
0.096008
0.0953529
0.094713
0.094087
0.0934768
0.0928866
0.0923212
0.0917856
0.0912837
0.0908184
0.090391
0.0900014
0.0896482
0.0893287
0.089039
0.0887744
0.0885292
0.0882968
0.0880698
0.0878396
0.0875965
0.0873295
0.0870258
0.0866702
0.0862451
0.0857286
0.0850937
0.0843057
0.0833192
0.0820728
0.0804813
0.0784237
0.075721
0.0720977
0.0670965
0.0598518
0.048203
0.0238516
0.0967901
0.0960891
0.0954332
0.0948087
0.0942067
0.0936235
0.0930587
0.0925144
0.091994
0.091501
0.0910386
0.090609
0.0902134
0.0898517
0.0895224
0.0892232
0.0889506
0.0887
0.0884662
0.088243
0.0880231
0.0877984
0.0875594
0.0872952
0.0869933
0.0866389
0.0862141
0.0856975
0.085062
0.0842732
0.0832857
0.0820382
0.0804455
0.0783865
0.0756824
0.0720574
0.0670544
0.0598082
0.0481617
0.0238505
0.0962609
0.0955651
0.0949249
0.0943245
0.0937532
0.0932052
0.0926783
0.0921729
0.0916909
0.0912348
0.0908069
0.090409
0.0900418
0.0897051
0.0893976
0.0891171
0.0888602
0.0886228
0.0883999
0.0881854
0.0879725
0.0877532
0.0875182
0.087257
0.0869571
0.0866039
0.0861797
0.0856631
0.0850274
0.084238
0.0832498
0.0820013
0.0804076
0.0783475
0.075642
0.0720154
0.0670107
0.0597632
0.0481187
0.0238473
0.0957927
0.0951006
0.0944725
0.0938915
0.0933453
0.0928265
0.0923315
0.0918592
0.0914102
0.0909861
0.0905885
0.0902186
0.0898767
0.0895626
0.089275
0.0890116
0.0887693
0.0885442
0.0883314
0.0881253
0.0879191
0.0877051
0.0874742
0.087216
0.0869182
0.0865663
0.0861428
0.0856265
0.0849907
0.084201
0.0832121
0.0819629
0.0803683
0.0783071
0.0756003
0.0719722
0.0669657
0.0597168
0.0480744
0.023842
0.0953751
0.0946858
0.0940675
0.0935023
0.092977
0.0924828
0.0920147
0.0915707
0.0911503
0.0907541
0.0903831
0.0900379
0.0897187
0.089425
0.0891553
0.0889076
0.0886788
0.0884651
0.0882619
0.0880637
0.0878639
0.087655
0.0874281
0.0871729
0.0868773
0.0865268
0.0861043
0.0855884
0.0849526
0.0841627
0.0831734
0.0819235
0.0803281
0.0782659
0.0755578
0.0719281
0.0669197
0.0596693
0.0480288
0.0238345
0.095
0.0943129
0.0937027
0.0931508
0.092643
0.0921696
0.0917246
0.091305
0.0909094
0.0905376
0.0901901
0.0898669
0.089568
0.0892925
0.0890392
0.0888058
0.0885894
0.0883864
0.0881922
0.0880014
0.0878078
0.0876038
0.0873808
0.0871286
0.0868352
0.0864862
0.0860647
0.0855494
0.0849138
0.0841237
0.0831341
0.0818837
0.0802875
0.0782242
0.0755147
0.0718833
0.066873
0.0596209
0.0479821
0.0238249
0.0946605
0.0939755
0.0933723
0.0928317
0.0923388
0.0918833
0.0914583
0.0910598
0.0906858
0.0903356
0.0900088
0.0897052
0.0894244
0.0891655
0.088927
0.0887067
0.0885018
0.0883086
0.0881228
0.0879391
0.0877513
0.0875521
0.0873329
0.0870837
0.0867925
0.0864451
0.0860246
0.08551
0.0848746
0.0840846
0.0830946
0.0818437
0.0802467
0.0781823
0.0754715
0.0718382
0.0668258
0.0595718
0.0479345
0.0238133
0.0943514
0.0936683
0.0930712
0.0925404
0.0920606
0.0916206
0.091213
0.090833
0.0904781
0.0901469
0.0898385
0.0895525
0.089288
0.0890441
0.0888191
0.0886108
0.0884164
0.0882324
0.0880545
0.0878774
0.0876952
0.0875006
0.087285
0.0870387
0.0867497
0.086404
0.0859846
0.0854707
0.0848357
0.0840456
0.0830555
0.081804
0.0802062
0.0781406
0.0754282
0.071793
0.0667782
0.0595221
0.0478861
0.0237999
0.0940681
0.093387
0.0927954
0.0922733
0.0918049
0.0913786
0.0909863
0.0906228
0.0902848
0.0899704
0.0896785
0.0894082
0.0891585
0.0889282
0.0887155
0.0885182
0.0883336
0.0881581
0.0879875
0.0878167
0.0876398
0.0874495
0.0872376
0.0869941
0.0867073
0.0863633
0.0859451
0.0854319
0.0847973
0.0840073
0.0830169
0.0817649
0.0801662
0.0780994
0.0753853
0.0717478
0.0667305
0.0594721
0.0478371
0.0237845
0.0938069
0.0931279
0.0925414
0.0920272
0.091569
0.0911549
0.0907762
0.0904273
0.0901044
0.0898052
0.0895281
0.089272
0.0890357
0.0888177
0.0886163
0.0884292
0.0882536
0.088086
0.0879223
0.0877574
0.0875855
0.0873994
0.0871909
0.0869502
0.0866656
0.0863233
0.0859063
0.0853939
0.0847598
0.0839699
0.0829793
0.0817267
0.080127
0.0780588
0.0753428
0.071703
0.0666829
0.0594219
0.0477876
0.0237674
)
;

boundaryField
{
    leftWall
    {
        type            kqRWallFunction;
        value           nonuniform 0();
    }
    rightWall
    {
        type            kqRWallFunction;
        value           nonuniform List<scalar> 
43
(
0.00963338
0.0106603
0.0132913
0.0155103
0.017249
0.0186074
0.0196742
0.0205159
0.0211823
0.021711
0.0221352
0.0224748
0.0227458
0.0229618
0.0231337
0.0232705
0.0233794
0.0234666
0.0235366
0.0235933
0.0236397
0.0236781
0.0237102
0.0237374
0.0237606
0.0237805
0.0237976
0.023812
0.0238241
0.023834
0.0238417
0.0238471
0.0238504
0.0238516
0.0238505
0.0238473
0.023842
0.0238345
0.0238249
0.0238133
0.0237999
0.0237845
0.0237674
)
;
    }
    lowerWall
    {
        type            kqRWallFunction;
        value           nonuniform List<scalar> 
66
(
0.0359596
0.0290939
0.0290939
0.0470618
0.0582148
0.0657393
0.0686388
0.0675869
0.0640967
0.0605269
0.0577055
0.0591722
0.058795
0.0410513
0.0506671
0.0618666
0.011921
0.0108582
0.0129817
0.0150275
0.0168427
0.0187575
0.0201158
0.0210799
0.0295608
0.052083
0.011921
0.0166284
0.0169615
0.0177379
0.0193992
0.0204782
0.0211011
0.0214112
0.0215132
0.02148
0.0213614
0.0211901
0.0209988
0.0208559
0.0207247
0.0205941
0.020465
0.0203388
0.020216
0.0200966
0.0199801
0.0198663
0.0197545
0.0196441
0.0195334
0.0194202
0.0193007
0.0191694
0.0190183
0.0188363
0.0186081
0.0183124
0.0179204
0.0173934
0.0170304
0.0167458
0.0168154
0.0167209
0.0159986
0.00963338
)
;
    }
    atmosphere
    {
        type            inletOutlet;
        inletValue      nonuniform 0();
        value           nonuniform 0();
    }
    defaultFaces
    {
        type            empty;
    }
    procBoundary1to0
    {
        type            processor;
        value           nonuniform List<scalar> 
44
(
0.0380486
0.0684994
0.102554
0.153224
0.189789
0.191517
0.178532
0.164487
0.156232
0.156949
0.16376
0.167855
0.164144
0.155172
0.144926
0.135687
0.128221
0.122538
0.118355
0.115301
0.117546
0.117546
0.114657
0.112342
0.110457
0.108904
0.10761
0.106522
0.105599
0.104809
0.104127
0.103532
0.103008
0.102543
0.102126
0.10175
0.101408
0.101097
0.100813
0.100554
0.100319
0.100107
0.0999162
0.0997402
)
;
    }
    procBoundary1to3
    {
        type            processor;
        value           nonuniform List<scalar> 
45
(
0.0982376
0.0970746
0.0960525
0.0951336
0.0943182
0.0935653
0.0928881
0.0923064
0.0917993
0.0913505
0.0909473
0.0905809
0.0902451
0.0899358
0.0896502
0.0893866
0.0891434
0.0889192
0.0887125
0.0885215
0.0883437
0.0881765
0.0880163
0.0878591
0.0876998
0.0875326
0.0873506
0.0871454
0.0869074
0.086625
0.0862843
0.0858686
0.0853571
0.0847234
0.0839337
0.0829428
0.0816896
0.0800889
0.0780191
0.075301
0.0716586
0.0666354
0.0593714
0.0477373
0.0237478
)
;
    }
}


// ************************************************************************* //
