/*--------------------------------*- C++ -*----------------------------------*\
| =========                 |                                                 |
| \\      /  F ield         | OpenFOAM: The Open Source CFD Toolbox           |
|  \\    /   O peration     | Version:  5.0                                   |
|   \\  /    A nd           | Web:      www.OpenFOAM.org                      |
|    \\/     M anipulation  |                                                 |
\*---------------------------------------------------------------------------*/
FoamFile
{
    version     2.0;
    format      ascii;
    class       volScalarField;
    location    "0.15";
    object      p_rgh;
}
// * * * * * * * * * * * * * * * * * * * * * * * * * * * * * * * * * * * * * //

dimensions      [1 -1 -2 0 0 0 0];

internalField   nonuniform List<scalar> 
1915
(
35.3926
33.7394
25.8489
29.6163
13.9136
21.1319
5.68552
9.78316
2.88259
4.25277
2.32886
2.73527
2.15559
2.41427
2.08911
2.15769
1.99738
1.78952
1.84816
1.34402
0.597636
0.604042
0.611773
0.619418
0.625754
0.62968
0.631162
0.630655
0.62867
0.625616
0.621818
0.617526
0.612935
0.608149
0.603223
0.598242
0.593287
0.588404
0.583625
0.578982
0.574499
0.570197
0.566095
0.562211
0.558561
0.555166
0.552045
0.549221
0.546715
0.544544
0.542727
0.54128
0.540211
0.539306
0.53904
0.539187
0.5394
0.540069
0.540949
0.54219
0.594862
0.600981
0.6074
0.614573
0.620854
0.625145
0.627294
0.627586
0.62639
0.624051
0.620862
0.617064
0.612837
0.608334
0.603656
0.598887
0.594096
0.589338
0.584658
0.580091
0.57567
0.571418
0.567356
0.563503
0.559878
0.556502
0.553397
0.550586
0.54809
0.54593
0.544121
0.542681
0.541624
0.540994
0.540605
0.540521
0.540814
0.541067
0.541545
0.542445
0.59046
0.597739
0.604098
0.611163
0.617366
0.621846
0.624444
0.625318
0.624733
0.622966
0.620278
0.616897
0.61301
0.608767
0.604288
0.59967
0.594992
0.590317
0.585697
0.581175
0.576786
0.572557
0.568511
0.564667
0.561047
0.557673
0.554567
0.551753
0.549252
0.547081
0.545255
0.543785
0.542676
0.541918
0.54139
0.541232
0.541219
0.541343
0.541744
0.54276
0.584555
0.592592
0.600484
0.608742
0.615511
0.620305
0.623187
0.624367
0.624102
0.622647
0.620243
0.617101
0.613405
0.60931
0.604944
0.600409
0.595789
0.591153
0.586557
0.582046
0.57766
0.573427
0.569372
0.565518
0.561884
0.558494
0.555371
0.552536
0.550011
0.54781
0.545945
0.544423
0.543241
0.542379
0.541783
0.541472
0.541347
0.541422
0.541901
0.543113
0.575505
0.584812
0.59624
0.606995
0.615002
0.620329
0.623427
0.624701
0.6245
0.623111
0.620773
0.61769
0.614041
0.609977
0.605629
0.601101
0.596479
0.591832
0.587219
0.582685
0.578272
0.57401
0.569926
0.566042
0.562378
0.558958
0.555804
0.552937
0.550374
0.548131
0.546216
0.544633
0.543379
0.542435
0.541773
0.541377
0.541212
0.541322
0.541969
0.543377
0.564705
0.574561
0.591722
0.606113
0.615844
0.621827
0.625044
0.626208
0.625839
0.624293
0.621826
0.618641
0.614905
0.610768
0.606352
0.601763
0.597084
0.592382
0.587714
0.583127
0.578661
0.57435
0.57022
0.566292
0.562587
0.559127
0.555932
0.553023
0.550416
0.548123
0.546155
0.544512
0.543193
0.542184
0.541468
0.541032
0.54087
0.541061
0.541893
0.543476
0.547746
0.561506
0.587515
0.606731
0.618425
0.624989
0.628107
0.628896
0.628099
0.626165
0.623375
0.619928
0.615981
0.611668
0.607106
0.602393
0.597606
0.592808
0.588051
0.583383
0.578843
0.574465
0.570275
0.566292
0.562536
0.559028
0.555786
0.552829
0.550172
0.547829
0.545807
0.544109
0.542734
0.541676
0.540924
0.540477
0.540348
0.540639
0.54164
0.543361
0.528807
0.549766
0.585547
0.609833
0.623241
0.63006
0.632725
0.632798
0.631276
0.628707
0.625393
0.621525
0.61724
0.612654
0.607871
0.602974
0.598032
0.593099
0.588223
0.583449
0.578817
0.574358
0.570095
0.566049
0.562235
0.558672
0.555377
0.55237
0.549663
0.54727
0.545197
0.54345
0.54203
0.540936
0.540166
0.539728
0.539649
0.540045
0.541189
0.543007
0.5135
0.54431
0.587437
0.615811
0.630486
0.637144
0.63893
0.637902
0.635335
0.631874
0.627835
0.62339
0.618647
0.613697
0.608621
0.603485
0.598343
0.59324
0.588218
0.583319
0.578579
0.574027
0.569684
0.565566
0.561688
0.558066
0.554718
0.551658
0.548902
0.54646
0.544342
0.542553
0.541098
0.539981
0.539208
0.538793
0.538772
0.539267
0.540525
0.542402
0.47266
0.534545
0.590164
0.624004
0.640083
0.646181
0.646635
0.644114
0.640185
0.635585
0.630633
0.625465
0.620153
0.614756
0.609323
0.603898
0.598517
0.593214
0.588024
0.582983
0.578123
0.57347
0.56904
0.564846
0.5609
0.557218
0.553814
0.550703
0.547899
0.545414
0.543256
0.541433
0.539953
0.538824
0.538057
0.537673
0.537712
0.538296
0.539638
0.541547
1.61561
0.822333
1.4318
0.898221
1.37525
1.12847
1.35001
1.21299
1.31334
1.2075
1.27244
1.18842
1.23222
1.16684
1.19156
1.13948
1.15025
1.10794
1.10879
1.0741
1.03857
1.00199
0.964617
0.926531
0.887929
0.849023
0.809993
0.770982
0.732125
0.693544
0.655336
0.617599
0.580454
0.544028
0.508433
0.473754
0.440056
0.407388
0.375783
0.34527
0.315893
0.287731
0.26094
-1.1264
-0.45024
-0.234649
0.164765
-0.343061
-0.376657
-0.150788
0.177106
0.385241
0.118785
0.202544
0.371166
0.798647
0.557918
0.527517
0.576632
0.975875
0.805369
0.739423
0.728869
1.04877
0.929365
0.860199
0.825348
1.07427
0.987199
0.923688
0.880502
1.07269
1.00676
0.951541
0.90785
1.05664
1.00485
0.957714
0.916836
1.03317
0.991078
0.950745
0.913691
1.00523
0.970294
0.935551
0.902421
0.974393
0.944957
0.914963
0.885585
0.941492
0.916576
0.890707
0.864834
0.907165
0.886109
0.86389
0.841267
0.871868
0.854197
0.83525
0.815645
0.835935
0.821289
0.805315
0.78852
0.799623
0.787725
0.774478
0.760308
0.763129
0.753763
0.743045
0.731336
0.726618
0.719609
0.711255
0.701864
0.690236
0.685436
0.679302
0.6721
0.654111
0.651391
0.647352
0.642218
0.618356
0.617606
0.615545
0.612362
0.58309
0.584204
0.584007
0.582661
0.548434
0.5513
0.552851
0.553228
0.514496
0.518997
0.522178
0.524163
0.481364
0.48738
0.492074
0.495554
0.4491
0.456516
0.462609
0.467473
0.41775
0.426456
0.43384
0.439984
0.387354
0.397244
0.405816
0.41314
0.357947
0.368924
0.378588
0.386997
0.329575
0.341546
0.352208
0.361609
0.302312
0.315182
0.326746
0.337042
0.276298
0.289949
0.302298
0.313374
0.388956
0.519206
0.595861
0.636014
0.652597
0.657218
0.655728
0.651302
0.645713
0.639751
0.633714
0.627692
0.621712
0.61579
0.609941
0.604182
0.598527
0.592998
0.587622
0.582426
0.577438
0.572676
0.568154
0.56388
0.559865
0.55612
0.552662
0.549502
0.546654
0.544129
0.541937
0.540088
0.538591
0.537458
0.536705
0.536356
0.536453
0.537112
0.538516
0.540432
0.412759
0.547916
0.620573
0.65592
0.668764
0.670177
0.665949
0.659216
0.651718
0.644218
0.636959
0.629978
0.623249
0.616739
0.610426
0.604294
0.598337
0.592563
0.586986
0.581626
0.576503
0.571629
0.56701
0.562654
0.558568
0.554764
0.551252
0.548047
0.545159
0.5426
0.54038
0.538511
0.537004
0.535874
0.53514
0.534827
0.534977
0.535699
0.537142
0.53905
0.520626
0.611859
0.660121
0.6821
0.687603
0.684303
0.676705
0.667399
0.657861
0.648732
0.640182
0.632184
0.624658
0.617523
0.610713
0.604184
0.597908
0.591876
0.586092
0.580565
0.575305
0.570316
0.565601
0.561164
0.557009
0.553147
0.549587
0.546341
0.543419
0.540832
0.53859
0.536707
0.535197
0.534075
0.533363
0.533085
0.533281
0.534051
0.535518
0.537406
0.638701
0.681534
0.703179
0.710075
0.707055
0.69847
0.687275
0.67534
0.663764
0.653016
0.643177
0.634159
0.625827
0.618052
0.610734
0.603799
0.597197
0.590906
0.584914
0.579221
0.573824
0.568723
0.563914
0.559399
0.55518
0.551265
0.547663
0.544382
0.541432
0.538822
0.536566
0.534676
0.533167
0.532058
0.531368
0.531122
0.531358
0.532165
0.533641
0.535501
0.735554
0.741954
0.742093
0.73597
0.725082
0.711504
0.696907
0.682502
0.66903
0.656776
0.645729
0.635742
0.626632
0.618236
0.610419
0.603083
0.596163
0.589618
0.583426
0.577571
0.572044
0.566835
0.561938
0.557351
0.553075
0.549114
0.545476
0.542167
0.539195
0.536571
0.534307
0.532415
0.530912
0.529817
0.529151
0.528935
0.529202
0.530036
0.531511
0.533337
0.803999
0.78799
0.773213
0.757334
0.740156
0.722386
0.704896
0.688386
0.673292
0.659738
0.647629
0.636772
0.626953
0.617979
0.609694
0.601982
0.594761
0.587978
0.581597
0.575593
0.569945
0.564638
0.559662
0.555011
0.550686
0.546688
0.543022
0.539693
0.536708
0.534076
0.531809
0.529921
0.528429
0.527351
0.526707
0.526518
0.526811
0.527662
0.529128
0.530916
0.846771
0.819027
0.795233
0.772869
0.751216
0.730376
0.710719
0.69261
0.67626
0.661671
0.648694
0.637107
0.626676
0.617194
0.608492
0.60044
0.592949
0.585952
0.579403
0.573265
0.56751
0.562117
0.557073
0.552371
0.548007
0.543983
0.540298
0.536958
0.533968
0.531335
0.529071
0.527192
0.525714
0.524654
0.524033
0.523867
0.524181
0.525041
0.526492
0.528241
0.869921
0.836929
0.808414
0.782328
0.757952
0.735178
0.714123
0.694951
0.677735
0.662405
0.648779
0.636625
0.625703
0.615801
0.606747
0.598409
0.590687
0.583509
0.576816
0.570565
0.564721
0.559259
0.554163
0.549422
0.545033
0.540993
0.537301
0.533959
0.530971
0.528344
0.526091
0.524225
0.522764
0.521725
0.521125
0.520979
0.521309
0.522173
0.523603
0.525312
0.87892
0.844457
0.814043
0.786254
0.760557
0.736814
0.715045
0.69531
0.677608
0.66183
0.647783
0.635234
0.623953
0.613732
0.604406
0.595842
0.58794
0.580619
0.573814
0.567476
0.561565
0.556052
0.55092
0.546158
0.541758
0.537715
0.534026
0.530692
0.527715
0.525103
0.522866
0.521019
0.519578
0.51856
0.517981
0.517853
0.518194
0.519057
0.520464
0.522132
0.877774
0.843968
0.813455
0.785365
0.759393
0.735451
0.713541
0.693684
0.675841
0.65989
0.64564
0.632871
0.621366
0.610936
0.601424
0.592705
0.584677
0.577257
0.570377
0.56398
0.558026
0.552486
0.547338
0.542571
0.538176
0.534144
0.530471
0.527155
0.524199
0.521608
0.519394
0.51757
0.516153
0.515158
0.514599
0.514487
0.514836
0.515694
0.517074
0.518701
0.869331
0.837312
0.807808
0.780363
0.754872
0.731325
0.709741
0.690132
0.672449
0.656571
0.64232
0.629495
0.617903
0.607375
0.597768
0.588968
0.580874
0.573404
0.566486
0.560064
0.554096
0.548551
0.54341
0.538658
0.534283
0.530277
0.526632
0.523346
0.52042
0.517859
0.515673
0.513878
0.512487
0.511516
0.510977
0.51088
0.511233
0.512083
0.513435
0.51502
0.855596
0.825922
0.79808
0.771897
0.74742
0.724709
0.703815
0.684756
0.667487
0.651895
0.637822
0.625094
0.613544
0.603027
0.593419
0.584613
0.576515
0.569044
0.56213
0.555717
0.549764
0.544242
0.53913
0.534413
0.530077
0.526111
0.522508
0.519263
0.516376
0.513852
0.511703
0.50994
0.50858
0.507635
0.507116
0.50703
0.507387
0.508226
0.509548
0.511092
0.837967
0.810888
0.785074
0.760543
0.737441
0.715887
0.695958
0.677686
0.661034
0.645905
0.632166
0.619672
0.608286
0.597886
0.588366
0.579629
0.571589
0.564167
0.557299
0.550931
0.545026
0.539554
0.534495
0.529833
0.525554
0.521645
0.518096
0.514903
0.512066
0.509588
0.507481
0.505757
0.504429
0.503512
0.503013
0.50294
0.503297
0.504123
0.505414
0.506916
0.817436
0.793031
0.769439
0.746794
0.725305
0.70513
0.686367
0.669059
0.653183
0.638662
0.62539
0.613253
0.602142
0.591957
0.582609
0.574013
0.56609
0.558769
0.55199
0.545704
0.539877
0.534484
0.529503
0.524918
0.520713
0.516876
0.513396
0.510267
0.507489
0.505066
0.503007
0.501326
0.500036
0.499148
0.49867
0.498607
0.498964
0.499775
0.501034
0.502495
0.794723
0.772984
0.7517
0.731071
0.711343
0.692692
0.675233
0.659017
0.644037
0.63024
0.617547
0.605874
0.595137
0.585257
0.576159
0.567771
0.560022
0.55285
0.546201
0.540034
0.534319
0.529031
0.524153
0.519666
0.515555
0.511806
0.508408
0.505354
0.502645
0.500284
0.498282
0.496649
0.495399
0.494542
0.494086
0.494034
0.494389
0.495184
0.496409
0.497829
0.770365
0.751239
0.732283
0.713731
0.695842
0.678803
0.662734
0.647697
0.633703
0.620721
0.608701
0.597583
0.587306
0.57781
0.569033
0.560913
0.553391
0.546414
0.539936
0.533925
0.528352
0.523199
0.518447
0.51408
0.51008
0.506434
0.503132
0.500165
0.497535
0.495245
0.493305
0.491726
0.490519
0.489696
0.489263
0.489221
0.489573
0.49035
0.491542
0.492921
0.74478
0.728188
0.711537
0.695073
0.679054
0.663665
0.649034
0.635233
0.622289
0.610194
0.598922
0.588436
0.578693
0.569648
0.561252
0.553455
0.546209
0.53947
0.533203
0.527381
0.521983
0.516991
0.512389
0.508161
0.504291
0.500764
0.497569
0.494701
0.492159
0.489948
0.488077
0.486556
0.485397
0.48461
0.4842
0.484168
0.484518
0.485277
0.486434
0.487771
0.7183
0.704148
0.68975
0.675349
0.66119
0.64746
0.634286
0.621753
0.609904
0.59875
0.588287
0.578494
0.569345
0.560808
0.552845
0.545418
0.538491
0.53203
0.52601
0.520411
0.515217
0.510413
0.505984
0.501915
0.498191
0.494797
0.491723
0.488965
0.486521
0.484396
0.4826
0.481142
0.480034
0.479285
0.478899
0.478879
0.479225
0.479965
0.481087
0.482382
0.691189
0.679376
0.667157
0.654766
0.642436
0.630347
0.618631
0.607381
0.596656
0.586483
0.576873
0.567821
0.559313
0.551329
0.543843
0.536827
0.530258
0.524112
0.518373
0.513028
0.508065
0.503473
0.499238
0.495347
0.491785
0.488539
0.485598
0.482959
0.480622
0.478591
0.476876
0.475486
0.474432
0.473723
0.473363
0.473354
0.473697
0.474418
0.475504
0.476756
0.663663
0.654079
0.643953
0.633505
0.622953
0.612474
0.602202
0.592238
0.582651
0.573484
0.564757
0.55648
0.548649
0.541253
0.534279
0.52771
0.521532
0.515734
0.510307
0.505244
0.500538
0.496181
0.492161
0.488465
0.48508
0.481994
0.479199
0.476689
0.474467
0.472537
0.470908
0.46959
0.468593
0.467926
0.467594
0.467596
0.467936
0.468638
0.469688
0.470896
0.635897
0.62843
0.620302
0.611719
0.602887
0.593976
0.585124
0.576437
0.567992
0.559841
0.552017
0.544536
0.537405
0.530624
0.52419
0.518096
0.51234
0.506919
0.501832
0.497077
0.492652
0.48855
0.484762
0.481277
0.478084
0.475171
0.47253
0.47016
0.46806
0.466237
0.464699
0.463457
0.462521
0.461898
0.461594
0.46161
0.461947
0.462629
0.463643
0.464806
0.608039
0.602576
0.596348
0.589547
0.58237
0.57498
0.567515
0.560085
0.552773
0.545639
0.538722
0.532049
0.525634
0.519487
0.513614
0.508021
0.502711
0.497692
0.492969
0.488545
0.48442
0.480592
0.477054
0.473795
0.470805
0.468076
0.465601
0.463377
0.461407
0.459697
0.458255
0.457093
0.45622
0.455643
0.455369
0.455398
0.455733
0.456395
0.457372
0.45849
0.580219
0.576646
0.572218
0.567116
0.561524
0.5556
0.549482
0.543281
0.537083
0.530955
0.524942
0.519079
0.513388
0.507887
0.502593
0.497518
0.492677
0.488081
0.483742
0.479668
0.475863
0.472324
0.469049
0.466028
0.463254
0.460719
0.458417
0.456348
0.454514
0.452922
0.451581
0.450502
0.449694
0.449166
0.448923
0.448966
0.449298
0.44994
0.45088
0.451952
0.552551
0.550757
0.548029
0.544539
0.540459
0.535942
0.531123
0.526113
0.521003
0.515861
0.510742
0.505684
0.500719
0.495873
0.491169
0.486628
0.48227
0.478115
0.474178
0.47047
0.466998
0.463763
0.460763
0.457992
0.455443
0.45311
0.45099
0.449081
0.447389
0.44592
0.444683
0.443689
0.442949
0.442471
0.442261
0.442319
0.442649
0.443271
0.444172
0.445199
0.525136
0.525011
0.523884
0.521917
0.519273
0.516099
0.512525
0.508663
0.504606
0.500426
0.496183
0.491922
0.48768
0.483491
0.479384
0.475388
0.471527
0.467825
0.464302
0.460973
0.457846
0.454926
0.452212
0.449699
0.447384
0.445261
0.443328
0.441586
0.44004
0.438697
0.437567
0.436662
0.435992
0.435566
0.435389
0.435463
0.435791
0.436393
0.437255
0.438234
0.498064
0.499498
0.499873
0.49934
0.498053
0.496152
0.493765
0.491004
0.487962
0.484715
0.481328
0.47785
0.474325
0.470792
0.467285
0.463839
0.460482
0.457242
0.454143
0.451202
0.44843
0.445833
0.443412
0.441166
0.43909
0.437183
0.435442
0.433872
0.432475
0.431262
0.430243
0.429428
0.42883
0.428456
0.428313
0.428404
0.428731
0.429312
0.430135
0.431067
0.471411
0.474298
0.476074
0.476885
0.476874
0.476176
0.474916
0.473204
0.471136
0.468791
0.466236
0.463525
0.460707
0.457825
0.454917
0.452021
0.449172
0.4464
0.44373
0.441182
0.438771
0.436503
0.434382
0.432407
0.430576
0.428889
0.427346
0.425949
0.424706
0.423625
0.422717
0.421995
0.42147
0.42115
0.421043
0.42115
0.421475
0.422036
0.42282
0.423702
0.445243
0.449478
0.452558
0.454622
0.455806
0.456238
0.456043
0.455329
0.454193
0.452717
0.450968
0.449006
0.446881
0.444639
0.442325
0.439977
0.437634
0.43533
0.433091
0.43094
0.428893
0.426958
0.42514
0.42344
0.421858
0.420394
0.41905
0.41783
0.416742
0.415795
0.415001
0.414372
0.41392
0.413656
0.413584
0.413709
0.414032
0.414572
0.415316
0.41615
0.419619
0.4251
0.429387
0.432615
0.434912
0.436404
0.437212
0.437444
0.437197
0.436553
0.435584
0.434348
0.432898
0.431285
0.429553
0.427746
0.425905
0.424065
0.422256
0.420502
0.418819
0.417218
0.415705
0.414281
0.41295
0.411711
0.410568
0.409526
0.408594
0.407782
0.407102
0.406568
0.406192
0.405982
0.405947
0.406088
0.40641
0.406929
0.407633
0.408417
0.394597
0.401223
0.406623
0.410927
0.414256
0.416737
0.418485
0.419611
0.42021
0.420363
0.420142
0.419607
0.418813
0.41781
0.416647
0.415369
0.41402
0.412638
0.411254
0.409893
0.408572
0.407305
0.406096
0.40495
0.403869
0.402855
0.401914
0.401051
0.400275
0.399598
0.399034
0.398594
0.398293
0.398139
0.398139
0.398298
0.398618
0.399115
0.399778
0.400513
0.370234
0.377908
0.384328
0.389619
0.393902
0.397299
0.399928
0.401895
0.403294
0.404207
0.404702
0.40484
0.404675
0.404261
0.403648
0.402885
0.402015
0.40108
0.400113
0.399139
0.398177
0.39724
0.396334
0.395463
0.394632
0.393843
0.393102
0.392417
0.391797
0.391256
0.390806
0.390461
0.390234
0.390135
0.390172
0.390347
0.390665
0.39114
0.391762
0.392447
0.346593
0.355215
0.36256
0.368753
0.373911
0.378155
0.381601
0.384355
0.386509
0.388141
0.389317
0.390095
0.390532
0.390682
0.390598
0.39033
0.389925
0.389425
0.388863
0.388268
0.387658
0.387045
0.386437
0.385838
0.385253
0.384687
0.384145
0.383636
0.383171
0.382764
0.382428
0.382178
0.382025
0.381982
0.382054
0.382246
0.382561
0.383014
0.383595
0.384229
0.323735
0.333195
0.341368
0.348377
0.354336
0.35936
0.363563
0.367049
0.369908
0.372215
0.374032
0.375417
0.376425
0.377113
0.377534
0.377742
0.377784
0.377705
0.377537
0.377309
0.377039
0.37674
0.37642
0.376085
0.37574
0.375391
0.375044
0.37471
0.3744
0.374127
0.373906
0.37375
0.373673
0.373685
0.373794
0.374003
0.374317
0.374746
0.375286
0.375869
)
;

boundaryField
{
    leftWall
    {
        type            fixedFluxPressure;
        gradient        nonuniform 0();
        value           nonuniform 0();
    }
    rightWall
    {
        type            fixedFluxPressure;
        gradient        uniform 0;
        value           nonuniform List<scalar> 
43
(
0.54219
0.542445
0.54276
0.543113
0.543377
0.543476
0.543361
0.543007
0.542402
0.541547
0.540432
0.53905
0.537406
0.535501
0.533337
0.530916
0.528241
0.525312
0.522132
0.518701
0.51502
0.511092
0.506916
0.502495
0.497829
0.492921
0.487771
0.482382
0.476756
0.470896
0.464806
0.45849
0.451952
0.445199
0.438234
0.431067
0.423702
0.41615
0.408417
0.400513
0.392447
0.384229
0.375869
)
;
    }
    lowerWall
    {
        type            fixedFluxPressure;
        gradient        uniform 0;
        value           nonuniform List<scalar> 
66
(
35.3926
33.7394
33.7394
29.6163
21.1319
9.78316
4.25277
2.73527
2.41427
2.15769
1.78952
1.34402
-1.1264
-0.45024
-0.234649
0.164765
0.597636
0.594862
0.59046
0.584555
0.575505
0.564705
0.547746
0.528807
0.5135
0.47266
0.597636
0.604042
0.611773
0.619418
0.625754
0.62968
0.631162
0.630655
0.62867
0.625616
0.621818
0.617526
0.612935
0.608149
0.603223
0.598242
0.593287
0.588404
0.583625
0.578982
0.574499
0.570197
0.566095
0.562211
0.558561
0.555166
0.552045
0.549221
0.546715
0.544544
0.542727
0.54128
0.540211
0.539306
0.53904
0.539187
0.5394
0.540069
0.540949
0.54219
)
;
    }
    atmosphere
    {
        type            totalPressure;
        rho             rho;
        psi             none;
        gamma           1;
        p0              nonuniform 0();
        value           nonuniform 0();
    }
    defaultFaces
    {
        type            empty;
    }
    procBoundary1to0
    {
        type            processor;
        value           nonuniform List<scalar> 
44
(
52.1678
16.5099
7.17198
3.97872
2.92985
2.55861
2.3278
2.16822
2.0201
1.87301
1.72202
1.59375
1.51377
1.45566
1.39655
1.33782
1.28337
1.23245
1.18374
1.1366
1.06743
1.06743
1.02584
0.984468
0.943126
0.901543
0.859864
0.81824
0.776807
0.735674
0.694927
0.654663
0.614986
0.576001
0.537819
0.500556
0.464313
0.429159
0.395138
0.362285
0.330644
0.300266
0.27123
0.243685
)
;
    }
    procBoundary1to3
    {
        type            processor;
        value           nonuniform List<scalar> 
45
(
0.235714
0.251703
0.265982
0.278965
0.290679
0.301719
0.311897
0.320793
0.328529
0.335213
0.340955
0.345863
0.350031
0.353543
0.356472
0.358883
0.360835
0.362384
0.363586
0.364495
0.365161
0.365634
0.365957
0.366165
0.366286
0.36634
0.366341
0.366297
0.366215
0.366101
0.365962
0.365806
0.365644
0.365486
0.365347
0.365241
0.365182
0.365182
0.365252
0.365399
0.365627
0.36594
0.366348
0.366848
0.367382
)
;
    }
}


// ************************************************************************* //
