/*--------------------------------*- C++ -*----------------------------------*\
| =========                 |                                                 |
| \\      /  F ield         | OpenFOAM: The Open Source CFD Toolbox           |
|  \\    /   O peration     | Version:  5.0                                   |
|   \\  /    A nd           | Web:      www.OpenFOAM.org                      |
|    \\/     M anipulation  |                                                 |
\*---------------------------------------------------------------------------*/
FoamFile
{
    version     2.0;
    format      ascii;
    class       surfaceScalarField;
    location    "0.15";
    object      phi;
}
// * * * * * * * * * * * * * * * * * * * * * * * * * * * * * * * * * * * * * //

dimensions      [0 3 -1 0 0 0 0];

internalField   nonuniform List<scalar> 
3731
(
6.45072e-05
1.74368e-05
6.45072e-05
5.74382e-05
3.84333e-05
0.000121945
4.60137e-05
5.90419e-05
0.000167959
2.96269e-05
7.85815e-05
0.000197586
1.44125e-05
9.92804e-05
0.000211998
6.35323e-06
0.000118003
0.000218352
-2.69634e-06
0.000133454
0.000215655
-6.38771e-06
0.000142786
0.000209268
-3.07927e-06
0.000146003
0.000206188
4.25023e-06
0.000145852
0.000210439
-6.66856e-07
6.66856e-07
1.84873e-07
-8.51763e-07
2.09039e-06
-1.9055e-06
4.48254e-06
-2.39215e-06
6.85923e-06
-2.3767e-06
8.97345e-06
-2.11421e-06
1.07329e-05
-1.75945e-06
1.2121e-05
-1.38811e-06
1.31583e-05
-1.03728e-06
1.38832e-05
-7.24938e-07
1.434e-05
-4.56718e-07
1.45693e-05
-2.29309e-07
1.46058e-05
-3.65823e-08
1.44844e-05
1.21469e-07
1.42507e-05
2.3363e-07
1.39353e-05
3.15427e-07
1.35579e-05
3.77372e-07
1.3132e-05
4.25915e-07
1.2667e-05
4.6498e-07
1.21698e-05
4.97222e-07
1.16454e-05
5.24324e-07
1.10982e-05
5.47296e-07
1.05313e-05
5.66809e-07
9.9479e-06
5.83464e-07
9.34998e-06
5.97926e-07
8.73902e-06
6.10963e-07
8.11562e-06
6.234e-07
7.47955e-06
6.36072e-07
6.82977e-06
6.49778e-07
6.16453e-06
6.65231e-07
5.48156e-06
6.82954e-07
4.77848e-06
7.03074e-07
4.05373e-06
7.24748e-07
3.30562e-06
7.48102e-07
2.53751e-06
7.68106e-07
1.76581e-06
7.71703e-07
1.03131e-06
7.34493e-07
4.11693e-07
6.19619e-07
2.76647e-08
3.84024e-07
2.76604e-08
9.71173e-08
5.69767e-07
1.30753e-06
-2.06221e-06
3.20845e-06
-3.80643e-06
5.36478e-06
-4.54847e-06
7.47172e-06
-4.48366e-06
9.34055e-06
-3.98303e-06
1.08882e-05
-3.30711e-06
1.21007e-05
-2.60054e-06
1.29997e-05
-1.93638e-06
1.36222e-05
-1.34735e-06
1.40089e-05
-8.43435e-07
1.42015e-05
-4.21988e-07
1.42402e-05
-7.52844e-08
1.41578e-05
2.03935e-07
1.39687e-05
4.22713e-07
1.36921e-05
5.91977e-07
1.33461e-05
7.2337e-07
1.29455e-05
8.26498e-07
1.25018e-05
9.08634e-07
1.20239e-05
9.75154e-07
1.15184e-05
1.02986e-06
1.09903e-05
1.07537e-06
1.04436e-05
1.11354e-06
9.88112e-06
1.14593e-06
9.30504e-06
1.17401e-06
8.71675e-06
1.19926e-06
8.11695e-06
1.2232e-06
7.50568e-06
1.24733e-06
6.88239e-06
1.27305e-06
6.24604e-06
1.30157e-06
5.59525e-06
1.33373e-06
4.92863e-06
1.36968e-06
4.24495e-06
1.40841e-06
3.54513e-06
1.44792e-06
2.83487e-06
1.47836e-06
2.12409e-06
1.48248e-06
1.4314e-06
1.42719e-06
7.94331e-07
1.25668e-06
2.79316e-07
8.99032e-07
3.06972e-07
4.26832e-07
1.42951e-07
1.83511e-06
-3.4705e-06
3.79219e-06
-5.76352e-06
5.90636e-06
-6.66263e-06
7.88789e-06
-6.4652e-06
9.5824e-06
-5.67754e-06
1.09435e-05
-4.66822e-06
1.19822e-05
-3.63925e-06
1.27332e-05
-2.68734e-06
1.32374e-05
-1.85153e-06
1.35348e-05
-1.14087e-06
1.36624e-05
-5.49608e-07
1.36529e-05
-6.58372e-08
1.35327e-05
3.24157e-07
1.33213e-05
6.34135e-07
1.30353e-05
8.77924e-07
1.26895e-05
1.06913e-06
1.22964e-05
1.21964e-06
1.18659e-05
1.33909e-06
1.14061e-05
1.43498e-06
1.09231e-05
1.51288e-06
1.04216e-05
1.57689e-06
9.90504e-06
1.63009e-06
9.376e-06
1.67499e-06
8.83618e-06
1.71383e-06
8.2867e-06
1.74874e-06
7.72812e-06
1.78178e-06
7.16051e-06
1.81493e-06
6.58359e-06
1.84996e-06
5.99679e-06
1.88836e-06
5.39949e-06
1.93103e-06
4.79126e-06
1.97791e-06
4.17235e-06
2.02732e-06
3.54533e-06
2.07494e-06
2.91392e-06
2.10979e-06
2.28499e-06
2.11141e-06
1.66591e-06
2.04627e-06
1.06511e-06
1.85748e-06
4.94323e-07
1.46981e-06
8.01289e-07
2.48069e-07
-1.05115e-07
1.78572e-06
-5.00815e-06
4.03252e-06
-8.01034e-06
6.32528e-06
-8.95539e-06
8.31341e-06
-8.45334e-06
9.90008e-06
-7.26422e-06
1.11033e-05
-5.87144e-06
1.19768e-05
-4.51275e-06
1.25778e-05
-3.28831e-06
1.29565e-05
-2.23025e-06
1.31548e-05
-1.33919e-06
1.32072e-05
-6.02046e-07
1.3142e-05
-6.59301e-10
1.29818e-05
4.84321e-07
1.27446e-05
8.71338e-07
1.2445e-05
1.17758e-06
1.20952e-05
1.41892e-06
1.17056e-05
1.60918e-06
1.12848e-05
1.75986e-06
1.08397e-05
1.8801e-06
1.03756e-05
1.97694e-06
9.89675e-06
2.05577e-06
9.40611e-06
2.12073e-06
8.90589e-06
2.17521e-06
8.39756e-06
2.22216e-06
7.88204e-06
2.26425e-06
7.35982e-06
2.304e-06
6.83103e-06
2.34371e-06
6.29554e-06
2.38544e-06
5.75309e-06
2.43081e-06
5.20341e-06
2.4807e-06
4.6465e-06
2.53482e-06
4.08292e-06
2.5909e-06
3.51443e-06
2.64345e-06
2.94315e-06
2.68107e-06
2.37111e-06
2.68345e-06
1.79877e-06
2.61862e-06
1.22004e-06
2.43619e-06
6.19703e-07
2.07014e-06
1.42099e-06
-3.46266e-07
2.41143e-07
1.43432e-06
-6.78872e-06
4.1918e-06
-1.07678e-05
6.79858e-06
-1.15622e-05
8.85295e-06
-1.05077e-05
1.03506e-05
-8.7619e-06
1.13974e-05
-6.91823e-06
1.21005e-05
-5.21582e-06
1.25437e-05
-3.73154e-06
1.27883e-05
-2.47483e-06
1.28786e-05
-1.42945e-06
1.28473e-05
-5.70798e-07
1.27194e-05
1.27252e-07
1.2514e-05
6.89659e-07
1.22464e-05
1.139e-06
1.19285e-05
1.49547e-06
1.15704e-05
1.77701e-06
1.11804e-05
1.99911e-06
1.07656e-05
2.17467e-06
1.03316e-05
2.31411e-06
9.88289e-06
2.42564e-06
9.42298e-06
2.51568e-06
8.95442e-06
2.58929e-06
8.47905e-06
2.65058e-06
7.9981e-06
2.7031e-06
7.51234e-06
2.75001e-06
7.02217e-06
2.79416e-06
6.52772e-06
2.83816e-06
6.02893e-06
2.88424e-06
5.5256e-06
2.93413e-06
5.01756e-06
2.98875e-06
4.50471e-06
3.04767e-06
3.98723e-06
3.10839e-06
3.46557e-06
3.16512e-06
2.93981e-06
3.20684e-06
2.4084e-06
3.21487e-06
1.86627e-06
3.16074e-06
1.30009e-06
3.00236e-06
6.84686e-07
2.68553e-06
2.10566e-06
-1.06967e-06
1.31079e-06
1.24183e-06
-9.10019e-06
4.64654e-06
-1.41726e-05
7.56249e-06
-1.44781e-05
9.63128e-06
-1.25765e-05
1.09912e-05
-1.01219e-05
1.18473e-05
-7.77431e-06
1.23576e-05
-5.72608e-06
1.26281e-05
-4.00211e-06
1.27278e-05
-2.57451e-06
1.27015e-05
-1.40316e-06
1.25795e-05
-4.4876e-07
1.23829e-05
3.23813e-07
1.21274e-05
9.45159e-07
1.18248e-05
1.44156e-06
1.14845e-05
1.83576e-06
1.11141e-05
2.14739e-06
1.072e-05
2.39319e-06
1.03076e-05
2.58711e-06
9.88121e-06
2.74049e-06
9.44443e-06
2.86242e-06
9.00001e-06
2.9601e-06
8.55001e-06
3.03928e-06
8.09589e-06
3.1047e-06
7.63861e-06
3.16038e-06
7.17876e-06
3.20985e-06
6.71663e-06
3.25628e-06
6.25227e-06
3.30251e-06
5.78557e-06
3.35094e-06
5.31625e-06
3.40345e-06
4.84398e-06
3.46103e-06
4.36833e-06
3.52334e-06
3.88877e-06
3.58797e-06
3.40445e-06
3.64945e-06
2.9135e-06
3.6978e-06
2.41166e-06
3.7167e-06
1.89034e-06
3.68206e-06
1.3328e-06
3.55988e-06
7.11455e-07
3.30686e-06
2.81711e-06
-1.2018e-06
2.51258e-06
2.00133e-06
-1.23033e-05
5.9228e-06
-1.8094e-05
8.89215e-06
-1.74474e-05
1.07743e-05
-1.44587e-05
1.18735e-05
-1.1221e-05
1.24696e-05
-8.37042e-06
1.27488e-05
-6.00534e-06
1.28253e-05
-4.07858e-06
1.27673e-05
-2.51654e-06
1.26161e-05
-1.25196e-06
1.23972e-05
-2.29868e-07
1.21272e-05
5.93835e-07
1.18174e-05
1.25491e-06
1.14763e-05
1.78274e-06
1.111e-05
2.20198e-06
1.07239e-05
2.53346e-06
1.03224e-05
2.79475e-06
9.90903e-06
3.00043e-06
9.48706e-06
3.16246e-06
9.059e-06
3.29047e-06
8.62686e-06
3.39222e-06
8.19216e-06
3.47398e-06
7.75593e-06
3.54093e-06
7.31885e-06
3.59745e-06
6.8813e-06
3.6474e-06
6.4434e-06
3.69418e-06
6.00505e-06
3.74085e-06
5.56599e-06
3.79001e-06
5.12576e-06
3.84369e-06
4.68373e-06
3.90308e-06
4.23899e-06
3.96808e-06
3.79028e-06
4.0367e-06
3.33555e-06
4.10419e-06
2.87135e-06
4.162e-06
2.39153e-06
4.19652e-06
1.88552e-06
4.18807e-06
1.3356e-06
4.10979e-06
7.15312e-07
3.92714e-06
3.53242e-06
6.53237e-07
1.85933e-06
4.81543e-06
-1.64655e-05
8.5707e-06
-2.18493e-05
1.10017e-05
-1.98784e-05
1.23574e-05
-1.58144e-05
1.30196e-05
-1.18832e-05
1.32656e-05
-8.61642e-06
1.32674e-05
-6.00708e-06
1.31254e-05
-3.93657e-06
1.28966e-05
-2.28775e-06
1.26129e-05
-9.68269e-07
1.22922e-05
9.07554e-08
1.19451e-05
9.40929e-07
1.15781e-05
1.62195e-06
1.11955e-05
2.16535e-06
1.08005e-05
2.59689e-06
1.0396e-05
2.93801e-06
9.98412e-06
3.2066e-06
9.56705e-06
3.41749e-06
9.14662e-06
3.58287e-06
8.72439e-06
3.71269e-06
8.3016e-06
3.815e-06
7.87918e-06
3.8964e-06
7.45775e-06
3.96236e-06
7.03764e-06
4.01754e-06
6.619e-06
4.06604e-06
6.20172e-06
4.11147e-06
5.78551e-06
4.15706e-06
5.36988e-06
4.20563e-06
4.95413e-06
4.25945e-06
4.53725e-06
4.31997e-06
4.11785e-06
4.38749e-06
3.69392e-06
4.46063e-06
3.26249e-06
4.53563e-06
2.81891e-06
4.60559e-06
2.35584e-06
4.65958e-06
1.8619e-06
4.682e-06
1.31981e-06
4.65187e-06
7.05907e-07
4.54103e-06
4.23832e-06
5.70263e-06
-3.84331e-06
1.00616e-05
-2.08244e-05
1.25963e-05
-2.43839e-05
1.38395e-05
-2.11217e-05
1.43408e-05
-1.63157e-05
1.44015e-05
-1.19439e-05
1.42131e-05
-8.4281e-06
1.38945e-05
-5.68841e-06
1.35124e-05
-3.55452e-06
1.3102e-05
-1.87733e-06
1.26802e-05
-5.46501e-07
1.22547e-05
5.16289e-07
1.18283e-05
1.36727e-06
1.14021e-05
2.04814e-06
1.09762e-05
2.59123e-06
1.05507e-05
3.02247e-06
1.01255e-05
3.36317e-06
9.70106e-06
3.63101e-06
9.27788e-06
3.84065e-06
8.85652e-06
4.00422e-06
8.43757e-06
4.13164e-06
8.02149e-06
4.23108e-06
7.60861e-06
4.30927e-06
7.19912e-06
4.37184e-06
6.79301e-06
4.42365e-06
6.39012e-06
4.46893e-06
5.9901e-06
4.51148e-06
5.59242e-06
4.55473e-06
5.19635e-06
4.60171e-06
4.80086e-06
4.65494e-06
4.40458e-06
4.71626e-06
4.00563e-06
4.78645e-06
3.60141e-06
4.86486e-06
3.18818e-06
4.94887e-06
2.76052e-06
5.03324e-06
2.3105e-06
5.1096e-06
1.82666e-06
5.16583e-06
1.29299e-06
5.18554e-06
6.89177e-07
5.14484e-06
4.9275e-06
1.15312e-05
-1.53745e-05
1.60547e-05
-2.53479e-05
1.71176e-05
-2.54468e-05
1.70442e-05
-2.10483e-05
1.6569e-05
-1.58405e-05
1.59391e-05
-1.13139e-05
1.52643e-05
-7.75332e-06
1.45983e-05
-5.02246e-06
1.39636e-05
-2.91982e-06
1.33663e-05
-1.27994e-06
1.28044e-05
1.53447e-08
1.22733e-05
1.04743e-06
1.17673e-05
1.87322e-06
1.12814e-05
2.53398e-06
1.08115e-05
3.0612e-06
1.03541e-05
3.47986e-06
9.90686e-06
3.81038e-06
9.46819e-06
4.06967e-06
9.037e-06
4.27183e-06
8.61266e-06
4.42855e-06
8.19477e-06
4.54952e-06
7.78307e-06
4.64277e-06
7.37731e-06
4.71503e-06
6.97719e-06
4.77195e-06
6.58236e-06
4.81848e-06
6.19234e-06
4.85895e-06
5.80651e-06
4.89731e-06
5.42408e-06
4.93716e-06
5.04403e-06
4.98176e-06
4.66504e-06
5.03394e-06
4.28536e-06
5.09594e-06
3.90269e-06
5.16912e-06
3.51394e-06
5.25362e-06
3.11485e-06
5.34796e-06
2.69954e-06
5.44854e-06
2.2599e-06
5.54923e-06
1.7849e-06
5.64082e-06
1.26018e-06
5.71026e-06
6.68774e-07
5.73624e-06
5.59628e-06
2.41387e-05
0.00013691
0.000182476
5.21011e-05
4.42285e-05
0.000120744
0.000150136
7.65683e-05
5.24135e-05
0.000104737
0.000119841
8.2709e-05
5.42057e-05
9.09205e-05
9.62533e-05
7.77934e-05
5.29655e-05
7.97428e-05
7.98957e-05
6.9323e-05
5.01557e-05
7.10753e-05
6.8912e-05
6.11395e-05
4.66427e-05
6.44949e-05
6.1446e-05
5.41087e-05
4.29877e-05
5.95368e-05
5.62683e-05
4.81653e-05
3.94705e-05
5.58178e-05
5.26152e-05
4.31237e-05
3.62184e-05
4.99994e-05
3.88342e-05
4.80975e-05
3.51712e-05
4.66886e-05
3.2033e-05
4.56218e-05
2.93186e-05
4.47957e-05
2.69466e-05
4.41373e-05
2.48451e-05
4.35958e-05
2.29538e-05
4.31355e-05
2.12233e-05
4.27305e-05
1.96132e-05
4.23616e-05
1.80911e-05
4.20142e-05
1.66307e-05
4.16767e-05
1.52117e-05
4.13394e-05
1.38178e-05
4.09938e-05
1.24371e-05
4.06326e-05
1.10604e-05
4.02491e-05
9.68134e-06
3.9837e-05
8.29586e-06
3.93904e-05
6.90169e-06
3.89037e-05
5.49827e-06
3.83718e-05
4.08641e-06
3.77899e-05
2.66818e-06
3.71539e-05
1.24677e-06
3.646e-05
-1.73441e-07
-1.58716e-06
-1.63989e-05
6.85e-05
-2.86626e-05
1.22637e-05
-1.6241e-05
-1.24215e-05
-2.03635e-05
4.12247e-06
5.64864e-05
8.85818e-05
3.79468e-05
3.08033e-05
3.00516e-05
-4.52636e-06
-2.19395e-05
3.16277e-05
8.83456e-05
8.29451e-05
7.8461e-05
4.06879e-05
6.60041e-05
7.93056e-06
-1.05745e-05
5.46391e-05
8.83863e-05
7.23522e-05
8.55398e-05
4.35345e-05
7.53749e-05
1.80954e-05
1.53756e-06
6.32628e-05
7.86599e-05
6.30152e-05
7.87849e-05
4.34096e-05
7.22278e-05
2.46525e-05
1.09308e-05
6.28346e-05
6.81413e-05
5.60134e-05
6.92088e-05
4.23421e-05
6.53051e-05
2.85562e-05
1.75605e-05
5.86755e-05
5.91032e-05
5.10189e-05
6.03052e-05
4.11401e-05
5.79873e-05
3.08741e-05
2.21501e-05
5.33976e-05
5.16743e-05
4.751e-05
5.27196e-05
4.00949e-05
5.13066e-05
3.22871e-05
2.53352e-05
4.81216e-05
4.55874e-05
4.50462e-05
4.64097e-05
3.92726e-05
4.5519e-05
3.31778e-05
2.75643e-05
4.32899e-05
4.05781e-05
4.33023e-05
4.12002e-05
3.86505e-05
4.06207e-05
3.37573e-05
2.91411e-05
3.90439e-05
3.64293e-05
4.20441e-05
3.68961e-05
3.81838e-05
3.65101e-05
3.41432e-05
3.02681e-05
3.53831e-05
3.29564e-05
4.11207e-05
3.33141e-05
3.78261e-05
3.30563e-05
3.4401e-05
3.10805e-05
3.22439e-05
3.00157e-05
4.04236e-05
3.02994e-05
3.75424e-05
3.01307e-05
3.45696e-05
3.16692e-05
2.95421e-05
2.74895e-05
3.98808e-05
2.77243e-05
3.73076e-05
2.76203e-05
3.46736e-05
3.2096e-05
2.71934e-05
2.52828e-05
3.94431e-05
2.54864e-05
3.7104e-05
2.5431e-05
3.47289e-05
3.24038e-05
2.51233e-05
2.33201e-05
3.90767e-05
2.35046e-05
3.69195e-05
2.34873e-05
3.47463e-05
3.2622e-05
2.3269e-05
2.15416e-05
3.87584e-05
2.17159e-05
3.67452e-05
2.17293e-05
3.47329e-05
3.27711e-05
2.15802e-05
1.99005e-05
3.84711e-05
2.00709e-05
3.65747e-05
2.01108e-05
3.4693e-05
3.28652e-05
2.00167e-05
1.83597e-05
3.82025e-05
1.85317e-05
3.64028e-05
1.85954e-05
3.46294e-05
3.29136e-05
1.8547e-05
1.68906e-05
3.79427e-05
1.70686e-05
3.62247e-05
1.71552e-05
3.45428e-05
3.29223e-05
1.71465e-05
1.54707e-05
3.76836e-05
1.56592e-05
3.60363e-05
1.57688e-05
3.44331e-05
3.28949e-05
1.57962e-05
1.40831e-05
3.74184e-05
1.4286e-05
3.58334e-05
1.44199e-05
3.42992e-05
3.28333e-05
1.44816e-05
1.27147e-05
3.71408e-05
1.29362e-05
3.56119e-05
1.3096e-05
3.41394e-05
3.27378e-05
1.31915e-05
1.1356e-05
3.68452e-05
1.16001e-05
3.53677e-05
1.17882e-05
3.39514e-05
3.2608e-05
1.1918e-05
1.00003e-05
3.65262e-05
1.0271e-05
3.5097e-05
1.04898e-05
3.37325e-05
3.24428e-05
1.0655e-05
8.64312e-06
3.6179e-05
8.94441e-06
3.47957e-05
9.19673e-06
3.34802e-05
3.22406e-05
9.39888e-06
7.28203e-06
3.57987e-05
7.61766e-06
3.44601e-05
7.90629e-06
3.31916e-05
3.19998e-05
8.14716e-06
5.91612e-06
3.53808e-05
6.28972e-06
3.40865e-05
6.61742e-06
3.28639e-05
3.17183e-05
6.89888e-06
4.54592e-06
3.49213e-05
4.96089e-06
3.36715e-05
5.33026e-06
3.24945e-05
3.13944e-05
5.65417e-06
3.17315e-06
3.44163e-05
3.63257e-06
3.32121e-05
4.04602e-06
3.20811e-05
3.10263e-05
4.41409e-06
1.80058e-06
3.38626e-05
2.3072e-06
3.27055e-05
2.76682e-06
3.16215e-05
3.06126e-05
3.18055e-06
4.3202e-07
3.32571e-05
9.88115e-07
3.21494e-05
1.49565e-06
3.11139e-05
3.0152e-05
1.95623e-06
-9.27849e-07
-3.20544e-07
2.36161e-07
7.44406e-07
1.77944e-05
-2.90465e-05
2.19517e-05
-2.95052e-05
2.19866e-05
-2.54817e-05
2.06975e-05
-1.97592e-05
1.92153e-05
-1.43583e-05
1.78501e-05
-9.94863e-06
1.66544e-05
-6.55765e-06
1.56173e-05
-3.98535e-06
1.47131e-05
-2.01566e-06
1.39159e-05
-4.82731e-07
1.32032e-05
7.28035e-07
1.25567e-05
1.69398e-06
1.19617e-05
2.46816e-06
1.1407e-05
3.08872e-06
1.08837e-05
3.58449e-06
1.03852e-05
3.97834e-06
9.9066e-06
4.28897e-06
9.4443e-06
4.53196e-06
8.99573e-06
4.7204e-06
8.55904e-06
4.86523e-06
8.13291e-06
4.97565e-06
7.71631e-06
5.05937e-06
7.30839e-06
5.12294e-06
6.90841e-06
5.17193e-06
6.51561e-06
5.21128e-06
6.12917e-06
5.24538e-06
5.74818e-06
5.2783e-06
5.37155e-06
5.31379e-06
4.99796e-06
5.35536e-06
4.62573e-06
5.40617e-06
4.25277e-06
5.4689e-06
3.87637e-06
5.54551e-06
3.49299e-06
5.63699e-06
3.09797e-06
5.74298e-06
2.68511e-06
5.86139e-06
2.24627e-06
5.98806e-06
1.77097e-06
6.11612e-06
1.24629e-06
6.23494e-06
6.58133e-07
6.32441e-06
6.25443e-06
3.18601e-05
-2.92789e-05
2.99567e-05
-2.76018e-05
2.70729e-05
-2.25978e-05
2.41792e-05
-1.68655e-05
2.16631e-05
-1.18421e-05
1.95913e-05
-7.87687e-06
1.79038e-05
-4.8701e-06
1.65177e-05
-2.59931e-06
1.53606e-05
-8.58594e-07
1.43762e-05
5.01668e-07
1.35225e-05
1.58177e-06
1.27684e-05
2.44811e-06
1.20907e-05
3.14582e-06
1.14722e-05
3.70722e-06
1.08998e-05
4.15685e-06
1.03639e-05
4.51431e-06
9.85697e-06
4.79584e-06
9.37378e-06
5.01515e-06
8.91026e-06
5.1839e-06
8.46346e-06
5.31203e-06
8.03112e-06
5.40798e-06
7.61149e-06
5.47899e-06
7.20317e-06
5.53126e-06
6.80492e-06
5.57019e-06
6.41558e-06
5.60061e-06
6.03402e-06
5.62694e-06
5.659e-06
5.65332e-06
5.28913e-06
5.68365e-06
4.92279e-06
5.7217e-06
4.55802e-06
5.77094e-06
4.19239e-06
5.83452e-06
3.82288e-06
5.91502e-06
3.44565e-06
6.01422e-06
3.0558e-06
6.13282e-06
2.64708e-06
6.27011e-06
2.2116e-06
6.42354e-06
1.73967e-06
6.58805e-06
1.22003e-06
6.75459e-06
6.41192e-07
6.90326e-06
6.89563e-06
4.49663e-05
-1.9606e-05
3.74453e-05
-2.00809e-05
3.16642e-05
-1.68167e-05
2.72361e-05
-1.24375e-05
2.38148e-05
-8.4208e-06
2.11502e-05
-5.2122e-06
1.90494e-05
-2.76931e-06
1.73645e-05
-9.1445e-07
1.59859e-05
5.20011e-07
1.48341e-05
1.65347e-06
1.38521e-05
2.56383e-06
1.29985e-05
3.30162e-06
1.22434e-05
3.90092e-06
1.15644e-05
4.38622e-06
1.09449e-05
4.77639e-06
1.03723e-05
5.08687e-06
9.8374e-06
5.33079e-06
9.33302e-06
5.51953e-06
8.8539e-06
5.66301e-06
8.39603e-06
5.76989e-06
7.95633e-06
5.84768e-06
7.53237e-06
5.90295e-06
7.12218e-06
5.94144e-06
6.72407e-06
5.9683e-06
6.3365e-06
5.98818e-06
5.95798e-06
6.00546e-06
5.58697e-06
6.02432e-06
5.2218e-06
6.04882e-06
4.86055e-06
6.08294e-06
4.50098e-06
6.1305e-06
4.14041e-06
6.19509e-06
3.77555e-06
6.27987e-06
3.40236e-06
6.3874e-06
3.01584e-06
6.51934e-06
2.60982e-06
6.67613e-06
2.17681e-06
6.85655e-06
1.708e-06
7.05687e-06
1.19364e-06
7.26895e-06
6.24483e-07
7.47243e-06
7.52012e-06
5.13713e-05
-7.71445e-06
4.19366e-05
-1.06462e-05
3.47946e-05
-9.67467e-06
2.94755e-05
-7.11836e-06
2.54743e-05
-4.41953e-06
2.24096e-05
-2.14758e-06
2.00154e-05
-3.75084e-07
1.81066e-05
9.94349e-07
1.65533e-05
2.07328e-06
1.52639e-05
2.94293e-06
1.41727e-05
3.65501e-06
1.32324e-05
4.24197e-06
1.2408e-05
4.72525e-06
1.16739e-05
5.12037e-06
1.10105e-05
5.43971e-06
1.04034e-05
5.69396e-06
9.84151e-06
5.89272e-06
9.31633e-06
6.0447e-06
8.82151e-06
6.15783e-06
8.3521e-06
6.23929e-06
7.90429e-06
6.29549e-06
7.47503e-06
6.33221e-06
7.06183e-06
6.35464e-06
6.66256e-06
6.36756e-06
6.27532e-06
6.37542e-06
5.89829e-06
6.38249e-06
5.52962e-06
6.39298e-06
5.16737e-06
6.41107e-06
4.80937e-06
6.44094e-06
4.45311e-06
6.48675e-06
4.0957e-06
6.55249e-06
3.73367e-06
6.6419e-06
3.36286e-06
6.75821e-06
2.97827e-06
6.90393e-06
2.5739e-06
7.08049e-06
2.14275e-06
7.28771e-06
1.67687e-06
7.52276e-06
1.16791e-06
7.77793e-06
6.08441e-07
8.03192e-06
8.12857e-06
5.23884e-05
2.73172e-06
4.34085e-05
-1.6663e-06
3.6245e-05
-2.51114e-06
3.07444e-05
-1.61779e-06
2.65462e-05
-2.21254e-07
2.33037e-05
1.09491e-06
2.07526e-05
2.17598e-06
1.87061e-05
3.04087e-06
1.70338e-05
3.74557e-06
1.5643e-05
4.33368e-06
1.44667e-05
4.83132e-06
1.34555e-05
5.25319e-06
1.25727e-05
5.60809e-06
1.17906e-05
5.90246e-06
1.10883e-05
6.14201e-06
1.04498e-05
6.33247e-06
9.86278e-06
6.4797e-06
9.3179e-06
6.58958e-06
8.80783e-06
6.6679e-06
8.32689e-06
6.72022e-06
7.87063e-06
6.75175e-06
7.43546e-06
6.76737e-06
7.01843e-06
6.77167e-06
6.61701e-06
6.76897e-06
6.22896e-06
6.76347e-06
5.85214e-06
6.75931e-06
5.48444e-06
6.76068e-06
5.12364e-06
6.77186e-06
4.76735e-06
6.79723e-06
4.41286e-06
6.84123e-06
4.05709e-06
6.90825e-06
3.69646e-06
7.00253e-06
3.32674e-06
7.12792e-06
2.94302e-06
7.28765e-06
2.53957e-06
7.48395e-06
2.10986e-06
7.71742e-06
1.6468e-06
7.98584e-06
1.14325e-06
8.2815e-06
5.93289e-07
8.58189e-06
8.72186e-06
5.04397e-05
1.09675e-05
4.27813e-05
5.99217e-06
3.63134e-05
3.9567e-06
3.11282e-05
3.5674e-06
2.70472e-05
3.8598e-06
2.38231e-05
4.31902e-06
2.12417e-05
4.7574e-06
1.91418e-05
5.14073e-06
1.74074e-05
5.47996e-06
1.59541e-05
5.78704e-06
1.47191e-05
6.06633e-06
1.36552e-05
6.31707e-06
1.27264e-05
6.53686e-06
1.19051e-05
6.72379e-06
1.11698e-05
6.87729e-06
1.0504e-05
6.9983e-06
9.89467e-06
7.08898e-06
9.33183e-06
7.15241e-06
8.80754e-06
7.19219e-06
8.31556e-06
7.21219e-06
7.85093e-06
7.21638e-06
7.40961e-06
7.20869e-06
6.98825e-06
7.19302e-06
6.584e-06
7.17322e-06
6.19428e-06
7.15318e-06
5.81669e-06
7.13689e-06
5.44886e-06
7.1285e-06
5.08835e-06
7.13236e-06
4.73256e-06
7.15301e-06
4.37862e-06
7.19516e-06
4.02331e-06
7.26355e-06
3.66298e-06
7.36286e-06
3.29342e-06
7.49748e-06
2.90984e-06
7.67123e-06
2.50681e-06
7.88699e-06
2.07831e-06
8.14592e-06
1.61803e-06
8.44613e-06
1.11986e-06
8.77968e-06
5.79105e-07
9.12267e-06
9.30097e-06
4.71696e-05
1.71955e-05
4.09708e-05
1.2191e-05
3.54521e-05
9.47535e-06
3.0832e-05
8.18752e-06
2.70641e-05
7.62768e-06
2.40008e-05
7.38234e-06
2.14903e-05
7.2679e-06
1.94093e-05
7.22174e-06
1.76645e-05
7.22476e-06
1.61855e-05
7.26605e-06
1.49182e-05
7.3336e-06
1.38206e-05
7.41473e-06
1.28594e-05
7.49804e-06
1.20085e-05
7.57468e-06
1.12472e-05
7.63863e-06
1.05589e-05
7.68653e-06
9.93077e-06
7.71714e-06
9.35233e-06
7.73085e-06
8.81537e-06
7.72914e-06
8.31329e-06
7.71426e-06
7.84076e-06
7.6889e-06
7.39341e-06
7.65604e-06
6.96758e-06
7.61884e-06
6.56011e-06
7.58068e-06
6.16818e-06
7.54511e-06
5.78912e-06
7.51594e-06
5.42036e-06
7.49725e-06
5.05927e-06
7.49345e-06
4.70307e-06
7.5092e-06
4.34877e-06
7.54945e-06
3.99306e-06
7.61926e-06
3.63225e-06
7.72367e-06
3.26221e-06
7.86752e-06
2.87831e-06
8.05514e-06
2.47543e-06
8.28988e-06
2.04807e-06
8.5733e-06
1.59058e-06
8.90363e-06
1.09777e-06
9.27251e-06
5.65877e-07
9.65457e-06
9.86685e-06
4.3485e-05
2.18321e-05
3.86039e-05
1.70721e-05
3.40498e-05
1.40295e-05
3.00756e-05
1.21617e-05
2.67143e-05
1.0989e-05
2.38955e-05
1.02012e-05
2.15246e-05
9.63873e-06
1.95169e-05
9.22949e-06
1.78039e-05
8.93776e-06
1.63316e-05
8.7384e-06
1.50565e-05
8.6087e-06
1.39434e-05
8.52785e-06
1.29634e-05
8.47799e-06
1.20931e-05
8.44502e-06
1.13131e-05
8.41857e-06
1.0608e-05
8.39168e-06
9.96495e-06
8.36017e-06
9.37378e-06
8.32201e-06
8.82617e-06
8.27675e-06
8.31536e-06
8.22508e-06
7.8358e-06
8.16846e-06
7.3829e-06
8.10893e-06
6.95277e-06
8.04897e-06
6.54202e-06
7.99143e-06
6.1476e-06
7.93953e-06
5.76668e-06
7.89686e-06
5.39648e-06
7.86744e-06
5.03422e-06
7.8557e-06
4.677e-06
7.86642e-06
4.32172e-06
7.90473e-06
3.96503e-06
7.97594e-06
3.60327e-06
8.08543e-06
3.23238e-06
8.23842e-06
2.84793e-06
8.4396e-06
2.44513e-06
8.6927e-06
2.01893e-06
8.99951e-06
1.56434e-06
9.35823e-06
1.07688e-06
9.75998e-06
5.53537e-07
1.01779e-05
1.04204e-05
3.9857e-05
2.52649e-05
3.60694e-05
2.08597e-05
3.2384e-05
1.77149e-05
2.90394e-05
1.55063e-05
2.61074e-05
1.3921e-05
2.35702e-05
1.27385e-05
2.13784e-05
1.18305e-05
1.94804e-05
1.11275e-05
1.78308e-05
1.05874e-05
1.63913e-05
1.01779e-05
1.51295e-05
9.87051e-06
1.40176e-05
9.63973e-06
1.30319e-05
9.46371e-06
1.21521e-05
9.32477e-06
1.13613e-05
9.20942e-06
1.0645e-05
9.10792e-06
9.99152e-06
9.01368e-06
9.3909e-06
8.92262e-06
8.83506e-06
8.83259e-06
8.31726e-06
8.74288e-06
7.83189e-06
8.65382e-06
7.37425e-06
8.56657e-06
6.9403e-06
8.48293e-06
6.52649e-06
8.40524e-06
6.12962e-06
8.33639e-06
5.74671e-06
8.27977e-06
5.37483e-06
8.23931e-06
5.0111e-06
8.21943e-06
4.65251e-06
8.225e-06
4.29592e-06
8.26131e-06
3.93796e-06
8.3339e-06
3.575e-06
8.44839e-06
3.20313e-06
8.6103e-06
2.81812e-06
8.82462e-06
2.41549e-06
9.09534e-06
1.99065e-06
9.42437e-06
1.53912e-06
9.80977e-06
1.05704e-06
1.02421e-05
5.41979e-07
1.0693e-05
1.09624e-05
3.65024e-05
2.78064e-05
3.35829e-05
2.37792e-05
3.06318e-05
2.06661e-05
2.78528e-05
1.82853e-05
2.53311e-05
1.64426e-05
2.3081e-05
1.49886e-05
2.10854e-05
1.38261e-05
1.93184e-05
1.28945e-05
1.77537e-05
1.21521e-05
1.63669e-05
1.15647e-05
1.51357e-05
1.11018e-05
1.40395e-05
1.07359e-05
1.30599e-05
1.04433e-05
1.21802e-05
1.02044e-05
1.1386e-05
1.00036e-05
1.06646e-05
9.8293e-06
1.00053e-05
9.67303e-06
9.39881e-06
9.52909e-06
8.83747e-06
9.39393e-06
8.31475e-06
9.26561e-06
7.82511e-06
9.14346e-06
7.36383e-06
9.02785e-06
6.92683e-06
8.91993e-06
6.51047e-06
8.82159e-06
6.11146e-06
8.7354e-06
5.72669e-06
8.66453e-06
5.35317e-06
8.61282e-06
4.98791e-06
8.58467e-06
4.62788e-06
8.58503e-06
4.26989e-06
8.6193e-06
3.9106e-06
8.69318e-06
3.54647e-06
8.81253e-06
3.1737e-06
8.98307e-06
2.7883e-06
9.21004e-06
2.38609e-06
9.49756e-06
1.96287e-06
9.84759e-06
1.51465e-06
1.0258e-05
1.03805e-06
1.07187e-05
5.31076e-07
1.12e-05
1.14934e-05
3.34952e-05
2.96943e-05
3.12477e-05
2.60267e-05
2.88945e-05
2.30193e-05
2.66003e-05
2.05795e-05
2.44494e-05
1.85935e-05
2.24733e-05
1.69647e-05
2.06758e-05
1.56236e-05
1.90495e-05
1.45208e-05
1.75829e-05
1.36187e-05
1.62629e-05
1.28848e-05
1.50756e-05
1.2289e-05
1.40072e-05
1.18043e-05
1.30441e-05
1.14065e-05
1.21733e-05
1.10752e-05
1.13829e-05
1.0794e-05
1.06622e-05
1.055e-05
1.00017e-05
1.03335e-05
9.39314e-06
1.01377e-05
8.82926e-06
9.95781e-06
8.30393e-06
9.79094e-06
7.81181e-06
9.63558e-06
7.34827e-06
9.49138e-06
6.90926e-06
9.35894e-06
6.49111e-06
9.23973e-06
6.0905e-06
9.136e-06
5.70428e-06
9.05075e-06
5.32939e-06
8.9877e-06
4.96281e-06
8.95124e-06
4.60149e-06
8.94635e-06
4.24225e-06
8.97853e-06
3.88182e-06
9.05362e-06
3.51672e-06
9.17763e-06
3.14333e-06
9.35647e-06
2.75787e-06
9.59551e-06
2.35646e-06
9.89897e-06
1.93525e-06
1.02688e-05
1.49066e-06
1.07026e-05
1.0197e-06
1.11896e-05
5.2069e-07
1.1699e-05
1.20141e-05
3.08343e-05
3.1104e-05
2.90998e-05
2.77611e-05
2.72231e-05
2.48961e-05
2.53332e-05
2.24695e-05
2.35064e-05
2.04203e-05
2.17814e-05
1.86898e-05
2.01745e-05
1.72304e-05
1.86907e-05
1.60046e-05
1.7329e-05
1.49805e-05
1.60848e-05
1.4129e-05
1.49513e-05
1.34225e-05
1.39203e-05
1.28353e-05
1.29824e-05
1.23443e-05
1.21282e-05
1.19294e-05
1.13483e-05
1.15739e-05
1.0634e-05
1.12643e-05
9.97697e-06
1.09905e-05
9.37007e-06
1.07446e-05
8.80676e-06
1.05211e-05
8.28132e-06
1.03164e-05
7.78872e-06
1.01282e-05
7.32452e-06
9.95558e-06
6.88475e-06
9.79871e-06
6.46582e-06
9.65866e-06
6.0644e-06
9.53742e-06
5.67733e-06
9.43781e-06
5.30158e-06
9.36345e-06
4.9341e-06
9.31871e-06
4.57187e-06
9.30858e-06
4.21175e-06
9.33864e-06
3.85053e-06
9.41484e-06
3.48487e-06
9.5433e-06
3.1113e-06
9.73004e-06
2.72625e-06
9.98055e-06
2.32613e-06
1.02991e-05
1.90741e-06
1.06875e-05
1.46683e-06
1.11432e-05
1.00174e-06
1.16547e-05
5.10676e-07
1.219e-05
1.25248e-05
2.84833e-05
3.21628e-05
2.71385e-05
2.91059e-05
2.56376e-05
2.6397e-05
2.40796e-05
2.40274e-05
2.25306e-05
2.19693e-05
2.10302e-05
2.01901e-05
1.96014e-05
1.86592e-05
1.82565e-05
1.73495e-05
1.70017e-05
1.62354e-05
1.58386e-05
1.52921e-05
1.47658e-05
1.44953e-05
1.37794e-05
1.38217e-05
1.28741e-05
1.32497e-05
1.20431e-05
1.27603e-05
1.12797e-05
1.23373e-05
1.05769e-05
1.19672e-05
9.92786e-06
1.16395e-05
9.32641e-06
1.1346e-05
8.76681e-06
1.10807e-05
8.24388e-06
1.08393e-05
7.75295e-06
1.06191e-05
7.28985e-06
1.04187e-05
6.85078e-06
1.02378e-05
6.43225e-06
1.00772e-05
6.031e-06
9.93867e-06
5.64393e-06
9.82488e-06
5.26801e-06
9.73937e-06
4.90027e-06
9.68645e-06
4.53769e-06
9.67115e-06
4.17724e-06
9.69909e-06
3.81579e-06
9.7763e-06
3.45012e-06
9.90897e-06
3.07694e-06
1.01032e-05
2.6929e-06
1.03646e-05
2.29466e-06
1.06973e-05
1.87897e-06
1.11032e-05
1.44287e-06
1.15793e-05
9.83949e-07
1.21137e-05
5.00892e-07
1.26731e-05
1.30257e-05
2.63938e-05
3.29625e-05
2.53453e-05
3.01543e-05
2.414e-05
2.76024e-05
2.2853e-05
2.53144e-05
2.15395e-05
2.32828e-05
2.02374e-05
2.14922e-05
1.89718e-05
1.99249e-05
1.77592e-05
1.85621e-05
1.661e-05
1.73845e-05
1.55303e-05
1.63718e-05
1.45225e-05
1.55031e-05
1.35863e-05
1.47579e-05
1.27191e-05
1.41169e-05
1.19171e-05
1.35623e-05
1.11754e-05
1.30789e-05
1.04888e-05
1.26538e-05
9.85196e-06
1.22764e-05
9.2596e-06
1.19384e-05
8.70683e-06
1.16335e-05
8.18905e-06
1.13571e-05
7.70205e-06
1.11061e-05
7.24195e-06
1.08788e-05
6.80517e-06
1.06746e-05
6.3884e-06
1.0494e-05
5.98847e-06
1.03386e-05
5.60238e-06
1.0211e-05
5.22719e-06
1.01146e-05
4.85996e-06
1.00537e-05
4.49779e-06
1.00333e-05
4.13771e-06
1.00592e-05
3.77672e-06
1.01373e-05
3.41174e-06
1.0274e-05
3.03965e-06
1.04753e-05
2.65732e-06
1.07469e-05
2.26163e-06
1.1093e-05
1.84959e-06
1.15153e-05
1.41847e-06
1.20104e-05
9.66083e-07
1.2566e-05
4.91194e-07
1.3148e-05
1.35169e-05
2.45171e-05
3.35686e-05
2.36956e-05
3.09759e-05
2.27233e-05
2.85746e-05
2.16575e-05
2.63803e-05
2.05433e-05
2.4397e-05
1.94148e-05
2.26207e-05
1.82972e-05
2.10425e-05
1.72086e-05
1.96507e-05
1.61619e-05
1.84312e-05
1.51658e-05
1.73678e-05
1.42255e-05
1.64434e-05
1.33431e-05
1.56403e-05
1.25185e-05
1.49414e-05
1.175e-05
1.43308e-05
1.10345e-05
1.37944e-05
1.03684e-05
1.33199e-05
9.74752e-06
1.28973e-05
9.16769e-06
1.25182e-05
8.62477e-06
1.21764e-05
8.11479e-06
1.18671e-05
7.63399e-06
1.15869e-05
7.17886e-06
1.13339e-05
6.74608e-06
1.11073e-05
6.33254e-06
1.09075e-05
5.93523e-06
1.07359e-05
5.55127e-06
1.05949e-05
5.17781e-06
1.0488e-05
4.81205e-06
1.04194e-05
4.45116e-06
1.03942e-05
4.0923e-06
1.0418e-05
3.73258e-06
1.0497e-05
3.3691e-06
1.06374e-05
2.9989e-06
1.08455e-05
2.61904e-06
1.11268e-05
2.22663e-06
1.14854e-05
1.81891e-06
1.1923e-05
1.39335e-06
1.24359e-05
9.47922e-07
1.30115e-05
4.81449e-07
1.36145e-05
1.39984e-05
2.28097e-05
3.40279e-05
2.21637e-05
3.16218e-05
2.1377e-05
2.93613e-05
2.04925e-05
2.72648e-05
1.9547e-05
2.53425e-05
1.85704e-05
2.35973e-05
1.75862e-05
2.20267e-05
1.66128e-05
2.06241e-05
1.56642e-05
1.93798e-05
1.47505e-05
1.82816e-05
1.38786e-05
1.73154e-05
1.30524e-05
1.64665e-05
1.22736e-05
1.57202e-05
1.15423e-05
1.50622e-05
1.08568e-05
1.44799e-05
1.02149e-05
1.39619e-05
9.61345e-06
1.34987e-05
9.04934e-06
1.30824e-05
8.51915e-06
1.27066e-05
8.01953e-06
1.23667e-05
7.54721e-06
1.20592e-05
7.09904e-06
1.17821e-05
6.67203e-06
1.15343e-05
6.26328e-06
1.13163e-05
5.86998e-06
1.11292e-05
5.48939e-06
1.09755e-05
5.11882e-06
1.08586e-05
4.75557e-06
1.07827e-05
4.39696e-06
1.07528e-05
4.04026e-06
1.07747e-05
3.68274e-06
1.08545e-05
3.32164e-06
1.09985e-05
2.95419e-06
1.12129e-05
2.57765e-06
1.15033e-05
2.18931e-06
1.18738e-05
1.78662e-06
1.23257e-05
1.36724e-06
1.28553e-05
9.29254e-07
1.34495e-05
4.71531e-07
1.40722e-05
1.44699e-05
2.12344e-05
3.43737e-05
2.07265e-05
3.21297e-05
2.00891e-05
2.99987e-05
1.93547e-05
2.79992e-05