/*--------------------------------*- C++ -*----------------------------------*\
| =========                 |                                                 |
| \\      /  F ield         | OpenFOAM: The Open Source CFD Toolbox           |
|  \\    /   O peration     | Version:  5.0                                   |
|   \\  /    A nd           | Web:      www.OpenFOAM.org                      |
|    \\/     M anipulation  |                                                 |
\*---------------------------------------------------------------------------*/
FoamFile
{
    version     2.0;
    format      ascii;
    class       volVectorField;
    location    "0.15";
    object      U;
}
// * * * * * * * * * * * * * * * * * * * * * * * * * * * * * * * * * * * * * //

dimensions      [0 1 -1 0 0 0 0];

internalField   nonuniform List<vector> 
1915
(
(1.0754 -0.0736621 0)
(0.715023 0.225011 0)
(1.16603 0.281096 0)
(0.79471 1.01896 0)
(0.91813 0.476805 0)
(0.677434 1.40846 0)
(0.537762 0.726987 0)
(0.488821 1.9208 0)
(0.213359 0.979119 0)
(0.292362 2.3202 0)
(0.099755 1.19765 0)
(0.138824 2.4251 0)
(-0.0161527 1.38797 0)
(0.00334875 2.37837 0)
(-0.0833225 1.51416 0)
(-0.081404 2.2863 0)
(-0.0546319 1.56781 0)
(-0.0683332 2.2272 0)
(0.0770359 1.58265 0)
(-0.0338908 2.22782 0)
(-0.00872291 0.00398606 0)
(-0.00780203 -0.00705129 0)
(0.0140505 -0.0148914 0)
(0.0470337 -0.0177954 0)
(0.0816589 -0.0170406 0)
(0.113676 -0.0149296 0)
(0.141475 -0.0123274 0)
(0.164021 -0.00968247 0)
(0.181291 -0.00721785 0)
(0.193775 -0.00504212 0)
(0.202094 -0.00318492 0)
(0.206911 -0.00160467 0)
(0.208767 -0.000229888 0)
(0.207954 0.000848786 0)
(0.2053 0.00161366 0)
(0.201319 0.00213913 0)
(0.196329 0.00252435 0)
(0.190561 0.00282651 0)
(0.184178 0.00307418 0)
(0.177293 0.00328422 0)
(0.169988 0.00346616 0)
(0.16233 0.00362446 0)
(0.154371 0.00376124 0)
(0.146156 0.00387873 0)
(0.137721 0.0039804 0)
(0.129092 0.00407124 0)
(0.120284 0.00415719 0)
(0.111299 0.00424462 0)
(0.102129 0.00433994 0)
(0.0927535 0.00444912 0)
(0.0831429 0.00457713 0)
(0.0732633 0.00472643 0)
(0.063099 0.00489391 0)
(0.052597 0.00519212 0)
(0.0417655 0.00556805 0)
(0.0307283 0.00578013 0)
(0.0198126 0.00563927 0)
(0.00974122 0.00472172 0)
(0.00205617 0.002752 0)
(-0.000940838 -0.000312706 0)
(-0.00191145 0.00856529 0)
(0.00601073 -0.0126984 0)
(0.0311968 -0.0284756 0)
(0.0613887 -0.0360322 0)
(0.0922859 -0.0361437 0)
(0.120909 -0.0323078 0)
(0.145402 -0.0269293 0)
(0.165075 -0.0212416 0)
(0.180044 -0.0158607 0)
(0.190776 -0.0110719 0)
(0.197846 -0.00696619 0)
(0.201852 -0.00351432 0)
(0.203355 -0.000636507 0)
(0.203001 0.00166573 0)
(0.201002 0.0034225 0)
(0.197615 0.00474865 0)
(0.193118 0.00576705 0)
(0.187747 0.00656498 0)
(0.181689 0.00720308 0)
(0.175088 0.0077244 0)
(0.168051 0.00815787 0)
(0.160661 0.00852216 0)
(0.152981 0.0088302 0)
(0.145059 0.00909289 0)
(0.136929 0.00932131 0)
(0.128617 0.00952745 0)
(0.120139 0.00972385 0)
(0.111499 0.00992308 0)
(0.102694 0.010137 0)
(0.0937115 0.0103761 0)
(0.084534 0.0106477 0)
(0.0751405 0.0109532 0)
(0.0655093 0.0112815 0)
(0.0556463 0.0115829 0)
(0.0455717 0.0117453 0)
(0.0354039 0.0116737 0)
(0.0253065 0.0110234 0)
(0.0155453 0.00933217 0)
(0.00696542 0.00598428 0)
(0.001876 0.00100765 0)
(0.00258562 0.00356784 0)
(0.0125207 -0.0277246 0)
(0.0392798 -0.0482357 0)
(0.0695296 -0.0568669 0)
(0.0993351 -0.0559362 0)
(0.125784 -0.0496369 0)
(0.147591 -0.0411555 0)
(0.164611 -0.0323079 0)
(0.177242 -0.0240103 0)
(0.186056 -0.0166637 0)
(0.191646 -0.0103863 0)
(0.194562 -0.0051478 0)
(0.195301 -0.00085795 0)
(0.194304 0.00260307 0)
(0.191878 0.00534414 0)
(0.188276 0.00748942 0)
(0.183723 0.0091656 0)
(0.178413 0.0104829 0)
(0.172506 0.0115294 0)
(0.16613 0.0123724 0)
(0.159384 0.0130608 0)
(0.152346 0.0136294 0)
(0.145072 0.0141041 0)
(0.137604 0.0145057 0)
(0.129973 0.0148536 0)
(0.122198 0.0151665 0)
(0.114291 0.0154629 0)
(0.106256 0.0157608 0)
(0.0980924 0.0160767 0)
(0.0897923 0.0164245 0)
(0.0813469 0.016813 0)
(0.0727478 0.0172425 0)
(0.0639919 0.0176988 0)
(0.0550975 0.0181462 0)
(0.046106 0.0184818 0)
(0.0370924 0.0184868 0)
(0.028147 0.0178438 0)
(0.0193157 0.0159409 0)
(0.0108874 0.0120126 0)
(0.00437857 0.00545155 0)
(-0.000418553 -0.000427425 0)
(0.00981963 -0.0426998 0)
(0.0409273 -0.0694004 0)
(0.0747719 -0.0791121 0)
(0.105829 -0.0760281 0)
(0.13136 -0.0662822 0)
(0.151094 -0.0541828 0)
(0.165702 -0.0420325 0)
(0.176032 -0.0308937 0)
(0.182863 -0.0211673 0)
(0.18685 -0.0129245 0)
(0.188532 -0.00608093 0)
(0.188354 -0.000488211 0)
(0.186679 0.00402386 0)
(0.18379 0.00761984 0)
(0.179914 0.0104594 0)
(0.175241 0.0126931 0)
(0.169934 0.014453 0)
(0.164126 0.0158482 0)
(0.157927 0.0169644 0)
(0.151424 0.0178671 0)
(0.144684 0.018605 0)
(0.137757 0.0192157 0)
(0.130681 0.0197296 0)
(0.123481 0.0201735 0)
(0.116174 0.0205721 0)
(0.108769 0.020949 0)
(0.10127 0.0213262 0)
(0.0936781 0.0217233 0)
(0.0859887 0.0221563 0)
(0.0781979 0.0226343 0)
(0.0703031 0.023155 0)
(0.0623072 0.0236976 0)
(0.0542255 0.0242105 0)
(0.0460869 0.0245778 0)
(0.0379238 0.0245892 0)
(0.0297446 0.0239016 0)
(0.0214791 0.021969 0)
(0.0132056 0.0180738 0)
(0.00580058 0.0112838 0)
(-0.00995264 -0.00106639 0)
(0.00188932 -0.0592682 0)
(0.0401419 -0.094598 0)
(0.080168 -0.104087 0)
(0.113718 -0.0967812 0)
(0.138761 -0.082167 0)
(0.156514 -0.0657831 0)
(0.168668 -0.0501641 0)
(0.176603 -0.0362835 0)
(0.181333 -0.0243919 0)
(0.183593 -0.0144291 0)
(0.183917 -0.0062117 0)
(0.182707 0.000482992 0)
(0.180272 0.00588085 0)
(0.176851 0.0101923 0)
(0.172636 0.0136097 0)
(0.167782 0.0163066 0)
(0.162419 0.0184338 0)
(0.156655 0.0201169 0)
(0.150582 0.0214567 0)
(0.14427 0.022532 0)
(0.137777 0.0234035 0)
(0.131144 0.024119 0)
(0.124404 0.0247171 0)
(0.117578 0.0252312 0)
(0.110679 0.0256915 0)
(0.103715 0.0261254 0)
(0.0966899 0.0265581 0)
(0.0896041 0.0270117 0)
(0.0824552 0.0275033 0)
(0.0752403 0.0280418 0)
(0.0679571 0.0286231 0)
(0.060606 0.029222 0)
(0.0531914 0.0297794 0)
(0.0457199 0.0301789 0)
(0.0381845 0.0302199 0)
(0.0305303 0.0295903 0)
(0.0226105 0.0278194 0)
(0.0144348 0.0242994 0)
(0.00651007 0.0180073 0)
(-0.0233585 0.00645625 0)
(-0.00423956 -0.0801728 0)
(0.0431424 -0.126145 0)
(0.0899686 -0.13264 0)
(0.125399 -0.1182 0)
(0.149157 -0.0970224 0)
(0.16434 -0.0756656 0)
(0.173658 -0.0564598 0)
(0.178946 -0.039989 0)
(0.181403 -0.0261878 0)
(0.181804 -0.0147808 0)
(0.18066 -0.00544618 0)
(0.178326 0.00212779 0)
(0.175054 0.00822547 0)
(0.171038 0.013098 0)
(0.166423 0.0169663 0)
(0.161328 0.0200235 0)
(0.155854 0.0224354 0)
(0.150083 0.0243401 0)
(0.144084 0.0258499 0)
(0.137915 0.0270537 0)
(0.131619 0.0280219 0)
(0.125232 0.0288102 0)
(0.118777 0.0294642 0)
(0.112271 0.030023 0)
(0.105726 0.0305209 0)
(0.0991478 0.0309887 0)
(0.0925378 0.0314543 0)
(0.0858958 0.0319417 0)
(0.0792188 0.0324689 0)
(0.0725024 0.0330455 0)
(0.0657412 0.0336672 0)
(0.0589287 0.0343081 0)
(0.0520559 0.0349095 0)
(0.0451065 0.0353627 0)
(0.0380403 0.0354882 0)
(0.0307581 0.035017 0)
(0.0230716 0.0335628 0)
(0.0149673 0.030634 0)
(0.00678142 0.0251714 0)
(-0.0348339 0.0183007 0)
(0.00390173 -0.109495 0)
(0.0594845 -0.164896 0)
(0.109446 -0.163826 0)
(0.143383 -0.139105 0)
(0.16363 -0.109989 0)
(0.174971 -0.0833007 0)
(0.180753 -0.0606085 0)
(0.183009 -0.0418241 0)
(0.182969 -0.0264356 0)
(0.18137 -0.0138946 0)
(0.178662 -0.00371783 0)
(0.175128 0.00450186 0)
(0.170959 0.0111057 0)
(0.16629 0.0163804 0)
(0.161224 0.02057 0)
(0.155841 0.0238828 0)
(0.150207 0.0264951 0)
(0.144381 0.028554 0)
(0.138412 0.0301792 0)
(0.132339 0.0314674 0)
(0.126196 0.0324954 0)
(0.120007 0.0333254 0)
(0.11379 0.0340082 0)
(0.107557 0.0345872 0)
(0.101316 0.0351003 0)
(0.0950697 0.0355812 0)
(0.0888186 0.0360599 0)
(0.0825599 0.0365621 0)
(0.0762883 0.0371077 0)
(0.0699963 0.0377076 0)
(0.0636733 0.038359 0)
(0.0573044 0.039039 0)
(0.0508672 0.0396946 0)
(0.0443256 0.0402303 0)
(0.037614 0.0404932 0)
(0.0306053 0.0402603 0)
(0.0230953 0.0392241 0)
(0.0150663 0.0369923 0)
(0.00679931 0.0324797 0)
(-0.0242568 0.0295036 0)
(0.0465627 -0.145443 0)
(0.100492 -0.206016 0)
(0.143162 -0.19308 0)
(0.169318 -0.156565 0)
(0.182717 -0.119445 0)
(0.188517 -0.0878322 0)
(0.189892 -0.0621601 0)
(0.188661 -0.0415481 0)
(0.185882 -0.0250005 0)
(0.18215 -0.0116886 0)
(0.177794 -0.000970454 0)
(0.173003 0.00764879 0)
(0.167891 0.0145589 0)
(0.16253 0.0200742 0)
(0.156973 0.0244546 0)
(0.151261 0.0279179 0)
(0.145429 0.0306465 0)
(0.139507 0.032792 0)
(0.133526 0.0344785 0)
(0.127509 0.0358069 0)
(0.121477 0.0368585 0)
(0.115444 0.0376996 0)
(0.109421 0.038385 0)
(0.103416 0.0389612 0)
(0.0974317 0.0394689 0)
(0.0914683 0.0399441 0)
(0.085523 0.040419 0)
(0.0795902 0.0409213 0)
(0.0736615 0.0414727 0)
(0.067725 0.0420867 0)
(0.0617641 0.042764 0)
(0.0557554 0.0434868 0)
(0.0496648 0.0442113 0)
(0.0434406 0.0448584 0)
(0.0369996 0.045303 0)
(0.0301997 0.0453661 0)
(0.0228384 0.0448068 0)
(0.014903 0.0433092 0)
(0.00667637 0.0397535 0)
(0.0468319 0.0177303 0)
(0.130509 -0.184221 0)
(0.167192 -0.23919 0)
(0.190542 -0.213048 0)
(0.202562 -0.16671 0)
(0.205963 -0.123474 0)
(0.204629 -0.0882986 0)
(0.200786 -0.0606267 0)
(0.195657 -0.0389115 0)
(0.189935 -0.0217531 0)
(0.183966 -0.00809187 0)
(0.177907 0.00283883 0)
(0.171824 0.011599 0)
(0.165741 0.0186105 0)
(0.159662 0.0242034 0)
(0.153588 0.0286446 0)
(0.147517 0.0321544 0)
(0.141454 0.034916 0)
(0.135405 0.0370813 0)
(0.129377 0.0387754 0)
(0.12338 0.0401006 0)
(0.117421 0.0411402 0)
(0.111506 0.0419628 0)
(0.105638 0.0426256 0)
(0.0998188 0.0431773 0)
(0.0940477 0.0436607 0)
(0.0883206 0.0441139 0)
(0.0826315 0.0445708 0)
(0.0769713 0.0450614 0)
(0.0713278 0.0456099 0)
(0.0656842 0.046233 0)
(0.060018 0.0469363 0)
(0.0542981 0.0477089 0)
(0.0484806 0.0485182 0)
(0.0425025 0.0493022 0)
(0.03627 0.0499629 0)
(0.0296357 0.0503603 0)
(0.022409 0.0503065 0)
(0.0145878 0.0495388 0)
(0.00647965 0.0468899 0)
(0.140713 -0.105287 0)
(0.222043 -0.244985 0)
(0.241123 -0.259689 0)
(0.244069 -0.219084 0)
(0.240028 -0.166935 0)
(0.231907 -0.120675 0)
(0.22248 -0.0839549 0)
(0.212901 -0.0556256 0)
(0.203626 -0.0337256 0)
(0.194849 -0.0166032 0)
(0.1866 -0.00306192 0)
(0.178822 0.00773173 0)
(0.171443 0.0163665 0)
(0.164384 0.0232732 0)
(0.157578 0.028782 0)
(0.150972 0.0331562 0)
(0.144525 0.0366107 0)
(0.138208 0.039324 0)
(0.132005 0.0414441 0)
(0.125903 0.0430934 0)
(0.119895 0.044373 0)
(0.113977 0.045366 0)
(0.108146 0.0461415 0)
(0.102397 0.0467578 0)
(0.0967264 0.0472649 0)
(0.0911285 0.047707 0)
(0.0855955 0.0481236 0)
(0.0801173 0.0485507 0)
(0.0746813 0.0490204 0)
(0.0692709 0.0495601 0)
(0.0638648 0.0501905 0)
(0.0584347 0.0509223 0)
(0.052943 0.0517531 0)
(0.0473386 0.0526618 0)
(0.0415509 0.0536036 0)
(0.0354807 0.0545051 0)
(0.0289821 0.055259 0)
(0.0218824 0.0557173 0)
(0.0141923 0.0556515 0)
(0.00624992 0.0538346 0)
(0.313987 1.53901 0)
(0.415163 2.17655 0)
(0.498606 1.40362 0)
(0.769227 1.84956 0)
(0.58667 1.21889 0)
(0.904303 1.44 0)
(0.619351 1.04773 0)
(0.890138 1.13231 0)
(0.622641 0.912307 0)
(0.821809 0.930216 0)
(0.603834 0.807313 0)
(0.743783 0.791649 0)
(0.570284 0.726351 0)
(0.66872 0.695579 0)
(0.530154 0.665194 0)
(0.6002 0.629767 0)
(0.488827 0.619323 0)
(0.539117 0.583961 0)
(0.448999 0.585031 0)
(0.485473 0.551216 0)
(0.438529 0.527569 0)
(0.397731 0.510254 0)
(0.36197 0.497215 0)
(0.330482 0.487238 0)
(0.30246 0.479397 0)
(0.277211 0.473041 0)
(0.254153 0.46772 0)
(0.232803 0.463112 0)
(0.212768 0.458983 0)
(0.193733 0.455154 0)
(0.175451 0.451488 0)
(0.15773 0.447872 0)
(0.140427 0.444209 0)
(0.123435 0.440416 0)
(0.106683 0.436417 0)
(0.0901239 0.432141 0)
(0.0737346 0.427523 0)
(0.0575097 0.4225 0)
(0.0414597 0.417016 0)
(0.0256088 0.411017 0)
(0.00999263 0.404454 0)
(-0.00534269 0.397282 0)
(-0.0203438 0.389474 0)
(0.53706 0.729299 0)
(-0.705903 -0.141858 0)
(-0.271189 -0.235372 0)
(-0.0924256 -0.247234 0)
(1.08868 1.06984 0)
(0.639885 0.35091 0)
(0.464421 -0.0969308 0)
(0.429391 -0.266933 0)
(1.23773 1.0032 0)
(1.20054 0.467642 0)
(1.01405 0.0389653 0)
(0.826926 -0.183124 0)
(1.16595 0.867653 0)
(1.23364 0.484264 0)
(1.12112 0.157262 0)
(0.94782 -0.0436771 0)
(1.02137 0.758071 0)
(1.09594 0.492749 0)
(1.04028 0.24877 0)
(0.917832 0.0782424 0)
(0.879337 0.670622 0)
(0.939841 0.487202 0)
(0.915223 0.306842 0)
(0.836101 0.167836 0)
(0.759809 0.604472 0)
(0.804942 0.474293 0)
(0.795042 0.340907 0)
(0.744346 0.230383 0)
(0.661996 0.557948 0)
(0.694441 0.461921 0)
(0.690926 0.361465 0)
(0.657928 0.273658 0)
(0.581613 0.525474 0)
(0.604579 0.451848 0)
(0.603658 0.374272 0)
(0.581739 0.303786 0)
(0.515062 0.502439 0)
(0.531325 0.444005 0)
(0.531417 0.382467 0)
(0.516569 0.324971 0)
(0.459649 0.485904 0)
(0.471245 0.438047 0)
(0.471723 0.387857 0)
(0.461503 0.340032 0)
(0.41298 0.473855 0)
(0.421481 0.433515 0)
(0.422128 0.391455 0)
(0.415025 0.350844 0)
(0.373318 0.464871 0)
(0.379739 0.429972 0)
(0.38049 0.393837 0)
(0.375545 0.358659 0)
(0.339174 0.457976 0)
(0.344193 0.42709 0)
(0.34504 0.395356 0)
(0.341626 0.364326 0)
(0.309333 0.452503 0)
(0.313417 0.424639 0)
(0.314363 0.396239 0)
(0.31206 0.368429 0)
(0.282836 0.447997 0)
(0.286298 0.422458 0)
(0.287349 0.396635 0)
(0.285874 0.371367 0)
(0.258924 0.444148 0)
(0.261979 0.420435 0)
(0.263142 0.396645 0)
(0.262301 0.373419 0)
(0.236996 0.440734 0)
(0.239798 0.418486 0)
(0.241083 0.396334 0)
(0.240749 0.374777 0)
(0.216587 0.437594 0)
(0.21925 0.416547 0)
(0.22067 0.39574 0)
(0.220757 0.37557 0)
(0.197331 0.434603 0)
(0.199944 0.414562 0)
(0.201519 0.394883 0)
(0.201977 0.375883 0)
(0.178949 0.431663 0)
(0.181586 0.412483 0)
(0.183339 0.393765 0)
(0.184139 0.37577 0)
(0.161227 0.428689 0)
(0.163953 0.410262 0)
(0.16591 0.39238 0)
(0.167042 0.37526 0)
(0.144006 0.425608 0)
(0.146879 0.407851 0)
(0.14907 0.39071 0)
(0.150534 0.374363 0)
(0.127169 0.422353 0)
(0.130243 0.405205 0)
(0.1327 0.388732 0)
(0.134504 0.37308 0)
(0.110637 0.418861 0)
(0.113959 0.402278 0)
(0.116714 0.386417 0)
(0.118873 0.3714 0)
(0.0943571 0.415072 0)
(0.0979737 0.399024 0)
(0.101058 0.383735 0)
(0.103589 0.369307 0)
(0.0782996 0.410932 0)
(0.0822525 0.395398 0)
(0.0856965 0.380654 0)
(0.0886174 0.366783 0)
(0.0624548 0.406387 0)
(0.0667818 0.391359 0)
(0.0706137 0.377143 0)
(0.0739424 0.363805 0)
(0.0468282 0.401388 0)
(0.0515629 0.386865 0)
(0.0558077 0.37317 0)
(0.0595605 0.360354 0)
(0.031438 0.395891 0)
(0.0366092 0.381881 0)
(0.0412884 0.368707 0)
(0.0454793 0.356407 0)
(0.0163134 0.389854 0)
(0.0219448 0.376371 0)
(0.0270755 0.363726 0)
(0.0317151 0.351947 0)
(0.00149405 0.38324 0)
(0.00760268 0.370308 0)
(0.0131972 0.358208 0)
(0.0182923 0.346957 0)
(-0.0129734 0.376025 0)
(-0.00637594 0.363671 0)
(-0.000311862 0.352136 0)
(0.0052409 0.341429 0)
(0.186685 -0.260507 0)
(0.299667 -0.292109 0)
(0.313165 -0.266049 0)
(0.298544 -0.212207 0)
(0.278726 -0.156899 0)
(0.258837 -0.110459 0)
(0.241057 -0.0743849 0)
(0.225609 -0.0469126 0)
(0.212149 -0.0258529 0)
(0.200328 -0.00946885 0)
(0.189822 0.00345721 0)
(0.180353 0.0137542 0)
(0.171696 0.0219949 0)
(0.163672 0.028592 0)
(0.156143 0.0338578 0)
(0.149 0.03804 0)
(0.142166 0.0413402 0)
(0.135582 0.0439261 0)
(0.129205 0.0459374 0)
(0.123005 0.0474907 0)
(0.116962 0.0486832 0)
(0.111058 0.0495957 0)
(0.105282 0.0502964 0)
(0.0996214 0.0508431 0)
(0.0940672 0.0512863 0)
(0.0886084 0.0516709 0)
(0.0832328 0.0520379 0)
(0.0779267 0.052425 0)
(0.0726733 0.0528668 0)
(0.067452 0.0533938 0)
(0.0622369 0.054031 0)
(0.0569949 0.0547957 0)
(0.051683 0.0556934 0)
(0.0462448 0.0567149 0)
(0.0406054 0.0578318 0)
(0.0346644 0.058992 0)
(0.0282818 0.0601151 0)
(0.0213051 0.0610819 0)
(0.0137585 0.0616826 0)
(0.00600956 0.0606174 0)
(0.442029 -0.317604 0)
(0.432369 -0.304738 0)
(0.39501 -0.252742 0)
(0.353118 -0.191002 0)
(0.316013 -0.136223 0)
(0.284675 -0.0926534 0)
(0.259025 -0.0594854 0)
(0.23807 -0.0344237 0)
(0.220683 -0.0152512 0)
(0.205996 -0.000319615 0)
(0.193359 0.0114917 0)
(0.182285 0.0209319 0)
(0.17241 0.0285115 0)
(0.163459 0.0345961 0)
(0.155227 0.0394622 0)
(0.147559 0.0433292 0)
(0.140338 0.0463774 0)
(0.133478 0.0487576 0)
(0.126915 0.0505973 0)
(0.120602 0.0520038 0)
(0.114503 0.0530679 0)
(0.108592 0.0538663 0)
(0.102846 0.0544644 0)
(0.0972489 0.0549188 0)
(0.0917832 0.0552793 0)
(0.0864336 0.0555914 0)
(0.0811838 0.0558968 0)
(0.0760159 0.056235 0)
(0.0709092 0.0566429 0)
(0.0658392 0.0571547 0)
(0.0607758 0.0577999 0)
(0.0556818 0.058602 0)
(0.0505103 0.0595752 0)
(0.0452013 0.0607215 0)
(0.0396784 0.062027 0)
(0.0338427 0.0634583 0)
(0.0275629 0.0649556 0)
(0.0207073 0.0664201 0)
(0.0133124 0.067648 0)
(0.00577068 0.0672579 0)
(0.674906 -0.256449 0)
(0.558734 -0.249915 0)
(0.469078 -0.205605 0)
(0.400271 -0.152359 0)
(0.347768 -0.105206 0)
(0.306904 -0.068013 0)
(0.274815 -0.0398461 0)
(0.249289 -0.0185538 0)
(0.228571 -0.00218143 0)
(0.211403 0.0106684 0)
(0.196888 0.0209199 0)
(0.184377 0.0291785 0)
(0.173395 0.0358542 0)
(0.163592 0.0412407 0)
(0.154705 0.0455624 0)
(0.146538 0.049 0)
(0.138945 0.0517048 0)
(0.131814 0.0538061 0)
(0.125062 0.0554148 0)
(0.118627 0.0566264 0)
(0.11246 0.057523 0)
(0.106525 0.0581753 0)
(0.100791 0.0586449 0)
(0.0952346 0.0589856 0)
(0.0898335 0.0592464 0)
(0.0845673 0.0594721 0)
(0.0794154 0.0597054 0)
(0.0743558 0.0599871 0)
(0.0693644 0.0603568 0)
(0.0644127 0.0608517 0)
(0.0594674 0.0615065 0)
(0.0544878 0.0623505 0)
(0.0494242 0.0634061 0)
(0.044215 0.0646856 0)
(0.0387839 0.0661882 0)
(0.0330358 0.0678955 0)
(0.0268493 0.0697634 0)
(0.0201127 0.0717053 0)
(0.0128729 0.0735159 0)
(0.00554168 0.0737262 0)
(0.773776 -0.136346 0)
(0.627197 -0.156631 0)
(0.515537 -0.136022 0)
(0.432391 -0.100765 0)
(0.370579 -0.0663271 0)
(0.32362 -0.0381771 0)
(0.287223 -0.0165301 0)
(0.258465 2.96368e-05 0)
(0.23526 0.0129407 0)
(0.216151 0.0232346 0)
(0.200111 0.0315749 0)
(0.186396 0.0383862 0)
(0.174465 0.0439531 0)
(0.163914 0.0484811 0)
(0.154442 0.052131 0)
(0.145822 0.055037 0)
(0.137884 0.0573159 0)
(0.130497 0.0590709 0)
(0.123562 0.0603938 0)
(0.117003 0.0613657 0)
(0.110761 0.0620582 0)
(0.104791 0.0625346 0)
(0.0990546 0.0628511 0)
(0.0935222 0.0630585 0)
(0.0881663 0.0632035 0)
(0.082962 0.0633305 0)
(0.0778845 0.0634823 0)
(0.0729084 0.0637012 0)
(0.0680056 0.0640289 0)
(0.063145 0.0645062 0)
(0.05829 0.065172 0)
(0.0533977 0.0660618 0)
(0.0484164 0.0672052 0)
(0.0432842 0.068624 0)
(0.0379265 0.0703281 0)
(0.0322533 0.0723112 0)
(0.0261537 0.0745405 0)
(0.0195339 0.0769358 0)
(0.0124496 0.0792842 0)
(0.00532627 0.0800267 0)
(0.775373 -0.019946 0)
(0.641217 -0.0597197 0)
(0.531817 -0.0607174 0)
(0.447246 -0.044025 0)
(0.383081 -0.0235455 0)
(0.333919 -0.00540602 0)
(0.295571 0.00908327 0)
(0.265069 0.0204638 0)
(0.240335 0.0295718 0)
(0.219915 0.0370311 0)
(0.202768 0.0432307 0)
(0.188132 0.0484063 0)
(0.175442 0.05271 0)
(0.164275 0.0562525 0)
(0.154307 0.0591259 0)
(0.145296 0.0614137 0)
(0.137053 0.0631949 0)
(0.129435 0.0645444 0)
(0.12233 0.0655324 0)
(0.115653 0.0662241 0)
(0.109335 0.0666791 0)
(0.103324 0.0669521 0)
(0.0975768 0.0670932 0)
(0.0920561 0.067149 0)
(0.0867306 0.0671638 0)
(0.081571 0.0671808 0)
(0.0765491 0.067243 0)
(0.0716358 0.0673936 0)
(0.0668003 0.0676764 0)
(0.0620085 0.0681355 0)
(0.0572217 0.0688139 0)
(0.0523952 0.0697524 0)
(0.0474766 0.0709875 0)
(0.0424045 0.0725489 0)
(0.0371071 0.0744557 0)
(0.0315 0.0767106 0)
(0.0254828 0.0792884 0)
(0.0189777 0.0821111 0)
(0.012047 0.0849541 0)
(0.00512569 0.0861674 0)
(0.730445 0.0749764 0)
(0.620762 0.0258532 0)
(0.524981 0.00981845 0)
(0.447197 0.0113774 0)
(0.38601 0.0193504 0)
(0.337945 0.0280413 0)
(0.299736 0.0355896 0)
(0.268879 0.0418493 0)
(0.243558 0.0471203 0)
(0.222468 0.0516642 0)
(0.204656 0.0556235 0)
(0.189405 0.0590608 0)
(0.176171 0.0620038 0)
(0.164537 0.0644723 0)
(0.15418 0.066491 0)
(0.14485 0.0680927 0)
(0.136354 0.0693178 0)
(0.128538 0.070212 0)
(0.121285 0.070823 0)
(0.114502 0.0711991 0)
(0.108114 0.071387 0)
(0.102062 0.0714322 0)
(0.0962987 0.0713778 0)
(0.090782 0.0712658 0)
(0.0854763 0.0711376 0)
(0.0803488 0.0710348 0)
(0.0753678 0.0710002 0)
(0.0705015 0.0710779 0)
(0.0657164 0.0713135 0)
(0.0609762 0.0717538 0)
(0.0562405 0.0724459 0)
(0.0514636 0.0734352 0)
(0.0465931 0.0747643 0)
(0.0415691 0.0764694 0)
(0.0363229 0.0785771 0)
(0.0307765 0.0810968 0)
(0.024839 0.084008 0)
(0.0184468 0.0872311 0)
(0.0116671 0.0905284 0)
(0.00493986 0.0921582 0)
(0.668582 0.147963 0)
(0.583175 0.0963403 0)
(0.50396 0.0711501 0)
(0.436498 0.0617396 0)
(0.381288 0.0597454 0)
(0.336531 0.060422 0)
(0.300043 0.0618131 0)
(0.269962 0.0633711 0)
(0.244867 0.0650187 0)
(0.223695 0.0667388 0)
(0.20564 0.0684776 0)
(0.19008 0.0701566 0)
(0.176522 0.0716989 0)
(0.164581 0.0730453 0)
(0.153949 0.0741595 0)
(0.144384 0.0750274 0)
(0.135692 0.0756528 0)
(0.127721 0.0760525 0)
(0.120348 0.0762523 0)
(0.113477 0.0762832 0)
(0.10703 0.0761791 0)
(0.100943 0.0759754 0)
(0.0951637 0.0757081 0)
(0.0896477 0.0754143 0)
(0.0843557 0.0751319 0)
(0.0792517 0.074901 0)
(0.0743014 0.0747635 0)
(0.0694703 0.0747644 0)
(0.0647231 0.0749508 0)
(0.0600218 0.075372 0)
(0.0553248 0.0760784 0)
(0.050586 0.0771197 0)
(0.0457537 0.0785435 0)
(0.0407698 0.0803916 0)
(0.0355696 0.0826961 0)
(0.0300808 0.0854715 0)
(0.024222 0.0886992 0)
(0.0179413 0.0922963 0)
(0.0113093 0.0960102 0)
(0.00476792 0.0980089 0)
(0.604056 0.202629 0)
(0.539122 0.152491 0)
(0.475702 0.122464 0)
(0.419241 0.105688 0)
(0.371176 0.0962915 0)
(0.33088 0.090616 0)
(0.297094 0.0868854 0)
(0.268585 0.0843766 0)
(0.244342 0.0827814 0)
(0.223574 0.0818958 0)
(0.205651 0.0815291 0)
(0.190062 0.0815006 0)
(0.176394 0.0816545 0)
(0.164305 0.0818689 0)
(0.153518 0.0820571 0)
(0.143805 0.0821642 0)
(0.134984 0.0821612 0)
(0.126905 0.0820388 0)
(0.119447 0.0818018 0)
(0.112512 0.0814646 0)
(0.106021 0.0810484 0)
(0.0999083 0.0805786 0)
(0.0941183 0.0800842 0)
(0.0886039 0.0795968 0)
(0.0833234 0.0791511 0)
(0.0782384 0.0787849 0)
(0.0733124 0.0785397 0)
(0.0685091 0.0784606 0)
(0.0637915 0.0785961 0)
(0.0591205 0.0789977 0)
(0.054454 0.0797186 0)
(0.0497459 0.0808122 0)
(0.0449458 0.0823301 0)
(0.0399978 0.0843187 0)
(0.0348411 0.0868144 0)
(0.0294094 0.0898347 0)
(0.0236295 0.0933616 0)
(0.0174595 0.0973069 0)
(0.0109722 0.101403 0)
(0.00460861 0.103729 0)
(0.543419 0.243118 0)
(0.494617 0.196257 0)
(0.444772 0.164272 0)
(0.398533 0.142968 0)
(0.357635 0.128439 0)
(0.322171 0.118029 0)
(0.291566 0.110266 0)
(0.265107 0.104406 0)
(0.242152 0.100031 0)
(0.222159 0.0968346 0)
(0.204671 0.0945431 0)
(0.189301 0.0929121 0)
(0.175716 0.0917329 0)
(0.163631 0.090839 0)
(0.152805 0.0901054 0)
(0.143036 0.0894446 0)
(0.134154 0.0888 0)
(0.126018 0.0881393 0)
(0.118513 0.0874486 0)
(0.111543 0.0867272 0)
(0.105029 0.0859841 0)
(0.0989043 0.0852353 0)
(0.0931123 0.0845026 0)
(0.0876044 0.0838124 0)
(0.0823371 0.083196 0)
(0.0772705 0.0826892 0)
(0.0723663 0.0823324 0)
(0.067587 0.082171 0)
(0.0628945 0.0822544 0)
(0.0582491 0.0826359 0)
(0.0536086 0.0833711 0)
(0.0489276 0.0845164 0)
(0.044157 0.0861268 0)
(0.0392437 0.0882521 0)
(0.0341308 0.0909319 0)
(0.0287575 0.0941854 0)
(0.023058 0.0979937 0)
(0.0169989 0.102263 0)
(0.0106537 0.10671 0)
(0.0044604 0.109327 0)
(0.489183 0.273051 0)
(0.452661 0.230032 0)
(0.413857 0.197846 0)
(0.376452 0.174069 0)
(0.342138 0.156224 0)
(0.311388 0.142476 0)
(0.284086 0.131683 0)
(0.259909 0.123171 0)
(0.238505 0.1165 0)
(0.219545 0.111321 0)
(0.202728 0.107323 0)
(0.187778 0.104231 0)
(0.174445 0.101806 0)
(0.162502 0.0998547 0)
(0.151749 0.0982258 0)
(0.14201 0.0968077 0)
(0.133136 0.0955224 0)
(0.124998 0.0943186 0)
(0.117488 0.0931663 0)
(0.110515 0.0920514 0)
(0.104001 0.090972 0)
(0.0978815 0.0899355 0)
(0.0920999 0.0889567 0)
(0.086607 0.0880574 0)
(0.0813582 0.0872652 0)
(0.0763126 0.0866138 0)
(0.0714312 0.0861428 0)
(0.0666757 0.0858973 0)
(0.0620074 0.0859277 0)
(0.0573864 0.0862885 0)
(0.0527709 0.0870374 0)
(0.0481164 0.0882332 0)
(0.0433758 0.0899335 0)
(0.0384986 0.0921908 0)
(0.0334318 0.0950466 0)
(0.0281199 0.0985211 0)
(0.0225034 0.102593 0)
(0.0165559 0.107163 0)
(0.010351 0.111934 0)
(0.00432169 0.114811 0)
(0.4418 0.295232 0)
(0.414456 0.256017 0)
(0.384346 0.224635 0)
(0.354261 0.199787 0)
(0.325694 0.179987 0)
(0.29928 0.164023 0)
(0.275181 0.151056 0)
(0.253338 0.140524 0)
(0.233616 0.132016 0)
(0.215852 0.125183 0)
(0.199874 0.119712 0)
(0.185502 0.115321 0)
(0.172561 0.11176 0)
(0.16088 0.108822 0)
(0.1503 0.106342 0)
(0.140676 0.104193 0)
(0.131877 0.10228 0)
(0.123791 0.100539 0)
(0.116319 0.0989254 0)
(0.109376 0.0974147 0)
(0.102889 0.0959951 0)
(0.0967959 0.0946664 0)
(0.0910403 0.0934374 0)
(0.0855736 0.0923252 0)
(0.0803517 0.0913542 0)
(0.0753332 0.090556 0)
(0.0704788 0.0899692 0)
(0.0657499 0.0896388 0)
(0.0611078 0.0896155 0)
(0.0565131 0.0899552 0)
(0.0519245 0.0907169 0)
(0.0472989 0.0919615 0)
(0.0425912 0.0937484 0)
(0.0377537 0.0961321 0)
(0.0327373 0.0991554 0)
(0.027491 0.102838 0)
(0.0219612 0.107158 0)
(0.0161272 0.112007 0)
(0.0100615 0.117075 0)
(0.00419088 0.120186 0)
(0.400751 0.311744 0)
(0.380205 0.276032 0)
(0.356817 0.245979 0)
(0.332651 0.220978 0)
(0.30895 0.200195 0)
(0.286386 0.182873 0)
(0.265265 0.168426 0)
(0.245695 0.156414 0)
(0.22769 0.14648 0)
(0.211209 0.138305 0)
(0.196179 0.131594 0)
(0.182501 0.126072 0)
(0.170064 0.121495 0)
(0.158747 0.117657 0)
(0.148429 0.114384 0)
(0.138994 0.111541 0)
(0.130335 0.109026 0)
(0.122354 0.106761 0)
(0.114963 0.104695 0)
(0.108086 0.102792 0)
(0.101654 0.101034 0)
(0.0956092 0.0994127 0)
(0.0898974 0.0979327 0)
(0.0844712 0.0966066 0)
(0.0792872 0.0954559 0)
(0.0743044 0.0945104 0)
(0.0694838 0.0938076 0)
(0.0647872 0.0933921 0)
(0.0601764 0.0933151 0)
(0.0556124 0.0936333 0)
(0.0510552 0.0944068 0)
(0.0464632 0.095698 0)
(0.0417934 0.0975678 0)
(0.0370012 0.100072 0)
(0.0320409 0.103254 0)
(0.0268657 0.107133 0)
(0.0214271 0.111683 0)
(0.015709 0.116792 0)
(0.00978237 0.122136 0)
(0.00406639 0.125457 0)
(0.36514 0.324109 0)
(0.349619 0.291511 0)
(0.331385 0.263019 0)
(0.311943 0.238432 0)
(0.292295 0.217335 0)
(0.273075 0.199287 0)
(0.254651 0.183903 0)
(0.237226 0.170856 0)
(0.220907 0.159853 0)
(0.205739 0.150617 0)
(0.191721 0.142883 0)
(0.178818 0.136398 0)
(0.166969 0.130932 0)
(0.156097 0.126285 0)
(0.146117 0.122286 0)
(0.13694 0.118798 0)
(0.128479 0.115712 0)
(0.120653 0.112947 0)
(0.113385 0.110442 0)
(0.106609 0.108157 0)
(0.100262 0.106066 0)
(0.0942893 0.104157 0)
(0.0886409 0.102429 0)
(0.0832714 0.10089 0)
(0.0781384 0.0995614 0)
(0.0732024 0.0984696 0)
(0.0684249 0.0976517 0)
(0.0637687 0.0971519 0)
(0.0591962 0.0970216 0)
(0.0546697 0.097318 0)
(0.0501505 0.0981024 0)
(0.0455989 0.0994378 0)
(0.0409739 0.101386 0)
(0.0362339 0.104005 0)
(0.0313365 0.107336 0)
(0.0262389 0.111399 0)
(0.0208967 0.116166 0)
(0.0152977 0.121516 0)
(0.00951082 0.127115 0)
(0.00394674 0.130628 0)
(0.334008 0.333425 0)
(0.322216 0.303546 0)
(0.30793 0.276675 0)
(0.292239 0.252833 0)
(0.275938 0.231864 0)
(0.259589 0.213544 0)
(0.243569 0.197634 0)
(0.228127 0.183906 0)
(0.213423 0.172132 0)
(0.199557 0.162082 0)
(0.18658 0.153524 0)
(0.174501 0.146235 0)
(0.163301 0.140004 0)
(0.15294 0.134643 0)
(0.14336 0.129991 0)
(0.134499 0.125911 0)
(0.126289 0.122295 0)
(0.118663 0.119058 0)
(0.11156 0.116136 0)
(0.104919 0.113483 0)
(0.0986857 0.111071 0)
(0.0928102 0.108881 0)
(0.0872462 0.10691 0)
(0.0819508 0.105164 0)
(0.0768839 0.10366 0)
(0.0720073 0.102424 0)
(0.0672842 0.101493 0)
(0.0626783 0.100911 0)
(0.0581534 0.100728 0)
(0.053673 0.101003 0)
(0.0492002 0.101797 0)
(0.0446971 0.103174 0)
(0.0401252 0.105198 0)
(0.0354455 0.107924 0)
(0.0306188 0.111396 0)
(0.0256058 0.115632 0)
(0.020366 0.120599 0)
(0.01489 0.126175 0)
(0.00924426 0.132012 0)
(0.00383055 0.135699 0)
(0.306479 0.340478 0)
(0.297475 0.312958 0)
(0.286227 0.287669 0)
(0.273521 0.264746 0)
(0.259978 0.244187 0)
(0.246079 0.225906 0)
(0.232184 0.209776 0)
(0.218552 0.195645 0)
(0.20537 0.183344 0)
(0.19277 0.172688 0)
(0.180834 0.163484 0)
(0.169605 0.155537 0)
(0.159096 0.14866 0)
(0.149292 0.14268 0)
(0.140164 0.137448 0)
(0.131667 0.132834 0)
(0.123754 0.128732 0)
(0.116372 0.125057 0)
(0.109469 0.121744 0)
(0.102996 0.118743 0)
(0.0969056 0.116023 0)
(0.0911521 0.113564 0)
(0.0856937 0.111358 0)
(0.0804911 0.109411 0)
(0.0755064 0.107738 0)
(0.0707036 0.106363 0)
(0.0660474 0.105323 0)
(0.0615033 0.10466 0)
(0.0570366 0.104426 0)
(0.0526124 0.10468 0)
(0.0481957 0.105483 0)
(0.0437506 0.1069 0)
(0.039241 0.108994 0)
(0.0346306 0.111822 0)
(0.0298831 0.115426 0)
(0.0249624 0.119824 0)
(0.0198312 0.12498 0)
(0.0144825 0.130765 0)
(0.00898026 0.136825 0)
(0.00371654 0.14067 0)
(0.281806 0.345828 0)
(0.274915 0.320351 0)
(0.266027 0.296556 0)
(0.25571 0.274625 0)
(0.244446 0.254644 0)
(0.232639 0.236613 0)
(0.220613 0.220481 0)
(0.208622 0.20616 0)
(0.196859 0.193528 0)
(0.18547 0.182443 0)
(0.174558 0.172747 0)
(0.164188 0.164274 0)
(0.154393 0.15686 0)
(0.145181 0.150354 0)
(0.136542 0.144617 0)
(0.12845 0.139529 0)
(0.120873 0.134988 0)
(0.113771 0.130912 0)
(0.107103 0.127236 0)
(0.100829 0.12391 0)
(0.0949084 0.1209 0)
(0.089301 0.118186 0)
(0.0839699 0.115758 0)
(0.0788788 0.113618 0)
(0.0739932 0.111782 0)
(0.0692791 0.110274 0)
(0.0647036 0.109129 0)
(0.0602339 0.108389 0)
(0.0558371 0.108107 0)
(0.0514803 0.10834 0)
(0.0471303 0.109152 0)
(0.0427536 0.110606 0)
(0.0383163 0.112766 0)
(0.0337847 0.11569 0)
(0.0291254 0.119419 0)
(0.0243049 0.123968 0)
(0.019289 0.1293 0)
(0.0140725 0.135282 0)
(0.00871665 0.141549 0)
(0.00360361 0.145542 0)
(0.259383 0.349876 0)
(0.254119 0.326169 0)
(0.24709 0.303756 0)
(0.238704 0.28283 0)
(0.229336 0.263516 0)
(0.219319 0.245871 0)
(0.208938 0.229895 0)
(0.198429 0.215542 0)
(0.187979 0.202735 0)
(0.17774 0.191366 0)
(0.167823 0.181309 0)
(0.158305 0.172426 0)
(0.149236 0.164579 0)
(0.140638 0.157632 0)
(0.132516 0.151462 0)
(0.124861 0.145958 0)
(0.117652 0.141027 0)
(0.110862 0.13659 0)
(0.10446 0.132583 0)
(0.0984126 0.128958 0)
(0.0926868 0.125679 0)
(0.0872489 0.122726 0)
(0.0820658 0.120088 0)
(0.0771052 0.117768 0)
(0.0723356 0.115779 0)
(0.0677259 0.114144 0)
(0.0632453 0.112899 0)
(0.0588631 0.112086 0)
(0.0545487 0.111758 0)
(0.0502711 0.111973 0)