/*--------------------------------*- C++ -*----------------------------------*\
| =========                 |                                                 |
| \\      /  F ield         | OpenFOAM: The Open Source CFD Toolbox           |
|  \\    /   O peration     | Version:  5.0                                   |
|   \\  /    A nd           | Web:      www.OpenFOAM.org                      |
|    \\/     M anipulation  |                                                 |
\*---------------------------------------------------------------------------*/
FoamFile
{
    version     2.0;
    format      ascii;
    class       volScalarField;
    location    "0.05";
    object      alpha.water;
}
// * * * * * * * * * * * * * * * * * * * * * * * * * * * * * * * * * * * * * //

dimensions      [0 0 0 0 0 0 0];

internalField   nonuniform List<scalar> 
1915
(
1
1
1
0.113898
1.36793e-05
4.6659e-07
7.89134e-09
9.87799e-11
1.41996e-12
2.28811e-13
1.2686e-14
1.97898e-16
3.04305e-18
5.01955e-20
9.02991e-22
1.78332e-23
3.84936e-25
8.99823e-27
2.25424e-28
5.99105e-30
1.67327e-31
4.86889e-33
1.46297e-34
4.50648e-36
1.41089e-37
1
0.999993
0.999995
0.999997
0.999998
0.999999
0.999999
0.999999
1
1
0.999999
1
0.999999
0.999999
0.999999
0.999999
0.999999
0.999999
0.999999
0.999999
0.999999
0.999999
0.999999
0.0991995
8.12075e-06
2.55001e-07
3.05205e-09
1.96332e-11
2.44761e-13
1.7239e-13
2.4419e-15
2.74372e-17
3.53197e-19
5.20573e-21
8.77799e-23
1.66717e-24
3.50552e-26
8.03244e-28
1.97824e-29
5.17458e-31
1.42274e-32
4.07312e-34
1.21111e-35
3.69441e-37
1.14507e-38
1
0.999963
0.999974
0.999985
0.999991
0.999994
0.999995
0.999996
0.999996
0.999996
0.999996
0.999996
0.999996
0.999996
0.999996
0.999995
0.999995
0.999994
0.999994
0.999993
0.999993
0.999993
0.999992
0.0839529
4.2949e-06
1.22715e-07
5.76729e-10
-1.21895e-12
1.06606e-12
3.73903e-14
2.47471e-16
2.56778e-18
3.33829e-20
4.92247e-22
8.19112e-24
1.51934e-25
3.09908e-27
6.86063e-29
1.62853e-30
4.10016e-32
1.08423e-33
2.98165e-35
8.72402e-37
2.62743e-38
8.02047e-40
1
0.999811
0.999856
0.999909
0.99994
0.999956
0.999965
0.99997
0.999973
0.999974
0.999973
0.999973
0.999972
0.99997
0.999968
0.999966
0.999964
0.999961
0.999959
0.999956
0.999953
0.999951
0.999947
0.0675951
1.91251e-06
4.69538e-08
-9.98325e-11
1.02005e-11
1.77252e-13
2.97305e-15
2.37998e-17
2.61719e-19
3.40666e-21
4.90805e-23
7.8951e-25
1.41013e-26
2.76707e-28
5.89456e-30
1.3474e-31
3.26952e-33
8.33938e-35
2.21408e-36
6.21591e-38
1.79346e-39
5.23364e-41
1.00002
0.999015
0.999197
0.999459
0.999617
0.999708
0.999759
0.999787
0.999802
0.999807
0.999806
0.999802
0.999794
0.999785
0.999774
0.999762
0.999748
0.999733
0.999718
0.999701
0.999685
0.99967
0.999648
0.0527501
5.04163e-07
6.67746e-09
-8.3853e-11
-1.11657e-12
-3.08553e-15
2.94515e-16
2.59074e-18
2.79499e-20
3.4692e-22
4.76905e-24
7.34194e-26
1.25898e-27
2.37829e-29
4.88779e-31
1.07966e-32
2.53476e-34
6.26085e-36
1.61085e-37
4.36872e-39
1.2169e-40
3.42109e-42
1.00012
0.994865
0.995526
0.99676
0.997552
0.998033
0.998316
0.998475
0.998555
0.998584
0.998578
0.998551
0.998507
0.998452
0.998388
0.998316
0.998238
0.998153
0.998063
0.997968
0.997876
0.997795
0.997647
0.0460416
-8.07247e-07
-9.69576e-10
-1.50639e-10
-1.01944e-13
9.48159e-16
3.09587e-17
2.67188e-19
2.76343e-21
3.28943e-23
4.33912e-25
6.42283e-27
1.0613e-28
1.93568e-30
3.84708e-32
8.22816e-34
1.87226e-35
4.48506e-37
1.11969e-38
2.94869e-40
7.97314e-42
2.16992e-43
0.637944
0.716389
0.777833
0.825075
0.858203
0.879356
0.89211
0.899122
0.90233
0.903042
0.902123
0.90011
0.897344
0.894023
0.890262
0.886128
0.881658
0.876826
0.87164
0.866132
0.86059
0.854901
0.844398
0.043064
-1.11598e-06
-2.57317e-10
-7.06966e-12
-7.18592e-14
4.03454e-16
2.92765e-18
2.44403e-20
2.46434e-22
2.84416e-24
3.63262e-26
5.20862e-28
8.34509e-30
1.47724e-31
2.85183e-33
5.92852e-35
1.31177e-36
3.05655e-38
7.42344e-40
1.90143e-41
4.9976e-43
1.31804e-44
0.0347988
0.0690738
0.100801
0.133859
0.163341
0.186342
0.202011
0.211324
0.215761
0.216744
0.215395
0.212503
0.208601
0.20402
0.198963
0.193562
0.187918
0.18216
0.176323
0.170343
0.164566
0.157324
0.173128
0.0172604
-5.99534e-08
-5.63724e-12
-5.12157e-13
-2.98139e-15
1.54478e-17
2.07552e-19
1.83244e-21
1.86844e-23
2.14696e-25
2.70838e-27
3.8193e-29
6.0033e-31
1.04097e-32
1.96649e-34
3.99732e-36
8.64344e-38
1.9672e-39
4.66471e-41
1.16571e-42
2.9863e-44
7.64875e-46
-4.2646e-133
3.45534e-45
2.17148e-42
7.89145e-40
5.10786e-38
2.58235e-36
1.11065e-34
4.13452e-33
1.36714e-31
4.11026e-30
1.17942e-28
3.11937e-27
7.569e-26
1.6936e-24
3.50784e-23
6.76189e-22
1.22312e-20
2.0976e-19
3.45453e-18
5.48968e-17
8.28081e-16
1.13791e-14
1.32829e-13
1.5907e-11
1.09376e-08
5.73875e-13
2.06454e-15
-5.53291e-17
-3.53e-18
3.725e-21
6.30413e-23
1.06298e-24
1.30856e-26
1.7063e-28
2.44065e-30
3.84651e-32
6.63791e-34
1.24174e-35
2.49089e-37
5.30195e-39
1.18561e-40
2.75831e-42
6.75275e-44
1.69203e-45
4.22026e-47
-3.38489e-149
1.60224e-44
4.72233e-43
4.22326e-40
1.15777e-36
1.17909e-34
6.94854e-33
2.98992e-31
1.05268e-29
3.18833e-28
8.6132e-27
2.10281e-25
4.6593e-24
9.34523e-23
1.69352e-21
2.7548e-20
3.93522e-19
4.81696e-18
4.87884e-17
4.97413e-16
9.84113e-15
2.77639e-13
9.98804e-13
4.11195e-11
6.86924e-10
1.4837e-14
1.61652e-16
2.08244e-18
-4.12886e-19
8.27748e-23
1.67289e-24
1.1072e-27
4.92188e-28
8.04085e-30
1.27291e-31
2.10435e-33
3.7208e-35
7.03159e-37
1.41205e-38
2.99057e-40
6.62528e-42
1.52234e-43
3.67083e-45
9.03686e-47
2.20239e-48
4.03174e-46
3.49896e-43
3.88822e-41
2.28005e-40
8.1521e-38
1.24244e-35
9.98704e-34
5.40986e-32
2.26173e-30
7.85043e-29
2.32715e-27
6.15167e-26
1.46798e-24
2.75604e-23
4.1123e-22
5.56128e-21
8.82089e-20
1.90796e-18
3.08803e-17
3.91295e-16
2.70392e-14
7.7648e-13
2.72522e-12
3.13753e-12
2.74565e-16
4.75811e-16
1.56753e-17
-1.07491e-19
1.82644e-21
1.48207e-23
-7.03157e-27
1.44511e-27
1.60427e-29
2.1101e-31
4.26753e-33
8.86505e-35
1.74299e-36
3.45805e-38
7.12399e-40
1.52658e-41
3.39135e-43
7.76738e-45
1.85802e-46
4.51986e-48
1.08087e-49
-2.82908e-45
-3.6749e-44
-1.99735e-41
-9.64435e-39
-3.96502e-37
-1.20511e-35
-3.3494e-34
-7.43673e-33
-1.36399e-31
-2.23776e-30
-2.36796e-29
2.54063e-29
7.07791e-27
5.13515e-26
-2.48463e-24
-1.04925e-22
-2.30976e-21
-4.06393e-20
-6.77592e-19
-7.33025e-18
4.70855e-16
8.78194e-15
3.0543e-14
3.65831e-14
1.32047e-16
2.14788e-17
1.00404e-18
1.2758e-20
1.3654e-22
9.89309e-25
9.87631e-27
1.02399e-28
1.14345e-30
1.41833e-32
1.95552e-34
2.93994e-36
5.70268e-38
1.36819e-39
3.08582e-41
6.89122e-43
1.5648e-44
3.62055e-46
8.67647e-48
2.10138e-49
4.95685e-51
-3.50324e-58
1.35098e-46
2.72741e-44
1.26684e-42
8.63016e-41
-4.08311e-39
-1.94036e-38
2.69465e-36
6.13916e-35
1.36601e-33
2.76186e-32
4.8113e-31
7.66014e-30
1.12022e-28
1.4976e-27
1.75986e-26
1.72702e-25
1.2595e-24
3.85617e-22
3.41129e-20
2.20137e-18
3.4064e-17
1.16104e-16
1.41003e-16
3.43061e-18
2.15164e-19
4.94154e-20
7.22819e-22
8.34564e-24
6.8314e-26
4.60407e-28
6.36898e-30
7.12212e-32
8.70583e-34
1.18802e-35
1.78168e-37
2.91317e-39
5.10878e-41
1.00613e-42
2.61276e-44
6.3523e-46
1.51712e-47
3.69508e-49
9.00199e-51
2.10867e-52
-1.22091e-50
-8.79101e-48
-6.94094e-46
-2.61709e-45
-7.31379e-44
-1.78085e-42
-8.4879e-41
-2.83042e-39
-4.88223e-38
-4.31653e-37
-6.4622e-36
-6.82988e-35
-1.84462e-34
5.97769e-33
-2.44064e-31
-1.4887e-29
-4.07276e-28
-5.21305e-27
8.04819e-25
3.3397e-23
1.01761e-21
1.71441e-20
7.32634e-20
1.12556e-19
7.47867e-20
2.00376e-21
1.50871e-21
3.06115e-23
4.10018e-25
3.71591e-27
3.1514e-29
3.42834e-31
3.90183e-33
4.78461e-35
6.49462e-37
9.67484e-39
1.56641e-40
2.72984e-42
5.06723e-44
9.90103e-46
2.07582e-47
5.52818e-49
1.41238e-50
3.51393e-52
8.24767e-54
-5.97559e-53
-6.95807e-52
-3.14325e-49
-8.01613e-48
-1.78797e-46
-4.45098e-45
-9.74666e-44
-1.90868e-42
-3.2809e-41
-4.90046e-40
-5.56495e-39
-3.26788e-38
7.96768e-38
-1.4405e-35
-7.68391e-34
-2.05982e-32
-3.92004e-31
5.28777e-30
3.04921e-28
4.83495e-27
5.99044e-26
7.80118e-25
1.50328e-23
1.9612e-22
4.96995e-22
1.32083e-22
1.329e-23
8.88208e-25
-1.0638e-26
1.60403e-28
1.48983e-30
1.57722e-32
1.86339e-34
2.31214e-36
3.16766e-38
4.73237e-40
7.64818e-42
1.3263e-43
2.44382e-45
4.73734e-47
9.5642e-49
2.03255e-50
4.57649e-52
1.22494e-53
2.93005e-55
-1.92416e-69
1.15788e-56
1.45852e-54
1.01818e-52
1.53701e-51
5.63602e-50
4.71067e-48
1.57453e-46
3.82097e-45
8.47861e-44
1.6777e-42
3.00306e-41
4.94851e-40
7.53812e-39
1.05734e-37
1.34389e-36
1.56383e-34
1.07231e-32
2.0667e-31
3.08351e-30
3.9121e-29
5.03937e-28
8.29063e-27
9.68753e-26
8.26e-25
2.41218e-24
6.58307e-26
1.06085e-26
4.87663e-28
5.55278e-30
6.07569e-32
6.15531e-34
7.65091e-36
9.81864e-38
1.36606e-39
2.07041e-41
3.36936e-43
5.85779e-45
1.07846e-46
2.08316e-48
4.18102e-50
8.8123e-52
1.89385e-53
4.05985e-55
9.31957e-57
-5.01373e-74
-1.41897e-60
1.67301e-58
1.81835e-57
2.11894e-55
1.11153e-53
4.2086e-53
1.17717e-51
1.98348e-49
7.70711e-48
1.71326e-46
3.47847e-45
6.41506e-44
8.22001e-43
-2.04778e-42
-4.34988e-40
2.80733e-37
8.33066e-36
1.51147e-34
2.24914e-33
2.9437e-32
3.45026e-31
3.76242e-30
4.76028e-29
2.16592e-27
1.02647e-26
4.01463e-29
7.73675e-29
6.17497e-30
1.53088e-31
1.91475e-33
2.24508e-35
2.68537e-37
3.613e-39
5.19931e-41
8.05027e-43
1.33142e-44
2.33918e-46
4.33307e-48
8.39141e-50
1.6835e-51
3.53748e-53
7.55869e-55
1.60015e-56
3.0336e-58
-6.19478e-65
-1.43724e-63
-2.78676e-61
-9.88359e-60
-2.74348e-58
-7.57286e-57
-1.75773e-55
-2.97798e-54
-3.86438e-53
-1.79293e-52
8.96909e-51
3.67267e-49
3.19213e-48
-2.58945e-46
-1.34419e-44
7.0446e-44
8.4193e-41
2.11982e-39
3.84605e-38
5.91601e-37
8.13806e-36
1.01296e-34
1.18816e-33
1.83935e-32
4.68035e-31
3.84168e-30
7.58739e-30
2.15892e-31
5.07015e-32
4.63669e-34
4.76874e-35
6.39602e-37
8.1253e-39
1.14414e-40
1.7263e-42
2.76577e-44
4.69329e-46
8.40321e-48
1.57772e-49
3.08324e-51
6.21886e-53
1.30949e-54
2.79498e-56
5.88835e-58
1.10767e-59
4.59419e-83
-8.21506e-68
-5.74025e-66
-3.15751e-64
-1.26441e-62
-3.59757e-61
-6.84678e-60
-1.33613e-58
-2.20535e-57
-2.35833e-56
8.19514e-57
9.55661e-54
3.23272e-52
5.65933e-51
1.79161e-50
2.1514e-46
1.85802e-44
4.48134e-43
8.25841e-42
1.31417e-40
1.89236e-39
2.52866e-38
3.17088e-37
3.7507e-36
4.62468e-35
3.54725e-33
2.42945e-32
4.24616e-35
2.27633e-34
2.1301e-35
6.72801e-37
1.50728e-38
2.1446e-40
3.21962e-42
4.9893e-44
8.351e-46
1.46856e-47
2.70287e-49
5.18346e-51
1.02919e-52
2.09972e-54
4.45476e-56
9.54457e-58
2.01008e-59
3.76759e-61
-1.06899e-86
2.78926e-72
2.57804e-70
1.62957e-68
7.99741e-67
3.23252e-65
1.1228e-63
3.44531e-62
9.50083e-61
2.37425e-59
5.43463e-58
1.14912e-56
2.25551e-55
4.10336e-54
6.77259e-53
1.11171e-50
6.25745e-49
1.51364e-47
2.89445e-46
4.84398e-45
7.39608e-44
1.05453e-42
1.42654e-41
1.84884e-40
2.30033e-39
2.88356e-38
2.61233e-36
2.20796e-35
3.48655e-37
1.19641e-37
3.70605e-39
1.78952e-40
4.09747e-42
7.51661e-44
1.27989e-45
2.23013e-47
4.06575e-49
7.75334e-51
1.53056e-52
3.10946e-54
6.45749e-56
1.38825e-57
3.00117e-59
6.34781e-61
1.19072e-62
-3.30701e-79
-7.35594e-77
-6.10487e-75
-3.03255e-73
-1.17251e-71
-3.76966e-70
-9.79534e-69
-2.0975e-67
-3.59075e-66
-4.57548e-65
-2.58025e-64
-6.69531e-63
-1.76878e-60
-1.14209e-58
8.76836e-57
7.34808e-54
3.6715e-52
9.19601e-51
1.85348e-49
3.29609e-48
5.37719e-47
8.22713e-46
1.19861e-44
1.67811e-43
2.25669e-42
3.05988e-41
3.33138e-39
3.10842e-38
4.95841e-41
3.26109e-40
1.4483e-41
1.53965e-42
4.84037e-44
1.11311e-45
2.39894e-47
4.9755e-49
1.00058e-50
1.99036e-52
4.06295e-54
8.48689e-56
1.80433e-57
3.95236e-59
8.66657e-61
1.84994e-62
3.48855e-64
1.57605e-85
2.40445e-81
2.34691e-79
1.61366e-77
8.64094e-76
3.8357e-74
1.46651e-72
4.95005e-71
1.50212e-69
4.15598e-68
1.05911e-66
2.50639e-65
5.5481e-64
1.14801e-62
4.03984e-61
1.65997e-58
8.32823e-57
2.19838e-55
4.70657e-54
8.93069e-53
1.55998e-51
2.56308e-50
4.0198e-49
6.08727e-48
8.97449e-47
1.288e-45
1.827e-44
2.32388e-42
2.56161e-41
1.48573e-43
1.31092e-43
2.79929e-45
4.17905e-46
1.28488e-47
3.19526e-49
7.57881e-51
1.73307e-52
3.92396e-54
8.88069e-56
2.01585e-57
4.57527e-59
1.02757e-60
2.29827e-62
4.97019e-64
9.46343e-66
1.55546e-90
-1.16555e-85
-9.83655e-84
-5.57388e-82
-2.40861e-80
-8.43979e-79
-2.46198e-77
-5.95272e-76
-1.12332e-74
-1.21786e-73
1.89881e-72
1.71978e-70
6.88379e-69
-2.38504e-68
2.75395e-65
2.33901e-62
1.27716e-60
3.61895e-59
8.31432e-58
1.69534e-56
3.18796e-55
5.64867e-54
9.56895e-53
1.5671e-51
2.50063e-50
3.8831e-49
5.98793e-48
9.06031e-46
1.081e-44
5.73748e-46
1.8992e-46
8.47727e-48
2.22074e-48
1.09789e-49
3.48143e-51
9.65601e-53
2.49677e-54
6.23516e-56
1.52908e-57
3.71297e-59
8.95475e-61
2.14206e-62
5.16946e-64
1.2263e-65
2.378e-67
4.86912e-96
3.93674e-92
4.22851e-90
3.59237e-88
2.23455e-86
1.10617e-84
4.62146e-83
1.70266e-81
5.71046e-80
1.78291e-78
5.26442e-77
1.47979e-75
3.96295e-74
8.44044e-73
3.70547e-70
4.56745e-67
2.99086e-65
9.25387e-64
2.29899e-62
5.05896e-61
1.0266e-59
1.96414e-58
3.59534e-57
6.36609e-56
1.10022e-54
1.86904e-53
3.12129e-52
5.12173e-51
8.95787e-49
1.23348e-47
1.0831e-50
9.51333e-50
5.28071e-52
6.83895e-52
3.0577e-53
1.01029e-54
3.03649e-56
8.52344e-58
2.29836e-59
6.03625e-61
1.5541e-62
3.92767e-64
9.92736e-66
2.4497e-67
5.47405e-69
2.67433e-100
4.94975e-96
6.09764e-94
5.16537e-92
3.38295e-90
1.82746e-88
8.47834e-87
3.4713e-85
1.27858e-83
4.29728e-82
1.33245e-80
3.84533e-79
1.04055e-77
2.55013e-76
7.20819e-75
2.44216e-72
2.27013e-70
7.83435e-69
2.12541e-67
5.07825e-66
1.1169e-64
2.31495e-63
4.59041e-62
8.80539e-61
1.6485e-59
3.03504e-58
5.52951e-57
9.97673e-56
1.76599e-54
3.58761e-52
5.55991e-51
5.19151e-53
3.60415e-53
8.52926e-55
1.93705e-55
8.69122e-57
3.07619e-58
9.93486e-60
2.99408e-61
8.61593e-63
2.3942e-64
6.45243e-66
1.72181e-67
4.44733e-69
1.08353e-70
9.6824e-106
1.3573e-101
1.95069e-99
1.86431e-97
1.33445e-95
7.72623e-94
3.80799e-92
1.65405e-90
6.48467e-89
2.33393e-87
7.80996e-86
2.45427e-84
7.30311e-83
1.83979e-81
6.33035e-80
1.18524e-76
3.03721e-74
1.20922e-72
3.6301e-71
9.49023e-70
2.27427e-68
5.12693e-67
1.10481e-65
2.30191e-64
4.6789e-63
9.3477e-62
1.8468e-60
3.60976e-59
6.92842e-58
1.66992e-55
2.81512e-54
4.27935e-57
4.4799e-56
-8.46191e-58
8.21409e-58
5.73775e-59
2.57482e-60
9.78817e-62
3.35967e-63
1.07487e-64
3.26169e-66
9.4656e-68
2.68896e-69
7.32297e-71
1.86436e-72
1.5276e-111
3.29816e-107
4.00633e-105
3.73807e-103
2.65691e-101
1.54273e-99
7.69759e-98
3.42598e-96
1.39716e-94
5.32201e-93
1.91987e-91
6.62404e-90
2.20048e-88
6.63298e-87
2.1411e-85
2.37823e-82
2.57028e-79
1.26198e-77
4.26576e-76
1.231e-74
3.23205e-73
7.95521e-72
1.8683e-70
4.23757e-69
9.3684e-68
2.03405e-66
4.36536e-65
9.31136e-64
1.97621e-62
4.11776e-61
1.15914e-58
2.18668e-57
1.80532e-60
2.17272e-59
7.19707e-61
2.68168e-61
1.75003e-62
8.05385e-64
3.22413e-65
1.16642e-66
3.91621e-68
1.23697e-69
3.77453e-71
1.09219e-72
2.92533e-74
6.04468e-116
1.74214e-111
2.65755e-109
2.78331e-107
2.25475e-105
1.50833e-103
8.6779e-102
4.41292e-100
2.02232e-98
8.47287e-97
3.28176e-95
1.18571e-93
4.02626e-92
1.24224e-90
3.95736e-89
1.55708e-87
8.1815e-85
5.78201e-83
2.26428e-81
7.30565e-80
2.11788e-78
5.72285e-77
1.471e-75
3.64479e-74
8.79076e-73
2.07989e-71
4.85898e-70
1.12725e-68
2.60981e-67
6.03903e-66
1.37436e-64
4.5398e-62
9.56579e-61
1.29731e-62
8.82005e-63
4.74896e-64
8.67816e-65
5.4941e-66
2.62217e-67
1.09499e-68
4.12953e-70
1.43654e-71
4.75466e-73
1.4739e-74
4.18279e-76
1.01669e-121
2.99698e-117
5.00844e-115
5.68211e-113
4.91053e-111
3.47254e-109
2.10733e-107
1.13357e-105
5.52686e-104
2.48128e-102
1.03788e-100
4.0824e-99
1.52163e-97
5.07236e-96
1.85485e-94
9.29304e-93
2.86901e-89
6.31843e-87
3.03878e-85
1.1198e-83
3.62621e-82
1.08413e-80
3.06789e-79
8.34399e-78
2.20461e-76
5.70535e-75
1.45596e-73
3.68501e-72
9.29615e-71
2.34093e-69
5.79963e-68
2.29617e-65
5.27079e-64
6.58138e-66
1.03374e-65
7.34555e-67
2.90323e-67
2.94164e-68
1.79153e-69
8.83822e-71
3.8097e-72
1.47913e-73
5.36695e-75
1.79815e-76
5.44789e-78
9.91519e-127
4.7038e-122
7.93387e-120
9.34608e-118
8.59892e-116
6.58459e-114
4.36436e-112
2.57026e-110
1.37001e-108
6.70053e-107
3.03913e-105
1.28942e-103
5.15474e-102
1.95401e-100
7.03909e-99
2.44214e-97
1.98726e-95
2.39483e-92
1.67785e-90
7.33558e-89
2.70033e-87
9.02722e-86
2.8335e-84
8.50879e-83
2.47485e-81
7.03545e-80
1.96884e-78
5.45643e-77
1.50538e-75
4.15333e-74
1.14801e-72
3.12916e-71
1.47009e-68
3.77386e-67
2.19363e-69
5.67617e-69
5.48106e-70
1.13133e-70
1.01186e-71
6.08745e-73
3.06204e-74
1.34718e-75
5.42196e-77
1.98219e-78
6.4629e-80
2.75257e-132
-1.25948e-127
-1.63529e-125
-1.27004e-123
-5.63196e-122
2.56571e-121
3.19553e-118
3.70775e-116
3.00171e-114
2.01013e-112
1.18293e-110
6.30637e-109
3.10202e-107
1.42447e-105
3.55528e-104
2.56291e-102
9.95816e-101
1.3854e-97
4.80834e-95
2.73059e-93
1.1801e-91
4.48787e-90
1.58035e-88
5.28471e-87
1.704e-85
5.3538e-84
1.65215e-82
5.03987e-81
1.52805e-79
4.62673e-78
1.40446e-76
4.18703e-75
2.57657e-73
3.069e-71
1.69585e-70
4.41115e-72
2.73754e-72
2.25035e-73
4.29252e-74
3.54903e-75
2.13389e-76
1.08279e-77
4.8976e-79
1.974e-80
6.98555e-82
1.93005e-138
8.8333e-134
1.76931e-131
2.51227e-129
2.75782e-127
2.50531e-125
1.96919e-123
1.38026e-121
8.80785e-120
5.19241e-118
2.85885e-116
1.48272e-114
7.2951e-113
3.42466e-111
1.44918e-109
6.72531e-108
2.7707e-106
7.4836e-104
2.41682e-100
2.6713e-98
1.45864e-96
6.50945e-95
2.61801e-93
9.86988e-92
3.56168e-90
1.24661e-88
4.2717e-87
1.44343e-85
4.83812e-84
1.61669e-82
5.40933e-81
1.81621e-79
6.03214e-78
4.1668e-75
1.31741e-73
3.14167e-75
3.5963e-75
6.99163e-76
1.31958e-76
1.69321e-77
1.28307e-78
7.66298e-80
3.95295e-81
1.77639e-82
6.88477e-84
2.70371e-143
1.87867e-138
4.08016e-136
6.23821e-134
7.51577e-132
7.58074e-130
6.64515e-128
5.19108e-126
3.67905e-124
2.39738e-122
1.4514e-120
8.23295e-119
4.40676e-117
2.23945e-115
1.08639e-113
4.98036e-112
2.26701e-110
9.81545e-109
5.42392e-107
4.69932e-104
4.32764e-102
2.43535e-100
1.15678e-98
5.01771e-97
2.05613e-95
8.10969e-94
3.11604e-92
1.17654e-90
4.39479e-89
1.63306e-87
6.06544e-86
2.26109e-84
8.47996e-83
3.15548e-81
2.663e-78
9.52774e-77
2.13043e-78
2.28871e-78
3.9689e-79
6.14451e-80
6.60053e-81
4.76442e-82
2.84993e-83
1.44562e-84
6.19553e-86
5.37943e-147
3.7349e-145
1.09735e-142
2.14369e-140
3.12295e-138
3.695e-136
3.74222e-134
3.35616e-132
2.72625e-130
2.03762e-128
1.41746e-126
9.25941e-125
5.72083e-123
3.36297e-121
1.88754e-119
8.91257e-118
5.38556e-116
2.65309e-114
1.27424e-112
5.50431e-110
1.84077e-106
1.75657e-104
1.07041e-102
5.56031e-101
2.65231e-99
1.20016e-97
5.24529e-96
2.24016e-94
9.42763e-93
3.93522e-91
1.63795e-89
6.82922e-88
2.85971e-86
1.18858e-84
1.19209e-81
4.66714e-80
1.81421e-80
2.63433e-81
1.2062e-81
1.5304e-82
2.71547e-83
2.59448e-84
1.83573e-85
1.06536e-86
5.10082e-88
2.11881e-147
5.27804e-147
8.6114e-147
3.90634e-145
5.63719e-143
6.94979e-141
7.48423e-139
7.21758e-137
6.34365e-135
5.14777e-133
3.89551e-131
2.77108e-129
1.86538e-127
1.19512e-125
7.3245e-124
4.31385e-122
2.44786e-120
1.35033e-118
7.21925e-117
3.77737e-115
2.38353e-113
2.55355e-110
3.00437e-108
2.08261e-106
1.21747e-104
6.5228e-103
3.31671e-101
1.63117e-99
7.85281e-98
3.73237e-96
1.76287e-94
8.31843e-93
3.93917e-91
1.87743e-89
8.90747e-88
1.20046e-84
5.48957e-83
1.86767e-84
2.22851e-84
5.8209e-85
9.25482e-86
1.22726e-86
1.05739e-87
7.12561e-89
3.85294e-90
3.23119e-152
1.59715e-149
1.97084e-147
5.08911e-147
5.39838e-147
2.70485e-147
-1.71779e-145
-4.33383e-144
8.4403e-142
1.82536e-139
2.39312e-137
2.55769e-135
2.4104e-133
2.0728e-131
1.65773e-129
1.24818e-127
8.93147e-126
3.73749e-124
4.06345e-122
2.45101e-120
1.44893e-118
1.1987e-116
4.28039e-113
9.59795e-111
8.15645e-109
5.57632e-107
3.44735e-105
2.01335e-103
1.13574e-101
6.27212e-100
3.4224e-98
1.85791e-96
1.00899e-94
5.50227e-93
2.98549e-91
2.52756e-88
1.92022e-86
2.87484e-86
2.60685e-87
1.60791e-87
2.56993e-88
4.82268e-89
5.44878e-90
4.33899e-91
2.68013e-92
1.90695e-158
1.06338e-155
3.12141e-153
6.45611e-151
1.02819e-148
3.11241e-147
5.20892e-147
5.65502e-147
2.33608e-146
1.98728e-144
1.97858e-142
1.86681e-140
1.67569e-138
1.43768e-136
1.18392e-134
9.39361e-133
7.20717e-131
5.36522e-129
3.86138e-127
2.75198e-125
1.90031e-123
1.29742e-121
8.69562e-120
1.05829e-117
3.39494e-114
4.27288e-112
3.64652e-110
2.70606e-108
1.87027e-106
1.24107e-104
8.04208e-103
5.14479e-101
3.27484e-99
2.08671e-97
1.32654e-95
8.59203e-94
7.61583e-91
4.06051e-89
9.83584e-90
2.8188e-90
9.78041e-91
1.67072e-91
2.49557e-92
2.41605e-93
1.72533e-94
1.46134e-164
9.26829e-162
3.06777e-159
7.12826e-157
1.31242e-154
2.04375e-152
2.79881e-150
3.16039e-148
3.73828e-147
5.27061e-147
5.67986e-147
3.03731e-146
3.04495e-144
3.33275e-142
3.47845e-140
3.47502e-138
3.33779e-136
3.09531e-134
2.78223e-132
2.11484e-130
2.08614e-128
1.71253e-126
1.38674e-124
1.10972e-122
8.80408e-121
1.41024e-118
4.31904e-115
5.4442e-113
5.21445e-111
4.46956e-109
3.61869e-107
2.8392e-105
2.19103e-103
1.67953e-101
1.28744e-99
9.82336e-98
1.26861e-94
1.64318e-92
3.00027e-92
7.42109e-93
2.50614e-93
5.45883e-94
1.01328e-94
1.2356e-95
1.03443e-96
6.16788e-171
4.62405e-168
1.74647e-165
4.57437e-163
9.495e-161
1.67729e-158
2.63024e-156
3.75929e-154
4.9813e-152
6.17906e-150
6.03418e-148
4.05763e-147
5.2741e-147
4.96122e-147
7.08651e-147
5.72486e-145
7.70297e-143
9.7562e-141
1.17719e-138
1.35909e-136
1.24226e-134
1.66231e-132
1.71667e-130
1.74102e-128
1.76328e-126
1.76231e-124
1.7537e-122
3.68949e-119
8.34531e-116
1.27149e-113
1.48439e-111
1.55956e-109
1.55538e-107
1.51026e-105
1.44888e-103
1.37355e-101
1.64513e-99
1.52857e-96
4.08284e-95
2.03137e-95
4.96444e-96
1.82483e-96
3.88205e-97
5.83662e-98
5.82321e-99
8.86003e-179
8.80545e-176
3.9421e-173
1.17867e-170
2.78864e-168
5.67669e-166
1.04047e-163
1.76305e-161
2.8061e-159
4.23578e-157
6.10032e-155
8.41506e-153
1.11469e-150
1.36901e-148
3.19602e-147
5.10094e-147
5.33354e-147
1.30151e-146
1.39794e-144
2.13759e-142
3.17521e-140
4.5972e-138
6.02141e-136
9.09555e-134
1.24076e-131
1.6821e-129
2.27475e-127
3.07088e-125
4.15246e-123
6.98099e-121
3.08559e-117
6.86529e-115
1.0742e-112
1.48792e-110
1.94834e-108
2.48237e-106
3.11063e-104
1.24579e-100
2.35452e-98
3.93302e-98
2.6323e-98
5.35368e-99
1.45215e-99
2.6133e-100
3.11019e-101
6.94425e-187
1.14068e-183
6.72662e-181
2.38967e-178
6.74033e-176
1.66611e-173
3.7802e-171
8.0752e-169
1.64732e-166
3.23304e-164
6.12588e-162
1.12221e-159
1.98887e-157
3.41207e-155
5.67149e-153
9.14338e-151
1.37828e-148
3.31625e-147
5.11159e-147
5.15226e-147
5.98503e-148
-1.38792e-145
3.29716e-143
1.10095e-140
9.07906e-139
1.16508e-135
2.53478e-133
5.50677e-131
1.19569e-128
2.60426e-126
5.70465e-124
1.40237e-121
1.10717e-117
5.7651e-115
1.40656e-112
2.86268e-110
5.3666e-108
3.6121e-105
5.16064e-102
5.66619e-101
5.59595e-101
2.74028e-101
7.09742e-102
1.48791e-102
2.02727e-103
3.9236e-197
5.48828e-194
2.71439e-191
1.11322e-188
4.13328e-186
1.42022e-183
4.62299e-181
1.45119e-178
4.43813e-176
1.32803e-173
3.8897e-171
1.11338e-168
3.10803e-166
8.44711e-164
2.23328e-161
5.74405e-159
1.4385e-156
3.51295e-154
8.38163e-152
1.94793e-149
2.0143e-147
4.82489e-147
5.19514e-147
2.87006e-147
-9.11791e-146
-5.05408e-143
-3.46142e-141
-1.54309e-139
3.7669e-139
1.56174e-134
1.77786e-131
1.21865e-128
8.22126e-126
5.54964e-123
7.9929e-120
5.13156e-115
2.68322e-112
1.11964e-109
5.12917e-106
4.5624e-104
9.33013e-104
1.03311e-103
3.78067e-104
9.25502e-105
1.41096e-105
4.5628e-216
5.38565e-214
1.67719e-211
1.0335e-208
8.23097e-206
7.05074e-203
6.14942e-200
5.37337e-197
4.6849e-194
4.06544e-191
3.49736e-188
2.96752e-185
2.47124e-182
2.01192e-179
1.59745e-176
1.23579e-173
9.31649e-171
6.85216e-168
4.92499e-165
3.46647e-162
2.39488e-159
1.62807e-156
1.09186e-153
7.24112e-151
4.18969e-148
3.97773e-147
7.87587e-149
-2.32982e-147
-1.67589e-143
-1.51707e-143
-1.0602e-140
-8.70848e-138
-7.25365e-136
-4.2144e-133
-2.42013e-130
-1.36673e-127
-7.50425e-125
1.33116e-116
1.41723e-110
1.87115e-107
3.4518e-106
1.63105e-104
5.63663e-105
8.87548e-106
9.07779e-107
)
;

boundaryField
{
    leftWall
    {
        type            zeroGradient;
    }
    rightWall
    {
        type            zeroGradient;
    }
    lowerWall
    {
        type            zeroGradient;
    }
    atmosphere
    {
        type            inletOutlet;
        inletValue      uniform 0;
        value           nonuniform List<scalar> 
45
(
0
0
0
0
0
0
0
0
0
0
0
0
0
0
0
0
0
0
0
0
0
0
0
0
0
0
0
0
0
0
0
0
0
0
0
0
0
0
0
1.87115e-107
3.4518e-106
1.63105e-104
5.63663e-105
8.87548e-106
9.07779e-107
)
;
    }
    defaultFaces
    {
        type            empty;
    }
    procBoundary2to0
    {
        type            processor;
        value           nonuniform List<scalar> 
46
(
1
1
1
0.128465
2.10633e-05
7.81475e-07
1.6516e-08
2.98729e-10
5.08565e-12
1.508e-13
4.43611e-14
1.03335e-15
1.8161e-17
3.55085e-19
7.23103e-21
1.55885e-22
3.58178e-24
8.76672e-26
2.27538e-27
6.2229e-29
1.78075e-30
5.29432e-32
1.62395e-33
5.1032e-35
1.63113e-36
1
0.999999
0.999999
1
1
1
1
1
1
1
1
1
1
1
1
1
1
1
1
1
1
)
;
    }
    procBoundary2to3
    {
        type            processor;
        value           nonuniform List<scalar> 
43
(
1.24242e-39
2.50045e-40
2.39919e-41
1.39346e-42
8.69953e-44
5.33998e-45
3.14174e-46
1.76964e-47
9.50169e-49
4.84039e-50
2.3277e-51
1.05087e-52
4.4267e-54
1.7275e-55
6.18653e-57
2.01892e-58
6.81385e-60
2.46351e-61
8.32303e-63
2.62288e-64
7.69325e-66
2.09624e-67
5.29787e-69
1.16485e-70
2.26551e-72
4.04631e-74
6.63005e-76
9.96202e-78
1.37247e-79
1.73417e-81
2.01093e-83
2.14241e-85
2.10056e-87
1.89975e-89
1.5897e-91
1.23565e-93
8.96593e-96
6.11062e-98
3.9414e-100
2.43205e-102
1.94262e-104
1.47664e-106
8.02134e-108
)
;
    }
}


// ************************************************************************* //
