/*--------------------------------*- C++ -*----------------------------------*\
| =========                 |                                                 |
| \\      /  F ield         | OpenFOAM: The Open Source CFD Toolbox           |
|  \\    /   O peration     | Version:  5.0                                   |
|   \\  /    A nd           | Web:      www.OpenFOAM.org                      |
|    \\/     M anipulation  |                                                 |
\*---------------------------------------------------------------------------*/
FoamFile
{
    version     2.0;
    format      ascii;
    class       volScalarField;
    location    "0.05";
    object      k;
}
// * * * * * * * * * * * * * * * * * * * * * * * * * * * * * * * * * * * * * //

dimensions      [0 2 -2 0 0 0 0];

internalField   nonuniform List<scalar> 
1915
(
0.101837
0.105519
0.11111
0.119404
0.13132
0.139353
0.131782
0.121095
0.112129
0.105923
0.102024
0.0996854
0.0983014
0.0974733
0.0969637
0.0966365
0.0964152
0.0962569
0.0961372
0.0960423
0.0959645
0.095899
0.095843
0.0957938
0.0957488
0.0380761
0.0695948
0.081772
0.0874991
0.0905202
0.0922475
0.093307
0.0940002
0.0944797
0.0948268
0.0950886
0.0952971
0.0954788
0.0956601
0.0958722
0.0961571
0.0965751
0.0972182
0.0982264
0.0998118
0.102288
0.106103
0.111877
0.120428
0.132701
0.140803
0.132714
0.12158
0.112389
0.106117
0.102218
0.0998885
0.0985002
0.0976542
0.0971189
0.096764
0.0965166
0.0963354
0.0961967
0.0960864
0.0959963
0.0959212
0.0958575
0.0958025
0.095753
0.0380814
0.0695833
0.081765
0.0874984
0.0905271
0.0922627
0.093331
0.0940337
0.0945238
0.094883
0.0951592
0.0953852
0.0955884
0.0957965
0.096042
0.0963678
0.0968362
0.0975404
0.0986227
0.100298
0.102883
0.106837
0.112793
0.121598
0.134231
0.142334
0.133572
0.121936
0.112563
0.106297
0.102449
0.100147
0.0987528
0.0978795
0.0973075
0.096915
0.0966338
0.0964242
0.0962626
0.0961343
0.0960302
0.0959443
0.0958725
0.0958112
0.0957569
0.0381046
0.0695765
0.081753
0.0874909
0.0905317
0.0922828
0.0933678
0.0940876
0.0945955
0.0949741
0.0952729
0.095526
0.0957625
0.0960114
0.0963067
0.096693
0.0972336
0.0980224
0.0992017
0.100986
0.103693
0.107781
0.113899
0.122915
0.135848
0.143678
0.134053
0.121956
0.112569
0.106448
0.102722
0.100469
0.0990658
0.0981524
0.0975299
0.0970885
0.0967652
0.0965214
0.096333
0.0961843
0.0960648
0.0959675
0.095887
0.0958193
0.0957602
0.0381914
0.0695689
0.0817398
0.0874826
0.0905394
0.0923146
0.0934261
0.0941726
0.0947079
0.0951163
0.0954496
0.0957442
0.0960313
0.096342
0.0967123
0.0971884
0.0978343
0.0987434
0.100055
0.101978
0.104822
0.109038
0.115269
0.124399
0.137462
0.144276
0.133619
0.121373
0.112316
0.106556
0.103044
0.100862
0.0994416
0.0984708
0.0977819
0.0972797
0.0969061
0.0966231
0.096405
0.0962342
0.0960984
0.0959892
0.0959
0.0958259
0.0957621
0.0382403
0.0694867
0.0817015
0.0874663
0.0905563
0.0923707
0.0935214
0.0943058
0.09488
0.0953321
0.0957169
0.0960741
0.0964376
0.0968411
0.0973232
0.0979322
0.0987329
0.0998164
0.101315
0.103426
0.106438
0.110774
0.117045
0.126124
0.139074
0.143502
0.131777
0.120002
0.111789
0.106647
0.103434
0.101328
0.0998704
0.0988216
0.0980509
0.097478
0.0970484
0.0967231
0.0964739
0.0962806
0.0961288
0.0960079
0.0959103
0.0958302
0.0957622
0.0381274
0.0692474
0.0816519
0.0874705
0.0906148
0.0924828
0.0936817
0.0945124
0.0951377
0.095651
0.0961115
0.0965618
0.0970384
0.0975786
0.0982244
0.0990274
0.100054
0.101391
0.10316
0.105537
0.108778
0.113255
0.119483
0.128222
0.140662
0.141412
0.128569
0.118042
0.111158
0.106801
0.103902
0.101844
0.100321
0.0991754
0.0983134
0.0976659
0.0971797
0.0968129
0.0965341
0.0963198
0.0961531
0.0960218
0.0959168
0.0958315
0.0957598
0.039062
0.069145
0.0818244
0.0876432
0.0908185
0.0927216
0.0939522
0.0948227
0.0955066
0.0961036
0.0966738
0.0972606
0.0979025
0.0986401
0.0995208
0.100601
0.101951
0.103653
0.105815
0.108581
0.112165
0.116885
0.123075
0.130976
0.14102
0.136709
0.124376
0.116043
0.110706
0.107081
0.104409
0.102343
0.100731
0.0994845
0.0985355
0.0978206
0.0972847
0.0968826
0.096579
0.0963474
0.0961687
0.096029
0.0959183
0.0958289
0.0957545
0.0417824
0.0712803
0.0823973
0.0880146
0.0911804
0.093083
0.0943112
0.0952087
0.0959665
0.0966855
0.0974204
0.0982095
0.0990907
0.100109
0.101318
0.102786
0.104588
0.106809
0.109536
0.112863
0.116959
0.122191
0.128852
0.13573
0.136683
0.12807
0.120108
0.114557
0.110536
0.107393
0.104819
0.102709
0.101015
0.0996906
0.0986791
0.0979176
0.0973482
0.0969225
0.0966025
0.0963596
0.0961732
0.0960282
0.0959137
0.0958218
0.0957459
0.043394
0.0720142
0.0824771
0.0880263
0.0912509
0.0931817
0.0944316
0.0953748
0.0962141
0.0970478
0.0979254
0.0988819
0.0999551
0.101194
0.102661
0.104429
0.106581
0.109195
0.112314
0.115873
0.119693
0.12362
0.127662
0.129355
0.126281
0.121743
0.117387
0.113628
0.110347
0.107449
0.104928
0.102807
0.10109
0.0997431
0.0987134
0.0979381
0.0973586
0.0969256
0.0966004
0.0963539
0.0961649
0.0960181
0.0959026
0.0958099
0.0957337
0.040913
0.0709905
0.0823236
0.0880811
0.0914397
0.0934606
0.0947392
0.0956479
0.0964033
0.0971223
0.0978699
0.0986905
0.0996259
0.100723
0.102039
0.103636
0.105578
0.107916
0.110652
0.113677
0.116709
0.119343
0.121147
0.121649
0.120467
0.118229
0.115467
0.112556
0.109684
0.106994
0.104599
0.102568
0.100917
0.0996208
0.0986265
0.0978755
0.0973121
0.0968896
0.0965712
0.0963293
0.0961433
0.0959988
0.0958847
0.0957933
0.0957181
0.0404742
0.070664
0.0823594
0.0880688
0.0913251
0.0933332
0.0946392
0.095555
0.0962717
0.0969067
0.0975342
0.0982078
0.098973
0.099876
0.100965
0.102292
0.103903
0.105827
0.10805
0.110477
0.112892
0.114978
0.116427
0.117024
0.116607
0.115271
0.113255
0.110869
0.108379
0.105989
0.103841
0.102012
0.100519
0.0993398
0.0984295
0.0977367
0.097213
0.0968172
0.0965168
0.096287
0.0961094
0.0959706
0.0958606
0.0957721
0.0956993
0.0403328
0.0707315
0.0825192
0.0881515
0.0913018
0.0932506
0.0945369
0.0954398
0.0961262
0.096704
0.0972471
0.0978106
0.0984406
0.0991801
0.100071
0.101155
0.102465
0.104019
0.105799
0.107732
0.109665
0.111375
0.112624
0.113225
0.113051
0.112116
0.110564
0.108642
0.106587
0.104591
0.102784
0.101234
0.0999598
0.0989435
0.0981505
0.0975399
0.0970728
0.0967158
0.0964418
0.0962301
0.096065
0.0959349
0.0958311
0.0957471
0.0956777
0.0401786
0.0708101
0.0826624
0.0882683
0.0913483
0.0932329
0.0944764
0.095349
0.0960041
0.0965394
0.0970233
0.0975078
0.0980361
0.0986464
0.0993737
0.10025
0.101298
0.102528
0.103921
0.105417
0.106904
0.108222
0.109194
0.109666
0.109548
0.108852
0.107676
0.106197
0.104598
0.10303
0.101597
0.100356
0.099322
0.0984866
0.0978251
0.097308
0.0969064
0.0965948
0.0963524
0.0961626
0.0960128
0.0958936
0.0957975
0.0957192
0.0956542
0.0399882
0.0708047
0.0827209
0.0883428
0.0913949
0.0932344
0.0944353
0.0952719
0.0958931
0.0963902
0.0968259
0.0972474
0.0976929
0.0981948
0.0987814
0.0994757
0.100293
0.101235
0.102284
0.103391
0.104474
0.10542
0.106106
0.106424
0.106319
0.105802
0.104944
0.103861
0.102682
0.101513
0.100432
0.0994825
0.0986794
0.0980192
0.097487
0.0970635
0.0967285
0.0964641
0.096255
0.0960888
0.0959558
0.0958485
0.0957612
0.0956893
0.0956292
0.0397845
0.0707436
0.0827056
0.0883559
0.091407
0.0932243
0.0943946
0.0951994
0.095788
0.0962491
0.0966415
0.0970078
0.0973815
0.0977895
0.0982535
0.0987899
0.0994075
0.100104
0.100863
0.101646
0.102396
0.103036
0.103486
0.103679
0.103582
0.103206
0.102604
0.101844
0.10101
0.100174
0.0993894
0.0986884
0.0980846
0.0975786
0.0971624
0.0968244
0.0965517
0.0963323
0.0961556
0.0960128
0.0958967
0.0958018
0.0957236
0.0956584
0.0956036
0.0395815
0.0706575
0.0826465
0.0883212
0.0913821
0.0931924
0.0943446
0.0951254
0.0956861
0.0961149
0.0964683
0.0967859
0.0970971
0.0974243
0.0977845
0.0981888
0.0986422
0.0991409
0.0996705
0.100204
0.100702
0.101116
0.101396
0.101503
0.101419
0.101154
0.100741
0.100223
0.0996501
0.0990686
0.0985141
0.0980095
0.0975661
0.0971866
0.0968677
0.096603
0.0963849
0.0962059
0.0960588
0.0959379
0.095838
0.0957551
0.0956858
0.0956275
0.095578
0.0393865
0.0705637
0.0825658
0.0882564
0.0913282
0.0931388
0.0942816
0.0950456
0.0955841
0.0959856
0.0963054
0.096581
0.0968392
0.0970993
0.0973748
0.0976739
0.0979993
0.0983474
0.0987073
0.0990605
0.0993814
0.0996403
0.0998079
0.0998622
0.099794
0.0996098
0.0993298
0.0989825
0.0985955
0.0981975
0.0978117
0.0974538
0.0971328
0.0968519
0.0966106
0.0964058
0.0962334
0.0960889
0.0959679
0.0958666
0.0957815
0.0957098
0.095649
0.0955973
0.095553
0.0392012
0.070469
0.0824757
0.0881749
0.091255
0.0930682
0.0942064
0.0949591
0.0954808
0.0958602
0.0961522
0.0963933
0.0966083
0.0968148
0.0970241
0.097243
0.0974733
0.0977124
0.0979527
0.0981822
0.0983851
0.0985435
0.0986407
0.0986648
0.0986111
0.0984839
0.0982954
0.0980626
0.0978023
0.0975314
0.0972644
0.097012
0.0967808
0.0965741
0.0963925
0.096235
0.0960996
0.0959837
0.0958848
0.0958005
0.0957285
0.0956668
0.095614
0.0955684
0.095529
0.0390234
0.0703756
0.0823828
0.0880854
0.0911706
0.0929865
0.0941224
0.0948678
0.0953771
0.0957395
0.0960096
0.0962232
0.0964045
0.0965696
0.0967292
0.096889
0.0970512
0.0972143
0.0973735
0.0975213
0.0976481
0.0977437
0.0977986
0.0978063
0.0977647
0.0976764
0.0975487
0.0973915
0.0972156
0.0970304
0.096845
0.0966665
0.0964997
0.0963474
0.0962108
0.0960898
0.0959835
0.0958908
0.0958102
0.0957403
0.0956796
0.095627
0.0955811
0.0955412
0.0955063
0.0388499
0.0702836
0.0822903
0.0879932
0.0910813
0.0928992
0.0940341
0.0947747
0.0952752
0.0956249
0.0958783
0.0960709
0.0962265
0.0963608
0.0964838
0.0966015
0.0967162
0.0968276
0.0969331
0.0970282
0.0971073
0.0971644
0.0971945
0.097194
0.0971619
0.0970999
0.0970122
0.0969047
0.0967839
0.0966559
0.0965259
0.0963985
0.0962773
0.0961644
0.0960611
0.0959677
0.0958842
0.09581
0.0957443
0.0956864
0.0956354
0.0955905
0.0955509
0.095516
0.0954853
0.0386797
0.0701931
0.0821995
0.0879013
0.0909908
0.0928101
0.0939449
0.0946825
0.0951771
0.0955175
0.0957586
0.0959355
0.0960721
0.0961838
0.0962807
0.0963688
0.0964511
0.096528
0.0965986
0.0966602
0.0967097
0.0967438
0.0967596
0.0967553
0.0967304
0.0966861
0.0966248
0.0965499
0.0964655
0.0963754
0.0962828
0.0961908
0.0961016
0.0960171
0.0959384
0.0958659
0.0958
0.0957403
0.0956867
0.0956387
0.0955958
0.0955575
0.0955233
0.0954929
0.0954659
0.0385149
0.0701047
0.082111
0.0878112
0.0909013
0.0927221
0.0938573
0.0945933
0.0950839
0.0954179
0.0956501
0.0958157
0.0959385
0.096034
0.0961126
0.0961803
0.0962407
0.0962949
0.0963429
0.0963834
0.0964148
0.0964352
0.096443
0.0964374
0.096418
0.0963857
0.0963419
0.0962887
0.0962285
0.0961637
0.0960967
0.0960291
0.0959626
0.0958986
0.0958379
0.0957812
0.0957288
0.0956806
0.0956367
0.0955968
0.0955606
0.0955279
0.0954984
0.0954719
0.0954483
0.0383574
0.0700192
0.0820258
0.0877245
0.0908149
0.0926371
0.0937731
0.0945085
0.0949968
0.0953265
0.0955525
0.0957101
0.0958232
0.0959074
0.0959732
0.0960271
0.0960728
0.0961121
0.0961456
0.0961729
0.0961931
0.0962055
0.096209
0.0962033
0.0961882
0.0961642
0.0961323
0.0960937
0.0960498
0.0960024
0.0959528
0.0959023
0.095852
0.0958029
0.0957556
0.0957108
0.0956688
0.0956296
0.0955934
0.0955601
0.0955295
0.0955016
0.0954761
0.095453
0.0954323
0.038207
0.0699372
0.0819448
0.0876423
0.0907332
0.0925567
0.0936937
0.0944293
0.0949163
0.0952433
0.0954652
0.0956174
0.0957238
0.0958002
0.0958573
0.0959018
0.0959377
0.0959673
0.0959915
0.0960105
0.096024
0.0960317
0.0960331
0.0960279
0.0960161
0.0959981
0.0959744
0.0959458
0.0959132
0.0958778
0.0958404
0.095802
0.0957634
0.0957251
0.0956879
0.0956522
0.0956182
0.0955862
0.0955562
0.0955282
0.0955023
0.0954783
0.0954563
0.0954361
0.0954179
0.0380627
0.0698585
0.0818686
0.0875655
0.0906569
0.0924816
0.0936199
0.0943561
0.0948427
0.0951683
0.0953876
0.0955363
0.0956382
0.0957093
0.0957605
0.0957986
0.0958281
0.0958514
0.0958697
0.0958835
0.095893
0.0958981
0.0958985
0.0958941
0.0958849
0.0958712
0.0958533
0.0958318
0.0958072
0.0957802
0.0957516
0.0957219
0.0956918
0.0956617
0.0956321
0.0956033
0.0955756
0.0955491
0.0955241
0.0955006
0.0954785
0.0954579
0.0954387
0.0954211
0.0954051
0.0379244
0.0697836
0.081797
0.0874939
0.0905859
0.0924119
0.0935517
0.0942889
0.0947758
0.095101
0.095319
0.0954655
0.0955644
0.0956321
0.0956794
0.0957133
0.0957386
0.0957577
0.0957723
0.095783
0.0957901
0.0957937
0.0957938
0.0957903
0.0957832
0.0957727
0.0957591
0.0957426
0.0957237
0.095703
0.0956807
0.0956575
0.0956337
0.0956097
0.0955858
0.0955623
0.0955396
0.0955176
0.0954966
0.0954766
0.0954577
0.0954399
0.0954232
0.0954078
0.0953937
0.0377935
0.0697127
0.0817301
0.0874273
0.09052
0.0923475
0.093489
0.0942277
0.0947156
0.0950409
0.0952584
0.0954038
0.095501
0.0955664
0.0956112
0.0956424
0.0956649
0.0956814
0.0956936
0.0957024
0.0957081
0.095711
0.0957112
0.0957085
0.0957031
0.0956951
0.0956846
0.0956719
0.0956573
0.0956411
0.0956235
0.0956051
0.0955861
0.0955667
0.0955473
0.095528
0.0955091
0.0954907
0.095473
0.0954559
0.0954397
0.0954242
0.0954096
0.095396
0.0953836
0.0376715
0.0696467
0.0816681
0.0873656
0.0904593
0.0922885
0.093432
0.0941725
0.0946617
0.0949877
0.0952053
0.0953502
0.0954464
0.0955105
0.0955537
0.0955832
0.0956039
0.0956187
0.0956295
0.0956371
0.0956421
0.0956448
0.0956451
0.0956433
0.0956393
0.0956332
0.0956252
0.0956153
0.0956038
0.095591
0.0955771
0.0955623
0.0955469
0.0955311
0.0955151
0.0954991
0.0954833
0.0954678
0.0954527
0.0954381
0.095424
0.0954105
0.0953977
0.0953857
0.0953747
0.0375588
0.0695858
0.0816109
0.0873091
0.0904039
0.0922351
0.0933807
0.0941231
0.0946138
0.0949408
0.0951588
0.0953037
0.0953995
0.0954629
0.0955051
0.0955335
0.0955532
0.095567
0.0955769
0.0955839
0.0955885
0.0955912
0.0955919
0.0955908
0.095588
0.0955834
0.0955772
0.0955695
0.0955605
0.0955503
0.0955391
0.0955271
0.0955145
0.0955015
0.0954882
0.0954749
0.0954615
0.0954483
0.0954354
0.0954227
0.0954104
0.0953986
0.0953873
0.0953766
0.0953668
0.0374548
0.0695298
0.0815585
0.0872577
0.090354
0.0921871
0.0933348
0.0940792
0.0945715
0.0948997
0.0951185
0.0952636
0.0953594
0.0954225
0.0954641
0.095492
0.095511
0.0955243
0.0955337
0.0955403
0.0955449
0.0955476
0.0955488
0.0955483
0.0955464
0.0955431
0.0955383
0.0955323
0.0955252
0.095517
0.0955079
0.0954981
0.0954877
0.0954769
0.0954657
0.0954545
0.0954431
0.0954318
0.0954206
0.0954095
0.0953988
0.0953883
0.0953783
0.0953688
0.0953599
0.0373577
0.0694777
0.0815105
0.0872113
0.0903093
0.0921444
0.0932943
0.0940406
0.0945346
0.0948641
0.0950838
0.0952295
0.0953255
0.0953885
0.09543
0.0954576
0.0954763
0.0954892
0.0954984
0.0955049
0.0955095
0.0955124
0.0955139
0.0955141
0.0955129
0.0955105
0.0955069
0.0955023
0.0954966
0.0954899
0.0954825
0.0954744
0.0954657
0.0954566
0.0954472
0.0954375
0.0954277
0.0954179
0.0954081
0.0953984
0.0953889
0.0953796
0.0953706
0.095362
0.095354
0.0372654
0.0694286
0.0814666
0.0871697
0.0902699
0.0921073
0.0932594
0.0940077
0.0945034
0.0948343
0.095055
0.0952013
0.0952977
0.0953609
0.0954024
0.0954299
0.0954484
0.0954612
0.0954703
0.0954768
0.0954815
0.0954846
0.0954864
0.095487
0.0954864
0.0954848
0.0954821
0.0954785
0.0954739
0.0954685
0.0954623
0.0954555
0.0954482
0.0954404
0.0954323
0.0954239
0.0954154
0.0954067
0.095398
0.0953893
0.0953807
0.0953723
0.0953641
0.0953563
0.095349
0.0371766
0.0693819
0.0814266
0.0871332
0.0902362
0.0920762
0.0932307
0.0939813
0.0944788
0.0948111
0.0950329
0.09518
0.0952768
0.0953403
0.0953819
0.0954093
0.0954278
0.0954406
0.0954496
0.0954561
0.0954608
0.0954641
0.0954662
0.0954671
0.095467
0.095466
0.095464
0.0954611
0.0954573
0.0954528
0.0954477
0.0954419
0.0954355
0.0954288
0.0954216
0.0954141
0.0954064
0.0953985
0.0953906
0.0953826
0.0953746
0.0953667
0.095359
0.0953517
0.0953449
0.0370916
0.069338
0.0813912
0.0871029
0.0902098
0.0920533
0.0932108
0.0939638
0.0944633
0.0947971
0.09502
0.0951678
0.0952651
0.0953288
0.0953705
0.095398
0.0954164
0.0954291
0.095438
0.0954445
0.0954493
0.0954526
0.0954548
0.095456
0.0954563
0.0954556
0.0954541
0.0954518
0.0954487
0.0954448
0.0954403
0.0954352
0.0954295
0.0954233
0.0954167
0.0954097
0.0954023
0.0953947
0.0953869
0.095379
0.0953711
0.0953633
0.0953557
0.0953485
0.0953419
0.0370122
0.0692993
0.081364
0.0870833
0.0901962
0.0920444
0.0932057
0.0939616
0.0944631
0.0947983
0.095022
0.0951704
0.0952679
0.0953317
0.0953733
0.0954007
0.095419
0.0954315
0.0954403
0.0954467
0.0954514
0.0954547
0.095457
0.0954583
0.0954587
0.0954583
0.095457
0.095455
0.0954523
0.0954488
0.0954447
0.0954399
0.0954344
0.0954284
0.0954217
0.0954145
0.0954066
0.0953984
0.0953897
0.0953809
0.095372
0.0953634
0.0953551
0.0953473
0.0953403
0.0369413
0.0692727
0.0813556
0.0870876
0.0902097
0.0920644
0.09323
0.0939885
0.0944914
0.0948273
0.0950511
0.0951992
0.0952964
0.0953597
0.0954009
0.0954279
0.0954458
0.095458
0.0954665
0.0954726
0.0954771
0.0954802
0.0954824
0.0954836
0.095484
0.0954836
0.0954824
0.0954804
0.0954777
0.0954743
0.0954702
0.0954653
0.0954596
0.0954529
0.0954453
0.0954367
0.0954269
0.0954162
0.0954047
0.0953928
0.0953809
0.0953694
0.0953588
0.0953492
0.0953409
0.0368854
0.0692808
0.0813983
0.0871521
0.0902867
0.0921476
0.0933153
0.0940736
0.094575
0.0949087
0.0951303
0.0952764
0.0953718
0.0954337
0.0954737
0.0954997
0.0955168
0.0955283
0.0955362
0.0955418
0.0955458
0.0955485
0.0955503
0.0955512
0.0955513
0.0955506
0.0955492
0.095547
0.0955441
0.0955404
0.0955358
0.0955302
0.0955235
0.0955152
0.0955052
0.0954931
0.0954787
0.095462
0.0954434
0.0954238
0.0954043
0.0953861
0.0953699
0.095356
0.0953445
0.036871
0.0694053
0.0815922
0.0873742
0.0905141
0.0923692
0.0935265
0.0942731
0.0947636
0.0950879
0.0953017
0.0954417
0.0955325
0.095591
0.0956284
0.0956524
0.095668
0.0956783
0.0956852
0.0956899
0.095693
0.095695
0.0956961
0.0956964
0.0956959
0.0956946
0.0956927
0.0956899
0.0956864
0.095682
0.0956765
0.0956697
0.095661
0.0956498
0.0956353
0.0956165
0.0955925
0.0955629
0.0955285
0.0954914
0.0954548
0.0954215
0.0953932
0.0953704
0.0953527
0.0370476
0.0699536
0.0822376
0.0880005
0.0910841
0.0928785
0.0939822
0.0946852
0.0951416
0.0954401
0.095635
0.0957613
0.0958424
0.0958941
0.0959267
0.0959474
0.0959604
0.0959688
0.0959741
0.0959775
0.0959795
0.0959805
0.0959806
0.0959799
0.0959785
0.0959764
0.0959736
0.09597
0.0959656
0.0959602
0.0959535
0.0959449
0.0959336
0.0959183
0.0958969
0.095867
0.0958257
0.0957709
0.0957029
0.0956266
0.0955523
0.0954873
0.0954351
0.0953954
0.0953665
0.0383359
0.0720493
0.0841625
0.0895765
0.092356
0.0939237
0.0948661
0.095456
0.0958336
0.0960775
0.0962349
0.0963359
0.0963999
0.0964402
0.0964653
0.0964808
0.0964903
0.096496
0.0964994
0.0965012
0.0965018
0.0965015
0.0965004
0.0964987
0.0964963
0.0964933
0.0964896
0.0964852
0.09648
0.0964737
0.0964659
0.0964559
0.0964423
0.0964229
0.0963938
0.0963495
0.0962822
0.0961827
0.0960458
0.0958804
0.0957242
0.0955962
0.0955001
0.0954321
0.0953856
0.0459246
0.0790744
0.0890411
0.0929161
0.0947669
0.0957786
0.0963789
0.0967522
0.0969901
0.097143
0.0972411
0.0973037
0.097343
0.0973675
0.0973825
0.0973915
0.0973967
0.0973996
0.0974009
0.0974011
0.0974005
0.0973992
0.0973974
0.0973951
0.0973922
0.0973888
0.0973848
0.0973803
0.0973751
0.0973689
0.0973615
0.097352
0.0973388
0.0973192
0.0972877
0.0972345
0.0971421
0.0969816
0.0967138
0.0963219
0.0959899
0.0957477
0.0955828
0.0954749
0.095406
0.0856739
0.0958656
0.097331
0.0978958
0.098225
0.0984391
0.098582
0.0986779
0.0987421
0.0987847
0.0988127
0.0988309
0.0988425
0.0988498
0.0988543
0.098857
0.0988586
0.0988594
0.0988597
0.0988595
0.0988591
0.0988583
0.0988573
0.0988561
0.0988546
0.0988528
0.0988507
0.0988484
0.0988457
0.0988427
0.098839
0.0988344
0.0988281
0.0988183
0.0988013
0.0987681
0.0986963
0.0985279
0.0981026
0.0969582
0.0962908
0.0958924
0.0956523
0.0955071
0.0954195
)
;

boundaryField
{
    leftWall
    {
        type            kqRWallFunction;
        value           nonuniform List<scalar> 
42
(
0.0380761
0.0380814
0.0381046
0.0381914
0.0382403
0.0381274
0.039062
0.0417824
0.043394
0.040913
0.0404742
0.0403328
0.0401786
0.0399882
0.0397845
0.0395815
0.0393865
0.0392012
0.0390234
0.0388499
0.0386797
0.0385149
0.0383574
0.038207
0.0380627
0.0379244
0.0377935
0.0376715
0.0375588
0.0374548
0.0373577
0.0372654
0.0371766
0.0370916
0.0370122
0.0369413
0.0368854
0.036871
0.0370476
0.0383359
0.0459246
0.0856739
)
;
    }
    rightWall
    {
        type            kqRWallFunction;
        value           nonuniform 0();
    }
    lowerWall
    {
        type            kqRWallFunction;
        value           nonuniform 0();
    }
    atmosphere
    {
        type            inletOutlet;
        inletValue      uniform 0.1;
        value           nonuniform List<scalar> 
45
(
0.1
0.1
0.1
0.1
0.1
0.1
0.1
0.1
0.1
0.1
0.1
0.1
0.1
0.1
0.1
0.1
0.1
0.1
0.1
0.1
0.1
0.1
0.1
0.1
0.1
0.1
0.1
0.1
0.1
0.1
0.1
0.1
0.1
0.1
0.1
0.1
0.1
0.1
0.1
0.0969582
0.0962908
0.0958924
0.0956523
0.0955071
0.0954195
)
;
    }
    defaultFaces
    {
        type            empty;
    }
    procBoundary2to0
    {
        type            processor;
        value           nonuniform List<scalar> 
46
(
0.101489
0.105046
0.110465
0.118517
0.13011
0.138051
0.130901
0.120591
0.111848
0.105735
0.10186
0.0995253
0.0981464
0.0973306
0.0968386
0.0965313
0.0963297
0.0961891
0.0960848
0.0960028
0.0959355
0.0958786
0.0958294
0.0957856
0.0957448
0.0380682
0.0695924
0.0817672
0.0874917
0.0905103
0.0922349
0.093291
0.0939799
0.0944539
0.0947939
0.0950469
0.0952444
0.0954121
0.0955757
0.0957655
0.096022
0.0964042
0.0970015
0.0979511
0.0994608
0.0994608
)
;
    }
    procBoundary2to3
    {
        type            processor;
        value           nonuniform List<scalar> 
43
(
0.095704
0.0957048
0.0957053
0.0957052
0.0957039
0.0957011
0.0956964
0.0956895
0.0956802
0.0956683
0.0956539
0.0956373
0.0956188
0.0955988
0.0955779
0.0955566
0.0955354
0.0955147
0.0954948
0.095476
0.0954585
0.0954423
0.0954274
0.095414
0.0954019
0.095391
0.0953813
0.0953726
0.0953649
0.0953581
0.0953522
0.095347
0.0953425
0.0953388
0.095336
0.0953342
0.0953339
0.0953354
0.0953394
0.0953462
0.0953549
0.0953629
0.095367
)
;
    }
}


// ************************************************************************* //
