/*--------------------------------*- C++ -*----------------------------------*\
| =========                 |                                                 |
| \\      /  F ield         | OpenFOAM: The Open Source CFD Toolbox           |
|  \\    /   O peration     | Version:  5.0                                   |
|   \\  /    A nd           | Web:      www.OpenFOAM.org                      |
|    \\/     M anipulation  |                                                 |
\*---------------------------------------------------------------------------*/
FoamFile
{
    version     2.0;
    format      ascii;
    class       volScalarField;
    location    "0.05";
    object      nut;
}
// * * * * * * * * * * * * * * * * * * * * * * * * * * * * * * * * * * * * * //

dimensions      [0 2 -1 0 0 0 0];

internalField   nonuniform List<scalar> 
1915
(
0.00941933
0.00957714
0.00976526
0.00998739
0.0102596
0.0104345
0.0102972
0.0100517
0.00980935
0.00960062
0.00943069
0.00929984
0.00920456
0.00913823
0.00909337
0.00906341
0.00904335
0.00902968
0.00902008
0.00901306
0.00900767
0.00900335
0.00899972
0.00899655
0.00899369
0.000130188
0.000942598
0.00203782
0.00324064
0.00443709
0.00553542
0.00647601
0.00723302
0.007809
0.00822566
0.0085141
0.00870695
0.00883346
0.00891743
0.00897715
0.00902651
0.00907639
0.00913591
0.00921302
0.00931439
0.00944438
0.00960449
0.00979462
0.0100194
0.0102965
0.0104711
0.010323
0.0100688
0.00982233
0.0096121
0.00944157
0.00931032
0.00921451
0.00914734
0.00910137
0.00907017
0.00904888
0.00903408
0.00902349
0.00901564
0.00900959
0.00900474
0.00900071
0.00899724
0.00899417
0.000130212
0.000941959
0.00203751
0.00324169
0.00443994
0.00553994
0.00648177
0.00723955
0.007816
0.00823305
0.00852203
0.0087157
0.00884342
0.00892904
0.00899086
0.00904276
0.00909556
0.00915822
0.00923852
0.00934283
0.00947526
0.00963705
0.00982828
0.0100545
0.0103352
0.0105066
0.0103442
0.0100806
0.00983187
0.00962218
0.00945271
0.00932212
0.00922618
0.00915814
0.00911081
0.00907806
0.00905523
0.00903905
0.00902729
0.00901849
0.00901168
0.00900624
0.00900177
0.00899798
0.00899467
0.000130322
0.000941336
0.0020368
0.0032425
0.00444305
0.0055453
0.00648883
0.00724772
0.00782494
0.0082427
0.00853258
0.00872755
0.00885705
0.00894498
0.00900966
0.00906488
0.00912132
0.00918775
0.00927159
0.00937884
0.00951325
0.00967581
0.00986681
0.0100927
0.0103743
0.0105353
0.010354
0.0100828
0.00983543
0.00962972
0.0094637
0.00933507
0.00923949
0.00917054
0.00912157
0.00908693
0.00906227
0.00904447
0.00903136
0.00902148
0.00901383
0.00900777
0.00900282
0.00899869
0.00899513
0.000130656
0.000938901
0.00203402
0.0032427
0.00444691
0.00555241
0.0064982
0.0072585
0.00783669
0.00825542
0.00854658
0.00874335
0.0088753
0.00896635
0.00903477
0.00909424
0.00915521
0.00922609
0.00931385
0.00942396
0.00955972
0.00972193
0.00991105
0.0101339
0.0104119
0.0105478
0.0103431
0.0100699
0.00983095
0.009634
0.00947422
0.00934892
0.0092541
0.00918416
0.00913329
0.00909645
0.00906969
0.00905008
0.00903549
0.00902446
0.00901593
0.00900921
0.00900379
0.0089993
0.0089955
0.000130666
0.000927719
0.00202366
0.00323904
0.00445084
0.0055619
0.00651096
0.00727292
0.00785221
0.00827208
0.00856486
0.00876398
0.00889911
0.00899418
0.00906737
0.00913216
0.00919868
0.00927483
0.00936695
0.00947987
0.00961638
0.00977706
0.00996234
0.0101788
0.0104467
0.0105338
0.0103031
0.0100399
0.00981851
0.00963522
0.00948411
0.00936314
0.00926931
0.00919825
0.00914524
0.00910602
0.00907703
0.00905553
0.00903943
0.00902723
0.00901784
0.00901048
0.00900459
0.00899977
0.00899574
0.000130548
0.000894825
0.00200126
0.0032332
0.00445749
0.00557566
0.00652816
0.0072919
0.00787246
0.00829359
0.00858826
0.00879024
0.0089293
0.00902935
0.00910842
0.00917974
0.00925298
0.00933543
0.00943266
0.00954873
0.00968584
0.00984417
0.0100235
0.0102284
0.0104761
0.0104912
0.0102352
0.00999707
0.00980094
0.00963432
0.00949302
0.00937664
0.00928375
0.0092115
0.00915635
0.00911478
0.00908365
0.00906036
0.00904285
0.00902958
0.00901939
0.00901145
0.00900515
0.00900004
0.00899581
0.000133907
0.000828423
0.00197403
0.00323339
0.00447289
0.00559785
0.00655275
0.0073172
0.00789823
0.0083207
0.00861746
0.00882274
0.00896646
0.00907248
0.00915865
0.00923789
0.00931939
0.00940972
0.00951361
0.00963425
0.00977323
0.00993007
0.010102
0.0102865
0.0104794
0.0103966
0.0101493
0.00995099
0.00978207
0.00963163
0.00949946
0.00938724
0.00929525
0.00922205
0.00916515
0.00912167
0.00908879
0.00906404
0.00904539
0.00903126
0.00902044
0.00901204
0.00900541
0.00900008
0.00899569
0.000138869
0.000831567
0.00197794
0.0032514
0.00449997
0.00562885
0.00658472
0.00734904
0.00793006
0.00835341
0.0086525
0.00886157
0.00901072
0.00912378
0.00921847
0.00930745
0.00939951
0.00950057
0.00961441
0.0097432
0.00988802
0.0100493
0.0102212
0.0103745
0.0103998
0.0102387
0.0100639
0.0099082
0.00976183
0.00962447
0.00949991
0.00939158
0.009301
0.00922776
0.00917009
0.00912559
0.0090917
0.00906608
0.00904673
0.00903205
0.00902083
0.00901214
0.00900531
0.00899984
0.00899536
0.000139912
0.000919692
0.00202228
0.00327379
0.00452401
0.00565797
0.00661708
0.00738223
0.00796269
0.0083853
0.00868461
0.00889532
0.0090476
0.00916526
0.00926591
0.00936194
0.00946169
0.00957033
0.00969014
0.00981989
0.00995442
0.010086
0.0102065
0.0102648
0.010214
0.0101119
0.00999108
0.00986324
0.00973311
0.00960655
0.0094894
0.00938596
0.00929838
0.00922679
0.00916991
0.00912569
0.00909183
0.0090661
0.00904661
0.00903181
0.00902047
0.0090117
0.00900481
0.00899931
0.00899482
0.000136034
0.000947813
0.00206437
0.00331268
0.00455996
0.00569342
0.00665136
0.00741335
0.00798893
0.00840587
0.00869959
0.00890526
0.00905317
0.00916703
0.00926416
0.00935643
0.00945148
0.0095535
0.00966351
0.00977883
0.00989208
0.00999173
0.0100639
0.0100938
0.0100711
0.0100055
0.0099124
0.00980351
0.00968757
0.00957239
0.00946442
0.00936816
0.00928595
0.00921823
0.00916403
0.00912161
0.00908892
0.00906396
0.00904496
0.00903047
0.00901934
0.0090107
0.00900391
0.00899848
0.00899407
0.000135778
0.000961196
0.00209459
0.00334606
0.00458852
0.00571817
0.00667269
0.00743055
0.00800105
0.00841221
0.00869975
0.00889906
0.00904047
0.00914756
0.00923735
0.00932131
0.00940653
0.00949657
0.00959186
0.00968969
0.0097838
0.00986478
0.00992243
0.00994834
0.0099369
0.00988999
0.00981574
0.00972367
0.00962283
0.00952115
0.00942493
0.0093385
0.00926416
0.00920248
0.00915277
0.00911358
0.00908316
0.00905977
0.00904185
0.00902809
0.00901746
0.00900917
0.00900263
0.00899739
0.00899311
0.000135778
0.000971965
0.0021162
0.00337007
0.00460957
0.0057351
0.00668549
0.0074391
0.008005
0.00841115
0.00869326
0.00888667
0.0090216
0.00912149
0.0092031
0.00927762
0.00935182
0.00942898
0.00950945
0.00959093
0.00966851
0.00973512
0.00978298
0.00980564
0.00979896
0.00976336
0.00970381
0.00962774
0.00954297
0.00945657
0.00937416
0.00929961
0.00923504
0.00918107
0.00913722
0.00910236
0.00907507
0.00905388
0.00903751
0.00902482
0.00901495
0.00900719
0.00900102
0.00899605
0.00899199
0.000135534
0.000977728
0.00212831
0.0033845
0.00462247
0.0057448
0.00669163
0.00744161
0.00800378
0.00840594
0.00868366
0.00887207
0.00900124
0.00909439
0.00916805
0.0092332
0.0092964
0.00936085
0.00942705
0.00949318
0.00955544
0.00960853
0.00964663
0.00966474
0.00965986
0.00963217
0.00958505
0.00952408
0.00945546
0.00938495
0.00931721
0.00925549
0.00920161
0.0091562
0.00911896
0.00908906
0.00906538
0.00904681
0.00903228
0.00902091
0.00901196
0.00900485
0.00899916
0.00899454
0.00899074
0.000135111
0.000979727
0.00213316
0.00339093
0.00462823
0.00574844
0.00669263
0.00743984
0.00799915
0.00839824
0.00867246
0.00885675
0.00898095
0.00906804
0.00913436
0.00919067
0.00924343
0.00929585
0.00934862
0.0094005
0.00944864
0.00948917
0.00951785
0.00953111
0.00952689
0.00950539
0.009469
0.00942175
0.00936827
0.00931296
0.00925944
0.00921031
0.00916704
0.0091302
0.00909966
0.00907483
0.00905492
0.00903909
0.00902654
0.00901659
0.00900866
0.00900229
0.00899712
0.00899289
0.0089894
0.000134622
0.000979707
0.00213355
0.00339184
0.00462869
0.00574755
0.00668994
0.00743519
0.00799242
0.00838918
0.00866065
0.00884156
0.00896152
0.00904332
0.0091031
0.00915145
0.00919478
0.00923633
0.0092771
0.00931635
0.00935213
0.00938172
0.0094022
0.00941116
0.0094073
0.00939085
0.00936354
0.00932813
0.00928792
0.0092461
0.00920533
0.00916757
0.00913398
0.00910505
0.00908075
0.00906071
0.00904441
0.00903125
0.00902065
0.00901212
0.00900522
0.0089996
0.00899499
0.00899118
0.008988
0.000134126
0.000978801
0.00213155
0.00338933
0.00462559
0.0057435
0.0066847
0.00742864
0.00798443
0.0083795
0.00864885
0.00882704
0.00894349
0.00902081
0.00907498
0.00911651
0.00915174
0.00918404
0.00921466
0.0092434
0.00926901
0.00928974
0.00930368
0.0093093
0.00930582
0.0092935
0.00927354
0.00924779
0.0092185
0.00918787
0.00915778
0.00912962
0.00910427
0.00908215
0.00906329
0.00904749
0.00903442
0.00902369
0.0090149
0.00900771
0.0090018
0.00899691
0.00899285
0.00898946
0.0089866
0.00013365
0.000977555
0.00212835
0.00338484
0.00462019
0.00573727
0.00667766
0.00742079
0.00797567
0.00836958
0.00863739
0.00881347
0.0089271
0.00900078
0.00905037
0.00908631
0.00911496
0.00913981
0.00916237
0.00918285
0.00920063
0.00921464
0.00922374
0.00922699
0.00922399
0.00921493
0.00920065
0.00918241
0.00916161
0.00913974
0.00911806
0.00909754
0.00907882
0.00906224
0.00904787
0.00903563
0.00902531
0.00901669
0.0090095
0.00900351
0.00899851
0.00899431
0.00899076
0.00898776
0.00898522
0.000133197
0.000976184
0.00212456
0.00337919
0.0046133
0.00572956
0.00666938
0.00741205
0.00796644
0.00835967
0.00862642
0.00880096
0.00891245
0.00898328
0.00902929
0.00906088
0.00908446
0.00910362
0.00912012
0.00913448
0.00914655
0.00915577
0.00916149
0.00916321
0.00916071
0.00915416
0.00914411
0.00913138
0.00911687
0.00910151
0.00908615
0.00907142
0.0090578
0.00904553
0.00903471
0.00902533
0.00901727
0.0090104
0.00900457
0.00899963
0.00899542
0.00899184
0.00898877
0.00898614
0.00898389
0.000132761
0.000974752
0.00212046
0.00337286
0.0046055
0.00572089
0.00666027
0.00740275
0.00795698
0.00834991
0.00861605
0.00878955
0.0088995
0.00896823
0.00901156
0.00903991
0.00905975
0.00907477
0.00908691
0.00909696
0.00910506
0.00911102
0.00911452
0.0091153
0.00911328
0.00910859
0.00910157
0.00909275
0.00908271
0.00907202
0.00906121
0.00905072
0.00904087
0.00903185
0.00902375
0.00901659
0.00901033
0.00900488
0.00900018
0.00899611
0.0089926
0.00898955
0.00898691
0.00898462
0.00898264
0.000132336
0.000973266
0.00211617
0.00336614
0.00459713
0.00571162
0.00665066
0.00739315
0.0079475
0.00834044
0.00860634
0.00877923
0.00888815
0.00895541
0.00899683
0.00902287
0.00904005
0.00905217
0.0090613
0.00906842
0.00907388
0.0090777
0.0090798
0.00908005
0.00907845
0.00907509
0.00907019
0.00906408
0.00905712
0.00904967
0.00904207
0.0090346
0.00902747
0.00902083
0.00901476
0.0090093
0.00900443
0.00900012
0.00899632
0.00899298
0.00899005
0.00898747
0.0089852
0.00898321
0.00898148
0.000131918
0.000971736
0.00211178
0.0033592
0.00458846
0.00570203
0.00664082
0.00738346
0.00793813
0.00833134
0.0085973
0.00876993
0.00887824
0.00894453
0.00898465
0.00900911
0.00902447
0.00903462
0.00904174
0.00904692
0.00905067
0.00905315
0.00905439
0.00905438
0.00905312
0.00905069
0.00904725
0.00904298
0.00903812
0.00903289
0.0090275
0.00902214
0.00901694
0.00901203
0.00900746
0.00900327
0.00899947
0.00899604
0.00899298
0.00899023
0.00898778
0.0089856
0.00898365
0.00898192
0.0089804
0.000131514
0.000970183
0.00210734
0.00335218
0.00457966
0.00569234
0.00663094
0.00737385
0.007929
0.00832268
0.00858893
0.00876158
0.0088696
0.00893532
0.0089746
0.00899801
0.00901216
0.00902101
0.00902681
0.00903075
0.00903342
0.00903507
0.00903581
0.00903568
0.00903469
0.00903293
0.00903048
0.00902745
0.00902401
0.00902028
0.00901642
0.00901252
0.00900869
0.00900502
0.00900154
0.00899831
0.00899532
0.00899259
0.00899009
0.00898783
0.00898578
0.00898393
0.00898225
0.00898075
0.00897943
0.000131127
0.000968631
0.00210294
0.00334519
0.0045709
0.00568271
0.00662117
0.00736444
0.0079202
0.00831448
0.00858119
0.00875407
0.00886206
0.00892749
0.00896628
0.00898902
0.00900239
0.00901041
0.00901537
0.00901852
0.00902052
0.00902168
0.00902214
0.00902196
0.0090212
0.0090199
0.00901812
0.00901595
0.00901347
0.00901077
0.00900794
0.00900507
0.00900221
0.00899942
0.00899675
0.00899423
0.00899186
0.00898966
0.00898763
0.00898575
0.00898403
0.00898245
0.00898101
0.0089797
0.00897855
0.000130756
0.000967084
0.0020986
0.0033383
0.00456229
0.00567325
0.00661162
0.00735533
0.00791177
0.00830678
0.00857408
0.00874733
0.00885546
0.00892082
0.00895935
0.0089817
0.00899459
0.00900208
0.00900651
0.00900918
0.00901077
0.00901163
0.00901194
0.00901178
0.00901119
0.00901022
0.00900891
0.00900732
0.0090055
0.00900351
0.00900141
0.00899925
0.00899708
0.00899494
0.00899286
0.00899087
0.00898897
0.00898719
0.00898552
0.00898395
0.0089825
0.00898115
0.0089799
0.00897877
0.00897775
0.000130395
0.00096554
0.00209433
0.00333157
0.00455388
0.00566405
0.00660239
0.00734659
0.00790377
0.00829957
0.00856754
0.00874128
0.00884968
0.00891511
0.00895355
0.00897569
0.0089883
0.00899547
0.00899957
0.00900194
0.00900329
0.009004
0.00900423
0.0090041
0.00900365
0.00900292
0.00900195
0.00900076
0.0089994
0.0089979
0.00899631
0.00899466
0.00899299
0.00899133
0.00898969
0.00898809
0.00898656
0.0089851
0.00898372
0.0089824
0.00898117
0.00898001
0.00897893
0.00897794
0.00897705
0.000130047
0.000964012
0.00209018
0.00332505
0.00454575
0.00565518
0.00659352
0.00733824
0.00789622
0.00829285
0.00856155
0.00873585
0.0088446
0.0089102
0.00894866
0.00897072
0.00898318
0.00899016
0.00899407
0.00899627
0.00899748
0.00899809
0.0089983
0.00899821
0.00899788
0.00899733
0.00899659
0.00899569
0.00899465
0.00899351
0.00899229
0.00899101
0.00898971
0.00898839
0.00898708
0.00898579
0.00898454
0.00898334
0.00898218
0.00898107
0.00898002
0.00897901
0.00897808
0.00897721
0.00897642
0.000129717
0.000962534
0.00208619
0.00331879
0.00453795
0.00564669
0.00658507
0.00733033
0.00788911
0.0082866
0.00855607
0.00873096
0.00884012
0.00890596
0.00894452
0.00896658
0.00897897
0.00898586
0.00898967
0.00899176
0.0089929
0.00899347
0.00899368
0.00899363
0.00899338
0.00899297
0.00899241
0.00899172
0.00899092
0.00899004
0.00898908
0.00898808
0.00898704
0.00898599
0.00898493
0.00898388
0.00898285
0.00898185
0.00898087
0.00897993
0.00897902
0.00897815
0.00897733
0.00897656
0.00897587
0.00012941
0.000961139
0.00208242
0.00331284
0.00453053
0.00563861
0.00657705
0.00732287
0.00788246
0.00828081
0.00855106
0.00872657
0.00883617
0.00890229
0.008941
0.00896311
0.0089755
0.00898234
0.0089861
0.00898814
0.00898924
0.00898979
0.00899002
0.00899001
0.00898984
0.00898953
0.0089891
0.00898857
0.00898795
0.00898726
0.00898651
0.00898571
0.00898487
0.00898402
0.00898315
0.00898229
0.00898143
0.00898058
0.00897975
0.00897894
0.00897816
0.0089774
0.00897667
0.008976
0.00897538
0.000129127
0.000959849
0.00207888
0.00330724
0.00452353
0.00563098
0.00656949
0.00731585
0.00787625
0.00827546
0.0085465
0.00872263
0.00883269
0.00889911
0.008938
0.0089602
0.00897262
0.00897946
0.00898319
0.00898522
0.0089863
0.00898685
0.00898709
0.00898713
0.00898702
0.00898679
0.00898647
0.00898606
0.00898557
0.00898502
0.00898442
0.00898377
0.0089831
0.0089824
0.00898168
0.00898096
0.00898024
0.00897952
0.00897881
0.00897811
0.00897742
0.00897675
0.00897611
0.00897551
0.00897496
0.000128867
0.000958659
0.00207557
0.00330197
0.00451693
0.0056238
0.00656238
0.0073093
0.00787049
0.00827055
0.00854235
0.00871912
0.00882964
0.00889637
0.00893546
0.00895776
0.00897023
0.00897709
0.00898083
0.00898285
0.00898394
0.0089845
0.00898476
0.00898483
0.00898477
0.00898461
0.00898436
0.00898404
0.00898366
0.00898322
0.00898273
0.00898221
0.00898165
0.00898107
0.00898047
0.00897986
0.00897925
0.00897863
0.00897801
0.0089774
0.00897679
0.0089762
0.00897562
0.00897508
0.00897459
0.000128623
0.00095754
0.00207246
0.00329701
0.00451072
0.00561706
0.00655575
0.00730322
0.0078652
0.00826609
0.00853865
0.00871603
0.008827
0.00889405
0.00893334
0.00895577
0.0089683
0.00897519
0.00897894
0.00898097
0.00898206
0.00898264
0.00898292
0.00898302
0.008983
0.00898289
0.00898271
0.00898246
0.00898215
0.0089818
0.0089814
0.00898097
0.0089805
0.00898001
0.0089795
0.00897898
0.00897845
0.00897791
0.00897736
0.00897682
0.00897628
0.00897574
0.00897522
0.00897472
0.00897427
0.00012839
0.000956455
0.00206949
0.00329234
0.00450492
0.00561082
0.00654967
0.00729771
0.00786047
0.00826218
0.00853547
0.00871343
0.00882485
0.00889219
0.00893168
0.00895423
0.00896683
0.00897375
0.00897752
0.00897956
0.00898067
0.00898125
0.00898155
0.00898168
0.00898169
0.00898162
0.00898148
0.00898129
0.00898104
0.00898075
0.00898042
0.00898005
0.00897966
0.00897923
0.00897879
0.00897833
0.00897786
0.00897737
0.00897688
0.00897638
0.00897588
0.00897538
0.0089749
0.00897444
0.00897401
0.000128163
0.000955381
0.00206667
0.00328798
0.00449962
0.00560524
0.00654437
0.00729304
0.00785658
0.00825906
0.00853302
0.00871152
0.00882332
0.00889093
0.00893058
0.00895323
0.00896589
0.00897285
0.00897664
0.00897869
0.0089798
0.00898039
0.00898071
0.00898085
0.00898089
0.00898085
0.00898074
0.00898059
0.00898038
0.00898014
0.00897985
0.00897954
0.00897919
0.00897881
0.00897841
0.00897798
0.00897754
0.00897708
0.0089766
0.00897612
0.00897564
0.00897515
0.00897468
0.00897423
0.00897383
0.000127944
0.000954335
0.00206406
0.00328414
0.00449519
0.00560086
0.00654048
0.00728988
0.00785417
0.00825732
0.00853181
0.0087107
0.00882276
0.00889055
0.00893031
0.00895302
0.00896571
0.00897268
0.00897647
0.00897853
0.00897964
0.00898024
0.00898056
0.00898072
0.00898077
0.00898075
0.00898067
0.00898054
0.00898036
0.00898014
0.00897989
0.0089796
0.00897927
0.00897891
0.00897852
0.00897809
0.00897764
0.00897716
0.00897666
0.00897615
0.00897563
0.00897512
0.00897462
0.00897415
0.00897373
0.00012774
0.000953398
0.00206195
0.00328145
0.00449268
0.00559908
0.00653962
0.00728984
0.00785473
0.00825823
0.00853288
0.00871182
0.00882387
0.00889162
0.00893134
0.00895401
0.00896667
0.00897363
0.0089774
0.00897944
0.00898055
0.00898115
0.00898147
0.00898163
0.00898168
0.00898167
0.0089816
0.00898149
0.00898133
0.00898112
0.00898088
0.00898059
0.00898026
0.00897988
0.00897945
0.00897897
0.00897844
0.00897787
0.00897726
0.00897664
0.008976
0.00897538
0.00897479
0.00897424
0.00897375
0.000127559
0.000952804
0.0020612
0.00328177
0.004495
0.00560357
0.00654572
0.00729668
0.0078615
0.00826443
0.00853829
0.00871645
0.00882786
0.00889512
0.00893449
0.00895693
0.00896945
0.00897631
0.00898003
0.00898203
0.00898311
0.00898369
0.008984
0.00898416
0.00898422
0.00898421
0.00898414
0.00898403
0.00898387
0.00898366
0.00898341
0.00898309
0.00898272
0.00898227
0.00898174
0.00898113
0.00898043
0.00897964
0.00897879
0.00897791
0.00897701
0.00897614
0.00897533
0.0089746
0.00897397
0.000127426
0.0009533
0.0020645
0.00329043
0.00450993
0.00562346
0.00656796
0.00731857
0.00788116
0.00828099
0.00855175
0.00872726
0.00883665
0.00890249
0.00894091
0.00896276
0.00897491
0.00898155
0.00898514
0.00898706
0.0089881
0.00898866
0.00898895
0.0089891
0.00898915
0.00898913
0.00898907
0.00898895
0.00898878
0.00898856
0.00898828
0.00898792
0.00898746
0.00898689
0.00898619
0.00898533
0.0089843
0.00898312
0.00898181
0.00898042
0.00897902
0.00897768
0.00897644
0.00897537
0.00897447
0.000127437
0.000957537
0.00208035
0.0033229
0.00455795
0.0056808
0.0066267
0.0073723
0.00792636
0.00831688
0.0085793
0.00874823
0.00885286
0.0089155
0.00895188
0.00897248
0.00898389
0.00899011
0.00899346
0.00899526
0.00899622
0.00899674
0.00899702
0.00899716
0.00899721
0.00899719
0.00899713
0.00899701
0.00899684
0.00899661
0.00899629
0.00899587
0.00899531
0.00899458
0.00899361
0.00899238
0.00899085
0.00898903
0.00898696
0.00898474
0.00898247
0.00898031
0.00897835
0.00897668
0.00897532
0.000128109
0.000975049
0.00213584
0.00342281
0.0046908
0.00582559
0.0067637
0.00748908
0.00801851
0.00838576
0.00862918
0.00878405
0.00887905
0.00893546
0.008968
0.00898633
0.00899644
0.00900194
0.0090049
0.0090065
0.00900737
0.00900785
0.00900811
0.00900826
0.00900832
0.00900833
0.00900829
0.0090082
0.00900805
0.00900783
0.00900751
0.00900705
0.00900641
0.0090055
0.00900426
0.00900259
0.00900043
0.00899776
0.00899464
0.00899119
0.00898763
0.00898422
0.00898117
0.0089786
0.00897655
0.000132167
0.00103907
0.00231567
0.00370994
0.00503178
0.0061614
0.00705437
0.00771823
0.00818714
0.00850387
0.00870939
0.00883797
0.0089158
0.00896154
0.00898772
0.00900239
0.00901046
0.00901486
0.00901725
0.00901856
0.0090193
0.00901974
0.00902001
0.00902018
0.00902029
0.00902035
0.00902037
0.00902034
0.00902025
0.0090201
0.00901983
0.00901942
0.00901878
0.00901782
0.00901643
0.00901445
0.00901176
0.00900829
0.00900406
0.00899927
0.00899416
0.00898916
0.00898469
0.00898096
0.00897805
0.000150651
0.00125675
0.00288589
0.00450332
0.00584847
0.00686988
0.0076054
0.00811535
0.00845758
0.00868028
0.00882089
0.00890712
0.00895856
0.00898847
0.00900548
0.00901498
0.00902022
0.00902311
0.00902471
0.00902563
0.00902619
0.00902656
0.00902682
0.00902701
0.00902717
0.00902729
0.00902738
0.00902744
0.00902746
0.00902741
0.00902728
0.00902702
0.00902656
0.0090258
0.0090246
0.00902278
0.00902015
0.00901653
0.00901197
0.00900675
0.00900049
0.00899404
0.00898815
0.00898326
0.00897947
0.000208872
0.00211247
0.00489402
0.00666188
0.00761686
0.00815766
0.00848393
0.008688
0.00881688
0.00889767
0.00894748
0.00897755
0.0089953
0.00900556
0.00901138
0.00901464
0.00901646
0.00901748
0.00901807
0.00901844
0.00901868
0.00901885
0.00901899
0.00901911
0.00901921
0.0090193
0.00901937
0.00901944
0.00901948
0.0090195
0.00901949
0.00901942
0.00901927
0.00901898
0.00901847
0.00901761
0.00901622
0.00901407
0.00901114
0.00900966
0.00900404
0.00899704
0.00899033
0.0089847
0.00898034
)
;

boundaryField
{
    leftWall
    {
        type            nutkWallFunction;
        Cmu             0.09;
        kappa           0.41;
        E               9.8;
        value           nonuniform List<scalar> 
42
(
1.61513e-05
1.61523e-05
1.61569e-05
1.6174e-05
1.61837e-05
1.61701e-05
1.66756e-05
1.18794e-05
1.22952e-05
1.16513e-05
1.15351e-05
1.14975e-05
1.14564e-05
1.14056e-05
1.1351e-05
1.12965e-05
1.1244e-05
1.11939e-05
1.11458e-05
1.10987e-05
1.10524e-05
1.10074e-05
1.09643e-05
1.09231e-05
1.08834e-05
1.08453e-05
1.08092e-05
1.07755e-05
1.07443e-05
1.07154e-05
1.06884e-05
1.06628e-05
1.0638e-05
1.06143e-05
1.05921e-05
1.05723e-05
1.05567e-05
1.05526e-05
1.0602e-05
1.09584e-05
1.29306e-05
2.10467e-05
)
;
    }
    rightWall
    {
        type            nutkWallFunction;
        Cmu             0.09;
        kappa           0.41;
        E               9.8;
        value           nonuniform 0();
    }
    lowerWall
    {
        type            nutkWallFunction;
        Cmu             0.09;
        kappa           0.41;
        E               9.8;
        value           nonuniform 0();
    }
    atmosphere
    {
        type            calculated;
        value           nonuniform List<scalar> 
45
(
0.009
0.009
0.009
0.009
0.009
0.009
0.009
0.009
0.009
0.009
0.009
0.009
0.009
0.009
0.009
0.009
0.009
0.009
0.009
0.009
0.009
0.009
0.009
0.009
0.009
0.009
0.009
0.009
0.009
0.009
0.009
0.009
0.009
0.009
0.009
0.009
0.009
0.009
0.009
0.00900966
0.00900404
0.00899704
0.00899033
0.0089847
0.00898034
)
;
    }
    defaultFaces
    {
        type            empty;
    }
    procBoundary2to0
    {
        type            processor;
        value           nonuniform List<scalar> 
46
(
0.00939878
0.00955396
0.00973947
0.00995832
0.0102253
0.0103991
0.0102701
0.0100323
0.00979469
0.00958862
0.00942032
0.00929056
0.00919616
0.00913069
0.00908676
0.00905778
0.0090387
0.00902594
0.00901715
0.00901081
0.00900601
0.00900216
0.00899891
0.00899604
0.00899341
0.000130171
0.000942575
0.00203716
0.00323875
0.00443381
0.00553097
0.00647079
0.0072274
0.00780324
0.00821983
0.00850809
0.00870053
0.00882631
0.00890916
0.00896736
0.0090148
0.00906238
0.00911925
0.0091935
0.00929202
0.00929202
)
;
    }
    procBoundary2to3
    {
        type            processor;
        value           nonuniform List<scalar> 
43
(
0.00899116
0.00899145
0.00899176
0.00899203
0.00899221
0.00899228
0.00899222
0.00899201
0.00899164
0.00899111
0.00899042
0.0089896
0.00898865
0.00898761
0.0089865
0.00898536
0.00898422
0.00898309
0.008982
0.00898097
0.00898001
0.00897912
0.0089783
0.00897756
0.0089769
0.0089763
0.00897577
0.00897529
0.00897487
0.0089745
0.00897418
0.0089739
0.00897367
0.0089735
0.00897339
0.00897337
0.00897348
0.00897377
0.00897429
0.00897503
0.0089759
0.00897671
0.00897719
)
;
    }
}


// ************************************************************************* //
