/*--------------------------------*- C++ -*----------------------------------*\
| =========                 |                                                 |
| \\      /  F ield         | OpenFOAM: The Open Source CFD Toolbox           |
|  \\    /   O peration     | Version:  5.0                                   |
|   \\  /    A nd           | Web:      www.OpenFOAM.org                      |
|    \\/     M anipulation  |                                                 |
\*---------------------------------------------------------------------------*/
FoamFile
{
    version     2.0;
    format      ascii;
    class       volScalarField;
    location    "0.05";
    object      p_rgh;
}
// * * * * * * * * * * * * * * * * * * * * * * * * * * * * * * * * * * * * * //

dimensions      [1 -1 -2 0 0 0 0];

internalField   nonuniform List<scalar> 
1915
(
2364.01
2357.3
2348.18
267.969
0.751669
0.689619
0.683317
0.677533
0.672626
0.670361
0.669836
0.67022
0.671204
0.672651
0.674326
0.675951
0.677338
0.678415
0.679157
0.679521
0.679454
0.678939
0.67801
0.676762
0.675327
2474.98
2475.16
2475.38
2475.5
2475.36
2474.85
2473.92
2472.55
2470.77
2468.6
2466.08
2463.23
2460.06
2456.58
2452.82
2448.8
2444.55
2440.07
2435.4
2430.6
2425.75
2420.28
2412.59
239.876
0.670163
0.621106
0.615656
0.611147
0.608163
0.608024
0.609824
0.612623
0.616038
0.619858
0.623794
0.627556
0.630968
0.63397
0.636535
0.638628
0.640208
0.64127
0.641852
0.642034
0.641935
2526.73
2526.73
2526.86
2526.96
2526.91
2526.57
2525.88
2524.83
2523.45
2521.77
2519.8
2517.55
2515.03
2512.24
2509.23
2506
2502.59
2499.02
2495.32
2491.55
2487.8
2483.69
2477.65
208.576
0.59303
0.550232
0.544617
0.541564
0.540853
0.543423
0.548142
0.553891
0.560117
0.566523
0.572851
0.578875
0.584449
0.589504
0.593997
0.597893
0.601175
0.60386
0.605992
0.607634
0.608872
2578.2
2577.83
2578.14
2578.35
2578.4
2578.23
2577.77
2577.04
2576.09
2574.9
2573.49
2571.85
2569.98
2567.88
2565.59
2563.14
2560.55
2557.86
2555.11
2552.37
2549.78
2547.17
2543.09
172.488
0.522268
0.476156
0.468427
0.46716
0.469855
0.476119
0.484523
0.493831
0.50336
0.512742
0.521748
0.530228
0.538088
0.545271
0.551739
0.557472
0.56248
0.566796
0.570472
0.573562
0.576125
2628.48
2626.65
2627.84
2628.99
2629.51
2629.63
2629.47
2629.12
2628.63
2627.99
2627.18
2626.17
2624.96
2623.55
2621.97
2620.26
2618.46
2616.61
2614.76
2613.01
2611.58
2610.48
2608.41
138.142
0.453802
0.397764
0.38479
0.386116
0.3943
0.405858
0.419045
0.432647
0.446006
0.458766
0.470753
0.481889
0.492145
0.501505
0.509966
0.517543
0.524271
0.530202
0.535389
0.539884
0.543734
2684.58
2672.78
2674.72
2678.06
2679.89
2680.78
2681.23
2681.48
2681.63
2681.65
2681.51
2681.17
2680.61
2679.86
2678.92
2677.87
2676.74
2675.59
2674.48
2673.53
2673.07
2673.2
2671.4
123.458
0.349521
0.306366
0.289992
0.296802
0.31353
0.332705
0.352105
0.370867
0.38858
0.405051
0.420236
0.434161
0.446878
0.458436
0.468887
0.478291
0.486712
0.494215
0.500862
0.506706
0.511789
1759.07
1978.35
2145.42
2273.69
2363.15
2420
2454.31
2473.38
2482.38
2484.7
2482.58
2477.38
2469.99
2460.95
2450.6
2439.16
2426.77
2413.4
2399.1
2384.05
2369.44
2355.15
2323.81
118.149
0.0827518
0.174346
0.179405
0.198764
0.228069
0.257575
0.284674
0.309383
0.331858
0.352244
0.370717
0.387457
0.402621
0.416344
0.428742
0.43992
0.449972
0.458979
0.467013
0.474135
0.480387
97.5429
195.81
285.283
378.522
461.462
526.116
570.203
596.502
609.146
612.088
608.444
600.417
589.495
576.615
562.361
547.111
531.168
514.902
498.42
481.561
465.402
445.407
489.868
48.4515
-0.246058
0.00175087
0.0539259
0.0960595
0.142002
0.183225
0.218717
0.249646
0.276927
0.30117
0.322832
0.342272
0.359771
0.375551
0.389794
0.402646
0.41423
0.424642
0.43397
0.442283
0.44963
-1.29285
-1.13494
-1.2424
-1.33768
-1.40648
-1.43616
-1.43818
-1.42466
-1.40263
-1.37627
-1.34812
-1.31961
-1.29129
-1.2632
-1.23505
-1.2064
-1.17698
-1.147
-1.11817
-1.09707
-1.08346
-1.0309
-0.754085
-0.512627
-0.369129
-0.186792
-0.0800106
-0.00173023
0.0618957
0.113905
0.156965
0.193479
0.225061
0.25275
0.277268
0.299136
0.318744
0.336392
0.352313
0.366689
0.379665
0.391358
0.401865
0.411269
0.419621
-1.22704
-1.21716
-1.23148
-1.246
-1.25788
-1.26305
-1.26118
-1.25375
-1.24192
-1.22646
-1.20802
-1.1871
-1.16398
-1.13879
-1.11157
-1.08231
-1.05104
-1.01778
-0.9824
-0.945033
-0.9041
-0.849195
-0.753479
-0.621678
-0.440764
-0.278463
-0.16177
-0.0730418
-0.00241142
0.0549761
0.102533
0.142807
0.177526
0.207873
0.234679
0.258547
0.279931
0.299176
0.316548
0.332254
0.346453
0.359275
0.370831
0.38121
0.390467
-1.17162
-1.16895
-1.17829
-1.18847
-1.19937
-1.2062
-1.20666
-1.20097
-1.19008
-1.17496
-1.15649
-1.13527
-1.11165
-1.0857
-1.05745
-1.02686
-0.99386
-0.958186
-0.918925
-0.873931
-0.819521
-0.751088
-0.664561
-0.555774
-0.423383
-0.301924
-0.201589
-0.118823
-0.0499745
0.00772525
0.0566223
0.0986025
0.135091
0.167142
0.195542
0.220888
0.243642
0.264158
0.282714
0.299522
0.314749
0.328533
0.340992
0.352217
0.362266
-1.11468
-1.11597
-1.12114
-1.12791
-1.13473
-1.13848
-1.13734
-1.13102
-1.11996
-1.10488
-1.0865
-1.06529
-1.04146
-1.01505
-0.986078
-0.95453
-0.920286
-0.883027
-0.841894
-0.795016
-0.739448
-0.67213
-0.592184
-0.500857
-0.402244
-0.307568
-0.222947
-0.14901
-0.0849176
-0.0294359
0.0187543
0.0608713
0.0979415
0.130795
0.160098
0.186384
0.21008
0.231522
0.250973
0.26864
0.284687
0.299253
0.312455
0.324386
0.335106
-1.05949
-1.06128
-1.06443
-1.06791
-1.07063
-1.07091
-1.06755
-1.0601
-1.04867
-1.0337
-1.01562
-0.994682
-0.970948
-0.944475
-0.915311
-0.883444
-0.848752
-0.810929
-0.769343
-0.722858
-0.669836
-0.608769
-0.539294
-0.463387
-0.38422
-0.306726
-0.234556
-0.169074
-0.110461
-0.0583269
-0.0120269
0.0291521
0.0658895
0.0987923
0.128386
0.155115
0.179346
0.201374
0.221433
0.239713
0.256368
0.271527
0.285304
0.297792
0.309052
-1.00406
-1.00615
-1.00879
-1.01104
-1.012
-1.01064
-1.00613
-0.998108
-0.986627
-0.971948
-0.954281
-0.933715
-0.9103
-0.884133
-0.855299
-0.823784
-0.78944
-0.751989
-0.710978
-0.665776
-0.615647
-0.560066
-0.499254
-0.43453
-0.368032
-0.30252
-0.240164
-0.18214
-0.128929
-0.0805555
-0.0367764
0.00278083
0.0385371
0.0709133
0.100302
0.127049
0.151451
0.17375
0.194146
0.212801
0.229852
0.245415
0.259598
0.272489
0.284156
-0.949876
-0.951973
-0.954388
-0.956192
-0.956468
-0.954412
-0.949447
-0.94132
-0.930066
-0.915796
-0.898583
-0.878471
-0.855563
-0.830011
-0.80192
-0.771272
-0.737914
-0.701599
-0.66203
-0.618895
-0.571965
-0.521225
-0.46712
-0.410649
-0.353256
-0.296594
-0.241997
-0.19033
-0.142101
-0.0975046
-0.0565138
-0.0189607
0.0153995
0.0468438
0.0756486
0.10207
0.126331
0.148624
0.169107
0.187914
0.205159
0.220945
0.235368
0.248514
0.260457
-0.89729
-0.899227
-0.901362
-0.902728
-0.90249
-0.899996
-0.894813
-0.886757
-0.875787
-0.861906
-0.845135
-0.825557
-0.803337
-0.778662
-0.751628
-0.722199
-0.690247
-0.655594
-0.618079
-0.577604
-0.534197
-0.488066
-0.439679
-0.389809
-0.339445
-0.289647
-0.241297
-0.195027
-0.151274
-0.110281
-0.0721199
-0.0367403
-0.004013
0.0262319
0.0541775
0.0800019
0.103867
0.125914
0.146264
0.165021
0.182276
0.198113
0.212619
0.225879
0.237976
-0.846407
-0.848139
-0.849963
-0.850887
-0.850205
-0.847397
-0.842107
-0.834143
-0.823395
-0.809842
-0.79354
-0.774628
-0.753295
-0.729708
-0.703936
-0.675931
-0.645607
-0.612888
-0.577727
-0.540163
-0.500345
-0.458547
-0.415185
-0.370832
-0.32618
-0.281949
-0.238772
-0.197128
-0.157365
-0.11972
-0.0843054
-0.0511364
-0.02016
0.00871714
0.0356082
0.0606304
0.0838945
0.105499
0.12553
0.14406
0.161158
0.176891
0.191336
0.204583
0.21672
-0.797194
-0.798748
-0.800288
-0.800868
-0.79987
-0.796851
-0.791487
-0.783553
-0.772951
-0.759714
-0.743972
-0.725888
-0.705617
-0.683272
-0.658881
-0.632409
-0.603833
-0.573172
-0.540481
-0.505868
-0.46952
-0.4317
-0.392751
-0.353097
-0.313229
-0.273662
-0.234869
-0.197228
-0.161017
-0.126444
-0.0936365
-0.0626455
-0.0334666
-0.00605694
0.0196478
0.0437195
0.0662279
0.0872341
0.10679
0.124943
0.141737
0.157229
0.17149
0.184609
0.196687
-0.749649
-0.751059
-0.752364
-0.75269
-0.751467
-0.748276
-0.742801
-0.734842
-0.724384
-0.711549
-0.696506
-0.679388
-0.660286
-0.639259
-0.616317
-0.591456
-0.564713
-0.536182
-0.505981
-0.47425
-0.441166
-0.406954
-0.371883
-0.336274
-0.300487
-0.264902
-0.229882
-0.195735
-0.162694
-0.130934
-0.100581
-0.0717044
-0.0443251
-0.018431
0.0060089
0.0290321
0.0506735
0.0709612
0.0899178
0.107565
0.123933
0.139069
0.153038
0.165933
0.177867
-0.703824
-0.705103
-0.706226
-0.706347
-0.704921
-0.70155
-0.695946
-0.688008
-0.677815
-0.665539
-0.651326
-0.635246
-0.617333
-0.597618
-0.57613
-0.552912
-0.52805
-0.501669
-0.473914
-0.444929
-0.414866
-0.383902
-0.352247
-0.320148
-0.287881
-0.25574
-0.224012
-0.19295
-0.162758
-0.133586
-0.105542
-0.0786986
-0.0530871
-0.028714
-0.00557286
0.0163449
0.0370437
0.0565225
0.0747792
0.091818
0.107658
0.12234
0.135929
0.148522
0.16024
-0.659745
-0.660906
-0.661883
-0.661826
-0.660211
-0.656684
-0.651044
-0.643289
-0.633544
-0.621963
-0.60863
-0.593565
-0.576776
-0.558305
-0.538229
-0.516641
-0.493652
-0.469391
-0.443991
-0.417579
-0.390276
-0.362221
-0.333578
-0.304548
-0.275353
-0.246233
-0.21742
-0.189125
-0.161524
-0.134741
-0.108865
-0.0839558
-0.0600507
-0.0371697
-0.0153279
0.0054569
0.0251623
0.0437639
0.0612417
0.0775889
0.0928193
0.106972
0.120113
0.132339
0.14378
-0.617361
-0.618418
-0.619253
-0.619037
-0.617285
-0.613713
-0.608222
-0.600846
-0.591686
-0.580834
-0.568334
-0.554196
-0.538445
-0.521159
-0.502461
-0.482478
-0.461325
-0.439111
-0.415938
-0.391901
-0.367097
-0.341638
-0.315664
-0.289346
-0.262875
-0.23645
-0.210263
-0.184485
-0.159257
-0.13468
-0.110823
-0.0877341
-0.0654523
-0.044013
-0.0234528
-0.0038124
0.0148645
0.0325372
0.0491758
0.064769
0.0793297
0.0928978
0.105537
0.117346
0.128461
-0.576599
-0.577548
-0.578225
-0.57787
-0.576063
-0.572604
-0.567436
-0.560563
-0.552021
-0.541853
-0.530101
-0.516813
-0.502061
-0.485959
-0.468645
-0.45025
-0.430875
-0.4106
-0.389494
-0.367625
-0.345073
-0.321941
-0.298358
-0.274478
-0.250465
-0.226484
-0.20269
-0.179214
-0.15616
-0.133609
-0.111615
-0.0902217
-0.0694732
-0.0494204
-0.0301189
-0.0116277
0.00599592
0.0227027
0.0384595
0.0532557
0.067106
0.0800506
0.0921515
0.103506
0.114254
-0.537444
-0.538272
-0.538804
-0.538357
-0.53659
-0.533352
-0.528568
-0.522194
-0.514217
-0.504664
-0.49361
-0.481158
-0.467423
-0.452534
-0.43662
-0.419785
-0.402105
-0.383635
-0.364422
-0.344521
-0.32401
-0.302991
-0.281584
-0.259928
-0.23816
-0.216414
-0.194803
-0.173425
-0.152355
-0.131653
-0.11137
-0.0915545
-0.0722575
-0.0535431
-0.035481
-0.0181407
-0.00158622
0.0141319
0.0289823
0.0429572
0.0560734
0.0683707
0.079908
0.0907801
0.101132
-0.499921
-0.500649
-0.501097
-0.500641
-0.498986
-0.495978
-0.491515
-0.48554
-0.478037
-0.469056
-0.458705
-0.447121
-0.434441
-0.420788
-0.406256
-0.390918
-0.374825
-0.358016
-0.34053
-0.322426
-0.303784
-0.284704
-0.265298
-0.245683
-0.225971
-0.20626
-0.186633
-0.167157
-0.147888
-0.128876
-0.110175
-0.091839
-0.0739294
-0.0565172
-0.0396787
-0.0234876
-0.00800741
0.00671405
0.0206495
0.0337946
0.0461671
0.057805
0.0687626
0.0791319
0.0890625
-0.464022
-0.464701
-0.465135
-0.464737
-0.463204
-0.46036
-0.456114
-0.450439
-0.443359
-0.434956
-0.425351
-0.414684
-0.403084
-0.390646
-0.377436
-0.363497
-0.348865
-0.333573
-0.317666
-0.301211
-0.284289
-0.266995
-0.249428
-0.231681
-0.21384
-0.195974
-0.178142
-0.160392
-0.142769
-0.125319
-0.108099
-0.0911703
-0.0746004
-0.0584625
-0.0428324
-0.0277815
-0.0133699
0.000359812
0.0133847
0.0257028
0.0373317
0.0483062
0.0586753
0.0685273
0.0780148
-0.429677
-0.430337
-0.430777
-0.430428
-0.428969
-0.426229
-0.422156
-0.416773
-0.410146
-0.402372
-0.393564
-0.383842
-0.373303
-0.362016
-0.350025
-0.33736
-0.324051
-0.310138
-0.295674
-0.280731
-0.265391
-0.249737
-0.233851
-0.217806
-0.201663
-0.185472
-0.169273
-0.153104
-0.137005
-0.121021
-0.10521
-0.0896354
-0.0743674
-0.0594773
-0.0450356
-0.0311086
-0.0177504
-0.0049985
0.00712795
0.0186284
0.0295192
0.0398313
0.0496083
0.058934
0.0679607
-0.396766
-0.397391
-0.397797
-0.397436
-0.396004
-0.393371
-0.389525
-0.384515
-0.378416
-0.37132
-0.363322
-0.354512
-0.344959
-0.334715
-0.323813
-0.312284
-0.300164
-0.2875
-0.274356
-0.260803
-0.246915
-0.232766
-0.218419
-0.203929
-0.189338
-0.174681
-0.159987
-0.145288
-0.13062
-0.11603
-0.101571
-0.087307
-0.0733048
-0.0596325
-0.0463544
-0.033529
-0.0212041
-0.00941229
0.00183049
0.0125246
0.0226847
0.0323382
0.0415235
0.0503187
0.0588719
-0.365149
-0.365704
-0.366025
-0.365609
-0.364211
-0.36175
-0.358221
-0.35366
-0.348129
-0.341702
-0.334458
-0.326467
-0.317783
-0.308452
-0.298509
-0.287994
-0.276949
-0.265433
-0.253509
-0.241244
-0.228704
-0.215947
-0.203022
-0.189966
-0.176808
-0.163572
-0.15028
-0.136962
-0.123651
-0.11039
-0.0972324
-0.0842352
-0.0714616
-0.0589745
-0.0468318
-0.0350842
-0.0237722
-0.0129232
-0.00255014
0.00734835
0.0167855
0.0257855
0.0343816
0.0426448
0.0507155
-0.334711
-0.335174
-0.335393
-0.334936
-0.333621
-0.331387
-0.32821
-0.324096
-0.319087
-0.31325
-0.306654
-0.299363
-0.291431
-0.282905
-0.273827
-0.264243
-0.254205
-0.24377
-0.232999
-0.22195
-0.210675
-0.19922
-0.187618
-0.175893
-0.164066
-0.152152
-0.140173
-0.128154
-0.116128
-0.104136
-0.0922258
-0.0804511
-0.0688687
-0.0575347
-0.0465005
-0.0358084
-0.0254911
-0.01557
-0.00605426
0.00305851
0.0117804
0.0201322
0.0281419
0.035872
0.0434512
-0.305395
-0.305772
-0.305909
-0.305445
-0.30424
-0.30222
-0.299336
-0.295581
-0.290994
-0.28564
-0.27959
-0.272911
-0.265657
-0.257879
-0.249622
-0.240935
-0.23187
-0.222479
-0.212813
-0.202918
-0.192835
-0.182595
-0.17222
-0.161727
-0.15113
-0.140444
-0.129689
-0.11889
-0.108078
-0.0972934
-0.0865791
-0.0759839
-0.0655575
-0.0553478
-0.0453974
-0.0357404
-0.0264008
-0.0173931
-0.00872255
-0.000385614
0.00762858
0.0153372
0.022762
0.0299555
0.0370309
-0.277221
-0.277529
-0.277608
-0.277146
-0.276015
-0.274124
-0.271422
-0.267915
-0.263652
-0.258706
-0.253148
-0.247044
-0.240447
-0.233402
-0.225955
-0.218151
-0.210033
-0.201645
-0.193027
-0.184214
-0.175236
-0.166113
-0.156863
-0.147497
-0.13803
-0.128477
-0.11886
-0.109204
-0.0995407
-0.0899061
-0.0803404
-0.0708855
-0.0615824
-0.052469
-0.0435777
-0.0349333
-0.0265514
-0.0184397
-0.0105999
-0.00302737
0.00428687
0.0113557
0.0181943
0.0248432
0.0313981
-0.25024
-0.250496
-0.250521
-0.25003
-0.248895
-0.247033
-0.244422
-0.241094
-0.237112
-0.232551
-0.227476
-0.221944
-0.215998
-0.209678
-0.203022
-0.196065
-0.188842
-0.181389
-0.173736
-0.165909
-0.15793
-0.149817
-0.141582
-0.13324
-0.124807
-0.116302
-0.107746
-0.0991672
-0.0905942
-0.0820606
-0.0736004
-0.0652474
-0.0570325
-0.0489825
-0.0411189
-0.033457
-0.0260054
-0.0187661
-0.0117377
-0.00491561
0.00170647
0.00813659
0.0143832
0.0204748
0.0264882
-0.224479
-0.224684
-0.224643
-0.224083
-0.222887
-0.221009
-0.218466
-0.215312
-0.211617
-0.207447
-0.202854
-0.197882
-0.192562
-0.186926
-0.181002
-0.17482
-0.168406
-0.16179
-0.154996
-0.148046
-0.140958
-0.133748
-0.126431
-0.119024
-0.111547
-0.104019
-0.0964636
-0.0889063
-0.0813743
-0.0738953
-0.0664961
-0.0592005
-0.0520291
-0.0449978
-0.0381182
-0.0313973
-0.0248378
-0.0184385
-0.0121965
-0.00610831
-0.000170804
0.00561913
0.0112637
0.0167808
0.0222293
-0.199896
-0.200048
-0.199934
-0.199297
-0.198046
-0.196182
-0.193747
-0.190804
-0.187416
-0.183636
-0.179501
-0.175041
-0.170284
-0.165252
-0.15997
-0.154463
-0.148756
-0.142872
-0.136835
-0.130662
-0.124372
-0.117982
-0.11151
-0.104974
-0.0983938
-0.0917906
-0.0851859
-0.0786026
-0.072063
-0.0655879
-0.0591952
-0.0528995
-0.0467117
-0.0406388
-0.0346846
-0.02885
-0.0231342
-0.0175349
-0.0120495
-0.00667656
-0.00141631
0.00373004
0.00875988
0.0136834
0.0185449
-0.176408
-0.176512
-0.176341
-0.175665
-0.174427
-0.172651
-0.170386
-0.167689
-0.164609
-0.161187
-0.157452
-0.153433
-0.149152
-0.144632
-0.139899
-0.134975
-0.129885
-0.12465
-0.119291
-0.113826
-0.108273
-0.10265
-0.096975
-0.0912659
-0.0855412
-0.0798198
-0.0741205
-0.068461
-0.0628575
-0.0573232
-0.0518682
-0.0464993
-0.04122
-0.036031
-0.0309312
-0.0259186
-0.0209908
-0.0161463
-0.0113846
-0.00670697
-0.00211642
0.00238296
0.00678609
0.0110987
0.0153551
-0.15393
-0.154007
-0.153824
-0.153181
-0.152037
-0.150416
-0.148357
-0.145906
-0.143104
-0.139986
-0.136586
-0.132933
-0.129055
-0.124977
-0.120726
-0.116325
-0.111798
-0.107165
-0.102443
-0.09765
-0.0928026
-0.0879169
-0.0830088
-0.0780936
-0.0731871
-0.0683043
-0.0634592
-0.058664
-0.0539283
-0.049259
-0.0446603
-0.0401336
-0.0356781
-0.0312911
-0.0269695
-0.0227105
-0.0185125
-0.0143761
-0.0103041
-0.0063006
-0.00237061
0.0014812
0.00524991
0.00894036
0.012581
-0.132389
-0.132476
-0.132341
-0.131796
-0.130795
-0.129344
-0.127479
-0.125239
-0.122669
-0.119807
-0.116694
-0.113365
-0.109853
-0.106188
-0.102397
-0.0985021
-0.0945235
-0.0904784
-0.0863821
-0.0822489
-0.0780922
-0.0739245
-0.0697577
-0.0656039
-0.0614746
-0.0573803
-0.0533301
-0.0493305
-0.0453862
-0.0414997
-0.0376718
-0.0339013
-0.0301855
-0.0265207
-0.0229038
-0.0193329
-0.0158085
-0.0123343
-0.00891696
-0.0055647
-0.00228318
0.000925285
0.00405882
0.00712418
0.0101476
-0.111612
-0.111786
-0.111763
-0.111344
-0.110467
-0.109145
-0.107423
-0.105351
-0.102979
-0.100355
-0.0975234
-0.0945245
-0.0913933
-0.0881594
-0.0848469
-0.0814748
-0.078059
-0.0746123
-0.0711463
-0.0676707
-0.0641945
-0.0607258
-0.0572728
-0.0538438
-0.0504461
-0.0470859
-0.0437675
-0.0404939
-0.0372665
-0.0340859
-0.0309515
-0.0278612
-0.0248121
-0.021801
-0.0188255
-0.0158852
-0.012983
-0.0101257
-0.00732601
-0.00459935
-0.00195132
0.000622748
0.00312746
0.00557364
0.00798698
-0.0913405
-0.0916404
-0.0917478
-0.0914368
-0.0906152
-0.0893497
-0.0877248
-0.0858058
-0.0836464
-0.0812943
-0.0787931
-0.0761804
-0.0734874
-0.0707388
-0.0679527
-0.0651429
-0.0623201
-0.0594925
-0.0566669
-0.0538487
-0.0510426
-0.0482533
-0.0454857
-0.0427448
-0.0400345
-0.0373575
-0.0347151
-0.0321082
-0.0295371
-0.0270019
-0.0245016
-0.0220346
-0.0195982
-0.0171895
-0.014807
-0.012451
-0.0101249
-0.00783836
-0.00561284
-0.00348231
-0.00145404
0.000495649
0.00238269
0.00422237
0.00603971
-0.0720921
-0.0722406
-0.0723182
-0.0719239
-0.0710185
-0.0697412
-0.0682028
-0.0664676
-0.0645794
-0.0625748
-0.0604861
-0.0583409
-0.0561606
-0.053961
-0.0517528
-0.0495437
-0.0473392
-0.0451434
-0.042959
-0.040788
-0.0386325
-0.0364951
-0.0343786
-0.0322853
-0.030217
-0.0281743
-0.0261574
-0.0241666
-0.0222022
-0.0202645
-0.0183529
-0.0164657
-0.0146006
-0.0127548
-0.0109262
-0.009114
-0.00731657
-0.00553326
-0.00379473
-0.00221764
-0.000828123
0.000484149
0.00175704
0.00300216
0.00423827
-0.0523676
-0.056044
-0.055113
-0.0534247
-0.0521058
-0.0508149
-0.0494158
-0.0479301
-0.0463865
-0.0448044
-0.0431999
-0.0415855
-0.0399696
-0.0383571
-0.0367507
-0.0351519
-0.033562
-0.0319815
-0.0304106
-0.0288501
-0.0273009
-0.0257646
-0.0242429
-0.0227371
-0.0212479
-0.0197756
-0.0183206
-0.0168837
-0.0154657
-0.0140671
-0.0126877
-0.0113261
-0.0099801
-0.0086461
-0.0073198
-0.00599358
-0.0046398
-0.003186
-0.0016352
-0.000515505
3.88231e-05
0.000589162
0.0011977
0.00183095
0.00248195
-0.0177663
-0.0447038
-0.0341466
-0.027981
-0.025606
-0.02418
-0.0230181
-0.0220139
-0.021107
-0.0202577
-0.0194454
-0.0186587
-0.0178902
-0.0171346
-0.0163882
-0.0156485
-0.0149142
-0.0141843
-0.0134587
-0.0127377
-0.012022
-0.0113126
-0.0106105
-0.00991636
-0.00923075
-0.00855413
-0.00788711
-0.00723044
-0.00658474
-0.00595026
-0.00532646
-0.00471162
-0.00410209
-0.00349081
-0.00286497
-0.00219976
-0.00142526
-0.000340009
0.00119918
0.00149166
0.000960157
0.000684677
0.000630729
0.000676779
0.000778238
)
;

boundaryField
{
    leftWall
    {
        type            fixedFluxPressure;
        gradient        uniform 0;
        value           nonuniform List<scalar> 
42
(
2474.98
2526.73
2578.2
2628.48
2684.58
1759.07
97.5429
-1.29285
-1.22704
-1.17162
-1.11468
-1.05949
-1.00406
-0.949876
-0.89729
-0.846407
-0.797194
-0.749649
-0.703824
-0.659745
-0.617361
-0.576599
-0.537444
-0.499921
-0.464022
-0.429677
-0.396766
-0.365149
-0.334711
-0.305395
-0.277221
-0.25024
-0.224479
-0.199896
-0.176408
-0.15393
-0.132389
-0.111612
-0.0913405
-0.0720921
-0.0523676
-0.0177663
)
;
    }
    rightWall
    {
        type            fixedFluxPressure;
        gradient        nonuniform 0();
        value           nonuniform 0();
    }
    lowerWall
    {
        type            fixedFluxPressure;
        gradient        nonuniform 0();
        value           nonuniform 0();
    }
    atmosphere
    {
        type            totalPressure;
        rho             rho;
        psi             none;
        gamma           1;
        p0              uniform 0;
        value           nonuniform List<scalar> 
45
(
-0.00328608
-0.00550214
-0.00450594
-0.00391803
-0.00349758
-0.00317325
-0.00291479
-0.00270318
-0.00252422
-0.00236715
-0.00222412
-0.00208967
-0.00196026
-0.00183383
-0.00170933
-0.00158642
-0.00146516
-0.00134589
-0.00122908
-0.00111526
-0.001005
-0.000898826
-0.000797272
-0.000700811
-0.000609866
-0.000524799
-0.000445907
-0.000373421
-0.000307499
-0.000248229
-0.000195631
-0.00014966
-0.000110212
-7.71365e-05
-5.02531e-05
-2.93796e-05
-1.43449e-05
-4.95318e-06
-7.02269e-07
0
0
0
0
0
0
)
;
    }
    defaultFaces
    {
        type            empty;
    }
    procBoundary2to0
    {
        type            processor;
        value           nonuniform List<scalar> 
46
(
2302.8
2294.9
2284.36
293.937
0.835386
0.755807
0.74833
0.741693
0.735098
0.731006
0.728482
0.726773
0.725607
0.724867
0.72439
0.723967
0.723434
0.722707
0.721732
0.720449
0.718802
0.716777
0.714414
0.711793
0.709039
2424.1
2424.26
2424.44
2424.46
2424.17
2423.47
2422.29
2420.6
2418.42
2415.77
2412.69
2409.23
2405.4
2401.22
2396.71
2391.88
2386.77
2381.39
2375.76
2369.95
2369.95
)
;
    }
    procBoundary2to3
    {
        type            processor;
        value           nonuniform List<scalar> 
43
(
0.673794
0.641644
0.609788
0.57822
0.546988
0.516165
0.485831
0.456076
0.426997
0.398687
0.371231
0.344706
0.319178
0.294699
0.271307
0.249028
0.22788
0.207869
0.188992
0.171241
0.154602
0.139055
0.124576
0.111139
0.0987227
0.0873056
0.0768614
0.0673586
0.0587616
0.0510303
0.0441179
0.0379678
0.0325143
0.0276859
0.0234087
0.0196096
0.0162184
0.0131699
0.0104046
0.00786805
0.00549266
0.00316218
0.000922604
)
;
    }
}


// ************************************************************************* //
