/*--------------------------------*- C++ -*----------------------------------*\
| =========                 |                                                 |
| \\      /  F ield         | OpenFOAM: The Open Source CFD Toolbox           |
|  \\    /   O peration     | Version:  5.0                                   |
|   \\  /    A nd           | Web:      www.OpenFOAM.org                      |
|    \\/     M anipulation  |                                                 |
\*---------------------------------------------------------------------------*/
FoamFile
{
    version     2.0;
    format      ascii;
    class       surfaceScalarField;
    location    "0.05";
    object      phi;
}
// * * * * * * * * * * * * * * * * * * * * * * * * * * * * * * * * * * * * * //

dimensions      [0 3 -1 0 0 0 0];

internalField   nonuniform List<scalar> 
3742
(
2.70862e-06
-2.38858e-05
2.82017e-06
-2.39694e-05
2.93399e-06
-2.38815e-05
3.02756e-06
-2.31714e-05
3.06321e-06
-2.185e-05
2.77162e-06
-4.76105e-06
2.34805e-06
6.60096e-06
1.88101e-06
1.36388e-05
1.43074e-06
1.75596e-05
1.03933e-06
1.93875e-05
7.26019e-07
1.9937e-05
4.93433e-07
1.97751e-05
3.35756e-07
1.92563e-05
2.42714e-07
1.85824e-05
2.02657e-07
1.78584e-05
2.04533e-07
1.71348e-05
2.38723e-07
1.64337e-05
2.97019e-07
1.57635e-05
3.72591e-07
1.51263e-05
4.59893e-07
1.45214e-05
5.54377e-07
1.39467e-05
6.5242e-07
1.33988e-05
7.51206e-07
1.28737e-05
8.48103e-07
1.23663e-05
1.18706e-05
1.07645e-07
-3.49045e-05
2.23314e-07
-3.28772e-05
3.51132e-07
-3.01665e-05
4.86055e-07
-2.77564e-05
6.21276e-07
-2.58037e-05
7.53471e-07
-2.43206e-05
8.81384e-07
-2.32606e-05
1.00526e-06
-2.25561e-05
1.12575e-06
-2.21355e-05
1.24337e-06
-2.19313e-05
1.35831e-06
-2.18853e-05
1.47046e-06
-2.19507e-05
1.57955e-06
-2.20922e-05
1.68522e-06
-2.22849e-05
1.78716e-06
-2.25118e-05
1.8852e-06
-2.27614e-05
1.97952e-06
-2.3025e-05
2.07082e-06
-2.32938e-05
2.16079e-06
-2.35564e-05
2.25201e-06
-2.37948e-05
2.34778e-06
-2.39816e-05
2.4517e-06
-2.40733e-05
2.5638e-06
-2.39936e-05
2.66125e-06
-2.32688e-05
2.67725e-06
-2.1866e-05
2.31586e-06
-4.39967e-06
1.77183e-06
7.14495e-06
1.17212e-06
1.42385e-05
6.15991e-07
1.81158e-05
1.57951e-07
1.98456e-05
-1.8554e-07
2.02805e-05
-4.19902e-07
2.00095e-05
-5.60122e-07
1.93966e-05
-6.23776e-07
1.86462e-05
-6.27502e-07
1.78622e-05
-5.85764e-07
1.70931e-05
-5.10574e-07
1.63585e-05
-4.11698e-07
1.56646e-05
-2.96939e-07
1.50115e-05
-1.72413e-07
1.43969e-05
-4.28899e-08
1.38172e-05
8.79244e-08
1.3268e-05
2.17213e-07
1.27444e-05
3.42754e-07
1.22408e-05
1.17504e-05
1.1193e-07
-3.50164e-05
2.07974e-07
-3.29733e-05
3.10582e-07
-3.02691e-05
4.19983e-07
-2.78658e-05
5.29925e-07
-2.59136e-05
6.37506e-07
-2.44282e-05
7.42298e-07
-2.33654e-05
8.44841e-07
-2.26587e-05
9.45868e-07
-2.22365e-05
1.04575e-06
-2.20311e-05
1.14437e-06
-2.19839e-05
1.24128e-06
-2.20476e-05
1.3358e-06
-2.21868e-05
1.42721e-06
-2.23763e-05
1.51488e-06
-2.25995e-05
1.5984e-06
-2.28449e-05
1.67765e-06
-2.31043e-05
1.75328e-06
-2.33694e-05
1.82691e-06
-2.363e-05
1.90181e-06
-2.38697e-05
1.98311e-06
-2.40629e-05
2.07739e-06
-2.41676e-05
2.1872e-06
-2.41034e-05
2.29549e-06
-2.33771e-05
2.2988e-06
-2.18693e-05
1.81186e-06
-3.91276e-06
1.07037e-06
7.88638e-06
2.9357e-07
1.50153e-05
-3.82912e-07
1.87923e-05
-9.01967e-07
2.03646e-05
-1.25942e-06
2.06379e-05
-1.4753e-06
2.02253e-05
-1.5768e-06
1.94981e-05
-1.59047e-06
1.86598e-05
-1.53929e-06
1.7811e-05
-1.44193e-06
1.69957e-05
-1.31289e-06
1.62295e-05
-1.16315e-06
1.55149e-05
-1.00098e-06
1.48494e-05
-8.32577e-07
1.42285e-05
-6.62623e-07
1.36472e-05
-4.94623e-07
1.31e-05
-3.31184e-07
1.2581e-05
-1.74229e-07
1.20839e-05
1.16016e-05
5.13137e-08
-3.50678e-05
1.29815e-07
-3.30518e-05
2.24239e-07
-3.03635e-05
3.2233e-07
-2.79639e-05
4.17351e-07
-2.60086e-05
5.07212e-07
-2.4518e-05
5.93864e-07
-2.3452e-05
6.79293e-07
-2.27441e-05
7.64739e-07
-2.2322e-05
8.50479e-07
-2.21169e-05
9.36007e-07
-2.20694e-05
1.0204e-06
-2.2132e-05
1.10262e-06
-2.2269e-05
1.18171e-06
-2.24554e-05
1.2568e-06
-2.26746e-05
1.32724e-06
-2.29154e-05
1.39267e-06
-2.31697e-05
1.45334e-06
-2.34301e-05
1.51075e-06
-2.36874e-05
1.56865e-06
-2.39276e-05
1.63352e-06
-2.41278e-05
1.71394e-06
-2.4248e-05
1.81812e-06
-2.42076e-05
1.9397e-06
-2.34987e-05
1.93285e-06
-2.18625e-05
1.20438e-06
-3.18433e-06
1.55457e-07
8.93527e-06
-8.58235e-07
1.6029e-05
-1.66106e-06
1.95951e-05
-2.21633e-06
2.09199e-05
-2.54952e-06
2.09711e-05
-2.70657e-06
2.03824e-05
-2.7331e-06
1.95246e-05
-2.66696e-06
1.85937e-05
-2.53729e-06
1.76814e-05
-2.36574e-06
1.68242e-05
-2.16811e-06
1.60318e-05
-1.9558e-06
1.53026e-05
-1.73701e-06
1.46306e-05
-1.5176e-06
1.40091e-05
-1.30169e-06
1.34313e-05
-1.09221e-06
1.28905e-05
-8.91238e-07
1.238e-05
-7.00201e-07
1.18929e-05
1.14216e-05
-2.41065e-07
-3.48267e-05
-1.41257e-07
-3.31516e-05
-1.9703e-09
-3.05028e-05
1.22583e-07
-2.80885e-05
2.29926e-07
-2.6116e-05
3.24283e-07
-2.46124e-05
4.11325e-07
-2.35391e-05
4.95402e-07
-2.28282e-05
5.78533e-07
-2.24051e-05
6.61007e-07
-2.21994e-05
7.42146e-07
-2.21506e-05
8.20907e-07
-2.22108e-05
8.96285e-07
-2.23444e-05
9.67451e-07
-2.25266e-05
1.03372e-06
-2.27409e-05
1.09449e-06
-2.29761e-05
1.14929e-06
-2.32245e-05
1.19808e-06
-2.34789e-05
1.24205e-06
-2.37314e-05
1.28491e-06
-2.39705e-05
1.33648e-06
-2.41794e-05
1.40554e-06
-2.43171e-05
1.49206e-06
-2.42941e-05
1.58945e-06
-2.35961e-05
1.49149e-06
-2.17645e-05
2.62102e-07
-1.95497e-06
-1.23038e-06
1.04278e-05
-2.49457e-06
1.72932e-05
-3.37103e-06
2.04716e-05
-3.88385e-06
2.14328e-05
-4.11546e-06
2.12028e-05
-4.14795e-06
2.04149e-05
-4.04712e-06
1.94238e-05
-3.86079e-06
1.84073e-05
-3.62215e-06
1.74427e-05
-3.35378e-06
1.65558e-05
-3.07088e-06
1.57489e-05
-2.78372e-06
1.50154e-05
-2.49921e-06
1.43461e-05
-2.22194e-06
1.37318e-05
-1.95491e-06
1.31643e-05
-1.70005e-06
1.26356e-05
-1.45859e-06
1.21385e-05
-1.2313e-06
1.16655e-05
1.12089e-05
-5.93174e-07
-3.42335e-05
-5.45089e-07
-3.31997e-05
-4.02915e-07
-3.0645e-05
-2.45711e-07
-2.82457e-05
-1.00236e-07
-2.62615e-05
3.31647e-08
-2.47458e-05
1.57208e-07
-2.36631e-05
2.73995e-07
-2.2945e-05
3.84004e-07
-2.25151e-05
4.8681e-07
-2.23022e-05
5.81833e-07
-2.22456e-05
6.68768e-07
-2.22977e-05
7.4771e-07
-2.24233e-05
8.19014e-07
-2.25979e-05
8.83034e-07
-2.28049e-05
9.39933e-07
-2.3033e-05
9.89616e-07
-2.32742e-05
1.03192e-06
-2.35212e-05
1.06739e-06
-2.37668e-05
1.09904e-06
-2.40021e-05
1.13933e-06
-2.42196e-05
1.22098e-06
-2.43987e-05
1.31045e-06
-2.43836e-05
1.23948e-06
-2.35251e-05
5.02726e-07
-2.10277e-05
-1.69228e-06
2.40006e-07
-3.63038e-06
1.23659e-05
-4.97089e-06
1.86337e-05
-5.71927e-06
2.122e-05
-6.01454e-06
2.17281e-05
-6.00913e-06
2.11974e-05
-5.81849e-06
2.02243e-05
-5.52065e-06
1.9126e-05
-5.16555e-06
1.80522e-05
-4.78415e-06
1.70613e-05
-4.39539e-06
1.6167e-05
-4.01074e-06
1.53643e-05
-3.63714e-06
1.46418e-05
-3.27868e-06
1.39876e-05
-2.93769e-06
1.33908e-05
-2.61532e-06
1.28419e-05
-2.31205e-06
1.23324e-05
-2.02794e-06
1.18544e-05
-1.7628e-06
1.14004e-05
1.09625e-05
1.83959e-07
-3.44175e-05
-7.17814e-07
-3.22979e-05
-9.11427e-07
-3.04514e-05
-8.26344e-07
-2.83308e-05
-6.4173e-07
-2.64461e-05
-4.23141e-07
-2.49644e-05
-2.02105e-07
-2.38841e-05
4.99151e-09
-2.31521e-05
1.90318e-07
-2.27004e-05
3.51113e-07
-2.2463e-05
4.8789e-07
-2.23824e-05
6.03133e-07
-2.24129e-05
7.00192e-07
-2.25204e-05
7.82446e-07
-2.26801e-05
8.52679e-07
-2.28751e-05
9.12772e-07
-2.30931e-05
9.63582e-07
-2.3325e-05
1.005e-06
-2.35626e-05
1.03649e-06
-2.37983e-05
1.05691e-06
-2.40225e-05
1.06317e-06
-2.42259e-05
1.13369e-06
-2.44692e-05
1.35242e-06
-2.46023e-05
1.03255e-06
-2.32053e-05
-2.36567e-06
-1.76295e-05
-5.6202e-06
3.49455e-06
-7.65467e-06
1.44004e-05
-8.61337e-06
1.95924e-05
-8.84412e-06
2.14508e-05
-8.64985e-06
2.15338e-05
-8.22685e-06
2.07744e-05
-7.69587e-06
1.96933e-05
-7.12591e-06
1.8556e-05
-6.5539e-06
1.74802e-05
-5.99872e-06
1.65062e-05
-5.4694e-06
1.56377e-05
-4.96979e-06
1.48647e-05
-4.50102e-06
1.4173e-05
-4.06283e-06
1.35494e-05
-3.65426e-06
1.29823e-05
-3.27402e-06
1.24616e-05
-2.92068e-06
1.1979e-05
-2.59283e-06
1.15266e-05
-2.2892e-06
1.10967e-05
1.06819e-05
3.73628e-06
-3.81538e-05
-1.14107e-06
-2.74206e-05
-1.98785e-06
-2.96046e-05
-1.96241e-06
-2.83562e-05
-1.61389e-06
-2.67946e-05
-1.16821e-06
-2.54101e-05
-7.27443e-07
-2.43249e-05
-3.34153e-07
-2.35454e-05
-3.0439e-09
-2.30315e-05
2.65404e-07
-2.27314e-05
4.78017e-07
-2.2595e-05
6.44728e-07
-2.25796e-05
7.75831e-07
-2.26515e-05
8.80298e-07
-2.27846e-05
9.64951e-07
-2.29598e-05
1.03416e-06
-2.31624e-05
1.08996e-06
-2.33808e-05
1.13228e-06
-2.36049e-05
1.15807e-06
-2.38241e-05
1.15585e-06
-2.40203e-05
1.08143e-06
-2.41515e-05
8.50898e-07
-2.42387e-05
7.91497e-07
-2.45429e-05
-4.21281e-07
-2.19925e-05
-8.13311e-06
-9.91767e-06
-1.20106e-05
7.372e-06
-1.33598e-05
1.57497e-05
-1.32832e-05
1.95158e-05
-1.25792e-05
2.07468e-05
-1.16376e-05
2.05921e-05
-1.0644e-05
1.97809e-05
-9.68351e-06
1.87327e-05
-8.78923e-06
1.76617e-05
-7.96981e-06
1.66608e-05
-7.22302e-06
1.57594e-05
-6.5428e-06
1.49575e-05
-5.92228e-06
1.42441e-05
-5.35504e-06
1.36058e-05
-4.83542e-06
1.30298e-05
-4.35854e-06
1.25054e-05
-3.92026e-06
1.20234e-05
-3.51704e-06
1.15758e-05
-3.14587e-06
1.11554e-05
-2.80425e-06
1.07551e-05
1.03678e-05
1.85066e-06
-4.00044e-05
-8.85221e-07
-2.46846e-05
-3.10264e-06
-2.73872e-05
-3.48586e-06
-2.7973e-05
-2.99788e-06
-2.72826e-05
-2.23027e-06
-2.61777e-05
-1.46262e-06
-2.50925e-05
-7.97331e-07
-2.42107e-05
-2.60311e-07
-2.35686e-05
1.54526e-07
-2.31463e-05
4.6629e-07
-2.29068e-05
6.9737e-07
-2.28107e-05
8.68291e-07
-2.28224e-05
9.95456e-07
-2.29117e-05
1.09061e-06
-2.30549e-05
1.16091e-06
-2.32327e-05
1.20967e-06
-2.34295e-05
1.23813e-06
-2.36334e-05
1.24991e-06
-2.38359e-05
1.24432e-06
-2.40147e-05
1.07183e-06
-2.3979e-05
1.41348e-08
-2.3181e-05
-4.45846e-06
-2.00703e-05
-1.23871e-05
-1.40639e-05
-2.00065e-05
-2.29823e-06
-2.10102e-05
8.37585e-06
-1.99637e-05
1.47032e-05
-1.82516e-05
1.78038e-05
-1.63833e-05
1.88785e-05
-1.46053e-05
1.88141e-05
-1.30096e-05
1.81852e-05
-1.16113e-05
1.73344e-05
-1.0394e-05
1.64444e-05
-9.33178e-06
1.55986e-05
-8.39886e-06
1.48264e-05
-7.57305e-06
1.41317e-05
-6.83645e-06
1.35075e-05
-6.17498e-06
1.29443e-05
-5.57761e-06
1.24324e-05
-5.03562e-06
1.19634e-05
-4.54206e-06
1.15298e-05
-4.09135e-06
1.11251e-05
-3.67894e-06
1.0743e-05
-3.30118e-06
1.03774e-05
1.00218e-05
-4.56245e-06
-3.5442e-05
4.33035e-09
-2.92511e-05
3.29448e-07
-2.77123e-05
-5.16292e-07
-2.71272e-05
-1.45707e-06
-2.63418e-05
-2.20913e-06
-2.54256e-05
-2.77582e-06
-2.45258e-05
-3.22537e-06
-2.37611e-05
-3.61837e-06
-2.31756e-05
-3.9964e-06
-2.27682e-05
-4.38661e-06
-2.25165e-05
-4.80774e-06
-2.23897e-05
-5.27409e-06
-2.2356e-05
-5.79897e-06
-2.23869e-05
-6.39667e-06
-2.24573e-05
-7.08436e-06
-2.25449e-05
-7.88621e-06
-2.26277e-05
-8.84094e-06
-2.26787e-05
-1.00232e-05
-2.26537e-05
-1.15952e-05
-2.24426e-05
-1.38887e-05
-2.16855e-05
-1.74277e-05
-1.96419e-05
-2.19032e-05
-1.55948e-05
-2.67811e-05
-9.18604e-06
-2.85953e-05
-4.84045e-07
-2.73509e-05
7.13143e-06
-2.48646e-05
1.22169e-05
-2.20725e-05
1.50117e-05
-1.94097e-05
1.62158e-05
-1.70435e-05
1.64478e-05
-1.50079e-05
1.61496e-05
-1.32779e-05
1.56045e-05
-1.18077e-05
1.49742e-05
-1.05499e-05
1.43408e-05
-9.46334e-06
1.37399e-05
-8.51489e-06
1.31832e-05
-7.67886e-06
1.26715e-05
-6.93555e-06
1.2201e-05
-6.26985e-06
1.17667e-05
-5.67008e-06
1.13636e-05
-5.12707e-06
1.09868e-05
-4.63357e-06
1.06316e-05
-4.18378e-06
1.02932e-05
-3.77308e-06
9.96666e-06
9.64653e-06
-1.22666e-06
-3.42156e-05
2.32256e-08
-3.05012e-05
2.32933e-07
-2.7922e-05
-6.07942e-07
-2.62863e-05
-1.7895e-06
-2.51602e-05
-2.9712e-06
-2.42439e-05
-4.0353e-06
-2.34617e-05
-4.9766e-06
-2.28198e-05
-5.82721e-06
-2.23249e-05
-6.6265e-06
-2.19689e-05
-7.41189e-06
-2.17312e-05
-8.21617e-06
-2.15853e-05
-9.06841e-06
-2.15037e-05
-9.99536e-06
-2.14599e-05
-1.10241e-05
-2.14284e-05
-1.21859e-05
-2.13831e-05
-1.35215e-05
-2.12919e-05
-1.50923e-05
-2.11079e-05
-1.69976e-05
-2.07483e-05
-1.93806e-05
-2.00597e-05
-2.23427e-05
-1.87234e-05
-2.5753e-05
-1.62316e-05
-2.91475e-05
-1.22002e-05
-3.1635e-05
-6.69848e-06
-3.1763e-05
-3.56133e-07
-2.99497e-05
5.31815e-06
-2.71586e-05
9.4258e-06
-2.41235e-05
1.19766e-05
-2.12366e-05
1.33289e-05
-1.86619e-05
1.3873e-05
-1.64384e-05
1.39261e-05
-1.45436e-05
1.37097e-05
-1.29317e-05
1.33623e-05
-1.15533e-05
1.29624e-05
-1.03646e-05
1.25512e-05
-9.32965e-06
1.21483e-05
-8.42011e-06
1.1762e-05
-7.61399e-06
1.13949e-05
-6.89424e-06
1.1047e-05
-6.24762e-06
1.0717e-05
-5.66369e-06
1.04028e-05
-5.13418e-06
1.0102e-05
-4.65249e-06
9.81151e-06
-4.21331e-06
9.52751e-06
9.24573e-06
-1.0132e-06
-3.32021e-05
-9.6728e-07
-3.05471e-05
-1.23031e-06
-2.7659e-05
-1.94179e-06
-2.55749e-05
-2.94948e-06
-2.41525e-05
-4.06458e-06
-2.31288e-05
-5.17301e-06
-2.23533e-05
-6.2329e-06
-2.17599e-05
-7.24411e-06
-2.13138e-05
-8.22625e-06
-2.09868e-05
-9.20692e-06
-2.07505e-05
-1.02157e-05
-2.05765e-05
-1.12816e-05
-2.04378e-05
-1.24332e-05
-2.03083e-05
-1.36998e-05
-2.01618e-05
-1.51144e-05
-1.99686e-05
-1.67161e-05
-1.96902e-05
-1.85542e-05
-1.92698e-05
-2.06859e-05
-1.86165e-05
-2.31602e-05
-1.75854e-05
-2.59297e-05
-1.59539e-05
-2.87136e-05
-1.34477e-05
-3.10133e-05
-9.90047e-06
-3.22098e-05
-5.50205e-06
-3.18049e-05
-7.60951e-07
-3.00267e-05
3.53989e-06
-2.74778e-05
6.87697e-06
-2.46788e-05
9.17744e-06
-2.19536e-05
1.06038e-05
-1.94655e-05
1.13849e-05
-1.72712e-05
1.17318e-05
-1.5368e-05
1.18065e-05
-1.37257e-05
1.17199e-05
-1.23061e-05
1.15427e-05
-1.10722e-05
1.13173e-05
-9.99204e-06
1.10681e-05
-9.03939e-06
1.08093e-05
-8.19316e-06
1.05486e-05
-7.43664e-06
1.02904e-05
-6.75651e-06
1.00368e-05
-6.14213e-06
9.78844e-06
-5.58495e-06
9.54486e-06
-5.07807e-06
9.30464e-06
-4.61593e-06
9.0654e-06
8.82396e-06
-1.34371e-06
-3.18585e-05
-2.02863e-06
-2.98622e-05
-2.58386e-06
-2.71039e-05
-3.26369e-06
-2.4895e-05
-4.11086e-06
-2.33053e-05
-5.06993e-06
-2.21697e-05
-6.07904e-06
-2.13441e-05
-7.10094e-06
-2.0738e-05
-8.12356e-06
-2.02911e-05
-9.15258e-06
-1.99578e-05
-1.02035e-05
-1.96996e-05
-1.12965e-05
-1.94835e-05
-1.2454e-05
-1.92803e-05
-1.3699e-05
-1.90631e-05
-1.50559e-05
-1.88049e-05
-1.65497e-05
-1.84749e-05
-1.82063e-05
-1.80336e-05
-2.005e-05
-1.7426e-05
-2.20925e-05
-1.65741e-05
-2.43089e-05
-1.53689e-05
-2.65883e-05
-1.36745e-05
-2.86778e-05
-1.13581e-05
-3.01927e-05
-8.38564e-06
-3.07756e-05
-4.91915e-06
-3.02345e-05
-1.30211e-06
-2.87206e-05
2.02603e-06
-2.66001e-05
4.75643e-06
-2.42249e-05
6.80224e-06
-2.18463e-05
8.22519e-06
-1.96109e-05
9.14949e-06
-1.75853e-05
9.70617e-06
-1.57853e-05
1.00065e-05
-1.41999e-05
1.01345e-05
-1.28061e-05
1.01489e-05
-1.15782e-05
1.00893e-05
-1.04919e-05
9.98185e-06
-9.52614e-06
9.84351e-06
-8.66303e-06
9.68553e-06
-7.88785e-06
9.51527e-06
-7.18852e-06
9.33748e-06
-6.5551e-06
9.15502e-06
-5.97944e-06
8.96921e-06
-5.45488e-06
8.78008e-06
-4.97596e-06
8.58648e-06
8.38632e-06
-1.43686e-06
-3.04218e-05
-2.5018e-06
-2.87972e-05
-3.31271e-06
-2.62931e-05
-4.06779e-06
-2.41401e-05
-4.87203e-06
-2.25011e-05
-5.74444e-06
-2.12973e-05
-6.66972e-06
-2.04189e-05
-7.63055e-06
-1.97772e-05
-8.61873e-06
-1.9303e-05
-9.63566e-06
-1.89408e-05
-1.06897e-05
-1.86455e-05
-1.17934e-05
-1.83798e-05
-1.29616e-05
-1.81121e-05
-1.42099e-05
-1.78149e-05
-1.55538e-05
-1.7461e-05
-1.70077e-05
-1.7021e-05
-1.85818e-05
-1.64594e-05
-2.02775e-05
-1.57303e-05
-2.20767e-05
-1.4775e-05
-2.39242e-05
-1.35214e-05
-2.57033e-05
-1.18954e-05
-2.72184e-05
-9.84299e-06
-2.82244e-05
-7.37966e-06
-2.85143e-05
-4.62929e-06
-2.80051e-05
-1.81131e-06
-2.67987e-05
8.19659e-07
-2.51173e-05
3.07494e-06
-2.31933e-05
4.87831e-06
-2.1211e-05
6.24283e-06
-1.92913e-05
7.22979e-06
-1.75009e-05
7.91573e-06
-1.58675e-05
8.37311e-06
-1.4395e-05
8.66197e-06
-1.30746e-05
8.82853e-06
-1.18922e-05
8.9069e-06
-1.08321e-05
8.92174e-06
-9.8794e-06
8.89077e-06
-9.02056e-06
8.82669e-06
-8.24387e-06
8.73858e-06
-7.53926e-06
8.63288e-06
-6.89818e-06
8.51395e-06
-6.31341e-06
8.38445e-06
-5.77891e-06
8.24558e-06
-5.28964e-06
8.09722e-06
7.93821e-06
-1.42291e-06
-2.89988e-05
-2.62281e-06
-2.75974e-05
-3.58289e-06
-2.53329e-05
-4.4276e-06
-2.32953e-05
-5.2518e-06
-2.16769e-05
-6.0989e-06
-2.04502e-05
-6.97951e-06
-1.95383e-05
-7.8936e-06
-1.88631e-05
-8.84088e-06
-1.83557e-05
-9.82367e-06
-1.7958e-05
-1.08476e-05
-1.76217e-05
-1.19201e-05
-1.73072e-05
-1.30502e-05
-1.6982e-05
-1.42465e-05
-1.66185e-05
-1.55166e-05
-1.6191e-05
-1.68645e-05
-1.56731e-05
-1.82884e-05
-1.50355e-05
-1.97754e-05
-1.42434e-05
-2.12938e-05
-1.32565e-05
-2.27832e-05
-1.20321e-05
-2.41452e-05
-1.05334e-05
-2.52425e-05
-8.7457e-06
-2.59234e-05
-6.69875e-06
-2.60702e-05
-4.48256e-06
-2.56456e-05
-2.23584e-06
-2.4715e-05
-1.10989e-07
-2.34137e-05
1.77358e-06
-2.18928e-05
3.35745e-06
-2.02824e-05
4.63244e-06
-1.86772e-05
5.62458e-06
-1.71372e-05
6.37573e-06
-1.5695e-05
6.93077e-06
-1.43638e-05
7.33075e-06
-1.31454e-05
7.61012e-06
-1.2035e-05
7.79652e-06
-1.10247e-05
7.91149e-06
-1.01056e-05
7.97165e-06
-9.26862e-06
7.9897e-06
-8.50529e-06
7.97526e-06
-7.80794e-06
7.93555e-06
-7.16976e-06
7.87578e-06
-6.58477e-06
7.79948e-06
-6.04785e-06
7.70866e-06
-5.55462e-06
7.60398e-06
7.48506e-06
-1.3644e-06
-2.76347e-05
-2.58858e-06
-2.63735e-05
-3.62026e-06
-2.43011e-05
-4.52794e-06
-2.23877e-05
-5.38289e-06
-2.0822e-05
-6.22872e-06
-1.96043e-05
-7.08667e-06
-1.86804e-05
-7.96689e-06
-1.79829e-05
-8.87499e-06
-1.74476e-05
-9.81554e-06
-1.70174e-05
-1.07932e-05
-1.6644e-05
-1.18126e-05
-1.62877e-05
-1.28785e-05
-1.59162e-05
-1.3994e-05
-1.5503e-05
-1.51602e-05
-1.50247e-05
-1.63742e-05
-1.44591e-05
-1.76268e-05
-1.37829e-05
-1.88982e-05
-1.2972e-05
-2.01542e-05
-1.20004e-05
-2.13413e-05
-1.0845e-05
-2.2384e-05
-9.49067e-06
-2.31899e-05
-7.93985e-06
-2.36657e-05
-6.22298e-06
-2.37445e-05
-4.40368e-06
-2.34095e-05
-2.57089e-06
-2.27014e-05
-8.19048e-07
-2.17034e-05
7.75515e-07
-2.05128e-05
2.16689e-06
-1.92199e-05
3.33951e-06
-1.78962e-05
4.30087e-06
-1.65924e-05
5.07186e-06
-1.53406e-05
5.67895e-06
-1.41589e-05
6.14902e-06
-1.30554e-05
6.50669e-06
-1.20322e-05
6.77324e-06
-1.10871e-05
6.96642e-06
-1.02161e-05
7.10075e-06
-9.41436e-06
7.18793e-06
-8.67634e-06
7.23726e-06
-7.99678e-06
7.25602e-06
-7.37069e-06
7.24971e-06
-6.79347e-06
7.22228e-06
-6.26103e-06
7.17625e-06
-5.76983e-06
7.11278e-06
7.03207e-06
-1.29872e-06
-2.63359e-05
-2.50359e-06
-2.51686e-05
-3.55811e-06
-2.32467e-05
-4.49688e-06
-2.14489e-05
-5.37096e-06
-1.99478e-05
-6.21701e-06
-1.87583e-05
-7.05854e-06
-1.78388e-05
-7.90997e-06
-1.71315e-05
-8.78012e-06
-1.65774e-05
-9.6751e-06
-1.61224e-05
-1.05991e-05
-1.572e-05
-1.15551e-05
-1.53316e-05
-1.25448e-05
-1.49266e-05
-1.35678e-05
-1.44801e-05
-1.46209e-05
-1.39716e-05
-1.56971e-05
-1.33829e-05
-1.67834e-05
-1.26967e-05
-1.78588e-05
-1.18965e-05
-1.88921e-05
-1.09671e-05
-1.98399e-05
-9.89727e-06
-2.06473e-05
-8.68331e-06
-2.12528e-05
-7.33432e-06
-2.15991e-05
-5.87666e-06
-2.16475e-05
-4.35525e-06
-2.13901e-05
-2.8283e-06
-2.08527e-05
-1.35647e-06
-2.00866e-05
9.38017e-09
-1.91548e-05
1.23513e-06
-1.81195e-05
2.30423e-06
-1.70338e-05
3.21511e-06
-1.59386e-05
3.97663e-06
-1.48631e-05
4.60341e-06
-1.38264e-05
5.11236e-06
-1.28401e-05
5.52039e-06
-1.19101e-05
5.84321e-06
-1.10385e-05
6.09481e-06
-1.02249e-05
6.28723e-06
-9.4676e-06
6.43063e-06
-8.76377e-06
6.53345e-06
-8.11026e-06
6.60253e-06
-7.50378e-06
6.64326e-06
-6.9411e-06
6.65963e-06
-6.41922e-06
6.65438e-06
-5.93542e-06
6.62898e-06
6.584e-06
-1.23891e-06
-2.50969e-05
-2.40907e-06
-2.39984e-05
-3.45686e-06
-2.21989e-05
-4.40142e-06
-2.05043e-05
-5.27818e-06
-1.90711e-05
-6.11709e-06
-1.79194e-05
-6.9403e-06
-1.70156e-05
-7.76281e-06
-1.63089e-05
-8.59472e-06
-1.57454e-05
-9.44259e-06
-1.52746e-05
-1.03103e-05
-1.48523e-05
-1.11995e-05
-1.44424e-05
-1.21101e-05
-1.4016e-05
-1.30393e-05
-1.35508e-05
-1.3982e-05
-1.30289e-05
-1.4929e-05
-1.24359e-05
-1.58665e-05
-1.17591e-05
-1.67751e-05
-1.09879e-05
-1.76282e-05
-1.0114e-05
-1.83924e-05
-9.13309e-06
-1.90286e-05
-8.04708e-06
-1.94962e-05
-6.86673e-06
-1.97593e-05
-5.61348e-06
-1.97953e-05
-4.31933e-06
-1.96001e-05
-3.02349e-06
-1.91902e-05
-1.7663e-06
-1.85981e-05
-5.82705e-07
-1.7865e-05
5.02014e-07
-1.70337e-05
1.47291e-06
-1.61432e-05
2.32457e-06
-1.52258e-05
3.05925e-06
-1.43067e-05
3.68424e-06
-1.34039e-05
4.20963e-06
-1.25301e-05
4.64661e-06
-1.16933e-05
5.00641e-06
-1.08981e-05
5.29961e-06
-1.01466e-05
5.5358e-06
-9.43941e-06
5.72346e-06
-8.77579e-06
5.86986e-06
-8.15435e-06
5.98112e-06
-7.57329e-06
6.06223e-06
-7.03063e-06
6.11699e-06
-6.52435e-06
6.14812e-06
-6.05257e-06
6.1572e-06
6.14503e-06
-1.18896e-06
-2.3908e-05
-2.31809e-06
-2.28691e-05
-3.34155e-06
-2.11754e-05
-4.2733e-06
-1.95725e-05
-5.13817e-06
-1.82062e-05
-5.96085e-06
-1.70966e-05
-6.76078e-06
-1.62157e-05
-7.55204e-06
-1.55176e-05
-8.34463e-06
-1.49529e-05
-9.14475e-06
-1.44744e-05
-9.95591e-06
-1.40411e-05
-1.0779e-05
-1.36193e-05
-1.16125e-05
-1.31825e-05
-1.24529e-05
-1.27105e-05
-1.32936e-05
-1.21882e-05
-1.41253e-05
-1.16041e-05
-1.49351e-05
-1.09493e-05
-1.57059e-05
-1.02171e-05
-1.64163e-05
-9.40354e-06
-1.70412e-05
-8.50819e-06
-1.7553e-05
-7.53531e-06
-1.79245e-05
-6.4952e-06
-1.8133e-05
-5.40491e-06
-1.81647e-05
-4.28761e-06
-1.80177e-05
-3.17047e-06
-1.77028e-05
-2.08123e-06
-1.72409e-05
-1.04457e-06
-1.66595e-05
-7.94505e-08
-1.59881e-05
8.01573e-07
-1.52556e-05
1.59201e-06
-1.4487e-05
2.29064e-06
-1.37031e-05
2.90038e-06
-1.29203e-05
3.42683e-06
-1.21507e-05
3.87708e-06
-1.14031e-05
4.25888e-06
-1.06835e-05
4.57998e-06
-9.99544e-06
4.84779e-06
-9.34108e-06
5.06912e-06
-8.72123e-06
5.25003e-06
-8.13586e-06
5.39579e-06
-7.58439e-06
5.51079e-06
-7.06588e-06
5.5985e-06
-6.57922e-06
5.66146e-06
-6.12326e-06
5.70124e-06
5.71871e-06
-1.14482e-06
-2.27631e-05
-2.22953e-06
-2.17843e-05
-3.21965e-06
-2.01852e-05
-4.12612e-06
-1.86661e-05
-4.96864e-06
-1.73636e-05
-5.76746e-06
-1.62978e-05
-6.53909e-06
-1.5444e-05
-7.29639e-06
-1.47603e-05
-8.04841e-06
-1.42009e-05
-8.80087e-06
-1.37219e-05
-9.55666e-06
-1.32853e-05
-1.03161e-05
-1.28599e-05
-1.10771e-05
-1.24214e-05
-1.18357e-05
-1.19519e-05
-1.25852e-05
-1.14387e-05
-1.33168e-05
-1.08725e-05
-1.40191e-05
-1.0247e-05
-1.46777e-05
-9.55842e-06
-1.5276e-05
-8.80524e-06
-1.57952e-05
-7.98903e-06
-1.62157e-05
-7.11481e-06
-1.65191e-05
-6.19173e-06
-1.66908e-05
-5.23319e-06
-1.67221e-05
-4.25628e-06
-1.66122e-05
-3.28036e-06
-1.63683e-05
-2.32512e-06
-1.60045e-05
-1.40842e-06
-1.55392e-05
-5.44685e-07
-1.49935e-05
2.55827e-07
-1.43883e-05
9.86776e-07
-1.3743e-05
1.6454e-06
-1.30746e-05
2.23205e-06
-1.23972e-05
2.74945e-06
-1.1722e-05
3.20186e-06
-1.10575e-05
3.59442e-06
-1.04101e-05
3.93266e-06
-9.78445e-06
4.22212e-06
-9.18341e-06
4.4681e-06
-8.6089e-06
4.67554e-06
-8.06189e-06
4.84879e-06
-7.54271e-06
4.99163e-06
-7.05128e-06
5.10708e-06
-6.58722e-06
5.19741e-06
-6.15006e-06
5.26407e-06
5.30793e-06
-1.09962e-06
-2.16635e-05
-2.13879e-06
-2.07451e-05
-3.09139e-06
-1.92326e-05
-3.96577e-06
-1.77916e-05
-4.77921e-06
-1.65501e-05
-5.54848e-06
-1.55286e-05
-6.2879e-06
-1.47045e-05
-7.00892e-06
-1.40394e-05
-7.71948e-06
-1.34903e-05
-8.42477e-06
-1.30167e-05
-9.1271e-06
-1.2583e-05
-9.82638e-06
-1.21606e-05
-1.05205e-05
-1.17273e-05
-1.12052e-05
-1.12672e-05
-1.18745e-05
-1.07694e-05
-1.25203e-05
-1.02266e-05
-1.3133e-05
-9.63437e-06
-1.37009e-05
-8.99055e-06
-1.42109e-05
-8.2952e-06
-1.46491e-05
-7.55076e-06
-1.50016e-05
-6.76225e-06
-1.52559e-05
-5.93748e-06
-1.54021e-05
-5.087e-06
-1.54347e-05
-4.22361e-06
-1.53535e-05
-3.36153e-06
-1.51636e-05
-2.51509e-06
-1.48744e-05
-1.69754e-06
-1.44992e-05
-9.19971e-07
-1.40526e-05
-1.90787e-07
-1.35501e-05
4.84347e-07
-1.30068e-05
1.10217e-06
-1.24364e-05
1.66165e-06
-1.18506e-05
2.16372e-06
-1.12594e-05
2.61069e-06
-1.06708e-05
3.00584e-06
-1.00911e-05
3.35297e-06
-9.5251e-06
3.65611e-06
-8.97629e-06
3.9193e-06
-8.44717e-06
4.14643e-06
-7.93939e-06
4.34103e-06
-7.45397e-06
4.50622e-06
-6.99147e-06
4.64457e-06
-6.5521e-06
4.75803e-06
-6.13591e-06
4.84787e-06
4.91489e-06
-1.05051e-06
-2.0613e-05
-2.04439e-06
-1.97512e-05
-2.95698e-06
-1.832e-05
-3.79581e-06
-1.69527e-05
-4.57582e-06
-1.57702e-05
-5.31154e-06
-1.47928e-05
-6.01592e-06
-1.40001e-05
-6.69898e-06
-1.33563e-05
-7.36783e-06
-1.28214e-05
-8.02698e-06
-1.23576e-05
-8.67834e-06
-1.19317e-05
-9.32161e-06
-1.15173e-05
-9.95467e-06
-1.10942e-05
-1.05735e-05
-1.06483e-05
-1.11728e-05
-1.01701e-05
-1.17455e-05
-9.65382e-06
-1.22836e-05
-9.09629e-06
-1.27777e-05
-8.49646e-06
-1.32177e-05
-7.85517e-06
-1.35932e-05
-7.17519e-06
-1.38943e-05
-6.46115e-06
-1.41122e-05
-5.71962e-06
-1.42402e-05
-4.95893e-06
-1.42749e-05
-4.18889e-06
-1.42163e-05
-3.42016e-06
-1.40679e-05
-2.66346e-06
-1.38366e-05
-1.92881e-06
-1.35317e-05
-1.22487e-06
-1.3164e-05
-5.58519e-07
-1.27449e-05
6.53009e-08
-1.22861e-05
6.43372e-07
-1.17984e-05
1.17405e-06
-1.12919e-05
1.65715e-06
-1.07748e-05
2.09371e-06
-1.02546e-05
2.48567e-06
-9.73719e-06
2.83552e-06
-9.22722e-06
3.14614e-06
-8.72845e-06
3.42052e-06
-8.24366e-06
3.66164e-06
-7.77494e-06
3.8723e-06
-7.32375e-06
4.05503e-06
-6.89112e-06
4.21192e-06
-6.4777e-06
4.34461e-06
-6.08397e-06
4.45414e-06
4.54121e-06
-1.00067e-06
-1.96122e-05
-1.9489e-06
-1.88029e-05
-2.81929e-06
-1.74495e-05
-3.61974e-06
-1.61522e-05
-4.36305e-06
-1.50268e-05
-5.06261e-06
-1.40932e-05
-5.73008e-06
-1.33328e-05
-6.3743e-06
-1.27121e-05
-7.00178e-06
-1.2194e-05
-7.6163e-06
-1.1743e-05
-8.2195e-06
-1.13285e-05
-8.81101e-06
-1.09258e-05
-9.38874e-06
-1.05165e-05
-9.9491e-06
-1.00879e-05
-1.04874e-05
-9.63185e-06
-1.09977e-05
-9.14348e-06
-1.14734e-05
-8.62059e-06
-1.1907e-05
-8.06279e-06
-1.22909e-05
-7.47134e-06
-1.26171e-05
-6.84895e-06
-1.28785e-05
-6.19976e-06
-1.30688e-05
-5.52924e-06
-1.31836e-05
-4.84409e-06
-1.32206e-05
-4.15193e-06
-1.31798e-05
-3.46092e-06
-1.3064e-05
-2.77926e-06
-1.28781e-05
-2.11468e-06
-1.2629e-05
-1.47403e-06
-1.23245e-05
-8.62943e-07
-1.19735e-05
-2.85712e-07
-1.15848e-05
2.54706e-07
-1.11672e-05
7.56465e-07
-1.07288e-05
1.21878e-06
-1.02769e-05
1.64183e-06
-9.81785e-06
2.02663e-06
-9.35707e-06
2.37474e-06
-8.89904e-06
2.68811e-06
-8.44743e-06
2.96891e-06
-8.00517e-06
3.21937e-06
-7.57453e-06
3.44165e-06
-7.15727e-06
3.63775e-06
-6.75472e-06
3.80934e-06
-6.36786e-06
3.95774e-06
-5.99747e-06
4.08377e-06
4.18798e-06
-9.53212e-07
-1.86589e-05
-1.85437e-06
-1.79017e-05
-2.68061e-06
-1.66232e-05
-3.43997e-06
-1.5393e-05
-4.14433e-06
-1.43224e-05
-4.80612e-06
-1.34314e-05
-5.43567e-06
-1.27032e-05
-6.04102e-06
-1.21067e-05
-6.62793e-06
-1.16071e-05
-7.19969e-06
-1.11712e-05
-7.75766e-06
-1.07705e-05
-8.30144e-06
-1.0382e-05
-8.82908e-06
-9.98886e-06
-9.33745e-06
-9.57956e-06
-9.8225e-06
-9.14683e-06
-1.02793e-05
-8.68667e-06
-1.07024e-05
-8.19741e-06
-1.10861e-05
-7.67912e-06
-1.14242e-05
-7.13318e-06
-1.17111e-05
-6.56213e-06
-1.19412e-05
-5.9696e-06
-1.21103e-05
-5.36016e-06
-1.22151e-05
-4.73924e-06
-1.22541e-05
-4.11286e-06
-1.22277e-05
-3.4874e-06
-1.21377e-05
-2.86924e-06
-1.19879e-05
-2.26446e-06
-1.17834e-05
-1.67853e-06
-1.15302e-05
-1.11609e-06
-1.12351e-05
-5.80842e-07
-1.09049e-05
-7.54743e-08
-1.05466e-05
3.98193e-07
-1.01669e-05
8.39092e-07
-9.77195e-06
1.24689e-06
-9.36726e-06
1.62194e-06
-8.95765e-06
1.96513e-06
-8.54728e-06
2.27772e-06
-8.13962e-06
2.56124e-06
-7.73757e-06
2.8173e-06
-7.3435e-06
3.04755e-06
-6.95929e-06
3.25351e-06
-6.58646e-06
3.43649e-06
-6.22623e-06
3.59749e-06
-5.87958e-06
3.73715e-06
3.85585e-06
-9.06083e-07
-1.77529e-05
-1.75884e-06
-1.70489e-05
-2.53984e-06
-1.58423e-05
-3.25674e-06
-1.46761e-05
-3.92134e-06
-1.36578e-05
-4.54482e-06
-1.2808e-05
-5.13644e-06
-1.21116e-05
-5.70355e-06
-1.15396e-05
-6.25115e-06
-1.10595e-05
-6.78223e-06
-1.06402e-05
-7.2979e-06
-1.02548e-05
-7.79771e-06
-9.88216e-06
-8.27998e-06
-9.50658e-06
-8.74203e-06
-9.11752e-06
-9.18039e-06
-8.70849e-06
-9.59102e-06
-8.27602e-06
-9.96955e-06
-7.81885e-06
-1.03114e-05
-7.33727e-06
-1.06119e-05
-6.83267e-06
-1.08666e-05
-6.30738e-06
-1.10717e-05
-5.76454e-06
-1.12238e-05
-5.20802e-06
-1.13208e-05
-4.64223e-06
-1.13616e-05
-4.07201e-06
-1.13466e-05
-3.50243e-06
-1.12773e-05
-2.93855e-06
-1.11565e-05
-2.38522e-06
-1.09882e-05
-1.84685e-06
-1.0777e-05
-1.32732e-06
-1.0528e-05
-8.2977e-07
-1.02468e-05
-3.56654e-07
-9.93891e-06
9.03018e-08
-9.60975e-06
5.09948e-07
-9.26452e-06
9.01663e-07
-8.90796e-06
1.26537e-06
-8.54432e-06
1.60147e-06
-8.17734e-06
1.91073e-06
-7.81026e-06
2.19416e-06
-7.44587e-06
2.4529e-06
-7.0865e-06
2.68815e-06
-6.73407e-06
2.90105e-06
-6.39019e-06
3.09259e-06
-6.05621e-06
3.2635e-06
-5.73329e-06
3.41423e-06
3.54504e-06
-8.55322e-07
-1.68975e-05
-1.65915e-06
-1.6245e-05
-2.39498e-06
-1.51065e-05
-3.07009e-06
-1.40009e-05
-3.69546e-06
-1.30324e-05
-4.2811e-06
-1.22223e-05
-4.83558e-06
-1.15571e-05
-5.36553e-06
-1.10097e-05
-5.87541e-06
-1.05496e-05
-6.36794e-06
-1.01476e-05
-6.84405e-06
-9.77872e-06
-7.30336e-06
-9.42286e-06
-7.74443e-06
-9.06552e-06
-8.16499e-06
-8.69698e-06
-8.56215e-06
-8.31132e-06
-8.93262e-06
-7.90553e-06
-9.27288e-06
-7.47858e-06
-9.5793e-06
-7.03087e-06
-9.84825e-06
-6.56371e-06
-1.00764e-05
-6.07923e-06
-1.02607e-05
-5.58016e-06
-1.0399e-05
-5.06976e-06
-1.04895e-05
-4.55167e-06
-1.05317e-05
-4.02982e-06
-1.05259e-05
-3.5083e-06
-1.04732e-05
-2.99119e-06
-1.0376e-05
-2.48242e-06
-1.02373e-05
-1.98561e-06
-1.00606e-05
-1.50398e-06
-9.85011e-06
-1.04025e-06
-9.61014e-06
-5.96607e-07
-9.34513e-06
-1.74688e-07
-9.05955e-06
2.2437e-07
-8.75772e-06
5.99823e-07
-8.44368e-06
9.5133e-07
-8.12116e-06
1.27895e-06
-7.7935e-06
1.58307e-06
-7.46367e-06
1.86432e-06
-7.13427e-06
2.12347e-06
-6.80752e-06
2.36137e-06
-6.48533e-06
2.57883e-06
-6.16933e-06
2.77656e-06
-5.86093e-06
2.95508e-06
-5.56139e-06
3.11467e-06
3.25545e-06
-8.00762e-07
-1.60967e-05
-1.55582e-06
-1.549e-05
-2.24745e-06
-1.44149e-05
-2.88219e-06
-1.33662e-05
-3.46935e-06
-1.24453e-05
-4.01814e-06
-1.16735e-05
-4.53649e-06
-1.10387e-05
-5.03046e-06
-1.05157e-05
-5.50418e-06
-1.00758e-05
-5.96009e-06
-9.69174e-06
-6.39911e-06
-9.33973e-06
-6.82092e-06
-9.00105e-06
-7.22436e-06
-8.66211e-06
-7.6075e-06
-8.31383e-06
-7.96797e-06
-7.95082e-06
-8.30312e-06
-7.57036e-06
-8.6101e-06
-7.17161e-06
-8.88601e-06
-6.75496e-06
-9.12802e-06