/*--------------------------------*- C++ -*----------------------------------*\
| =========                 |                                                 |
| \\      /  F ield         | OpenFOAM: The Open Source CFD Toolbox           |
|  \\    /   O peration     | Version:  5.0                                   |
|   \\  /    A nd           | Web:      www.OpenFOAM.org                      |
|    \\/     M anipulation  |                                                 |
\*---------------------------------------------------------------------------*/
FoamFile
{
    version     2.0;
    format      ascii;
    class       volVectorField;
    location    "0.05";
    object      U;
}
// * * * * * * * * * * * * * * * * * * * * * * * * * * * * * * * * * * * * * //

dimensions      [0 1 -1 0 0 0 0];

internalField   nonuniform List<vector> 
1915
(
(0.0274757 -0.257175 0)
(0.0286392 -0.258048 0)
(0.0290565 -0.257078 0)
(0.0301038 -0.249509 0)
(0.0315153 -0.235618 0)
(0.0326386 -0.0531275 0)
(0.0267055 0.0687221 0)
(0.0217049 0.144363 0)
(0.0170252 0.186815 0)
(0.0126166 0.206928 0)
(0.00893029 0.21335 0)
(0.00609945 0.212096 0)
(0.00410953 0.206948 0)
(0.00284979 0.200059 0)
(0.00219054 0.192556 0)
(0.00201387 0.184987 0)
(0.00221926 0.1776 0)
(0.0027168 0.170498 0)
(0.00342583 0.163712 0)
(0.0042796 0.157243 0)
(0.00522671 0.151075 0)
(0.00622736 0.145178 0)
(0.00724789 0.139512 0)
(0.00826618 0.134024 0)
(0.00925458 0.128656 0)
(0.000648242 -0.376139 0)
(0.00168929 -0.35419 0)
(0.00293178 -0.324877 0)
(0.00428804 -0.298818 0)
(0.00567451 -0.27774 0)
(0.00704686 -0.261754 0)
(0.00837734 -0.250338 0)
(0.00966469 -0.242757 0)
(0.0109143 -0.238234 0)
(0.0121332 -0.236043 0)
(0.0133244 -0.235558 0)
(0.0144877 -0.236276 0)
(0.015621 -0.237818 0)
(0.0167209 -0.239915 0)
(0.0177846 -0.242383 0)
(0.0188088 -0.245098 0)
(0.0197925 -0.247963 0)
(0.0207397 -0.25088 0)
(0.0216582 -0.25372 0)
(0.0225819 -0.256286 0)
(0.0235796 -0.258272 0)
(0.0246301 -0.259206 0)
(0.0250638 -0.258296 0)
(0.0260527 -0.250507 0)
(0.0274646 -0.235918 0)
(0.0281248 -0.0496049 0)
(0.0212537 0.0737995 0)
(0.0149283 0.15006 0)
(0.00896271 0.192211 0)
(0.00372375 0.21152 0)
(-0.000412466 0.216929 0)
(-0.00335559 0.214668 0)
(-0.00522488 0.208611 0)
(-0.00621958 0.200951 0)
(-0.00652778 0.192825 0)
(-0.00630601 0.184774 0)
(-0.00568318 0.177027 0)
(-0.00476938 0.169665 0)
(-0.00365719 0.162699 0)
(-0.0024194 0.156115 0)
(-0.00111049 0.149881 0)
(0.000228917 0.143957 0)
(0.00156461 0.138294 0)
(0.0028729 0.132835 0)
(0.00413858 0.127507 0)
(0.00074586 -0.376604 0)
(0.00163298 -0.355002 0)
(0.00260837 -0.325989 0)
(0.00371457 -0.300105 0)
(0.00482723 -0.279057 0)
(0.00592676 -0.263047 0)
(0.00700232 -0.251593 0)
(0.00805175 -0.243976 0)
(0.00908416 -0.239425 0)
(0.0101038 -0.237211 0)
(0.0111115 -0.236705 0)
(0.0121047 -0.237399 0)
(0.0130773 -0.238913 0)
(0.0140218 -0.240974 0)
(0.0149314 -0.243402 0)
(0.0158008 -0.246074 0)
(0.0166263 -0.248896 0)
(0.0174082 -0.251779 0)
(0.0181572 -0.254603 0)
(0.0189005 -0.257182 0)
(0.019718 -0.259231 0)
(0.0206485 -0.260279 0)
(0.0211017 -0.259477 0)
(0.0219704 -0.25159 0)
(0.0235265 -0.235968 0)
(0.0236902 -0.0452636 0)
(0.0150331 0.0805487 0)
(0.00666877 0.157361 0)
(-0.000793758 0.198819 0)
(-0.00688326 0.216804 0)
(-0.0113231 0.220761 0)
(-0.0141821 0.217163 0)
(-0.015724 0.209982 0)
(-0.0162441 0.201429 0)
(-0.0160038 0.192621 0)
(-0.015213 0.184066 0)
(-0.0140351 0.17596 0)
(-0.0125974 0.168352 0)
(-0.0109977 0.161228 0)
(-0.00930883 0.154551 0)
(-0.00758416 0.148277 0)
(-0.00586332 0.142353 0)
(-0.00417734 0.136721 0)
(-0.00254908 0.131316 0)
(-0.000992605 0.126062 0)
(0.000157089 -0.377823 0)
(0.000938031 -0.356138 0)
(0.00174524 -0.327092 0)
(0.00275175 -0.301242 0)
(0.00374043 -0.280192 0)
(0.00465533 -0.264146 0)
(0.00553556 -0.252661 0)
(0.00639733 -0.245026 0)
(0.00725546 -0.240467 0)
(0.00811679 -0.238251 0)
(0.00897933 -0.237739 0)
(0.00983548 -0.238421 0)
(0.010675 -0.239912 0)
(0.0114876 -0.241943 0)
(0.012264 -0.244331 0)
(0.0129969 -0.246957 0)
(0.0136804 -0.249731 0)
(0.0143119 -0.25257 0)
(0.0148956 -0.255368 0)
(0.0154613 -0.257961 0)
(0.0160875 -0.260078 0)
(0.016873 -0.261281 0)
(0.0173326 -0.260682 0)
(0.0180439 -0.252846 0)
(0.0197561 -0.235953 0)
(0.0190866 -0.0390732 0)
(0.00729069 0.0898476 0)
(-0.00398598 0.166845 0)
(-0.0132405 0.206817 0)
(-0.0200326 0.222709 0)
(-0.024416 0.224615 0)
(-0.0267753 0.219291 0)
(-0.0275995 0.210771 0)
(-0.0273203 0.20123 0)
(-0.0262766 0.191717 0)
(-0.024719 0.182674 0)
(-0.0228314 0.174244 0)
(-0.0207478 0.166432 0)
(-0.0185653 0.159197 0)
(-0.0163524 0.152477 0)
(-0.0141571 0.146209 0)
(-0.0120135 0.140326 0)
(-0.00994664 0.134761 0)
(-0.00797384 0.129441 0)
(-0.00610644 0.124289 0)
(-0.00236623 -0.382275 0)
(-0.00207239 -0.359505 0)
(-0.000663376 -0.329462 0)
(0.000621854 -0.302984 0)
(0.00178816 -0.281591 0)
(0.00278023 -0.265346 0)
(0.00367062 -0.25376 0)
(0.00451831 -0.246085 0)
(0.00534979 -0.241517 0)
(0.00617534 -0.2393 0)
(0.00699179 -0.238784 0)
(0.00778992 -0.239452 0)
(0.00855914 -0.240918 0)
(0.00929002 -0.242912 0)
(0.00997528 -0.245256 0)
(0.0106092 -0.247829 0)
(0.0111858 -0.250544 0)
(0.0117003 -0.253326 0)
(0.0121522 -0.25608 0)
(0.012568 -0.258667 0)
(0.0130223 -0.260864 0)
(0.0137074 -0.26224 0)
(0.0141738 -0.261865 0)
(0.0147315 -0.254349 0)
(0.0162043 -0.235495 0)
(0.0119512 -0.0289816 0)
(-0.00463586 0.103303 0)
(-0.0192784 0.179235 0)
(-0.0301282 0.216134 0)
(-0.0368671 0.228764 0)
(-0.0403833 0.227925 0)
(-0.0415264 0.220524 0)
(-0.041056 0.210527 0)
(-0.0395337 0.19998 0)
(-0.0373537 0.189809 0)
(-0.0347851 0.180358 0)
(-0.0320101 0.171692 0)
(-0.0291517 0.163767 0)
(-0.0262924 0.156503 0)
(-0.0234871 0.149813 0)
(-0.0207714 0.143615 0)
(-0.018169 0.137829 0)
(-0.0156951 0.13238 0)
(-0.0133595 0.127189 0)
(-0.0111684 0.122173 0)
(-0.00325719 -0.371897 0)
(-0.00656489 -0.356971 0)
(-0.00473122 -0.32924 0)
(-0.00320153 -0.30348 0)
(-0.00169812 -0.282268 0)
(-0.000310416 -0.266052 0)
(0.000958796 -0.254458 0)
(0.00214824 -0.24677 0)
(0.00326823 -0.242181 0)
(0.00431846 -0.239929 0)
(0.0052938 -0.239363 0)
(0.00619018 -0.239968 0)
(0.00700684 -0.241361 0)
(0.0077461 -0.243278 0)
(0.0084121 -0.24554 0)
(0.00900841 -0.248027 0)
(0.00953518 -0.250652 0)
(0.00998873 -0.25334 0)
(0.0103635 -0.256011 0)
(0.0106729 -0.258552 0)
(0.0110086 -0.260823 0)
(0.0116707 -0.262466 0)
(0.0122378 -0.262267 0)
(0.0130963 -0.255107 0)
(0.0127248 -0.232763 0)
(-0.00583866 -0.0111425 0)
(-0.027001 0.122159 0)
(-0.0435514 0.19405 0)
(-0.0539289 0.225645 0)
(-0.0587462 0.233706 0)
(-0.0598668 0.229562 0)
(-0.0586776 0.219957 0)
(-0.0561243 0.208569 0)
(-0.0528131 0.197187 0)
(-0.0491236 0.186549 0)
(-0.0452891 0.176869 0)
(-0.0414521 0.168128 0)
(-0.0376988 0.160228 0)
(-0.0340803 0.153051 0)
(-0.0306259 0.146489 0)
(-0.0273513 0.140443 0)
(-0.0242641 0.134824 0)
(-0.0213659 0.129548 0)
(-0.0186563 0.124534 0)
(-0.0161348 0.119698 0)
(0.0145707 -0.334895 0)
(-0.00756625 -0.336308 0)
(-0.00892401 -0.318125 0)
(-0.00889491 -0.297094 0)
(-0.00734588 -0.278176 0)
(-0.00524009 -0.26316 0)
(-0.00302434 -0.252195 0)
(-0.000902362 -0.244811 0)
(0.00102494 -0.240334 0)
(0.00271458 -0.238079 0)
(0.00416099 -0.237442 0)
(0.0053826 -0.237941 0)
(0.0064102 -0.239215 0)
(0.00727781 -0.24101 0)
(0.00801663 -0.243153 0)
(0.00865033 -0.245524 0)
(0.00919204 -0.248036 0)
(0.00964423 -0.250614 0)
(0.00999566 -0.253187 0)
(0.0102269 -0.255671 0)
(0.0104121 -0.258013 0)
(0.0108522 -0.260129 0)
(0.0110626 -0.260359 0)
(0.0128342 -0.252338 0)
(0.00951124 -0.222012 0)
(-0.0495403 0.0164715 0)
(-0.0681311 0.144724 0)
(-0.0811462 0.20782 0)
(-0.086451 0.231999 0)
(-0.0862464 0.234978 0)
(-0.0828736 0.227716 0)
(-0.0779893 0.216352 0)
(-0.0724917 0.204064 0)
(-0.0668491 0.192294 0)
(-0.0613085 0.181562 0)
(-0.0559927 0.171956 0)
(-0.0509574 0.163381 0)
(-0.0462228 0.155697 0)
(-0.0417909 0.148762 0)
(-0.0376544 0.14245 0)
(-0.0338016 0.136655 0)
(-0.030219 0.131282 0)
(-0.0268919 0.126246 0)
(-0.0238074 0.121464 0)
(-0.0209567 0.116853 0)
(0.0912001 -0.362286 0)
(-0.00776818 -0.334279 0)
(-0.0178624 -0.320469 0)
(-0.0204194 -0.300413 0)
(-0.0177826 -0.281384 0)
(-0.0135477 -0.266107 0)
(-0.00908952 -0.254875 0)
(-0.0049875 -0.247234 0)
(-0.00146746 -0.242513 0)
(0.00142217 -0.240036 0)
(0.00372627 -0.23921 0)
(0.00553538 -0.23956 0)
(0.00695274 -0.24073 0)
(0.00807368 -0.242461 0)
(0.00897561 -0.244572 0)
(0.00971344 -0.246935 0)
(0.010317 -0.249453 0)
(0.0107948 -0.252037 0)
(0.0111333 -0.254604 0)
(0.0112647 -0.257046 0)
(0.0110669 -0.259322 0)
(0.0101461 -0.262099 0)
(0.00697444 -0.262701 0)
(0.00311759 -0.24532 0)
(-0.015155 -0.163579 0)
(-0.118621 0.0572417 0)
(-0.129358 0.165662 0)
(-0.13061 0.214293 0)
(-0.125991 0.2304 0)
(-0.117603 0.229369 0)
(-0.107939 0.22035 0)
(-0.0983367 0.208451 0)
(-0.0893061 0.19624 0)
(-0.0810002 0.184824 0)
(-0.073424 0.174556 0)
(-0.0665268 0.165436 0)
(-0.0602417 0.157339 0)
(-0.0545025 0.150106 0)
(-0.0492502 0.143591 0)
(-0.0444339 0.137669 0)
(-0.0400102 0.132234 0)
(-0.0359421 0.127196 0)
(-0.0321973 0.122471 0)
(-0.0287496 0.117979 0)
(-0.0255811 0.113641 0)
(0.115345 -0.46395 0)
(-0.0156139 -0.309478 0)
(-0.0248382 -0.327294 0)
(-0.034711 -0.31123 0)
(-0.0321506 -0.291917 0)
(-0.0251995 -0.27556 0)
(-0.0175017 -0.26316 0)
(-0.0105264 -0.254485 0)
(-0.00475567 -0.248904 0)
(-0.000229247 -0.245734 0)
(0.00320121 -0.244366 0)
(0.00575102 -0.244307 0)
(0.00763442 -0.24518 0)
(0.00903047 -0.246701 0)
(0.0100745 -0.248664 0)
(0.0108576 -0.250917 0)
(0.0114259 -0.253344 0)
(0.0118 -0.255838 0)
(0.0119946 -0.258304 0)
(0.011996 -0.260588 0)
(0.0116692 -0.26225 0)
(0.00799795 -0.263755 0)
(-0.00648608 -0.266346 0)
(-0.0764291 -0.221711 0)
(-0.167387 -0.0485596 0)
(-0.207206 0.0936266 0)
(-0.200036 0.169677 0)
(-0.184315 0.205182 0)
(-0.166258 0.216503 0)
(-0.148426 0.214531 0)
(-0.132112 0.206217 0)
(-0.117733 0.195595 0)
(-0.105224 0.184751 0)
(-0.0943414 0.174602 0)
(-0.0848195 0.165441 0)
(-0.0764235 0.157272 0)
(-0.0689609 0.149987 0)
(-0.0622795 0.143454 0)
(-0.0562603 0.137547 0)
(-0.05081 0.132157 0)
(-0.0458548 0.127195 0)
(-0.0413351 0.122578 0)
(-0.0372019 0.118235 0)
(-0.0334167 0.114091 0)
(-0.0299531 0.110073 0)
(-0.0531983 -0.450808 0)
(-0.011879 -0.248714 0)
(0.00620788 -0.288749 0)
(-0.000514771 -0.306115 0)
(-0.00981422 -0.30564 0)
(-0.0177906 -0.296504 0)
(-0.0239518 -0.284953 0)
(-0.0286623 -0.274373 0)
(-0.0325688 -0.265959 0)
(-0.036168 -0.25991 0)
(-0.0397805 -0.256016 0)
(-0.0436116 -0.253918 0)
(-0.0478067 -0.253215 0)
(-0.0524905 -0.253538 0)
(-0.0577911 -0.254567 0)
(-0.0638555 -0.256032 0)
(-0.0708697 -0.2577 0)
(-0.0791159 -0.259382 0)
(-0.0889986 -0.26087 0)
(-0.101736 -0.26139 0)
(-0.119654 -0.256781 0)
(-0.146788 -0.236629 0)
(-0.184253 -0.183133 0)
(-0.233331 -0.104585 0)
(-0.270216 -0.00335555 0)
(-0.27135 0.089369 0)
(-0.250291 0.148345 0)
(-0.223404 0.179008 0)
(-0.196769 0.190724 0)
(-0.172646 0.191283 0)
(-0.151697 0.186042 0)
(-0.133865 0.178333 0)
(-0.11875 0.169998 0)
(-0.105876 0.161915 0)
(-0.0948106 0.15443 0)
(-0.0851992 0.147619 0)
(-0.0767642 0.141445 0)
(-0.0692929 0.135832 0)
(-0.0626229 0.1307 0)
(-0.056629 0.125972 0)
(-0.0512139 0.121582 0)
(-0.0463005 0.117468 0)
(-0.0418266 0.11357 0)
(-0.0377436 0.109826 0)
(-0.0340185 0.106173 0)
(-0.00643235 -0.363172 0)
(-0.0087126 -0.321631 0)
(0.00516042 -0.300441 0)
(-0.000984775 -0.287568 0)
(-0.011314 -0.277359 0)
(-0.0226277 -0.267739 0)
(-0.0332378 -0.258896 0)
(-0.0426392 -0.251442 0)
(-0.0510021 -0.245667 0)
(-0.0586966 -0.241562 0)
(-0.0660971 -0.238924 0)
(-0.0735286 -0.237462 0)
(-0.0812747 -0.236861 0)
(-0.0895959 -0.236828 0)
(-0.0987437 -0.237089 0)
(-0.108986 -0.237384 0)
(-0.12065 -0.237421 0)
(-0.134209 -0.236784 0)
(-0.150348 -0.234736 0)
(-0.170241 -0.229811 0)
(-0.195337 -0.218169 0)
(-0.22601 -0.192432 0)
(-0.25959 -0.14608 0)
(-0.289732 -0.0799785 0)
(-0.303379 -0.0018361 0)
(-0.294226 0.0682222 0)
(-0.270413 0.116944 0)
(-0.241637 0.145566 0)
(-0.213145 0.159402 0)
(-0.187208 0.16367 0)
(-0.164593 0.162405 0)
(-0.145272 0.158328 0)
(-0.12886 0.153061 0)
(-0.114876 0.14748 0)
(-0.102871 0.142006 0)
(-0.0924662 0.136812 0)
(-0.0833609 0.131951 0)
(-0.0753211 0.127416 0)
(-0.0681659 0.123182 0)
(-0.0617551 0.119215 0)
(-0.055979 0.115476 0)
(-0.0507505 0.111928 0)
(-0.0459994 0.108528 0)
(-0.0416708 0.105228 0)
(-0.0377272 0.101975 0)
(-0.00703817 -0.36866 0)
(-0.0100423 -0.331753 0)
(-0.0092523 -0.300395 0)
(-0.0142193 -0.278866 0)
(-0.0225675 -0.264528 0)
(-0.0326774 -0.25404 0)
(-0.0431677 -0.245839 0)
(-0.0533113 -0.239404 0)
(-0.0629492 -0.23452 0)
(-0.0722071 -0.230979 0)
(-0.0813177 -0.228525 0)
(-0.090546 -0.22687 0)
(-0.100166 -0.225726 0)
(-0.11045 -0.224817 0)
(-0.121669 -0.223869 0)
(-0.134106 -0.22258 0)
(-0.148095 -0.220555 0)
(-0.164057 -0.217209 0)
(-0.182496 -0.211539 0)
(-0.203945 -0.201855 0)
(-0.228704 -0.1853 0)
(-0.255466 -0.157996 0)
(-0.280484 -0.116894 0)
(-0.298141 -0.0640282 0)
(-0.302198 -0.00541321 0)
(-0.291032 0.0473202 0)
(-0.269487 0.0870009 0)
(-0.243574 0.113169 0)
(-0.217264 0.128355 0)
(-0.192706 0.135735 0)
(-0.170805 0.138093 0)
(-0.151725 0.137478 0)
(-0.135257 0.135238 0)
(-0.121051 0.132188 0)
(-0.108742 0.12879 0)
(-0.0980058 0.125293 0)
(-0.0885692 0.121823 0)
(-0.0802138 0.11844 0)
(-0.0727656 0.11517 0)
(-0.0660863 0.112019 0)
(-0.0600654 0.108982 0)
(-0.0546145 0.106042 0)
(-0.0496611 0.103176 0)
(-0.0451483 0.10035 0)
(-0.0410364 0.0975241 0)
(-0.00826154 -0.350921 0)
(-0.0167553 -0.326956 0)
(-0.0213174 -0.296214 0)
(-0.0267763 -0.272469 0)
(-0.0338548 -0.255896 0)
(-0.0422968 -0.24416 0)
(-0.0514845 -0.235564 0)
(-0.0609115 -0.229181 0)
(-0.0703684 -0.224456 0)
(-0.0798406 -0.220971 0)
(-0.0894284 -0.218358 0)
(-0.099298 -0.216285 0)
(-0.109652 -0.214449 0)
(-0.120709 -0.212569 0)
(-0.132689 -0.210355 0)
(-0.145817 -0.207473 0)
(-0.160337 -0.203485 0)
(-0.17649 -0.197762 0)
(-0.194485 -0.189359 0)
(-0.214313 -0.176891 0)
(-0.235472 -0.158487 0)
(-0.256378 -0.132155 0)
(-0.273912 -0.097169 0)
(-0.284286 -0.0553409 0)
(-0.284537 -0.0111316 0)
(-0.274393 0.0292322 0)
(-0.256742 0.0615826 0)
(-0.235273 0.085001 0)
(-0.212858 0.100537 0)
(-0.191299 0.109968 0)
(-0.171515 0.115067 0)
(-0.153828 0.117274 0)
(-0.138216 0.117637 0)
(-0.124495 0.116859 0)
(-0.112426 0.115389 0)
(-0.101775 0.113511 0)
(-0.0923272 0.111398 0)
(-0.0839047 0.109159 0)
(-0.0763575 0.10686 0)
(-0.0695626 0.10454 0)
(-0.0634192 0.10222 0)
(-0.0578444 0.0999059 0)
(-0.0527692 0.0975909 0)
(-0.0481384 0.0952561 0)
(-0.0439134 0.0928735 0)
(-0.00819323 -0.335984 0)
(-0.0191765 -0.316892 0)
(-0.0270697 -0.288598 0)
(-0.0338462 -0.264927 0)
(-0.0408409 -0.247331 0)
(-0.0485103 -0.234604 0)
(-0.0567695 -0.225374 0)
(-0.0654296 -0.218653 0)
(-0.0743699 -0.213715 0)
(-0.0835546 -0.209996 0)
(-0.0930249 -0.207031 0)
(-0.102879 -0.204436 0)
(-0.113252 -0.201881 0)
(-0.12429 -0.199073 0)
(-0.136139 -0.195717 0)
(-0.148934 -0.191479 0)
(-0.162796 -0.185947 0)
(-0.177798 -0.178562 0)
(-0.19389 -0.168584 0)
(-0.210781 -0.155046 0)
(-0.227732 -0.13689 0)
(-0.24332 -0.113237 0)
(-0.255399 -0.0841166 0)
(-0.26168 -0.0510778 0)
(-0.260653 -0.0170277 0)
(-0.252401 0.0145543 0)
(-0.238637 0.0411466 0)
(-0.221649 0.0618577 0)
(-0.203418 0.0770017 0)
(-0.185342 0.0874914 0)
(-0.168248 0.0943863 0)
(-0.152533 0.0986457 0)
(-0.138313 0.101034 0)
(-0.125544 0.102119 0)
(-0.114111 0.1023 0)
(-0.103869 0.101859 0)
(-0.0946775 0.100987 0)
(-0.0864043 0.0998186 0)
(-0.078934 0.0984456 0)
(-0.0721671 0.096931 0)
(-0.0660186 0.0953154 0)
(-0.0604167 0.0936216 0)
(-0.0552999 0.0918573 0)
(-0.0506183 0.0900159 0)
(-0.0463366 0.0880805 0)
(-0.00775454 -0.32037 0)
(-0.0193001 -0.304313 0)
(-0.0286991 -0.278741 0)
(-0.036549 -0.256104 0)
(-0.0439366 -0.238429 0)
(-0.0514579 -0.225222 0)
(-0.059279 -0.215507 0)
(-0.0674262 -0.208381 0)
(-0.0758804 -0.203083 0)
(-0.084639 -0.198986 0)
(-0.0937342 -0.195573 0)
(-0.103229 -0.192426 0)
(-0.113208 -0.189199 0)
(-0.123755 -0.18559 0)
(-0.134944 -0.181313 0)
(-0.14683 -0.176063 0)
(-0.159429 -0.169487 0)
(-0.172691 -0.16115 0)
(-0.186432 -0.150527 0)
(-0.200256 -0.137027 0)
(-0.213457 -0.120097 0)
(-0.224946 -0.0994407 0)
(-0.233331 -0.0753492 0)
(-0.237269 -0.0489642 0)
(-0.235974 -0.0221163 0)
(-0.229589 0.00314077 0)
(-0.21912 0.0252406 0)
(-0.205992 0.0434467 0)
(-0.191533 0.0577393 0)
(-0.176771 0.0685351 0)
(-0.162398 0.0764299 0)
(-0.148814 0.0820298 0)
(-0.136211 0.085867 0)
(-0.124642 0.0883723 0)
(-0.114085 0.0898794 0)
(-0.104476 0.0906405 0)
(-0.0957369 0.090844 0)
(-0.0877834 0.0906302 0)
(-0.0805357 0.090103 0)
(-0.0739205 0.0893379 0)
(-0.0678717 0.0883884 0)
(-0.0623313 0.0872891 0)
(-0.0572483 0.0860582 0)
(-0.0525798 0.0846991 0)
(-0.0482959 0.0832043 0)
(-0.007227 -0.305379 0)
(-0.0185317 -0.291118 0)
(-0.0284169 -0.267846 0)
(-0.0368771 -0.246535 0)
(-0.0446455 -0.22931 0)
(-0.0522117 -0.216059 0)
(-0.0598368 -0.206108 0)
(-0.0676412 -0.198673 0)
(-0.0756778 -0.193027 0)
(-0.0839837 -0.188541 0)
(-0.0925988 -0.184691 0)
(-0.101569 -0.181044 0)
(-0.110941 -0.177251 0)
(-0.120754 -0.173016 0)
(-0.131023 -0.168072 0)
(-0.141745 -0.162156 0)
(-0.15287 -0.154984 0)
(-0.164279 -0.146246 0)
(-0.175739 -0.135596 0)
(-0.186866 -0.122702 0)
(-0.197079 -0.107317 0)
(-0.205601 -0.08941 0)
(-0.211549 -0.0693223 0)
(-0.21414 -0.0478579 0)
(-0.21296 -0.0261833 0)
(-0.208128 -0.00555173 0)
(-0.200246 0.0130377 0)
(-0.190191 0.029017 0)
(-0.178844 0.042236 0)
(-0.166945 0.0528441 0)
(-0.155041 0.0611512 0)
(-0.143495 0.0675222 0)
(-0.132523 0.0723113 0)
(-0.122236 0.0758314 0)
(-0.11267 0.0783446 0)
(-0.103823 0.0800635 0)
(-0.095665 0.0811578 0)
(-0.0881523 0.081761 0)
(-0.0812378 0.0819771 0)
(-0.0748729 0.0818859 0)
(-0.0690109 0.0815466 0)
(-0.0636084 0.0810003 0)
(-0.0586258 0.0802723 0)
(-0.0540284 0.0793733 0)
(-0.0497924 0.0783027 0)
(-0.00673284 -0.291025 0)
(-0.0175743 -0.277971 0)
(-0.0274328 -0.25651 0)
(-0.0361183 -0.23652 0)
(-0.0440787 -0.219959 0)
(-0.0516662 -0.206941 0)
(-0.059146 -0.196963 0)
(-0.0666667 -0.189354 0)
(-0.0743223 -0.183448 0)
(-0.0821761 -0.178644 0)
(-0.0902731 -0.17443 0)
(-0.0986462 -0.170383 0)
(-0.107319 -0.166161 0)
(-0.116299 -0.161482 0)
(-0.125566 -0.156109 0)
(-0.135076 -0.149824 0)
(-0.144749 -0.142413 0)
(-0.154437 -0.133661 0)
(-0.163913 -0.123362 0)
(-0.172846 -0.111343 0)
(-0.180796 -0.097522 0)
(-0.187224 -0.0819789 0)
(-0.191574 -0.0650232 0)
(-0.193386 -0.0472214 0)
(-0.192434 -0.029329 0)
(-0.188806 -0.0121386 0)
(-0.182869 0.00369393 0)
(-0.175161 0.0177444 0)
(-0.166271 0.0298299 0)
(-0.156719 0.0399646 0)
(-0.146926 0.0482914 0)
(-0.137202 0.0550176 0)
(-0.127758 0.0603695 0)
(-0.118725 0.0645654 0)
(-0.110176 0.0678023 0)
(-0.102145 0.0702506 0)
(-0.0946376 0.0720542 0)
(-0.0876418 0.0733318 0)
(-0.0811364 0.0741802 0)
(-0.0750945 0.0746765 0)
(-0.069487 0.0748803 0)
(-0.0642841 0.0748352 0)
(-0.0594576 0.0745703 0)
(-0.0549812 0.0741003 0)
(-0.0508377 0.0734299 0)
(-0.00633382 -0.277334 0)
(-0.016656 -0.265133 0)
(-0.0262508 -0.245107 0)
(-0.0349055 -0.226307 0)
(-0.0428549 -0.210481 0)
(-0.050368 -0.197837 0)
(-0.0576652 -0.187977 0)
(-0.0649012 -0.18032 0)
(-0.0721858 -0.17426 0)
(-0.0795918 -0.169237 0)
(-0.0871622 -0.164761 0)
(-0.0949205 -0.160428 0)
(-0.102875 -0.155914 0)
(-0.111011 -0.150962 0)
(-0.119294 -0.145365 0)
(-0.12766 -0.138948 0)
(-0.136015 -0.131554 0)
(-0.144215 -0.123042 0)
(-0.152057 -0.113296 0)
(-0.159276 -0.102241 0)
(-0.165546 -0.0898776 0)
(-0.170505 -0.0763191 0)
(-0.173796 -0.0618228 0)
(-0.175146 -0.0467906 0)
(-0.174428 -0.0317253 0)
(-0.171703 -0.0171465 0)
(-0.167199 -0.00349852 0)
(-0.161255 0.00890533 0)
(-0.154258 0.0198913 0)
(-0.14658 0.0294122 0)
(-0.138538 0.0375173 0)
(-0.130383 0.0443152 0)
(-0.122307 0.0499441 0)
(-0.114441 0.054551 0)
(-0.106875 0.0582785 0)
(-0.0996609 0.0612578 0)
(-0.0928285 0.0636052 0)
(-0.0863878 0.0654215 0)
(-0.0803372 0.0667918 0)
(-0.0746668 0.0677863 0)
(-0.0693621 0.0684615 0)
(-0.0644056 0.0688602 0)
(-0.0597792 0.069012 0)
(-0.0554647 0.0689342 0)
(-0.051451 0.0686344 0)
(-0.00604251 -0.264246 0)
(-0.0158358 -0.252711 0)
(-0.0250579 -0.233899 0)
(-0.0335071 -0.216139 0)
(-0.0412918 -0.201047 0)
(-0.0486233 -0.188841 0)
(-0.0556794 -0.179194 0)
(-0.0626091 -0.171591 0)
(-0.06952 -0.16548 0)
(-0.0764811 -0.160336 0)
(-0.08353 -0.1557 0)
(-0.090683 -0.151191 0)
(-0.0979387 -0.146512 0)
(-0.105275 -0.14143 0)
(-0.112646 -0.13577 0)
(-0.119984 -0.129393 0)
(-0.127196 -0.122186 0)
(-0.134152 -0.11406 0)
(-0.140682 -0.104955 0)
(-0.14658 -0.0948517 0)
(-0.151612 -0.0837881 0)
(-0.155531 -0.0718804 0)
(-0.158108 -0.0593339 0)
(-0.159176 -0.0464375 0)
(-0.158661 -0.0335356 0)
(-0.156606 -0.0209809 0)
(-0.153155 -0.00908343 0)
(-0.14853 0.00192331 0)
(-0.142986 0.0118903 0)
(-0.136788 0.0207483 0)
(-0.130172 0.0284967 0)
(-0.123342 0.0351843 0)
(-0.116458 0.040891 0)
(-0.109645 0.0457117 0)
(-0.102992 0.0497464 0)
(-0.0965626 0.0530924 0)
(-0.0903977 0.0558408 0)
(-0.0845217 0.0580734 0)
(-0.0789465 0.0598622 0)
(-0.0736752 0.0612687 0)
(-0.0687044 0.0623436 0)
(-0.0640267 0.0631267 0)
(-0.059633 0.0636465 0)
(-0.0555121 0.0639205 0)
(-0.0516581 0.063958 0)
(-0.00579363 -0.251687 0)
(-0.0150832 -0.240772 0)
(-0.0238889 -0.22303 0)
(-0.0320169 -0.206202 0)
(-0.0395389 -0.191811 0)
(-0.0466056 -0.180068 0)
(-0.053373 -0.170695 0)
(-0.0599736 -0.163224 0)
(-0.0665032 -0.157145 0)
(-0.0730219 -0.151966 0)
(-0.0795612 -0.147259 0)
(-0.0861324 -0.142672 0)
(-0.09273 -0.13793 0)
(-0.0993288 -0.132831 0)
(-0.105881 -0.127225 0)
(-0.112321 -0.121002 0)
(-0.118562 -0.114083 0)
(-0.124495 -0.106414 0)
(-0.129983 -0.0979691 0)
(-0.134868 -0.0887575 0)
(-0.138981 -0.0788321 0)
(-0.142155 -0.0682984 0)
(-0.144239 -0.057318 0)
(-0.145129 -0.0461022 0)
(-0.14478 -0.0348939 0)
(-0.143224 -0.0239401 0)
(-0.140555 -0.0134636 0)
(-0.13692 -0.00364072 0)
(-0.132494 0.00540617 0)
(-0.127462 0.0136054 0)
(-0.122004 0.0209321 0)
(-0.116278 0.0274004 0)
(-0.110418 0.0330519 0)
(-0.104534 0.0379452 0)
(-0.0987105 0.0421478 0)
(-0.0930123 0.0457298 0)
(-0.0874859 0.0487599 0)
(-0.0821634 0.051303 0)
(-0.0770654 0.0534179 0)
(-0.0722036 0.0551565 0)
(-0.067583 0.056563 0)
(-0.0632041 0.0576725 0)
(-0.0590651 0.0585113 0)
(-0.0551606 0.0590957 0)
(-0.0514891 0.0594355 0)
(-0.00552386 -0.239599 0)
(-0.0143437 -0.229333 0)
(-0.0227136 -0.212554 0)
(-0.030468 -0.196593 0)
(-0.0376665 -0.182869 0)
(-0.0444194 -0.171602 0)
(-0.0508661 -0.162542 0)
(-0.0571188 -0.155258 0)
(-0.0632588 -0.14927 0)
(-0.0693385 -0.144122 0)
(-0.0753853 -0.139415 0)
(-0.0814069 -0.134826 0)
(-0.0873962 -0.130106 0)
(-0.0933283 -0.125074 0)
(-0.099158 -0.119604 0)
(-0.104824 -0.11361 0)
(-0.110252 -0.107036 0)
(-0.115349 -0.0998498 0)
(-0.120008 -0.0920467 0)
(-0.12411 -0.0836495 0)
(-0.127534 -0.0747133 0)
(-0.130164 -0.0653294 0)
(-0.131899 -0.055625 0)
(-0.132672 -0.0457574 0)
(-0.132458 -0.035903 0)
(-0.131278 -0.0262399 0)
(-0.129197 -0.0169319 0)
(-0.126315 -0.00811396 0)
(-0.122755 0.000114276 0)
(-0.118647 0.00768752 0)
(-0.114126 0.0145716 0)
(-0.109317 0.0207608 0)
(-0.104328 0.0262726 0)
(-0.0992543 0.0311406 0)
(-0.0941718 0.0354083 0)
(-0.0891421 0.0391248 0)
(-0.0842126 0.0423405 0)
(-0.0794188 0.0451054 0)
(-0.0747858 0.0474664 0)
(-0.070331 0.0494661 0)
(-0.0660651 0.0511415 0)
(-0.0619944 0.052523 0)
(-0.0581228 0.0536334 0)
(-0.0544496 0.0544874 0)
(-0.0509768 0.0550943 0)
(-0.00522844 -0.227991 0)
(-0.0135888 -0.218364 0)
(-0.021514 -0.202481 0)
(-0.0288812 -0.187337 0)
(-0.0357214 -0.17426 0)
(-0.0421347 -0.163477 0)
(-0.0482387 -0.154756 0)
(-0.0541281 -0.147693 0)
(-0.0598738 -0.14184 0)
(-0.0655229 -0.136774 0)
(-0.0710997 -0.132125 0)
(-0.0766098 -0.127596 0)
(-0.082045 -0.122962 0)
(-0.0873815 -0.118062 0)
(-0.0925787 -0.112787 0)
(-0.0975825 -0.107068 0)
(-0.102328 -0.100865 0)
(-0.106742 -0.0941622 0)
(-0.110739 -0.0869644 0)
(-0.114231 -0.0793004 0)
(-0.117129 -0.0712227 0)
(-0.119353 -0.0628085 0)
(-0.120834 -0.0541585 0)
(-0.12153 -0.0453922 0)
(-0.121424 -0.0366408 0)
(-0.120532 -0.028036 0)
(-0.118901 -0.0197007 0)
(-0.116599 -0.0117393 0)
(-0.113715 -0.00423315 0)
(-0.110343 0.00276088 0)
(-0.106584 0.00920702 0)
(-0.102535 0.0150897 0)
(-0.0982844 0.0204112 0)
(-0.0939118 0.0251882 0)
(-0.089484 0.0294474 0)
(-0.0850572 0.0332216 0)
(-0.0806767 0.0365472 0)
(-0.0763781 0.0394616 0)
(-0.0721888 0.0420012 0)
(-0.068129 0.0442002 0)
(-0.0642133 0.046089 0)
(-0.0604517 0.0476927 0)
(-0.0568526 0.0490306 0)
(-0.0534187 0.0501152 0)
(-0.0501548 0.0509548 0)
(-0.00493622 -0.216913 0)
(-0.0128331 -0.207863 0)
(-0.0203136 -0.192836 0)
(-0.0272815 -0.178466 0)
(-0.0337459 -0.166023 0)
(-0.0398025 -0.155723 0)
(-0.0455478 -0.147351 0)
(-0.0510651 -0.140531 0)
(-0.0564186 -0.134847 0)
(-0.0616512 -0.129904 0)
(-0.0667847 -0.125359 0)
(-0.0718232 -0.12094 0)
(-0.0767574 -0.116441 0)
(-0.0815645 -0.111717 0)
(-0.0862091 -0.106672 0)
(-0.090645 -0.101252 0)
(-0.0948182 -0.0954268 0)
(-0.0986683 -0.0891894 0)
(-0.102131 -0.0825516 0)
(-0.10514 -0.0755435 0)
(-0.10763 -0.0682125 0)
(-0.109545 -0.0606234 0)
(-0.110838 -0.0528565 0)
(-0.11148 -0.0450042 0)
(-0.111461 -0.0371659 0)
(-0.110794 -0.0294414 0)
(-0.109511 -0.0219243 0)
(-0.107662 -0.0146966 0)
(-0.105311 -0.00782484 0)
(-0.10253 -0.0013585 0)
(-0.0993926 0.00466891 0)
(-0.0959749 0.0102376 0)
(-0.0923493 0.0153412 0)
(-0.0885811 0.0199853 0)
(-0.084728 0.0241845 0)
(-0.0808397 0.02796 0)
(-0.076958 0.031337 0)
(-0.073117 0.034343 0)
(-0.0693441 0.0370058 0)
(-0.0656609 0.039352 0)
(-0.0620841 0.0414057 0)
(-0.0586262 0.0431874 0)
(-0.0552986 0.0447127 0)
(-0.0521064 0.0459918 0)
(-0.0490561 0.0470314 0)
(-0.00465897 -0.206376 0)
(-0.0120992 -0.197876 0)
(-0.0191366 -0.183674 0)
(-0.0256891 -0.170046 0)
(-0.0317687 -0.158212 0)
(-0.0374547 -0.148379 0)
(-0.0428329 -0.140354 0)
(-0.0479783 -0.133788 0)
(-0.0529491 -0.128294 0)
(-0.0577843 -0.123503 0)
(-0.0625031 -0.119097 0)
(-0.0671082 -0.114822 0)
(-0.0715893 -0.110489 0)
(-0.0759256 -0.105966 0)
(-0.0800865 -0.101171 0)
(-0.0840334 -0.0960569 0)
(-0.0877218 -0.0906015 0)
(-0.0911043 -0.0848043 0)
(-0.0941311 -0.0786799 0)
(-0.0967525 -0.0722573 0)
(-0.0989212 -0.0655783 0)
(-0.100596 -0.0586972 0)
(-0.101745 -0.0516785 0)
(-0.102347 -0.0445945 0)
(-0.102398 -0.0375222 0)
(-0.101906 -0.0305383 0)
(-0.100897 -0.0237158 0)
(-0.0994057 -0.0171201 0)
(-0.097481 -0.0108058 0)
(-0.0951767 -0.00481582 0)
(-0.0925499 0.000819155 0)
(-0.0896587 0.00607881 0)
(-0.0865619 0.0109523 0)
(-0.0833136 0.0154382 0)
(-0.0799626 0.0195428 0)
(-0.0765521 0.0232791 0)
(-0.0731197 0.0266637 0)
(-0.069697 0.0297163 0)
(-0.0663103 0.0324575 0)
(-0.0629815 0.0349074 0)
(-0.0597279 0.0370849 0)
(-0.0565635 0.039006 0)
(-0.0535018 0.0406829 0)
(-0.0505492 0.0421237 0)
(-0.0477128 0.0433332 0)
(-0.0043827 -0.196357 0)
(-0.0113773 -0.188432 0)
(-0.0179721 -0.175026 0)
(-0.0241052 -0.162107 0)
(-0.029795 -0.150847 0)
(-0.0351063 -0.14146 0)
(-0.0401197 -0.133773 0)
(-0.0449027 -0.127465 0)
(-0.0495069 -0.122174 0)
(-0.0539667 -0.117555 0)
(-0.0582992 -0.11331 0)
(-0.0625059 -0.109201 0)
(-0.0665769 -0.105053 0)
(-0.0704932 -0.100746 0)
(-0.0742292 -0.0962072 0)
(-0.0777528 -0.0913955 0)
(-0.0810287 -0.0862955 0)
(-0.0840193 -0.0809094 0)
(-0.0866864 -0.0752529 0)
(-0.0889922 -0.0693527 0)
(-0.0909017 -0.0632452 0)
(-0.0923852 -0.0569756 0)
(-0.0934197 -0.0505963 0)
(-0.0939916 -0.0441648 0)
(-0.0940972 -0.0377417 0)
(-0.0937443 -0.0313875 0)
(-0.0929513 -0.02516 0)
(-0.0917462 -0.0191119 0)
(-0.090165 -0.0132886 0)
(-0.0882491 -0.00772709 0)
(-0.0860434 -0.00245521 0)
(-0.0835932 0.0025077 0)
(-0.0809447 0.00714915 0)
(-0.0781432 0.0114635 0)
(-0.0752296 0.0154519 0)
(-0.0722412 0.0191208 0)
(-0.0692109 0.022481 0)
(-0.0661676 0.0255457 0)
(-0.0631361 0.0283296 0)
(-0.0601372 0.0308479 0)
(-0.0571884 0.0331146 0)
(-0.0543041 0.035142 0)
(-0.051499 0.0369395 0)
(-0.0487806 0.0385126 0)
(-0.0461555 0.0398648 0)
(-0.00409535 -0.186864 0)
(-0.010641 -0.179518 0)
(-0.0167974 -0.166868 0)
(-0.0225225 -0.154618 0)
(-0.0278265 -0.143902 0)
(-0.0327718 -0.134944 0)
(-0.0374324 -0.127592 0)
(-0.0418685 -0.121547 0)
(-0.0461249 -0.116471 0)
(-0.0502321 -0.112037 0)
(-0.0542051 -0.107967 0)
(-0.0580452 -0.104037 0)
(-0.0617435 -0.100085 0)
(-0.0652838 -0.0959997 0)
(-0.0686445 -0.0917158 0)
(-0.0717997 -0.087198 0)
(-0.0747214 -0.0824344 0)
(-0.07738 -0.077429 0)
(-0.0797457 -0.0721969 0)
(-0.0817898 -0.0667622 0)
(-0.0834863 -0.0611566 0)
(-0.0848133 -0.055418 0)
(-0.0857543 -0.0495893 0)
(-0.0862998 -0.043717 0)
(-0.0864479 -0.0378497 0)
(-0.086205 -0.0320358 0)
(-0.0855855 -0.0263222 0)
(-0.0846111 -0.0207517 0)
(-0.0833094 -0.0153623 0)
(-0.0817125 -0.0101857 0)
(-0.0798558 -0.00524684 0)
(-0.0777757 -0.000564048 0)
(-0.0755084 0.00385026 0)
(-0.0730909 0.00798845 0)
(-0.0705578 0.011848 0)
(-0.0679409 0.0154312 0)
(-0.0652691 0.0187439 0)
(-0.0625682 0.0217948 0)
(-0.0598609 0.0245939 0)
(-0.0571669 0.0271521 0)
(-0.0545029 0.0294796 0)
(-0.0518834 0.0315855 0)
(-0.0493234 0.0334764 0)
(-0.0468309 0.0351561 0)
(-0.0444123 0.0366268 0)
(-0.00380341 -0.177936 0)
(-0.00988785 -0.171117 0)
(-0.0156179 -0.159171 0)
(-0.0209498 -0.147549 0)
(-0.0258822 -0.137354 0)
(-0.0304778 -0.128816 0)
(-0.034801 -0.121799 0)
(-0.0389054 -0.116023 0)
(-0.0428316 -0.111168 0)
(-0.0466066 -0.106929 0)
(-0.0502439 -0.103041 0)
(-0.0537452 -0.0992969 0)
(-0.0571035 -0.0955433 0)
(-0.060305 -0.0916791 0)
(-0.0633319 -0.0876436 0)
(-0.0661637 -0.0834062 0)
(-0.068778 -0.0789574 0)
(-0.0711513 -0.0743016 0)
(-0.0732605 -0.0694529 0)
(-0.0750836 -0.0644331 0)
(-0.0766011 -0.0592697 0)
(-0.0777968 -0.0539946 0)
(-0.0786588 -0.0486435 0)
(-0.0791802 -0.0432545 0)
(-0.0793606 -0.0378672 0)
(-0.0792052 -0.0325213 0)
(-0.0787256 -0.0272547 0)
(-0.0779386 -0.0221031 0)
(-0.0768659 -0.0170981 0)
(-0.0755327 -0.012267 0)
(-0.0739669 -0.00763203 0)
(-0.0721979 -0.00321019 0)
(-0.0702553 0.000986392 0)
(-0.068168 0.00494948 0)
(-0.0659657 0.00867445 0)
(-0.0636754 0.0121605 0)
(-0.0613223 0.0154101 0)
(-0.0589292 0.0184282 0)
(-0.0565166 0.0212214 0)
(-0.0541026 0.023797 0)