/*--------------------------------*- C++ -*----------------------------------*\
| =========                 |                                                 |
| \\      /  F ield         | OpenFOAM: The Open Source CFD Toolbox           |
|  \\    /   O peration     | Version:  5.0                                   |
|   \\  /    A nd           | Web:      www.OpenFOAM.org                      |
|    \\/     M anipulation  |                                                 |
\*---------------------------------------------------------------------------*/
FoamFile
{
    version     2.0;
    format      ascii;
    class       surfaceScalarField;
    location    "0.55";
    object      alphaPhi10;
}
// * * * * * * * * * * * * * * * * * * * * * * * * * * * * * * * * * * * * * //

dimensions      [0 3 -1 0 0 0 0];

internalField   nonuniform List<scalar> 
3731
(
-7.83275e-06
-5.05743e-06
-7.82738e-06
-5.91791e-06
-6.10417e-06
-1.37447e-05
-2.44202e-06
-5.29172e-06
-1.61886e-05
6.08847e-07
-3.69327e-06
-1.55946e-05
2.48163e-06
-1.39772e-06
-1.31181e-05
3.70157e-06
1.46544e-06
-9.41653e-06
4.51331e-06
4.71391e-06
-4.90322e-06
5.20325e-06
8.2374e-06
3.00029e-07
6.0538e-06
1.18657e-05
6.35382e-06
7.22524e-06
1.5316e-05
1.35791e-05
-4.92507e-30
5.03568e-30
-3.32547e-29
1.19709e-28
-9.05905e-31
2.25747e-29
-6.15588e-31
3.93309e-31
-2.08455e-30
2.48476e-31
-8.83874e-30
1.26012e-30
-2.23543e-29
3.0477e-30
-4.8591e-29
5.6089e-30
-1.09758e-28
1.00409e-29
-2.69549e-28
1.9428e-29
-6.27213e-28
3.84205e-29
-1.16064e-27
6.6298e-29
-1.6405e-27
8.99383e-29
-1.93707e-27
9.72197e-29
-2.15157e-27
9.12881e-29
-2.46744e-27
8.14517e-29
-3.53413e-27
7.81499e-29
-7.25338e-27
9.52663e-29
-1.54346e-26
1.18047e-28
-2.70661e-26
6.39038e-29
-3.91843e-26
-3.77325e-28
-4.98609e-26
-1.33382e-27
-6.08761e-26
-2.56434e-27
-7.4839e-26
-4.14155e-27
-9.79928e-26
-6.39131e-27
-1.37716e-25
-1.03407e-26
-2.03197e-25
-1.76416e-26
-3.11896e-25
-3.14587e-26
-5.00811e-25
-5.88857e-26
-8.51027e-25
-1.16848e-25
-1.54729e-24
-2.4859e-25
-3.02633e-24
-5.74669e-25
-6.30506e-24
-1.44586e-24
-1.36264e-23
-3.87832e-24
-2.94755e-23
-1.06763e-23
-5.9594e-23
-2.84743e-23
-8.67149e-23
-6.55423e-23
-4.96617e-23
-1.04489e-22
-3.69393e-25
-8.89051e-23
-1.22636e-24
-2.53122e-28
2.72409e-27
-4.96118e-29
3.12669e-28
-2.07482e-29
3.39921e-29
-7.24185e-29
2.59891e-29
-5.57746e-28
2.11526e-28
-2.26439e-27
8.40965e-28
-6.53448e-27
2.22357e-27
-1.61643e-26
4.79543e-27
-3.79478e-26
9.50946e-27
-8.4864e-26
1.80798e-26
-1.6559e-25
3.1505e-26
-2.58168e-25
4.6124e-26
-3.21987e-25
5.41518e-26
-3.48684e-25
5.25328e-26
-3.54549e-25
4.53062e-26
-3.63078e-25
3.64001e-26
-4.25023e-25
2.91931e-26
-7.95021e-25
3.00313e-26
-1.7931e-24
3.56539e-26
-3.43405e-24
1.48063e-26
-5.34345e-24
-9.52567e-26
-7.10066e-24
-3.13086e-25
-8.63284e-24
-6.03425e-25
-1.01658e-23
-9.51831e-25
-1.2121e-23
-1.39313e-24
-1.5117e-23
-2.01728e-24
-1.96673e-23
-3.04738e-24
-2.65387e-23
-4.77252e-24
-3.74986e-23
-7.78612e-24
-5.61701e-23
-1.34885e-23
-9.03355e-23
-2.50972e-23
-1.5831e-22
-5.10954e-23
-3.03075e-22
-1.15482e-22
-6.2113e-22
-2.86755e-22
-1.31093e-21
-7.53856e-22
-2.71366e-21
-1.97242e-21
-4.13405e-21
-4.58277e-21
-2.7178e-21
-7.68778e-21
-4.07023e-23
-7.48575e-21
-1.87222e-22
-5.68274e-28
2.52559e-26
-1.06893e-28
1.00518e-27
-2.20127e-28
2.18987e-28
-2.70289e-27
1.43007e-27
-2.68714e-26
1.35192e-26
-1.49703e-25
7.08368e-26
-5.68147e-25
2.4886e-25
-1.70807e-24
6.71036e-25
-4.44819e-24
1.53221e-24
-1.01226e-23
3.07673e-24
-1.90263e-23
5.29289e-24
-2.79943e-23
7.39555e-24
-3.30663e-23
8.2249e-24
-3.40242e-23
7.63796e-24
-2.93223e-23
6.21874e-24
-2.41441e-23
4.03297e-24
-2.50525e-23
2.7137e-24
-3.65959e-23
2.17539e-24
-8.43343e-23
2.3723e-24
-1.78953e-22
9.99027e-25
-3.0647e-22
-6.68335e-24
-4.3334e-22
-2.49911e-23
-5.3684e-22
-5.15564e-23
-6.22326e-22
-8.22012e-23
-6.98753e-22
-1.1647e-22
-7.93457e-22
-1.55572e-22
-9.3004e-22
-2.11676e-22
-1.12164e-21
-2.96428e-22
-1.41104e-21
-4.28035e-22
-1.88293e-21
-6.55601e-22
-2.69647e-21
-1.07912e-21
-4.23074e-21
-1.94203e-21
-7.39489e-21
-3.92827e-21
-1.42666e-20
-8.97519e-21
-2.92416e-20
-2.24497e-20
-5.95689e-20
-5.76803e-20
-9.44856e-20
-1.35535e-19
-7.05516e-20
-2.37194e-19
-1.66953e-21
-2.52283e-19
-1.00055e-20
-1.18577e-27
1.11655e-25
-8.90869e-28
3.82734e-27
-4.36447e-27
3.74799e-27
-8.49402e-26
6.28378e-26
-1.21463e-24
7.61802e-25
-1.03371e-23
5.80021e-24
-5.55237e-23
2.8798e-23
-2.05458e-22
9.9197e-23
-5.67821e-22
2.541e-22
-1.23195e-21
5.10359e-22
-2.13713e-21
8.2482e-22
-2.98017e-21
1.08069e-21
-3.46468e-21
1.1619e-21
-3.56658e-21
1.07252e-21
-2.90624e-21
8.62106e-22
-1.81638e-21
4.89904e-22
-1.41367e-21
2.48547e-22
-1.48686e-21
1.48962e-22
-2.49747e-21
1.03843e-22
-5.61904e-21
4.49399e-23
-1.04166e-20
-2.50728e-22
-1.58758e-20
-1.05546e-21
-2.05612e-20
-2.44216e-21
-2.38719e-20
-4.09197e-21
-2.578e-20
-5.74954e-21
-2.73803e-20
-7.37616e-21
-2.92381e-20
-9.08226e-21
-3.18656e-20
-1.14558e-20
-3.58881e-20
-1.47044e-20
-4.28881e-20
-1.98777e-20
-5.49374e-20
-2.90843e-20
-7.7032e-20
-4.62714e-20
-1.21815e-19
-8.31626e-20
-2.18561e-19
-1.73186e-19
-4.30269e-19
-4.08309e-19
-8.63846e-19
-1.02429e-18
-1.4096e-18
-2.42268e-18
-1.12329e-18
-4.39239e-18
-3.89568e-20
-4.96392e-18
-2.87127e-19
-3.39176e-27
3.52154e-25
-8.79246e-27
2.13626e-26
-2.62242e-25
2.5436e-25
-4.75109e-24
4.14391e-24
-8.65387e-23
6.33998e-23
-8.75695e-22
5.82723e-22
-5.23635e-21
3.25556e-21
-2.05259e-20
1.20089e-20
-5.74088e-20
3.17487e-20
-1.22979e-19
6.40015e-20
-2.14145e-19
1.03508e-19
-3.1537e-19
1.39599e-19
-3.99029e-19
1.6056e-19
-4.43428e-19
1.59579e-19
-4.48565e-19
1.41295e-19
-3.51314e-19
1.06592e-19
-2.25702e-19
5.74759e-20
-1.58385e-19
2.68587e-20
-1.51762e-19
1.20961e-20
-1.74164e-19
2.76658e-21
-2.68337e-19
-1.23293e-20
-4.07908e-19
-3.72891e-20
-5.47528e-19
-7.98492e-20
-6.48524e-19
-1.40459e-19
-6.95829e-19
-2.03355e-19
-7.00254e-19
-2.5981e-19
-6.94447e-19
-3.02066e-19
-6.91382e-19
-3.44641e-19
-6.98503e-19
-3.93475e-19
-7.46181e-19
-4.63276e-19
-8.56439e-19
-5.90616e-19
-1.07126e-18
-8.23983e-19
-1.51871e-18
-1.2941e-18
-2.5017e-18
-2.41341e-18
-4.66702e-18
-5.28074e-18
-9.13504e-18
-1.27641e-17
-1.51099e-17
-3.01515e-17
-1.27033e-17
-5.63953e-17
-6.05827e-19
-6.73833e-17
-5.30658e-18
-3.25107e-26
9.07605e-25
-2.68671e-25
2.69127e-25
-5.86993e-24
5.80442e-24
-9.95432e-23
9.37921e-23
-1.77561e-21
1.43145e-21
-1.91661e-20
1.44842e-20
-1.16023e-19
8.2651e-20
-4.58919e-19
3.06454e-19
-1.3171e-18
8.24231e-19
-2.9471e-18
1.72414e-18
-5.44846e-18
2.94516e-18
-8.65959e-18
4.26243e-18
-1.20477e-17
5.33557e-18
-1.4709e-17
5.81861e-18
-1.5992e-17
5.55959e-18
-1.58812e-17
4.77439e-18
-1.24704e-17
3.40626e-18
-8.92184e-18
1.8065e-18
-6.84419e-18
7.96162e-19
-6.44238e-18
1.88112e-19
-6.82076e-18
-4.43507e-19
-8.31148e-18
-1.20528e-18
-1.05592e-17
-2.10694e-18
-1.26364e-17
-3.32138e-18
-1.38003e-17
-4.85229e-18
-1.38292e-17
-6.33405e-18
-1.28931e-17
-7.47918e-18
-1.19557e-17
-8.02481e-18
-1.0967e-17
-8.54779e-18
-1.0517e-17
-8.73649e-18
-1.07965e-17
-9.67545e-18
-1.20693e-17
-1.19109e-17
-1.52106e-17
-1.63628e-17
-2.2723e-17
-2.65452e-17
-3.95976e-17
-5.30976e-17
-7.4663e-17
-1.21074e-16
-1.22839e-16
-2.81969e-16
-1.09426e-16
-5.38189e-16
-6.92239e-18
-6.88618e-16
-7.4654e-17
-2.05425e-25
2.27274e-24
-2.96374e-24
3.01114e-24
-5.88491e-23
6.21318e-23
-1.04202e-21
1.05533e-21
-1.79809e-20
1.72185e-20
-1.54976e-19
1.39017e-19
-8.22372e-19
6.77554e-19
-3.06935e-18
2.31493e-18
-8.65726e-18
6.00529e-18
-1.94815e-17
1.23964e-17
-3.67088e-17
2.11997e-17
-5.98717e-17
3.10316e-17
-8.58979e-17
3.95879e-17
-1.0894e-16
4.43734e-17
-1.23974e-16
4.40393e-17
-1.27732e-16
3.9302e-17
-1.17529e-16
3.18814e-17
-9.83728e-17
2.08047e-17
-9.37388e-17
1.16223e-17
-9.67161e-17
4.00114e-18
-1.10688e-16
-6.15177e-18
-1.26182e-16
-2.22011e-17
-1.4057e-16
-3.71418e-17
-1.59072e-16
-4.84632e-17
-1.72749e-16
-6.4012e-17
-1.73065e-16
-8.22142e-17
-1.59893e-16
-9.86201e-17
-1.44713e-16
-1.02998e-16
-1.22918e-16
-1.09643e-16
-1.10611e-16
-1.0258e-16
-1.05696e-16
-1.06108e-16
-1.08535e-16
-1.22354e-16
-1.22986e-16
-1.58163e-16
-1.66366e-16
-2.26095e-16
-2.69316e-16
-4.15859e-16
-4.85162e-16
-8.92828e-16
-7.8868e-16
-2.01209e-15
-7.16522e-16
-3.78529e-15
-6.29192e-17
-4.28647e-15
-9.68091e-16
-6.55296e-25
4.69636e-24
-2.06218e-23
2.32896e-23
-3.72956e-22
4.22807e-22
-6.66922e-21
7.75057e-21
-1.00047e-19
1.03733e-19
-8.07842e-19
7.23827e-19
-4.0883e-18
3.26731e-18
-1.40662e-17
1.04107e-17
-3.51069e-17
2.43509e-17
-6.92269e-17
4.45527e-17
-1.16473e-16
6.8182e-17
-1.74388e-16
9.13175e-17
-2.35881e-16
1.0983e-16
-2.91425e-16
1.20755e-16
-3.3268e-16
1.21853e-16
-3.59148e-16
1.14092e-16
-3.7674e-16
1.00354e-16
-3.96145e-16
8.38921e-17
-4.45362e-16
6.18369e-17
-5.84632e-16
3.20574e-17
-8.14209e-16
-1.81853e-17
-1.03097e-15
-1.17734e-16
-1.11384e-15
-2.95769e-16
-1.17167e-15
-3.76958e-16
-1.19687e-15
-4.61087e-16
-1.17288e-15
-5.26339e-16
-1.06496e-15
-6.0528e-16
-9.56048e-16
-6.4142e-16
-8.26964e-16
-6.10579e-16
-7.31584e-16
-5.83451e-16
-6.93525e-16
-5.89965e-16
-6.84246e-16
-6.67455e-16
-7.32783e-16
-8.73445e-16
-9.23394e-16
-1.29137e-15
-1.41733e-15
-2.22505e-15
-2.45449e-15
-4.66284e-15
-3.88576e-15
-9.86264e-15
-3.48308e-15
-1.57136e-14
-4.24262e-16
-1.4999e-14
-4.82633e-15
-1.09583e-23
4.44396e-23
-1.53574e-22
5.46534e-22
-2.26504e-21
4.05803e-21
-3.08277e-20
3.56226e-20
-2.55656e-19
2.69288e-19
-1.55254e-18
1.48998e-18
-7.05761e-18
5.96466e-18
-2.23452e-17
1.74056e-17
-5.24124e-17
3.84753e-17
-9.96003e-17
6.6437e-17
-1.61948e-16
9.43984e-17
-2.35194e-16
1.18588e-16
-3.22942e-16
1.42992e-16
-4.17718e-16
1.62303e-16
-5.07213e-16
1.7207e-16
-5.84232e-16
1.71906e-16
-7.00317e-16
2.1606e-16
-8.93521e-16
2.34264e-16
-1.18707e-15
2.28581e-16
-1.65048e-15
1.60196e-16
-2.373e-15
-1.45661e-17
-3.4134e-15
-1.97771e-16
-4.56868e-15
-4.74793e-16
-4.90527e-15
-1.32191e-15
-4.75385e-15
-1.76271e-15
-4.48827e-15
-1.76465e-15
-3.86749e-15
-1.90423e-15
-3.38778e-15
-1.40506e-15
-3.34457e-15
-1.40259e-15
-3.29156e-15
-1.58214e-15
-3.11705e-15
-1.81452e-15
-2.89724e-15
-2.14018e-15
-2.97007e-15
-2.59285e-15
-3.58537e-15
-3.73738e-15
-5.33804e-15
-6.74795e-15
-9.03788e-15
-1.42862e-14
-1.28797e-14
-2.73881e-14
-1.47369e-14
-3.72446e-14
-1.68611e-15
-4.87788e-14
-6.38967e-15
-4.77353e-23
1.06482e-22
-4.56106e-22
1.2145e-21
-3.4375e-21
6.91012e-21
-3.29494e-20
4.86525e-20
-3.27202e-19
3.47213e-19
-2.23768e-18
2.02015e-18
-8.67833e-18
8.32045e-18
-2.55771e-17
2.59439e-17
-5.49472e-17
5.42957e-17
-9.20653e-17
8.42304e-17
-1.29424e-16
1.00084e-16
-1.77582e-16
1.20153e-16
-2.19002e-16
1.37764e-16
-2.47794e-16
1.43484e-16
-2.95803e-16
1.52511e-16
-5.62277e-16
2.20327e-16
-1.47931e-15
5.75755e-16
-3.185e-15
9.70808e-16
-4.99349e-15
1.45612e-15
-5.88807e-15
1.2977e-15
-5.6197e-15
2.69689e-16
-5.77631e-15
-9.98933e-16
-8.99856e-15
-1.03614e-16
-1.1449e-14
-1.43487e-15
-1.14988e-14
-3.39162e-15
-1.08667e-14
-3.11925e-15
-9.59236e-15
-2.30459e-15
-1.10048e-14
2.65817e-15
-1.58643e-14
2.44405e-15
-1.80833e-14
-1.24854e-15
-1.68425e-14
-5.51021e-15
-1.33135e-14
-8.54577e-15
-1.0888e-14
-7.90029e-15
-1.1351e-14
-6.71638e-15
-1.49256e-14
-1.39778e-14
-2.29733e-14
-2.84603e-14
-3.5553e-14
-5.07922e-14
-6.99119e-14
-6.36462e-14
-8.1994e-15
-2.06314e-13
-8.92089e-15
9.19507e-06
1.79442e-05
1.58128e-05
6.96131e-06
9.82839e-06
2.07738e-05
2.00274e-05
5.6138e-06
1.07555e-05
2.36491e-05
2.42889e-05
6.494e-06
1.2468e-05
2.61658e-05
2.78026e-05
8.95435e-06
1.48241e-05
2.805e-05
3.03293e-05
1.22974e-05
1.75116e-05
2.91938e-05
3.17788e-05
1.60621e-05
2.02188e-05
2.9621e-05
3.22794e-05
1.97182e-05
2.27198e-05
2.94244e-05
3.20312e-05
2.2968e-05
2.48927e-05
2.87168e-05
3.12141e-05
2.57098e-05
2.67002e-05
2.9968e-05
2.79463e-05
2.68216e-05
2.95767e-05
2.2312e-06
2.36505e-05
4.33854e-08
1.25075e-06
1.18638e-09
5.62106e-08
4.09021e-11
1.49763e-09
1.55608e-12
5.1222e-11
1.55478e-13
1.78509e-12
3.63921e-14
7.6504e-14
-4.12196e-14
-7.33012e-14
-3.56354e-14
-6.54567e-14
-1.67333e-14
-3.16331e-14
-6.07096e-15
-1.17593e-14
-1.92144e-15
-3.79214e-15
-5.56412e-16
-1.11116e-15
-1.46914e-16
-2.94379e-16
-3.41985e-17
-6.8065e-17
-6.71874e-18
-1.31226e-17
-1.04415e-18
-1.97235e-18
-8.69486e-21
-1.56062e-20
1.37676e-18
1.90223e-18
4.30812e-18
6.1004e-18
1.16316e-17
1.52602e-17
3.00617e-17
8.82472e-20
4.74416e-06
3.59587e-19
-1.23909e-19
2.52759e-19
1.14686e-19
-1.28561e-18
7.65724e-19
1.41614e-19
1.04508e-05
1.96099e-18
-1.03916e-18
3.97343e-18
-2.26493e-18
-5.11797e-18
5.06435e-18
2.70819e-07
2.16559e-05
2.63822e-16
2.70819e-07
1.41519e-15
-9.87133e-16
-2.04672e-15
1.40298e-15
3.58128e-06
2.81156e-05
1.31115e-07
2.07628e-05
2.73991e-10
1.30813e-07
2.73955e-10
6.67831e-17
9.10878e-06
3.13042e-05
4.67108e-06
3.4981e-05
1.57503e-06
2.45581e-05
1.51859e-06
5.70225e-08
1.45123e-05
3.2854e-05
1.32063e-05
3.62882e-05
9.97357e-06
4.032e-05
4.24146e-05
4.98629e-06
1.93247e-05
3.32475e-05
1.93758e-05
3.62369e-05
2.02117e-05
3.95036e-05
4.27715e-05
2.19404e-05
2.33804e-05
3.28351e-05
2.41676e-05
3.54496e-05
2.55621e-05
3.81104e-05
4.06424e-05
2.7703e-05
2.66774e-05
3.18676e-05
2.79409e-05
3.41861e-05
2.96193e-05
3.64321e-05
3.84669e-05
3.17958e-05
2.93027e-05
3.05112e-05
3.08877e-05
3.26011e-05
3.27434e-05
3.45763e-05
3.62976e-05
3.49128e-05
3.13521e-05
2.87358e-05
3.31898e-05
3.07633e-05
3.51776e-05
3.25886e-05
3.41123e-05
3.73629e-05
3.0718e-05
1.09692e-05
3.31738e-05
1.94387e-05
3.69036e-05
2.88588e-05
3.17062e-05
3.93098e-05
6.29248e-06
1.5447e-07
1.35706e-05
1.42127e-07
2.28231e-05
7.01258e-07
5.30758e-06
3.25033e-05
1.99358e-07
6.30345e-09
3.13155e-07
1.43785e-08
7.0143e-07
3.1133e-08
8.8232e-08
2.82296e-06
7.63748e-09
2.01966e-10
2.11827e-08
3.73437e-10
5.08193e-08
6.77658e-10
2.52921e-09
1.32735e-07
2.41135e-10
7.21156e-12
5.89597e-10
1.31571e-11
1.22185e-09
2.392e-11
9.38866e-11
3.5287e-09
8.47053e-12
3.42951e-13
2.07654e-11
4.91042e-13
4.31297e-11
8.89962e-13
3.43856e-12
1.28278e-10
2.839e-13
8.83937e-14
7.23992e-13
3.72711e-14
1.53422e-12
6.08303e-14
1.44965e-13
4.64588e-12
1.23555e-14
4.10873e-15
3.11461e-14
1.83373e-14
5.2941e-14
3.89987e-14
2.63583e-14
1.64471e-13
-4.92743e-14
-2.62433e-14
-3.273e-14
-1.79996e-14
-1.37579e-14
-7.81716e-15
3.62962e-15
8.59915e-15
-3.10247e-14
-1.61725e-14
-2.85618e-14
-1.54911e-14
-2.39013e-14
-1.3493e-14
-9.40924e-15
-1.60067e-14
-1.28451e-14
-6.57923e-15
-1.34499e-14
-7.21609e-15
-1.33093e-14
-7.48204e-15
-7.06305e-15
-1.19849e-14
-4.36175e-15
-2.20741e-15
-4.87584e-15
-2.60162e-15
-5.24791e-15
-2.95309e-15
-3.1779e-15
-5.35161e-15
-1.30551e-15
-6.5764e-16
-1.50752e-15
-8.06111e-16
-1.69924e-15
-9.64757e-16
-1.1176e-15
-1.85263e-15
-3.48519e-16
-1.76375e-16
-4.08995e-16
-2.21362e-16
-4.7338e-16
-2.74056e-16
-3.32777e-16
-5.36985e-16
-8.11922e-17
-4.17463e-17
-9.65125e-17
-5.35247e-17
-1.13922e-16
-6.81482e-17
-8.58343e-17
-1.32932e-16
-1.58915e-17
-8.4149e-18
-1.92381e-17
-1.1096e-17
-2.32031e-17
-1.45745e-17
-1.90052e-17
-2.77638e-17
-2.40548e-18
-1.33331e-18
-2.88074e-18
-1.75907e-18
-3.32976e-18
-2.23908e-18
-2.71517e-18
-3.66396e-18
5.18598e-19
1.0117e-18
1.58459e-18
2.26861e-18
3.70634e-18
4.86568e-18
9.92834e-18
7.54372e-18
4.34849e-18
3.44255e-18
9.18582e-18
8.24071e-18
1.79968e-17
1.84501e-17
3.80126e-17
3.23155e-17
1.39472e-17
1.12987e-17
2.90075e-17
2.76749e-17
5.4856e-17
6.17827e-17
1.24457e-16
9.34932e-17
3.44546e-17
3.08796e-17
6.95278e-17
7.50976e-17
1.25927e-16
1.64576e-16
3.26036e-16
2.0557e-16
6.61194e-17
1.28042e-16
2.22638e-16
3.59328e-16
1.79075e-18
-2.10058e-18
3.79878e-18
-5.55848e-18
6.62383e-18
-1.14355e-17
8.11133e-18
-1.86625e-17
4.48982e-18
-2.08425e-17
-4.99015e-18
-1.02961e-17
-1.43192e-17
1.02114e-17
-1.70616e-16
1.12288e-16
-4.87966e-16
5.01794e-16
-6.2251e-16
8.62504e-16
-5.81577e-16
8.78463e-16
-5.91109e-16
7.26086e-16
-1.08016e-15
7.45497e-16
-1.76778e-15
1.4205e-15
-2.35959e-15
3.12027e-15
-4.11339e-15
5.02912e-15
-3.13086e-15
2.4957e-15
-5.75461e-15
3.23308e-15
-2.43944e-14
6.08088e-15
-5.86008e-14
9.15134e-15
-8.53539e-14
7.3009e-15
-7.01788e-14
-2.42166e-14
-1.40044e-14
-4.21967e-14
-1.48863e-14
-3.08987e-15
-1.87145e-14
-3.68031e-15
-2.03561e-14
-6.32691e-15
-5.22863e-14
2.85654e-14
-9.04484e-14
3.66448e-14
-1.42622e-13
4.81542e-14
-1.53285e-13
-1.08386e-15
-1.39333e-13
-3.2362e-14
-1.00826e-13
-6.01429e-14
-6.51041e-14
-5.53863e-14
-5.08883e-14
-3.53691e-14
-5.10438e-14
-3.7554e-14
-6.82747e-14
-5.82985e-14
-1.29616e-13
-9.938e-14
-3.32932e-13
-1.19793e-13
-5.42359e-14
-8.87683e-13
-6.31568e-14
8.25066e-18
-9.94905e-18
1.22485e-17
-1.93707e-17
1.7998e-17
-3.49725e-17
2.2333e-17
-6.11026e-17
2.18468e-17
-8.40824e-17
3.96942e-17
-8.52946e-17
2.29047e-16
-1.56446e-16
1.01927e-15
-9.19196e-16
1.23083e-15
-4.20615e-15
5.39174e-16
-5.10073e-15
-1.94729e-16
-2.14748e-15
-2.05085e-16
7.12516e-16
-2.6434e-16
7.83254e-16
-1.2709e-15
1.41167e-15
-1.44173e-14
1.0304e-14
-2.54124e-14
3.73605e-14
-1.80869e-14
4.31078e-14
-7.85725e-15
2.47208e-14
-7.93895e-15
7.38669e-15
-1.8473e-14
5.6162e-15
-1.21545e-13
1.50321e-14
-2.56427e-13
-2.26544e-15
-2.31226e-13
-4.91087e-14
-2.89568e-14
-7.84244e-14
-4.91677e-14
-6.332e-15
-9.36969e-14
-1.02533e-13
-5.1812e-13
3.68925e-13
-8.39152e-13
2.83915e-13
-1.27293e-12
4.01211e-13
-1.31183e-12
-6.81854e-14
-1.13437e-12
-3.37499e-13
-7.65781e-13
-5.36076e-13
-4.45855e-13
-4.43254e-13
-2.79077e-13
-2.64321e-13
-2.50025e-13
-1.40373e-13
-2.72917e-13
-1.73735e-13
-4.91717e-13
-2.60447e-13
-1.48165e-12
-2.3017e-13
-3.32666e-13
-3.78997e-12
-3.95823e-13
1.94359e-16
-2.65692e-15
3.08044e-17
-5.57941e-16
1.11134e-17
-1.3382e-16
4.13741e-18
-9.51219e-17
-4.27209e-18
-1.30761e-16
-1.16942e-17
-1.34212e-16
-1.83227e-17
-1.28533e-16
-1.18092e-16
-5.98055e-16
-1.365e-15
-5.61008e-15
-2.65883e-15
-9.46215e-15
-2.3256e-15
-7.38447e-15
-9.50013e-16
-2.71008e-15
-2.53917e-16
-6.55445e-16
3.46129e-16
1.65245e-16
2.97971e-15
3.15561e-15
1.27473e-14
1.19415e-14
1.50417e-14
2.639e-14
8.55731e-15
2.86597e-14
3.36573e-15
1.16445e-14
2.61302e-15
5.64089e-15
3.13294e-15
4.62233e-15
2.96127e-15
1.44997e-15
-5.50859e-14
4.75818e-15
-9.54038e-15
7.17923e-16
-1.18643e-14
7.89374e-16
-4.98143e-13
-5.3508e-16
-5.12081e-12
4.42834e-12
-6.95946e-12
7.71287e-13
-9.81015e-12
2.06248e-12
-1.0205e-11
-9.63314e-13
-8.41258e-12
-3.57376e-12
-5.42647e-12
-4.71579e-12
-2.9694e-12
-3.504e-12
-1.69354e-12
-1.96866e-12
-1.2109e-12
-9.90856e-13
-1.14459e-12
-7.50559e-13
-1.81599e-12
-9.84175e-13
-6.09132e-12
-4.27203e-13
-1.92348e-12
-1.52625e-11
-2.27791e-12
-3.73868e-17
-8.768e-16
-2.1264e-17
-1.46449e-16
-8.29042e-18
-3.46976e-17
-1.25935e-17
-3.87989e-17
-2.55467e-17
-6.27505e-17
-3.3005e-17
-6.6199e-17
-3.83416e-17
-6.43992e-17
-1.6558e-16
-2.42064e-16
-2.3096e-15
-3.033e-15
-5.16732e-15
-6.08851e-15
-5.38492e-15
-5.60176e-15
-3.64715e-15
-3.30422e-15
-1.85315e-15
-1.48086e-15
-6.88682e-16
-4.94459e-16
2.10717e-16
2.35163e-15
1.12518e-15
1.02424e-14
3.85797e-15
-1.87168e-15
4.54209e-15
2.85089e-14
3.01297e-15
1.5058e-14
2.09569e-15
7.32121e-15
1.50051e-15
4.38655e-15
8.76114e-16
8.54868e-16
7.62701e-16
4.87121e-15
4.61601e-16
9.77736e-16
3.46369e-16
5.7259e-16
2.1035e-13
-2.09903e-13
9.79512e-12
-4.57409e-12
-1.0718e-11
-1.79985e-12
-3.76566e-11
1.08891e-11
-5.44283e-11
-2.63752e-12
-4.87958e-11
-2.66237e-11
-3.17312e-11
-3.38928e-11
-1.70686e-11
-2.36609e-11
-9.39659e-12
-1.28759e-11
-5.50791e-12
-7.0841e-12
-4.94338e-12
-3.48852e-12
-6.40007e-12
-4.3126e-12
-2.14394e-11
-2.14989e-12
-1.06305e-11
-5.40006e-11
-1.26555e-11
2.39277e-09
5.46297e-08
1.17132e-10
2.27564e-09
6.43684e-12
1.10695e-10
3.94053e-13
6.04275e-12
2.65445e-14
3.67446e-13
1.92671e-15
2.45516e-14
-1.32116e-10
-1.58082e-10
-3.22373e-11
-3.46692e-11
-5.47587e-12
-5.36631e-12
-8.0955e-13
-7.22056e-13
-1.04946e-13
-8.50826e-14
-1.01932e-14
-7.4988e-15
3.4729e-08
3.1229e-07
2.84687e-07
2.3924e-06
3.62988e-07
3.24908e-06
3.28962e-07
3.60489e-06
3.03319e-07
4.74685e-06
5.97557e-07
5.45406e-06
1.19474e-06
5.26358e-06
1.63914e-06
5.03655e-06
1.65706e-06
4.4006e-06
4.02817e-07
2.94682e-06
4.89771e-08
3.53839e-07
5.49506e-09
4.3482e-08
6.02958e-10
4.89208e-09
6.28006e-11
5.40583e-10
9.59682e-09
-9.39959e-09
6.10452e-09
3.00396e-09
1.53034e-09
4.2368e-09
5.95793e-10
6.04343e-10
2.12677e-11
3.1119e-10
-8.65359e-11
-7.32531e-11
-6.98641e-11
-1.0203e-10
-4.29735e-11
-6.63762e-11
-2.44037e-11
-4.02029e-11
-1.96675e-11
-1.87964e-11
-2.12808e-11
-1.81777e-11
-6.09802e-11
-1.90566e-11
-5.48485e-11
-1.58097e-10
-6.60758e-11
5.22873e-06
3.81018e-05
6.54597e-06
3.83569e-05
6.80598e-06
3.74434e-05
4.28144e-06
3.04145e-05
4.22843e-06
2.4133e-05
6.65143e-06
2.49352e-05
1.27467e-05
3.06733e-05
1.61608e-05
3.60684e-05
1.68202e-05
3.50187e-05
1.83592e-05
3.35119e-05
2.20498e-05
3.2859e-05
2.79991e-05
3.35033e-05
3.23425e-05
3.36643e-05
3.38526e-05
3.22291e-05
3.47495e-05
3.01148e-05
3.57957e-05
2.78574e-05
3.72987e-05
2.55854e-05
3.91789e-05
2.32533e-05
4.11872e-05
2.07864e-05
4.27716e-05
1.82392e-05
4.25783e-05
1.56114e-05
4.01665e-05
1.29406e-05
3.50425e-05
1.0137e-05
3.03913e-05
7.26352e-06
2.20017e-05
4.35765e-06
8.23362e-06
1.46617e-06
1.43226e-06
-3.47921e-07
4.54581e-07
-1.47013e-06
2.42545e-07
-2.47661e-07
8.14647e-08
1.57242e-07
1.36002e-08
6.50854e-08
2.59547e-09
9.26778e-09
2.71878e-10
1.53279e-09
-7.87032e-11
2.23755e-11
-8.3707e-11
-1.47157e-10
-6.40643e-11
-9.58536e-11
-6.88057e-11
-6.58646e-11
-1.69759e-10
-8.84799e-11
-2.52674e-10
-3.92162e-10
-3.11359e-10
2.43629e-05
5.09679e-05
2.7979e-05
5.29087e-05
3.08885e-05
5.32689e-05
3.13104e-05
5.25495e-05
3.34008e-05
5.14808e-05
3.76297e-05
5.00793e-05
4.36161e-05
4.82995e-05
4.72125e-05
4.5959e-05
4.93559e-05
4.35453e-05
5.14869e-05
4.12116e-05
5.3921e-05
3.88896e-05
5.64137e-05
3.65331e-05
5.82614e-05
3.41402e-05
5.96346e-05
3.18021e-05
6.07907e-05
2.9527e-05
6.18015e-05
2.72723e-05
6.25814e-05
2.49954e-05
6.31719e-05
2.26669e-05
6.36869e-05
2.02785e-05
6.40969e-05
1.78414e-05
6.43427e-05
1.53702e-05
6.44076e-05
1.28774e-05
6.41998e-05
1.03559e-05
6.37162e-05
7.80839e-06
6.22885e-05
5.2531e-06
5.94538e-05
2.70925e-06
5.50646e-05
1.82472e-07
3.85864e-05
-2.4621e-06
1.19984e-05
-5.00961e-06
2.05543e-06
-5.13259e-06
5.09453e-07
-1.98653e-06
1.05761e-07
3.88881e-07
1.52226e-08
8.48566e-08
2.08563e-09
1.14436e-08
1.02014e-10
8.63479e-10
-1.43071e-10
-2.14872e-10
-2.15484e-10
-2.04903e-10
-4.48407e-10
-3.09707e-10
-9.88433e-10
-8.01064e-10
-1.26632e-09
3.08717e-05
4.7855e-05
3.44036e-05
4.94507e-05
3.77818e-05
4.99696e-05
4.07887e-05
4.96342e-05
4.36823e-05
4.87014e-05
4.65597e-05
4.7316e-05
4.93793e-05
4.55694e-05
5.1824e-05
4.3568e-05
5.39535e-05
4.14517e-05
5.59045e-05
3.92879e-05
5.77134e-05
3.71034e-05
5.93502e-05
3.49118e-05
6.07636e-05
3.27349e-05
6.19778e-05
3.05923e-05
6.30264e-05
2.84811e-05
6.39203e-05
2.63802e-05
6.4655e-05
2.4262e-05
6.52198e-05
2.2103e-05
6.56079e-05
1.98909e-05
6.58218e-05
1.76276e-05
6.58698e-05
1.53223e-05
6.57663e-05
1.29811e-05
6.55206e-05
1.06015e-05
6.51409e-05
8.18812e-06
6.46364e-05
5.75772e-06
6.40258e-05
3.31963e-06
6.33563e-05
8.54777e-07
6.25542e-05
-1.65994e-06
6.16895e-05
-4.14493e-06
5.07975e-05
-6.63717e-06
1.89355e-05
-9.07688e-06
1.62453e-06
-7.19004e-06
3.05004e-07
-1.00882e-06
4.47306e-08
2.42604e-07
6.03484e-09
3.23405e-08
4.62934e-10
2.54262e-09
-3.91072e-10
-3.72494e-10
-1.01863e-09
-8.31611e-10
-3.17683e-09
-1.3399e-09
-4.32353e-09
3.47412e-05
4.4914e-05
3.79278e-05
4.62699e-05
4.10555e-05
4.68488e-05
4.39941e-05
4.67039e-05
4.67601e-05
4.59455e-05
4.93763e-05
4.47094e-05
5.18222e-05
4.3131e-05
5.40596e-05
4.13352e-05
5.60929e-05
3.94213e-05
5.79386e-05
3.74445e-05
5.9605e-05
3.54388e-05
6.10898e-05
3.3428e-05
6.23923e-05
3.14329e-05
6.35199e-05
2.94649e-05
6.44816e-05
2.75197e-05
6.52801e-05
2.55818e-05
6.59114e-05
2.36307e-05
6.63687e-05
2.16457e-05
6.6649e-05
1.96106e-05
6.67574e-05
1.75192e-05
6.6706e-05
1.53737e-05
6.65103e-05
1.31768e-05
6.61831e-05
1.09288e-05
6.57365e-05
8.6347e-06
6.5188e-05
6.30614e-06
6.4558e-05
3.94947e-06
6.38585e-05
1.55435e-06
6.30785e-05
-8.79939e-07
6.22514e-05
-3.31783e-06
6.13891e-05
-5.77487e-06
6.05318e-05
-8.21951e-06
4.36893e-05
-1.0649e-05
9.10554e-06
-1.04745e-05
3.47567e-07
-3.8613e-06
5.68373e-08
2.32924e-07
8.13327e-09
2.93134e-08
6.22959e-10
8.65134e-10
-1.94873e-09
-1.6001e-09
-8.38105e-09
-2.34406e-09
-1.23401e-08
3.76809e-05
4.21465e-05
4.06341e-05
4.33168e-05
4.356e-05
4.39236e-05
4.6346e-05
4.39187e-05
4.89797e-05
4.33127e-05
5.14713e-05
4.22187e-05
5.38069e-05
4.07961e-05
5.59612e-05
3.91814e-05
5.79249e-05
3.74578e-05
5.97011e-05
3.56685e-05
6.12946e-05
3.38454e-05
6.27057e-05
3.2017e-05
6.39341e-05
3.02045e-05
6.49829e-05
2.84161e-05
6.58563e-05
2.66463e-05
6.65553e-05
2.48828e-05
6.70764e-05
2.31097e-05
6.74149e-05
2.13072e-05
6.75717e-05
1.94538e-05
6.75546e-05
1.75363e-05
6.73775e-05
1.55508e-05
6.70574e-05
1.34968e-05
6.66115e-05
1.13747e-05
6.60574e-05
9.18869e-06
6.54171e-05
6.94639e-06
6.47102e-05
4.65628e-06
6.39457e-05
2.31876e-06
6.31284e-05
-6.25331e-08
6.22895e-05
-2.47871e-06
6.1456e-05
-4.94143e-06
6.0668e-05
-7.43153e-06
5.99362e-05
-9.9172e-06
5.25639e-05
-1.23395e-05
1.80285e-05
-1.35009e-05
2.73857e-07
-5.43747e-06
2.96606e-08
9.05826e-08
5.46738e-09
-1.32911e-08
-2.16183e-10
-8.33334e-09
-1.72865e-08
-2.86923e-09
-2.83819e-08
4.00525e-05
3.9457e-05
4.28838e-05
4.04853e-05
4.56912e-05
4.11165e-05
4.83817e-05
4.12283e-05
5.09408e-05
4.07538e-05
5.337e-05
3.97897e-05
5.56511e-05
3.85151e-05
5.77553e-05
3.70772e-05
5.96687e-05
3.55445e-05
6.1392e-05
3.39452e-05
6.29296e-05
3.23078e-05
6.42816e-05
3.0665e-05
6.54454e-05
2.90408e-05
6.64206e-05
2.74409e-05
6.72088e-05
2.58581e-05
6.78097e-05
2.42819e-05
6.82194e-05
2.27e-05
6.84341e-05
2.10925e-05
6.84572e-05
1.94306e-05
6.82992e-05
1.76943e-05
6.79752e-05
1.58748e-05
6.75042e-05
1.39678e-05
6.6908e-05
1.1971e-05
6.62103e-05
9.88634e-06
6.54383e-05
7.71847e-06
6.46128e-05
5.48154e-06
6.37476e-05
3.18378e-06
6.28535e-05
8.31508e-07
6.1952e-05
-1.57694e-06
6.10736e-05
-4.06288e-06
6.02774e-05
-6.63534e-06
5.96152e-05
-9.25499e-06
5.90775e-05
-1.18018e-05
5.50391e-05
-1.41711e-05
2.01689e-05
-1.48709e-05
1.35733e-07
-4.99895e-06
-1.1659e-08
-1.16952e-07
9.17684e-09
-8.80802e-08
-2.77932e-08
-4.46957e-08
-1.02485e-06
4.20142e-05
3.67527e-05
4.47817e-05
3.7718e-05
4.7523e-05
3.83755e-05
5.01711e-05
3.85805e-05
5.27022e-05
3.82229e-05
5.51074e-05
3.73845e-05
5.73645e-05
3.62581e-05
5.94412e-05
3.50006e-05
6.13232e-05
3.36625e-05
6.30119e-05
3.22565e-05
6.4511e-05
3.08086e-05
6.58188e-05
2.93572e-05
6.69297e-05
2.79298e-05
6.78408e-05
2.65298e-05
6.85516e-05
2.51472e-05
6.90609e-05
2.37726e-05
6.93628e-05
2.23981e-05
6.94527e-05
2.10026e-05
6.9336e-05
1.95473e-05
6.90246e-05
1.80057e-05
6.85346e-05
1.63648e-05
6.78873e-05
1.46151e-05
6.71092e-05
1.2749e-05
6.62329e-05
1.07627e-05
6.52925e-05
8.65885e-06
6.43133e-05
6.46034e-06
6.33146e-05
4.18246e-06
6.23077e-05
1.83839e-06
6.13067e-05
-5.75944e-07
6.03412e-05
-3.09722e-06
5.94722e-05
-5.76613e-06
5.87773e-05
-8.56009e-06
5.83033e-05
-1.13278e-05
5.79872e-05
-1.38551e-05
5.18616e-05
-1.61183e-05
1.45584e-05
-1.52652e-05
-1.70055e-08
-3.07726e-06
-1.08235e-08
-3.65498e-07
1.24632e-08
-1.74167e-07
-4.24588e-06
4.05155e-05
1.5415e-05
4.49363e-05
2.27329e-05
4.8265e-05
2.55494e-05
5.07897e-05
2.73133e-05
5.42149e-05
3.47979e-05
5.67112e-05
3.48884e-05
5.8964e-05
3.40053e-05
6.10258e-05
3.29386e-05
6.28967e-05
3.17916e-05
6.45741e-05
3.05791e-05
6.60545e-05
2.93282e-05
6.73331e-05
2.80786e-05
6.84043e-05
2.68586e-05
6.92635e-05
2.56706e-05
6.99079e-05
2.45028e-05
7.03344e-05
2.33462e-05
7.05344e-05
2.21981e-05
7.04981e-05
2.10389e-05
7.02359e-05
1.98096e-05
6.97578e-05
1.84838e-05
6.90775e-05
1.70451e-05
6.82224e-05
1.54702e-05
6.72282e-05
1.37432e-05
6.61373e-05
1.18535e-05
6.49912e-05
9.80501e-06
6.38216e-05
7.62994e-06
6.26551e-05
5.34853e-06
6.15039e-05
2.98964e-06
6.03729e-05
5.55028e-07
5.92841e-05
-2.00806e-06
5.82968e-05
-4.7788e-06
5.75044e-05
-7.76767e-06
5.69847e-05
-1.08081e-05
5.67289e-05
-1.35993e-05
5.65894e-05
-1.59788e-05
4.38702e-05
-1.8331e-05
4.81108e-06
-1.30006e-05
-2.4975e-07
-1.19838e-06
1.03265e-07
-6.53087e-07
-2.77513e-06
8.91167e-06
2.49583e-07
1.46278e-05
2.3732e-07
1.80845e-05
8.8056e-08
2.19673e-05
8.725e-08
2.83784e-05
7.53186e-07
3.51131e-05
2.84984e-06
3.85508e-05
4.97077e-06
3.9908e-05
5.55014e-06
4.14004e-05
5.52874e-06
4.35877e-05
5.65126e-06
4.64565e-05
6.1179e-06
4.91918e-05
6.74026e-06
5.1594e-05
7.25854e-06
5.42247e-05
7.7911e-06
5.75281e-05
8.61438e-06
6.12443e-05
9.85005e-06
6.45451e-05
1.11991e-05
6.72925e-05
1.23402e-05
6.92878e-05
1.43477e-05
7.027e-05
1.75015e-05
6.95954e-05
1.77197e-05
6.84997e-05
1.65658e-05
6.72607e-05
1.49823e-05
6.59123e-05
1.32019e-05
6.45186e-05
1.11988e-05
6.31205e-05
9.02802e-06
6.17543e-05
6.71458e-06
6.04292e-05
4.31467e-06
5.91404e-05
1.8439e-06
5.78966e-05
-7.64318e-07
5.67536e-05
-3.63576e-06
5.58158e-05
-6.82989e-06
5.51832e-05
-1.01753e-05
5.48706e-05
-1.32867e-05
5.47844e-05
-1.58927e-05
5.47047e-05
-1.82513e-05
2.88792e-05
-2.08454e-05
-8.66469e-07
-8.26251e-06
9.54364e-08
-1.08998e-06
-2.07094e-06
3.61738e-07
8.20117e-09
5.65747e-07
1.13741e-08
6.12954e-07
1.03932e-08
6.53951e-07
1.40125e-08
8.49234e-07
2.35569e-08
1.51137e-06
3.70113e-08
2.18179e-06
3.75196e-08
2.41541e-06
1.87201e-08
2.55715e-06
1.23121e-08
2.82754e-06
1.30857e-08
3.36677e-06
2.32966e-08
4.04945e-06
2.77976e-08
4.77701e-06
2.81445e-08
5.75445e-06
3.32883e-08
7.39307e-06
4.98797e-08
1.00252e-05
7.50823e-08
1.34625e-05
8.26004e-08
1.76662e-05
4.17144e-08
2.45538e-05
-1.36377e-08
3.56956e-05
1.99798e-07
4.7895e-05
1.65065e-06
5.92065e-05
5.10672e-06
6.51282e-05
1.11773e-05
6.51921e-05
1.3138e-05
6.37775e-05
1.26154e-05
6.21342e-05
1.06714e-05
6.05509e-05
8.29778e-06
5.90378e-05
5.82773e-06
5.7572e-05
3.30967e-06
5.61499e-05
6.57826e-07
5.48219e-05
-2.30778e-06
5.37036e-05
-5.71161e-06
5.29129e-05
-9.38452e-06
5.24746e-05
-1.28485e-05
5.23108e-05
-1.57288e-05
5.22893e-05
-1.82297e-05
4.51446e-05
-2.1689e-05
7.93409e-06
-1.96311e-05
-7.95561e-07
-5.08645e-06
-2.96851e-06
1.09955e-08
3.18198e-10
2.09546e-08
4.46675e-10
3.12409e-08
3.53716e-10
4.38454e-08
2.93811e-10
6.52547e-08
3.757e-10