/*--------------------------------*- C++ -*----------------------------------*\
| =========                 |                                                 |
| \\      /  F ield         | OpenFOAM: The Open Source CFD Toolbox           |
|  \\    /   O peration     | Version:  5.0                                   |
|   \\  /    A nd           | Web:      www.OpenFOAM.org                      |
|    \\/     M anipulation  |                                                 |
\*---------------------------------------------------------------------------*/
FoamFile
{
    version     2.0;
    format      ascii;
    class       volScalarField;
    location    "0.55";
    object      alpha.water;
}
// * * * * * * * * * * * * * * * * * * * * * * * * * * * * * * * * * * * * * //

dimensions      [0 0 0 0 0 0 0];

internalField   nonuniform List<scalar> 
1915
(
1
0.999777
0.993182
0.998256
0.969346
0.998066
0.969373
0.997366
0.987838
0.999646
1
1
0.999998
1
1
1
1
1
1
1
2.49943e-23
2.15448e-23
3.11587e-24
4.93094e-26
2.69831e-26
1.44734e-25
3.60012e-25
6.87246e-25
1.28959e-24
2.67381e-24
5.79776e-24
1.10267e-23
1.65564e-23
2.01845e-23
2.1963e-23
2.33242e-23
2.76705e-23
4.73e-23
1.03055e-22
1.95955e-22
2.86947e-22
3.42876e-22
3.66779e-22
3.80541e-22
4.09011e-22
5.11914e-22
7.12358e-22
1.06879e-21
1.70994e-21
2.93485e-21
5.46065e-21
1.10674e-20
2.41344e-20
5.51574e-20
1.27919e-19
2.84518e-19
4.65911e-19
3.56047e-19
2.18477e-19
6.19411e-21
2.23572e-22
1.97116e-23
1.80601e-24
5.2252e-25
5.16682e-24
2.26997e-23
6.49614e-23
1.51526e-22
3.28132e-22
6.92717e-22
1.35545e-21
2.23466e-21
2.97795e-21
3.3439e-21
3.42765e-21
3.38046e-21
3.39803e-21
4.97716e-21
1.11287e-20
2.31088e-20
3.69238e-20
4.76941e-20
5.34815e-20
5.57191e-20
5.70596e-20
6.27075e-20
7.63242e-20
1.00669e-19
1.43193e-19
2.21121e-19
3.70647e-19
6.83421e-19
1.39096e-18
3.06844e-18
7.09283e-18
1.63707e-17
2.99012e-17
3.29294e-17
2.5567e-17
9.81245e-19
9.16677e-22
2.90617e-23
3.88292e-24
1.46354e-23
1.9987e-22
1.24286e-21
4.91953e-21
1.47015e-20
3.72363e-20
8.35655e-20
1.61318e-19
2.53016e-19
3.18697e-19
3.42085e-19
3.30435e-19
2.59859e-19
2.24595e-19
2.44324e-19
5.00323e-19
1.14322e-18
2.03218e-18
2.88113e-18
3.42992e-18
3.65357e-18
3.7167e-18
3.74437e-18
4.10392e-18
4.85602e-18
6.15576e-18
8.54333e-18
1.28796e-17
2.13949e-17
3.99137e-17
8.31667e-17
1.87656e-16
4.32946e-16
8.51065e-16
1.09781e-15
9.64281e-16
5.28424e-17
2.60525e-21
6.69667e-23
6.75777e-24
2.84472e-22
6.66452e-21
6.9704e-20
4.19493e-19
1.65925e-18
4.77153e-18
1.06731e-17
1.9192e-17
2.80506e-17
3.4072e-17
3.62744e-17
3.45024e-17
2.35236e-17
1.52999e-17
1.28376e-17
1.53662e-17
3.40363e-17
6.6295e-17
1.0265e-16
1.33047e-16
1.48999e-16
1.52593e-16
1.48499e-16
1.48579e-16
1.59629e-16
1.80918e-16
2.24608e-16
3.04549e-16
4.52765e-16
7.62612e-16
1.47272e-15
3.18217e-15
7.26557e-15
1.48762e-14
2.09721e-14
2.01638e-14
1.51808e-15
6.14404e-21
1.48088e-22
7.51528e-23
4.52739e-21
3.85084e-19
5.53889e-18
3.87195e-17
1.65429e-16
4.90554e-16
1.09441e-15
1.95557e-15
2.93529e-15
3.79694e-15
4.33605e-15
4.52462e-15
4.12378e-15
2.78019e-15
1.82711e-15
1.41959e-15
1.34339e-15
1.77255e-15
2.62741e-15
3.61014e-15
4.33685e-15
4.61146e-15
4.58059e-15
4.32713e-15
4.25013e-15
4.30596e-15
4.68161e-15
5.63115e-15
7.40371e-15
1.10427e-14
1.93648e-14
3.92638e-14
8.72149e-14
1.81897e-13
2.74955e-13
2.83523e-13
2.79809e-14
1.23632e-20
3.80958e-22
4.08789e-21
1.00983e-19
7.04343e-18
1.22659e-16
8.83881e-16
3.79496e-15
1.14264e-14
2.63746e-14
4.9586e-14
7.95292e-14
1.11894e-13
1.39142e-13
1.55492e-13
1.60778e-13
1.42182e-13
1.01371e-13
7.45065e-14
6.08518e-14
5.65806e-14
6.17832e-14
7.55933e-14
9.29153e-14
1.04933e-13
1.09061e-13
1.0504e-13
9.70593e-14
9.04208e-14
8.57707e-14
8.85412e-14
1.02107e-13
1.32433e-13
2.04756e-13
3.81442e-13
8.05483e-13
1.67855e-12
2.67794e-12
2.97317e-12
3.83143e-13
2.60924e-20
3.84529e-21
4.1931e-20
1.74246e-18
1.05133e-16
1.18616e-15
6.92288e-15
2.70404e-14
7.87544e-14
1.81234e-13
3.45473e-13
5.67091e-13
8.20195e-13
1.05583e-12
1.21779e-12
1.28522e-12
1.27534e-12
1.06001e-12
9.14973e-13
8.82102e-13
9.41313e-13
1.07395e-12
1.18913e-12
1.31756e-12
1.47902e-12
1.56757e-12
1.58201e-12
1.42704e-12
1.31305e-12
1.13337e-12
1.06453e-12
1.115e-12
1.30692e-12
1.757e-12
2.99249e-12
5.91563e-12
1.2058e-11
1.94722e-11
2.07673e-11
4.72028e-12
3.96757e-20
3.627e-20
3.08616e-19
2.35122e-17
7.00192e-16
6.80724e-15
3.75151e-14
1.37619e-13
3.63276e-13
7.38573e-13
1.24917e-12
1.86241e-12
2.51352e-12
3.10199e-12
3.54148e-12
3.79832e-12
3.91883e-12
3.97797e-12
4.14154e-12
4.94775e-12
6.72192e-12
8.91454e-12
1.05315e-11
1.10339e-11
1.1482e-11
1.16831e-11
1.16475e-11
1.04114e-11
9.36806e-12
7.89529e-12
7.15566e-12
7.2537e-12
8.4673e-12
1.08943e-11
1.73606e-11
3.27768e-11
6.33313e-11
9.12885e-11
7.47918e-11
3.29382e-11
2.39997e-19
2.88426e-18
2.24176e-17
2.92439e-16
2.74857e-15
1.61009e-14
7.42166e-14
2.53823e-13
6.28088e-13
1.22544e-12
2.02343e-12
2.94578e-12
3.93547e-12
5.02411e-12
6.06011e-12
6.92584e-12
7.67898e-12
9.18186e-12
1.16242e-11
1.53847e-11
2.13894e-11
3.02441e-11
4.15186e-11
5.06505e-11
5.22182e-11
4.85695e-11
4.50779e-11
3.49733e-11
2.79859e-11
2.51019e-11
2.322e-11
2.31965e-11
2.68332e-11
3.75392e-11
6.13198e-11
1.15927e-10
1.99689e-10
2.46445e-10
1.91139e-10
5.871e-11
4.33515e-19
1.00775e-17
5.17846e-17
3.72701e-16
3.33504e-15
2.54508e-14
1.19658e-13
3.49064e-13
8.2463e-13
1.47127e-12
2.1624e-12
2.8024e-12
3.54411e-12
4.05463e-12
4.41486e-12
5.7551e-12
1.38788e-11
3.19401e-11
5.51712e-11
7.23919e-11
7.68455e-11
6.44959e-11
6.732e-11
1.2423e-10
1.40878e-10
1.28759e-10
9.52668e-11
5.94847e-11
4.50325e-11
5.07381e-11
5.26967e-11
5.13884e-11
5.16707e-11
7.85313e-11
1.3372e-10
2.46168e-10
4.07283e-10
5.50629e-10
7.35894e-10
1.19743e-11
1
1
1
1
1
1
1
1
1
1
1
1
1
1
1
1
1
1
1
1
0.999999
0.516326
0.00703627
2.67803e-05
9.41536e-07
3.31202e-08
9.90761e-10
-5.09286e-12
-2.42403e-09
-2.1359e-09
-1.02082e-09
-3.77474e-10
-1.22149e-10
-3.63139e-11
-9.88598e-12
-2.38195e-12
-4.85797e-13
-7.84941e-14
-6.79383e-16
6.35512e-14
2.3389e-13
6.84184e-13
1.63284e-12
0.431972
-2.94235e-14
-4.98703e-14
-4.01551e-14
0.452823
-5.94213e-14
-1.25223e-13
-1.1463e-13
0.701104
0
-2.35737e-11
-4.04587e-11
0.983824
0.245731
-2.09584e-09
-8.08189e-13
1
0.910805
0.210477
2.85037e-07
1
0.999947
0.897461
0.500314
1
0.999997
0.999704
0.991959
1
1
0.99998
0.999828
1
1
0.999999
0.999986
1
1
1
0.999997
1
1
0.999997
0.999997
0.811213
0.96539
0.999997
0.999996
0.0907493
0.230747
0.416029
0.635447
0.000127247
0.000298637
0.00111746
0.0235834
2.56268e-06
8.84719e-06
2.09083e-05
5.6557e-05
1.71477e-07
4.35329e-07
8.37793e-07
2.31171e-06
5.73036e-09
1.56353e-08
3.12069e-08
9.0928e-08
1.01657e-10
4.78865e-10
1.0498e-09
3.2598e-09
-3.47036e-12
-7.93815e-13
-4.31365e-12
8.80091e-11
-1.5948e-09
-1.05321e-09
-4.40994e-10
-1.38314e-13
-9.94812e-10
-9.12512e-10
-7.62737e-10
-5.11026e-10
-4.09715e-10
-4.27621e-10
-4.23078e-10
-3.81946e-10
-1.39463e-10
-1.55294e-10
-1.67087e-10
-1.7093e-10
-4.22848e-11
-4.85782e-11
-5.46945e-11
-5.98119e-11
-1.15794e-11
-1.35002e-11
-1.55929e-11
-1.77343e-11
-2.80636e-12
-3.31e-12
-3.89593e-12
-4.55706e-12
-5.80271e-13
-6.96423e-13
-8.37337e-13
-1.00479e-12
-9.43447e-14
-1.11993e-13
-1.29122e-13
-1.42703e-13
1.19776e-14
4.37895e-14
1.10319e-13
2.35651e-13
1.50336e-13
3.21618e-13
6.46643e-13
1.2055e-12
5.5152e-13
1.17237e-12
2.30491e-12
4.13799e-12
1.6095e-12
3.362e-12
6.42181e-12
1.11621e-11
3.79457e-12
7.73013e-12
1.43825e-11
2.49721e-11
-1.99872e-14
-6.17834e-14
-1.36158e-13
-2.3658e-13
-2.80915e-13
-1.49401e-13
6.11798e-14
1.76902e-12
8.96619e-12
1.63701e-11
1.83023e-11
1.65058e-11
1.59985e-11
3.72388e-11
5.07051e-11
6.45146e-11
9.43226e-11
6.05062e-11
2.5339e-10
7.54713e-10
1.28428e-09
1.51298e-09
7.83878e-10
1.72608e-10
2.36769e-10
2.5627e-10
1.41563e-10
1.75799e-10
2.30608e-10
2.86168e-10
2.9884e-10
2.72072e-10
2.38157e-10
2.31597e-10
2.73226e-10
4.49674e-10
9.14848e-10
1.91953e-09
2.82254e-09
-8.78315e-25
-1.07081e-13
-2.34995e-13
-4.44213e-13
-8.06511e-13
-1.16359e-12
-1.26578e-12
-2.52366e-12
-1.60437e-11
-7.82147e-11
-1.00386e-10
-4.49339e-11
1.59582e-11
1.88178e-11
3.59885e-11
3.07471e-10
1.24482e-09
1.53781e-09
9.96848e-10
3.4864e-10
4.56164e-10
2.19743e-09
6.7329e-09
8.62689e-09
3.42172e-09
3.25347e-10
1.31458e-09
9.34228e-10
1.21473e-09
1.86282e-09
2.27321e-09
2.21507e-09
1.7655e-09
1.27564e-09
9.85022e-10
9.70279e-10
1.39047e-09
2.98499e-09
7.36517e-09
1.14513e-08
0
-3.42874e-11
-7.62306e-12
-1.89486e-12
-1.36357e-12
-1.92595e-12
-2.09625e-12
-2.1734e-12
-1.0897e-11
-1.07998e-10
-1.9113e-10
-1.57403e-10
-6.18291e-11
-1.61895e-11
3.59686e-12
9.67036e-11
5.85293e-10
1.06217e-09
7.96626e-10
3.24559e-10
2.65069e-10
4.15439e-10
4.53945e-10
1.0223e-08
1.31569e-08
6.30866e-10
4.66425e-09
4.90416e-09
1.37923e-08
1.97585e-08
2.39471e-08
2.11561e-08
1.55456e-08
9.78849e-09
5.83373e-09
4.48433e-09
5.10768e-09
1.07058e-08
2.92669e-08
4.65789e-08
-1.15667e-10
-1.26594e-11
-2.20257e-12
-5.35497e-13
-6.02904e-13
-9.94531e-13
-1.10581e-12
-1.15457e-12
-4.62753e-12
-6.08997e-11
-1.2874e-10
-1.26208e-10
-8.03636e-11
-3.88266e-11
-1.39497e-11
-2.00899e-13
3.75531e-12
7.23651e-11
4.47404e-11
3.40693e-11
2.57155e-11
2.1584e-11
2.03671e-11
1.60069e-11
1.78828e-11
1.84986e-11
1.85081e-11
1.03259e-09
2.04286e-07
2.40201e-07
2.87536e-07
2.24325e-07
1.44772e-07
8.0425e-08
4.12674e-08
2.52118e-08
2.23287e-08
3.83131e-08
1.10493e-07
1.79313e-07
-1.23213e-09
-1.23586e-16
-2.74627e-20
-8.04585e-24
8.73892e-25
5.4768e-26
-6.84599e-27
-2.96579e-06
-6.90782e-07
-1.12388e-07
-1.59515e-08
-1.99744e-09
-1.88904e-10
-2.16266e-07
-2.75134e-06
-4.70677e-10
-4.31031e-09
-2.97642e-09
0.00270627
0.0101617
0.0205265
0.0239785
0.0011211
-2.27804e-10
7.96368e-12
-2.68531e-11
-2.08346e-10
5.62419e-07
3.77275e-06
3.30404e-06
4.07157e-06
2.63999e-06
1.54612e-06
7.43648e-07
3.20486e-07
1.58372e-07
1.09163e-07
1.34497e-07
3.84442e-07
6.40473e-07
-7.41751e-09
0.239578
0.225021
0.214981
0.142146
0.0846547
0.102155
0.183484
0.290794
0.304399
0.311796
0.340367
0.41382
0.501941
0.548361
0.562867
0.571007
0.584637
0.604367
0.630237
0.661603
0.680508
0.664927
0.604433
0.554975
0.475851
0.273276
0.0642481
0.0164173
0.00142134
5.54057e-05
3.0999e-05
1.55284e-05
7.48831e-06
2.81052e-06
1.12266e-06
5.69567e-07
4.94245e-07
1.2163e-06
2.11916e-06
-3.86352e-08
0.928118
0.916512
0.909402
0.855307
0.789705
0.80668
0.876887
0.942172
0.952694
0.956508
0.965551
0.9816
0.99331
0.997262
0.998219
0.99865
0.999235
0.99969
0.999746
0.999757
0.99983
0.999878
0.999886
0.998289
0.989346
0.963144
0.935811
0.823552
0.458998
0.127515
0.016682
0.000208934
7.15358e-05
2.25949e-05
8.91134e-06
3.37577e-06
2.02364e-06
3.50638e-06
6.518e-06
-1.77661e-07
0.999536
0.999425
0.999379
0.999188
0.998978
0.999055
0.99934
0.9996
0.999705
0.999757
0.999807
0.999866
0.999912
0.999938
0.999954
0.999964
0.999973
0.999982
0.999988
0.999992
0.999999
1
0.999999
0.999998
0.999998
0.999998
0.999993
0.999999
1
0.958732
0.640496
0.176677
0.00800607
0.000244717
6.64969e-05
2.32089e-05
9.39919e-06
9.75292e-06
1.89278e-05
-6.88144e-07
0.999959
0.999948
0.999944
0.999928
0.999912
0.999919
0.999943
0.999966
0.999976
0.999982
0.999986
0.999991
0.999994
0.999996
0.999997
0.999998
0.999999
0.999999
0.999999
1
1
1
1
0.999999
0.999999
0.999999
0.999998
0.999999
1
1
1
0.925808
0.485301
0.0571714
0.000670376
0.000178563
5.11049e-05
3.00439e-05
5.28429e-05
-2.29035e-06
0.999993
0.999993
0.999994
0.999993
0.999992
0.999993
0.999995
0.999997
0.999998
0.999999
0.999999
0.999999
1
1
1
1
1
1
1
1
1
1
1
0.999999
0.999999
0.999999
0.999996
0.999996
0.999998
1
1
1
0.989933
0.671585
0.120861
0.001314
0.000318309
0.00010736
0.000139863
-7.40348e-06
0.999996
0.999997
0.999998
0.999998
0.999998
0.999999
0.999999
0.999999
1
1
1
1
1
1
1
1
1
1
1
1
1
1
1
1
1
1
0.999994
0.999993
0.999994
0.999998
1
1
1
1
0.717517
0.128548
0.00182052
0.000492898
0.000447886
0.00190229
0.999997
0.999998
0.999998
0.999998
0.999999
0.999999
0.999999
1
1
1
1
1
1
1
1
1
1
1
1
1
1
1
1
1
1
0.999999
0.999993
0.999993
0.999993
0.999993
0.999999
1
1
1
0.999426
0.651066
0.0766833
0.00195205
0.000960187
0.0165752
0.84406
0.95259
0.980522
0.998136
0.999998
0.999999
0.999999
1
1
1
1
1
1
1
1
1
1
1
1
1
1
1
1
1
1
1
0.999995
0.999993
0.999993
0.999997
1
1
1
1
1
0.973156
0.471388
0.0206227
0.00250451
0.0171599
0.112102
0.236835
0.313133
0.360849
0.43957
0.543811
0.621837
0.64383
0.647272
0.656325
0.677137
0.703661
0.727157
0.751047
0.78372
0.828335
0.87539
0.915609
0.978586
1
1
1
1
1
1
1
1
0.999999
0.999998
0.999998
0.999998
0.999998
0.999999
1
1
1
0.864351
0.221745
0.0041298
-9.18854e-19
0.000178478
0.000372277
0.000505544
0.00058439
0.00168896
0.00838982
0.0198264
0.0257649
0.0272128
0.0295821
0.0350837
0.0433969
0.0524164
0.0630591
0.0795729
0.107323
0.147015
0.191789
0.257289
0.376378
0.530798
0.719601
0.970425
1
1
1
1
0.999999
0.999998
0.999998
0.999998
0.999998
0.999999
1
1
1
0.999845
0.578557
0.0460991
0.000194017
7.70911e-06
1.65371e-05
1.77533e-05
2.01228e-05
2.69199e-05
3.71108e-05
4.92478e-05
5.44942e-05
5.34944e-05
5.19529e-05
5.27312e-05
5.56316e-05
5.88887e-05
6.27819e-05
6.93291e-05
8.17532e-05
0.000120611
0.000150595
0.000181312
0.000249336
0.00773112
0.0434647
0.146032
0.331073
0.720358
0.998434
1
0.999998
0.999999
0.999999
0.999999
1
1
1
1
1
1
0.859488
0.227826
0.000754274
3.24244e-07
7.2455e-07
1.02589e-06
1.19585e-06
1.36518e-06
1.77571e-06
2.35874e-06
2.64497e-06
2.59719e-06
2.48392e-06
2.47766e-06
2.5494e-06
2.66595e-06
2.8445e-06
2.8615e-06
3.33809e-06
4.30856e-06
1.5734e-06
1.8463e-06
5.28232e-06
1.10438e-05
3.12012e-05
7.99462e-05
0.000185238
0.0361596
0.192699
0.663877
0.994366
0.999984
0.999998
0.999999
1
1
1
1
1
1
0.977486
0.467159
0.00474192
1.2355e-08
2.90089e-08
4.28957e-08
5.10174e-08
5.85424e-08
7.60372e-08
1.01548e-07
1.14883e-07
1.12942e-07
1.06451e-07
1.0377e-07
1.05504e-07
1.07999e-07
1.12198e-07
1.21622e-07
1.36129e-07
1.64028e-07
1.88621e-07
1.67725e-07
2.01693e-07
3.37739e-07
-4.52188e-07
2.17031e-06
1.11852e-05
2.6055e-05
8.89197e-05
0.02715
0.31962
0.884089
0.999857
0.999987
0.999997
0.999999
1
1
1
1
1
0.665531
0.0358187
4.31967e-10
1.08407e-09
1.71004e-09
2.09551e-09
2.43454e-09
3.17929e-09
4.27611e-09
4.88928e-09
4.82128e-09
4.50151e-09
4.30391e-09
4.2783e-09
4.29672e-09
4.35133e-09
4.58493e-09
5.13291e-09
5.9351e-09
6.57236e-09
5.56018e-09
5.20317e-09
9.56518e-09
2.19994e-08
1.22911e-06
5.96964e-06
5.64311e-06
2.7846e-06
1.16804e-05
0.000107033
0.201733
0.814213
0.999515
0.999952
0.999996
0.999999
1
1
1
1
0.774876
0.0678991
-1.67829e-12
3.13651e-11
6.43378e-11
8.83769e-11
1.07006e-10
1.34327e-10
1.7275e-10
1.99e-10
1.99159e-10
1.87435e-10
1.75822e-10
1.71452e-10
1.70617e-10
1.73284e-10
1.81094e-10
1.96487e-10
2.12073e-10
2.23441e-10
9.81462e-11
2.28438e-10
2.81044e-10
5.70976e-10
5.47318e-06
1.56576e-05
6.82026e-06
2.83726e-07
3.38495e-07
2.23783e-06
2.88845e-05
0.236233
0.865043
0.999693
0.99998
0.999998
1
1
1
1
0.817586
0.0829134
-2.32066e-10
-6.91422e-13
-1.00378e-12
-1.25418e-12
-1.41131e-12
-1.80209e-12
-2.21103e-12
-2.34359e-12
-2.12271e-12
-1.47653e-12
-1.58481e-13
1.30867e-12
6.01829e-12
8.60245e-12
1.02228e-11
1.13042e-11
1.24295e-11
1.31353e-11
2.19057e-11
3.27541e-11
3.51002e-11
4.24748e-11
8.99852e-06
1.5583e-05
7.21347e-06
2.57147e-07
-2.66128e-09
5.66685e-08
4.70633e-07
2.03696e-08
0.410904
0.961793
0.999924
0.999996
0.999999
1
1
1
0.827229
0.0863338
-3.16514e-10
-2.45976e-10
-1.98901e-10
-1.60243e-10
-1.18218e-10
-7.4522e-11
-3.78315e-11
-1.72558e-11
-1.02837e-11
-7.76292e-12
-3.6933e-12
-9.9881e-15
-5.54841e-14
-4.90755e-14
-4.78562e-14
-4.53975e-24
-1.30879e-21
2.50185e-13
1.41975e-11
2.69225e-11
2.80931e-11
2.91855e-11
2.78215e-06
8.41722e-06
5.08387e-06
2.15708e-07
2.9152e-09
9.9265e-10
4.1556e-09
5.39862e-11
0.0875147
0.69818
0.999746
0.999987
0.999999
1
1
1
0.825987
0.0859896
-1.67648e-10
-1.61991e-10
-1.57361e-10
-1.50756e-10
-1.39281e-10
-1.2553e-10
-1.14048e-10
-1.06833e-10
-1.02048e-10
-9.67599e-11
-8.93751e-11
-7.92618e-11
-6.59799e-11
-4.99662e-11
-3.28555e-11
-1.73272e-11
-5.08436e-12
1.36072e-30
1.51792e-11
2.80585e-11
2.84258e-11
2.86317e-11
2.91855e-11
2.36428e-08
5.94051e-07
2.35159e-07
3.17454e-09
2.01332e-11
2.80058e-11
2.62039e-11
2.5315e-13
0.335887
0.942437
0.999967
0.999999
1
1
1
0.828218
0.0881208
-6.40563e-11
-6.78399e-11
-7.15206e-11
-7.41474e-11
-7.47946e-11
-7.40686e-11
-7.32807e-11
-7.28789e-11
-7.21478e-11
-7.00729e-11
-6.60117e-11
-5.95449e-11
-5.03239e-11
-3.83241e-11
-2.45258e-11
-1.06205e-11
5.30467e-13
1.50364e-11
3.87437e-11
5.28623e-11
5.65468e-11
5.71312e-11
5.5002e-11
9.60571e-11
1.70995e-10
4.09931e-08
4.05159e-09
3.44833e-12
7.57362e-15
1.51472e-14
1.51472e-14
0.0913253
0.732299
0.999932
0.999998
1
1
1
0.838399
0.094136
-2.00444e-11
-2.24466e-11
-2.49454e-11
-2.72731e-11
-2.91311e-11
-3.05375e-11
-3.17077e-11
-3.26423e-11
-3.30352e-11
-3.24577e-11
-3.05915e-11
-2.71719e-11
-2.19007e-11
-1.46567e-11
-5.88775e-12
5.0569e-12
2.3375e-11
4.20991e-11
6.71756e-11
9.37595e-11
1.04018e-10
1.04828e-10
9.77649e-11
3.55142e-11
4.08416e-12
8.21944e-12
6.04709e-10
6.36245e-12
0
7.57362e-15
1.91469e-12
1.00028e-10
0.4333
0.978467
0.999996
1
1
1
0.85098
0.101976
-5.35509e-12
-6.25348e-12
-7.24206e-12
-8.25324e-12
-9.19893e-12
-1.00342e-11
-1.07533e-11
-1.12974e-11
-1.15309e-11
-1.12176e-11
-1.02223e-11
-8.35355e-12
-5.48079e-12
-1.51497e-12
5.39874e-12
1.66933e-11
2.85549e-11
4.38002e-11
6.7274e-11
9.73677e-11
1.1329e-10
1.1329e-10
9.71727e-11
3.29187e-11
-1.87001e-20
0
-3.10322e-14
-5.5779e-11
-2.11908e-12
-4.38041e-16
6.56966e-10
3.13316e-09
0.173452
0.866354
0.999992
1
1
1
0.866969
0.113774
-1.21582e-12
-1.4612e-12
-1.73018e-12
-2.00558e-12
-2.25267e-12
-2.46102e-12
-2.60659e-12
-2.65071e-12
-2.5459e-12
-2.11406e-12
-1.41578e-12
-1.71781e-13
2.26948e-12
6.59155e-12
1.24458e-11
1.92038e-11
2.77208e-11
3.86289e-11
5.58225e-11
8.38442e-11
1.07985e-10
1.08674e-10
8.20643e-11
1.50146e-11
-2.16809e-11
-6.37069e-11
-1.30843e-10
-1.73739e-10
-1.50579e-10
-8.16864e-13
4.04416e-10
5.93342e-08
0.0465027
0.697389
0.99999
1
1
1
0.891243
0.134592
-1.48993e-13
-1.41242e-13
-8.64953e-14
0
1.8513e-13
5.35846e-13
1.05796e-12
1.81853e-12
2.95428e-12
4.57522e-12
6.91071e-12
1.00275e-11
1.36194e-11
1.73196e-11
2.08543e-11
2.50305e-11
3.1162e-11
3.99878e-11
5.3899e-11
7.63275e-11
9.89223e-11
9.96318e-11
6.10891e-11
-2.91517e-12
-6.35253e-11
-1.36044e-10
-2.10809e-10
-2.5613e-10
-2.58116e-10
-4.75069e-11
-1.29155e-10
7.49148e-09
0.00287652
0.5313
0.996382
0.999999
1
1
0.923576
0.166953
4.75445e-13
8.96645e-13
1.52043e-12
2.42784e-12
3.67586e-12
5.39415e-12
7.82819e-12
1.11705e-11
1.55736e-11
2.09795e-11
2.70538e-11
3.28924e-11
3.83439e-11
4.24303e-11
4.46887e-11
4.67432e-11
4.99314e-11
5.52018e-11
6.5099e-11
8.42443e-11
1.0135e-10
8.84079e-11
2.13045e-11
-4.82759e-11
-1.42299e-10
-2.41435e-10
-3.2443e-10
-3.66174e-10
-3.0732e-10
-6.58171e-14
1.3408e-10
1.64754e-09
9.13113e-09
0.387314
0.976394
0.999997
1
1
0.960819
0.210436
2.15499e-12
3.61412e-12
5.63589e-12
8.51801e-12
1.28235e-11
1.92687e-11
2.82967e-11
3.98627e-11
5.30463e-11
6.63417e-11
7.82419e-11
8.71459e-11
9.00802e-11
8.75113e-11
8.81806e-11
9.45249e-11
9.58707e-11
9.95624e-11
1.08193e-10
1.19302e-10
1.24749e-10
9.13919e-11
4.9648e-12
-6.03212e-11
-1.5171e-10
-2.33971e-10
-2.81375e-10
-2.27119e-10
-5.40391e-13
1.3542e-10
1.62249e-09
9.08908e-09
1.32232e-07
0.314954
0.958159
0.999989
0.999999
1
0.999999
0.270286
7.04712e-12
1.15007e-11
1.81748e-11
2.8815e-11
4.49479e-11
6.74928e-11
9.62228e-11
1.25792e-10
1.50533e-10
1.7122e-10
1.80649e-10
1.72568e-10
1.74982e-10
2.26187e-10
2.57231e-10
2.21977e-10
2.86677e-10
2.86874e-10
2.25182e-10
2.13312e-10
2.00022e-10
1.49467e-10
5.26488e-11
-2.05918e-11
-7.49039e-11
-1.09898e-10
-2.6097e-11
-4.86145e-14
2.39626e-10
4.2244e-09
3.80136e-08
2.05125e-07
4.24143e-06
0.322153
0.960087
0.999977
0.999999
0.999999
0.999999
0.364267
1.89206e-11
3.23872e-11
5.53031e-11
9.01773e-11
1.46136e-10
2.20082e-10
2.86968e-10
3.08769e-10
3.25097e-10
3.16726e-10
3.04853e-10
3.7153e-10
6.36951e-10
6.95416e-10
6.99349e-10
5.65006e-10
4.09282e-10
4.30347e-10
3.97481e-10
3.8434e-10
3.74171e-10
3.30987e-10
1.83512e-10
4.60687e-11
8.77329e-12
5.09065e-10
4.80629e-10
4.9566e-10
7.98707e-09
1.05014e-07
7.62366e-07
4.38532e-06
7.71871e-05
0.484232
0.989925
0.999975
0.999997
0.999998
0.999999
0.447429
4.52306e-11
8.49474e-11
1.51807e-10
2.66305e-10
4.12369e-10
4.67498e-10
4.85683e-10
4.8255e-10
4.49366e-10
4.48143e-10
6.22234e-10
8.63982e-10
9.01392e-10
9.01392e-10
7.44276e-10
4.24736e-10
4.04726e-10
4.36924e-10
5.27287e-10
5.15096e-10
4.66613e-10
3.45327e-10
2.26408e-10
4.62355e-10
5.40729e-09
6.46601e-09
2.00039e-09
2.25527e-08
2.05545e-07
2.16144e-06
1.27084e-05
7.64945e-05
0.0707667
0.769522
0.999648
0.999977
0.999995
0.999996
0.999998
0.53489
)
;

boundaryField
{
    leftWall
    {
        type            zeroGradient;
    }
    rightWall
    {
        type            zeroGradient;
    }
    lowerWall
    {
        type            zeroGradient;
    }
    atmosphere
    {
        type            inletOutlet;
        inletValue      nonuniform 0();
        value           nonuniform 0();
    }
    defaultFaces
    {
        type            empty;
    }
    procBoundary1to0
    {
        type            processor;
        value           nonuniform List<scalar> 
44
(
1
0.99671
0.969346
0.969339
0.979457
0.999328
1
1
1
1
1
1
1
1
1
1
1
1
1
0.999999
0.946433
0.946433
0.183539
0.000192001
6.39738e-06
2.29658e-07
7.55099e-09
-2.82427e-11
-1.46327e-09
-4.18459e-09
-2.42903e-09
-9.78654e-10
-3.32356e-10
-1.0374e-10
-3.06234e-11
-8.36662e-12
-2.01587e-12
-4.07015e-13
-6.46041e-14
-4.35954e-15
2.3255e-14
8.72934e-14
2.51273e-13
5.95177e-13
)
;
    }
    procBoundary1to3
    {
        type            processor;
        value           nonuniform List<scalar> 
45
(
3.41888e-12
7.77522e-12
1.5361e-11
2.83899e-11
5.22207e-11
1.05604e-10
2.12747e-10
4.10548e-10
5.46676e-10
5.49858e-10
5.49843e-10
4.94231e-10
4.96615e-10
5.27019e-10
6.40976e-10
7.42645e-10
8.3701e-10
7.13853e-10
5.35086e-10
4.87765e-10
4.09811e-10
4.06706e-10
4.38046e-10
5.53872e-10
4.90041e-10
4.41617e-10
3.53499e-10
1.13213e-09
2.90312e-09
3.96261e-09
1.44759e-08
9.70712e-08
8.04687e-07
3.93043e-06
3.38509e-05
0.000195154
0.00117947
0.493922
0.985315
0.999898
0.999988
0.999993
0.999995
0.999997
0.564044
)
;
    }
}


// ************************************************************************* //
