/*--------------------------------*- C++ -*----------------------------------*\
| =========                 |                                                 |
| \\      /  F ield         | OpenFOAM: The Open Source CFD Toolbox           |
|  \\    /   O peration     | Version:  5.0                                   |
|   \\  /    A nd           | Web:      www.OpenFOAM.org                      |
|    \\/     M anipulation  |                                                 |
\*---------------------------------------------------------------------------*/
FoamFile
{
    version     2.0;
    format      ascii;
    class       volScalarField;
    location    "0.55";
    object      epsilon;
}
// * * * * * * * * * * * * * * * * * * * * * * * * * * * * * * * * * * * * * //

dimensions      [0 2 -3 0 0 0 0];

internalField   nonuniform List<scalar> 
1915
(
0.447027
0.295742
0.383685
0.481755
0.473257
0.731102
0.567906
1.00883
0.672271
1.31614
0.774975
1.60651
0.871273
1.88258
0.963398
2.16538
1.06389
2.56374
1.16796
3.40304
0.052451
0.367527
0.3862
0.455863
0.546507
0.65225
0.764292
0.875946
0.982889
1.0824
1.17255
1.25177
1.31879
1.37266
1.41289
1.43957
1.45339
1.45552
1.4475
1.4312
1.40893
1.38034
1.34646
1.30935
1.27121
1.23428
1.20048
1.17093
1.14551
1.12266
1.09953
1.07232
1.03642
0.986258
0.915472
0.81765
0.687055
0.519461
0.0818996
0.0309774
0.292795
0.371629
0.446434
0.459949
0.466321
0.475848
0.485647
0.493937
0.499769
0.502651
0.502269
0.498505
0.491538
0.481843
0.470105
0.457072
0.443471
0.430037
0.417599
0.407083
0.399546
0.393343
0.387344
0.381804
0.377078
0.373552
0.371554
0.371273
0.372681
0.375483
0.379088
0.382578
0.384683
0.383768
0.377821
0.36429
0.339252
0.294813
0.212928
0.133342
0.526281
0.455338
0.468649
0.437128
0.408028
0.391467
0.381962
0.3754
0.369547
0.363265
0.356043
0.347877
0.33916
0.330483
0.322417
0.3154
0.30975
0.30574
0.303612
0.303536
0.305572
0.308806
0.312904
0.317983
0.324287
0.332086
0.341605
0.352965
0.366135
0.380912
0.396915
0.41359
0.430198
0.445765
0.458871
0.46701
0.464758
0.439334
0.366261
0.243132
0.739231
0.51505
0.48593
0.439186
0.402451
0.381213
0.368803
0.360542
0.353974
0.347844
0.341532
0.334949
0.32845
0.322618
0.318013
0.315048
0.314022
0.315221
0.318904
0.325197
0.334016
0.344255
0.355446
0.367821
0.381862
0.398053
0.416789
0.438311
0.462654
0.489641
0.518947
0.550202
0.58304
0.61702
0.651199
0.682808
0.703752
0.692713
0.608045
0.432031
0.940709
0.564064
0.505743
0.45514
0.42033
0.40191
0.392725
0.388206
0.385926
0.384478
0.382974
0.38109
0.379095
0.37761
0.377248
0.37847
0.381734
0.387666
0.39694
0.40991
0.426365
0.444122
0.461975
0.480605
0.501283
0.525141
0.553027
0.585558
0.623047
0.665505
0.712822
0.76504
0.82252
0.885821
0.954917
1.02677
1.089
1.10615
1.00799
0.744054
1.14258
0.61176
0.529991
0.479844
0.451916
0.442172
0.442872
0.449546
0.459633
0.471271
0.482948
0.493795
0.503729
0.513065
0.521997
0.530591
0.539445
0.550174
0.564922
0.585113
0.61049
0.636207
0.658437
0.679188
0.70211
0.729986
0.764566
0.807214
0.858961
0.920419
0.992117
1.0751
1.17129
1.2833
1.41312
1.55775
1.69763
1.77201
1.6587
1.24738
1.35441
0.661878
0.55726
0.51105
0.496524
0.505009
0.527976
0.560951
0.600867
0.644812
0.690012
0.734441
0.776917
0.816261
0.850428
0.87714
0.896195
0.911179
0.928222
0.952331
0.984079
1.01399
1.02963
1.0366
1.04559
1.0636
1.09376
1.13843
1.20001
1.28046
1.38168
1.50671
1.66052
1.84964
2.07996
2.34914
2.62565
2.80525
2.67773
2.0403
1.58982
0.718771
0.587622
0.552088
0.563455
0.60827
0.677488
0.766688
0.871599
0.987154
1.10829
1.23094
1.35163
1.46545
1.56432
1.63888
1.68462
1.70693
1.71936
1.7354
1.75923
1.77809
1.75551
1.70485
1.65588
1.6266
1.62151
1.64309
1.69574
1.78399
1.91209
2.08649
2.31742
2.61827
3.00192
3.46777
3.96588
4.32297
4.19274
3.24904
1.8861
0.79233
0.627567
0.616101
0.676253
0.789477
0.946584
1.14245
1.36955
1.61856
1.88067
2.14891
2.41673
2.67413
2.90403
3.08483
3.2015
3.25665
3.27027
3.26783
3.26158
3.24296
3.1266
2.93456
2.73981
2.58806
2.48498
2.42938
2.42782
2.48982
2.6235
2.84021
3.15856
3.60319
4.19869
4.94891
5.77874
6.4152
6.31876
5.01566
2.28709
0.914246
0.700448
0.734422
0.879098
1.10761
1.4084
1.77142
2.18181
2.62406
3.08518
3.55518
4.02529
4.48355
4.90806
5.26668
5.52995
5.68833
5.75676
5.76683
5.7484
5.6764
5.42175
4.99504
4.54022
4.16288
3.87181
3.65484
3.52028
3.48897
3.57637
3.80083
4.19285
4.79476
5.65059
6.77485
8.064
9.11468
9.13297
7.48
1.13299
1.94786
1.11921
1.66586
1.10589
1.56047
1.07894
1.45806
1.04045
1.34561
0.99798
1.23574
0.958189
1.1393
0.925149
1.06161
0.900369
1.00332
0.883268
0.962033
0.934375
0.918372
0.91195
0.898104
0.873993
0.851966
0.833089
0.816783
0.803311
0.792718
0.784919
0.779814
0.777237
0.776865
0.778168
0.780429
0.782829
0.784575
0.785031
0.783831
0.780949
0.776717
0.771794
2.90217
2.86572
3.57517
3.74737
2.34292
3.85885
4.84753
3.08888
2.22381
3.7849
5.8048
4.38955
2.03394
2.98414
4.91407
5.35888
1.80255
2.47129
3.58308
4.42735
1.576
2.0488
2.71978
3.32956
1.38346
1.70294
2.11022
2.49211
1.23415
1.44464
1.68946
1.91167
1.12553
1.26459
1.41361
1.54266
1.05018
1.14434
1.2386
1.317
0.999656
1.06597
1.12913
1.18028
0.96793
1.01691
1.0623
1.09822
0.950581
0.989924
1.02599
1.05238
0.937921
0.977886
1.01319
1.03183
0.913431
0.952142
0.986496
1.01113
0.883749
0.914597
0.944096
0.972017
0.859591
0.884537
0.908363
0.931453
0.839852
0.861146
0.881284
0.900618
0.824279
0.843334
0.861052
0.877608
0.812525
0.830296
0.846525
0.861277
0.804168
0.821286
0.836713
0.850462
0.798871
0.815727
0.830801
0.844087
0.796327
0.813164
0.828159
0.841307
0.79615
0.813128
0.828221
0.841433
0.797786
0.81504
0.830368
0.843791
0.80051
0.818167
0.833865
0.847641
0.803492
0.82168
0.837888
0.852177
0.805922
0.824762
0.84163
0.856613
0.807146
0.826755
0.844441
0.860318
0.806791
0.827288
0.845962
0.862961
0.80484
0.826364
0.846227
0.864615
0.801663
0.8244
0.845708
0.865808
0.797985
0.8222
0.845292
0.867514
1.87607
1.06187
0.867006
0.973776
1.24049
1.62593
2.11025
2.67046
3.28126
3.92515
4.58931
5.26239
5.93457
6.5982
7.23819
7.82344
8.31377
8.67908
8.91014
9.02369
9.07455
9.00524
8.63132
7.94931
7.17361
6.50315
5.9532
5.49149
5.12703
4.90746
4.8639
5.02675
5.44216
6.17859
7.31163
8.87967
10.7563
12.3844
12.6578
10.7695
2.03169
1.42831
1.27567
1.43996
1.80481
2.31626
2.94194
3.63903
4.37236
5.13501
5.92516
6.73458
7.54858
8.36268
9.17673
9.97677
10.7256
11.3751
11.8786
12.2082
12.4613
12.5392
12.1336
11.3325
10.3559
9.48329
8.72048
8.00669
7.34881
6.85756
6.58969
6.6008
6.95809
7.76522
9.14739
11.1918
13.7713
16.1653
16.9046
15.0676
3.17703
2.33651
2.04556
2.11938
2.42507
2.90492
3.51036
4.18143
4.87398
5.59816
6.36991
7.19141
8.03529
8.88405
9.74191
10.6229
11.5143
12.3757
13.1394
13.7255
14.3009
14.6527
14.3958
13.8158
13.0552
12.3665
11.6861
10.9009
9.99395
9.24754
8.73083
8.5341
8.76243
9.56065
11.124
13.6252
16.9803
20.3183
21.7727
20.5261
4.22506
3.15839
2.67219
2.56047
2.65067
2.89969
3.27758
3.74117
4.24456
4.77207
5.33087
5.92373
6.53847
7.16205
7.79769
8.4549
9.12898
9.7918
10.4048
10.9534
11.5331
12.2996
12.9441
13.2673
13.4251
13.56
13.5543
13.1883
12.2734
11.5338
10.9721
10.642
10.7622
11.5273
13.2225
16.1488
20.331
24.7808
27.1962
27.384
3.97965
3.15239
2.64182
2.43481
2.39872
2.4727
2.64164
2.8899
3.18859
3.51169
3.85171
4.20804
4.58069
4.96491
5.35802
5.76115
6.17307
6.58129
6.96798
7.32936
7.71197
8.23376
8.85376
9.38132
9.85818
10.4104
11.0744
11.7326
12.1177
12.3452
12.4444
12.3342
12.5739
13.4373
15.3257
18.7174
23.8332
29.6169
33.2229
35.9405
3.23149
2.74917
2.34512
2.12152
2.02638
2.01248
2.06551
2.17621
2.32733
2.49943
2.68434
2.88082
3.08951
3.30737
3.53048
3.75814
3.99062
4.22418
4.45232
4.67369
4.90935
5.20616
5.56897
5.93761
6.3219
6.78504
7.37146
8.05946
8.8964
9.90047
11.1032
12.3177
13.3562
14.7249
17.0657
21.1103
27.4209
34.9718
40.0592
46.4181
2.5413
2.29773
2.02138
1.82592
1.71166
1.65731
1.65071
1.68323
1.74381
1.82064
1.90767
2.00332
2.10729
2.21752
2.3311
2.44671
2.56445
2.68383
2.80322
2.92327
3.05359
3.21361
3.41287
3.64116
3.90781
4.24606
4.69175
5.26499
5.99876
6.94173
8.17883
9.85078
11.9761
14.5644
17.7565
22.7559
30.6844
40.8333
47.9644
58.7022
1.98643
1.88324
1.71899
1.57514
1.47297
1.40945
1.37809
1.37253
1.38576
1.41094
1.44401
1.48339
1.52831
1.57733
1.62855
1.68076
1.73375
1.78766
1.84254
1.89948
1.96293
2.04117
2.14099
2.26511
2.4231
2.63564
2.93099
3.34915
3.92756
4.72424
5.81964
7.32628
9.43733
12.4871
16.8647
22.9649
32.6221
46.6309
56.9916
72.162
1.60304
1.56564
1.47604
1.38113
1.30267
1.24556
1.20831
1.18755
1.17927
1.1796
1.18595
1.19697
1.21185
1.22953
1.24883
1.26882
1.28921
1.31011
1.33185
1.35524
1.38237
1.41683
1.46246
1.52305
1.60579
1.72404
1.89919
2.16842
2.577
3.18951
4.09329
5.40822
7.32552
10.1636
14.5594
21.5703
32.5606
50.8433
66.6749
85.795
1.36019
1.34989
1.30279
1.2433
1.18733
1.14139
1.10665
1.08199
1.06548
1.05508
1.04921
1.04688
1.04735
1.04988
1.05369
1.05815
1.06299
1.06825
1.07418
1.08126
1.0905
1.10349
1.12227
1.14943
1.18954
1.25098
1.3486
1.51017
1.77903
2.22004
2.92848
4.03854
5.74627
8.35893
12.4333
19.1376
30.9032
52.1692
75.5757
98.6069
1.21141
1.21197
1.18796
1.15167
1.11323
1.07826
1.04891
1.02537
1.00703
0.992944
0.982216
0.974137
0.968133
0.963663
0.960191
0.957289
0.954741
0.952556
0.950902
0.950072
0.950561
0.953142
0.958885
0.969368
0.987417
1.0184
1.07248
1.16933
1.34529
1.65893
2.20652
3.13399
4.6509
7.06197
10.8705
17.1008
28.3402
51.5317
80.7192
109.836
1.1213
1.12615
1.11511
1.09401
1.06862
1.0431
1.01978
0.999589
0.982641
0.968593
0.956947
0.947214
0.93895
0.931728
0.925146
0.91889
0.9128
0.906893
0.901307
0.896248
0.892011
0.889033
0.887945
0.889765
0.896347
0.911405
0.942398
1.00421
1.12613
1.3601
1.79821
2.59246
3.9685
6.23625
9.8574
15.7302
26.179
48.5552
82.8075
119.451
1.0691
1.0754
1.07235
1.0618
1.0462
1.0284
1.01091
0.995149
0.981506
0.969799
0.959694
0.95085
0.942908
0.935474
0.928171
0.920721
0.913001
0.905051
0.897015
0.889087
0.881507
0.87465
0.869066
0.865589
0.865574
0.871906
0.89068
0.934396
1.02801
1.21923
1.59669
2.31702
3.62242
5.83243
9.36944
14.9986
24.6965
44.6739
84.5924
130.136
1.04283
1.05013
1.05324
1.05102
1.04318
1.03152
1.01932
1.00865
0.999743
0.99214
0.985466
0.979482
0.973866
0.968145
0.961837
0.954619
0.946368
0.937141
0.927092
0.916409
0.905257
0.894216
0.884206
0.876332
0.871559
0.872418
0.884425
0.919209
1.00019
1.17363
1.52919
2.23234
3.54575
5.80027
9.3758
14.8994
23.9997
41.7953
85.3909
138.327
1.02859
1.04203
1.05299
1.05964
1.05922
1.05204
1.04437
1.03963
1.03713
1.03559
1.03444
1.03352
1.03249
1.03059
1.02706
1.02145
1.0136
1.00357
0.99147
0.977431
0.961079
0.943832
0.92782
0.914767
0.904676
0.900903
0.908771
0.939622
1.01718
1.18941
1.55226
2.28813
3.68852
6.09672
9.84128
15.4098
24.1354
40.3633
79.2891
137.052
0.997993
1.01946
1.03783
1.05269
1.06338
1.07025
1.07557
1.08218
1.09035
1.09927
1.10833
1.11703
1.12464
1.12999
1.13195
1.1299
1.12365
1.11328
1.09885
1.08062
1.05541
1.02811
1.00374
0.983953
0.964898
0.95487
0.958506
0.987954
1.06772
1.25022
1.64284
2.4551
4.01828
6.68772
10.7262
16.4706
24.947
39.4195
69.412
126.735
0.95491
0.977248
0.997514
1.01594
1.03362
1.05265
1.07221
1.09162
1.11222
1.1339
1.15612
1.1781
1.1986
1.21591
1.22833
1.23501
1.23596
1.23159
1.2221
1.20892
1.188
1.15401
1.12145
1.09721
1.06127
1.04215
1.03726
1.06484
1.14892
1.34972
1.79168
2.72014
4.5181
7.54792
11.9863
18.0019
26.2969
39.1321
62.5223
116.208
0.920332
0.939682
0.95753
0.97397
0.989656
1.00608
1.02421
1.04402
1.06542
1.08795
1.11139
1.13554
1.15965
1.18225
1.20191
1.21809
1.23139
1.243
1.25327
1.25883
1.26054
1.24507
1.22256
1.21475
1.19041
1.17667
1.15889
1.18506
1.2678
1.48851
1.99757
3.08249
5.18456
8.6599
13.5749
19.9154
28.0645
39.4581
57.7696
106.394
0.894016
0.90981
0.924255
0.937535
0.950143
0.963019
0.977087
0.992702
1.00975
1.0279
1.04707
1.06724
1.08805
1.10864
1.12822
1.14673
1.16496
1.18385
1.20277
1.21724
1.22561
1.2288
1.23666
1.24765
1.25489
1.27338
1.31122
1.38362
1.4487
1.67727
2.26469
3.55038
6.02445
10.0111
15.4426
22.119
30.1311
40.2789
54.8947
98.0078
0.875401
0.888516
0.900198
0.910759
0.920633
0.930424
0.940782
0.952123
0.964542
0.977936
0.992244
1.00744
1.02331
1.0394
1.05535
1.0714
1.08832
1.10667
1.12553
1.14143
1.15264
1.16298
1.18073
1.20415
1.2308
1.27095
1.35044
1.50662
1.72816
1.93654
2.60681
4.13717
7.04697
11.586
17.5329
24.5167
32.378
41.4416
53.2569
91.1131
0.863287
0.874807
0.884726
0.893401
0.901236
0.908695
0.916273
0.924383
0.933249
0.942925
0.953392
0.964595
0.976354
0.988364
1.00044
1.01282
1.02608
1.0406
1.05561
1.06887
1.07923
1.08982
1.10685
1.13183
1.16582
1.21921
1.31611
1.49712
1.84482
2.27804
3.0451
4.85776
8.25365
13.3534
19.7759
27.0071
34.6884
42.7995
52.4216
85.2127
0.856298
0.867033
0.876019
0.883603
0.890163
0.896112
0.901885
0.907888
0.914414
0.92161
0.92951
0.938059
0.947085
0.956324
0.965583
0.974947
0.984747
0.995166
1.00568
1.01499
1.02246
1.03034
1.04333
1.06517
1.10084
1.16333
1.27721
1.48778
1.87875
2.57101
3.59181
5.74156
9.63336
15.2579
22.0851
29.4867
36.9546
44.2289
52.0987
80.1445
0.853317
0.86377
0.872382
0.879476
0.885412
0.890582
0.895404
0.900281
0.905538
0.911377
0.917875
0.924989
0.932552
0.9403
0.947978
0.955485
0.962878
0.970147
0.976909
0.982428
0.986524
0.990966
0.999749
1.01802
1.0537
1.12218
1.25109
1.491
1.92411
2.78127
4.30158
6.80676
11.1507
17.2208
24.364
31.8579
39.0867
45.634
52.0987
75.9614
0.853484
0.863955
0.872548
0.879572
0.88538
0.89036
0.894925
0.899477
0.904356
0.90979
0.915876
0.92258
0.929728
0.937033
0.944166
0.950856
0.956916
0.962146
0.966192
0.968649
0.969683
0.971023
0.97654
0.992349
1.02831
1.10168
1.24293
1.50896
2.00607
2.97137
4.82714
7.91355
12.7201
19.1503
26.5204
34.0405
41.022
46.9546
52.3113
72.7652
0.856056
0.866756
0.875587
0.882862
0.888937
0.89421
0.899094
0.903993
0.909246
0.915087
0.921613
0.928777
0.936379
0.944084
0.951482
0.958151
0.963708
0.967786
0.970018
0.970198
0.968811
0.967799
0.971261
0.986114
1.02366
1.10301
1.258
1.55321
2.11719
3.21156
5.36562
9.03729
14.2471
20.9534
28.4749
35.9772
42.7267
48.1626
52.6781
70.5839
0.860287
0.87142
0.880735
0.888564
0.895281
0.901298
0.907037
0.9129
0.91922
0.926218
0.933969
0.942384
0.951207
0.960033
0.96835
0.975607
0.981267
0.984837
0.985951
0.984596
0.981565
0.979142
0.981867
0.997448
1.03848
1.12606
1.29778
1.62616
2.25849
3.48875
5.85513
9.86921
15.5339
22.5307
30.1619
37.6315
44.1912
49.2558
53.1781
69.463
0.865395
0.877199
0.887286
0.896013
0.903785
0.911035
0.918195
0.925665
0.933765
0.942684
0.952448
0.962898
0.973686
0.984301
0.994116
1.00247
1.00868
1.01224
1.01286
1.01073
1.00698
1.00432
1.00785
1.02613
1.07313
1.17223
1.36537
1.73383
2.44265
3.80627
6.34619
10.606
16.5818
23.817
31.5301
38.9843
45.4258
50.2532
53.8222
69.4782
0.870631
0.883396
0.894601
0.904642
0.913957
0.923003
0.932228
0.942027
0.952692
0.964366
0.976994
0.990306
1.00382
1.01689
1.02873
1.03856
1.04572
1.04974
1.0505
1.0485
1.04523
1.04391
1.05027
1.07385
1.13018
1.24545
1.46708
1.88701
2.68856
4.19942
6.90793
11.3376
17.4541
24.7798
32.552
40.0332
46.4552
51.191
54.6428
70.6639
0.875401
0.889471
0.902209
0.914055
0.925485
0.936985
0.949014
0.961961
0.97608
0.991439
1.00787
1.02493
1.04197
1.05807
1.07234
1.08398
1.0924
1.09733
1.09898
1.09826
1.09717
1.09946
1.11159
1.14414
1.21447
1.35231
1.61202
2.09901
3.0125
4.68463
7.54852
12.0958
18.1939
25.462
33.2415
40.7984
47.3155
52.1167
55.6963
73.091
0.879412
0.895184
0.909935
0.924151
0.938348
0.953043
0.96871
0.985724
1.00429
1.02436
1.04563
1.06734
1.08854
1.10816
1.12518
1.1388
1.14866
1.15492
1.15836
1.16055
1.16415
1.17358
1.19603
1.24319
1.33444
1.50349
1.81264
2.38169
3.4211
5.25822
8.26027
12.9023
18.9042
25.9156
33.6325
41.3163
48.0477
53.0811
57.0526
76.9367
0.882784
0.900715
0.918019
0.935232
0.952914
0.971616
0.99183
1.01392
1.03804
1.06393
1.09094
1.11808
1.14407
1.16758
1.18745
1.20303
1.21438
1.22241
1.2289
1.23649
1.24884
1.27124
1.31175
1.3831
1.50654
1.71943
2.09118
2.74812
3.90463
5.8788
9.0018
13.7414
19.7039
26.1598
33.7668
41.6365
48.6959
54.1291
58.7441
82.1918
0.88611
0.906719
0.927177
0.948068
0.969999
0.993572
1.01931
1.04758
1.07824
1.1109
1.14461
1.17797
1.20931
1.23697
1.25973
1.27724
1.29031
1.30108
1.31294
1.33027
1.35838
1.40402
1.47652
1.58974
1.76608
2.0445
2.4958
3.23154
4.4571
6.48071
9.68144
14.4362
20.1502
26.122
33.7227
41.8399
49.3208
55.3164
60.7773
88.3708
0.890444
0.914328
0.938598
0.963889
0.990866
1.02025
1.05242
1.08768
1.12588
1.16633
1.20771
1.24814
1.28551
1.31792
1.34427
1.36476
1.38135
1.39798
1.42039
1.45568
1.512
1.59894
1.72848
1.91603
2.1834
2.56685
3.11202
3.90554
5.11187
7.01587
10.2362
14.6539
19.414
25.7734
33.6239
42.0471
50.008
56.6979
63.235
95.6407
)
;

boundaryField
{
    leftWall
    {
        Cmu             0.09;
        kappa           0.41;
        E               9.8;
        type            epsilonWallFunction;
        value           nonuniform 0();
    }
    rightWall
    {
        Cmu             0.09;
        kappa           0.41;
        E               9.8;
        type            epsilonWallFunction;
        value           nonuniform List<scalar> 
43
(
0.0309774
0.133342
0.243132
0.432031
0.744054
1.24738
2.0403
3.24904
5.01566
7.48
10.7695
15.0676
20.5261
27.384
35.9405
46.4181
58.7022
72.162
85.795
98.6069
109.836
119.451
130.136
138.327
137.052
126.735
116.208
106.394
98.0078
91.1131
85.2127
80.1445
75.9614
72.7652
70.5839
69.463
69.4782
70.6639
73.091
76.9367
82.1918
88.3708
95.6407
)
;
    }
    lowerWall
    {
        Cmu             0.09;
        kappa           0.41;
        E               9.8;
        type            epsilonWallFunction;
        value           nonuniform List<scalar> 
66
(
0.447027
0.295742
0.295742
0.481755
0.731102
1.00883
1.31614
1.60651
1.88258
2.16538
2.56374
3.40304
2.90217
2.86572
3.57517
3.74737
0.052451
0.292795
0.526281
0.739231
0.940709
1.14258
1.35441
1.58982
1.8861
2.28709
0.052451
0.367527
0.3862
0.455863
0.546507
0.65225
0.764292
0.875946
0.982889
1.0824
1.17255
1.25177
1.31879
1.37266
1.41289
1.43957
1.45339
1.45552
1.4475
1.4312
1.40893
1.38034
1.34646
1.30935
1.27121
1.23428
1.20048
1.17093
1.14551
1.12266
1.09953
1.07232
1.03642
0.986258
0.915472
0.81765
0.687055
0.519461
0.0818996
0.0309774
)
;
    }
    atmosphere
    {
        type            inletOutlet;
        inletValue      nonuniform 0();
        value           nonuniform 0();
    }
    defaultFaces
    {
        type            empty;
    }
    procBoundary1to0
    {
        type            processor;
        value           nonuniform List<scalar> 
44
(
0.503502
0.386672
0.433961
0.487488
0.541246
0.593438
0.64356
0.692256
0.740669
0.785608
0.813729
0.834735
0.847497
0.850735
0.846342
0.837936
0.829017
0.822017
0.817945
0.816706
0.872879
0.872879
0.8688
0.868337
0.855471
0.836434
0.820152
0.80536
0.791899
0.780217
0.770613
0.763276
0.758304
0.75564
0.755014
0.755915
0.757642
0.759397
0.760416
0.760094
0.758083
0.754353
0.749202
0.743219
)
;
    }
    procBoundary1to3
    {
        type            processor;
        value           nonuniform List<scalar> 
45
(
0.767004
0.794777
0.82086
0.846195
0.871059
0.897219
0.925061
0.953867
0.984344
1.01717
1.05295
1.09229
1.13547
1.18221
1.23154
1.28175
1.33056
1.37562
1.41513
1.44857
1.47716
1.50437
1.53612
1.58093
1.64956
1.75487
1.912
2.13831
2.45074
2.8636
3.37411
3.99872
4.78603
5.84979
7.37262
10.1571
14.1513
19.0018
25.6828
33.7621
42.4579
50.8863
58.334
66.1386
103.973
)
;
    }
}


// ************************************************************************* //
