/*--------------------------------*- C++ -*----------------------------------*\
| =========                 |                                                 |
| \\      /  F ield         | OpenFOAM: The Open Source CFD Toolbox           |
|  \\    /   O peration     | Version:  5.0                                   |
|   \\  /    A nd           | Web:      www.OpenFOAM.org                      |
|    \\/     M anipulation  |                                                 |
\*---------------------------------------------------------------------------*/
FoamFile
{
    version     2.0;
    format      ascii;
    class       volScalarField;
    location    "0.55";
    object      nut;
}
// * * * * * * * * * * * * * * * * * * * * * * * * * * * * * * * * * * * * * //

dimensions      [0 2 -1 0 0 0 0];

internalField   nonuniform List<scalar> 
1915
(
7.43223e-05
6.46453e-05
0.00036067
0.000110343
0.000601089
0.000126679
0.000832753
0.000140983
0.00100221
0.000154036
0.00114643
0.000164623
0.00127558
0.000173569
0.00139752
0.000181944
0.00152568
0.000192751
0.00170456
0.000211952
0.00017958
6.92131e-05
7.14432e-05
7.57002e-05
8.05505e-05
8.55326e-05
9.02225e-05
9.44501e-05
9.81758e-05
0.000101409
0.000104173
0.000106487
0.000108371
0.000109845
0.000110935
0.000111676
0.000112106
0.000112272
0.000112219
0.000112001
0.000111674
0.00011129
0.00011084
0.000110382
0.000109976
0.000109673
0.0001095
0.000109449
0.00010947
0.00010947
0.000109331
0.000108904
0.000108009
0.000106414
0.000103822
9.9827e-05
9.3777e-05
8.452e-05
0.00029809
0.00018768
0.000103282
0.000397101
0.000397994
0.000394751
0.000393565
0.000396768
0.000403425
0.000412992
0.000425096
0.000439478
0.00045624
0.000475871
0.000498987
0.000526038
0.000557186
0.000592391
0.000631564
0.000674514
0.000720619
0.00076853
0.000815894
0.00086421
0.000915751
0.000970251
0.00102719
0.00108564
0.00114416
0.00120076
0.00125303
0.00129828
0.00133361
0.00135565
0.00136033
0.00134238
0.00129469
0.00120702
0.00106393
0.000842125
0.000518504
8.11226e-05
0.000126717
0.000659371
0.000724211
0.000745367
0.000769809
0.00080267
0.000841785
0.000885265
0.000932002
0.000981459
0.00103371
0.00108928
0.00114878
0.00121254
0.00128058
0.00135281
0.00142922
0.0015098
0.00159429
0.00168201
0.001772
0.00186617
0.00196478
0.00206681
0.00217064
0.00227373
0.00237246
0.00246209
0.00253698
0.00259072
0.00261644
0.0026068
0.00255392
0.00244894
0.00228151
0.00203913
0.00170663
0.00126597
0.000704435
0.000101615
0.000141894
0.000863058
0.00102311
0.00108911
0.00114843
0.00121162
0.00127765
0.00134546
0.00141446
0.00148425
0.00155465
0.00162576
0.00169799
0.00177181
0.00184778
0.00192643
0.0020084
0.00209445
0.00218534
0.00228154
0.00238306
0.00249163
0.00260693
0.00272747
0.0028507
0.00297267
0.00308775
0.00318876
0.00326731
0.00331421
0.00331996
0.00327516
0.00317085
0.00299844
0.00274959
0.00241593
0.00198846
0.00145642
0.000813104
0.000124701
0.000153255
0.00101745
0.00127313
0.00137883
0.00145886
0.0015351
0.00161074
0.00168655
0.00176242
0.00183766
0.00191148
0.00198352
0.0020542
0.00212459
0.002196
0.00226952
0.00234599
0.00242638
0.00251206
0.00260462
0.00270527
0.00281744
0.00294144
0.00307487
0.00321383
0.00335264
0.00348342
0.00359619
0.00367961
0.00372183
0.00371131
0.0036377
0.00349262
0.0032699
0.00296545
0.00257666
0.00210103
0.00153363
0.000870639
0.00015053
0.000162744
0.00112848
0.00146396
0.00159471
0.00167879
0.00175335
0.00182701
0.00190197
0.00197781
0.00205289
0.00212547
0.00219467
0.00226113
0.00232671
0.00239344
0.00246253
0.00253425
0.00260885
0.00268766
0.00277338
0.00286901
0.00298093
0.00311128
0.00325636
0.00341061
0.00356684
0.003715
0.00384192
0.00393284
0.00397303
0.00394909
0.00385041
0.00367042
0.00340691
0.00306142
0.0026377
0.00213889
0.00156353
0.000907281
0.000179408
0.000171298
0.0012004
0.00159147
0.00173101
0.00180671
0.00187187
0.00194016
0.00201417
0.00209223
0.00217115
0.00224791
0.00232116
0.00239171
0.00246182
0.00253339
0.00260667
0.00268058
0.00275431
0.002829
0.00290836
0.00299725
0.00310433
0.003235
0.00338491
0.00354794
0.00371675
0.00388005
0.00402125
0.00412113
0.00416119
0.00412582
0.00400433
0.00379284
0.00349442
0.00311716
0.0026709
0.00216244
0.00159019
0.000945333
0.000211364
0.000179522
0.00123672
0.00165521
0.00178847
0.0018489
0.00190552
0.00197567
0.0020608
0.0021564
0.00225638
0.0023559
0.00245288
0.00254785
0.00264225
0.00273617
0.00282753
0.00291342
0.00299244
0.00306633
0.00314012
0.00322003
0.00331455
0.00343207
0.00356918
0.00372229
0.00388728
0.00405406
0.00420306
0.0043093
0.00434876
0.00430212
0.00415791
0.00391533
0.00358383
0.0031789
0.00271584
0.00220275
0.0016344
0.00099467
0.000245938
0.0001884
0.00124107
0.00165727
0.00177304
0.00182155
0.00188459
0.00197874
0.00210016
0.0022381
0.00238181
0.00252446
0.00266378
0.00280025
0.00293424
0.00306386
0.00318479
0.00329253
0.00338523
0.00346503
0.00353795
0.0036112
0.00369101
0.00378596
0.00389279
0.00401311
0.00415047
0.00430037
0.00444272
0.00454671
0.00458109
0.00452059
0.00435067
0.00407294
0.00370439
0.00326928
0.00278836
0.00226911
0.00169995
0.00105584
0.000282329
0.000198606
0.00122563
0.0016058
0.0017044
0.00176281
0.0018609
0.00200542
0.00218348
0.00237723
0.00257214
0.00276119
0.00294369
0.00312127
0.00329433
0.00346018
0.00361336
0.0037483
0.00386236
0.00395725
0.00403909
0.00411665
0.00419306
0.00427463
0.00435432
0.00443663
0.00453437
0.00465273
0.00477479
0.00486625
0.0048893
0.00481126
0.00461112
0.00429036
0.00387428
0.00339877
0.00289171
0.0023594
0.00178189
0.00112435
0.000319705
0.00220509
0.000784606
0.0027854
0.00144921
0.00343391
0.00211685
0.00417116
0.00286457
0.00500367
0.00372926
0.00592025
0.00471373
0.00689442
0.00579428
0.00788956
0.00692664
0.00886621
0.0080568
0.00978965
0.00913394
0.0101206
0.010996
0.0117522
0.0123832
0.0129015
0.0133359
0.0136934
0.0139771
0.0141906
0.014336
0.0144149
0.0144292
0.0143822
0.0142785
0.0141242
0.0139263
0.0136921
0.013429
0.0131437
0.0128424
0.0125311
0.012216
0.0119034
0.000142152
0.000134754
0.000145163
0.000147832
0.000554129
0.00039993
0.000445353
0.000379423
0.0010691
0.00059139
0.000584912
0.000586606
0.00172522
0.000949845
0.000679735
0.000681372
0.00254103
0.00158282
0.000986736
0.000808844
0.003528
0.00247884
0.00166242
0.00123056
0.00467033
0.003614
0.00270061
0.00208514
0.0059174
0.00493173
0.00403106
0.00334723
0.00719593
0.00633647
0.00552712
0.00487065
0.00843173
0.00772271
0.00704341
0.00646809
0.0095679
0.00900719
0.00846386
0.0079876
0.0105725
0.0101429
0.00972277
0.00934155
0.0114337
0.0111137
0.0107971
0.0104964
0.012152
0.0119206
0.0116867
0.0114482
0.0127296
0.0125575
0.0123815
0.0122026
0.0131981
0.0130586
0.0129171
0.0127761
0.0135814
0.0134649
0.0133439
0.0132209
0.0138837
0.0137841
0.0136782
0.0135685
0.0141101
0.0140222
0.013927
0.0138261
0.0142642
0.0141844
0.0140963
0.0140013
0.0143489
0.0142745
0.0141913
0.0141004
0.014367
0.0142961
0.0142162
0.0141283
0.0143221
0.0142535
0.0141759
0.0140904
0.0142192
0.0141518
0.0140759
0.0139925
0.0140646
0.0139977
0.0139229
0.0138413
0.0138657
0.0137986
0.0137245
0.0136445
0.01363
0.0135624
0.0134888
0.0134103
0.013365
0.0132967
0.0132235
0.0131467
0.0130778
0.0130087
0.012936
0.0128611
0.0127747
0.0127051
0.0126333
0.0125607
0.012462
0.0123924
0.0123219
0.012252
0.012146
0.0120768
0.0120081
0.0119417
0.0118331
0.011765
0.0116989
0.0116365
0.000323019
0.00122215
0.00152524
0.00162848
0.00173025
0.00188286
0.00208285
0.00231309
0.00255289
0.0027866
0.00300856
0.00322077
0.003427
0.00362848
0.00382267
0.00400369
0.00416504
0.00430299
0.00441823
0.00451617
0.00460769
0.00469713
0.00478597
0.00486172
0.00492646
0.00499817
0.00509197
0.005196
0.00527428
0.00528544
0.00519088
0.00496007
0.00458924
0.00411099
0.00357709
0.00302763
0.00246952
0.00187335
0.00119398
0.000357553
0.000540829
0.00120795
0.001461
0.0016069
0.00176306
0.00195604
0.00218559
0.0024394
0.0026987
0.00294812
0.00318287
0.0034069
0.00362546
0.00384057
0.00405024
0.0042489
0.00442954
0.00458749
0.00472239
0.0048387
0.00494936
0.00505958
0.00517312
0.00527235
0.00535409
0.00543424
0.00553402
0.0056454
0.005729
0.0057434
0.00564713
0.0053989
0.00498248
0.00443181
0.00381789
0.00320219
0.0025989
0.0019699
0.00125942
0.000396369
0.000728929
0.00119168
0.00144809
0.00164458
0.00183365
0.0020333
0.00225426
0.0024946
0.00274102
0.00298051
0.00320769
0.00342547
0.00363846
0.00384876
0.00405519
0.00425412
0.00443945
0.00460688
0.00475527
0.00488838
0.00502068
0.00514969
0.00530017
0.005443
0.00557369
0.0057015
0.00584998
0.00601059
0.0061324
0.00618246
0.00611917
0.0058881
0.00545451
0.00484131
0.00413476
0.00342708
0.00275297
0.00207136
0.00131697
0.000436415
0.000803809
0.00115993
0.00143429
0.0016679
0.00186589
0.00204782
0.00223512
0.00243715
0.00264819
0.00285694
0.00305689
0.00324859
0.00343599
0.00362165
0.00380588
0.00398598
0.00415698
0.00431482
0.00445998
0.00460004
0.00474849
0.0049157
0.00509596
0.00527835
0.00546453
0.0056592
0.00588889
0.0061433
0.00634068
0.00647167
0.0064996
0.00634208
0.0059476
0.00531498
0.00453014
0.00371595
0.00294443
0.00218548
0.00136896
0.000478351
0.000881619
0.00114107
0.00142098
0.00168205
0.0018971
0.00207379
0.00223455
0.00239641
0.00256365
0.00273123
0.00289338
0.00304879
0.00320026
0.00335056
0.00350057
0.00364856
0.00379115
0.00392556
0.00405294
0.00417982
0.0043155
0.00446983
0.00464688
0.00483811
0.00504411
0.00527082
0.00553751
0.00585132
0.00616512
0.00644317
0.00664304
0.0066327
0.00635645
0.00578373
0.00497687
0.00407233
0.00318835
0.00232766
0.00142556
0.000522136
0.00117026
0.00135848
0.00162271
0.00188865
0.00211409
0.00229447
0.00244355
0.00257604
0.00270193
0.00282512
0.00294438
0.00305858
0.00316864
0.00327677
0.0033845
0.00349155
0.00359607
0.00369662
0.00379456
0.0038948
0.00400292
0.00412218
0.00425762
0.00441457
0.00459579
0.00480556
0.00505739
0.00536237
0.00571287
0.00607447
0.00640508
0.00660372
0.00654199
0.00613838
0.00540678
0.00447465
0.00349232
0.00251695
0.00150416
0.000566127
0.00185996
0.0019492
0.00217302
0.00242573
0.00265118
0.00283309
0.00297481
0.00308632
0.00317942
0.00326324
0.00334073
0.00341199
0.00347746
0.00353924
0.00359966
0.00365954
0.00371814
0.00377481
0.00383095
0.00389016
0.00395542
0.0040274
0.00411024
0.00421335
0.00434275
0.00450394
0.00470906
0.00496914
0.00528521
0.00563946
0.00599391
0.00628371
0.00639729
0.00623402
0.00571675
0.00486867
0.00384486
0.00276857
0.00162574
0.000607277
0.0029903
0.00296352
0.00311479
0.00332619
0.00353104
0.00370177
0.00383246
0.00392795
0.0039983
0.00405335
0.00409806
0.00413372
0.00416101
0.00418202
0.00419945
0.00421498
0.0042287
0.0042404
0.00425106
0.00426288
0.00427714
0.00429332
0.00431409
0.00434773
0.00440153
0.00448299
0.00460513
0.00478028
0.00501899
0.00531456
0.00563517
0.00592024
0.0060854
0.006056
0.00576047
0.00514067
0.00420986
0.00308479
0.00181009
0.000642718
0.00445135
0.00432141
0.00438038
0.00452276
0.00468101
0.00482084
0.0049294
0.00500634
0.00505797
0.00509197
0.00511313
0.00512315
0.00512284
0.00511392
0.00509883
0.00507946
0.00505647
0.0050299
0.0050002
0.00496836
0.00493463
0.0048982
0.00486023
0.00482584
0.00480095
0.00479278
0.00481314
0.00487358
0.00499036
0.00516968
0.00539479
0.00561899
0.00577222
0.00578323
0.00559953
0.00517945
0.00447292
0.00344868
0.00206981
0.000671204
0.00604948
0.00585133
0.00582239
0.00588401
0.00597798
0.00606988
0.00614333
0.00619377
0.00622354
0.00623719
0.00623805
0.00622748
0.00620604
0.00617476
0.00613531
0.00608917
0.0060371
0.00597925
0.00591579
0.00584702
0.00577285
0.00569271
0.00560704
0.00551851
0.00543087
0.00534914
0.00528058
0.00523117
0.00521165
0.0052358
0.00530793
0.00540988
0.00549617
0.00550519
0.00537688
0.00506657
0.00454367
0.00377275
0.00240253
0.000692607
0.00760718
0.00737852
0.00728386
0.0072723
0.00729996
0.00733734
0.00736806
0.00738534
0.00738844
0.00737905
0.0073587
0.00732793
0.00728679
0.00723557
0.00717495
0.00710572
0.00702833
0.00694293
0.00684959
0.00674839
0.00663928
0.00652214
0.0063975
0.00626708
0.00613336
0.00599929
0.00586734
0.0057359
0.00559997
0.00546742
0.00535738
0.00529166
0.00526699
0.00524121
0.00514605
0.00491146
0.00449853
0.00392723
0.00277606
0.000707354
0.0090134
0.00878234
0.00864909
0.00858363
0.00855574
0.00854293
0.00853145
0.00851444
0.00848937
0.00845578
0.00841362
0.00836256
0.00830205
0.00823162
0.0081511
0.00806052
0.0079599
0.00784927
0.00772864
0.00759801
0.00745741
0.00730721
0.00714836
0.00698246
0.00681138
0.00663657
0.00645668
0.00626282
0.00603547
0.00576557
0.00547551
0.00522683
0.00507163
0.00499692
0.00492552
0.00475751
0.00442135
0.00395202
0.00302154
0.000725921
0.0102206
0.0100043
0.00985605
0.00975855
0.00969149
0.00963909
0.00959198
0.00954488
0.00949458
0.00943912
0.00937723
0.00930788
0.00922995
0.00914232
0.00904406
0.00893459
0.00881354
0.00868075
0.00853609
0.00837941
0.0082107
0.00803083
0.00784133
0.00764386
0.00743936
0.00722757
0.00700339
0.00675102
0.00644019
0.00604516
0.00558832
0.00516589
0.00488689
0.00476972
0.00472589
0.00462329
0.00435378
0.00390644
0.00311997
0.000743268
0.0112202
0.0110285
0.0108828
0.0107723
0.0106826
0.0106027
0.0105292
0.0104596
0.0103904
0.0103185
0.0102418
0.0101586
0.0100673
0.00996624
0.0098538
0.00972908
0.00959148
0.00944065
0.00927625
0.00909773
0.00890473
0.00869895
0.00848282
0.00825775
0.00802272
0.00777526
0.00750562
0.00719061
0.00679071
0.00626991
0.00565569
0.00507869
0.00469925
0.00455916
0.0045533
0.00451752
0.00430791
0.00385448
0.00313084
0.000742802
0.0120229
0.0118605
0.0117279
0.0116187
0.0115207
0.011425
0.0113356
0.0112533
0.011174
0.0110933
0.0110084
0.0109174
0.0108179
0.0107077
0.0105851
0.0104492
0.0102993
0.010135
0.00995568
0.00976003
0.00954643
0.00931866
0.00908054
0.00883229
0.00856903
0.0082868
0.00796997
0.00758692
0.00708899
0.00643734
0.00567202
0.0049624
0.00451203
0.00437195
0.00441339
0.00444347
0.00428949
0.00383928
0.00306065
0.000717345
0.012633
0.0124962
0.0123782
0.0122767
0.0121852
0.0120969
0.0120107
0.0119285
0.0118487
0.0117676
0.011682
0.0115893
0.0114867
0.0113718
0.0112429
0.0110998
0.010942
0.0107691
0.0105798
0.0103723
0.0101407
0.00989402
0.00963866
0.00937152
0.00908005
0.00876307
0.00839678
0.00794168
0.0073394
0.00655318
0.00564531
0.00482756
0.00433693
0.0042177
0.00431169
0.00440324
0.00430261
0.00386995
0.00299495
0.000691816
0.0130936
0.0129698
0.0128581
0.0127588
0.0126701
0.0125897
0.012512
0.0124357
0.0123613
0.0122855
0.0122044
0.0121153
0.0120152
0.0119015
0.0117731
0.0116304
0.0114738
0.0113031
0.0111169
0.0109132
0.0106836
0.0104262
0.0101587
0.00987903
0.00955465
0.00920145
0.00878041
0.00825006
0.00753928
0.00661885
0.00558153
0.00468397
0.00418347
0.00410272
0.00425104
0.00439696
0.00434329
0.00392949
0.00297402
0.000670222
0.0134515
0.0133331
0.0132206
0.0131144
0.0130136
0.0129181
0.0128279
0.0127428
0.0126613
0.01258
0.0124952
0.0124045
0.0123052
0.0121947
0.0120717
0.0119368
0.0117913
0.011636
0.0114689
0.0112826
0.0110748
0.0108338
0.010574
0.010303
0.00997536
0.00959621
0.00911318
0.00850617
0.00768128
0.00662937
0.00548088
0.00453573
0.00405566
0.00402812
0.00423015
0.00442125
0.00440335
0.00400128
0.00297661
0.000650163
0.0137158
0.0135998
0.013485
0.0133719
0.0132608
0.0131522
0.0130477
0.012948
0.0128522
0.0127578
0.0126619
0.0125623
0.0124568
0.0123432
0.0122204
0.0120887
0.011949
0.0118014
0.0116425
0.0114642
0.0112633
0.0110418
0.010808
0.010547
0.0102314
0.009841
0.00934517
0.00870021
0.00775164
0.00657367
0.00533846
0.00438248
0.00395382
0.00399158
0.00424463
0.00447044
0.00447465
0.00407341
0.00299208
0.000634004
0.0138954
0.0137809
0.0136645
0.013547
0.0134293
0.0133123
0.0131975
0.0130861
0.0129777
0.0128709
0.0127636
0.0126538
0.0125396
0.0124194
0.0122921
0.0121578
0.0120166
0.0118677
0.0117072
0.0115286
0.0113289
0.0111118
0.0108803
0.0106169
0.010292
0.00987193
0.0093295
0.00863868
0.00770425
0.00642268
0.00514465
0.00422359
0.00387773
0.00398968
0.00428891
0.00453838
0.00455103
0.00413957
0.00300975
0.00061903
0.0139976
0.0138846
0.0137677
0.0136481
0.0135271
0.0134056
0.0132852
0.0131669
0.0130506
0.0129356
0.0128203
0.012703
0.0125819
0.0124554
0.0123226
0.0121833
0.0120369
0.0118822
0.0117154
0.0115315
0.0113275
0.0111046
0.0108604
0.0105769
0.0102209
0.0097519
0.00913128
0.00832201
0.00734095
0.00611244
0.0048854
0.00406353
0.00382875
0.00401909
0.00435748
0.00461984
0.00462915
0.00419885
0.00302727
0.000605132
0.0140282
0.0139171
0.013801
0.0136814
0.0135598
0.0134374
0.0133153
0.0131946
0.0130754
0.0129571
0.0128385
0.0127178
0.0125934
0.0124634
0.0123269
0.012183
0.0120312
0.0118697
0.0116954
0.0115041
0.0112928
0.0110594
0.0107971
0.0104853
0.0100879
0.00955906
0.0088534
0.0079391
0.00684723
0.00567575
0.00456856
0.00391258
0.00381051
0.00407665
0.00444518
0.00471078
0.0047078
0.00425312
0.00304505
0.000592454
0.0139928
0.0138841
0.0137702
0.0136527
0.013533
0.0134125
0.0132924
0.0131734
0.0130558
0.0129389
0.0128216
0.0127022
0.0125787
0.0124491
0.012312
0.0121661
0.0120106
0.0118436
0.0116626
0.0114639
0.0112441
0.0109989
0.0107176
0.0103764
0.00993519
0.00934324
0.00855257
0.0075418
0.00635327
0.00517966
0.00424938
0.00379108
0.00382644
0.00415839
0.004547
0.00480796
0.00478681
0.004305
0.00306425
0.000581479
0.0138974
0.0137917
0.0136813
0.0135676
0.0134522
0.0133366
0.0132216
0.0131081
0.0129961
0.012885
0.0127735
0.0126597
0.0125414
0.0124163
0.0122823
0.0121378
0.0119815
0.0118116
0.0116258
0.011421
0.0111931
0.0109361
0.0106363
0.0102663
0.0097818
0.00912754
0.00825676
0.00716663
0.00593628
0.00478039
0.00400179
0.00371637
0.00387492
0.00425864
0.00465786
0.00490852
0.00486617
0.00435676
0.00308606
0.000572794
0.0137488
0.0136468
0.0135409
0.0134326
0.0133236
0.0132152
0.0131084
0.0130036
0.012901
0.0127996
0.012698
0.0125939
0.0124847
0.0123678
0.0122406
0.012101
0.0119472
0.0117774
0.0115893
0.0113803
0.0111463
0.0108793
0.0105627
0.0101656
0.00964013
0.00892858
0.00798853
0.00683653
0.0055901
0.00447991
0.00382727
0.00369883
0.00395098
0.00437058
0.00477267
0.00500976
0.00494566
0.00441001
0.0031115
0.000566841
0.0135548
0.0134569
0.0133564
0.0132549
0.013154
0.013055
0.0129588
0.0128658
0.0127757
0.0126874
0.0125991
0.0125082
0.0124115
0.012306
0.0121887
0.0120569
0.0119084
0.0117415
0.0115544
0.0113444
0.0111067
0.0108316
0.0105
0.0100777
0.00951432
0.00875272
0.00775889
0.00657
0.00533418
0.00430252
0.00375176
0.00372394
0.00404188
0.00448643
0.00488673
0.00510929
0.00502493
0.00446586
0.00314153
0.00056417
0.0133235
0.0132301
0.0131358
0.0130421
0.0129508
0.0128629
0.0127795
0.0127007
0.0126259
0.0125536
0.0124815
0.0124064
0.0123249
0.0122332
0.0121279
0.0120058
0.0118651
0.011704
0.0115207
0.0113124
0.0110733
0.0107919
0.0104464
0.00999991
0.00940067
0.00859522
0.00756162
0.00635853
0.00515742
0.00421353
0.00374888
0.00378913
0.0041454
0.00460259
0.00499709
0.00520555
0.00510393
0.00452533
0.00317696
0.000564936
0.013063
0.0129746
0.0128871
0.0128023
0.0127217
0.0126467
0.0125779
0.0125153
0.0124579
0.0124039
0.0123501
0.012293
0.0122283
0.0121517
0.0120595
0.0119489
0.0118177
0.0116643
0.0114868
0.0112821
0.0110433
0.0107567
0.0103972
0.00992564
0.00929065
0.00844514
0.00738212
0.00618167
0.00503211
0.00417967
0.00379846
0.00389033
0.00426371
0.00471914
0.00510318
0.00529842
0.0051833
0.00458959
0.00321924
0.000569494
0.012781
0.0126982
0.0126183
0.0125432
0.0124747
0.0124138
0.0123612
0.0123165
0.0122784
0.0122443
0.0122105
0.0121725
0.0121253
0.0120647
0.0119865
0.0118879
0.0117669
0.011622
0.0114515
0.0112515
0.0110135
0.0107211
0.0103462
0.00984765
0.0091765
0.00829499
0.00721313
0.00603133
0.00495096
0.00419819
0.00389939
0.00402767
0.00439945
0.00483974
0.00520709
0.00538947
0.00526454
0.00465983
0.00326826
0.000577412
0.0124846
0.012408
0.0123366
0.0122723
0.0122168
0.0121714
0.0121365
0.0121113
0.012094
0.0120812
0.0120682
0.0120499
0.0120211
0.0119766
0.0119125
0.0118257
0.0117146
0.0115781
0.0114144
0.0112188
0.0109809
0.0106812
0.0102889
0.0097625
0.00905855
0.00815156
0.0070691
0.00592812
0.00493339
0.00428209
0.00405511
0.00420509
0.00455903
0.00496885
0.0053121
0.0054815
0.00534984
0.00473737
0.00332409
0.000588695
0.0121806
0.0121111
0.0120489
0.0119964
0.0119552
0.0119265
0.0119106
0.0119063
0.0119109
0.0119203
0.0119291
0.0119314
0.0119211
0.0118928
0.0118423
0.0117668
0.0116648
0.0115356
0.0113773
0.0111844
0.0109445
0.0106356
0.0102257
0.00967663
0.00895404
0.00804684
0.00699646
0.00592554
0.00502228
0.00445339
0.00427215
0.00442626
0.00474947
0.00510892
0.00542096
0.00557759
0.00544165
0.00482376
0.00338735
0.000602926
0.0118757
0.0118139
0.0117619
0.0117221
0.0116962
0.0116855
0.0116899
0.0117077
0.0117355
0.0117683
0.0117997
0.0118231
0.0118316
0.0118196
0.0117827
0.011718
0.0116242
0.0115006
0.0113453
0.0111521
0.0109077
0.0105896
0.0101689
0.00961528
0.00890723
0.00804597
0.00707654
0.00610494
0.00528065
0.0047462
0.00456429
0.00468401
0.0049537
0.00525211
0.00553452
0.00568063
0.00554216
0.00492031
0.00345862
0.000619067
0.0115766
0.0115233
0.0114822
0.0114559
0.0114464
0.0114547
0.0114807
0.0115219
0.0115742
0.0116314
0.0116863
0.0117314
0.0117595
0.0117644
0.0117417
0.0116882
0.0116024
0.0114832
0.0113285
0.0111326
0.0108834
0.0105634
0.0101526
0.00963348
0.00899511
0.00823971
0.00739768
0.00653081
0.0057465
0.00516738
0.00492808
0.00495904
0.00512624
0.00538812
0.00565466
0.00579403
0.00565331
0.00502652
0.00353758
0.000636658
)
;

boundaryField
{
    leftWall
    {
        type            nutkWallFunction;
        Cmu             0.09;
        kappa           0.41;
        E               9.8;
        value           nonuniform 0();
    }
    rightWall
    {
        type            nutkWallFunction;
        Cmu             0.09;
        kappa           0.41;
        E               9.8;
        value           nonuniform List<scalar> 
43
(
0
1.4549e-06
4.36619e-06
7.62556e-06
1.12207e-05
1.51811e-05
1.95195e-05
2.41984e-05
2.91344e-05
3.42248e-05
3.93836e-05
4.46345e-05
4.99524e-05
5.5384e-05
6.09554e-05
6.65876e-05
7.20605e-05
7.70873e-05
8.14451e-05
8.5029e-05
8.47659e-05
7.91078e-05
8.0999e-05
9.41792e-05
9.29593e-05
8.93668e-05
8.15803e-05
7.33943e-05
7.07465e-05
6.90137e-05
6.7586e-05
6.63324e-05
6.52305e-05
6.43248e-05
6.3673e-05
6.33028e-05
6.32297e-05
6.34858e-05
6.40847e-05
6.50419e-05
6.63107e-05
6.77775e-05
6.94175e-05
)
;
    }
    lowerWall
    {
        type            nutkWallFunction;
        Cmu             0.09;
        kappa           0.41;
        E               9.8;
        value           nonuniform List<scalar> 
66
(
8.97724e-06
7.85315e-06
7.85315e-06
1.30928e-05
1.49109e-05
1.64785e-05
1.78921e-05
1.90284e-05
1.99819e-05
2.08639e-05
2.19829e-05
2.39819e-05
1.6568e-05
1.1087e-05
1.26979e-05
1.30675e-05
0
5.15999e-06
8.61624e-06
1.0875e-05
1.25975e-05
1.40629e-05
1.5404e-05
1.67186e-05
1.81747e-05
1.98898e-05
0
0
2.2483e-07
9.04049e-07
1.68068e-06
2.47583e-06
3.22175e-06
3.89032e-06
4.47566e-06
4.98073e-06
5.41033e-06
5.76878e-06
6.0596e-06
6.28599e-06
6.4515e-06
6.56052e-06
6.61837e-06
6.63108e-06
6.60518e-06
6.54795e-06
6.46792e-06
6.36547e-06
6.24246e-06
6.10676e-06
5.96716e-06
5.83271e-06
5.71115e-06
5.60662e-06
5.51745e-06
5.43526e-06
5.34552e-06
5.22853e-06
5.05895e-06
4.80336e-06
4.41721e-06
3.83986e-06
2.97909e-06
1.67201e-06
0
0
)
;
    }
    atmosphere
    {
        type            calculated;
        value           nonuniform 0();
    }
    defaultFaces
    {
        type            empty;
    }
    procBoundary1to0
    {
        type            processor;
        value           nonuniform List<scalar> 
44
(
7.73945e-05
0.000536663
0.000954148
0.00132062
0.00164443
0.00194231
0.00222352
0.00249881
0.00278492
0.00311688
0.00356829
0.00410757
0.0047256
0.00542226
0.00619107
0.00701604
0.00787312
0.00873383
0.0095699
0.0103577
0.0106352
0.0106352
0.0113897
0.012048
0.0126006
0.0130678
0.0134663
0.013797
0.0140616
0.0142617
0.0143979
0.0144708
0.0144815
0.0144328
0.0143288
0.0141754
0.0139794
0.0137479
0.0134878
0.0132056
0.0129073
0.0125989
0.0122861
0.0119753
)
;
    }
    procBoundary1to3
    {
        type            processor;
        value           nonuniform List<scalar> 
45
(
0.0116006
0.0115307
0.0114644
0.0114015
0.0113438
0.0112906
0.0112464
0.0112168
0.0112047
0.0112123
0.0112409
0.0112897
0.0113555
0.011433
0.0115152
0.0115941
0.0116613
0.0117095
0.0117322
0.0117249
0.0116841
0.0116078
0.0114946
0.0113424
0.0111473
0.0109033
0.0106038
0.0102435
0.00981595
0.00930623
0.00869473
0.00796816
0.00714679
0.00633237
0.00566353
0.00529104
0.0051933
0.00529908
0.00553855
0.00579344
0.00592452
0.00577778
0.0051418
0.00362279
0.00065534
)
;
    }
}


// ************************************************************************* //
