/*--------------------------------*- C++ -*----------------------------------*\
| =========                 |                                                 |
| \\      /  F ield         | OpenFOAM: The Open Source CFD Toolbox           |
|  \\    /   O peration     | Version:  5.0                                   |
|   \\  /    A nd           | Web:      www.OpenFOAM.org                      |
|    \\/     M anipulation  |                                                 |
\*---------------------------------------------------------------------------*/
FoamFile
{
    version     2.0;
    format      ascii;
    class       volScalarField;
    location    "0.55";
    object      p;
}
// * * * * * * * * * * * * * * * * * * * * * * * * * * * * * * * * * * * * * //

dimensions      [1 -1 -2 0 0 0 0];

internalField   nonuniform List<scalar> 
1915
(
788.729
796.024
728.829
740.113
674.228
687.582
627.669
640.995
587.266
600.686
548.66
564.404
509.836
528.509
469.114
489.964
424.767
445.321
375.983
391.901
276.141
276.097
276.044
275.963
275.859
275.736
275.6
275.454
275.303
275.15
274.999
274.852
274.712
274.581
274.462
274.357
274.267
274.195
274.142
274.109
274.097
274.107
274.138
274.188
274.258
274.345
274.449
274.567
274.697
274.838
274.985
275.135
275.284
275.428
275.561
275.676
275.764
275.82
275.834
275.804
276.118
276.079
276.022
275.936
275.826
275.699
275.559
275.41
275.256
275.102
274.949
274.8
274.659
274.526
274.406
274.299
274.208
274.134
274.08
274.047
274.035
274.044
274.073
274.122
274.19
274.275
274.376
274.492
274.62
274.758
274.902
275.049
275.196
275.338
275.47
275.585
275.678
275.741
275.764
275.745
276.093
276.049
275.985
275.895
275.78
275.649
275.506
275.356
275.202
275.047
274.894
274.745
274.603
274.469
274.348
274.239
274.146
274.071
274.014
273.978
273.964
273.971
273.998
274.045
274.11
274.193
274.292
274.406
274.531
274.667
274.809
274.954
275.1
275.242
275.376
275.496
275.596
275.667
275.697
275.68
276.067
276.009
275.936
275.841
275.724
275.591
275.447
275.296
275.142
274.986
274.832
274.682
274.538
274.404
274.28
274.169
274.074
273.996
273.937
273.899
273.883
273.889
273.915
273.96
274.024
274.105
274.203
274.316
274.441
274.576
274.718
274.863
275.01
275.153
275.29
275.415
275.52
275.597
275.628
275.61
276.03
275.961
275.879
275.78
275.661
275.526
275.381
275.229
275.073
274.916
274.761
274.609
274.464
274.327
274.201
274.089
273.991
273.91
273.849
273.809
273.792
273.798
273.823
273.868
273.931
274.012
274.11
274.222
274.348
274.484
274.626
274.773
274.92
275.066
275.206
275.335
275.446
275.526
275.557
275.535
275.982
275.904
275.815
275.713
275.591
275.454
275.307
275.153
274.995
274.837
274.68
274.527
274.379
274.241
274.113
273.998
273.897
273.813
273.749
273.707
273.691
273.697
273.724
273.768
273.83
273.911
274.008
274.122
274.249
274.386
274.529
274.677
274.827
274.975
275.118
275.252
275.367
275.45
275.481
275.455
275.923
275.839
275.745
275.64
275.515
275.376
275.226
275.069
274.91
274.75
274.591
274.436
274.287
274.147
274.017
273.899
273.795
273.707
273.639
273.595
273.579
273.587
273.615
273.66
273.721
273.8
273.898
274.013
274.141
274.279
274.425
274.574
274.725
274.875
275.022
275.16
275.281
275.368
275.398
275.369
275.85
275.769
275.672
275.564
275.436
275.292
275.139
274.98
274.819
274.658
274.498
274.342
274.191
274.049
273.917
273.796
273.688
273.595
273.522
273.474
273.458
273.47
273.501
273.545
273.604
273.681
273.778
273.894
274.024
274.164
274.311
274.462
274.614
274.766
274.916
275.059
275.185
275.277
275.308
275.274
275.76
275.694
275.597
275.488
275.355
275.207
275.05
274.89
274.729
274.567
274.407
274.249
274.097
273.953
273.819
273.694
273.581
273.481
273.401
273.349
273.334
273.352
273.386
273.429
273.483
273.555
273.651
273.769
273.9
274.04
274.188
274.34
274.494
274.647
274.798
274.945
275.079
275.178
275.211
275.171
275.638
275.623
275.528
275.417
275.278
275.125
274.966
274.805
274.645
274.484
274.323
274.165
274.012
273.866
273.729
273.599
273.479
273.371
273.283
273.226
273.214
273.239
273.277
273.317
273.364
273.428
273.521
273.64
273.772
273.911
274.059
274.211
274.364
274.516
274.667
274.817
274.958
275.067
275.105
275.059
323.745
315.369
284.606
282.017
251.919
258.063
218.938
230.037
183.651
198.858
145.647
162.589
105.459
121.965
63.4897
79.0127
19.0464
33.9491
-23.592
-12.6717
-42.7436
-20.347
-1.04214
0.320376
0.462417
0.361644
0.30928
0.276838
0.239562
0.196496
0.14896
0.0969272
0.0402783
-0.0209427
-0.0866539
-0.156798
-0.231342
-0.310251
-0.393479
-0.480958
-0.572595
-0.668255
-0.767742
272.986
275.405
275.82
275.002
269.828
275.842
275.906
275.562
260.28
276.226
276.113
275.867
238.371
267.361
275.918
275.948
213.11
238.207
267.105
275.152
180.779
201.627
226.148
252.639
140.562
160.651
180.409
201.593
96.2263
114.87
134.171
152.566
49.9075
66.5341
84.0307
101.774
1.34855
16.2694
31.618
47.7558
-40.5053
-32.4638
-21.9648
-8.35777
-34.874
-46.635
-53.5307
-51.5498
-6.12956
-12.8493
-21.7111
-32.5582
0.107141
-0.0956668
-0.501325
-3.16482
0.530834
0.529799
0.455659
0.239608
0.417429
0.455653
0.516467
0.654732
0.349148
0.388242
0.444078
0.539532
0.318869
0.362601
0.413677
0.478759
0.285598
0.334533
0.389323
0.452047
0.245233
0.2974
0.355293
0.419757
0.199711
0.254009
0.313734
0.379309
0.149277
0.205172
0.266282
0.332834
0.0938315
0.150908
0.213095
0.280527
0.0334366
0.091306
0.154216
0.222259
-0.0318055
0.0264791
0.0897334
0.158039
-0.101845
-0.0435301
0.0196823
0.0878874
-0.176669
-0.118717
-0.0559305
0.0118156
-0.256247
-0.199043
-0.137053
-0.0701162
-0.340502
-0.2844
-0.223553
-0.157766
-0.429323
-0.374632
-0.315247
-0.250939
-0.522574
-0.469568
-0.411943
-0.349436
-0.620096
-0.569029
-0.513448
-0.45306
-0.721682
-0.672795
-0.61953
-0.561571
275.488
275.554
275.472
275.358
275.211
275.053
274.892
274.733
274.574
274.414
274.253
274.094
273.94
273.792
273.651
273.516
273.386
273.267
273.17
273.11
273.104
273.141
273.181
273.215
273.25
273.303
273.392
273.516
273.647
273.782
273.927
274.077
274.226
274.374
274.522
274.672
274.819
274.942
274.99
274.936
275.613
275.538
275.446
275.321
275.164
275
274.837
274.68
274.523
274.363
274.202
274.042
273.888
273.739
273.593
273.449
273.306
273.174
273.069
273.009
273.016
273.068
273.103
273.125
273.145
273.182
273.267
273.401
273.535
273.662
273.8
273.945
274.085
274.224
274.364
274.508
274.659
274.798
274.862
274.801
275.773
275.583
275.461
275.316
275.147
274.976
274.812
274.657
274.5
274.34
274.177
274.017
273.863
273.712
273.561
273.407
273.244
273.088
272.973
272.923
272.975
273.041
273.049
273.048
273.047
273.064
273.14
273.298
273.45
273.561
273.688
273.825
273.95
274.075
274.198
274.328
274.475
274.631
274.721
274.659
275.892
275.659
275.517
275.355
275.171
274.992
274.824
274.665
274.505
274.342
274.177
274.015
273.864
273.71
273.551
273.387
273.196
272.989
272.836
272.811
273.052
273.126
273.053
272.994
272.958
272.948
273.025
273.255
273.435
273.489
273.587
273.728
273.831
273.937
274.036
274.14
274.272
274.441
274.569
274.514
275.66
275.525
275.397
275.21
275.001
274.822
274.674
274.532
274.354
274.18
274.017
273.867
273.742
273.611
273.448
273.3
273.134
272.86
272.51
272.244
272.403
272.877
272.837
272.88
272.896
272.861
273.059
273.505
273.544
273.449
273.537
273.686
273.736
273.818
273.887
273.957
274.061
274.229
274.404
274.376
265.469
266.798
267.305
269.196
270.878
270.131
267.532
264.38
263.492
262.771
261.742
259.827
257.681
256.68
256.429
256.47
256.572
256.63
256.752
257.119
257.873
259.23
261.193
263.399
266.042
269.658
272.532
273.431
273.334
273.4
273.78
273.746
273.678
273.73
273.761
273.791
273.854
274.004
274.219
274.258
219.023
225.658
228.049
230.424
233.161
232.546
229.893
227.017
225.878
224.85
224.302
223.872
223.698
224.245
225.389
226.99
228.95
231.23
233.876
236.918
240.414
244.48
249.163
254.16
259.226
263.522
264.664
266.232
269.835
273.285
273.906
273.713
273.757
273.708
273.664
273.646
273.666
273.775
273.992
274.175
169.149
179.348
183.313
184.425
185.41
186.142
186.499
186.248
186.015
185.947
186.605
187.857
189.47
191.485
193.945
196.888
200.286
204.111
208.382
213.138
218.434
224.349
230.882
237.991
245.645
253.958
263.627
267.713
272.191
272.833
271.915
273.64
273.854
273.786
273.618
273.519
273.493
273.546
273.682
274.131
118.792
131.394
138.25
141.28
142.932
144.49
145.908
146.823
147.568
148.585
150.192
152.332
154.899
157.955
161.561
165.717
170.386
175.545
181.218
187.444
194.279
201.765
209.867
218.516
227.707
237.428
247.461
256.168
265.345
273.736
279.041
277.975
274.106
274.136
273.683
273.429
273.324
273.322
273.236
274.105
64.4551
78.4187
87.5774
93.1052
96.7592
99.6917
102.151
104.178
106.164
108.456
111.258
114.569
118.368
122.712
127.648
133.184
139.3
145.992
153.287
161.205
169.758
178.94
188.688
198.897
209.497
220.341
231.179
241.784
252.879
264.187
274.876
283.158
285.066
278.298
274.627
273.596
273.223
273.117
272.619
274.27
8.04802
22.9895
33.3791
40.411
45.9226
51.0113
55.5543
59.3975
62.9877
66.8307
71.1762
76.0228
81.3292
87.1443
93.5486
100.582
108.239
116.526
125.49
135.133
145.434
156.352
167.812
179.692
191.875
204.128
216.264
228.229
240.428
253.086
266.361
279.503
289.944
292.689
284.07
276.135
273.588
272.966
271.978
275.123
-41.1277
-29.1166
-20.5197
-14.2294
-7.74481
-0.150444
7.17614
13.2187
18.5694
24.1528
30.3242
36.9862
43.9999
51.4316
59.4421
68.1115
77.4214
87.3864
98.089
109.499
121.543
134.101
147.099
160.546
174.335
188.126
201.774
215.256
228.896
243.195
258.618
274.865
290.332
301.734
303.386
290.254
278.006
273.868
271.535
276.18
-41.2978
-44.6925
-45.6997
-45.5321
-42.4737
-35.9855
-28.4898
-22.0504
-16.3341
-10.2276
-3.38377
3.9605
11.5546
19.5033
28.1214
37.6098
47.9478
59.1854
71.6696
85.0439
99.052
113.364
127.738
142.417
157.367
172.209
187.132
202.158
217.531
233.96
252.116
271.775
291.36
308.365
319.887
319.53
299.112
278.552
271.781
275.268
-7.95896
-11.9561
-14.8133
-16.8793
-18.0134
-17.9805
-16.8292
-14.8915
-12.5845
-9.78542
-6.52404
-2.9146
0.943837
5.13242
9.991
15.9088
23.0399
31.5313
42.3871
56.1169
72.1742
90.0552
109.084
126.587
143.262
158.378
173.33
188.945
205.716
224.487
245.93
269.652
293.733
315.658
333.969
347.019
340.441
298.819
278.351
281.417
0.170895
0.253729
0.236348
0.193023
0.0724249
-0.46026
-0.958377
-0.918953
-0.627278
-0.277367
0.104371
0.557269
1.11662
1.80466
2.72449
4.0727
6.02985
8.66606
12.6351
19.5779
30.1998
46.1641
69.6636
95.6473
124.001
146.604
163.136
177.862
193.917
214.139
239.014
267.288
296.295
323.284
347.378
369.716
385.051
353.419
306.41
303.707
0.748113
0.822423
0.87222
0.888384
0.855928
0.819893
0.926704
1.1341
1.31664
1.4852
1.66207
1.8496
2.03908
2.22582
2.41494
2.60995
2.80915
3.01484
3.22283
3.43823
4.31231
7.51313
15.5044
31.0732
63.2392
105.386
144.529
169.543
184.581
203.434
230.442
263.326
297.56
329.772
359.531
389.059
418.954
417.103
360.684
359.176
0.631608
0.713067
0.784933
0.849679
0.932485
1.08156
1.26641
1.44395
1.6013
1.75014
1.89952
2.05052
2.20044
2.3477
2.49273
2.63563
2.7758
2.9083
3.01312
3.05494
3.18461
3.61499
4.17613
4.61485
9.16557
26.6112
72.9398
132.909
172.133
193.615
220.162
256.414
295.915
333.532
369.125
405.369
443.624
468.459
449.661
460.214
0.553089
0.63269
0.711705
0.794292
0.895304
1.03321
1.19177
1.35104
1.50599
1.6594
1.81406
1.97014
2.12635
2.28176
2.43598
2.5885
2.73847
2.88264
3.01191
3.11416
3.2449
3.44585
3.6265
3.69814
4.01907
5.12627
9.93065
46.262
118.569
172.985
207.564
245.621
289.706
332.899
374.698
418.11
464.639
512.24
554.406
585.151
0.523828
0.604088
0.688135
0.778634
0.882005
1.0052
1.14507
1.29355
1.44491
1.59807
1.75353
1.91117
2.07013
2.22961
2.3891
2.54806
2.70573
2.86067
3.01035
3.15272
3.30663
3.48414
3.65204
3.76123
3.87052
4.0653
4.54066
5.99431
34.9592
111.422
180.74
228.902
277.637
326.176
374.575
425.662
481.328
547.128
639.604
693.606
0.493036
0.575388
0.663467
0.75913
0.865611
0.986108
1.1197
1.2622
1.40966
1.56054
1.71451
1.87121
2.02992
2.18991
2.35064
2.5116
2.67223
2.83188
2.9899
3.14687
3.31158
3.49103
3.67325
3.83663
3.99311
4.15733
4.32684
4.57244
5.36811
33.728
119.989
201.346
258.659
312.211
367.189
425.759
489.222
565.906
685.186
751.333
0.453753
0.53784
0.628663
0.72751
0.836168
0.956158
1.0868
1.22566
1.3703
1.51939
1.6723
1.82847
1.9872
2.14783
2.30981
2.47266
2.63596
2.79938
2.96278
3.12702
3.29652
3.47467
3.65761
3.83951
4.02867
4.23452
4.43704
4.60177
4.76228
6.75298
44.2306
145.276
228.458
290.727
352.108
417.579
487.411
570.774
698.624
765.77
0.408226
0.493626
0.586243
0.686953
0.79668
0.916126
1.04483
1.18133
1.32409
1.47201
1.62436
1.78049
1.93974
2.10146
2.26511
2.43023
2.59644
2.76353
2.93153
3.10106
3.27419
3.45228
3.63435
3.81945
4.01159
4.21564
4.42494
4.60267
4.62634
4.97845
11.1506
74.7985
182.512
261.769
330.47
402.063
477.3
565.169
691.749
754.567
0.356751
0.443132
0.536907
0.638693
0.748954
0.867994
0.995497
1.13057
1.27217
1.41941
1.57157
1.728
1.88806
2.05112
2.21662
2.38408
2.55314
2.72359
2.89546
3.06911
3.24548
3.42516
3.60783
3.79319
3.9822
4.17528
4.37
4.5573
4.66853
4.56685
5.72552
25.1671
123.323
225.02
304.036
381.259
461.1
552.052
673.465
731.084
0.299059
0.386068
0.48052
0.582886
0.693395
0.812177
0.939005
1.07329
1.21429
1.36128
1.51362
1.67067
1.83181
1.99642
2.16392
2.33379
2.50564
2.6792
2.85442
3.03145
3.21068
3.39232
3.57611
3.7616
3.94831
4.13441
4.31622
4.4904
4.6291
4.60053
4.91517
9.70956
65.0048
180.422
274.13
357.549
441.267
534.097
649.475
703.015
0.235081
0.322363
0.417098
0.519688
0.630248
0.748836
0.875286
1.00919
1.14999
1.2971
1.44994
1.60792
1.77041
1.93681
2.10651
2.27893
2.45362
2.63023
2.80861
2.98874
3.17071
3.35447
3.53966
3.72567
3.91143
4.09429
4.26953
4.43325
4.57647
4.65657
4.70118
5.44823
24.8218
130.775
241.738
333.134
420.312
514.078
623.721
675.251
0.164827
0.25204
0.346722
0.44924
0.559669
0.678049
0.804263
0.938015
1.07889
1.22639
1.38001
1.53918
1.70331
1.87175
2.04388
2.21907
2.39677
2.57656
2.75819
2.94151
3.12644
3.31276
3.49997
3.68732
3.87346
4.05558
4.22891
4.38885
4.53244
4.64391
4.69099
4.96447
10.7818
82.856
208.475
310.019
400.559
494.437
598.972
651.006
0.0883106
0.175119
0.269426
0.371595
0.481697
0.599783
0.725788
0.859503
1.00061
1.1487
1.30331
1.46391
1.62992
1.80069
1.97553
2.15376
2.33476
2.51803
2.70319
2.89002
3.07833
3.26784
3.45802
3.64797
3.83616
4.01982
4.19449
4.35529
4.49929
4.61985
4.69901
4.80333
6.3026
47.3838
178.855
290.621
384.048
477.244
579.305
631.542
0.00558917
0.0916496
0.185254
0.286778
0.396316
0.513954
0.639678
0.773356
0.914749
1.06353
1.21929
1.38153
1.54967
1.72304
1.9009
2.08254
2.26724
2.45436
2.64342
2.83413
3.02632
3.21978
3.41404
3.60812
3.80036
3.98799
4.16687
4.33218
4.4808
4.6113
4.71393
4.7853
5.18648
25.5444
155.377
277.184
372.38
462.875
560.77
618.922
-0.0832007
0.0017497
0.0942974
0.194846
0.303533
0.420489
0.545762
0.679292
0.820924
0.970408
1.12739
1.29142
1.46191
1.6382
1.8195
2.00497
2.19376
2.3851
2.57841
2.77337
2.96989
3.168
3.36743
3.56728
3.76568
3.95969
4.14521
4.31738
4.47302
4.6142
4.73576
4.77249
4.9728
19.9734
140.819
271.798
367.06
453.48
550.424
613.643
-0.177871
-0.0944146
-0.00330841
0.0958879
0.203369
0.319323
0.443865
0.577019
0.718716
0.868792
1.02697
1.19287
1.36595
1.5455
1.73064
1.92039
2.11373
2.30968
2.50752
2.70691
2.908
3.1112
3.31673
3.52387
3.73045
3.93297
4.12701
4.30779
4.47314
4.63067
4.77564
4.77178
5.00308
21.1598
141.923
277.163
368.601
449.205
545.648
618.171
-0.278231
-0.196675
-0.107434
-0.0100215
0.0958218
0.210351
0.333762
0.466168
0.607607
0.758025
0.917277
1.08506
1.26086
1.44396
1.63338
1.82796
2.02642
2.22745
2.43001
2.63373
2.83913
3.04735
3.25941
3.47496
3.69132
3.90381
4.1074
4.29813
4.47795
4.66426
4.84577
4.78148
5.44786
28.943
166.134
293.576
375.259
449.473
547.495
634.746
-0.384089
-0.304867
-0.217958
-0.122831
-0.0191555
0.0934027
0.215129
0.346244
0.486931
0.637291
0.797302
0.966788
1.14533
1.33223
1.52645
1.72662
1.93106
2.13785
2.3453
2.5528
2.76143
2.97355
3.19157
3.41584
3.64266
3.86542
4.0786
4.2803
4.47779
4.69131
4.8855
4.84512
6.5849
51.8025
209.392
312.847
381.145
449.971
553.023
659.539
-0.495212
-0.418783
-0.33473
-0.242476
-0.141623
-0.0317493
0.0875458
0.216629
0.355836
0.505448
0.66564
0.836437
1.01761
1.20855
1.40822
1.61508
1.82688
2.04066
2.25334
2.46351
2.67292
2.88593
3.10743
3.33938
3.57688
3.81003
4.03266
4.24267
4.44273
4.64774
4.79441
5.47328
16.4263
113.542
248.628
320.922
377.74
442.073
553.447
685.171
)
;

boundaryField
{
    leftWall
    {
        type            calculated;
        value           nonuniform 0();
    }
    rightWall
    {
        type            calculated;
        value           nonuniform List<scalar> 
43
(
275.804
275.745
275.68
275.61
275.535
275.455
275.369
275.274
275.171
275.059
274.936
274.801
274.659
274.514
274.376
274.258
274.175
274.131
274.105
274.27
275.123
276.18
275.268
281.417
303.707
359.176
460.214
585.151
693.606
751.333
765.77
754.567
731.084
703.015
675.251
651.006
631.542
618.922
613.643
618.171
634.746
659.539
685.171
)
;
    }
    lowerWall
    {
        type            calculated;
        value           nonuniform List<scalar> 
66
(
812.273
819.562
796.024
740.113
687.582
640.995
600.686
564.404
528.509
489.964
445.321
391.901
283.352
275.429
275.844
275.026
276.141
276.118
276.093
276.067
276.03
275.982
275.923
275.85
275.76
275.638
276.165
276.12
276.067
275.986
275.882
275.76
275.624
275.478
275.327
275.174
275.022
274.876
274.736
274.605
274.486
274.38
274.291
274.219
274.165
274.132
274.121
274.13
274.161
274.212
274.281
274.369
274.472
274.59
274.721
274.861
275.008
275.158
275.308
275.452
275.585
275.699
275.788
275.844
275.858
275.828
)
;
    }
    atmosphere
    {
        type            calculated;
        value           nonuniform 0();
    }
    defaultFaces
    {
        type            empty;
    }
    procBoundary1to0
    {
        type            processor;
        value           nonuniform List<scalar> 
44
(
779.216
725.068
677.61
632.728
589.109
546.194
503.233
459.559
414.445
368.595
323.981
283.804
246.445
209.366
171.382
132.2
91.8451
49.8616
6.15491
-27.968
-34.6214
-34.6214
-9.04383
-0.10268
0.433648
0.384713
0.310535
0.272728
0.23794
0.196959
0.151362
0.101828
0.0481877
-0.00967649
-0.0717497
-0.137973
-0.208286
-0.282636
-0.360986
-0.443307
-0.529561
-0.619685
-0.713564
-0.811034
)
;
    }
    procBoundary1to3
    {
        type            processor;
        value           nonuniform List<scalar> 
45
(
-0.870835
-0.827096
-0.780619
-0.729925
-0.674696
-0.611334
-0.538191
-0.457589
-0.368911
-0.271689
-0.165407
-0.0495347
0.0764629
0.213116
0.360934
0.520381
0.691792
0.875243
1.07041
1.27639
1.49156
1.71312
1.93637
2.15529
2.36628
2.57186
2.77969
2.99948
3.23789
3.48885
3.73216
3.96038
4.16231
4.31687
4.53824
5.23995
9.07875
58.5913
178.731
259.178
308.971
356.87
415.536
535.359
694.42
)
;
    }
}


// ************************************************************************* //
