/*--------------------------------*- C++ -*----------------------------------*\
| =========                 |                                                 |
| \\      /  F ield         | OpenFOAM: The Open Source CFD Toolbox           |
|  \\    /   O peration     | Version:  5.0                                   |
|   \\  /    A nd           | Web:      www.OpenFOAM.org                      |
|    \\/     M anipulation  |                                                 |
\*---------------------------------------------------------------------------*/
FoamFile
{
    version     2.0;
    format      ascii;
    class       volScalarField;
    location    "0.55";
    object      p_rgh;
}
// * * * * * * * * * * * * * * * * * * * * * * * * * * * * * * * * * * * * * //

dimensions      [1 -1 -2 0 0 0 0];

internalField   nonuniform List<scalar> 
1915
(
812.273
819.562
798.978
810.62
788.341
805.072
787.431
805.366
796.583
812.502
807.638
823.382
815.901
834.575
822.266
843.117
825.006
845.56
823.309
839.228
276.165
276.12
276.067
275.986
275.882
275.76
275.624
275.478
275.327
275.174
275.022
274.876
274.736
274.605
274.486
274.38
274.291
274.219
274.165
274.132
274.121
274.13
274.161
274.212
274.281
274.369
274.472
274.59
274.721
274.861
275.008
275.158
275.308
275.452
275.585
275.699
275.788
275.844
275.858
275.828
276.189
276.149
276.092
276.007
275.897
275.77
275.629
275.48
275.327
275.172
275.019
274.871
274.729
274.597
274.476
274.369
274.278
274.205
274.151
274.117
274.106
274.115
274.144
274.193
274.26
274.346
274.447
274.563
274.691
274.828
274.972
275.12
275.266
275.408
275.54
275.656
275.749
275.812
275.835
275.816
276.211
276.166
276.103
276.012
275.898
275.767
275.624
275.474
275.32
275.165
275.011
274.862
274.72
274.587
274.465
274.357
274.264
274.188
274.132
274.096
274.082
274.088
274.116
274.162
274.228
274.31
274.41
274.523
274.649
274.785
274.927
275.072
275.218
275.36
275.494
275.614
275.713
275.785
275.815
275.798
276.231
276.174
276.101
276.006
275.888
275.756
275.612
275.461
275.307
275.151
274.997
274.847
274.703
274.568
274.445
274.334
274.239
274.161
274.102
274.064
274.048
274.053
274.079
274.125
274.188
274.27
274.368
274.48
274.606
274.741
274.882
275.028
275.174
275.318
275.455
275.58
275.685
275.762
275.793
275.775
276.242
276.173
276.091
275.992
275.872
275.738
275.593
275.441
275.285
275.128
274.973
274.821
274.676
274.539
274.413
274.301
274.203
274.122
274.06
274.021
274.004
274.01
274.035
274.08
274.143
274.224
274.321
274.434
274.56
274.695
274.838
274.985
275.132
275.278
275.418
275.547
275.658
275.738
275.769
275.747
276.241
276.163
276.074
275.972
275.85
275.713
275.566
275.412
275.254
275.096
274.939
274.785
274.638
274.5
274.372
274.257
274.156
274.072
274.008
273.966
273.95
273.956
273.983
274.027
274.089
274.17
274.267
274.381
274.508
274.644
274.788
274.936
275.086
275.234
275.377
275.511
275.626
275.709
275.74
275.714
276.229
276.145
276.051
275.946
275.821
275.682
275.532
275.375
275.216
275.056
274.897
274.742
274.593
274.453
274.323
274.205
274.101
274.013
273.945
273.901
273.885
273.893
273.921
273.966
274.027
274.106
274.204
274.319
274.447
274.585
274.731
274.88
275.031
275.181
275.328
275.466
275.587
275.674
275.704
275.675
276.204
276.122
276.025
275.917
275.789
275.645
275.492
275.333
275.172
275.011
274.852
274.695
274.545
274.402
274.27
274.149
274.041
273.948
273.875
273.828
273.812
273.823
273.854
273.898
273.957
274.034
274.132
274.248
274.377
274.517
274.664
274.815
274.968
275.12
275.269
275.412
275.539
275.63
275.661
275.628
276.16
276.095
275.997
275.888
275.755
275.607
275.45
275.29
275.129
274.967
274.807
274.65
274.498
274.353
274.219
274.094
273.981
273.882
273.801
273.749
273.735
273.752
273.786
273.829
273.883
273.956
274.052
274.169
274.3
274.44
274.588
274.741
274.894
275.047
275.198
275.346
275.479
275.578
275.611
275.572
276.085
276.071
275.975
275.864
275.725
275.572
275.413
275.253
275.092
274.931
274.771
274.612
274.459
274.313
274.176
274.047
273.926
273.818
273.73
273.673
273.661
273.686
273.725
273.765
273.811
273.875
273.969
274.088
274.219
274.358
274.506
274.658
274.811
274.963
275.115
275.265
275.405
275.514
275.553
275.506
818.58
810.204
827.595
825.005
843.508
849.652
859.579
870.678
873.799
889.006
885.763
902.704
896.006
912.512
904.935
920.458
911.864
926.766
921.074
931.994
954.251
522.206
7.81505
1.50825
1.67478
1.62771
1.63062
1.654
1.67307
1.68687
1.69674
1.70264
1.70445
1.70224
1.69609
1.68606
1.67218
1.65451
1.63308
1.60798
1.5793
1.54717
1.51182
487.022
275.9
276.314
275.496
516.004
276.385
276.449
276.105
675.222
276.817
276.705
276.459
868.66
425.27
276.559
276.589
903.259
866.859
412.91
275.842
920.896
941.704
890.449
623.299
931.108
951.195
970.722
985.789
937.672
956.316
975.6
993.867
942.725
959.351
976.847
994.579
946.015
960.935
976.284
992.419
956.491
964.532
975.029
988.635
816.946
966.88
996.278
998.258
94.9807
242.541
437.863
668.817
1.41113
1.40641
1.94712
25.249
1.74516
1.75172
1.69218
1.51926
1.68367
1.72223
1.78355
1.92368
1.67049
1.7096
1.76546
1.86099
1.69604
1.73977
1.79085
1.85593
1.71911
1.76805
1.82284
1.88556
1.73561
1.78778
1.84567
1.91014
1.74749
1.80179
1.86151
1.92709
1.75499
1.81088
1.87199
1.93854
1.75801
1.81508
1.87727
1.9447
1.75662
1.81449
1.8774
1.94545
1.75094
1.80922
1.87248
1.94078
1.74101
1.79933
1.86254
1.93074
1.72686
1.78481
1.8476
1.91534
1.70851
1.76572
1.82771
1.89464
1.68606
1.74216
1.80301
1.86879
1.65961
1.7143
1.77369
1.838
1.62932
1.68232
1.73995
1.80246
1.59533
1.6464
1.70198
1.76237
1.55788
1.60676
1.66003
1.71799
275.983
276.049
275.967
275.853
275.706
275.548
275.387
275.228
275.069
274.909
274.748
274.589
274.435
274.287
274.146
274.011
273.881
273.762
273.665
273.605
273.599
273.635
273.676
273.71
273.745
273.797
273.887
274.011
274.142
274.277
274.422
274.572
274.72
274.869
275.017
275.167
275.314
275.437
275.484
275.431
276.156
276.081
275.989
275.864
275.707
275.543
275.38
275.223
275.066
274.906
274.745
274.585
274.431
274.282
274.136
273.992
273.849
273.717
273.612
273.552
273.559
273.611
273.646
273.668
273.688
273.725
273.81
273.944
274.078
274.205
274.343
274.488
274.628
274.767
274.907
275.051
275.202
275.341
275.405
275.344
276.365
276.175
276.052
275.907
275.738
275.567
275.404
275.248
275.092
274.931
274.768
274.608
274.455
274.304
274.152
273.998
273.835
273.68
273.565
273.515
273.567
273.633
273.64
273.639
273.639
273.655
273.731
273.889
274.042
274.153
274.279
274.416
274.542
274.667
274.79
274.919
275.067
275.223
275.313
275.25
276.533
276.3
276.158
275.995
275.812
275.633
275.465
275.306
275.146
274.983
274.818
274.656
274.504
274.35
274.191
274.028
273.837
273.63
273.477
273.451
273.693
273.766
273.693
273.634
273.598
273.588
273.665
273.896
274.076
274.129
274.228
274.369
274.472
274.577
274.676
274.781
274.913
275.082
275.209
275.155
276.35
276.215
276.088
275.9
275.691
275.512
275.362
275.221
275.044
274.87
274.707
274.557
274.432
274.299
274.138
273.99
273.824
275.416
280.206
287.087
289.626
274.34
273.527
273.57
273.586
273.551
273.75
274.198
274.236
274.142
274.229
274.377
274.426
274.509
274.577
274.648
274.751
274.92
275.094
275.067
443.347
433.913
426.997
375.035
334.209
346.402
403.935
480.126
489.297
494.045
514.141
566.535
629.544
662.865
673.339
679.399
689.579
704.224
723.474
747.032
761.764
751.601
708.836
674.474
618.615
472.452
320.775
286.309
275.125
274.181
274.543
274.497
274.424
274.472
274.502
274.531
274.595
274.745
274.96
274.999
952.8
950.269
947.045
906.699
857.626
870.417
923.211
971.893
979.064
981.048
987.642
999.887
1008.96
1012.63
1014.53
1016.47
1018.89
1021.53
1024.22
1027.27
1030.83
1034.93
1039.62
1043.36
1041.36
1024.96
1004.52
917.428
633.121
374.781
287.871
274.668
274.604
274.516
274.462
274.439
274.458
274.568
274.788
274.965
1010.2
1020.31
1024.24
1025.19
1026
1026.79
1027.39
1027.36
1027.21
1027.19
1027.89
1029.19
1030.84
1032.88
1035.35
1038.3
1041.71
1045.54
1049.82
1054.58
1059.88
1065.79
1072.33
1079.43
1087.09
1095.4
1105.07
1109.16
1113.64
1079.59
811.161
422.997
281.425
274.833
274.515
274.38
274.342
274.396
274.539
274.972
1011.57
1024.17
1031.02
1034.03
1035.67
1037.24
1038.67
1039.61
1040.36
1041.39
1043
1045.14
1047.71
1050.77
1054.38
1058.53
1063.2
1068.36
1074.03
1080.26
1087.1
1094.58
1102.68
1111.33
1120.52
1130.24
1140.28
1148.98
1158.16
1166.55
1171.86
1104.62
707.851
326.021
275.174
274.481
274.262
274.241
274.176
274.996
1009.11
1023.08
1032.24
1037.76
1041.42
1044.35
1046.81
1048.84
1050.83
1053.12
1055.92
1059.23
1063.03
1067.38
1072.31
1077.85
1083.97
1090.66
1097.95
1105.87
1114.42
1123.61
1133.35
1143.56
1154.16
1165.01
1175.84
1186.45
1197.54
1208.85
1219.54
1227.82
1220.23
913.032
389.631
275.78
274.468
274.163
273.696
275.208
1005.04
1019.98
1030.37
1037.41
1042.92
1048.01
1052.55
1056.39
1059.98
1063.83
1068.17
1073.02
1078.33
1084.14
1090.54
1097.58
1105.23
1113.52
1122.49
1132.13
1142.43
1153.35
1164.81
1176.69
1188.87
1201.12
1213.25
1225.22
1237.42
1250.08
1263.36
1276.5
1286.94
1289.68
999.714
405.166
276.399
274.454
273.421
278.015
1008.68
1020.69
1029.29
1035.58
1042.07
1049.66
1056.99
1063.03
1068.38
1073.96
1080.14
1086.8
1093.81
1101.24
1109.25
1117.92
1127.23
1137.2
1147.9
1159.31
1171.36
1183.91
1196.91
1210.36
1224.15
1237.94
1251.58
1265.06
1278.7
1293
1308.43
1324.68
1340.14
1351.55
1352.6
974.117
359.479
276.965
273.592
294.613
889.972
1006.18
1035.95
1055.53
1060.64
1067.13
1074.63
1081.07
1086.78
1092.89
1099.73
1107.08
1114.67
1122.62
1131.24
1140.73
1151.07
1162.3
1174.79
1188.16
1202.17
1216.48
1230.86
1245.54
1260.49
1275.33
1290.25
1305.27
1320.64
1337.07
1355.23
1374.89
1394.48
1411.48
1423.01
1393.07
819.693
302.381
275.645
295.282
122.762
262.926
348.251
401.334
491.182
611.693
703.024
730.38
736.666
749.927
777.243
811.508
842.522
874.322
916.942
974.425
1035.94
1090.92
1174.56
1213.04
1229.09
1246.97
1266
1283.51
1300.18
1315.3
1330.25
1345.86
1362.63
1381.4
1402.85
1426.57
1450.65
1472.58
1490.89
1503.94
1340.58
556.261
284.281
282.574
1.59808
1.91541
2.05928
2.11136
3.3273
10.9027
24.2429
31.468
33.5117
36.7285
43.7672
54.2791
65.7522
79.318
100.22
135.145
185.131
241.944
325.168
476.21
673.681
918.099
1245.1
1306.87
1335.22
1357.82
1374.36
1389.08
1405.14
1425.36
1450.23
1478.51
1507.51
1534.5
1558.6
1580.94
1596.08
1054.69
363.402
305.153
2.02389
2.10936
2.1607
2.17986
2.156
2.13285
2.25502
2.46905
2.65033
2.81693
2.99479
3.18598
3.37958
3.57125
3.76865
3.97937
4.22772
4.47133
4.71817
5.01961
15.3563
63.7515
201.466
451.067
975.585
1369.43
1410.56
1435.57
1450.61
1469.46
1496.47
1529.35
1563.59
1595.8
1625.56
1655.08
1684.98
1505.41
650.094
361.396
1.95338
2.03536
2.10763
2.1726
2.25563
2.40525
2.59086
2.76878
2.92607
3.07476
3.22413
3.37522
3.5253
3.67279
3.81784
3.96137
4.10283
4.23172
4.3369
4.38325
4.52053
4.97752
5.603
6.1807
58.2182
282.299
950.591
1446.81
1493.45
1514.95
1541.5
1577.75
1617.25
1654.87
1690.46
1726.71
1764.96
1760.08
1067.64
467.795
1.93027
2.0099
2.08893
2.17153
2.27255
2.41048
2.56908
2.72836
2.88331
3.03671
3.19137
3.34746
3.50367
3.65908
3.81332
3.96585
4.11586
4.26006
4.38931
4.4916
4.62253
4.8224
5.00666
5.0907
5.43208
6.62577
48.6605
487.369
1336.27
1549.95
1584.71
1622.78
1666.87
1710.07
1751.86
1795.28
1841.81
1889.41
1471.41
635.807
1.95734
2.0376
2.12165
2.21215
2.31552
2.43872
2.57859
2.72707
2.87843
3.03159
3.18705
3.34469
3.50365
3.66313
3.82262
3.98158
4.13925
4.29419
4.44387
4.58624
4.74016
4.91768
5.08732
5.2033
5.31211
5.5028
5.9909
7.58111
325.291
1278.87
1613.56
1662.35
1711.14
1759.69
1808.09
1859.17
1914.84
1980.64
1750.72
792.276
1.98342
2.06577
2.15385
2.24951
2.35599
2.47649
2.61008
2.75258
2.90004
3.05092
3.20489
3.36159
3.5203
3.68029
3.84102
4.00198
4.16261
4.32226
4.48029
4.63725
4.80197
4.98141
5.17179
5.35033
5.49365
5.64813
5.81772
6.06615
6.9015
386.944
1409.43
1691.27
1749.01
1802.59
1857.57
1916.14
1979.6
2056.29
1903.97
876.272
2.00153
2.08562
2.17644
2.27529
2.38395
2.50394
2.63458
2.77344
2.91808
3.06717
3.22008
3.37625
3.53498
3.69561
3.85758
4.02044
4.18374
4.34715
4.51056
4.6748
4.8443
5.02245
5.2193
5.41138
5.58761
5.7827
5.98481
6.14964
6.31078
8.30079
681.13
1633.98
1776.12
1838.5
1899.89
1965.36
2035.19
2118.55
1979.26
900.81
2.01393
2.09933
2.19195
2.29266
2.40239
2.52183
2.65054
2.78704
2.9298
3.07772
3.23007
3.3862
3.54545
3.70717
3.87082
4.03594
4.20215
4.36923
4.53724
4.70677
4.8799
5.05799
5.24452
5.43866
5.62545
5.8217
6.03065
6.20838
6.23206
6.58416
153.139
1196.36
1787.81
1867.46
1936.18
2007.77
2083.01
2170.88
2018.32
894.109
2.02093
2.10731
2.20108
2.30287
2.41313
2.53217
2.65967
2.79475
2.93635
3.08359
3.23575
3.39218
3.55223
3.71529
3.88079
4.04826
4.21732
4.38777
4.55963
4.73328
4.90966
5.08934
5.27201
5.45741
5.64736
5.83985
6.03418
6.22148
6.33271
6.23103
7.38969
585.248
1691.8
1889.14
1968.21
2045.44
2125.28
2216.23
2052.05
879.25
2.02225
2.10926
2.20371
2.30607
2.41658
2.53536
2.66219
2.79648
2.93748
3.08447
3.23681
3.39386
3.555
3.71961
3.88711
4.05698
4.22883
4.40239
4.57761
4.75464
4.93387
5.1155
5.29929
5.48478
5.6715
5.85767
6.03941
6.21359
6.35229
6.32372
6.63835
168.646
1327.35
1903.49
1997.31
2080.74
2164.45
2257.28
2094.47
866.79
2.01783
2.10511
2.19984
2.30243
2.41299
2.53158
2.65803
2.79193
2.93273
3.07985
3.23269
3.39066
3.55316
3.71956
3.88925
4.06168
4.23636
4.41298
4.59135
4.77148
4.95345
5.13721
5.32241
5.50841
5.69417
5.87703
6.05227
6.21599
6.35921
6.43932
6.48393
7.23097
798.297
1875.17
2024.48
2115.88
2203.06
2296.82
2141.07
858.649
2.00768
2.0949
2.18958
2.2921
2.40253
2.52091
2.64712
2.78087
2.92174
3.06925
3.22287
3.38204
3.54616
3.71461
3.88674
4.06193
4.23963
4.41942
4.60104
4.78437
4.9693
5.15561
5.34283
5.53018
5.71631
5.89844
6.07176
6.23171
6.3753
6.48677
6.53385
6.80733
331.952
1679.67
2051.32
2152.87
2243.42
2337.29
2196.92
862.309
1.99184
2.07865
2.17295
2.27512
2.38522
2.50331
2.62931
2.76303
2.90413
3.05222
3.20684
3.36744
3.53345
3.70421
3.87905
4.05728
4.23828
4.42155
4.60672
4.79355
4.98186
5.17137
5.36155
5.5515
5.73968
5.92334
6.09801
6.25881
6.40282
6.52338
6.60254
6.70697
96.6367
1375.46
2082.36
2194.15
2287.57
2380.77
2276.02
889.389
1.97035
2.05641
2.15001
2.25154
2.36108
2.47871
2.60444
2.73812
2.87951
3.02829
3.18405
3.34629
3.51443
3.6878
3.86566
4.0473
4.232
4.41912
4.60818
4.79889
4.99108
5.18454
5.3788
5.57288
5.76512
5.95275
6.13163
6.29694
6.44556
6.57606
6.67869
6.75007
12.7973
1070.34
2113.04
2241.94
2337.14
2427.63
2375.52
948.581
1.94336
2.02831
2.12086
2.22141
2.33009
2.44705
2.57232
2.70585
2.84749
2.99697
3.15395
3.31798
3.48848
3.66476
3.84606
4.03153
4.22032
4.41166
4.60497
4.79993
4.99645
5.19456
5.39399
5.59385
5.79224
5.98625
6.17177
6.34394
6.49958
6.64076
6.76232
6.79905
6.99938
806.13
2119.59
2298.35
2393.62
2480.04
2497.66
1041.71
1.91107
1.99452
2.08563
2.18482
2.29231
2.40826
2.5328
2.66596
2.80765
2.95773
3.11591
3.28181
3.45489
3.63444
3.81958
4.00933
4.20266
4.39862
4.59645
4.79584
4.99693
5.20014
5.40567
5.6128
5.81938
6.0219
6.21595
6.39672
6.56207
6.71961
6.86458
6.86074
7.09229
680.51
2143.54
2366.08
2457.54
2538.14
2634.58
1184.31
1.87366
1.95522
2.04446
2.14187
2.24771
2.36224
2.48565
2.61806
2.7595
2.90992
3.06917
3.23695
3.41276
3.59585
3.78527
3.97986
4.17831
4.37934
4.5819
4.78562
4.99102
5.19925
5.4113
5.62685
5.84321
6.0557
6.25929
6.45002
6.62984
6.81616
6.99775
6.93382
7.60887
723.639
2232.22
2445.42
2527.15
2601.36
2699.38
1419.98
1.83134
1.91056
1.99747
2.0926
2.19627
2.30883
2.43056
2.56167
2.70236
2.85272
3.01273
3.18222
3.36076
3.54766
3.74188
3.94205
4.14649
4.35328
4.56073
4.76823
4.97686
5.18898
5.407
5.63127
5.85809
6.08085
6.29403
6.49573
6.69324
6.90697
7.10262
7.07026
8.97116
1125.73
2402.52
2528.22
2596.57
2665.4
2768.45
1652.01
1.78435
1.86078
1.94483
2.03708
2.13794
2.24781
2.36711
2.49619
2.6354
2.78501
2.9452
3.116
3.29717
3.48811
3.68778
3.89464
4.10644
4.32022
4.5329
4.74306
4.95248
5.16549
5.38699
5.61894
5.85645
6.08961
6.31222
6.52228
6.72275
6.93222
7.10291
7.92704
179.861
1868.24
2527.38
2600.43
2657.29
2721.62
2833
1905.54
)
;

boundaryField
{
    leftWall
    {
        type            fixedFluxPressure;
        gradient        nonuniform 0();
        value           nonuniform 0();
    }
    rightWall
    {
        type            fixedFluxPressure;
        gradient        uniform 0;
        value           nonuniform List<scalar> 
43
(
275.828
275.816
275.798
275.775
275.747
275.714
275.675
275.628
275.572
275.506
275.431
275.344
275.25
275.155
275.067
274.999
274.965
274.972
274.996
275.208
278.015
294.613
295.282
282.574
305.153
361.396
467.795
635.807
792.276
876.272
900.81
894.109
879.25
866.79
858.649
862.309
889.389
948.581
1041.71
1184.31
1419.98
1652.01
1905.54
)
;
    }
    lowerWall
    {
        type            fixedFluxPressure;
        gradient        uniform 0;
        value           nonuniform List<scalar> 
66
(
812.273
819.562
819.562
810.62
805.072
805.366
812.502
823.382
834.575
843.117
845.56
839.228
487.022
275.9
276.314
275.496
276.165
276.189
276.211
276.231
276.242
276.241
276.229
276.204
276.16
276.085
276.165
276.12
276.067
275.986
275.882
275.76
275.624
275.478
275.327
275.174
275.022
274.876
274.736
274.605
274.486
274.38
274.291
274.219
274.165
274.132
274.121
274.13
274.161
274.212
274.281
274.369
274.472
274.59
274.721
274.861
275.008
275.158
275.308
275.452
275.585
275.699
275.788
275.844
275.858
275.828
)
;
    }
    atmosphere
    {
        type            totalPressure;
        rho             rho;
        psi             none;
        gamma           1;
        p0              nonuniform 0();
        value           nonuniform 0();
    }
    defaultFaces
    {
        type            empty;
    }
    procBoundary1to0
    {
        type            processor;
        value           nonuniform List<scalar> 
44
(
802.76
795.467
791.722
792.485
796.651
804.998
809.299
812.712
814.685
815.921
818.816
826.793
838.034
850.007
861.53
872.315
882.392
891.307
898.972
916.697
909.022
909.022
184.495
1.21203
1.59796
1.59621
1.57657
1.59407
1.6151
1.63047
1.64174
1.64961
1.6539
1.6545
1.65144
1.64477
1.63457
1.62089
1.60377
1.58325
1.55938
1.53221
1.50187
1.46853
)
;
    }
    procBoundary1to3
    {
        type            processor;
        value           nonuniform List<scalar> 
45
(
1.47345
1.51719
1.56366
1.61436
1.66959
1.73295
1.80609
1.8867
1.97537
2.0726
2.17888
2.29475
2.42075
2.5574
2.70522
2.86467
3.03608
3.21953
3.41469
3.62067
3.83584
4.0574
4.28066
4.49957
4.71056
4.91614
5.12398
5.34377
5.58218
5.83314
6.07648
6.30489
6.50848
6.67036
6.9618
8.04128
14.1853
1217.67
2488.62
2603.22
2653.23
2701.14
2759.81
2879.63
2017.72
)
;
    }
}


// ************************************************************************* //
