/*--------------------------------*- C++ -*----------------------------------*\
| =========                 |                                                 |
| \\      /  F ield         | OpenFOAM: The Open Source CFD Toolbox           |
|  \\    /   O peration     | Version:  5.0                                   |
|   \\  /    A nd           | Web:      www.OpenFOAM.org                      |
|    \\/     M anipulation  |                                                 |
\*---------------------------------------------------------------------------*/
FoamFile
{
    version     2.0;
    format      ascii;
    class       surfaceScalarField;
    location    "0.55";
    object      phi;
}
// * * * * * * * * * * * * * * * * * * * * * * * * * * * * * * * * * * * * * //

dimensions      [0 3 -1 0 0 0 0];

internalField   nonuniform List<scalar> 
3731
(
-7.78315e-06
-5.03206e-06
-7.78315e-06
-5.89835e-06
-6.20651e-06
-1.36815e-05
-2.44781e-06
-5.41621e-06
-1.61293e-05
6.28771e-07
-3.75725e-06
-1.55005e-05
2.49457e-06
-1.37505e-06
-1.3006e-05
3.70696e-06
1.49197e-06
-9.299e-06
4.52554e-06
4.73925e-06
-4.77347e-06
5.22953e-06
8.26151e-06
4.56068e-07
6.104e-06
1.18878e-05
6.56007e-06
7.32777e-06
1.53184e-05
1.38878e-05
2.44155e-08
-2.44155e-08
-5.29116e-06
5.31559e-06
-1.23048e-05
7.01362e-06
-2.00573e-05
7.75249e-06
-2.8365e-05
8.30771e-06
-3.67987e-05
8.43374e-06
-4.50663e-05
8.26762e-06
-5.30061e-05
7.93983e-06
-6.05327e-05
7.52654e-06
-6.76071e-05
7.07443e-06
-7.42041e-05
6.59696e-06
-8.02859e-05
6.08177e-06
-8.57985e-05
5.51255e-06
-9.06843e-05
4.88581e-06
-9.48974e-05
4.21305e-06
-9.84069e-05
3.50953e-06
-0.000101188
2.78069e-06
-0.00010321
2.02281e-06
-0.000104447
1.23708e-06
-0.000104883
4.35129e-07
-0.000104624
-2.58187e-07
-0.000103779
-8.4568e-07
-0.000102419
-1.35935e-06
-0.000100599
-1.82052e-06
-9.83456e-05
-2.25332e-06
-9.56618e-05
-2.68372e-06
-9.25248e-05
-3.13704e-06
-8.88933e-05
-3.63153e-06
-8.47195e-05
-4.1738e-06
-7.99584e-05
-4.76106e-06
-7.45674e-05
-5.391e-06
-6.84978e-05
-6.06961e-06
-6.16903e-05
-6.80746e-06
-5.40806e-05
-7.60976e-06
-4.56055e-05
-8.47506e-06
-3.62096e-05
-9.39589e-06
-2.59148e-05
-1.02948e-05
-1.51199e-05
-1.0795e-05
-5.35198e-06
-9.76787e-06
-5.35198e-06
-6.70696e-06
6.68254e-06
-1.67701e-05
1.53787e-05
-2.78678e-05
1.81113e-05
-3.85364e-05
1.8421e-05
-4.82869e-05
1.80583e-05
-5.70987e-05
1.72455e-05
-6.50212e-05
1.61901e-05
-7.21314e-05
1.50501e-05
-7.85013e-05
1.38965e-05
-8.41787e-05
1.27518e-05
-8.91852e-05
1.16034e-05
-9.35304e-05
1.04269e-05
-9.72308e-05
9.21293e-06
-0.000100319
7.97392e-06
-0.000102837
6.73152e-06
-0.000104825
5.49684e-06
-0.000106306
4.26248e-06
-0.000107298
3.01394e-06
-0.000107809
1.7482e-06
-0.000107865
4.91116e-07
-0.000107397
-7.25667e-07
-0.000106379
-1.86399e-06
-0.000104829
-2.909e-06
-0.000102779
-3.87036e-06
-0.000100251
-4.78142e-06
-9.72544e-05
-5.68075e-06
-9.37882e-05
-6.60319e-06
-8.98456e-05
-7.57411e-06
-8.54125e-05
-8.60696e-06
-8.04668e-05
-9.70676e-06
-7.49792e-05
-1.08786e-05
-6.89147e-05
-1.21341e-05
-6.22329e-05
-1.34892e-05
-5.48847e-05
-1.49581e-05
-4.68088e-05
-1.6551e-05
-3.79408e-05
-1.82639e-05
-2.82352e-05
-2.00004e-05
-1.77458e-05
-2.12843e-05
-7.15837e-06
-2.03553e-05
-1.25104e-05
-1.04529e-05
1.71354e-05
-2.13634e-05
2.62892e-05
-3.212e-05
2.8868e-05
-4.19535e-05
2.82545e-05
-5.0611e-05
2.67158e-05
-5.82839e-05
2.49184e-05
-6.51857e-05
2.3092e-05
-7.14617e-05
2.13261e-05
-7.71996e-05
1.96343e-05
-8.24431e-05
1.79954e-05
-8.72079e-05
1.63681e-05
-9.14963e-05
1.47153e-05
-9.53086e-05
1.30252e-05
-9.86471e-05
1.13124e-05
-0.000101514
9.59871e-06
-0.000103906
7.88869e-06
-0.000105805
6.16152e-06
-0.000107178
4.3863e-06
-0.000107979
2.54986e-06
-0.000108169
6.80801e-07
-0.000107737
-1.15797e-06
-0.00010671
-2.89036e-06
-0.00010514
-4.47963e-06
-0.000103064
-5.94559e-06
-0.000100508
-7.33767e-06
-9.74813e-05
-8.70759e-06
-9.39869e-05
-1.00975e-05
-9.00245e-05
-1.15366e-05
-8.55897e-05
-1.30418e-05
-8.06736e-05
-1.46229e-05
-7.52616e-05
-1.62907e-05
-6.93321e-05
-1.80636e-05
-6.28523e-05
-1.9969e-05
-5.57698e-05
-2.20405e-05
-4.80032e-05
-2.43176e-05
-3.9436e-05
-2.68311e-05
-2.99195e-05
-2.95169e-05
-1.93553e-05
-3.18485e-05
-8.16925e-06
-3.15414e-05
-2.06796e-05
-1.16114e-05
2.87468e-05
-2.2342e-05
3.70198e-05
-3.21867e-05
3.87127e-05
-4.10823e-05
3.715e-05
-4.90526e-05
3.46861e-05
-5.62982e-05
3.2164e-05
-6.29848e-05
2.97786e-05
-6.92022e-05
2.75435e-05
-7.49952e-05
2.54273e-05
-8.03807e-05
2.33809e-05
-8.53551e-05
2.13426e-05
-8.98999e-05
1.92601e-05
-9.39899e-05
1.71152e-05
-9.76039e-05
1.49265e-05
-0.00010073
1.27248e-05
-0.000103359
1.05179e-05
-0.000105472
8.2742e-06
-0.000107028
5.94237e-06
-0.000107973
3.49442e-06
-0.000108257
9.65414e-07
-0.000107876
-1.53937e-06
-0.000106872
-3.89383e-06
-0.000105314
-6.03774e-06
-0.000103255
-8.00508e-06
-0.000100721
-9.8717e-06
-9.7721e-05
-1.17072e-05
-9.42576e-05
-1.35609e-05
-9.03309e-05
-1.54634e-05
-8.5941e-05
-1.74316e-05
-8.10865e-05
-1.94774e-05
-7.57622e-05
-2.1615e-05
-6.99546e-05
-2.38713e-05
-6.36315e-05
-2.6292e-05
-5.67284e-05
-2.89437e-05
-4.91327e-05
-3.19133e-05
-4.06734e-05
-3.52904e-05
-3.11305e-05
-3.90599e-05
-2.03448e-05
-4.26341e-05
-8.78596e-06
-4.31003e-05
-2.94656e-05
-1.18291e-05
4.05759e-05
-2.21693e-05
4.736e-05
-3.13494e-05
4.78928e-05
-3.96817e-05
4.54823e-05
-4.73384e-05
4.23428e-05
-5.44635e-05
3.92892e-05
-6.11412e-05
3.64563e-05
-6.74079e-05
3.38102e-05
-7.32834e-05
3.13028e-05
-7.87773e-05
2.88748e-05
-8.38828e-05
2.6448e-05
-8.85734e-05
2.39507e-05
-9.28128e-05
2.13547e-05
-9.65739e-05
1.86875e-05
-9.98486e-05
1.59995e-05
-0.000102639
1.3308e-05
-0.00010493
1.05658e-05
-0.000106675
7.68751e-06
-0.000107797
4.61599e-06
-0.00010822
1.38877e-06
-0.000107925
-1.83512e-06
-0.000106968
-4.84999e-06
-0.000105451
-7.5556e-06
-0.000103444
-1.00118e-05
-0.000100976
-1.23393e-05
-9.80503e-05
-1.46333e-05
-9.46619e-05
-1.69494e-05
-9.08098e-05
-1.93155e-05
-8.64959e-05
-2.17455e-05
-8.17228e-05
-2.42505e-05
-7.64904e-05
-2.68473e-05
-7.07894e-05
-2.95723e-05
-6.4585e-05
-3.24965e-05
-5.77964e-05
-3.57323e-05
-5.02766e-05
-3.94331e-05
-4.18029e-05
-4.37641e-05
-3.21048e-05
-4.87579e-05
-2.10208e-05
-5.37182e-05
-9.11663e-06
-5.50044e-05
-3.85822e-05
-1.19137e-05
5.24896e-05
-2.18941e-05
5.73404e-05
-3.05904e-05
5.65891e-05
-3.85149e-05
5.34068e-05
-4.59232e-05
4.9751e-05
-5.29093e-05
4.62753e-05
-5.94965e-05
4.30435e-05
-6.56898e-05
4.00035e-05
-7.15046e-05
3.71176e-05
-7.69589e-05
3.43291e-05
-8.20526e-05
3.15417e-05
-8.67582e-05
2.86563e-05
-9.10345e-05
2.5631e-05
-9.48546e-05
2.25077e-05
-9.82229e-05
1.93678e-05
-0.000101159
1.62442e-05
-0.000103658
1.30646e-05
-0.000105657
9.68607e-06
-0.000107039
5.99857e-06
-0.000107682
2.03165e-06
-0.000107535
-1.9824e-06
-0.000106677
-5.70798e-06
-0.000105259
-8.97345e-06
-0.000103381
-1.18895e-05
-0.000101064
-1.4656e-05
-9.82945e-05
-1.74033e-05
-9.50558e-05
-2.01881e-05
-9.13435e-05
-2.30278e-05
-8.71611e-05
-2.59279e-05
-8.25124e-05
-2.88992e-05
-7.73998e-05
-3.19599e-05
-7.18164e-05
-3.51557e-05
-6.57243e-05
-3.85885e-05
-5.90263e-05
-4.24303e-05
-5.15378e-05
-4.69216e-05
-4.29794e-05
-5.23224e-05
-3.30284e-05
-5.87089e-05
-2.15414e-05
-6.52052e-05
-9.25727e-06
-6.72885e-05
-4.78395e-05
-1.22566e-05
6.47462e-05
-2.18613e-05
6.69451e-05
-3.00668e-05
6.47945e-05
-3.75309e-05
6.08709e-05
-4.45785e-05
5.67986e-05
-5.12637e-05
5.29605e-05
-5.75629e-05
4.93426e-05
-6.34647e-05
4.59053e-05
-6.89958e-05
4.26486e-05
-7.41932e-05
3.95265e-05
-7.90708e-05
3.64193e-05
-8.36053e-05
3.31908e-05
-8.77564e-05
2.97822e-05
-9.15051e-05
2.62564e-05
-9.48773e-05
2.27399e-05
-9.79213e-05
1.92882e-05
-0.000100647
1.57905e-05
-0.000102975
1.20135e-05
-0.000104733
7.75692e-06
-0.000105723
3.0216e-06
-0.000105839
-1.86608e-06
-0.00010519
-6.35718e-06
-0.000104009
-1.01541e-05
-0.00010243
-1.34684e-05
-0.000100445
-1.66418e-05
-9.79996e-05
-1.98484e-05
-9.50592e-05
-2.31284e-05
-9.16168e-05
-2.64702e-05
-8.76811e-05
-2.98636e-05
-8.32567e-05
-3.33235e-05
-7.83453e-05
-3.68714e-05
-7.29419e-05
-4.05591e-05
-6.70077e-05
-4.45227e-05
-6.04306e-05
-4.90075e-05
-5.29862e-05
-5.4366e-05
-4.43293e-05
-6.09794e-05
-3.40709e-05
-6.89673e-05
-2.20861e-05
-7.71899e-05
-9.3414e-06
-8.00333e-05
-5.71809e-05
-1.30542e-05
7.78004e-05
-2.21786e-05
7.60694e-05
-2.96958e-05
7.23117e-05
-3.64835e-05
6.76586e-05
-4.29307e-05
6.32458e-05
-4.90363e-05
5.90661e-05
-5.47308e-05
5.50371e-05
-6.00038e-05
5.11783e-05
-6.49119e-05
4.75567e-05
-6.95215e-05
4.41361e-05
-7.38648e-05
4.07626e-05
-7.79301e-05
3.7256e-05
-8.16896e-05
3.35417e-05
-8.51441e-05
2.97109e-05
-8.83487e-05
2.59446e-05
-9.13874e-05
2.23269e-05
-9.42958e-05
1.86989e-05
-9.69859e-05
1.47035e-05
-9.92301e-05
1.00012e-05
-0.000100729
4.52093e-06
-0.000101286
-1.30993e-06
-0.000101037
-6.60529e-06
-0.00010035
-1.08413e-05
-9.93952e-05
-1.44236e-05
-9.80853e-05
-1.79517e-05
-9.62852e-05
-2.16486e-05
-9.39216e-05
-2.54921e-05
-9.09912e-05
-2.94006e-05
-8.75224e-05
-3.33325e-05
-8.35224e-05
-3.73235e-05
-7.89875e-05
-4.14063e-05
-7.39149e-05
-4.56316e-05
-6.82682e-05
-5.01694e-05
-6.19242e-05
-5.53516e-05
-5.46191e-05
-6.1671e-05
-4.59313e-05
-6.96672e-05
-3.53797e-05
-7.9519e-05
-2.28292e-05
-8.97404e-05
-9.49123e-06
-9.33712e-05
-6.66721e-05
-1.5315e-05
9.31154e-05
-2.3011e-05
8.37655e-05
-2.93214e-05
7.86221e-05
-3.50158e-05
7.3353e-05
-4.04523e-05
6.86822e-05
-4.55267e-05
6.41405e-05
-5.01307e-05
5.96411e-05
-5.42916e-05
5.53392e-05
-5.81264e-05
5.13915e-05
-6.17357e-05
4.77455e-05
-6.51642e-05
4.41912e-05
-6.84132e-05
4.05051e-05
-7.14782e-05
3.66067e-05
-7.43861e-05
3.26188e-05
-7.72136e-05
2.87721e-05
-8.00655e-05
2.51787e-05
-8.3006e-05
2.16394e-05
-8.597e-05
1.76676e-05
-8.87105e-05
1.27417e-05
-9.08339e-05
6.64436e-06
-9.19962e-05
-1.47681e-07
-9.23526e-05
-6.24894e-06
-9.24731e-05
-1.07207e-05
-9.25874e-05
-1.43092e-05
-9.24603e-05
-1.80788e-05
-9.17953e-05
-2.23136e-05
-9.04423e-05
-2.6845e-05
-8.84071e-05
-3.14358e-05
-8.57654e-05
-3.59741e-05
-8.25324e-05
-4.05565e-05
-7.86877e-05
-4.5251e-05
-7.42299e-05
-5.00895e-05
-6.91298e-05
-5.52696e-05
-6.32566e-05
-6.12247e-05
-5.63094e-05
-6.86182e-05
-4.77792e-05
-7.81974e-05
-3.70504e-05
-9.02478e-05
-2.39093e-05
-0.000102882
-9.79355e-06
-0.000107487
-7.64657e-05
-1.8341e-05
0.000111456
-2.43067e-05
8.97312e-05
-2.85882e-05
8.29036e-05
-3.25048e-05
7.72696e-05
-3.62795e-05
7.24569e-05
-3.96792e-05
6.75402e-05
-4.25899e-05
6.25518e-05
-4.51246e-05
5.78739e-05
-4.74819e-05
5.37489e-05
-4.97783e-05
5.00419e-05
-5.20411e-05
4.6454e-05
-5.42634e-05
4.27274e-05
-5.64563e-05
3.87996e-05
-5.86644e-05
3.48269e-05
-6.09629e-05
3.10706e-05
-6.34448e-05
2.76605e-05
-6.61906e-05
2.43852e-05
-6.91951e-05
2.06721e-05
-7.22698e-05
1.58165e-05
-7.49837e-05
9.35822e-06
-7.67975e-05
1.66616e-06
-7.78304e-05
-5.21613e-06
-7.89425e-05
-9.60862e-06
-8.04756e-05
-1.27761e-05
-8.20081e-05
-1.65463e-05
-8.30009e-05
-2.13208e-05
-8.31544e-05
-2.66915e-05
-8.24733e-05
-3.21169e-05
-8.11296e-05
-3.73178e-05
-7.91465e-05
-4.25395e-05
-7.6456e-05
-4.79416e-05
-7.30539e-05
-5.34916e-05
-6.89254e-05
-5.93981e-05
-6.39313e-05
-6.62189e-05
-5.77337e-05
-7.48158e-05
-4.97248e-05
-8.62062e-05
-3.90949e-05
-0.000100878
-2.54283e-05
-0.000116548
-1.03142e-05
-0.000122601
-8.67799e-05
9.45807e-06
1.78155e-05
1.57764e-05
7.56951e-06
1.01324e-05
2.04871e-05
1.96737e-05
6.23508e-06
1.09885e-05
2.32403e-05
2.37654e-05
6.89684e-06
1.25808e-05
2.56869e-05
2.71989e-05
9.14728e-06
1.48104e-05
2.75468e-05
2.97188e-05
1.22905e-05
1.739e-05
2.86978e-05
3.12051e-05
1.59036e-05
2.00176e-05
2.91486e-05
3.17563e-05
1.94664e-05
2.24661e-05
2.89821e-05
3.15582e-05
2.26642e-05
2.46081e-05
2.83065e-05
3.07864e-05
2.538e-05
2.64025e-05
2.95827e-05
2.76062e-05
2.80426e-05
2.93594e-05
2.6053e-05
3.07246e-05
2.32954e-05
3.10048e-05
2.14068e-05
3.06759e-05
1.98e-05
2.94094e-05
1.86219e-05
2.9146e-05
1.77881e-05
2.92495e-05
1.72167e-05
2.9445e-05
1.68236e-05
2.97328e-05
1.65306e-05
3.00652e-05
1.62732e-05
3.03413e-05
1.60056e-05
3.04534e-05
1.56996e-05
3.03089e-05
1.53428e-05
2.98409e-05
1.49354e-05
2.9012e-05
1.44877e-05
2.78137e-05
1.4017e-05
2.62629e-05
1.3545e-05
2.43954e-05
1.30961e-05
2.22599e-05
1.26954e-05
1.9912e-05
1.23676e-05
1.74096e-05
1.21366e-05
1.48096e-05
1.21663e-05
-2.15187e-06
9.72138e-06
-5.96626e-06
3.81439e-06
-4.39685e-06
-1.56943e-06
3.11635e-05
-3.55604e-05
-1.4767e-06
1.74332e-05
-1.43361e-05
1.66738e-05
-3.19955e-05
1.60899e-05
4.37613e-05
-4.45933e-05
8.68771e-07
2.34612e-05
-1.05604e-05
2.8103e-05
-3.36972e-05
3.92267e-05
4.97921e-05
-3.9728e-05
4.88792e-06
2.77206e-05
4.87433e-07
3.25035e-05
-1.49114e-06
4.12053e-05
5.72813e-05
-8.98039e-06
9.34293e-06
3.06681e-05
7.0795e-06
3.47669e-05
7.74688e-06
4.05379e-05
4.8629e-05
1.63992e-05
1.43147e-05
3.2257e-05
1.33491e-05
3.57326e-05
1.38518e-05
4.00352e-05
4.50511e-05
1.74296e-05
1.90016e-05
3.27218e-05
1.90117e-05
3.57225e-05
1.99706e-05
3.90763e-05
4.25502e-05
2.24715e-05
2.30121e-05
3.23738e-05
2.37335e-05
3.50011e-05
2.50965e-05
3.77133e-05
4.03346e-05
2.73122e-05
2.62954e-05
3.14584e-05
2.75062e-05
3.37902e-05
2.91408e-05
3.60788e-05
3.818e-05
3.12954e-05
2.89212e-05
3.01434e-05
3.0467e-05
3.22444e-05
3.2288e-05
3.42578e-05
3.60332e-05
3.44348e-05
3.09884e-05
2.85144e-05
3.27842e-05
3.04486e-05
3.47415e-05
3.23004e-05
3.38671e-05
3.69077e-05
3.25645e-05
2.66745e-05
3.45211e-05
2.84919e-05
3.66266e-05
3.0195e-05
3.16099e-05
3.88837e-05
3.31997e-05
2.44796e-05
3.55764e-05
2.61152e-05
3.81387e-05
2.76327e-05
2.91167e-05
4.06319e-05
3.24448e-05
2.27107e-05
3.50725e-05
2.34875e-05
3.84861e-05
2.42191e-05
2.60658e-05
4.1537e-05
3.19567e-05
2.01634e-05
3.49502e-05
2.0494e-05
3.85882e-05
2.05811e-05
2.34678e-05
4.11861e-05
3.08405e-05
1.8469e-05
3.25109e-05
1.88235e-05
3.38739e-05
1.92181e-05
2.08904e-05
3.64513e-05
3.02426e-05
1.74759e-05
3.11568e-05
1.79094e-05
3.19595e-05
1.84154e-05
1.94383e-05
3.34117e-05
3.00429e-05
1.68779e-05
3.05825e-05
1.73698e-05
3.10895e-05
1.79084e-05
1.8678e-05
3.18498e-05
3.00915e-05
1.65192e-05
3.03916e-05
1.70697e-05
3.06574e-05
1.76427e-05
1.83194e-05
3.1016e-05
3.02883e-05
1.62961e-05
3.04398e-05
1.69182e-05
3.05368e-05
1.75456e-05
1.8213e-05
3.06432e-05
3.05055e-05
1.61319e-05
3.0584e-05
1.68398e-05
3.05858e-05
1.75438e-05
1.82578e-05
3.0541e-05
3.06113e-05
1.5974e-05
3.06704e-05
1.67806e-05
3.06332e-05
1.75811e-05
1.83799e-05
3.05111e-05
3.04925e-05
1.57903e-05
3.05662e-05
1.67069e-05
3.05273e-05
1.762e-05
1.85299e-05
3.03772e-05
3.00653e-05
1.55659e-05
3.01709e-05
1.66013e-05
3.01508e-05
1.76402e-05
1.86802e-05
3.00005e-05
2.92788e-05
1.5299e-05
2.94195e-05
1.64607e-05
2.94238e-05
1.76358e-05
1.88206e-05
2.92835e-05
2.81142e-05
1.49986e-05
2.82819e-05
1.6293e-05
2.83041e-05
1.76135e-05
1.89552e-05
2.81695e-05
2.65804e-05
1.46811e-05
2.67587e-05
1.61147e-05
2.67827e-05
1.75895e-05
1.90995e-05
2.66384e-05
2.47084e-05
1.4368e-05
2.48748e-05
1.59483e-05
2.48773e-05
1.75871e-05
1.92771e-05
2.46996e-05
2.25438e-05
1.4084e-05
2.2672e-05
1.58201e-05
2.26251e-05
1.7634e-05
1.95175e-05
2.23847e-05
2.01409e-05
1.38551e-05
2.02026e-05
1.57584e-05
2.00755e-05
1.7761e-05
1.98537e-05
1.97393e-05
1.75573e-05
1.37075e-05
1.75235e-05
1.57922e-05
1.72844e-05
1.80001e-05
2.03206e-05
1.68175e-05
1.48507e-05
1.36664e-05
1.4693e-05
1.59499e-05
1.43103e-05
1.83828e-05
2.09533e-05
1.36776e-05
1.20775e-05
1.17695e-05
1.12131e-05
1.0381e-05
-2.75378e-05
0.000103434
-2.68302e-05
8.90236e-05
-2.71732e-05
8.32465e-05
-2.82102e-05
7.83067e-05
-2.95091e-05
7.37557e-05
-3.06226e-05
6.86538e-05
-3.14039e-05
6.33331e-05
-3.20307e-05
5.85007e-05
-3.27649e-05
5.44831e-05
-3.37016e-05
5.09786e-05
-3.48095e-05
4.75618e-05
-3.60322e-05
4.39501e-05
-3.7365e-05
4.01325e-05
-3.88536e-05
3.63155e-05
-4.05582e-05
3.27753e-05
-4.25398e-05
2.96422e-05
-4.48801e-05
2.67255e-05
-4.76512e-05
2.34432e-05
-5.08015e-05
1.89668e-05
-5.3976e-05
1.25327e-05
-5.64385e-05
4.12872e-06
-5.81565e-05
-3.49819e-06
-6.03285e-05
-7.43656e-06
-6.34146e-05
-9.69002e-06
-6.6862e-05
-1.30989e-05
-6.98904e-05
-1.82924e-05
-7.19583e-05
-2.46236e-05
-7.30231e-05
-3.1052e-05
-7.34475e-05
-3.68934e-05
-7.32589e-05
-4.27282e-05
-7.22709e-05
-4.89296e-05
-7.04609e-05
-5.53016e-05
-6.78475e-05
-6.20115e-05
-6.42711e-05
-6.97952e-05
-5.93456e-05
-7.97413e-05
-5.23411e-05
-9.32107e-05
-4.21596e-05
-0.000111059
-2.79716e-05
-0.000130736
-1.13483e-05
-0.000139224
-9.81282e-05
-3.3443e-05
9.22836e-05
-2.65331e-05
8.21138e-05
-2.17902e-05
7.85036e-05
-1.89815e-05
7.5498e-05
-1.72465e-05
7.20207e-05
-1.58616e-05
6.72689e-05
-1.45191e-05
6.19906e-05
-1.33326e-05
5.73142e-05
-1.25664e-05
5.37169e-05
-1.22657e-05
5.06779e-05
-1.23332e-05
4.76293e-05
-1.26358e-05
4.42528e-05
-1.31225e-05
4.06192e-05
-1.38205e-05
3.70135e-05
-1.47776e-05
3.37324e-05
-1.60214e-05
3.08859e-05
-1.76302e-05
2.83344e-05
-1.97342e-05
2.55472e-05
-2.24524e-05
2.16849e-05
-2.56913e-05
1.57716e-05
-2.87431e-05
7.18046e-06
-3.12991e-05
-9.42136e-07
-3.46977e-05
-4.03794e-06
-3.92099e-05
-5.17787e-06
-4.43528e-05
-7.95602e-06
-4.93915e-05
-1.32537e-05
-5.35352e-05
-2.04799e-05
-5.65585e-05
-2.80287e-05
-5.91099e-05
-3.4342e-05
-6.12694e-05
-4.05688e-05
-6.26129e-05
-4.7586e-05
-6.30538e-05
-5.48606e-05
-6.27014e-05
-6.23639e-05
-6.13708e-05
-7.11258e-05
-5.86271e-05
-8.2485e-05
-5.36213e-05
-9.82165e-05
-4.48974e-05
-0.000119783
-3.0934e-05
-0.0001447
-1.28463e-05
-0.000157312
-0.000110974
-2.51244e-05
7.768e-05
-1.63473e-05
7.33367e-05
-8.62076e-06
7.07771e-05
-2.85419e-06
6.97314e-05
1.32451e-06
6.7842e-05
4.57267e-06
6.40207e-05
7.36632e-06
5.9197e-05
9.7496e-06
5.49309e-05
1.15565e-05
5.191e-05
1.28533e-05
4.93812e-05
1.37724e-05
4.67102e-05
1.44505e-05
4.35747e-05
1.49294e-05
4.01404e-05
1.51779e-05
3.6765e-05
1.51747e-05
3.37356e-05
1.49679e-05
3.10927e-05
1.44992e-05
2.8803e-05
1.36261e-05
2.64203e-05
1.21104e-05
2.32006e-05
9.39607e-06
1.8486e-05
5.95431e-06
1.06222e-05
1.6286e-06
3.38358e-06
-3.73125e-06
1.3219e-06
-9.39991e-06
4.90808e-07
-1.54298e-05
-1.92614e-06
-2.18536e-05
-6.82995e-06
-2.79643e-05
-1.43692e-05
-3.30246e-05
-2.29683e-05
-3.78573e-05
-2.95093e-05
-4.28383e-05
-3.55877e-05
-4.70645e-05
-4.33598e-05
-5.02576e-05
-5.16675e-05
-5.27836e-05
-5.98378e-05
-5.44465e-05
-6.94629e-05
-5.47989e-05
-8.21326e-05
-5.29216e-05
-0.000100094
-4.69804e-05
-0.000125724
-3.44489e-05
-0.000157231
-1.5225e-05
-0.000176536
-0.000126199
2.1829e-07
6.84813e-05
7.45998e-06
6.6095e-05
1.36673e-05
6.45698e-05
1.92508e-05
6.41479e-05
2.39732e-05
6.31196e-05
2.79899e-05
6.0004e-05
3.12775e-05
5.59094e-05
3.38782e-05
5.23302e-05
3.60047e-05
4.97835e-05
3.80713e-05
4.73147e-05
4.02517e-05
4.45297e-05
4.24663e-05
4.13601e-05
4.44539e-05
3.81527e-05
4.59044e-05
3.53145e-05
4.69228e-05
3.27173e-05
4.7964e-05
3.00515e-05
4.94446e-05
2.73224e-05
5.13564e-05
2.45085e-05
5.30207e-05
2.15363e-05
5.30545e-05
1.84522e-05
4.8288e-05
1.53887e-05
3.89743e-05
1.26972e-05
3.0641e-05
9.65517e-06
2.46888e-05
6.44313e-06
1.95366e-05
3.22599e-06
1.33946e-05
-6.87934e-07
6.07663e-06
-7.05119e-06
-1.22902e-06
-1.56627e-05
-8.89899e-06
-2.18393e-05
-1.74114e-05
-2.70752e-05
-2.5077e-05
-3.56942e-05
-3.13625e-05
-4.53821e-05
-3.72616e-05
-5.39387e-05
-4.24499e-05
-6.42746e-05
-4.66166e-05
-7.79659e-05
-4.89506e-05
-9.77597e-05
-4.73762e-05
-0.000127299
-3.81523e-05
-0.000166455
-1.88471e-05
-0.000195841
-0.000145047
2.3744e-05
6.11365e-05
2.77771e-05
6.20619e-05
3.12479e-05
6.1099e-05
3.49371e-05
6.04587e-05
3.86033e-05
5.94534e-05
4.17694e-05
5.68378e-05
4.42785e-05
5.34003e-05
4.64096e-05
5.01991e-05
4.84403e-05
4.77528e-05
5.04594e-05
4.52956e-05
5.23332e-05
4.26559e-05
5.39312e-05
3.97622e-05
5.51977e-05
3.68862e-05
5.62924e-05
3.42197e-05
5.73399e-05
3.16698e-05
5.82618e-05
2.91297e-05
5.90513e-05
2.65329e-05
5.97078e-05
2.3852e-05
6.01605e-05
2.10836e-05
6.03578e-05
1.8255e-05
6.03291e-05
1.54174e-05
6.04354e-05
1.25909e-05
6.0358e-05
9.7325e-06
5.9978e-05
6.82323e-06
5.93235e-05
3.88043e-06
5.7619e-05
1.01659e-06
5.22636e-05
-1.6958e-06
4.12775e-05
-4.67651e-06
2.73584e-05
-7.9202e-06
1.48507e-05
-1.45676e-05
3.74363e-06
-2.45871e-05
-6.20827e-06
-3.54302e-05
-1.6068e-05
-4.40789e-05
-2.50535e-05
-5.52891e-05
-3.33259e-05
-6.96935e-05
-4.05377e-05
-9.05478e-05
-4.47724e-05
-0.000123064
-4.12071e-05
-0.00017002
-2.3796e-05
-0.000213252
-0.000168842
2.33965e-05
5.51696e-05
2.82479e-05
5.72105e-05
3.2131e-05
5.72159e-05
3.60524e-05
5.65373e-05
4.01376e-05
5.53683e-05
4.36069e-05
5.33685e-05
4.61952e-05
5.0812e-05
4.82395e-05
4.81549e-05
5.02981e-05
4.56941e-05
5.23595e-05
4.32342e-05
5.42967e-05
4.07186e-05
5.5944e-05
3.81149e-05
5.73149e-05
3.55152e-05
5.85289e-05
3.30058e-05
5.96284e-05
3.05702e-05
6.06032e-05
2.81549e-05
6.14283e-05
2.57078e-05
6.20838e-05
2.31965e-05
6.25531e-05
2.06144e-05
6.28312e-05
1.79768e-05
6.29367e-05
1.53119e-05
6.28942e-05
1.26334e-05
6.26915e-05
9.9352e-06
6.23022e-05
7.21251e-06
6.16888e-05
4.49385e-06
6.08932e-05
1.81216e-06
6.00314e-05
-8.33968e-07
5.91114e-05
-3.75644e-06
5.76564e-05
-6.46525e-06
5.23141e-05
-9.22527e-06
3.99028e-05
-1.21757e-05
2.38767e-05
-1.94041e-05
9.84177e-06
-3.0044e-05
-2.88284e-06
-4.25645e-05
-1.50419e-05
-5.75344e-05
-2.70819e-05
-7.85079e-05
-3.78533e-05
-0.000112293
-4.21697e-05
-0.000165704
-2.94199e-05
-0.000226002
-0.000198262
2.66644e-05
5.09768e-05
3.09124e-05
5.29625e-05
3.47313e-05
5.33971e-05
3.83804e-05
5.28882e-05
4.19476e-05
5.1801e-05
4.51214e-05
5.01947e-05
4.77631e-05
4.81703e-05
5.00106e-05
4.59074e-05
5.21157e-05
4.35891e-05
5.41074e-05
4.12425e-05
5.59501e-05
3.8876e-05
5.75797e-05
3.64853e-05
5.8993e-05
3.41019e-05
6.02345e-05
3.17643e-05
6.13318e-05
2.94729e-05
6.22879e-05
2.71988e-05
6.30916e-05
2.49041e-05
6.37282e-05
2.25599e-05
6.41874e-05
2.01552e-05
6.44666e-05
1.76976e-05
6.45744e-05
1.52041e-05
6.4521e-05
1.26868e-05
6.43152e-05
1.01409e-05
6.396e-05
7.56779e-06
6.34673e-05
4.98655e-06
6.28698e-05
2.40965e-06
6.21385e-05
-1.02742e-07
6.12079e-05
-2.82585e-06
6.01299e-05
-5.38723e-06
5.89312e-05
-8.02656e-06
5.74391e-05
-1.06836e-05
5.14054e-05
-1.33704e-05
3.85338e-05
-1.71723e-05
2.24761e-05
-2.65069e-05
7.16454e-06
-4.22228e-05
-8.90315e-06
-6.24402e-05
-2.57383e-05
-9.54575e-05
-3.90958e-05
-0.000152346
-3.40192e-05
-0.000231079
-0.000232282
3.06554e-05
4.76336e-05
3.42905e-05
4.93273e-05
3.77748e-05
4.99128e-05
4.10349e-05
4.9628e-05
4.41125e-05
4.87234e-05
4.69601e-05
4.73471e-05
4.95295e-05
4.5601e-05
5.18315e-05
4.36054e-05
5.3932e-05
4.14885e-05
5.58591e-05
3.93154e-05
5.76164e-05
3.71187e-05
5.91893e-05
3.49124e-05
6.05742e-05
3.2717e-05
6.17855e-05
3.0553e-05
6.28382e-05
2.84202e-05
6.37379e-05
2.62992e-05
6.44791e-05
2.41629e-05
6.5052e-05
2.19869e-05
6.54494e-05
1.97578e-05
6.56718e-05
1.74753e-05
6.57279e-05
1.5148e-05
6.56313e-05
1.27834e-05
6.53915e-05
1.03807e-05
6.50164e-05
7.94292e-06
6.45172e-05
5.48569e-06
6.39044e-05
3.02251e-06
6.3258e-05
5.43672e-07
6.24455e-05
-2.01333e-06
6.15861e-05
-4.52792e-06
6.06074e-05
-7.04777e-06
5.94552e-05
-9.5315e-06
5.81955e-05
-1.21107e-05
5.5864e-05
-1.48408e-05
4.7164e-05
-1.78069e-05
3.10387e-05
-2.60976e-05
1.25376e-05
-4.39391e-05
-8.53045e-06
-7.43894e-05
-3.01155e-05
-0.000130761
-3.50073e-05
-0.000226187
-0.000267289
3.42492e-05
4.46798e-05
3.74645e-05
4.61121e-05
4.06296e-05
4.67477e-05
4.36114e-05
4.66463e-05
4.64096e-05
4.59252e-05
4.90396e-05
4.47171e-05
5.1486e-05
4.31546e-05
5.37288e-05
4.13626e-05
5.57734e-05
3.94439e-05
5.76317e-05
3.74571e-05
5.93116e-05
3.54387e-05
6.08116e-05
3.34123e-05
6.21304e-05
3.13982e-05
6.32742e-05
2.94092e-05
6.42512e-05
2.74432e-05
6.50647e-05
2.54857e-05
6.57113e-05
2.35163e-05
6.61841e-05
2.15141e-05
6.648e-05
1.9462e-05
6.66024e-05
1.73529e-05
6.65624e-05
1.5188e-05
6.63753e-05
1.29705e-05
6.60546e-05
1.07013e-05
6.56128e-05
8.38474e-06
6.50667e-05
6.03181e-06
6.44381e-05
3.65112e-06
6.37484e-05
1.23338e-06
6.29678e-05
-1.23276e-06
6.21424e-05
-3.70252e-06
6.1286e-05
-6.1914e-06
6.0435e-05
-8.6805e-06
5.94896e-05
-1.11653e-05
5.83029e-05
-1.36541e-05
5.68709e-05
-1.63749e-05
5.02715e-05
-1.94982e-05
3.43359e-05
-2.80035e-05
1.20945e-05
-5.2148e-05
-1.44234e-05
-0.000104243
-3.04451e-05
-0.000210165
-0.000297734
3.71975e-05
4.1917e-05
4.01648e-05
4.31448e-05
4.31145e-05
4.37981e-05
4.59244e-05
4.38363e-05
4.85761e-05
4.32735e-05
5.10815e-05
4.22117e-05
5.34311e-05
4.08049e-05
5.56013e-05
3.91924e-05
5.7582e-05
3.74632e-05
5.93753e-05
3.56639e-05
6.09865e-05
3.38275e-05
6.24165e-05
3.19823e-05
6.36642e-05
3.01505e-05
6.47318e-05
2.83416e-05
6.56233e-05
2.65518e-05
6.63399e-05
2.47691e-05
6.68785e-05
2.29777e-05
6.72345e-05
2.1158e-05
6.7408e-05
1.92885e-05
6.74057e-05
1.73552e-05
6.72405e-05
1.53532e-05
6.69294e-05
1.32816e-05
6.64898e-05
1.11409e-05
6.59399e-05
8.93467e-06
6.53014e-05
6.67025e-06
6.45955e-05
4.35702e-06
6.38334e-05
1.99556e-06
6.30153e-05
-4.14741e-07
6.21743e-05
-2.86145e-06
6.13413e-05
-5.35838e-06
6.0555e-05
-7.8942e-06
5.98286e-05
-1.0439e-05
5.91141e-05
-1.29395e-05
5.81423e-05
-1.54031e-05
5.67942e-05
-1.81501e-05
5.06075e-05
-2.18168e-05
3.25723e-05
-3.41128e-05
3.74974e-06
-7.54208e-05
-2.08256e-05
-0.00018559
-0.00031856
3.95896e-05
3.9235e-05
4.24276e-05
4.03068e-05
4.52507e-05
4.0975e-05
4.79582e-05
4.11288e-05
5.05289e-05
4.07028e-05
5.29688e-05
3.97719e-05
5.52637e-05
3.851e-05
5.7385e-05
3.70712e-05
5.93167e-05
3.55315e-05
6.10584e-05
3.39221e-05
6.26149e-05
3.2271e-05
6.39867e-05
3.06106e-05
6.5171e-05
2.89662e-05
6.61667e-05
2.73459e-05
6.69748e-05
2.57436e-05
6.75953e-05
2.41486e-05
6.80245e-05
2.25486e-05
6.82583e-05
2.09242e-05
6.82995e-05
1.92473e-05
6.81572e-05
1.74975e-05
6.78458e-05
1.56645e-05
6.73841e-05
1.37433e-05
6.6794e-05
1.1731e-05
6.60996e-05
9.6291e-06
6.53281e-05
7.4417e-06
6.45019e-05
5.18325e-06
6.36354e-05
2.86211e-06
6.27379e-05
4.82694e-07
6.18318e-05
-1.95532e-06
6.09491e-05
-4.47571e-06
6.01479e-05
-7.09297e-06
5.94837e-05
-9.77471e-06
5.89527e-05
-1.24085e-05
5.84417e-05
-1.48921e-05
5.76322e-05
-1.73406e-05
5.62756e-05
-2.04602e-05
4.83852e-05
-2.62224e-05
2.49107e-05
-5.19464e-05
-4.45155e-06
-0.000156228
-0.000323011
4.15699e-05
3.65489e-05
4.4338e-05
3.75387e-05
4.70865e-05
3.82266e-05
4.97426e-05
3.84727e-05
5.22791e-05
3.81663e-05
5.46939e-05
3.73571e-05
5.69662e-05
3.62377e-05
5.90616e-05
3.49758e-05
6.0963e-05
3.36301e-05
6.26709e-05
3.22142e-05
6.41898e-05
3.07522e-05
6.55184e-05
2.9282e-05
6.66513e-05
2.78333e-05
6.75846e-05
2.64126e-05
6.83173e-05
2.50109e-05
6.88481e-05
2.36177e-05
6.91716e-05
2.22251e-05
6.92828e-05
2.08129e-05
6.9186e-05
1.93442e-05
6.88918e-05
1.77917e-05
6.84155e-05
1.61408e-05
6.7778e-05
1.43808e-05
6.70061e-05
1.25029e-05
6.61321e-05
1.05032e-05
6.51906e-05
8.38317e-06
6.42082e-05
6.16567e-06
6.32043e-05
3.86601e-06
6.21905e-05
1.49651e-06
6.11812e-05
-9.4604e-07
6.0206e-05
-3.50058e-06
5.93261e-05
-6.21302e-06
5.86204e-05
-9.069e-06
5.81401e-05
-1.19283e-05
5.7832e-05
-1.4584e-05
5.74995e-05
-1.70081e-05
5.68099e-05
-1.97705e-05
5.52091e-05
-2.46216e-05
3.96279e-05
-3.63652e-05
4.86724e-06
-0.000121467
-0.000318144
4.32671e-05
3.39137e-05
4.59064e-05
3.48994e-05
4.86012e-05
3.55317e-05
5.12828e-05
3.57911e-05
5.3862e-05
3.55871e-05
5.62946e-05
3.49245e-05
5.85589e-05
3.39734e-05
6.06393e-05
3.28954e-05
6.2529e-05
3.17404e-05
6.42259e-05
3.05173e-05
6.5727e-05
2.9251e-05
6.7028e-05
2.7981e-05
6.81226e-05
2.67387e-05
6.90057e-05
2.55296e-05
6.96739e-05
2.43426e-05
7.01241e-05
2.31675e-05
7.03482e-05
2.20009e-05
7.03362e-05
2.0825e-05
7.00966e-05
1.95838e-05
6.96375e-05
1.82508e-05
6.89726e-05
1.68057e-05
6.81284e-05
1.5225e-05
6.71403e-05
1.34909e-05
6.60505e-05
1.1593e-05
6.49011e-05
9.53264e-06
6.37244e-05
7.34233e-06
6.25486e-05
5.04176e-06
6.1386e-05
2.65919e-06
6.02416e-05
1.98285e-07
5.91368e-05
-2.39575e-06
5.81313e-05
-5.20749e-06
5.73191e-05
-8.2568e-06
5.67812e-05
-1.13904e-05
5.6515e-05
-1.43178e-05
5.63815e-05
-1.68746e-05
5.60407e-05
-1.94297e-05
5.49512e-05
-2.35322e-05
5.17325e-05
-3.31464e-05
2.19798e-05
-9.17143e-05
-0.000296164
4.42839e-05
3.11669e-05
4.69245e-05
3.22588e-05
4.96979e-05
3.27582e-05
5.25809e-05
3.29081e-05
5.53583e-05
3.28097e-05
5.78562e-05
3.24266e-05
6.00838e-05
3.17458e-05
6.2132e-05
3.08472e-05
6.40268e-05
2.98456e-05
6.57417e-05
2.88024e-05
6.72458e-05
2.77469e-05
6.85294e-05
2.66975e-05
6.95952e-05
2.56728e-05
7.04413e-05
2.46835e-05
7.1059e-05
2.3725e-05
7.14417e-05
2.27849e-05
7.15814e-05
2.18612e-05
7.14611e-05
2.09453e-05
7.10799e-05
1.9965e-05
7.04401e-05
1.88906e-05
6.95436e-05
1.77022e-05
6.84316e-05
1.6337e-05
6.71952e-05
1.47273e-05
6.58453e-05
1.29429e-05
6.44445e-05
1.09335e-05
6.30343e-05
8.75254e-06
6.1653e-05
6.423e-06
6.03109e-05
4.00132e-06
5.90024e-05
1.50677e-06
5.77358e-05
-1.12909e-06
5.65658e-05
-4.0375e-06
5.55976e-05
-7.28861e-06
5.49341e-05
-1.07269e-05
5.4595e-05
-1.39787e-05
5.44907e-05
-1.67703e-05
5.44095e-05
-1.93485e-05
5.4058e-05
-2.31807e-05
5.41123e-05
-3.32007e-05
3.62989e-05
-7.39009e-05
-0.000259865
4.42096e-05
2.81434e-05
4.70929e-05
2.93755e-05
5.01168e-05
2.97343e-05
5.33526e-05
2.96723e-05
5.64994e-05
2.96629e-05
5.91468e-05
2.97792e-05
6.13653e-05
2.95273e-05
6.34137e-05
2.87988e-05
6.53473e-05
2.79119e-05
6.71038e-05
2.70459e-05
6.86227e-05
2.62279e-05
6.98954e-05
2.54248e-05
7.09423e-05
2.46259e-05
7.17673e-05
2.38585e-05
7.23545e-05
2.31377e-05
7.2693e-05
2.24464e-05
7.27806e-05
2.17736e-05
7.25851e-05
2.11408e-05
7.20619e-05
2.04881e-05
7.12231e-05
1.97294e-05
7.00639e-05
1.88614e-05
6.86885e-05
1.77124e-05
6.72048e-05
1.6211e-05
6.54907e-05
1.4657e-05
6.37482e-05
1.2676e-05
6.20638e-05
1.04369e-05
6.04546e-05
8.03226e-06
5.89175e-05
5.5384e-06
5.74248e-05
2.99953e-06
5.59715e-05
3.24184e-07
5.46069e-05
-2.67292e-06
5.34467e-05
-6.12837e-06
5.26119e-05
-9.89214e-06
5.21324e-05
-1.34992e-05
5.19324e-05
-1.65704e-05
5.1881e-05
-1.9297e-05
5.16764e-05
-2.29761e-05
5.09083e-05
-3.24327e-05
4.31785e-05
-6.61711e-05
-0.000216687
3.94443e-05
2.51504e-05
4.25087e-05
2.63111e-05
4.56343e-05
2.66088e-05
4.91477e-05
2.6159e-05
5.3335e-05
2.54756e-05
5.73213e-05
2.57929e-05
6.05216e-05
2.6327e-05
6.29895e-05
2.63309e-05
6.50915e-05
2.581e-05
6.7029e-05
2.51084e-05