/*--------------------------------*- C++ -*----------------------------------*\
| =========                 |                                                 |
| \\      /  F ield         | OpenFOAM: The Open Source CFD Toolbox           |
|  \\    /   O peration     | Version:  5.0                                   |
|   \\  /    A nd           | Web:      www.OpenFOAM.org                      |
|    \\/     M anipulation  |                                                 |
\*---------------------------------------------------------------------------*/
FoamFile
{
    version     2.0;
    format      ascii;
    class       volVectorField;
    location    "0.55";
    object      U;
}
// * * * * * * * * * * * * * * * * * * * * * * * * * * * * * * * * * * * * * //

dimensions      [0 1 -1 0 0 0 0];

internalField   nonuniform List<vector> 
1915
(
(-0.153174 -0.0489417 0)
(-0.0616676 -0.0528646 0)
(-0.104411 -0.0712291 0)
(-0.051818 -0.127643 0)
(-0.0397579 -0.0662643 0)
(-0.0191681 -0.172238 0)
(0.0134586 -0.0496461 0)
(0.0105501 -0.176282 0)
(0.0502451 -0.0284022 0)
(0.0306334 -0.155043 0)
(0.0743133 -1.67346e-05 0)
(0.0423684 -0.12096 0)
(0.0909403 0.0331562 0)
(0.050005 -0.0760736 0)
(0.104531 0.0698538 0)
(0.0571433 -0.0231858 0)
(0.119136 0.108299 0)
(0.067004 0.0335741 0)
(0.135349 0.147192 0)
(0.0828469 0.11166 0)
(0.0173095 -0.0162299 0)
(-0.0195691 0.029557 0)
(-0.122052 0.0368977 0)
(-0.232268 0.0415881 0)
(-0.34654 0.0472414 0)
(-0.467094 0.0490524 0)
(-0.58653 0.0485738 0)
(-0.702186 0.046983 0)
(-0.812459 0.0448428 0)
(-0.916526 0.0425241 0)
(-1.01403 0.0400881 0)
(-1.10457 0.0373376 0)
(-1.18745 0.0340554 0)
(-1.26179 0.0301944 0)
(-1.3268 0.0258948 0)
(-1.38194 0.0213466 0)
(-1.42688 0.0166542 0)
(-1.46125 0.011865 0)
(-1.48457 0.00707944 0)
(-1.49646 0.00246903 0)
(-1.49689 -0.00160259 0)
(-1.48868 -0.00484822 0)
(-1.47273 -0.00759724 0)
(-1.44989 -0.00998839 0)
(-1.42074 -0.0121876 0)
(-1.38551 -0.0144227 0)
(-1.34404 -0.0169532 0)
(-1.29585 -0.0199812 0)
(-1.24026 -0.0235685 0)
(-1.17658 -0.0276409 0)
(-1.10418 -0.0321138 0)
(-1.02246 -0.0370347 0)
(-0.930619 -0.0425742 0)
(-0.827682 -0.0488472 0)
(-0.712758 -0.0557739 0)
(-0.585246 -0.0630624 0)
(-0.444399 -0.069769 0)
(-0.289349 -0.073234 0)
(-0.139165 -0.0639349 0)
(-0.0400656 -0.0292117 0)
(-0.0474278 0.0184066 0)
(-0.156047 0.0991126 0)
(-0.319329 0.126933 0)
(-0.479278 0.134638 0)
(-0.624081 0.1368 0)
(-0.756282 0.133772 0)
(-0.875133 0.127575 0)
(-0.981931 0.119955 0)
(-1.07776 0.11179 0)
(-1.16349 0.103469 0)
(-1.23962 0.0949971 0)
(-1.30628 0.0861844 0)
(-1.36357 0.0768926 0)
(-1.41183 0.0671628 0)
(-1.45163 0.0571629 0)
(-1.48363 0.0470261 0)
(-1.50831 0.0367438 0)
(-1.52589 0.0262356 0)
(-1.53651 0.0155207 0)
(-1.54038 0.00486286 0)
(-1.53779 -0.00517286 0)
(-1.52713 -0.0142468 0)
(-1.50867 -0.0224406 0)
(-1.48287 -0.0299455 0)
(-1.45013 -0.0370565 0)
(-1.41066 -0.0441021 0)
(-1.36453 -0.0513882 0)
(-1.31167 -0.0591387 0)
(-1.25194 -0.0674631 0)
(-1.18508 -0.0763902 0)
(-1.1107 -0.0859501 0)
(-1.02834 -0.0962203 0)
(-0.937471 -0.10728 0)
(-0.837434 -0.119146 0)
(-0.727468 -0.131775 0)
(-0.606699 -0.144981 0)
(-0.473957 -0.157612 0)
(-0.328263 -0.164556 0)
(-0.175837 -0.150468 0)
(-0.0509803 -0.087481 0)
(-0.0887425 0.120433 0)
(-0.223642 0.21151 0)
(-0.383798 0.240528 0)
(-0.534684 0.239735 0)
(-0.66532 0.230111 0)
(-0.780739 0.216718 0)
(-0.883898 0.201834 0)
(-0.977418 0.186767 0)
(-1.06283 0.171981 0)
(-1.14103 0.157484 0)
(-1.21238 0.14301 0)
(-1.27695 0.128276 0)
(-1.33473 0.113213 0)
(-1.38571 0.0979812 0)
(-1.42994 0.0828015 0)
(-1.46747 0.067741 0)
(-1.49818 0.0526501 0)
(-1.52168 0.0372926 0)
(-1.53731 0.0215656 0)
(-1.5444 0.00568816 0)
(-1.54258 -0.00984525 0)
(-1.53198 -0.0245303 0)
(-1.51329 -0.0380213 0)
(-1.48717 -0.0504655 0)
(-1.45405 -0.0622763 0)
(-1.41417 -0.0739126 0)
(-1.36761 -0.0857678 0)
(-1.31439 -0.0981207 0)
(-1.25448 -0.111128 0)
(-1.18779 -0.124871 0)
(-1.11414 -0.139434 0)
(-1.03328 -0.154962 0)
(-0.944839 -0.17165 0)
(-0.848219 -0.189695 0)
(-0.742496 -0.209284 0)
(-0.626291 -0.230475 0)
(-0.497447 -0.252433 0)
(-0.353222 -0.270298 0)
(-0.196473 -0.264498 0)
(-0.0576453 -0.170014 0)
(-0.104449 0.235445 0)
(-0.244797 0.324663 0)
(-0.391315 0.347081 0)
(-0.52764 0.335812 0)
(-0.646738 0.314853 0)
(-0.754399 0.292336 0)
(-0.853255 0.270479 0)
(-0.945038 0.249787 0)
(-1.03057 0.230139 0)
(-1.11026 0.211152 0)
(-1.18419 0.192294 0)
(-1.25219 0.17312 0)
(-1.31387 0.153482 0)
(-1.36888 0.133541 0)
(-1.41696 0.113542 0)
(-1.45804 0.09353 0)
(-1.49198 0.0732444 0)
(-1.51835 0.0522907 0)
(-1.53638 0.0304835 0)
(-1.54518 0.00813789 0)
(-1.54432 -0.0139118 0)
(-1.53419 -0.0346893 0)
(-1.5157 -0.0537135 0)
(-1.48977 -0.071231 0)
(-1.45693 -0.0878564 0)
(-1.41741 -0.104202 0)
(-1.37127 -0.12074 0)
(-1.31852 -0.137777 0)
(-1.25917 -0.155494 0)
(-1.19321 -0.174004 0)
(-1.1206 -0.19344 0)
(-1.04123 -0.214028 0)
(-0.954806 -0.236126 0)
(-0.860667 -0.260219 0)
(-0.757587 -0.286925 0)
(-0.643556 -0.316841 0)
(-0.515487 -0.349592 0)
(-0.369675 -0.379588 0)
(-0.20869 -0.380387 0)
(-0.0622172 -0.255361 0)
(-0.109426 0.354598 0)
(-0.248115 0.432301 0)
(-0.383783 0.443978 0)
(-0.510362 0.423377 0)
(-0.62349 0.394243 0)
(-0.728469 0.365385 0)
(-0.826686 0.338513 0)
(-0.918899 0.313456 0)
(-1.00542 0.289751 0)
(-1.08649 0.266813 0)
(-1.16215 0.243927 0)
(-1.23217 0.220472 0)
(-1.29601 0.196216 0)
(-1.35313 0.171379 0)
(-1.40328 0.146349 0)
(-1.44653 0.121243 0)
(-1.4829 0.0956816 0)
(-1.51199 0.0690158 0)
(-1.53274 0.0408594 0)
(-1.54386 0.0115916 0)
(-1.54456 -0.0175051 0)
(-1.53527 -0.0448314 0)
(-1.51734 -0.0695961 0)
(-1.49206 -0.092224 0)
(-1.46009 -0.113668 0)
(-1.42158 -0.13476 0)
(-1.37651 -0.156047 0)
(-1.32483 -0.177836 0)
(-1.26655 -0.200289 0)
(-1.20169 -0.223526 0)
(-1.13031 -0.247711 0)
(-1.05236 -0.273163 0)
(-0.967578 -0.300462 0)
(-0.875192 -0.330493 0)
(-0.773617 -0.364442 0)
(-0.660195 -0.40358 0)
(-0.531013 -0.448019 0)
(-0.381868 -0.49133 0)
(-0.21606 -0.500304 0)
(-0.0640564 -0.347224 0)
(-0.112158 0.476237 0)
(-0.248422 0.53579 0)
(-0.376164 0.534953 0)
(-0.495789 0.506234 0)
(-0.604461 0.471225 0)
(-0.706997 0.437667 0)
(-0.803752 0.406591 0)
(-0.894844 0.377488 0)
(-0.980385 0.349871 0)
(-1.0607 0.323127 0)
(-1.136 0.296379 0)
(-1.20606 0.268771 0)
(-1.27029 0.239957 0)
(-1.32807 0.210271 0)
(-1.37925 0.180355 0)
(-1.42414 0.150451 0)
(-1.46305 0.119984 0)
(-1.49556 0.0878656 0)
(-1.52019 0.0533204 0)
(-1.53487 0.0167195 0)
(-1.53813 -0.020047 0)
(-1.53042 -0.0543736 0)
(-1.5138 -0.0849264 0)
(-1.49018 -0.112463 0)
(-1.46027 -0.138524 0)
(-1.42397 -0.164261 0)
(-1.38109 -0.190284 0)
(-1.33148 -0.216842 0)
(-1.27513 -0.244037 0)
(-1.2121 -0.271977 0)
(-1.14245 -0.300846 0)
(-1.0662 -0.331064 0)
(-0.983098 -0.3635 0)
(-0.892252 -0.399571 0)
(-0.791704 -0.441237 0)
(-0.678086 -0.490625 0)
(-0.546582 -0.548319 0)
(-0.392525 -0.606491 0)
(-0.220478 -0.623853 0)
(-0.0636694 -0.441284 0)
(-0.1176 0.59958 0)
(-0.252133 0.636004 0)
(-0.372073 0.621474 0)
(-0.484565 0.585129 0)
(-0.58751 0.545472 0)
(-0.685572 0.508003 0)
(-0.778218 0.472978 0)
(-0.865153 0.439859 0)
(-0.94652 0.408407 0)
(-1.02292 0.378095 0)
(-1.09482 0.347837 0)
(-1.16213 0.316444 0)
(-1.22424 0.283405 0)
(-1.28056 0.249231 0)
(-1.33114 0.214955 0)
(-1.37673 0.181014 0)
(-1.41803 0.14651 0)
(-1.45468 0.109616 0)
(-1.48467 0.0688686 0)
(-1.50474 0.0244985 0)
(-1.51227 -0.0207636 0)
(-1.50762 -0.062657 0)
(-1.49404 -0.0988973 0)
(-1.47436 -0.130914 0)
(-1.44909 -0.161291 0)
(-1.41753 -0.191616 0)
(-1.37909 -0.222478 0)
(-1.33353 -0.253954 0)
(-1.28088 -0.286017 0)
(-1.22121 -0.31878 0)
(-1.15459 -0.352449 0)
(-1.08106 -0.387531 0)
(-1.0004 -0.425231 0)
(-0.911642 -0.467641 0)
(-0.812446 -0.51773 0)
(-0.698662 -0.578707 0)
(-0.564381 -0.651586 0)
(-0.404303 -0.726307 0)
(-0.224413 -0.751602 0)
(-0.062269 -0.536322 0)
(-0.126124 0.730101 0)
(-0.263009 0.732211 0)
(-0.371528 0.702461 0)
(-0.474206 0.65857 0)
(-0.568142 0.615065 0)
(-0.658024 0.574081 0)
(-0.742231 0.535066 0)
(-0.820252 0.497799 0)
(-0.89257 0.462584 0)
(-0.960268 0.429033 0)
(-1.02413 0.395769 0)
(-1.08425 0.361162 0)
(-1.14016 0.324511 0)
(-1.19148 0.286597 0)
(-1.23862 0.248995 0)
(-1.28285 0.21241 0)
(-1.32539 0.175465 0)
(-1.36609 0.135191 0)
(-1.40255 0.0889575 0)
(-1.43013 0.0365847 0)
(-1.44433 -0.0180919 0)
(-1.44517 -0.0681079 0)
(-1.43775 -0.109517 0)
(-1.42635 -0.145146 0)
(-1.41071 -0.179458 0)
(-1.38871 -0.214533 0)
(-1.35895 -0.250663 0)
(-1.32111 -0.287485 0)
(-1.27544 -0.324734 0)
(-1.22214 -0.362619 0)
(-1.16123 -0.401421 0)
(-1.09275 -0.441681 0)
(-1.01653 -0.484957 0)
(-0.931573 -0.53416 0)
(-0.835224 -0.593535 0)
(-0.72249 -0.667689 0)
(-0.586111 -0.758111 0)
(-0.419676 -0.851608 0)
(-0.230247 -0.884566 0)
(-0.0610724 -0.632351 0)
(-0.155307 0.869441 0)
(-0.287574 0.820466 0)
(-0.373921 0.774331 0)
(-0.460949 0.72341 0)
(-0.540055 0.676856 0)
(-0.615614 0.632376 0)
(-0.684513 0.588908 0)
(-0.746545 0.547175 0)
(-0.80312 0.50833 0)
(-0.856007 0.472018 0)
(-0.9062 0.43641 0)
(-0.953892 0.399397 0)
(-0.998907 0.360143 0)
(-1.04127 0.319763 0)
(-1.08174 0.280422 0)
(-1.12187 0.243132 0)
(-1.16322 0.205991 0)
(-1.20609 0.164608 0)
(-1.24838 0.114627 0)
(-1.28453 0.0548564 0)
(-1.3075 -0.00978463 0)
(-1.31619 -0.0681498 0)
(-1.31849 -0.113272 0)
(-1.32101 -0.150696 0)
(-1.32216 -0.188317 0)
(-1.31696 -0.228683 0)
(-1.30246 -0.271117 0)
(-1.2781 -0.314229 0)
(-1.2447 -0.357274 0)
(-1.20281 -0.40083 0)
(-1.15229 -0.445389 0)
(-1.09311 -0.491431 0)
(-1.0252 -0.540838 0)
(-0.947591 -0.597482 0)
(-0.857362 -0.667185 0)
(-0.748661 -0.756385 0)
(-0.612536 -0.867326 0)
(-0.440555 -0.982915 0)
(-0.239878 -1.02436 0)
(-0.0608493 -0.730535 0)
(-0.17199 1.03508 0)
(-0.332074 0.893082 0)
(-0.375964 0.830989 0)
(-0.437813 0.774485 0)
(-0.492513 0.725659 0)
(-0.54439 0.677248 0)
(-0.588809 0.628658 0)
(-0.62675 0.58247 0)
(-0.661102 0.540772 0)
(-0.694212 0.502765 0)
(-0.726814 0.465898 0)
(-0.758806 0.427661 0)
(-0.790146 0.38727 0)
(-0.821234 0.346163 0)
(-0.852991 0.306932 0)
(-0.886773 0.27085 0)
(-0.923986 0.23571 0)
(-0.965484 0.19589 0)
(-1.01044 0.145004 0)
(-1.05383 0.0798791 0)
(-1.08584 0.00557054 0)
(-1.10306 -0.0609608 0)
(-1.11671 -0.107003 0)
(-1.13698 -0.142703 0)
(-1.16111 -0.182031 0)
(-1.18009 -0.22819 0)
(-1.18814 -0.278499 0)
(-1.184 -0.329416 0)
(-1.16951 -0.379113 0)
(-1.14588 -0.429086 0)
(-1.11253 -0.480367 0)
(-1.06911 -0.533118 0)
(-1.01569 -0.589475 0)
(-0.951387 -0.654447 0)
(-0.87301 -0.735737 0)
(-0.773837 -0.842181 0)
(-0.642813 -0.977455 0)
(-0.468052 -1.12022 0)
(-0.254955 -1.17314 0)
(-0.0619642 -0.832751 0)
(0.153035 0.179607 0)
(0.12224 0.162302 0)
(0.162359 0.207029 0)
(0.122815 0.192941 0)
(0.173577 0.236559 0)
(0.130844 0.23534 0)
(0.191261 0.265386 0)
(0.152856 0.277442 0)
(0.214756 0.289057 0)
(0.185943 0.309904 0)
(0.241648 0.305379 0)
(0.224078 0.331276 0)
(0.268959 0.313902 0)
(0.262019 0.341887 0)
(0.294187 0.315183 0)
(0.296213 0.34339 0)
(0.315857 0.309838 0)
(0.324948 0.337532 0)
(0.333424 0.298845 0)
(0.347935 0.325302 0)
(0.364893 0.311419 0)
(0.376412 0.300886 0)
(0.372273 0.288039 0)
(0.369831 0.223636 0)
(0.351456 0.205664 0)
(0.347322 0.206724 0)
(0.347946 0.196752 0)
(0.349076 0.188337 0)
(0.350585 0.183202 0)
(0.352 0.17976 0)
(0.352271 0.176952 0)
(0.350315 0.174213 0)
(0.345251 0.171169 0)
(0.336501 0.167607 0)
(0.323827 0.163466 0)
(0.307302 0.158813 0)
(0.287263 0.153803 0)
(0.264229 0.148654 0)
(0.238831 0.143618 0)
(0.211741 0.138967 0)
(0.183628 0.134971 0)
(0.155119 0.131896 0)
(0.126786 0.129989 0)
(0.0550479 0.0863984 0)
(-0.0412453 -0.00392863 0)
(-0.0540305 -0.0747662 0)
(-0.269622 0.450584 0)
(0.0387478 0.157988 0)
(0.00417316 0.128231 0)
(-0.49312 0.0468122 0)
(-0.578864 0.472142 0)
(0.0535624 0.239131 0)
(0.0411517 0.266802 0)
(-0.418513 0.442949 0)
(-0.590708 0.536111 0)
(0.0931736 0.297996 0)
(0.0528583 0.352945 0)
(0.032824 0.438783 0)
(-0.144683 0.711745 0)
(0.145624 0.337639 0)
(0.107191 0.391324 0)
(0.0959831 0.454823 0)
(0.143751 0.533361 0)
(0.202164 0.362431 0)
(0.180945 0.405915 0)
(0.176522 0.46352 0)
(0.198917 0.525843 0)
(0.254562 0.373376 0)
(0.249716 0.409946 0)
(0.254393 0.453674 0)
(0.276296 0.500837 0)
(0.299326 0.373439 0)
(0.305544 0.4052 0)
(0.318352 0.438948 0)
(0.34148 0.472898 0)
(0.335635 0.365679 0)
(0.349071 0.393803 0)
(0.367204 0.421778 0)
(0.391775 0.447902 0)
(0.363966 0.35171 0)
(0.382227 0.377247 0)
(0.403775 0.401729 0)
(0.429322 0.423557 0)
(0.385262 0.333863 0)
(0.407062 0.356394 0)
(0.430922 0.378384 0)
(0.457225 0.397658 0)
(0.400426 0.320557 0)
(0.424155 0.339357 0)
(0.449887 0.357364 0)
(0.477803 0.372668 0)
(0.402319 0.306267 0)
(0.430554 0.324294 0)
(0.462043 0.341605 0)
(0.494523 0.355064 0)
(0.38978 0.281255 0)
(0.417276 0.306627 0)
(0.456617 0.326647 0)
(0.498875 0.339212 0)
(0.376131 0.213604 0)
(0.410883 0.21385 0)
(0.452802 0.218668 0)
(0.490526 0.279946 0)
(0.364976 0.216615 0)
(0.385902 0.217921 0)
(0.404646 0.215371 0)
(0.428138 0.220719 0)
(0.359339 0.205587 0)
(0.371224 0.210242 0)
(0.381046 0.215037 0)
(0.394031 0.227112 0)
(0.356309 0.195499 0)
(0.363313 0.200954 0)
(0.36912 0.207327 0)
(0.376205 0.217897 0)
(0.355159 0.190018 0)
(0.359133 0.195912 0)
(0.362263 0.202261 0)
(0.365677 0.21048 0)
(0.355088 0.187021 0)
(0.357299 0.193652 0)
(0.358652 0.200407 0)
(0.35971 0.207869 0)
(0.354756 0.185017 0)
(0.356165 0.192566 0)
(0.356584 0.200099 0)
(0.35628 0.207849 0)
(0.352793 0.183292 0)
(0.354043 0.191904 0)
(0.354155 0.200443 0)
(0.353229 0.208997 0)
(0.348074 0.181404 0)
(0.349548 0.191214 0)
(0.349755 0.200956 0)
(0.348695 0.210653 0)
(0.339822 0.179095 0)
(0.341702 0.190217 0)
(0.342208 0.201329 0)
(0.341279 0.212417 0)
(0.327642 0.176278 0)
(0.329947 0.188803 0)
(0.330794 0.201416 0)
(0.330078 0.214082 0)
(0.311497 0.173001 0)
(0.314125 0.187006 0)
(0.315222 0.201229 0)
(0.314652 0.215621 0)
(0.291644 0.169417 0)
(0.294406 0.184973 0)
(0.295567 0.200906 0)
(0.294964 0.217155 0)
(0.268554 0.16575 0)
(0.271207 0.182934 0)
(0.272182 0.200681 0)
(0.271289 0.218915 0)
(0.242835 0.162269 0)
(0.245107 0.181174 0)
(0.245604 0.20085 0)
(0.244117 0.221212 0)
(0.215157 0.159268 0)
(0.216762 0.180009 0)
(0.216474 0.201755 0)
(0.214061 0.224407 0)
(0.186194 0.157045 0)
(0.186852 0.179768 0)
(0.18547 0.203755 0)
(0.181794 0.228892 0)
(0.156593 0.155899 0)
(0.156039 0.180783 0)
(0.153268 0.207216 0)
(0.148 0.235071 0)
(0.126956 0.156111 0)
(0.124953 0.183373 0)
(0.120524 0.212499 0)
(0.113363 0.243345 0)
(-0.419822 1.14266 0)
(-0.404674 0.926559 0)
(-0.372603 0.859627 0)
(-0.38939 0.802902 0)
(-0.405768 0.753562 0)
(-0.423451 0.701505 0)
(-0.435661 0.648215 0)
(-0.444355 0.598979 0)
(-0.45349 0.556623 0)
(-0.465419 0.519089 0)
(-0.480044 0.48276 0)
(-0.496396 0.444869 0)
(-0.514076 0.404968 0)
(-0.533533 0.364869 0)
(-0.555657 0.327369 0)
(-0.581351 0.293851 0)
(-0.611524 0.262181 0)
(-0.647365 0.226195 0)
(-0.689946 0.17776 0)
(-0.736758 0.11065 0)
(-0.776243 0.0274876 0)
(-0.801595 -0.0469545 0)
(-0.827118 -0.0901014 0)
(-0.865586 -0.118719 0)
(-0.9145 -0.156423 0)
(-0.961443 -0.207859 0)
(-0.997138 -0.267499 0)
(-1.01844 -0.328014 0)
(-1.02882 -0.384998 0)
(-1.03081 -0.441798 0)
(-1.02269 -0.500959 0)
(-1.00306 -0.561631 0)
(-0.972391 -0.625919 0)
(-0.929936 -0.700319 0)
(-0.8721 -0.794718 0)
(-0.791252 -0.921045 0)
(-0.673805 -1.08568 0)
(-0.502461 -1.26355 0)
(-0.277648 -1.33485 0)
(-0.0651902 -0.942599 0)
(-0.537398 1.04899 0)
(-0.409899 0.890563 0)
(-0.324218 0.838695 0)
(-0.2817 0.794717 0)
(-0.250872 0.751261 0)
(-0.230351 0.699347 0)
(-0.210316 0.644376 0)
(-0.191739 0.595253 0)
(-0.17823 0.555749 0)
(-0.171385 0.521791 0)
(-0.170284 0.488468 0)
(-0.172917 0.452807 0)
(-0.178167 0.414828 0)
(-0.186111 0.376894 0)
(-0.197517 0.341988 0)
(-0.212874 0.311532 0)
(-0.232645 0.283892 0)
(-0.258041 0.253249 0)
(-0.291643 0.210492 0)
(-0.335249 0.145674 0)
(-0.378038 0.0541814 0)
(-0.412957 -0.0274024 0)
(-0.455029 -0.0634844 0)
(-0.511097 -0.0793616 0)
(-0.58102 -0.110959 0)
(-0.65339 -0.165466 0)
(-0.717356 -0.235157 0)
(-0.766173 -0.307261 0)
(-0.804993 -0.370715 0)
(-0.838242 -0.432674 0)
(-0.863206 -0.500207 0)
(-0.875419 -0.570092 0)
(-0.876265 -0.642955 0)
(-0.865678 -0.727651 0)
(-0.839477 -0.836519 0)
(-0.789148 -0.985385 0)
(-0.698336 -1.18537 0)
(-0.542085 -1.40971 0)
(-0.310789 -1.51246 0)
(-0.0731746 -1.06482 0)
(-0.454924 0.874847 0)
(-0.269081 0.809294 0)
(-0.162108 0.77504 0)
(-0.074746 0.752081 0)
(-0.00747291 0.722638 0)
(0.0419259 0.678176 0)
(0.084383 0.627119 0)
(0.120539 0.581636 0)
(0.148424 0.547653 0)
(0.168913 0.519188 0)
(0.183497 0.490468 0)
(0.194701 0.458388 0)
(0.20317 0.423218 0)
(0.208464 0.38759 0)
(0.209852 0.354642 0)
(0.207967 0.325982 0)
(0.203035 0.301136 0)
(0.194342 0.275679 0)
(0.178702 0.240516 0)
(0.149212 0.182826 0)
(0.113857 0.0832581 0)
(0.0597863 0.000212057 0)
(-0.0167057 -0.024887 0)
(-0.0904726 -0.0277218 0)
(-0.171262 -0.0510571 0)
(-0.257288 -0.105357 0)
(-0.34338 -0.185824 0)
(-0.418841 -0.27108 0)
(-0.489128 -0.335197 0)
(-0.556805 -0.396985 0)
(-0.621516 -0.472709 0)
(-0.672385 -0.552593 0)
(-0.711484 -0.633082 0)
(-0.741474 -0.727674 0)
(-0.757655 -0.851144 0)
(-0.751361 -1.02387 0)
(-0.704037 -1.26452 0)
(-0.581347 -1.54925 0)
(-0.356847 -1.70488 0)
(-0.0917246 -1.20601 0)
(-0.0983861 0.813662 0)
(0.0727904 0.767254 0)
(0.150012 0.739352 0)
(0.224329 0.739606 0)
(0.295932 0.72598 0)
(0.355888 0.682103 0)
(0.406996 0.623726 0)
(0.447607 0.576497 0)
(0.47746 0.548843 0)
(0.504691 0.52355 0)
(0.532575 0.492059 0)
(0.563499 0.452749 0)
(0.593857 0.412586 0)
(0.618964 0.377676 0)
(0.634142 0.348396 0)
(0.646431 0.320067 0)
(0.660572 0.29207 0)
(0.68475 0.262115 0)
(0.713695 0.227601 0)
(0.728994 0.190548 0)
(0.728572 0.150023 0)
(0.595192 0.102419 0)
(0.456265 0.0688238 0)
(0.371006 0.0430037 0)
(0.300604 0.0113094 0)
(0.226212 -0.0392961 0)
(0.138894 -0.126821 0)
(0.0428607 -0.221134 0)
(-0.0748275 -0.271451 0)
(-0.180933 -0.331797 0)
(-0.291303 -0.417412 0)
(-0.387901 -0.506218 0)
(-0.469774 -0.591138 0)
(-0.546299 -0.693372 0)
(-0.612059 -0.829275 0)
(-0.660799 -1.02407 0)
(-0.674447 -1.30744 0)
(-0.609698 -1.66639 0)
(-0.415863 -1.90559 0)
(-0.129062 -1.3769 0)
(0.280886 0.603625 0)
(0.352897 0.613084 0)
(0.398287 0.606947 0)
(0.445637 0.603838 0)
(0.497537 0.599575 0)
(0.54561 0.572509 0)
(0.583351 0.535864 0)
(0.613235 0.503112 0)
(0.640529 0.478053 0)
(0.668273 0.452876 0)
(0.695101 0.426464 0)
(0.718892 0.398046 0)
(0.738382 0.370055 0)
(0.753054 0.34458 0)
(0.767852 0.319267 0)
(0.781492 0.293773 0)
(0.792825 0.26796 0)
(0.802639 0.241471 0)
(0.810442 0.214096 0)
(0.814733 0.185789 0)
(0.816188 0.156689 0)
(0.814884 0.12836 0)
(0.8173 0.100551 0)
(0.813695 0.0716531 0)
(0.806915 0.0423521 0)
(0.79521 0.0128354 0)
(0.759948 -0.0205212 0)
(0.666077 -0.0724729 0)
(0.438876 -0.13723 0)
(0.281435 -0.227451 0)
(0.131641 -0.33296 0)
(-0.0226163 -0.426354 0)
(-0.152446 -0.512881 0)
(-0.280085 -0.621084 0)
(-0.397432 -0.765409 0)
(-0.505399 -0.975911 0)
(-0.592356 -1.29701 0)
(-0.610939 -1.73828 0)
(-0.481912 -2.09891 0)
(-0.190533 -1.59204 0)
(0.272231 0.578974 0)
(0.349817 0.60065 0)
(0.405443 0.597275 0)
(0.45569 0.586719 0)
(0.510722 0.572435 0)
(0.563325 0.551783 0)
(0.603169 0.526291 0)
(0.632741 0.499243 0)
(0.659352 0.473747 0)
(0.687261 0.448373 0)
(0.714569 0.422659 0)
(0.738761 0.396221 0)
(0.7587 0.36967 0)
(0.775752 0.343781 0)
(0.791196 0.318557 0)
(0.805149 0.293521 0)
(0.817255 0.268164 0)
(0.827207 0.242153 0)
(0.834795 0.215409 0)
(0.839786 0.188086 0)
(0.842245 0.16056 0)
(0.842609 0.133026 0)
(0.841127 0.104946 0)
(0.837122 0.0764512 0)
(0.830676 0.0477017 0)
(0.821583 0.0189718 0)
(0.809693 -0.00894716 0)
(0.797215 -0.0358344 0)
(0.784187 -0.0621654 0)
(0.75814 -0.0934013 0)
(0.652626 -0.151914 0)
(0.40649 -0.286777 0)
(0.224926 -0.394852 0)
(0.0448567 -0.5117 0)
(-0.121364 -0.659751 0)
(-0.284127 -0.875757 0)
(-0.445422 -1.2204 0)
(-0.564668 -1.73911 0)
(-0.540274 -2.25986 0)
(-0.268172 -1.864 0)
(0.323152 0.54174 0)
(0.382947 0.56351 0)
(0.436206 0.566584 0)
(0.484967 0.559408 0)
(0.533477 0.546534 0)
(0.579074 0.52886 0)
(0.617522 0.50693 0)
(0.649162 0.482521 0)
(0.677505 0.457915 0)
(0.704778 0.43318 0)
(0.730446 0.408182 0)
(0.753575 0.38273 0)
(0.773657 0.357282 0)
(0.79112 0.332452 0)
(0.806585 0.308226 0)
(0.820224 0.284203 0)
(0.831937 0.259908 0)
(0.841528 0.235011 0)
(0.848821 0.209413 0)
(0.853713 0.183252 0)
(0.856232 0.156817 0)
(0.856563 0.130344 0)
(0.854845 0.10377 0)
(0.85113 0.0770139 0)
(0.845502 0.0505654 0)
(0.838106 0.0251634 0)
(0.829181 -0.000376983 0)
(0.818609 -0.0268271 0)
(0.805808 -0.053799 0)
(0.790337 -0.0805534 0)
(0.772269 -0.106333 0)
(0.750082 -0.137338 0)
(0.615891 -0.215251 0)
(0.401461 -0.365166 0)
(0.197585 -0.519172 0)
(-0.00908796 -0.728479 0)
(-0.232307 -1.07502 0)
(-0.451058 -1.6493 0)
(-0.567536 -2.35704 0)
(-0.331589 -2.1926 0)
(0.378811 0.503224 0)
(0.426662 0.522127 0)
(0.474074 0.52801 0)
(0.518308 0.524485 0)
(0.560087 0.514445 0)
(0.599269 0.499217 0)
(0.634903 0.479919 0)
(0.666695 0.458097 0)
(0.695428 0.435382 0)
(0.721878 0.412206 0)
(0.746144 0.38877 0)
(0.768062 0.365137 0)
(0.78746 0.341618 0)
(0.804455 0.318533 0)
(0.819296 0.295861 0)
(0.832128 0.273339 0)
(0.842937 0.25063 0)
(0.851603 0.227465 0)
(0.857991 0.203721 0)
(0.862047 0.17944 0)
(0.863835 0.154756 0)
(0.863528 0.129771 0)
(0.861294 0.104465 0)
(0.857232 0.0788342 0)
(0.851438 0.0530845 0)
(0.844085 0.0273274 0)
(0.835854 0.00108606 0)
(0.826299 -0.0245918 0)
(0.815062 -0.0480353 0)
(0.803018 -0.0710791 0)
(0.789599 -0.0957167 0)
(0.774134 -0.122025 0)
(0.754761 -0.148822 0)
(0.714295 -0.191905 0)
(0.520092 -0.34953 0)
(0.294682 -0.54973 0)
(0.0333108 -0.87438 0)
(-0.258352 -1.46515 0)
(-0.541361 -2.36205 0)
(-0.324745 -2.55682 0)
(0.425283 0.470895 0)
(0.46655 0.486642 0)
(0.508773 0.493061 0)
(0.548927 0.491382 0)
(0.586538 0.483284 0)
(0.621919 0.470136 0)
(0.655034 0.453245 0)
(0.685561 0.433921 0)
(0.71343 0.413326 0)
(0.738814 0.392059 0)
(0.761848 0.370501 0)
(0.782557 0.348865 0)
(0.800895 0.327358 0)
(0.816898 0.306134 0)
(0.830683 0.285172 0)
(0.84234 0.264307 0)
(0.851864 0.243307 0)
(0.859171 0.221948 0)
(0.864176 0.200074 0)
(0.866873 0.177645 0)
(0.867365 0.154702 0)
(0.865839 0.131293 0)
(0.862493 0.107425 0)
(0.857485 0.0831404 0)
(0.850996 0.0585584 0)
(0.84329 0.0337561 0)
(0.834704 0.00864975 0)
(0.825112 -0.0170727 0)
(0.814621 -0.0426284 0)
(0.803726 -0.0679585 0)
(0.792374 -0.0913396 0)
(0.780667 -0.113293 0)
(0.767705 -0.137263 0)
(0.751506 -0.164606 0)
(0.727979 -0.202898 0)
(0.574673 -0.365715 0)
(0.321013 -0.651389 0)
(0.00716101 -1.20916 0)
(-0.451855 -2.25945 0)
(-0.208386 -2.92129 0)
(0.46106 0.442222 0)
(0.498699 0.455649 0)
(0.537415 0.462259 0)
(0.574754 0.462021 0)
(0.60997 0.45553 0)
(0.643236 0.443982 0)
(0.674617 0.428863 0)
(0.703829 0.411513 0)
(0.730613 0.392887 0)
(0.754941 0.373537 0)
(0.776892 0.353832 0)
(0.796511 0.334046 0)
(0.813779 0.314387 0)
(0.828701 0.294962 0)
(0.841327 0.27574 0)
(0.851702 0.256594 0)
(0.859814 0.237345 0)
(0.865595 0.21779 0)
(0.869 0.197735 0)
(0.870071 0.177071 0)
(0.868942 0.155775 0)
(0.865815 0.133861 0)
(0.860917 0.111339 0)
(0.854472 0.0882502 0)
(0.846738 0.064684 0)
(0.838009 0.0407249 0)
(0.828511 0.0163466 0)
(0.818277 -0.00857573 0)
(0.807506 -0.0338238 0)
(0.796621 -0.0594736 0)
(0.786156 -0.0851948 0)
(0.7765 -0.110207 0)
(0.767045 -0.132647 0)
(0.75653 -0.154869 0)
(0.743015 -0.182233 0)
(0.720216 -0.222858 0)
(0.575393 -0.445045 0)
(0.310621 -0.926667 0)
(-0.317438 -2.04991 0)
(0.0147643 -3.21393 0)
(0.488214 0.413712 0)
(0.523922 0.425702 0)
(0.56051 0.432634 0)
(0.596044 0.433785 0)
(0.629796 0.428866 0)
(0.661829 0.418776 0)
(0.692156 0.405191 0)
(0.720452 0.389619 0)
(0.74638 0.372921 0)
(0.769849 0.355503 0)
(0.790919 0.33768 0)
(0.809636 0.31976 0)
(0.825977 0.301983 0)
(0.839908 0.284438 0)
(0.851432 0.267074 0)
(0.860569 0.249779 0)
(0.867292 0.232409 0)
(0.871535 0.214767 0)
(0.873274 0.196604 0)
(0.872589 0.177746 0)
(0.869638 0.158119 0)
(0.864633 0.137701 0)
(0.857839 0.116487 0)
(0.84955 0.0944972 0)
(0.840099 0.0717882 0)
(0.829824 0.0484727 0)
(0.818963 0.0245946 0)
(0.80764 0.000164432 0)
(0.796035 -0.0247773 0)
(0.784482 -0.0504335 0)
(0.773587 -0.0768686 0)
(0.764195 -0.10368 0)
(0.756827 -0.129574 0)
(0.750288 -0.15239 0)
(0.741847 -0.174354 0)
(0.728535 -0.205186 0)
(0.70005 -0.271029 0)
(0.56794 -0.677338 0)
(-0.150062 -1.75357 0)
(0.237648 -3.28641 0)
(0.509239 0.385374 0)
(0.543874 0.395635 0)
(0.578977 0.402634 0)
(0.613403 0.404825 0)
(0.646379 0.401312 0)
(0.677769 0.392712 0)
(0.707502 0.380783 0)
(0.73522 0.367129 0)
(0.760558 0.352493 0)
(0.783413 0.337142 0)
(0.803842 0.321345 0)
(0.82188 0.305451 0)
(0.837478 0.289735 0)
(0.850568 0.274274 0)
(0.861121 0.258989 0)
(0.869132 0.243768 0)
(0.874562 0.228502 0)
(0.877321 0.212986 0)
(0.877387 0.196877 0)
(0.874871 0.179948 0)
(0.869939 0.162082 0)
(0.862806 0.143204 0)
(0.853786 0.123276 0)
(0.843267 0.102317 0)
(0.831667 0.0803552 0)
(0.819406 0.0575618 0)
(0.806775 0.0340313 0)
(0.793953 0.00983042 0)
(0.781079 -0.0150678 0)
(0.768393 -0.040978 0)
(0.756461 -0.0682128 0)
(0.746255 -0.0965291 0)
(0.738791 -0.124627 0)
(0.734311 -0.1506 0)
(0.730622 -0.173029 0)
(0.72304 -0.198285 0)
(0.708414 -0.243817 0)
(0.67898 -0.396151 0)
(0.0966586 -1.44814 0)
(0.207956 -3.26123 0)
(0.526664 0.364929 0)
(0.559326 0.372653 0)
(0.59271 0.378394 0)
(0.62677 0.380455 0)
(0.660093 0.377273 0)
(0.691659 0.369199 0)
(0.721103 0.358336 0)
(0.748333 0.346359 0)
(0.773267 0.333648 0)
(0.7958 0.320223 0)
(0.815882 0.306313 0)
(0.833467 0.292335 0)
(0.848503 0.278621 0)
(0.860924 0.265229 0)
(0.870672 0.252045 0)
(0.877707 0.238968 0)
(0.881962 0.225952 0)
(0.88331 0.21281 0)
(0.88171 0.199043 0)
(0.877293 0.184341 0)
(0.870192 0.168477 0)
(0.860604 0.15123 0)
(0.848969 0.132457 0)
(0.835834 0.112354 0)
(0.821645 0.0908771 0)
(0.806949 0.0683586 0)
(0.792131 0.0449681 0)
(0.777424 0.0208197 0)
(0.762914 -0.00415647 0)
(0.748708 -0.0304433 0)
(0.735276 -0.0586655 0)
(0.723625 -0.0888148 0)
(0.715017 -0.119393 0)
(0.710214 -0.147895 0)
(0.708663 -0.172944 0)
(0.706539 -0.196959 0)
(0.695979 -0.235578 0)
(0.653614 -0.327897 0)
(0.478646 -1.15705 0)
(0.256766 -3.23323 0)
(0.534292 0.348269 0)
(0.566807 0.35539 0)
(0.599971 0.360421 0)
(0.635651 0.36229 0)
(0.671673 0.359527 0)
(0.704736 0.35219 0)
(0.733785 0.34229 0)
(0.760101 0.331474 0)
(0.784664 0.320072 0)
(0.807231 0.308027 0)
(0.827308 0.295558 0)
(0.844623 0.283091 0)
(0.859202 0.270959 0)
(0.871103 0.259214 0)
(0.88024 0.24775 0)
(0.886485 0.236487 0)
(0.889752 0.225424 0)
(0.88989 0.214403 0)
(0.88681 0.202879 0)
(0.880489 0.190545 0)
(0.87089 0.177169 0)
(0.858219 0.162279 0)
(0.84337 0.145306 0)
(0.827246 0.126221 0)
(0.809902 0.104768 0)
(0.792269 0.0818122 0)
(0.774883 0.0579135 0)
(0.757947 0.0333973 0)
(0.741483 0.00822591 0)
(0.72542 -0.0184126 0)
(0.710091 -0.0476298 0)
(0.696502 -0.0798093 0)
(0.686104 -0.113336 0)
(0.679911 -0.144852 0)
(0.677793 -0.172151 0)
(0.678633 -0.197494 0)
(0.675383 -0.233749 0)
(0.646645 -0.325623 0)
(0.571512 -0.754594 0)
(0.465255 -3.05674 0)
(0.52752 0.321679 0)
(0.562217 0.33821 0)
(0.597746 0.345514 0)
(0.636889 0.348138 0)
(0.677694 0.346688 0)
(0.713725 0.340224 0)
(0.743024 0.330991 0)
(0.76883 0.320741 0)
(0.793417 0.309909 0)
(0.81637 0.298538 0)
(0.836652 0.286872 0)
(0.853797 0.275289 0)
(0.868012 0.264105 0)
(0.879554 0.253386 0)
(0.888312 0.243072 0)
(0.894053 0.233123 0)
(0.896694 0.223618 0)
(0.896069 0.214484 0)
(0.89176 0.204993 0)
(0.88348 0.194848 0)
(0.870991 0.183964 0)
(0.854968 0.171742 0)
(0.837628 0.157499 0)
(0.817957 0.141755 0)
(0.795948 0.122557 0)
(0.774409 0.0998486 0)
(0.754173 0.074481 0)
(0.734832 0.0484009 0)
(0.716333 0.0224092 0)
(0.698223 -0.00465457 0)
(0.680694 -0.0347464 0)
(0.664786 -0.0689843 0)
(0.652151 -0.105748 0)
(0.644003 -0.140753 0)
(0.640165 -0.170696 0)
(0.64016 -0.197779 0)
(0.642356 -0.234155 0)
(0.622198 -0.325934 0)
(0.54016 -0.666028 0)
(0.546616 -2.43499 0)
(0.462458 0.233545 0)
(0.500097 0.24767 0)
(0.53758 0.250061 0)
(0.576859 0.246468 0)
(0.621295 0.249081 0)
(0.676861 0.26955 0)
(0.723534 0.28354 0)
(0.755429 0.28215 0)
(0.781917 0.274973 0)
(0.806536 0.26781 0)
(0.829449 0.261813 0)
(0.849411 0.255906 0)
(0.865713 0.24936 0)
(0.878905 0.242593 0)
(0.889337 0.235951 0)
(0.896715 0.229194 0)
(0.900557 0.222096 0)
(0.90098 0.214892 0)
(0.898003 0.207007 0)
(0.889804 0.197403 0)
(0.873787 0.188006 0)
(0.853696 0.178432 0)
(0.832686 0.165368 0)
(0.804976 0.151596 0)
(0.778079 0.135007 0)
(0.753304 0.116678 0)
(0.728573 0.0944163 0)
(0.705957 0.0675451 0)
(0.68586 0.0394515 0)
(0.66614 0.011218 0)
(0.646496 -0.019816 0)
(0.628101 -0.0560671 0)
(0.613012 -0.0962266 0)
(0.602678 -0.134993 0)
(0.596763 -0.167918 0)
(0.594511 -0.196796 0)
(0.597312 -0.234022 0)
(0.588207 -0.323256 0)
(0.520976 -0.631646 0)
(0.512729 -1.87131 0)
(0.415704 0.240667 0)
(0.442926 0.251353 0)
(0.470355 0.253692 0)
(0.495573 0.249035 0)
(0.516952 0.240782 0)
(0.538667 0.234764 0)
(0.561891 0.234393 0)
(0.5834 0.235582 0)
(0.602274 0.233053 0)
(0.618578 0.228222 0)
(0.633258 0.223934 0)
(0.646883 0.221086 0)
(0.659498 0.218957 0)
(0.671152 0.217125 0)
(0.681911 0.216055 0)
(0.691821 0.215973 0)
(0.701519 0.21646 0)
(0.712061 0.217037 0)
(0.726061 0.216941 0)
(0.740479 0.216186 0)
(0.798547 0.211322 0)
(0.839228 0.198333 0)
(0.837604 0.180668 0)
(0.80428 0.164575 0)
(0.766503 0.145403 0)
(0.727537 0.125362 0)
(0.695057 0.105974 0)
(0.669559 0.0851535 0)
(0.646669 0.0595457 0)
(0.626366 0.0300239 0)
(0.605894 -0.00260345 0)
(0.585601 -0.041048 0)
(0.568274 -0.0847252 0)
(0.555916 -0.127373 0)
(0.548038 -0.163425 0)
(0.543594 -0.194529 0)
(0.54402 -0.233439 0)
(0.542301 -0.319358 0)
(0.496563 -0.591688 0)
(0.487294 -1.49151 0)
(0.387851 0.2299 0)
(0.403737 0.23933 0)
(0.420024 0.243236 0)
(0.433667 0.242364 0)
(0.44301 0.239741 0)
(0.450339 0.239926 0)
(0.458648 0.24284 0)
(0.467756 0.244848 0)
(0.476007 0.243099 0)
(0.48252 0.238583 0)
(0.487728 0.23347 0)
(0.492543 0.228789 0)
(0.49755 0.224353 0)