/*--------------------------------*- C++ -*----------------------------------*\
| =========                 |                                                 |
| \\      /  F ield         | OpenFOAM: The Open Source CFD Toolbox           |
|  \\    /   O peration     | Version:  5.0                                   |
|   \\  /    A nd           | Web:      www.OpenFOAM.org                      |
|    \\/     M anipulation  |                                                 |
\*---------------------------------------------------------------------------*/
FoamFile
{
    version     2.0;
    format      ascii;
    class       volScalarField;
    location    "0.45";
    object      epsilon;
}
// * * * * * * * * * * * * * * * * * * * * * * * * * * * * * * * * * * * * * //

dimensions      [0 2 -3 0 0 0 0];

internalField   nonuniform List<scalar> 
1915
(
0.200835
0.207971
0.216187
0.225727
0.236873
0.249957
0.265357
0.283498
0.304856
0.32995
0.35933
0.39356
0.433188
0.478699
0.530466
0.588679
0.653279
0.723899
0.799818
0.879959
0.96292
1.04706
1.13059
1.21172
1.28871
0.988644
0.368271
0.2475
0.202154
0.179909
0.167754
0.160945
0.157323
0.155754
0.155583
0.156403
0.157953
0.160061
0.162616
0.165554
0.168847
0.172503
0.176559
0.181084
0.186176
0.191967
0.198626
0.206357
0.215404
0.226053
0.238633
0.253526
0.27116
0.292016
0.31662
0.345534
0.379336
0.41859
0.463801
0.515361
0.573475
0.638097
0.708868
0.785077
0.865667
0.949283
1.03438
1.11934
1.20261
1.28276
0.97711
0.359765
0.241157
0.196823
0.175129
0.163281
0.156622
0.153036
0.151415
0.151121
0.15176
0.153079
0.154911
0.157154
0.159746
0.162667
0.165925
0.169561
0.173646
0.178282
0.183601
0.189771
0.196997
0.205522
0.215629
0.227649
0.241962
0.258998
0.279242
0.303226
0.331523
0.364727
0.40342
0.448134
0.499283
0.557101
0.621566
0.69234
0.768738
0.849739
0.93406
1.02028
1.10702
1.19302
1.27727
0.962621
0.350863
0.23466
0.191439
0.170363
0.158872
0.152406
0.148895
0.147261
0.14688
0.147372
0.148492
0.150082
0.152043
0.154321
0.156896
0.159781
0.16302
0.166685
0.170877
0.175731
0.181414
0.188127
0.196111
0.205649
0.217069
0.230747
0.247116
0.266662
0.289922
0.317481
0.349949
0.387934
0.431995
0.482584
0.539971
0.604171
0.674886
0.751468
0.83295
0.918138
1.00577
1.09472
1.18413
1.27349
0.945521
0.341601
0.228005
0.185983
0.165581
0.154492
0.148255
0.144854
0.143238
0.142804
0.143181
0.144136
0.145516
0.147229
0.149223
0.151484
0.154027
0.156897
0.160166
0.163937
0.168342
0.173547
0.179751
0.187192
0.196147
0.206942
0.21995
0.235602
0.254385
0.276843
0.303572
0.3352
0.372364
0.415659
0.465582
0.522451
0.586337
0.656991
0.733819
0.815918
0.902193
0.991552
1.08315
1.1766
1.272
0.926096
0.332058
0.221179
0.180435
0.16076
0.15011
0.144135
0.140874
0.139305
0.138846
0.139139
0.139959
0.141162
0.142659
0.144405
0.146386
0.14862
0.151152
0.154056
0.157433
0.161413
0.16616
0.171869
0.178772
0.187144
0.197305
0.209624
0.224528
0.242506
0.264108
0.28994
0.320653
0.356913
0.39936
0.448543
0.504844
0.568398
0.639021
0.716185
0.799057
0.886637
0.978002
1.0726
1.17053
1.27259
0.904261
0.322032
0.21416
0.174792
0.155891
0.145711
0.140024
0.136925
0.135428
0.13497
0.135206
0.135922
0.136978
0.138293
0.139823
0.141559
0.143518
0.145748
0.148321
0.151335
0.15492
0.159235
0.16447
0.170853
0.178653
0.188182
0.199807
0.213951
0.231101
0.251813
0.276704
0.306449
0.341746
0.383284
0.431672
0.487366
0.550578
0.621204
0.698787
0.782564
0.871625
0.965186
1.06297
1.16554
1.27445
0.880424
0.311609
0.206996
0.16908
0.150986
0.141296
0.135912
0.132993
0.131586
0.131149
0.131352
0.131989
0.132929
0.134093
0.135441
0.136967
0.138689
0.140652
0.142929
0.145617
0.148839
0.152753
0.157543
0.163431
0.170677
0.179591
0.19053
0.203914
0.220229
0.240033
0.263957
0.292695
0.326984
0.36756
0.415103
0.470147
0.532995
0.603631
0.681679
0.766444
0.857081
0.95291
1.05386
1.16091
1.27632
0.854999
0.300913
0.199752
0.163337
0.146068
0.136878
0.131804
0.129074
0.127769
0.127369
0.127558
0.128139
0.128988
0.13003
0.131229
0.132578
0.134098
0.135833
0.137853
0.140252
0.143151
0.146698
0.151074
0.156494
0.163216
0.171537
0.181808
0.194444
0.209928
0.22882
0.251761
0.279465
0.312705
0.352268
0.398903
0.453234
0.515662
0.586271
0.664771
0.750532
0.842751
0.940796
1.04471
1.15575
1.27679
0.8284
0.290072
0.192497
0.15761
0.141168
0.132475
0.127712
0.125173
0.123977
0.123625
0.123815
0.124359
0.125138
0.126084
0.127163
0.128368
0.12972
0.131262
0.133062
0.135211
0.137824
0.141046
0.145049
0.150041
0.156268
0.16402
0.173643
0.185553
0.20022
0.218202
0.240149
0.266798
0.298947
0.337435
0.383083
0.436606
0.498513
0.568995
0.64786
0.734541
0.828257
0.928358
1.03488
1.1492
1.27457
0.801048
0.279222
0.185308
0.151947
0.136322
0.128116
0.123656
0.121304
0.120218
0.119919
0.12012
0.120642
0.121372
0.122245
0.123229
0.124319
0.125535
0.126919
0.128534
0.130468
0.132834
0.135767
0.139435
0.144038
0.149811
0.157038
0.166052
0.177252
0.19111
0.208182
0.229133
0.254705
0.285715
0.323052
0.367605
0.420188
0.481418
0.551607
0.630666
0.718102
0.813139
0.915061
1.02377
1.14055
1.26872
0.773362
0.268495
0.17826
0.146405
0.131571
0.123831
0.11966
0.117487
0.116506
0.116262
0.11648
0.116991
0.117687
0.118506
0.119418
0.12042
0.121528
0.122784
0.124248
0.126003
0.128156
0.130837
0.134206
0.138455
0.143812
0.150548
0.158988
0.169518
0.182602
0.19879
0.218731
0.243181
0.272987
0.309075
0.3524
0.403878
0.464228
0.533883
0.612876
0.700805
0.796902
0.900348
1.01082
1.12926
1.2587
0.745756
0.258023
0.171431
0.141036
0.126958
0.119657
0.115753
0.113745
0.112861
0.112669
0.112907
0.113412
0.114085
0.114866
0.115727
0.116662
0.117689
0.118846
0.120189
0.121796
0.12377
0.126233
0.129337
0.133266
0.138239
0.144515
0.152409
0.162295
0.174624
0.189937
0.208875
0.232193
0.260753
0.295512
0.337476
0.387627
0.44681
0.5156
0.594172
0.682226
0.779028
0.88365
0.995471
1.11493
1.24443
0.718625
0.247932
0.164893
0.135896
0.122527
0.115631
0.111968
0.110105
0.109306
0.109159
0.109414
0.109919
0.110577
0.111331
0.112155
0.113043
0.114011
0.115093
0.116342
0.117831
0.119656
0.121932
0.124804
0.128444
0.133062
0.138908
0.14628
0.15554
0.167125
0.18156
0.199474
0.221614
0.248846
0.282145
0.322557
0.371135
0.428833
0.496368
0.574076
0.661799
0.758879
0.864322
0.977219
1.09743
1.22651
0.692345
0.238339
0.158718
0.131036
0.118322
0.111789
0.108337
0.106597
0.105868
0.105755
0.106023
0.106526
0.107172
0.107908
0.108707
0.109563
0.110489
0.111518
0.112696
0.114093
0.115796
0.117913
0.120581
0.123963
0.128255
0.133694
0.140567
0.149218
0.160064
0.173613
0.190475
0.21138
0.237184
0.268867
0.307502
0.354202
0.410017
0.475808
0.552087
0.638879
0.735654
0.841417
0.955015
1.07573
1.20411
0.667257
0.229351
0.15297
0.126508
0.114385
0.108169
0.104896
0.103253
0.102573
0.102482
0.102755
0.103252
0.103887
0.104609
0.10539
0.106225
0.107124
0.108116
0.109243
0.110569
0.112173
0.114158
0.116648
0.119797
0.123789
0.128847
0.13524
0.143296
0.15341
0.166065
0.181846
0.201457
0.225734
0.255644
0.29227
0.336763
0.390262
0.45376
0.527958
0.613095
0.708835
0.814266
0.928095
1.04909
1.17683
0.643671
0.221065
0.147708
0.122357
0.110755
0.104809
0.101676
0.100102
0.0994517
0.099366
0.099632
0.100117
0.100739
0.101447
0.102215
0.103035
0.103917
0.104885
0.105976
0.107249
0.108774
0.110647
0.112983
0.115922
0.119637
0.124336
0.130271
0.137747
0.147136
0.158893
0.17357
0.191838
0.214497
0.242488
0.276884
0.318853
0.369595
0.430224
0.501627
0.58428
0.678104
0.782376
0.895807
1.01683
1.14419
0.621857
0.213565
0.142985
0.118626
0.107472
0.101743
0.0987107
0.0971768
0.0965314
0.0964335
0.0966798
0.0971436
0.0977456
0.0984374
0.0991926
0.100002
0.100873
0.101825
0.102892
0.104124
0.105587
0.107366
0.109566
0.112317
0.115777
0.120139
0.125634
0.132547
0.141223
0.152084
0.165644
0.182532
0.203503
0.229456
0.26143
0.300585
0.348154
0.405345
0.473211
0.552477
0.643361
0.745435
0.857588
0.978161
1.10533
0.60205
0.206924
0.13885
0.115355
0.10457
0.0990029
0.0960317
0.0945054
0.0938405
0.093711
0.0939223
0.0943533
0.0949276
0.0955978
0.0963376
0.0971365
0.097998
0.0989387
0.0999881
0.10119
0.102602
0.104302
0.106383
0.108964
0.112188
0.116232
0.121309
0.127678
0.135657
0.145631
0.158074
0.173564
0.192804
0.216632
0.246036
0.282141
0.326176
0.379405
0.443014
0.517957
0.604769
0.703395
0.813061
0.932281
1.05905
0.584447
0.201208
0.135345
0.112579
0.102082
0.0966208
0.0936678
0.0921164
0.0914061
0.091224
0.0913837
0.0917686
0.0923049
0.092946
0.093665
0.0944498
0.0953014
0.0962324
0.0972677
0.0984448
0.0998148
0.101445
0.10342
0.105847
0.108854
0.1126
0.11728
0.123127
0.130428
0.139535
0.150874
0.164972
0.182465
0.204126
0.230868
0.263754
0.303976
0.352807
0.411515
0.481237
0.562806
0.656566
0.762202
0.878633
1.00405
0.569219
0.196474
0.132511
0.110333
0.10004
0.0946249
0.0916466
0.090036
0.0892531
0.0889967
0.089087
0.0894115
0.0898979
0.0905004
0.091191
0.0919563
0.0927942
0.0937138
0.0947353
0.0958902
0.0972227
0.0987914
0.100671
0.102956
0.105762
0.10923
0.113533
0.118883
0.125535
0.133802
0.144067
0.156797
0.172563
0.192057
0.216109
0.245694
0.28193
0.326052
0.379348
0.443071
0.518288
0.605717
0.705532
0.81721
0.93944
0.556517
0.192779
0.130387
0.108651
0.0984717
0.0930423
0.089993
0.0882881
0.0874047
0.0870514
0.0870538
0.0873024
0.0877262
0.0882791
0.0889325
0.0896707
0.0904891
0.0913932
0.0923984
0.0935308
0.0948277
0.0963396
0.0981315
0.100286
0.102904
0.106112
0.110063
0.114942
0.120977
0.128442
0.137674
0.149085
0.163174
0.18055
0.201947
0.228236
0.260434
0.29969
0.347251
0.4044
0.472349
0.552096
0.644257
0.748889
0.865342
0.546481
0.190179
0.129016
0.107566
0.0974065
0.091898
0.08873
0.086894
0.0858812
0.0854078
0.0853034
0.0854603
0.085808
0.0863
0.086906
0.0876085
0.0884001
0.0892826
0.0902672
0.0913745
0.0926354
0.0940927
0.095802
0.0978346
0.100279
0.103245
0.106865
0.111304
0.116757
0.123466
0.131721
0.141878
0.154368
0.169716
0.188555
0.211643
0.239873
0.274273
0.315993
0.366267
0.426339
0.497365
0.580274
0.675606
0.783354
0.539256
0.188741
0.128443
0.107112
0.0968724
0.0912152
0.0878775
0.0858719
0.0847
0.0840828
0.0838525
0.0839018
0.0841601
0.0845793
0.0851277
0.0857852
0.0865417
0.0873956
0.0883537
0.0894317
0.0906544
0.0920573
0.0936875
0.0956054
0.0978873
0.100628
0.103941
0.10797
0.112882
0.118885
0.126229
0.135214
0.146207
0.159651
0.176081
0.196138
0.220582
0.250298
0.286298
0.329696
0.381673
0.443407
0.515972
0.600218
0.696622
0.535004
0.188539
0.128719
0.107328
0.0968969
0.091015
0.0874526
0.0852366
0.0838743
0.0830895
0.0827142
0.0826407
0.0827964
0.0831316
0.0836123
0.0842156
0.0849286
0.0857462
0.0866712
0.0877147
0.0888958
0.0902433
0.0917961
0.0936051
0.0957349
0.0982656
0.101296
0.104945
0.109359
0.114712
0.121215
0.129121
0.138736
0.150427
0.164637
0.181893
0.202823
0.228164
0.258764
0.295577
0.339644
0.392052
0.453867
0.526051
0.60934
0.533916
0.189669
0.129907
0.108254
0.0975073
0.0913156
0.0874682
0.0849979
0.0834131
0.0824364
0.0818979
0.0816868
0.081728
0.081969
0.0823725
0.0829132
0.0835746
0.0843484
0.0852338
0.0862371
0.0873725
0.0886626
0.0901389
0.0918436
0.0938304
0.0961669
0.0989358
0.102238
0.106197
0.110957
0.116695
0.123622
0.131987
0.142092
0.154294
0.169019
0.186771
0.208142
0.233816
0.264568
0.30126
0.344815
0.396177
0.456255
0.52584
0.536234
0.192248
0.132079
0.109934
0.0987291
0.0921313
0.0879319
0.08516
0.0833193
0.0821269
0.0814076
0.0810458
0.0809622
0.0811
0.0814187
0.0818893
0.0824921
0.0832155
0.0840548
0.0850126
0.0860982
0.0873285
0.0887287
0.0903329
0.0921852
0.0943415
0.0968709
0.0998574
0.103403
0.107628
0.112678
0.118726
0.125974
0.134665
0.145084
0.157567
0.17251
0.190372
0.211685
0.237055
0.267153
0.302709
0.344489
0.39325
0.449693
0.542266
0.196425
0.135319
0.112414
0.100584
0.0934696
0.0888436
0.0857197
0.0835889
0.0821576
0.0812417
0.0807182
0.0805015
0.0805296
0.0807575
0.0811523
0.0816911
0.0823585
0.0831465
0.084054
0.085086
0.0862545
0.0875787
0.0890857
0.0908113
0.092801
0.0951115
0.0978118
0.100986
0.104732
0.10917
0.114438
0.120701
0.128149
0.137008
0.147538
0.160043
0.174872
0.192426
0.213158
0.237567
0.2662
0.299627
0.338423
0.38313
0.552415
0.202383
0.139721
0.115737
0.103086
0.0953284
0.0901932
0.0866639
0.084209
0.0825175
0.0813919
0.0806985
0.0803433
0.0802578
0.0803915
0.0807074
0.0811783
0.0817859
0.0825188
0.0833721
0.0843475
0.0854525
0.0867013
0.0881146
0.0897209
0.0915567
0.093668
0.0961108
0.0989528
0.102275
0.106172
0.110756
0.116157
0.122526
0.130037
0.13889
0.149314
0.161569
0.17595
0.192783
0.212427
0.235267
0.261705
0.292142
0.326953
0.567225
0.210352
0.14539
0.11994
0.106235
0.0976907
0.0919566
0.0879673
0.0851562
0.0831866
0.081842
0.0809746
0.0804794
0.0802798
0.080319
0.080555
0.0809568
0.0815025
0.0821778
0.0829748
0.0838916
0.0849322
0.0861063
0.0874295
0.0889238
0.0906182
0.0925491
0.0947614
0.0973095
0.100258
0.103682
0.107671
0.112328
0.117769
0.124128
0.131557
0.140226
0.150327
0.162071
0.175688
0.191427
0.209548
0.230317
0.253996
0.280821
0.587434
0.220613
0.152431
0.125044
0.110013
0.100519
0.0940919
0.0895896
0.0863946
0.0841347
0.0825676
0.0815273
0.0808952
0.0805851
0.0805329
0.0806911
0.0810248
0.0815088
0.0821258
0.0828653
0.0837227
0.0846989
0.0857999
0.0870368
0.0884265
0.0899913
0.0917598
0.0937674
0.0960568
0.0986791
0.101694
0.105171
0.109189
0.113839
0.119223
0.125455
0.13266
0.140977
0.150555
0.161554
0.17414
0.188485
0.204756
0.223111
0.243686
0.614064
0.233504
0.160944
0.131041
0.114366
0.103748
0.096534
0.0914723
0.0878745
0.0853206
0.0835355
0.0823302
0.0815701
0.0811577
0.0810209
0.0811066
0.0813757
0.0818
0.0823597
0.0830421
0.0838404
0.0847528
0.0857827
0.0869375
0.0882298
0.0896764
0.0912995
0.0931264
0.0951905
0.0975312
0.100195
0.103235
0.106712
0.110695
0.115261
0.120494
0.126486
0.133337
0.14115
0.150034
0.1601
0.171455
0.184201
0.198427
0.214202
0.64854
0.249434
0.171001
0.137878
0.1192
0.107277
0.0991904
0.0935366
0.0895311
0.0866921
0.0847039
0.08335
0.0824776
0.0819762
0.0817658
0.0817873
0.0819977
0.0823663
0.0828711
0.0834977
0.0842378
0.0850878
0.0860488
0.0871256
0.0883272
0.0896664
0.0911598
0.0928285
0.0946977
0.0967977
0.0991634
0.101835
0.104859
0.108286
0.112173
0.116581
0.121577
0.127231
0.133613
0.140798
0.148857
0.157855
0.167852
0.178894
0.191011
0.692856
0.268869
0.182625
0.14543
0.124358
0.110958
0.101937
0.0956819
0.0912847
0.0881869
0.0860239
0.0845481
0.0835863
0.0830151
0.0827458
0.0827143
0.0828741
0.0831922
0.0836456
0.0842186
0.0849018
0.0856907
0.0865848
0.087587
0.0887039
0.0899449
0.0913227
0.092853
0.094555
0.0964511
0.0985674
0.100934
0.103583
0.106553
0.109884
0.11362
0.117806
0.12249
0.127721
0.133545
0.140008
0.147149
0.155
0.163583
0.172906
0.749801
0.292331
0.195742
0.153474
0.129607
0.114592
0.104614
0.0977861
0.0930429
0.0897346
0.0874415
0.085882
0.084862
0.0842455
0.0839361
0.083865
0.0839838
0.0842579
0.0846636
0.0851851
0.0858127
0.0865412
0.0873695
0.0882995
0.0893358
0.0904858
0.0917591
0.0931676
0.0947256
0.0964497
0.098359
0.100475
0.10282
0.105421
0.108305
0.111502
0.11504
0.118951
0.123264
0.128007
0.133206
0.138883
0.145052
0.151723
0.158894
0.823293
0.320357
0.210118
0.161637
0.134613
0.117917
0.107029
0.0997085
0.0947039
0.0912612
0.0889016
0.0873091
0.0862702
0.0856378
0.0853097
0.0852145
0.0853025
0.0855391
0.0859009
0.0863726
0.0869448
0.0876126
0.0883747
0.0892324
0.0901898
0.0912525
0.0924283
0.0937266
0.0951583
0.0967356
0.0984723
0.100383
0.102485
0.104793
0.107326
0.1101
0.113132
0.11644
0.120036
0.123935
0.128146
0.132675
0.137527
0.142702
0.148194
0.919061
0.353411
0.225239
0.169339
0.138916
0.120604
0.108955
0.101297
0.0961648
0.0926961
0.0903535
0.0887909
0.0877792
0.0871641
0.0868406
0.086737
0.0868044
0.0870095
0.0873303
0.0877527
0.0882684
0.0888732
0.0895661
0.0903489
0.091225
0.0921997
0.0932797
0.0944727
0.0957877
0.0972341
0.0988223
0.100563
0.102466
0.104543
0.106803
0.109255
0.111904
0.114756
0.117813
0.121073
0.124533
0.128185
0.132021
0.136031
0.140207
1.04621
0.391655
0.240111
0.175698
0.141902
0.122259
0.110147
0.1024
0.0973338
0.0939815
0.0917589
0.090299
0.089365
0.0888016
0.0885057
0.0884085
0.0884641
0.0886422
0.0889234
0.0892953
0.0897514
0.0902886
0.0909068
0.0916081
0.0923963
0.0932767
0.0942554
0.0953398
0.0965375
0.097857
0.0993066
0.100895
0.102629
0.104516
0.10656
0.108765
0.11113
0.113651
0.116319
0.119122
0.122043
0.125058
0.128146
0.131283
0.13445
1.21954
0.434431
0.252909
0.179408
0.142787
0.122439
0.110366
0.102895
0.0981489
0.095087
0.093101
0.0918209
0.0910149
0.0905355
0.0902873
0.0902084
0.0902586
0.0904122
0.090653
0.0909714
0.0913628
0.0918254
0.0923602
0.0929699
0.0936588
0.0944322
0.0952965
0.0962589
0.097327
0.0985087
0.099812
0.101245
0.102813
0.104524
0.106379
0.10838
0.110524
0.112801
0.115197
0.117692
0.120257
0.122857
0.12545
0.127994
0.130449
1.462
0.47899
0.26032
0.178571
0.140618
0.120703
0.109427
0.102722
0.0986049
0.0960258
0.094395
0.0933666
0.0927317
0.0923614
0.092175
0.0921216
0.0921692
0.0922979
0.0924956
0.0927557
0.0930755
0.0934545
0.0938948
0.0943994
0.094973
0.0956211
0.0963501
0.0971673
0.0980803
0.0990973
0.100227
0.101476
0.102854
0.104366
0.106017
0.107809
0.10974
0.111804
0.113984
0.116261
0.118601
0.120961
0.123285
0.125512
0.127572
1.81185
0.516763
0.256265
0.17054
0.134386
0.116738
0.107302
0.101948
0.0987885
0.0968741
0.0956969
0.0949723
0.0945348
0.0942862
0.0941668
0.0941401
0.0941838
0.0942846
0.0944349
0.0946308
0.0948712
0.0951569
0.0954901
0.0958743
0.0963138
0.0968139
0.0973807
0.0980209
0.0987421
0.0995522
0.10046
0.101473
0.102601
0.103852
0.105233
0.10675
0.108405
0.110198
0.112121
0.114161
0.116293
0.11848
0.120668
0.122786
0.124748
2.36056
0.520834
0.229817
0.152174
0.123461
0.110661
0.104276
0.100848
0.0989123
0.09778
0.0971034
0.096697
0.0964577
0.0963264
0.0962683
0.0962628
0.0962977
0.0963659
0.0964637
0.0965896
0.0967437
0.096927
0.0971417
0.0973905
0.097677
0.0980053
0.0983803
0.0988073
0.0992924
0.0998423
0.100464
0.101166
0.101956
0.102843
0.103836
0.104943
0.106171
0.107527
0.109015
0.110634
0.112378
0.114232
0.116169
0.118144
0.120091
3.418
0.39442
0.164976
0.122008
0.10877
0.103547
0.101163
0.0999622
0.0993134
0.0989458
0.0987316
0.0986062
0.0985348
0.0984982
0.0984853
0.0984899
0.0985081
0.0985381
0.0985789
0.0986304
0.0986928
0.098767
0.098854
0.0989551
0.099072
0.0992068
0.0993616
0.0995391
0.0997422
0.0999742
0.100239
0.10054
0.100884
0.101273
0.101715
0.102215
0.10278
0.103416
0.104132
0.104934
0.10583
0.106828
0.107935
0.109156
0.110493
)
;

boundaryField
{
    leftWall
    {
        Cmu             0.09;
        kappa           0.41;
        E               9.8;
        type            epsilonWallFunction;
        value           nonuniform List<scalar> 
42
(
0.988644
0.97711
0.962621
0.945521
0.926096
0.904261
0.880424
0.854999
0.8284
0.801048
0.773362
0.745756
0.718625
0.692345
0.667257
0.643671
0.621857
0.60205
0.584447
0.569219
0.556517
0.546481
0.539256
0.535004
0.533916
0.536234
0.542266
0.552415
0.567225
0.587434
0.614064
0.64854
0.692856
0.749801
0.823293
0.919061
1.04621
1.21954
1.462
1.81185
2.36056
3.418
)
;
    }
    rightWall
    {
        Cmu             0.09;
        kappa           0.41;
        E               9.8;
        type            epsilonWallFunction;
        value           nonuniform 0();
    }
    lowerWall
    {
        Cmu             0.09;
        kappa           0.41;
        E               9.8;
        type            epsilonWallFunction;
        value           nonuniform 0();
    }
    atmosphere
    {
        type            inletOutlet;
        inletValue      uniform 0.1;
        value           uniform 0.1;
    }
    defaultFaces
    {
        type            empty;
    }
    procBoundary2to0
    {
        type            processor;
        value           nonuniform List<scalar> 
46
(
0.210187
0.217778
0.226446
0.236432
0.248019
0.261533
0.277348
0.295886
0.317615
0.343044
0.372712
0.407169
0.446946
0.492515
0.544234
0.602283
0.666601
0.736823
0.812233
0.89175
0.973947
1.05712
1.13936
1.2187
1.2932
0.996885
0.376338
0.253703
0.207461
0.184739
0.172336
0.165429
0.161814
0.160337
0.160325
0.161362
0.163177
0.165591
0.168486
0.171794
0.175483
0.179556
0.184045
0.189019
0.194573
0.194573
)
;
    }
    procBoundary2to3
    {
        type            processor;
        value           nonuniform List<scalar> 
43
(
1.35985
1.3584
1.35878
1.36238
1.36961
1.37991
1.39181
1.40328
1.41205
1.41607
1.41388
1.40483
1.38913
1.36853
1.34291
1.31259
1.27772
1.23775
1.19124
1.13609
1.07015
0.992166
0.902818
0.805143
0.70413
0.605518
0.514401
0.434222
0.366474
0.311
0.266594
0.231576
0.204217
0.182969
0.166559
0.153999
0.144547
0.137641
0.132792
0.129406
0.126457
0.121921
0.11194
)
;
    }
}


// ************************************************************************* //
