/*--------------------------------*- C++ -*----------------------------------*\
| =========                 |                                                 |
| \\      /  F ield         | OpenFOAM: The Open Source CFD Toolbox           |
|  \\    /   O peration     | Version:  5.0                                   |
|   \\  /    A nd           | Web:      www.OpenFOAM.org                      |
|    \\/     M anipulation  |                                                 |
\*---------------------------------------------------------------------------*/
FoamFile
{
    version     2.0;
    format      ascii;
    class       volScalarField;
    location    "0.45";
    object      nut;
}
// * * * * * * * * * * * * * * * * * * * * * * * * * * * * * * * * * * * * * //

dimensions      [0 2 -1 0 0 0 0];

internalField   nonuniform List<scalar> 
1915
(
0.0122613
0.0123904
0.0124964
0.0125788
0.0126362
0.0126677
0.0126723
0.0126499
0.0126008
0.0125266
0.0124296
0.012313
0.0121804
0.0120357
0.0118826
0.0117243
0.0115631
0.0114004
0.0112365
0.011071
0.010903
0.0107311
0.0105544
0.0103726
0.0101861
0.000140574
0.00100772
0.00227107
0.00353846
0.00470966
0.00575988
0.00668801
0.00750203
0.00821334
0.00883407
0.00937596
0.00984973
0.0102649
0.0106297
0.0109513
0.0112355
0.0114872
0.0117102
0.0119072
0.0120803
0.0122302
0.0123571
0.0124604
0.0125391
0.0125917
0.0126169
0.0126137
0.0125817
0.0125217
0.0124351
0.0123246
0.0121938
0.0120466
0.0118875
0.0117204
0.0115486
0.0113747
0.0112
0.0110247
0.0108484
0.0106698
0.0104875
0.0103003
0.0101078
0.00991084
0.000140006
0.00101323
0.00228433
0.0035566
0.00472928
0.0057781
0.00670283
0.00751225
0.00821837
0.00883378
0.00937048
0.00983939
0.0102501
0.0106111
0.0109293
0.0112107
0.0114601
0.0116813
0.0118769
0.0120487
0.0121974
0.0123228
0.0124242
0.0125001
0.0125488
0.0125688
0.0125589
0.0125186
0.0124487
0.0123509
0.0122282
0.0120844
0.011924
0.0117517
0.0115719
0.0113882
0.0112032
0.0110183
0.0108338
0.0106489
0.0104621
0.010272
0.0100771
0.00987697
0.00967236
0.000139294
0.00101639
0.00229338
0.00356935
0.00474262
0.00578947
0.0067105
0.00751528
0.00821637
0.00882674
0.00935865
0.00982315
0.01023
0.0105875
0.0109028
0.0111819
0.0114295
0.0116494
0.011844
0.0120151
0.0121632
0.0122879
0.0123882
0.0124623
0.0125082
0.0125241
0.0125088
0.0124615
0.0123831
0.0122755
0.0121418
0.0119864
0.0118141
0.0116301
0.011439
0.0112449
0.0110506
0.0108575
0.0106659
0.0104749
0.0102828
0.0100879
0.00988859
0.00968425
0.00947561
0.000138449
0.00101728
0.00229837
0.00357676
0.00474969
0.00579394
0.00671096
0.00751111
0.00820736
0.00881301
0.00934053
0.00980109
0.0102045
0.0105591
0.010872
0.0111492
0.0113955
0.0116144
0.0118086
0.0119795
0.0121276
0.0122524
0.0123524
0.0124257
0.01247
0.0124832
0.0124638
0.0124111
0.0123257
0.0122098
0.0120667
0.0119011
0.0117183
0.0115239
0.0113231
0.0111202
0.0109183
0.0107191
0.0105227
0.0103283
0.0101338
0.00993743
0.00973727
0.00953252
0.00932384
0.00013749
0.00101565
0.00229953
0.00357918
0.00475079
0.0057918
0.00670448
0.00749981
0.00819131
0.00879254
0.00931609
0.00977318
0.0101736
0.0105258
0.0108369
0.0111126
0.0113579
0.0115764
0.0117705
0.0119418
0.0120905
0.012216
0.0123167
0.0123902
0.0124342
0.0124461
0.0124242
0.0123676
0.012277
0.0121544
0.0120035
0.0118292
0.0116375
0.0114342
0.0112252
0.0110152
0.0108075
0.0106042
0.0104054
0.0102101
0.0100163
0.00982169
0.00962426
0.00942294
0.00921821
0.000136405
0.00101258
0.00229749
0.0035768
0.00474593
0.00578295
0.00669096
0.0074815
0.00816847
0.00876563
0.00928564
0.00973972
0.0101376
0.0104878
0.0107973
0.011072
0.0113167
0.0115351
0.0117296
0.0119018
0.0120517
0.0121786
0.0122807
0.0123556
0.0124005
0.0124126
0.0123898
0.0123312
0.0122371
0.0121096
0.0119527
0.0117715
0.0115724
0.0113618
0.0111461
0.0109306
0.010719
0.0105135
0.0103144
0.0101208
0.00993034
0.00974059
0.00954923
0.00935488
0.00915784
0.000135205
0.00100818
0.00229227
0.00356957
0.00473495
0.00576721
0.00667019
0.00745593
0.00813859
0.00873205
0.00924897
0.00970053
0.0100965
0.0104451
0.0107534
0.0110275
0.0112719
0.0114905
0.0116858
0.0118591
0.0120107
0.0121397
0.0122441
0.0123214
0.0123685
0.0123823
0.0123604
0.0123015
0.0122059
0.0120756
0.0119146
0.0117283
0.0115235
0.0113073
0.0110865
0.0108669
0.010653
0.0104471
0.0102497
0.0100598
0.00987518
0.00969292
0.00951044
0.0093261
0.00913989
0.000133906
0.00100249
0.00228387
0.0035574
0.00471775
0.00574446
0.00664204
0.00742295
0.00810151
0.00869163
0.00920591
0.00965545
0.0100499
0.0103974
0.0107051
0.0109789
0.0112235
0.0114426
0.0116389
0.0118137
0.0119674
0.012099
0.0122065
0.0122872
0.0123378
0.0123548
0.0123355
0.0122784
0.0121833
0.0120523
0.0118892
0.0116998
0.0114912
0.0112709
0.0110466
0.0108245
0.0106096
0.0104047
0.0102106
0.0100262
0.00984919
0.00967642
0.00950502
0.00933302
0.00916006
0.000132524
0.000995539
0.00227229
0.00354027
0.00469426
0.00571462
0.00660644
0.00738248
0.00805714
0.00864427
0.00915634
0.00960432
0.0099977
0.0103446
0.0106521
0.010926
0.0111711
0.0113911
0.0115888
0.0117655
0.0119217
0.0120564
0.0121676
0.0122525
0.0123076
0.0123293
0.0123146
0.0122612
0.0121688
0.0120393
0.0118764
0.011686
0.0114754
0.0112529
0.0110264
0.0108031
0.0105885
0.0103857
0.010196
0.0100182
0.00985002
0.00968808
0.00952921
0.00937109
0.00921301
0.000131077
0.000987404
0.00225758
0.00351821
0.00466453
0.00567774
0.00656343
0.00733455
0.00800549
0.00858996
0.00910023
0.0095471
0.00993989
0.0102867
0.0105943
0.0108687
0.0111146
0.0113358
0.0115351
0.0117141
0.0118732
0.0120115
0.0121271
0.0122171
0.0122778
0.0123055
0.0122967
0.0122491
0.0121618
0.0120363
0.011876
0.0116867
0.0114762
0.0112531
0.011026
0.0108026
0.010589
0.0103891
0.0102042
0.0100337
0.00987488
0.0097244
0.00957875
0.00943527
0.00929287
0.000129584
0.000978174
0.00223986
0.00349133
0.00462869
0.00563394
0.00651314
0.0072793
0.00794669
0.00852878
0.00903763
0.00948379
0.00987641
0.0102234
0.0105316
0.0108068
0.0110538
0.0112765
0.0114777
0.0116592
0.0118216
0.011964
0.0120847
0.0121806
0.0122481
0.0122831
0.012282
0.0122419
0.0121616
0.0120421
0.0118868
0.0117012
0.011493
0.0112712
0.0110449
0.0108223
0.0106103
0.0104134
0.0102335
0.0100701
0.00992072
0.00978168
0.00964925
0.00952044
0.00939375
0.000128063
0.000967962
0.00221927
0.00345983
0.00458695
0.0055835
0.00645585
0.00721698
0.00788095
0.00846094
0.0089687
0.00941452
0.00980733
0.0101549
0.0104639
0.0107402
0.0109885
0.0112129
0.0114163
0.0116006
0.0117664
0.0119134
0.0120396
0.0121423
0.0122177
0.0122615
0.0122698
0.0122394
0.0121685
0.0120575
0.0119094
0.0117295
0.0115255
0.0113065
0.0110819
0.0108609
0.0106509
0.0104571
0.0102819
0.0101251
0.00998452
0.00985633
0.00973655
0.0096218
0.00951018
0.000126538
0.000956908
0.00219605
0.003424
0.00453966
0.00552678
0.00639194
0.00714799
0.00780865
0.00838675
0.0088937
0.00933949
0.0097328
0.0100812
0.0103914
0.010669
0.0109189
0.0111451
0.0113508
0.0115379
0.0117075
0.0118592
0.0119914
0.0121015
0.0121858
0.0122398
0.0122593
0.0122407
0.0121816
0.012082
0.011944
0.0117726
0.0115752
0.0113609
0.0111395
0.0109207
0.0107126
0.0105213
0.0103497
0.0101984
0.0100652
0.00994647
0.0098379
0.00973561
0.00963713
0.000125028
0.000945179
0.00217049
0.00338423
0.0044873
0.0054643
0.00632194
0.00707282
0.00773026
0.00830665
0.00881302
0.00925902
0.00965308
0.0100026
0.0103141
0.0105931
0.0108447
0.0110729
0.0112809
0.011471
0.0116443
0.0118009
0.0119394
0.0120574
0.0121513
0.0122166
0.012249
0.0122443
0.0121997
0.0121143
0.0119895
0.0118297
0.0116417
0.0114345
0.011218
0.0110023
0.0107963
0.0106067
0.0104376
0.0102901
0.0101626
0.0100516
0.00995262
0.00986122
0.00977425
0.000123557
0.000932968
0.00214293
0.003341
0.00443043
0.0053967
0.00624652
0.00699213
0.00764639
0.0082212
0.00872715
0.00917353
0.00956851
0.00991928
0.0102322
0.0105129
0.0107662
0.0109963
0.0112066
0.0113995
0.0115765
0.011738
0.0118829
0.012009
0.012113
0.0121906
0.0122372
0.0122484
0.0122206
0.0121522
0.0120439
0.011899
0.0117236
0.0115262
0.0113167
0.0111054
0.0109017
0.0107134
0.0105455
0.0103999
0.010276
0.0101705
0.0100791
0.00999682
0.00991977
0.000122146
0.000920493
0.0021138
0.00329492
0.00436979
0.00532476
0.00616647
0.00690672
0.0075578
0.00813108
0.00863669
0.00908356
0.00947954
0.00983162
0.010146
0.0104283
0.0106833
0.0109153
0.0111277
0.0113234
0.0115039
0.0116701
0.0118212
0.0119554
0.0120698
0.0121602
0.012222
0.0122505
0.0122417
0.0121931
0.0121044
0.0119778
0.0118186
0.0116342
0.0114342
0.0112289
0.0110284
0.010841
0.010673
0.0105274
0.0104046
0.0103021
0.0102158
0.0101406
0.0100718
0.000120817
0.000907993
0.0020836
0.00324667
0.00430622
0.00524942
0.00608277
0.00681754
0.00746539
0.00803714
0.00854241
0.00898975
0.00938672
0.00974009
0.0100559
0.0103397
0.0105963
0.0108299
0.0110444
0.0112424
0.0114262
0.0115966
0.0117536
0.0118958
0.0120204
0.0121238
0.0122014
0.0122484
0.0122603
0.0122338
0.0121677
0.0120629
0.0119233
0.0117555
0.0115682
0.0113715
0.0111754
0.0109893
0.0108203
0.0106729
0.0105487
0.0104462
0.0103621
0.0102913
0.0102287
0.00011959
0.000895723
0.00205286
0.00319706
0.00424068
0.00517174
0.00599652
0.00672567
0.00737021
0.00794034
0.00844519
0.0088929
0.00929074
0.00964525
0.00996235
0.0102474
0.0105054
0.0107405
0.0109565
0.0111567
0.0113432
0.0115174
0.0116797
0.0118292
0.0119636
0.0120798
0.0121732
0.0122393
0.0122731
0.0122707
0.0122298
0.0121501
0.012034
0.0118867
0.0117159
0.0115308
0.0113416
0.0111579
0.0109878
0.0108373
0.0107092
0.0106038
0.0105185
0.0104489
0.0103899
0.000118486
0.000883946
0.00202217
0.00314694
0.00417425
0.00509293
0.00590897
0.00663238
0.00727348
0.00784183
0.00834607
0.00879393
0.00919239
0.00954778
0.00986587
0.010152
0.0104109
0.0106471
0.0108644
0.0110661
0.0112547
0.0114321
0.011599
0.011755
0.0118985
0.0120267
0.0121356
0.0122207
0.012277
0.0123
0.0122864
0.0122347
0.0121458
0.0120232
0.0118732
0.011704
0.011525
0.011346
0.011176
0.0110219
0.0108883
0.010777
0.0106869
0.0106149
0.010556
0.000117522
0.000872924
0.00199214
0.00309725
0.00410809
0.0050143
0.00582153
0.00653909
0.00717657
0.00774291
0.00824625
0.00869393
0.00909264
0.0094485
0.00976716
0.0100538
0.0103134
0.0105501
0.0107681
0.0109707
0.0111609
0.0113406
0.0115112
0.0116727
0.0118241
0.0119633
0.0120868
0.0121902
0.0122689
0.0123178
0.012333
0.0123117
0.0122533
0.0121596
0.0120352
0.0118866
0.0117225
0.0115521
0.0113846
0.011228
0.0110884
0.0109691
0.010871
0.0107924
0.0107294
0.000116717
0.000862909
0.00196337
0.00304894
0.00404344
0.00493729
0.00573573
0.00644736
0.00708103
0.00764507
0.00814711
0.00859414
0.00899258
0.00934838
0.00966705
0.00995374
0.0102132
0.01045
0.010668
0.0108709
0.0110618
0.011243
0.0114161
0.011582
0.01174
0.0118887
0.0120252
0.0121458
0.0122459
0.0123204
0.0123649
0.0123756
0.0123504
0.0122895
0.0121954
0.012073
0.0119293
0.0117727
0.0116121
0.0114561
0.0113117
0.0111839
0.0110755
0.0109866
0.010915
0.000116088
0.000854129
0.00193645
0.00300297
0.00398158
0.0048634
0.00565324
0.00635892
0.00698859
0.00754997
0.00805022
0.00849601
0.00889352
0.00924854
0.0095665
0.00985249
0.0101113
0.0103473
0.0105647
0.0107671
0.0109577
0.0111394
0.011314
0.0114827
0.0116458
0.0118022
0.0119499
0.0120858
0.0122056
0.0123045
0.0123778
0.012421
0.0124308
0.0124057
0.0123464
0.0122556
0.0121386
0.0120024
0.0118549
0.0117045
0.0115589
0.0114245
0.0113055
0.011204
0.01112
0.000115651
0.000846786
0.00191192
0.00296026
0.00392379
0.00479421
0.00557581
0.00627564
0.00690114
0.00745944
0.00795731
0.00840113
0.00879689
0.00915028
0.00946665
0.00975106
0.0100083
0.0102427
0.0104585
0.0106596
0.0108491
0.0110302
0.011205
0.0113752
0.0115415
0.0117037
0.0118604
0.0120091
0.0121462
0.0122674
0.0123679
0.0124429
0.0124882
0.0125008
0.0124797
0.0124257
0.0123418
0.0122331
0.0121063
0.0119688
0.0118282
0.0116916
0.0115646
0.0114509
0.0113525
0.000115422
0.000841043
0.00189025
0.00292172
0.00387137
0.00473134
0.00550531
0.00619952
0.00682071
0.00737551
0.00787032
0.0083113
0.00870434
0.00905505
0.00936877
0.00965055
0.00990516
0.0101371
0.0103504
0.0105491
0.0107365
0.0109159
0.0110897
0.0112599
0.0114277
0.0115935
0.0117566
0.0119153
0.0120668
0.0122073
0.0123323
0.012437
0.0125167
0.0125675
0.0125866
0.0125732
0.012528
0.0124541
0.0123562
0.0122404
0.0121134
0.0119822
0.011853
0.0117309
0.0116194
0.000115419
0.000837025
0.00187188
0.00288819
0.00382561
0.00467646
0.00544367
0.00613266
0.00674949
0.00730033
0.00779131
0.00822846
0.00861764
0.00896446
0.0092743
0.00955224
0.00980308
0.0100313
0.0102411
0.0104364
0.0106207
0.0107972
0.0109687
0.0111373
0.0113049
0.0114721
0.0116391
0.0118048
0.0119672
0.0121234
0.0122693
0.0124004
0.0125119
0.0125994
0.0126589
0.012688
0.0126856
0.0126526
0.0125915
0.0125066
0.0124031
0.0122873
0.012165
0.0120421
0.011923
0.000115659
0.000834819
0.00185717
0.00286049
0.00378779
0.00463126
0.00539291
0.00607728
0.00668977
0.00723618
0.00772249
0.00815469
0.0085387
0.00888024
0.00918478
0.0094575
0.00970325
0.00992656
0.0101317
0.0103224
0.0105024
0.0106749
0.0108428
0.0110085
0.011174
0.0113406
0.0115088
0.0116784
0.0118482
0.0120158
0.0121782
0.0123314
0.0124707
0.0125916
0.0126895
0.0127609
0.012803
0.0128149
0.0127969
0.0127513
0.0126814
0.012592
0.012488
0.012375
0.0122577
0.00011616
0.000834472
0.00184644
0.00283942
0.00375923
0.00459752
0.00535513
0.00603567
0.00664394
0.00718545
0.00766615
0.00809213
0.0084695
0.00880419
0.00910184
0.00936777
0.00960696
0.00982398
0.0100231
0.0102081
0.0103827
0.0105501
0.0107131
0.0108745
0.0110363
0.0112002
0.0113672
0.0115377
0.0117111
0.0118861
0.0120601
0.0122301
0.0123921
0.0125415
0.0126737
0.0127846
0.0128702
0.0129282
0.012957
0.0129567
0.0129288
0.0128762
0.0128023
0.0127116
0.0126085
0.000116946
0.000836008
0.00184001
0.00282583
0.00374133
0.00457708
0.00533252
0.00601022
0.00661444
0.00715054
0.00762459
0.00804294
0.00841203
0.00873811
0.00902711
0.00928456
0.00951557
0.0097248
0.0099165
0.0100946
0.0102625
0.0104236
0.0105807
0.0107364
0.0108931
0.0110525
0.0112161
0.0113846
0.0115582
0.0117362
0.0119171
0.0120984
0.0122769
0.0124487
0.0126095
0.0127547
0.0128801
0.0129821
0.0130578
0.0131057
0.0131252
0.0131172
0.0130836
0.0130271
0.0129512
0.000118041
0.000839438
0.00183825
0.00282066
0.00373562
0.00457196
0.0053274
0.00600341
0.00660377
0.00713387
0.00760006
0.00800919
0.00836817
0.00868373
0.00896216
0.00920929
0.0094304
0.00963026
0.00981315
0.00998292
0.010143
0.0102967
0.0104467
0.0105956
0.0107457
0.010899
0.0110572
0.0112213
0.011392
0.0115692
0.0117522
0.0119392
0.0121281
0.0123155
0.0124977
0.0126704
0.0128294
0.0129704
0.0130898
0.0131846
0.0132528
0.0132934
0.0133067
0.0132935
0.0132559
0.00011948
0.000844788
0.00184165
0.00282507
0.0037439
0.00458443
0.00534231
0.00601784
0.00661445
0.00713777
0.0075947
0.00799279
0.00833964
0.00864258
0.0089084
0.00914327
0.0093527
0.00954156
0.00971415
0.0098743
0.0100254
0.0101704
0.0103122
0.0104532
0.0105957
0.0107416
0.0108926
0.0110502
0.0112153
0.0113883
0.0115691
0.0117569
0.01195
0.0121461
0.0123421
0.0125344
0.012719
0.0128917
0.0130483
0.0131852
0.0132991
0.0133879
0.01345
0.0134848
0.0134928
0.000121305
0.000852135
0.00185088
0.00284058
0.00376839
0.00461716
0.00538009
0.00605628
0.00664904
0.00716449
0.00761043
0.00799537
0.00832783
0.00861589
0.00886695
0.00908756
0.00928349
0.00945972
0.00962057
0.00976979
0.00991066
0.0100461
0.0101787
0.0103107
0.0104444
0.0105817
0.0107243
0.0108736
0.0110309
0.0111969
0.011372
0.0115559
0.0117478
0.0119461
0.0121486
0.0123523
0.0125538
0.0127493
0.0129346
0.0131057
0.013259
0.013391
0.0134992
0.0135817
0.0136373
0.00012357
0.00086166
0.00186695
0.00286919
0.00381188
0.00467338
0.00544401
0.00612175
0.00671009
0.0072161
0.00764884
0.00801815
0.00833369
0.00860447
0.00883853
0.00904289
0.00922354
0.00938558
0.00953329
0.00967036
0.00979992
0.0099247
0.0100471
0.0101694
0.0102935
0.0104212
0.0105541
0.0106938
0.0108416
0.0109984
0.0111648
0.0113412
0.0115272
0.0117221
0.0119242
0.0121316
0.0123414
0.0125503
0.0127547
0.0129507
0.0131342
0.0133016
0.0134493
0.0135746
0.013675
0.000126345
0.000873723
0.00189139
0.00291369
0.0038781
0.00475716
0.00553796
0.00621758
0.00680019
0.00729441
0.00771111
0.00806182
0.00835761
0.00860854
0.00882336
0.00900953
0.00917325
0.00931965
0.009453
0.00957683
0.0096941
0.00980737
0.00991884
0.0100305
0.0101441
0.0102614
0.0103839
0.0105129
0.0106498
0.0107956
0.0109512
0.0111172
0.0112937
0.0114804
0.0116766
0.0118808
0.012091
0.0123046
0.0125186
0.0127293
0.0129331
0.0131259
0.0133041
0.013464
0.0136026
0.000129722
0.000888953
0.00192643
0.00297807
0.00397214
0.00487384
0.00566672
0.00634749
0.00692186
0.00740084
0.00779778
0.00812634
0.00839923
0.00862763
0.00882102
0.00898721
0.00913254
0.00926212
0.00938008
0.00948979
0.00959399
0.009695
0.00979483
0.00989522
0.00999777
0.010104
0.0102152
0.0103327
0.0104577
0.0105913
0.0107344
0.0108879
0.011052
0.0112271
0.0114127
0.0116081
0.011812
0.0120226
0.0122374
0.0124534
0.0126673
0.0128755
0.013074
0.013259
0.013427
0.000133814
0.000908403
0.0019755
0.00306812
0.00410115
0.00503052
0.00583624
0.00651568
0.00707748
0.00753623
0.00790857
0.00821074
0.00845728
0.00866048
0.0088304
0.00897508
0.00910087
0.00921274
0.0093146
0.00940957
0.00950014
0.00958838
0.00967604
0.00976465
0.00985559
0.00995014
0.0100495
0.0101548
0.0102672
0.0103877
0.0105171
0.0106565
0.0108063
0.0109669
0.0111385
0.0113209
0.0115132
0.0117143
0.0119224
0.0121353
0.0123503
0.012564
0.0127729
0.0129732
0.0131611
0.000138776
0.000933867
0.00204401
0.00319275
0.00427561
0.00523696
0.00605395
0.0067267
0.0072689
0.00770037
0.00804196
0.00831287
0.00852943
0.00870487
0.0088496
0.00897167
0.0090772
0.00917088
0.0092563
0.00933625
0.00941291
0.00948809
0.00956326
0.00963974
0.00971867
0.00980115
0.0098882
0.00998081
0.0100799
0.0101865
0.0103014
0.0104255
0.0105594
0.0107038
0.0108589
0.0110248
0.0112014
0.0113879
0.0115834
0.0117861
0.0119941
0.0122047
0.012415
0.0126213
0.01282
0.000144842
0.000968554
0.00214108
0.00336624
0.00451133
0.00550672
0.00632904
0.00698505
0.00749685
0.00789146
0.0081948
0.00842908
0.00861212
0.00875766
0.00887604
0.00897495
0.00906006
0.00913558
0.00920465
0.00926966
0.00933246
0.00939453
0.00945711
0.00952126
0.00958793
0.00965801
0.00973236
0.00981181
0.00989718
0.00998928
0.0100889
0.0101968
0.0103138
0.0104403
0.010577
0.0107241
0.0108817
0.0110497
0.0112276
0.0114143
0.0116085
0.0118085
0.0120118
0.0122156
0.0124167
0.000152354
0.00101833
0.0022828
0.00361276
0.00483295
0.00585858
0.00667212
0.00729407
0.00775963
0.00810505
0.0083616
0.00855392
0.00870049
0.00881479
0.00890648
0.00898246
0.00904766
0.00910561
0.0091589
0.00920946
0.00925876
0.00930796
0.00935805
0.00940985
0.00946413
0.00952159
0.00958292
0.00964881
0.00971994
0.00979699
0.00988065
0.00997161
0.0100705
0.0101781
0.0102947
0.0104209
0.0105571
0.0107033
0.0108595
0.0110252
0.0111998
0.0113822
0.011571
0.0117641
0.0119592
0.000161743
0.00109468
0.00250044
0.00397603
0.00527994
0.00631772
0.00709343
0.00765329
0.00805097
0.00833276
0.00853399
0.00868003
0.00878852
0.00887155
0.00893736
0.00899158
0.00903811
0.00907968
0.00911824
0.00915521
0.00919168
0.00922851
0.00926642
0.00930604
0.00934792
0.00939263
0.00944069
0.00949263
0.00954902
0.00961041
0.00967737
0.00975049
0.00983036
0.00991756
0.0100126
0.0101161
0.0102283
0.0103497
0.0104805
0.0106207
0.0107701
0.0109284
0.011095
0.0112689
0.0114489
0.000173609
0.00122452
0.00286453
0.00454265
0.00591619
0.00691401
0.00759704
0.00805325
0.00835686
0.00856082
0.00870042
0.00879845
0.00886954
0.00892308
0.00896517
0.00899981
0.00902969
0.00905663
0.00908192
0.00910652
0.00913112
0.00915631
0.00918256
0.0092103
0.00923994
0.00927185
0.00930642
0.00934407
0.0093852
0.00943023
0.00947963
0.00953386
0.0095934
0.00965874
0.00973037
0.00980878
0.00989442
0.00998773
0.0100891
0.0101988
0.0103171
0.0104442
0.0105801
0.0107249
0.0108786
0.000189456
0.00149089
0.00357343
0.00550076
0.00683803
0.00766755
0.00816595
0.00846672
0.0086521
0.00876974
0.00884698
0.00889966
0.00893716
0.00896514
0.0089871
0.00900527
0.00902113
0.00903564
0.00904949
0.00906319
0.00907712
0.00909159
0.00910688
0.00912324
0.00914089
0.00916009
0.00918107
0.0092041
0.00922944
0.00925737
0.00928821
0.00932227
0.0093599
0.00940145
0.00944729
0.0094978
0.00955337
0.0096144
0.00968127
0.00975438
0.00983416
0.00992105
0.0100156
0.0101184
0.0102306
0.00021405
0.00234948
0.00541755
0.00727027
0.00813185
0.00853353
0.00873307
0.00883954
0.00890019
0.0089368
0.0089601
0.00897571
0.00898674
0.00899497
0.00900148
0.00900695
0.00901181
0.00901634
0.00902075
0.00902519
0.00902979
0.00903464
0.00903982
0.00904544
0.00905156
0.00905828
0.00906568
0.00907387
0.00908294
0.00909301
0.0091042
0.00911664
0.00913047
0.00914584
0.0091629
0.00918184
0.00920282
0.00922604
0.00925171
0.00928006
0.00931135
0.00934589
0.0093841
0.00942657
0.00947421
)
;

boundaryField
{
    leftWall
    {
        type            nutkWallFunction;
        Cmu             0.09;
        kappa           0.41;
        E               9.8;
        value           nonuniform List<scalar> 
42
(
1.12196e-05
1.1136e-05
1.10302e-05
1.09042e-05
1.07594e-05
1.05944e-05
1.04112e-05
1.0212e-05
9.9993e-06
9.77556e-06
9.54367e-06
9.30665e-06
9.06773e-06
8.83027e-06
8.59773e-06
8.37358e-06
8.16124e-06
7.96405e-06
7.78521e-06
7.62776e-06
7.49456e-06
7.38838e-06
7.31188e-06
7.26768e-06
7.25848e-06
7.28706e-06
7.35645e-06
7.47004e-06
7.63184e-06
7.84683e-06
8.12135e-06
8.46359e-06
8.88412e-06
9.39633e-06
1.0017e-05
1.07682e-05
1.1683e-05
1.28096e-05
1.42074e-05
1.59579e-05
1.827e-05
2.1813e-05
)
;
    }
    rightWall
    {
        type            nutkWallFunction;
        Cmu             0.09;
        kappa           0.41;
        E               9.8;
        value           nonuniform 0();
    }
    lowerWall
    {
        type            nutkWallFunction;
        Cmu             0.09;
        kappa           0.41;
        E               9.8;
        value           nonuniform 0();
    }
    atmosphere
    {
        type            calculated;
        value           uniform 0.009;
    }
    defaultFaces
    {
        type            empty;
    }
    procBoundary2to0
    {
        type            processor;
        value           nonuniform List<scalar> 
46
(
0.0122901
0.012422
0.0125316
0.0126184
0.0126815
0.0127201
0.0127335
0.0127215
0.0126845
0.0126238
0.0125414
0.01244
0.0123231
0.012194
0.0120564
0.0119129
0.011766
0.011617
0.0114663
0.0113136
0.0111582
0.010999
0.010835
0.0106659
0.0104921
0.000140987
0.000999868
0.00225354
0.00351486
0.00468376
0.0057348
0.006666
0.00748453
0.0082011
0.0088274
0.0093748
0.00985381
0.0102738
0.010643
0.0109683
0.0112558
0.0115102
0.0117355
0.0119346
0.0121095
0.0121095
)
;
    }
    procBoundary2to3
    {
        type            processor;
        value           nonuniform List<scalar> 
43
(
0.00999703
0.00971148
0.00946562
0.00926516
0.00911374
0.00901258
0.00896046
0.00895395
0.00898797
0.00905637
0.00915249
0.00926966
0.00940169
0.00954202
0.00969044
0.00984562
0.0100059
0.0101699
0.0103363
0.010505
0.0106772
0.010857
0.0110512
0.0112692
0.0115204
0.0118113
0.0121408
0.0124976
0.0128598
0.0131967
0.0134753
0.0136662
0.0137495
0.0137178
0.013575
0.0133332
0.0130076
0.0126118
0.0121537
0.0116336
0.0110415
0.0103536
0.00952857
)
;
    }
}


// ************************************************************************* //
