/*--------------------------------*- C++ -*----------------------------------*\
| =========                 |                                                 |
| \\      /  F ield         | OpenFOAM: The Open Source CFD Toolbox           |
|  \\    /   O peration     | Version:  5.0                                   |
|   \\  /    A nd           | Web:      www.OpenFOAM.org                      |
|    \\/     M anipulation  |                                                 |
\*---------------------------------------------------------------------------*/
FoamFile
{
    version     2.0;
    format      ascii;
    class       volScalarField;
    location    "0.45";
    object      p;
}
// * * * * * * * * * * * * * * * * * * * * * * * * * * * * * * * * * * * * * //

dimensions      [1 -1 -2 0 0 0 0];

internalField   nonuniform List<scalar> 
1915
(
-3.09222
-3.11467
-3.1386
-3.16407
-3.19118
-3.22006
-3.25086
-3.28374
-3.31888
-3.35647
-3.39671
-3.43977
-3.48582
-3.53494
-3.58716
-3.64241
-3.7005
-3.76119
-3.82418
-3.88917
-3.95595
-4.02442
-4.09458
-4.16724
-4.24333
-2.96906
-2.97037
-2.97165
-2.97385
-2.97691
-2.98089
-2.98586
-2.99182
-2.99882
-3.00687
-3.01598
-3.02618
-3.03748
-3.04988
-3.06342
-3.07808
-3.09389
-3.11087
-3.12906
-3.14855
-3.16941
-3.19169
-3.2154
-3.2406
-3.2674
-3.29593
-3.32635
-3.35883
-3.39358
-3.43081
-3.47072
-3.51352
-3.55937
-3.60835
-3.66047
-3.71563
-3.77366
-3.83428
-3.89723
-3.96228
-4.02931
-4.09833
-4.16941
-4.2431
-4.32089
-3.04382
-3.04519
-3.04682
-3.04933
-3.05269
-3.05696
-3.06215
-3.06831
-3.07545
-3.08361
-3.09281
-3.10306
-3.11438
-3.12679
-3.14031
-3.15495
-3.17072
-3.18765
-3.20579
-3.22519
-3.24591
-3.26798
-3.29144
-3.31636
-3.34284
-3.37102
-3.40107
-3.43317
-3.46756
-3.50446
-3.54411
-3.58673
-3.63246
-3.68138
-3.73348
-3.78864
-3.84664
-3.90723
-3.97018
-4.03533
-4.10269
-4.17244
-4.24482
-4.32025
-4.39957
-3.11811
-3.1195
-3.12143
-3.12424
-3.12789
-3.1324
-3.1378
-3.14413
-3.1514
-3.15965
-3.16891
-3.1792
-3.19054
-3.20295
-3.21645
-3.23106
-3.24679
-3.26367
-3.28174
-3.30103
-3.32159
-3.34344
-3.36664
-3.39127
-3.41742
-3.44524
-3.4749
-3.50663
-3.54067
-3.57728
-3.61672
-3.65921
-3.70491
-3.75387
-3.80604
-3.86128
-3.91936
-3.98003
-4.04308
-4.10844
-4.17623
-4.24674
-4.32035
-4.39748
-4.47853
-3.1919
-3.1933
-3.1955
-3.19858
-3.20248
-3.20721
-3.21279
-3.21926
-3.22664
-3.23496
-3.24426
-3.25457
-3.26591
-3.27831
-3.29178
-3.30635
-3.32203
-3.33885
-3.35683
-3.376
-3.39639
-3.41803
-3.44097
-3.46529
-3.4911
-3.51855
-3.54784
-3.5792
-3.61291
-3.64926
-3.68853
-3.73093
-3.77663
-3.82567
-3.87797
-3.93334
-3.99155
-4.05235
-4.11558
-4.18124
-4.24953
-4.32082
-4.39559
-4.4742
-4.55682
-3.26523
-3.26655
-3.26903
-3.27236
-3.27648
-3.28139
-3.28711
-3.29369
-3.30115
-3.30952
-3.31885
-3.32916
-3.34049
-3.35286
-3.36629
-3.38081
-3.39643
-3.41317
-3.43105
-3.45008
-3.47029
-3.49171
-3.51439
-3.5384
-3.56387
-3.59095
-3.61986
-3.65087
-3.68427
-3.72037
-3.75948
-3.80182
-3.84753
-3.89665
-3.94906
-4.00455
-4.06288
-4.1238
-4.18722
-4.2532
-4.32202
-4.39412
-4.46999
-4.54992
-4.63388
-3.33801
-3.33938
-3.34204
-3.34557
-3.34987
-3.35492
-3.36076
-3.36742
-3.37493
-3.38334
-3.39267
-3.40297
-3.41427
-3.42659
-3.43996
-3.45441
-3.46995
-3.4866
-3.50435
-3.52324
-3.54326
-3.56445
-3.58685
-3.61056
-3.63567
-3.66239
-3.69093
-3.72158
-3.75468
-3.79054
-3.82949
-3.87175
-3.91746
-3.9666
-4.01906
-4.0746
-4.13297
-4.19397
-4.25753
-4.3238
-4.39313
-4.466
-4.54286
-4.62393
-4.70898
-3.4103
-3.41175
-3.41455
-3.41824
-3.42267
-3.42783
-3.43375
-3.44047
-3.44801
-3.45642
-3.46574
-3.476
-3.48725
-3.49951
-3.51281
-3.52717
-3.54261
-3.55913
-3.57675
-3.59546
-3.61527
-3.63622
-3.65834
-3.68171
-3.70647
-3.73281
-3.76097
-3.79128
-3.82406
-3.85968
-3.89844
-3.94058
-3.98621
-4.03529
-4.08769
-4.14316
-4.20146
-4.26243
-4.32606
-4.39257
-4.46234
-4.53587
-4.61356
-4.69554
-4.78139
-3.48214
-3.48366
-3.48657
-3.49038
-3.4949
-3.50014
-3.50611
-3.51285
-3.5204
-3.5288
-3.53808
-3.54829
-3.55947
-3.57164
-3.58484
-3.59909
-3.6144
-3.63078
-3.64822
-3.66673
-3.68632
-3.70699
-3.7288
-3.75182
-3.77621
-3.80216
-3.82993
-3.85987
-3.89232
-3.92765
-3.96618
-4.00811
-4.05355
-4.10245
-4.15463
-4.20988
-4.26797
-4.32879
-4.39238
-4.45902
-4.52912
-4.60316
-4.68148
-4.76409
-4.85046
-3.55358
-3.55514
-3.55814
-3.56202
-3.5666
-3.57188
-3.57788
-3.58462
-3.59215
-3.60051
-3.60973
-3.61987
-3.63095
-3.64302
-3.6561
-3.67021
-3.68536
-3.70155
-3.71879
-3.73707
-3.75638
-3.77675
-3.79822
-3.82087
-3.84485
-3.87039
-3.89775
-3.92729
-3.95937
-3.99435
-4.03254
-4.07415
-4.11926
-4.16779
-4.21958
-4.27441
-4.33212
-4.39263
-4.45607
-4.52272
-4.593
-4.66736
-4.74605
-4.829
-4.91563
-3.62463
-3.62623
-3.62927
-3.6332
-3.63782
-3.64312
-3.64911
-3.65583
-3.66331
-3.6716
-3.68075
-3.69079
-3.70175
-3.71369
-3.72662
-3.74055
-3.75551
-3.77149
-3.78849
-3.80649
-3.82549
-3.84551
-3.86659
-3.88883
-3.91237
-3.93746
-3.96437
-3.99345
-4.02509
-4.05964
-4.09739
-4.13853
-4.18311
-4.23107
-4.28224
-4.33644
-4.39356
-4.4536
-4.51671
-4.58321
-4.65349
-4.72793
-4.80672
-4.88974
-4.97639
-3.69534
-3.69696
-3.70003
-3.70397
-3.7086
-3.71388
-3.71984
-3.72651
-3.73393
-3.74214
-3.75118
-3.76109
-3.77192
-3.78369
-3.79644
-3.81017
-3.8249
-3.84063
-3.85734
-3.87501
-3.89366
-3.91329
-3.93394
-3.95571
-3.97877
-4.00335
-4.02974
-4.05831
-4.08943
-4.12343
-4.16059
-4.20108
-4.24493
-4.29208
-4.34239
-4.39572
-4.45201
-4.51135
-4.57392
-4.64006
-4.71011
-4.78437
-4.86297
-4.94578
-5.03224
-3.76574
-3.76737
-3.77043
-3.77438
-3.77899
-3.78423
-3.79014
-3.79674
-3.80407
-3.81217
-3.82108
-3.83084
-3.8415
-3.85308
-3.86561
-3.8791
-3.89357
-3.90899
-3.92537
-3.94268
-3.96092
-3.9801
-4.00027
-4.02153
-4.04404
-4.06806
-4.09387
-4.12184
-4.15232
-4.18563
-4.22204
-4.26167
-4.30457
-4.35065
-4.39983
-4.45202
-4.50723
-4.56561
-4.62739
-4.69289
-4.7624
-4.83615
-4.91423
-4.99656
-5.08261
-3.83585
-3.83748
-3.84053
-3.84446
-3.84902
-3.85421
-3.86004
-3.86655
-3.87377
-3.88173
-3.89049
-3.90008
-3.91053
-3.92189
-3.93417
-3.94739
-3.96154
-3.97663
-3.99263
-4.00952
-4.0273
-4.04598
-4.06562
-4.0863
-4.10822
-4.1316
-4.15676
-4.18403
-4.21375
-4.24624
-4.28171
-4.32028
-4.36197
-4.40673
-4.45449
-4.50525
-4.55908
-4.61619
-4.67684
-4.74134
-4.80992
-4.88276
-4.95995
-5.04144
-5.12679
-3.9057
-3.90733
-3.91036
-3.91424
-3.91875
-3.92386
-3.9296
-3.93599
-3.94307
-3.95088
-3.95945
-3.96883
-3.97906
-3.99016
-4.00216
-4.01506
-4.02886
-4.04356
-4.05913
-4.07556
-4.09283
-4.11096
-4.13001
-4.15006
-4.17131
-4.194
-4.21841
-4.24488
-4.27373
-4.30524
-4.3396
-4.3769
-4.41716
-4.46033
-4.5064
-4.55542
-4.60755
-4.66303
-4.72216
-4.78522
-4.8524
-4.92384
-4.99964
-5.07982
-5.16405
-3.97532
-3.97695
-3.97993
-3.98376
-3.98819
-3.99321
-3.99883
-4.00509
-4.01201
-4.01964
-4.028
-4.03715
-4.04712
-4.05792
-4.0696
-4.08214
-4.09555
-4.10982
-4.12492
-4.14083
-4.15754
-4.17507
-4.19346
-4.21283
-4.23335
-4.25526
-4.27885
-4.30442
-4.33228
-4.36266
-4.39574
-4.43158
-4.47018
-4.51153
-4.55564
-4.60264
-4.65273
-4.7062
-4.76337
-4.82448
-4.8897
-4.95916
-5.03298
-5.11127
-5.19375
-4.04473
-4.04635
-4.04929
-4.05304
-4.05739
-4.06229
-4.06778
-4.07388
-4.08062
-4.08804
-4.09618
-4.10506
-4.11473
-4.12521
-4.13652
-4.14867
-4.16165
-4.17544
-4.19002
-4.20537
-4.22147
-4.23833
-4.25602
-4.27464
-4.29437
-4.31543
-4.3381
-4.36267
-4.38941
-4.41854
-4.45019
-4.48439
-4.52115
-4.56046
-4.60238
-4.64708
-4.6948
-4.74588
-4.80061
-4.85924
-4.92189
-4.98872
-5.05988
-5.13554
-5.21551
-4.11395
-4.11557
-4.11845
-4.12212
-4.12636
-4.13114
-4.13648
-4.1424
-4.14894
-4.15613
-4.164
-4.17259
-4.18193
-4.19205
-4.20297
-4.21468
-4.22718
-4.24045
-4.25446
-4.2692
-4.28463
-4.30079
-4.31772
-4.33553
-4.35439
-4.37453
-4.3962
-4.41967
-4.44519
-4.47294
-4.50301
-4.53543
-4.57018
-4.60727
-4.6468
-4.68895
-4.73402
-4.78233
-4.83417
-4.88976
-4.94924
-5.01274
-5.08049
-5.15269
-5.22925
-4.183
-4.18462
-4.18743
-4.19102
-4.19514
-4.19978
-4.20495
-4.21068
-4.21699
-4.22392
-4.2315
-4.23977
-4.24876
-4.25848
-4.26896
-4.2802
-4.29218
-4.30489
-4.31829
-4.33237
-4.34709
-4.36249
-4.37861
-4.39555
-4.41348
-4.43262
-4.4532
-4.47548
-4.49967
-4.52592
-4.5543
-4.58481
-4.61742
-4.65216
-4.68913
-4.72853
-4.77067
-4.81588
-4.86442
-4.91648
-4.97219
-5.0317
-5.09527
-5.16314
-5.23528
-4.25191
-4.25353
-4.25627
-4.25976
-4.26375
-4.26823
-4.27322
-4.27873
-4.2848
-4.29145
-4.29872
-4.30664
-4.31523
-4.32453
-4.33454
-4.34527
-4.35669
-4.3688
-4.38155
-4.39492
-4.4089
-4.42349
-4.43874
-4.45476
-4.4717
-4.48976
-4.50918
-4.53018
-4.55294
-4.5776
-4.60418
-4.63267
-4.66305
-4.69532
-4.72959
-4.76609
-4.8051
-4.84693
-4.89181
-4.93991
-4.99134
-5.04626
-5.10493
-5.16761
-5.23434
-4.3207
-4.32232
-4.32499
-4.32837
-4.33222
-4.33653
-4.34132
-4.3466
-4.3524
-4.35875
-4.36568
-4.37322
-4.3814
-4.39025
-4.39976
-4.40993
-4.42077
-4.43223
-4.4443
-4.45693
-4.47011
-4.48385
-4.49819
-4.51323
-4.52912
-4.54604
-4.56422
-4.58386
-4.60511
-4.62808
-4.65279
-4.67919
-4.70725
-4.73698
-4.76847
-4.80195
-4.83767
-4.87591
-4.91688
-4.96069
-5.00744
-5.05727
-5.11043
-5.16719
-5.22762
-4.3894
-4.39102
-4.39361
-4.39687
-4.40058
-4.40471
-4.40929
-4.41432
-4.41983
-4.42586
-4.43243
-4.43957
-4.44731
-4.45567
-4.46464
-4.47425
-4.48446
-4.49525
-4.50659
-4.51844
-4.53079
-4.54364
-4.55703
-4.57105
-4.58584
-4.60157
-4.61844
-4.63664
-4.65631
-4.67753
-4.70029
-4.72455
-4.75024
-4.77738
-4.80605
-4.83643
-4.86878
-4.90331
-4.94019
-4.9795
-5.0213
-5.06572
-5.11296
-5.16324
-5.2167
-4.45805
-4.45966
-4.46217
-4.46532
-4.46887
-4.47281
-4.47715
-4.48192
-4.48714
-4.49283
-4.49901
-4.50573
-4.513
-4.52084
-4.52926
-4.53826
-4.54782
-4.55791
-4.56849
-4.57955
-4.59104
-4.60297
-4.61537
-4.62833
-4.64197
-4.65645
-4.67196
-4.68867
-4.7067
-4.7261
-4.74688
-4.76896
-4.79226
-4.81679
-4.84261
-4.86989
-4.89882
-4.9296
-4.96234
-4.99706
-5.03381
-5.07266
-5.11377
-5.15732
-5.20343
-4.52667
-4.52829
-4.53071
-4.53373
-4.53711
-4.54085
-4.54496
-4.54946
-4.55435
-4.55968
-4.56547
-4.57175
-4.57853
-4.58583
-4.59367
-4.60204
-4.61092
-4.62028
-4.6301
-4.64032
-4.65093
-4.66192
-4.67331
-4.68518
-4.69763
-4.71083
-4.72494
-4.7401
-4.75645
-4.77401
-4.79277
-4.81265
-4.83357
-4.8555
-4.8785
-4.90268
-4.92823
-4.95528
-4.9839
-5.01408
-5.04581
-5.07914
-5.11414
-5.15095
-5.18969
-4.5953
-4.59693
-4.59926
-4.60214
-4.60536
-4.60889
-4.61275
-4.61696
-4.62153
-4.62649
-4.63186
-4.63767
-4.64394
-4.6507
-4.65793
-4.66565
-4.67383
-4.68245
-4.69147
-4.70085
-4.71057
-4.7206
-4.73096
-4.74172
-4.75297
-4.76486
-4.77753
-4.79113
-4.80576
-4.82145
-4.83819
-4.85588
-4.87443
-4.8938
-4.91402
-4.93518
-4.95741
-4.98082
-5.00543
-5.03121
-5.0581
-5.08608
-5.1152
-5.14553
-5.17717
-4.664
-4.66562
-4.66786
-4.67061
-4.67365
-4.67697
-4.68058
-4.68449
-4.68872
-4.69329
-4.69823
-4.70357
-4.70931
-4.71549
-4.72211
-4.72916
-4.73663
-4.74449
-4.75271
-4.76124
-4.77004
-4.77911
-4.78844
-4.79808
-4.80812
-4.81868
-4.82991
-4.84193
-4.85483
-4.86866
-4.88338
-4.8989
-4.91513
-4.932
-4.94952
-4.96774
-4.98677
-5.00668
-5.02747
-5.04907
-5.07139
-5.09436
-5.11797
-5.14225
-5.16729
-4.7328
-4.73442
-4.73657
-4.73918
-4.74204
-4.74514
-4.74848
-4.75209
-4.75597
-4.76014
-4.76464
-4.76949
-4.7747
-4.78029
-4.78628
-4.79265
-4.7994
-4.80649
-4.81389
-4.82156
-4.82946
-4.83756
-4.84585
-4.85439
-4.86322
-4.87247
-4.88225
-4.89269
-4.90388
-4.91585
-4.92858
-4.94198
-4.95595
-4.9704
-4.98531
-5.00072
-5.0167
-5.0333
-5.05049
-5.06819
-5.08627
-5.10464
-5.12324
-5.14206
-5.16114
-4.80176
-4.80337
-4.80541
-4.80788
-4.81057
-4.81345
-4.81653
-4.81982
-4.82334
-4.82711
-4.83116
-4.8355
-4.84017
-4.84517
-4.85051
-4.8562
-4.86221
-4.86853
-4.87512
-4.88193
-4.88892
-4.89606
-4.90334
-4.91077
-4.91842
-4.92637
-4.93473
-4.94362
-4.95312
-4.96327
-4.97405
-4.98538
-4.99716
-5.00929
-5.02172
-5.03447
-5.04758
-5.06107
-5.07492
-5.08902
-5.10325
-5.11747
-5.1316
-5.14559
-5.15947
-4.87092
-4.87251
-4.87446
-4.87679
-4.87929
-4.88195
-4.88476
-4.88773
-4.89089
-4.89425
-4.89784
-4.90167
-4.90579
-4.91019
-4.91488
-4.91988
-4.92516
-4.93071
-4.93648
-4.94243
-4.94853
-4.95473
-4.96101
-4.96737
-4.97386
-4.98055
-4.98752
-4.9949
-5.00275
-5.01112
-5.02001
-5.02935
-5.03903
-5.04895
-5.05905
-5.0693
-5.07973
-5.09034
-5.10112
-5.11196
-5.12272
-5.13326
-5.14347
-5.15327
-5.16269
-4.94033
-4.9419
-4.94375
-4.94595
-4.94828
-4.95071
-4.95324
-4.9559
-4.95868
-4.96162
-4.96475
-4.96807
-4.97163
-4.97543
-4.97948
-4.98378
-4.98833
-4.99311
-4.99807
-5.00318
-5.0084
-5.01367
-5.01898
-5.02431
-5.02968
-5.03515
-5.0408
-5.04672
-5.05298
-5.05965
-5.06671
-5.07414
-5.08182
-5.08965
-5.09756
-5.1055
-5.11346
-5.12145
-5.12943
-5.13734
-5.14502
-5.15233
-5.15915
-5.16539
-5.17106
-5.01006
-5.0116
-5.01335
-5.01542
-5.01758
-5.01978
-5.02205
-5.02437
-5.02678
-5.0293
-5.03195
-5.03477
-5.03777
-5.04097
-5.04437
-5.04799
-5.05182
-5.05583
-5.05999
-5.06428
-5.06863
-5.07301
-5.07738
-5.08171
-5.08602
-5.09034
-5.09472
-5.09925
-5.10401
-5.10905
-5.11438
-5.11997
-5.12576
-5.13164
-5.13751
-5.14332
-5.14904
-5.15465
-5.16014
-5.16542
-5.17039
-5.17491
-5.17884
-5.18209
-5.18465
-5.08016
-5.08165
-5.08331
-5.08526
-5.08726
-5.08924
-5.09123
-5.09322
-5.09525
-5.09735
-5.09953
-5.10183
-5.10428
-5.10688
-5.10965
-5.11259
-5.1157
-5.11896
-5.12234
-5.12582
-5.12933
-5.13284
-5.1363
-5.13969
-5.14299
-5.14622
-5.14943
-5.15267
-5.15601
-5.15951
-5.16321
-5.16708
-5.17108
-5.17512
-5.17911
-5.18298
-5.18667
-5.19016
-5.19343
-5.19641
-5.19903
-5.20114
-5.20264
-5.20341
-5.20344
-5.15065
-5.1521
-5.15369
-5.15555
-5.15739
-5.15916
-5.16086
-5.16252
-5.16416
-5.16583
-5.16754
-5.16934
-5.17124
-5.17325
-5.1754
-5.17768
-5.18008
-5.18261
-5.18523
-5.18791
-5.1906
-5.19328
-5.19587
-5.19836
-5.20072
-5.20294
-5.20505
-5.2071
-5.20914
-5.21122
-5.21339
-5.21566
-5.21799
-5.22032
-5.22257
-5.22466
-5.22653
-5.22814
-5.22946
-5.23045
-5.23103
-5.2311
-5.23056
-5.22931
-5.22732
-5.22156
-5.22302
-5.22457
-5.22636
-5.22805
-5.2296
-5.23101
-5.23232
-5.23358
-5.23482
-5.23607
-5.23736
-5.23872
-5.24016
-5.2417
-5.24333
-5.24506
-5.24687
-5.24874
-5.25065
-5.25256
-5.25443
-5.2562
-5.25783
-5.2593
-5.26059
-5.2617
-5.26266
-5.26352
-5.26432
-5.2651
-5.26588
-5.26667
-5.26741
-5.26806
-5.26853
-5.26877
-5.26872
-5.26835
-5.26762
-5.26647
-5.26483
-5.2626
-5.25972
-5.25613
-5.293
-5.29452
-5.29604
-5.29779
-5.29933
-5.30064
-5.30175
-5.30271
-5.30357
-5.30438
-5.30517
-5.30597
-5.30681
-5.3077
-5.30864
-5.30965
-5.31072
-5.31184
-5.313
-5.31417
-5.31531
-5.3164
-5.31738
-5.31821
-5.31885
-5.31928
-5.31948
-5.31947
-5.31927
-5.31892
-5.31845
-5.31791
-5.31729
-5.31659
-5.31576
-5.31476
-5.31352
-5.31201
-5.31017
-5.30797
-5.30537
-5.30231
-5.29872
-5.29454
-5.2897
-5.36512
-5.36673
-5.36818
-5.3699
-5.3713
-5.37236
-5.37314
-5.37374
-5.3742
-5.37458
-5.37492
-5.37525
-5.37558
-5.37594
-5.37632
-5.37673
-5.37717
-5.37763
-5.3781
-5.37855
-5.37897
-5.37931
-5.37953
-5.3796
-5.37947
-5.3791
-5.37848
-5.3776
-5.37647
-5.37511
-5.37355
-5.37184
-5.36998
-5.36798
-5.36583
-5.36349
-5.36094
-5.35812
-5.355
-5.35155
-5.34773
-5.34351
-5.33883
-5.33363
-5.32788
-5.43761
-5.43969
-5.44095
-5.44274
-5.44403
-5.44482
-5.44527
-5.44548
-5.44554
-5.4455
-5.4454
-5.44527
-5.44513
-5.44497
-5.44481
-5.44466
-5.44449
-5.44433
-5.44414
-5.44391
-5.44363
-5.44326
-5.44276
-5.44211
-5.44124
-5.44014
-5.43877
-5.43712
-5.43517
-5.43294
-5.43045
-5.42773
-5.4248
-5.42168
-5.41836
-5.41485
-5.41113
-5.40716
-5.40293
-5.39841
-5.39357
-5.3884
-5.38285
-5.3769
-5.3705
-5.50915
-5.51371
-5.51461
-5.51652
-5.51768
-5.51816
-5.51822
-5.51803
-5.51768
-5.51723
-5.51671
-5.51614
-5.51553
-5.51489
-5.51422
-5.51353
-5.5128
-5.51204
-5.51123
-5.51036
-5.50941
-5.50836
-5.50719
-5.50584
-5.50429
-5.50251
-5.50045
-5.4981
-5.49544
-5.49247
-5.48919
-5.48563
-5.48181
-5.47774
-5.47345
-5.46893
-5.4642
-5.45925
-5.45406
-5.44863
-5.44295
-5.43701
-5.43078
-5.42425
-5.41743
-5.57922
-5.58973
-5.58978
-5.59166
-5.59249
-5.5925
-5.59209
-5.59146
-5.59069
-5.58982
-5.58889
-5.58789
-5.58685
-5.58575
-5.5846
-5.58339
-5.58213
-5.58081
-5.57942
-5.57794
-5.57637
-5.57469
-5.57286
-5.57087
-5.56868
-5.56626
-5.56357
-5.5606
-5.55731
-5.5537
-5.54976
-5.54551
-5.54096
-5.53614
-5.53105
-5.52573
-5.52018
-5.51442
-5.50845
-5.50228
-5.49592
-5.48936
-5.48262
-5.47568
-5.46858
-5.65114
-5.66896
-5.66628
-5.66789
-5.66832
-5.66777
-5.66684
-5.66576
-5.66458
-5.66332
-5.66198
-5.66057
-5.6591
-5.65756
-5.65594
-5.65426
-5.6525
-5.65065
-5.64871
-5.64668
-5.64453
-5.64225
-5.63982
-5.63723
-5.63444
-5.63142
-5.62815
-5.6246
-5.62076
-5.61659
-5.61211
-5.6073
-5.60218
-5.59677
-5.59108
-5.58515
-5.57899
-5.57262
-5.56606
-5.55934
-5.55248
-5.54548
-5.53837
-5.53117
-5.52391
-5.72429
-5.75616
-5.74457
-5.74512
-5.74535
-5.74441
-5.74301
-5.74149
-5.73989
-5.73821
-5.73646
-5.73463
-5.73274
-5.73077
-5.72871
-5.72657
-5.72434
-5.72201
-5.71957
-5.71702
-5.71434
-5.71151
-5.70853
-5.70538
-5.70204
-5.69847
-5.69467
-5.6906
-5.68626
-5.68162
-5.67667
-5.67142
-5.66586
-5.66002
-5.65391
-5.64755
-5.64098
-5.63421
-5.62728
-5.62021
-5.61304
-5.6058
-5.5985
-5.59119
-5.5839
-5.76576
-5.87472
-5.83793
-5.82896
-5.82632
-5.82406
-5.82169
-5.8194
-5.81718
-5.81497
-5.81274
-5.81047
-5.80814
-5.80575
-5.80328
-5.80072
-5.79806
-5.79529
-5.79241
-5.78939
-5.78624
-5.78294
-5.77947
-5.77582
-5.77198
-5.76794
-5.76367
-5.75915
-5.75438
-5.74935
-5.74404
-5.73846
-5.73261
-5.7265
-5.72015
-5.71358
-5.70682
-5.69988
-5.69282
-5.68565
-5.67843
-5.67117
-5.66393
-5.65674
-5.64963
-5.72811
-6.03921
-5.95826
-5.92242
-5.91089
-5.90471
-5.90006
-5.89631
-5.89308
-5.89012
-5.88728
-5.88448
-5.88167
-5.87882
-5.87591
-5.87292
-5.86983
-5.86663
-5.8633
-5.85984
-5.85623
-5.85246
-5.84852
-5.8444
-5.8401
-5.83559
-5.83088
-5.82596
-5.82082
-5.81545
-5.80986
-5.80404
-5.79802
-5.79178
-5.78537
-5.77878
-5.77204
-5.76519
-5.75824
-5.75124
-5.74422
-5.7372
-5.73021
-5.72325
-5.71627
)
;

boundaryField
{
    leftWall
    {
        type            calculated;
        value           nonuniform List<scalar> 
42
(
-2.96906
-3.04382
-3.11811
-3.1919
-3.26523
-3.33801
-3.4103
-3.48214
-3.55358
-3.62463
-3.69534
-3.76574
-3.83585
-3.9057
-3.97532
-4.04473
-4.11395
-4.183
-4.25191
-4.3207
-4.3894
-4.45805
-4.52667
-4.5953
-4.664
-4.7328
-4.80176
-4.87092
-4.94033
-5.01006
-5.08016
-5.15065
-5.22156
-5.293
-5.36512
-5.43761
-5.50915
-5.57922
-5.65114
-5.72429
-5.76576
-5.72811
)
;
    }
    rightWall
    {
        type            calculated;
        value           nonuniform 0();
    }
    lowerWall
    {
        type            calculated;
        value           nonuniform 0();
    }
    atmosphere
    {
        type            calculated;
        value           nonuniform List<scalar> 
45
(
-5.82471
-5.97847
-5.96051
-5.95105
-5.9446
-5.93949
-5.93521
-5.93147
-5.92807
-5.92486
-5.92177
-5.91872
-5.91567
-5.91259
-5.90945
-5.90623
-5.90291
-5.89948
-5.89592
-5.89221
-5.88836
-5.88434
-5.88016
-5.87579
-5.87124
-5.86651
-5.86158
-5.85645
-5.85113
-5.84562
-5.83993
-5.83405
-5.828
-5.82179
-5.81544
-5.80898
-5.80241
-5.79578
-5.78912
-5.78247
-5.77587
-5.76939
-5.76307
-5.757
-5.75126
)
;
    }
    defaultFaces
    {
        type            empty;
    }
    procBoundary2to0
    {
        type            processor;
        value           nonuniform List<scalar> 
46
(
-3.01446
-3.03706
-3.06119
-3.08691
-3.11433
-3.14356
-3.17476
-3.20806
-3.24364
-3.28165
-3.32228
-3.36569
-3.41201
-3.46132
-3.51366
-3.56894
-3.62703
-3.68766
-3.75054
-3.81538
-3.88195
-3.9502
-4.02039
-4.09238
-4.16675
-2.89383
-2.89503
-2.89596
-2.89781
-2.90054
-2.90424
-2.90894
-2.9147
-2.92153
-2.92944
-2.93846
-2.9486
-2.95986
-2.97226
-2.98581
-3.0005
-3.01637
-3.03341
-3.05167
-3.07124
-3.07124
)
;
    }
    procBoundary2to3
    {
        type            processor;
        value           nonuniform List<scalar> 
43
(
-4.32262
-4.40269
-4.48318
-4.5634
-4.64303
-4.72118
-4.79706
-4.86999
-4.93935
-5.00462
-5.06536
-5.12113
-5.17131
-5.2151
-5.25157
-5.27989
-5.29944
-5.30998
-5.3117
-5.30527
-5.29196
-5.27359
-5.25236
-5.23056
-5.21026
-5.19313
-5.18047
-5.17317
-5.17166
-5.1761
-5.18647
-5.20269
-5.22454
-5.25176
-5.28414
-5.32149
-5.36361
-5.41029
-5.46134
-5.51662
-5.57665
-5.64263
-5.70913
)
;
    }
}


// ************************************************************************* //
