/*--------------------------------*- C++ -*----------------------------------*\
| =========                 |                                                 |
| \\      /  F ield         | OpenFOAM: The Open Source CFD Toolbox           |
|  \\    /   O peration     | Version:  5.0                                   |
|   \\  /    A nd           | Web:      www.OpenFOAM.org                      |
|    \\/     M anipulation  |                                                 |
\*---------------------------------------------------------------------------*/
FoamFile
{
    version     2.0;
    format      ascii;
    class       volVectorField;
    location    "0.45";
    object      U;
}
// * * * * * * * * * * * * * * * * * * * * * * * * * * * * * * * * * * * * * //

dimensions      [0 1 -1 0 0 0 0];

internalField   nonuniform List<vector> 
1915
(
(0.140244 -0.677735 0)
(0.15119 -0.668616 0)
(0.162712 -0.659775 0)
(0.174884 -0.651305 0)
(0.18779 -0.643311 0)
(0.201524 -0.635907 0)
(0.21619 -0.629218 0)
(0.231899 -0.623376 0)
(0.24877 -0.618517 0)
(0.266933 -0.614774 0)
(0.286524 -0.612273 0)
(0.307687 -0.611113 0)
(0.330574 -0.611359 0)
(0.35534 -0.61302 0)
(0.382144 -0.616023 0)
(0.411139 -0.620195 0)
(0.442463 -0.625233 0)
(0.47623 -0.630683 0)
(0.512513 -0.63592 0)
(0.551325 -0.64014 0)
(0.592593 -0.642362 0)
(0.636138 -0.641442 0)
(0.681672 -0.636113 0)
(0.728628 -0.624994 0)
(0.776576 -0.606883 0)
(0.00255733 -0.790167 0)
(0.00474935 -0.829661 0)
(0.00661919 -0.832031 0)
(0.00928827 -0.829035 0)
(0.0123392 -0.823941 0)
(0.0157912 -0.817693 0)
(0.0196464 -0.810689 0)
(0.0239037 -0.803141 0)
(0.0285588 -0.795183 0)
(0.0336043 -0.786908 0)
(0.0390311 -0.778385 0)
(0.04483 -0.769667 0)
(0.0509932 -0.760794 0)
(0.0575157 -0.751801 0)
(0.0643969 -0.742719 0)
(0.0716417 -0.733578 0)
(0.0792616 -0.724412 0)
(0.0872758 -0.715261 0)
(0.0957113 -0.706172 0)
(0.104603 -0.697198 0)
(0.113995 -0.68841 0)
(0.123946 -0.679882 0)
(0.134516 -0.671706 0)
(0.145774 -0.663984 0)
(0.157798 -0.656827 0)
(0.170676 -0.650359 0)
(0.184501 -0.644713 0)
(0.199374 -0.640031 0)
(0.2154 -0.636455 0)
(0.232696 -0.634128 0)
(0.251383 -0.633182 0)
(0.27159 -0.633726 0)
(0.293453 -0.635832 0)
(0.317114 -0.63951 0)
(0.342716 -0.644687 0)
(0.370402 -0.651182 0)
(0.400303 -0.658671 0)
(0.432529 -0.666668 0)
(0.467153 -0.674498 0)
(0.504193 -0.681284 0)
(0.543586 -0.685947 0)
(0.585167 -0.68722 0)
(0.62866 -0.683683 0)
(0.67359 -0.673831 0)
(0.719252 -0.656055 0)
(0.00163418 -0.793473 0)
(0.00281319 -0.830944 0)
(0.00382865 -0.834 0)
(0.00539963 -0.831427 0)
(0.0072921 -0.826728 0)
(0.00953798 -0.820884 0)
(0.0121521 -0.81429 0)
(0.0151432 -0.807155 0)
(0.0185149 -0.799608 0)
(0.0222678 -0.79174 0)
(0.0264005 -0.783618 0)
(0.0309113 -0.775296 0)
(0.0357995 -0.766816 0)
(0.0410669 -0.758216 0)
(0.0467191 -0.749533 0)
(0.0527664 -0.740802 0)
(0.0592247 -0.732065 0)
(0.0661165 -0.723368 0)
(0.0734709 -0.714767 0)
(0.0813235 -0.706326 0)
(0.0897201 -0.69812 0)
(0.0987129 -0.690235 0)
(0.108358 -0.682771 0)
(0.118722 -0.675836 0)
(0.129876 -0.66955 0)
(0.141896 -0.664043 0)
(0.154867 -0.659455 0)
(0.168875 -0.655933 0)
(0.184014 -0.653628 0)
(0.200382 -0.652689 0)
(0.218085 -0.653256 0)
(0.237235 -0.655446 0)
(0.257949 -0.659334 0)
(0.280351 -0.664938 0)
(0.304571 -0.672187 0)
(0.330735 -0.680891 0)
(0.358966 -0.690714 0)
(0.389367 -0.701141 0)
(0.422013 -0.711451 0)
(0.456929 -0.720699 0)
(0.494067 -0.727712 0)
(0.533278 -0.731097 0)
(0.574302 -0.729279 0)
(0.616698 -0.720576 0)
(0.659818 -0.703251 0)
(0.000892935 -0.795333 0)
(0.00117126 -0.831419 0)
(0.00141157 -0.834945 0)
(0.00198996 -0.832694 0)
(0.00283358 -0.828335 0)
(0.00398518 -0.822855 0)
(0.00546979 -0.816644 0)
(0.00730412 -0.809901 0)
(0.00949953 -0.802754 0)
(0.0120639 -0.795289 0)
(0.0150031 -0.787572 0)
(0.0183227 -0.779657 0)
(0.0220287 -0.771589 0)
(0.0261294 -0.763409 0)
(0.030636 -0.755156 0)
(0.0355637 -0.746872 0)
(0.0409323 -0.738604 0)
(0.0467671 -0.730406 0)
(0.0530987 -0.722339 0)
(0.0599636 -0.714475 0)
(0.0674047 -0.706897 0)
(0.075471 -0.699697 0)
(0.0842161 -0.692981 0)
(0.0936984 -0.686863 0)
(0.103981 -0.681468 0)
(0.115132 -0.676933 0)
(0.127221 -0.673401 0)
(0.140324 -0.671025 0)
(0.154517 -0.66996 0)
(0.169882 -0.670362 0)
(0.186507 -0.672376 0)
(0.204482 -0.676125 0)
(0.223905 -0.681692 0)
(0.244882 -0.689099 0)
(0.267521 -0.698278 0)
(0.291935 -0.709039 0)
(0.318234 -0.721036 0)
(0.346515 -0.73373 0)
(0.376855 -0.746362 0)
(0.409286 -0.75793 0)
(0.443782 -0.76717 0)
(0.480221 -0.772574 0)
(0.51837 -0.77241 0)
(0.557829 -0.764805 0)
(0.597987 -0.747822 0)
(0.000330822 -0.795944 0)
(-0.000189386 -0.831187 0)
(-0.000670026 -0.834946 0)
(-0.000975254 -0.832931 0)
(-0.00106989 -0.828861 0)
(-0.000900553 -0.823706 0)
(-0.000434004 -0.817846 0)
(0.0003534 -0.811474 0)
(0.00147986 -0.804711 0)
(0.00296013 -0.797641 0)
(0.00480702 -0.79033 0)
(0.0070326 -0.782831 0)
(0.0096494 -0.775189 0)
(0.0126714 -0.767449 0)
(0.016115 -0.759653 0)
(0.0199996 -0.751848 0)
(0.0243484 -0.744084 0)
(0.0291885 -0.736422 0)
(0.0345515 -0.728927 0)
(0.0404735 -0.721678 0)
(0.0469953 -0.714762 0)
(0.0541618 -0.708277 0)
(0.0620213 -0.702333 0)
(0.0706252 -0.697049 0)
(0.0800278 -0.692553 0)
(0.0902855 -0.688985 0)
(0.101456 -0.686492 0)
(0.1136 -0.685229 0)
(0.126778 -0.685355 0)
(0.141053 -0.687028 0)
(0.156492 -0.690398 0)
(0.173165 -0.695595 0)
(0.191148 -0.702707 0)
(0.210524 -0.711763 0)
(0.231382 -0.7227 0)
(0.253816 -0.735329 0)
(0.277922 -0.749299 0)
(0.303792 -0.76406 0)
(0.331502 -0.778822 0)
(0.3611 -0.792534 0)
(0.392581 -0.803857 0)
(0.425864 -0.811172 0)
(0.460758 -0.812601 0)
(0.496922 -0.806078 0)
(0.533813 -0.789451 0)
(-0.000105124 -0.795559 0)
(-0.00131524 -0.830292 0)
(-0.00244566 -0.834077 0)
(-0.00352995 -0.832234 0)
(-0.00445493 -0.828405 0)
(-0.00515804 -0.823537 0)
(-0.00560024 -0.817996 0)
(-0.00575205 -0.811969 0)
(-0.00558907 -0.805572 0)
(-0.00509016 -0.798887 0)
(-0.00423625 -0.791978 0)
(-0.00300916 -0.784898 0)
(-0.00139063 -0.777693 0)
(0.000638494 -0.770408 0)
(0.00309895 -0.76309 0)
(0.00601373 -0.755787 0)
(0.00940855 -0.748555 0)
(0.013312 -0.741456 0)
(0.0177558 -0.734562 0)
(0.0227748 -0.727955 0)
(0.0284068 -0.721725 0)
(0.0346922 -0.715974 0)
(0.0416731 -0.710814 0)
(0.0493934 -0.706367 0)
(0.0578974 -0.702764 0)
(0.0672302 -0.700143 0)
(0.0774364 -0.698655 0)
(0.0885601 -0.698454 0)
(0.100645 -0.6997 0)
(0.113736 -0.702554 0)
(0.127878 -0.707169 0)
(0.143119 -0.713677 0)
(0.159511 -0.722173 0)
(0.177115 -0.732694 0)
(0.195997 -0.745183 0)
(0.216231 -0.759458 0)
(0.237899 -0.77517 0)
(0.261085 -0.791763 0)
(0.285869 -0.808431 0)
(0.312312 -0.824086 0)
(0.340443 -0.837328 0)
(0.370227 -0.846443 0)
(0.401539 -0.849416 0)
(0.434115 -0.843998 0)
(0.467508 -0.827816 0)
(-0.000416047 -0.794483 0)
(-0.00222572 -0.828663 0)
(-0.0039585 -0.832424 0)
(-0.00571325 -0.830703 0)
(-0.0073617 -0.827069 0)
(-0.00883091 -0.822446 0)
(-0.0100762 -0.81719 0)
(-0.011063 -0.81148 0)
(-0.0117612 -0.805429 0)
(-0.0121441 -0.799115 0)
(-0.0121869 -0.7926 0)
(-0.0118661 -0.785937 0)
(-0.0111585 -0.779173 0)
(-0.0100405 -0.772353 0)
(-0.00848755 -0.765526 0)
(-0.00647383 -0.758743 0)
(-0.00397181 -0.752061 0)
(-0.000952163 -0.745546 0)
(0.00261613 -0.739272 0)
(0.00676574 -0.733322 0)
(0.011531 -0.727791 0)
(0.0169471 -0.72278 0)
(0.0230498 -0.718404 0)
(0.0298742 -0.714784 0)
(0.0374548 -0.712051 0)
(0.0458244 -0.710343 0)
(0.055014 -0.709809 0)
(0.0650519 -0.710601 0)
(0.0759643 -0.71288 0)
(0.0877758 -0.716805 0)
(0.100511 -0.722529 0)
(0.114194 -0.73019 0)
(0.128854 -0.739886 0)
(0.144527 -0.751662 0)
(0.161255 -0.76547 0)
(0.179092 -0.781139 0)
(0.198105 -0.79833 0)
(0.21837 -0.816492 0)
(0.239969 -0.834815 0)
(0.262984 -0.852191 0)
(0.287479 -0.867177 0)
(0.31348 -0.877985 0)
(0.340941 -0.882483 0)
(0.369705 -0.878255 0)
(0.399449 -0.862715 0)
(-0.000659818 -0.792793 0)
(-0.00297157 -0.826412 0)
(-0.00522904 -0.830088 0)
(-0.0075588 -0.828437 0)
(-0.00983151 -0.824952 0)
(-0.0119667 -0.820533 0)
(-0.0139151 -0.815525 0)
(-0.0156374 -0.810103 0)
(-0.017099 -0.804373 0)
(-0.0182682 -0.798412 0)
(-0.0191154 -0.79228 0)
(-0.0196126 -0.786027 0)
(-0.0197323 -0.779702 0)
(-0.0194476 -0.773351 0)
(-0.0187309 -0.767021 0)
(-0.0175544 -0.760766 0)
(-0.0158895 -0.754645 0)
(-0.013707 -0.748723 0)
(-0.010977 -0.743077 0)
(-0.00766921 -0.737791 0)
(-0.00375341 -0.732958 0)
(0.000800039 -0.728683 0)
(0.00601927 -0.725076 0)
(0.0119307 -0.722259 0)
(0.0185586 -0.720359 0)
(0.0259237 -0.719514 0)
(0.0340429 -0.719867 0)
(0.042929 -0.721568 0)
(0.0525907 -0.724775 0)
(0.0630331 -0.729643 0)
(0.074259 -0.736326 0)
(0.0862709 -0.744961 0)
(0.0990735 -0.755653 0)
(0.112677 -0.768452 0)
(0.127102 -0.783325 0)
(0.142379 -0.800114 0)
(0.15856 -0.818497 0)
(0.175711 -0.83794 0)
(0.193919 -0.857644 0)
(0.213287 -0.876501 0)
(0.233921 -0.893051 0)
(0.255915 -0.905455 0)
(0.279322 -0.911493 0)
(0.304112 -0.908611 0)
(0.33012 -0.894024 0)
(-0.000857158 -0.790597 0)
(-0.00358384 -0.823617 0)
(-0.00628516 -0.827159 0)
(-0.00910213 -0.825528 0)
(-0.0119077 -0.822146 0)
(-0.0146158 -0.81789 0)
(-0.0171737 -0.813095 0)
(-0.0195384 -0.807928 0)
(-0.0216713 -0.802493 0)
(-0.0235367 -0.796864 0)
(-0.0251011 -0.791098 0)
(-0.0263326 -0.785245 0)
(-0.0272008 -0.779351 0)
(-0.0276758 -0.773464 0)
(-0.0277283 -0.76763 0)
(-0.0273293 -0.761904 0)
(-0.0264499 -0.756343 0)
(-0.0250618 -0.751015 0)
(-0.0231369 -0.745994 0)
(-0.0206482 -0.741365 0)
(-0.0175699 -0.73722 0)
(-0.0138782 -0.733661 0)
(-0.00955193 -0.730796 0)
(-0.00457324 -0.728744 0)
(0.00107147 -0.727629 0)
(0.00739069 -0.727582 0)
(0.0143876 -0.728742 0)
(0.02206 -0.731254 0)
(0.0303996 -0.735268 0)
(0.0393927 -0.740939 0)
(0.0490217 -0.748414 0)
(0.0592668 -0.757832 0)
(0.0701092 -0.769301 0)
(0.0815351 -0.782878 0)
(0.09354 -0.798544 0)
(0.106135 -0.816161 0)
(0.119352 -0.835432 0)
(0.13325 -0.85585 0)
(0.147919 -0.876644 0)
(0.163484 -0.89673 0)
(0.180095 -0.914656 0)
(0.197921 -0.928568 0)
(0.217124 -0.936196 0)
(0.237822 -0.93488 0)
(0.260041 -0.921673 0)
(-0.00101884 -0.787975 0)
(-0.00408481 -0.820356 0)
(-0.00715494 -0.823718 0)
(-0.0103793 -0.822062 0)
(-0.0136343 -0.81874 0)
(-0.0168302 -0.814606 0)
(-0.0199114 -0.809986 0)
(-0.0228322 -0.805041 0)
(-0.0255508 -0.799873 0)
(-0.0280284 -0.794551 0)
(-0.0302284 -0.789132 0)
(-0.0321163 -0.783662 0)
(-0.0336591 -0.778188 0)
(-0.0348254 -0.772753 0)
(-0.0355846 -0.767407 0)
(-0.0359074 -0.762199 0)
(-0.0357657 -0.75719 0)
(-0.0351325 -0.752445 0)
(-0.0339825 -0.748036 0)
(-0.0322922 -0.744046 0)
(-0.0300408 -0.740565 0)
(-0.0272104 -0.737691 0)
(-0.0237873 -0.735529 0)
(-0.0197622 -0.734192 0)
(-0.0151314 -0.733799 0)
(-0.00989733 -0.734474 0)
(-0.0040695 -0.736349 0)
(0.0023351 -0.739562 0)
(0.0092919 -0.744255 0)
(0.0167696 -0.750576 0)
(0.0247314 -0.758669 0)
(0.0331367 -0.768668 0)
(0.0419442 -0.780686 0)
(0.0511162 -0.794786 0)
(0.0606249 -0.810966 0)
(0.0704592 -0.829109 0)
(0.0806334 -0.848951 0)
(0.0911961 -0.870026 0)
(0.10224 -0.891607 0)
(0.113907 -0.912656 0)
(0.126393 -0.931762 0)
(0.139942 -0.947096 0)
(0.154833 -0.95638 0)
(0.171343 -0.956901 0)
(0.18971 -0.945597 0)
(-0.00115244 -0.784996 0)
(-0.00449237 -0.816701 0)
(-0.00786514 -0.819841 0)
(-0.0114256 -0.818118 0)
(-0.0150554 -0.814814 0)
(-0.0186621 -0.810762 0)
(-0.0221882 -0.80628 0)
(-0.0255861 -0.801525 0)
(-0.0288119 -0.796593 0)
(-0.0318243 -0.791552 0)
(-0.0345846 -0.786455 0)
(-0.0370565 -0.781348 0)
(-0.0392056 -0.776274 0)
(-0.0409995 -0.771275 0)
(-0.0424074 -0.766399 0)
(-0.0434006 -0.761695 0)
(-0.0439521 -0.757219 0)
(-0.0440372 -0.753035 0)
(-0.0436336 -0.749214 0)
(-0.042722 -0.745834 0)
(-0.0412867 -0.742981 0)
(-0.0393161 -0.74075 0)
(-0.0368035 -0.73924 0)
(-0.0337483 -0.738556 0)
(-0.030156 -0.738811 0)
(-0.0260397 -0.740121 0)
(-0.0214207 -0.74261 0)
(-0.0163288 -0.746405 0)
(-0.0108027 -0.751641 0)
(-0.00488941 -0.758455 0)
(0.0013565 -0.766985 0)
(0.0078745 -0.777362 0)
(0.0146021 -0.789697 0)
(0.0214796 -0.804064 0)
(0.0284565 -0.820474 0)
(0.0354996 -0.838838 0)
(0.0426044 -0.858931 0)
(0.0498069 -0.880335 0)
(0.0571973 -0.902387 0)
(0.0649328 -0.924119 0)
(0.0732472 -0.944194 0)
(0.0824551 -0.960848 0)
(0.0929456 -0.971851 0)
(0.105162 -0.974497 0)
(0.119568 -0.965667 0)
(-0.00126432 -0.781715 0)
(-0.00482219 -0.812714 0)
(-0.00844097 -0.815596 0)
(-0.0122754 -0.813766 0)
(-0.0162141 -0.81044 0)
(-0.020163 -0.806432 0)
(-0.0240636 -0.802052 0)
(-0.0278673 -0.797452 0)
(-0.0315287 -0.792726 0)
(-0.0350052 -0.787937 0)
(-0.0382568 -0.783136 0)
(-0.0412463 -0.778367 0)
(-0.0439386 -0.773669 0)
(-0.0463012 -0.769083 0)
(-0.0483041 -0.764654 0)
(-0.0499195 -0.760428 0)
(-0.0511226 -0.756459 0)
(-0.0518911 -0.752807 0)
(-0.0522064 -0.749539 0)
(-0.0520536 -0.74673 0)
(-0.0514221 -0.744461 0)
(-0.0503067 -0.742819 0)
(-0.0487076 -0.741897 0)
(-0.0466321 -0.741795 0)
(-0.0440945 -0.742615 0)
(-0.0411178 -0.744466 0)
(-0.0377339 -0.747458 0)
(-0.033984 -0.751711 0)
(-0.0299196 -0.757348 0)
(-0.0256017 -0.764495 0)
(-0.0211002 -0.773282 0)
(-0.0164921 -0.783833 0)
(-0.0118584 -0.796259 0)
(-0.00727948 -0.810639 0)
(-0.00282804 -0.827001 0)
(0.00144063 -0.845285 0)
(0.00550119 -0.865306 0)
(0.00937366 -0.886708 0)
(0.0131409 -0.908905 0)
(0.0169662 -0.93102 0)
(0.0211102 -0.951823 0)
(0.0259445 -0.969661 0)
(0.0319565 -0.982406 0)
(0.039742 -0.987432 0)
(0.0499909 -0.981639 0)
(-0.00136031 -0.778178 0)
(-0.00508866 -0.808449 0)
(-0.00890619 -0.81104 0)
(-0.0129614 -0.809069 0)
(-0.0171517 -0.805684 0)
(-0.0213826 -0.801685 0)
(-0.0255953 -0.797371 0)
(-0.0297409 -0.792893 0)
(-0.0337736 -0.78834 0)
(-0.0376501 -0.783773 0)
(-0.0413301 -0.779238 0)
(-0.0447762 -0.774778 0)
(-0.0479537 -0.770428 0)
(-0.0508306 -0.766227 0)
(-0.0533783 -0.762214 0)
(-0.0555707 -0.758435 0)
(-0.0573854 -0.754938 0)
(-0.0588035 -0.75178 0)
(-0.05981 -0.749023 0)
(-0.0603945 -0.746737 0)
(-0.0605519 -0.744996 0)
(-0.0602826 -0.743881 0)
(-0.0595938 -0.743479 0)
(-0.0584999 -0.743878 0)
(-0.0570234 -0.745173 0)
(-0.0551958 -0.747462 0)
(-0.0530583 -0.750845 0)
(-0.0506622 -0.755428 0)
(-0.0480698 -0.761322 0)
(-0.0453538 -0.768643 0)
(-0.0425973 -0.777509 0)
(-0.039892 -0.788036 0)
(-0.0373352 -0.800332 0)
(-0.0350259 -0.814482 0)
(-0.0330568 -0.830526 0)
(-0.0315049 -0.848434 0)
(-0.0304168 -0.868067 0)
(-0.0297922 -0.889134 0)
(-0.0295633 -0.911136 0)
(-0.0295723 -0.933311 0)
(-0.0295482 -0.954559 0)
(-0.0290843 -0.973383 0)
(-0.0276219 -0.987815 0)
(-0.0244411 -0.995378 0)
(-0.0186509 -0.993088 0)
(-0.00144582 -0.774422 0)
(-0.00530525 -0.803949 0)
(-0.00928307 -0.806224 0)
(-0.0135145 -0.804079 0)
(-0.0179076 -0.800604 0)
(-0.0223681 -0.796578 0)
(-0.0268382 -0.792298 0)
(-0.0312691 -0.787909 0)
(-0.0356155 -0.783497 0)
(-0.0398343 -0.779119 0)
(-0.0438857 -0.77482 0)
(-0.0477327 -0.770637 0)
(-0.0513418 -0.766603 0)
(-0.0546824 -0.762753 0)
(-0.0577276 -0.759122 0)
(-0.0604538 -0.755751 0)
(-0.0628414 -0.752686 0)
(-0.064875 -0.749976 0)
(-0.0665437 -0.74768 0)
(-0.0678416 -0.745861 0)
(-0.0687686 -0.744586 0)
(-0.069331 -0.74393 0)
(-0.069542 -0.743969 0)
(-0.0694226 -0.744784 0)
(-0.0690023 -0.746459 0)
(-0.0683201 -0.74908 0)
(-0.0674249 -0.752737 0)
(-0.0663765 -0.757522 0)
(-0.0652458 -0.763534 0)
(-0.0641153 -0.770873 0)
(-0.0630784 -0.779647 0)
(-0.0622388 -0.789963 0)
(-0.061708 -0.801922 0)
(-0.0616006 -0.815611 0)
(-0.062028 -0.831083 0)
(-0.0630877 -0.848335 0)
(-0.0648492 -0.867273 0)
(-0.0673362 -0.887673 0)
(-0.0705036 -0.909134 0)
(-0.0742127 -0.931014 0)
(-0.0782027 -0.952371 0)
(-0.0820607 -0.971894 0)
(-0.0851951 -0.987828 0)
(-0.086809 -0.997919 0)
(-0.0858636 -0.99939 0)
(-0.00152578 -0.770472 0)
(-0.0054844 -0.799251 0)
(-0.00959217 -0.801187 0)
(-0.0139632 -0.798843 0)
(-0.0185179 -0.795247 0)
(-0.0231635 -0.791166 0)
(-0.0278433 -0.786888 0)
(-0.0325099 -0.782556 0)
(-0.0371187 -0.778253 0)
(-0.0416281 -0.774033 0)
(-0.045999 -0.769936 0)
(-0.0501961 -0.765996 0)
(-0.0541872 -0.762243 0)
(-0.057944 -0.758706 0)
(-0.0614418 -0.755417 0)
(-0.0646599 -0.752412 0)
(-0.0675819 -0.749731 0)
(-0.0701961 -0.747419 0)
(-0.0724956 -0.745528 0)
(-0.0744792 -0.744113 0)
(-0.0761516 -0.743237 0)
(-0.0775245 -0.742964 0)
(-0.0786165 -0.743362 0)
(-0.0794545 -0.744504 0)
(-0.080074 -0.746461 0)
(-0.08052 -0.749309 0)
(-0.0808478 -0.753124 0)
(-0.0811235 -0.757986 0)
(-0.0814249 -0.763978 0)
(-0.0818415 -0.771189 0)
(-0.0824749 -0.779711 0)
(-0.0834381 -0.789639 0)
(-0.0848533 -0.801069 0)
(-0.0868485 -0.814086 0)
(-0.0895513 -0.828751 0)
(-0.0930787 -0.845086 0)
(-0.0975238 -0.863038 0)
(-0.102937 -0.882451 0)
(-0.109305 -0.903015 0)
(-0.11652 -0.924221 0)
(-0.124354 -0.945294 0)
(-0.132418 -0.965129 0)
(-0.140135 -0.982222 0)
(-0.146687 -0.994601 0)
(-0.150963 -0.999784 0)
(-0.0016045 -0.766349 0)
(-0.00563734 -0.794379 0)
(-0.00985198 -0.795963 0)
(-0.0143331 -0.793398 0)
(-0.0190156 -0.789658 0)
(-0.0238085 -0.785493 0)
(-0.028657 -0.781188 0)
(-0.0335157 -0.776884 0)
(-0.0383418 -0.772659 0)
(-0.0430952 -0.768564 0)
(-0.0477388 -0.764636 0)
(-0.0522391 -0.760904 0)
(-0.0565663 -0.757393 0)
(-0.0606944 -0.754129 0)
(-0.0646015 -0.751139 0)
(-0.0682702 -0.748452 0)
(-0.0716875 -0.746105 0)
(-0.0748455 -0.744135 0)
(-0.0777416 -0.742587 0)
(-0.0803788 -0.741512 0)
(-0.0827666 -0.740961 0)
(-0.0849214 -0.740993 0)
(-0.0868668 -0.741666 0)
(-0.0886346 -0.743042 0)
(-0.0902653 -0.745183 0)
(-0.0918089 -0.748151 0)
(-0.0933251 -0.752011 0)
(-0.094885 -0.75683 0)
(-0.0965707 -0.762674 0)
(-0.0984768 -0.769619 0)
(-0.10071 -0.777742 0)
(-0.10339 -0.787125 0)
(-0.106648 -0.797853 0)
(-0.11062 -0.810008 0)
(-0.115449 -0.823657 0)
(-0.121269 -0.838837 0)
(-0.128196 -0.855534 0)
(-0.13631 -0.873651 0)
(-0.145633 -0.892969 0)
(-0.156104 -0.913103 0)
(-0.167542 -0.933447 0)
(-0.179617 -0.953113 0)
(-0.191803 -0.970863 0)
(-0.203328 -0.985044 0)
(-0.213093 -0.993529 0)
(-0.0016855 -0.762062 0)
(-0.00577372 -0.789354 0)
(-0.0100784 -0.790577 0)
(-0.0146467 -0.787776 0)
(-0.0194292 -0.78387 0)
(-0.0243376 -0.779598 0)
(-0.0293199 -0.775242 0)
(-0.0343329 -0.770937 0)
(-0.0393363 -0.76676 0)
(-0.0442922 -0.762759 0)
(-0.0491658 -0.758967 0)
(-0.0539262 -0.755406 0)
(-0.0585462 -0.752099 0)
(-0.0630027 -0.749066 0)
(-0.067277 -0.746328 0)
(-0.071355 -0.743911 0)
(-0.0752276 -0.741842 0)
(-0.0788904 -0.740155 0)
(-0.0823451 -0.738888 0)
(-0.085599 -0.738081 0)
(-0.0886658 -0.737782 0)
(-0.0915662 -0.738038 0)
(-0.0943282 -0.7389 0)
(-0.0969877 -0.740418 0)
(-0.0995892 -0.742644 0)
(-0.102186 -0.74563 0)
(-0.104842 -0.749426 0)
(-0.10763 -0.754087 0)
(-0.110636 -0.759664 0)
(-0.113957 -0.766217 0)
(-0.117702 -0.773808 0)
(-0.121994 -0.782506 0)
(-0.126969 -0.792382 0)
(-0.132773 -0.80351 0)
(-0.139555 -0.815959 0)
(-0.147468 -0.829778 0)
(-0.156646 -0.844979 0)
(-0.167201 -0.861517 0)
(-0.179194 -0.879252 0)
(-0.192614 -0.897915 0)
(-0.207347 -0.917057 0)
(-0.22314 -0.935998 0)
(-0.239558 -0.953769 0)
(-0.255927 -0.969045 0)
(-0.27124 -0.980084 0)
(-0.00177129 -0.757616 0)
(-0.00590124 -0.784188 0)
(-0.0102845 -0.785049 0)
(-0.0149221 -0.782 0)
(-0.0197824 -0.777913 0)
(-0.0247801 -0.773516 0)
(-0.0298663 -0.769086 0)
(-0.0350009 -0.764756 0)
(-0.0401463 -0.7606 0)
(-0.0452673 -0.756662 0)
(-0.050332 -0.752971 0)
(-0.0553124 -0.749546 0)
(-0.0601843 -0.746404 0)
(-0.0649279 -0.743558 0)
(-0.0695278 -0.741026 0)
(-0.0739736 -0.738826 0)
(-0.0782597 -0.73698 0)
(-0.0823858 -0.735516 0)
(-0.0863574 -0.734463 0)
(-0.0901857 -0.733855 0)
(-0.0938886 -0.733731 0)
(-0.0974905 -0.734131 0)
(-0.101023 -0.735094 0)
(-0.104526 -0.736664 0)
(-0.108046 -0.73888 0)
(-0.11164 -0.741784 0)
(-0.115373 -0.745414 0)
(-0.11932 -0.74981 0)
(-0.123567 -0.75501 0)
(-0.128211 -0.761059 0)
(-0.133364 -0.768002 0)
(-0.139148 -0.775892 0)
(-0.145701 -0.784789 0)
(-0.153173 -0.794754 0)
(-0.161721 -0.80585 0)
(-0.171506 -0.818132 0)
(-0.182685 -0.831631 0)
(-0.195393 -0.846341 0)
(-0.209732 -0.862186 0)
(-0.225746 -0.878994 0)
(-0.243394 -0.896458 0)
(-0.262513 -0.914086 0)
(-0.282788 -0.931157 0)
(-0.303678 -0.946659 0)
(-0.324335 -0.959237 0)
(-0.0018633 -0.753011 0)
(-0.00602535 -0.778887 0)
(-0.0104795 -0.779392 0)
(-0.0151732 -0.776091 0)
(-0.0200935 -0.771813 0)
(-0.0251588 -0.767274 0)
(-0.0303237 -0.762751 0)
(-0.0355514 -0.758374 0)
(-0.0408076 -0.754215 0)
(-0.04606 -0.750312 0)
(-0.0512801 -0.746691 0)
(-0.056443 -0.743367 0)
(-0.0615278 -0.740349 0)
(-0.0665182 -0.737648 0)
(-0.0714025 -0.735274 0)
(-0.0761737 -0.73324 0)
(-0.08083 -0.731562 0)
(-0.085375 -0.730258 0)
(-0.0898177 -0.729354 0)
(-0.0941732 -0.728875 0)
(-0.098463 -0.72885 0)
(-0.102715 -0.729313 0)
(-0.106964 -0.730295 0)
(-0.111251 -0.731828 0)
(-0.115628 -0.733943 0)
(-0.12015 -0.736671 0)
(-0.124885 -0.740038 0)
(-0.129908 -0.74407 0)
(-0.135303 -0.748795 0)
(-0.141168 -0.75424 0)
(-0.14761 -0.760435 0)
(-0.154753 -0.767417 0)
(-0.162732 -0.775229 0)
(-0.171698 -0.783921 0)
(-0.18181 -0.793544 0)
(-0.193237 -0.804151 0)
(-0.206149 -0.815784 0)
(-0.220703 -0.828459 0)
(-0.237039 -0.84215 0)
(-0.255251 -0.856762 0)
(-0.27537 -0.8721 0)
(-0.297335 -0.887835 0)
(-0.320954 -0.903459 0)
(-0.345848 -0.91824 0)
(-0.371372 -0.931178 0)
(-0.00196181 -0.748242 0)
(-0.00614905 -0.773456 0)
(-0.0106694 -0.773615 0)
(-0.0154092 -0.770063 0)
(-0.0203754 -0.765587 0)
(-0.0254903 -0.760897 0)
(-0.0307124 -0.756267 0)
(-0.0360086 -0.751825 0)
(-0.0413476 -0.747639 0)
(-0.046701 -0.743746 0)
(-0.0520433 -0.740166 0)
(-0.0573532 -0.736908 0)
(-0.0626135 -0.733978 0)
(-0.0678113 -0.73138 0)
(-0.0729386 -0.729118 0)
(-0.077992 -0.727199 0)
(-0.0829734 -0.725632 0)
(-0.08789 -0.72443 0)
(-0.0927544 -0.723609 0)
(-0.0975851 -0.723189 0)
(-0.102407 -0.723191 0)
(-0.10725 -0.72364 0)
(-0.112152 -0.724559 0)
(-0.117158 -0.725971 0)
(-0.122317 -0.727899 0)
(-0.12769 -0.730362 0)
(-0.133341 -0.733377 0)
(-0.139344 -0.736958 0)
(-0.145784 -0.741119 0)
(-0.152754 -0.745874 0)
(-0.160359 -0.751237 0)
(-0.168717 -0.757229 0)
(-0.177961 -0.763877 0)
(-0.188237 -0.771212 0)
(-0.199705 -0.779275 0)
(-0.212536 -0.788109 0)
(-0.226905 -0.797754 0)
(-0.242989 -0.80824 0)
(-0.260954 -0.81957 0)
(-0.28094 -0.831704 0)
(-0.303046 -0.844532 0)
(-0.327299 -0.857848 0)
(-0.353638 -0.871318 0)
(-0.381847 -0.884439 0)
(-0.411501 -0.89651 0)
(-0.00206604 -0.743306 0)
(-0.00627293 -0.767895 0)
(-0.0108564 -0.767726 0)
(-0.0156347 -0.763928 0)
(-0.0206354 -0.759253 0)
(-0.025785 -0.754406 0)
(-0.0310459 -0.749657 0)
(-0.0363887 -0.745136 0)
(-0.0417856 -0.740905 0)
(-0.0472117 -0.736999 0)
(-0.0526453 -0.733432 0)
(-0.0580685 -0.730209 0)
(-0.0634677 -0.727332 0)
(-0.068834 -0.724796 0)
(-0.0741627 -0.722602 0)
(-0.0794543 -0.720749 0)
(-0.084714 -0.719241 0)
(-0.0899525 -0.718082 0)
(-0.0951857 -0.717283 0)
(-0.100435 -0.716856 0)
(-0.105728 -0.716815 0)
(-0.111098 -0.717176 0)
(-0.116584 -0.717956 0)
(-0.122232 -0.719169 0)
(-0.128094 -0.720829 0)
(-0.134228 -0.722946 0)
(-0.140699 -0.725528 0)
(-0.14758 -0.728579 0)
(-0.154951 -0.7321 0)
(-0.162901 -0.736092 0)
(-0.171532 -0.740555 0)
(-0.180955 -0.745494 0)
(-0.191296 -0.750918 0)
(-0.202696 -0.756842 0)
(-0.215309 -0.76329 0)
(-0.229302 -0.770291 0)
(-0.244854 -0.777877 0)
(-0.26215 -0.786076 0)
(-0.281373 -0.794906 0)
(-0.302698 -0.804358 0)
(-0.326278 -0.814378 0)
(-0.352219 -0.824847 0)
(-0.38057 -0.835558 0)
(-0.411268 -0.846177 0)
(-0.444104 -0.856233 0)
(-0.00217435 -0.738197 0)
(-0.00639538 -0.762204 0)
(-0.0110395 -0.761729 0)
(-0.0158499 -0.757695 0)
(-0.0208757 -0.752824 0)
(-0.0260472 -0.747817 0)
(-0.0313308 -0.742945 0)
(-0.0367006 -0.738332 0)
(-0.0421326 -0.734042 0)
(-0.0476053 -0.730103 0)
(-0.0531007 -0.726526 0)
(-0.0586046 -0.723312 0)
(-0.0641073 -0.720453 0)
(-0.0696032 -0.717944 0)
(-0.0750916 -0.715776 0)
(-0.0805763 -0.713944 0)
(-0.086066 -0.712443 0)
(-0.0915746 -0.711273 0)
(-0.0971209 -0.710437 0)
(-0.102729 -0.709941 0)
(-0.108429 -0.709791 0)
(-0.114256 -0.709996 0)
(-0.12025 -0.710565 0)
(-0.126459 -0.711506 0)
(-0.132935 -0.712825 0)
(-0.139735 -0.714524 0)
(-0.146923 -0.716602 0)
(-0.154569 -0.719053 0)
(-0.162749 -0.721869 0)
(-0.171549 -0.725037 0)
(-0.181062 -0.728547 0)
(-0.191393 -0.732387 0)
(-0.20266 -0.73655 0)
(-0.214995 -0.741034 0)
(-0.228542 -0.745843 0)
(-0.243462 -0.750989 0)
(-0.259928 -0.75649 0)
(-0.278124 -0.762365 0)
(-0.298243 -0.768629 0)
(-0.32048 -0.775285 0)
(-0.345022 -0.782309 0)
(-0.372036 -0.789636 0)
(-0.401655 -0.797136 0)
(-0.43394 -0.804593 0)
(-0.468864 -0.81169 0)
(-0.0022845 -0.732916 0)
(-0.00651292 -0.756384 0)
(-0.0112145 -0.755628 0)
(-0.0160513 -0.751373 0)
(-0.0210938 -0.746313 0)
(-0.0262759 -0.741148 0)
(-0.0315677 -0.736148 0)
(-0.0369466 -0.731439 0)
(-0.0423923 -0.727078 0)
(-0.0478868 -0.723092 0)
(-0.0534156 -0.719485 0)
(-0.0589685 -0.716254 0)
(-0.0645394 -0.713387 0)
(-0.0701265 -0.71087 0)
(-0.0757324 -0.70869 0)
(-0.0813645 -0.706835 0)
(-0.0870348 -0.705296 0)
(-0.0927598 -0.704065 0)
(-0.0985613 -0.703138 0)
(-0.104466 -0.702515 0)
(-0.110504 -0.702195 0)
(-0.116714 -0.702182 0)
(-0.123138 -0.702477 0)
(-0.129821 -0.703081 0)
(-0.136816 -0.703994 0)
(-0.144181 -0.70521 0)
(-0.151976 -0.70672 0)
(-0.160268 -0.708513 0)
(-0.169131 -0.710569 0)
(-0.178642 -0.712868 0)
(-0.18889 -0.715385 0)
(-0.199971 -0.718096 0)
(-0.211992 -0.720979 0)
(-0.225074 -0.724015 0)
(-0.23935 -0.72719 0)
(-0.254967 -0.730495 0)
(-0.272089 -0.73393 0)
(-0.290892 -0.737499 0)
(-0.311566 -0.741204 0)
(-0.33431 -0.745045 0)
(-0.35933 -0.749006 0)
(-0.386826 -0.753044 0)
(-0.416983 -0.757075 0)
(-0.449953 -0.760948 0)
(-0.485831 -0.764439 0)
(-0.00239387 -0.727464 0)
(-0.00662057 -0.75044 0)
(-0.0113752 -0.74943 0)
(-0.0162323 -0.744969 0)
(-0.0212832 -0.73973 0)
(-0.0264653 -0.734413 0)
(-0.0317516 -0.729288 0)
(-0.0371229 -0.724479 0)
(-0.0425618 -0.720041 0)
(-0.0480538 -0.715996 0)
(-0.0535885 -0.712345 0)
(-0.059159 -0.709077 0)
(-0.0647631 -0.706175 0)
(-0.0704026 -0.703622 0)
(-0.0760837 -0.701396 0)
(-0.0818169 -0.699481 0)
(-0.0876173 -0.697861 0)
(-0.0935041 -0.696522 0)
(-0.0995013 -0.695456 0)
(-0.105637 -0.694654 0)
(-0.111945 -0.694112 0)
(-0.118462 -0.693824 0)
(-0.125231 -0.693788 0)
(-0.132299 -0.693998 0)
(-0.139717 -0.694448 0)
(-0.14754 -0.695125 0)
(-0.155828 -0.696017 0)
(-0.164645 -0.697102 0)
(-0.174058 -0.698355 0)
(-0.184141 -0.699748 0)
(-0.194974 -0.701246 0)
(-0.206643 -0.702814 0)
(-0.219247 -0.704415 0)
(-0.232891 -0.706016 0)
(-0.247696 -0.707584 0)
(-0.263793 -0.709092 0)
(-0.281331 -0.71052 0)
(-0.30047 -0.711851 0)
(-0.321388 -0.713071 0)
(-0.344276 -0.714165 0)
(-0.369338 -0.71511 0)
(-0.396785 -0.715866 0)
(-0.426824 -0.716366 0)
(-0.459648 -0.716492 0)
(-0.495435 -0.716071 0)
(-0.00249944 -0.721849 0)
(-0.00671203 -0.744376 0)
(-0.0115131 -0.743141 0)
(-0.0163834 -0.738492 0)
(-0.0214345 -0.733087 0)
(-0.0266062 -0.727626 0)
(-0.0318738 -0.722382 0)
(-0.0372206 -0.717476 0)
(-0.0426324 -0.712959 0)
(-0.0480982 -0.70885 0)
(-0.0536109 -0.705142 0)
(-0.0591676 -0.701822 0)
(-0.0647698 -0.698866 0)
(-0.0704229 -0.69625 0)
(-0.0761365 -0.693949 0)
(-0.0819242 -0.69194 0)
(-0.0878039 -0.690202 0)
(-0.0937971 -0.688715 0)
(-0.0999297 -0.687466 0)
(-0.106232 -0.68644 0)
(-0.112737 -0.685628 0)
(-0.119484 -0.685018 0)
(-0.126514 -0.684602 0)
(-0.133875 -0.684369 0)
(-0.141616 -0.684308 0)
(-0.149792 -0.684402 0)
(-0.158458 -0.684631 0)
(-0.167674 -0.68497 0)
(-0.177505 -0.68539 0)
(-0.188018 -0.685852 0)
(-0.199284 -0.686316 0)
(-0.211383 -0.686738 0)
(-0.224399 -0.68707 0)
(-0.238426 -0.687264 0)
(-0.253569 -0.687273 0)
(-0.269942 -0.687054 0)
(-0.287674 -0.686564 0)
(-0.306905 -0.685768 0)
(-0.327794 -0.684631 0)
(-0.350513 -0.683119 0)
(-0.375249 -0.681195 0)
(-0.402201 -0.67881 0)
(-0.431573 -0.675895 0)
(-0.463568 -0.672345 0)
(-0.498388 -0.668016 0)
(-0.00259737 -0.716086 0)
(-0.00677961 -0.738206 0)
(-0.0116183 -0.736771 0)
(-0.0164937 -0.731952 0)
(-0.0215362 -0.726395 0)
(-0.0266866 -0.720804 0)
(-0.0319219 -0.715451 0)
(-0.0372272 -0.710454 0)
(-0.0425913 -0.705861 0)
(-0.0480063 -0.701685 0)
(-0.0534688 -0.697916 0)
(-0.05898 -0.694531 0)
(-0.0645447 -0.691505 0)
(-0.0701722 -0.688806 0)
(-0.0758754 -0.686405 0)
(-0.0816708 -0.684273 0)
(-0.0875788 -0.682385 0)
(-0.093623 -0.680716 0)
(-0.0998309 -0.679246 0)
(-0.106233 -0.677957 0)
(-0.112865 -0.676834 0)
(-0.119764 -0.675861 0)
(-0.126972 -0.675025 0)
(-0.134535 -0.67431 0)
(-0.1425 -0.6737 0)
(-0.15092 -0.673174 0)
(-0.159849 -0.672709 0)
(-0.169341 -0.672276 0)
(-0.179458 -0.671839 0)
(-0.190259 -0.671358 0)
(-0.20181 -0.670785 0)
(-0.21418 -0.67007 0)
(-0.227443 -0.669156 0)
(-0.241681 -0.667986 0)
(-0.25698 -0.666499 0)
(-0.273438 -0.664637 0)
(-0.291163 -0.662342 0)
(-0.310273 -0.659558 0)
(-0.330899 -0.656233 0)
(-0.353189 -0.652313 0)
(-0.377302 -0.647743 0)
(-0.403413 -0.64246 0)
(-0.431701 -0.636386 0)
(-0.462351 -0.62942 0)
(-0.495554 -0.621428 0)
(-0.00268178 -0.710198 0)
(-0.00681368 -0.731946 0)
(-0.0116791 -0.730332 0)
(-0.016551 -0.72536 0)
(-0.0215755 -0.719667 0)
(-0.0266935 -0.713962 0)
(-0.031882 -0.708514 0)
(-0.0371278 -0.703438 0)
(-0.0424222 -0.698778 0)
(-0.0477609 -0.694539 0)
(-0.0531441 -0.690705 0)
(-0.0585768 -0.687251 0)
(-0.0640679 -0.684142 0)
(-0.0696302 -0.681344 0)
(-0.0752797 -0.678823 0)
(-0.081036 -0.676544 0)
(-0.0869216 -0.674478 0)
(-0.0929619 -0.672596 0)
(-0.0991855 -0.670875 0)
(-0.105624 -0.66929 0)
(-0.112312 -0.667823 0)
(-0.119287 -0.666454 0)
(-0.12659 -0.665166 0)
(-0.134265 -0.663938 0)
(-0.142358 -0.662751 0)
(-0.150918 -0.661581 0)
(-0.159995 -0.6604 0)
(-0.169642 -0.659177 0)
(-0.179914 -0.657874 0)
(-0.190866 -0.656446 0)
(-0.202556 -0.654844 0)
(-0.215045 -0.65301 0)
(-0.228397 -0.650885 0)
(-0.242679 -0.648401 0)
(-0.257964 -0.645491 0)
(-0.274332 -0.642084 0)
(-0.291868 -0.638109 0)
(-0.310668 -0.633496 0)
(-0.330837 -0.628175 0)
(-0.352491 -0.622077 0)
(-0.375758 -0.61513 0)
(-0.400778 -0.607257 0)
(-0.427694 -0.598371 0)
(-0.456659 -0.588369 0)
(-0.487829 -0.577126 0)
(-0.00274309 -0.704218 0)
(-0.00680224 -0.725616 0)
(-0.0116832 -0.723838 0)
(-0.0165429 -0.718727 0)
(-0.0215402 -0.712918 0)
(-0.0266138 -0.707118 0)
(-0.0317398 -0.701595 0)
(-0.0369064 -0.696457 0)