/*--------------------------------*- C++ -*----------------------------------*\
| =========                 |                                                 |
| \\      /  F ield         | OpenFOAM: The Open Source CFD Toolbox           |
|  \\    /   O peration     | Version:  5.0                                   |
|   \\  /    A nd           | Web:      www.OpenFOAM.org                      |
|    \\/     M anipulation  |                                                 |
\*---------------------------------------------------------------------------*/
FoamFile
{
    version     2.0;
    format      ascii;
    class       surfaceScalarField;
    location    "0.75";
    object      alphaPhi10;
}
// * * * * * * * * * * * * * * * * * * * * * * * * * * * * * * * * * * * * * //

dimensions      [0 3 -1 0 0 0 0];

internalField   nonuniform List<scalar> 
3731
(
-3.3047e-06
-3.2919e-06
-3.30535e-06
-3.27343e-06
-5.11579e-06
-6.57879e-06
-2.28526e-06
-6.43397e-06
-8.86405e-06
-1.32339e-06
-7.28269e-06
-1.01874e-05
-6.14266e-07
-7.9245e-06
-1.08017e-05
-1.1694e-07
-8.50348e-06
-1.09186e-05
1.60474e-07
-9.03783e-06
-1.07582e-05
3.0167e-07
-9.545e-06
-1.04565e-05
3.96994e-07
-1.00361e-05
-1.00595e-05
7.92204e-07
-1.06906e-05
-9.2673e-06
-3.47595e-05
3.09994e-05
-8.63374e-05
5.1578e-05
-0.000121648
3.47624e-05
-0.000141085
1.82847e-05
-0.000149813
8.72729e-06
-0.000153447
3.63484e-06
-0.000154483
1.03587e-06
-0.000154147
-3.35906e-07
-0.000153079
-1.06787e-06
-0.000151626
-1.45328e-06
-0.000150166
-1.45971e-06
-0.000149049
-1.11733e-06
-0.000148446
-6.02336e-07
-0.000148309
-1.37845e-07
-0.000148529
2.20757e-07
-0.000149107
5.78043e-07
-0.000150146
1.03814e-06
-0.000151699
1.55373e-06
-0.00015335
1.65064e-06
-0.000154104
7.53836e-07
-0.000152914
-1.18951e-06
-0.000149295
-3.6189e-06
-0.000142947
-6.34827e-06
-0.000133906
-9.04069e-06
-0.000122777
-1.11297e-05
-0.000110477
-1.22993e-05
-9.78455e-05
-1.26318e-05
-8.54564e-05
-1.23892e-05
-7.36282e-05
-1.18282e-05
-6.24765e-05
-1.11517e-05
-5.1973e-05
-1.05035e-05
-4.20029e-05
-9.97007e-06
-3.24142e-05
-9.58868e-06
-2.3059e-05
-9.35508e-06
-1.38488e-05
-9.21012e-06
-4.87861e-06
-8.97024e-06
3.33874e-06
-8.22634e-06
9.48753e-06
-6.19214e-06
9.63874e-06
-1.51212e-07
9.39041e-06
-7.16694e-05
0.000106202
-0.000118247
9.80668e-05
-0.000137576
5.3467e-05
-0.000144568
1.96618e-05
-0.000145734
7.61592e-06
-0.000147409
2.79667e-06
-0.000151052
6.23258e-07
-0.000154055
-6.65235e-07
-0.000155466
-1.94921e-06
-0.000154772
-3.00553e-06
-0.000153166
-3.23591e-06
-0.000151452
-2.83205e-06
-0.0001499
-2.1545e-06
-0.000148577
-1.46047e-06
-0.00014743
-9.25618e-07
-0.000146354
-4.98367e-07
-0.000145414
9.80549e-08
-0.000144822
9.61852e-07
-0.000144419
1.24808e-06
-0.000143821
1.55134e-07
-0.000142593
-2.41659e-06
-0.000139909
-6.3038e-06
-0.00013497
-1.12866e-05
-0.000127515
-1.64963e-05
-0.000117953
-2.06915e-05
-0.000107112
-2.31395e-05
-9.57823e-05
-2.39616e-05
-8.45171e-05
-2.36543e-05
-7.36466e-05
-2.26986e-05
-6.33271e-05
-2.14713e-05
-5.35908e-05
-2.02398e-05
-4.43936e-05
-1.91673e-05
-3.56585e-05
-1.83236e-05
-2.73142e-05
-1.76982e-05
-1.93391e-05
-1.71835e-05
-1.18051e-05
-1.6504e-05
-5.01171e-06
-1.50197e-05
1.84953e-07
-1.13888e-05
3.4755e-06
-3.44176e-06
1.3098e-05
-6.14783e-05
0.000158446
-6.34258e-05
7.89717e-05
-3.47654e-05
8.15347e-06
-2.15984e-05
1.76327e-06
-1.81805e-05
5.09592e-07
-1.90699e-05
2.19657e-07
-2.75924e-05
1.34029e-07
-4.82207e-05
-2.05316e-08
-7.88652e-05
-7.19652e-08
-0.000102149
-2.15478e-07
-0.000114595
-5.63781e-07
-0.000122713
-1.10357e-06
-0.00013074
-1.2313e-06
-0.000138171
-1.45456e-06
-0.000142166
-2.18769e-06
-0.000141908
-2.86964e-06
-0.00013974
-2.44555e-06
-0.000137476
-1.30185e-06
-0.000135588
-6.401e-07
-0.000133986
-1.44644e-06
-0.000132309
-4.09459e-06
-0.000129888
-8.72465e-06
-0.000125817
-1.53577e-05
-0.000119521
-2.2792e-05
-0.0001112
-2.90127e-05
-0.000101599
-3.27399e-05
-9.14568e-05
-3.41039e-05
-8.12842e-05
-3.38269e-05
-7.13953e-05
-3.25876e-05
-6.19577e-05
-3.09089e-05
-5.30341e-05
-2.91636e-05
-4.46215e-05
-2.75799e-05
-3.66925e-05
-2.62525e-05
-2.92249e-05
-2.51659e-05
-2.2214e-05
-2.41862e-05
-1.57408e-05
-2.29602e-05
-9.94641e-06
-2.08124e-05
-5.09366e-06
-1.62415e-05
-1.89961e-06
-6.63409e-06
1.12668e-05
-2.61323e-05
0.000149773
-8.91811e-06
1.07344e-05
-2.58583e-06
1.49072e-06
-8.88052e-07
6.23749e-08
-3.62721e-07
9.12362e-09
-1.42273e-07
7.33651e-09
-1.08325e-08
1.66008e-09
-3.00219e-08
6.02752e-11
-1.0052e-07
-2.72118e-10
-3.14319e-07
-1.00435e-09
-8.76611e-07
-1.19284e-09
-1.96986e-06
-5.17954e-09
-3.97419e-06
-2.11443e-08
-1.44211e-05
-7.94221e-08
-5.03237e-05
-2.54926e-07
-9.39936e-05
-6.98224e-07
-0.000113917
-1.34769e-06
-0.000120691
-1.51706e-06
-0.000124746
-2.15717e-06
-0.000125144
-4.28491e-06
-0.000122712
-7.06807e-06
-0.000120066
-1.13713e-05
-0.000116457
-1.8968e-05
-0.000110962
-2.82862e-05
-0.000103579
-3.63958e-05
-9.50087e-05
-4.13104e-05
-8.59382e-05
-4.31743e-05
-7.68139e-05
-4.29512e-05
-6.79093e-05
-4.14921e-05
-5.93811e-05
-3.94371e-05
-5.12987e-05
-3.72461e-05
-4.36775e-05
-3.52012e-05
-3.65183e-05
-3.34118e-05
-2.98298e-05
-3.18546e-05
-2.36266e-05
-3.03894e-05
-1.78663e-05
-2.86787e-05
-1.26889e-05
-2.58459e-05
-8.15921e-06
-2.0692e-05
-4.48186e-06
-1.03101e-05
6.78493e-06
-1.96392e-06
0.000155033
-7.61384e-07
7.03084e-06
1.21458e-08
7.20438e-07
3.14254e-08
8.16591e-08
3.3387e-08
1.75653e-08
7.94569e-09
3.71103e-08
7.9462e-10
9.82551e-09
-4.87387e-10
2.28396e-09
-4.02591e-10
7.93172e-10
-2.5537e-10
1.18352e-11
-1.39016e-09
-1.83657e-11
-6.39952e-09
-5.58912e-11
-2.75157e-08
-1.95819e-10
-1.08154e-07
-3.09472e-10
-3.61634e-07
-2.23138e-09
-1.04974e-06
-1.26639e-08
-2.35837e-06
-4.9009e-08
-4.80745e-06
-1.45325e-07
-2.76563e-05
-6.57237e-07
-7.69023e-05
-1.81634e-06
-0.000104439
-3.8109e-06
-0.000109222
-1.1823e-05
-0.000106506
-2.17148e-05
-0.00010168
-3.31125e-05
-9.50688e-05
-4.3007e-05
-8.74312e-05
-4.8948e-05
-7.93975e-05
-5.12081e-05
-7.13257e-05
-5.1023e-05
-6.34325e-05
-4.93854e-05
-5.58511e-05
-4.70185e-05
-4.86419e-05
-4.44554e-05
-4.18195e-05
-4.20238e-05
-3.53981e-05
-3.98333e-05
-2.94083e-05
-3.78444e-05
-2.3878e-05
-3.59197e-05
-1.87809e-05
-3.37756e-05
-1.36993e-05
-3.07488e-05
-9.15604e-06
-2.4511e-05
-4.7769e-06
-1.42559e-05
2.00803e-06
2.90316e-06
0.000170015
-4.89579e-08
1.27172e-05
3.41171e-07
6.81367e-07
6.26081e-07
-1.96289e-07
7.38537e-07
3.78928e-07
2.25154e-07
7.48862e-07
5.37136e-08
1.5548e-07
5.53293e-09
4.88478e-08
3.03818e-11
6.6131e-09
-4.3337e-11
4.42611e-10
-2.53868e-11
1.40313e-11
-9.29502e-11
2.03218e-12
-6.00643e-10
-1.06675e-11
-1.06075e-09
-2.31124e-11
-2.41766e-09
-1.28568e-11
-1.49562e-08
-2.63251e-10
-6.26938e-08
-1.56003e-09
-2.06495e-07
-6.06246e-09
-8.86537e-07
-3.03411e-08
-2.69268e-06
-1.8143e-07
-1.1894e-05
-7.46102e-07
-6.29953e-05
-3.80824e-06
-9.30384e-05
-1.75986e-05
-9.15673e-05
-3.46048e-05
-8.57432e-05
-4.88312e-05
-7.90603e-05
-5.56309e-05
-7.2094e-05
-5.81743e-05
-6.51041e-05
-5.80129e-05
-5.82512e-05
-5.62382e-05
-5.16462e-05
-5.36232e-05
-4.53315e-05
-5.07702e-05
-3.93043e-05
-4.80511e-05
-3.35818e-05
-4.55558e-05
-2.82169e-05
-4.32094e-05
-2.32621e-05
-4.08746e-05
-1.87099e-05
-3.83277e-05
-1.43418e-05
-3.51165e-05
-8.4592e-06
-2.97667e-05
-4.15137e-06
-1.62059e-05
-1.67837e-06
7.89803e-06
0.000131576
8.98349e-07
1.74444e-05
2.21651e-06
-7.67422e-08
9.63425e-06
-3.67258e-06
1.16258e-05
-7.79059e-06
2.13153e-06
4.15539e-06
4.81742e-07
1.71238e-06
7.67977e-08
4.56846e-07
4.50855e-09
8.01545e-08
-1.52281e-12
5.12304e-09
-7.10527e-12
1.02038e-11
-1.18794e-11
5.26961e-12
-2.92868e-11
2.04799e-12
-8.17147e-11
-1.4618e-12
-1.40796e-10
-2.58559e-12
-3.6717e-10
-1.05946e-12
-2.10741e-09
-1.04514e-10
-9.71068e-09
-7.54831e-10
-4.39197e-08
-4.87454e-09
-2.30616e-07
-3.09179e-08
-9.73097e-07
-1.62487e-07
-5.27164e-06
-6.74123e-07
-5.55443e-05
-6.6013e-06
-8.06875e-05
-3.53739e-05
-7.5847e-05
-5.36715e-05
-7.0212e-05
-6.12658e-05
-6.43701e-05
-6.40162e-05
-5.8488e-05
-6.38949e-05
-5.26877e-05
-6.20382e-05
-4.70711e-05
-5.92394e-05
-4.16568e-05
-5.61845e-05
-3.64063e-05
-5.33017e-05
-3.13327e-05
-5.06294e-05
-2.6516e-05
-4.80261e-05
-2.20464e-05
-4.5344e-05
-1.79644e-05
-4.24099e-05
-1.41529e-05
-3.89279e-05
-9.80637e-06
-3.4179e-05
-3.39977e-06
-2.28533e-05
-3.6638e-06
1.24403e-05
2.44312e-05
4.07831e-06
1.23968e-05
9.39902e-06
-1.71189e-06
2.66464e-05
-9.3475e-06
3.08648e-05
-8.15203e-06
1.51142e-05
5.08023e-06
1.15682e-06
7.35859e-06
2.16628e-07
1.30592e-06
1.62642e-08
2.69283e-07
2.50111e-10
2.09889e-08
-5.83316e-12
2.78513e-10
-4.28566e-12
3.61633e-12
-5.34325e-12
2.42623e-12
-9.20564e-12
1.36568e-12
-1.81055e-11
5.62134e-13
-4.25035e-11
5.50315e-13
-2.31264e-10
-1.4297e-11
-1.25133e-09
-1.90079e-10
-6.40043e-09
-1.51484e-09
-3.43922e-08
-1.04573e-08
-1.74533e-07
-6.37204e-08
-7.35173e-07
-3.23617e-07
-1.72353e-05
-2.0571e-06
-6.87657e-05
-2.77375e-05
-6.59047e-05
-5.65285e-05
-6.1334e-05
-6.58364e-05
-5.66265e-05
-6.87234e-05
-5.18392e-05
-6.86815e-05
-4.70702e-05
-6.68057e-05
-4.24309e-05
-6.3877e-05
-3.79051e-05
-6.07094e-05
-3.33929e-05
-5.78138e-05
-2.89008e-05
-5.51215e-05
-2.45451e-05
-5.23817e-05
-2.04609e-05
-4.94272e-05
-1.674e-05
-4.61314e-05
-1.33712e-05
-4.22967e-05
-1.00897e-05
-3.74605e-05
-3.97943e-06
-2.99479e-05
-1.28504e-05
6.31029e-06
1.81209e-05
1.36297e-05
7.81732e-06
2.66728e-05
1.31081e-06
2.55847e-05
-4.40248e-06
2.27754e-05
-2.96387e-06
2.37701e-05
6.98591e-06
1.85507e-07
8.75444e-06
3.22682e-08
1.32644e-06
1.97213e-09
2.87759e-07
5.28431e-11
2.26429e-08
-1.99287e-12
3.35362e-10
-2.02187e-12
3.36381e-12
-2.35632e-12
2.46462e-12
-3.57605e-12
2.06606e-12
-5.34608e-12
1.20077e-12
-1.09875e-11
1.13755e-12
-4.90663e-11
-1.56505e-12
-2.96384e-10
-6.61132e-11
-1.76169e-09
-6.52312e-10
-1.03623e-08
-5.08982e-09
-5.77793e-08
-3.35283e-08
-2.7142e-07
-2.01793e-07
-3.42384e-06
-1.28203e-06
-4.84257e-05
-2.17394e-05
-5.6524e-05
-5.95263e-05
-5.29066e-05
-6.94535e-05
-4.92667e-05
-7.23615e-05
-4.55068e-05
-7.24371e-05
-4.17002e-05
-7.06038e-05
-3.80015e-05
-6.75643e-05
-3.43376e-05
-6.43674e-05
-3.04989e-05
-6.16513e-05
-2.64965e-05
-5.91226e-05
-2.25058e-05
-5.6349e-05
-1.87042e-05
-5.32272e-05
-1.52174e-05
-4.96191e-05
-1.20919e-05
-4.54223e-05
-9.20133e-06
-4.0351e-05
-5.88607e-06
-3.32632e-05
-1.87365e-05
1.85052e-05
3.13293e-05
3.36677e-05
2.7577e-05
3.56169e-05
5.76946e-06
4.19579e-06
-8.12159e-07
3.66412e-06
-3.9877e-07
6.83613e-06
4.62779e-07
3.11226e-08
2.73802e-06
-7.61214e-08
9.28242e-07
-4.99358e-09
1.75865e-07
-2.02254e-10
1.36485e-08
-7.37786e-13
1.09006e-10
-1.28629e-12
3.60219e-12
-1.77099e-12
2.65647e-12
-2.71654e-12
2.68571e-12
-3.1322e-12
1.11038e-12
-4.84246e-12
1.23306e-12
-1.56163e-11
6.05845e-13
-1.08259e-10
-2.65307e-11
-7.46404e-10
-3.30661e-10
-4.76072e-09
-2.9491e-09
-2.69181e-08
-2.21958e-08
-1.30089e-07
-1.62323e-07
-9.75643e-07
-1.15053e-06
-3.69129e-05
-2.06976e-05
-4.80973e-05
-6.38747e-05
-4.53092e-05
-7.22408e-05
-4.2623e-05
-7.50438e-05
-3.97866e-05
-7.52095e-05
-3.67691e-05
-7.35734e-05
-3.3926e-05
-7.03312e-05
-3.11327e-05
-6.7118e-05
-2.78637e-05
-6.49115e-05
-2.42515e-05
-6.25283e-05
-2.0545e-05
-6.005e-05
-1.6949e-05
-5.68409e-05
-1.35985e-05
-5.29695e-05
-1.05687e-05
-4.84521e-05
-7.76967e-06
-4.315e-05
-4.71291e-06
-3.63199e-05
-2.34494e-05
2.04197e-06
-1.21565e-05
-1.13121e-05
4.08674e-06
2.78732e-06
-1.41306e-05
-1.40989e-05
5.57414e-06
2.44945e-06
-1.60892e-05
-1.65543e-05
4.90482e-06
1.20429e-06
-1.77044e-05
-1.83214e-05
2.97137e-06
-6.50276e-07
-1.88213e-05
-1.93113e-05
3.39751e-07
-2.85665e-06
-1.93951e-05
-1.95585e-05
-2.60938e-06
-5.25759e-06
-1.9421e-05
-1.90694e-05
-5.74595e-06
-7.75369e-06
-1.89307e-05
-1.79242e-05
-8.89615e-06
-1.03389e-05
-1.79912e-05
-1.62692e-05
-1.19833e-05
-1.31026e-05
-1.42819e-05
-1.5066e-05
-1.19959e-05
-1.82736e-05
-9.65853e-06
-2.14526e-05
-7.56172e-06
-2.26105e-05
-4.88801e-06
-2.4105e-05
-3.0905e-06
-2.22141e-05
-7.52859e-07
-2.44472e-05
3.33722e-08
-1.61925e-05
3.86805e-08
-3.63214e-06
8.838e-09
1.06703e-08
8.78893e-10
6.32761e-09
5.49221e-11
6.39267e-10
2.94385e-12
3.48373e-11
9.14931e-13
8.12813e-13
2.2162e-13
4.77764e-13
1.07743e-13
9.34806e-14
-1.79426e-14
-5.3697e-15
-4.73195e-14
-1.72794e-14
-4.222e-14
-1.72102e-14
-2.97725e-14
-1.27538e-14
-1.91335e-14
-8.21856e-15
-1.19237e-14
-4.94053e-15
-7.46983e-15
-2.89179e-15
-1.69513e-15
1.16657e-05
-7.57895e-06
1.76845e-05
-6.01881e-06
2.11249e-05
-3.44044e-06
1.38117e-08
2.11111e-05
1.02827e-05
-1.22875e-05
1.48198e-05
-1.05559e-05
1.85631e-05
-7.18441e-06
-2.29307e-06
2.02161e-05
7.89947e-06
-1.52821e-05
1.07312e-05
-1.33874e-05
8.11966e-06
-4.61136e-06
-4.12116e-07
1.0657e-06
4.72186e-06
-1.70326e-05
5.04119e-06
-1.31349e-05
4.18791e-07
-4.29234e-07
-2.48625e-09
8.27153e-09
9.83765e-07
-1.75327e-05
4.31727e-07
-7.2632e-06
2.49754e-09
-1.96894e-14
-5.0226e-14
1.09393e-11
-1.61866e-06
-1.64438e-05
-1.7358e-14
-3.23252e-06
-6.88784e-15
-1.95667e-14
-2.48769e-14
-2.79432e-14
-2.98425e-06
-1.42557e-05
-2.48013e-14
-1.34119e-06
-2.15389e-14
-1.85731e-14
-2.65367e-14
-1.64835e-14
-3.51337e-06
-1.12704e-05
-4.03249e-14
-2.89834e-07
-3.86038e-14
-1.7826e-14
-3.43262e-14
-2.90455e-14
-3.44513e-06
-8.49594e-06
-8.40726e-14
-2.86175e-08
-8.14753e-14
-1.86541e-14
-1.52282e-14
-1.24466e-13
-2.04999e-06
-6.56951e-06
-1.94903e-13
-5.30276e-08
-1.68813e-13
-3.83768e-14
1.52396e-13
-4.54652e-13
-3.70063e-06
-4.885e-06
-1.84787e-12
-5.15909e-08
-1.58095e-12
-2.37562e-13
8.34785e-13
-1.59799e-12
-6.05463e-06
-3.43495e-06
-3.22206e-11
-7.49823e-09
-3.13378e-11
2.21958e-14
-2.20913e-11
6.4244e-12
-8.30639e-06
-1.60702e-06
-4.76275e-10
2.08041e-07
-4.65527e-10
4.43658e-12
-8.73207e-11
-3.1421e-10
-1.42593e-05
3.18322e-07
-1.13256e-09
1.73391e-06
-1.10969e-09
2.58457e-11
1.25042e-10
-1.33757e-09
-1.85625e-05
2.17069e-06
-8.30195e-10
5.67167e-06
-9.24152e-10
6.13827e-11
3.27728e-10
-1.36661e-09
-2.04732e-05
3.72334e-06
-8.28515e-06
8.12033e-06
-2.26144e-09
2.57743e-06
1.86324e-10
-2.53799e-09
-2.16091e-05
3.22305e-06
-1.9709e-05
8.93556e-06
-2.00868e-10
1.37264e-05
1.44387e-10
-6.89264e-10
-2.33638e-05
1.17751e-06
-2.22072e-05
1.03813e-05
-1.46056e-05
1.41381e-05
1.14664e-05
-3.39788e-10
-9.0406e-06
4.73413e-08
-2.24632e-05
4.38688e-06
-1.92518e-05
1.53334e-05
1.70914e-05
-1.01963e-05
5.59885e-09
8.55882e-09
-1.15012e-05
-6.42303e-09
-2.02573e-05
7.69954e-06
1.90394e-05
-1.67369e-05
4.63914e-09
5.76369e-10
-6.33237e-08
-8.31607e-11
-1.01253e-05
-6.64417e-08
8.67522e-06
-1.74231e-05
1.5369e-10
3.43393e-11
-6.49825e-09
-3.77939e-11
-1.32639e-07
-8.9616e-09
-7.50118e-08
-6.37365e-06
-2.78027e-12
3.68514e-12
-7.09034e-10
2.65693e-11
-1.60093e-08
-2.62807e-10
-5.98667e-09
-1.36548e-07
-5.15098e-15
1.27418e-12
-2.76682e-11
1.05101e-11
-8.80927e-10
5.19609e-11
1.3292e-10
-1.13846e-08
1.01107e-12
2.00801e-13
6.31179e-12
1.7454e-12
-9.76728e-13
1.33193e-11
7.38471e-11
-3.12024e-10
1.46624e-13
4.81177e-14
1.44391e-12
2.26916e-13
9.53384e-12
1.77465e-12
1.12498e-11
4.05093e-11
1.77212e-14
1.3328e-14
1.79688e-13
4.6488e-14
1.44999e-12
1.99402e-13
1.26395e-12
8.58907e-12
-8.27225e-15
-2.01326e-14
1.87132e-14
1.9727e-14
1.5689e-13
3.63676e-14
1.18549e-13
1.04505e-12
-1.07374e-14
-2.47239e-14
-2.88995e-15
-6.93548e-15
1.3321e-14
2.01566e-14
1.21845e-14
1.01694e-13
-8.64145e-15
-1.99197e-14
-5.78414e-15
-1.39642e-14
-1.00081e-16
-2.54214e-16
4.53063e-15
7.55375e-15
-5.84537e-15
-1.41161e-14
-5.13935e-15
-1.31683e-14
-2.3635e-15
-6.47329e-15
1.24642e-15
9.20713e-16
-3.67177e-15
-9.63915e-15
-3.64328e-15
-1.03423e-14
-2.34129e-15
-7.27159e-15
-1.73437e-15
-5.01208e-16
-2.2528e-15
-2.35415e-15
-1.70098e-15
-5.96825e-16
3.55858e-05
2.06753e-05
2.65961e-05
1.56235e-05
1.68768e-06
9.69937e-08
6.53183e-07
1.15336e-08
6.00645e-07
1.65861e-08
1.03844e-06
-2.88213e-07
5.03347e-08
2.12008e-07
-2.36107e-08
4.57674e-07
-4.96716e-09
1.00362e-07
-8.26901e-11
4.71284e-09
-8.76706e-13
2.72294e-11
-1.55157e-12
4.00499e-12
-4.99145e-12
7.53304e-12
-3.36477e-12
1.4257e-11
-1.02717e-12
2.30959e-12
-3.98751e-12
1.21604e-12
-1.07285e-11
1.00027e-12
-5.46019e-11
-1.08464e-11
-3.86806e-10
-1.75199e-10
-2.65306e-09
-1.83082e-09
-1.56715e-08
-1.64241e-08
-7.62004e-08
-1.47139e-07
-6.45937e-07
-1.27981e-06
-3.32309e-05
-2.24781e-05
-4.14571e-05
-6.84425e-05
-3.93765e-05
-7.43174e-05
-3.7515e-05
-7.68945e-05
-3.54495e-05
-7.70442e-05
-3.24597e-05
-7.59538e-05
-3.03957e-05
-6.59407e-05
-2.87131e-05
-6.49646e-05
-2.57715e-05
-6.74284e-05
-2.25786e-05
-6.58595e-05
-1.90998e-05
-6.36733e-05
-1.5582e-05
-6.03644e-05
-1.22649e-05
-5.62866e-05
-9.23564e-06
-5.14813e-05
-6.44002e-06
-4.59456e-05
-3.61279e-06
-3.91472e-05
-2.70622e-05
1.25959e-05
4.74681e-06
3.33716e-07
-1.14458e-07
1.47687e-07
-2.45315e-08
1.01399e-07
7.17658e-09
-1.93418e-08
1.36208e-07
-2.58551e-07
-1.5081e-07
-1.91555e-07
-7.41991e-09
-4.25583e-08
1.81595e-07
-2.83756e-09
3.67191e-08
-5.58405e-12
2.1018e-09
-8.53733e-12
2.72856e-11
-8.20997e-12
8.12181e-11
-1.41157e-11
3.75376e-11
-4.46388e-12
2.1782e-11
-2.67284e-12
1.00246e-12
-4.22551e-12
8.27497e-13
-7.09612e-12
8.72858e-13
-2.7324e-11
-4.35693e-12
-2.05641e-10
-9.63127e-11
-1.55191e-09
-1.21657e-09
-9.99283e-09
-1.32973e-08
-3.38395e-08
-1.61425e-07
-1.86636e-06
-1.52059e-06
-3.50883e-05
-2.7794e-05
-3.53423e-05
-7.0971e-05
-3.39536e-05
-7.56953e-05
-3.28825e-05
-7.794e-05
-3.16929e-05
-7.79753e-05
-2.42062e-05
-6.84176e-05
-2.08485e-05
-4.93986e-05
-2.13811e-05
-4.95966e-05
-2.32871e-05
-6.09004e-05
-2.10267e-05
-6.93829e-05
-1.76525e-05
-6.70481e-05
-1.42458e-05
-6.37732e-05
-1.09846e-05
-5.95471e-05
-7.98756e-06
-5.4478e-05
-5.21812e-06
-4.8715e-05
-2.61121e-06
-4.17541e-05
-2.96734e-05
2.24514e-07
-3.42808e-09
3.86952e-08
3.0277e-09
1.10943e-08
-9.42581e-09
-1.57742e-08
3.01214e-08
-9.31344e-08
1.53262e-10
-2.86034e-07
-9.54456e-08
-1.37573e-07
4.10826e-08
-2.10661e-08
5.85278e-08
-1.46535e-09
1.70556e-08
-3.36191e-11
8.18288e-10
-4.49222e-11
3.09159e-11
-5.16961e-12
1.37172e-10
-2.41915e-12
6.25762e-11
-1.62387e-12
2.22893e-11
-7.73212e-13
1.60546e-12
-2.2051e-12
9.03553e-13
-3.89991e-12
6.08917e-13
-1.43906e-11
-1.89537e-12
-1.1152e-10
-5.9652e-11
-8.99918e-10
-9.36862e-10
-4.80658e-09
-1.36823e-08
3.44148e-08
-2.37355e-07
-4.64133e-06
-2.56645e-06
-3.1598e-05
-3.70794e-05
-3.0129e-05
-7.24187e-05
-2.93942e-05
-7.64061e-05
-2.90701e-05
-7.8215e-05
-2.48796e-05
-7.73405e-05
-1.85e-05
-4.94794e-05
-1.69865e-05
-5.04302e-05
-1.91948e-05
-4.88373e-05
-2.24332e-05
-6.24384e-05
-1.95678e-05
-7.2248e-05
-1.64542e-05
-7.01553e-05
-1.31752e-05
-6.70516e-05
-9.98259e-06
-6.27354e-05
-7.05101e-06
-5.74071e-05
-4.31538e-06
-5.14502e-05
-1.81357e-06
-4.42557e-05
-3.1487e-05
3.5539e-09
1.57135e-11
2.41192e-09
1.53477e-10
1.34102e-09
-7.49375e-10
-7.98686e-09
1.45511e-10
-2.4618e-08
-1.28421e-08
-2.22092e-07
-1.85647e-08
-1.38172e-07
1.7306e-08
-9.10491e-09
9.0373e-08
-5.46175e-10
8.39445e-09
-1.80154e-11
3.11291e-10
-2.83413e-11
3.72021e-11
-4.53005e-11
1.07073e-10
-2.99137e-10
7.07502e-10
-1.0689e-12
5.70487e-10
-1.47478e-12
1.20474e-12
-2.10612e-12
7.61241e-13
-4.17525e-12
3.44584e-13
-1.05663e-11
-1.01943e-12
-6.70852e-11
-4.2671e-11
-5.35086e-10
-8.46181e-10
-2.36092e-09
-1.56288e-08
1.06763e-07
-3.86109e-07
-8.99683e-06
-5.05379e-06
-2.63408e-05
-5.57724e-05
-2.56707e-05
-7.30786e-05
-2.55634e-05
-7.64979e-05
-2.56801e-05
-7.79893e-05
-1.66278e-05
-6.64848e-05
-1.72383e-05
-4.81091e-05
-1.66468e-05
-4.88638e-05
-1.77098e-05
-6.11038e-05
-2.08816e-05
-7.55953e-05
-1.84503e-05
-7.46816e-05
-1.56205e-05
-7.28846e-05
-1.24526e-05
-7.01909e-05
-9.33144e-06
-6.58262e-05
-6.52182e-06
-6.01966e-05
-3.85049e-06
-5.41173e-05
-1.31334e-06
-4.67918e-05
-3.28003e-05
2.14312e-11
1.15433e-13
1.08386e-10
-1.16186e-11
-3.37634e-11
9.14542e-11
-1.17694e-09
3.39672e-10
-1.30456e-08
-2.11222e-09
-6.11028e-08
-6.73779e-09
-1.16119e-07
-5.33644e-09
-5.97065e-09
1.10521e-07
-2.05092e-10
2.62547e-09
-1.74508e-11
1.24049e-10
-2.40324e-11
4.46183e-11
-3.27332e-11
1.19806e-10
-3.94556e-10
8.96717e-10
-1.8125e-12
7.4269e-10
-4.86588e-12
2.29958e-12
4.26109e-13
1.88049e-12
-1.54503e-12
1.96392e-13
-5.90983e-12
-6.33886e-13
-4.18111e-11
-3.19706e-11
-3.61037e-10
-8.07938e-10
-6.62051e-10
-1.86833e-08
1.3821e-07
-5.67281e-07
-1.41616e-05
-7.97572e-06
-2.1822e-05
-6.82916e-05
-2.18599e-05
-7.30329e-05
-2.23676e-05
-7.59667e-05
-1.90847e-05
-7.64988e-05
-1.49114e-05
-4.78379e-05
-1.54611e-05
-4.75532e-05
-1.87687e-05
-5.46862e-05
-2.14721e-05
-7.72289e-05
-1.98262e-05
-7.72411e-05
-1.78114e-05
-7.66963e-05
-1.51409e-05
-7.5453e-05
-1.21069e-05
-7.11571e-05
-9.01241e-06
-6.87099e-05
-6.39229e-06
-6.26692e-05
-3.91444e-06
-5.65613e-05
-1.32768e-06
-4.93699e-05
-3.41281e-05
8.65024e-14
-5.79564e-15
-2.03388e-12
-7.25441e-13
-5.48693e-11
1.66843e-11
-2.94026e-10
1.27187e-10
-6.91393e-09
1.48849e-09
-1.98015e-08
-3.40899e-09
-3.69508e-08
2.26969e-09
-2.12162e-09
1.39836e-08
-6.56519e-11
6.06761e-10
-1.73265e-11
9.25532e-11
-2.64295e-11
5.18993e-11
-1.84246e-10
2.9547e-10
-1.90493e-10
4.08096e-10
-4.82321e-12
3.14687e-10
-2.93071e-12
3.84126e-13
-7.34621e-14
5.67499e-13
-1.10895e-12
8.20505e-14
-3.43383e-12
-5.06408e-13
-2.26382e-11
-2.87326e-11
-1.38298e-10
-9.08263e-10
4.55528e-09
-2.64859e-08
2.14167e-07
-8.21506e-07
-1.76593e-05
-1.81005e-05
-1.8178e-05
-6.82802e-05
-1.87091e-05
-7.24756e-05
-1.96091e-05
-7.49937e-05
-1.26663e-05
-6.6309e-05
-1.31218e-05
-4.75042e-05
-1.62996e-05
-4.47221e-05
-2.1055e-05
-7.73797e-05
-2.01902e-05
-7.80934e-05
-1.90467e-05
-7.83844e-05
-1.74973e-05
-7.82454e-05
-1.55295e-05
-7.75336e-05
-1.12889e-05
-7.34672e-05
-8.19286e-06
-5.40743e-05
-6.3063e-06
-5.04138e-05
-4.34047e-06
-5.68659e-05
-1.84391e-06
-5.17587e-05
-2.25328e-05
-2.27884e-14
-3.55022e-15
-1.22175e-12
2.68741e-13
-1.0586e-11
1.07018e-11
-1.64109e-10
1.11442e-10
-3.61723e-09
1.92192e-09
-8.87731e-09
-5.3402e-10
-7.11038e-09
3.54264e-09
-4.46293e-10
7.44073e-09
-6.26901e-11
3.82123e-10
-1.5354e-10
1.91641e-10
-1.47335e-09
1.38486e-09
-1.3627e-08
2.10425e-08
-5.43125e-11
3.01781e-08
-4.94527e-13
9.91299e-11
-1.53391e-13
4.29652e-14
-2.56799e-14
8.82756e-15
-4.76356e-13
3.40115e-14
-1.73736e-12
-4.05493e-13
-1.49895e-11
-2.73714e-11
9.27429e-11
-1.22229e-09
3.82014e-08
-6.84916e-08
-2.37933e-06
-1.60004e-06
-1.43536e-05
-4.76302e-05
-1.50668e-05
-6.75339e-05
-1.60529e-05
-7.14494e-05
-1.45695e-05
-7.34362e-05
-1.159e-05
-4.45616e-05
-1.30786e-05
-4.4813e-05
-1.96865e-05
-6.53683e-05
-1.94583e-05
-7.76076e-05
-1.90431e-05
-7.85084e-05
-1.83595e-05
-7.90677e-05
-1.73247e-05
-7.92795e-05
-1.58387e-05
-7.90208e-05
-1.2392e-05
-7.74339e-05
-5.41345e-06
-4.4746e-05
-2.97392e-06
-2.54739e-05
-3.76682e-06
-2.04268e-05
-1.72863e-06
-3.85146e-05
-1.78535e-05
4.47511e-14
1.50977e-15
-1.25063e-13
5.19646e-13
-4.63453e-12
1.24913e-11
-1.02013e-10
1.47105e-10
-1.23815e-09
9.26216e-10
-3.69841e-09
1.83075e-09
-2.85487e-09
3.20645e-09
-3.02577e-10
4.9816e-09
-3.08563e-10
5.14647e-10
-3.46854e-09
3.4711e-09
-3.87677e-08
3.82467e-08
-2.83159e-08
8.99824e-08
-8.82814e-11
1.91679e-08
-5.5549e-14
1.09027e-11
-1.33126e-14
7.53074e-15
-1.20321e-14
4.05762e-15
-2.54677e-14
1.03324e-14
-5.74653e-13
-2.36875e-13
-1.36932e-11
-2.17545e-11
-2.22891e-11
-1.38729e-09
6.52504e-08
-1.38435e-07
-6.63512e-06
-2.93716e-06
-1.12812e-05
-6.12362e-05
-1.2396e-05
-6.63854e-05
-1.38094e-05
-6.99997e-05
-8.90617e-06
-6.72887e-05
-9.82367e-06
-4.48736e-05
-1.44493e-05
-3.95842e-05
-1.77996e-05
-7.61004e-05
-1.79221e-05
-7.74855e-05
-1.78829e-05
-7.85473e-05
-1.76141e-05
-7.93363e-05
-1.70333e-05
-7.98601e-05
-1.60502e-05
-8.00032e-05
-1.42436e-05
-7.954e-05
-5.40324e-06
-7.04696e-05
-1.51347e-06
-2.04018e-05
-5.85405e-07
-8.12146e-06
-8.77095e-07
-2.36361e-06
-2.83232e-05
-8.42268e-14
1.01256e-13
-9.06021e-13
1.37271e-12
-9.79531e-12
2.07768e-11
-1.01323e-10
2.41181e-10
-7.01557e-10
1.56967e-09
-1.37399e-09
3.01535e-09
-1.82156e-09
4.27851e-09
-1.44087e-09
4.98983e-09
-5.57549e-09
4.74801e-09
-4.61874e-08
6.56728e-08
-7.01021e-08
2.93951e-07
-4.50933e-09
1.70046e-07
-9.88669e-12
3.58089e-09
-1.72624e-14
1.05552e-12
-3.54474e-15
4.17692e-15
-8.46346e-16
3.5637e-15
-1.59591e-14
2.11838e-15
-3.18341e-13
-9.18681e-14
-1.31886e-11
-1.24666e-11
-9.01234e-11
-1.42676e-09
1.34227e-07
-2.77578e-07
-7.67226e-06
-1.63871e-05
-8.86869e-06
-6.00322e-05
-1.02019e-05
-6.50314e-05
-1.07496e-05
-6.78027e-05
-8.25466e-06
-4.09987e-05
-9.45247e-06
-4.11687e-05
-1.5493e-05
-6.28323e-05
-1.59581e-05
-7.56254e-05
-1.63421e-05
-7.71004e-05
-1.66279e-05
-7.82608e-05
-1.6707e-05
-7.92572e-05
-1.64745e-05
-8.0092e-05
-1.58247e-05
-8.06516e-05
-1.45592e-05
-8.07985e-05
-1.16223e-05
-8.0443e-05
-2.57435e-06
-7.62889e-05
1.58933e-07
-2.18414e-05
8.29505e-08
-3.26985e-06
-2.31257e-05
-5.49601e-13
9.64812e-13
-5.61731e-12
6.29346e-12
-5.97444e-11
9.37533e-11
-3.90874e-10
7.99609e-10
-1.76852e-09
4.22588e-09
-1.46365e-09
7.98162e-09
-1.07271e-09
6.66981e-09
-1.61632e-09
6.07084e-09
-5.15279e-09
8.84234e-09
-7.68857e-08
1.4607e-07
-9.16136e-08
2.93576e-07
-3.12596e-09
1.54387e-07
-9.53331e-13
4.55716e-10
-2.08972e-14
9.66322e-14
-4.06035e-15
2.79032e-15
-1.04751e-15
4.72444e-15
2.47956e-15
8.28541e-17
-1.11992e-13
-4.5756e-15
-1.31494e-11
-5.91152e-13
-9.81281e-10
-5.16161e-10
-9.24909e-07
-3.21961e-07
-5.3949e-06
-4.5052e-05
-6.82661e-06
-5.8593e-05
-8.31009e-06
-6.35485e-05
-5.60677e-06
-6.6151e-05
-6.6522e-06
-3.87007e-05
-1.02682e-05
-3.49634e-05
-1.33576e-05
-7.30559e-05
-1.40419e-05
-7.49261e-05
-1.46772e-05
-7.64552e-05
-1.52479e-05
-7.76888e-05
-1.5621e-05
-7.88823e-05
-1.56722e-05
-8.00394e-05
-1.52937e-05
-8.10304e-05
-1.43472e-05
-8.17425e-05
-1.26772e-05
-8.2106e-05
-7.34561e-06
-8.16765e-05
-7.46293e-07
-6.97266e-05
2.19065e-08
-4.73842e-06
-7.28125e-07
-3.11264e-12
2.79531e-11
-7.88889e-10
8.09659e-10
-1.06263e-08
1.01639e-08
-5.79415e-08
1.37172e-07
-1.2755e-08
4.05455e-07
-3.43992e-09
4.45178e-08
-1.78795e-09
7.9664e-09
-2.11667e-09
7.10953e-09
-6.95237e-09
1.54535e-08
-6.90527e-08
3.06002e-07
-7.60055e-08
2.37097e-07
-3.58503e-10
2.19689e-07
-9.09074e-14
9.72623e-11
-2.18734e-15
7.91209e-15
-1.58626e-15
2.12405e-15
-7.68203e-17
2.37477e-15
1.26548e-16
5.65912e-18
-5.70903e-15
1.28143e-15
-5.03487e-14
-5.6714e-13
4.83794e-09
-5.35845e-09
-1.33518e-06
-8.03998e-07
-3.49435e-06
-5.06703e-05
-5.0663e-06
-5.70214e-05
-6.58091e-06
-6.20335e-05
-4.44598e-06
-6.10822e-05
-6.17878e-06
-3.83874e-05
-1.05633e-05
-5.14963e-05
-1.13551e-05
-7.222e-05
-1.20741e-05
-7.41779e-05
-1.29266e-05
-7.5551e-05
-1.37618e-05
-7.68358e-05
-1.4389e-05
-7.82461e-05
-1.4683e-05
-7.9738e-05
-1.45764e-05
-8.11315e-05
-1.39984e-05
-8.23132e-05
-1.29498e-05
-8.31504e-05
-1.13879e-05
-8.32432e-05
-3.49736e-06
-8.06348e-05
6.06287e-07
-1.94621e-05
-1.21838e-07
-1.85512e-10
3.66683e-10
-2.26298e-08
2.42169e-08
-7.65291e-08
2.67148e-07
-1.65989e-07
4.42419e-07
-9.72861e-08
5.42774e-07
-2.88504e-09
2.76056e-07
-2.04828e-09
8.65147e-09
-1.53438e-09
6.82892e-09
-3.75151e-08
4.19014e-08
-4.94119e-08
2.98465e-07
-4.67973e-08
2.21497e-07
-2.17088e-08
1.8356e-07
3.1705e-15
3.38672e-08
-1.26325e-16
-1.70453e-14
-6.24826e-17
1.07434e-14
-1.73292e-19
1.00068e-15
4.13618e-19
6.95885e-19
-1.7146e-16
6.15616e-15
1.89862e-11
-1.95422e-11
5.20168e-08
-5.7358e-08
-2.39529e-07
-1.67702e-05
-1.94622e-06
-4.91514e-05
-3.48701e-06
-5.5467e-05
-4.1411e-06
-6.11373e-05
-3.77786e-06
-3.08187e-05
-6.41067e-06
-3.72027e-05
-8.34215e-06
-6.82044e-05
-9.15729e-06
-7.13613e-05
-9.93382e-06
-7.32424e-05
-1.10884e-05
-7.40642e-05
-1.22202e-05
-7.55994e-05
-1.30551e-05
-7.73621e-05
-1.35289e-05
-7.92243e-05
-1.36498e-05
-8.09828e-05
-1.34077e-05
-8.24527e-05
-1.28202e-05
-8.37409e-05
-1.18878e-05
-8.41763e-05
-9.83996e-06
-8.29472e-05
-7.42845e-07
-5.77215e-05
-8.64683e-07
-9.19912e-10
2.75557e-09
-8.65426e-08
1.91739e-07
-1.4841e-07
3.64567e-07
-1.81094e-07
4.63501e-07
-1.70844e-07
5.09592e-07
-7.56103e-08
5.35808e-07
-4.36454e-09
1.14872e-07
-5.33941e-09
7.39299e-09
-3.11469e-08
2.02173e-07
-1.26356e-08
2.61609e-07
-1.23893e-08
2.1631e-07
3.08727e-10
1.58198e-07
2.53936e-10
4.07725e-08
1.07932e-12
2.52399e-10
1.01293e-15
1.07976e-12
4.73992e-17
8.80917e-15
3.58067e-17
1.2267e-17
-3.29698e-15
6.13733e-15
3.90857e-10
-4.10231e-10
3.51328e-07
-4.08297e-07
1.21751e-06
-3.39964e-05
-4.42173e-07
-4.7542e-05
-1.94292e-06
-5.39579e-05
-1.49427e-06
-4.48716e-05
-2.20985e-06
-2.38936e-05
-5.44224e-06
-4.35735e-05
-6.3347e-06
-6.7451e-05
-6.89881e-06
-7.06399e-05
-6.98302e-06
-5.95465e-05
-9.04447e-06
-4.38201e-05
-1.05961e-05
-6.97719e-05
-1.16013e-05
-7.46154e-05
-1.2147e-05
-7.82269e-05
-1.24995e-05
-8.00345e-05
-1.25271e-05
-8.24162e-05
-1.22696e-05
-8.40023e-05
-1.17736e-05
-8.46748e-05
-1.09412e-05
-8.37984e-05
-2.26452e-06
-7.18632e-05
-3.12921e-06
-2.54883e-08
4.44526e-09
-1.47993e-07
1.38869e-07
-1.53443e-07
3.52453e-07
-1.5589e-07
4.59796e-07
-1.77248e-07
5.091e-07
-8.65188e-08
4.64292e-07
-1.20305e-08
1.64382e-07
-1.27534e-08
7.1243e-09
-8.29158e-10
2.25927e-07
1.51848e-08
2.43487e-07
2.4965e-08
1.99446e-07
2.94629e-08
1.50236e-07
4.06459e-10
2.7814e-08
7.53764e-12
6.70622e-10
1.23667e-13
9.3085e-12
3.07505e-15
1.53516e-13
2.68304e-15
3.74786e-16
-4.52864e-15
-6.53862e-14
7.2534e-09
-7.66016e-09
1.22706e-06
-2.37929e-06
2.50241e-06
-3.70088e-05
9.53745e-07
-4.59381e-05
-2.62851e-07
-5.25723e-05
-7.13515e-07
-1.79761e-05
-2.60246e-06
-2.49258e-05
-3.4735e-06
-5.86028e-05
-4.18997e-06
-6.72817e-05
-3.49833e-06
-6.06222e-05
-1.90204e-06
-6.98994e-06
-3.08482e-06
-6.93683e-06
-6.31308e-06
-2.5353e-05
-8.11192e-06
-5.52521e-05
-8.9065e-06
-6.06348e-05
-1.0829e-05
-6.79411e-05
-1.1394e-05
-8.20887e-05
-1.14124e-05
-8.39872e-05
-1.11366e-05
-8.49579e-05
-1.03829e-05
-8.45655e-05
-4.39228e-06
-7.94063e-05
-4.52857e-05
-5.87345e-09
3.48602e-09
-1.525e-07
4.01735e-08
-1.41708e-07
3.39986e-07
-1.27131e-07
4.16793e-07
-1.07574e-07
4.27166e-07
-3.40072e-08
3.86193e-07
-2.10934e-09
4.73566e-08
2.15948e-09
2.22333e-09
2.53976e-08
5.92322e-08
5.04304e-08
2.24713e-07
5.78747e-08
1.95415e-07
2.23976e-08
5.35758e-08
-2.80483e-10
3.27478e-09
2.66436e-12
3.71224e-10
1.70813e-13
1.14709e-11
3.82304e-14
2.59397e-13
3.13233e-14
2.87727e-15
2.32255e-12