/*--------------------------------*- C++ -*----------------------------------*\
| =========                 |                                                 |
| \\      /  F ield         | OpenFOAM: The Open Source CFD Toolbox           |
|  \\    /   O peration     | Version:  5.0                                   |
|   \\  /    A nd           | Web:      www.OpenFOAM.org                      |
|    \\/     M anipulation  |                                                 |
\*---------------------------------------------------------------------------*/
FoamFile
{
    version     2.0;
    format      ascii;
    class       volScalarField;
    location    "0.75";
    object      k;
}
// * * * * * * * * * * * * * * * * * * * * * * * * * * * * * * * * * * * * * //

dimensions      [0 2 -2 0 0 0 0];

internalField   nonuniform List<scalar> 
1915
(
0.0103557
0.00632709
0.0216763
0.0112849
0.0300745
0.0151149
0.0379233
0.0186765
0.045495
0.0221578
0.0530902
0.0258093
0.0612001
0.0301585
0.0708027
0.0361357
0.0831663
0.0465169
0.0995633
0.0694583
0.211428
0.356731
0.41958
0.438639
0.417181
0.369517
0.317492
0.27603
0.24728
0.228002
0.215589
0.208046
0.204055
0.202742
0.203518
0.205813
0.209366
0.214176
0.220306
0.227834
0.236926
0.246429
0.254912
0.261076
0.263392
0.260784
0.253197
0.241492
0.22694
0.210798
0.194072
0.17743
0.161202
0.145426
0.129872
0.113976
0.0962727
0.0748654
0.0492487
0.0297688
0.516816
0.897343
1.07553
1.19951
1.20759
1.09146
0.90779
0.730031
0.594242
0.503379
0.446494
0.412466
0.393629
0.384789
0.382252
0.383621
0.387531
0.393485
0.401411
0.411314
0.422672
0.435062
0.448787
0.46212
0.471456
0.473059
0.465315
0.44902
0.426249
0.399318
0.370209
0.340317
0.310404
0.280661
0.250753
0.219739
0.185819
0.145895
0.097219
0.0390926
0.691262
1.31029
1.74377
2.12531
2.30593
2.20342
1.86383
1.44576
1.08577
0.8352
0.680457
0.589174
0.537175
0.510282
0.499353
0.49729
0.499374
0.503164
0.508014
0.51377
0.520197
0.52829
0.539151
0.551868
0.562259
0.564988
0.557137
0.539043
0.512858
0.481198
0.446412
0.410207
0.373548
0.336747
0.299579
0.261265
0.220274
0.174129
0.119713
0.043787
0.750019
1.56373
2.34022
3.21141
3.87787
4.05302
3.64304
2.86366
2.03581
1.4124
1.03042
0.814176
0.691827
0.62587
0.596424
0.586249
0.584585
0.585654
0.586539
0.586901
0.587041
0.588206
0.593301
0.602454
0.61148
0.614031
0.60608
0.587372
0.559837
0.526069
0.488539
0.449114
0.408866
0.368198
0.327054
0.28498
0.240919
0.192679
0.135438
0.0511079
0.700055
1.54016
2.2403
3.28272
4.11451
4.79307
5.09164
4.60925
3.4146
2.2524
1.49843
1.08965
0.872603
0.751369
0.692103
0.668811
0.661356
0.658619
0.653577
0.648923
0.64175
0.633115
0.630537
0.634503
0.640525
0.641703
0.633238
0.614268
0.586359
0.551884
0.513297
0.472536
0.430697
0.388188
0.345051
0.301105
0.255755
0.20718
0.149419
0.0586114
0.64177
1.47557
1.99806
2.35284
2.66428
3.27069
3.87595
4.2404
3.87219
2.73758
1.77812
1.24126
0.967862
0.828194
0.755326
0.723668
0.710963
0.708233
0.708557
0.708706
0.692858
0.668812
0.65757
0.655912
0.658128
0.657131
0.647786
0.628663
0.600894
0.566527
0.52793
0.48708
0.445024
0.40206
0.358198
0.313335
0.267072
0.21794
0.159835
0.0644549
0.589793
1.45743
1.48004
1.36247
1.55618
2.13101
2.84058
3.41797
3.60491
2.95283
1.92639
1.29895
0.977147
0.822837
0.752944
0.723608
0.712389
0.711265
0.71765
0.722734
0.714964
0.693677
0.677649
0.671476
0.669604
0.665913
0.655421
0.63614
0.608736
0.574869
0.536823
0.496615
0.45519
0.412645
0.368848
0.323618
0.276462
0.225845
0.166172
0.068227
0.518247
1.26888
1.02119
0.904895
1.04115
1.50529
2.18515
2.81628
3.19494
2.89433
1.9874
1.32139
0.969118
0.800902
0.726934
0.698464
0.690795
0.691902
0.696498
0.700792
0.703181
0.700809
0.692953
0.684728
0.679017
0.672304
0.660387
0.640814
0.613733
0.580417
0.543091
0.503814
0.463395
0.421684
0.378374
0.333176
0.28543
0.233197
0.170434
0.0716986
0.410701
0.770002
0.645292
0.66547
0.834434
1.21448
1.80715
2.42586
2.85212
2.702
1.94749
1.31196
0.952409
0.776393
0.698832
0.670413
0.665422
0.670347
0.67917
0.689265
0.699255
0.708335
0.709308
0.698412
0.689181
0.679543
0.666007
0.645889
0.618852
0.585871
0.549148
0.510732
0.47126
0.430362
0.387601
0.342621
0.294681
0.241645
0.176944
0.0760098
0.268957
0.409231
0.465767
0.607675
0.804608
1.11584
1.61795
2.17751
2.5677
2.46461
1.84569
1.27449
0.926806
0.750756
0.67248
0.64517
0.643307
0.653071
0.667827
0.684964
0.702986
0.721948
0.727611
0.713189
0.701457
0.689696
0.674673
0.653755
0.626333
0.593305
0.556878
0.51896
0.47999
0.439491
0.397001
0.352118
0.304068
0.250715
0.185315
0.0806179
0.118308
0.110038
0.135843
0.13676
0.151931
0.157327
0.167169
0.175666
0.182326
0.193768
0.198095
0.212773
0.214838
0.23297
0.232689
0.254176
0.251576
0.275977
0.271228
0.297828
0.319269
0.340139
0.360489
0.380324
0.399431
0.417472
0.434313
0.450274
0.46411
0.47108
0.468526
0.462006
0.453804
0.445718
0.439673
0.436758
0.437579
0.442307
0.450774
0.462529
0.476882
0.492977
0.509867
0.078188
0.074275
0.0778668
0.0955165
0.138338
0.146963
0.165219
0.201498
0.167207
0.184351
0.214153
0.264027
0.190375
0.214944
0.255573
0.317421
0.213261
0.245193
0.295917
0.366918
0.237445
0.276991
0.336531
0.414272
0.263127
0.31035
0.378583
0.463446
0.289611
0.344024
0.420272
0.511185
0.315967
0.376679
0.459371
0.5551
0.341106
0.406244
0.493153
0.592751
0.36426
0.431241
0.520695
0.622628
0.385358
0.452181
0.542437
0.644779
0.404455
0.469332
0.558706
0.660716
0.421456
0.482312
0.569361
0.67062
0.436589
0.491654
0.573862
0.67196
0.449857
0.497308
0.56841
0.662931
0.462019
0.501918
0.560333
0.645275
0.473722
0.506972
0.553767
0.61935
0.485294
0.513349
0.551279
0.601242
0.497814
0.521977
0.553535
0.593266
0.505722
0.53317
0.560523
0.594032
0.504048
0.541226
0.571504
0.601854
0.497679
0.540238
0.580283
0.614333
0.489514
0.534563
0.580093
0.624262
0.482488
0.527711
0.575662
0.625064
0.478668
0.523479
0.572042
0.623691
0.479155
0.523848
0.572778
0.625708
0.484284
0.529563
0.579384
0.633736
0.493865
0.540466
0.591901
0.648268
0.507319
0.55583
0.609459
0.668349
0.523763
0.574543
0.63067
0.692275
0.542118
0.595267
0.653894
0.71807
0.561215
0.616592
0.677458
0.743785
0.207081
0.329582
0.477024
0.691649
0.878488
1.1203
1.53918
2.01357
2.31979
2.2212
1.71912
1.21689
0.893077
0.723742
0.647929
0.623098
0.624982
0.639911
0.660596
0.683994
0.70864
0.735297
0.743068
0.728314
0.716456
0.703989
0.687935
0.666064
0.637836
0.604345
0.567734
0.529648
0.490402
0.449616
0.406898
0.361746
0.31333
0.259559
0.193531
0.0849362
0.266347
0.384464
0.577153
0.80264
0.954661
1.16907
1.52915
1.88753
2.09137
1.99542
1.58166
1.14696
0.853489
0.695845
0.625248
0.604134
0.61017
0.630131
0.656328
0.685047
0.714814
0.74587
0.75467
0.744548
0.735074
0.723263
0.706701
0.683816
0.654449
0.620039
0.582601
0.543425
0.502894
0.461042
0.417521
0.371637
0.322437
0.267925
0.201151
0.0886923
0.339439
0.458457
0.660907
0.851634
1.02396
1.22352
1.50358
1.76287
1.88458
1.78939
1.44429
1.07206
0.810968
0.66816
0.605018
0.588755
0.59933
0.624238
0.655659
0.689293
0.723584
0.755527
0.766228
0.76388
0.758194
0.747757
0.730983
0.707017
0.6762
0.640272
0.601252
0.560087
0.51743
0.473822
0.428958
0.381905
0.331498
0.275807
0.20796
0.091766
0.400958
0.521825
0.707847
0.914312
1.0995
1.26442
1.44454
1.62762
1.69613
1.6032
1.3146
0.997528
0.768023
0.641828
0.587995
0.577737
0.593438
0.623529
0.660272
0.698949
0.737473
0.768967
0.783585
0.788368
0.786465
0.777379
0.760324
0.73506
0.702419
0.664436
0.623045
0.579202
0.533947
0.488049
0.441352
0.392788
0.340874
0.283533
0.213932
0.0941611
0.4569
0.584161
0.76287
0.974412
1.15082
1.26858
1.37713
1.48955
1.52649
1.43802
1.19562
0.925517
0.726084
0.617797
0.574908
0.571888
0.593547
0.629375
0.671846
0.715859
0.757923
0.790255
0.809327
0.819105
0.82
0.811698
0.793983
0.767083
0.732268
0.691855
0.647578
0.6007
0.552467
0.50379
0.45484
0.404609
0.351161
0.291793
0.21929
0.0960331
0.511703
0.645764
0.822041
1.0155
1.15872
1.23707
1.29802
1.35902
1.37523
1.29086
1.08462
0.854346
0.684322
0.596329
0.566158
0.571757
0.600401
0.642698
0.691371
0.74091
0.786048
0.820104
0.84303
0.855939
0.858354
0.850039
0.831132
0.802226
0.765043
0.721967
0.674653
0.624546
0.573
0.521129
0.469547
0.41776
0.363267
0.301817
0.224998
0.0979138
0.568269
0.708594
0.871976
1.03216
1.13459
1.17741
1.20599
1.23664
1.23778
1.15588
0.977566
0.78001
0.641511
0.577373
0.56196
0.577593
0.614349
0.663869
0.71908
0.774009
0.821892
0.857865
0.883483
0.898002
0.90072
0.891582
0.870957
0.839742
0.800125
0.754305
0.703926
0.650511
0.595519
0.540217
0.485619
0.432244
0.377946
0.315306
0.23339
0.100956
0.624067
0.765242
0.905488
1.02395
1.08638
1.10152
1.10955
1.12149
1.10967
1.02684
0.866693
0.70254
0.601438
0.562324
0.562534
0.589542
0.635479
0.692847
0.754683
0.814098
0.864565
0.902372
0.929323
0.94417
0.946159
0.935479
0.912671
0.879017
0.836927
0.788371
0.734961
0.678304
0.619938
0.5612
0.503266
0.447311
0.393413
0.332713
0.247174
0.106489
0.675022
0.810307
0.919704
0.99417
1.02185
1.01842
1.01477
1.01398
0.990098
0.900398
0.754753
0.631952
0.568779
0.552867
0.56859
0.607973
0.663822
0.729331
0.797598
0.860724
0.913182
0.952027
0.979216
0.993306
0.993745
0.980941
0.955589
0.91948
0.874909
0.823644
0.767307
0.707584
0.646046
0.584011
0.522569
0.462727
0.405374
0.347685
0.262274
0.115206
0.717372
0.841554
0.917662
0.950847
0.950095
0.935379
0.925225
0.9145
0.878003
0.782958
0.659729
0.575741
0.545101
0.55008
0.581402
0.633507
0.699414
0.772841
0.846867
0.913245
0.966467
1.0054
1.03193
1.0444
1.04264
1.02726
0.999189
0.9606
0.913533
0.859609
0.800503
0.737965
0.673548
0.608443
0.54349
0.479184
0.415578
0.351484
0.275022
0.123374
0.748423
0.859158
0.902897
0.901637
0.880401
0.858673
0.844477
0.825765
0.777561
0.683174
0.587692
0.53565
0.531046
0.555649
0.602386
0.666782
0.742216
0.822743
0.901246
0.970815
1.02315
1.06136
1.0864
1.09658
1.09211
1.07378
1.04297
1.00186
0.952266
0.895755
0.834076
0.769049
0.702144
0.634325
0.566093
0.497482
0.427912
0.356119
0.280317
0.128887
0.766585
0.860334
0.877136
0.854191
0.821035
0.793789
0.776541
0.752172
0.694745
0.607452
0.538664
0.512948
0.528884
0.571357
0.632618
0.708182
0.792057
0.878403
0.959745
1.03095
1.08135
1.11882
1.14171
1.14911
1.14157
1.12005
1.08642
1.0427
0.990573
0.931565
0.867548
0.800441
0.731557
0.661523
0.590449
0.518005
0.443256
0.363733
0.271292
0.121857
0.773107
0.84782
0.850041
0.817546
0.776473
0.744021
0.723911
0.695803
0.631516
0.557465
0.512259
0.508535
0.541614
0.599068
0.672668
0.757645
0.848495
0.939378
1.02299
1.09315
1.14128
1.17692
1.19711
1.20139
1.19046
1.16559
1.12901
1.08257
1.02793
0.96657
0.90048
0.831795
0.761562
0.689925
0.616521
0.540715
0.46157
0.376272
0.275558
0.122401
0.770888
0.83715
0.834077
0.79601
0.749064
0.71243
0.689712
0.657325
0.589931
0.531709
0.507876
0.522663
0.569682
0.638593
0.721904
0.814395
0.910623
1.00495
1.09122
1.15617
1.20209
1.23502
1.25199
1.25283
1.23816
1.20989
1.17018
1.12089
1.06384
1.00037
0.932513
0.862871
0.792041
0.71952
0.644287
0.565343
0.482194
0.392582
0.287471
0.127502
0.763621
0.834788
0.831772
0.791095
0.740227
0.699928
0.674775
0.634797
0.571711
0.53013
0.52393
0.553339
0.611353
0.689061
0.779512
0.877294
0.976936
1.0736
1.1587
1.21703
1.26228
1.29233
1.30575
1.3028
1.28424
1.25239
1.20932
1.1571
1.09769
1.03225
0.963289
0.893525
0.822995
0.750481
0.673927
0.591637
0.504151
0.410403
0.3015
0.135492
0.752384
0.831739
0.840168
0.801082
0.749182
0.705383
0.672503
0.624383
0.574581
0.54886
0.557397
0.598461
0.664871
0.74865
0.843654
0.944717
1.0469
1.14552
1.22446
1.27884
1.32164
1.34829
1.35795
1.35079
1.32821
1.29254
1.24589
1.19065
1.12871
1.0616
0.992521
0.923466
0.854302
0.783105
0.706044
0.61963
0.526656
0.428073
0.314566
0.143114
0.737517
0.813676
0.847674
0.820246
0.771684
0.724545
0.676573
0.626986
0.592469
0.583287
0.605363
0.655943
0.727922
0.81489
0.91214
1.01523
1.12112
1.21791
1.28518
1.33935
1.37943
1.40244
1.40807
1.39648
1.36959
1.32975
1.27938
1.22111
1.15691
1.0886
1.01963
0.951958
0.885443
0.817616
0.741956
0.649544
0.549048
0.444695
0.326122
0.14936
0.710121
0.790409
0.834791
0.832333
0.793738
0.742368
0.68716
0.645671
0.626006
0.632234
0.666105
0.723233
0.797705
0.885332
0.982785
1.08684
1.19498
1.28419
1.34573
1.39819
1.43527
1.45463
1.45581
1.43954
1.40799
1.36365
1.30931
1.24791
1.18174
1.11242
1.04379
0.978102
0.915727
0.854218
0.783875
0.680201
0.570097
0.459273
0.335487
0.15409
0.66856
0.754735
0.819432
0.82987
0.802251
0.755038
0.710642
0.683096
0.677064
0.695252
0.737019
0.797349
0.872078
0.958678
1.0553
1.16152
1.26654
1.34087
1.40402
1.455
1.48914
1.50475
1.50111
1.47973
1.44314
1.39404
1.33557
1.27073
1.20211
1.13188
1.06392
1.00079
0.944185
0.89255
0.826671
0.708643
0.587886
0.470826
0.342448
0.157638
0.643611
0.70673
0.776457
0.817854
0.814146
0.782298
0.753636
0.738869
0.743057
0.768844
0.814674
0.875767
0.949612
1.03447
1.12938
1.23429
1.32904
1.39877
1.46142
1.51035
1.54157
1.55293
1.54395
1.51698
1.4749
1.4208
1.35802
1.28956
1.21804
1.14652
1.0791
1.01891
0.96952
0.92916
0.840651
0.730668
0.600872
0.479261
0.347838
0.160674
0.634797
0.682704
0.732225
0.776314
0.798931
0.802003
0.799923
0.801973
0.816468
0.847258
0.894606
0.95509
1.02813
1.11187
1.20592
1.30348
1.38406
1.45682
1.51871
1.56522
1.59332
1.5995
1.58432
1.55116
1.50315
1.44379
1.37655
1.30438
1.22964
1.15601
1.0883
1.02991
0.980598
0.923996
0.827732
0.737628
0.60767
0.485313
0.352772
0.163786
0.637957
0.679104
0.720308
0.757533
0.786316
0.809844
0.829948
0.85058
0.879771
0.920177
0.971466
1.03315
1.10607
1.18841
1.27704
1.36435
1.44571
1.51813
1.57761
1.62084
1.64494
1.6447
1.62242
1.58218
1.52765
1.4627
1.39097
1.31533
1.23723
1.16017
1.08924
1.0254
0.961751
0.888811
0.808506
0.725872
0.609561
0.490281
0.357645
0.167279
0.649644
0.689056
0.728728
0.766591
0.800682
0.83226
0.863638
0.89798
0.939559
0.990509
1.04645
1.11086
1.1842
1.26524
1.35083
1.43573
1.51497
1.58426
1.63974
1.67828
1.69699
1.68884
1.65832
1.60986
1.548
1.47699
1.40072
1.32154
1.23941
1.15741
1.0802
1.00835
0.936858
0.861571
0.786497
0.709677
0.608539
0.495283
0.363215
0.171558
0.665304
0.708327
0.749534
0.790962
0.831214
0.871002
0.91197
0.955979
1.00553
1.06175
1.12407
1.19333
1.26946
1.35083
1.4345
1.51633
1.59176
1.65642
1.70643
1.73799
1.74803
1.73298
1.69223
1.63375
1.56343
1.48568
1.40436
1.3186
1.22961
1.14318
1.06208
0.985922
0.911609
0.837593
0.766504
0.693753
0.604571
0.499754
0.371305
0.177232
0.676243
0.727431
0.777803
0.824609
0.871599
0.919673
0.969259
1.02196
1.07944
1.14246
1.21103
1.28508
1.36378
1.44533
1.52705
1.60555
1.67671
1.73596
1.77906
1.80037
1.79856
1.77535
1.72396
1.65273
1.57267
1.48745
1.39727
1.30053
1.20713
1.11872
1.03631
0.95938
0.885946
0.815476
0.748699
0.681909
0.60257
0.508239
0.385321
0.18511
0.680286
0.740119
0.799599
0.858786
0.918137
0.975075
1.0325
1.09385
1.15986
1.2306
1.30583
1.38503
1.46666
1.54865
1.62858
1.70379
1.77077
1.82439
1.85777
1.86259
1.8485
1.8116
1.74774
1.66349
1.57117
1.47371
1.37063
1.26966
1.17489
1.08682
1.00561
0.930625
0.860556
0.794711
0.732909
0.672193
0.603724
0.521426
0.404092
0.195571
0.685317
0.750965
0.817706
0.884695
0.954155
1.0248
1.0954
1.16849
1.24479
1.32448
1.40726
1.49276
1.5784
1.66141
1.73945
1.81057
1.87032
1.91084
1.92343
1.91399
1.88357
1.82846
1.74783
1.64989
1.54169
1.43348
1.32775
1.22788
1.13536
1.05031
0.972586
0.901535
0.836046
0.775161
0.717987
0.662014
0.60127
0.531371
0.408015
0.200363
0.695765
0.76544
0.838329
0.913412
0.990371
1.06834
1.14861
1.23178
1.31755
1.40595
1.49636
1.58736
1.67551
1.75733
1.82913
1.89011
1.93428
1.95331
1.95185
1.92828
1.88103
1.80938
1.71299
1.60131
1.4865
1.3769
1.27418
1.17903
1.09163
1.01182
0.939287
0.873317
0.812817
0.756618
0.703489
0.651228
0.595142
0.52651
0.406341
0.202971
0.713022
0.786483
0.864473
0.94596
1.03
1.11554
1.20248
1.29116
1.38134
1.47256
1.5637
1.65234
1.73459
1.8067
1.86502
1.90912
1.93547
1.9417
1.92768
1.89045
1.8304
1.74797
1.64317
1.52858
1.41606
1.31117
1.2149
1.12685
1.04652
0.973431
0.907067
0.84662
0.790978
0.738919
0.689259
0.640497
0.589123
0.52373
0.403056
0.200707
0.736193
0.813509
0.896067
0.982731
1.07218
1.163
1.25433
1.34556
1.43579
1.52387
1.60851
1.68698
1.75556
1.81221
1.85552
1.88395
1.8954
1.8883
1.86157
1.814
1.74529
1.6556
1.55034
1.44148
1.33729
1.2412
1.15366
1.07423
1.00213
0.936581
0.876802
0.821765
0.770494
0.721793
0.67463
0.628173
0.580092
0.519096
0.396293
0.194154
0.763217
0.844088
0.930452
1.02102
1.11415
1.20804
1.30108
1.39137
1.47762
1.55858
1.63262
1.69724
1.7507
1.79183
1.82008
1.83373
1.83147
1.81166
1.77398
1.71786
1.64243
1.55089
1.45128
1.35141
1.25712
1.17121
1.09364
1.02349
0.959972
0.902058
0.848754
0.798975
0.7515
0.705377
0.65962
0.613606
0.565939
0.506144
0.386982
0.187155
0.791736
0.875434
0.964441
1.0573
1.15214
1.24681
1.33849
1.42514
1.50515
1.57711
1.63935
1.69036
1.72964
1.75654
1.77055
1.77075
1.75599
1.7252
1.67849
1.61539
1.53692
1.44812
1.3558
1.26558
1.18155
1.10558
1.03769
0.976712
0.921435
0.870712
0.823414
0.778415
0.734536
0.690636
0.64598
0.599823
0.551295
0.492733
0.379779
0.186001
0.819519
0.905056
0.995363
1.08882
1.18338
1.27613
1.36421
1.44551
1.51822
1.58069
1.63168
1.67079
1.69759
1.71184
1.71324
1.7015
1.67586
1.63609
1.58261
1.51585
1.43805
1.35389
1.26924
1.18841
1.11414
1.04745
0.98823
0.935513
0.887688
0.84336
0.801395
0.760664
0.720084
0.678618
0.635481
0.590155
0.541435
0.482039
0.384129
0.19292
)
;

boundaryField
{
    leftWall
    {
        type            kqRWallFunction;
        value           nonuniform 0();
    }
    rightWall
    {
        type            kqRWallFunction;
        value           nonuniform List<scalar> 
43
(
0.0297688
0.0390926
0.043787
0.0511079
0.0586114
0.0644549
0.068227
0.0716986
0.0760098
0.0806179
0.0849362
0.0886923
0.091766
0.0941611
0.0960331
0.0979138
0.100956
0.106489
0.115206
0.123374
0.128887
0.121857
0.122401
0.127502
0.135492
0.143114
0.14936
0.15409
0.157638
0.160674
0.163786
0.167279
0.171558
0.177232
0.18511
0.195571
0.200363
0.202971
0.200707
0.194154
0.187155
0.186001
0.19292
)
;
    }
    lowerWall
    {
        type            kqRWallFunction;
        value           nonuniform List<scalar> 
66
(
0.0103557
0.00632709
0.00632709
0.0112849
0.0151149
0.0186765
0.0221578
0.0258093
0.0301585
0.0361357
0.0465169
0.0694583
0.078188
0.074275
0.0778668
0.0955165
0.211428
0.516816
0.691262
0.750019
0.700055
0.64177
0.589793
0.518247
0.410701
0.268957
0.211428
0.356731
0.41958
0.438639
0.417181
0.369517
0.317492
0.27603
0.24728
0.228002
0.215589
0.208046
0.204055
0.202742
0.203518
0.205813
0.209366
0.214176
0.220306
0.227834
0.236926
0.246429
0.254912
0.261076
0.263392
0.260784
0.253197
0.241492
0.22694
0.210798
0.194072
0.17743
0.161202
0.145426
0.129872
0.113976
0.0962727
0.0748654
0.0492487
0.0297688
)
;
    }
    atmosphere
    {
        type            inletOutlet;
        inletValue      nonuniform 0();
        value           nonuniform 0();
    }
    defaultFaces
    {
        type            empty;
    }
    procBoundary1to0
    {
        type            processor;
        value           nonuniform List<scalar> 
44
(
0.0130339
0.0282347
0.0385723
0.0477944
0.0565887
0.0653398
0.0744607
0.084425
0.0956676
0.108329
0.121887
0.135576
0.148973
0.162142
0.175417
0.189207
0.20388
0.21973
0.236899
0.255283
0.291326
0.291326
0.311732
0.332555
0.354039
0.375576
0.396756
0.416487
0.430189
0.435842
0.432552
0.426464
0.41906
0.411258
0.404582
0.399966
0.398086
0.399317
0.403765
0.411295
0.421559
0.434024
0.448018
0.46279
)
;
    }
    procBoundary1to3
    {
        type            processor;
        value           nonuniform List<scalar> 
45
(
0.526587
0.579901
0.637167
0.699809
0.767683
0.844668
0.930957
1.02123
1.11373
1.20605
1.29496
1.37803
1.45304
1.51811
1.57166
1.61293
1.64181
1.65794
1.66121
1.65192
1.63009
1.5956
1.54899
1.49119
1.42354
1.34882
1.27083
1.19404
1.122
1.05658
0.998264
0.946715
0.901035
0.859544
0.820695
0.783327
0.746332
0.708706
0.669565
0.628163
0.584094
0.536405
0.477777
0.377226
0.190981
)
;
    }
}


// ************************************************************************* //
