/*--------------------------------*- C++ -*----------------------------------*\
| =========                 |                                                 |
| \\      /  F ield         | OpenFOAM: The Open Source CFD Toolbox           |
|  \\    /   O peration     | Version:  5.0                                   |
|   \\  /    A nd           | Web:      www.OpenFOAM.org                      |
|    \\/     M anipulation  |                                                 |
\*---------------------------------------------------------------------------*/
FoamFile
{
    version     2.0;
    format      ascii;
    class       volScalarField;
    location    "0.75";
    object      p;
}
// * * * * * * * * * * * * * * * * * * * * * * * * * * * * * * * * * * * * * //

dimensions      [1 -1 -2 0 0 0 0];

internalField   nonuniform List<scalar> 
1915
(
809.79
808.772
758.6
758.641
707.959
708.362
657.989
658.557
609.133
609.87
561.54
562.355
515.029
515.86
469.623
470.424
424.877
426.579
378.029
381.111
2447.09
1922.06
1268.7
732.83
422.161
272.852
209.045
184.504
177.704
177.149
176.681
175.507
174.674
175.877
179.609
187.343
197.724
213.386
240.842
285.508
356.796
471.934
638.738
848.689
1079.27
1303.61
1501.59
1663.27
1787.04
1876.24
1936.1
1971.72
1987.03
1984.48
1965.15
1929.85
1881.3
1827.14
1786.99
1783.22
2561.57
1728.46
924.622
428.241
226.933
154.295
129.314
122.147
121.655
121.746
121.032
119.898
119.548
122.114
129.829
139.96
149.737
157.845
173.632
206.7
266.941
365.578
511.833
703.683
922.329
1141.81
1340.84
1507.55
1638.56
1735.87
1803.79
1846.97
1869.24
1873.29
1860.9
1833.72
1795.33
1753.38
1711.38
1725.37
2064.18
914.727
341.539
158.156
112.249
95.059
88.0832
86.0543
86.3109
86.1358
84.3287
81.6891
78.7636
76.4611
77.9602
82.4347
84.9837
88.816
98.7429
125.427
172.933
254.639
382.723
558.539
765.553
978.623
1176.49
1346.25
1483.16
1588.06
1664.43
1716.4
1747.59
1760.84
1758.49
1742.99
1718.4
1690.66
1664.71
1665.38
1093.79
248.029
131.638
103.663
92.8946
86.185
81.7438
79.3293
78.07
77.365
76.7264
76.2084
75.5836
73.8654
71.6575
69.7704
63.5409
51.8521
33.8491
34.4215
62.5271
128.945
249.977
424.871
630.985
842.103
1039.13
1209.99
1349.79
1459.11
1541.21
1600.03
1638.95
1660.75
1667.93
1663.18
1650.2
1633.01
1614.09
1602.9
450.985
108.638
98.8606
94.1899
89.7902
85.8009
82.5738
80.4764
79.1022
78.1383
77.3996
76.9065
76.4715
75.7055
74.6634
74.5439
74.4211
73.0173
61.78
41.6818
15.0942
18.2415
116.616
300.161
516.792
729.693
925.499
1095.5
1235.44
1346.22
1431.38
1494.87
1539.75
1568.49
1583.49
1587.35
1583.18
1573.17
1554.52
1535.3
398.733
73.7786
93.3949
93.1479
88.611
84.4558
82.1772
80.4689
79.1415
78.154
77.3564
76.732
76.1914
75.6239
75.1646
74.9988
74.9998
74.8712
74.2627
72.7966
63.5978
23.5832
37.7756
195.067
422.654
637.359
829.144
995.604
1133.1
1242.83
1328.92
1395.49
1445.01
1479.31
1500.53
1511.15
1513.87
1509.51
1492.71
1464.51
640.943
102.062
106.148
91.3062
79.5404
73.8973
78.919
79.0314
78.5031
77.8606
77.1431
76.5118
75.9633
75.4612
75.0692
74.8719
74.7991
74.7955
74.7881
74.6393
73.4488
66.853
49.3899
138.98
355.416
565.82
748.235
907.651
1039.98
1146.24
1231.4
1299.88
1353.06
1391.81
1417.87
1433.62
1441.7
1442.93
1435.33
1414.06
732.567
253.583
149.508
97.5984
70.7062
37.1923
67.1017
75.5865
76.971
77.1991
76.7396
76.2163
75.7378
75.3094
74.9756
74.7785
74.67
74.6102
74.5826
74.5751
74.5143
74.0573
74.4355
130.06
317.302
514.419
681.42
830.348
954.907
1055.19
1137.65
1207.35
1263.64
1305.91
1335.54
1354.83
1366.63
1372.78
1372.47
1365.28
796.091
448.24
208.131
101.813
77.7605
31.0332
50.7554
70.5794
75.0457
76.2459
76.1472
75.8251
75.4665
75.1284
74.8573
74.6817
74.5763
74.5109
74.4782
74.4864
74.5182
74.9596
78.8053
130.137
300.579
477.647
626.022
762.408
877.077
968.424
1046.17
1117.2
1176.83
1221.96
1253.95
1275.16
1288.62
1296.75
1297.95
1292.1
820.989
515.256
133.723
81.854
84.7414
57.67
51.6999
68.6497
73.8538
75.2945
75.5114
75.397
75.166
74.9185
74.7089
74.5628
74.4728
74.4232
74.4173
74.4529
74.4735
74.9448
79.2322
130.396
293.522
449.125
579.252
703.307
806.977
885.63
955.504
1028.47
1092.9
1140.62
1173.8
1195.38
1208.53
1215.84
1215.88
1207.32
325.108
318.588
271.588
253.919
224.006
200.598
183.652
159.786
149.71
127.707
120.943
101.334
96.4225
79.8792
75.5557
62.2496
58.3375
47.5911
44.317
35.369
24.2128
11.3956
-6.02193
-25.2514
-37.3961
-31.4674
-15.5353
-3.83697
-1.5414
-1.24129
-1.31575
-1.44125
-1.54168
-1.63019
-1.72057
-1.81174
-1.90084
-1.98743
-2.0715
-2.15265
-2.23037
-2.30471
-2.37625
325.024
289.646
262.262
281.097
238.034
203.012
160.264
117.166
172.587
134.93
95.8492
76.6155
129.386
93.6262
76.9887
74.5954
99.8133
76.3275
74.7313
74.6342
80.1782
73.1489
74.4312
74.4632
69.0812
72.8775
74.2051
74.312
62.9339
73.007
74.1288
74.1989
60.0718
73.5521
74.1181
74.108
58.2244
73.7397
74.1012
74.0437
55.6148
73.6871
74.06
74.0251
50.9524
73.4054
74.0281
74.0773
40.5319
72.3485
74.0727
74.2529
18.0816
68.4007
74.3206
74.5631
-12.983
56.14
74.482
74.8551
-39.9037
22.8005
72.6999
74.9144
-49.18
-26.2324
48.2925
74.6308
-31.6001
-54.8049
-9.61244
59.1617
-8.56267
-44.4618
-54.8166
-0.79806
-1.75987
-12.8447
-50.67
-54.9688
-1.35707
-1.90857
-14.4521
-50.3775
-1.41812
-1.44905
-2.0497
-12.8066
-1.54848
-1.51855
-1.54122
-2.17128
-1.65179
-1.661
-1.62623
-1.6332
-1.74411
-1.77117
-1.78625
-1.75629
-1.83637
-1.86573
-1.90229
-1.93451
-1.92752
-1.95768
-1.99501
-2.04351
-2.015
-2.04588
-2.08188
-2.12608
-2.09868
-2.12889
-2.16361
-2.20388
-2.17885
-2.20758
-2.24027
-2.27741
-2.25562
-2.2829
-2.31341
-2.34738
-2.32918
-2.35531
-2.38393
-2.41504
-2.40001
-2.42516
-2.45219
-2.48092
530.215
193.799
68.2407
79.1498
81.9348
69.3893
60.3615
69.1432
73.2331
74.5681
74.9571
74.9884
74.8647
74.6969
74.5426
74.4284
74.3569
74.3235
74.339
74.3947
74.4078
74.8877
79.0074
129.915
286.722
422.993
538.5
652.966
745.178
809.084
869.422
943.132
1012.63
1062.25
1095.24
1115.79
1127.18
1132.22
1130.34
1122.01
111.762
70.0588
75.4968
78.0083
77.0925
70.5079
65.4749
69.934
72.8588
74.0497
74.5099
74.6288
74.5829
74.478
74.3702
74.2861
74.2335
74.2147
74.2418
74.2932
74.2813
74.8837
79.1009
130.766
277.326
396.116
501.907
607.818
685.88
743.761
803.379
872.33
939.63
987.932
1018.76
1036.87
1045.35
1047.41
1043.36
1035.51
73.3898
74.6498
75.6681
75.9517
75.0493
71.8291
68.9775
70.8386
72.8126
73.7199
74.1763
74.3346
74.3351
74.2728
74.2004
74.1419
74.1069
74.101
74.1349
74.1729
74.1428
74.9161
80.2321
131.787
264.056
368.381
467.326
559.928
625.18
686.371
753.499
817.731
875.306
917.811
945.057
959.275
963.856
962.924
956.821
948.839
74.6268
74.9608
75.041
74.8483
74.2973
72.8812
71.2924
71.6339
72.9468
73.5643
73.9554
74.1098
74.1261
74.0861
74.0382
73.9997
73.9799
73.9855
74.0245
74.0618
74.0678
74.8418
81.672
132.84
248.244
340.919
432.756
507.398
567.3
631.82
701.998
763.785
813.34
850.481
874.699
883.114
881.862
878.904
871.871
862.172
74.7002
74.6662
74.6076
74.4165
74.0281
73.3595
72.4122
72.3616
73.1047
73.5139
73.8209
73.9483
73.9536
73.916
73.8845
73.8613
73.8542
73.8693
73.9117
73.9616
74.0249
74.5865
81.5805
130.441
229.687
314.341
396.355
457.047
514.838
581.362
647.795
704.544
750.503
787.075
811.01
812.765
800.912
795.284
790.232
775.891
74.4393
74.3998
74.3541
74.2062
73.9168
73.4677
72.9228
72.8731
73.2104
73.497
73.7397
73.8357
73.8
73.7526
73.7361
73.7267
73.7306
73.7528
73.7967
73.8633
73.9992
74.2883
79.4669
125.255
209.644
288.882
357.314
412.311
470.317
533.703
592.695
644.735
690.363
729.468
757.69
760.643
737.374
719.22
714.145
698.082
74.2518
74.2078
74.1682
74.0651
73.8491
73.4969
73.1528
73.0969
73.263
73.4811
73.6817
73.7116
73.6284
73.5946
73.5915
73.5958
73.6095
73.6364
73.6793
73.7527
73.932
74.0202
74.8424
118.763
190.744
264.294
320.872
371.817
429.043
486.062
539.268
588.036
633.16
675.437
711.302
727.679
710.769
672.969
647.307
648.653
74.1141
74.062
74.0253
73.9524
73.7927
73.53
73.2744
73.1895
73.2634
73.4239
73.5539
73.5173
73.4374
73.4438
73.4549
73.4712
73.4928
73.5228
73.5715
73.6606
73.6718
72.1169
66.0875
108.954
173.641
238.336
288.94
337.05
388.142
439.021
487.032
532.843
576.577
619.013
659.173
685.818
684.012
655.121
608.076
614.434
74.014
73.9592
73.9263
73.8706
73.75
73.5547
73.3394
73.2079
73.1984
73.2941
73.3415
73.3128
73.2921
73.3027
73.3291
73.3551
73.3823
73.4151
73.4791
73.593
73.276
66.49
53.4834
96.2559
157.728
212.601
258.218
303.353
347.74
392.145
435.565
478.212
519.72
559.707
597.08
625.155
633.963
623.988
592.76
573.36
73.9516
73.8935
73.8622
73.818
73.7332
73.5702
73.3596
73.1877
73.1176
73.1174
73.1533
73.2017
73.1862
73.1784
73.2156
73.2488
73.2792
73.3141
73.3903
73.4759
72.7406
52.9375
40.4124
84.482
143.393
191.545
230.825
268.48
308.046
346.532
384.643
423.781
463.019
500.937
535.775
562.557
577.554
582.17
571.373
530.197
73.9256
73.8566
73.8476
73.8708
73.7968
73.587
73.3557
73.1529
73.0669
72.9848
73.0115
73.1007
73.084
73.0716
73.1147
73.1527
73.1839
73.2205
73.3089
73.2427
71.1682
32.8885
28.6269
74.8016
128.18
170.604
205.604
236.034
270.755
302.814
334.203
369.374
406.576
443.287
477.947
507.582
529.805
538.887
533.035
522.083
73.9461
73.9012
74.0282
74.1268
73.9184
73.5761
73.33
73.1073
73.0193
72.9179
72.8898
72.9568
72.9737
72.983
73.027
73.0683
73.0987
73.1396
73.2566
72.9928
59.7796
1.9718
16.0552
67.0092
111.515
147.289
176.948
207.025
237.778
258.612
282.233
313.804
349.794
385.892
421.125
453.055
479.534
495.751
509.63
511.924
74.0988
74.0982
74.3971
74.4334
74.0239
73.5212
73.2395
73.0498
72.949
72.8564
72.7952
72.8297
72.8747
72.9142
72.9565
72.9964
73.0282
73.0859
73.1782
72.439
36.1389
-22.687
5.92211
58.8253
98.5263
124.288
147.969
178.846
197.748
199.568
219.179
252.296
290.543
327.2
364.098
397.943
427.646
452.017
474.553
484.408
74.4704
74.4617
74.5817
74.5001
74.1242
73.5502
73.1023
72.9928
72.8877
72.8528
72.7574
72.7886
72.8291
72.8689
72.9073
72.9409
72.9827
73.0898
73.0661
71.1879
1.50645
-39.1859
3.00003
52.5867
84.7435
99.3353
122.571
145.011
147.526
143.503
154.682
189.385
232.3
270.95
308.832
343.587
374.32
399.977
418.584
439.505
74.9416
74.8544
74.6707
74.5332
74.2276
73.6608
73.1475
73.0181
72.9422
72.9027
72.8045
72.8138
72.8284
72.8483
72.8733
72.8979
72.9604
73.1086
72.8601
45.455
-46.2005
-49.2906
5.69096
51.4785
69.3789
79.5977
99.8972
111.587
115.795
119.18
125.213
146.748
192.054
228.533
263.494
294.544
322.424
344.539
358.598
371.33
75.3238
75.28
74.9497
74.6093
74.2684
73.7182
73.2816
73.1103
73.0837
73.0086
72.9048
72.8548
72.8422
72.8403
72.8429
72.8638
72.9701
72.9829
71.3973
7.19183
-73.8109
-45.5317
10.1429
45.9839
50.8875
60.0892
78.7824
92.6359
101.974
105.712
111.708
127.364
161.45
195.834
217.025
246.715
275.039
291.31
299.843
298.248
75.5005
75.5769
75.3137
74.8408
74.2932
73.7223
73.3676
73.2083
73.175
73.072
72.9623
72.8982
72.8556
72.8266
72.8093
72.8527
73.0315
72.6187
53.0634
-52.185
-86.179
-29.4015
19.4691
35.7767
35.2305
44.633
67.7482
85.5505
96.2909
98.5286
101.218
111.111
130.252
146.934
129.958
183.044
221.248
240.269
244.364
232.163
75.0512
75.6649
75.4739
75.0036
74.3689
73.8294
73.4789
73.2981
73.1989
73.094
72.9882
72.9067
72.8463
72.7935
72.7621
72.8436
72.8902
71.147
9.41943
-96.9272
-79.1379
-13.3975
28.3173
28.824
23.7692
39.7057
55.2424
75.5405
90.3009
93.3472
88.5853
85.5874
86.663
63.8504
41.6573
104.6
147.743
193.249
197.899
175.959
63.7355
74.8757
75.3384
74.9516
74.4583
73.9284
73.5796
73.359
73.1987
73.0678
72.966
72.8861
72.8163
72.7443
72.7152
72.841
72.4199
53.802
-58.3414
-110.264
-50.3245
7.90861
28.9093
20.9269
19.5368
32.3082
44.3193
56.9637
72.2133
70.0857
43.4748
37.5653
31.8103
13.2871
10.2778
31.6433
79.3292
155.219
161.597
133.048
-0.952228
61.2821
74.509
74.7511
74.4116
73.8736
73.6096
73.3864
73.1758
73.0094
72.9181
72.8496
72.7843
72.708
72.6779
72.5986
70.5992
-1.16245
-108.829
-98.4155
-16.0214
30.3985
28.0473
12.5594
18.1305
31.5275
43.4892
47.0177
42.3455
21.0133
1.99956
0.983229
-0.510915
0.351425
1.86322
4.30195
33.9509
114.7
127.905
104.272
-59.122
-12.5647
49.9907
74.0142
73.6546
73.6174
73.6147
73.403
73.1281
72.9355
72.8829
72.8464
72.8066
72.7287
72.6156
72.0684
31.5792
-76.2639
-116.928
-64.5543
8.77157
42.79
24.5917
9.00304
17.6822
32.8156
43.9347
33.8099
11.9572
-0.541764
-0.979993
-0.856218
-0.854735
-0.713589
-0.292279
-0.0518795
8.99469
64.6636
94.6696
75.35
-45.8359
-62.4755
-32.6968
20.7803
57.3604
72.7709
73.1135
72.8163
72.5438
72.7471
72.8656
72.8593
72.7061
72.3577
71.4962
39.4121
-48.8251
-109.834
-94.9374
-23.9029
14.6612
37.6966
23.9304
12.9429
18.7501
29.0989
23.7278
4.151
-1.18932
-1.27188
-1.17724
-1.11216
-0.950062
-0.827459
-0.73795
-1.02282
0.326336
22.6288
66.8415
44.5147
-9.16563
-33.935
-61.2598
-57.1091
-24.4587
18.2111
42.1276
58.4775
68.5221
71.7552
72.088
72.0486
70.5736
57.6149
20.1967
-49.5769
-101.242
-101.734
-52.5301
-1.10651
2.89629
15.2459
19.7918
18.9242
18.9589
13.5742
1.36284
-0.9035
-1.28243
-1.30266
-1.2306
-1.17097
-1.07755
-0.994557
-0.992759
-1.28444
-0.919969
3.19118
38.7727
15.0922
-2.20366
-5.3326
-20.7916
-44.6504
-60.274
-59.0454
-42.474
-20.7175
0.887854
14.8601
16.5666
11.5184
-5.87873
-39.4473
-76.9851
-101.339
-94.0989
-54.1973
-10.8277
-1.87328
-0.972861
-1.53602
3.30527
14.2563
11.8956
0.207143
-1.38109
-1.38528
-1.37571
-1.3618
-1.31979
-1.27653
-1.22727
-1.19175
-1.20819
-1.36597
-1.41661
-0.751005
10.6306
4.79438
-1.75597
-2.25863
-3.53379
-9.15956
-22.5431
-39.8684
-54.5961
-62.1721
-68.6055
-74.0955
-78.0678
-82.5412
-88.8821
-91.9407
-85.3227
-64.6014
-35.3397
-10.4953
-1.88701
-1.69649
-1.73196
-2.04778
-2.21158
-1.37973
-1.96917
-1.70052
-1.62017
-1.53247
-1.48877
-1.4663
-1.43654
-1.40547
-1.37795
-1.36933
-1.39578
-1.48476
-1.59637
-1.58186
-1.41663
4.09485
-1.95377
-2.01561
-2.1539
-2.70018
-3.98344
-7.12565
-13.7451
-20.6227
-27.5506
-33.9014
-38.4297
-39.9453
-38.6417
-33.5677
-24.9142
-14.5965
-5.24832
-1.70691
-1.43606
-1.61764
-1.78331
-2.01549
-2.29148
-2.08921
-1.8478
-1.85077
-1.74024
-1.65199
-1.60944
-1.58347
-1.55779
-1.5338
-1.51619
-1.5167
-1.54457
-1.60092
-1.64522
-1.50436
-1.73538
-0.175206
-2.10525
-2.17163
-2.18715
-2.19803
-2.40682
-2.83018
-3.47374
-3.79763
-3.99782
-4.18814
-4.42664
-4.28277
-4.1637
-4.08686
-4.06718
-3.20664
-1.88499
-1.40772
-1.54587
-1.72381
-1.79931
-1.87946
-2.02283
-2.00965
-1.90875
-1.8871
-1.82016
-1.76115
-1.72468
-1.69783
-1.67399
-1.65377
-1.64108
-1.64361
-1.66667
-1.70264
-1.71756
-1.6718
-1.79581
1.65132
-2.18669
-2.26467
-2.32853
-2.36215
-2.39116
-2.35765
-2.43792
-2.51717
-2.5636
-2.59564
-2.57195
-2.46074
-2.36944
-2.34287
-2.3452
-2.21199
-1.92963
-1.75423
-1.75701
-1.83234
-1.88974
-1.89165
-1.91263
-1.96427
-1.96698
-1.94187
-1.89977
-1.86088
-1.83037
-1.80523
-1.78334
-1.76578
-1.75594
-1.75862
-1.77669
-1.80511
-1.83327
-1.87766
-2.07509
2.89716
-2.25444
-2.31854
-2.38637
-2.45264
-2.51127
-2.52859
-2.56278
-2.59806
-2.61447
-2.607
-2.55823
-2.51685
-2.50957
-2.52687
-2.47464
-2.30757
-2.10773
-1.9674
-1.93571
-1.95226
-1.92164
-1.87565
-1.92173
-2.0109
-2.03999
-2.02042
-1.98737
-1.9566
-1.93022
-1.9073
-1.88747
-1.87213
-1.86373
-1.86422
-1.87305
-1.88334
-1.88417
-1.87238
-2.18899
5.24523
-2.32151
-2.37333
-2.42837
-2.48661
-2.54719
-2.59773
-2.6479
-2.68709
-2.70704
-2.70541
-2.6815
-2.68223
-2.71014
-2.70312
-2.58552
-2.39903
-2.2486
-2.15872
-2.13368
-2.06926
-1.95209
-1.94297
-2.02212
-2.0651
-2.08649
-2.09356
-2.07702
-2.05213
-2.02815
-2.00706
-1.98915
-1.97558
-1.96753
-1.96455
-1.96242
-1.94941
-1.89863
-1.76333
-1.93908
2.56663
-2.38655
-2.43097
-2.47704
-2.52422
-2.57212
-2.61758
-2.66085
-2.69574
-2.71606
-2.72134
-2.7253
-2.75646
-2.77986
-2.71789
-2.60196
-2.48999
-2.41364
-2.3588
-2.29884
-2.18863
-2.10608
-2.14
-2.18305
-2.14909
-2.12768
-2.14904
-2.16238
-2.15067
-2.12801
-2.10743
-2.0908
-2.07854
-2.07088
-2.06661
-2.06061
-2.03857
-1.96768
-1.7673
-1.43747
-2.78114
-2.44999
-2.48889
-2.52907
-2.56974
-2.60991
-2.64782
-2.68299
-2.71172
-2.7295
-2.74214
-2.77585
-2.82001
-2.81288
-2.73766
-2.6537
-2.6042
-2.56727
-2.5198
-2.44988
-2.38559
-2.35526
-2.34461
-2.32135
-2.27878
-2.23637
-2.22454
-2.24367
-2.25219
-2.23174
-2.20957
-2.19273
-2.18103
-2.17453
-2.17357
-2.17736
-2.18057
-2.16755
-2.16734
-2.36636
-3.24122
-2.51254
-2.54723
-2.58306
-2.61942
-2.65542
-2.6898
-2.7213
-2.74669
-2.76458
-2.79199
-2.84202
-2.88045
-2.85175
-2.7913
-2.74346
-2.71797
-2.68954
-2.64802
-2.60889
-2.60263
-2.5945
-2.53712
-2.47158
-2.42574
-2.38412
-2.35026
-2.34421
-2.35248
-2.33668
-2.31207
-2.29304
-2.28008
-2.27357
-2.27572
-2.29082
-2.32325
-2.38556
-2.54929
-3.08706
-2.42453
)
;

boundaryField
{
    leftWall
    {
        type            calculated;
        value           nonuniform 0();
    }
    rightWall
    {
        type            calculated;
        value           nonuniform List<scalar> 
43
(
1783.22
1725.37
1665.38
1602.9
1535.3
1464.51
1414.06
1365.28
1292.1
1207.32
1122.01
1035.51
948.839
862.172
775.891
698.082
648.653
614.434
573.36
530.197
522.083
511.924
484.408
439.505
371.33
298.248
232.163
175.959
133.048
104.272
75.35
44.5147
15.0922
4.79438
4.09485
-0.175206
1.65132
2.89716
5.24523
2.56663
-2.78114
-3.24122
-2.42453
)
;
    }
    lowerWall
    {
        type            calculated;
        value           nonuniform List<scalar> 
66
(
833.324
832.313
808.772
758.641
708.362
658.557
609.87
562.355
515.86
470.424
426.579
381.111
348.99
313.612
286.227
305.063
2447.09
2561.57
2064.18
1093.79
450.985
398.733
640.943
732.567
796.091
820.989
2464.97
1945.61
1292.16
756.252
445.705
296.395
232.588
208.048
201.247
200.692
200.224
199.051
198.217
199.42
203.153
210.886
221.268
236.929
264.386
309.052
380.34
495.477
662.282
872.232
1102.81
1327.15
1525.14
1686.81
1810.58
1899.78
1959.65
1995.26
2010.57
2008.02
1988.69
1953.39
1904.81
1850.59
1810.54
1805
)
;
    }
    atmosphere
    {
        type            calculated;
        value           nonuniform 0();
    }
    defaultFaces
    {
        type            empty;
    }
    procBoundary1to0
    {
        type            processor;
        value           nonuniform List<scalar> 
44
(
807.876
757.49
708.135
659.47
611.141
563.558
517.034
471.49
426.572
380.985
333.218
285.392
240.829
200.889
165.812
135.375
109.436
88.7662
74.7827
62.7401
30.0058
30.0058
10.0283
-9.69826
-15.2243
-10.5494
-4.36303
-1.6839
-1.26377
-1.08763
-1.19888
-1.3316
-1.43374
-1.52194
-1.61081
-1.70083
-1.78985
-1.87732
-1.96323
-2.04723
-2.12862
-2.20682
-2.28177
-2.35402
)
;
    }
    procBoundary1to3
    {
        type            processor;
        value           nonuniform List<scalar> 
45
(
-2.4457
-2.46866
-2.49281
-2.51844
-2.54529
-2.57449
-2.60628
-2.63918
-2.67278
-2.70643
-2.73925
-2.76975
-2.7953
-2.81996
-2.86069
-2.91111
-2.93268
-2.9061
-2.8692
-2.84888
-2.83123
-2.80608
-2.7745
-2.75301
-2.75449
-2.75178
-2.71084
-2.65285
-2.59854
-2.5433
-2.49713
-2.4708
-2.45666
-2.43872
-2.41298
-2.3912
-2.37542
-2.3664
-2.36581
-2.37609
-2.40036
-2.43845
-2.50185
-2.76332
-1.26457
)
;
    }
}


// ************************************************************************* //
