/*--------------------------------*- C++ -*----------------------------------*\
| =========                 |                                                 |
| \\      /  F ield         | OpenFOAM: The Open Source CFD Toolbox           |
|  \\    /   O peration     | Version:  5.0                                   |
|   \\  /    A nd           | Web:      www.OpenFOAM.org                      |
|    \\/     M anipulation  |                                                 |
\*---------------------------------------------------------------------------*/
FoamFile
{
    version     2.0;
    format      ascii;
    class       volScalarField;
    location    "0.75";
    object      p_rgh;
}
// * * * * * * * * * * * * * * * * * * * * * * * * * * * * * * * * * * * * * //

dimensions      [1 -1 -2 0 0 0 0];

internalField   nonuniform List<scalar> 
1915
(
833.324
832.313
828.451
829.271
823.636
826.079
822.793
823.362
821.025
821.762
820.518
821.333
821.094
821.925
822.776
823.576
825.116
826.818
825.355
828.438
2464.97
1945.61
1292.16
756.252
445.705
296.395
232.588
208.048
201.247
200.692
200.224
199.051
198.217
199.42
203.153
210.886
221.268
236.929
264.386
309.052
380.34
495.477
662.282
872.232
1102.81
1327.15
1525.14
1686.81
1810.58
1899.78
1959.65
1995.26
2010.57
2008.02
1988.69
1953.39
1904.81
1850.59
1810.54
1805
2626.11
1799.05
995.061
496.938
292.85
219.625
195.914
190.555
191.399
192.193
191.657
190.529
190.179
192.744
200.459
210.59
220.368
228.475
244.263
277.331
337.571
436.208
582.463
774.314
992.959
1212.44
1411.47
1578.18
1709.19
1806.5
1874.42
1917.6
1939.87
1943.92
1931.53
1904.35
1865.96
1824.01
1782.01
1792.83
2181.7
1018.79
383.077
177.499
126.596
108.002
105.803
117.195
140.034
160.962
171.02
175.463
179.349
184.377
191.794
199.305
202.621
206.533
216.46
243.144
290.65
372.356
500.441
676.256
883.27
1096.34
1294.21
1463.96
1600.88
1705.78
1782.15
1834.12
1865.3
1878.56
1876.18
1860.65
1836.12
1808.38
1782.42
1783
1240.22
317.884
133.6
104.275
93.1934
86.3857
81.9143
79.4965
78.2362
77.5304
76.8912
76.3699
76.2816
81.518
112.755
167.772
197.433
199.092
189.534
196.915
227.238
293.748
414.78
589.676
795.789
1006.91
1203.94
1374.79
1514.59
1623.91
1706.02
1764.83
1803.75
1825.55
1832.73
1827.77
1814.29
1797.62
1778.89
1767.7
597.317
112.481
99.6543
94.6116
90.0642
86.0255
82.7891
80.6906
79.3162
78.3506
77.6115
77.1183
76.6832
75.9185
74.8787
74.764
74.6625
74.2648
85.8501
149.388
197.469
225.096
328.47
512.053
728.683
941.584
1137.39
1307.39
1447.34
1558.11
1643.27
1706.76
1751.64
1780.38
1795.38
1799.24
1793.46
1778.49
1765.3
1747.2
602.396
82.4866
95.8594
94.1188
89.4338
84.8847
82.4704
80.7292
79.4007
78.4133
77.6155
76.991
76.451
75.8846
75.4246
75.2589
75.262
75.1403
74.6217
73.5261
70.5053
127.044
266.948
454.041
681.632
896.337
1088.12
1254.58
1392.07
1501.81
1587.9
1654.47
1703.98
1738.29
1759.51
1770.13
1772.84
1757.11
1706.53
1717.6
917.035
145.822
109.931
107.931
115.649
89.342
79.5152
79.3658
78.8092
78.1663
77.4492
76.8179
76.2694
75.7674
75.3756
75.1783
75.1063
75.1079
75.1233
75.0704
74.3004
70.0572
151.013
423.512
661.481
871.885
1054.3
1213.72
1346.05
1452.31
1537.46
1605.94
1659.12
1697.87
1723.94
1739.68
1747.77
1748.37
1664.02
1580.37
920.782
291.924
157.283
203.851
211.03
158.894
84.4126
76.2851
77.3571
77.5525
77.0927
76.5694
76.091
75.6626
75.3288
75.1318
75.0236
74.9652
74.9438
74.9618
75.0357
75.2725
95.7213
366.302
670.453
867.571
1034.57
1183.5
1308.05
1408.33
1490.8
1560.5
1616.79
1659.06
1688.69
1707.98
1719.79
1725.94
1717.15
1558.53
796.491
466.621
346.48
260.847
238.451
191.14
111.769
71.4698
75.4877
76.6468
76.5475
76.2253
75.8667
75.5286
75.2576
75.082
74.9767
74.9117
74.8816
74.9036
75.0108
75.8622
84.0964
314.368
700.814
877.885
1026.26
1162.63
1277.28
1368.61
1446.38
1517.42
1577.06
1622.15
1654.15
1675.4
1688.86
1696.99
1698.19
1692.34
945.598
746.177
406.853
208.013
118.688
162.755
103.813
70.6469
74.4805
75.7573
75.9588
75.8444
75.6134
75.3659
75.1562
75.0102
74.9202
74.8708
74.8664
74.9108
74.9831
75.76
82.3156
305.477
732.31
896.447
1026.56
1150.45
1254.09
1332.59
1402.56
1475.71
1539.66
1587.53
1621.08
1642.71
1655.85
1663.16
1663.21
1654.64
819.944
813.423
814.577
796.908
815.595
792.187
824.293
800.428
839.858
817.848
861.058
841.447
886.968
870.408
916.99
903.621
951.031
940.142
988.64
979.423
1019.97
1052.43
1076.7
1096.69
916.797
671.177
264.504
22.0085
0.158309
0.279255
0.235081
0.164704
0.122511
0.0929982
0.0621793
0.0311123
0.00268151
-0.0226689
-0.0449451
-0.0637132
-0.0784783
-0.0892793
-0.0966935
819.86
784.482
757.097
775.932
781.023
746.001
703.244
656.352
764.176
726.516
608.959
265.304
770.027
725.1
177.564
75.2396
786.977
463.028
75.4214
75.3244
776.761
240.422
75.1713
75.2033
741.47
162.303
74.9957
75.1025
690.962
115.637
74.9703
75.0403
640.604
81.2251
75.011
75.0008
629.605
74.6844
75.0458
74.9883
668.852
74.6841
75.057
75.0221
740.88
79.5307
75.0779
75.1271
843.489
101.501
75.1759
75.3567
922.754
206.948
75.4783
75.7226
992.248
509.271
75.696
76.071
1010.81
880.112
93.5923
76.1867
959.891
1000.77
541.879
75.9598
610.532
1014.81
1023.66
243.973
105.362
838.106
1033.89
974.091
0.344518
197.208
935.994
1030.48
0.253836
0.66471
233.427
922.252
0.194248
0.269354
0.687742
174.332
0.11623
0.15597
0.229936
0.309261
0.0714362
0.0629379
0.105963
0.159625
0.0386364
0.0116327
-0.00272873
0.032725
0.00648686
-0.0228673
-0.0593696
-0.091111
-0.0239965
-0.0541493
-0.0914823
-0.139935
-0.0502391
-0.0811169
-0.117118
-0.161313
-0.072118
-0.102326
-0.137051
-0.177322
-0.0899179
-0.118646
-0.151337
-0.188477
-0.103733
-0.13101
-0.161517
-0.195484
-0.113755
-0.139878
-0.168504
-0.199608
-0.120455
-0.145601
-0.172635
-0.201359
1019
625.544
183.666
81.3169
87.8702
110.716
85.9888
71.776
74.0216
75.0806
75.4519
75.4833
75.3595
75.1918
75.0375
74.9233
74.8518
74.8185
74.8349
74.8963
74.947
75.6714
81.9741
327.702
776.068
917.812
1033.29
1146.95
1238.24
1290.1
1354.65
1436.77
1504.29
1556.81
1590.07
1610.63
1622.01
1627.06
1625.17
1616.85
514.877
172.034
76.8512
79.8466
85.5805
88.7306
71.7162
71.1163
73.5175
74.5922
75.0529
75.1719
75.126
75.0212
74.9132
74.8291
74.7765
74.7577
74.7854
74.8406
74.8572
75.6712
84.1551
392.98
820.204
939.058
1044.78
1149.86
1179.56
1128.27
1200.5
1371.79
1481.29
1530.88
1561.74
1579.86
1588.34
1590.4
1586.35
1578.5
89.5947
75.406
76.4511
78.0848
80.1906
75.7299
74.5973
71.4709
73.4055
74.3111
74.768
74.9267
74.9267
74.8644
74.792
74.7335
74.6985
74.6927
74.7269
74.7675
74.7601
75.7313
94.8094
482.549
855.476
959.851
1058.65
1139.08
1038.96
1057.18
1127.34
1301.82
1466.83
1509.34
1536.6
1550.84
1555.43
1554.51
1548.41
1540.43
75.2696
75.6114
75.8452
76.1437
75.5617
74.5541
75.1859
72.4255
73.5882
74.205
74.5961
74.751
74.771
74.7328
74.6789
74.6404
74.6205
74.6261
74.6653
74.7047
74.7308
75.719
125.552
618.19
888.703
981.353
1072.74
1063.31
961.735
1027.11
1132.4
1364.59
1453.93
1490.54
1515.15
1523.55
1522.36
1519.5
1512.5
1502.81
75.3904
75.357
75.32
75.1167
74.7813
74.4244
73.7165
73.6495
73.7955
74.2042
74.5112
74.6386
74.6474
74.6145
74.5747
74.5515
74.5444
74.5594
74.602
74.6534
74.7362
75.5547
186.204
779.596
919.603
1004.15
1070.76
912.241
934.811
1024.41
1317.17
1394.66
1440.62
1476.02
1488.87
1501.44
1489.92
1485.08
1480.26
1466.04
75.1794
75.1399
75.0947
74.9495
74.6852
74.3614
73.7637
73.927
73.9507
74.2373
74.48
74.5761
74.5448
74.4972
74.4762
74.4668
74.4707
74.4929
74.537
74.6048
74.76
75.3632
292.955
864.907
949.388
1028.38
1007.29
856.513
914.957
1217.97
1332.78
1384.82
1430.45
1469.53
1469.17
1389.95
1405.88
1453.79
1453.4
1316.41
75.0424
74.9983
74.9588
74.8564
74.6706
74.3471
73.9721
73.8885
74.054
74.2719
74.4724
74.503
74.723
74.3865
74.3821
74.3864
74.4
74.4269
74.4699
74.5445
74.747
85.8389
559.141
908.804
980.796
1043.58
845.203
836.745
1007.6
1276.57
1329.78
1378.55
1423.67
1465.94
1487
1187.51
1007.72
1171.46
1367.43
950.026
74.9555
74.9034
74.8668
74.7941
74.6437
74.3887
74.1398
74.0328
74.106
74.2658
74.397
75.2236
74.566
74.2852
74.2964
74.3126
74.3342
74.3643
74.413
74.5032
74.5446
128.955
858.272
949.862
1014.52
1014.43
774.317
822.427
1214.52
1280.43
1328.44
1374.25
1417.98
1460.41
1500.37
1296.18
832.768
766.106
852.143
923.292
74.9068
74.852
74.8191
74.7635
74.6434
74.4514
74.2444
74.1117
74.0932
74.3761
75.5334
75.6732
74.2253
74.1955
74.2219
74.2479
74.2751
74.3079
74.3719
74.4866
74.2033
247.885
945.721
988.499
1043.7
855.477
764.676
963.031
1240.44
1284.91
1328.34
1370.99
1412.49
1452.46
1489.79
1513.35
1203.99
706.183
629.895
1250.35
74.8963
74.8382
74.8069
74.7628
74.6785
74.5289
74.3245
74.1531
74.0766
74.4922
76.8876
75.5914
74.1309
74.1231
74.1603
74.1935
74.2239
74.2587
74.335
74.4209
78.1356
679.907
984.468
1028.52
1054.41
715.945
756.811
1191.67
1252.54
1291.08
1329.25
1368.39
1407.62
1445.5
1480.27
1507.01
1521.91
1240.44
609.877
717.449
74.9227
74.8537
74.8447
74.8678
75.2006
74.6791
74.3801
74.1747
74.1008
75.2246
77.0747
76.1221
74.081
74.0686
74.1117
74.1497
74.1809
74.2175
74.3059
74.2397
83.2944
1004.87
1024.96
1071.02
1052.6
724.053
842.011
1232
1267.36
1299.31
1330.97
1366.23
1403.43
1440.1
1474.72
1504.29
1526.48
1528.39
601.013
523.08
74.9962
74.9522
75.4092
77.906
78.0101
74.9288
74.4125
74.1935
74.1693
77.0852
77.0382
77.097
74.3369
74.0328
74.0768
74.1181
74.1485
74.1894
74.3064
74.0427
258.348
1047.48
1064.05
1114.63
800.318
730.057
1149.52
1255.32
1285.76
1305.46
1330.82
1362.94
1399.06
1435.17
1469.39
1502.48
1528.94
1543.61
1150.43
512.974
75.2063
76.3775
79.0635
79.2418
78.8982
77.4204
74.6305
74.1923
74.4518
77.23
77.1286
77.1837
75.071
74.0173
74.0596
74.0995
74.1313
74.189
74.2814
73.5425
834.403
1073.69
1105.68
1046.94
517.871
765.439
1243.55
1278.98
1242
1131.4
1302.55
1346.58
1390.06
1426.47
1463.4
1500.63
1530.32
1554.7
1482.83
485.511
75.7334
78.5804
79.6571
79.4662
79.1607
78.5016
75.7607
74.1745
77.3099
77.3931
77.3077
77.3319
75.0751
74.0262
74.0642
74.0979
74.1397
74.2467
74.2229
75.583
1091.47
1111
1155.02
586.31
524.54
1070.56
1268.35
1245.45
607.669
387.087
800.226
1096.07
1209.75
1277.15
1463.73
1500.1
1530.85
1556.59
1529.99
874.255
76.1811
78.185
79.9145
79.8259
79.6014
78.93
75.4602
74.2485
76.6908
77.6613
77.563
77.2416
74.4532
74.0599
74.0845
74.1091
74.1716
74.3198
74.071
468.843
1136.13
1154.49
1090.04
427.743
535.282
1210.11
1253.01
707.812
218.526
223.203
292.337
880.367
944.275
1124.97
1471.67
1505.36
1533.32
1555.47
1564.24
1577.59
76.5999
76.881
79.5019
80.1924
79.8407
79.1736
74.6994
74.394
74.5277
76.3701
76.7109
74.9023
74.1562
74.1066
74.109
74.1298
74.2361
74.249
72.6635
1000.96
1180.28
1212.33
595.557
439.207
847.645
1141.65
711.366
223.943
209.359
213.102
386.653
1121.99
1160.44
1208.32
1453.06
1493.53
1540.8
1557.08
1565.74
1564.27
76.8295
76.9132
77.0757
79.3352
79.7189
76.6187
74.7959
74.5426
74.5052
74.4441
74.3564
74.2296
74.1806
74.1482
74.1306
74.174
74.3529
73.9401
218.684
1182.26
1220.08
1245.84
433.777
446.553
901.434
619.573
237.546
199.745
208.372
212.014
1071.42
1248.99
1268.15
1283.16
711.439
890.409
1542.18
1561.33
1565.53
1553.5
76.437
77.0513
76.871
76.5788
76.3229
75.2583
74.9473
74.6881
74.5778
74.4751
74.3693
74.2854
74.2237
74.1707
74.1393
74.2208
74.2674
72.5242
787.579
1265.31
1281.96
815.619
465.382
503.473
897.563
452.445
509.592
381.319
209.32
268.128
1253.09
1271.55
1270.89
1042.8
46.8467
292.168
1523.69
1569.98
1570.25
1553.13
174.919
76.3195
76.783
76.4015
75.9147
75.3715
75.0266
74.7971
74.6326
74.502
74.4001
74.3199
74.2499
74.1779
74.1487
74.2745
73.8534
203.016
1208.63
1309.76
1367.97
496.301
485.837
1035.12
865.62
946.333
1069.86
1057.5
472.885
496.822
882.366
939.338
753.952
161.837
12.8556
141.593
1444.32
1587.04
1552.41
1502.56
956.594
174.348
76.009
76.2482
75.9069
75.3661
75.1007
74.8772
74.6664
74.4999
74.4086
74.34
74.2747
74.1984
74.1683
74.089
72.0896
816.9
1367.33
1377.95
1169.72
503.104
525.606
1081.62
1087.11
1100.64
1112.65
1112.82
999.953
495.277
42.9889
31.0527
0.979644
1.84515
3.4485
32.2311
695.689
1599.62
1563.79
1258.54
1019.19
971.014
335.152
75.5671
75.2047
75.1659
75.1627
74.9509
74.6759
74.4833
74.4307
74.3942
74.3544
74.2764
74.1633
73.6162
412.08
1377.09
1415.62
1468.66
486.748
527.642
1096.12
1119.14
1127.92
1142.98
1152.89
915.742
550.494
24.1201
0.568414
0.691566
0.69305
0.834372
1.25865
1.59035
149.432
1517.83
1599.41
1373.18
805.867
997.208
1026.99
701.305
253.402
74.3768
74.7193
74.422
74.1496
74.3528
74.4713
74.465
74.3118
73.9634
73.1019
376.714
1352.1
1482.04
1495.35
1281.43
139.878
568.601
1173.21
1163.49
1170.43
1178.92
705.794
55.9866
0.452519
0.334467
0.428475
0.493552
0.655647
0.778249
0.86754
0.592632
13.9768
667.825
1663.66
1650.22
85.5709
620.221
927.788
920.69
908.898
711.663
448.817
231.432
99.6984
73.4194
73.7522
73.7128
85.96
257.675
778.086
1454.54
1548.6
1548.11
1495.08
392.936
16.5049
381.502
1047.11
1213.04
1210.53
951.643
31.3859
0.812316
0.382968
0.361519
0.433573
0.493204
0.586626
0.669618
0.671397
0.380068
0.767035
57.3693
1527.88
1679.27
-0.00685735
21.5789
282.585
720.447
910.844
903.154
919.725
891.396
794.469
696.829
733.299
870.638
1149.29
1431.95
1588.31
1587.31
1603.64
1383.53
429.179
1.54491
11.2597
0.266735
145.776
924.766
896.992
120.595
0.380046
0.335459
0.347399
0.361386
0.403395
0.446651
0.495918
0.53144
0.514995
0.356934
0.308289
4.905
568.55
1549.25
0.0666164
-0.231699
-0.402172
61.1745
292.548
634.024
833.937
1013.74
1181.99
1249.65
1307.61
1361.52
1382.12
1413.23
1414.91
1296.99
852.765
229.078
0.31926
0.810181
0.421263
-0.220233
-0.387844
36.7694
-0.190451
0.0820551
0.160632
0.25027
0.293965
0.316445
0.346202
0.377274
0.404792
0.413411
0.386966
0.297983
0.190631
3.18602
0.630276
456.073
-0.107232
-0.151327
-0.192644
-0.405714
-0.651441
25.1544
120.23
254.085
381.438
495.843
575.353
586.934
560.662
474.938
337.763
167.915
27.0738
1.45344
0.456346
1.4959
1.33205
0.365407
-0.412542
-0.246146
-0.00494756
-0.00817005
0.102452
0.190837
0.233415
0.259384
0.285061
0.30906
0.32667
0.326153
0.298286
0.241916
0.198345
0.93574
0.301822
1.66765
-0.201397
-0.266088
-0.272869
-0.254098
-0.370527
-0.587098
-0.704836
-0.341576
0.11077
0.537345
2.31182
1.23978
0.00669682
-0.378218
-0.668326
-0.582304
0.229119
0.647093
0.392686
0.483307
0.434758
0.857693
0.251645
-0.105694
-0.00521157
0.0164291
0.0833714
0.14238
0.178848
0.205695
0.229539
0.249753
0.262444
0.259916
0.236854
0.200872
0.185965
0.231728
0.459611
6.71883
-0.221901
-0.299721
-0.362764
-0.393679
-0.414336
-0.362256
-0.393878
-0.410492
-0.399753
-0.392567
-0.337241
-0.236515
0.0988141
0.199683
0.410197
0.218316
0.178372
0.246051
0.243586
0.168576
0.313579
0.149212
0.0613336
0.0022242
-0.00208028
0.0229018
0.0649908
0.10388
0.134385
0.159532
0.181421
0.198979
0.208824
0.206139
0.188071
0.159648
0.131489
0.0870979
-0.110248
919.913
-0.227875
-0.291962
-0.359716
-0.425728
-0.483537
-0.499159
-0.528843
-0.55838
-0.569524
-0.556556
-0.47908
-0.416306
-0.139495
0.0200986
0.303918
-0.0565896
-0.0449935
0.0957984
0.151265
0.648018
0.671939
0.188977
0.165021
0.135261
-0.0118393
0.00621952
0.0391933
0.0699628
0.096346
0.119259
0.139092
0.154428
0.162836
0.162339
0.153507
0.14322
0.142396
0.154182
-0.161944
1851.92
-0.232573
-0.284395
-0.339425
-0.397633
-0.45813
-0.5085
-0.55823
-0.596805
-0.615936
-0.611497
-0.559606
-0.539064
0.0809666
0.303201
-0.0895774
-0.28883
-0.126412
0.195948
0.568749
0.633225
0.384157
0.324854
1.35477
1.45962
0.386861
-0.00362473
0.0119253
0.0368059
0.0607892
0.0818797
0.0997847
0.113354
0.121405
0.124385
0.12652
0.139534
0.190311
0.325513
0.152876
1983.74
-0.234658
-0.279075
-0.325144
-0.37233
-0.420214
-0.465658
-0.508876
-0.543625
-0.563645
-0.566929
-0.549663
0.0502376
0.342212
0.399805
-0.438876
-0.321609
-0.113924
0.421154
0.485034
0.114586
0.509074
1.5898
1.64911
1.68334
1.70434
0.362904
-0.0103537
0.00121328
0.0238795
0.0444577
0.0610915
0.073356
0.0810177
0.0852801
0.0912855
0.113326
0.184214
0.384075
5.90519
1476.06
-0.234565
-0.273457
-0.313642
-0.354312
-0.394475
-0.43238
-0.467542
-0.496185
-0.513844
-0.526196
-0.437296
0.419334
0.415763
-0.0097779
-0.428076
-0.377206
-0.165442
0.021915
-0.182014
-0.130857
0.998973
1.59968
1.62458
1.6663
1.70787
1.69468
0.151887
-0.0367583
-0.0163054
0.00586036
0.0226997
0.0344077
0.0409024
0.0418607
0.0380693
0.0348622
0.0478805
0.0466885
13.9066
251.859
-0.23298
-0.267668
-0.303498
-0.339862
-0.37586
-0.410244
-0.441732
-0.467123
-0.484939
-0.452343
0.442948
0.452668
0.427246
-0.504411
-0.454519
-0.413269
-0.244886
-0.321379
-0.329302
-0.322984
0.351804
1.45526
1.58691
1.63287
1.67291
1.70577
1.40296
-0.0634451
-0.0571233
-0.032511
-0.0134785
-0.000515743
0.00598905
0.00384358
-0.011259
-0.0436915
-0.105997
-0.269733
1.41271
-0.144976
)
;

boundaryField
{
    leftWall
    {
        type            fixedFluxPressure;
        gradient        nonuniform 0();
        value           nonuniform 0();
    }
    rightWall
    {
        type            fixedFluxPressure;
        gradient        uniform 0;
        value           nonuniform List<scalar> 
43
(
1805
1792.83
1783
1767.7
1747.2
1717.6
1580.37
1558.53
1692.34
1654.64
1616.85
1578.5
1540.43
1502.81
1466.04
1316.41
950.026
923.292
1250.35
717.449
523.08
512.974
485.511
874.255
1577.59
1564.27
1553.5
1553.13
1502.56
1258.54
1373.18
1650.22
1679.27
1549.25
456.073
1.66765
6.71883
919.913
1851.92
1983.74
1476.06
251.859
-0.144976
)
;
    }
    lowerWall
    {
        type            fixedFluxPressure;
        gradient        uniform 0;
        value           nonuniform List<scalar> 
66
(
833.324
832.313
832.313
829.271
826.079
823.362
821.762
821.333
821.925
823.576
826.818
828.438
819.86
784.482
757.097
775.932
2464.97
2626.11
2181.7
1240.22
597.317
602.396
917.035
920.782
796.491
945.598
2464.97
1945.61
1292.16
756.252
445.705
296.395
232.588
208.048
201.247
200.692
200.224
199.051
198.217
199.42
203.153
210.886
221.268
236.929
264.386
309.052
380.34
495.477
662.282
872.232
1102.81
1327.15
1525.14
1686.81
1810.58
1899.78
1959.65
1995.26
2010.57
2008.02
1988.69
1953.39
1904.81
1850.59
1810.54
1805
)
;
    }
    atmosphere
    {
        type            totalPressure;
        rho             rho;
        psi             none;
        gamma           1;
        p0              nonuniform 0();
        value           nonuniform 0();
    }
    defaultFaces
    {
        type            empty;
    }
    procBoundary1to0
    {
        type            processor;
        value           nonuniform List<scalar> 
44
(
831.332
826.078
822.442
820.065
822.52
822.537
823.099
824.642
826.811
828.311
828.054
828.381
832.419
841.531
855.96
875.491
899.983
930.211
967.591
1007.24
1026.34
1026.34
1058.5
858.74
509.539
194.285
30.2588
0.130288
0.184242
0.355857
0.2925
0.216253
0.171972
0.142241
0.112382
0.081916
0.0530042
0.0262047
0.00152786
-0.0206688
-0.0396859
-0.0549301
-0.0663378
-0.074464
)
;
    }
    procBoundary1to3
    {
        type            processor;
        value           nonuniform List<scalar> 
45
(
-0.101414
-0.124379
-0.148532
-0.174156
-0.201007
-0.23021
-0.261999
-0.294894
-0.328497
-0.362147
-0.394968
-0.425471
-0.451006
-0.47548
-0.18734
0.51138
0.495072
-0.403804
-0.518827
-0.497053
-0.435048
-0.323893
-0.408141
-0.408701
-0.410184
-0.407484
-0.366518
0.482364
1.30549
1.63408
1.66715
1.67417
0.0523491
-0.0944339
-0.068698
-0.0469145
-0.0311329
-0.0221148
-0.0215233
-0.031802
-0.0560716
-0.0941633
-0.157569
-0.418994
1.07971
)
;
    }
}


// ************************************************************************* //
