/*--------------------------------*- C++ -*----------------------------------*\
| =========                 |                                                 |
| \\      /  F ield         | OpenFOAM: The Open Source CFD Toolbox           |
|  \\    /   O peration     | Version:  5.0                                   |
|   \\  /    A nd           | Web:      www.OpenFOAM.org                      |
|    \\/     M anipulation  |                                                 |
\*---------------------------------------------------------------------------*/
FoamFile
{
    version     2.0;
    format      ascii;
    class       surfaceScalarField;
    location    "0.75";
    object      phi;
}
// * * * * * * * * * * * * * * * * * * * * * * * * * * * * * * * * * * * * * //

dimensions      [0 3 -1 0 0 0 0];

internalField   nonuniform List<scalar> 
3731
(
-3.27317e-06
-3.28407e-06
-3.27317e-06
-3.24969e-06
-5.17802e-06
-6.52286e-06
-2.27642e-06
-6.42184e-06
-8.79928e-06
-1.32666e-06
-7.28161e-06
-1.01259e-05
-6.26432e-07
-7.93725e-06
-1.07524e-05
-1.37506e-07
-8.52849e-06
-1.08899e-05
1.39883e-07
-9.07769e-06
-1.075e-05
2.79703e-07
-9.59667e-06
-1.04703e-05
3.8217e-07
-1.00978e-05
-1.00881e-05
8.0097e-07
-1.07709e-05
-9.28715e-06
-3.29968e-05
3.29968e-05
-8.3887e-05
5.08902e-05
-0.000119683
3.57964e-05
-0.000139415
1.97319e-05
-0.000148814
9.39869e-06
-0.000152748
3.9337e-06
-0.000153837
1.08932e-06
-0.000153428
-4.09337e-07
-0.000152256
-1.17208e-06
-0.000150773
-1.48305e-06
-0.000149393
-1.37925e-06
-0.000148426
-9.67708e-07
-0.000147968
-4.57724e-07
-0.000147908
-6.0093e-08
-0.000148175
2.67276e-07
-0.000148813
6.37945e-07
-0.000149971
1.15773e-06
-0.000151644
1.67359e-06
-0.000153274
1.62942e-06
-0.000153791
5.16982e-07
-0.00015227
-1.52059e-06
-0.000148285
-3.98512e-06
-0.000141582
-6.70301e-06
-0.000132277
-9.30506e-06
-0.000121029
-1.12478e-05
-0.000108747
-1.22819e-05
-9.62222e-05
-1.25251e-05
-8.39859e-05
-1.22363e-05
-7.23267e-05
-1.16592e-05
-6.13413e-05
-1.09854e-05
-5.09909e-05
-1.03504e-05
-4.11565e-05
-9.83438e-06
-3.16871e-05
-9.46942e-06
-2.24396e-05
-9.24752e-06
-1.33334e-05
-9.10621e-06
-4.4727e-06
-8.86067e-06
3.6346e-06
-8.1073e-06
9.68816e-06
-6.05356e-06
9.69421e-06
-6.05477e-09
9.69421e-06
-6.97307e-05
0.000102728
-0.000117174
9.83332e-05
-0.000141759
6.03819e-05
-0.000152804
3.07763e-05
-0.000156769
1.33645e-05
-0.000157792
4.95635e-06
-0.000157658
9.55462e-07
-0.000156944
-1.12398e-06
-0.000155737
-2.3783e-06
-0.000154171
-3.04979e-06
-0.000152452
-3.09786e-06
-0.00015077
-2.6502e-06
-0.000149265
-1.9619e-06
-0.000147997
-1.32796e-06
-0.000146872
-8.58317e-07
-0.000145846
-3.87808e-07
-0.000145036
3.47157e-07
-0.000144589
1.22688e-06
-0.000144222
1.26239e-06
-0.000143562
-1.43031e-07
-0.000142167
-2.91546e-06
-0.000139201
-6.95069e-06
-0.000133932
-1.19727e-05
-0.000126198
-1.70382e-05
-0.000116489
-2.09571e-05
-0.000105631
-2.31401e-05
-9.43702e-05
-2.37858e-05
-8.32217e-05
-2.33848e-05
-7.24883e-05
-2.23926e-05
-6.23087e-05
-2.11651e-05
-5.27042e-05
-1.99549e-05
-4.36251e-05
-1.89135e-05
-3.49939e-05
-1.81006e-05
-2.67427e-05
-1.74987e-05
-1.88522e-05
-1.69967e-05
-1.14018e-05
-1.63111e-05
-4.70003e-06
-1.48091e-05
3.98085e-07
-1.11517e-05
3.57626e-06
-3.18423e-06
1.32705e-05
-6.37471e-05
0.000166475
-0.00010267
0.000137256
-0.000127826
8.55379e-05
-0.00014398
4.69305e-05
-0.000151529
2.09132e-05
-0.000155181
8.60843e-06
-0.000156594
2.36843e-06
-0.00015659
-1.12743e-06
-0.000155736
-3.2324e-06
-0.000154379
-4.40726e-06
-0.000152676
-4.80039e-06
-0.00015067
-4.65617e-06
-0.000148457
-4.17531e-06
-0.000146193
-3.592e-06
-0.000143904
-3.14738e-06
-0.0001415
-2.7916e-06
-0.000139137
-2.01553e-06
-0.00013699
-9.20913e-07
-0.000135233
-4.9437e-07
-0.000133677
-1.69857e-06
-0.000131973
-4.62022e-06
-0.000129387
-9.53623e-06
-0.000125041
-1.63191e-05
-0.000118476
-2.36029e-05
-0.000109997
-2.94363e-05
-0.00010036
-3.27774e-05
-9.02609e-05
-3.38844e-05
-8.01766e-05
-3.34691e-05
-7.03975e-05
-3.21717e-05
-6.10761e-05
-3.04864e-05
-5.22642e-05
-2.87668e-05
-4.39528e-05
-2.72248e-05
-3.61127e-05
-2.59408e-05
-2.87232e-05
-2.48882e-05
-2.17917e-05
-2.39282e-05
-1.53799e-05
-2.27229e-05
-9.65231e-06
-2.05367e-05
-4.87606e-06
-1.59279e-05
-1.74574e-06
-6.31454e-06
1.15247e-05
-3.85857e-05
0.00020506
-6.52008e-05
0.000163871
-9.64241e-05
0.000116761
-0.000123344
7.385e-05
-0.000135495
3.30642e-05
-0.000144519
1.76326e-05
-0.000151178
9.028e-06
-0.000154138
1.83263e-06
-0.00015456
-2.81104e-06
-0.000153704
-5.26306e-06
-0.00015224
-6.2643e-06
-0.000150182
-6.71472e-06
-0.000147351
-7.00604e-06
-0.000144424
-6.51866e-06
-0.000141788
-5.78342e-06
-0.000138955
-5.62477e-06
-0.000135636
-5.33417e-06
-0.000131852
-4.70555e-06
-0.000128274
-4.07226e-06
-0.000125173
-4.79924e-06
-0.000122471
-7.32267e-06
-0.00011974
-1.22672e-05
-0.000115901
-2.01575e-05
-0.000110155
-2.93491e-05
-0.000102619
-3.69728e-05
-9.40068e-05
-4.13892e-05
-8.49648e-05
-4.29263e-05
-7.59066e-05
-4.25274e-05
-6.70883e-05
-4.099e-05
-5.86546e-05
-3.89201e-05
-5.06647e-05
-3.67566e-05
-4.31273e-05
-3.47623e-05
-3.60412e-05
-3.30269e-05
-2.94166e-05
-3.15127e-05
-2.32725e-05
-3.00723e-05
-1.76217e-05
-2.83737e-05
-1.2482e-05
-2.56764e-05
-7.98305e-06
-2.04269e-05
-4.38714e-06
-9.91045e-06
7.13759e-06
-7.71514e-06
0.000212775
-2.62746e-05
0.000182431
-8.8588e-06
9.93454e-05
3.80336e-05
2.69576e-05
6.45235e-05
6.5743e-06
5.60014e-05
2.61547e-05
2.11042e-05
4.39252e-05
-2.13611e-05
4.42979e-05
-5.8039e-05
3.38669e-05
-8.4052e-05
2.075e-05
-0.000102819
1.25026e-05
-0.000119075
9.54168e-06
-0.000133611
7.5295e-06
-0.000141679
1.54909e-06
-0.00014148
-5.98218e-06
-0.000138872
-8.2327e-06
-0.000134715
-9.49122e-06
-0.000128096
-1.13244e-05
-0.000122029
-1.0139e-05
-0.000117262
-9.56685e-06
-0.000113163
-1.14211e-05
-0.000109896
-1.55346e-05
-0.000106242
-2.38115e-05
-0.000101101
-3.449e-05
-9.43487e-05
-4.37252e-05
-8.66731e-05
-4.90648e-05
-7.86571e-05
-5.09423e-05
-7.06312e-05
-5.05532e-05
-6.28021e-05
-4.88192e-05
-5.52947e-05
-4.64275e-05
-4.81593e-05
-4.3892e-05
-4.14024e-05
-4.15193e-05
-3.50365e-05
-3.93928e-05
-2.90949e-05
-3.74543e-05
-2.36098e-05
-3.55574e-05
-1.85648e-05
-3.34187e-05
-1.38181e-05
-3.04231e-05
-9.17476e-06
-2.50702e-05
-4.72908e-06
-1.43561e-05
2.40851e-06
5.59184e-06
0.000207184
7.91704e-06
0.000180105
5.12078e-05
5.60545e-05
9.88119e-05
-2.06464e-05
0.000126976
-2.15898e-05
0.000135049
1.80821e-05
0.000113085
6.58889e-05
6.33731e-05
9.40096e-05
7.2571e-06
8.9983e-05
-3.60007e-05
6.40079e-05
-6.53622e-05
4.18642e-05
-8.51037e-05
2.92831e-05
-9.83873e-05
2.08131e-05
-0.000107524
1.06861e-05
-0.000113844
3.3778e-07
-0.000116925
-5.15173e-06
-0.000118655
-7.76164e-06
-0.000120298
-9.68149e-06
-0.000119117
-1.13198e-05
-0.000111551
-1.71326e-05
-0.0001031
-1.98728e-05
-9.91312e-05
-1.95029e-05
-9.57787e-05
-2.71639e-05
-9.12446e-05
-3.90241e-05
-8.5275e-05
-4.96949e-05
-7.85563e-05
-5.57834e-05
-7.15949e-05
-5.79037e-05
-6.46297e-05
-5.75184e-05
-5.78187e-05
-5.56301e-05
-5.12686e-05
-5.29777e-05
-4.50094e-05
-5.01512e-05
-3.90282e-05
-4.75004e-05
-3.33415e-05
-4.50795e-05
-2.80062e-05
-4.27896e-05
-2.30796e-05
-4.04841e-05
-1.85607e-05
-3.79376e-05
-1.4271e-05
-3.47128e-05
-9.62803e-06
-2.97132e-05
-4.27854e-06
-1.97056e-05
-1.87003e-06
1.15581e-05
0.000195626
4.42918e-05
0.000147372
8.80938e-05
1.22526e-05
0.000102357
-3.49094e-05
0.000106895
-2.61277e-05
0.000113716
1.1261e-05
0.000119495
6.01102e-05
9.6192e-05
0.000117312
4.44756e-05
0.000141699
-4.77039e-06
0.000113254
-3.94001e-05
7.64939e-05
-6.17269e-05
5.16099e-05
-7.59998e-05
3.5086e-05
-8.60617e-05
2.0748e-05
-9.37152e-05
7.99133e-06
-9.84315e-05
-4.35487e-07
-0.000100476
-5.7175e-06
-9.99304e-05
-1.02267e-05
-9.59064e-05
-1.53437e-05
-9.16362e-05
-2.14028e-05
-8.90926e-05
-2.24164e-05
-8.7442e-05
-2.11535e-05
-8.4772e-05
-2.9834e-05
-8.07532e-05
-4.30429e-05
-7.56424e-05
-5.48057e-05
-6.99673e-05
-6.14586e-05
-6.41125e-05
-6.37585e-05
-5.82323e-05
-6.33987e-05
-5.24533e-05
-6.14091e-05
-4.68748e-05
-5.85562e-05
-4.14986e-05
-5.55273e-05
-3.62731e-05
-5.27259e-05
-3.12127e-05
-5.01399e-05
-2.64045e-05
-4.75978e-05
-2.19439e-05
-4.49446e-05
-1.78745e-05
-4.20071e-05
-1.40937e-05
-3.84935e-05
-1.00853e-05
-3.37215e-05
-4.56359e-06
-2.52274e-05
-6.43362e-06
2.84468e-05
0.000167179
8.1259e-05
9.45597e-05
9.67408e-05
-3.22924e-06
8.7028e-05
-2.51967e-05
8.41925e-05
-2.32922e-05
8.60741e-05
9.37932e-06
9.13308e-05
5.48535e-05
8.73455e-05
0.000121298
5.2456e-05
0.000176589
9.13842e-06
0.000156571
-2.44059e-05
0.000110038
-4.66896e-05
7.38937e-05
-6.10864e-05
4.94827e-05
-7.11613e-05
3.08229e-05
-7.87619e-05
1.55919e-05
-8.36406e-05
4.44319e-06
-8.58389e-05
-3.5192e-06
-8.57182e-05
-1.03474e-05
-8.36228e-05
-1.74392e-05
-8.10491e-05
-2.39765e-05
-7.76501e-05
-2.58154e-05
-7.52652e-05
-2.35383e-05
-7.40758e-05
-3.10234e-05
-7.02755e-05
-4.68431e-05
-6.59336e-05
-5.91476e-05
-6.13336e-05
-6.60586e-05
-5.65986e-05
-6.84935e-05
-5.17936e-05
-6.82036e-05
-4.70314e-05
-6.61713e-05
-4.24169e-05
-6.31706e-05
-3.79106e-05
-6.00337e-05
-3.33991e-05
-5.72374e-05
-2.88943e-05
-5.46446e-05
-2.45242e-05
-5.19679e-05
-2.0429e-05
-4.90399e-05
-1.6702e-05
-4.57341e-05
-1.33331e-05
-4.18625e-05
-1.00891e-05
-3.69655e-05
-5.93262e-06
-2.93839e-05
-1.23662e-05
5.82492e-05
0.00010893
9.34147e-05
5.93942e-05
8.12717e-05
8.91368e-06
6.77577e-05
-1.16827e-05
6.44349e-05
-1.99693e-05
6.25005e-05
1.13138e-05
6.00758e-05
5.72782e-05
5.83001e-05
0.000123073
3.74056e-05
0.000197483
6.92929e-06
0.000187048
-1.91632e-05
0.000136131
-3.82023e-05
9.29328e-05
-5.12686e-05
6.2549e-05
-6.05485e-05
4.01028e-05
-6.74753e-05
2.25187e-05
-7.21512e-05
9.11913e-06
-7.46423e-05
-1.02813e-06
-7.5484e-05
-9.5057e-06
-7.54485e-05
-1.74747e-05
-7.51075e-05
-2.43174e-05
-7.33102e-05
-2.76127e-05
-6.90163e-05
-2.78322e-05
-6.50264e-05
-3.50132e-05
-6.0566e-05
-5.13035e-05
-5.67423e-05
-6.29714e-05
-5.31217e-05
-6.96792e-05
-4.94453e-05
-7.217e-05
-4.56619e-05
-7.1987e-05
-4.18715e-05
-6.99616e-05
-3.81871e-05
-6.6855e-05
-3.45082e-05
-6.37126e-05
-3.06368e-05
-6.11088e-05
-2.65935e-05
-5.86879e-05
-2.25642e-05
-5.59972e-05
-1.8732e-05
-5.28721e-05
-1.52237e-05
-4.92423e-05
-1.20817e-05
-4.50046e-05
-9.17478e-06
-3.98724e-05
-5.84938e-06
-3.27093e-05
-1.82156e-05
5.26767e-05
5.62529e-05
7.08099e-05
4.12609e-05
6.36172e-05
1.61064e-05
5.5422e-05
-3.48754e-06
4.75049e-05
-1.20522e-05
4.04244e-05
1.83943e-05
3.30322e-05
6.46703e-05
2.64983e-05
0.000129607
1.30747e-05
0.000210907
-3.71695e-06
0.000203839
-2.0315e-05
0.000152729
-3.43272e-05
0.000106945
-4.489e-05
7.31118e-05
-5.2749e-05
4.79618e-05
-5.87033e-05
2.8473e-05
-6.29556e-05
1.33714e-05
-6.56409e-05
1.65717e-06
-6.72165e-05
-7.93008e-06
-6.83425e-05
-1.63487e-05
-6.91472e-05
-2.35128e-05
-6.80594e-05
-2.87005e-05
-6.28272e-05
-3.30644e-05
-5.66916e-05
-4.11488e-05
-5.18367e-05
-5.61584e-05
-4.846e-05
-6.63481e-05
-4.5698e-05
-7.24411e-05
-4.29794e-05
-7.48886e-05
-4.01473e-05
-7.48191e-05
-3.72782e-05
-7.28308e-05
-3.44581e-05
-6.96751e-05
-3.15041e-05
-6.66666e-05
-2.81478e-05
-6.44651e-05
-2.44502e-05
-6.23855e-05
-2.06718e-05
-5.97757e-05
-1.70221e-05
-5.65218e-05
-1.36411e-05
-5.26234e-05
-1.05865e-05
-4.80592e-05
-7.76163e-06
-4.26972e-05
-4.6811e-06
-3.57898e-05
-2.28967e-05
2.08659e-06
-1.22687e-05
-1.13727e-05
4.1721e-06
2.85183e-06
-1.42807e-05
-1.42032e-05
5.68238e-06
2.52163e-06
-1.62799e-05
-1.67016e-05
5.02007e-06
1.27414e-06
-1.79368e-05
-1.85126e-05
3.08512e-06
-5.91196e-07
-1.9095e-05
-1.95513e-05
4.47478e-07
-2.81767e-06
-1.97067e-05
-1.98686e-05
-2.50036e-06
-5.24632e-06
-1.97654e-05
-1.94748e-05
-5.64016e-06
-7.77916e-06
-1.92999e-05
-1.84325e-05
-8.82142e-06
-1.04151e-05
-1.83773e-05
-1.68382e-05
-1.20094e-05
-1.32591e-05
-1.48246e-05
-1.52727e-05
-1.25757e-05
-1.86452e-05
-1.02617e-05
-2.2052e-05
-8.05191e-06
-2.51149e-05
-5.99586e-06
-2.7533e-05
-4.01747e-06
-2.91359e-05
-1.87651e-06
-2.98302e-05
6.469e-07
-2.98939e-05
4.63179e-06
-2.90889e-05
9.75158e-06
-2.74076e-05
1.8042e-05
-2.34124e-05
2.47274e-05
-1.61187e-05
2.99116e-05
-9.38156e-06
3.37747e-05
-3.12374e-06
3.64274e-05
2.5653e-06
3.80392e-05
7.45318e-06
3.88545e-05
1.13216e-05
3.9126e-05
1.41099e-05
3.90753e-05
1.58706e-05
3.88835e-05
1.67122e-05
3.86899e-05
1.67793e-05
3.85911e-05
1.62427e-05
3.86411e-05
1.52864e-05
1.40925e-05
1.17591e-05
-7.58695e-06
1.76689e-05
-5.90988e-06
2.07229e-05
-3.05402e-06
1.2225e-06
1.95005e-05
1.0415e-05
-1.23196e-05
1.49612e-05
-1.0456e-05
1.8772e-05
-6.86482e-06
-1.79635e-06
2.17908e-05
8.04673e-06
-1.53463e-05
1.11033e-05
-1.35126e-05
1.3335e-05
-9.09655e-06
-4.2222e-06
1.57609e-05
4.90571e-06
-1.71668e-05
6.69951e-06
-1.53064e-05
7.35673e-06
-9.75377e-06
-4.93732e-06
8.07183e-06
1.31939e-06
-1.80388e-05
1.94883e-06
-1.59358e-05
2.00932e-06
-9.81428e-06
-5.60589e-06
2.67789e-06
-2.4322e-06
-1.81069e-05
-2.98224e-06
-1.53858e-05
-3.01544e-06
-9.78108e-06
-7.63276e-06
-9.88613e-07
-6.38478e-06
-1.73623e-05
-7.55864e-06
-1.42119e-05
-7.94274e-06
-9.39695e-06
-9.91081e-06
-5.66471e-06
-1.02837e-05
-1.59e-05
-1.20388e-05
-1.24568e-05
-1.22575e-05
-9.1783e-06
-1.10535e-05
-1.11148e-05
-1.41584e-05
-1.3751e-05
-1.67939e-05
-9.82121e-06
-1.7286e-05
-8.68618e-06
-1.11946e-05
-1.71449e-05
-1.79105e-05
-1.11133e-05
-2.08852e-05
-6.84651e-06
-2.27385e-05
-6.83288e-06
-1.07331e-05
-2.32001e-05
-2.1469e-05
-8.28945e-06
-2.44747e-05
-3.84082e-06
-2.72587e-05
-4.04897e-06
-9.47748e-06
-2.85143e-05
-2.49143e-05
-5.42716e-06
-2.79531e-05
-8.02082e-07
-3.12789e-05
-7.23126e-07
-7.46443e-06
-3.32919e-05
-2.8021e-05
-2.52113e-06
-3.12265e-05
2.40346e-06
-3.47006e-05
2.75099e-06
-3.31394e-06
-3.88511e-05
-3.0184e-05
1.29872e-07
-3.3199e-05
5.41838e-06
-3.71195e-05
6.67148e-06
4.16757e-06
-4.4601e-05
-3.14352e-05
2.42919e-06
-3.43995e-05
8.38258e-06
-3.92454e-05
1.15175e-05
1.34252e-05
-4.8503e-05
-3.17004e-05
4.29938e-06
-3.40722e-05
1.07544e-05
-3.9178e-05
1.66232e-05
1.84566e-05
-4.42094e-05
-3.13808e-05
5.78631e-06
-3.29149e-05
1.22885e-05
-3.50949e-05
1.88032e-05
2.41698e-05
-4.08081e-05
-3.05516e-05
7.24904e-06
-3.15134e-05
1.32502e-05
-3.2425e-05
1.97148e-05
2.61821e-05
-3.44373e-05
-2.93538e-05
9.19526e-06
-2.99747e-05
1.38711e-05
-3.03161e-05
2.00562e-05
2.63867e-05
-3.05207e-05
-2.7599e-05
1.33818e-05
-2.83096e-05
1.45817e-05
-2.82303e-05
1.99769e-05
2.60442e-05
-2.78878e-05
-2.31335e-05
2.03966e-05
-2.66524e-05
1.81007e-05
-2.62336e-05
1.95581e-05
2.52378e-05
-2.54272e-05
-1.57263e-05
2.67414e-05
-2.18704e-05
2.42447e-05
-2.47793e-05
2.2467e-05
2.37549e-05
-2.32964e-05
-7.96806e-06
3.15858e-05
-1.39659e-05
3.02426e-05
-1.94972e-05
2.79984e-05
2.64902e-05
-2.22324e-05
-8.41365e-07
3.49924e-05
-5.30048e-06
3.47017e-05
-1.08391e-05
3.35369e-05
3.16699e-05
-1.60188e-05
5.35883e-06
3.70868e-05
2.48787e-06
3.75727e-05
-1.29971e-06
3.73245e-05
3.63496e-05
-5.97936e-06
1.02246e-05
3.81837e-05
8.65721e-06
3.91401e-05
6.46363e-06
3.95181e-05
3.92324e-05
3.5808e-06
1.36753e-05
3.86183e-05
1.29708e-05
3.98446e-05
1.18828e-05
4.06061e-05
4.0825e-05
1.02902e-05
1.58143e-05
3.86747e-05
1.55856e-05
4.00733e-05
1.51025e-05
4.10892e-05
4.16546e-05
1.42729e-05
1.68145e-05
3.85724e-05
1.67816e-05
4.01062e-05
1.65419e-05
4.13289e-05
4.21759e-05
1.60206e-05
1.6878e-05
3.84737e-05
1.6843e-05
4.01412e-05
1.66093e-05
4.15627e-05
4.26797e-05
1.61055e-05
1.62302e-05
3.84861e-05
1.6067e-05
4.03045e-05
1.56936e-05
4.1936e-05
4.33293e-05
1.50439e-05
1.51056e-05
3.8667e-05
1.47511e-05
4.0659e-05
1.41703e-05
4.25168e-05
4.41954e-05
1.33043e-05
1.37296e-05
1.31735e-05
1.23791e-05
1.12969e-05
4.45355e-05
3.12178e-05
5.36367e-05
3.21597e-05
5.57342e-05
1.4009e-05
4.4815e-05
7.4316e-06
2.75987e-05
5.16418e-06
1.62657e-05
2.97273e-05
6.95464e-06
7.39814e-05
-4.00725e-06
0.000140569
-1.09695e-05
0.000217869
-1.67306e-05
0.000209601
-2.4996e-05
0.000160994
-3.37866e-05
0.000115736
-4.13984e-05
8.07236e-05
-4.75641e-05
5.41275e-05
-5.24537e-05
3.33626e-05
-5.61491e-05
1.70668e-05
-5.87728e-05
4.2809e-06
-6.06341e-05
-6.06886e-06
-6.21011e-05
-1.48817e-05
-6.30194e-05
-2.25944e-05
-6.1883e-05
-2.98368e-05
-5.63533e-05
-3.85942e-05
-4.94141e-05
-4.8088e-05
-4.47942e-05
-6.07782e-05
-4.19421e-05
-6.92002e-05
-3.99097e-05
-7.44735e-05
-3.802e-05
-7.67784e-05
-3.60686e-05
-7.67705e-05
-3.40864e-05
-7.48129e-05
-3.199e-05
-7.17715e-05
-2.94913e-05
-6.91652e-05
-2.64063e-05
-6.75501e-05
-2.28945e-05
-6.58972e-05
-1.9258e-05
-6.34122e-05
-1.56899e-05
-6.00899e-05
-1.2338e-05
-5.59753e-05
-9.28093e-06
-5.11162e-05
-6.45497e-06
-4.55232e-05
-3.59435e-06
-3.86504e-05
-2.64911e-05
3.25197e-05
2.0489e-05
4.26144e-05
2.2065e-05
3.27223e-05
2.3901e-05
1.50965e-05
2.50574e-05
1.89231e-06
1.83684e-05
-7.42359e-06
3.90432e-05
-2.46422e-05
9.11999e-05
-3.52861e-05
0.000151213
-3.32998e-05
0.000215883
-2.9514e-05
0.000205815
-3.0547e-05
0.000162027
-3.42765e-05
0.000119465
-3.87234e-05
8.51704e-05
-4.29758e-05
5.83799e-05
-4.66389e-05
3.70257e-05
-4.95746e-05
2.00025e-05
-5.18063e-05
6.51258e-06
-5.34722e-05
-4.40304e-06
-5.46479e-05
-1.3706e-05
-5.49295e-05
-2.23129e-05
-5.31127e-05
-3.16535e-05
-4.80124e-05
-4.36945e-05
-4.17066e-05
-5.43938e-05
-3.80347e-05
-6.44501e-05
-3.59137e-05
-7.13213e-05
-3.4582e-05
-7.58052e-05
-3.347e-05
-7.78905e-05
-3.23981e-05
-7.78424e-05
-3.13118e-05
-7.58992e-05
-2.97655e-05
-7.33179e-05
-2.74454e-05
-7.14853e-05
-2.45164e-05
-7.04791e-05
-2.1254e-05
-6.91597e-05
-1.78311e-05
-6.68351e-05
-1.43794e-05
-6.35415e-05
-1.10844e-05
-5.92703e-05
-8.0615e-06
-5.41391e-05
-5.26093e-06
-4.83237e-05
-2.61156e-06
-4.12998e-05
-2.91026e-05
2.53138e-05
1.0936e-05
2.17964e-05
2.55824e-05
8.619e-06
3.70784e-05
-6.89064e-07
3.43655e-05
-1.21045e-05
2.97838e-05
-2.67131e-05
5.36518e-05
-4.46251e-05
0.000109112
-5.72071e-05
0.000163795
-4.97717e-05
0.000208447
-4.00158e-05
0.000196059
-3.56306e-05
0.000157642
-3.50644e-05
0.000118899
-3.66135e-05
8.67195e-05
-3.90401e-05
6.08065e-05
-4.14749e-05
3.94605e-05
-4.35565e-05
2.20841e-05
-4.51924e-05
8.14851e-06
-4.63631e-05
-3.23237e-06
-4.68999e-05
-1.31692e-05
-4.61323e-05
-2.30805e-05
-4.30481e-05
-3.47377e-05
-3.90209e-05
-4.77217e-05
-3.46292e-05
-5.87855e-05
-3.21125e-05
-6.69667e-05
-3.07528e-05
-7.2681e-05
-3.00574e-05
-7.65006e-05
-2.96101e-05
-7.83377e-05
-2.92854e-05
-7.8167e-05
-2.88519e-05
-7.63328e-05
-2.76234e-05
-7.45463e-05
-2.54136e-05
-7.36952e-05
-2.26979e-05
-7.31948e-05
-1.98089e-05
-7.20487e-05
-1.66603e-05
-6.99837e-05
-1.33374e-05
-6.68644e-05
-1.0112e-05
-6.24958e-05
-7.159e-06
-5.70921e-05
-4.39506e-06
-5.10877e-05
-1.84068e-06
-4.38542e-05
-3.09433e-05
9.53474e-06
9.47308e-06
8.8825e-06
2.62346e-05
3.38591e-06
4.25751e-05
-6.57169e-06
4.43231e-05
-2.30067e-05
4.62188e-05
-4.321e-05
7.3855e-05
-5.66151e-05
0.000122517
-6.70161e-05
0.000174196
-5.87518e-05
0.000200183
-4.71452e-05
0.000184452
-3.94184e-05
0.000149915
-3.55109e-05
0.000114991
-3.46427e-05
8.58513e-05
-3.55097e-05
6.16736e-05
-3.67948e-05
4.07456e-05
-3.79979e-05
2.32871e-05
-3.89499e-05
9.10047e-06
-3.95179e-05
-2.66434e-06
-3.93945e-05
-1.32926e-05
-3.78406e-05
-2.46343e-05
-3.43252e-05
-3.82531e-05
-3.08136e-05
-5.12333e-05
-2.83117e-05
-6.12873e-05
-2.696e-05
-6.83185e-05
-2.63448e-05
-7.32962e-05
-2.6214e-05
-7.66314e-05
-2.63142e-05
-7.82375e-05
-2.65709e-05
-7.79104e-05
-2.64693e-05
-7.64344e-05
-2.53741e-05
-7.56415e-05
-2.34132e-05
-7.56561e-05
-2.1202e-05
-7.5406e-05
-1.87478e-05
-7.45029e-05
-1.58767e-05
-7.28547e-05
-1.26708e-05
-7.00703e-05
-9.50917e-06
-6.56574e-05
-6.67119e-06
-5.99301e-05
-3.97822e-06
-5.37807e-05
-1.38535e-06
-4.6447e-05
-3.23287e-05
5.78298e-06
6.368e-06
5.05318e-06
2.69644e-05
4.99974e-07
4.71282e-05
-1.16504e-05
5.64735e-05
-3.24221e-05
6.69905e-05
-5.32129e-05
9.46458e-05
-6.68162e-05
0.00013612
-7.10713e-05
0.000178451
-6.33574e-05
0.000192469
-5.17042e-05
0.000172799
-4.19611e-05
0.000140172
-3.54785e-05
0.000108509
-3.27079e-05
8.30807e-05
-3.23374e-05
6.1303e-05
-3.25464e-05
4.09546e-05
-3.2873e-05
2.36138e-05
-3.3132e-05
9.35945e-06
-3.31218e-05
-2.67452e-06
-3.24786e-05
-1.39358e-05
-3.06181e-05
-2.64948e-05
-2.7227e-05
-4.16442e-05
-2.43061e-05
-5.41542e-05
-2.30093e-05
-6.25842e-05
-2.2542e-05
-6.87857e-05
-2.2578e-05
-7.32603e-05
-2.29297e-05
-7.62797e-05
-2.35017e-05
-7.76654e-05
-2.41687e-05
-7.72434e-05
-2.4176e-05
-7.6427e-05
-2.32086e-05
-7.66089e-05
-2.17969e-05
-7.70678e-05
-2.01517e-05
-7.70512e-05
-1.81223e-05
-7.65323e-05
-1.55825e-05
-7.53946e-05
-1.25199e-05
-7.31329e-05
-9.35789e-06
-6.88194e-05
-6.60758e-06
-6.26804e-05
-4.08645e-06
-5.63018e-05
-1.47953e-06
-4.9054e-05
-3.38082e-05
1.29881e-06
4.08059e-06
-4.34556e-07
2.86977e-05
-6.84116e-06
5.35348e-05
-2.08857e-05
7.05181e-05
-4.11957e-05
8.73005e-05
-6.02979e-05
0.000113748
-7.31277e-05
0.00014895
-7.46966e-05
0.00018002
-6.66579e-05
0.00018443
-5.49367e-05
0.000161078
-4.36373e-05
0.000128873
-3.52617e-05
0.000100133
-3.12477e-05
7.90666e-05
-2.96457e-05
5.9701e-05
-2.87095e-05
4.00184e-05
-2.81458e-05
2.30501e-05
-2.77385e-05
8.95212e-06
-2.72087e-05
-3.20425e-06
-2.61575e-05
-1.4987e-05
-2.42139e-05
-2.84384e-05
-2.08426e-05
-4.50155e-05
-1.90068e-05
-5.59901e-05
-1.86378e-05
-6.29532e-05
-1.88255e-05
-6.8598e-05
-1.93625e-05
-7.27232e-05
-2.01098e-05
-7.55325e-05
-2.10845e-05
-7.66907e-05
-2.19828e-05
-7.63451e-05
-2.20351e-05
-7.63747e-05
-2.13791e-05
-7.72649e-05
-2.05144e-05
-7.79325e-05
-1.93623e-05
-7.82033e-05
-1.78215e-05
-7.80731e-05
-1.57772e-05
-7.74388e-05
-1.30372e-05
-7.58729e-05
-9.74991e-06
-7.21068e-05
-6.76073e-06
-6.56696e-05
-4.50797e-06
-5.85545e-05
-2.37122e-06
-5.11907e-05
-3.61794e-05
-4.94987e-06
3.36574e-06
-8.60907e-06
3.23569e-05
-1.73431e-05
6.22689e-05
-3.23131e-05
8.54881e-05
-5.09686e-05
0.000105956
-6.79041e-05
0.000130684
-7.80828e-05
0.000159129
-7.77329e-05
0.00017967
-6.89747e-05
0.000175672
-5.66036e-05
0.000148707
-4.38209e-05
0.00011609
-3.47996e-05
9.11118e-05
-3.02674e-05
7.45345e-05
-2.72759e-05
5.67095e-05
-2.5111e-05
3.78535e-05
-2.36899e-05
2.1629e-05
-2.26835e-05
7.94576e-06
-2.16825e-05
-4.20525e-06
-2.01672e-05
-1.65024e-05
-1.77433e-05
-3.08623e-05
-1.49109e-05
-4.78479e-05
-1.45092e-05
-5.63918e-05
-1.49312e-05
-6.25311e-05
-1.56764e-05
-6.78528e-05
-1.6596e-05
-7.18036e-05
-1.76779e-05
-7.44506e-05
-1.89944e-05
-7.53742e-05
-1.99298e-05
-7.54097e-05
-1.9998e-05
-7.63064e-05
-1.97547e-05
-7.75083e-05
-1.9329e-05
-7.83581e-05
-1.86452e-05
-7.88871e-05
-1.76255e-05
-7.90928e-05
-1.61946e-05
-7.88698e-05
-1.41009e-05
-7.79665e-05
-1.07347e-05
-7.5473e-05
-6.6574e-06
-6.97469e-05
-4.21855e-06
-6.09934e-05
-3.62401e-06
-5.17852e-05
-3.98034e-05
-1.2265e-05
4.5159e-06
-1.80107e-05
3.81027e-05
-2.85149e-05
7.27731e-05
-4.35541e-05
0.000100527
-6.02626e-05
0.000122664
-7.4119e-05
0.00014454
-8.09315e-05
0.000165941
-7.8299e-05
0.000177037
-6.85205e-05
0.000165894
-5.49948e-05
0.000135181
-4.21649e-05
0.00010326
-3.40455e-05
8.29924e-05
-2.88835e-05
6.93724e-05
-2.44558e-05
5.22818e-05
-2.13474e-05
3.47451e-05
-1.92977e-05
1.95793e-05
-1.78544e-05
6.50251e-06
-1.64935e-05
-5.56622e-06
-1.4659e-05
-1.83368e-05
-1.21935e-05
-3.33278e-05
-1.03715e-05
-4.96699e-05
-1.10021e-05
-5.57611e-05
-1.18628e-05
-6.16705e-05
-1.29828e-05
-6.67327e-05
-1.41886e-05
-7.05979e-05
-1.55369e-05
-7.31023e-05
-1.70322e-05
-7.38789e-05
-1.78652e-05
-7.45767e-05
-1.80717e-05
-7.60999e-05
-1.81674e-05
-7.74126e-05
-1.81223e-05
-7.84033e-05
-1.78524e-05
-7.91569e-05
-1.72756e-05
-7.96696e-05
-1.63191e-05
-7.98262e-05
-1.48252e-05
-7.94604e-05
-1.19752e-05
-7.8323e-05
-6.62743e-06
-7.50947e-05
-1.71454e-06
-6.59063e-05
-2.61308e-06
-5.08867e-05
-4.24165e-05
-2.0009e-05
7.37996e-06
-2.74352e-05
4.55289e-05
-3.86692e-05
8.40071e-05
-5.26302e-05
0.000114488
-6.64053e-05
0.000136439
-7.61945e-05
0.000154329
-7.9098e-05
0.000168845
-7.36073e-05
0.000171547
-6.18591e-05
0.000154146
-4.86956e-05
0.000122018
-3.94432e-05
9.40077e-05
-3.24436e-05
7.59928e-05
-2.60041e-05
6.2933e-05
-2.06685e-05
4.69462e-05
-1.71235e-05
3.12002e-05
-1.48144e-05
1.72701e-05
-1.3182e-05
4.87012e-06
-1.16405e-05
-7.10774e-06
-9.73902e-06
-2.02383e-05
-7.13816e-06
-3.59287e-05
-6.99578e-06
-4.98123e-05
-8.17087e-06
-5.45861e-05
-9.37121e-06
-6.04701e-05
-1.06844e-05
-6.54196e-05
-1.20708e-05
-6.92114e-05
-1.36548e-05
-7.15183e-05
-1.50704e-05
-7.24634e-05
-1.5746e-05
-7.39011e-05
-1.6168e-05
-7.56779e-05
-1.65393e-05
-7.70413e-05
-1.68215e-05
-7.81211e-05
-1.68985e-05
-7.90798e-05
-1.6661e-05
-7.99072e-05
-1.60002e-05
-8.04871e-05
-1.47685e-05
-8.06921e-05
-1.26293e-05
-8.04622e-05
-8.29431e-06
-7.94297e-05
8.25834e-07
-7.50264e-05
2.5159e-06
-5.25768e-05
-3.99006e-05
-2.73478e-05
1.15276e-05
-3.59031e-05
5.40842e-05
-4.68265e-05
9.49306e-05
-5.81636e-05
0.000125825
-6.76467e-05
0.000145923
-7.29251e-05
0.000159608
-7.19549e-05
0.000167875
-6.42356e-05
0.000163827
-5.18201e-05
0.00014173
-4.09852e-05
0.000111183
-3.44649e-05
8.74874e-05
-2.80586e-05
6.95866e-05
-2.10822e-05
5.59565e-05
-1.58207e-05
4.16847e-05
-1.2385e-05
2.77644e-05
-1.0196e-05
1.50811e-05
-8.64351e-06
3.31765e-06
-7.12517e-06
-8.62609e-06
-5.23918e-06
-2.21243e-05
-3.12517e-06
-3.80427e-05
-4.46839e-06
-4.84691e-05
-5.8288e-06
-5.32256e-05
-7.25832e-06
-5.90406e-05
-8.67855e-06
-6.39993e-05
-1.01447e-05
-6.77452e-05
-1.18408e-05
-6.98222e-05
-1.30423e-05
-7.12619e-05
-1.36389e-05
-7.33044e-05
-1.42188e-05
-7.50981e-05
-1.48369e-05
-7.64232e-05
-1.54084e-05
-7.75496e-05
-1.57815e-05
-7.87067e-05
-1.58282e-05
-7.98604e-05
-1.54429e-05
-8.08724e-05
-1.44978e-05
-8.16372e-05
-1.2902e-05
-8.2058e-05
-1.04896e-05
-8.1842e-05
-6.57745e-06
-7.89386e-05
2.1677e-06
-6.13219e-05
-3.77329e-05
-3.36034e-05
1.66168e-05
-4.26027e-05
6.30835e-05
-5.17601e-05
0.000104088
-5.94844e-05
0.00013355
-6.46945e-05
0.000151133
-6.5434e-05
0.000160347
-6.08843e-05
0.000163325
-5.17149e-05
0.000154658
-4.00867e-05
0.000130102
-3.20691e-05
0.000103165
-2.6645e-05
8.20633e-05
-2.11355e-05
6.40771e-05
-1.47967e-05
4.96178e-05
-1.01407e-05
3.70287e-05
-7.23311e-06
2.48568e-05
-5.46687e-06
1.33148e-05
-4.20245e-06
2.05324e-06
-2.90982e-06
-9.91874e-06
-1.19811e-06
-2.3836e-05
6.80424e-07
-3.99212e-05
-2.24085e-06
-4.55478e-05
-3.87636e-06
-5.15901e-05
-5.41934e-06
-5.74976e-05
-6.8676e-06
-6.25511e-05
-8.3327e-06
-6.62801e-05
-9.90808e-06
-6.82468e-05
-1.08663e-05
-7.03037e-05
-1.15344e-05
-7.26364e-05
-1.22476e-05
-7.43848e-05
-1.30846e-05
-7.55862e-05
-1.39204e-05
-7.67139e-05
-1.45452e-05
-7.80819e-05
-1.48332e-05
-7.95724e-05
-1.47216e-05
-8.0984e-05
-1.41523e-05
-8.22065e-05
-1.31401e-05
-8.30702e-05
-1.17704e-05
-8.32118e-05
-9.15688e-06
-8.15521e-05
4.64042e-06
-7.51192e-05
-3.30925e-05
-3.863e-05
2.19548e-05
-4.66646e-05
7.11181e-05
-5.34252e-05
0.000110849
-5.79719e-05
0.000138096
-5.93616e-05
0.000152522
-5.64124e-05
0.000157398
-4.84288e-05
0.000155341
-3.77519e-05
0.000143981
-2.70822e-05
0.000119432
-2.10843e-05
9.7167e-05
-1.63976e-05
7.73766e-05
-1.20669e-05
5.97464e-05
-7.40542e-06
4.49562e-05
-3.88077e-06
3.35041e-05
-1.80282e-06
2.27789e-05
-7.06115e-07
1.22181e-05
1.54034e-07
1.19308e-06
1.17112e-06
-1.09358e-05
1.31751e-06
-2.39824e-05
1.54135e-06
-4.0145e-05
-5.92385e-07
-4.34141e-05
-2.22874e-06
-4.99538e-05
-3.74644e-06
-5.59799e-05
-5.14794e-06
-6.11496e-05
-6.71654e-06
-6.47115e-05
-7.97298e-06
-6.69904e-05
-8.68884e-06
-6.95878e-05
-9.40956e-06
-7.19157e-05
-1.02799e-05
-7.35145e-05
-1.13895e-05
-7.44766e-05
-1.24608e-05
-7.56425e-05
-1.32633e-05
-7.72795e-05
-1.37148e-05
-7.91208e-05
-1.38204e-05
-8.08784e-05
-1.35647e-05
-8.24622e-05
-1.29875e-05
-8.36474e-05
-1.20896e-05
-8.41096e-05
-1.05931e-05
-8.30486e-05
-8.65211e-06
-7.70602e-05
-4.17446e-05
-4.4511e-05
2.76147e-05
-4.97158e-05
7.63229e-05
-5.28576e-05
0.00011399
-5.37368e-05
0.000138976
-5.21236e-05
0.000150909
-4.67336e-05
0.000152008
-3.65885e-05
0.000145196
-2.43065e-05
0.000131699
-1.47604e-05
0.000109886
-9.09483e-06
9.15014e-05
-4.91018e-06
7.3192e-05
-1.63552e-06
5.64717e-05
9.6431e-07
4.23564e-05
2.92363e-06
3.15448e-05
3.81242e-06
2.18901e-05
4.04384e-06
1.19867e-05
4.45442e-06
7.82495e-07
5.54261e-06
-1.2024e-05
6.01825e-06
-2.44581e-05
2.87471e-06
-3.70015e-05
1.00204e-06
-4.15414e-05
-6.57994e-07
-4.82937e-05
-2.12267e-06
-5.45152e-05
-3.53691e-06
-5.97353e-05
-5.07763e-06
-6.31708e-05
-5.97703e-06
-6.6091e-05
-6.56476e-06
-6.90001e-05
-7.2811e-06
-7.11993e-05
-8.39192e-06
-7.24037e-05
-9.9594e-06
-7.29091e-05
-1.11859e-05
-7.4416e-05
-1.20101e-05
-7.64552e-05
-1.2496e-05
-7.8635e-05
-1.27353e-05
-8.06391e-05
-1.27047e-05
-8.24928e-05
-1.24409e-05
-8.39112e-05
-1.19393e-05
-8.46111e-05
-1.11527e-05
-8.38352e-05
-9.64673e-06
-7.85662e-05
-5.13913e-05
-4.90359e-05
3.20496e-05
-5.07122e-05
7.79992e-05
-5.01968e-05
0.000113475
-4.75014e-05
0.00013628
-4.28915e-05
0.000146299
-3.53986e-05
0.000144515
-2.39263e-05
0.000133724
-1.01904e-05
0.000117963
-2.21078e-06
0.000101906
3.10735e-06
8.61833e-05
6.72991e-06
6.95694e-05
8.91311e-06
5.42885e-05
9.8665e-06
4.1403e-05
1.00105e-05
3.14008e-05
9.34205e-06
2.25585e-05
8.39023e-06
1.29385e-05
7.87927e-06
1.29346e-06
8.0922e-06
-1.22369e-05
9.76982e-06
-2.61357e-05
4.57682e-06
-3.18085e-05
2.42505e-06
-3.93896e-05
8.13777e-07
-4.66825e-05
-5.42449e-07
-5.3159e-05
-2.08949e-06
-5.81883e-05
-3.34445e-06
-6.19159e-05
-3.88903e-06
-6.55464e-05
-4.38926e-06
-6.84998e-05
-5.08768e-06
-7.05009e-05
-6.65499e-06
-7.08363e-05
-8.86686e-06
-7.06972e-05
-1.01249e-05
-7.3158e-05
-1.07214e-05
-7.58588e-05
-1.11084e-05
-7.82479e-05
-1.14206e-05
-8.0327e-05
-1.15949e-05
-8.23184e-05
-1.16069e-05
-8.38993e-05
-1.13181e-05
-8.48999e-05
-1.05519e-05
-8.46014e-05
-8.27201e-06
-8.08461e-05
-5.96633e-05
-5.04123e-05
3.3959e-05
-4.87e-05
7.62868e-05
-4.50091e-05
0.000109784
-3.9464e-05
0.000130735
-3.24145e-05
0.00013925
-2.34013e-05
0.000135502
-1.09394e-05
0.000121262
2.53944e-06
0.000104485
1.03216e-05
9.41243e-05
1.51719e-05
8.1333e-05
1.78694e-05
6.6872e-05
1.88521e-05
5.33058e-05
1.8277e-05
4.19781e-05
1.66358e-05
3.30419e-05
1.44295e-05
2.47648e-05
1.23291e-05
1.5039e-05
1.09102e-05
2.71234e-06
8.36983e-06
-9.69661e-06
7.69937e-06
-2.54653e-05
5.46667e-06
-2.95758e-05
3.72345e-06
-3.76464e-05
2.26012e-06