/*--------------------------------*- C++ -*----------------------------------*\
| =========                 |                                                 |
| \\      /  F ield         | OpenFOAM: The Open Source CFD Toolbox           |
|  \\    /   O peration     | Version:  5.0                                   |
|   \\  /    A nd           | Web:      www.OpenFOAM.org                      |
|    \\/     M anipulation  |                                                 |
\*---------------------------------------------------------------------------*/
FoamFile
{
    version     2.0;
    format      ascii;
    class       surfaceScalarField;
    location    "0.9";
    object      alphaPhi10;
}
// * * * * * * * * * * * * * * * * * * * * * * * * * * * * * * * * * * * * * //

dimensions      [0 3 -1 0 0 0 0];

internalField   nonuniform List<scalar> 
3731
(
1.28655e-07
-1.31856e-06
1.28653e-07
-1.04537e-06
-2.66501e-06
-9.16718e-07
-1.53648e-06
-4.07277e-06
-2.4532e-06
-1.66558e-06
-5.45737e-06
-4.11877e-06
-1.59152e-06
-6.66578e-06
-5.7103e-06
-1.27598e-06
-7.5807e-06
-6.98628e-06
-5.96659e-07
-8.14798e-06
-7.58294e-06
5.90449e-07
-8.39708e-06
-6.99249e-06
2.31659e-06
-8.35586e-06
-4.67589e-06
5.04004e-06
-8.50589e-06
3.64104e-07
1.30568e-05
-1.3865e-05
9.92155e-06
3.24625e-06
-2.17526e-06
1.24612e-05
-1.8543e-05
1.63677e-05
-3.58823e-05
1.73392e-05
-5.1791e-05
1.59087e-05
-6.46188e-05
1.28278e-05
-7.39184e-05
9.29957e-06
-7.99943e-05
6.07588e-06
-8.34541e-05
3.45981e-06
-8.48978e-05
1.44368e-06
-8.47512e-05
-1.46543e-07
-8.35439e-05
-1.20734e-06
-8.13694e-05
-2.17448e-06
-7.82505e-05
-3.11891e-06
-7.43526e-05
-3.8979e-06
-6.99162e-05
-4.43638e-06
-6.51737e-05
-4.74252e-06
-6.03299e-05
-4.84381e-06
-5.55592e-05
-4.77067e-06
-5.09654e-05
-4.59375e-06
-4.65351e-05
-4.43001e-06
-4.21412e-05
-4.39354e-06
-3.76224e-05
-4.51846e-06
-3.28698e-05
-4.75256e-06
-2.78664e-05
-5.00344e-06
-2.27069e-05
-5.15948e-06
-1.75885e-05
-5.11838e-06
-1.26807e-05
-4.9078e-06
-7.97623e-06
-4.7045e-06
-3.4049e-06
-4.57133e-06
1.05166e-06
-4.45665e-06
5.33093e-06
-4.28001e-06
9.24036e-06
-3.91337e-06
1.24875e-05
-3.24846e-06
1.4517e-05
-2.02102e-06
1.46205e-05
-9.88754e-08
1.17358e-05
2.88352e-06
6.06485e-06
5.67095e-06
6.04212e-06
-4.055e-07
-1.34595e-05
-1.04869e-05
1.35401e-05
-2.66397e-05
2.87127e-05
-4.42029e-05
3.39309e-05
-5.94253e-05
3.25616e-05
-7.06161e-05
2.70996e-05
-7.79062e-05
2.01179e-05
-8.2247e-05
1.36404e-05
-8.45603e-05
8.38916e-06
-8.55044e-05
4.40387e-06
-8.54997e-05
1.43903e-06
-8.48256e-05
-8.20704e-07
-8.34193e-05
-2.61361e-06
-8.12507e-05
-4.34301e-06
-7.83299e-05
-6.03968e-06
-7.47905e-05
-7.43726e-06
-7.07837e-05
-8.44323e-06
-6.64635e-05
-9.06268e-06
-6.19938e-05
-9.31358e-06
-5.75339e-05
-9.23053e-06
-5.31907e-05
-8.93693e-06
-4.897e-05
-8.65068e-06
-4.47753e-05
-8.58703e-06
-4.04748e-05
-8.81032e-06
-3.59908e-05
-9.22307e-06
-3.13129e-05
-9.667e-06
-2.64698e-05
-1.00024e-05
-2.16259e-05
-9.96217e-06
-1.69319e-05
-9.60175e-06
-1.23955e-05
-9.24088e-06
-7.99611e-06
-8.97074e-06
-3.77564e-06
-8.67605e-06
1.6872e-07
-8.22316e-06
3.71597e-06
-7.46287e-06
6.62811e-06
-6.18792e-06
8.63784e-06
-4.04355e-06
9.47133e-06
-8.8748e-07
9.02734e-06
3.35119e-06
6.33428e-06
8.36399e-06
1.23764e-05
-1.10351e-05
-2.43564e-06
-2.5764e-05
2.82702e-05
-4.06569e-05
4.36039e-05
-5.37439e-05
4.70182e-05
-6.37795e-05
4.25981e-05
-7.0943e-05
3.42636e-05
-7.59182e-05
2.50942e-05
-7.88644e-05
1.63292e-05
-8.13124e-05
9.05706e-06
-8.26561e-05
4.7341e-06
-8.3415e-05
1.47924e-06
-8.30395e-05
-1.47019e-06
-8.16719e-05
-3.98174e-06
-7.96207e-05
-6.37663e-06
-7.69467e-05
-8.72076e-06
-7.37303e-05
-1.06589e-05
-7.00836e-05
-1.20899e-05
-6.61199e-05
-1.30264e-05
-6.19795e-05
-1.3454e-05
-5.78176e-05
-1.33924e-05
-5.37494e-05
-1.30051e-05
-4.97923e-05
-1.26077e-05
-4.58609e-05
-1.25182e-05
-4.18468e-05
-1.28237e-05
-3.76651e-05
-1.33844e-05
-3.31663e-05
-1.40042e-05
-2.86076e-05
-1.4324e-05
-2.41225e-05
-1.43062e-05
-1.96048e-05
-1.41166e-05
-1.52455e-05
-1.35971e-05
-1.10266e-05
-1.31888e-05
-7.03002e-06
-1.26714e-05
-3.34226e-06
-1.19097e-05
-8.80122e-08
-1.07165e-05
2.59293e-06
-8.86848e-06
4.37105e-06
-6.01828e-06
5.39062e-06
-1.88168e-06
5.6905e-06
3.10953e-06
4.60845e-06
9.44644e-06
1.62212e-05
-1.73198e-05
1.4885e-05
-3.31406e-05
4.41e-05
-4.5883e-05
5.63477e-05
-5.51618e-05
5.62992e-05
-5.88139e-05
4.6245e-05
-5.57654e-05
3.08844e-05
-5.34134e-05
2.11137e-05
-5.2532e-05
1.42304e-05
-5.18434e-05
8.99115e-06
-5.24162e-05
4.74404e-06
-6.54553e-05
1.35911e-06
-7.28604e-05
-1.47167e-06
-7.48036e-05
-4.30123e-06
-7.6146e-05
-7.76748e-06
-7.51828e-05
-1.12092e-05
-7.22836e-05
-1.35578e-05
-6.89492e-05
-1.54244e-05
-6.52822e-05
-1.66934e-05
-6.142e-05
-1.73162e-05
-5.75233e-05
-1.72891e-05
-5.3722e-05
-1.68062e-05
-5.00399e-05
-1.62895e-05
-4.63826e-05
-1.6175e-05
-4.26489e-05
-1.65565e-05
-3.88151e-05
-1.72165e-05
-3.48505e-05
-1.79617e-05
-3.0172e-05
-1.85013e-05
-2.46935e-05
-1.77391e-05
-2.03768e-05
-1.52831e-05
-1.69106e-05
-1.35399e-05
-1.32559e-05
-1.60251e-05
-9.51982e-06
-1.635e-05
-6.08038e-06
-1.53463e-05
-3.06529e-06
-1.3731e-05
-5.88535e-07
-1.13464e-05
1.22965e-06
-7.9035e-06
2.35256e-06
-3.07794e-06
2.79544e-06
2.6058e-06
2.47293e-06
9.7704e-06
1.85766e-05
-2.02437e-05
3.51137e-05
-3.5871e-05
5.96782e-05
-4.67961e-05
6.72422e-05
-5.19324e-05
6.14292e-05
-4.49925e-05
4.26182e-05
-4.4965e-05
3.08553e-05
-4.74802e-05
2.36011e-05
-4.97694e-05
1.64952e-05
-5.13549e-05
1.05402e-05
-5.23338e-05
5.61407e-06
-5.26424e-05
1.58681e-06
-5.21914e-05
-2.05579e-06
-5.54897e-05
-5.69578e-06
-7.51841e-05
-1.00265e-05
-7.31935e-05
-1.32071e-05
-7.06229e-05
-1.61285e-05
-6.75495e-05
-1.84976e-05
-6.41363e-05
-2.01054e-05
-6.05141e-05
-2.09391e-05
-5.68505e-05
-2.09523e-05
-5.32933e-05
-2.03637e-05
-4.98697e-05
-1.97126e-05
-4.64599e-05
-1.95838e-05
-4.29688e-05
-2.00454e-05
-3.94245e-05
-2.07578e-05
-3.58433e-05
-2.15378e-05
-3.2103e-05
-2.22213e-05
-2.37861e-05
-2.22755e-05
-1.81237e-05
-1.93613e-05
-1.52997e-05
-1.70379e-05
-1.17333e-05
-1.63899e-05
-1.05735e-05
-1.4432e-05
-8.15346e-06
-1.67238e-05
-5.4162e-06
-1.64658e-05
-3.12893e-06
-1.36374e-05
-1.42632e-06
-9.60984e-06
-1.91761e-07
-4.2844e-06
4.3118e-07
1.90344e-06
6.1802e-07
9.58244e-06
2.01142e-05
-2.11865e-05
5.5604e-05
-3.6316e-05
7.47616e-05
-4.59513e-05
7.68691e-05
-4.06083e-05
5.62887e-05
-4.08556e-05
4.28511e-05
-4.4223e-05
3.42113e-05
-4.70032e-05
2.63647e-05
-4.91435e-05
1.86078e-05
-5.05391e-05
1.19143e-05
-5.13461e-05
6.40921e-06
-5.12192e-05
1.38207e-06
-5.11598e-05
-2.31648e-06
-6.81746e-05
-7.31708e-06
-7.21886e-05
-1.10789e-05
-7.09637e-05
-1.4936e-05
-6.87179e-05
-1.83816e-05
-6.58902e-05
-2.13364e-05
-6.27154e-05
-2.32728e-05
-5.93186e-05
-2.4333e-05
-5.58561e-05
-2.44111e-05
-5.2492e-05
-2.37215e-05
-4.92792e-05
-2.29222e-05
-4.60634e-05
-2.2798e-05
-4.27362e-05
-2.33698e-05
-3.94248e-05
-2.40631e-05
-3.61587e-05
-2.47959e-05
-3.28984e-05
-2.54754e-05
-2.91474e-05
-2.60236e-05
-2.24614e-05
-2.61807e-05
-1.63792e-05
-2.45621e-05
-1.26997e-05
-2.11017e-05
-1.01231e-05
-1.80408e-05
-7.94298e-06
-1.62851e-05
-7.10945e-06
-1.59802e-05
-5.13844e-06
-1.56131e-05
-3.60783e-06
-1.11453e-05
-2.23347e-06
-5.42646e-06
-1.46988e-06
1.06038e-06
-1.05589e-06
8.35537e-06
1.90583e-05
-2.15099e-05
7.72401e-05
-3.62825e-05
8.95172e-05
-4.28281e-05
8.54616e-05
-3.81435e-05
6.34158e-05
-4.23927e-05
4.80845e-05
-5.0701e-05
4.25232e-05
-5.5641e-05
3.99035e-05
-6.30343e-05
2.94995e-05
-6.81777e-05
1.89852e-05
-6.93355e-05
9.56587e-06
-6.28524e-05
1.58258e-06
-5.50364e-05
-3.55589e-06
-5.44219e-05
-6.02464e-06
-5.91281e-05
-4.97407e-06
-6.35984e-05
-9.25066e-06
-6.55323e-05
-1.7174e-05
-6.33455e-05
-2.341e-05
-6.0425e-05
-2.61345e-05
-5.71316e-05
-2.7557e-05
-5.36836e-05
-2.77801e-05
-5.06159e-05
-2.67206e-05
-4.78398e-05
-2.56915e-05
-4.48952e-05
-2.57125e-05
-4.17458e-05
-2.65044e-05
-3.86675e-05
-2.71299e-05
-3.57062e-05
-2.7752e-05
-3.28336e-05
-2.83433e-05
-2.99521e-05
-2.88995e-05
-2.67767e-05
-2.93529e-05
-2.17963e-05
-2.95473e-05
-1.74391e-05
-2.90134e-05
-1.16541e-05
-2.61217e-05
-7.93132e-06
-1.92169e-05
-6.42685e-06
-1.6667e-05
-6.5698e-06
-1.42037e-05
-5.34231e-06
-1.23778e-05
-4.42432e-06
-6.33862e-06
-3.11464e-06
1.32794e-07
-2.20828e-06
7.06077e-06
1.68506e-05
-2.21818e-05
0.000100008
-3.67714e-05
0.000104218
-4.15842e-05
9.29549e-05
-4.43395e-05
7.77945e-05
-5.06281e-05
6.84504e-05
-6.33303e-05
5.88326e-05
-6.81435e-05
4.52735e-05
-7.05976e-05
3.21926e-05
-7.18814e-05
2.04644e-05
-7.21381e-05
1.02268e-05
-7.12804e-05
1.59813e-06
-5.42631e-05
-4.76366e-06
-2.51004e-05
-4.2118e-06
-2.19171e-05
-5.12496e-06
-2.24114e-05
-7.23872e-06
-3.57232e-05
-7.06099e-06
-4.31517e-05
-9.1566e-06
-4.72532e-05
-9.3334e-06
-4.54264e-05
-1.65317e-05
-3.8641e-05
-1.62058e-05
-3.46294e-05
-9.96359e-06
-3.54895e-05
-8.81308e-06
-4.10059e-05
-1.68863e-05
-3.93625e-05
-2.77567e-05
-3.68435e-05
-2.96202e-05
-3.43564e-05
-3.02328e-05
-3.19411e-05
-3.07533e-05
-2.9578e-05
-3.12595e-05
-2.71821e-05
-3.17482e-05
-2.46554e-05
-3.20738e-05
-2.17013e-05
-3.19729e-05
-1.66576e-05
-3.11708e-05
-1.07587e-05
-2.82322e-05
-6.7698e-06
-2.02831e-05
-5.83861e-06
-1.46989e-05
-6.6583e-06
-1.0866e-05
-6.16141e-06
-6.82996e-06
-4.6448e-06
-8.39863e-07
-3.1009e-06
5.12863e-06
1.37497e-05
-2.36696e-05
0.000123678
-3.76271e-05
0.000118378
-4.40692e-05
0.000105741
-5.17988e-05
9.43578e-05
-5.85423e-05
7.91579e-05
-6.29704e-05
6.34603e-05
-6.60192e-05
4.84648e-05
-6.80892e-05
3.43972e-05
-6.9313e-05
2.18169e-05
-6.97334e-05
1.0842e-05
-6.94804e-05
1.73932e-06
-6.37454e-05
-5.43904e-06
-3.47441e-05
-9.57153e-06
-2.16021e-05
-1.06198e-05
-1.86583e-05
-8.39479e-06
-1.58003e-05
-7.4666e-06
-1.43476e-05
-8.9346e-06
-1.586e-05
-8.16136e-06
-1.43287e-05
-7.47981e-06
-1.20023e-05
-7.39158e-06
-1.11959e-05
-7.40885e-06
-1.30681e-05
-7.52851e-06
-1.45349e-05
-7.88087e-06
-2.62026e-05
-1.05627e-05
-3.25225e-05
-1.82612e-05
-3.18194e-05
-3.08981e-05
-3.0155e-05
-3.24058e-05
-2.84466e-05
-3.29667e-05
-2.67166e-05
-3.34781e-05
-2.48694e-05
-3.39187e-05
-2.28474e-05
-3.39887e-05
-2.0519e-05
-3.34906e-05
-1.6475e-05
-3.22601e-05
-9.76401e-06
-2.86177e-05
-5.75916e-06
-1.84925e-05
-6.80703e-06
-9.21625e-06
-7.81688e-06
-6.40373e-06
-6.70598e-06
-1.59628e-06
-4.02999e-06
3.00865e-06
7.46039e-06
-2.63096e-05
0.000149988
-3.7982e-05
0.000130778
-4.59627e-05
0.000116662
-5.17529e-05
0.000100663
-5.61944e-05
8.38212e-05
-5.96215e-05
6.70329e-05
-6.21241e-05
5.11166e-05
-6.40526e-05
3.64719e-05
-6.52575e-05
2.31624e-05
-6.51654e-05
1.0878e-05
-6.56382e-05
1.88138e-06
-6.52439e-05
-5.82656e-06
-6.30454e-05
-1.18844e-05
-5.26683e-05
-1.59623e-05
-3.13908e-05
-1.84811e-05
-1.83259e-05
-1.82475e-05
-1.41893e-05
-1.34476e-05
-1.25592e-05
-1.0285e-05
-1.15139e-05
-8.96984e-06
-1.06734e-05
-8.65299e-06
-9.86066e-06
-8.62576e-06
-9.1235e-06
-8.6949e-06
-8.50193e-06
-8.96473e-06
-8.76406e-06
-1.06098e-05
-1.19397e-05
-8.28173e-06
-2.49623e-05
-1.19628e-05
-2.7204e-05
-2.92544e-05
-2.65253e-05
-3.36383e-05
-2.5607e-05
-3.43942e-05
-2.45502e-05
-3.49713e-05
-2.33359e-05
-3.51958e-05
-2.18761e-05
-3.49339e-05
-1.99215e-05
-3.41962e-05
-1.62144e-05
-3.23081e-05
-7.81139e-06
-2.65979e-05
-5.86735e-06
-1.23937e-05
-9.35825e-06
-4.40417e-06
-8.63292e-06
-1.94233e-06
-5.5612e-06
3.24184e-07
2.88805e-06
1.09635e-05
-1.18561e-05
-7.63474e-06
1.89624e-05
1.1396e-05
-1.49849e-05
-1.16643e-05
1.5802e-05
5.72455e-06
-6.16619e-06
-5.10701e-07
5.4952e-06
5.3541e-07
-7.18401e-11
-1.73025e-11
2.47207e-08
3.11514e-11
-1.02768e-10
-2.06337e-11
2.92026e-11
1.10823e-10
-1.82913e-10
1.88993e-11
6.53217e-11
1.08679e-09
-1.18675e-09
1.09551e-07
-1.05907e-07
5.00291e-09
-5.88489e-09
4.18423e-07
-3.0032e-07
2.98659e-09
-8.53717e-09
8.04596e-07
-3.87703e-07
1.16133e-10
1.15034e-06
-3.52152e-07
1.29863e-06
-1.49375e-07
1.27619e-06
-8.19733e-09
9.19009e-07
2.73508e-07
4.45491e-07
3.38716e-07
1.66781e-07
9.83336e-08
2.17087e-08
-6.92265e-08
-5.05754e-08
-9.15142e-08
-1.0087e-07
-2.00023e-07
-2.7512e-07
-1.7721e-07
-9.6595e-07
-4.33065e-07
-3.58553e-06
-4.75124e-07
-6.69431e-06
-2.23417e-06
-7.10662e-06
-6.54502e-06
-5.11978e-06
-7.99957e-06
-1.57744e-06
-7.35436e-06
-6.61267e-08
-1.61727e-06
-6.86416e-10
-6.98579e-08
-4.82934e-14
-6.9794e-10
1.85979e-16
-4.41806e-14
-5.85534e-16
-1.60446e-15
-2.30129e-15
-6.01079e-15
-3.98997e-15
-1.03122e-14
-1.22887e-14
2.55609e-05
-6.59848e-06
2.71243e-05
-1.55808e-06
2.06381e-05
6.48661e-06
4.9222e-05
-2.85839e-05
1.85373e-05
-7.80692e-06
1.49106e-05
2.48233e-06
-2.9946e-06
2.44032e-05
8.00911e-05
-3.38583e-05
5.65329e-06
-6.12868e-08
1.46237e-06
9.32068e-06
-1.81649e-05
4.40388e-05
9.93378e-05
-3.74039e-05
3.76686e-08
-1.91786e-08
-1.04181e-05
1.8298e-05
-2.7196e-05
6.08197e-05
0.000111083
-3.89364e-05
-9.84018e-07
5.42901e-07
-1.9422e-05
3.00357e-05
-3.22453e-05
7.36447e-05
0.000117326
-3.84848e-05
-3.7002e-06
2.53913e-06
-2.53395e-05
4.2899e-05
-3.43877e-05
8.26943e-05
0.00011961
-3.66705e-05
-6.73035e-06
5.62228e-06
-2.84384e-05
5.43626e-05
-3.43665e-05
8.86236e-05
0.000119278
-3.40323e-05
-9.78139e-06
9.76148e-06
-2.92864e-05
6.41982e-05
-3.28215e-05
9.21597e-05
0.000117381
-3.09236e-05
-1.25358e-05
1.48286e-05
-2.85483e-05
7.22103e-05
-3.03846e-05
9.39967e-05
0.000114607
-2.76095e-05
-1.42864e-05
1.87851e-05
-2.69954e-05
7.6986e-05
-2.76401e-05
9.46417e-05
0.000111307
-2.43403e-05
-1.4212e-05
1.91936e-05
-2.51742e-05
7.91183e-05
-2.4989e-05
9.44564e-05
0.000107653
-2.13341e-05
-1.32643e-05
1.78826e-05
-2.33306e-05
7.89809e-05
-2.25916e-05
9.37173e-05
0.000103763
-1.87017e-05
-1.12958e-05
1.34611e-05
-2.1467e-05
7.36494e-05
-2.0369e-05
9.26187e-05
9.97792e-05
-1.6385e-05
-7.27127e-06
6.95365e-06
-1.93176e-05
5.83389e-05
-1.80119e-05
9.1312e-05
9.59197e-05
-1.41512e-05
-2.78249e-06
2.99482e-06
-1.64365e-05
4.06687e-05
-1.51302e-05
9.00063e-05
9.24789e-05
-1.16885e-05
-5.36756e-07
1.50746e-06
-1.05266e-05
2.98034e-05
-1.15138e-05
8.83457e-05
8.97134e-05
-8.74772e-06
1.43075e-07
9.45912e-07
-6.06463e-06
2.11613e-05
-7.26422e-06
8.5578e-05
8.76612e-05
-5.21181e-06
2.2395e-07
4.16164e-07
-2.26611e-06
1.14118e-05
-2.62341e-06
7.72925e-05
8.60638e-05
-1.02574e-06
5.94571e-08
1.41208e-07
5.56838e-07
2.90368e-06
2.17422e-06
3.92906e-05
8.41638e-05
4.00152e-06
-3.34926e-07
-1.88909e-08
6.53503e-07
8.60815e-07
4.68855e-06
5.9432e-06
7.14539e-05
1.00045e-05
-3.53743e-07
-2.82761e-07
-8.44667e-09
2.55594e-07
3.54197e-06
1.92208e-06
1.91755e-05
1.32684e-05
-2.90066e-07
-2.49242e-06
-2.9197e-07
-3.43219e-08
5.93326e-07
7.44966e-07
3.02449e-06
6.99323e-06
-1.55697e-06
-4.92424e-06
-2.4843e-07
-1.63739e-06
2.16645e-08
8.42853e-08
1.35614e-06
1.20338e-06
-6.06654e-06
-5.50843e-06
-1.1106e-06
-3.83007e-06
-2.57195e-07
-1.26029e-06
2.15583e-07
2.12639e-07
-8.00825e-06
-3.44217e-06
-6.14466e-06
-4.46616e-06
-8.99436e-07
-3.12025e-06
-1.34178e-06
-1.78131e-07
-6.46107e-06
-6.65093e-07
-7.94656e-06
-1.83914e-06
-6.82539e-06
-3.09989e-06
-2.23442e-06
-3.49273e-06
-7.23107e-07
-1.28986e-08
-4.10784e-06
-1.39006e-07
-6.74127e-06
-9.4522e-07
-9.12696e-07
-6.1997e-06
-1.35231e-08
-1.08503e-11
-1.52155e-07
-3.77465e-10
-1.09029e-06
-7.09866e-09
-8.23671e-08
-4.43699e-06
-1.08886e-11
2.05565e-16
-3.87853e-10
-1.29531e-15
-7.48558e-09
-6.08289e-13
-2.86625e-11
-8.97327e-08
-2.01229e-16
1.86251e-18
-1.70047e-15
2.03307e-16
-6.0915e-13
8.37051e-17
2.1219e-17
-2.93396e-11
-2.38259e-15
-6.00362e-16
-6.09559e-16
-3.94151e-17
-8.24556e-17
1.48649e-16
9.7377e-17
-5.66844e-18
-5.96887e-15
-1.76179e-15
-2.85227e-15
-5.78224e-16
-1.04962e-15
-7.67452e-17
1.01475e-16
-2.42641e-16
-8.80507e-15
-5.52494e-15
-2.98824e-15
-1.33211e-15
-3.32141e-05
0.000154702
-4.0429e-05
0.000138892
-4.57924e-05
0.000122381
-4.98263e-05
0.000104997
-5.26537e-05
8.71091e-05
-5.40004e-05
6.86156e-05
-4.74325e-05
4.47157e-05
-4.116e-05
1.49777e-05
-3.90659e-05
4.92007e-06
-4.68319e-05
2.59097e-06
-5.324e-05
1.24713e-06
-5.74342e-05
-3.69106e-06
-5.76667e-05
-1.26955e-05
-5.61438e-05
-1.59592e-05
-5.37946e-05
-2.02595e-05
-4.70801e-05
-2.46363e-05
-2.6904e-05
-2.60965e-05
-1.54816e-05
-2.2127e-05
-1.21232e-05
-1.2749e-05
-1.04629e-05
-1.07503e-05
-9.2997e-06
-1.02249e-05
-8.84911e-06
-9.74387e-06
-7.74676e-06
-9.84917e-06
-6.19547e-06
-1.23627e-05
-5.78038e-06
-8.71844e-06
-9.42724e-06
-8.15132e-06
-1.98912e-05
-1.18693e-05
-2.40463e-05
-2.85888e-05
-2.42519e-05
-3.41769e-05
-2.41391e-05
-3.50677e-05
-2.38956e-05
-3.5422e-05
-2.34142e-05
-3.53989e-05
-2.24271e-05
-3.51663e-05
-2.06563e-05
-3.40513e-05
-1.65209e-05
-3.06288e-05
-7.65242e-06
-1.45561e-05
-5.81025e-06
-4.42201e-06
-1.01849e-05
-2.411e-06
-6.99771e-06
-2.83491e-06
-4.10966e-06
-3.82156e-05
0.000159115
-4.13144e-05
0.000142276
-4.39177e-05
0.000125212
-4.58266e-05
0.000107268
-4.61922e-05
8.77969e-05
-3.88003e-05
5.45071e-05
-1.7769e-05
8.07743e-06
-8.08935e-06
-2.55722e-07
-4.33034e-06
-2.77642e-08
-3.82957e-06
8.54065e-07
-5.2598e-06
1.15995e-07
-2.22418e-05
-5.49266e-07
-4.31675e-05
-3.04804e-06
-5.0444e-05
-1.18657e-05
-4.96031e-05
-2.07471e-05
-4.75778e-05
-2.6782e-05
-4.45429e-05
-2.93361e-05
-3.42152e-05
-3.35856e-05
-1.79362e-05
-3.42225e-05
-1.15187e-05
-2.17931e-05
-8.96936e-06
-1.33713e-05
-1.14002e-05
-1.41765e-05
-1.14736e-05
-3.2066e-05
-6.88485e-06
-2.8332e-05
-4.52762e-06
-1.09095e-05
-3.56065e-06
-8.01281e-06
-4.84391e-06
-7.82149e-06
-1.76008e-05
-1.15887e-05
-2.16593e-05
-2.87655e-05
-2.27343e-05
-3.3877e-05
-2.39132e-05
-3.41714e-05
-2.47672e-05
-3.45243e-05
-2.49307e-05
-3.49753e-05
-2.43195e-05
-3.45856e-05
-2.26189e-05
-3.21625e-05
-8.74493e-06
-2.0793e-05
-3.69763e-06
-3.74465e-06
-8.58786e-06
-1.36176e-06
-6.41949e-06
-4.72094e-06
-1.05291e-05
-3.87675e-05
0.000160489
-3.99044e-05
0.000143441
-4.05779e-05
0.000125972
-4.03905e-05
0.000107208
-3.33926e-05
7.70324e-05
-1.06182e-05
1.09124e-05
-6.78532e-06
1.53351e-06
-4.79767e-06
1.96783e-06
-1.44085e-06
2.58129e-06
-1.08631e-06
6.15478e-07
-9.35439e-07
1.87533e-07
-7.8604e-07
-4.00152e-08
-3.73144e-06
-1.00684e-07
-2.16324e-05
-1.4067e-06
-3.97578e-05
-6.60861e-06
-4.17242e-05
-2.4423e-05
-4.0611e-05
-3.05968e-05
-3.74909e-05
-3.66179e-05
-3.16626e-05
-3.96751e-05
-2.33952e-05
-4.18331e-05
-1.89317e-05
-4.10611e-05
-2.07407e-05
-3.73359e-05
-1.83871e-05
-3.57652e-05
-1.30457e-05
-3.5292e-05
-7.16398e-06
-2.90023e-05
-3.26728e-06
-1.4708e-05
-1.60942e-06
-5.86494e-06
-3.51176e-06
-5.71584e-06
-1.32088e-05
-5.98898e-06
-1.69607e-05
-1.58509e-05
-2.28122e-05
-1.80434e-05
-2.62082e-05
-3.06037e-05
-2.75553e-05
-3.35513e-05
-2.85949e-05
-3.33925e-05
-2.8393e-05
-3.20251e-05
-1.65514e-05
-2.53096e-05
-4.15852e-06
-5.28053e-06
-2.2065e-06
-1.62022e-06
-3.57616e-06
-1.4813e-06
-8.68853e-06
-3.76617e-05
0.000159223
-3.71294e-05
0.000142926
-3.64993e-05
0.000125379
-3.44231e-05
0.000105111
-9.86105e-06
4.19447e-05
-3.84503e-06
3.41999e-06
-3.80891e-06
8.90226e-07
-5.84983e-06
4.86898e-06
-6.68252e-06
3.86447e-06
-7.13883e-06
1.77088e-06
-2.68583e-06
1.97295e-07
-1.27115e-07
-4.43522e-08
-2.25211e-07
-1.4372e-09
-1.56827e-06
-5.7722e-08
-7.72546e-06
-4.00911e-07
-2.71093e-05
-4.18828e-06
-3.32581e-05
-2.12857e-05
-3.33623e-05
-3.61881e-05
-3.11376e-05
-4.13896e-05
-2.79666e-05
-4.42784e-05
-2.39514e-05
-4.43115e-05
-2.04452e-05
-3.96565e-05
-1.75897e-05
-3.67652e-05
-1.47518e-05
-3.74933e-05
-1.19844e-05
-3.33726e-05
-7.49478e-06
-2.9989e-05
-2.18526e-06
-1.92286e-05
-9.46588e-07
-3.45195e-06
-1.81025e-06
-2.61857e-06
-2.25062e-06
-1.14778e-06
-6.50705e-06
-9.79217e-07
-2.24224e-05
-7.30067e-06
-2.89108e-05
-2.10379e-05
-3.24093e-05
-2.73919e-05
-3.55567e-05
-2.80526e-05
-3.04928e-05
-2.63182e-05
-5.10849e-06
-1.1586e-05
-2.16823e-06
-3.23304e-06
-1.43413e-06
-3.86552e-06
-3.79682e-06
-3.56274e-05
0.000156371
-3.3853e-05
0.000141163
-3.19826e-05
0.000123525
-1.87687e-05
8.93383e-05
-3.24922e-06
1.21752e-05
-2.16707e-06
2.1525e-06
-4.13592e-06
1.26105e-06
-6.16645e-06
4.19118e-06
-5.99056e-06
3.84775e-06
-5.25682e-06
1.52598e-06
-2.8634e-06
1.78609e-08
-2.25312e-08
-2.22557e-08
-2.20792e-08
-1.30206e-09
-7.55145e-08
-3.55072e-09
-4.64547e-07
-2.0301e-08
-4.34448e-06
-2.65455e-07
-1.7859e-05
-2.59542e-06
-2.66509e-05
-2.01438e-05
-2.7172e-05
-4.00762e-05
-2.48562e-05
-4.58224e-05
-1.90744e-05
-4.41569e-05
-1.50177e-05
-1.48931e-05
-1.44713e-05
-2.47494e-05
-1.27899e-05
-4.07023e-05
-1.1569e-05
-3.57132e-05
-9.07983e-06
-3.14597e-05
-7.02036e-06
-3.08343e-05
-1.64477e-06
-1.8297e-05
-1.33518e-07
-5.6122e-06
-4.32256e-08
-9.68408e-07
-1.01655e-06
-5.01324e-09
-3.56002e-06
-5.17992e-08
-9.13749e-06
-4.46348e-07
-2.12766e-05
-2.55658e-06
-3.53807e-05
-8.84095e-06
-4.1295e-05
-1.39515e-05
-1.76362e-05
-1.3594e-05
-6.20714e-06
-8.31659e-06
-1.16645e-06
-1.42331e-05
-1.12585e-05
-3.29121e-05
0.000152616
-3.05295e-05
0.000138788
-2.86254e-05
0.000121625
-7.56001e-06
6.19396e-05
-1.26684e-06
5.74231e-06
-8.07917e-07
1.40055e-06
-1.01536e-06
1.08159e-06
-2.00014e-06
1.05636e-06
-2.09032e-06
7.53432e-07
-9.07238e-07
2.15596e-07
-1.71967e-07
-4.43508e-09
-1.31937e-08
-9.97916e-09
-6.96626e-09
-6.95584e-09
-3.75482e-09
-6.94033e-09
-2.32792e-08
-5.24558e-10
-2.73488e-07
-1.2689e-08
-2.67277e-06
-1.64619e-07
-1.38428e-05
-1.97581e-06
-2.18836e-05
-2.22486e-05
-2.17932e-05
-4.47875e-05
-6.75424e-06
-4.07869e-05
-4.73482e-06
-1.42285e-05
-6.31838e-06
-1.25305e-05
-9.4282e-06
-1.75721e-05
-9.5835e-06
-3.221e-05
-8.74321e-06
-2.4181e-05
-8.73042e-06
-1.95085e-05
-5.0197e-06
-1.63168e-05
-1.91355e-06
-1.00024e-05
-2.83134e-09
-3.29163e-06
-4.13399e-09
-3.65722e-09
-5.4954e-08
-1.21072e-09
-4.91838e-07
-9.51977e-09
-3.01822e-06
-2.76884e-08
-7.78746e-06
-1.38691e-07
-1.25795e-05
-5.69053e-07
-1.40497e-05
-1.93037e-06
-9.53814e-06
-9.87378e-06
-1.04713e-05
-3.32512e-05
-3.9024e-05
-2.98092e-05
0.000148396
-2.7236e-05
0.00013622
-2.45255e-05
0.000118541
-3.24693e-06
3.39071e-05
-4.0238e-07
2.60978e-06
-4.06975e-07
9.98102e-07
-4.10951e-07
7.62131e-07
-2.53745e-07
8.02508e-07
-7.83402e-08
5.86361e-07
-3.238e-08
1.79108e-07
-1.27172e-08
-1.89196e-08
-1.60155e-08
-3.59596e-09
-1.24955e-08
-7.17504e-09
-1.54547e-09
-8.28774e-09
-1.59802e-09
-1.75764e-10
-1.39432e-08
-3.0694e-10
-1.72286e-07
-6.221e-09
-2.01703e-06
-1.04746e-07
-1.36754e-05
-2.02663e-06
-1.68422e-05
-2.81668e-05
-1.07443e-05
-4.13454e-05
-4.1415e-06
-2.96404e-05
-1.36211e-06
-8.89968e-06
-2.80717e-06
-4.5946e-06
-2.13912e-06
-1.84488e-06
-1.8072e-06
-2.80244e-07
-2.60767e-06
-9.4922e-08
-4.07393e-06
-1.19378e-06
-1.77572e-06
-2.75859e-06
-5.51672e-09
-3.53285e-06
-2.33219e-09
-7.07543e-09
-6.27952e-09
2.50294e-09
-1.6043e-08
1.00412e-11
-4.29259e-08
-7.80005e-10
-1.64916e-07
-1.43469e-08
-7.18514e-07
-2.8255e-08
-2.5964e-06
-1.1256e-07
-5.79791e-06
-5.88333e-07
-9.46113e-06
-3.91109e-06
-1.21187e-05
-2.65245e-05
0.000143999
-2.40372e-05
0.000133739
-1.75257e-05
0.000112262
-1.40265e-06
1.76793e-05
-3.11261e-07
1.5232e-06
-6.12905e-07
1.00386e-06
-6.11735e-07
3.74536e-06
-1.24658e-06
4.67462e-06
-2.71006e-06
4.53408e-06
-1.2294e-06
2.28984e-06
-3.0365e-08
-2.69465e-07
-1.77434e-08
-3.40012e-09
-1.35516e-08
-7.84009e-09
-1.54969e-09
-1.30175e-08
-4.44031e-11
-2.32929e-11
-3.56488e-10
-1.13274e-11
-6.37952e-09
-1.90975e-10
-1.05372e-07
-5.4834e-09
-1.95798e-06
-1.47221e-07
-1.11481e-05
-4.97393e-06
-1.1282e-05
-3.91416e-05
-8.80648e-06
-4.89537e-05
-1.29382e-06
-4.4468e-05
-2.02212e-08
-5.56805e-06
-1.43555e-09
-1.81348e-06
-7.16441e-09
-2.45306e-07
-6.49074e-08
-4.74993e-08
-1.24438e-06
-2.01383e-08
-1.1262e-06
-2.98413e-09
-5.38523e-08
-5.13286e-08
-3.98089e-08
-2.10645e-08
-1.37904e-08
4.30444e-08
-2.45314e-08
8.13106e-09
-2.98713e-08
3.22989e-09
-3.92132e-08
1.6084e-09
-5.6694e-08
-5.80171e-10
-1.46929e-07
-3.45166e-08
-4.63068e-07
-3.29454e-07
-1.25407e-06
-3.23505e-06
-1.33727e-05
-2.31251e-05
0.000139516
-2.07095e-05
0.000131338
-1.12318e-05
0.000103843
-9.91029e-07
1.00835e-05
-8.7797e-07
1.80011e-06
-4.68164e-07
4.71337e-06
-8.62476e-08
4.4547e-06
-2.70005e-06
4.04943e-06
-3.3423e-06
6.08071e-06
-3.40814e-06
3.21862e-06
-3.40338e-08
-6.01084e-07
-4.80801e-09
-7.99545e-09
-6.32607e-09
-1.24877e-11
-2.0889e-10
-7.41591e-11
-3.71977e-12
-2.26365e-10
-5.77326e-12
-6.94079e-12
-1.99314e-10
-3.30652e-12
-5.48775e-09
-1.51584e-10
-1.45423e-07
-7.49833e-09
-3.90822e-06
-3.16958e-07
-7.56949e-06
-2.16195e-05
-6.31392e-06
-4.95808e-05
-2.17038e-06
-5.60848e-05
9.57029e-08
-3.86573e-05
2.01763e-07
-5.17506e-06
6.77581e-08
-1.41415e-07
1.95493e-08
-5.46083e-09
8.40796e-11
-9.61697e-10
-2.8743e-09
-2.59831e-10
-4.1745e-08
-1.27463e-08
-5.71056e-08
-1.59497e-08
-3.40334e-08
6.23998e-08
-4.22637e-08
1.63129e-08
-3.70219e-08
7.9844e-09
-2.09012e-08
3.2489e-09
-6.37742e-10
1.59187e-09
-2.41455e-08
-7.16002e-09
-3.70092e-07
-1.11389e-07
-1.26245e-06
-2.58792e-06
-1.46217e-05
-1.96799e-05
0.000134859
-1.72001e-05
0.000128867
-6.10365e-06
9.47324e-05
-9.44804e-07
5.96443e-06
-6.2348e-07
1.85796e-06
-2.89268e-07
3.11476e-06
-9.85688e-08
9.34243e-07
-3.5266e-07
6.10978e-07
-4.34389e-07
3.1344e-06
-1.16951e-06
3.08657e-06
-1.46056e-07
-4.38868e-07
-1.31092e-12
-3.69206e-09
-2.88223e-12
-1.96913e-12
-7.48277e-11
-1.50054e-12
-1.31337e-12
-1.55003e-12
-3.49971e-13
-6.34836e-12
-3.48063e-12
-1.98006e-13
-1.86532e-10
-5.9413e-14
-7.70061e-09
-1.1728e-11
-1.26954e-08
-9.11307e-09
-2.29754e-06
-9.24314e-11
-1.99575e-06
-4.90736e-05
-5.13329e-07
-5.70622e-05
8.46157e-07
-5.96749e-05
-1.30059e-07
-1.24684e-05
3.55517e-09
-2.83143e-07
2.2815e-09
-5.05069e-09
9.8091e-10
7.42975e-11
5.92911e-10
-1.05456e-13
-3.30582e-08
-2.76617e-10
-5.69474e-08
1.25173e-08
-4.18758e-08
5.58635e-08
-1.41842e-08
3.07244e-08
-1.68356e-08
6.70648e-09
-4.81359e-09
1.80039e-09
-1.72904e-09
8.37642e-11
-8.56795e-09
-7.34833e-12
1.62499e-08
-3.27907e-09
-2.37683e-06
-1.12963e-06
-6.71954e-05
-1.63319e-05
0.000129856
-1.34848e-05
0.000126034
-3.04528e-06
8.36153e-05
-4.52186e-07
3.35605e-06
-1.82859e-07
1.58439e-06
-5.20998e-08
1.18449e-06
1.56241e-08
9.85108e-07
1.58239e-07
5.65915e-07
7.22207e-07
4.60868e-07
7.70996e-07
3.50189e-06
2.17574e-09
-2.98807e-08
-2.41366e-11
-2.94004e-09
-4.38924e-13
-2.49469e-11
-2.42557e-13
-1.28272e-12
-5.23276e-13
-1.05621e-12
-6.53708e-14
-2.63884e-12
-6.65995e-16
-8.15963e-14
-6.02228e-14
-9.8364e-15
-2.07097e-11
1.04849e-14
9.52542e-11
-3.19934e-14
1.33748e-11
-6.40593e-12
1.74636e-06
-2.67686e-05
2.51699e-06
-5.69729e-05
3.30381e-06
-5.93928e-05
-1.51883e-07
-1.45926e-05
8.4945e-10
-4.40865e-07
5.27059e-10
-5.067e-09
3.37777e-10
1.3061e-10
2.10337e-10
3.96502e-11
-1.90813e-09
1.90474e-10
-4.32999e-08
4.95848e-09
-3.68682e-08
6.54395e-08
-6.53584e-09
5.01123e-08
-1.92442e-09
2.0025e-09
-9.07977e-11
1.46625e-10
-2.57391e-12
2.44867e-12
-1.38727e-12
-1.01461e-11
1.8504e-09
-2.084e-09
-1.29593e-06
-1.52893e-08
-0.000140328
-1.32557e-05
0.000124412
-9.59082e-06
0.000122386
-1.18861e-06
7.78849e-05
-1.22409e-07
2.30668e-06
-3.10253e-08
1.4817e-06
1.39799e-08
1.14529e-06
6.05325e-08
8.7991e-07
1.27551e-07
4.7467e-07
1.44239e-06
7.44961e-07
1.06114e-06
4.5214e-06
-1.69904e-09
2.92621e-07
-1.909e-10
-3.26659e-09
-1.29943e-12
-2.08583e-10
4.19415e-15
-1.92656e-12
1.22345e-14
-6.57591e-13
1.06064e-14
-4.11607e-13
2.6858e-15
-5.98914e-14
3.15243e-16
-1.14859e-14
-7.68051e-16
-5.36355e-15
1.17484e-15
-3.39381e-14
2.48348e-11
-3.12409e-11
3.4244e-06
-5.85071e-06
5.763e-06
-5.7685e-05
4.78714e-06
-5.73034e-05
-1.47474e-08
-1.0637e-05
-2.71735e-10
-4.52574e-07
1.28195e-10
-5.79334e-09
1.18882e-10
5.19625e-11
8.03813e-11
3.46359e-11
2.87696e-10
3.05106e-11
-1.62296e-08
-2.07802e-10
-3.32238e-08
1.27127e-08
-2.00778e-09
2.04223e-08
-1.34794e-10
1.7245e-10
-1.15353e-12
9.2606e-12
8.83864e-13
-4.02572e-13
2.64318e-11
-4.04462e-11
1.19469e-09
-3.26476e-09
2.60845e-08
-4.16662e-08
-0.000137234
-1.05504e-05
0.000118579
-6.0711e-06
0.0001179
-5.80501e-07
8.0247e-05
1.19056e-08
3.32856e-06
4.3718e-08
1.5006e-06
7.8586e-08
1.11575e-06
1.20455e-07
8.97422e-07
1.786e-07
4.39003e-07
2.23249e-06
1.80053e-06
1.8355e-06
6.3352e-06
1.33164e-09
5.87436e-07
-7.75397e-10
1.68898e-09
-3.27497e-11
-8.61765e-10
-1.01011e-12
-3.45214e-11
1.45621e-14
-1.48366e-12
-3.22493e-16
-3.72243e-13
4.86167e-15
-4.75112e-14
1.52499e-15
-1.95147e-14
4.51641e-15
-8.39132e-15
2.18363e-13
-2.51036e-13
1.22094e-10
-1.53125e-10
3.82667e-06
-3.16898e-06
8.55276e-06
-5.64485e-05
4.0514e-06
-4.82467e-05
-2.82369e-08
-8.09577e-06
-1.07401e-09
-4.81294e-07
1.40555e-11
-7.35419e-09
-3.02073e-12
2.06912e-11
2.70791e-11
2.77991e-11
6.1837e-11
1.31231e-11
-4.48265e-10
3.23528e-10
-2.05595e-09
-9.42138e-10
-2.59862e-10
-5.74946e-11
-2.95952e-12
4.93049e-11
3.15116e-12
2.12361e-12
2.5639e-12
-5.04447e-13
1.75572e-10
-2.05639e-10
3.40726e-09
-6.54562e-09
3.89156e-08
-8.22229e-08
-3.88956e-05
-8.19753e-06
0.000112627
-2.97914e-06
0.000112722
5.81455e-07
9.12466e-05
9.69735e-08
6.46661e-06
1.27651e-07
1.49772e-06
1.60231e-07
1.18193e-06
1.86356e-07
8.58678e-07
2.91107e-07
4.25176e-07
4.30793e-06
5.0733e-06
3.01548e-06
8.11101e-06
2.13478e-09
8.29683e-07
-1.07442e-09
8.56015e-09
-1.30403e-10
-1.65675e-09
-8.26045e-12
-1.12786e-10
-5.08475e-13
-8.37704e-12
-2.60483e-14
-8.4364e-13
9.27015e-15
-1.22447e-13
7.94577e-15
-4.51964e-14
3.27941e-14
-3.62514e-14
1.16087e-12
-1.39934e-12
6.02425e-10
-7.54431e-10
5.19132e-06
-2.70527e-06
8.71047e-06
-5.32553e-05
3.22366e-06
-4.74994e-05
-1.31326e-07
-8.60796e-06
-2.74349e-09
-6.18036e-07
4.3261e-11
-1.09714e-08
4.44468e-12
1.83819e-11
1.20337e-11
3.51132e-11
1.58555e-11
1.00762e-11
5.68334e-11
9.52698e-10
-5.34932e-11
6.66107e-11
-1.9416e-11
-6.08296e-11
4.30537e-13
5.18868e-11
8.4565e-13
9.16499e-13
5.27462e-13
-9.11995e-13
7.39131e-10
-8.93259e-10
9.69426e-09
-1.47764e-08
4.66277e-09
-8.49077e-08
-3.60916e-06
-6.05764e-06
0.000106988
-5.02589e-07
0.000107362
2.59888e-06
9.98326e-05
2.05339e-07
1.22775e-05
1.54205e-07
1.62315e-06
2.37721e-07
1.11422e-06
3.02553e-07
9.19165e-07
2.98222e-07
4.38205e-07
7.92379e-06
1.07102e-05
4.38106e-06
8.15249e-06
1.80903e-09
9.76893e-07
-2.24614e-09
1.54397e-08
-2.58298e-10
-2.73079e-09
-2.75574e-11
-3.24335e-10
-2.58937e-12
-3.25472e-11
-1.42551e-13
-3.56301e-12
2.98237e-14
-4.73652e-13
5.42114e-14
-1.09257e-13
1.93535e-13
-1.94452e-13
6.01029e-12
-7.3189e-12