/*--------------------------------*- C++ -*----------------------------------*\
| =========                 |                                                 |
| \\      /  F ield         | OpenFOAM: The Open Source CFD Toolbox           |
|  \\    /   O peration     | Version:  5.0                                   |
|   \\  /    A nd           | Web:      www.OpenFOAM.org                      |
|    \\/     M anipulation  |                                                 |
\*---------------------------------------------------------------------------*/
FoamFile
{
    version     2.0;
    format      ascii;
    class       volScalarField;
    location    "0.9";
    object      epsilon;
}
// * * * * * * * * * * * * * * * * * * * * * * * * * * * * * * * * * * * * * //

dimensions      [0 2 -3 0 0 0 0];

internalField   nonuniform List<scalar> 
1915
(
0.15387
0.0318093
0.124628
0.0960052
0.171511
0.185003
0.244832
0.298885
0.350964
0.45626
0.509082
0.689599
0.754771
1.06088
1.15429
1.73185
1.8174
3.18113
2.85515
7.78078
1.80913
2.20817
2.78076
3.73959
4.77184
5.86632
6.92918
7.89685
8.73845
9.45056
10.0498
10.5714
11.0505
11.4339
11.7274
11.9021
11.9317
11.8118
11.5551
11.186
10.744
10.2791
9.83623
9.43437
9.06287
8.69358
8.2923
7.83059
7.30613
6.74735
6.17299
5.58368
4.97697
4.36341
3.6942
2.96087
2.18209
1.4896
0.870111
0.322716
2.93725
3.19079
4.13756
4.51145
4.57118
4.54681
4.53845
4.55749
4.59478
4.6447
4.70394
4.77221
4.85707
4.92043
4.95846
4.96632
4.93851
4.87236
4.76901
4.63394
4.47755
4.31333
4.15332
4.00337
3.86203
3.72272
3.57609
3.4132
3.23041
3.03059
2.81636
2.58755
2.34146
2.07091
1.78752
1.49004
1.18947
0.921761
0.668367
0.584663
5.18788
4.08704
4.414
4.33127
4.11097
3.93113
3.82264
3.76131
3.7322
3.72793
3.74154
3.76613
3.79306
3.80907
3.81095
3.7967
3.76398
3.71022
3.63425
3.53783
3.4268
3.31009
3.19597
3.08825
2.98624
2.88704
2.78608
2.67727
2.55495
2.41765
2.26447
2.09438
1.90691
1.70086
1.47667
1.24756
1.02149
0.81666
0.648016
0.802858
7.66609
4.75714
4.44162
4.12766
3.87704
3.71676
3.61134
3.53345
3.48172
3.45598
3.45015
3.45502
3.45982
3.45637
3.44287
3.41949
3.38475
3.33566
3.26997
3.18761
3.09226
2.99106
2.89102
2.79508
2.70269
2.61321
2.52576
2.43764
2.3422
2.23149
2.1019
1.95222
1.78384
1.59847
1.39871
1.19113
0.988603
0.806099
0.674551
0.939699
9.44351
5.23203
4.4769
4.06418
3.83986
3.70604
3.59774
3.50637
3.44066
3.40172
3.38308
3.37416
3.3636
3.3452
3.31984
3.28924
3.25193
3.20465
3.1448
3.07103
2.98505
2.89206
2.79766
2.70397
2.61076
2.51951
2.4323
2.3503
2.26975
2.17844
2.06644
1.93076
1.77259
1.59532
1.40404
1.2059
1.0122
0.837573
0.722415
1.01185
10.9143
5.59292
4.58011
4.13506
3.92846
3.79029
3.66714
3.56857
3.49876
3.45441
3.42702
3.40602
3.38076
3.3481
3.31147
3.27298
3.23175
3.18503
3.1302
3.06489
2.98861
2.90354
2.81279
2.71752
2.61854
2.52003
2.4265
2.34075
2.26181
2.18156
2.08737
1.97077
1.82602
1.65407
1.46317
1.26358
1.06849
0.896258
0.790607
1.08683
12.2273
5.90768
4.74762
4.28147
4.05518
3.89445
3.76603
3.67418
3.61215
3.56987
3.53713
3.50515
3.46603
3.41957
3.37095
3.32274
3.27609
3.22965
3.18077
3.12633
3.06309
2.98842
2.90125
2.80264
2.69556
2.58712
2.4843
2.3913
2.30798
2.22921
2.14564
2.04686
1.92199
1.76241
1.56944
1.35917
1.15168
0.972754
0.870463
1.17429
13.4574
6.19994
4.93168
4.42481
4.16013
3.99195
3.88136
3.81111
3.76498
3.72904
3.69256
3.64945
3.59708
3.53769
3.47599
3.41684
3.36515
3.32049
3.27972
3.23948
3.19348
3.13257
3.04908
2.9448
2.82851
2.70956
2.59678
2.49636
2.40958
2.33189
2.25366
2.16416
2.05443
1.91232
1.72364
1.49574
1.26245
1.06472
0.95587
1.25502
14.6535
6.44724
5.06895
4.52006
4.24336
4.09579
4.01662
3.97451
3.94844
3.92194
3.88399
3.82981
3.76079
3.68389
3.6071
3.53915
3.48583
3.44651
3.41733
3.3937
3.36556
3.31999
3.24432
3.13616
3.01165
2.88251
2.76125
2.6555
2.56869
2.49697
2.42801
2.3475
2.24475
2.10999
1.9286
1.68392
1.40992
1.17701
1.04808
1.3156
15.8855
6.5953
5.12205
4.57166
4.31849
4.20699
4.16542
4.15613
4.1534
4.13985
4.10445
4.04137
3.95371
3.85289
3.75523
3.6744
3.61835
3.58757
3.57326
3.56588
3.55028
3.51421
3.45234
3.35981
3.23905
3.10489
2.97869
2.87178
2.79117
2.73462
2.68574
2.62245
2.52828
2.39117
2.20233
1.94417
1.6204
1.33189
1.16143
1.37593
3.76591
5.49679
5.17312
6.1847
7.56455
8.6664
11.5136
13.2787
17.4348
18.0592
18.8282
23.4137
19.6274
24.6125
21.1668
23.8125
23.3674
23.1286
26.153
23.3427
24.77
27.4593
31.4107
36.6175
42.4268
46.4182
45.7162
42.4606
38.3402
31.0342
23.5243
17.2277
12.4988
9.17887
6.97586
5.61571
4.73698
3.92984
3.17191
2.52481
2.02426
1.65241
1.38216
16.6902
10.564
7.25218
10.2301
7.31382
6.44759
7.08286
9.56106
8.63681
7.75006
8.28006
8.98886
12.7316
10.04
9.08974
8.37042
19.5389
12.1166
9.43591
7.79884
19.6593
12.7239
9.4189
7.34634
18.3981
12.5401
9.22417
7.01697
17.2095
12.1175
8.97619
6.7851
16.434
11.7501
8.75345
6.62699
16.2586
11.6092
8.61907
6.53518
16.8067
11.814
8.64084
6.52481
18.1651
12.4668
8.89826
6.63452
20.4089
13.6641
9.48077
6.92385
23.5861
15.488
10.4803
7.46855
27.6482
17.9787
11.978
8.35317
32.3824
21.1029
14.0236
9.65854
37.3617
24.7361
16.6075
11.4377
42.2055
28.6649
19.6284
13.6798
44.9314
32.4504
22.8684
16.2798
40.4265
35.9674
26.1249
19.0576
31.7441
36.5638
28.9814
21.6212
23.6275
30.784
29.9708
23.55
16.8055
22.5076
27.6626
24.8869
11.9151
15.6932
20.9395
24.6824
8.57739
10.868
14.1402
18.6488
6.43716
7.70302
9.55032
12.1567
5.1629
5.7776
6.72975
8.08394
4.33168
4.66198
5.14116
5.7586
3.53393
3.84995
4.17584
4.50221
2.83757
3.12776
3.39307
3.61149
2.27827
2.52369
2.75103
2.95359
1.85917
2.06095
2.25698
2.4416
1.55327
1.72342
1.89246
2.05776
11.8881
6.36957
5.08093
4.59099
4.38748
4.32306
4.3261
4.35161
4.37179
4.37394
4.34707
4.27911
4.17298
4.0447
3.92048
3.8172
3.74793
3.71811
3.71916
3.73057
3.72803
3.6989
3.64493
3.57758
3.4877
3.37505
3.25542
3.15305
3.08742
3.06176
3.05324
3.02568
2.9524
2.81322
2.60221
2.32144
1.95582
1.59009
1.35201
1.49226
9.44722
6.01575
4.99301
4.59573
4.45667
4.44945
4.50116
4.55194
4.58369
4.60359
4.59863
4.53444
4.41239
4.25049
4.0955
3.9641
3.8713
3.82486
3.8247
3.85077
3.86979
3.85371
3.81739
3.78883
3.75412
3.68895
3.59768
3.5125
3.47187
3.50164
3.56984
3.61362
3.59035
3.46345
3.226
2.90693
2.53655
2.12428
1.78445
1.71831
7.94059
5.68516
4.90172
4.60382
4.53397
4.59227
4.6909
4.72587
4.75593
4.79344
4.81334
4.78462
4.66895
4.45859
4.26997
4.10434
3.98272
3.91151
3.89017
3.91048
3.95185
3.98102
4.00579
4.04155
4.07461
4.07206
4.01487
3.955
3.95415
4.07507
4.28107
4.45463
4.53689
4.45961
4.213
3.86498
3.55656
3.34401
2.98398
2.07978
6.95591
5.41846
4.82687
4.62035
4.61827
4.74861
4.83536
4.85131
4.89203
4.93706
4.9638
4.95041
4.86093
4.65268
4.44074
4.23287
4.0788
3.98072
3.93908
3.95421
4.021
4.12238
4.24623
4.37926
4.50399
4.57757
4.56222
4.49136
4.52135
4.79417
5.24975
5.64361
5.92383
5.96081
5.75257
5.44802
5.34256
5.71819
5.85941
2.94688
6.29718
5.207
4.76525
4.63768
4.69992
4.86381
4.91566
4.94579
4.98081
5.01841
5.04895
5.0431
4.93794
4.75911
4.55207
4.34785
4.16535
4.04294
3.98495
4.00043
4.10189
4.2948
4.55062
4.82439
5.10166
5.3051
5.33514
5.21843
5.17959
5.49851
6.4728
7.31633
7.94646
8.18182
8.06685
7.93106
8.24872
9.35145
9.85627
5.4961
5.85359
5.03192
4.70309
4.63866
4.76424
4.90296
4.98312
5.02788
5.03402
5.05659
5.10213
5.12519
5.02095
4.81629
4.61857
4.41939
4.24174
4.10884
4.0389
4.05626
4.19189
4.48428
4.91453
5.39948
5.9306
6.38009
6.50641
6.26374
6.03744
6.22987
7.16184
9.33433
10.8993
11.4337
11.4251
11.6519
12.6823
14.434
14.7421
10.2865
5.55041
4.87743
4.62787
4.60701
4.76025
4.86632
4.95347
4.99461
5.00212
5.0351
5.11545
5.18039
5.04484
4.84375
4.65084
4.46036
4.29762
4.17879
4.10088
4.11534
4.27142
4.63234
5.25413
6.10765
7.04148
7.95232
8.31647
7.82031
7.21508
7.16408
8.06549
10.4607
14.078
15.6145
16.1268
17.1702
19.8642
22.2312
22.2992
15.9228
5.34058
4.73647
4.53662
4.54122
4.67796
4.7724
4.85677
4.88792
4.9006
4.94313
5.03674
5.11643
5.00513
4.83814
4.66214
4.48583
4.33039
4.2205
4.15935
4.16328
4.31707
4.69669
5.41882
6.67134
8.28493
9.98235
11.1082
10.1419
8.81904
8.36968
9.13419
11.4938
15.998
18.9
19.7313
20.676
23.5704
29.1801
31.9736
21.3286
5.19881
4.61067
4.4368
4.45655
4.58158
4.69681
4.77711
4.79159
4.7746
4.81769
4.91978
5.022
4.93621
4.81194
4.6603
4.5015
4.35368
4.2387
4.18097
4.18695
4.3244
4.68261
5.37989
6.66035
9.01143
11.1971
12.0051
12.5426
10.8789
9.83216
10.1861
12.199
16.1502
18.4848
17.9923
18.0556
19.4778
23.5645
27.9859
24.2178
5.11525
4.50705
4.33966
4.37355
4.51767
4.6625
4.75941
4.74316
4.67446
4.69771
4.80323
4.93841
4.86406
4.77336
4.64595
4.50661
4.36995
4.25771
4.19516
4.19804
4.31545
4.62729
5.23601
6.31999
8.15959
10.9363
10.9716
11.3417
11.343
10.8988
10.8423
12.2344
15.0115
16.6304
15.8899
15.7046
16.3204
17.5318
18.4803
24.2467
5.09227
4.43567
4.25534
4.30068
4.46797
4.64783
4.77311
4.71967
4.60102
4.59435
4.68911
4.828
4.78091
4.7201
4.619
4.50096
4.37972
4.27583
4.21294
4.21419
4.3111
4.57429
5.0921
5.98999
7.46026
9.74165
10.2124
10.03
10.2772
10.7881
10.8767
11.6771
13.4135
14.5
14.2446
14.6966
16.0745
17.1538
16.4758
24.3887
5.14444
4.41086
4.19532
4.24
4.40532
4.59763
4.72297
4.65661
4.52897
4.50335
4.58196
4.7006
4.68933
4.65996
4.58463
4.48795
4.38437
4.29258
4.23414
4.23399
4.31855
4.54439
4.98972
5.75259
6.9758
8.83953
9.76255
9.355
9.34542
9.91932
10.3707
10.8665
11.969
12.9415
13.5421
14.9972
17.0002
18.084
16.686
24.7431
5.29965
4.45301
4.17569
4.20502
4.34373
4.51146
4.62676
4.56708
4.44785
4.4243
4.48977
4.58776
4.60974
4.6062
4.55106
4.47278
4.38612
4.30785
4.25733
4.25935
4.33867
4.54208
4.94073
5.62114
6.70865
8.38582
9.57924
9.05638
8.67753
8.89979
9.39436
9.89762
10.6939
11.8264
13.3946
15.6761
17.603
18.5606
16.8853
24.5571
5.60072
4.58938
4.21706
4.22106
4.3254
4.45011
4.55478
4.50555
4.3896
4.36754
4.42205
4.5097
4.55678
4.56893
4.52543
4.46003
4.3875
4.32277
4.28272
4.29072
4.37074
4.56539
4.94108
5.57976
6.60173
8.19222
9.46274
8.88373
8.22257
8.08001
8.3433
8.814
9.56834
10.9794
13.3073
16.0689
17.4949
17.8638
16.6276
23.5188
6.10796
4.85803
4.34576
4.30628
4.38561
4.45598
4.54041
4.4928
4.36676
4.33897
4.38452
4.47025
4.53549
4.55261
4.51199
4.45339
4.39142
4.33955
4.31185
4.32863
4.41468
4.61176
4.98218
5.60681
6.6032
8.14618
9.3511
8.72844
7.89324
7.48596
7.52541
7.91205
8.73469
10.4014
13.1235
15.8947
16.644
15.9655
15.3351
21.9479
6.89886
5.31416
4.60109
4.44728
4.52091
4.54817
4.59449
4.52226
4.37719
4.34137
4.38191
4.47271
4.5493
4.5576
4.51232
4.45539
4.4007
4.36086
4.34678
4.3753
4.47199
4.67824
5.0549
5.68357
6.68045
8.20387
9.27694
8.58207
7.64136
7.06231
6.94464
7.26948
8.15759
9.95706
12.7157
15.1048
15.0922
13.5351
13.3991
20.3131
8.05385
6.03258
5.04505
4.68919
4.69017
4.72469
4.69416
4.55565
4.41778
4.38046
4.42261
4.52747
4.60306
4.58284
4.5266
4.46769
4.41786
4.38928
4.38948
4.43235
4.54333
4.76195
5.15164
5.79609
6.81501
8.34719
9.24872
8.45602
7.44025
6.75108
6.52774
6.80265
7.7039
9.47876
11.9996
13.8015
13.2063
11.5266
11.5258
19.1961
9.61807
7.09965
5.75564
5.12953
4.92581
4.89261
4.78592
4.61509
4.50174
4.46945
4.52048
4.6509
4.69792
4.62676
4.55511
4.49164
4.4449
4.42687
4.44141
4.50045
4.6278
4.85988
5.26636
5.93227
6.98486
8.49672
9.16763
8.31614
7.25545
6.50123
6.20879
6.43285
7.28121
8.89571
11.0719
12.3177
11.3339
9.97628
10.2856
18.9423
11.598
8.55622
6.78811
5.83315
5.36568
5.13607
4.94907
4.77405
4.65878
4.62819
4.69414
4.84846
4.81447
4.68681
4.5986
4.52798
4.48249
4.47405
4.50309
4.57943
4.72251
4.96958
5.39528
6.08177
7.15643
8.56323
8.96747
8.09894
7.03797
6.26605
5.93984
6.11743
6.87556
8.27383
10.0736
10.8769
9.85103
8.86694
9.48731
19.2636
13.8617
10.3242
8.11975
6.80568
6.04678
5.59521
5.28376
5.05227
4.90972
4.87664
4.96884
5.08271
4.92022
4.7607
4.65705
4.57526
4.52778
4.52711
4.57267
4.66739
4.82083
5.09014
5.53864
6.24385
7.31993
8.53569
8.64174
7.76314
6.75097
6.01322
5.69346
5.8471
6.52666
7.73453
9.18547
9.74649
8.9216
8.1978
8.97484
19.6028
16.1232
12.2232
9.64093
7.97946
6.92436
6.24043
5.77275
5.45053
5.26457
5.23224
5.35708
5.29682
5.0283
4.85738
4.73164
4.62723
4.57164
4.57912
4.64713
4.76192
4.92836
5.22443
5.70078
6.42838
7.49982
8.44042
8.21229
7.32427
6.39746
5.73709
5.46238
5.62499
6.26229
7.33673
8.52281
8.99582
8.45394
7.88216
8.70192
19.5747
18.114
14.0634
11.2152
9.25633
7.92545
7.01576
6.38552
5.96108
5.72777
5.72051
5.7589
5.43372
5.16298
4.98649
4.80848
4.66562
4.6075
4.63461
4.73233
4.87192
5.0533
5.37719
5.8872
6.6476
7.69901
8.26061
7.72116
6.83503
6.01138
5.45333
5.25032
5.44677
6.06436
7.03254
8.02564
8.43665
8.12466
7.6945
8.48722
18.9784
19.8698
15.8185
12.7975
10.5929
9.01641
7.89967
7.11745
6.59463
6.31061
6.25789
5.96614
5.58338
5.34397
5.09923
4.84647
4.69024
4.65202
4.70987
4.83576
4.98193
5.19186
5.55096
6.10358
6.91304
7.83104
7.89364
7.18269
6.33748
5.62684
5.18028
5.05977
5.29664
5.89007
6.73995
7.54709
7.88302
7.67781
7.38017
8.17166
18.1063
21.7513
17.8278
14.6129
12.1335
10.2984
8.97266
8.04815
7.43851
7.02691
6.63769
6.18397
5.83722
5.50087
5.14611
4.87401
4.73767
4.73004
4.8208
4.94949
5.08902
5.34469
5.74997
6.35352
7.18375
7.75714
7.39352
6.62127
5.85466
5.26391
4.92795
4.88738
5.15601
5.70734
6.42108
7.04272
7.29349
7.14619
6.96639
7.80602
17.3741
22.2081
20.9237
17.2467
14.3735
12.1618
10.5289
9.39511
8.53844
7.76407
7.16515
6.68879
6.16068
5.64733
5.2265
4.9514
4.83453
4.85498
4.95801
5.06559
5.231
5.52542
5.98153
6.6608
7.36667
7.37507
6.79801
6.05826
5.40081
4.93097
4.6984
4.7266
5.01149
5.50453
6.08102
6.53984
6.71263
6.60964
6.53703
7.43024
16.7091
15.848
20.6576
21.0131
17.937
14.686
12.3987
10.7951
9.64055
8.80221
8.16172
7.4341
6.5899
5.86441
5.37997
5.09259
4.96864
5.00613
5.08833
5.18629
5.39857
5.7329
6.22348
6.88853
7.19108
6.83628
6.19535
5.5301
4.98565
4.62905
4.48857
4.57132
4.85649
5.28183
5.73165
6.05752
6.16566
6.09256
6.09882
7.02461
15.9292
10.0032
12.6925
15.8566
18.1995
17.4263
15.0541
13.1582
11.7292
10.4608
9.15924
7.8842
6.76705
5.95878
5.47895
5.17615
5.04905
5.07227
5.15095
5.32862
5.59936
5.98005
6.47707
6.82929
6.66456
6.18388
5.59315
5.03539
4.60815
4.35797
4.29665
4.41796
4.68932
5.04318
5.3809
5.60068
5.65675
5.60016
5.65612
6.58184
14.9795
6.67129
7.9189
9.35009
10.6291
11.7192
11.4946
10.7544
9.84013
8.79591
7.76063
6.81392
6.03055
5.51612
5.20128
5.00171
4.97752
5.07434
5.2532
5.51641
5.85094
6.28861
6.61268
6.45207
6.03233
5.52143
5.02038
4.58378
4.27407
4.11975
4.12158
4.26416
4.5097
4.7918
5.03098
5.16753
5.18183
5.13218
5.21503
6.1117
13.8941
4.93582
5.44645
6.07267
6.68336
7.20603
7.28678
7.09569
6.73551
6.28303
5.8312
5.41602
5.09971
4.91994
4.8334
4.83757
4.94719
5.14965
5.4147
5.77754
6.14719
6.4545
6.29686
5.8836
5.39408
4.92521
4.51757
4.19435
3.98918
3.91307
3.95895
4.10583
4.31595
4.52913
4.68592
4.75526
4.73651
4.68892
4.7842
5.63272
12.7387
3.88387
4.18113
4.49304
4.77074
5.03629
5.17075
5.14705
5.03752
4.8877
4.73516
4.6113
4.54431
4.55362
4.63624
4.78343
4.99261
5.30207
5.64102
6.01941
6.18408
6.05481
5.68778
5.24084
4.79967
4.41264
4.09617
3.87047
3.74887
3.72949
3.79981
3.9365
4.1042
4.25364
4.34319
4.36088
4.31838
4.27244
4.37329
5.16541
11.5838
3.16432
3.35724
3.57692
3.79591
4.00986
4.15621
4.15702
4.15181
4.14848
4.15167
4.17632
4.24138
4.3656
4.5686
4.839
5.10594
5.42332
5.70074
5.8261
5.70233
5.40685
5.03518
4.64694
4.28587
3.98144
3.7484
3.60159
3.54063
3.55637
3.63348
3.74894
3.8715
3.96351
4.00229
3.98394
3.92754
3.8862
3.99159
4.72858
10.4932
2.62549
2.79623
2.96345
3.12569
3.29909
3.45615
3.56439
3.65503
3.74818
3.84581
3.95786
4.09967
4.29054
4.54984
4.80013
5.02687
5.26803
5.33435
5.2567
5.0532
4.76958
4.45209
4.13591
3.85336
3.62248
3.46076
3.37255
3.35036
3.38206
3.45199
3.53951
3.61921
3.66504
3.66656
3.62609
3.56586
3.53449
3.64735
4.3376
9.51813
2.22534
2.38679
2.5404
2.68883
2.84209
2.98887
3.12366
3.2657
3.4119
3.568
3.73912
3.92641
4.136
4.37752
4.58889
4.72718
4.81415
4.78247
4.65069
4.45436
4.21729
3.95717
3.70725
3.49138
3.32554
3.21902
3.16944
3.16727
3.20023
3.25401
3.31125
3.35232
3.36454
3.34166
3.29176
3.23806
3.22265
3.34767
4.00327
8.69233
)
;

boundaryField
{
    leftWall
    {
        Cmu             0.09;
        kappa           0.41;
        E               9.8;
        type            epsilonWallFunction;
        value           nonuniform 0();
    }
    rightWall
    {
        Cmu             0.09;
        kappa           0.41;
        E               9.8;
        type            epsilonWallFunction;
        value           nonuniform List<scalar> 
43
(
0.322716
0.584663
0.802858
0.939699
1.01185
1.08683
1.17429
1.25502
1.3156
1.37593
1.49226
1.71831
2.07978
2.94688
5.4961
10.2865
15.9228
21.3286
24.2178
24.2467
24.3887
24.7431
24.5571
23.5188
21.9479
20.3131
19.1961
18.9423
19.2636
19.6028
19.5747
18.9784
18.1063
17.3741
16.7091
15.9292
14.9795
13.8941
12.7387
11.5838
10.4932
9.51813
8.69233
)
;
    }
    lowerWall
    {
        Cmu             0.09;
        kappa           0.41;
        E               9.8;
        type            epsilonWallFunction;
        value           nonuniform List<scalar> 
66
(
0.15387
0.0318093
0.0318093
0.0960052
0.185003
0.298885
0.45626
0.689599
1.06088
1.73185
3.18113
7.78078
16.6902
10.564
7.25218
10.2301
1.80913
2.93725
5.18788
7.66609
9.44351
10.9143
12.2273
13.4574
14.6535
15.8855
1.80913
2.20817
2.78076
3.73959
4.77184
5.86632
6.92918
7.89685
8.73845
9.45056
10.0498
10.5714
11.0505
11.4339
11.7274
11.9021
11.9317
11.8118
11.5551
11.186
10.744
10.2791
9.83623
9.43437
9.06287
8.69358
8.2923
7.83059
7.30613
6.74735
6.17299
5.58368
4.97697
4.36341
3.6942
2.96087
2.18209
1.4896
0.870111
0.322716
)
;
    }
    atmosphere
    {
        type            inletOutlet;
        inletValue      nonuniform 0();
        value           nonuniform 0();
    }
    defaultFaces
    {
        type            empty;
    }
    procBoundary1to0
    {
        type            processor;
        value           nonuniform List<scalar> 
44
(
0.29929
0.172623
0.200399
0.264352
0.363001
0.509843
0.728647
1.05443
1.5312
2.19335
3.04427
4.23058
5.97849
8.55357
12.1356
15.3969
15.7631
16.4029
18.1379
20.6747
29.6648
29.6648
33.5485
36.9854
39.3424
39.8758
38.1213
35.1329
31.5434
27.2842
21.842
16.7318
12.5438
9.44633
7.3193
5.9647
5.06761
4.26007
3.48594
2.77654
2.20161
1.76603
1.4454
1.21389
)
;
    }
    procBoundary1to3
    {
        type            processor;
        value           nonuniform List<scalar> 
45
(
1.18891
1.33377
1.48104
1.63101
1.78117
1.93813
2.0964
2.2494
2.39963
2.55175
2.70111
2.84671
3.00007
3.16267
3.33542
3.51688
3.70349
3.89331
4.07781
4.22196
4.29997
4.31463
4.25183
4.12456
3.9505
3.74892
3.54247
3.3521
3.19455
3.0799
3.01062
2.98208
2.98554
3.01035
3.04425
3.07327
3.08486
3.07435
3.0399
2.9918
2.95194
2.95619
3.09734
3.73039
8.02715
)
;
    }
}


// ************************************************************************* //
