/*--------------------------------*- C++ -*----------------------------------*\
| =========                 |                                                 |
| \\      /  F ield         | OpenFOAM: The Open Source CFD Toolbox           |
|  \\    /   O peration     | Version:  5.0                                   |
|   \\  /    A nd           | Web:      www.OpenFOAM.org                      |
|    \\/     M anipulation  |                                                 |
\*---------------------------------------------------------------------------*/
FoamFile
{
    version     2.0;
    format      ascii;
    class       volScalarField;
    location    "0.9";
    object      k;
}
// * * * * * * * * * * * * * * * * * * * * * * * * * * * * * * * * * * * * * //

dimensions      [0 2 -2 0 0 0 0];

internalField   nonuniform List<scalar> 
1915
(
0.00949411
0.00328588
0.022808
0.0083198
0.0330992
0.0129273
0.044212
0.0178363
0.0576566
0.0236986
0.0750524
0.0312812
0.0985627
0.0417793
0.131274
0.0580745
0.178369
0.0872472
0.247565
0.159082
0.0481457
0.0549857
0.0640966
0.0782488
0.0922267
0.105962
0.118493
0.129353
0.138451
0.14594
0.152126
0.157452
0.162333
0.166206
0.169066
0.170665
0.170839
0.169589
0.167034
0.163401
0.159075
0.154546
0.15023
0.146269
0.142518
0.13867
0.134355
0.129258
0.12336
0.116966
0.11023
0.103072
0.0954825
0.0874309
0.0782228
0.0674763
0.0550353
0.0426929
0.0298386
0.0170416
0.0828817
0.154117
0.182688
0.196521
0.207302
0.219885
0.235209
0.251499
0.266995
0.280802
0.292673
0.302701
0.310647
0.317238
0.322411
0.325851
0.327285
0.326541
0.323585
0.318616
0.312166
0.305003
0.297825
0.29093
0.284196
0.27726
0.269609
0.260732
0.250431
0.238908
0.226207
0.212147
0.196431
0.178341
0.158504
0.136708
0.112965
0.0865919
0.0595891
0.0286269
0.121125
0.21666
0.244166
0.256247
0.269607
0.287168
0.306593
0.324797
0.340729
0.354496
0.36641
0.376669
0.385252
0.392371
0.397917
0.401655
0.403341
0.402698
0.399559
0.394016
0.386564
0.378022
0.369162
0.360313
0.351386
0.342142
0.332224
0.321154
0.30852
0.294278
0.278328
0.260482
0.240615
0.218473
0.193797
0.167372
0.1392
0.108972
0.0767336
0.0354085
0.157131
0.266166
0.288972
0.301579
0.319308
0.340606
0.360989
0.378219
0.392735
0.40547
0.416903
0.427046
0.435692
0.442815
0.448335
0.452174
0.454091
0.453707
0.450747
0.445167
0.437346
0.428049
0.418035
0.407604
0.396688
0.385233
0.373196
0.360378
0.346262
0.330245
0.312031
0.291482
0.268684
0.243681
0.216477
0.187228
0.156459
0.123862
0.0884451
0.0393426
0.180785
0.305437
0.327613
0.342775
0.364078
0.386615
0.405681
0.420975
0.43395
0.445712
0.45665
0.466557
0.47499
0.481845
0.487215
0.49114
0.493337
0.493369
0.490896
0.485742
0.478096
0.468551
0.457745
0.445907
0.432992
0.419169
0.404703
0.389801
0.37423
0.356976
0.337227
0.31478
0.28979
0.262533
0.233295
0.202307
0.169804
0.135246
0.0970849
0.0413134
0.199191
0.337394
0.363396
0.38218
0.405105
0.426182
0.44275
0.456338
0.468351
0.479586
0.49017
0.499753
0.507796
0.51429
0.519505
0.523493
0.526001
0.526612
0.524962
0.520747
0.513909
0.504712
0.49352
0.480448
0.465538
0.449244
0.432098
0.414508
0.396555
0.37765
0.356801
0.333434
0.307198
0.278247
0.247228
0.2146
0.180512
0.144431
0.103724
0.0432621
0.215037
0.364761
0.396883
0.418384
0.439978
0.458134
0.472759
0.485625
0.497562
0.508827
0.519287
0.528582
0.536293
0.542506
0.547587
0.551591
0.554441
0.555837
0.555397
0.552719
0.547432
0.539259
0.528078
0.513962
0.497154
0.478397
0.458478
0.437956
0.417031
0.39549
0.372802
0.348408
0.321677
0.292058
0.259649
0.225351
0.189533
0.151753
0.108872
0.0454646
0.229594
0.388595
0.426179
0.447983
0.466586
0.482662
0.49699
0.510304
0.522832
0.534482
0.544968
0.554008
0.561524
0.567663
0.572664
0.576744
0.580158
0.582698
0.583928
0.583403
0.580408
0.573931
0.563103
0.548015
0.529479
0.508431
0.485806
0.462337
0.438372
0.413845
0.388401
0.361753
0.333783
0.303913
0.271025
0.235181
0.197385
0.157617
0.112808
0.047425
0.243544
0.408084
0.448423
0.469221
0.486154
0.502088
0.517208
0.531544
0.545015
0.557293
0.568
0.576863
0.584013
0.589847
0.594779
0.599322
0.603811
0.60804
0.611495
0.613599
0.613206
0.608859
0.599101
0.583514
0.563627
0.540544
0.515491
0.489243
0.462302
0.434734
0.406181
0.376454
0.345778
0.314255
0.281089
0.244408
0.204557
0.162477
0.115278
0.0488213
0.257631
0.421997
0.462409
0.483375
0.500719
0.517653
0.534121
0.549888
0.564548
0.577688
0.588908
0.597806
0.604514
0.609644
0.614185
0.619017
0.62467
0.631071
0.637254
0.642134
0.644009
0.641413
0.63356
0.619731
0.599985
0.575628
0.548653
0.519999
0.490327
0.45983
0.428053
0.394729
0.360315
0.325424
0.290274
0.253265
0.212031
0.167708
0.117783
0.0501592
0.338545
0.317618
0.444977
0.447309
0.583409
0.601184
0.774226
0.813695
1.02569
1.01504
1.10866
1.21262
1.15247
1.26146
1.20994
1.24522
1.28288
1.23315
1.37184
1.25017
1.30476
1.39548
1.51864
1.67033
1.83151
1.94496
1.945
1.87526
1.77399
1.58095
1.3652
1.16635
1.00267
0.877253
0.786897
0.726661
0.682038
0.628051
0.566348
0.505769
0.453448
0.411093
0.378241
0.221993
0.162923
0.126218
0.157314
0.407339
0.338715
0.288699
0.241155
0.554505
0.462315
0.365003
0.289601
0.744269
0.574154
0.423609
0.323381
0.990597
0.667742
0.467398
0.349382
1.01536
0.706623
0.496411
0.371558
0.991826
0.717141
0.516266
0.391609
0.967233
0.719238
0.531841
0.41014
0.955535
0.723903
0.54684
0.427763
0.964706
0.737754
0.564529
0.445717
0.999099
0.765261
0.58832
0.466129
1.06049
0.809792
0.621874
0.491961
1.14936
0.873984
0.668833
0.526691
1.26483
0.959381
0.732326
0.57383
1.40306
1.06554
0.814293
0.636372
1.55558
1.18912
0.91475
0.716227
1.70721
1.32372
1.03118
0.813498
1.84465
1.46136
1.15834
0.925653
1.92675
1.59136
1.28853
1.04715
1.83708
1.71161
1.41572
1.17116
1.6214
1.75155
1.53022
1.28637
1.38964
1.61521
1.59045
1.38268
1.16976
1.37819
1.55068
1.46359
0.994471
1.14915
1.35276
1.49144
0.862403
0.966971
1.11086
1.30107
0.769332
0.833783
0.925337
1.05057
0.708507
0.743956
0.797474
0.8714
0.661645
0.685471
0.717779
0.756348
0.602617
0.632408
0.660574
0.686139
0.541614
0.573743
0.601926
0.62413
0.486208
0.516906
0.544787
0.569223
0.440461
0.468517
0.495266
0.520137
0.404538
0.430226
0.455377
0.479627
0.279726
0.42691
0.469144
0.492226
0.511444
0.530216
0.548639
0.566024
0.581808
0.595931
0.608046
0.617283
0.62362
0.627866
0.631672
0.636109
0.642128
0.650144
0.659257
0.667321
0.671675
0.670744
0.664382
0.653469
0.636815
0.614113
0.586568
0.556048
0.524042
0.491011
0.456171
0.418931
0.380004
0.340421
0.301283
0.262845
0.221671
0.175821
0.123829
0.0529252
0.30261
0.427008
0.471516
0.497561
0.51951
0.540968
0.561787
0.580163
0.596187
0.611273
0.625104
0.635273
0.641454
0.644364
0.647157
0.650808
0.65638
0.66449
0.675069
0.686027
0.693812
0.695279
0.691521
0.684993
0.673978
0.655706
0.629995
0.598941
0.565073
0.530305
0.493099
0.451983
0.408141
0.363
0.318288
0.276078
0.236123
0.191753
0.13854
0.0583887
0.322309
0.426205
0.471993
0.501081
0.526139
0.551066
0.574331
0.590924
0.606155
0.621992
0.63749
0.650773
0.658425
0.658797
0.660306
0.662651
0.667342
0.674863
0.685086
0.697045
0.708421
0.715547
0.718753
0.719106
0.714867
0.702479
0.679418
0.648974
0.614373
0.579344
0.541408
0.496836
0.448395
0.397842
0.347105
0.299552
0.259877
0.224555
0.173639
0.0675583
0.338268
0.425747
0.471824
0.503579
0.531812
0.560816
0.582614
0.597231
0.612603
0.628548
0.644295
0.658628
0.668905
0.670518
0.671428
0.671719
0.675172
0.681919
0.691928
0.705041
0.720422
0.735906
0.749721
0.759934
0.76434
0.75866
0.739002
0.70651
0.670821
0.639196
0.604642
0.55733
0.505437
0.450851
0.395465
0.344039
0.30516
0.283516
0.245517
0.0888668
0.351456
0.425382
0.47102
0.50492
0.536247
0.566731
0.585571
0.600582
0.615178
0.630338
0.646155
0.660883
0.669854
0.674168
0.67651
0.678402
0.68086
0.687035
0.697234
0.712102
0.732456
0.758198
0.785606
0.8093
0.82718
0.832142
0.815675
0.778551
0.734552
0.698482
0.682211
0.638921
0.585942
0.529557
0.472232
0.42208
0.390313
0.380801
0.34008
0.137528
0.362659
0.424474
0.468947
0.504222
0.538573
0.566638
0.586789
0.602384
0.614851
0.628795
0.645382
0.661838
0.67079
0.673587
0.677308
0.68061
0.684805
0.691564
0.702357
0.719171
0.744502
0.781252
0.82602
0.868947
0.907984
0.931924
0.92187
0.873769
0.811956
0.759984
0.729222
0.731653
0.698303
0.642952
0.586257
0.546658
0.533159
0.532257
0.463769
0.205646
0.372211
0.422499
0.464941
0.500485
0.535468
0.560715
0.580883
0.595971
0.608299
0.622771
0.641482
0.660622
0.667538
0.670834
0.675303
0.679968
0.686459
0.695847
0.707511
0.725794
0.754826
0.799636
0.86318
0.938875
1.00982
1.06761
1.07294
1.00487
0.911524
0.833029
0.785901
0.781338
0.808666
0.780717
0.740631
0.724989
0.752945
0.757139
0.65643
0.273053
0.38044
0.419361
0.458876
0.493638
0.526332
0.550084
0.569529
0.583666
0.596266
0.611501
0.631332
0.65162
0.660332
0.666159
0.672044
0.678198
0.685979
0.697188
0.7118
0.730698
0.76124
0.80955
0.883718
0.994732
1.11889
1.23281
1.28812
1.1859
1.03964
0.924698
0.851257
0.826993
0.874471
0.888125
0.862164
0.847121
0.881748
0.963643
0.904897
0.328303
0.38798
0.415465
0.451282
0.484713
0.515415
0.539775
0.558495
0.571419
0.582305
0.597978
0.618851
0.64111
0.651781
0.660748
0.668506
0.676232
0.68507
0.69653
0.712381
0.732764
0.763319
0.811462
0.885455
1.00082
1.1848
1.33672
1.36925
1.36268
1.19482
1.03494
0.926682
0.876481
0.903906
0.911192
0.865433
0.845368
0.861352
0.928831
0.90093
0.346394
0.395896
0.411636
0.443035
0.475207
0.506005
0.531639
0.551166
0.562231
0.570201
0.585136
0.606883
0.63204
0.643789
0.655295
0.664903
0.674259
0.684269
0.696398
0.71243
0.733382
0.763259
0.80866
0.876902
0.979173
1.13027
1.33044
1.3172
1.30458
1.24404
1.12232
0.991545
0.914878
0.903858
0.895447
0.856023
0.851634
0.873421
0.879325
0.769366
0.342516
0.405786
0.40908
0.435108
0.465946
0.497213
0.524617
0.545957
0.555097
0.560385
0.573961
0.595654
0.621693
0.635774
0.649628
0.661278
0.672347
0.683731
0.696807
0.713184
0.734555
0.763258
0.805198
0.866856
0.955952
1.08254
1.25508
1.2762
1.23004
1.19068
1.13651
1.02386
0.931732
0.891006
0.87029
0.855571
0.88733
0.942398
0.938403
0.768853
0.346357
0.419855
0.409504
0.428757
0.457453
0.487662
0.515551
0.537134
0.546025
0.551398
0.564436
0.585705
0.610881
0.627967
0.644365
0.65807
0.670826
0.68365
0.697834
0.714808
0.736325
0.764297
0.803372
0.859452
0.938605
1.04831
1.19533
1.2527
1.19385
1.1413
1.10183
1.02465
0.933875
0.88159
0.864772
0.885998
0.958768
1.02876
1.01358
0.806384
0.351018
0.440854
0.415227
0.42584
0.451238
0.478756
0.504789
0.525995
0.535956
0.542636
0.556654
0.577752
0.602075
0.621954
0.640567
0.655888
0.670068
0.684232
0.699545
0.717259
0.739089
0.766775
0.804047
0.856352
0.929198
1.02941
1.16526
1.24566
1.18165
1.10728
1.05375
0.995775
0.922869
0.873504
0.873892
0.934796
1.03423
1.09207
1.06052
0.829148
0.348838
0.471805
0.42904
0.428792
0.449848
0.473787
0.496758
0.517602
0.528888
0.536596
0.551542
0.572603
0.596813
0.618947
0.638989
0.655279
0.67047
0.685744
0.702145
0.720736
0.7431
0.770873
0.807377
0.857703
0.927187
1.02265
1.1533
1.24181
1.1765
1.0859
1.0148
0.955479
0.898935
0.863682
0.887291
0.979946
1.09067
1.12043
1.05731
0.82952
0.339041
0.515652
0.453913
0.440272
0.455262
0.475968
0.495059
0.514826
0.526801
0.534598
0.549835
0.570881
0.59551
0.619401
0.640043
0.65662
0.672359
0.688472
0.705903
0.72549
0.748547
0.776766
0.813374
0.863083
0.931235
1.02466
1.15214
1.23731
1.17098
1.07129
0.987566
0.923427
0.87575
0.858368
0.902878
1.01221
1.11643
1.11178
1.00097
0.784344
0.323797
0.574967
0.492689
0.462958
0.467637
0.486094
0.5018
0.519127
0.529905
0.536911
0.552019
0.573149
0.59858
0.623653
0.643791
0.660062
0.675972
0.692697
0.711111
0.731786
0.755725
0.784699
0.821882
0.871826
0.939976
1.03315
1.15904
1.23505
1.16492
1.06039
0.969129
0.901764
0.860273
0.856973
0.914485
1.02531
1.10929
1.06803
0.917107
0.71597
0.309222
0.651431
0.547822
0.499948
0.48987
0.502117
0.517329
0.529528
0.536039
0.543536
0.558664
0.580178
0.606931
0.632137
0.650178
0.665663
0.681502
0.698691
0.71805
0.739847
0.764822
0.794759
0.832646
0.883258
0.952236
1.04672
1.17281
1.23601
1.15953
1.05162
0.95611
0.887038
0.849627
0.854488
0.915471
1.01651
1.07409
1.00416
0.844037
0.654798
0.302247
0.744625
0.621121
0.553989
0.526858
0.525429
0.535566
0.542467
0.546407
0.555265
0.570719
0.593047
0.62188
0.645006
0.659138
0.673532
0.68916
0.706712
0.726964
0.749835
0.775893
0.806821
0.845316
0.896732
0.966851
1.06347
1.18721
1.23289
1.15229
1.04257
0.945256
0.875762
0.840651
0.848135
0.904946
0.992229
1.02573
0.935103
0.785676
0.612714
0.300416
0.852388
0.711762
0.625652
0.580599
0.563169
0.560688
0.562029
0.565347
0.573891
0.58951
0.613072
0.64385
0.660843
0.670598
0.683889
0.699151
0.716925
0.737944
0.761793
0.788878
0.820526
0.859534
0.911744
0.982711
1.08031
1.1949
1.22015
1.13804
1.02937
0.933307
0.865339
0.8321
0.83939
0.888956
0.9612
0.975351
0.8793
0.744538
0.586339
0.302654
0.968195
0.814327
0.711678
0.649585
0.616239
0.600594
0.594146
0.59383
0.600689
0.616392
0.641977
0.669929
0.677126
0.684576
0.696943
0.711518
0.729175
0.750667
0.775486
0.803479
0.835086
0.875045
0.928132
0.99953
1.0961
1.1946
1.19662
1.11316
1.00898
0.91796
0.854403
0.82455
0.832424
0.876233
0.934104
0.937127
0.847596
0.723045
0.57168
0.30415
1.08205
0.920955
0.805993
0.729232
0.681235
0.652934
0.637501
0.631908
0.636431
0.652657
0.680717
0.696013
0.695194
0.702126
0.713045
0.725875
0.74269
0.764422
0.790464
0.819236
0.850811
0.89192
0.946124
1.01802
1.11272
1.18813
1.1635
1.07852
0.9816
0.899043
0.842955
0.818983
0.829825
0.870816
0.917311
0.915443
0.837561
0.717619
0.56606
0.300936
1.18696
1.02571
0.903376
0.815108
0.754485
0.714769
0.690669
0.679584
0.68182
0.700247
0.722546
0.718278
0.71755
0.724455
0.731285
0.740722
0.756803
0.779419
0.807028
0.836732
0.868258
0.910419
0.966066
1.03915
1.13042
1.17424
1.124
1.03824
0.950136
0.878176
0.831726
0.815394
0.830273
0.869029
0.906556
0.899775
0.831269
0.715597
0.560588
0.292488
1.28729
1.13052
1.00433
0.907111
0.835834
0.786251
0.75455
0.738464
0.738155
0.753996
0.75325
0.744477
0.746416
0.747955
0.748315
0.755924
0.772744
0.796869
0.825621
0.854336
0.88688
0.930579
0.98831
1.06384
1.14216
1.14477
1.07923
0.995857
0.91766
0.857217
0.821208
0.812624
0.83036
0.864688
0.891909
0.879266
0.81406
0.703625
0.549504
0.283115
1.39597
1.25076
1.1207
1.0141
0.93224
0.873287
0.834939
0.814645
0.806715
0.800406
0.787825
0.781908
0.776345
0.768484
0.766202
0.77423
0.792308
0.81783
0.845129
0.871428
0.906436
0.952552
1.01298
1.08842
1.13658
1.10331
1.03108
0.953471
0.886112
0.837255
0.81128
0.809202
0.827558
0.855083
0.871008
0.852011
0.788438
0.684166
0.536045
0.275655
1.4495
1.41535
1.27532
1.15784
1.06227
0.990862
0.943473
0.910202
0.880273
0.859979
0.846466
0.827407
0.807621
0.793351
0.789359
0.797399
0.816202
0.840965
0.864339
0.891173
0.927897
0.976789
1.04197
1.10479
1.10505
1.05251
0.981317
0.91244
0.856392
0.81863
0.801467
0.804052
0.82098
0.840704
0.846138
0.821324
0.759395
0.661799
0.521059
0.268253
1.22301
1.43952
1.47322
1.35909
1.22311
1.12443
1.05535
1.00757
0.975813
0.954192
0.924072
0.882088
0.84539
0.82487
0.818187
0.823648
0.842021
0.86281
0.883219
0.912443
0.950906
1.00105
1.06315
1.09039
1.05884
0.999201
0.933009
0.873773
0.828743
0.801132
0.79127
0.796639
0.810671
0.822581
0.819018
0.789288
0.728683
0.636875
0.503453
0.259196
0.974166
1.11506
1.2828
1.41155
1.39709
1.30031
1.22171
1.16353
1.10937
1.04735
0.980412
0.917868
0.873315
0.851346
0.841189
0.844232
0.859104
0.877357
0.9031
0.935701
0.976417
1.02528
1.05865
1.04485
1.00082
0.943861
0.886173
0.837562
0.803279
0.784646
0.780408
0.786821
0.79698
0.801481
0.790361
0.756573
0.696857
0.609701
0.482961
0.248129
0.812687
0.888257
0.975937
1.05809
1.13599
1.14388
1.12013
1.08292
1.03347
0.980011
0.928034
0.883699
0.857026
0.844434
0.83973
0.849404
0.868786
0.894255
0.925874
0.962328
1.00614
1.03787
1.02554
0.988114
0.939804
0.8893
0.84201
0.804616
0.780353
0.769136
0.768664
0.77456
0.780197
0.77775
0.760366
0.723251
0.664128
0.580729
0.460071
0.235437
0.718775
0.754926
0.80022
0.846234
0.888547
0.905833
0.905945
0.894483
0.875627
0.85541
0.836437
0.823707
0.820976
0.825109
0.836311
0.856195
0.883467
0.915058
0.95392
0.991615
1.02182
1.01016
0.974154
0.928834
0.882671
0.839659
0.802749
0.775791
0.759989
0.754228
0.755621
0.759679
0.760458
0.751776
0.729115
0.689347
0.63077
0.550616
0.435645
0.221766
0.650166
0.677087
0.70539
0.73119
0.757659
0.776171
0.783228
0.784705
0.783595
0.782314
0.783118
0.788396
0.799959
0.817594
0.840355
0.867876
0.903511
0.940234
0.978665
0.996433
0.987079
0.95527
0.914323
0.871602
0.831671
0.796635
0.769158
0.750882
0.741451
0.739056
0.740601
0.74183
0.737704
0.723609
0.696707
0.655043
0.597222
0.52015
0.410681
0.207836
0.593784
0.615833
0.640373
0.664988
0.690097
0.710085
0.717228
0.724998
0.733782
0.743519
0.755295
0.770739
0.791493
0.819235
0.852414
0.883952
0.918867
0.948524
0.963019
0.954018
0.928354
0.894252
0.85685
0.820165
0.787212
0.760007
0.740535
0.7288
0.723521
0.72255
0.722875
0.720705
0.71187
0.693441
0.663449
0.620736
0.564089
0.490194
0.386192
0.194361
0.544602
0.567304
0.589335
0.610828
0.633926
0.655852
0.673245
0.689513
0.706484
0.724066
0.743038
0.76476
0.790924
0.823085
0.853306
0.880064
0.906926
0.916411
0.911572
0.89412
0.868014
0.837366
0.805399
0.775222
0.748959
0.728858
0.715586
0.708203
0.70503
0.70389
0.702065
0.696376
0.683561
0.661796
0.629845
0.587006
0.53212
0.461669
0.363171
0.181989
0.503973
0.527469
0.549803
0.571446
0.593706
0.615357
0.635834
0.657376
0.679484
0.702578
0.72701
0.752718
0.78012
0.809923
0.835758
0.853448
0.865238
0.864893
0.85412
0.83622
0.813333
0.787018
0.76046
0.736262
0.716383
0.702056
0.693029
0.688026
0.685324
0.682919
0.678463
0.669362
0.65354
0.629486
0.596706
0.554756
0.502259
0.435545
0.342523
0.171227
)
;

boundaryField
{
    leftWall
    {
        type            kqRWallFunction;
        value           nonuniform 0();
    }
    rightWall
    {
        type            kqRWallFunction;
        value           nonuniform List<scalar> 
43
(
0.0170416
0.0286269
0.0354085
0.0393426
0.0413134
0.0432621
0.0454646
0.047425
0.0488213
0.0501592
0.0529252
0.0583887
0.0675583
0.0888668
0.137528
0.205646
0.273053
0.328303
0.346394
0.342516
0.346357
0.351018
0.348838
0.339041
0.323797
0.309222
0.302247
0.300416
0.302654
0.30415
0.300936
0.292488
0.283115
0.275655
0.268253
0.259196
0.248129
0.235437
0.221766
0.207836
0.194361
0.181989
0.171227
)
;
    }
    lowerWall
    {
        type            kqRWallFunction;
        value           nonuniform List<scalar> 
66
(
0.00949411
0.00328588
0.00328588
0.0083198
0.0129273
0.0178363
0.0236986
0.0312812
0.0417793
0.0580745
0.0872472
0.159082
0.221993
0.162923
0.126218
0.157314
0.0481457
0.0828817
0.121125
0.157131
0.180785
0.199191
0.215037
0.229594
0.243544
0.257631
0.0481457
0.0549857
0.0640966
0.0782488
0.0922267
0.105962
0.118493
0.129353
0.138451
0.14594
0.152126
0.157452
0.162333
0.166206
0.169066
0.170665
0.170839
0.169589
0.167034
0.163401
0.159075
0.154546
0.15023
0.146269
0.142518
0.13867
0.134355
0.129258
0.12336
0.116966
0.11023
0.103072
0.0954825
0.0874309
0.0782228
0.0674763
0.0550353
0.0426929
0.0298386
0.0170416
)
;
    }
    atmosphere
    {
        type            inletOutlet;
        inletValue      nonuniform 0();
        value           nonuniform 0();
    }
    defaultFaces
    {
        type            empty;
    }
    procBoundary1to0
    {
        type            processor;
        value           nonuniform List<scalar> 
44
(
0.0148448
0.033718
0.047255
0.0614641
0.0783772
0.0995912
0.126856
0.162148
0.207731
0.265769
0.336872
0.422676
0.530681
0.670181
0.845233
0.9998
1.03108
1.05953
1.12152
1.20762
1.48018
1.48018
1.5959
1.69729
1.76912
1.79184
1.75117
1.67404
1.57596
1.45425
1.29336
1.13234
0.990261
0.877201
0.794047
0.737807
0.695769
0.646033
0.587222
0.524483
0.46706
0.419074
0.380966
0.351841
)
;
    }
    procBoundary1to3
    {
        type            processor;
        value           nonuniform List<scalar> 
45
(
0.353614
0.377342
0.401045
0.42484
0.448348
0.472615
0.496943
0.52037
0.543282
0.566299
0.588886
0.61096
0.633897
0.65777
0.682529
0.707863
0.733257
0.758365
0.782173
0.801073
0.812538
0.816942
0.812993
0.801909
0.785271
0.764898
0.742999
0.721823
0.703329
0.688776
0.678499
0.671871
0.667658
0.66432
0.660091
0.652987
0.641099
0.623165
0.598048
0.565533
0.525246
0.47553
0.41269
0.324908
0.162337
)
;
    }
}


// ************************************************************************* //
