/*--------------------------------*- C++ -*----------------------------------*\
| =========                 |                                                 |
| \\      /  F ield         | OpenFOAM: The Open Source CFD Toolbox           |
|  \\    /   O peration     | Version:  5.0                                   |
|   \\  /    A nd           | Web:      www.OpenFOAM.org                      |
|    \\/     M anipulation  |                                                 |
\*---------------------------------------------------------------------------*/
FoamFile
{
    version     2.0;
    format      ascii;
    class       volScalarField;
    location    "0.9";
    object      nut;
}
// * * * * * * * * * * * * * * * * * * * * * * * * * * * * * * * * * * * * * //

dimensions      [0 2 -1 0 0 0 0];

internalField   nonuniform List<scalar> 
1915
(
5.27228e-05
3.05486e-05
0.000375665
6.48893e-05
0.000574892
8.12978e-05
0.000718546
9.57957e-05
0.000852468
0.000110784
0.000995825
0.000127706
0.00115838
0.000148081
0.00134364
0.000175269
0.00157555
0.000215359
0.00193193
0.000292728
0.000115316
0.000123228
0.000132969
0.000147358
0.000160424
0.000172258
0.000182367
0.000190696
0.000197423
0.00020283
0.00020725
0.000211059
0.000214622
0.000217441
0.00021936
0.000220245
0.000220147
0.000219141
0.00021731
0.00021482
0.000211973
0.000209124
0.000206504
0.000204096
0.000201704
0.000199071
0.000195917
0.000192028
0.000187457
0.000182486
0.000177153
0.000171239
0.000164864
0.000157669
0.00014907
0.000138397
0.000124926
0.000110125
9.20925e-05
8.09922e-05
0.000210484
0.00066996
0.000725971
0.000770449
0.000846099
0.000957034
0.00109709
0.00124908
0.00139632
0.00152787
0.00163888
0.00172803
0.00178814
0.00184081
0.00188676
0.00192418
0.00195208
0.0019696
0.00197602
0.00197164
0.00195872
0.00194106
0.00192206
0.0019028
0.00188219
0.00185848
0.00182938
0.00179254
0.00174727
0.00169503
0.00163518
0.0015654
0.00148312
0.00138224
0.00126494
0.00112883
0.000965563
0.000732115
0.000478147
0.000126149
0.000254521
0.00103369
0.00121557
0.00136441
0.00159133
0.00188797
0.00221311
0.00252422
0.0027996
0.00303387
0.00322943
0.00339052
0.00352163
0.00363763
0.00373934
0.00382422
0.00388991
0.0039337
0.00395358
0.00394942
0.0039246
0.00388541
0.00383772
0.00378347
0.00372124
0.00364925
0.00356542
0.00346719
0.00335296
0.00322379
0.00307885
0.0029157
0.00273248
0.00252564
0.00228903
0.0020209
0.00170722
0.00130868
0.000817764
0.000140546
0.000289862
0.0013403
0.00169204
0.00198308
0.0023668
0.0028092
0.0032476
0.0036436
0.00398701
0.00428142
0.00453393
0.00475052
0.00493796
0.00510582
0.00525445
0.00538138
0.00548278
0.00555408
0.00559195
0.0055953
0.00556694
0.00551322
0.0054402
0.00534966
0.00524016
0.00511112
0.00496276
0.00479501
0.00460712
0.00439865
0.00416893
0.00391684
0.00364225
0.00334334
0.00301534
0.00264865
0.00222856
0.00171288
0.0010437
0.000148245
0.000311483
0.00160478
0.00215769
0.00260188
0.00310682
0.00362985
0.00411702
0.00454881
0.00492584
0.00525596
0.00554751
0.00580613
0.00603682
0.00624646
0.00643525
0.00660019
0.0067358
0.00683605
0.00689649
0.00691464
0.00689161
0.00683201
0.00674054
0.00661804
0.00646303
0.00627632
0.00606035
0.00581843
0.00555319
0.00526473
0.00495296
0.00461878
0.00426385
0.00388832
0.00348879
0.00305459
0.00256374
0.00196549
0.00117425
0.000151813
0.00032718
0.0018318
0.00259494
0.00317905
0.00375972
0.00431282
0.00481098
0.00525196
0.00564249
0.00599242
0.00630987
0.00659942
0.00686448
0.00710984
0.00733503
0.00753565
0.00770509
0.00783628
0.00792365
0.00796307
0.00795328
0.00789592
0.0077932
0.00764472
0.00744893
0.00720778
0.00692512
0.00660623
0.00625737
0.00588376
0.00548902
0.00507724
0.00465128
0.0042126
0.00375962
0.0032802
0.00274463
0.00209475
0.00122473
0.000154986
0.000340359
0.00202694
0.00298601
0.00367958
0.00429631
0.00485043
0.0053412
0.00577675
0.00616837
0.00652726
0.00686131
0.007174
0.00746818
0.00774606
0.00800563
0.008241
0.00844495
0.00860958
0.00872804
0.00879462
0.00880531
0.0087578
0.00865075
0.00848275
0.0082523
0.00796166
0.00761509
0.00721888
0.00678184
0.00631486
0.00582962
0.0053374
0.00484542
0.00435586
0.00386607
0.0033627
0.00280724
0.00213067
0.00122553
0.000158422
0.000352537
0.00219205
0.0033146
0.00408198
0.00470976
0.00525223
0.00572736
0.00614962
0.00653437
0.00689464
0.00723862
0.00756915
0.00788911
0.00819791
0.0084911
0.00876161
0.00900183
0.00920298
0.00935672
0.00945595
0.00949389
0.00946371
0.00935943
0.00917849
0.00892034
0.00858633
0.00817962
0.0077064
0.0071777
0.0066101
0.00602442
0.00544223
0.00488067
0.0043469
0.00383541
0.00332805
0.00277749
0.00209996
0.00119819
0.000161289
0.000364299
0.0023247
0.00357027
0.00438382
0.0050128
0.00553942
0.00599393
0.00639791
0.0067707
0.00712704
0.00747584
0.00782008
0.00816222
0.00849991
0.00882663
0.00913405
0.00941324
0.00965443
0.00984788
0.00998478
0.0100554
0.0100494
0.00995679
0.00977119
0.00949339
0.00912292
0.00866122
0.00811232
0.00748827
0.00681203
0.00611548
0.00543326
0.00479367
0.00421236
0.00368713
0.00319264
0.00267103
0.00201857
0.00114115
0.000163057
0.000376043
0.00243011
0.00375708
0.00459978
0.00522515
0.00573257
0.00616402
0.00654789
0.00690622
0.00725514
0.00760471
0.00795855
0.0083186
0.00868179
0.00904074
0.00938557
0.00970584
0.00999077
0.0102283
0.0104071
0.0105139
0.0105363
0.0104641
0.0102881
0.0100024
0.00960462
0.00909523
0.00847414
0.00775224
0.00695888
0.00614006
0.00534729
0.00462148
0.00398595
0.0034433
0.00296933
0.002497
0.00190057
0.00107502
0.000164568
0.00273908
0.00165175
0.0034448
0.00291165
0.00404954
0.00375335
0.00468564
0.00448755
0.00543074
0.00513459
0.00587533
0.00565227
0.00609034
0.00581885
0.00622466
0.00586042
0.00633876
0.00591733
0.00647634
0.00602599
0.00618554
0.00638265
0.00660811
0.00685735
0.00711576
0.00733456
0.00744751
0.00745385
0.00738742
0.00724837
0.0071305
0.00710676
0.00723922
0.00754576
0.00798878
0.00846254
0.00883807
0.00903351
0.00910099
0.00911839
0.00914177
0.00920463
0.0093158
0.000265741
0.000226139
0.000197704
0.00021772
0.00204179
0.00160145
0.00105907
0.000547429
0.00320406
0.00248207
0.00144811
0.000839727
0.00391578
0.00295504
0.00177673
0.00112441
0.00451997
0.00331192
0.00208369
0.00140868
0.00471966
0.00353182
0.00235464
0.00169132
0.00481217
0.00369104
0.00260053
0.00196697
0.00489257
0.00384217
0.00283606
0.00223126
0.00500027
0.00401386
0.00307456
0.00248504
0.00515167
0.00421954
0.00332778
0.00273592
0.00534535
0.00446132
0.00360507
0.002997
0.00557207
0.00473409
0.00391149
0.00328318
0.00582548
0.00503116
0.00424654
0.00360584
0.0061045
0.00534848
0.0046055
0.00396801
0.0064081
0.00568363
0.00498216
0.00436329
0.00672542
0.00603044
0.00537015
0.00478005
0.00702084
0.00637533
0.00576251
0.00520737
0.0072561
0.00670516
0.00615224
0.00563714
0.00743605
0.00702358
0.00653421
0.00606193
0.00751335
0.00733064
0.00690466
0.00647751
0.00745353
0.00755154
0.00727163
0.00688802
0.00735583
0.00762738
0.00759597
0.0073063
0.007328
0.00759507
0.00782339
0.00774656
0.00747015
0.00757329
0.0078653
0.00811087
0.00780384
0.00774315
0.00785432
0.00816939
0.00827514
0.00812247
0.00806909
0.00817105
0.00875059
0.00862162
0.00850504
0.00845384
0.00909569
0.00907088
0.00901908
0.00894064
0.00924841
0.00934935
0.00940462
0.00941112
0.00930415
0.00947206
0.00961028
0.00970746
0.00933858
0.00952862
0.00970961
0.00987318
0.00939161
0.00958572
0.00978119
0.00997247
0.00948231
0.00966594
0.00986183
0.0100613
0.000592375
0.00257517
0.00389863
0.00474968
0.00536567
0.00585271
0.0062621
0.00662616
0.00696855
0.00730738
0.00765453
0.00801415
0.00838759
0.00877181
0.00915981
0.00954026
0.00990136
0.0102315
0.0105174
0.0107433
0.0108913
0.0109467
0.0108991
0.0107425
0.0104648
0.0100568
0.00951201
0.00882545
0.00800532
0.00708685
0.0061339
0.00522039
0.00440195
0.00370742
0.00313942
0.00267846
0.00226117
0.0017497
0.00102072
0.000168936
0.00087238
0.00272788
0.00400749
0.0048482
0.0054503
0.00591942
0.00631045
0.00665497
0.00697897
0.00730493
0.00764747
0.00801012
0.00839267
0.00879157
0.00920354
0.0096162
0.010016
0.0103897
0.0107236
0.0109996
0.0111954
0.0112897
0.0112742
0.0111458
0.0108899
0.0104896
0.00992874
0.00919165
0.00827729
0.00722807
0.00613003
0.00508797
0.00417566
0.00342412
0.0028263
0.00235977
0.00197822
0.00155781
0.000968035
0.000178566
0.00117743
0.00287566
0.00409039
0.0049084
0.00549497
0.00595144
0.00632865
0.00665003
0.00695304
0.00726382
0.00759875
0.00796624
0.00835672
0.0087609
0.00918984
0.00962875
0.0100637
0.0104792
0.0108584
0.0111824
0.0114294
0.0115751
0.0116068
0.0115154
0.0112877
0.0109067
0.0103477
0.00958408
0.00859119
0.00741277
0.00616226
0.0049872
0.00398847
0.00319423
0.00257379
0.00208948
0.00170902
0.00135713
0.000909372
0.000197507
0.0014805
0.00301072
0.00415085
0.00493973
0.00551162
0.00596097
0.00631794
0.00661711
0.00690416
0.00720197
0.00752657
0.00788646
0.00828423
0.0086968
0.00913661
0.00959364
0.0100586
0.0105135
0.0109388
0.0113139
0.0116167
0.0118233
0.0119135
0.0118684
0.011674
0.0113162
0.0107735
0.0100023
0.00895751
0.00767003
0.00626759
0.00495349
0.00388127
0.00306904
0.00244679
0.00195533
0.00156873
0.00126514
0.000925874
0.00024119
0.00176538
0.00312761
0.00419022
0.00494751
0.00550657
0.00594318
0.00627797
0.00656375
0.00683824
0.00712564
0.00744243
0.00779461
0.00817819
0.00859513
0.0090486
0.00952669
0.0100163
0.0105076
0.0109794
0.0114083
0.0117712
0.0120466
0.0122062
0.0122186
0.0120707
0.0117475
0.0112236
0.0104539
0.00937544
0.00798561
0.00647124
0.00502162
0.00388846
0.00308474
0.00248799
0.00202163
0.00166219
0.0013956
0.00105607
0.000309723
0.00202217
0.00322263
0.0042083
0.0049328
0.00547946
0.00589381
0.00621877
0.00649537
0.00675876
0.00703724
0.00734724
0.00769195
0.00806548
0.00847847
0.00893939
0.00943358
0.0099502
0.0104758
0.0109925
0.0114757
0.0119005
0.0122499
0.0124951
0.0125857
0.0125112
0.0122511
0.0117555
0.0109699
0.00982776
0.00834398
0.00668247
0.00516142
0.00402655
0.00325396
0.00270743
0.00230822
0.00201724
0.00176644
0.00131307
0.000370013
0.00224644
0.00329385
0.00420394
0.00489335
0.00542099
0.0058147
0.00613071
0.00640016
0.00665767
0.00693251
0.00723982
0.00758204
0.00794962
0.00836164
0.00882487
0.0093293
0.00986833
0.0104284
0.0109858
0.0115203
0.0120051
0.012423
0.0127627
0.0129893
0.0130336
0.0128995
0.0124582
0.0116208
0.0103642
0.00871772
0.00689202
0.00525242
0.00418061
0.0035132
0.00306124
0.00275505
0.00256861
0.00232076
0.00173912
0.000421422
0.00243908
0.00334168
0.00417736
0.00482932
0.00532972
0.00570641
0.00601071
0.00627261
0.0065294
0.00680824
0.0071221
0.00746903
0.00784065
0.00825505
0.00871873
0.00922811
0.00977998
0.0103652
0.0109631
0.0115421
0.0120808
0.0125585
0.0129708
0.0133488
0.0135998
0.0137026
0.0134434
0.01248
0.0110304
0.00919461
0.00713992
0.0053553
0.00430197
0.00375603
0.00339052
0.00312368
0.00296868
0.00286409
0.00230489
0.000454811
0.00260589
0.00336936
0.00413113
0.00474475
0.00521844
0.00558297
0.00587645
0.00613298
0.00639155
0.00667996
0.00700599
0.00736598
0.00774555
0.0081657
0.00863058
0.00914276
0.00970188
0.0103012
0.0109242
0.0115418
0.0121263
0.0126558
0.013116
0.0135349
0.0140197
0.0143621
0.0140553
0.0133243
0.0118102
0.00980456
0.00758742
0.00566766
0.00455315
0.00404248
0.00374647
0.00356223
0.00342819
0.00329502
0.00261027
0.000445913
0.00275764
0.00338358
0.00407063
0.00464702
0.00510079
0.00545579
0.00574452
0.00599798
0.0062599
0.0065595
0.00690113
0.00728021
0.00766887
0.0080964
0.00856415
0.00907917
0.00964316
0.0102514
0.0108888
0.0115307
0.0121496
0.0127189
0.0132173
0.0136535
0.0140908
0.0145666
0.0142323
0.0135053
0.0122796
0.0104016
0.00816104
0.00615726
0.00489801
0.00433932
0.00415042
0.00415644
0.00420687
0.0039693
0.0028827
0.000435462
0.00291021
0.00339548
0.00400409
0.00454335
0.00497986
0.00532938
0.00562029
0.00587582
0.00614272
0.00645332
0.00680988
0.00720488
0.00760918
0.00804677
0.00852044
0.0090391
0.00960653
0.0102199
0.0108658
0.0115233
0.0121618
0.0127563
0.0132813
0.0137306
0.0141377
0.0145531
0.0143533
0.0135763
0.0124152
0.0107757
0.00867403
0.006691
0.00532674
0.00470113
0.00462491
0.00482166
0.0049725
0.00462021
0.00322911
0.000442693
0.00308392
0.00342166
0.00394367
0.00444191
0.00485851
0.00520299
0.00549784
0.00576233
0.00604189
0.00636703
0.00673826
0.00714499
0.00756841
0.00801908
0.00850123
0.00902432
0.00959407
0.0102101
0.0108606
0.0115247
0.0121739
0.012782
0.0133232
0.013783
0.0141783
0.0145476
0.0144668
0.0137118
0.0125442
0.0110151
0.00911142
0.00722319
0.00584408
0.00520071
0.00521702
0.00551643
0.00560294
0.00511287
0.00350731
0.000448175
0.00330054
0.00348465
0.00390848
0.00435798
0.00474908
0.00508329
0.00538182
0.0056606
0.00595813
0.0063033
0.00669117
0.0071112
0.00755236
0.00801732
0.00850725
0.00903447
0.00960658
0.0102238
0.0108757
0.0115423
0.0121961
0.01281
0.0133584
0.0138241
0.0142161
0.0145728
0.0145785
0.013876
0.0127164
0.0112289
0.00949945
0.00774448
0.00642149
0.00581175
0.00587145
0.00614103
0.00609754
0.0054537
0.00366437
0.000445977
0.00357704
0.00360981
0.00392397
0.00431471
0.00467072
0.0049907
0.00529379
0.00558755
0.00590354
0.00626849
0.00667308
0.00710838
0.00756644
0.00804295
0.00853956
0.00907118
0.00964605
0.0102644
0.0109163
0.0115826
0.0122364
0.0128504
0.0133997
0.0138663
0.0142574
0.0146124
0.0146668
0.0140228
0.0129068
0.0114708
0.00984798
0.00825137
0.0070164
0.00645349
0.00649468
0.00666258
0.00645806
0.00563214
0.0037245
0.000439876
0.00391796
0.00381705
0.00401439
0.00433176
0.00464909
0.0049501
0.00525374
0.00555928
0.00589031
0.00627077
0.00668978
0.00713985
0.00761311
0.00809843
0.00860008
0.00913596
0.00971428
0.0103345
0.0109861
0.0116501
0.0123005
0.0129109
0.0134564
0.0139202
0.0143101
0.0146657
0.0147345
0.0141385
0.0130859
0.0117254
0.0101981
0.00872396
0.00759176
0.00705357
0.00702647
0.00705748
0.00668381
0.00564815
0.00361052
0.000429929
0.00431271
0.00411106
0.00419242
0.00442555
0.0047039
0.00498272
0.00527901
0.00558835
0.00592723
0.00631718
0.00674706
0.00720968
0.00769456
0.00818458
0.00868985
0.00923027
0.00981312
0.0104363
0.0110877
0.011748
0.0123922
0.0129951
0.0135329
0.0139912
0.01438
0.0147373
0.0147981
0.0142312
0.0132434
0.011969
0.0105385
0.00916246
0.00810243
0.00755901
0.00744065
0.00733199
0.00680231
0.00559271
0.00344316
0.000423649
0.00474215
0.00447732
0.00445889
0.00460583
0.00483798
0.00509803
0.00537605
0.00567656
0.00601859
0.00641246
0.00684995
0.00732262
0.00781301
0.00830181
0.00881006
0.00935609
0.00994491
0.010572
0.0112231
0.0118776
0.0125123
0.0131032
0.0136292
0.0140798
0.0144689
0.0148306
0.0148664
0.0143101
0.0133775
0.0121867
0.0108483
0.0095504
0.0085299
0.00795757
0.00774996
0.00752302
0.00687179
0.00556243
0.00334801
0.000428304
0.00518835
0.00489055
0.00479901
0.00487026
0.00504421
0.00527628
0.0055338
0.00582231
0.00616401
0.00655893
0.00700222
0.00748375
0.00797012
0.00845118
0.00896314
0.00951652
0.0101127
0.0107441
0.0113934
0.012039
0.0126597
0.0132329
0.0137422
0.0141821
0.0145724
0.0149295
0.0149222
0.0143695
0.0134831
0.0123693
0.0111175
0.00988713
0.00889137
0.00828527
0.00800285
0.00768736
0.00694358
0.00556878
0.00328494
0.000428801
0.00563812
0.00532881
0.0051899
0.00520106
0.0053198
0.00550876
0.0057443
0.00602541
0.00636252
0.00675793
0.00720624
0.00769499
0.00816376
0.00863554
0.00915352
0.00971584
0.0103198
0.0109544
0.0115986
0.0122307
0.0128308
0.0133798
0.0138667
0.0142911
0.0146771
0.0150062
0.0149416
0.0143921
0.0135498
0.0125112
0.0113459
0.0101865
0.0092228
0.008596
0.00825436
0.00787152
0.00706375
0.00562656
0.00326135
0.000427954
0.00608626
0.00578072
0.00561392
0.00558012
0.0056522
0.00580215
0.00601294
0.00628175
0.00661433
0.00701191
0.00746495
0.00794703
0.00838681
0.00885962
0.00938698
0.00995859
0.0105687
0.0112025
0.0118364
0.0124485
0.0130192
0.0135386
0.0139978
0.0144006
0.0147717
0.0150469
0.0149125
0.0143655
0.0135718
0.012612
0.0115396
0.0104649
0.00955522
0.00893405
0.00854932
0.00810944
0.00724732
0.00573952
0.00327734
0.000424715
0.00653559
0.00624502
0.00606438
0.00599792
0.00603194
0.00614845
0.00633609
0.00659343
0.0069244
0.00732697
0.0077848
0.00823118
0.00865036
0.00913421
0.00967083
0.0102481
0.0108589
0.0114849
0.012101
0.0126846
0.0132192
0.0137043
0.014132
0.0145094
0.014858
0.0150524
0.0148359
0.0142934
0.0135551
0.0126798
0.0117076
0.0107318
0.00989653
0.00930236
0.00888573
0.00838424
0.0074682
0.00588011
0.003314
0.000416386
0.007
0.00673284
0.00654896
0.00646003
0.00646427
0.0065539
0.00672336
0.00697275
0.00730459
0.00771454
0.00815893
0.00854536
0.00897524
0.00947263
0.0100094
0.0105838
0.0111877
0.011797
0.0123864
0.0129335
0.0134266
0.013873
0.0142675
0.0146195
0.0149379
0.0150225
0.0147263
0.0141937
0.0135158
0.0127275
0.0118582
0.010986
0.0102306
0.00966492
0.00921621
0.00863656
0.00765457
0.00598962
0.00333246
0.000405694
0.00750588
0.00727163
0.00709361
0.00699113
0.00697347
0.00704298
0.00719936
0.00744236
0.00777081
0.00817623
0.00855908
0.00893405
0.00938298
0.0098739
0.0103988
0.0109649
0.0115524
0.0121341
0.0126864
0.0131857
0.0136348
0.0140404
0.0144027
0.0147343
0.0149925
0.0149416
0.0145943
0.0140838
0.0134692
0.0127665
0.0119955
0.0112207
0.0105355
0.009984
0.00948646
0.00882654
0.00776815
0.00603752
0.00332563
0.000398417
0.00806325
0.00789753
0.00773539
0.00762817
0.00759504
0.00764954
0.00779572
0.00802959
0.00833524
0.00868654
0.00903306
0.00942643
0.009861
0.0103284
0.0108403
0.0113872
0.0119444
0.0124867
0.0129876
0.0134299
0.0138355
0.0142021
0.0145354
0.0148418
0.014988
0.014818
0.0144506
0.0139751
0.0134249
0.0128024
0.0121202
0.0114299
0.0107996
0.0102483
0.00969497
0.00895771
0.00782893
0.00604725
0.00331296
0.000393617
0.00851464
0.0086165
0.00848746
0.00839411
0.00835059
0.00839239
0.00852707
0.00873251
0.00898231
0.0092895
0.00964082
0.0100012
0.0103948
0.0108383
0.0113257
0.0118369
0.0123495
0.0128378
0.0132733
0.0136641
0.0140242
0.0143559
0.01467
0.0149119
0.014902
0.0146662
0.0143058
0.0138737
0.0133861
0.0128371
0.0122311
0.0116103
0.0110201
0.0104605
0.00985276
0.00904438
0.00785235
0.00602995
0.00328862
0.000387597
0.00849433
0.00902812
0.00929587
0.00926805
0.00916784
0.00917762
0.00928562
0.00947741
0.00973608
0.01004
0.0103377
0.0106264
0.0109681
0.0113824
0.0118307
0.0122882
0.0127464
0.0131673
0.013537
0.0138796
0.0141953
0.0144917
0.0147675
0.0148805
0.0147598
0.0145038
0.0141671
0.0137822
0.0133533
0.0128689
0.0123268
0.011761
0.0111982
0.0106248
0.0099663
0.00909357
0.00784368
0.00598558
0.00324741
0.000379581
0.00853828
0.00881636
0.00934008
0.00985313
0.0100806
0.0101084
0.010209
0.0103879
0.0105884
0.0107787
0.0109724
0.0112048
0.0115193
0.0119058
0.0123033
0.0127045
0.0130958
0.0134496
0.0137752
0.0140727
0.0143485
0.0146065
0.0147698
0.0147429
0.014578
0.0143352
0.0140361
0.0137009
0.0133258
0.0128961
0.0124069
0.0118819
0.0113353
0.0107442
0.0100381
0.00910704
0.00780422
0.00591503
0.00318947
0.000369913
0.00891004
0.00896716
0.00916791
0.00947961
0.00991043
0.0102449
0.0105002
0.0107258
0.0109283
0.011138
0.0113756
0.0116545
0.0119839
0.0123385
0.0126883
0.0130454
0.0133872
0.0137007
0.0139859
0.014245
0.014488
0.0146605
0.0146705
0.014567
0.0143968
0.0141776
0.0139205
0.0136326
0.0133032
0.0129177
0.0124704
0.0119731
0.0114328
0.0108211
0.0100694
0.00908525
0.00773472
0.00582013
0.00311694
0.000359053
0.0094204
0.00941756
0.00949034
0.00964337
0.00986069
0.0101345
0.01041
0.0106909
0.0109828
0.0112936
0.011626
0.0119741
0.0123294
0.0126769
0.0130122
0.0133361
0.013641
0.0139176
0.014175
0.0143963
0.0145588
0.0145848
0.0145162
0.0143947
0.0142369
0.0140457
0.0138273
0.0135784
0.0132843
0.0129321
0.0125156
0.0120345
0.0114915
0.0108549
0.0100614
0.00902941
0.00763681
0.00570336
0.00303243
0.000347461
0.00979548
0.00986819
0.0099669
0.010086
0.0102584
0.0104858
0.0107266
0.0110012
0.0113063
0.0116324
0.0119694
0.0123102
0.012648
0.0129763
0.0132871
0.0135778
0.0138568
0.0141045
0.0143204
0.0144499
0.0144826
0.0144395
0.0143562
0.0142452
0.0141074
0.0139439
0.0137566
0.0135359
0.0132666
0.0129371
0.0125401
0.0120677
0.0115145
0.0108503
0.0100177
0.00894256
0.00751342
0.0055679
0.00293864
0.00033561
0.0100281
0.0101668
0.0103181
0.0104847
0.0106889
0.0109186
0.0111372
0.0113941
0.0116812
0.011984
0.0122937
0.0126052
0.012915
0.0132213
0.0135141
0.0137728
0.0140114
0.0142039
0.0143263
0.0143649
0.0143458
0.0142938
0.0142195
0.0141256
0.0140083
0.0138686
0.0137038
0.0135014
0.0132476
0.0129317
0.0125447
0.0120748
0.0115071
0.0108132
0.00994362
0.0088295
0.00736905
0.00541793
0.0028387
0.000324006
0.010167
0.0103586
0.010548
0.0107432
0.0109629
0.0112011
0.0114447
0.0117068
0.0119847
0.0122691
0.0125547
0.0128394
0.013122
0.013401
0.0136521
0.0138667
0.014052
0.0141691
0.0142269
0.0142386
0.0142173
0.0141745
0.0141154
0.0140364
0.0139365
0.0138152
0.0136649
0.0134731
0.0132274
0.0129176
0.012533
0.0120591
0.0114741
0.0107506
0.00984625
0.00869688
0.00720999
0.00525928
0.00273662
0.000313171
0.0102721
0.0104911
0.0107091
0.0109302
0.0111621
0.0114022
0.0116484
0.0119095
0.0121788
0.0124511
0.012722
0.0129871
0.013243
0.0134866
0.0136992
0.0138674
0.0139957
0.0140771
0.0141177
0.0141286
0.0141171
0.0140873
0.0140392
0.0139736
0.013889
0.0137804
0.0136384
0.0134514
0.0132085
0.0128992
0.0125113
0.0120287
0.0114251
0.0106722
0.009735
0.00855386
0.00704505
0.00509995
0.00263758
0.000303564
)
;

boundaryField
{
    leftWall
    {
        type            nutkWallFunction;
        Cmu             0.09;
        kappa           0.41;
        E               9.8;
        value           nonuniform 0();
    }
    rightWall
    {
        type            nutkWallFunction;
        Cmu             0.09;
        kappa           0.41;
        E               9.8;
        value           nonuniform List<scalar> 
43
(
1.16539e-05
1.48701e-05
1.64193e-05
1.72447e-05
1.76396e-05
1.80199e-05
1.84394e-05
1.88034e-05
1.90651e-05
1.93008e-05
1.97825e-05
2.07008e-05
2.2147e-05
2.52369e-05
3.1346e-05
3.69209e-05
4.20517e-05
5.10536e-05
5.25677e-05
4.67247e-05
4.67852e-05
4.70694e-05
4.70339e-05
4.77182e-05
4.86259e-05
4.94316e-05
5.00927e-05
4.95989e-05
4.91675e-05
4.90224e-05
4.86932e-05
4.79365e-05
4.70554e-05
4.63597e-05
4.56603e-05
4.47894e-05
4.3702e-05
4.24206e-05
4.0996e-05
3.94926e-05
3.79831e-05
3.65443e-05
3.52471e-05
)
;
    }
    lowerWall
    {
        type            nutkWallFunction;
        Cmu             0.09;
        kappa           0.41;
        E               9.8;
        value           nonuniform List<scalar> 
66
(
6.35997e-06
3.67767e-06
3.67767e-06
7.84695e-06
9.70681e-06
1.13146e-05
1.29386e-05
1.47365e-05
1.68638e-05
1.96445e-05
2.36997e-05
3.12172e-05
2.86126e-05
2.48263e-05
2.20752e-05
2.44299e-05
1.38816e-05
2.43253e-05
2.89513e-05
3.26133e-05
3.47719e-05
3.63464e-05
3.76397e-05
3.87815e-05
3.98388e-05
4.08738e-05
1.38816e-05
1.47726e-05
1.58667e-05
1.74085e-05
1.87866e-05
2.00325e-05
2.10933e-05
2.19636e-05
2.26622e-05
2.32185e-05
2.36663e-05
2.40437e-05
2.43836e-05
2.46493e-05
2.48433e-05
2.49509e-05
2.49626e-05
2.48785e-05
2.47056e-05
2.44572e-05
2.41574e-05
2.38387e-05
2.35301e-05
2.32426e-05
2.29663e-05
2.26787e-05
2.23509e-05
2.19562e-05
2.14886e-05
2.09675e-05
2.04012e-05
1.97781e-05
1.90907e-05
1.83277e-05
1.74059e-05
1.62505e-05
1.47773e-05
1.31197e-05
1.10786e-05
8.47233e-06
)
;
    }
    atmosphere
    {
        type            calculated;
        value           nonuniform 0();
    }
    defaultFaces
    {
        type            empty;
    }
    procBoundary1to0
    {
        type            processor;
        value           nonuniform List<scalar> 
44
(
6.62673e-05
0.000592745
0.00100287
0.00128618
0.00152305
0.00175085
0.00198767
0.00224413
0.00253638
0.00289829
0.00335498
0.00380065
0.00423954
0.00472584
0.00529828
0.00584298
0.00606999
0.00615958
0.0062412
0.00634843
0.00664704
0.00664704
0.00683253
0.00701011
0.00715974
0.00724653
0.0072399
0.00717894
0.00708637
0.00697602
0.0068927
0.00689692
0.00703576
0.00733124
0.00775292
0.00821372
0.00859743
0.00881729
0.00890281
0.00891666
0.00891758
0.00895005
0.00903709
0.00917817
)
;
    }
    procBoundary1to3
    {
        type            processor;
        value           nonuniform List<scalar> 
45
(
0.00946569
0.00960795
0.0097738
0.00995945
0.010157
0.0103723
0.0106018
0.0108343
0.01107
0.0113109
0.0115548
0.0118011
0.0120545
0.0123122
0.0125699
0.0128228
0.013066
0.0132947
0.0135027
0.0136796
0.0138186
0.0139213
0.0139907
0.0140318
0.0140485
0.0140457
0.0140253
0.013989
0.0139363
0.0138631
0.0137621
0.0136237
0.0134378
0.0131941
0.0128816
0.0124868
0.011991
0.0113683
0.010589
0.00962114
0.00841125
0.00688439
0.00494882
0.00254688
0.000295472
)
;
    }
}


// ************************************************************************* //
