/*--------------------------------*- C++ -*----------------------------------*\
| =========                 |                                                 |
| \\      /  F ield         | OpenFOAM: The Open Source CFD Toolbox           |
|  \\    /   O peration     | Version:  5.0                                   |
|   \\  /    A nd           | Web:      www.OpenFOAM.org                      |
|    \\/     M anipulation  |                                                 |
\*---------------------------------------------------------------------------*/
FoamFile
{
    version     2.0;
    format      ascii;
    class       volScalarField;
    location    "0.9";
    object      p;
}
// * * * * * * * * * * * * * * * * * * * * * * * * * * * * * * * * * * * * * //

dimensions      [1 -1 -2 0 0 0 0];

internalField   nonuniform List<scalar> 
1915
(
713.52
710.348
664.199
661.599
614.881
612.23
565.031
562.253
514.424
511.952
462.78
461.351
409.639
410.092
354.426
357.958
295.62
308.069
224.518
265.48
1629.41
1570.5
1552.49
1520.12
1438.16
1319.25
1182.43
1050.59
939.243
854.072
794.506
757.62
739.332
737.619
746.679
762.488
781.743
801.485
819.634
835.252
848.514
860.216
870.874
880.071
886.61
888.962
885.647
876.043
861.11
842.34
820.27
794.786
766.266
735.652
704.686
676.825
657.597
650.548
655.505
667.099
1581.17
1509.03
1526.31
1500.58
1409.5
1273.58
1123.39
985.351
872.311
787.317
728.224
690.543
671.708
666.448
671.061
682.822
699.202
717.325
735.076
751.263
765.586
778.285
789.473
798.611
804.685
806.63
803.357
794.38
780.708
763.977
744.338
721.382
695.693
668.396
641.354
617.703
601.17
598.175
606.616
621.029
1570.54
1498.24
1489.45
1436.84
1326.39
1182.72
1036.48
907.651
802.043
720.91
662.8
623.188
599.819
591.232
591.697
599.243
612.197
627.95
644.531
660.565
675.394
688.932
701.046
710.921
717.485
720.136
717.735
709.428
696.483
681.851
665.289
645.921
624.515
602.24
580.586
562.512
551.111
547.811
554.935
568.447
1592.58
1488.12
1427.16
1335.51
1208.18
1070.46
942.018
828.507
733.315
658.223
600.175
556.955
529.325
518.44
515.39
519.843
530.47
544.362
559.657
574.778
589.035
602.738
616.123
627.875
636.353
641.476
642.53
637.689
626.436
612.602
597.298
579.212
560.236
541.77
524.487
510.347
502.234
498.375
502.861
515.59
1596.67
1452.8
1342.78
1222.25
1093.26
975.56
863.795
759.87
671.931
600.856
543.77
498.446
468.517
449.738
440.965
443.179
453.14
466.069
480.249
493.689
505.951
518.924
534.32
549.611
561.103
569.727
575.854
577.554
575.418
563.45
546.645
525.823
505.239
486.897
471.591
459.833
453.401
452.195
452.532
463.221
1563.14
1384.62
1239.56
1108.52
995.598
892.205
788.152
690.92
607.96
539.793
484.237
439.879
403.352
377.46
364.068
366.605
377.382
389.804
402.946
413.707
421.731
432.172
450.354
471.999
488.173
500.428
509.975
516.54
519.366
515.81
503.372
484.393
461.276
438.756
421.196
409.811
404.982
407.043
405.873
413.285
1480.4
1281.77
1122.56
1000.29
902.22
802.475
699.244
606.168
528.76
465.99
415.682
374.173
337.975
310.891
301.794
304.509
314.086
324.647
336.321
344.826
347.944
352.595
368.001
393.976
414.665
431.502
444.318
452.212
456.45
457.412
452.232
441.511
423.267
398.97
375.43
359.9
356.399
360.963
362.998
365.49
1340.87
1143.74
991.737
886.978
790.026
683.516
579.927
494.232
426.23
374.191
337.077
309.742
294.172
283.348
279.278
281.216
289.724
298.901
309.181
318.137
322.214
324.791
328.056
338.293
347.51
362.42
379.13
390.16
395.424
396.913
396.293
391.168
378.594
362.876
337.197
312.629
306.161
315.433
322.188
320.876
1130.4
967.4
837.236
743.942
641.99
532.917
439.159
367.301
313.582
274.801
249.278
237.547
242.919
253.471
261.433
272.964
287.175
301.055
312.791
322.85
330.935
338.876
348.797
345.75
321.675
307.475
315.675
328.755
337.732
341.946
341.489
337.615
330.772
317.547
302.281
272.673
254.652
270.521
284.961
288.645
824.699
751.598
654.172
571.254
472.441
373.474
293.436
234.35
194.894
170.41
155.022
149.076
160.611
180.395
206.203
238.463
268.704
292.748
309.08
320.471
330.174
343.114
363.146
367.273
343.706
301.548
270.191
269.116
279.811
288.535
290.543
287.998
282.543
273.318
258.396
236.621
210.869
224.959
250.962
254.961
125.419
100.613
43.9427
18.3976
-0.520958
-5.98595
-1.23188
-4.05355
0.653616
-3.06993
2.17943
-1.26247
2.7628
0.521209
3.10595
2.00034
3.29421
2.76435
3.42743
3.04684
3.17773
3.35884
3.97428
6.39059
10.8141
14.4495
16.7448
20.1056
25.6977
31.7592
35.5203
26.2325
6.60316
-7.07301
-7.04948
-2.06417
-1.78385
-1.89781
-2.063
-2.18358
-2.27962
-2.36704
-2.44842
22.9316
-45.0134
-27.4081
-140.75
-34.8684
-99.4049
-43.8968
19.8842
-49.7528
-110.24
-43.8891
91.6805
-39.7848
-110.427
-65.4468
68.2119
-10.8211
-100.436
-77.8191
40.2357
-9.41066
-95.3519
-66.6561
33.8457
-10.9833
-85.0123
-45.5216
34.9009
-11.3732
-70.2942
-26.5734
34.7438
-10.8942
-54.5441
-12.6639
33.7563
-9.61894
-40.1773
-3.91237
32.9078
-7.24571
-28.5326
0.892735
32.2397
-4.3314
-19.1476
3.74808
31.8029
-1.32593
-12.0145
5.11066
31.2336
2.55442
-7.76811
4.99405
30.1062
7.47762
-3.92473
5.99246
28.8229
11.4662
4.07555
12.791
28.3351
14.755
15.8178
23.8238
27.4199
21.8627
26.846
28.5653
21.3039
34.6318
37.6201
21.8345
8.21966
44.6839
48.3559
29.4837
7.45744
49.2898
53.9026
50.0305
38.0514
48.8525
56.2946
58.9798
55.3865
35.0148
54.8119
60.3282
59.4053
10.4372
37.7251
55.3918
58.6352
-7.89258
7.89294
34.7499
51.2339
-6.20307
-10.8332
0.751046
26.3785
-2.08951
-4.55836
-9.62012
-9.21141
-1.86481
-2.17085
-3.21516
-7.18408
-2.06867
-2.11105
-2.17361
-2.43177
-2.22187
-2.26749
-2.28128
-2.30464
-2.31969
-2.37184
-2.42127
-2.46341
-2.40438
-2.44975
-2.50119
-2.5562
-2.48315
-2.52284
-2.56786
-2.61832
402.228
502.018
460.375
392.902
303.306
216.289
150.114
107.024
84.2494
71.793
62.3422
59.2085
68.0338
79.8123
109.867
154.356
201.154
247.119
279.005
299.127
310.469
322.135
343.548
362.765
353.899
316.139
263.044
224.134
222.854
236.414
242.014
240.232
236.901
230.808
218.723
200.093
182.99
183.248
215.426
223.077
295.107
308.43
290.919
232.768
148.645
79.7247
49.3608
38.9973
33.9043
29.6904
23.2988
15.2676
8.80262
5.71014
18.0126
47.5051
95.8207
152.982
207.776
243.738
265.104
282.233
300.076
315.521
319.644
304.53
263.321
206.87
174.14
182.812
191.823
193.551
193.222
190.752
182.494
167.538
160.443
158.401
181.715
193.096
256.867
195.316
168.525
104.34
31.4337
5.4778
14.3106
20.0925
18.2747
16.7645
14.7285
5.85631
-3.55568
-7.56461
-18.5806
-18.6125
9.12898
51.0517
100.924
146.197
185.306
207.121
218.031
227.817
243.404
252.006
236.925
191.294
136.626
115.079
116.11
134.004
148.755
153.781
151.703
145.218
147.854
154.521
166.215
175.755
180.451
114.57
80.428
11.5965
-24.3568
-14.8627
-2.47176
3.41891
4.53983
5.02974
3.73644
-1.72039
-3.7597
-4.50918
-5.74633
-18.9291
-27.2892
-4.92737
34.0687
76.3557
120.248
139.835
138.358
141.212
152.523
167.554
171.909
150.881
100.163
55.8704
37.8659
52.4187
85.277
105.412
116.927
126.659
142.586
155.528
165.544
161.697
108.778
53.8756
18.285
-37.0546
-32.1444
-23.1025
-18.211
-13.9349
-8.2341
-3.88915
-2.09741
-4.40364
-4.50661
-4.71219
-4.88383
-5.13662
-13.7243
-20.2718
2.04966
53.3081
114.171
142.902
132.89
108.026
101.496
100.254
94.9202
84.9346
55.0288
33.5512
16.4495
7.74761
20.2438
33.7993
53.5241
77.3045
110.92
138.862
148.868
142.22
66.7256
16.1285
-19.3232
-45.5777
-31.8124
-27.3956
-27.0208
-24.1794
-15.3041
-6.87733
-4.49421
-4.7708
-4.84239
-4.91576
-4.95761
-4.90531
-5.12505
-9.55305
-13.5994
27.4163
116.022
175.651
201.788
164.038
97.7932
68.7832
39.5568
32.1669
23.8998
13.2236
8.38208
4.69376
3.67515
3.56913
7.32166
13.3077
25.6373
71.0525
105.81
111.479
44.6697
-3.465
-37.891
-41.2524
-31.7895
-29.3361
-29.5184
-26.5071
-18.4575
-8.04336
-4.80803
-4.72822
-4.95995
-5.03468
-5.07141
-5.03594
-4.97346
-5.15645
-10.8698
-15.0769
60.7289
163.252
226.273
223.281
117.838
44.3127
14.647
6.87119
12.4145
8.78196
4.46824
3.48096
3.09404
2.89493
2.85618
2.98939
5.39684
17.0261
60.7164
125.92
32.2719
-11.6657
-42.6143
-39.8118
-33.4216
-31.3329
-32.1614
-31.4938
-25.4693
-14.0928
-5.42777
-4.89472
-5.10144
-5.15857
-5.1627
-5.1422
-5.09399
-5.08991
-5.89254
-19.9521
-3.15789
86.0768
173.082
176.904
100.167
32.2355
7.96286
4.04068
5.3768
2.7381
2.066
3.09104
3.14153
2.99527
2.82106
2.90553
3.87991
8.66591
28.9516
89.6196
26.4963
-12.438
-40.6254
-41.9325
-37.5203
-36.4272
-38.7329
-37.489
-31.8608
-22.741
-9.4057
-5.59386
-5.25572
-5.27595
-5.24136
-5.20742
-5.17143
-5.126
-5.22457
-6.44685
-13.4762
14.3099
72.5331
94.1597
47.0625
18.0425
6.83886
5.20678
4.48361
1.29945
1.48265
2.76639
2.91155
2.68677
2.4026
2.26498
2.27603
3.41553
13.2045
64.7924
26.0751
-7.93693
-37.1725
-44.2459
-41.9969
-42.6706
-43.7533
-39.049
-30.9249
-24.3244
-12.869
-6.09408
-5.36896
-5.36445
-5.30837
-5.2545
-5.20734
-5.14454
-5.04188
-5.01435
-6.96934
-0.986585
33.7891
56.1095
30.3713
9.30336
4.90671
4.28104
3.42203
2.32926
2.05714
2.3225
2.43801
2.14823
1.7246
1.38703
0.925201
0.366397
1.9693
48.4923
29.2717
0.316591
-32.4593
-43.7434
-44.4511
-44.4371
-43.0893
-39.968
-34.2806
-24.1768
-13.6295
-6.04955
-5.41478
-5.41815
-5.35794
-5.29213
-5.23421
-5.16774
-5.07079
-4.99707
-4.96236
0.823063
29.3282
50.2009
21.1909
4.30743
3.51016
3.42182
3.03278
2.53067
2.13643
1.82332
1.85227
1.64855
1.281
0.926298
0.455162
-0.24582
-0.960212
29.4578
34.2394
10.7359
-26.9923
-42.1329
-44.8534
-43.7104
-42.3722
-41.1329
-39.0532
-30.7505
-12.6113
-5.93052
-5.44303
-5.46084
-5.39073
-5.31988
-5.2572
-5.19229
-5.11925
-5.0596
-4.88283
-3.07847
19.6824
34.6597
10.4477
2.40895
2.67377
2.7415
2.55012
2.26553
1.89629
1.49518
1.3437
1.26897
1.03078
0.723019
0.322526
-0.142395
-0.982421
6.52144
38.9178
21.8399
-19.0844
-40.6242
-44.7421
-43.7833
-42.9648
-42.0756
-42.8348
-35.5917
-11.654
-5.85318
-5.47761
-5.47902
-5.41136
-5.3373
-5.27312
-5.21102
-5.14971
-5.10262
-4.90746
-3.88024
9.11051
12.4396
3.28143
1.8352
2.18535
2.20532
2.06127
1.85835
1.58107
1.26132
1.07007
1.02697
0.87632
0.642393
0.35833
0.0454264
-0.829567
-3.47682
41.6163
32.6269
-6.92127
-38.7888
-44.5449
-44.3098
-43.5999
-43.006
-45.9364
-36.2969
-10.9297
-5.84069
-5.51085
-5.4891
-5.41928
-5.34329
-5.27971
-5.22211
-5.16861
-5.12579
-4.95863
-4.29366
1.53627
-1.8232
0.0356281
1.57435
1.83162
1.76477
1.64042
1.48322
1.28103
1.06464
0.938033
0.874769
0.763653
0.623115
0.487472
0.0507098
-0.598814
-2.49119
41.2342
40.535
7.90776
-34.7378
-43.8642
-44.7518
-44.0686
-44.5394
-49.6209
-34.7145
-10.2759
-5.86942
-5.5382
-5.49036
-5.414
-5.33652
-5.27517
-5.22362
-5.17646
-5.12992
-5.018
-4.8628
-7.85327
-7.44551
-2.15992
1.33759
1.48106
1.36868
1.27269
1.16593
1.03136
0.886543
0.789208
0.721231
0.644504
0.607741
0.654374
0.216037
-0.34103
-2.522
37.8624
42.4277
25.6943
-27.6172
-42.4938
-45.1958
-44.5876
-47.4475
-56.2542
-32.942
-9.27966
-5.88998
-5.55252
-5.47536
-5.39125
-5.31463
-5.25796
-5.2142
-5.17337
-5.12259
-5.0942
-5.66981
-13.207
-11.7034
-2.68921
0.673481
1.05652
0.988563
0.931371
0.869709
0.782253
0.683159
0.601305
0.535067
0.482292
0.505238
0.475411
0.142606
-0.141741
-1.90528
31.4529
35.4031
32.2872
-12.0826
-39.2557
-45.3321
-46.4215
-53.1204
-66.1657
-28.5786
-7.90954
-5.85512
-5.53898
-5.43464
-5.34517
-5.27468
-5.22671
-5.19274
-5.158
-5.10136
-5.16876
-7.52066
-19.8137
-14.8624
-1.6193
-0.142225
0.602615
0.631619
0.613971
0.584973
0.525222
0.451444
0.380104
0.313817
0.274448
0.363572
0.0107384
-0.664527
-0.598587
-1.16759
21.4569
21.8846
22.7052
4.12285
-29.2455
-45.3085
-54.9042
-75.9244
-70.3684
-21.9996
-6.53568
-5.61742
-5.4634
-5.35817
-5.2713
-5.21517
-5.18127
-5.15893
-5.13047
-5.07741
-5.27698
-10.6378
-26.6201
-14.1286
-0.752735
-0.320596
0.246195
0.32184
0.331192
0.319374
0.276157
0.212207
0.140796
0.0580075
-0.00831262
0.0949874
-0.399256
-1.25202
-1.03147
-0.897294
8.29117
5.39019
1.25476
-10.1112
-34.9678
-58.8888
-86.6634
-96.8841
-58.8117
-13.8315
-5.67229
-5.2186
-5.3101
-5.23951
-5.17219
-5.14082
-5.12581
-5.11278
-5.08301
-5.06286
-5.53222
-15.339
-30.1883
-11.4976
-0.351824
-0.217567
0.0210977
0.0684331
0.0818864
0.0758395
0.041821
-0.0195402
-0.103174
-0.220695
-0.361971
-0.466079
-0.712182
-1.09387
-0.962889
-0.842237
-1.72632
-10.7651
-19.8118
-32.6709
-54.8161
-80.547
-100.713
-84.0006
-36.6128
-7.54674
-5.41988
-5.02506
-5.10799
-5.08156
-5.05846
-5.06291
-5.07015
-5.05709
-5.00222
-5.02184
-5.75438
-22.8349
-29.2324
-7.85768
-0.302276
-0.20085
-0.163863
-0.157962
-0.146962
-0.14926
-0.177495
-0.237297
-0.333657
-0.481942
-0.707865
-1.05704
-1.1042
-0.812684
-0.797327
-0.769478
1.95916
-22.1593
-35.4994
-47.7588
-63.5631
-78.0774
-78.8282
-52.0399
-14.4148
-4.24996
-4.47042
-4.80911
-4.89471
-4.90027
-4.93343
-4.96682
-4.99845
-4.99776
-4.90045
-4.96439
-10.9062
-30.8102
-24.7184
-4.70228
-0.666891
-0.389948
-0.389354
-0.385194
-0.365202
-0.358612
-0.378709
-0.432355
-0.526877
-0.676116
-0.912151
-1.27313
-1.31697
-0.939783
-0.775587
-0.73336
27.2622
-13.618
-37.602
-50.0611
-58.6618
-60.8474
-47.3744
-18.7427
-2.93701
-3.60609
-4.02445
-4.44389
-4.60279
-4.67862
-4.74113
-4.81452
-4.89468
-4.89964
-4.82567
-5.41505
-18.3557
-34.1885
-17.1213
-2.35052
-1.18681
-0.693864
-0.638616
-0.607989
-0.570562
-0.550801
-0.55868
-0.599426
-0.677304
-0.798165
-0.971942
-1.19225
-1.23517
-1.04902
-0.8616
-0.775592
49.5753
21.0499
-8.02709
-24.3959
-30.3204
-26.3464
-12.7756
-2.35054
-2.08763
-2.82818
-3.56267
-3.98553
-4.20039
-4.33135
-4.44692
-4.57841
-4.67557
-4.64061
-4.66342
-5.78021
-28.6598
-30.7128
-9.70319
-1.34178
-1.2592
-0.972375
-0.87535
-0.810692
-0.756566
-0.723988
-0.718333
-0.742929
-0.799307
-0.887027
-1.00081
-1.12005
-1.14653
-1.05434
-0.921571
-0.833717
52.6087
37.3068
18.1691
5.71983
-2.02229
-3.25527
-1.82086
-1.21463
-1.57425
-2.15746
-2.78409
-3.26258
-3.63629
-3.85928
-4.04645
-4.29032
-4.39192
-4.28967
-4.62347
-14.5098
-37.2491
-20.982
-3.87113
-1.83484
-1.33997
-1.15429
-1.06496
-0.986382
-0.921712
-0.878967
-0.861253
-0.870526
-0.907113
-0.967638
-1.04239
-1.11019
-1.12364
-1.06663
-0.971318
-0.889953
47.777
37.2835
23.8226
14.6007
6.1603
3.45698
1.70882
0.303485
-0.6508
-1.36954
-1.90592
-2.43294
-2.97768
-3.33453
-3.63979
-3.95055
-4.02235
-4.31478
-6.88367
-29.8363
-33.4676
-10.8314
-2.51698
-1.90847
-1.54822
-1.33977
-1.22628
-1.13923
-1.06902
-1.01891
-0.991254
-0.987548
-1.00747
-1.04681
-1.09533
-1.13613
-1.14222
-1.10171
-1.02524
-0.947994
42.6364
28.7947
21.3007
14.1722
8.03125
5.31373
3.34855
1.54656
0.155916
-0.841183
-1.52759
-2.14005
-2.67907
-2.9436
-3.16717
-3.62912
-4.02955
-5.21488
-24.94
-37.1933
-17.4233
-3.76991
-2.33149
-1.83698
-1.6068
-1.4398
-1.34392
-1.26814
-1.20009
-1.14645
-1.11143
-1.09731
-1.10367
-1.12646
-1.15634
-1.18006
-1.18077
-1.14788
-1.0811
-1.00892
7.66748
20.4576
22.5551
9.53229
7.03137
5.51401
3.65313
1.88307
0.453956
-0.637898
-1.50147
-2.26018
-2.78011
-2.83693
-3.18836
-4.94932
-7.22969
-25.7798
-37.3391
-22.5699
-4.34745
-2.35615
-2.0582
-1.86191
-1.6699
-1.53174
-1.44859
-1.38566
-1.32083
-1.26495
-1.22449
-1.20225
-1.1979
-1.20775
-1.22384
-1.23574
-1.23181
-1.20227
-1.1421
-1.07643
-11.6667
-10.3422
-2.93965
0.239445
7.35397
5.13964
2.61296
0.901329
-0.386819
-1.3735
-2.18092
-3.25353
-4.41192
-4.83451
-7.31049
-14.5723
-31.6643
-37.8746
-21.1934
-4.55877
-2.41287
-2.1831
-2.10905
-1.97005
-1.79566
-1.66194
-1.56939
-1.50384
-1.43696
-1.37783
-1.33283
-1.30429
-1.29166
-1.29155
-1.29739
-1.30083
-1.29313
-1.2653
-1.21108
-1.15299
-3.6359
-7.82858
-13.1104
-17.8931
-15.1457
-13.7018
-7.68429
-5.92838
-5.77373
-5.69395
-7.24308
-10.3617
-12.5157
-19.9645
-29.5341
-35.8174
-29.9072
-14.0069
-4.0438
-2.6495
-2.33869
-2.32778
-2.26745
-2.10865
-1.93873
-1.79735
-1.69599
-1.62117
-1.54964
-1.48707
-1.43826
-1.40485
-1.38595
-1.37829
-1.37662
-1.3741
-1.36361
-1.33709
-1.2889
-1.23901
-2.44758
-2.71498
-3.63908
-7.30429
-13.2862
-18.0802
-22.6037
-24.1176
-25.6964
-27.3563
-28.3285
-29.6934
-31.4715
-31.3865
-23.5411
-14.5572
-5.78972
-2.91123
-2.58886
-2.62095
-2.54946
-2.48434
-2.36545
-2.19697
-2.04926
-1.91636
-1.81634
-1.73391
-1.65851
-1.59363
-1.54207
-1.50483
-1.48099
-1.46769
-1.46083
-1.45456
-1.44231
-1.41719
-1.37516
-1.33355
-2.49031
-2.47757
-2.60827
-2.87807
-3.73863
-4.51951
-6.34038
-8.76291
-10.8868
-12.7493
-13.803
-13.2702
-11.8807
-8.03609
-4.77259
-3.38513
-2.89874
-2.55302
-2.5877
-2.70147
-2.62971
-2.52188
-2.39827
-2.26779
-2.14214
-2.02325
-1.92667
-1.84078
-1.76386
-1.69804
-1.64462
-1.60422
-1.57613
-1.55869
-1.54936
-1.54203
-1.52882
-1.50477
-1.46876
-1.43492
-2.6112
-2.64342
-2.6839
-2.70166
-2.87004
-3.05765
-3.31309
-3.66481
-3.83168
-3.86944
-3.84294
-3.89595
-3.75268
-3.24592
-3.03641
-2.90206
-2.81347
-2.74782
-2.74852
-2.75102
-2.65346
-2.55093
-2.45129
-2.34618
-2.23225
-2.12459
-2.02831
-1.94194
-1.86586
-1.80039
-1.7457
-1.70271
-1.67152
-1.65237
-1.64426
-1.63768
-1.62251
-1.59881
-1.56835
-1.54129
-2.67637
-2.73457
-2.79865
-2.85385
-2.94221
-2.98951
-2.95004
-2.98852
-3.02753
-3.04912
-3.06783
-3.10141
-3.08547
-3.00024
-3.02593
-3.01088
-2.95258
-2.89666
-2.8575
-2.79478
-2.70513
-2.61643
-2.52897
-2.42834
-2.31992
-2.21673
-2.1223
-2.03827
-1.96523
-1.90195
-1.84806
-1.80595
-1.77674
-1.75899
-1.74935
-1.73878
-1.72018
-1.69774
-1.67229
-1.65073
)
;

boundaryField
{
    leftWall
    {
        type            calculated;
        value           nonuniform 0();
    }
    rightWall
    {
        type            calculated;
        value           nonuniform List<scalar> 
43
(
667.099
621.029
568.447
515.59
463.221
413.285
365.49
320.876
288.645
254.961
223.077
193.096
175.755
161.697
142.22
111.479
125.92
89.6196
64.7924
48.4923
29.4578
6.52144
-3.47682
-2.49119
-2.522
-1.90528
-1.16759
-0.897294
-0.842237
-0.769478
-0.73336
-0.775592
-0.833717
-0.889953
-0.947994
-1.00892
-1.07643
-1.15299
-1.23901
-1.33355
-1.43492
-1.54129
-1.65073
)
;
    }
    lowerWall
    {
        type            calculated;
        value           nonuniform List<scalar> 
66
(
737.064
733.891
710.348
661.599
612.23
562.253
511.952
461.351
410.092
357.958
308.069
265.48
46.8971
-21.0513
-3.44418
-116.785
1629.41
1581.17
1570.54
1592.58
1596.67
1563.14
1480.4
1340.87
1130.4
824.699
1651.73
1591.65
1575.43
1543.66
1461.7
1342.79
1205.97
1074.14
962.787
877.616
818.05
781.163
762.875
761.162
770.222
786.031
805.287
825.028
843.177
858.796
872.057
883.76
894.417
903.615
910.153
912.505
909.191
899.586
884.654
865.883
843.813
818.328
789.808
759.193
728.211
700.357
681.139
674.092
679.048
690.576
)
;
    }
    atmosphere
    {
        type            calculated;
        value           nonuniform 0();
    }
    defaultFaces
    {
        type            empty;
    }
    procBoundary1to0
    {
        type            processor;
        value           nonuniform List<scalar> 
44
(
717.373
666.913
616.796
566.732
515.947
463.779
409.59
352.523
291.213
223.291
148.251
76.7135
20.6468
2.28883
2.92559
2.76507
2.91371
3.1047
3.27079
3.41179
3.61085
3.61085
3.96371
4.71946
6.24008
8.7228
11.8265
14.3605
16.4905
20.2297
20.6353
12.0991
-0.530272
-7.73237
-6.47607
-2.06284
-1.75796
-1.82139
-1.94338
-2.05668
-2.15703
-2.24974
-2.33664
-2.41855
)
;
    }
    procBoundary1to3
    {
        type            processor;
        value           nonuniform List<scalar> 
45
(
-2.52504
-2.55725
-2.59303
-2.63299
-2.67701
-2.72749
-2.78339
-2.84651
-2.91266
-2.99069
-3.04572
-3.05837
-3.0907
-3.12269
-3.14577
-3.16795
-3.17946
-3.1551
-3.11335
-3.10351
-3.06095
-3.0055
-2.96051
-2.92124
-2.84707
-2.76449
-2.68614
-2.59777
-2.50022
-2.40138
-2.30531
-2.21618
-2.1378
-2.07069
-2.01321
-1.96507
-1.92713
-1.89901
-1.87839
-1.85963
-1.84033
-1.81962
-1.79985
-1.77871
-1.76131
)
;
    }
}


// ************************************************************************* //
