/*--------------------------------*- C++ -*----------------------------------*\
| =========                 |                                                 |
| \\      /  F ield         | OpenFOAM: The Open Source CFD Toolbox           |
|  \\    /   O peration     | Version:  5.0                                   |
|   \\  /    A nd           | Web:      www.OpenFOAM.org                      |
|    \\/     M anipulation  |                                                 |
\*---------------------------------------------------------------------------*/
FoamFile
{
    version     2.0;
    format      ascii;
    class       volScalarField;
    location    "0.9";
    object      p_rgh;
}
// * * * * * * * * * * * * * * * * * * * * * * * * * * * * * * * * * * * * * //

dimensions      [1 -1 -2 0 0 0 0];

internalField   nonuniform List<scalar> 
1915
(
737.064
733.891
734.829
732.23
732.599
729.948
729.836
727.058
726.315
723.844
721.759
720.329
715.704
716.158
707.578
711.11
695.859
708.308
671.844
712.806
1651.73
1591.65
1575.43
1543.66
1461.7
1342.79
1205.97
1074.14
962.787
877.616
818.05
781.163
762.875
761.162
770.222
786.031
805.287
825.028
843.177
858.796
872.057
883.76
894.417
903.615
910.153
912.505
909.191
899.586
884.654
865.883
843.813
818.328
789.808
759.193
728.211
700.357
681.139
674.092
679.048
690.576
1651.8
1577.36
1596.6
1571.21
1480.13
1344.21
1194.02
1055.98
942.942
857.947
798.855
761.174
742.339
737.079
741.691
753.453
769.832
787.956
805.706
821.894
836.217
848.916
860.1
869.224
875.289
877.232
873.987
865.01
851.338
834.607
814.968
792.009
766.319
739.013
711.958
687.655
671.26
668.744
677.247
691.659
1688.07
1615.93
1607.16
1554.56
1444.11
1300.44
1154.2
1025.37
919.169
837.429
779.69
740.715
717.535
708.939
709.375
716.959
729.915
745.668
762.249
778.283
793.111
806.649
818.762
828.635
835.116
837.283
834.643
826.545
814.19
799.561
783.003
763.632
742.225
719.946
698.291
678.757
662.882
663.858
672.65
685.655
1757.22
1652.81
1591.93
1500.32
1372.99
1217.53
1058.13
938.008
842.03
767.239
727.638
705.583
684.279
677.915
679.748
684.646
695.274
709.166
724.462
739.582
753.839
767.541
780.923
792.674
801.145
806.232
804.197
792.634
779.505
768.329
759.617
743.926
725.02
706.555
689.273
674.665
657.569
653.66
667.158
667.255
1808.56
1664.63
1554.55
1433.67
1271.8
1114.83
1003.16
899.275
811.375
740.443
683.343
638.438
613.613
647.793
652.818
655.066
665.029
677.962
692.139
705.578
717.84
730.811
746.203
761.482
772.966
781.568
787.574
775.124
733.843
721.582
708.695
708.705
711.154
698.719
683.454
671.582
661.204
639.801
663.704
666.742
1821.79
1643.44
1498.06
1347.99
1165.82
1062.2
958.295
861.256
778.332
709.95
654.34
610.788
613.789
635.104
622.916
625.536
636.361
648.759
661.903
672.651
680.675
691.121
709.309
730.943
747.081
759.306
768.819
775.323
757.218
709.073
687.1
668.121
647.781
675.412
680.065
668.59
658.453
636.339
648.299
672.264
1780.51
1587.25
1423.11
1226.13
1106.66
1003.62
931.752
865.779
801.414
746.277
674.645
592.069
540.826
564.563
574.941
599.622
619.568
630.271
641.926
650.38
653.539
658.342
673.852
699.933
720.612
737.412
750.169
758.027
762.244
763.155
718.541
662.263
622.988
597.573
643.792
665.606
659.805
646.709
632.162
671.554
1690.57
1495.32
1333.74
1154.36
1050.31
1009.57
928.735
844.006
775.703
722.678
683.178
618.928
440.61
388.553
374.949
446.758
528.915
566.701
592.866
585.428
562.227
564.983
635.621
689.106
700.222
715.298
731.993
742.997
748.226
749.702
749.059
743.766
662.383
579.886
552.883
619.286
655.986
657.098
632.761
674.028
1530.64
1365.31
1206.94
1108.57
1027.9
929.062
835.914
764.054
710.128
670.873
644.341
620.74
477.196
376.782
360.84
368.153
380.168
391.22
409.206
417.79
418.124
426.249
448.444
591.451
672.656
706.526
715.434
728.598
737.56
741.747
741.264
737.367
730.364
661.718
534.852
502.969
635.341
660.925
647.333
579.168
1272.03
1194.63
1086.1
1013.91
915.226
816.872
736.87
677.747
638.301
613.617
589.09
582.022
590.836
582.29
454.314
374.049
369.598
390.82
406.581
417.918
427.621
440.561
460.799
465.169
456.26
610.465
710.523
715.758
726.641
735.352
737.328
734.674
729.143
719.719
634.263
485.315
458.659
661.477
687.993
639.793
620.245
595.448
586.675
559.813
446.924
304.873
30.2176
-3.41226
1.34446
-2.37908
2.92033
-0.521602
3.55426
1.2895
3.94861
2.77125
4.19263
3.61807
4.4053
4.12672
4.57602
5.19935
6.2167
8.82361
13.5798
17.5106
20.2085
24.6236
31.3164
38.4189
62.8256
339.662
368.697
369.743
243.968
0.178535
0.11913
0.0668914
-0.0364425
-0.0946401
-0.12773
-0.151614
-0.168864
517.767
449.752
467.395
354.085
494.357
437.908
498.421
562.82
153.673
387.169
547.613
683.189
-38.8565
363.749
575.128
708.776
-5.9493
387.969
612.274
730.316
8.90693
454.379
673.405
773.903
30.5734
543.414
744.969
825.39
64.9376
643.755
814.816
876.132
116.32
751.056
880.099
926.516
183.475
849.989
940.703
977.519
229.255
915.896
997.842
1029.18
239.274
967.671
1053.52
1081.57
219.866
993.002
1108.19
1134.31
149.082
941.306
1161.88
1186.99
66.2181
774.758
1217.18
1240.02
28.7864
595.98
1277.56
1294.34
21.3695
477.261
1329.39
1348.74
27.4097
344.369
1365.93
1398.45
41.0372
181.106
1161.43
1441.71
54.098
67.4586
355.736
1473.35
61.7209
66.8994
66.3444
1049
62.3274
69.9758
72.661
144.853
292.699
68.9912
75.1766
74.9229
394.391
287.501
71.4596
78.2386
393.841
418.14
316.057
72.782
194.665
421.385
432.969
439.036
-0.131814
57.1251
406.593
419.705
0.0961414
-0.205117
-1.24843
141.47
-0.0421057
-0.0845854
-0.147065
-0.409192
-0.132937
-0.178555
-0.192348
-0.215706
-0.167801
-0.219948
-0.269382
-0.311521
-0.188954
-0.234316
-0.285763
-0.340772
-0.203593
-0.243279
-0.288302
-0.33876
896.75
992.337
952.979
884.409
793.045
706.093
640.708
504.925
406.007
388.719
467.516
494.358
519.704
530.8
557.865
598.788
489.558
386.381
387.359
406.981
418.259
430.134
450.799
469.85
457.601
416.376
519.772
708.626
716.875
730.557
736.144
734.283
730.712
724.379
711.523
492.621
325.558
579.42
709.865
717.912
837.907
850.423
832.688
773.281
687.943
607.936
331.278
120.215
77.7569
60.8258
54.43
142.987
355.761
467.404
505.634
525.823
567.911
610.308
442.661
380.308
385.74
419.018
533.51
521.271
429.635
407.152
354.921
464.249
709.471
723.982
733.265
735.382
734.828
731.709
722.224
573.135
298.334
338.014
701.232
736.085
848.373
786.716
759.515
694.398
603.109
295.468
60.7283
56.5182
37.9675
28.9193
25.931
12.2487
-2.29671
111.502
379.32
492.988
517.078
550.522
596.744
606.323
537.472
600.083
676.24
681.702
552.695
374.733
320.769
263.06
417.515
592.664
615.854
717.628
738.142
741.81
736.151
652.835
277.862
207.678
328.151
651.894
821.008
755.064
720.623
650.511
494.295
7.06552
24.1992
98.3726
103.028
102.251
78.5841
1.68771
-2.97195
-3.6004
-3.87025
236.371
480.455
531.992
567.497
606.936
650.339
665.826
649.597
637.335
643.714
590.587
350.767
202.234
136.881
135.09
136.671
392.571
679.438
726.511
741.315
716.543
378.493
209.703
218.851
280.652
798.848
743.922
707.846
602.59
104.045
-13.007
4.79024
92.9135
98.2977
102.21
95.3975
-0.176575
-3.68344
-3.89897
-4.1315
-4.0372
100.377
479.372
573.644
624.364
666.023
546.387
572.686
637.237
623.601
611.861
599.165
334.464
89.1853
36.3384
17.3931
19.065
180.807
328.293
534.854
654.848
474.615
207.018
205.683
173.195
806.77
756.167
719.878
552.563
-21.0372
-19.3156
-19.2746
7.34123
33.0739
23.8356
5.09458
-2.77485
-3.96658
-4.06447
-4.2212
-4.13722
-3.97403
70.7841
509.303
634.849
568.741
304.553
315.473
578.426
638.991
587.3
512.927
500.727
247.876
61.7496
9.3906
5.69974
4.68627
4.62168
45.2642
161.92
226.732
319.085
445.587
492.224
835.143
786.975
745.203
385.155
-23.1904
-20.9485
-22.3704
-22.3589
-16.5168
-6.75836
-3.72022
-3.6496
-3.60045
-3.75849
-4.27781
-4.24483
-4.19608
-4.09714
75.1448
548.342
540.282
305.291
293.791
267.753
298.828
151.005
105.861
200.532
266.545
138.434
5.54277
4.55549
4.16857
3.9749
3.97761
4.16757
6.82894
42.7969
265.493
432.447
873.638
829.612
770.059
202.722
-23.9443
-22.1036
-23.0783
7.69472
50.2908
100.772
12.6291
-3.88058
-3.71627
-3.77832
-4.32074
-4.30085
-4.2523
-4.24607
-4.76078
94.8584
568.862
671.954
409.06
181.542
101.831
33.6242
9.15344
4.93634
79.2571
45.7509
3.21259
4.83999
4.3063
4.15397
4.1131
4.02955
5.04168
10.166
30.8898
90.4608
919.225
880.059
773.182
91.5122
-25.0982
-2.47596
59.7955
88.9768
283.179
296.384
114.968
-4.61591
-4.22539
-3.87213
-4.34836
-4.31447
-4.27877
-4.23296
-4.32743
5.94359
544.287
664.275
727.818
330.515
66.5199
19.3649
7.78857
6.11305
5.3849
2.20572
4.41126
6.22761
4.13602
4.01373
3.74117
3.21376
3.24511
5.39866
17.4731
65.6098
970.652
936.407
766.343
2.41173
-24.7099
16.5821
18.4558
25.5472
273.831
352.61
178.99
-5.14927
-4.4242
-4.41973
-4.35469
-4.30966
-4.26267
-4.2
-4.0974
-3.14122
64.5347
692.353
727.129
725.519
146.547
10.4581
5.88323
5.23464
4.37255
3.54021
6.02052
6.28588
3.729
3.19649
2.96656
2.33304
1.86952
1.32077
11.6233
267.295
1026.21
996.847
744.72
-25.5837
-26.808
-11.8103
-27.2108
-23.1213
74.115
392.967
184.357
-4.97857
-4.41772
-4.4211
-4.36088
-4.29495
-4.23721
-4.17074
-4.0738
-3.97477
-3.96531
577.603
761.076
779.15
192.155
5.45804
4.53572
4.425
4.03322
3.54285
5.04907
5.88773
3.9686
2.65149
2.27939
1.92331
1.45228
0.753186
4.8752
895.326
1083.97
1060.11
669.848
-23.6384
-26.4521
-26.4107
-25.5729
-23.757
3.80868
411.42
162.85
-4.8795
-4.39316
-4.411
-4.34091
-4.27007
-4.20739
-4.14248
-4.06943
-4.00978
-3.83302
109.474
784.895
797.86
169.48
3.59725
3.74558
3.79493
3.60191
3.3158
3.351
4.81717
3.45721
2.32025
2.08066
1.77287
1.3724
0.907591
0.0854591
940.35
1141.97
1123.53
703.017
-14.6592
-25.9087
-25.5476
-24.7468
-23.5589
21.9738
479.657
163.855
-4.72197
-4.37388
-4.37588
-4.30823
-4.23418
-4.17
-4.1079
-4.04659
-3.9995
-3.80434
31.1665
769.455
673.26
99.9762
3.01163
3.30366
3.31034
3.16505
2.9617
2.68468
2.48083
2.3613
2.13094
1.97948
1.74555
1.4614
1.14922
0.333332
384.173
1198.48
1185.53
843.653
14.6299
-25.0687
-25.1076
-24.2249
-23.8372
106.881
600.564
176.674
-4.59849
-4.35101
-4.33189
-4.26232
-4.18637
-4.12279
-4.06519
-4.01169
-3.96887
-3.8017
31.571
764.113
581.44
86.8902
2.84562
3.00452
2.92295
2.79757
2.64027
2.43819
2.22665
2.09604
2.03252
1.92061
1.78007
1.64375
1.20417
0.69356
35.8326
1252.39
1247.24
1101.26
42.9445
-23.6064
-24.5313
-24.3777
-24.271
306.436
713.567
185.388
-4.47548
-4.31538
-4.27767
-4.20261
-4.12528
-4.06394
-4.0124
-3.96524
-3.9187
-3.80676
27.2574
722.084
701.25
125.334
2.71794
2.71266
2.58109
2.48405
2.37722
2.30617
2.1786
2.02672
1.93579
1.85574
1.819
1.86526
2.17717
1.29875
10.4157
1303.75
1305.94
1287.42
160.719
-21.3915
-24.1564
-23.4581
-26.2148
625.008
796.084
176.797
-4.30982
-4.25355
-4.20547
-4.12473
-4.04853
-3.99192
-3.94817
-3.90734
-3.85656
-3.82809
38.2624
720.082
715.249
130.531
2.1011
2.34024
2.25546
2.19747
2.13576
2.14924
2.0731
1.98943
1.80757
1.74834
1.77127
1.74127
8.07407
5.73355
3.99829
1352.71
1356.59
1353.28
805.544
-9.0435
-23.5304
-24.4973
41.0129
982.717
876.221
139.166
-4.06953
-4.15708
-4.10494
-4.02263
-3.95311
-3.90529
-3.87139
-3.83666
-3.78
-3.84696
94.6544
738.9
587.067
36.8119
1.2679
1.9323
1.95334
1.93534
1.90633
1.89244
1.90157
1.81519
1.63913
1.59581
1.68494
1.44951
8.61257
8.67851
1.26717
1398.6
1399.02
1399.73
1374.55
180.073
-21.5008
-31.9116
558.941
1196.44
897.586
97.158
-3.61782
-3.99487
-3.9664
-3.89165
-3.83721
-3.80384
-3.7817
-3.75328
-3.70013
-3.8973
167.161
738.97
392.094
7.74099
1.10303
1.62768
1.69918
1.70837
1.69655
1.65491
1.66304
1.53755
1.43642
1.36888
1.47219
4.30546
8.42982
3.45229
0.948648
1441.77
1438.84
1434.7
1423.13
1045.66
359.808
494.275
1206.99
1263.5
811.299
39.4533
-3.11864
-3.76071
-3.78417
-3.73271
-3.70441
-3.69155
-3.67901
-3.64944
-3.62891
-4.08519
265.479
741.258
275.773
2.46246
1.23074
1.45802
1.50206
1.5154
1.50936
1.47534
1.41544
1.33054
1.21302
1.07155
0.967461
9.10095
8.95653
0.874979
0.711213
1488.59
1479.52
1470.43
1457.63
1432.09
1308.76
1340.35
1369.11
1333.2
509.354
1.52524
-2.86944
-3.48398
-3.55455
-3.55027
-3.56632
-3.57702
-3.56497
-3.51133
-3.52976
-0.268253
379.919
711.5
168.945
2.18988
1.31404
1.32924
1.33249
1.34342
1.34112
1.31289
1.25323
1.15678
1.00847
0.782528
0.433358
7.29545
9.45519
1.67111
0.742259
1548.47
1525.47
1512.01
1499.61
1483.01
1462.96
1444.61
1458.48
1097.41
146.925
-0.338472
-2.74339
-3.19802
-3.28179
-3.34743
-3.40231
-3.43085
-3.42591
-3.34683
-3.39901
230.017
455.539
445.751
84.7745
1.48696
1.19173
1.15996
1.16262
1.18258
1.18917
1.16907
1.11545
1.02093
0.871686
0.63564
0.274663
0.86977
2.7649
1.36728
0.821714
999.355
1545.31
1567.67
1554.4
1544.71
1540.2
1547.86
1320.6
404.518
5.1246
-0.925792
-2.37677
-2.75572
-2.91681
-2.99542
-2.02132
-1.17147
-2.64697
-3.18887
-3.6614
381.758
470.364
384.577
28.3009
0.698103
0.924479
0.967611
0.99773
1.03515
1.05491
1.04703
1.00629
0.928409
0.807578
0.633779
0.413507
0.370544
0.556695
0.751486
0.838645
132.833
596.409
1093.98
1444.95
1488.6
1406.3
1090.86
436.667
31.8902
1.4141
-0.799706
-1.6199
-2.06026
-2.26358
0.151571
1.73955
1.51794
-1.83098
-2.85893
-3.4755
461.144
492.212
221.37
2.47537
0.466876
0.694921
0.788927
0.853486
0.907611
0.940189
0.945844
0.921248
0.864871
0.777182
0.663387
0.54431
0.517675
0.609844
0.742609
0.831084
73.3336
57.8738
122.254
335.4
426.368
335.885
141.92
21.3706
6.15618
0.269907
0.254355
-0.0393697
0.6266
2.66995
2.47533
2.24447
1.0501
-1.30401
-2.33873
265.335
480.524
518.936
76.6806
0.507546
0.395876
0.569566
0.658245
0.736809
0.801474
0.84422
0.861934
0.852661
0.816075
0.755569
0.680803
0.613165
0.599584
0.656561
0.751872
0.833345
63.2983
46.5935
30.9102
23.7736
15.6527
10.451
6.27959
4.37509
2.13147
0.579129
1.46642
4.19927
3.75736
3.40783
3.10007
2.6691
0.208228
-0.916779
-1.36209
437.136
480.892
103.602
0.303019
-0.059156
0.234463
0.443023
0.556464
0.643515
0.71372
0.763832
0.791492
0.795197
0.775277
0.735941
0.687421
0.646615
0.640525
0.68104
0.757505
0.834854
81.746
37.1123
24.5619
17.6954
10.9201
7.86766
5.78456
3.99651
2.28614
1.09245
0.381874
0.889997
4.06062
4.01853
2.41996
0.538094
0.449352
0.543325
291.151
433.076
334.354
18.0021
0.00380729
0.18723
0.405061
0.415184
0.498942
0.574722
0.642761
0.696412
0.731427
0.74555
0.739188
0.716407
0.686521
0.662795
0.662093
0.694977
0.761781
0.833952
441.075
258.044
25.9279
12.2569
9.07311
7.5177
5.62815
3.84659
2.40875
1.3148
0.451086
-0.299483
-0.665452
-0.597749
-0.867225
-1.78717
1.17428
294.931
367.966
370.868
46.2284
0.994425
0.926569
1.20225
1.1279
0.394212
0.454938
0.517868
0.5827
0.638582
0.679033
0.70128
0.705635
0.695786
0.679688
0.667789
0.671716
0.701264
0.761654
0.827108
440.296
441.915
449.297
247.039
9.43039
7.17946
4.63556
2.91823
1.6287
0.641811
-0.165464
-1.23807
-2.27064
-2.46655
31.6541
89.4193
380.179
366.315
362.858
34.8293
0.359477
0.773032
1.38351
1.59878
1.39249
0.302821
0.395365
0.460916
0.527801
0.58693
0.631934
0.660473
0.6731
0.673211
0.667371
0.663929
0.671636
0.699934
0.754046
0.811778
-1.6103
122.818
429.534
443.507
442.571
347.042
115.483
72.9427
63.3964
45.39
59.099
92.0061
71.2975
182.072
445.234
424.851
427.487
293.355
-1.52136
-0.128964
0.217865
0.680572
1.16347
1.58151
1.18662
0.229212
0.33057
0.405393
0.476927
0.539493
0.588301
0.621712
0.640619
0.648271
0.649949
0.652464
0.662972
0.690653
0.737829
0.787554
-0.358648
-0.62642
-1.55037
83.0591
250.921
235.034
469.65
505.915
506.281
505.196
504.223
502.858
500.074
496.284
475.804
325.8
6.69127
-0.777146
-0.371908
-0.123381
0.0931445
1.32403
1.44744
1.61549
0.554744
0.172581
0.272594
0.355024
0.430428
0.495312
0.546874
0.584108
0.607953
0.621252
0.628116
0.634402
0.647033
0.673075
0.713837
0.755388
-0.338417
-0.325684
-0.456376
-0.726183
-1.58673
-1.0317
32.3754
87.1662
142.404
215.361
303.533
314.137
251.913
49.6183
-2.60822
-1.21828
-0.727831
-0.316106
-0.328481
0.46115
1.29853
1.40676
1.52997
1.21447
0.00974241
0.128645
0.225218
0.311116
0.388036
0.453851
0.507269
0.547678
0.575763
0.593208
0.602597
0.610123
0.632366
0.648296
0.68313
0.716967
-0.395774
-0.427986
-0.468472
-0.486233
-0.654614
-0.842225
-1.09766
-1.44938
-1.61625
-1.65401
-1.62751
-1.68028
-1.53327
-1.02148
-0.809902
-0.67376
-0.582612
-0.441367
0.706244
1.27844
1.38737
1.49394
0.83157
-0.130118
-0.0168238
0.090835
0.187118
0.273493
0.349575
0.415037
0.469732
0.512726
0.543911
0.563232
0.572826
0.611408
0.606509
0.616655
0.647082
0.674144
-0.396814
-0.455015
-0.519093
-0.574295
-0.662646
-0.709947
-0.670488
-0.708962
-0.747977
-0.769564
-0.788243
-0.658925
-0.661313
-0.652125
-0.673587
-0.641676
-0.502211
-0.425886
0.927953
1.27546
-0.00850339
-0.0930596
-0.201503
-0.14875
-0.0403648
0.0628263
0.15726
0.241286
0.314331
0.377604
0.431502
0.473726
0.520838
0.651952
0.751112
0.670266
0.562789
0.581817
0.607268
0.628831
)
;

boundaryField
{
    leftWall
    {
        type            fixedFluxPressure;
        gradient        nonuniform 0();
        value           nonuniform 0();
    }
    rightWall
    {
        type            fixedFluxPressure;
        gradient        uniform 0;
        value           nonuniform List<scalar> 
43
(
690.576
691.659
685.655
667.255
666.742
672.264
671.554
674.028
579.168
639.793
717.912
736.085
651.894
280.652
173.195
492.224
432.447
90.4608
65.6098
267.295
895.326
940.35
384.173
35.8326
10.4157
3.99829
1.26717
0.948648
0.711213
0.742259
0.821714
0.838645
0.831084
0.833345
0.834854
0.833952
0.827108
0.811778
0.787554
0.755388
0.716967
0.674144
0.628831
)
;
    }
    lowerWall
    {
        type            fixedFluxPressure;
        gradient        uniform 0;
        value           nonuniform List<scalar> 
66
(
737.064
733.891
733.891
732.23
729.948
727.058
723.844
720.329
716.158
711.11
708.308
712.806
517.767
449.752
467.395
354.085
1651.73
1651.8
1688.07
1757.22
1808.56
1821.79
1780.51
1690.57
1530.64
1272.03
1651.73
1591.65
1575.43
1543.66
1461.7
1342.79
1205.97
1074.14
962.787
877.616
818.05
781.163
762.875
761.162
770.222
786.031
805.287
825.028
843.177
858.796
872.057
883.76
894.417
903.615
910.153
912.505
909.191
899.586
884.654
865.883
843.813
818.328
789.808
759.193
728.211
700.357
681.139
674.092
679.048
690.576
)
;
    }
    atmosphere
    {
        type            totalPressure;
        rho             rho;
        psi             none;
        gamma           1;
        p0              nonuniform 0();
        value           nonuniform 0();
    }
    defaultFaces
    {
        type            empty;
    }
    procBoundary1to0
    {
        type            processor;
        value           nonuniform List<scalar> 
44
(
740.855
736.9
734.514
731.536
727.838
722.757
715.655
705.675
691.453
670.616
643.078
619.525
574.309
178.349
3.61645
3.50595
3.7051
3.94725
4.16589
4.36832
4.72238
4.72238
5.25962
6.25275
8.05932
11.005
14.6977
17.5604
20.0973
25.6398
200.562
361.735
358.699
359.187
228.136
0.819615
0.111867
0.0816177
0.021377
-0.0301152
-0.068093
-0.0978499
-0.121213
-0.13899
)
;
    }
    procBoundary1to3
    {
        type            processor;
        value           nonuniform List<scalar> 
45
(
-0.180754
-0.212966
-0.248745
-0.288709
-0.332731
-0.383205
-0.439103
-0.502229
-0.568379
-0.646411
-0.701432
-0.714089
-0.746418
-0.778411
-0.801494
-0.535554
-0.206849
-0.606088
-0.685289
-0.622742
-0.580031
-0.627322
-0.442127
-0.446222
-0.476093
-0.420022
-0.341691
-0.25345
-0.155937
-0.0570994
0.038974
0.128099
0.206485
0.273596
0.333925
0.437566
0.624593
0.782323
0.871817
0.891001
0.615472
0.524678
0.54443
0.565574
0.582974
)
;
    }
}


// ************************************************************************* //
