/*--------------------------------*- C++ -*----------------------------------*\
| =========                 |                                                 |
| \\      /  F ield         | OpenFOAM: The Open Source CFD Toolbox           |
|  \\    /   O peration     | Version:  5.0                                   |
|   \\  /    A nd           | Web:      www.OpenFOAM.org                      |
|    \\/     M anipulation  |                                                 |
\*---------------------------------------------------------------------------*/
FoamFile
{
    version     2.0;
    format      ascii;
    class       surfaceScalarField;
    location    "0.9";
    object      phi;
}
// * * * * * * * * * * * * * * * * * * * * * * * * * * * * * * * * * * * * * //

dimensions      [0 3 -1 0 0 0 0];

internalField   nonuniform List<scalar> 
3731
(
1.80751e-07
-1.29581e-06
1.80752e-07
-1.02445e-06
-2.62008e-06
-8.43698e-07
-1.52739e-06
-4.0112e-06
-2.37109e-06
-1.66219e-06
-5.37917e-06
-4.03327e-06
-1.58731e-06
-6.56828e-06
-5.62058e-06
-1.26528e-06
-7.45979e-06
-6.88587e-06
-5.75833e-07
-7.99897e-06
-7.4617e-06
6.24965e-07
-8.21729e-06
-6.83673e-06
2.35885e-06
-8.13932e-06
-4.47789e-06
5.06643e-06
-8.23928e-06
5.88549e-07
1.38552e-05
-1.38552e-05
1.05893e-05
3.2659e-06
-1.95004e-06
1.25393e-05
-1.81588e-05
1.62087e-05
-3.53067e-05
1.71479e-05
-5.10273e-05
1.57206e-05
-6.37018e-05
1.26745e-05
-7.2904e-05
9.20224e-06
-7.89394e-05
6.03539e-06
-8.24009e-05
3.4615e-06
-8.38662e-05
1.46525e-06
-8.3728e-05
-1.38154e-07
-8.24867e-05
-1.24134e-06
-8.0229e-05
-2.25771e-06
-7.70423e-05
-3.18668e-06
-7.31296e-05
-3.91266e-06
-6.87271e-05
-4.40251e-06
-6.4058e-05
-4.66915e-06
-5.93225e-05
-4.73551e-06
-5.46866e-05
-4.63588e-06
-5.0234e-05
-4.45259e-06
-4.59237e-05
-4.3103e-06
-4.161e-05
-4.31371e-06
-3.71332e-05
-4.47677e-06
-3.23996e-05
-4.73362e-06
-2.74084e-05
-4.99125e-06
-2.22725e-05
-5.1359e-06
-1.72022e-05
-5.07026e-06
-1.23566e-05
-4.84554e-06
-7.70751e-06
-4.64914e-06
-3.17696e-06
-4.53055e-06
1.24048e-06
-4.41744e-06
5.47651e-06
-4.23603e-06
9.34531e-06
-3.8688e-06
1.25471e-05
-3.20177e-06
1.45239e-05
-1.97681e-06
1.45697e-05
-4.58377e-08
1.16454e-05
2.92431e-06
5.98718e-06
5.65823e-06
5.98718e-06
-2.41296e-07
-1.36139e-05
-1.02265e-05
1.32511e-05
-2.60632e-05
2.8376e-05
-4.34508e-05
3.35963e-05
-5.85295e-05
3.22266e-05
-6.96045e-05
2.67956e-05
-7.68172e-05
1.98873e-05
-8.11197e-05
1.35047e-05
-8.34276e-05
8.34334e-06
-8.43838e-05
4.41769e-06
-8.43921e-05
1.47359e-06
-8.37383e-05
-7.92004e-07
-8.23352e-05
-2.64437e-06
-8.01366e-05
-4.45637e-06
-7.72037e-05
-6.1196e-06
-7.36782e-05
-7.43815e-06
-6.97053e-05
-8.37536e-06
-6.5444e-05
-8.93051e-06
-6.10619e-05
-9.11758e-06
-5.67137e-05
-8.98409e-06
-5.24892e-05
-8.67708e-06
-4.83703e-05
-8.42924e-06
-4.42466e-05
-8.43736e-06
-3.99951e-05
-8.72834e-06
-3.55412e-05
-9.18745e-06
-3.08696e-05
-9.66289e-06
-2.605e-05
-9.95548e-06
-2.12427e-05
-9.87757e-06
-1.65931e-05
-9.49518e-06
-1.20969e-05
-9.14527e-06
-7.73205e-06
-8.89543e-06
-3.55003e-06
-8.59945e-06
3.5272e-07
-8.13878e-06
3.85438e-06
-7.37046e-06
6.7434e-06
-6.09079e-06
8.7601e-06
-3.99351e-06
9.52161e-06
-8.07353e-07
8.99757e-06
3.44835e-06
6.28482e-06
8.37098e-06
1.2272e-05
-1.07461e-05
-2.86776e-06
-2.52232e-05
2.77282e-05
-3.99326e-05
4.30854e-05
-5.29078e-05
4.65715e-05
-6.28706e-05
4.21894e-05
-7.00308e-05
3.39558e-05
-7.51855e-05
2.5042e-05
-7.87933e-05
1.71124e-05
-8.11297e-05
1.06798e-05
-8.23609e-05
5.64881e-06
-8.26015e-05
1.71422e-06
-8.20045e-05
-1.38898e-06
-8.06712e-05
-3.97765e-06
-7.86055e-05
-6.52209e-06
-7.59206e-05
-8.80452e-06
-7.27279e-05
-1.06309e-05
-6.91108e-05
-1.19924e-05
-6.51934e-05
-1.28479e-05
-6.11254e-05
-1.31856e-05
-5.70589e-05
-1.30506e-05
-5.30932e-05
-1.26427e-05
-4.92222e-05
-1.23003e-05
-4.53474e-05
-1.23122e-05
-4.13676e-05
-1.27081e-05
-3.72316e-05
-1.33234e-05
-3.29043e-05
-1.39903e-05
-2.83913e-05
-1.44684e-05
-2.37989e-05
-1.447e-05
-1.93029e-05
-1.39911e-05
-1.49416e-05
-1.35066e-05
-1.07371e-05
-1.30999e-05
-6.77408e-06
-1.25624e-05
-3.13354e-06
-1.17793e-05
7.23297e-08
-1.05763e-05
2.70442e-06
-8.72287e-06
4.62418e-06
-5.91328e-06
5.64067e-06
-1.82384e-06
5.70348e-06
3.38554e-06
4.60036e-06
9.4741e-06
1.68724e-05
-1.69914e-05
1.41236e-05
-3.25504e-05
4.32872e-05
-4.52041e-05
5.57391e-05
-5.47871e-05
5.61545e-05
-6.18671e-05
4.92694e-05
-6.74699e-05
3.95586e-05
-7.21843e-05
2.97563e-05
-7.59123e-05
2.08405e-05
-7.84815e-05
1.32491e-05
-7.98975e-05
7.06474e-06
-8.02823e-05
2.09903e-06
-7.97935e-05
-1.87781e-06
-7.85819e-05
-5.18917e-06
-7.66847e-05
-8.41936e-06
-7.42794e-05
-1.12098e-05
-7.13997e-05
-1.35105e-05
-6.80818e-05
-1.53103e-05
-6.44494e-05
-1.64803e-05
-6.06472e-05
-1.69879e-05
-5.68332e-05
-1.68645e-05
-5.31209e-05
-1.6355e-05
-4.95078e-05
-1.59134e-05
-4.5888e-05
-1.5932e-05
-4.2176e-05
-1.64201e-05
-3.83668e-05
-1.71327e-05
-3.44431e-05
-1.79139e-05
-3.03302e-05
-1.85814e-05
-2.59797e-05
-1.88206e-05
-2.1531e-05
-1.84398e-05
-1.71826e-05
-1.7855e-05
-1.30466e-05
-1.72359e-05
-9.2558e-06
-1.63533e-05
-5.85119e-06
-1.51839e-05
-2.88454e-06
-1.3543e-05
-4.62559e-07
-1.11449e-05
1.33696e-06
-7.7128e-06
2.52902e-06
-3.0159e-06
2.95574e-06
2.95883e-06
2.58091e-06
9.84892e-06
1.94533e-05
-1.98537e-05
3.39773e-05
-3.52073e-05
5.86409e-05
-4.62496e-05
6.67813e-05
-5.41312e-05
6.40362e-05
-6.04786e-05
5.56167e-05
-6.60412e-05
4.51213e-05
-7.07531e-05
3.44682e-05
-7.43646e-05
2.4452e-05
-7.6743e-05
1.56274e-05
-7.79057e-05
8.22747e-06
-7.80314e-05
2.22472e-06
-7.74027e-05
-2.50652e-06
-7.61946e-05
-6.39733e-06
-7.45368e-05
-1.00771e-05
-7.24661e-05
-1.32805e-05
-6.98673e-05
-1.61093e-05
-6.67982e-05
-1.83795e-05
-6.34095e-05
-1.98689e-05
-5.98372e-05
-2.05602e-05
-5.62434e-05
-2.04583e-05
-5.27565e-05
-1.98419e-05
-4.93759e-05
-1.9294e-05
-4.59768e-05
-1.93311e-05
-4.24869e-05
-1.991e-05
-3.89638e-05
-2.06559e-05
-3.54346e-05
-2.14431e-05
-3.18596e-05
-2.21564e-05
-2.80331e-05
-2.26471e-05
-2.37678e-05
-2.2705e-05
-1.93521e-05
-2.22707e-05
-1.51073e-05
-2.14808e-05
-1.12918e-05
-2.01688e-05
-7.99871e-06
-1.8477e-05
-5.23291e-06
-1.63088e-05
-3.00204e-06
-1.33757e-05
-1.35807e-06
-9.35677e-06
-1.9107e-07
-4.1829e-06
4.90735e-07
2.27702e-06
6.16304e-07
9.72335e-06
2.00696e-05
-2.07925e-05
5.47698e-05
-3.57518e-05
7.36002e-05
-4.59828e-05
7.70123e-05
-5.36414e-05
7.16948e-05
-6.03146e-05
6.22899e-05
-6.59835e-05
5.07901e-05
-7.04225e-05
3.89072e-05
-7.36394e-05
2.76689e-05
-7.56158e-05
1.76039e-05
-7.64081e-05
9.01977e-06
-7.61927e-05
2.00932e-06
-7.52766e-05
-3.42263e-06
-7.40074e-05
-7.66656e-06
-7.25378e-05
-1.15467e-05
-7.06398e-05
-1.51785e-05
-6.82215e-05
-1.85276e-05
-6.5359e-05
-2.1242e-05
-6.21989e-05
-2.3029e-05
-5.88397e-05
-2.39194e-05
-5.54257e-05
-2.38723e-05
-5.20892e-05
-2.31784e-05
-4.88466e-05
-2.25366e-05
-4.55764e-05
-2.26013e-05
-4.22246e-05
-2.32618e-05
-3.89229e-05
-2.39575e-05
-3.5697e-05
-2.4669e-05
-3.2516e-05
-2.53374e-05
-2.92777e-05
-2.58854e-05
-2.57355e-05
-2.62472e-05
-2.17767e-05
-2.62295e-05
-1.76305e-05
-2.5627e-05
-1.35553e-05
-2.4244e-05
-9.95901e-06
-2.20733e-05
-7.13231e-06
-1.91355e-05
-5.03924e-06
-1.54688e-05
-3.57291e-06
-1.08231e-05
-2.53261e-06
-5.2232e-06
-1.60183e-06
1.34624e-06
-1.10693e-06
9.22845e-06
1.89626e-05
-2.11533e-05
7.59232e-05
-3.58923e-05
8.83391e-05
-4.61051e-05
8.72251e-05
-5.42526e-05
7.98423e-05
-6.10751e-05
6.91125e-05
-6.64266e-05
5.61416e-05
-7.0273e-05
4.27537e-05
-7.28775e-05
3.02734e-05
-7.44216e-05
1.9148e-05
-7.49941e-05
9.59227e-06
-7.4676e-05
1.69118e-06
-7.35982e-05
-4.50039e-06
-7.22077e-05
-9.05711e-06
-7.07041e-05
-1.30503e-05
-6.87798e-05
-1.71028e-05
-6.64859e-05
-2.08215e-05
-6.38456e-05
-2.38823e-05
-6.09437e-05
-2.5931e-05
-5.7823e-05
-2.70401e-05
-5.45533e-05
-2.7142e-05
-5.12173e-05
-2.65144e-05
-4.7874e-05
-2.58799e-05
-4.45473e-05
-2.5928e-05
-4.12356e-05
-2.65735e-05
-3.81234e-05
-2.70696e-05
-3.51885e-05
-2.7604e-05
-3.23594e-05
-2.81664e-05
-2.9551e-05
-2.86938e-05
-2.66634e-05
-2.91347e-05
-2.35585e-05
-2.93344e-05
-2.0147e-05
-2.90385e-05
-1.63429e-05
-2.80481e-05
-1.2422e-05
-2.59942e-05
-9.03484e-06
-2.25226e-05
-6.73339e-06
-1.77703e-05
-5.41151e-06
-1.2145e-05
-4.59439e-06
-6.04032e-06
-3.53922e-06
2.91075e-07
-2.30141e-06
7.99064e-06
1.66612e-05
-2.184e-05
9.77631e-05
-3.65119e-05
0.000103011
-4.69433e-05
9.76565e-05
-5.50844e-05
8.79834e-05
-6.12265e-05
7.52546e-05
-6.56332e-05
6.05483e-05
-6.87956e-05
4.59161e-05
-7.09929e-05
3.24707e-05
-7.23607e-05
2.05158e-05
-7.29904e-05
1.02219e-05
-7.29656e-05
1.66638e-06
-7.22762e-05
-5.18972e-06
-7.0901e-05
-1.04324e-05
-6.90949e-05
-1.48564e-05
-6.70145e-05
-1.91832e-05
-6.48178e-05
-2.30182e-05
-6.23825e-05
-2.63176e-05
-5.97214e-05
-2.8592e-05
-5.68586e-05
-2.99029e-05
-5.36973e-05
-3.03033e-05
-5.01431e-05
-3.00686e-05
-4.63251e-05
-2.96979e-05
-4.26613e-05
-2.95918e-05
-3.93085e-05
-2.99263e-05
-3.64026e-05
-2.99755e-05
-3.382e-05
-3.01867e-05
-3.14335e-05
-3.05529e-05
-2.91306e-05
-3.09967e-05
-2.68033e-05
-3.1462e-05
-2.43611e-05
-3.17766e-05
-2.17212e-05
-3.16784e-05
-1.87918e-05
-3.09775e-05
-1.53607e-05
-2.94254e-05
-1.1531e-05
-2.63523e-05
-8.45602e-06
-2.08452e-05
-6.99318e-06
-1.36078e-05
-6.44934e-06
-6.58416e-06
-5.43192e-06
-7.26345e-07
-3.20166e-06
5.76038e-06
1.34596e-05
-2.34668e-05
0.00012123
-3.75889e-05
0.000117133
-4.74978e-05
0.000107565
-5.45698e-05
9.50553e-05
-5.95553e-05
8.02401e-05
-6.32613e-05
6.42543e-05
-6.60804e-05
4.87352e-05
-6.81278e-05
3.45181e-05
-6.94855e-05
2.18735e-05
-7.02231e-05
1.09596e-05
-7.04482e-05
1.8915e-06
-7.02168e-05
-5.42119e-06
-6.93313e-05
-1.13179e-05
-6.77883e-05
-1.63994e-05
-6.59339e-05
-2.10375e-05
-6.37568e-05
-2.51953e-05
-6.12351e-05
-2.88393e-05
-5.84318e-05
-3.13952e-05
-5.54741e-05
-3.28607e-05
-5.21851e-05
-3.35923e-05
-4.8384e-05
-3.38697e-05
-4.40917e-05
-3.39903e-05
-3.97629e-05
-3.39206e-05
-3.62702e-05
-3.34189e-05
-3.36178e-05
-3.26279e-05
-3.14796e-05
-3.23249e-05
-2.96623e-05
-3.23703e-05
-2.80002e-05
-3.26588e-05
-2.63456e-05
-3.31165e-05
-2.4575e-05
-3.35473e-05
-2.26383e-05
-3.36151e-05
-2.04696e-05
-3.31462e-05
-1.78613e-05
-3.20336e-05
-1.45644e-05
-2.96492e-05
-1.08011e-05
-2.46085e-05
-8.58494e-06
-1.5824e-05
-8.35129e-06
-6.81782e-06
-7.52897e-06
-1.54866e-06
-4.71064e-06
2.94205e-06
8.74894e-06
-2.63289e-05
0.000147559
-3.88209e-05
0.000129625
-4.69867e-05
0.000115731
-5.25615e-05
0.00010063
-5.65854e-05
8.42641e-05
-5.97247e-05
6.73936e-05
-6.21852e-05
5.11957e-05
-6.41554e-05
3.64883e-05
-6.56464e-05
2.33645e-05
-6.65822e-05
1.18954e-05
-6.69726e-05
2.28182e-06
-6.68862e-05
-5.50755e-06
-6.62299e-05
-1.19741e-05
-6.51522e-05
-1.74772e-05
-6.37115e-05
-2.24782e-05
-6.17273e-05
-2.71795e-05
-5.91675e-05
-3.13992e-05
-5.59726e-05
-3.45901e-05
-5.23592e-05
-3.64741e-05
-4.8442e-05
-3.75094e-05
-4.4392e-05
-3.79197e-05
-4.03435e-05
-3.80387e-05
-3.61042e-05
-3.81598e-05
-3.23365e-05
-3.71867e-05
-2.96055e-05
-3.53589e-05
-2.8064e-05
-3.38663e-05
-2.70237e-05
-3.34106e-05
-2.61323e-05
-3.35502e-05
-2.52788e-05
-3.39701e-05
-2.43071e-05
-3.4519e-05
-2.31806e-05
-3.47415e-05
-2.18018e-05
-3.4525e-05
-1.99868e-05
-3.38486e-05
-1.75142e-05
-3.21218e-05
-1.41012e-05
-2.80216e-05
-1.08155e-05
-1.91096e-05
-1.02641e-05
-7.36919e-06
-9.416e-06
-2.39677e-06
-6.39941e-06
-7.45422e-08
2.34952e-06
1.09862e-05
-1.15462e-05
-7.39335e-06
1.89681e-05
1.15458e-05
-1.47274e-05
-1.19452e-05
1.60976e-05
9.8713e-06
-1.75869e-05
-1.50214e-05
1.29475e-05
8.84417e-06
-2.16355e-05
-1.68289e-05
1.06517e-05
2.95733e-05
-4.38378e-05
-1.47294e-05
2.74738e-05
3.87464e-05
-4.91908e-05
2.06622e-05
3.35477e-06
1.99234e-05
-3.96801e-05
4.78463e-05
-7.26063e-06
3.6463e-06
-2.59577e-05
6.55138e-05
-1.40212e-05
-7.32602e-06
-1.41672e-05
7.62619e-05
-1.80742e-05
-1.36529e-05
8.26723e-05
-2.00633e-05
8.6488e-05
-2.05263e-05
8.80021e-05
-2.01733e-05
8.55815e-05
-1.93646e-05
7.47166e-05
-1.78912e-05
5.25196e-05
-1.51837e-05
2.33477e-05
-1.26074e-05
-6.95658e-06
-1.41016e-05
-2.94695e-05
-2.30686e-05
-4.01184e-05
-3.71675e-05
-3.88114e-05
-4.63257e-05
-3.37909e-05
-4.89036e-05
-3.20344e-05
-4.438e-05
-3.09247e-05
-4.24823e-05
-3.04989e-05
-4.05852e-05
-3.0703e-05
-3.87533e-05
-2.58461e-05
-3.73531e-05
-1.61627e-05
-3.05807e-05
-7.10806e-06
-1.6988e-05
-6.51201e-07
-2.16029e-06
4.0447e-06
9.71813e-06
7.49065e-06
1.87379e-05
9.99114e-06
2.53884e-05
3.00874e-05
2.54876e-05
-6.51949e-06
2.68874e-05
-1.3998e-06
2.01808e-05
6.70653e-06
4.89732e-05
-2.87923e-05
1.91097e-05
-9.53164e-06
1.46884e-05
3.02155e-06
-3.38063e-06
2.47756e-05
7.97799e-05
-3.41874e-05
1.14411e-05
-8.02522e-06
1.09684e-06
1.33658e-05
-1.86671e-05
4.45395e-05
9.89309e-05
-3.78181e-05
2.60612e-06
2.03615e-08
-1.09845e-05
2.69564e-05
-2.77398e-05
6.12948e-05
0.000110617
-3.94264e-05
-4.40391e-06
3.1898e-05
-2.0015e-05
4.25675e-05
-3.2807e-05
7.40869e-05
0.000116856
-3.90455e-05
-1.27984e-05
4.80512e-05
-2.59485e-05
5.57176e-05
-3.49797e-05
8.31181e-05
0.000119177
-3.73008e-05
-1.89786e-05
5.97692e-05
-2.91498e-05
6.58887e-05
-3.50304e-05
8.89986e-05
0.000118886
-3.4739e-05
-2.26789e-05
6.84269e-05
-3.01411e-05
7.3351e-05
-3.35848e-05
9.24423e-05
0.00011701
-3.17094e-05
-2.42282e-05
7.45809e-05
-2.95034e-05
7.86262e-05
-3.12164e-05
9.41554e-05
0.000114247
-2.84532e-05
-2.43207e-05
7.88382e-05
-2.7945e-05
8.22505e-05
-2.84622e-05
9.46726e-05
0.000110973
-2.5188e-05
-2.35967e-05
8.19087e-05
-2.60362e-05
8.469e-05
-2.57273e-05
9.43636e-05
0.000107364
-2.21187e-05
-2.24387e-05
8.4174e-05
-2.40627e-05
8.63141e-05
-2.32093e-05
9.35103e-05
0.000103534
-1.93791e-05
-2.1002e-05
8.58114e-05
-2.20876e-05
8.73997e-05
-2.08965e-05
9.23191e-05
9.96014e-05
-1.69639e-05
-1.92147e-05
8.7135e-05
-1.99403e-05
8.81253e-05
-1.85558e-05
9.09346e-05
9.57433e-05
-1.46977e-05
-1.68165e-05
8.87678e-05
-1.72327e-05
8.85414e-05
-1.58059e-05
8.95079e-05
9.2214e-05
-1.22766e-05
-1.35973e-05
8.97577e-05
-1.35859e-05
8.853e-05
-1.23344e-05
8.82563e-05
8.92862e-05
-9.40667e-06
-9.76776e-06
8.54239e-05
-9.0758e-06
8.78381e-05
-8.12781e-06
8.73083e-05
8.70792e-05
-5.92076e-06
-5.73013e-06
6.80854e-05
-4.12357e-06
8.62315e-05
-3.44557e-06
8.66303e-05
8.54182e-05
-1.78456e-06
-3.31386e-06
3.42318e-05
6.36979e-07
8.22807e-05
1.54835e-06
8.5719e-05
8.38507e-05
3.11585e-06
-1.52812e-05
3.1873e-06
5.4045e-06
6.1595e-05
7.42776e-06
8.36957e-05
8.2043e-05
9.23543e-06
-3.06305e-05
-1.50859e-05
1.53526e-06
2.94293e-05
1.4346e-05
7.08849e-05
8.00634e-05
1.63256e-05
-3.69835e-05
-2.24824e-05
-9.01736e-06
1.46317e-06
1.66985e-05
4.5169e-05
7.37227e-05
2.30392e-05
-4.22318e-05
-2.27329e-05
-2.65159e-05
-1.42527e-05
5.38501e-06
1.32682e-05
5.24248e-05
2.66829e-05
-4.05833e-05
-2.27348e-05
-3.82435e-05
-1.65925e-05
-1.66089e-05
-8.36643e-06
1.79583e-05
1.78576e-05
-3.83084e-05
-2.31798e-05
-3.72796e-05
-1.76213e-05
-3.36551e-05
-1.19909e-05
-5.15974e-06
-1.05371e-05
-3.60588e-05
-2.4474e-05
-3.4821e-05
-1.88591e-05
-3.28025e-05
-1.40094e-05
-8.58336e-06
-2.93789e-05
-3.52463e-05
-1.98084e-05
-3.26292e-05
-2.14762e-05
-3.04862e-05
-1.61524e-05
-1.11413e-05
-2.79283e-05
-2.59629e-05
-1.08336e-05
-3.19775e-05
-1.54616e-05
-2.89661e-05
-1.91638e-05
-1.47025e-05
-2.5405e-05
-8.52053e-06
-4.47336e-06
-1.51538e-05
-8.82827e-06
-2.2824e-05
-1.14937e-05
-1.13022e-05
-2.62243e-05
4.82701e-06
4.17773e-07
-7.7169e-07
-3.2296e-06
-6.01794e-06
-6.24743e-06
-8.62534e-06
-8.69477e-06
1.50869e-05
4.06874e-06
1.09205e-05
9.3683e-07
6.71622e-06
-2.04315e-06
-4.74414e-06
2.83502e-06
2.2649e-05
6.80811e-06
1.95378e-05
4.04805e-06
1.62226e-05
1.272e-06
-1.3996e-06
1.28781e-05
2.80384e-05
2.56577e-05
2.30486e-05
2.03347e-05
-3.35586e-05
0.000152325
-4.09743e-05
0.000137041
-4.64448e-05
0.000121202
-5.03836e-05
0.000104569
-5.33978e-05
8.72782e-05
-5.57876e-05
6.97834e-05
-5.78152e-05
5.32233e-05
-5.98764e-05
3.85495e-05
-6.17537e-05
2.52418e-05
-6.31113e-05
1.32529e-05
-6.38192e-05
2.98979e-06
-6.38983e-05
-5.42851e-06
-6.32685e-05
-1.2604e-05
-6.22521e-05
-1.84936e-05
-6.08665e-05
-2.38638e-05
-5.91236e-05
-2.89224e-05
-5.68355e-05
-3.36873e-05
-5.35639e-05
-3.78618e-05
-4.94547e-05
-4.05833e-05
-4.47583e-05
-4.22058e-05
-4.00071e-05
-4.26709e-05
-3.54543e-05
-4.25916e-05
-3.12243e-05
-4.23899e-05
-2.75103e-05
-4.09007e-05
-2.49796e-05
-3.78896e-05
-2.40032e-05
-3.48427e-05
-2.39021e-05
-3.35116e-05
-2.40035e-05
-3.34488e-05
-2.40628e-05
-3.39108e-05
-2.40228e-05
-3.4559e-05
-2.38618e-05
-3.49025e-05
-2.34646e-05
-3.49222e-05
-2.25582e-05
-3.4755e-05
-2.09637e-05
-3.37164e-05
-1.83835e-05
-3.06018e-05
-1.45114e-05
-2.29818e-05
-1.2151e-05
-9.72957e-06
-1.08038e-05
-3.74398e-06
-7.22094e-06
-3.65739e-06
-4.87141e-06
-3.8612e-05
0.00015675
-4.18211e-05
0.00014025
-4.44743e-05
0.000123855
-4.66437e-05
0.000106738
-4.84542e-05
8.90887e-05
-5.00812e-05
7.14104e-05
-5.18747e-05
5.50168e-05
-5.40062e-05
4.0681e-05
-5.61278e-05
2.73634e-05
-5.78758e-05
1.50009e-05
-5.90422e-05
4.15617e-06
-5.94653e-05
-5.00542e-06
-5.90443e-05
-1.30249e-05
-5.79923e-05
-1.95456e-05
-5.65269e-05
-2.53292e-05
-5.4743e-05
-3.07064e-05
-5.25173e-05
-3.5913e-05
-4.96442e-05
-4.07349e-05
-4.54997e-05
-4.47277e-05
-4.02604e-05
-4.74451e-05
-3.46822e-05
-4.82492e-05
-2.99727e-05
-4.73011e-05
-2.65288e-05
-4.58338e-05
-2.34132e-05
-4.40162e-05
-2.04457e-05
-4.08571e-05
-1.87318e-05
-3.65566e-05
-1.9315e-05
-3.29284e-05
-2.08683e-05
-3.18955e-05
-2.20863e-05
-3.26927e-05
-2.31713e-05
-3.3474e-05
-2.42591e-05
-3.38148e-05
-2.5056e-05
-3.41253e-05
-2.52798e-05
-3.45311e-05
-2.48409e-05
-3.41553e-05
-2.34489e-05
-3.19937e-05
-2.01579e-05
-2.62728e-05
-1.52491e-05
-1.46383e-05
-1.17784e-05
-7.21473e-06
-6.7328e-06
-8.70297e-06
-1.16042e-05
-3.92583e-05
0.00015819
-4.04854e-05
0.000141477
-4.13101e-05
0.00012468
-4.20875e-05
0.000107516
-4.29826e-05
8.99838e-05
-4.49347e-05
7.33625e-05
-4.85437e-05
5.86259e-05
-5.08325e-05
4.29698e-05
-5.1002e-05
2.75329e-05
-4.98347e-05
1.38336e-05
-4.98798e-05
4.20127e-06
-5.33833e-05
-1.50196e-06
-5.45861e-05
-1.18221e-05
-5.30796e-05
-2.1052e-05
-5.14471e-05
-2.69617e-05
-4.96604e-05
-3.2493e-05
-4.74909e-05
-3.80825e-05
-4.47418e-05
-4.34839e-05
-4.1221e-05
-4.82485e-05
-3.68909e-05
-5.17753e-05
-3.18935e-05
-5.32465e-05
-2.75041e-05
-5.16905e-05
-2.4153e-05
-4.91849e-05
-2.11882e-05
-4.69811e-05
-1.79778e-05
-4.40675e-05
-1.47856e-05
-3.97488e-05
-1.37793e-05
-3.39347e-05
-1.616e-05
-2.95148e-05
-1.92425e-05
-2.96102e-05
-2.19411e-05
-3.07755e-05
-2.48748e-05
-3.0881e-05
-2.7053e-05
-3.19471e-05
-2.8467e-05
-3.31172e-05
-2.95509e-05
-3.30714e-05
-3.00471e-05
-3.14975e-05
-2.90134e-05
-2.73065e-05
-2.37366e-05
-1.99152e-05
-1.56187e-05
-1.53326e-05
-5.56777e-06
-1.87539e-05
-1.7172e-05
-3.8252e-05
0.000157016
-3.78146e-05
0.00014104
-3.7432e-05
0.000124297
-3.74565e-05
0.00010754
-3.81248e-05
9.0652e-05
-4.28613e-05
7.8099e-05
-4.6655e-05
6.24196e-05
-4.67707e-05
4.30855e-05
-4.55137e-05
2.6276e-05
-4.36567e-05
1.19766e-05
-4.11984e-05
1.74297e-06
-3.87635e-05
-3.93688e-06
-4.56655e-05
-4.92002e-06
-4.8564e-05
-1.81536e-05
-4.57989e-05
-2.97268e-05
-4.39668e-05
-3.43252e-05
-4.21537e-05
-3.98956e-05
-3.99571e-05
-4.56805e-05
-3.73178e-05
-5.08879e-05
-3.40997e-05
-5.49933e-05
-3.01968e-05
-5.71495e-05
-2.61322e-05
-5.57551e-05
-2.246e-05
-5.2857e-05
-1.92624e-05
-5.01787e-05
-1.63812e-05
-4.69488e-05
-1.34957e-05
-4.26342e-05
-1.03947e-05
-3.70357e-05
-9.44686e-06
-3.04627e-05
-1.35836e-05
-2.54734e-05
-1.93711e-05
-2.4988e-05
-2.56596e-05
-2.45925e-05
-2.9511e-05
-2.80957e-05
-3.20549e-05
-3.05734e-05
-3.50997e-05
-3.00265e-05
-3.81339e-05
-2.84634e-05
-4.0314e-05
-2.51264e-05
-3.83922e-05
-2.1837e-05
-2.80047e-05
-2.57201e-05
-8.42053e-06
-3.83381e-05
-2.55925e-05
-3.63017e-05
0.000154272
-3.46585e-05
0.000139396
-3.36048e-05
0.000123243
-3.35664e-05
0.000107502
-3.6027e-05
9.31127e-05
-4.00387e-05
8.21107e-05
-4.18517e-05
6.42326e-05
-4.13219e-05
4.25557e-05
-4.01944e-05
2.51484e-05
-3.88365e-05
1.06187e-05
-3.76445e-05
5.51019e-07
-3.62232e-05
-5.35819e-06
-3.46554e-05
-6.48782e-06
-3.62236e-05
-1.65854e-05
-3.83664e-05
-2.7584e-05
-3.82248e-05
-3.44668e-05
-3.65343e-05
-4.15861e-05
-3.5155e-05
-4.70598e-05
-3.36441e-05
-5.23988e-05
-3.18214e-05
-5.6816e-05
-2.91042e-05
-5.98666e-05
-2.49716e-05
-5.98876e-05
-2.05488e-05
-5.72799e-05
-1.73483e-05
-5.33791e-05
-1.50342e-05
-4.92629e-05
-1.29869e-05
-4.46816e-05
-1.0958e-05
-3.90646e-05
-7.93806e-06
-3.34826e-05
-5.02876e-06
-2.83827e-05
-9.18616e-06
-2.08306e-05
-2.25512e-05
-1.12275e-05
-3.13904e-05
-1.92564e-05
-3.55682e-05
-2.63956e-05
-4.12848e-05
-2.43099e-05
-4.65857e-05
-2.31625e-05
-5.10972e-05
-2.06149e-05
-5.24436e-05
-2.04906e-05
-4.25996e-05
-3.55642e-05
-1.97444e-05
-6.11932e-05
-4.53369e-05
-3.36549e-05
0.000150626
-3.14277e-05
0.000137169
-3.03092e-05
0.000122125
-3.09209e-05
0.000108114
-3.54888e-05
9.76805e-05
-3.73402e-05
8.39621e-05
-3.73041e-05
6.41965e-05
-3.69909e-05
4.22425e-05
-3.63164e-05
2.44739e-05
-3.48377e-05
9.14002e-06
-3.34165e-05
-8.70134e-07
-3.06232e-05
-8.15154e-06
-2.74309e-05
-9.68008e-06
-2.76124e-05
-1.6404e-05
-2.97082e-05
-2.54882e-05
-3.06009e-05
-3.35741e-05
-3.09908e-05
-4.11962e-05
-3.02551e-05
-4.77955e-05
-2.97479e-05
-5.2906e-05
-2.93362e-05
-5.72278e-05
-2.81673e-05
-6.10355e-05
-2.42155e-05
-6.38394e-05
-1.81224e-05
-6.3373e-05
-1.48525e-05
-5.6649e-05
-1.36702e-05
-5.04452e-05
-1.29274e-05
-4.54244e-05
-1.21328e-05
-3.98592e-05
-1.07347e-05
-3.48808e-05
-8.58398e-06
-3.05334e-05
-5.02559e-06
-2.4389e-05
-6.13233e-06
-1.01207e-05
-2.51669e-05
-2.21758e-07
-3.72072e-05
-1.43553e-05
-4.69656e-05
-1.45516e-05
-5.3539e-05
-1.65891e-05
-5.69454e-05
-1.72084e-05
-5.71175e-05
-2.03184e-05
-4.66001e-05
-4.60816e-05
-2.73864e-05
-8.0407e-05
-7.27233e-05
-3.06234e-05
0.00014651
-2.82792e-05
0.000134825
-2.74353e-05
0.000121281
-2.86953e-05
0.000109374
-3.35147e-05
0.0001025
-3.58513e-05
8.62987e-05
-3.7119e-05
6.54642e-05
-3.69152e-05
4.20387e-05
-3.44428e-05
2.20015e-05
-3.15239e-05
6.22113e-06
-2.69918e-05
-5.40221e-06
-2.23538e-05
-1.27896e-05
-2.08608e-05
-1.11731e-05
-2.09602e-05
-1.63046e-05
-2.23555e-05
-2.40929e-05
-2.33973e-05
-3.25323e-05
-2.41796e-05
-4.04139e-05
-2.48163e-05
-4.71587e-05
-2.4899e-05
-5.28233e-05
-2.49175e-05
-5.72093e-05
-2.41034e-05
-6.18497e-05
-2.12572e-05
-6.66856e-05
-1.59683e-05
-6.86618e-05
-1.00695e-05
-6.25478e-05
-1.01885e-05
-5.03262e-05
-1.21974e-05
-4.34155e-05
-1.34055e-05
-3.8651e-05
-1.30678e-05
-3.52185e-05
-1.22191e-05
-3.13822e-05
-1.13308e-05
-2.52773e-05
-8.48448e-06
-1.29671e-05
-1.76596e-05
8.95339e-06
-3.55693e-05
3.55434e-06
-5.07066e-05
5.85722e-07
-5.80543e-05
-9.24131e-06
-6.24265e-05
-1.28362e-05
-6.23069e-05
-2.04381e-05
-5.3894e-05
-5.44944e-05
-3.13568e-05
-0.000102944
-0.00010408
-2.74197e-05
0.00014222
-2.5179e-05
0.000132584
-2.46746e-05
0.000120776
-2.62199e-05
0.000110919
-2.95387e-05
0.000105819
-3.02979e-05
8.70579e-05
-2.83339e-05
6.35002e-05
-2.48851e-05
3.85898e-05
-2.17122e-05
1.88286e-05
-2.06012e-05
5.11013e-06
-2.00542e-05
-5.94921e-06
-1.69213e-05
-1.59224e-05
-1.61263e-05
-1.1968e-05
-1.59519e-05
-1.6479e-05
-1.63415e-05
-2.37033e-05
-1.64799e-05
-3.23939e-05
-1.63032e-05
-4.05906e-05
-1.59954e-05
-4.74665e-05
-1.78336e-05
-5.09851e-05
-1.84392e-05
-5.66036e-05
-1.73174e-05
-6.29715e-05
-1.52084e-05
-6.87947e-05
-1.04815e-05
-7.33887e-05
1.25571e-06
-7.4285e-05
6.62302e-06
-5.56935e-05
-4.12165e-06
-3.26708e-05
-1.35557e-05
-2.92169e-05
-1.51566e-05
-3.36176e-05
-1.49136e-05
-3.16252e-05
-1.51046e-05
-2.50863e-05
-2.0068e-05
-8.00364e-06
-2.496e-05
1.38455e-05
-4.35756e-05
2.21699e-05
-6.7994e-05
2.50042e-05
-9.5622e-05
1.83866e-05
-0.000117363
8.90454e-06
-0.000121554
-1.62469e-05
-9.37588e-05
-8.22895e-05
-3.54057e-05
-0.000161297
-0.000139486
-2.41073e-05
0.000137875
-2.19331e-05
0.00013041
-2.14637e-05
0.000120307
-2.24459e-05
0.000111901
-2.15422e-05
0.000104915
-1.87774e-05
8.42931e-05
-1.61978e-05
6.09206e-05
-1.3041e-05
3.5433e-05
-1.1394e-05
1.71816e-05
-1.10817e-05
4.79777e-06
-1.20691e-05
-4.96181e-06
-1.30755e-05
-1.4916e-05
-1.26702e-05
-1.23733e-05
-1.21829e-05
-1.69663e-05
-1.17024e-05
-2.41838e-05
-1.12306e-05
-3.28657e-05
-1.06085e-05
-4.12126e-05
-1.00826e-05
-4.79925e-05
-9.47116e-06
-5.15965e-05
-1.07818e-05
-5.5293e-05
-1.02132e-05
-6.35401e-05
-8.4002e-06
-7.06077e-05
-5.18453e-06
-7.66043e-05
1.88758e-06
-8.13571e-05
2.77506e-05
-8.15565e-05
5.14337e-05
-5.63539e-05
3.22846e-05
-1.00678e-05
3.65255e-06
-4.98555e-06
-1.4848e-05
-1.31247e-05
-1.8686e-05
-2.12484e-05
-2.35205e-05
-3.16908e-06
-2.79757e-05
1.83006e-05
-4.31115e-05
3.73057e-05
-6.45724e-05
4.64651e-05
-8.43665e-05
3.81807e-05
-9.75897e-05
2.21278e-05
-9.51733e-05
-1.86633e-05
-7.00131e-05
-0.00010745
-2.44113e-05
-0.000206899
-0.000163897
-2.07194e-05
0.000133406
-1.83874e-05
0.000128078
-1.75302e-05
0.00011945
-1.7176e-05
0.000111547
-1.30856e-05
0.000100825
-9.44427e-06
8.06518e-05
-6.65147e-06
5.81278e-05
-4.16627e-06
3.29478e-05
-3.31551e-06
1.63308e-05
-3.70204e-06
5.1843e-06
-5.48888e-06
-3.17498e-06
-1.00744e-05
-1.03305e-05
-9.6529e-06
-1.27948e-05
-8.75304e-06
-1.78661e-05
-7.69928e-06
-2.52376e-05
-7.00802e-06
-3.3557e-05
-6.54972e-06
-4.16709e-05
-6.06943e-06
-4.84728e-05
-4.84442e-06
-5.28215e-05
-3.59841e-06
-5.6539e-05
-3.59661e-06
-6.35419e-05
-2.34639e-06
-7.18579e-05
-5.49695e-07
-7.8401e-05
1.71146e-06
-8.36183e-05
6.25682e-06
-8.61019e-05
3.08884e-05
-8.09855e-05
3.70099e-05
-1.61893e-05
2.682e-05
5.2044e-06
9.57506e-06
4.12026e-06
-9.61769e-06
-2.05563e-06
-1.856e-05
5.77324e-06
-2.38941e-05
2.36347e-05
-3.22108e-05
4.56224e-05
-4.42784e-05
5.85327e-05
-5.01705e-05
4.40727e-05
-4.43085e-05
1.62658e-05
-2.83284e-05
-3.46435e-05
-1.40423e-05
-0.000121736
-7.1819e-06
-0.000213759
-0.000171079
-1.73677e-05
0.000128655
-1.45874e-05
0.000125298
-1.30797e-05
0.000117942
-1.15489e-05
0.000110016
-6.88677e-06
9.61625e-05
-3.10884e-06
7.68739e-05
-2.56276e-07
5.52753e-05
1.33942e-06
3.13521e-05
2.13013e-06
1.55401e-05
1.3084e-06
6.00602e-06
-7.41929e-07
-1.12464e-06
-5.38791e-06
-5.68452e-06
-6.00855e-06
-1.21741e-05
-4.94957e-06
-1.89251e-05
-3.66093e-06
-2.65262e-05
-2.81135e-06
-3.44066e-05
-2.37857e-06
-4.21037e-05
-1.96435e-06
-4.8887e-05
-5.94958e-07
-5.41909e-05
1.66792e-06
-5.88019e-05
2.49815e-06
-6.43721e-05
3.08758e-06
-7.24473e-05
4.05506e-06
-7.93685e-05
5.15331e-06
-8.47165e-05
7.80687e-06
-8.87555e-05
1.84597e-05
-9.16384e-05
2.90143e-05
-2.67439e-05
2.74201e-05
6.79855e-06
1.48296e-05
1.67108e-05
-3.17616e-06
1.59501e-05
-1.43838e-05
1.69809e-05
-1.95875e-05
2.88384e-05
-2.17727e-05
4.78076e-05
-2.2776e-05
5.9536e-05
-1.95338e-05
4.08305e-05
-7.65246e-06
4.3844e-06
6.29346e-06
-4.85894e-05
1.00245e-05
-0.000125467
-2.10429e-06
-0.000201631
-0.000173183
-1.42187e-05
0.000123495
-1.07173e-05
0.000121797
-8.2002e-06
0.000115425
-5.91451e-06
0.00010773
-2.66263e-06
9.29106e-05
-2.38214e-07
7.44495e-05
1.93308e-06
5.3104e-05
3.87683e-06
2.94084e-05
4.74942e-06
1.46675e-05
4.01068e-06
6.74477e-06
1.94507e-06
9.40971e-07
-1.30615e-06
-2.43331e-06
-2.08018e-06
-1.14001e-05
-7.35097e-07
-2.02702e-05
7.14307e-07
-2.79756e-05
1.74961e-06
-3.54419e-05
2.33867e-06
-4.26928e-05
2.89629e-06
-4.94446e-05
4.10535e-06
-5.54e-05
6.08803e-06
-6.07845e-05
7.5935e-06
-6.58776e-05
8.1389e-06
-7.29927e-05
8.76381e-06
-7.99934e-05
9.43954e-06
-8.53923e-05
1.07914e-05
-9.01073e-05
1.3465e-05
-9.4312e-05
2.13914e-05
-3.46703e-05
2.34663e-05
4.72361e-06
1.71135e-05
2.30636e-05
3.73402e-06
2.93296e-05
-9.05375e-06
2.97686e-05
-1.50996e-05
3.48843e-05
-1.51017e-05
4.78096e-05
-9.00528e-06
5.34395e-05
-6.11636e-07
3.24369e-05
1.09435e-05
-7.17073e-06
2.12609e-05
-5.89068e-05
1.54312e-05
-0.000119637
5.39251e-07
-0.000186739
-0.000172644
-1.13974e-05
0.000117928
-7.0429e-06
0.000117442
-3.46247e-06
0.000111845
-3.61501e-07
0.000104629
1.93069e-06
9.06184e-05
3.73833e-06
7.26419e-05
5.33204e-06
5.15103e-05
7.33868e-06
2.74017e-05
6.95151e-06
1.50547e-05
5.93967e-06
7.7566e-06
4.19643e-06
2.68422e-06
2.35786e-06
-5.94738e-07
2.32761e-06
-1.13698e-05
3.71998e-06
-2.16625e-05
5.44716e-06
-2.97028e-05
6.72067e-06
-3.67154e-05
7.47766e-06
-4.34497e-05
8.09599e-06
-5.00629e-05
9.08631e-06
-5.63903e-05
1.06281e-05
-6.23263e-05
1.20911e-05
-6.73406e-05
1.29916e-05
-7.38932e-05
1.34265e-05
-8.04283e-05
1.37099e-05
-8.56757e-05
1.41019e-05
-9.04993e-05
1.38294e-05
-9.40396e-05
1.79283e-05
-3.87692e-05
2.02614e-05
2.39056e-06
1.75904e-05
2.57345e-05
1.00172e-05
3.69029e-05
-7.32442e-07
4.05182e-05
-8.31438e-06
4.24663e-05
-8.4335e-06
4.79287e-05
-1.16792e-06
4.61739e-05
7.71e-06
2.3559e-05
1.68482e-05
-1.6309e-05
2.37353e-05
-6.57938e-05
1.63353e-05
-0.000112237
6.07612e-07
-0.000171011
-0.000172037
-8.94243e-06
0.000112173
-3.87633e-06
0.000112376
5.52357e-07
0.000107416
4.75826e-06
0.000100424
7.37473e-06
8.8002e-05
8.85126e-06
7.11653e-05
9.60898e-06
5.07525e-05
1.08531e-05
2.61576e-05
9.55457e-06
1.63532e-05
8.25567e-06
9.0555e-06
6.82588e-06
4.11401e-06
5.69974e-06
5.31401e-07
6.45362e-06
-1.21237e-05
8.44448e-06
-2.36534e-05
1.05579e-05
-3.18162e-05
1.20695e-05
-3.8227e-05
1.29301e-05
-4.43103e-05
1.35146e-05
-5.06474e-05
1.42955e-05
-5.71712e-05
1.55357e-05
-6.35664e-05
1.69248e-05
-6.87298e-05
1.76971e-05
-7.46655e-05
1.77787e-05
-8.05099e-05
1.76913e-05
-8.55883e-05
1.72247e-05
-9.00327e-05
1.61732e-05
-9.29881e-05
1.70943e-05
-3.96903e-05
1.78829e-05
1.60195e-06
1.64156e-05
2.72018e-05
1.21908e-05
4.11277e-05
5.67681e-06
4.70322e-05
-5.90811e-07
4.87339e-05
-1.85032e-06
4.91883e-05
2.61178e-06
4.17118e-05
8.80726e-06
1.73635e-05
1.51132e-05
-2.26149e-05
2.16646e-05
-7.23452e-05
2.03509e-05
-0.000110923
3.45338e-07
-0.000151005
-0.000171691
-6.72648e-06
0.000106623
-1.34931e-06
0.000106999
3.59107e-06
0.000102475
9.3359e-06
9.46787e-05
1.27259e-05
8.4612e-05
1.41786e-05
6.97126e-05
1.42898e-05
5.06414e-05
1.38267e-05
2.66208e-05
1.22802e-05
1.78997e-05
1.09042e-05
1.04315e-05
9.75542e-06
5.26283e-06
9.02586e-06
1.26096e-06
1.07455e-05
-1.38433e-05
1.35565e-05
-2.64644e-05
1.61123e-05
-3.4372e-05
1.77751e-05
-3.98898e-05
1.86048e-05
-4.51399e-05
1.90307e-05
-5.10733e-05
1.95177e-05
-5.76582e-05
2.02854e-05
-6.43341e-05
2.12898e-05
-6.97342e-05
2.16603e-05