/*--------------------------------*- C++ -*----------------------------------*\
| =========                 |                                                 |
| \\      /  F ield         | OpenFOAM: The Open Source CFD Toolbox           |
|  \\    /   O peration     | Version:  5.0                                   |
|   \\  /    A nd           | Web:      www.OpenFOAM.org                      |
|    \\/     M anipulation  |                                                 |
\*---------------------------------------------------------------------------*/
FoamFile
{
    version     2.0;
    format      ascii;
    class       surfaceScalarField;
    location    "0.85";
    object      alphaPhi10;
}
// * * * * * * * * * * * * * * * * * * * * * * * * * * * * * * * * * * * * * //

dimensions      [0 3 -1 0 0 0 0];

internalField   nonuniform List<scalar> 
3781
(
-1.86916e-06
1.86916e-06
-3.96166e-06
2.0925e-06
-5.48994e-06
1.52828e-06
-6.48428e-06
9.94349e-07
-7.17198e-06
6.87695e-07
-7.73349e-06
5.61516e-07
-8.27432e-06
5.40826e-07
-8.84249e-06
5.68172e-07
-9.45248e-06
6.09987e-07
-1.01018e-05
6.49326e-07
-1.07803e-05
6.78482e-07
-1.14752e-05
6.94912e-07
-1.2174e-05
6.98824e-07
-1.28657e-05
6.91667e-07
-1.3541e-05
6.75309e-07
-1.41926e-05
6.51564e-07
-1.48146e-05
6.22001e-07
-1.54025e-05
5.87943e-07
-1.5953e-05
5.50523e-07
-1.64637e-05
5.10644e-07
-1.69326e-05
4.68931e-07
-1.73584e-05
4.2576e-07
-1.77397e-05
3.81298e-07
-1.80751e-05
3.35461e-07
-1.8363e-05
2.87885e-07
-1.86009e-05
2.37904e-07
-1.87853e-05
1.84434e-07
-1.89106e-05
1.25264e-07
-1.89662e-05
5.55874e-08
-1.89341e-05
-3.21377e-08
-1.88005e-05
-1.33538e-07
-1.85518e-05
-2.48687e-07
-1.81703e-05
-3.81541e-07
-1.7638e-05
-5.32257e-07
-1.69442e-05
-6.9381e-07
-1.5832e-05
-8.49448e-07
-1.44968e-05
-9.53265e-07
-1.38357e-05
-1.20327e-06
-1.23269e-05
-1.50888e-06
-1.06324e-05
-1.67088e-06
-8.84009e-06
-1.69438e-06
-7.00929e-06
-1.77738e-06
-5.09578e-06
-1.90246e-06
-2.05589e-06
-2.26998e-06
4.13913e-06
-3.83359e-06
3.65611e-06
-4.93253e-06
2.62722e-06
-5.78921e-06
1.85103e-06
-6.54644e-06
1.44493e-06
-7.27602e-06
1.2911e-06
-8.01012e-06
1.27492e-06
-8.76101e-06
1.31907e-06
-9.52983e-06
1.37881e-06
-1.03111e-05
1.43055e-06
-1.10959e-05
1.46332e-06
-1.18745e-05
1.47353e-06
-1.26375e-05
1.46179e-06
-1.33765e-05
1.43064e-06
-1.40845e-05
1.38334e-06
-1.4756e-05
1.32309e-06
-1.53867e-05
1.25269e-06
-1.59733e-05
1.17453e-06
-1.65133e-05
1.09058e-06
-1.7005e-05
1.00233e-06
-1.74468e-05
9.10691e-07
-1.78371e-05
8.161e-07
-1.81744e-05
7.1855e-07
-1.84564e-05
6.17501e-07
-1.86804e-05
5.11871e-07
-1.88426e-05
4.00044e-07
-1.89378e-05
2.79693e-07
-1.89599e-05
1.47387e-07
-1.89028e-05
-1.58294e-09
-1.87625e-05
-1.72418e-07
-1.85275e-05
-3.68475e-07
-1.81828e-05
-5.93431e-07
-1.77145e-05
-8.4981e-07
-1.71099e-05
-1.1369e-06
-1.63557e-05
-1.44805e-06
-1.53321e-05
-1.77091e-06
-1.41334e-05
-2.10368e-06
-1.28826e-05
-2.50151e-06
-1.16214e-05
-2.9115e-06
-9.84385e-06
-3.17541e-06
-8.25358e-06
-3.28804e-06
-6.60904e-06
-3.42532e-06
-4.9729e-06
-3.54199e-06
-3.68674e-06
-2.03826e-06
6.17739e-06
-3.23138e-06
4.84924e-06
-4.20108e-06
3.59692e-06
-5.10247e-06
2.75242e-06
-5.96968e-06
2.31214e-06
-6.8194e-06
2.14081e-06
-7.66114e-06
2.11667e-06
-8.4993e-06
2.15723e-06
-9.33378e-06
2.21329e-06
-1.01612e-05
2.25792e-06
-1.0976e-05
2.27812e-06
-1.17719e-05
2.26952e-06
-1.25428e-05
2.23269e-06
-1.32829e-05
2.17066e-06
-1.39869e-05
2.08741e-06
-1.46508e-05
1.987e-06
-1.52712e-05
1.87307e-06
-1.58454e-05
1.74872e-06
-1.63714e-05
1.61654e-06
-1.68474e-05
1.47838e-06
-1.7272e-05
1.33529e-06
-1.76436e-05
1.18765e-06
-1.79602e-05
1.03518e-06
-1.82196e-05
8.76851e-07
-1.84185e-05
7.10847e-07
-1.85532e-05
5.34709e-07
-1.86186e-05
3.4515e-07
-1.86091e-05
1.37861e-07
-1.85182e-05
-9.24974e-08
-1.83393e-05
-3.51319e-07
-1.80636e-05
-6.44193e-07
-1.76813e-05
-9.75743e-07
-1.71824e-05
-1.34872e-06
-1.65566e-05
-1.76262e-06
-1.57926e-05
-2.21207e-06
-1.48756e-05
-2.68795e-06
-1.37901e-05
-3.18922e-06
-1.25639e-05
-3.72768e-06
-1.12225e-05
-4.25293e-06
-9.65537e-06
-4.66766e-06
-8.02592e-06
-4.92976e-06
-6.39556e-06
-5.05907e-06
-4.88369e-06
-5.17998e-06
-5.33664e-06
-1.70835e-06
7.88574e-06
-2.74725e-06
5.88814e-06
-3.68572e-06
4.53539e-06
-4.63051e-06
3.69721e-06
-5.57672e-06
3.25835e-06
-6.51344e-06
3.07753e-06
-7.43447e-06
3.0377e-06
-8.33676e-06
3.05952e-06
-9.21817e-06
3.09471e-06
-1.00763e-05
3.11601e-06
-1.0908e-05
3.10984e-06
-1.17099e-05
3.07147e-06
-1.24786e-05
3.00134e-06
-1.32104e-05
2.90246e-06
-1.3902e-05
2.77906e-06
-1.45506e-05
2.63558e-06
-1.51536e-05
2.47606e-06
-1.57089e-05
2.30402e-06
-1.62148e-05
2.12248e-06
-1.667e-05
1.9335e-06
-1.70728e-05
1.73809e-06
-1.74216e-05
1.53649e-06
-1.77146e-05
1.3282e-06
-1.79494e-05
1.11163e-06
-1.81229e-05
8.84298e-07
-1.82312e-05
6.43058e-07
-1.82699e-05
3.83893e-07
-1.82338e-05
1.01754e-07
-1.81171e-05
-2.09189e-07
-1.79135e-05
-5.55011e-07
-1.76158e-05
-9.41848e-07
-1.72166e-05
-1.37497e-06
-1.67076e-05
-1.85767e-06
-1.608e-05
-2.39029e-06
-1.53229e-05
-2.96912e-06
-1.44241e-05
-3.58679e-06
-1.33772e-05
-4.23612e-06
-1.21984e-05
-4.90642e-06
-1.09033e-05
-5.54802e-06
-9.48587e-06
-6.08513e-06
-7.9404e-06
-6.47522e-06
-6.3647e-06
-6.71832e-06
-4.79156e-06
-6.83651e-06
-6.8761e-06
-1.37045e-06
9.25619e-06
-2.33976e-06
6.85745e-06
-3.29299e-06
5.48861e-06
-4.28913e-06
4.69336e-06
-5.30489e-06
4.27411e-06
-6.31391e-06
4.08655e-06
-7.29937e-06
4.02316e-06
-8.25274e-06
4.01289e-06
-9.17033e-06
4.0123e-06
-1.00504e-05
3.9961e-06
-1.08918e-05
3.95126e-06
-1.16936e-05
3.87327e-06
-1.24547e-05
3.7624e-06
-1.31735e-05
3.62126e-06
-1.38483e-05
3.45386e-06
-1.44774e-05
3.26468e-06
-1.50591e-05
3.05774e-06
-1.55917e-05
2.8367e-06
-1.60741e-05
2.60485e-06
-1.6505e-05
2.36436e-06
-1.68829e-05
2.11601e-06
-1.72063e-05
1.85992e-06
-1.74735e-05
1.59536e-06
-1.76821e-05
1.32024e-06
-1.78292e-05
1.03145e-06
-1.79115e-05
7.25362e-07
-1.79251e-05
3.97461e-07
-1.78655e-05
4.21259e-08
-1.77277e-05
-3.46902e-07
-1.75067e-05
-7.76104e-07
-1.71965e-05
-1.25199e-06
-1.67911e-05
-1.7804e-06
-1.62832e-05
-2.36553e-06
-1.56644e-05
-3.0091e-06
-1.49241e-05
-3.70938e-06
-1.40507e-05
-4.46023e-06
-1.30363e-05
-5.25057e-06
-1.18843e-05
-6.05843e-06
-1.05994e-05
-6.8329e-06
-9.18334e-06
-7.50115e-06
-7.6575e-06
-8.00106e-06
-6.07621e-06
-8.29961e-06
-4.51222e-06
-8.4005e-06
-8.36908e-06
-1.05169e-06
1.03079e-05
-1.99544e-06
7.8012e-06
-2.99315e-06
6.48632e-06
-4.05222e-06
5.75243e-06
-5.13607e-06
5.35797e-06
-6.2094e-06
5.15989e-06
-7.24905e-06
5.06281e-06
-8.24342e-06
5.00726e-06
-9.18833e-06
4.95721e-06
-1.00829e-05
4.89069e-06
-1.09277e-05
4.79605e-06
-1.1724e-05
4.66961e-06
-1.2473e-05
4.51139e-06
-1.31749e-05
4.32317e-06
-1.38294e-05
4.10835e-06
-1.44359e-05
3.87114e-06
-1.49933e-05
3.61513e-06
-1.55004e-05
3.34382e-06
-1.59564e-05
3.06083e-06
-1.63603e-05
2.76827e-06
-1.67108e-05
2.46652e-06
-1.70064e-05
2.15555e-06
-1.72457e-05
1.83463e-06
-1.74266e-05
1.50113e-06
-1.75465e-05
1.15131e-06
-1.76025e-05
7.81348e-07
-1.75915e-05
3.86489e-07
-1.751e-05
-3.93518e-08
-1.73542e-05
-5.02748e-07
-1.71199e-05
-1.01039e-06
-1.68027e-05
-1.56917e-06
-1.63974e-05
-2.18567e-06
-1.58977e-05
-2.86532e-06
-1.52948e-05
-3.61191e-06
-1.45777e-05
-4.42651e-06
-1.37325e-05
-5.30544e-06
-1.2746e-05
-6.23708e-06
-1.16097e-05
-7.19467e-06
-1.03185e-05
-8.12419e-06
-8.87412e-06
-8.94548e-06
-7.30586e-06
-9.56932e-06
-5.68423e-06
-9.92124e-06
-4.10815e-06
-9.97658e-06
-9.80734e-06
-7.82736e-07
1.10906e-05
-1.72924e-06
8.74771e-06
-2.78645e-06
7.54352e-06
-3.91438e-06
6.88036e-06
-5.06466e-06
6.50825e-06
-6.19584e-06
6.29107e-06
-7.28102e-06
6.14799e-06
-8.3075e-06
6.03373e-06
-9.27153e-06
5.92124e-06
-1.01733e-05
5.79249e-06
-1.10151e-05
5.63785e-06
-1.18007e-05
5.45514e-06
-1.25332e-05
5.24392e-06
-1.32145e-05
5.00443e-06
-1.38453e-05
4.7392e-06
-1.44262e-05
4.45198e-06
-1.49565e-05
4.14543e-06
-1.54353e-05
3.82264e-06
-1.58622e-05
3.48773e-06
-1.62366e-05
3.14271e-06
-1.65573e-05
2.78715e-06
-1.68227e-05
2.42105e-06
-1.70321e-05
2.04395e-06
-1.71835e-05
1.65258e-06
-1.72747e-05
1.24253e-06
-1.73035e-05
8.10158e-07
-1.72678e-05
3.50789e-07
-1.71651e-05
-1.42118e-07
-1.69924e-05
-6.75372e-07
-1.67472e-05
-1.25566e-06
-1.6426e-05
-1.89031e-06
-1.60248e-05
-2.58686e-06
-1.55378e-05
-3.35238e-06
-1.49562e-05
-4.19345e-06
-1.42675e-05
-5.11529e-06
-1.3454e-05
-6.11893e-06
-1.24949e-05
-7.19614e-06
-1.1369e-05
-8.32056e-06
-1.00578e-05
-9.43539e-06
-8.55636e-06
-1.04469e-05
-6.89813e-06
-1.12276e-05
-5.17504e-06
-1.16443e-05
-3.52684e-06
-1.16248e-05
-1.12251e-05
-5.83634e-07
1.16743e-05
-1.54918e-06
9.71325e-06
-2.67081e-06
8.66516e-06
-3.86834e-06
8.07789e-06
-5.08252e-06
7.72243e-06
-6.26609e-06
7.47464e-06
-7.3896e-06
7.2715e-06
-8.44046e-06
7.08459e-06
-9.41603e-06
6.89681e-06
-1.03178e-05
6.69427e-06
-1.11501e-05
6.47011e-06
-1.19193e-05
6.2244e-06
-1.2631e-05
5.95557e-06
-1.32879e-05
5.66131e-06
-1.38918e-05
5.34311e-06
-1.44441e-05
5.00437e-06
-1.49447e-05
4.64594e-06
-1.53924e-05
4.27038e-06
-1.57876e-05
3.88289e-06
-1.61301e-05
3.48522e-06
-1.64183e-05
3.07543e-06
-1.66512e-05
2.65391e-06
-1.68283e-05
2.22108e-06
-1.69485e-05
1.7727e-06
-1.70093e-05
1.30341e-06
-1.70096e-05
8.10391e-07
-1.69483e-05
2.89477e-07
-1.68238e-05
-2.6653e-07
-1.66346e-05
-8.64659e-07
-1.6379e-05
-1.51126e-06
-1.60552e-05
-2.21408e-06
-1.56601e-05
-2.9819e-06
-1.51889e-05
-3.82365e-06
-1.46329e-05
-4.74942e-06
-1.3978e-05
-5.77024e-06
-1.32021e-05
-6.89475e-06
-1.22755e-05
-8.12279e-06
-1.11617e-05
-9.43434e-06
-9.82352e-06
-1.07736e-05
-8.23877e-06
-1.20317e-05
-6.43717e-06
-1.30292e-05
-4.53353e-06
-1.3548e-05
-2.71768e-06
-1.34406e-05
-1.27155e-05
-4.08985e-07
1.20832e-05
-1.42873e-06
1.0733e-05
-2.61937e-06
9.8558e-06
-3.88781e-06
9.34633e-06
-5.16762e-06
9.00224e-06
-6.40354e-06
8.71056e-06
-7.56291e-06
8.43088e-06
-8.63316e-06
8.15484e-06
-9.6136e-06
7.87725e-06
-1.0508e-05
7.58871e-06
-1.13238e-05
7.2859e-06
-1.20714e-05
6.97198e-06
-1.27581e-05
6.64222e-06
-1.33869e-05
6.29019e-06
-1.39607e-05
5.91687e-06
-1.4482e-05
5.52564e-06
-1.49502e-05
5.11416e-06
-1.53642e-05
4.68434e-06
-1.5725e-05
4.24374e-06
-1.60333e-05
3.79352e-06
-1.62868e-05
3.32894e-06
-1.64845e-05
2.85156e-06
-1.66272e-05
2.36379e-06
-1.6714e-05
1.85957e-06
-1.67426e-05
1.33198e-06
-1.67124e-05
7.80207e-07
-1.66241e-05
2.01164e-07
-1.6477e-05
-4.13645e-07
-1.62702e-05
-1.0715e-06
-1.60037e-05
-1.77775e-06
-1.56772e-05
-2.54058e-06
-1.52888e-05
-3.37028e-06
-1.48349e-05
-4.27753e-06
-1.43079e-05
-5.2764e-06
-1.36928e-05
-6.38537e-06
-1.29636e-05
-7.62394e-06
-1.20809e-05
-9.00547e-06
-1.09912e-05
-1.05241e-05
-9.6309e-06
-1.21338e-05
-7.94605e-06
-1.37165e-05
-5.94775e-06
-1.50274e-05
-3.76924e-06
-1.57265e-05
-1.65095e-06
-1.55589e-05
-1.44321e-05
-4.19226e-07
1.25025e-05
-1.39777e-06
1.17115e-05
-2.59869e-06
1.10567e-05
-3.92559e-06
1.06732e-05
-5.27982e-06
1.03565e-05
-6.5819e-06
1.00126e-05
-7.78384e-06
9.63282e-06
-8.87136e-06
9.24236e-06
-9.84999e-06
8.85589e-06
-1.07298e-05
8.46854e-06
-1.15221e-05
8.07817e-06
-1.22442e-05
7.6941e-06
-1.29028e-05
7.30081e-06
-1.35002e-05
6.88758e-06
-1.40405e-05
6.45716e-06
-1.45283e-05
6.01343e-06
-1.4962e-05
5.54786e-06
-1.53395e-05
5.0619e-06
-1.56637e-05
4.56797e-06
-1.5936e-05
4.06582e-06
-1.61526e-05
3.54546e-06
-1.63125e-05
3.01145e-06
-1.64187e-05
2.47007e-06
-1.64707e-05
1.91152e-06
-1.64649e-05
1.32616e-06
-1.64021e-05
7.17488e-07
-1.62852e-05
8.42296e-08
-1.61139e-05
-5.8492e-07
-1.58879e-05
-1.29756e-06
-1.56088e-05
-2.05678e-06
-1.52782e-05
-2.87119e-06
-1.48955e-05
-3.75301e-06
-1.44589e-05
-4.71406e-06
-1.39631e-05
-5.7722e-06
-1.33938e-05
-6.95471e-06
-1.27228e-05
-8.29494e-06
-1.19027e-05
-9.82553e-06
-1.08621e-05
-1.15647e-05
-9.50444e-06
-1.34915e-05
-7.72399e-06
-1.5497e-05
-5.4914e-06
-1.726e-05
-2.9476e-06
-1.82703e-05
-3.4914e-07
-1.81574e-05
-1.67854e-05
-4.09213e-07
8.11942e-07
-7.20192e-07
6.59373e-07
-1.26466e-06
5.68224e-07
-1.95002e-06
5.93116e-07
-2.87398e-06
8.81099e-07
-4.13219e-06
1.52692e-06
-5.71928e-06
2.54013e-06
-7.50697e-06
3.80139e-06
-9.35762e-06
5.11699e-06
-1.10815e-05
6.31404e-06
-1.19304e-05
7.89307e-06
-1.26439e-05
8.40764e-06
-1.32844e-05
7.94125e-06
-1.38569e-05
7.46013e-06
-1.4369e-05
6.96927e-06
-1.48299e-05
6.47425e-06
-1.52343e-05
5.95232e-06
-1.55784e-05
5.40601e-06
-1.58687e-05
4.85825e-06
-1.61077e-05
4.30484e-06
-1.62882e-05
3.72595e-06
-1.64097e-05
3.13294e-06
-1.6479e-05
2.53935e-06
-1.6495e-05
1.92749e-06
-1.64517e-05
1.28294e-06
-1.63523e-05
6.18081e-07
-1.62025e-05
-6.55797e-08
-1.60019e-05
-7.85533e-07
-1.57498e-05
-1.54968e-06
-1.54504e-05
-2.35619e-06
-1.51072e-05
-3.21443e-06
-1.47206e-05
-4.13954e-06
-1.42919e-05
-5.14282e-06
-1.38192e-05
-6.24487e-06
-1.32913e-05
-7.4826e-06
-1.26807e-05
-8.90553e-06
-1.19354e-05
-1.05709e-05
-1.09677e-05
-1.25325e-05
-9.64173e-06
-1.48174e-05
-7.7738e-06
-1.73649e-05
-5.26759e-06
-1.97662e-05
-2.2774e-06
-2.12605e-05
9.31808e-07
-2.13666e-05
-2.00546e-05
-3.94535e-08
-9.96054e-11
-2.21875e-08
9.92778e-10
-4.0266e-08
1.35373e-09
-6.73533e-08
5.49224e-10
-1.21199e-07
-1.05565e-09
-2.51865e-07
-4.94884e-09
-5.48685e-07
-1.21111e-08
-1.11689e-06
-2.3042e-08
-2.04926e-06
-3.37878e-08
-3.51132e-06
-3.00137e-08
-5.84372e-06
2.75958e-07
-8.61382e-06
1.6527e-06
-1.13405e-05
3.27962e-06
-1.36358e-05
4.74343e-06
-1.45485e-05
5.67538e-06
-1.49835e-05
6.90932e-06
-1.53526e-05
6.32141e-06
-1.56555e-05
5.70895e-06
-1.59062e-05
5.10888e-06
-1.61089e-05
4.50756e-06
-1.62485e-05
3.86552e-06
-1.63264e-05
3.21085e-06
-1.63561e-05
2.56911e-06
-1.63347e-05
1.90609e-06
-1.62514e-05
1.19956e-06
-1.61129e-05
4.79631e-07
-1.59299e-05
-2.48606e-07
-1.56998e-05
-1.01563e-06
-1.54204e-05
-1.82911e-06
-1.50995e-05
-2.67708e-06
-1.4743e-05
-3.57088e-06
-1.43517e-05
-4.53091e-06
-1.39299e-05
-5.56454e-06
-1.34822e-05
-6.69263e-06
-1.30032e-05
-7.9616e-06
-1.24712e-05
-9.43745e-06
-1.18379e-05
-1.12042e-05
-1.10092e-05
-1.33612e-05
-9.81336e-06
-1.60132e-05
-7.96242e-06
-1.92157e-05
-5.26873e-06
-2.24597e-05
-1.95314e-06
-2.4576e-05
1.60719e-06
-2.49269e-05
-2.36898e-05
-1.67894e-10
7.50628e-11
-1.21849e-09
3.8042e-11
-2.33469e-09
1.40865e-10
-4.40066e-09
1.56319e-10
-8.62183e-09
1.67867e-10
-1.76075e-08
1.36694e-10
-3.51929e-08
3.41983e-11
-6.54073e-08
-1.49729e-10
-1.07889e-07
-4.1894e-10
-1.48191e-07
-8.7955e-10
-2.07423e-07
-6.03036e-09
-6.77388e-07
-2.44767e-08
-1.64477e-06
-4.05827e-08
-3.19493e-06
-4.5298e-08
-5.79557e-06
-4.52618e-08
-9.23778e-06
8.9544e-07
-1.27742e-05
2.3172e-06
-1.53224e-05
3.55611e-06
-1.58906e-05
4.09664e-06
-1.60586e-05
4.67557e-06
-1.61523e-05
3.95922e-06
-1.61828e-05
3.24132e-06
-1.6174e-05
2.56032e-06
-1.61163e-05
1.84841e-06
-1.59899e-05
1.07317e-06
-1.58106e-05
3.00373e-07
-1.55955e-05
-4.63748e-07
-1.53359e-05
-1.27527e-06
-1.5026e-05
-2.13895e-06
-1.46801e-05
-3.02295e-06
-1.43071e-05
-3.94395e-06
-1.39051e-05
-4.93288e-06
-1.34828e-05
-5.9868e-06
-1.30527e-05
-7.12276e-06
-1.26181e-05
-8.39618e-06
-1.21688e-05
-9.88678e-06
-1.16704e-05
-1.17024e-05
-1.10378e-05
-1.39936e-05
-1.00787e-05
-1.69714e-05
-8.37442e-06
-2.09177e-05
-5.59641e-06
-2.52356e-05
-2.1115e-06
-2.80605e-05
1.47515e-06
-2.85134e-05
-2.71217e-05
7.31021e-11
2.42856e-12
-1.19093e-11
6.3094e-12
-6.04396e-11
1.30226e-11
-1.11882e-10
1.51209e-11
-1.92645e-10
1.76227e-11
-3.60827e-10
1.92455e-11
-7.21417e-10
1.92984e-11
-1.36709e-09
1.6128e-11
-2.37177e-09
8.69185e-12
-3.98502e-09
-5.18103e-12
-1.11077e-08
-7.26122e-11
-3.799e-08
-2.30902e-10
-8.2113e-08
-4.64615e-10
-1.31755e-07
-8.00215e-10
-1.82563e-07
-2.30563e-09
-5.25184e-07
-1.77578e-08
-1.52881e-06
-3.44004e-08
-3.18125e-06
-3.78264e-08
-5.98352e-06
-5.48579e-08
-9.87648e-06
5.76645e-07
-1.37485e-05
1.49416e-06
-1.58089e-05
2.05237e-06
-1.59231e-05
1.95605e-06
-1.58263e-05
1.75165e-06
-1.56498e-05
8.96666e-07
-1.54302e-05
8.06972e-08
-1.51885e-05
-7.05434e-07
-1.49015e-05
-1.56224e-06
-1.45578e-05
-2.48262e-06
-1.4184e-05
-3.39673e-06
-1.37923e-05
-4.3356e-06
-1.33737e-05
-5.35153e-06
-1.29408e-05
-6.41955e-06
-1.25158e-05
-7.54762e-06
-1.21111e-05
-8.80067e-06
-1.17315e-05
-1.0266e-05
-1.13688e-05
-1.20642e-05
-1.09589e-05
-1.44005e-05
-1.03037e-05
-1.76152e-05
-8.89268e-06
-2.23033e-05
-6.15549e-06
-2.79512e-05
-2.69e-06
-3.15218e-05
5.85362e-07
-3.17872e-05
-2.98978e-05
2.44401e-12
1.49248e-14
-9.46901e-13
6.09576e-13
-2.20112e-12
1.05263e-12
-3.146e-12
1.24902e-12
-4.65655e-12
1.4889e-12
-8.47599e-12
1.75127e-12
-1.81878e-11
2.05453e-12
-3.74229e-11
2.20395e-12
-7.01384e-11
2.12025e-12
-1.2843e-10
2.10429e-12
-2.72572e-10
1.99219e-12
-6.55066e-10
8.49891e-13
-1.32866e-09
-3.97516e-12
-2.4052e-09
-1.48285e-11
-5.17017e-09
-4.76048e-11
-2.37643e-08
-1.62713e-10
-5.94552e-08
-2.85352e-10
-9.86222e-08
-4.43795e-10
-1.54442e-07
-1.54019e-09
-4.85061e-07
-1.04942e-08
-1.45474e-06
-1.73035e-08
-2.9017e-06
-1.40666e-08
-5.43426e-06
-2.82141e-08
-9.40505e-06
1.55243e-07
-1.29946e-05
2.41523e-07
-1.42965e-05
-6.25045e-08
-1.441e-05
-5.50433e-07
-1.43023e-05
-1.51733e-06
-1.39768e-05
-2.7805e-06
-1.35567e-05
-3.81572e-06
-1.3136e-05
-4.75495e-06
-1.26938e-05
-5.79205e-06
-1.22375e-05
-6.87346e-06
-1.17946e-05
-7.98715e-06
-1.13822e-05
-9.20797e-06
-1.10101e-05
-1.06295e-05
-1.07209e-05
-1.23373e-05
-1.04789e-05
-1.41169e-05
-9.85091e-06
-1.49069e-05
-8.94219e-06
-1.76212e-05
-6.63064e-06
-2.70309e-05
-3.58468e-06
-3.3963e-05
-9.9961e-07
-3.43634e-05
-3.16768e-05
1.64785e-14
-9.72318e-17
-5.68047e-14
4.69504e-14
-4.93665e-14
7.90865e-14
-7.47403e-16
9.51122e-14
5.89183e-14
1.14747e-13
9.77923e-14
1.39264e-13
3.40948e-14
1.71427e-13
-3.01341e-13
2.00941e-13
-1.08063e-12
2.20107e-13
-2.5609e-12
2.61775e-13
-6.01754e-12
3.79147e-13
-1.49756e-11
5.83799e-13
-3.20763e-11
4.77737e-13
-6.2853e-11
2.77372e-13
-1.34626e-10
-1.34829e-13
-3.42401e-10
-1.51686e-12
-6.93112e-10
-3.40943e-12
-1.20041e-09
-7.8642e-12
-2.79188e-09
-2.23847e-11
-1.33564e-08
-7.06025e-11
-3.08025e-08
-5.88417e-11
-4.48301e-08
-4.25146e-11
-7.26738e-08
-1.9399e-10
-2.52039e-07
-4.66317e-10
-7.07889e-07
8.5846e-10
-1.45875e-06
-9.88285e-13
-3.12897e-06
-1.66248e-11
-5.7859e-06
-2.87291e-10
-7.71161e-06
-5.10045e-09
-8.73724e-06
-8.70521e-08
-9.30922e-06
-1.24412e-06
-9.59537e-06
-2.33076e-06
-9.36834e-06
-3.15568e-06
-9.033e-06
-3.70952e-06
-8.62759e-06
-4.14576e-06
-8.04148e-06
-4.37161e-06
-7.08069e-06
-3.95685e-06
-5.47836e-06
-2.9206e-06
-3.84161e-06
-5.48215e-07
-3.45675e-06
-3.10316e-06
-6.0034e-06
-1.52705e-05
-4.91973e-06
-3.54844e-05
-3.37433e-06
-3.58409e-05
-2.25086e-05
-2.36235e-16
1.3915e-16
-3.89257e-16
3.76676e-15
4.36911e-15
5.97322e-15
1.30166e-14
7.00466e-15
2.48812e-14
8.30417e-15
4.10399e-14
1.01948e-14
6.10093e-14
1.30509e-14
8.0285e-14
1.69954e-14
9.12153e-14
2.13707e-14
9.59781e-14
2.60778e-14
9.86397e-14
3.68365e-14
4.19168e-14
5.75554e-14
-2.41777e-13
6.08574e-14
-8.90188e-13
5.94825e-14
-2.38793e-12
7.98934e-14
-6.41612e-12
1.20546e-13
-1.29608e-11
6.54126e-14
-2.33873e-11
-5.89207e-14
-4.94392e-11
-1.80819e-13
-1.26217e-10
-5.66238e-13
-1.87695e-10
-2.39537e-13
-2.26008e-10
-1.38207e-13
-4.11603e-10
-6.42775e-13
-8.58981e-10
6.57878e-13
-6.2021e-14
1.8476e-12
-1.05031e-12
5.32141e-19
-1.76751e-11
2.31573e-17
-3.04966e-10
2.7785e-16
-5.40542e-09
1.24978e-15
-9.24575e-08
1.88215e-15
-5.35731e-07
1.33429e-15
-1.00406e-06
-1.08427e-13
-1.10815e-06
-1.52462e-12
-1.0765e-06
-2.01345e-11
-9.76179e-07
-2.48325e-10
-6.80295e-07
-3.06081e-09
-1.35916e-07
-3.78518e-08
-8.22572e-08
-4.48975e-08
-5.05151e-07
-1.586e-07
-1.76208e-06
-1.76794e-06
-6.95152e-06
-1.54562e-05
-7.45969e-06
-3.73753e-05
-4.71997e-06
-3.4813e-05
-3.11891e-06
6.38033e-17
7.53478e-17
1.54611e-16
3.67376e-16
7.33691e-16
6.10365e-16
1.52453e-15
7.20492e-16
2.63867e-15
8.47761e-16
4.29292e-15
1.02363e-15
6.70513e-15
1.47386e-15
9.94958e-15
2.14879e-15
1.34801e-14
3.13043e-15
1.82375e-14
3.94056e-15
2.68475e-14
4.50467e-15
4.10033e-14
5.9724e-15
5.20646e-14
6.71045e-15
5.44502e-14
7.03984e-15
5.35742e-14
9.70383e-15
3.58437e-14
1.58785e-14
-5.92767e-14
1.69364e-14
-2.5068e-13
1.11081e-14
-6.71056e-13
3.04272e-14
-1.66084e-12
2.07286e-13
-2.14659e-12
2.17839e-13
-2.22012e-12
1.41524e-13
-2.73624e-12
8.01987e-14
-1.95312e-12
7.86826e-14
1.22804e-17
3.40767e-14
1.53149e-16
-5.87436e-19
1.15175e-15
2.02875e-16
3.90182e-15
4.54351e-15
4.7401e-15
1.54998e-14
2.79651e-15
1.57778e-14
-5.01874e-15
8.05507e-15
-6.80317e-14
-4.54264e-14
-8.26187e-13
-7.84844e-13
-9.56251e-12
-1.16657e-11
-1.23211e-10
-1.38032e-10
-2.1936e-09
-1.03264e-09
-4.02485e-08
-4.20405e-10
-1.01076e-07
6.17652e-09
-1.38957e-07
-2.02342e-07
-2.60155e-06
-4.16776e-06
-1.10581e-05
-2.62046e-05
-1.10244e-05
-3.96292e-05
-1.9038e-06
-1.98798e-05
-4.09829e-11
1.26693e-17
6.44579e-17
2.07491e-17
5.85133e-17
7.46359e-17
8.32885e-17
1.38417e-16
9.48579e-17
2.28188e-16
1.00624e-16
3.63198e-16
1.01715e-16
5.65978e-16
2.64785e-16
8.39293e-16
3.47952e-16
1.1637e-15
4.40307e-16
1.63606e-15
5.85838e-16
2.54275e-15
8.83639e-16
4.23015e-15
1.45767e-15
6.04925e-15
2.07964e-15
7.63563e-15
2.61848e-15
1.01207e-14
3.59065e-15
1.45046e-14
5.66129e-15
1.69199e-14
7.28053e-15
1.59317e-14
7.20169e-15
1.90885e-14
7.7403e-15
4.89901e-15
2.21472e-13
-2.19153e-14
2.44653e-13
-3.56221e-14
1.55231e-13
-4.42682e-14
8.92706e-14
-2.05259e-14
5.53065e-14
7.72515e-17
1.25063e-14
1.53138e-15
-2.3338e-17
1.76322e-14
-7.3739e-17
4.44502e-14
9.29744e-14
3.67104e-14
1.39905e-13
1.67066e-14
8.61091e-14
-7.54216e-14
5.5673e-14
-7.90157e-14
-4.18323e-14
-7.02255e-13
-3.92667e-13
-1.16825e-11
-3.97789e-12
-1.67669e-10
-2.46039e-11
-1.62051e-09
4.83431e-11
-7.35482e-09
2.59941e-09
-2.58896e-08
9.88377e-09
1.47771e-07
-4.45636e-07
-6.77376e-06
-6.38727e-06
-1.31981e-05
-3.18133e-05
-1.00024e-05
-3.67148e-05
-9.1715e-11
-3.6101e-06
-1.02923e-10
1.50387e-18
1.34421e-17
2.18366e-18
5.44508e-18
7.11201e-18
8.55657e-18
1.21958e-17
1.05823e-17
1.86219e-17
1.13675e-17
4.78045e-17
1.62134e-17
7.47125e-17
2.44645e-16
1.11395e-16
3.23089e-16
1.55738e-16
4.12668e-16
2.21004e-16
5.34734e-16
3.47339e-16
7.63895e-16
5.86441e-16
1.23173e-15
8.55934e-16
1.82401e-15
1.11539e-15
2.37533e-15
1.53791e-15
3.19083e-15
2.34452e-15
4.82339e-15
3.06659e-15
6.83563e-15
2.97404e-15
7.29423e-15
2.8462e-15
7.86815e-15
-2.49899e-15
-7.94354e-15
-9.17958e-15
-3.73983e-14
-1.35987e-14
-9.64577e-14
1.32124e-15
-1.80185e-13
8.24449e-14
-2.6488e-13
2.33062e-13
-3.03547e-13
4.52647e-13
-2.89152e-13
6.09272e-13
-2.17121e-13
5.21767e-13
-9.30494e-14
2.58324e-13
1.83103e-14
1.57089e-13
1.8481e-13
-1.09205e-13
2.00237e-13
-2.3243e-13
8.13929e-14
-1.29111e-12
-4.37782e-14
-9.92351e-12
5.17288e-13
-9.15995e-11
1.77452e-11
-5.80074e-10
2.33299e-10
-1.86615e-09
1.75367e-09
-6.91923e-10
-2.81192e-09
-3.06681e-08
-4.69109e-07
-1.11745e-05
-5.69589e-06
-1.65553e-05
-3.06316e-05
-5.3497e-06
-3.05976e-05
-2.70237e-10
-5.68698e-09
-3.62096e-10
1.56043e-19
5.49522e-19
1.86919e-19
2.91404e-19
5.81817e-19
4.85056e-19
9.50057e-19
6.1613e-19
1.79514e-18
7.08967e-19
2.91422e-18
1.01861e-17
-1.37724e-17
-4.08934e-17
-6.9887e-17
-1.82186e-16
-1.78096e-16
-4.18585e-16
-3.08875e-16
-6.68283e-16
-4.07903e-16
-8.25892e-16
-4.20616e-16
-8.08195e-16
-3.53753e-16
-6.53401e-16
-3.27184e-16
-5.87688e-16
-5.98742e-16
-1.05599e-15
-1.79022e-15
-3.12799e-15
-5.37196e-15
-9.4002e-15
-1.40611e-14
-2.49732e-14
-3.18952e-14
-5.83172e-14
-6.2459e-14
-1.19695e-13
-1.00857e-13
-2.09173e-13
-1.37575e-13
-3.27226e-13
-1.57559e-13
-4.7594e-13
-1.2945e-13
-6.39331e-13
-5.90869e-16
-7.60219e-13
3.53511e-13
-8.23247e-13
8.61299e-13
-8.2125e-13
1.37653e-12
-7.24597e-13
1.64482e-12
-5.58569e-13
1.4824e-12
-3.78759e-13
7.45887e-13
-2.46119e-13
-8.18094e-13
-1.23367e-13
-1.02818e-12
1.67473e-13
-3.6425e-12
1.66941e-12
-1.29896e-11
1.19906e-11
-3.23387e-11
1.11124e-10
9.99268e-11
6.37157e-10
-1.91669e-09
-5.28318e-09
-1.5302e-07
-3.44124e-07
-8.42666e-06
-3.61229e-06
-1.57177e-05
-2.66767e-05
-6.2225e-08
-2.43461e-05
-1.62642e-09
-6.66891e-08
-1.41771e-10
-1.94071e-09
-2.27792e-10
9.57085e-21
1.11308e-19
1.25646e-20
1.5687e-20
3.83545e-20
2.30737e-20
6.97495e-20
2.8701e-20
1.27685e-19
4.67338e-19
-1.62556e-18
-4.88669e-18
-1.32053e-17
-3.39099e-17
-4.66927e-17
-1.05602e-16
-1.13305e-16
-2.3119e-16
-2.09603e-16
-3.93299e-16
-3.18031e-16
-5.57288e-16
-4.09897e-16
-6.79423e-16
-4.81596e-16
-7.63582e-16
-6.24361e-16
-9.56246e-16
-1.15728e-15
-1.72658e-15
-2.94031e-15
-4.30586e-15
-7.90208e-15
-1.14507e-14
-1.95391e-14
-2.82731e-14
-4.31012e-14
-6.28986e-14
-8.40886e-14
-1.25254e-13
-1.43254e-13
-2.2179e-13
-2.14615e-13
-3.55424e-13
-2.85737e-13
-5.29137e-13
-3.2824e-13
-7.35544e-13
-2.84932e-13
-9.34643e-13
-9.6601e-14
-1.10477e-12
3.52809e-13
-1.24442e-12
9.95039e-13
-1.32917e-12
1.61653e-12
-1.32853e-12
1.96313e-12
-1.24869e-12
1.6983e-12
-1.10995e-12
2.11298e-13
-8.35299e-13
-3.57719e-12
-1.01727e-13
-2.8172e-12
9.33679e-13
-2.41541e-12
6.44315e-12
4.10537e-12
5.66238e-11
-7.22714e-12
2.93256e-10
-3.15557e-09
-4.11799e-09
-1.37714e-07
-2.23876e-07
-5.29588e-06
-2.07894e-06
-1.37797e-05
-2.08269e-05
-4.13064e-07
-2.15587e-05
-1.08753e-08
-4.6965e-07
-8.16199e-10
-1.20954e-08
-8.25427e-10
4.47052e-22
1.28298e-20
7.11044e-22
1.09015e-20
2.19501e-21
1.23582e-21
5.53103e-21
1.49306e-21
-1.63243e-20
-5.18785e-20
-7.64188e-19
-2.01137e-18
-4.50885e-18
-1.02009e-17
-1.53603e-17
-3.07343e-17
-3.85256e-17
-6.97232e-17
-7.66293e-17
-1.27712e-16
-1.28304e-16
-1.99809e-16
-1.86971e-16
-2.75383e-16
-2.5414e-16
-3.57683e-16
-3.81467e-16
-5.17636e-16
-7.77817e-16
-1.02557e-15
-2.05307e-15
-2.649e-15
-5.64461e-15
-7.1775e-15
-1.43377e-14
-1.81045e-14
-3.26247e-14
-4.1255e-14
-6.61979e-14
-8.46806e-14
-1.19192e-13
-1.56397e-13
-1.91452e-13
-2.62962e-13
-2.77302e-13
-4.10779e-13
-3.58797e-13
-6.01294e-13
-3.93775e-13
-8.16561e-13
-3.30892e-13
-1.04318e-12
-1.13826e-13
-1.27686e-12
3.54322e-13
-1.50903e-12
9.69217e-13
-1.70844e-12
1.50283e-12
-1.82185e-12
1.65939e-12
-1.8106e-12
9.527e-13
-1.57433e-12
-1.02655e-12
-8.00166e-13
-5.16834e-13
4.2302e-13
6.31463e-13
3.98653e-12
1.00985e-11
2.98784e-11
4.14273e-15
1.67742e-10
-2.63065e-09
-2.52102e-09
-1.02234e-07
-1.32963e-07
-2.94207e-06
-1.10301e-06
-1.26885e-05
-1.65021e-05
-2.38223e-06
-1.90466e-05
-6.65042e-08
-2.80478e-06
-3.38399e-09
-7.51163e-08
-2.50839e-09
-5.19504e-22
-7.70443e-21
-1.72708e-23
-1.2749e-22
1.33356e-22
7.97239e-22
2.78822e-22
9.82608e-22
-1.0161e-20
-2.84418e-20
-1.86819e-19
-4.36244e-19
-1.01392e-18
-2.04679e-18
-3.49856e-18
-6.27397e-18
-9.22795e-18
-1.50195e-17
-1.97584e-17
-2.96944e-17
-3.61594e-17
-5.08868e-17
-5.83768e-17
-7.78263e-17
-8.91124e-17
-1.13656e-16
-1.5142e-16
-1.86334e-16
-3.43065e-16
-4.10373e-16
-9.71043e-16
-1.13684e-15
-2.8122e-15
-3.24397e-15
-7.49921e-15
-8.58389e-15
-1.79186e-14
-2.05123e-14
-3.82793e-14
-4.42354e-14
-7.30208e-14
-8.62254e-14
-1.25077e-13
-1.53477e-13
-1.94407e-13
-2.53848e-13
-2.73687e-13
-3.94035e-13
-3.39867e-13
-5.71846e-13
-3.5908e-13
-7.84944e-13
-2.88605e-13
-1.0343e-12
-8.0441e-14
-1.31747e-12
3.31706e-13
-1.62139e-12
8.19308e-13
-1.89836e-12
1.16863e-12
-2.06642e-12
1.02373e-12
-2.00991e-12
-2.50301e-13
-1.42135e-12
-1.3088e-13
3.03077e-13
-3.43098e-13
2.24606e-12
8.29072e-12
1.52028e-11
4.6637e-12
1.11256e-10
-2.03623e-09
-1.06432e-09
-7.70567e-08
-6.39913e-08
-1.34735e-06
-6.46109e-07
-1.40855e-05
-1.2e-05
-4.53713e-06
-1.83869e-05
-4.25822e-07
-3.78837e-06
-1.00455e-08
-4.95557e-07
-8.19277e-09
-1.91908e-22
-2.47118e-21
-5.18937e-23
-3.33563e-22
-6.9453e-24
-2.91211e-23
-2.76974e-23
-8.63197e-23
-2.42854e-21
-6.05288e-21
-3.24678e-20
-6.79102e-20
-1.71119e-19
-3.10994e-19
-6.08283e-19
-9.86395e-19
-1.69824e-18
-2.509e-18
-3.91691e-18
-5.36153e-18
-7.81128e-18
-1.00427e-17
-1.388e-17
-1.69519e-17
-2.35844e-17
-2.76256e-17
-4.51102e-17
-5.1098e-17
-1.14136e-16
-1.25939e-16
-3.51258e-16
-3.801e-16
-1.08735e-15
-1.16152e-15
-3.0813e-15
-3.27154e-15
-7.81101e-15
-8.30571e-15
-1.77091e-14
-1.90279e-14
-3.59495e-14
-3.94717e-14
-6.57521e-14
-7.48745e-14
-1.09494e-13
-1.31943e-13
-1.66379e-13
-2.18277e-13
-2.27453e-13
-3.38943e-13
-2.75664e-13
-4.98988e-13
-2.85529e-13
-7.05086e-13
-2.23274e-13
-9.6268e-13
-5.42821e-14
-1.26762e-12
2.56811e-13
-1.60102e-12
5.901e-13
-1.89902e-12
7.4026e-13
-2.04398e-12
3.52674e-13
-1.79067e-12
-9.88149e-13
-6.84398e-13
4.87406e-13
7.69274e-13
6.63512e-12
6.89951e-12
2.40497e-11
6.88803e-11
-1.18526e-09
-1.82563e-10
-4.17825e-08
-2.63584e-08
-3.67544e-07
-3.61103e-07
-1.35751e-05
-6.69345e-06
-1.01945e-05
-1.52213e-05
-2.59486e-06
-1.06643e-05
-3.13344e-08
-3.05582e-06
-3.42434e-08
-4.00071e-23
-4.54283e-22
-1.46191e-23
-8.29521e-23
-1.11149e-23
-4.13667e-23
-3.80697e-23
-1.0592e-22
-4.72674e-22
-1.05738e-21
-4.61085e-21
-8.69834e-21
-2.34791e-20
-3.86602e-20
-8.58149e-20
-1.26607e-19
-2.53317e-19
-3.4185e-19
-6.28732e-19
-7.89065e-19
-1.36463e-18
-1.61441e-18
-2.66409e-18
-3.00446e-18
-5.0262e-18
-5.45481e-18
-1.07948e-17
-1.13662e-17
-3.05103e-17
-3.13939e-17
-1.02682e-16
-1.03942e-16
-3.42659e-16
-3.43465e-16
-1.04073e-15
-1.03995e-15
-2.82141e-15
-2.83139e-15
-6.83665e-15
-6.94958e-15
-1.48501e-14
-1.54515e-14
-2.91162e-14
-3.14256e-14
-5.2078e-14
-5.93277e-14
-8.53806e-14
-1.05086e-13
-1.27416e-13
-1.75002e-13
-1.72208e-13
-2.76469e-13
-2.08174e-13
-4.18723e-13
-2.1681e-13
-6.11784e-13
-1.73671e-13
-8.60826e-13
-5.75514e-14
-1.1603e-12
1.45212e-13
-1.48461e-12
3.42057e-13
-1.7573e-12
3.4785e-13
-1.79104e-12
-1.71401e-13
-1.23423e-12
1.34349e-13
4.63521e-13
3.88048e-12
2.66561e-12
2.96982e-11
3.21827e-11
-4.66332e-10
1.35308e-10
-1.98277e-08
-8.56237e-09
-1.75737e-07
-2.3213e-07
-7.18387e-06
-3.16008e-06
-9.35755e-06
-1.77555e-05
-8.75916e-06
-1.23964e-05
-2.10902e-07
-4.31894e-06
-2.37537e-07
-6.1291e-24
-6.19927e-23
-3.07402e-24
-1.55396e-23
-5.55381e-24
-1.84926e-23
-2.27123e-23
-5.67878e-23
-1.21264e-22
-2.44816e-22
-7.04683e-22
-1.20465e-21
-3.11511e-21
-4.66668e-21
-1.11194e-20
-1.49849e-20
-3.3796e-20
-4.18257e-20
-8.90785e-20
-1.02935e-19
-2.09084e-19
-2.28665e-19
-4.47134e-19
-4.68025e-19
-9.32657e-19
-9.43188e-19
-2.22076e-18
-2.1875e-18
-6.89292e-18
-6.66103e-18
-2.5173e-17
-2.40243e-17
-9.06738e-17
-8.60155e-17
-2.96682e-16
-2.81605e-16
-8.65609e-16
-8.28015e-16