/*--------------------------------*- C++ -*----------------------------------*\
| =========                 |                                                 |
| \\      /  F ield         | OpenFOAM: The Open Source CFD Toolbox           |
|  \\    /   O peration     | Version:  5.0                                   |
|   \\  /    A nd           | Web:      www.OpenFOAM.org                      |
|    \\/     M anipulation  |                                                 |
\*---------------------------------------------------------------------------*/
FoamFile
{
    version     2.0;
    format      ascii;
    class       volScalarField;
    location    "0.85";
    object      nut;
}
// * * * * * * * * * * * * * * * * * * * * * * * * * * * * * * * * * * * * * //

dimensions      [0 2 -1 0 0 0 0];

internalField   nonuniform List<scalar> 
1935
(
2.80645e-05
3.30173e-05
3.92599e-05
4.40877e-05
4.7921e-05
5.10243e-05
5.36175e-05
5.58613e-05
5.78636e-05
5.96952e-05
6.14016e-05
6.30099e-05
6.45339e-05
6.59791e-05
6.73461e-05
6.86336e-05
6.98394e-05
7.09621e-05
7.20009e-05
7.29565e-05
7.38313e-05
7.46296e-05
7.53576e-05
7.60237e-05
7.66387e-05
7.72155e-05
7.77706e-05
7.83248e-05
7.8908e-05
7.95735e-05
8.03019e-05
8.10455e-05
8.17856e-05
8.24839e-05
8.308e-05
8.3499e-05
8.36675e-05
8.357e-05
8.2931e-05
8.13963e-05
7.88048e-05
7.50259e-05
6.97127e-05
6.22894e-05
4.32453e-05
0.000167373
0.000246814
0.000314751
0.00036988
0.000413065
0.000447076
0.000474633
0.000497845
0.000518228
0.000536804
0.000554199
0.000570749
0.000586601
0.000601788
0.000616298
0.000630102
0.000643183
0.000655549
0.000667243
0.000678348
0.000688993
0.000699349
0.00070963
0.000720092
0.000731028
0.000742762
0.000755652
0.000770059
0.000785808
0.000800812
0.000815975
0.00083127
0.000846203
0.000859948
0.000871334
0.000878836
0.000880404
0.000873184
0.000854063
0.000818563
0.000760541
0.000670812
0.0005359
4.90389e-05
0.000287038
0.000451946
0.000585025
0.000695352
0.00078642
0.000862063
0.000925933
0.00098114
0.00103017
0.00107488
0.0011165
0.00115579
0.00119311
0.00122862
0.00126234
0.00129425
0.00132435
0.00135271
0.00137946
0.00140484
0.00142918
0.0014529
0.00147651
0.00150057
0.00152571
0.00155251
0.00158154
0.00161321
0.00164602
0.00167906
0.0017119
0.00174356
0.00177235
0.00179598
0.00181145
0.00181505
0.00180205
0.00176632
0.00170041
0.00159498
0.00143849
0.00121693
0.000914412
5.26775e-05
0.000375278
0.000617946
0.000809655
0.000970744
0.00110744
0.00122417
0.00132502
0.00141362
0.00149301
0.00156555
0.00163292
0.00169615
0.00175585
0.00181228
0.00186554
0.00191567
0.00196272
0.00200685
0.00204831
0.00208747
0.00212488
0.00216114
0.00219701
0.00223325
0.00227062
0.00230981
0.00235126
0.00239503
0.0024393
0.002483
0.00252465
0.00256213
0.0025926
0.0026125
0.00261753
0.00260252
0.00256111
0.00248542
0.00236586
0.0021909
0.00194686
0.00161853
0.0011908
5.49881e-05
0.00043911
0.00074966
0.000995765
0.0012045
0.00138438
0.00154049
0.00167729
0.00179879
0.00190836
0.00200871
0.00210176
0.0021888
0.00227057
0.00234745
0.00241963
0.00248725
0.00255044
0.00260946
0.00266468
0.00271662
0.00276597
0.00281352
0.00286012
0.00290665
0.00295388
0.00300237
0.00305231
0.00310317
0.00315293
0.00319992
0.00324179
0.00327554
0.00329751
0.00330349
0.00328871
0.00324762
0.00317358
0.00305844
0.00289207
0.00266185
0.00235228
0.00194543
0.0014232
5.64272e-05
0.000486413
0.000855274
0.00115195
0.00140564
0.00162636
0.00181992
0.00199116
0.00214442
0.00228333
0.0024108
0.00252894
0.00263915
0.00274229
0.00283885
0.00292913
0.00301334
0.00309174
0.00316469
0.0032327
0.00329641
0.00335663
0.00341425
0.00347021
0.00352535
0.00358034
0.00363552
0.00369073
0.00374453
0.00379485
0.0038393
0.0038748
0.00389778
0.00390425
0.00389
0.0038506
0.00378113
0.00367577
0.00352706
0.00332509
0.00305623
0.00270211
0.00223933
0.00164187
5.74146e-05
0.000522773
0.000942079
0.00128545
0.0015813
0.00184045
0.00206935
0.00227326
0.0024568
0.00262384
0.00277743
0.00291975
0.00305225
0.00317587
0.00329121
0.00339866
0.00349854
0.00359122
0.00367718
0.00375706
0.00383163
0.00390178
0.00396846
0.0040326
0.00409498
0.00415605
0.0042158
0.00427358
0.00432721
0.00437426
0.00441167
0.00443587
0.004443
0.00442924
0.00439102
0.00432498
0.00422771
0.00409496
0.00392058
0.00369513
0.00340385
0.00302457
0.0025259
0.00186843
5.83653e-05
0.000552195
0.00101583
0.00140194
0.0017369
0.00203188
0.00229381
0.00252836
0.00274048
0.00293425
0.00311277
0.00327818
0.00343194
0.00357504
0.00370818
0.00383185
0.00394647
0.00405253
0.00415066
0.00424161
0.00432623
0.00440551
0.00448043
0.00455185
0.00462039
0.00468622
0.0047489
0.00480716
0.00485813
0.00489884
0.00492565
0.00493465
0.00492207
0.0048847
0.00482025
0.00472718
0.0046042
0.00444917
0.00425757
0.00402046
0.00372196
0.00333599
0.00282201
0.00212117
5.95956e-05
0.000577843
0.00108055
0.00150536
0.00187617
0.00220416
0.00249659
0.00275954
0.00299841
0.00321746
0.00341967
0.00360699
0.00378087
0.00394239
0.00409236
0.00423131
0.00435977
0.00447839
0.00458792
0.00468922
0.00478325
0.00487103
0.00495355
0.00503158
0.00510551
0.00517514
0.00523948
0.00529655
0.00534281
0.00537459
0.00538773
0.00537819
0.00534261
0.00527898
0.00518691
0.00506735
0.00492169
0.00475015
0.0045497
0.00431172
0.00401923
0.00364332
0.00313614
0.00241545
6.17011e-05
0.000602097
0.00113904
0.00159849
0.00200162
0.00235942
0.00267937
0.00296831
0.00323214
0.00347511
0.00369981
0.00390784
0.00410067
0.0042796
0.00444546
0.00459881
0.00474029
0.00487072
0.00499099
0.00510206
0.00520497
0.00530081
0.00539051
0.00547471
0.00555352
0.00562627
0.00569135
0.00574588
0.00578559
0.00580604
0.00580261
0.00577132
0.0057097
0.00561753
0.00549704
0.00535234
0.00518789
0.00500613
0.00480492
0.00457505
0.00429815
0.0039444
0.00346554
0.00276567
6.55871e-05
0.000623141
0.00119285
0.00168377
0.00211576
0.0024998
0.00284416
0.00315693
0.00344428
0.00371016
0.00395638
0.00418393
0.00439474
0.00459032
0.00477143
0.00493851
0.00509239
0.00523411
0.00536469
0.00548515
0.00559666
0.00570035
0.00579709
0.00588731
0.00597078
0.00604628
0.00611144
0.00616215
0.00619348
0.00620008
0.00617692
0.00612041
0.00602952
0.00590659
0.00575737
0.00558977
0.00541146
0.00522656
0.00503244
0.00481739
0.0045602
0.00423143
0.00379284
0.00319974
7.14697e-05
0.000635176
0.00123996
0.00175964
0.00221678
0.00262323
0.00298945
0.00332456
0.0036345
0.00392271
0.00418964
0.00443546
0.00466342
0.00487517
0.00507108
0.00525132
0.00541711
0.00556981
0.00571048
0.00584016
0.00596019
0.00607176
0.00617563
0.00627199
0.00636018
0.00643827
0.0065029
0.00654872
0.00656979
0.00655977
0.00651338
0.00642786
0.00630443
0.00614901
0.00597184
0.00578523
0.0055999
0.00542048
0.00524154
0.00504569
0.00480589
0.0044919
0.0040772
0.00356172
7.38612e-05
0.000637405
0.00126833
0.00181026
0.00229057
0.00272093
0.00311028
0.00346746
0.00379958
0.00411017
0.00439743
0.00466022
0.00490478
0.00513251
0.00534298
0.00553571
0.00571299
0.00587649
0.00602714
0.00616588
0.00629444
0.00641408
0.00652537
0.00662818
0.00672134
0.00680205
0.00686572
0.00690564
0.00691451
0.00688499
0.0068118
0.00669375
0.00653535
0.00634737
0.00614551
0.00594682
0.00576436
0.00560123
0.00544585
0.00527065
0.00503971
0.00472118
0.00430142
0.00381099
7.54378e-05
0.000632432
0.00128341
0.0018375
0.00233106
0.00277957
0.00319057
0.00357073
0.00392711
0.00426207
0.00457225
0.00485567
0.00511748
0.00536177
0.00558712
0.00579166
0.00598005
0.00615443
0.00631513
0.00646279
0.00659999
0.00672809
0.0068473
0.00695705
0.00705566
0.00713927
0.00720171
0.00723476
0.00722947
0.00717758
0.00707428
0.00692098
0.00672694
0.00650919
0.00628981
0.00609051
0.00592534
0.00579259
0.00566879
0.00551072
0.00527333
0.0049262
0.00447579
0.00398592
7.78971e-05
0.000656618
0.00130429
0.00186324
0.00236256
0.00281898
0.00324202
0.0036385
0.0040134
0.00436722
0.00469748
0.00500485
0.00528885
0.00555446
0.00579862
0.00601856
0.00621836
0.00640416
0.00657536
0.00673165
0.00687762
0.00701479
0.00714264
0.00725996
0.0073647
0.00745176
0.00751294
0.00753828
0.00751702
0.00744022
0.0073044
0.00711496
0.00688775
0.00664754
0.00642338
0.00624136
0.00611526
0.00603322
0.00594624
0.00579103
0.00552175
0.00511733
0.00462021
0.0041471
8.03308e-05
0.000683027
0.00132958
0.00189246
0.00239573
0.00285627
0.00328553
0.00369104
0.00407595
0.00443972
0.00478074
0.00510201
0.00540573
0.00569134
0.00595424
0.00619557
0.0064146
0.00661795
0.00680462
0.00697305
0.0071282
0.00727538
0.00741285
0.00753847
0.00765021
0.0077415
0.00780187
0.00781898
0.00778036
0.00767706
0.00750812
0.00728467
0.00703123
0.00678156
0.00657182
0.00643281
0.00638059
0.00638643
0.00632752
0.00613585
0.00579095
0.00529723
0.00475312
0.00433854
8.21845e-05
0.000700563
0.00135603
0.001925
0.00243201
0.00289605
0.00332901
0.00373849
0.00412801
0.00449735
0.00484558
0.00517546
0.00548977
0.00578593
0.0060601
0.00631465
0.00655282
0.00677585
0.00698029
0.00716828
0.00734087
0.00750395
0.00765582
0.00779349
0.00791395
0.00801082
0.00807122
0.00808012
0.0080236
0.00789392
0.00769412
0.00744273
0.00717528
0.00693487
0.00676397
0.00670046
0.00678104
0.00696927
0.00684779
0.00652616
0.0060461
0.00544801
0.00488466
0.00458285
8.34373e-05
0.000713801
0.00138021
0.00195747
0.00247042
0.00293893
0.00337539
0.0037876
0.0041796
0.00455208
0.00490473
0.00523938
0.00555803
0.00585931
0.00614082
0.00640469
0.00665448
0.00688962
0.00710732
0.00731083
0.00750393
0.00768769
0.00785854
0.0080148
0.00815098
0.00825829
0.00832187
0.00832444
0.00825131
0.00809717
0.00787202
0.00760421
0.00734026
0.00713166
0.00702462
0.00706422
0.00734844
0.0074031
0.00731093
0.00682564
0.00619869
0.00553877
0.00501
0.00486007
8.42759e-05
0.000722286
0.00140069
0.00198871
0.00251002
0.00298477
0.0034257
0.00384087
0.00423488
0.00460937
0.00496467
0.00530199
0.00562277
0.00592661
0.00621248
0.00648199
0.00673785
0.0069802
0.00720811
0.00742476
0.00763395
0.00783492
0.00802437
0.00820015
0.00835627
0.00848014
0.00855266
0.00855464
0.00847085
0.00829886
0.00805542
0.00777872
0.00752255
0.0073414
0.00726786
0.00731084
0.00744154
0.00747945
0.00744931
0.00687535
0.00622523
0.00557024
0.00512622
0.00513005
8.48492e-05
0.000727385
0.00141775
0.00201834
0.00255024
0.00303321
0.00348013
0.0038993
0.00429578
0.00467206
0.00502916
0.00536813
0.00569011
0.00599533
0.00628368
0.00655649
0.00681594
0.00706302
0.00729834
0.0075248
0.00774546
0.00796015
0.00816635
0.00836096
0.00853615
0.00867684
0.0087616
0.0087688
0.00868404
0.0085083
0.00826379
0.00799316
0.00774725
0.00757034
0.00747327
0.00742787
0.00742859
0.0075136
0.00739249
0.00684054
0.00619516
0.00558214
0.00523396
0.00533115
8.52311e-05
0.000730473
0.00143235
0.0020466
0.00259087
0.00308394
0.00353854
0.00396309
0.00436303
0.00474152
0.00510026
0.00544048
0.00576329
0.00606935
0.00635914
0.00663395
0.00689571
0.00714604
0.00738656
0.00762005
0.00784922
0.00807451
0.00829406
0.00850399
0.0086953
0.00885104
0.00894852
0.00896553
0.00888843
0.00872054
0.00848626
0.00822575
0.00798195
0.00778363
0.00763162
0.00751481
0.00746752
0.00750982
0.00731904
0.00679268
0.00617225
0.00560951
0.00533033
0.00543809
0.0054799
8.54802e-05
0.000732961
0.00144575
0.00207413
0.00263204
0.00313679
0.00360066
0.00403206
0.00443667
0.00481819
0.0051789
0.00552039
0.00584398
0.00615065
0.00644132
0.00671737
0.0069807
0.0072333
0.00747737
0.00771572
0.00795093
0.00818386
0.00841304
0.008634
0.00883687
0.0090045
0.00911349
0.00914162
0.00907636
0.00892184
0.00870081
0.0084476
0.00819551
0.00796471
0.00776001
0.00759237
0.00751199
0.00751348
0.00728951
0.00678984
0.00620452
0.00567862
0.00541571
0.00551024
0.00555651
8.5654e-05
0.00073578
0.00145907
0.00210175
0.0026741
0.00319174
0.00366624
0.00410585
0.00451639
0.00490191
0.00526522
0.00560832
0.00593282
0.00624006
0.00653132
0.00680814
0.00707248
0.00732659
0.00757297
0.00781446
0.00805357
0.00829136
0.00852651
0.00875414
0.00896394
0.00913904
0.00925738
0.00929608
0.00924295
0.00910185
0.00889211
0.00864172
0.00837672
0.00811413
0.00786617
0.00765999
0.00755176
0.00753163
0.00731795
0.00685961
0.00631353
0.00580854
0.0055259
0.00558896
0.00566761
8.58032e-05
0.00073943
0.00147317
0.0021302
0.00271749
0.00324886
0.00373505
0.00418402
0.00460161
0.00499216
0.00535885
0.00570408
0.0060298
0.00633772
0.00662942
0.00690668
0.00717159
0.00742654
0.0076742
0.00791738
0.00815853
0.00839874
0.00863664
0.00886708
0.00907969
0.00925817
0.00938194
0.00943021
0.0093881
0.00925847
0.00905721
0.00880683
0.0085287
0.00823948
0.00795796
0.00772173
0.00759156
0.00756422
0.00739556
0.00699589
0.00649534
0.00600764
0.00569028
0.00570266
0.00583045
8.59666e-05
0.000744139
0.0014886
0.00216008
0.0027626
0.00330824
0.00380688
0.0042661
0.00469171
0.00508819
0.00545904
0.00580701
0.00613439
0.0064432
0.00673535
0.00701285
0.00727795
0.00753314
0.00778118
0.00802484
0.00826644
0.00850699
0.00874499
0.00897519
0.00918733
0.00936589
0.00949174
0.00954594
0.00951487
0.00939498
0.00920028
0.00894917
0.00866015
0.0083505
0.00804372
0.00778431
0.0076372
0.007608
0.00750417
0.00717747
0.00673057
0.00626687
0.00591986
0.00584537
0.00602503
8.6169e-05
0.000749975
0.00150567
0.00219177
0.00280969
0.00336993
0.00388151
0.00435161
0.00478595
0.00518913
0.00556486
0.00591618
0.00624569
0.00655571
0.00684843
0.00712609
0.00739108
0.00764602
0.00789368
0.00813678
0.00837752
0.00861673
0.00885281
0.0090805
0.00928984
0.00946616
0.00959168
0.00964897
0.00962535
0.00951659
0.00932822
0.00907715
0.00878043
0.0084561
0.00813062
0.00785263
0.00768992
0.00766071
0.00762359
0.00738093
0.00699699
0.00656776
0.00620278
0.00604053
0.00618733
8.64216e-05
0.000756907
0.00152448
0.00222543
0.00285886
0.00343383
0.00395861
0.00443998
0.00488358
0.00529404
0.00567524
0.00603047
0.00636259
0.00667417
0.00696766
0.0072455
0.00751023
0.00776455
0.00801124
0.00825295
0.00849175
0.00872834
0.00896105
0.00918471
0.00938978
0.00956245
0.0096862
0.00974482
0.00972623
0.00962558
0.00944629
0.00919867
0.00889739
0.00856348
0.00822411
0.00792975
0.00774906
0.00771489
0.00773646
0.00758966
0.007276
0.00689147
0.0065228
0.00629343
0.00632769
8.67249e-05
0.00076484
0.001545
0.00226104
0.00291
0.00349972
0.00403777
0.00453062
0.00498377
0.00540191
0.00578904
0.00614865
0.00648381
0.00679732
0.00709183
0.00736996
0.00763438
0.00788786
0.00813316
0.00837287
0.00860896
0.00884201
0.00907037
0.00928905
0.00948905
0.00965745
0.00977885
0.00983803
0.00982326
0.00972906
0.00955707
0.00931525
0.00901628
0.00867815
0.00832832
0.00801893
0.00781648
0.00776694
0.00782125
0.00778415
0.0075526
0.0072229
0.00686905
0.00659159
0.00651151
8.70714e-05
0.000773629
0.00156702
0.00229837
0.00296284
0.00356721
0.00411848
0.00462283
0.00508568
0.00551173
0.00590511
0.00626945
0.00660802
0.00692379
0.00721959
0.0074982
0.00776236
0.0080149
0.00825858
0.00849591
0.00872876
0.00895768
0.00918109
0.00939429
0.00958892
0.00975297
0.00987207
0.00993182
0.00992071
0.00983252
0.00966743
0.00943153
0.00913601
0.00879806
0.00844529
0.00812444
0.00789614
0.00781964
0.00787827
0.0079349
0.00780889
0.00754608
0.0072283
0.00692998
0.00675765
8.74487e-05
0.00078309
0.00159026
0.00233707
0.00301696
0.00363578
0.00420008
0.00471583
0.00518838
0.00562245
0.00602226
0.0063916
0.00673385
0.00705218
0.00734954
0.00762881
0.00789285
0.00814448
0.00838645
0.0086212
0.00885055
0.00907503
0.00929319
0.00950074
0.00968999
0.00984992
0.00996715
0.010028
0.0100211
0.00993955
0.00978206
0.00955315
0.00926269
0.00892691
0.00857229
0.00824164
0.00799314
0.00788185
0.00791796
0.00802154
0.00802365
0.00784768
0.00758402
0.00729632
0.00706453
8.78421e-05
0.000793004
0.00161434
0.00237666
0.00307178
0.0037048
0.00428187
0.00480881
0.00529094
0.00573301
0.00613934
0.00651381
0.00685997
0.00718107
0.00748022
0.00776038
0.00802445
0.00827528
0.00851558
0.00874773
0.00897349
0.00919343
0.00940629
0.00960822
0.00979229
0.00994847
0.0100644
0.0101272
0.0101255
0.0100518
0.00990346
0.00968351
0.00940043
0.00906924
0.00871461
0.00837542
0.00810506
0.00795819
0.00795779
0.00806521
0.00816597
0.0081075
0.00791467
0.00766824
0.00742056
8.82367e-05
0.000803139
0.00163883
0.00241657
0.00312666
0.00377353
0.00436303
0.0049009
0.00539241
0.00584239
0.00625521
0.00663489
0.00698506
0.00730911
0.00761023
0.00789146
0.00815575
0.00840593
0.00864466
0.0088743
0.00909654
0.00931202
0.00951968
0.00971616
0.00989532
0.0100481
0.0101634
0.0102289
0.0102335
0.0101691
0.0100321
0.00982376
0.00955112
0.00922767
0.0088758
0.00853019
0.00823862
0.00805325
0.00800746
0.00808774
0.00822326
0.00829347
0.00820596
0.00802124
0.00779771
8.86187e-05
0.000813256
0.00166329
0.00245622
0.00318092
0.00384122
0.00444277
0.00499121
0.00549184
0.00594954
0.00636878
0.00675364
0.00710788
0.00743498
0.00773821
0.00802067
0.00828532
0.00853501
0.00877234
0.00899961
0.0092185
0.00942969
0.00963236
0.00982364
0.00999817
0.010148
0.0102629
0.0103317
0.0103437
0.0102902
0.0101667
0.00997293
0.00971432
0.0094025
0.00905721
0.00870883
0.00839924
0.00817661
0.00807968
0.00811565
0.00824423
0.00838071
0.00842738
0.0083311
0.00816106
8.8976e-05
0.000823133
0.00168728
0.00249502
0.00323386
0.00390712
0.00452026
0.00507889
0.00558833
0.00605352
0.00647901
0.00686897
0.00722726
0.00755744
0.00786286
0.00814665
0.00841181
0.00866114
0.00889723
0.00912231
0.00933804
0.00954517
0.00974311
0.00992945
0.0100996
0.0102466
0.0103615
0.010434
0.0104539
0.0104126
0.0103045
0.0101283
0.00988749
0.00959166
0.00925771
0.00891168
0.00858967
0.00833483
0.00818733
0.00816775
0.0082616
0.00841317
0.00853989
0.00856846
0.00847946
8.92993e-05
0.000832571
0.0017104
0.00253242
0.00328484
0.0039705
0.00459473
0.00516311
0.005681
0.0061534
0.00658494
0.00697987
0.00734213
0.00767537
0.00798298
0.00826816
0.00853389
0.00878297
0.00901795
0.00924101
0.00945379
0.00965709
0.00985055
0.0100322
0.0101982
0.0103425
0.0104574
0.0105336
0.0105617
0.0105332
0.010442
0.0102858
0.0100662
0.00979086
0.00947355
0.00913611
0.00880905
0.00853003
0.0083376
0.00825958
0.0082994
0.00842745
0.00858345
0.00869821
0.00872659
8.95819e-05
0.000841405
0.00173231
0.00256794
0.00333326
0.00403072
0.00466549
0.00524314
0.00576908
0.00624837
0.0066857
0.0070854
0.00745151
0.00778772
0.00809749
0.00838404
0.00865037
0.00889926
0.00913321
0.00935437
0.00956435
0.00976403
0.00995323
0.0101304
0.0102923
0.010434
0.0105487
0.0106283
0.0106643
0.0106487
0.0105752
0.0104405
0.010245
0.00999402
0.00969857
0.00937641
0.00905278
0.00875962
0.00853192
0.00839993
0.00837848
0.00845775
0.00860131
0.00875555
0.00886702
8.982e-05
0.000849511
0.00175272
0.00260116
0.00337864
0.0040872
0.00473191
0.00531833
0.00585188
0.00633769
0.00678052
0.00718477
0.00755453
0.00789358
0.0082054
0.00849326
0.00876015
0.00900884
0.00924179
0.00946111
0.0096684
0.0098646
0.0100497
0.0102225
0.0103805
0.0105193
0.0106335
0.0107159
0.0107592
0.0107558
0.0106998
0.0105873
0.0104175
0.0101939
0.00992487
0.00962436
0.00931278
0.00901653
0.00876593
0.00859031
0.00851036
0.00852996
0.00863193
0.00878108
0.00893264
9.00117e-05
0.000856803
0.00177143
0.00263178
0.00342056
0.00413949
0.00479349
0.00538812
0.00592882
0.00642076
0.00686875
0.00727727
0.00765047
0.00799215
0.00830588
0.00859491
0.00886227
0.00911068
0.00934259
0.00956007
0.00976471
0.00995749
0.0101386
0.0103071
0.010461
0.0105968
0.0107099
0.0107944
0.0108438
0.0108517
0.0108122
0.0107213
0.0105777
0.0103832
0.0101437
0.00987012
0.00957842
0.00928989
0.00902986
0.00882469
0.00869668
0.00865774
0.00870447
0.00881753
0.0089661
9.01572e-05
0.000863232
0.00178829
0.00265955
0.00345875
0.00418724
0.00484985
0.00545209
0.00599943
0.00649707
0.00694986
0.00736234
0.0077387
0.0080828
0.00839821
0.00868825
0.0089559
0.0092039
0.00943467
0.00965023
0.00985217
0.0100415
0.0102186
0.0103827
0.0105324
0.0106649
0.0107764
0.010862
0.0109163
0.0109336
0.010909
0.0108384
0.0107201
0.0105547
0.0103465
0.0101034
0.00983775
0.00956637
0.00930975
0.0090904
0.00892951
0.0088425
0.00883466
0.00889887
0.0090171
9.02584e-05
0.000868781
0.00180322
0.00268435
0.00349299
0.00423021
0.0049007
0.00550994
0.00606338
0.00656625
0.00702345
0.00743954
0.00781875
0.00816499
0.00848185
0.00877265
0.00904039
0.00928779
0.00951724
0.00973074
0.00992988
0.0101157
0.0102887
0.0104484
0.0105937
0.0107224
0.0108316
0.0109172
0.0109749
0.0109999
0.0109879
0.0109353
0.0108403
0.0107028
0.0105256
0.0103145
0.010079
0.00983186
0.00958942
0.00937017
0.00919282
0.00907333
0.0090215
0.00903849
0.00911649
9.03221e-05
0.000873463
0.00181617
0.00270607
0.00352317
0.00426825
0.00494587
0.00556146
0.00612043
0.00662805
0.00708923
0.00750856
0.00789029
0.00823836
0.00855638
0.00884767
0.00911525
0.00936181
0.00958971
0.00980095
0.00999712
0.0101793
0.010348
0.0105031
0.0106437
0.0107683
0.0108744
0.010959
0.0110185
0.0110491
0.0110473
0.01101
0.0109354
0.0108232
0.0106753
0.0104959
0.0102919
0.0100733
0.0098528
0.00964513
0.0094661
0.00933046
0.00924964
0.00922946
0.0092691
9.03656e-05
0.000877301
0.00182715
0.0027247
0.00354923
0.00430124
0.0049852
0.00560646
0.00617044
0.00668233
0.00714705
0.00756922
0.00795311
0.00830268
0.00862154
0.00891303
0.00918015
0.00942559
0.00965169
0.00986043
0.0100534
0.0102317
0.010396
0.0105462
0.0106819
0.0108019
0.0109043
0.0109868
0.0110466
0.0110808
0.0110865
0.0110614
0.011004
0.0109138
0.0107921
0.0106421
0.0104691
0.0102805
0.0100862
0.00989789
0.00972848
0.00959079
0.00949602
0.00945205
0.00946212
9.03645e-05
0.000880326
0.00183622
0.00274033
0.00357129
0.00432933
0.00501879
0.00564499
0.00621331
0.00672895
0.00719682
0.00762146
0.00800714
0.00835786
0.00867724
0.00896861
0.00923496
0.00947897
0.00970297
0.00990894
0.0100985
0.0102727
0.0104323
0.0105775
0.010708
0.0108229
0.010921
0.0110005
0.0110592
0.0110951
0.011106
0.01109
0.0110462
0.0109742
0.0108749
0.0107509
0.0106062
0.0104467
0.0102799
0.010115
0.00996242
0.00983289
0.00973652
0.00968156
0.00967324
9.03095e-05
0.000882551
0.00184342
0.00275304
0.00358945
0.00435262
0.0050468
0.00567722
0.00624924
0.00676805
0.00723853
0.00766525
0.00805242
0.00840396
0.00872352
0.00901444
0.0092797
0.00952197
0.00974358
0.00994649
)
;

boundaryField
{
    leftWall
    {
        type            nutkWallFunction;
        Cmu             0.09;
        kappa           0.41;
        E               9.8;
        value           nonuniform List<scalar> 
44
(
3.91284e-06
5.23956e-06
5.93793e-06
6.36372e-06
6.62204e-06
6.77161e-06
6.86923e-06
6.96979e-06
7.11601e-06
7.38387e-06
7.88461e-06
8.25478e-06
5.91461e-07
9.62401e-07
1.41095e-06
1.81236e-06
2.0992e-06
2.28012e-06
2.40257e-06
2.4876e-06
2.54431e-06
2.58139e-06
2.60804e-06
2.63231e-06
2.66019e-06
2.69528e-06
2.73905e-06
2.79127e-06
2.85051e-06
2.91463e-06
2.98119e-06
3.04777e-06
3.11215e-06
3.17246e-06
3.22724e-06
3.27549e-06
3.31661e-06
3.35037e-06
3.3768e-06
3.39618e-06
3.40888e-06
3.41461e-06
3.41173e-06
3.40017e-06
)
;
    }
    rightWall
    {
        type            nutkWallFunction;
        Cmu             0.09;
        kappa           0.41;
        E               9.8;
        value           nonuniform 0();
    }
    lowerWall
    {
        type            nutkWallFunction;
        Cmu             0.09;
        kappa           0.41;
        E               9.8;
        value           nonuniform List<scalar> 
44
(
2.87752e-06
3.96397e-06
4.75282e-06
5.35258e-06
5.82261e-06
6.19903e-06
6.51082e-06
6.77877e-06
7.0165e-06
7.23286e-06
7.43357e-06
7.62208e-06
7.80027e-06
7.96896e-06
8.12837e-06
8.27842e-06
8.41893e-06
8.54973e-06
8.67072e-06
8.78192e-06
8.8835e-06
8.97584e-06
9.0595e-06
9.13525e-06
9.2041e-06
9.26734e-06
9.32655e-06
9.38379e-06
9.44198e-06
9.50611e-06
9.57826e-06
9.6526e-06
9.72658e-06
9.79635e-06
9.85552e-06
9.89593e-06
9.90881e-06
9.89176e-06
9.82105e-06
9.65185e-06
9.3618e-06
8.93551e-06
8.33327e-06
7.4844e-06
)
;
    }
    atmosphere
    {
        type            calculated;
        value           nonuniform 0();
    }
    defaultFaces
    {
        type            empty;
    }
    procBoundary0to1
    {
        type            processor;
        value           nonuniform List<scalar> 
44
(
5.15498e-05
0.000334468
0.000517029
0.000654353
0.00077484
0.000892981
0.00102206
0.00117526
0.00136689
0.00167089
0.00240664
0.00297981
0.00333032
0.0035766
0.00385519
0.00424121
0.00472075
0.00512596
0.00533604
0.00542774
0.00542774
0.00539954
0.00549786
0.00563208
0.00579822
0.00601893
0.00627755
0.00651985
0.00670313
0.00682302
0.00699022
0.00725151
0.00758839
0.00796386
0.00833218
0.00865649
0.0089042
0.00904528
0.00911582
0.00916551
0.00924113
0.00936154
0.00952441
0.00971297
)
;
    }
    procBoundary0to2
    {
        type            processor;
        value           nonuniform List<scalar> 
46
(
0.0101323
0.0103022
0.0104569
0.0105968
0.0107219
0.0108315
0.0109247
0.0110004
0.0110569
0.0110929
0.0111066
0.0110971
0.0110635
0.0110058
0.0109249
0.0108228
0.0107029
0.0105696
0.010429
0.0102884
0.0101561
0.0100407
0.0099512
0.00989516
0.00987849
9.02037e-05
0.000884003
0.00184883
0.00276295
0.00360383
0.00437127
0.00506938
0.00570333
0.00627843
0.00679985
0.00727245
0.00770077
0.00808903
0.0084411
0.00876056
0.0090507
0.00931456
0.00955479
0.00977371
0.0101323
0.00997328
)
;
    }
}


// ************************************************************************* //
