/*--------------------------------*- C++ -*----------------------------------*\
| =========                 |                                                 |
| \\      /  F ield         | OpenFOAM: The Open Source CFD Toolbox           |
|  \\    /   O peration     | Version:  5.0                                   |
|   \\  /    A nd           | Web:      www.OpenFOAM.org                      |
|    \\/     M anipulation  |                                                 |
\*---------------------------------------------------------------------------*/
FoamFile
{
    version     2.0;
    format      ascii;
    class       volScalarField;
    location    "0.85";
    object      p;
}
// * * * * * * * * * * * * * * * * * * * * * * * * * * * * * * * * * * * * * //

dimensions      [1 -1 -2 0 0 0 0];

internalField   nonuniform List<scalar> 
1935
(
515.519
514.026
513.03
513.033
514.353
516.898
520.485
524.951
530.165
536.02
542.425
549.302
556.583
564.209
572.129
580.297
588.671
597.216
605.897
614.686
623.556
632.484
641.453
650.449
659.462
668.487
677.525
686.575
695.624
704.679
713.763
722.879
731.986
741.047
749.987
758.534
766.871
774.129
780.931
786.257
789.859
791.883
792.376
791.449
468.859
467.097
465.883
465.945
467.429
470.171
473.964
478.626
484.016
490.02
496.545
503.51
510.849
518.507
526.434
534.589
542.932
551.43
560.05
568.764
577.548
586.379
595.237
604.108
612.981
621.848
630.704
639.548
648.375
657.189
665.978
674.728
683.414
692.009
700.482
708.791
716.736
723.559
729.467
734.578
738.645
740.989
741.796
741.221
420.935
419.159
418.24
418.67
420.418
423.371
427.361
432.217
437.796
443.975
450.653
457.745
465.184
472.912
480.883
489.056
497.393
505.862
514.433
523.079
531.775
540.499
549.231
557.956
566.659
575.33
583.961
592.545
601.078
609.538
617.925
626.22
634.4
642.437
650.318
658.043
665.418
671.886
677.577
682.831
687.337
690.118
691.412
691.073
371.943
370.307
369.817
370.688
372.77
375.984
380.199
385.266
391.044
397.413
404.264
411.51
419.079
426.913
434.966
443.194
451.563
460.039
468.595
477.202
485.837
494.477
503.101
511.693
520.236
528.717
537.125
545.451
553.685
561.815
569.83
577.715
585.456
593.037
600.444
607.664
614.558
620.845
626.578
631.917
636.501
639.71
641.317
641.178
322.038
320.724
320.647
321.914
324.341
327.846
332.315
337.617
343.62
350.205
357.26
364.693
372.431
380.412
388.588
396.917
405.361
413.888
422.469
431.077
439.688
448.278
456.826
465.314
473.724
482.042
490.255
498.352
506.324
514.163
521.858
529.404
536.795
544.028
551.101
558.001
564.647
570.879
576.667
581.972
586.472
589.714
591.394
591.322
271.25
270.421
270.737
272.345
275.109
278.925
283.683
289.258
295.528
302.373
309.677
317.342
325.292
333.467
341.813
350.286
358.85
367.471
376.117
384.763
393.386
401.959
410.461
418.873
427.179
435.36
443.404
451.3
459.043
466.625
474.043
481.297
488.395
495.345
502.16
508.84
515.337
521.542
527.365
532.65
537.029
540.06
541.506
541.252
219.538
219.291
220.012
221.95
225.065
229.224
234.308
240.2
246.782
253.938
261.542
269.489
277.702
286.12
294.684
303.347
312.076
320.834
329.585
338.306
346.976
355.565
364.049
372.414
380.642
388.712
396.61
404.331
411.87
419.222
426.389
433.382
440.215
446.914
453.506
460.007
466.392
472.57
478.399
483.624
487.778
490.361
491.213
490.508
166.777
167.17
168.385
170.736
174.283
178.857
184.319
190.559
197.481
204.981
212.922
221.188
229.704
238.408
247.235
256.133
265.073
274.012
282.907
291.74
300.493
309.131
317.626
325.97
334.148
342.132
349.908
357.474
364.831
371.972
378.906
385.651
392.232
398.687
405.064
411.398
417.682
423.832
429.655
434.795
438.607
440.413
440.145
438.537
112.882
113.701
115.473
118.363
122.492
127.651
133.653
140.374
147.741
155.676
164.014
172.618
181.441
190.441
199.547
208.705
217.892
227.051
236.124
245.102
253.978
262.7
271.231
279.581
287.739
295.661
303.331
310.762
317.953
324.896
331.602
338.101
344.425
350.626
356.775
362.933
369.118
375.246
381.081
386.171
389.55
390.108
387.769
384.012
56.9435
57.5439
59.4613
62.4771
66.9653
72.8814
79.9557
87.8659
96.401
105.429
114.636
123.783
133.025
142.389
151.807
161.224
170.657
180.043
189.302
198.443
207.479
216.317
224.906
233.287
241.459
249.342
256.918
264.226
271.267
278.013
284.486
290.73
296.778
302.695
308.583
314.541
320.618
326.742
332.66
337.87
340.859
339.54
333.408
324.012
12.8364
13.0606
14.0802
15.4568
17.816
21.5924
26.9411
33.7502
41.832
51.1023
61.3133
72.0483
82.6797
93.1749
103.396
113.259
123.039
132.705
142.146
151.433
160.643
169.618
178.266
186.7
194.933
202.803
210.288
217.484
224.387
230.932
237.154
243.122
248.858
254.439
260.009
265.712
271.651
277.794
283.927
289.698
292.741
289.13
277.593
259.394
-0.0325108
-0.0678824
0.0204475
0.0896515
0.273043
0.755216
1.77096
3.54048
6.23204
9.98682
15.1809
22.6465
31.4713
41.2439
51.7133
62.7673
73.8454
84.4838
94.3914
103.863
113.321
122.459
131.117
139.589
147.938
155.828
163.214
170.314
177.108
183.444
189.39
195.06
200.438
205.608
210.77
216.131
221.875
228.04
234.503
241.562
245.886
240.596
223.887
198.259
-0.254236
-0.26158
-0.248173
-0.244837
-0.236589
-0.223496
-0.218202
-0.229619
-0.243509
-0.241666
-0.12961
0.887594
3.04898
6.43225
11.1166
17.8517
26.3109
35.5536
45.0522
55.191
65.6001
75.2291
83.7741
92.1678
100.704
108.606
115.8
122.784
129.503
135.616
141.253
146.631
151.616
156.282
160.922
165.832
171.317
177.409
183.876
193.173
201.404
195.898
174.539
143.467
-0.313826
-0.316887
-0.317403
-0.324414
-0.334883
-0.349628
-0.363721
-0.375463
-0.382735
-0.380149
-0.364197
-0.350785
-0.398631
-0.422463
-0.398626
0.111201
1.83092
4.79057
8.94086
14.8492
22.2058
29.6195
36.7742
45.1703
54.2367
61.937
68.4755
75.1142
81.7143
87.4469
92.6265
97.7181
102.258
106.277
110.242
114.578
119.685
125.239
130.486
145.519
163.974
158.817
130.984
94.714
-0.375127
-0.377368
-0.376832
-0.38078
-0.387217
-0.397211
-0.408349
-0.41898
-0.427912
-0.434449
-0.446006
-0.474429
-0.499619
-0.506779
-0.489279
-0.474495
-0.534643
-0.585277
-0.573245
-0.240499
1.03799
3.23572
6.26482
10.7904
16.2244
20.5381
24.6113
30.3961
36.6638
41.4386
45.552
50.1016
53.9247
56.891
59.8081
63.0949
66.8309
70.1815
74.3925
107.713
146.399
136.362
94.7694
52.092
-0.440125
-0.441909
-0.44156
-0.443885
-0.447531
-0.453326
-0.460771
-0.469458
-0.478533
-0.487566
-0.499969
-0.5211
-0.539964
-0.5508
-0.555782
-0.580526
-0.612748
-0.624725
-0.60601
-0.597865
-0.668736
-0.724211
-0.723917
-0.627935
-0.17289
0.647868
2.1632
5.05179
8.28755
10.1241
11.3932
13.9196
15.9065
17.0775
18.3936
20.0097
21.3283
23.2228
36.1202
92.9495
140.826
122.679
63.4631
18.4339
-0.504728
-0.506244
-0.506211
-0.508246
-0.511417
-0.516166
-0.522373
-0.529859
-0.538223
-0.547199
-0.557842
-0.572351
-0.587815
-0.600603
-0.611744
-0.631635
-0.65356
-0.6655
-0.666915
-0.683866
-0.712707
-0.723154
-0.707426
-0.702997
-0.747938
-0.797263
-0.808431
-0.803757
-0.782083
-0.768364
-0.756532
-0.0981503
0.434204
0.632908
0.822195
1.22558
2.17381
3.61148
20.9143
67.4632
106.801
94.297
31.7501
4.47399
-0.568876
-0.569713
-0.570114
-0.571766
-0.574619
-0.578901
-0.584524
-0.591323
-0.599098
-0.607774
-0.617792
-0.630042
-0.643354
-0.655834
-0.667667
-0.682683
-0.699659
-0.71295
-0.721681
-0.736268
-0.753522
-0.761259
-0.757555
-0.758629
-0.771055
-0.777401
-0.771237
-0.758793
-0.742907
-0.732168
-0.741247
-0.78329
-0.733672
-0.684335
-0.612152
-0.217268
1.44581
3.34729
10.1899
26.9282
61.0018
55.5671
9.23687
4.9235
-0.633003
-0.633379
-0.633717
-0.635047
-0.637535
-0.641316
-0.646356
-0.652546
-0.659776
-0.668029
-0.677525
-0.688573
-0.700481
-0.712274
-0.723983
-0.737105
-0.751197
-0.763475
-0.773223
-0.78446
-0.796979
-0.805043
-0.80708
-0.809812
-0.815239
-0.816955
-0.81079
-0.798551
-0.781615
-0.761487
-0.734959
-0.680478
-0.607227
-0.509942
-0.364308
-0.0826626
0.493949
1.46035
3.92242
13.2505
40.7642
31.8709
6.22769
6.1549
-0.697226
-0.697219
-0.697347
-0.698419
-0.700593
-0.703938
-0.70845
-0.714077
-0.720756
-0.728467
-0.737292
-0.747308
-0.758098
-0.769124
-0.780326
-0.792217
-0.804363
-0.815342
-0.824686
-0.834012
-0.843282
-0.849727
-0.8525
-0.854563
-0.857123
-0.856868
-0.85074
-0.838622
-0.82033
-0.795599
-0.760778
-0.706106
-0.633802
-0.536133
-0.395914
-0.186448
0.0866264
0.323786
0.624368
6.51284
28.4084
19.2412
6.65065
6.69584
-0.761537
-0.761167
-0.761059
-0.761904
-0.763812
-0.766806
-0.770887
-0.77603
-0.782192
-0.789346
-0.797492
-0.806607
-0.816433
-0.826631
-0.837063
-0.847805
-0.858481
-0.868279
-0.876839
-0.884699
-0.891654
-0.896401
-0.898536
-0.899438
-0.8996
-0.897278
-0.890131
-0.877457
-0.858398
-0.832263
-0.797029
-0.748319
-0.684135
-0.602519
-0.497936
-0.36237
-0.224822
-0.208295
-0.455244
1.11585
12.3062
12.9555
6.84559
6.7888
6.43611
-0.825969
-0.82526
-0.824915
-0.825542
-0.82721
-0.829905
-0.833625
-0.83835
-0.844046
-0.850675
-0.858199
-0.866551
-0.875543
-0.884928
-0.894527
-0.904221
-0.913687
-0.922392
-0.930007
-0.936593
-0.941921
-0.945354
-0.946712
-0.946618
-0.945216
-0.941413
-0.933676
-0.920962
-0.90226
-0.876783
-0.843412
-0.800461
-0.747291
-0.685554
-0.618179
-0.546708
-0.480631
-0.502271
-0.870651
-1.25338
0.507626
8.15635
6.96884
6.79135
6.6443
-0.890554
-0.889551
-0.888978
-0.889395
-0.890841
-0.893274
-0.896681
-0.901039
-0.906315
-0.912462
-0.919423
-0.927115
-0.935378
-0.94401
-0.952815
-0.961596
-0.970052
-0.977779
-0.984461
-0.989968
-0.994098
-0.996527
-0.997194
-0.996403
-0.994176
-0.989804
-0.982171
-0.970218
-0.952982
-0.929861
-0.900535
-0.864917
-0.824069
-0.781232
-0.741983
-0.710916
-0.686822
-0.711382
-1.05133
-1.77863
-5.34001
3.81875
6.95249
6.79692
6.92816
-0.955322
-0.954073
-0.953292
-0.953513
-0.954757
-0.956958
-0.960091
-0.964126
-0.969025
-0.974736
-0.981192
-0.9883
-0.995922
-1.00387
-1.01196
-1.01995
-1.02756
-1.03445
-1.04032
-1.04496
-1.04821
-1.0499
-1.05006
-1.04887
-1.04637
-1.04208
-1.03517
-1.02467
-1.00981
-0.990261
-0.966324
-0.938866
-0.909782
-0.882631
-0.862739
-0.854172
-0.854096
-0.88016
-1.10867
-1.60031
-7.25342
-4.1106
5.30042
6.95864
7.32065
-1.0203
-1.01885
-1.01789
-1.01793
-1.01899
-1.02099
-1.02388
-1.02763
-1.0322
-1.03752
-1.04352
-1.05012
-1.05717
-1.06452
-1.07197
-1.07929
-1.0862
-1.0924
-1.0976
-1.10159
-1.10423
-1.10544
-1.1053
-1.10401
-1.10164
-1.09792
-1.09218
-1.08366
-1.07174
-1.0564
-1.03829
-1.01871
-0.999751
-0.98467
-0.9775
-0.981204
-0.993735
-1.01598
-1.10408
-1.35134
-6.62132
-11.2095
1.23417
7.94797
7.65909
-1.08552
-1.08391
-1.0828
-1.08268
-1.08358
-1.08539
-1.08807
-1.09156
-1.09583
-1.10081
-1.10641
-1.11256
-1.11913
-1.12595
-1.13285
-1.13961
-1.14595
-1.1516
-1.15629
-1.15983
-1.16208
-1.16303
-1.16282
-1.16168
-1.15976
-1.1569
-1.15267
-1.14643
-1.13775
-1.12678
-1.11435
-1.10186
-1.09126
-1.08521
-1.08655
-1.09688
-1.11339
-1.12241
-1.13112
-1.34285
-4.75405
-13.7205
-6.32073
5.27781
8.03032
-1.15101
-1.14929
-1.14805
-1.1478
-1.14855
-1.15019
-1.15267
-1.15594
-1.15994
-1.1646
-1.16986
-1.17562
-1.18176
-1.18814
-1.19458
-1.20087
-1.20676
-1.212
-1.21634
-1.21958
-1.22164
-1.22254
-1.22245
-1.22167
-1.22039
-1.21861
-1.21603
-1.21219
-1.20678
-1.20005
-1.19287
-1.18656
-1.18282
-1.18372
-1.19136
-1.20667
-1.22677
-1.23556
-1.23648
-1.4761
-3.05244
-11.8733
-14.3064
0.698304
9.57389
-1.2168
-1.21502
-1.2137
-1.21333
-1.21394
-1.21543
-1.21772
-1.22078
-1.22453
-1.22891
-1.23386
-1.23928
-1.24505
-1.25105
-1.25712
-1.26304
-1.26859
-1.27354
-1.27766
-1.28076
-1.28279
-1.2838
-1.284
-1.2837
-1.28321
-1.2826
-1.28172
-1.28023
-1.27793
-1.27512
-1.27261
-1.27159
-1.27347
-1.27991
-1.29253
-1.31215
-1.33733
-1.35905
-1.37889
-1.52621
-1.8883
-8.14401
-16.8883
-9.28571
7.80464
-1.28292
-1.28113
-1.27975
-1.2793
-1.2798
-1.28114
-1.28326
-1.28611
-1.28963
-1.29376
-1.29843
-1.30354
-1.309
-1.31468
-1.32043
-1.32607
-1.33138
-1.33615
-1.34016
-1.34326
-1.34539
-1.34664
-1.34725
-1.34756
-1.34791
-1.3485
-1.34927
-1.34999
-1.35054
-1.3512
-1.35273
-1.35616
-1.36264
-1.37349
-1.39
-1.41291
-1.44193
-1.47289
-1.50024
-1.56381
-1.79429
-4.2292
-14.8127
-18.6479
-0.357316
-1.34939
-1.34762
-1.34623
-1.34572
-1.34613
-1.34734
-1.34931
-1.35197
-1.35528
-1.35918
-1.36358
-1.36843
-1.37361
-1.37902
-1.38452
-1.38994
-1.39508
-1.39975
-1.40375
-1.40695
-1.4093
-1.41089
-1.412
-1.41297
-1.41422
-1.41598
-1.41831
-1.42104
-1.42412
-1.4278
-1.43274
-1.43985
-1.45006
-1.4644
-1.48395
-1.50941
-1.54088
-1.57728
-1.6144
-1.65741
-1.78421
-2.2039
-9.67169
-20.8584
-13.869
-1.4162
-1.4145
-1.41313
-1.41259
-1.41293
-1.41404
-1.41587
-1.41837
-1.42148
-1.42516
-1.42934
-1.43394
-1.43889
-1.44407
-1.44936
-1.45462
-1.45966
-1.4643
-1.46836
-1.47173
-1.47437
-1.47639
-1.47804
-1.47972
-1.48185
-1.48473
-1.48847
-1.49301
-1.49829
-1.50453
-1.51231
-1.5224
-1.53558
-1.55264
-1.57446
-1.60168
-1.63444
-1.67256
-1.7139
-1.74988
-1.79534
-2.03781
-3.93663
-15.1462
-23.5306
-1.48335
-1.48174
-1.48042
-1.47988
-1.48017
-1.4812
-1.48291
-1.48527
-1.48822
-1.49171
-1.49569
-1.50008
-1.50482
-1.50981
-1.51494
-1.52007
-1.52505
-1.52971
-1.5339
-1.5375
-1.54048
-1.54296
-1.54519
-1.54757
-1.55053
-1.55443
-1.55945
-1.56555
-1.57271
-1.5811
-1.5912
-1.60366
-1.61914
-1.63826
-1.66171
-1.69012
-1.72373
-1.7625
-1.80645
-1.85226
-1.89672
-1.99131
-2.28707
-6.55282
-21.1139
-1.55082
-1.54932
-1.54807
-1.54755
-1.54781
-1.54878
-1.5504
-1.55264
-1.55545
-1.55878
-1.56259
-1.5668
-1.57137
-1.5762
-1.5812
-1.58624
-1.5912
-1.59593
-1.60027
-1.60413
-1.60749
-1.61045
-1.61326
-1.6163
-1.62003
-1.62484
-1.63095
-1.63837
-1.64709
-1.65723
-1.66918
-1.68349
-1.70071
-1.72131
-1.74584
-1.77485
-1.80869
-1.84733
-1.89092
-1.9397
-1.99049
-2.0423
-2.12988
-2.48771
-9.50431
-1.61859
-1.61721
-1.61604
-1.61555
-1.6158
-1.61673
-1.61829
-1.62043
-1.62312
-1.62632
-1.62998
-1.63406
-1.63848
-1.64318
-1.64808
-1.65308
-1.65805
-1.66286
-1.66738
-1.67153
-1.67528
-1.67871
-1.68208
-1.68574
-1.69016
-1.69574
-1.70274
-1.71124
-1.72121
-1.73273
-1.7461
-1.76178
-1.78024
-1.80183
-1.82694
-1.85602
-1.88944
-1.92721
-1.96905
-2.0153
-2.06578
-2.11413
-2.14735
-2.22625
-2.62899
-1.68663
-1.68538
-1.6843
-1.68385
-1.68411
-1.68501
-1.68651
-1.68858
-1.69118
-1.69427
-1.69782
-1.70177
-1.70608
-1.71069
-1.71552
-1.72049
-1.72549
-1.73041
-1.73514
-1.73958
-1.74371
-1.74762
-1.75151
-1.75574
-1.76076
-1.76697
-1.77469
-1.78401
-1.79494
-1.80749
-1.8219
-1.83853
-1.85778
-1.87992
-1.90521
-1.93396
-1.96648
-2.00285
-2.04277
-2.08589
-2.13281
-2.18251
-2.22588
-2.25758
-2.32956
-1.75494
-1.75381
-1.75282
-1.75242
-1.75269
-1.75357
-1.75503
-1.75704
-1.75956
-1.76257
-1.76602
-1.76988
-1.7741
-1.77864
-1.78343
-1.7884
-1.79346
-1.7985
-1.80343
-1.80817
-1.81269
-1.81705
-1.82144
-1.82619
-1.83172
-1.83844
-1.84669
-1.85661
-1.86822
-1.8815
-1.8966
-1.91381
-1.93345
-1.95576
-1.9809
-2.00904
-2.04039
-2.07505
-2.11286
-2.15339
-2.1965
-2.24282
-2.29138
-2.33765
-2.36866
-1.82351
-1.82249
-1.82159
-1.82124
-1.82152
-1.82239
-1.82382
-1.82578
-1.82824
-1.83117
-1.83455
-1.83833
-1.84249
-1.84698
-1.85175
-1.85673
-1.86185
-1.86703
-1.87217
-1.87721
-1.8821
-1.8869
-1.89177
-1.897
-1.90297
-1.9101
-1.91873
-1.92904
-1.94107
-1.95479
-1.97028
-1.98774
-2.00745
-2.0296
-2.0543
-2.08162
-2.11166
-2.14451
-2.18005
-2.21804
-2.2581
-2.3
-2.34419
-2.39078
-2.42676
-1.89232
-1.89142
-1.89061
-1.89031
-1.8906
-1.89147
-1.89286
-1.89478
-1.89718
-1.90006
-1.90337
-1.90709
-1.9112
-1.91565
-1.92041
-1.92542
-1.93061
-1.93593
-1.94128
-1.9466
-1.95186
-1.95709
-1.96241
-1.96808
-1.97444
-1.98189
-1.99078
-2.00131
-2.01355
-2.02747
-2.04307
-2.0605
-2.07998
-2.10169
-2.1257
-2.15204
-2.18073
-2.21176
-2.24508
-2.28055
-2.31789
-2.35672
-2.39686
-2.4388
-2.48023
-1.96139
-1.96059
-1.95987
-1.95962
-1.95993
-1.96078
-1.96215
-1.96403
-1.96638
-1.9692
-1.97246
-1.97613
-1.98019
-1.98462
-1.98937
-1.99441
-1.99968
-2.00513
-2.01068
-2.01628
-2.02189
-2.02753
-2.03329
-2.03938
-2.0461
-2.0538
-2.06284
-2.07345
-2.0857
-2.09959
-2.11508
-2.13224
-2.15125
-2.17228
-2.19541
-2.22063
-2.24792
-2.27723
-2.30847
-2.34155
-2.3763
-2.41249
-2.44997
-2.48866
-2.52835
-2.03072
-2.03001
-2.02938
-2.02917
-2.0295
-2.03035
-2.0317
-2.03353
-2.03584
-2.03861
-2.04181
-2.04544
-2.04946
-2.05386
-2.0586
-2.06367
-2.06901
-2.07458
-2.08032
-2.08618
-2.09213
-2.09816
-2.10434
-2.11083
-2.11788
-2.1258
-2.13491
-2.14546
-2.15755
-2.1712
-2.18636
-2.20306
-2.22142
-2.2416
-2.2637
-2.28773
-2.31362
-2.34128
-2.37061
-2.4015
-2.43382
-2.46746
-2.50238
-2.53858
-2.57562
-2.10032
-2.0997
-2.09914
-2.09899
-2.09933
-2.10017
-2.1015
-2.1033
-2.10556
-2.10828
-2.11143
-2.115
-2.11899
-2.12335
-2.12809
-2.13318
-2.13857
-2.14425
-2.15016
-2.15627
-2.16253
-2.16893
-2.17551
-2.18239
-2.18974
-2.19784
-2.20695
-2.21732
-2.22909
-2.2423
-2.25695
-2.27303
-2.29063
-2.30989
-2.33091
-2.3537
-2.37821
-2.4043
-2.43183
-2.4607
-2.49078
-2.52199
-2.55435
-2.58796
-2.62265
-2.1702
-2.16966
-2.16918
-2.16907
-2.16943
-2.17027
-2.17157
-2.17333
-2.17555
-2.17821
-2.18131
-2.18484
-2.18878
-2.19311
-2.19783
-2.20292
-2.20835
-2.21412
-2.22017
-2.2265
-2.23304
-2.23978
-2.24674
-2.25397
-2.26161
-2.26984
-2.27889
-2.28898
-2.30028
-2.3129
-2.32688
-2.34226
-2.35908
-2.37743
-2.39739
-2.41896
-2.44207
-2.46661
-2.49241
-2.51935
-2.54732
-2.57623
-2.60609
-2.63701
-2.66902
-2.24036
-2.2399
-2.23949
-2.23943
-2.23981
-2.24064
-2.24192
-2.24364
-2.24582
-2.24843
-2.25148
-2.25495
-2.25883
-2.26313
-2.26782
-2.27289
-2.27834
-2.28416
-2.29032
-2.29681
-2.30357
-2.31058
-2.31784
-2.32538
-2.33326
-2.34159
-2.35056
-2.36034
-2.37115
-2.38313
-2.39641
-2.41104
-2.42708
-2.44455
-2.46348
-2.48383
-2.50554
-2.52851
-2.5526
-2.57767
-2.60359
-2.63029
-2.65772
-2.68592
-2.715
-2.31084
-2.31044
-2.3101
-2.31008
-2.31047
-2.3113
-2.31256
-2.31425
-2.31638
-2.31894
-2.32193
-2.32534
-2.32917
-2.3334
-2.33805
-2.34309
-2.34852
-2.35435
-2.36056
-2.36712
)
;

boundaryField
{
    leftWall
    {
        type            calculated;
        value           nonuniform List<scalar> 
44
(
515.519
468.859
420.935
371.943
322.038
271.25
219.538
166.777
112.882
56.9435
12.8364
-0.0325108
-0.254236
-0.313826
-0.375127
-0.440125
-0.504728
-0.568876
-0.633003
-0.697226
-0.761537
-0.825969
-0.890554
-0.955322
-1.0203
-1.08552
-1.15101
-1.2168
-1.28292
-1.34939
-1.4162
-1.48335
-1.55082
-1.61859
-1.68663
-1.75494
-1.82351
-1.89232
-1.96139
-2.03072
-2.10032
-2.1702
-2.24036
-2.31084
)
;
    }
    rightWall
    {
        type            calculated;
        value           nonuniform 0();
    }
    lowerWall
    {
        type            calculated;
        value           nonuniform List<scalar> 
44
(
539.062
537.57
536.573
536.576
537.897
540.442
544.029
548.494
553.708
559.563
565.969
572.846
580.127
587.753
595.673
603.84
612.215
620.759
629.441
638.229
647.099
656.028
664.997
673.992
683.005
692.031
701.068
710.118
719.168
728.222
737.306
746.423
755.53
764.591
773.531
781.905
789.648
797.292
804.474
809.785
813.268
815.183
815.688
814.914
)
;
    }
    atmosphere
    {
        type            calculated;
        value           nonuniform 0();
    }
    defaultFaces
    {
        type            empty;
    }
    procBoundary0to1
    {
        type            processor;
        value           nonuniform List<scalar> 
44
(
789.182
739.343
689.406
639.389
589.369
539.215
488.611
437.337
383.47
319.316
238.338
165.863
105.867
55.6383
18.9253
5.46756
5.48131
5.7755
5.96501
6.21225
6.21225
6.01487
6.29141
6.75589
7.40782
8.08648
8.82336
9.35139
9.73605
10.8434
6.91865
-7.58846
-22.9868
-24.4117
-11.2934
-2.72911
-2.38218
-2.41415
-2.50566
-2.56784
-2.61384
-2.65827
-2.70211
-2.74506
)
;
    }
    procBoundary0to2
    {
        type            processor;
        value           nonuniform List<scalar> 
46
(
-2.374
-2.38117
-2.38862
-2.39636
-2.40443
-2.41286
-2.42179
-2.43136
-2.44177
-2.45321
-2.46584
-2.47975
-2.49499
-2.51156
-2.52942
-2.54855
-2.56886
-2.59026
-2.61264
-2.63587
-2.65982
-2.68437
-2.70943
-2.735
-2.76113
-2.38163
-2.38129
-2.38101
-2.38103
-2.38145
-2.38228
-2.38352
-2.38518
-2.38726
-2.38977
-2.39269
-2.39604
-2.39979
-2.40396
-2.40853
-2.41351
-2.41889
-2.42467
-2.43085
-2.374
-2.4374
)
;
    }
}


// ************************************************************************* //
