/*--------------------------------*- C++ -*----------------------------------*\
| =========                 |                                                 |
| \\      /  F ield         | OpenFOAM: The Open Source CFD Toolbox           |
|  \\    /   O peration     | Version:  5.0                                   |
|   \\  /    A nd           | Web:      www.OpenFOAM.org                      |
|    \\/     M anipulation  |                                                 |
\*---------------------------------------------------------------------------*/
FoamFile
{
    version     2.0;
    format      ascii;
    class       volScalarField;
    location    "0.85";
    object      p_rgh;
}
// * * * * * * * * * * * * * * * * * * * * * * * * * * * * * * * * * * * * * //

dimensions      [1 -1 -2 0 0 0 0];

internalField   nonuniform List<scalar> 
1935
(
539.062
537.57
536.573
536.576
537.897
540.442
544.029
548.494
553.708
559.563
565.969
572.846
580.127
587.753
595.673
603.84
612.215
620.759
629.441
638.229
647.099
656.028
664.997
673.992
683.005
692.031
701.068
710.118
719.168
728.222
737.306
746.423
755.53
764.591
773.531
781.905
789.648
797.292
804.474
809.785
813.268
815.183
815.688
814.914
539.49
537.728
536.514
536.576
538.059
540.802
544.594
549.256
554.646
560.651
567.175
574.141
581.48
589.137
597.065
605.219
613.563
622.06
630.68
639.395
648.179
657.009
665.867
674.739
683.612
692.478
701.335
710.178
719.005
727.819
736.609
745.358
754.045
762.64
771.113
779.201
786.459
793.068
799.447
804.363
807.336
809.68
810.487
810.243
538.653
536.877
535.958
536.387
538.136
541.089
545.078
549.934
555.513
561.692
568.37
575.463
582.901
590.63
598.601
606.773
615.11
623.58
632.15
640.796
649.492
658.216
666.949
675.673
684.376
693.047
701.678
710.262
718.795
727.255
735.643
743.938
752.117
760.155
768.035
775.76
783.136
789.603
795.295
799.023
801.932
804.603
806.2
807.965
536.747
535.112
534.622
535.492
537.574
540.788
545.004
550.07
555.849
562.217
569.068
576.314
583.883
591.718
599.77
607.998
616.367
624.844
633.399
642.006
650.641
659.281
667.906
676.497
685.04
693.522
701.93
710.255
718.489
726.619
734.634
742.52
750.261
757.841
765.249
772.468
779.362
785.65
791.383
796.721
801.306
804.186
805.985
805.982
533.93
532.616
532.538
533.806
536.233
539.737
544.207
549.508
555.512
562.096
569.152
576.585
584.322
592.304
600.48
608.808
617.252
625.78
634.36
642.968
651.579
660.169
668.717
677.205
685.616
693.934
702.146
710.243
718.215
726.054
733.75
741.295
748.687
755.92
762.993
769.893
776.538
782.77
788.559
793.863
798.364
801.606
803.285
803.213
530.229
529.4
529.716
531.324
534.087
537.903
542.661
548.236
554.506
561.351
568.655
576.32
584.271
592.445
600.791
609.264
617.828
626.449
635.095
643.742
652.364
660.938
669.439
677.852
686.157
694.339
702.382
710.279
718.021
725.603
733.021
740.276
747.373
754.323
761.139
767.818
774.315
780.52
786.344
791.628
796.008
799.038
800.485
800.23
525.603
525.357
526.077
528.016
531.13
535.289
540.374
546.265
552.847
560.003
567.607
575.554
583.767
592.185
600.749
609.413
618.141
626.899
635.65
644.371
653.041
661.63
670.115
678.479
686.707
694.777
702.676
710.396
717.935
725.287
732.455
739.447
746.281
752.98
759.571
766.072
772.457
778.635
784.464
789.689
793.844
796.426
797.279
796.573
519.929
520.323
521.538
523.889
527.435
532.009
537.471
543.711
550.634
558.134
566.075
574.34
582.857
591.561
600.387
609.285
618.225
627.164
636.06
644.892
653.645
662.283
670.779
679.122
687.301
695.285
703.06
710.627
717.983
725.125
732.058
738.803
745.384
751.84
758.216
764.55
770.835
776.984
782.807
787.947
791.759
793.566
793.297
791.689
513.122
513.94
515.713
518.602
522.732
527.891
533.893
540.613
547.981
555.915
564.254
572.857
581.681
590.681
599.787
608.945
618.131
627.29
636.363
645.341
654.217
662.939
671.47
679.82
687.978
695.9
703.57
711.001
718.193
725.135
731.841
738.34
744.664
750.865
757.014
763.172
769.358
775.485
781.321
786.41
789.789
790.347
788.008
784.251
504.27
504.87
506.788
509.803
514.292
520.208
527.282
535.192
543.727
552.756
561.962
571.109
580.351
589.715
599.133
608.55
617.983
627.369
636.628
645.77
654.805
663.644
672.232
680.613
688.785
696.669
704.244
711.552
718.593
725.339
731.813
738.056
744.104
750.021
755.91
761.867
767.944
774.069
779.986
785.196
788.186
786.866
780.734
771.338
266.297
260.826
256.964
260.01
279.104
316.359
367.441
424.067
478.379
525.323
556.149
566.884
577.515
588.01
598.231
608.094
617.874
627.54
636.981
646.268
655.478
664.453
673.101
681.536
689.768
697.638
705.123
712.319
719.222
725.767
731.99
737.958
743.693
749.275
754.844
760.547
766.486
772.63
778.762
784.534
787.576
783.966
772.428
754.229
3.59643
2.99453
3.04718
3.38784
5.37828
11.617
26.5661
55.5188
102.459
169.653
260.301
368.968
464.48
540.713
590.018
605.756
616.834
627.473
637.38
646.852
656.309
665.448
674.106
682.578
690.927
698.817
706.203
713.303
720.097
726.433
732.378
738.049
743.427
748.597
753.759
759.12
764.863
771.028
777.491
784.549
788.873
783.584
766.875
741.247
0.337282
0.353687
0.376743
0.382739
0.395386
0.418672
0.444673
0.46915
0.506322
0.575494
1.83113
18.0948
59.5086
128.887
227.436
357.913
482.758
580.355
633.679
646.78
657.19
666.819
675.364
683.757
692.294
700.196
707.39
714.373
721.093
727.205
732.842
738.221
743.205
747.871
752.511
757.421
762.905
768.995
775.456
784.739
792.968
787.481
766.127
735.047
0.32681
0.325294
0.325643
0.318925
0.308819
0.294792
0.282033
0.272465
0.268119
0.274715
0.297766
0.329846
0.316798
0.34024
0.43277
9.64772
48.85
122.688
231.316
379.791
526.523
632.257
676.71
685.812
694.878
702.578
709.117
715.755
722.355
728.088
733.268
738.359
742.898
746.915
750.879
755.21
760.307
765.831
770.994
785.865
804.334
799.397
771.611
735.261
0.315022
0.312884
0.31349
0.309569
0.303162
0.293221
0.282173
0.271682
0.262931
0.256662
0.245538
0.218192
0.19479
0.190205
0.212025
0.234506
0.193917
0.166977
0.210369
8.54335
48.0379
120.142
225.45
384.587
552.887
658.393
695.923
711.958
725.234
731.554
735.659
740.198
744.01
746.953
749.831
753.046
756.616
757.932
743.778
755.209
816.328
820.912
784.808
741.461
0.29999
0.298213
0.298568
0.296245
0.292602
0.286811
0.279372
0.270694
0.26163
0.252613
0.240239
0.219174
0.200414
0.18971
0.184929
0.160599
0.129248
0.118231
0.137578
0.148339
0.0837458
0.0309291
0.0310131
4.41643
26.716
64.6921
136.647
272.792
416.177
497.888
548.887
588.827
612.979
616.808
610.841
591.54
533.723
431.374
318.567
313.734
556.85
833.804
802.742
666.866
0.285819
0.284303
0.284336
0.282301
0.27913
0.274382
0.268175
0.26069
0.252327
0.243352
0.232711
0.218206
0.202748
0.189966
0.178835
0.158967
0.137082
0.125176
0.123804
0.106926
0.0782518
0.0678279
0.0833827
0.0877432
0.0425944
-0.0067168
-0.0178846
-0.0132104
0.00846308
0.0221825
0.991314
51.279
73.9478
77.7894
74.1436
61.8522
33.5911
6.4726
25.1493
73.5459
360.002
838.428
798.204
233.797
0.272569
0.271733
0.271332
0.26968
0.266826
0.262545
0.256921
0.250123
0.242348
0.233672
0.223654
0.211405
0.198092
0.185613
0.173781
0.158765
0.141792
0.128501
0.119772
0.105187
0.0879369
0.0801982
0.0838989
0.0828231
0.0703912
0.0640449
0.070209
0.0826529
0.0985379
0.109277
0.100198
0.0581553
0.107774
0.157114
0.229329
0.624606
2.29286
4.2716
11.9093
61.9051
522.449
839.968
560.498
7.07746
0.259815
0.259439
0.259101
0.257771
0.255283
0.251501
0.246461
0.240271
0.233041
0.224788
0.215292
0.204244
0.192337
0.180543
0.168835
0.155713
0.141621
0.129342
0.119595
0.108357
0.0958379
0.0877748
0.0857375
0.083005
0.0775788
0.0758621
0.0820274
0.0942644
0.111198
0.131327
0.157857
0.21234
0.285593
0.382912
0.528964
0.814955
1.42688
2.61297
6.19602
117.757
657.673
791.042
172.818
7.0485
0.24744
0.247447
0.247319
0.246247
0.244073
0.240728
0.236216
0.230589
0.22391
0.216199
0.207374
0.197358
0.186568
0.175542
0.16434
0.152449
0.140303
0.129324
0.11998
0.110653
0.10138
0.0949287
0.092143
0.0900624
0.087483
0.0877178
0.0938269
0.105949
0.124274
0.149043
0.183876
0.23856
0.310867
0.408582
0.549298
0.763028
1.06677
1.4882
2.72178
132.463
655.166
639.077
18.1994
7.64154
0.235459
0.235829
0.235937
0.235092
0.233184
0.23019
0.226109
0.220966
0.214804
0.20765
0.199504
0.190389
0.180563
0.170366
0.159933
0.149191
0.138515
0.128715
0.120152
0.112287
0.105322
0.100561
0.0984045
0.0974729
0.0972761
0.0995581
0.106663
0.119307
0.138365
0.164537
0.199835
0.248626
0.312861
0.394499
0.499307
0.637052
0.791697
0.904318
1.24209
75.9295
512.68
509.274
7.85015
7.78779
7.43446
0.223843
0.224552
0.224898
0.22427
0.222602
0.219907
0.216187
0.211462
0.205766
0.199137
0.191613
0.183261
0.174269
0.164884
0.155285
0.145591
0.136124
0.127418
0.1198
0.113208
0.10787
0.104422
0.103042
0.103106
0.104471
0.108231
0.115921
0.128594
0.147275
0.172765
0.206182
0.249213
0.302508
0.364258
0.431718
0.504096
0.57788
0.606271
0.61162
39.377
393.311
459.083
8.05458
7.84712
7.69669
0.212564
0.213567
0.21414
0.213723
0.212277
0.209844
0.206438
0.202079
0.196804
0.190657
0.183695
0.176004
0.16774
0.159108
0.150303
0.141522
0.133066
0.125338
0.118654
0.113142
0.109006
0.106566
0.105881
0.106649
0.108846
0.113182
0.120774
0.132686
0.149891
0.173005
0.202353
0.238027
0.278975
0.321887
0.361164
0.392604
0.420332
0.425532
0.336681
17.5933
338.488
475.625
8.33463
7.91203
8.03638
0.201598
0.202847
0.203627
0.203407
0.202163
0.199961
0.196829
0.192794
0.187894
0.182184
0.175728
0.16862
0.160998
0.153046
0.144962
0.13697
0.129358
0.122468
0.116601
0.111953
0.1087
0.107
0.106836
0.108006
0.110489
0.114746
0.121631
0.132092
0.14693
0.166453
0.190391
0.217877
0.247028
0.274289
0.29419
0.302893
0.304668
0.296764
0.241711
6.97903
285.686
485.291
83.1016
8.12297
8.49031
0.190919
0.19237
0.193332
0.19329
0.192229
0.190232
0.18734
0.183589
0.179025
0.173704
0.167699
0.161102
0.154046
0.146696
0.139248
0.131931
0.12502
0.118821
0.113618
0.109624
0.106987
0.105774
0.105906
0.107186
0.109541
0.113254
0.118966
0.127464
0.139353
0.154672
0.17277
0.192359
0.211347
0.226508
0.233721
0.230065
0.21825
0.205886
0.222291
1.30867
191.701
491.919
281.561
9.21974
8.91177
0.180505
0.182112
0.183229
0.183344
0.182448
0.180636
0.17796
0.174462
0.170195
0.16522
0.159611
0.153463
0.146898
0.140071
0.133171
0.126419
0.120076
0.114425
0.109731
0.106198
0.103949
0.102993
0.103196
0.10433
0.106252
0.109094
0.113318
0.119542
0.128198
0.139147
0.151559
0.164043
0.174651
0.180743
0.179474
0.16916
0.152896
0.148245
0.195874
0.763037
95.1902
450.098
445.432
144.193
9.36315
0.17033
0.172046
0.173285
0.173538
0.172791
0.171149
0.16867
0.165403
0.161404
0.156738
0.15148
0.145721
0.139579
0.1332
0.126759
0.12047
0.114575
0.109336
0.105
0.101757
0.0997016
0.0988026
0.0988825
0.0996701
0.100946
0.102718
0.105288
0.109123
0.114516
0.121229
0.128394
0.134688
0.138432
0.137538
0.12996
0.114671
0.0946344
0.0872715
0.112645
0.259791
40.8249
389.339
443.327
357.567
11.0741
0.160366
0.162143
0.163471
0.163836
0.163223
0.161738
0.159443
0.156392
0.15264
0.148254
0.143308
0.137892
0.132115
0.126113
0.120052
0.114129
0.108573
0.103625
0.0995111
0.0964047
0.094379
0.0933714
0.0931698
0.0934606
0.0939572
0.0945601
0.0954386
0.0969252
0.0992109
0.102018
0.104516
0.10552
0.103629
0.097184
0.0845927
0.065013
0.0398444
0.0184108
0.00534051
-0.0159664
4.63663
250.239
460.081
466.312
54.2528
0.150592
0.152383
0.153761
0.154213
0.153715
0.152373
0.150251
0.147401
0.143879
0.139751
0.135087
0.129973
0.124512
0.118829
0.113078
0.107442
0.10213
0.0973652
0.093356
0.0902575
0.088125
0.0868741
0.0862674
0.0859566
0.0855987
0.0850061
0.0842366
0.0835144
0.0829608
0.0822929
0.0807559
0.0773172
0.0708245
0.059968
0.043465
0.0205787
-0.00841373
-0.0393415
-0.0654032
-0.100945
0.253799
91.7823
481.671
469.675
337.962
0.140995
0.142759
0.14415
0.144658
0.144254
0.143038
0.141073
0.138408
0.135099
0.131207
0.126799
0.121955
0.11677
0.111358
0.10586
0.100443
0.0952976
0.0906289
0.0866274
0.0834323
0.0810851
0.0794876
0.0783858
0.0774068
0.076163
0.0743962
0.0720743
0.0693362
0.0662572
0.0625768
0.0576261
0.0505149
0.0402997
0.0259464
0.00639625
-0.0190578
-0.0505031
-0.0868979
-0.123899
-0.163687
-0.194636
3.2624
255.51
478.488
486.139
0.131579
0.133279
0.13465
0.135186
0.134851
0.13374
0.131911
0.129412
0.126295
0.122616
0.118438
0.113834
0.10889
0.103708
0.0984151
0.0931625
0.0881234
0.083483
0.0794151
0.0760448
0.0734041
0.0713877
0.0697343
0.0680559
0.0659331
0.0630518
0.059306
0.0547688
0.0494896
0.0432444
0.0354575
0.0253639
0.0121878
-0.00488067
-0.0267032
-0.0539309
-0.0866767
-0.12478
-0.166109
-0.20173
-0.231001
-0.0960708
55.8236
500.38
495.734
0.122358
0.123967
0.125289
0.125828
0.125539
0.12451
0.122795
0.120438
0.117488
0.113997
0.110021
0.105626
0.100888
0.0958998
0.0907724
0.0856408
0.0806601
0.0759973
0.0718093
0.0682097
0.0652239
0.0627462
0.0605159
0.0581402
0.0551789
0.0512743
0.046261
0.0401566
0.0329983
0.0246108
0.0145098
0.00203952
-0.0134431
-0.0325672
-0.056023
-0.0844355
-0.118043
-0.156799
-0.200742
-0.246525
-0.290194
-0.345161
0.194353
148.126
521.151
0.113356
0.114855
0.116109
0.116629
0.116365
0.115396
0.113771
0.111533
0.108724
0.105392
0.101589
0.0973715
0.0928076
0.0879776
0.0829798
0.0779323
0.0729726
0.0682495
0.0639048
0.0600414
0.0566821
0.0537252
0.0509187
0.0478747
0.0441435
0.0393342
0.0332297
0.0258028
0.017083
0.00694607
-0.00500038
-0.0193142
-0.0365336
-0.0571432
-0.0816738
-0.110686
-0.14453
-0.183165
-0.226741
-0.27552
-0.326259
-0.37627
-0.400576
0.968531
267.181
0.104598
0.105978
0.107149
0.107638
0.107382
0.106454
0.104899
0.102756
0.100063
0.0968629
0.0932023
0.0891316
0.0847094
0.0800053
0.0751043
0.0701088
0.0651396
0.0603285
0.0558026
0.0516558
0.0479103
0.0444739
0.0411103
0.0374455
0.0330291
0.0274486
0.0204437
0.0119441
0.00197266
-0.00954604
-0.0229137
-0.0385971
-0.0570507
-0.0786457
-0.103763
-0.132845
-0.166262
-0.204033
-0.245872
-0.292111
-0.342587
-0.390808
-0.422666
-0.432401
2.38117
0.0961106
0.0973667
0.098449
0.0988957
0.0986374
0.0977365
0.0962352
0.0941669
0.0915674
0.088475
0.0849303
0.0809775
0.0766672
0.0720589
0.0672251
0.0622543
0.0572511
0.0523312
0.0476078
0.0431673
0.039034
0.0351284
0.0312349
0.0270015
0.0219897
0.0157745
0.00805981
-0.00126633
-0.0121921
-0.0247492
-0.0391543
-0.0557873
-0.0750313
-0.0971747
-0.12247
-0.151222
-0.183741
-0.220115
-0.26003
-0.303141
-0.350065
-0.399757
-0.443013
-0.473946
-0.511014
0.0879126
0.0890469
0.090037
0.0904369
0.0901689
0.0892862
0.0878261
0.0858183
0.0832947
0.0802893
0.0768378
0.0729784
0.0687543
0.0642159
0.0594248
0.0544561
0.0493994
0.0443553
0.0394246
0.0346873
0.0301705
0.0258091
0.021414
0.0166634
0.0111393
0.00441489
-0.00383414
-0.0137572
-0.0253597
-0.0386406
-0.0537384
-0.0709487
-0.090594
-0.112907
-0.138044
-0.166184
-0.197536
-0.232203
-0.270006
-0.310533
-0.353648
-0.399963
-0.448518
-0.494732
-0.525326
0.0800187
0.0810356
0.0819337
0.0822847
0.0820032
0.0811329
0.0797061
0.0777485
0.0752881
0.0723545
0.0689787
0.0651935
0.0610353
0.0565468
0.0517791
0.0467954
0.0416716
0.0364945
0.0313527
0.0263201
0.0214269
0.0166251
0.0117544
0.0065286
0.000559235
-0.00656895
-0.0151984
-0.025514
-0.0375441
-0.0512669
-0.0667522
-0.0842137
-0.103922
-0.126074
-0.15077
-0.178091
-0.20814
-0.240983
-0.276533
-0.314521
-0.35458
-0.396478
-0.440659
-0.487251
-0.523192
0.0724369
0.0733426
0.0741506
0.0744522
0.0741555
0.0732945
0.0718964
0.0699825
0.0675767
0.0647043
0.061392
0.0576675
0.0535614
0.0491089
0.0443522
0.0393431
0.034145
0.0288314
0.0234799
0.0181583
0.0128998
0.00767243
0.00234694
-0.00332248
-0.00968452
-0.0171333
-0.0260174
-0.0365513
-0.0487909
-0.062706
-0.0783109
-0.0957435
-0.115223
-0.13693
-0.160942
-0.187281
-0.215967
-0.247001
-0.280327
-0.315794
-0.353134
-0.391965
-0.432096
-0.474038
-0.515469
0.0651701
0.0659717
0.0666926
0.0669451
0.0666323
0.0657791
0.0644069
0.0625328
0.0601763
0.0573588
0.0541026
0.0504308
0.0463686
0.0419444
0.037192
0.0321536
0.0268809
0.0214347
0.0158814
0.0102816
0.00467121
-0.000966185
-0.00672794
-0.012817
-0.0195352
-0.0272429
-0.0362817
-0.0468861
-0.0591422
-0.0730271
-0.0885163
-0.105682
-0.124692
-0.145718
-0.168844
-0.194071
-0.221363
-0.250669
-0.281913
-0.31499
-0.349741
-0.385934
-0.423407
-0.462096
-0.501785
0.058217
0.058922
0.0595591
0.0597633
0.0594342
0.0585879
0.0572401
0.0554036
0.0530937
0.0503276
0.0471237
0.0435008
0.039479
0.0350809
0.0303329
0.025268
0.0199269
0.0143579
0.00861574
0.00275383
-0.00319089
-0.00922092
-0.0154028
-0.0218931
-0.0289415
-0.0368623
-0.0459735
-0.0565189
-0.0686159
-0.0822642
-0.0974261
-0.114126
-0.132486
-0.152665
-0.174764
-0.198791
-0.224684
-0.252348
-0.281676
-0.312562
-0.344886
-0.378521
-0.413444
-0.449639
-0.486683
0.0515738
0.0521898
0.052747
0.0529038
0.052558
0.0517177
0.0503934
0.0485935
0.0463292
0.0436137
0.0404612
0.0368865
0.0329056
0.0285359
0.0237974
0.0187146
0.013317
0.00764106
0.001729
-0.00437532
-0.0106365
-0.0170385
-0.0236215
-0.0304965
-0.0378532
-0.0459475
-0.0550584
-0.0654257
-0.0771957
-0.0904105
-0.105055
-0.121138
-0.138742
-0.158001
-0.179019
-0.201814
-0.226317
-0.252405
-0.279943
-0.308808
-0.338888
-0.370097
-0.402458
-0.436071
-0.470762
0.0452345
0.04577
0.0462515
0.0463622
0.0459995
0.0451646
0.0438629
0.042099
0.0398801
0.0372155
0.0341152
0.0305907
0.0266544
0.022319
0.0175989
0.0125109
0.00707487
0.00131416
-0.004744
-0.0110668
-0.0176117
-0.0243524
-0.0313064
-0.0385395
-0.0461777
-0.0544083
-0.0634569
-0.073546
-0.0848502
-0.0974713
-0.111454
-0.126826
-0.143646
-0.161999
-0.181957
-0.203528
-0.226644
-0.251177
-0.276983
-0.303924
-0.331888
-0.360799
-0.390664
-0.42158
-0.453593
0.0391944
0.0396566
0.0400667
0.0401327
0.0397531
0.038923
0.0376431
0.0359143
0.0337405
0.0311275
0.0280821
0.0246124
0.0207264
0.016433
0.0117433
0.00666826
0.00121758
-0.00459771
-0.0107652
-0.017255
-0.0240157
-0.0310233
-0.0382803
-0.045817
-0.0536965
-0.0620339
-0.0709979
-0.0807862
-0.0915914
-0.103574
-0.116847
-0.131481
-0.14752
-0.164994
-0.183917
-0.204269
-0.225984
-0.248952
-0.27304
-0.298109
-0.324037
-0.350734
-0.378163
-0.406365
-0.43544
0.0334465
0.0338424
0.0341851
0.0342066
0.0338089
0.0329822
0.0317231
0.0300286
0.0278994
0.0253388
0.0223516
0.0189427
0.0151165
0.0108783
0.00623523
0.00119384
-0.00424042
-0.0100672
-0.0162784
-0.0228408
)
;

boundaryField
{
    leftWall
    {
        type            fixedFluxPressure;
        gradient        uniform 0;
        value           nonuniform List<scalar> 
44
(
539.062
539.49
538.653
536.747
533.93
530.229
525.603
519.929
513.122
504.27
266.297
3.59643
0.337282
0.32681
0.315022
0.29999
0.285819
0.272569
0.259815
0.24744
0.235459
0.223843
0.212564
0.201598
0.190919
0.180505
0.17033
0.160366
0.150592
0.140995
0.131579
0.122358
0.113356
0.104598
0.0961106
0.0879126
0.0800187
0.0724369
0.0651701
0.058217
0.0515738
0.0452345
0.0391944
0.0334465
)
;
    }
    rightWall
    {
        type            fixedFluxPressure;
        gradient        nonuniform 0();
        value           nonuniform 0();
    }
    lowerWall
    {
        type            fixedFluxPressure;
        gradient        uniform 0;
        value           nonuniform List<scalar> 
44
(
539.062
537.57
536.573
536.576
537.897
540.442
544.029
548.494
553.708
559.563
565.969
572.846
580.127
587.753
595.673
603.84
612.215
620.759
629.441
638.229
647.099
656.028
664.997
673.992
683.005
692.031
701.068
710.118
719.168
728.222
737.306
746.423
755.53
764.591
773.531
781.905
789.648
797.292
804.474
809.785
813.268
815.183
815.688
814.914
)
;
    }
    atmosphere
    {
        type            totalPressure;
        rho             rho;
        psi             none;
        gamma           1;
        p0              nonuniform 0();
        value           nonuniform 0();
    }
    defaultFaces
    {
        type            empty;
    }
    procBoundary0to1
    {
        type            processor;
        value           nonuniform List<scalar> 
44
(
812.723
809.974
807.123
804.194
801.261
798.193
794.676
790.489
783.709
766.643
733.173
708.848
697.392
695.503
592.379
124.036
6.27238
6.61751
6.85846
7.15777
7.15777
7.01604
7.34864
7.87476
8.59981
9.36438
10.1801
10.7839
11.2921
12.572
124.393
451.229
522.843
549.273
338.817
-0.181553
-0.532172
-0.510474
-0.540887
-0.541281
-0.524906
-0.506378
-0.486678
-0.465503
)
;
    }
    procBoundary0to2
    {
        type            processor;
        value           nonuniform List<scalar> 
46
(
-0.0297217
-0.0368891
-0.0443372
-0.0520806
-0.0601428
-0.0685819
-0.0775062
-0.0870758
-0.0974852
-0.108927
-0.121556
-0.13547
-0.150709
-0.167275
-0.185141
-0.204263
-0.224573
-0.245978
-0.268359
-0.291589
-0.315536
-0.340084
-0.365152
-0.390716
-0.416852
0.0279822
0.0283188
0.0285988
0.0285761
0.0281566
0.0273281
0.026086
0.0244255
0.022344
0.0198399
0.0169144
0.0135709
0.00981462
0.00564974
0.00107847
-0.00389859
-0.00928025
-0.0150639
-0.0212417
-0.0297217
-0.0277917
)
;
    }
}


// ************************************************************************* //
