/*--------------------------------*- C++ -*----------------------------------*\
| =========                 |                                                 |
| \\      /  F ield         | OpenFOAM: The Open Source CFD Toolbox           |
|  \\    /   O peration     | Version:  5.0                                   |
|   \\  /    A nd           | Web:      www.OpenFOAM.org                      |
|    \\/     M anipulation  |                                                 |
\*---------------------------------------------------------------------------*/
FoamFile
{
    version     2.0;
    format      ascii;
    class       surfaceScalarField;
    location    "0.85";
    object      phi;
}
// * * * * * * * * * * * * * * * * * * * * * * * * * * * * * * * * * * * * * //

dimensions      [0 3 -1 0 0 0 0];

internalField   nonuniform List<scalar> 
3781
(
-1.85752e-06
1.85752e-06
-3.95216e-06
2.09464e-06
-5.49402e-06
1.54186e-06
-6.51002e-06
1.01601e-06
-7.22284e-06
7.12819e-07
-7.80993e-06
5.87084e-07
-8.37513e-06
5.65207e-07
-8.9656e-06
5.90469e-07
-9.59541e-06
6.29809e-07
-1.02619e-05
6.6654e-07
-1.09551e-05
6.93131e-07
-1.16622e-05
7.07148e-07
-1.23711e-05
7.08844e-07
-1.30707e-05
6.99671e-07
-1.37522e-05
6.81481e-07
-1.44083e-05
6.56069e-07
-1.50333e-05
6.24988e-07
-1.56228e-05
5.89559e-07
-1.61737e-05
5.5091e-07
-1.66837e-05
5.09933e-07
-1.71509e-05
4.67244e-07
-1.75741e-05
4.23213e-07
-1.79521e-05
3.77994e-07
-1.82836e-05
3.31478e-07
-1.85669e-05
2.83271e-07
-1.87995e-05
2.32665e-07
-1.8978e-05
1.78475e-07
-1.90962e-05
1.18188e-07
-1.91428e-05
4.66289e-08
-1.90995e-05
-4.33822e-08
-1.89529e-05
-1.46583e-07
-1.86894e-05
-2.63467e-07
-1.8291e-05
-3.9838e-07
-1.77401e-05
-5.5095e-07
-1.70259e-05
-7.14225e-07
-1.61503e-05
-8.75528e-07
-1.51343e-05
-1.01601e-06
-1.38652e-05
-1.26911e-06
-1.23149e-05
-1.55034e-06
-1.06148e-05
-1.70002e-06
-8.85592e-06
-1.75892e-06
-7.01365e-06
-1.84227e-06
-5.05444e-06
-1.95921e-06
-2.08334e-06
-2.27097e-06
4.12849e-06
-3.84992e-06
3.67359e-06
-4.97209e-06
2.66402e-06
-5.85415e-06
1.89807e-06
-6.63701e-06
1.49568e-06
-7.39136e-06
1.34143e-06
-8.14852e-06
1.32237e-06
-8.92025e-06
1.3622e-06
-9.70734e-06
1.4169e-06
-1.05041e-05
1.46333e-06
-1.13018e-05
1.49083e-06
-1.20907e-05
1.49606e-06
-1.28616e-05
1.47971e-06
-1.36063e-05
1.44436e-06
-1.43181e-05
1.39325e-06
-1.49915e-05
1.32955e-06
-1.56226e-05
1.25603e-06
-1.62081e-05
1.17508e-06
-1.67458e-05
1.08864e-06
-1.72341e-05
9.98158e-07
-1.76713e-05
9.0453e-07
-1.80563e-05
8.08172e-07
-1.83873e-05
7.09038e-07
-1.86624e-05
6.06538e-07
-1.88787e-05
4.99533e-07
-1.90323e-05
3.86336e-07
-1.91184e-05
2.64498e-07
-1.91305e-05
1.3037e-07
-1.90634e-05
-2.05506e-08
-1.89125e-05
-1.94218e-07
-1.86661e-05
-3.9298e-07
-1.83089e-05
-6.20681e-07
-1.78274e-05
-8.79856e-07
-1.72089e-05
-1.16952e-06
-1.64403e-05
-1.48281e-06
-1.55086e-05
-1.80726e-06
-1.438e-05
-2.14461e-06
-1.30952e-05
-2.55382e-06
-1.16772e-05
-2.96843e-06
-1.01246e-05
-3.25257e-06
-8.47532e-06
-3.40822e-06
-6.77072e-06
-3.54687e-06
-5.072e-06
-3.65792e-06
-3.75867e-06
-2.05053e-06
6.17902e-06
-3.26468e-06
4.88774e-06
-4.25895e-06
3.6583e-06
-5.18562e-06
2.82474e-06
-6.07748e-06
2.38754e-06
-6.95041e-06
2.21436e-06
-7.81335e-06
2.18531e-06
-8.67034e-06
2.2192e-06
-9.5211e-06
2.26766e-06
-1.03621e-05
2.30434e-06
-1.1188e-05
2.3167e-06
-1.19926e-05
2.30069e-06
-1.27699e-05
2.25702e-06
-1.35143e-05
2.18873e-06
-1.42209e-05
2.09982e-06
-1.48856e-05
1.99429e-06
-1.55053e-05
1.87574e-06
-1.60775e-05
1.74725e-06
-1.66002e-05
1.61138e-06
-1.7072e-05
1.46991e-06
-1.74913e-05
1.32386e-06
-1.78567e-05
1.17355e-06
-1.81664e-05
1.01869e-06
-1.8418e-05
8.58142e-07
-1.86085e-05
6.90044e-07
-1.8734e-05
5.11866e-07
-1.87897e-05
3.20216e-07
-1.877e-05
1.10666e-07
-1.86685e-05
-1.22096e-07
-1.84789e-05
-3.83743e-07
-1.81924e-05
-6.79503e-07
-1.77992e-05
-1.01394e-06
-1.72893e-05
-1.38974e-06
-1.66525e-05
-1.80628e-06
-1.58772e-05
-2.25815e-06
-1.49479e-05
-2.73654e-06
-1.38508e-05
-3.24175e-06
-1.26203e-05
-3.78433e-06
-1.12805e-05
-4.30823e-06
-9.81467e-06
-4.71835e-06
-8.23117e-06
-4.99172e-06
-6.60646e-06
-5.17158e-06
-4.98565e-06
-5.27874e-06
-5.34091e-06
-1.73053e-06
7.90955e-06
-2.79516e-06
5.95236e-06
-3.76016e-06
4.62331e-06
-4.7306e-06
3.79517e-06
-5.70066e-06
3.35761e-06
-6.65899e-06
3.17269e-06
-7.59922e-06
3.12553e-06
-8.5182e-06
3.13818e-06
-9.41378e-06
3.16324e-06
-1.02835e-05
3.17406e-06
-1.11244e-05
3.15763e-06
-1.19333e-05
3.10961e-06
-1.27069e-05
3.03057e-06
-1.34417e-05
2.92355e-06
-1.41346e-05
2.79276e-06
-1.4783e-05
2.64261e-06
-1.53843e-05
2.47708e-06
-1.59367e-05
2.29966e-06
-1.64386e-05
2.11331e-06
-1.68887e-05
1.92e-06
-1.72856e-05
1.72069e-06
-1.76276e-05
1.51559e-06
-1.7913e-05
1.30413e-06
-1.81395e-05
1.08462e-06
-1.8304e-05
8.54535e-07
-1.84028e-05
6.10689e-07
-1.84316e-05
3.4898e-07
-1.83852e-05
6.42871e-08
-1.82581e-05
-2.49233e-07
-1.80441e-05
-5.97722e-07
-1.77364e-05
-9.87193e-07
-1.73275e-05
-1.42284e-06
-1.68093e-05
-1.90793e-06
-1.61728e-05
-2.44285e-06
-1.54069e-05
-3.02401e-06
-1.4499e-05
-3.64442e-06
-1.34434e-05
-4.2974e-06
-1.22565e-05
-4.97117e-06
-1.09518e-05
-5.61292e-06
-9.5234e-06
-6.14678e-06
-7.98426e-06
-6.53086e-06
-6.39188e-06
-6.76396e-06
-4.80441e-06
-6.86621e-06
-6.88184e-06
-1.40293e-06
9.31248e-06
-2.40231e-06
6.95175e-06
-3.38381e-06
5.60481e-06
-4.40569e-06
4.81705e-06
-5.44429e-06
4.39621e-06
-6.47322e-06
4.20161e-06
-7.47585e-06
4.12816e-06
-8.44383e-06
4.10616e-06
-9.37352e-06
4.09293e-06
-1.02632e-05
4.06378e-06
-1.1112e-05
4.00639e-06
-1.19191e-05
3.91669e-06
-1.26835e-05
3.79502e-06
-1.3404e-05
3.64399e-06
-1.40789e-05
3.46765e-06
-1.47066e-05
3.27038e-06
-1.52857e-05
3.05613e-06
-1.58146e-05
2.82855e-06
-1.62921e-05
2.59087e-06
-1.67172e-05
2.3451e-06
-1.70885e-05
2.09198e-06
-1.74045e-05
1.83159e-06
-1.76635e-05
1.56315e-06
-1.78634e-05
1.28444e-06
-1.80012e-05
9.92325e-07
-1.80737e-05
6.83185e-07
-1.80771e-05
3.52442e-07
-1.80073e-05
-5.57195e-09
-1.78594e-05
-3.97099e-07
-1.76285e-05
-8.2862e-07
-1.73091e-05
-1.30659e-06
-1.68951e-05
-1.83684e-06
-1.63794e-05
-2.42361e-06
-1.57534e-05
-3.06883e-06
-1.50064e-05
-3.77106e-06
-1.41262e-05
-4.52462e-06
-1.31049e-05
-5.31867e-06
-1.19456e-05
-6.13045e-06
-1.06516e-05
-6.90695e-06
-9.22435e-06
-7.57404e-06
-7.6871e-06
-8.0681e-06
-6.09709e-06
-8.35396e-06
-4.52891e-06
-8.43439e-06
-8.37569e-06
-1.09515e-06
1.04076e-05
-2.07273e-06
7.92933e-06
-3.09987e-06
6.63195e-06
-4.18436e-06
5.90155e-06
-5.28977e-06
5.50162e-06
-6.38122e-06
5.29306e-06
-7.43607e-06
5.18302e-06
-8.4431e-06
5.11319e-06
-9.39818e-06
5.048e-06
-1.03005e-05
4.96608e-06
-1.11508e-05
4.85672e-06
-1.19508e-05
4.71669e-06
-1.27017e-05
4.54594e-06
-1.3404e-05
4.34623e-06
-1.40574e-05
4.12104e-06
-1.46614e-05
3.87444e-06
-1.52152e-05
3.6099e-06
-1.57176e-05
3.331e-06
-1.6168e-05
3.04125e-06
-1.65655e-05
2.74254e-06
-1.69087e-05
2.43518e-06
-1.71963e-05
2.11922e-06
-1.74269e-05
1.79378e-06
-1.75986e-05
1.45609e-06
-1.77087e-05
1.10247e-06
-1.77547e-05
7.29132e-07
-1.77335e-05
3.31285e-07
-1.76419e-05
-9.71912e-08
-1.74762e-05
-5.62814e-07
-1.72326e-05
-1.07223e-06
-1.69068e-05
-1.63233e-06
-1.64939e-05
-2.24972e-06
-1.59875e-05
-2.93003e-06
-1.53789e-05
-3.67739e-06
-1.46566e-05
-4.4934e-06
-1.38063e-05
-5.37495e-06
-1.28141e-05
-6.3108e-06
-1.16709e-05
-7.27366e-06
-1.037e-05
-8.20788e-06
-8.91305e-06
-9.03099e-06
-7.33103e-06
-9.65012e-06
-5.698e-06
-9.98699e-06
-4.11611e-06
-1.00163e-05
-9.81348e-06
-8.36514e-07
1.12441e-05
-1.82043e-06
8.91324e-06
-2.90789e-06
7.71941e-06
-4.06059e-06
7.05424e-06
-5.23094e-06
6.67197e-06
-6.37839e-06
6.44052e-06
-7.47697e-06
6.2816e-06
-8.51435e-06
6.15058e-06
-9.48677e-06
6.02042e-06
-1.03945e-05
5.87376e-06
-1.12401e-05
5.70234e-06
-1.20278e-05
5.50438e-06
-1.27609e-05
5.27904e-06
-1.34412e-05
5.02657e-06
-1.40698e-05
4.74966e-06
-1.46472e-05
4.45187e-06
-1.5173e-05
4.13562e-06
-1.56462e-05
3.80427e-06
-1.60668e-05
3.4618e-06
-1.6434e-05
3.1098e-06
-1.67467e-05
2.74784e-06
-1.70036e-05
2.37612e-06
-1.72038e-05
1.99397e-06
-1.73456e-05
1.5979e-06
-1.74268e-05
1.18364e-06
-1.74453e-05
7.47703e-07
-1.73994e-05
2.85346e-07
-1.72866e-05
-2.10006e-07
-1.71043e-05
-7.45058e-07
-1.68501e-05
-1.32643e-06
-1.6521e-05
-1.96145e-06
-1.61129e-05
-2.65779e-06
-1.56202e-05
-3.42278e-06
-1.5034e-05
-4.26355e-06
-1.43413e-05
-5.1861e-06
-1.3524e-05
-6.19232e-06
-1.25601e-05
-7.27462e-06
-1.14273e-05
-8.40654e-06
-1.01052e-05
-9.52995e-06
-8.58824e-06
-1.0548e-05
-6.91182e-06
-1.13265e-05
-5.17251e-06
-1.17263e-05
-3.51518e-06
-1.16736e-05
-1.12302e-05
-6.47762e-07
1.18919e-05
-1.65336e-06
9.91884e-06
-2.8054e-06
8.87145e-06
-4.02658e-06
8.27543e-06
-5.25905e-06
7.90443e-06
-6.45709e-06
7.63856e-06
-7.5924e-06
7.41691e-06
-8.65263e-06
7.21081e-06
-9.63494e-06
7.00274e-06
-1.05408e-05
6.77967e-06
-1.13754e-05
6.53685e-06
-1.21455e-05
6.27449e-06
-1.28565e-05
5.99004e-06
-1.35113e-05
5.68135e-06
-1.41119e-05
5.35032e-06
-1.46599e-05
4.99989e-06
-1.51549e-05
4.6306e-06
-1.55963e-05
4.24561e-06
-1.59844e-05
3.8499e-06
-1.6319e-05
3.44447e-06
-1.65987e-05
3.0275e-06
-1.68224e-05
2.59985e-06
-1.699e-05
2.16158e-06
-1.71001e-05
1.70801e-06
-1.71507e-05
1.23416e-06
-1.71405e-05
7.3753e-07
-1.70689e-05
2.13769e-07
-1.69345e-05
-3.44384e-07
-1.67358e-05
-9.43768e-07
-1.64716e-05
-1.59062e-06
-1.61403e-05
-2.29276e-06
-1.5739e-05
-3.05913e-06
-1.52627e-05
-3.89902e-06
-1.4703e-05
-4.82327e-06
-1.40452e-05
-5.84397e-06
-1.32665e-05
-6.97099e-06
-1.23358e-05
-8.20528e-06
-1.12151e-05
-9.52732e-06
-9.86449e-06
-1.08805e-05
-8.26032e-06
-1.21521e-05
-6.4343e-06
-1.31526e-05
-4.50764e-06
-1.3653e-05
-2.67748e-06
-1.35038e-05
-1.27198e-05
-4.79393e-07
1.23713e-05
-1.54295e-06
1.09824e-05
-2.76459e-06
1.00931e-05
-4.05545e-06
9.56629e-06
-5.35176e-06
9.20074e-06
-6.60059e-06
8.88738e-06
-7.77018e-06
8.5865e-06
-8.84818e-06
8.28881e-06
-9.83375e-06
7.9883e-06
-1.07307e-05
7.67658e-06
-1.15475e-05
7.35365e-06
-1.2295e-05
7.02203e-06
-1.298e-05
6.67506e-06
-1.36058e-05
6.30709e-06
-1.41754e-05
5.91999e-06
-1.46915e-05
5.516e-06
-1.51533e-05
5.09239e-06
-1.55601e-05
4.65238e-06
-1.59133e-05
4.20313e-06
-1.62132e-05
3.74435e-06
-1.64575e-05
3.27174e-06
-1.66455e-05
2.78791e-06
-1.67784e-05
2.29446e-06
-1.68549e-05
1.78456e-06
-1.68729e-05
1.25209e-06
-1.68322e-05
6.96821e-07
-1.67336e-05
1.1521e-07
-1.65766e-05
-5.01384e-07
-1.63605e-05
-1.15988e-06
-1.60856e-05
-1.86549e-06
-1.57519e-05
-2.62651e-06
-1.53576e-05
-3.45343e-06
-1.48992e-05
-4.35737e-06
-1.43691e-05
-5.35334e-06
-1.37519e-05
-6.4612e-06
-1.30208e-05
-7.70209e-06
-1.2135e-05
-9.09108e-06
-1.10386e-05
-1.06237e-05
-9.66477e-06
-1.22544e-05
-7.95605e-06
-1.38608e-05
-5.92574e-06
-1.51829e-05
-3.71597e-06
-1.58627e-05
-1.576e-06
-1.56437e-05
-1.4444e-05
-4.75653e-07
1.28469e-05
-1.50996e-06
1.20167e-05
-2.74754e-06
1.13307e-05
-4.09973e-06
1.09185e-05
-5.47094e-06
1.05719e-05
-6.78368e-06
1.02001e-05
-7.99273e-06
9.79555e-06
-9.08551e-06
9.38159e-06
-1.00678e-05
8.97062e-06
-1.09488e-05
8.55752e-06
-1.17415e-05
8.14639e-06
-1.24634e-05
7.74392e-06
-1.31194e-05
7.33108e-06
-1.37127e-05
6.9004e-06
-1.42484e-05
6.45564e-06
-1.47305e-05
5.99809e-06
-1.51569e-05
5.51881e-06
-1.55266e-05
5.02209e-06
-1.58429e-05
4.51939e-06
-1.61062e-05
4.00773e-06
-1.63129e-05
3.47838e-06
-1.64628e-05
2.93787e-06
-1.65592e-05
2.39079e-06
-1.66005e-05
1.82595e-06
-1.65838e-05
1.23538e-06
-1.65106e-05
6.23544e-07
-1.63835e-05
-1.18556e-08
-1.62024e-05
-6.82445e-07
-1.59672e-05
-1.39512e-06
-1.568e-05
-2.15274e-06
-1.53423e-05
-2.9642e-06
-1.49538e-05
-3.84193e-06
-1.4513e-05
-4.79814e-06
-1.40145e-05
-5.85185e-06
-1.34437e-05
-7.03204e-06
-1.27716e-05
-8.37411e-06
-1.19497e-05
-9.91306e-06
-1.09036e-05
-1.16698e-05
-9.53213e-06
-1.36258e-05
-7.72336e-06
-1.56696e-05
-5.45032e-06
-1.74559e-05
-2.86704e-06
-1.8446e-05
-2.41796e-07
-1.8269e-05
-1.68063e-05
-8.58428e-07
1.37054e-05
-1.6018e-06
1.27601e-05
-2.80711e-06
1.2536e-05
-4.24531e-06
1.23567e-05
-5.73299e-06
1.20596e-05
-7.14096e-06
1.16081e-05
-8.39913e-06
1.10537e-05
-9.50287e-06
1.04853e-05
-1.04793e-05
9.94706e-06
-1.1355e-05
9.43324e-06
-1.21494e-05
8.94075e-06
-1.28606e-05
8.45518e-06
-1.34972e-05
7.9676e-06
-1.40647e-05
7.46793e-06
-1.4572e-05
6.96294e-06
-1.5027e-05
6.45311e-06
-1.54231e-05
5.91486e-06
-1.57587e-05
5.35769e-06
-1.60409e-05
4.80161e-06
-1.62705e-05
4.23733e-06
-1.64403e-05
3.64814e-06
-1.65515e-05
3.04909e-06
-1.66108e-05
2.45011e-06
-1.66159e-05
1.83102e-06
-1.65613e-05
1.18084e-06
-1.64513e-05
5.13503e-07
-1.62915e-05
-1.71691e-07
-1.6081e-05
-8.92864e-07
-1.58197e-05
-1.65646e-06
-1.5512e-05
-2.46038e-06
-1.51617e-05
-3.31457e-06
-1.47693e-05
-4.23432e-06
-1.43362e-05
-5.23119e-06
-1.38609e-05
-6.32714e-06
-1.33319e-05
-7.56109e-06
-1.27211e-05
-8.98491e-06
-1.19754e-05
-1.06588e-05
-1.10045e-05
-1.26407e-05
-9.66589e-06
-1.49644e-05
-7.76468e-06
-1.75708e-05
-5.20809e-06
-2.00125e-05
-2.17057e-06
-2.14835e-05
1.06918e-06
-2.15087e-05
-2.00897e-05
-2.10891e-06
1.58143e-05
-1.52373e-06
1.21749e-05
-2.73436e-06
1.37466e-05
-4.25596e-06
1.38783e-05
-5.85417e-06
1.36578e-05
-7.36885e-06
1.31228e-05
-8.69559e-06
1.23805e-05
-9.81993e-06
1.16097e-05
-1.07868e-05
1.09139e-05
-1.16594e-05
1.03059e-05
-1.24671e-05
9.74843e-06
-1.31457e-05
9.13378e-06
-1.37338e-05
8.55573e-06
-1.42619e-05
7.99598e-06
-1.47452e-05
7.44622e-06
-1.51723e-05
6.88021e-06
-1.55316e-05
6.27418e-06
-1.58258e-05
5.65194e-06
-1.60691e-05
5.04487e-06
-1.62621e-05
4.43032e-06
-1.639e-05
3.77606e-06
-1.64578e-05
3.11688e-06
-1.64781e-05
2.47047e-06
-1.64456e-05
1.79853e-06
-1.63506e-05
1.0858e-06
-1.62018e-05
3.64714e-07
-1.60092e-05
-3.6426e-07
-1.57695e-05
-1.13263e-06
-1.54809e-05
-1.94507e-06
-1.51518e-05
-2.78941e-06
-1.47882e-05
-3.67818e-06
-1.43908e-05
-4.63177e-06
-1.39645e-05
-5.65744e-06
-1.3514e-05
-6.77767e-06
-1.30339e-05
-8.0412e-06
-1.25024e-05
-9.51642e-06
-1.18705e-05
-1.12907e-05
-1.10419e-05
-1.34693e-05
-9.83654e-06
-1.61698e-05
-7.94715e-06
-1.94602e-05
-5.19206e-06
-2.27676e-05
-1.82537e-06
-2.48502e-05
1.75752e-06
-2.50916e-05
-2.37249e-05
-5.2203e-07
1.63363e-05
-1.22691e-06
1.28798e-05
-2.21151e-06
1.47312e-05
-3.71579e-06
1.53826e-05
-5.4002e-06
1.53423e-05
-6.96655e-06
1.46891e-05
-8.34174e-06
1.37556e-05
-9.53696e-06
1.28049e-05
-1.05635e-05
1.19405e-05
-1.15409e-05
1.12833e-05
-1.25783e-05
1.07858e-05
-1.33416e-05
9.89715e-06
-1.39269e-05
9.14103e-06
-1.44302e-05
8.49927e-06
-1.4895e-05
7.91103e-06
-1.5279e-05
7.26416e-06
-1.55809e-05
6.57614e-06
-1.58307e-05
5.90167e-06
-1.60447e-05
5.2589e-06
-1.62011e-05
4.5867e-06
-1.62823e-05
3.85727e-06
-1.63037e-05
3.13833e-06
-1.62868e-05
2.45354e-06
-1.62177e-05
1.72942e-06
-1.60794e-05
9.47459e-07
-1.58906e-05
1.76e-07
-1.56668e-05
-5.88067e-07
-1.53977e-05
-1.40178e-06
-1.50788e-05
-2.26398e-06
-1.4725e-05
-3.14316e-06
-1.43449e-05
-4.05836e-06
-1.39365e-05
-5.04011e-06
-1.35094e-05
-6.08455e-06
-1.30762e-05
-7.21087e-06
-1.26403e-05
-8.47708e-06
-1.2192e-05
-9.96478e-06
-1.16971e-05
-1.17855e-05
-1.10688e-05
-1.40976e-05
-1.01071e-05
-1.71315e-05
-8.35524e-06
-2.1212e-05
-5.49754e-06
-2.56253e-05
-1.96231e-06
-2.83854e-05
1.62615e-06
-2.86801e-05
-2.71309e-05
8.90799e-07
1.54455e-05
-2.54821e-07
1.40254e-05
-1.04213e-06
1.55185e-05
-1.74981e-06
1.60903e-05
-2.55717e-06
1.61496e-05
-3.5991e-06
1.57311e-05
-4.81706e-06
1.49736e-05
-6.11671e-06
1.41045e-05
-7.52624e-06
1.335e-05
-9.22696e-06
1.2984e-05
-1.12043e-05
1.27631e-05
-1.26839e-05
1.13768e-05
-1.35896e-05
1.00467e-05
-1.41996e-05
9.10933e-06
-1.47942e-05
8.50562e-06
-1.52798e-05
7.7497e-06
-1.55814e-05
6.87777e-06
-1.58029e-05
6.12318e-06
-1.59756e-05
5.4316e-06
-1.60682e-05
4.67928e-06
-1.60892e-05
3.87833e-06
-1.60722e-05
3.12125e-06
-1.60281e-05
2.40944e-06
-1.59186e-05
1.61994e-06
-1.57307e-05
7.59605e-07
-1.5505e-05
-4.97137e-08
-1.52562e-05
-8.36917e-07
-1.49593e-05
-1.69867e-06
-1.46067e-05
-2.61652e-06
-1.42257e-05
-3.52419e-06
-1.38272e-05
-4.45686e-06
-1.34018e-05
-5.46546e-06
-1.29642e-05
-6.52216e-06
-1.25364e-05
-7.63871e-06
-1.21309e-05
-8.88255e-06
-1.17549e-05
-1.03408e-05
-1.14027e-05
-1.21378e-05
-1.10138e-05
-1.44865e-05
-1.04134e-05
-1.77319e-05
-8.91543e-06
-2.271e-05
-6.02408e-06
-2.85167e-05
-2.51482e-06
-3.18947e-05
7.2318e-07
-3.19181e-05
-2.9871e-05
5.51964e-07
1.48936e-05
-2.23585e-07
1.48009e-05
-5.0063e-07
1.57956e-05
-6.62828e-07
1.62525e-05
-8.82333e-07
1.63691e-05
-1.31625e-06
1.6165e-05
-2.0161e-06
1.56735e-05
-2.92986e-06
1.50183e-05
-3.99004e-06
1.44102e-05
-5.06308e-06
1.40571e-05
-6.06092e-06
1.37609e-05
-7.41776e-06
1.27336e-05
-8.91209e-06
1.1541e-05
-1.05413e-05
1.07386e-05
-1.25268e-05
1.04911e-05
-1.41796e-05
9.40249e-06
-1.51005e-05
7.79868e-06
-1.5477e-05
6.49968e-06
-1.57169e-05
5.67151e-06
-1.58556e-05
4.81797e-06
-1.58697e-05
3.89241e-06
-1.58212e-05
3.07274e-06
-1.57139e-05
2.30213e-06
-1.55251e-05
1.43116e-06
-1.52874e-05
5.21868e-07
-1.50478e-05
-2.89289e-07
-1.47855e-05
-1.09919e-06
-1.44575e-05
-2.02671e-06
-1.40657e-05
-3.0083e-06
-1.36559e-05
-3.93393e-06
-1.32396e-05
-4.87324e-06
-1.27932e-05
-5.91185e-06
-1.23369e-05
-6.97846e-06
-1.19007e-05
-8.07493e-06
-1.15029e-05
-9.28031e-06
-1.1169e-05
-1.06746e-05
-1.09463e-05
-1.23604e-05
-1.08374e-05
-1.45955e-05
-1.07385e-05
-1.78308e-05
-9.47996e-06
-2.39686e-05
-6.56149e-06
-3.14351e-05
-3.40662e-06
-3.50496e-05
-9.06636e-07
-3.44181e-05
-3.1684e-05
9.92344e-08
1.47943e-05
-1.96577e-07
1.50968e-05
-1.30497e-07
1.57295e-05
3.09407e-08
1.6091e-05
1.59482e-07
1.62406e-05
1.56202e-07
1.61683e-05
-5.51506e-08
1.58848e-05
-4.90675e-07
1.54538e-05
-1.08905e-06
1.50086e-05
-1.71115e-06
1.46792e-05
-2.31338e-06
1.43632e-05
-3.24904e-06
1.36693e-05
-4.46143e-06
1.27534e-05
-5.76718e-06
1.20443e-05
-6.9049e-06
1.16288e-05
-8.19783e-06
1.06954e-05
-9.66026e-06
9.26111e-06
-1.12377e-05
8.07716e-06
-1.30522e-05
7.486e-06
-1.4579e-05
6.34475e-06
-1.53107e-05
4.62405e-06
-1.54148e-05
3.17682e-06
-1.5299e-05
2.18637e-06
-1.50978e-05
1.22998e-06
-1.48687e-05
2.92791e-07
-1.46151e-05
-5.42957e-07
-1.42972e-05
-1.41708e-06
-1.38985e-05
-2.42542e-06
-1.34669e-05
-3.4399e-06
-1.30299e-05
-4.37086e-06
-1.25984e-05
-5.30474e-06
-1.21329e-05
-6.37741e-06
-1.16614e-05
-7.44995e-06
-1.12113e-05
-8.52506e-06
-1.08083e-05
-9.68327e-06
-1.05107e-05
-1.09722e-05
-1.05096e-05
-1.23616e-05
-1.11345e-05
-1.39705e-05
-1.22502e-05
-1.67151e-05
-1.07036e-05
-2.55151e-05
-7.4419e-06
-3.46968e-05
-4.92641e-06
-3.75651e-05
-3.36964e-06
-3.59749e-05
-3.26442e-05
-1.50372e-09
1.47958e-05
1.59625e-08
1.50793e-05
2.66572e-07
1.54789e-05
6.20351e-07
1.57372e-05
9.76963e-07
1.5884e-05
1.25329e-06
1.58919e-05
1.38202e-06
1.57561e-05
1.32848e-06
1.55074e-05
1.11887e-06
1.52182e-05
8.37792e-07
1.49602e-05
5.14266e-07
1.46867e-05
-1.76825e-08
1.42013e-05
-8.06027e-07
1.35418e-05
-1.70249e-06
1.29408e-05
-2.52589e-06
1.24522e-05
-3.51253e-06
1.1682e-05
-4.786e-06
1.05346e-05
-6.17353e-06
9.46469e-06
-7.39226e-06
8.70474e-06
-8.6025e-06
7.55499e-06
-9.87915e-06
5.90071e-06
-1.11344e-05
4.43204e-06
-1.24117e-05
3.46371e-06
-1.35669e-05
2.38513e-06
-1.41507e-05
8.76669e-07
-1.40943e-05
-5.99424e-07
-1.37664e-05
-1.7449e-06
-1.33602e-05
-2.83168e-06
-1.29489e-05
-3.85114e-06
-1.24637e-05
-4.85607e-06
-1.19929e-05
-5.77554e-06
-1.14946e-05
-6.87573e-06
-1.10132e-05
-7.93139e-06
-1.05421e-05
-8.99616e-06
-1.01487e-05
-1.00767e-05
-9.98117e-06
-1.11397e-05
-1.02691e-05
-1.20736e-05
-1.3884e-05
-1.03556e-05
-1.97296e-05
-1.08695e-05
-1.4998e-05
-3.02467e-05
-1.0105e-05
-3.95898e-05
-7.90156e-06
-3.97685e-05
-6.93614e-06
-3.69403e-05
-3.28528e-05
8.33805e-08
1.47124e-05
2.63856e-07
1.48988e-05
6.58812e-07
1.50839e-05
1.14589e-06
1.52502e-05
1.65336e-06
1.53765e-05
2.11592e-06
1.54294e-05
2.47767e-06
1.53943e-05
2.70378e-06
1.52813e-05
2.79766e-06
1.51243e-05
2.80013e-06
1.49578e-05
2.72908e-06
1.47578e-05
2.50325e-06
1.44271e-05
2.07397e-06
1.3971e-05
1.51811e-06
1.34967e-05
9.38039e-07
1.30323e-05
2.326e-07
1.23875e-05
-7.16725e-07
1.14839e-05
-1.80067e-06
1.05486e-05
-2.81084e-06
9.71491e-06
-3.89142e-06
8.63557e-06
-5.17605e-06
7.18534e-06
-6.52956e-06
5.78555e-06
-7.74912e-06
4.68328e-06
-8.82825e-06
3.46425e-06
-9.82944e-06
1.87786e-06
-1.0673e-05
2.44157e-07
-1.12894e-05
-1.12855e-06
-1.17697e-05
-2.35138e-06
-1.2071e-05
-3.5498e-06
-1.20501e-05
-4.87697e-06
-1.14894e-05
-6.33622e-06
-1.10497e-05
-7.31541e-06
-1.06203e-05
-8.36085e-06
-1.02521e-05
-9.36437e-06
-1.04522e-05
-9.87653e-06
-1.4353e-05
-7.23892e-06
-3.04047e-05
3.97807e-06
-5.19697e-05
1.12093e-05
-3.53021e-05
-2.7537e-05
-2.00967e-05
-4.54521e-05
-1.48517e-05
-4.48348e-05
-1.25813e-05
-4.20388e-05
-1.17688e-05
-3.77529e-05
-3.22188e-05
2.21891e-07
1.44905e-05
5.36352e-07
1.45843e-05
1.02566e-06
1.45946e-05
1.60351e-06
1.46723e-05
2.21287e-06
1.47671e-05
2.80199e-06
1.48403e-05
3.32571e-06
1.48706e-05
3.75267e-06
1.48543e-05
4.07457e-06
1.48024e-05
4.30542e-06
1.47269e-05
4.45035e-06
1.46128e-05
4.46655e-06
1.44109e-05
4.32269e-06
1.41149e-05
4.05103e-06
1.37683e-05
3.70324e-06
1.33801e-05
3.23362e-06
1.28571e-05
2.56584e-06
1.21517e-05
1.74997e-06
1.13645e-05
9.02743e-07
1.05621e-05
-4.12964e-08
9.5796e-06
-1.19661e-06
8.34066e-06
-2.47994e-06
7.06888e-06
-3.71398e-06
5.91732e-06
-4.91565e-06
4.66592e-06
-6.18828e-06
3.15049e-06
-7.51829e-06
1.57416e-06
-8.82131e-06
1.7447e-07
-1.01011e-05
-1.07163e-06
-1.14072e-05
-2.24365e-06
-1.28549e-05
-3.42922e-06
-1.46654e-05
-4.52577e-06
-1.68408e-05
-5.13995e-06
-1.99002e-05
-5.30149e-06
-2.45379e-05
-4.72668e-06
-3.18928e-05
-2.52157e-06
-4.25385e-05
3.4068e-06
-5.02566e-05
1.16962e-05
-4.29585e-05
3.9112e-06
-2.59704e-05
-4.45252e-05
-2.22062e-05
-4.92163e-05
-1.96624e-05
-4.73786e-05
-1.79607e-05
-4.37406e-05
-1.76497e-05
-3.80638e-05
-3.96514e-05
3.60306e-07
1.41302e-05
7.94498e-07
1.41501e-05
1.36002e-06
1.40291e-05
2.00251e-06
1.40298e-05
2.68021e-06
1.40894e-05
3.35376e-06
1.41667e-05
3.98773e-06
1.42366e-05
4.55501e-06
1.4287e-05
5.04195e-06
1.43155e-05
5.44771e-06
1.43212e-05
5.7689e-06
1.42916e-05
5.98046e-06
1.41994e-05
6.06147e-06
1.40339e-05
6.02155e-06
1.38082e-05
5.88121e-06
1.35204e-05
5.61526e-06
1.31231e-05
5.18051e-06
1.25864e-05
4.5943e-06
1.19507e-05
3.91239e-06
1.1244e-05
3.10152e-06
1.03905e-05
2.08902e-06
9.35316e-06
9.15581e-07
8.24232e-06
-3.11807e-07
7.1447e-06
-1.60441e-06
5.95852e-06
-3.05461e-06
4.60069e-06
-4.67988e-06
3.19944e-06
-6.42763e-06
1.92222e-06
-8.302e-06
8.02749e-07
-1.03768e-05
-1.68869e-07
-1.28127e-05
-9.93316e-07
-1.5809e-05
-1.52945e-06
-1.94672e-05
-1.48175e-06
-2.41616e-05
-6.07099e-07
-3.02442e-05
1.35595e-06
-3.76534e-05
4.88763e-06
-4.42324e-05
9.98587e-06
-4.42594e-05
1.17232e-05
-3.39471e-05
-6.40109e-06
-2.75726e-05
-5.08997e-05
-2.57474e-05
-5.10414e-05
-2.45181e-05
-4.86079e-05
-2.32543e-05
-4.50044e-05
-2.24431e-05
-3.88751e-05
-5.22217e-05
4.92093e-07
1.36381e-05
1.02824e-06
1.3614e-05
1.65797e-06
1.33993e-05
2.34888e-06
1.33389e-05
3.07287e-06
1.33655e-05
3.80157e-06
1.3438e-05
4.50805e-06
1.35302e-05
5.16987e-06
1.36252e-05
5.77192e-06
1.37134e-05
6.30617e-06
1.37869e-05
6.7644e-06
1.38334e-05
7.12939e-06
1.38344e-05
7.38513e-06
1.37782e-05
7.52965e-06
1.36637e-05
7.56634e-06
1.34837e-05
7.47798e-06
1.32114e-05
7.23752e-06
1.28269e-05
6.8458e-06
1.23424e-05
6.32247e-06
1.17674e-05
5.6457e-06
1.10672e-05
4.77308e-06
1.02258e-05
3.71783e-06
9.29757e-06
2.53141e-06
8.33112e-06
1.20138e-06
7.28855e-06
-3.40635e-07
6.1427e-06
-2.11867e-06
4.97747e-06
-4.11672e-06
3.92028e-06
-6.34713e-06
3.03316e-06
-8.8723e-06
2.35631e-06
-1.18185e-05
1.95292e-06
-1.53276e-05
1.97966e-06
-1.949e-05
2.68065e-06
-2.43766e-05
4.27946e-06
-2.98886e-05
6.86796e-06
-3.52494e-05
1.02485e-05
-3.8175e-05
1.29115e-05
-3.56744e-05
9.22256e-06
-2.99068e-05
-1.21687e-05
-3.02107e-05
-5.05958e-05
-2.97158e-05
-5.15364e-05
-2.92934e-05
-4.90303e-05
-2.85084e-05
-4.57894e-05
-2.63726e-05
-4.10108e-05
-1.6776e-05
-6.18183e-05
-9.44101e-05
6.05157e-07
1.3033e-05
1.23065e-06
1.29885e-05
1.91562e-06
1.27144e-05
2.64427e-06
1.26103e-05
3.39994e-06
1.26098e-05
4.16367e-06
1.26743e-05
4.91593e-06
1.27779e-05
5.63886e-06
1.29023e-05
6.31816e-06
1.30341e-05
6.94311e-06
1.3162e-05
7.50328e-06
1.32732e-05
7.98463e-06
1.3353e-05
8.37335e-06
1.33894e-05
8.66171e-06
1.33754e-05
8.84424e-06
1.33012e-05
8.90629e-06
1.31494e-05
8.82782e-06
1.29053e-05
8.60077e-06
1.25695e-05
8.22546e-06
1.21427e-05
7.68367e-06
1.1609e-05
6.94711e-06
1.09623e-05
6.01364e-06
1.0231e-05
4.90001e-06
9.44475e-06
3.59068e-06
8.59788e-06
2.03903e-06
7.69435e-06
2.16559e-07
6.79995e-06
-1.87616e-06
6.013e-06
-4.25363e-06
5.41065e-06
-6.96079e-06
5.06347e-06
-1.00722e-05
5.06436e-06
-1.36526e-05
5.56008e-06
-1.77026e-05
6.73062e-06
-2.21038e-05
8.68068e-06
-2.65049e-05
1.12691e-05
-3.00467e-05
1.37903e-05
-3.1278e-05
1.41428e-05
-2.9472e-05
7.41652e-06
-2.81252e-05
-1.35155e-05
-3.19322e-05
-4.67888e-05
-3.28078e-05
-5.06608e-05
-3.32004e-05
-4.86376e-05
-3.31553e-05
-4.58346e-05
-3.15744e-05
-4.25918e-05
-3.13213e-05
-6.20713e-05
-9.53905e-05
6.96682e-07
1.23363e-05
1.39849e-06
1.22867e-05
2.13038e-06
1.19825e-05
2.88872e-06
1.18519e-05
3.66596e-06
1.18326e-05
4.4509e-06
1.18893e-05
5.23023e-06
1.19986e-05
5.9904e-06
1.21421e-05
6.71902e-06
1.23055e-05
7.40511e-06
1.24759e-05
8.0377e-06
1.26406e-05
8.60423e-06
1.27865e-05
9.09196e-06
1.29017e-05
9.49044e-06
1.29769e-05
9.78986e-06
1.30018e-05
9.97605e-06
1.29632e-05
1.00317e-05
1.28497e-05
9.94417e-06
1.2657e-05
9.70399e-06
1.23828e-05
9.29349e-06
1.20195e-05
8.69005e-06
1.15658e-05
7.88283e-06
1.10383e-05
6.86954e-06
1.0458e-05
5.63244e-06
9.83499e-06
4.13788e-06
9.18892e-06
2.36168e-06
8.57615e-06
2.96688e-07
8.078e-06
-2.06733e-06
7.77468e-06
-4.75279e-06
7.74894e-06
-7.78715e-06
8.09872e-06
-1.11708e-05
8.94376e-06
-1.48299e-05
1.03897e-05
-1.85698e-05
1.24206e-05
-2.20096e-05
1.47088e-05
-2.45147e-05
1.62954e-05
-2.54263e-05
1.50545e-05
-2.51674e-05
7.15753e-06
-2.6708e-05
-1.19748e-05
-3.24778e-05
-4.1019e-05
-3.44856e-05
-4.86531e-05
-3.56176e-05
-4.75056e-05
-3.65328e-05
-4.49193e-05
-3.68222e-05
-4.23024e-05
-4.55193e-05
-5.33741e-05
-9.14609e-05
7.67342e-07
1.15689e-05
1.53116e-06
1.15229e-05
2.30119e-06
1.12125e-05
3.08223e-06
1.10709e-05
3.87358e-06
1.10412e-05
4.67006e-06
1.10929e-05
5.46345e-06
1.12052e-05
6.24406e-06
1.13615e-05
7.0018e-06
1.15478e-05
7.72661e-06
1.17511e-05
8.40804e-06
1.19592e-05
9.03454e-06
1.216e-05
9.59412e-06
1.23421e-05
1.00753e-05
1.24957e-05
1.04663e-05
1.26107e-05
1.0753e-05
1.26764e-05
1.09193e-05
1.26834e-05
1.09502e-05
1.26262e-05
1.08316e-05
1.25014e-05
1.05457e-05
1.23054e-05
1.00721e-05
1.20394e-05
9.39527e-06
1.17151e-05
8.50377e-06
1.13495e-05
7.37916e-06
1.09596e-05
5.99612e-06
1.0572e-05
4.3355e-06
1.02368e-05
2.38998e-06
1.00235e-05
1.56294e-07
1.00084e-05
-2.36779e-06
1.0273e-05
-5.17497e-06
1.09059e-05
-8.22444e-06
1.19932e-05
-1.14106e-05
1.35759e-05
-1.45388e-05
1.55488e-05
-1.73167e-05
1.74867e-05
-1.94034e-05
1.83821e-05
-2.06765e-05
1.63277e-05
-2.19094e-05
8.39043e-06
-2.52997e-05
-8.5845e-06
-3.23796e-05
-3.39391e-05
-3.50041e-05
-4.60286e-05
-3.66005e-05
-4.59092e-05
-3.79299e-05
-4.35899e-05
-3.92617e-05
-4.09705e-05
-4.94457e-05
-4.31902e-05
-7.84918e-05
8.1846e-07
1.07505e-05
1.62946e-06
1.07119e-05
2.42836e-06
1.04136e-05
3.22546e-06
1.02738e-05
4.0249e-06
1.02418e-05
4.82594e-06
1.02918e-05
5.62436e-06
1.04067e-05
6.4137e-06
1.05722e-05
7.18619e-06
1.07753e-05
7.93323e-06
1.10041e-05
8.64538e-06
1.12471e-05
9.31216e-06
1.14932e-05
9.92235e-06
1.1732e-05
1.04644e-05
1.19537e-05
1.09259e-05
1.21492e-05
1.1293e-05
1.23093e-05
1.15502e-05
1.24262e-05
1.16818e-05
1.24946e-05
1.16719e-05
1.25112e-05
1.15027e-05
1.24746e-05
1.11549e-05
1.23873e-05
1.06112e-05
1.22588e-05
9.85635e-06
1.21044e-05
8.87265e-06
1.19433e-05
7.64054e-06
1.18041e-05
6.14581e-06
1.17315e-05
4.38407e-06
1.17853e-05
2.35903e-06
1.20334e-05
8.31123e-08
1.2549e-05
-2.41535e-06
1.34044e-05
-5.07689e-06
1.46548e-05
-7.79526e-06
1.62942e-05
-1.04153e-05
1.81688e-05
-1.27626e-05
1.98341e-05
-1.47401e-05
2.03596e-05
-1.65412e-05
1.81288e-05
-1.89932e-05
1.08424e-05
-2.36451e-05
-3.93262e-06
-3.16284e-05
-2.59559e-05
-3.49044e-05
-4.27526e-05
-3.68216e-05
-4.3992e-05
-3.82256e-05
-4.21859e-05
-3.98588e-05
-3.93373e-05
-4.49547e-05
-3.80943e-05
-5.61623e-05
8.51788e-07
9.8987e-06
1.69522e-06
9.86843e-06
2.51344e-06
9.59534e-06
3.32005e-06
9.46717e-06
4.12234e-06
9.43947e-06
4.92264e-06
9.49151e-06
5.71971e-06
9.60967e-06
6.50967e-06
9.7822e-06
7.28687e-06
9.99806e-06
8.04427e-06
1.02466e-05
8.77371e-06
1.05176e-05
9.46586e-06
1.08011e-05
1.01104e-05
1.10874e-05
1.06962e-05
1.13679e-05
1.12113e-05
1.16341e-05
1.16422e-05
1.18784e-05
1.19742e-05
1.20943e-05
1.21918e-05
1.2277e-05
1.22789e-05
1.24241e-05
1.22181e-05
1.25354e-05
1.19913e-05
1.26141e-05
1.15812e-05
1.26689e-05
1.09717e-05
1.27138e-05
1.01468e-05
1.27682e-05
9.09135e-06
1.28596e-05
7.79549e-06
1.30274e-05
6.25837e-06
1.33224e-05
4.48904e-06
1.38028e-05
2.50857e-06
1.45294e-05
3.55101e-07
1.55579e-05
-1.90871e-06
1.69186e-05
-4.19204e-06
1.85776e-05
-6.38878e-06
2.03656e-05
-8.42456e-06
2.18699e-05
-1.03599e-05
2.2295e-05
-1.25598e-05
2.03287e-05
-1.58766e-05
1.41592e-05
-2.16492e-05
1.84002e-06
-3.01229e-05
-1.74822e-05
-3.43937e-05
-3.84817e-05
-3.66105e-05
-4.17752e-05
-3.80827e-05
-4.07137e-05
-3.93818e-05
-3.80382e-05
-4.1238e-05
-3.62381e-05
-3.98636e-05
8.69283e-07
9.02942e-06
1.73104e-06
9.00666e-06
2.55909e-06
8.76728e-06
3.36873e-06
8.65752e-06
4.16904e-06
8.63916e-06
4.96433e-06
8.69622e-06
5.75538e-06
8.81861e-06
6.54033e-06
8.99725e-06
7.31527e-06
9.22312e-06
8.07469e-06
9.48722e-06
8.81173e-06
9.7806e-06
9.51825e-06
1.00945e-05
1.0185e-05
1.04207e-05
1.08017e-05
1.07511e-05
1.13571e-05
1.10788e-05
1.18385e-05
1.1397e-05
1.22323e-05
1.17005e-05
1.25237e-05
1.19856e-05
1.26973e-05
1.22505e-05
1.27368e-05
1.24959e-05
1.26254e-05
1.27255e-05
1.23469e-05
1.29474e-05
1.18862e-05
1.31745e-05
1.12293e-05
1.34251e-05
1.03646e-05
1.37243e-05
9.28583e-06
1.41061e-05
7.99526e-06
1.4613e-05
6.5052e-06
1.52928e-05
4.84042e-06
1.61942e-05
3.04103e-06
1.73573e-05
1.16461e-06
1.8795e-05
-7.17903e-07
2.04601e-05
-2.54216e-06
2.21898e-05
-4.29863e-06
2.36263e-05