/*--------------------------------*- C++ -*----------------------------------*\
| =========                 |                                                 |
| \\      /  F ield         | OpenFOAM: The Open Source CFD Toolbox           |
|  \\    /   O peration     | Version:  5.0                                   |
|   \\  /    A nd           | Web:      www.OpenFOAM.org                      |
|    \\/     M anipulation  |                                                 |
\*---------------------------------------------------------------------------*/
FoamFile
{
    version     2.0;
    format      ascii;
    class       volVectorField;
    location    "0.85";
    object      U;
}
// * * * * * * * * * * * * * * * * * * * * * * * * * * * * * * * * * * * * * //

dimensions      [0 1 -1 0 0 0 0];

internalField   nonuniform List<vector> 
1935
(
(-0.0128041 0.0113461 0)
(-0.0438942 0.0148662 0)
(-0.0704471 0.00996059 0)
(-0.0868672 0.00567277 0)
(-0.0983072 0.00343247 0)
(-0.10718 0.00266552 0)
(-0.115264 0.00268807 0)
(-0.123481 0.00304087 0)
(-0.132206 0.00347663 0)
(-0.141496 0.00387286 0)
(-0.151248 0.00417606 0)
(-0.161292 0.00437191 0)
(-0.171442 0.0044663 0)
(-0.181532 0.00447339 0)
(-0.19142 0.00440956 0)
(-0.200989 0.00428964 0)
(-0.21015 0.00412582 0)
(-0.218832 0.00392821 0)
(-0.226982 0.00370556 0)
(-0.234561 0.00346502 0)
(-0.241541 0.0032117 0)
(-0.247901 0.00294894 0)
(-0.253625 0.00267873 0)
(-0.258695 0.00240143 0)
(-0.263091 0.00211544 0)
(-0.266785 0.00181717 0)
(-0.269734 0.00149903 0)
(-0.271873 0.0011386 0)
(-0.273104 0.000685488 0)
(-0.273218 9.71795e-05 0)
(-0.271872 -0.000610945 0)
(-0.268983 -0.00141527 0)
(-0.264336 -0.00236146 0)
(-0.257597 -0.00343696 0)
(-0.24843 -0.00453637 0)
(-0.237074 -0.00548968 0)
(-0.224029 -0.00641913 0)
(-0.207746 -0.00863668 0)
(-0.187145 -0.0111955 0)
(-0.16377 -0.0123525 0)
(-0.139175 -0.012702 0)
(-0.113643 -0.0136548 0)
(-0.0866656 -0.0152565 0)
(-0.057487 -0.0169785 0)
(-0.021736 0.0321243 0)
(-0.0466526 0.0324915 0)
(-0.0643683 0.0236575 0)
(-0.0776311 0.0161382 0)
(-0.0891428 0.0120147 0)
(-0.0999951 0.0103801 0)
(-0.11075 0.0101443 0)
(-0.121664 0.0105343 0)
(-0.132812 0.0111015 0)
(-0.14415 0.0116114 0)
(-0.155567 0.0119562 0)
(-0.166928 0.0121012 0)
(-0.178092 0.0120514 0)
(-0.188935 0.0118301 0)
(-0.19935 0.0114668 0)
(-0.209252 0.0109902 0)
(-0.218574 0.0104252 0)
(-0.227265 0.00979291 0)
(-0.235287 0.00911112 0)
(-0.242613 0.00839333 0)
(-0.249223 0.00764841 0)
(-0.255095 0.00688121 0)
(-0.260211 0.00609274 0)
(-0.264545 0.00527948 0)
(-0.268064 0.00443317 0)
(-0.270719 0.00354035 0)
(-0.27245 0.00257999 0)
(-0.273175 0.00151614 0)
(-0.272798 0.000289896 0)
(-0.271256 -0.00115357 0)
(-0.268485 -0.00283277 0)
(-0.264224 -0.00475653 0)
(-0.258285 -0.00696804 0)
(-0.250483 -0.00946439 0)
(-0.240619 -0.0121687 0)
(-0.228484 -0.0149232 0)
(-0.213811 -0.017681 0)
(-0.196596 -0.0214259 0)
(-0.177187 -0.02534 0)
(-0.155877 -0.0277808 0)
(-0.132922 -0.0289479 0)
(-0.108874 -0.0301391 0)
(-0.0845104 -0.0313106 0)
(-0.0602279 -0.0324314 0)
(-0.0220378 0.0557246 0)
(-0.039683 0.0464424 0)
(-0.0539754 0.0342242 0)
(-0.0674866 0.0254273 0)
(-0.0803767 0.020802 0)
(-0.0929337 0.0190118 0)
(-0.10531 0.0187694 0)
(-0.117588 0.0192039 0)
(-0.12979 0.0198029 0)
(-0.141884 0.0202916 0)
(-0.153803 0.020541 0)
(-0.165463 0.0205101 0)
(-0.176774 0.0202064 0)
(-0.187652 0.0196615 0)
(-0.198021 0.0189154 0)
(-0.207819 0.0180081 0)
(-0.216995 0.016975 0)
(-0.225507 0.0158464 0)
(-0.233325 0.0146472 0)
(-0.240427 0.0133953 0)
(-0.24679 0.0121012 0)
(-0.252395 0.0107694 0)
(-0.257219 0.00939778 0)
(-0.261234 0.00797709 0)
(-0.264401 0.00649085 0)
(-0.266671 0.00491569 0)
(-0.267984 0.00321935 0)
(-0.268262 0.00135808 0)
(-0.267419 -0.000722363 0)
(-0.265367 -0.0030767 0)
(-0.262005 -0.00575853 0)
(-0.257189 -0.00881334 0)
(-0.25078 -0.0122667 0)
(-0.24264 -0.0161071 0)
(-0.232613 -0.0202714 0)
(-0.220469 -0.0246629 0)
(-0.205979 -0.0292801 0)
(-0.189322 -0.0344219 0)
(-0.170948 -0.0394411 0)
(-0.150882 -0.0431864 0)
(-0.128993 -0.0455245 0)
(-0.10592 -0.047159 0)
(-0.0825729 -0.0482458 0)
(-0.0596709 -0.0490427 0)
(-0.0189795 0.0766148 0)
(-0.0332073 0.058625 0)
(-0.0466504 0.044631 0)
(-0.0605234 0.0355697 0)
(-0.074411 0.0308008 0)
(-0.0881983 0.0288593 0)
(-0.101766 0.0284661 0)
(-0.115047 0.0287498 0)
(-0.128007 0.0291838 0)
(-0.140616 0.0294762 0)
(-0.152837 0.029486 0)
(-0.164623 0.0291664 0)
(-0.175928 0.0285244 0)
(-0.186704 0.0275937 0)
(-0.196902 0.0264194 0)
(-0.206482 0.025048 0)
(-0.215406 0.0235213 0)
(-0.223645 0.0218755 0)
(-0.231173 0.0201407 0)
(-0.23797 0.0183377 0)
(-0.244019 0.0164772 0)
(-0.249296 0.0145624 0)
(-0.253781 0.0125884 0)
(-0.257443 0.01054 0)
(-0.260245 0.00839335 0)
(-0.262138 0.00611708 0)
(-0.263066 0.00367027 0)
(-0.262959 0.00100111 0)
(-0.261742 -0.00195051 0)
(-0.25933 -0.00524964 0)
(-0.255635 -0.00895642 0)
(-0.250549 -0.0131239 0)
(-0.243964 -0.0177829 0)
(-0.235761 -0.02293 0)
(-0.225797 -0.0285166 0)
(-0.213882 -0.0344607 0)
(-0.199854 -0.0407146 0)
(-0.183814 -0.047247 0)
(-0.166016 -0.0534874 0)
(-0.14647 -0.058563 0)
(-0.125165 -0.0621097 0)
(-0.10262 -0.0643339 0)
(-0.0797162 -0.0654757 0)
(-0.0573738 -0.0659406 0)
(-0.0147623 0.0937668 0)
(-0.027504 0.0697649 0)
(-0.041012 0.0551079 0)
(-0.0554304 0.0463103 0)
(-0.0702439 0.0416499 0)
(-0.0850703 0.0396044 0)
(-0.0996112 0.0389762 0)
(-0.113695 0.0389589 0)
(-0.127246 0.0390584 0)
(-0.140235 0.0389936 0)
(-0.152645 0.038625 0)
(-0.164465 0.0379059 0)
(-0.175683 0.0368413 0)
(-0.186285 0.0354627 0)
(-0.196247 0.0338156 0)
(-0.205548 0.0319483 0)
(-0.214164 0.0299046 0)
(-0.222074 0.0277236 0)
(-0.229259 0.0254389 0)
(-0.235704 0.0230724 0)
(-0.241392 0.0206335 0)
(-0.246301 0.0181239 0)
(-0.250411 0.0155359 0)
(-0.253694 0.0128485 0)
(-0.256114 0.010031 0)
(-0.257627 0.00704608 0)
(-0.258183 0.00384631 0)
(-0.257726 0.000373193 0)
(-0.25619 -0.00343873 0)
(-0.253506 -0.00765804 0)
(-0.2496 -0.0123518 0)
(-0.244391 -0.017579 0)
(-0.237785 -0.0233792 0)
(-0.229674 -0.029763 0)
(-0.219918 -0.0367015 0)
(-0.208343 -0.044123 0)
(-0.194784 -0.0519248 0)
(-0.179215 -0.059905 0)
(-0.1617 -0.0675013 0)
(-0.142234 -0.0739245 0)
(-0.120929 -0.0786243 0)
(-0.0983707 -0.0814315 0)
(-0.0755527 -0.0824775 0)
(-0.0536099 -0.0823834 0)
(-0.0102245 0.10742 0)
(-0.0225319 0.0803911 0)
(-0.0365952 0.0658962 0)
(-0.0517903 0.0576441 0)
(-0.0675663 0.0532064 0)
(-0.0833455 0.0510474 0)
(-0.0987204 0.0500889 0)
(-0.113459 0.0496316 0)
(-0.127467 0.0492467 0)
(-0.140721 0.0486825 0)
(-0.153224 0.0478124 0)
(-0.164995 0.0465957 0)
(-0.17606 0.0450346 0)
(-0.186429 0.0431544 0)
(-0.196103 0.0409967 0)
(-0.205079 0.0386079 0)
(-0.213344 0.0360292 0)
(-0.220883 0.0333001 0)
(-0.227685 0.0304569 0)
(-0.233738 0.027521 0)
(-0.239027 0.0244985 0)
(-0.243533 0.02139 0)
(-0.247237 0.0181859 0)
(-0.250115 0.0148596 0)
(-0.252135 0.011374 0)
(-0.253259 0.00768857 0)
(-0.253447 0.00375198 0)
(-0.252656 -0.000499514 0)
(-0.250833 -0.00513501 0)
(-0.247927 -0.0102256 0)
(-0.243881 -0.0158432 0)
(-0.238631 -0.0220543 0)
(-0.232098 -0.028911 0)
(-0.224178 -0.036444 0)
(-0.214728 -0.0446509 0)
(-0.203557 -0.0534787 0)
(-0.190451 -0.0627987 0)
(-0.175243 -0.0723292 0)
(-0.157815 -0.0814865 0)
(-0.138081 -0.0894443 0)
(-0.116211 -0.0953845 0)
(-0.0929499 -0.0987262 0)
(-0.0696069 -0.0993904 0)
(-0.0477903 -0.0981779 0)
(-0.00599836 0.117682 0)
(-0.0185632 0.0909471 0)
(-0.0334281 0.077295 0)
(-0.0495341 0.0697077 0)
(-0.0662858 0.0654791 0)
(-0.0829481 0.0631217 0)
(-0.099043 0.0617032 0)
(-0.11431 0.0606599 0)
(-0.128655 0.0596471 0)
(-0.142065 0.0584516 0)
(-0.154564 0.0569682 0)
(-0.166205 0.0551681 0)
(-0.177048 0.0530486 0)
(-0.187129 0.050622 0)
(-0.196466 0.0479222 0)
(-0.205072 0.0449909 0)
(-0.212946 0.0418617 0)
(-0.220076 0.0385727 0)
(-0.226454 0.0351638 0)
(-0.232079 0.0316542 0)
(-0.236935 0.0280443 0)
(-0.241002 0.0243348 0)
(-0.244268 0.0205166 0)
(-0.246716 0.0165562 0)
(-0.248315 0.0124109 0)
(-0.249033 0.00804021 0)
(-0.248846 0.003392 0)
(-0.247722 -0.00160212 0)
(-0.245626 -0.00701367 0)
(-0.242522 -0.0129147 0)
(-0.238372 -0.0193818 0)
(-0.23313 -0.0264915 0)
(-0.226727 -0.0343125 0)
(-0.219067 -0.0429037 0)
(-0.209997 -0.0523015 0)
(-0.199293 -0.0624923 0)
(-0.186662 -0.0733628 0)
(-0.171779 -0.0846101 0)
(-0.154314 -0.0956153 0)
(-0.134015 -0.105422 0)
(-0.111005 -0.112839 0)
(-0.0862079 -0.116744 0)
(-0.0614096 -0.116661 0)
(-0.0389498 -0.113404 0)
(-0.0026832 0.125635 0)
(-0.0157528 0.101908 0)
(-0.0315155 0.0896238 0)
(-0.0485683 0.0827487 0)
(-0.0662741 0.078652 0)
(-0.0837586 0.0759488 0)
(-0.100483 0.0738841 0)
(-0.116172 0.0720624 0)
(-0.130745 0.0702431 0)
(-0.144205 0.0682595 0)
(-0.156602 0.0660384 0)
(-0.16803 0.0635711 0)
(-0.178584 0.060837 0)
(-0.188322 0.057824 0)
(-0.197274 0.0545551 0)
(-0.205468 0.051065 0)
(-0.212913 0.0473727 0)
(-0.219594 0.0435132 0)
(-0.225511 0.0395333 0)
(-0.230672 0.0354478 0)
(-0.23506 0.0312466 0)
(-0.238654 0.0269345 0)
(-0.241448 0.0225068 0)
(-0.243436 0.0179205 0)
(-0.244589 0.0131263 0)
(-0.24488 0.00808987 0)
(-0.2443 0.00276127 0)
(-0.242837 -0.00293346 0)
(-0.240465 -0.00906749 0)
(-0.237167 -0.0157111 0)
(-0.232926 -0.0229461 0)
(-0.227712 -0.0308615 0)
(-0.221473 -0.0395466 0)
(-0.214122 -0.0490965 0)
(-0.205498 -0.0596042 0)
(-0.195342 -0.0711244 0)
(-0.183266 -0.0836079 0)
(-0.168768 -0.0967884 0)
(-0.151259 -0.110031 0)
(-0.130184 -0.122202 0)
(-0.10546 -0.131593 0)
(-0.0781387 -0.136286 0)
(-0.0505973 -0.135128 0)
(-0.0261447 -0.128527 0)
(7.59428e-05 0.13169 0)
(-0.0135884 0.113166 0)
(-0.0304556 0.102851 0)
(-0.0484902 0.0969006 0)
(-0.0671697 0.092975 0)
(-0.0854948 0.0898205 0)
(-0.102838 0.0869038 0)
(-0.118897 0.0840587 0)
(-0.133609 0.0811926 0)
(-0.147014 0.0782064 0)
(-0.159208 0.0750808 0)
(-0.17034 0.071837 0)
(-0.180546 0.0684085 0)
(-0.189887 0.064748 0)
(-0.198405 0.0608704 0)
(-0.20615 0.0568029 0)
(-0.213132 0.052533 0)
(-0.219328 0.0480903 0)
(-0.224746 0.0435359 0)
(-0.229411 0.0388752 0)
(-0.2333 0.0340791 0)
(-0.236382 0.0291633 0)
(-0.238672 0.0241341 0)
(-0.240174 0.0189329 0)
(-0.240853 0.0135011 0)
(-0.240688 0.00782053 0)
(-0.239694 0.00184748 0)
(-0.237874 -0.00450189 0)
(-0.235212 -0.0113019 0)
(-0.231708 -0.0186163 0)
(-0.227369 -0.0265319 0)
(-0.222183 -0.0351533 0)
(-0.216118 -0.044591 0)
(-0.209104 -0.054984 0)
(-0.200989 -0.0665004 0)
(-0.191484 -0.0792986 0)
(-0.180114 -0.0934498 0)
(-0.166187 -0.1088 0)
(-0.148796 -0.124767 0)
(-0.126915 -0.140058 0)
(-0.0999972 -0.152281 0)
(-0.069084 -0.158363 0)
(-0.0371639 -0.156135 0)
(-0.00862922 -0.145095 0)
(-0.000698405 0.125199 0)
(-0.0129372 0.11912 0)
(-0.029922 0.112835 0)
(-0.0486496 0.108649 0)
(-0.0683553 0.105458 0)
(-0.0877006 0.102406 0)
(-0.105802 0.0991611 0)
(-0.122247 0.0957005 0)
(-0.137021 0.0920582 0)
(-0.150266 0.0882122 0)
(-0.162165 0.0842117 0)
(-0.172945 0.0801249 0)
(-0.18276 0.0758972 0)
(-0.191654 0.0714845 0)
(-0.199691 0.0669231 0)
(-0.206951 0.0622365 0)
(-0.213442 0.0573482 0)
(-0.219118 0.0522879 0)
(-0.224003 0.047149 0)
(-0.228146 0.0419151 0)
(-0.231508 0.0365163 0)
(-0.234046 0.0309935 0)
(-0.235798 0.0253766 0)
(-0.236791 0.019575 0)
(-0.236971 0.013515 0)
(-0.23632 0.00721261 0)
(-0.234886 0.000635495 0)
(-0.23269 -0.00632094 0)
(-0.229716 -0.0137315 0)
(-0.225981 -0.0216433 0)
(-0.22152 -0.0301491 0)
(-0.216342 -0.0393717 0)
(-0.210436 -0.0494394 0)
(-0.203766 -0.060537 0)
(-0.196209 -0.0729254 0)
(-0.187471 -0.0869024 0)
(-0.177017 -0.102723 0)
(-0.163992 -0.120447 0)
(-0.147135 -0.139678 0)
(-0.124737 -0.159093 0)
(-0.0954264 -0.175466 0)
(-0.0600219 -0.184113 0)
(-0.0219696 -0.181693 0)
(0.0138599 -0.167081 0)
(-0.010255 0.129995 0)
(-0.014143 0.126563 0)
(-0.0299971 0.121686 0)
(-0.0491522 0.118399 0)
(-0.0700956 0.115304 0)
(-0.0906494 0.11183 0)
(-0.109411 0.108031 0)
(-0.125928 0.104121 0)
(-0.140426 0.100156 0)
(-0.153317 0.0960599 0)
(-0.164976 0.091881 0)
(-0.175555 0.0875737 0)
(-0.185001 0.0829442 0)
(-0.193403 0.0779929 0)
(-0.200915 0.0728391 0)
(-0.207668 0.0675267 0)
(-0.213645 0.0619397 0)
(-0.218758 0.0561783 0)
(-0.223072 0.0504181 0)
(-0.226674 0.0445952 0)
(-0.229486 0.0385579 0)
(-0.231438 0.0324093 0)
(-0.232624 0.0262216 0)
(-0.233093 0.0198341 0)
(-0.232749 0.0131433 0)
(-0.231576 0.00623614 0)
(-0.229676 -0.000902542 0)
(-0.227085 -0.00842289 0)
(-0.223771 -0.0163985 0)
(-0.219767 -0.0248409 0)
(-0.215149 -0.0338504 0)
(-0.20994 -0.0435739 0)
(-0.204152 -0.054145 0)
(-0.197804 -0.0657891 0)
(-0.190827 -0.0788723 0)
(-0.182968 -0.0938622 0)
(-0.173689 -0.111263 0)
(-0.16204 -0.131468 0)
(-0.14645 -0.15448 0)
(-0.124299 -0.179254 0)
(-0.0929412 -0.201596 0)
(-0.0528707 -0.214537 0)
(-0.00807639 -0.213554 0)
(0.0375482 -0.197799 0)
(-0.0510603 0.147454 0)
(-0.0124185 0.134099 0)
(-0.02835 0.129488 0)
(-0.0482255 0.126857 0)
(-0.0704402 0.123996 0)
(-0.0923769 0.120528 0)
(-0.112156 0.116404 0)
(-0.129069 0.111866 0)
(-0.143425 0.10712 0)
(-0.156082 0.102165 0)
(-0.167848 0.0972516 0)
(-0.178132 0.0925062 0)
(-0.186875 0.0877578 0)
(-0.194572 0.0827525 0)
(-0.201581 0.0775554 0)
(-0.20796 0.0720859 0)
(-0.213453 0.0660652 0)
(-0.217964 0.0597178 0)
(-0.221685 0.053388 0)
(-0.224742 0.0469578 0)
(-0.226977 0.040197 0)
(-0.228302 0.0333745 0)
(-0.228904 0.0266393 0)
(-0.22885 0.0196766 0)
(-0.227963 0.0123324 0)
(-0.226234 0.00484021 0)
(-0.223855 -0.00280029 0)
(-0.220865 -0.0108408 0)
(-0.217182 -0.0193468 0)
(-0.212866 -0.0282543 0)
(-0.208047 -0.0376796 0)
(-0.202753 -0.0478091 0)
(-0.197015 -0.0587533 0)
(-0.190923 -0.0707597 0)
(-0.184501 -0.084304 0)
(-0.177585 -0.100041 0)
(-0.169724 -0.118767 0)
(-0.160014 -0.141332 0)
(-0.146742 -0.168432 0)
(-0.12617 -0.199955 0)
(-0.0938354 -0.230519 0)
(-0.0501157 -0.249483 0)
(-0.000810839 -0.251097 0)
(0.0494098 -0.236368 0)
(-0.0158444 0.204597 0)
(-0.00213323 0.143133 0)
(-0.0241807 0.173419 0)
(-0.0401151 0.177529 0)
(-0.0623157 0.170939 0)
(-0.0854189 0.154656 0)
(-0.106135 0.137255 0)
(-0.12383 0.124381 0)
(-0.138783 0.115108 0)
(-0.152224 0.107875 0)
(-0.166782 0.101999 0)
(-0.178794 0.0967769 0)
(-0.187784 0.0916506 0)
(-0.195181 0.0862583 0)
(-0.201936 0.08068 0)
(-0.20781 0.0748821 0)
(-0.212489 0.0686524 0)
(-0.216262 0.0621306 0)
(-0.219483 0.0556223 0)
(-0.222087 0.0488034 0)
(-0.22372 0.0413613 0)
(-0.224388 0.0338677 0)
(-0.224427 0.0266195 0)
(-0.223875 0.0190553 0)
(-0.222426 0.0109855 0)
(-0.220122 0.00293486 0)
(-0.217284 -0.00511757 0)
(-0.213918 -0.013638 0)
(-0.20985 -0.0226575 0)
(-0.20518 -0.0319581 0)
(-0.200122 -0.0417014 0)
(-0.194686 -0.0521513 0)
(-0.1889 -0.0633407 0)
(-0.18295 -0.0755039 0)
(-0.176978 -0.0892226 0)
(-0.170955 -0.105321 0)
(-0.164616 -0.124879 0)
(-0.157308 -0.149295 0)
(-0.147562 -0.18038 0)
(-0.13025 -0.220178 0)
(-0.0983966 -0.26151 0)
(-0.0525798 -0.287451 0)
(-0.00204305 -0.290747 0)
(0.0464506 -0.275667 0)
(0.0127935 0.177067 0)
(0.00654041 0.143928 0)
(-0.0112806 0.169856 0)
(-0.0183044 0.179018 0)
(-0.0287937 0.182519 0)
(-0.0416218 0.181612 0)
(-0.0572054 0.174884 0)
(-0.0744947 0.163252 0)
(-0.0929299 0.151215 0)
(-0.112925 0.143064 0)
(-0.137142 0.134977 0)
(-0.166661 0.111253 0)
(-0.180815 0.0982088 0)
(-0.18977 0.0901288 0)
(-0.198225 0.0836391 0)
(-0.205508 0.0772277 0)
(-0.210493 0.0704889 0)
(-0.214026 0.0636019 0)
(-0.216843 0.0568497 0)
(-0.21862 0.0496843 0)
(-0.219329 0.0418541 0)
(-0.21939 0.0340292 0)
(-0.219041 0.0264264 0)
(-0.218001 0.0181851 0)
(-0.215921 0.00922359 0)
(-0.213068 0.000565552 0)
(-0.209862 -0.00785659 0)
(-0.20617 -0.0169071 0)
(-0.201704 -0.0265057 0)
(-0.196648 -0.0361441 0)
(-0.191328 -0.0461062 0)
(-0.185705 -0.056819 0)
(-0.179767 -0.0681494 0)
(-0.17381 -0.0802678 0)
(-0.168098 -0.0938523 0)
(-0.162753 -0.109824 0)
(-0.157787 -0.129463 0)
(-0.1531 -0.154786 0)
(-0.148137 -0.18923 0)
(-0.135325 -0.238491 0)
(-0.105107 -0.293124 0)
(-0.0590689 -0.32619 0)
(-0.0109762 -0.328554 0)
(0.0300542 -0.309911 0)
(0.00937448 0.159318 0)
(0.00265666 0.154475 0)
(-0.00657633 0.168011 0)
(-0.00754476 0.174023 0)
(-0.00998129 0.175796 0)
(-0.0141944 0.173817 0)
(-0.021833 0.168268 0)
(-0.0328897 0.160283 0)
(-0.0464082 0.152723 0)
(-0.0607118 0.148994 0)
(-0.0743196 0.148326 0)
(-0.0915391 0.140867 0)
(-0.110576 0.125166 0)
(-0.130972 0.11282 0)
(-0.151466 0.106221 0)
(-0.184422 0.0894264 0)
(-0.200978 0.0744284 0)
(-0.20718 0.065349 0)
(-0.21135 0.0580415 0)
(-0.213612 0.0502697 0)
(-0.214313 0.0417902 0)
(-0.214218 0.0336605 0)
(-0.213271 0.0259103 0)
(-0.211078 0.0172345 0)
(-0.208135 0.0077929 0)
(-0.205043 -0.00119237 0)
(-0.201709 -0.00999997 0)
(-0.19768 -0.0198424 0)
(-0.192776 -0.0302822 0)
(-0.187335 -0.0403538 0)
(-0.181733 -0.0505622 0)
(-0.175896 -0.0616261 0)
(-0.169752 -0.0731028 0)
(-0.163651 -0.0850656 0)
(-0.157938 -0.0982915 0)
(-0.152873 -0.113708 0)
(-0.148829 -0.132628 0)
(-0.147036 -0.157825 0)
(-0.148545 -0.193951 0)
(-0.139576 -0.251235 0)
(-0.110762 -0.320067 0)
(-0.0681002 -0.361436 0)
(-0.027167 -0.360042 0)
(0.00140081 -0.334759 0)
(0.00232648 0.159452 0)
(-0.000551565 0.162067 0)
(-0.00317298 0.17023 0)
(-0.000621128 0.17444 0)
(0.00151986 0.175752 0)
(0.0026674 0.174111 0)
(0.00139325 0.1699 0)
(-0.00301051 0.164202 0)
(-0.010224 0.158753 0)
(-0.0186026 0.155294 0)
(-0.0264394 0.152451 0)
(-0.0366028 0.144497 0)
(-0.0511219 0.133006 0)
(-0.0681772 0.124507 0)
(-0.0839198 0.121418 0)
(-0.101641 0.114435 0)
(-0.120281 0.0968395 0)
(-0.139524 0.0796909 0)
(-0.158009 0.0698666 0)
(-0.18924 0.0555128 0)
(-0.203507 0.0421697 0)
(-0.206448 0.033109 0)
(-0.206199 0.0253112 0)
(-0.203538 0.0162405 0)
(-0.200499 0.00622823 0)
(-0.197605 -0.00294147 0)
(-0.193723 -0.0119141 0)
(-0.188651 -0.0223014 0)
(-0.18317 -0.0330472 0)
(-0.17749 -0.0431567 0)
(-0.171557 -0.0535139 0)
(-0.165499 -0.0651838 0)
(-0.15927 -0.0769229 0)
(-0.153023 -0.0888019 0)
(-0.147141 -0.101728 0)
(-0.142146 -0.116553 0)
(-0.139268 -0.134476 0)
(-0.143581 -0.158068 0)
(-0.161818 -0.190696 0)
(-0.156805 -0.256048 0)
(-0.120933 -0.349731 0)
(-0.0836843 -0.391862 0)
(-0.0546623 -0.381931 0)
(-0.0383339 -0.348383 0)
(-0.000273973 0.160179 0)
(-0.000210597 0.163626 0)
(0.00108983 0.16902 0)
(0.00582226 0.172286 0)
(0.010728 0.173856 0)
(0.0151548 0.173474 0)
(0.0180282 0.171214 0)
(0.0185517 0.167613 0)
(0.0166251 0.163714 0)
(0.0131484 0.160505 0)
(0.00936284 0.157163 0)
(0.00400337 0.150684 0)
(-0.00486621 0.142286 0)
(-0.0164762 0.135355 0)
(-0.0277481 0.130638 0)
(-0.0396603 0.122161 0)
(-0.0546404 0.108175 0)
(-0.0724613 0.0953087 0)
(-0.0891843 0.0880814 0)
(-0.106949 0.0775829 0)
(-0.123588 0.0572528 0)
(-0.139346 0.0377547 0)
(-0.153136 0.0252307 0)
(-0.174466 0.0135775 0)
(-0.187257 0.00267366 0)
(-0.188377 -0.00608731 0)
(-0.185292 -0.0145033 0)
(-0.179836 -0.0245787 0)
(-0.174504 -0.0351528 0)
(-0.168967 -0.0450325 0)
(-0.162079 -0.0553216 0)
(-0.155468 -0.0681891 0)
(-0.149351 -0.0800779 0)
(-0.142912 -0.0917875 0)
(-0.136812 -0.104372 0)
(-0.132567 -0.118257 0)
(-0.132261 -0.132523 0)
(-0.156192 -0.150549 0)
(-0.241116 -0.163309 0)
(-0.233678 -0.276475 0)
(-0.155898 -0.40393 0)
(-0.12003 -0.419139 0)
(-0.0997974 -0.39467 0)
(-0.0876476 -0.353301 0)
(-0.000179738 0.159582 0)
(0.00192318 0.162139 0)
(0.0056009 0.165261 0)
(0.0117271 0.16755 0)
(0.0184364 0.169069 0)
(0.0249911 0.169477 0)
(0.0305676 0.168659 0)
(0.0344987 0.166808 0)
(0.0365305 0.164459 0)
(0.037033 0.162143 0)
(0.0366666 0.159494 0)
(0.0349475 0.155066 0)
(0.0306296 0.149142 0)
(0.0238586 0.143362 0)
(0.0163779 0.138095 0)
(0.00823106 0.130326 0)
(-0.00260491 0.119292 0)
(-0.0163616 0.108598 0)
(-0.0301199 0.100059 0)
(-0.0438914 0.0883126 0)
(-0.0593699 0.0710964 0)
(-0.0768871 0.0547314 0)
(-0.0934895 0.0432903 0)
(-0.10956 0.0306346 0)
(-0.123692 0.0119517 0)
(-0.135268 -0.00780514 0)
(-0.144714 -0.023446 0)
(-0.151751 -0.036979 0)
(-0.156892 -0.0491534 0)
(-0.159229 -0.0616799 0)
(-0.157108 -0.0722873 0)
(-0.147333 -0.0752981 0)
(-0.142341 -0.0859419 0)
(-0.136898 -0.0975046 0)
(-0.134387 -0.109734 0)
(-0.14779 -0.120124 0)
(-0.223561 -0.108762 0)
(-0.761903 0.0118227 0)
(-0.537421 -0.137765 0)
(-0.282721 -0.435098 0)
(-0.213433 -0.462121 0)
(-0.18058 -0.442932 0)
(-0.160308 -0.402202 0)
(-0.151018 -0.348878 0)
(0.000885481 0.157916 0)
(0.00456392 0.159352 0)
(0.00980862 0.160334 0)
(0.0169485 0.161623 0)
(0.0248277 0.162838 0)
(0.0327768 0.163578 0)
(0.0401502 0.163644 0)
(0.0464152 0.163046 0)
(0.0512839 0.161996 0)
(0.0548304 0.160718 0)
(0.0573147 0.159027 0)
(0.0584982 0.156206 0)
(0.0576959 0.152227 0)
(0.054846 0.147808 0)
(0.0507681 0.143117 0)
(0.045647 0.136746 0)
(0.0383163 0.128135 0)
(0.0284001 0.118873 0)
(0.0174882 0.109926 0)
(0.00604599 0.0986492 0)
(-0.00755703 0.0841104 0)
(-0.0237676 0.0697223 0)
(-0.0402987 0.0574992 0)
(-0.0562114 0.0440224 0)
(-0.0722549 0.0266755 0)
(-0.0892124 0.00859138 0)
(-0.106438 -0.00699799 0)
(-0.123142 -0.0208895 0)
(-0.139791 -0.0342054 0)
(-0.157565 -0.0488555 0)
(-0.178468 -0.0651919 0)
(-0.202983 -0.0820307 0)
(-0.235987 -0.0913456 0)
(-0.284095 -0.0966776 0)
(-0.360937 -0.0869457 0)
(-0.481247 -0.019348 0)
(-0.640199 0.14383 0)
(-0.733588 0.108082 0)
(-0.34721 -0.420706 0)
(-0.294498 -0.511239 0)
(-0.267254 -0.499368 0)
(-0.247577 -0.463353 0)
(-0.228795 -0.407585 0)
(-0.227734 -0.348695 0)
(0.00221029 0.154782 0)
(0.00721327 0.155303 0)
(0.0136075 0.154606 0)
(0.0215152 0.154984 0)
(0.0301515 0.155814 0)
(0.0389835 0.156653 0)
(0.0475195 0.157249 0)
(0.0553389 0.157504 0)
(0.0621636 0.157443 0)
(0.0679169 0.157109 0)
(0.0726365 0.156361 0)
(0.0761526 0.154828 0)
(0.0780766 0.152405 0)
(0.0782882 0.149349 0)
(0.0771061 0.14568 0)
(0.0745974 0.140713 0)
(0.0701499 0.134052 0)
(0.063449 0.126369 0)
(0.0552079 0.118114 0)
(0.0457459 0.108108 0)
(0.0340618 0.0958486 0)
(0.019745 0.0829737 0)
(0.00409953 0.0706895 0)
(-0.0120419 0.0573443 0)
(-0.0295872 0.0416778 0)
(-0.0494573 0.0254518 0)
(-0.0712939 0.0107687 0)
(-0.0945425 -0.00228334 0)
(-0.11968 -0.0141969 0)
(-0.148321 -0.0253677 0)
(-0.182858 -0.0348764 0)
(-0.224944 -0.0390108 0)
(-0.277917 -0.0349022 0)
(-0.346772 -0.020002 0)
(-0.435499 0.0141176 0)
(-0.535677 0.081048 0)
(-0.599727 0.141071 0)
(-0.552571 -0.0107111 0)
(-0.351614 -0.533668 0)
(-0.331126 -0.54439 0)
(-0.322325 -0.519669 0)
(-0.312936 -0.479182 0)
(-0.299213 -0.412686 0)
(-0.24723 -0.488885 0)
(0.00346601 0.150124 0)
(0.00961795 0.150046 0)
(0.0169443 0.148136 0)
(0.0254491 0.147763 0)
(0.0345824 0.148211 0)
(0.043954 0.149031 0)
(0.0532054 0.149938 0)
(0.0620123 0.15077 0)
(0.0701266 0.15145 0)
(0.0774081 0.151918 0)
(0.0837828 0.152042 0)
(0.0890985 0.15159 0)
(0.0931027 0.150445 0)
(0.0956554 0.148644 0)
(0.0968203 0.146128 0)
(0.0965609 0.142531 0)
(0.0945198 0.137596 0)
(0.0904481 0.131559 0)
(0.0845853 0.124592 0)
(0.0770227 0.116163 0)
(0.0671944 0.106018 0)
(0.0547749 0.0949684 0)
(0.0403636 0.0836842 0)
(0.0243913 0.0714999 0)
(0.00619172 0.0578982 0)
(-0.0150183 0.0439552 0)
(-0.0391928 0.0312058 0)
(-0.0660996 0.0202086 0)
(-0.0961962 0.0111504 0)
(-0.130757 0.00449976 0)
(-0.171648 0.00198792 0)
(-0.220335 0.00659841 0)
(-0.278031 0.020999 0)
(-0.345511 0.0474377 0)
(-0.419097 0.086831 0)
(-0.479927 0.128179 0)
(-0.486619 0.11278 0)
(-0.416033 -0.10617 0)
(-0.382583 -0.556452 0)
(-0.376739 -0.557343 0)
(-0.375608 -0.529468 0)
(-0.373284 -0.491592 0)
(-0.367474 -0.430391 0)
(-0.271862 -0.655153 0)
(-0.18021 -1.00788 0)
(0.00449784 0.144154 0)
(0.0116491 0.14374 0)
(0.0197667 0.141015 0)
(0.0287436 0.140077 0)
(0.038206 0.140196 0)
(0.0478896 0.140936 0)
(0.0575485 0.142011 0)
(0.0669412 0.143228 0)
(0.0758596 0.144453 0)
(0.0841481 0.145575 0)
(0.0916861 0.146459 0)
(0.0983246 0.146931 0)
(0.103871 0.146865 0)
(0.108177 0.146205 0)
(0.111182 0.144853 0)
(0.112786 0.142584 0)
(0.112735 0.139222 0)
(0.110814 0.134812 0)
(0.10702 0.129393 0)
(0.101291 0.122723 0)
(0.0932638 0.114693 0)
(0.0826676 0.105712 0)
(0.0696856 0.0961671 0)
(0.0544315 0.0858736 0)
(0.0364313 0.0747508 0)
(0.0150984 0.0635812 0)
(-0.00968872 0.0535499 0)
(-0.0378998 0.0454383 0)
(-0.0698894 0.039896 0)
(-0.106491 0.0378396 0)
(-0.148726 0.0409665 0)
(-0.19711 0.0516507 0)
(-0.251124 0.071629 0)
(-0.308474 0.100639 0)
(-0.362652 0.133242 0)
(-0.39756 0.14792 0)
(-0.388018 0.0859137 0)
(-0.340142 -0.145147 0)
(-0.395361 -0.531765 0)
(-0.413657 -0.554781 0)
(-0.418002 -0.52953 0)
(-0.41975 -0.496978 0)
(-0.419135 -0.45522 0)
(-0.383197 -0.692419 0)
(-0.395503 -1.03674 0)
(0.00528977 0.137078 0)
(0.0132731 0.136538 0)
(0.0220479 0.133344 0)
(0.0313921 0.132032 0)
(0.0410668 0.1319 0)
(0.0509096 0.132548 0)
(0.0607662 0.133705 0)
(0.0704657 0.135172 0)
(0.0798425 0.136792 0)
(0.0887504 0.138431 0)
(0.0970573 0.139951 0)
(0.104619 0.141201 0)
(0.11127 0.142054 0)
(0.116859 0.142416 0)
(0.121271 0.142176 0)
(0.124366 0.141173 0)
(0.125935 0.139272 0)
(0.125771 0.136443 0)
(0.123755 0.132668 0)
(0.119741 0.127834 0)
(0.113445 0.121907 0)
(0.104617 0.115111 0)
(0.0932163 0.107705 0)
(0.0791706 0.0997333 0)
(0.0621188 0.0913525 0)
(0.0416361 0.0832115 0)
(0.0175525 0.0762653 0)
(-0.0101757 0.071383 0)
(-0.0417466 0.0694302 0)
(-0.0775464 0.0714799 0)
(-0.11787 0.0789989 0)
(-0.162376 0.0935192 0)
(-0.209526 0.115465 0)
(-0.256038 0.142106 0)
(-0.295869 0.163897 0)
(-0.319229 0.157283 0)
(-0.315448 0.0751212 0)
(-0.297592 -0.142431 0)
(-0.383647 -0.476447 0)
(-0.43369 -0.537665 0)
(-0.442875 -0.520102 0)
(-0.447217 -0.491751 0)
(-0.456844 -0.465133 0)
(-0.495866 -0.66 0)
(-0.608589 -1.02405 0)
(0.00587066 0.129121 0)
(0.0144978 0.12859 0)
(0.0237872 0.125215 0)
(0.0333995 0.123707 0)
(0.0431968 0.123418 0)
(0.0530924 0.123993 0)
(0.063004 0.12519 0)
(0.0728192 0.12682 0)
(0.0824128 0.128726 0)
(0.0916591 0.130766 0)
(0.100432 0.132803 0)
(0.108598 0.134702 0)
(0.116006 0.136338 0)
(0.12251 0.137602 0)
(0.127969 0.138385 0)
(0.132228 0.138559 0)
(0.135094 0.138014 0)
(0.136366 0.136693 0)
(0.135871 0.134562 0)
(0.133422 0.131564 0)
(0.128765 0.127702 0)
(0.121658 0.123122 0)
(0.111951 0.118022 0)
(0.0994804 0.112558 0)
(0.0839549 0.106997 0)
(0.0650662 0.101911 0)
(0.0426611 0.0981084 0)
(0.0167047 0.0964435 0)
(-0.0128432 0.0978294 0)
(-0.0460119 0.103292 0)
(-0.0825939 0.113944 0)
(-0.121756 0.13054 0)
(-0.161683 0.152327 0)
(-0.199389 0.175016 0)
(-0.230797 0.18763 0)
(-0.251723 0.168134 0)
(-0.2611 0.0806451 0)
(-0.271804 -0.11454 0)
(-0.35896 -0.406532 0)
(-0.439049 -0.511305 0)
(-0.451754 -0.504186 0)
(-0.459499 -0.478646 0)
(-0.469729 -0.449973 0)
(-0.50039 -0.491915 0)
(-0.727665 -0.934882 0)
(0.00626807 0.120509 0)
(0.0153472 0.120051 0)
(0.0250026 0.116724 0)
(0.0347856 0.115174 0)
(0.0446289 0.11482 0)
(0.0544992 0.115358 0)
(0.064368 0.116582 0)
(0.0741692 0.118324 0)
(0.0838135 0.120437 0)
(0.0931991 0.122786 0)
(0.102215 0.125241 0)
(0.11074 0.127677 0)
(0.118638 0.129975 0)
(0.12577 0.132028 0)
(0.131989 0.133731 0)
(0.137137 0.134979 0)
(0.141031 0.135679 0)
(0.143475 0.13577 0)
(0.144279 0.135217 0)
(0.143239 0.133992 0)
(0.140118 0.132118 0)
(0.134681 0.129706 0)
(0.126732 0.126928 0)
(0.116077 0.123986 0)
(0.102474 0.121185 0)
(0.0856997 0.119039 0)
(0.0656433 0.118241 0)
(0.0423125 0.119575 0)
(0.0157947 0.123889 0)
(-0.0137061 0.132059 0)
(-0.0457056 0.144833 0)
(-0.0792093 0.162352 0)
(-0.112581 0.183125 0)
(-0.143681 0.202296 0)
(-0.170458 0.209203 0)
(-0.192762 0.18481 0)
(-0.214912 0.101499 0)
(-0.24929 -0.069544 0)
(-0.325875 -0.32061 0)
(-0.435331 -0.480829 0)
(-0.45116 -0.484917 0)
(-0.462384 -0.462548 0)
(-0.471241 -0.431485 0)
(-0.494036 -0.427252 0)
(-0.676327 -0.76696 0)
(0.00650572 0.111448 0)
(0.0158558 0.111084 0)
(0.0257276 0.107973 0)
(0.0355845 0.106504 0)
(0.0454042 0.106166 0)
(0.0551879 0.106706 0)
(0.0649449 0.10796 0)
(0.0746445 0.109787 0)
(0.084227 0.112055 0)
(0.0936142 0.114643 0)
(0.102713 0.117433 0)
(0.111416 0.12031 0)
(0.119604 0.123167 0)
(0.127146 0.125901 0)
(0.133901 0.12842 0)
(0.139716 0.130631 0)
(0.144418 0.132459 0)
(0.147822 0.133847 0)
(0.149735 0.134766 0)
(0.149955 0.135206 0)
(0.148261 0.1352 0)
(0.144429 0.134846 0)
(0.138256 0.134299 0)
(0.129547 0.133773 0)
(0.118103 0.133573 0)
(0.103763 0.134156 0)
(0.0864637 0.136115 0)
(0.0662579 0.140132 0)
(0.0433157 0.146934 0)
(0.017966 0.157209 0)
(-0.00920362 0.171402 0)
(-0.0372427 0.189254 0)
(-0.0648766 0.208952 0)
(-0.0908344 0.225789 0)
(-0.114639 0.230387 0)
(-0.138417 0.206993 0)
(-0.169395 0.133814 0)
(-0.217734 -0.012256 0)
(-0.294578 -0.236271 0)
(-0.42167 -0.442058 0)
(-0.444875 -0.462882 0)
(-0.458232 -0.447129 0)
(-0.469235 -0.417619 0)
(-0.481839 -0.399514 0)
(-0.51189 -0.453624 0)
(0.00660513 0.102117 0)
(0.0160626 0.101844 0)
(0.0260073 0.0990639 0)
(0.0358439 0.0977663 0)
(0.0455746 0.0975067 0)
(0.0552202 0.0980879 0)
(0.0648147 0.0993824 0)
(0.0743528 0.101278 0)
(0.0837984 0.103667 0)
(0.0930936 0.106443 0)
(0.102163 0.109501 0)
(0.110916 0.11274 0)
(0.119247 0.116064 0)
(0.127038 0.119383 0)
(0.13416 0.122613 0)
(0.140467 0.125677 0)
(0.145802 0.12851 0)
(0.149991 0.131069 0)
(0.152854 0.133331 0)
(0.154198 0.135296 0)
(0.15382 0.137006 0)
(0.151515 0.138549 0)
(0.147091 0.140072 0)
(0.140369 0.141777 0)
(0.131189 0.143953 0)
(0.119437 0.146996 0)
(0.105091 0.151405 0)
(0.0882383 0.157753 0)
(0.0690915 0.166628 0)
(0.0480211 0.178539 0)
(0.0256109 0.193704 0)
(0.00267472 0.211653 0)
(-0.0198781 0.23056 0)
(-0.0414328 0.246235 0)
(-0.0624232 0.250891 0)
(-0.0858078 0.231955 0)
(-0.119005 0.172193 0)
(-0.170168 0.0523819 0)
(-0.243876 -0.143851 0)
(-0.392765 -0.39119 0)
(-0.432701 -0.437553 0)
(-0.447179 -0.430076 0)
(-0.459599 -0.403082 0)
(-0.469726 -0.378461 0)
(-0.490845 -0.388378 0)
(0.00658636 0.0926751 0)
(0.0160069 0.0924799 0)
(0.0258931 0.0900985 0)
(0.035621 0.089029 0)
(0.0452012 0.088893 0)
(0.0546638 0.0895434 0)
(0.0640566 0.0908898 0)
(0.0733915 0.0928484 0)
(0.0826498 0.0953334 0)
(0.0917908 0.0982567 0)
(0.100755 0.10153 0)
(0.109468 0.105065 0)
(0.117838 0.108779 0)
(0.125761 0.112593 0)
(0.133122 0.116434 0)
(0.139789 0.12024 0)
(0.145618 0.123959 0)
(0.150455 0.127556 0)
(0.154132 0.131015 0)
(0.156476 0.134349 0)
(0.157304 0.137598 0)
(0.156435 0.140849 0)
(0.153697 0.144234 0)
(0.148934 0.147942 0)