/*--------------------------------*- C++ -*----------------------------------*\
| =========                 |                                                 |
| \\      /  F ield         | OpenFOAM: The Open Source CFD Toolbox           |
|  \\    /   O peration     | Version:  5.0                                   |
|   \\  /    A nd           | Web:      www.OpenFOAM.org                      |
|    \\/     M anipulation  |                                                 |
\*---------------------------------------------------------------------------*/
FoamFile
{
    version     2.0;
    format      ascii;
    class       surfaceScalarField;
    location    "0.75";
    object      alphaPhi10;
}
// * * * * * * * * * * * * * * * * * * * * * * * * * * * * * * * * * * * * * //

dimensions      [0 3 -1 0 0 0 0];

internalField   nonuniform List<scalar> 
3742
(
-8.33745e-24
1.47604e-24
-1.00485e-23
1.1341e-24
-1.12566e-23
7.32669e-25
-1.18419e-23
3.53375e-25
-1.1937e-23
4.98679e-26
-1.29736e-23
-1.76109e-24
-1.67761e-23
-4.83477e-24
-2.76286e-23
-1.17568e-23
-5.8582e-23
-3.23152e-23
-1.56826e-22
-1.05014e-22
-4.83569e-22
-3.78208e-22
-1.56253e-21
-1.39269e-21
-5.02139e-21
-5.01666e-21
-1.57152e-20
-1.73978e-20
-4.77099e-20
-5.80575e-20
-1.40945e-19
-1.87457e-19
-4.07343e-19
-5.898e-19
-1.15644e-18
-1.8182e-18
-3.22414e-18
-5.49639e-18
-8.77382e-18
-1.62101e-17
-2.30555e-17
-4.61857e-17
-5.77694e-17
-1.25659e-16
-1.36409e-16
-3.23027e-16
-2.99369e-16
-7.75e-16
-1.69153e-15
1.85497e-32
4.98317e-32
1.75831e-31
2.81746e-31
1.03811e-30
1.52695e-30
4.54427e-30
6.77927e-30
1.56061e-29
2.48553e-29
4.41017e-29
7.6372e-29
1.08266e-28
2.04327e-28
2.41854e-28
5.04392e-28
4.94073e-28
1.2175e-27
8.52766e-28
2.95172e-27
9.02157e-28
7.06863e-27
-4.80575e-28
1.60949e-26
-4.71939e-27
3.3684e-26
-1.82316e-26
6.35254e-26
-5.18569e-26
1.07211e-25
-1.21064e-25
1.61592e-25
-2.41779e-25
2.17454e-25
-4.21916e-25
2.61055e-25
-6.52091e-25
2.79255e-25
-9.01798e-25
2.65523e-25
-1.12567e-24
2.23268e-25
-1.27971e-24
1.64416e-25
-1.33822e-24
1.03751e-25
-1.30168e-24
5.28299e-26
-1.19201e-24
1.68653e-26
-1.11239e-24
-5.83787e-26
-1.27797e-24
-2.92373e-25
-2.05125e-24
-7.90103e-25
-4.72107e-24
-2.48729e-24
-1.48957e-23
-9.79936e-24
-5.64131e-23
-4.40881e-23
-2.23379e-22
-2.01166e-22
-8.65062e-22
-8.8004e-22
-3.20041e-21
-3.62883e-21
-1.12779e-20
-1.41217e-20
-3.79975e-20
-5.22123e-20
-1.23109e-19
-1.8487e-19
-3.85688e-19
-6.31412e-19
-1.17178e-18
-2.08914e-18
-3.44667e-18
-6.69375e-18
-9.75697e-18
-2.06712e-17
-2.63782e-17
-6.11332e-17
-6.75808e-17
-1.72066e-16
-1.61505e-16
-4.54548e-16
-1.08565e-15
4.45194e-33
8.87108e-33
4.3646e-32
5.05579e-32
2.64227e-31
2.76872e-31
1.17339e-30
1.22791e-30
4.0757e-30
4.43472e-30
1.17378e-29
1.32969e-29
2.99478e-29
3.45866e-29
7.18377e-29
8.32577e-29
1.65626e-28
1.97869e-28
3.56107e-28
4.775e-28
6.6582e-28
1.1443e-27
9.59715e-28
2.60272e-27
6.95322e-28
5.40591e-27
-7.41303e-28
1.00329e-26
-4.31074e-27
1.65286e-26
-1.24391e-26
2.41805e-26
-2.70808e-26
3.14356e-26
-4.87481e-26
3.62777e-26
-7.53163e-26
3.71404e-26
-1.01901e-25
3.36686e-26
-1.22359e-25
2.6912e-26
-1.31851e-25
1.88298e-26
-1.28935e-25
1.13726e-26
-1.15851e-25
5.73241e-27
-9.69685e-26
2.1596e-27
-7.76595e-26
2.66906e-28
-7.53811e-26
-1.16976e-26
-1.13568e-25
-3.81089e-26
-2.87362e-25
-1.42636e-25
-1.11065e-24
-7.14205e-25
-5.40581e-24
-4.21609e-24
-2.72196e-23
-2.47821e-23
-1.30733e-22
-1.35646e-22
-5.85062e-22
-6.8096e-22
-2.44042e-21
-3.15264e-21
-9.54495e-21
-1.35899e-20
-3.52512e-20
-5.50702e-20
-1.23793e-19
-2.1168e-19
-4.15625e-19
-7.77327e-19
-1.33741e-18
-2.73785e-18
-4.12237e-18
-9.25757e-18
-1.21558e-17
-3.00587e-17
-3.41694e-17
-9.3552e-17
-8.96587e-17
-2.73885e-16
-7.1609e-16
8.73031e-34
1.27678e-33
8.77758e-33
7.30622e-33
5.38855e-32
4.02784e-32
2.3964e-31
1.77545e-31
8.27831e-31
6.27736e-31
2.37134e-30
1.81855e-30
6.07024e-30
4.52082e-30
1.48782e-29
1.03488e-29
3.59279e-29
2.35874e-29
8.33172e-29
5.57931e-29
1.75839e-28
1.33829e-28
3.19111e-28
3.07305e-28
4.67545e-28
6.41757e-28
4.86407e-28
1.18524e-27
1.53256e-28
1.92352e-27
-5.47895e-28
2.74832e-27
-1.88191e-27
3.46458e-27
-3.93529e-27
3.85191e-27
-6.4193e-27
3.77702e-27
-8.75546e-27
3.26331e-27
-1.0296e-26
2.47477e-27
-1.06309e-26
1.63697e-27
-9.78094e-27
9.34922e-28
-8.13659e-27
4.51769e-28
-6.21843e-27
1.74491e-28
-4.43948e-27
4.20544e-29
-3.43491e-27
-2.14049e-28
-4.56121e-27
-1.24734e-27
-1.28054e-26
-5.86624e-27
-6.38276e-26
-3.98156e-26
-4.2218e-25
-3.27734e-25
-2.81532e-24
-2.59043e-24
-1.72919e-23
-1.83124e-23
-9.58679e-23
-1.14678e-22
-4.82775e-22
-6.44334e-22
-2.23036e-21
-3.29476e-21
-9.54057e-21
-1.55224e-20
-3.81192e-20
-6.8128e-20
-1.43381e-19
-2.81297e-19
-5.11005e-19
-1.10157e-18
-1.73544e-18
-4.1212e-18
-5.64924e-18
-1.4841e-17
-1.76165e-17
-5.15085e-17
-5.10908e-17
-1.67634e-16
-4.78823e-16
1.35133e-34
1.39303e-34
1.38376e-33
7.96981e-34
8.53961e-33
4.40491e-33
3.76263e-32
1.9192e-32
1.27261e-31
6.58694e-32
3.53759e-31
1.81382e-31
8.76885e-31
4.17091e-31
2.10759e-30
8.57774e-31
5.13186e-30
1.74606e-30
1.23694e-29
3.86087e-30
2.77883e-29
9.29895e-30
5.4947e-29
2.24154e-29
9.18877e-29
4.91149e-29
1.25984e-28
9.31376e-29
1.33676e-28
1.52085e-28
8.90587e-29
2.153e-28
-1.64088e-29
2.65864e-28
-1.63954e-28
2.86117e-28
-3.4953e-28
2.6908e-28
-5.20933e-28
2.21556e-28
-6.24171e-28
1.59183e-28
-6.31381e-28
9.91797e-29
-5.53458e-28
5.31274e-29
-4.28979e-28
2.41279e-29
-2.99793e-28
8.98431e-30
-1.92446e-28
2.41872e-30
-1.1745e-28
1.70655e-31
-1.2022e-28
-2.33631e-29
-3.80571e-28
-1.55728e-28
-2.67803e-27
-1.60191e-27
-2.56362e-26
-1.97194e-26
-2.38518e-25
-2.21419e-25
-1.94634e-24
-2.10264e-24
-1.37684e-23
-1.69239e-23
-8.57134e-23
-1.18159e-22
-4.77336e-22
-7.31166e-22
-2.40816e-21
-4.07538e-21
-1.11265e-20
-2.07393e-20
-4.75588e-20
-9.7541e-20
-1.90205e-19
-4.29573e-19
-7.2133e-19
-1.79825e-18
-2.6275e-18
-7.25929e-18
-9.19196e-18
-2.83052e-17
-2.96462e-17
-1.02528e-16
-3.19285e-16
1.5542e-35
1.02432e-35
1.61092e-34
5.8325e-35
9.91528e-34
3.21755e-34
4.27996e-33
1.37679e-33
1.38957e-32
4.53364e-33
3.61234e-32
1.15555e-32
8.14585e-32
2.30205e-32
1.77455e-31
3.61041e-32
4.11226e-31
4.54264e-32
1.01783e-30
5.22576e-32
2.47154e-30
1.05319e-31
5.33597e-30
4.59846e-31
9.7073e-30
1.52008e-30
1.46771e-29
3.51858e-30
1.82582e-29
6.33023e-30
1.81258e-29
9.3096e-30
1.29586e-29
1.1624e-29
3.81581e-30
1.23e-29
-6.89373e-30
1.11145e-29
-1.71418e-29
8.69738e-30
-2.35491e-29
5.89107e-30
-2.45448e-29
3.4328e-30
-2.10246e-29
1.70593e-30
-1.53692e-29
7.13319e-31
-9.84212e-30
2.41448e-31
-5.57558e-30
5.35217e-32
-2.53282e-30
-1.43122e-33
-9.32437e-31
-8.53902e-32
1.93521e-30
2.58993e-30
2.04174e-29
4.52365e-29
-2.95039e-28
-2.23241e-28
-8.78945e-27
-8.2028e-27
-1.27671e-25
-1.40385e-25
-1.33105e-24
-1.67798e-24
-1.13715e-23
-1.6156e-23
-8.28118e-23
-1.31153e-22
-5.21251e-22
-9.14003e-22
-2.89713e-21
-5.60268e-21
-1.44197e-20
-3.07033e-20
-6.61165e-20
-1.55021e-19
-2.86241e-19
-7.40251e-19
-1.19256e-18
-3.41206e-18
-4.76213e-18
-1.51406e-17
-1.72568e-17
-6.13249e-17
-2.08512e-16
1.18414e-36
3.80826e-37
1.23503e-35
2.14791e-36
7.52105e-35
1.17714e-35
3.13767e-34
4.91262e-35
9.50162e-34
1.53203e-34
2.15765e-33
3.51135e-34
3.74469e-33
5.61148e-34
5.09545e-33
5.00047e-34
6.21897e-33
-1.0362e-34
1.30716e-32
-5.36086e-33
5.85534e-32
-3.08908e-32
1.95234e-31
-5.55993e-32
4.47328e-31
-5.849e-32
7.78801e-31
-3.51783e-32
1.07618e-30
2.11501e-32
1.21039e-30
7.49003e-32
1.07774e-30
1.34894e-31
7.18439e-31
1.64387e-31
2.87223e-31
1.44875e-31
-8.35309e-32
1.04804e-31
-3.75118e-31
6.41124e-32
-4.76448e-31
3.31023e-32
-4.2248e-31
1.42333e-32
-2.97245e-31
4.84484e-33
-1.71873e-31
8.38156e-34
-7.25672e-32
-7.77358e-34
8.0492e-32
-9.51853e-33
8.98095e-31
-1.61019e-32
1.21931e-29
1.74407e-30
1.31005e-28
3.73596e-29
1.39369e-27
5.70643e-28
1.27066e-26
6.68684e-27
1.00255e-25
7.15244e-26
6.43385e-25
7.04206e-25
2.80192e-24
5.81141e-24
4.49636e-24
3.85383e-23
-2.98576e-23
-5.3889e-23
-4.05475e-22
-8.06872e-22
-2.95004e-21
-6.4547e-21
-1.71474e-20
-4.12116e-20
-9.35971e-20
-2.4718e-19
-4.84354e-19
-1.40762e-18
-2.3337e-18
-7.48135e-18
-9.79267e-18
-3.47406e-17
-1.3052e-16
4.4932e-38
4.83415e-54
4.68838e-37
-1.01308e-53
2.80203e-36
-9.13797e-53
1.11376e-35
-3.85133e-54
3.0515e-35
-2.45041e-51
5.5948e-35
-1.32215e-48
5.55595e-35
-6.16676e-46
-1.25485e-35
-2.5695e-43
-1.26439e-34
-9.64072e-41
-2.45645e-33
-5.10225e-38
-7.34597e-33
-1.24364e-35
-8.49897e-33
-2.66329e-34
-5.15806e-33
-5.87126e-34
3.07854e-33
-3.64493e-34
1.0611e-32
-1.58151e-33
1.81327e-32
-2.70692e-33
2.02304e-32
-2.14142e-33
1.54347e-32
-3.70678e-34
8.7279e-33
-3.52728e-35
3.26215e-33
-1.02371e-35
1.79127e-34
-3.90147e-36
-1.73224e-33
-2.23766e-36
-1.90102e-33
-1.88888e-36
-1.23732e-33
-6.12034e-36
-3.81705e-34
-7.67744e-35
1.71709e-33
-7.85428e-34
3.38433e-32
-6.0404e-33
4.23349e-31
-3.25274e-32
5.76574e-30
3.26979e-31
7.90644e-29
1.49716e-29
9.6516e-28
3.08244e-28
1.06549e-26
5.03723e-27
1.05053e-25
6.58597e-26
9.21447e-25
6.81305e-25
7.12436e-24
6.0772e-24
4.74265e-23
4.8283e-23
2.45243e-22
3.35785e-22
9.62101e-22
1.95946e-21
2.97341e-21
9.52594e-21
5.49656e-21
3.99983e-20
9.39223e-22
5.20098e-20
-1.03573e-19
-2.99272e-19
-9.13622e-19
-2.88059e-18
-5.05076e-18
-1.73816e-17
-7.56955e-17
-2.16497e-55
8.73882e-55
-3.74111e-54
1.53847e-57
-2.27014e-55
-3.59299e-58
-3.93281e-54
-1.64032e-56
-2.43903e-51
-1.54085e-53
-1.31633e-48
-8.25838e-51
-6.14131e-46
-3.86108e-48
-2.566e-43
-9.63596e-46
-9.66089e-41
-8.63349e-45
-4.53039e-38
-1.45742e-44
-5.15101e-36
-1.03435e-44
-9.36619e-35
-2.152e-43
-2.98637e-35
-1.11155e-41
-1.52163e-34
-1.74748e-40
-4.42756e-34
-1.78565e-39
-3.42094e-34
-3.59748e-39
-9.88333e-35
-1.79798e-39
-8.15771e-36
-1.00714e-43
-1.86332e-36
-2.58014e-43
-5.06849e-37
-8.35434e-42
-1.56502e-37
-1.92344e-40
-3.62161e-38
-3.98465e-39
8.39391e-38
-7.54075e-38
1.39584e-36
-1.29854e-36
3.90255e-35
-2.0221e-35
5.71725e-34
-2.81491e-34
8.37758e-33
-3.2167e-33
1.57351e-31
-2.54776e-32
2.61726e-30
-3.73054e-33
3.82256e-29
5.11913e-30
5.13262e-28
1.3091e-28
6.40009e-27
2.39574e-27
7.38046e-26
3.74326e-26
7.53552e-25
4.98457e-25
6.50914e-24
5.39178e-24
4.75069e-23
4.60739e-23
3.08701e-22
3.34954e-22
1.87106e-21
2.3406e-21
1.00497e-20
1.62679e-20
4.44113e-20
9.29942e-20
1.54931e-19
4.15313e-19
2.53858e-19
1.28385e-18
7.96956e-20
2.06334e-18
-1.77121e-18
-5.76421e-18
-3.72803e-17
3.33505e-59
8.8964e-56
-1.50029e-59
1.60818e-58
-1.20213e-59
1.29152e-59
-1.6761e-56
8.5332e-63
-1.54259e-53
-5.88087e-58
-8.27384e-51
-3.21752e-55
-4.98298e-48
-7.63627e-53
-5.96274e-46
-5.17774e-50
-1.06953e-45
-7.50522e-48
-8.21861e-46
-1.09986e-46
-1.15786e-45
-3.58912e-46
-7.51168e-44
-4.61599e-46
-2.26013e-42
-2.58585e-46
-4.77828e-41
-1.17071e-46
-6.54087e-40
-1.17609e-46
-2.83322e-40
-1.22544e-46
-9.09505e-45
-1.89149e-46
-8.685e-45
-3.07374e-45
-5.54729e-44
-1.12798e-43
-1.35696e-42
-3.04916e-42
-2.51977e-41
-7.24849e-41
-3.54577e-40
-1.54761e-39
-2.41831e-39
-2.98656e-38
6.59153e-38
-5.24796e-37
3.56141e-36
-8.32509e-36
1.10937e-34
-1.17789e-34
2.75362e-33
-1.44643e-33
5.54764e-32
-1.39797e-32
9.83202e-31
-6.5492e-32
1.57619e-29
1.25001e-30
2.30433e-28
4.68799e-29
3.14717e-27
9.9288e-28
4.05759e-26
1.73154e-26
4.82183e-25
2.66807e-25
4.9464e-24
3.50573e-24
4.14959e-23
3.66976e-23
2.92545e-22
3.06237e-22
1.93596e-21
2.26011e-21
1.33268e-20
1.69486e-20
8.00985e-20
1.29087e-19
3.40972e-19
6.96639e-19
1.06766e-18
2.67633e-18
1.76718e-18
7.591e-18
1.54461e-18
1.08802e-17
-9.80253e-18
3.5156e-60
4.44791e-57
5.46486e-61
7.27882e-60
5.24414e-64
8.38809e-60
-2.40987e-59
2.4424e-59
-6.38315e-58
-5.27095e-62
-3.33911e-55
-2.80407e-59
-7.64013e-53
-9.5747e-57
-3.85446e-50
-3.95982e-54
-2.79225e-48
-2.57816e-51
-2.37485e-47
-1.25148e-49
-4.01346e-47
-1.09865e-48
-3.10558e-47
-3.6093e-48
-1.15341e-47
-6.9934e-48
-1.16898e-47
-1.00187e-47
-1.19525e-47
-1.19841e-47
-1.26748e-47
-1.45994e-47
-2.75004e-47
-3.75813e-47
-8.49344e-46
-9.45043e-46
-2.6973e-44
-2.98051e-44
-6.57589e-43
-8.1892e-43
-1.38201e-41
-2.02568e-41
-2.4058e-40
-4.46025e-40
-3.2018e-39
-8.87996e-39
-2.07416e-38
-1.62124e-37
4.85366e-37
-2.71707e-36
2.48622e-35
-4.13249e-35
7.0535e-34
-5.53253e-34
1.61289e-32
-6.13272e-33
3.18178e-31
-4.56231e-32
5.56107e-30
1.11692e-31
8.83154e-29
1.33343e-29
1.31112e-27
3.42535e-28
1.85452e-26
6.72572e-27
2.46493e-25
1.14986e-25
2.92304e-24
1.71259e-24
2.91526e-23
2.13656e-23
2.42515e-22
2.19235e-22
1.81099e-21
1.93933e-21
1.34938e-20
1.62765e-20
1.01161e-19
1.32214e-19
5.73141e-19
9.41452e-19
2.02985e-18
4.21911e-18
5.27283e-18
1.31612e-17
7.85526e-18
3.09237e-17
3.87703e-17
1.59701e-61
2.19706e-66
3.57755e-61
3.67768e-65
1.51835e-60
1.58947e-64
-3.18774e-63
-6.85928e-67
-5.50527e-62
-8.4729e-64
-2.75568e-59
-4.37939e-61
-9.35746e-57
-1.54849e-58
-4.07024e-54
-6.32085e-56
-1.27513e-51
-3.95283e-53
-3.38695e-50
-4.23839e-51
-1.98164e-49
-5.75923e-50
-5.19821e-49
-2.28255e-49
-9.16485e-49
-4.58156e-49
-1.17977e-48
-6.62263e-49
-1.36012e-48
-8.49863e-49
-1.72727e-48
-1.23163e-48
-8.41758e-48
-7.21927e-48
-2.49794e-46
-2.44722e-46
-7.40812e-45
-7.68925e-45
-1.95191e-43
-2.17582e-43
-4.42853e-42
-5.5314e-42
-8.55122e-41
-1.25478e-40
-1.38609e-39
-2.56347e-39
-1.73039e-38
-4.78843e-38
-9.53343e-38
-8.24002e-37
3.07691e-36
-1.29808e-35
1.4446e-34
-1.84273e-34
3.97755e-33
-2.2516e-33
8.80915e-32
-2.11045e-32
1.69084e-30
-7.51624e-32
2.91621e-29
2.811e-30
4.67228e-28
9.70682e-29
7.16412e-27
2.16622e-27
1.04681e-25
4.10481e-26
1.38956e-24
6.77378e-25
1.59481e-23
9.51191e-24
1.58246e-22
1.1513e-22
1.42974e-21
1.26487e-21
1.24676e-20
1.31114e-20
1.03126e-19
1.23597e-19
7.18392e-19
9.49182e-19
3.37704e-18
5.51807e-18
9.79378e-18
2.02466e-17
2.08961e-17
5.19609e-17
1.00199e-16
8.06817e-67
5.12852e-67
6.80375e-66
9.60217e-66
-4.29283e-68
5.02842e-65
-1.45226e-65
1.37938e-65
-8.31245e-64
-2.8879e-65
-4.21964e-61
-1.52992e-62
-1.48174e-58
-5.69281e-60
-6.01766e-56
-2.35035e-57
-2.82917e-53
-1.41133e-54
-1.52322e-51
-2.14096e-52
-1.26637e-50
-3.55661e-51
-3.60687e-50
-1.55845e-50
-6.07781e-50
-3.21946e-50
-8.07906e-50
-4.64909e-50
-9.96754e-50
-6.13356e-50
-1.65541e-49
-1.16348e-49
-1.96636e-48
-1.83515e-48
-6.75773e-47
-6.22921e-47
-2.08033e-45
-1.86573e-45
-5.70609e-44
-5.22686e-44
-1.36864e-42
-1.34466e-42
-2.83525e-41
-3.12015e-41
-5.05683e-40
-6.52778e-40
-7.59231e-39
-1.25011e-38
-8.51002e-38
-2.21901e-37
-2.69123e-37
-3.63821e-36
2.05106e-35
-5.41719e-35
8.08146e-34
-7.13084e-34
2.08893e-32
-7.70516e-33
4.4518e-31
-5.2701e-32
8.37102e-30
3.19262e-31
1.44535e-28
2.23322e-29
2.37293e-27
5.83806e-28
3.74632e-26
1.21528e-26
5.49177e-25
2.20816e-25
7.07528e-24
3.44446e-24
8.03898e-23
4.65645e-23
8.69827e-22
5.99011e-22
9.44162e-21
7.89236e-21
9.43594e-20
9.53543e-20
7.37713e-19
8.64279e-19
4.17532e-18
5.4503e-18
1.60404e-17
2.48166e-17
3.9513e-17
7.80209e-17
1.68814e-16
2.10039e-67
5.57929e-68
2.1529e-66
1.15426e-66
8.65709e-67
7.8075e-66
-1.81322e-66
1.65399e-65
-3.10549e-65
-3.83678e-67
-1.53355e-62
-2.0365e-64
-5.56849e-60
-8.88877e-62
-2.29669e-57
-3.73118e-59
-1.17544e-54
-2.00476e-56
-8.56231e-53
-5.30782e-54
-8.45387e-52
-1.25401e-52
-2.5595e-51
-6.66125e-52
-4.30171e-51
-1.51057e-51
-5.65568e-51
-2.33788e-51
-7.4197e-51
-3.58049e-51
-2.13781e-50
-1.4166e-50
-5.38728e-49
-4.4186e-49
-1.75903e-47
-1.42961e-47
-5.23799e-46
-4.20847e-46
-1.44512e-44
-1.17013e-44
-3.57949e-43
-3.02584e-43
-7.77068e-42
-7.14644e-42
-1.47411e-40
-1.52717e-40
-2.44315e-39
-2.98354e-39
-3.39437e-38
-5.41533e-38
-3.26367e-37
-9.16285e-37
5.04487e-37
-1.42547e-35
1.27965e-34
-1.98809e-34
4.22005e-33
-2.3652e-33
1.01597e-31
-2.10905e-32
2.09476e-30
-5.00662e-32
3.92996e-29
3.9219e-30
6.90473e-28
1.33433e-28
1.15259e-26
3.0665e-27
1.8131e-25
5.92421e-26
2.58471e-24
1.00637e-24
3.29107e-23
1.50821e-23
4.0572e-22
2.15095e-22
5.397e-21
3.39145e-21
7.00211e-20
5.4896e-20
6.73249e-19
6.49409e-19
4.29163e-18
4.8406e-18
1.90132e-17
2.38889e-17
6.17041e-17
8.63468e-17
2.41039e-16
2.51258e-68
1.26728e-73
3.33491e-67
9.07356e-73
1.03779e-66
-1.55495e-76
-2.70903e-68
-6.20661e-72
-4.04863e-67
-5.44307e-69
-2.0039e-64
-2.82644e-66
-8.69904e-62
-1.29862e-63
-3.65675e-59
-5.57406e-61
-2.01769e-56
-2.55149e-58
-2.46498e-54
-1.14262e-55
-3.30469e-53
-3.96273e-54
-1.14394e-52
-2.57053e-53
-2.0318e-52
-6.40597e-53
-2.8356e-52
-1.07862e-52
-4.62334e-52
-2.1024e-52
-3.70821e-51
-2.33502e-51
-1.28796e-49
-9.17407e-50
-4.10361e-48
-2.94763e-48
-1.21218e-46
-8.6908e-47
-3.34937e-45
-2.39673e-45
-8.47058e-44
-6.1978e-44
-1.90668e-42
-1.48354e-42
-3.78019e-41
-3.23663e-41
-6.63634e-40
-6.45056e-40
-1.02086e-38
-1.19277e-38
-1.27512e-37
-2.07018e-37
-9.00531e-37
-3.35622e-36
1.23882e-35
-4.94401e-35
7.15109e-34
-6.32012e-34
2.00674e-32
-6.45623e-33
4.54027e-31
-4.0202e-32
9.3588e-30
4.01195e-31
1.80368e-28
2.5402e-29
3.18528e-27
6.92891e-28
5.13378e-26
1.38252e-26
7.68341e-25
2.35399e-25
1.0784e-23
3.76836e-24
1.49076e-22
5.9879e-23
2.31576e-21
1.0812e-21
3.92176e-20
2.2756e-20
5.00952e-19
3.71653e-19
3.89154e-18
3.5408e-18
1.93327e-17
2.05185e-17
6.90363e-17
8.15586e-17
2.44411e-16
1.96329e-74
2.98281e-74
-6.61405e-78
2.97731e-73
-3.78951e-73
3.78789e-73
-6.46278e-72
-1.22787e-73
-5.39355e-69
-5.50352e-71
-2.78967e-66
-3.01287e-68
-1.27459e-63
-1.46493e-65
-5.47825e-61
-6.46009e-63
-2.94917e-58
-2.63696e-60
-6.30905e-56
-1.6175e-57
-1.16272e-54
-7.84995e-56
-4.57111e-54
-6.22724e-55
-8.53333e-54
-1.78541e-54
-1.302e-53
-3.6419e-54
-3.23871e-53
-1.29972e-53
-7.03316e-52
-4.0115e-52
-2.65967e-50
-1.59556e-50
-8.57435e-49
-5.26462e-49
-2.53199e-47
-1.58444e-47
-6.97249e-46
-4.39226e-46
-1.78377e-44
-1.1415e-44
-4.13255e-43
-2.77049e-43
-8.50673e-42
-6.17842e-42
-1.55649e-40
-1.25688e-40
-2.53974e-39
-2.35775e-39
-3.6005e-38
-4.16548e-38
-3.84957e-37
-7.01559e-37
-8.58757e-37
-1.0988e-35
9.64708e-35
-1.49627e-34
3.42122e-33
-1.64245e-33
8.41542e-32
-1.3305e-32
1.90225e-30
-2.44082e-32
4.22468e-29
3.6683e-30
8.33896e-28
1.44819e-28
1.34991e-26
3.13394e-27
1.92056e-25
4.82876e-26
2.72695e-24
7.06119e-25
4.19926e-23
1.20186e-23
7.67994e-22
2.61066e-22
1.6645e-20
7.14319e-21
2.88058e-19
1.59351e-19
2.88166e-18
2.00243e-18
1.7097e-17
1.43104e-17
6.84386e-17
6.62223e-17
2.20704e-16
6.40037e-75
3.12117e-75
1.60248e-74
4.08842e-74
-3.94018e-75
1.50257e-73
-1.25766e-73
-9.68547e-76
-5.54913e-71
-3.0939e-73
-3.00405e-68
-9.15919e-71
-1.44653e-65
-6.99921e-68
-6.38611e-63
-3.21814e-65
-2.99026e-60
-1.30872e-62
-1.00768e-57
-8.48057e-60
-2.45582e-56
-6.49698e-58
-1.11173e-55
-7.13662e-57
-2.29195e-55
-2.82726e-56
-4.4789e-55
-9.8975e-56
-2.93069e-54
-1.3478e-54
-1.1947e-52
-6.19791e-53
-4.61182e-51
-2.3842e-51
-1.54076e-49
-8.14113e-50
-4.63283e-48
-2.50833e-48
-1.28469e-46
-7.05799e-47
-3.32718e-45
-1.85524e-45
-7.91984e-44
-4.57732e-44
-1.68958e-42
-1.04549e-42
-3.19357e-41
-2.17505e-41
-5.3885e-40
-4.13256e-40
-8.19703e-39
-7.38409e-39
-1.06494e-37
-1.28611e-37
-8.2726e-37
-2.15318e-36
8.31325e-36
-3.13811e-35
4.99142e-34
-3.59472e-34
1.3241e-32
-3.16479e-33
3.20327e-31
-1.99101e-32
8.66409e-30
2.91716e-31
2.15021e-28
2.75796e-29
3.66964e-27
7.48762e-28
4.54785e-26
1.02525e-26
5.43617e-25
1.10199e-25
8.35366e-24
1.5838e-24
1.88346e-22
4.24429e-23
5.58459e-21
1.75497e-21
1.29625e-19
5.37984e-20
1.67639e-18
8.71871e-19
1.22154e-17
7.71575e-18
5.72714e-17
4.25639e-17
1.64993e-16
8.73216e-76
7.26989e-80
6.31763e-75
3.71532e-79
-5.9999e-77
-1.17539e-78
-1.23254e-75
-7.56031e-76
-5.26806e-74
-8.70915e-73
-1.7868e-71
-1.05802e-70
-6.75525e-68
-1.76514e-69
-3.1828e-65
-1.32893e-67
-1.28614e-62
-5.2202e-65
-5.93927e-60
-3.27354e-63
-2.09388e-58
-1.30046e-61
-1.22525e-57
-7.04742e-60
-3.47917e-57
-1.62217e-58
-1.47929e-56
-4.37543e-57
-3.85496e-55
-2.01957e-55
-1.76579e-53
-8.45014e-54
-6.88536e-52
-3.19103e-52
-2.37858e-50
-1.10568e-50
-7.32144e-49
-3.45425e-49
-2.06049e-47
-9.87821e-48
-5.41874e-46
-2.63627e-46
-1.32535e-44
-6.62777e-45
-2.93099e-43
-1.55128e-43
-5.70752e-42
-3.30255e-42
-9.82202e-41
-6.35779e-41
-1.55467e-39
-1.14544e-39
-2.28933e-38
-2.05129e-38
-2.55639e-37
-3.66824e-37
-3.30103e-37
-5.75614e-36
6.02731e-35
-6.82612e-35
1.78533e-33
-6.14534e-34
4.4804e-32
-5.05951e-33
1.54242e-30
-2.41818e-32
5.54433e-29
4.2565e-30
1.0891e-27
1.7847e-28
1.15998e-26
2.36167e-27
9.78269e-26
1.74915e-26
1.12806e-24
1.44509e-25
2.9193e-23
3.68785e-24
1.41957e-21
2.95894e-22
4.7248e-20
1.44991e-20
7.74195e-19
3.01046e-19
6.86235e-18
3.22446e-18
3.80073e-17
2.09965e-17
9.48153e-17
7.88703e-81
1.28638e-80
-4.90955e-80
4.35833e-80
-7.26164e-79
-4.9832e-79
-6.90567e-76
-2.84501e-76
-5.85729e-73
-3.889e-73
-1.79353e-71
-9.09662e-71
-2.88303e-70
-2.17036e-69
-1.24709e-67
-4.64796e-68
-1.38054e-65
-1.47319e-65
-5.35479e-64
-6.06914e-64
-4.06269e-62
-6.60614e-63
-1.27454e-60
-1.00741e-61
-2.79807e-59
-8.83142e-60
-1.13933e-57
-5.77751e-58
-5.52141e-56
-2.67633e-56
-2.34682e-54
-1.05621e-54
-9.14905e-53
-3.9543e-53
-3.19957e-51
-1.35004e-51
-1.00137e-49
-4.21554e-50
-2.8646e-48
-1.21552e-48
-7.6689e-47
-3.28461e-47
-1.92655e-45
-8.40498e-46
-4.40867e-44
-2.01112e-44
-8.83378e-43
-4.37627e-43
-1.54293e-41
-8.56197e-42
-2.49843e-40
-1.56061e-40
-4.01802e-39
-2.86141e-39
-5.59047e-38
-5.40897e-38
-3.46999e-37
-9.09649e-37
5.41177e-36
-1.12401e-35
2.09316e-34
-1.03359e-34
5.43309e-33
-9.52671e-34
2.45459e-31
-1.5586e-32
1.37e-29
2.65375e-31
3.21714e-28
3.28244e-29
3.07905e-27
4.81761e-28
1.79462e-26
2.81373e-27
1.15434e-25
1.16663e-26
2.34966e-24
1.42582e-25
2.25727e-22
2.53047e-23
1.31655e-20
2.68919e-21
2.85596e-19
8.00682e-20
3.05553e-18
1.0576e-18
1.97343e-17
8.05535e-18
4.11943e-17
9.20087e-82
1.08905e-81
-1.20837e-80
3.99923e-81
-4.93234e-79
-1.71698e-80
-2.72982e-76
-1.04205e-77
-2.70429e-73
-9.22623e-75
-2.63468e-71
-1.13375e-71
-3.03923e-70
-1.31877e-69
-3.51978e-68
-1.66272e-68
-6.43953e-66
-7.43926e-68
-9.07121e-65
-3.67012e-66
-7.67238e-64
-2.24514e-64
-2.58786e-62
-1.95745e-62
-2.49025e-60
-1.20859e-60
-1.53733e-58
-6.10285e-59
-6.99336e-57
-2.8582e-57
-2.90949e-55
-1.21381e-55
-1.11276e-53
-4.48271e-54
-3.84702e-52
-1.49527e-52
-1.20736e-50
-4.63202e-51
-3.48637e-49
-1.33515e-49
-9.47778e-48
-3.62849e-48
-2.43628e-46
-9.39693e-47
-5.73737e-45
-2.28582e-45
-1.18148e-43
-5.07345e-44
-2.10302e-42
-1.01518e-42
-3.47438e-41
-1.89381e-41
-5.94758e-40
-3.56002e-40
-9.61367e-39
-6.982e-39
-8.91236e-38
-1.23756e-37
2.10368e-37
-1.6112e-36
2.1346e-35
-1.5531e-35
6.01164e-34
-1.55215e-34
3.50749e-32
-3.71436e-33
2.75535e-30
-7.02245e-32
7.30565e-29
2.63799e-30
6.64679e-28
5.71472e-29
2.95095e-27
3.2744e-28
1.0479e-26
9.37581e-28
8.86671e-26
2.92339e-27
1.69954e-23
7.89646e-25
2.30173e-21
2.54311e-22
7.7464e-20
1.38905e-20
1.06542e-18
2.57447e-19
8.15772e-18
2.43016e-18
1.4232e-17
8.40006e-83
2.93791e-84
-3.78296e-82
-3.11332e-85
-1.72993e-80
-7.56932e-82
-9.71625e-78
-6.86609e-79
-8.5343e-75
-6.35561e-76
-8.26514e-72
-8.58882e-73
-4.15531e-70
-7.30624e-71
-1.57537e-69
-9.3984e-70
-1.15958e-68
-7.43476e-69
-5.93841e-67
-7.15118e-67
-5.82849e-65
-3.79135e-65
-4.87573e-63
-1.91156e-63
-2.87018e-61
-1.02152e-61
-1.52893e-59
-5.46684e-60
-7.66472e-58
-2.8254e-58
-3.29821e-56
-1.22688e-56
-1.23035e-54
-4.47641e-55
-4.18076e-53
-1.47889e-53
-1.30498e-51
-4.56272e-52
-3.77329e-50
-1.31562e-50
-1.03454e-48
-3.58182e-49
-2.69866e-47
-9.31035e-48
-6.48243e-46
-2.28531e-46
-1.37016e-44
-5.17078e-45
-2.51581e-43
-1.06871e-43
-4.29478e-42
-2.07663e-42
-7.68872e-41
-4.03948e-41
-1.36071e-39
-8.06467e-40
-1.56265e-38
-1.46433e-38
-3.77446e-38
-2.01634e-37
1.82897e-36
-2.10281e-36
6.18607e-35
-2.25666e-35
4.1206e-33
-5.17406e-34
3.5799e-31
-1.50161e-32
9.29793e-30
-3.67066e-32
8.08479e-29
2.36341e-30
3.26538e-28
1.83016e-29
8.52093e-28
6.41432e-29
2.09283e-27
8.64301e-29
4.87374e-25
8.36952e-27
1.95645e-22
9.30583e-24
1.28075e-20
1.21133e-21
2.65203e-19
3.94332e-20
2.64169e-18
5.37243e-19
4.00096e-18
-6.507e-87
7.89615e-85
-2.91817e-85
-2.60226e-86
-7.22887e-82
-3.41037e-83
-6.52484e-79
-3.22151e-80
-5.89308e-76
-3.47764e-77
-3.87133e-73
-5.50964e-74
-1.20505e-71
-5.59714e-72
-7.74548e-71
-7.94358e-71
-1.85837e-69
-6.24441e-70
-1.43366e-67
-5.08909e-68
-7.49501e-66
-3.20941e-66
-4.0681e-64
-1.94325e-64
-2.3345e-62
-1.07575e-62
-1.40694e-60
-5.40184e-61
-7.54524e-59
-2.53118e-59
-3.24881e-57
-1.0602e-57
-1.19815e-55
-3.86778e-56
-4.04357e-54
-1.27469e-54
-1.26183e-52
-3.94647e-53
-3.65739e-51
-1.15021e-51
-1.00469e-49
-3.15024e-50
-2.62886e-48
-8.16924e-49
-6.38193e-47
-2.00897e-47
-1.38555e-45
-4.64022e-46
-2.66724e-44
-9.99312e-45
-4.81792e-43
-2.047e-43
-8.98197e-42
-4.1673e-42
-1.64841e-40
-8.42984e-41
-2.14221e-39
-1.51949e-39
-1.11472e-38
-2.14463e-38
1.14059e-37
-2.40861e-37
5.71248e-36
-2.78808e-36
3.38961e-34
-5.51485e-35
2.61774e-32
-1.4675e-33
6.70197e-31
-1.36479e-32
5.76062e-30
1.05107e-32
2.39555e-29
5.4236e-31
6.05036e-29
2.94715e-30
9.63867e-29
5.52822e-30
5.91882e-27
7.28475e-29
7.11005e-24
1.58358e-25
1.06367e-21
4.63316e-23
3.98799e-20
3.08024e-21
6.0532e-19
7.33872e-20
8.20308e-19
-3.72937e-88
1.00311e-85
-1.62751e-86
-1.01204e-86
-2.08122e-83
-1.32966e-83
-1.63327e-80
-1.59111e-80
-3.01333e-77
-1.74242e-77
-2.60336e-74
-3.1016e-75
-9.74693e-73
-1.75235e-73
-6.46948e-72
-2.98262e-72
-1.17492e-70
-3.6231e-71
-9.30999e-69
-3.55017e-69
-6.56153e-67
-2.66309e-67
-4.26342e-65
-1.60474e-65
-2.44702e-63
-8.25201e-64
-1.30878e-61
-4.00868e-62
-6.44441e-60
-1.87964e-60
-2.73524e-58
-7.88315e-59
-1.00574e-56
-2.86591e-57
-3.38956e-55
-9.44868e-56
-1.07021e-53
-2.95235e-54
-3.14823e-52
-8.76968e-53
-8.66294e-51
-2.43846e-51
-2.24979e-49
-6.31891e-50
-5.48601e-48
-1.55055e-48
-1.22761e-46
-3.6577e-47
-2.50025e-45
-8.22778e-46
-4.85575e-44
-1.76514e-44
-9.55104e-43
-3.72787e-43
-1.77278e-41
-7.63015e-42
-2.41429e-40
-1.34117e-40
-1.72168e-39
-1.84517e-39
1.53946e-39
-2.13344e-38
4.27724e-37
-2.68421e-37
2.29824e-35
-5.10292e-36
1.38789e-33
-1.10123e-34
3.47537e-32
-1.15497e-33
3.08324e-31
-3.71502e-33
1.34252e-30
4.31535e-33
3.89323e-30
7.16106e-32
8.17269e-30
2.68505e-31
1.21284e-28
1.8126e-29
1.9667e-25
9.92681e-27
4.70186e-23
1.3804e-24
3.14052e-21
1.18973e-22
8.28415e-20
5.10822e-21
9.8153e-20
-1.91803e-88
1.12443e-87
-4.40076e-87
-6.09708e-87
-2.93693e-84
-1.04242e-83
-1.21759e-80
-1.95321e-80
-4.71342e-78
-1.48881e-77
-7.58654e-76
-6.3647e-76
-2.48782e-74
-3.8009e-75
-2.35792e-73
-8.77493e-75
-6.68255e-72
-1.98835e-72
-6.96738e-70
-1.91461e-70
-5.44553e-68
-1.58143e-68
-3.30422e-66
-1.01445e-66
-1.77216e-64
-5.41397e-65
-9.3703e-63
-2.58922e-63
-4.64118e-61
-1.14322e-61
-1.96607e-59
-4.66664e-60
-7.20275e-58
-1.73681e-58
-2.43246e-56
-5.89804e-57
-7.81699e-55
-1.86915e-55
-2.36178e-53
-5.64211e-54
-6.56465e-52
-1.6059e-52
-1.68727e-50
-4.20816e-51
-4.12173e-49
-1.03103e-49
-9.56011e-48
-2.47803e-48
-2.05701e-46
-5.86264e-47
-4.23855e-45
-1.3085e-45
-8.78406e-44
-2.7457e-44
-1.64963e-42
-5.37518e-43
-2.22608e-41
-8.82646e-42
-1.79903e-40
-1.14979e-40
-5.47658e-40
-1.39733e-39
2.19675e-38
-2.14288e-38
1.37015e-36
-4.31157e-37
6.44739e-35
-7.66325e-36
1.40676e-33
-7.16691e-35
1.2153e-32
-2.76679e-34
5.2172e-32
-3.7118e-34
1.55487e-31
2.82161e-34
3.84405e-31
3.34537e-33
7.39991e-29
8.48316e-30
3.18215e-26
2.34826e-27
2.68142e-24
1.25034e-25
1.54714e-22
4.75287e-24
6.07888e-21
1.97551e-22
5.83394e-21
-1.67112e-88
5.23531e-88
-6.10495e-87
-1.6051e-88
-1.01376e-83
-2.82678e-85
-3.42667e-80
-4.25908e-82
-6.87674e-78
-8.43695e-79
-1.12449e-76
-5.31887e-77
-2.47348e-76
-3.56789e-76
-2.0974e-75
-8.34347e-76
-3.35342e-73
-1.05211e-73
-3.6872e-71
-1.02275e-71
-3.13976e-69
-7.73309e-70
-2.0616e-67
-4.86432e-68
-1.14523e-65
-2.67054e-66
-5.72907e-64
-1.28278e-64
-2.64865e-62
-5.51071e-63
-1.11996e-60
-2.20653e-61
-4.25516e-59
-8.34321e-60
-1.46898e-57
-2.90076e-58
-4.7797e-56
-9.26534e-57
-1.48446e-54
-2.82972e-55
-4.23541e-53
-8.34557e-54
-1.08616e-51
-2.26039e-52
-2.642e-50
-5.53165e-51
-6.40577e-49
-1.33382e-49
-1.48534e-47
-3.42136e-48
-3.18936e-46
-8.36538e-47
-6.54495e-45
-1.65339e-45
-1.16396e-43
-2.54017e-44
-1.44493e-42
-3.17312e-43
-1.21644e-41
-4.06214e-42
-7.75312e-41
-9.61476e-41
6.09404e-40
-2.93535e-39
7.25893e-38
-4.96723e-38
2.88329e-36
-5.12206e-37
5.07837e-35
-3.02432e-36
3.66154e-34
-8.74325e-36
1.17028e-33
-1.3465e-35
2.20782e-33
-8.84625e-36
5.02604e-33
1.00573e-36
2.26295e-29
5.62535e-31
8.53847e-27
3.75627e-28
4.1707e-25
1.93671e-26
1.18762e-23
4.56264e-25
3.41907e-22
9.94341e-24
2.43252e-22
-2.42572e-90
9.04816e-89
-1.62002e-88
-1.11059e-90
-2.80501e-85
-2.07008e-87
-5.09291e-82
-5.70186e-84
-3.9336e-79
-1.14045e-81
-9.29235e-78
-1.29441e-80
-2.23429e-77
-3.79313e-80
-1.32194e-76
-3.49508e-77
-1.79939e-74
-3.86936e-75
-1.82277e-72
-3.98946e-73
-1.43784e-70
-3.2405e-71
-9.5965e-69
-2.01016e-69
-5.4927e-67
-1.04141e-67
-2.70746e-65
-4.79397e-66
-1.20564e-63
-2.07003e-64
-5.08188e-62
-8.43167e-63
-1.98495e-60
-3.15014e-61
-6.94541e-59
-1.06349e-59
-2.25773e-57
-3.34269e-58
-7.20469e-56
-1.03541e-56
-2.17138e-54
-3.24022e-55
-5.66463e-53
-9.5642e-54
-1.33311e-51
-2.42036e-52
-3.36193e-50
-5.57307e-51
-9.25518e-49
-1.47792e-49
-2.21474e-47
-4.09115e-48
-3.92945e-46
-6.91938e-47
-4.77398e-45
-6.46939e-46
-4.04585e-44
-5.07234e-45
-5.07148e-43
-1.3043e-43
-1.33573e-41
-1.76701e-41
-6.6157e-41
-6.1944e-40
4.46879e-39
-5.28937e-39
1.16906e-37
-1.6602e-38
1.26179e-36
-2.86324e-38
6.06286e-36
-3.46033e-38
1.52393e-35
-3.07404e-38
2.4936e-35
-3.25767e-38
4.91739e-35
-2.70655e-37
9.83408e-31
-8.59711e-34
1.21006e-27
1.04682e-29
7.04965e-26
1.56356e-27
1.66166e-24
4.91287e-26
3.09908e-23
8.81516e-25
1.51291e-23
-1.78787e-92
-2.78126e-95
-9.74191e-91
-1.64514e-91
-1.70929e-87
-3.66372e-88
-4.1243e-84
-1.12589e-84
-4.01667e-82
-3.15463e-82
-8.09457e-82
-4.91992e-81
-2.14311e-80
-1.28494e-80
-4.73237e-78
-1.42319e-78
-6.26094e-76
-1.38248e-76
-7.11092e-74
-1.28587e-74
-5.88753e-72
-1.00058e-72
-3.75139e-70
-6.01516e-71
-1.99323e-68
-3.03642e-69
-9.60843e-67
-1.35198e-67
-4.39988e-65
-5.67448e-66
-1.87609e-63
-2.26209e-64
-7.12597e-62
-8.22627e-63
-2.40553e-60
-2.74399e-61
-7.67203e-59
-9.09082e-60
-2.51454e-57
-3.10939e-58
-8.3903e-56
-1.0356e-56
-2.42888e-54
-3.38584e-55
-5.52254e-53
-1.08602e-53
-1.3212e-51
-2.55057e-52
-4.57913e-50
-3.92455e-51
-1.26952e-48
-4.7684e-50
-1.52603e-47
-5.18844e-49