/*--------------------------------*- C++ -*----------------------------------*\
| =========                 |                                                 |
| \\      /  F ield         | OpenFOAM: The Open Source CFD Toolbox           |
|  \\    /   O peration     | Version:  5.0                                   |
|   \\  /    A nd           | Web:      www.OpenFOAM.org                      |
|    \\/     M anipulation  |                                                 |
\*---------------------------------------------------------------------------*/
FoamFile
{
    version     2.0;
    format      ascii;
    class       volScalarField;
    location    "0.75";
    object      alpha.water;
}
// * * * * * * * * * * * * * * * * * * * * * * * * * * * * * * * * * * * * * //

dimensions      [0 0 0 0 0 0 0];

internalField   nonuniform List<scalar> 
1915
(
-2.35396e-18
-2.49096e-18
-2.47438e-18
-2.32879e-18
-2.11719e-18
-2.0908e-18
-2.47367e-18
-3.75172e-18
-7.37101e-18
-1.83916e-17
-5.31544e-17
-1.61862e-16
-4.92789e-16
-1.46859e-15
-4.26692e-15
-1.21236e-14
-3.38655e-14
-9.3387e-14
-2.54184e-13
-6.78874e-13
-1.76076e-12
-4.38184e-12
-1.03498e-11
-2.29145e-11
-4.63517e-11
-2.31281e-26
-1.19269e-25
-6.2634e-25
-2.76465e-24
-1.02985e-23
-3.2601e-23
-9.03597e-23
-2.3068e-22
-5.72742e-22
-1.42569e-21
-3.52784e-21
-8.40649e-21
-1.87134e-20
-3.8129e-20
-7.05197e-20
-1.1823e-19
-1.79892e-19
-2.48875e-19
-3.1392e-19
-3.62277e-19
-3.84185e-19
-3.76589e-19
-3.43865e-19
-2.95274e-19
-2.41041e-19
-2.02289e-19
-2.10685e-19
-3.08861e-19
-6.53793e-19
-1.90977e-18
-6.73825e-18
-2.50082e-17
-9.13076e-17
-3.2031e-16
-1.07635e-15
-3.47762e-15
-1.08664e-14
-3.3024e-14
-9.79177e-14
-2.82897e-13
-7.9211e-13
-2.13468e-12
-5.50053e-12
-1.33612e-11
-2.94685e-11
-4.96436e-27
-2.57972e-26
-1.36951e-25
-6.05201e-25
-2.22622e-24
-6.90215e-24
-1.87238e-23
-4.70816e-23
-1.16296e-22
-2.89895e-22
-7.17397e-22
-1.6972e-21
-3.7128e-21
-7.36864e-21
-1.31887e-20
-2.12738e-20
-3.09715e-20
-4.07655e-20
-4.86276e-20
-5.27207e-20
-5.21319e-20
-4.72504e-20
-3.95353e-20
-3.08325e-20
-2.26755e-20
-1.6129e-20
-1.4039e-20
-1.91329e-20
-4.41469e-20
-1.56769e-19
-7.06061e-19
-3.31215e-18
-1.49179e-17
-6.30093e-17
-2.4963e-16
-9.33237e-16
-3.31567e-15
-1.12758e-14
-3.69172e-14
-1.16703e-13
-3.56264e-13
-1.04987e-12
-2.97996e-12
-7.99236e-12
-1.92264e-11
-8.99216e-28
-4.69195e-27
-2.50977e-26
-1.1051e-25
-3.99474e-25
-1.20568e-24
-3.17205e-24
-7.75824e-24
-1.8817e-23
-4.65538e-23
-1.14921e-22
-2.70637e-22
-5.85273e-22
-1.13803e-21
-1.97824e-21
-3.07886e-21
-4.29991e-21
-5.39425e-21
-6.09282e-21
-6.21145e-21
-5.72956e-21
-4.79981e-21
-3.67442e-21
-2.5943e-21
-1.71031e-21
-1.0678e-21
-7.31134e-22
-8.68261e-22
-2.20075e-21
-9.99026e-21
-6.06714e-20
-3.74342e-19
-2.14309e-18
-1.11542e-17
-5.31052e-17
-2.3359e-16
-9.58165e-16
-3.69812e-15
-1.35405e-14
-4.73603e-14
-1.59257e-13
-5.18374e-13
-1.63448e-12
-4.85555e-12
-1.27168e-11
-1.31909e-28
-6.88501e-28
-3.69735e-27
-1.6142e-26
-5.69909e-26
-1.65811e-25
-4.15948e-25
-9.65077e-25
-2.23909e-24
-5.41485e-24
-1.33396e-23
-3.16109e-23
-6.84836e-23
-1.31972e-22
-2.24939e-22
-3.40078e-22
-4.57644e-22
-5.48927e-22
-5.88338e-22
-5.64938e-22
-4.8673e-22
-3.77102e-22
-2.63945e-22
-1.68316e-22
-9.90183e-23
-5.4497e-23
-2.89538e-23
-2.6139e-23
-7.38214e-23
-4.68227e-22
-4.07826e-21
-3.48279e-20
-2.63035e-19
-1.73592e-18
-1.01608e-17
-5.36145e-17
-2.58275e-16
-1.14847e-15
-4.7632e-15
-1.86433e-14
-6.98331e-14
-2.53772e-13
-8.95615e-13
-2.95113e-12
-8.40016e-12
-1.46898e-29
-7.63847e-29
-4.10175e-28
-1.76595e-27
-6.03898e-27
-1.6664e-26
-3.85818e-26
-8.02362e-26
-1.65852e-25
-3.73964e-25
-9.22449e-25
-2.2877e-24
-5.18252e-24
-1.02156e-23
-1.74442e-23
-2.60026e-23
-3.4081e-23
-3.93018e-23
-4.007e-23
-3.62943e-23
-2.92359e-23
-2.09556e-23
-1.34001e-23
-7.69425e-24
-4.00868e-24
-1.89653e-24
-7.34419e-25
-2.34385e-25
1.06925e-25
3.9516e-24
-5.22614e-23
-1.41567e-21
-1.88739e-20
-1.82214e-19
-1.45388e-18
-9.9709e-18
-5.95922e-17
-3.17096e-16
-1.52368e-15
-6.80312e-15
-2.89403e-14
-1.19612e-13
-4.78724e-13
-1.7584e-12
-5.44968e-12
-1.10386e-30
-5.6933e-30
-3.04394e-29
-1.28426e-28
-4.20474e-28
-1.07172e-27
-2.14511e-27
-3.39455e-27
-4.32708e-27
-5.06352e-27
-1.04237e-26
-4.66898e-26
-1.59064e-25
-3.81375e-25
-7.14671e-25
-1.10169e-24
-1.45244e-24
-1.63683e-24
-1.59176e-24
-1.35797e-24
-1.01958e-24
-6.73278e-25
-3.91053e-25
-2.00126e-25
-8.94613e-26
-3.04095e-26
1.77894e-27
1.38417e-25
1.69394e-24
1.61355e-23
1.5324e-22
1.27395e-21
9.30568e-21
5.6517e-20
2.62662e-19
5.17536e-19
-3.62511e-18
-4.67996e-17
-3.26385e-16
-1.83373e-15
-9.75612e-15
-4.96324e-14
-2.3716e-13
-9.95922e-13
-3.40245e-12
-4.19805e-32
-2.13791e-31
-1.13291e-30
-4.65214e-30
-1.43962e-29
-3.29304e-29
-5.27677e-29
-4.73464e-29
8.77602e-30
5.1835e-28
3.05859e-27
5.63059e-27
6.08583e-27
3.77903e-27
-2.35775e-27
-8.71567e-27
-1.64947e-26
-2.12893e-26
-2.00593e-26
-1.56946e-26
-1.05372e-26
-6.08679e-27
-3.00589e-27
-1.22059e-27
-2.6737e-28
3.47593e-28
7.70614e-27
8.09079e-26
9.25499e-25
1.09534e-23
1.17876e-22
1.16394e-21
1.04146e-20
8.40947e-20
6.06784e-19
3.84967e-18
1.92007e-17
7.41484e-17
2.27655e-16
5.51972e-16
8.30876e-33
-1.06569e-14
-9.19486e-14
-5.00509e-13
-1.97807e-12
-5.45534e-49
1.02921e-48
8.95706e-48
1.04123e-50
-1.55448e-51
-2.68626e-51
-1.41554e-48
-1.30424e-45
1.18094e-38
1.60065e-33
5.97925e-31
1.3412e-29
6.08896e-29
1.92692e-29
1.7469e-28
3.10714e-28
2.57206e-28
4.68294e-29
4.73856e-30
1.4775e-30
6.12788e-31
3.88987e-31
3.71636e-31
1.40657e-30
2.1614e-29
2.22959e-28
2.42986e-27
3.58305e-26
4.91399e-25
6.07407e-24
7.03627e-23
7.70187e-22
7.92795e-21
7.34954e-20
5.85526e-19
3.98152e-18
2.42388e-17
1.38893e-16
7.16768e-16
3.09267e-15
1.11116e-14
2.53217e-14
4.16234e-15
-1.67653e-13
-9.82358e-13
-1.01015e-49
-1.59662e-52
3.44902e-53
6.83013e-55
-5.24785e-54
-1.58466e-50
7.63574e-44
4.54493e-41
5.54939e-40
7.12895e-40
5.03219e-40
9.98506e-39
5.5964e-37
9.12943e-36
9.73375e-35
4.08741e-34
1.0564e-34
6.3106e-39
2.10849e-38
7.06053e-37
1.77809e-35
4.0839e-34
8.74264e-33
1.77011e-31
3.3127e-30
6.02482e-29
1.03458e-27
1.5702e-26
2.20504e-25
2.89989e-24
3.57143e-23
4.19265e-22
4.73099e-21
5.01379e-20
4.67644e-19
3.62013e-18
2.36423e-17
1.44245e-16
9.26198e-16
5.37848e-15
2.27291e-14
7.27778e-14
1.65312e-13
1.25407e-13
-2.62187e-13
-1.05381e-50
-1.70597e-53
-1.31673e-54
-8.51355e-58
-5.72782e-55
-3.12622e-52
2.97821e-50
2.03765e-45
3.60691e-43
5.42489e-42
1.81955e-41
2.34407e-41
1.35034e-41
6.4633e-42
6.7346e-42
7.31124e-42
1.19839e-41
2.12037e-40
9.50825e-39
2.66408e-37
6.88712e-36
1.61693e-34
3.47882e-33
6.95318e-32
1.29661e-30
2.25417e-29
3.71761e-28
5.855e-27
8.6698e-26
1.19749e-24
1.55638e-23
1.9397e-22
2.35182e-21
2.73342e-20
2.89145e-19
2.61663e-18
1.99211e-17
1.35989e-16
9.25099e-16
6.49437e-15
3.61793e-14
1.28538e-13
3.41759e-13
6.52221e-13
5.23875e-13
-5.40056e-52
-7.89645e-55
-8.73067e-55
-2.48384e-54
-3.67072e-62
1.97955e-57
2.20295e-54
1.08886e-50
1.19803e-46
6.27072e-45
5.66063e-44
1.9025e-43
3.78828e-43
5.69515e-43
7.0507e-43
8.94627e-43
2.49051e-42
6.95857e-41
2.24139e-39
6.59592e-38
1.76091e-36
4.22731e-35
9.30599e-34
1.9171e-32
3.73351e-31
6.87076e-30
1.19032e-28
1.94162e-27
2.98483e-26
4.31232e-25
5.87577e-24
7.69101e-23
9.87972e-22
1.23664e-20
1.43579e-19
1.46618e-18
1.30775e-17
1.06596e-16
8.42131e-16
6.3939e-15
4.22709e-14
1.97729e-13
5.76907e-13
1.26122e-12
1.99759e-12
-2.73478e-61
-4.08163e-60
-1.68984e-59
0
6.473e-63
3.11713e-59
3.63355e-56
5.44246e-53
1.71318e-48
2.18406e-46
3.07538e-45
1.24532e-44
2.54168e-44
3.73897e-44
4.91673e-44
7.37027e-44
4.76014e-43
1.71875e-41
5.66252e-40
1.69738e-38
4.61837e-37
1.13371e-35
2.53695e-34
5.27814e-33
1.03674e-31
1.93191e-30
3.41389e-29
5.71795e-28
9.0738e-27
1.36247e-25
1.93909e-24
2.65116e-23
3.55637e-22
4.70488e-21
5.91236e-20
6.65099e-19
6.66674e-18
6.39392e-17
6.20415e-16
5.64547e-15
4.11243e-14
2.22798e-13
8.5141e-13
2.11844e-12
3.85104e-12
-6.54473e-62
-1.09049e-60
-5.46251e-60
-1.46002e-60
-1.43972e-62
-5.18455e-60
1.33396e-57
1.43023e-54
5.70796e-50
1.10554e-47
1.89916e-46
8.47515e-46
1.77861e-45
2.61347e-45
3.52809e-45
6.9275e-45
1.2218e-43
4.29545e-42
1.33488e-40
3.92668e-39
1.07279e-37
2.67316e-36
6.07525e-35
1.28281e-33
2.56492e-32
4.88507e-31
8.83468e-30
1.51289e-28
2.4557e-27
3.79353e-26
5.61371e-25
8.04108e-24
1.12393e-22
1.53725e-21
2.02999e-20
2.47928e-19
2.73804e-18
2.93995e-17
3.43599e-16
4.00581e-15
3.56096e-14
2.14493e-13
9.0868e-13
2.9038e-12
6.44819e-12
-7.29938e-63
-1.34156e-61
-8.66872e-61
-1.78713e-60
-2.57855e-66
1.74915e-62
2.06831e-59
1.36358e-56
6.35309e-52
2.70718e-49
6.66207e-48
3.60214e-47
8.28978e-47
1.30479e-46
2.04213e-46
8.426e-46
2.87171e-44
9.58654e-43
2.93187e-41
8.52273e-40
2.32575e-38
5.85917e-37
1.35016e-35
2.88091e-34
5.81415e-33
1.12303e-31
2.07298e-30
3.62743e-29
5.9812e-28
9.35252e-27
1.41852e-25
2.13827e-24
3.18448e-23
4.51175e-22
5.98658e-21
7.52256e-20
8.99574e-19
1.06638e-17
1.431e-16
2.14278e-15
2.50109e-14
1.8243e-13
8.625e-13
2.9306e-12
7.93151e-12
-1.69962e-68
-1.07936e-67
0
0
-3.72864e-68
2.43161e-64
3.00693e-61
1.52959e-58
4.4844e-54
5.77896e-51
2.11068e-49
1.39078e-48
3.51004e-48
6.00229e-48
1.18649e-47
1.39589e-46
5.78658e-45
1.92423e-43
5.89247e-42
1.69314e-40
4.59659e-39
1.16658e-37
2.7267e-36
5.88778e-35
1.1971e-33
2.33594e-32
4.40271e-31
7.91443e-30
1.32478e-28
2.05679e-27
3.09756e-26
4.86599e-25
8.07195e-24
1.25319e-22
1.64729e-21
1.93298e-20
2.28766e-19
2.96681e-18
4.62017e-17
8.72706e-16
1.36182e-14
1.26634e-13
7.11197e-13
2.7098e-12
7.75571e-12
-4.10045e-69
-3.62485e-68
-4.39529e-68
-2.79404e-75
-1.15529e-68
-2.33151e-68
3.35833e-63
1.67478e-60
1.21997e-56
8.05847e-53
4.17544e-51
3.35764e-50
9.73449e-50
2.01502e-49
7.21992e-49
2.3883e-47
9.80141e-46
3.34708e-44
1.04499e-42
3.01189e-41
8.18561e-40
2.09555e-38
4.97751e-37
1.08925e-35
2.22449e-34
4.35791e-33
8.38008e-32
1.56257e-30
2.67758e-29
4.0728e-28
5.83895e-27
9.22787e-26
1.78939e-24
3.41909e-23
4.70881e-22
4.78009e-21
4.65374e-20
5.84777e-19
1.10423e-17
2.82883e-16
5.85678e-15
6.95915e-14
4.75788e-13
2.1127e-12
6.8019e-12
-4.39739e-70
-5.09423e-69
-1.78247e-68
4.12006e-71
2.88496e-68
3.81025e-67
1.94526e-65
8.33999e-63
1.73494e-59
4.0731e-55
3.44996e-53
3.83943e-52
1.53513e-51
5.43177e-51
7.62047e-50
3.65734e-48
1.43885e-46
5.0678e-45
1.61409e-43
4.70838e-42
1.28933e-40
3.33926e-39
8.07903e-38
1.79635e-36
3.68367e-35
7.21014e-34
1.4106e-32
2.75159e-31
4.8914e-30
7.28644e-29
9.6604e-28
1.46574e-26
3.45617e-25
9.32415e-24
1.47348e-22
1.29799e-21
8.83721e-21
7.95748e-20
1.66487e-18
6.98204e-17
2.06271e-15
3.07474e-14
2.53117e-13
1.31682e-12
4.88008e-12
-1.04959e-74
-4.73737e-74
-1.28551e-82
1.64241e-71
9.18355e-68
1.09568e-65
1.9924e-64
4.08356e-63
3.79258e-60
1.85813e-58
6.65547e-57
3.71275e-55
8.66426e-54
2.38887e-52
1.17547e-50
4.95811e-49
1.90892e-47
6.78259e-46
2.17995e-44
6.43719e-43
1.7823e-41
4.68137e-40
1.15437e-38
2.61043e-37
5.38298e-36
1.05132e-34
2.08392e-33
4.25765e-32
7.92507e-31
1.16916e-29
1.43832e-28
2.04797e-27
6.02519e-26
2.45419e-24
4.60326e-23
3.71188e-22
1.78667e-21
8.6536e-21
1.29307e-19
1.07659e-17
5.5967e-16
1.09786e-14
1.08196e-13
6.51611e-13
2.73942e-12
-1.90296e-75
-5.68626e-75
-8.5572e-86
9.64365e-74
2.01488e-68
8.29636e-66
2.42255e-64
2.46059e-63
8.81291e-61
3.65875e-59
3.69411e-58
5.25559e-57
4.72284e-55
3.28293e-53
1.54627e-51
6.18627e-50
2.3572e-48
8.20515e-47
2.62362e-45
7.77677e-44
2.17032e-42
5.77401e-41
1.44769e-39
3.32635e-38
6.92487e-37
1.35654e-35
2.71804e-34
5.76481e-33
1.12219e-31
1.66787e-30
1.96603e-29
2.66586e-28
9.56526e-27
5.33537e-25
1.11293e-23
8.6343e-23
3.32665e-22
9.08396e-22
4.71409e-21
7.65602e-19
9.53248e-17
2.89857e-15
3.65504e-14
2.60048e-13
1.22761e-12
-1.65055e-76
-5.33811e-76
-1.49324e-77
1.18156e-75
7.78494e-72
6.4034e-67
9.45595e-65
1.16922e-63
4.13074e-63
2.08178e-61
1.19425e-59
1.13303e-57
6.85183e-56
3.42846e-54
1.63327e-52
7.09615e-51
2.66195e-49
9.02453e-48
2.85317e-46
8.42247e-45
2.35378e-43
6.30664e-42
1.59879e-40
3.72551e-39
7.88547e-38
1.56994e-36
3.1913e-35
6.90864e-34
1.38657e-32
2.11112e-31
2.4947e-30
3.32958e-29
1.27591e-27
7.63004e-26
1.53112e-24
1.12434e-23
3.99601e-23
9.1542e-23
1.36635e-22
1.82908e-20
7.74517e-18
4.65702e-16
8.83319e-15
8.16573e-14
4.57101e-13
-4.56143e-79
-2.73031e-89
6.23121e-81
7.94154e-77
9.35704e-73
5.12863e-68
4.50764e-66
5.75891e-65
4.0783e-64
4.30668e-62
2.25051e-60
1.08388e-58
5.73918e-57
3.07568e-55
1.61757e-53
7.14768e-52
2.64419e-50
8.86385e-49
2.78461e-47
8.20296e-46
2.28897e-44
6.12728e-43
1.55893e-41
3.68265e-40
8.00615e-39
1.64999e-37
3.44149e-36
7.48094e-35
1.50791e-33
2.36673e-32
2.92195e-31
3.9238e-30
1.22777e-28
6.25357e-27
1.21263e-25
8.61157e-25
3.04737e-24
7.68291e-24
9.18098e-24
1.24219e-22
2.51283e-19
3.70527e-17
1.28748e-15
1.81325e-14
1.36063e-13
-1.25581e-79
-4.29442e-91
4.06797e-82
1.51294e-77
2.72672e-73
3.29366e-69
3.485e-67
4.92376e-66
3.50756e-65
2.87357e-63
1.8193e-61
1.11098e-59
6.1594e-58
3.08794e-56
1.4535e-54
6.1585e-53
2.27446e-51
7.58928e-50
2.387e-48
7.09555e-47
1.9877e-45
5.28785e-44
1.34076e-42
3.21572e-41
7.24347e-40
1.56322e-38
3.38525e-37
7.37453e-36
1.451e-34
2.27968e-33
2.94009e-32
4.06432e-31
1.01096e-29
3.81027e-28
6.99358e-27
5.05588e-26
1.83519e-25
4.76081e-25
7.70867e-25
4.6711e-24
6.84734e-21
1.55444e-18
9.77718e-17
2.40816e-15
2.78778e-14
-1.63403e-80
-8.64458e-84
-4.79168e-81
1.18813e-75
1.85817e-72
2.11598e-70
1.07858e-68
1.79682e-67
2.00164e-66
1.99764e-64
1.52387e-62
9.2217e-61
4.71925e-59
2.28535e-57
1.07762e-55
4.56759e-54
1.6783e-52
5.59313e-51
1.77101e-49
5.35385e-48
1.52035e-46
4.03067e-45
1.01483e-43
2.4726e-42
5.7881e-41
1.29959e-39
2.89282e-38
6.30574e-37
1.19256e-35
1.79075e-34
2.31882e-33
3.38278e-32
7.69929e-31
2.10765e-29
3.24445e-28
2.23357e-27
7.97093e-27
2.00865e-26
3.64486e-26
4.3631e-24
1.52617e-21
1.00653e-19
4.80059e-18
1.72491e-16
3.26837e-15
-1.87582e-82
-7.1215e-86
5.96833e-82
1.82191e-75
1.60548e-72
4.59877e-71
2.48625e-70
4.31616e-70
1.12307e-67
1.07986e-65
9.01438e-64
5.81448e-62
3.10955e-60
1.48717e-58
6.56734e-57
2.69326e-55
1.01151e-53
3.47086e-52
1.11207e-50
3.4059e-49
9.88469e-48
2.64595e-46
6.6234e-45
1.63455e-43
4.01027e-42
9.33953e-41
2.04689e-39
4.20389e-38
7.31159e-37
1.02462e-35
1.38865e-34
2.4782e-33
5.66275e-32
1.17635e-30
1.40259e-29
7.99706e-29
2.31189e-28
3.55359e-28
5.34011e-28
1.44949e-24
4.54089e-22
1.86246e-20
4.32794e-19
1.02204e-17
2.26855e-16
-8.9425e-83
-4.67247e-87
8.81812e-84
2.76758e-78
5.46306e-74
3.5358e-72
2.34861e-71
4.87329e-71
6.02215e-69
5.90077e-67
4.4614e-65
2.80082e-63
1.53796e-61
7.38992e-60
3.17438e-58
1.27355e-56
4.84523e-55
1.69824e-53
5.46799e-52
1.68829e-50
5.06834e-49
1.4026e-47
3.49769e-46
8.58699e-45
2.2725e-43
5.80781e-42
1.19236e-40
1.89291e-39
2.46303e-38
3.35165e-37
9.3396e-36
3.2562e-34
5.81963e-33
6.54801e-32
4.54606e-31
1.67653e-30
3.75138e-30
4.88895e-30
6.75959e-30
6.87917e-26
7.04615e-23
3.48902e-21
7.00704e-20
1.09175e-18
1.75104e-17
-1.58193e-83
-4.54517e-88
1.20873e-84
4.1719e-79
8.89333e-77
1.04624e-75
1.1728e-75
2.05891e-72
2.23041e-70
2.30889e-68
1.89035e-66
1.17219e-64
6.04978e-63
2.77158e-61
1.19472e-59
4.8793e-58
1.8316e-56
6.21259e-55
1.9624e-53
6.12574e-52
1.9454e-50
5.87313e-49
1.52182e-47
3.54632e-46
9.52855e-45
2.74384e-43
4.80727e-42
4.62665e-41
3.69381e-40
9.97113e-39
1.6145e-36
6.09694e-35
5.37499e-34
1.81126e-33
3.53075e-33
5.04828e-33
5.63507e-33
8.36613e-33
1.28427e-31
1.59071e-27
6.76535e-24
4.51287e-22
1.03769e-20
1.52391e-19
2.04716e-18
0
-1.58156e-90
1.87347e-85
8.14576e-80
2.51018e-77
4.05012e-76
1.12851e-75
8.6755e-74
8.22954e-72
7.57418e-70
5.89262e-68
3.53113e-66
1.77628e-64
7.87194e-63
3.29488e-61
1.31492e-59
4.79041e-58
1.59775e-56
5.30895e-55
1.84252e-53
6.23693e-52
2.05099e-50
6.72584e-49
1.61991e-47
2.52555e-46
3.1236e-45
3.49295e-44
3.58659e-43
5.14493e-42
1.91185e-39
1.24129e-37
1.47923e-36
5.56765e-36
9.88225e-36
1.17704e-35
6.60527e-36
9.26453e-36
1.81423e-34
2.01126e-32
3.09e-29
6.5873e-25
5.26702e-23
1.2762e-21
1.81226e-20
2.28319e-19
0
-4.1221e-91
5.4473e-86
8.72085e-81
8.29861e-79
5.72723e-78
8.0028e-78
3.21884e-75
2.86687e-73
1.92569e-71
1.16607e-69
6.25767e-68
3.13861e-66
1.48586e-64
6.58252e-63
2.62111e-61
9.02983e-60
2.90739e-58
1.14258e-56
6.55259e-55
3.11193e-53
7.13074e-52
9.20183e-51
1.01845e-49
1.45389e-48
2.86866e-47
5.55199e-46
9.8495e-45
2.93482e-43
3.02822e-41
1.44605e-39
1.71466e-38
6.33998e-38
1.07322e-37
1.24005e-37
1.29916e-37
2.56809e-37
1.3829e-35
1.33889e-33
1.51803e-30
4.77389e-26
5.19995e-24
1.45341e-22
2.16692e-21
2.49894e-20
-4.81062e-91
-2.03507e-97
2.3846e-94
5.24694e-91
2.91711e-87
1.11848e-81
5.60866e-79
4.58065e-77
3.50847e-75
2.41948e-73
1.48909e-71
8.36208e-70
4.42083e-68
2.20981e-66
9.42143e-65
3.20345e-63
1.10549e-61
7.13891e-60
5.40349e-58
1.78505e-56
2.86725e-55
3.37167e-54
4.36769e-53
7.85055e-52
1.69416e-50
3.582e-49
9.80303e-48
5.3481e-46
4.47851e-44
2.36943e-42
2.50388e-41
7.68449e-41
1.07969e-40
1.06191e-40
8.82443e-41
1.44247e-40
4.3874e-39
3.67828e-37
2.97375e-35
4.20261e-32
2.56345e-27
4.25246e-25
1.40303e-23
2.28517e-22
2.62448e-21
-2.42796e-91
1.38256e-96
1.92855e-92
5.53785e-90
3.10324e-88
3.92797e-83
4.36629e-81
3.9666e-79
3.16305e-77
2.2268e-75
1.41239e-73
8.39079e-72
4.56153e-70
2.02898e-68
7.55851e-67
3.47084e-65
3.02148e-63
1.84355e-61
4.9536e-60
7.53086e-59
9.56149e-58
1.58149e-56
4.17598e-55
1.03765e-53
1.60086e-52
2.43807e-51
2.05874e-48
1.9019e-46
1.95704e-45
5.75666e-45
7.84686e-45
5.47361e-45
3.03834e-46
8.4696e-46
4.11435e-44
1.19622e-42
1.6568e-41
2.44313e-39
4.0772e-37
2.8705e-34
8.95446e-29
2.78833e-26
1.11133e-24
2.04709e-23
2.49251e-22
-7.82942e-92
1.76408e-98
5.51603e-92
3.80568e-89
9.77558e-88
2.25453e-85
2.51283e-83
2.33078e-81
1.88793e-79
1.39013e-77
9.41803e-76
5.41995e-74
2.53851e-72
1.17442e-70
7.96567e-69
6.49915e-67
3.23559e-65
8.20632e-64
1.29021e-62
1.92029e-61
4.60812e-60
1.47411e-58
2.75201e-57
3.07221e-56
5.57476e-54
1.11124e-51
1.8676e-50
7.09056e-50
1.02752e-49
6.86657e-50
7.73741e-52
2.12158e-51
3.52977e-49
4.06226e-47
9.44678e-46
8.90655e-45
1.44097e-42
1.21539e-40
7.52777e-39
3.44872e-36
1.31228e-30
1.47569e-27
7.28258e-26
1.53587e-24
2.02061e-23
-1.25264e-92
-2.77318e-112
2.61856e-92
3.43469e-89
5.88734e-88
7.43412e-88
8.81429e-86
8.43224e-84
7.15934e-82
5.37884e-80
3.46704e-78
1.93108e-76
1.07668e-74
8.78656e-73
7.95206e-71
3.41503e-69
7.15545e-68
1.13984e-66
2.46016e-65
9.61431e-64
2.82899e-62
4.05298e-61
5.00613e-60
1.56302e-57
9.69229e-56
8.48655e-55
2.02759e-54
2.34468e-54
1.03876e-54
1.29417e-55
8.53467e-55
1.25631e-52
6.15534e-51
1.48948e-49
1.02833e-47
5.70253e-46
6.60984e-45
2.69684e-42
1.27752e-39
4.62429e-37
3.37595e-33
5.95501e-29
3.90987e-27
9.72029e-26
1.39283e-24
-2.08233e-95
-3.19391e-94
-7.92505e-94
-1.92702e-110
6.32984e-96
1.37601e-90
1.61273e-88
1.62244e-86
1.36836e-84
1.01389e-82
7.24865e-81
5.37919e-79
4.95441e-77
3.79058e-75
1.4078e-73
3.11477e-72
6.35613e-71
1.85877e-69
8.29375e-68
2.48534e-66
3.90876e-65
8.47458e-64
2.03229e-61
6.42379e-60
3.28484e-59
5.21311e-59
3.67312e-59
3.46239e-62
8.55528e-61
2.43214e-58
2.20638e-56
5.04232e-55
5.18904e-54
5.41415e-53
1.24652e-51
4.19606e-49
1.55755e-46
5.9315e-44
2.19686e-41
6.90293e-39
1.34297e-35
1.64728e-30
1.64248e-28
5.06143e-27
8.08123e-26
-3.13449e-96
-5.55207e-95
-1.68272e-94
6.84839e-119
5.1705e-99
1.22894e-93
1.34892e-91
1.18098e-89
1.35668e-87
1.32572e-85
9.00192e-84
9.85182e-82
6.47152e-80
2.35274e-78
6.3542e-77
1.694e-75
6.33617e-74
3.60539e-72
1.2227e-70
1.95105e-69
3.24248e-68
5.62855e-66
2.18937e-64
1.3428e-63
2.33741e-63
1.84669e-63
5.90598e-67
6.94645e-64
7.7829e-62
7.48187e-61
1.45808e-60
1.62544e-60
2.35558e-60
2.37529e-58
9.70475e-56
4.18144e-53
1.9072e-50
9.29846e-48
4.66978e-45
1.92973e-42
1.60764e-37
2.54014e-32
5.0755e-30
2.0624e-28
3.79261e-27
-3.89867e-99
-9.73311e-98
-4.01024e-97
-2.49973e-108
1.26872e-103
1.1743e-97
5.49236e-95
4.72061e-93
2.66395e-91
4.83456e-89
7.23425e-87
3.35382e-85
8.55203e-84
3.2129e-82
1.67683e-80
9.66246e-79
6.33364e-77
2.24066e-75
3.79888e-74
6.10319e-73
7.23801e-71
3.87876e-69
3.23918e-68
6.64456e-68
5.95466e-68
1.01435e-71
2.73456e-68
1.24296e-66
5.43728e-66
4.66316e-66
8.32658e-65
2.88052e-63
3.5328e-63
3.00813e-61
1.45776e-58
7.49423e-56
4.13233e-53
2.48925e-50
1.68966e-47
1.35117e-44
2.37995e-41
5.6225e-35
1.08662e-31
6.26851e-30
1.37002e-28
-4.97923e-106
-1.31345e-104
-3.27493e-104
-5.67064e-106
3.96307e-105
6.01645e-101
4.48463e-99
1.76353e-97
5.542e-96
3.96014e-94
9.13844e-92
7.59733e-90
6.63116e-88
3.8938e-86
2.63506e-84
2.38585e-82
9.19712e-81
1.67258e-79
3.22688e-78
4.32324e-76
3.04244e-74
3.14181e-73
7.11026e-73
6.65934e-73
4.94182e-82
1.59406e-79
7.48971e-77
3.56759e-74
1.66345e-71
4.9235e-69
2.13236e-67
3.40511e-67
6.32383e-65
3.2442e-62
1.69449e-59
9.07806e-57
5.04747e-54
2.95365e-51
1.85032e-48
1.26698e-45
9.8154e-43
2.2299e-38
1.36127e-33
1.31222e-31
3.64068e-30
-9.71199e-107
-2.22806e-105
-6.60592e-105
-2.99759e-105
5.81718e-111
2.60031e-106
2.26892e-104
3.11082e-102
2.66865e-100
2.77733e-98
2.09002e-96
2.0104e-94
1.66557e-92
1.09744e-90
6.84918e-89
2.63127e-87
8.48231e-86
4.19534e-84
4.51463e-82
4.1509e-80
6.68888e-79
2.06751e-78
2.23444e-78
4.68717e-93
3.7566e-90
3.04162e-87
2.36359e-84
1.76927e-81
1.28117e-78
9.01635e-76
6.19677e-73
4.17977e-70
2.78115e-67
1.83519e-64
1.20766e-61
7.97102e-59
5.30826e-56
3.58801e-53
2.47615e-50
1.7544e-47
1.28138e-44
3.5221e-41
5.85551e-36
1.50925e-33
6.73799e-32
-4.17185e-111
-6.1178e-110
-3.53911e-109
-1.05829e-108
4.82646e-118
2.11345e-112
4.51322e-110
3.9636e-108
3.41274e-106
3.84679e-104
3.62251e-102
5.18413e-100
4.52278e-98
1.92641e-96
9.77893e-95
7.88005e-93
5.31385e-91
6.33182e-89
5.88583e-87
6.26385e-86
1.19154e-85
4.78335e-87
7.43125e-100
8.93784e-97
2.87154e-93
3.01736e-90
2.92104e-87
2.34273e-84
1.76946e-81
1.28176e-78
9.02021e-76
6.19816e-73
4.17902e-70
2.78047e-67
1.83473e-64
1.20736e-61
7.96928e-59
5.30744e-56
3.58789e-53
2.47654e-50
1.75492e-47
1.2819e-44
3.20146e-41
4.60467e-36
1.20092e-33
-1.22218e-116
-1.0722e-115
-4.95903e-115
-1.15712e-114
-4.86341e-134
2.47288e-138
-1.13243e-131
2.92937e-132
-1.77985e-128
2.00214e-116
7.84927e-111
1.33395e-108
3.0057e-106
4.13078e-104
2.36441e-102
2.21535e-100
6.87495e-98
2.91621e-96
1.18507e-95
5.37887e-115
1.1387e-111
2.23902e-108
4.10386e-105
7.03944e-102
2.9565e-98
4.65879e-95
6.58162e-92
8.87472e-89
1.14709e-85
1.42734e-82
1.71718e-79
2.00595e-76
2.28489e-73
2.54817e-70
2.79323e-67
3.02043e-64
3.23221e-61
3.4317e-58
3.62209e-55
3.79875e-52
3.17938e-49
2.58121e-46
8.00013e-43
1.07859e-37
2.47477e-35
-2.9726e-123
-7.11445e-123
-1.24277e-122
-7.72993e-123
-7.9504e-146
1.14826e-144
5.6198e-135
5.88353e-132
1.00727e-130
6.31456e-133
1.69825e-133
1.3027e-134
2.74055e-137
1.6233e-133
9.39612e-130
5.15069e-126
1.01536e-115
2.39974e-122
2.5368e-148
6.07795e-131
6.10396e-121
-1.04065e-116
-1.53049e-111
-4.70016e-105
5.32201e-107
3.65106e-103
8.92258e-100
2.02495e-96
4.39196e-93
9.14432e-90
1.83565e-86
3.56803e-83
6.74326e-80
1.24405e-76
2.24875e-73
3.9959e-70
6.99941e-67
1.21102e-63
2.0716e-60
3.50231e-57
5.83906e-54
9.55509e-51
7.21274e-46
2.81205e-40
1.15284e-37
-1.55874e-134
-1.41318e-134
-3.02152e-134
-4.90003e-134
1.33811e-147
1.67215e-147
6.20792e-146
8.83259e-140
4.63211e-134
7.37372e-132
2.63061e-131
2.58151e-134
9.9918e-140
2.73056e-137
1.62302e-133
9.25387e-126
5.53274e-123
4.79553e-122
-6.56498e-122
-8.18862e-120
-6.41856e-126
5.21946e-121
-1.42468e-115
-1.10515e-122
-5.26053e-119
-2.2828e-113
-3.59677e-112
-8.07812e-109
-8.75133e-106
6.4847e-101
1.15325e-97
-2.70596e-95
-7.38268e-92
-1.50267e-88
-2.95971e-85
-5.66786e-82
-1.05978e-78
-1.94239e-75
-3.50148e-72
-6.22773e-69
-1.09499e-65
-1.90553e-62
-3.2805e-59
1.28017e-46
3.05513e-41
2.27958e-150
1.07435e-150
3.15999e-150
1.58857e-149
9.95722e-149
7.92094e-148
1.41882e-147
2.50377e-145
4.03904e-138
1.01303e-134
2.1968e-132
2.76213e-135
8.23764e-148
-1.20172e-140
-2.70359e-136
1.19617e-126
2.3289e-123
2.67573e-122
5.20444e-150
4.83118e-128
2.31668e-122
1.6974e-120
-7.85084e-140
-4.74765e-134
-5.44055e-127
-3.08698e-127
6.73551e-125
-2.32788e-122
-1.93961e-118
2.4436e-103
1.53459e-97
1.50973e-95
1.09866e-106
1.6331e-105
3.70005e-103
1.43981e-99
1.02562e-95
3.46061e-93
1.12161e-89
5.48977e-86
7.51212e-84
0
0
-1.10255e-77
-1.74068e-72
)
;

boundaryField
{
    leftWall
    {
        type            zeroGradient;
    }
    rightWall
    {
        type            zeroGradient;
    }
    lowerWall
    {
        type            zeroGradient;
    }
    atmosphere
    {
        type            inletOutlet;
        inletValue      uniform 0;
        value           uniform 0;
    }
    defaultFaces
    {
        type            empty;
    }
    procBoundary2to0
    {
        type            processor;
        value           nonuniform List<scalar> 
46
(
-1.21768e-17
-1.38635e-17
-1.49126e-17
-1.52925e-17
-1.57359e-17
-1.76201e-17
-2.2714e-17
-3.48817e-17
-6.44244e-17
-1.41653e-16
-3.4835e-16
-8.99447e-16
-2.34512e-15
-6.07007e-15
-1.55513e-14
-3.95817e-14
-1.00607e-13
-2.55881e-13
-6.48327e-13
-1.6186e-12
-3.92389e-12
-9.0959e-12
-1.98839e-11
-4.04757e-11
-7.53544e-11
-9.35652e-26
-4.77207e-25
-2.47228e-24
-1.08469e-23
-4.07347e-23
-1.31148e-22
-3.69672e-22
-9.52204e-22
-2.35895e-21
-5.82357e-21
-1.43609e-20
-3.44755e-20
-7.81295e-20
-1.63544e-19
-3.12972e-19
-5.46049e-19
-8.69094e-19
-1.26445e-18
-1.68681e-18
-2.07157e-18
-2.07157e-18
)
;
    }
    procBoundary2to3
    {
        type            processor;
        value           nonuniform List<scalar> 
43
(
-8.16157e-11
-5.54624e-11
-3.85696e-11
-2.71395e-11
-1.90761e-11
-1.3214e-11
-8.8869e-12
-5.68937e-12
-3.34395e-12
-1.61839e-12
-3.08022e-13
1.49333e-12
4.87023e-12
9.85204e-12
1.61058e-11
1.78144e-11
1.69608e-11
1.39299e-11
8.99788e-12
4.48434e-12
1.84851e-12
6.61861e-13
1.86589e-13
3.37894e-14
3.40484e-15
2.54978e-16
2.63908e-17
3.19475e-18
3.1811e-19
3.03783e-20
2.77749e-21
2.27497e-22
1.57426e-23
9.08062e-25
4.28565e-26
1.59556e-27
4.6185e-29
1.24175e-30
6.34452e-32
8.35268e-34
4.73222e-36
5.0785e-39
1.05818e-54
)
;
    }
}


// ************************************************************************* //
