/*--------------------------------*- C++ -*----------------------------------*\
| =========                 |                                                 |
| \\      /  F ield         | OpenFOAM: The Open Source CFD Toolbox           |
|  \\    /   O peration     | Version:  5.0                                   |
|   \\  /    A nd           | Web:      www.OpenFOAM.org                      |
|    \\/     M anipulation  |                                                 |
\*---------------------------------------------------------------------------*/
FoamFile
{
    version     2.0;
    format      ascii;
    class       volScalarField;
    location    "0.75";
    object      epsilon;
}
// * * * * * * * * * * * * * * * * * * * * * * * * * * * * * * * * * * * * * //

dimensions      [0 2 -3 0 0 0 0];

internalField   nonuniform List<scalar> 
1915
(
0.130215
0.137096
0.144577
0.152729
0.161648
0.171463
0.182344
0.194525
0.208309
0.224097
0.242407
0.26391
0.289466
0.320175
0.357438
0.403037
0.459224
0.528833
0.615403
0.7233
0.857833
1.02534
1.23321
1.48983
1.80443
0.32499
0.143288
0.107756
0.0940981
0.0874953
0.0841445
0.0826278
0.0822974
0.0828186
0.084005
0.0857483
0.087985
0.0906785
0.0938091
0.0973697
0.101362
0.105795
0.110682
0.116046
0.121913
0.128321
0.135315
0.142957
0.15133
0.160539
0.170726
0.182076
0.194839
0.209338
0.225999
0.245372
0.268165
0.295287
0.327899
0.367481
0.415914
0.475575
0.549453
0.641276
0.755633
0.898087
1.07525
1.29477
1.56526
1.89601
0.321089
0.141262
0.106113
0.0925974
0.0860502
0.0827115
0.0811806
0.0808185
0.0812959
0.0824298
0.0841147
0.0862894
0.08892
0.0919909
0.0954974
0.099444
0.103843
0.108714
0.114081
0.11998
0.126451
0.133551
0.141348
0.149933
0.159424
0.169977
0.181791
0.19513
0.21034
0.227869
0.248295
0.272363
0.301023
0.335493
0.377317
0.42846
0.491399
0.569246
0.665867
0.78601
0.935408
1.12083
1.35005
1.63171
1.97499
0.31678
0.139146
0.104446
0.0910997
0.0846245
0.0813089
0.079772
0.0793846
0.0798232
0.0809087
0.0825385
0.0846539
0.0872233
0.0902329
0.093682
0.0975799
0.101941
0.106789
0.112154
0.118076
0.124603
0.131797
0.139738
0.148525
0.158288
0.169194
0.181459
0.195362
0.211267
0.229644
0.251096
0.276399
0.306539
0.342776
0.386706
0.440353
0.506264
0.587625
0.688384
0.813367
0.968369
1.16019
1.39657
1.68602
2.03742
0.312126
0.13696
0.102765
0.0896123
0.0832226
0.0799392
0.078403
0.0779955
0.0783994
0.0794398
0.0810171
0.0830749
0.0855842
0.0885333
0.091924
0.0957679
0.100085
0.104905
0.11026
0.116196
0.122768
0.130046
0.138116
0.147091
0.157109
0.168351
0.181047
0.19549
0.212063
0.231253
0.253687
0.280161
0.31169
0.349562
0.395407
0.451279
0.519757
0.604053
0.708125
0.836791
0.995797
1.19184
1.43248
1.72591
2.08056
0.307193
0.134727
0.101083
0.0881434
0.08185
0.0786061
0.0770759
0.0766523
0.0770247
0.0780223
0.0795486
0.0815499
0.0839993
0.0868877
0.0902189
0.0940072
0.0982759
0.103057
0.108394
0.114333
0.120938
0.128285
0.136469
0.145612
0.155864
0.167417
0.180515
0.195467
0.212667
0.23262
0.255969
0.283527
0.316324
0.355663
0.403183
0.460942
0.531508
0.618064
0.724512
0.855568
1.01682
1.21475
1.45656
1.75003
2.10299
0.30205
0.132469
0.0994141
0.086702
0.0805132
0.0773142
0.0757938
0.0753571
0.0756999
0.0766561
0.0781323
0.0800773
0.0824664
0.0852926
0.0885622
0.092292
0.0965082
0.101246
0.106551
0.112481
0.119104
0.126503
0.134781
0.144068
0.154526
0.166358
0.179821
0.195236
0.213011
0.233662
0.257841
0.286372
0.320289
0.360892
0.40981
0.469071
0.541195
0.629281
0.737109
0.86921
1.03092
1.22837
1.46834
1.75802
2.10457
0.296764
0.130209
0.0977717
0.0852981
0.0792196
0.076069
0.0745609
0.0741126
0.0744271
0.0753425
0.0767686
0.0786566
0.080984
0.0837459
0.0869509
0.090618
0.0947762
0.099464
0.10473
0.110636
0.117257
0.124688
0.133035
0.142438
0.153068
0.16514
0.178921
0.194744
0.213026
0.234292
0.259199
0.288571
0.323436
0.365076
0.415084
0.475435
0.54856
0.637429
0.745635
0.877458
1.0379
1.23264
1.46794
1.75034
2.08628
0.2914
0.127971
0.0961703
0.0839421
0.0779773
0.0748771
0.0733823
0.072923
0.0732092
0.0740835
0.0754586
0.0772882
0.0795518
0.0822466
0.0853829
0.0889821
0.0930757
0.097705
0.102922
0.108792
0.115395
0.122828
0.131217
0.140703
0.151466
0.16373
0.177771
0.193934
0.212644
0.234427
0.259941
0.290003
0.325624
0.368052
0.418828
0.479844
0.553411
0.642329
0.749958
0.880266
1.03785
1.2279
1.45607
1.7282
2.04998
0.286024
0.125779
0.0946247
0.0826452
0.0767952
0.0737455
0.0722637
0.0717929
0.07205
0.072882
0.0742046
0.0759737
0.0781707
0.0807946
0.0838575
0.0873827
0.0914038
0.0959648
0.101121
0.10694
0.113506
0.120922
0.129315
0.138844
0.149694
0.162095
0.176332
0.192756
0.211798
0.233987
0.259973
0.290558
0.326725
0.36968
0.420892
0.482151
0.55562
0.6439
0.750079
0.877775
1.03114
1.21483
1.43384
1.69332
1.9982
0.280696
0.123654
0.0931497
0.0814187
0.0756824
0.0726819
0.0712119
0.070728
0.0709543
0.0717419
0.0730097
0.0747156
0.0768426
0.0793912
0.0823752
0.0858194
0.0897594
0.0942412
0.0993224
0.105074
0.111583
0.118957
0.127325
0.13685
0.147733
0.160209
0.174567
0.191164
0.210433
0.232903
0.259209
0.290136
0.326631
0.369844
0.421162
0.482255
0.555123
0.642143
0.746111
0.870269
1.01831
1.19431
1.40264
1.64774
1.93379
0.275476
0.12162
0.0917601
0.080274
0.0746486
0.0716947
0.0702338
0.0697343
0.0699272
0.070668
0.071878
0.0735172
0.0755702
0.0780388
0.0809378
0.0842936
0.0881429
0.0925336
0.0975253
0.103191
0.109621
0.116924
0.125234
0.134715
0.14557
0.158052
0.172451
0.189123
0.208503
0.231114
0.257581
0.288658
0.325253
0.368453
0.419553
0.480097
0.551907
0.637125
0.738246
0.85813
0.999997
1.16738
1.364
1.59363
1.85975
0.270418
0.119696
0.0904702
0.0792228
0.0737035
0.0707922
0.0693368
0.0688184
0.0689747
0.0696653
0.070814
0.0723827
0.0743573
0.0767405
0.0795482
0.0828075
0.0865565
0.0908437
0.0957303
0.101291
0.107617
0.11482
0.123035
0.132429
0.143205
0.155614
0.169966
0.18661
0.205976
0.228581
0.255038
0.286066
0.322529
0.365446
0.416019
0.475656
0.546001
0.628963
0.726732
0.841794
0.976913
1.13509
1.31945
1.53311
1.77893
0.265575
0.117904
0.0892938
0.078276
0.0728566
0.0699828
0.0685286
0.0679872
0.068103
0.0687395
0.069823
0.0713169
0.0732082
0.0755005
0.0782102
0.081365
0.0850034
0.0891747
0.0939405
0.0993764
0.105575
0.112647
0.12073
0.12999
0.14063
0.1529
0.167105
0.183613
0.202837
0.225284
0.25155
0.282326
0.318423
0.360794
0.410543
0.468947
0.537475
0.617805
0.71184
0.821707
0.949743
1.09845
1.2704
1.46813
1.69391
0.260992
0.116262
0.0882442
0.0774446
0.0721173
0.069275
0.0678166
0.0672475
0.0673184
0.0678964
0.0689104
0.0703249
0.0721279
0.0743235
0.0769284
0.0799706
0.0834885
0.0875314
0.0921609
0.0974525
0.103498
0.110409
0.118322
0.127401
0.137849
0.149909
0.163883
0.180136
0.199088
0.221221
0.247114
0.277432
0.312932
0.354498
0.403142
0.460016
0.526421
0.60382
0.693846
0.798297
0.919117
1.05836
1.2181
1.40035
1.60687
0.256715
0.114788
0.0873338
0.0767388
0.0714946
0.0686767
0.0672083
0.066606
0.0666271
0.067142
0.0680817
0.0694121
0.0711216
0.0732148
0.0757083
0.0786298
0.0820174
0.0859199
0.0903981
0.0955266
0.101396
0.108117
0.115822
0.124675
0.134873
0.146655
0.160314
0.176203
0.194749
0.216415
0.241755
0.271406
0.306081
0.346594
0.393869
0.44894
0.512956
0.587185
0.673016
0.771949
0.885581
1.01556
1.16355
1.33108
1.5195
0.25278
0.113497
0.0865739
0.076168
0.0709968
0.0681955
0.0667104
0.0660693
0.0660352
0.066482
0.0673425
0.0685837
0.0701946
0.0721796
0.0745553
0.0773486
0.0805967
0.0843475
0.0886604
0.0936081
0.0992793
0.105781
0.113245
0.121828
0.131722
0.14316
0.156423
0.171852
0.189859
0.21091
0.235521
0.264299
0.29793
0.337151
0.382806
0.435825
0.49722
0.568086
0.649597
0.742997
0.849578
0.970652
1.1075
1.26129
1.43298
0.249225
0.112404
0.085975
0.0757411
0.0706317
0.0678384
0.0663295
0.0656433
0.0655483
0.0659217
0.066698
0.0678451
0.0693522
0.0712235
0.0734751
0.076133
0.0792333
0.082822
0.0869568
0.0917078
0.0971607
0.103419
0.110609
0.118883
0.128424
0.139456
0.152248
0.167125
0.184479
0.204772
0.22849
0.256208
0.288572
0.326274
0.370075
0.42081
0.479374
0.546715
0.623823
0.711723
0.811455
0.924044
1.05046
1.19156
1.34801
0.246079
0.111523
0.0855465
0.0754658
0.070406
0.0676116
0.0660713
0.0653334
0.0651716
0.0654661
0.066153
0.067201
0.0685993
0.0703517
0.0724735
0.0749895
0.0779342
0.0813517
0.085297
0.0898372
0.0950542
0.101047
0.107935
0.115864
0.125009
0.135581
0.147835
0.162079
0.178681
0.198082
0.22076
0.247241
0.278134
0.314105
0.355832
0.404068
0.45961
0.52328
0.59592
0.678376
0.771478
0.876023
0.992732
1.12221
1.26488
0.243371
0.110865
0.0852968
0.075349
0.0703261
0.0675207
0.065941
0.0651443
0.0649096
0.0651196
0.065712
0.0666559
0.0679405
0.0695691
0.0715558
0.0739241
0.0767065
0.0799448
0.083691
0.0880086
0.0929749
0.0986833
0.105247
0.112802
0.121513
0.131579
0.143239
0.15678
0.172546
0.190947
0.212451
0.237543
0.266789
0.300815
0.340269
0.38581
0.438151
0.498016
0.566126
0.643186
0.729866
0.826777
0.934452
1.0533
1.18357
0.241125
0.110439
0.085233
0.0753967
0.0703969
0.0675704
0.0659428
0.0650802
0.0647662
0.064886
0.0653787
0.0662136
0.0673799
0.0688801
0.0707269
0.0729425
0.0755569
0.0786095
0.0821487
0.0862341
0.0909378
0.0963471
0.102567
0.109725
0.117974
0.127497
0.138517
0.1513
0.166161
0.183479
0.203699
0.227274
0.254726
0.286634
0.323623
0.366289
0.415265
0.471194
0.534708
0.606401
0.686821
0.776447
0.875667
0.984751
1.10382
0.239363
0.110256
0.0853613
0.0756139
0.0706229
0.0677644
0.0660802
0.0651443
0.0647445
0.0647684
0.0651562
0.0658775
0.0669211
0.0682886
0.0699916
0.07205
0.0744919
0.0773535
0.0806797
0.0845255
0.0889578
0.094057
0.0999202
0.106664
0.114429
0.123384
0.133731
0.145714
0.159621
0.175797
0.194648
0.216612
0.242155
0.271811
0.306156
0.345796
0.391262
0.443136
0.501978
0.568306
0.64258
0.725185
0.816409
0.916427
1.02527
0.238102
0.110321
0.0856868
0.0760047
0.0710074
0.0681059
0.066356
0.0653391
0.0648469
0.0647693
0.0650471
0.0656503
0.0665672
0.0677983
0.0693538
0.0712516
0.0735174
0.0761841
0.079293
0.0828944
0.0870493
0.0918314
0.0973288
0.103648
0.110916
0.119286
0.12894
0.140099
0.153021
0.168017
0.185451
0.20574
0.229298
0.256612
0.288209
0.324649
0.366495
0.414212
0.468311
0.529255
0.597447
0.67321
0.75677
0.848246
0.947621
0.237361
0.110643
0.0862139
0.0765724
0.0715534
0.0685971
0.0667723
0.0656666
0.0650754
0.0648904
0.0650533
0.0655342
0.0663207
0.0674122
0.0688172
0.0705518
0.0726388
0.0751082
0.0779971
0.0813513
0.0852258
0.0896871
0.0948148
0.100704
0.10747
0.115247
0.124201
0.134526
0.146452
0.160255
0.176257
0.194836
0.216377
0.241307
0.270104
0.303277
0.341356
0.384847
0.434148
0.489683
0.551822
0.62085
0.696965
0.780255
0.870687
0.237155
0.111226
0.0869465
0.0773199
0.0722628
0.0692399
0.0673304
0.066128
0.0654311
0.0651332
0.0651765
0.0655311
0.0661838
0.0671329
0.0683853
0.0699547
0.0718614
0.0741321
0.0768001
0.0799063
0.0834999
0.0876402
0.0923982
0.0978586
0.104122
0.111311
0.119567
0.129062
0.139999
0.152617
0.167199
0.184075
0.203606
0.226158
0.252158
0.282061
0.316346
0.355502
0.399984
0.450104
0.506211
0.568574
0.637377
0.712706
0.794535
0.237499
0.112078
0.0878883
0.07825
0.0731379
0.0700357
0.0680317
0.0667245
0.0659152
0.0654988
0.065418
0.0656427
0.0661587
0.0669632
0.0680613
0.0694645
0.0711904
0.0732623
0.0757098
0.078569
0.0818834
0.0857054
0.0900975
0.095134
0.100904
0.107511
0.115083
0.123765
0.133735
0.145197
0.158396
0.173613
0.191176
0.211403
0.234665
0.261362
0.291919
0.326772
0.366357
0.411091
0.461218
0.516983
0.578572
0.646085
0.719519
0.238416
0.113205
0.0890443
0.0793659
0.0741809
0.0709863
0.0688775
0.067457
0.0665286
0.0659883
0.0657792
0.0658706
0.0662477
0.066906
0.0678488
0.0690855
0.0706309
0.0725052
0.074734
0.0773488
0.0803877
0.0838964
0.0879294
0.0925512
0.0978385
0.103882
0.110789
0.118686
0.127723
0.138075
0.149947
0.163579
0.179248
0.197248
0.217882
0.241498
0.268467
0.29917
0.333996
0.373322
0.417506
0.466787
0.521272
0.581096
0.646283
0.239935
0.114618
0.0904215
0.0806728
0.0753956
0.0720943
0.0698696
0.0683272
0.0672728
0.0666033
0.0662619
0.0662173
0.0664535
0.0669647
0.0677522
0.0688229
0.0701892
0.0718679
0.0738809
0.0762553
0.0790241
0.0822265
0.0859096
0.0901288
0.0949496
0.100449
0.106719
0.113866
0.122015
0.131313
0.141932
0.154071
0.167957
0.183854
0.202015
0.222729
0.246312
0.273093
0.303407
0.337586
0.375942
0.418754
0.466281
0.518603
0.575715
0.242107
0.116338
0.0920318
0.0821792
0.076788
0.0733643
0.0710115
0.0693378
0.0681502
0.0673463
0.0668689
0.0666859
0.0667801
0.067144
0.0677767
0.0686831
0.0698724
0.0713586
0.0731599
0.0752992
0.0778045
0.0807092
0.0840535
0.0878842
0.092257
0.0972368
0.1029
0.109336
0.116648
0.124959
0.134408
0.145158
0.157397
0.171337
0.18721
0.205241
0.225692
0.248841
0.27497
0.304365
0.337297
0.374018
0.414745
0.459638
0.508831
0.245022
0.118395
0.0938957
0.0838994
0.0783688
0.074804
0.0723091
0.0704935
0.069165
0.0682212
0.0676043
0.0672812
0.067233
0.0674502
0.0679299
0.0686743
0.06969
0.0709878
0.0725824
0.0744928
0.0767424
0.0793592
0.0823768
0.0858348
0.0897795
0.0942652
0.0993551
0.105123
0.111653
0.119045
0.127413
0.136888
0.147619
0.159778
0.173555
0.189146
0.206752
0.226602
0.248928
0.273968
0.301955
0.333106
0.367616
0.405644
0.447309
0.248824
0.120846
0.0960477
0.085858
0.0801558
0.0764268
0.0737726
0.0718024
0.0703241
0.0692345
0.068475
0.0680104
0.0678202
0.0678924
0.0682217
0.0688077
0.0696542
0.0707687
0.0721628
0.0738515
0.0758538
0.0781932
0.0808972
0.0839988
0.0875362
0.0915542
0.0961045
0.101247
0.107051
0.113595
0.120971
0.129283
0.138649
0.149202
0.161094
0.17449
0.189552
0.206454
0.225385
0.246539
0.270106
0.296271
0.325205
0.357054
0.391937
0.253756
0.12378
0.0985452
0.0880952
0.0821783
0.0782542
0.075418
0.0732772
0.0716381
0.0703962
0.0694906
0.0688839
0.0685529
0.068483
0.068666
0.0690984
0.0697812
0.0707188
0.0719194
0.0733944
0.075159
0.0772319
0.0796357
0.0823974
0.0855482
0.0891245
0.0931684
0.0977279
0.102858
0.108623
0.115093
0.122351
0.130488
0.139607
0.149825
0.161269
0.174078
0.188383
0.20433
0.22207
0.241758
0.263545
0.287573
0.313974
0.342863
0.260208
0.127348
0.101481
0.0906755
0.0844821
0.0803191
0.0772697
0.0749364
0.0731226
0.0717201
0.0706649
0.0699162
0.069447
0.0692392
0.0692813
0.0695666
0.0700927
0.070861
0.0718762
0.0731465
0.0746833
0.0765013
0.0786185
0.0810566
0.0838408
0.0870004
0.0905692
0.0945856
0.0990931
0.104141
0.109786
0.116091
0.123125
0.130968
0.139708
0.149439
0.160267
0.172306
0.185659
0.200442
0.216775
0.234776
0.254564
0.276249
0.299937
0.268789
0.131787
0.105002
0.0936982
0.087136
0.0826695
0.0793617
0.0768057
0.074798
0.0732249
0.0720165
0.0711265
0.0705232
0.0701837
0.0700925
0.070239
0.0706173
0.0712253
0.0720647
0.0731402
0.0744598
0.0760347
0.0778788
0.0800091
0.0824459
0.0852123
0.0883352
0.0918448
0.0957753
0.100165
0.105057
0.1105
0.116545
0.123253
0.130689
0.138923
0.148032
0.158099
0.169212
0.181458
0.194919
0.20969
0.225862
0.243528
0.262778
0.280426
0.137463
0.109331
0.097311
0.0902379
0.0853702
0.0817376
0.078916
0.0766893
0.0749331
0.0735679
0.0725395
0.0718086
0.0713465
0.0711321
0.0711506
0.071392
0.0718507
0.0725251
0.0734169
0.0745308
0.0758748
0.0774592
0.0792972
0.0814046
0.0837996
0.0865032
0.0895389
0.0929333
0.0967159
0.100919
0.105579
0.110736
0.116432
0.122716
0.129638
0.137254
0.145624
0.154811
0.16488
0.175903
0.187938
0.201058
0.215336
0.23085
0.296515
0.144936
0.114802
0.101722
0.0939161
0.0884987
0.0844448
0.0812987
0.0788211
0.0768683
0.0753454
0.0741848
0.0733372
0.0727654
0.0724419
0.0723463
0.0724644
0.072787
0.0733092
0.0740296
0.0749503
0.0760761
0.0774144
0.0789751
0.0807702
0.0828138
0.0851221
0.0877133
0.0906077
0.0938277
0.0973976
0.101344
0.105696
0.110486
0.115746
0.121515
0.127829
0.134733
0.142268
0.150484
0.159427
0.16915
0.179708
0.19115
0.203542
0.319172
0.155051
0.121891
0.107203
0.0983164
0.0921271
0.087517
0.0839719
0.0812088
0.0790502
0.0773752
0.0760966
0.0751502
0.0744882
0.0740746
0.0738833
0.0738953
0.0740976
0.0744824
0.0750455
0.0757865
0.0767076
0.0778137
0.0791118
0.0806109
0.0823217
0.0842566
0.0864294
0.0888555
0.0915514
0.0945353
0.0978267
0.101446
0.105417
0.109762
0.114506
0.119677
0.125304
0.131415
0.138044
0.145225
0.152993
0.161388
0.170455
0.180246
0.35171
0.169111
0.131263
0.114064
0.103552
0.0962732
0.0909365
0.0869144
0.0838426
0.0814855
0.0796808
0.0783129
0.0772978
0.0765743
0.0760973
0.075834
0.0757612
0.0758624
0.076127
0.0765486
0.0771247
0.0778555
0.0787438
0.0797942
0.0810133
0.0824091
0.0839907
0.0857686
0.0877541
0.0899596
0.092398
0.0950834
0.0980304
0.101255
0.104772
0.1086
0.112756
0.11726
0.12213
0.127389
0.133059
0.139166
0.145738
0.152809
0.160421
0.399877
0.189252
0.14378
0.122533
0.109569
0.100794
0.0945631
0.0900244
0.0866666
0.0841595
0.0822808
0.0808775
0.0798423
0.0790993
0.0785946
0.0782901
0.0781584
0.078181
0.0783452
0.0786432
0.0790709
0.079627
0.0803126
0.0811308
0.0820861
0.0831841
0.0844317
0.0858364
0.0874065
0.089151
0.091079
0.0932003
0.095525
0.0980634
0.100826
0.103824
0.10707
0.110574
0.114349
0.118409
0.12277
0.127447
0.132462
0.137839
0.14361
0.475753
0.219289
0.160305
0.132343
0.115815
0.105181
0.0980289
0.0930739
0.0895645
0.0870372
0.0851963
0.083849
0.0828666
0.0821622
0.0816763
0.0813678
0.0812081
0.0811778
0.0812639
0.0814579
0.0817551
0.0821535
0.082653
0.0832553
0.0839635
0.0847815
0.0857141
0.0867667
0.0879451
0.0892556
0.0907044
0.0922981
0.0940434
0.0959469
0.0980152
0.100255
0.102674
0.105278
0.108075
0.111073
0.114282
0.117711
0.121376
0.125294
0.129488
0.61278
0.266313
0.180343
0.141503
0.120562
0.108276
0.100649
0.0957045
0.0923854
0.090094
0.0884779
0.0873221
0.0864914
0.0858987
0.0854865
0.0852164
0.0850625
0.0850073
0.0850391
0.0851503
0.0853365
0.0855955
0.0859267
0.086331
0.0868103
0.0873671
0.0880047
0.0887266
0.0895368
0.0904392
0.0914381
0.0925374
0.0937414
0.095054
0.096479
0.0980203
0.0996816
0.101467
0.103379
0.105424
0.107606
0.109932
0.112409
0.11505
0.117871
0.955217
0.339572
0.195451
0.143276
0.120016
0.108173
0.101553
0.0975831
0.0950681
0.0934039
0.0922652
0.0914674
0.0909009
0.0904983
0.0902165
0.0900277
0.0899133
0.089861
0.0898625
0.0899127
0.0900083
0.0901476
0.0903301
0.0905561
0.0908266
0.0911432
0.0915076
0.0919219
0.0923885
0.0929095
0.0934873
0.0941242
0.0948224
0.095584
0.0964108
0.0973047
0.0982674
0.0993005
0.100406
0.101585
0.102841
0.104176
0.105594
0.107103
0.108711
3.12147
0.384425
0.167034
0.123411
0.109292
0.103392
0.10049
0.0988841
0.0979152
0.0972918
0.0968718
0.0965794
0.0963718
0.0962235
0.0961182
0.0960458
0.0959995
0.0959747
0.0959685
0.0959788
0.0960046
0.0960451
0.0961001
0.0961697
0.0962542
0.0963542
0.0964701
0.0966028
0.096753
0.0969214
0.0971089
0.0973161
0.0975438
0.0977926
0.0980631
0.0983558
0.0986711
0.0990094
0.0993712
0.0997569
0.100167
0.100602
0.101064
0.101554
0.102074
)
;

boundaryField
{
    leftWall
    {
        Cmu             0.09;
        kappa           0.41;
        E               9.8;
        type            epsilonWallFunction;
        value           nonuniform List<scalar> 
42
(
0.32499
0.321089
0.31678
0.312126
0.307193
0.30205
0.296764
0.2914
0.286024
0.280696
0.275476
0.270418
0.265575
0.260992
0.256715
0.25278
0.249225
0.246079
0.243371
0.241125
0.239363
0.238102
0.237361
0.237155
0.237499
0.238416
0.239935
0.242107
0.245022
0.248824
0.253756
0.260208
0.268789
0.280426
0.296515
0.319172
0.35171
0.399877
0.475753
0.61278
0.955217
3.12147
)
;
    }
    rightWall
    {
        Cmu             0.09;
        kappa           0.41;
        E               9.8;
        type            epsilonWallFunction;
        value           nonuniform 0();
    }
    lowerWall
    {
        Cmu             0.09;
        kappa           0.41;
        E               9.8;
        type            epsilonWallFunction;
        value           nonuniform 0();
    }
    atmosphere
    {
        type            inletOutlet;
        inletValue      uniform 0.1;
        value           uniform 0.1;
    }
    defaultFaces
    {
        type            empty;
    }
    procBoundary2to0
    {
        type            processor;
        value           nonuniform List<scalar> 
46
(
0.132139
0.1389
0.146212
0.154138
0.162764
0.172203
0.182616
0.194217
0.20729
0.222211
0.239467
0.259688
0.283683
0.312486
0.347416
0.390143
0.442783
0.507992
0.58909
0.690175
0.81624
0.973263
1.16826
1.40925
1.70519
0.328417
0.145202
0.109363
0.0955957
0.0889561
0.0856061
0.0841132
0.083822
0.0843931
0.085637
0.0874427
0.0897429
0.0924988
0.0956881
0.0993011
0.103336
0.107798
0.112698
0.118051
0.12388
0.12388
)
;
    }
    procBoundary2to3
    {
        type            processor;
        value           nonuniform List<scalar> 
43
(
2.1867
2.2966
2.38913
2.45947
2.50446
2.52271
2.51448
2.48143
2.42632
2.35264
2.26428
2.16521
2.05917
1.94951
1.83899
1.72973
1.62319
1.52016
1.42092
1.32529
1.23279
1.14281
1.05473
0.968097
0.882718
0.79876
0.716763
0.637595
0.562326
0.492667
0.429939
0.374334
0.325723
0.283703
0.247678
0.216954
0.19082
0.168624
0.149819
0.133993
0.120896
0.110431
0.10263
)
;
    }
}


// ************************************************************************* //
