/*--------------------------------*- C++ -*----------------------------------*\
| =========                 |                                                 |
| \\      /  F ield         | OpenFOAM: The Open Source CFD Toolbox           |
|  \\    /   O peration     | Version:  5.0                                   |
|   \\  /    A nd           | Web:      www.OpenFOAM.org                      |
|    \\/     M anipulation  |                                                 |
\*---------------------------------------------------------------------------*/
FoamFile
{
    version     2.0;
    format      ascii;
    class       volScalarField;
    location    "0.75";
    object      nut;
}
// * * * * * * * * * * * * * * * * * * * * * * * * * * * * * * * * * * * * * //

dimensions      [0 2 -1 0 0 0 0];

internalField   nonuniform List<scalar> 
1915
(
0.0105888
0.0107431
0.0108868
0.0110224
0.0111517
0.0112763
0.0113968
0.0115131
0.011624
0.0117271
0.0118194
0.0118969
0.0119553
0.0119906
0.0119996
0.0119808
0.0119347
0.0118645
0.0117761
0.0116774
0.0115781
0.0114885
0.011419
0.0113787
0.011375
9.73346e-05
0.00093034
0.00196887
0.00295599
0.00386242
0.00468741
0.00543557
0.00611251
0.00672382
0.00727473
0.00777015
0.00821465
0.00861249
0.00896778
0.00928454
0.00956666
0.00981797
0.0100422
0.0102429
0.0104237
0.0105878
0.0107385
0.0108786
0.0110108
0.011137
0.0112589
0.011377
0.0114913
0.0116005
0.0117025
0.0117943
0.0118718
0.0119312
0.0119684
0.0119807
0.0119668
0.0119273
0.0118657
0.0117877
0.011701
0.0116151
0.01154
0.0114854
0.0114602
0.0114713
9.6955e-05
0.000929349
0.00196837
0.00295648
0.0038642
0.00469067
0.00544039
0.00611888
0.00673159
0.00728366
0.00777986
0.0082247
0.00862243
0.00897718
0.00929281
0.00957324
0.00982228
0.0100437
0.0102412
0.0104185
0.0105788
0.0107257
0.0108619
0.0109904
0.0111131
0.0112318
0.0113473
0.0114594
0.0115671
0.0116684
0.0117603
0.0118392
0.0119013
0.0119428
0.0119613
0.0119554
0.0119262
0.0118768
0.0118127
0.0117413
0.0116714
0.0116125
0.0115739
0.0115636
0.0115884
9.65305e-05
0.000927786
0.00196632
0.00295441
0.00386248
0.00468961
0.00544023
0.00611973
0.00673345
0.00728637
0.00778318
0.00822825
0.00862578
0.0089798
0.00929425
0.00957301
0.0098198
0.0100385
0.0102328
0.0104063
0.0105628
0.0107055
0.0108377
0.010962
0.0110809
0.0111961
0.0113087
0.0114185
0.0115248
0.0116257
0.0117186
0.0118
0.0118663
0.0119144
0.0119416
0.0119469
0.011931
0.011897
0.0118498
0.0117962
0.0117443
0.0117028
0.0116803
0.0116844
0.0117213
9.60662e-05
0.000925673
0.00196279
0.00294986
0.00385737
0.00468438
0.00543525
0.00611527
0.00672961
0.00728316
0.00778042
0.00822567
0.00862299
0.00897633
0.0092896
0.00956662
0.00981123
0.0100272
0.0102182
0.0103882
0.0105406
0.010679
0.0108068
0.0109268
0.0110415
0.0111529
0.0112622
0.0113696
0.0114745
0.0115754
0.0116698
0.0117548
0.0118269
0.0118833
0.0119215
0.0119405
0.0119407
0.0119247
0.0118968
0.0118629
0.0118304
0.011807
0.0118006
0.0118181
0.0118653
9.55678e-05
0.000923034
0.00195782
0.00294292
0.00384898
0.00467513
0.00542565
0.00610571
0.00672036
0.0072743
0.00777192
0.00821733
0.00861449
0.00896727
0.00927946
0.00955488
0.00979733
0.0100106
0.0101985
0.0103648
0.0105132
0.0106472
0.0107704
0.0108858
0.010996
0.0111033
0.011209
0.0113138
0.0114173
0.0115183
0.0116148
0.0117041
0.0117833
0.0118495
0.0119005
0.0119351
0.0119535
0.0119575
0.0119507
0.0119381
0.011926
0.0119211
0.0119305
0.0119605
0.0120163
9.50413e-05
0.0009199
0.00195148
0.00293367
0.00383746
0.00466202
0.00541161
0.00609128
0.00670593
0.0072601
0.00775801
0.00820361
0.00860072
0.00895308
0.0092644
0.00953841
0.00977889
0.00998963
0.0101745
0.0103372
0.0104815
0.0106111
0.0107296
0.0108401
0.0109456
0.0110485
0.0111504
0.0112523
0.0113542
0.0114554
0.0115541
0.0116483
0.0117352
0.0118123
0.0118774
0.0119291
0.0119671
0.0119927
0.0120083
0.0120181
0.0120271
0.0120411
0.0120661
0.0121078
0.0121712
9.44928e-05
0.000916304
0.00194383
0.00292223
0.00382292
0.00464522
0.00539333
0.00607221
0.00668659
0.00724085
0.00773901
0.00818487
0.00858208
0.00893423
0.00924492
0.0095178
0.00975656
0.00996499
0.0101469
0.0103061
0.0104465
0.0105717
0.0106854
0.010791
0.0108916
0.0109897
0.0110874
0.0111861
0.0112862
0.0113874
0.0114884
0.0115875
0.0116825
0.011771
0.0118508
0.0119204
0.0119789
0.0120269
0.0120659
0.0120988
0.0121295
0.0121627
0.0122035
0.0122567
0.012327
9.39286e-05
0.000912285
0.00193495
0.00290869
0.00380551
0.00462489
0.00537101
0.00604872
0.0066626
0.00721683
0.00771524
0.00816146
0.00855894
0.00891114
0.00922151
0.00949359
0.00973098
0.00993741
0.0101167
0.0102727
0.0104092
0.0105301
0.0106391
0.0107396
0.0108351
0.0109282
0.0110215
0.0111165
0.0112144
0.0113151
0.0114181
0.0115219
0.0116248
0.0117247
0.0118193
0.0119068
0.0119861
0.0120568
0.0121196
0.0121761
0.012229
0.0122819
0.0123389
0.012404
0.0124812
9.33551e-05
0.000907883
0.00192491
0.00289318
0.00378538
0.00460121
0.00534486
0.00602104
0.00663419
0.00718829
0.00768699
0.00813368
0.00853167
0.00888421
0.00919461
0.00946627
0.0097027
0.00990754
0.0100845
0.0102376
0.0103705
0.0104872
0.0105915
0.0106871
0.0107773
0.0108652
0.0109537
0.0110447
0.0111397
0.0112395
0.0113437
0.0114516
0.0115617
0.0116723
0.0117811
0.0118861
0.0119858
0.0120791
0.0121655
0.0122458
0.0123213
0.0123945
0.0124684
0.0125462
0.0126312
9.27788e-05
0.000903145
0.00191381
0.00287582
0.00376269
0.00457437
0.00531506
0.00598939
0.00660161
0.0071555
0.00765451
0.00810184
0.00850057
0.00885377
0.00916459
0.00943627
0.0096722
0.00987592
0.0100511
0.0102016
0.0103312
0.010444
0.0105438
0.0106344
0.0107193
0.010802
0.0108852
0.0109717
0.0110633
0.0111612
0.0112657
0.0113767
0.0114929
0.011613
0.0117348
0.0118563
0.0119754
0.0120903
0.0121999
0.0123038
0.0124022
0.0124963
0.012588
0.0126798
0.0127742
9.2206e-05
0.000898119
0.00190174
0.00285674
0.0037376
0.00454456
0.00528185
0.005954
0.00656508
0.00711871
0.00761808
0.00806619
0.00846591
0.00882013
0.00913178
0.00940396
0.00963991
0.00984304
0.0100169
0.0101654
0.0102922
0.0104014
0.0104969
0.0105827
0.0106624
0.0107395
0.0108173
0.0108987
0.0109861
0.0110811
0.0111849
0.0112974
0.0114183
0.0115462
0.0116793
0.0118155
0.0119523
0.0120876
0.0122194
0.0123462
0.0124673
0.0125828
0.0126935
0.0128009
0.0129068
9.16433e-05
0.000892855
0.0018888
0.00283609
0.00371029
0.00451198
0.00524544
0.00591509
0.00652486
0.00707813
0.00757792
0.00802697
0.00842795
0.00878352
0.00909645
0.00936963
0.00960614
0.00980926
0.00998248
0.0101295
0.010254
0.0103601
0.0104517
0.0105328
0.0106073
0.010679
0.0107511
0.0108269
0.0109093
0.0110005
0.011102
0.0112145
0.0113381
0.0114717
0.0116139
0.0117624
0.0119149
0.0120685
0.0122208
0.0123694
0.0125128
0.0126499
0.0127806
0.0129052
0.013025
9.10969e-05
0.000887407
0.0018751
0.00281404
0.00368096
0.00447685
0.00520606
0.00587292
0.00648118
0.00703403
0.00753425
0.00798439
0.00838688
0.00874417
0.0090588
0.00933349
0.00957114
0.00977488
0.00994805
0.0100942
0.0102171
0.0103206
0.0104088
0.0104857
0.0105552
0.0106213
0.0106876
0.0107575
0.0108341
0.0109203
0.0110181
0.0111288
0.0112528
0.0113897
0.0115383
0.0116965
0.0118618
0.0120312
0.0122018
0.0123706
0.0125351
0.0126936
0.0128448
0.0129882
0.0131241
9.05729e-05
0.000881831
0.00186076
0.00279074
0.00364982
0.00443943
0.00516399
0.00582775
0.0064343
0.00698663
0.00748732
0.00793867
0.0083429
0.00870222
0.00901899
0.0092957
0.00953508
0.00974007
0.00991389
0.0100599
0.0101819
0.0102835
0.0103689
0.0104419
0.0105068
0.0105675
0.0106279
0.0106915
0.0107618
0.0108419
0.0109345
0.0110414
0.0111636
0.0113011
0.0114531
0.0116177
0.0117926
0.0119747
0.0121608
0.0123474
0.0125314
0.0127103
0.012882
0.0130451
0.0131991
9.00771e-05
0.000876183
0.00184589
0.00276639
0.00361712
0.00439999
0.00511951
0.00577986
0.0063845
0.00693621
0.00743735
0.00789001
0.00829617
0.00865783
0.00897713
0.00925636
0.00949804
0.00970494
0.0098801
0.0100268
0.0101485
0.010249
0.0103322
0.0104021
0.0104628
0.0105184
0.0105729
0.01063
0.0106934
0.0107666
0.0108525
0.0109537
0.0110717
0.011207
0.0113592
0.0115269
0.0117079
0.0118991
0.0120972
0.0122986
0.0124997
0.0126973
0.0128886
0.0130716
0.0132449
8.96153e-05
0.000870524
0.00183064
0.00274119
0.00358311
0.00435881
0.00507293
0.00572959
0.00633209
0.00688305
0.00738459
0.00783861
0.00824685
0.00861112
0.00893331
0.00921551
0.00946004
0.00966949
0.00984669
0.00999478
0.0101171
0.0102173
0.0102991
0.0103666
0.0104237
0.0104746
0.0105234
0.0105741
0.0106303
0.0106957
0.0107739
0.0108676
0.0109791
0.0111094
0.0112586
0.0114257
0.0116088
0.0118052
0.0120115
0.012224
0.0124389
0.0126527
0.0128619
0.0130639
0.0132567
8.91926e-05
0.000864916
0.00181515
0.00271536
0.00354808
0.00431625
0.00502462
0.00567729
0.00627743
0.00682746
0.00732933
0.0077847
0.00819513
0.00856219
0.00888757
0.00917315
0.00942104
0.00963362
0.00981357
0.00996381
0.0100876
0.0101883
0.0102696
0.0103354
0.0103897
0.0104366
0.0104801
0.0105244
0.0105734
0.0106307
0.0107001
0.010785
0.0108879
0.0110105
0.0111535
0.0113164
0.0114977
0.011695
0.0119052
0.0121247
0.0123497
0.0125761
0.0128005
0.0130196
0.0132307
8.8814e-05
0.000859421
0.00179958
0.00268916
0.00351236
0.00427266
0.00497498
0.00562338
0.0062209
0.00676982
0.00727188
0.00772856
0.0081412
0.00851118
0.00883997
0.00912926
0.00938094
0.00959721
0.00978054
0.00993367
0.0100596
0.0101617
0.0102434
0.0103085
0.0103609
0.0104045
0.0104435
0.0104819
0.0105237
0.0105727
0.0106327
0.0107076
0.0108003
0.0109129
0.0110468
0.011202
0.0113776
0.0115716
0.0117813
0.0120032
0.0122336
0.0124686
0.0127044
0.0129375
0.0131648
8.8484e-05
0.000854105
0.00178408
0.00266284
0.00347628
0.00422846
0.00492446
0.00556832
0.00616298
0.00671055
0.00721262
0.00767048
0.00808529
0.00845823
0.00879057
0.0090838
0.00933964
0.00956006
0.00974734
0.00990403
0.010033
0.0101373
0.0102204
0.0102857
0.0103371
0.0103784
0.0104136
0.0104467
0.0104818
0.0105227
0.0105733
0.0106375
0.0107187
0.0108195
0.0109417
0.0110861
0.0112522
0.0114387
0.0116433
0.0118629
0.012094
0.0123329
0.0125756
0.0128186
0.0130585
8.82068e-05
0.000849035
0.00176883
0.0026367
0.00344024
0.00418411
0.00487357
0.00551264
0.00610417
0.00665014
0.007152
0.00761085
0.0080277
0.00840353
0.00873946
0.00903677
0.009297
0.00952193
0.00971364
0.00987451
0.0100072
0.0101146
0.0101999
0.0102664
0.0103178
0.0103578
0.0103902
0.010419
0.0104481
0.0104815
0.0105228
0.0105761
0.0106451
0.0107328
0.0108414
0.0109723
0.0111257
0.0113009
0.011496
0.0117086
0.0119355
0.0121731
0.0124178
0.0126659
0.0129139
8.7986e-05
0.000844278
0.00175402
0.00261103
0.00340465
0.00414011
0.00482287
0.00545693
0.00604508
0.00658918
0.00709054
0.00755013
0.00796879
0.00834736
0.00868678
0.00898819
0.00925292
0.0094826
0.00967911
0.00984464
0.00998164
0.0100928
0.0101812
0.0102499
0.0103024
0.0103422
0.0103729
0.0103985
0.0104226
0.0104492
0.0104819
0.0105247
0.0105815
0.0106554
0.0107492
0.0108645
0.0110025
0.0111629
0.0113447
0.0115458
0.0117636
0.0119948
0.0122362
0.0124841
0.012735
8.78248e-05
0.000839903
0.00173984
0.00258617
0.00336995
0.00409701
0.00477298
0.00540187
0.0059864
0.00652834
0.00702888
0.00748887
0.00790904
0.00829007
0.00863278
0.00893814
0.00920735
0.00944186
0.00964339
0.00981393
0.00995575
0.0100714
0.0101636
0.0102354
0.01029
0.0103306
0.0103609
0.0103844
0.0104048
0.0104257
0.0104509
0.0104839
0.0105289
0.0105891
0.0106675
0.0107663
0.0108868
0.0110299
0.0111949
0.0113806
0.0115848
0.0118048
0.0120375
0.0122797
0.012528
8.7726e-05
0.000835982
0.00172649
0.00256246
0.00333664
0.00405542
0.00472459
0.0053482
0.0059289
0.00646839
0.00696776
0.00742777
0.00784903
0.00823214
0.00857778
0.00888683
0.00916032
0.00939958
0.00960617
0.0097819
0.00992888
0.0100494
0.0101462
0.0102218
0.0102794
0.010322
0.010353
0.0103757
0.0103936
0.0104103
0.0104292
0.0104538
0.0104879
0.0105351
0.0105984
0.0106803
0.0107826
0.0109064
0.0110522
0.0112192
0.0114059
0.0116102
0.0118295
0.0120607
0.0123008
8.76921e-05
0.00083259
0.0017142
0.00254029
0.00330524
0.004016
0.00467849
0.00529679
0.00587351
0.00641026
0.00690808
0.00736765
0.00778951
0.00817418
0.00852228
0.00883455
0.00911197
0.00935571
0.0095672
0.00974812
0.00990039
0.0100262
0.0101279
0.010208
0.0102694
0.010315
0.0103478
0.010371
0.0103879
0.0104017
0.0104158
0.0104335
0.0104582
0.0104936
0.0105428
0.0106084
0.0106925
0.0107966
0.0109215
0.0110675
0.0112337
0.0114185
0.01162
0.0118354
0.0120621
8.77253e-05
0.000829811
0.0017032
0.00252007
0.00327636
0.00397949
0.00463555
0.00524862
0.00582124
0.00635501
0.00685089
0.00730952
0.0077314
0.008117
0.0084669
0.00878179
0.00906257
0.00931031
0.00952636
0.00971224
0.00986973
0.0100008
0.0101078
0.0101929
0.0102587
0.0103081
0.0103437
0.0103686
0.0103857
0.0103982
0.0104091
0.0104216
0.0104387
0.0104639
0.0105005
0.010551
0.0106178
0.0107027
0.0108067
0.0109304
0.0110741
0.0112367
0.0114169
0.0116125
0.0118212
8.78283e-05
0.000827739
0.00169377
0.00250227
0.00325065
0.00394676
0.00459679
0.00520481
0.00577334
0.0063039
0.00679744
0.00725458
0.0076758
0.00806159
0.0084125
0.00872921
0.00901258
0.00926364
0.00948364
0.00967402
0.00983643
0.00997271
0.0100849
0.0101752
0.0102459
0.0102997
0.0103389
0.0103665
0.0103851
0.0103976
0.0104069
0.0104159
0.0104274
0.0104444
0.0104702
0.0105075
0.0105586
0.0106254
0.0107093
0.0108114
0.0109319
0.0110707
0.0112273
0.0114
0.011587
8.80047e-05
0.000826495
0.00168624
0.00248748
0.00322893
0.00391882
0.0045634
0.00516671
0.00573122
0.00625841
0.00674922
0.00720428
0.00762409
0.00800918
0.00836014
0.00867769
0.00896267
0.00921612
0.00943924
0.0096334
0.00980014
0.00994119
0.0100584
0.0101539
0.0102297
0.0102881
0.0103317
0.0103627
0.0103838
0.0103976
0.0104068
0.0104139
0.0104216
0.0104326
0.0104498
0.0104759
0.0105132
0.0105638
0.0106293
0.0107109
0.0108093
0.0109247
0.0110565
0.0112044
0.011367
8.82602e-05
0.000826232
0.00168103
0.00247637
0.00321216
0.00389689
0.00453682
0.00513593
0.00569661
0.00622034
0.00670802
0.00716035
0.0075779
0.00796128
0.00831116
0.00862833
0.00891372
0.00916839
0.00939353
0.00959048
0.00976071
0.00990585
0.0100276
0.0101279
0.0102086
0.010272
0.01032
0.0103551
0.0103795
0.0103956
0.0104058
0.0104125
0.0104182
0.0104252
0.0104359
0.0104531
0.0104791
0.0105157
0.0105649
0.0106278
0.0107055
0.0107984
0.0109067
0.0110299
0.011167
8.86048e-05
0.000827162
0.00167869
0.00246987
0.00320158
0.00388251
0.00451884
0.00511443
0.00567161
0.00619181
0.00667598
0.00712488
0.00753919
0.00791967
0.00826713
0.00858252
0.00886686
0.0091213
0.00934708
0.00954555
0.00971815
0.00986639
0.00999192
0.0100964
0.0101817
0.0102498
0.0103024
0.0103418
0.0103699
0.010389
0.0104012
0.0104088
0.0104137
0.0104184
0.0104248
0.0104354
0.0104522
0.0104774
0.0105125
0.0105591
0.0106181
0.0106903
0.0107761
0.0108754
0.0109875
8.90545e-05
0.000829579
0.00167995
0.00246914
0.0031988
0.00387764
0.00451169
0.00510467
0.00565878
0.00617544
0.00665566
0.00710031
0.00751026
0.00788646
0.00822995
0.00854187
0.00882343
0.00907592
0.00930069
0.00949911
0.00967263
0.00982272
0.00995091
0.0100588
0.010148
0.0102202
0.0102772
0.0103208
0.0103529
0.0103755
0.0103903
0.0103995
0.0104049
0.0104086
0.0104124
0.0104183
0.0104283
0.0104443
0.0104679
0.0105005
0.0105432
0.0105968
0.010662
0.0107387
0.0108267
8.96359e-05
0.00083389
0.0016858
0.00247577
0.00320592
0.00388482
0.00451825
0.00510972
0.0056613
0.0061744
0.00665013
0.00708956
0.0074938
0.00786409
0.00820176
0.00850824
0.008785
0.00903351
0.00925528
0.00945179
0.00962451
0.00977488
0.00990436
0.0100144
0.0101065
0.0101822
0.0102431
0.0102906
0.0103266
0.0103526
0.0103705
0.0103819
0.0103885
0.0103923
0.0103948
0.0103977
0.0104028
0.0104117
0.0104259
0.0104469
0.0104757
0.0105132
0.0105598
0.0106159
0.0106813
9.039e-05
0.000840657
0.00169758
0.00249187
0.00322572
0.00390736
0.00454222
0.00513348
0.00568311
0.00619255
0.00666307
0.00709602
0.00749289
0.00785529
0.00818496
0.00848369
0.00875326
0.00899545
0.00921194
0.00940435
0.00957423
0.00972303
0.00985215
0.00996294
0.0100567
0.0101349
0.0101988
0.0102497
0.0102892
0.0103186
0.0103395
0.0103533
0.0103617
0.0103662
0.0103683
0.0103694
0.0103711
0.0103748
0.0103817
0.0103933
0.0104105
0.010434
0.0104645
0.0105022
0.010547
9.13786e-05
0.000850628
0.00171705
0.00252021
0.00326186
0.00394964
0.00458838
0.00518093
0.00572915
0.00623458
0.00669881
0.00712362
0.00751099
0.00786307
0.00818211
0.00847035
0.00873
0.00896315
0.00917175
0.0093576
0.00952232
0.00966741
0.00979423
0.00990404
0.00999804
0.0100774
0.0101432
0.0101968
0.0102391
0.0102716
0.0102953
0.0103118
0.0103221
0.0103278
0.01033
0.0103302
0.0103296
0.0103295
0.0103308
0.0103348
0.0103424
0.0103543
0.0103709
0.0103925
0.0104189
9.26901e-05
0.000864789
0.00174657
0.00256451
0.00331927
0.00401741
0.00466299
0.00525843
0.00580554
0.00630617
0.00676244
0.00717677
0.00755186
0.00789057
0.00819579
0.00847034
0.00871691
0.00893797
0.00913577
0.00931228
0.00946928
0.00960827
0.00973062
0.00983749
0.00992995
0.010009
0.0100756
0.0101307
0.0101751
0.01021
0.0102363
0.0102551
0.0102675
0.0102746
0.0102775
0.0102774
0.0102753
0.0102724
0.0102695
0.0102676
0.0102674
0.0102696
0.0102745
0.0102822
0.0102926
9.44469e-05
0.000884429
0.00178922
0.00262982
0.00340464
0.00411852
0.00477438
0.00537419
0.00591996
0.00641414
0.00685976
0.00726027
0.00761937
0.00794084
0.00822839
0.00848551
0.00871542
0.008921
0.0091048
0.00926901
0.00941549
0.00954582
0.00966131
0.00976308
0.00985207
0.00992911
0.00999496
0.0100503
0.0100959
0.0101325
0.0101609
0.0101818
0.0101961
0.0102048
0.0102087
0.0102087
0.0102059
0.0102011
0.0101952
0.0101887
0.0101825
0.0101768
0.010172
0.0101681
0.0101648
9.68157e-05
0.000911281
0.00184934
0.00272333
0.00352757
0.00426398
0.0049339
0.005539
0.00608195
0.0065665
0.00699721
0.00737907
0.00771719
0.00801655
0.0082818
0.00851718
0.00872646
0.00891291
0.00907935
0.00922813
0.00936121
0.00948019
0.00958634
0.0096807
0.00976411
0.00983723
0.00990065
0.00995488
0.0100004
0.0100377
0.0100674
0.01009
0.0101061
0.0101164
0.0101216
0.0101224
0.0101196
0.0101138
0.0101059
0.0100962
0.0100855
0.0100738
0.0100615
0.0100483
0.0100338
0.000100026
0.000947838
0.0019335
0.00285625
0.00370281
0.00447018
0.00515764
0.00576719
0.00630336
0.00677239
0.0071814
0.00753767
0.00784819
0.00811937
0.00835689
0.00856574
0.00875015
0.00891371
0.00905941
0.00918969
0.00930652
0.00941147
0.00950577
0.00959036
0.00966596
0.00973311
0.00979222
0.00984364
0.00988765
0.00992454
0.00995463
0.00997824
0.00999576
0.0100076
0.0100143
0.0100164
0.0100143
0.0100087
0.00999995
0.00998863
0.00997505
0.00995942
0.00994176
0.00992183
0.00989908
0.000104429
0.000998008
0.00205305
0.00304811
0.00395516
0.00476298
0.00546907
0.0060779
0.00659838
0.00704142
0.0074182
0.00773915
0.00801353
0.00824926
0.00845299
0.00863024
0.00878555
0.00892262
0.00904444
0.00915338
0.00925136
0.00933982
0.0094199
0.00949242
0.00955798
0.009617
0.00966977
0.00971647
0.00975725
0.00979221
0.00982147
0.00984517
0.00986348
0.00987663
0.00988488
0.00988854
0.00988794
0.00988345
0.00987539
0.00986407
0.00984971
0.00983239
0.00981205
0.00978836
0.00976069
0.000110688
0.00106883
0.00223122
0.00333786
0.00433033
0.0051855
0.00590301
0.00649587
0.00698252
0.00738183
0.00771073
0.00798339
0.00821126
0.00840346
0.00856716
0.00870801
0.00883045
0.00893798
0.00903335
0.0091187
0.00919571
0.00926564
0.00932945
0.00938783
0.00944124
0.00949
0.00953429
0.0095742
0.00960975
0.00964094
0.00966774
0.00969015
0.00970817
0.00972187
0.00973131
0.00973663
0.00973797
0.00973551
0.00972942
0.00971984
0.00970685
0.00969044
0.00967046
0.00964652
0.00961796
0.000120462
0.00117705
0.00252675
0.00381469
0.00491951
0.00581117
0.00650893
0.00704913
0.00746808
0.0077959
0.00805565
0.00826439
0.00843463
0.00857549
0.00869375
0.00879444
0.00888135
0.00895738
0.00902474
0.00908514
0.00913985
0.00918987
0.0092359
0.00927847
0.00931791
0.00935443
0.00938815
0.00941908
0.0094472
0.00947244
0.0094947
0.00951391
0.00952998
0.00954285
0.00955248
0.00955885
0.00956198
0.00956189
0.0095586
0.00955214
0.00954248
0.00952951
0.00951301
0.0094926
0.00946764
0.000139709
0.0013842
0.00313126
0.00471534
0.00591378
0.00675816
0.00734422
0.00775597
0.00805222
0.00827127
0.00843768
0.0085673
0.0086706
0.00875467
0.0088244
0.0088833
0.00893391
0.00897811
0.00901731
0.00905257
0.00908469
0.00911428
0.00914178
0.00916748
0.00919161
0.00921428
0.00923554
0.0092554
0.00927381
0.0092907
0.009306
0.00931958
0.00933138
0.00934128
0.0093492
0.00935508
0.00935884
0.00936045
0.00935983
0.00935695
0.00935169
0.00934394
0.00933347
0.00931996
0.0093029
0.00020762
0.00211433
0.00496988
0.0067733
0.00768579
0.00815785
0.00842318
0.00858596
0.00869357
0.00876907
0.00882455
0.00886687
0.00890015
0.00892699
0.00894915
0.00896783
0.00898388
0.00899792
0.00901043
0.00902175
0.00903214
0.00904179
0.00905086
0.00905943
0.00906757
0.00907534
0.00908273
0.00908975
0.00909637
0.00910258
0.00910832
0.00911356
0.00911826
0.00912236
0.00912581
0.00912858
0.00913061
0.00913187
0.00913232
0.0091319
0.00913055
0.00912821
0.00912475
0.00912004
0.00911385
)
;

boundaryField
{
    leftWall
    {
        type            nutkWallFunction;
        Cmu             0.09;
        kappa           0.41;
        E               9.8;
        value           nonuniform List<scalar> 
42
(
4.48635e-06
4.42463e-06
4.35574e-06
4.28053e-06
4.19989e-06
4.11476e-06
4.02613e-06
3.93501e-06
3.84242e-06
3.74939e-06
3.65697e-06
3.56618e-06
3.47805e-06
3.39358e-06
3.31371e-06
3.23937e-06
3.17142e-06
3.11067e-06
3.05787e-06
3.01368e-06
2.97872e-06
2.9535e-06
2.93848e-06
2.93403e-06
2.94051e-06
2.9583e-06
2.98795e-06
3.0303e-06
3.08685e-06
3.16008e-06
3.25409e-06
3.3753e-06
3.53339e-06
3.74226e-06
4.02114e-06
4.39601e-06
4.90225e-06
5.59317e-06
6.56911e-06
8.07928e-06
1.10053e-05
2.0905e-05
)
;
    }
    rightWall
    {
        type            nutkWallFunction;
        Cmu             0.09;
        kappa           0.41;
        E               9.8;
        value           nonuniform 0();
    }
    lowerWall
    {
        type            nutkWallFunction;
        Cmu             0.09;
        kappa           0.41;
        E               9.8;
        value           nonuniform 0();
    }
    atmosphere
    {
        type            calculated;
        value           uniform 0.009;
    }
    defaultFaces
    {
        type            empty;
    }
    procBoundary2to0
    {
        type            processor;
        value           nonuniform List<scalar> 
46
(
0.0105812
0.0107388
0.0108857
0.0110243
0.0111563
0.0112833
0.011406
0.0115241
0.0116366
0.0117412
0.0118349
0.0119135
0.0119727
0.0120084
0.012017
0.0119967
0.0119477
0.011873
0.0117782
0.0116712
0.0115617
0.0114604
0.0113777
0.011323
0.0113041
9.76638e-05
0.000930742
0.0019678
0.00295287
0.00385704
0.00467971
0.0054256
0.00610044
0.00670991
0.00725936
0.00775373
0.00819754
0.00859524
0.008951
0.00926885
0.00955266
0.00980621
0.0100331
0.010237
0.0104211
0.0104211
)
;
    }
    procBoundary2to3
    {
        type            processor;
        value           nonuniform List<scalar> 
43
(
0.0114128
0.0115233
0.0116525
0.011795
0.0119459
0.0121018
0.0122596
0.0124175
0.0125737
0.0127264
0.0128739
0.0130133
0.0131413
0.0132532
0.013344
0.0134077
0.0134387
0.013432
0.0133838
0.0132924
0.0131587
0.0129857
0.0127791
0.0125466
0.0122971
0.0120404
0.0117859
0.0115425
0.0113169
0.0111117
0.0109254
0.0107556
0.0105985
0.0104496
0.0103049
0.0101613
0.0100172
0.00987254
0.009728
0.00958372
0.00943715
0.00928154
0.00910586
)
;
    }
}


// ************************************************************************* //
