/*--------------------------------*- C++ -*----------------------------------*\
| =========                 |                                                 |
| \\      /  F ield         | OpenFOAM: The Open Source CFD Toolbox           |
|  \\    /   O peration     | Version:  5.0                                   |
|   \\  /    A nd           | Web:      www.OpenFOAM.org                      |
|    \\/     M anipulation  |                                                 |
\*---------------------------------------------------------------------------*/
FoamFile
{
    version     2.0;
    format      ascii;
    class       volScalarField;
    location    "0.75";
    object      p_rgh;
}
// * * * * * * * * * * * * * * * * * * * * * * * * * * * * * * * * * * * * * //

dimensions      [1 -1 -2 0 0 0 0];

internalField   nonuniform List<scalar> 
1915
(
0.123627
0.120526
0.117489
0.114468
0.11141
0.108232
0.104803
0.100972
0.0966013
0.091594
0.0859019
0.0795153
0.0724461
0.0647036
0.0562759
0.0471246
0.0371956
0.0264251
0.0147372
0.00204578
-0.0117413
-0.0267248
-0.0430045
-0.0607194
-0.080103
0.156734
0.156144
0.15538
0.154516
0.153557
0.152475
0.151251
0.149874
0.148331
0.146615
0.144718
0.142637
0.14037
0.137915
0.135275
0.132455
0.129466
0.126323
0.12306
0.119745
0.11645
0.11321
0.110008
0.106834
0.103663
0.100425
0.0970062
0.0932547
0.0890098
0.0841357
0.078545
0.0722035
0.0651184
0.0573135
0.0488069
0.0395952
0.029654
0.0189419
0.00740409
-0.00502438
-0.0184157
-0.0328522
-0.0484235
-0.0652731
-0.0837044
0.150648
0.150017
0.149195
0.148272
0.147261
0.146134
0.144873
0.143465
0.141899
0.140166
0.138258
0.136171
0.133901
0.131446
0.128805
0.125981
0.122983
0.119826
0.116542
0.113177
0.109787
0.106393
0.103007
0.0996429
0.0962884
0.0928965
0.0893786
0.085608
0.0814336
0.0767084
0.0713151
0.0651811
0.0582797
0.0506171
0.0422156
0.0330954
0.0232652
0.0127168
0.00142525
-0.0106493
-0.0235612
-0.0373821
-0.052201
-0.0681718
-0.08562
0.144708
0.144046
0.14318
0.14221
0.141158
0.139996
0.138706
0.137276
0.135694
0.133951
0.13204
0.129956
0.127694
0.12525
0.122623
0.119814
0.116827
0.113677
0.110384
0.106982
0.103504
0.0999776
0.0964299
0.0928804
0.0893318
0.0857579
0.0820974
0.0782541
0.0741003
0.0694955
0.064309
0.0584387
0.0518224
0.0444375
0.0362926
0.0274137
0.0178298
0.00756112
-0.00338753
-0.0150297
-0.0274008
-0.0405613
-0.0545972
-0.0696683
-0.0861089
0.138915
0.138232
0.137333
0.136328
0.135244
0.134055
0.132745
0.131299
0.129708
0.127963
0.126056
0.123982
0.121734
0.11931
0.116706
0.113921
0.110957
0.107823
0.104533
0.101108
0.0975717
0.0939521
0.0902766
0.0865687
0.0828406
0.0790842
0.0752624
0.071308
0.0671226
0.0625851
0.0575686
0.0519582
0.0456668
0.0386432
0.0308724
0.022369
0.0131648
0.00329485
-0.00721328
-0.018349
-0.0301276
-0.0425953
-0.0558317
-0.0699949
-0.0854043
0.133267
0.132572
0.131651
0.130621
0.129514
0.128307
0.126983
0.125529
0.123936
0.122194
0.120298
0.118239
0.116014
0.113616
0.111043
0.10829
0.10536
0.102254
0.0989817
0.0955566
0.0919957
0.0883213
0.0845575
0.0807277
0.0768493
0.0729267
0.0689428
0.0648555
0.0605963
0.0560708
0.0511691
0.04578
0.0398059
0.0331753
0.025849
0.0178211
0.00911183
-0.000243727
-0.0102088
-0.0207571
-0.0318858
-0.0436263
-0.0560495
-0.0693044
-0.0836776
0.127762
0.127062
0.126129
0.125084
0.123963
0.122745
0.121414
0.119959
0.11837
0.116639
0.114759
0.112723
0.110525
0.108161
0.105626
0.102915
0.100028
0.0969642
0.0937281
0.090327
0.0867723
0.08308
0.0792693
0.0753612
0.0713736
0.0673182
0.0631919
0.0589731
0.0546192
0.0500643
0.045223
0.04
0.0343017
0.028049
0.0211864
0.0136877
0.00555425
-0.00319116
-0.0125156
-0.0223889
-0.0327992
-0.0437661
-0.0553516
-0.0676929
-0.0810449
0.122396
0.121698
0.120762
0.119711
0.118584
0.117364
0.116034
0.114584
0.113006
0.111291
0.109433
0.107424
0.105261
0.102937
0.100447
0.0977874
0.0949543
0.0919462
0.0887634
0.0854088
0.0818889
0.0782139
0.074398
0.0704579
0.0664102
0.0622681
0.0580379
0.0537119
0.0492681
0.044666
0.0398469
0.0347379
0.0292605
0.0233406
0.0169181
0.00995309
0.00242976
-0.00564685
-0.0142574
-0.0233788
-0.0330005
-0.043138
-0.0538479
-0.0652582
-0.0776096
0.117169
0.116478
0.115546
0.114498
0.113373
0.112157
0.110835
0.109397
0.107835
0.106142
0.104311
0.102337
0.100213
0.0979359
0.0954992
0.0928984
0.0901296
0.0871892
0.0840752
0.0807871
0.0773276
0.0737026
0.0699211
0.0659953
0.0619389
0.0577638
0.05348
0.0490895
0.0445846
0.0399447
0.0351346
0.0301056
0.0248001
0.0191586
0.0131266
0.0066608
-0.000265351
-0.0076623
-0.0155271
-0.023851
-0.032633
-0.0418931
-0.0516874
-0.0621411
-0.0735
0.112077
0.111398
0.110478
0.10944
0.108325
0.10712
0.105811
0.104391
0.102851
0.101185
0.0993874
0.0974522
0.0953748
0.0931501
0.090773
0.0882389
0.085543
0.0826811
0.0796493
0.0764453
0.0730687
0.0695222
0.0658109
0.0619423
0.0579265
0.0537733
0.0494927
0.0450916
0.0405719
0.0359263
0.0311386
0.0261814
0.0210186
0.0156096
0.00991292
0.003891
-0.00248531
-0.00923557
-0.0163701
-0.0238955
-0.0318244
-0.0401866
-0.0490432
-0.0585221
-0.0688807
0.107119
0.106456
0.105554
0.104532
0.103433
0.102245
0.100956
0.099559
0.0980465
0.0964132
0.0946537
0.0927633
0.0907373
0.0885709
0.0862596
0.0837986
0.0811834
0.0784091
0.0754709
0.0723656
0.069091
0.0656472
0.0620366
0.0582629
0.0543319
0.0502516
0.0460303
0.0416768
0.0371978
0.0325951
0.0278647
0.022996
0.0179718
0.0127698
0.0073647
0.00172976
-0.00415934
-0.0103239
-0.0167816
-0.0235504
-0.030656
-0.0381398
-0.0460706
-0.0545808
-0.0639294
0.102294
0.101649
0.100769
0.0997693
0.0986919
0.0975268
0.0962632
0.0948941
0.0934143
0.0918186
0.0901026
0.088262
0.0862924
0.0841896
0.0819493
0.0795672
0.0770391
0.0743599
0.0715249
0.0685303
0.0653732
0.062052
0.0585665
0.0549182
0.0511096
0.0471463
0.0430354
0.0387855
0.0344047
0.0299001
0.0252753
0.0205307
0.0156633
0.0106664
0.00552931
0.000238145
-0.0052224
-0.0108696
-0.0167224
-0.0228051
-0.0291519
-0.0358138
-0.0428678
-0.0504472
-0.0587945
0.0975986
0.0969746
0.0961215
0.0951479
0.0940969
0.0929595
0.0917257
0.0903897
0.0889474
0.0873943
0.0857267
0.0839404
0.0820317
0.0799968
0.0778322
0.0755341
0.0730986
0.070521
0.0677969
0.0649225
0.0618947
0.0587109
0.0553694
0.05187
0.0482135
0.0444037
0.040446
0.0363485
0.0321191
0.0277668
0.0232995
0.0187245
0.0140476
0.00927295
0.00440185
-0.000567859
-0.00564177
-0.0108303
-0.0161494
-0.0216244
-0.0272934
-0.0332129
-0.039465
-0.0461782
-0.0535606
0.0930319
0.0924301
0.0916059
0.0906627
0.0896423
0.0885368
0.0873374
0.0860392
0.0846391
0.0831331
0.0815179
0.07979
0.0779462
0.0759834
0.0738988
0.0716892
0.0693509
0.06688
0.0642727
0.0615256
0.0586355
0.0555997
0.0524158
0.0490826
0.0456002
0.0419717
0.0382009
0.0342947
0.0302608
0.0261083
0.021847
0.0174874
0.0130406
0.00851732
0.00392686
-0.000724059
-0.00543267
-0.0102023
-0.0150443
-0.0199815
-0.0250518
-0.0303125
-0.0358466
-0.041772
-0.0482526
0.0885911
0.0880122
0.0872189
0.0863091
0.0853228
0.0842532
0.0830922
0.0818362
0.0804821
0.079027
0.0774679
0.0758021
0.0740269
0.0721401
0.0701393
0.068022
0.065785
0.0634249
0.0609387
0.0583235
0.0555768
0.0526957
0.0496783
0.0465232
0.0432304
0.0398023
0.0362423
0.0325561
0.0287505
0.0248345
0.0208186
0.0167148
0.012536
0.0082963
0.0040096
-0.000311816
-0.00465935
-0.00903069
-0.0134325
-0.017884
-0.0224198
-0.0270946
-0.0319885
-0.037205
-0.0428639
0.0842739
0.083718
0.082957
0.0820827
0.0811338
0.0801032
0.0789841
0.0777735
0.0764688
0.075068
0.0735683
0.071968
0.070265
0.0684576
0.066544
0.0645221
0.0623893
0.0601428
0.0577804
0.0553001
0.0526999
0.0499778
0.0471323
0.0441623
0.0410685
0.0378525
0.0345179
0.0310697
0.0275144
0.0238603
0.0201179
0.0162998
0.0124194
0.00849164
0.0045321
0.000555906
-0.00342501
-0.0074047
-0.0113861
-0.0153843
-0.0194301
-0.0235736
-0.0278894
-0.0324663
-0.0373862
0.0800775
0.0795446
0.0788168
0.0779798
0.07707
0.0760811
0.0750067
0.0738444
0.0725922
0.0712483
0.0698113
0.0682794
0.0666515
0.0649264
0.0631026
0.0611783
0.0591515
0.0570204
0.0547834
0.0524396
0.0499877
0.0474264
0.0447551
0.0419733
0.0390822
0.0360838
0.0329816
0.0297804
0.0264868
0.0231089
0.0196568
0.0161429
0.0125803
0.00898377
0.00536888
0.0017515
-0.00185502
-0.00544277
-0.00901224
-0.0125753
-0.0161587
-0.019808
-0.0235909
-0.0275822
-0.0318363
0.0759996
0.0754895
0.0747949
0.0739961
0.0731269
0.0721815
0.071154
0.0700424
0.0688452
0.0675611
0.0661892
0.0647282
0.0631778
0.0615368
0.0598043
0.0579789
0.0560593
0.0540445
0.0519338
0.0497271
0.0474237
0.0450232
0.0425258
0.0399318
0.0372431
0.0344622
0.031593
0.0286408
0.025612
0.0225146
0.0193586
0.0161556
0.0129187
0.0096619
0.00639995
0.00314829
-7.96249e-05
-0.00327524
-0.0064377
-0.00957666
-0.0127156
-0.0158952
-0.0191763
-0.0226223
-0.0262708
0.0720373
0.0715492
0.0708875
0.0701272
0.0692996
0.068399
0.0674204
0.0663616
0.0652215
0.0639994
0.0626945
0.0613063
0.0598347
0.058279
0.0566387
0.0549129
0.053101
0.0512028
0.0492185
0.0471483
0.0449922
0.0427506
0.0404244
0.0380151
0.0355253
0.0329582
0.0303182
0.0276108
0.0248428
0.0220222
0.0191588
0.0162636
0.0133496
0.0104303
0.00751946
0.00463138
0.00177888
-0.00102961
-0.00379266
-0.00651839
-0.0092275
-0.0119562
-0.0147583
-0.0176892
-0.0207797
0.068187
0.0677201
0.0670909
0.0663689
0.0655835
0.064729
0.0638006
0.0627962
0.061715
0.0605564
0.0593199
0.0580056
0.0566136
0.0551438
0.0535961
0.0519701
0.0502659
0.0484838
0.0466246
0.044689
0.0426776
0.0405916
0.0384325
0.036203
0.0339063
0.0315464
0.0291279
0.0266569
0.0241403
0.0215862
0.0190047
0.0164066
0.0138043
0.011211
0.00863978
0.00610373
0.00361452
0.00118018
-0.00119749
-0.00352534
-0.00582147
-0.00811789
-0.0104624
-0.0129045
-0.0154737
0.0644446
0.0639981
0.0634007
0.0627171
0.0619743
0.0611668
0.0602895
0.0593406
0.0583192
0.0572252
0.056058
0.0548183
0.0535064
0.0521228
0.0506675
0.0491408
0.0475434
0.045876
0.0441397
0.0423357
0.0404654
0.0385304
0.0365332
0.0344771
0.0323661
0.0302043
0.0279972
0.0257508
0.0234723
0.0211705
0.0188554
0.0165379
0.0142297
0.0119436
0.00969247
0.00748833
0.0053418
0.00326054
0.00124674
-0.000705149
-0.00261085
-0.00449865
-0.00641101
-0.00839259
-0.0104726
0.0608061
0.0603794
0.0598132
0.0591678
0.0584678
0.0577076
0.0568819
0.0559889
0.055028
0.0539988
0.0529016
0.0517369
0.0505054
0.0492076
0.0478441
0.0464155
0.0449231
0.0433679
0.0417515
0.0400755
0.0383418
0.0365527
0.0347112
0.032821
0.0308866
0.0289126
0.0269046
0.0248692
0.0228137
0.0207473
0.01868
0.0166227
0.0145867
0.012584
0.0106273
0.00872834
0.00689716
0.0051409
0.00346224
0.00185693
0.000311496
-0.00119891
-0.00271156
-0.0042661
-0.00589148
0.0572676
0.0568602
0.0563246
0.0557172
0.0550598
0.0543466
0.0535724
0.0527354
0.0518349
0.0508708
0.0498435
0.0487538
0.0476022
0.0463896
0.0451165
0.0437842
0.0423944
0.0409485
0.0394486
0.0378964
0.0362943
0.0346452
0.0329523
0.0312197
0.029452
0.0276544
0.0258328
0.0239939
0.0221452
0.0202959
0.0184561
0.0166364
0.0148478
0.0131019
0.0114107
0.00978594
0.00823765
0.00677279
0.00539427
0.00409918
0.0028764
0.00170473
0.000552228
-0.000615879
-0.0018275
0.053825
0.0534365
0.0529313
0.0523615
0.0517462
0.0510793
0.050356
0.0495743
0.0487338
0.0478344
0.0468767
0.0458612
0.0447885
0.0436595
0.0424751
0.0412369
0.039947
0.0386073
0.03722
0.0357871
0.0343113
0.0327956
0.0312436
0.0296596
0.0280487
0.0264161
0.0247679
0.0231107
0.0214522
0.0198014
0.0181681
0.0165628
0.014996
0.0134788
0.0120228
0.0106392
0.00933825
0.00812719
0.00700948
0.00598342
0.00504042
0.00416315
0.00332461
0.00249449
0.00164733
0.0504742
0.0501048
0.0496299
0.0490969
0.0485229
0.0479014
0.0472278
0.0465003
0.0457188
0.0448831
0.0439937
0.043051
0.0420555
0.0410082
0.0399103
0.0387639
0.0375711
0.0363342
0.0350554
0.0337369
0.0323815
0.0309925
0.0295735
0.0281294
0.0266652
0.0251863
0.0236986
0.0222087
0.020724
0.0192533
0.0178062
0.0163923
0.015022
0.0137057
0.0124543
0.0112788
0.0101889
0.00919268
0.00829457
0.00749438
0.00678574
0.00615471
0.00557858
0.0050316
0.00449215
0.0472113
0.0468614
0.0464167
0.04592
0.0453862
0.0448088
0.0441834
0.0435086
0.0427842
0.0420103
0.0411872
0.0403151
0.0393945
0.0384267
0.0374131
0.0363559
0.0352573
0.0341196
0.0329449
0.0317357
0.0304948
0.0292257
0.0279322
0.0266192
0.0252919
0.0239556
0.0226159
0.0212793
0.0199528
0.0186448
0.0173642
0.0161201
0.0149221
0.0137801
0.0127043
0.0117052
0.0107922
0.00997355
0.00925469
0.0086371
0.00811658
0.00768192
0.0073143
0.00699291
0.00670021
0.0440323
0.0437029
0.0432885
0.0428274
0.0423325
0.0417975
0.0412182
0.0405938
0.0399242
0.0392095
0.03845
0.0376459
0.0367979
0.0359071
0.0349752
0.0340044
0.0329966
0.0319541
0.030879
0.0297739
0.0286417
0.0274858
0.0263103
0.02512
0.0239202
0.0227158
0.0215122
0.0203156
0.0191327
0.0179711
0.016839
0.0157447
0.014697
0.0137052
0.0127789
0.0119276
0.0111605
0.0104855
0.00990876
0.00943292
0.0090556
0.00876853
0.00855689
0.00840427
0.00829694
0.0409336
0.0406259
0.0402419
0.0398156
0.0393578
0.038863
0.0383274
0.0377506
0.0371328
0.0364744
0.0357755
0.0350366
0.0342584
0.0334419
0.0325887
0.0317008
0.0307801
0.0298285
0.0288483
0.0278421
0.0268129
0.0257639
0.0246993
0.0236237
0.0225422
0.0214596
0.020381
0.0193122
0.0182594
0.0172294
0.0162294
0.0152671
0.0143504
0.013488
0.0126883
0.0119602
0.0113119
0.0107512
0.0102841
0.00991405
0.00964021
0.00945671
0.00935239
0.0093147
0.00933412
0.0379111
0.0376266
0.0372733
0.0368804
0.0364576
0.0360002
0.0355053
0.0349731
0.0344039
0.0337985
0.0331573
0.0324805
0.031769
0.0310237
0.0302458
0.0294369
0.0285991
0.0277341
0.0268442
0.0259319
0.025
0.0240517
0.023091
0.0221224
0.0211507
0.0201805
0.0192166
0.0182644
0.0173295
0.0164179
0.0155358
0.01469
0.0138878
0.0131367
0.0124445
0.0118189
0.0112672
0.0107965
0.0104125
0.010119
0.00991585
0.0097994
0.00976127
0.0097924
0.00988677
0.0349609
0.0347013
0.0343783
0.0340169
0.0336264
0.0332033
0.032746
0.032255
0.0317313
0.0311756
0.0305886
0.0299707
0.0293225
0.0286447
0.0279383
0.0272046
0.0264454
0.0256627
0.0248585
0.0240351
0.023195
0.0223415
0.0214781
0.0206091
0.0197392
0.0188727
0.0180142
0.0171684
0.0163405
0.0155354
0.0147587
0.0140161
0.0133142
0.0126596
0.0120592
0.0115194
0.0110468
0.0106473
0.0103263
0.010087
0.00993015
0.00985324
0.00985037
0.00991565
0.0100451
0.032079
0.0318456
0.0315521
0.0312197
0.0308583
0.030466
0.0300428
0.0295896
0.0291079
0.0285987
0.0280625
0.0274999
0.0269113
0.0262972
0.0256585
0.0249962
0.0243118
0.0236071
0.022884
0.0221445
0.0213909
0.0206262
0.0198537
0.0190777
0.0183021
0.0175313
0.0167695
0.0160209
0.0152899
0.0145809
0.0138985
0.0132478
0.0126345
0.0120644
0.0115433
0.0110766
0.0106696
0.0103275
0.0100548
0.00985452
0.00972749
0.00967238
0.00968529
0.00976224
0.00990141
0.0292621
0.0290552
0.0287894
0.0284825
0.0281461
0.0277809
0.0273881
0.0269692
0.0265261
0.0260599
0.0255711
0.0250604
0.0245279
0.0239741
0.0233996
0.0228051
0.0221917
0.0215608
0.0209143
0.0202538
0.0195814
0.0188998
0.0182124
0.0175227
0.0168346
0.016152
0.0154789
0.0148189
0.014176
0.0135537
0.0129561
0.0123877
0.0118533
0.0113579
0.0109061
0.0105024
0.0101512
0.00985687
0.009623
0.00945217
0.00934548
0.00930246
0.00932054
0.00939761
0.00953455
0.0265065
0.0263247
0.0260829
0.0257966
0.0254808
0.0251388
0.0247727
0.0243848
0.0239772
0.0235508
0.0231065
0.0226447
0.0221654
0.021669
0.0211556
0.0206254
0.0200791
0.019518
0.0189435
0.0183573
0.0177611
0.0171574
0.0165492
0.0159397
0.0153326
0.0147313
0.0141394
0.0135604
0.0129974
0.0124536
0.0119326
0.0114383
0.0109746
0.0105456
0.0101551
0.00980673
0.00950417
0.00925093
0.00904993
0.00890334
0.00881252
0.00877761
0.00879716
0.00887133
0.00900254
0.0238079
0.0236461
0.023422
0.0231505
0.0228505
0.0225278
0.0221853
0.0218258
0.0214511
0.0210624
0.0206605
0.0202456
0.0198175
0.019376
0.0189206
0.0184512
0.0179683
0.017473
0.0169664
0.0164499
0.0159251
0.0153942
0.0148598
0.0143249
0.0137926
0.0132662
0.012749
0.0122438
0.0117536
0.011281
0.0108293
0.0104017
0.0100015
0.00963194
0.0092962
0.00899722
0.00873791
0.00852104
0.00834908
0.00822413
0.00814777
0.0081207
0.00814291
0.00821572
0.00834316
0.0211612
0.0210081
0.0207922
0.020529
0.0202404
0.019934
0.0196131
0.0192805
0.0189376
0.0185858
0.0182255
0.0178564
0.0174778
0.0170888
0.0166885
0.0162767
0.0158538
0.0154207
0.0149781
0.0145271
0.0140692
0.0136061
0.0131404
0.0126747
0.0122118
0.0117547
0.011306
0.0108684
0.0104445
0.0100367
0.00964775
0.00928029
0.00893717
0.00862112
0.0083346
0.00807991
0.00785929
0.00767508
0.0075296
0.00742497
0.007363
0.00734519
0.00737253
0.00744729
0.0075758
0.0185594
0.0183969
0.0181769
0.0179146
0.0176335
0.0173417
0.0170421
0.0167368
0.016427
0.0161129
0.0157945
0.0154707
0.0151402
0.0148015
0.0144539
0.014097
0.0137311
0.0133567
0.0129743
0.0125847
0.0121892
0.0117897
0.0113882
0.010987
0.0105885
0.0101953
0.00980975
0.00943424
0.00907098
0.00872215
0.00839
0.00807692
0.00778532
0.00751742
0.00727509
0.00706006
0.00687419
0.00671959
0.00659842
0.00651278
0.00646492
0.00645714
0.00649108
0.0065709
0.00670393
0.0159895
0.0157936
0.0155536
0.0152846
0.0150093
0.0147333
0.014458
0.0141837
0.0139102
0.0136365
0.0133612
0.0130827
0.0127994
0.0125096
0.0122126
0.0119083
0.0115965
0.0112774
0.0109515
0.0106195
0.0102828
0.00994277
0.00960123
0.00926012
0.00892156
0.00858773
0.00826075
0.00794256
0.00763504
0.00734005
0.00705965
0.00679598
0.00655108
0.00632658
0.00612387
0.0059443
0.00578951
0.00566136
0.00556181
0.00549315
0.0054581
0.00545931
0.00549971
0.00558415
0.00572048
0.0134326
0.0131691
0.0128851
0.0126048
0.0123408
0.0120895
0.0118473
0.0116118
0.0113805
0.0111511
0.0109211
0.0106887
0.010452
0.01021
0.00996197
0.00970763
0.00944689
0.00917989
0.00890717
0.00862953
0.008348
0.00806381
0.00777843
0.00749363
0.00721129
0.0069332
0.00666097
0.00639613
0.00614022
0.00589501
0.00566237
0.0054441
0.0052417
0.00505636
0.00488916
0.00474123
0.00461388
0.00450866
0.00442753
0.00437303
0.00434801
0.00435548
0.00439912
0.00448377
0.00461846
0.010901
0.0105021
0.0101298
0.00983257
0.0095957
0.00938964
0.00919842
0.0090148
0.0088345
0.00865446
0.00847242
0.00828672
0.00809623
0.00790033
0.0076988
0.00749164
0.00727898
0.00706114
0.00683864
0.00661217
0.00638258
0.00615101
0.00591887
0.00568767
0.00545882
0.00523356
0.00501302
0.00479843
0.0045912
0.00439287
0.00420491
0.00402869
0.00386532
0.00371575
0.00358076
0.00346109
0.00335767
0.00327192
0.00320587
0.00316195
0.00314291
0.00315223
0.00319326
0.00327162
0.00339581
0.00845738
0.00781001
0.00729317
0.00695999
0.0067655
0.00663121
0.00651365
0.00639702
0.00627621
0.00614942
0.00601605
0.00587595
0.00572933
0.00557667
0.00541857
0.00525557
0.00508809
0.00491654
0.00474139
0.00456334
0.0043833
0.00420235
0.0040216
0.00384203
0.00366452
0.00348989
0.00331903
0.00315288
0.0029925
0.00283898
0.00269342
0.0025569
0.00243028
0.00231413
0.00220877
0.00211455
0.00203221
0.00196305
0.00190878
0.00187143
0.00185372
0.00185874
0.00189017
0.00195327
0.0020544
0.0057246
0.00476993
0.0041087
0.00390115
0.00388629
0.00388391
0.00385896
0.00381332
0.00374946
0.00367007
0.00357825
0.00347668
0.0033675
0.0032525
0.00313306
0.00301008
0.00288409
0.00275553
0.00262496
0.00249314
0.00236089
0.0022289
0.00209778
0.00196804
0.00184026
0.00171496
0.00159261
0.00147367
0.00135874
0.00124863
0.00114424
0.00104627
0.000955076
0.000870688
0.000793093
0.000722474
0.000659328
0.000604437
0.000558892
0.000524424
0.000503456
0.00049837
0.000512486
0.000549418
0.000613667
0.000666631
-0.000644952
-0.00142702
-0.000106847
0.000864401
0.00124063
0.00135555
0.00137628
0.00135024
0.00129637
0.00122639
0.00114725
0.00106292
0.000975775
0.00088718
0.000797832
0.000708116
0.000618412
0.000529193
0.000440929
0.000353962
0.000268506
0.000184756
0.000102953
2.32945e-05
-5.41811e-05
-0.000129509
-0.000202574
-0.000272998
-0.000340278
-0.000404069
-0.000464309
-0.000521134
-0.000574762
-0.000625413
-0.000673274
-0.000718425
-0.000760654
-0.000799254
-0.000833084
-0.000860952
-0.000880878
-0.000891467
-0.000890554
-0.000875344
0.00231901
-0.00951057
-0.0104733
-0.0052598
-0.00282473
-0.00196708
-0.00162031
-0.00147385
-0.00143248
-0.00144566
-0.00148458
-0.00153437
-0.00158766
-0.00164078
-0.00169196
-0.00174047
-0.001786
-0.0018284
-0.00186763
-0.00190378
-0.00193704
-0.00196761
-0.00199567
-0.00202141
-0.00204513
-0.00206721
-0.00208799
-0.00210764
-0.00212631
-0.00214415
-0.00216144
-0.00217855
-0.00219588
-0.00221392
-0.00223323
-0.00225438
-0.00227775
-0.00230351
-0.00233168
-0.00236223
-0.00239494
-0.00242928
-0.00246441
-0.00249985
-0.00253405
)
;

boundaryField
{
    leftWall
    {
        type            fixedFluxPressure;
        gradient        uniform 0;
        value           nonuniform List<scalar> 
42
(
0.156734
0.150648
0.144708
0.138915
0.133267
0.127762
0.122396
0.117169
0.112077
0.107119
0.102294
0.0975986
0.0930319
0.0885911
0.0842739
0.0800775
0.0759996
0.0720373
0.068187
0.0644446
0.0608061
0.0572676
0.053825
0.0504742
0.0472113
0.0440323
0.0409336
0.0379111
0.0349609
0.032079
0.0292621
0.0265065
0.0238079
0.0211612
0.0185594
0.0159895
0.0134326
0.010901
0.00845738
0.0057246
0.000666631
0.00231901
)
;
    }
    rightWall
    {
        type            fixedFluxPressure;
        gradient        nonuniform 0();
        value           nonuniform 0();
    }
    lowerWall
    {
        type            fixedFluxPressure;
        gradient        nonuniform 0();
        value           nonuniform 0();
    }
    atmosphere
    {
        type            totalPressure;
        rho             rho;
        psi             none;
        gamma           1;
        p0              uniform 0;
        value           nonuniform List<scalar> 
45
(
-9.87134e-06
-0.00192394
-0.00255469
-0.00272201
-0.00281729
-0.00288867
-0.00295114
-0.00300931
-0.00306393
-0.0031145
-0.00316037
-0.00320099
-0.00323609
-0.00326558
-0.00328953
-0.00330812
-0.00332165
-0.00333047
-0.00333495
-0.00333553
-0.00333263
-0.00332672
-0.00331824
-0.00330765
-0.00329542
-0.00328202
-0.0032679
-0.00325355
-0.00323947
-0.00322614
-0.00321409
-0.00320386
-0.00319601
-0.00319112
-0.0031898
-0.00319264
-0.00320025
-0.00321319
-0.00323198
-0.00325704
-0.00328864
-0.0033268
-0.00337126
-0.00342131
-0.00347564
)
;
    }
    defaultFaces
    {
        type            empty;
    }
    procBoundary2to0
    {
        type            processor;
        value           nonuniform List<scalar> 
46
(
0.131413
0.128449
0.125526
0.122575
0.119507
0.116217
0.11259
0.108529
0.103969
0.0988782
0.0932492
0.0870725
0.0803136
0.0729076
0.0647772
0.0558492
0.0460556
0.0353264
0.0235835
0.0107339
-0.00333672
-0.0187626
-0.0356755
-0.0541946
-0.074464
0.162981
0.162442
0.161747
0.160953
0.160055
0.159025
0.157847
0.156508
0.154999
0.153309
0.151435
0.149372
0.14712
0.144682
0.142064
0.139276
0.136329
0.133239
0.130042
0.126815
0.126815
)
;
    }
    procBoundary2to3
    {
        type            processor;
        value           nonuniform List<scalar> 
43
(
-0.101414
-0.104075
-0.104948
-0.10432
-0.10245
-0.0995413
-0.0957594
-0.0912428
-0.0861089
-0.0804751
-0.0744734
-0.0682389
-0.0618879
-0.0555003
-0.0491162
-0.042753
-0.0364281
-0.0301788
-0.0240736
-0.0182067
-0.0126863
-0.0076234
-0.00311904
0.000747317
0.00392649
0.00640505
0.00820632
0.00938586
0.0100261
0.0102283
0.010098
0.0097287
0.00919031
0.0085271
0.00775966
0.00688964
0.00590789
0.00480361
0.00356875
0.00220009
0.00071375
-0.00083809
-0.00256296
)
;
    }
}


// ************************************************************************* //
