/*--------------------------------*- C++ -*----------------------------------*\
| =========                 |                                                 |
| \\      /  F ield         | OpenFOAM: The Open Source CFD Toolbox           |
|  \\    /   O peration     | Version:  5.0                                   |
|   \\  /    A nd           | Web:      www.OpenFOAM.org                      |
|    \\/     M anipulation  |                                                 |
\*---------------------------------------------------------------------------*/
FoamFile
{
    version     2.0;
    format      ascii;
    class       surfaceScalarField;
    location    "0.75";
    object      phi;
}
// * * * * * * * * * * * * * * * * * * * * * * * * * * * * * * * * * * * * * //

dimensions      [0 3 -1 0 0 0 0];

internalField   nonuniform List<scalar> 
3742
(
3.62503e-06
-3.72727e-06
4.12037e-06
-2.89715e-06
4.63885e-06
-2.01657e-06
5.17773e-06
-1.08277e-06
5.73393e-06
-9.2839e-08
6.30395e-06
9.56577e-07
6.88398e-06
2.06918e-06
7.46979e-06
3.24895e-06
8.05681e-06
4.5e-06
8.64029e-06
5.82648e-06
9.21529e-06
7.23242e-06
9.77671e-06
8.72167e-06
1.03194e-05
1.02978e-05
1.08381e-05
1.19641e-05
1.13278e-05
1.37234e-05
1.17831e-05
1.55782e-05
1.21986e-05
1.75305e-05
1.25689e-05
1.95818e-05
1.28878e-05
2.17326e-05
1.31484e-05
2.39824e-05
1.33426e-05
2.63288e-05
1.34599e-05
2.87672e-05
1.34871e-05
3.12896e-05
1.34069e-05
3.38848e-05
3.65369e-05
-1.51376e-07
-9.92689e-06
-2.72201e-07
-1.08031e-05
-3.62529e-07
-1.10287e-05
-4.2385e-07
-1.10796e-05
-4.56887e-07
-1.10422e-05
-4.61905e-07
-1.09424e-05
-4.38876e-07
-1.07904e-05
-3.8757e-07
-1.05913e-05
-3.07635e-07
-1.03478e-05
-1.98651e-07
-1.00616e-05
-6.01436e-08
-9.73369e-06
1.08379e-07
-9.36465e-06
3.07384e-07
-8.95488e-06
5.37274e-07
-8.5045e-06
7.9835e-07
-8.01339e-06
1.09079e-06
-7.48121e-06
1.41462e-06
-6.90733e-06
1.76962e-06
-6.29085e-06
2.15526e-06
-5.63048e-06
2.57085e-06
-4.92476e-06
3.01519e-06
-4.1716e-06
3.48685e-06
-3.36883e-06
3.9839e-06
-2.51362e-06
4.50401e-06
-1.60287e-06
5.04431e-06
-6.33135e-07
5.60147e-06
3.99402e-07
6.17181e-06
1.49883e-06
6.75119e-06
2.66958e-06
7.33501e-06
3.91619e-06
7.91831e-06
5.24318e-06
8.49578e-06
6.65495e-06
9.06184e-06
8.15561e-06
9.61066e-06
9.74902e-06
1.01362e-05
1.14386e-05
1.0632e-05
1.32276e-05
1.10915e-05
1.51187e-05
1.15075e-05
1.71144e-05
1.18726e-05
1.92166e-05
1.21785e-05
2.14268e-05
1.24158e-05
2.37451e-05
1.25739e-05
2.61707e-05
1.26403e-05
2.87007e-05
1.26001e-05
3.13298e-05
1.24355e-05
3.40495e-05
3.68476e-05
-1.68472e-07
-9.75841e-06
-3.10265e-07
-1.06613e-05
-4.23755e-07
-1.09152e-05
-5.09821e-07
-1.09935e-05
-5.68852e-07
-1.09832e-05
-6.00897e-07
-1.09103e-05
-6.0577e-07
-1.07855e-05
-5.83119e-07
-1.0614e-05
-5.32485e-07
-1.03985e-05
-4.53336e-07
-1.01408e-05
-3.45094e-07
-9.84193e-06
-2.07166e-07
-9.50259e-06
-3.89696e-08
-9.12309e-06
1.60026e-07
-8.7035e-06
3.90269e-07
-8.24364e-06
6.52091e-07
-7.74304e-06
9.45676e-07
-7.20093e-06
1.27101e-06
-6.6162e-06
1.6279e-06
-5.98737e-06
2.01573e-06
-5.31259e-06
2.4338e-06
-4.58967e-06
2.88092e-06
-3.81595e-06
3.35544e-06
-2.98816e-06
3.85532e-06
-2.10275e-06
4.37797e-06
-1.15578e-06
4.92029e-06
-1.42923e-07
5.47871e-06
9.40408e-07
6.04919e-06
2.09911e-06
6.62713e-06
3.33825e-06
7.20746e-06
4.66286e-06
7.78461e-06
6.07779e-06
8.35261e-06
7.58762e-06
8.90503e-06
9.1966e-06
9.43502e-06
1.09087e-05
9.93528e-06
1.27274e-05
1.0398e-05
1.4656e-05
1.08148e-05
1.66976e-05
1.11766e-05
1.88548e-05
1.14736e-05
2.11297e-05
1.16951e-05
2.35236e-05
1.1829e-05
2.60368e-05
1.18619e-05
2.86679e-05
1.17785e-05
3.14132e-05
1.15617e-05
3.42663e-05
3.72171e-05
-1.82039e-07
-9.57638e-06
-3.41433e-07
-1.05019e-05
-4.7495e-07
-1.07817e-05
-5.82862e-07
-1.08856e-05
-6.6522e-07
-1.09009e-05
-7.21843e-07
-1.08537e-05
-7.52375e-07
-1.0755e-05
-7.56334e-07
-1.061e-05
-7.33142e-07
-1.04217e-05
-6.82153e-07
-1.01918e-05
-6.02683e-07
-9.92141e-06
-4.94028e-07
-9.61126e-06
-3.55496e-07
-9.26164e-06
-1.86428e-07
-8.87259e-06
1.37636e-08
-8.44384e-06
2.45562e-07
-7.97484e-06
5.09316e-07
-7.46468e-06
8.05216e-07
-6.9121e-06
1.13327e-06
-6.31543e-06
1.49325e-06
-5.67257e-06
1.88465e-06
-4.98106e-06
2.30649e-06
-4.23779e-06
2.75748e-06
-3.43916e-06
3.23588e-06
-2.58115e-06
3.73939e-06
-1.6593e-06
4.26519e-06
-6.68719e-07
4.80986e-06
3.9574e-07
5.36948e-06
1.53948e-06
5.93956e-06
2.76817e-06
6.51499e-06
4.08742e-06
7.09009e-06
5.50269e-06
7.65857e-06
7.01914e-06
8.2136e-06
8.64158e-06
8.74776e-06
1.03745e-05
9.25306e-06
1.22221e-05
9.72092e-06
1.41882e-05
1.01421e-05
1.62764e-05
1.05068e-05
1.84901e-05
1.08043e-05
2.08322e-05
1.10233e-05
2.33046e-05
1.11515e-05
2.59087e-05
1.11756e-05
2.86438e-05
1.10814e-05
3.15074e-05
1.08535e-05
3.44942e-05
3.75946e-05
-1.92326e-07
-9.38406e-06
-3.66113e-07
-1.03282e-05
-5.16601e-07
-1.06312e-05
-6.43475e-07
-1.07588e-05
-7.46451e-07
-1.07979e-05
-8.25119e-07
-1.07751e-05
-8.7895e-07
-1.07012e-05
-9.07319e-07
-1.05816e-05
-9.09527e-07
-1.04195e-05
-8.84819e-07
-1.02165e-05
-8.32405e-07
-9.97384e-06
-7.51474e-07
-9.6922e-06
-6.41224e-07
-9.3719e-06
-5.00876e-07
-9.01294e-06
-3.2971e-07
-8.61501e-06
-1.27089e-07
-8.17745e-06
1.07506e-07
-7.69927e-06
3.74458e-07
-7.17906e-06
6.73992e-07
-6.61497e-06
1.00611e-06
-6.0047e-06
1.37051e-06
-5.34546e-06
1.76656e-06
-4.63384e-06
2.19328e-06
-3.86588e-06
2.64922e-06
-3.0371e-06
3.13244e-06
-2.14251e-06
3.64039e-06
-1.17667e-06
4.16992e-06
-1.33797e-07
4.71731e-06
9.92101e-07
5.2782e-06
2.20727e-06
5.84759e-06
3.51803e-06
6.41977e-06
4.93051e-06
6.98836e-06
6.45054e-06
7.54631e-06
8.08363e-06
8.08592e-06
9.83489e-06
8.59885e-06
1.17091e-05
9.07617e-06
1.37109e-05
9.50834e-06
1.58443e-05
9.88529e-06
1.81132e-05
1.01964e-05
2.05211e-05
1.04304e-05
2.30706e-05
1.05758e-05
2.57633e-05
1.06205e-05
2.85991e-05
1.05521e-05
3.15758e-05
1.03584e-05
3.46879e-05
3.79259e-05
-1.99621e-07
-9.18445e-06
-3.84776e-07
-1.0143e-05
-5.49302e-07
-1.04667e-05
-6.92315e-07
-1.06158e-05
-8.13213e-07
-1.0677e-05
-9.11362e-07
-1.06769e-05
-9.86058e-07
-1.06265e-05
-1.03654e-06
-1.05312e-05
-1.06197e-06
-1.0394e-05
-1.06151e-06
-1.0217e-05
-1.03426e-06
-1.00011e-05
-9.79301e-07
-9.74716e-06
-8.95737e-07
-9.45547e-06
-7.82677e-07
-9.12601e-06
-6.39277e-07
-8.75841e-06
-4.6476e-07
-8.35197e-06
-2.58439e-07
-7.90559e-06
-1.97511e-08
-7.41775e-06
2.51717e-07
-6.88644e-06
5.56183e-07
-6.30917e-06
8.93598e-07
-5.68288e-06
1.26364e-06
-5.00388e-06
1.66563e-06
-4.26787e-06
2.09846e-06
-3.46994e-06
2.56053e-06
-2.60458e-06
3.04966e-06
-1.6658e-06
3.56305e-06
-6.47192e-07
4.09723e-06
4.57918e-07
4.64812e-06
1.65638e-06
5.21091e-06
2.95524e-06
5.78005e-06
4.36135e-06
6.34927e-06
5.88132e-06
6.91154e-06
7.52135e-06
7.45917e-06
9.28726e-06
7.98385e-06
1.11845e-05
8.47671e-06
1.3218e-05
8.92841e-06
1.53926e-05
9.32923e-06
1.77124e-05
9.66917e-06
2.01812e-05
9.93807e-06
2.28017e-05
1.01257e-05
2.55756e-05
1.02222e-05
2.85027e-05
1.02177e-05
3.15803e-05
1.01034e-05
3.48023e-05
3.81581e-05
-2.04243e-07
-8.98021e-06
-3.97968e-07
-9.94929e-06
-5.73753e-07
-1.02909e-05
-7.30189e-07
-1.04593e-05
-8.66371e-07
-1.05408e-05
-9.81451e-07
-1.05618e-05
-1.07456e-06
-1.05334e-05
-1.14479e-06
-1.04609e-05
-1.19121e-06
-1.03476e-05
-1.21285e-06
-1.01953e-05
-1.20873e-06
-1.00052e-05
-1.17784e-06
-9.77806e-06
-1.1192e-06
-9.51413e-06
-1.03181e-06
-9.21341e-06
-9.14711e-07
-8.87551e-06
-7.67011e-07
-8.49968e-06
-5.87872e-07
-8.08474e-06
-3.7656e-07
-7.62907e-06
-1.32472e-07
-7.13053e-06
1.44821e-07
-6.58647e-06
4.55524e-07
-5.99359e-06
7.99594e-07
-5.34796e-06
1.17667e-06
-4.64495e-06
1.58601e-06
-3.87928e-06
2.02639e-06
-3.04497e-06
2.49605e-06
-2.13547e-06
2.99262e-06
-1.14375e-06
3.513e-06
-6.24712e-08
4.05347e-06
1.11591e-06
4.60958e-06
2.39911e-06
5.17614e-06
3.79479e-06
5.74716e-06
5.3103e-06
6.31592e-06
6.95259e-06
6.87505e-06
8.72813e-06
7.41659e-06
1.06429e-05
7.93215e-06
1.27024e-05
8.41304e-06
1.49117e-05
8.85042e-06
1.7275e-05
9.23548e-06
1.97961e-05
9.55964e-06
2.24776e-05
9.81475e-06
2.53205e-05
9.99332e-06
2.83241e-05
1.00888e-05
3.14847e-05
1.0096e-05
3.47951e-05
3.82428e-05
-2.06529e-07
-8.77369e-06
-4.06279e-07
-9.74953e-06
-5.90741e-07
-1.01064e-05
-7.58026e-07
-1.0292e-05
-9.06952e-07
-1.03919e-05
-1.03647e-06
-1.04323e-05
-1.14555e-06
-1.04243e-05
-1.23317e-06
-1.03733e-05
-1.29828e-06
-1.02825e-05
-1.33982e-06
-1.01538e-05
-1.35672e-06
-9.98833e-06
-1.3479e-06
-9.78688e-06
-1.31228e-06
-9.54975e-06
-1.24879e-06
-9.27691e-06
-1.15637e-06
-8.96793e-06
-1.03402e-06
-8.62204e-06
-8.80763e-07
-8.238e-06
-6.95722e-07
-7.81411e-06
-4.78111e-07
-7.34815e-06
-2.27289e-07
-6.83729e-06
5.72001e-08
-6.27808e-06
3.7559e-07
-5.66635e-06
7.27843e-07
-4.99721e-06
1.11358e-06
-4.26502e-06
1.53202e-06
-3.4634e-06
1.98184e-06
-2.5853e-06
2.46117e-06
-1.62308e-06
2.96745e-06
-5.68751e-07
3.4974e-06
5.85948e-07
4.04711e-06
1.84939e-06
4.61189e-06
3.23e-06
5.18628e-06
4.7359e-06
5.76414e-06
6.37473e-06
6.33867e-06
8.1536e-06
6.90263e-06
1.0079e-05
7.44844e-06
1.21566e-05
7.96845e-06
1.43917e-05
8.45509e-06
1.67884e-05
8.90116e-06
1.93501e-05
9.30005e-06
2.20787e-05
9.64599e-06
2.49746e-05
9.93434e-06
2.80357e-05
1.01619e-05
3.12572e-05
1.0327e-05
3.46299e-05
3.81397e-05
-2.06822e-07
-8.56686e-06
-4.10333e-07
-9.54601e-06
-6.01109e-07
-9.91563e-06
-7.76842e-07
-1.01163e-05
-9.361e-07
-1.02327e-05
-1.07766e-06
-1.02908e-05
-1.20035e-06
-1.03016e-05
-1.30302e-06
-1.02707e-05
-1.38454e-06
-1.0201e-05
-1.44376e-06
-1.00946e-05
-1.47953e-06
-9.95256e-06
-1.49069e-06
-9.77572e-06
-1.47611e-06
-9.56434e-06
-1.43464e-06
-9.31839e-06
-1.36514e-06
-9.03744e-06
-1.26651e-06
-8.72068e-06
-1.13767e-06
-8.36685e-06
-9.77607e-07
-7.97419e-06
-7.85363e-07
-7.5404e-06
-5.601e-07
-7.06255e-06
-3.01118e-07
-6.53706e-06
-7.89651e-09
-5.95957e-06
3.19852e-07
-5.32496e-06
6.82134e-07
-4.62731e-06
1.07861e-06
-3.85988e-06
1.50847e-06
-3.01516e-06
1.9704e-06
-2.08502e-06
2.46246e-06
-1.06081e-06
2.982e-06
6.6395e-08
3.52575e-06
1.30564e-06
4.08972e-06
2.66603e-06
4.6692e-06
4.15641e-06
5.25883e-06
5.7851e-06
5.8527e-06
7.55973e-06
6.44453e-06
9.48713e-06
7.02788e-06
1.15733e-05
7.59639e-06
1.38232e-05
8.14408e-06
1.62407e-05
8.66558e-06
1.88286e-05
9.15647e-06
2.15878e-05
9.61352e-06
2.45175e-05
1.0035e-05
2.76143e-05
1.04208e-05
3.08714e-05
1.07729e-05
3.42778e-05
3.78171e-05
-2.05461e-07
-8.36139e-06
-4.10754e-07
-9.34071e-06
-6.05724e-07
-9.72067e-06
-7.87701e-07
-9.93436e-06
-9.55043e-07
-1.00653e-05
-1.10637e-06
-1.01395e-05
-1.24039e-06
-1.01676e-05
-1.35585e-06
-1.01552e-05
-1.45154e-06
-1.01053e-05
-1.52623e-06
-1.00199e-05
-1.57871e-06
-9.90009e-06
-1.60777e-06
-9.74666e-06
-1.6122e-06
-9.55992e-06
-1.5908e-06
-9.3398e-06
-1.54237e-06
-9.08588e-06
-1.46573e-06
-8.79733e-06
-1.35971e-06
-8.47288e-06
-1.22316e-06
-8.11073e-06
-1.055e-06
-7.70855e-06
-8.54189e-07
-7.26335e-06
-6.19807e-07
-6.77144e-06
-3.51046e-07
-6.22833e-06
-4.72782e-08
-5.62873e-06
2.91894e-07
-4.96649e-06
6.66592e-07
-4.23457e-06
1.07656e-06
-3.42513e-06
1.5211e-06
-2.52955e-06
1.99896e-06
-1.53868e-06
2.50828e-06
-4.42932e-07
3.04654e-06
7.67367e-07
3.61064e-06
2.10193e-06
4.19679e-06
3.57025e-06
4.80065e-06
5.18124e-06
5.4174e-06
6.94297e-06
6.04196e-06
8.86256e-06
6.66925e-06
1.0946e-05
7.29442e-06
1.3198e-05
7.91321e-06
1.56219e-05
8.52223e-06
1.82195e-05
9.11927e-06
2.09907e-05
9.7036e-06
2.39332e-05
1.02762e-05
2.70417e-05
1.084e-05
3.03076e-05
1.14e-05
3.37178e-05
3.72536e-05
-2.0277e-07
-8.15861e-06
-4.08159e-07
-9.1353e-06
-6.05452e-07
-9.52337e-06
-7.91688e-07
-9.74813e-06
-9.65047e-07
-9.89199e-06
-1.12402e-06
-9.98052e-06
-1.26722e-06
-1.00244e-05
-1.39332e-06
-1.00291e-05
-1.50101e-06
-9.99762e-06
-1.58903e-06
-9.93187e-06
-1.65609e-06
-9.83303e-06
-1.70095e-06
-9.70181e-06
-1.72235e-06
-9.53852e-06
-1.71905e-06
-9.34311e-06
-1.68979e-06
-9.11514e-06
-1.63334e-06
-8.85379e-06
-1.54843e-06
-8.55778e-06
-1.43384e-06
-8.22533e-06
-1.28833e-06
-7.85406e-06
-1.11071e-06
-7.44096e-06
-8.9985e-07
-6.9823e-06
-6.54661e-07
-6.47352e-06
-3.74178e-07
-5.90922e-06
-5.75962e-08
-5.28307e-06
2.95677e-07
-4.58784e-06
6.85956e-07
-3.8154e-06
1.11321e-06
-2.9568e-06
1.57695e-06
-2.00243e-06
2.0762e-06
-9.42181e-07
2.60934e-06
2.34214e-07
3.17427e-06
1.53699e-06
3.76832e-06
2.9762e-06
4.38832e-06
4.56123e-06
5.03074e-06
6.30054e-06
5.69189e-06
8.20141e-06
6.36817e-06
1.02697e-05
7.05637e-06
1.25098e-05
7.75401e-06
1.49243e-05
8.45965e-06
1.75139e-05
9.17324e-06
2.02772e-05
9.89632e-06
2.32101e-05
1.06323e-05
2.63057e-05
1.13867e-05
2.95532e-05
1.21671e-05
3.29374e-05
3.64376e-05
-1.99055e-07
-7.95955e-06
-4.03138e-07
-8.9312e-06
-6.01139e-07
-9.32537e-06
-7.89871e-07
-9.55941e-06
-9.67381e-07
-9.71449e-06
-1.13206e-06
-9.81584e-06
-1.28244e-06
-9.87405e-06
-1.41713e-06
-9.89442e-06
-1.53478e-06
-9.87999e-06
-1.63405e-06
-9.83261e-06
-1.71363e-06
-9.75345e-06
-1.77225e-06
-9.6432e-06
-1.80862e-06
-9.50216e-06
-1.82144e-06
-9.33029e-06
-1.80945e-06
-9.12714e-06
-1.77134e-06
-8.89191e-06
-1.7058e-06
-8.62333e-06
-1.61151e-06
-8.31961e-06
-1.48714e-06
-7.97842e-06
-1.33134e-06
-7.59675e-06
-1.14278e-06
-7.17086e-06
-9.20121e-07
-6.69618e-06
-6.62078e-07
-6.16726e-06
-3.67437e-07
-5.5777e-06
-3.51237e-08
-4.92014e-06
3.35763e-07
-4.18627e-06
7.4588e-07
-3.36692e-06
1.19557e-06
-2.45212e-06
1.68476e-06
-1.43138e-06
2.21291e-06
-2.93951e-07
2.77901e-06
9.70886e-07
3.38162e-06
2.37358e-06
4.0189e-06
3.92393e-06
4.68875e-06
5.63069e-06
5.38897e-06
7.50119e-06
6.11754e-06
9.54115e-06
6.87294e-06
1.17544e-05
7.65444e-06
1.41428e-05
8.46246e-06
1.67059e-05
9.29887e-06
1.94407e-05
1.01672e-05
2.23417e-05
1.10731e-05
2.53998e-05
1.20238e-05
2.86025e-05
1.3029e-05
3.19322e-05
3.53665e-05
-1.94598e-07
-7.76493e-06
-3.96244e-07
-8.72952e-06
-5.93589e-07
-9.12801e-06
-7.83284e-07
-9.36971e-06
-9.63283e-07
-9.53449e-06
-1.13191e-06
-9.64722e-06
-1.28764e-06
-9.71833e-06
-1.42903e-06
-9.75304e-06
-1.55468e-06
-9.75434e-06
-1.66325e-06
-9.72405e-06
-1.75339e-06
-9.66331e-06
-1.8238e-06
-9.57279e-06
-1.87318e-06
-9.4528e-06
-1.90021e-06
-9.30326e-06
-1.90359e-06
-9.12377e-06
-1.88199e-06
-8.91352e-06
-1.83406e-06
-8.67126e-06
-1.7584e-06
-8.39527e-06
-1.65358e-06
-8.08323e-06
-1.51815e-06
-7.73218e-06
-1.35058e-06
-7.33843e-06
-1.1493e-06
-6.89745e-06
-9.12741e-07
-6.40381e-06
-6.3929e-07
-5.85113e-06
-3.27394e-07
-5.23202e-06
2.44387e-08
-4.5381e-06
4.17565e-07
-3.76005e-06
8.53168e-07
-2.88773e-06
1.33216e-06
-1.91038e-06
1.8551e-06
-8.16908e-07
2.42219e-06
4.03789e-07
3.0333e-06
1.76246e-06
3.68804e-06
3.26919e-06
4.38579e-06
4.93293e-06
5.12595e-06
6.76104e-06
5.90811e-06
8.75899e-06
6.73241e-06
1.09301e-05
7.5998e-06
1.32754e-05
8.51239e-06
1.57933e-05
9.47373e-06
1.84794e-05
1.0489e-05
2.13264e-05
1.15654e-05
2.43235e-05
1.27118e-05
2.74561e-05
1.3939e-05
3.0705e-05
3.40459e-05
-1.89654e-07
-7.57526e-06
-3.87985e-07
-8.53116e-06
-5.83547e-07
-8.93243e-06
-7.72893e-07
-9.18035e-06
-9.53924e-07
-9.35346e-06
-1.12492e-06
-9.47623e-06
-1.28433e-06
-9.55892e-06
-1.43068e-06
-9.6067e-06
-1.56256e-06
-9.62247e-06
-1.6786e-06
-9.60803e-06
-1.77744e-06
-9.56447e-06
-1.85777e-06
-9.49246e-06
-1.91828e-06
-9.39228e-06
-1.95767e-06
-9.26388e-06
-1.97459e-06
-9.10685e-06
-1.96771e-06
-8.9204e-06
-1.93564e-06
-8.70334e-06
-1.87693e-06
-8.45398e-06
-1.79009e-06
-8.17008e-06
-1.67353e-06
-7.84874e-06
-1.52559e-06
-7.48637e-06
-1.34449e-06
-7.07853e-06
-1.12838e-06
-6.61991e-06
-8.75295e-07
-6.1042e-06
-5.83228e-07
-5.52408e-06
-2.50105e-07
-4.87122e-06
1.2613e-07
-4.13628e-06
5.47489e-07
-3.3091e-06
1.01587e-06
-2.37878e-06
1.53299e-06
-1.33403e-06
2.10029e-06
-1.63521e-07
2.71903e-06
1.14371e-06
3.39028e-06
2.59794e-06
4.11501e-06
4.2082e-06
4.8942e-06
5.98185e-06
5.72909e-06
7.92411e-06
6.62139e-06
1.00378e-05
7.57362e-06
1.23232e-05
8.5894e-06
1.47775e-05
9.67365e-06
1.73952e-05
1.08329e-05
2.01671e-05
1.20753e-05
2.3081e-05
1.34109e-05
2.61205e-05
1.48512e-05
2.92647e-05
3.2488e-05
-1.84448e-07
-7.39079e-06
-3.78812e-07
-8.33677e-06
-5.71682e-07
-8.73955e-06
-7.59577e-07
-8.99245e-06
-9.40377e-07
-9.17266e-06
-1.11236e-06
-9.30425e-06
-1.27395e-06
-9.39733e-06
-1.42369e-06
-9.45697e-06
-1.56015e-06
-9.48602e-06
-1.68196e-06
-9.48622e-06
-1.78778e-06
-9.45865e-06
-1.87629e-06
-9.40395e-06
-1.94618e-06
-9.32239e-06
-1.99615e-06
-9.21391e-06
-2.02488e-06
-9.07813e-06
-2.03099e-06
-8.9143e-06
-2.01308e-06
-8.72125e-06
-1.96969e-06
-8.49738e-06
-1.89924e-06
-8.24052e-06
-1.80008e-06
-7.94791e-06
-1.67039e-06
-7.61605e-06
-1.50825e-06
-7.24067e-06
-1.31153e-06
-6.81662e-06
-1.07797e-06
-6.33775e-06
-8.05119e-07
-5.79692e-06
-4.90382e-07
-5.18595e-06
-1.31027e-07
-4.49564e-06
2.75769e-07
-3.7159e-06
7.32863e-07
-2.83588e-06
1.24309e-06
-1.84426e-06
1.8092e-06
-7.29631e-07
2.4338e-06
5.19105e-07
3.11948e-06
1.91226e-06
3.86878e-06
3.45891e-06
4.68427e-06
5.16635e-06
5.56878e-06
7.0396e-06
6.52556e-06
9.08105e-06
7.55855e-06
1.12902e-05
8.67265e-06
1.36634e-05
9.87393e-06
1.61939e-05
1.11698e-05
1.88713e-05
1.25692e-05
2.16816e-05
1.40826e-05
2.46071e-05
1.57216e-05
2.76257e-05
3.07106e-05
-1.79164e-07
-7.21161e-06
-3.69107e-07
-8.14681e-06
-5.58572e-07
-8.55007e-06
-7.44103e-07
-8.80691e-06
-9.23595e-07
-8.99316e-06
-1.09534e-06
-9.1325e-06
-1.25781e-06
-9.23487e-06
-1.40952e-06
-9.30526e-06
-1.54907e-06
-9.34647e-06
-1.67511e-06
-9.36018e-06
-1.78632e-06
-9.34745e-06
-1.88139e-06
-9.30889e-06
-1.95903e-06
-9.24476e-06
-2.01794e-06
-9.15501e-06
-2.05681e-06
-9.03927e-06
-2.07428e-06
-8.89683e-06
-2.06893e-06
-8.7266e-06
-2.03927e-06
-8.52704e-06
-1.9837e-06
-8.29609e-06
-1.90049e-06
-8.03112e-06
-1.78773e-06
-7.72881e-06
-1.64332e-06
-7.38508e-06
-1.46495e-06
-6.99498e-06
-1.25006e-06
-6.55263e-06
-9.95849e-07
-6.05114e-06
-6.99216e-07
-5.48259e-06
-3.56823e-07
-4.83804e-06
3.49074e-08
-4.10763e-06
4.79743e-07
-3.28072e-06
9.81597e-07
-2.34612e-06
1.54445e-06
-1.29249e-06
2.17231e-06
-1.08749e-07
2.86918e-06
1.21538e-06
3.63917e-06
2.68893e-06
4.48643e-06
4.3191e-06
5.41529e-06
6.11073e-06
6.43047e-06
8.06587e-06
7.5372e-06
1.01835e-05
8.74149e-06
1.24591e-05
1.00503e-05
1.48851e-05
1.14717e-05
1.74499e-05
1.30149e-05
2.01384e-05
1.46904e-05
2.29316e-05
1.65097e-05
2.58065e-05
2.87355e-05
-1.73949e-07
-7.03765e-06
-3.59178e-07
-7.96156e-06
-5.44691e-07
-8.36454e-06
-7.27109e-07
-8.62448e-06
-9.04382e-07
-8.81587e-06
-1.07485e-06
-8.96202e-06
-1.23702e-06
-9.07271e-06
-1.38944e-06
-9.15284e-06
-1.53076e-06
-9.20515e-06
-1.65964e-06
-9.2313e-06
-1.77479e-06
-9.2323e-06
-1.87494e-06
-9.20874e-06
-1.95882e-06
-9.16088e-06
-2.02515e-06
-9.08868e-06
-2.07264e-06
-8.99178e-06
-2.09994e-06
-8.86953e-06
-2.10564e-06
-8.72089e-06
-2.08824e-06
-8.54443e-06
-2.04612e-06
-8.33821e-06
-1.97748e-06
-8.09975e-06
-1.88035e-06
-7.82594e-06
-1.75252e-06
-7.51291e-06
-1.59149e-06
-7.156e-06
-1.39448e-06
-6.74963e-06
-1.15836e-06
-6.28726e-06
-8.79613e-07
-5.76133e-06
-5.54372e-07
-5.16328e-06
-1.78381e-07
-4.48362e-06
2.52954e-07
-3.71205e-06
7.44537e-07
-2.83771e-06
1.30151e-06
-1.84946e-06
1.92917e-06
-7.36413e-07
2.63295e-06
5.11605e-07
3.4184e-06
1.90349e-06
4.29118e-06
3.44633e-06
5.2571e-06
5.14481e-06
6.32222e-06
7.00075e-06
7.49296e-06
9.01271e-06
8.77629e-06
1.11758e-05
1.01799e-05
1.34815e-05
1.17122e-05
1.59176e-05
1.33825e-05
1.84681e-05
1.5201e-05
2.11131e-05
1.71785e-05
2.3829e-05
2.65878e-05
-1.68904e-07
-6.86873e-06
-3.49248e-07
-7.78121e-06
-5.30399e-07
-8.18338e-06
-7.09097e-07
-8.44577e-06
-8.83385e-07
-8.64158e-06
-1.05167e-06
-8.79372e-06
-1.21252e-06
-8.91187e-06
-1.36455e-06
-9.00082e-06
-1.50644e-06
-9.06327e-06
-1.63691e-06
-9.10084e-06
-1.75471e-06
-9.11451e-06
-1.8586e-06
-9.10486e-06
-1.94735e-06
-9.07213e-06
-2.01972e-06
-9.01631e-06
-2.07443e-06
-8.93706e-06
-2.11017e-06
-8.83378e-06
-2.12553e-06
-8.70552e-06
-2.11902e-06
-8.55093e-06
-2.08901e-06
-8.36822e-06
-2.03368e-06
-8.15509e-06
-1.95098e-06
-7.90864e-06
-1.83863e-06
-7.62527e-06
-1.694e-06
-7.30063e-06
-1.51413e-06
-6.9295e-06
-1.29562e-06
-6.50577e-06
-1.03463e-06
-6.02232e-06
-7.26845e-07
-5.47108e-06
-3.67423e-07
-4.84305e-06
4.89383e-08
-4.12842e-06
5.28012e-07
-3.31678e-06
1.07597e-06
-2.39742e-06
1.69932e-06
-1.35975e-06
2.40478e-06
-1.93839e-07
3.19926e-06
1.10902e-06
4.08983e-06
2.55576e-06
5.08369e-06
4.15095e-06
6.18815e-06
5.89628e-06
7.41074e-06
7.7901e-06
8.75929e-06
9.82724e-06
1.0242e-05
1.19988e-05
1.18676e-05
1.4292e-05
1.36452e-05
1.66904e-05
1.55846e-05
1.91738e-05
1.76957e-05
2.17179e-05
2.4295e-05
-1.64085e-07
-6.70464e-06
-3.39462e-07
-7.60582e-06
-5.15942e-07
-8.00689e-06
-6.90426e-07
-8.27127e-06
-8.61081e-07
-8.47091e-06
-1.02641e-06
-8.62839e-06
-1.18505e-06
-8.75323e-06
-1.33571e-06
-8.85017e-06
-1.47713e-06
-8.92186e-06
-1.60808e-06
-8.96989e-06
-1.72736e-06
-8.99523e-06
-1.8338e-06
-8.99843e-06
-1.9262e-06
-8.97974e-06
-2.00335e-06
-8.93915e-06
-2.06403e-06
-8.87638e-06
-2.10693e-06
-8.79087e-06
-2.1307e-06
-8.68175e-06
-2.13384e-06
-8.54778e-06
-2.11473e-06
-8.38734e-06
-2.07152e-06
-8.1983e-06
-2.00217e-06
-7.97799e-06
-1.9043e-06
-7.72313e-06
-1.77522e-06
-7.4297e-06
-1.61184e-06
-7.09289e-06
-1.41055e-06
-6.70705e-06
-1.16728e-06
-6.2656e-06
-8.77335e-07
-5.76103e-06
-5.35443e-07
-5.18494e-06
-1.35711e-07
-4.52815e-06
3.28354e-07
-3.78084e-06
8.63806e-07
-2.93287e-06
1.47817e-06
-1.97411e-06
2.17933e-06
-8.94989e-07
2.97544e-06
3.1292e-07
3.87485e-06
1.65636e-06
4.88602e-06
3.13979e-06
6.01744e-06
4.76484e-06
7.27766e-06
6.52987e-06
8.67528e-06
8.42961e-06
1.0219e-05
1.04551e-05
1.19177e-05
1.25934e-05
1.37802e-05
1.48279e-05
1.58158e-05
1.71382e-05
1.80335e-05
1.95002e-05
2.18866e-05
-1.59508e-07
-6.54513e-06
-3.29887e-07
-7.43543e-06
-5.0145e-07
-7.83531e-06
-6.71309e-07
-8.1014e-06
-8.37772e-07
-8.30444e-06
-9.99467e-07
-8.4667e-06
-1.15513e-06
-8.59757e-06
-1.30355e-06
-8.70175e-06
-1.44356e-06
-8.78185e-06
-1.57401e-06
-8.83945e-06
-1.69376e-06
-8.87548e-06
-1.80168e-06
-8.89051e-06
-1.89664e-06
-8.88479e-06
-1.97747e-06
-8.85832e-06
-2.04299e-06
-8.81086e-06
-2.09195e-06
-8.74191e-06
-2.12299e-06
-8.6507e-06
-2.13467e-06
-8.5361e-06
-2.12537e-06
-8.39664e-06
-2.09325e-06
-8.23041e-06
-2.03625e-06
-8.03499e-06
-1.95199e-06
-7.80738e-06
-1.83772e-06
-7.54396e-06
-1.69026e-06
-7.24036e-06
-1.5059e-06
-6.89141e-06
-1.28037e-06
-6.49113e-06
-1.00875e-06
-6.03264e-06
-6.85441e-07
-5.50825e-06
-3.04112e-07
-4.90947e-06
1.42279e-07
-4.22723e-06
6.61477e-07
-3.45206e-06
1.26185e-06
-2.57447e-06
1.95225e-06
-1.58538e-06
2.74191e-06
-4.76732e-07
3.64029e-06
7.57972e-07
4.657e-06
2.12308e-06
5.8016e-06
3.62023e-06
7.08358e-06
5.24788e-06
8.51226e-06
7.00092e-06
1.00968e-05
8.87052e-06
1.18462e-05
1.0844e-05
1.37691e-05
1.29049e-05
1.58742e-05
1.50331e-05
1.81694e-05
1.7205e-05
1.93937e-05
-1.55152e-07
-6.38997e-06
-3.20506e-07
-7.27007e-06
-4.86938e-07
-7.66887e-06
-6.51804e-07
-7.93653e-06
-8.13581e-07
-8.14266e-06
-9.71035e-07
-8.30925e-06
-1.12303e-06
-8.44558e-06
-1.26846e-06
-8.55632e-06
-1.40625e-06
-8.64407e-06
-1.53533e-06
-8.71037e-06
-1.65464e-06
-8.75618e-06
-1.76312e-06
-8.78204e-06
-1.85968e-06
-8.78823e-06
-1.94322e-06
-8.77478e-06
-2.0126e-06
-8.74148e-06
-2.06662e-06
-8.6879e-06
-2.10395e-06
-8.61335e-06
-2.12319e-06
-8.51686e-06
-2.12274e-06
-8.39709e-06
-2.1008e-06
-8.25235e-06
-2.05531e-06
-8.08047e-06
-1.98389e-06
-7.87879e-06
-1.88379e-06
-7.64406e-06
-1.75179e-06
-7.37236e-06
-1.58414e-06
-7.05907e-06
-1.37646e-06
-6.6988e-06
-1.12372e-06
-6.28539e-06
-8.20092e-07
-5.81186e-06
-4.58993e-07
-5.27056e-06
-3.30011e-08
-4.65322e-06
4.66116e-07
-3.95117e-06
1.04734e-06
-3.15568e-06
1.72028e-06
-2.25832e-06
2.49504e-06
-1.25149e-06
3.38203e-06
-1.2901e-07
4.39179e-06
1.11331e-06
5.53486e-06
2.47715e-06
6.82157e-06
3.96115e-06
8.26193e-06
5.56054e-06
9.86556e-06
7.26688e-06
1.16416e-05
9.06798e-06
1.35986e-05
1.09479e-05
1.57445e-05
1.28872e-05
1.80867e-05
1.48628e-05
1.68489e-05
-1.5096e-07
-6.239e-06
-3.11225e-07
-7.1098e-06
-4.72298e-07
-7.5078e-06
-6.31814e-07
-7.77702e-06
-7.88444e-07
-7.98604e-06
-9.41115e-07
-8.15658e-06
-1.08883e-06
-8.29787e-06
-1.2306e-06
-8.41455e-06
-1.36545e-06
-8.50921e-06
-1.49241e-06
-8.58341e-06
-1.6105e-06
-8.6381e-06
-1.71872e-06
-8.67383e-06
-1.81605e-06
-8.69091e-06
-1.90146e-06
-8.68938e-06
-1.97385e-06
-8.66909e-06
-2.03206e-06
-8.62969e-06
-2.07483e-06
-8.57058e-06
-2.10078e-06
-8.4909e-06
-2.10836e-06
-8.3895e-06
-2.0958e-06
-8.26489e-06
-2.06109e-06
-8.11518e-06
-2.00187e-06
-7.93801e-06
-1.91541e-06
-7.73051e-06
-1.79851e-06
-7.48925e-06
-1.64743e-06
-7.21015e-06
-1.45778e-06
-6.88845e-06
-1.22448e-06
-6.51868e-06
-9.41662e-07
-6.09468e-06
-6.02599e-07
-5.60962e-06
-1.99685e-07
-5.05613e-06
2.7559e-07
-4.42645e-06
8.32588e-07
-3.71268e-06
1.48142e-06
-2.90715e-06
2.23282e-06
-2.00288e-06
3.0979e-06
-9.94091e-07
4.088e-06
1.2321e-07
5.21442e-06
1.35071e-06
6.48826e-06
2.6873e-06
7.92015e-06
4.12863e-06
9.52017e-06
5.66685e-06
1.12976e-05
7.2905e-06
1.32611e-05
8.98447e-06
1.54181e-05
1.07301e-05
1.77753e-05
1.25057e-05
1.42863e-05
-1.46825e-07
-6.09218e-06
-3.01858e-07
-6.95476e-06
-4.57301e-07
-7.35235e-06
-6.11094e-07
-7.62323e-06
-7.62131e-07
-7.835e-06
-9.09514e-07
-8.0092e-06
-1.05239e-06
-8.15499e-06
-1.18991e-06
-8.27703e-06
-1.3212e-06
-8.37792e-06
-1.44539e-06
-8.45923e-06
-1.56157e-06
-8.52192e-06
-1.66883e-06
-8.56658e-06
-1.76623e-06
-8.59352e-06
-1.85276e-06
-8.60283e-06
-1.92742e-06
-8.59443e-06
-1.98909e-06
-8.56801e-06
-2.03656e-06
-8.5231e-06
-2.0685e-06
-8.45895e-06
-2.08341e-06
-8.37459e-06
-2.07957e-06
-8.26872e-06
-2.05501e-06
-8.13972e-06
-2.00745e-06
-7.98556e-06
-1.9342e-06
-7.80376e-06
-1.83213e-06
-7.59132e-06
-1.69754e-06
-7.34473e-06
-1.52613e-06
-7.05985e-06
-1.31288e-06
-6.73193e-06
-1.05194e-06
-6.35561e-06
-7.3663e-07
-5.92493e-06
-3.59324e-07
-5.43344e-06
8.85545e-08
-4.87433e-06
6.16511e-07
-4.24064e-06
1.2349e-06
-3.52554e-06
1.9548e-06
-2.72277e-06
2.78778e-06
-1.82708e-06
3.74574e-06
-8.34752e-07
4.84057e-06
2.55868e-07
6.08397e-06
1.44389e-06
7.48713e-06
2.72546e-06
9.06055e-06
4.09343e-06
1.08138e-05
5.53723e-06
1.27555e-05
7.04279e-06
1.4893e-05
8.5927e-06
1.72323e-05
1.01664e-05
1.17406e-05
-1.42593e-07
-5.94958e-06
-2.92129e-07
-6.80523e-06
-4.41591e-07
-7.2029e-06
-5.89256e-07
-7.47556e-06
-7.34254e-07
-7.69001e-06
-8.75873e-07
-7.86758e-06
-1.01341e-06
-8.01745e-06
-1.14615e-06
-8.14429e-06
-1.27334e-06
-8.25074e-06
-1.39419e-06
-8.33839e-06
-1.50789e-06
-8.40823e-06
-1.61359e-06
-8.46087e-06
-1.71043e-06
-8.49667e-06
-1.79748e-06
-8.51577e-06
-1.87378e-06
-8.51812e-06
-1.93827e-06
-8.50351e-06
-1.98982e-06
-8.47154e-06
-2.02713e-06
-8.42163e-06
-2.04876e-06
-8.35294e-06
-2.05308e-06
-8.2644e-06
-2.03816e-06
-8.15463e-06
-2.0018e-06
-8.02191e-06
-1.94141e-06
-7.86414e-06
-1.85395e-06
-7.67878e-06
-1.73584e-06
-7.46284e-06
-1.5829e-06
-7.21279e-06
-1.39024e-06
-6.92459e-06
-1.15218e-06
-6.59366e-06
-8.62192e-07
-6.21492e-06
-5.12791e-07
-5.78285e-06
-9.55307e-08
-5.2916e-06
3.99009e-07
-4.73519e-06
9.81166e-07
-4.1077e-06
1.66208e-06
-3.40368e-06
2.4535e-06
-2.6185e-06
3.36759e-06
-1.74885e-06
4.41663e-06
-7.93173e-07
5.61271e-06
2.47805e-07
6.96746e-06
1.3707e-06
8.49175e-06
2.56914e-06
1.01955e-05
3.83352e-06
1.20873e-05
5.15099e-06
1.41745e-05
6.5055e-06
1.64629e-05
7.87805e-06
9.2469e-06
-1.38045e-07
-5.81154e-06
-2.81666e-07
-6.66161e-06
-4.24698e-07
-7.05987e-06
-5.65786e-07
-7.33448e-06
-7.04296e-07
-7.55151e-06
-8.39703e-07
-7.73218e-06
-9.71457e-07
-7.8857e-06
-1.09896e-06
-8.01679e-06
-1.22158e-06
-8.12813e-06
-1.33861e-06
-8.22136e-06
-1.44932e-06
-8.29751e-06
-1.55296e-06
-8.35723e-06
-1.64872e-06
-8.4009e-06
-1.73575e-06
-8.42872e-06
-1.81315e-06
-8.4407e-06
-1.87993e-06
-8.43672e-06
-1.93501e-06
-8.41646e-06
-1.97716e-06
-8.37947e-06
-2.00501e-06
-8.32508e-06
-2.01698e-06
-8.25241e-06
-2.01126e-06
-8.16033e-06
-1.98573e-06
-8.04743e-06
-1.9379e-06
-7.91195e-06
-1.86488e-06
-7.75181e-06
-1.76323e-06
-7.56448e-06
-1.62896e-06
-7.34706e-06
-1.45739e-06
-7.09616e-06
-1.24309e-06
-6.80796e-06
-9.79771e-07
-6.47824e-06
-6.6026e-07
-6.10237e-06
-2.76403e-07
-5.67547e-06
1.80927e-07
-5.19252e-06
7.21804e-07
-4.64858e-06
1.35716e-06
-4.03903e-06
2.09864e-06
-3.35997e-06
2.95836e-06
-2.60857e-06
3.9487e-06
-1.78351e-06
5.08194e-06
-8.85427e-07
6.36994e-06
8.27011e-08
7.82385e-06
1.11522e-06
9.45379e-06
2.20357e-06
1.12686e-05
3.33617e-06
1.32757e-05
4.49846e-06
1.54806e-05
5.67309e-06
6.84017e-06
-1.32896e-07
-5.67865e-06
-2.7e-07
-6.52452e-06
-4.06054e-07
-6.92383e-06
-5.40074e-07
-7.20047e-06
-6.71654e-07
-7.41993e-06
-8.00437e-07
-7.6034e-06
-9.26011e-07
-7.76014e-06
-1.04789e-06
-7.89491e-06
-1.16554e-06
-8.01049e-06
-1.27834e-06
-8.10855e-06
-1.38566e-06
-8.19018e-06
-1.4868e-06
-8.25607e-06
-1.58104e-06
-8.30664e-06
-1.6676e-06
-8.34214e-06
-1.74564e-06
-8.36265e-06
-1.81423e-06
-8.36811e-06
-1.87236e-06
-8.35833e-06
-1.91887e-06
-8.33295e-06
-1.95247e-06
-8.29146e-06
-1.97167e-06
-8.2332e-06
-1.97475e-06
-8.15724e-06
-1.95969e-06
-8.06247e-06
-1.92416e-06
-7.94748e-06
-1.8654e-06
-7.81057e-06
-1.78018e-06
-7.6497e-06
-1.66473e-06
-7.46251e-06
-1.51463e-06
-7.24626e-06
-1.32476e-06
-6.99783e-06
-1.08922e-06
-6.71379e-06
-8.01205e-07
-6.39039e-06
-4.53019e-07
-6.02366e-06
-3.60023e-08
-5.60954e-06
4.59444e-07
-5.14403e-06
1.0438e-06
-4.62339e-06
1.7283e-06
-4.04447e-06
2.52476e-06
-3.40502e-06
3.44531e-06
-2.70406e-06
4.50213e-06
-1.94225e-06
5.7071e-06
-1.12228e-06
7.07148e-06
-2.49157e-07
8.60552e-06
6.6953e-07
1.03182e-05
1.62348e-06
1.2217e-05
2.59965e-06
1.43077e-05
3.58245e-06
4.55389e-06
-1.26792e-07
-5.55186e-06
-2.56588e-07
-6.39473e-06
-3.85032e-07
-6.79539e-06
-5.11478e-07
-7.07403e-06
-6.35711e-07
-7.29571e-06
-7.57512e-07
-7.48161e-06
-8.76581e-07
-7.64107e-06
-9.92526e-07
-7.77897e-06
-1.10489e-06
-7.89813e-06
-1.21314e-06
-8.0003e-06
-1.31671e-06
-8.0866e-06
-1.41499e-06
-8.15777e-06
-1.50732e-06
-8.21429e-06
-1.59299e-06
-8.25645e-06
-1.67124e-06
-8.2844e-06
-1.74121e-06
-8.29814e-06
-1.80194e-06
-8.29758e-06
-1.85237e-06
-8.2825e-06
-1.89129e-06
-8.25253e-06
-1.9173e-06
-8.20717e-06
-1.92878e-06
-8.14575e-06
-1.92385e-06
-8.06739e-06
-1.90032e-06
-7.97101e-06
-1.85561e-06
-7.85528e-06
-1.78672e-06
-7.7186e-06
-1.69012e-06
-7.55912e-06
-1.56171e-06
-7.37467e-06