/*--------------------------------*- C++ -*----------------------------------*\
| =========                 |                                                 |
| \\      /  F ield         | OpenFOAM: The Open Source CFD Toolbox           |
|  \\    /   O peration     | Version:  5.0                                   |
|   \\  /    A nd           | Web:      www.OpenFOAM.org                      |
|    \\/     M anipulation  |                                                 |
\*---------------------------------------------------------------------------*/
FoamFile
{
    version     2.0;
    format      ascii;
    class       volVectorField;
    location    "0.75";
    object      U;
}
// * * * * * * * * * * * * * * * * * * * * * * * * * * * * * * * * * * * * * //

dimensions      [0 1 -1 0 0 0 0];

internalField   nonuniform List<vector> 
1915
(
(0.0349637 -0.0377614 0)
(0.0399589 -0.0286608 0)
(0.0452031 -0.0190294 0)
(0.0506739 -0.00883797 0)
(0.0563416 0.00194307 0)
(0.0621705 0.0133473 0)
(0.0681223 0.0254133 0)
(0.0741557 0.0381824 0)
(0.0802259 0.0516972 0)
(0.086285 0.0660003 0)
(0.0922831 0.0811336 0)
(0.0981682 0.0971373 0)
(0.103887 0.114049 0)
(0.109385 0.131903 0)
(0.114609 0.150728 0)
(0.119506 0.170552 0)
(0.124019 0.191393 0)
(0.128094 0.213266 0)
(0.131672 0.236175 0)
(0.134686 0.260107 0)
(0.137059 0.28503 0)
(0.138698 0.310882 0)
(0.139485 0.337565 0)
(0.139264 0.364936 0)
(0.13783 0.392803 0)
(-0.00108945 -0.107966 0)
(-0.00229324 -0.117273 0)
(-0.00333326 -0.11955 0)
(-0.00409563 -0.119948 0)
(-0.00457903 -0.119396 0)
(-0.00477461 -0.118171 0)
(-0.00468304 -0.116382 0)
(-0.00430339 -0.114084 0)
(-0.00363266 -0.111305 0)
(-0.00266682 -0.108062 0)
(-0.00140119 -0.104365 0)
(0.000169235 -0.100223 0)
(0.00204945 -0.0956379 0)
(0.00424396 -0.0906124 0)
(0.0067565 -0.0851452 0)
(0.00958959 -0.0792331 0)
(0.0127443 -0.0728704 0)
(0.0162191 -0.0660485 0)
(0.0200112 -0.058754 0)
(0.0241162 -0.050975 0)
(0.0285253 -0.0426888 0)
(0.0332198 -0.0338768 0)
(0.0381834 -0.0245097 0)
(0.0433987 -0.0145551 0)
(0.0488364 -0.00397881 0)
(0.0544644 0.00725783 0)
(0.0602463 0.0191973 0)
(0.066142 0.0318856 0)
(0.0721073 0.0453694 0)
(0.0780935 0.0596953 0)
(0.0840485 0.0749074 0)
(0.0899169 0.0910477 0)
(0.0956399 0.108155 0)
(0.101156 0.126264 0)
(0.106402 0.145407 0)
(0.11131 0.165612 0)
(0.115811 0.186904 0)
(0.11983 0.2093 0)
(0.123288 0.23281 0)
(0.126094 0.257435 0)
(0.128148 0.283154 0)
(0.129332 0.309929 0)
(0.12951 0.33769 0)
(0.128516 0.366332 0)
(0.126142 0.395708 0)
(-0.0011699 -0.106231 0)
(-0.00255147 -0.115846 0)
(-0.00380396 -0.118441 0)
(-0.00480114 -0.119144 0)
(-0.00553792 -0.118892 0)
(-0.00600112 -0.117964 0)
(-0.00618935 -0.116474 0)
(-0.00610034 -0.114477 0)
(-0.00573001 -0.112004 0)
(-0.00507324 -0.109072 0)
(-0.00412435 -0.105692 0)
(-0.00287733 -0.101872 0)
(-0.00132615 -0.0976153 0)
(0.000534897 -0.0929228 0)
(0.00271083 -0.0877928 0)
(0.00520568 -0.082221 0)
(0.00802209 -0.0761995 0)
(0.0111609 -0.0697178 0)
(0.0146215 -0.062761 0)
(0.0184018 -0.055311 0)
(0.0224935 -0.0473458 0)
(0.0268853 -0.0388393 0)
(0.0315653 -0.0297561 0)
(0.0365147 -0.0200617 0)
(0.0417097 -0.0097162 0)
(0.0471208 0.00132446 0)
(0.052714 0.013107 0)
(0.0584504 0.0256821 0)
(0.0642863 0.0391014 0)
(0.0701732 0.0534162 0)
(0.0760573 0.0686757 0)
(0.0818805 0.0849259 0)
(0.08758 0.10221 0)
(0.0930883 0.120566 0)
(0.0983334 0.140032 0)
(0.103239 0.160639 0)
(0.107722 0.182417 0)
(0.111695 0.20539 0)
(0.115064 0.229578 0)
(0.117723 0.25499 0)
(0.119558 0.281622 0)
(0.12044 0.309453 0)
(0.120228 0.338435 0)
(0.118757 0.368493 0)
(0.115834 0.399507 0)
(-0.00122671 -0.104331 0)
(-0.00275071 -0.114212 0)
(-0.00417989 -0.117099 0)
(-0.00537743 -0.118089 0)
(-0.00633489 -0.118121 0)
(-0.00703507 -0.117478 0)
(-0.00747442 -0.116276 0)
(-0.00764921 -0.114572 0)
(-0.0075542 -0.112396 0)
(-0.00718316 -0.109768 0)
(-0.00652936 -0.1067 0)
(-0.00558578 -0.103198 0)
(-0.00434535 -0.0992667 0)
(-0.00280122 -0.0949057 0)
(-0.000947063 -0.0901129 0)
(0.00122255 -0.0848827 0)
(0.00371186 -0.0792062 0)
(0.00652372 -0.0730704 0)
(0.00965945 -0.0664584 0)
(0.0131185 -0.0593489 0)
(0.016897 -0.0517169 0)
(0.0209869 -0.0435299 0)
(0.0253778 -0.0347519 0)
(0.0300545 -0.025342 0)
(0.0349968 -0.0152547 0)
(0.0401785 -0.00444028 0)
(0.0455679 0.00715375 0)
(0.0511282 0.0195829 0)
(0.0568168 0.032905 0)
(0.062586 0.0471775 0)
(0.0683816 0.0624555 0)
(0.074144 0.0787912 0)
(0.0798072 0.0962331 0)
(0.0852999 0.114826 0)
(0.0905446 0.134611 0)
(0.0954578 0.155627 0)
(0.0999501 0.17791 0)
(0.103926 0.201492 0)
(0.107282 0.226401 0)
(0.109908 0.252655 0)
(0.111685 0.280264 0)
(0.112486 0.309219 0)
(0.112174 0.339487 0)
(0.110601 0.371008 0)
(0.107598 0.40368 0)
(-0.00126237 -0.102303 0)
(-0.00289601 -0.112406 0)
(-0.00446813 -0.115559 0)
(-0.00583292 -0.116814 0)
(-0.00697908 -0.117113 0)
(-0.00788574 -0.116741 0)
(-0.0085472 -0.115814 0)
(-0.00895826 -0.11439 0)
(-0.00911241 -0.112503 0)
(-0.00900238 -0.110171 0)
(-0.00862042 -0.107406 0)
(-0.00795853 -0.104216 0)
(-0.00700864 -0.100605 0)
(-0.00576283 -0.0965712 0)
(-0.00421359 -0.0921131 0)
(-0.00235409 -0.0872236 0)
(-0.000178499 -0.0818926 0)
(0.00231779 -0.0761056 0)
(0.00513801 -0.0698435 0)
(0.00828358 -0.0630825 0)
(0.011753 -0.0557937 0)
(0.0155417 -0.0479424 0)
(0.019642 -0.0394878 0)
(0.024042 -0.0303841 0)
(0.0287249 -0.0205799 0)
(0.0336683 -0.0100198 0)
(0.0388436 0.00135551 0)
(0.0442164 0.0136072 0)
(0.0497462 0.0267998 0)
(0.0553868 0.0409976 0)
(0.0610849 0.0562629 0)
(0.0667806 0.072655 0)
(0.0724072 0.090229 0)
(0.0778914 0.109036 0)
(0.0831534 0.129125 0)
(0.088107 0.150541 0)
(0.0926603 0.173326 0)
(0.0967153 0.197519 0)
(0.100169 0.223155 0)
(0.102912 0.250261 0)
(0.104832 0.278853 0)
(0.10581 0.308928 0)
(0.105727 0.340464 0)
(0.104459 0.373404 0)
(0.101873 0.407648 0)
(-0.00127964 -0.100181 0)
(-0.0029928 -0.110461 0)
(-0.00467639 -0.113851 0)
(-0.00617708 -0.115351 0)
(-0.00748114 -0.115898 0)
(-0.00856445 -0.115779 0)
(-0.00941924 -0.115113 0)
(-0.0100388 -0.113958 0)
(-0.0104155 -0.112347 0)
(-0.010541 -0.110301 0)
(-0.0104065 -0.10783 0)
(-0.0100032 -0.104944 0)
(-0.00932207 -0.101645 0)
(-0.00835425 -0.0979335 0)
(-0.00709116 -0.0938058 0)
(-0.00552472 -0.0892544 0)
(-0.00364763 -0.0842679 0)
(-0.00145363 -0.0788305 0)
(0.00106223 -0.0729214 0)
(0.00390324 -0.0665147 0)
(0.00707035 -0.0595785 0)
(0.0105619 -0.0520746 0)
(0.0143732 -0.0439585 0)
(0.0184956 -0.0351794 0)
(0.022916 -0.0256805 0)
(0.0276158 -0.0154002 0)
(0.0325702 -0.00427258 0)
(0.0377483 0.00777062 0)
(0.0431126 0.0208002 0)
(0.0486194 0.0348881 0)
(0.0542176 0.0501048 0)
(0.0598491 0.0665172 0)
(0.0654482 0.0841883 0)
(0.0709427 0.103177 0)
(0.0762534 0.123538 0)
(0.0812954 0.145323 0)
(0.0859789 0.168581 0)
(0.0902094 0.193355 0)
(0.0938894 0.219685 0)
(0.0969192 0.247602 0)
(0.0991978 0.277123 0)
(0.100625 0.308249 0)
(0.101106 0.340956 0)
(0.100547 0.375182 0)
(0.0988549 0.410822 0)
(-0.00128131 -0.0979958 0)
(-0.00304685 -0.10841 0)
(-0.00481301 -0.112008 0)
(-0.00642035 -0.113728 0)
(-0.0078531 -0.114504 0)
(-0.00908434 -0.114622 0)
(-0.0101044 -0.114201 0)
(-0.0109051 -0.1133 0)
(-0.0114777 -0.111953 0)
(-0.0118128 -0.11018 0)
(-0.0119009 -0.107993 0)
(-0.0117322 -0.105401 0)
(-0.0112971 -0.102407 0)
(-0.0105857 -0.0990098 0)
(-0.00958848 -0.0952063 0)
(-0.0082964 -0.0909883 0)
(-0.00670088 -0.0863435 0)
(-0.00479414 -0.0812548 0)
(-0.00256956 -0.0756999 0)
(-2.19551e-05 -0.0696508 0)
(0.0028519 -0.0630731 0)
(0.00605296 -0.0559259 0)
(0.00957948 -0.0481607 0)
(0.0134263 -0.0397224 0)
(0.017584 -0.0305491 0)
(0.0220381 -0.020573 0)
(0.0267685 -0.00972152 0)
(0.0317483 0.00208112 0)
(0.0369443 0.0149124 0)
(0.0423163 0.0288522 0)
(0.0478174 0.0439791 0)
(0.0533928 0.0603685 0)
(0.0589804 0.0780913 0)
(0.0645114 0.0972141 0)
(0.0699107 0.117798 0)
(0.0750982 0.139901 0)
(0.0799901 0.163575 0)
(0.0845004 0.188866 0)
(0.0885424 0.215817 0)
(0.0920306 0.244455 0)
(0.0948825 0.274799 0)
(0.0970211 0.306843 0)
(0.0983792 0.340555 0)
(0.0988976 0.375864 0)
(0.0985255 0.412648 0)
(-0.00127009 -0.0957741 0)
(-0.00306408 -0.106281 0)
(-0.00488671 -0.110057 0)
(-0.00657382 -0.111974 0)
(-0.00810798 -0.112958 0)
(-0.00945992 -0.113295 0)
(-0.0106182 -0.113103 0)
(-0.0115734 -0.112442 0)
(-0.0123157 -0.111345 0)
(-0.0128348 -0.109833 0)
(-0.0131205 -0.107918 0)
(-0.0131622 -0.105609 0)
(-0.0129496 -0.10291 0)
(-0.0124722 -0.0998183 0)
(-0.0117196 -0.0963315 0)
(-0.010682 -0.0924405 0)
(-0.00934955 -0.0881324 0)
(-0.00771333 -0.0833892 0)
(-0.00576514 -0.0781873 0)
(-0.00349797 -0.072497 0)
(-0.00090638 -0.0662817 0)
(0.00201311 -0.0594979 0)
(0.00526162 -0.0520939 0)
(0.00883738 -0.0440107 0)
(0.0127349 -0.0351816 0)
(0.0169443 -0.025533 0)
(0.0214503 -0.0149858 0)
(0.0262313 -0.00345693 0)
(0.0312591 0.0091387 0)
(0.0364988 0.0228882 0)
(0.0419086 0.0378785 0)
(0.0474394 0.0541934 0)
(0.0530349 0.0719118 0)
(0.0586323 0.0911073 0)
(0.0641633 0.111847 0)
(0.0695559 0.134193 0)
(0.0747359 0.158199 0)
(0.0796291 0.183912 0)
(0.0841635 0.211372 0)
(0.0882716 0.240603 0)
(0.0918928 0.271614 0)
(0.0949759 0.304391 0)
(0.0974839 0.338889 0)
(0.099392 0.37502 0)
(0.100689 0.412642 0)
(-0.00124855 -0.0935393 0)
(-0.00305034 -0.104099 0)
(-0.00490635 -0.108027 0)
(-0.0066489 -0.110117 0)
(-0.00825936 -0.111289 0)
(-0.00970655 -0.111826 0)
(-0.0109775 -0.111846 0)
(-0.0120617 -0.111409 0)
(-0.0129483 -0.110547 0)
(-0.0136264 -0.109283 0)
(-0.014085 -0.107628 0)
(-0.014313 -0.105591 0)
(-0.0142994 -0.103174 0)
(-0.0140331 -0.100379 0)
(-0.0135033 -0.0971996 0)
(-0.0126992 -0.0936276 0)
(-0.0116103 -0.0896496 0)
(-0.0102265 -0.0852467 0)
(-0.00853819 -0.0803946 0)
(-0.00653676 -0.075062 0)
(-0.00421471 -0.0692109 0)
(-0.00156602 -0.0627951 0)
(0.00141332 -0.0557606 0)
(0.00472491 -0.0480448 0)
(0.00836736 -0.0395767 0)
(0.0123354 -0.0302778 0)
(0.016619 -0.0200628 0)
(0.0212028 -0.00884162 0)
(0.0260646 0.00347853 0)
(0.0311759 0.0169916 0)
(0.0365019 0.0317927 0)
(0.0420008 0.0479734 0)
(0.0476241 0.0656204 0)
(0.0533173 0.0848134 0)
(0.0590217 0.105624 0)
(0.0646757 0.128118 0)
(0.0702174 0.152348 0)
(0.075587 0.178359 0)
(0.0807297 0.206185 0)
(0.0855976 0.235842 0)
(0.0901535 0.267328 0)
(0.0943728 0.300614 0)
(0.0982479 0.335638 0)
(0.101787 0.372293 0)
(0.105013 0.410412 0)
(-0.00121907 -0.0913112 0)
(-0.00301129 -0.101889 0)
(-0.0048806 -0.10594 0)
(-0.006657 -0.108182 0)
(-0.008321 -0.109522 0)
(-0.00984004 -0.11024 0)
(-0.0111999 -0.110455 0)
(-0.012389 -0.110226 0)
(-0.0133958 -0.109585 0)
(-0.0142087 -0.108554 0)
(-0.0148162 -0.107145 0)
(-0.0152068 -0.105367 0)
(-0.0153688 -0.103223 0)
(-0.015291 -0.100712 0)
(-0.0149618 -0.0978303 0)
(-0.01437 -0.094568 0)
(-0.0135044 -0.0909117 0)
(-0.0123538 -0.0868423 0)
(-0.0109078 -0.0823347 0)
(-0.00915598 -0.0773568 0)
(-0.00708911 -0.0718692 0)
(-0.0046988 -0.0658241 0)
(-0.00197809 -0.0591653 0)
(0.00107806 -0.0518272 0)
(0.00447228 -0.0437355 0)
(0.00820416 -0.0348073 0)
(0.0122694 -0.0249518 0)
(0.0166589 -0.0140728 0)
(0.0213579 -0.00207034 0)
(0.0263455 0.0111568 0)
(0.031595 0.0257104 0)
(0.0370735 0.0416899 0)
(0.0427421 0.0591883 0)
(0.0485569 0.0782909 0)
(0.0544704 0.0990733 0)
(0.0604337 0.1216 0)
(0.066399 0.145925 0)
(0.0723223 0.172087 0)
(0.0781667 0.200111 0)
(0.083905 0.230001 0)
(0.0895225 0.261742 0)
(0.0950198 0.295287 0)
(0.100417 0.330553 0)
(0.10575 0.367411 0)
(0.111073 0.40567 0)
(-0.00118382 -0.0891056 0)
(-0.00295224 -0.0996689 0)
(-0.00481779 -0.103819 0)
(-0.00660919 -0.10619 0)
(-0.00830648 -0.107678 0)
(-0.00987616 -0.108561 0)
(-0.011303 -0.108954 0)
(-0.0125746 -0.108916 0)
(-0.013679 -0.108482 0)
(-0.0146039 -0.10767 0)
(-0.0153373 -0.106495 0)
(-0.0158675 -0.104963 0)
(-0.0161826 -0.103078 0)
(-0.0162708 -0.10084 0)
(-0.0161203 -0.0982439 0)
(-0.0157195 -0.0952807 0)
(-0.0150566 -0.0919366 0)
(-0.0141197 -0.0881923 0)
(-0.0128974 -0.0840223 0)
(-0.0113781 -0.0793941 0)
(-0.00955087 -0.0742675 0)
(-0.00740508 -0.0685937 0)
(-0.00493102 -0.0623146 0)
(-0.00212017 -0.0553628 0)
(0.00103418 -0.0476611 0)
(0.00453649 -0.039123 0)
(0.00838829 -0.0296538 0)
(0.0125874 -0.0191515 0)
(0.017127 -0.00751012 0)
(0.0219949 0.00537855 0)
(0.0271734 0.0196222 0)
(0.0326399 0.0353266 0)
(0.0383669 0.0525908 0)
(0.0443223 0.0715045 0)
(0.0504715 0.0921455 0)
(0.0567795 0.114578 0)
(0.0632137 0.138852 0)
(0.0697466 0.165 0)
(0.0763591 0.193035 0)
(0.0830434 0.222949 0)
(0.0898061 0.254707 0)
(0.0966702 0.288246 0)
(0.103679 0.32346 0)
(0.110894 0.360195 0)
(0.118389 0.398239 0)
(-0.00114473 -0.0869354 0)
(-0.0028781 -0.0974562 0)
(-0.00472573 -0.101683 0)
(-0.00651601 -0.104163 0)
(-0.00822886 -0.105781 0)
(-0.00983026 -0.106809 0)
(-0.0113042 -0.107365 0)
(-0.012638 -0.107504 0)
(-0.0138188 -0.10726 0)
(-0.0148342 -0.106654 0)
(-0.015672 -0.105698 0)
(-0.0163201 -0.104399 0)
(-0.0167664 -0.102761 0)
(-0.0169989 -0.100783 0)
(-0.0170058 -0.0984609 0)
(-0.016775 -0.0957855 0)
(-0.0162943 -0.092743 0)
(-0.0155514 -0.0893142 0)
(-0.0145341 -0.0854735 0)
(-0.0132296 -0.0811884 0)
(-0.0116256 -0.0764184 0)
(-0.00970944 -0.0711142 0)
(-0.00746887 -0.0652169 0)
(-0.00489209 -0.0586578 0)
(-0.00196829 -0.0513578 0)
(0.0013119 -0.0432279 0)
(0.00495593 -0.0341702 0)
(0.00896864 -0.0240787 0)
(0.0133515 -0.012842 0)
(0.0181018 -0.000346287 0)
(0.0232121 0.0135216 0)
(0.0286707 0.0288726 0)
(0.0344625 0.0458106 0)
(0.0405684 0.0644287 0)
(0.046968 0.0848061 0)
(0.0536408 0.107005 0)
(0.0605697 0.131071 0)
(0.0677434 0.157028 0)
(0.0751599 0.184876 0)
(0.0828293 0.214594 0)
(0.0907763 0.246127 0)
(0.099043 0.279392 0)
(0.107691 0.31426 0)
(0.1168 0.350556 0)
(0.126463 0.388045 0)
(-0.00110352 -0.0848099 0)
(-0.0027933 -0.0952644 0)
(-0.00461159 -0.0995463 0)
(-0.00638726 -0.102118 0)
(-0.0081004 -0.103848 0)
(-0.00971693 -0.105007 0)
(-0.0112204 -0.105708 0)
(-0.0125977 -0.10601 0)
(-0.0138358 -0.105943 0)
(-0.014922 -0.105528 0)
(-0.0158439 -0.104777 0)
(-0.0165894 -0.103697 0)
(-0.0171463 -0.102293 0)
(-0.0175026 -0.100563 0)
(-0.0176463 -0.0985021 0)
(-0.0175651 -0.0961024 0)
(-0.0172467 -0.0933501 0)
(-0.0166784 -0.0902261 0)
(-0.0158472 -0.0867052 0)
(-0.0147398 -0.0827551 0)
(-0.0133422 -0.0783357 0)
(-0.0116402 -0.0733976 0)
(-0.00961924 -0.0678821 0)
(-0.00726449 -0.0617199 0)
(-0.00456125 -0.0548311 0)
(-0.0014953 -0.0471255 0)
(0.00194668 -0.0385029 0)
(0.00577659 -0.0288547 0)
(0.0100043 -0.0180656 0)
(0.0146369 -0.00601756 0)
(0.0196776 0.00740747 0)
(0.0251267 0.022324 0)
(0.0309818 0.0388399 0)
(0.0372378 0.0570506 0)
(0.0438886 0.0770358 0)
(0.0509289 0.0988558 0)
(0.0583568 0.12255 0)
(0.0661766 0.148132 0)
(0.0744018 0.175593 0)
(0.083058 0.204892 0)
(0.0921854 0.235959 0)
(0.10184 0.268687 0)
(0.112099 0.30293 0)
(0.123052 0.338488 0)
(0.134804 0.375109 0)
(-0.00106167 -0.0827357 0)
(-0.00270175 -0.0931043 0)
(-0.00448179 -0.0974238 0)
(-0.0062318 -0.100069 0)
(-0.00793236 -0.101896 0)
(-0.00954967 -0.103171 0)
(-0.0110671 -0.104004 0)
(-0.0124713 -0.104453 0)
(-0.0137493 -0.104549 0)
(-0.0148883 -0.104311 0)
(-0.0158759 -0.103752 0)
(-0.0166998 -0.102879 0)
(-0.0173481 -0.101695 0)
(-0.0178088 -0.100199 0)
(-0.0180698 -0.0983874 0)
(-0.018119 -0.096251 0)
(-0.0179437 -0.0937768 0)
(-0.0175311 -0.0909461 0)
(-0.0168678 -0.0877345 0)
(-0.0159396 -0.0841102 0)
(-0.0147316 -0.0800337 0)
(-0.0132282 -0.0754567 0)
(-0.0114127 -0.0703209 0)
(-0.00926761 -0.0645577 0)
(-0.0067746 -0.0580874 0)
(-0.0039149 -0.0508196 0)
(-0.00066949 -0.0426532 0)
(0.0029804 -0.0334784 0)
(0.00705285 -0.023178 0)
(0.0115646 -0.0116307 0)
(0.0165302 0.00128477 0)
(0.0219618 0.0156858 0)
(0.0278701 0.0316825 0)
(0.0342642 0.0493722 0)
(0.0411526 0.0688343 0)
(0.0485449 0.0901266 0)
(0.0564541 0.113282 0)
(0.0648989 0.138308 0)
(0.0739067 0.165179 0)
(0.0835162 0.193843 0)
(0.0937794 0.22421 0)
(0.104764 0.256155 0)
(0.116553 0.28951 0)
(0.129245 0.324059 0)
(0.142952 0.359531 0)
(-0.00102041 -0.0807168 0)
(-0.00260681 -0.090984 0)
(-0.00434191 -0.0953259 0)
(-0.00605747 -0.0980315 0)
(-0.00773475 -0.099941 0)
(-0.0093406 -0.101317 0)
(-0.0108585 -0.102268 0)
(-0.0122751 -0.102851 0)
(-0.0135775 -0.103097 0)
(-0.014753 -0.103023 0)
(-0.0157893 -0.102643 0)
(-0.0166745 -0.101963 0)
(-0.0173965 -0.100987 0)
(-0.0179436 -0.0997123 0)
(-0.0183039 -0.0981363 0)
(-0.0184651 -0.0962504 0)
(-0.0184148 -0.0940416 0)
(-0.01814 -0.0914923 0)
(-0.0176268 -0.0885785 0)
(-0.0168608 -0.0852697 0)
(-0.0158262 -0.0815274 0)
(-0.014506 -0.0773047 0)
(-0.0128819 -0.0725448 0)
(-0.010934 -0.0671804 0)
(-0.00864083 -0.0611332 0)
(-0.00597953 -0.0543137 0)
(-0.00292576 -0.0466217 0)
(0.000545781 -0.0379474 0)
(0.004461 -0.0281732 0)
(0.00884592 -0.0171767 0)
(0.013726 -0.00483471 0)
(0.0191256 0.00897199 0)
(0.0250681 0.0243547 0)
(0.0315768 0.0414114 0)
(0.0386745 0.060221 0)
(0.0463854 0.0808389 0)
(0.0547365 0.103293 0)
(0.0637598 0.127581 0)
(0.0734951 0.15367 0)
(0.0839914 0.18149 0)
(0.0953099 0.210937 0)
(0.107525 0.241868 0)
(0.120724 0.274099 0)
(0.135008 0.307396 0)
(0.150488 0.341477 0)
(-0.000980714 -0.0787548 0)
(-0.00251121 -0.0889095 0)
(-0.00419661 -0.0932615 0)
(-0.00587087 -0.0960146 0)
(-0.00751616 -0.0979946 0)
(-0.00910026 -0.0994593 0)
(-0.010607 -0.100517 0)
(-0.0120233 -0.101221 0)
(-0.0133365 -0.101604 0)
(-0.0145341 -0.101682 0)
(-0.0156041 -0.101468 0)
(-0.0165348 -0.100969 0)
(-0.0173145 -0.100186 0)
(-0.0179316 -0.0991204 0)
(-0.0183744 -0.0977672 0)
(-0.0186309 -0.0961187 0)
(-0.0186886 -0.0941626 0)
(-0.0185347 -0.091882 0)
(-0.0181551 -0.089254 0)
(-0.0175349 -0.0862494 0)
(-0.0166579 -0.0828315 0)
(-0.0155062 -0.0789549 0)
(-0.0140598 -0.0745652 0)
(-0.0122971 -0.0695971 0)
(-0.0101939 -0.0639748 0)
(-0.00772351 -0.0576111 0)
(-0.00485709 -0.0504078 0)
(-0.00156342 -0.0422569 0)
(0.00219063 -0.0330421 0)
(0.00643976 -0.0226416 0)
(0.0112197 -0.010932 0)
(0.0165664 0.00220648 0)
(0.0225158 0.0168852 0)
(0.0291044 0.0332021 0)
(0.0363693 0.0512354 0)
(0.0443482 0.0710381 0)
(0.0530816 0.0926338 0)
(0.0626136 0.116014 0)
(0.0729943 0.141135 0)
(0.0842818 0.167916 0)
(0.0965431 0.19624 0)
(0.109856 0.22595 0)
(0.124309 0.256845 0)
(0.140002 0.288681 0)
(0.157042 0.321164 0)
(-0.000943234 -0.0768499 0)
(-0.00241705 -0.0868847 0)
(-0.00404956 -0.0912372 0)
(-0.00567735 -0.0940277 0)
(-0.00728365 -0.0960675 0)
(-0.00883749 -0.0976104 0)
(-0.0103232 -0.0987626 0)
(-0.0117283 -0.0995775 0)
(-0.0130403 -0.100085 0)
(-0.0142474 -0.100303 0)
(-0.0153378 -0.100243 0)
(-0.0163 -0.0999115 0)
(-0.017123 -0.0993108 0)
(-0.0177952 -0.0984406 0)
(-0.0183054 -0.0972972 0)
(-0.0186417 -0.0958729 0)
(-0.018792 -0.0941565 0)
(-0.0187433 -0.0921316 0)
(-0.0184819 -0.0897769 0)
(-0.0179925 -0.0870647 0)
(-0.0172584 -0.0839601 0)
(-0.0162611 -0.0804203 0)
(-0.0149796 -0.0763932 0)
(-0.0133906 -0.0718168 0)
(-0.0114678 -0.0666185 0)
(-0.00918159 -0.0607146 0)
(-0.00649905 -0.0540103 0)
(-0.00338393 -0.0464008 0)
(0.000203255 -0.0377728 0)
(0.00430495 -0.028007 0)
(0.00896612 -0.0169816 0)
(0.0142335 -0.00457775 0)
(0.0201549 0.0093152 0)
(0.0267792 0.0247941 0)
(0.0341565 0.0419361 0)
(0.0423378 0.0607925 0)
(0.0513756 0.0813837 0)
(0.0613253 0.103696 0)
(0.0722462 0.127679 0)
(0.0842033 0.153243 0)
(0.0972679 0.18026 0)
(0.111519 0.208561 0)
(0.127044 0.237936 0)
(0.143935 0.268131 0)
(0.162296 0.298848 0)
(-0.000908348 -0.0750006 0)
(-0.00232576 -0.0849121 0)
(-0.00390344 -0.0892581 0)
(-0.00548093 -0.092078 0)
(-0.00704271 -0.0941689 0)
(-0.0085593 -0.0957805 0)
(-0.0100158 -0.0970175 0)
(-0.0114003 -0.0979323 0)
(-0.0127009 -0.0985542 0)
(-0.0139063 -0.0989009 0)
(-0.0150053 -0.0989832 0)
(-0.0159869 -0.0988073 0)
(-0.0168402 -0.0983759 0)
(-0.0175544 -0.0976887 0)
(-0.0181183 -0.096742 0)
(-0.0185206 -0.095529 0)
(-0.0187494 -0.0940389 0)
(-0.018792 -0.0922567 0)
(-0.0186345 -0.0901624 0)
(-0.0182619 -0.0877299 0)
(-0.0176572 -0.0849269 0)
(-0.0168014 -0.081713 0)
(-0.0156728 -0.0780394 0)
(-0.014247 -0.0738479 0)
(-0.012496 -0.0690698 0)
(-0.0103878 -0.0636259 0)
(-0.00788656 -0.0574263 0)
(-0.00495174 -0.0503707 0)
(-0.00153857 -0.0423505 0)
(0.00240195 -0.0332503 0)
(0.00692274 -0.0229521 0)
(0.01208 -0.0113393 0)
(0.0179323 0.00169666 0)
(0.0245399 0.0162509 0)
(0.0319646 0.0323993 0)
(0.0402696 0.0501916 0)
(0.0495187 0.0696463 0)
(0.0597774 0.0907466 0)
(0.0711132 0.113437 0)
(0.0835966 0.137624 0)
(0.0973023 0.16317 0)
(0.112309 0.1899 0)
(0.128699 0.217597 0)
(0.146561 0.246001 0)
(0.165987 0.274811 0)
(-0.000876176 -0.0732047 0)
(-0.00223815 -0.0829928 0)
(-0.00375994 -0.0873279 0)
(-0.00528437 -0.0901713 0)
(-0.00679729 -0.0923064 0)
(-0.0082709 -0.0939787 0)
(-0.00969128 -0.0952917 0)
(-0.0110472 -0.0962969 0)
(-0.0123277 -0.0970232 0)
(-0.0135219 -0.0974878 0)
(-0.0146192 -0.0977012 0)
(-0.0156093 -0.0976695 0)
(-0.0164818 -0.0973955 0)
(-0.0172262 -0.0968787 0)
(-0.0178319 -0.0961161 0)
(-0.0182879 -0.0951013 0)
(-0.0185827 -0.0938243 0)
(-0.0187039 -0.0922714 0)
(-0.0186378 -0.0904241 0)
(-0.0183693 -0.0882583 0)
(-0.0178817 -0.0857441 0)
(-0.0171556 -0.0828443 0)
(-0.0161691 -0.0795135 0)
(-0.014897 -0.0756978 0)
(-0.01331 -0.0713333 0)
(-0.0113747 -0.0663462 0)
(-0.00905284 -0.0606521 0)
(-0.0063009 -0.0541569 0)
(-0.00306999 -0.0467579 0)
(0.000694123 -0.0383456 0)
(0.00505084 -0.0288071 0)
(0.0100642 -0.0180302 0)
(0.0158019 -0.00590936 0)
(0.0223343 0.00764808 0)
(0.0297337 0.0227159 0)
(0.0380739 0.039343 0)
(0.0474292 0.0575468 0)
(0.057874 0.0773094 0)
(0.0694834 0.0985737 0)
(0.0823329 0.121242 0)
(0.096499 0.145176 0)
(0.11206 0.170196 0)
(0.129094 0.19608 0)
(0.14768 0.22257 0)
(0.167902 0.249364 0)
(-0.000846622 -0.0714595 0)
(-0.00215447 -0.0811274 0)
(-0.00361985 -0.0854496 0)
(-0.00508919 -0.0883125 0)
(-0.00654977 -0.0904862 0)
(-0.00797566 -0.0922128 0)
(-0.00935408 -0.0935942 0)
(-0.0106747 -0.0946813 0)
(-0.0119275 -0.0955027 0)
(-0.0131023 -0.0960752 0)
(-0.0141893 -0.0964091 0)
(-0.0151785 -0.0965104 0)
(-0.0160604 -0.0963819 0)
(-0.0168249 -0.0960235 0)
(-0.017462 -0.0954323 0)
(-0.0179609 -0.0946026 0)
(-0.0183107 -0.0935255 0)
(-0.0184993 -0.0921884 0)
(-0.0185133 -0.0905744 0)
(-0.0183379 -0.0886618 0)
(-0.0179564 -0.086423 0)
(-0.0173496 -0.0838243 0)
(-0.0164955 -0.0808242 0)
(-0.0153685 -0.0773732 0)
(-0.0139388 -0.0734129 0)
(-0.012172 -0.0688754 0)
(-0.0100285 -0.0636829 0)
(-0.00746264 -0.0577485 0)
(-0.00442282 -0.0509765 0)
(-0.000851052 -0.0432648 0)
(0.00331688 -0.0345072 0)
(0.00815104 -0.0245976 0)
(0.0137264 -0.013435 0)
(0.0201217 -0.00093009 0)
(0.0274182 0.0129886 0)
(0.0356988 0.0283687 0)
(0.0450468 0.0452278 0)
(0.0555452 0.0635482 0)
(0.0672753 0.0832736 0)
(0.0803175 0.104307 0)
(0.0947501 0.12651 0)
(0.11065 0.149702 0)
(0.128091 0.173665 0)
(0.147147 0.19814 0)
(0.167888 0.222833 0)
(-0.000819426 -0.0697624 0)
(-0.00207444 -0.079316 0)
(-0.00348309 -0.0836256 0)
(-0.00489566 -0.0865058 0)
(-0.006301 -0.0887142 0)
(-0.00767516 -0.0904896 0)
(-0.0090067 -0.0919328 0)
(-0.0102864 -0.0930942 0)
(-0.0115051 -0.094002 0)
(-0.0126535 -0.0946729 0)
(-0.0137226 -0.0951172 0)
(-0.0147031 -0.0953407 0)
(-0.015586 -0.0953463 0)
(-0.0163619 -0.0951342 0)
(-0.0170212 -0.0947019 0)
(-0.0175538 -0.0940445 0)
(-0.0179491 -0.0931539 0)
(-0.0181953 -0.092019 0)
(-0.0182796 -0.0906245 0)
(-0.0181875 -0.0889509 0)
(-0.0179026 -0.0869735 0)
(-0.017406 -0.0846619 0)
(-0.0166758 -0.0819788 0)
(-0.0156865 -0.0788795 0)
(-0.0144083 -0.0753113 0)
(-0.0128064 -0.0712126 0)
(-0.0108407 -0.0665131 0)
(-0.00846454 -0.0611335 0)
(-0.00562481 -0.0549865 0)
(-0.00226129 -0.0479784 0)
(0.00169328 -0.0400112 0)
(0.00631302 -0.0309861 0)
(0.0116781 -0.0208084 0)
(0.0178737 -0.00939337 0)
(0.024988 0.00332773 0)
(0.0331115 0.017401 0)
(0.0423352 0.0328444 0)
(0.052749 0.049642 0)
(0.0644405 0.0677401 0)
(0.0774941 0.0870451 0)
(0.0919903 0.107422 0)
(0.108005 0.128695 0)
(0.12561 0.15065 0)
(0.144869 0.173035 0)
(0.165847 0.195563 0)
(-0.000794154 -0.0681112 0)
(-0.00199726 -0.0775591 0)
(-0.00334868 -0.0818581 0)
(-0.00470288 -0.0847549 0)
(-0.00605036 -0.0869953 0)
(-0.00736931 -0.0888152 0)
(-0.00864976 -0.0903144 0)
(-0.00988367 -0.0915432 0)
(-0.0110629 -0.0925294 0)
(-0.0121791 -0.0932898 0)
(-0.0132239 -0.0938345 0)
(-0.014189 -0.0941697 0)
(-0.0150658 -0.0942982 0)
(-0.0158457 -0.0942206 0)
(-0.0165195 -0.0939349 0)
(-0.0170778 -0.0934368 0)
(-0.0175103 -0.0927194 0)
(-0.0178058 -0.0917729 0)
(-0.017952 -0.0905837 0)
(-0.0179349 -0.0891348 0)
(-0.0177383 -0.0874041 0)
(-0.017344 -0.0853648 0)
(-0.0167304 -0.0829837 0)
(-0.0158724 -0.0802212 0)
(-0.0147407 -0.0770303 0)
(-0.0133009 -0.0733564 0)
(-0.0115128 -0.0691365 0)
(-0.00933 -0.0642999 0)
(-0.00669901 -0.0587683 0)
(-0.00355889 -0.0524571 0)
(0.000158963 -0.0452778 0)
(0.00453074 -0.0371401 0)
(0.00963963 -0.027957 0)
(0.0155747 -0.0176495 0)
(0.0224293 -0.00615294 0)
(0.0302996 0.00657721 0)
(0.0392822 0.0205591 0)
(0.049473 0.0357793 0)
(0.0609649 0.0521885 0)
(0.0738463 0.0696985 0)
(0.0881998 0.0881809 0)
(0.104102 0.107468 0)
(0.12162 0.127353 0)
(0.140815 0.147593 0)
(0.161742 0.167915 0)
(-0.000770157 -0.0665048 0)
(-0.00192154 -0.0758576 0)
(-0.00321475 -0.0801498 0)
(-0.00450881 -0.0830637 0)
(-0.00579589 -0.0853345 0)
(-0.00705651 -0.0871953 0)
(-0.00828222 -0.0887455 0)
(-0.00946621 -0.090035 0)
(-0.0106014 -0.0910921 0)
(-0.0116804 -0.0919333 0)
(-0.0126958 -0.0925691 0)
(-0.0136398 -0.0930056 0)
(-0.0145046 -0.093246 0)
(-0.0152822 -0.0932911 0)
(-0.0159641 -0.0931397 0)
(-0.0165413 -0.0927881 0)
(-0.0170041 -0.0922306 0)
(-0.0173419 -0.0914585 0)
(-0.0175427 -0.0904604 0)
(-0.0175933 -0.0892213 0)
(-0.017478 -0.0877221 0)
(-0.0171792 -0.0859392 0)
(-0.0166759 -0.0838439 0)
(-0.0159439 -0.0814015 0)
(-0.0149545 -0.078571 0)
(-0.0136743 -0.0753045 0)
(-0.0120639 -0.0715468 0)
(-0.0100779 -0.0672358 0)
(-0.00766347 -0.0623027 0)
(-0.00476043 -0.0566726 0)
(-0.00130046 -0.050267 0)
(0.00279277 -0.0430055 0)
(0.00760323 -0.0348098 0)
(0.0132217 -0.025608 0)
(0.019744 -0.0153405 0)
(0.0272698 -0.00396539 0)
(0.0358998 0.00853566 0)
(0.0457341 0.0221518 0)
(0.0568697 0.0368388 0)
(0.0693984 0.0525156 0)
(0.0834054 0.0690629 0)
(0.0989674 0.0863228 0)
(0.116151 0.1041 0)
(0.135014 0.122166 0)
(0.155603 0.14026 0)
(-0.000746516 -0.0649431 0)
(-0.00184533 -0.0742138 0)
(-0.00307862 -0.078504 0)
(-0.00431035 -0.0814364 0)
(-0.00553446 -0.0837364 0)
(-0.00673385 -0.0856351 0)
(-0.00790162 -0.0872315 0)
(-0.00903224 -0.0885758 0)
(-0.0101197 -0.0896963 0)
(-0.0111575 -0.0906101 0)
(-0.012139 -0.0913275 0)
(-0.0130573 -0.0918552 0)
(-0.0139052 -0.0921966 0)
(-0.0146753 -0.092353 0)
(-0.0153598 -0.0923236 0)
(-0.0159502 -0.0921058 0)
(-0.0164374 -0.0916947 0)
(-0.0168115 -0.0910832 0)
(-0.0170609 -0.0902615 0)
(-0.017173 -0.089217 0)
(-0.017133 -0.0879334 0)
(-0.0169238 -0.0863906 0)
(-0.0165255 -0.0845637 0)
(-0.0159148 -0.0824232 0)
(-0.0150641 -0.0799339 0)
(-0.0139413 -0.0770545 0)
(-0.0125086 -0.0737377 0)
(-0.0107222 -0.0699299 0)
(-0.00853098 -0.0655718 0)
(-0.00587669 -0.0605986 0)
(-0.00269278 -0.0549421 0)
(0.00109543 -0.0485325 0)
(0.00557064 -0.0413009 0)
(0.0108229 -0.0331838 0)
(0.0169483 -0.0241279 0)
(0.0240473 -0.0140948 0)
(0.0322225 -0.003067 0)
(0.0415765 0.00894711 0)
(0.0522088 0.0219085 0)
(0.0642141 0.0357443 0)
(0.0776795 0.0503454 0)
(0.0926829 0.0655664 0)
(0.109291 0.0812264 0)
(0.127558 0.0971114 0)
(0.147529 0.112978 0)
(-0.000721953 -0.0634282 0)
(-0.00176601 -0.0726311 0)
(-0.00293676 -0.076925 0)
(-0.00410351 -0.0798776 0)
(-0.00526199 -0.0822059 0)
(-0.00639745 -0.0841395 0)
(-0.00750455 -0.0857777 0)
(-0.00857891 -0.0871708 0)
(-0.00961553 -0.0883477 0)
(-0.0106089 -0.0893257 0)
(-0.011553 -0.0901157 0)
(-0.0124418 -0.0907245 0)
(-0.0132688 -0.0911562 0)
(-0.0140272 -0.0914123 0)
(-0.0147097 -0.0914929 0)
(-0.0153086 -0.091396 0)
(-0.0158153 -0.0911179 0)
(-0.0162204 -0.0906529 0)
(-0.0165131 -0.089993 0)
(-0.0166815 -0.0891277 0)
(-0.0167114 -0.0880433 0)
(-0.0165868 -0.0867231 0)
(-0.0162887 -0.0851465 0)
(-0.0157951 -0.0832883 0)
(-0.0150798 -0.0811191 0)
(-0.0141123 -0.0786041 0)
(-0.0128569 -0.0757035 0)
(-0.0112719 -0.0723721 0)
(-0.00930904 -0.0685597 0)
(-0.00691266 -0.0642117 0)
(-0.00401939 -0.0592704 0)
(-0.000557703 -0.0536765 0)
(0.00355198 -0.0473714 0)
(0.00839687 -0.0403005 0)
(0.0140708 -0.0324179 0)
(0.0206726 -0.0236899 0)
(0.0283044 -0.014101 0)
(0.0370687 -0.00365817 0)
(0.0470663 0.00760475 0)
(0.058393 0.0196229 0)
(0.0711374 0.0322983 0)
(0.0853785 0.0454991 0)
(0.101183 0.0590601 0)
(0.118606 0.0727847 0)
(0.137689 0.0864483 0)
(-0.00069474 -0.061965 0)
(-0.00168036 -0.0711151 0)
(-0.002785 -0.075418 0)
(-0.00388366 -0.0783923 0)
(-0.0049738 -0.0807478 0)
(-0.00604293 -0.0827134 0)
(-0.00708708 -0.0843886 0)
(-0.00810294 -0.0858246 0)
(-0.0090864 -0.0870507 0)
(-0.0100327 -0.0880849 0)
(-0.0109368 -0.0889384 0)
(-0.0117931 -0.0896186 0)
(-0.0125958 -0.0901299 0)
(-0.0133389 -0.0904745 0)
(-0.0140157 -0.090653 0)
(-0.014619 -0.0906643 0)
(-0.0151408 -0.0905059 0)
(-0.0155724 -0.0901732 0)
(-0.0159038 -0.0896601 0)
(-0.0161236 -0.088958 0)
(-0.0162188 -0.0880562 0)
(-0.0161741 -0.0869409 0)
(-0.0159719 -0.0855951 0)
(-0.0155913 -0.0839985 0)
(-0.0150081 -0.0821267 0)
(-0.0141935 -0.0799512 0)
(-0.0131143 -0.0774393 0)
(-0.0117315 -0.0745536 0)
(-0.00999994 -0.071253 0)
(-0.00786778 -0.0674925 0)
(-0.00527563 -0.0632245 0)
(-0.0021564 -0.0584002 0)
(0.00156481 -0.0529713 0)
(0.00597056 -0.0468928 0)
(0.0111502 -0.0401267 0)
(0.0171988 -0.0326453 0)
(0.024215 -0.024436 0)
(0.0322992 -0.0155055 0)
(0.0415508 -0.0058839 0)
(0.0520654 0.00437155 0)
(0.0639318 0.015174 0)
(0.0772295 0.0264055 0)
(0.0920259 0.0379173 0)
(0.108376 0.0495314 0)
(0.12632 0.0610436 0)
(-0.000662648 -0.0605615 0)
(-0.00158462 -0.0696732 0)
(-0.00261874 -0.0739895 0)
(-0.00364595 -0.0769859 0)
(-0.00466522 -0.0793669 0)
(-0.00566603 -0.0813609 0)
(-0.00664557 -0.0830682 0)
(-0.00760135 -0.084541 0)
(-0.00852998 -0.0858092 0)
(-0.00942745 -0.0868916 0)
(-0.0102893 -0.0877998 0)
(-0.0111107 -0.0885417 0)
(-0.0118866 -0.0891222 0)
(-0.0126114 -0.0895441 0)
(-0.013279 -0.0898086 0)
(-0.0138831 -0.0899156 0)
(-0.0144162 -0.0898633 0)
(-0.0148702 -0.0896488 0)