/*--------------------------------*- C++ -*----------------------------------*\
| =========                 |                                                 |
| \\      /  F ield         | OpenFOAM: The Open Source CFD Toolbox           |
|  \\    /   O peration     | Version:  5.0                                   |
|   \\  /    A nd           | Web:      www.OpenFOAM.org                      |
|    \\/     M anipulation  |                                                 |
\*---------------------------------------------------------------------------*/
FoamFile
{
    version     2.0;
    format      ascii;
    class       volScalarField;
    location    "0.35";
    object      alpha.water;
}
// * * * * * * * * * * * * * * * * * * * * * * * * * * * * * * * * * * * * * //

dimensions      [0 0 0 0 0 0 0];

internalField   nonuniform List<scalar> 
1915
(
1
0.999981
0.999999
0.999756
0.99822
0.999749
0.999285
0.999926
0.999997
0.999998
0.999999
0.999996
1
0.999998
1
1
1
1
1
1
3.54406e-24
4.15986e-23
4.9754e-23
1.44444e-23
1.54632e-24
1.20543e-25
6.56223e-27
2.72057e-28
6.15126e-30
1.78375e-31
1.69412e-31
5.20286e-32
1.17436e-32
2.05372e-33
3.35353e-34
5.27757e-35
7.09693e-36
7.94525e-37
7.69479e-38
6.61164e-39
5.05755e-40
3.45165e-41
2.11941e-42
1.16385e-43
5.6841e-45
2.45578e-46
9.32845e-48
3.09122e-49
9.10662e-51
2.34587e-52
5.13917e-54
9.31891e-56
1.3569e-57
1.53026e-59
1.27539e-61
7.37027e-64
2.69617e-66
5.38223e-69
4.97581e-72
9.27929e-75
4.58596e-22
1.32579e-21
1.31504e-21
5.57013e-22
8.45526e-23
9.87559e-24
9.05405e-25
6.14144e-26
3.21227e-27
1.22208e-28
1.01568e-29
3.6619e-30
7.03318e-31
8.15358e-32
1.09154e-32
2.12145e-33
3.19358e-34
3.45965e-35
3.0444e-36
2.3602e-37
1.64374e-38
1.02741e-39
5.7973e-41
2.96597e-42
1.36625e-43
5.62476e-45
2.05771e-46
6.64087e-48
1.87314e-49
4.57338e-51
9.51351e-53
1.6506e-54
2.33036e-56
2.59756e-58
2.20094e-60
1.35201e-62
5.63959e-65
1.46044e-67
2.18782e-70
3.33218e-73
1.68438e-20
3.88424e-20
3.96412e-20
2.06804e-20
3.66475e-21
5.44113e-22
6.71773e-23
6.41515e-24
4.75245e-25
2.80356e-26
2.46946e-27
3.75833e-28
3.77003e-29
3.67002e-30
5.23158e-31
5.80429e-32
6.77912e-33
7.6003e-34
5.81635e-35
3.80574e-36
2.26789e-37
1.23323e-38
6.08479e-40
2.76047e-41
1.13923e-42
4.24024e-44
1.41675e-45
4.22134e-47
1.11218e-48
2.56698e-50
5.11879e-52
8.65862e-54
1.21634e-55
1.38273e-57
1.2316e-59
8.23969e-62
3.88923e-64
1.16299e-66
1.69191e-69
1.26483e-72
3.06122e-19
7.7451e-19
8.56342e-19
5.30182e-19
1.08212e-19
2.09014e-20
3.39613e-21
4.40978e-22
4.9019e-23
5.51612e-24
5.97042e-25
5.61442e-26
3.76929e-27
2.81934e-28
4.07794e-29
4.01564e-30
2.65453e-31
1.89297e-32
1.09289e-33
5.35184e-35
2.53258e-36
1.15744e-37
4.9171e-39
2.03272e-40
7.41887e-42
2.47435e-43
7.50238e-45
2.05336e-46
5.02168e-48
1.08771e-49
2.06189e-51
3.36527e-53
4.64225e-55
5.29175e-57
4.84303e-59
3.41823e-61
1.74093e-63
5.50075e-66
7.87611e-69
3.81476e-72
4.16754e-18
1.26142e-17
1.53284e-17
1.10002e-17
2.42389e-18
5.52316e-19
1.08658e-19
1.90264e-20
3.27388e-21
4.36667e-22
4.35643e-23
3.50566e-24
2.24072e-25
1.75908e-26
2.57332e-27
2.49794e-28
1.5854e-29
8.94617e-31
3.51265e-32
1.09407e-33
3.30147e-35
1.06821e-36
3.33712e-38
1.06137e-39
3.80919e-41
1.24244e-42
3.5213e-44
8.85413e-46
2.00632e-47
4.07527e-49
7.32192e-51
1.14708e-52
1.54065e-54
1.73757e-56
1.60089e-58
1.15627e-60
6.06435e-63
1.96447e-65
2.54751e-68
1.26591e-71
4.85963e-17
1.54404e-16
1.93906e-16
1.3747e-16
3.01948e-17
7.98345e-18
1.86723e-18
4.25213e-19
8.09428e-20
9.80126e-21
9.65371e-22
8.08024e-23
6.90297e-24
8.52791e-25
1.27874e-25
1.26417e-26
1.02452e-27
5.18934e-29
1.75159e-30
4.40633e-32
9.2818e-34
1.79522e-35
9.12311e-38
3.11421e-40
5.7458e-42
1.87347e-42
1.17245e-43
3.31373e-45
7.36803e-47
1.42285e-48
2.42241e-50
3.62931e-52
4.71388e-54
5.20085e-56
4.73904e-58
3.40874e-60
1.76713e-62
5.61219e-65
5.91665e-68
1.45064e-71
4.24337e-16
1.38981e-15
1.76821e-15
1.09973e-15
1.87885e-16
6.21143e-17
1.59991e-17
3.64665e-18
6.5351e-19
8.29594e-20
9.53206e-21
1.2819e-21
2.22936e-22
4.15816e-23
6.52538e-24
7.30259e-25
5.37245e-26
2.58381e-27
8.57237e-29
2.14767e-30
4.41274e-32
7.69599e-34
1.82887e-36
2.00423e-38
1.94885e-40
1.79957e-42
1.86609e-44
3.51466e-46
1.35302e-46
4.64755e-48
7.69192e-50
1.09415e-51
1.36488e-53
1.45773e-55
1.29211e-57
9.01078e-60
4.50415e-62
1.30857e-64
6.21618e-68
1.27763e-73
2.35161e-15
6.71592e-15
7.65427e-15
3.37612e-15
8.60054e-16
3.18051e-16
7.60029e-17
1.32868e-17
2.32923e-18
4.94276e-19
1.2597e-19
3.68907e-20
9.49454e-21
1.96017e-21
2.96287e-22
3.12233e-23
2.22056e-24
1.06301e-25
3.61109e-27
9.49768e-29
2.09024e-30
4.17927e-32
1.04879e-34
1.2915e-36
1.40239e-38
1.41657e-40
1.39451e-42
1.37857e-44
1.59667e-46
2.17629e-48
2.77899e-49
3.64584e-51
3.98124e-53
3.95205e-55
3.25399e-57
2.06918e-59
8.9401e-62
1.58622e-64
1.17478e-67
3.94099e-73
9.76769e-15
2.45426e-14
2.56795e-14
9.03392e-15
3.9885e-15
1.58593e-15
4.18253e-16
5.47155e-17
1.26308e-17
7.61207e-18
3.7336e-18
1.26776e-18
3.3643e-19
6.77347e-20
9.89594e-21
1.02175e-21
7.27076e-23
3.56103e-24
1.26522e-25
3.55766e-27
8.65249e-29
1.12131e-30
5.21532e-33
7.24722e-35
8.86373e-37
9.96782e-39
1.07234e-40
1.1358e-42
1.37038e-44
1.59587e-46
4.7163e-48
4.6303e-50
3.60502e-52
3.34805e-54
2.81934e-56
1.99958e-58
1.12447e-60
4.46688e-63
9.53415e-66
4.48324e-71
2.95907e-14
6.77653e-14
5.6464e-14
4.01567e-14
4.1836e-14
4.45774e-14
3.23247e-14
1.08009e-14
1.65374e-15
3.20597e-16
1.14876e-16
3.37993e-17
8.51475e-18
1.66674e-18
2.39753e-19
2.477e-20
1.79586e-21
9.12506e-23
3.42379e-24
1.03572e-25
2.83731e-27
1.23688e-29
2.27485e-31
3.57401e-33
4.94556e-35
6.24466e-37
7.43621e-39
8.57196e-41
1.10998e-42
1.3694e-44
3.77893e-46
3.51705e-48
3.03496e-50
3.25081e-52
3.06807e-54
2.3116e-56
1.37205e-58
5.72779e-61
1.26627e-63
6.38372e-69
1
1
1
1
1
1
1
1
1
1
1
1
1
1
1
1
1
1
1
1
1
1
1.00001
0.999965
0.997433
0.132975
0.000819079
6.71967e-05
3.9259e-06
2.33876e-07
8.91339e-09
8.70289e-10
7.83901e-10
8.15495e-10
8.40088e-10
5.96739e-10
4.65252e-10
5.91763e-10
1.70966e-09
5.97262e-10
6.10704e-10
9.32984e-10
8.99256e-09
0.782222
4.47799e-31
5.13883e-15
1.338e-13
0.991474
0.275884
1.87631e-14
1.20988e-13
1.00009
0.921292
0.397004
-2.8298e-05
1.00008
0.999301
0.951934
0.547099
1.00003
0.999981
0.997358
0.988142
1.00001
1.00003
0.999439
0.997884
1
1
0.999922
0.999554
1
1
0.999985
0.999934
1
1
0.999998
0.999986
1
1
1
0.999997
1
1
1
1
1
1
1
1
1
1
1
0.999999
0.999997
1.00003
1
1
1.00001
0.999929
1.00001
1.00005
0.514482
0.997336
1.00032
0.999874
0.0184682
0.138099
0.588481
0.997523
0.000328165
0.00117593
0.0319175
0.171777
7.815e-06
0.000111003
0.000551686
0.00191657
1.41954e-06
6.11446e-06
5.49837e-05
0.000189977
7.31132e-08
5.97754e-07
3.23693e-06
3.09703e-06
4.93719e-09
2.44265e-08
3.9481e-07
1.21812e-06
6.47156e-10
3.28672e-09
2.40707e-08
1.02727e-07
6.18816e-10
7.04122e-10
1.57222e-09
2.10043e-08
5.94911e-10
5.70818e-10
7.51491e-10
1.87408e-09
5.93822e-10
5.59313e-10
5.81146e-10
6.98843e-10
5.39085e-10
5.61795e-10
5.60655e-10
5.83816e-10
8.58835e-10
1.09005e-09
9.65301e-10
6.92375e-10
3.94507e-09
8.33438e-10
7.09058e-10
7.13651e-10
6.10704e-10
5.95277e-08
1.08303e-07
3.42349e-08
2.4519e-09
1.90291e-07
1.53528e-07
1.87964e-08
2.12413e-07
2.35208e-07
2.58572e-08
1.14322e-08
1.03359e-08
1.97344e-06
1.86293e-06
3.09413e-08
7.35712e-14
1.88488e-13
2.91769e-13
5.91937e-13
1.01557e-12
1.26556e-12
1.17463e-12
3.24084e-13
8.03404e-14
1.97333e-14
4.72291e-15
1.0889e-15
2.39022e-16
4.42348e-17
6.21441e-18
6.40512e-19
4.73301e-20
2.50185e-21
9.96083e-23
3.33545e-24
6.84251e-26
4.25625e-28
8.77402e-30
1.55944e-31
2.44687e-33
3.48698e-35
4.63659e-37
5.88518e-39
8.31592e-41
1.11016e-42
3.29319e-44
3.20009e-46
2.93377e-48
3.31554e-50
3.36033e-52
2.66429e-54
1.65542e-56
7.19128e-59
1.6396e-61
8.84886e-67
7.76304e-14
1.3949e-13
2.22829e-12
4.55511e-12
6.8027e-12
7.97642e-12
5.85991e-12
2.43229e-12
9.30112e-13
3.6124e-13
1.10576e-13
2.72385e-14
5.36225e-15
9.21732e-16
1.28413e-16
1.34803e-17
1.03183e-18
5.74487e-20
2.4674e-21
8.89637e-23
9.35814e-25
1.32187e-26
3.05551e-28
6.14366e-30
1.09392e-31
1.76416e-33
2.63363e-35
3.71187e-37
5.80106e-39
8.31757e-41
2.72326e-42
2.78735e-44
2.70695e-46
3.24819e-48
3.52932e-50
2.96614e-52
1.93508e-54
8.77221e-57
2.06991e-59
1.20472e-64
-1.99289e-06
-2.30314e-06
2.28483e-12
2.26236e-12
3.72354e-12
1.71908e-11
1.2688e-11
7.94065e-12
3.78944e-12
2.18584e-12
9.69705e-13
4.0855e-13
1.07767e-13
1.74497e-14
2.32394e-15
2.49875e-16
2.00407e-17
1.18651e-18
5.57353e-20
1.38346e-21
1.42425e-23
3.68771e-25
9.55396e-27
2.17127e-28
4.38463e-30
8.00674e-32
1.34526e-33
2.11524e-35
3.69018e-37
5.80108e-39
2.07229e-40
2.23719e-42
2.37099e-44
3.03885e-46
3.49977e-48
3.10202e-50
2.13256e-52
1.01306e-54
2.48624e-57
1.5765e-62
0.00831459
0.000154364
-2.7266e-05
-1.59637e-06
-7.77332e-08
1.59665e-11
1.36305e-11
1.87539e-11
8.77207e-12
8.07204e-12
4.05667e-12
2.80911e-12
1.12582e-12
2.93092e-13
3.86809e-14
4.11104e-15
3.4765e-16
2.2355e-17
1.01677e-18
1.77027e-20
2.81988e-22
9.25626e-24
2.68507e-25
6.8868e-27
1.57503e-28
3.25479e-30
6.15963e-32
1.08315e-33
2.11526e-35
6.41117e-37
1.46116e-38
1.60342e-40
1.92046e-42
2.64187e-44
3.19109e-46
3.0042e-48
2.18531e-50
1.09263e-52
2.80437e-55
1.9592e-60
0.63023
0.0441494
0.00130506
-1.39305e-05
-6.73489e-06
-1.53755e-06
-2.45007e-08
1.51309e-11
8.26735e-11
8.77612e-11
4.47308e-11
1.71175e-11
5.31533e-12
2.51459e-12
5.77347e-13
6.25445e-14
5.45023e-15
3.79712e-16
1.44277e-17
2.71669e-19
5.76395e-21
2.0919e-22
6.78169e-24
1.95845e-25
5.06088e-27
1.18153e-28
2.51878e-30
5.07703e-32
1.08315e-33
5.71026e-35
9.41493e-37
1.04637e-38
1.42129e-40
2.10664e-42
2.6719e-44
2.67934e-46
2.06951e-48
1.09364e-50
2.95119e-53
2.29655e-58
0.989672
0.686002
0.0902581
0.00299798
0.000197952
1.09338e-06
-3.16655e-06
-1.79596e-07
1.85309e-09
1.35751e-09
4.50102e-10
1.54275e-10
4.51933e-11
1.04625e-11
4.46412e-12
8.81735e-13
8.0071e-14
5.32455e-15
1.83147e-16
3.77323e-18
1.06442e-19
4.26228e-21
1.53913e-22
4.98571e-24
1.45014e-25
3.8116e-27
9.13365e-29
2.11902e-30
5.07716e-32
2.90979e-33
5.1403e-35
6.08438e-37
9.58328e-39
1.52345e-40
1.9919e-42
2.1311e-44
1.75347e-46
9.82912e-49
2.80171e-51
2.45197e-56
0.99814
0.990977
0.735319
0.144362
0.00508339
0.0006226
4.10306e-05
-1.88023e-06
-2.5411e-07
2.72652e-08
6.92176e-09
1.5949e-09
3.58945e-10
8.62461e-11
1.70849e-11
6.66995e-12
1.07175e-12
6.86569e-14
2.18869e-15
5.02356e-17
1.78493e-18
7.86202e-20
3.14731e-21
1.13743e-22
3.7025e-24
1.08927e-25
2.91845e-27
7.74633e-29
2.05336e-30
1.28853e-31
2.44482e-33
3.07526e-35
5.63135e-37
9.30057e-39
1.301e-40
1.49034e-42
1.30822e-44
7.80048e-47
2.35744e-49
2.33861e-54
0.999617
0.998388
0.991976
0.765304
0.187227
0.00735367
0.00117451
0.000134492
5.69026e-06
2.34639e-07
1.24422e-07
2.10998e-08
3.67474e-09
6.70566e-10
1.2997e-10
2.41384e-11
7.7233e-12
8.52952e-13
2.73688e-14
6.93192e-16
2.73513e-17
1.32301e-18
5.84537e-20
2.34365e-21
8.4862e-23
2.7763e-24
8.26443e-26
2.50162e-27
1.05705e-28
5.08004e-30
9.88197e-32
1.41093e-33
2.79331e-35
4.96684e-37
7.45815e-39
9.14803e-41
8.57789e-43
5.45092e-45
1.75144e-47
1.98113e-52
0.999941
0.999679
0.998585
0.992478
0.775558
0.19521
0.00942596
0.00172523
0.000242222
2.00485e-05
1.64998e-06
3.14132e-07
4.31233e-08
6.5742e-09
1.00917e-09
1.73068e-10
2.71961e-11
5.8566e-12
3.86887e-13
1.0309e-14
3.83919e-16
2.04284e-17
9.94263e-19
4.40556e-20
1.76662e-21
6.4007e-23
2.13818e-24
7.32813e-26
6.97119e-27
1.91015e-28
3.55774e-30
5.82635e-32
1.24784e-33
2.38654e-35
3.84539e-37
5.05037e-39
5.06083e-41
3.4307e-43
1.17396e-45
1.52012e-50
0.999988
0.99995
0.999715
0.998737
0.992434
0.754607
0.164014
0.00994174
0.00203453
0.000332334
3.40635e-05
3.46324e-06
5.16051e-07
7.18801e-08
1.00523e-08
1.40191e-09
1.84663e-10
2.04436e-11
3.10384e-12
1.49051e-13
4.9025e-15
2.88116e-16
1.54637e-17
7.5588e-19
3.34646e-20
1.33973e-21
5.13257e-23
2.43296e-24
1.99534e-25
5.68659e-27
1.1544e-28
2.13446e-30
4.93129e-32
1.01293e-33
1.74954e-35
2.45859e-37
2.63201e-39
1.90359e-41
6.94224e-44
1.031e-48
0.999997
0.999989
0.999961
0.999723
0.99882
0.992413
0.67721
0.107821
0.00829525
0.0017128
0.000277365
3.48276e-05
4.74004e-06
6.79793e-07
9.18902e-08
1.12561e-08
1.28565e-09
1.45079e-10
1.30262e-11
1.67749e-12
9.97006e-14
3.94874e-15
2.16101e-16
1.16521e-17
5.68411e-19
2.52827e-20
1.27962e-21
1.20127e-22
5.36928e-24
1.45442e-25
3.26702e-27
6.87824e-29
1.71184e-30
3.76783e-32
6.96467e-34
1.04582e-35
1.19483e-37
9.21356e-40
3.58034e-42
6.09899e-47
0.999999
0.999997
0.99999
0.999968
0.999726
0.998475
0.991791
0.549769
0.0511836
0.006016
0.00129625
0.000221513
3.02185e-05
4.5524e-06
6.20172e-07
7.69199e-08
8.83285e-09
9.65164e-10
1.00572e-10
9.17764e-12
1.41405e-12
8.43354e-14
4.62962e-15
2.46977e-16
1.33069e-17
7.26494e-19
4.45791e-20
3.1307e-21
1.13653e-22
3.29819e-24
7.96449e-26
1.90346e-27
5.0945e-29
1.19832e-30
2.36546e-32
3.78823e-34
4.61122e-36
3.78591e-38
1.56602e-40
3.05478e-45
0.999999
0.999999
0.999997
0.999989
0.999949
0.999729
0.998388
0.991386
0.412331
0.0191023
0.00464973
0.000972211
0.000156349
2.2921e-05
3.27304e-06
4.36606e-07
5.26815e-08
5.84438e-09
6.20232e-10
6.41589e-11
9.52015e-12
1.44063e-12
9.54933e-14
5.04568e-15
2.97299e-16
1.81954e-17
1.12604e-18
5.2717e-20
1.95248e-21
6.18495e-23
1.59416e-24
4.27964e-26
1.22829e-27
3.07891e-29
6.47418e-31
1.1032e-32
1.42768e-34
1.24558e-36
5.47503e-39
1.2188e-43
0.999999
0.999997
0.999996
0.999995
0.999988
0.999946
0.999856
0.998053
0.891128
0.246442
0.0127938
0.00296052
0.000587075
9.60746e-05
1.41398e-05
2.02487e-06
2.63579e-07
3.08728e-08
3.33911e-09
3.61843e-10
3.93679e-11
8.21507e-12
1.08544e-12
7.36719e-14
4.44474e-15
2.63884e-16
1.44664e-17
6.59983e-19
2.61737e-20
8.9509e-22
2.47073e-23
7.28826e-25
2.23349e-26
5.95141e-28
1.32943e-29
2.40412e-31
3.29957e-33
3.05195e-35
1.42248e-37
3.59564e-42
0.999998
0.999998
0.999994
0.999991
0.999989
0.999988
0.999936
0.99969
0.998748
0.627051
0.0854452
0.00734934
0.00167229
0.000312582
5.19272e-05
7.78133e-06
1.10614e-06
1.38321e-07
1.56386e-08
1.67578e-09
1.95227e-10
2.23908e-11
5.20516e-12
5.85502e-13
3.70371e-14
2.23111e-15
1.22786e-16
5.98007e-18
2.56297e-19
9.45088e-21
2.81367e-22
8.88007e-24
2.89044e-25
8.1691e-27
1.933e-28
3.69963e-30
5.37076e-32
5.25321e-34
2.58979e-36
7.38746e-41
1.00007
0.999998
0.999993
0.999989
0.99998
0.999973
0.999967
1.00005
0.999483
0.99412
0.379173
0.017255
0.00417397
0.000895601
0.000167155
2.67949e-05
3.82886e-06
5.08843e-07
6.14346e-08
6.88048e-09
7.5788e-10
9.53168e-11
1.25196e-11
2.51349e-12
2.33716e-13
1.39293e-14
8.07617e-16
4.22653e-17
1.94712e-18
7.71099e-20
2.47214e-21
8.27783e-23
2.84995e-24
8.51483e-26
2.12713e-27
4.2948e-29
6.57402e-31
6.77876e-33
3.52408e-35
1.12683e-39
0.999282
0.999848
0.999986
0.999984
0.999977
0.999963
0.999946
0.999934
0.999838
1.00006
0.748414
0.127046
0.0085507
0.0019279
0.000406227
7.24166e-05
1.13782e-05
1.60957e-06
2.09219e-07
2.5089e-08
2.78583e-09
3.21864e-10
3.99802e-11
7.41513e-12
9.72527e-13
7.15962e-14
4.31161e-15
2.40585e-16
1.18653e-17
5.03267e-19
1.73693e-20
6.08203e-22
2.20373e-23
6.93869e-25
1.82368e-26
3.8713e-28
6.22748e-30
6.74736e-32
3.68682e-34
1.31126e-38
0.765991
0.997197
0.999357
0.99994
0.999953
0.999956
0.999929
0.999893
0.999921
0.999849
0.997147
0.364122
0.0165483
0.00394241
0.000873229
0.00017336
2.94899e-05
4.48041e-06
6.20362e-07
7.8979e-08
9.26467e-09
1.00688e-09
1.28934e-10
1.52439e-11
2.95342e-12
3.08846e-13
1.96022e-14
1.14407e-15
6.00962e-17
2.72198e-18
1.01007e-19
3.65719e-21
1.38742e-22
4.58796e-24
1.26398e-25
2.81082e-27
4.73489e-29
5.37151e-31
3.07389e-33
1.20583e-37
0.0717311
0.474623
0.988084
0.997978
0.999646
0.99988
0.999905
0.999857
0.999796
0.999725
0.999208
0.667427
0.083933
0.00681104
0.00158432
0.000338137
6.2463e-05
1.02478e-05
1.51936e-06
2.06117e-07
2.57198e-08
2.99224e-09
3.37835e-10
4.51826e-11
6.78497e-12
9.53522e-13
7.63343e-14
4.60433e-15
2.55796e-16
1.23583e-17
4.94559e-19
1.80572e-20
7.12225e-22
2.46727e-23
7.0998e-25
1.64823e-26
2.89746e-28
3.42978e-30
2.04834e-32
8.77783e-37
0.0011328
0.0128322
0.291876
0.91281
0.996215
0.999201
0.99974
0.999808
0.999716
0.999617
0.999694
0.909371
0.226951
0.0111366
0.00258076
0.000590688
0.000118167
2.07815e-05
3.28606e-06
4.74652e-07
6.32491e-08
7.77041e-09
8.85305e-10
1.1558e-10
1.37113e-11
2.39296e-12
2.45702e-13
1.58845e-14
9.22381e-16
4.74182e-17
2.04818e-18
7.38578e-20
3.01086e-21
1.08951e-22
3.26297e-24
7.88004e-26
1.44056e-27
1.77305e-29
1.10116e-31
5.1031e-36
0.000121661
0.000530305
0.00388478
0.227151
0.849656
0.994002
0.998646
0.999547
0.999626
0.999435
0.999312
0.998755
0.423477
0.0220387
0.00384626
0.000924055
0.00019519
3.66854e-05
6.20938e-06
9.54904e-07
1.34277e-07
1.73587e-08
2.07257e-09
2.42402e-10
3.23444e-11
4.95723e-12
6.22277e-13
4.74351e-14
2.8665e-15
1.56252e-16
7.27392e-18
2.71338e-19
1.0673e-20
3.97892e-22
1.24053e-23
3.10551e-25
5.88327e-27
7.50284e-29
4.82818e-31
2.39266e-35
1.7849e-07
8.44901e-05
0.000289635
0.00371449
0.252812
0.874805
0.993065
0.998237
0.999244
0.999262
0.998869
0.998611
0.642955
0.0660519
0.00539865
0.00131328
0.000287499
5.65168e-05
1.00502e-05
1.62258e-06
2.39038e-07
3.22883e-08
4.01467e-09
4.61805e-10
6.46881e-11
7.95092e-12
1.30433e-12
1.20798e-13
7.54422e-15
4.35639e-16
2.18388e-17
9.07116e-19
3.10712e-20
1.17398e-21
3.8186e-23
9.88269e-25
1.93499e-26
2.54986e-28
1.69535e-30
8.87539e-35
1.56909e-06
-1.15862e-06
6.14875e-05
0.000506754
0.00338219
0.437638
0.946996
0.994866
0.998263
0.998881
0.998567
0.998416
0.783681
0.12664
0.0071653
0.00173787
0.000389018
7.88823e-05
1.45516e-05
2.44116e-06
3.73491e-07
5.23253e-08
6.73918e-09
8.02976e-10
1.09484e-10
1.33459e-11
2.36785e-12
2.48625e-13
1.67372e-14
1.01586e-15
5.44401e-17
2.47077e-18
9.01878e-20
2.91226e-21
9.59068e-23
2.5812e-24
5.20663e-26
7.06721e-28
4.83917e-30
2.64729e-34
1.65802e-07
1.06004e-06
8.77679e-06
2.25544e-05
0.00040407
0.0259447
0.693986
0.988586
0.996495
0.997995
0.998375
0.997712
0.861593
0.199172
0.00871067
0.00213054
0.000483177
0.000100131
1.89881e-05
3.28243e-06
5.17753e-07
7.47535e-08
9.9231e-09
1.21814e-09
1.62154e-10
2.07457e-11
3.75523e-12
4.35586e-13
3.16607e-14
2.01097e-15
1.14127e-16
5.56081e-18
2.24704e-19
7.10368e-21
2.04463e-22
5.60263e-24
1.16836e-25
1.62808e-27
1.14423e-29
6.47372e-34
1.53856e-08
1.77338e-07
-2.85924e-07
-8.92098e-07
7.46543e-05
0.000719394
0.372461
0.936531
0.993885
0.996882
0.997711
0.996985
0.915563
0.28168
0.0100888
0.00248737
0.000567286
0.000119071
2.29993e-05
4.0621e-06
6.55462e-07
9.68472e-08
1.31611e-08
1.65414e-09
2.16322e-10
2.90415e-11
5.31977e-12
6.72041e-13
5.22974e-14
3.45465e-15
2.05822e-16
1.06315e-17
4.63788e-19
1.63613e-20
4.36436e-22
1.04216e-23
2.21838e-25
3.18077e-27
2.28623e-29
1.32518e-33
1.87045e-09
2.64522e-08
-6.84158e-08
1.43686e-06
1.1063e-05
9.22279e-05
0.131262
0.815788
0.990602
0.995443
0.996611
0.996648
0.935936
0.344873
0.0109484
0.00272223
0.000622153
0.000131542
2.57066e-05
4.60628e-06
7.55364e-07
1.13541e-07
1.57105e-08
2.01198e-09
2.62055e-10
3.65558e-11
6.93338e-12
9.35842e-13
7.6502e-14
5.23919e-15
3.25776e-16
1.7689e-17
8.2083e-19
3.16076e-20
9.55459e-22
2.09577e-23
3.6285e-25
5.29972e-27
3.91077e-29
-2.75905e-33
6.82207e-10
3.3077e-09
3.06343e-08
2.08964e-07
4.46425e-07
1.63039e-05
0.0224115
0.645825
0.986179
0.993733
0.995312
0.996067
0.930127
0.334099
0.0109728
0.00272214
0.000621293
0.00013229
2.60411e-05
4.71113e-06
7.81489e-07
1.19002e-07
1.67015e-08
2.1736e-09
2.87006e-10
4.10975e-11
8.35093e-12
1.18071e-12
9.97384e-14
7.09277e-15
4.58798e-16
2.60404e-17
1.27377e-18
5.24932e-20
1.75845e-21
4.47865e-23
7.83145e-25
7.73131e-27
5.60977e-29
-2.08812e-35
6.92279e-10
9.28528e-10
5.64464e-09
6.58378e-09
1.78232e-07
3.73863e-06
7.61377e-05
0.462234
0.968704
0.991918
0.99391
0.995107
0.900109
0.302157
0.0102237
0.00248162
0.00056507
0.000120623
2.38451e-05
4.33643e-06
7.24606e-07
1.11353e-07
1.58082e-08
2.08523e-09
2.83936e-10
4.12355e-11
8.90631e-12
1.2523e-12
1.06707e-13
7.92335e-15
5.36702e-16
3.20794e-17
1.66722e-18
7.4036e-20
2.72643e-21
7.89592e-23
1.675e-24
2.23724e-26
1.41291e-28
-1.59341e-35
7.11433e-10
7.30796e-10
1.50542e-09
5.92172e-09
6.21932e-08
7.41485e-07
1.46069e-05
0.436594
0.965339
0.989338
0.991422
0.993915
0.849983
0.233247
0.00866535
0.00205809
0.000467855
9.97727e-05
1.9722e-05
3.59492e-06
6.02821e-07
9.31921e-08
1.33456e-08
1.77342e-09
2.57832e-10
3.87098e-11
9.2785e-12
1.28828e-12
1.07779e-13
8.17342e-15
5.62049e-16
3.40851e-17
1.79411e-18
8.05102e-20
3.02297e-21
9.30704e-23
2.20473e-24
3.6292e-26
3.35193e-28
9.81045e-31
7.43928e-10
1.60801e-09
2.9198e-09
1.58103e-07
1.75435e-07
4.04998e-07
0.0144005
0.472474
0.971676
0.987966
0.988861
0.986804
0.746478
0.141414
0.00657222
0.00155903
0.000361301
7.48705e-05
1.4757e-05
2.68708e-06
4.51554e-07
7.00505e-08
1.00954e-08
1.3497e-09
2.11526e-10
3.37339e-11
8.65537e-12
1.16025e-12
9.64428e-14
7.57158e-15
5.35326e-16
3.34463e-17
1.83164e-18
8.67639e-20
3.46076e-21
1.1216e-22
2.81502e-24
5.03076e-26
5.52012e-28
2.52479e-30
3.18907e-09
2.92031e-09
4.15877e-09
3.15802e-07
7.3157e-06
2.24336e-05
0.0415953
0.574052
0.979859
0.986808
0.987577
0.966332
0.584347
0.059587
0.00459342
0.00112029
0.000257242
5.21067e-05
1.00394e-05
1.82139e-06
3.05557e-07
4.75036e-08
6.86379e-09
9.49231e-10
1.57619e-10
3.35968e-11
7.37245e-12
8.6992e-13
7.5563e-14
6.12542e-15
4.4573e-16
2.87474e-17
1.62324e-18
7.89348e-20
3.24657e-21
1.09452e-22
2.9031e-24
5.70626e-26
7.21846e-28
4.24211e-30
8.55425e-09
3.36191e-08
3.69067e-08
7.14727e-06
2.65833e-05
0.00491007
0.138196
0.768781
0.974604
0.982325
0.98444
0.912496
0.371809
0.0178828
0.00300399
0.000768577
0.000168415
3.38636e-05
6.36492e-06
1.12807e-06
1.88443e-07
2.9247e-08
4.24304e-09
6.47198e-10
1.08381e-10
3.0158e-11
5.60949e-12
5.91332e-13
5.30989e-14
4.39255e-15
3.25547e-16
2.14079e-17
1.23656e-18
6.18316e-20
2.62562e-21
9.22042e-23
2.56548e-24
5.24741e-26
6.98915e-28
4.43968e-30
1.2712e-07
3.41016e-07
4.856e-07
2.09271e-06
0.00363305
0.0564132
0.510896
0.946915
0.969796
0.974387
0.966853
0.749302
0.161661
0.00754016
0.00196379
0.000480854
0.000101952
2.02822e-05
3.77322e-06
6.55412e-07
1.06545e-07
1.65206e-08
2.45133e-09
4.12287e-10
7.37992e-11
2.31451e-11
3.71053e-12
3.65895e-13
3.37499e-14
2.83184e-15
2.1286e-16
1.42206e-17
8.3609e-19
4.26725e-20
1.85472e-21
6.68091e-23
1.91512e-24
4.08693e-26
5.74397e-28
3.89335e-30
)
;

boundaryField
{
    leftWall
    {
        type            zeroGradient;
    }
    rightWall
    {
        type            zeroGradient;
    }
    lowerWall
    {
        type            zeroGradient;
    }
    atmosphere
    {
        type            inletOutlet;
        inletValue      nonuniform 0();
        value           nonuniform 0();
    }
    defaultFaces
    {
        type            empty;
    }
    procBoundary1to0
    {
        type            processor;
        value           nonuniform List<scalar> 
44
(
0.895949
0.918504
0.996064
0.999974
0.999997
0.999999
1
1
1
1
1
1
1
1
1
1
1
1
1
1
1
1
1
1
1.00011
0.522476
0.014964
0.000195884
5.83957e-08
4.99536e-07
1.82778e-08
5.78221e-10
2.72244e-10
7.72758e-10
9.17369e-10
8.72404e-10
4.6161e-10
3.94186e-10
4.70105e-10
4.70908e-10
5.88847e-10
6.41374e-10
2.27099e-09
1.71371e-08
)
;
    }
    procBoundary1to3
    {
        type            processor;
        value           nonuniform List<scalar> 
45
(
1.93101e-08
1.10391e-08
2.65631e-05
2.94014e-05
1.63427e-05
8.05146e-07
1.05524e-06
1.42367e-05
6.62123e-06
0.00724689
0.330012
0.91352
0.956834
0.964645
0.967177
0.889699
0.402015
0.0400465
0.00437196
0.0011446
0.000270425
5.67758e-05
1.11756e-05
2.05753e-06
3.54118e-07
5.71198e-08
8.79351e-09
1.38459e-09
2.44319e-10
6.60592e-11
1.57823e-11
2.04969e-12
2.07821e-13
1.94834e-14
1.651e-15
1.25404e-16
8.47833e-18
5.0528e-19
2.61914e-20
1.15895e-21
4.26184e-23
1.25103e-24
2.7458e-26
3.98753e-28
2.80313e-30
)
;
    }
}


// ************************************************************************* //
