/*--------------------------------*- C++ -*----------------------------------*\
| =========                 |                                                 |
| \\      /  F ield         | OpenFOAM: The Open Source CFD Toolbox           |
|  \\    /   O peration     | Version:  5.0                                   |
|   \\  /    A nd           | Web:      www.OpenFOAM.org                      |
|    \\/     M anipulation  |                                                 |
\*---------------------------------------------------------------------------*/
FoamFile
{
    version     2.0;
    format      ascii;
    class       volScalarField;
    location    "0.35";
    object      epsilon;
}
// * * * * * * * * * * * * * * * * * * * * * * * * * * * * * * * * * * * * * //

dimensions      [0 2 -3 0 0 0 0];

internalField   nonuniform List<scalar> 
1915
(
0.892424
0.726545
0.89232
1.19682
1.23711
1.97707
1.5909
2.98378
1.92428
4.02716
2.24839
5.26897
2.56182
6.45572
2.90145
7.83694
3.30177
9.59979
3.73957
12.0347
0.0496697
0.0798992
0.368733
0.0858999
0.369861
0.368235
0.395681
0.423254
0.446089
0.462429
0.469918
0.469806
0.463278
0.45149
0.43562
0.416903
0.39684
0.378111
0.368229
0.377563
0.377786
0.0864767
0.0865676
0.365774
0.368726
0.375155
0.085892
0.0859882
0.085989
0.370266
0.36858
0.367839
0.0856473
0.0859954
0.0852169
0.0841261
0.0777679
0.0663181
0.0503601
0.0289365
0.121823
0.108952
0.150185
0.17016
0.187584
0.197778
0.201633
0.203965
0.205465
0.20585
0.204112
0.200482
0.195316
0.188989
0.181884
0.174404
0.167001
0.160236
0.154708
0.148271
0.142391
0.132237
0.127732
0.129591
0.125755
0.120579
0.114659
0.108925
0.105067
0.106522
0.102998
0.098448
0.0870421
0.0797017
0.0735663
0.0666008
0.0602067
0.0520756
0.0405738
0.0222438
0.204829
0.143738
0.160965
0.173705
0.179106
0.180324
0.178839
0.176332
0.173458
0.169919
0.165373
0.159956
0.153905
0.147477
0.140922
0.134477
0.128358
0.122743
0.117681
0.112714
0.108448
0.104634
0.101502
0.099117
0.0966442
0.0943349
0.0921798
0.0901288
0.0880854
0.0860429
0.0836977
0.0809757
0.0776584
0.0735662
0.0690007
0.0635926
0.0582917
0.0523435
0.0459617
0.096541
0.307733
0.187083
0.189828
0.195471
0.195969
0.19275
0.18757
0.181642
0.175532
0.168929
0.161733
0.154113
0.146305
0.138543
0.131032
0.123946
0.117412
0.111509
0.106242
0.101527
0.0974898
0.0940668
0.0911946
0.0888353
0.0868096
0.085076
0.0834834
0.0820445
0.0806537
0.0792131
0.0776151
0.0757652
0.0735602
0.0708413
0.0675887
0.0637594
0.0597879
0.0557636
0.0527219
0.0227373
0.435973
0.244125
0.233055
0.23206
0.227855
0.220496
0.21148
0.201885
0.192219
0.182122
0.171682
0.161157
0.150826
0.140935
0.131677
0.123185
0.115538
0.108762
0.102838
0.0977163
0.0933787
0.0897518
0.086757
0.0843348
0.08236
0.080738
0.0793485
0.0781397
0.077032
0.0759382
0.074761
0.0734146
0.0718138
0.0698731
0.0675476
0.064871
0.0621278
0.0598475
0.0604602
0.0982091
0.605902
0.321361
0.292928
0.283461
0.273213
0.260841
0.247283
0.233359
0.219396
0.205002
0.190475
0.176197
0.162526
0.149748
0.138054
0.127551
0.118272
0.110191
0.103245
0.0973491
0.0924141
0.0883325
0.0850109
0.0823612
0.0802518
0.0785695
0.0772042
0.0760732
0.0750955
0.0741905
0.0732702
0.072257
0.0710812
0.0696869
0.0680539
0.0662517
0.0645622
0.0637785
0.0673526
0.109387
0.844307
0.428131
0.372881
0.350794
0.332176
0.313445
0.294436
0.275487
0.256233
0.236568
0.216957
0.197949
0.180023
0.163531
0.148682
0.135558
0.12414
0.114343
0.106037
0.0990769
0.0933112
0.0885859
0.0847859
0.0817784
0.0794143
0.0775648
0.0761143
0.0749647
0.0740275
0.0732207
0.0724631
0.0716836
0.0708243
0.0698478
0.0687582
0.0676535
0.0668531
0.0673238
0.073173
0.123766
1.19292
0.579234
0.477764
0.435876
0.40567
0.378946
0.353454
0.328617
0.303106
0.277078
0.251241
0.226375
0.203138
0.181986
0.163167
0.146742
0.132634
0.120678
0.110662
0.102358
0.0955407
0.0900003
0.0855862
0.0821068
0.0793894
0.0772868
0.0756708
0.0744304
0.0734678
0.0726967
0.0720378
0.0714243
0.0708068
0.0701613
0.0695112
0.0689806
0.0689348
0.0704836
0.0783084
0.136911
1.72117
0.797792
0.61676
0.543496
0.497114
0.460022
0.426502
0.394559
0.361501
0.327718
0.294235
0.262135
0.23231
0.205368
0.181614
0.161093
0.143658
0.129044
0.116928
0.106978
0.0988768
0.0923566
0.0871894
0.0831261
0.0799627
0.0775288
0.0756784
0.0742861
0.0732438
0.0724583
0.0718485
0.0713495
0.0709171
0.0705374
0.0702491
0.0701996
0.0708003
0.0732912
0.0828934
0.148958
2.61853
1.1369
0.814926
0.6904
0.618629
0.565369
0.519836
0.477934
0.434825
0.391003
0.347786
0.306569
0.268497
0.234338
0.20446
0.178878
0.157352
0.139488
0.124822
0.112887
0.103249
0.0955713
0.0895012
0.0847361
0.0810325
0.0781899
0.0760398
0.0744399
0.0732689
0.0724249
0.0718223
0.0713951
0.0711019
0.0709356
0.0709473
0.0713052
0.0724642
0.0757873
0.0870071
0.160047
3.63825
7.93891
3.23427
5.6995
2.79418
4.28163
2.41619
3.33546
2.11538
2.71274
1.88336
2.29377
1.70756
2.00338
1.57694
1.79868
1.48305
1.65442
1.41954
1.55489
1.48971
1.45165
1.4354
1.43726
1.45728
1.49664
1.5452
1.56801
1.58263
1.5986
1.62127
1.65965
1.72025
1.80439
1.90934
2.03002
2.1604
2.29567
2.43019
2.56509
2.70286
2.84657
2.99568
12.9166
7.61209
10.6626
8.51825
7.88334
8.88179
25.8547
11.2725
5.56306
6.63069
13.1419
15.2652
4.21075
5.05061
7.75621
9.92937
3.3302
3.97796
5.27546
6.68828
2.7372
3.22523
3.95933
4.84371
2.32855
2.69277
3.16568
3.74315
2.04283
2.31656
2.64728
3.04513
1.84206
2.05107
2.29435
2.58133
1.70194
1.86433
2.04936
2.26387
1.60644
1.73439
1.87831
2.04296
1.54466
1.64617
1.7596
1.88826
1.50904
1.58939
1.67907
1.78048
1.49438
1.55718
1.62753
1.7073
1.49874
1.5456
1.59935
1.66119
1.52304
1.55441
1.59246
1.63811
1.56445
1.58385
1.60722
1.63755
1.60139
1.6259
1.64088
1.65934
1.62417
1.65685
1.68018
1.69823
1.64775
1.6864
1.71489
1.73588
1.67419
1.71694
1.75191
1.7791
1.71304
1.75544
1.79021
1.81927
1.77239
1.81084
1.83978
1.86308
1.85552
1.88874
1.90889
1.92156
1.96125
1.99006
2.00101
2.0012
2.08594
2.1129
2.11633
2.10455
2.22534
2.25498
2.25446
2.23287
2.37642
2.41551
2.41664
2.38868
2.5383
2.59667
2.60734
2.57735
2.71504
2.80519
2.83544
2.80817
2.91057
3.05043
3.11364
3.09414
3.13273
3.34494
3.45728
3.45054
3.38437
3.69789
3.87952
3.89195
2.62957
1.63183
1.15087
0.935068
0.809392
0.720922
0.65075
0.59039
0.531088
0.472491
0.415779
0.362411
0.31363
0.270261
0.232658
0.200752
0.174158
0.152298
0.134524
0.120184
0.108732
0.0996685
0.0925195
0.0869169
0.082567
0.0792315
0.0767135
0.0748492
0.0735016
0.0725575
0.0719239
0.0715313
0.0713388
0.0713437
0.0716064
0.0723138
0.0739623
0.0780325
0.0907492
0.170415
5.62146
3.06472
1.97797
1.47184
1.18322
0.995767
0.861266
0.758189
0.667194
0.583204
0.505462
0.434481
0.370955
0.315344
0.267722
0.227753
0.19478
0.16795
0.146349
0.129097
0.115482
0.104744
0.0963004
0.0896982
0.0845787
0.0806548
0.0776936
0.0755042
0.07393
0.0728435
0.0721413
0.0717483
0.0716214
0.0717598
0.0722312
0.0732388
0.0753182
0.0800633
0.0941732
0.180178
13.1746
7.38155
4.27721
2.83358
2.03212
1.55919
1.24704
1.03688
0.876329
0.743213
0.62902
0.530214
0.445056
0.372461
0.311478
0.261054
0.219975
0.186927
0.160608
0.139896
0.123642
0.110886
0.100896
0.0931085
0.0870812
0.0824647
0.0789798
0.0764021
0.0745502
0.0732787
0.072471
0.0720435
0.0719487
0.0721857
0.072827
0.0740902
0.0765475
0.0819018
0.0973111
0.189408
11.2877
10.8941
8.78869
5.97347
3.9489
2.78123
2.03613
1.54799
1.2277
0.992725
0.809834
0.66323
0.543939
0.4464
0.366856
0.302485
0.250906
0.209968
0.177893
0.152923
0.13344
0.118239
0.106397
0.0972045
0.0901094
0.0846821
0.0805848
0.0775504
0.075367
0.0738665
0.0729156
0.07242
0.0723254
0.0726282
0.0734041
0.0748827
0.0776709
0.0835759
0.100202
0.198195
8.01493
8.88829
9.41282
8.95722
7.16151
5.1785
3.62856
2.54274
1.86062
1.41062
1.09223
0.858231
0.681365
0.544942
0.438367
0.354734
0.289216
0.238193
0.198965
0.168644
0.145168
0.126988
0.112921
0.10206
0.0937094
0.0873362
0.0825272
0.0789617
0.0763899
0.0746137
0.0734812
0.072884
0.0727584
0.0730961
0.0739737
0.0756314
0.0787078
0.0851113
0.102881
0.206617
5.82562
6.70725
7.54501
8.31651
8.62691
7.74815
6.11047
4.43573
3.03946
2.14593
1.55954
1.16058
0.88154
0.681071
0.533129
0.421836
0.337277
0.273373
0.2248
0.187658
0.159196
0.137362
0.120609
0.107762
0.0979369
0.0904624
0.0848301
0.0806515
0.0776294
0.0755291
0.0741753
0.0734426
0.0732553
0.0735984
0.0745471
0.0763503
0.0796763
0.0865308
0.10538
0.214747
4.43708
5.1424
5.87413
6.66391
7.52843
8.16352
7.90851
6.69987
5.0308
3.45304
2.36115
1.65261
1.18757
0.876967
0.662676
0.509987
0.399235
0.317689
0.256694
0.210741
0.175989
0.149644
0.129633
0.114418
0.102856
0.0941005
0.0875189
0.082637
0.0790975
0.0766218
0.0750056
0.0741031
0.073824
0.0741438
0.075135
0.0770525
0.0805928
0.0878554
0.107728
0.222651
3.53943
4.07495
4.65475
5.30668
6.07109
6.95903
7.73516
7.84806
6.97679
5.37466
3.69187
2.47583
1.67533
1.171
0.846122
0.630054
0.480874
0.374241
0.29639
0.238892
0.196132
0.164175
0.140195
0.122145
0.108539
0.0982942
0.0906209
0.0849359
0.0808065
0.0779004
0.0759794
0.0748723
0.0744714
0.0747405
0.0757467
0.07775
0.081472
0.0891036
0.109948
0.230383
2.94104
3.34519
3.79331
4.3067
4.92046
5.67307
6.56716
7.4002
7.69629
7.01799
5.4564
3.73055
2.45561
1.62868
1.11825
0.799135
0.590338
0.447307
0.34621
0.273401
0.220349
0.181368
0.152532
0.131081
0.115063
0.10309
0.0941637
0.087567
0.0827672
0.0793726
0.0771024
0.0757557
0.0752034
0.0753951
0.0763908
0.078453
0.0823269
0.0902919
0.112065
0.237994
2.53182
2.83927
3.18521
3.58495
4.06696
4.66846
5.42386
6.32474
7.17173
7.51888
6.87989
5.29642
3.57796
2.32134
1.52366
1.0397
0.738945
0.542684
0.409205
0.315909
0.249535
0.201715
0.166914
0.141376
0.122514
0.108533
0.0981741
0.0905448
0.0849881
0.0810435
0.0783786
0.0767568
0.0760242
0.076113
0.077074
0.0791703
0.0831688
0.0914347
0.114096
0.245522
2.24692
2.4836
2.7526
3.06464
3.44181
3.91639
4.52493
5.29682
6.20861
7.03956
7.32598
6.57859
4.92833
3.27741
2.1068
1.38011
0.941567
0.66794
0.489278
0.36846
0.284772
0.225792
0.18365
0.153194
0.130978
0.114672
0.102677
0.0938778
0.0874736
0.0829152
0.0798092
0.0778773
0.0769359
0.0768976
0.0778012
0.0799088
0.0840068
0.0925439
0.116059
0.253
2.0463
2.23073
2.44185
2.68751
2.98404
3.35813
3.84333
4.47333
5.27122
6.1884
6.95288
7.07164
6.11891
4.41061
2.88382
1.8473
1.21531
0.832199
0.591153
0.433499
0.327327
0.254255
0.203079
0.166708
0.140543
0.12155
0.107696
0.0975746
0.0902245
0.0849859
0.0813923
0.0791157
0.0779384
0.07775
0.0785754
0.0806734
0.084848
0.0936293
0.117966
0.260453
1.9044
2.04959
2.21672
2.41194
2.64724
2.94355
3.33014
3.8394
4.50008
5.32328
6.21648
6.85279
6.70748
5.49402
3.80087
2.44923
1.57454
1.04481
0.719976
0.513734
0.378597
0.287811
0.225551
0.18209
0.15129
0.129202
0.113238
0.101633
0.0932352
0.0872493
0.0831219
0.0804672
0.0790286
0.0786691
0.0793971
0.0814668
0.0856975
0.0946985
0.119828
0.267896
1.80479
1.91972
2.05282
2.20912
2.39764
2.63437
2.94357
3.35502
3.89805
4.5936
5.43194
6.26474
6.68482
6.1639
4.71292
3.15222
2.0214
1.31223
0.880278
0.61177
0.439965
0.327161
0.251408
0.199498
0.163288
0.137662
0.119298
0.106043
0.0964925
0.0896927
0.0849873
0.0819236
0.0802003
0.0796507
0.0802646
0.0822892
0.0865577
0.0957563
0.121652
0.275335
1.73727
1.82796
1.93399
2.05952
2.2116
2.40244
2.65148
2.985
3.43149
4.01528
4.74738
5.58433
6.28208
6.3465
5.40995
3.87167
2.53552
1.63329
1.07416
0.729411
0.512529
0.372884
0.280924
0.21905
0.176581
0.146922
0.125859
0.11078
0.0999742
0.0922968
0.0869725
0.083472
0.0814439
0.080688
0.0811733
0.0831385
0.0874287
0.096805
0.123442
0.282771
1.69591
1.76631
1.84994
1.95029
2.07308
2.22782
2.42996
2.70185
3.07028
3.56053
4.18917
4.95117
5.7311
6.16249
5.76098
4.50562
3.07194
1.99485
1.29901
0.866679
0.596697
0.425266
0.31424
0.240799
0.191194
0.156934
0.132876
0.115806
0.103647
0.0950345
0.0890559
0.0850954
0.0827458
0.0817706
0.0821158
0.0840098
0.0883082
0.0978447
0.125199
0.290192
1.67813
1.73022
1.7944
1.87329
1.97155
2.09692
2.26181
2.48491
2.79055
3.20389
3.74407
4.41572
5.17505
5.79279
5.80617
4.92917
3.56602
2.37034
1.54575
1.0208
0.691697
0.484094
0.351272
0.264698
0.206991
0.167611
0.140278
0.121062
0.107465
0.0978699
0.0912093
0.0867716
0.0840889
0.0828852
0.0830819
0.0848957
0.0891911
0.0988723
0.126922
0.297581
1.68355
1.71784
1.76376
1.82348
1.9004
2.00083
2.13512
2.31903
2.57409
2.92453
3.39063
3.98104
4.6805
5.36024
5.64368
5.13219
3.96108
2.72614
1.79924
1.18568
0.795191
0.548451
0.39163
0.290526
0.223769
0.178807
0.147955
0.126469
0.11137
0.100758
0.0933982
0.0884738
0.0854519
0.084015
0.0840582
0.0857859
0.0900698
0.0998826
0.128605
0.304911
1.70993
1.72822
1.75653
1.79787
1.85539
1.93384
2.04197
2.19343
2.40725
2.70608
3.11045
3.63133
4.26224
4.93503
5.37557
5.15714
4.21634
3.03066
2.04084
1.35236
0.903208
0.616639
0.434662
0.317611
0.241177
0.190299
0.155762
0.131925
0.115288
0.103646
0.0955821
0.0901705
0.0868101
0.0851402
0.0850291
0.0866677
0.0909343
0.100868
0.130241
0.312148
1.74974
1.75881
1.77156
1.79516
1.8338
1.8921
1.97702
2.10061
2.28001
2.53611
2.88903
3.35089
3.91849
4.55423
5.0686
5.06101
4.34358
3.25637
2.25283
1.51049
1.01068
0.686386
0.478378
0.345065
0.258716
0.201789
0.163512
0.137307
0.119134
0.106472
0.0977147
0.0918261
0.0881354
0.0862382
0.085976
0.087526
0.0917724
0.101818
0.131819
0.319249
1.79536
1.8006
1.80603
1.81407
1.83422
1.87278
1.93636
2.03521
2.18502
2.40521
2.71499
3.12681
3.63899
4.22716
4.76156
4.8944
4.36713
3.39743
2.41837
1.65
1.11102
0.752584
0.520559
0.371732
0.275753
0.212916
0.170982
0.142472
0.122812
0.109166
0.0997454
0.0934019
0.0893971
0.0872844
0.0868788
0.0883441
0.09257
0.10272
0.133326
0.326167
1.84195
1.85135
1.85136
1.85188
1.85507
1.87384
1.91675
1.993
2.11672
2.30614
2.57947
2.94878
3.41295
3.95205
4.47615
4.69675
4.31546
3.46286
2.52875
1.75637
1.1941
0.810643
0.558799
0.396326
0.291583
0.223274
0.17793
0.147267
0.126218
0.111657
0.101621
0.094857
0.0905632
0.0882526
0.0877156
0.0891038
0.0933117
0.103562
0.134749
0.332847
1.88353
1.89964
1.9045
1.90013
1.89385
1.8932
1.91533
1.97023
2.07049
2.23315
2.47539
2.80847
3.23105
3.72438
4.22232
4.48834
4.21168
3.46413
2.5872
1.82832
1.25702
0.857688
0.591127
0.417657
0.305512
0.232455
0.184106
0.151532
0.129247
0.113871
0.103287
0.0961503
0.0916008
0.0891161
0.0884643
0.0897861
0.0939813
0.10433
0.13607
0.339234
1.93219
1.94413
1.9541
1.95524
1.94419
1.92818
1.92928
1.96333
2.0422
2.18137
2.39695
2.69902
3.08534
3.53686
4.00102
4.28076
4.07204
3.41276
2.59863
1.86665
1.29849
0.891952
0.616085
0.434736
0.316923
0.240081
0.189278
0.155118
0.131798
0.115737
0.104692
0.0972418
0.0924783
0.0898488
0.0891029
0.0903722
0.0945625
0.105008
0.137275
0.345266
1.99805
1.99891
2.00488
2.00769
1.99999
1.97472
1.95534
1.96884
2.02792
2.14648
2.33917
2.61454
2.9688
3.38168
3.80771
4.07822
3.90839
3.32085
2.57058
1.87426
1.3187
0.9126
0.632734
0.446836
0.325324
0.245836
0.193243
0.157892
0.133782
0.117191
0.105788
0.0980947
0.093166
0.0904262
0.0896106
0.0908442
0.0950395
0.105582
0.138347
0.350884
2.08645
2.07291
2.06827
2.06471
2.05885
2.0257
1.98841
1.98301
2.02395
2.1245
2.29761
2.5499
2.87542
3.25219
3.6377
3.8832
3.73041
3.20009
2.51085
1.85465
1.31857
0.919443
0.640582
0.453499
0.330374
0.249488
0.195844
0.159749
0.135124
0.118179
0.106535
0.0986772
0.0936382
0.0908268
0.0899689
0.0911857
0.0953979
0.106039
0.139272
0.356031
2.20017
2.17005
2.14952
2.13185
2.1159
2.07653
2.02586
2.00297
2.02706
2.11182
2.26826
2.50048
2.79991
3.14267
3.48676
3.69664
3.54513
3.05899
2.42534
1.81078
1.29929
0.912776
0.639563
0.454553
0.331906
0.250903
0.196982
0.160616
0.135771
0.118663
0.106902
0.0989646
0.0938742
0.091033
0.0901624
0.0913834
0.0956257
0.106368
0.140035
0.360653
2.34209
2.29268
2.25036
2.21111
2.1758
2.12897
2.0673
2.02597
2.03412
2.1051
2.2474
2.46196
2.73714
3.04706
3.3494
3.51649
3.35434
2.9018
2.31787
1.74534
1.2625
0.893479
0.630067
0.450131
0.329937
0.250055
0.196624
0.16046
0.135695
0.118617
0.106869
0.09894
0.0938597
0.0910321
0.0901798
0.0914269
0.0957135
0.10656
0.140627
0.364702
2.51701
2.44405
2.37281
2.30447
2.24542
2.18364
2.10511
2.04652
2.04137
2.10104
2.23148
2.4301
2.6819
2.95918
3.21824
3.33609
3.15762
2.73186
2.19267
1.66193
1.21076
0.863134
0.612961
0.440661
0.324661
0.247027
0.194798
0.159289
0.134894
0.118036
0.106429
0.0985961
0.0935874
0.0908172
0.0900147
0.0913101
0.0956554
0.106609
0.141039
0.36814
2.73249
2.6287
2.51889
2.41215
2.32366
2.23628
2.133
2.06099
2.04572
2.09663
2.21711
2.4007
2.62905
2.87292
3.08633
3.15161
2.95572
2.55278
2.05449
1.56496
1.14735
0.823849
0.589475
0.426814
0.316428
0.241995
0.191592
0.157146
0.133389
0.116931
0.105586
0.097935
0.0930579
0.0903878
0.0896658
0.0910315
0.0954497
0.106514
0.141268
0.370938
2.9985
2.85162
2.68973
2.53326
2.40377
2.27972
2.15154
2.0681
2.04515
2.08948
2.20117
2.36974
2.5737
2.78272
2.94758
2.96123
2.75092
2.36866
1.90827
1.45895
1.07571
0.777928
0.561017
0.409399
0.305688
0.235207
0.187145
0.154108
0.131226
0.115329
0.104359
0.0969686
0.0922793
0.0897498
0.0891373
0.0905939
0.0950985
0.106275
0.141313
0.373078
3.32551
3.11527
2.88257
2.66303
2.47605
2.30519
2.1587
2.06712
2.03874
2.07796
2.18106
2.33359
2.51167
2.68414
2.79882
2.76667
2.54651
2.18358
1.75861
1.34813
0.999119
0.727632
0.529019
0.389274
0.29294
0.226951
0.181624
0.150278
0.128468
0.113273
0.102777
0.0957178
0.0912674
0.0889152
0.0884387
0.0900052
0.0946082
0.105898
0.141178
0.374552
3.72255
3.41878
3.09115
2.79553
2.5398
2.32421
2.16129
2.06117
2.02768
2.06171
2.15501
2.28957
2.44001
2.57457
2.64124
2.57264
2.34585
2.00117
1.60945
1.23613
0.920473
0.675019
0.494835
0.367287
0.278699
0.217537
0.175219
0.145775
0.125193
0.110815
0.100878
0.0942119
0.0900454
0.0879029
0.0875856
0.089278
0.0939893
0.105392
0.140871
0.375364
)
;

boundaryField
{
    leftWall
    {
        Cmu             0.09;
        kappa           0.41;
        E               9.8;
        type            epsilonWallFunction;
        value           nonuniform 0();
    }
    rightWall
    {
        Cmu             0.09;
        kappa           0.41;
        E               9.8;
        type            epsilonWallFunction;
        value           nonuniform List<scalar> 
43
(
0.0289365
0.0222438
0.096541
0.0227373
0.0982091
0.109387
0.123766
0.136911
0.148958
0.160047
0.170415
0.180178
0.189408
0.198195
0.206617
0.214747
0.222651
0.230383
0.237994
0.245522
0.253
0.260453
0.267896
0.275335
0.282771
0.290192
0.297581
0.304911
0.312148
0.319249
0.326167
0.332847
0.339234
0.345266
0.350884
0.356031
0.360653
0.364702
0.36814
0.370938
0.373078
0.374552
0.375364
)
;
    }
    lowerWall
    {
        Cmu             0.09;
        kappa           0.41;
        E               9.8;
        type            epsilonWallFunction;
        value           nonuniform List<scalar> 
66
(
0.892424
0.726545
0.726545
1.19682
1.97707
2.98378
4.02716
5.26897
6.45572
7.83694
9.59979
12.0347
12.9166
7.61209
10.6626
8.51825
0.0496697
0.121823
0.204829
0.307733
0.435973
0.605902
0.844307
1.19292
1.72117
2.61853
0.0496697
0.0798992
0.368733
0.0858999
0.369861
0.368235
0.395681
0.423254
0.446089
0.462429
0.469918
0.469806
0.463278
0.45149
0.43562
0.416903
0.39684
0.378111
0.368229
0.377563
0.377786
0.0864767
0.0865676
0.365774
0.368726
0.375155
0.085892
0.0859882
0.085989
0.370266
0.36858
0.367839
0.0856473
0.0859954
0.0852169
0.0841261
0.0777679
0.0663181
0.0503601
0.0289365
)
;
    }
    atmosphere
    {
        type            inletOutlet;
        inletValue      nonuniform 0();
        value           nonuniform 0();
    }
    defaultFaces
    {
        type            empty;
    }
    procBoundary1to0
    {
        type            processor;
        value           nonuniform List<scalar> 
44
(
1.01351
1.09996
1.27685
1.39367
1.50071
1.61365
1.73707
1.87411
2.02082
2.15314
2.18962
2.1158
1.97951
1.82972
1.68976
1.56838
1.46869
1.39134
1.33581
1.30101
1.38155
1.38155
1.36511
1.36666
1.38462
1.42068
1.47335
1.51256
1.52309
1.53054
1.53896
1.55664
1.59238
1.65068
1.73118
1.82999
1.94095
2.05616
2.16768
2.271
2.36453
2.44879
2.5249
2.59201
)
;
    }
    procBoundary1to3
    {
        type            processor;
        value           nonuniform List<scalar> 
45
(
3.14154
3.65671
4.10243
4.38402
4.42928
4.20029
3.76659
3.31838
2.93705
2.61159
2.35263
2.16808
2.05576
2.01508
2.04165
2.12243
2.23641
2.35752
2.45396
2.47914
2.3826
2.15145
1.82431
1.46395
1.12592
0.842152
0.621815
0.459637
0.344201
0.263452
0.207278
0.168132
0.140731
0.121493
0.108021
0.0987105
0.0924888
0.0886437
0.0867382
0.0865995
0.0884308
0.0932572
0.104769
0.140401
0.37553
)
;
    }
}


// ************************************************************************* //
