/*--------------------------------*- C++ -*----------------------------------*\
| =========                 |                                                 |
| \\      /  F ield         | OpenFOAM: The Open Source CFD Toolbox           |
|  \\    /   O peration     | Version:  5.0                                   |
|   \\  /    A nd           | Web:      www.OpenFOAM.org                      |
|    \\/     M anipulation  |                                                 |
\*---------------------------------------------------------------------------*/
FoamFile
{
    version     2.0;
    format      ascii;
    class       volScalarField;
    location    "0.35";
    object      k;
}
// * * * * * * * * * * * * * * * * * * * * * * * * * * * * * * * * * * * * * //

dimensions      [0 2 -2 0 0 0 0];

internalField   nonuniform List<scalar> 
1915
(
0.0305031
0.0265159
0.0692603
0.0445623
0.111421
0.0622091
0.146481
0.0818418
0.177815
0.0998964
0.20662
0.119527
0.233743
0.136863
0.261271
0.155741
0.2914
0.178284
0.32528
0.207282
0.00963113
0.0155188
0.0165935
0.016905
0.0169547
0.0168953
0.0177596
0.0185816
0.0192486
0.0197262
0.0199486
0.0199549
0.0197782
0.0194486
0.0189957
0.0184507
0.0178532
0.017277
0.0169311
0.0171078
0.0170516
0.0171974
0.0171581
0.0167312
0.0167626
0.0169005
0.0168773
0.0169728
0.0169411
0.016641
0.0165567
0.0165058
0.0167528
0.0167858
0.016602
0.0163369
0.0150828
0.0128506
0.00975402
0.0074234
0.010083
0.0219315
0.0272291
0.0306686
0.0331505
0.0354126
0.0372079
0.0386096
0.0396613
0.0403258
0.0406411
0.0406403
0.0403561
0.039824
0.039083
0.038176
0.0371509
0.0360605
0.0349594
0.0338102
0.0327048
0.0317247
0.0307384
0.0297999
0.0289903
0.0282322
0.0276392
0.0269528
0.0262879
0.0255867
0.0249137
0.0241944
0.0234264
0.0225432
0.0215217
0.0202929
0.0184308
0.0157212
0.011996
0.00842117
0.0142873
0.0297626
0.0372797
0.0419701
0.0451698
0.0475195
0.0492537
0.0505226
0.0514212
0.0519329
0.0520809
0.0518928
0.0513998
0.0506382
0.0496495
0.0484797
0.0471777
0.0457934
0.0443709
0.0429261
0.0415228
0.0401836
0.0389168
0.0377499
0.0366744
0.0356739
0.0347424
0.0338386
0.0329305
0.0320022
0.0310373
0.0299924
0.0288356
0.0275011
0.0259543
0.0240987
0.0217326
0.0185797
0.0141916
0.00855926
0.0187465
0.0379788
0.0468712
0.052228
0.0556447
0.0578784
0.0593545
0.0603243
0.060926
0.0611458
0.0610082
0.0605402
0.0597731
0.0587434
0.0574927
0.0560667
0.0545132
0.0528792
0.051208
0.0495339
0.0479006
0.0463317
0.0448498
0.043482
0.0422185
0.0410451
0.039938
0.0388746
0.0378185
0.0367447
0.0356167
0.0343928
0.0330269
0.0314609
0.0296323
0.0274444
0.0247424
0.0212493
0.016363
0.00868081
0.02363
0.0468935
0.056928
0.0626436
0.0660176
0.0679837
0.0690925
0.0696658
0.0698691
0.06969
0.069166
0.0683291
0.0672128
0.0658548
0.0642967
0.0625831
0.0607598
0.0588713
0.0569595
0.0550616
0.0532132
0.0514387
0.0497624
0.0482113
0.0467774
0.0454459
0.0441933
0.0429939
0.0418128
0.0406165
0.0393646
0.0380108
0.036503
0.0347809
0.0327717
0.0303761
0.027442
0.0236862
0.018387
0.00871695
0.0293812
0.0570026
0.0679371
0.0737138
0.0768048
0.0783559
0.0790031
0.0791033
0.0788205
0.0781528
0.0771546
0.0758658
0.0743246
0.0725718
0.0706502
0.0686037
0.0664762
0.0643093
0.062142
0.0600091
0.0579413
0.055961
0.0540941
0.0523636
0.0507621
0.0492753
0.0478808
0.0465508
0.0452503
0.04394
0.0425783
0.0411148
0.0394936
0.0376506
0.0355075
0.0329602
0.029849
0.0258741
0.0202479
0.00937679
0.0365658
0.0688634
0.0801464
0.085576
0.0881238
0.0891235
0.0892396
0.0888319
0.0879891
0.0867685
0.0852295
0.0834201
0.0813862
0.0791744
0.0768311
0.0744014
0.0719278
0.0694494
0.0670012
0.0646138
0.062313
0.0601177
0.0580562
0.0561428
0.0543704
0.0527251
0.0511853
0.0497223
0.0483005
0.0468782
0.0454111
0.0438461
0.0421243
0.040178
0.0379244
0.035253
0.0319934
0.0278216
0.0218682
0.0101809
0.045896
0.0831496
0.0936316
0.0981224
0.0998606
0.10021
0.0997641
0.0988302
0.0974179
0.0956183
0.0934999
0.0911221
0.0885416
0.0858144
0.0829943
0.0801303
0.0772659
0.0744381
0.0716782
0.0690117
0.0664591
0.0640358
0.0617706
0.0596667
0.0577166
0.0559065
0.054215
0.0526134
0.0510656
0.0495289
0.0479559
0.0462917
0.0444746
0.0424334
0.0400811
0.0373002
0.0339085
0.0295563
0.0232991
0.0108921
0.0584017
0.100623
0.108445
0.111192
0.111877
0.111521
0.110518
0.109069
0.107102
0.104723
0.10201
0.0990352
0.0958693
0.0925809
0.0892347
0.0858877
0.0825871
0.07937
0.0762644
0.0732909
0.0704637
0.0677996
0.0653175
0.0630125
0.0608756
0.0588923
0.0570414
0.055294
0.0536138
0.0519576
0.0502757
0.0485111
0.0465998
0.0444674
0.0420221
0.0391396
0.0356257
0.0311064
0.0245708
0.011525
0.077064
0.123282
0.125145
0.125118
0.12446
0.123283
0.121657
0.119651
0.117106
0.114125
0.110797
0.107201
0.103418
0.0995307
0.0956153
0.09174
0.0879587
0.0843113
0.0808242
0.0775135
0.0743885
0.0714687
0.068754
0.0662351
0.0639006
0.0617346
0.0597153
0.0578138
0.0559939
0.054212
0.0524164
0.0505484
0.0485416
0.0463184
0.0437825
0.0408028
0.0371735
0.0324983
0.0257079
0.0120933
0.349555
0.25362
0.360839
0.302909
0.367167
0.335816
0.371931
0.354129
0.37583
0.365227
0.379165
0.372688
0.382294
0.378297
0.385615
0.383174
0.389483
0.38802
0.394156
0.393243
0.399056
0.405533
0.412662
0.420428
0.429234
0.439519
0.449882
0.454934
0.457405
0.458633
0.459214
0.460249
0.462391
0.465484
0.468859
0.471697
0.473341
0.473542
0.472632
0.471479
0.471212
0.472855
0.476873
0.182649
0.127162
0.159192
0.136949
0.235692
0.228513
0.461408
0.334506
0.281588
0.254918
0.335069
0.403766
0.31708
0.284741
0.296385
0.332359
0.341062
0.313042
0.299232
0.304075
0.356795
0.335208
0.315608
0.304286
0.367522
0.351383
0.333046
0.316422
0.375606
0.363454
0.347994
0.331244
0.382502
0.373136
0.360395
0.345249
0.389022
0.381562
0.370978
0.357705
0.39559
0.389388
0.380399
0.368779
0.402402
0.396963
0.389085
0.378775
0.40954
0.404476
0.397303
0.387953
0.417046
0.412065
0.405263
0.396549
0.425195
0.419926
0.413189
0.404826
0.434505
0.428548
0.421475
0.41311
0.444795
0.438304
0.430624
0.421917
0.452938
0.448239
0.440543
0.431608
0.457474
0.454932
0.449511
0.441709
0.460574
0.45975
0.456052
0.449768
0.462319
0.462854
0.461004
0.456623
0.463878
0.465013
0.463973
0.460859
0.466126
0.467233
0.466147
0.463214
0.469191
0.469999
0.468418
0.465008
0.472608
0.47314
0.471004
0.466915
0.475715
0.476212
0.473738
0.469104
0.478003
0.47889
0.4765
0.471661
0.479374
0.481247
0.479517
0.474914
0.480313
0.483921
0.483527
0.479608
0.481889
0.488113
0.489793
0.48693
0.485491
0.495399
0.499944
0.498376
0.492421
0.507349
0.515608
0.51543
0.503338
0.524918
0.537878
0.539182
0.123593
0.152136
0.14611
0.142219
0.139397
0.136781
0.13407
0.131167
0.127815
0.124081
0.120035
0.115749
0.111298
0.106765
0.102234
0.0977831
0.0934741
0.0893517
0.0854431
0.08176
0.0783165
0.0751184
0.0721517
0.0694029
0.066857
0.0644962
0.0622976
0.0602321
0.0582635
0.0563478
0.0544316
0.0524549
0.0503489
0.0480328
0.0454059
0.0423302
0.0385894
0.0337667
0.0267406
0.0126136
0.243119
0.207211
0.183391
0.170293
0.161888
0.155486
0.150012
0.145066
0.140146
0.135149
0.130061
0.124886
0.119646
0.114388
0.109179
0.104096
0.099206
0.094559
0.0901842
0.0860935
0.0823064
0.0788019
0.07556
0.0725618
0.0697882
0.0672184
0.0648279
0.0625868
0.0604587
0.0583997
0.0563546
0.0542621
0.0520514
0.0496385
0.0469182
0.0437461
0.0398958
0.034932
0.0276864
0.0130947
0.400406
0.322939
0.262551
0.226467
0.20311
0.186853
0.174241
0.164353
0.15595
0.148426
0.141486
0.134931
0.128618
0.122473
0.116487
0.110702
0.105172
0.0999484
0.0950611
0.0905402
0.0863745
0.0825345
0.0789933
0.0757256
0.0727075
0.0699143
0.0673193
0.0648914
0.0625937
0.0603818
0.0581993
0.0559838
0.0536625
0.0511483
0.0483317
0.0450622
0.0411039
0.0360051
0.0285552
0.0135424
0.37558
0.397816
0.378056
0.326892
0.278415
0.243212
0.216097
0.194886
0.178948
0.166194
0.155636
0.146613
0.138598
0.131219
0.124266
0.117665
0.111418
0.105554
0.100121
0.0951317
0.0905503
0.0863429
0.0824758
0.078917
0.0756364
0.0726047
0.0697922
0.067166
0.0646883
0.0623137
0.059985
0.0576388
0.0552003
0.0525797
0.049663
0.0462942
0.0422288
0.0369998
0.0293586
0.0139625
0.32628
0.358395
0.393865
0.407423
0.379293
0.332709
0.286437
0.246074
0.215538
0.192602
0.17502
0.16134
0.150326
0.141001
0.132706
0.125087
0.118003
0.111428
0.105409
0.0998994
0.0948599
0.0902501
0.0860285
0.0821553
0.0785931
0.0753073
0.0722639
0.0694277
0.0667603
0.0642124
0.0617282
0.0592432
0.0566806
0.0539477
0.0509268
0.0474562
0.0432835
0.037928
0.0301065
0.0143601
0.305489
0.321327
0.351309
0.390499
0.42144
0.415648
0.378112
0.327137
0.274741
0.234195
0.203953
0.181675
0.165186
0.152517
0.142146
0.133134
0.125013
0.117655
0.110967
0.104874
0.0993278
0.0942765
0.0896692
0.0854565
0.0815928
0.0780364
0.0747485
0.0716907
0.0688226
0.0660919
0.0634433
0.0608112
0.0581172
0.055266
0.0521361
0.0485606
0.0442798
0.0388004
0.0308077
0.0147397
0.305144
0.305264
0.319612
0.348401
0.389348
0.428293
0.438732
0.412316
0.359726
0.298917
0.248803
0.21185
0.185612
0.167028
0.153198
0.142098
0.132648
0.124323
0.116845
0.11009
0.103977
0.09844
0.0934126
0.0888337
0.0846473
0.0808037
0.0772576
0.0739664
0.0708869
0.0679641
0.0651421
0.0623547
0.059522
0.0565462
0.0533022
0.0496183
0.045228
0.0396263
0.0314697
0.0151048
0.314885
0.304819
0.305534
0.319808
0.348681
0.390368
0.433039
0.453388
0.435416
0.382408
0.314978
0.257831
0.215522
0.186702
0.166939
0.152557
0.141185
0.131562
0.123115
0.115585
0.108833
0.102757
0.0972706
0.0922967
0.0877657
0.0836177
0.0797999
0.0762641
0.0729629
0.0698384
0.0668344
0.0638837
0.0609051
0.0577982
0.0544348
0.0506387
0.0461368
0.0404135
0.0320988
0.0154586
0.328035
0.312989
0.304506
0.306494
0.321801
0.351583
0.393973
0.438216
0.463251
0.449175
0.394092
0.321546
0.259623
0.214969
0.185331
0.165466
0.151042
0.13957
0.12987
0.121408
0.113919
0.107241
0.101253
0.0958522
0.0909536
0.0864839
0.0823813
0.0785912
0.0750572
0.071722
0.0685277
0.0654062
0.0622746
0.0590304
0.0555423
0.0516298
0.0470139
0.041169
0.0327004
0.0158037
0.341422
0.324786
0.311217
0.30453
0.308425
0.325612
0.357049
0.400454
0.445023
0.470474
0.454867
0.394739
0.318454
0.255024
0.210818
0.182124
0.162845
0.14864
0.137249
0.127624
0.119268
0.111908
0.105366
0.0995042
0.0942137
0.089405
0.0850045
0.0809499
0.0771736
0.0736193
0.0702273
0.0669279
0.0636367
0.0602493
0.0566313
0.0525983
0.0478657
0.0418985
0.033279
0.0161422
0.353932
0.337434
0.321668
0.309682
0.305158
0.31159
0.331396
0.365167
0.409895
0.453743
0.475435
0.452416
0.384795
0.307155
0.245576
0.204165
0.177462
0.159184
0.14544
0.134318
0.124916
0.116773
0.109616
0.103254
0.0975455
0.0923803
0.0876695
0.0833387
0.0793123
0.075532
0.0719357
0.0684522
0.0649956
0.0614595
0.0577068
0.0535493
0.0486971
0.0426063
0.0338383
0.0164758
0.365335
0.349668
0.333379
0.31863
0.308525
0.306665
0.316275
0.339338
0.375932
0.421804
0.462834
0.476279
0.441353
0.365961
0.289867
0.233046
0.195926
0.171735
0.154695
0.141604
0.130912
0.121854
0.114005
0.107099
0.100945
0.095406
0.0903748
0.0857554
0.0814714
0.077459
0.0736531
0.0699804
0.0663535
0.062664
0.0587722
0.0544865
0.0495118
0.0432962
0.034381
0.0168057
0.375698
0.361032
0.345039
0.329154
0.315728
0.307975
0.309383
0.322786
0.349572
0.388997
0.43471
0.470153
0.470814
0.420584
0.340263
0.26901
0.219112
0.186885
0.165314
0.149618
0.137313
0.127169
0.118538
0.111034
0.104406
0.0984749
0.0931098
0.0881933
0.0836456
0.0793964
0.0753769
0.0715113
0.0677103
0.0638635
0.0598291
0.0554119
0.0503123
0.0439703
0.0349088
0.0171327
0.385196
0.371457
0.356077
0.339968
0.324799
0.313171
0.30839
0.313722
0.33146
0.362209
0.403982
0.447784
0.47344
0.455398
0.389377
0.309988
0.247167
0.205089
0.177595
0.15851
0.144182
0.132741
0.123215
0.115054
0.107918
0.101579
0.0958624
0.0906419
0.0858262
0.0813375
0.077102
0.0730411
0.0690635
0.0650569
0.0608772
0.0563261
0.0510994
0.0446298
0.0354229
0.0174573
0.394085
0.381083
0.366354
0.350451
0.334515
0.32052
0.311328
0.310258
0.32019
0.342702
0.377493
0.42072
0.458928
0.467787
0.427399
0.35142
0.278934
0.226377
0.191729
0.168404
0.151576
0.138586
0.128033
0.119148
0.111468
0.104699
0.0986183
0.093088
0.0880018
0.0832725
0.0788205
0.0745638
0.0704086
0.066241
0.0619145
0.057228
0.0518728
0.0452748
0.0359235
0.0177794
0.402677
0.390174
0.375979
0.36041
0.344225
0.328872
0.316683
0.310743
0.314217
0.329389
0.356921
0.395328
0.437115
0.463115
0.44859
0.388188
0.311915
0.250074
0.207655
0.179346
0.159529
0.144713
0.132988
0.123302
0.115045
0.107813
0.101358
0.0955146
0.0901577
0.0851889
0.0805219
0.0760706
0.0717388
0.0674104
0.0629369
0.0581146
0.0526306
0.0459042
0.0364098
0.0180988
0.411382
0.399047
0.385181
0.369896
0.353674
0.337556
0.323381
0.313854
0.312155
0.321038
0.341914
0.374306
0.414491
0.449368
0.454911
0.414087
0.342628
0.274713
0.224933
0.191234
0.168017
0.151109
0.138062
0.127499
0.118611
0.110896
0.10406
0.0979021
0.0922766
0.0870717
0.0821934
0.0775508
0.0730449
0.0685577
0.0639387
0.0589816
0.0533696
0.0465157
0.0368804
0.0184147
0.420644
0.408075
0.394221
0.379068
0.362832
0.346242
0.330731
0.318599
0.312852
0.316488
0.331495
0.358109
0.394392
0.43212
0.450901
0.428676
0.368043
0.298399
0.242741
0.203774
0.176939
0.15773
0.143227
0.131711
0.122135
0.11392
0.106698
0.100228
0.0943387
0.0889036
0.0838198
0.0789912
0.0743158
0.0696737
0.0649124
0.059823
0.0540851
0.0471059
0.0373332
0.0187261
0.430493
0.417547
0.403404
0.38811
0.371772
0.354813
0.338337
0.324284
0.315399
0.314739
0.32469
0.346079
0.377763
0.41475
0.441346
0.43402
0.385907
0.319345
0.26002
0.216489
0.186096
0.164492
0.148447
0.13587
0.125577
0.116851
0.109244
0.102468
0.0963223
0.0906653
0.0853841
0.080377
0.0755388
0.0707474
0.0658487
0.0606313
0.0547713
0.0476705
0.0377651
0.0190317
0.440136
0.427418
0.412922
0.397251
0.380587
0.363238
0.345979
0.330441
0.319108
0.314966
0.320646
0.337432
0.364682
0.399199
0.429451
0.432916
0.396778
0.335899
0.275724
0.228792
0.195222
0.171277
0.153576
0.13991
0.128889
0.119652
0.111668
0.104595
0.098204
0.092336
0.0868677
0.0816917
0.0766993
0.0717665
0.0667371
0.0613977
0.0554212
0.0482042
0.0381726
0.0193298
0.448524
0.436645
0.422645
0.406604
0.389406
0.371498
0.353509
0.336749
0.323461
0.316506
0.318629
0.33144
0.354686
0.386055
0.417158
0.427879
0.40188
0.347612
0.288788
0.240079
0.203928
0.177756
0.158477
0.143751
0.132016
0.122284
0.113937
0.106581
0.0999596
0.0938941
0.0882513
0.0829179
0.077782
0.0727172
0.067566
0.0621126
0.0560269
0.048701
0.0385517
0.0196187
0.454855
0.444888
0.431566
0.416011
0.398255
0.379582
0.360783
0.342946
0.328049
0.31882
0.318021
0.327469
0.347201
0.375309
0.40562
0.42092
0.402677
0.354897
0.298565
0.249372
0.211546
0.183643
0.162999
0.147304
0.134904
0.124706
0.116018
0.1084
0.101565
0.0953174
0.0895147
0.0840375
0.0787705
0.0735855
0.0683229
0.0627654
0.0565799
0.0491543
0.0388978
0.0198961
0.458133
0.450455
0.439206
0.424449
0.406964
0.387408
0.367643
0.348773
0.332523
0.321455
0.318298
0.324967
0.34169
0.366766
0.395408
0.413072
0.400365
0.358332
0.305163
0.256527
0.217868
0.188749
0.167011
0.150487
0.137494
0.126876
0.117879
0.110023
0.102995
0.0965842
0.0906382
0.0850325
0.0796487
0.0743567
0.0689953
0.0633455
0.0570713
0.0495572
0.0392064
0.0201601
0.459852
0.453052
0.443959
0.431376
0.414724
0.394749
0.373888
0.353965
0.336558
0.324022
0.319013
0.323454
0.337663
0.360037
0.38661
0.404945
0.395782
0.35851
0.308805
0.261535
0.222778
0.192945
0.170412
0.153225
0.139737
0.128756
0.11949
0.111426
0.104228
0.0976737
0.0916027
0.0858854
0.0804007
0.0750166
0.0695707
0.0638419
0.0574922
0.0499029
0.0394725
0.0204084
0.461227
0.454464
0.446406
0.435562
0.420812
0.401126
0.379226
0.358247
0.339846
0.326184
0.319788
0.322519
0.334679
0.354679
0.378999
0.396763
0.389548
0.356081
0.309896
0.264532
0.226253
0.196153
0.173124
0.15546
0.141587
0.130314
0.120824
0.112583
0.105242
0.0985669
0.0923904
0.0865798
0.0810115
0.0755519
0.0700371
0.0642446
0.0578342
0.0501846
0.0396919
0.0206387
0.462847
0.455803
0.448021
0.437986
0.424954
0.405752
0.383151
0.36132
0.342119
0.327658
0.320314
0.32182
0.332369
0.350315
0.372339
0.388675
0.382186
0.351699
0.308879
0.265697
0.228312
0.19833
0.175094
0.157145
0.143009
0.13152
0.121857
0.113477
0.10602
0.0992469
0.092986
0.0871014
0.0814679
0.0759504
0.070384
0.0645443
0.0580895
0.0503965
0.0398602
0.0208491
0.465009
0.457557
0.449519
0.439438
0.426729
0.408276
0.385548
0.36304
0.343198
0.328233
0.320356
0.32109
0.330437
0.346637
0.366423
0.380757
0.374102
0.345855
0.306084
0.265168
0.22898
0.199454
0.176288
0.158249
0.143978
0.132353
0.122572
0.11409
0.106547
0.0997001
0.0933763
0.087438
0.0817587
0.0762022
0.0706022
0.0647332
0.0582517
0.0505333
0.0399741
0.0210374
0.468083
0.460074
0.451237
0.440349
0.42697
0.409162
0.386596
0.363316
0.342958
0.327775
0.319756
0.320128
0.328622
0.34333
0.360974
0.372913
0.365391
0.338781
0.301706
0.263063
0.228312
0.199542
0.176705
0.158763
0.14448
0.132802
0.122956
0.114411
0.106811
0.099916
0.0935517
0.0875806
0.0818755
0.0762994
0.070685
0.0648054
0.0583157
0.0505911
0.0400307
0.0212022
0.472718
0.463858
0.453608
0.44121
0.426753
0.408736
0.385689
0.361795
0.341258
0.326212
0.318429
0.318791
0.326701
0.34009
0.355598
0.364754
0.356025
0.330665
0.295975
0.259568
0.22643
0.198663
0.176375
0.158696
0.144517
0.132863
0.123005
0.114434
0.106807
0.0998884
0.0935061
0.0875232
0.0818128
0.0762373
0.070628
0.064757
0.0582785
0.0505675
0.0400284
0.0213419
0.479878
0.46959
0.457109
0.442353
0.426287
0.406893
0.382513
0.358442
0.338122
0.323581
0.316376
0.316996
0.324494
0.336641
0.349934
0.356069
0.346058
0.321724
0.289169
0.254937
0.223522
0.196932
0.175363
0.158082
0.144103
0.132541
0.122718
0.114158
0.106533
0.0996151
0.093237
0.0872639
0.0815688
0.076014
0.0704297
0.0645868
0.0581388
0.0504615
0.0399664
0.0214557
0.490724
0.477998
0.462154
0.44403
0.425231
0.403341
0.377599
0.353557
0.333758
0.32005
0.313687
0.314726
0.321872
0.332762
0.343671
0.346776
0.335666
0.312229
0.281598
0.24945
0.219794
0.194485
0.173749
0.156965
0.143264
0.131849
0.122105
0.113588
0.105991
0.0990979
0.0927464
0.0868041
0.0811452
0.0756312
0.0700917
0.0642962
0.0578979
0.050274
0.0398452
0.0215429
0.506314
0.489523
0.468798
0.446159
0.423021
0.397638
0.371205
0.347544
0.328558
0.315933
0.310552
0.312034
0.318777
0.328316
0.336689
0.337051
0.325113
0.302463
0.273559
0.243372
0.215453
0.191462
0.171622
0.155399
0.142029
0.130806
0.121175
0.112731
0.105188
0.0983428
0.0920398
0.0861496
0.0805473
0.0750942
0.0696185
0.0638892
0.057559
0.0500074
0.0396664
0.0216034
0.527344
0.504218
0.476775
0.448568
0.420092
0.391484
0.364558
0.341265
0.323181
0.311706
0.307267
0.30906
0.315253
0.323295
0.329166
0.327302
0.314682
0.292687
0.265311
0.236938
0.210685
0.187999
0.169071
0.153437
0.140433
0.129435
0.119945
0.1116
0.104135
0.0973601
0.0911271
0.0853101
0.0797847
0.0744117
0.0690184
0.0633727
0.0571279
0.0496661
0.0394327
0.0216373
)
;

boundaryField
{
    leftWall
    {
        type            kqRWallFunction;
        value           nonuniform 0();
    }
    rightWall
    {
        type            kqRWallFunction;
        value           nonuniform List<scalar> 
43
(
0.0074234
0.00842117
0.00855926
0.00868081
0.00871695
0.00937679
0.0101809
0.0108921
0.011525
0.0120933
0.0126136
0.0130947
0.0135424
0.0139625
0.0143601
0.0147397
0.0151048
0.0154586
0.0158037
0.0161422
0.0164758
0.0168057
0.0171327
0.0174573
0.0177794
0.0180988
0.0184147
0.0187261
0.0190317
0.0193298
0.0196187
0.0198961
0.0201601
0.0204084
0.0206387
0.0208491
0.0210374
0.0212022
0.0213419
0.0214557
0.0215429
0.0216034
0.0216373
)
;
    }
    lowerWall
    {
        type            kqRWallFunction;
        value           nonuniform List<scalar> 
66
(
0.0305031
0.0265159
0.0265159
0.0445623
0.0622091
0.0818418
0.0998964
0.119527
0.136863
0.155741
0.178284
0.207282
0.182649
0.127162
0.159192
0.136949
0.00963113
0.010083
0.0142873
0.0187465
0.02363
0.0293812
0.0365658
0.045896
0.0584017
0.077064
0.00963113
0.0155188
0.0165935
0.016905
0.0169547
0.0168953
0.0177596
0.0185816
0.0192486
0.0197262
0.0199486
0.0199549
0.0197782
0.0194486
0.0189957
0.0184507
0.0178532
0.017277
0.0169311
0.0171078
0.0170516
0.0171974
0.0171581
0.0167312
0.0167626
0.0169005
0.0168773
0.0169728
0.0169411
0.016641
0.0165567
0.0165058
0.0167528
0.0167858
0.016602
0.0163369
0.0150828
0.0128506
0.00975402
0.0074234
)
;
    }
    atmosphere
    {
        type            inletOutlet;
        inletValue      nonuniform 0();
        value           nonuniform 0();
    }
    defaultFaces
    {
        type            empty;
    }
    procBoundary1to0
    {
        type            processor;
        value           nonuniform List<scalar> 
44
(
0.0331938
0.0900933
0.130561
0.16308
0.19262
0.220523
0.247435
0.273886
0.299988
0.3249
0.345051
0.358061
0.36574
0.370811
0.374572
0.377625
0.38047
0.383582
0.387366
0.392127
0.399777
0.399777
0.406371
0.413838
0.422273
0.432196
0.443524
0.451544
0.453855
0.454514
0.453986
0.453367
0.453767
0.455554
0.458353
0.461359
0.463652
0.464472
0.463492
0.460924
0.457423
0.453875
0.451085
0.449449
)
;
    }
    procBoundary1to3
    {
        type            processor;
        value           nonuniform List<scalar> 
45
(
0.482818
0.51776
0.54772
0.566859
0.570132
0.554436
0.522519
0.486601
0.452215
0.418522
0.386931
0.359045
0.335806
0.318473
0.30797
0.304223
0.306046
0.311455
0.317856
0.321507
0.317857
0.304589
0.283103
0.257057
0.23034
0.205648
0.184208
0.166173
0.151135
0.138513
0.12776
0.118436
0.110211
0.102847
0.0961643
0.0900228
0.0842995
0.0788708
0.0735966
0.0683029
0.0627568
0.0566125
0.0492562
0.0391481
0.0216453
)
;
    }
}


// ************************************************************************* //
