/*--------------------------------*- C++ -*----------------------------------*\
| =========                 |                                                 |
| \\      /  F ield         | OpenFOAM: The Open Source CFD Toolbox           |
|  \\    /   O peration     | Version:  5.0                                   |
|   \\  /    A nd           | Web:      www.OpenFOAM.org                      |
|    \\/     M anipulation  |                                                 |
\*---------------------------------------------------------------------------*/
FoamFile
{
    version     2.0;
    format      ascii;
    class       volScalarField;
    location    "0.35";
    object      nut;
}
// * * * * * * * * * * * * * * * * * * * * * * * * * * * * * * * * * * * * * //

dimensions      [0 2 -1 0 0 0 0];

internalField   nonuniform List<scalar> 
1915
(
9.38338e-05
8.7095e-05
0.000483827
0.00014933
0.000903157
0.000176169
0.00121385
0.000202035
0.00147881
0.00022302
0.0017089
0.000244034
0.00191943
0.000261137
0.00211743
0.000278548
0.00231459
0.000297994
0.00254645
0.000321313
0.000168076
0.000271278
6.72058e-05
0.000299421
6.99499e-05
6.97666e-05
7.17401e-05
7.34189e-05
7.47511e-05
7.5733e-05
7.62162e-05
7.62822e-05
7.59931e-05
7.53997e-05
7.45495e-05
7.34913e-05
7.22865e-05
7.10491e-05
7.00642e-05
6.97656e-05
6.92674e-05
0.000307799
0.000306073
6.88783e-05
6.85839e-05
6.8522e-05
0.000298466
0.000301515
0.000300388
6.73114e-05
6.69359e-05
6.66593e-05
0.00029492
0.000294884
0.000291097
0.000285531
0.000263274
0.000224109
0.000170029
0.000171396
7.51094e-05
0.000397323
0.000444304
0.000497478
0.000527262
0.000570664
0.000617947
0.000657772
0.000689033
0.000710978
0.000728289
0.000741446
0.000750452
0.00075526
0.000755829
0.000752087
0.000743809
0.000730374
0.000710982
0.000693877
0.000676057
0.000684988
0.000665741
0.000616736
0.000601481
0.000594921
0.000599633
0.000600238
0.000591954
0.000553136
0.000542363
0.000535138
0.000567445
0.000573859
0.000566654
0.000556485
0.00050779
0.000427151
0.000319207
0.000286932
8.96913e-05
0.000554643
0.000777062
0.000912662
0.00102525
0.00112702
0.00122084
0.00130282
0.00137193
0.00142852
0.00147616
0.00151515
0.00154494
0.00156485
0.00157432
0.00157295
0.00156061
0.00153763
0.00150568
0.00147132
0.00143085
0.00138888
0.00134289
0.00129398
0.00125255
0.00121415
0.00117849
0.00114341
0.00110799
0.00107124
0.00103585
0.000999794
0.000963634
0.000925259
0.000878633
0.00082191
0.000729219
0.000593552
0.000394376
6.82972e-05
0.000102779
0.000693892
0.00104158
0.00125594
0.00142201
0.00156416
0.00169039
0.00180307
0.00190323
0.00199192
0.00207118
0.00214037
0.00219782
0.00224169
0.00227033
0.00228256
0.00227788
0.00225684
0.00222136
0.00217503
0.0021182
0.00205382
0.00198516
0.00191547
0.00184791
0.00178221
0.00171955
0.00165777
0.00159598
0.00153403
0.00147097
0.0014051
0.00133455
0.00125747
0.00116923
0.00106318
0.000921534
0.000728754
0.000457062
0.00029828
0.000115268
0.000810693
0.00125151
0.00152193
0.00172148
0.00188648
0.00203158
0.00216361
0.00228568
0.00240006
0.00250786
0.00260738
0.00269569
0.00276947
0.0028256
0.00286154
0.00287574
0.00286795
0.00283937
0.00279237
0.00272919
0.00265326
0.00256886
0.00248046
0.0023911
0.00230226
0.00221522
0.00212905
0.00204263
0.00195518
0.00186543
0.00177122
0.00166991
0.00155817
0.00143097
0.00128013
0.00109091
0.0008437
0.00050326
6.96338e-05
0.000128227
0.000909993
0.00141806
0.00172523
0.0019432
0.00211841
0.00227163
0.00241328
0.00254854
0.00268147
0.00281273
0.00293993
0.00305903
0.00316532
0.00325401
0.00332088
0.00336274
0.00337787
0.00336622
0.00332924
0.00326949
0.00319075
0.00309791
0.00299625
0.00288979
0.00278129
0.00267254
0.00256369
0.00245398
0.00234215
0.00222685
0.00210552
0.00197488
0.00183078
0.00166737
0.00147579
0.00124201
0.000944706
0.000547834
7.23411e-05
0.000142526
0.00099688
0.00155039
0.00187886
0.00210408
0.00228069
0.00243426
0.00257798
0.00271934
0.00286425
0.00301334
0.00316396
0.00331143
0.00344994
0.0035732
0.00367519
0.00375079
0.00379639
0.00381022
0.00379246
0.00374513
0.00367183
0.0035778
0.0034689
0.00335019
0.00322562
0.0030979
0.00296816
0.0028363
0.00270116
0.00256124
0.00241371
0.00225489
0.00208001
0.00188259
0.00165327
0.00137798
0.00103476
0.000588192
7.53722e-05
0.000158921
0.00107426
0.00165148
0.001988
0.00221237
0.00238499
0.0025343
0.00267505
0.0028179
0.00296976
0.00313166
0.00330111
0.00347333
0.00364187
0.00379933
0.00393806
0.004051
0.00413242
0.00417847
0.00418762
0.00416067
0.00410057
0.00401238
0.00390236
0.00377644
0.00363967
0.00349586
0.00334723
0.0031945
0.003037
0.00287321
0.00270024
0.00251415
0.00230973
0.00208002
0.00181526
0.00150114
0.00111546
0.000623898
7.79881e-05
0.000178348
0.00114222
0.00171612
0.00204736
0.00226602
0.00243322
0.00257742
0.0027135
0.00285582
0.00301178
0.00318296
0.00336742
0.00356068
0.00375623
0.00394603
0.00412123
0.00427303
0.00439358
0.0044768
0.00451904
0.00451938
0.00447949
0.0044039
0.00429891
0.00417101
0.00402622
0.00386946
0.00370416
0.00353204
0.00335315
0.00316622
0.00296848
0.00275588
0.00252294
0.00226233
0.001964
0.00161337
0.0011882
0.000655483
8.02524e-05
0.000204121
0.00120314
0.00172961
0.0020407
0.00225357
0.00241946
0.00256241
0.0026959
0.00283846
0.00299797
0.00317678
0.00337375
0.00358509
0.00380464
0.00402429
0.00423451
0.00442515
0.00458646
0.00471013
0.00479019
0.00482356
0.00481002
0.00475345
0.00465962
0.00453517
0.00438681
0.00422058
0.0040411
0.00385128
0.00365213
0.00344285
0.00322099
0.00298257
0.00272199
0.00243169
0.00210137
0.00171627
0.0012542
0.000683628
8.22401e-05
0.00302261
0.000729203
0.0036232
0.00144887
0.00434225
0.00237048
0.00515272
0.00338383
0.0060095
0.00442549
0.00687014
0.00544983
0.00770302
0.00642902
0.0084866
0.00734653
0.00920586
0.00819039
0.00984989
0.00895089
0.00962071
0.0101961
0.0106772
0.0110686
0.0113785
0.0116166
0.0117884
0.0118793
0.0118977
0.0118422
0.0117062
0.0114872
0.0111859
0.0108074
0.010362
0.00986436
0.00933375
0.00879124
0.00827273
0.00779946
0.00739354
0.00706932
0.00683207
0.000232451
0.000191185
0.000213906
0.000198156
0.000634193
0.000529133
0.000741095
0.000893368
0.00128279
0.000882035
0.000768868
0.000961165
0.00214892
0.00144476
0.00101931
0.00100123
0.00314369
0.00221711
0.00152756
0.0012442
0.00418575
0.00313553
0.00226421
0.0017204
0.00522063
0.00412672
0.00315343
0.00240735
0.00621549
0.00513213
0.00411705
0.00324289
0.00714832
0.00610937
0.00509494
0.00415588
0.00800285
0.00702827
0.00604394
0.00508675
0.00876733
0.00786795
0.00693352
0.0059912
0.00943475
0.00861529
0.00774315
0.0068382
0.0100031
0.00926402
0.00846092
0.00760787
0.0104749
0.00981373
0.00908213
0.00828944
0.0108566
0.0102681
0.00960719
0.00887893
0.0111563
0.0106335
0.0100396
0.00937629
0.0113815
0.0109164
0.010384
0.0097837
0.0115298
0.0111216
0.0106449
0.0101038
0.011597
0.0112422
0.0108235
0.01034
0.0115864
0.0112804
0.0109153
0.0104881
0.01149
0.0112299
0.0109179
0.0105477
0.0113053
0.0110863
0.0108224
0.010507
0.0110329
0.01085
0.0106297
0.0103651
0.0106777
0.010526
0.010345
0.0101277
0.0102497
0.0101241
0.00997799
0.00980452
0.00976417
0.0096597
0.00954414
0.00941071
0.00924074
0.00915315
0.00906412
0.00896681
0.00870298
0.00862921
0.00856324
0.00849795
0.00817993
0.00811658
0.00807023
0.00803234
0.00769769
0.007644
0.0076146
0.00759893
0.0072883
0.00724091
0.00722466
0.00722464
0.00696616
0.00692576
0.00692066
0.00692939
0.00673727
0.00670613
0.0067117
0.00672273
0.000522814
0.00127653
0.00166947
0.00194678
0.0021607
0.00233563
0.00248595
0.00262272
0.00276849
0.00293263
0.00311886
0.00332718
0.00355469
0.00379594
0.00404314
0.00428657
0.00451526
0.00471795
0.00488425
0.00500587
0.00507681
0.00509539
0.0050641
0.00498762
0.00487225
0.00472512
0.00455316
0.00436226
0.0041566
0.00393834
0.00370742
0.00346193
0.00319813
0.00291047
0.00259128
0.00223009
0.00181204
0.00131506
0.000709157
8.40259e-05
0.000946307
0.0012609
0.0015303
0.00177328
0.00199346
0.00218507
0.00235157
0.00249801
0.00264941
0.00281871
0.00301197
0.00323074
0.00347312
0.00373435
0.00400715
0.00428198
0.00454752
0.00479148
0.00500165
0.00516733
0.00527954
0.00533566
0.00533579
0.00528294
0.00518258
0.00504184
0.00486834
0.00466914
0.0044498
0.00421379
0.00396202
0.00369338
0.00340459
0.00309029
0.00274284
0.00235169
0.00190194
0.00137169
0.00073257
8.5651e-05
0.00109523
0.00127156
0.00145047
0.00162899
0.00182707
0.00201532
0.0021911
0.0023446
0.00249773
0.00266779
0.00286423
0.00309042
0.00334529
0.00362443
0.00392077
0.00422494
0.00452555
0.00480974
0.00506384
0.00527377
0.00543059
0.0055289
0.00556607
0.00554292
0.00546357
0.00533466
0.00516422
0.00496034
0.00472993
0.00447792
0.00420643
0.00391537
0.00360215
0.00326178
0.00288678
0.00246664
0.00198645
0.00142455
0.000754138
8.71428e-05
0.00112472
0.00130742
0.00146363
0.00160999
0.00176666
0.00191414
0.00206412
0.00220818
0.00234747
0.00250405
0.00269196
0.0029169
0.00317837
0.00347145
0.00378839
0.00411941
0.0044529
0.00477576
0.00507152
0.00532623
0.00553013
0.00567461
0.00575394
0.0057663
0.00571391
0.00560249
0.00544006
0.00523549
0.00499705
0.0047311
0.00444127
0.0041287
0.00379171
0.00342588
0.00302405
0.00257581
0.00206633
0.00147421
0.000774168
8.85269e-05
0.00119543
0.00130062
0.00148326
0.00166786
0.00180795
0.00192383
0.00203501
0.00214324
0.00224715
0.00236676
0.00252408
0.00272975
0.00298492
0.0032835
0.00361564
0.00396973
0.00433314
0.0046914
0.00502599
0.00532595
0.00557876
0.00577266
0.00589868
0.00595196
0.00593237
0.00584416
0.00569492
0.00549404
0.00525102
0.00497349
0.00466695
0.00433398
0.00397401
0.0035834
0.00315543
0.00267995
0.00214225
0.00152116
0.000792915
8.98242e-05
0.00144176
0.00138545
0.00147218
0.00165022
0.00185293
0.00200676
0.00210576
0.00217139
0.00223509
0.00230029
0.00240054
0.00255951
0.00278579
0.00307389
0.00341098
0.00378161
0.0041703
0.00455733
0.00492981
0.0052749
0.00557768
0.00582347
0.00599998
0.0060991
0.00611786
0.00605856
0.00592786
0.00573529
0.00549134
0.00520505
0.00488376
0.0045317
0.00414967
0.003735
0.00328162
0.00277971
0.00221475
0.00156583
0.000810591
9.1052e-05
0.00188866
0.0016309
0.00156511
0.00163935
0.00181223
0.00202231
0.00219052
0.00228369
0.00231499
0.00232885
0.00235955
0.00244415
0.00261094
0.0028631
0.00318748
0.00356336
0.00396658
0.00437865
0.00478685
0.00517596
0.00552884
0.00582808
0.00605811
0.00620733
0.00626959
0.00624472
0.00613795
0.0059585
0.00571758
0.00542561
0.0050918
0.0047222
0.00431917
0.00388128
0.00340322
0.00287567
0.00228434
0.00160857
0.000827369
9.22245e-05
0.00252124
0.00205212
0.00180495
0.0017346
0.00180232
0.0019708
0.00218186
0.00235732
0.00244566
0.00244876
0.00241855
0.00241653
0.00249531
0.00267906
0.00296431
0.00332452
0.00373069
0.00416246
0.00460254
0.0050332
0.00543515
0.00578834
0.00607396
0.0062768
0.00638716
0.00640192
0.00632439
0.006163
0.00592926
0.00563496
0.00529111
0.00490571
0.00448292
0.00402268
0.00352073
0.00296829
0.00235141
0.00164969
0.000843392
9.33533e-05
0.00329294
0.00263561
0.00219997
0.0019631
0.00189414
0.00196101
0.00212715
0.00233548
0.00250954
0.00258738
0.00256172
0.00249434
0.00247042
0.00255363
0.00276438
0.00308348
0.00347807
0.00391944
0.00438454
0.0048522
0.00530059
0.00570694
0.00604917
0.00630824
0.00647061
0.00652979
0.00648658
0.00634818
0.00612589
0.00583279
0.0054816
0.00508236
0.00464116
0.00415959
0.00363454
0.00305798
0.00241632
0.00168941
0.000858774
9.4448e-05
0.00414373
0.00334372
0.00273672
0.0023282
0.0021051
0.00204395
0.00211539
0.00228194
0.00248532
0.00264948
0.00270664
0.00264777
0.00255095
0.00252153
0.00262525
0.00287123
0.00322983
0.00366411
0.00414305
0.00464029
0.00513046
0.00558763
0.00598617
0.00630306
0.00652056
0.00662831
0.00662414
0.00651346
0.00630698
0.00601877
0.00566314
0.00525218
0.00479409
0.00429227
0.00374496
0.00314502
0.00247931
0.00172794
0.000873601
9.55161e-05
0.00501759
0.00412609
0.00338311
0.0028164
0.00243504
0.00223113
0.00218437
0.00226574
0.00243553
0.00263218
0.00277689
0.00280018
0.00270397
0.00259076
0.00257628
0.00271824
0.00301026
0.0034143
0.00389095
0.00440679
0.00493154
0.00543527
0.00588836
0.00626343
0.00653819
0.00669796
0.00673703
0.00665844
0.00647212
0.00619256
0.0058355
0.0054151
0.00494176
0.00442087
0.00385221
0.00322965
0.00254059
0.0017654
0.000887938
9.65634e-05
0.00587025
0.00493296
0.00409638
0.0033999
0.00287089
0.00252042
0.00234242
0.00231673
0.00241297
0.00258753
0.00277287
0.00288699
0.0028651
0.00273284
0.00262224
0.00264599
0.00284274
0.00318959
0.00364331
0.00416299
0.00471216
0.00525596
0.00576009
0.00619232
0.00652535
0.00673968
0.00682552
0.00678311
0.00662107
0.00635388
0.00599847
0.005571
0.00508416
0.00454546
0.0039564
0.003312
0.00260027
0.0018019
0.000901827
9.75943e-05
0.00667058
0.00572356
0.00483356
0.00404273
0.00338904
0.00290002
0.00258686
0.00244235
0.00244396
0.00255832
0.00273588
0.00290305
0.00297428
0.00289773
0.0027415
0.0026592
0.00274424
0.00300851
0.0034162
0.00392169
0.00448217
0.00505708
0.00560677
0.00609356
0.00648458
0.00675497
0.00689033
0.00688774
0.0067538
0.00650253
0.00615182
0.00571969
0.00522116
0.00466599
0.00405754
0.0033921
0.00265841
0.00183746
0.000915285
9.86116e-05
0.00739913
0.00646878
0.00555877
0.00470869
0.00395994
0.00335064
0.00290781
0.00264021
0.00253663
0.00257044
0.00270402
0.00288056
0.00301775
0.00302809
0.00289529
0.00274357
0.00272001
0.0028848
0.00322466
0.0036963
0.00425251
0.00484717
0.00543486
0.00597186
0.00641913
0.00674577
0.00693274
0.00697297
0.0068705
0.00663846
0.00629535
0.00586096
0.00535258
0.00478234
0.00415554
0.00346992
0.00271499
0.00187208
0.000928312
9.96169e-05
0.0080455
0.00715016
0.00624583
0.005367
0.00455371
0.00384857
0.00328996
0.00290231
0.00268891
0.00263244
0.00270151
0.00285271
0.00301737
0.00310317
0.0030389
0.00287076
0.0027617
0.00282386
0.00308
0.00349925
0.00403448
0.0046356
0.00525171
0.00583274
0.00633289
0.0067149
0.00695462
0.0070399
0.00697168
0.00676175
0.00642893
0.00599456
0.00547817
0.00489427
0.00425024
0.00354533
0.00276992
0.00190571
0.000940885
0.00010061
0.00860507
0.00775698
0.00687721
0.00599427
0.00514415
0.00436935
0.00371443
0.0032165
0.00289418
0.00274251
0.0027369
0.00284086
0.00300052
0.0031323
0.00314373
0.00301004
0.00285038
0.00282143
0.00298755
0.00334015
0.00383856
0.00443195
0.00506529
0.00568237
0.00623017
0.00666601
0.00695847
0.00709009
0.00705816
0.0068727
0.00655252
0.00612027
0.00559763
0.00500148
0.00434137
0.00361812
0.00282305
0.00193825
0.000952964
0.000101591
0.00907628
0.00828302
0.00744136
0.00657351
0.00571004
0.00489049
0.00416116
0.00356768
0.00314264
0.0028952
0.00281017
0.00285558
0.00298784
0.00313733
0.00320779
0.00313077
0.00296281
0.00286544
0.00294583
0.00322427
0.00367312
0.00424516
0.00488367
0.00552721
0.00611703
0.00660344
0.00694741
0.00712558
0.00713112
0.00697184
0.00666619
0.00623788
0.00571062
0.00510361
0.00442858
0.003688
0.00287415
0.00196955
0.000964487
0.000102557
0.00945904
0.0087245
0.00793018
0.0070921
0.00623462
0.00539253
0.00461073
0.00393936
0.00342213
0.0030825
0.00291686
0.00289918
0.00299093
0.00313521
0.00324223
0.00322254
0.00307769
0.00293961
0.0029474
0.0031519
0.00354337
0.00408257
0.00471429
0.00537404
0.00599963
0.00653215
0.00692511
0.00714889
0.00719208
0.00705993
0.00677013
0.00634725
0.00581679
0.00520024
0.00451146
0.0037546
0.00292294
0.00199942
0.000975378
0.000103506
0.00975432
0.00907937
0.00833808
0.00754037
0.00670442
0.00585898
0.00504536
0.00431488
0.00371915
0.0032946
0.00305041
0.00296844
0.00301331
0.00313707
0.00326119
0.0032874
0.00317885
0.00302848
0.00298157
0.00311904
0.00345088
0.00394911
0.00456284
0.00523113
0.00588473
0.00645758
0.00689571
0.00716291
0.00724288
0.00713791
0.00686467
0.00644824
0.00591579
0.0052909
0.00458954
0.0038175
0.00296908
0.00202764
0.000985543
0.000104433
0.00996422
0.00934826
0.00866205
0.00791168
0.00710882
0.00627598
0.00544918
0.00467827
0.0040196
0.00352048
0.00320289
0.00305812
0.00305458
0.00314924
0.00327477
0.00333282
0.00326205
0.00311835
0.00303713
0.00311894
0.00339383
0.00384657
0.00443732
0.00510554
0.00577895
0.00638537
0.00686359
0.0071708
0.00728557
0.00720694
0.00695024
0.00654082
0.00600725
0.00537509
0.00466229
0.00387624
0.00301219
0.00205395
0.000994876
0.000105334
0.0100847
0.00952975
0.00890164
0.00820226
0.0074404
0.0066324
0.00580843
0.00501473
0.00430953
0.00374848
0.00336546
0.00316192
0.00311135
0.00317317
0.00328923
0.00336655
0.00332843
0.00320097
0.00310368
0.00314389
0.00336878
0.00377863
0.00434216
0.00500306
0.00568825
0.00632085
0.00683314
0.00717585
0.00732235
0.00726828
0.00702735
0.00662496
0.00609084
0.00545231
0.00472917
0.00393029
0.00305187
0.00207808
0.00100326
0.000106204
0.0101091
0.00962175
0.00905415
0.00841085
0.00769494
0.00692025
0.00611182
0.00531113
0.00457571
0.00396686
0.00352878
0.00327296
0.00317889
0.00320773
0.00330809
0.00339503
0.00338166
0.0032735
0.0031726
0.00318656
0.00337294
0.00374421
0.00427911
0.00492744
0.00561729
0.00626868
0.00680839
0.00718118
0.00735541
0.0073232
0.00709657
0.00670069
0.00616621
0.00552204
0.00478959
0.00397912
0.00308767
0.00209973
0.00101058
0.000107037
0.0100289
0.00961333
0.00911584
0.00853314
0.00787062
0.00713483
0.00635114
0.00555663
0.00480633
0.00416451
0.00368354
0.00338415
0.00325209
0.00325063
0.0033326
0.00342144
0.0034253
0.00333595
0.00323949
0.00323933
0.00339849
0.00373837
0.00424671
0.00488
0.00556907
0.00623247
0.00679279
0.00718965
0.00738678
0.00737298
0.00715845
0.00676802
0.00623305
0.00558375
0.00484299
0.00402221
0.00311915
0.0021186
0.0010167
0.000107828
0.00984984
0.00950193
0.00907784
0.00856555
0.007962
0.00727339
0.00652125
0.0057434
0.00499187
0.00433175
0.00382119
0.00348868
0.00332588
0.00329852
0.00336217
0.00344758
0.00346213
0.00338953
0.00330267
0.00329791
0.00343993
0.00375636
0.0042423
0.00486046
0.0055451
0.00621471
0.00678903
0.00720362
0.00741824
0.00741869
0.00721348
0.00682697
0.00629104
0.00563696
0.00488881
0.004059
0.00314587
0.00213439
0.0010215
0.000108569
0.00958223
0.00929925
0.00894571
0.00850445
0.00796875
0.00733329
0.00661939
0.00586676
0.00512573
0.00446111
0.00393464
0.0035806
0.00339561
0.00334796
0.00339512
0.00347404
0.00349434
0.00343629
0.00336236
0.00336023
0.00349371
0.00379448
0.0042632
0.00486779
0.00554591
0.00621692
0.00679903
0.0072249
0.0074512
0.00746125
0.00726205
0.0068775
0.00633984
0.00568118
0.00492651
0.00408902
0.00316743
0.00214682
0.00102488
0.000109256
0.00924081
0.00902018
0.00873438
0.00836188
0.00789409
0.00731454
0.00664472
0.0059252
0.00520471
0.00454807
0.004019
0.00365549
0.00345767
0.00339613
0.00342999
0.00350128
0.003524
0.00347875
0.00341979
0.00342572
0.0035579
0.00385028
0.00430733
0.00490079
0.00557138
0.00623984
0.00682396
0.00725472
0.00748666
0.00750128
0.00730439
0.00691952
0.00637914
0.00571595
0.00495562
0.0041118
0.00318346
0.00215565
0.00102674
0.000109882
0.00884523
0.00868288
0.00846051
0.0081523
0.00774556
0.00722458
0.00660374
0.00592211
0.00522955
0.00459145
0.00407208
0.00371086
0.00350973
0.00344108
0.00346566
0.00352965
0.00355295
0.00351927
0.00347657
0.00349477
0.00363186
0.00392251
0.00437327
0.0049584
0.00562104
0.00628358
0.00686433
0.00729371
0.00752517
0.00753909
0.00734057
0.00695286
0.00640861
0.00574088
0.0049757
0.00412696
0.00319363
0.00216066
0.00102698
0.000110443
0.00841947
0.00830911
0.00814329
0.00789271
0.00754082
0.00707726
0.0065066
0.00586381
0.00520411
0.00459325
0.00409448
0.00374636
0.0035509
0.00348165
0.00350128
0.00355916
0.00358222
0.00355969
0.00353444
0.00356847
0.00371592
0.00401076
0.00446017
0.00503965
0.00569411
0.00634773
0.00692003
0.00734194
0.00756681
0.0075747
0.00737045
0.00697728
0.00642793
0.0057556
0.00498641
0.00413419
0.00319772
0.00216171
0.00102556
0.000110934
0.00799026
0.00792323
0.00780444
0.0076026
0.0072996
0.00688567
0.0063598
0.00575641
0.00513438
0.00455836
0.00408954
0.00376383
0.0035818
0.0035177
0.00353625
0.00358926
0.0036128
0.00360213
0.00359566
0.00364864
0.00381112
0.00411527
0.00456755
0.00514364
0.0057896
0.0064314
0.0069904
0.00739893
0.00761121
0.00760777
0.00739373
0.00699246
0.00643677
0.00575982
0.0049875
0.0041333
0.00319558
0.00215869
0.00102244
0.000111352
0.00758482
0.00754987
0.00746573
0.00730087
0.0070384
0.00666311
0.00617369
0.00561055
0.00502972
0.00449455
0.00406314
0.00376715
0.0036046
0.00355021
0.00357086
0.00362058
0.00364651
0.00364919
0.00366305
0.00373773
0.00391911
0.0042367
0.00469518
0.0052695
0.0059063
0.00653334
0.0070743
0.00746372
0.0076576
0.00763769
0.0074099
0.00699799
0.00643484
0.00575333
0.00497884
0.00412419
0.00318713
0.00215157
0.00101763
0.000111693
0.00722793
0.00721114
0.0071467
0.00700469
0.00677015
0.00642253
0.00596423
0.00543989
0.00490209
0.00441205
0.00402328
0.00376191
0.00362284
0.0035813
0.00360631
0.00365486
0.0036862
0.00370413
0.00373992
0.00383856
0.00404184
0.00437597
0.00484298
0.00541632
0.0060428
0.00665194
0.00717016
0.00753494
0.00770484
0.00766357
0.00741831
0.00699346
0.00642191
0.00573603
0.0049604
0.0041069
0.00317245
0.00214041
0.00101114
0.000111957
0.00693785
0.00692298
0.00686175
0.00672737
0.00650439
0.00617322
0.00574482
0.00525892
0.00476545
0.00432308
0.00397964
0.0037551
0.00364129
0.00361428
0.00364523
0.00369553
0.00373566
0.00377068
0.00382978
0.00395413
0.00418147
0.00453417
0.00501094
0.00558317
0.00619751
0.00678529
0.00727605
0.00761082
0.00775145
0.00768427
0.00741819
0.00697841
0.00639778
0.00570794
0.00493231
0.00408159
0.00315167
0.00212531
0.00100304
0.000112143
0.00672341
0.00669281
0.00661833
0.00647792
0.00625364
0.00593466
0.0055343
0.00508524
0.00463589
0.00424137
0.003943
0.0037547
0.00366581
0.00365372
0.00369203
0.00374766
0.00379916
0.00385271
0.00393617
0.00408739
0.00434011
0.00471235
0.005199
0.005769
0.00636867
0.00693124
0.00738972
0.00768929
0.00779572
0.00769851
0.0074087
0.00695244
0.00636238
0.0056692
0.00489485
0.00404857
0.00312507
0.00210647
0.000993422
0.000112252
)
;

boundaryField
{
    leftWall
    {
        type            nutkWallFunction;
        Cmu             0.09;
        kappa           0.41;
        E               9.8;
        value           nonuniform 0();
    }
    rightWall
    {
        type            nutkWallFunction;
        Cmu             0.09;
        kappa           0.41;
        E               9.8;
        value           nonuniform List<scalar> 
43
(
0
0
0
2.12776e-08
4.55798e-08
4.79384e-07
9.84844e-07
1.41307e-06
1.78074e-06
2.10113e-06
2.38693e-06
2.64521e-06
2.88067e-06
3.09761e-06
3.29951e-06
3.48924e-06
3.66913e-06
3.84107e-06
4.00662e-06
4.167e-06
4.32317e-06
4.47584e-06
4.62549e-06
4.77239e-06
4.91666e-06
5.05821e-06
5.19683e-06
5.33214e-06
5.46366e-06
5.59082e-06
5.71294e-06
5.8293e-06
5.93913e-06
6.04168e-06
6.13618e-06
6.22194e-06
6.29833e-06
6.36482e-06
6.42098e-06
6.46656e-06
6.5014e-06
6.52551e-06
6.53901e-06
)
;
    }
    lowerWall
    {
        type            nutkWallFunction;
        Cmu             0.09;
        kappa           0.41;
        E               9.8;
        value           nonuniform List<scalar> 
66
(
1.11949e-05
1.04741e-05
1.04741e-05
1.73765e-05
2.02788e-05
2.30124e-05
2.52214e-05
2.73859e-05
2.91396e-05
3.09154e-05
3.28874e-05
3.5232e-05
2.61724e-05
1.919e-05
2.25026e-05
2.02479e-05
0
9.24598e-07
3.26277e-06
5.34093e-06
7.31216e-06
9.35364e-06
1.16045e-05
1.41776e-05
1.71949e-05
2.10776e-05
0
0
0
1.81632e-08
3.53264e-08
1.47826e-08
3.09281e-07
5.81803e-07
7.97842e-07
9.49919e-07
1.02001e-06
1.02198e-06
9.66337e-07
8.61787e-07
7.16447e-07
5.38895e-07
3.40672e-07
1.45893e-07
2.71702e-08
8.79886e-08
6.86994e-08
1.18692e-07
1.05243e-07
0
0
1.65915e-08
8.56006e-09
4.15373e-08
3.06198e-08
0
0
0
0
0
0
0
0
0
0
0
)
;
    }
    atmosphere
    {
        type            calculated;
        value           nonuniform 0();
    }
    defaultFaces
    {
        type            empty;
    }
    procBoundary1to0
    {
        type            processor;
        value           nonuniform List<scalar> 
44
(
9.78431e-05
0.000664128
0.00120152
0.00171745
0.00222509
0.00271234
0.0031721
0.00360237
0.00400795
0.00441235
0.00489374
0.00545359
0.00608177
0.00676336
0.00747289
0.00818302
0.00887061
0.00951753
0.0101098
0.0106369
0.0104115
0.0104115
0.0108873
0.0112783
0.0115904
0.0118333
0.0120163
0.012132
0.0121717
0.0121476
0.0120532
0.0118838
0.0116375
0.0113151
0.010922
0.0104682
0.00996814
0.00944286
0.0089193
0.00841948
0.00796405
0.00757116
0.00725298
0.007014
)
;
    }
    procBoundary1to3
    {
        type            processor;
        value           nonuniform List<scalar> 
45
(
0.00667831
0.00659795
0.0065814
0.00659659
0.00660482
0.00658666
0.00652377
0.00642188
0.00626643
0.00603633
0.00572738
0.00535137
0.00493682
0.00452995
0.004181
0.00392458
0.00376934
0.00370319
0.00370542
0.00375251
0.00381641
0.00388096
0.00395394
0.00406231
0.00424104
0.00451959
0.00491132
0.00540688
0.00597252
0.00655422
0.00708727
0.00750856
0.00776793
0.00783563
0.00770483
0.00738897
0.00691517
0.00631578
0.00562014
0.00484847
0.0040083
0.00309304
0.00208415
0.000982408
0.000112286
)
;
    }
}


// ************************************************************************* //
