/*--------------------------------*- C++ -*----------------------------------*\
| =========                 |                                                 |
| \\      /  F ield         | OpenFOAM: The Open Source CFD Toolbox           |
|  \\    /   O peration     | Version:  5.0                                   |
|   \\  /    A nd           | Web:      www.OpenFOAM.org                      |
|    \\/     M anipulation  |                                                 |
\*---------------------------------------------------------------------------*/
FoamFile
{
    version     2.0;
    format      ascii;
    class       volScalarField;
    location    "0.35";
    object      p;
}
// * * * * * * * * * * * * * * * * * * * * * * * * * * * * * * * * * * * * * //

dimensions      [1 -1 -2 0 0 0 0];

internalField   nonuniform List<scalar> 
1915
(
1758.17
1792.81
1687.08
1732.98
1644.11
1694.67
1625.78
1679.73
1611.74
1680.35
1591.35
1684.9
1550.59
1664.01
1478.84
1604.29
1360.91
1466.84
1173.89
1180.35
3.44407
3.43959
3.43534
3.43155
3.42701
3.42327
3.42144
3.42022
3.42017
3.42103
3.4225
3.4242
3.42581
3.4271
3.42788
3.42803
3.42748
3.42623
3.42431
3.42179
3.41873
3.41524
3.41149
3.40765
3.40373
3.39981
3.39579
3.39196
3.38852
3.38525
3.38223
3.37944
3.3769
3.37466
3.37279
3.37136
3.37042
3.36991
3.36975
3.36967
3.39809
3.39462
3.39209
3.38775
3.38304
3.37851
3.3747
3.3726
3.37184
3.37214
3.3731
3.37439
3.37574
3.37689
3.37765
3.37788
3.37748
3.37643
3.37474
3.3725
3.36976
3.36661
3.36324
3.35964
3.35589
3.35203
3.34839
3.3449
3.34148
3.33831
3.33536
3.33265
3.33019
3.328
3.32612
3.32464
3.32359
3.32295
3.32262
3.32251
3.3532
3.34834
3.34536
3.34141
3.3363
3.3315
3.32736
3.32463
3.32322
3.32286
3.32326
3.32412
3.32516
3.32614
3.32686
3.32716
3.32694
3.32613
3.32473
3.3228
3.32038
3.31757
3.3145
3.31126
3.30782
3.30428
3.3008
3.29743
3.29416
3.29109
3.28823
3.28558
3.28316
3.28097
3.27906
3.2775
3.27637
3.27566
3.27531
3.27535
3.30847
3.30143
3.29692
3.29269
3.28771
3.28291
3.27882
3.27591
3.2742
3.27351
3.2736
3.2742
3.27505
3.27592
3.27662
3.27698
3.27689
3.27626
3.27508
3.27338
3.2712
3.26865
3.26584
3.26284
3.25968
3.25641
3.2531
3.24984
3.24667
3.24367
3.24087
3.23828
3.23588
3.23367
3.2317
3.23007
3.22887
3.22812
3.22782
3.22799
3.26279
3.25337
3.24678
3.24213
3.23741
3.23294
3.22917
3.22644
3.22481
3.22413
3.2242
3.22477
3.22559
3.22644
3.22714
3.22756
3.22756
3.22707
3.22605
3.22451
3.2225
3.22009
3.21743
3.21459
3.21161
3.20851
3.20535
3.20218
3.19907
3.19609
3.19331
3.19072
3.18832
3.18609
3.18408
3.1824
3.18117
3.18042
3.18019
3.18046
3.21482
3.20303
3.19436
3.18969
3.18555
3.18173
3.17856
3.17628
3.17498
3.17457
3.17485
3.17559
3.17654
3.17747
3.17823
3.17871
3.17881
3.17846
3.17758
3.17617
3.17425
3.17192
3.16931
3.16652
3.16362
3.16063
3.15757
3.15448
3.15139
3.14839
3.14555
3.1429
3.14046
3.13822
3.13621
3.13454
3.1333
3.13258
3.13243
3.13281
3.16254
3.14905
3.13879
3.13508
3.13214
3.12939
3.12706
3.12545
3.12468
3.12472
3.1254
3.12648
3.1277
3.12884
3.12975
3.13035
3.13056
3.13032
3.12956
3.12825
3.12639
3.12408
3.12144
3.11863
3.11574
3.11279
3.10978
3.10673
3.10363
3.10056
3.0976
3.09483
3.09232
3.09007
3.0881
3.08647
3.08527
3.08459
3.08452
3.08499
3.10208
3.08965
3.07903
3.07803
3.07721
3.07599
3.07476
3.07397
3.07388
3.07451
3.07574
3.07731
3.07896
3.08046
3.08164
3.08243
3.08277
3.08262
3.08195
3.08069
3.07887
3.07654
3.07386
3.07098
3.06801
3.06502
3.062
3.05892
3.05576
3.05257
3.04944
3.04652
3.04391
3.04165
3.03975
3.03821
3.03707
3.03642
3.03642
3.03695
3.02334
3.02191
3.01423
3.01857
3.02101
3.02175
3.02177
3.02189
3.02257
3.02392
3.02583
3.02804
3.03028
3.03228
3.03386
3.03492
3.03542
3.03536
3.03471
3.03347
3.03165
3.02931
3.02656
3.02357
3.02048
3.01735
3.01421
3.01102
3.00775
3.0044
3.00108
2.99797
2.99525
2.99299
2.99117
2.98973
2.98865
2.98804
2.98808
2.98866
2.90637
2.93977
2.94544
2.95785
2.96434
2.96713
2.96832
2.96928
2.97075
2.97292
2.97565
2.97864
2.98161
2.98425
2.98636
2.98781
2.98853
2.98854
2.98788
2.98661
2.98475
2.98236
2.97952
2.9764
2.97312
2.96978
2.96641
2.96302
2.95956
2.95604
2.95252
2.94922
2.94637
2.94409
2.94233
2.94099
2.93998
2.9394
2.93948
2.9401
882.828
590.071
653.386
424.334
534.452
408.318
447.012
351.568
365.146
281.19
292.831
224.86
229.051
177.146
170.745
132.223
116.661
89.5283
66.3983
49.357
11.6803
-24.3724
-61.4475
-93.3451
-74.5261
-19.1219
-5.46107
-4.59378
-4.72018
-4.87988
-4.98601
-5.08335
-5.1826
-5.28234
-5.38209
-5.48215
-5.58286
-5.68482
-5.7888
-5.89524
-6.00366
-6.11258
-6.21993
-69.5458
-0.418814
2.25521
1.97374
10.0631
-2.20001
2.58802
2.50239
161.759
41.9353
1.06549
2.28814
198.8
81.4268
15.7744
-7.24891
175.55
90.9536
37.4569
2.54837
148.984
86.9669
45.3721
16.9265
121.949
74.6923
40.1492
17.426
91.8316
56.0619
28.0166
8.9247
60.7379
34.5047
12.8512
-2.74354
30.3322
12.2394
-3.51143
-15.5386
1.23403
-9.70518
-20.019
-28.4962
-26.4437
-30.7257
-35.9341
-40.9063
-54.0899
-51.0514
-50.9322
-52.3291
-82.5973
-72.4807
-65.9227
-62.9721
-90.1728
-89.4676
-81.3737
-74.181
-41.0177
-65.5152
-80.4785
-81.9363
-8.09463
-17.524
-37.0916
-59.7985
-4.96648
-5.80802
-8.65824
-18.3845
-4.81114
-4.95136
-5.32572
-6.337
-4.97934
-5.06071
-5.15909
-5.33273
-5.10258
-5.21029
-5.30704
-5.38866
-5.20015
-5.31379
-5.42431
-5.52563
-5.29783
-5.40929
-5.51883
-5.62531
-5.39724
-5.50735
-5.61415
-5.71718
-5.49762
-5.60744
-5.71273
-5.81261
-5.5993
-5.70963
-5.81407
-5.91142
-5.70279
-5.81452
-5.9187
-6.01368
-5.80868
-5.92275
-6.02724
-6.11979
-5.91773
-6.03492
-6.1399
-6.22956
-6.03022
-6.15091
-6.25609
-6.34208
-6.14515
-6.26928
-6.37397
-6.45536
-6.26092
-6.38806
-6.49123
-6.56733
-6.37593
-6.5064
-6.60772
-6.67952
2.68365
2.8285
2.87539
2.89833
2.90841
2.91248
2.91426
2.91577
2.91796
2.92102
2.92472
2.92867
2.93251
2.93594
2.93871
2.94065
2.94168
2.94181
2.94113
2.93975
2.93778
2.93528
2.93231
2.929
2.92548
2.92184
2.91816
2.91446
2.91076
2.90703
2.90333
2.89984
2.89685
2.89451
2.8928
2.89153
2.89057
2.89002
2.89014
2.89081
2.72802
2.77596
2.81864
2.84628
2.85626
2.85905
2.85994
2.86124
2.86395
2.86795
2.87278
2.87787
2.88278
2.88713
2.89069
2.89325
2.89469
2.89501
2.8943
2.89276
2.89059
2.88788
2.88469
2.88112
2.87728
2.87328
2.8692
2.86513
2.86111
2.85714
2.85324
2.84958
2.84644
2.84402
2.8423
2.84106
2.84013
2.83961
2.83977
2.84049
2.95071
2.80546
2.78733
2.80798
2.81128
2.80908
2.80665
2.80624
2.80898
2.81392
2.82003
2.82646
2.83262
2.83807
2.84254
2.84582
2.84777
2.84835
2.84765
2.84591
2.84343
2.84039
2.83687
2.83294
2.8287
2.82426
2.81972
2.8152
2.8108
2.80656
2.80246
2.79863
2.79533
2.79279
2.791
2.78974
2.78882
2.78832
2.78854
2.78933
2.39961
2.8854
2.85734
2.8026
2.77952
2.76501
2.75522
2.75175
2.75359
2.75915
2.76659
2.77452
2.7821
2.78882
2.79433
2.79842
2.80095
2.80184
2.80118
2.79922
2.79635
2.79285
2.78886
2.78446
2.77972
2.77476
2.7697
2.76467
2.75983
2.75526
2.75094
2.74694
2.74347
2.74076
2.73884
2.73752
2.73658
2.7361
2.73641
2.73727
-7.38995
1.8067
2.93375
2.87176
2.78793
2.73369
2.70969
2.69999
2.69933
2.70451
2.7129
2.72225
2.73134
2.73945
2.74614
2.75112
2.75427
2.75551
2.7549
2.75271
2.74938
2.7453
2.74071
2.73569
2.73035
2.72479
2.71913
2.71352
2.70817
2.70321
2.69863
2.69444
2.69078
2.68787
2.68577
2.68433
2.68335
2.68291
2.68331
2.68428
-4.30794
-8.26307
0.688932
2.88274
2.84088
2.73918
2.67764
2.65379
2.64897
2.65194
2.66005
2.67015
2.68056
2.6901
2.69808
2.70405
2.70784
2.70942
2.70886
2.70641
2.70255
2.69777
2.69243
2.68668
2.6806
2.67433
2.66799
2.66174
2.65581
2.65039
2.64549
2.64107
2.63719
2.63405
2.63173
2.63013
2.62908
2.62869
2.62921
2.63029
0.438739
-10.3279
-9.66404
-0.367859
2.73361
2.76902
2.67709
2.62401
2.60499
2.60465
2.61034
2.61929
2.63014
2.64092
2.65024
2.65731
2.66179
2.66367
2.6631
2.66036
2.6559
2.65031
2.64407
2.63742
2.63048
2.62338
2.61626
2.60928
2.60268
2.59673
2.59145
2.58677
2.58264
2.57922
2.57664
2.57484
2.57372
2.57339
2.57405
2.57527
-3.68233
-11.213
-14.094
-10.7445
-1.23204
2.52139
2.68775
2.62416
2.58223
2.56892
2.56766
2.57168
2.58083
2.59211
2.60272
2.61097
2.61619
2.61836
2.61772
2.6146
2.60944
2.60291
2.59561
2.58789
2.57993
2.57188
2.56388
2.55608
2.54874
2.54216
2.53645
2.53144
2.52704
2.52332
2.52044
2.51841
2.51721
2.51695
2.51777
2.51914
-13.1329
-18.1289
-18.5975
-17.1792
-11.8004
-1.54902
2.36578
2.62545
2.58621
2.55482
2.5377
2.5302
2.53368
2.54393
2.55555
2.56508
2.57115
2.57361
2.57281
2.56918
2.5632
2.55558
2.54704
2.53807
2.52891
2.51976
2.51076
2.50205
2.49388
2.48661
2.48038
2.47501
2.4703
2.46626
2.46305
2.46078
2.4595
2.45931
2.46031
2.46185
-24.0777
-28.2132
-27.4067
-23.9306
-19.9565
-12.333
-1.10577
2.25499
2.5841
2.56298
2.52286
2.49649
2.49001
2.49691
2.50882
2.51968
2.52674
2.52953
2.52846
2.52415
2.51719
2.5083
2.49834
2.4879
2.47735
2.46692
2.4568
2.44708
2.43801
2.42997
2.42316
2.41738
2.41232
2.40793
2.40439
2.40188
2.4005
2.4004
2.4016
2.40332
-35.0661
-38.5324
-37.7738
-33.536
-27.7457
-21.7347
-11.5469
-0.310121
2.23909
2.55449
2.51111
2.46598
2.44986
2.45206
2.46295
2.47488
2.48302
2.48615
2.48472
2.47955
2.47139
2.46105
2.44945
2.43733
2.42516
2.41328
2.40189
2.39107
2.381
2.37212
2.36466
2.35841
2.35299
2.34825
2.34438
2.34162
2.34016
2.34016
2.34156
2.34347
-45.3653
-48.0332
-47.4859
-43.7434
-37.333
-29.8108
-21.837
-9.40087
0.721679
2.25574
2.46396
2.43111
2.41303
2.41127
2.41921
2.43104
2.44006
2.44351
2.44159
2.43535
2.42576
2.41374
2.40029
2.38627
2.37227
2.35874
2.34593
2.33388
2.32274
2.31294
2.30476
2.298
2.29219
2.2871
2.2829
2.27992
2.27839
2.27848
2.2801
2.28221
-54.52
-56.2222
-55.8135
-52.83
-47.1342
-38.9953
-30.0015
-20.1116
-6.08012
1.37757
2.27626
2.3929
2.38414
2.3769
2.37939
2.38894
2.39799
2.40154
2.39899
2.39144
2.38016
2.36621
2.3507
2.33457
2.31855
2.30317
2.28878
2.27539
2.2631
2.25231
2.24335
2.23601
2.22978
2.22435
2.21986
2.21667
2.21508
2.21529
2.21713
2.21945
-62.4071
-62.8346
-62.438
-60.2489
-55.6832
-48.4272
-38.9372
-29.1894
-17.2473
-2.84004
1.65676
2.32753
2.36896
2.34808
2.34306
2.34911
2.35702
2.36018
2.35673
2.34763
2.33438
2.31825
2.30045
2.28204
2.26381
2.24643
2.2303
2.21547
2.20195
2.19012
2.1803
2.17233
2.16564
2.15987
2.15511
2.15175
2.15014
2.15046
2.15253
2.15507
-69.7259
-68.0185
-67.2477
-65.7991
-62.4996
-56.6398
-48.0587
-37.7678
-27.2573
-12.0152
-0.113947
1.92712
2.32809
2.31924
2.30837
2.31164
2.3175
2.31939
2.31458
2.30362
2.28812
2.26956
2.24927
2.2284
2.20782
2.1883
2.17033
2.15396
2.13915
2.12622
2.1155
2.10684
2.09966
2.09353
2.08853
2.08505
2.08343
2.08389
2.08618
2.08894
-77.0072
-72.683
-70.6111
-69.4825
-67.4487
-63.1735
-56.0382
-46.2017
-35.1272
-22.5888
-5.69145
1.21853
2.16102
2.28497
2.27907
2.27776
2.28002
2.27921
2.27222
2.259
2.24099
2.21976
2.1968
2.17333
2.1503
2.12853
2.10863
2.09066
2.07452
2.06046
2.04881
2.03941
2.03169
2.02521
2.02
2.01642
2.01483
2.01544
2.01797
2.02096
-73.6517
-75.4542
-73.3572
-71.8038
-70.611
-67.9488
-62.5251
-53.95
-42.8773
-30.9416
-14.7504
-0.793381
1.69256
2.2449
2.25592
2.24576
2.2436
2.23921
2.2292
2.21322
2.19244
2.16838
2.14262
2.11646
2.09089
2.06682
2.04494
2.02533
2.00784
1.99266
1.98006
1.9699
1.96163
1.95478
1.94937
1.94573
1.9442
1.94497
1.94775
1.95096
-39.3426
-61.7162
-71.999
-73.3513
-72.5623
-71.0844
-67.4244
-60.4801
-50.3177
-38.4692
-24.9169
-5.62928
1.12524
2.08783
2.21933
2.21587
2.20822
2.19882
2.18486
2.16558
2.14179
2.11483
2.08621
2.05733
2.0292
2.00282
1.97895
1.95769
1.93887
1.92259
1.90907
1.89817
1.88933
1.88211
1.87652
1.87285
1.8714
1.87235
1.87537
1.87882
-9.93277
-25.2256
-51.845
-69.1834
-73.6279
-73.1531
-70.8304
-65.5761
-56.7413
-45.3139
-32.5879
-12.8136
-0.112506
1.71746
2.17187
2.18819
2.17145
2.15642
2.13808
2.11516
2.08823
2.05836
2.02698
1.99543
1.9648
1.93618
1.91036
1.88748
1.86736
1.85003
1.83564
1.82402
1.81463
1.80707
1.80131
1.79763
1.79628
1.79742
1.80069
1.80436
-5.70338
-7.52577
-18.3002
-45.429
-67.9497
-74.2401
-73.2413
-69.2934
-61.879
-51.205
-38.8278
-21.6525
-3.12068
1.22364
2.08159
2.14968
2.13065
2.11081
2.08773
2.06093
2.03082
1.99818
1.9642
1.93016
1.89721
1.86648
1.83883
1.81441
1.79304
1.77473
1.75955
1.74727
1.73739
1.7295
1.72361
1.71994
1.71869
1.72003
1.72356
1.72745
-5.47894
-5.76592
-6.64846
-15.5561
-44.5011
-69.4438
-74.8954
-72.0157
-65.6977
-55.9822
-44.1163
-29.2029
-6.93723
0.827272
1.89234
2.08962
2.0846
2.06018
2.0325
2.00186
1.96867
1.93346
1.89714
1.8609
1.82591
1.79332
1.764
1.73817
1.71566
1.69647
1.68059
1.66774
1.65742
1.64926
1.64326
1.63962
1.6385
1.64004
1.64381
1.64792
-5.61667
-5.7198
-5.80854
-6.35804
-16.1453
-49.6043
-73.0959
-74.2108
-68.4027
-59.5371
-48.1978
-34.3239
-11.478
-0.0672995
1.60399
2.01853
2.03281
2.0028
1.97098
1.93683
1.9008
1.86334
1.82508
1.78705
1.75037
1.71624
1.68553
1.65847
1.63496
1.61501
1.59855
1.58523
1.57456
1.56619
1.56013
1.55655
1.55556
1.55729
1.5613
1.56561
-5.73079
-5.83371
-5.89625
-5.92106
-6.71416
-22.0531
-62.4059
-75.2423
-70.4277
-61.8888
-51.1335
-37.8643
-16.4269
-1.68189
1.30891
1.94189
1.97135
1.93698
1.90167
1.86464
1.8263
1.78709
1.74739
1.70802
1.6701
1.63482
1.60304
1.57501
1.55071
1.53016
1.51324
1.49956
1.48863
1.48014
1.47407
1.47057
1.46973
1.47166
1.47588
1.48038
-5.82154
-5.92762
-6.01814
-6.06428
-6.14393
-8.49356
-40.388
-72.008
-71.8105
-63.146
-52.8577
-40.4492
-20.6035
-3.36568
1.02334
1.84849
1.89527
1.86019
1.82283
1.78417
1.74435
1.70404
1.66348
1.62332
1.58465
1.54867
1.5162
1.48751
1.46266
1.4417
1.42448
1.41057
1.3995
1.39095
1.38494
1.38155
1.38088
1.38299
1.38742
1.3921
-5.91165
-6.00981
-6.10294
-6.17633
-6.16268
-6.41419
-19.7735
-62.614
-71.7043
-63.3818
-53.1945
-41.3635
-22.6884
-4.49345
0.786293
1.73757
1.80376
1.7707
1.73362
1.6946
1.65428
1.61366
1.5729
1.53252
1.49364
1.45744
1.4247
1.39571
1.37061
1.34947
1.33212
1.31813
1.30702
1.29851
1.2926
1.28937
1.28887
1.29118
1.2958
1.30063
-6.00545
-6.09445
-6.17623
-6.24231
-6.2311
-6.39264
-11.6135
-49.5577
-69.1797
-62.599
-52.1967
-40.6019
-22.4667
-4.86691
0.637799
1.61877
1.69744
1.66898
1.63374
1.59553
1.55566
1.51555
1.4753
1.43534
1.39682
1.3609
1.32832
1.29941
1.27438
1.25332
1.23605
1.22212
1.21108
1.2027
1.19696
1.19392
1.19362
1.19612
1.20092
1.20587
-6.10294
-6.18409
-6.25544
-6.31278
-6.31215
-6.42939
-7.75589
-35.4286
-64.5016
-60.6784
-50.0041
-38.5212
-20.7087
-4.67447
0.519328
1.48987
1.57908
1.55557
1.52316
1.48662
1.44821
1.40951
1.37049
1.33162
1.29405
1.25891
1.22691
1.19847
1.17384
1.15314
1.13615
1.12244
1.1116
1.10343
1.09792
1.09511
1.09503
1.09773
1.10268
1.10774
-6.20369
-6.27736
-6.34034
-6.39616
-6.41355
-6.4311
-6.7719
-25.9227
-59.2086
-57.5527
-46.6172
-35.0472
-17.5424
-3.952
0.46234
1.35293
1.44485
1.42895
1.40096
1.36747
1.33179
1.29543
1.2584
1.22129
1.18527
1.15141
1.12044
1.09284
1.06894
1.04886
1.03237
1.01905
1.00852
1.00063
0.995394
0.992859
0.993028
0.995944
1.00104
1.00618
-6.30689
-6.37108
-6.42363
-6.46693
-6.46747
-6.4548
-6.83997
-24.5154
-55.2438
-52.8771
-41.8649
-30.0204
-13.1813
-2.8682
0.533752
1.21664
1.29546
1.28899
1.26725
1.23831
1.2066
1.17347
1.13914
1.10445
1.07056
1.03847
1.00894
0.982537
0.959685
0.940492
0.924714
0.911929
0.901809
0.894258
0.889346
0.887128
0.887588
0.890734
0.895959
0.901165
-6.41175
-6.46474
-6.5037
-6.52385
-6.49061
-6.5616
-7.60966
-26.4349
-50.8783
-46.3922
-35.6759
-23.5515
-8.57816
-1.77117
0.635586
1.07422
1.13651
1.13881
1.12349
1.10007
1.07326
1.04406
1.01306
0.981347
0.950078
0.920195
0.892478
0.867624
0.846135
0.82811
0.81325
0.801123
0.791468
0.784293
0.779743
0.777894
0.778697
0.782102
0.787452
0.792693
-6.51648
-6.55739
-6.58083
-6.57679
-6.54155
-6.8231
-9.12139
-30.6504
-46.4957
-38.7368
-28.1361
-15.527
-4.71479
-1.03186
0.648261
0.912914
0.969226
0.979975
0.97107
0.95391
0.932555
0.907831
0.880691
0.852431
0.824175
0.796802
0.771179
0.748184
0.728398
0.711842
0.698096
0.686708
0.677528
0.670729
0.666574
0.665163
0.666382
0.670088
0.675557
0.680802
-6.61974
-6.64748
-6.64784
-6.60673
-6.58564
-7.36354
-14.274
-36.6507
-40.4998
-30.0196
-19.2249
-6.76678
-1.95786
-0.386317
0.575853
0.742592
0.797721
0.814222
0.811724
0.801107
0.785329
0.76538
0.742563
0.71822
0.693301
0.668621
0.645259
0.624375
0.606612
0.591816
0.579361
0.568767
0.560055
0.553632
0.549911
0.549007
0.550714
0.554756
0.560332
0.565546
-6.72614
-6.7429
-6.72283
-6.679
-6.74962
-9.01353
-23.6314
-36.4241
-30.3789
-19.9273
-9.20703
-0.333484
-0.635853
0.00864441
0.45286
0.570498
0.624113
0.643682
0.647375
0.643185
0.632852
0.617596
0.599188
0.578996
0.55768
0.535942
0.515076
0.496514
0.480946
0.468033
0.456972
0.447288
0.439173
0.43324
0.43003
0.429659
0.431837
0.436177
0.441821
0.44698
)
;

boundaryField
{
    leftWall
    {
        type            calculated;
        value           nonuniform 0();
    }
    rightWall
    {
        type            calculated;
        value           nonuniform List<scalar> 
43
(
3.36967
3.32251
3.27535
3.22799
3.18046
3.13281
3.08499
3.03695
2.98866
2.9401
2.89081
2.84049
2.78933
2.73727
2.68428
2.63029
2.57527
2.51914
2.46185
2.40332
2.34347
2.28221
2.21945
2.15507
2.08894
2.02096
1.95096
1.87882
1.80436
1.72745
1.64792
1.56561
1.48038
1.3921
1.30063
1.20587
1.10774
1.00618
0.901165
0.792693
0.680802
0.565546
0.44698
)
;
    }
    lowerWall
    {
        type            calculated;
        value           nonuniform List<scalar> 
66
(
1781.72
1816.35
1792.81
1732.98
1694.67
1679.73
1680.35
1684.9
1664.01
1604.29
1466.84
1180.35
-50.7942
-0.394849
2.27917
1.9977
3.44407
3.39809
3.3532
3.30847
3.26279
3.21482
3.16254
3.10208
3.02334
2.90637
3.46761
3.46313
3.45888
3.45509
3.45055
3.44681
3.44498
3.44376
3.44371
3.44458
3.44605
3.44774
3.44936
3.45065
3.45143
3.45158
3.45103
3.44977
3.44785
3.44534
3.44227
3.43878
3.43503
3.43119
3.42727
3.42335
3.41934
3.4155
3.41207
3.4088
3.40577
3.40298
3.40044
3.3982
3.39633
3.39491
3.39397
3.39346
3.39329
3.39322
)
;
    }
    atmosphere
    {
        type            calculated;
        value           nonuniform 0();
    }
    defaultFaces
    {
        type            empty;
    }
    procBoundary1to0
    {
        type            processor;
        value           nonuniform List<scalar> 
44
(
1737.35
1688.52
1651.05
1617.38
1579.89
1533.23
1470.61
1384.58
1267.18
1113.97
930.951
762.065
634.614
529.617
434.596
349.102
272.437
202.61
138.23
78.5101
19.3633
19.3633
-26.781
-73.9027
-96.8085
-46.9322
-7.86359
-4.60963
-4.44738
-4.63517
-4.76619
-4.86629
-4.96571
-5.06595
-5.16531
-5.26362
-5.36107
-5.45796
-5.55492
-5.65269
-5.75178
-5.85195
-5.95204
-6.05021
)
;
    }
    procBoundary1to3
    {
        type            processor;
        value           nonuniform List<scalar> 
45
(
-6.32241
-6.48628
-6.6225
-6.72436
-6.79458
-6.84099
-6.85332
-6.81936
-6.83739
-7.21918
-13.2224
-25.3314
-25.9963
-18.1929
-9.19325
-0.342128
0.968123
-0.405939
0.0487125
0.299059
0.398251
0.448117
0.470733
0.480345
0.481989
0.476707
0.465897
0.451625
0.435316
0.417533
0.398965
0.380966
0.364971
0.351598
0.340454
0.330775
0.322201
0.315022
0.30989
0.307339
0.307463
0.309952
0.314415
0.32002
0.325085
)
;
    }
}


// ************************************************************************* //
