/*--------------------------------*- C++ -*----------------------------------*\
| =========                 |                                                 |
| \\      /  F ield         | OpenFOAM: The Open Source CFD Toolbox           |
|  \\    /   O peration     | Version:  5.0                                   |
|   \\  /    A nd           | Web:      www.OpenFOAM.org                      |
|    \\/     M anipulation  |                                                 |
\*---------------------------------------------------------------------------*/
FoamFile
{
    version     2.0;
    format      ascii;
    class       volScalarField;
    location    "0.35";
    object      p_rgh;
}
// * * * * * * * * * * * * * * * * * * * * * * * * * * * * * * * * * * * * * //

dimensions      [1 -1 -2 0 0 0 0];

internalField   nonuniform List<scalar> 
1915
(
1781.72
1816.35
1757.71
1803.59
1761.61
1812.36
1790.47
1844.52
1823.63
1892.24
1850.33
1943.88
1856.66
1970.08
1831.99
1957.44
1761.15
1867.08
1621.21
1627.68
3.46761
3.46313
3.45888
3.45509
3.45055
3.44681
3.44498
3.44376
3.44371
3.44458
3.44605
3.44774
3.44936
3.45065
3.45143
3.45158
3.45103
3.44977
3.44785
3.44534
3.44227
3.43878
3.43503
3.43119
3.42727
3.42335
3.41934
3.4155
3.41207
3.4088
3.40577
3.40298
3.40044
3.3982
3.39633
3.39491
3.39397
3.39346
3.39329
3.39322
3.46872
3.46525
3.46273
3.45838
3.45367
3.44914
3.44533
3.44323
3.44247
3.44277
3.44373
3.44502
3.44637
3.44752
3.44828
3.44851
3.44811
3.44706
3.44538
3.44313
3.44039
3.43724
3.43387
3.43027
3.42652
3.42266
3.41902
3.41553
3.41211
3.40894
3.40599
3.40328
3.40082
3.39863
3.39675
3.39527
3.39422
3.39358
3.39325
3.39314
3.47092
3.46606
3.46308
3.45913
3.45402
3.44922
3.44508
3.44235
3.44093
3.44058
3.44098
3.44183
3.44287
3.44385
3.44457
3.44488
3.44466
3.44385
3.44245
3.44052
3.4381
3.43529
3.43222
3.42898
3.42554
3.422
3.41852
3.41515
3.41187
3.4088
3.40594
3.4033
3.40088
3.39869
3.39677
3.39522
3.39408
3.39338
3.39302
3.39307
3.47327
3.46624
3.46173
3.4575
3.45252
3.44772
3.44362
3.44071
3.43901
3.43832
3.43841
3.43901
3.43986
3.44073
3.44142
3.44179
3.44169
3.44106
3.43988
3.43818
3.43601
3.43345
3.43064
3.42765
3.42448
3.42121
3.41791
3.41465
3.41147
3.40847
3.40568
3.40308
3.40068
3.39847
3.3965
3.39487
3.39367
3.39293
3.39262
3.39279
3.47469
3.46526
3.45867
3.45403
3.44931
3.44483
3.44106
3.43833
3.4367
3.43602
3.43609
3.43666
3.43749
3.43834
3.43904
3.43945
3.43945
3.43896
3.43794
3.43641
3.43439
3.43199
3.42932
3.42648
3.4235
3.42041
3.41725
3.41408
3.41096
3.40798
3.4052
3.40261
3.40021
3.39798
3.39597
3.3943
3.39306
3.39231
3.39208
3.39235
3.4738
3.462
3.45334
3.44866
3.44452
3.44071
3.43753
3.43526
3.43396
3.43355
3.43383
3.43457
3.43552
3.43645
3.43721
3.43769
3.43779
3.43743
3.43656
3.43515
3.43323
3.4309
3.42828
3.4255
3.4226
3.41961
3.41655
3.41346
3.41037
3.40737
3.40453
3.40188
3.39944
3.3972
3.39519
3.39351
3.39228
3.39156
3.39141
3.39179
3.46861
3.45512
3.44486
3.44115
3.4382
3.43545
3.43313
3.43152
3.43075
3.43079
3.43146
3.43254
3.43376
3.4349
3.43581
3.43641
3.43663
3.43639
3.43563
3.43431
3.43246
3.43014
3.42751
3.4247
3.4218
3.41885
3.41585
3.41279
3.4097
3.40662
3.40366
3.4009
3.39839
3.39614
3.39417
3.39254
3.39134
3.39065
3.39058
3.39105
3.45523
3.4428
3.43218
3.43118
3.43037
3.42914
3.42791
3.42713
3.42704
3.42767
3.42889
3.43046
3.43211
3.43361
3.43479
3.43558
3.43592
3.43578
3.4351
3.43385
3.43202
3.4297
3.42701
3.42413
3.42116
3.41817
3.41515
3.41207
3.40892
3.40572
3.40259
3.39967
3.39706
3.39481
3.3929
3.39136
3.39022
3.38957
3.38957
3.3901
3.42358
3.42215
3.41447
3.41881
3.42125
3.42199
3.42201
3.42213
3.42281
3.42416
3.42607
3.42828
3.43051
3.43252
3.4341
3.43516
3.43566
3.4356
3.43495
3.43371
3.43189
3.42954
3.4268
3.42381
3.42072
3.41759
3.41445
3.41126
3.40799
3.40464
3.40132
3.39821
3.39549
3.39323
3.39141
3.38996
3.38889
3.38828
3.38832
3.3889
3.3537
3.3871
3.39276
3.40518
3.41166
3.41446
3.41564
3.41661
3.41807
3.42025
3.42297
3.42597
3.42893
3.43158
3.43369
3.43513
3.43586
3.43587
3.43521
3.43393
3.43207
3.42968
3.42685
3.42372
3.42045
3.4171
3.41374
3.41034
3.40689
3.40337
3.39985
3.39655
3.39369
3.39141
3.38966
3.38832
3.38731
3.38673
3.38681
3.38743
1377.66
1084.91
1196.38
967.323
1126.04
999.907
1087.65
992.209
1055.29
971.339
1032.95
964.976
1019.6
967.693
1012.19
973.669
1009.48
982.346
1011.06
994.023
1008.68
1025.44
1041.68
1063.53
1133.59
150.326
-3.05853
-3.12416
-3.28105
-3.38915
-3.43822
-3.47764
-3.51843
-3.55915
-3.59934
-3.63929
-3.67933
-3.72006
-3.76224
-3.8063
-3.85176
-3.89715
-3.94035
317.633
0.0760208
2.75004
2.46857
548.427
147.995
3.131
3.04538
753.402
587.008
236.285
2.86301
839.493
721.62
625.653
343.536
865.718
781.089
725.784
684.522
889.104
827.104
785.073
755.477
912.496
865.242
830.634
807.62
933.277
897.508
869.45
850.315
953.555
927.322
905.666
890.062
974.998
956.905
941.154
929.125
998.23
987.291
976.977
968.499
1023.37
1019.09
1013.88
1008.91
1049.03
1052.07
1052.19
1050.79
1074.32
1084.47
1091
1093.95
1121.06
1121.67
1129.86
1137.1
610.945
1197.14
1185.95
1183.93
17.605
166.091
741.036
1258.27
-3.13782
-2.81302
36.6308
219.322
-3.36644
-3.35889
-3.10214
-2.15881
-3.48685
-3.56122
-3.58684
-3.55949
-3.55469
-3.66159
-3.75426
-3.83609
-3.59444
-3.70804
-3.81797
-3.91797
-3.63365
-3.74511
-3.85461
-3.96096
-3.67406
-3.78417
-3.89096
-3.99396
-3.71487
-3.82469
-3.92998
-4.02986
-3.75644
-3.86677
-3.97121
-4.06856
-3.79926
-3.91099
-4.01518
-4.11015
-3.84392
-3.95799
-4.06248
-4.15503
-3.89116
-4.00836
-4.11334
-4.20299
-3.94128
-4.06185
-4.16693
-4.25307
-3.99326
-4.11698
-4.22175
-4.30343
-4.04502
-4.17211
-4.27575
-4.35188
-4.09635
-4.22235
-4.32392
-4.39989
3.17849
3.32333
3.37023
3.39317
3.40324
3.40731
3.4091
3.41061
3.4128
3.41586
3.41956
3.42351
3.42735
3.43078
3.43355
3.43549
3.43652
3.43665
3.43596
3.43458
3.43261
3.43011
3.42715
3.42384
3.42031
3.41668
3.41299
3.4093
3.4056
3.40187
3.39816
3.39468
3.39168
3.38935
3.38764
3.38636
3.38541
3.38486
3.38497
3.38564
3.27101
3.31895
3.36163
3.38927
3.39925
3.40204
3.40293
3.40423
3.40694
3.41094
3.41577
3.42086
3.42576
3.43012
3.43368
3.43624
3.43768
3.43799
3.43729
3.43575
3.43358
3.43087
3.42768
3.42411
3.42027
3.41627
3.41219
3.40812
3.4041
3.40013
3.39623
3.39257
3.38943
3.38701
3.38529
3.38405
3.38312
3.3826
3.38276
3.38348
3.54112
3.39568
3.37892
3.39957
3.40286
3.40067
3.39824
3.39783
3.40057
3.40551
3.41162
3.41805
3.42421
3.42966
3.43413
3.43741
3.43936
3.43994
3.43924
3.4375
3.43502
3.43198
3.42846
3.42453
3.42029
3.41585
3.41131
3.40679
3.40239
3.39815
3.39405
3.39022
3.38692
3.38438
3.38259
3.38133
3.38041
3.37991
3.38013
3.38092
8.3616
3.62483
3.48053
3.44222
3.42011
3.40565
3.39586
3.39239
3.39423
3.39979
3.40724
3.41516
3.42274
3.42946
3.43497
3.43906
3.44159
3.44248
3.44182
3.43986
3.43699
3.43349
3.4295
3.4251
3.42036
3.4154
3.41034
3.40531
3.40047
3.3959
3.39158
3.38758
3.38411
3.3814
3.37948
3.37816
3.37722
3.37675
3.37705
3.37791
427.818
32.936
4.52369
3.5523
3.47343
3.42278
3.39982
3.39013
3.38948
3.39465
3.40305
3.4124
3.42149
3.4296
3.43629
3.44127
3.44442
3.44566
3.44505
3.44286
3.43952
3.43545
3.43086
3.42584
3.4205
3.41494
3.40927
3.40367
3.39832
3.39336
3.38878
3.38459
3.38093
3.37802
3.37592
3.37448
3.3735
3.37306
3.37346
3.37442
728.171
499.69
68.1637
5.83949
3.72736
3.4801
3.41541
3.39378
3.38909
3.39205
3.40016
3.41027
3.42067
3.43022
3.43819
3.44417
3.44796
3.44954
3.44897
3.44653
3.44267
3.43789
3.43255
3.42679
3.42072
3.41445
3.40811
3.40185
3.39592
3.3905
3.38561
3.38119
3.37731
3.37416
3.37184
3.37024
3.3692
3.36881
3.36933
3.37041
789.516
773.093
571.849
114.433
7.53879
4.05126
3.50004
3.41307
3.39533
3.39522
3.4009
3.40984
3.42069
3.43147
3.44079
3.44786
3.45233
3.45421
3.45365
3.4509
3.44645
3.44085
3.43461
3.42796
3.42102
3.41393
3.40681
3.39982
3.39323
3.38727
3.382
3.37731
3.37319
3.36977
3.36719
3.36539
3.36427
3.36394
3.3646
3.36581
837.442
828.877
820.607
633.415
156.994
9.54437
4.5165
3.57866
3.42846
3.41056
3.40921
3.41315
3.42228
3.43356
3.44417
3.45241
3.45764
3.4598
3.45917
3.45604
3.45089
3.44435
3.43705
3.42934
3.42138
3.41332
3.40533
3.39752
3.39018
3.38361
3.37789
3.37289
3.36849
3.36477
3.36188
3.35986
3.35866
3.35839
3.35922
3.36058
879.631
874.402
872.958
868.929
680.832
173.456
11.6658
5.05704
3.69507
3.46552
3.43199
3.4233
3.42653
3.43675
3.44837
3.45789
3.46397
3.46643
3.46563
3.46199
3.45602
3.44839
3.43985
3.43089
3.42173
3.41257
3.40358
3.39487
3.3867
3.37943
3.3732
3.36783
3.36312
3.35907
3.35586
3.3536
3.35231
3.35213
3.35313
3.35467
920.577
916.406
916.991
919.543
917.569
700.751
154.623
12.5819
5.44879
3.82127
3.49967
3.44442
3.43516
3.44164
3.45349
3.46435
3.47141
3.47419
3.47313
3.46882
3.46185
3.45297
3.443
3.43257
3.42201
3.41159
3.40147
3.39175
3.38268
3.37464
3.36782
3.36204
3.35699
3.3526
3.34906
3.34654
3.34517
3.34507
3.34627
3.34798
961.927
958.453
959.183
963.185
968.075
967.705
663.951
108.076
11.4981
5.25744
3.78436
3.49767
3.45158
3.44973
3.46004
3.47189
3.48002
3.48315
3.48172
3.47655
3.46839
3.45805
3.44645
3.43433
3.42216
3.41028
3.39889
3.38806
3.378
3.36912
3.36165
3.35541
3.34999
3.34525
3.34137
3.33862
3.33716
3.33715
3.33856
3.34047
1004.45
1001.78
1002.32
1006.03
1012.19
1018.4
1019.37
568.225
55.4509
9.61491
4.87322
3.71324
3.49454
3.46586
3.46967
3.48094
3.48988
3.49332
3.4914
3.48516
3.47557
3.46355
3.4501
3.43608
3.42208
3.40855
3.39574
3.38369
3.37255
3.36275
3.35457
3.34781
3.342
3.33691
3.33272
3.32973
3.3282
3.32829
3.32991
3.33203
1048.6
1046.89
1047.3
1050.28
1055.93
1063.82
1071.34
1073.51
449.419
23.5317
8.50346
4.56741
3.65956
3.50528
3.48612
3.49254
3.50117
3.50467
3.50211
3.49456
3.48327
3.46933
3.45381
3.43769
3.42167
3.40629
3.3919
3.37851
3.36622
3.35543
3.34647
3.33913
3.3329
3.32747
3.32297
3.31979
3.3182
3.31841
3.32024
3.32257
1094.51
1094.08
1094.48
1096.67
1101.22
1108.43
1117.82
1125.48
1013.84
283.146
17.6002
6.90611
4.2044
3.61604
3.51632
3.50837
3.51424
3.51714
3.51366
3.50455
3.4913
3.47517
3.45737
3.43896
3.42073
3.40335
3.38722
3.37239
3.35887
3.34704
3.33722
3.32925
3.32256
3.31679
3.31203
3.30867
3.30706
3.30738
3.30944
3.31198
1141.49
1143.2
1143.97
1145.41
1148.71
1154.57
1163.08
1173.08
1182.45
747.934
104.487
12.0311
5.56279
3.90869
3.58242
3.53228
3.53006
3.53078
3.52582
3.51485
3.49934
3.48078
3.46049
3.43962
3.41905
3.39952
3.38155
3.36518
3.35037
3.33744
3.32672
3.31806
3.31088
3.30475
3.29975
3.29627
3.29465
3.29511
3.2974
3.30016
1189.1
1193.34
1195.41
1196.53
1198.55
1202.82
1209.95
1219.89
1230.24
1236
475.137
24.308
8.70611
4.68372
3.7565
3.57768
3.55089
3.54588
3.53832
3.52504
3.50701
3.48579
3.46283
3.43936
3.41632
3.39456
3.37466
3.35668
3.34054
3.32649
3.31483
3.30544
3.29772
3.29124
3.28602
3.28245
3.28086
3.28146
3.28399
3.28698
1246.74
1245.68
1247.96
1249.52
1250.7
1253.34
1258.74
1267.3
1278.25
1290.47
974.491
168.231
14.301
6.1111
4.11348
3.66269
3.57996
3.56267
3.55082
3.53459
3.51378
3.48972
3.46396
3.4378
3.41223
3.38816
3.36628
3.34666
3.32918
3.314
3.3014
3.29124
3.28297
3.27612
3.27071
3.26707
3.26554
3.26631
3.26909
3.2723
1015.88
1311.59
1304.28
1303.73
1304.54
1306.02
1309.65
1316.54
1326.74
1338.49
1348.32
496.704
25.2694
8.88892
4.79788
3.83155
3.62596
3.58215
3.56288
3.54285
3.51897
3.492
3.46338
3.4345
3.40637
3.37999
3.35612
3.33486
3.31604
3.29976
3.28624
3.27533
3.26649
3.25928
3.25369
3.25002
3.24857
3.24951
3.25254
3.25598
94.2254
655.905
1364.6
1361.43
1359.38
1360.19
1362.55
1367.73
1376.48
1387.8
1399.79
944.428
121.52
12.9049
5.87425
4.10594
3.69441
3.60461
3.57377
3.54897
3.52178
3.49188
3.46049
3.42894
3.39832
3.36969
3.34387
3.321
3.30087
3.28354
3.26916
3.25753
3.24814
3.24058
3.23483
3.23114
3.22979
3.23093
3.23421
3.23788
-2.52638
13.0704
417.762
1315.14
1416.8
1414.95
1416.75
1420.8
1428.08
1438.61
1451.1
1333.79
336.276
19.2953
7.41444
4.51954
3.79697
3.63214
3.58301
3.55202
3.5213
3.48858
3.45458
3.42054
3.38759
3.35686
3.32921
3.30479
3.28342
3.26511
3.24993
3.23766
3.22777
3.21988
3.21399
3.21032
3.20908
3.21041
3.21394
3.21783
-3.74305
-3.39817
0.906087
337.22
1270.81
1469.06
1470.79
1475.06
1481.5
1490.92
1502.6
1516.65
649.403
36.4519
9.38733
5.0662
3.93419
3.66468
3.58988
3.55111
3.51665
3.48126
3.44492
3.40868
3.37369
3.34109
3.31178
3.28594
3.26344
3.24424
3.22837
3.21552
3.2052
3.19704
3.19104
3.1874
3.18628
3.18782
3.19159
3.19569
-4.01068
-3.97856
-3.73823
1.2061
390.997
1355.28
1521.49
1528.67
1536.09
1544.99
1555.7
1569.16
1021.49
107.493
11.8697
5.73087
4.09969
3.69917
3.59281
3.54514
3.50689
3.4691
3.4308
3.39276
3.35608
3.32195
3.29124
3.26417
3.24067
3.22072
3.20426
3.19094
3.18027
3.1719
3.16584
3.16225
3.16127
3.163
3.16701
3.17132
-4.06401
-4.17146
-4.12985
-3.4144
0.572948
707.19
1513.65
1580.4
1590.86
1600.43
1610.66
1623.68
1288.12
210.523
14.8855
6.49529
4.28228
3.7323
3.59003
3.53288
3.4911
3.45136
3.41158
3.3722
3.33428
3.299
3.26722
3.23918
3.21489
3.19433
3.17741
3.16374
3.15281
3.14432
3.13825
3.13474
3.13391
3.13583
3.14006
3.14456
-4.09807
-4.20261
-4.27985
-4.30227
-3.72515
37.8924
1156.01
1631.53
1645.34
1656.59
1667.53
1678.8
1464.32
341.225
17.7416
7.23932
4.45023
3.75575
3.57871
3.513
3.46843
3.42736
3.38669
3.34651
3.30783
3.27185
3.23938
3.21069
3.18585
3.16489
3.14766
3.13376
3.12268
3.11414
3.10812
3.10474
3.10406
3.10618
3.11061
3.11528
-4.12888
-4.22675
-4.3207
-4.39517
-4.24697
-3.35023
645.348
1607.09
1700.15
1713.81
1725.47
1736.01
1609.68
498.951
20.5367
7.95024
4.59682
3.76551
3.55733
3.48458
3.43819
3.39658
3.35566
3.31527
3.27639
3.24019
3.20744
3.17845
3.15336
3.13222
3.11487
3.10088
3.08976
3.08126
3.07535
3.07212
3.07162
3.07393
3.07855
3.08337
-4.16259
-4.25154
-4.3335
-4.3968
-4.36787
-4.37999
231.885
1454.16
1756.38
1771.87
1784.42
1796.08
1702.45
631.892
22.6368
8.47328
4.68569
3.754
3.52393
3.44687
3.3999
3.35862
3.31818
3.2782
3.23968
3.20376
3.17117
3.14226
3.11724
3.09618
3.0789
3.06497
3.05394
3.04556
3.03982
3.03678
3.03648
3.03898
3.04377
3.04873
-4.19941
-4.28056
-4.35185
-4.40886
-4.40777
-4.49486
36.7658
1194.59
1812.74
1830.93
1844.61
1857.53
1749.95
632.559
23.2891
8.56988
4.66407
3.71066
3.47621
3.3991
3.35323
3.31326
3.27405
3.23515
3.19758
3.16244
3.13044
3.102
3.07737
3.05666
3.03967
3.02597
3.01513
3.00696
3.00144
2.99864
2.99855
3.00126
3.00621
3.01127
-4.23893
-4.3126
-4.37557
-4.43139
-4.44844
-4.459
-4.6577
883.312
1844.12
1891.34
1906.19
1920.11
1751.15
591.084
22.4942
8.1886
4.51872
3.63047
3.41252
3.34074
3.29798
3.26041
3.22319
3.18606
3.15003
3.11617
3.0852
3.0576
3.0337
3.01362
2.99713
2.98381
2.97328
2.96539
2.96015
2.95762
2.95779
2.9607
2.9658
2.97094
-4.28033
-4.34452
-4.39707
-4.44036
-4.44078
-4.42674
-4.78384
861.411
1901.15
1952.1
1967.33
1984.22
1709.67
471.375
20.1036
7.40987
4.26921
3.51754
3.33374
3.27214
3.23438
3.20022
3.16573
3.13102
3.09712
3.06503
3.0355
3.0091
2.98625
2.96705
2.95127
2.93849
2.92837
2.92082
2.91591
2.91369
2.91415
2.91729
2.92252
2.92773
-4.32281
-4.3758
-4.41476
-4.43458
-4.40131
-4.47182
24.5309
961.635
1978.95
2017.43
2030.01
2037.85
1551.3
295.427
16.4397
6.41661
3.97942
3.38399
3.24322
3.19461
3.16314
3.13315
3.10202
3.07029
3.03901
3.00913
2.98141
2.95656
2.93507
2.91705
2.90219
2.89006
2.8804
2.87323
2.86868
2.86683
2.86763
2.87104
2.87639
2.88163
-4.36458
-4.4055
-4.42893
-4.42422
-4.37394
-4.62298
82.4495
1205.56
2062.1
2084.8
2097.05
2063.99
1253.63
129.217
12.6748
5.47313
3.67412
3.24388
3.14454
3.10972
3.0851
3.05982
3.0326
3.00432
2.97607
2.94869
2.92307
2.90008
2.88029
2.86373
2.84999
2.8386
2.82942
2.82262
2.81847
2.81705
2.81827
2.82198
2.82745
2.83269
-4.40429
-4.43197
-4.43233
-4.37548
-4.31138
5.71892
293.798
1667.04
2118.72
2146.29
2161.77
2015
823.151
41.4076
9.43976
4.65905
3.38589
3.1046
3.04124
3.01903
3.00118
2.98087
2.958
2.93365
2.90873
2.88405
2.86069
2.8398
2.82204
2.80725
2.79479
2.7842
2.77549
2.76906
2.76534
2.76444
2.76614
2.77019
2.77576
2.78098
-4.44629
-4.46257
-4.44216
-4.39468
3.80341
121.735
1142.1
2122.25
2180.4
2201.3
2194.87
1708.32
369.792
19.4592
7.20452
3.9451
3.13585
2.96943
2.93553
2.92424
2.91265
2.89719
2.87875
2.85856
2.83724
2.8155
2.79463
2.77607
2.7605
2.74759
2.73653
2.72685
2.71873
2.7128
2.70959
2.70922
2.7114
2.71574
2.72138
2.72654
)
;

boundaryField
{
    leftWall
    {
        type            fixedFluxPressure;
        gradient        nonuniform 0();
        value           nonuniform 0();
    }
    rightWall
    {
        type            fixedFluxPressure;
        gradient        uniform 0;
        value           nonuniform List<scalar> 
43
(
3.39322
3.39314
3.39307
3.39279
3.39235
3.39179
3.39105
3.3901
3.3889
3.38743
3.38564
3.38348
3.38092
3.37791
3.37442
3.37041
3.36581
3.36058
3.35467
3.34798
3.34047
3.33203
3.32257
3.31198
3.30016
3.28698
3.2723
3.25598
3.23788
3.21783
3.19569
3.17132
3.14456
3.11528
3.08337
3.04873
3.01127
2.97094
2.92773
2.88163
2.83269
2.78098
2.72654
)
;
    }
    lowerWall
    {
        type            fixedFluxPressure;
        gradient        uniform 0;
        value           nonuniform List<scalar> 
66
(
1781.72
1816.35
1816.35
1803.59
1812.36
1844.52
1892.24
1943.88
1970.08
1957.44
1867.08
1627.68
317.633
0.0760208
2.75004
2.46857
3.46761
3.46872
3.47092
3.47327
3.47469
3.4738
3.46861
3.45523
3.42358
3.3537
3.46761
3.46313
3.45888
3.45509
3.45055
3.44681
3.44498
3.44376
3.44371
3.44458
3.44605
3.44774
3.44936
3.45065
3.45143
3.45158
3.45103
3.44977
3.44785
3.44534
3.44227
3.43878
3.43503
3.43119
3.42727
3.42335
3.41934
3.4155
3.41207
3.4088
3.40577
3.40298
3.40044
3.3982
3.39633
3.39491
3.39397
3.39346
3.39329
3.39322
)
;
    }
    atmosphere
    {
        type            totalPressure;
        rho             rho;
        psi             none;
        gamma           1;
        p0              nonuniform 0();
        value           nonuniform 0();
    }
    defaultFaces
    {
        type            empty;
    }
    procBoundary1to0
    {
        type            processor;
        value           nonuniform List<scalar> 
44
(
1758.44
1753.4
1768.3
1782.18
1791.78
1792.2
1776.67
1737.73
1667.42
1561.29
1425.79
1305.05
1226.2
1170.26
1124.74
1089.22
1062.98
1044.06
1031.05
1023.18
1016.36
1016.36
1023.03
1029.22
1060.23
586.479
12.3283
-3.02972
-3.07013
-3.20094
-3.27578
-3.31851
-3.36
-3.40177
-3.44212
-3.48087
-3.51821
-3.55444
-3.59015
-3.62613
-3.66284
-3.70005
-3.7366
-3.77061
)
;
    }
    procBoundary1to3
    {
        type            processor;
        value           nonuniform List<scalar> 
45
(
-3.97808
-4.14198
-4.21601
-4.31123
-4.41202
-4.49482
-4.50656
-4.44173
-4.4776
12.0969
761.989
2116.42
2217.19
2243.29
2258.22
2085.62
944.808
95.7248
12.6318
5.32392
3.37585
2.92537
2.84119
2.82945
2.8271
2.82112
2.8102
2.79591
2.7796
2.76182
2.74325
2.72525
2.70925
2.69588
2.68474
2.67506
2.66648
2.65931
2.65417
2.65162
2.65175
2.65424
2.6587
2.6643
2.66937
)
;
    }
}


// ************************************************************************* //
