/*--------------------------------*- C++ -*----------------------------------*\
| =========                 |                                                 |
| \\      /  F ield         | OpenFOAM: The Open Source CFD Toolbox           |
|  \\    /   O peration     | Version:  5.0                                   |
|   \\  /    A nd           | Web:      www.OpenFOAM.org                      |
|    \\/     M anipulation  |                                                 |
\*---------------------------------------------------------------------------*/
FoamFile
{
    version     2.0;
    format      ascii;
    class       surfaceScalarField;
    location    "0.35";
    object      phi;
}
// * * * * * * * * * * * * * * * * * * * * * * * * * * * * * * * * * * * * * //

dimensions      [0 3 -1 0 0 0 0];

internalField   nonuniform List<scalar> 
3731
(
-1.24969e-05
-4.24785e-06
-1.24969e-05
-6.582e-06
-1.87444e-06
-1.90788e-05
1.53196e-06
3.69397e-06
-1.75469e-05
6.86612e-06
1.14702e-05
-1.06808e-05
1.05915e-05
2.06292e-05
-8.92656e-08
1.309e-05
3.11248e-05
1.30007e-05
1.57644e-05
4.25307e-05
2.87651e-05
1.91952e-05
5.46521e-05
4.79604e-05
2.48112e-05
6.66896e-05
7.27716e-05
3.37187e-05
7.73189e-05
0.00010649
7.12636e-07
-7.12636e-07
-9.35585e-07
1.64823e-06
-3.42198e-06
2.48641e-06
-5.90533e-06
2.48334e-06
-7.99922e-06
2.09392e-06
-9.48702e-06
1.4878e-06
-1.03299e-05
8.4292e-07
-1.06416e-05
3.11647e-07
-1.05035e-05
-1.38048e-07
-1.00313e-05
-4.72233e-07
-9.31036e-06
-7.20906e-07
-8.40886e-06
-9.01468e-07
-7.38362e-06
-1.02522e-06
-6.28346e-06
-1.10014e-06
-5.1508e-06
-1.13266e-06
-4.02245e-06
-1.12836e-06
-2.93023e-06
-1.0922e-06
-1.90056e-06
-1.02964e-06
-9.57958e-07
-9.42608e-07
-1.23175e-07
-8.34796e-07
6.03015e-07
-7.26172e-07
1.22184e-06
-6.18821e-07
1.72874e-06
-5.06887e-07
2.12548e-06
-3.9673e-07
2.41581e-06
-2.90327e-07
2.61156e-06
-1.95746e-07
2.71362e-06
-1.02074e-07
2.72147e-06
-7.82846e-09
2.64566e-06
7.58462e-08
2.49639e-06
1.49261e-07
2.28521e-06
2.11173e-07
2.01903e-06
2.66178e-07
1.70434e-06
3.14679e-07
1.35066e-06
3.53705e-07
9.73297e-07
3.77373e-07
5.91151e-07
3.82135e-07
2.40221e-07
3.50922e-07
-2.8776e-08
2.68977e-07
-1.30447e-07
1.01657e-07
-1.30459e-07
-8.26913e-07
1.14292e-07
-2.95244e-06
3.77378e-06
-5.50529e-06
5.03931e-06
-7.81745e-06
4.7955e-06
-9.54013e-06
3.8166e-06
-1.06635e-05
2.6112e-06
-1.12574e-05
1.4368e-06
-1.13975e-05
4.51777e-07
-1.11899e-05
-3.45635e-07
-1.06924e-05
-9.69695e-07
-9.96605e-06
-1.44722e-06
-9.06876e-06
-1.79872e-06
-8.05231e-06
-2.04165e-06
-6.96197e-06
-2.19047e-06
-5.83707e-06
-2.25755e-06
-4.71149e-06
-2.2539e-06
-3.61393e-06
-2.18973e-06
-2.56899e-06
-2.07458e-06
-1.59493e-06
-1.91666e-06
-7.06526e-07
-1.72319e-06
8.16762e-08
-1.51435e-06
7.63768e-07
-1.3009e-06
1.3373e-06
-1.08042e-06
1.80151e-06
-8.6093e-07
2.15942e-06
-6.48243e-07
2.40999e-06
-4.46291e-07
2.56261e-06
-2.5466e-07
2.62678e-06
-7.20094e-08
2.60666e-06
9.59607e-08
2.50869e-06
2.47239e-07
2.33905e-06
3.80826e-07
2.10732e-06
4.97877e-07
1.82307e-06
5.98922e-07
1.49901e-06
6.77805e-07
1.14896e-06
7.27436e-07
7.95424e-07
7.35685e-07
4.58803e-07
6.87484e-07
1.74442e-07
5.53343e-07
-5.32416e-09
2.81418e-07
-1.3578e-07
-2.08336e-06
2.19766e-06
-4.48951e-06
6.17995e-06
-6.81931e-06
7.36913e-06
-8.77149e-06
6.74768e-06
-1.02155e-05
5.26061e-06
-1.1148e-05
3.54372e-06
-1.16297e-05
1.91846e-06
-1.1709e-05
5.3112e-07
-1.14539e-05
-6.00713e-07
-1.09261e-05
-1.49745e-06
-1.01859e-05
-2.18737e-06
-9.28791e-06
-2.69668e-06
-8.28039e-06
-3.04917e-06
-7.20534e-06
-3.2655e-06
-6.09906e-06
-3.3638e-06
-4.99259e-06
-3.36035e-06
-3.91222e-06
-3.2701e-06
-2.87987e-06
-3.10693e-06
-1.91292e-06
-2.88362e-06
-1.02349e-06
-2.61259e-06
-2.24389e-07
-2.31346e-06
4.73803e-07
-1.9991e-06
1.06864e-06
-1.67525e-06
1.55895e-06
-1.35125e-06
1.9453e-06
-1.0346e-06
2.22959e-06
-7.306e-07
2.41669e-06
-4.41744e-07
2.5145e-06
-1.69803e-07
2.52892e-06
8.15262e-08
2.46629e-06
3.09839e-07
2.33359e-06
5.13507e-07
2.13965e-06
6.91853e-07
1.89498e-06
8.43622e-07
1.61045e-06
9.62332e-07
1.29898e-06
1.03893e-06
9.76165e-07
1.05848e-06
6.57571e-07
1.00608e-06
3.61154e-07
8.49756e-07
1.12871e-07
5.29681e-07
-2.29297e-08
-2.8963e-06
5.09398e-06
-5.59684e-06
8.88051e-06
-7.87396e-06
9.64625e-06
-9.64936e-06
8.52308e-06
-1.09137e-05
6.52491e-06
-1.16959e-05
4.32596e-06
-1.2051e-05
2.27355e-06
-1.20318e-05
5.12007e-07
-1.16992e-05
-9.33314e-07
-1.11141e-05
-2.08254e-06
-1.03342e-05
-2.96724e-06
-9.41148e-06
-3.61942e-06
-8.39151e-06
-4.06913e-06
-7.31378e-06
-4.34323e-06
-6.212e-06
-4.46556e-06
-5.11471e-06
-4.45764e-06
-4.04576e-06
-4.33905e-06
-3.0248e-06
-4.12789e-06
-2.06742e-06
-3.84102e-06
-1.18491e-06
-3.4951e-06
-3.88699e-07
-3.1097e-06
3.12178e-07
-2.70001e-06
9.1395e-07
-2.27704e-06
1.41479e-06
-1.85211e-06
1.81492e-06
-1.43472e-06
2.11653e-06
-1.03219e-06
2.32381e-06
-6.49073e-07
2.44312e-06
-2.89127e-07
2.48066e-06
4.39924e-08
2.4431e-06
3.47423e-07
2.33776e-06
6.18829e-07
2.17324e-06
8.56363e-07
1.95962e-06
1.05725e-06
1.70685e-06
1.21513e-06
1.4258e-06
1.31999e-06
1.127e-06
1.35726e-06
8.22061e-07
1.31103e-06
5.20328e-07
1.15148e-06
2.29673e-07
8.20312e-07
2.06717e-07
-3.57804e-06
8.67203e-06
-6.60553e-06
1.1908e-05
-8.94905e-06
1.19898e-05
-1.06377e-05
1.02117e-05
-1.17563e-05
7.64355e-06
-1.23838e-05
4.95345e-06
-1.25923e-05
2.48205e-06
-1.24456e-05
3.65294e-07
-1.20063e-05
-1.37262e-06
-1.13347e-05
-2.75405e-06
-1.04871e-05
-3.81489e-06
-9.5133e-06
-4.59318e-06
-8.45715e-06
-5.12528e-06
-7.35605e-06
-5.44431e-06
-6.24157e-06
-5.58003e-06
-5.13997e-06
-5.55923e-06
-4.07281e-06
-5.40622e-06
-3.0575e-06
-5.14321e-06
-2.10763e-06
-4.79089e-06
-1.2335e-06
-4.36924e-06
-4.44543e-07
-3.89868e-06
2.52039e-07
-3.39661e-06
8.52436e-07
-2.87746e-06
1.35491e-06
-2.35462e-06
1.75972e-06
-1.83955e-06
2.06895e-06
-1.3414e-06
2.28665e-06
-8.66773e-07
2.41837e-06
-4.20858e-07
2.47026e-06
-7.92186e-09
2.44909e-06
3.68577e-07
2.36227e-06
7.05675e-07
2.21811e-06
1.00053e-06
2.02587e-06
1.24951e-06
1.79469e-06
1.44632e-06
1.53349e-06
1.58117e-06
1.2501e-06
1.64064e-06
9.52464e-07
1.60866e-06
6.45377e-07
1.45855e-06
3.26977e-07
1.13873e-06
5.33672e-07
-4.40488e-06
1.30769e-05
-7.80461e-06
1.53078e-05
-1.0236e-05
1.44211e-05
-1.18364e-05
1.18122e-05
-1.27912e-05
8.59834e-06
-1.3237e-05
5.39928e-06
-1.32714e-05
2.5164e-06
-1.2969e-05
6.29383e-08
-1.2395e-05
-1.94655e-06
-1.16094e-05
-3.53964e-06
-1.06671e-05
-4.75727e-06
-9.61677e-06
-5.64346e-06
-8.50106e-06
-6.241e-06
-7.35592e-06
-6.58942e-06
-6.21126e-06
-6.72469e-06
-5.09132e-06
-6.67918e-06
-4.01545e-06
-6.48208e-06
-2.99878e-06
-6.15989e-06
-2.05277e-06
-5.7369e-06
-1.18606e-06
-5.23595e-06
-4.05893e-07
-4.67887e-06
2.82442e-07
-4.08497e-06
8.76027e-07
-3.47107e-06
1.37378e-06
-2.85237e-06
1.77628e-06
-2.24205e-06
2.08572e-06
-1.65087e-06
2.30607e-06
-1.08712e-06
2.44252e-06
-5.57294e-07
2.5011e-06
-6.64969e-08
2.4885e-06
3.81166e-07
2.41201e-06
7.82141e-07
2.27957e-06
1.13294e-06
2.09959e-06
1.4295e-06
1.88022e-06
1.66567e-06
1.62889e-06
1.83253e-06
1.35153e-06
1.91798e-06
1.05313e-06
1.90704e-06
7.35181e-07
1.77654e-06
3.89214e-07
1.48469e-06
9.22892e-07
-5.6798e-06
1.87567e-05
-9.44537e-06
1.90733e-05
-1.18703e-05
1.68461e-05
-1.32948e-05
1.32367e-05
-1.40226e-05
9.32611e-06
-1.4244e-05
5.62073e-06
-1.40746e-05
2.34695e-06
-1.35925e-05
-4.19154e-07
-1.28611e-05
-2.67788e-06
-1.19384e-05
-4.46239e-06
-1.08779e-05
-5.81776e-06
-9.72811e-06
-6.79328e-06
-8.53113e-06
-7.43794e-06
-7.32244e-06
-7.79809e-06
-6.1308e-06
-7.91632e-06
-4.9788e-06
-7.83116e-06
-3.88373e-06
-7.57713e-06
-2.85838e-06
-7.18524e-06
-1.91189e-06
-6.6834e-06
-1.05074e-06
-6.0971e-06
-2.79774e-07
-5.44983e-06
3.97792e-07
-4.76252e-06
9.80519e-07
-4.05379e-06
1.46839e-06
-3.34024e-06
1.86269e-06
-2.63634e-06
2.16597e-06
-1.95417e-06
2.38223e-06
-1.30339e-06
2.51655e-06
-6.91631e-07
2.57481e-06
-1.24788e-07
2.56358e-06
3.92415e-07
2.48988e-06
8.55862e-07
2.36119e-06
1.26167e-06
2.18511e-06
1.60558e-06
1.96886e-06
1.88191e-06
1.71859e-06
2.08279e-06
1.43884e-06
2.19775e-06
1.13233e-06
2.21358e-06
7.97909e-07
2.11099e-06
4.2637e-07
1.85618e-06
1.34928e-06
-7.78309e-06
2.65398e-05
-1.17489e-05
2.30392e-05
-1.39156e-05
1.90128e-05
-1.49884e-05
1.43095e-05
-1.53934e-05
9.73118e-06
-1.53457e-05
5.57295e-06
-1.49528e-05
1.9541e-06
-1.42799e-05
-1.09203e-06
-1.33803e-05
-3.5775e-06
-1.23067e-05
-5.53598e-06
-1.11115e-05
-7.01295e-06
-9.84381e-06
-8.06095e-06
-8.54701e-06
-8.73471e-06
-7.25726e-06
-9.08782e-06
-6.00316e-06
-9.17042e-06
-4.80623e-06
-9.02807e-06
-3.68194e-06
-8.70141e-06
-2.64078e-06
-8.2264e-06
-1.68936e-06
-7.6348e-06
-8.31671e-07
-6.9548e-06
-6.9953e-08
-6.21155e-06
5.94933e-07
-5.42742e-06
1.16342e-06
-4.62229e-06
1.63694e-06
-3.81376e-06
2.01776e-06
-3.01715e-06
2.30907e-06
-2.24547e-06
2.51509e-06
-1.50939e-06
2.64092e-06
-8.1743e-07
2.69236e-06
-1.76199e-07
2.67577e-06
4.09041e-07
2.59784e-06
9.33782e-07
2.46558e-06
1.39394e-06
2.28588e-06
1.78526e-06
2.0651e-06
2.10267e-06
1.80842e-06
2.33948e-06
1.51932e-06
2.48686e-06
1.19921e-06
2.53369e-06
8.45944e-07
2.46425e-06
4.51284e-07
2.25082e-06
1.80054e-06
-1.15151e-05
3.80549e-05
-1.49182e-05
2.64423e-05
-1.6306e-05
2.04006e-05
-1.67736e-05
1.47772e-05
-1.67575e-05
9.71507e-06
-1.64196e-05
5.23496e-06
-1.5813e-05
1.34756e-06
-1.49649e-05
-1.94015e-06
-1.39072e-05
-4.63513e-06
-1.26846e-05
-6.75861e-06
-1.13489e-05
-8.34867e-06
-9.95228e-06
-9.45754e-06
-8.54187e-06
-1.01451e-05
-7.15669e-06
-1.0473e-05
-5.8267e-06
-1.05004e-05
-4.57332e-06
-1.02814e-05
-3.41071e-06
-9.86405e-06
-2.34719e-06
-9.28996e-06
-1.38678e-06
-8.59522e-06
-5.3067e-07
-7.81092e-06
2.21718e-07
-6.96395e-06
8.72182e-07
-6.07788e-06
1.42334e-06
-5.17344e-06
1.87835e-06
-4.26877e-06
2.24078e-06
-3.37958e-06
2.51466e-06
-2.51932e-06
2.70462e-06
-1.69933e-06
2.81592e-06
-9.28756e-07
2.85434e-06
-2.14671e-07
2.82602e-06
4.3731e-07
2.73736e-06
1.02245e-06
2.59483e-06
1.53648e-06
2.40472e-06
1.97536e-06
2.17271e-06
2.33472e-06
1.9032e-06
2.60898e-06
1.599e-06
2.79102e-06
1.26094e-06
2.87175e-06
8.86847e-07
2.83832e-06
4.70187e-07
2.66749e-06
2.27068e-06
-1.6217e-05
5.42719e-05
-1.87071e-05
2.89324e-05
-1.86849e-05
2.03784e-05
-1.83113e-05
1.44036e-05
-1.78395e-05
9.24324e-06
-1.7259e-05
4.65444e-06
-1.65071e-05
5.95678e-07
-1.55446e-05
-2.90263e-06
-1.43724e-05
-5.80727e-06
-1.3026e-05
-8.10503e-06
-1.15599e-05
-9.81479e-06
-1.00338e-05
-1.09836e-05
-8.50284e-06
-1.16761e-05
-7.01228e-06
-1.19636e-05
-5.59588e-06
-1.19169e-05
-4.27651e-06
-1.16008e-05
-3.06783e-06
-1.10727e-05
-1.9764e-06
-1.03814e-05
-1.00366e-06
-9.56796e-06
-1.47811e-07
-8.66678e-06
5.94826e-07
-7.70661e-06
1.22896e-06
-6.71201e-06
1.75968e-06
-5.70411e-06
2.19212e-06
-4.70118e-06
2.53137e-06
-3.71885e-06
2.78251e-06
-2.77054e-06
2.95078e-06
-1.86768e-06
3.04174e-06
-1.01973e-06
3.0612e-06
-2.34076e-07
3.01512e-06
4.83417e-07
2.90958e-06
1.12798e-06
2.75061e-06
1.69544e-06
2.54397e-06
2.18199e-06
2.29474e-06
2.58396e-06
2.00681e-06
2.8969e-06
1.68261e-06
3.11521e-06
1.32282e-06
3.23153e-06
9.25855e-07
3.23527e-06
4.87071e-07
3.10626e-06
2.75775e-06
5.28594e-05
7.94039e-05
9.99964e-05
5.93533e-05
6.75963e-05
7.62219e-05
9.03988e-05
7.71939e-05
7.51721e-05
7.20832e-05
8.15551e-05
8.40158e-05
7.99994e-05
6.77558e-05
7.45505e-05
8.7004e-05
8.32712e-05
6.34488e-05
6.89432e-05
8.88785e-05
8.52489e-05
5.92852e-05
6.41727e-05
9.00195e-05
8.61751e-05
5.52864e-05
5.98817e-05
9.04661e-05
8.62409e-05
5.14315e-05
5.5877e-05
9.02456e-05
8.55856e-05
4.77e-05
5.20585e-05
8.94041e-05
8.43562e-05
4.83766e-05
8.80381e-05
4.48164e-05
8.63069e-05
4.13985e-05
8.44415e-05
3.82e-05
8.2763e-05
3.53293e-05
8.1705e-05
3.28715e-05
8.16269e-05
2.99032e-05
8.22026e-05
2.74932e-05
8.19152e-05
2.76421e-05
8.52419e-05
2.8003e-05
9.14524e-05
2.74493e-05
9.78184e-05
2.58166e-05
0.000102641
2.31956e-05
0.000105656
1.97172e-05
0.000107014
1.55052e-05
0.000106928
1.06771e-05
0.000105614
5.34603e-06
0.000103275
-3.82636e-07
0.000100094
-6.41182e-06
9.62053e-05
-1.2651e-05
9.16649e-05
-1.90178e-05
8.64469e-05
-2.54402e-05
8.04516e-05
-3.18705e-05
7.35519e-05
6.56421e-05
-1.13312e-05
7.06845e-05
-5.02923e-05
3.89612e-05
-6.00037e-05
9.71142e-06
-5.92775e-06
-5.40759e-05
6.64512e-05
8.14272e-05
3.74194e-05
6.7993e-05
-2.27361e-06
4.94044e-05
2.67153e-05
-3.49166e-05
8.63055e-05
7.91375e-05
7.89876e-05
7.53109e-05
6.19608e-05
6.64313e-05
5.36223e-05
3.50537e-05
9.24522e-05
7.36892e-05
9.36842e-05
7.40789e-05
8.86698e-05
7.14456e-05
6.54438e-05
7.68484e-05
9.40638e-05
6.85039e-05
9.78254e-05
7.03174e-05
9.85307e-05
7.07403e-05
6.90989e-05
9.48755e-05
9.45112e-05
6.40122e-05
9.84893e-05
6.63392e-05
0.000101262
6.79672e-05
6.86361e-05
0.000101725
9.4482e-05
5.99962e-05
9.82144e-05
6.26068e-05
0.000101431
6.47508e-05
6.64536e-05
0.000103613
9.39755e-05
5.62663e-05
9.74974e-05
5.90848e-05
0.000100715
6.1533e-05
6.37227e-05
0.000103446
9.29592e-05
5.27112e-05
9.63529e-05
5.56911e-05
9.95236e-05
5.83624e-05
6.08362e-05
0.00010241
9.14765e-05
4.92727e-05
9.47933e-05
5.23743e-05
9.79385e-05
5.52173e-05
5.78918e-05
0.000100883
8.96486e-05
4.5931e-05
9.29045e-05
4.91184e-05
9.60321e-05
5.20897e-05
5.49147e-05
9.90092e-05
8.76711e-05
4.27015e-05
9.08494e-05
4.59401e-05
9.39396e-05
4.89995e-05
5.19336e-05
9.69207e-05
8.58182e-05
3.96463e-05
8.88639e-05
4.28944e-05
9.18645e-05
4.59989e-05
4.9001e-05
9.47971e-05
8.44523e-05
3.6899e-05
8.72538e-05
4.00928e-05
9.00697e-05
4.3183e-05
4.62025e-05
9.28682e-05
8.3964e-05
3.45619e-05
8.63923e-05
3.76645e-05
8.88705e-05
4.07048e-05
4.36695e-05
9.14035e-05
8.45321e-05
3.22324e-05
8.65339e-05
3.56627e-05
8.85608e-05
3.86779e-05
4.1536e-05
9.06943e-05
8.48653e-05
2.92823e-05
8.7264e-05
3.3264e-05
8.91843e-05
3.67577e-05
3.98218e-05
9.08985e-05
8.53817e-05
2.91426e-05
8.7368e-05
3.12777e-05
8.96572e-05
3.44684e-05
3.77767e-05
9.17023e-05
9.09063e-05
2.96887e-05
9.0186e-05
3.1998e-05
9.0167e-05
3.44874e-05
3.57936e-05
9.21501e-05
9.75986e-05
2.99085e-05
9.65264e-05
3.30703e-05
9.54697e-05
3.55441e-05
3.69144e-05
9.4349e-05
0.000103396
2.91537e-05
0.000103199
3.32666e-05
0.000102076
3.66677e-05
3.91239e-05
9.98662e-05
0.0001074
2.74092e-05
0.00010823
3.24372e-05
0.000107988
3.69096e-05
4.05908e-05
0.000106521
0.00010962
2.48032e-05
0.000111358
3.0699e-05
0.00011205
3.62174e-05
4.10668e-05
0.000111574
0.000110258
2.14737e-05
0.000112742
2.82148e-05
0.000114201
3.47589e-05
4.07514e-05
0.000114516
0.000109531
1.75559e-05
0.000112594
2.51519e-05
0.000114615
3.27382e-05
3.98937e-05
0.000115473
0.000107648
1.31829e-05
0.000111125
2.16747e-05
0.000113505
3.03578e-05
3.87374e-05
0.000114661
0.000104798
8.47969e-06
0.000108535
1.79378e-05
0.000111088
2.78043e-05
3.74957e-05
0.00011233
0.000101126
3.55845e-06
0.000104986
1.40778e-05
0.000107551
2.52393e-05
3.63463e-05
0.000108701
9.67069e-05
-1.48348e-06
0.000100577
1.02077e-05
0.000103023
2.27936e-05
3.54346e-05
0.000103934
9.15317e-05
-6.56832e-06
9.53321e-05
6.40734e-06
9.7572e-05
2.05537e-05
3.48643e-05
9.81423e-05
8.55314e-05
-1.16481e-05
8.92335e-05
2.70522e-06
9.12542e-05
1.8533e-05
3.46607e-05
9.14578e-05
7.86237e-05
-1.67198e-05
8.22806e-05
-9.5173e-07
8.41912e-05
1.66223e-05
3.47129e-05
8.4139e-05
7.07783e-05
7.45302e-05
7.65763e-05
7.65806e-05
-2.9091e-05
2.92869e-05
-2.29384e-05
2.27798e-05
-2.05847e-05
1.80247e-05
-1.92959e-05
1.31149e-05
-1.85048e-05
8.45218e-06
-1.78568e-05
4.00642e-06
-1.71152e-05
-1.45961e-07
-1.61545e-05
-3.86327e-06
-1.49403e-05
-7.0215e-06
-1.35039e-05
-9.54143e-06
-1.19116e-05
-1.14072e-05
-1.02399e-05
-1.26553e-05
-8.56028e-06
-1.33557e-05
-6.93077e-06
-1.35931e-05
-5.39347e-06
-1.34541e-05
-3.97563e-06
-1.30187e-05
-2.69205e-06
-1.23563e-05
-1.5482e-06
-1.15252e-05
-5.43124e-07
-1.0573e-05
3.28223e-07
-9.5381e-06
1.07307e-06
-8.45145e-06
1.6994e-06
-7.33836e-06
2.21512e-06
-6.2199e-06
2.62775e-06
-5.11387e-06
2.94427e-06
-4.03536e-06
3.17113e-06
-2.99734e-06
3.31445e-06
-2.01095e-06
3.38028e-06
-1.08558e-06
3.37465e-06
-2.28528e-07
3.3036e-06
5.54483e-07
3.17294e-06
1.25869e-06
2.98833e-06
1.88002e-06
2.75522e-06
2.4151e-06
2.47829e-06
2.86089e-06
2.16119e-06
3.21401e-06
1.80619e-06
3.47018e-06
1.41412e-06
3.62356e-06
9.8413e-07
3.66525e-06
5.13429e-07
3.57693e-06
3.27121e-06
-2.70038e-05
2.13741e-05
-2.11081e-05
1.68841e-05
-1.89008e-05
1.58174e-05
-1.78112e-05
1.20253e-05
-1.73975e-05
8.03845e-06
-1.71712e-05
3.78009e-06
-1.68051e-05
-5.12073e-07
-1.61207e-05
-4.54766e-06
-1.506e-05
-8.08219e-06
-1.36649e-05
-1.09365e-05
-1.20286e-05
-1.30434e-05
-1.02596e-05
-1.44244e-05
-8.45773e-06
-1.51575e-05
-6.70316e-06
-1.53477e-05
-5.0526e-06
-1.51047e-05
-3.54151e-06
-1.45297e-05
-2.18806e-06
-1.37097e-05
-9.97666e-07
-1.27156e-05
3.27695e-08
-1.16035e-05
9.11634e-07
-1.0417e-05
1.64997e-06
-9.18981e-06
2.25931e-06
-7.9477e-06
2.75066e-06
-6.71119e-06
3.13411e-06
-5.49727e-06
3.41873e-06
-4.32e-06
3.61252e-06
-3.19119e-06
3.72264e-06
-2.12112e-06
3.75574e-06
-1.11867e-06
3.7181e-06
-1.90882e-07
3.61572e-06
6.56845e-07
3.45424e-06
1.42016e-06
3.239e-06
2.09525e-06
2.97502e-06
2.6791e-06
2.66663e-06
3.16927e-06
2.31728e-06
3.56336e-06
1.92921e-06
3.8582e-06
1.50356e-06
4.04919e-06
1.0403e-06
4.1285e-06
5.38471e-07
4.07876e-06
3.8097e-06
8.89354e-06
4.75343e-05
-5.43712e-06
3.12148e-05
-9.72619e-06
2.01065e-05
-1.17009e-05
1.39999e-05
-1.31908e-05
9.52833e-06
-1.43502e-05
4.93948e-06
-1.5033e-05
1.70786e-07
-1.51178e-05
-4.46289e-06
-1.45573e-05
-8.64264e-06
-1.34341e-05
-1.20597e-05
-1.18952e-05
-1.45823e-05
-1.01075e-05
-1.6212e-05
-8.22229e-06
-1.70427e-05
-6.35844e-06
-1.72115e-05
-4.59873e-06
-1.68644e-05
-2.99371e-06
-1.61348e-05
-1.56871e-06
-1.51347e-05
-3.30994e-07
-1.39533e-05
7.24085e-07
-1.26585e-05
1.60825e-06
-1.13011e-05
2.33641e-06
-9.91791e-06
2.92386e-06
-8.53515e-06
3.38499e-06
-7.17237e-06
3.73279e-06
-5.84511e-06
3.97863e-06
-4.56588e-06
4.13231e-06
-3.34485e-06
4.20213e-06
-2.19093e-06
4.19542e-06
-1.11198e-06
4.11881e-06
-1.14297e-07
3.97837e-06
7.97281e-07
3.77955e-06
1.61896e-06
3.52741e-06
2.34739e-06
3.22656e-06
2.97994e-06
2.88107e-06
3.51475e-06
2.49418e-06
3.95022e-06
2.06819e-06
4.28415e-06
1.60458e-06
4.51281e-06
1.10411e-06
4.62896e-06
5.67427e-07
4.61545e-06
4.37711e-06
5.97617e-05
6.46209e-05
3.54875e-05
5.5489e-05
1.46205e-05
4.09735e-05
2.84891e-06
2.57716e-05
-3.41607e-06
1.57933e-05
-7.69017e-06
9.21356e-06
-1.06306e-05
3.11121e-06
-1.23369e-05
-2.75661e-06
-1.29026e-05
-8.07698e-06
-1.24827e-05
-1.24796e-05
-1.13157e-05
-1.57492e-05
-9.66895e-06
-1.78588e-05
-7.78471e-06
-1.8927e-05
-5.85198e-06
-1.91443e-05
-4.00053e-06
-1.87158e-05
-2.30851e-06
-1.78268e-05
-8.15103e-07
-1.66281e-05
4.67307e-07
-1.52357e-05
1.54382e-06
-1.3735e-05
2.42899e-06
-1.21863e-05
3.14143e-06
-1.06304e-05
3.70051e-06
-9.09424e-06
4.12429e-06
-7.59616e-06
4.42888e-06
-6.14969e-06
4.6282e-06
-4.76521e-06
4.73396e-06
-3.45061e-06
4.75579e-06
-2.21277e-06
4.7018e-06
-1.058e-06
4.579e-06
8.48307e-09
4.39354e-06
9.82749e-07
4.15075e-06
1.86174e-06
3.85539e-06
2.64273e-06
3.51173e-06
3.32357e-06
3.12354e-06
3.90294e-06
2.69387e-06
4.37988e-06
2.2251e-06
4.75293e-06
1.71895e-06
5.01895e-06
1.17697e-06
5.17094e-06
6.01114e-07
5.19131e-06
4.97822e-06
8.65523e-05
7.29442e-05
7.46625e-05
6.73788e-05
5.49327e-05
6.07033e-05
3.22305e-05
4.84738e-05
1.56336e-05
3.23902e-05
5.20457e-06
1.96426e-05
-1.78552e-06
1.01013e-05
-6.47098e-06
1.92887e-06
-9.19441e-06
-5.35352e-06
-1.02326e-05
-1.14413e-05
-9.9456e-06
-1.60363e-05
-8.74872e-06
-1.90557e-05
-7.03501e-06
-2.06407e-05
-5.11857e-06
-2.10607e-05
-3.21554e-06
-2.06188e-05
-1.45553e-06
-1.95868e-05
9.59749e-08
-1.81796e-05
1.41601e-06
-1.65558e-05
2.50741e-06
-1.48265e-05
3.38653e-06
-1.30654e-05
4.07542e-06
-1.13193e-05
4.59764e-06
-9.61644e-06
4.97527e-06
-7.97375e-06
5.22775e-06
-6.40219e-06
5.37173e-06
-4.90921e-06
5.42093e-06
-3.49984e-06
5.38644e-06
-2.17827e-06
5.27721e-06
-9.48738e-07
5.10063e-06
1.85048e-07
4.86297e-06
1.2204e-06
4.56942e-06
2.15524e-06
4.22449e-06
2.98763e-06
3.83207e-06
3.71598e-06
3.39559e-06
4.33943e-06
2.91792e-06
4.85755e-06
2.40141e-06
5.26944e-06
1.84803e-06
5.57232e-06
1.25991e-06
5.75907e-06
6.40108e-07
5.8111e-06
5.61834e-06
9.89888e-05
7.56807e-05
9.3175e-05
7.31926e-05
8.42612e-05
6.9617e-05
6.81561e-05
6.45789e-05
4.63474e-05
5.41989e-05
2.73767e-05
3.86133e-05
1.35983e-05
2.38797e-05
4.14713e-06
1.138e-05
-2.12108e-06
9.14692e-07
-5.76302e-06
-7.79937e-06
-7.20246e-06
-1.45968e-05
-7.01306e-06
-1.92451e-05
-5.79184e-06
-2.18619e-05
-4.05858e-06
-2.27939e-05
-2.18463e-06
-2.24928e-05
-3.95494e-07
-2.13759e-05
1.19342e-06
-1.97685e-05
2.53777e-06
-1.79001e-05
3.63304e-06
-1.59217e-05
4.49534e-06
-1.39277e-05
5.14986e-06
-1.19738e-05
5.62429e-06
-1.00909e-05
5.94497e-06
-8.29442e-06
6.13486e-06
-6.59211e-06
6.21345e-06
-4.98778e-06
6.19653e-06
-3.48292e-06
6.09666e-06
-2.07839e-06
5.92364e-06
-7.7574e-07
5.68533e-06
4.2334e-07
5.38802e-06
1.51768e-06
5.0368e-06
2.50643e-06
4.63584e-06
3.38858e-06
4.18867e-06
4.16316e-06
3.69832e-06
4.82978e-06
3.16739e-06
5.38845e-06
2.59816e-06
5.83865e-06
1.99272e-06
6.17775e-06
1.35362e-06
6.39817e-06
6.84783e-07
6.47992e-06
6.3031e-06
0.000104015
7.52796e-05
0.00010205
7.51567e-05
9.77274e-05
7.394e-05
9.06581e-05
7.16482e-05
7.71907e-05
6.76663e-05
5.71482e-05
5.86559e-05
3.73151e-05
4.37129e-05
2.12109e-05
2.74842e-05
9.73715e-06
1.23884e-05
2.13772e-06
-1.999e-07
-2.21503e-06
-1.02441e-05
-3.92351e-06
-1.75366e-05
-3.75864e-06
-2.20268e-05
-2.51587e-06
-2.40367e-05
-8.2255e-07
-2.41862e-05
9.23605e-07
-2.3122e-05
2.5135e-06
-2.13584e-05
3.85974e-06
-1.92463e-05
4.94155e-06
-1.70035e-05
5.77152e-06
-1.47577e-05
6.3771e-06
-1.25794e-05
6.78996e-06
-1.05038e-05
7.04059e-06
-8.54504e-06
7.15564e-06
-6.70716e-06
7.15737e-06
-4.98952e-06
7.0637e-06
-3.38927e-06
6.88861e-06
-1.9033e-06
6.64272e-06
-5.29894e-07
6.33429e-06
7.3176e-07
5.96963e-06
1.88234e-06
5.55365e-06
2.92242e-06
5.09014e-06
3.85206e-06
4.58218e-06
4.67109e-06
4.03236e-06
5.37956e-06
3.44294e-06
5.97784e-06
2.81598e-06
6.46561e-06
2.15358e-06
6.84016e-06
1.45851e-06
7.09322e-06
7.35347e-07
7.20307e-06
7.03842e-06
0.000105432
7.32938e-05
0.000105772
7.48161e-05
0.000104307
7.54051e-05
0.000100906
7.50493e-05
9.49776e-05
7.35949e-05
8.33355e-05
7.02979e-05
6.50059e-05
6.20425e-05
4.51331e-05
4.7357e-05
2.75664e-05
2.99551e-05
1.4626e-05
1.27405e-05
6.05886e-06
-1.67691e-06
1.27935e-06
-1.27571e-05
-4.80735e-07
-2.02667e-05
-2.49003e-07
-2.42684e-05
9.96538e-07
-2.54317e-05
2.5729e-06
-2.46984e-05
4.10177e-06
-2.28872e-05
5.41383e-06
-2.05584e-05
6.45632e-06
-1.8046e-05
7.2326e-06
-1.55339e-05
7.77023e-06
-1.3117e-05
8.10429e-06
-1.08378e-05
8.26914e-06
-8.70993e-06
8.29506e-06
-6.73308e-06
8.20699e-06
-4.90148e-06
8.02484e-06
-3.20714e-06
7.76388e-06
-1.64233e-06
7.43548e-06
-2.01495e-07
7.04815e-06
1.11909e-06
6.60818e-06
2.3223e-06
6.12018e-06
3.41039e-06
5.58752e-06
4.38469e-06
5.01274e-06
5.24584e-06
4.3979e-06
5.9944e-06
3.74477e-06
6.63095e-06
3.05508e-06
7.15529e-06
2.33079e-06
7.56445e-06
1.57474e-06
7.84925e-06
7.91881e-07
7.9859e-06
7.83029e-06
0.000105085
7.06187e-05
0.000106775
7.31265e-05
0.000107118
7.50617e-05
0.000105967
7.62003e-05
0.00010312
7.64418e-05
9.78576e-05
7.55606e-05
8.72436e-05
7.26565e-05
7.01788e-05
6.44218e-05
5.05903e-05
4.95436e-05
3.23294e-05
3.10015e-05
1.84659e-05
1.21866e-05
9.41155e-06
-3.70276e-06
4.6471e-06
-1.55021e-05
3.09834e-06
-2.27197e-05
3.45928e-06
-2.57926e-05
4.65109e-06
-2.58902e-05
6.01542e-06
-2.42516e-05
7.23718e-06
-2.17801e-05
8.20319e-06
-1.9012e-05
8.89704e-06
-1.62278e-05
9.34249e-06
-1.35625e-05
9.57662e-06
-1.10719e-05
9.63711e-06
-8.77046e-06
9.55743e-06
-6.6534e-06
9.36502e-06
-4.70908e-06
9.08153e-06
-2.92361e-06
8.72324e-06
-1.28403e-06
8.30212e-06
2.19633e-07
7.82678e-06
1.59441e-06
7.30333e-06
2.84573e-06
6.73599e-06
3.97772e-06
6.12756e-06
4.99311e-06
5.47996e-06
5.89344e-06
4.79457e-06
6.67979e-06
4.07258e-06
7.35293e-06
3.31526e-06
7.91261e-06
2.52422e-06
8.35546e-06
1.70222e-06
8.67123e-06
8.54351e-07
8.83373e-06
8.68462e-06
0.000103856
6.76455e-05
0.00010627
7.07126e-05
0.00010779
7.35421e-05
0.000108134
7.58558e-05
0.000107148
7.74282e-05
0.000104582
7.81258e-05
9.95876e-05
7.76513e-05
8.92623e-05
7.4747e-05
7.29841e-05
6.58218e-05
5.36888e-05
5.02968e-05
3.51372e-05
3.07382e-05
2.10359e-05
1.03985e-05
1.22492e-05
-6.71536e-06
7.99031e-06
-1.84608e-05
6.83172e-06
-2.46341e-05
7.29531e-06
-2.63538e-05
8.32718e-06
-2.52835e-05
9.37273e-06
-2.28257e-05
1.02101e-05
-1.98493e-05
1.07837e-05
-1.68015e-05
1.11067e-05
-1.38855e-05
1.12155e-05
-1.11806e-05
1.11499e-05
-8.70487e-06
1.09459e-05
-6.44942e-06
1.06331e-05
-4.39619e-06
1.02342e-05
-2.52475e-06
9.76639e-06
-8.16222e-07
9.24186e-06
7.44144e-07
8.66913e-06
2.16712e-06
8.05394e-06
3.46092e-06
7.3999e-06
4.63176e-06
6.70915e-06
5.68387e-06
5.98281e-06
6.6198e-06
5.22148e-06
7.44111e-06
4.42562e-06
8.14876e-06
3.59588e-06
8.74233e-06
2.73341e-06
9.21791e-06
1.84062e-06
9.56399e-06
9.22585e-07
9.75176e-06
9.60719e-06
0.000102125
6.45296e-05
0.000104915
6.79231e-05
0.000107152
7.13049e-05
0.000108537
7.44709e-05
0.000108827
7.71374e-05
0.00010786
7.90936e-05
0.00010536
8.01514e-05
0.000100236
7.98704e-05
8.95285e-05
7.65295e-05
7.3392e-05
6.64333e-05
5.41506e-05
4.99797e-05
3.59693e-05
2.85797e-05
2.26914e-05
6.56249e-06
1.48864e-05
-1.06558e-05
1.14435e-05
-2.11912e-05
1.06868e-05
-2.55971e-05
1.11297e-05
-2.57263e-05
1.18705e-05
-2.35665e-05
1.25067e-05
-2.04855e-05
1.29114e-05
-1.72061e-05
1.30747e-05
-1.40488e-05
1.30279e-05
-1.11339e-05
1.28113e-05
-8.48822e-06
1.24621e-05
-6.10022e-06
1.20111e-05
-3.94519e-06
1.14819e-05
-1.99554e-06
1.08917e-05
-2.26078e-07
1.02527e-05
1.38308e-06
9.57311e-06
2.84675e-06
8.85789e-06
4.17615e-06
8.1099e-06
5.37976e-06
7.33039e-06
6.46338e-06
6.51958e-06
7.43062e-06
5.67711e-06
8.28355e-06
4.80261e-06
9.02325e-06
3.89591e-06
9.64901e-06
2.95755e-06
1.01563e-05
1.98941e-06
1.05321e-05
9.96286e-07
1.07449e-05
1.06035e-05
0.000100102
6.1348e-05
0.000103078
6.49471e-05
0.00010572
6.86632e-05
0.00010779
7.24014e-05
0.000109006
7.5921e-05
0.000109159
7.8941e-05
0.000108077
8.1233e-05
0.000105451
8.24967e-05
9.97985e-05
8.21816e-05
8.81681e-05
7.80637e-05
7.18681e-05
6.62797e-05
5.29204e-05
4.75274e-05
3.58667e-05
2.36163e-05
2.40578e-05
1.15313e-06
1.76121e-05
-1.47455e-05
1.50386e-05
-2.30236e-05
1.45362e-05
-2.52239e-05
1.4788e-05
-2.38184e-05
1.5124e-05
-2.08215e-05
1.52974e-05
-1.73795e-05
1.52561e-05
-1.40075e-05
1.50188e-05
-1.08966e-05
1.46228e-05
-8.09232e-06
1.41054e-05
-5.58277e-06
1.34972e-05
-3.33702e-06
1.28217e-05
-1.32012e-06
1.2096e-05
4.99714e-07
1.13314e-05
2.14767e-06
1.05354e-05
3.6428e-06
9.71199e-06
4.99955e-06
8.86301e-06
6.22874e-06
7.98859e-06
7.33779e-06
7.08784e-06
8.33134e-06
6.15937e-06
9.212e-06
5.20174e-06
9.98086e-06
4.21387e-06
1.06369e-05
3.19548e-06
1.11746e-05
2.14778e-06
1.15798e-05
1.07505e-06
1.18176e-05
1.16785e-05
9.79738e-05
5.81713e-05
0.000101018
6.19031e-05
0.000103856
6.58252e-05
0.00010633
6.99277e-05
0.000108188
7.40629e-05
0.000109174
7.79545e-05
0.000109109
8.12985e-05
0.000107817
8.37879e-05
0.000104928
8.50708e-05
9.84918e-05
8.45e-05
8.60882e-05
7.86833e-05
6.94769e-05
6.41387e-05
5.09358e-05
4.21573e-05
3.54154e-05
1.66736e-05
2.55072e-05
-4.83731e-06
2.05431e-05
-1.80594e-05
1.86683e-05
-2.33492e-05
1.81876e-05
-2.33376e-05
1.80924e-05
-2.07264e-05
1.79565e-05
-1.72435e-05
1.76571e-05
-1.37082e-05
1.71893e-05
-1.04288e-05
1.65829e-05
-7.48592e-06
1.58722e-05
-4.87214e-06
1.50868e-05
-2.55157e-06
1.42488e-05
-4.82089e-07
1.3374e-05
1.37455e-06
1.24727e-05
3.04892e-06
1.15511e-05
4.56442e-06
1.06118e-05
5.93885e-06
9.65519e-06
7.18533e-06
8.68012e-06
8.31285e-06
7.68441e-06
9.32703e-06
6.66546e-06
1.0231e-05
5.62064e-06
1.10257e-05
4.54781e-06
1.17097e-05
3.44571e-06
1.22767e-05
2.31469e-06
1.27108e-05
1.15832e-06
1.2974e-05
1.28368e-05
9.59493e-05
5.50902e-05
9.89583e-05
5.88941e-05
0.000101846
6.29379e-05
0.000104508
6.72656e-05
0.000106758
7.18123e-05
0.000108344
7.63688e-05
0.000109046
8.05971e-05
0.000108693
8.41407e-05
0.000107143
8.6621e-05
0.00010396
8.76822e-05
9.64437e-05
8.62e-05
8.32012e-05
7.73812e-05
6.59003e-05
5.94582e-05
4.82396e-05
3.43343e-05
3.50008e-05
8.40148e-06
2.72843e-05
-1.03429e-05
2.36244e-05
-1.96893e-05
2.21265e-05
-2.18397e-05
2.14379e-05
-2.00378e-05
2.08983e-05
-1.67039e-05
2.02792e-05
-1.30891e-05
1.95364e-05
-9.68602e-06
1.86858e-05
-6.6353e-06
1.77558e-05
-3.94216e-06
1.67725e-05
-1.5682e-06
1.57554e-05
5.34966e-07
1.47184e-05
2.41155e-06
1.36699e-05
4.0974e-06
1.2614e-05
5.62029e-06
1.15516e-05
7.00127e-06
1.04813e-05
8.25562e-06
9.40044e-06
9.39376e-06
8.3053e-06
1.04222e-05
7.19192e-06
1.13443e-05
6.05638e-06
1.21612e-05
4.89533e-06
1.28708e-05
3.7064e-06
1.34657e-05
2.48887e-06
1.39283e-05
1.24544e-06
1.42174e-05
1.40823e-05
9.42653e-05
5.22283e-05
9.71248e-05
5.60346e-05
9.99346e-05
6.01281e-05
0.000102618
6.45825e-05
0.000105042
6.9388e-05
0.000107001
7.44098e-05
0.00010825
7.93482e-05
0.000108602
8.37887e-05
0.000107888
8.73345e-05
0.00010601
8.95606e-05
0.000102088
9.01215e-05
9.27383e-05
8.67314e-05
7.84703e-05
7.37262e-05
6.11368e-05
5.16678e-05
4.56068e-05
2.39315e-05
3.51604e-05
1.03481e-07
2.94321e-05
-1.3961e-05
2.66386e-05
-1.90462e-05
2.51748e-05
-1.8574e-05
2.41236e-05
-1.56526e-05
2.31162e-05
-1.20817e-05
2.20509e-05
-8.62064e-06
2.09209e-05
-5.50533e-06
1.97449e-05
-2.76619e-06
1.85431e-05
-3.66357e-07
1.73311e-05
1.74692e-06
1.61195e-05
3.62308e-06
1.49141e-05
5.30287e-06
1.37161e-05
6.81822e-06
1.25243e-05
8.19314e-06
1.13351e-05
9.44481e-06
1.0144e-05
1.05849e-05
8.94566e-06
1.16205e-05
7.7346e-06
1.25554e-05
6.50548e-06
1.33903e-05
5.25358e-06
1.41226e-05
3.97532e-06
1.47439e-05
2.66878e-06
1.52349e-05
1.33559e-06
1.55506e-05
1.54178e-05
9.31745e-05
4.97482e-05
9.57439e-05
5.34653e-05
9.83442e-05
5.75278e-05
0.000100901
6.20253e-05
0.000103313
6.6976e-05
0.000105423
7.22999e-05
0.00010701
7.77615e-05
0.000107846
8.29524e-05
0.000107773
8.74079e-05
0.000106655
9.06784e-05
0.000104381
9.2395e-05
9.88764e-05
9.22365e-05
8.77692e-05
8.48334e-05
7.27616e-05
6.66754e-05
5.65844e-05
4.01087e-05
4.38636e-05
1.28243e-05
3.59985e-05
-6.09589e-06