/*--------------------------------*- C++ -*----------------------------------*\
| =========                 |                                                 |
| \\      /  F ield         | OpenFOAM: The Open Source CFD Toolbox           |
|  \\    /   O peration     | Version:  5.0                                   |
|   \\  /    A nd           | Web:      www.OpenFOAM.org                      |
|    \\/     M anipulation  |                                                 |
\*---------------------------------------------------------------------------*/
FoamFile
{
    version     2.0;
    format      ascii;
    class       volVectorField;
    location    "0.35";
    object      U;
}
// * * * * * * * * * * * * * * * * * * * * * * * * * * * * * * * * * * * * * //

dimensions      [0 1 -1 0 0 0 0];

internalField   nonuniform List<vector> 
1915
(
(-0.2277 -0.0726894 0)
(-0.088425 -0.104563 0)
(-0.0999306 -0.0458716 0)
(-0.0457141 -0.199149 0)
(0.0389923 0.00968008 0)
(0.0294122 -0.214066 0)
(0.145669 0.080551 0)
(0.0874443 -0.153921 0)
(0.219308 0.171731 0)
(0.124747 -0.0622787 0)
(0.272796 0.277859 0)
(0.148154 0.0661626 0)
(0.323238 0.396374 0)
(0.173699 0.226222 0)
(0.383963 0.524505 0)
(0.207374 0.417319 0)
(0.472464 0.658866 0)
(0.264701 0.648175 0)
(0.602013 0.78505 0)
(0.353181 0.96726 0)
(0.0127026 -0.00650425 0)
(0.004232 0.0117981 0)
(-0.030327 0.0191793 0)
(-0.0682375 0.0193208 0)
(-0.101846 0.0172772 0)
(-0.127136 0.0119684 0)
(-0.14361 0.00581534 0)
(-0.151257 0.00186068 0)
(-0.151966 -0.00110046 0)
(-0.147189 -0.00337643 0)
(-0.138456 -0.00501069 0)
(-0.126706 -0.00617978 0)
(-0.11282 -0.00696864 0)
(-0.097546 -0.00743158 0)
(-0.0815314 -0.00761238 0)
(-0.0653364 -0.00755059 0)
(-0.0494389 -0.00728731 0)
(-0.0342311 -0.00688278 0)
(-0.0200696 -0.00633516 0)
(-0.00740824 -0.00560053 0)
(0.00367266 -0.00476946 0)
(0.0133146 -0.00393003 0)
(0.0213705 -0.00311101 0)
(0.027793 -0.00235137 0)
(0.0326925 -0.001616 0)
(0.0361325 -0.00117814 0)
(0.0382675 -0.000529669 0)
(0.0390538 0.000259809 0)
(0.0385357 0.000874622 0)
(0.0369073 0.00136966 0)
(0.0343202 0.00170316 0)
(0.0308916 0.00204152 0)
(0.0267081 0.00239233 0)
(0.0218979 0.0027292 0)
(0.0165944 0.00287754 0)
(0.0111309 0.0029141 0)
(0.00581919 0.00260073 0)
(0.00113603 0.00190607 0)
(-0.00174563 0.000442742 0)
(-0.00208753 -0.00142357 0)
(-0.00464521 -0.00742252 0)
(-0.0223384 0.0258135 0)
(-0.0603154 0.0380175 0)
(-0.0975135 0.0376316 0)
(-0.126453 0.030524 0)
(-0.146549 0.0215003 0)
(-0.158181 0.0122854 0)
(-0.162926 0.00420905 0)
(-0.162154 -0.00235987 0)
(-0.156947 -0.00750761 0)
(-0.148003 -0.0114002 0)
(-0.136234 -0.0142539 0)
(-0.122422 -0.0162216 0)
(-0.107257 -0.0174219 0)
(-0.0913371 -0.017954 0)
(-0.0751848 -0.0179051 0)
(-0.0592481 -0.0173536 0)
(-0.0439029 -0.0163695 0)
(-0.0294409 -0.0150088 0)
(-0.016095 -0.0133392 0)
(-0.0041131 -0.0116427 0)
(0.00637878 -0.0099793 0)
(0.0153494 -0.00822718 0)
(0.0227544 -0.00648379 0)
(0.0286054 -0.00482144 0)
(0.0329408 -0.00321148 0)
(0.0357852 -0.00175355 0)
(0.0373189 -0.000371767 0)
(0.0376167 0.000904005 0)
(0.0367559 0.00204925 0)
(0.0348213 0.0030694 0)
(0.0319271 0.0039499 0)
(0.0282124 0.00470372 0)
(0.0238219 0.00527339 0)
(0.0189333 0.00564449 0)
(0.0138434 0.00568766 0)
(0.0088606 0.00525778 0)
(0.00429103 0.00409029 0)
(0.000768409 0.00178353 0)
(-0.000889401 -0.0014715 0)
(-0.0199111 0.0105498 0)
(-0.0451253 0.0501771 0)
(-0.0814102 0.0635386 0)
(-0.113317 0.0593625 0)
(-0.137616 0.0467799 0)
(-0.154312 0.0317566 0)
(-0.164078 0.017424 0)
(-0.167783 0.00522813 0)
(-0.166284 -0.00469563 0)
(-0.160484 -0.0125378 0)
(-0.151233 -0.018568 0)
(-0.139367 -0.023021 0)
(-0.125619 -0.0261067 0)
(-0.110629 -0.0280038 0)
(-0.0949532 -0.0288685 0)
(-0.0790714 -0.028841 0)
(-0.0633922 -0.0280517 0)
(-0.0482576 -0.0266228 0)
(-0.0339414 -0.0246651 0)
(-0.020652 -0.022284 0)
(-0.00857763 -0.0196762 0)
(0.00212573 -0.0169508 0)
(0.011363 -0.0141475 0)
(0.0191063 -0.0113511 0)
(0.0253534 -0.0086214 0)
(0.030126 -0.0060121 0)
(0.0334707 -0.00353087 0)
(0.0354812 -0.00119407 0)
(0.0362623 0.000959946 0)
(0.0358976 0.00291084 0)
(0.034479 0.0046463 0)
(0.0321162 0.00616609 0)
(0.0289501 0.00746142 0)
(0.0251285 0.00846411 0)
(0.0208167 0.00909188 0)
(0.0162303 0.00919729 0)
(0.0116086 0.00864739 0)
(0.00716806 0.00710825 0)
(0.00309193 0.00399171 0)
(0.000418839 -0.00102016 0)
(-0.0283917 0.0368818 0)
(-0.0613119 0.0766469 0)
(-0.097407 0.0869936 0)
(-0.127036 0.0782916 0)
(-0.148678 0.0605531 0)
(-0.163034 0.0405339 0)
(-0.170888 0.0217218 0)
(-0.173032 0.00560283 0)
(-0.170289 -0.00760105 0)
(-0.163527 -0.0180913 0)
(-0.153591 -0.0261736 0)
(-0.141273 -0.032144 0)
(-0.127266 -0.0362764 0)
(-0.112175 -0.0388124 0)
(-0.0965181 -0.0399655 0)
(-0.0807399 -0.0399281 0)
(-0.0652126 -0.0388767 0)
(-0.0502446 -0.036975 0)
(-0.0360841 -0.0343747 0)
(-0.0229194 -0.0312281 0)
(-0.0109124 -0.027729 0)
(-0.000209354 -0.0240214 0)
(0.0090971 -0.0201975 0)
(0.0169675 -0.0163615 0)
(0.0233905 -0.0126014 0)
(0.0283849 -0.00898425 0)
(0.0319979 -0.00554297 0)
(0.034306 -0.00230966 0)
(0.0354035 0.000680463 0)
(0.035381 0.00340173 0)
(0.0343366 0.00583502 0)
(0.03238 0.00796685 0)
(0.029645 0.00977268 0)
(0.0262751 0.0111884 0)
(0.0224203 0.0121095 0)
(0.018239 0.0123861 0)
(0.0138949 0.0118563 0)
(0.00954163 0.0101989 0)
(0.00521032 0.00679074 0)
(0.0018929 0.000614373 0)
(-0.0348285 0.0700178 0)
(-0.0754015 0.105758 0)
(-0.112853 0.110496 0)
(-0.141957 0.0959627 0)
(-0.161758 0.0727704 0)
(-0.173908 0.0478237 0)
(-0.179594 0.0246923 0)
(-0.17978 0.00483789 0)
(-0.175367 -0.011471 0)
(-0.16723 -0.0244454 0)
(-0.1562 -0.0344294 0)
(-0.14304 -0.0417807 0)
(-0.128418 -0.0468383 0)
(-0.112908 -0.0499078 0)
(-0.097001 -0.0512616 0)
(-0.0811079 -0.0511447 0)
(-0.0655687 -0.04978 0)
(-0.0506595 -0.0473734 0)
(-0.036599 -0.0441176 0)
(-0.0235537 -0.0402023 0)
(-0.0116624 -0.0358299 0)
(-0.00104481 -0.0311689 0)
(0.00822034 -0.026351 0)
(0.0160933 -0.0215029 0)
(0.0225626 -0.0167322 0)
(0.0276455 -0.0121233 0)
(0.0313874 -0.00773365 0)
(0.033859 -0.00360949 0)
(0.0351464 0.000208466 0)
(0.035342 0.00368776 0)
(0.0345464 0.00680177 0)
(0.0328691 0.0095261 0)
(0.0304344 0.0118269 0)
(0.0273755 0.0136391 0)
(0.0238255 0.0148597 0)
(0.0199078 0.0153454 0)
(0.0157335 0.014928 0)
(0.0113992 0.0133169 0)
(0.00693178 0.00994565 0)
(0.00313156 0.00356137 0)
(-0.042693 0.110862 0)
(-0.0920408 0.138548 0)
(-0.131159 0.135016 0)
(-0.160006 0.112917 0)
(-0.177775 0.0834989 0)
(-0.187358 0.0534202 0)
(-0.190467 0.0260245 0)
(-0.188289 0.00261842 0)
(-0.181806 -0.0165839 0)
(-0.171897 -0.0318343 0)
(-0.159381 -0.043526 0)
(-0.145003 -0.0520793 0)
(-0.129414 -0.0578989 0)
(-0.113171 -0.0613553 0)
(-0.0967414 -0.0627824 0)
(-0.0805086 -0.0624804 0)
(-0.0647828 -0.0607211 0)
(-0.0498083 -0.0577529 0)
(-0.0357723 -0.0538067 0)
(-0.0228144 -0.0491031 0)
(-0.0110457 -0.0438581 0)
(-0.000555302 -0.0382603 0)
(0.00859926 -0.0324704 0)
(0.0163888 -0.0266346 0)
(0.0228083 -0.0208788 0)
(0.027877 -0.0153051 0)
(0.0316402 -0.00999079 0)
(0.0341649 -0.0049965 0)
(0.0355328 -0.000371433 0)
(0.0358358 0.00384516 0)
(0.0351747 0.00762015 0)
(0.033657 0.0109215 0)
(0.0313976 0.0137099 0)
(0.0285158 0.0159212 0)
(0.0251273 0.0174589 0)
(0.0213315 0.018192 0)
(0.0172018 0.0179595 0)
(0.0127856 0.0165076 0)
(0.00815413 0.0133712 0)
(0.0037734 0.007402 0)
(-0.055553 0.162267 0)
(-0.115931 0.175431 0)
(-0.154933 0.160257 0)
(-0.182335 0.128703 0)
(-0.196981 0.0923034 0)
(-0.20326 0.05695 0)
(-0.203297 0.025406 0)
(-0.198389 -0.00133902 0)
(-0.18951 -0.0232096 0)
(-0.177503 -0.0405213 0)
(-0.163168 -0.0537176 0)
(-0.147237 -0.0632792 0)
(-0.13036 -0.0696758 0)
(-0.113088 -0.0733454 0)
(-0.0958743 -0.074688 0)
(-0.0790841 -0.0740635 0)
(-0.0629996 -0.0717954 0)
(-0.0478335 -0.0681764 0)
(-0.0337396 -0.0634733 0)
(-0.0208258 -0.0579341 0)
(-0.00917058 -0.0517909 0)
(0.00117021 -0.0452502 0)
(0.0101653 -0.038494 0)
(0.0178043 -0.0316852 0)
(0.0240939 -0.0249654 0)
(0.0290604 -0.0184521 0)
(0.0327512 -0.012238 0)
(0.0352321 -0.00639635 0)
(0.0365819 -0.000984855 0)
(0.0368909 0.00395046 0)
(0.0362588 0.00837036 0)
(0.0347898 0.0122378 0)
(0.03259 0.0155107 0)
(0.0297644 0.0181285 0)
(0.0264117 0.0200046 0)
(0.0226119 0.021023 0)
(0.0184122 0.0210383 0)
(0.0138271 0.0198351 0)
(0.00894518 0.0170342 0)
(0.00408323 0.011607 0)
(-0.0776235 0.23303 0)
(-0.152127 0.216004 0)
(-0.185855 0.184495 0)
(-0.208986 0.141943 0)
(-0.21866 0.098321 0)
(-0.220724 0.0579188 0)
(-0.217293 0.0225477 0)
(-0.209473 -0.00724341 0)
(-0.198056 -0.0315411 0)
(-0.183779 -0.050709 0)
(-0.167405 -0.0652205 0)
(-0.149667 -0.0756014 0)
(-0.131233 -0.0823839 0)
(-0.112669 -0.0860772 0)
(-0.0944346 -0.0871535 0)
(-0.0768843 -0.0860394 0)
(-0.0602783 -0.0831166 0)
(-0.044799 -0.0787246 0)
(-0.0305653 -0.0731672 0)
(-0.0176495 -0.0667186 0)
(-0.00609347 -0.059628 0)
(0.00408269 -0.0521178 0)
(0.012879 -0.044386 0)
(0.0203097 -0.0366083 0)
(0.0263985 -0.0289379 0)
(0.0311826 -0.0215039 0)
(0.0347154 -0.0144108 0)
(0.0370633 -0.00774185 0)
(0.0383038 -0.00156225 0)
(0.0385246 0.00407597 0)
(0.0378231 0.00912832 0)
(0.0363002 0.0135545 0)
(0.0340539 0.0173116 0)
(0.0311766 0.020345 0)
(0.0277512 0.0225797 0)
(0.0238422 0.0239164 0)
(0.0194799 0.0242304 0)
(0.0146654 0.0233444 0)
(0.0095023 0.0209499 0)
(0.00427075 0.0160844 0)
(-0.119518 0.32748 0)
(-0.207415 0.257855 0)
(-0.224007 0.203878 0)
(-0.238134 0.150307 0)
(-0.240617 0.100438 0)
(-0.237798 0.0559079 0)
(-0.230923 0.0173461 0)
(-0.220424 -0.0151082 0)
(-0.206668 -0.0416076 0)
(-0.19021 -0.0624746 0)
(-0.171761 -0.0781598 0)
(-0.152086 -0.089205 0)
(-0.131908 -0.0961963 0)
(-0.111845 -0.0997205 0)
(-0.0923873 -0.100333 0)
(-0.0738969 -0.0985382 0)
(-0.0566223 -0.0947858 0)
(-0.0407189 -0.0894695 0)
(-0.0262704 -0.0829328 0)
(-0.0133104 -0.0754776 0)
(-0.00184107 -0.0673701 0)
(0.00815661 -0.0588464 0)
(0.0167185 -0.0501161 0)
(0.0238877 -0.041363 0)
(0.0297095 -0.0327471 0)
(0.034236 -0.0244046 0)
(0.0375293 -0.0164486 0)
(0.0396599 -0.00896961 0)
(0.0407047 -0.00203824 0)
(0.0407484 0.0042889 0)
(0.0398855 0.00996373 0)
(0.0382135 0.0149434 0)
(0.035824 0.0191862 0)
(0.0327983 0.0226444 0)
(0.0292061 0.0252549 0)
(0.0250993 0.0269362 0)
(0.0204994 0.027585 0)
(0.0154074 0.0270569 0)
(0.00994493 0.0250974 0)
(0.00438924 0.0207984 0)
(-0.164124 0.491293 0)
(-0.27811 0.288629 0)
(-0.265833 0.212101 0)
(-0.264615 0.150983 0)
(-0.258416 0.097742 0)
(-0.251068 0.0509105 0)
(-0.241701 0.0101159 0)
(-0.229498 -0.0245909 0)
(-0.214156 -0.0531682 0)
(-0.195997 -0.0757062 0)
(-0.175713 -0.0925295 0)
(-0.154154 -0.104158 0)
(-0.132165 -0.111226 0)
(-0.110471 -0.114404 0)
(-0.0896369 -0.114351 0)
(-0.0700592 -0.111669 0)
(-0.0519914 -0.10689 0)
(-0.0355697 -0.100473 0)
(-0.0208439 -0.0928082 0)
(-0.00780677 -0.0842278 0)
(0.003582 -0.0750156 0)
(0.0133842 -0.0654189 0)
(0.0216753 -0.0556542 0)
(0.0285305 -0.0459091 0)
(0.0340209 -0.0363452 0)
(0.0382165 -0.0271011 0)
(0.0411914 -0.018294 0)
(0.0430225 -0.0100188 0)
(0.0437884 -0.0023499 0)
(0.0435707 0.00465344 0)
(0.0424598 0.0109415 0)
(0.0405501 0.0164704 0)
(0.0379282 0.0212005 0)
(0.0346671 0.0250913 0)
(0.0308249 0.0280918 0)
(0.0264445 0.0301371 0)
(0.0215433 0.0311434 0)
(0.0161309 0.0309928 0)
(0.0103485 0.0294685 0)
(0.00448468 0.0256904 0)
(0.780441 0.85734 0)
(0.729007 1.15725 0)
(0.912957 0.850959 0)
(0.976923 1.06008 0)
(0.997445 0.804063 0)
(1.08308 0.921467 0)
(1.05486 0.75425 0)
(1.13158 0.833947 0)
(1.09195 0.707395 0)
(1.15898 0.771315 0)
(1.11097 0.661783 0)
(1.17117 0.716915 0)
(1.11504 0.617685 0)
(1.1705 0.668296 0)
(1.10709 0.575322 0)
(1.15916 0.623813 0)
(1.08943 0.534431 0)
(1.13894 0.581813 0)
(1.06441 0.494808 0)
(1.11179 0.54144 0)
(1.08021 0.502417 0)
(1.04751 0.464721 0)
(1.01819 0.428121 0)
(0.998159 0.393387 0)
(0.990277 0.371055 0)
(0.98528 0.35539 0)
(0.970595 0.322652 0)
(1.0289 0.259842 0)
(1.09168 0.295138 0)
(1.14954 0.304012 0)
(1.18869 0.29085 0)
(1.20666 0.266791 0)
(1.206 0.233527 0)
(1.18965 0.191748 0)
(1.16043 0.142649 0)
(1.12094 0.0875374 0)
(1.07344 0.0276006 0)
(1.01954 -0.0360952 0)
(0.959997 -0.102548 0)
(0.894604 -0.170823 0)
(0.822385 -0.240042 0)
(0.742014 -0.30949 0)
(0.652275 -0.378935 0)
(0.650439 0.683967 0)
(-0.0316333 0.273541 0)
(-1.94725 -0.174126 0)
(-0.555559 0.139282 0)
(1.06545 0.967439 0)
(0.841435 0.731803 0)
(0.22368 0.441601 0)
(-0.346651 -0.0657574 0)
(1.19399 0.930601 0)
(1.18478 0.864106 0)
(0.986396 0.716777 0)
(0.732634 0.507485 0)
(1.22832 0.865348 0)
(1.28947 0.86324 0)
(1.26559 0.816546 0)
(1.14971 0.718771 0)
(1.23622 0.808514 0)
(1.30355 0.825191 0)
(1.34099 0.821482 0)
(1.31981 0.78979 0)
(1.23505 0.754923 0)
(1.29406 0.779167 0)
(1.34324 0.793403 0)
(1.36816 0.793335 0)
(1.22662 0.706601 0)
(1.27884 0.734934 0)
(1.32624 0.757257 0)
(1.36469 0.77282 0)
(1.21063 0.662795 0)
(1.25872 0.693885 0)
(1.30339 0.720416 0)
(1.34357 0.743434 0)
(1.18739 0.621523 0)
(1.23292 0.654714 0)
(1.27583 0.684099 0)
(1.31562 0.711037 0)
(1.15805 0.581731 0)
(1.20183 0.616537 0)
(1.24364 0.648137 0)
(1.28305 0.677688 0)
(1.12458 0.543062 0)
(1.16691 0.579034 0)
(1.20781 0.612334 0)
(1.2469 0.643851 0)
(1.08982 0.505536 0)
(1.13053 0.542265 0)
(1.17032 0.576769 0)
(1.20882 0.609747 0)
(1.05752 0.469297 0)
(1.09591 0.506574 0)
(1.13394 0.54187 0)
(1.17123 0.575841 0)
(1.03269 0.434444 0)
(1.06721 0.472275 0)
(1.10217 0.508236 0)
(1.13715 0.542875 0)
(1.01948 0.406422 0)
(1.04941 0.440788 0)
(1.07926 0.476507 0)
(1.11012 0.511594 0)
(1.01836 0.38995 0)
(1.0438 0.421495 0)
(1.06813 0.451702 0)
(1.09388 0.483628 0)
(1.00878 0.371182 0)
(1.04129 0.40734 0)
(1.06725 0.437747 0)
(1.08841 0.466812 0)
(1.01246 0.31468 0)
(1.03244 0.378067 0)
(1.05928 0.421338 0)
(1.08719 0.454306 0)
(1.08202 0.316434 0)
(1.08174 0.328789 0)
(1.05761 0.380283 0)
(1.08204 0.429924 0)
(1.1511 0.342473 0)
(1.14621 0.36686 0)
(1.1269 0.381275 0)
(1.12052 0.385267 0)
(1.2027 0.341395 0)
(1.20664 0.383189 0)
(1.19826 0.413527 0)
(1.18146 0.427238 0)
(1.2322 0.325612 0)
(1.24759 0.378438 0)
(1.2512 0.423986 0)
(1.24191 0.459057 0)
(1.2412 0.300157 0)
(1.26665 0.362675 0)
(1.28098 0.420033 0)
(1.28231 0.46938 0)
(1.23284 0.265931 0)
(1.2664 0.338083 0)
(1.28922 0.406949 0)
(1.29943 0.468929 0)
(1.21003 0.224177 0)
(1.24986 0.305965 0)
(1.27889 0.386533 0)
(1.29524 0.461459 0)
(1.17548 0.176468 0)
(1.21984 0.268162 0)
(1.25293 0.360853 0)
(1.27278 0.449331 0)
(1.13157 0.124322 0)
(1.17884 0.22656 0)
(1.21404 0.332176 0)
(1.23514 0.435072 0)
(1.08007 0.0690816 0)
(1.12883 0.182827 0)
(1.16448 0.302519 0)
(1.18493 0.420941 0)
(1.02186 0.0119199 0)
(1.07097 0.138378 0)
(1.10573 0.27356 0)
(1.12405 0.408784 0)
(0.956935 -0.0461362 0)
(1.00556 0.0943689 0)
(1.03859 0.246593 0)
(1.05381 0.400056 0)
(0.884532 -0.104244 0)
(0.932292 0.0515545 0)
(0.963459 0.222381 0)
(0.975511 0.395775 0)
(0.803688 -0.162132 0)
(0.850873 0.00991213 0)
(0.881155 0.200599 0)
(0.891374 0.395666 0)
(0.713846 -0.220262 0)
(0.761695 -0.0320973 0)
(0.793076 0.178797 0)
(0.804482 0.397029 0)
(-0.572914 0.474741 0)
(-0.36095 0.271109 0)
(-0.302255 0.199484 0)
(-0.278001 0.141516 0)
(-0.264366 0.0902901 0)
(-0.255104 0.0437971 0)
(-0.245859 0.0018369 0)
(-0.234129 -0.0348925 0)
(-0.218817 -0.065688 0)
(-0.200024 -0.090136 0)
(-0.178527 -0.108277 0)
(-0.155384 -0.120553 0)
(-0.131668 -0.127647 0)
(-0.108303 -0.130344 0)
(-0.0859924 -0.129432 0)
(-0.0652143 -0.125642 0)
(-0.0462519 -0.119613 0)
(-0.029236 -0.111886 0)
(-0.0141867 -0.102911 0)
(-0.00105432 -0.0930559 0)
(0.0102482 -0.0826238 0)
(0.019829 -0.0718713 0)
(0.0278048 -0.0610159 0)
(0.034287 -0.0502437 0)
(0.0393762 -0.0397133 0)
(0.043164 -0.029561 0)
(0.0457384 -0.0199036 0)
(0.0471857 -0.0108374 0)
(0.0475877 -0.00243773 0)
(0.0470241 0.00523566 0)
(0.045581 0.012133 0)
(0.043348 0.0182113 0)
(0.0404085 0.0234338 0)
(0.036829 0.0277666 0)
(0.0326593 0.0311703 0)
(0.0279355 0.0335949 0)
(0.022674 0.0349737 0)
(0.016897 0.0352088 0)
(0.0107653 0.0341082 0)
(0.00458566 0.0307983 0)
(-0.488907 0.158485 0)
(-0.311263 0.186529 0)
(-0.272877 0.16528 0)
(-0.252978 0.124932 0)
(-0.243809 0.0815701 0)
(-0.240384 0.03752 0)
(-0.236964 -0.00513446 0)
(-0.229987 -0.0442409 0)
(-0.21781 -0.0779562 0)
(-0.200472 -0.105021 0)
(-0.179045 -0.125031 0)
(-0.155028 -0.138276 0)
(-0.12992 -0.145504 0)
(-0.104991 -0.147663 0)
(-0.0811917 -0.145729 0)
(-0.059152 -0.140607 0)
(-0.0392283 -0.133084 0)
(-0.0215676 -0.123812 0)
(-0.00616957 -0.113313 0)
(0.00705757 -0.102004 0)
(0.0182526 -0.090212 0)
(0.0275732 -0.0781984 0)
(0.0351785 -0.0661775 0)
(0.04122 -0.0543289 0)
(0.0458313 -0.0428031 0)
(0.049128 -0.0317285 0)
(0.0512149 -0.021216 0)
(0.0521897 -0.0113598 0)
(0.05214 -0.00223332 0)
(0.051144 0.00610612 0)
(0.0492829 0.0136111 0)
(0.0466426 0.0202404 0)
(0.0433032 0.0259611 0)
(0.0393266 0.0307453 0)
(0.034756 0.0345645 0)
(0.0296218 0.0373811 0)
(0.0239416 0.0391426 0)
(0.0177519 0.0397654 0)
(0.0112315 0.0390711 0)
(0.00470886 0.0361686 0)
(0.224044 0.344473 0)
(-0.0256032 0.171891 0)
(-0.104452 0.137636 0)
(-0.150738 0.115917 0)
(-0.172806 0.0810238 0)
(-0.191127 0.0389535 0)
(-0.204165 -0.00576037 0)
(-0.209673 -0.0490739 0)
(-0.206261 -0.0874769 0)
(-0.194253 -0.118701 0)
(-0.175373 -0.141753 0)
(-0.151928 -0.156738 0)
(-0.126197 -0.164497 0)
(-0.100066 -0.166225 0)
(-0.0749153 -0.163188 0)
(-0.0516442 -0.156546 0)
(-0.0307522 -0.147291 0)
(-0.0124386 -0.136226 0)
(0.00330001 -0.123978 0)
(0.0165969 -0.111023 0)
(0.0276448 -0.0977182 0)
(0.0366496 -0.0843297 0)
(0.0438165 -0.0710624 0)
(0.0493394 -0.0580846 0)
(0.0533887 -0.0455337 0)
(0.056107 -0.0335236 0)
(0.0576169 -0.0221541 0)
(0.058029 -0.011512 0)
(0.0574388 -0.00166613 0)
(0.0559248 0.00733099 0)
(0.0535636 0.0154371 0)
(0.0504358 0.0226147 0)
(0.0466187 0.0288345 0)
(0.0421712 0.0340745 0)
(0.0371313 0.0383153 0)
(0.0315252 0.04153 0)
(0.0253718 0.0436772 0)
(0.0187211 0.0446814 0)
(0.0117683 0.0443702 0)
(0.0048643 0.0418132 0)
(0.958249 0.597782 0)
(0.665469 0.479645 0)
(0.297136 0.291127 0)
(0.0943251 0.157438 0)
(-0.0117476 0.106196 0)
(-0.0805776 0.0599553 0)
(-0.129135 0.0087758 0)
(-0.160511 -0.0428691 0)
(-0.175611 -0.089666 0)
(-0.175935 -0.128115 0)
(-0.16425 -0.156546 0)
(-0.144192 -0.174849 0)
(-0.11939 -0.184063 0)
(-0.0928445 -0.18578 0)
(-0.0667128 -0.181716 0)
(-0.0423711 -0.173434 0)
(-0.0205817 -0.162229 0)
(-0.00166137 -0.149124 0)
(0.0143725 -0.134887 0)
(0.027686 -0.120081 0)
(0.0385193 -0.105098 0)
(0.0471307 -0.0902084 0)
(0.0537738 -0.0756054 0)
(0.0586865 -0.0614396 0)
(0.0620789 -0.0478298 0)
(0.0641229 -0.0348697 0)
(0.0649606 -0.0226419 0)
(0.064716 -0.0112201 0)
(0.0634942 -0.000664354 0)
(0.0613755 0.00898034 0)
(0.0584318 0.0176785 0)
(0.054738 0.0253982 0)
(0.0503681 0.0321147 0)
(0.0453787 0.0378117 0)
(0.039804 0.0424767 0)
(0.0336665 0.0460918 0)
(0.0269859 0.0486231 0)
(0.0198241 0.0499993 0)
(0.0123903 0.0500466 0)
(0.00505872 0.0477771 0)
(1.23913 0.728144 0)
(1.11308 0.645958 0)
(0.904937 0.552408 0)
(0.572288 0.384299 0)
(0.294194 0.215182 0)
(0.128344 0.121441 0)
(0.015414 0.0525471 0)
(-0.0625177 -0.0143648 0)
(-0.111773 -0.0762389 0)
(-0.136144 -0.127528 0)
(-0.139942 -0.165732 0)
(-0.128549 -0.19045 0)
(-0.107695 -0.203038 0)
(-0.0823036 -0.205752 0)
(-0.0559579 -0.20105 0)
(-0.0309148 -0.191149 0)
(-0.00841628 -0.177834 0)
(0.0109927 -0.162454 0)
(0.0272306 -0.145993 0)
(0.0404692 -0.129122 0)
(0.0509877 -0.112284 0)
(0.0591006 -0.0957586 0)
(0.0651124 -0.0797249 0)
(0.069306 -0.06431 0)
(0.0719329 -0.0496069 0)
(0.073197 -0.0356833 0)
(0.0732601 -0.0225974 0)
(0.0722603 -0.0104048 0)
(0.0703127 0.000847841 0)
(0.0675006 0.0111261 0)
(0.063892 0.0204035 0)
(0.0595548 0.0286557 0)
(0.0545591 0.0358629 0)
(0.0489593 0.0420139 0)
(0.0427863 0.0471022 0)
(0.0360593 0.0511165 0)
(0.0287978 0.0540277 0)
(0.0210732 0.055765 0)
(0.0131068 0.0561471 0)
(0.00529586 0.0541119 0)
(1.35293 0.774116 0)
(1.29697 0.736097 0)
(1.20656 0.680466 0)
(1.05416 0.606825 0)
(0.762862 0.457151 0)
(0.472982 0.282834 0)
(0.258754 0.149317 0)
(0.10854 0.0514621 0)
(0.0044566 -0.0341974 0)
(-0.0606677 -0.107212 0)
(-0.093005 -0.162644 0)
(-0.0994134 -0.199407 0)
(-0.0880778 -0.219122 0)
(-0.0668347 -0.224969 0)
(-0.0417504 -0.220629 0)
(-0.0167196 -0.209421 0)
(0.00611837 -0.193955 0)
(0.0258042 -0.176119 0)
(0.0420928 -0.157207 0)
(0.0551128 -0.138056 0)
(0.0651754 -0.119182 0)
(0.0726509 -0.100882 0)
(0.0778974 -0.0833221 0)
(0.0812428 -0.0665977 0)
(0.0829803 -0.0507691 0)
(0.0833474 -0.0358714 0)
(0.0825259 -0.021932 0)
(0.0806667 -0.008982 0)
(0.0778954 0.00294982 0)
(0.0742997 0.0138431 0)
(0.0699434 0.0236827 0)
(0.0648865 0.0324529 0)
(0.0591937 0.0401404 0)
(0.0529167 0.0467384 0)
(0.0460838 0.0522453 0)
(0.0387105 0.0566547 0)
(0.0308149 0.0599398 0)
(0.0224752 0.0620269 0)
(0.0139225 0.0627226 0)
(0.0055774 0.0608738 0)
(1.38473 0.777092 0)
(1.37344 0.7686 0)
(1.33344 0.747451 0)
(1.26534 0.708473 0)
(1.14577 0.647785 0)
(0.894941 0.514651 0)
(0.616008 0.342 0)
(0.372302 0.178667 0)
(0.192731 0.0512391 0)
(0.0675268 -0.0536021 0)
(-0.0101857 -0.136596 0)
(-0.0480149 -0.194481 0)
(-0.0555628 -0.228049 0)
(-0.0438528 -0.24119 0)
(-0.0227514 -0.239363 0)
(0.000966556 -0.227728 0)
(0.0235064 -0.210321 0)
(0.0431194 -0.189945 0)
(0.0592105 -0.168389 0)
(0.071803 -0.146752 0)
(0.0812183 -0.125663 0)
(0.0878784 -0.105455 0)
(0.0921945 -0.0862761 0)
(0.0945395 -0.0681875 0)
(0.0952469 -0.0512075 0)
(0.0945871 -0.0353315 0)
(0.092762 -0.0205496 0)
(0.0899341 -0.00686219 0)
(0.0862379 0.00572506 0)
(0.0817666 0.017209 0)
(0.0765791 0.0275878 0)
(0.0707267 0.0368564 0)
(0.064267 0.0450085 0)
(0.0572482 0.0520423 0)
(0.0496957 0.0579598 0)
(0.0416211 0.0627576 0)
(0.0330391 0.0664094 0)
(0.024032 0.0688354 0)
(0.0148389 0.0698265 0)
(0.00590344 0.0681224 0)
(1.37714 0.761405 0)
(1.39374 0.770919 0)
(1.38568 0.771123 0)
(1.35544 0.76074 0)
(1.30176 0.732709 0)
(1.20141 0.680071 0)
(0.982952 0.558311 0)
(0.720773 0.386517 0)
(0.463384 0.201602 0)
(0.26286 0.0479592 0)
(0.122754 -0.0738083 0)
(0.0370955 -0.164594 0)
(-0.00272421 -0.22253 0)
(-0.00932809 -0.250368 0)
(0.00305867 -0.255236 0)
(0.023204 -0.245117 0)
(0.0443815 -0.226461 0)
(0.0633484 -0.203644 0)
(0.078868 -0.179325 0)
(0.090742 -0.155024 0)
(0.0992593 -0.13156 0)
(0.10488 -0.109319 0)
(0.108066 -0.0884407 0)
(0.109232 -0.0689443 0)
(0.10875 -0.0507986 0)
(0.106921 -0.0339504 0)
(0.103965 -0.018346 0)
(0.100053 -0.00394953 0)
(0.0953279 0.00926115 0)
(0.0898872 0.0213036 0)
(0.0837848 0.0321921 0)
(0.0770619 0.0419333 0)
(0.0697675 0.0505292 0)
(0.0619447 0.0579829 0)
(0.0536152 0.0642994 0)
(0.044786 0.0694766 0)
(0.0354666 0.0734868 0)
(0.0257412 0.0762419 0)
(0.0158546 0.0775133 0)
(0.00627299 0.0759186 0)
(1.35313 0.736434 0)
(1.38329 0.758252 0)
(1.39726 0.772647 0)
(1.39159 0.779306 0)
(1.36757 0.775806 0)
(1.32283 0.75495 0)
(1.23217 0.70624 0)
(1.03435 0.588035 0)
(0.788399 0.413999 0)
(0.527293 0.213559 0)
(0.314808 0.0396325 0)
(0.166719 -0.0964406 0)
(0.0795698 -0.192081 0)
(0.0425358 -0.245936 0)
(0.0387241 -0.264811 0)
(0.05152 -0.259946 0)
(0.0695634 -0.241573 0)
(0.0869793 -0.216765 0)
(0.101381 -0.189699 0)
(0.112142 -0.16262 0)
(0.11944 -0.136651 0)
(0.123746 -0.112278 0)
(0.125564 -0.0896408 0)
(0.125347 -0.0687112 0)
(0.123497 -0.0494015 0)
(0.120343 -0.0316019 0)
(0.116119 -0.0152083 0)
(0.111004 -0.000142525 0)
(0.105143 0.0136493 0)
(0.0986383 0.0262093 0)
(0.0915379 0.0375698 0)
(0.0838711 0.0477511 0)
(0.0756764 0.0567643 0)
(0.06699 0.0646173 0)
(0.0578289 0.0713173 0)
(0.0481944 0.0768627 0)
(0.0380891 0.0812221 0)
(0.0275965 0.0842976 0)
(0.0169657 0.0858378 0)
(0.00668406 0.0843235 0)
(1.32174 0.707083 0)
(1.35763 0.736333 0)
(1.38429 0.761603 0)
(1.3968 0.78028 0)
(1.3925 0.791817 0)
(1.37205 0.79307 0)
(1.33225 0.77681 0)
(1.24214 0.725991 0)
(1.05697 0.605034 0)
(0.821276 0.423625 0)
(0.560997 0.211675 0)
(0.3452 0.021671 0)
(0.198969 -0.124866 0)
(0.118673 -0.218748 0)
(0.0885444 -0.262628 0)
(0.0880939 -0.269469 0)
(0.100126 -0.254341 0)
(0.114592 -0.228611 0)
(0.127093 -0.199066 0)
(0.136219 -0.169202 0)
(0.141896 -0.14066 0)
(0.144556 -0.114097 0)
(0.144728 -0.0896698 0)
(0.142894 -0.0673079 0)
(0.139478 -0.0468586 0)
(0.13483 -0.0281482 0)
(0.129195 -0.0110152 0)
(0.122752 0.00466567 0)
(0.115648 0.0189844 0)
(0.107986 0.0320104 0)
(0.099806 0.0437963 0)
(0.0911246 0.0543775 0)
(0.081967 0.0637746 0)
(0.0723608 0.0720009 0)
(0.062317 0.0790654 0)
(0.05183 0.0849653 0)
(0.0408935 0.0896644 0)
(0.0295883 0.093053 0)
(0.0181659 0.0948543 0)
(0.00713354 0.0933969 0)
(1.28604 0.675751 0)
(1.32437 0.709176 0)
(1.35749 0.741606 0)
(1.38171 0.770312 0)
(1.3928 0.792783 0)
(1.38852 0.8085 0)
(1.36946 0.813042 0)
(1.33096 0.79872 0)
(1.23416 0.738681 0)
(1.05172 0.609585 0)
(0.818007 0.41842 0)
(0.563306 0.191793 0)
(0.357114 -0.0121853 0)
(0.224538 -0.158879 0)
(0.157476 -0.24118 0)
(0.135807 -0.269418 0)
(0.137476 -0.262652 0)
(0.146885 -0.238124 0)
(0.156379 -0.206803 0)
(0.163183 -0.174335 0)
(0.166742 -0.143243 0)
(0.167365 -0.11449 0)
(0.165573 -0.0882889 0)
(0.16186 -0.0645311 0)
(0.156663 -0.0429965 0)
(0.150344 -0.0234403 0)
(0.143148 -0.00563788 0)
(0.13525 0.0105868 0)
(0.126796 0.0253637 0)
(0.117885 0.038792 0)
(0.108546 0.0509465 0)
(0.0987828 0.0618787 0)
(0.0886041 0.0716197 0)
(0.0780266 0.0801879 0)
(0.0670535 0.0875938 0)
(0.0556709 0.0938323 0)
(0.0438621 0.0988608 0)
(0.0317034 0.102556 0)
(0.0194468 0.104614 0)
(0.00761739 0.103197 0)
(1.24793 0.643413 0)
(1.28722 0.679374 0)
(1.3234 0.716067 0)
(1.35418 0.751972 0)
(1.37594 0.784135 0)
(1.38484 0.810307 0)
(1.37932 0.829708 0)
(1.35979 0.835831 0)
(1.31927 0.821132 0)
(1.20772 0.747638 0)
(1.02278 0.604894 0)
(0.791425 0.391794 0)
(0.547821 0.146336 0)
(0.361338 -0.0588713 0)
(0.249391 -0.192188 0)
(0.197875 -0.253994 0)
(0.183351 -0.263367 0)
(0.184679 -0.243731 0)
(0.189636 -0.212049 0)
(0.193228 -0.177455 0)
(0.194066 -0.143981 0)
(0.192197 -0.113125 0)
(0.188083 -0.0852261 0)
(0.182204 -0.0601557 0)
(0.174997 -0.037627 0)
(0.166819 -0.0173195 0)
(0.15791 0.00105812 0)
(0.148431 0.0177355 0)
(0.138523 0.0328853 0)
(0.128274 0.0466387 0)
(0.117704 0.059094 0)
(0.106796 0.0703193 0)
(0.0955436 0.0803567 0)
(0.0839489 0.0892299 0)
(0.0720057 0.09695 0)
(0.0596899 0.103508 0)
(0.046973 0.108855 0)
(0.0339253 0.112853 0)
(0.0207977 0.115166 0)
(0.00813075 0.113776 0)
(1.2096 0.610735 0)
(1.2488 0.648355 0)
(1.28606 0.687644 0)
(1.32005 0.728151 0)
(1.34818 0.767845 0)
(1.36683 0.803612 0)
(1.37266 0.833199 0)
(1.36503 0.854607 0)
(1.344 0.860619 0)
(1.29736 0.843136 0)
(1.171 0.751992 0)
(0.986386 0.581457 0)
(0.752484 0.336502 0)
(0.524931 0.0830971 0)
(0.364873 -0.108963 0)
(0.276668 -0.216713 0)
(0.239554 -0.252346 0)
(0.228879 -0.243235 0)
(0.227262 -0.213638 0)
(0.226514 -0.17785 0)
(0.22391 -0.142374 0)
(0.219032 -0.109618 0)
(0.212202 -0.0801771 0)
(0.203851 -0.053936 0)
(0.194391 -0.030549 0)
(0.184164 -0.00961988 0)
(0.173389 0.00921018 0)
(0.162208 0.0262264 0)
(0.150748 0.0416455 0)
(0.139082 0.0556323 0)
(0.127213 0.0683092 0)
(0.115105 0.0797609 0)
(0.102733 0.0900398 0)
(0.090082 0.0991751 0)
(0.0771344 0.107178 0)
(0.0638544 0.114035 0)
(0.0501998 0.119688 0)
(0.0362343 0.123983 0)
(0.0222059 0.126554 0)
(0.00866785 0.125185 0)
(1.17373 0.578532 0)
(1.21171 0.617176 0)
(1.24859 0.658061 0)
(1.28352 0.701435 0)
(1.3148 0.746268 0)
(1.33957 0.789975 0)
(1.35436 0.829053 0)
(1.35649 0.860842 0)
(1.3464 0.881529 0)
(1.3233 0.885181 0)
(1.26709 0.853051 0)
(1.12912 0.734288 0)
(0.933638 0.527885 0)
(0.700616 0.258493 0)
(0.499717 0.0105806 0)
(0.37212 -0.152354 0)
(0.307243 -0.224993 0)
(0.280282 -0.233858 0)
(0.269593 -0.210061 0)
(0.263133 -0.174638 0)
(0.256248 -0.137831 0)
(0.247787 -0.103536 0)
(0.237821 -0.072808 0)
(0.226679 -0.0456094 0)
(0.214721 -0.0215531 0)
(0.202255 -0.000172766 0)
(0.189468 0.018955 0)
(0.176474 0.0361709 0)
(0.163372 0.0517363 0)
(0.150217 0.0658501 0)
(0.136992 0.078658 0)
(0.123639 0.09026 0)
(0.110109 0.100718 0)
(0.096372 0.110067 0)
(0.082394 0.118316 0)
(0.0681263 0.125448 0)
(0.0535123 0.131394 0)
(0.0386081 0.135983 0)
(0.0236567 0.138815 0)
(0.00922218 0.137466 0)
(1.14333 0.547732 0)
(1.17868 0.5869 0)
(1.21378 0.628656 0)
(1.24792 0.67374 0)
(1.27991 0.721868 0)
(1.30769 0.7713 0)
(1.3283 0.818619 0)
(1.33845 0.85984 0)
(1.33636 0.892079 0)
(1.32357 0.90925 0)
(1.29588 0.90742 0)
(1.21969 0.845887 0)
(1.06408 0.689701 0)
(0.86082 0.443619 0)
(0.644055 0.161093 0)
(0.481026 -0.0588638 0)
(0.386134 -0.177416 0)
(0.33923 -0.212551 0)
(0.316792 -0.199507 0)
(0.303057 -0.166771 0)
(0.290958 -0.12968 0)
(0.278301 -0.0944043 0)
(0.264764 -0.0627637 0)
(0.250512 -0.0349037 0)
(0.235817 -0.0104273 0)
(0.220933 0.011188 0)
(0.206001 0.0304241 0)
(0.191095 0.0476737 0)
(0.176278 0.0632427 0)
(0.161577 0.077362 0)
(0.14695 0.0901985 0)
(0.132316 0.101866 0)
(0.117602 0.112435 0)
(0.102758 0.121943 0)
(0.0877324 0.130399 0)
(0.0724627 0.137778 0)
(0.0568762 0.144001 0)
(0.0410213 0.148881 0)
(0.0251339 0.151982 0)
(0.00978653 0.150655 0)
(1.12172 0.519219 0)
(1.15254 0.558541 0)
(1.18423 0.600657 0)
(1.21596 0.646625 0)
(1.24668 0.696721 0)
(1.27488 0.749961 0)
(1.29826 0.80359 0)
(1.31375 0.853204 0)
(1.31839 0.894655 0)
(1.31208 0.924448 0)
(1.29606 0.936647 0)
(1.25966 0.92411 0)
(1.15109 0.819144 0)
(0.986878 0.613738 0)
(0.783935 0.32879 0)
(0.597714 0.0617218 0)
(0.473954 -0.107543 0)
(0.405128 -0.176599 0)
(0.368644 -0.180061 0)
(0.346062 -0.153091 0)
(0.327783 -0.117191 0)
(0.310311 -0.0817211 0)
(0.292778 -0.04968 0)
(0.275111 -0.021546 0)
(0.257459 0.00303579 0)
(0.239999 0.0246204 0)
(0.222812 0.0437376 0)
(0.205915 0.060828 0)
(0.189328 0.076238 0)
(0.17304 0.090227 0)
(0.156982 0.102979 0)
(0.141045 0.114619 0)
(0.125132 0.125224 0)
(0.10917 0.134832 0)
(0.093092 0.143451 0)
(0.076816 0.151048 0)
(0.0602539 0.157533 0)
(0.0434461 0.162701 0)
(0.0266193 0.166078 0)
(0.0103532 0.164777 0)
(1.11104 0.496734 0)
(1.13603 0.533389 0)
(1.16237 0.57516 0)
(1.18987 0.621474 0)
(1.21751 0.672602 0)
(1.24396 0.72818 0)
(1.26741 0.78621 0)
(1.28533 0.842692 0)
(1.29466 0.892475 0)
(1.29334 0.931468 0)