/*--------------------------------*- C++ -*----------------------------------*\
| =========                 |                                                 |
| \\      /  F ield         | OpenFOAM: The Open Source CFD Toolbox           |
|  \\    /   O peration     | Version:  5.0                                   |
|   \\  /    A nd           | Web:      www.OpenFOAM.org                      |
|    \\/     M anipulation  |                                                 |
\*---------------------------------------------------------------------------*/
FoamFile
{
    version     2.0;
    format      ascii;
    class       volScalarField;
    location    "0.3";
    object      alpha.water;
}
// * * * * * * * * * * * * * * * * * * * * * * * * * * * * * * * * * * * * * //

dimensions      [0 0 0 0 0 0 0];

internalField   nonuniform List<scalar> 
1915
(
-1.90012e-10
-1.04995e-10
-4.28025e-11
-1.24268e-11
-1.54652e-12
1.14994e-12
1.58622e-12
1.73565e-12
1.81348e-12
1.8615e-12
1.71964e-12
1.6103e-12
1.51448e-12
1.49241e-12
1.5598e-12
2.19416e-12
6.04267e-12
2.23021e-11
6.65372e-11
1.43504e-10
2.54599e-10
5.76702e-10
2.23785e-09
1.21364e-08
6.89385e-08
-1.6194e-17
-2.72599e-16
-2.16957e-15
-1.0524e-14
-3.35453e-14
-7.22066e-14
-1.21024e-13
-3.96671e-13
-1.07369e-12
-2.35539e-12
-4.3482e-12
-6.89318e-12
-9.87256e-12
-1.46454e-11
-2.59152e-11
-4.98523e-11
-8.67349e-11
-1.25163e-10
-1.45589e-10
-1.33842e-10
-9.50748e-11
-5.0631e-11
-1.93215e-11
-4.78222e-12
-3.67092e-13
3.03169e-13
3.74595e-13
3.92346e-13
3.8295e-13
3.6965e-13
3.44857e-13
3.23959e-13
3.14467e-13
3.17736e-13
3.54984e-13
5.7005e-13
1.85601e-12
8.93483e-12
3.61101e-11
9.27741e-11
1.72659e-10
5.61838e-10
2.87587e-09
1.70442e-08
1.00305e-07
-1.05777e-17
-1.59453e-16
-1.1528e-15
-4.99537e-15
-1.41345e-14
-2.93308e-14
-6.63481e-14
-2.06555e-13
-5.25335e-13
-1.10256e-12
-1.95893e-12
-3.03817e-12
-4.50112e-12
-7.44065e-12
-1.42289e-11
-2.70462e-11
-4.48881e-11
-6.1827e-11
-6.92253e-11
-6.18676e-11
-4.30948e-11
-2.25796e-11
-8.38089e-12
-1.92887e-12
-1.35462e-13
6.0864e-14
6.28495e-14
6.23892e-14
6.06464e-14
5.6826e-14
5.43142e-14
5.33093e-14
5.39209e-14
5.77043e-14
7.24609e-14
1.45096e-13
6.00465e-13
3.62713e-12
1.89017e-11
5.726e-11
1.19583e-10
5.66059e-10
2.89513e-09
1.73057e-08
9.90465e-08
-5.38979e-18
-7.4066e-17
-4.878e-16
-1.90936e-15
-4.99757e-15
-1.09744e-14
-2.94287e-14
-8.75721e-14
-2.13409e-13
-4.32504e-13
-7.46146e-13
-1.15407e-12
-1.81193e-12
-3.27444e-12
-6.46446e-12
-1.20061e-11
-1.92057e-11
-2.56081e-11
-2.7994e-11
-2.46597e-11
-1.70873e-11
-8.9726e-12
-3.34814e-12
-7.74764e-13
-6.66147e-14
9.23043e-15
7.29441e-15
7.42193e-15
7.06045e-15
6.95429e-15
7.0905e-15
7.39415e-15
7.99762e-15
9.34637e-15
1.36428e-14
3.40221e-14
1.63164e-13
1.10319e-12
7.13339e-12
2.72424e-11
7.10817e-11
3.66326e-10
1.79778e-09
1.03441e-08
5.95896e-08
-2.09971e-18
-2.65475e-17
-1.60213e-16
-5.75614e-16
-1.45107e-15
-3.48646e-15
-1.02248e-14
-2.94672e-14
-6.96542e-14
-1.37109e-13
-2.31305e-13
-3.60815e-13
-5.99216e-13
-1.14466e-12
-2.27579e-12
-4.13564e-12
-6.44898e-12
-8.42887e-12
-9.10479e-12
-7.99559e-12
-5.57393e-12
-2.97134e-12
-1.13575e-12
-2.73117e-13
-2.77348e-14
1.20454e-15
6.29339e-16
6.32678e-16
6.56896e-16
7.18391e-16
8.03354e-16
9.06504e-16
1.06106e-15
1.37851e-15
2.36879e-15
7.09601e-15
3.73318e-14
2.55052e-13
1.88875e-12
1.01154e-11
3.59713e-11
1.63139e-10
7.88587e-10
4.58304e-09
2.72479e-08
-5.95059e-19
-6.96465e-18
-3.87996e-17
-1.29962e-16
-3.24892e-16
-8.54945e-16
-2.63705e-15
-7.44739e-15
-1.71888e-14
-3.29041e-14
-5.41672e-14
-8.42912e-14
-1.43656e-13
-2.80334e-13
-5.56032e-13
-9.96753e-13
-1.53355e-12
-1.98734e-12
-2.14278e-12
-1.89265e-12
-1.33826e-12
-7.30241e-13
-2.88748e-13
-7.30746e-14
-8.43017e-15
1.2826e-16
4.42338e-17
4.54511e-17
5.37108e-17
6.69913e-17
8.20485e-17
1.00035e-16
1.2782e-16
1.86389e-16
3.69512e-16
1.25558e-15
6.80863e-15
4.54931e-14
3.28859e-13
2.44689e-12
1.22584e-11
3.94391e-11
1.77611e-10
7.57579e-10
4.30785e-09
-1.10315e-19
-1.20075e-18
-6.21439e-18
-1.9622e-17
-4.94618e-17
-1.41458e-16
-4.52154e-16
-1.26168e-15
-2.84485e-15
-5.24633e-15
-8.18692e-15
-1.18885e-14
-1.89482e-14
-3.58577e-14
-7.14312e-14
-1.2949e-13
-2.00847e-13
-2.62088e-13
-2.8494e-13
-2.54556e-13
-1.83128e-13
-1.02471e-13
-4.19541e-14
-1.11514e-14
-1.40846e-15
9.39803e-18
2.70871e-18
2.9838e-18
4.1456e-18
5.75707e-18
7.60404e-18
1.00003e-17
1.3946e-17
2.28686e-17
5.23203e-17
1.90335e-16
1.00324e-15
6.37565e-15
4.35889e-14
3.09444e-13
2.31753e-12
1.14365e-11
3.18217e-11
1.03069e-10
4.3149e-10
-1.01194e-20
-1.02785e-19
-4.95834e-19
-1.48135e-18
-3.79046e-18
-1.17305e-17
-3.87576e-17
-1.07191e-16
-2.3366e-16
-3.98817e-16
-5.1703e-16
-4.42201e-16
-2.91835e-18
7.33989e-16
7.83686e-16
-2.98301e-16
-2.27135e-15
-4.44144e-15
-5.57085e-15
-4.98243e-15
-3.40144e-15
-1.75985e-15
-6.52105e-16
-1.50744e-16
-1.40743e-17
3.59346e-19
1.21042e-19
1.86049e-19
3.06941e-19
4.53338e-19
6.3183e-19
8.94298e-19
1.37816e-18
2.60662e-18
6.97637e-18
2.69594e-17
1.34417e-16
7.76966e-16
4.89149e-15
3.23517e-14
2.21458e-13
1.57617e-12
7.37603e-12
1.89654e-11
3.939e-11
0
-2.80111e-43
-8.07609e-41
-1.16837e-38
-1.3528e-36
-1.16322e-33
-1.46696e-30
-4.00821e-28
-5.00896e-26
-1.86601e-24
-5.86527e-23
6.12409e-18
1.33601e-16
4.08225e-16
7.38912e-16
8.0484e-16
7.70274e-16
3.9112e-16
1.19091e-16
3.64486e-17
5.65009e-18
3.28596e-19
2.01498e-19
9.57689e-20
1.4724e-20
2.78393e-21
5.763e-21
1.24581e-20
2.07605e-20
3.1539e-20
4.68801e-20
7.19049e-20
1.24707e-19
2.81934e-19
9.03715e-19
3.7867e-18
1.82575e-17
9.50122e-17
5.26812e-16
3.12283e-15
1.97805e-14
1.33358e-13
8.39478e-13
2.66167e-12
3.63353e-12
0
5.39082e-40
7.25228e-38
5.0775e-36
2.69628e-34
1.12203e-32
1.90337e-31
-3.12933e-29
-1.48733e-27
-4.8213e-26
-1.48745e-24
-1.24824e-23
3.33223e-21
7.08971e-19
8.69703e-18
2.40254e-17
6.15261e-18
3.02691e-18
3.89948e-18
3.71612e-18
7.77547e-19
5.55211e-21
3.26269e-22
8.08934e-23
6.70445e-23
1.48797e-22
3.71424e-22
7.21441e-22
1.22182e-21
1.95897e-21
3.10819e-21
5.21079e-21
1.04591e-20
2.89931e-20
1.10984e-19
5.07409e-19
2.45652e-18
1.20058e-17
5.93883e-17
3.07044e-16
1.729e-15
1.08546e-14
6.85608e-14
2.26408e-13
3.2203e-13
-4.31839e-40
-1.06575e-42
2.79612e-40
2.98572e-38
1.58896e-36
-2.56802e-34
-7.14035e-32
-3.21118e-30
-1.03359e-28
-2.80044e-27
-6.82667e-26
7.75468e-24
1.60345e-22
4.83565e-22
8.53544e-22
9.7661e-22
7.56233e-22
2.23917e-22
4.52711e-23
1.84569e-23
1.24557e-23
6.61232e-24
3.35411e-24
2.72476e-24
3.31737e-24
8.10273e-24
1.88976e-23
3.63814e-23
6.39863e-23
1.08136e-22
1.83335e-22
3.41384e-22
8.12875e-22
2.7545e-21
1.21808e-20
5.98706e-20
2.96295e-19
1.41772e-18
6.55069e-18
3.02509e-17
1.49224e-16
8.43022e-16
4.99531e-15
1.64226e-14
2.681e-14
-1.34893e-40
-1.09237e-41
-1.23043e-39
-9.48038e-38
-5.47923e-36
-2.28778e-34
-2.99326e-33
-2.31641e-32
-6.60699e-32
5.2273e-31
1.429e-29
1.83364e-25
1.1394e-23
6.23729e-23
1.20502e-22
1.42675e-22
1.21157e-22
3.64138e-23
5.04783e-24
9.77329e-25
5.43787e-25
3.15652e-25
1.62159e-25
1.21988e-25
1.36947e-25
3.31539e-25
7.95678e-25
1.5933e-24
2.9402e-24
5.24545e-24
9.57854e-24
2.01785e-23
5.76551e-23
2.32445e-22
1.14494e-21
5.95641e-21
3.03048e-20
1.45542e-19
6.55179e-19
2.83777e-18
1.26096e-17
6.35837e-17
3.39641e-16
1.02713e-15
2.1714e-15
-4.24525e-54
1.91989e-46
1.58775e-43
1.63066e-41
9.42824e-40
3.91913e-38
1.34854e-36
2.23512e-35
3.28424e-34
4.95238e-33
3.33994e-32
6.05963e-28
1.54273e-26
6.34963e-26
1.14654e-25
1.37789e-25
1.38811e-25
9.52044e-26
6.62707e-26
4.52381e-26
2.62912e-26
1.25233e-26
6.04959e-27
4.33823e-27
4.56462e-27
1.0954e-26
2.82226e-26
6.00599e-26
1.16847e-25
2.21257e-25
4.40823e-25
1.06772e-24
3.64059e-24
1.68909e-23
9.03158e-23
4.93231e-22
2.59142e-21
1.26808e-20
5.70608e-20
2.40414e-19
1.00631e-18
4.61644e-18
2.2299e-17
6.91717e-17
1.7481e-16
-1.96956e-56
-4.75518e-48
1.76968e-45
1.8731e-43
1.27963e-41
5.95753e-40
-3.25013e-38
-1.37018e-36
-3.26217e-35
-6.94717e-34
-3.70418e-33
5.94386e-30
2.75316e-28
1.63447e-27
4.11642e-27
6.51392e-27
7.78058e-27
7.96526e-27
5.11693e-27
2.93471e-27
1.83422e-27
9.54512e-28
4.09612e-28
2.11617e-28
1.78435e-28
2.84447e-28
8.15622e-28
1.92677e-27
3.97994e-27
8.0518e-27
1.77521e-26
4.99127e-26
1.99638e-25
1.03577e-24
5.92186e-24
3.38581e-23
1.84539e-22
9.29262e-22
4.24766e-21
1.78392e-20
7.28772e-20
3.19934e-19
1.49853e-18
4.99444e-18
1.36287e-17
-8.54998e-50
-6.93826e-48
-6.43864e-46
-3.88933e-44
-1.91164e-42
-7.48246e-41
-6.20994e-40
1.03723e-38
5.3377e-37
1.39066e-35
3.08654e-34
1.64875e-31
1.03179e-29
6.82279e-29
1.80829e-28
2.94333e-28
3.60897e-28
3.78118e-28
2.96978e-28
1.93236e-28
1.28105e-28
7.09217e-29
3.05646e-29
1.22599e-29
7.54857e-30
7.44679e-30
1.83461e-29
5.09795e-29
1.15238e-28
2.51376e-28
6.19353e-28
2.02384e-27
9.30214e-27
5.28843e-26
3.20844e-25
1.92192e-24
1.09207e-23
5.7059e-23
2.68268e-22
1.14348e-21
4.63675e-21
1.95264e-20
9.41931e-20
3.54735e-19
9.77488e-19
-3.60753e-62
5.44535e-51
6.79379e-49
4.94245e-47
2.67893e-45
1.16557e-43
4.24328e-42
1.06978e-40
2.16659e-39
4.27787e-38
1.52112e-36
8.88448e-34
1.39858e-31
1.40676e-30
4.79511e-30
9.3343e-30
1.29712e-29
1.44893e-29
1.43819e-29
9.67112e-30
6.1333e-30
3.4916e-30
1.5413e-30
5.69457e-31
2.5923e-31
2.10319e-31
3.433e-31
1.07626e-30
2.77643e-30
6.67033e-30
1.8498e-29
6.98495e-29
3.6197e-28
2.22567e-27
1.42886e-26
8.9925e-26
5.35667e-25
2.92631e-24
1.42955e-23
6.24063e-23
2.52523e-22
1.02964e-21
4.9648e-21
2.14189e-20
6.23189e-20
-3.3154e-65
1.83601e-54
1.69207e-51
1.14508e-49
6.10154e-48
2.59794e-46
-4.1073e-44
-1.5876e-42
-2.65616e-41
-6.15292e-40
4.99796e-39
1.14529e-36
5.50337e-34
1.55847e-32
8.73786e-32
2.30112e-31
3.88031e-31
4.91341e-31
5.23963e-31
4.24911e-31
2.28461e-31
1.20661e-31
5.48082e-32
1.97993e-32
7.23303e-33
4.72599e-33
5.50436e-33
1.80692e-32
5.4709e-32
1.47861e-31
4.6597e-31
2.02022e-30
1.1637e-29
7.68016e-29
5.21212e-28
3.45536e-27
2.1695e-26
1.24925e-25
6.4015e-25
2.8853e-24
1.16945e-23
4.62733e-23
2.23035e-22
1.0605e-21
3.49874e-21
-7.90411e-57
-7.66734e-55
-7.4856e-53
-4.81254e-51
-2.43789e-49
-9.72576e-48
-1.07151e-46
9.54777e-46
2.76358e-44
7.1577e-43
1.69636e-41
6.15281e-40
3.35786e-37
7.54551e-35
9.96045e-34
4.1053e-33
9.01652e-33
1.34107e-32
1.54072e-32
1.53322e-32
9.04892e-33
4.16378e-33
1.85125e-33
7.04312e-34
2.36158e-34
1.11342e-34
9.58832e-35
2.23932e-34
8.39106e-34
2.69112e-33
9.75548e-33
4.81578e-32
3.05112e-31
2.15208e-30
1.54518e-29
1.08328e-28
7.21546e-28
4.42048e-27
2.40197e-26
1.12581e-25
4.58047e-25
1.75199e-24
8.94394e-24
4.3485e-23
1.72889e-22
-4.16579e-72
3.37826e-59
4.11226e-57
3.3671e-55
2.03216e-53
9.78905e-52
3.92655e-50
9.89001e-49
2.47743e-47
8.40593e-46
2.54546e-44
1.03975e-42
3.33443e-41
3.86252e-38
2.80167e-36
2.42523e-35
8.61537e-35
1.79083e-34
2.60096e-34
2.95004e-34
2.88136e-34
1.55561e-34
6.07333e-35
2.22721e-35
7.09303e-36
2.40826e-36
1.59641e-36
2.2228e-36
9.74909e-36
3.915e-35
1.6698e-34
9.36013e-34
6.48427e-33
4.88099e-32
3.71097e-31
2.75908e-30
1.96169e-29
1.29417e-28
7.57245e-28
3.71707e-27
1.55669e-26
6.19217e-26
3.41235e-25
1.46431e-24
7.52568e-24
-3.82056e-76
-2.08694e-62
2.6557e-61
-1.03184e-59
-1.44455e-57
-1.0805e-55
-1.56815e-52
-6.28918e-51
-9.04797e-50
-1.88069e-48
2.00303e-47
8.2223e-46
1.6798e-44
2.55526e-42
2.1516e-39
8.46981e-38
6.27329e-37
1.98318e-36
3.6947e-36
4.89275e-36
5.28586e-36
4.27574e-36
1.79187e-36
5.99942e-37
1.8374e-37
5.52726e-38
2.69661e-38
2.42749e-38
8.10272e-38
4.35773e-37
2.29563e-36
1.46453e-35
1.1061e-34
8.88721e-34
7.16375e-33
5.66284e-32
4.32953e-31
3.1264e-30
1.99571e-29
1.02682e-28
4.62602e-28
2.03364e-27
1.11629e-26
3.99541e-26
2.88704e-25
-2.21572e-66
-2.52588e-64
-2.75975e-62
-1.95512e-60
-1.08607e-58
-4.70559e-57
-6.82341e-56
4.57607e-55
1.5014e-53
4.3895e-52
1.58468e-50
5.18835e-49
1.17579e-47
2.30578e-46
7.14659e-44
4.01414e-41
1.17266e-39
8.14601e-39
2.48894e-38
4.517e-38
5.87114e-38
6.28728e-38
4.86469e-38
1.90657e-38
5.79775e-39
1.59573e-39
5.0809e-40
3.29012e-40
5.40723e-40
3.61991e-39
2.47684e-38
1.82347e-37
1.50282e-36
1.29074e-35
1.10404e-34
9.28599e-34
7.68485e-33
6.15722e-32
4.30804e-31
2.35984e-30
1.22733e-29
5.78127e-29
3.08891e-28
1.01384e-27
9.77092e-27
-2.22568e-85
7.26339e-70
9.60219e-68
9.65726e-66
6.58836e-64
3.59435e-62
1.62345e-60
1.61905e-59
-5.35304e-58
3.29809e-56
2.81963e-54
9.74512e-53
2.31751e-51
5.08966e-50
9.79637e-49
2.54072e-45
7.68649e-43
1.31879e-41
7.27656e-41
1.95701e-40
3.30978e-40
4.13962e-40
4.35453e-40
3.11183e-40
1.19452e-40
3.74057e-41
1.12628e-41
5.21267e-42
4.61547e-42
2.29811e-41
2.04976e-40
1.78054e-39
1.60962e-38
1.48191e-37
1.34652e-36
1.20573e-35
1.0855e-34
9.65263e-34
7.35646e-33
4.5613e-32
3.05305e-31
1.43311e-30
7.18701e-30
2.87403e-29
2.93368e-28
2.13867e-89
-3.47673e-73
-1.43706e-71
-2.16176e-69
-1.7399e-67
-1.08232e-65
-2.61698e-63
-1.36823e-61
-1.73171e-60
-3.0717e-59
4.46111e-58
1.47957e-56
3.69208e-55
8.54785e-54
1.85303e-52
3.5474e-51
6.26115e-48
2.64478e-45
6.15566e-44
4.27051e-43
1.32095e-42
2.40649e-42
3.12503e-42
3.34373e-42
2.59743e-42
1.00506e-42
2.9063e-43
9.1673e-44
5.28762e-44
1.2898e-43
1.35751e-42
1.39741e-41
1.40547e-40
1.40182e-39
1.36698e-38
1.31541e-37
1.28939e-36
1.25317e-35
1.06472e-34
8.34526e-34
7.20357e-33
3.4268e-32
1.40783e-31
7.21027e-31
7.84175e-30
-3.23198e-78
-4.42873e-76
-5.62974e-74
-4.60253e-72
-2.94006e-70
-1.45815e-68
-3.23351e-67
1.00691e-66
3.88519e-65
1.29938e-63
6.73353e-62
2.10683e-60
5.55929e-59
1.36329e-57
3.1297e-56
6.76895e-55
1.30206e-53
2.0347e-50
9.07199e-48
2.25337e-46
1.75673e-45
5.98123e-45
1.16456e-44
1.57486e-44
1.71466e-44
1.45648e-44
6.05098e-45
1.82526e-45
7.98573e-46
8.41722e-46
7.84253e-45
9.38724e-44
1.06408e-42
1.17116e-41
1.25045e-40
1.31223e-39
1.39376e-38
1.47221e-37
1.4592e-36
1.46792e-35
1.51154e-34
7.56584e-34
2.50554e-33
1.60433e-32
1.86829e-31
1.88771e-96
1.76269e-82
2.64807e-80
3.24062e-78
2.56132e-76
1.62911e-74
8.56829e-73
1.90519e-71
-2.03847e-69
4.14237e-68
4.12688e-66
1.32747e-64
3.70989e-63
9.64022e-62
2.34662e-60
5.386e-59
1.10459e-57
4.30749e-56
1.66624e-52
3.41527e-50
8.39536e-49
6.81567e-48
2.39909e-47
4.76539e-47
6.51129e-47
7.11364e-47
6.11202e-47
2.63514e-47
1.04765e-47
7.38855e-48
4.39454e-47
5.89072e-46
7.5005e-45
9.23036e-44
1.10094e-42
1.28273e-41
1.48591e-40
1.71454e-39
1.976e-38
2.36809e-37
2.83736e-36
1.66797e-35
4.11857e-35
3.17346e-34
3.97192e-33
-1.16439e-100
-4.76066e-86
-3.17577e-84
-5.19064e-82
-4.82214e-80
-3.4633e-78
-4.74497e-76
-3.99507e-74
-4.47429e-73
-4.73284e-72
2.10123e-70
6.88917e-69
2.05353e-67
5.6918e-66
1.47788e-64
3.6182e-63
8.39981e-62
1.75491e-60
7.79114e-59
2.23349e-55
4.82621e-53
1.63648e-51
1.8017e-50
7.7664e-50
1.71335e-49
2.44245e-49
2.69546e-49
2.33793e-49
1.19472e-49
7.09282e-50
2.54581e-49
3.63238e-48
5.13805e-47
7.04538e-46
9.39894e-45
1.22022e-43
1.55732e-42
1.98397e-41
2.56673e-40
3.40221e-39
4.79477e-38
3.53592e-37
6.84494e-37
5.5919e-36
7.54466e-35
-9.08469e-92
-1.47711e-89
-2.21535e-87
-2.13539e-85
-1.60678e-83
-9.38644e-82
-3.18385e-80
7.54959e-80
3.53697e-78
1.40048e-76
9.4106e-75
3.27296e-73
1.04512e-71
3.10342e-70
8.63253e-69
2.26374e-67
5.6277e-66
1.33258e-64
2.88568e-63
3.57107e-61
5.60646e-58
6.67423e-56
2.68895e-54
3.84953e-53
2.06785e-52
5.28174e-52
8.17441e-52
9.31454e-52
9.12079e-52
7.11556e-52
1.57461e-51
2.12764e-50
3.3095e-49
5.00272e-48
7.39485e-47
1.06518e-45
1.49945e-44
2.09838e-43
2.97531e-42
4.30868e-41
6.82562e-40
5.59939e-39
1.22347e-38
8.78935e-38
1.28193e-36
1.25866e-112
2.34042e-96
4.39257e-94
6.33085e-92
6.15081e-90
4.81639e-88
3.13441e-86
1.71103e-84
-7.27659e-83
5.85065e-81
3.28307e-79
1.22065e-77
4.18655e-76
1.33575e-74
3.99336e-73
1.12571e-71
3.00865e-70
7.66068e-69
1.85887e-67
4.95885e-66
1.9876e-63
1.3168e-60
1.04007e-58
4.63889e-57
8.14266e-56
5.17732e-55
1.46421e-54
2.43241e-54
3.06362e-54
3.63813e-54
9.27269e-54
1.15138e-52
1.93786e-51
3.20538e-50
5.20058e-49
8.26135e-48
1.28053e-46
1.9572e-45
3.01903e-44
4.79295e-43
8.44047e-42
8.00522e-41
2.27198e-40
1.23325e-39
1.95057e-38
2.84898e-116
-3.02822e-100
-2.52492e-98
-4.90045e-96
-5.42203e-94
-4.64232e-92
-3.50458e-90
-6.55221e-88
-6.13843e-87
1.58433e-85
7.37357e-84
2.94957e-82
1.08931e-80
3.74525e-79
1.20743e-77
3.67272e-76
1.05976e-74
2.91458e-73
7.67095e-72
1.9198e-70
1.36043e-68
1.11561e-65
2.25529e-63
1.41816e-61
7.29965e-60
1.62486e-58
1.21397e-57
3.75257e-57
6.8633e-57
1.08483e-56
3.92315e-56
5.49926e-55
9.9955e-54
1.80441e-52
3.19697e-51
5.56687e-50
9.49837e-49
1.59179e-47
2.66136e-46
4.61404e-45
9.01109e-44
9.90252e-43
4.05481e-42
1.54691e-41
2.66282e-40
-1.86118e-106
-3.45846e-104
-6.12884e-102
-7.00021e-100
-6.26872e-98
-4.35988e-96
-1.96787e-94
1.21397e-93
7.08605e-92
4.87189e-90
2.39166e-88
1.03881e-86
4.16775e-85
1.55685e-83
5.45176e-82
1.80031e-80
5.63548e-79
1.67991e-77
4.78841e-76
1.30883e-74
3.48043e-73
6.58906e-71
4.40129e-68
3.09432e-66
1.598e-64
8.50163e-63
2.23844e-61
2.04688e-60
8.11049e-60
2.29543e-59
1.34989e-58
2.22647e-57
4.43473e-56
8.75039e-55
1.69365e-53
3.2261e-52
6.0452e-51
1.11193e-49
2.02605e-48
3.80414e-47
7.60967e-46
1.11678e-44
6.90651e-44
1.73838e-43
3.27003e-42
-1.78565e-124
1.03912e-109
2.60024e-107
4.34525e-105
5.42446e-103
5.4288e-101
4.54184e-99
3.2731e-97
2.00041e-95
1.36075e-93
7.04305e-92
3.33795e-90
1.46212e-88
5.96417e-87
2.28034e-85
8.21839e-84
2.80593e-82
9.11599e-81
2.82951e-79
8.42145e-78
2.4104e-76
6.50811e-75
3.47334e-73
7.25514e-71
4.49569e-69
2.05522e-67
9.3007e-66
2.58892e-64
3.32412e-63
2.87894e-62
3.74151e-61
7.62025e-60
1.67796e-58
3.6377e-57
7.72209e-56
1.61116e-54
3.3119e-53
6.70343e-52
1.34063e-50
2.74312e-49
5.83096e-48
1.1873e-46
1.14785e-45
1.75357e-45
3.62161e-44
4.38789e-128
1.45792e-113
4.8646e-111
8.39083e-109
1.13138e-106
1.23267e-104
1.14398e-102
7.38723e-101
7.94795e-99
4.98034e-97
2.81376e-95
1.45847e-93
6.99601e-92
3.12832e-90
1.31219e-88
5.1913e-87
1.94642e-85
6.94622e-84
2.36864e-82
7.74522e-81
2.43652e-79
7.39599e-78
2.17146e-76
6.12697e-75
2.18571e-73
2.23903e-71
1.19203e-69
4.47903e-68
1.38361e-66
3.59605e-65
8.83927e-64
2.19356e-62
5.38783e-61
1.29164e-59
3.02511e-58
6.95107e-57
1.57313e-55
3.51076e-54
7.73905e-53
1.72759e-51
3.95958e-50
1.04243e-48
1.17596e-47
1.58931e-47
3.62387e-46
-4.33742e-119
-6.61653e-117
-1.13227e-114
-1.07138e-112
-5.16234e-111
4.03684e-109
1.34126e-106
2.49538e-104
1.89808e-102
1.29636e-100
8.0564e-99
4.60199e-97
2.43637e-95
1.20383e-93
5.58482e-92
2.44532e-90
1.01519e-88
4.01267e-87
1.51575e-85
5.49064e-84
1.91335e-82
6.43322e-81
2.09277e-79
6.599e-78
1.96911e-76
6.74827e-75
8.16266e-73
4.53481e-71
1.75319e-69
5.85125e-68
1.79011e-66
5.16351e-65
1.42758e-63
3.81926e-62
9.94929e-61
2.53671e-59
6.35891e-58
1.57161e-56
3.8386e-55
9.39732e-54
2.35284e-52
7.69147e-51
9.87204e-50
1.29336e-49
3.27744e-48
-1.34595e-137
2.34731e-121
7.29477e-119
1.51984e-116
2.39949e-114
3.06964e-112
3.56368e-110
3.46306e-108
2.90644e-106
2.19897e-104
1.51789e-102
9.65128e-101
5.69717e-99
3.14282e-97
1.62935e-95
7.97781e-94
3.70531e-92
1.63889e-90
6.92826e-89
2.80856e-87
1.09514e-85
4.11935e-84
1.49878e-82
5.28814e-81
1.81233e-79
5.89603e-78
2.24108e-76
3.30843e-74
1.9358e-72
8.0653e-71
2.91882e-69
9.72589e-68
3.06429e-66
9.26543e-65
2.71421e-63
7.75464e-62
2.17224e-60
5.99061e-59
1.63251e-57
4.4315e-56
1.23176e-54
4.76636e-53
6.94687e-52
9.42934e-52
2.67659e-50
7.63495e-140
1.06131e-125
3.64378e-123
8.24621e-121
1.42552e-118
2.01617e-116
2.66429e-114
2.79979e-112
2.6244e-110
2.22659e-108
1.72908e-106
1.23993e-104
8.27029e-103
5.16207e-101
3.03089e-99
1.68173e-97
8.85452e-96
4.4404e-94
2.12825e-92
9.78028e-91
4.32224e-89
1.8421e-87
7.59126e-86
3.03251e-84
1.1771e-82
4.44709e-81
1.59979e-79
6.5685e-78
1.12328e-75
7.50698e-74
3.47784e-72
1.3929e-70
5.13157e-69
1.78797e-67
5.98288e-66
1.94145e-64
6.15197e-63
1.91395e-61
5.8732e-60
1.78567e-58
5.55613e-57
2.46992e-55
4.15481e-54
6.20624e-54
1.97017e-52
-3.0586e-132
-4.30372e-130
-6.22282e-128
1.7823e-126
2.52319e-123
7.28938e-121
9.78561e-119
1.15833e-116
1.23124e-114
1.19076e-112
1.05822e-110
8.70937e-109
6.68072e-107
4.80211e-105
3.24984e-103
2.07941e-101
1.26279e-99
7.30409e-98
4.03714e-96
2.13892e-94
1.0894e-92
5.34872e-91
2.53811e-89
1.16693e-87
5.21038e-86
2.26442e-84
9.5978e-83
3.88708e-81
1.69309e-79
3.00807e-77
2.59656e-75
1.39196e-73
6.32585e-72
2.62717e-70
1.02926e-68
3.86911e-67
1.41042e-65
5.02326e-64
1.75801e-62
6.07119e-61
2.14081e-59
9.26398e-58
2.16769e-56
1.06329e-55
1.30416e-54
2.0031e-147
2.42525e-135
9.4454e-133
2.49802e-130
5.60089e-128
9.77507e-126
1.4868e-123
2.01907e-121
2.48544e-119
2.80283e-117
2.91844e-115
2.82344e-113
2.55127e-111
2.16306e-109
1.72785e-107
1.30531e-105
9.35895e-104
6.3899e-102
4.16758e-100
2.60432e-98
1.56373e-96
9.046e-95
5.05475e-93
2.73496e-91
1.43621e-89
7.33599e-88
3.65241e-86
1.77597e-84
8.32082e-83
3.92637e-81
4.93526e-79
7.75333e-77
5.12155e-75
2.73252e-73
1.31161e-71
5.89913e-70
2.53749e-68
1.05683e-66
4.29765e-65
1.71594e-63
6.94483e-62
3.24676e-60
1.00532e-58
1.35328e-57
7.74449e-57
1.99638e-147
6.82012e-141
2.77579e-138
7.73836e-136
1.92291e-133
3.78331e-131
6.65265e-129
1.06469e-126
1.56527e-124
2.12703e-122
2.68425e-120
3.15862e-118
3.47876e-116
3.59876e-114
3.50904e-112
3.23586e-110
2.83124e-108
2.35786e-106
1.87472e-104
1.42726e-102
1.04336e-100
7.34339e-99
4.98882e-97
3.27938e-95
2.09064e-93
1.2954e-91
7.81724e-90
4.60326e-88
2.64983e-86
1.4929e-84
8.09771e-83
5.12088e-81
1.80614e-78
1.69282e-76
1.11871e-74
6.42603e-73
3.40991e-71
1.71814e-69
8.34808e-68
3.95045e-66
1.86648e-64
9.44844e-63
3.95501e-61
8.28158e-60
4.11529e-59
1.73756e-147
-4.99121e-146
-1.10806e-143
-6.76721e-142
1.01912e-139
2.28954e-137
4.81225e-135
9.48281e-133
1.749e-130
3.01561e-128
4.86046e-126
7.33096e-124
1.0367e-121
1.3779e-119
1.72614e-117
2.04416e-115
2.29538e-113
2.45139e-111
2.49737e-109
2.43402e-107
2.27588e-105
2.04703e-103
1.77566e-101
1.48905e-99
1.20996e-97
9.54729e-96
7.33013e-94
5.48622e-92
4.00964e-90
2.86601e-88
2.00624e-86
1.35997e-84
9.26114e-83
1.91591e-80
4.6581e-78
4.23409e-76
3.07284e-74
1.99931e-72
1.21722e-70
7.08745e-69
4.03921e-67
2.36023e-65
1.27505e-63
3.54133e-62
1.9575e-61
2.33243e-149
1.60737e-147
1.96665e-147
1.9938e-147
4.62229e-147
5.15681e-145
1.39161e-142
3.75749e-140
9.74801e-138
2.38736e-135
5.48007e-133
1.17662e-130
2.36429e-128
4.45457e-126
7.89e-124
1.31765e-121
2.08126e-119
3.11913e-117
4.44921e-115
6.0591e-113
7.90134e-111
9.89454e-109
1.19308e-106
1.38878e-104
1.56434e-102
1.70896e-100
1.81437e-98
1.87552e-96
1.89076e-94
1.86162e-92
1.79223e-90
1.68864e-88
1.55797e-86
1.38867e-84
1.3088e-82
7.97418e-80
1.39857e-77
1.41927e-75
1.20226e-73
9.24347e-72
6.72042e-70
4.84621e-68
3.29582e-66
1.15483e-64
8.43408e-64
8.09186e-156
1.32409e-153
2.0523e-151
3.17566e-149
1.41928e-147
1.94695e-147
1.94539e-147
1.28552e-147
-4.7177e-146
-1.29583e-143
-3.2626e-141
-7.73585e-139
-1.69846e-136
-3.3936e-134
-6.01552e-132
-8.95801e-130
-9.3533e-128
2.31439e-126
5.00026e-123
1.81217e-120
4.90422e-118
1.1518e-115
2.47136e-113
4.96513e-111
9.47293e-109
1.73182e-106
3.05251e-104
5.21027e-102
8.63987e-100
1.39512e-97
2.19723e-95
3.37851e-93
5.07343e-91
7.43775e-89
1.06312e-86
1.46243e-84
2.30204e-82
3.28118e-79
6.15687e-77
7.58711e-75
7.91955e-73
7.68729e-71
6.883e-69
3.23346e-67
3.44804e-66
6.90014e-164
1.60644e-162
8.89596e-161
1.00246e-158
1.68461e-156
3.54677e-154
8.43638e-152
2.08673e-149
1.35168e-147
1.14369e-147
5.8666e-148
-8.45621e-148
-7.27684e-146
-2.54026e-143
8.27285e-141
-2.78317e-138
-8.28139e-136
-2.32876e-133
-6.16606e-131
-1.54186e-128
-3.65143e-126
-8.21269e-124
-1.75899e-121
-3.59597e-119
-7.02882e-117
-1.31381e-114
-2.33884e-112
-3.89928e-110
-5.72236e-108
-5.389e-106
1.2932e-103
1.22634e-100
6.36529e-98
2.87094e-95
1.21558e-92
4.91732e-90
1.89824e-87
6.91726e-85
5.22968e-82
2.16609e-78
5.17752e-76
8.40151e-74
1.1106e-71
7.53531e-70
1.59863e-68
2.14206e-179
2.36996e-178
5.84627e-177
2.81024e-175
2.39009e-173
3.71066e-171
1.07992e-168
4.7488e-166
2.42343e-163
1.26038e-160
6.41611e-158
3.17903e-155
1.53896e-152
7.27644e-150
9.91882e-148
9.47506e-148
3.68365e-148
-1.12998e-147
-1.4303e-145
-4.91978e-144
2.35007e-140
-1.67202e-137
-1.31243e-134
-7.5032e-132
-5.18872e-129
-3.53387e-126
-2.21573e-123
2.01686e-119
-7.84825e-118
-3.73141e-115
-1.76572e-112
-8.09121e-110
-3.59352e-107
-1.54612e-104
-6.43776e-102
-2.58847e-99
-1.0012e-96
-3.7025e-94
-1.29644e-91
-2.77955e-89
4.68607e-83
7.11213e-78
1.01045e-74
1.76147e-72
1.15599e-70
)
;

boundaryField
{
    leftWall
    {
        type            zeroGradient;
    }
    rightWall
    {
        type            zeroGradient;
    }
    lowerWall
    {
        type            zeroGradient;
    }
    atmosphere
    {
        type            inletOutlet;
        inletValue      uniform 0;
        value           nonuniform List<scalar> 
45
(
0
0
0
0
0
0
0
0
0
0
0
0
0
0
0
0
0
0
0
0
0
0
0
0
0
0
0
0
0
0
0
0
0
0
0
0
0
0
0
0
0
0
0
1.76147e-72
1.15599e-70
)
;
    }
    defaultFaces
    {
        type            empty;
    }
    procBoundary2to0
    {
        type            processor;
        value           nonuniform List<scalar> 
46
(
-3.50355e-10
-2.04535e-10
-9.16935e-11
-3.27276e-11
-6.90623e-12
3.66738e-12
4.9601e-12
5.74235e-12
6.49312e-12
6.93287e-12
6.70687e-12
6.29572e-12
5.90096e-12
5.71865e-12
5.78387e-12
7.13286e-12
1.52606e-11
4.1662e-11
9.50256e-11
1.78441e-10
3.15849e-10
5.99765e-10
1.35394e-09
6.007e-09
2.3787e-08
-2.19889e-17
-3.97027e-16
-3.45574e-15
-1.87315e-14
-6.8116e-14
-1.67318e-13
-1.99026e-13
-6.53541e-13
-1.89659e-12
-4.35435e-12
-8.34892e-12
-1.36719e-11
-1.96955e-11
-2.68063e-11
-4.14412e-11
-7.76103e-11
-1.42399e-10
-2.18653e-10
-2.68604e-10
-2.58089e-10
-2.58089e-10
)
;
    }
    procBoundary2to3
    {
        type            processor;
        value           nonuniform List<scalar> 
43
(
2.59479e-07
5.76093e-07
6.0946e-07
3.52981e-07
1.50844e-07
2.54427e-08
3.09707e-09
3.56501e-10
5.07862e-11
1.16617e-11
1.11129e-12
6.63266e-14
4.5874e-15
3.38692e-16
2.62704e-17
1.9412e-18
1.23947e-19
6.5576e-21
2.88413e-22
1.05477e-23
3.11228e-25
6.99914e-27
1.32359e-28
3.50589e-30
8.35575e-32
1.79381e-33
3.47115e-35
6.06115e-37
9.56393e-39
1.366e-40
1.769e-42
2.08034e-44
2.22434e-46
2.16328e-48
1.91337e-50
1.5382e-52
1.12329e-54
7.44742e-57
4.1152e-59
1.95746e-61
8.4339e-64
3.44804e-66
1.59863e-68
)
;
    }
}


// ************************************************************************* //
