/*--------------------------------*- C++ -*----------------------------------*\
| =========                 |                                                 |
| \\      /  F ield         | OpenFOAM: The Open Source CFD Toolbox           |
|  \\    /   O peration     | Version:  5.0                                   |
|   \\  /    A nd           | Web:      www.OpenFOAM.org                      |
|    \\/     M anipulation  |                                                 |
\*---------------------------------------------------------------------------*/
FoamFile
{
    version     2.0;
    format      ascii;
    class       volScalarField;
    location    "0.3";
    object      epsilon;
}
// * * * * * * * * * * * * * * * * * * * * * * * * * * * * * * * * * * * * * //

dimensions      [0 2 -3 0 0 0 0];

internalField   nonuniform List<scalar> 
1915
(
0.458125
0.477466
0.494846
0.509771
0.521813
0.53067
0.53623
0.53863
0.538308
0.536044
0.532979
0.530634
0.530925
0.536202
0.549342
0.573917
0.61444
0.676656
0.767779
0.89655
1.07327
1.31138
1.63541
2.1038
2.84807
1.18016
0.409932
0.27427
0.229047
0.211317
0.205942
0.207556
0.213772
0.223339
0.235514
0.249796
0.265808
0.283238
0.301805
0.321237
0.341252
0.361553
0.381818
0.401692
0.42078
0.438642
0.454846
0.468957
0.480579
0.489398
0.495229
0.498069
0.498137
0.495903
0.492118
0.487816
0.484328
0.483296
0.486721
0.497061
0.5174
0.551702
0.605137
0.684384
0.797746
0.954971
1.16729
1.45034
1.83677
2.40552
1.20846
0.414422
0.276427
0.230672
0.21266
0.206997
0.208254
0.214017
0.223025
0.234522
0.247997
0.263058
0.279376
0.296654
0.314598
0.332915
0.351296
0.369411
0.38691
0.403415
0.418534
0.431884
0.443102
0.451882
0.458006
0.461387
0.462099
0.460407
0.456783
0.451919
0.446727
0.442342
0.440143
0.441796
0.449347
0.465376
0.493239
0.537388
0.603712
0.699765
0.834636
1.01839
1.262
1.58124
2.01102
1.22708
0.417051
0.277799
0.231847
0.213698
0.20781
0.208723
0.214017
0.222426
0.233188
0.245786
0.259821
0.274955
0.290878
0.30729
0.323889
0.340365
0.356392
0.371634
0.385744
0.398374
0.409195
0.417917
0.424311
0.428243
0.429694
0.428792
0.425821
0.42123
0.415639
0.40983
0.404755
0.401548
0.401563
0.406457
0.418319
0.439874
0.474766
0.527894
0.605705
0.716261
0.868769
1.07257
1.33663
1.67293
1.23619
0.417502
0.278123
0.232342
0.214219
0.208185
0.20879
0.213622
0.221418
0.23142
0.24311
0.256086
0.270008
0.284562
0.299448
0.314364
0.329005
0.34306
0.356214
0.368153
0.378577
0.387211
0.393828
0.398268
0.400457
0.400431
0.398345
0.394483
0.389259
0.383212
0.377004
0.371417
0.367365
0.365927
0.36841
0.376449
0.392166
0.418391
0.458946
0.518932
0.604918
0.724777
0.886877
1.09865
1.36547
1.236
0.415673
0.277248
0.231995
0.21406
0.207965
0.208306
0.212696
0.219887
0.229129
0.239908
0.251827
0.264547
0.277759
0.291166
0.304475
0.317393
0.329629
0.340893
0.350908
0.359417
0.366198
0.371079
0.373952
0.374792
0.373667
0.370745
0.366298
0.360696
0.354402
0.347965
0.342019
0.337292
0.334627
0.335031
0.339743
0.350353
0.368955
0.398347
0.442267
0.505584
0.594318
0.715251
0.874947
1.07815
1.22674
0.411532
0.275084
0.23069
0.213096
0.207022
0.207148
0.211127
0.217735
0.226235
0.236123
0.247012
0.258569
0.270495
0.282502
0.29431
0.305645
0.316235
0.325822
0.334164
0.341045
0.346287
0.349763
0.351408
0.351229
0.349315
0.345834
0.341038
0.335251
0.328865
0.322333
0.316165
0.310933
0.307287
0.305986
0.307949
0.314327
0.326603
0.346721
0.377237
0.421456
0.483497
0.568138
0.68033
0.82421
1.20881
0.405119
0.271596
0.228361
0.211245
0.205267
0.205225
0.208829
0.214883
0.222672
0.231706
0.24161
0.252064
0.262781
0.273488
0.28392
0.293824
0.302954
0.31108
0.317992
0.323511
0.327498
0.329861
0.330566
0.329643
0.327188
0.323364
0.318397
0.31257
0.306211
0.299692
0.293421
0.287845
0.283461
0.280836
0.280636
0.283675
0.29097
0.303815
0.323864
0.35321
0.394417
0.45046
0.524485
0.619314
1.18279
0.396549
0.266803
0.224988
0.208464
0.202646
0.202481
0.205744
0.211279
0.218395
0.226622
0.235599
0.245022
0.254621
0.264138
0.273329
0.281961
0.289814
0.296685
0.302395
0.306796
0.309779
0.311279
0.311285
0.30984
0.307041
0.30304
0.298039
0.292279
0.286038
0.279618
0.273347
0.267574
0.262679
0.259081
0.257261
0.257783
0.26133
0.268738
0.281037
0.299483
0.325567
0.360972
0.407443
0.466548
1.14946
0.386009
0.260778
0.220599
0.204758
0.19915
0.198895
0.201849
0.2069
0.213385
0.220855
0.228969
0.237441
0.246017
0.25446
0.262545
0.270061
0.276812
0.282621
0.287335
0.290832
0.293027
0.293876
0.293382
0.291593
0.288605
0.284557
0.279624
0.274014
0.267959
0.261708
0.255524
0.249683
0.244474
0.240211
0.237237
0.235943
0.236781
0.240282
0.247071
0.257877
0.273525
0.2949
0.322876
0.358193
1.10977
0.373749
0.253643
0.215265
0.200171
0.194806
0.194486
0.197157
0.201755
0.20765
0.214415
0.221732
0.229333
0.236982
0.244463
0.251572
0.258119
0.26393
0.26885
0.27275
0.275529
0.27712
0.277493
0.276661
0.274672
0.271616
0.267618
0.262831
0.257433
0.251618
0.245593
0.239569
0.233767
0.228412
0.223736
0.21999
0.217444
0.216398
0.217186
0.220183
0.225802
0.234483
0.246667
0.262753
0.283067
1.06484
0.360077
0.245565
0.209097
0.194784
0.189678
0.189306
0.191712
0.195884
0.201225
0.207337
0.213919
0.220726
0.227541
0.234168
0.240421
0.246132
0.251147
0.255332
0.258575
0.260793
0.261932
0.261973
0.260931
0.258855
0.255826
0.251955
0.247374
0.242235
0.236702
0.230947
0.225144
0.21947
0.214101
0.209217
0.204999
0.201638
0.199335
0.198301
0.19876
0.200943
0.205078
0.211372
0.219985
0.231097
1.01594
0.345342
0.236739
0.202237
0.188712
0.183861
0.183439
0.18559
0.189357
0.194178
0.199681
0.205587
0.211672
0.217738
0.223606
0.229113
0.234106
0.238452
0.242031
0.24475
0.246537
0.247349
0.247173
0.246024
0.243949
0.24102
0.237333
0.233003
0.22816
0.222942
0.217493
0.211959
0.206483
0.201208
0.196271
0.191811
0.187965
0.184869
0.182659
0.181472
0.181435
0.182664
0.185245
0.189259
0.194688
0.964394
0.329915
0.227383
0.194849
0.18209
0.177477
0.176996
0.178893
0.18227
0.186599
0.191533
0.196816
0.202243
0.207635
0.212832
0.217686
0.222064
0.225847
0.228931
0.231235
0.232697
0.233281
0.232978
0.231802
0.229795
0.22702
0.22356
0.219515
0.214994
0.210116
0.205002
0.199775
0.194553
0.189452
0.184584
0.180054
0.175964
0.172412
0.169487
0.167273
0.165843
0.165252
0.165537
0.166719
0.168719
0.911566
0.314173
0.217724
0.187109
0.175072
0.170664
0.170106
0.171747
0.174742
0.178601
0.183
0.187706
0.192532
0.197316
0.201915
0.206198
0.210047
0.213355
0.216034
0.21801
0.219231
0.219665
0.219304
0.218161
0.216271
0.21369
0.210488
0.206749
0.20257
0.19805
0.193292
0.188401
0.183475
0.178612
0.173902
0.169429
0.165274
0.161506
0.158189
0.155377
0.153112
0.151423
0.150321
0.149792
0.149762
0.85875
0.29848
0.207986
0.179197
0.167819
0.163574
0.162913
0.164288
0.166908
0.170314
0.174208
0.178377
0.18265
0.186882
0.190947
0.194726
0.198116
0.201023
0.203367
0.205084
0.206127
0.206469
0.206101
0.205033
0.203296
0.200934
0.19801
0.194594
0.190768
0.186617
0.18223
0.177695
0.173097
0.168517
0.164032
0.15971
0.155616
0.151803
0.14832
0.145204
0.142481
0.140165
0.13826
0.136739
0.135543
0.807104
0.283161
0.198377
0.171289
0.160491
0.156359
0.155568
0.156666
0.158911
0.161879
0.165293
0.168958
0.17272
0.176449
0.180031
0.183363
0.186351
0.188913
0.190978
0.192488
0.193402
0.193693
0.193353
0.192389
0.190825
0.188699
0.186063
0.182976
0.179508
0.175732
0.171724
0.167559
0.16331
0.159046
0.154833
0.15073
0.146787
0.143052
0.139559
0.136339
0.13341
0.130779
0.128448
0.12639
0.124563
0.757591
0.268495
0.189084
0.163546
0.153242
0.149172
0.148221
0.149027
0.1509
0.153441
0.156397
0.159588
0.162875
0.166141
0.169285
0.172214
0.174846
0.177108
0.178935
0.180277
0.181095
0.181365
0.181075
0.180231
0.178852
0.176967
0.174621
0.171863
0.168752
0.16535
0.161722
0.157933
0.154045
0.15012
0.146213
0.142373
0.138647
0.135072
0.131679
0.128491
0.125524
0.122785
0.120272
0.117965
0.115834
0.710944
0.254701
0.180263
0.156112
0.146213
0.142154
0.141013
0.141517
0.143018
0.145144
0.147661
0.150404
0.153247
0.156085
0.158827
0.161391
0.163704
0.1657
0.167322
0.168523
0.169267
0.169532
0.169305
0.168588
0.167395
0.16575
0.163688
0.161252
0.15849
0.155456
0.152204
0.148791
0.14527
0.141695
0.138113
0.134569
0.131102
0.127744
0.124523
0.121459
0.118567
0.115853
0.113315
0.110941
0.108711
0.66767
0.241934
0.172035
0.149103
0.139526
0.135429
0.134075
0.134267
0.135397
0.13712
0.139217
0.141537
0.143964
0.146404
0.148776
0.151007
0.15303
0.154787
0.156226
0.157305
0.15799
0.158259
0.158098
0.157507
0.156495
0.155082
0.153294
0.151167
0.148741
0.146062
0.143177
0.140132
0.136977
0.133754
0.130508
0.127277
0.124095
0.120991
0.11799
0.11511
0.112365
0.109762
0.1073
0.104973
0.102767
0.628063
0.230285
0.164482
0.142611
0.133277
0.129102
0.127515
0.12739
0.128156
0.129489
0.131186
0.133105
0.135143
0.137214
0.139244
0.141167
0.142925
0.144464
0.145738
0.146707
0.147341
0.147616
0.14752
0.147049
0.146208
0.145011
0.143481
0.141646
0.139539
0.137199
0.134664
0.131976
0.129176
0.126303
0.123393
0.120481
0.117597
0.114768
0.112015
0.109356
0.106803
0.104364
0.102041
0.0998295
0.0977219
0.592246
0.219797
0.157655
0.136697
0.127539
0.123255
0.121422
0.12098
0.121391
0.12235
0.123666
0.12521
0.126885
0.128612
0.130325
0.131965
0.133479
0.134818
0.13594
0.136808
0.137394
0.137674
0.137636
0.137274
0.13659
0.135593
0.134301
0.132736
0.130927
0.128903
0.1267
0.124351
0.121891
0.119355
0.116774
0.114179
0.111596
0.109049
0.106558
0.104138
0.101803
0.0995595
0.0974104
0.0953547
0.0933884
0.560208
0.21047
0.151574
0.131396
0.12236
0.117943
0.11586
0.115107
0.115176
0.115779
0.116738
0.11793
0.119267
0.120677
0.122098
0.123477
0.124766
0.12592
0.1269
0.127674
0.128212
0.128495
0.128507
0.12824
0.127696
0.126879
0.125803
0.124485
0.122947
0.121217
0.11932
0.117287
0.115148
0.112932
0.110666
0.108377
0.106089
0.103822
0.101594
0.0994198
0.0973116
0.0952775
0.0933202
0.0914405
0.0896367
0.53185
0.202273
0.146236
0.126722
0.117765
0.113202
0.110869
0.109816
0.10956
0.10983
0.110455
0.111323
0.112349
0.113466
0.114619
0.115759
0.116841
0.117824
0.118673
0.119356
0.119847
0.120126
0.120178
0.119993
0.11957
0.118912
0.118027
0.11693
0.115638
0.114173
0.112556
0.110814
0.108971
0.107053
0.105082
0.103083
0.101075
0.0990768
0.097105
0.0951728
0.0932909
0.0914674
0.0897067
0.0880091
0.0863753
0.507022
0.195168
0.141626
0.122674
0.113762
0.109046
0.106471
0.105134
0.104574
0.104533
0.104852
0.105421
0.106163
0.107014
0.107923
0.108845
0.109737
0.110563
0.111289
0.111886
0.11233
0.112599
0.11268
0.112562
0.112242
0.11172
0.111003
0.1101
0.109026
0.107796
0.106431
0.104951
0.103377
0.10173
0.100031
0.0982989
0.0965521
0.0948065
0.0930766
0.0913744
0.0897098
0.0880904
0.086521
0.0850024
0.0835361
0.485563
0.189113
0.137726
0.119243
0.110347
0.105477
0.102671
0.101067
0.100226
0.0999013
0.0999395
0.100238
0.100722
0.101333
0.102022
0.102746
0.103466
0.104148
0.104761
0.105276
0.105671
0.105926
0.106026
0.105961
0.105726
0.105319
0.104744
0.104008
0.103122
0.102099
0.100956
0.0997074
0.0983725
0.0969687
0.0955134
0.0940234
0.0925141
0.0909995
0.0894922
0.088003
0.0865406
0.0851122
0.083723
0.0823737
0.0810663
0.467331
0.18408
0.134524
0.116419
0.107514
0.102489
0.0994632
0.0976111
0.096512
0.0959284
0.0957135
0.0957689
0.0960227
0.0964186
0.0969101
0.0974565
0.0980216
0.0985728
0.0990805
0.0995188
0.0998651
0.100101
0.100211
0.100185
0.100017
0.0997034
0.0992467
0.0986517
0.097926
0.0970804
0.0961271
0.0950799
0.0939535
0.0927628
0.0915224
0.0902466
0.0889486
0.0876405
0.0863331
0.085036
0.083757
0.0825027
0.081278
0.080084
0.0789227
0.452229
0.180068
0.132019
0.114201
0.105257
0.100071
0.0968356
0.0947523
0.0934163
0.0925982
0.0921561
0.0919943
0.0920432
0.0922484
0.0925649
0.0929537
0.0933802
0.0938133
0.094225
0.0945907
0.0948886
0.0951008
0.0952127
0.0952135
0.0950961
0.0948569
0.094496
0.0940162
0.0934234
0.0927256
0.0919326
0.0910558
0.0901069
0.0890986
0.0880431
0.0869525
0.0858379
0.0847099
0.0835778
0.0824497
0.0813328
0.0802328
0.0791546
0.0780992
0.0770687
0.440225
0.177106
0.130238
0.112602
0.103579
0.0982214
0.0947774
0.0924745
0.090919
0.0898875
0.0892411
0.088886
0.0887538
0.0887909
0.0889533
0.089203
0.0895065
0.0898338
0.0901582
0.090456
0.0907063
0.0908919
0.0909983
0.0910147
0.0909335
0.0907504
0.090464
0.0900758
0.0895898
0.089012
0.0883504
0.0876138
0.0868121
0.0859558
0.0850551
0.0841202
0.0831608
0.0821856
0.0812028
0.0802196
0.079242
0.0782753
0.0773237
0.076389
0.0754727
0.431373
0.175271
0.129234
0.111656
0.102498
0.0969425
0.0932825
0.0907632
0.088999
0.08777
0.0869385
0.0864108
0.0861184
0.0860079
0.0860353
0.0861629
0.0863579
0.086591
0.0868364
0.087071
0.0872751
0.0874315
0.0875263
0.0875487
0.0874907
0.0873472
0.0871162
0.0867977
0.0863944
0.0859108
0.0853529
0.0847281
0.0840444
0.0833104
0.0825351
0.0817269
0.0808941
0.0800444
0.0791848
0.0783216
0.07746
0.0766047
0.0757594
0.0749266
0.0741069
0.425837
0.174693
0.129099
0.111424
0.102049
0.0962507
0.0923516
0.089608
0.0876375
0.0862203
0.0852175
0.0845338
0.0840991
0.0838588
0.083768
0.0837889
0.0838886
0.0840382
0.0842124
0.0843888
0.084548
0.0846737
0.084752
0.0847722
0.084726
0.0846081
0.0844153
0.0841471
0.0838047
0.0833914
0.0829119
0.082372
0.0817785
0.0811387
0.0804601
0.0797502
0.0790162
0.0782649
0.0775023
0.0767339
0.0759647
0.0751986
0.0744391
0.0736887
0.0729479
0.423923
0.175573
0.12997
0.111995
0.102287
0.0961738
0.0919933
0.0890031
0.0868183
0.0852148
0.084049
0.0832215
0.0826589
0.0823038
0.0821096
0.0820374
0.0820537
0.0821296
0.08224
0.082363
0.0824795
0.0825736
0.0826317
0.0826431
0.0825995
0.082495
0.082326
0.0820909
0.0817901
0.0814259
0.0810016
0.0805222
0.0799931
0.0794208
0.0788117
0.0781726
0.0775099
0.0768298
0.076138
0.0754393
0.0747384
0.0740389
0.0733439
0.0726561
0.071976
0.426139
0.178198
0.132035
0.113488
0.10328
0.0967477
0.09222
0.0889451
0.0865272
0.0847315
0.0834057
0.0824429
0.0817637
0.0813065
0.0810218
0.0808686
0.0808123
0.0808237
0.0808774
0.0809518
0.0810282
0.0810908
0.0811264
0.0811243
0.081076
0.0809753
0.0808179
0.0806017
0.0803262
0.0799926
0.0796034
0.0791623
0.0786742
0.0781444
0.0775789
0.0769839
0.0763655
0.0757297
0.0750819
0.074427
0.0737695
0.0731129
0.0724603
0.0718143
0.0711758
0.433299
0.182976
0.135537
0.116046
0.105108
0.0980073
0.0930403
0.0894265
0.0867468
0.0847475
0.083261
0.0821687
0.0813826
0.0808348
0.0804713
0.0802484
0.0801298
0.0800853
0.0800895
0.0801205
0.08016
0.0801924
0.0802047
0.0801862
0.0801282
0.0800242
0.0798695
0.0796612
0.0793978
0.0790797
0.0787084
0.0782867
0.0778185
0.0773086
0.0767623
0.0761857
0.0755848
0.0749657
0.0743342
0.0736956
0.0730547
0.0724154
0.0717811
0.0711545
0.0705368
0.446704
0.190482
0.140781
0.119823
0.107835
0.09997
0.0944452
0.0904253
0.0874497
0.0852335
0.0835856
0.0823704
0.0814878
0.0808612
0.0804309
0.0801497
0.0799792
0.0798879
0.0798499
0.0798435
0.0798503
0.079855
0.0798449
0.079809
0.0797389
0.0796275
0.0794695
0.0792614
0.0790008
0.078687
0.0783204
0.0779028
0.077437
0.076927
0.0763776
0.0757947
0.0751845
0.0745536
0.0739088
0.0732563
0.072602
0.071951
0.0713073
0.0706743
0.0700539
0.468445
0.201525
0.148131
0.124956
0.111486
0.102607
0.0963858
0.0918892
0.0885874
0.0861472
0.0843436
0.0830175
0.0820527
0.0813622
0.0808795
0.0805531
0.0803421
0.0802139
0.0801421
0.080105
0.0800845
0.0800656
0.0800355
0.0799838
0.0799015
0.0797816
0.0796181
0.0794065
0.0791438
0.0788277
0.0784574
0.0780334
0.0775569
0.0770309
0.0764594
0.0758475
0.0752017
0.0745294
0.0738387
0.0731379
0.072435
0.0717373
0.0710506
0.0703798
0.0697282
0.501949
0.217282
0.157989
0.131509
0.115985
0.105798
0.0987428
0.0937158
0.0900786
0.0874267
0.0854888
0.0840757
0.0830522
0.082319
0.0818024
0.0814467
0.0812089
0.0810553
0.0809595
0.0808999
0.0808588
0.0808216
0.0807762
0.0807121
0.0806205
0.080494
0.0803263
0.0801121
0.0798471
0.0795278
0.0791517
0.0787172
0.0782237
0.0776722
0.0770648
0.0764054
0.0757
0.0749564
0.0741844
0.073395
0.0726
0.0718109
0.0710376
0.0702881
0.0695682
0.553294
0.239495
0.170711
0.139344
0.121055
0.109268
0.101287
0.0957317
0.0917985
0.0889856
0.0869633
0.0855076
0.0844626
0.0837175
0.0831922
0.0828275
0.0825794
0.0824141
0.0823055
0.0822328
0.0821792
0.0821308
0.0820762
0.0820053
0.0819097
0.0817819
0.0816151
0.0814036
0.0811418
0.0808248
0.0804481
0.0800078
0.0795005
0.0789239
0.0782769
0.0775605
0.0767782
0.0759368
0.0750468
0.0741222
0.0731804
0.07224
0.0713191
0.0704329
0.0695928
0.634989
0.270751
0.186342
0.14786
0.126048
0.112493
0.103641
0.0976785
0.093578
0.0907174
0.0887029
0.0872768
0.0862661
0.0855515
0.0850498
0.0847013
0.0844625
0.0843011
0.0841923
0.0841171
0.0840601
0.0840087
0.0839523
0.083882
0.0837898
0.0836684
0.0835113
0.0833121
0.0830646
0.0827626
0.0823996
0.081969
0.081464
0.0808779
0.0802045
0.0794392
0.0785795
0.0776274
0.07659
0.075482
0.0743258
0.0731509
0.0719907
0.0708772
0.0698365
0.774887
0.314468
0.203793
0.155458
0.129704
0.114619
0.105263
0.0992283
0.0952256
0.0925153
0.0906526
0.0893594
0.0884567
0.0878258
0.0873863
0.0870824
0.0868744
0.0867333
0.0866377
0.0865709
0.0865199
0.086474
0.0864241
0.0863626
0.0862826
0.0861775
0.0860413
0.0858677
0.0856505
0.0853827
0.0850565
0.0846631
0.0841924
0.0836331
0.0829724
0.082197
0.0812943
0.0802539
0.079071
0.0777501
0.0763102
0.0747889
0.0732431
0.0717422
0.0703608
1.0356
0.372521
0.218505
0.158575
0.129886
0.114467
0.105531
0.100067
0.0965933
0.0943187
0.0927963
0.0917612
0.0910505
0.0905604
0.0902226
0.0899912
0.0898342
0.0897288
0.0896582
0.0896097
0.0895732
0.0895406
0.0895049
0.0894603
0.0894013
0.0893228
0.0892197
0.0890868
0.0889185
0.0887083
0.0884486
0.0881299
0.0877408
0.0872667
0.0866898
0.0859882
0.085136
0.0841038
0.0828604
0.0813779
0.0796401
0.0776578
0.0754893
0.0732677
0.0712674
1.59171
0.431224
0.21656
0.150535
0.123739
0.110893
0.104037
0.100095
0.0977002
0.0961848
0.0951964
0.0945377
0.0940928
0.0937904
0.0935851
0.0934469
0.0933553
0.0932959
0.0932582
0.0932342
0.0932178
0.0932036
0.0931876
0.0931658
0.0931347
0.0930912
0.0930317
0.0929529
0.0928507
0.0927207
0.0925572
0.092353
0.0920987
0.0917816
0.0913846
0.0908846
0.0902496
0.0894356
0.0883821
0.0870063
0.0851975
0.0828143
0.0797069
0.0758704
0.0726547
3.23757
0.384517
0.16612
0.12336
0.109643
0.103966
0.10122
0.0997402
0.0988783
0.0983481
0.0980094
0.0977879
0.0976413
0.0975443
0.097481
0.0974411
0.0974174
0.097405
0.0974004
0.0974008
0.0974039
0.0974081
0.0974118
0.0974135
0.0974121
0.0974064
0.0973952
0.0973772
0.097351
0.0973151
0.0972675
0.0972057
0.0971262
0.0970245
0.0968937
0.0967239
0.0964993
0.0961942
0.0957629
0.0951189
0.0940798
0.0922194
0.0884667
0.0796796
0.0742337
)
;

boundaryField
{
    leftWall
    {
        Cmu             0.09;
        kappa           0.41;
        E               9.8;
        type            epsilonWallFunction;
        value           nonuniform List<scalar> 
42
(
1.18016
1.20846
1.22708
1.23619
1.236
1.22674
1.20881
1.18279
1.14946
1.10977
1.06484
1.01594
0.964394
0.911566
0.85875
0.807104
0.757591
0.710944
0.66767
0.628063
0.592246
0.560208
0.53185
0.507022
0.485563
0.467331
0.452229
0.440225
0.431373
0.425837
0.423923
0.426139
0.433299
0.446704
0.468445
0.501949
0.553294
0.634989
0.774887
1.0356
1.59171
3.23757
)
;
    }
    rightWall
    {
        Cmu             0.09;
        kappa           0.41;
        E               9.8;
        type            epsilonWallFunction;
        value           nonuniform 0();
    }
    lowerWall
    {
        Cmu             0.09;
        kappa           0.41;
        E               9.8;
        type            epsilonWallFunction;
        value           nonuniform 0();
    }
    atmosphere
    {
        type            inletOutlet;
        inletValue      uniform 0.1;
        value           nonuniform List<scalar> 
45
(
0.1
0.1
0.1
0.1
0.1
0.1
0.1
0.1
0.1
0.1
0.1
0.1
0.1
0.1
0.1
0.1
0.1
0.1
0.1
0.1
0.1
0.1
0.1
0.1
0.1
0.1
0.1
0.1
0.1
0.1
0.1
0.1
0.1
0.1
0.1
0.1
0.1
0.1
0.1
0.1
0.1
0.1
0.1
0.0796796
0.0742337
)
;
    }
    defaultFaces
    {
        type            empty;
    }
    procBoundary2to0
    {
        type            processor;
        value           nonuniform List<scalar> 
46
(
0.47624
0.498934
0.519899
0.538556
0.554344
0.566828
0.575758
0.581146
0.583353
0.583147
0.581747
0.580847
0.582629
0.589794
0.605638
0.63419
0.680431
0.750528
0.851996
0.993752
1.18667
1.44728
1.81122
2.36418
3.27741
1.14519
0.405788
0.271956
0.227325
0.209941
0.204876
0.206832
0.21345
0.223501
0.236255
0.25123
0.268068
0.286479
0.30621
0.327022
0.348655
0.370818
0.393219
0.415516
0.437312
0.437312
)
;
    }
    procBoundary2to3
    {
        type            processor;
        value           nonuniform List<scalar> 
43
(
4.0852
3.31604
2.63342
2.10854
1.69219
1.32639
1.00183
0.736717
0.539342
0.401497
0.307934
0.244592
0.201377
0.171401
0.150123
0.134593
0.122908
0.11384
0.106595
0.100662
0.0957052
0.0915029
0.087904
0.0848025
0.0821211
0.0798009
0.077795
0.0760643
0.0745761
0.0733021
0.0722184
0.0713051
0.0705461
0.0699295
0.0694477
0.0690977
0.0688812
0.0688055
0.0688838
0.0691373
0.0695889
0.0702185
0.0707944
)
;
    }
}


// ************************************************************************* //
