/*--------------------------------*- C++ -*----------------------------------*\
| =========                 |                                                 |
| \\      /  F ield         | OpenFOAM: The Open Source CFD Toolbox           |
|  \\    /   O peration     | Version:  5.0                                   |
|   \\  /    A nd           | Web:      www.OpenFOAM.org                      |
|    \\/     M anipulation  |                                                 |
\*---------------------------------------------------------------------------*/
FoamFile
{
    version     2.0;
    format      ascii;
    class       volScalarField;
    location    "0.3";
    object      k;
}
// * * * * * * * * * * * * * * * * * * * * * * * * * * * * * * * * * * * * * //

dimensions      [0 2 -2 0 0 0 0];

internalField   nonuniform List<scalar> 
1915
(
0.25644
0.262004
0.26674
0.270557
0.273378
0.275149
0.275854
0.275526
0.27425
0.272179
0.269529
0.26658
0.263666
0.26117
0.259512
0.259143
0.260533
0.264157
0.270466
0.279839
0.292581
0.309159
0.331116
0.363047
0.414702
0.0445482
0.0749191
0.0930675
0.10622
0.117323
0.127469
0.137146
0.146594
0.155923
0.165176
0.174352
0.183428
0.192361
0.201102
0.209594
0.217775
0.22558
0.23294
0.23978
0.246021
0.251577
0.256365
0.260304
0.263324
0.265372
0.266419
0.266475
0.265593
0.263875
0.261477
0.258608
0.25553
0.252551
0.250021
0.248328
0.247901
0.249202
0.252724
0.258969
0.268389
0.281325
0.298031
0.319101
0.346792
0.387272
0.0452383
0.0762829
0.0945646
0.107726
0.118769
0.128801
0.138317
0.147558
0.156639
0.165606
0.174461
0.183178
0.191717
0.200025
0.208045
0.215714
0.222964
0.229726
0.235928
0.241494
0.246348
0.250418
0.25364
0.25596
0.257346
0.257794
0.257332
0.256027
0.253988
0.251371
0.248372
0.245232
0.24223
0.23968
0.237939
0.2374
0.238506
0.241743
0.247636
0.256697
0.269345
0.285814
0.306215
0.331118
0.363008
0.0456841
0.0773444
0.0957679
0.108959
0.119963
0.129896
0.139257
0.148291
0.157118
0.165786
0.174301
0.182641
0.190765
0.198624
0.206158
0.213305
0.220001
0.226177
0.231764
0.236693
0.240899
0.244321
0.246909
0.248628
0.249464
0.249429
0.248565
0.246948
0.24469
0.241939
0.238878
0.235721
0.232719
0.23015
0.228332
0.22762
0.228417
0.231183
0.236426
0.244681
0.256438
0.272028
0.291509
0.314744
0.341957
0.045894
0.0780868
0.0966411
0.10987
0.120848
0.130693
0.139908
0.14874
0.157313
0.16568
0.173851
0.181807
0.189511
0.196915
0.203964
0.210597
0.216752
0.222366
0.227374
0.231716
0.235335
0.238184
0.240225
0.24144
0.241828
0.241413
0.240248
0.238412
0.236016
0.233197
0.23012
0.226977
0.223986
0.221391
0.219469
0.218529
0.218929
0.221076
0.225434
0.232509
0.242806
0.256743
0.274511
0.295952
0.3206
0.0458747
0.078491
0.0971502
0.110415
0.121373
0.131139
0.140215
0.148852
0.157178
0.165248
0.173078
0.180654
0.187943
0.194902
0.201478
0.207616
0.213257
0.218344
0.222819
0.226629
0.229728
0.23208
0.233659
0.234459
0.23449
0.233786
0.232403
0.230423
0.22795
0.22511
0.222051
0.21894
0.215966
0.213339
0.211294
0.210096
0.210049
0.211499
0.214841
0.220513
0.228975
0.240652
0.255831
0.274534
0.296397
0.0456323
0.078543
0.0972682
0.110557
0.121493
0.131184
0.140129
0.14858
0.156666
0.16445
0.17195
0.179157
0.186046
0.192577
0.198703
0.204373
0.209536
0.214138
0.21813
0.221468
0.224115
0.226043
0.227239
0.227705
0.227459
0.226541
0.22501
0.222944
0.220441
0.217614
0.214595
0.211529
0.208576
0.205914
0.203742
0.20228
0.201778
0.20252
0.204825
0.209047
0.215559
0.224723
0.236826
0.251986
0.270049
0.0451751
0.078236
0.0969775
0.11027
0.121176
0.130791
0.139609
0.147881
0.155739
0.163248
0.170433
0.17729
0.183799
0.189926
0.19563
0.200868
0.205592
0.209757
0.213321
0.216247
0.218506
0.220081
0.220966
0.221168
0.220715
0.219646
0.218021
0.215914
0.213415
0.210627
0.207663
0.204649
0.201721
0.19903
0.196737
0.195026
0.194097
0.194177
0.195512
0.198373
0.20304
0.209784
0.218825
0.230279
0.244084
0.0445144
0.0775722
0.0962716
0.109539
0.1204
0.129934
0.138626
0.146725
0.154365
0.161613
0.1685
0.175027
0.181181
0.186932
0.192249
0.197091
0.20142
0.205197
0.208386
0.210958
0.212893
0.214178
0.214815
0.214817
0.214213
0.213045
0.21137
0.209257
0.206789
0.204056
0.201159
0.198204
0.195308
0.192595
0.1902
0.188269
0.186964
0.18646
0.186944
0.188615
0.191672
0.1963
0.202643
0.210769
0.220628
0.0436652
0.0765631
0.0951565
0.108363
0.11916
0.128602
0.137165
0.145095
0.152524
0.159526
0.166132
0.172352
0.178175
0.183583
0.188546
0.193032
0.19701
0.200446
0.203312
0.205586
0.207253
0.208306
0.208751
0.208605
0.207899
0.206674
0.204984
0.202893
0.200476
0.197812
0.194989
0.1921
0.189243
0.186522
0.184046
0.181936
0.180316
0.179322
0.179095
0.179778
0.181506
0.184399
0.18854
0.193954
0.200579
0.0426465
0.0752297
0.09365
0.106757
0.117464
0.126799
0.135227
0.142986
0.150212
0.156978
0.163321
0.169254
0.174774
0.179867
0.184511
0.188681
0.192349
0.19549
0.198083
0.200108
0.201557
0.202429
0.202731
0.202483
0.201715
0.200468
0.198791
0.196744
0.194393
0.191809
0.189069
0.186253
0.183444
0.180729
0.178199
0.175949
0.174079
0.172692
0.171893
0.171784
0.172456
0.173985
0.176414
0.179738
0.1839
0.0414812
0.0736022
0.0917821
0.104746
0.115335
0.124544
0.132824
0.140411
0.147436
0.153976
0.16007
0.165736
0.170977
0.175784
0.180142
0.184031
0.18743
0.190318
0.19268
0.194502
0.195779
0.196513
0.196713
0.196401
0.195605
0.194364
0.192724
0.190738
0.188467
0.185973
0.183323
0.180587
0.177837
0.175145
0.172586
0.170238
0.168179
0.166488
0.165244
0.16452
0.164377
0.164862
0.165993
0.167756
0.170115
0.0401959
0.0717193
0.0895932
0.102371
0.112808
0.121869
0.129988
0.137395
0.14422
0.150539
0.156396
0.161813
0.166796
0.171344
0.175445
0.179086
0.18225
0.184924
0.187094
0.188752
0.189896
0.190528
0.190662
0.190317
0.189521
0.188309
0.186725
0.184816
0.182636
0.18024
0.177689
0.175042
0.172361
0.169708
0.167146
0.164738
0.162546
0.160632
0.159055
0.157866
0.15711
0.156813
0.156983
0.157609
0.158641
0.0388202
0.0696267
0.0871329
0.0996797
0.109933
0.118819
0.126761
0.133978
0.140599
0.146701
0.15233
0.157512
0.162256
0.166567
0.170437
0.173858
0.17682
0.179311
0.181322
0.18285
0.183892
0.184455
0.184551
0.184199
0.183426
0.182263
0.18075
0.178931
0.176852
0.174564
0.172119
0.16957
0.166971
0.164374
0.161833
0.1594
0.157125
0.155057
0.15324
0.151713
0.150507
0.149638
0.149108
0.148908
0.148986
0.0373857
0.0673756
0.0844578
0.0967312
0.106765
0.115452
0.123196
0.130212
0.136624
0.14251
0.147917
0.152873
0.157394
0.161486
0.165147
0.168374
0.171158
0.173493
0.175374
0.176798
0.177766
0.178284
0.178366
0.178028
0.177295
0.176198
0.17477
0.173051
0.171083
0.168911
0.166581
0.16414
0.161634
0.15911
0.156614
0.154187
0.151873
0.149711
0.147734
0.145973
0.144449
0.143174
0.142148
0.141359
0.140764
0.0359244
0.0650199
0.0816294
0.0935897
0.103372
0.111833
0.11936
0.12616
0.132355
0.138023
0.143211
0.14795
0.152259
0.156148
0.159617
0.162668
0.165296
0.167498
0.16927
0.170613
0.171527
0.172021
0.172106
0.171799
0.171122
0.170102
0.16877
0.16716
0.165312
0.163263
0.161057
0.158733
0.156334
0.153899
0.151468
0.149078
0.146764
0.144559
0.142489
0.140578
0.138844
0.137293
0.135927
0.134733
0.133679
0.0344665
0.0626147
0.0787114
0.0903234
0.0998234
0.108032
0.115322
0.121893
0.127863
0.133308
0.138279
0.142806
0.146912
0.150608
0.1539
0.156791
0.159279
0.161364
0.163046
0.164323
0.165201
0.165685
0.165788
0.165524
0.164913
0.163979
0.162751
0.161259
0.159536
0.157619
0.155544
0.153348
0.151067
0.148737
0.146392
0.144065
0.141786
0.139581
0.137474
0.135484
0.133625
0.131902
0.130319
0.128863
0.127511
0.0330395
0.0602125
0.0757673
0.0870018
0.0961925
0.104126
0.111161
0.117488
0.123224
0.128442
0.133194
0.137512
0.14142
0.144932
0.148057
0.150799
0.153161
0.155143
0.156745
0.157971
0.158823
0.159309
0.159439
0.159226
0.158689
0.157848
0.15673
0.15536
0.15377
0.151991
0.150055
0.147995
0.145843
0.143633
0.141393
0.139152
0.136937
0.13477
0.132673
0.130662
0.128747
0.126936
0.12523
0.123621
0.122093
0.0316662
0.0578618
0.0728574
0.0836925
0.0925522
0.100191
0.106954
0.113026
0.118518
0.123505
0.128036
0.132146
0.13586
0.139195
0.14216
0.144762
0.147006
0.148893
0.150426
0.151608
0.152443
0.152937
0.1531
0.152944
0.152485
0.151742
0.150736
0.149493
0.148039
0.146402
0.144611
0.142695
0.140684
0.138605
0.136486
0.134352
0.132227
0.130132
0.128083
0.126097
0.124183
0.122348
0.120594
0.118917
0.117305
0.0303649
0.0556048
0.0700364
0.0804589
0.0889719
0.0963018
0.10278
0.108585
0.113827
0.118577
0.122886
0.126789
0.130312
0.133472
0.136282
0.138751
0.140883
0.142682
0.144152
0.145295
0.146117
0.146624
0.146823
0.146726
0.146347
0.145702
0.144812
0.143697
0.142381
0.140889
0.139247
0.137481
0.135618
0.133682
0.131697
0.129688
0.127675
0.125676
0.123708
0.121784
0.119915
0.118107
0.116363
0.11468
0.113053
0.029149
0.053476
0.0673515
0.0773573
0.0855153
0.0925263
0.0987105
0.104242
0.109228
0.113739
0.117824
0.12152
0.124854
0.127843
0.130503
0.132841
0.134866
0.136581
0.137991
0.139099
0.13991
0.14043
0.140666
0.140628
0.140328
0.139782
0.139005
0.138018
0.13684
0.135495
0.134004
0.132392
0.130682
0.128897
0.127058
0.125186
0.123301
0.12142
0.119557
0.117725
0.115934
0.114191
0.112499
0.110859
0.109266
0.0280272
0.0515016
0.0648411
0.0744355
0.0822375
0.0889262
0.0948129
0.100068
0.104795
0.109065
0.112927
0.116417
0.119564
0.122385
0.124896
0.127108
0.129028
0.130662
0.132014
0.133088
0.133888
0.134421
0.134692
0.134711
0.134488
0.134037
0.133371
0.132508
0.131467
0.130266
0.128927
0.12747
0.125917
0.124287
0.1226
0.120876
0.119132
0.117383
0.115643
0.113924
0.112237
0.110587
0.108978
0.107412
0.105889
0.0270047
0.0497003
0.0625342
0.0717312
0.0791841
0.0855537
0.0911442
0.0961227
0.100592
0.104623
0.108263
0.111551
0.114513
0.117169
0.119536
0.121624
0.123441
0.124995
0.126289
0.127328
0.128117
0.12866
0.128963
0.129035
0.128885
0.128524
0.127965
0.127222
0.126313
0.125254
0.124063
0.12276
0.121362
0.119889
0.118359
0.116787
0.115191
0.113584
0.11198
0.110388
0.10882
0.107282
0.105777
0.104309
0.102878
0.0260835
0.0480835
0.0604509
0.0692726
0.0763902
0.0824501
0.0877515
0.0924592
0.096676
0.100471
0.103895
0.106983
0.109764
0.112259
0.114484
0.116451
0.118168
0.119643
0.120879
0.121883
0.122657
0.123208
0.123539
0.123659
0.123576
0.123299
0.122839
0.122211
0.121427
0.120504
0.119457
0.118303
0.117059
0.115741
0.114365
0.112948
0.111502
0.110042
0.108578
0.107123
0.105683
0.104267
0.102879
0.101522
0.100196
0.0252641
0.0466573
0.0586038
0.0670788
0.0738815
0.079647
0.0846711
0.089118
0.0930904
0.0966579
0.0998707
0.102766
0.105373
0.107711
0.109799
0.111647
0.113266
0.114662
0.115841
0.116807
0.117565
0.118119
0.118473
0.118635
0.118612
0.118411
0.118044
0.117521
0.116854
0.116059
0.115148
0.114137
0.11304
0.111872
0.110648
0.109381
0.108085
0.10677
0.10545
0.104132
0.102824
0.101535
0.100269
0.0990271
0.0978129
0.0245457
0.0454242
0.0569997
0.0651616
0.0716749
0.077166
0.0819294
0.0861294
0.0898692
0.0932195
0.0962309
0.0989414
0.10138
0.103568
0.105523
0.107257
0.10878
0.110099
0.111219
0.112147
0.112885
0.113437
0.11381
0.114007
0.114035
0.113903
0.113618
0.113191
0.112633
0.111956
0.111172
0.110294
0.109335
0.108309
0.107229
0.106107
0.104954
0.103781
0.102599
0.101416
0.100239
0.0990759
0.0979304
0.096805
0.0957025
0.0239278
0.0443851
0.0556422
0.0635281
0.0697808
0.0750215
0.0795442
0.0835142
0.0870363
0.090182
0.0930033
0.0955386
0.0978173
0.099862
0.10169
0.103313
0.104743
0.105987
0.107049
0.107936
0.108651
0.109198
0.109582
0.109808
0.10988
0.109807
0.109595
0.109254
0.108793
0.108222
0.107553
0.106797
0.105966
0.105072
0.104125
0.103138
0.10212
0.101081
0.10003
0.0989747
0.0979227
0.0968796
0.0958502
0.0948366
0.0938415
0.0234108
0.0435417
0.0545342
0.062183
0.0682063
0.0732225
0.0775265
0.0812857
0.0846065
0.0875623
0.090206
0.092577
0.0947055
0.0966144
0.0983214
0.0998398
0.10118
0.102349
0.103354
0.104199
0.104888
0.105425
0.105815
0.106061
0.106169
0.106145
0.105996
0.105729
0.105353
0.104876
0.10431
0.103663
0.102947
0.102171
0.101346
0.100481
0.0995863
0.0986698
0.0977397
0.0968031
0.0958664
0.0949349
0.0940135
0.0931039
0.0922088
0.0229969
0.0428985
0.0536809
0.0611318
0.0669573
0.0717755
0.0758836
0.0794517
0.0825885
0.0853694
0.0878485
0.0900667
0.0920546
0.093836
0.0954288
0.0968468
0.0981004
0.0991976
0.100145
0.100946
0.101607
0.10213
0.102519
0.102779
0.102914
0.10293
0.102832
0.102628
0.102324
0.101929
0.101452
0.1009
0.100284
0.0996129
0.0988948
0.0981389
0.0973535
0.0965462
0.0957241
0.0948936
0.0940605
0.0932297
0.0924054
0.0915898
0.0907851
0.0226905
0.0424643
0.0530919
0.0603838
0.0660422
0.0706878
0.0746217
0.0780174
0.0809866
0.0836068
0.0859341
0.0880103
0.089867
0.0915286
0.0930135
0.0943358
0.0955062
0.096533
0.0974225
0.0981797
0.0988087
0.0993133
0.0996971
0.099964
0.100118
0.100164
0.100108
0.099954
0.0997102
0.0993831
0.0989802
0.0985094
0.0979788
0.0973964
0.0967701
0.0961078
0.0954167
0.0947037
0.0939752
0.093237
0.092494
0.0917509
0.0910113
0.0902781
0.0895526
0.0224996
0.0422546
0.0527837
0.0599542
0.065474
0.0699698
0.0737484
0.0769878
0.0798035
0.0822754
0.0844616
0.0864052
0.0881388
0.0896873
0.0910697
0.0923003
0.0933904
0.0943482
0.0951802
0.0958916
0.0964866
0.0969688
0.0973418
0.097609
0.0977743
0.0978417
0.0978159
0.097702
0.0975058
0.0972334
0.0968913
0.0964864
0.0960259
0.0955169
0.0949664
0.0943815
0.0937687
0.0931342
0.0924838
0.0918225
0.0911551
0.0904856
0.0898175
0.0891535
0.088495
0.0224364
0.0422934
0.0527821
0.0598672
0.065273
0.0696373
0.073275
0.0763702
0.0790425
0.0813751
0.0834279
0.0852457
0.0868621
0.0883024
0.0895861
0.0907281
0.0917396
0.0926291
0.0934034
0.0940677
0.0946261
0.0950823
0.0954396
0.0957011
0.0958703
0.0959508
0.0959465
0.0958618
0.0957017
0.0954714
0.0951767
0.0948235
0.0944181
0.0939668
0.0934761
0.0929523
0.0924012
0.0918287
0.09124
0.0906398
0.0900324
0.0894216
0.0888106
0.0882022
0.0875977
0.0225193
0.0426156
0.0531248
0.0601573
0.0654685
0.0697135
0.0732185
0.0761754
0.0787092
0.0809065
0.0828298
0.0845251
0.086027
0.0873615
0.0885484
0.0896029
0.0905364
0.0913576
0.0920733
0.0926887
0.0932081
0.0936348
0.093972
0.0942226
0.0943895
0.0944757
0.0944846
0.0944198
0.0942855
0.094086
0.0938263
0.0935114
0.0931469
0.0927385
0.0922918
0.0918128
0.0913068
0.0907794
0.0902355
0.0896797
0.0891161
0.0885482
0.0879793
0.087412
0.0868479
0.0227764
0.0432714
0.0538642
0.0608721
0.0661003
0.0702294
0.0736014
0.0764184
0.0788117
0.0808721
0.0826644
0.0842362
0.0856228
0.0868509
0.0879404
0.0889067
0.0897613
0.090513
0.0911685
0.0917331
0.0922109
0.092605
0.0929184
0.0931535
0.0933128
0.0933987
0.0934139
0.0933612
0.0932439
0.0930655
0.09283
0.0925418
0.0922054
0.0918258
0.0914084
0.0909583
0.090481
0.0899817
0.0894653
0.0889365
0.0883995
0.0878579
0.0873149
0.0867734
0.0862351
0.02325
0.0443315
0.0550718
0.0620746
0.0672196
0.0712244
0.0744522
0.0771179
0.0793607
0.0812754
0.0829296
0.084372
0.0856387
0.0867564
0.0877454
0.0886208
0.0893941
0.0900741
0.0906673
0.0911787
0.0916124
0.0919712
0.0922576
0.0924736
0.0926212
0.0927022
0.0927184
0.0926718
0.0925647
0.0923998
0.09218
0.0919087
0.0915895
0.0912268
0.0908251
0.0903893
0.0899247
0.0894364
0.0889297
0.0884096
0.0878806
0.0873471
0.0868124
0.0862797
0.0857514
0.0240059
0.045897
0.0568446
0.0638457
0.0688892
0.0727444
0.0758026
0.0782943
0.0803668
0.0821197
0.0836225
0.0849249
0.0860631
0.0870637
0.0879466
0.0887266
0.089415
0.0900201
0.0905483
0.0910042
0.0913914
0.0917124
0.0919694
0.0921638
0.0922969
0.0923698
0.0923835
0.0923391
0.092238
0.0920816
0.0918717
0.0916105
0.0913007
0.0909454
0.0905484
0.090114
0.0896471
0.0891531
0.0886376
0.0881065
0.0875652
0.0870191
0.0864724
0.0859292
0.0853926
0.0251463
0.0481139
0.0593125
0.0662861
0.0711814
0.0748384
0.0776834
0.0799643
0.0818369
0.0834042
0.0847369
0.0858845
0.0868825
0.0877569
0.0885266
0.0892058
0.0898048
0.0903316
0.0907919
0.0911899
0.0915285
0.0918101
0.0920359
0.092207
0.092324
0.0923873
0.092397
0.0923533
0.0922564
0.0921066
0.0919044
0.0916504
0.091346
0.0909928
0.0905933
0.0901506
0.0896691
0.0891538
0.0886111
0.0880476
0.0874706
0.0868872
0.0863038
0.0857261
0.0851587
0.026845
0.0511985
0.0626485
0.0695149
0.074171
0.0775489
0.0801149
0.0821336
0.0837669
0.0851188
0.0862586
0.0872343
0.0880793
0.0888176
0.0894668
0.0900394
0.090545
0.0909902
0.0913801
0.0917181
0.0920068
0.0922475
0.0924412
0.0925884
0.0926889
0.0927425
0.0927485
0.0927062
0.0926148
0.0924732
0.0922805
0.0920357
0.0917382
0.0913877
0.0909846
0.09053
0.0900266
0.0894784
0.0888913
0.0882731
0.0876332
0.0869818
0.0863293
0.0856848
0.0850564
0.029444
0.055485
0.0670762
0.0736579
0.0779169
0.0808937
0.0830915
0.0847842
0.0861328
0.087237
0.0881612
0.0889486
0.089629
0.090223
0.0907457
0.0912076
0.0916166
0.091978
0.0922959
0.0925728
0.0928105
0.0930098
0.0931712
0.0932944
0.093379
0.0934239
0.0934281
0.09339
0.0933078
0.0931794
0.0930025
0.0927745
0.0924924
0.0921535
0.0917552
0.0912955
0.0907734
0.0901898
0.0895483
0.0888557
0.0881227
0.0873639
0.0865962
0.0858371
0.0851028
0.0336507
0.0614957
0.0728588
0.07881
0.082423
0.0848341
0.086558
0.0878575
0.0888788
0.0897083
0.0903999
0.0909886
0.0914978
0.0919437
0.0923376
0.0926875
0.0929991
0.0932764
0.0935219
0.0937375
0.093924
0.0940819
0.0942109
0.0943107
0.0943802
0.0944182
0.0944231
0.0943932
0.0943259
0.0942185
0.0940676
0.0938692
0.0936187
0.0933105
0.0929387
0.0924966
0.0919779
0.0913769
0.09069
0.0899175
0.0890664
0.0881522
0.0872007
0.0862463
0.0853304
0.0408579
0.0700066
0.0802169
0.0849362
0.0875635
0.0892265
0.0903808
0.0912384
0.091909
0.092454
0.0929103
0.0933011
0.0936418
0.0939428
0.0942111
0.0944519
0.0946685
0.0948633
0.0950377
0.0951926
0.0953284
0.0954449
0.0955417
0.0956181
0.095673
0.0957053
0.0957134
0.0956952
0.0956486
0.0955707
0.0954579
0.0953057
0.0951087
0.0948598
0.0945504
0.0941699
0.0937053
0.0931416
0.0924618
0.0916491
0.0906899
0.0895812
0.0883422
0.0870317
0.0857909
0.0543974
0.0820281
0.0890101
0.091644
0.092965
0.0937706
0.09433
0.0947526
0.0950905
0.0953715
0.0956118
0.0958219
0.0960086
0.0961764
0.0963287
0.0964676
0.0965946
0.0967107
0.0968163
0.0969118
0.096997
0.0970716
0.0971352
0.0971871
0.0972265
0.0972524
0.0972637
0.0972589
0.0972363
0.0971938
0.0971288
0.0970377
0.096916
0.0967578
0.096555
0.0962965
0.0959671
0.0955456
0.0950018
0.094293
0.093358
0.0921129
0.0904616
0.0883762
0.0865184
0.0869945
0.0973198
0.0976504
0.0978078
0.097915
0.098013
0.0981065
0.0981937
0.0982739
0.0983473
0.0984147
0.0984769
0.0985347
0.0985886
0.0986391
0.0986867
0.0987314
0.0987734
0.0988126
0.0988492
0.0988828
0.0989133
0.0989405
0.098964
0.0989835
0.0989986
0.0990089
0.0990137
0.0990126
0.0990046
0.098989
0.0989645
0.0989294
0.0988817
0.0988183
0.0987347
0.0986237
0.0984738
0.0982638
0.0979525
0.0974486
0.0965339
0.0946637
0.0902605
0.087319
)
;

boundaryField
{
    leftWall
    {
        type            kqRWallFunction;
        value           nonuniform List<scalar> 
42
(
0.0445482
0.0452383
0.0456841
0.045894
0.0458747
0.0456323
0.0451751
0.0445144
0.0436652
0.0426465
0.0414812
0.0401959
0.0388202
0.0373857
0.0359244
0.0344665
0.0330395
0.0316662
0.0303649
0.029149
0.0280272
0.0270047
0.0260835
0.0252641
0.0245457
0.0239278
0.0234108
0.0229969
0.0226905
0.0224996
0.0224364
0.0225193
0.0227764
0.02325
0.0240059
0.0251463
0.026845
0.029444
0.0336507
0.0408579
0.0543974
0.0869945
)
;
    }
    rightWall
    {
        type            kqRWallFunction;
        value           nonuniform 0();
    }
    lowerWall
    {
        type            kqRWallFunction;
        value           nonuniform 0();
    }
    atmosphere
    {
        type            inletOutlet;
        inletValue      uniform 0.1;
        value           nonuniform List<scalar> 
45
(
0.1
0.1
0.1
0.1
0.1
0.1
0.1
0.1
0.1
0.1
0.1
0.1
0.1
0.1
0.1
0.1
0.1
0.1
0.1
0.1
0.1
0.1
0.1
0.1
0.1
0.1
0.1
0.1
0.1
0.1
0.1
0.1
0.1
0.1
0.1
0.1
0.1
0.1
0.1
0.1
0.1
0.1
0.1
0.0902605
0.087319
)
;
    }
    defaultFaces
    {
        type            empty;
    }
    procBoundary2to0
    {
        type            processor;
        value           nonuniform List<scalar> 
46
(
0.260753
0.267136
0.272734
0.277437
0.28114
0.283761
0.285255
0.285623
0.284931
0.283318
0.280999
0.278269
0.275486
0.273065
0.271455
0.271123
0.272539
0.276143
0.282321
0.291378
0.303635
0.31993
0.342977
0.379627
0.441663
0.043683
0.0732284
0.0913078
0.104494
0.115683
0.125957
0.1358
0.145447
0.155007
0.164521
0.17399
0.183389
0.19268
0.201818
0.210752
0.219423
0.227765
0.235714
0.243199
0.25014
0.25014
)
;
    }
    procBoundary2to3
    {
        type            processor;
        value           nonuniform List<scalar> 
43
(
0.49867
0.451596
0.408259
0.375027
0.348094
0.320689
0.290511
0.259932
0.232007
0.208282
0.188812
0.172949
0.159977
0.149263
0.140304
0.132721
0.126231
0.120624
0.115743
0.11147
0.107715
0.104404
0.101482
0.0989023
0.0966271
0.0946243
0.0928666
0.09133
0.0899931
0.0888367
0.0878437
0.0869987
0.0862885
0.0857017
0.0852294
0.0848651
0.0846054
0.0844507
0.084406
0.0844819
0.0846889
0.0850066
0.0852912
)
;
    }
}


// ************************************************************************* //
