/*--------------------------------*- C++ -*----------------------------------*\
| =========                 |                                                 |
| \\      /  F ield         | OpenFOAM: The Open Source CFD Toolbox           |
|  \\    /   O peration     | Version:  5.0                                   |
|   \\  /    A nd           | Web:      www.OpenFOAM.org                      |
|    \\/     M anipulation  |                                                 |
\*---------------------------------------------------------------------------*/
FoamFile
{
    version     2.0;
    format      ascii;
    class       volScalarField;
    location    "0.3";
    object      nut;
}
// * * * * * * * * * * * * * * * * * * * * * * * * * * * * * * * * * * * * * //

dimensions      [0 2 -1 0 0 0 0];

internalField   nonuniform List<scalar> 
1915
(
0.012919
0.0129394
0.0129404
0.0129237
0.0128901
0.0128397
0.0127718
0.0126846
0.0125749
0.012438
0.0122672
0.0120532
0.0117846
0.0114488
0.0110336
0.0105311
0.00994231
0.00928109
0.00857496
0.00786115
0.00717834
0.00655957
0.00603361
0.00563851
0.00543454
0.000151343
0.0012323
0.00284224
0.00443338
0.00586237
0.00710075
0.00815597
0.0090474
0.0097971
0.010426
0.0109525
0.0113921
0.0117578
0.01206
0.0123076
0.0125079
0.012667
0.0127901
0.0128817
0.0129459
0.012986
0.0130045
0.0130038
0.0129855
0.0129506
0.0128993
0.0128312
0.0127446
0.0126369
0.0125037
0.0123387
0.0121335
0.0118775
0.0115588
0.0111657
0.0106899
0.0101307
0.00949909
0.00881938
0.00812658
0.00745881
0.00684838
0.00631869
0.00589286
0.00561133
0.000152413
0.00126373
0.00291152
0.00452777
0.00596983
0.00721304
0.00826803
0.00915631
0.00990129
0.0105248
0.0110457
0.0114799
0.0118406
0.0121384
0.0123823
0.0125795
0.0127362
0.0128574
0.0129477
0.0130108
0.01305
0.013068
0.0130669
0.0130485
0.0130139
0.0129636
0.0128972
0.0128136
0.0127104
0.0125838
0.0124282
0.012236
0.0119978
0.0117027
0.0113394
0.0108994
0.0103797
0.00978732
0.009142
0.00847488
0.00782284
0.00721927
0.00668707
0.00624038
0.00589738
0.000153073
0.00129095
0.00297134
0.00460854
0.00606089
0.00730749
0.00836189
0.00924747
0.00998869
0.010608
0.0111247
0.0115549
0.0119119
0.0122066
0.0124478
0.012643
0.0127981
0.0129184
0.0130082
0.0130712
0.0131106
0.013129
0.0131288
0.0131117
0.0130788
0.013031
0.0129681
0.0128892
0.0127925
0.0126747
0.0125311
0.0123551
0.0121386
0.0118717
0.0115441
0.0111469
0.0106751
0.0101315
0.00952985
0.00889573
0.00826298
0.00766592
0.00713054
0.00667027
0.00629083
0.000153344
0.00131443
0.00302224
0.00467598
0.00613569
0.00738415
0.00843755
0.00932077
0.0100591
0.0106754
0.0111891
0.0116165
0.0119711
0.0122637
0.0125033
0.0126974
0.0128519
0.0129721
0.0130621
0.0131258
0.0131663
0.0131862
0.0131879
0.013173
0.0131431
0.013099
0.0130408
0.012968
0.0128791
0.0127717
0.0126417
0.0124837
0.012291
0.0120551
0.0117667
0.0114171
0.0109997
0.0105134
0.009966
0.00937585
0.00877131
0.00818533
0.00764715
0.00717506
0.00677465
0.000153239
0.00133392
0.00306381
0.00472959
0.0061937
0.00744245
0.00849435
0.0093755
0.0101117
0.0107259
0.0112378
0.0116637
0.0120169
0.0123085
0.0125475
0.0127413
0.0128959
0.0130167
0.0131078
0.0131729
0.0132152
0.0132373
0.0132416
0.01323
0.0132038
0.0131642
0.0131115
0.0130455
0.0129652
0.0128687
0.012753
0.0126137
0.0124454
0.0122412
0.0119931
0.0116931
0.0113339
0.0109115
0.0104283
0.0098952
0.00933307
0.00877004
0.0082355
0.0077527
0.00733345
0.000152769
0.00134913
0.00309541
0.00476859
0.00623406
0.00748149
0.00853135
0.0094106
0.0101453
0.0107584
0.0112695
0.0116948
0.0120478
0.0123393
0.0125785
0.0127727
0.0129283
0.0130503
0.013143
0.0132101
0.0132548
0.0132798
0.0132873
0.0132793
0.0132574
0.0132227
0.0131759
0.013117
0.0130454
0.0129599
0.0128581
0.012737
0.0125923
0.0124186
0.0122096
0.0119583
0.0116576
0.0113021
0.01089
0.010426
0.00992253
0.00940037
0.00888476
0.00839994
0.00796324
0.000151943
0.0013598
0.00311645
0.00479219
0.0062559
0.00750033
0.00854749
0.00942489
0.0101586
0.0107714
0.0112826
0.0117084
0.0120619
0.0123542
0.0125944
0.0127899
0.0129469
0.0130707
0.0131655
0.0132351
0.0132825
0.0133107
0.0133217
0.0133177
0.0133003
0.0132706
0.0132296
0.0131776
0.0131144
0.0130391
0.0129505
0.0128461
0.012723
0.0125772
0.0124041
0.0121979
0.0119525
0.0116624
0.0113235
0.0109357
0.0105044
0.0100422
0.00956706
0.0090995
0.00865785
0.000150777
0.00136571
0.00312643
0.00479973
0.00625846
0.00749808
0.00854179
0.00941726
0.0101503
0.0107635
0.0112756
0.0117026
0.0120576
0.0123514
0.0125933
0.0127906
0.0129497
0.0130757
0.013173
0.0132453
0.0132958
0.0133273
0.013342
0.013342
0.013329
0.0133042
0.0132687
0.013223
0.0131674
0.0131014
0.0130243
0.0129346
0.0128303
0.0127089
0.0125668
0.0124002
0.0122041
0.0119736
0.0117041
0.0113929
0.0110405
0.0106523
0.0102384
0.00981273
0.00939002
0.000149286
0.00136674
0.00312499
0.00479074
0.00624116
0.00747411
0.00851348
0.00938682
0.0101195
0.0107335
0.0112471
0.0116761
0.0120332
0.0123293
0.0125735
0.0127732
0.0129347
0.0130633
0.0131633
0.0132386
0.0132923
0.0133272
0.0133455
0.0133493
0.0133404
0.0133202
0.0132897
0.0132497
0.0132006
0.0131425
0.0130752
0.0129977
0.0129091
0.0128076
0.0126913
0.0125573
0.0124024
0.0122227
0.0120141
0.0117731
0.0114977
0.0111883
0.0108487
0.0104859
0.0101088
0.000147495
0.00136283
0.00311197
0.00476497
0.00620374
0.00742805
0.00846209
0.00933296
0.0100653
0.0106804
0.0111962
0.0116277
0.0119876
0.0122865
0.0125335
0.012736
0.0129004
0.0130318
0.0131348
0.0132132
0.0132701
0.0133082
0.01333
0.0133375
0.0133323
0.0133161
0.0132899
0.0132547
0.0132111
0.0131595
0.0130999
0.0130322
0.0129558
0.0128701
0.0127737
0.0126652
0.0125426
0.0124033
0.0122441
0.0120621
0.0118542
0.0116187
0.0113552
0.0110656
0.0107527
0.000145432
0.00135403
0.0030874
0.00472251
0.00614624
0.0073599
0.00838751
0.00925542
0.0099874
0.0106038
0.011122
0.0115565
0.0119197
0.012222
0.0124723
0.012678
0.0128455
0.01298
0.0130861
0.0131676
0.0132276
0.0132689
0.013294
0.0133047
0.0133029
0.0132901
0.0132675
0.0132362
0.013197
0.0131504
0.0130968
0.0130363
0.0129691
0.0128949
0.0128132
0.0127234
0.0126244
0.0125149
0.0123928
0.012256
0.0121018
0.0119279
0.0117321
0.0115134
0.0112703
0.000143132
0.0013405
0.00305157
0.00466374
0.00606912
0.00727006
0.00829006
0.00915441
0.00988578
0.0105036
0.0110244
0.0114623
0.0118291
0.0121352
0.0123891
0.0125984
0.0127693
0.0129071
0.0130164
0.013101
0.0131641
0.0132084
0.0132364
0.0132501
0.0132513
0.0132414
0.0132218
0.0131935
0.0131575
0.0131146
0.0130652
0.0130099
0.012949
0.0128826
0.0128109
0.0127337
0.0126508
0.0125616
0.012465
0.0123598
0.0122441
0.0121159
0.0119729
0.0118126
0.0116341
0.000140638
0.00132249
0.00300503
0.00458942
0.00597322
0.00715939
0.0081705
0.00903055
0.00976095
0.0103801
0.0109037
0.0113451
0.0117158
0.0120259
0.0122838
0.0124969
0.0126714
0.0128127
0.0129253
0.013013
0.0130791
0.0131263
0.0131571
0.0131734
0.0131771
0.0131697
0.0131524
0.0131265
0.0130929
0.0130525
0.013006
0.0129539
0.0128969
0.0128354
0.0127698
0.0127004
0.0126272
0.0125504
0.0124695
0.0123841
0.012293
0.0121949
0.0120879
0.01197
0.0118405
0.000137996
0.0013004
0.0029486
0.00450071
0.00585983
0.00702918
0.00803007
0.00888495
0.00961387
0.0102341
0.0107603
0.0112054
0.0115803
0.0118946
0.0121567
0.0123739
0.0125522
0.0126971
0.012813
0.0129038
0.0129729
0.0130229
0.0130563
0.013075
0.0130809
0.0130756
0.0130602
0.013036
0.0130041
0.0129653
0.0129205
0.0128703
0.0128154
0.0127564
0.012694
0.0126285
0.0125603
0.0124899
0.0124173
0.0123424
0.0122648
0.0121836
0.0120977
0.012006
0.0119076
0.000135255
0.00127474
0.00288338
0.00439913
0.00573071
0.00688122
0.00787047
0.00871922
0.00944602
0.0100669
0.0105956
0.0110442
0.0114233
0.0117421
0.0120086
0.0122299
0.0124122
0.0125608
0.0126802
0.0127742
0.0128462
0.0128989
0.0129347
0.0129557
0.0129637
0.0129601
0.0129463
0.0129235
0.0128927
0.0128549
0.0128109
0.0127616
0.0127075
0.0126495
0.0125881
0.0125239
0.0124575
0.0123894
0.0123198
0.012249
0.0121769
0.0121031
0.012027
0.0119482
0.0118657
0.000132467
0.00124612
0.00281078
0.0042866
0.00558801
0.00671775
0.00769391
0.00853543
0.0092593
0.00988026
0.0104111
0.0108632
0.0112464
0.0115696
0.0118405
0.0120662
0.0122526
0.012405
0.0125279
0.0126251
0.0127001
0.0127554
0.0127937
0.0128169
0.0128267
0.0128248
0.0128123
0.0127907
0.0127608
0.0127236
0.01268
0.0126308
0.0125768
0.0125187
0.0124571
0.0123926
0.0123259
0.0122575
0.0121878
0.0121171
0.0120456
0.0119731
0.0118995
0.0118245
0.0117475
0.00012968
0.00121529
0.00273244
0.00416541
0.00543434
0.00654146
0.00750303
0.00833614
0.00905615
0.0096765
0.010209
0.0106641
0.0110513
0.0113788
0.0116542
0.0118843
0.0120749
0.0122312
0.0123577
0.0124582
0.0125361
0.0125942
0.0126349
0.0126602
0.0126719
0.0126715
0.0126604
0.0126398
0.0126107
0.012574
0.0125306
0.0124814
0.012427
0.0123683
0.0123058
0.0122403
0.0121723
0.0121023
0.0120308
0.0119582
0.0118848
0.0118105
0.0117354
0.0116594
0.0115822
0.00012694
0.00118303
0.00265022
0.00403813
0.00527265
0.00635544
0.00730092
0.00812432
0.00883939
0.00945828
0.00999175
0.0104495
0.0108402
0.0111719
0.0114517
0.0116861
0.0118809
0.0120412
0.0121713
0.0122752
0.0123561
0.012417
0.0124601
0.0124876
0.0125012
0.0125025
0.0124928
0.0124733
0.012445
0.0124088
0.0123657
0.0123164
0.0122618
0.0122024
0.012139
0.0120722
0.0120026
0.0119308
0.0118571
0.011782
0.0117058
0.0116287
0.0115507
0.0114719
0.0113921
0.000124287
0.0011502
0.0025661
0.00390754
0.00510616
0.00616312
0.00709104
0.00790337
0.00861231
0.00922872
0.00976234
0.010222
0.0106159
0.0109514
0.0112354
0.011474
0.0116729
0.0118371
0.011971
0.0120782
0.0121623
0.0122259
0.0122716
0.0123014
0.0123171
0.0123201
0.0123119
0.0122936
0.0122663
0.0122309
0.0121883
0.0121392
0.0120845
0.0120248
0.0119608
0.011893
0.0118222
0.0117488
0.0116733
0.011596
0.0115175
0.0114378
0.0113571
0.0112756
0.0111931
0.000121755
0.00111762
0.00248209
0.00377652
0.00493828
0.00596814
0.00687714
0.00767703
0.00837855
0.00899133
0.00952411
0.00998494
0.0103813
0.0107201
0.0110079
0.0112506
0.0114535
0.0116215
0.011759
0.0118697
0.0119569
0.0120234
0.0120717
0.0121039
0.0121217
0.0121267
0.0121202
0.0121034
0.0120774
0.0120431
0.0120013
0.0119528
0.0118985
0.0118389
0.0117748
0.0117068
0.0116354
0.0115612
0.0114846
0.0114062
0.0113262
0.0112449
0.0111627
0.0110796
0.0109956
0.000119371
0.00108608
0.00240013
0.00364791
0.00477243
0.0057743
0.00666317
0.00744929
0.00814206
0.00874997
0.00928079
0.0097418
0.0101398
0.0104814
0.0107725
0.0110187
0.0112254
0.0113971
0.0115381
0.0116522
0.0117425
0.011812
0.011863
0.0118976
0.0119177
0.0119248
0.0119203
0.0119053
0.0118808
0.0118479
0.0118074
0.0117601
0.0117067
0.011648
0.0115845
0.0115169
0.0114458
0.0113718
0.0112953
0.0112167
0.0111366
0.0110552
0.0109728
0.0108895
0.0108056
0.000117158
0.00105626
0.00232196
0.00352433
0.00461189
0.00558531
0.00645311
0.00722428
0.007907
0.00850873
0.00903639
0.00949649
0.00989526
0.0102387
0.0105324
0.0107818
0.0109917
0.0111669
0.0113112
0.0114285
0.0115219
0.0115942
0.011648
0.0116852
0.0117077
0.0117171
0.0117147
0.0117018
0.0116793
0.0116483
0.0116095
0.0115639
0.0115121
0.0114548
0.0113927
0.0113265
0.0112567
0.0111838
0.0111084
0.0110311
0.0109521
0.0108719
0.0107908
0.010709
0.0106267
0.00011513
0.00102872
0.00224903
0.0034081
0.00445968
0.00540471
0.00625088
0.00700612
0.00767761
0.00827191
0.00879514
0.00925313
0.00965156
0.00999591
0.0102915
0.0105433
0.010756
0.0109341
0.0110814
0.0112017
0.011298
0.0113731
0.0114296
0.0114694
0.0114945
0.0115063
0.0115063
0.0114957
0.0114755
0.0114467
0.0114102
0.0113667
0.0113171
0.011262
0.0112021
0.0111381
0.0110704
0.0109998
0.0109267
0.0108516
0.010775
0.0106973
0.0106188
0.0105398
0.0104605
0.000113298
0.00100386
0.00218249
0.0033011
0.00431836
0.00523566
0.0060601
0.00679879
0.0074581
0.00804381
0.00856137
0.00901604
0.00941295
0.00975716
0.0100536
0.010307
0.0105218
0.0107022
0.0108521
0.010975
0.011074
0.0111518
0.0112108
0.0112532
0.0112808
0.0112952
0.0112978
0.0112897
0.0112721
0.0112459
0.0112121
0.0111714
0.0111245
0.0110722
0.0110152
0.0109541
0.0108895
0.010822
0.0107521
0.0106803
0.0106071
0.0105329
0.0104581
0.0103829
0.0103077
0.000111673
0.000981965
0.0021231
0.00320474
0.00419
0.00508085
0.005884
0.00660594
0.00725242
0.00782861
0.00833939
0.00878953
0.00918372
0.00952664
0.00982288
0.0100769
0.0102929
0.010475
0.0106269
0.0107519
0.0108531
0.0109333
0.0109948
0.0110397
0.0110698
0.0110868
0.011092
0.0110867
0.011072
0.0110487
0.0110179
0.0109803
0.0109368
0.0108879
0.0108344
0.0107769
0.010716
0.0106523
0.0105863
0.0105186
0.0104496
0.0103797
0.0103094
0.0102388
0.0101683
0.000110261
0.000963185
0.00207134
0.00311996
0.00407613
0.00494241
0.00572528
0.00643078
0.00706418
0.0076302
0.00813328
0.0085778
0.0089681
0.00930854
0.00960344
0.00985702
0.0100733
0.0102563
0.0104093
0.0105359
0.0106389
0.0107211
0.0107847
0.0108319
0.0108645
0.0108841
0.010892
0.0108896
0.0108778
0.0108578
0.0108303
0.0107963
0.0107563
0.0107113
0.0106617
0.0106083
0.0105517
0.0104924
0.0104309
0.0103678
0.0103036
0.0102386
0.0101732
0.0101076
0.0100422
0.000109073
0.000947585
0.00202742
0.0030473
0.00397777
0.00482193
0.00558609
0.00627597
0.00689649
0.00745203
0.00794674
0.00838471
0.00877003
0.00910684
0.00939923
0.00965125
0.00986679
0.0100496
0.0102031
0.0103305
0.0104347
0.0105184
0.0105838
0.010633
0.0106679
0.0106899
0.0107006
0.0107011
0.0106925
0.0106758
0.0106518
0.0106215
0.0105855
0.0105445
0.0104993
0.0104503
0.0103983
0.0103437
0.0102871
0.010229
0.0101697
0.0101098
0.0100495
0.00998923
0.00992908
0.00010812
0.000935176
0.00199134
0.00298697
0.00389553
0.00472051
0.00546806
0.00614365
0.00675193
0.00729705
0.00778299
0.00821367
0.00859304
0.0089251
0.00921381
0.00946309
0.00967675
0.00985837
0.0100113
0.0101388
0.0102435
0.0103281
0.0103949
0.0104458
0.0104826
0.010507
0.0105203
0.0105237
0.0105182
0.0105049
0.0104846
0.0104582
0.0104263
0.0103896
0.0103488
0.0103044
0.0102572
0.0102074
0.0101558
0.0101027
0.0100485
0.0099937
0.00993857
0.00988339
0.00982838
0.000107418
0.000925936
0.00196301
0.00293901
0.00382975
0.00463892
0.00537245
0.00603553
0.0066326
0.0071677
0.00764472
0.00806754
0.00844009
0.00876633
0.00905019
0.00929555
0.00950613
0.00968549
0.00983693
0.0099635
0.010068
0.0101529
0.0102204
0.0102726
0.0103111
0.0103376
0.0103533
0.0103594
0.010357
0.0103471
0.0103305
0.0103079
0.0102801
0.0102478
0.0102114
0.0101717
0.0101292
0.0100843
0.0100375
0.00998936
0.00994015
0.00989027
0.00984004
0.00978975
0.00973957
0.000106991
0.000919847
0.00194231
0.00290338
0.00378069
0.00457783
0.00530033
0.00595306
0.00654028
0.00706599
0.00753412
0.00794862
0.00831352
0.00863288
0.0089107
0.00915087
0.00935716
0.00953307
0.00968188
0.00980662
0.00990999
0.00999444
0.0100622
0.0101151
0.0101549
0.0101831
0.0102009
0.0102096
0.0102102
0.0102036
0.0101905
0.0101717
0.010148
0.0101199
0.0100879
0.0100527
0.0100148
0.00997457
0.00993251
0.00988902
0.00984448
0.00979922
0.00975356
0.00970776
0.00966199
0.000106871
0.000916919
0.00192918
0.00288019
0.00374879
0.00453806
0.00525289
0.00589774
0.00647668
0.00699375
0.00745304
0.00785873
0.00821511
0.00852644
0.00879691
0.00903055
0.00923119
0.00940238
0.00954739
0.00966922
0.00977053
0.00985373
0.00992093
0.00997401
0.0100146
0.0100441
0.0100638
0.0100749
0.0100782
0.0100746
0.0100649
0.0100498
0.01003
0.0100059
0.00997822
0.00994736
0.00991381
0.00987801
0.00984037
0.00980126
0.00976104
0.00972002
0.0096785
0.00963672
0.00959489
0.000107103
0.00091723
0.00192375
0.00286991
0.00373499
0.00452101
0.00523189
0.00587151
0.00644378
0.00695287
0.0074032
0.00779939
0.00814613
0.00844806
0.00870968
0.00893526
0.00912875
0.0092938
0.00943371
0.00955146
0.00964969
0.00973073
0.00979664
0.00984921
0.00989002
0.00992042
0.00994161
0.00995462
0.00996036
0.00995962
0.00995314
0.00994153
0.00992539
0.00990523
0.00988156
0.00985482
0.00982543
0.00979379
0.00976028
0.00972524
0.00968898
0.00965181
0.00961399
0.00957578
0.00953736
0.000107752
0.000920976
0.00192657
0.00287375
0.00374124
0.0045292
0.00524015
0.00587721
0.00644422
0.00694565
0.00738648
0.00777201
0.00810755
0.00839832
0.00864925
0.00886493
0.00904955
0.00920686
0.00934022
0.0094526
0.0095466
0.0096245
0.00968826
0.00973961
0.00978002
0.00981077
0.00983296
0.00984757
0.00985542
0.00985724
0.00985368
0.00984532
0.00983268
0.00981622
0.00979639
0.00977358
0.00974816
0.00972049
0.00969088
0.00965964
0.00962706
0.00959341
0.00955893
0.00952387
0.00948843
0.000108911
0.00092857
0.0019389
0.00289422
0.00377116
0.00456699
0.00528223
0.0059192
0.00648179
0.00697511
0.00740509
0.007778
0.00810009
0.00837734
0.00861526
0.00881885
0.00899256
0.00914031
0.0092655
0.00937109
0.00945963
0.00953331
0.009594
0.00964331
0.00968264
0.00971314
0.00973584
0.0097516
0.00976117
0.00976521
0.0097643
0.00975893
0.00974957
0.00973664
0.00972049
0.00970148
0.00967993
0.00965611
0.00963031
0.00960276
0.00957371
0.00954338
0.00951201
0.0094798
0.00944698
0.000110718
0.000940768
0.00196324
0.00293595
0.0038311
0.00464158
0.00536535
0.00600396
0.00656181
0.00704525
0.00746169
0.00781886
0.00812425
0.00838482
0.0086068
0.00879566
0.00895614
0.00909227
0.00920751
0.00930477
0.00938651
0.00945482
0.00951145
0.00955788
0.00959537
0.00962498
0.0096476
0.00966402
0.00967488
0.00968075
0.00968214
0.00967949
0.00967319
0.00966359
0.00965102
0.00963576
0.00961806
0.00959815
0.00957623
0.00955247
0.00952703
0.00950006
0.00947174
0.00944226
0.00941184
0.000113379
0.000958867
0.00200405
0.00300698
0.00393164
0.00476446
0.00550039
0.00614075
0.00669143
0.00716101
0.00755924
0.00789589
0.00818006
0.00841986
0.00862231
0.00879336
0.00893796
0.00906026
0.00916366
0.00925098
0.00932456
0.00938632
0.00943786
0.00948052
0.00951539
0.0095434
0.00956533
0.00958184
0.00959348
0.00960075
0.00960405
0.00960378
0.00960026
0.00959381
0.0095847
0.00957317
0.00955943
0.00954364
0.0095259
0.00950629
0.00948484
0.00946158
0.00943656
0.00940993
0.00938187
0.000117224
0.000985054
0.0020692
0.00312111
0.00409006
0.00495338
0.00570313
0.00634204
0.00687942
0.0073278
0.00770038
0.00800963
0.00826658
0.00848056
0.00865932
0.00880914
0.0089351
0.00904128
0.00913097
0.00920678
0.00927086
0.00932493
0.00937038
0.00940835
0.0094398
0.00946548
0.00948605
0.00950204
0.0095139
0.00952203
0.00952678
0.00952846
0.00952737
0.00952379
0.00951797
0.00951014
0.00950049
0.00948913
0.00947609
0.00946131
0.00944464
0.00942588
0.00940487
0.00938154
0.00935606
0.000122877
0.00102335
0.00217305
0.00330241
0.0043348
0.00523535
0.00599548
0.00662329
0.0071352
0.00755011
0.00788605
0.00815872
0.00838107
0.00856347
0.00871408
0.00883924
0.00894389
0.00903187
0.00910615
0.00916906
0.00922246
0.00926779
0.00930621
0.00933867
0.0093659
0.00938852
0.00940702
0.00942182
0.00943327
0.00944167
0.00944729
0.00945039
0.00945124
0.00945011
0.00944724
0.00944292
0.00943734
0.00943067
0.00942291
0.0094139
0.00940327
0.00939047
0.00937485
0.00935591
0.00933357
0.00013152
0.00108232
0.00234433
0.00359578
0.00471395
0.005651
0.00640593
0.00700108
0.00746595
0.00782878
0.00811332
0.00833827
0.00851791
0.00866292
0.00878125
0.00887881
0.00896001
0.00902817
0.00908578
0.00913475
0.00917655
0.00921232
0.00924294
0.00926911
0.00929139
0.00931022
0.00932594
0.00933885
0.00934919
0.00935717
0.009363
0.00936688
0.00936902
0.0093697
0.00936918
0.00936781
0.0093659
0.00936373
0.00936146
0.00935902
0.00935595
0.00935129
0.00934365
0.00933143
0.00931364
0.000145079
0.00118405
0.00265041
0.00409442
0.00531285
0.00625963
0.00696654
0.00748699
0.00787066
0.00815635
0.00837219
0.00853801
0.00866762
0.00877063
0.00885384
0.00892203
0.00897866
0.00902624
0.0090666
0.00910111
0.0091308
0.00915647
0.0091787
0.00919797
0.00921462
0.00922895
0.00924117
0.00925145
0.00925993
0.00926676
0.00927204
0.00927592
0.00927857
0.00928022
0.00928114
0.0092817
0.00928234
0.00928355
0.00928582
0.00928951
0.00929456
0.00930018
0.00930451
0.00930432
0.00929466
0.000167314
0.00140431
0.00329263
0.00502128
0.00628603
0.0071363
0.00769757
0.0080726
0.00832955
0.00851084
0.00864261
0.00874112
0.0088167
0.00887608
0.00892375
0.00896274
0.00899517
0.00902254
0.00904592
0.0090661
0.00908365
0.00909901
0.00911251
0.00912439
0.00913483
0.00914397
0.00915194
0.00915879
0.00916461
0.00916944
0.00917335
0.0091764
0.00917868
0.00918035
0.00918161
0.00918276
0.00918422
0.00918656
0.00919056
0.00919708
0.00920701
0.009221
0.00924005
0.00926491
0.00927246
0.000210381
0.00221681
0.00516616
0.00697936
0.00786976
0.00831609
0.00855798
0.00870041
0.00879058
0.00885119
0.00889395
0.00892537
0.00894926
0.00896797
0.00898299
0.00899534
0.00900568
0.00901448
0.00902208
0.00902872
0.00903457
0.00903976
0.00904439
0.00904853
0.00905223
0.00905552
0.00905844
0.009061
0.00906322
0.00906511
0.00906668
0.00906795
0.00906895
0.00906971
0.0090703
0.00907085
0.00907154
0.00907267
0.00907471
0.00907834
0.00908443
0.00909452
0.00911653
0.00920218
0.00924398
)
;

boundaryField
{
    leftWall
    {
        type            nutkWallFunction;
        Cmu             0.09;
        kappa           0.41;
        E               9.8;
        value           nonuniform List<scalar> 
42
(
1.25875e-05
1.27603e-05
1.28711e-05
1.2923e-05
1.29183e-05
1.28583e-05
1.27445e-05
1.2579e-05
1.23643e-05
1.21034e-05
1.18007e-05
1.1461e-05
1.10906e-05
1.06962e-05
1.02855e-05
9.8661e-06
9.44561e-06
9.03106e-06
8.62863e-06
8.24357e-06
7.88009e-06
7.54142e-06
7.23e-06
6.94762e-06
6.6957e-06
6.47563e-06
6.28898e-06
6.13782e-06
6.02493e-06
5.95414e-06
5.93062e-06
5.96148e-06
6.05666e-06
6.23045e-06
6.50361e-06
6.90661e-06
7.4879e-06
8.33784e-06
9.62696e-06
1.16368e-05
1.49236e-05
2.12745e-05
)
;
    }
    rightWall
    {
        type            nutkWallFunction;
        Cmu             0.09;
        kappa           0.41;
        E               9.8;
        value           nonuniform 0();
    }
    lowerWall
    {
        type            nutkWallFunction;
        Cmu             0.09;
        kappa           0.41;
        E               9.8;
        value           nonuniform 0();
    }
    atmosphere
    {
        type            calculated;
        value           nonuniform List<scalar> 
45
(
0.009
0.009
0.009
0.009
0.009
0.009
0.009
0.009
0.009
0.009
0.009
0.009
0.009
0.009
0.009
0.009
0.009
0.009
0.009
0.009
0.009
0.009
0.009
0.009
0.009
0.009
0.009
0.009
0.009
0.009
0.009
0.009
0.009
0.009
0.009
0.009
0.009
0.009
0.009
0.009
0.009
0.009
0.009
0.00920218
0.00924398
)
;
    }
    defaultFaces
    {
        type            empty;
    }
    procBoundary2to0
    {
        type            processor;
        value           nonuniform List<scalar> 
46
(
0.0128491
0.0128726
0.0128767
0.012863
0.0128324
0.0127849
0.0127195
0.0126341
0.0125254
0.0123883
0.0122157
0.011998
0.0117233
0.0113782
0.0109502
0.0104317
0.00982459
0.00914416
0.00841961
0.00768914
0.00699227
0.00636504
0.0058452
0.00548626
0.00535666
0.000149964
0.00118933
0.00275905
0.00432295
0.00573696
0.00696941
0.00802466
0.00891982
0.00967534
0.0103111
0.0108447
0.0112913
0.0116633
0.0119713
0.0122239
0.0124283
0.0125908
0.0127168
0.0128109
0.0128771
0.0128771
)
;
    }
    procBoundary2to3
    {
        type            processor;
        value           nonuniform List<scalar> 
43
(
0.00547842
0.00553507
0.00569632
0.00600323
0.00644445
0.00697811
0.00758183
0.00825396
0.00898219
0.00972442
0.0104195
0.0110062
0.011438
0.0116985
0.0118014
0.0117787
0.0116678
0.0115031
0.0113109
0.0111096
0.0109108
0.0107212
0.0105442
0.0103812
0.0102326
0.0100981
0.00997724
0.00986935
0.00977375
0.00968972
0.00961647
0.00955317
0.00949894
0.00945282
0.00941377
0.00938074
0.00935271
0.0093288
0.00930833
0.00929089
0.00927588
0.00926181
0.00924808
)
;
    }
}


// ************************************************************************* //
