/*--------------------------------*- C++ -*----------------------------------*\
| =========                 |                                                 |
| \\      /  F ield         | OpenFOAM: The Open Source CFD Toolbox           |
|  \\    /   O peration     | Version:  5.0                                   |
|   \\  /    A nd           | Web:      www.OpenFOAM.org                      |
|    \\/     M anipulation  |                                                 |
\*---------------------------------------------------------------------------*/
FoamFile
{
    version     2.0;
    format      ascii;
    class       volScalarField;
    location    "0.3";
    object      p;
}
// * * * * * * * * * * * * * * * * * * * * * * * * * * * * * * * * * * * * * //

dimensions      [1 -1 -2 0 0 0 0];

internalField   nonuniform List<scalar> 
1915
(
-4.12227
-4.17264
-4.2238
-4.2754
-4.32736
-4.37989
-4.4333
-4.48785
-4.54365
-4.60071
-4.6591
-4.71914
-4.78144
-4.84672
-4.91571
-4.98907
-5.0676
-5.15243
-5.24536
-5.34903
-5.46674
-5.60221
-5.75875
-5.93613
-6.12488
-3.61761
-3.62366
-3.63038
-3.63962
-3.65124
-3.66543
-3.68237
-3.70214
-3.72472
-3.74995
-3.7776
-3.80739
-3.83906
-3.87243
-3.90744
-3.94415
-3.98272
-4.0233
-4.06599
-4.11066
-4.15693
-4.20429
-4.25223
-4.30045
-4.3489
-4.39776
-4.44729
-4.49767
-4.54897
-4.60118
-4.65448
-4.70928
-4.76614
-4.82565
-4.88832
-4.95462
-5.02522
-5.10102
-5.18337
-5.27423
-5.37625
-5.4927
-5.62702
-5.781
-5.95172
-3.66991
-3.67584
-3.68391
-3.69416
-3.70639
-3.72083
-3.73768
-3.75703
-3.77887
-3.8031
-3.82952
-3.85787
-3.88791
-3.9195
-3.95259
-3.98726
-4.02365
-4.06191
-4.10208
-4.14402
-4.18735
-4.23159
-4.27628
-4.32117
-4.36621
-4.41155
-4.45736
-4.5037
-4.55059
-4.59806
-4.64635
-4.69589
-4.74718
-4.80062
-4.85649
-4.91516
-4.97713
-5.04306
-5.11381
-5.19067
-5.27542
-5.37041
-5.47852
-5.60208
-5.7422
-3.71935
-3.72579
-3.73498
-3.74615
-3.75892
-3.77353
-3.79021
-3.80907
-3.83012
-3.85328
-3.87838
-3.90521
-3.93356
-3.96332
-3.99445
-4.02702
-4.06119
-4.09705
-4.13463
-4.17377
-4.21412
-4.25522
-4.29668
-4.33826
-4.37993
-4.42179
-4.46392
-4.50632
-4.54894
-4.59181
-4.63519
-4.67948
-4.72508
-4.77223
-4.82108
-4.87185
-4.92483
-4.98034
-5.03881
-5.1009
-5.16746
-5.23964
-5.31905
-5.40708
-5.50458
-3.76646
-3.77354
-3.78372
-3.79569
-3.8089
-3.82361
-3.84006
-3.85839
-3.87863
-3.9007
-3.92448
-3.94978
-3.97643
-4.00433
-4.03345
-4.06388
-4.09574
-4.12913
-4.16405
-4.20035
-4.23768
-4.27566
-4.3139
-4.35221
-4.39054
-4.42894
-4.46745
-4.506
-4.5445
-4.58295
-4.62156
-4.66066
-4.70053
-4.74132
-4.78305
-4.8258
-4.86965
-4.9146
-4.96065
-5.00788
-5.05637
-5.10614
-5.15732
-5.20974
-5.26235
-3.81163
-3.81931
-3.83034
-3.84298
-3.85652
-3.87124
-3.8874
-3.90516
-3.92455
-3.94555
-3.96802
-3.99181
-4.01677
-4.04281
-4.06992
-4.09816
-4.12766
-4.15852
-4.19074
-4.22416
-4.2585
-4.29337
-4.32845
-4.36353
-4.39855
-4.43354
-4.46849
-4.5033
-4.53784
-4.57205
-4.60605
-4.64008
-4.67433
-4.70883
-4.74351
-4.77829
-4.81308
-4.84764
-4.88165
-4.9147
-4.94622
-4.97543
-5.00135
-5.02231
-5.03568
-3.85522
-3.8634
-3.87513
-3.8883
-3.90206
-3.91669
-3.93249
-3.94962
-3.96814
-3.98804
-4.00922
-4.03152
-4.05482
-4.07903
-4.10414
-4.13021
-4.15736
-4.18568
-4.21518
-4.24575
-4.27712
-4.30894
-4.3409
-4.3728
-4.40456
-4.43619
-4.46764
-4.49881
-4.52952
-4.55965
-4.58922
-4.61837
-4.6472
-4.67564
-4.70352
-4.73063
-4.75672
-4.7814
-4.80413
-4.8242
-4.84058
-4.85194
-4.8567
-4.85242
-4.83559
-3.89763
-3.9062
-3.91846
-3.932
-3.94585
-3.96029
-3.97564
-3.99209
-4.00972
-4.02851
-4.0484
-4.06926
-4.09094
-4.11338
-4.13653
-4.16047
-4.1853
-4.21112
-4.23795
-4.26571
-4.29416
-4.32299
-4.3519
-4.38068
-4.40923
-4.43753
-4.46556
-4.49316
-4.52015
-4.54634
-4.57166
-4.59615
-4.61981
-4.64251
-4.66401
-4.68396
-4.70197
-4.71756
-4.73011
-4.73873
-4.74216
-4.7388
-4.7268
-4.70361
-4.66561
-3.93923
-3.94806
-3.96069
-3.97443
-3.98824
-4.00239
-4.01723
-4.03294
-4.04964
-4.06734
-4.08597
-4.10542
-4.12555
-4.14627
-4.16755
-4.18943
-4.21201
-4.23539
-4.25963
-4.28464
-4.31025
-4.33617
-4.3621
-4.38782
-4.41322
-4.43826
-4.4629
-4.487
-4.51036
-4.53275
-4.554
-4.57405
-4.59284
-4.6102
-4.6258
-4.63921
-4.64995
-4.65747
-4.66112
-4.65997
-4.65274
-4.63776
-4.61316
-4.57659
-4.52499
-3.98039
-3.98935
-4.00216
-4.01594
-4.02957
-4.04334
-4.05759
-4.07253
-4.0883
-4.10491
-4.12231
-4.1404
-4.15904
-4.17813
-4.19762
-4.21754
-4.23796
-4.259
-4.28072
-4.30308
-4.32593
-4.34902
-4.37206
-4.39481
-4.41714
-4.43899
-4.46032
-4.481
-4.50083
-4.51953
-4.5369
-4.55277
-4.56702
-4.57944
-4.58968
-4.59724
-4.60159
-4.60215
-4.59825
-4.58902
-4.57325
-4.54943
-4.51584
-4.47046
-4.41083
-4.02137
-4.03033
-4.04314
-4.0568
-4.07013
-4.08343
-4.09704
-4.11119
-4.12601
-4.14154
-4.15776
-4.17454
-4.19176
-4.2093
-4.2271
-4.24516
-4.26354
-4.28234
-4.30165
-4.32147
-4.34167
-4.36203
-4.38228
-4.40217
-4.42154
-4.44032
-4.45844
-4.4758
-4.4922
-4.50737
-4.52104
-4.533
-4.54308
-4.55101
-4.55644
-4.55886
-4.5577
-4.55241
-4.54233
-4.52663
-4.50427
-4.47396
-4.43427
-4.38354
-4.31979
-4.0624
-4.07124
-4.08387
-4.09725
-4.11017
-4.12292
-4.13584
-4.14917
-4.16305
-4.17754
-4.19259
-4.20812
-4.22399
-4.24007
-4.25627
-4.27258
-4.28904
-4.30574
-4.32278
-4.34017
-4.35783
-4.37559
-4.39317
-4.41034
-4.4269
-4.44275
-4.45781
-4.472
-4.48512
-4.49692
-4.50712
-4.51546
-4.52172
-4.52564
-4.52684
-4.5248
-4.519
-4.50887
-4.49385
-4.47319
-4.44598
-4.41117
-4.36762
-4.314
-4.24888
-4.10368
-4.11227
-4.12456
-4.13751
-4.14993
-4.16206
-4.17426
-4.18676
-4.1997
-4.21314
-4.22707
-4.24139
-4.25597
-4.27067
-4.28538
-4.30007
-4.31474
-4.32948
-4.34438
-4.35949
-4.37477
-4.39005
-4.40511
-4.41971
-4.43363
-4.44673
-4.45894
-4.47016
-4.4802
-4.48885
-4.4958
-4.50081
-4.50363
-4.50399
-4.50151
-4.4957
-4.48604
-4.47203
-4.45316
-4.42879
-4.39818
-4.36048
-4.31477
-4.26008
-4.19543
-4.14537
-4.15361
-4.16543
-4.17784
-4.18966
-4.20112
-4.21257
-4.22421
-4.23621
-4.24863
-4.26145
-4.2746
-4.28795
-4.30135
-4.31467
-4.32785
-4.34088
-4.35382
-4.36676
-4.37975
-4.39278
-4.40574
-4.41843
-4.43062
-4.44208
-4.45266
-4.46224
-4.47073
-4.47795
-4.4837
-4.48769
-4.48969
-4.48943
-4.48667
-4.48105
-4.47209
-4.45932
-4.44226
-4.42048
-4.39347
-4.36062
-4.32127
-4.27469
-4.22021
-4.15722
-4.18764
-4.19547
-4.2067
-4.21847
-4.22962
-4.24038
-4.25104
-4.26183
-4.27288
-4.28428
-4.29602
-4.30803
-4.3202
-4.33237
-4.3444
-4.3562
-4.36773
-4.37903
-4.39017
-4.40121
-4.41218
-4.42298
-4.43346
-4.4434
-4.45259
-4.46084
-4.46804
-4.47406
-4.47875
-4.48191
-4.48327
-4.48258
-4.47963
-4.47417
-4.46588
-4.45436
-4.43915
-4.41981
-4.39596
-4.36719
-4.33303
-4.29297
-4.24648
-4.1931
-4.13253
-4.23063
-4.238
-4.24856
-4.25963
-4.27008
-4.2801
-4.28996
-4.29988
-4.31
-4.32038
-4.33106
-4.34196
-4.35299
-4.36399
-4.37481
-4.38533
-4.3955
-4.40533
-4.41485
-4.42413
-4.43321
-4.44203
-4.45047
-4.45834
-4.46542
-4.47155
-4.47658
-4.4804
-4.48285
-4.48374
-4.48281
-4.47983
-4.47457
-4.46682
-4.45633
-4.44275
-4.42567
-4.40471
-4.37951
-4.34974
-4.31505
-4.27504
-4.22934
-4.17769
-4.12003
-4.27446
-4.28133
-4.29119
-4.30151
-4.31123
-4.3205
-4.32957
-4.33862
-4.3478
-4.35719
-4.36682
-4.37664
-4.38656
-4.39643
-4.40611
-4.41547
-4.4244
-4.4329
-4.44097
-4.44868
-4.45606
-4.46309
-4.46967
-4.47564
-4.48081
-4.485
-4.48808
-4.48992
-4.49039
-4.4893
-4.48644
-4.48154
-4.47439
-4.46479
-4.45253
-4.43734
-4.41889
-4.39685
-4.37091
-4.34078
-4.30619
-4.26686
-4.22252
-4.17305
-4.1186
-4.31917
-4.32556
-4.3347
-4.34425
-4.35322
-4.36174
-4.37001
-4.37822
-4.38648
-4.39489
-4.40348
-4.41224
-4.42108
-4.42988
-4.43848
-4.44674
-4.45455
-4.46185
-4.46865
-4.47496
-4.48084
-4.48627
-4.49119
-4.49546
-4.4989
-4.50135
-4.50267
-4.50274
-4.50146
-4.49867
-4.49416
-4.4877
-4.47905
-4.46804
-4.45446
-4.43811
-4.41874
-4.39607
-4.36986
-4.33988
-4.30591
-4.26775
-4.22522
-4.17829
-4.12718
-4.36481
-4.37072
-4.37913
-4.38791
-4.39614
-4.40391
-4.4114
-4.41877
-4.42614
-4.43359
-4.44118
-4.4489
-4.45669
-4.46444
-4.47201
-4.47925
-4.48602
-4.49225
-4.4979
-4.50299
-4.50755
-4.51158
-4.51504
-4.5178
-4.51973
-4.52066
-4.52043
-4.51896
-4.51614
-4.51186
-4.50595
-4.49821
-4.48842
-4.47637
-4.46189
-4.44482
-4.42494
-4.40207
-4.376
-4.34656
-4.31361
-4.27698
-4.23657
-4.1924
-4.14463
-4.41137
-4.4168
-4.4245
-4.43251
-4.44001
-4.44705
-4.45378
-4.46034
-4.46684
-4.47336
-4.47997
-4.48669
-4.49345
-4.50019
-4.50676
-4.51302
-4.51883
-4.52408
-4.52872
-4.53274
-4.53616
-4.53897
-4.54116
-4.54263
-4.54326
-4.54289
-4.54137
-4.53859
-4.53447
-4.52892
-4.52182
-4.51302
-4.50232
-4.48954
-4.47451
-4.45707
-4.43707
-4.41434
-4.38875
-4.36017
-4.3285
-4.29365
-4.25554
-4.21421
-4.16974
-4.45882
-4.4638
-4.4708
-4.47806
-4.48484
-4.49117
-4.49717
-4.50295
-4.50861
-4.51425
-4.51992
-4.52565
-4.53142
-4.53716
-4.54277
-4.54809
-4.553
-4.55736
-4.5611
-4.56417
-4.56659
-4.56835
-4.56945
-4.56982
-4.56936
-4.56792
-4.56535
-4.56154
-4.55638
-4.54981
-4.54175
-4.53209
-4.52069
-4.50739
-4.49205
-4.47451
-4.45465
-4.43234
-4.40748
-4.37998
-4.34978
-4.31681
-4.28107
-4.24256
-4.20132
-4.50715
-4.51169
-4.51801
-4.52456
-4.53064
-4.53628
-4.54157
-4.54662
-4.55149
-4.55627
-4.56104
-4.56583
-4.57064
-4.57543
-4.58009
-4.58452
-4.58856
-4.5921
-4.59502
-4.59726
-4.59882
-4.59968
-4.59984
-4.59928
-4.5979
-4.59559
-4.5922
-4.58761
-4.5817
-4.5744
-4.56564
-4.55536
-4.54346
-4.52982
-4.51434
-4.49689
-4.47735
-4.45564
-4.43167
-4.40538
-4.37673
-4.34569
-4.31227
-4.27648
-4.23834
-4.55634
-4.56047
-4.56615
-4.57201
-4.57743
-4.58241
-4.58704
-4.59138
-4.59551
-4.5995
-4.60342
-4.60731
-4.6112
-4.61505
-4.61881
-4.62236
-4.62558
-4.62834
-4.63052
-4.63203
-4.63284
-4.63293
-4.6323
-4.63094
-4.62879
-4.62576
-4.62173
-4.61657
-4.61016
-4.60241
-4.59324
-4.58261
-4.57044
-4.55668
-4.54123
-4.52401
-4.50493
-4.48393
-4.46094
-4.43591
-4.40883
-4.37969
-4.34849
-4.31526
-4.28004
-4.60641
-4.61015
-4.61524
-4.62045
-4.62524
-4.62961
-4.63361
-4.63731
-4.64074
-4.64399
-4.64711
-4.65017
-4.65318
-4.65615
-4.65902
-4.66173
-4.66416
-4.66618
-4.66768
-4.66854
-4.66871
-4.66815
-4.66685
-4.66481
-4.662
-4.65837
-4.65382
-4.64824
-4.6415
-4.63352
-4.62419
-4.61347
-4.6013
-4.58763
-4.5724
-4.55557
-4.53708
-4.51688
-4.49492
-4.47118
-4.44565
-4.41834
-4.38926
-4.35843
-4.32589
-4.65737
-4.66076
-4.66531
-4.66993
-4.67414
-4.67793
-4.68136
-4.68445
-4.68726
-4.68983
-4.69222
-4.6945
-4.69669
-4.69882
-4.70085
-4.70275
-4.70441
-4.70573
-4.70659
-4.70687
-4.70648
-4.70538
-4.70354
-4.70095
-4.6976
-4.69346
-4.68847
-4.68254
-4.67559
-4.6675
-4.65818
-4.64756
-4.63559
-4.62222
-4.60741
-4.59113
-4.57335
-4.55404
-4.53317
-4.51074
-4.48674
-4.46119
-4.43411
-4.40553
-4.37545
-4.70927
-4.71235
-4.7164
-4.72048
-4.72416
-4.72744
-4.73034
-4.73289
-4.73513
-4.73708
-4.73882
-4.74039
-4.74183
-4.74317
-4.74442
-4.74554
-4.74646
-4.74711
-4.74735
-4.74709
-4.74623
-4.74469
-4.74242
-4.7394
-4.73563
-4.73108
-4.72574
-4.71954
-4.71241
-4.70427
-4.69503
-4.68462
-4.67297
-4.66004
-4.64579
-4.6302
-4.61324
-4.59491
-4.57519
-4.55408
-4.53159
-4.50776
-4.48259
-4.45612
-4.42834
-4.76215
-4.76494
-4.76856
-4.77216
-4.77536
-4.77817
-4.78061
-4.78267
-4.7844
-4.78582
-4.78697
-4.78791
-4.78868
-4.78931
-4.78982
-4.7902
-4.79042
-4.79041
-4.79007
-4.78931
-4.78802
-4.7861
-4.78351
-4.78019
-4.77612
-4.77129
-4.76569
-4.75929
-4.75203
-4.74388
-4.73475
-4.72457
-4.7133
-4.70087
-4.68725
-4.67242
-4.65636
-4.63906
-4.62052
-4.60074
-4.57976
-4.55759
-4.53427
-4.50982
-4.48423
-4.81602
-4.81857
-4.82181
-4.82499
-4.82777
-4.83017
-4.83218
-4.83383
-4.83511
-4.83606
-4.83671
-4.8371
-4.83727
-4.83727
-4.83711
-4.83682
-4.83638
-4.83574
-4.83484
-4.83359
-4.83189
-4.82966
-4.82681
-4.82328
-4.81904
-4.81406
-4.80832
-4.80182
-4.79453
-4.7864
-4.77741
-4.76749
-4.75659
-4.74468
-4.7317
-4.71765
-4.7025
-4.68625
-4.66889
-4.65045
-4.63094
-4.61039
-4.58884
-4.56633
-4.54283
-4.87093
-4.87327
-4.87618
-4.87899
-4.8814
-4.88343
-4.88508
-4.88636
-4.88726
-4.88781
-4.88803
-4.88795
-4.88762
-4.88707
-4.88633
-4.88544
-4.88439
-4.88317
-4.88172
-4.88
-4.87791
-4.87537
-4.87231
-4.86864
-4.86431
-4.85929
-4.85355
-4.84707
-4.83984
-4.83183
-4.82303
-4.8134
-4.8029
-4.7915
-4.77917
-4.76589
-4.75164
-4.73641
-4.72022
-4.70307
-4.68499
-4.666
-4.64614
-4.62545
-4.60395
-4.92688
-4.92904
-4.93167
-4.93415
-4.93625
-4.93796
-4.93929
-4.94025
-4.94083
-4.94104
-4.9409
-4.94044
-4.93968
-4.93868
-4.93746
-4.93605
-4.93447
-4.93271
-4.93077
-4.92859
-4.92612
-4.92329
-4.92002
-4.91623
-4.91187
-4.90688
-4.90122
-4.89488
-4.88782
-4.88004
-4.87152
-4.86225
-4.85219
-4.84133
-4.82965
-4.81713
-4.80376
-4.78954
-4.77447
-4.75856
-4.74184
-4.72433
-4.70607
-4.6871
-4.66746
-4.98389
-4.9859
-4.98827
-4.99048
-4.99229
-4.99372
-4.99478
-4.99546
-4.99577
-4.99569
-4.99526
-4.99449
-4.9934
-4.99204
-4.99043
-4.9886
-4.98657
-4.98437
-4.98198
-4.97939
-4.97656
-4.97343
-4.96996
-4.96606
-4.96167
-4.95674
-4.95123
-4.94508
-4.93829
-4.93083
-4.92269
-4.91385
-4.9043
-4.89403
-4.88302
-4.87128
-4.85878
-4.84554
-4.83156
-4.81685
-4.80143
-4.78533
-4.76857
-4.7512
-4.7333
-5.04195
-5.04382
-5.04598
-5.04794
-5.04951
-5.0507
-5.05152
-5.05196
-5.05202
-5.05172
-5.05105
-5.05003
-5.04869
-5.04705
-5.04514
-5.04299
-5.04063
-5.03806
-5.03531
-5.03237
-5.02922
-5.02583
-5.02215
-5.01813
-5.01372
-5.00885
-5.00349
-4.99758
-4.99109
-4.98401
-4.97631
-4.96797
-4.959
-4.94937
-4.93908
-4.92814
-4.91653
-4.90427
-4.89135
-4.8778
-4.86363
-4.84887
-4.83354
-4.8177
-4.80142
-5.10106
-5.1028
-5.10477
-5.10651
-5.10787
-5.10885
-5.10945
-5.10968
-5.10954
-5.10903
-5.10817
-5.10696
-5.10543
-5.1036
-5.10148
-5.09911
-5.09651
-5.09369
-5.09068
-5.08748
-5.08407
-5.08046
-5.07661
-5.07248
-5.06803
-5.06322
-5.05799
-5.05231
-5.04614
-5.03946
-5.03222
-5.02443
-5.01607
-5.00713
-4.9976
-4.98748
-4.97678
-4.9655
-4.95365
-4.94124
-4.9283
-4.91484
-4.90088
-4.88649
-4.87176
-5.16119
-5.16282
-5.16461
-5.16617
-5.16735
-5.16813
-5.16854
-5.16858
-5.16826
-5.16757
-5.16655
-5.1652
-5.16353
-5.16157
-5.15933
-5.15683
-5.15409
-5.15113
-5.14795
-5.14458
-5.14102
-5.13726
-5.13329
-5.12908
-5.12462
-5.11986
-5.11476
-5.1093
-5.10344
-5.09714
-5.09038
-5.08313
-5.0754
-5.06716
-5.0584
-5.04913
-5.03935
-5.02906
-5.01827
-5.007
-4.99526
-4.98308
-4.97047
-4.9575
-4.94427
-5.22231
-5.22386
-5.22551
-5.22691
-5.22791
-5.22852
-5.22875
-5.22861
-5.22811
-5.22727
-5.22612
-5.22466
-5.2229
-5.22087
-5.21857
-5.21602
-5.21323
-5.21021
-5.20698
-5.20355
-5.19992
-5.19611
-5.19209
-5.18788
-5.18344
-5.17876
-5.17381
-5.16856
-5.16299
-5.15706
-5.15076
-5.14406
-5.13694
-5.1294
-5.12142
-5.11299
-5.10413
-5.09483
-5.0851
-5.07496
-5.06442
-5.0535
-5.04222
-5.03066
-5.01891
-5.28444
-5.28592
-5.28744
-5.2887
-5.28955
-5.28998
-5.29003
-5.28971
-5.28905
-5.28807
-5.2868
-5.28526
-5.28345
-5.28139
-5.27909
-5.27656
-5.27379
-5.27081
-5.26761
-5.26422
-5.26063
-5.25685
-5.25289
-5.24874
-5.24439
-5.23984
-5.23507
-5.23006
-5.22479
-5.21924
-5.21339
-5.20722
-5.20071
-5.19385
-5.18662
-5.17904
-5.17108
-5.16276
-5.15408
-5.14505
-5.13569
-5.12601
-5.11605
-5.10587
-5.09559
-5.34761
-5.349
-5.35041
-5.35156
-5.35225
-5.3525
-5.35235
-5.35184
-5.35102
-5.34991
-5.34854
-5.34694
-5.34512
-5.34307
-5.34081
-5.33834
-5.33566
-5.33277
-5.32969
-5.32641
-5.32295
-5.3193
-5.31548
-5.31149
-5.30732
-5.30297
-5.29844
-5.29371
-5.28878
-5.28362
-5.27823
-5.27258
-5.26667
-5.26049
-5.25402
-5.24725
-5.24018
-5.23282
-5.22516
-5.21722
-5.20901
-5.20055
-5.19188
-5.18306
-5.17422
-5.41154
-5.41303
-5.4144
-5.41546
-5.41599
-5.41603
-5.41566
-5.41496
-5.41397
-5.41275
-5.41131
-5.40967
-5.40785
-5.40585
-5.40366
-5.40129
-5.39874
-5.39601
-5.39309
-5.39
-5.38674
-5.3833
-5.3797
-5.37595
-5.37203
-5.36796
-5.36374
-5.35935
-5.3548
-5.35008
-5.34518
-5.34008
-5.33479
-5.32928
-5.32355
-5.31759
-5.3114
-5.30497
-5.2983
-5.29141
-5.2843
-5.27701
-5.26958
-5.26209
-5.25466
-5.47553
-5.47792
-5.47946
-5.48047
-5.48079
-5.48055
-5.47992
-5.479
-5.47786
-5.47653
-5.47504
-5.4734
-5.47161
-5.46968
-5.4676
-5.46536
-5.46297
-5.46042
-5.45772
-5.45486
-5.45184
-5.44868
-5.44537
-5.44192
-5.43833
-5.43461
-5.43077
-5.42679
-5.42269
-5.41845
-5.41408
-5.40957
-5.40491
-5.40009
-5.39512
-5.38997
-5.38464
-5.37913
-5.37342
-5.36753
-5.36146
-5.35525
-5.34897
-5.34275
-5.33672
-5.54029
-5.54406
-5.54579
-5.54661
-5.54655
-5.54593
-5.54499
-5.54386
-5.54258
-5.54119
-5.53969
-5.53807
-5.53635
-5.53451
-5.53255
-5.53047
-5.52826
-5.52592
-5.52345
-5.52085
-5.51813
-5.51527
-5.5123
-5.50921
-5.50601
-5.50271
-5.4993
-5.4958
-5.4922
-5.48851
-5.48472
-5.48084
-5.47686
-5.47277
-5.46856
-5.46424
-5.45978
-5.45517
-5.4504
-5.44546
-5.44034
-5.43508
-5.42981
-5.4248
-5.42019
-5.60876
-5.61355
-5.61465
-5.61427
-5.61339
-5.6123
-5.61107
-5.60978
-5.60843
-5.60702
-5.60554
-5.60399
-5.60235
-5.60062
-5.59879
-5.59687
-5.59485
-5.59272
-5.5905
-5.58817
-5.58574
-5.58322
-5.58061
-5.57792
-5.57514
-5.57229
-5.56936
-5.56638
-5.56333
-5.56023
-5.55707
-5.55386
-5.55059
-5.54726
-5.54386
-5.54038
-5.53681
-5.53311
-5.52927
-5.52525
-5.52099
-5.51642
-5.51169
-5.50769
-5.50472
-5.67321
-5.69462
-5.69183
-5.68539
-5.68204
-5.68023
-5.67876
-5.67737
-5.676
-5.67462
-5.6732
-5.67171
-5.67017
-5.66855
-5.66686
-5.6651
-5.66326
-5.66135
-5.65936
-5.65731
-5.65519
-5.65301
-5.65077
-5.64848
-5.64614
-5.64376
-5.64134
-5.63889
-5.63642
-5.63394
-5.63143
-5.62892
-5.62639
-5.62385
-5.62129
-5.6187
-5.61605
-5.61332
-5.61043
-5.6073
-5.60363
-5.59874
-5.59246
-5.58884
-5.5888
-5.69647
-5.79828
-5.77617
-5.75589
-5.74856
-5.74534
-5.74315
-5.7414
-5.73988
-5.73846
-5.73705
-5.73564
-5.73419
-5.73271
-5.73119
-5.72962
-5.72802
-5.72637
-5.72469
-5.72298
-5.72124
-5.71947
-5.71769
-5.7159
-5.71411
-5.71231
-5.71052
-5.70875
-5.70699
-5.70526
-5.70356
-5.70189
-5.70026
-5.69866
-5.69708
-5.69551
-5.69392
-5.69222
-5.69029
-5.68791
-5.68447
-5.67837
-5.66835
-5.66673
-5.67173
)
;

boundaryField
{
    leftWall
    {
        type            calculated;
        value           nonuniform List<scalar> 
42
(
-3.61761
-3.66991
-3.71935
-3.76646
-3.81163
-3.85522
-3.89763
-3.93923
-3.98039
-4.02137
-4.0624
-4.10368
-4.14537
-4.18764
-4.23063
-4.27446
-4.31917
-4.36481
-4.41137
-4.45882
-4.50715
-4.55634
-4.60641
-4.65737
-4.70927
-4.76215
-4.81602
-4.87093
-4.92688
-4.98389
-5.04195
-5.10106
-5.16119
-5.22231
-5.28444
-5.34761
-5.41154
-5.47553
-5.54029
-5.60876
-5.67321
-5.69647
)
;
    }
    rightWall
    {
        type            calculated;
        value           nonuniform 0();
    }
    lowerWall
    {
        type            calculated;
        value           nonuniform 0();
    }
    atmosphere
    {
        type            calculated;
        value           nonuniform List<scalar> 
45
(
-5.74289
-5.78008
-5.7781
-5.77559
-5.77358
-5.77187
-5.77034
-5.76892
-5.76757
-5.76624
-5.76492
-5.76359
-5.76224
-5.76087
-5.75947
-5.75805
-5.7566
-5.75514
-5.75366
-5.75218
-5.75069
-5.7492
-5.74772
-5.74626
-5.74481
-5.7434
-5.74201
-5.74066
-5.73937
-5.73812
-5.73693
-5.7358
-5.73475
-5.73377
-5.73287
-5.73206
-5.73133
-5.7307
-5.73017
-5.72974
-5.72942
-5.7292
-5.7291
-5.72904
-5.72904
)
;
    }
    defaultFaces
    {
        type            empty;
    }
    procBoundary2to0
    {
        type            processor;
        value           nonuniform List<scalar> 
46
(
-4.08272
-4.13585
-4.19012
-4.24518
-4.30091
-4.35743
-4.41501
-4.47391
-4.5343
-4.59623
-4.65977
-4.72511
-4.79274
-4.86342
-4.93805
-5.01761
-5.10315
-5.19606
-5.29845
-5.41338
-5.54461
-5.69632
-5.87158
-6.06809
-6.27294
-3.56241
-3.56874
-3.57418
-3.58248
-3.59343
-3.60728
-3.62423
-3.64433
-3.66751
-3.69358
-3.72228
-3.75334
-3.78649
-3.82155
-3.85844
-3.8972
-3.93794
-3.98083
-4.02595
-4.0732
-4.0732
)
;
    }
    procBoundary2to3
    {
        type            processor;
        value           nonuniform List<scalar> 
43
(
-6.30225
-6.12906
-5.89731
-5.61072
-5.31231
-5.03726
-4.80162
-4.60852
-4.4545
-4.33384
-4.24079
-4.17064
-4.11966
-4.08494
-4.06434
-4.05623
-4.0592
-4.07195
-4.0933
-4.12213
-4.15732
-4.19784
-4.2428
-4.2916
-4.34383
-4.3992
-4.45745
-4.51833
-4.58163
-4.64718
-4.7149
-4.78475
-4.85674
-4.93085
-5.00705
-5.08528
-5.16544
-5.24737
-5.33089
-5.41585
-5.50205
-5.58864
-5.67524
)
;
    }
}


// ************************************************************************* //
