/*--------------------------------*- C++ -*----------------------------------*\
| =========                 |                                                 |
| \\      /  F ield         | OpenFOAM: The Open Source CFD Toolbox           |
|  \\    /   O peration     | Version:  5.0                                   |
|   \\  /    A nd           | Web:      www.OpenFOAM.org                      |
|    \\/     M anipulation  |                                                 |
\*---------------------------------------------------------------------------*/
FoamFile
{
    version     2.0;
    format      ascii;
    class       volScalarField;
    location    "0.3";
    object      p_rgh;
}
// * * * * * * * * * * * * * * * * * * * * * * * * * * * * * * * * * * * * * //

dimensions      [1 -1 -2 0 0 0 0];

internalField   nonuniform List<scalar> 
1915
(
-1.77799
-1.82836
-1.87951
-1.93111
-1.98308
-2.03561
-2.08901
-2.14356
-2.19937
-2.25643
-2.31482
-2.37486
-2.43716
-2.50244
-2.57143
-2.64479
-2.72332
-2.80814
-2.90108
-3.00475
-3.12246
-3.25793
-3.41446
-3.59181
-3.78043
-1.208
-1.21406
-1.22077
-1.23002
-1.24163
-1.25582
-1.27276
-1.29254
-1.31511
-1.34034
-1.36799
-1.39778
-1.42945
-1.46282
-1.49783
-1.53454
-1.57311
-1.61369
-1.65638
-1.70105
-1.74732
-1.79468
-1.84262
-1.89084
-1.93929
-1.98815
-2.03768
-2.08807
-2.13936
-2.19158
-2.24488
-2.29967
-2.35653
-2.41605
-2.47871
-2.54501
-2.61561
-2.69141
-2.77376
-2.86462
-2.96664
-3.08309
-3.21741
-3.37135
-3.54187
-1.19437
-1.2003
-1.20837
-1.21862
-1.23085
-1.24529
-1.26214
-1.28149
-1.30333
-1.32756
-1.35398
-1.38233
-1.41237
-1.44396
-1.47705
-1.51172
-1.54811
-1.58637
-1.62654
-1.66848
-1.71181
-1.75605
-1.80074
-1.84563
-1.89067
-1.93601
-1.98182
-2.02816
-2.07505
-2.12252
-2.17081
-2.22035
-2.27164
-2.32508
-2.38095
-2.43962
-2.50159
-2.56752
-2.63827
-2.71513
-2.79988
-2.89486
-3.00298
-3.1265
-3.26641
-1.17726
-1.18371
-1.19289
-1.20406
-1.21684
-1.23145
-1.24813
-1.26699
-1.28804
-1.3112
-1.3363
-1.36312
-1.39148
-1.42123
-1.45236
-1.48494
-1.5191
-1.55497
-1.59255
-1.63169
-1.67204
-1.71314
-1.75459
-1.79617
-1.83785
-1.87971
-1.92184
-1.96423
-2.00685
-2.04973
-2.09311
-2.1374
-2.18299
-2.23014
-2.279
-2.32976
-2.38274
-2.43826
-2.49673
-2.55882
-2.62538
-2.69755
-2.77696
-2.86497
-2.96235
-1.15722
-1.1643
-1.17447
-1.18644
-1.19965
-1.21436
-1.23081
-1.24914
-1.26938
-1.29146
-1.31524
-1.34054
-1.36719
-1.39508
-1.42421
-1.45464
-1.48649
-1.51988
-1.55481
-1.5911
-1.62844
-1.66641
-1.70466
-1.74297
-1.7813
-1.8197
-1.85821
-1.89676
-1.93526
-1.97371
-2.01232
-2.05141
-2.09129
-2.13207
-2.1738
-2.21655
-2.2604
-2.30536
-2.3514
-2.39863
-2.44712
-2.49689
-2.54808
-2.60049
-2.65303
-1.1346
-1.14228
-1.15331
-1.16595
-1.17949
-1.1942
-1.21037
-1.22812
-1.24752
-1.26852
-1.29099
-1.31478
-1.33974
-1.36578
-1.39288
-1.42113
-1.45063
-1.48149
-1.51371
-1.54713
-1.58146
-1.61634
-1.65142
-1.68649
-1.72152
-1.75651
-1.79146
-1.82627
-1.86081
-1.89501
-1.92902
-1.96305
-1.9973
-2.0318
-2.06647
-2.10126
-2.13604
-2.17061
-2.20462
-2.23767
-2.26919
-2.2984
-2.32432
-2.34527
-2.35864
-1.10977
-1.11796
-1.12969
-1.14285
-1.15661
-1.17124
-1.18704
-1.20417
-1.2227
-1.2426
-1.26377
-1.28607
-1.30938
-1.33359
-1.35869
-1.38477
-1.41191
-1.44023
-1.46974
-1.5003
-1.53167
-1.56349
-1.59545
-1.62735
-1.65911
-1.69074
-1.7222
-1.75337
-1.78407
-1.8142
-1.84377
-1.87293
-1.90175
-1.93019
-1.95807
-1.98519
-2.01127
-2.03595
-2.05868
-2.07876
-2.09513
-2.10649
-2.11125
-2.10698
-2.09014
-1.08313
-1.0917
-1.10397
-1.1175
-1.13135
-1.14579
-1.16115
-1.17759
-1.19522
-1.21402
-1.23391
-1.25476
-1.27645
-1.29888
-1.32204
-1.34598
-1.37081
-1.39662
-1.42346
-1.45121
-1.47967
-1.5085
-1.53741
-1.56618
-1.59473
-1.62304
-1.65106
-1.67867
-1.70565
-1.73184
-1.75717
-1.78165
-1.80531
-1.82802
-1.84952
-1.86947
-1.88748
-1.90307
-1.91561
-1.92424
-1.92767
-1.9243
-1.91231
-1.88911
-1.85111
-1.05505
-1.06388
-1.0765
-1.09025
-1.10405
-1.11821
-1.13304
-1.14875
-1.16545
-1.18315
-1.20178
-1.22123
-1.24136
-1.26208
-1.28336
-1.30525
-1.32782
-1.35121
-1.37544
-1.40045
-1.42606
-1.45198
-1.47791
-1.50363
-1.52903
-1.55407
-1.57871
-1.60282
-1.62618
-1.64856
-1.66981
-1.68987
-1.70865
-1.72601
-1.74161
-1.75503
-1.76576
-1.77328
-1.77693
-1.77578
-1.76855
-1.75357
-1.72897
-1.69241
-1.6408
-1.02586
-1.03482
-1.04763
-1.06141
-1.07505
-1.08882
-1.10306
-1.11801
-1.13377
-1.15038
-1.16778
-1.18587
-1.20451
-1.22361
-1.2431
-1.26301
-1.28344
-1.30447
-1.32619
-1.34855
-1.37141
-1.39449
-1.41753
-1.44028
-1.46261
-1.48447
-1.50579
-1.52648
-1.5463
-1.56501
-1.58237
-1.59824
-1.61249
-1.62492
-1.63515
-1.64271
-1.64706
-1.64762
-1.64373
-1.6345
-1.61872
-1.5949
-1.56132
-1.51594
-1.4563
-0.995849
-1.00481
-1.01762
-1.03128
-1.04462
-1.05791
-1.07152
-1.08567
-1.10049
-1.11603
-1.13224
-1.14902
-1.16624
-1.18379
-1.20159
-1.21964
-1.23802
-1.25682
-1.27614
-1.29595
-1.31615
-1.33651
-1.35676
-1.37665
-1.39603
-1.4148
-1.43292
-1.45028
-1.46668
-1.48185
-1.49552
-1.50749
-1.51756
-1.5255
-1.53093
-1.53334
-1.53219
-1.52689
-1.51681
-1.50112
-1.47875
-1.44844
-1.40876
-1.35802
-1.29428
-0.965232
-0.974069
-0.986703
-1.00008
-1.013
-1.02575
-1.03868
-1.05201
-1.06589
-1.08037
-1.09542
-1.11095
-1.12682
-1.1429
-1.15911
-1.17542
-1.19187
-1.20858
-1.22561
-1.243
-1.26067
-1.27842
-1.29601
-1.31317
-1.32973
-1.34558
-1.36065
-1.37483
-1.38796
-1.39976
-1.40995
-1.41829
-1.42455
-1.42848
-1.42967
-1.42764
-1.42183
-1.41171
-1.39669
-1.37603
-1.34881
-1.314
-1.27045
-1.21683
-1.15171
-0.934193
-0.942783
-0.955079
-0.968032
-0.980446
-0.99258
-1.00478
-1.01728
-1.03022
-1.04366
-1.05758
-1.0719
-1.08648
-1.10119
-1.1159
-1.13058
-1.14526
-1.16
-1.1749
-1.19001
-1.20528
-1.22057
-1.23563
-1.25022
-1.26414
-1.27725
-1.28946
-1.30067
-1.31072
-1.31936
-1.32632
-1.33133
-1.33415
-1.33451
-1.33203
-1.32622
-1.31656
-1.30255
-1.28367
-1.25931
-1.2287
-1.191
-1.14529
-1.0906
-1.02595
-0.902899
-0.911144
-0.922961
-0.93537
-0.947188
-0.958654
-0.970098
-0.981745
-0.993741
-1.00616
-1.01898
-1.03213
-1.04548
-1.05888
-1.0722
-1.08538
-1.09841
-1.11135
-1.12429
-1.13728
-1.15031
-1.16327
-1.17596
-1.18815
-1.19961
-1.21019
-1.21977
-1.22826
-1.23548
-1.24123
-1.24523
-1.24722
-1.24696
-1.2442
-1.23858
-1.22962
-1.21685
-1.19979
-1.17801
-1.151
-1.11815
-1.0788
-1.03222
-0.977743
-0.914749
-0.871506
-0.879333
-0.890563
-0.902332
-0.913489
-0.924245
-0.934908
-0.945694
-0.956747
-0.968143
-0.979883
-0.991897
-1.00406
-1.01623
-1.02826
-1.04006
-1.05159
-1.06289
-1.07403
-1.08508
-1.09604
-1.10684
-1.11733
-1.12727
-1.13645
-1.1447
-1.1519
-1.15792
-1.16262
-1.16578
-1.16714
-1.16645
-1.1635
-1.15803
-1.14975
-1.13823
-1.12302
-1.10368
-1.07983
-1.05105
-1.01689
-0.97684
-0.930346
-0.876967
-0.816395
-0.84015
-0.847512
-0.858081
-0.869144
-0.879594
-0.889612
-0.899481
-0.909401
-0.919513
-0.9299
-0.940574
-0.951479
-0.962505
-0.973502
-0.984323
-0.99485
-1.00502
-1.01484
-1.02436
-1.03365
-1.04272
-1.05155
-1.05999
-1.06785
-1.07494
-1.08107
-1.0861
-1.08991
-1.09237
-1.09325
-1.09233
-1.08934
-1.08408
-1.07634
-1.06585
-1.05226
-1.03519
-1.01423
-0.98903
-0.959259
-0.924564
-0.884561
-0.83886
-0.787205
-0.729548
-0.808933
-0.81581
-0.825673
-0.835989
-0.845706
-0.854974
-0.864044
-0.8731
-0.882279
-0.891668
-0.901293
-0.911114
-0.921033
-0.93091
-0.940592
-0.949945
-0.958882
-0.967374
-0.97545
-0.983161
-0.990541
-0.997571
-1.00415
-1.01012
-1.01529
-1.01948
-1.02255
-1.02439
-1.02486
-1.02378
-1.02092
-1.01602
-1.00887
-0.999267
-0.987008
-0.971818
-0.953371
-0.93133
-0.905384
-0.875253
-0.840665
-0.801336
-0.756994
-0.707529
-0.653078
-0.777916
-0.784303
-0.793442
-0.802991
-0.811964
-0.82048
-0.828756
-0.836959
-0.845219
-0.853628
-0.862224
-0.870983
-0.879825
-0.888622
-0.897224
-0.905485
-0.913295
-0.920597
-0.927389
-0.933707
-0.939584
-0.945016
-0.949933
-0.954199
-0.957641
-0.960091
-0.961409
-0.961484
-0.960203
-0.95741
-0.952901
-0.946439
-0.937797
-0.926779
-0.913201
-0.89685
-0.877478
-0.854815
-0.828606
-0.798623
-0.764656
-0.726496
-0.683964
-0.637034
-0.585918
-0.747117
-0.753022
-0.761434
-0.770212
-0.778443
-0.786212
-0.793708
-0.801076
-0.80844
-0.815892
-0.823481
-0.831203
-0.838995
-0.846746
-0.854314
-0.861548
-0.868322
-0.87455
-0.880205
-0.885298
-0.889857
-0.893887
-0.897341
-0.900108
-0.902035
-0.902958
-0.902738
-0.901265
-0.898448
-0.894167
-0.888258
-0.880514
-0.870719
-0.858673
-0.844198
-0.827119
-0.807243
-0.784369
-0.758302
-0.728867
-0.69591
-0.659284
-0.618877
-0.574703
-0.526933
-0.716525
-0.721959
-0.729654
-0.737669
-0.745165
-0.752202
-0.758937
-0.765496
-0.771992
-0.778517
-0.785129
-0.79184
-0.798608
-0.805343
-0.811913
-0.818173
-0.823982
-0.829237
-0.833879
-0.837899
-0.841311
-0.844124
-0.846311
-0.847785
-0.848414
-0.848041
-0.846522
-0.843744
-0.839624
-0.834074
-0.826976
-0.818173
-0.807475
-0.794698
-0.779668
-0.762228
-0.742221
-0.719494
-0.693904
-0.665325
-0.633656
-0.5988
-0.560696
-0.519366
-0.474898
-0.686111
-0.691089
-0.698086
-0.705354
-0.712131
-0.718456
-0.724456
-0.730237
-0.735901
-0.741535
-0.747205
-0.752936
-0.758709
-0.764454
-0.770058
-0.775383
-0.780287
-0.784649
-0.788386
-0.791464
-0.79388
-0.795644
-0.796741
-0.797114
-0.79665
-0.795209
-0.792641
-0.788825
-0.783669
-0.777101
-0.769041
-0.75938
-0.747978
-0.734682
-0.719338
-0.701802
-0.681941
-0.659633
-0.634772
-0.607271
-0.577066
-0.544104
-0.508359
-0.46985
-0.428611
-0.655848
-0.660391
-0.666714
-0.67326
-0.679341
-0.68498
-0.690276
-0.695317
-0.700188
-0.704974
-0.709744
-0.714535
-0.719345
-0.724128
-0.728794
-0.733219
-0.737263
-0.740797
-0.743717
-0.745965
-0.747519
-0.74838
-0.748545
-0.74798
-0.746602
-0.74429
-0.740903
-0.736307
-0.730398
-0.723099
-0.714344
-0.704061
-0.692158
-0.678525
-0.663041
-0.645589
-0.626056
-0.604345
-0.580373
-0.55408
-0.525428
-0.494392
-0.460968
-0.425177
-0.38704
-0.625722
-0.629851
-0.635537
-0.641394
-0.646811
-0.651795
-0.656424
-0.660766
-0.664893
-0.668881
-0.6728
-0.676695
-0.680582
-0.684438
-0.688194
-0.691747
-0.694969
-0.697726
-0.699903
-0.701417
-0.702225
-0.702315
-0.701685
-0.700321
-0.69817
-0.695142
-0.691113
-0.685953
-0.679542
-0.67179
-0.662626
-0.651993
-0.639828
-0.626061
-0.610609
-0.593389
-0.574316
-0.553313
-0.530319
-0.505293
-0.478213
-0.449071
-0.417875
-0.384648
-0.349423
-0.595736
-0.599479
-0.60457
-0.609782
-0.614572
-0.618941
-0.622945
-0.626636
-0.630071
-0.633319
-0.636443
-0.639497
-0.642509
-0.645476
-0.648354
-0.651064
-0.653492
-0.655515
-0.657007
-0.65787
-0.658037
-0.657475
-0.656178
-0.654139
-0.651333
-0.647701
-0.643151
-0.637567
-0.630834
-0.622847
-0.613524
-0.602802
-0.590629
-0.576956
-0.561731
-0.5449
-0.526409
-0.506206
-0.484248
-0.46051
-0.434983
-0.407671
-0.378588
-0.347758
-0.315215
-0.565906
-0.569296
-0.573842
-0.578459
-0.582668
-0.586466
-0.589894
-0.592986
-0.595789
-0.598359
-0.600754
-0.603029
-0.605222
-0.607348
-0.609387
-0.611282
-0.612946
-0.614266
-0.61512
-0.615398
-0.615013
-0.613912
-0.61207
-0.609479
-0.606129
-0.601988
-0.596999
-0.591077
-0.584121
-0.576029
-0.566711
-0.556093
-0.544121
-0.530749
-0.515942
-0.499664
-0.481884
-0.462572
-0.441705
-0.419271
-0.395273
-0.369724
-0.342645
-0.314058
-0.28398
-0.53626
-0.539332
-0.543388
-0.547466
-0.551146
-0.554423
-0.557326
-0.559877
-0.56211
-0.564069
-0.565807
-0.567373
-0.568815
-0.570158
-0.571404
-0.572522
-0.573448
-0.57409
-0.574338
-0.57408
-0.573216
-0.571671
-0.569402
-0.566385
-0.562612
-0.558067
-0.552721
-0.54652
-0.539391
-0.531251
-0.522013
-0.511601
-0.499954
-0.487024
-0.472777
-0.457185
-0.440229
-0.421894
-0.402171
-0.381062
-0.358578
-0.334741
-0.309576
-0.283107
-0.255329
-0.506827
-0.509619
-0.51324
-0.516838
-0.520044
-0.522853
-0.525286
-0.527354
-0.529081
-0.530501
-0.531655
-0.532592
-0.533357
-0.533987
-0.534498
-0.534883
-0.535103
-0.535091
-0.534755
-0.533991
-0.532697
-0.530785
-0.528188
-0.524867
-0.5208
-0.515973
-0.510371
-0.503967
-0.496715
-0.488557
-0.479426
-0.469253
-0.457978
-0.44555
-0.431933
-0.417102
-0.401039
-0.383737
-0.365196
-0.345424
-0.32444
-0.302272
-0.278951
-0.254503
-0.228914
-0.477634
-0.480183
-0.483424
-0.486599
-0.489384
-0.491778
-0.493794
-0.495438
-0.496724
-0.497674
-0.498323
-0.498711
-0.498883
-0.498878
-0.498726
-0.498436
-0.497992
-0.497354
-0.496452
-0.495201
-0.493505
-0.49127
-0.488419
-0.484892
-0.48065
-0.47567
-0.469936
-0.463434
-0.456138
-0.448015
-0.439018
-0.429097
-0.418202
-0.406287
-0.393316
-0.379263
-0.364113
-0.347859
-0.330505
-0.312061
-0.29255
-0.272003
-0.250455
-0.227937
-0.204446
-0.448701
-0.45104
-0.453952
-0.456757
-0.459173
-0.461202
-0.462854
-0.464129
-0.465033
-0.465582
-0.465801
-0.465724
-0.46539
-0.464838
-0.464105
-0.463212
-0.462163
-0.460938
-0.459495
-0.45777
-0.455682
-0.453146
-0.450079
-0.446409
-0.442082
-0.43706
-0.431318
-0.424839
-0.417608
-0.409605
-0.400803
-0.391171
-0.380671
-0.369272
-0.356942
-0.343659
-0.329408
-0.314185
-0.297992
-0.280842
-0.262756
-0.243767
-0.22391
-0.20322
-0.181719
-0.420036
-0.422196
-0.424821
-0.427305
-0.4294
-0.43111
-0.432445
-0.433401
-0.43398
-0.43419
-0.434052
-0.43359
-0.432837
-0.431833
-0.430611
-0.429201
-0.427619
-0.425866
-0.423921
-0.421743
-0.419273
-0.41644
-0.413168
-0.409383
-0.405021
-0.40003
-0.394375
-0.388029
-0.380974
-0.373196
-0.364678
-0.3554
-0.345343
-0.334483
-0.322801
-0.31028
-0.296911
-0.282689
-0.267619
-0.251712
-0.234991
-0.217482
-0.19922
-0.18025
-0.160614
-0.391639
-0.393645
-0.396021
-0.398224
-0.400039
-0.401473
-0.402531
-0.403212
-0.403514
-0.403442
-0.40301
-0.402238
-0.401153
-0.399788
-0.398175
-0.396344
-0.39432
-0.392116
-0.389728
-0.387138
-0.384306
-0.381182
-0.377704
-0.373804
-0.369419
-0.364492
-0.358975
-0.352833
-0.346042
-0.338581
-0.330438
-0.321597
-0.312048
-0.301776
-0.290771
-0.279025
-0.266531
-0.25329
-0.239308
-0.224597
-0.209177
-0.193074
-0.176319
-0.158953
-0.141052
-0.363503
-0.365372
-0.367529
-0.369488
-0.37106
-0.372251
-0.373069
-0.37351
-0.373575
-0.373267
-0.372596
-0.37158
-0.370239
-0.3686
-0.366692
-0.364542
-0.362177
-0.359615
-0.356866
-0.353925
-0.350775
-0.347382
-0.343703
-0.339684
-0.33527
-0.330404
-0.325038
-0.319129
-0.312646
-0.305562
-0.297859
-0.289524
-0.280546
-0.270918
-0.260633
-0.249687
-0.238081
-0.225817
-0.212904
-0.199354
-0.185186
-0.170424
-0.155094
-0.139247
-0.122968
-0.335612
-0.337357
-0.339319
-0.341065
-0.342424
-0.343401
-0.344006
-0.344237
-0.344095
-0.343586
-0.342722
-0.341516
-0.339985
-0.338152
-0.336038
-0.333667
-0.331064
-0.328249
-0.325235
-0.322029
-0.318627
-0.315013
-0.311161
-0.307032
-0.302585
-0.297771
-0.292546
-0.286867
-0.280698
-0.27401
-0.266778
-0.258987
-0.250623
-0.241679
-0.23215
-0.222034
-0.211333
-0.200053
-0.188203
-0.175796
-0.162851
-0.149389
-0.135435
-0.121042
-0.106309
-0.307936
-0.309573
-0.311363
-0.312923
-0.314095
-0.314881
-0.315292
-0.31533
-0.315004
-0.314322
-0.313299
-0.311947
-0.310283
-0.308322
-0.306082
-0.303582
-0.30084
-0.297875
-0.294702
-0.291331
-0.287767
-0.284005
-0.280034
-0.27583
-0.271366
-0.266606
-0.261513
-0.256051
-0.250185
-0.243885
-0.237124
-0.229883
-0.222147
-0.213904
-0.205149
-0.195879
-0.186097
-0.175808
-0.165021
-0.15375
-0.142012
-0.129828
-0.117221
-0.10425
-0.091019
-0.280439
-0.281989
-0.283633
-0.285035
-0.28604
-0.286648
-0.286876
-0.286734
-0.286237
-0.285402
-0.284246
-0.282784
-0.281031
-0.278999
-0.276701
-0.274149
-0.271358
-0.268342
-0.265111
-0.261679
-0.258052
-0.254234
-0.250221
-0.246004
-0.241566
-0.236886
-0.231936
-0.22669
-0.221118
-0.215193
-0.20889
-0.202188
-0.195071
-0.187526
-0.179544
-0.171122
-0.162258
-0.152959
-0.143231
-0.133088
-0.122546
-0.111626
-0.100351
-0.0887832
-0.0770345
-0.253127
-0.254601
-0.256123
-0.257387
-0.258235
-0.258669
-0.258713
-0.258392
-0.257731
-0.256755
-0.255486
-0.253942
-0.252137
-0.250079
-0.247778
-0.245241
-0.242476
-0.239491
-0.236296
-0.2329
-0.22931
-0.225533
-0.22157
-0.21742
-0.213076
-0.208527
-0.203757
-0.198747
-0.193478
-0.187927
-0.182074
-0.175901
-0.16939
-0.16253
-0.155309
-0.147722
-0.139766
-0.131445
-0.122763
-0.113732
-0.10437
-0.0946964
-0.0847377
-0.0745574
-0.0642735
-0.226021
-0.227411
-0.228823
-0.229966
-0.230658
-0.230907
-0.230757
-0.23025
-0.229426
-0.228319
-0.226956
-0.225354
-0.223526
-0.22148
-0.219219
-0.216747
-0.214068
-0.211183
-0.2081
-0.204823
-0.20136
-0.197715
-0.193893
-0.189898
-0.185728
-0.181381
-0.176849
-0.172121
-0.167187
-0.16203
-0.156638
-0.150994
-0.145085
-0.138899
-0.132426
-0.125659
-0.118594
-0.11123
-0.103572
-0.0956282
-0.0874166
-0.0789596
-0.0702886
-0.0614726
-0.0526299
-0.198835
-0.20033
-0.201703
-0.202763
-0.203292
-0.20333
-0.202961
-0.202256
-0.20127
-0.200044
-0.198605
-0.196971
-0.195149
-0.193145
-0.190959
-0.188592
-0.186041
-0.183308
-0.180394
-0.177301
-0.174035
-0.1706
-0.167002
-0.163244
-0.15933
-0.155261
-0.151036
-0.146652
-0.142102
-0.13738
-0.132476
-0.127381
-0.122084
-0.116575
-0.110846
-0.104888
-0.0986967
-0.0922678
-0.0856029
-0.0787093
-0.0716025
-0.0643099
-0.0568766
-0.0493878
-0.0419593
-0.170866
-0.173257
-0.174801
-0.17581
-0.176126
-0.175889
-0.175259
-0.17434
-0.173198
-0.171871
-0.170382
-0.168742
-0.166955
-0.165022
-0.162939
-0.160704
-0.158313
-0.155765
-0.15306
-0.150199
-0.147184
-0.144019
-0.140709
-0.137259
-0.133673
-0.129955
-0.126108
-0.122132
-0.118028
-0.113792
-0.109421
-0.104909
-0.10025
-0.0954352
-0.0904576
-0.0853089
-0.0799809
-0.074467
-0.068763
-0.0628705
-0.0568012
-0.050589
-0.0443092
-0.0380952
-0.0320625
-0.142824
-0.146589
-0.148323
-0.149136
-0.149083
-0.148463
-0.147523
-0.146388
-0.145112
-0.143718
-0.142215
-0.140603
-0.138879
-0.137041
-0.135082
-0.133
-0.13079
-0.128451
-0.125981
-0.123382
-0.120654
-0.117802
-0.114828
-0.11174
-0.10854
-0.105235
-0.101829
-0.0983263
-0.0947282
-0.0910364
-0.0872504
-0.0833677
-0.0793845
-0.0752951
-0.0710921
-0.0667659
-0.0623051
-0.0576962
-0.052926
-0.0479839
-0.0428684
-0.0376114
-0.0323412
-0.0273312
-0.0227156
-0.117617
-0.122404
-0.123505
-0.123121
-0.12225
-0.121154
-0.11993
-0.118634
-0.117284
-0.115875
-0.114397
-0.112842
-0.111202
-0.109472
-0.107648
-0.105725
-0.103703
-0.101578
-0.0993516
-0.0970248
-0.0945997
-0.0920794
-0.0894683
-0.0867712
-0.0839934
-0.0811408
-0.0782187
-0.0752325
-0.0721862
-0.0690831
-0.0659251
-0.0627122
-0.0594425
-0.0561121
-0.0527136
-0.049236
-0.0456624
-0.0419699
-0.0381302
-0.0341087
-0.0298473
-0.0252731
-0.020545
-0.0165481
-0.0135777
-0.0875227
-0.108937
-0.10614
-0.0997042
-0.0963477
-0.0945405
-0.0930745
-0.0916827
-0.0903148
-0.0889325
-0.0875079
-0.0860259
-0.0844785
-0.0828612
-0.0811713
-0.0794076
-0.0775697
-0.0756583
-0.0736751
-0.0716222
-0.0695027
-0.0673206
-0.0650806
-0.0627879
-0.0604482
-0.0580671
-0.055651
-0.0532056
-0.0507365
-0.0482484
-0.0457451
-0.0432291
-0.0407013
-0.0381599
-0.0355996
-0.0330087
-0.0303647
-0.0276296
-0.0247452
-0.0216096
-0.0179371
-0.0130504
-0.00676969
-0.00314888
-0.0031128
-0.0153577
-0.117175
-0.0950578
-0.0747843
-0.0674485
-0.0642299
-0.0620417
-0.0602926
-0.0587724
-0.0573475
-0.0559453
-0.0545304
-0.0530857
-0.051603
-0.0500791
-0.0485134
-0.0469067
-0.0452613
-0.0435803
-0.0418676
-0.0401275
-0.0383649
-0.0365851
-0.034794
-0.0329976
-0.0312021
-0.0294137
-0.0276387
-0.025883
-0.0241521
-0.0224506
-0.0207823
-0.0191487
-0.0175481
-0.0159731
-0.0144056
-0.0128083
-0.0111095
-0.00918333
-0.00679902
-0.00335941
0.00274091
0.0127619
0.0143811
0.00937808
)
;

boundaryField
{
    leftWall
    {
        type            fixedFluxPressure;
        gradient        uniform 0;
        value           nonuniform List<scalar> 
42
(
-1.208
-1.19437
-1.17726
-1.15722
-1.1346
-1.10977
-1.08313
-1.05505
-1.02586
-0.995849
-0.965232
-0.934193
-0.902899
-0.871506
-0.84015
-0.808933
-0.777916
-0.747117
-0.716525
-0.686111
-0.655848
-0.625722
-0.595736
-0.565906
-0.53626
-0.506827
-0.477634
-0.448701
-0.420036
-0.391639
-0.363503
-0.335612
-0.307936
-0.280439
-0.253127
-0.226021
-0.198835
-0.170866
-0.142824
-0.117617
-0.0875227
-0.0153577
)
;
    }
    rightWall
    {
        type            fixedFluxPressure;
        gradient        nonuniform 0();
        value           nonuniform 0();
    }
    lowerWall
    {
        type            fixedFluxPressure;
        gradient        nonuniform 0();
        value           nonuniform 0();
    }
    atmosphere
    {
        type            totalPressure;
        rho             rho;
        psi             none;
        gamma           1;
        p0              uniform 0;
        value           nonuniform List<scalar> 
45
(
-0.0138527
-0.0510412
-0.0490551
-0.0465454
-0.0445414
-0.0428254
-0.0412951
-0.0398802
-0.0385288
-0.0372046
-0.035884
-0.0345525
-0.0332017
-0.0318276
-0.0304289
-0.0290065
-0.0275626
-0.0261006
-0.0246246
-0.0231395
-0.0216505
-0.0201633
-0.0186839
-0.0172185
-0.0157734
-0.014355
-0.01297
-0.0116246
-0.0103253
-0.00907825
-0.00788952
-0.00676494
-0.00571014
-0.00473046
-0.003831
-0.00301659
-0.00229189
-0.00166141
-0.00112951
-0.000700328
-0.000377662
-0.000164476
-5.72066e-05
0
0
)
;
    }
    defaultFaces
    {
        type            empty;
    }
    procBoundary2to0
    {
        type            processor;
        value           nonuniform List<scalar> 
46
(
-1.80316
-1.85629
-1.91056
-1.96562
-2.02135
-2.07787
-2.13545
-2.19435
-2.25474
-2.31668
-2.38021
-2.44555
-2.51319
-2.58386
-2.65849
-2.73805
-2.82359
-2.9165
-3.0189
-3.13382
-3.26505
-3.41676
-3.59202
-3.78852
-3.99333
-1.21813
-1.22446
-1.22989
-1.2382
-1.24915
-1.263
-1.27995
-1.30005
-1.32322
-1.34929
-1.378
-1.40906
-1.44221
-1.47727
-1.51416
-1.55292
-1.59366
-1.63655
-1.68167
-1.72892
-1.72892
)
;
    }
    procBoundary2to3
    {
        type            processor;
        value           nonuniform List<scalar> 
43
(
-3.95736
-3.71807
-3.42026
-3.06774
-2.70267
-2.36016
-2.05616
-1.79402
-1.57031
-1.37931
-1.21528
-1.07348
-0.950177
-0.84247
-0.748205
-0.665745
-0.593673
-0.53069
-0.475606
-0.427288
-0.384614
-0.346538
-0.312187
-0.280929
-0.25236
-0.226184
-0.202129
-0.179943
-0.159401
-0.140334
-0.122645
-0.1063
-0.091289
-0.0775938
-0.0651767
-0.0539659
-0.0438467
-0.0346637
-0.026231
-0.018374
-0.0109093
-0.00295314
0.00586784
)
;
    }
}


// ************************************************************************* //
