/*--------------------------------*- C++ -*----------------------------------*\
| =========                 |                                                 |
| \\      /  F ield         | OpenFOAM: The Open Source CFD Toolbox           |
|  \\    /   O peration     | Version:  5.0                                   |
|   \\  /    A nd           | Web:      www.OpenFOAM.org                      |
|    \\/     M anipulation  |                                                 |
\*---------------------------------------------------------------------------*/
FoamFile
{
    version     2.0;
    format      ascii;
    class       volVectorField;
    location    "0.3";
    object      U;
}
// * * * * * * * * * * * * * * * * * * * * * * * * * * * * * * * * * * * * * //

dimensions      [0 1 -1 0 0 0 0];

internalField   nonuniform List<vector> 
1915
(
(-0.0651102 -0.675825 0)
(-0.0806952 -0.649379 0)
(-0.0971466 -0.620296 0)
(-0.114226 -0.588886 0)
(-0.131679 -0.555586 0)
(-0.149238 -0.520948 0)
(-0.166634 -0.485637 0)
(-0.183606 -0.450416 0)
(-0.199923 -0.41613 0)
(-0.215396 -0.383693 0)
(-0.229902 -0.354068 0)
(-0.243396 -0.328251 0)
(-0.255921 -0.307252 0)
(-0.267622 -0.292075 0)
(-0.278763 -0.283712 0)
(-0.28974 -0.283132 0)
(-0.301089 -0.291254 0)
(-0.313486 -0.308858 0)
(-0.327712 -0.336364 0)
(-0.344494 -0.373367 0)
(-0.364133 -0.417735 0)
(-0.385908 -0.463959 0)
(-0.40688 -0.50052 0)
(-0.419729 -0.506397 0)
(-0.41097 -0.448845 0)
(-0.000959682 -0.860693 0)
(-0.00250441 -0.877642 0)
(-0.00519181 -0.869381 0)
(-0.00659751 -0.858882 0)
(-0.00762151 -0.848683 0)
(-0.00843266 -0.839282 0)
(-0.00925011 -0.830758 0)
(-0.0102983 -0.823028 0)
(-0.0117945 -0.81591 0)
(-0.0139424 -0.80915 0)
(-0.0169274 -0.802435 0)
(-0.0209128 -0.795411 0)
(-0.0260361 -0.787699 0)
(-0.0324059 -0.778906 0)
(-0.040099 -0.768646 0)
(-0.0491577 -0.756556 0)
(-0.0595864 -0.742314 0)
(-0.0713529 -0.725654 0)
(-0.084386 -0.706381 0)
(-0.0985674 -0.684395 0)
(-0.113747 -0.659683 0)
(-0.129747 -0.632354 0)
(-0.146353 -0.602623 0)
(-0.163333 -0.570824 0)
(-0.180446 -0.537406 0)
(-0.197444 -0.50292 0)
(-0.214089 -0.468017 0)
(-0.230165 -0.433431 0)
(-0.245496 -0.399963 0)
(-0.259962 -0.368467 0)
(-0.273517 -0.339831 0)
(-0.286204 -0.314955 0)
(-0.298161 -0.294735 0)
(-0.309644 -0.280048 0)
(-0.321043 -0.271739 0)
(-0.332902 -0.270619 0)
(-0.34593 -0.277439 0)
(-0.36101 -0.292831 0)
(-0.379183 -0.317154 0)
(-0.401557 -0.350178 0)
(-0.428984 -0.390466 0)
(-0.461505 -0.434241 0)
(-0.497207 -0.473525 0)
(-0.529922 -0.493224 0)
(-0.546718 -0.468066 0)
(-0.00363595 -0.856599 0)
(-0.00841169 -0.873381 0)
(-0.0136885 -0.865836 0)
(-0.0180766 -0.855934 0)
(-0.0220322 -0.846121 0)
(-0.0257065 -0.836875 0)
(-0.0293097 -0.828273 0)
(-0.0330577 -0.820234 0)
(-0.0371578 -0.812589 0)
(-0.0418027 -0.805099 0)
(-0.0471659 -0.797475 0)
(-0.0533984 -0.78939 0)
(-0.0606245 -0.780493 0)
(-0.0689389 -0.770425 0)
(-0.0784033 -0.758837 0)
(-0.0890444 -0.745403 0)
(-0.100852 -0.72984 0)
(-0.113779 -0.711924 0)
(-0.12774 -0.6915 0)
(-0.14261 -0.668501 0)
(-0.158232 -0.642962 0)
(-0.174421 -0.615012 0)
(-0.19097 -0.584892 0)
(-0.20766 -0.552951 0)
(-0.224265 -0.519639 0)
(-0.240565 -0.485501 0)
(-0.256357 -0.451163 0)
(-0.271467 -0.417322 0)
(-0.285773 -0.384723 0)
(-0.299218 -0.35415 0)
(-0.311826 -0.326401 0)
(-0.323708 -0.302273 0)
(-0.335081 -0.282541 0)
(-0.346279 -0.267946 0)
(-0.357781 -0.259178 0)
(-0.370226 -0.256866 0)
(-0.384433 -0.261564 0)
(-0.401405 -0.273697 0)
(-0.42235 -0.293479 0)
(-0.44861 -0.320716 0)
(-0.481446 -0.354406 0)
(-0.521689 -0.392032 0)
(-0.568799 -0.428444 0)
(-0.619189 -0.453949 0)
(-0.663859 -0.45205 0)
(-0.00556056 -0.848982 0)
(-0.0133395 -0.865788 0)
(-0.0212596 -0.859116 0)
(-0.0283719 -0.8499 0)
(-0.035033 -0.840545 0)
(-0.0413595 -0.831528 0)
(-0.0475502 -0.822927 0)
(-0.0538102 -0.81467 0)
(-0.0603343 -0.8066 0)
(-0.0673012 -0.798495 0)
(-0.07487 -0.79009 0)
(-0.0831761 -0.781085 0)
(-0.0923285 -0.771158 0)
(-0.102406 -0.759985 0)
(-0.113454 -0.747253 0)
(-0.125485 -0.732675 0)
(-0.138473 -0.716006 0)
(-0.15236 -0.697062 0)
(-0.167049 -0.675727 0)
(-0.182408 -0.65197 0)
(-0.198279 -0.625853 0)
(-0.214479 -0.597533 0)
(-0.230812 -0.567269 0)
(-0.247073 -0.535414 0)
(-0.263059 -0.502414 0)
(-0.27858 -0.468795 0)
(-0.293469 -0.435154 0)
(-0.307596 -0.402139 0)
(-0.320887 -0.370434 0)
(-0.333338 -0.340745 0)
(-0.345029 -0.313778 0)
(-0.356127 -0.29022 0)
(-0.366904 -0.270723 0)
(-0.377747 -0.255889 0)
(-0.389184 -0.24625 0)
(-0.401903 -0.24226 0)
(-0.416753 -0.244265 0)
(-0.434772 -0.252472 0)
(-0.457213 -0.266894 0)
(-0.48551 -0.287226 0)
(-0.521135 -0.31262 0)
(-0.565447 -0.34127 0)
(-0.619096 -0.369728 0)
(-0.680995 -0.391946 0)
(-0.746805 -0.397786 0)
(-0.00711936 -0.837919 0)
(-0.0175245 -0.855242 0)
(-0.0278822 -0.849481 0)
(-0.0374592 -0.841 0)
(-0.0465772 -0.832156 0)
(-0.0553207 -0.823427 0)
(-0.0638752 -0.814895 0)
(-0.0724337 -0.8065 0)
(-0.0811761 -0.798098 0)
(-0.0902651 -0.789487 0)
(-0.0998431 -0.780426 0)
(-0.110029 -0.770641 0)
(-0.120913 -0.759843 0)
(-0.132559 -0.747742 0)
(-0.144997 -0.734059 0)
(-0.158223 -0.718544 0)
(-0.172201 -0.700992 0)
(-0.186859 -0.681254 0)
(-0.202093 -0.659249 0)
(-0.217771 -0.634978 0)
(-0.233734 -0.608528 0)
(-0.249808 -0.580077 0)
(-0.265808 -0.549893 0)
(-0.28155 -0.518328 0)
(-0.296855 -0.485817 0)
(-0.311564 -0.452861 0)
(-0.325546 -0.420018 0)
(-0.338711 -0.387885 0)
(-0.351029 -0.357079 0)
(-0.362538 -0.328227 0)
(-0.373361 -0.30194 0)
(-0.383705 -0.278799 0)
(-0.393875 -0.259336 0)
(-0.404285 -0.24402 0)
(-0.41548 -0.233235 0)
(-0.428145 -0.227263 0)
(-0.44311 -0.226265 0)
(-0.461368 -0.230243 0)
(-0.484104 -0.239007 0)
(-0.512684 -0.252083 0)
(-0.548568 -0.268578 0)
(-0.593242 -0.286962 0)
(-0.647909 -0.304625 0)
(-0.712921 -0.317422 0)
(-0.786913 -0.318762 0)
(-0.00838955 -0.824021 0)
(-0.0210515 -0.841979 0)
(-0.0335751 -0.837179 0)
(-0.0453383 -0.829469 0)
(-0.0566465 -0.821176 0)
(-0.0675533 -0.812781 0)
(-0.0782296 -0.804377 0)
(-0.0888542 -0.795915 0)
(-0.0995906 -0.787269 0)
(-0.110584 -0.778258 0)
(-0.121959 -0.768664 0)
(-0.133817 -0.758241 0)
(-0.14623 -0.746731 0)
(-0.159246 -0.733878 0)
(-0.172877 -0.719437 0)
(-0.187109 -0.703194 0)
(-0.201893 -0.684979 0)
(-0.217149 -0.664676 0)
(-0.232769 -0.642236 0)
(-0.248621 -0.617686 0)
(-0.264552 -0.591133 0)
(-0.280396 -0.562769 0)
(-0.295986 -0.532865 0)
(-0.311157 -0.501768 0)
(-0.325758 -0.469894 0)
(-0.339659 -0.437714 0)
(-0.352763 -0.405745 0)
(-0.365016 -0.374526 0)
(-0.376423 -0.344611 0)
(-0.387058 -0.316546 0)
(-0.397072 -0.290851 0)
(-0.406697 -0.268007 0)
(-0.416251 -0.248436 0)
(-0.426152 -0.232484 0)
(-0.436932 -0.220405 0)
(-0.449239 -0.212334 0)
(-0.46384 -0.208272 0)
(-0.481629 -0.208056 0)
(-0.503649 -0.211319 0)
(-0.531074 -0.217436 0)
(-0.565163 -0.225423 0)
(-0.607228 -0.233819 0)
(-0.658461 -0.24043 0)
(-0.719498 -0.242079 0)
(-0.79021 -0.234043 0)
(-0.00942311 -0.807684 0)
(-0.0239853 -0.826309 0)
(-0.0383673 -0.82249 0)
(-0.0520258 -0.815569 0)
(-0.0652464 -0.80785 0)
(-0.0780518 -0.799823 0)
(-0.0905967 -0.791595 0)
(-0.103044 -0.783132 0)
(-0.115538 -0.774324 0)
(-0.128208 -0.765013 0)
(-0.141159 -0.755005 0)
(-0.154473 -0.744083 0)
(-0.168207 -0.732019 0)
(-0.182391 -0.718586 0)
(-0.197024 -0.703576 0)
(-0.212079 -0.686807 0)
(-0.227498 -0.66814 0)
(-0.243196 -0.64749 0)
(-0.259064 -0.624835 0)
(-0.274971 -0.600223 0)
(-0.290771 -0.573777 0)
(-0.306313 -0.545694 0)
(-0.321445 -0.516246 0)
(-0.336026 -0.485767 0)
(-0.349928 -0.454651 0)
(-0.363051 -0.423337 0)
(-0.375329 -0.392294 0)
(-0.386738 -0.362009 0)
(-0.397311 -0.332969 0)
(-0.407147 -0.305644 0)
(-0.416414 -0.280471 0)
(-0.425355 -0.25784 0)
(-0.434288 -0.238074 0)
(-0.443615 -0.221414 0)
(-0.453829 -0.208004 0)
(-0.465521 -0.197865 0)
(-0.479365 -0.190875 0)
(-0.49613 -0.186747 0)
(-0.516674 -0.184999 0)
(-0.54193 -0.184902 0)
(-0.572866 -0.185428 0)
(-0.610459 -0.185166 0)
(-0.655592 -0.182187 0)
(-0.70869 -0.173915 0)
(-0.769675 -0.15687 0)
(-0.0102421 -0.789305 0)
(-0.0263623 -0.808562 0)
(-0.0422911 -0.805714 0)
(-0.0575506 -0.79958 0)
(-0.0724019 -0.792442 0)
(-0.0868372 -0.784805 0)
(-0.100992 -0.776791 0)
(-0.115012 -0.768381 0)
(-0.129025 -0.759487 0)
(-0.143138 -0.749971 0)
(-0.157439 -0.739663 0)
(-0.171993 -0.728374 0)
(-0.18684 -0.715905 0)
(-0.201994 -0.70206 0)
(-0.217443 -0.686661 0)
(-0.233148 -0.669556 0)
(-0.249044 -0.650636 0)
(-0.265045 -0.629841 0)
(-0.28104 -0.607173 0)
(-0.296904 -0.582695 0)
(-0.312501 -0.55654 0)
(-0.327692 -0.52891 0)
(-0.342345 -0.500067 0)
(-0.356337 -0.470331 0)
(-0.369567 -0.440071 0)
(-0.381961 -0.409688 0)
(-0.393477 -0.379608 0)
(-0.404118 -0.350264 0)
(-0.413938 -0.322081 0)
(-0.423051 -0.295459 0)
(-0.431634 -0.27076 0)
(-0.439928 -0.248292 0)
(-0.448238 -0.228295 0)
(-0.456938 -0.210926 0)
(-0.466472 -0.196241 0)
(-0.477353 -0.184175 0)
(-0.490158 -0.174526 0)
(-0.505513 -0.166932 0)
(-0.524094 -0.160848 0)
(-0.546588 -0.155513 0)
(-0.57367 -0.149914 0)
(-0.605959 -0.142742 0)
(-0.643962 -0.132319 0)
(-0.687768 -0.116539 0)
(-0.73704 -0.0928291 0)
(-0.0108613 -0.76925 0)
(-0.0282095 -0.789071 0)
(-0.0453801 -0.787156 0)
(-0.0619507 -0.781786 0)
(-0.0781545 -0.775222 0)
(-0.0939527 -0.767985 0)
(-0.109461 -0.760212 0)
(-0.124805 -0.751904 0)
(-0.140095 -0.742991 0)
(-0.155419 -0.733357 0)
(-0.170846 -0.722856 0)
(-0.186425 -0.711324 0)
(-0.202181 -0.698591 0)
(-0.218113 -0.684489 0)
(-0.234199 -0.668867 0)
(-0.250393 -0.651604 0)
(-0.266623 -0.632612 0)
(-0.282802 -0.611857 0)
(-0.298822 -0.589356 0)
(-0.314564 -0.565185 0)
(-0.329904 -0.539483 0)
(-0.344716 -0.512449 0)
(-0.358884 -0.484336 0)
(-0.372306 -0.455445 0)
(-0.384904 -0.426114 0)
(-0.396625 -0.396713 0)
(-0.407451 -0.36762 0)
(-0.417402 -0.339219 0)
(-0.426549 -0.311876 0)
(-0.435012 -0.28593 0)
(-0.44297 -0.261676 0)
(-0.450653 -0.239355 0)
(-0.458347 -0.219138 0)
(-0.466387 -0.201113 0)
(-0.475163 -0.185274 0)
(-0.485107 -0.171499 0)
(-0.496695 -0.159538 0)
(-0.510421 -0.148997 0)
(-0.52679 -0.139321 0)
(-0.546278 -0.129767 0)
(-0.569308 -0.119395 0)
(-0.596201 -0.107042 0)
(-0.627135 -0.0912982 0)
(-0.661944 -0.0704721 0)
(-0.70005 -0.0426761 0)
(-0.0112881 -0.747873 0)
(-0.0295491 -0.768161 0)
(-0.0476705 -0.767119 0)
(-0.0652734 -0.762471 0)
(-0.0825603 -0.756461 0)
(-0.0994615 -0.749622 0)
(-0.116071 -0.74211 0)
(-0.132496 -0.733944 0)
(-0.148826 -0.725071 0)
(-0.165133 -0.715398 0)
(-0.181468 -0.704801 0)
(-0.197864 -0.693142 0)
(-0.214332 -0.680274 0)
(-0.23086 -0.666057 0)
(-0.247416 -0.650366 0)
(-0.263947 -0.633103 0)
(-0.280381 -0.614204 0)
(-0.296628 -0.59365 0)
(-0.312586 -0.571474 0)
(-0.328143 -0.54776 0)
(-0.343184 -0.522648 0)
(-0.3576 -0.49633 0)
(-0.371291 -0.469047 0)
(-0.384172 -0.441079 0)
(-0.396184 -0.412736 0)
(-0.407293 -0.384349 0)
(-0.417499 -0.356259 0)
(-0.426837 -0.328798 0)
(-0.435385 -0.302282 0)
(-0.443268 -0.276996 0)
(-0.450656 -0.253179 0)
(-0.457767 -0.231015 0)
(-0.464858 -0.210621 0)
(-0.472226 -0.192035 0)
(-0.480202 -0.175207 0)
(-0.489145 -0.159983 0)
(-0.499432 -0.146093 0)
(-0.511445 -0.133143 0)
(-0.52554 -0.1206 0)
(-0.542029 -0.107784 0)
(-0.561141 -0.0938569 0)
(-0.582986 -0.0778283 0)
(-0.60751 -0.0585488 0)
(-0.634375 -0.0347067 0)
(-0.662905 -0.00491892 0)
(-0.0115287 -0.725525 0)
(-0.0304057 -0.746152 0)
(-0.0492052 -0.745897 0)
(-0.0675765 -0.741916 0)
(-0.0856898 -0.736427 0)
(-0.103445 -0.729975 0)
(-0.120913 -0.722735 0)
(-0.138184 -0.714741 0)
(-0.155327 -0.705961 0)
(-0.172396 -0.696319 0)
(-0.189429 -0.685715 0)
(-0.206443 -0.674031 0)
(-0.223435 -0.661146 0)
(-0.240387 -0.646943 0)
(-0.257257 -0.631319 0)
(-0.273988 -0.614197 0)
(-0.290507 -0.595533 0)
(-0.306725 -0.575322 0)
(-0.322545 -0.553606 0)
(-0.337864 -0.530474 0)
(-0.352579 -0.506063 0)
(-0.366592 -0.480559 0)
(-0.379818 -0.454185 0)
(-0.39219 -0.427199 0)
(-0.403663 -0.399884 0)
(-0.41422 -0.372535 0)
(-0.423873 -0.345454 0)
(-0.432668 -0.31893 0)
(-0.440687 -0.293233 0)
(-0.448051 -0.268601 0)
(-0.454923 -0.245227 0)
(-0.461499 -0.223251 0)
(-0.46801 -0.202747 0)
(-0.474712 -0.183719 0)
(-0.481881 -0.166091 0)
(-0.489809 -0.149693 0)
(-0.498791 -0.134258 0)
(-0.509109 -0.119412 0)
(-0.521007 -0.10467 0)
(-0.534667 -0.0894318 0)
(-0.550186 -0.0729801 0)
(-0.567539 -0.0544933 0)
(-0.586539 -0.033059 0)
(-0.606763 -0.00768735 0)
(-0.627521 0.0225968 0)
(-0.0115919 -0.702546 0)
(-0.0308114 -0.72335 0)
(-0.0500369 -0.723775 0)
(-0.0689304 -0.720392 0)
(-0.0876283 -0.71538 0)
(-0.106001 -0.709298 0)
(-0.124099 -0.702333 0)
(-0.141991 -0.694536 0)
(-0.15973 -0.685892 0)
(-0.177354 -0.676343 0)
(-0.194884 -0.665809 0)
(-0.212327 -0.654193 0)
(-0.22967 -0.641394 0)
(-0.246884 -0.627317 0)
(-0.263923 -0.611879 0)
(-0.280728 -0.595021 0)
(-0.297224 -0.576714 0)
(-0.313326 -0.556964 0)
(-0.328944 -0.53582 0)
(-0.343982 -0.513372 0)
(-0.358347 -0.489753 0)
(-0.371955 -0.465136 0)
(-0.384733 -0.43973 0)
(-0.396628 -0.41377 0)
(-0.407608 -0.387509 0)
(-0.417668 -0.361212 0)
(-0.426829 -0.335142 0)
(-0.435143 -0.309551 0)
(-0.442693 -0.284669 0)
(-0.449596 -0.260694 0)
(-0.455999 -0.237782 0)
(-0.46208 -0.216036 0)
(-0.468041 -0.195504 0)
(-0.474099 -0.176166 0)
(-0.480483 -0.157932 0)
(-0.487424 -0.140631 0)
(-0.495149 -0.124012 0)
(-0.503862 -0.107735 0)
(-0.513721 -0.0913732 0)
(-0.524818 -0.0744132 0)
(-0.537162 -0.0562601 0)
(-0.55065 -0.0362504 0)
(-0.565034 -0.013673 0)
(-0.579877 0.0121965 0)
(-0.59454 0.0420378 0)
(-0.0114943 -0.679259 0)
(-0.0308083 -0.700047 0)
(-0.05023 -0.701026 0)
(-0.0694178 -0.698157 0)
(-0.0884748 -0.693573 0)
(-0.107245 -0.687835 0)
(-0.125756 -0.681142 0)
(-0.144059 -0.67356 0)
(-0.16219 -0.665088 0)
(-0.180172 -0.655685 0)
(-0.198014 -0.645288 0)
(-0.21571 -0.633819 0)
(-0.23324 -0.621197 0)
(-0.250568 -0.607343 0)
(-0.267644 -0.592192 0)
(-0.284407 -0.575701 0)
(-0.300784 -0.557852 0)
(-0.316694 -0.538661 0)
(-0.332051 -0.518178 0)
(-0.346771 -0.496494 0)
(-0.360768 -0.473735 0)
(-0.373971 -0.450062 0)
(-0.386317 -0.425665 0)
(-0.397765 -0.400757 0)
(-0.408292 -0.375566 0)
(-0.417903 -0.350325 0)
(-0.426626 -0.325265 0)
(-0.434514 -0.300603 0)
(-0.441649 -0.276536 0)
(-0.448138 -0.253227 0)
(-0.454117 -0.230803 0)
(-0.459743 -0.209341 0)
(-0.465189 -0.188869 0)
(-0.470638 -0.169354 0)
(-0.476278 -0.150702 0)
(-0.482289 -0.132752 0)
(-0.488843 -0.115276 0)
(-0.496084 -0.0979731 0)
(-0.504108 -0.0804792 0)
(-0.512949 -0.0623657 0)
(-0.522561 -0.0431496 0)
(-0.532803 -0.0223075 0)
(-0.543409 0.000702571 0)
(-0.553974 0.0263992 0)
(-0.563941 0.0552518 0)
(-0.0112607 -0.655957 0)
(-0.0304491 -0.67651 0)
(-0.0498587 -0.677904 0)
(-0.0691322 -0.675461 0)
(-0.0883401 -0.671247 0)
(-0.107303 -0.665822 0)
(-0.126027 -0.659393 0)
(-0.144545 -0.652037 0)
(-0.162878 -0.643765 0)
(-0.181036 -0.634551 0)
(-0.199017 -0.624349 0)
(-0.216804 -0.613095 0)
(-0.234371 -0.600723 0)
(-0.251677 -0.587174 0)
(-0.268669 -0.572395 0)
(-0.285286 -0.556355 0)
(-0.301457 -0.539046 0)
(-0.317106 -0.520489 0)
(-0.332153 -0.500737 0)
(-0.34652 -0.479877 0)
(-0.360135 -0.458027 0)
(-0.372931 -0.435335 0)
(-0.384859 -0.411973 0)
(-0.395885 -0.388132 0)
(-0.405996 -0.364016 0)
(-0.4152 -0.339829 0)
(-0.423528 -0.315773 0)
(-0.431037 -0.292037 0)
(-0.437801 -0.268785 0)
(-0.443921 -0.246156 0)
(-0.449517 -0.224252 0)
(-0.454725 -0.203132 0)
(-0.459696 -0.182809 0)
(-0.464582 -0.163246 0)
(-0.469532 -0.144353 0)
(-0.474689 -0.125982 0)
(-0.48018 -0.107934 0)
(-0.486104 -0.0899506 0)
(-0.492516 -0.071726 0)
(-0.49941 -0.0529095 0)
(-0.506716 -0.0331161 0)
(-0.514279 -0.0119392 0)
(-0.521841 0.0110215 0)
(-0.529047 0.0361352 0)
(-0.53543 0.0637196 0)
(-0.0109228 -0.632891 0)
(-0.0297934 -0.652985 0)
(-0.0490051 -0.654648 0)
(-0.0681753 -0.652534 0)
(-0.087344 -0.648629 0)
(-0.106311 -0.643481 0)
(-0.125064 -0.637302 0)
(-0.143617 -0.630176 0)
(-0.161979 -0.622126 0)
(-0.180147 -0.613138 0)
(-0.198107 -0.603175 0)
(-0.215838 -0.592191 0)
(-0.233305 -0.580133 0)
(-0.250465 -0.566954 0)
(-0.267265 -0.552613 0)
(-0.283642 -0.537091 0)
(-0.299529 -0.520385 0)
(-0.314855 -0.502521 0)
(-0.329545 -0.48355 0)
(-0.343531 -0.463556 0)
(-0.356747 -0.442646 0)
(-0.369137 -0.420956 0)
(-0.380657 -0.398641 0)
(-0.391282 -0.375871 0)
(-0.401003 -0.352826 0)
(-0.409834 -0.329686 0)
(-0.417807 -0.306626 0)
(-0.424974 -0.283808 0)
(-0.431407 -0.261375 0)
(-0.437195 -0.239442 0)
(-0.442445 -0.218092 0)
(-0.447275 -0.19737 0)
(-0.451812 -0.177283 0)
(-0.456183 -0.157791 0)
(-0.460509 -0.138814 0)
(-0.464898 -0.120224 0)
(-0.469445 -0.101847 0)
(-0.474215 -0.0834686 0)
(-0.479236 -0.0648364 0)
(-0.484481 -0.0456678 0)
(-0.489869 -0.0256603 0)
(-0.495246 -0.00450325 0)
(-0.500383 0.0180933 0)
(-0.504974 0.0423886 0)
(-0.508643 0.0685932 0)
(-0.0105137 -0.610267 0)
(-0.0289034 -0.629688 0)
(-0.0477539 -0.631473 0)
(-0.0666526 -0.629591 0)
(-0.0856109 -0.625929 0)
(-0.104413 -0.62102 0)
(-0.123026 -0.615072 0)
(-0.141452 -0.608177 0)
(-0.159685 -0.600362 0)
(-0.17771 -0.591625 0)
(-0.195508 -0.581939 0)
(-0.213048 -0.571269 0)
(-0.230293 -0.559573 0)
(-0.247198 -0.546815 0)
(-0.263706 -0.532965 0)
(-0.27976 -0.51801 0)
(-0.295294 -0.501953 0)
(-0.31024 -0.484821 0)
(-0.324534 -0.466666 0)
(-0.338111 -0.447562 0)
(-0.350913 -0.427609 0)
(-0.362892 -0.40693 0)
(-0.374012 -0.385661 0)
(-0.384251 -0.363956 0)
(-0.393606 -0.341971 0)
(-0.40209 -0.319864 0)
(-0.409737 -0.297788 0)
(-0.416595 -0.275883 0)
(-0.422729 -0.25427 0)
(-0.428219 -0.233047 0)
(-0.433157 -0.212283 0)
(-0.437646 -0.192014 0)
(-0.441792 -0.172242 0)
(-0.445701 -0.152931 0)
(-0.44947 -0.13401 0)
(-0.453182 -0.115371 0)
(-0.456905 -0.0968685 0)
(-0.460684 -0.078327 0)
(-0.464525 -0.0595421 0)
(-0.468394 -0.0402897 0)
(-0.472207 -0.0203349 0)
(-0.475824 0.000555806 0)
(-0.479045 0.0225886 0)
(-0.481617 0.0459425 0)
(-0.483244 0.0707532 0)
(-0.0100637 -0.588242 0)
(-0.0278389 -0.606804 0)
(-0.0461881 -0.608573 0)
(-0.0646684 -0.606825 0)
(-0.0832652 -0.603342 0)
(-0.10175 -0.598629 0)
(-0.120076 -0.592891 0)
(-0.138228 -0.58622 0)
(-0.15619 -0.578649 0)
(-0.173938 -0.570181 0)
(-0.191445 -0.560798 0)
(-0.208676 -0.550474 0)
(-0.225591 -0.539178 0)
(-0.242141 -0.526879 0)
(-0.258273 -0.513557 0)
(-0.273929 -0.499204 0)
(-0.289047 -0.483827 0)
(-0.303566 -0.467453 0)
(-0.317426 -0.45013 0)
(-0.330568 -0.431927 0)
(-0.342942 -0.412935 0)
(-0.354506 -0.393262 0)
(-0.365228 -0.37303 0)
(-0.375092 -0.352375 0)
(-0.384096 -0.331432 0)
(-0.392255 -0.310342 0)
(-0.399599 -0.289235 0)
(-0.406173 -0.268233 0)
(-0.412035 -0.24744 0)
(-0.417256 -0.22694 0)
(-0.421915 -0.20679 0)
(-0.426098 -0.187023 0)
(-0.429897 -0.167637 0)
(-0.433397 -0.148603 0)
(-0.436677 -0.129859 0)
(-0.439802 -0.111315 0)
(-0.44282 -0.0928558 0)
(-0.44576 -0.0743376 0)
(-0.448617 -0.0555988 0)
(-0.451354 -0.0364644 0)
(-0.453892 -0.016755 0)
(-0.456108 0.00370276 0)
(-0.457832 0.0250524 0)
(-0.45886 0.0474134 0)
(-0.458964 0.0708709 0)
(-0.0095957 -0.566931 0)
(-0.0266519 -0.584492 0)
(-0.0443846 -0.586118 0)
(-0.0623221 -0.584412 0)
(-0.0804274 -0.581042 0)
(-0.0984639 -0.576482 0)
(-0.116371 -0.570929 0)
(-0.134121 -0.564471 0)
(-0.151688 -0.557145 0)
(-0.169041 -0.548957 0)
(-0.186145 -0.539896 0)
(-0.202963 -0.529941 0)
(-0.219452 -0.519068 0)
(-0.235562 -0.507255 0)
(-0.251242 -0.494486 0)
(-0.266435 -0.480756 0)
(-0.281084 -0.466076 0)
(-0.295133 -0.45047 0)
(-0.308525 -0.433985 0)
(-0.321209 -0.416682 0)
(-0.333141 -0.398642 0)
(-0.344283 -0.379962 0)
(-0.354609 -0.360749 0)
(-0.364104 -0.341121 0)
(-0.372769 -0.321199 0)
(-0.380616 -0.301102 0)
(-0.387674 -0.280946 0)
(-0.393985 -0.260835 0)
(-0.399598 -0.240859 0)
(-0.404575 -0.221091 0)
(-0.408983 -0.201581 0)
(-0.412896 -0.182356 0)
(-0.416389 -0.163417 0)
(-0.419533 -0.144739 0)
(-0.422392 -0.126274 0)
(-0.425016 -0.107948 0)
(-0.427441 -0.0896674 0)
(-0.429683 -0.0713207 0)
(-0.431733 -0.0527815 0)
(-0.433554 -0.0339155 0)
(-0.435075 -0.0145876 0)
(-0.436191 0.0053283 0)
(-0.436762 0.0259297 0)
(-0.436624 0.047292 0)
(-0.435603 0.069466 0)
(-0.00912395 -0.546416 0)
(-0.0253852 -0.562877 0)
(-0.0424108 -0.564251 0)
(-0.0597045 -0.562502 0)
(-0.0772098 -0.559183 0)
(-0.0946868 -0.554734 0)
(-0.112063 -0.549339 0)
(-0.129302 -0.54308 0)
(-0.146368 -0.535995 0)
(-0.163223 -0.528091 0)
(-0.179829 -0.519361 0)
(-0.196145 -0.509789 0)
(-0.212125 -0.499355 0)
(-0.227722 -0.488042 0)
(-0.242884 -0.475838 0)
(-0.257559 -0.462742 0)
(-0.271693 -0.448763 0)
(-0.285233 -0.433927 0)
(-0.298129 -0.418273 0)
(-0.310335 -0.401858 0)
(-0.321811 -0.384753 0)
(-0.332524 -0.367042 0)
(-0.342451 -0.348822 0)
(-0.35158 -0.330193 0)
(-0.359912 -0.311263 0)
(-0.367458 -0.292134 0)
(-0.374244 -0.272907 0)
(-0.380305 -0.253672 0)
(-0.385687 -0.234508 0)
(-0.390442 -0.215476 0)
(-0.394626 -0.196623 0)
(-0.398301 -0.177973 0)
(-0.401529 -0.15953 0)
(-0.404369 -0.141275 0)
(-0.406871 -0.12317 0)
(-0.409077 -0.105158 0)
(-0.411011 -0.0871649 0)
(-0.412684 -0.0691049 0)
(-0.414083 -0.0508815 0)
(-0.415176 -0.0323935 0)
(-0.4159 -0.0135413 0)
(-0.416168 0.00576523 0)
(-0.415867 0.0255895 0)
(-0.414867 0.0459748 0)
(-0.413032 0.0669487 0)
(-0.00865564 -0.526751 0)
(-0.0240721 -0.542058 0)
(-0.0403251 -0.543091 0)
(-0.0568967 -0.541224 0)
(-0.0737159 -0.537899 0)
(-0.0905428 -0.53352 0)
(-0.107297 -0.528254 0)
(-0.123933 -0.522178 0)
(-0.140408 -0.515325 0)
(-0.15668 -0.507703 0)
(-0.172707 -0.499307 0)
(-0.188445 -0.490123 0)
(-0.203848 -0.480135 0)
(-0.21887 -0.469328 0)
(-0.233461 -0.457693 0)
(-0.247571 -0.44523 0)
(-0.26115 -0.431948 0)
(-0.27415 -0.41787 0)
(-0.286524 -0.403032 0)
(-0.298233 -0.387483 0)
(-0.309239 -0.371287 0)
(-0.319515 -0.354517 0)
(-0.329041 -0.337256 0)
(-0.337805 -0.319594 0)
(-0.345807 -0.301622 0)
(-0.353059 -0.283432 0)
(-0.359581 -0.265108 0)
(-0.365405 -0.246731 0)
(-0.370569 -0.228368 0)
(-0.375118 -0.210075 0)
(-0.3791 -0.191891 0)
(-0.382567 -0.173842 0)
(-0.385568 -0.155932 0)
(-0.388151 -0.13815 0)
(-0.390358 -0.120469 0)
(-0.392221 -0.102845 0)
(-0.393759 -0.0852219 0)
(-0.394977 -0.0675353 0)
(-0.395864 -0.0497129 0)
(-0.39639 -0.0316803 0)
(-0.396504 -0.0133656 0)
(-0.396134 0.00529362 0)
(-0.39519 0.0243359 0)
(-0.393572 0.0437826 0)
(-0.39117 0.0636445 0)
(-0.00819366 -0.507971 0)
(-0.0227392 -0.522106 0)
(-0.0381771 -0.522729 0)
(-0.0539708 -0.520681 0)
(-0.070039 -0.5173 0)
(-0.0861457 -0.512952 0)
(-0.102205 -0.507788 0)
(-0.118165 -0.501876 0)
(-0.133977 -0.495245 0)
(-0.149597 -0.487899 0)
(-0.164978 -0.479834 0)
(-0.180076 -0.471037 0)
(-0.194846 -0.461493 0)
(-0.209242 -0.451189 0)
(-0.223217 -0.440118 0)
(-0.236723 -0.428279 0)
(-0.249715 -0.41568 0)
(-0.262147 -0.402343 0)
(-0.27398 -0.388297 0)
(-0.285175 -0.373587 0)
(-0.295701 -0.358267 0)
(-0.305532 -0.342402 0)
(-0.314651 -0.326064 0)
(-0.323049 -0.309329 0)
(-0.330723 -0.292279 0)
(-0.337684 -0.274992 0)
(-0.343948 -0.257544 0)
(-0.349542 -0.240002 0)
(-0.354499 -0.222427 0)
(-0.358857 -0.204868 0)
(-0.362656 -0.18736 0)
(-0.365938 -0.169928 0)
(-0.368745 -0.15258 0)
(-0.371115 -0.135311 0)
(-0.373082 -0.118102 0)
(-0.374671 -0.100921 0)
(-0.375896 -0.0837299 0)
(-0.376761 -0.0664794 0)
(-0.377255 -0.0491179 0)
(-0.377353 -0.0315923 0)
(-0.377015 -0.0138525 0)
(-0.37618 0.00414311 0)
(-0.374781 0.0224154 0)
(-0.372739 0.0409708 0)
(-0.369968 0.0598079 0)
(-0.00773969 -0.490097 0)
(-0.021409 -0.503067 0)
(-0.0360101 -0.503231 0)
(-0.0509907 -0.500953 0)
(-0.0662631 -0.497473 0)
(-0.0815986 -0.493124 0)
(-0.0969084 -0.488037 0)
(-0.112136 -0.482271 0)
(-0.127229 -0.475847 0)
(-0.142141 -0.468768 0)
(-0.156824 -0.461026 0)
(-0.171234 -0.452609 0)
(-0.185326 -0.443503 0)
(-0.199055 -0.433693 0)
(-0.212377 -0.423174 0)
(-0.225249 -0.411943 0)
(-0.237627 -0.400007 0)
(-0.249471 -0.387385 0)
(-0.260744 -0.374102 0)
(-0.271413 -0.360196 0)
(-0.281448 -0.345715 0)
(-0.290828 -0.330715 0)
(-0.299536 -0.315256 0)
(-0.307564 -0.299408 0)
(-0.31491 -0.283239 0)
(-0.32158 -0.266818 0)
(-0.32759 -0.250211 0)
(-0.33296 -0.233478 0)
(-0.337718 -0.216672 0)
(-0.341896 -0.199837 0)
(-0.345527 -0.183006 0)
(-0.348646 -0.166202 0)
(-0.351287 -0.149436 0)
(-0.353481 -0.132707 0)
(-0.355255 -0.116005 0)
(-0.356629 -0.0993098 0)
(-0.357615 -0.0825935 0)
(-0.358214 -0.0658231 0)
(-0.358417 -0.0489626 0)
(-0.358204 -0.0319759 0)
(-0.357544 -0.0148299 0)
(-0.356387 0.00250153 0)
(-0.354684 0.0200268 0)
(-0.352373 0.0377422 0)
(-0.34939 0.0556375 0)
(-0.00729631 -0.473134 0)
(-0.0201021 -0.484962 0)
(-0.0338631 -0.484639 0)
(-0.0480134 -0.482096 0)
(-0.0624635 -0.478486 0)
(-0.076994 -0.474108 0)
(-0.0915157 -0.469077 0)
(-0.10597 -0.463438 0)
(-0.120302 -0.457208 0)
(-0.134465 -0.450384 0)
(-0.14841 -0.442955 0)
(-0.162094 -0.434908 0)
(-0.175472 -0.426226 0)
(-0.188504 -0.416897 0)
(-0.201147 -0.406911 0)
(-0.21336 -0.396266 0)
(-0.225105 -0.384968 0)
(-0.236344 -0.37303 0)
(-0.247044 -0.360475 0)
(-0.257175 -0.347336 0)
(-0.266711 -0.333652 0)
(-0.275633 -0.319471 0)
(-0.283925 -0.304848 0)
(-0.29158 -0.289841 0)
(-0.298595 -0.274509 0)
(-0.304975 -0.258913 0)
(-0.310732 -0.243111 0)
(-0.315881 -0.227157 0)
(-0.320446 -0.211096 0)
(-0.324453 -0.19497 0)
(-0.327928 -0.178808 0)
(-0.330901 -0.162634 0)
(-0.3334 -0.14646 0)
(-0.335449 -0.130289 0)
(-0.337071 -0.114119 0)
(-0.33828 -0.0979368 0)
(-0.339087 -0.0817256 0)
(-0.339493 -0.0654642 0)
(-0.339491 -0.0491295 0)
(-0.339064 -0.0326988 0)
(-0.338188 -0.0161519 0)
(-0.336826 0.000525412 0)
(-0.334939 0.0173333 0)
(-0.332481 0.0342605 0)
(-0.329407 0.0512908 0)
(-0.00686778 -0.457071 0)
(-0.0188383 -0.467795 0)
(-0.0317706 -0.466973 0)
(-0.0450893 -0.464144 0)
(-0.0587059 -0.460383 0)
(-0.0724127 -0.455957 0)
(-0.0861224 -0.450964 0)
(-0.0997755 -0.445439 0)
(-0.113319 -0.439389 0)
(-0.126702 -0.432807 0)
(-0.139881 -0.425679 0)
(-0.152811 -0.417987 0)
(-0.165451 -0.409714 0)
(-0.177762 -0.400846 0)
(-0.189705 -0.391372 0)
(-0.201243 -0.381288 0)
(-0.212339 -0.370597 0)
(-0.222961 -0.359309 0)
(-0.233078 -0.347444 0)
(-0.242663 -0.335028 0)
(-0.251694 -0.322096 0)
(-0.260152 -0.308689 0)
(-0.268024 -0.294853 0)
(-0.275302 -0.280639 0)
(-0.281983 -0.2661 0)
(-0.288071 -0.251287 0)
(-0.293574 -0.236251 0)
(-0.298504 -0.221041 0)
(-0.302879 -0.205698 0)
(-0.306721 -0.190259 0)
(-0.31005 -0.174752 0)
(-0.312891 -0.159201 0)
(-0.315266 -0.14362 0)
(-0.317196 -0.128016 0)
(-0.318698 -0.11239 0)
(-0.319785 -0.0967366 0)
(-0.320464 -0.0810481 0)
(-0.320736 -0.0653121 0)
(-0.320597 -0.0495158 0)
(-0.320035 -0.0336466 0)
(-0.319029 -0.0176945 0)
(-0.317553 -0.00165417 0)
(-0.315577 0.0144693 0)
(-0.313068 0.0306588 0)
(-0.309994 0.0468947 0)
(-0.00645986 -0.441883 0)
(-0.0176353 -0.451549 0)
(-0.0297624 -0.450236 0)
(-0.0422608 -0.447116 0)
(-0.0550456 -0.443194 0)
(-0.0679228 -0.438709 0)
(-0.0808086 -0.433743 0)
(-0.0936453 -0.428319 0)
(-0.10638 -0.422438 0)
(-0.118966 -0.416085 0)
(-0.131359 -0.409243 0)
(-0.143517 -0.401891 0)
(-0.155402 -0.394009 0)
(-0.166977 -0.385581 0)
(-0.178206 -0.376593 0)
(-0.189056 -0.36704 0)
(-0.199494 -0.356922 0)
(-0.20949 -0.346246 0)
(-0.219018 -0.335029 0)
(-0.228052 -0.323292 0)
(-0.236573 -0.311065 0)
(-0.244563 -0.298383 0)
(-0.252011 -0.285285 0)
(-0.258908 -0.271817 0)
(-0.265253 -0.258022 0)
(-0.271045 -0.243947 0)
(-0.276291 -0.229637 0)
(-0.281001 -0.215135 0)
(-0.285188 -0.200478 0)
(-0.288868 -0.185701 0)
(-0.292058 -0.170831 0)
(-0.294778 -0.15589 0)
(-0.297044 -0.140894 0)
(-0.298875 -0.125854 0)
(-0.300283 -0.110775 0)
(-0.30128 -0.0956566 0)
(-0.301871 -0.0804973 0)
(-0.302057 -0.0652924 0)
(-0.301837 -0.0500366 0)
(-0.301199 -0.0347254 0)
(-0.300131 -0.0193564 0)
(-0.298613 -0.00393073 0)
(-0.296621 0.0115428 0)
(-0.294135 0.0270434 0)
(-0.291129 0.0425497 0)
(-0.006079 -0.427529 0)
(-0.016508 -0.436194 0)
(-0.0278618 -0.434414 0)
(-0.0395607 -0.431012 0)
(-0.0515257 -0.426932 0)
(-0.0635773 -0.422386 0)
(-0.0756377 -0.417442 0)
(-0.087652 -0.412112 0)
(-0.0995708 -0.406389 0)
(-0.111349 -0.400255 0)
(-0.122945 -0.393685 0)
(-0.13432 -0.386656 0)
(-0.14544 -0.379144 0)
(-0.156269 -0.371131 0)
(-0.166777 -0.362601 0)
(-0.176932 -0.353547 0)
(-0.186707 -0.343966 0)
(-0.196073 -0.333862 0)
(-0.205007 -0.323249 0)
(-0.213488 -0.312145 0)
(-0.221495 -0.300574 0)
(-0.229015 -0.288566 0)
(-0.236036 -0.276157 0)
(-0.24255 -0.263384 0)
(-0.248554 -0.250286 0)
(-0.254047 -0.236904 0)
(-0.259034 -0.223278 0)
(-0.263521 -0.209445 0)
(-0.267518 -0.195442 0)
(-0.271037 -0.181298 0)
(-0.274092 -0.167041 0)
(-0.276697 -0.152692 0)
(-0.278866 -0.138269 0)
(-0.280612 -0.123784 0)
(-0.281946 -0.109246 0)
(-0.282878 -0.0946589 0)
(-0.283412 -0.0800263 0)
(-0.28355 -0.0653489 0)
(-0.283289 -0.0506275 0)
(-0.282624 -0.0358634 0)
(-0.281545 -0.0210598 0)
(-0.280038 -0.00622278 0)
(-0.278087 0.00863652 0)
(-0.275677 0.0234958 0)
(-0.272789 0.0383323 0)
(-0.00573103 -0.413956 0)
(-0.015466 -0.42169 0)
(-0.0260835 -0.419483 0)
(-0.0370101 -0.415825 0)
(-0.0481744 -0.411599 0)
(-0.0594127 -0.406999 0)
(-0.0706541 -0.402078 0)
(-0.0818484 -0.39684 0)
(-0.0929501 -0.391269 0)
(-0.103918 -0.385342 0)
(-0.114713 -0.379031 0)
(-0.125302 -0.372306 0)
(-0.135652 -0.365143 0)
(-0.145733 -0.35752 0)
(-0.155516 -0.349419 0)
(-0.164975 -0.340829 0)
(-0.174084 -0.331747 0)
(-0.18282 -0.322175 0)
(-0.19116 -0.312121 0)
(-0.199086 -0.301601 0)
(-0.20658 -0.290636 0)
(-0.213629 -0.279253 0)
(-0.220221 -0.26748 0)
(-0.22635 -0.255351 0)
(-0.23201 -0.242902 0)
(-0.237202 -0.230166 0)
(-0.241925 -0.217181 0)
(-0.246186 -0.203979 0)
(-0.24999 -0.190594 0)
(-0.253348 -0.177053 0)
(-0.256268 -0.163383 0)
(-0.258761 -0.149604 0)
(-0.260839 -0.135736 0)
(-0.262511 -0.121792 0)
(-0.263786 -0.107783 0)
(-0.264671 -0.0937176 0)
(-0.26517 -0.0796022 0)
(-0.265286 -0.0654421 0)
(-0.265017 -0.0512423 0)
(-0.26436 -0.0370087 0)
(-0.263308 -0.0227485 0)
(-0.261851 -0.00847113 0)
(-0.25998 0.00581049 0)
(-0.257684 0.0200743 0)
(-0.25495 0.0342969 0)
(-0.00541975 -0.401101 0)
(-0.0145119 -0.407993 0)
(-0.0244322 -0.405414 0)
(-0.0346172 -0.401535 0)
(-0.045005 -0.397189 0)
(-0.0554477 -0.39255 0)
(-0.0658828 -0.387659 0)
(-0.0762658 -0.382514 0)
(-0.0865563 -0.377093 0)
(-0.0967173 -0.371365 0)
(-0.106715 -0.365299 0)
(-0.116519 -0.358862 0)
(-0.126101 -0.352026 0)