/*--------------------------------*- C++ -*----------------------------------*\
| =========                 |                                                 |
| \\      /  F ield         | OpenFOAM: The Open Source CFD Toolbox           |
|  \\    /   O peration     | Version:  5.0                                   |
|   \\  /    A nd           | Web:      www.OpenFOAM.org                      |
|    \\/     M anipulation  |                                                 |
\*---------------------------------------------------------------------------*/
FoamFile
{
    version     2.0;
    format      ascii;
    class       volScalarField;
    location    "0.4";
    object      alpha.water;
}
// * * * * * * * * * * * * * * * * * * * * * * * * * * * * * * * * * * * * * //

dimensions      [0 0 0 0 0 0 0];

internalField   nonuniform List<scalar> 
1915
(
0.999988
0.999944
0.999984
0.999806
0.988303
0.999759
0.99585
0.999596
0.999972
1
0.999998
0.999997
1
0.999994
1
0.999997
1
1
1
1
5.23896e-24
3.85241e-23
4.10078e-23
7.12004e-24
4.76187e-25
2.5512e-26
1.06904e-27
3.81666e-29
2.49447e-30
6.47221e-30
1.7151e-29
2.17769e-29
8.30741e-30
3.75781e-30
1.87233e-32
6.43321e-33
4.37142e-32
7.06626e-32
1.97e-32
2.19306e-33
1.1688e-34
1.78217e-37
-4.39097e-41
-9.29062e-43
-4.57351e-45
-7.30354e-47
-9.96989e-49
5.72783e-45
6.87733e-46
1.55965e-47
3.89802e-49
9.23406e-51
1.90786e-52
3.29629e-54
4.52006e-56
4.56881e-58
3.04279e-60
1.1036e-62
1.53629e-65
3.77914e-69
5.83157e-22
7.89963e-22
4.75376e-22
1.10085e-22
1.21027e-23
1.24043e-24
1.0862e-25
7.78084e-27
9.21463e-28
1.4542e-27
3.64017e-27
4.4403e-27
2.74897e-27
1.51102e-27
4.67523e-28
1.63344e-28
6.49599e-29
2.10812e-29
4.1621e-30
4.6823e-31
2.47509e-32
4.86206e-34
8.36695e-36
2.65678e-37
7.46104e-39
2.08591e-40
5.9485e-42
1.89988e-43
6.16143e-44
2.39087e-45
4.9692e-47
1.17331e-48
2.43801e-50
4.25628e-52
5.94368e-54
6.14864e-56
4.18063e-58
1.53307e-60
2.41486e-63
2.42167e-66
1.64029e-20
1.53317e-20
8.87199e-21
2.58062e-21
3.84638e-22
5.86143e-23
7.72317e-24
8.51408e-25
1.33514e-25
1.68705e-25
3.75444e-25
4.33124e-25
3.39862e-25
1.97762e-25
8.4502e-26
3.19833e-26
1.04655e-26
2.62778e-27
4.49138e-28
4.96507e-29
3.05751e-30
8.26661e-32
1.41675e-33
4.53488e-35
1.24239e-36
3.31967e-38
9.09538e-40
2.65364e-41
4.38294e-42
1.46576e-43
3.35112e-45
7.72952e-47
1.57677e-48
2.72119e-50
3.75688e-52
3.78349e-54
2.82114e-56
1.50237e-58
3.44534e-61
1.82269e-66
2.06957e-19
2.05657e-19
1.36701e-19
4.80791e-20
9.47406e-21
2.10638e-21
3.9965e-22
6.7635e-23
1.62337e-23
1.43189e-23
2.61141e-23
2.80636e-23
2.48942e-23
1.4701e-23
6.92622e-24
2.67293e-24
8.22681e-25
1.90177e-25
3.09309e-26
3.44474e-27
2.38906e-28
7.19096e-30
1.25161e-31
4.11964e-33
1.12637e-34
2.91375e-36
7.63059e-38
2.07905e-39
1.87965e-40
7.56579e-42
1.81437e-43
4.04155e-45
8.01067e-47
1.33846e-48
1.75086e-50
2.30146e-52
2.25224e-54
1.43142e-56
4.28609e-59
3.88861e-64
1.88527e-18
2.28567e-18
1.87752e-18
7.76476e-19
1.85227e-19
5.42131e-20
1.40188e-20
3.55214e-21
1.15139e-21
8.46215e-22
1.36992e-21
1.38129e-21
1.27301e-21
7.5517e-22
3.67077e-22
1.41889e-22
4.25849e-23
9.56916e-24
1.54241e-24
1.76559e-25
1.31726e-26
4.25518e-28
7.6637e-30
2.63939e-31
7.40357e-33
1.90574e-34
4.86612e-36
1.26126e-37
5.43144e-39
3.5129e-40
9.09331e-42
1.90785e-43
3.64201e-45
5.70958e-47
1.01597e-48
1.42734e-50
1.51444e-52
1.08742e-54
3.95245e-57
5.33528e-62
1.36444e-17
1.94672e-17
1.83577e-17
8.01259e-18
2.25198e-18
8.24631e-19
2.69624e-19
8.42002e-20
3.33082e-20
3.60744e-20
5.60908e-20
5.60499e-20
4.9122e-20
2.94503e-20
1.4391e-20
5.53947e-21
1.645e-21
3.6775e-22
5.99593e-23
7.14487e-24
5.6175e-25
1.91054e-26
3.62439e-28
1.32257e-29
3.89128e-31
1.02351e-32
2.6086e-34
6.66529e-36
1.94712e-37
1.6154e-38
4.24382e-40
8.55364e-42
1.5543e-43
2.92822e-45
5.54901e-47
8.18235e-49
9.25285e-51
7.2179e-53
2.92618e-55
4.96722e-60
8.01647e-17
1.37372e-16
1.38163e-16
5.44451e-17
1.5672e-17
6.84034e-18
2.30868e-18
9.20436e-19
6.86184e-19
1.3178e-18
1.83687e-18
1.915e-18
1.51635e-18
9.18749e-19
4.46595e-19
1.7099e-19
5.06459e-20
1.14043e-20
1.90337e-21
2.37968e-22
1.94978e-23
6.92247e-25
1.3996e-26
5.45931e-28
1.71305e-29
4.71153e-31
1.22683e-32
3.1516e-34
9.05418e-36
7.17511e-37
1.87835e-38
3.71735e-40
6.42705e-42
1.4773e-43
2.9256e-45
4.4858e-47
5.32777e-49
4.38257e-51
1.86943e-53
3.55516e-58
3.35585e-16
6.07243e-16
5.99666e-16
2.09706e-16
7.51969e-17
3.25744e-17
1.24185e-17
9.2966e-18
2.11744e-17
4.01877e-17
5.08117e-17
5.28185e-17
3.92378e-17
2.35612e-17
1.1367e-17
4.34238e-18
1.29211e-18
2.9574e-19
5.09742e-20
6.70587e-21
5.70076e-22
2.09872e-23
4.55862e-25
1.91203e-26
6.47404e-28
1.89648e-29
5.15232e-31
1.35683e-32
3.92936e-34
3.06134e-35
8.07884e-37
1.57045e-38
3.04714e-40
7.24468e-42
1.49607e-43
2.38781e-45
2.95472e-47
2.53136e-49
1.12198e-51
2.33454e-56
1.03908e-15
2.08717e-15
1.84014e-15
6.61161e-16
3.49209e-16
1.97594e-16
1.55356e-16
2.92898e-16
6.77294e-16
1.08285e-15
1.24162e-15
1.20841e-15
8.48448e-16
4.96342e-16
2.36237e-16
9.03601e-17
2.72358e-17
6.39736e-18
1.1516e-18
1.59391e-19
1.40556e-20
5.46055e-22
1.27856e-23
5.78755e-25
2.12145e-26
6.59567e-28
1.92218e-29
5.34572e-31
1.58783e-32
1.24799e-33
3.35454e-35
6.44018e-37
1.39804e-38
3.45229e-40
7.44143e-42
1.23567e-43
1.58867e-45
1.41119e-47
6.45817e-50
1.45276e-54
2.93515e-15
5.66107e-15
6.32689e-15
7.00978e-15
1.19533e-14
1.44054e-14
1.34687e-14
1.78805e-14
2.37607e-14
2.83035e-14
2.94048e-14
2.45334e-14
1.63727e-14
8.95751e-15
4.09376e-15
1.54243e-15
4.69311e-16
1.13409e-16
2.15245e-17
3.10148e-18
2.81419e-19
1.13591e-20
3.13217e-22
1.53293e-23
5.94533e-25
2.01087e-26
6.30336e-28
1.92371e-29
5.96038e-31
4.81822e-32
1.33178e-33
2.54221e-35
6.17474e-37
1.59175e-38
3.57879e-40
6.19152e-42
8.27508e-44
7.61988e-46
3.59912e-48
8.75224e-53
1
1
1
1
1
1
1
1
1
1
1
1
1
1
1
1
1
1
1
1
1
1.00003
1.00022
0.821252
0.0562913
0.000206029
-6.07606e-06
4.40216e-07
8.81151e-09
-4.84313e-11
-1.0392e-10
-1.18684e-12
1.41009e-10
3.14827e-10
1.84768e-10
9.12977e-11
7.50089e-11
8.87755e-11
1.49672e-10
2.76758e-10
4.80678e-10
8.67653e-10
1.59296e-09
0.971407
-7.34274e-20
-1.38004e-11
-2.39307e-12
1.00002
0.595254
0.00375114
3.08004e-18
1.00006
0.999954
0.797723
0.189785
1.00001
1.0001
0.995802
0.887504
1
1.00002
0.999331
0.997226
1
1.00001
0.999935
0.999564
1
1
0.999988
0.99995
1
1
0.999998
0.999992
1
1
1
0.999999
1
1
1
0.999999
1
1
0.999999
0.999999
1.00002
1
1
0.999999
0.99995
1.00002
1.00004
0.999999
0.998838
1.00039
0.999895
0.999975
0.190315
0.726578
0.997497
0.999907
0.000648124
0.0450314
0.138138
0.59713
4.24697e-05
0.000211767
0.000548428
0.0301982
1.73203e-06
-6.62558e-06
3.89838e-05
0.000191655
7.42252e-08
4.88597e-07
1.77476e-06
-2.8363e-06
1.51734e-09
8.98458e-09
9.76588e-08
5.78933e-07
-1.63058e-10
4.77126e-10
3.75272e-09
9.30176e-09
6.66009e-12
8.74108e-11
3.29226e-10
1.09121e-09
1.43603e-10
1.56562e-10
2.62702e-10
3.25938e-10
3.41826e-10
3.43719e-10
3.45475e-10
3.03205e-10
2.30788e-10
2.99436e-10
3.56375e-10
3.21683e-10
1.14538e-10
1.48948e-10
2.08787e-10
2.59079e-10
9.60237e-11
1.17928e-10
1.42577e-10
1.80188e-10
1.19706e-10
1.55043e-10
1.91619e-10
2.31057e-10
2.12942e-10
2.88479e-10
3.8044e-10
5.04427e-10
4.42384e-10
6.34149e-10
7.02378e-10
6.88023e-10
6.79397e-10
8.34582e-10
9.24628e-10
8.0106e-10
7.81475e-10
8.11735e-10
1.25077e-09
6.26499e-09
1.86039e-09
8.66165e-10
1.19168e-09
3.41866e-08
1.007e-14
4.99035e-14
1.00984e-13
2.63756e-13
4.87411e-13
5.98671e-13
4.38338e-13
3.18386e-13
2.91255e-13
3.39258e-13
3.85559e-13
3.73456e-13
2.87781e-13
1.65647e-13
7.29296e-14
2.64006e-14
7.91786e-15
1.95195e-15
3.92084e-16
5.86818e-17
5.55479e-18
2.37628e-19
7.06958e-21
3.57682e-22
1.48512e-23
5.50445e-25
1.87393e-26
6.30257e-28
2.06903e-29
1.75665e-30
5.0677e-32
9.81803e-34
2.60829e-35
7.046e-37
1.66183e-38
3.00751e-40
4.19268e-42
4.01519e-44
1.96418e-46
5.19521e-51
1.45591e-14
3.13839e-14
6.63982e-14
7.01789e-14
1.03063e-13
5.87342e-13
3.17449e-12
5.68906e-13
6.52431e-13
1.01524e-12
1.61346e-12
2.42648e-12
2.23221e-12
1.59661e-12
9.60332e-13
4.10658e-13
1.21433e-13
2.97469e-14
6.16321e-15
9.57612e-16
9.46204e-17
4.25696e-18
1.39222e-19
7.37793e-21
3.3643e-22
1.3706e-23
5.10067e-25
1.87395e-26
6.61041e-28
6.02463e-29
1.83067e-30
3.62312e-32
1.04628e-33
2.97854e-35
7.43295e-37
1.41275e-38
2.06137e-40
2.06146e-42
1.04989e-44
3.05491e-49
-0.000466121
-3.04026e-05
-3.20813e-05
-5.30921e-07
-1.57329e-08
-2.33425e-09
1.17001e-12
5.73102e-12
1.12095e-11
1.42998e-11
1.59703e-11
1.2425e-11
8.15207e-12
6.50668e-12
6.00486e-12
3.36527e-12
1.49386e-12
4.31956e-13
8.94786e-14
1.40346e-14
1.4496e-15
6.88772e-17
2.42954e-18
1.37996e-19
6.8778e-21
3.07337e-22
1.25343e-23
5.10149e-25
2.1601e-26
1.90583e-27
6.0535e-29
1.25937e-30
3.98919e-32
1.20294e-33
3.12536e-35
6.25359e-37
9.59449e-39
1.00649e-40
5.36661e-43
1.73843e-47
0.537641
0.00391565
0.000361722
-1.12693e-06
-2.8308e-05
-6.26114e-07
-4.96372e-07
-7.46769e-09
1.82323e-10
2.70299e-10
2.00916e-10
1.28405e-10
7.79244e-11
4.42854e-11
2.21156e-11
1.20441e-11
9.00978e-12
3.9818e-12
1.18811e-12
1.92457e-13
2.03431e-14
1.02637e-15
3.90582e-17
2.3699e-18
1.28263e-19
6.24521e-21
2.78075e-22
1.25356e-23
7.80927e-25
5.61874e-26
1.80031e-27
4.19341e-29
1.4144e-30
4.52287e-32
1.22521e-33
2.58878e-35
4.19251e-37
4.63337e-39
2.60001e-41
9.48147e-46
0.977
0.788585
0.212056
0.002515
0.000414849
-7.17768e-05
-4.03263e-06
-6.34116e-07
-3.51399e-07
5.22475e-09
4.16932e-09
1.88114e-09
8.02444e-10
3.65286e-10
1.74688e-10
8.14832e-11
3.19393e-11
1.72571e-11
8.17636e-12
2.18757e-12
2.76871e-13
1.48209e-14
6.05879e-16
3.79983e-17
2.226e-18
1.1736e-19
5.66597e-21
2.78087e-22
2.53926e-23
1.55359e-24
4.99554e-26
1.28348e-27
4.62492e-29
1.57427e-30
4.51574e-32
1.01133e-33
1.73357e-35
2.02579e-37
1.20164e-39
4.98141e-44
0.9986
0.995901
0.900643
0.598213
0.026028
0.00187693
0.000281754
-1.5739e-05
1.54891e-06
-2.01154e-06
4.67333e-08
3.26123e-08
1.24373e-08
4.10989e-09
1.55176e-09
6.02802e-10
2.35747e-10
8.64733e-11
2.6597e-11
1.26739e-11
2.81828e-12
2.25705e-13
9.49449e-15
5.68243e-16
3.66424e-17
2.0921e-18
1.09807e-19
5.66615e-21
8.39742e-22
4.21541e-23
1.32958e-24
3.65899e-26
1.40962e-27
5.12556e-29
1.60982e-30
3.8403e-32
6.97495e-34
8.64306e-36
5.43781e-38
2.58298e-42
0.999781
0.999384
0.997902
0.983895
0.82325
0.291098
0.00530527
0.00121861
5.34153e-05
1.82273e-05
2.21133e-06
3.19519e-07
2.07609e-07
5.57641e-08
1.87756e-08
5.93738e-09
1.91978e-09
6.16761e-10
1.89616e-10
4.7691e-11
1.3728e-11
2.21273e-12
1.44706e-13
7.8835e-15
5.75154e-16
3.58152e-17
2.08882e-18
1.0981e-19
1.93442e-20
1.05966e-21
3.45566e-23
1.00427e-24
4.13621e-26
1.60994e-27
5.43095e-29
1.4179e-30
2.74206e-32
3.60582e-34
2.4116e-36
1.32e-40
0.999971
0.999941
0.999705
0.999044
0.996973
0.923152
0.632111
0.0483334
0.00349884
0.000747765
9.63851e-05
1.66525e-05
1.86403e-06
1.50662e-06
2.66043e-07
6.45219e-08
1.90797e-08
5.3688e-09
1.4433e-09
3.60356e-10
7.39743e-11
9.82722e-12
1.74705e-12
1.13302e-13
8.25869e-15
5.75893e-16
3.58273e-17
2.63273e-18
4.22378e-19
2.41177e-20
8.51749e-22
2.66964e-23
1.17783e-24
4.90924e-26
1.76728e-27
5.01513e-29
1.03354e-30
1.44396e-32
1.0279e-34
6.50741e-39
0.999996
0.999989
0.999966
0.999868
0.999596
0.998444
0.987684
0.804629
0.245275
0.00741321
0.00184271
0.000356326
6.38723e-05
8.39519e-06
3.0756e-06
8.02439e-07
1.96841e-07
5.07648e-08
1.27093e-08
2.95053e-09
6.04766e-10
9.67716e-11
1.21471e-11
1.7506e-12
1.23461e-13
8.55504e-15
5.82677e-16
7.51532e-17
9.29713e-18
4.9644e-19
1.94692e-20
6.77241e-22
3.20953e-23
1.43176e-24
5.50199e-26
1.66753e-27
3.65642e-29
5.43211e-31
4.11707e-33
3.02009e-37
0.999999
0.999998
0.999994
0.999984
0.99997
0.999804
0.999231
0.996964
0.895446
0.472922
0.0145732
0.00391744
0.000861692
0.000178337
2.84213e-05
7.64476e-06
2.06493e-06
4.75528e-07
1.12111e-07
2.52585e-08
5.15377e-09
8.94804e-10
1.22865e-10
1.42121e-11
2.07032e-12
1.92186e-13
1.59229e-14
2.22995e-15
1.77729e-16
9.50801e-18
4.0388e-19
1.6095e-20
8.23473e-22
3.92335e-23
1.60851e-24
5.03324e-26
1.16901e-27
1.849e-29
1.47287e-31
1.26759e-35
0.999999
0.999999
0.999998
0.999996
0.999992
0.999979
0.999901
0.999616
0.99801
0.951001
0.616777
0.062969
0.00664552
0.00161494
0.000358231
6.68703e-05
1.63823e-05
4.28798e-06
9.44e-07
2.0637e-07
4.20235e-08
7.61647e-09
1.17399e-09
1.54338e-10
1.583e-11
2.98862e-12
3.93921e-13
3.96468e-14
2.7902e-15
1.58187e-16
7.17619e-18
3.45934e-19
1.92756e-20
9.76141e-22
3.95759e-23
1.27718e-24
3.15604e-26
5.30603e-28
4.46937e-30
4.47207e-34
0.999999
0.999998
0.999998
0.999997
0.999996
0.999994
0.999986
0.999948
0.999755
0.998636
0.984825
0.692135
0.119583
0.00943026
0.0024727
0.00059028
0.00011998
2.93276e-05
7.38028e-06
1.5632e-06
3.1689e-07
5.89248e-08
9.61488e-09
1.29675e-09
1.60341e-10
2.02952e-11
4.24575e-12
5.02642e-13
3.55103e-14
2.1514e-15
1.04094e-16
6.17197e-18
3.59198e-19
1.78882e-20
7.53101e-22
2.58317e-23
6.77419e-25
1.20734e-26
1.07843e-28
1.24427e-32
0.999998
0.999998
0.999997
0.999996
0.999996
0.999995
0.999993
0.999988
0.999968
0.999844
0.999156
0.994158
0.716092
0.149562
0.0121213
0.0033282
0.000834321
0.000180904
4.40829e-05
1.06243e-05
2.17317e-06
4.06905e-07
6.40149e-08
8.4091e-09
1.03305e-09
1.43186e-10
1.89774e-11
3.29965e-12
3.50933e-13
2.2908e-14
1.17395e-15
7.40958e-17
4.59057e-18
2.42513e-19
1.08208e-20
3.93057e-22
1.091e-23
2.04688e-25
1.94293e-27
2.57651e-31
1.00003
0.999997
0.999997
0.999996
0.999995
0.999993
0.999992
0.999991
0.999986
0.999976
0.999877
0.999228
0.99437
0.698255
0.141066
0.0137347
0.00390619
0.00100167
0.00022804
5.27455e-05
1.19718e-05
2.1463e-06
3.36498e-07
4.73377e-08
6.1983e-09
8.09182e-10
1.11822e-10
1.44823e-11
2.03453e-12
1.95583e-13
1.10095e-14
7.36521e-16
4.86068e-17
2.71217e-18
1.27909e-19
4.90632e-21
1.43725e-22
2.81119e-24
2.87165e-26
4.32377e-30
0.999826
0.999959
1.00002
0.999994
0.999995
0.999993
0.999991
0.999988
0.999986
0.999983
0.999969
0.999889
0.9992
0.994292
0.637128
0.0990778
0.0122303
0.00349421
0.000929561
0.000216366
4.52968e-05
9.21785e-06
1.5611e-06
2.35604e-07
3.44124e-08
4.68765e-09
5.93815e-10
7.67756e-11
1.02352e-11
1.07909e-12
8.62028e-14
6.42651e-15
4.39929e-16
2.58855e-17
1.28633e-18
5.1944e-20
1.60055e-21
3.34894e-23
3.60941e-25
6.06332e-29
0.996575
0.9995
0.999756
0.999968
1.00002
0.999989
0.999992
0.999987
0.999982
0.999977
0.999975
0.99996
0.999877
0.9992
0.980593
0.526922
0.0500511
0.00961612
0.00277704
0.00071711
0.000165468
3.36857e-05
6.24196e-06
1.06527e-06
1.6846e-07
2.46027e-08
3.31886e-09
4.13681e-10
4.98216e-11
6.44986e-12
5.93134e-13
4.82045e-14
3.44791e-15
2.13329e-16
1.1134e-17
4.7182e-19
1.52484e-20
3.393e-22
3.86355e-24
7.17275e-28
0.123705
0.597792
0.996053
0.999375
0.99967
1.00001
0.999979
0.999982
0.999981
0.999974
0.999963
0.999956
0.999946
0.999938
0.999044
0.919997
0.36375
0.0227292
0.00680268
0.00190251
0.000485409
0.000111197
2.2797e-05
4.24744e-06
7.242e-07
1.13311e-07
1.6282e-08
2.14463e-09
2.59923e-10
3.14163e-11
3.61963e-12
3.11989e-13
2.34426e-14
1.52036e-15
8.30725e-17
3.68243e-18
1.24457e-19
2.90858e-21
3.51281e-23
7.13439e-27
0.000559965
0.029582
0.148907
0.672443
0.996046
0.998718
0.999634
0.999954
0.999961
0.999971
0.999957
0.999942
0.999924
0.999911
0.999799
0.99894
0.751422
0.17614
0.0146083
0.00426937
0.00116684
0.000290957
6.50325e-05
1.31374e-05
2.41236e-06
4.03992e-07
6.17866e-08
8.63796e-09
1.09672e-09
1.28081e-10
1.6614e-11
1.57208e-12
1.24373e-13
8.45114e-15
4.83029e-16
2.23759e-17
7.90081e-19
1.90539e-20
2.41593e-22
5.41206e-26
4.22808e-05
0.000216223
0.000730714
0.0381254
0.218514
0.807093
0.995896
0.998693
0.999771
0.999911
0.999936
0.99993
0.999907
0.99987
0.999857
0.999685
0.99747
0.510549
0.0495288
0.00879205
0.00250522
0.000663824
0.000159564
3.45685e-05
6.7829e-06
1.20825e-06
1.95616e-07
2.88138e-08
3.86207e-09
4.70324e-10
5.14628e-11
6.36704e-12
5.33242e-13
3.78826e-14
2.25828e-15
1.09008e-16
4.009e-18
1.00193e-19
1.3137e-21
3.22269e-25
2.15953e-06
1.59784e-05
5.39988e-05
0.000269913
0.00131256
0.0672771
0.402469
0.955764
0.996552
0.999034
0.999763
0.999864
0.999882
0.999836
0.999772
0.999716
0.999648
0.836011
0.228482
0.0161926
0.00473531
0.00130717
0.000333333
7.67057e-05
1.59731e-05
3.01107e-06
5.14077e-07
7.95205e-08
1.11557e-08
1.4124e-09
1.62731e-10
2.05751e-11
1.85527e-12
1.3783e-13
8.55144e-15
4.29121e-16
1.63978e-17
4.25797e-19
5.70057e-21
1.51796e-24
1.4795e-07
9.27519e-07
2.15018e-06
2.07565e-05
9.06024e-05
0.000416754
0.0129211
0.190146
0.763562
0.992515
0.997779
0.999425
0.99973
0.999786
0.999709
0.999606
0.999506
0.998497
0.518547
0.0505255
0.00834197
0.00238698
0.000634443
0.000153276
3.3554e-05
6.64105e-06
1.18769e-06
1.9186e-07
2.80086e-08
3.69448e-09
4.41002e-10
4.91568e-11
5.44989e-12
4.24142e-13
2.72966e-14
1.41859e-15
5.61153e-17
1.50822e-18
2.0807e-20
5.86322e-24
7.85047e-09
6.13654e-08
2.10144e-07
9.60625e-07
-1.80088e-06
3.18589e-05
0.000196003
0.00117215
0.100811
0.585648
0.986005
0.995839
0.998885
0.999506
0.999618
0.999486
0.999331
0.999051
0.791125
0.178742
0.0135714
0.00392248
0.00107737
0.000271457
6.19808e-05
1.27988e-05
2.38542e-06
4.00803e-07
6.06849e-08
8.28468e-09
1.0172e-09
1.12124e-10
1.3477e-11
1.10655e-12
7.37761e-14
3.96132e-15
1.61812e-16
4.49015e-18
6.39464e-20
1.86978e-23
6.01023e-10
2.57621e-09
2.09353e-09
9.14653e-08
2.90915e-07
7.40489e-07
1.33608e-05
9.32339e-05
0.000840078
0.0654119
0.51859
0.974378
0.99412
0.998277
0.999191
0.999332
0.999023
0.998787
0.951234
0.376529
0.0208215
0.0059819
0.00168775
0.000438292
0.000103384
2.20912e-05
4.26057e-06
7.40111e-07
1.15643e-07
1.62549e-08
2.05115e-09
2.33015e-10
2.83121e-11
2.47407e-12
1.70692e-13
9.44416e-15
3.97287e-16
1.13521e-17
1.66445e-19
4.98126e-23
2.63607e-10
4.56114e-10
1.2848e-09
-2.76126e-11
3.75891e-08
-2.61768e-09
6.28225e-07
6.87905e-06
4.94522e-05
0.000836173
0.063668
0.563157
0.976949
0.993351
0.997695
0.99878
0.998775
0.998265
0.997961
0.590067
0.0651742
0.00853137
0.00243588
0.000646011
0.000156337
3.43476e-05
6.815e-06
1.21758e-06
1.95478e-07
2.81831e-08
3.6472e-09
4.25402e-10
5.12989e-11
4.80035e-12
3.42341e-13
1.94624e-14
8.40688e-16
2.46653e-17
3.7123e-19
-1.2368e-22
2.50251e-10
2.5701e-10
3.01562e-10
7.90003e-10
-1.14891e-09
1.49407e-08
8.8455e-08
-4.8734e-07
7.11691e-06
1.41419e-05
0.000826034
0.121768
0.705542
0.982485
0.994151
0.997464
0.998266
0.997855
0.997589
0.768327
0.14954
0.0116401
0.00330533
0.000887861
0.000218546
4.8972e-05
9.92351e-06
1.81162e-06
2.97169e-07
4.37392e-08
5.77881e-09
6.88222e-10
8.16311e-11
8.1732e-12
5.99712e-13
3.4858e-14
1.54846e-15
4.65178e-17
7.16492e-19
-6.86345e-24
2.54691e-10
2.34795e-10
2.52628e-10
3.12961e-10
4.63696e-10
2.34117e-09
2.96891e-09
5.81973e-08
-1.4865e-06
6.74394e-06
7.70324e-05
0.000895021
0.312445
0.88395
0.989139
0.995101
0.997003
0.997485
0.996518
0.870844
0.252076
0.0148551
0.00421831
0.00114043
0.000283424
6.42981e-05
1.32143e-05
2.4494e-06
4.0825e-07
6.10696e-08
8.20033e-09
9.91819e-10
1.16145e-10
1.23492e-11
9.53052e-13
5.70397e-14
2.48844e-15
7.65472e-17
1.20878e-18
-1.15658e-21
2.23984e-10
2.37137e-10
2.38386e-10
2.58291e-10
3.49294e-10
4.97667e-10
2.09942e-09
9.9483e-09
6.06403e-08
3.9566e-07
-8.79511e-07
4.28183e-06
0.048035
0.630117
0.980528
0.991995
0.995423
0.9965
0.995197
0.917788
0.34183
0.0176143
0.00500403
0.00135765
0.000339356
7.76118e-05
1.61052e-05
3.01812e-06
5.09118e-07
7.71246e-08
1.04875e-08
1.28474e-09
1.49712e-10
1.66487e-11
1.54677e-12
1.13688e-13
4.34776e-15
1.09291e-16
1.7626e-18
-1.22358e-20
2.72912e-10
2.957e-10
3.07653e-10
3.15128e-10
3.25848e-10
3.98177e-10
6.57462e-10
1.9826e-09
-1.74644e-09
-1.8293e-07
-3.0832e-06
5.04985e-06
0.000253223
0.368102
0.923565
0.989167
0.993302
0.995042
0.994812
0.946783
0.42341
0.020087
0.00564167
0.00152662
0.000381045
8.71919e-05
1.81354e-05
3.41286e-06
5.79204e-07
8.84162e-08
1.21285e-08
1.50661e-09
1.76733e-10
2.03403e-11
2.44506e-12
2.07818e-13
8.38812e-15
1.94558e-16
1.90447e-18
-1.17898e-23
5.73066e-10
5.44617e-10
4.48768e-10
3.67466e-10
3.729e-10
4.01866e-10
4.51955e-10
3.77009e-10
1.13656e-09
-1.53976e-08
-4.89593e-08
1.28039e-06
2.56111e-05
0.188036
0.826834
0.984482
0.991411
0.992998
0.994257
0.95427
0.470406
0.0265012
0.00595858
0.00160351
0.000397863
9.06247e-05
1.88124e-05
3.53784e-06
6.01381e-07
9.21422e-08
1.27214e-08
1.59333e-09
1.90238e-10
2.24692e-11
3.44875e-12
3.25043e-13
1.52486e-14
4.27522e-16
6.29955e-18
8.2392e-21
6.79919e-10
6.75712e-10
4.93887e-10
3.80364e-10
4.05013e-10
4.20685e-10
4.53376e-10
4.77882e-10
7.4365e-10
-2.93967e-10
1.4328e-08
-4.81341e-08
3.5381e-06
0.0934606
0.706253
0.98117
0.988569
0.99094
0.992637
0.946877
0.457687
0.0240723
0.00580522
0.00154403
0.000378919
8.54973e-05
1.76293e-05
3.31089e-06
5.64289e-07
8.69867e-08
1.20891e-08
1.49795e-09
1.89858e-10
2.29992e-11
4.13827e-12
3.8588e-13
1.80366e-14
6.10387e-16
1.18758e-17
8.33921e-20
6.74278e-10
8.07469e-10
2.50274e-09
7.85315e-09
8.89665e-09
5.31056e-09
1.36986e-09
1.12446e-09
1.39507e-09
1.92282e-09
2.81142e-10
1.52738e-08
5.37679e-07
0.0452632
0.580379
0.976834
0.985974
0.988604
0.990701
0.927945
0.414108
0.0186305
0.00523987
0.00136476
0.000329964
7.35081e-05
1.50237e-05
2.80613e-06
4.77055e-07
7.3527e-08
1.02303e-08
1.27686e-09
1.75971e-10
2.30189e-11
4.86241e-12
4.54205e-13
2.21961e-14
8.26383e-16
1.88193e-17
1.79831e-19
2.7799e-09
8.36581e-10
1.52116e-09
5.86514e-09
9.97234e-09
7.99312e-09
2.74032e-09
1.87193e-09
2.12471e-09
2.40563e-09
2.94409e-09
5.14104e-09
8.67795e-08
0.0501828
0.588323
0.974985
0.98293
0.985516
0.988546
0.892808
0.33333
0.0159226
0.00435232
0.00112025
0.00026628
5.83221e-05
1.17031e-05
2.16805e-06
3.66839e-07
5.64596e-08
7.87919e-09
1.01997e-09
1.48746e-10
2.67416e-11
5.12777e-12
4.3167e-13
2.28938e-14
9.33145e-16
2.45408e-17
2.89198e-19
1.39451e-07
1.21263e-07
2.33255e-09
5.23324e-09
8.26484e-09
4.86769e-09
3.8668e-09
4.06043e-09
9.52344e-09
1.07713e-08
2.26091e-08
2.3212e-08
6.77794e-08
0.0759021
0.644945
0.973758
0.981253
0.982571
0.984915
0.820475
0.229064
0.0124341
0.00334035
0.000880102
0.000206705
4.46109e-05
8.80737e-06
1.59111e-06
2.62837e-07
3.97146e-08
5.56736e-09
7.91858e-10
1.17211e-10
3.066e-11
4.96005e-12
3.76842e-13
2.13382e-14
9.0773e-16
2.48591e-17
3.34002e-19
)
;

boundaryField
{
    leftWall
    {
        type            zeroGradient;
    }
    rightWall
    {
        type            zeroGradient;
    }
    lowerWall
    {
        type            zeroGradient;
    }
    atmosphere
    {
        type            inletOutlet;
        inletValue      nonuniform 0();
        value           nonuniform 0();
    }
    defaultFaces
    {
        type            empty;
    }
    procBoundary1to0
    {
        type            processor;
        value           nonuniform List<scalar> 
44
(
1
0.958861
0.958791
0.993667
0.999972
0.999996
1
1
1
1
1
1
1
1
1
1
1
1
1
1
1.00001
1.00001
0.999973
0.999575
0.241538
0.000678223
3.72362e-05
-5.95305e-08
-1.22292e-08
-2.25906e-10
-2.79093e-10
-3.35302e-11
-2.14064e-10
1.18608e-10
2.52612e-10
1.50263e-10
7.1149e-11
5.63251e-11
6.24633e-11
1.00366e-10
1.74406e-10
2.94668e-10
3.71718e-10
3.71337e-10
)
;
    }
    procBoundary1to3
    {
        type            processor;
        value           nonuniform List<scalar> 
45
(
1.34254e-09
7.10825e-09
2.12095e-09
1.36237e-09
1.83958e-09
1.9455e-06
2.30315e-06
2.29441e-06
1.31732e-06
1.74791e-08
5.70852e-09
7.51436e-09
2.80802e-08
1.64811e-07
8.43823e-07
6.52188e-06
2.91265e-05
2.98677e-05
0.143992
0.755769
0.972113
0.979372
0.981018
0.967337
0.695907
0.118189
0.00891613
0.00237857
0.000639849
0.000148004
3.14043e-05
6.11166e-06
1.09256e-06
1.79351e-07
2.71033e-08
3.86122e-09
5.73244e-10
9.13487e-11
2.89961e-11
4.07191e-12
2.97289e-13
1.7735e-14
7.91551e-16
2.33007e-17
3.2723e-19
)
;
    }
}


// ************************************************************************* //
