/*--------------------------------*- C++ -*----------------------------------*\
| =========                 |                                                 |
| \\      /  F ield         | OpenFOAM: The Open Source CFD Toolbox           |
|  \\    /   O peration     | Version:  5.0                                   |
|   \\  /    A nd           | Web:      www.OpenFOAM.org                      |
|    \\/     M anipulation  |                                                 |
\*---------------------------------------------------------------------------*/
FoamFile
{
    version     2.0;
    format      ascii;
    class       volScalarField;
    location    "0.4";
    object      epsilon;
}
// * * * * * * * * * * * * * * * * * * * * * * * * * * * * * * * * * * * * * //

dimensions      [0 2 -3 0 0 0 0];

internalField   nonuniform List<scalar> 
1915
(
0.793721
0.599141
0.744855
0.988701
0.980265
1.58994
1.26646
2.39684
1.53349
3.21971
1.78808
4.12474
2.03829
5.10528
2.3021
6.19584
2.60309
7.57936
2.91644
9.51513
0.0460744
0.0762336
0.365837
0.0859975
0.0864335
0.367245
0.379133
0.410303
0.437864
0.461446
0.476469
0.483886
0.484479
0.478947
0.468006
0.452433
0.433108
0.411148
0.389096
0.37395
0.381205
0.377552
0.367617
0.0863554
0.0850952
0.0855439
0.373054
0.0855991
0.0855444
0.367264
0.0844967
0.0843275
0.0861255
0.0861081
0.0843361
0.0799908
0.0722602
0.0607107
0.0459131
0.0273132
0.109572
0.101573
0.14245
0.160248
0.174165
0.191655
0.197451
0.201955
0.205796
0.209233
0.210578
0.209783
0.207013
0.202484
0.196452
0.189211
0.181095
0.172509
0.16402
0.156789
0.1503
0.143771
0.137806
0.124998
0.120102
0.114847
0.112696
0.103891
0.0968784
0.0986845
0.0911748
0.086378
0.0743449
0.0684968
0.0640944
0.059594
0.05381
0.0459881
0.0355542
0.0214905
0.189676
0.133283
0.149094
0.161967
0.16866
0.172151
0.173409
0.17365
0.173617
0.173116
0.171472
0.168571
0.164485
0.159365
0.153407
0.146835
0.139894
0.132846
0.125952
0.119479
0.113259
0.107626
0.102593
0.0975607
0.0935324
0.089844
0.0862629
0.0829971
0.0799988
0.0773701
0.0745504
0.0714391
0.0674059
0.0633337
0.0593885
0.0553035
0.0505828
0.0448735
0.0379336
0.022739
0.286864
0.169852
0.170041
0.175854
0.178547
0.178701
0.177522
0.175705
0.173697
0.171123
0.167603
0.163061
0.157574
0.151298
0.144433
0.137196
0.129814
0.122499
0.115429
0.108727
0.102509
0.0969404
0.0920208
0.0876514
0.083903
0.0806534
0.0777478
0.0752291
0.0730052
0.0709372
0.0688918
0.0666954
0.0642014
0.0613301
0.0582103
0.0548356
0.0511036
0.047125
0.0441028
0.0227063
0.395956
0.213126
0.199376
0.199301
0.198974
0.197092
0.194209
0.190827
0.187221
0.182852
0.177485
0.171114
0.163865
0.155935
0.14756
0.138981
0.130431
0.122115
0.114184
0.106748
0.100003
0.0940152
0.0887777
0.0842445
0.0803775
0.0771027
0.0743184
0.0719696
0.0699682
0.0681834
0.0664904
0.0647542
0.0628584
0.0606946
0.0582689
0.0556119
0.052807
0.0503007
0.0506972
0.0968057
0.526053
0.266328
0.238033
0.232072
0.228693
0.22488
0.220444
0.215593
0.210378
0.204084
0.196589
0.187978
0.178463
0.168318
0.157841
0.147321
0.137019
0.127151
0.117863
0.10928
0.101611
0.0948623
0.0890058
0.0839875
0.0797424
0.0761917
0.0732426
0.070809
0.0687942
0.0670751
0.0655274
0.0640286
0.0624696
0.0607596
0.0588714
0.0568489
0.0548771
0.0536453
0.0564289
0.0973877
0.690694
0.335137
0.288972
0.276016
0.26897
0.262891
0.256724
0.250334
0.243174
0.23455
0.224395
0.212911
0.200437
0.187359
0.174069
0.160929
0.148245
0.136253
0.125102
0.114959
0.106001
0.0981828
0.0914415
0.0856994
0.080869
0.0768557
0.073558
0.0708736
0.068696
0.0669026
0.0653682
0.0639741
0.0626161
0.0612141
0.0597398
0.0582524
0.0570027
0.0568511
0.0616361
0.10915
0.913892
0.43185
0.359506
0.336675
0.32449
0.315132
0.306428
0.297846
0.288034
0.276214
0.262424
0.247037
0.230562
0.213537
0.196477
0.179835
0.163978
0.149172
0.135562
0.123391
0.112746
0.103527
0.0956246
0.0889254
0.0833119
0.0786654
0.0748665
0.0717964
0.069337
0.0673609
0.065739
0.0643526
0.0630992
0.0619049
0.0607472
0.0597015
0.0590678
0.0598444
0.0664106
0.121555
1.24781
0.585164
0.468991
0.429081
0.407779
0.392018
0.378107
0.365229
0.350764
0.333757
0.314391
0.293253
0.271056
0.248512
0.226271
0.204885
0.184779
0.166241
0.149421
0.134641
0.12183
0.110818
0.101435
0.0935191
0.0869092
0.0814525
0.0770025
0.0734188
0.0705679
0.0683117
0.0665142
0.0650529
0.0638247
0.062758
0.0618359
0.0611486
0.061037
0.062622
0.0708138
0.133461
1.89865
0.88635
0.673702
0.595333
0.551695
0.519181
0.491596
0.46796
0.443434
0.416547
0.387513
0.35707
0.326084
0.295396
0.265746
0.237742
0.211827
0.188261
0.16726
0.149096
0.133498
0.120198
0.108944
0.0994987
0.091644
0.0851778
0.0799145
0.0756838
0.0723299
0.0696978
0.0676398
0.0660267
0.0647514
0.0637417
0.062984
0.0625809
0.0629092
0.0652057
0.0749034
0.144846
2.79233
6.08491
2.46277
4.27283
2.1246
3.16421
1.84549
2.45942
1.63347
2.01914
1.4782
1.73745
1.36668
1.55131
1.28823
1.42589
1.23488
1.34105
1.2009
1.28451
1.24846
1.22778
1.21971
1.22448
1.24149
1.25923
1.25769
1.2488
1.23658
1.22796
1.2303
1.2483
1.28352
1.33508
1.4001
1.47358
1.54941
1.62223
1.68783
1.74389
1.79024
1.82872
1.86245
10.7673
4.76054
6.61425
6.06466
5.99839
5.60858
13.2455
11.7885
4.06968
4.37234
6.93626
7.88644
3.02729
3.40735
4.38715
5.16258
2.39762
2.72448
3.20316
3.6781
2.00037
2.25184
2.5429
2.8453
1.74079
1.92933
2.12961
2.33692
1.56713
1.7095
1.85625
2.00656
1.44933
1.55869
1.67013
1.78337
1.36916
1.45448
1.54101
1.62854
1.31522
1.38235
1.45036
1.51908
1.28031
1.33309
1.38667
1.44092
1.26007
1.30105
1.34293
1.38557
1.25353
1.28367
1.31527
1.34816
1.26133
1.28091
1.30305
1.32687
1.27933
1.2913
1.30647
1.32175
1.28564
1.30624
1.32178
1.33117
1.28265
1.31032
1.33247
1.34832
1.27532
1.30877
1.33738
1.36028
1.26908
1.30516
1.3372
1.36548
1.27178
1.30796
1.34017
1.36924
1.28934
1.32412
1.35414
1.38065
1.32426
1.35727
1.38399
1.40596
1.37621
1.40777
1.43106
1.44774
1.44263
1.47351
1.49388
1.50537
1.51919
1.55047
1.56885
1.57588
1.59989
1.63337
1.65107
1.65491
1.67861
1.7163
1.73526
1.73765
1.75107
1.79431
1.81717
1.82023
1.8151
1.8655
1.89417
1.90091
1.87105
1.93086
1.96799
1.98146
1.92166
1.99412
2.04324
2.0666
1.97131
2.06103
2.12699
2.16446
2.34061
1.57962
1.1508
0.960879
0.845755
0.761474
0.694026
0.640376
0.591574
0.543691
0.496087
0.449143
0.403542
0.360001
0.319151
0.281486
0.24733
0.216805
0.19025
0.167593
0.148345
0.132085
0.118435
0.107056
0.097642
0.0899203
0.0836497
0.078617
0.0746349
0.0715221
0.0691141
0.0672705
0.0658772
0.064858
0.0642001
0.0640158
0.0647148
0.0676476
0.0787698
0.155932
6.21714
3.71244
2.47992
1.88605
1.52637
1.27843
1.0949
0.956994
0.848203
0.753568
0.668045
0.589769
0.518091
0.45284
0.393971
0.341413
0.295007
0.254537
0.220301
0.191496
0.167338
0.147162
0.130392
0.116529
0.105138
0.0958437
0.0883222
0.0822984
0.0775393
0.0738247
0.070966
0.068806
0.0672193
0.0661224
0.0655002
0.0654716
0.0664774
0.0699794
0.0824579
0.166826
8.58333
7.35755
5.56394
4.01947
3.05756
2.38202
1.90734
1.56079
1.31188
1.11573
0.952926
0.814172
0.694574
0.591189
0.502063
0.425569
0.360223
0.305337
0.260025
0.22259
0.191694
0.166255
0.145374
0.128298
0.114391
0.103123
0.0940511
0.0868102
0.0811012
0.076648
0.073227
0.0706574
0.0687972
0.0675515
0.0668996
0.0669643
0.068215
0.072224
0.0860003
0.177623
5.86126
6.23848
6.43863
6.20276
5.35534
4.27458
3.37964
2.69266
2.14921
1.74909
1.4366
1.18399
0.976971
0.805658
0.66423
0.547828
0.452405
0.375533
0.313645
0.263689
0.223296
0.19063
0.164234
0.142938
0.125791
0.112025
0.101021
0.0922826
0.0854144
0.0800607
0.0759492
0.0728654
0.070644
0.0691737
0.0684242
0.0685195
0.0699548
0.0744125
0.0894384
0.18843
4.16293
4.56231
4.91206
5.33414
5.70359
5.68011
5.08124
4.28509
3.49048
2.78512
2.23398
1.7935
1.43649
1.14753
0.915816
0.732018
0.587754
0.475404
0.387785
0.31908
0.264932
0.222109
0.18817
0.161241
0.139865
0.122906
0.109475
0.0988854
0.0905992
0.0841502
0.0791979
0.0754807
0.0728004
0.0710232
0.0701045
0.0701658
0.0717261
0.0765767
0.0928123
0.199356
3.16758
3.46781
3.76043
4.09287
4.51613
5.00884
5.39056
5.35036
4.85645
4.14502
3.38898
2.71533
2.15141
1.68671
1.31191
1.01751
0.791833
0.621359
0.49282
0.395312
0.320749
0.263331
0.218872
0.1843
0.157326
0.136233
0.119728
0.106837
0.0968058
0.0890229
0.0830512
0.0785625
0.0753134
0.073139
0.0719745
0.0719348
0.0735595
0.0787489
0.0961617
0.210504
2.56075
2.77777
2.99487
3.23674
3.53477
3.90656
4.37601
4.86319
5.18125
5.05695
4.5732
3.88036
3.13927
2.47601
1.91207
1.45534
1.10221
0.838491
0.644699
0.502322
0.39691
0.318127
0.258733
0.213618
0.179128
0.152622
0.13218
0.116409
0.104218
0.0948062
0.0876
0.0821786
0.0782357
0.0755638
0.0740707
0.0738595
0.075487
0.0809617
0.0995252
0.221978
2.16922
2.32978
2.49018
2.66381
2.87085
3.13107
3.46386
3.88314
4.37178
4.82206
4.98195
4.75776
4.20717
3.46844
2.73709
2.09099
1.56397
1.16131
0.866613
0.65476
0.502444
0.39202
0.311133
0.251275
0.20656
0.172881
0.147349
0.127931
0.113058
0.101651
0.0929494
0.0864048
0.0816247
0.0783435
0.0764319
0.0759745
0.0775408
0.0832475
0.102941
0.233877
1.90566
2.02775
2.14917
2.27693
2.42339
2.60411
2.83607
3.13541
3.51065
3.96586
4.43884
4.76135
4.7524
4.36649
3.68188
2.91297
2.20631
1.62642
1.18814
0.872754
0.650056
0.492789
0.380782
0.300119
0.241355
0.198075
0.1659
0.141829
0.123599
0.109736
0.0992195
0.0913249
0.0855417
0.081526
0.0790976
0.0783143
0.0797534
0.0856385
0.106446
0.246299
1.72278
1.81763
1.91181
2.00894
2.11614
2.24409
2.40605
2.61669
2.88881
3.23176
3.65145
4.1111
4.49983
4.63255
4.38683
3.77282
2.99119
2.24751
1.63643
1.17989
0.856114
0.630826
0.474039
0.36398
0.285811
0.229596
0.188697
0.158638
0.136174
0.119273
0.106547
0.0970303
0.0900515
0.0851599
0.0821072
0.0809133
0.0821561
0.0881655
0.110077
0.259339
1.59295
1.66778
1.74217
1.81803
1.89941
1.99304
2.10833
2.25707
2.45185
2.70404
3.02253
3.40991
3.84545
4.24794
4.4536
4.30245
3.74817
2.96954
2.21275
1.59422
1.13799
0.818574
0.598922
0.447795
0.342906
0.269239
0.216874
0.179028
0.151186
0.130506
0.115084
0.10362
0.0952206
0.0892934
0.0854984
0.0838035
0.0847784
0.0908578
0.113866
0.273088
1.49933
1.55892
1.61836
1.67871
1.7423
1.81326
1.89785
2.00471
2.14445
2.32831
2.56656
2.86645
3.22864
3.63762
4.02643
4.25125
4.14262
3.62254
2.85562
2.10856
1.50597
1.06774
0.764281
0.557429
0.416307
0.319237
0.251774
0.203801
0.16911
0.143717
0.124999
0.111195
0.101115
0.0939721
0.0893059
0.0870137
0.0876466
0.0937415
0.117844
0.287627
1.43173
1.47924
1.52692
1.57536
1.62596
1.68125
1.7453
1.82411
1.92577
2.06005
2.23725
2.46638
2.75287
3.09548
3.47801
3.83711
4.04151
3.92654
3.41195
2.6636
1.94818
1.38271
0.977299
0.698838
0.510147
0.382268
0.294968
0.233898
0.19049
0.159218
0.136473
0.119863
0.107797
0.0992361
0.0935582
0.0905671
0.0907819
0.0968384
0.122039
0.303031
1.38419
1.42172
1.45972
1.49853
1.539
1.58273
1.63238
1.69204
1.76756
1.86671
1.99869
2.17292
2.39696
2.67416
3.00062
3.35606
3.6744
3.83026
3.66992
3.13668
2.41409
1.75042
1.23876
0.87616
0.628388
0.461478
0.348352
0.2704
0.215933
0.177345
0.149686
0.12972
0.115323
0.105117
0.0982757
0.0944795
0.0941991
0.100165
0.126471
0.319356
1.35371
1.38249
1.41213
1.44271
1.47474
1.50928
1.54811
1.59403
1.65122
1.72554
1.82461
1.9572
2.13171
2.35394
2.62473
2.93687
3.2643
3.53258
3.61502
3.37656
2.81448
2.13227
1.53727
1.08879
0.77361
0.559419
0.413713
0.314392
0.246051
0.198426
0.164811
0.140853
0.123731
0.111633
0.103467
0.0987563
0.097904
0.103729
0.131154
0.336642
1.33992
1.36023
1.38191
1.40494
1.42946
1.45611
1.4861
1.52142
1.56507
1.62143
1.69652
1.7979
1.93381
2.11137
2.3342
2.60009
2.89757
3.1912
3.39281
3.37631
3.04617
2.46911
1.84703
1.32887
0.946216
0.677019
0.492233
0.366736
0.28136
0.222737
0.18198
0.153318
0.133038
0.118784
0.109125
0.10339
0.101892
0.107531
0.136093
0.354903
1.34277
1.35504
1.36886
1.38424
1.40137
1.42066
1.44282
1.46923
1.50212
1.5448
1.60195
1.67982
1.78587
1.92757
2.11027
2.3348
2.5949
2.87287
3.11849
3.2303
3.09818
2.68877
2.12538
1.57917
1.13768
0.812119
0.583744
0.427725
0.322124
0.250427
0.201253
0.167122
0.143229
0.126542
0.115222
0.108356
0.106143
0.111557
0.141282
0.37412
1.35939
1.36576
1.37301
1.38083
1.39031
1.40197
1.41645
1.43473
1.45835
1.48983
1.53287
1.59255
1.67534
1.78836
1.93782
2.12654
2.35159
2.60143
2.84862
3.02453
3.02567
2.77995
2.32438
1.80077
1.32931
0.957297
0.68573
0.496633
0.36815
0.281422
0.222569
0.182202
0.15424
0.13485
0.121707
0.113612
0.110625
0.115784
0.146701
0.394241
1.37777
1.38803
1.39279
1.39419
1.3965
1.40021
1.40654
1.41654
1.43144
1.45305
1.48425
1.52921
1.59341
1.68332
1.80529
1.96341
2.15703
2.37825
2.60898
2.80715
2.88837
2.76944
2.43523
1.97297
1.50389
1.10259
0.793553
0.571533
0.418636
0.315342
0.245705
0.1984
0.165948
0.14361
0.128501
0.119095
0.115286
0.12017
0.152316
0.415169
1.39092
1.40994
1.41988
1.42171
1.41903
1.41519
1.41319
1.41436
1.42021
1.43236
1.45297
1.48532
1.53406
1.60495
1.70405
1.83612
2.00208
2.19665
2.40607
2.60321
2.7274
2.69546
2.46819
2.08653
1.64787
1.23767
0.901204
0.649397
0.472119
0.351441
0.270236
0.215444
0.178163
0.152678
0.135493
0.124716
0.120058
0.124661
0.158076
0.436764
1.39724
1.42244
1.44196
1.45233
1.45215
1.44514
1.43557
1.42792
1.42426
1.42656
1.43692
1.45787
1.49318
1.5479
1.6277
1.7375
1.87929
2.04968
2.23778
2.4232
2.56448
2.58891
2.44449
2.14389
1.75382
1.35386
1.00236
0.72647
0.526559
0.388613
0.295527
0.232939
0.190619
0.161865
0.142541
0.130365
0.124852
0.129186
0.163917
0.458836
1.40646
1.43108
1.45349
1.47184
1.48288
1.48255
1.4706
1.45595
1.44283
1.43495
1.43474
1.44468
1.46779
1.50831
1.57143
1.66201
1.78267
1.93136
2.09934
2.26964
2.41265
2.47042
2.38539
2.15465
1.82031
1.44535
1.09138
0.798783
0.579539
0.425456
0.320752
0.250376
0.20298
0.170937
0.149472
0.135912
0.129565
0.133659
0.169754
0.481148
1.42629
1.44569
1.46482
1.48341
1.49966
1.50944
1.50805
1.49378
1.47401
1.45627
1.44534
1.44413
1.45559
1.48321
1.53157
1.60534
1.70743
1.83676
1.98611
2.14086
2.27758
2.35164
2.30719
2.13165
1.85117
1.50995
1.16423
0.862758
0.628567
0.460401
0.344951
0.267154
0.214856
0.179624
0.156092
0.141206
0.134079
0.137982
0.175493
0.503418
1.46091
1.47227
1.48405
1.49751
1.51213
1.5251
1.53269
1.52974
1.5128
1.48825
1.46719
1.45478
1.45465
1.47014
1.50515
1.56399
1.64966
1.76166
1.89389
2.03336
2.15985
2.23896
2.22117
2.08693
1.85353
1.54887
1.21887
0.91565
0.671362
0.49187
0.367105
0.28262
0.225819
0.187634
0.162189
0.14609
0.138268
0.142051
0.181024
0.525324
1.51091
1.51295
1.51516
1.52024
1.52903
1.53994
1.54965
1.55346
1.54624
1.5259
1.49822
1.47496
1.46318
1.46689
1.48957
1.53499
1.60604
1.70251
1.81902
1.94378
2.05856
2.13569
2.13353
2.02945
1.83503
1.56537
1.255
0.955689
0.706067
0.518425
0.386227
0.296126
0.235436
0.194671
0.167551
0.150402
0.142004
0.145756
0.186236
0.546516
1.57425
1.5669
1.55881
1.554
1.55463
1.56032
1.5682
1.57353
1.57112
1.5581
1.53313
1.50241
1.47917
1.47128
1.4824
1.5157
1.5737
1.65623
1.75833
1.86908
1.97169
2.04287
2.04805
1.96557
1.80232
1.56332
1.27347
0.982031
0.731368
0.538895
0.401453
0.307076
0.243306
0.200455
0.171978
0.15399
0.145166
0.148991
0.191012
0.56663
1.64728
1.63145
1.61351
1.59866
1.59035
1.58931
1.5933
1.59763
1.59647
1.5858
1.56581
1.53218
1.49941
1.48083
1.48128
1.50367
1.55005
1.6201
1.70905
1.80652
1.89687
1.95988
1.96701
1.89968
1.76054
1.54655
1.27589
0.994661
0.746554
0.552473
0.41212
0.314988
0.24909
0.204749
0.175295
0.156721
0.147645
0.151661
0.195244
0.585302
1.72585
1.70323
1.67678
1.65279
1.63585
1.6277
1.62674
1.62837
1.62629
1.61483
1.5935
1.55942
1.52086
1.49307
1.48392
1.49662
1.53276
1.59169
1.66861
1.75349
1.83167
1.88536
1.89131
1.83467
1.71362
1.51851
1.26428
0.994247
0.751505
0.558758
0.417813
0.319527
0.252541
0.207374
0.177369
0.15849
0.149354
0.153684
0.198832
0.602184
1.80658
1.77944
1.74645
1.7148
1.6901
1.67495
1.66827
1.66555
1.66018
1.64563
1.62002
1.58411
1.54073
1.50542
1.48824
1.49255
1.51975
1.56879
1.63469
1.70765
1.7739
1.8179
1.82112
1.77246
1.66432
1.48183
1.24056
0.981818
0.746561
0.557726
0.418383
0.320534
0.253524
0.208223
0.178117
0.159232
0.150234
0.155001
0.201695
0.616966
1.88816
1.85908
1.8217
1.78398
1.75239
1.73028
1.71694
1.70791
1.69655
1.67643
1.64508
1.60556
1.55786
1.51647
1.49266
1.48977
1.50919
1.54945
1.60526
1.66696
1.72179
1.75649
1.75686
1.71438
1.61383
1.4377
1.20612
0.958476
0.73237
0.549677
0.413934
0.318022
0.252023
0.20727
0.177513
0.158918
0.150257
0.155577
0.203774
0.629388
1.97242
1.94391
1.90398
1.86122
1.82299
1.79336
1.77196
1.75442
1.73446
1.70633
1.66809
1.62399
1.57259
1.52572
1.49591
1.48679
1.49946
1.53192
1.57847
1.62961
1.6738
1.70035
1.69915
1.66117
1.56177
1.38632
1.16207
0.925468
0.709876
0.535203
0.404803
0.312177
0.248138
0.204574
0.175589
0.157567
0.149429
0.155405
0.205034
0.639255
2.06449
2.03873
1.9972
1.94919
1.90323
1.86443
1.83293
1.80454
1.77353
1.73524
1.68913
1.63999
1.58363
1.53086
1.49618
1.48208
1.48908
1.51467
1.55274
1.59413
1.6289
1.6494
1.64879
1.61231
1.50638
1.3275
1.10955
0.884207
0.680278
0.515155
0.391532
0.303329
0.242071
0.200262
0.172433
0.155239
0.147788
0.154503
0.205467
0.646443
2.17254
2.15098
2.1073
2.05189
1.99517
1.944
1.89949
1.85763
1.81301
1.76236
1.70687
1.65117
1.58885
1.53049
1.49218
1.47435
1.47677
1.49637
1.52678
1.55952
1.58691
1.60476
1.60656
1.56499
1.44472
1.26107
1.04976
0.836218
0.644925
0.490542
0.374811
0.291926
0.234111
0.194526
0.168176
0.152028
0.145402
0.152917
0.205089
0.650895
)
;

boundaryField
{
    leftWall
    {
        Cmu             0.09;
        kappa           0.41;
        E               9.8;
        type            epsilonWallFunction;
        value           nonuniform 0();
    }
    rightWall
    {
        Cmu             0.09;
        kappa           0.41;
        E               9.8;
        type            epsilonWallFunction;
        value           nonuniform List<scalar> 
43
(
0.0273132
0.0214905
0.022739
0.0227063
0.0968057
0.0973877
0.10915
0.121555
0.133461
0.144846
0.155932
0.166826
0.177623
0.18843
0.199356
0.210504
0.221978
0.233877
0.246299
0.259339
0.273088
0.287627
0.303031
0.319356
0.336642
0.354903
0.37412
0.394241
0.415169
0.436764
0.458836
0.481148
0.503418
0.525324
0.546516
0.56663
0.585302
0.602184
0.616966
0.629388
0.639255
0.646443
0.650895
)
;
    }
    lowerWall
    {
        Cmu             0.09;
        kappa           0.41;
        E               9.8;
        type            epsilonWallFunction;
        value           nonuniform List<scalar> 
66
(
0.793721
0.599141
0.599141
0.988701
1.58994
2.39684
3.21971
4.12474
5.10528
6.19584
7.57936
9.51513
10.7673
4.76054
6.61425
6.06466
0.0460744
0.109572
0.189676
0.286864
0.395956
0.526053
0.690694
0.913892
1.24781
1.89865
0.0460744
0.0762336
0.365837
0.0859975
0.0864335
0.367245
0.379133
0.410303
0.437864
0.461446
0.476469
0.483886
0.484479
0.478947
0.468006
0.452433
0.433108
0.411148
0.389096
0.37395
0.381205
0.377552
0.367617
0.0863554
0.0850952
0.0855439
0.373054
0.0855991
0.0855444
0.367264
0.0844967
0.0843275
0.0861255
0.0861081
0.0843361
0.0799908
0.0722602
0.0607107
0.0459131
0.0273132
)
;
    }
    atmosphere
    {
        type            inletOutlet;
        inletValue      nonuniform 0();
        value           nonuniform 0();
    }
    defaultFaces
    {
        type            empty;
    }
    procBoundary1to0
    {
        type            processor;
        value           nonuniform List<scalar> 
44
(
0.902506
0.86492
1.0056
1.11457
1.21395
1.3117
1.41137
1.51488
1.61976
1.7085
1.72113
1.65522
1.55061
1.44281
1.34748
1.26957
1.20965
1.16652
1.13836
1.12324
1.18203
1.18203
1.17509
1.17961
1.19737
1.22524
1.23136
1.22151
1.2071
1.19091
1.18034
1.18203
1.19951
1.2336
1.283
1.34424
1.41211
1.48125
1.54666
1.60439
1.65209
1.68921
1.71681
1.73719
)
;
    }
    procBoundary1to3
    {
        type            processor;
        value           nonuniform List<scalar> 
45
(
1.89494
2.02476
2.13786
2.22711
2.28421
2.30646
2.2895
2.24125
2.17382
2.10082
2.03218
1.97066
1.9124
1.85159
1.78613
1.71968
1.65508
1.58582
1.52392
1.48318
1.46275
1.46159
1.47607
1.49981
1.52558
1.54895
1.56876
1.57142
1.51366
1.37396
1.18751
0.984084
0.783071
0.605243
0.462472
0.355415
0.278486
0.224603
0.187601
0.162984
0.148054
0.142361
0.150711
0.203941
0.652621
)
;
    }
}


// ************************************************************************* //
