/*--------------------------------*- C++ -*----------------------------------*\
| =========                 |                                                 |
| \\      /  F ield         | OpenFOAM: The Open Source CFD Toolbox           |
|  \\    /   O peration     | Version:  5.0                                   |
|   \\  /    A nd           | Web:      www.OpenFOAM.org                      |
|    \\/     M anipulation  |                                                 |
\*---------------------------------------------------------------------------*/
FoamFile
{
    version     2.0;
    format      ascii;
    class       volScalarField;
    location    "0.4";
    object      k;
}
// * * * * * * * * * * * * * * * * * * * * * * * * * * * * * * * * * * * * * //

dimensions      [0 2 -2 0 0 0 0];

internalField   nonuniform List<scalar> 
1915
(
0.0281174
0.023262
0.062045
0.0391375
0.0966432
0.053678
0.127269
0.0705743
0.153999
0.0859034
0.178243
0.101239
0.201038
0.116744
0.223854
0.132822
0.248517
0.151917
0.276121
0.17681
0.0089309
0.0147861
0.0163885
0.0169127
0.0170856
0.0167508
0.0172308
0.0181729
0.0189901
0.0196775
0.0201137
0.0203336
0.020362
0.0202183
0.0199201
0.0194856
0.018935
0.0182962
0.0176505
0.0171743
0.0172753
0.0171004
0.0167594
0.0171537
0.0168668
0.0168702
0.0167908
0.0167865
0.0168422
0.0164955
0.0164799
0.0164253
0.0167959
0.0167625
0.0163884
0.0155228
0.0140102
0.0117646
0.00889735
0.00700364
0.00939831
0.0209479
0.0261923
0.0294657
0.0319085
0.0340779
0.0360647
0.0377728
0.0391868
0.0402467
0.0409808
0.0414058
0.0415343
0.0413796
0.0409583
0.0402919
0.0394074
0.0383381
0.0371189
0.035815
0.0344584
0.0330867
0.0317507
0.030494
0.0292896
0.0281284
0.027021
0.0261492
0.0252575
0.024405
0.0236873
0.0229247
0.0221279
0.0213188
0.0203166
0.0189465
0.0170321
0.0144241
0.0110752
0.00813589
0.013543
0.0281815
0.0352102
0.0396251
0.0427857
0.0452873
0.0473667
0.0490812
0.0504824
0.0515371
0.0522541
0.052637
0.0526907
0.0524244
0.0518535
0.0510005
0.0498949
0.0485725
0.0470693
0.0454286
0.043708
0.0419702
0.0402531
0.0385854
0.0369962
0.0354906
0.034067
0.0327521
0.0315137
0.0303242
0.0291811
0.0280193
0.0267992
0.0254863
0.0240011
0.0222042
0.0199226
0.0169593
0.0130363
0.0086473
0.017846
0.035382
0.0433649
0.0483347
0.0517881
0.0543578
0.0563655
0.0579676
0.0592553
0.0602007
0.0608075
0.0610735
0.0609991
0.0605906
0.059862
0.0588358
0.0575418
0.0560162
0.0542951
0.0524168
0.0504559
0.048469
0.0464968
0.0445728
0.0427266
0.0409737
0.0393165
0.0377561
0.0362829
0.034872
0.0334904
0.0320911
0.0306244
0.0290303
0.0272394
0.025139
0.0225711
0.0193123
0.0149014
0.00866759
0.0221007
0.0426142
0.0513269
0.0565847
0.0601292
0.0626599
0.0645515
0.0660111
0.067149
0.0679374
0.0683843
0.0684874
0.0682462
0.067666
0.0667603
0.065551
0.064068
0.0623469
0.0604234
0.0583372
0.0561699
0.0539724
0.0517868
0.0496487
0.047587
0.0456205
0.0437563
0.0419941
0.0403217
0.0387196
0.0371494
0.0355636
0.0339072
0.0321145
0.0301098
0.0277876
0.0249958
0.021489
0.0166615
0.00861178
0.0266699
0.0501662
0.0594414
0.0647944
0.0682833
0.0707026
0.0724556
0.0737643
0.0747321
0.0753357
0.0755897
0.0754955
0.0750548
0.0742743
0.0731677
0.0717574
0.0700728
0.0681488
0.0660205
0.0637326
0.0613676
0.0589721
0.0565877
0.0542499
0.0519872
0.0498197
0.0477574
0.0458011
0.0439398
0.042155
0.0404085
0.0386523
0.0368289
0.0348701
0.0326944
0.0301952
0.0272182
0.0234967
0.0183437
0.00870036
0.0319214
0.0584545
0.0679674
0.073196
0.0764972
0.0787488
0.0803513
0.0815185
0.0822938
0.0826911
0.0827241
0.0824008
0.0817284
0.0807172
0.0793829
0.0777484
0.075843
0.0737008
0.0713557
0.0688617
0.0662967
0.0637039
0.061123
0.0585883
0.0561277
0.0537617
0.0515018
0.0493505
0.0472991
0.0453301
0.043407
0.0414827
0.0394989
0.0373854
0.0350569
0.0324023
0.0292596
0.0253376
0.0198673
0.00938213
0.0383972
0.0681938
0.0772769
0.0820702
0.0850529
0.0870871
0.0885192
0.0895255
0.0900947
0.0902515
0.0900203
0.0894214
0.0884722
0.087189
0.0855908
0.0837011
0.0815486
0.0791658
0.0765853
0.0738745
0.0711008
0.0683043
0.0655222
0.0627872
0.0601258
0.0575582
0.0550968
0.0527455
0.0504984
0.0483391
0.0462336
0.0441365
0.0419901
0.039723
0.0372467
0.0344446
0.0311441
0.0270284
0.0212548
0.010082
0.0471731
0.0807008
0.0882426
0.0921214
0.0946187
0.096342
0.0975198
0.0982845
0.0985608
0.0983781
0.0977804
0.0968089
0.0954966
0.0938685
0.0919464
0.089753
0.087314
0.0846583
0.0818173
0.078873
0.0758761
0.0728641
0.0698714
0.066928
0.064059
0.0612835
0.0586141
0.0560558
0.0536052
0.0512471
0.0489505
0.0466723
0.0443562
0.0419304
0.0393038
0.0363538
0.0328965
0.0285902
0.0225263
0.0107342
0.0624049
0.0999385
0.103301
0.105366
0.106951
0.108015
0.108602
0.108823
0.108523
0.107733
0.106523
0.104964
0.103108
0.100989
0.0986304
0.096047
0.0932558
0.0902753
0.0871422
0.0839378
0.0806967
0.0774519
0.0742341
0.0710705
0.0679838
0.0649915
0.0621057
0.0593321
0.0566692
0.0541028
0.0516048
0.0491351
0.0466394
0.0440462
0.041262
0.0381589
0.0345416
0.0300451
0.0237017
0.0113414
0.296844
0.219224
0.308651
0.264252
0.317413
0.294302
0.325391
0.312352
0.333109
0.325282
0.340702
0.335889
0.348244
0.345298
0.355809
0.35408
0.363446
0.362499
0.371174
0.370663
0.378619
0.386392
0.394123
0.40228
0.411067
0.418717
0.421759
0.422372
0.42125
0.419612
0.418724
0.419321
0.421526
0.425021
0.429194
0.433255
0.436425
0.438126
0.438056
0.436243
0.43303
0.429014
0.424918
0.161542
0.0932738
0.11568
0.110088
0.209861
0.181624
0.295165
0.299879
0.253058
0.221456
0.244293
0.262995
0.285598
0.257547
0.247055
0.246891
0.308303
0.287056
0.269138
0.256687
0.324845
0.309464
0.292846
0.277178
0.337864
0.326716
0.313156
0.298486
0.348923
0.340694
0.329942
0.317372
0.358813
0.35258
0.344018
0.333503
0.367904
0.363016
0.356072
0.347265
0.376381
0.372363
0.366568
0.35909
0.384371
0.380863
0.375846
0.369356
0.392018
0.388746
0.384216
0.378423
0.399763
0.396371
0.392025
0.386675
0.408142
0.40428
0.39984
0.39462
0.416776
0.412627
0.408186
0.402837
0.422032
0.420258
0.416804
0.411483
0.424389
0.424613
0.423115
0.419741
0.424733
0.426617
0.426936
0.425527
0.423991
0.426868
0.428379
0.428555
0.423501
0.426802
0.428832
0.429713
0.424209
0.427545
0.429572
0.430492
0.426407
0.429591
0.431324
0.431862
0.429874
0.43285
0.43418
0.434143
0.43405
0.43684
0.437774
0.437131
0.438188
0.440861
0.441477
0.440305
0.441495
0.444158
0.444582
0.443033
0.443348
0.446091
0.446483
0.444756
0.443443
0.44634
0.446854
0.445173
0.441843
0.445
0.445796
0.444384
0.438971
0.442569
0.443866
0.442955
0.43554
0.439879
0.441993
0.441872
0.432434
0.437961
0.44133
0.442359
0.113589
0.135279
0.129358
0.127447
0.12651
0.125632
0.124537
0.123302
0.121682
0.119647
0.117276
0.114666
0.111888
0.108983
0.105963
0.102825
0.0995615
0.0961686
0.0926924
0.089185
0.0856669
0.0821631
0.078699
0.0752976
0.0719784
0.0687566
0.0656429
0.0626428
0.0597565
0.0569698
0.0542577
0.0515833
0.0488946
0.046121
0.0431677
0.0399016
0.0361167
0.0314267
0.0248101
0.011919
0.248352
0.211811
0.184333
0.171477
0.162952
0.156377
0.15074
0.145769
0.141164
0.136548
0.131907
0.127322
0.12287
0.118587
0.114461
0.110446
0.106485
0.102528
0.0986127
0.0947315
0.0908839
0.0870812
0.0833395
0.0796752
0.0761029
0.0726343
0.0692776
0.0660374
0.0629143
0.0598934
0.0569524
0.0540576
0.0511599
0.0481902
0.0450526
0.0416097
0.0376461
0.0327558
0.025868
0.0124747
0.303896
0.301194
0.279034
0.250682
0.228752
0.21005
0.194968
0.182255
0.171693
0.162181
0.153359
0.145188
0.137722
0.130982
0.124924
0.119432
0.114351
0.109577
0.105045
0.100672
0.0964129
0.0922528
0.0881903
0.0842304
0.0803797
0.076644
0.0730277
0.069533
0.0661599
0.0628914
0.0597074
0.056577
0.0534542
0.0502717
0.0469336
0.043299
0.0391441
0.0340454
0.0268865
0.0130152
0.262165
0.282621
0.305562
0.316964
0.307864
0.284823
0.261018
0.23929
0.218906
0.201436
0.185818
0.17172
0.159181
0.148208
0.138782
0.130733
0.123788
0.117717
0.112248
0.107174
0.102369
0.0977598
0.0933129
0.0890116
0.0848486
0.0808202
0.0769242
0.0731586
0.069521
0.0659909
0.0625491
0.0591676
0.055803
0.0523904
0.048834
0.0449909
0.0406299
0.0353119
0.0278786
0.013547
0.25295
0.258318
0.271941
0.295525
0.321418
0.335165
0.327322
0.30808
0.283304
0.256983
0.232962
0.210929
0.190936
0.173321
0.158342
0.145971
0.135893
0.127624
0.120636
0.114498
0.108915
0.103711
0.0987823
0.0940738
0.0895523
0.0851978
0.0809974
0.076942
0.0730235
0.0692164
0.0655019
0.0618534
0.05823
0.0545691
0.0507759
0.0467057
0.0421219
0.0365713
0.0288566
0.014076
0.264195
0.257391
0.258219
0.268103
0.287819
0.315124
0.340719
0.351004
0.342222
0.320933
0.293009
0.263791
0.235647
0.209642
0.186764
0.167664
0.152389
0.140407
0.13089
0.12305
0.1163
0.110259
0.104698
0.0994839
0.0945387
0.0898136
0.0852775
0.0809107
0.0766911
0.0725903
0.0685874
0.064656
0.0607568
0.0568292
0.0527799
0.0484632
0.0436381
0.037839
0.0298319
0.0146075
0.283163
0.270337
0.262215
0.260707
0.267358
0.282604
0.306746
0.334891
0.357581
0.361885
0.349155
0.323712
0.291393
0.258193
0.226589
0.198657
0.175672
0.157757
0.144083
0.133477
0.124903
0.117629
0.111195
0.105328
0.0998652
0.0947081
0.0897955
0.0850898
0.0805457
0.0761325
0.0718248
0.0675945
0.0634026
0.0591902
0.0548652
0.0502819
0.0451954
0.0391293
0.0308152
0.0151466
0.302825
0.288373
0.275915
0.267245
0.264157
0.26811
0.280156
0.300481
0.327453
0.354673
0.369622
0.366777
0.34676
0.314047
0.277054
0.240598
0.208198
0.181874
0.16178
0.146759
0.135303
0.126156
0.118469
0.111722
0.105604
0.0999283
0.0945837
0.089501
0.0846066
0.0798602
0.0752302
0.0706848
0.0661839
0.0616689
0.057049
0.0521785
0.0468095
0.0404559
0.0318167
0.0156977
0.320654
0.306708
0.293026
0.280931
0.271975
0.267779
0.26987
0.279371
0.296544
0.321017
0.348544
0.369892
0.375529
0.361877
0.330774
0.291129
0.250721
0.214727
0.185881
0.164259
0.148344
0.13633
0.1268
0.118826
0.111847
0.105532
0.0996794
0.0941709
0.0888925
0.0837883
0.0788168
0.0739397
0.0691138
0.0642794
0.0593461
0.0541681
0.048495
0.0418315
0.0328457
0.016265
0.336155
0.323461
0.310121
0.296999
0.285211
0.276112
0.271216
0.272001
0.279578
0.294469
0.316518
0.342874
0.366798
0.378199
0.37003
0.341121
0.299694
0.256321
0.217856
0.187517
0.165138
0.148835
0.136578
0.12686
0.118721
0.11159
0.105128
0.0991272
0.0934211
0.0879292
0.0825943
0.0773685
0.072202
0.0670324
0.0617682
0.0562632
0.0502642
0.0432674
0.0339105
0.0168523
0.349485
0.338161
0.325778
0.312869
0.300163
0.288633
0.279506
0.2742
0.274122
0.2804
0.293632
0.313589
0.338388
0.362664
0.377021
0.372456
0.345153
0.302444
0.257179
0.217542
0.186849
0.164514
0.148321
0.136118
0.12639
0.118197
0.110988
0.104401
0.0982088
0.0922919
0.0865687
0.0809758
0.0754536
0.0699342
0.0643233
0.0584732
0.0521272
0.044773
0.0350186
0.0174629
0.360964
0.350889
0.339607
0.327438
0.314837
0.302444
0.291144
0.282083
0.276602
0.276056
0.281547
0.293637
0.312067
0.335307
0.358693
0.373595
0.370272
0.343263
0.299519
0.253508
0.214088
0.184176
0.162624
0.146968
0.135063
0.12547
0.117319
0.110022
0.10327
0.0968824
0.0907416
0.0847618
0.0788691
0.0729866
0.0670152
0.0608036
0.0540909
0.0463556
0.0361758
0.0180996
0.370961
0.36193
0.351685
0.340409
0.328372
0.31598
0.303827
0.292748
0.283842
0.278401
0.277731
0.282871
0.2943
0.311689
0.333492
0.355214
0.368706
0.364177
0.3359
0.291384
0.245911
0.208115
0.179995
0.159802
0.144989
0.133551
0.124189
0.116026
0.108619
0.101703
0.0951094
0.0887211
0.0824433
0.0761861
0.0698423
0.0632554
0.0561585
0.0480196
0.0373864
0.0187646
0.379883
0.371669
0.362306
0.351884
0.340557
0.32857
0.316305
0.304338
0.293489
0.284837
0.279647
0.279172
0.284353
0.295535
0.312233
0.332665
0.352139
0.362672
0.35475
0.323772
0.278934
0.235429
0.200525
0.174916
0.156417
0.142626
0.131692
0.122453
0.114267
0.106751
0.0996635
0.0928425
0.086165
0.079523
0.0727977
0.0658246
0.0583287
0.0497663
0.0386525
0.0194594
0.388189
0.380545
0.371867
0.362167
0.351522
0.34007
0.328049
0.31584
0.304026
0.293439
0.285164
0.28045
0.280477
0.286049
0.297318
0.313572
0.332654
0.349314
0.355338
0.34195
0.307579
0.263546
0.223477
0.192308
0.169526
0.152832
0.139909
0.129336
0.120221
0.112019
0.104389
0.0971081
0.0900164
0.0829811
0.0758681
0.0685013
0.0605953
0.0515928
0.0399737
0.0201843
0.396485
0.389095
0.380827
0.371653
0.361566
0.350621
0.338959
0.326823
0.314616
0.30295
0.292694
0.284957
0.280966
0.281796
0.288063
0.299657
0.315554
0.332968
0.345741
0.345523
0.325553
0.28864
0.247138
0.211487
0.184357
0.164205
0.148883
0.136696
0.126479
0.117491
0.109262
0.101493
0.0939723
0.0865374
0.0790332
0.0712692
0.0629467
0.0534918
0.0413465
0.020939
0.405243
0.397869
0.389746
0.380818
0.371069
0.360504
0.349169
0.337209
0.324893
0.312661
0.30118
0.291376
0.284386
0.28139
0.283306
0.290485
0.302471
0.317782
0.33263
0.339946
0.332137
0.306054
0.268654
0.231286
0.200332
0.176593
0.158577
0.144516
0.133021
0.123139
0.114252
0.105963
0.0980001
0.0901612
0.082266
0.0741056
0.065365
0.0554512
0.0427642
0.0217214
0.414365
0.407092
0.399064
0.390159
0.380497
0.370076
0.358924
0.347105
0.334774
0.322239
0.310002
0.298804
0.289639
0.283656
0.281935
0.285155
0.29331
0.305495
0.319532
0.330358
0.330652
0.314992
0.284806
0.249084
0.216215
0.189512
0.16881
0.15272
0.139797
0.128919
0.119316
0.110476
0.102059
0.0938145
0.0855322
0.0769811
0.0678265
0.0574536
0.0442163
0.0225283
0.422084
0.416356
0.408866
0.399954
0.390248
0.379748
0.368547
0.356708
0.344325
0.331581
0.318838
0.306681
0.295942
0.287673
0.282993
0.282792
0.287407
0.296364
0.308233
0.319776
0.324782
0.317105
0.294923
0.263433
0.23084
0.202303
0.179272
0.161159
0.146721
0.134768
0.124396
0.114981
0.1061
0.0974518
0.0887906
0.0798595
0.0703015
0.0594765
0.0456887
0.0233552
0.427208
0.423779
0.418012
0.410046
0.400474
0.389784
0.378352
0.366283
0.353685
0.340697
0.327552
0.314682
0.302776
0.292759
0.28571
0.282625
0.284088
0.289977
0.299283
0.309884
0.317149
0.314835
0.299621
0.273624
0.243234
0.214254
0.189553
0.169614
0.153667
0.140598
0.129423
0.119413
0.110066
0.101021
0.0919935
0.0826989
0.0727544
0.0614924
0.0471634
0.0241957
0.429479
0.427859
0.42448
0.418746
0.410448
0.400143
0.388462
0.376033
0.363043
0.349664
0.336092
0.322629
0.309807
0.298426
0.289483
0.284003
0.282732
0.285815
0.292578
0.301443
0.309182
0.310195
0.300291
0.279766
0.252831
0.22474
0.19921
0.177816
0.160471
0.146299
0.134311
0.123703
0.113892
0.104462
0.0950876
0.0854517
0.0751449
0.0634692
0.0486192
0.0250421
0.430491
0.4295
0.427394
0.423796
0.41814
0.409748
0.398579
0.385972
0.372491
0.358578
0.344465
0.330411
0.316812
0.304325
0.293854
0.286398
0.282792
0.28338
0.287754
0.294661
0.301783
0.304557
0.298357
0.282487
0.259483
0.23332
0.207833
0.185477
0.166944
0.15174
0.138963
0.127768
0.117508
0.107713
0.0980156
0.0880668
0.0774286
0.0653714
0.0500315
0.0258854
0.431475
0.430287
0.428416
0.425706
0.421762
0.415845
0.407189
0.395527
0.381921
0.367435
0.352682
0.337963
0.323628
0.310199
0.298466
0.289377
0.283803
0.282217
0.284421
0.289406
0.295351
0.298705
0.294923
0.282671
0.263437
0.239814
0.215121
0.192331
0.172893
0.156786
0.143276
0.131525
0.120842
0.110708
0.100718
0.0904907
0.079559
0.0671608
0.0513738
0.0267152
0.433039
0.431152
0.428832
0.426143
0.422853
0.418373
0.412029
0.402972
0.390668
0.376039
0.360671
0.345221
0.330119
0.315834
0.303032
0.292588
0.285365
0.281916
0.282192
0.285374
0.289913
0.293073
0.290769
0.281162
0.2652
0.244299
0.220917
0.198173
0.178139
0.161297
0.147142
0.134887
0.123818
0.113382
0.103135
0.0926699
0.0814889
0.0687984
0.0526182
0.0275203
0.435206
0.432402
0.429274
0.426093
0.422805
0.418976
0.413932
0.406837
0.396874
0.383732
0.368243
0.35207
0.336153
0.321037
0.307304
0.295728
0.287138
0.282118
0.280715
0.282257
0.285378
0.287886
0.286315
0.278593
0.26533
0.247017
0.225192
0.202862
0.182534
0.165148
0.150461
0.137771
0.126368
0.115671
0.105212
0.0945534
0.0831732
0.070246
0.0537369
0.0282891
0.437619
0.433896
0.429861
0.425968
0.422339
0.418686
0.414358
0.408471
0.400154
0.388958
0.374704
0.358283
0.341551
0.32561
0.311049
0.298536
0.28883
0.282512
0.279681
0.279771
0.281557
0.2832
0.281817
0.275423
0.264321
0.248256
0.228005
0.206326
0.185964
0.168233
0.153145
0.140105
0.128427
0.11752
0.106896
0.0960951
0.0845703
0.0714681
0.0547036
0.0290098
0.439754
0.435266
0.430423
0.425826
0.421757
0.418061
0.414142
0.409088
0.401903
0.391943
0.379239
0.363208
0.345948
0.32931
0.314043
0.300774
0.290186
0.282829
0.278821
0.27766
0.278234
0.278953
0.277442
0.271981
0.262566
0.248308
0.229472
0.208553
0.188363
0.170475
0.155122
0.141827
0.129943
0.118884
0.108147
0.0972565
0.085645
0.0724339
0.0554943
0.0296712
0.441127
0.436131
0.430707
0.42557
0.421128
0.41734
0.413669
0.409184
0.402796
0.393615
0.381558
0.366288
0.349019
0.331896
0.316081
0.302242
0.290997
0.282846
0.2779
0.275691
0.275196
0.275029
0.27326
0.268498
0.260375
0.24744
0.229742
0.209584
0.18971
0.171828
0.156344
0.142893
0.130879
0.119728
0.108933
0.0980081
0.0863699
0.0731186
0.0560891
0.0302629
0.441476
0.436281
0.430569
0.425126
0.420456
0.416596
0.413048
0.408871
0.402921
0.394178
0.38236
0.367648
0.350503
0.333137
0.316998
0.302786
0.291099
0.282387
0.27673
0.273673
0.272271
0.271325
0.269304
0.265147
0.257975
0.245852
0.228955
0.209486
0.190015
0.172276
0.156787
0.14328
0.131212
0.120031
0.109236
0.0983321
0.0867272
0.0735049
0.0564733
0.030776
0.440905
0.435822
0.430107
0.424586
0.419816
0.415884
0.41231
0.408144
0.402231
0.393562
0.381771
0.367355
0.350399
0.332983
0.316716
0.302311
0.290381
0.281324
0.275173
0.271468
0.269346
0.267796
0.265649
0.262071
0.255466
0.243613
0.227191
0.20832
0.189309
0.171827
0.15645
0.142983
0.130938
0.119791
0.10905
0.0982223
0.0867094
0.073584
0.0566376
0.0312034
0.439961
0.43525
0.429743
0.424271
0.419431
0.415342
0.411531
0.407048
0.400787
0.391834
0.379899
0.365626
0.348923
0.331529
0.315218
0.300771
0.288781
0.279581
0.273139
0.268987
0.26635
0.264436
0.262411
0.259375
0.252806
0.2407
0.224507
0.206161
0.187648
0.170517
0.155354
0.142018
0.13007
0.119017
0.108384
0.0976853
0.0863198
0.0733557
0.0565789
0.0315403
0.4396
0.435432
0.430198
0.424727
0.419666
0.415191
0.410852
0.405711
0.398742
0.389187
0.376939
0.362713
0.34608
0.328643
0.312441
0.298142
0.286283
0.277133
0.270594
0.266197
0.263288
0.261329
0.259744
0.257055
0.249814
0.237051
0.220962
0.203098
0.18511
0.168405
0.153544
0.14042
0.128636
0.117735
0.107262
0.0967396
0.0855725
0.0728288
0.0563006
0.031784
0.441037
0.437473
0.432385
0.426629
0.420964
0.415689
0.410425
0.404256
0.39621
0.385726
0.372932
0.358523
0.341808
0.324352
0.308425
0.294463
0.282926
0.274013
0.267567
0.263145
0.260274
0.258698
0.257812
0.254874
0.246176
0.232608
0.216626
0.199228
0.181789
0.165571
0.151086
0.138242
0.126682
0.115984
0.105716
0.0954142
0.0844906
0.0720196
0.0558113
0.0319338
)
;

boundaryField
{
    leftWall
    {
        type            kqRWallFunction;
        value           nonuniform 0();
    }
    rightWall
    {
        type            kqRWallFunction;
        value           nonuniform List<scalar> 
43
(
0.00700364
0.00813589
0.0086473
0.00866759
0.00861178
0.00870036
0.00938213
0.010082
0.0107342
0.0113414
0.011919
0.0124747
0.0130152
0.013547
0.014076
0.0146075
0.0151466
0.0156977
0.016265
0.0168523
0.0174629
0.0180996
0.0187646
0.0194594
0.0201843
0.020939
0.0217214
0.0225283
0.0233552
0.0241957
0.0250421
0.0258854
0.0267152
0.0275203
0.0282891
0.0290098
0.0296712
0.0302629
0.030776
0.0312034
0.0315403
0.031784
0.0319338
)
;
    }
    lowerWall
    {
        type            kqRWallFunction;
        value           nonuniform List<scalar> 
66
(
0.0281174
0.023262
0.023262
0.0391375
0.053678
0.0705743
0.0859034
0.101239
0.116744
0.132822
0.151917
0.17681
0.161542
0.0932738
0.11568
0.110088
0.0089309
0.00939831
0.013543
0.017846
0.0221007
0.0266699
0.0319214
0.0383972
0.0471731
0.0624049
0.0089309
0.0147861
0.0163885
0.0169127
0.0170856
0.0167508
0.0172308
0.0181729
0.0189901
0.0196775
0.0201137
0.0203336
0.020362
0.0202183
0.0199201
0.0194856
0.018935
0.0182962
0.0176505
0.0171743
0.0172753
0.0171004
0.0167594
0.0171537
0.0168668
0.0168702
0.0167908
0.0167865
0.0168422
0.0164955
0.0164799
0.0164253
0.0167959
0.0167625
0.0163884
0.0155228
0.0140102
0.0117646
0.00889735
0.00700364
)
;
    }
    atmosphere
    {
        type            inletOutlet;
        inletValue      nonuniform 0();
        value           nonuniform 0();
    }
    defaultFaces
    {
        type            empty;
    }
    procBoundary1to0
    {
        type            processor;
        value           nonuniform List<scalar> 
44
(
0.0306371
0.0797258
0.115516
0.144266
0.170024
0.193877
0.216429
0.238188
0.259436
0.279816
0.296888
0.309133
0.31814
0.325869
0.333123
0.340195
0.347268
0.354475
0.361907
0.369608
0.378977
0.378977
0.386821
0.395004
0.404127
0.413844
0.418522
0.419287
0.418245
0.415862
0.41346
0.412197
0.412603
0.414676
0.41803
0.422005
0.425814
0.428736
0.430225
0.429989
0.428025
0.424602
0.420194
0.4154
)
;
    }
    procBoundary1to3
    {
        type            processor;
        value           nonuniform List<scalar> 
45
(
0.421472
0.430526
0.437837
0.443044
0.445672
0.44556
0.442538
0.437256
0.43066
0.423741
0.417045
0.410341
0.402735
0.393242
0.38148
0.367893
0.352967
0.336028
0.318797
0.303304
0.289855
0.278822
0.270323
0.264166
0.259984
0.257569
0.256896
0.256596
0.252299
0.241575
0.227373
0.21158
0.194652
0.177787
0.162108
0.148056
0.135548
0.124263
0.113812
0.103789
0.0937455
0.0831043
0.0709511
0.0551245
0.0319906
)
;
    }
}


// ************************************************************************* //
