/*--------------------------------*- C++ -*----------------------------------*\
| =========                 |                                                 |
| \\      /  F ield         | OpenFOAM: The Open Source CFD Toolbox           |
|  \\    /   O peration     | Version:  5.0                                   |
|   \\  /    A nd           | Web:      www.OpenFOAM.org                      |
|    \\/     M anipulation  |                                                 |
\*---------------------------------------------------------------------------*/
FoamFile
{
    version     2.0;
    format      ascii;
    class       volScalarField;
    location    "0.4";
    object      nut;
}
// * * * * * * * * * * * * * * * * * * * * * * * * * * * * * * * * * * * * * //

dimensions      [0 2 -1 0 0 0 0];

internalField   nonuniform List<scalar> 
1915
(
8.96449e-05
8.12843e-05
0.000465141
0.000139432
0.000857515
0.0001631
0.00115106
0.000187023
0.00139186
0.000206275
0.00159912
0.000223636
0.00178456
0.000240264
0.00195907
0.000256262
0.00213534
0.000274047
0.00235281
0.000295693
0.000155802
0.000258108
6.60741e-05
0.000299352
0.000303964
6.87638e-05
7.04794e-05
7.24416e-05
7.41241e-05
7.55196e-05
7.64176e-05
7.69005e-05
7.7021e-05
7.68145e-05
7.63087e-05
7.55291e-05
7.45033e-05
7.32764e-05
7.20606e-05
7.09881e-05
7.04589e-05
6.97071e-05
6.87645e-05
0.00030667
0.000300885
0.000299429
6.80164e-05
0.000296273
0.000298433
6.66802e-05
0.000289277
0.000287938
0.000294792
0.000293682
0.000286618
0.00027111
0.000244474
0.00020518
0.000155177
0.000161629
7.25505e-05
0.000388819
0.00043344
0.00048762
0.000526131
0.000545341
0.000592856
0.000635839
0.000671561
0.000696743
0.00071778
0.000735522
0.000749999
0.000761071
0.000768545
0.000772202
0.000771778
0.00076682
0.000756025
0.000736302
0.000711007
0.000685298
0.000658388
0.000669525
0.000642861
0.000620028
0.00058309
0.000592354
0.000592649
0.000543188
0.000553858
0.000547578
0.00059275
0.00059717
0.000579596
0.000542125
0.000485196
0.00040717
0.000310498
0.000277208
8.70282e-05
0.000536284
0.000748373
0.000872485
0.00097685
0.00107223
0.00116444
0.00124853
0.00132108
0.00138084
0.00143314
0.00147925
0.0015191
0.00155209
0.00157745
0.00159427
0.0016016
0.00159836
0.00158311
0.00155457
0.00151807
0.00147302
0.00142142
0.00137345
0.00131703
0.00126177
0.00121084
0.00116321
0.00111727
0.00106966
0.00102801
0.000989058
0.000958933
0.000923041
0.000872974
0.000802342
0.000706205
0.00057686
0.000403206
0.000295959
9.99188e-05
0.000663341
0.000995326
0.00119566
0.00135192
0.00148813
0.00161071
0.00172119
0.0018193
0.00190607
0.00198553
0.00205873
0.00212523
0.00218383
0.00223296
0.00227082
0.00229556
0.00230535
0.00229853
0.00227429
0.00223514
0.00218106
0.00211448
0.00203997
0.00195822
0.0018734
0.00178939
0.00170541
0.0016229
0.00154284
0.00146526
0.00138968
0.00131472
0.00123672
0.0011472
0.00103723
0.000897213
0.00071229
0.000453136
0.000297779
0.000111022
0.000766857
0.00118921
0.00144588
0.00163537
0.00179288
0.00193102
0.00205512
0.00216753
0.00227176
0.00237133
0.00246705
0.00255808
0.00264265
0.00271838
0.00278257
0.00283234
0.00286486
0.0028777
0.00286929
0.00283946
0.00278861
0.00271879
0.0026334
0.00253562
0.00242936
0.00231861
0.00220531
0.00209131
0.00197891
0.00186805
0.00175787
0.00164612
0.00152931
0.00140031
0.00124961
0.00106485
0.000826233
0.00049282
6.8949e-05
0.00012169
0.000850448
0.00133593
0.00162815
0.00183492
0.00200061
0.00214333
0.00227143
0.00238922
0.00250286
0.00261582
0.00272883
0.00284087
0.00294977
0.00305255
0.00314566
0.00322522
0.00328729
0.0033283
0.00334524
0.00333565
0.00329945
0.00323794
0.00315374
0.00305032
0.00293182
0.0028026
0.00266628
0.00252584
0.0023844
0.00224267
0.0021
0.00195412
0.00180108
0.00163412
0.00144343
0.00121498
0.000926243
0.000536681
6.9954e-05
0.000132776
0.000917604
0.00143876
0.00174696
0.00195808
0.00212302
0.0022634
0.0023891
0.00250646
0.00262376
0.0027447
0.00287016
0.00299924
0.00312968
0.00325817
0.00338059
0.00349217
0.00358789
0.00366298
0.0037124
0.00373178
0.00371997
0.00367713
0.00360485
0.00350603
0.00338464
0.00324532
0.00309272
0.00293101
0.00276422
0.00259416
0.00242087
0.00224247
0.00205492
0.00185151
0.00162211
0.00135171
0.00101633
0.000576347
7.25807e-05
0.000145193
0.000969167
0.00149498
0.00180054
0.00200641
0.002166
0.00230138
0.00242184
0.00253628
0.00265403
0.0027792
0.00291315
0.0030554
0.003204
0.00335571
0.00350615
0.00364997
0.00378122
0.00389399
0.0039806
0.00403542
0.00405588
0.00404064
0.00398987
0.00390532
0.00379029
0.00364928
0.00348748
0.00331004
0.00312199
0.00292641
0.00272441
0.00251485
0.00229404
0.00205538
0.00178854
0.00147789
0.00109865
0.000612239
7.52605e-05
0.000160503
0.00100166
0.00149429
0.00178002
0.00197593
0.00213092
0.00226367
0.00238039
0.00249251
0.00260981
0.002737
0.00287627
0.00302802
0.00319106
0.00336266
0.00353859
0.00371327
0.00388011
0.00403201
0.00415834
0.00425303
0.00431183
0.00433163
0.0043108
0.00424949
0.00414978
0.00401552
0.00385191
0.0036648
0.00346008
0.00324222
0.00301366
0.00277435
0.00252134
0.00224838
0.00194516
0.00159569
0.00117476
0.000644916
7.77008e-05
0.000184601
0.00101415
0.00142555
0.00167836
0.00186602
0.00202251
0.00215929
0.00227758
0.00239035
0.00250771
0.00263539
0.00277695
0.00293423
0.00310734
0.00329456
0.00349225
0.00369499
0.003896
0.00408607
0.00425295
0.00439014
0.00449167
0.00455247
0.00456882
0.00453889
0.00446303
0.0043439
0.00418619
0.00399594
0.00377974
0.0035434
0.00329085
0.00302342
0.00273927
0.00243283
0.00209408
0.00170692
0.00124596
0.000674993
7.99221e-05
0.00284008
0.000710827
0.0034814
0.00147083
0.00426792
0.00246357
0.00516348
0.00357025
0.00611369
0.00471624
0.00706741
0.00584415
0.00798625
0.00691724
0.00884475
0.00791334
0.00962716
0.00881882
0.010325
0.00962641
0.0103341
0.0109441
0.0114618
0.0118945
0.0122497
0.0125308
0.0127291
0.012857
0.0129152
0.0129049
0.0128259
0.012677
0.0124591
0.0121774
0.011841
0.0114645
0.0110636
0.0106495
0.0102323
0.00982157
0.00942687
0.00905811
0.00872504
0.000218126
0.000164477
0.000182087
0.000179852
0.0006608
0.000529342
0.000591974
0.000686556
0.0014162
0.0010095
0.000774355
0.000789326
0.00242492
0.00175202
0.00125212
0.00106264
0.00356795
0.00272203
0.00203523
0.00161223
0.00474773
0.00382759
0.00303523
0.00243014
0.00590172
0.00497941
0.00414441
0.00343121
0.00699193
0.00611086
0.00527814
0.00451782
0.00799486
0.00717788
0.00637756
0.00561309
0.00889729
0.00815432
0.0074048
0.00666449
0.00969396
0.0090273
0.00833827
0.00763958
0.0103855
0.00979313
0.00916834
0.00852102
0.0109764
0.0104539
0.00989332
0.00930185
0.0114739
0.0110152
0.0105161
0.00998144
0.011886
0.0114838
0.0110422
0.0105626
0.0122198
0.0118667
0.0114778
0.0110498
0.0124685
0.0121689
0.011829
0.0114475
0.0126376
0.0123837
0.0120921
0.0117601
0.0127308
0.0125157
0.0122663
0.0119803
0.0127487
0.0125651
0.012351
0.0121052
0.0126923
0.0125343
0.0123497
0.0121373
0.0125613
0.0124245
0.0122645
0.0120806
0.0123571
0.0122374
0.0120981
0.0119388
0.0120848
0.011978
0.0118556
0.011717
0.0117535
0.0116556
0.0115459
0.0114241
0.011375
0.0112819
0.0111809
0.011072
0.0109649
0.0108701
0.0107741
0.0106743
0.0105385
0.0104351
0.0103392
0.0102452
0.0101068
0.00999256
0.00988958
0.00979882
0.00968007
0.0095536
0.00944267
0.00934968
0.00926888
0.00912965
0.00900996
0.008912
0.00888428
0.00873291
0.00860505
0.00850314
0.00853745
0.00837586
0.00824149
0.00813659
0.000496121
0.00104267
0.00130866
0.00152136
0.00170312
0.00186546
0.00201124
0.00213671
0.00225261
0.00236969
0.00249519
0.00263467
0.00279204
0.00296931
0.00316631
0.00338049
0.00360702
0.0038392
0.00406448
0.00427141
0.00445242
0.00459984
0.00470651
0.00476643
0.00477541
0.00473167
0.0046361
0.00449229
0.00430596
0.00408405
0.00383353
0.00355988
0.00326609
0.00295174
0.00261231
0.00223839
0.00181407
0.00131397
0.000703298
8.19941e-05
0.000892869
0.00108763
0.00123314
0.00140314
0.00156567
0.00172152
0.00186777
0.00199831
0.00211442
0.00222684
0.00234407
0.0024738
0.00262257
0.00279493
0.0029929
0.00321561
0.00345926
0.00371684
0.00397276
0.00421765
0.00444244
0.00463764
0.00479395
0.00490291
0.00495774
0.00495407
0.00489056
0.00476904
0.0045943
0.00437319
0.00411355
0.00382235
0.00350435
0.0031609
0.00278894
0.00238001
0.00191871
0.00137991
0.00073036
8.39538e-05
0.000968362
0.00110969
0.00125943
0.00140708
0.00154027
0.00166702
0.00179366
0.00191538
0.00202235
0.0021217
0.00222127
0.00233018
0.00245772
0.00261181
0.00279754
0.00301657
0.00326702
0.00353918
0.00381928
0.00409782
0.00436419
0.0046071
0.004815
0.00497692
0.00508326
0.00512677
0.00510333
0.00501249
0.00485741
0.00464434
0.00438154
0.00407722
0.00373796
0.00336709
0.00296338
0.00251974
0.0020216
0.00144436
0.000756503
8.58318e-05
0.00105536
0.00115232
0.00130511
0.00145773
0.00159285
0.00170805
0.00181431
0.00191387
0.00200668
0.00208788
0.00216312
0.00224148
0.00233422
0.00245377
0.00260972
0.00280783
0.00304842
0.00332105
0.00361542
0.00392042
0.00422371
0.00451203
0.00477157
0.00498872
0.0051509
0.00524768
0.00527176
0.0052198
0.00509265
0.00489543
0.0046362
0.00432403
0.00396719
0.00357112
0.00313674
0.00265875
0.00212381
0.00150813
0.000782097
8.76553e-05
0.00138329
0.00131634
0.00135497
0.00147356
0.00163017
0.00177993
0.00189768
0.00199347
0.00206948
0.00213406
0.00218642
0.00223262
0.0022841
0.00235603
0.00246393
0.00261973
0.00282776
0.00308352
0.0033776
0.00369775
0.00402981
0.00435835
0.00466713
0.00493973
0.00516042
0.00531529
0.00539346
0.00538811
0.00529716
0.00512395
0.0048757
0.00456178
0.00419182
0.00377342
0.00330987
0.00279806
0.00222629
0.00157191
0.000807469
8.94478e-05
0.00198318
0.00171939
0.00159581
0.00158058
0.00165088
0.00178431
0.00193821
0.00207245
0.00217039
0.00223638
0.00228
0.00230642
0.00232297
0.00234509
0.00239292
0.00248648
0.00263948
0.00285546
0.00312872
0.00344722
0.00379522
0.00415494
0.00450739
0.00483308
0.00511284
0.00532899
0.0054666
0.00551482
0.00546803
0.00532719
0.00509784
0.004789
0.00441124
0.00397409
0.00348338
0.00293852
0.00232989
0.00163635
0.000832916
9.12293e-05
0.00281805
0.00236786
0.00206624
0.0018899
0.00181998
0.00183994
0.00193518
0.00207552
0.00222105
0.00233074
0.00239916
0.00243046
0.00243429
0.00242314
0.00241666
0.00244053
0.00251992
0.00267129
0.00289808
0.00319208
0.00353749
0.00391443
0.00430092
0.00467405
0.00501082
0.00528934
0.00549016
0.0055977
0.00560254
0.00550232
0.00530014
0.00500387
0.00462436
0.00417281
0.00365754
0.00308076
0.00243533
0.00170203
0.000858697
9.30172e-05
0.00380472
0.00321245
0.00275145
0.002413
0.00218754
0.00206623
0.00203931
0.00209263
0.00220741
0.00234783
0.00246808
0.00254475
0.00257224
0.00255917
0.00252397
0.00249158
0.00249439
0.00256352
0.0027181
0.00296055
0.0032792
0.00365383
0.00405985
0.00447067
0.00485907
0.00519843
0.00546421
0.00563538
0.00569837
0.00564666
0.00548
0.00520423
0.00482976
0.0043689
0.00383233
0.00322521
0.0025432
0.00176944
0.000885044
9.48264e-05
0.0048559
0.00417521
0.0035957
0.00311956
0.00274713
0.00247821
0.00231119
0.00224032
0.00225442
0.00233863
0.00246314
0.00258619
0.00267065
0.00269918
0.00267445
0.00261865
0.00256423
0.00255144
0.00261725
0.00278234
0.00304673
0.00339442
0.00380017
0.00423421
0.00466486
0.00506031
0.00539021
0.00562745
0.00575386
0.00575784
0.00563486
0.00538777
0.00502567
0.00456132
0.00400741
0.00337201
0.00265392
0.001839
0.000912155
9.66698e-05
0.00590324
0.0051806
0.00452752
0.00395173
0.00345964
0.00305755
0.0027515
0.00254466
0.00243517
0.00241482
0.0024693
0.00257368
0.00269091
0.00277883
0.00280908
0.00277583
0.00270243
0.00263093
0.00261025
0.00268217
0.00286686
0.00316041
0.00354154
0.00397936
0.00443835
0.00488124
0.00527123
0.00557469
0.00576818
0.00583401
0.0057624
0.00555218
0.00521014
0.00474872
0.00418207
0.00352105
0.00276771
0.00191102
0.000940191
9.85586e-05
0.00690079
0.00617095
0.00548272
0.00484582
0.00426911
0.003762
0.00333494
0.00299801
0.00275827
0.00261689
0.00256732
0.00259551
0.00267995
0.00278659
0.00287252
0.00290187
0.00286052
0.00277232
0.00269018
0.00267165
0.00276113
0.00297572
0.00330581
0.0037239
0.00419269
0.00467005
0.00511195
0.00547931
0.00574158
0.00587407
0.00586071
0.00569523
0.00538111
0.00492949
0.00435533
0.00367193
0.00288461
0.00198569
0.000969274
0.000100502
0.00782119
0.00710815
0.00641387
0.00574813
0.00512023
0.00454017
0.00401974
0.00357228
0.00321097
0.00294575
0.00277967
0.00270719
0.00271468
0.0027817
0.00287586
0.0029548
0.00297858
0.00292741
0.00282742
0.00274308
0.00273912
0.00285919
0.00311429
0.0034874
0.0039437
0.0044382
0.00492006
0.00534561
0.00567579
0.00587794
0.00592853
0.00581507
0.00553657
0.00510188
0.00452594
0.00382396
0.00300439
0.00206307
0.000999471
0.000102506
0.00865043
0.00796988
0.00729011
0.00662009
0.00596851
0.00534479
0.0047602
0.00422845
0.00376523
0.00338614
0.00310297
0.00291985
0.00283163
0.0028246
0.00287794
0.00295951
0.00302734
0.00303989
0.00297617
0.00286884
0.00279365
0.00281916
0.00298358
0.00328875
0.00370865
0.00419924
0.00470582
0.00518001
0.00557423
0.00584677
0.00596547
0.00591034
0.00567472
0.00526409
0.00469243
0.0039762
0.00312661
0.00214305
0.00103079
0.000104577
0.00938309
0.00874463
0.00809324
0.00743662
0.00678241
0.0061389
0.0055161
0.00492656
0.00438581
0.00391164
0.00352143
0.00322806
0.00303596
0.00293948
0.00292409
0.00296775
0.00303728
0.00309059
0.00308624
0.0030078
0.00290062
0.00284984
0.00292139
0.00314279
0.00350417
0.00396724
0.00448065
0.00499082
0.0054421
0.0057832
0.00597219
0.00598037
0.00579415
0.00541445
0.00485324
0.00412745
0.00325057
0.00222535
0.00106318
0.000106715
0.0100185
0.00942745
0.00881335
0.00818242
0.00754103
0.00689616
0.00625628
0.00563222
0.00503801
0.00449108
0.00401108
0.00361674
0.0033213
0.00312843
0.0030311
0.00301323
0.00305097
0.00310872
0.00314352
0.00311669
0.00302523
0.00293166
0.00292386
0.00305697
0.00334344
0.0037578
0.00425827
0.00478862
0.00528665
0.0056915
0.00595064
0.0060254
0.00589398
0.00555147
0.00500678
0.00427637
0.00337536
0.00230952
0.0010965
0.000108919
0.0105588
0.010017
0.00944535
0.00884834
0.00823085
0.00759846
0.00695805
0.00631859
0.0056921
0.00509433
0.00454475
0.00406478
0.00367397
0.00338493
0.00319947
0.00310816
0.00309282
0.00312675
0.00317091
0.00318239
0.00313135
0.0030368
0.00297609
0.0030292
0.00323276
0.00358437
0.00405287
0.00458564
0.00511705
0.00557771
0.00590417
0.00604672
0.005974
0.00567405
0.00515155
0.0044215
0.00349985
0.00239489
0.00113053
0.000111184
0.0110071
0.0105141
0.00998721
0.00942899
0.008843
0.00823329
0.00760507
0.00696548
0.00632438
0.00569533
0.00509621
0.0045487
0.00407577
0.00369699
0.00342307
0.00325267
0.00317314
0.00316362
0.00319317
0.00321972
0.00320458
0.00313534
0.00305627
0.00304869
0.00317484
0.00345597
0.00387703
0.0043945
0.00494377
0.00544942
0.00583755
0.0060467
0.00603481
0.00578157
0.00528625
0.00456134
0.00362277
0.00248066
0.00116497
0.000113503
0.0113675
0.0109208
0.0104388
0.00992171
0.00937197
0.008792
0.00818552
0.00755779
0.00691649
0.00627284
0.00564244
0.00504571
0.00450664
0.00404921
0.0036917
0.00344138
0.00329256
0.00322878
0.0032258
0.00324753
0.00325209
0.00321223
0.00314075
0.00310082
0.00316512
0.00337652
0.00374014
0.00422665
0.00477761
0.0053152
0.00575667
0.00602878
0.00607782
0.00587395
0.00540985
0.00469445
0.00374273
0.00256584
0.00119943
0.000115862
0.0116376
0.0112402
0.0108024
0.0103261
0.00981487
0.00926912
0.00869109
0.00808427
0.00745431
0.00680991
0.00616418
0.00553538
0.00494684
0.00442461
0.00399253
0.00366578
0.00344652
0.00332381
0.00327742
0.00327846
0.0032868
0.00326782
0.00321454
0.00316564
0.00318896
0.00334067
0.00364496
0.00408986
0.00462797
0.00518366
0.00566815
0.00599724
0.00610519
0.00595166
0.00552166
0.00481952
0.00385828
0.00264933
0.00123343
0.000118246
0.0118092
0.0114636
0.0110756
0.0106438
0.0101718
0.00966214
0.00911664
0.00853721
0.00792729
0.00729335
0.00664578
0.00600023
0.00537826
0.00480621
0.00431131
0.00391526
0.00362799
0.00344514
0.00335042
0.00331994
0.0033191
0.00330961
0.00327346
0.00322943
0.00323125
0.00333808
0.00358824
0.00398708
0.00450143
0.00506232
0.00557855
0.00595683
0.00611968
0.0060157
0.00562134
0.00493538
0.00396799
0.00272994
0.00126644
0.000120635
0.011881
0.0115827
0.0112462
0.0108662
0.0104411
0.00997153
0.00946052
0.00891229
0.00832855
0.00771352
0.00707501
0.00642587
0.00578513
0.00517811
0.00463357
0.00417797
0.00382823
0.00358697
0.00344277
0.00337491
0.00335485
0.00334499
0.00332
0.00328571
0.00328033
0.0033576
0.0035632
0.00391711
0.00440135
0.00495684
0.00549374
0.00591231
0.00612438
0.00606748
0.00570889
0.00504106
0.00407049
0.00280643
0.00129788
0.000123006
0.0118589
0.0116013
0.0113106
0.0109823
0.0106115
0.0101922
0.00972249
0.00920888
0.00865483
0.00806444
0.00744322
0.00680112
0.00615437
0.00552621
0.0049455
0.00444168
0.00403744
0.00374211
0.0035498
0.00344296
0.00339733
0.00337916
0.00335857
0.00333322
0.00332902
0.00338979
0.00356201
0.00387607
0.00432813
0.00487069
0.00541843
0.00586804
0.00612246
0.00610865
0.00578459
0.00513582
0.00416446
0.00287754
0.00132711
0.000125335
0.0117475
0.0115261
0.0112768
0.0109951
0.0106754
0.0103107
0.0098951
0.00942558
0.00890614
0.00834377
0.00774533
0.00711825
0.00647582
0.00583875
0.00523472
0.00469467
0.00424552
0.00390262
0.00366575
0.00352103
0.00344702
0.00341473
0.00339295
0.00337356
0.00337405
0.00342789
0.00357742
0.00385881
0.00428002
0.00480528
0.00535587
0.00582768
0.00611687
0.00614099
0.00584893
0.0052191
0.00424875
0.00294206
0.00135353
0.000127594
0.0115524
0.0113636
0.0111524
0.010914
0.0106422
0.0103293
0.00996881
0.00955377
0.00907979
0.00855133
0.00797955
0.00737289
0.00674255
0.00610661
0.00549085
0.00492631
0.00444272
0.00406032
0.00378422
0.0036046
0.0035023
0.00345261
0.00342577
0.00340916
0.003415
0.00346794
0.00360366
0.00386013
0.00425409
0.00476041
0.00530793
0.00579399
0.00611018
0.00616618
0.00590251
0.00529053
0.00432234
0.00299886
0.0013765
0.000129754
0.0112822
0.0111223
0.0109459
0.0107483
0.0105222
0.0102593
0.00995098
0.00958924
0.00916795
0.00868504
0.00814581
0.00756342
0.00695054
0.00632346
0.00570582
0.00512771
0.00462028
0.00420742
0.00389885
0.00368881
0.00356058
0.00349255
0.00345805
0.00344196
0.0034528
0.00350816
0.00363669
0.00387551
0.004247
0.00473482
0.00527533
0.00576879
0.0061044
0.00618572
0.00594597
0.00534988
0.00438438
0.00304691
0.00139549
0.000131788
0.0109487
0.0108136
0.0106685
0.0105086
0.0103261
0.0101113
0.00985354
0.00954311
0.00917254
0.00873882
0.00824219
0.00768966
0.007098
0.00648552
0.005874
0.00529202
0.00477095
0.00433706
0.00400376
0.00376896
0.00361857
0.00353336
0.0034901
0.00347341
0.00348879
0.0035481
0.00367403
0.00390144
0.00425561
0.00472673
0.00525789
0.00575312
0.00610101
0.00620086
0.00597992
0.00539702
0.00443418
0.00308537
0.00140998
0.00013367
0.0105656
0.0104515
0.0103339
0.0102082
0.0100664
0.00989721
0.00968824
0.0094276
0.00910593
0.00871848
0.00826661
0.00774898
0.00718363
0.00659091
0.00599217
0.00541467
0.00488935
0.00444373
0.00409391
0.00384085
0.00367302
0.00357333
0.00352192
0.00350461
0.0035243
0.00358808
0.00371439
0.0039355
0.00427732
0.00473425
0.00525488
0.00574731
0.00610091
0.0062125
0.00600487
0.00543192
0.00447123
0.00311353
0.00141959
0.000135373
0.0101477
0.0100509
0.00995705
0.00986201
0.00975727
0.00963051
0.0094674
0.00925392
0.00897873
0.00863495
0.00822263
0.00774328
0.0072086
0.00664
0.0060594
0.00549339
0.00497217
0.00452362
0.00416549
0.00390106
0.00372115
0.0036108
0.00355331
0.00353644
0.00356062
0.00362882
0.00375736
0.00397618
0.00431011
0.00475559
0.00526529
0.00575119
0.00610451
0.00622124
0.00602124
0.00545461
0.0044952
0.00313091
0.00142401
0.000136878
0.00970952
0.00962701
0.00955371
0.0094856
0.00941395
0.00932545
0.00920399
0.00903353
0.0088009
0.00849758
0.00812206
0.0076793
0.00717629
0.00663485
0.0060769
0.00552819
0.00501825
0.00457476
0.00421618
0.00394736
0.00376111
0.00364463
0.00358419
0.00356976
0.00359882
0.00367105
0.00380298
0.00402273
0.00435263
0.00478927
0.00528797
0.00576422
0.00611183
0.00622736
0.00602931
0.00546518
0.00450592
0.00313719
0.00142309
0.000138167
0.00926605
0.00919524
0.00913944
0.00909461
0.00905169
0.00899643
0.00891119
0.00877818
0.00858273
0.0083154
0.00797374
0.00756462
0.00709318
0.00658042
0.00604812
0.00552114
0.00502845
0.00459706
0.0042453
0.00397884
0.00379213
0.00367455
0.00361512
0.00360556
0.00363958
0.00371514
0.00385153
0.00407497
0.00440409
0.00483415
0.00532184
0.00578568
0.00612258
0.00623092
0.00602924
0.00546374
0.00450339
0.0031323
0.00141678
0.000139229
0.00883224
0.0087709
0.00872969
0.00870427
0.0086852
0.00865738
0.00860191
0.00849966
0.00833499
0.00809815
0.0077868
0.00740851
0.00696766
0.00648353
0.00597806
0.00547601
0.00500546
0.0045922
0.00425376
0.00399595
0.00381456
0.00370121
0.00364734
0.00364489
0.00368298
0.00376124
0.00390362
0.00413328
0.00446425
0.00488944
0.0053659
0.00581471
0.00613626
0.00623176
0.00602114
0.00545048
0.00448776
0.00311635
0.00140516
0.000140056
0.00842451
0.00836993
0.00833984
0.00832929
0.00832835
0.00832131
0.00828833
0.00820936
0.00806842
0.00785599
0.00757047
0.00721988
0.00680679
0.00634973
0.00587214
0.00539781
0.00495353
0.00456354
0.00424405
0.00400059
0.00383011
0.00372641
0.00368273
0.00368846
0.00372854
0.00380973
0.00396034
0.00419854
0.00453332
0.00495469
0.00541929
0.0058504
0.00615218
0.00622957
0.00600502
0.00542562
0.00445935
0.00308967
0.00138844
0.000140647
0.00805797
0.00800772
0.00798468
0.00798341
0.00799379
0.00799987
0.00798132
0.00791762
0.00779281
0.00759814
0.00733334
0.00700625
0.00661796
0.0061865
0.00573747
0.00529302
0.00487837
0.00451591
0.00422017
0.00399615
0.00384195
0.00375335
0.0037235
0.00373579
0.0037753
0.00386145
0.00402321
0.00427191
0.00461178
0.00502964
0.00548121
0.00589179
0.00616954
0.00622391
0.00598083
0.00538945
0.00441863
0.00305273
0.00136692
0.000141004
)
;

boundaryField
{
    leftWall
    {
        type            nutkWallFunction;
        Cmu             0.09;
        kappa           0.41;
        E               9.8;
        value           nonuniform 0();
    }
    rightWall
    {
        type            nutkWallFunction;
        Cmu             0.09;
        kappa           0.41;
        E               9.8;
        value           nonuniform List<scalar> 
43
(
0
0
0
1.23776e-08
0
3.44302e-08
4.8282e-07
9.2398e-07
1.31939e-06
1.67529e-06
2.00378e-06
2.31131e-06
2.60293e-06
2.88309e-06
3.15557e-06
3.42351e-06
3.68958e-06
3.95602e-06
4.22474e-06
4.49729e-06
4.77494e-06
5.05858e-06
5.34878e-06
5.64572e-06
5.94916e-06
6.25844e-06
6.57244e-06
6.88957e-06
7.20783e-06
7.52479e-06
7.83768e-06
8.14342e-06
8.43875e-06
8.72034e-06
8.98485e-06
9.22911e-06
9.45022e-06
9.64566e-06
9.81337e-06
9.95187e-06
1.00603e-05
1.01383e-05
1.0186e-05
)
;
    }
    lowerWall
    {
        type            nutkWallFunction;
        Cmu             0.09;
        kappa           0.41;
        E               9.8;
        value           nonuniform List<scalar> 
66
(
1.07704e-05
9.8398e-06
9.8398e-06
1.63593e-05
1.8942e-05
2.14945e-05
2.35311e-05
2.53765e-05
2.70915e-05
2.87423e-05
3.05657e-05
3.27627e-05
2.47303e-05
1.51161e-05
1.78879e-05
1.7227e-05
0
4.93227e-07
2.88101e-06
4.94628e-06
6.72233e-06
8.42277e-06
1.01821e-05
1.21368e-05
1.45057e-05
1.80814e-05
0
0
0
2.08073e-08
8.03824e-08
0
1.30127e-07
4.47213e-07
7.14656e-07
9.34496e-07
1.07175e-06
1.14027e-06
1.14909e-06
1.10438e-06
1.01104e-06
8.73569e-07
6.96812e-07
4.8798e-07
2.72575e-07
1.10785e-07
1.45326e-07
8.54419e-08
0
1.03751e-07
4.92548e-09
6.11877e-09
0
0
0
0
0
0
0
0
0
0
0
0
0
0
)
;
    }
    atmosphere
    {
        type            calculated;
        value           nonuniform 0();
    }
    defaultFaces
    {
        type            empty;
    }
    procBoundary1to0
    {
        type            processor;
        value           nonuniform List<scalar> 
44
(
9.36025e-05
0.0006614
0.00119426
0.0016806
0.0021432
0.00257904
0.00298698
0.00337056
0.00373982
0.00412451
0.00460907
0.00519609
0.00587458
0.00662399
0.00741189
0.00820433
0.00897244
0.00969439
0.0103552
0.010946
0.0109355
0.0109355
0.0114602
0.0119044
0.0122758
0.0125805
0.0128024
0.0129529
0.0130425
0.0130696
0.0130348
0.0129367
0.0127733
0.0125454
0.0122583
0.0119234
0.0115562
0.0111684
0.0107705
0.0103716
0.00998037
0.00960558
0.00925591
0.00893983
)
;
    }
    procBoundary1to3
    {
        type            processor;
        value           nonuniform List<scalar> 
45
(
0.00843692
0.00823887
0.00807029
0.0079322
0.00782595
0.00774656
0.00769846
0.0076776
0.0076787
0.00769226
0.00770276
0.00768992
0.00763311
0.00751656
0.00733284
0.00708334
0.00677473
0.00640827
0.00600219
0.00558221
0.00516935
0.00478706
0.00445558
0.00418755
0.00398749
0.00385471
0.00378617
0.00377094
0.00378484
0.00382272
0.00391818
0.0040941
0.0043547
0.00470017
0.00511405
0.00555086
0.00593778
0.00618739
0.00621418
0.00594844
0.00534223
0.00436615
0.00300619
0.001341
0.000141132
)
;
    }
}


// ************************************************************************* //
