/*--------------------------------*- C++ -*----------------------------------*\
| =========                 |                                                 |
| \\      /  F ield         | OpenFOAM: The Open Source CFD Toolbox           |
|  \\    /   O peration     | Version:  5.0                                   |
|   \\  /    A nd           | Web:      www.OpenFOAM.org                      |
|    \\/     M anipulation  |                                                 |
\*---------------------------------------------------------------------------*/
FoamFile
{
    version     2.0;
    format      ascii;
    class       volScalarField;
    location    "0.4";
    object      p;
}
// * * * * * * * * * * * * * * * * * * * * * * * * * * * * * * * * * * * * * //

dimensions      [1 -1 -2 0 0 0 0];

internalField   nonuniform List<scalar> 
1915
(
1372.53
1398.19
1305.05
1339.76
1255.78
1296.12
1230.1
1270.8
1208.74
1261.03
1185.53
1254.17
1151.35
1237.06
1096.45
1193.91
1009.01
1096.34
869.338
890.859
6.67519
6.67097
6.66611
6.6613
6.65618
6.65075
6.64597
6.64192
6.63861
6.63585
6.63335
6.63074
6.6277
6.62399
6.61939
6.61377
6.60704
6.59916
6.59017
6.58014
6.56923
6.55758
6.54538
6.53286
6.5202
6.5075
6.49558
6.48391
6.47265
6.46287
6.45363
6.44473
6.43713
6.43097
6.42576
6.4215
6.41821
6.41591
6.41452
6.41397
6.62927
6.62571
6.62279
6.6181
6.61199
6.60551
6.59952
6.59453
6.59051
6.58715
6.58407
6.58097
6.57756
6.57359
6.56885
6.56319
6.55651
6.54878
6.54001
6.5303
6.51973
6.50844
6.49661
6.48447
6.47225
6.46026
6.44816
6.43665
6.42594
6.41555
6.40634
6.39835
6.39104
6.38457
6.37923
6.37484
6.37138
6.36885
6.36725
6.36672
6.58462
6.5799
6.5766
6.57205
6.56573
6.55891
6.55247
6.5469
6.54225
6.53822
6.53454
6.53091
6.52708
6.5228
6.51787
6.51213
6.50549
6.49789
6.48935
6.47993
6.46971
6.45881
6.44738
6.43564
6.42377
6.41199
6.40029
6.38899
6.37831
6.36819
6.35907
6.35096
6.34363
6.33722
6.33181
6.3273
6.32368
6.32097
6.31926
6.31891
6.54096
6.53406
6.52911
6.52399
6.51762
6.51085
6.50444
6.49876
6.49385
6.4895
6.48546
6.48151
6.4774
6.4729
6.46783
6.46203
6.45539
6.44786
6.43945
6.43019
6.42018
6.40952
6.39835
6.38687
6.37524
6.36363
6.35216
6.34101
6.33037
6.32035
6.3112
6.30296
6.29558
6.28913
6.28361
6.27895
6.27515
6.2723
6.27058
6.27033
6.49708
6.48773
6.48052
6.47463
6.46827
6.46178
6.45568
6.45022
6.44541
6.44106
6.43696
6.43291
6.42869
6.4241
6.41897
6.41314
6.4065
6.39901
6.39065
6.38146
6.37152
6.36092
6.34983
6.33841
6.32684
6.31528
6.30386
6.29275
6.28212
6.27209
6.26284
6.25446
6.24696
6.24036
6.23466
6.22981
6.22583
6.22288
6.22124
6.22112
6.45189
6.44005
6.4305
6.42407
6.41793
6.41197
6.40642
6.40143
6.39695
6.39283
6.38888
6.3849
6.38072
6.37614
6.37103
6.36521
6.35859
6.35113
6.34279
6.33361
6.32364
6.31299
6.30181
6.29028
6.27859
6.26692
6.25543
6.24427
6.23358
6.22348
6.2141
6.20551
6.19777
6.19091
6.18493
6.17984
6.1757
6.17271
6.17123
6.17129
6.4038
6.39011
6.37854
6.3722
6.3667
6.36156
6.3568
6.35247
6.3485
6.34477
6.34111
6.33736
6.33332
6.32886
6.32382
6.31806
6.31149
6.30405
6.29571
6.28648
6.27642
6.26562
6.25424
6.24247
6.23054
6.21863
6.20693
6.19562
6.1848
6.17456
6.16497
6.1561
6.148
6.14075
6.13439
6.12901
6.12472
6.12177
6.12049
6.12072
6.35006
6.33686
6.32415
6.31897
6.31471
6.31072
6.30696
6.30342
6.3001
6.29687
6.29362
6.29019
6.28641
6.28216
6.27728
6.27162
6.26511
6.25768
6.2493
6.23997
6.22975
6.21874
6.2071
6.19502
6.18273
6.17047
6.15845
6.14684
6.13577
6.12528
6.1154
6.10616
6.0976
6.08983
6.08301
6.07729
6.07287
6.07
6.06895
6.06935
6.28345
6.27895
6.26737
6.26467
6.26228
6.25976
6.25713
6.25445
6.25182
6.24917
6.2464
6.24336
6.23993
6.23597
6.23133
6.22585
6.21942
6.212
6.20354
6.19405
6.1836
6.17231
6.16035
6.14791
6.13521
6.12251
6.11003
6.09798
6.08649
6.07559
6.06529
6.05556
6.04646
6.03811
6.03075
6.02467
6.02013
6.01737
6.01656
6.01715
6.19074
6.21345
6.20996
6.21036
6.21014
6.20922
6.20767
6.20575
6.2038
6.20172
6.19944
6.19683
6.1938
6.19023
6.18593
6.1807
6.17441
6.16702
6.15845
6.14874
6.13798
6.12634
6.11398
6.10111
6.08794
6.07471
6.06167
6.04902
6.03692
6.02543
6.01453
6.00421
5.99448
5.98551
5.97761
5.97116
5.96651
5.96387
5.96329
5.96407
646.923
449.52
473.102
319.231
385.281
300.92
319.824
254.886
257.757
201.282
202.303
158.034
152.424
120.454
105.799
84.4259
61.4782
49.3375
18.5941
15.1613
-19.2772
-55.8552
-80.7965
-48.6948
-9.50872
-3.91785
-3.68654
-3.8507
-3.9678
-4.04934
-4.1278
-4.2071
-4.28639
-4.36565
-4.44522
-4.52543
-4.60669
-4.68948
-4.77427
-4.86156
-4.95175
-5.04433
-5.13831
-79.5344
3.30797
5.31036
5.31181
3.09292
-6.37853
5.07739
5.99203
123.197
31.3547
-0.228149
3.34637
146.282
62.8939
21.026
0.864933
127.445
69.5567
35.8117
13.1421
106.494
64.6643
36.9157
18.323
84.5016
53.5158
30.5703
14.8331
60.0775
37.9894
20.2818
7.35157
34.4031
20.0062
7.60283
-2.07771
8.38473
0.753353
-6.56723
-12.7737
-17.9223
-19.1456
-21.5573
-24.2355
-45.9616
-40.1353
-37.178
-36.0848
-72.7633
-62.8441
-54.3391
-48.814
-66.5157
-73.0396
-68.8114
-62.3438
-19.8576
-36.489
-52.3429
-62.5199
-4.81585
-7.73819
-14.3759
-26.8729
-3.85887
-4.15117
-4.92808
-6.5837
-3.93887
-4.01557
-4.16774
-4.4045
-4.0737
-4.16197
-4.25156
-4.33725
-4.15817
-4.26284
-4.36874
-4.46186
-4.23308
-4.3375
-4.44414
-4.54766
-4.30939
-4.41064
-4.51318
-4.61497
-4.38632
-4.48496
-4.58406
-4.68211
-4.46386
-4.56034
-4.65659
-4.75119
-4.54228
-4.63712
-4.73107
-4.82278
-4.62188
-4.7156
-4.80799
-4.89773
-4.70304
-4.79628
-4.88789
-4.97662
-4.78633
-4.87981
-4.97143
-5.05987
-4.8723
-4.96671
-5.05904
-5.1476
-4.9614
-5.05722
-5.15061
-5.23945
-5.0539
-5.15127
-5.24572
-5.33486
-5.1495
-5.24859
-5.34395
-5.43332
-5.24647
-5.34808
-5.44473
-5.53427
6.01975
6.12826
6.15287
6.15645
6.15885
6.15978
6.15888
6.15729
6.15583
6.15425
6.15239
6.15018
6.14758
6.14447
6.1406
6.13573
6.12969
6.12237
6.11371
6.10373
6.09259
6.08048
6.06762
6.0542
6.04044
6.02658
6.01284
5.99945
5.98656
5.97427
5.96259
5.95153
5.94111
5.9315
5.92306
5.91626
5.9115
5.90898
5.90863
5.90958
6.19115
6.10852
6.10802
6.10357
6.10917
6.11309
6.11206
6.10979
6.10836
6.10699
6.10531
6.10334
6.1011
6.09846
6.09512
6.09072
6.08503
6.07788
6.06917
6.05893
6.04733
6.03464
6.0211
6.00695
5.99244
5.97779
5.96322
5.94892
5.93507
5.92178
5.90913
5.89718
5.88598
5.87573
5.86679
5.85968
5.85481
5.85239
5.85223
5.85335
6.22787
6.20755
6.11108
6.05913
6.06428
6.07079
6.06865
6.0649
6.06303
6.06119
6.05902
6.05681
6.05468
6.05244
6.04964
6.04581
6.04059
6.03372
6.02505
6.01458
6.0025
5.9891
5.97471
5.95963
5.94414
5.92848
5.91288
5.89752
5.88255
5.8681
5.8543
5.8413
5.82923
5.81833
5.80894
5.80156
5.7966
5.79423
5.79424
5.79552
-3.72752
5.46473
6.22878
6.13736
6.06493
6.04247
6.03007
6.02242
6.02138
6.01872
6.01485
6.01136
6.00875
6.00658
6.00422
6.00099
5.99633
5.98985
5.98132
5.97069
5.95813
5.94395
5.92854
5.91229
5.89556
5.87863
5.86175
5.84511
5.82884
5.81308
5.79799
5.78381
5.77079
5.7592
5.7494
5.7418
5.73674
5.7344
5.73454
5.73598
-5.58797
-8.72852
1.80348
6.08638
6.12425
6.09792
6.01889
5.98395
5.98341
5.98067
5.97432
5.96817
5.9641
5.96143
5.95914
5.95633
5.95221
5.9462
5.93792
5.92723
5.91423
5.89922
5.88265
5.86501
5.84675
5.82825
5.8098
5.79162
5.77385
5.75661
5.7401
5.72462
5.71055
5.69825
5.68805
5.68026
5.67512
5.67276
5.67301
5.67462
2.22126
-7.7567
-9.30987
-5.29639
4.85146
6.23443
6.06401
5.98451
5.96428
5.94911
5.93774
5.9281
5.92183
5.9179
5.91501
5.91214
5.90831
5.90273
5.8948
5.88415
5.87078
5.85493
5.83709
5.81784
5.79778
5.7774
5.75705
5.73702
5.71748
5.69856
5.68049
5.66361
5.64842
5.63536
5.62476
5.61679
5.61155
5.60916
5.60951
5.61129
2.67762
-5.77442
-10.1304
-13.4365
-9.99007
0.123811
5.7208
6.0241
6.01725
5.95554
5.91192
5.89117
5.88261
5.87718
5.87283
5.86904
5.86494
5.85951
5.85188
5.84137
5.8277
5.81104
5.79186
5.77084
5.74871
5.72612
5.70355
5.68133
5.65969
5.63884
5.61903
5.60065
5.58425
5.57038
5.55934
5.55118
5.54584
5.5434
5.54385
5.54582
-2.69906
-9.64258
-12.6562
-14.5645
-14.3787
-11.9576
-6.1536
4.4035
6.09017
6.00876
5.91522
5.86647
5.84816
5.84042
5.83388
5.82792
5.82256
5.81676
5.80921
5.79882
5.78493
5.76748
5.74692
5.72398
5.69954
5.67443
5.64929
5.62452
5.60044
5.57736
5.55561
5.53559
5.5179
5.50313
5.49161
5.48322
5.47775
5.47527
5.47585
5.47805
-10.1116
-16.0302
-18.6212
-19.0089
-17.8246
-16.4528
-15.4154
-9.64949
0.874453
5.85859
5.898
5.85207
5.82885
5.81199
5.79986
5.79008
5.78192
5.77481
5.76695
5.75654
5.74241
5.72418
5.70217
5.67718
5.65021
5.62228
5.59422
5.56656
5.53969
5.51405
5.4901
5.46827
5.44918
5.43343
5.42133
5.41265
5.40703
5.40452
5.40527
5.40774
-18.4739
-23.0863
-25.3376
-25.5897
-24.145
-21.5452
-19.2602
-16.3688
-11.5777
-3.08327
5.17927
5.83102
5.8288
5.80408
5.77778
5.75781
5.74432
5.73422
5.72526
5.71459
5.70011
5.68102
5.65748
5.6303
5.60059
5.56955
5.53822
5.5073
5.4773
5.44878
5.42234
5.39851
5.37788
5.36104
5.34825
5.3392
5.3334
5.33089
5.33187
5.33466
-27.3748
-30.3743
-31.9147
-32.026
-30.8228
-28.3215
-24.9513
-21.0979
-17.8105
-14.2673
-5.70589
4.27805
5.76047
5.80089
5.76871
5.73643
5.71188
5.69629
5.68462
5.67305
5.65802
5.63791
5.61268
5.58312
5.55043
5.516
5.48106
5.44652
5.41305
5.38134
5.35215
5.32609
5.30375
5.28567
5.27207
5.26255
5.25654
5.25408
5.25537
5.25854
-36.4281
-37.5756
-38.1469
-37.8942
-36.783
-34.7099
-31.6537
-27.6077
-23.1838
-19.5738
-15.4069
-6.95624
3.24138
5.60991
5.7455
5.72152
5.68843
5.66355
5.64649
5.63238
5.61618
5.59472
5.56751
5.53531
5.4994
5.46128
5.42239
5.38388
5.34662
5.31143
5.27922
5.25071
5.2265
5.20703
5.19246
5.18237
5.17612
5.17377
5.17547
5.17909
-45.6855
-44.5099
-43.8275
-43.0508
-41.8936
-40.1277
-37.5952
-34.146
-29.7923
-25.0238
-20.6976
-16.0431
-7.52782
2.69734
5.46578
5.68465
5.672
5.63953
5.61329
5.59379
5.57482
5.5513
5.52163
5.48642
5.44698
5.40489
5.36174
5.31892
5.27756
5.23864
5.20318
5.17203
5.14577
5.12475
5.10907
5.0983
5.09179
5.08962
5.09184
5.09597
-55.7978
-51.67
-49.1046
-47.4201
-46.0406
-44.4894
-42.4402
-39.6582
-36.0006
-31.4526
-26.3147
-21.4383
-16.406
-7.34434
2.86245
5.36278
5.62717
5.61564
5.58275
5.55712
5.53394
5.50729
5.47455
5.43583
5.39249
5.34613
5.29845
5.25105
5.20533
5.16245
5.12356
5.0896
5.06113
5.03842
5.02149
5.00994
5.00318
5.00126
5.0041
5.00881
-61.7466
-58.5448
-54.5153
-51.4538
-49.3672
-47.7545
-46.1091
-43.9877
-41.1094
-37.3135
-32.5458
-27.0852
-21.8494
-16.2164
-6.10489
3.50165
5.28557
5.54812
5.5426
5.51759
5.49191
5.46186
5.42547
5.38276
5.33509
5.28416
5.23171
5.17953
5.12926
5.08225
5.03978
5.00289
4.97211
4.94759
4.9293
4.9169
4.90988
4.9083
4.91186
4.91723
-41.1313
-53.4028
-55.9416
-54.8259
-52.3643
-50.2874
-48.6828
-47.0726
-44.992
-42.0707
-38.1116
-33.0859
-27.35
-21.8812
-15.2417
-3.80317
4.18941
5.23694
5.46049
5.46801
5.44561
5.41344
5.37329
5.32618
5.27372
5.21789
5.16049
5.10345
5.04854
4.99731
4.95118
4.91128
4.87813
4.85174
4.83204
4.81875
4.81149
4.81033
4.81471
4.82079
-11.3887
-21.9869
-36.4166
-48.4252
-52.1206
-52.0584
-50.5896
-49.1319
-47.6243
-45.6016
-42.5947
-38.4026
-33.0838
-27.1415
-21.4589
-13.2623
-0.809643
4.57253
5.26859
5.39684
5.39067
5.35905
5.31636
5.26483
5.20713
5.14603
5.08359
5.02172
4.96223
4.90679
4.85699
4.81409
4.77855
4.7503
4.72919
4.71504
4.70758
4.70692
4.7122
4.71905
-5.0257
-6.3507
-10.6013
-20.2266
-35.4488
-46.4884
-50.3533
-50.4049
-49.3042
-47.9442
-45.8805
-42.6739
-38.1568
-32.5034
-26.4342
-20.3688
-9.49205
2.01356
4.74824
5.27435
5.32135
5.29477
5.25128
5.19637
5.13357
5.06704
4.99958
4.93307
4.86922
4.80975
4.7564
4.71056
4.67271
4.64266
4.62023
4.6053
4.59772
4.59763
4.60388
4.61153
-4.47572
-4.703
-5.25962
-6.48647
-10.9814
-21.9196
-38.4208
-47.2669
-49.8045
-49.4069
-48.0589
-45.8046
-42.2534
-37.2874
-31.2362
-24.9862
-17.4208
-4.14234
3.79964
4.94631
5.20861
5.21405
5.17453
5.11806
5.05095
4.97918
4.90687
4.83607
4.76829
4.70517
4.64854
4.59994
4.55991
4.52821
4.50461
4.48903
4.48145
4.48201
4.48927
4.49776
-4.55287
-4.64958
-4.7759
-4.98327
-5.53811
-7.14607
-13.903
-29.1863
-43.7057
-49.1408
-49.369
-47.918
-45.3147
-41.23
-35.7039
-29.3576
-22.902
-12.1223
0.829151
4.34441
5.02435
5.10768
5.08114
5.0263
4.95664
4.88043
4.80371
4.72917
4.65809
4.59191
4.53248
4.48146
4.43949
4.40635
4.38178
4.36576
4.35832
4.3596
4.36793
4.37727
-4.65324
-4.75132
-4.83656
-4.91868
-5.03497
-5.23779
-5.96485
-9.514
-22.9046
-40.6694
-48.443
-49.2135
-47.4754
-44.2615
-39.4601
-33.3865
-26.9535
-19.0999
-4.61582
3.47185
4.67343
4.95908
4.96695
4.91774
4.84774
4.76849
4.68821
4.6107
4.5372
4.46879
4.40724
4.35433
4.31081
4.27652
4.25126
4.23504
4.2279
4.23
4.23941
4.2496
-4.7207
-4.82485
-4.92126
-5.00237
-5.06852
-5.11917
-5.27102
-5.65014
-7.85122
-19.7485
-39.1604
-48.3966
-48.9721
-46.5006
-42.4176
-36.8533
-30.4683
-23.5867
-11.1103
1.2288
4.07901
4.7575
4.82349
4.78731
4.72067
4.64056
4.55822
4.47895
4.40415
4.33457
4.27185
4.21779
4.17324
4.13822
4.11261
4.09645
4.08979
4.09279
4.1033
4.11435
-4.78304
-4.88399
-4.97931
-5.06587
-5.14205
-5.19989
-5.26529
-5.32776
-5.51094
-7.34623
-19.7163
-40.4177
-48.9627
-48.2248
-44.6497
-39.6256
-33.4751
-26.862
-17.2759
-2.28402
3.50767
4.4664
4.63553
4.63006
4.5721
4.49393
4.41163
4.33226
4.25758
4.18812
4.12537
4.07108
4.02622
3.991
3.96545
3.94966
3.94368
3.94764
3.95925
3.97113
-4.8479
-4.94429
-5.03458
-5.11788
-5.19463
-5.26276
-5.32557
-5.36494
-5.39639
-5.57591
-7.73774
-23.0476
-43.8484
-49.201
-46.3759
-41.6832
-35.8941
-29.5795
-21.7635
-6.38547
2.61131
4.03752
4.40779
4.44512
4.39925
4.32634
4.2467
4.16925
4.09636
4.0285
3.96701
3.91358
3.86926
3.83447
3.80947
3.79439
3.78928
3.79429
3.80699
3.81966
-4.91597
-5.00832
-5.09385
-5.17234
-5.2442
-5.31005
-5.37222
-5.42448
-5.46084
-5.49128
-5.63009
-9.08026
-29.9662
-47.2216
-47.6401
-43.1101
-37.6144
-31.5005
-24.4411
-10.6574
0.848947
3.49659
4.14078
4.2283
4.19953
4.13623
4.06218
3.98894
3.9197
3.85505
3.79622
3.74484
3.702
3.66838
3.64445
3.63045
3.62642
3.63257
3.64633
3.65975
-4.9883
-5.07712
-5.15813
-5.23138
-5.29747
-5.35758
-5.41428
-5.46797
-5.5171
-5.55802
-5.5764
-5.87989
-14.9356
-39.8725
-47.7207
-44.0599
-38.6496
-32.732
-26.0349
-14.2694
-1.1952
2.92064
3.83585
3.97682
3.97207
3.92242
3.85727
3.79075
3.72717
3.66742
3.61272
3.56459
3.52425
3.4926
3.47032
3.45777
3.45504
3.46239
3.47719
3.49129
-5.06556
-5.15159
-5.22826
-5.2956
-5.35474
-5.40786
-5.45756
-5.5062
-5.55492
-5.59838
-5.61318
-5.69421
-7.48871
-27.971
-45.6527
-44.6064
-39.112
-33.3518
-27.056
-16.581
-2.77318
2.37711
3.49606
3.69338
3.71677
3.68478
3.6318
3.57461
3.51879
3.46567
3.41653
3.37287
3.33604
3.30716
3.28713
3.27641
3.2752
3.28384
3.29963
3.31433
-5.14783
-5.23155
-5.30415
-5.36536
-5.41654
-5.46108
-5.50297
-5.54461
-5.58708
-5.62853
-5.65211
-5.64606
-5.78923
-16.9459
-40.9979
-44.3583
-39.0502
-33.3067
-27.2584
-17.5117
-3.76373
1.91106
3.13012
3.38247
3.43587
3.42466
3.38669
3.34124
3.29517
3.25029
3.20806
3.17001
3.13765
3.11232
3.09509
3.08656
3.0871
3.09712
3.11385
3.12908
-5.23472
-5.31618
-5.38481
-5.44013
-5.48346
-5.51859
-5.55107
-5.58476
-5.6195
-5.65391
-5.66891
-5.64697
-5.78301
-10.9294
-34.9637
-42.9537
-38.4482
-32.6634
-26.7161
-17.2761
-4.23644
1.44956
2.75281
3.05157
3.13297
3.14444
3.12381
3.09217
3.05758
3.02235
2.98814
2.95667
2.92962
2.9085
2.89454
2.88854
2.89105
2.90256
2.92022
2.93589
-5.32568
-5.40469
-5.46926
-5.51889
-5.55486
-5.58078
-5.60281
-5.62686
-5.65396
-5.68067
-5.68996
-5.65952
-5.8287
-8.62563
-29.2311
-40.6984
-37.3524
-31.5146
-25.6247
-16.2166
-4.2983
1.03208
2.38125
2.70595
2.81298
2.84791
2.84582
2.8295
2.80777
2.78325
2.75794
2.73385
2.71279
2.69637
2.686
2.68279
2.68753
2.70068
2.71925
2.73527
-5.42011
-5.4964
-5.55648
-5.59995
-5.6283
-5.64509
-5.65632
-5.66951
-5.6882
-5.70991
-5.71884
-5.68893
-5.85329
-7.48656
-24.9301
-38.4172
-35.8111
-29.826
-23.8953
-14.4237
-3.95393
0.80881
2.03122
2.35505
2.48438
2.54056
2.55646
2.55599
2.5478
2.53465
2.51893
2.50286
2.48825
2.47674
2.47009
2.46988
2.47712
2.49212
2.51161
2.52789
-5.51745
-5.59053
-5.64524
-5.68137
-5.70095
-5.70793
-5.70803
-5.70917
-5.71862
-5.73707
-5.74938
-5.72348
-5.8769
-7.49803
-23.9259
-36.6158
-33.5023
-27.4122
-21.2525
-11.7863
-3.27565
0.699001
1.70485
2.0097
2.15496
2.22749
2.25967
2.27465
2.2799
2.27829
2.27266
2.26516
2.25726
2.25066
2.24771
2.25063
2.26063
2.27767
2.2981
2.31454
-5.61687
-5.68606
-5.73465
-5.76275
-5.77288
-5.76947
-5.75835
-5.74728
-5.74593
-5.76173
-5.7751
-5.76749
-5.97384
-7.94255
-24.1925
-34.4289
-30.2967
-24.2314
-17.6717
-8.45526
-2.45166
0.56727
1.39007
1.67352
1.82803
1.91212
1.95891
1.98858
2.00665
2.01631
2.02084
2.02206
2.02095
2.01934
2.02021
2.0264
2.03923
2.05827
2.07953
2.09604
)
;

boundaryField
{
    leftWall
    {
        type            calculated;
        value           nonuniform 0();
    }
    rightWall
    {
        type            calculated;
        value           nonuniform List<scalar> 
43
(
6.41397
6.36672
6.31891
6.27033
6.22112
6.17129
6.12072
6.06935
6.01715
5.96407
5.90958
5.85335
5.79552
5.73598
5.67462
5.61129
5.54582
5.47805
5.40774
5.33466
5.25854
5.17909
5.09597
5.00881
4.91723
4.82079
4.71905
4.61153
4.49776
4.37727
4.2496
4.11435
3.97113
3.81966
3.65975
3.49129
3.31433
3.12908
2.93589
2.73527
2.52789
2.31454
2.09604
)
;
    }
    lowerWall
    {
        type            calculated;
        value           nonuniform List<scalar> 
66
(
1396.07
1421.73
1398.19
1339.76
1296.12
1270.8
1261.03
1254.17
1237.06
1193.91
1096.34
890.859
-56.2535
3.33193
5.33432
5.33578
6.67519
6.62927
6.58462
6.54096
6.49708
6.45189
6.4038
6.35006
6.28345
6.19074
6.69873
6.69452
6.68965
6.68485
6.67972
6.67429
6.66951
6.66547
6.66215
6.6594
6.65689
6.65428
6.65124
6.64753
6.64294
6.63731
6.63058
6.6227
6.61371
6.60369
6.59277
6.58112
6.56892
6.5564
6.54374
6.53105
6.51912
6.50746
6.49619
6.48641
6.47718
6.46827
6.46067
6.45452
6.4493
6.44504
6.44175
6.43945
6.43806
6.43752
)
;
    }
    atmosphere
    {
        type            calculated;
        value           nonuniform 0();
    }
    defaultFaces
    {
        type            empty;
    }
    procBoundary1to0
    {
        type            processor;
        value           nonuniform List<scalar> 
44
(
1352.57
1300.78
1261.38
1224.91
1186.96
1144.03
1091.4
1023.11
932.687
816.151
677.563
550.632
454.808
375.149
302.648
236.799
176.718
120.851
68.0495
16.3082
-25.5032
-25.5032
-69.4371
-77.9193
-26.2838
-4.64875
-3.54482
-3.6181
-3.76854
-3.86194
-3.94213
-4.02357
-4.10533
-4.1865
-4.26706
-4.34732
-4.42769
-4.50861
-4.59052
-4.67382
-4.75886
-4.84585
-4.93515
-5.02644
)
;
    }
    procBoundary1to3
    {
        type            processor;
        value           nonuniform List<scalar> 
45
(
-5.23336
-5.34389
-5.4483
-5.54714
-5.63673
-5.71701
-5.78124
-5.82316
-5.84359
-5.84525
-5.8326
-5.81128
-5.78864
-5.77572
-5.78051
-5.7932
-5.80554
-6.0902
-9.79645
-25.7104
-31.8432
-26.5969
-20.4486
-13.2985
-5.18912
-1.72204
0.371309
1.08444
1.34918
1.50471
1.59764
1.65791
1.70101
1.73099
1.75142
1.76558
1.77496
1.78045
1.78413
1.78931
1.79899
1.81438
1.83492
1.8566
1.87301
)
;
    }
}


// ************************************************************************* //
