/*--------------------------------*- C++ -*----------------------------------*\
| =========                 |                                                 |
| \\      /  F ield         | OpenFOAM: The Open Source CFD Toolbox           |
|  \\    /   O peration     | Version:  5.0                                   |
|   \\  /    A nd           | Web:      www.OpenFOAM.org                      |
|    \\/     M anipulation  |                                                 |
\*---------------------------------------------------------------------------*/
FoamFile
{
    version     2.0;
    format      ascii;
    class       surfaceScalarField;
    location    "0.6";
    object      alphaPhi10;
}
// * * * * * * * * * * * * * * * * * * * * * * * * * * * * * * * * * * * * * //

dimensions      [0 3 -1 0 0 0 0];

internalField   nonuniform List<scalar> 
3781
(
-2.56417e-06
2.56417e-06
-4.48236e-06
1.91819e-06
-5.01366e-06
5.31303e-07
-4.52873e-06
-4.84935e-07
-3.52198e-06
-1.00675e-06
-2.26308e-06
-1.25889e-06
-9.00669e-07
-1.36241e-06
4.84146e-07
-1.38481e-06
1.84902e-06
-1.36488e-06
3.169e-06
-1.31997e-06
4.42905e-06
-1.26005e-06
5.61991e-06
-1.19086e-06
6.73587e-06
-1.11596e-06
7.77371e-06
-1.03784e-06
8.73208e-06
-9.58371e-07
9.61101e-06
-8.7893e-07
1.04116e-05
-8.00553e-07
1.11356e-05
-7.23994e-07
1.17853e-05
-6.4974e-07
1.23633e-05
-5.77986e-07
1.28719e-05
-5.08593e-07
1.33129e-05
-4.41049e-07
1.36873e-05
-3.74424e-07
1.39947e-05
-3.07307e-07
1.42323e-05
-2.37663e-07
1.43947e-05
-1.62334e-07
1.44712e-05
-7.65658e-08
1.44415e-05
2.97167e-08
1.42792e-05
1.62282e-07
1.39664e-05
3.12859e-07
1.34761e-05
4.90282e-07
1.27781e-05
6.97942e-07
1.18377e-05
9.40447e-07
1.06178e-05
1.21993e-06
9.08402e-06
1.53374e-06
7.2115e-06
1.87251e-06
4.99302e-06
2.21849e-06
2.44559e-06
2.54743e-06
-3.80776e-07
2.82637e-06
-3.42043e-06
3.11081e-06
-6.69765e-06
3.43123e-06
-1.0098e-05
3.08014e-06
-1.16093e-05
1.51131e-06
-1.1079e-06
-2.18739e-06
4.75156e-06
-2.76862e-06
2.49942e-06
-2.56217e-06
3.2485e-07
-1.92101e-06
-1.12609e-06
-9.9144e-07
-1.93632e-06
1.03038e-07
-2.35337e-06
1.28031e-06
-2.53968e-06
2.4884e-06
-2.59291e-06
3.69086e-06
-2.56733e-06
4.86509e-06
-2.4942e-06
5.99632e-06
-2.39128e-06
7.07453e-06
-2.26907e-06
8.09301e-06
-2.13444e-06
9.04737e-06
-1.99221e-06
9.93493e-06
-1.84593e-06
1.07542e-05
-1.69823e-06
1.15048e-05
-1.55108e-06
1.21867e-05
-1.40593e-06
1.28007e-05
-1.26372e-06
1.33476e-05
-1.12487e-06
1.38282e-05
-9.89183e-07
1.42428e-05
-8.55741e-07
1.45913e-05
-7.22874e-07
1.48721e-05
-5.88107e-07
1.50825e-05
-4.4803e-07
1.52181e-05
-2.9794e-07
1.52732e-05
-1.31681e-07
1.52429e-05
6.00223e-08
1.51195e-05
2.85632e-07
1.48812e-05
5.51215e-07
1.45075e-05
8.63982e-07
1.3974e-05
1.23141e-06
1.32535e-05
1.66099e-06
1.23156e-05
2.15783e-06
1.11279e-05
2.72136e-06
9.65882e-06
3.34163e-06
7.88224e-06
3.99507e-06
5.78727e-06
4.6424e-06
3.39025e-06
5.22338e-06
8.07177e-07
5.7023e-06
-1.63941e-06
5.96196e-06
-3.83803e-06
5.14814e-06
-5.32485e-06
2.99799e-06
-4.05371e-07
-1.25454e-06
6.0061e-06
-1.2214e-06
2.46628e-06
-7.52865e-07
-1.43682e-07
-5.88543e-08
-1.8201e-06
8.03191e-07
-2.79837e-06
1.77944e-06
-3.32962e-06
2.81832e-06
-3.57856e-06
3.88242e-06
-3.65701e-06
4.94639e-06
-3.6313e-06
5.99223e-06
-3.54004e-06
7.00687e-06
-3.40592e-06
7.98074e-06
-3.24295e-06
8.90685e-06
-3.06055e-06
9.78014e-06
-2.86549e-06
1.0597e-05
-2.66278e-06
1.13549e-05
-2.45611e-06
1.2052e-05
-2.24825e-06
1.26874e-05
-2.04132e-06
1.32605e-05
-1.83675e-06
1.37708e-05
-1.63525e-06
1.42183e-05
-1.43662e-06
1.46022e-05
-1.23971e-06
1.49217e-05
-1.04228e-06
1.51746e-05
-8.4108e-07
1.53584e-05
-6.31757e-07
1.5469e-05
-4.08571e-07
1.55014e-05
-1.64083e-07
1.54502e-05
1.11165e-07
1.53082e-05
4.27683e-07
1.50639e-05
7.95481e-07
1.47041e-05
1.22377e-06
1.42142e-05
1.7213e-06
1.35793e-05
2.29598e-06
1.27844e-05
2.95272e-06
1.18156e-05
3.69012e-06
1.0661e-05
4.4962e-06
9.31311e-06
5.34299e-06
7.77498e-06
6.18053e-06
6.07075e-06
6.92762e-06
4.29279e-06
7.48026e-06
2.62721e-06
7.62759e-06
1.06233e-06
6.77461e-06
-3.93398e-07
4.42533e-06
8.06966e-07
-3.0763e-07
6.31373e-06
1.015e-07
2.05715e-06
7.31404e-07
-7.73586e-07
1.47567e-06
-2.56436e-06
2.30584e-06
-3.62854e-06
3.1933e-06
-4.21709e-06
4.11641e-06
-4.50166e-06
5.05615e-06
-4.59675e-06
5.99731e-06
-4.57246e-06
6.92733e-06
-4.47006e-06
7.83563e-06
-4.31422e-06
8.71346e-06
-4.12078e-06
9.55383e-06
-3.90091e-06
1.03512e-05
-3.66288e-06
1.11013e-05
-3.41282e-06
1.18005e-05
-3.15531e-06
1.2446e-05
-2.89382e-06
1.30358e-05
-2.6311e-06
1.35682e-05
-2.36912e-06
1.40419e-05
-2.10896e-06
1.44559e-05
-1.8506e-06
1.48089e-05
-1.59274e-06
1.50994e-05
-1.33279e-06
1.53253e-05
-1.06695e-06
1.54838e-05
-7.90316e-07
1.55719e-05
-4.96596e-07
1.55854e-05
-1.77649e-07
1.55199e-05
1.76646e-07
1.53698e-05
5.77854e-07
1.51279e-05
1.03738e-06
1.47863e-05
1.56531e-06
1.43374e-05
2.17023e-06
1.37745e-05
2.85894e-06
1.30927e-05
3.6345e-06
1.229e-05
4.49284e-06
1.13675e-05
5.4186e-06
1.03312e-05
6.37935e-06
9.19368e-06
7.31804e-06
7.979e-06
8.1423e-06
6.74366e-06
8.71559e-06
5.56692e-06
8.80433e-06
4.36539e-06
7.97614e-06
2.99817e-06
5.78954e-06
2.18589e-06
6.03611e-07
5.71012e-06
1.26583e-06
1.39493e-06
2.03843e-06
-1.54619e-06
2.82959e-06
-3.35552e-06
3.63112e-06
-4.43007e-06
4.44276e-06
-5.02873e-06
5.26433e-06
-5.32323e-06
6.09274e-06
-5.42517e-06
6.92256e-06
-5.40228e-06
7.74659e-06
-5.29409e-06
8.5568e-06
-5.12443e-06
9.34543e-06
-4.90941e-06
1.01056e-05
-4.6611e-06
1.08316e-05
-4.38882e-06
1.15183e-05
-4.09955e-06
1.21615e-05
-3.79848e-06
1.27573e-05
-3.48966e-06
1.33026e-05
-3.17644e-06
1.3795e-05
-2.86143e-06
1.42322e-05
-2.54622e-06
1.46127e-05
-2.2311e-06
1.49348e-05
-1.91482e-06
1.51966e-05
-1.59455e-06
1.53958e-05
-1.26615e-06
1.553e-05
-9.24575e-07
1.55969e-05
-5.6347e-07
1.55937e-05
-1.745e-07
1.55174e-05
2.52941e-07
1.53642e-05
7.31052e-07
1.51299e-05
1.27169e-06
1.48105e-05
1.88474e-06
1.44033e-05
2.57747e-06
1.39073e-05
3.35486e-06
1.33245e-05
4.21739e-06
1.26595e-05
5.15776e-06
1.1921e-05
6.15716e-06
1.11206e-05
7.17969e-06
1.02737e-05
8.16502e-06
9.39792e-06
9.01804e-06
8.51659e-06
9.59693e-06
7.63849e-06
9.68243e-06
6.67126e-06
8.94338e-06
5.41413e-06
7.05817e-06
3.73706e-06
1.28874e-06
4.42138e-06
2.28351e-06
4.00158e-07
3.20017e-06
-2.46285e-06
4.03492e-06
-4.19027e-06
4.80989e-06
-5.20504e-06
5.55168e-06
-5.77052e-06
6.28054e-06
-6.05209e-06
7.00748e-06
-6.15211e-06
7.73577e-06
-6.13056e-06
8.46293e-06
-6.02126e-06
9.18317e-06
-5.84467e-06
9.88954e-06
-5.61578e-06
1.05754e-05
-5.34695e-06
1.12347e-05
-5.04815e-06
1.18621e-05
-4.72693e-06
1.24524e-05
-4.38882e-06
1.3001e-05
-4.03821e-06
1.35036e-05
-3.6791e-06
1.3957e-05
-3.31484e-06
1.43585e-05
-2.9477e-06
1.47059e-05
-2.5785e-06
1.49973e-05
-2.2062e-06
1.52306e-05
-1.82782e-06
1.54035e-05
-1.43904e-06
1.55139e-05
-1.03504e-06
1.55604e-05
-6.09977e-07
1.55418e-05
-1.5586e-07
1.54566e-05
3.38127e-07
1.53029e-05
8.84727e-07
1.50787e-05
1.4959e-06
1.47829e-05
2.18058e-06
1.44164e-05
2.94391e-06
1.39826e-05
3.78867e-06
1.34873e-05
4.71273e-06
1.29394e-05
5.70569e-06
1.23506e-05
6.74593e-06
1.17346e-05
7.7957e-06
1.11048e-05
8.79477e-06
1.04708e-05
9.65203e-06
9.83201e-06
1.02358e-05
9.15619e-06
1.03582e-05
8.3326e-06
9.76697e-06
7.18786e-06
8.20291e-06
5.37729e-06
1.77042e-06
2.65096e-06
3.14352e-06
-9.72944e-07
4.22634e-06
-3.54567e-06
5.10246e-06
-5.06639e-06
5.84715e-06
-5.94972e-06
6.52072e-06
-6.44409e-06
7.16319e-06
-6.69456e-06
7.79743e-06
-6.78635e-06
8.43378e-06
-6.76691e-06
9.07351e-06
-6.66099e-06
9.71241e-06
-6.48356e-06
1.03441e-05
-6.24747e-06
1.09621e-05
-5.96494e-06
1.15603e-05
-5.6464e-06
1.21331e-05
-5.29965e-06
1.26745e-05
-4.93022e-06
1.31789e-05
-4.54261e-06
1.36412e-05
-4.14146e-06
1.40574e-05
-3.73104e-06
1.44243e-05
-3.31454e-06
1.47393e-05
-2.89352e-06
1.50005e-05
-2.46739e-06
1.52057e-05
-2.03304e-06
1.53526e-05
-1.58594e-06
1.54395e-05
-1.12193e-06
1.54659e-05
-6.36358e-07
1.54322e-05
-1.22207e-07
1.5339e-05
4.31333e-07
1.5186e-05
1.03777e-06
1.49727e-05
1.70917e-06
1.47002e-05
2.4531e-06
1.43724e-05
3.27171e-06
1.39954e-05
4.16565e-06
1.35776e-05
5.13055e-06
1.313e-05
6.15329e-06
1.26656e-05
7.21037e-06
1.21974e-05
8.26384e-06
1.17358e-05
9.25635e-06
1.12828e-05
1.01051e-05
1.08226e-05
1.0696e-05
1.03022e-05
1.08786e-05
9.60009e-06
1.04691e-05
8.52331e-06
9.27969e-06
7.07557e-06
2.1574e-06
4.93563e-07
3.90963e-06
-2.72518e-06
5.14293e-06
-4.77897e-06
6.03502e-06
-5.95848e-06
6.73563e-06
-6.65033e-06
7.33977e-06
-7.04824e-06
7.90203e-06
-7.25681e-06
8.45304e-06
-7.33736e-06
9.00802e-06
-7.32189e-06
9.57078e-06
-7.22375e-06
1.0138e-05
-7.05075e-06
1.07035e-05
-6.81298e-06
1.1261e-05
-6.52243e-06
1.18044e-05
-6.18989e-06
1.23279e-05
-5.82312e-06
1.2825e-05
-5.42729e-06
1.3289e-05
-5.00666e-06
1.37141e-05
-4.56652e-06
1.40953e-05
-4.11229e-06
1.44291e-05
-3.64832e-06
1.47128e-05
-3.17724e-06
1.49446e-05
-2.69914e-06
1.51223e-05
-2.21077e-06
1.52435e-05
-1.70716e-06
1.53068e-05
-1.18522e-06
1.53128e-05
-6.4234e-07
1.52639e-05
-7.33303e-08
1.51628e-05
5.32485e-07
1.50105e-05
1.18999e-06
1.48079e-05
1.91179e-06
1.45573e-05
2.70376e-06
1.42651e-05
3.56386e-06
1.39396e-05
4.49116e-06
1.35904e-05
5.47977e-06
1.32295e-05
6.51415e-06
1.28699e-05
7.56996e-06
1.25234e-05
8.61037e-06
1.2197e-05
9.58277e-06
1.18872e-05
1.04148e-05
1.15707e-05
1.10125e-05
1.11877e-05
1.12617e-05
1.06173e-05
1.10395e-05
9.65818e-06
1.02388e-05
8.74395e-06
2.60404e-06
-2.11048e-06
4.6774e-06
-4.79853e-06
5.96591e-06
-6.06748e-06
6.81539e-06
-6.80795e-06
7.45289e-06
-7.28785e-06
7.98926e-06
-7.58462e-06
8.48107e-06
-7.74864e-06
8.96123e-06
-7.81754e-06
9.44772e-06
-7.8084e-06
9.94582e-06
-7.72187e-06
1.04525e-05
-7.55741e-06
1.09616e-05
-7.3221e-06
1.14671e-05
-7.02786e-06
1.1963e-05
-6.68578e-06
1.24432e-05
-6.3034e-06
1.29011e-05
-5.88512e-06
1.3329e-05
-5.43457e-06
1.37202e-05
-4.9577e-06
1.40691e-05
-4.46128e-06
1.43718e-05
-3.95098e-06
1.46255e-05
-3.43093e-06
1.48287e-05
-2.90234e-06
1.49796e-05
-2.36168e-06
1.50754e-05
-1.80298e-06
1.51148e-05
-1.22463e-06
1.50997e-05
-6.27183e-07
1.50348e-05
-8.39932e-09
1.49251e-05
6.42105e-07
1.47733e-05
1.34182e-06
1.45804e-05
2.1047e-06
1.43493e-05
2.93482e-06
1.40894e-05
3.82375e-06
1.38103e-05
4.77029e-06
1.35219e-05
5.76821e-06
1.32366e-05
6.79946e-06
1.29668e-05
7.83978e-06
1.27227e-05
8.85447e-06
1.25087e-05
9.79673e-06
1.23184e-05
1.06051e-05
1.21268e-05
1.12041e-05
1.18777e-05
1.15108e-05
1.14664e-05
1.14508e-05
1.07148e-05
1.09904e-05
1.01735e-05
3.28348e-06
-5.39398e-06
5.43704e-06
-6.95172e-06
6.60006e-06
-7.23007e-06
7.35014e-06
-7.55754e-06
7.9211e-06
-7.85827e-06
8.40115e-06
-8.06409e-06
8.83809e-06
-8.18497e-06
9.26563e-06
-8.24444e-06
9.70363e-06
-8.24576e-06
1.01575e-05
-8.17516e-06
1.06234e-05
-8.02271e-06
1.10946e-05
-7.79284e-06
1.15645e-05
-7.49749e-06
1.20269e-05
-7.14789e-06
1.24749e-05
-6.75129e-06
1.29014e-05
-6.31155e-06
1.32978e-05
-5.83096e-06
1.36587e-05
-5.31862e-06
1.39784e-05
-4.78097e-06
1.42521e-05
-4.2247e-06
1.44771e-05
-3.65594e-06
1.46526e-05
-3.07778e-06
1.47773e-05
-2.48637e-06
1.48478e-05
-1.87355e-06
1.48629e-05
-1.23967e-06
1.48255e-05
-5.89764e-07
1.47431e-05
7.39187e-08
1.46242e-05
7.61081e-07
1.4472e-05
1.49394e-06
1.42875e-05
2.28922e-06
1.40732e-05
3.14913e-06
1.38423e-05
4.05469e-06
1.36051e-05
5.00744e-06
1.33708e-05
6.00249e-06
1.3152e-05
7.01827e-06
1.29602e-05
8.03161e-06
1.28041e-05
9.01052e-06
1.26863e-05
9.91458e-06
1.2599e-05
1.06924e-05
1.25195e-05
1.12836e-05
1.24026e-05
1.16277e-05
1.21719e-05
1.16814e-05
1.17056e-05
1.14567e-05
1.11262e-05
3.17564e-06
-5.24856e-07
4.18728e-06
-2.10216e-06
4.94097e-06
-2.232e-06
5.50193e-06
-2.39922e-06
5.92978e-06
-2.5202e-06
6.31241e-06
-2.61055e-06
6.74605e-06
-2.7259e-06
7.30202e-06
-2.92608e-06
7.98238e-06
-3.24082e-06
8.73859e-06
-3.64792e-06
9.52958e-06
-4.10713e-06
1.03328e-05
-4.59511e-06
1.11208e-05
-5.09748e-06
1.18561e-05
-5.58276e-06
1.24972e-05
-5.98914e-06
1.29973e-05
-6.22905e-06
1.33796e-05
-6.20705e-06
1.37324e-05
-5.67125e-06
1.40457e-05
-5.0941e-06
1.43089e-05
-4.48783e-06
1.4518e-05
-3.86504e-06
1.46732e-05
-3.23287e-06
1.47749e-05
-2.58807e-06
1.48203e-05
-1.91901e-06
1.48094e-05
-1.2288e-06
1.47468e-05
-5.27119e-07
1.46435e-05
1.77248e-07
1.45118e-05
8.92773e-07
1.4356e-05
1.64969e-06
1.41755e-05
2.46976e-06
1.39713e-05
3.35335e-06
1.37631e-05
4.26285e-06
1.35616e-05
5.20898e-06
1.33733e-05
6.19078e-06
1.32116e-05
7.18e-06
1.30869e-05
8.15623e-06
1.30071e-05
9.09032e-06
1.29729e-05
9.94884e-06
1.29758e-05
1.06894e-05
1.29966e-05
1.12629e-05
1.30026e-05
1.16217e-05
1.29509e-05
1.17331e-05
1.28017e-05
1.16059e-05
1.1351e-05
3.87327e-09
2.11187e-16
1.0571e-07
8.55781e-17
2.01937e-07
5.12961e-17
2.64587e-07
3.02062e-17
3.10354e-07
2.35688e-14
3.56828e-07
7.46381e-14
4.36275e-07
1.55323e-13
5.89579e-07
2.37312e-13
8.46339e-07
2.82477e-13
1.22027e-06
2.78207e-13
1.73083e-06
2.28287e-13
2.41954e-06
1.6063e-13
3.34004e-06
1.00831e-13
4.53239e-06
6.67546e-14
5.99669e-06
5.59738e-14
7.64163e-06
4.12015e-14
9.26187e-06
-1.40024e-06
1.05789e-05
-1.74309e-06
1.18064e-05
-2.08476e-06
1.28717e-05
-2.35919e-06
1.37172e-05
-2.54378e-06
1.42934e-05
-2.59491e-06
1.45447e-05
-2.43246e-06
1.45876e-05
-1.95888e-06
1.45557e-05
-1.19689e-06
1.44681e-05
-4.39511e-07
1.43429e-05
3.02388e-07
1.4198e-05
1.03776e-06
1.40391e-05
1.80853e-06
1.38636e-05
2.64523e-06
1.36683e-05
3.54873e-06
1.34845e-05
4.4466e-06
1.33208e-05
5.37269e-06
1.31782e-05
6.33333e-06
1.3072e-05
7.28625e-06
1.3011e-05
8.2172e-06
1.30022e-05
9.09918e-06
1.30442e-05
9.90685e-06
1.31276e-05
1.0606e-05
1.32346e-05
1.11558e-05
1.33396e-05
1.15167e-05
1.34161e-05
1.16566e-05
1.3458e-05
1.1564e-05
1.1259e-05
-4.7545e-17
2.60977e-16
-5.5538e-17
1.33251e-16
-3.87926e-17
6.68287e-17
-2.60899e-17
4.07668e-17
-2.23539e-14
5.15225e-14
-7.5301e-14
1.52299e-13
-1.64006e-13
3.06947e-13
-2.60128e-13
4.69317e-13
-3.20658e-13
5.72721e-13
-3.28449e-13
5.81068e-13
-2.828e-13
5.04837e-13
-2.10923e-13
3.88098e-13
-1.41687e-13
2.86594e-13
-1.01259e-13
2.50464e-13
-9.24529e-14
3.11675e-13
-7.48166e-14
4.68131e-13
5.52717e-08
6.75118e-13
7.32604e-07
8.77999e-13
1.57476e-06
1.00266e-12
2.73189e-06
1.01181e-12
4.32797e-06
8.62763e-13
6.39917e-06
5.85689e-13
8.73158e-06
2.43104e-13
1.07973e-05
-4.39844e-07
1.22539e-05
-3.78194e-07
1.32907e-05
-1.53817e-07
1.37747e-05
3.22062e-07
1.37967e-05
1.01573e-06
1.36462e-05
1.95906e-06
1.34773e-05
2.81416e-06
1.32849e-05
3.74109e-06
1.31299e-05
4.60158e-06
1.30086e-05
5.49404e-06
1.29113e-05
6.43063e-06
1.2859e-05
7.33851e-06
1.28582e-05
8.21804e-06
1.29152e-05
9.04213e-06
1.30265e-05
9.79564e-06
1.31804e-05
1.0452e-05
1.33589e-05
1.09774e-05
1.35362e-05
1.13394e-05
1.36866e-05
1.15062e-05
1.37974e-05
1.14532e-05
1.11562e-05
2.4155e-17
1.8065e-16
-1.04183e-17
1.29558e-16
-1.87952e-17
5.08069e-17
-1.85059e-17
3.07313e-17
-3.18269e-14
6.22098e-14
-1.15065e-13
1.73928e-13
-2.65913e-13
3.34414e-13
-4.49198e-13
4.92502e-13
-5.9312e-13
5.8599e-13
-6.4474e-13
5.86462e-13
-5.98654e-13
5.08658e-13
-4.92684e-13
3.96618e-13
-3.91017e-13
3.09735e-13
-3.6912e-13
3.13472e-13
-4.98777e-13
4.64287e-13
-8.19562e-13
7.84346e-13
-1.30441e-12
1.22383e-12
-1.87055e-12
1.7375e-12
-2.42044e-12
2.26911e-12
-2.82635e-12
2.67422e-12
-2.85546e-12
2.88131e-12
-2.3675e-12
2.82452e-12
-1.25767e-12
2.42196e-12
2.23466e-07
1.69835e-12
1.30373e-06
9.11477e-13
3.08533e-06
1.31538e-13
5.97533e-06
5.98085e-09
9.52416e-06
1.01069e-07
1.20619e-05
7.55436e-07
1.2782e-05
2.15585e-06
1.2807e-05
3.71608e-06
1.27096e-05
4.69891e-06
1.26428e-05
5.56092e-06
1.25905e-05
6.4829e-06
1.25945e-05
7.33453e-06
1.2652e-05
8.16052e-06
1.27714e-05
8.92277e-06
1.29463e-05
9.62071e-06
1.31629e-05
1.02354e-05
1.34016e-05
1.07387e-05
1.36333e-05
1.11077e-05
1.38252e-05
1.13143e-05
1.39456e-05
1.13328e-05
1.11293e-05
1.68091e-17
1.03363e-16
1.5276e-18
8.09615e-17
-5.58676e-18
2.86448e-17
-7.78153e-18
1.66905e-17
-2.51978e-14
4.26446e-14
-9.6289e-14
1.17475e-13
-2.29915e-13
2.16474e-13
-3.96207e-13
3.0514e-13
-5.31735e-13
3.50365e-13
-5.87349e-13
3.41914e-13
-5.55699e-13
2.92099e-13
-4.70228e-13
2.29062e-13
-3.98221e-13
1.95842e-13
-4.38102e-13
2.50428e-13
-7.09098e-13
4.53762e-13
-1.31976e-12
8.4113e-13
-2.33722e-12
1.39182e-12
-3.75032e-12
2.06624e-12
-5.47538e-12
2.79388e-12
-7.42151e-12
3.44207e-12
-9.44947e-12
3.8888e-12
-1.13074e-11
3.9747e-12
-1.25694e-11
3.46636e-12
-1.29357e-11
2.53525e-12
-1.20578e-11
1.48536e-12
-9.5849e-12
3.42054e-14
5.91542e-09
5.59362e-11
1.63166e-07
4.70594e-10
1.08878e-06
3.60732e-09
3.43817e-06
1.11067e-08
7.5698e-06
9.73659e-08
1.11729e-05
1.74039e-06
1.21727e-05
4.56111e-06
1.22403e-05
6.41527e-06
1.23169e-05
7.25801e-06
1.24292e-05
8.04817e-06
1.26076e-05
8.7444e-06
1.28405e-05
9.3878e-06
1.31123e-05
9.9636e-06
1.3404e-05
1.0447e-05
1.36812e-05
1.08305e-05
1.39032e-05
1.10923e-05
1.40191e-05
1.12168e-05
1.11821e-05
5.58292e-18
5.0667e-17
6.24909e-19
3.72918e-17
-1.88134e-18
1.21541e-17
-2.89143e-18
7.04927e-18
-1.26566e-14
1.55969e-14
-5.02116e-14
4.36058e-14
-1.20238e-13
7.57267e-14
-2.06075e-13
1.00408e-13
-2.75389e-13
1.09896e-13
-3.04065e-13
1.03704e-13
-2.8882e-13
8.67736e-14
-2.4939e-13
7.02134e-14
-2.33845e-13
7.72352e-14
-3.28147e-13
1.47474e-13
-6.55692e-13
3.29874e-13
-1.35434e-12
6.61487e-13
-2.54047e-12
1.14514e-12
-4.26695e-12
1.7538e-12
-6.52675e-12
2.42328e-12
-9.31207e-12
3.04907e-12
-1.26129e-11
3.51068e-12
-1.63618e-11
3.65166e-12
-2.03861e-11
3.28321e-12
-2.42074e-11
2.42996e-12
-2.70278e-11
1.19497e-12
-2.83391e-11
-6.41269e-13
2.68197e-11
7.83603e-13
4.48431e-10
4.89615e-11
4.00898e-09
4.02335e-11
1.49595e-08
1.34939e-10
1.11794e-07
4.93658e-10
1.89977e-06
1.07829e-08
6.00003e-06
4.58459e-08
1.03233e-05
1.17069e-06
1.18777e-05
5.36707e-06
1.22361e-05
7.68981e-06
1.24796e-05
8.50086e-06
1.27586e-05
9.10879e-06
1.30753e-05
9.64692e-06
1.34132e-05
1.01091e-05
1.37324e-05
1.05114e-05
1.39877e-05
1.0837e-05
1.41144e-05
1.109e-05
1.12695e-05
1.7047e-18
2.09336e-17
1.19416e-19
1.32606e-17
-6.94466e-19
4.26674e-18
-1.00362e-18
2.48857e-18
-3.7823e-15
2.40632e-15
-1.53567e-14
6.94222e-15
-3.522e-14
1.0734e-14
-5.78843e-14
1.24641e-14
-7.51743e-14
1.21678e-14
-8.16944e-14
1.05168e-14
-7.7181e-14
8.29289e-15
-6.9665e-14
8.66223e-15
-8.49694e-14
2.22099e-14
-1.7972e-13
7.06103e-14
-4.46948e-13
1.83725e-13
-1.00463e-12
3.8854e-13
-1.96798e-12
6.9539e-13
-3.41704e-12
1.09175e-12
-5.39452e-12
1.53657e-12
-7.93898e-12
1.96118e-12
-1.11048e-11
2.27994e-12
-1.4949e-11
2.3917e-12
-1.948e-11
2.19114e-12
-2.44787e-11
1.63846e-12
-2.94433e-11
7.07832e-13
-3.37633e-11
-1.14186e-12
-3.58681e-11
-3.96312e-12
-8.772e-12
-1.60931e-12
2.69976e-11
4.44083e-12
1.36494e-10
2.49341e-11
6.21593e-10
7.74096e-12
1.12547e-08
1.4561e-10
5.64517e-08
6.45269e-10
9.82074e-07
6.64664e-09
5.58223e-06
7.29922e-08
1.05026e-05
1.67842e-06
1.23405e-05
6.66277e-06
1.27591e-05
8.6902e-06
1.31092e-05
9.2968e-06
1.34809e-05
9.73741e-06
1.38374e-05
1.01548e-05
1.4135e-05
1.05395e-05
1.43022e-05
1.09228e-05
1.1323e-05
3.11771e-19
7.7617e-18
-1.09326e-19
3.83881e-18
-2.7084e-19
1.39728e-18
-3.32726e-19
8.09642e-19
-5.20339e-16
5.93214e-19
-2.13796e-15
5.90856e-19
-4.34885e-15
1.20989e-18
-6.2879e-15
2.91996e-18
-7.34787e-15
6.37822e-18
-7.39053e-15
1.37735e-17
-6.64987e-15
3.25505e-17
-7.82549e-15
1.10613e-15
-2.24453e-14
7.4592e-15
-7.96467e-14
2.82551e-14
-2.31767e-13
7.69153e-14
-5.51174e-13
1.6709e-13
-1.11679e-12
3.06631e-13
-1.99542e-12
4.92467e-13
-3.23317e-12
7.06517e-13
-4.8636e-12
9.15078e-13
-6.92113e-12
1.07333e-12
-9.44884e-12
1.1315e-12
-1.24881e-11
1.04433e-12
-1.60234e-11
7.8715e-13
-1.99575e-11
3.38215e-13
-2.41627e-11
-8.37163e-13
-2.82675e-11
-3.12446e-12
-2.98191e-11
-5.48164e-12
-2.43776e-11
-6.16879e-12
4.86891e-13
7.08647e-14
6.54349e-12
1.68137e-12
1.39776e-10
1.20833e-11
7.74199e-10
1.06769e-11
7.30166e-09
1.05365e-10
7.93913e-08
9.56069e-10
1.453e-06
1.20951e-08
7.17527e-06
1.7502e-07
1.16184e-05
3.21245e-06
1.31881e-05
7.72699e-06
1.3659e-05
9.26654e-06
1.40423e-05
9.77148e-06
1.43857e-05
1.01961e-05
1.462e-05
1.06885e-05
1.12806e-05
2.61308e-20
2.8544e-18
-1.02701e-19
1.03906e-18
-1.05564e-19
4.32577e-19
-1.09578e-19
2.56515e-19
-1.21465e-19
2.19251e-19
-1.66727e-19
2.9014e-19
-4.42272e-19
6.38942e-19
-1.32225e-18
1.47978e-18
-3.46051e-18
3.10792e-18
-8.73383e-18
6.38882e-18
-2.36936e-17
1.41827e-17
-9.13011e-16
3.16698e-16
-6.93068e-15
2.11461e-15
-2.94629e-14
8.10259e-15
-9.00721e-14
2.24439e-14
-2.20581e-13
4.97972e-14
-4.58964e-13
9.35715e-14
-8.41867e-13
1.53982e-13
-1.39765e-12
2.2628e-13
-2.14343e-12
2.99935e-13
-3.08625e-12
3.59464e-13
-4.22736e-12
3.86812e-13
-5.5659e-12
3.65149e-13
-7.09575e-12
2.83235e-13
-8.81075e-12
1.33334e-13
-1.07582e-11
-3.05185e-13
-1.31398e-11
-1.3715e-12
-1.57825e-11
-2.80528e-12
-1.76282e-11
-4.36495e-12
-1.47529e-11
-4.66851e-12
-9.44421e-12
-3.60287e-12
2.17362e-12
4.65487e-13
9.48982e-12
3.33902e-12
1.12432e-10
2.17509e-12
1.05515e-09
1.47023e-11
1.29364e-08
2.11182e-10
1.86607e-07
1.5955e-09
2.83372e-06
2.59251e-08
9.42472e-06
3.92933e-07
1.3133e-05
5.06718e-06
1.43292e-05
8.57521e-06
1.47623e-05
9.76302e-06
1.50731e-05
1.03778e-05
1.11058e-05
-2.19278e-20
9.86707e-19
-4.54641e-20
2.70945e-19
-3.83083e-20
1.16723e-19
-3.61471e-20
7.68038e-20
-4.3961e-20
8.86791e-20
-7.73963e-20
1.61609e-19
-2.16407e-19
3.6229e-19
-6.14453e-19
7.77082e-19
-1.53991e-18
1.52098e-18
-3.69947e-18
2.87344e-18
-9.44932e-18
5.68581e-18
-2.40118e-16
6.03947e-17
-1.81188e-15
3.80344e-16
-7.82008e-15
1.46227e-15
-2.43989e-14
4.11619e-15
-6.11523e-14
9.33267e-15
-1.30505e-13
1.79901e-14
-2.45911e-13
3.04743e-14
-4.19465e-13
4.6292e-14
-6.59691e-13
6.37915e-14
-9.70107e-13
8.00923e-14
-1.34893e-12
9.124e-14
-1.78966e-12
9.25668e-14
-2.28175e-12
7.91116e-14
-2.81327e-12
4.53124e-14
-3.3923e-12
-5.6327e-14
-4.17629e-12
-3.88229e-13
-5.28331e-12
-8.77875e-13
-6.71073e-12
-1.57986e-12
-7.81978e-12
-2.35696e-12
-7.7145e-12
-2.79978e-12
-4.56392e-12
-1.90053e-12
-1.43638e-13
-6.66958e-14
1.47012e-12
5.61497e-13
1.46703e-11
1.45387e-12
2.22188e-10
3.61685e-12
1.79969e-09
2.40198e-11
2.72749e-08
4.99316e-10
4.18353e-07
2.51433e-09
5.07165e-06
4.12437e-08
1.22105e-05
9.19281e-07
1.48444e-05
6.81848e-06
1.56121e-05
9.61012e-06
1.07638e-05
-2.0874e-20
2.54198e-19
-1.57172e-20
5.62221e-20
-1.16698e-20
2.49859e-20
-1.12762e-20
2.3152e-20
-1.76421e-20
4.29656e-20
-4.1449e-20
1.00924e-19
-1.1563e-19
2.27587e-19
-3.00383e-19
4.60073e-19
-6.96962e-19
8.46368e-19
-1.53464e-18
1.47663e-18
-3.49342e-18
2.57039e-18
-4.22854e-17
8.57303e-18
-3.01586e-16
3.83076e-17
-1.30902e-15
1.37676e-16
-4.15904e-15
3.87645e-16
-1.06697e-14
9.01023e-16
-2.33926e-14
1.80576e-15
-4.54497e-14
3.21651e-15
-8.02572e-14
5.19646e-15
-1.31244e-13
7.7105e-15
-2.01671e-13
1.0568e-14
-2.94619e-13
1.33483e-14
-4.13118e-13
1.52986e-14
-5.60314e-13
1.51896e-14
-7.39801e-13
1.10665e-14
-9.58424e-13
-4.47013e-16
-1.26816e-12
-9.79982e-14
-1.7082e-12
-2.56832e-13
-2.32269e-12
-5.08585e-13
-3.09086e-12
-8.74555e-13
-3.77415e-12
-1.28797e-12
-3.65539e-12
-1.43308e-12
-2.46587e-12
-1.07586e-12
-1.00178e-12
-4.74689e-13
3.79368e-13
7.25727e-14
2.89142e-12
1.10754e-12
2.62541e-11
5.5591e-13
5.18698e-10
8.6023e-12
3.00465e-09
4.41832e-11
4.3391e-08
1.15028e-09
8.60636e-07
6.21648e-09
7.41577e-06
1.16723e-07
1.40883e-05
2.20016e-06
1.65036e-05
8.3482e-06
1.13093e-05
-8.31662e-21
4.44699e-20
-3.88001e-21
8.96502e-21
-2.71176e-21
5.20688e-21
-3.4966e-21
9.55594e-21
-8.47837e-21
2.57554e-20
-2.5028e-20
6.7707e-20
-6.90041e-20
1.53047e-19
-1.66976e-19
3.02101e-19
-3.61513e-19
5.42377e-19
-7.32247e-19
9.18474e-19
-1.46408e-18
1.50958e-18
-5.56468e-18
2.48761e-18
-2.81862e-17
4.35614e-18
-1.14519e-16
8.67079e-18
-3.64444e-16
1.96454e-17
-9.59666e-16
4.69373e-17
-2.18984e-15
1.09431e-16
-4.47825e-15
2.38909e-16
-8.41357e-15
4.81082e-16
-1.47989e-14
8.89741e-16
-2.47304e-14
1.50818e-15
-3.97152e-14
2.33088e-15
-6.18313e-14
3.2383e-15
-9.39187e-14
3.89719e-15
-1.39794e-13
3.61514e-15
-2.04462e-13
1.14489e-15
-3.08699e-13
-1.79537e-14
-4.79282e-13
-6.29231e-14
-7.40784e-13
-1.47755e-13
-1.11271e-12
-2.91759e-13
-1.57123e-12
-5.00755e-13
-1.95022e-12
-7.17527e-13
-2.03182e-12
-8.33288e-13
-1.76056e-12
-7.83912e-13
-1.0942e-12
-5.1833e-13
1.11765e-14
2.11907e-15
4.03421e-13
1.63433e-13
8.55208e-12
4.95794e-13
5.18511e-11
7.9532e-13
1.19136e-09
1.82601e-11
7.32116e-09
1.13509e-10
1.22816e-07
1.90926e-09
2.06504e-06
1.82508e-08
9.93156e-06
2.10021e-07
3.72987e-06
-1.86573e-21
4.54484e-21
-6.8704e-22
1.1884e-21
-5.91993e-22
1.73904e-21
-1.45738e-21
5.55002e-21
-4.99872e-21
1.70742e-20
-1.61951e-20
4.63572e-20
-4.41225e-20
1.049e-19
-1.03206e-19
2.06347e-19
-2.16608e-19
3.71313e-19
-4.24127e-19
6.34147e-19
-7.99041e-19
1.05017e-18
-1.49952e-18
1.71381e-18
-2.97735e-18
2.84543e-18
-6.70481e-18
5.08109e-18
-1.71863e-17
1.01581e-17
-4.65617e-17
2.21582e-17
-1.23695e-16
4.92811e-17
-3.10181e-16
1.05729e-16
-7.26148e-16
2.12674e-16
-1.58914e-15
3.96514e-16
-3.2698e-15
6.81791e-16
-6.36826e-15
1.07538e-15
-1.18153e-14
1.53792e-15
-2.10003e-14
1.93785e-15
-3.59269e-14
1.98233e-15
-5.93892e-14
1.12119e-15
-9.70735e-14
-3.5145e-15
-1.60601e-13
-1.76112e-14
-2.64687e-13
-4.70482e-14
-4.266e-13
-1.02369e-13
-6.5727e-13
-1.94336e-13
-9.36756e-13
-3.22483e-13
-1.20458e-12
-4.64638e-13
-1.38127e-12
-5.80345e-13
-1.33816e-12
-5.99344e-13
-9.54962e-13
-4.48424e-13
-2.61198e-13
-1.27017e-13
1.84364e-13
5.00927e-14
7.07271e-13
2.72181e-13
1.84661e-11
4.21232e-13
1.30846e-10
1.57442e-12
2.0276e-09
2.923e-11
2.00285e-08
3.56101e-10
2.28389e-07
2.76071e-09
3.01667e-08
-2.21056e-22
2.4749e-22
-9.62251e-23
2.65584e-22
-2.00681e-22
9.65485e-22
-8.37349e-22
3.62487e-21
-3.21709e-21
1.15207e-20
-1.06109e-20
3.15462e-20
-2.86258e-20
7.13404e-20
-6.61937e-20
1.40774e-19
-1.38472e-19
2.56663e-19
-2.72472e-19
4.48574e-19
-5.16198e-19
7.64304e-19
-9.58588e-19
1.27875e-18
-1.80463e-18
2.13044e-18
-3.6477e-18
3.64374e-18
-8.25639e-18
6.6203e-18
-2.04375e-17
1.28721e-17
-5.18232e-17
2.59919e-17
-1.27724e-16
5.21991e-17
-2.98484e-16
1.00858e-16
-6.57081e-16
1.83951e-16
-1.36511e-15
3.1345e-16
-2.68969e-15
4.95133e-16
-5.05437e-15
7.17064e-16
-9.10706e-15
9.3053e-16
-1.58082e-14
1.02084e-15
-2.65399e-14
7.65759e-16
-4.34402e-14
-5.11556e-16
-7.08048e-14
-6.0846e-15
-1.15185e-13
-1.77853e-14
-1.86263e-13
-4.03691e-14
-2.94882e-13
-8.03403e-14
-4.4727e-13
-1.43653e-13
-6.37903e-13
-2.31488e-13
-8.43396e-13
-3.35425e-13
-1.00525e-12
-4.28209e-13
-1.04249e-12
-4.67329e-13
-8.46843e-13
-3.94224e-13
-4.99651e-13
-2.39179e-13
-2.69374e-14
-1.31728e-14
2.78385e-13
1.1585e-13
1.75334e-12
1.19415e-13
3.0209e-11
5.58179e-13
3.8364e-10
4.78654e-12
3.12957e-09
4.19993e-11
6.98995e-10
-1.30375e-23
3.3323e-23
-2.18419e-23
1.37091e-22
-1.09917e-22
6.13318e-22
-5.2972e-22
2.39303e-21
-2.07462e-21
7.69389e-21
-6.83064e-21
2.11101e-20
-1.82713e-20
4.76379e-20
-4.21338e-20
9.45621e-20
-8.89332e-20
1.75702e-19
-1.78596e-19
3.16193e-19
-3.47598e-19
5.56781e-19
-6.61392e-19
9.58928e-19
-1.24955e-18
1.62101e-18
-2.42035e-18
2.73006e-18
-4.98233e-18
4.68352e-18
-1.10008e-17
8.3095e-18
-2.53383e-17
1.51824e-17
-5.84583e-17
2.79688e-17
-1.31116e-16
5.06479e-17
-2.81719e-16
8.83342e-17
-5.77363e-16
1.46302e-16
-1.1298e-15
2.27663e-16
-2.11794e-15
3.29002e-16
-3.8188e-15
4.33099e-16
-6.64905e-15
4.97719e-16
-1.12189e-14
4.39459e-16
-1.84131e-14
1.12161e-16
-3.01345e-14
-1.81883e-15
-4.93866e-14
-6.40732e-15
-8.09644e-14
-1.56097e-14
-1.31232e-13
-3.27049e-14
-2.06912e-13
-6.18191e-14
-3.1289e-13
-1.06842e-13
-4.48617e-13
-1.69339e-13
-6.0039e-13
-2.44425e-13
-7.39288e-13
-3.18578e-13
-8.0469e-13
-3.61806e-13
-7.51249e-13
-3.48577e-13
-5.25972e-13
-2.49775e-13
-6.03226e-14
-2.91253e-14
4.82335e-14
1.08715e-14
4.26952e-13
1.78308e-13
5.14696e-12
1.29373e-13
4.63079e-11
5.95283e-13
9.22846e-12
-1.80424e-24
2.32432e-23
-1.10723e-23
8.49654e-23
-6.71001e-23
3.92395e-22
-3.31603e-22
1.5586e-21
-1.30149e-21
5.03901e-21
-4.26368e-21
1.3813e-20
-1.13199e-20
3.1093e-20
-2.61559e-20
6.23104e-20
-5.6109e-20
1.18668e-19
-1.15827e-19
2.20841e-19
-2.32788e-19
4.02168e-19
-4.559e-19
7.11767e-19
-8.74267e-19
1.22199e-18
-1.66871e-18
2.0504e-18
-3.24612e-18
3.40986e-18
-6.54529e-18
5.69666e-18
-1.36486e-17
9.61289e-18
-2.88855e-17
1.62952e-17
-6.06696e-17
2.73893e-17
-1.24381e-16
4.49701e-17
-2.46696e-16
7.11657e-17
-4.71885e-16
1.07295e-16
-8.70774e-16
1.52282e-16
-1.55321e-15
2.00048e-16
-2.68505e-15
2.35536e-16
-4.51083e-15
2.28998e-16
-7.38267e-15
1.28285e-16
-1.19821e-14
-3.94644e-16
-1.96638e-14
-2.04189e-15
-3.26594e-14
-5.49558e-15
-5.42553e-14
-1.22638e-14
-8.85969e-14
-2.45461e-14
-1.40169e-13
-4.50472e-14
-2.12679e-13
-7.6396e-14
-3.06584e-13
-1.19838e-13
-4.16827e-13
-1.73765e-13
-5.24077e-13
-2.29424e-13
-5.97403e-13
-2.71325e-13
-5.85261e-13
-2.73117e-13
-4.14389e-13
-1.97072e-13
-2.36456e-13
-1.13727e-13
-4.28782e-15
-2.07177e-15
9.01097e-14
3.47028e-14
6.48837e-13
4.98326e-14
1.86561e-13
-1.23843e-24
1.93739e-23
-6.53724e-24
5.26217e-23
-4.02305e-23
2.47071e-22
-2.00432e-22
9.93573e-22
-7.85974e-22
3.21906e-21
-2.56088e-21
8.80049e-21
-6.76022e-21
1.97834e-20
-1.57347e-20
4.02365e-20
-3.45495e-20
7.90195e-20
-7.37077e-20
1.52471e-19
-1.53196e-19
2.86661e-19
-3.08452e-19
5.19395e-19
-6.01236e-19
9.03968e-19
-1.14448e-18
1.51903e-18
-2.16053e-18
2.48977e-18
-4.1061e-18
4.02308e-18
-7.91328e-18
6.45317e-18
-1.54131e-17
1.02839e-17
-3.00277e-17
1.62034e-17
-5.78395e-17
2.50337e-17
-1.0918e-16
3.75685e-17
-2.00927e-16
5.42399e-17
-3.59749e-16
7.45431e-17
-6.26632e-16
9.61344e-17
-1.06306e-15
1.13501e-16
-1.7593e-15
1.16096e-16
-2.84521e-15
8.58477e-17
-4.53011e-15
-1.56399e-17
-7.33697e-15
-5.61973e-16
-1.21632e-14
-1.74041e-15
-2.04931e-14
-4.15761e-15
-3.44382e-14
-8.81581e-15
-5.66528e-14
-1.71404e-14
-9.00713e-14
-3.08775e-14
-1.3728e-13
-5.17704e-14
-1.99622e-13
-8.10276e-14
-2.7413e-13
-1.17787e-13
-3.51096e-13
-1.57617e-13
-4.07407e-13
-1.89069e-13
-4.05114e-13
-1.92578e-13
-3.4948e-13
-1.68739e-13
-2.15654e-13
-1.0493e-13
-2.86507e-14
-1.39407e-14
1.74126e-14
3.94059e-15
5.7979e-14
-9.78105e-25
1.21223e-23
-3.74714e-24
3.14127e-23
-2.31511e-23
1.51993e-22
-1.15952e-22
6.16801e-22
-4.53771e-22
1.99729e-21
-1.47085e-21