/*--------------------------------*- C++ -*----------------------------------*\
| =========                 |                                                 |
| \\      /  F ield         | OpenFOAM: The Open Source CFD Toolbox           |
|  \\    /   O peration     | Version:  5.0                                   |
|   \\  /    A nd           | Web:      www.OpenFOAM.org                      |
|    \\/     M anipulation  |                                                 |
\*---------------------------------------------------------------------------*/
FoamFile
{
    version     2.0;
    format      ascii;
    class       volScalarField;
    location    "0.6";
    object      alpha.water;
}
// * * * * * * * * * * * * * * * * * * * * * * * * * * * * * * * * * * * * * //

dimensions      [0 0 0 0 0 0 0];

internalField   nonuniform List<scalar> 
1935
(
1
1
1
1
1
1
1
1
1
1
1
1
1
1
1
1
1
1
1
1
1
1
1
1
1
1
1
1
1
1
1
1
1
1
1
1
1
1
1
0.995499
0.958024
0.990098
1
1
1
1
1
1
1
1
1
1
1
1
1
1
1
1
1
1
1
1
1
1
1
1
1
1
1
1
1
1
1
1
1
1
1
1
1
1
1
1
1
0.999842
0.982558
0.976464
0.999956
0.991271
1
1
1
1
1
1
1
1
1
1
1
1
1
1
1
1
1
1
1
1
1
1
1
1
1
1
1
1
1
1
1
1
1
1
1
1
1
1
1
1
0.999999
0.987181
0.975499
0.969748
1
1
1
1
1
1
1
1
1
1
1
1
1
1
1
1
1
1
1
1
1
1
1
1
1
1
1
1
1
1
1
1
1
1
1
1
1
1
1
1
1
0.999998
0.977569
0.969745
1
1
1
1
1
1
1
1
1
1
1
1
1
1
1
1
1
1
1
1
1
1
1
1
1
1
1
1
1
1
1
1
1
1
1
1
1
1
1
1
1
1
0.997656
0.976497
1
1
1
1
1
1
1
1
1
1
1
1
1
1
1
1
1
1
1
1
1
1
1
1
1
1
1
1
1
1
1
1
1
1
1
1
1
1
1
1
1
1
1
0.99785
1
1
1
1
1
1
1
1
1
1
1
1
1
1
1
1
1
1
1
1
1
1
1
1
1
1
1
1
1
1
1
1
1
1
1
1
1
1
1
1
1
1
1
1
1
1
1
1
1
1
1
1
1
1
1
1
1
1
1
1
1
1
1
1
1
1
1
1
1
1
1
1
1
1
1
1
1
1
1
1
1
1
1
1
1
1
1
1
1
1
1
0.999999
0.999999
0.999999
0.999999
0.999999
0.999999
0.999999
1
1
1
1
1
1
1
1
1
1
1
1
1
1
1
1
1
1
1
1
1
1
1
1
1
1
1
1
1
1
1
1
1
1
1
0.999971
0.999963
0.999958
0.999954
0.999951
0.999951
0.999953
0.999958
0.999966
0.999973
0.999981
0.999988
0.999993
0.999997
0.999999
1
1
1
1
1
1
1
1
1
1
1
1
1
1
1
1
1
1
1
1
1
1
1
1
1
1
1
1
0.679238
0.668584
0.6806
0.693617
0.700324
0.705017
0.714257
0.733651
0.764749
0.803574
0.844974
0.885839
0.923837
0.956424
0.980891
0.995499
0.999947
0.999975
0.999986
0.999992
0.999997
0.999999
1
1
1
1
1
1
1
1
1
1
1
1
1
1
1
1
1
1
1
1
1
1
1.22813e-21
0.00863844
0.0208916
0.0278778
0.0317303
0.0346633
0.0394387
0.049123
0.0661636
0.0913859
0.125064
0.168581
0.224526
0.295523
0.383111
0.486842
0.603184
0.699366
0.785627
0.861469
0.923616
0.96885
0.994143
0.999988
0.999999
1
1
1
1
1
1
1
1
1
1
1
1
1
1
1
1
1
1
1
-1.30243e-11
-9.84141e-12
-5.66457e-12
-3.33041e-12
-2.61886e-09
-8.31355e-09
-1.72776e-08
-2.63232e-08
-3.1296e-08
-3.09784e-08
-2.57833e-08
-1.85836e-08
-1.20649e-08
-8.3411e-09
-7.37929e-09
-5.8011e-09
0.000164178
0.0293519
0.074749
0.135989
0.21885
0.330309
0.474647
0.635321
0.772161
0.883651
0.964309
1
1
1
1
1
1
1
1
1
1
1
1
1
1
1
1
1
-1.3148e-11
-1.24666e-11
-6.51315e-12
-4.05423e-12
-5.31079e-09
-1.60318e-08
-3.25689e-08
-4.99004e-08
-6.09938e-08
-6.22313e-08
-5.47557e-08
-4.30009e-08
-3.27493e-08
-2.98203e-08
-3.90855e-08
-6.26629e-08
-9.83634e-08
-1.39893e-07
-1.78431e-07
-2.05405e-07
-2.0516e-07
-1.68909e-07
-8.97481e-08
0.00652721
0.0508536
0.132544
0.274492
0.506618
0.765255
0.981907
1
1
1
1
1
1
1
1
1
1
1
1
1
1
-1.00857e-11
-9.62401e-12
-4.12708e-12
-2.61894e-12
-5.5895e-09
-1.6279e-08
-3.21185e-08
-4.80848e-08
-5.79489e-08
-5.8803e-08
-5.19432e-08
-4.1532e-08
-3.35452e-08
-3.54706e-08
-5.55553e-08
-1.00707e-07
-1.73698e-07
-2.72066e-07
-3.90339e-07
-5.22238e-07
-6.60298e-07
-7.9214e-07
-8.95129e-07
-9.40456e-07
-8.91893e-07
-7.17802e-07
-2.75292e-09
0.00474559
0.040989
0.140133
0.360657
0.771611
1
1
1
1
1
1
1
1
1
1
1
1
-6.39424e-12
-5.45623e-12
-2.04104e-12
-1.25005e-12
-3.3667e-09
-9.7158e-09
-1.85731e-08
-2.69469e-08
-3.17119e-08
-3.17002e-08
-2.78127e-08
-2.25154e-08
-2.00197e-08
-2.68772e-08
-5.1741e-08
-1.03467e-07
-1.88172e-07
-3.07693e-07
-4.61353e-07
-6.48909e-07
-8.71222e-07
-1.12621e-06
-1.40156e-06
-1.66954e-06
-1.88842e-06
-2.00383e-06
-2.39666e-10
-3.08307e-09
6.52601e-07
3.52794e-06
1.46923e-05
0.0624325
0.265746
0.616691
0.990823
1
1
1
1
1
1
1
1
1
-3.34618e-12
-2.39736e-12
-7.96347e-13
-4.7814e-13
-1.10516e-09
-3.23012e-09
-5.84264e-09
-8.03428e-09
-9.09362e-09
-8.86839e-09
-7.6825e-09
-6.46206e-09
-7.43585e-09
-1.49784e-08
-3.57264e-08
-7.73998e-08
-1.46666e-07
-2.4764e-07
-3.82506e-07
-5.53595e-07
-7.64767e-07
-1.01994e-06
-1.31846e-06
-1.64993e-06
-1.99336e-06
-2.31305e-06
-2.49546e-06
-6.2396e-07
-1.81364e-08
-3.54476e-09
1.51874e-07
3.6563e-06
1.85056e-05
0.020502
0.212508
0.648073
0.999994
1
1
1
1
1
1
1
-1.45064e-12
-8.22793e-13
-2.62014e-13
-1.55827e-13
-1.55887e-10
-4.6807e-10
-7.54064e-10
-9.11521e-10
-9.25515e-10
-8.32107e-10
-6.83699e-10
-7.4676e-10
-2.013e-09
-6.77807e-09
-1.88533e-08
-4.30952e-08
-8.43292e-08
-1.46301e-07
-2.31414e-07
-3.41344e-07
-4.77946e-07
-6.43531e-07
-8.40084e-07
-1.06799e-06
-1.32578e-06
-1.60801e-06
-1.88942e-06
-2.01257e-06
-1.67671e-06
-2.18885e-11
-4.25714e-09
2.25195e-08
2.40193e-07
2.4282e-06
2.19904e-05
0.0289864
0.276229
0.776759
0.999997
1
1
1
1
1
-5.52366e-13
-2.3086e-13
-8.13074e-14
-4.74263e-14
-3.56521e-14
-3.67876e-14
-7.83886e-14
-1.97228e-13
-4.4955e-13
-1.01416e-12
-2.5089e-12
-8.95458e-11
-6.37311e-10
-2.56447e-09
-7.47657e-09
-1.75656e-08
-3.52463e-08
-6.2669e-08
-1.01333e-07
-1.51945e-07
-2.14542e-07
-2.88771e-07
-3.7421e-07
-4.70744e-07
-5.79111e-07
-7.03115e-07
-8.55895e-07
-1.02832e-06
-1.15591e-06
-9.78159e-07
-6.31694e-07
-4.53171e-12
-6.2888e-09
2.56562e-08
3.32156e-07
4.21174e-06
3.50596e-05
0.0694662
0.379556
0.894061
0.999998
1
1
1
-2.04784e-13
-6.04582e-14
-2.39806e-14
-1.41848e-14
-1.23623e-14
-1.68819e-14
-3.86199e-14
-9.3261e-14
-2.04717e-13
-4.40746e-13
-1.02729e-12
-2.41664e-11
-1.70767e-10
-6.96581e-10
-2.06935e-09
-4.96848e-09
-1.02111e-08
-1.8619e-08
-3.08645e-08
-4.73359e-08
-6.80611e-08
-9.27122e-08
-1.20695e-07
-1.51311e-07
-1.83958e-07
-2.1928e-07
-2.67359e-07
-3.35786e-07
-4.24933e-07
-4.94855e-07
-4.88924e-07
-2.91678e-07
-9.31208e-09
-2.69247e-11
-5.44873e-09
5.39937e-08
5.68174e-07
1.02033e-05
5.36578e-05
0.136549
0.521378
0.977083
1
1
-7.02501e-14
-1.51949e-14
-6.18101e-15
-4.03497e-15
-4.73128e-15
-8.8723e-15
-2.06276e-14
-4.61118e-14
-9.43816e-14
-1.86988e-13
-3.89158e-13
-4.36295e-12
-2.9129e-11
-1.19387e-10
-3.60749e-10
-8.85447e-10
-1.86688e-09
-3.50403e-09
-6.00071e-09
-9.54653e-09
-1.43058e-08
-2.04192e-08
-2.80183e-08
-3.72517e-08
-4.83104e-08
-6.15831e-08
-8.02904e-08
-1.06743e-07
-1.43568e-07
-1.89359e-07
-2.29583e-07
-2.21672e-07
-1.49741e-07
-6.12181e-08
-8.96822e-12
4.64489e-11
-7.41502e-09
1.80817e-07
8.62171e-07
2.12111e-05
0.00426806
0.202964
0.65717
0.999983
1
-1.77231e-14
-3.02782e-15
-1.26589e-15
-1.16101e-15
-2.1835e-15
-5.26802e-15
-1.23039e-14
-2.59039e-14
-4.9829e-14
-9.12087e-14
-1.67123e-13
-5.88901e-13
-2.79235e-12
-1.07065e-11
-3.23726e-11
-8.14576e-11
-1.78494e-10
-3.52018e-10
-6.4009e-10
-1.09285e-09
-1.77678e-09
-2.78105e-09
-4.22635e-09
-6.27558e-09
-9.14496e-09
-1.31117e-08
-1.9427e-08
-2.96347e-08
-4.50681e-08
-6.67032e-08
-9.29496e-08
-1.14158e-07
-1.18059e-07
-1.01925e-07
-6.34051e-08
-7.36435e-13
-1.05972e-11
-1.38857e-09
3.15176e-09
3.69392e-07
1.76451e-06
3.2197e-05
0.0301978
0.279676
0.752154
-3.00228e-15
-4.62574e-16
-2.5278e-16
-4.59184e-16
-1.25339e-15
-3.38096e-15
-7.90754e-15
-1.62433e-14
-3.048e-14
-5.41464e-14
-9.36902e-14
-1.63161e-13
-3.03276e-13
-6.44127e-13
-1.56711e-12
-4.05169e-12
-1.03199e-11
-2.49107e-11
-5.6326e-11
-1.19388e-10
-2.38446e-10
-4.51572e-10
-8.1587e-10
-1.41397e-09
-2.36156e-09
-3.81505e-09
-6.09948e-09
-9.87966e-09
-1.59584e-08
-2.5237e-08
-3.82038e-08
-5.36082e-08
-6.80416e-08
-7.72452e-08
-7.43604e-08
-5.29494e-08
-1.45189e-08
-6.40295e-12
-9.43761e-12
-5.25152e-09
1.90119e-08
5.58479e-07
5.93151e-06
4.76681e-05
0.0572823
-2.9448e-16
-5.87024e-17
-8.10544e-17
-2.56439e-16
-7.99245e-16
-2.22573e-15
-5.20746e-15
-1.06516e-14
-2.00197e-14
-3.58495e-14
-6.24799e-14
-1.0773e-13
-1.89816e-13
-3.61563e-13
-7.75796e-13
-1.82979e-12
-4.4405e-12
-1.05138e-11
-2.368e-11
-5.03739e-11
-1.01348e-10
-1.9372e-10
-3.53662e-10
-6.19849e-10
-1.04772e-09
-1.71444e-09
-2.73733e-09
-4.35582e-09
-6.92434e-09
-1.09531e-08
-1.69843e-08
-2.52773e-08
-3.54517e-08
-4.62163e-08
-5.44857e-08
-5.60884e-08
-4.54023e-08
-2.67999e-08
-1.45145e-09
-1.5718e-11
4.73697e-10
-9.25988e-09
8.2229e-08
8.19073e-07
1.1907e-05
-1.52922e-17
-1.25672e-17
-4.33111e-17
-1.61593e-16
-5.20764e-16
-1.4625e-15
-3.41768e-15
-7.00726e-15
-1.33333e-14
-2.4415e-14
-4.37509e-14
-7.72912e-14
-1.36569e-13
-2.48982e-13
-4.85091e-13
-1.01864e-12
-2.2408e-12
-4.95541e-12
-1.06865e-11
-2.21346e-11
-4.38235e-11
-8.29904e-11
-1.50781e-10
-2.63817e-10
-4.46215e-10
-7.32057e-10
-1.16922e-09
-1.8637e-09
-2.97763e-09
-4.76404e-09
-7.54595e-09
-1.16464e-08
-1.72759e-08
-2.43586e-08
-3.21512e-08
-3.91716e-08
-4.23319e-08
-3.93728e-08
-2.75517e-08
-3.16552e-09
-6.68732e-12
-2.30234e-11
1.81429e-09
-1.30387e-08
1.59978e-07
-1.95596e-18
-6.22617e-18
-2.65601e-17
-1.03271e-16
-3.37031e-16
-9.48479e-16
-2.21063e-15
-4.55578e-15
-8.82619e-15
-1.66261e-14
-3.07624e-14
-5.58922e-14
-1.00111e-13
-1.79538e-13
-3.29885e-13
-6.31174e-13
-1.25396e-12
-2.53732e-12
-5.11067e-12
-1.00736e-11
-1.9251e-11
-3.55446e-11
-6.34089e-11
-1.09483e-10
-1.83415e-10
-2.9891e-10
-4.75015e-10
-7.49293e-10
-1.19637e-09
-1.93554e-09
-3.13657e-09
-5.00507e-09
-7.75422e-09
-1.15499e-08
-1.63906e-08
-2.2006e-08
-2.74116e-08
-3.1057e-08
-3.03299e-08
-2.14568e-08
-1.2258e-08
-2.22815e-10
-1.6898e-11
1.66834e-10
3.54041e-09
-1.29423e-18
-3.71442e-18
-1.64597e-17
-6.53313e-17
-2.14617e-16
-6.03439e-16
-1.40217e-15
-2.91483e-15
-5.78229e-15
-1.12517e-14
-2.15062e-14
-4.0108e-14
-7.28746e-14
-1.3004e-13
-2.31284e-13
-4.15966e-13
-7.61606e-13
-1.41417e-12
-2.63431e-12
-4.86429e-12
-8.8216e-12
-1.56267e-11
-2.69746e-11
-4.53635e-11
-7.43932e-11
-1.1915e-10
-1.86691e-10
-2.88309e-10
-4.53456e-10
-7.31024e-10
-1.19963e-09
-1.96725e-09
-3.16503e-09
-4.93387e-09
-7.39426e-09
-1.06058e-08
-1.44132e-08
-1.83282e-08
-2.1181e-08
-2.10313e-08
-1.8159e-08
-1.12314e-08
-1.49775e-09
-2.43232e-12
7.3943e-12
-1.02421e-18
-2.22243e-18
-1.00747e-17
-4.0586e-17
-1.33718e-16
-3.74934e-16
-8.69509e-16
-1.83277e-15
-3.74507e-15
-7.54691e-15
-1.4874e-14
-2.83614e-14
-5.21676e-14
-9.30888e-14
-1.62903e-13
-2.82822e-13
-4.91076e-13
-8.54743e-13
-1.48699e-12
-2.57102e-12
-4.39241e-12
-7.38195e-12
-1.21723e-11
-1.9672e-11
-3.11622e-11
-4.84212e-11
-7.38822e-11
-1.10847e-10
-1.68485e-10
-2.64469e-10
-4.30068e-10
-7.1318e-10
-1.17868e-09
-1.907e-09
-2.98832e-09
-4.51145e-09
-6.5228e-09
-8.96491e-09
-1.15156e-08
-1.34808e-08
-1.42353e-08
-1.259e-08
-8.1585e-09
-3.05638e-09
-4.71935e-13
-6.10048e-19
-1.28695e-18
-6.04686e-18
-2.46329e-17
-8.11579e-17
-2.267e-16
-5.26132e-16
-1.13188e-15
-2.39482e-15
-4.99795e-15
-1.01163e-14
-1.96241e-14
-3.64316e-14
-6.51369e-14
-1.13276e-13
-1.93508e-13
-3.27068e-13
-5.48726e-13
-9.13454e-13
-1.50494e-12
-2.44626e-12
-3.91322e-12
-6.15117e-12
-9.49656e-12
-1.44046e-11
-2.14851e-11
-3.1547e-11
-4.56555e-11
-6.5934e-11
-9.82903e-11
-1.53167e-10
-2.48528e-10
-4.11439e-10
-6.79185e-10
-1.09919e-09
-1.72729e-09
-2.61913e-09
-3.81148e-09
-5.26866e-09
-6.8216e-09
-8.15511e-09
-8.65265e-09
-7.77696e-09
-5.4849e-09
-3.04599e-09
-3.27462e-19
-7.27021e-19
-3.54589e-18
-1.4545e-17
-4.78052e-17
-1.33026e-16
-3.10309e-16
-6.86238e-16
-1.50824e-15
-3.25109e-15
-6.72133e-15
-1.31964e-14
-2.4656e-14
-4.42173e-14
-7.69244e-14
-1.31038e-13
-2.19901e-13
-3.6436e-13
-5.95607e-13
-9.58312e-13
-1.51397e-12
-2.34455e-12
-3.55674e-12
-5.28724e-12
-7.70952e-12
-1.10428e-11
-1.55635e-11
-2.16198e-11
-2.96848e-11
-4.14457e-11
-5.99417e-11
-9.09488e-11
-1.44099e-10
-2.33956e-10
-3.8093e-10
-6.11747e-10
-9.58425e-10
-1.45429e-09
-2.11998e-09
-2.94034e-09
-3.82869e-09
-4.56445e-09
-4.85672e-09
-4.45492e-09
-3.54191e-09
-1.67241e-19
-4.01745e-19
-2.02396e-18
-8.32394e-18
-2.72444e-17
-7.56039e-17
-1.78302e-16
-4.08038e-16
-9.31895e-16
-2.06443e-15
-4.33314e-15
-8.57161e-15
-1.60859e-14
-2.89747e-14
-5.06982e-14
-8.69616e-14
-1.46899e-13
-2.44434e-13
-3.99624e-13
-6.39775e-13
-1.00026e-12
-1.52506e-12
-2.26724e-12
-3.28965e-12
-4.66611e-12
-6.48332e-12
-8.84354e-12
-1.18683e-11
-1.57028e-11
-2.07291e-11
-2.78503e-11
-3.8662e-11
-5.61152e-11
-8.5091e-11
-1.33067e-10
-2.10737e-10
-3.32363e-10
-5.15416e-10
-7.77792e-10
-1.13122e-09
-1.56627e-09
-2.02687e-09
-2.40684e-09
-2.56941e-09
-2.45454e-09
-8.26921e-20
-2.16871e-19
-1.12025e-18
-4.60152e-18
-1.49837e-17
-4.15597e-17
-9.97814e-17
-2.37459e-16
-5.61996e-16
-1.27133e-15
-2.69371e-15
-5.34998e-15
-1.00765e-14
-1.82701e-14
-3.23187e-14
-5.62421e-14
-9.64856e-14
-1.62716e-13
-2.68421e-13
-4.3115e-13
-6.7235e-13
-1.01691e-12
-1.49261e-12
-2.12972e-12
-2.96092e-12
-4.02164e-12
-5.35087e-12
-6.99225e-12
-8.99547e-12
-1.14392e-11
-1.4636e-11
-1.89928e-11
-2.53314e-11
-3.50923e-11
-5.06538e-11
-7.5704e-11
-1.15609e-10
-1.77658e-10
-2.7081e-10
-4.04314e-10
-5.83404e-10
-8.00586e-10
-1.02808e-09
-1.2161e-09
-1.31247e-09
-3.985e-20
-1.14032e-19
-5.99115e-19
-2.44986e-18
-7.93585e-18
-2.2076e-17
-5.43527e-17
-1.34795e-16
-3.28823e-16
-7.54454e-16
-1.60585e-15
-3.1951e-15
-6.04297e-15
-1.10648e-14
-1.9891e-14
-3.53206e-14
-6.18313e-14
-1.06e-13
-1.76666e-13
-2.8474e-13
-4.4268e-13
-6.63783e-13
-9.61507e-13
-1.349e-12
-1.83894e-12
-2.44372e-12
-3.17584e-12
-4.04851e-12
-5.07629e-12
-6.27565e-12
-7.74938e-12
-9.64671e-12
-1.21974e-11
-1.58075e-11
-2.11636e-11
-2.93925e-11
-4.22581e-11
-6.23683e-11
-9.33087e-11
-1.39525e-10
-2.0542e-10
-2.92918e-10
-3.97976e-10
-5.07434e-10
-5.99819e-10
-1.8749e-20
-5.81954e-20
-3.08609e-19
-1.2531e-18
-4.04134e-18
-1.13256e-17
-2.87839e-17
-7.42973e-17
-1.85492e-16
-4.28911e-16
-9.13714e-16
-1.81958e-15
-3.46226e-15
-6.42877e-15
-1.18033e-14
-2.14656e-14
-3.83854e-14
-6.67859e-14
-1.12063e-13
-1.80422e-13
-2.78302e-13
-4.11757e-13
-5.8597e-13
-8.05011e-13
-1.07187e-12
-1.38869e-12
-1.75718e-12
-2.17896e-12
-2.65597e-12
-3.19073e-12
-3.803e-12
-4.58054e-12
-5.59536e-12
-6.97534e-12
-8.92079e-12
-1.17568e-11
-1.60108e-11
-2.25139e-11
-3.25108e-11
-4.77361e-11
-7.03238e-11
-1.02288e-10
-1.4442e-10
-1.94758e-10
-2.47278e-10
-8.60278e-21
-2.8732e-20
-1.52803e-19
-6.15011e-19
-1.97812e-18
-5.61313e-18
-1.4796e-17
-3.95601e-17
-1.00281e-16
-2.32389e-16
-4.9422e-16
-9.85385e-16
-1.89208e-15
-3.57959e-15
-6.73963e-15
-1.25683e-14
-2.29075e-14
-4.02572e-14
-6.75947e-14
-1.08007e-13
-1.64235e-13
-2.38275e-13
-3.31153e-13
-4.42921e-13
-5.72841e-13
-7.19675e-13
-8.8199e-13
-1.05843e-12
-1.24787e-12
-1.44958e-12
-1.66362e-12
-1.92991e-12
-2.28256e-12
-2.76777e-12
-3.45123e-12
-4.43161e-12
-5.86403e-12
-7.99734e-12
-1.12253e-11
-1.6145e-11
-2.35937e-11
-3.45924e-11
-5.00953e-11
-7.04848e-11
-9.48301e-11
-3.83968e-21
-1.37129e-20
-7.28466e-20
-2.90304e-19
-9.33574e-19
-2.69614e-18
-7.38211e-18
-2.0267e-17
-5.17067e-17
-1.1951e-16
-2.53306e-16
-5.06322e-16
-9.84887e-16
-1.90719e-15
-3.69085e-15
-7.04667e-15
-1.30275e-14
-2.29733e-14
-3.83269e-14
-6.03545e-14
-8.98624e-14
-1.27011e-13
-1.71293e-13
-2.21656e-13
-2.76727e-13
-3.3504e-13
-3.95232e-13
-4.56166e-13
-5.16985e-13
-5.77117e-13
-6.36238e-13
-7.0294e-13
-8.00127e-13
-9.43143e-13
-1.15492e-12
-1.46797e-12
-1.93092e-12
-2.61942e-12
-3.6542e-12
-5.22717e-12
-7.63176e-12
-1.12813e-11
-1.66819e-11
-2.4315e-11
-3.43777e-11
-1.66336e-21
-6.38384e-21
-3.38445e-20
-1.33373e-19
-4.3032e-19
-1.27045e-18
-3.60111e-18
-1.00053e-17
-2.53904e-17
-5.82431e-17
-1.22871e-16
-2.46642e-16
-4.87855e-16
-9.7016e-16
-1.92916e-15
-3.75423e-15
-6.99347e-15
-1.22859e-14
-2.02207e-14
-3.11675e-14
-4.514e-14
-6.17537e-14
-8.02959e-14
-9.98712e-14
-1.19565e-13
-1.38574e-13
-1.56285e-13
-1.72299e-13
-1.86413e-13
-1.98584e-13
-2.08884e-13
-2.18324e-13
-2.36702e-13
-2.69388e-13
-3.23759e-13
-4.1034e-13
-5.44852e-13
-7.51419e-13
-1.06796e-12
-1.55537e-12
-2.31115e-12
-3.48553e-12
-5.29201e-12
-7.99603e-12
-1.18519e-11
-7.02017e-22
-2.92119e-21
-1.52263e-20
-5.93054e-20
-1.93587e-19
-5.89019e-19
-1.72376e-18
-4.7966e-18
-1.20029e-17
-2.70849e-17
-5.67074e-17
-1.14438e-16
-2.3049e-16
-4.7037e-16
-9.57566e-16
-1.88454e-15
-3.5085e-15
-6.09636e-15
-9.83307e-15
-1.47409e-14
-2.06376e-14
-2.71542e-14
-3.38181e-14
-4.01564e-14
-4.57792e-14
-5.04261e-14
-5.39734e-14
-5.64145e-14
-5.78266e-14
-5.83375e-14
-5.80969e-14
-5.72563e-14
-5.82241e-14
-6.33866e-14
-7.45476e-14
-9.45886e-14
-1.2825e-13
-1.83113e-13
-2.71261e-13
-4.12188e-13
-6.3778e-13
-9.99834e-13
-1.57919e-12
-2.49253e-12
-3.8861e-12
-2.87682e-22
-1.26935e-21
-6.47551e-21
-2.5073e-20
-8.3471e-20
-2.62236e-19
-7.84543e-19
-2.17014e-18
-5.34936e-18
-1.19342e-17
-2.49817e-17
-5.11552e-17
-1.05599e-16
-2.20017e-16
-4.51502e-16
-8.85979e-16
-1.62843e-15
-2.77675e-15
-4.36618e-15
-6.32834e-15
-8.51559e-15
-1.07114e-14
-1.26927e-14
-1.42868e-14
-1.53943e-14
-1.59915e-14
-1.61152e-14
-1.58398e-14
-1.52555e-14
-1.44528e-14
-1.3512e-14
-1.24995e-14
-1.17477e-14
-1.21077e-14
-1.38756e-14
-1.77056e-14
-2.48097e-14
-3.73277e-14
-5.88932e-14
-9.5587e-14
-1.57622e-13
-2.62271e-13
-4.38286e-13
-7.31468e-13
-1.20876e-12
-1.12504e-22
-5.15711e-22
-2.57961e-21
-1.00032e-20
-3.41588e-20
-1.10446e-19
-3.34096e-19
-9.13483e-19
-2.21735e-18
-4.90711e-18
-1.0335e-17
-2.16222e-17
-4.58954e-17
-9.75647e-17
-2.01086e-16
-3.90295e-16
-7.01107e-16
-1.15694e-15
-1.75145e-15
-2.43832e-15
-3.13764e-15
-3.75673e-15
-4.20988e-15
-4.4594e-15
-4.50563e-15
-4.3769e-15
-4.11682e-15
-3.77146e-15
-3.38217e-15
-2.98159e-15
-2.59286e-15
-2.23069e-15
-1.92365e-15
-1.84896e-15
-2.0564e-15
-2.65856e-15
-3.90872e-15
-6.32106e-15
-1.08539e-14
-1.92422e-14
-3.45734e-14
-6.23001e-14
-1.12015e-13
-2.00209e-13
-3.53672e-13
-4.13891e-23
-1.93991e-22
-9.55549e-22
-3.73792e-21
-1.31246e-20
-4.3393e-20
-1.31475e-19
-3.54159e-19
-8.47393e-19
-1.86764e-18
-3.98011e-18
-8.53817e-18
-1.85907e-17
-4.00245e-17
-8.2151e-17
-1.56585e-16
-2.73466e-16
-4.35469e-16
-6.32344e-16
-8.39856e-16
-1.02551e-15
-1.15873e-15
-1.22101e-15
-1.21033e-15
-1.13818e-15
-1.02395e-15
-8.90403e-16
-7.52833e-16
-6.22416e-16
-5.05555e-16
-4.04924e-16
-3.20809e-16
-2.52423e-16
-2.22053e-16
-2.3902e-16
-3.16163e-16
-4.96994e-16
-8.80917e-16
-1.6851e-15
-3.32303e-15
-6.5896e-15
-1.29506e-14
-2.51101e-14
-4.8069e-14
-9.03211e-14
-1.41384e-23
-6.69689e-23
-3.26598e-22
-1.29645e-21
-4.67686e-21
-1.56897e-20
-4.72719e-20
-1.25247e-19
-2.95878e-19
-6.51923e-19
-1.41149e-18
-3.10541e-18
-6.8977e-18
-1.49145e-17
-3.02514e-17
-5.62897e-17
-9.51433e-17
-1.45661e-16
-2.02172e-16
-2.55207e-16
-2.94452e-16
-3.12483e-16
-3.0746e-16
-2.83012e-16
-2.45991e-16
-2.03782e-16
-1.62294e-16
-1.25168e-16
-9.40474e-17
-6.95617e-17
-5.0779e-17
-3.66682e-17
-2.62553e-17
-2.06055e-17
-2.12587e-17
-2.86851e-17
-4.85361e-17
-9.48869e-17
-1.9452e-16
-3.96079e-16
-7.5795e-16
-1.3285e-15
-2.01695e-15
-2.27175e-15
-1.44379e-15
-4.42528e-24
-2.10172e-23
-1.02046e-22
-4.12722e-22
-1.52464e-21
-5.15065e-21
-1.53511e-20
-3.99713e-20
-9.33642e-20
-2.06213e-19
-4.54311e-19
-1.0221e-18
-2.30003e-18
-4.95776e-18
-9.88001e-18
-1.78739e-17
-2.91521e-17
-4.27997e-17
-5.6637e-17
-6.77591e-17
-7.36208e-17
-7.30743e-17
-6.67815e-17
-5.67101e-17
-4.51967e-17
-3.41512e-17
-2.47015e-17
-1.72481e-17
-1.17178e-17
-7.79624e-18
-5.10528e-18
-3.30383e-18
-2.11363e-18
-1.41099e-18
-1.19311e-18
-1.3855e-18
-6.16664e-19
5.90923e-18
4.37596e-17
2.29002e-16
1.01936e-15
4.00744e-15
1.37334e-14
4.12628e-14
1.0916e-13
-1.25081e-24
-5.92773e-24
-2.8801e-23
-1.18926e-22
-4.47734e-22
-1.51299e-21
-4.44347e-21
-1.1361e-20
-2.62497e-20
-5.81575e-20
-1.30198e-19
-2.98035e-19
-6.74976e-19
-1.44241e-18
-2.81385e-18
-4.93804e-18
-7.75964e-18
-1.09107e-17
-1.37463e-17
-1.55595e-17
)
;

boundaryField
{
    leftWall
    {
        type            zeroGradient;
    }
    rightWall
    {
        type            zeroGradient;
    }
    lowerWall
    {
        type            zeroGradient;
    }
    atmosphere
    {
        type            inletOutlet;
        inletValue      nonuniform 0();
        value           nonuniform 0();
    }
    defaultFaces
    {
        type            empty;
    }
    procBoundary0to1
    {
        type            processor;
        value           nonuniform List<scalar> 
44
(
0.999946
0.98473
0.969747
0.96977
0.98879
0.999759
0.99999
1
1
1
1
1
1
1
1
1
1
1
1
1
1
1
0.999994
0.3234
6.95952e-05
1.22923e-06
-1.67471e-08
2.04241e-10
-5.91798e-13
-3.57778e-10
-2.04341e-09
-1.9616e-09
-1.24881e-09
-6.43099e-10
-2.90457e-10
-1.19982e-10
-4.63704e-11
-1.69604e-11
-5.9001e-12
-1.95445e-12
-6.13723e-13
-1.67059e-13
0
2.59048e-13
)
;
    }
    procBoundary0to2
    {
        type            processor;
        value           nonuniform List<scalar> 
46
(
-1.58836e-17
-1.47016e-17
-1.24286e-17
-9.68524e-18
-7.03065e-18
-4.80731e-18
-3.12999e-18
-1.95975e-18
-1.19041e-18
-7.06508e-19
-4.11807e-19
-2.3519e-19
-1.23681e-19
-2.31158e-20
1.54036e-19
1.15764e-18
6.12964e-18
2.88044e-17
1.33156e-16
6.16699e-16
2.72485e-15
1.09229e-14
3.83624e-14
1.17999e-13
3.19314e-13
-3.13833e-25
-1.48006e-24
-7.22788e-24
-3.04785e-23
-1.16309e-22
-3.90897e-22
-1.12762e-21
-2.82652e-21
-6.4501e-21
-1.43025e-20
-3.2399e-20
-7.50158e-20
-1.70132e-19
-3.59332e-19
-6.85158e-19
-1.16569e-18
-1.7646e-18
-2.376e-18
-2.84921e-18
-1.58836e-17
-3.04958e-18
)
;
    }
}


// ************************************************************************* //
