/*--------------------------------*- C++ -*----------------------------------*\
| =========                 |                                                 |
| \\      /  F ield         | OpenFOAM: The Open Source CFD Toolbox           |
|  \\    /   O peration     | Version:  5.0                                   |
|   \\  /    A nd           | Web:      www.OpenFOAM.org                      |
|    \\/     M anipulation  |                                                 |
\*---------------------------------------------------------------------------*/
FoamFile
{
    version     2.0;
    format      ascii;
    class       volScalarField;
    location    "0.6";
    object      epsilon;
}
// * * * * * * * * * * * * * * * * * * * * * * * * * * * * * * * * * * * * * //

dimensions      [0 2 -3 0 0 0 0];

internalField   nonuniform List<scalar> 
1935
(
0.0224344
0.0627296
0.112092
0.170411
0.22943
0.284475
0.335316
0.384107
0.432683
0.478584
0.522179
0.563444
0.602431
0.639238
0.673992
0.706828
0.737882
0.767278
0.795115
0.821461
0.84634
0.869723
0.891519
0.91156
0.929581
0.945182
0.957767
0.966887
0.974391
0.978006
0.976435
0.968671
0.953743
0.930726
0.898843
0.857617
0.807025
0.747604
0.680318
0.605776
0.540459
0.488724
0.444843
0.396561
0.040562
0.046206
0.0660463
0.0887121
0.112349
0.134967
0.156308
0.175961
0.194665
0.2124
0.229282
0.245386
0.260779
0.275529
0.289696
0.303338
0.316503
0.329229
0.341544
0.353462
0.364983
0.376091
0.386757
0.396933
0.406554
0.415534
0.423782
0.431388
0.439084
0.446373
0.452966
0.458623
0.463126
0.466228
0.46762
0.46691
0.463576
0.456897
0.445704
0.427804
0.402387
0.369041
0.329438
0.291593
0.0554866
0.0459038
0.0595336
0.0760765
0.0932754
0.109501
0.124648
0.138718
0.151919
0.164364
0.176155
0.187378
0.19811
0.208418
0.218364
0.227998
0.237366
0.246502
0.255431
0.26417
0.272724
0.281092
0.289265
0.297227
0.304957
0.312437
0.319662
0.326722
0.333895
0.341133
0.348386
0.355617
0.362791
0.369854
0.376704
0.383148
0.388828
0.39308
0.394633
0.391063
0.379703
0.360262
0.337327
0.322917
0.0643442
0.0498915
0.0608371
0.0744339
0.0884089
0.101843
0.114483
0.126294
0.137352
0.147742
0.157547
0.166845
0.175709
0.184207
0.1924
0.200343
0.20808
0.215649
0.22308
0.230395
0.237611
0.244735
0.251772
0.258725
0.265593
0.272386
0.279129
0.285902
0.292856
0.300031
0.307461
0.315176
0.323203
0.331544
0.340153
0.348891
0.357453
0.365235
0.371125
0.373264
0.369776
0.361482
0.354437
0.361372
0.0727222
0.0565559
0.0652463
0.0767537
0.0887567
0.100496
0.111675
0.122201
0.132082
0.141362
0.150101
0.158364
0.166216
0.173724
0.180949
0.187943
0.194755
0.201425
0.20799
0.214477
0.220909
0.227306
0.233681
0.240049
0.246423
0.252827
0.259297
0.265907
0.272757
0.279909
0.28742
0.295343
0.303721
0.312571
0.32186
0.331468
0.341123
0.350323
0.358231
0.363708
0.366061
0.367168
0.373797
0.400254
0.0814706
0.0646631
0.0715693
0.0814404
0.0920155
0.102546
0.112695
0.122322
0.131392
0.139922
0.147949
0.155525
0.162712
0.16957
0.176157
0.182527
0.188728
0.194803
0.200792
0.206729
0.212644
0.218563
0.224509
0.230503
0.23657
0.242739
0.249052
0.255574
0.262383
0.26954
0.277105
0.285133
0.29367
0.302733
0.312294
0.32225
0.332383
0.342323
0.351554
0.359591
0.366725
0.375689
0.393911
0.437805
0.0892463
0.0736462
0.0792146
0.0878487
0.0973632
0.106971
0.116299
0.125187
0.133584
0.141491
0.148937
0.155966
0.162631
0.168989
0.175094
0.180997
0.186746
0.192384
0.197954
0.203494
0.209041
0.214626
0.220279
0.226027
0.231901
0.237933
0.244165
0.250656
0.257467
0.264654
0.272271
0.28037
0.288991
0.298154
0.307836
0.317961
0.32838
0.338875
0.34923
0.35949
0.37066
0.386122
0.414016
0.47321
0.0951744
0.082626
0.0878111
0.0957493
0.104537
0.1134
0.121986
0.130161
0.137894
0.14519
0.152075
0.158589
0.164779
0.170695
0.176387
0.1819
0.187279
0.192568
0.197811
0.203048
0.20832
0.213664
0.219114
0.224702
0.230461
0.236426
0.242637
0.249145
0.255996
0.26324
0.270924
0.279094
0.287786
0.297022
0.306793
0.317058
0.327745
0.338782
0.350211
0.362474
0.377063
0.397828
0.433649
0.506289
0.100414
0.0921679
0.0976502
0.105358
0.113619
0.121754
0.129534
0.136911
0.143897
0.150516
0.156796
0.162772
0.168483
0.17397
0.179272
0.184429
0.189483
0.194474
0.199446
0.204442
0.209503
0.214671
0.219983
0.225474
0.231181
0.237136
0.243376
0.249943
0.256874
0.264208
0.271987
0.28025
0.289033
0.298363
0.308251
0.318695
0.3297
0.341324
0.353811
0.367882
0.385331
0.410297
0.452311
0.536638
0.111374
0.104642
0.109958
0.117388
0.124916
0.132059
0.138793
0.145178
0.151269
0.1571
0.162698
0.168085
0.173287
0.178332
0.183247
0.188062
0.192815
0.197543
0.202286
0.207085
0.211985
0.217027
0.222254
0.227702
0.233407
0.239403
0.24572
0.252389
0.259438
0.2669
0.274811
0.283203
0.292118
0.301591
0.311654
0.322347
0.333742
0.346008
0.359538
0.375223
0.395001
0.423041
0.46895
0.560235
0.146252
0.124874
0.12711
0.132968
0.138824
0.144349
0.149634
0.15476
0.159771
0.164685
0.169509
0.174245
0.178899
0.183477
0.187992
0.192465
0.196927
0.201415
0.205961
0.210603
0.215381
0.220342
0.225529
0.23098
0.236732
0.242816
0.249256
0.256072
0.263284
0.270919
0.279006
0.287576
0.296676
0.306356
0.316667
0.32769
0.339558
0.352521
0.367075
0.384199
0.405826
0.4358
0.48234
0.566096
0.223624
0.159447
0.151647
0.152827
0.155356
0.158415
0.161796
0.165395
0.169154
0.173034
0.177007
0.181041
0.185111
0.189198
0.193298
0.197418
0.201584
0.205843
0.210219
0.214735
0.21943
0.22435
0.22954
0.23504
0.240886
0.247106
0.253718
0.26073
0.268154
0.27601
0.284324
0.293127
0.302475
0.312432
0.323071
0.334507
0.346921
0.360626
0.376178
0.394583
0.417662
0.448747
0.494184
0.567113
0.326556
0.198696
0.179937
0.174678
0.172996
0.173196
0.174481
0.176441
0.178878
0.181686
0.18479
0.188119
0.191609
0.195216
0.198913
0.202694
0.206568
0.210605
0.214834
0.219253
0.223895
0.228808
0.234042
0.239635
0.245622
0.252027
0.258861
0.266118
0.273803
0.281932
0.290526
0.299617
0.309274
0.319576
0.330615
0.342536
0.355556
0.370027
0.386537
0.406074
0.43031
0.462063
0.506111
0.570669
0.421264
0.220667
0.197115
0.189749
0.186737
0.185762
0.185838
0.186616
0.187965
0.189818
0.192109
0.194761
0.197699
0.200866
0.204224
0.207758
0.211476
0.215409
0.219566
0.223941
0.228573
0.23352
0.238841
0.244578
0.250753
0.257394
0.264505
0.272061
0.28006
0.28851
0.297428
0.306855
0.316878
0.327581
0.33908
0.351538
0.3652
0.380441
0.397853
0.418389
0.443565
0.475776
0.518746
0.578092
0.447958
0.228809
0.201635
0.195394
0.193946
0.193789
0.194041
0.194588
0.19549
0.196804
0.198542
0.200678
0.203171
0.205975
0.209059
0.212405
0.216014
0.219894
0.22403
0.228438
0.233151
0.238234
0.243741
0.249697
0.256117
0.263054
0.270508
0.278427
0.286785
0.295601
0.304878
0.314674
0.325103
0.336244
0.348239
0.361261
0.375575
0.391561
0.409805
0.431209
0.457145
0.489691
0.531917
0.588211
0.449484
0.231495
0.204073
0.198927
0.198576
0.19922
0.199942
0.200661
0.201508
0.202617
0.204068
0.205893
0.208088
0.210635
0.213517
0.216714
0.220209
0.22399
0.228087
0.232534
0.237362
0.242618
0.248339
0.254562
0.261313
0.26865
0.276568
0.284987
0.293824
0.30308
0.312747
0.322913
0.333776
0.345363
0.35786
0.371438
0.386379
0.403057
0.422043
0.444178
0.470708
0.503464
0.545096
0.599367
0.444971
0.231675
0.204848
0.200426
0.200803
0.202119
0.203394
0.204503
0.205573
0.206763
0.208194
0.209938
0.212027
0.21447
0.217264
0.220396
0.223851
0.227624
0.23175
0.236272
0.241224
0.246638
0.252536
0.258951
0.265952
0.27362
0.281947
0.2909
0.300385
0.310305
0.32065
0.331406
0.342735
0.354726
0.367712
0.381797
0.397301
0.414578
0.434188
0.45691
0.483862
0.516675
0.557677
0.610196
0.436937
0.231276
0.204935
0.200692
0.201366
0.203098
0.204831
0.206367
0.207785
0.209229
0.210827
0.212671
0.214817
0.217293
0.220111
0.223272
0.226771
0.230618
0.234848
0.239502
0.244614
0.250209
0.256305
0.262935
0.270171
0.278082
0.28666
0.295889
0.305781
0.316321
0.3274
0.339156
0.351373
0.36405
0.377539
0.392051
0.408063
0.425799
0.445885
0.469003
0.49619
0.52888
0.569101
0.619761
0.428503
0.23081
0.204751
0.20022
0.200807
0.202679
0.204707
0.206608
0.208393
0.210166
0.212039
0.214102
0.216421
0.219038
0.221977
0.225252
0.228875
0.232865
0.237259
0.242096
0.247407
0.253216
0.259543
0.266419
0.273905
0.282053
0.290868
0.300353
0.310547
0.321454
0.332997
0.34529
0.358308
0.372016
0.38647
0.401741
0.418355
0.436394
0.456846
0.480119
0.507303
0.539634
0.578866
0.62745
0.421496
0.230741
0.204383
0.199214
0.199422
0.201198
0.203353
0.205518
0.207632
0.209746
0.211939
0.214289
0.216859
0.219695
0.222831
0.226293
0.230104
0.234294
0.2389
0.243959
0.249502
0.255555
0.262141
0.26929
0.277049
0.285457
0.294527
0.304271
0.314722
0.325893
0.337761
0.350402
0.363858
0.378151
0.393339
0.409563
0.42703
0.445834
0.466784
0.489952
0.516944
0.548622
0.586589
0.63286
0.416494
0.230996
0.203787
0.197744
0.19737
0.198876
0.201011
0.203335
0.205713
0.208141
0.21066
0.213324
0.216187
0.219293
0.22268
0.226382
0.230431
0.234861
0.239713
0.245023
0.250824
0.257144
0.264009
0.271449
0.2795
0.288191
0.297538
0.307553
0.31826
0.329679
0.34181
0.35471
0.368442
0.383064
0.398656
0.415376
0.433363
0.45286
0.47431
0.497995
0.524885
0.555697
0.592175
0.635903
0.688872
0.411954
0.231078
0.202861
0.195829
0.194759
0.195874
0.197876
0.20026
0.202829
0.205522
0.208343
0.21132
0.214489
0.21789
0.22156
0.225535
0.229852
0.234551
0.23967
0.24525
0.251325
0.257926
0.265082
0.272821
0.281174
0.290164
0.299802
0.310103
0.321082
0.332757
0.34514
0.358274
0.372222
0.387056
0.402872
0.419815
0.438043
0.457808
0.479416
0.503282
0.530057
0.560553
0.595649
0.636967
0.685788
0.408531
0.230964
0.201582
0.1935
0.191674
0.192324
0.194111
0.196471
0.199155
0.202056
0.205138
0.208404
0.211872
0.215571
0.219533
0.223796
0.228397
0.233376
0.238774
0.244633
0.250989
0.257876
0.265325
0.273364
0.28202
0.291313
0.301252
0.311847
0.32311
0.335054
0.347696
0.361068
0.375224
0.390236
0.406198
0.423244
0.441538
0.461303
0.482817
0.506449
0.532763
0.562548
0.596553
0.636295
0.681549
0.406896
0.230744
0.199984
0.190809
0.188201
0.188345
0.189856
0.192124
0.194855
0.1979
0.201194
0.20471
0.208451
0.212433
0.216682
0.22123
0.226115
0.231376
0.237055
0.243193
0.249829
0.256999
0.264736
0.273069
0.282023
0.291614
0.301853
0.312745
0.324298
0.336522
0.34943
0.363049
0.377423
0.392612
0.408703
0.425813
0.444092
0.463736
0.484995
0.50819
0.533794
0.562395
0.594749
0.632195
0.67551
0.40741
0.230488
0.198119
0.18782
0.184423
0.18404
0.185236
0.187358
0.190074
0.193203
0.196652
0.200373
0.20435
0.208587
0.213102
0.217921
0.223079
0.228613
0.234565
0.240975
0.247884
0.255329
0.263344
0.27196
0.2812
0.29108
0.301612
0.312796
0.324638
0.337144
0.350324
0.364197
0.378797
0.394174
0.410398
0.42757
0.445816
0.465303
0.486244
0.508912
0.533684
0.561049
0.591672
0.626466
0.666364
0.410094
0.230211
0.196033
0.184598
0.18042
0.179504
0.180359
0.182292
0.184941
0.188098
0.191647
0.195521
0.19969
0.204146
0.208897
0.213963
0.219374
0.225165
0.231375
0.238045
0.245214
0.252922
0.261202
0.270087
0.279598
0.289755
0.300566
0.312035
0.32416
0.336946
0.350398
0.364528
0.379359
0.394931
0.4113
0.428543
0.446767
0.466107
0.486737
0.508883
0.532847
0.559022
0.587939
0.620293
0.656939
0.414678
0.229874
0.193757
0.181197
0.176261
0.174818
0.175317
0.17703
0.179567
0.182702
0.186299
0.190276
0.19459
0.199222
0.204172
0.209455
0.215093
0.221118
0.227567
0.234479
0.241893
0.249848
0.25838
0.267517
0.277287
0.287705
0.298783
0.310524
0.322925
0.335984
0.349703
0.364089
0.379155
0.394928
0.41145
0.42878
0.447001
0.466222
0.486584
0.508269
0.531519
0.55665
0.584076
0.614337
0.64814
0.420696
0.229409
0.19131
0.177665
0.172004
0.170049
0.170187
0.171658
0.174049
0.177118
0.180714
0.184745
0.189157
0.193922
0.199032
0.204495
0.210329
0.216562
0.223227
0.230361
0.238002
0.246188
0.254954
0.264331
0.274343
0.28501
0.296341
0.308342
0.32101
0.334336
0.348319
0.362958
0.378259
0.394238
0.410922
0.428354
0.446596
0.465735
0.485881
0.507185
0.529843
0.55411
0.58032
0.608898
0.640408
0.427591
0.228745
0.188703
0.17404
0.167699
0.165255
0.165035
0.166249
0.168467
0.171432
0.174986
0.179026
0.183489
0.188343
0.193571
0.199177
0.205173
0.211584
0.218439
0.225772
0.23362
0.242019
0.251005
0.260606
0.270849
0.281753
0.293328
0.305579
0.318504
0.332091
0.346333
0.361224
0.376762
0.392951
0.409806
0.427357
0.445646
0.46474
0.48473
0.505736
0.527924
0.551508
0.576765
0.604048
0.633819
0.4348
0.227827
0.185954
0.170357
0.16339
0.160485
0.159915
0.160864
0.162888
0.16572
0.169194
0.173202
0.177675
0.182573
0.187879
0.193588
0.199711
0.206267
0.213283
0.22079
0.228823
0.237418
0.246606
0.256419
0.266882
0.278012
0.289822
0.302316
0.315493
0.329338
0.343838
0.358981
0.374758
0.391165
0.408204
0.42589
0.444254
0.463344
0.483233
0.504024
0.525859
0.548924
0.573462
0.599782
0.628281
0.441825
0.226622
0.183082
0.166649
0.159115
0.155781
0.154874
0.155556
0.157371
0.160045
0.163408
0.167346
0.171789
0.176692
0.182034
0.187807
0.194019
0.200687
0.207833
0.215487
0.223682
0.232451
0.241826
0.251837
0.262508
0.273857
0.285895
0.298628
0.312051
0.326154
0.340913
0.356313
0.372336
0.38897
0.406207
0.424051
0.442518
0.461645
0.48149
0.502144
0.523732
0.546426
0.57045
0.596086
0.623696
0.44826
0.225122
0.180115
0.162949
0.154908
0.15118
0.149952
0.150368
0.151964
0.154462
0.157687
0.161524
0.1659
0.17077
0.176108
0.181907
0.188171
0.194914
0.202157
0.209929
0.218259
0.227181
0.236723
0.246916
0.257783
0.269342
0.281604
0.294572
0.308242
0.322602
0.337625
0.353289
0.369568
0.386443
0.403897
0.421922
0.440524
0.459729
0.479586
0.500176
0.521615
0.544069
0.567753
0.592942
0.61998
0.453812
0.223341
0.177082
0.159287
0.1508
0.146714
0.145182
0.145338
0.146709
0.149016
0.152081
0.155789
0.160067
0.164868
0.170166
0.175952
0.18223
0.189012
0.196318
0.204175
0.212612
0.22166
0.231349
0.241706
0.252755
0.264514
0.276992
0.290192
0.304108
0.318725
0.33402
0.349957
0.366507
0.38364
0.401332
0.419566
0.438338
0.457665
0.477588
0.498183
0.519563
0.541893
0.56539
0.590331
0.617061
0.458297
0.221305
0.174016
0.155693
0.146817
0.142407
0.140592
0.140494
0.141639
0.143744
0.146632
0.150189
0.154341
0.159041
0.164264
0.170002
0.176256
0.18304
0.190374
0.198282
0.206794
0.21594
0.225749
0.236248
0.247462
0.259407
0.272092
0.285518
0.299679
0.314557
0.330127
0.346348
0.363183
0.380594
0.39855
0.417023
0.436002
0.455496
0.475541
0.496209
0.517615
0.539926
0.563369
0.588235
0.614883
0.46165
0.219058
0.170951
0.152193
0.142981
0.13828
0.136201
0.135861
0.13678
0.138678
0.141377
0.144763
0.148764
0.153336
0.158453
0.164108
0.170304
0.177054
0.184378
0.192302
0.200854
0.210066
0.219966
0.230583
0.241938
0.254051
0.266928
0.280572
0.294972
0.31011
0.325958
0.342474
0.359608
0.377319
0.395564
0.414309
0.433536
0.453246
0.47347
0.49428
0.515794
0.538187
0.561701
0.586648
0.613413
0.463923
0.216652
0.167924
0.14881
0.139308
0.134347
0.132025
0.131453
0.132152
0.133839
0.13634
0.139542
0.143374
0.147793
0.152777
0.158318
0.164422
0.171102
0.178381
0.186284
0.194841
0.204084
0.214043
0.224746
0.236217
0.248473
0.261524
0.27537
0.290001
0.305394
0.32152
0.338335
0.355783
0.373812
0.392373
0.411426
0.430942
0.450919
0.471384
0.492408
0.514116
0.536693
0.5604
0.585578
0.612652
0.465329
0.214169
0.164977
0.145564
0.13581
0.130616
0.128071
0.12728
0.127765
0.129244
0.131543
0.13455
0.138198
0.142445
0.147272
0.152673
0.158654
0.165233
0.172431
0.180277
0.188803
0.19804
0.208022
0.218778
0.230332
0.242704
0.255904
0.269931
0.284775
0.300414
0.316813
0.333929
0.351699
0.370063
0.388967
0.408361
0.428212
0.44851
0.469282
0.490598
0.512591
0.535461
0.559493
0.58506
0.612638
0.466359
0.211852
0.162149
0.142454
0.132477
0.127078
0.124333
0.123342
0.123625
0.124901
0.126997
0.129804
0.133258
0.137319
0.141971
0.147208
0.15304
0.159486
0.166572
0.174327
0.182784
0.19198
0.201948
0.212719
0.224322
0.236776
0.250094
0.264275
0.279311
0.295178
0.311841
0.329251
0.347349
0.366063
0.385332
0.405102
0.425332
0.44601
0.46716
0.488856
0.511237
0.534523
0.559023
0.585156
0.613454
0.466156
0.20952
0.159372
0.139448
0.12929
0.12372
0.120801
0.11963
0.119726
0.120808
0.122707
0.125316
0.128571
0.132437
0.136896
0.14195
0.14761
0.153899
0.160844
0.168475
0.17683
0.185948
0.195864
0.206614
0.218227
0.230728
0.244129
0.258434
0.273634
0.289706
0.306615
0.324311
0.342735
0.361807
0.381463
0.401641
0.422298
0.443418
0.465024
0.487196
0.510084
0.533926
0.559065
0.585968
0.61524
0.464269
0.206965
0.156591
0.136521
0.126232
0.120526
0.11746
0.116131
0.116056
0.116959
0.11867
0.121084
0.124141
0.127807
0.132069
0.136928
0.1424
0.148509
0.155284
0.162761
0.170981
0.179988
0.189818
0.200508
0.212093
0.224602
0.23805
0.252442
0.267775
0.284026
0.30116
0.319128
0.33787
0.357306
0.377366
0.397985
0.419118
0.440747
0.462898
0.485656
0.509186
0.53375
0.55973
0.587648
0.618196
0.460903
0.20416
0.153781
0.133654
0.123284
0.117479
0.114295
0.11283
0.112604
0.113341
0.114875
0.117103
0.119966
0.123432
0.127493
0.132151
0.137424
0.143339
0.149928
0.157231
0.165289
0.174149
0.183854
0.194446
0.205966
0.218449
0.231904
0.246347
0.261778
0.278177
0.295511
0.313733
0.332783
0.352587
0.373068
0.394162
0.415822
0.438034
0.460827
0.484298
0.50863
0.534113
0.561173
0.590403
0.622594
0.456287
0.201122
0.150937
0.130835
0.120435
0.114565
0.111291
0.109713
0.109355
0.109942
0.111311
0.113361
0.116037
0.119308
0.123168
0.127622
0.13269
0.138402
0.144792
0.151904
0.159782
0.168474
0.17803
0.188495
0.199913
0.212321
0.225743
0.240198
0.255695
0.272213
0.289719
0.308174
0.327525
0.347698
0.368616
0.39022
0.412465
0.435343
0.458892
0.483223
0.508542
0.535176
0.563606
0.594505
0.628663
0.45062
0.197882
0.148061
0.128058
0.117672
0.111771
0.108432
0.106764
0.106292
0.106746
0.107964
0.109849
0.112346
0.115428
0.11909
0.12334
0.128201
0.133704
0.139887
0.146796
0.154479
0.162987
0.172372
0.182687
0.193978
0.206288
0.219648
0.234082
0.2496
0.266194
0.283843
0.302512
0.32216
0.342704
0.364079
0.386232
0.409128
0.432767
0.457202
0.482565
0.509091
0.537154
0.567292
0.600178
0.636722
0.444073
0.194472
0.145159
0.12532
0.114988
0.109085
0.105707
0.103968
0.103401
0.103738
0.104819
0.10655
0.108879
0.11178
0.11525
0.119301
0.123955
0.129248
0.135219
0.141917
)
;

boundaryField
{
    leftWall
    {
        Cmu             0.09;
        kappa           0.41;
        E               9.8;
        type            epsilonWallFunction;
        value           nonuniform List<scalar> 
44
(
0.0224344
0.040562
0.0554866
0.0643442
0.0727222
0.0814706
0.0892463
0.0951744
0.100414
0.111374
0.146252
0.223624
0.326556
0.421264
0.447958
0.449484
0.444971
0.436937
0.428503
0.421496
0.416494
0.411954
0.408531
0.406896
0.40741
0.410094
0.414678
0.420696
0.427591
0.4348
0.441825
0.44826
0.453812
0.458297
0.46165
0.463923
0.465329
0.466359
0.466156
0.464269
0.460903
0.456287
0.45062
0.444073
)
;
    }
    rightWall
    {
        Cmu             0.09;
        kappa           0.41;
        E               9.8;
        type            epsilonWallFunction;
        value           nonuniform 0();
    }
    lowerWall
    {
        Cmu             0.09;
        kappa           0.41;
        E               9.8;
        type            epsilonWallFunction;
        value           nonuniform List<scalar> 
44
(
0.0224344
0.0627296
0.112092
0.170411
0.22943
0.284475
0.335316
0.384107
0.432683
0.478584
0.522179
0.563444
0.602431
0.639238
0.673992
0.706828
0.737882
0.767278
0.795115
0.821461
0.84634
0.869723
0.891519
0.91156
0.929581
0.945182
0.957767
0.966887
0.974391
0.978006
0.976435
0.968671
0.953743
0.930726
0.898843
0.857617
0.807025
0.747604
0.680318
0.605776
0.540459
0.488724
0.444843
0.396561
)
;
    }
    atmosphere
    {
        type            inletOutlet;
        inletValue      nonuniform 0();
        value           nonuniform 0();
    }
    defaultFaces
    {
        type            empty;
    }
    procBoundary0to1
    {
        type            processor;
        value           nonuniform List<scalar> 
44
(
0.333968
0.282663
0.344605
0.410738
0.483685
0.555625
0.624374
0.690926
0.760706
0.821635
0.754923
0.697793
0.669378
0.661499
0.664424
0.671492
0.678958
0.684979
0.688767
0.690058
0.690058
0.753394
0.743911
0.734525
0.726085
0.712885
0.699059
0.686409
0.675589
0.666677
0.659467
0.653729
0.649286
0.645993
0.64374
0.64246
0.642134
0.642806
0.644583
0.647648
0.652261
0.658622
0.667074
0.678042
)
;
    }
    procBoundary0to2
    {
        type            processor;
        value           nonuniform List<scalar> 
46
(
0.149394
0.157704
0.166904
0.17705
0.188194
0.200384
0.213658
0.228046
0.243565
0.260216
0.277987
0.296851
0.316768
0.337684
0.359538
0.382288
0.405911
0.430423
0.455898
0.482494
0.51048
0.540264
0.572428
0.607739
0.647189
0.436799
0.190925
0.142242
0.12262
0.112378
0.106499
0.103102
0.101312
0.100667
0.100902
0.101861
0.103451
0.105623
0.108353
0.111639
0.115495
0.119947
0.12503
0.130789
0.149394
0.137273
)
;
    }
}


// ************************************************************************* //
