/*--------------------------------*- C++ -*----------------------------------*\
| =========                 |                                                 |
| \\      /  F ield         | OpenFOAM: The Open Source CFD Toolbox           |
|  \\    /   O peration     | Version:  5.0                                   |
|   \\  /    A nd           | Web:      www.OpenFOAM.org                      |
|    \\/     M anipulation  |                                                 |
\*---------------------------------------------------------------------------*/
FoamFile
{
    version     2.0;
    format      ascii;
    class       volScalarField;
    location    "0.6";
    object      k;
}
// * * * * * * * * * * * * * * * * * * * * * * * * * * * * * * * * * * * * * //

dimensions      [0 2 -2 0 0 0 0];

internalField   nonuniform List<scalar> 
1935
(
0.00285834
0.00520254
0.00765881
0.0101229
0.0123415
0.0142426
0.0158922
0.0173955
0.0188321
0.0201408
0.0213454
0.022455
0.0234785
0.0244245
0.0253009
0.0261149
0.0268729
0.0275804
0.0282419
0.0288607
0.0294389
0.029977
0.0304743
0.030928
0.0313331
0.0316818
0.0319617
0.0321651
0.0323312
0.0324107
0.0323753
0.0322026
0.0318699
0.0313538
0.0306321
0.0296863
0.0285051
0.027086
0.0254324
0.0235405
0.0218167
0.0204038
0.0191599
0.0177425
0.00468814
0.0104073
0.0156595
0.0206278
0.0250857
0.0290892
0.0327121
0.0359075
0.0388098
0.0414627
0.0438989
0.0461433
0.0482173
0.0501402
0.0519292
0.0535996
0.0551649
0.0566365
0.0580238
0.0593341
0.0605724
0.0617415
0.0628418
0.0638709
0.0648236
0.0656914
0.0664615
0.0671156
0.0676258
0.067976
0.0681403
0.0680909
0.0677968
0.0672259
0.0663487
0.0651414
0.063587
0.0616681
0.0593388
0.0563918
0.0526962
0.0491439
0.0457134
0.0402497
0.00577745
0.0134633
0.019683
0.0254298
0.0308019
0.0356701
0.0401031
0.0441332
0.0478183
0.0511996
0.0543107
0.0571803
0.0598345
0.0622972
0.0645903
0.0667332
0.0687435
0.0706359
0.0724232
0.0741155
0.0757204
0.0772428
0.0786848
0.0800458
0.0813219
0.0825061
0.0835878
0.084554
0.0853799
0.0860447
0.0865229
0.086784
0.0867929
0.0865102
0.0858936
0.0849005
0.0834887
0.0816102
0.0791886
0.0760548
0.0721012
0.0677682
0.0631027
0.0565905
0.00637649
0.0156074
0.02247
0.0286559
0.0344754
0.0398901
0.0448967
0.049507
0.0537505
0.0576581
0.0612601
0.0645854
0.0676622
0.0705175
0.0731762
0.0756609
0.0779919
0.0801873
0.0822624
0.0842302
0.0861006
0.0878808
0.0895751
0.0911847
0.0927077
0.0941388
0.0954698
0.0966901
0.0977782
0.0987137
0.0994712
0.10002
0.100323
0.100336
0.100008
0.0992821
0.0980932
0.0963671
0.0940076
0.0908789
0.0869064
0.0823178
0.0771766
0.0704843
0.00691603
0.0172226
0.0245316
0.0310941
0.037297
0.043144
0.0486082
0.053681
0.0583738
0.0627079
0.0667094
0.0704066
0.0738289
0.077005
0.0799623
0.0827259
0.0853186
0.0877607
0.0900705
0.0922633
0.0943515
0.0963449
0.0982496
0.100069
0.101803
0.103447
0.104996
0.106441
0.10776
0.108934
0.109938
0.110742
0.111306
0.111584
0.111519
0.111044
0.110083
0.108547
0.106334
0.103337
0.0995059
0.0949545
0.0896642
0.0827248
0.00745676
0.0184454
0.0262035
0.0331411
0.0397182
0.0459562
0.0518172
0.0572805
0.0623486
0.0670381
0.0713727
0.0753809
0.0790932
0.08254
0.0857504
0.0887512
0.091567
0.0942205
0.0967319
0.0991191
0.101397
0.103577
0.105668
0.107674
0.109598
0.111437
0.113186
0.114835
0.116365
0.117756
0.118984
0.120016
0.120814
0.121328
0.1215
0.121259
0.120524
0.119203
0.117197
0.114416
0.110817
0.106434
0.10114
0.0939585
0.00792023
0.0194701
0.0276536
0.0350121
0.0419982
0.0486229
0.0548437
0.0606413
0.0660206
0.0710006
0.0756072
0.0798707
0.0838232
0.0874965
0.0909208
0.0941241
0.0971323
0.0999696
0.102658
0.105218
0.107665
0.110014
0.112275
0.114454
0.116555
0.118576
0.120512
0.122353
0.12408
0.125674
0.127108
0.12835
0.129362
0.130094
0.130487
0.130471
0.129965
0.128879
0.12712
0.124608
0.121289
0.117124
0.111875
0.10444
0.00826393
0.0202767
0.0289803
0.0368819
0.0443469
0.051365
0.0579086
0.0639805
0.0696031
0.074806
0.0796218
0.0840841
0.0882271
0.0920836
0.0956844
0.0990578
0.102231
0.105228
0.108073
0.110786
0.113388
0.115893
0.118312
0.120654
0.122923
0.125117
0.127233
0.129258
0.131174
0.132959
0.134588
0.136029
0.137243
0.138183
0.13879
0.138998
0.138727
0.137895
0.136415
0.134204
0.131192
0.127272
0.1221
0.114441
0.00856447
0.0208981
0.0303394
0.0389718
0.0469838
0.0543758
0.0611796
0.0674476
0.0732334
0.0785845
0.0835423
0.088145
0.0924281
0.0964248
0.100165
0.103678
0.106988
0.110123
0.113106
0.115959
0.118702
0.121352
0.123921
0.126419
0.128849
0.131212
0.133502
0.135706
0.137805
0.139776
0.141595
0.143229
0.14464
0.145784
0.146605
0.147041
0.147018
0.146459
0.145279
0.143395
0.140713
0.137073
0.132057
0.124364
0.00919011
0.0215418
0.0320736
0.041612
0.050154
0.0578255
0.0647785
0.0711368
0.0769912
0.082408
0.0874375
0.092121
0.0964943
0.100589
0.104433
0.108055
0.111479
0.114733
0.117838
0.120817
0.123691
0.126477
0.129189
0.131837
0.134426
0.136955
0.139418
0.141798
0.144077
0.146232
0.148238
0.150063
0.151671
0.153022
0.154063
0.154736
0.154975
0.154705
0.153848
0.152314
0.149992
0.146689
0.141964
0.13462
0.0110514
0.0228307
0.0348633
0.0452631
0.0541196
0.061865
0.0688031
0.0751221
0.0809413
0.0863393
0.0913713
0.0960788
0.100495
0.104648
0.108563
0.112266
0.115781
0.119136
0.122352
0.125448
0.128446
0.131364
0.134216
0.137012
0.139759
0.142454
0.145091
0.14765
0.150111
0.152452
0.154648
0.156667
0.158478
0.160043
0.161315
0.16224
0.162757
0.162799
0.162287
0.16113
0.159207
0.156314
0.152027
0.145348
0.014696
0.0263442
0.0397197
0.050362
0.0590521
0.0665647
0.0732872
0.0794262
0.0851048
0.0904024
0.0953724
0.100052
0.104467
0.108641
0.112596
0.116352
0.119935
0.123374
0.126689
0.129895
0.133012
0.136057
0.139048
0.141993
0.144899
0.147763
0.150578
0.15332
0.155968
0.158501
0.160892
0.163112
0.165135
0.166925
0.16844
0.169634
0.170449
0.170822
0.170678
0.169926
0.168446
0.16604
0.16234
0.156594
0.0188486
0.0334382
0.0467602
0.0566944
0.0647351
0.071748
0.0780876
0.0839304
0.0893829
0.0945159
0.0993751
0.103988
0.108372
0.112542
0.116515
0.120305
0.123935
0.127442
0.130845
0.134153
0.137383
0.140552
0.143679
0.146774
0.149842
0.15288
0.155877
0.158807
0.161648
0.164378
0.16697
0.169399
0.171642
0.173668
0.175441
0.176917
0.178046
0.178768
0.179012
0.178691
0.17769
0.175835
0.172829
0.168144
0.0222906
0.0410195
0.0534763
0.0625651
0.0701083
0.0767538
0.0827729
0.0883332
0.0935471
0.0984895
0.103206
0.107721
0.112048
0.116197
0.12018
0.124012
0.127712
0.131305
0.134805
0.138215
0.141556
0.144848
0.148113
0.151362
0.154597
0.157814
0.161
0.164126
0.167167
0.1701
0.172899
0.175542
0.178014
0.180285
0.182326
0.184096
0.185552
0.186637
0.187285
0.187414
0.186922
0.18566
0.183398
0.179774
0.0231922
0.0442649
0.0569363
0.0662212
0.0739567
0.0806895
0.0867
0.0921901
0.0973042
0.10214
0.106758
0.111194
0.115468
0.119595
0.123586
0.127456
0.13122
0.134896
0.138489
0.142011
0.145477
0.148912
0.152335
0.155752
0.15916
0.162567
0.165955
0.169289
0.172536
0.175679
0.178687
0.181548
0.184253
0.186774
0.189088
0.19116
0.19295
0.194406
0.195467
0.196061
0.196096
0.19545
0.193949
0.191343
0.0232471
0.0459366
0.0591163
0.0688312
0.0768669
0.0838044
0.0899417
0.0954934
0.10062
0.105437
0.110021
0.114422
0.118671
0.12279
0.126793
0.130695
0.134505
0.138232
0.141895
0.145513
0.149102
0.152679
0.156256
0.159843
0.163442
0.167062
0.170683
0.174261
0.177746
0.181115
0.184337
0.18741
0.190351
0.193119
0.195706
0.198078
0.200202
0.20203
0.203509
0.204574
0.205146
0.205128
0.204389
0.202755
0.0230942
0.046801
0.060424
0.0705183
0.0788706
0.0860661
0.0924079
0.098111
0.103341
0.108222
0.112843
0.117268
0.121536
0.125678
0.129714
0.133659
0.137522
0.141314
0.145056
0.148769
0.15247
0.15617
0.159877
0.163597
0.167348
0.171146
0.174973
0.178799
0.182572
0.186236
0.189759
0.193109
0.196294
0.199294
0.202149
0.204808
0.207257
0.209447
0.211339
0.212876
0.213989
0.214602
0.214619
0.213919
0.0228186
0.0472587
0.0611533
0.0715377
0.0801712
0.0876232
0.0941924
0.100088
0.105474
0.110475
0.115188
0.119684
0.124012
0.128208
0.132299
0.136303
0.140233
0.144104
0.147936
0.151751
0.155564
0.159384
0.163216
0.167067
0.170954
0.174892
0.178862
0.182843
0.18682
0.19076
0.194601
0.198358
0.20192
0.205239
0.208369
0.211297
0.214062
0.216592
0.218881
0.220872
0.222519
0.223759
0.224522
0.224725
0.0225275
0.0474594
0.0614828
0.0720909
0.0809558
0.0886358
0.0954233
0.10152
0.107081
0.112232
0.11707
0.121669
0.126086
0.130361
0.134527
0.138606
0.142617
0.146577
0.150509
0.154432
0.15836
0.1623
0.166259
0.170242
0.174263
0.17833
0.182432
0.186554
0.190691
0.19482
0.198888
0.202903
0.206817
0.210571
0.214125
0.217429
0.220548
0.223387
0.226063
0.228473
0.230626
0.23247
0.233957
0.235028
0.022286
0.0474271
0.0615492
0.0723235
0.081368
0.0892358
0.0962143
0.102497
0.108233
0.113542
0.118519
0.123239
0.127762
0.132134
0.13639
0.140558
0.14466
0.14872
0.152757
0.156791
0.160836
0.164899
0.168986
0.173103
0.177258
0.181455
0.185689
0.189946
0.194222
0.1985
0.202745
0.206956
0.211106
0.215159
0.219076
0.22283
0.226397
0.229692
0.232806
0.235586
0.238216
0.240614
0.242773
0.24466
0.0221115
0.0472247
0.0614459
0.0723426
0.0815185
0.08953
0.0966629
0.103105
0.108999
0.114457
0.119572
0.124418
0.129055
0.133532
0.137888
0.142154
0.146356
0.150519
0.154665
0.158812
0.162974
0.16716
0.171375
0.175626
0.179917
0.184247
0.188614
0.193006
0.197417
0.201832
0.20623
0.210602
0.214935
0.219205
0.223386
0.227461
0.231391
0.235145
0.238729
0.242057
0.245196
0.248095
0.250864
0.253482
0.255907
0.0219524
0.0469512
0.0612489
0.0722302
0.0814935
0.0896041
0.0968506
0.103418
0.109442
0.115031
0.120272
0.125238
0.129988
0.134572
0.13903
0.143397
0.147702
0.15197
0.156224
0.160483
0.164761
0.169068
0.17341
0.177792
0.182217
0.186683
0.191184
0.195712
0.200259
0.204811
0.209354
0.213875
0.218367
0.222814
0.2272
0.231512
0.235727
0.239827
0.243792
0.247596
0.25126
0.254784
0.25815
0.261456
0.264641
0.0218327
0.0466709
0.0610186
0.0720493
0.0813588
0.0895254
0.0968432
0.103497
0.109619
0.115313
0.120661
0.125733
0.130588
0.135273
0.139831
0.144297
0.148702
0.153073
0.157432
0.1618
0.16619
0.170614
0.175079
0.179589
0.184145
0.188745
0.19338
0.198044
0.202728
0.207419
0.212105
0.216773
0.221417
0.226024
0.230587
0.235095
0.239535
0.243898
0.248168
0.252334
0.256418
0.260453
0.264445
0.268531
0.272431
0.0217764
0.0464299
0.0608009
0.0718459
0.0811623
0.0893435
0.0966916
0.103393
0.109578
0.115347
0.120778
0.125938
0.130882
0.135659
0.140309
0.144868
0.149368
0.153836
0.158295
0.162766
0.167264
0.171799
0.176381
0.181012
0.185694
0.190423
0.19519
0.199989
0.20481
0.20964
0.214469
0.219284
0.224077
0.228841
0.233567
0.23825
0.242882
0.247459
0.251973
0.256423
0.26083
0.265217
0.269635
0.274249
0.279051
0.0217965
0.0462584
0.0606263
0.0716502
0.0809357
0.0890925
0.0964322
0.103144
0.109358
0.115171
0.120659
0.125884
0.130901
0.135754
0.140485
0.145128
0.149714
0.154272
0.158824
0.16339
0.167988
0.172628
0.177318
0.182064
0.186864
0.191716
0.196612
0.201542
0.206497
0.211465
0.216435
0.221395
0.226337
0.231253
0.236137
0.240984
0.24579
0.250553
0.255271
0.259948
0.264604
0.269271
0.274014
0.278941
0.284143
0.0218934
0.046171
0.0605098
0.0714774
0.0806962
0.0887932
0.0960893
0.102778
0.108988
0.114815
0.120333
0.125601
0.13067
0.135584
0.140381
0.145096
0.149758
0.154396
0.159032
0.163686
0.168376
0.173112
0.177903
0.182754
0.187666
0.192634
0.197651
0.202707
0.207791
0.212894
0.218002
0.223104
0.228192
0.233256
0.238292
0.243296
0.248263
0.253195
0.258092
0.262962
0.267826
0.272717
0.277696
0.282858
0.288328
0.0220569
0.0461677
0.0604516
0.0713298
0.0804494
0.0884553
0.0956771
0.102311
0.108489
0.114303
0.119825
0.125113
0.130215
0.135171
0.14002
0.144793
0.14952
0.154227
0.158937
0.163671
0.168443
0.173266
0.17815
0.183098
0.188112
0.193188
0.198319
0.203494
0.208703
0.213934
0.219175
0.224414
0.229642
0.23485
0.240032
0.245183
0.250302
0.25539
0.260449
0.265492
0.270537
0.275621
0.280799
0.286154
0.291813
0.0222701
0.046237
0.0604411
0.0711998
0.0801923
0.0880806
0.0952023
0.101757
0.107877
0.113654
0.119157
0.124443
0.129557
0.134539
0.139423
0.14424
0.149019
0.153785
0.158559
0.163361
0.168207
0.173109
0.178076
0.183114
0.188221
0.193397
0.198633
0.20392
0.209245
0.214598
0.219966
0.225336
0.230697
0.236041
0.241361
0.246652
0.251912
0.257144
0.262353
0.267551
0.272761
0.278018
0.283375
0.288909
0.294733
0.0225127
0.0463596
0.0604605
0.0710744
0.0799172
0.0876667
0.0946675
0.101122
0.107163
0.112881
0.118345
0.123609
0.128717
0.133707
0.13861
0.143458
0.148275
0.153087
0.157914
0.162775
0.167686
0.172658
0.1777
0.182817
0.188011
0.193277
0.198611
0.204002
0.209437
0.214905
0.220392
0.225885
0.231372
0.236844
0.242293
0.247714
0.253105
0.258469
0.263814
0.269154
0.274513
0.279928
0.285451
0.291157
0.297149
0.0227647
0.046513
0.0604895
0.0709385
0.0796144
0.0872093
0.0940732
0.100411
0.106355
0.111997
0.117404
0.122628
0.127713
0.132693
0.137601
0.142464
0.147307
0.152153
0.157022
0.161931
0.166897
0.17193
0.177038
0.182228
0.187499
0.192849
0.198271
0.203758
0.209295
0.214871
0.220469
0.226077
0.231683
0.237274
0.242843
0.248384
0.253895
0.259381
0.264849
0.270317
0.275811
0.28137
0.287049
0.29292
0.299081
0.0230087
0.0466751
0.0605086
0.0707779
0.0792751
0.0867044
0.09342
0.0996283
0.105462
0.111013
0.116347
0.121516
0.126561
0.131517
0.136413
0.141277
0.146132
0.150999
0.155898
0.160846
0.165856
0.17094
0.176107
0.18136
0.1867
0.192126
0.19763
0.203204
0.208836
0.214511
0.220214
0.22593
0.231645
0.237347
0.243027
0.248679
0.2543
0.259896
0.265475
0.271059
0.276675
0.282367
0.288191
0.294221
0.300552
0.0232311
0.0468263
0.0605015
0.0705812
0.0788929
0.0861498
0.0927093
0.0987791
0.104492
0.109939
0.115187
0.120287
0.125278
0.130194
0.135065
0.139915
0.144768
0.149644
0.154561
0.159535
0.164579
0.169705
0.17492
0.180227
0.185629
0.191123
0.196701
0.202355
0.208073
0.213841
0.21964
0.225456
0.231273
0.237078
0.242861
0.248614
0.254336
0.260032
0.265713
0.271401
0.277129
0.282942
0.288902
0.295085
0.301588
0.0234219
0.0469514
0.0604561
0.0703408
0.0784638
0.0855451
0.0919443
0.0978695
0.103454
0.108788
0.113939
0.118957
0.12388
0.128744
0.133574
0.138397
0.143234
0.148105
0.153027
0.158015
0.163082
0.168238
0.173491
0.178844
0.184298
0.189851
0.195495
0.201222
0.207018
0.21287
0.218759
0.224668
0.230579
0.23648
0.242358
0.248205
0.25402
0.259807
0.265581
0.271364
0.277194
0.28312
0.289209
0.295543
0.302221
0.0235756
0.0470398
0.0603645
0.0700523
0.0779868
0.0848924
0.0911295
0.0969066
0.102357
0.107572
0.112616
0.117541
0.122386
0.127183
0.13196
0.136742
0.141549
0.146401
0.151314
0.156303
0.16138
0.166555
0.171835
0.177223
0.182719
0.188322
0.194023
0.199813
0.20568
0.211608
0.217579
0.223574
0.229574
0.235563
0.24153
0.247465
0.253366
0.259238
0.265097
0.270969
0.276895
0.282929
0.289144
0.295628
0.302488
0.0236902
0.0470852
0.0602226
0.0697143
0.0774628
0.0841948
0.0902706
0.0958985
0.101212
0.106301
0.111232
0.116056
0.120811
0.125531
0.130242
0.134969
0.139733
0.144552
0.149442
0.154419
0.159492
0.164673
0.169967
0.175378
0.180906
0.186547
0.192295
0.19814
0.204068
0.210064
0.216109
0.222183
0.228264
0.234337
0.240387
0.246405
0.252387
0.258341
0.264282
0.270239
0.276258
0.282398
0.28874
0.295379
0.302431
0.0237678
0.0470855
0.0600288
0.069327
0.0768944
0.083457
0.0893739
0.0948532
0.100028
0.104989
0.109802
0.114517
0.119174
0.123806
0.12844
0.1331
0.137807
0.142579
0.147433
0.152382
0.157438
0.16261
0.167905
0.173326
0.178872
0.184541
0.190325
0.196213
0.202193
0.208248
0.214358
0.220503
0.22666
0.232811
0.238939
0.245037
0.251099
0.257132
0.263155
0.269199
0.275313
0.281563
0.288037
0.294842
0.302103
0.023816
0.0470407
0.0597827
0.0688919
0.0762846
0.0826835
0.0884459
0.0937789
0.0988153
0.103647
0.108338
0.112939
0.117491
0.122026
0.126573
0.131154
0.135792
0.140504
0.145307
0.150215
0.155239
0.160388
0.16567
0.171086
0.176637
0.18232
0.188127
0.194048
0.200068
0.206171
0.212337
0.218546
0.224772
0.230996
0.2372
0.243375
0.249517
0.255632
0.26174
0.267876
0.274092
0.280463
0.287083
0.294071
0.301566
0.0238516
0.0469252
0.0594739
0.068408
0.0756371
0.0818809
0.0874953
0.0926866
0.0975869
0.102287
0.106854
0.111337
0.115778
0.120209
0.124661
0.129153
0.13371
0.13835
0.143089
0.147942
0.152919
0.158031
0.163284
0.168681
0.174222
0.179905
0.185722
0.191662
0.197711
0.203851
0.210064
0.216327
0.222616
0.228908
0.235186
0.241439
0.247662
0.253864
0.260065
0.266303
0.272636
0.279144
0.285933
0.293131
0.300895
0.0238438
0.046733
0.0591065
0.0678781
0.0749542
0.081052
0.0865259
0.0915811
0.0963493
0.100921
0.105364
0.109728
0.114054
0.118376
0.122722
0.127117
0.131583
0.136139
0.140803
0.145587
0.150504
0.155564
0.160774
0.166137
0.171654
0.177322
0.183134
0.189079
0.195144
0.201311
0.207559
0.213868
0.220213
0.22657
0.23292
0.239252
0.245562
0.251859
0.258164
0.264521
0.270991
0.277663
0.28465
0.292098
0.300179
0.0237784
0.0464777
0.0586854
0.0673052
0.0742386
0.0801997
0.085541
0.0904667
0.095108
0.0995557
0.103876
0.108121
0.112331
0.116541
0.120778
0.125069
0.129436
0.133898
0.138473
0.143176
0.148019
0.153014
0.158167
0.163481
0.168959
0.174598
0.180391
0.186329
0.192397
0.198578
0.204852
0.211198
0.217592
0.22401
0.230432
0.236846
0.24325
0.249654
0.256081
0.262579
0.269214
0.276083
0.283312
0.291059
0.299517
0.0236626
0.0461671
0.0582154
0.0666928
0.073493
0.0793264
0.0845433
0.0893468
0.0938673
0.0981952
0.102397
0.106525
0.110619
0.114715
0.118841
0.123024
0.127286
0.131648
0.136127
0.140738
0.145497
0.150412
0.155493
0.160745
0.16617
0.171767
0.177527
0.183443
0.189502
0.195686
0.201976
0.208351
0.214788
0.221264
0.227759
0.234262
0.240771
0.247297
0.253868
0.260535
0.267371
0.274481
0.282004
0.290114
0.299024
0.0235038
0.0458073
0.0577009
0.0660439
0.0727198
0.0784343
0.0835352
0.088224
0.0926302
0.096844
0.100932
0.104945
0.108926
0.112908
0.116923
0.120995
0.125149
0.129406
0.133782
0.138296
0.142961
0.147789
0.152789
0.157966
0.163324
0.168863
0.174577
0.180458
0.186496
0.192674
0.19897
0.205367
0.211844
0.218378
0.224949
0.231548
0.238174
0.244843
0.251586
0.258457
0.265538
0.272944
0.280825
0.289374
0.2988
0.0233084
0.0454036
0.057146
0.0653618
0.0719215
0.0775254
0.0825184
0.0871001
0.0913991
0.0955048
0.0994836
0.103387
0.107257
0.111128
0.115032
0.118994
0.123038
0.127186
0.131457
0.135869
0.140435
0.145168
0.150078
0.155173
0.160456
0.165927
0.171585
0.177421
0.183425
0.189584
0.195879
0.202293
0.208808
0.2154
0.222053
0.228759
0.235521
0.242358
0.249305
0.256422
0.263801
0.271566
0.279881
0.288935
0.298961
0.0230818
0.0449607
0.056555
0.0646497
0.0711007
0.0766019
0.0814947
0.0859768
0.0901756
0.0941798
0.0980554
0.101854
0.105617
0.109381
0.113175
0.117028
0.120963
0.125002
0.129166
0.133472
)
;

boundaryField
{
    leftWall
    {
        type            kqRWallFunction;
        value           nonuniform List<scalar> 
44
(
0.00285834
0.00468814
0.00577745
0.00637649
0.00691603
0.00745676
0.00792023
0.00826393
0.00856447
0.00919011
0.0110514
0.014696
0.0188486
0.0222906
0.0231922
0.0232471
0.0230942
0.0228186
0.0225275
0.022286
0.0221115
0.0219524
0.0218327
0.0217764
0.0217965
0.0218934
0.0220569
0.0222701
0.0225127
0.0227647
0.0230087
0.0232311
0.0234219
0.0235756
0.0236902
0.0237678
0.023816
0.0238516
0.0238438
0.0237784
0.0236626
0.0235038
0.0233084
0.0230818
)
;
    }
    rightWall
    {
        type            kqRWallFunction;
        value           nonuniform 0();
    }
    lowerWall
    {
        type            kqRWallFunction;
        value           nonuniform List<scalar> 
44
(
0.00285834
0.00520254
0.00765881
0.0101229
0.0123415
0.0142426
0.0158922
0.0173955
0.0188321
0.0201408
0.0213454
0.022455
0.0234785
0.0244245
0.0253009
0.0261149
0.0268729
0.0275804
0.0282419
0.0288607
0.0294389
0.029977
0.0304743
0.030928
0.0313331
0.0316818
0.0319617
0.0321651
0.0323312
0.0324107
0.0323753
0.0322026
0.0318699
0.0313538
0.0306321
0.0296863
0.0285051
0.027086
0.0254324
0.0235405
0.0218167
0.0204038
0.0191599
0.0177425
)
;
    }
    atmosphere
    {
        type            inletOutlet;
        inletValue      nonuniform 0();
        value           nonuniform 0();
    }
    defaultFaces
    {
        type            empty;
    }
    procBoundary0to1
    {
        type            processor;
        value           nonuniform List<scalar> 
44
(
0.0158092
0.0322791
0.0460475
0.0591617
0.0705381
0.0809446
0.0906031
0.0997534
0.109372
0.120572
0.133478
0.147207
0.160905
0.174266
0.187287
0.199985
0.212335
0.224254
0.235602
0.246209
0.246209
0.258052
0.267707
0.27639
0.284188
0.289883
0.294321
0.297957
0.301007
0.303565
0.305658
0.307302
0.308525
0.309359
0.309843
0.310025
0.309963
0.309727
0.309403
0.309092
0.308909
0.308952
0.309345
0.310222
)
;
    }
    procBoundary0to2
    {
        type            processor;
        value           nonuniform List<scalar> 
46
(
0.137935
0.142569
0.147385
0.152391
0.157592
0.162991
0.168585
0.174369
0.180334
0.186468
0.192757
0.199184
0.205732
0.212384
0.219127
0.225955
0.232875
0.239909
0.2471
0.254515
0.262252
0.270443
0.279261
0.288912
0.29964
0.0228289
0.0444837
0.0559322
0.0639113
0.0702601
0.0756657
0.0804657
0.0848555
0.0889611
0.0928704
0.0966489
0.100348
0.10401
0.10767
0.111359
0.115105
0.118932
0.122864
0.12692
0.137935
0.13112
)
;
    }
}


// ************************************************************************* //
