/*--------------------------------*- C++ -*----------------------------------*\
| =========                 |                                                 |
| \\      /  F ield         | OpenFOAM: The Open Source CFD Toolbox           |
|  \\    /   O peration     | Version:  5.0                                   |
|   \\  /    A nd           | Web:      www.OpenFOAM.org                      |
|    \\/     M anipulation  |                                                 |
\*---------------------------------------------------------------------------*/
FoamFile
{
    version     2.0;
    format      ascii;
    class       volScalarField;
    location    "0.6";
    object      nut;
}
// * * * * * * * * * * * * * * * * * * * * * * * * * * * * * * * * * * * * * //

dimensions      [0 2 -1 0 0 0 0];

internalField   nonuniform List<scalar> 
1935
(
3.27761e-05
3.88329e-05
4.70965e-05
5.41201e-05
5.97489e-05
6.41767e-05
6.77883e-05
7.0903e-05
7.37685e-05
7.62845e-05
7.85293e-05
8.05411e-05
8.23523e-05
8.39905e-05
8.54788e-05
8.6837e-05
8.80815e-05
8.92262e-05
9.02821e-05
9.12578e-05
9.21595e-05
9.29906e-05
9.37518e-05
9.44409e-05
9.50523e-05
9.55755e-05
9.59938e-05
9.6302e-05
9.65501e-05
9.66669e-05
9.66112e-05
9.63493e-05
9.58456e-05
9.50605e-05
9.39531e-05
9.24831e-05
9.06151e-05
8.83205e-05
8.55667e-05
8.23305e-05
7.92604e-05
7.66658e-05
7.42715e-05
7.14435e-05
4.87668e-05
0.00021097
0.000334157
0.000431685
0.000504111
0.000564261
0.000616139
0.000659475
0.000696365
0.000728455
0.000756448
0.000780926
0.000802371
0.000821198
0.000837767
0.000852392
0.000865348
0.000876873
0.000887171
0.000896412
0.000904731
0.00091223
0.00091897
0.000924977
0.000930232
0.00093466
0.00093808
0.000939771
0.000937391
0.000931657
0.000922541
0.000909841
0.000893227
0.000872405
0.000847255
0.000817944
0.000784979
0.000749111
0.000711005
0.000669006
0.000621094
0.00058899
0.000570894
0.000500025
5.4141e-05
0.000355382
0.000585686
0.00076503
0.000915442
0.00104576
0.00116122
0.00126369
0.00135462
0.00143539
0.00150702
0.00157042
0.00162644
0.00167588
0.00171948
0.0017579
0.00179179
0.00182168
0.00184809
0.00187145
0.00189211
0.00191034
0.00192632
0.00194013
0.00195172
0.00196089
0.00196715
0.00196939
0.00196491
0.0019533
0.00193394
0.00190607
0.00186877
0.00182115
0.00176264
0.00169315
0.00161339
0.00152493
0.00143013
0.00133122
0.00123221
0.0011473
0.0010624
0.000892562
5.68717e-05
0.00043942
0.000746929
0.000992888
0.00120994
0.00140619
0.00158464
0.0017466
0.00189309
0.00202516
0.00214382
0.00225008
0.00234499
0.00242958
0.00250482
0.00257165
0.00263095
0.00268353
0.00273014
0.00277143
0.00280795
0.00284011
0.0028682
0.00289234
0.00291244
0.00292816
0.0029388
0.00294299
0.00293814
0.00292301
0.00289633
0.00285669
0.00280265
0.00273286
0.00264632
0.0025427
0.00242271
0.00228838
0.00214313
0.00199138
0.00183826
0.00168711
0.00151242
0.00123729
5.91955e-05
0.000472022
0.000830113
0.0011337
0.00141056
0.001667
0.00190417
0.00212231
0.00232185
0.00250353
0.00266829
0.00281718
0.00295136
0.00307199
0.00318023
0.00327718
0.00336389
0.00344135
0.00351048
0.00357207
0.00362683
0.00367527
0.00371775
0.0037544
0.00378511
0.00380942
0.00382644
0.00383467
0.00383159
0.0038155
0.00378463
0.00373714
0.00367118
0.00358506
0.00347752
0.00334803
0.00319719
0.00302696
0.00284071
0.00264243
0.00243437
0.00221008
0.00193573
0.00153879
6.14246e-05
0.000473545
0.000863445
0.00121377
0.00154298
0.00185358
0.0021443
0.00241408
0.00266273
0.00289068
0.00309882
0.00328825
0.0034602
0.00361596
0.00375677
0.00388386
0.00399838
0.00410145
0.00419407
0.00427716
0.0043515
0.00441766
0.00447605
0.00452679
0.00456972
0.0046043
0.00462953
0.00464379
0.00464461
0.00463005
0.00459804
0.00454645
0.00447316
0.00437628
0.00425433
0.00410657
0.00393325
0.00373574
0.00351626
0.00327646
0.0030138
0.00271376
0.00233715
0.00181482
6.32598e-05
0.000463262
0.000868845
0.00125586
0.00163046
0.00198911
0.00232767
0.00264375
0.00293662
0.00320654
0.00345434
0.00368119
0.00388837
0.00407723
0.0042491
0.00440526
0.00454694
0.00467531
0.00479143
0.00489629
0.00499068
0.00507524
0.00515035
0.00521612
0.00527234
0.00531842
0.00535326
0.0053752
0.00538179
0.00537098
0.00534053
0.00528815
0.0052116
0.00510879
0.00497807
0.00481835
0.00462932
0.00441127
0.00416449
0.0038873
0.00357199
0.00319751
0.00272078
0.00207456
6.45796e-05
0.000447839
0.000860794
0.0012786
0.00169317
0.00209394
0.00247412
0.00283045
0.00316194
0.00346881
0.00375188
0.00401235
0.00425153
0.0044708
0.00467151
0.00485497
0.00502243
0.00517509
0.00531403
0.00544023
0.0055545
0.00565748
0.00574952
0.00583071
0.0059008
0.00595913
0.00600457
0.0060354
0.00604925
0.00604401
0.00601738
0.005967
0.00589054
0.0057858
0.00565087
0.00548426
0.00528483
0.00505151
0.00478228
0.00447198
0.00410811
0.00366446
0.00309411
0.00232812
6.57427e-05
0.00042646
0.000848369
0.0012974
0.00174859
0.0021856
0.0026006
0.00299046
0.00335437
0.00369262
0.00400608
0.00429593
0.00456346
0.00481002
0.00503692
0.00524544
0.00543684
0.00561229
0.00577286
0.0059195
0.006053
0.00617394
0.00628267
0.00637921
0.00646329
0.00653421
0.00659083
0.00663135
0.00665353
0.00665524
0.00663421
0.00658804
0.00651436
0.00641085
0.00627533
0.00610579
0.00590018
0.00565595
0.00536879
0.00503043
0.00462464
0.00412143
0.00346997
0.00259387
6.82498e-05
0.000399117
0.000842001
0.00132757
0.00181233
0.00227884
0.00272106
0.00313711
0.00352676
0.00389049
0.00422918
0.00454393
0.00483592
0.00510638
0.00535656
0.00558765
0.00580085
0.00599729
0.006178
0.00634384
0.00649555
0.00663366
0.00675846
0.00686994
0.00696777
0.00705127
0.0071193
0.00716992
0.00720111
0.00721076
0.00719662
0.00715632
0.00708747
0.00698762
0.00685431
0.00668498
0.00647667
0.00622539
0.0059249
0.0055646
0.00512603
0.00457779
0.00386785
0.00291133
7.51585e-05
0.000375674
0.000860596
0.0013867
0.00189884
0.00238627
0.00284727
0.00328185
0.0036905
0.00407386
0.00443272
0.004768
0.00508068
0.0053718
0.00564243
0.00589365
0.00612653
0.00634218
0.00654151
0.00672527
0.00689411
0.0070485
0.00718866
0.00731453
0.00742577
0.00752166
0.00760108
0.00766205
0.0077027
0.00772097
0.00771466
0.00768149
0.00761903
0.00752472
0.00739582
0.00722924
0.00702118
0.00676645
0.00645735
0.00608188
0.00562119
0.00504604
0.0043125
0.0033587
8.69205e-05
0.000391739
0.000936315
0.00149365
0.00202016
0.0025173
0.00298767
0.00343279
0.00385362
0.0042508
0.00462485
0.00497637
0.00530602
0.00561456
0.00590283
0.0061717
0.00642209
0.00665506
0.00687142
0.00707172
0.00725648
0.0074261
0.00758075
0.0077203
0.00784439
0.00795231
0.00804291
0.00811425
0.00816454
0.00819183
0.00819399
0.00816881
0.00811389
0.00802656
0.00790382
0.00774215
0.00753702
0.00728236
0.00696952
0.00658607
0.0061142
0.00552927
0.00479962
0.00389157
9.79135e-05
0.000506451
0.00109364
0.0016561
0.00218015
0.00267499
0.00314528
0.00359319
0.00401971
0.00442518
0.00480972
0.00517341
0.00551646
0.00583928
0.00614241
0.00642647
0.00669221
0.0069406
0.00717228
0.00738756
0.00758684
0.00777045
0.00793848
0.00809076
0.00822698
0.00834633
0.00844768
0.00852915
0.00858904
0.00862547
0.00863643
0.00861981
0.00857323
0.00849394
0.00837877
0.00822385
0.00802415
0.00777299
0.00746131
0.0070769
0.00660372
0.00602219
0.00531164
0.00445881
0.000106153
0.000686254
0.00130571
0.00185664
0.00236893
0.00285421
0.00331806
0.00376306
0.00419011
0.00459923
0.00499005
0.00536218
0.00571536
0.00604957
0.00636503
0.0066621
0.00694133
0.00720342
0.00744881
0.00767754
0.00788991
0.00808619
0.00826646
0.00843061
0.00857818
0.00870831
0.00881986
0.00891106
0.00898034
0.00902589
0.00904576
0.00903802
0.00900032
0.00892986
0.00882341
0.00867683
0.00848485
0.00824046
0.00793458
0.00755558
0.00708934
0.00652042
0.0058355
0.00503153
0.000108066
0.000770705
0.00144695
0.00201988
0.00253815
0.00302377
0.00348649
0.00393093
0.00435894
0.00477088
0.00516643
0.00554501
0.00590617
0.0062496
0.00657526
0.00688329
0.00717397
0.00744778
0.00770488
0.00794541
0.00816948
0.00837723
0.0085687
0.00874373
0.00890173
0.00904193
0.00916314
0.00926375
0.00934215
0.00939667
0.00942548
0.00942678
0.00939832
0.00933727
0.00924045
0.00910364
0.00892144
0.00868684
0.00839099
0.00802302
0.0075705
0.00702085
0.00636466
0.0056019
0.00010821
0.000820387
0.00154124
0.00214348
0.0026779
0.0031728
0.00364134
0.00409003
0.00452189
0.00493802
0.0053385
0.00572297
0.00609099
0.00644222
0.00677648
0.00709374
0.00739409
0.00767766
0.00794465
0.00819525
0.00842946
0.00864727
0.00884856
0.00903312
0.00920047
0.00934996
0.00948027
0.00958995
0.00967734
0.00974078
0.00977856
0.00978907
0.00977011
0.00971889
0.0096325
0.00950664
0.00933607
0.00911396
0.00883188
0.00847982
0.00804671
0.00752182
0.0068974
0.00617294
0.000107874
0.000850894
0.00160409
0.00223302
0.00278807
0.00329837
0.00377852
0.00423621
0.00467541
0.00509799
0.00550461
0.00589532
0.00626993
0.00662821
0.00696999
0.00729519
0.00760378
0.00789578
0.00817132
0.00843055
0.00867341
0.00889978
0.00910941
0.00930199
0.00947721
0.00963452
0.00977273
0.00989072
0.00998699
0.0100596
0.0101069
0.0101272
0.0101181
0.0100771
0.0100018
0.00988792
0.0097306
0.00952326
0.00925816
0.00892614
0.00851731
0.00802215
0.00743353
0.00674953
0.000107251
0.000869109
0.00164235
0.002295
0.00287271
0.00340232
0.00389832
0.00436886
0.00481854
0.00524987
0.00566412
0.00606183
0.00644317
0.00680816
0.00715676
0.00748894
0.00780468
0.00810399
0.00838693
0.00865358
0.00890384
0.0091375
0.00935424
0.00955373
0.00973562
0.0098994
0.0100441
0.0101689
0.0102725
0.0103535
0.0104101
0.010441
0.0104432
0.0104136
0.0103502
0.0102491
0.0101064
0.00991568
0.00967019
0.00936158
0.00898108
0.00852016
0.00797206
0.00733368
0.00010659
0.000878279
0.00166159
0.00233613
0.00293737
0.00348861
0.0040033
0.00448947
0.00495205
0.00539405
0.00581727
0.00622276
0.00661111
0.00698266
0.00733761
0.00767606
0.00799809
0.00830373
0.00859305
0.00886606
0.00912262
0.00936247
0.00958528
0.00979067
0.00997827
0.0101476
0.0102979
0.0104285
0.0105384
0.0106264
0.010691
0.0107309
0.0107438
0.010727
0.0106773
0.0105909
0.0104641
0.0102915
0.0100677
0.00978509
0.00943608
0.00901318
0.0085101
0.00792324
0.000106051
0.000877347
0.00166818
0.00236309
0.00298798
0.00356203
0.00409706
0.00460064
0.00507775
0.00553175
0.00596492
0.00637878
0.00677437
0.00715238
0.00751328
0.00785741
0.00818497
0.00849609
0.00879085
0.00906924
0.00933111
0.00957619
0.00980413
0.0100145
0.010207
0.0103811
0.0105363
0.0106719
0.0107873
0.0108815
0.0109531
0.011001
0.0110233
0.0110178
0.0109816
0.0109111
0.0108025
0.0106502
0.01045
0.010195
0.00987964
0.00949751
0.00904292
0.00851255
0.00010565
0.000868912
0.00166745
0.00238192
0.00303021
0.00362742
0.00418352
0.00470537
0.00519788
0.00566464
0.00610831
0.00653085
0.00693372
0.007318
0.00768447
0.00803371
0.00836609
0.00868188
0.00898121
0.00926408
0.00953035
0.00977976
0.010012
0.0102266
0.0104233
0.0106014
0.0107608
0.010901
0.0110212
0.0111207
0.0111986
0.0112537
0.0112846
0.0112894
0.0112656
0.0112102
0.0111195
0.0109888
0.0108141
0.0105889
0.0103088
0.00996878
0.00956466
0.00909383
0.00855592
0.000105283
0.000858571
0.00166433
0.00239775
0.00306896
0.00368912
0.00426632
0.00480661
0.00531475
0.00579447
0.00624876
0.00667998
0.00709
0.00748024
0.00785182
0.00820557
0.00854208
0.00886175
0.00916479
0.00945126
0.00972106
0.00997395
0.0102096
0.0104277
0.0106279
0.0108096
0.0109726
0.0111166
0.0112411
0.0113455
0.011429
0.0114908
0.0115296
0.0115439
0.0115317
0.0114903
0.0114168
0.0113072
0.0111575
0.0109628
0.0107193
0.0104225
0.0100692
0.00965877
0.00919112
0.00010501
0.000848773
0.00166232
0.00241447
0.00310806
0.0037506
0.00434842
0.00490681
0.00543031
0.00592278
0.00638748
0.00682713
0.00724393
0.0076397
0.00801586
0.00837348
0.00871339
0.00903614
0.00934205
0.00963127
0.00990374
0.0101593
0.0103976
0.0106184
0.0108214
0.0110061
0.0111721
0.0113195
0.0114477
0.0115565
0.0116451
0.0117129
0.011759
0.0117822
0.0117808
0.0117527
0.0116954
0.0116057
0.0114803
0.0113151
0.0111072
0.0108528
0.0105503
0.0101993
0.00980076
0.00010489
0.000840831
0.00166367
0.00243471
0.00315015
0.0038143
0.00443196
0.00500776
0.00554603
0.00605073
0.00652536
0.00697295
0.00739606
0.00779681
0.00817693
0.00853776
0.00888032
0.00920534
0.00951328
0.00980438
0.0100787
0.010336
0.0105762
0.010799
0.0110041
0.011191
0.0113596
0.0115097
0.0116413
0.0117538
0.011847
0.0119204
0.0119732
0.0120045
0.0120131
0.0119974
0.0119553
0.0118844
0.0117819
0.0116448
0.0114705
0.0112565
0.0110018
0.0107073
0.0103747
0.00010495
0.000835554
0.0016697
0.00246
0.00319674
0.00388162
0.00451816
0.00511046
0.0056627
0.00617893
0.00666286
0.00711779
0.00754661
0.00795173
0.00833515
0.00869847
0.00904293
0.00936942
0.00967855
0.00997067
0.0102459
0.0105042
0.0107455
0.0109694
0.0111759
0.0113644
0.0115349
0.0116873
0.0118214
0.0119373
0.0120345
0.0121127
0.0121716
0.0122104
0.0122283
0.012224
0.012196
0.0121424
0.0120612
0.0119501
0.0118073
0.0116311
0.0114211
0.0111781
0.0109045
0.000105192
0.0008334
0.00168098
0.00249089
0.00324836
0.003953
0.00460739
0.0052152
0.00578052
0.00630748
0.00679998
0.0072616
0.00769548
0.00810432
0.00849037
0.00885548
0.00920107
0.00952824
0.00983772
0.01013
0.0104053
0.0106637
0.0109052
0.0111295
0.0113365
0.0115259
0.0116977
0.0118515
0.0119878
0.0121062
0.0122068
0.0122893
0.0123535
0.012399
0.0124252
0.0124313
0.0124161
0.0123785
0.0123168
0.0122296
0.0121156
0.0119739
0.0118046
0.0116087
0.0113891
0.00010559
0.000834506
0.00169746
0.00252716
0.0033047
0.00402813
0.00469931
0.00532162
0.00589911
0.00643598
0.00693634
0.00740397
0.00784226
0.00825417
0.00864219
0.00900838
0.00935438
0.00968143
0.00999045
0.010282
0.0105566
0.0108142
0.0110549
0.0112787
0.0114855
0.011675
0.0118472
0.0120019
0.0121394
0.0122598
0.012363
0.012449
0.0125178
0.0125691
0.0126027
0.0126179
0.0126143
0.0125909
0.0125468
0.0124811
0.0123931
0.0122824
0.0121496
0.011996
0.0118245
0.000106101
0.000838711
0.00171858
0.00256802
0.00336489
0.00410609
0.00479303
0.00542887
0.00601765
0.00656366
0.00707117
0.00754416
0.00798625
0.00840062
0.00878998
0.00915659
0.00950228
0.00982847
0.0101362
0.0104263
0.0106991
0.0109551
0.0111942
0.0114166
0.0116221
0.0118108
0.0119826
0.0121374
0.0122754
0.0123969
0.0125019
0.0125906
0.0126631
0.0127192
0.012759
0.0127823
0.0127887
0.0127778
0.0127492
0.0127025
0.0126375
0.0125543
0.0124537
0.0123373
0.012208
0.000106676
0.000845611
0.00174344
0.00261228
0.00342761
0.00418559
0.00488729
0.00553575
0.00613501
0.00668944
0.00720344
0.0076812
0.00812652
0.00854278
0.00893289
0.00929931
0.00964403
0.00996865
0.0102744
0.0105621
0.0108324
0.0110858
0.0113223
0.0115423
0.0117457
0.0119326
0.0121031
0.0122571
0.0123947
0.0125164
0.0126223
0.0127128
0.0127879
0.0128478
0.0128928
0.0129227
0.0129376
0.0129375
0.0129223
0.012892
0.0128468
0.0127874
0.0127148
0.0126307
0.0125379
0.000107269
0.000854648
0.00177091
0.00265856
0.0034914
0.00426514
0.00498064
0.00564087
0.00624985
0.00681205
0.00733198
0.00781397
0.00826202
0.00867966
0.00907001
0.00943567
0.00977881
0.0101012
0.0104041
0.0106887
0.0109556
0.0112055
0.0114386
0.0116552
0.0118555
0.0120396
0.0122076
0.0123597
0.0124961
0.012617
0.0127228
0.012814
0.0128907
0.0129534
0.0130022
0.0130374
0.0130593
0.0130682
0.0130642
0.0130478
0.0130195
0.0129804
0.0129316
0.012875
0.0128135
0.000107839
0.000865189
0.00179983
0.00270542
0.00355472
0.0043432
0.00507157
0.00574277
0.0063608
0.00693018
0.00745552
0.00794129
0.00839162
0.00881021
0.00920031
0.00956471
0.00990571
0.0102252
0.0105247
0.0108054
0.0110681
0.0113136
0.0115422
0.0117545
0.0119506
0.0121308
0.0122954
0.0124445
0.0125785
0.0126976
0.0128023
0.0128931
0.0129703
0.0130345
0.0130859
0.0131251
0.0131524
0.0131684
0.0131736
0.0131687
0.0131545
0.0131323
0.0131035
0.0130701
0.0130349
0.000108355
0.000876606
0.00182905
0.0027515
0.00361613
0.0044183
0.00515865
0.00584005
0.00646649
0.00704252
0.00757283
0.00806197
0.0085142
0.00893336
0.00932282
0.00968551
0.0100239
0.0103399
0.0106353
0.0109114
0.0111691
0.0114093
0.0116326
0.0118395
0.0120304
0.0122057
0.0123656
0.0125107
0.0126411
0.0127573
0.0128597
0.012949
0.0130256
0.01309
0.0131428
0.0131845
0.0132157
0.0132371
0.0132496
0.0132539
0.0132512
0.0132429
0.0132307
0.0132168
0.0132036
0.000108796
0.000888327
0.00185758
0.00279561
0.00367435
0.00448914
0.00524056
0.00593142
0.00656567
0.00714787
0.00768274
0.00817491
0.00862872
0.00904812
0.00943661
0.0097972
0.0101325
0.0104446
0.0107353
0.0110061
0.0112581
0.0114922
0.0117092
0.0119098
0.0120944
0.0122636
0.0124179
0.0125576
0.0126833
0.0127954
0.0128944
0.012981
0.0130557
0.0131192
0.013172
0.0132149
0.0132486
0.0132739
0.0132917
0.0133033
0.0133098
0.0133128
0.0133143
0.0133165
0.0133219
0.000109149
0.000899872
0.00188459
0.00283673
0.00372828
0.00455459
0.00531618
0.00601576
0.00665724
0.00724515
0.00778422
0.00827911
0.00873424
0.00915362
0.00954085
0.00989904
0.0102309
0.0105386
0.0108242
0.011089
0.0113346
0.0115618
0.0117717
0.011965
0.0121423
0.0123044
0.0124518
0.0125851
0.0127049
0.0128117
0.0129062
0.0129889
0.0130605
0.0131219
0.0131735
0.0132163
0.013251
0.0132787
0.0133004
0.0133174
0.0133311
0.0133433
0.013356
0.0133716
0.0133926
0.000109412
0.000910864
0.00190937
0.00287403
0.00377704
0.00461376
0.0053846
0.00609217
0.0067403
0.00733348
0.0078764
0.00837375
0.00882997
0.00924913
0.00963488
0.00999041
0.0103185
0.0106215
0.0109014
0.0111599
0.0113983
0.011618
0.01182
0.0120051
0.0121742
0.0123282
0.0124676
0.0125934
0.0127061
0.0128065
0.0128952
0.0129729
0.0130403
0.0130983
0.0131476
0.0131891
0.0132237
0.0132524
0.0132765
0.0132974
0.0133167
0.0133363
0.0133583
0.0133852
0.0134197
0.000109591
0.00092099
0.0019313
0.0029068
0.00381993
0.00466595
0.00544512
0.00615993
0.00681414
0.00741216
0.00795862
0.00845818
0.00891529
0.00933407
0.00971818
0.0100709
0.010395
0.0106929
0.0109668
0.0112184
0.0114493
0.0116608
0.0118541
0.0120303
0.0121903
0.0123352
0.0124658
0.0125829
0.0126875
0.0127803
0.0128621
0.0129337
0.0129959
0.0130495
0.0130954
0.0131345
0.0131678
0.0131965
0.0132218
0.0132454
0.0132689
0.0132944
0.0133242
0.0133609
0.0134072
0.000109703
0.000929893
0.00194971
0.00293443
0.00385643
0.00471069
0.00549729
0.00621859
0.00687827
0.00748071
0.00803041
0.00853193
0.00898977
0.00940805
0.00979043
0.0101402
0.0104601
0.0107529
0.0110205
0.0112649
0.0114877
0.0116905
0.0118746
0.0120411
0.0121913
0.0123263
0.0124471
0.0125547
0.0126502
0.0127344
0.0128083
0.0128728
0.0129288
0.012977
0.0130185
0.0130542
0.0130853
0.013113
0.0131386
0.0131638
0.0131906
0.013221
0.0132576
0.0133029
0.0133599
0.000109789
0.000935456
0.00196328
0.00295653
0.00388662
0.00474828
0.00554148
0.00626851
0.00693296
0.00753912
0.00809153
0.00859474
0.00905315
0.00947084
0.00985149
0.0101982
0.010514
0.0108013
0.0110625
0.0112995
0.011514
0.0117077
0.011882
0.0120384
0.0121781
0.0123024
0.0124127
0.01251
0.0125954
0.0126702
0.0127354
0.0127919
0.0128407
0.0128828
0.0129191
0.0129507
0.0129788
0.0130047
0.0130299
0.0130561
0.0130854
0.01312
0.0131625
0.0132159
0.0132829
0.000109764
0.000938133
0.00197288
0.00297364
0.00391083
0.00477892
0.00557782
0.00630978
0.00697835
0.00758775
0.00814249
0.00864708
0.00910582
0.00952272
0.0099014
0.0102451
0.0105566
0.0108386
0.0110933
0.0113227
0.0115287
0.011713
0.0118773
0.012023
0.0121518
0.012265
0.012364
0.0124503
0.0125252
0.0125898
0.0126454
0.0126932
0.0127342
0.0127694
0.0127998
0.0128267
0.0128513
0.0128749
0.0128991
0.0129258
0.0129572
0.0129956
0.0130438
0.0131047
0.0131813
0.000109607
0.000939364
0.00197941
0.00298635
0.00392947
0.00480295
0.00560662
0.00634269
0.00701468
0.00762679
0.00818346
0.00868913
0.00914801
0.00956404
0.00994075
0.0102813
0.0105886
0.0108652
0.0111134
0.0113352
0.0115326
0.0117074
0.0118614
0.0119963
0.0121138
0.0122154
0.0123029
0.0123777
0.0124413
0.0124953
0.0125408
0.0125793
0.0126119
0.0126397
0.0126638
0.0126855
0.0127061
0.0127271
0.0127501
0.0127771
0.0128104
0.0128524
0.0129061
0.0129744
0.0130605
0.000109335
0.000939589
0.00198342
0.00299515
0.00394299
0.00482079
0.00562826
0.0063676
0.00704233
0.00765659
0.00821477
0.00872123
0.00918009
0.00959517
0.00996994
0.0103075
0.0106107
0.0108819
0.0111236
0.0113379
0.0115267
0.011692
0.0118357
0.0119596
0.0120656
0.0121555
0.0122311
0.0122941
0.0123462
0.0123891
0.0124242
0.012453
0.0124767
0.0124968
0.0125143
0.0125306
0.012547
0.0125653
0.012587
0.0126142
0.0126494
0.0126951
0.0127543
0.0128302
0.0129256
0.000108963
0.000938971
0.00198523
0.00300043
0.0039518
0.00483284
0.00564316
0.00638496
0.00706172
0.00767758
0.00823686
0.00874383
0.00920252
0.00961663
0.00998951
0.0103242
0.0106233
0.0108895
0.0111249
0.0113317
0.0115121
0.0116679
0.0118014
0.0119144
0.0120089
0.012087
0.0121507
0.0122018
0.0122422
0.0122738
0.0122982
0.0123171
0.0123319
0.012344
0.0123548
0.0123656
0.0123778
0.0123933
0.0124138
0.0124414
0.0124787
0.0125283
0.0125933
0.0126767
0.0127816
0.000108507
0.000937594
0.00198506
0.0030025
0.00395627
0.00483952
0.00565178
0.00639523
0.00707336
0.00769028
0.00825026
0.00875749
0.00921588
0.00962901
0.0100001
0.010332
0.0106275
0.0108888
0.0111182
0.0113179
0.0114901
0.0116367
0.0117601
0.0118622
0.0119454
0.0120117
0.0120635
0.0121027
0.0121316
0.012152
0.0121658
0.0121747
0.0121805
0.0121847
0.0121887
0.0121941
0.0122023
0.0122152
0.0122347
0.012263
0.0123027
0.0123565
0.0124274
0.0125188
0.0126334
0.000107976
0.000935517
0.00198308
0.00300162
0.00395673
0.00484123
0.00565457
0.00639891
0.00707777
0.00769524
0.00825556
0.00876281
0.0092208
0.00963297
0.0100024
0.0103319
0.0106239
0.0108807
0.0111046
0.0112976
)
;

boundaryField
{
    leftWall
    {
        type            nutkWallFunction;
        Cmu             0.09;
        kappa           0.41;
        E               9.8;
        value           nonuniform List<scalar> 
44
(
4.59206e-06
5.91078e-06
6.55992e-06
6.88789e-06
7.16885e-06
7.43841e-06
7.6609e-06
7.82124e-06
7.95843e-06
8.23565e-06
9.00532e-06
2.69656e-06
4.52794e-06
5.87628e-06
6.20933e-06
6.22939e-06
6.1735e-06
6.07225e-06
5.96452e-06
5.87455e-06
5.80917e-06
5.74933e-06
5.70414e-06
5.68285e-06
5.69044e-06
5.72706e-06
5.78869e-06
5.86861e-06
5.95901e-06
6.05234e-06
6.14217e-06
6.22352e-06
6.29302e-06
6.34873e-06
6.39013e-06
6.41811e-06
6.43547e-06
6.44828e-06
6.44545e-06
6.42194e-06
6.38018e-06
6.32272e-06
6.25172e-06
6.16895e-06
)
;
    }
    rightWall
    {
        type            nutkWallFunction;
        Cmu             0.09;
        kappa           0.41;
        E               9.8;
        value           nonuniform 0();
    }
    lowerWall
    {
        type            nutkWallFunction;
        Cmu             0.09;
        kappa           0.41;
        E               9.8;
        value           nonuniform List<scalar> 
44
(
3.40929e-06
4.68801e-06
5.71146e-06
6.5658e-06
7.23992e-06
7.76542e-06
8.19049e-06
8.55694e-06
8.89098e-06
9.18313e-06
9.44285e-06
9.67496e-06
9.88348e-06
1.00717e-05
1.02426e-05
1.03983e-05
1.0541e-05
1.06721e-05
1.0793e-05
1.09047e-05
1.10079e-05
1.11029e-05
1.11899e-05
1.12685e-05
1.13382e-05
1.13978e-05
1.14454e-05
1.14798e-05
1.15078e-05
1.15212e-05
1.15153e-05
1.14862e-05
1.14298e-05
1.13418e-05
1.12173e-05
1.10517e-05
1.08407e-05
1.05807e-05
1.02679e-05
9.89597e-06
9.54248e-06
9.24061e-06
8.96519e-06
8.63899e-06
)
;
    }
    atmosphere
    {
        type            calculated;
        value           nonuniform 0();
    }
    defaultFaces
    {
        type            empty;
    }
    procBoundary0to1
    {
        type            processor;
        value           nonuniform List<scalar> 
44
(
6.73533e-05
0.000331754
0.000553774
0.000766936
0.000925821
0.0010613
0.00118327
0.00129618
0.00141526
0.00159243
0.00212404
0.00279494
0.00348103
0.0041318
0.0047513
0.00536039
0.00597647
0.00660764
0.00725319
0.00790615
0.00790615
0.00795489
0.00867045
0.00936013
0.0100107
0.0106089
0.0111525
0.0116403
0.0120702
0.0124403
0.0127503
0.013001
0.0131943
0.0133333
0.0134219
0.0134645
0.0134659
0.0134314
0.0133664
0.0132764
0.0131669
0.0130433
0.0129109
0.0127741
)
;
    }
    procBoundary0to2
    {
        type            processor;
        value           nonuniform List<scalar> 
46
(
0.0114619
0.0115998
0.0117133
0.011805
0.011877
0.0119318
0.0119718
0.0119993
0.0120166
0.0120259
0.0120292
0.0120285
0.0120255
0.012022
0.0120195
0.0120197
0.0120242
0.0120349
0.0120537
0.0120831
0.0121255
0.0121839
0.0122614
0.0123611
0.0124857
0.000107381
0.000932787
0.00197942
0.00299802
0.00395349
0.00483835
0.00565195
0.00639649
0.00707549
0.00769304
0.00825334
0.00876041
0.00921792
0.00962919
0.00999716
0.0103244
0.0106134
0.0108662
0.0110849
0.0114619
0.0112718
)
;
    }
}


// ************************************************************************* //
