/*--------------------------------*- C++ -*----------------------------------*\
| =========                 |                                                 |
| \\      /  F ield         | OpenFOAM: The Open Source CFD Toolbox           |
|  \\    /   O peration     | Version:  5.0                                   |
|   \\  /    A nd           | Web:      www.OpenFOAM.org                      |
|    \\/     M anipulation  |                                                 |
\*---------------------------------------------------------------------------*/
FoamFile
{
    version     2.0;
    format      ascii;
    class       surfaceScalarField;
    location    "0.6";
    object      phi;
}
// * * * * * * * * * * * * * * * * * * * * * * * * * * * * * * * * * * * * * //

dimensions      [0 3 -1 0 0 0 0];

internalField   nonuniform List<scalar> 
3781
(
-2.56057e-06
2.56057e-06
-4.47878e-06
1.91821e-06
-5.01315e-06
5.34367e-07
-4.5323e-06
-4.80848e-07
-3.53017e-06
-1.00213e-06
-2.27644e-06
-1.25373e-06
-9.19486e-07
-1.35696e-06
4.59576e-07
-1.37906e-06
1.81848e-06
-1.35891e-06
3.1324e-06
-1.31392e-06
4.38642e-06
-1.25402e-06
5.57138e-06
-1.18496e-06
6.68161e-06
-1.11024e-06
7.71395e-06
-1.03234e-06
8.66705e-06
-9.53096e-07
9.54092e-06
-8.73874e-07
1.03366e-05
-7.95694e-07
1.10559e-05
-7.19302e-07
1.17011e-05
-6.45188e-07
1.22747e-05
-5.73555e-07
1.27789e-05
-5.04277e-07
1.32158e-05
-4.36855e-07
1.35862e-05
-3.7037e-07
1.38896e-05
-3.03424e-07
1.41236e-05
-2.33992e-07
1.42825e-05
-1.58938e-07
1.4356e-05
-7.35222e-08
1.43236e-05
3.24268e-08
1.41597e-05
1.63906e-07
1.38461e-05
3.13557e-07
1.33563e-05
4.89837e-07
1.26601e-05
6.96166e-07
1.1723e-05
9.3711e-07
1.05082e-05
1.21479e-06
8.98164e-06
1.5266e-06
7.1184e-06
1.86324e-06
4.9113e-06
2.20709e-06
2.37708e-06
2.53422e-06
-4.35053e-07
2.81214e-06
-3.5428e-06
3.10775e-06
-7.00762e-06
3.46481e-06
-1.00951e-05
3.08744e-06
-1.15864e-05
1.49139e-06
-1.11394e-06
-2.18586e-06
4.74643e-06
-2.76914e-06
2.50149e-06
-2.5653e-06
3.30531e-07
-1.9276e-06
-1.11855e-06
-1.00239e-06
-1.92735e-06
8.72731e-08
-2.34339e-06
1.25901e-06
-2.52869e-06
2.46119e-06
-2.58124e-06
3.65748e-06
-2.5552e-06
4.8254e-06
-2.48184e-06
5.95031e-06
-2.37893e-06
7.02228e-06
-2.25693e-06
8.03467e-06
-2.12263e-06
8.98315e-06
-1.98082e-06
9.86505e-06
-1.835e-06
1.06789e-05
-1.68775e-06
1.14242e-05
-1.54101e-06
1.21011e-05
-1.39621e-06
1.27103e-05
-1.2543e-06
1.32524e-05
-1.11572e-06
1.37284e-05
-9.8028e-07
1.41387e-05
-8.47101e-07
1.44828e-05
-7.14534e-07
1.47595e-05
-5.80122e-07
1.4966e-05
-4.40486e-07
1.50981e-05
-2.90967e-07
1.515e-05
-1.25459e-07
1.51172e-05
6.52577e-08
1.49915e-05
2.89524e-07
1.47517e-05
5.53439e-07
1.43773e-05
8.64168e-07
1.38443e-05
1.22915e-06
1.31256e-05
1.65583e-06
1.21912e-05
2.14926e-06
1.10089e-05
2.7089e-06
9.54723e-06
3.32488e-06
7.78058e-06
3.97374e-06
5.69826e-06
4.61654e-06
3.31711e-06
5.19329e-06
7.56281e-07
5.66858e-06
-1.71403e-06
5.93513e-06
-3.85577e-06
5.22918e-06
-5.35768e-06
2.9933e-06
-4.35326e-07
-1.25504e-06
6.00146e-06
-1.22387e-06
2.47033e-06
-7.57856e-07
-1.35484e-07
-6.74504e-08
-1.80895e-06
7.9057e-07
-2.78537e-06
1.76193e-06
-3.31475e-06
2.79536e-06
-3.56212e-06
3.8535e-06
-3.63939e-06
4.91118e-06
-3.61287e-06
5.95053e-06
-3.5212e-06
6.95865e-06
-3.38705e-06
7.92607e-06
-3.22435e-06
8.84587e-06
-3.04243e-06
9.71305e-06
-2.848e-06
1.0524e-05
-2.64598e-06
1.12763e-05
-2.43999e-06
1.1968e-05
-2.23277e-06
1.25982e-05
-2.02639e-06
1.31662e-05
-1.8223e-06
1.36717e-05
-1.62122e-06
1.41144e-05
-1.42299e-06
1.44938e-05
-1.2265e-06
1.48089e-05
-1.02955e-06
1.50576e-05
-8.289e-07
1.52374e-05
-6.20253e-07
1.53444e-05
-3.97932e-07
1.53735e-05
-1.54591e-07
1.53196e-05
1.19151e-07
1.51754e-05
4.33733e-07
1.49297e-05
7.9911e-07
1.45694e-05
1.22445e-06
1.40801e-05
1.71844e-06
1.3447e-05
2.28894e-06
1.26555e-05
2.94082e-06
1.16917e-05
3.67268e-06
1.05439e-05
4.47263e-06
9.20481e-06
5.31287e-06
7.67763e-06
6.14372e-06
5.98657e-06
6.88436e-06
4.2238e-06
7.43134e-06
2.58428e-06
7.57465e-06
1.06403e-06
6.74943e-06
-4.3045e-07
4.48778e-06
8.04275e-07
-3.09072e-07
6.31054e-06
9.84878e-08
2.06277e-06
7.25603e-07
-7.626e-07
1.46648e-06
-2.54983e-06
2.2923e-06
-3.61119e-06
3.17476e-06
-4.19722e-06
4.09226e-06
-4.47962e-06
5.02587e-06
-4.573e-06
5.96053e-06
-4.54754e-06
6.88386e-06
-4.44453e-06
7.78541e-06
-4.2886e-06
8.65657e-06
-4.0955e-06
9.49041e-06
-3.87628e-06
1.02815e-05
-3.63908e-06
1.10255e-05
-3.38996e-06
1.17189e-05
-3.1334e-06
1.23589e-05
-2.87279e-06
1.29433e-05
-2.61084e-06
1.34706e-05
-2.34952e-06
1.39393e-05
-2.08994e-06
1.43484e-05
-1.83213e-06
1.46968e-05
-1.57487e-06
1.49828e-05
-1.31558e-06
1.52044e-05
-1.0505e-06
1.5359e-05
-7.74785e-07
1.54432e-05
-4.82223e-07
1.54535e-05
-1.64806e-07
1.53851e-05
1.87477e-07
1.52328e-05
5.86103e-07
1.49895e-05
1.04242e-06
1.46474e-05
1.56648e-06
1.41991e-05
2.16677e-06
1.3638e-05
2.85005e-06
1.29595e-05
3.61935e-06
1.21615e-05
4.47063e-06
1.12455e-05
5.38864e-06
1.02172e-05
6.34112e-06
9.08959e-06
7.27137e-06
7.88646e-06
8.08749e-06
6.66417e-06
8.65363e-06
5.50162e-06
8.7372e-06
4.34278e-06
7.90828e-06
3.03628e-06
5.79427e-06
2.2023e-06
6.02139e-07
5.7084e-06
1.26267e-06
1.40224e-06
2.03262e-06
-1.53255e-06
2.82015e-06
-3.33736e-06
3.61718e-06
-4.40822e-06
4.4236e-06
-5.00364e-06
5.23931e-06
-5.29533e-06
6.06134e-06
-5.39503e-06
6.88439e-06
-5.37059e-06
7.70145e-06
-5.26159e-06
8.50467e-06
-5.09182e-06
9.28639e-06
-4.87723e-06
1.00399e-05
-4.62974e-06
1.07593e-05
-4.35852e-06
1.14398e-05
-4.07046e-06
1.2077e-05
-3.77063e-06
1.26672e-05
-3.46296e-06
1.32071e-05
-3.15074e-06
1.36942e-05
-2.83658e-06
1.41263e-05
-2.52211e-06
1.45019e-05
-2.2077e-06
1.48192e-05
-1.89219e-06
1.50764e-05
-1.57278e-06
1.52713e-05
-1.24537e-06
1.54015e-05
-9.04959e-07
1.54645e-05
-5.45296e-07
1.5458e-05
-1.58222e-07
1.53787e-05
2.66706e-07
1.52233e-05
7.41587e-07
1.49874e-05
1.27823e-06
1.46674e-05
1.88647e-06
1.42607e-05
2.57352e-06
1.37665e-05
3.34426e-06
1.31867e-05
4.19917e-06
1.25263e-05
5.13102e-06
1.17938e-05
6.12113e-06
1.10011e-05
7.13383e-06
1.01633e-05
8.10916e-06
9.29819e-06
8.95258e-06
8.42874e-06
9.52308e-06
7.56334e-06
9.60259e-06
6.60984e-06
8.86178e-06
5.42074e-06
6.98336e-06
3.69866e-06
1.28865e-06
4.41974e-06
2.28152e-06
4.09367e-07
3.19512e-06
-2.44614e-06
4.02579e-06
-4.16803e-06
4.79588e-06
-5.17831e-06
5.53214e-06
-5.73989e-06
6.25484e-06
-6.01804e-06
6.97509e-06
-6.11528e-06
7.6963e-06
-6.0918e-06
8.41622e-06
-5.9815e-06
9.1292e-06
-5.8048e-06
9.82844e-06
-5.57646e-06
1.05073e-05
-5.30865e-06
1.116e-05
-5.01118e-06
1.1781e-05
-4.69147e-06
1.23653e-05
-4.35491e-06
1.29081e-05
-4.00576e-06
1.34052e-05
-3.64788e-06
1.38533e-05
-3.28464e-06
1.42496e-05
-2.91841e-06
1.4592e-05
-2.55007e-06
1.48785e-05
-2.17873e-06
1.51072e-05
-1.80144e-06
1.52757e-05
-1.4139e-06
1.5382e-05
-1.01129e-06
1.54246e-05
-5.87934e-07
1.54025e-05
-1.36056e-07
1.53143e-05
3.54934e-07
1.51582e-05
8.97661e-07
1.49324e-05
1.50406e-06
1.46358e-05
2.18303e-06
1.42697e-05
2.93963e-06
1.38374e-05
3.77656e-06
1.33449e-05
4.69169e-06
1.28012e-05
5.67471e-06
1.22181e-05
6.70417e-06
1.16094e-05
7.7426e-06
1.09883e-05
8.73021e-06
1.03644e-05
9.57647e-06
9.7369e-06
1.01506e-05
9.07331e-06
1.02662e-05
8.26264e-06
9.67245e-06
7.13296e-06
8.11304e-06
5.30085e-06
1.77203e-06
2.64771e-06
3.14334e-06
-9.61939e-07
4.22241e-06
-3.52521e-06
5.09377e-06
-5.03939e-06
5.83308e-06
-5.91762e-06
6.50076e-06
-6.40757e-06
7.13677e-06
-6.65405e-06
7.76402e-06
-6.74253e-06
8.393e-06
-6.72078e-06
9.02522e-06
-6.61373e-06
9.65664e-06
-6.43622e-06
1.0281e-05
-6.20084e-06
1.08919e-05
-5.91955e-06
1.14834e-05
-5.60262e-06
1.20496e-05
-5.25768e-06
1.25848e-05
-4.89015e-06
1.30834e-05
-4.50433e-06
1.35402e-05
-4.10466e-06
1.3951e-05
-3.69545e-06
1.43126e-05
-3.28e-06
1.46225e-05
-2.85999e-06
1.48788e-05
-2.43499e-06
1.50793e-05
-2.00199e-06
1.52218e-05
-1.5564e-06
1.53045e-05
-1.09403e-06
1.5327e-05
-6.10385e-07
1.52897e-05
-9.87789e-08
1.51933e-05
4.51306e-07
1.50378e-05
1.05323e-06
1.48227e-05
1.71909e-06
1.45493e-05
2.45645e-06
1.42216e-05
3.26734e-06
1.38459e-05
4.1523e-06
1.34306e-05
5.107e-06
1.29869e-05
6.11839e-06
1.25278e-05
7.16324e-06
1.20665e-05
8.20389e-06
1.16133e-05
9.18346e-06
1.11699e-05
1.00198e-05
1.07207e-05
1.05999e-05
1.02125e-05
1.07744e-05
9.52366e-06
1.03613e-05
8.46207e-06
9.17462e-06
6.98113e-06
2.16077e-06
4.86936e-07
3.91123e-06
-2.71239e-06
5.13975e-06
-4.75373e-06
6.02618e-06
-5.92582e-06
6.72091e-06
-6.61236e-06
7.31889e-06
-7.00555e-06
7.8745e-06
-7.20965e-06
8.4183e-06
-7.28633e-06
8.96571e-06
-7.26818e-06
9.52077e-06
-7.16879e-06
1.00804e-05
-6.99581e-06
1.06385e-05
-6.75894e-06
1.11888e-05
-6.46987e-06
1.17254e-05
-6.13919e-06
1.22422e-05
-5.77454e-06
1.2733e-05
-5.38099e-06
1.31912e-05
-4.96252e-06
1.36107e-05
-4.5241e-06
1.39865e-05
-4.07127e-06
1.4315e-05
-3.60846e-06
1.45935e-05
-3.13851e-06
1.48202e-05
-2.66173e-06
1.49932e-05
-2.175e-06
1.511e-05
-1.67323e-06
1.51692e-05
-1.15315e-06
1.51712e-05
-6.12393e-07
1.51186e-05
-4.61788e-08
1.50141e-05
5.55752e-07
1.48592e-05
1.20812e-06
1.46547e-05
1.92361e-06
1.4403e-05
2.70821e-06
1.41106e-05
3.55968e-06
1.3786e-05
4.4769e-06
1.3439e-05
5.45405e-06
1.30816e-05
6.47573e-06
1.2727e-05
7.51786e-06
1.23869e-05
8.54398e-06
1.20684e-05
9.50198e-06
1.1768e-05
1.03202e-05
1.14622e-05
1.09056e-05
1.10913e-05
1.11454e-05
1.05346e-05
1.09179e-05
9.59142e-06
1.01178e-05
8.63048e-06
2.60932e-06
-2.12239e-06
4.68005e-06
-4.78312e-06
5.96201e-06
-6.0357e-06
6.80506e-06
-6.76886e-06
7.43654e-06
-7.24384e-06
7.96678e-06
-7.53579e-06
8.45195e-06
-7.69482e-06
8.92486e-06
-7.75925e-06
9.40371e-06
-7.74702e-06
9.89409e-06
-7.65918e-06
1.03931e-05
-7.49487e-06
1.08949e-05
-7.26068e-06
1.13931e-05
-6.96813e-06
1.18821e-05
-6.62813e-06
1.23557e-05
-6.24813e-06
1.28072e-05
-5.83252e-06
1.32292e-05
-5.38454e-06
1.36148e-05
-4.90964e-06
1.39583e-05
-4.41478e-06
1.42556e-05
-3.90577e-06
1.4504e-05
-3.38693e-06
1.47021e-05
-2.85982e-06
1.48482e-05
-2.32115e-06
1.49397e-05
-1.76468e-06
1.4975e-05
-1.18843e-06
1.49558e-05
-5.93237e-07
1.48871e-05
2.25676e-08
1.4774e-05
6.68794e-07
1.46194e-05
1.36272e-06
1.44245e-05
2.11856e-06
1.41921e-05
2.94057e-06
1.39318e-05
3.82004e-06
1.36532e-05
4.75549e-06
1.33665e-05
5.74074e-06
1.30843e-05
6.75797e-06
1.28189e-05
7.7832e-06
1.25808e-05
8.78214e-06
1.23742e-05
9.7085e-06
1.21929e-05
1.05016e-05
1.20117e-05
1.10868e-05
1.17746e-05
1.13824e-05
1.13773e-05
1.13153e-05
1.06421e-05
1.0853e-05
1.00401e-05
3.30672e-06
-5.42911e-06
5.46443e-06
-6.94083e-06
6.62442e-06
-7.19569e-06
7.37231e-06
-7.51676e-06
7.9414e-06
-7.81292e-06
8.41836e-06
-8.01275e-06
8.85018e-06
-8.12664e-06
9.26941e-06
-8.17847e-06
9.69622e-06
-8.17384e-06
1.0137e-05
-8.10001e-06
1.0589e-05
-7.94678e-06
1.1046e-05
-7.71777e-06
1.15024e-05
-7.42446e-06
1.19522e-05
-7.07796e-06
1.23894e-05
-6.68528e-06
1.2807e-05
-6.25015e-06
1.31971e-05
-5.77464e-06
1.35522e-05
-5.26471e-06
1.38662e-05
-4.72883e-06
1.41344e-05
-4.17398e-06
1.4354e-05
-3.60652e-06
1.45242e-05
-3.03e-06
1.46441e-05
-2.44102e-06
1.47103e-05
-1.83095e-06
1.47213e-05
-1.1994e-06
1.46799e-05
-5.51827e-07
1.45937e-05
1.08769e-07
1.44712e-05
7.91305e-07
1.43162e-05
1.51768e-06
1.41296e-05
2.30517e-06
1.39138e-05
3.15637e-06
1.36821e-05
4.05178e-06
1.34451e-05
4.99249e-06
1.32121e-05
5.97372e-06
1.29958e-05
6.97421e-06
1.28079e-05
7.97112e-06
1.26572e-05
8.93285e-06
1.25462e-05
9.8195e-06
1.24674e-05
1.05804e-05
1.23979e-05
1.11562e-05
1.22929e-05
1.14874e-05
1.20762e-05
1.1532e-05
1.16263e-05
1.13028e-05
1.09733e-05
4.6825e-06
-1.01116e-05
6.22402e-06
-8.48234e-06
7.13249e-06
-8.10417e-06
7.82971e-06
-8.21397e-06
8.38082e-06
-8.36403e-06
8.83651e-06
-8.46845e-06
9.24252e-06
-8.53265e-06
9.63357e-06
-8.56953e-06
1.00312e-05
-8.57148e-06
1.04424e-05
-8.5112e-06
1.08652e-05
-8.36959e-06
1.12949e-05
-8.14747e-06
1.1726e-05
-7.85559e-06
1.21526e-05
-7.50447e-06
1.25676e-05
-7.10035e-06
1.29638e-05
-6.64634e-06
1.33326e-05
-6.14346e-06
1.36661e-05
-5.59821e-06
1.39585e-05
-5.02121e-06
1.42039e-05
-4.41934e-06
1.43988e-05
-3.80147e-06
1.45434e-05
-3.17459e-06
1.46382e-05
-2.53582e-06
1.46791e-05
-1.87185e-06
1.46642e-05
-1.18445e-06
1.45975e-05
-4.85164e-07
1.44902e-05
2.161e-07
1.43548e-05
9.26657e-07
1.41962e-05
1.67628e-06
1.40136e-05
2.48777e-06
1.38077e-05
3.36225e-06
1.35984e-05
4.26109e-06
1.33966e-05
5.1943e-06
1.32092e-05
6.16117e-06
1.30495e-05
7.1339e-06
1.29282e-05
8.09241e-06
1.28531e-05
9.00792e-06
1.28251e-05
9.84751e-06
1.2836e-05
1.05695e-05
1.28664e-05
1.11258e-05
1.28842e-05
1.14697e-05
1.28469e-05
1.15694e-05
1.2715e-05
1.14346e-05
1.11762e-05
5.86573e-06
-1.59773e-05
6.17967e-06
-8.79629e-06
7.15124e-06
-9.07574e-06
7.96884e-06
-9.03157e-06
8.54625e-06
-8.94145e-06
8.9887e-06
-8.9109e-06
9.37265e-06
-8.91659e-06
9.74004e-06
-8.93693e-06
1.01126e-05
-8.94405e-06
1.04988e-05
-8.89738e-06
1.09002e-05
-8.771e-06
1.13147e-05
-8.56194e-06
1.17367e-05
-8.27763e-06
1.2158e-05
-7.92578e-06
1.25688e-05
-7.51107e-06
1.29552e-05
-7.03279e-06
1.33e-05
-6.48828e-06
1.36083e-05
-5.90644e-06
1.38759e-05
-5.2889e-06
1.40963e-05
-4.63971e-06
1.42649e-05
-3.97002e-06
1.43809e-05
-3.29065e-06
1.44465e-05
-2.60135e-06
1.4458e-05
-1.8834e-06
1.44136e-05
-1.14002e-06
1.43184e-05
-3.89949e-07
1.41876e-05
3.46811e-07
1.4039e-05
1.07531e-06
1.38775e-05
1.83778e-06
1.37002e-05
2.66508e-06
1.35031e-05
3.55937e-06
1.33178e-05
4.44634e-06
1.31534e-05
5.3587e-06
1.30112e-05
6.30337e-06
1.29064e-05
7.23873e-06
1.2848e-05
8.15079e-06
1.28431e-05
9.01287e-06
1.28905e-05
9.8001e-06
1.2981e-05
1.0479e-05
1.30971e-05
1.10096e-05
1.32135e-05
1.13533e-05
1.33042e-05
1.14787e-05
1.33638e-05
1.1375e-05
1.1062e-05
3.55674e-06
-1.95341e-05
5.54013e-06
-1.07797e-05
6.75865e-06
-1.02943e-05
7.75875e-06
-1.00317e-05
8.47232e-06
-9.65502e-06
9.00041e-06
-9.43898e-06
9.43728e-06
-9.35346e-06
9.82637e-06
-9.32602e-06
1.01872e-05
-9.30494e-06
1.0539e-05
-9.24915e-06
1.08989e-05
-9.13087e-06
1.12741e-05
-8.93719e-06
1.16614e-05
-8.66489e-06
1.20511e-05
-8.3155e-06
1.24327e-05
-7.89261e-06
1.27984e-05
-7.39849e-06
1.30966e-05
-6.78653e-06
1.3394e-05
-6.20388e-06
1.36546e-05
-5.54948e-06
1.38731e-05
-4.85816e-06
1.40426e-05
-4.13958e-06
1.41561e-05
-3.40414e-06
1.42046e-05
-2.64987e-06
1.41812e-05
-1.85997e-06
1.4105e-05
-1.06383e-06
1.39786e-05
-2.6354e-07
1.3818e-05
5.07462e-07
1.36509e-05
1.24236e-06
1.34842e-05
2.00451e-06
1.33136e-05
2.83568e-06
1.31194e-05
3.75355e-06
1.29626e-05
4.60316e-06
1.28402e-05
5.48109e-06
1.27428e-05
6.40077e-06
1.26913e-05
7.29023e-06
1.26922e-05
8.1499e-06
1.27521e-05
8.95292e-06
1.28677e-05
9.68451e-06
1.30278e-05
1.03189e-05
1.32144e-05
1.08231e-05
1.34024e-05
1.11653e-05
1.35665e-05
1.13146e-05
1.3695e-05
1.12465e-05
1.09364e-05
-1.84424e-06
-1.76899e-05
8.36503e-07
-1.34605e-05
2.85603e-06
-1.23138e-05
4.52706e-06
-1.17027e-05
5.95029e-06
-1.10782e-05
7.13147e-06
-1.06202e-05
8.11608e-06
-1.03381e-05
8.9509e-06
-1.01608e-05
9.67093e-06
-1.0025e-05
1.03044e-05
-9.88265e-06
1.08741e-05
-9.70051e-06
1.13948e-05
-9.45792e-06
1.1873e-05
-9.14308e-06
1.23071e-05
-8.74959e-06
1.26872e-05
-8.27275e-06
1.29944e-05
-7.7057e-06
1.32146e-05
-7.00675e-06
1.32764e-05
-6.26565e-06
1.34485e-05
-5.72159e-06
1.36338e-05
-5.04344e-06
1.37862e-05
-4.29198e-06
1.38805e-05
-3.49844e-06
1.38768e-05
-2.64624e-06
1.37583e-05
-1.7414e-06
1.36573e-05
-9.62845e-07
1.35242e-05
-1.30467e-07
1.3365e-05
6.66684e-07
1.32043e-05
1.40303e-06
1.30376e-05
2.17124e-06
1.28529e-05
3.0204e-06
1.26511e-05
3.95532e-06
1.25434e-05
4.7109e-06
1.24751e-05
5.54935e-06
1.24224e-05
6.45352e-06
1.24264e-05
7.28622e-06
1.24846e-05
8.09162e-06
1.26057e-05
8.83184e-06
1.27838e-05
9.50646e-06
1.30051e-05
1.00976e-05
1.32507e-05
1.05775e-05
1.34917e-05
1.09242e-05
1.36962e-05
1.11101e-05
1.38332e-05
1.11095e-05
1.08879e-05
-1.66498e-06
-1.60249e-05
-3.40423e-07
-1.4785e-05
1.34551e-06
-1.39997e-05
2.94741e-06
-1.33046e-05
4.4763e-06
-1.26071e-05
5.87791e-06
-1.20218e-05
7.11762e-06
-1.15778e-05
8.19641e-06
-1.12396e-05
9.13069e-06
-1.09593e-05
9.94152e-06
-1.06935e-05
1.06495e-05
-1.04085e-05
1.12713e-05
-1.00797e-05
1.18182e-05
-9.6899e-06
1.22956e-05
-9.22705e-06
1.27055e-05
-8.68263e-06
1.30472e-05
-8.04744e-06
1.33634e-05
-7.32287e-06
1.37034e-05
-6.60567e-06
1.39388e-05
-5.95706e-06
1.41147e-05
-5.21929e-06
1.42086e-05
-4.38586e-06
1.41676e-05
-3.45751e-06
1.39281e-05
-2.40665e-06
1.36251e-05
-1.43842e-06
1.33727e-05
-7.1046e-07
1.31985e-05
4.3735e-08
1.29996e-05
8.65597e-07
1.27206e-05
1.68202e-06
1.24679e-05
2.42396e-06
1.22473e-05
3.24097e-06
1.21011e-05
4.10149e-06
1.20956e-05
4.71644e-06
1.20777e-05
5.56719e-06
1.20768e-05
6.4545e-06
1.21505e-05
7.21245e-06
1.22625e-05
7.97968e-06
1.24412e-05
8.65313e-06
1.26757e-05
9.27194e-06
1.29507e-05
9.82264e-06
1.32474e-05
1.02808e-05
1.3532e-05
1.06396e-05
1.37644e-05
1.08777e-05
1.38945e-05
1.09794e-05
1.09225e-05
-9.88897e-07
-1.5036e-05
-2.86602e-07
-1.54873e-05
9.19908e-07
-1.52062e-05
2.29775e-06
-1.46825e-05
3.73561e-06
-1.4045e-05
5.13862e-06
-1.34248e-05
6.44056e-06
-1.28797e-05
7.61169e-06
-1.24108e-05
8.64665e-06
-1.19942e-05
9.55323e-06
-1.16001e-05
1.03447e-05
-1.12e-05
1.10353e-05
-1.07703e-05
1.1638e-05
-1.02926e-05
1.2164e-05
-9.75313e-06
1.26242e-05
-9.14282e-06
1.3035e-05
-8.45817e-06
1.3429e-05
-7.71694e-06
1.38001e-05
-6.97678e-06
1.40788e-05
-6.23574e-06
1.4277e-05
-5.41743e-06
1.43975e-05
-4.50638e-06
1.44405e-05
-3.50051e-06
1.44461e-05
-2.41227e-06
1.43945e-05
-1.38685e-06
1.41996e-05
-5.15522e-07
1.38531e-05
3.90254e-07
1.32916e-05
1.42704e-06
1.26534e-05
2.32028e-06
1.21514e-05
2.92594e-06
1.18326e-05
3.5597e-06
1.15742e-05
4.35989e-06
1.15818e-05
4.70887e-06
1.16481e-05
5.50095e-06
1.17621e-05
6.34047e-06
1.19048e-05
7.06971e-06
1.20773e-05
7.80722e-06
1.23146e-05
8.41585e-06
1.25935e-05
8.99305e-06
1.29113e-05
9.50481e-06
1.3252e-05
9.94011e-06
1.35761e-05
1.03155e-05
1.38389e-05
1.06148e-05
1.39761e-05
1.08423e-05
1.09965e-05
-6.90624e-07
-1.43454e-05
-1.35518e-07
-1.60424e-05
8.73513e-07
-1.62153e-05
2.08981e-06
-1.58987e-05
3.40536e-06
-1.53605e-05
4.73155e-06
-1.4751e-05
6.00151e-06
-1.41497e-05
7.17549e-06
-1.35847e-05
8.23588e-06
-1.30546e-05
9.17992e-06
-1.25441e-05
1.00134e-05
-1.20335e-05
1.07466e-05
-1.15035e-05
1.13914e-05
-1.09374e-05
1.19607e-05
-1.03225e-05
1.24687e-05
-9.6508e-06
1.29323e-05
-8.92171e-06
1.33641e-05
-8.14883e-06
1.37463e-05
-7.35894e-06
1.40504e-05
-6.53988e-06
1.42842e-05
-5.65122e-06
1.44583e-05
-4.68047e-06
1.45873e-05
-3.62952e-06
1.46969e-05
-2.52186e-06
1.47543e-05
-1.44421e-06
1.46845e-05
-4.45665e-07
1.45024e-05
5.72288e-07
1.42703e-05
1.65912e-06
1.39482e-05
2.64242e-06
1.34455e-05
3.42866e-06
1.27655e-05
4.23961e-06
1.19817e-05
5.14375e-06
1.1327e-05
5.36355e-06
1.12583e-05
5.56968e-06
1.14097e-05
6.18904e-06
1.16935e-05
6.78589e-06
1.19976e-05
7.50316e-06
1.22771e-05
8.13632e-06
1.25982e-05
8.67194e-06
1.29446e-05
9.15849e-06
1.33164e-05
9.56826e-06
1.3675e-05
9.95699e-06
1.39765e-05
1.03133e-05
1.41498e-05
1.0669e-05
1.10423e-05
-3.66067e-07
-1.39793e-05
1.43344e-07
-1.65518e-05
1.03618e-06
-1.71081e-05
2.12959e-06
-1.69922e-05
3.32548e-06
-1.65564e-05
4.54991e-06
-1.59754e-05
5.74567e-06
-1.53455e-05
6.87406e-06
-1.47131e-05
7.91327e-06
-1.40938e-05
8.85456e-06
-1.34854e-05
9.69819e-06
-1.28771e-05
1.04501e-05
-1.22554e-05
1.11196e-05
-1.16069e-05
1.1718e-05
-1.09209e-05
1.22577e-05
-1.01905e-05
1.27506e-05
-9.41457e-06
1.32015e-05
-8.59974e-06
1.35982e-05
-7.75569e-06
1.393e-05
-6.87165e-06
1.42042e-05
-5.92539e-06
1.44324e-05
-4.90874e-06
1.46289e-05
-3.82596e-06
1.48058e-05
-2.69873e-06
1.49405e-05
-1.57894e-06
1.49878e-05
-4.92933e-07
1.49552e-05
6.04882e-07
1.48834e-05
1.7309e-06
1.47325e-05
2.79325e-06
1.44229e-05
3.7383e-06
1.40096e-05
4.65289e-06
1.36043e-05
5.54905e-06
1.29475e-05
6.02037e-06
1.2042e-05
6.47525e-06
1.14657e-05
6.76533e-06
1.15326e-05
6.71898e-06
1.19077e-05
7.12807e-06
1.23367e-05
7.70733e-06
1.27405e-05
8.26807e-06
1.30941e-05
8.8049e-06
1.34949e-05
9.16746e-06
1.3875e-05
9.57691e-06
1.42184e-05
9.96987e-06
1.4454e-05
1.04334e-05
1.09981e-05
-1.0502e-07
-1.38743e-05
4.52158e-07
-1.7109e-05
1.3002e-06
-1.79561e-05
2.30606e-06
-1.7998e-05
3.39676e-06
-1.76471e-05
4.51725e-06
-1.70959e-05
5.6235e-06
-1.64517e-05
6.68298e-06
-1.57726e-05
7.67469e-06
-1.50855e-05
8.5876e-06
-1.43983e-05
9.41847e-06
-1.3708e-05
1.01697e-05
-1.30066e-05
1.08473e-05
-1.22846e-05
1.14599e-05
-1.15334e-05
1.20164e-05
-1.0747e-05
1.25248e-05
-9.92296e-06
1.29877e-05
-9.06272e-06
1.34001e-05
-8.16801e-06
1.37588e-05
-7.23043e-06
1.40709e-05
-6.23745e-06
1.43466e-05
-5.18446e-06
1.45969e-05
-4.07629e-06
1.48281e-05
-2.92989e-06
1.50256e-05
-1.77646e-06
1.51644e-05
-6.31704e-07
1.52474e-05
5.21926e-07
1.52941e-05
1.68417e-06
1.52846e-05
2.80274e-06
1.51806e-05
3.84226e-06
1.50043e-05
4.82922e-06
1.4804e-05
5.74933e-06
1.44067e-05
6.41771e-06
1.3925e-05
6.95696e-06
1.33703e-05
7.31999e-06
1.25927e-05
7.49659e-06
1.20669e-05
7.6539e-06
1.23717e-05
7.40247e-06
1.28707e-05
7.76916e-06
1.33667e-05
8.30885e-06
1.38072e-05
8.72694e-06
1.41957e-05
9.18838e-06
1.45889e-05
9.57677e-06
1.48952e-05
1.0127e-05
1.08271e-05
1.12843e-07
-1.39871e-05
7.56654e-07
-1.77528e-05
1.59777e-06
-1.87973e-05
2.5434e-06
-1.89436e-05
3.54621e-06
-1.86499e-05
4.57052e-06
-1.81202e-05
5.58608e-06
-1.74672e-05
6.56853e-06
-1.6755e-05
7.50027e-06
-1.60173e-05
8.37039e-06
-1.52684e-05
9.17396e-06
-1.45116e-05
9.91075e-06
-1.37434e-05
1.0584e-05
-1.29578e-05
1.11991e-05
-1.21485e-05
1.17623e-05
-1.13102e-05
1.22788e-05
-1.04395e-05
1.27511e-05
-9.53505e-06
1.31782e-05
-8.59509e-06
1.3561e-05
-7.61326e-06
1.39058e-05
-6.58226e-06
1.42212e-05
-5.49983e-06
1.45153e-05
-4.37041e-06
1.47918e-05
-3.2064e-06
1.50425e-05
-2.02707e-06
1.52544e-05
-8.43623e-07
1.54294e-05
3.46938e-07
1.55767e-05
1.53684e-06
1.56866e-05
2.69286e-06
1.574e-05
3.7888e-06
1.5744e-05
4.82527e-06
1.57142e-05
5.7791e-06
1.55757e-05
6.55622e-06
1.53453e-05
7.1874e-06
1.50081e-05
7.65717e-06
1.45646e-05
7.94012e-06
1.41279e-05
8.09056e-06
1.34736e-05
8.05674e-06
1.30173e-05
8.22546e-06
1.35472e-05
7.77894e-06
1.40997e-05
8.17443e-06
1.46202e-05
8.66791e-06
1.50526e-05
9.14442e-06
1.54374e-05
9.74215e-06
1.05066e-05
3.01535e-07
-1.42887e-05
1.03683e-06
-1.84881e-05
1.88634e-06
-1.96468e-05
2.78832e-06
-1.98456e-05
3.71811e-06
-1.95797e-05
4.65718e-06
-1.90592e-05
5.58788e-06
-1.83979e-05
6.49405e-06
-1.76612e-05
7.36243e-06
-1.68856e-05
8.18363e-06
-1.60896e-05
8.95222e-06
-1.52802e-05
9.66638e-06
-1.44575e-05
1.03271e-05
-1.36186e-05
1.09375e-05
-1.27588e-05
1.15012e-05
-1.18739e-05
1.2022e-05
-1.09603e-05
1.25022e-05
-1.00152e-05
1.29429e-05
-9.03581e-06
1.33469e-05
-8.01721e-06
1.37197e-05
-6.95504e-06
1.40682e-05
-5.84833e-06
1.43986e-05
-4.70088e-06
1.47139e-05
-3.52166e-06
1.50102e-05
-2.32336e-06
1.52819e-05
-1.1153e-06
1.55304e-05
9.84298e-08
1.57602e-05
1.30705e-06
1.59661e-05
2.48694e-06
1.61383e-05
3.61659e-06
1.62788e-05
4.68478e-06
1.63907e-05
5.66715e-06
1.64364e-05
6.51056e-06
1.64073e-05
7.21645e-06
1.62957e-05
7.76875e-06
1.60845e-05
8.15133e-06
1.57949e-05
8.38022e-06
1.53939e-05
8.45768e-06
1.51276e-05
8.49177e-06
1.46384e-05
8.26815e-06
1.42753e-05
8.53756e-06
1.48624e-05
8.08075e-06
1.5454e-05
8.55286e-06
1.60052e-05
9.19091e-06
1.64555e-05
1.00563e-05
1.11859e-05
4.72458e-07
-1.47611e-05
1.28196e-06
-1.92976e-05
2.13846e-06
-2.05033e-05
3.00357e-06
-2.07107e-05
3.87073e-06
-2.04468e-05
4.73519e-06
-1.99237e-05
5.58958e-06
-1.92523e-05
6.42484e-06
-1.84965e-05
7.232e-06
-1.76928e-05
8.00367e-06
-1.68613e-05
8.73474e-06
-1.60112e-05
9.42255e-06
-1.51454e-05
1.00666e-05
-1.42627e-05
1.06682e-05
-1.33604e-05
1.12294e-05
-1.24351e-05
1.17526e-05
-1.14835e-05
1.22399e-05
-1.05026e-05
1.26934e-05
-9.48935e-06
1.31163e-05
-8.44012e-06
1.35135e-05
-7.35218e-06
1.38904e-05
-6.22531e-06
1.42522e-05
-5.06266e-06
1.46015e-05
-3.87093e-06
1.49374e-05
-2.65928e-06
1.52582e-05
-1.4361e-06
1.55653e-05
-2.08622e-07
1.58609e-05
1.01144e-06
1.61424e-05
2.20544e-06
1.64045e-05
3.35446e-06
1.66466e-05
4.44271e-06
1.68662e-05
5.44746e-06
1.70419e-05
6.33486e-06
1.71636e-05
7.09477e-06
1.72202e-05
7.71222e-06
1.7194e-05
8.17745e-06
1.70819e-05
8.4923e-06
1.6873e-05
8.6666e-06
1.66287e-05
8.73608e-06
1.62092e-05
8.68764e-06
1.59971e-05
8.74973e-06
1.56199e-05
8.45793e-06
1.56153e-05
8.55743e-06
1.62673e-05
8.53898e-06
1.69901e-05
9.33339e-06
1.04954e-05
6.23462e-07
-1.53846e-05
1.48393e-06
-2.01581e-05
2.33626e-06
-2.13556e-05
3.16393e-06
-2.15384e-05
3.97439e-06
-2.12573e-05
4.77295e-06
-2.07223e-05
5.5598e-06
-2.00392e-05
6.33133e-06
-1.9268e-05
7.08219e-06
-1.84437e-05
7.80699e-06
-1.75861e-05
8.50128e-06
-1.67055e-05
9.16214e-06
-1.58062e-05
9.78819e-06
-1.48887e-05
1.03794e-05
-1.39516e-05
1.09367e-05
-1.29924e-05
1.14616e-05
-1.20084e-05
1.19559e-05
-1.09969e-05
1.24217e-05
-9.95515e-06
1.28621e-05
-8.88051e-06
1.32812e-05
-7.77128e-06
1.36836e-05
-6.62767e-06
1.40733e-05
-5.45239e-06
1.44531e-05
-4.25072e-06
1.48237e-05
-3.02992e-06
1.51854e-05
-1.79778e-06
1.55395e-05
-5.62729e-07
1.58874e-05
6.63561e-07
1.62276e-05
1.86518e-06
1.65571e-05
3.02505e-06
1.68734e-05
4.12635e-06
1.71722e-05
5.14871e-06
1.74394e-05
6.06756e-06
1.76653e-05
6.86887e-06
1.78384e-05
7.53918e-06
1.79456e-05
8.07024e-06
1.79765e-05
8.46142e-06
1.79209e-05
8.72212e-06
1.77867e-05
8.87031e-06
1.75501e-05
8.92426e-06
1.73413e-05
8.95855e-06
1.69728e-05
8.82639e-06
1.67044e-05
8.82588e-06
1.63594e-05
8.88399e-06
1.70185e-05
8.67428e-06
9.52844e-06
7.51442e-07
-1.6136e-05
1.63615e-06
-2.10428e-05
2.46845e-06
-2.21879e-05
3.25379e-06
-2.23237e-05
4.01002e-06
-2.20135e-05
4.74906e-06
-2.14613e-05
5.47598e-06
-2.07661e-05
6.19093e-06
-1.99829e-05
6.89125e-06
-1.9144e-05
7.5732e-06
-1.8268e-05
8.23313e-06
-1.73654e-05
8.86815e-06
-1.64412e-05
9.47641e-06
-1.5497e-05
1.00571e-05
-1.45323e-05
1.06104e-05
-1.35457e-05
1.11369e-05
-1.2535e-05
1.16381e-05
-1.14981e-05
1.21158e-05
-1.04328e-05
1.25726e-05
-9.33736e-06
1.3012e-05
-8.21069e-06
1.34377e-05
-7.05334e-06
1.38531e-05
-5.86776e-06
1.42608e-05
-4.6584e-06
1.46623e-05
-3.43144e-06
1.50587e-05
-2.19419e-06
1.54513e-05
-9.55333e-07
1.58409e-05
2.73918e-07
1.62267e-05
1.47943e-06
1.66061e-05
2.64563e-06
1.69761e-05
3.75629e-06
1.73316e-05
4.7932e-06
1.76624e-05
5.73677e-06
1.79589e-05
6.57242e-06
1.82103e-05
7.28773e-06
1.84058e-05
7.87472e-06
1.85354e-05
8.3318e-06
1.85919e-05
8.66568e-06
1.85727e-05
8.88952e-06
1.84751e-05
9.02184e-06
1.83411e-05
9.09255e-06
1.81137e-05
9.05388e-06
1.79031e-05
9.03644e-06
1.78369e-05
8.95019e-06
1.77099e-05
8.80125e-06
9.65189e-06
8.52035e-07
-1.69881e-05
1.73335e-06
-2.19241e-05
2.52897e-06
-2.29835e-05
3.26539e-06
-2.30601e-05
3.96769e-06
-2.27158e-05
4.65141e-06
-2.2145e-05
5.32429e-06
-2.1439e-05
5.98868e-06
-2.06473e-05
6.64369e-06
-1.9799e-05
7.28684e-06
-1.89112e-05
7.91518e-06
-1.79938e-05
8.52601e-06
-1.70521e-05
9.11729e-06
-1.60883e-05
9.68776e-06
-1.51028e-05
1.02369e-05
-1.40948e-05
1.0765e-05
-1.30631e-05
1.12729e-05
-1.20059e-05
1.17619e-05
-1.09219e-05
1.22343e-05
-9.80975e-06
1.26927e-05
-8.6691e-06
1.31401e-05
-7.50074e-06
1.35793e-05
-6.30698e-06
1.40127e-05
-5.09181e-06
1.4442e-05
-3.86074e-06
1.48685e-05
-2.62069e-06
1.52933e-05
-1.38011e-06
1.57168e-05
-1.49564e-07
1.6138e-05
1.05816e-06
1.65548e-05
2.22886e-06
1.69636e-05
3.34743e-06
1.73592e-05
4.39764e-06
1.77331e-05
5.36285e-06
1.80763e-05
6.22916e-06
1.83791e-05
6.98495e-06
1.86315e-05
7.62231e-06
1.88248e-05
8.1385e-06
1.89534e-05
8.5371e-06
1.90157e-05
8.82722e-06
1.90151e-05
9.02251e-06
1.89686e-05
9.13907e-06
1.88575e-05
9.16493e-06
1.87428e-05
9.15115e-06
1.8646e-05
9.04701e-06
1.84935e-05
8.95372e-06
9.17189e-06
9.20632e-07
-1.79087e-05
1.77232e-06
-2.27757e-05
2.51637e-06
-2.37275e-05
3.19753e-06
-2.37412e-05
3.84506e-06
-2.33633e-05
4.47588e-06
-2.27758e-05
5.0987e-06
-2.20618e-05
5.71689e-06
-2.12655e-05
6.33057e-06
-2.04127e-05
6.93809e-06
-1.95187e-05
7.53704e-06
-1.85927e-05
8.12498e-06
-1.764e-05
8.69983e-06
-1.66631e-05
9.26007e-06
-1.5663e-05
9.80484e-06
-1.46396e-05
1.03339e-05
-1.35921e-05
1.08477e-05
-1.25197e-05
1.13471e-05
-1.14213e-05
1.18337e-05
-1.02964e-05
1.23097e-05
-9.14504e-06
1.27772e-05
-7.96824e-06
1.32385e-05
-6.76831e-06
1.36957e-05
-5.54893e-06
1.41501e-05
-4.31521e-06
1.46031e-05
-3.07365e-06
1.50553e-05
-1.8323e-06
1.55067e-05
-6.00996e-07
1.59562e-05
6.08648e-07
1.64014e-05
1.78369e-06
1.68385e-05
2.91032e-06
1.72621e-05
3.97399e-06
1.76648e-05
4.96013e-06
1.80382e-05
5.85582e-06
1.8373e-05
6.65012e-06
1.86602e-05
7.33508e-06
1.88919e-05
7.9068e-06
1.9063e-05
8.36605e-06
1.91723e-05
8.71789e-06
1.92242e-05
8.97062e-06
1.92299e-05
9.13341e-06
1.9189e-05
9.20579e-06
1.91309e-05
9.20926e-06
1.90485e-05
9.12939e-06
1.89721e-05
9.03013e-06
9.00802e-06
9.53953e-07
-1.88626e-05
1.75287e-06
-2.35746e-05
2.43355e-06
-2.44082e-05
3.05421e-06
-2.43619e-05
3.64569e-06
-2.39548e-05
4.22466e-06
-2.33548e-05
4.79964e-06
-2.26368e-05
5.37421e-06
-2.18401e-05
5.94893e-06
-2.09874e-05
6.52263e-06
-2.00924e-05
7.09331e-06
-1.91634e-05
7.65876e-06
-1.82054e-05
8.21695e-06
-1.72213e-05
8.76624e-06
-1.62123e-05
9.30552e-06
-1.51789e-05
9.83422e-06
-1.41209e-05
1.03523e-05
-1.30378e-05
1.08604e-05
-1.19294e-05
1.13595e-05
-1.07955e-05
1.1851e-05
-9.63655e-06
1.23366e-05
-8.45383e-06
1.2818e-05
-7.24967e-06
1.32966e-05
-6.02756e-06
1.37737e-05
-4.7923e-06
1.425e-05
-3.54999e-06
1.47259e-05
-2.30817e-06
1.52008e-05
-1.07593e-06
1.56733e-05
1.36181e-07
1.61406e-05
1.3164e-06
1.65987e-05
2.45218e-06
1.70422e-05
3.53049e-06
1.7464e-05
4.53833e-06
1.7856e-05
5.46379e-06
1.82096e-05
6.29654e-06
1.85161e-05
7.0286e-06
1.87679e-05
7.65501e-06
1.89597e-05
8.17426e-06
1.90896e-05
8.58795e-06
1.91603e-05
8.89996e-06
1.91789e-05
9.11476e-06
1.91509e-05
9.23383e-06
1.90929e-05
9.26722e-06
1.9006e-05
9.21634e-06
1.89172e-05
9.11889e-06
9.02665e-06
9.51148e-07
-1.98138e-05
1.6783e-06
-2.43018e-05
2.28711e-06
-2.5017e-05
2.84345e-06
-2.49182e-05
3.37748e-06
-2.44889e-05
3.90457e-06
-2.38819e-05
4.43241e-06
-2.31646e-05
4.96428e-06
-2.2372e-05
5.50079e-06
-2.15239e-05
6.04103e-06
-2.06326e-05
6.58327e-06
-1.97056e-05
7.1255e-06
-1.87476e-05
7.66577e-06
-1.77616e-05