/*--------------------------------*- C++ -*----------------------------------*\
| =========                 |                                                 |
| \\      /  F ield         | OpenFOAM: The Open Source CFD Toolbox           |
|  \\    /   O peration     | Version:  5.0                                   |
|   \\  /    A nd           | Web:      www.OpenFOAM.org                      |
|    \\/     M anipulation  |                                                 |
\*---------------------------------------------------------------------------*/
FoamFile
{
    version     2.0;
    format      ascii;
    class       surfaceScalarField;
    location    "0.25";
    object      alphaPhi10;
}
// * * * * * * * * * * * * * * * * * * * * * * * * * * * * * * * * * * * * * //

dimensions      [0 3 -1 0 0 0 0];

internalField   nonuniform List<scalar> 
3742
(
2.53496e-14
7.87661e-14
1.57649e-14
4.86622e-14
8.24789e-15
2.14504e-14
3.71263e-15
6.89163e-15
6.74634e-16
1.66064e-15
-6.72738e-16
1.18092e-16
-7.79704e-16
-2.59286e-16
-7.12481e-16
-1.87315e-16
-6.62772e-16
-6.93633e-17
-5.82259e-16
-3.11001e-18
-4.27984e-16
3.70449e-17
-2.80178e-16
4.52385e-17
-1.73768e-16
3.9309e-17
-1.04991e-16
2.96172e-17
-6.29632e-17
2.07378e-17
-3.78664e-17
1.42576e-17
-2.34311e-17
9.94708e-18
-1.6567e-17
7.43447e-18
-1.5358e-17
6.63034e-18
-1.57881e-17
7.10135e-18
-2.46516e-17
1.03511e-17
-6.59072e-17
2.4328e-17
-2.49366e-16
8.67866e-17
-9.4941e-16
3.99333e-16
1.93704e-15
-8.39864e-24
3.90288e-21
1.51602e-21
9.08941e-20
2.23611e-20
9.67522e-19
1.27267e-19
6.45808e-18
4.86176e-19
2.80641e-17
3.03206e-19
7.17445e-17
1.60243e-18
4.78344e-17
9.75461e-18
1.77524e-16
3.93803e-17
5.63723e-16
1.20768e-16
1.32608e-15
2.9982e-16
2.59079e-15
6.25897e-16
4.35986e-15
1.02646e-15
6.21472e-15
1.28977e-15
7.12591e-15
1.88522e-15
7.36595e-15
4.43158e-15
1.06147e-14
1.01299e-14
2.05618e-14
1.86087e-14
3.60597e-14
2.61862e-14
5.09332e-14
2.75125e-14
5.58618e-14
2.10729e-14
4.62529e-14
1.16048e-14
2.79085e-14
4.72006e-15
1.16824e-14
1.47078e-15
3.15859e-15
1.39926e-16
4.76761e-16
-2.9553e-16
-1.0349e-17
-3.26197e-16
-7.24574e-17
-2.79142e-16
-4.28296e-17
-2.20377e-16
-1.30334e-17
-1.62709e-16
1.31383e-18
-1.01915e-16
7.76291e-18
-6.08732e-17
7.82265e-18
-3.55989e-17
6.31567e-18
-2.05175e-17
4.59949e-18
-1.19991e-17
3.18433e-18
-7.20422e-18
2.21664e-18
-4.49588e-18
1.58973e-18
-3.26828e-18
1.22997e-18
-3.0965e-18
1.14163e-18
-3.24177e-18
1.26986e-18
-5.10769e-18
1.97559e-18
-1.30425e-17
4.94512e-18
-4.76925e-17
1.83002e-17
-2.133e-16
8.89605e-17
4.99806e-16
5.3243e-22
3.04738e-21
1.31076e-20
6.3967e-20
1.26258e-19
6.21807e-19
6.97822e-19
3.62998e-18
2.15482e-18
1.3117e-17
1.70534e-18
2.64167e-17
7.50438e-18
2.65332e-17
2.84073e-17
9.57549e-17
8.01429e-17
2.76416e-16
1.88545e-16
6.28648e-16
3.82618e-16
1.21203e-15
6.57221e-16
1.99006e-15
9.06243e-16
2.6957e-15
1.12375e-15
3.02606e-15
1.93821e-15
3.54989e-15
4.4869e-15
5.99848e-15
9.39998e-15
1.16655e-14
1.58776e-14
1.97393e-14
2.08838e-14
2.69818e-14
2.08417e-14
2.89553e-14
1.52769e-14
2.37436e-14
7.85922e-15
1.4323e-14
2.65616e-15
5.98077e-15
5.13921e-16
1.54378e-15
-1.48652e-17
1.81267e-16
-9.22719e-17
-1.09758e-17
-9.27055e-17
-1.3855e-17
-6.78124e-17
-5.14193e-18
-4.81059e-17
-1.58334e-18
-3.06651e-17
3.96864e-19
-1.71911e-17
1.0377e-18
-9.74316e-18
9.58292e-19
-5.58954e-18
7.60446e-19
-3.22657e-18
5.65796e-19
-1.91805e-18
4.09151e-19
-1.17785e-18
2.98241e-19
-7.55008e-19
2.22737e-19
-5.79374e-19
1.80622e-19
-5.52631e-19
1.75331e-19
-6.02989e-19
2.0356e-19
-9.85399e-19
3.35475e-19
-2.53319e-18
8.75291e-19
-9.25038e-18
3.29665e-18
-4.36415e-17
1.58423e-17
8.45628e-17
7.70807e-22
1.7453e-21
1.50605e-20
3.36678e-20
1.27706e-19
2.97589e-19
5.95169e-19
1.52678e-18
1.46114e-18
4.68347e-18
1.73828e-18
8.1705e-18
7.32493e-18
1.13312e-17
2.45316e-17
3.89919e-17
6.45786e-17
1.0742e-16
1.44062e-16
2.42332e-16
2.73797e-16
4.63324e-16
4.29572e-16
7.38051e-16
5.58941e-16
9.58913e-16
7.60744e-16
1.09021e-15
1.49341e-15
1.45603e-15
3.38068e-15
2.69063e-15
6.6776e-15
5.18176e-15
1.06975e-14
8.54302e-15
1.35284e-14
1.14528e-14
1.3171e-14
1.21897e-14
9.52928e-15
1.00365e-14
4.83906e-15
6.15264e-15
1.54868e-15
2.63502e-15
2.3184e-16
6.96572e-16
-1.87712e-17
7.99692e-17
-1.98336e-17
-6.44441e-18
-1.37697e-17
-1.93745e-18
-1.03096e-17
-4.71636e-19
-6.59654e-18
-1.18355e-19
-3.76172e-18
4.56293e-20
-2.06801e-18
8.88199e-20
-1.18572e-18
8.62136e-20
-7.03416e-19
7.29883e-20
-4.25925e-19
5.85841e-20
-2.65316e-19
4.57188e-20
-1.68768e-19
3.54025e-20
-1.12599e-19
2.76819e-20
-9.23861e-20
2.37605e-20
-8.87743e-20
2.41526e-20
-1.01999e-19
2.95371e-20
-1.75243e-19
5.18827e-20
-4.64152e-19
1.418e-19
-1.72274e-18
5.42649e-19
-7.92332e-18
2.54246e-18
1.23719e-17
5.7964e-22
7.03961e-22
1.00918e-20
1.25581e-20
7.55763e-20
1.01022e-19
3.01236e-19
4.59536e-19
6.44038e-19
1.22609e-18
1.05942e-18
1.96708e-18
4.24292e-18
3.39401e-18
1.34558e-17
1.14336e-17
3.47293e-17
3.1377e-17
7.57243e-17
7.14836e-17
1.37375e-16
1.35558e-16
2.03234e-16
2.09047e-16
2.63287e-16
2.62453e-16
4.01256e-16
3.04375e-16
8.47976e-16
4.44e-16
1.87325e-15
8.52685e-16
3.55672e-15
1.62296e-15
5.51988e-15
2.63504e-15
6.84711e-15
3.50607e-15
6.62799e-15
3.74321e-15
4.83181e-15
3.12803e-15
2.49861e-15
1.97044e-15
8.14379e-16
8.78323e-16
1.18773e-16
2.45026e-16
-8.62017e-18
3.06489e-17
-4.56681e-18
-1.58493e-18
-1.58249e-18
-2.16933e-19
-1.0164e-18
-3.71593e-20
-5.61797e-19
-6.6118e-21
-3.07598e-19
2.94988e-21
-1.8427e-19
5.42188e-21
-1.16005e-19
6.18007e-21
-7.48108e-20
6.00239e-21
-4.88434e-20
5.34605e-21
-3.23041e-20
4.53171e-21
-2.14202e-20
3.73064e-21
-1.50331e-20
3.07296e-21
-1.32881e-20
2.8149e-21
-1.29333e-20
3.00009e-21
-1.58001e-20
3.90976e-21
-2.89378e-20
7.40289e-21
-8.01172e-20
2.13942e-20
-3.01043e-19
8.32103e-20
-1.33087e-18
3.77599e-19
1.71903e-18
2.72646e-22
1.80384e-22
4.31313e-21
2.98696e-21
2.87703e-20
2.1959e-20
1.00266e-19
8.93871e-20
1.97944e-19
2.10407e-19
4.05951e-19
3.14095e-19
1.59129e-18
6.23574e-19
5.01419e-18
2.16557e-18
1.30083e-17
6.16132e-18
2.79513e-17
1.43441e-17
4.87098e-17
2.69319e-17
6.90345e-17
4.00372e-17
9.03979e-17
4.79317e-17
1.49082e-16
5.36199e-17
3.24422e-16
7.71456e-17
7.01998e-16
1.46889e-16
1.30148e-15
2.77739e-16
1.9887e-15
4.49934e-16
2.45621e-15
6.00811e-16
2.39682e-15
6.49039e-16
1.78463e-15
5.54019e-16
9.55542e-16
3.60424e-16
3.273e-16
1.68021e-16
5.18654e-17
4.97753e-17
-2.12332e-18
6.85891e-18
-6.32089e-19
-1.70947e-19
-1.57026e-19
-1.93178e-20
-7.56345e-20
-2.47858e-21
-3.35322e-20
-3.08774e-22
-1.90501e-20
1.3933e-22
-1.33731e-20
2.86382e-22
-9.74755e-21
3.95111e-22
-6.99319e-21
4.4494e-22
-4.96271e-21
4.37671e-22
-3.49087e-21
4.01093e-22
-2.4267e-21
3.5034e-22
-1.81282e-21
3.06794e-22
-1.71392e-21
3.00723e-22
-1.71651e-21
3.37832e-22
-2.25331e-21
4.74568e-22
-4.45069e-21
9.77327e-22
-1.29642e-20
2.99558e-21
-4.89892e-20
1.17924e-20
-2.07028e-19
5.15929e-20
2.20337e-19
7.67599e-23
2.2277e-23
1.11234e-21
3.43512e-22
6.667e-21
2.31861e-21
2.05833e-20
8.48512e-21
3.79366e-20
1.74832e-20
8.97173e-20
2.29674e-20
3.62856e-19
5.04009e-20
1.18474e-18
1.97769e-19
3.13501e-18
6.09194e-19
6.64944e-18
1.46192e-18
1.11262e-17
2.70437e-18
1.49658e-17
3.79534e-18
1.88046e-17
3.95435e-18
3.04178e-17
2.95109e-18
6.52532e-17
1.48419e-18
1.39465e-16
1.13008e-18
2.5653e-16
3.34779e-18
3.91239e-16
7.49331e-18
4.86375e-16
1.13674e-17
4.82422e-16
1.2867e-17
3.69288e-16
1.05968e-17
2.05947e-16
6.36199e-18
7.46504e-17
2.68374e-18
1.29974e-17
6.99117e-19
-2.36117e-19
7.31039e-20
-6.27376e-20
-8.82618e-21
-1.2491e-20
-4.86574e-22
-4.38528e-21
-8.52663e-23
-1.54207e-21
-7.14419e-24
-1.03002e-21
5.20961e-24
-8.74768e-22
1.46622e-23
-7.36806e-22
2.41508e-23
-5.85325e-22
3.00215e-23
-4.5052e-22
3.22079e-23
-3.3649e-22
3.17623e-23
-2.47437e-22
2.94608e-23
-2.0311e-22
2.77107e-23
-1.94813e-22
2.89707e-23
-2.08333e-22
3.46522e-23
-2.96792e-22
5.29697e-23
-6.36839e-22
1.19307e-22
-1.95005e-21
3.86605e-22
-7.35659e-21
1.53047e-21
-2.96423e-20
6.43962e-21
2.58667e-20
1.00536e-23
-1.39534e-39
1.34151e-22
-2.85303e-37
7.25487e-22
-2.97435e-35
1.96736e-21
-2.11905e-33
3.20012e-21
-1.15907e-31
8.38308e-21
-5.16494e-30
3.83568e-20
-1.91852e-28
1.35638e-19
-6.13512e-27
3.69777e-19
-1.61003e-25
7.71716e-19
-2.88776e-24
1.21653e-18
-2.99749e-23
1.42036e-18
-3.66337e-22
1.18692e-18
-6.3919e-21
6.68816e-19
-1.07715e-19
5.71633e-19
-6.78953e-19
1.90681e-18
-1.51453e-18
4.82703e-18
-1.84054e-18
8.33052e-18
-1.73825e-18
1.08092e-17
-1.31054e-18
1.03049e-17
-3.78863e-19
7.25297e-18
-7.39764e-20
3.64741e-18
-4.60125e-21
1.15879e-18
-2.35069e-22
1.5265e-19
-1.73429e-22
-1.28164e-20
-1.2224e-22
-1.64032e-21
-4.83794e-23
-4.65589e-22
-2.84348e-24
-1.03475e-22
-5.24502e-25
-4.74404e-23
-1.00217e-25
-5.13549e-23
1.71322e-25
-5.49941e-23
7.40771e-25
-5.08315e-23
1.39018e-24
-4.40965e-23
1.82176e-24
-3.66787e-23
2.13346e-24
-2.90497e-23
2.25385e-24
-2.27578e-23
2.22942e-24
-2.06508e-23
2.26495e-24
-2.0158e-23
2.52288e-24
-2.31787e-23
3.24644e-24
-3.61522e-23
5.44362e-24
-8.44579e-23
1.34313e-23
-2.70244e-22
4.56834e-23
-1.01111e-21
1.80727e-22
-3.88505e-21
7.31224e-22
2.77442e-21
-1.39262e-39
-2.72634e-42
-2.86184e-37
-5.11545e-40
-2.99792e-35
-5.04497e-38
-2.14565e-33
-3.37822e-36
-1.1788e-31
-1.73094e-34
-5.2756e-30
-7.22455e-33
-1.96872e-28
-2.55156e-31
-6.32417e-27
-7.81963e-30
-1.67116e-25
-2.11624e-28
-3.04976e-24
-5.12211e-27
-3.29125e-23
-1.1191e-25
-3.97016e-22
-2.21944e-24
-7.31871e-21
-2.03071e-23
-1.64266e-19
-3.5565e-22
-6.98567e-19
-8.11074e-21
-1.16711e-18
-8.5015e-20
-1.23761e-18
-1.47514e-19
-1.11659e-18
-2.36754e-19
-5.47481e-19
-1.42526e-19
-1.30302e-19
-1.39926e-19
-8.47439e-21
-6.81441e-20
-1.26904e-22
-3.32534e-21
-2.82462e-22
-1.22531e-22
-2.73097e-22
-5.16305e-24
-1.23301e-22
-8.01523e-25
-1.01497e-23
-1.42992e-25
-2.61847e-24
-3.52949e-26
-1.14011e-24
-1.14824e-26
-1.83456e-24
-6.12664e-27
-2.76664e-24
7.92845e-27
-3.22223e-24
3.61917e-26
-3.19043e-24
6.9793e-26
-2.99247e-24
9.99427e-26
-2.68291e-24
1.27175e-25
-2.259e-24
1.43435e-25
-1.92265e-24
1.52466e-25
-1.84641e-24
1.66691e-25
-1.90192e-24
1.99118e-25
-2.36775e-24
2.78145e-25
-4.07104e-24
5.15052e-25
-1.03261e-23
1.38831e-24
-3.42366e-23
4.91289e-24
-1.26423e-22
1.93304e-23
-4.64125e-22
7.53346e-23
2.71328e-22
-3.2368e-42
5.10461e-43
-5.10731e-40
-3.71128e-42
-5.05031e-38
-3.09777e-40
-3.39935e-36
-1.99452e-38
-1.75058e-34
-9.76209e-37
-7.34271e-33
-3.87606e-35
-2.60596e-31
-1.29764e-33
-8.02505e-30
-3.7586e-32
-2.18235e-28
-9.59006e-31
-5.30765e-27
-2.18168e-29
-1.16506e-25
-4.42176e-28
-2.31248e-24
-8.85137e-27
-2.40601e-23
-1.08967e-25
-3.941e-22
-1.07693e-24
-8.7691e-21
-5.36956e-24
-8.28153e-20
-1.19133e-23
-1.40797e-19
-1.42577e-23
-6.51477e-20
-1.24355e-23
-7.95638e-20
-4.80099e-24
-8.30949e-20
-1.19447e-24
-7.90525e-21
-4.92475e-25
-3.75312e-22
-3.47803e-25
-1.77546e-23
-1.84424e-25
-1.68274e-24
-5.02107e-26
-3.56958e-25
-1.32578e-26
-1.11424e-25
-3.24465e-27
-4.51159e-26
-1.04638e-27
-5.23324e-26
-5.91639e-28
-1.02298e-25
-3.77888e-28
-1.44814e-25
3.15689e-28
-1.69844e-25
1.56166e-27
-1.81823e-25
3.13371e-27
-1.87122e-25
4.97013e-27
-1.75843e-25
6.77407e-27
-1.58363e-25
8.1854e-27
-1.4977e-25
9.39495e-27
-1.47233e-25
1.10378e-26
-1.63543e-25
1.42547e-26
-2.22163e-25
2.17845e-26
-4.22869e-25
4.47823e-26
-1.15671e-24
1.31026e-25
-3.93967e-24
4.78306e-25
-1.43165e-23
1.86648e-24
-5.03738e-23
7.02712e-24
2.41505e-23
-5.49032e-44
5.32839e-43
-6.81494e-42
3.04615e-42
-3.06995e-40
-9.12475e-42
-1.95493e-38
-6.3091e-40
-9.5799e-37
-3.31148e-38
-3.80825e-35
-1.40486e-36
-1.27633e-33
-5.00851e-35
-3.70092e-32
-1.54034e-33
-9.45285e-31
-4.1581e-32
-2.15374e-29
-9.93563e-31
-4.41227e-28
-1.87406e-29
-5.00981e-27
-2.50158e-28
-9.82027e-26
-4.36641e-27
-8.92669e-25
-9.93846e-26
-3.76285e-24
-1.06365e-24
-6.5358e-24
-3.3772e-24
-6.90416e-24
-4.94786e-24
-4.55881e-24
-4.90538e-24
-1.12279e-24
-2.37729e-24
-3.74948e-25
-3.09795e-25
-2.97918e-25
-2.85529e-26
-2.13688e-25
-9.81382e-27
-8.03777e-26
-5.39028e-27
-2.66065e-26
-2.09137e-27
-8.04378e-27
-5.36773e-28
-2.7117e-27
-1.14483e-28
-2.3742e-27
-3.90956e-29
-3.01693e-27
-2.44915e-29
-4.98605e-27
-1.72428e-29
-6.72603e-27
7.57447e-30
-8.12653e-27
5.64333e-29
-9.46271e-27
1.26501e-28
-1.03084e-26
2.20086e-28
-1.04489e-26
3.21018e-28
-1.01298e-26
4.17703e-28
-1.00725e-26
5.16901e-28
-1.06753e-26
6.59256e-28
-1.28081e-26
9.24865e-28
-1.91357e-26
1.5585e-27
-4.03532e-26
3.56396e-27
-1.17967e-25
1.12238e-26
-4.0968e-25
4.1968e-26
-1.46364e-24
1.62273e-25
-4.95463e-24
5.92447e-25
1.95346e-24
1.21794e-43
-1.3917e-48
-4.4657e-43
-2.63463e-46
-9.66545e-42
-2.95691e-44
-6.45064e-40
-1.80663e-42
-3.39161e-38
-8.52979e-41
-1.44258e-36
-3.25758e-39
-5.15815e-35
-1.04746e-37
-1.59208e-33
-2.91301e-36
-4.31748e-32
-7.13927e-35
-1.03245e-30
-1.55794e-33
-2.07458e-29
-3.13782e-32
-2.70431e-28
-4.54327e-31
-4.83701e-27
-7.78328e-30
-1.26967e-25
-1.78631e-28
-9.61841e-25
-1.63263e-27
-2.26948e-24
-4.71906e-27
-2.79765e-24
-6.49704e-27
-2.32216e-24
-6.19133e-27
-3.75655e-25
-2.89311e-27
-3.13017e-26
-1.27144e-27
-1.01859e-26
-7.82565e-28
-6.45256e-27
-3.91947e-28
-3.3728e-27
-1.64372e-28
-1.15267e-27
-5.61183e-29
-2.94903e-28
-1.44801e-29
-9.79641e-29
-3.14556e-30
-9.59913e-29
-1.14183e-30
-1.22884e-28
-7.54889e-31
-1.92344e-28
-6.19698e-31
-2.68059e-28
5.14799e-32
-3.49856e-28
1.69212e-30
-4.38051e-28
4.46936e-30
-5.09978e-28
8.49807e-30
-5.51407e-28
1.34144e-29
-5.755e-28
1.89226e-29
-6.1177e-28
2.54718e-29
-6.99646e-28
3.53187e-29
-9.12635e-28
5.4287e-29
-1.51011e-27
1.01634e-28
-3.51859e-27
2.58214e-28
-1.08886e-26
8.67628e-28
-3.83446e-26
3.30647e-27
-1.34758e-25
1.26772e-26
-4.40769e-25
4.50801e-26
1.43404e-25
-1.35383e-48
-3.78622e-50
-2.57568e-46
-7.24905e-48
-2.9323e-44
-4.52984e-46
-1.80417e-42
-2.78317e-44
-8.55702e-41
-1.31818e-42
-3.2852e-39
-5.02902e-41
-1.06188e-37
-1.61099e-39
-2.96849e-36
-4.45689e-38
-7.31333e-35
-1.08552e-36
-1.6046e-33
-2.35231e-35
-3.24886e-32
-4.69157e-34
-4.77988e-31
-6.97152e-33
-8.64257e-30
-1.22879e-31
-2.14452e-28
-2.67221e-30
-1.32872e-27
-2.06906e-29
-2.76552e-27
-6.42796e-29
-2.99816e-27
-1.12788e-28
-2.13646e-27
-1.38805e-28
-1.00775e-27
-1.3656e-28
-6.95896e-28
-9.01937e-29
-4.32062e-28
-3.70041e-29
-2.24034e-28
-1.76271e-29
-9.69285e-29
-8.19657e-30
-3.22912e-29
-3.0092e-30
-8.27928e-30
-8.14522e-31
-2.85334e-30
-1.69301e-31
-2.83905e-30
-4.18725e-32
-3.72124e-30
-2.22138e-32
-6.14844e-30
-1.78356e-32
-9.28082e-30
-4.27291e-33
-1.32431e-29
4.16474e-32
-1.78396e-29
1.33919e-31
-2.22318e-29
2.83889e-31
-2.58472e-29
4.91543e-31
-2.90596e-29
7.57319e-31
-3.33695e-29
1.11513e-30
-4.13394e-29
1.69464e-30
-5.90631e-29
2.87595e-30
-1.08808e-28
6.01847e-30
-2.78624e-28
1.69269e-29
-9.04835e-28
6.02055e-29
-3.2201e-27
2.33194e-28
-1.11529e-26
8.88411e-28
-3.54109e-26
3.09198e-27
9.54335e-27
-3.72922e-50
-5.70005e-52
-7.16211e-48
-1.21628e-49
-4.51905e-46
-8.60908e-48
-2.76604e-44
-5.5165e-46
-1.31472e-42
-2.68918e-44
-5.0451e-41
-1.05952e-42
-1.62361e-39
-3.50197e-41
-4.51294e-38
-9.97445e-40
-1.10446e-36
-2.49669e-38
-2.42043e-35
-5.56984e-37
-4.74412e-34
-1.08818e-35
-7.28877e-33
-1.81708e-34
-1.41977e-31
-3.19521e-33
-2.818e-30
-7.24825e-32
-1.63434e-29
-6.3629e-31
-4.22908e-29
-2.15054e-30
-6.7904e-29
-3.93593e-30
-8.02404e-29
-4.93908e-30
-7.43748e-29
-4.96199e-30
-3.77072e-29
-3.67505e-30
-2.01701e-29
-1.7559e-30
-1.13407e-29
-9.14768e-31
-5.34417e-30
-4.68212e-31
-1.89058e-30
-1.92166e-31
-4.97446e-31
-5.75988e-32
-1.25736e-31
-1.23965e-32
-8.14622e-32
-2.20661e-33
-9.33313e-32
-7.01518e-34
-1.66966e-31
-4.34746e-34
-2.79045e-31
-2.48243e-34
-4.3451e-31
7.90151e-34
-6.33737e-31
3.35237e-33
-8.52949e-31
8.13204e-33
-1.07154e-30
1.56669e-32
-1.305e-30
2.66116e-32
-1.62615e-30
4.31986e-32
-2.19513e-30
7.25233e-32
-3.46225e-30
1.37021e-31
-7.12377e-30
3.22013e-31
-1.9911e-29
9.97552e-31
-6.73874e-29
3.73271e-30
-2.42009e-28
1.46843e-29
-8.28428e-28
5.57653e-29
-2.56587e-27
1.90942e-28
5.75121e-28
-5.79017e-52
-5.04725e-54
-1.23824e-49
-1.01808e-51
-8.66054e-48
-8.50801e-50
-5.55756e-46
-5.48508e-48
-2.72127e-44
-2.70109e-46
-1.07793e-42
-1.07202e-44
-3.58543e-41
-3.56616e-43
-1.02782e-39
-1.02181e-41
-2.58915e-38
-2.57311e-40
-5.8139e-37
-5.78108e-39
-1.15772e-35
-1.16912e-37
-1.91241e-34
-2.0719e-36
-3.63918e-33
-3.63833e-35
-8.32235e-32
-8.1852e-34
-5.48821e-31
-9.30085e-33
-1.51474e-30
-3.91158e-32
-2.49408e-30
-8.42263e-32
-2.99037e-30
-1.1908e-31
-2.90998e-30
-1.28193e-31
-1.76349e-30
-1.17146e-31
-1.03955e-30
-6.79765e-32
-6.38795e-31
-3.62427e-32
-3.35401e-31
-1.93838e-32
-1.32124e-31
-8.37062e-33
-3.75284e-32
-2.62122e-33
-8.00105e-33
-5.83783e-34
-2.44746e-33
-9.75998e-35
-2.45037e-33
-2.11661e-35
-3.72053e-33
-1.08029e-35
-7.10716e-33
-7.79256e-36
-1.2196e-32
9.75796e-36
-1.94705e-32
6.85605e-35
-2.85603e-32
1.9748e-34
-3.90207e-32
4.30299e-34
-5.17736e-32
8.14876e-34
-7.04356e-32
1.47158e-33
-1.04367e-31
2.75502e-33
-1.83157e-31
5.84516e-33
-4.21328e-31
1.54737e-32
-1.27632e-30
5.25188e-32
-4.48032e-30
2.05936e-31
-1.62426e-29
8.23732e-31
-5.51534e-29
3.13089e-30
-1.67499e-28
1.06048e-29
3.13543e-29
-5.03058e-54
-1.66657e-56
-1.01933e-51
-3.48733e-54
-8.57707e-50
-3.0363e-52
-5.54919e-48
-2.03059e-50
-2.74564e-46
-1.03321e-48
-1.09505e-44
-4.22698e-47
-3.66074e-43
-1.44678e-45
-1.05408e-41
-4.25937e-44
-2.66746e-40
-1.10095e-42
-6.0227e-39
-2.5373e-41
-1.22421e-37
-5.26251e-40
-2.18565e-36
-9.64471e-39
-3.98805e-35
-1.70436e-37
-1.01587e-33
-3.35073e-36
-8.88722e-33
-5.96725e-35
-3.02886e-32
-3.99432e-34
-5.83576e-32
-1.21398e-33
-7.88185e-32
-2.18909e-33
-8.21883e-32
-2.79498e-33
-6.68226e-32
-2.84403e-33
-4.12184e-32
-2.36915e-33
-2.61299e-32
-1.18766e-33
-1.43239e-32
-5.59784e-34
-5.86076e-33
-2.38739e-34
-1.72026e-33
-7.68064e-35
-3.67347e-34
-1.75458e-35
-8.04438e-35
-2.8534e-36
-5.72459e-35
-4.69095e-37
-7.09054e-35
-2.0076e-37
-1.47713e-34
-1.72099e-37
-2.88687e-34
1.73679e-38
-5.12457e-34
1.10411e-36
-8.26688e-34
3.99148e-36
-1.23806e-33
1.00541e-35
-1.80253e-33
2.1545e-35
-2.69729e-33
4.37891e-35
-4.42407e-33
9.23912e-35
-8.7027e-33
2.22066e-34
-2.23656e-32
6.63347e-34
-7.29777e-32
2.45557e-33
-2.65027e-31
1.00741e-32
-9.71652e-31
4.10789e-32
-3.28689e-30
1.57014e-31
-9.84029e-30
5.2913e-31
1.54485e-30
-1.66398e-56
-2.58793e-59
-3.49832e-54
-5.85129e-57
-3.06732e-52
-5.50182e-55
-2.05759e-50
-3.89172e-53
-1.05187e-48
-2.07525e-51
-4.32416e-47
-8.86741e-50
-1.48733e-45
-3.16222e-48
-4.40007e-44
-9.6803e-47
-1.14284e-42
-2.59773e-45
-2.64664e-41
-6.20848e-44
-5.47772e-40
-1.32522e-42
-1.01766e-38
-2.55474e-41
-1.82086e-37
-4.63578e-40
-4.38887e-36
-7.92536e-39
-6.81476e-35
-1.66645e-37
-3.67107e-34
-2.23531e-36
-9.66991e-34
-1.20303e-35
-1.62149e-33
-3.15827e-35
-2.00706e-33
-5.12696e-35
-2.04495e-33
-6.06114e-35
-1.41234e-33
-5.87807e-35
-7.80308e-34
-3.99459e-35
-4.06879e-34
-1.61297e-35
-1.68476e-34
-6.14743e-36
-5.04866e-35
-2.05636e-36
-1.0713e-35
-5.20445e-37
-1.89917e-36
-9.39772e-38
-9.38327e-37
-1.39179e-38
-1.09301e-36
-4.17076e-39
-2.48924e-36
-2.84894e-39
-5.68408e-36
-1.94498e-39
-1.13821e-35
1.28818e-38
-2.04381e-35
6.53086e-38
-3.39126e-35
1.9683e-37
-5.46619e-35
4.86698e-37
-9.07579e-35
1.12902e-36
-1.66361e-34
2.71721e-36
-3.69294e-34
7.46626e-36
-1.05847e-33
2.51918e-35
-3.70314e-33
1.01413e-34
-1.39063e-32
4.35554e-34
-5.17154e-32
1.8176e-33
-1.75127e-31
7.02417e-33
-5.19721e-31
2.36926e-32
6.87249e-32
-2.59437e-59
-2.01264e-62
-5.88516e-57
-4.72555e-60
-5.56257e-55
-4.99403e-58
-3.94793e-53
-3.6966e-56
-2.11506e-51
-2.05853e-54
-9.08653e-50
-9.16243e-53
-3.25565e-48
-3.39622e-51
-1.00124e-46
-1.07959e-49
-2.69948e-45
-3.00724e-48
-6.48299e-44
-7.4618e-47
-1.39829e-42
-1.66705e-45
-2.69227e-41
-3.36791e-44
-4.90073e-40
-6.35251e-43
-8.65983e-39
-1.11402e-41
-2.28679e-37
-2.02349e-40
-2.64714e-36
-3.95744e-39
-1.16887e-35
-3.72617e-38
-2.69158e-35
-1.5903e-37
-4.09575e-35
-3.74023e-37
-4.70882e-35
-5.82927e-37
-4.39891e-35
-6.79282e-37
-2.35041e-35
-6.52731e-37
-1.06096e-35
-4.41169e-37
-4.38545e-36
-1.64603e-37
-1.4327e-36
-5.23863e-38
-3.39608e-37
-1.37214e-38
-6.00891e-38
-2.57356e-39
-1.72983e-38
-3.45483e-40
-1.74903e-38
-6.60817e-41
-3.35694e-38
-3.83114e-41
-9.11379e-38
-4.90702e-41
-2.09316e-37
8.3487e-41
-4.25824e-37
8.32333e-40
-7.9338e-37
3.16681e-39
-1.43137e-36
9.27009e-39
-2.66459e-36
2.49854e-38
-5.5169e-36
6.95586e-38
-1.39038e-35
2.20558e-37
-4.4363e-35
8.41532e-37
-1.65993e-34
3.68099e-36
-6.45463e-34
1.65933e-35
-2.44469e-33
7.12186e-35
-8.33163e-33
2.79929e-34
-2.46516e-32
9.51007e-34
2.75783e-33
-2.01172e-62
-9.21439e-66
-4.74363e-60
-2.29974e-63
-5.03925e-58
-2.57697e-61
-3.74529e-56
-2.01641e-59
-2.095e-54
-1.18329e-57
-9.3674e-53
-5.5386e-56
-3.48816e-51
-2.15543e-54
-1.11391e-49
-7.18436e-53
-3.11702e-48
-2.09638e-51
-7.76941e-47
-5.44531e-50
-1.74381e-45
-1.2731e-48
-3.54103e-44
-2.6953e-47
-6.70412e-43
-5.31903e-46
-1.18534e-41
-9.73498e-45
-2.59774e-40
-1.67054e-43
-5.37999e-39
-3.06967e-42
-4.37186e-38
-5.56459e-41
-1.60864e-37
-5.25648e-40
-3.46172e-37
-2.24563e-39
-5.16426e-37
-5.09232e-39
-5.90752e-37
-7.45682e-39
-5.52488e-37
-8.09812e-39
-2.836e-37
-7.33246e-39
-1.10086e-37
-3.80189e-39
-3.63219e-38
-1.12176e-39
-8.89611e-39
-2.73541e-40
-1.51665e-39
-5.45817e-41
-2.60634e-40
-8.53472e-42
-2.26307e-40
-1.35938e-42
-3.55718e-40
-5.52897e-43
-1.1408e-39
-6.31439e-43
-3.11693e-39
-1.95899e-43
-7.35343e-39
7.70178e-42
-1.56418e-38
4.07256e-41
-3.20331e-38
1.46436e-40
-6.77256e-38
4.69262e-40
-1.60256e-37
1.53679e-39
-4.61115e-37
5.67874e-39
-1.63607e-36
2.45544e-38
-6.54468e-36
1.16878e-37
-2.6431e-35
5.55416e-37
-1.02462e-34
2.46647e-36
-3.53466e-34
9.92429e-36
-1.04898e-33
3.41823e-35
9.97363e-35
-9.2124e-66
-1.99007e-69
-2.30851e-63
-5.35176e-67
-2.59903e-61
-6.43359e-65
-2.04189e-59
-5.37366e-63
-1.20339e-57
-3.34629e-61
-5.65744e-56
-1.65862e-59
-2.2114e-54
-6.82416e-58
-7.40344e-53
-2.40162e-56
-2.1698e-51
-7.39163e-55
-5.66069e-50
-2.02354e-53
-1.32934e-48
-4.9843e-52
-2.82785e-47
-1.11327e-50
-5.60119e-46
-2.31117e-49
-1.02939e-44
-4.45072e-48
-1.78624e-43
-8.0054e-47
-4.13648e-42
-1.36156e-45
-8.4094e-41
-2.57147e-44
-7.00517e-40
-4.31839e-43
-2.53413e-39
-4.03356e-42
-5.16141e-39
-1.7359e-41
-7.18181e-39
-3.92445e-41
-7.48022e-39
-5.65616e-41
-5.98841e-39
-6.01939e-41
-2.34253e-39
-5.32568e-41
-7.03348e-40
-2.57919e-41
-1.76957e-40
-6.89979e-42
-3.54144e-41
-1.429e-42
-6.14309e-42
-2.3005e-43
-2.73809e-42
-3.05208e-44
-3.23891e-42
-7.43606e-45
-1.05529e-41
-5.69862e-45
-3.65336e-41
-9.50834e-45
-1.02977e-40
4.27245e-44
-2.55818e-40
4.01739e-43
-6.05402e-40
1.87901e-42
-1.47686e-39
7.37925e-42
-4.04599e-39
2.90132e-41
-1.33676e-38
1.26322e-40
-5.27609e-38
6.21474e-40
-2.26047e-37
3.23177e-39
-9.52359e-37
1.62876e-38
-3.80056e-36
7.53534e-38
-1.33542e-35
3.12569e-37
-3.99994e-35
1.099e-36
3.24779e-36
-1.97991e-69
-4.33676e-73
-5.34558e-67
-1.23885e-70
-6.47431e-65
-1.63796e-68
-5.42932e-63
-1.45433e-66
-3.39612e-61
-9.61808e-65
-1.69063e-59
-5.0541e-63
-6.98584e-58
-2.2027e-61
-2.46915e-56
-8.20685e-60
-7.63242e-55
-2.67317e-58
-2.09859e-53
-7.74401e-57
-5.19357e-52
-2.02096e-55
-1.16508e-50
-4.79908e-54
-2.42753e-49
-1.05398e-52
-4.69329e-48
-2.14761e-51
-8.4744e-47
-4.08828e-50
-1.46367e-45
-7.32711e-49
-3.64205e-44
-1.31875e-47
-7.09344e-43
-2.46829e-46
-5.96973e-42
-3.61955e-45
-2.17383e-41
-2.75896e-44
-4.37997e-41
-9.94616e-44
-5.9772e-41
-1.98928e-43
-6.11228e-41
-2.64396e-43
-4.67668e-41
-2.67501e-43
-1.6784e-41
-2.23455e-43
-4.37264e-42
-9.51848e-44
-9.01611e-43
-2.4778e-44
-1.4542e-43
-5.09818e-45
-3.14183e-44
-8.1361e-46
-3.1623e-44
-1.3221e-46
-7.44121e-44
-5.739e-47
-3.26382e-43
-9.8551e-47
-1.13638e-42
9.67696e-48
-3.4032e-42
2.82559e-45
-9.52534e-42
1.90227e-44
-2.73451e-41
9.556e-44
-8.80039e-41
4.62656e-43
-3.36022e-40
2.4049e-42
-1.4788e-39
1.35499e-41
-6.81225e-39
7.74718e-41
-3.0115e-38
4.17246e-40
-1.24528e-37
2.02683e-39
-4.48661e-37
8.73321e-39
-1.36525e-36
3.15726e-38
9.51493e-38
-4.33654e-73
-2.21624e-77
-1.24314e-70
-6.74238e-75
-1.65033e-68
-9.49785e-73
-1.47077e-66
-8.98517e-71
-9.76478e-65
-6.32755e-69
-5.15154e-63
-3.53893e-67
-2.25412e-61
-1.64088e-65
-8.43191e-60
-6.50157e-64
-2.75736e-58
-2.25136e-62
-8.01939e-57
-6.93202e-61
-2.10106e-55
-1.92257e-59
-5.00906e-54
-4.85263e-58
-1.10407e-52
-1.13256e-56
-2.25804e-51
-2.45292e-55
-4.31413e-50
-4.96458e-54
-7.77301e-49
-9.44985e-53
-1.58408e-47
-1.7162e-51
-3.91768e-46
-3.1138e-50
-6.23298e-45
-5.47103e-49
-4.16606e-44
-8.67343e-48
-1.2862e-43
-8.35417e-47
-2.33298e-43
-3.76533e-46
-2.95243e-43
-8.64189e-46
-2.9745e-43
-1.22684e-45
-1.99409e-43
-1.26899e-45
-6.83606e-44
-1.08513e-45
-1.7928e-44
-4.86355e-46
-3.68166e-45
-1.17279e-46
-6.3575e-46
-2.02744e-47
-3.16896e-46
-2.664e-48
-4.28522e-46
-6.04467e-49
-2.01037e-45
-5.95365e-49
-9.47936e-45
-1.39045e-48
-3.59072e-44
1.17336e-47
-1.22667e-43
1.45477e-46
-4.24759e-43
9.97881e-46
-1.63282e-42
6.14639e-45
-7.26277e-42
3.87837e-44
-3.58064e-41
2.52683e-43
-1.78412e-40
1.60272e-42
-8.3343e-40
9.30934e-42
-3.59721e-39
4.78998e-41
-1.33847e-38
2.16153e-40
-4.16618e-38
8.09634e-40
2.50593e-39
-2.21613e-77
-1.08474e-81
-6.76409e-75
-3.51975e-79
-9.56214e-73
-5.29165e-77
-9.07998e-71
-5.35252e-75
-6.41777e-69
-4.02354e-73
-3.60277e-67
-2.40242e-71
-1.67674e-65
-1.1892e-69
-6.66855e-64
-5.0301e-68
-2.31782e-62
-1.85932e-66
-7.16317e-61
-6.11086e-65
-1.99407e-59
-1.80921e-63
-5.05197e-58
-4.87718e-62
-1.1831e-56
-1.21486e-60
-2.57129e-55
-2.80885e-59
-5.22184e-54
-6.07071e-58
-9.97101e-53
-1.23418e-56
-1.81505e-51
-2.37847e-55
-3.77096e-50
-4.53849e-54
-8.68787e-49
-8.04588e-53
-1.6829e-47
-1.38321e-51
-1.51484e-46
-2.1817e-50
-5.75801e-46
-2.21384e-49
-1.16134e-45
-1.0802e-48
-1.54519e-45
-2.64935e-48
-1.55733e-45
-3.92572e-48
-1.12843e-45
-4.15229e-48
-3.74096e-46
-3.61074e-48
-8.44039e-47
-1.74592e-48
-1.37306e-47
-4.14536e-49
-2.74286e-48
-6.52543e-50
-2.82542e-48
-9.1632e-51
-9.34703e-48
-3.89283e-51
-5.89969e-47
-1.10807e-50
-2.90579e-46
3.45339e-51
-1.26702e-45
7.78177e-49
-5.45811e-45
8.16673e-48
-2.55578e-44
6.6911e-47
-1.33794e-43
5.23852e-46
-7.44369e-43
4.00014e-45
-4.04392e-42
2.84767e-44
-2.01284e-41
1.80331e-43
-9.14199e-41
9.925e-43
-3.5401e-40
4.73241e-42
-1.13529e-39
1.8514e-41
5.92891e-41
-1.08054e-81
-4.83119e-86
-3.51759e-79
-1.66162e-83
-5.31954e-77
-2.70041e-81
-5.39995e-75
-2.91287e-79
-4.07382e-73
-2.33858e-77
-2.44113e-71
-1.49228e-75
-1.21272e-69
-7.89986e-74
-5.1481e-68
-3.5754e-72
-1.90979e-66
-1.4147e-70
-6.29934e-65
-4.97903e-69
-1.87169e-63
-1.57977e-67
-5.0644e-62
-4.57019e-66
-1.26554e-60
-1.21971e-64
-2.93552e-59
-3.02248e-63
-6.36481e-58
-7.00376e-62
-1.29783e-56
-1.52712e-60
-2.47519e-55
-3.15403e-59
-5.11017e-54
-6.3968e-58
-1.0332e-52
-1.20829e-56
-2.29228e-51
-2.14171e-55
-4.51742e-50
-3.70095e-54
-4.44027e-49
-5.93704e-53
-1.84751e-48
-6.19377e-52
-3.96669e-48
-3.07867e-51
-5.5049e-48
-7.56647e-51
-5.61432e-48
-1.11052e-50
-4.39085e-48
-1.15802e-50
-1.49681e-48
-9.91509e-51
-3.12233e-49
-4.62933e-51
-4.6549e-50
-1.05359e-51
-2.24866e-50
-1.63216e-52
-3.44822e-50
-3.82307e-53
-2.43941e-49
-4.89951e-53
-1.72755e-48
-1.75457e-52
-1.0248e-47
2.37776e-51
-5.70954e-47
5.02205e-50
-3.33354e-46
5.8478e-49
-2.08116e-45
5.85031e-48
-1.32002e-44
5.33178e-47
-7.89806e-44
4.32302e-46
-4.22933e-43
3.02266e-45
-2.03957e-42
1.79907e-44
-8.28777e-42
9.1518e-44
-2.75927e-41
3.77167e-43
1.25939e-42
-4.8311e-86
-8.42144e-91
-1.66644e-83
-3.0699e-88
-2.71706e-81
-5.30863e-86
-2.94001e-79
-6.11066e-84
-2.36796e-77
-5.24479e-82
-1.51595e-75
-3.58295e-80
-8.05138e-74
-2.03268e-78
-3.65588e-72
-9.8668e-77
-1.45125e-70
-4.18977e-75
-5.1241e-69
-1.58332e-73
-1.63099e-67
-5.39665e-72
-4.73331e-66
-1.678e-70
-1.26707e-64
-4.8147e-69
-3.14926e-63
-1.28325e-67
-7.31888e-62
-3.19957e-66
-1.60035e-60
-7.50975e-65
-3.31703e-59
-1.66948e-63
-7.04941e-58
-3.60338e-62
-1.44684e-56
-7.39151e-61
-2.9211e-55
-1.40814e-59
-6.53722e-54
-2.51898e-58
-1.33e-52
-4.36876e-57
-1.35266e-51
-7.46444e-56
-5.71057e-51
-9.70078e-55
-1.22304e-50
-6.22826e-54
-1.68051e-50
-1.81387e-53
-1.6981e-50
-2.86543e-53
-1.30237e-50
-3.02885e-53
-4.29747e-51
-2.56529e-53
-8.46277e-52
-1.14547e-53
-1.77025e-52
-2.37238e-54
-1.85808e-52
-4.16893e-55
-7.85129e-52
-2.23858e-55
-7.71587e-51
-1.11309e-54
-6.32244e-50
-1.85762e-55
-4.77771e-49
2.15268e-52
-3.57435e-48
3.99448e-51
-2.70607e-47
5.32099e-50
-1.98304e-46
5.92868e-49
-1.3229e-45
5.57518e-48
-7.70597e-45
4.36809e-47
-3.98514e-44
2.84628e-46
-1.71453e-43
1.561e-45
-5.97398e-43
6.83921e-45
2.40052e-44
-8.4213e-91
-1.37594e-95
-3.0781e-88
-5.33148e-93
-5.3385e-86
-9.82899e-91
-6.1636e-84
-1.21052e-88
-5.30617e-82
-1.1127e-86
-3.63577e-80
-8.15307e-85
-2.0689e-78
-4.96736e-83
-1.0073e-76
-2.59211e-81
-4.29024e-75
-1.1843e-79
-1.62615e-73
-4.81909e-78
-5.5591e-72
-1.76986e-76
-1.7336e-70
-5.93406e-75
-4.98817e-69
-1.83641e-73
-1.33316e-67
-5.28178e-72
-3.33299e-66
-1.42182e-70
-7.84331e-65
-3.60469e-69
-1.74847e-63
-8.65693e-68
-3.88922e-62
-1.99912e-66
-8.6388e-61
-4.47165e-65
-1.78094e-59
-9.3118e-64
-3.53527e-58
-1.81186e-62
-7.62513e-57
-3.31909e-61
-1.78011e-55
-5.87958e-60
-2.49202e-54
-1.03418e-58
-1.36829e-53
-1.48907e-57
-3.34092e-53
-1.12533e-56
-4.77643e-53
-3.78185e-56
-4.81308e-53
-6.54032e-56
-3.62189e-53
-7.23124e-56
-1.09027e-53
-6.21354e-56
-1.92267e-54
-2.99329e-56
-1.22392e-54
-6.3841e-57
-2.12817e-54
-1.80448e-57
-2.4453e-53
-4.83004e-57
-2.93933e-52
-2.76613e-56
-3.14677e-51
5.20322e-55
-3.10552e-50
2.0574e-53
-2.90922e-49
4.36055e-52
-2.50459e-48
5.94801e-51
-1.89048e-47
6.06961e-50
-1.21316e-46
5.42014e-49
-6.80254e-46
3.92057e-48
-3.12882e-45
2.34494e-47
-1.15075e-44
1.10298e-46
4.10448e-46
-1.3718e-95
-1.93954e-100
-5.33196e-93
-8.00914e-98
-9.87298e-91
-1.58941e-95
-1.21971e-88
-2.096e-93
-1.12426e-86
-2.06669e-91
-8.26151e-85
-1.62691e-89
-5.04787e-83
-1.06643e-87
-2.64166e-81
-5.9947e-86
-1.21038e-79
-2.95372e-84
-4.9391e-78
-1.29747e-82
-1.81901e-76
-5.14957e-81
-6.11606e-75
-1.86786e-79
-1.89762e-73
-6.25353e-78
-5.47169e-72
-1.94706e-76
-1.47659e-70
-5.67732e-75
-3.75248e-69
-1.55992e-73
-9.03136e-68
-4.06114e-72
-2.10077e-66
-1.00759e-70
-5.09015e-65
-2.4564e-69
-1.14902e-63