/*--------------------------------*- C++ -*----------------------------------*\
| =========                 |                                                 |
| \\      /  F ield         | OpenFOAM: The Open Source CFD Toolbox           |
|  \\    /   O peration     | Version:  5.0                                   |
|   \\  /    A nd           | Web:      www.OpenFOAM.org                      |
|    \\/     M anipulation  |                                                 |
\*---------------------------------------------------------------------------*/
FoamFile
{
    version     2.0;
    format      ascii;
    class       volScalarField;
    location    "0.25";
    object      alpha.water;
}
// * * * * * * * * * * * * * * * * * * * * * * * * * * * * * * * * * * * * * //

dimensions      [0 0 0 0 0 0 0];

internalField   nonuniform List<scalar> 
1915
(
-1.97249e-09
-1.37274e-09
-7.29173e-10
-3.31757e-10
-1.32053e-10
-2.15574e-11
1.93228e-11
2.10236e-11
1.66451e-11
1.47978e-11
1.17715e-11
7.83929e-12
4.86215e-12
2.91226e-12
1.72138e-12
1.02402e-12
6.26144e-13
4.1724e-13
3.36771e-13
3.20275e-13
3.88547e-13
6.67329e-13
1.51928e-12
5.7379e-12
2.29402e-11
-5.10227e-17
-1.26579e-15
-1.50137e-14
-1.17496e-13
-6.20628e-13
-2.19952e-12
-1.03603e-12
-3.45246e-12
-1.26529e-11
-3.17444e-11
-6.3781e-11
-1.09228e-10
-1.64441e-10
-2.018e-10
-1.95621e-10
-2.26274e-10
-4.30079e-10
-8.09812e-10
-1.24573e-09
-1.48996e-09
-1.34911e-09
-9.02357e-10
-4.39513e-10
-1.60102e-10
-4.52367e-11
-3.95067e-12
7.60169e-12
8.03499e-12
5.64939e-12
4.29091e-12
2.89295e-12
1.6806e-12
9.65272e-13
5.46802e-13
3.09406e-13
1.81139e-13
1.11817e-13
7.61344e-14
6.36673e-14
6.22509e-14
8.04038e-14
1.51747e-13
4.0889e-13
1.73228e-12
1.12508e-11
-5.00087e-17
-1.14972e-15
-1.24332e-14
-8.4253e-14
-3.70817e-13
-9.57582e-13
-6.43337e-13
-2.40096e-12
-7.65606e-12
-1.80724e-11
-3.5435e-11
-5.99051e-11
-8.59512e-11
-9.94932e-11
-1.04246e-10
-1.53063e-10
-3.04074e-10
-5.51249e-10
-8.1268e-10
-9.41186e-10
-8.34533e-10
-5.48544e-10
-2.55481e-10
-7.89374e-11
-1.41034e-11
3.78837e-13
2.21186e-12
1.90347e-12
1.24068e-12
8.44378e-13
4.90225e-13
2.59194e-13
1.42236e-13
7.93721e-14
4.52831e-14
2.71618e-14
1.72979e-14
1.22618e-14
1.06798e-14
1.0865e-14
1.50936e-14
3.17008e-14
9.82138e-14
4.58875e-13
2.87308e-12
-3.928e-17
-8.15211e-16
-8.03649e-15
-4.75952e-14
-1.74167e-13
-3.54482e-13
-3.59145e-13
-1.30539e-12
-3.79135e-12
-8.67222e-12
-1.68226e-11
-2.78253e-11
-3.80518e-11
-4.32598e-11
-5.16148e-11
-8.91896e-11
-1.78577e-10
-3.13674e-10
-4.49535e-10
-5.11874e-10
-4.51846e-10
-2.98615e-10
-1.39605e-10
-4.14735e-11
-5.81243e-12
4.44116e-13
4.43815e-13
2.45907e-13
1.80871e-13
1.05041e-13
5.55526e-14
2.90936e-14
1.61583e-14
9.37404e-15
5.64915e-15
3.56354e-15
2.36333e-15
1.76639e-15
1.60328e-15
1.71002e-15
2.53975e-15
5.73921e-15
1.89546e-14
8.77415e-14
4.79813e-13
-2.2774e-17
-4.34208e-16
-3.88681e-15
-2.02132e-14
-6.27738e-14
-1.10706e-13
-1.54993e-13
-5.37858e-13
-1.49337e-12
-3.39529e-12
-6.54677e-12
-1.05329e-11
-1.38548e-11
-1.60013e-11
-2.18063e-11
-4.13508e-11
-8.22923e-11
-1.41392e-10
-1.99564e-10
-2.26375e-10
-2.01594e-10
-1.36079e-10
-6.561e-11
-2.00848e-11
-2.77232e-12
1.90482e-13
6.48527e-14
2.50915e-14
1.62985e-14
8.33628e-15
4.31821e-15
2.48738e-15
1.51274e-15
9.5495e-16
6.20903e-16
4.1481e-16
2.88211e-16
2.2956e-16
2.16715e-16
2.44923e-16
3.91445e-16
9.51246e-16
3.29118e-15
1.48445e-14
7.27336e-14
-9.34869e-18
-1.64638e-16
-1.33943e-15
-6.17043e-15
-1.66612e-14
-2.70254e-14
-4.71036e-14
-1.60195e-13
-4.43727e-13
-1.02069e-12
-1.95622e-12
-3.05426e-12
-3.89244e-12
-4.59882e-12
-6.86612e-12
-1.35752e-11
-2.67921e-11
-4.54973e-11
-6.39767e-11
-7.30867e-11
-6.63336e-11
-4.62127e-11
-2.32991e-11
-7.5654e-12
-1.14449e-12
4.39931e-14
7.71136e-15
2.17185e-15
1.08547e-15
4.76201e-16
2.64886e-16
1.79459e-16
1.25305e-16
8.71206e-17
6.10874e-17
4.31026e-17
3.16131e-17
2.70386e-17
2.65247e-17
3.21691e-17
5.58854e-17
1.46776e-16
5.27786e-16
2.30169e-15
1.03451e-14
-2.44938e-18
-3.99792e-17
-2.96828e-16
-1.2225e-15
-2.91086e-15
-4.39341e-15
-8.81513e-15
-3.0934e-14
-8.89492e-14
-2.09431e-13
-3.9819e-13
-6.00646e-13
-7.31724e-13
-8.36118e-13
-1.23473e-12
-2.42759e-12
-4.77444e-12
-8.11608e-12
-1.14921e-11
-1.333e-11
-1.24022e-11
-8.95591e-12
-4.74005e-12
-1.64093e-12
-2.74662e-13
4.69339e-15
7.11592e-16
1.54662e-16
5.76172e-17
2.24383e-17
1.50177e-17
1.21176e-17
9.53895e-18
7.20418e-18
5.41073e-18
4.02455e-18
3.15057e-18
2.87096e-18
2.96758e-18
3.89147e-18
7.40795e-18
2.09987e-17
7.76303e-17
3.25552e-16
1.35226e-15
-3.10591e-19
-4.71305e-18
-3.20814e-17
-1.18672e-16
-2.47219e-16
-3.28342e-16
-7.28477e-16
-2.89065e-15
-9.00935e-15
-2.18978e-14
-4.10929e-14
-5.86352e-14
-6.2305e-14
-4.76099e-14
-2.46361e-14
-1.93887e-14
-6.00226e-14
-1.41361e-13
-2.28055e-13
-2.78026e-13
-2.50302e-13
-1.67286e-13
-8.03452e-14
-2.45259e-14
-3.12368e-15
2.46197e-16
1.84824e-17
5.53575e-18
1.42832e-18
8.19521e-19
8.42196e-19
8.04055e-19
6.63184e-19
5.42175e-19
4.32827e-19
3.39918e-19
2.87063e-19
2.75281e-19
3.04453e-19
4.34586e-19
9.10934e-19
2.76617e-18
1.03917e-17
4.17941e-17
1.61495e-16
0
-1.74585e-41
-1.773e-39
-1.52034e-37
-1.36013e-35
-8.46023e-34
-4.08232e-32
-1.66775e-30
-7.51839e-29
-6.2792e-27
-1.46279e-24
-1.98933e-22
5.53899e-18
1.46086e-15
1.17642e-14
2.73009e-14
3.44642e-14
3.44642e-14
2.77585e-14
8.3319e-15
1.66516e-15
9.28713e-17
2.532e-18
5.77647e-18
5.57582e-18
1.35398e-18
1.13769e-19
3.58705e-20
2.09639e-20
4.01593e-20
4.75372e-20
4.80493e-20
4.22588e-20
3.7302e-20
3.13724e-20
2.6143e-20
2.37617e-20
2.40253e-20
2.86773e-20
4.48567e-20
1.03585e-19
3.3325e-19
1.2594e-18
4.85743e-18
1.75774e-17
2.21131e-54
1.0409e-38
1.35443e-36
8.72207e-35
4.26791e-33
1.69136e-31
5.64006e-30
1.62138e-28
4.08478e-27
8.92507e-26
1.27239e-24
-1.31071e-22
-1.70612e-21
1.91465e-19
5.07548e-17
7.73648e-16
2.93072e-15
3.65259e-15
1.55793e-15
1.82794e-15
1.78907e-15
8.62327e-17
3.94286e-18
1.85319e-19
1.85267e-20
4.30711e-21
1.51098e-21
8.29953e-22
1.29206e-21
2.22317e-21
2.56015e-21
2.59881e-21
2.48985e-21
2.33067e-21
2.06586e-21
1.84264e-21
1.76908e-21
1.9184e-21
2.48e-21
4.27881e-21
1.0837e-20
3.64931e-20
1.37706e-19
5.10257e-19
1.74031e-18
-7.86876e-39
-1.8198e-41
3.89749e-39
6.62158e-37
4.37016e-35
2.18928e-33
8.83168e-32
2.9968e-30
8.44451e-29
1.65986e-27
-1.66546e-25
-4.78999e-24
6.80009e-22
1.13601e-20
5.4103e-20
1.33738e-19
1.74413e-19
1.67529e-19
7.30271e-20
1.6572e-20
6.73979e-21
5.30315e-21
3.1968e-21
1.02574e-21
3.31374e-22
1.04227e-22
4.76321e-23
4.38515e-23
7.33306e-23
1.07115e-22
1.23086e-22
1.3012e-22
1.34557e-22
1.31751e-22
1.23447e-22
1.17088e-22
1.19959e-22
1.39844e-22
1.96855e-22
3.76236e-22
1.03669e-21
3.6133e-21
1.35514e-20
4.83867e-20
1.56506e-19
-8.54343e-39
-4.77614e-38
-1.05713e-38
-7.11267e-37
-3.6874e-35
-1.5455e-33
-5.4399e-32
-1.65033e-30
-4.38221e-29
-1.01789e-27
-1.04291e-26
4.40162e-27
2.26434e-24
6.72154e-22
1.09221e-20
3.93421e-20
6.33771e-20
6.94007e-20
3.80087e-20
4.50733e-21
4.1429e-22
1.59976e-22
1.00197e-22
4.54789e-23
1.40699e-23
3.82589e-24
1.83143e-24
1.79608e-24
2.98194e-24
4.28539e-24
5.19254e-24
5.93543e-24
6.50846e-24
6.6939e-24
6.65812e-24
6.72587e-24
7.38728e-24
9.29035e-24
1.43278e-23
3.03525e-23
9.00979e-23
3.2207e-22
1.19802e-21
4.13802e-21
1.27699e-20
-1.76607e-53
-6.45644e-50
1.72723e-42
1.9889e-40
1.0063e-38
3.87886e-37
1.25515e-35
3.5124e-34
8.67051e-33
1.91652e-31
3.83863e-30
5.82736e-29
8.58092e-27
1.35018e-24
1.59026e-23
4.89692e-23
7.10984e-23
7.26919e-23
3.65549e-23
1.77949e-23
1.20554e-23
6.77419e-24
3.22706e-24
1.2839e-24
3.98858e-25
1.09699e-25
5.44866e-26
5.41062e-26
9.50044e-26
1.47715e-25
1.93723e-25
2.39631e-25
2.79006e-25
3.04459e-25
3.22227e-25
3.48691e-25
4.11569e-25
5.61355e-25
9.5328e-25
2.23333e-24
7.07032e-24
2.57529e-23
9.50146e-23
3.18894e-22
9.44532e-22
-5.15656e-56
9.77562e-47
-7.23739e-45
2.65308e-42
1.70913e-40
7.16733e-39
2.34765e-37
6.67093e-36
1.6777e-34
3.79177e-33
-4.5239e-33
2.98977e-30
2.39334e-28
2.21991e-26
2.11446e-25
7.10054e-25
1.32369e-24
1.73997e-24
1.87237e-24
1.35196e-24
6.02471e-25
3.21831e-25
1.71104e-25
7.32589e-26
2.38022e-26
6.18444e-27
2.02545e-27
1.56304e-27
2.41049e-27
4.40766e-27
6.34724e-27
8.47732e-27
1.05615e-26
1.23243e-26
1.39498e-26
1.62295e-26
2.06851e-26
3.07428e-26
5.77154e-26
1.48889e-25
4.98212e-25
1.84207e-24
6.7526e-24
2.213e-23
6.32855e-23
-6.74522e-49
-1.37834e-46
-3.49341e-45
-1.97342e-43
-8.75727e-42
-3.23123e-40
-1.00448e-38
-2.67872e-37
-6.21905e-36
-1.25869e-34
-1.21616e-33
3.61809e-32
4.23356e-30
6.02215e-28
6.79474e-27
2.50157e-26
4.86936e-26
6.51582e-26
7.05928e-26
5.6807e-26
2.99199e-26
1.74668e-26
1.01778e-26
4.84685e-27
1.73125e-27
4.60543e-28
1.06653e-28
4.888e-29
5.15015e-29
1.08971e-28
1.80094e-28
2.60721e-28
3.51499e-28
4.41709e-28
5.37418e-28
6.74794e-28
9.33527e-28
1.5193e-27
3.16172e-27
8.93159e-27
3.13731e-26
1.1759e-25
4.29601e-25
1.38202e-24
3.83856e-24
-2.96372e-62
2.83676e-50
2.91025e-48
1.94002e-46
1.02504e-44
4.22951e-43
1.46172e-41
4.35355e-40
1.14139e-38
2.67742e-37
5.69209e-36
1.64151e-34
2.44948e-32
6.12365e-30
1.00394e-28
4.69695e-28
1.08423e-27
1.63829e-27
1.89442e-27
1.89818e-27
1.20899e-27
7.17136e-28
4.33282e-28
2.15322e-28
7.95604e-29
2.16554e-29
4.66182e-30
1.41856e-30
1.15364e-30
2.15943e-30
4.30584e-30
6.92551e-30
1.02056e-29
1.38991e-29
1.82969e-29
2.49316e-29
3.76367e-29
6.73905e-29
1.55669e-28
4.7891e-28
1.75823e-27
6.68556e-27
2.44426e-26
7.76162e-26
2.10638e-25
-1.16708e-65
2.09547e-53
-8.15479e-51
2.14969e-49
1.04871e-47
4.26601e-46
1.4506e-44
4.32702e-43
1.17482e-41
2.96246e-40
-2.09072e-39
4.43319e-37
2.45239e-35
1.45111e-32
6.11505e-31
4.90629e-30
1.62659e-29
3.15247e-29
4.33563e-29
4.79445e-29
4.41497e-29
2.44453e-29
1.29248e-29
6.30486e-30
2.37635e-30
6.56801e-31
1.3533e-31
3.03686e-32
1.95396e-32
3.48848e-32
8.60533e-32
1.56932e-31
2.54987e-31
3.80325e-31
5.46473e-31
8.13077e-31
1.34664e-30
2.66587e-30
6.83792e-30
2.28095e-29
8.73768e-29
3.37896e-28
1.24246e-27
3.91732e-27
1.04507e-26
-1.52446e-56
-3.15994e-54
-1.01875e-52
-6.33915e-51
-2.9687e-49
-1.15196e-47
-3.76152e-46
-1.04525e-44
-2.50139e-43
-5.15235e-42
-5.99639e-41
6.76976e-40
1.40427e-38
3.24649e-36
1.19837e-33
2.66345e-32
1.65918e-31
4.73866e-31
8.29342e-31
1.06334e-30
1.13502e-30
8.53999e-31
3.85916e-31
1.67598e-31
6.52601e-32
1.97838e-32
4.45137e-33
8.7281e-34
3.81945e-34
4.47179e-34
1.35589e-33
2.96848e-33
5.40742e-33
8.95952e-33
1.41887e-32
2.32225e-32
4.24364e-32
9.33533e-32
2.65908e-31
9.5937e-31
3.83774e-30
1.51532e-29
5.63647e-29
1.77543e-28
4.68511e-28
-4.53651e-73
2.48161e-59
2.96963e-57
2.16148e-55
1.39147e-53
6.54344e-52
2.56414e-50
8.62174e-49
2.54555e-47
6.71534e-46
1.60504e-44
5.35895e-43
1.22209e-41
5.61115e-40
5.75395e-37
4.06695e-35
5.11549e-34
2.45943e-33
6.30086e-33
1.06575e-32
1.35721e-32
1.4492e-32
1.09674e-32
4.62391e-33
1.69894e-33
5.2678e-34
1.21063e-34
2.1004e-35
5.64335e-36
4.94795e-36
1.65126e-35
4.56045e-35
9.59541e-35
1.79254e-34
3.16651e-34
5.75454e-34
1.168e-33
2.86917e-33
9.08147e-33
3.54378e-32
1.48501e-31
6.01845e-31
2.27946e-30
7.22014e-30
1.89665e-29
-1.55649e-77
-2.61033e-63
-5.46312e-60
-7.30327e-60
-8.53216e-58
-4.72193e-56
-2.21022e-54
-7.46957e-53
-1.81581e-51
-2.62547e-50
2.10035e-49
2.08999e-46
5.89583e-45
1.10633e-43
1.39346e-41
1.21194e-38
6.3408e-37
8.08381e-36
3.91801e-35
9.72552e-35
1.55313e-34
1.85499e-34
1.88746e-34
1.09794e-34
3.71547e-35
1.0639e-35
2.5691e-36
5.07846e-37
1.09137e-37
6.41175e-38
1.3966e-37
5.46795e-37
1.39392e-36
2.99697e-36
6.00099e-36
1.22369e-35
2.7802e-35
7.66401e-35
2.70147e-34
1.14339e-33
5.0461e-33
2.11278e-32
8.20762e-32
2.63235e-31
6.92896e-31
-5.75282e-67
-1.37991e-64
-5.48743e-63
-3.95285e-61
-2.10031e-59
-9.31031e-58
-3.40318e-56
-1.04742e-54
-2.75054e-53
-6.14026e-52
-9.1122e-51
1.14094e-49
2.83172e-48
6.0022e-47
1.12011e-45
2.24974e-43
1.40024e-40
5.52926e-39
6.95794e-38
3.41703e-37
8.50047e-37
1.34506e-36
1.58433e-36
1.59169e-36
8.73313e-37
2.71345e-37
6.71676e-38
1.34003e-38
2.32313e-39
8.01987e-40
9.13723e-40
4.78431e-39
1.60473e-38
4.10976e-38
9.50919e-38
2.20439e-37
5.65683e-37
1.75936e-36
6.9377e-36
3.20412e-35
1.5006e-34
6.54129e-34
2.6277e-33
8.59606e-33
2.28282e-32
-6.41696e-86
8.88898e-71
1.23492e-68
6.39796e-67
8.27568e-65
4.53674e-63
2.07859e-61
8.14119e-60
2.81952e-58
8.81382e-57
2.527e-55
8.82959e-54
3.08751e-52
6.94387e-51
1.38252e-49
2.30642e-47
2.80062e-44
2.17293e-42
5.73053e-41
5.48545e-40
2.22647e-39
4.9065e-39
7.2039e-39
8.14445e-39
7.76666e-39
3.78885e-39
1.1661e-39
2.92521e-40
5.9426e-41
1.30733e-41
7.92922e-42
2.73597e-41
1.39459e-40
4.50852e-40
1.23635e-39
3.31406e-39
9.69877e-39
3.42528e-38
1.52278e-37
7.74969e-37
3.89043e-36
1.78177e-35
7.4689e-35
2.5118e-34
6.77791e-34
7.24379e-90
-1.18604e-74
-1.17554e-71
-1.02909e-70
-9.1644e-69
-5.461e-67
-2.7131e-65
-1.04959e-63
-3.19231e-62
-7.30161e-61
-9.46608e-60
1.04691e-57
3.50883e-56
8.42222e-55
1.79661e-53
5.60501e-52
5.76344e-49
8.84566e-47
4.42113e-45
1.39386e-43
1.8255e-42
9.51942e-42
2.43321e-41
3.84453e-41
4.47311e-41
4.42098e-41
2.29608e-41
6.62854e-42
1.42411e-42
2.44904e-43
7.76762e-44
1.06279e-43
8.57874e-43
3.807e-42
1.29038e-41
4.08251e-41
1.37622e-40
5.56174e-40
2.82179e-39
1.60582e-38
8.75452e-38
4.25797e-37
1.88165e-36
6.56053e-36
1.8123e-35
-1.47414e-79
-4.19488e-77
-2.02539e-75
-1.75127e-73
-1.10372e-71
-5.7972e-70
-2.49653e-68
-9.0209e-67
-2.76794e-65
-7.17291e-64
-1.20801e-62
1.221e-61
3.70997e-60
9.5395e-59
2.25531e-57
5.14116e-56
2.14886e-53
8.61898e-51
3.44627e-49
1.29708e-47
3.86514e-46
5.41072e-45
3.09329e-44
8.52036e-44
1.415e-43
1.69758e-43
1.72047e-43
9.76503e-44
2.81792e-44
5.65075e-45
1.07241e-45
5.80602e-46
3.31335e-45
2.35521e-44
1.053e-43
4.03004e-43
1.57851e-42
7.35779e-42
4.34172e-41
2.82383e-40
1.70069e-39
8.89765e-39
4.19383e-38
1.52989e-37
4.36071e-37
9.58197e-98
4.74987e-84
7.78274e-82
4.47154e-80
7.71679e-78
5.10129e-76
2.84509e-74
1.35928e-72
5.78223e-71
2.23621e-69
7.98078e-68
4.02004e-66
1.48885e-64
4.1107e-63
1.06836e-61
2.50154e-60
1.24629e-57
9.4095e-55
3.84896e-53
1.19577e-51
4.03117e-50
1.18911e-48
1.71471e-47
1.00304e-46
2.78339e-46
4.61073e-46
5.49736e-46
5.53947e-46
3.07469e-46
8.66411e-47
1.75474e-47
5.60356e-48
8.3009e-48
1.01029e-46
6.50522e-46
3.11106e-45
1.41564e-44
7.63851e-44
5.40712e-43
4.15936e-42
2.83259e-41
1.61928e-40
8.25158e-40
3.18131e-39
9.435e-39
-1.00499e-103
-3.70126e-88
-3.40192e-85
-4.66223e-84
-4.97072e-82
-3.4988e-80
-2.05424e-78
-9.42105e-77
-3.37931e-75
-8.91365e-74
-1.15128e-72
1.61036e-70
6.02718e-69
1.79484e-67
5.02976e-66
1.27398e-64
3.27612e-62
3.48777e-59
1.9133e-57
5.96237e-56
1.5749e-54
4.55963e-53
1.47486e-51
2.91551e-50
2.29138e-49
7.63247e-49
1.37138e-48
1.67165e-48
1.68456e-48
9.07531e-49
2.38245e-49
5.58798e-50
3.04892e-50
2.79644e-49
3.03203e-48
1.84982e-47
9.4418e-47
5.76921e-46
5.19723e-45
5.0289e-44
4.00714e-43
2.55349e-42
1.42967e-41
5.89075e-41
1.8341e-40
-8.56733e-94
-2.85669e-91
-1.63624e-89
-1.71956e-87
-1.29505e-85
-8.18766e-84
-4.24893e-82
-1.84849e-80
-6.80176e-79
-2.09437e-77
-3.74059e-76
5.90352e-75
2.16017e-73
6.95877e-72
2.10973e-70
5.80137e-69
5.84745e-67
1.00286e-63
9.50205e-62
3.5397e-60
1.00506e-58
2.52186e-57
6.78655e-56
2.15677e-54
4.90199e-53
4.66847e-52
1.81826e-51
3.60878e-51
4.64805e-51
4.80642e-51
2.8497e-51
7.86257e-52
2.70307e-52
5.81901e-52
1.04409e-50
8.84567e-50
4.48618e-49
4.33502e-48
4.80251e-47
4.78665e-46
4.73984e-45
3.46567e-44
2.17472e-43
9.6978e-43
3.20059e-42
-2.50335e-115
1.48535e-98
3.04496e-96
3.01169e-94
4.65284e-92
3.86705e-90
2.73747e-88
1.6612e-86
8.95686e-85
4.36713e-83
1.95209e-81
1.35585e-79
5.40427e-78
1.8886e-76
6.21533e-75
1.93574e-73
5.54231e-72
3.52463e-69
3.61558e-66
1.73129e-64
5.80183e-63
1.61221e-61
4.04381e-60
1.08017e-58
3.53764e-57
9.10083e-56
9.98111e-55
4.31217e-54
9.08977e-54
1.20461e-53
1.25669e-53
7.71244e-54
2.73417e-54
1.81415e-54
2.75895e-53
4.32528e-52
2.14416e-51
2.73246e-50
3.71019e-49
4.43107e-48
4.49625e-47
4.00993e-46
2.89371e-45
1.41692e-44
5.00901e-44
4.83356e-117
-5.18188e-103
-5.60206e-100
-8.52402e-99
-1.23243e-96
-9.89839e-95
-6.99459e-93
-3.7567e-91
-1.49717e-89
-3.5376e-88
5.64514e-87
2.3778e-84
1.02115e-82
3.88482e-81
1.39263e-79
4.73384e-78
1.47718e-76
3.811e-74
6.94006e-71
5.39529e-69
2.20406e-67
7.20484e-66
2.03841e-64
5.22988e-63
1.3919e-61
4.75644e-60
1.50889e-58
2.08252e-57
1.03847e-56
2.31358e-56
3.05223e-56
3.10038e-56
1.87308e-56
9.64187e-57
7.44436e-56
1.60358e-54
1.20206e-53
1.41123e-52
2.27578e-51
3.39065e-50
3.8541e-49
3.85179e-48
3.35262e-47
1.83352e-46
7.0235e-46
-3.65632e-109
-1.47798e-106
-9.96342e-105
-1.33497e-102
-1.19504e-100
-9.23273e-99
-5.8458e-97
-3.09146e-95
-1.3674e-93
-4.91718e-92
-6.93189e-91
3.94253e-89
1.7733e-87
7.37476e-86
2.89115e-84
1.075e-82
3.78617e-81
1.27972e-79
1.24395e-76
1.2102e-73
6.485e-72
2.50841e-70
8.23652e-69
2.40321e-67
6.40676e-66
1.7294e-64
5.91013e-63
2.15183e-61
3.74309e-60
2.26356e-59
5.65311e-59
7.87598e-59
8.22278e-59
6.45702e-59
1.99054e-58
5.03368e-57
1.0758e-55
6.60512e-55
1.08813e-53
2.08571e-52
2.94233e-51
3.01753e-50
3.35889e-49
2.09628e-48
8.81391e-48
4.98825e-129
5.53967e-114
1.44642e-111
2.18596e-109
3.48713e-107
3.79446e-105
3.42531e-103
2.68658e-101
1.87027e-99
1.17604e-97
6.80463e-96
6.21097e-94
3.03844e-92
1.38793e-90
5.97946e-89
2.44406e-87
9.52815e-86
3.44552e-84
5.37285e-82
1.39968e-78
1.51275e-76
7.44171e-75
2.90394e-73
9.92576e-72
3.06704e-70
8.72757e-69
2.49652e-67
9.02071e-66
3.72712e-64
7.61225e-63
5.16594e-62
1.37754e-61
2.06122e-61
2.44412e-61
6.48343e-61
1.48102e-59
3.96877e-58
3.37934e-57
4.12251e-56
9.96404e-55
1.84716e-53
2.31248e-52
2.84697e-51
2.11151e-50
9.88797e-50
1.35906e-133
-9.08359e-119
-1.07254e-115
-2.68648e-114
-2.52266e-112
-2.92691e-110
-2.35078e-108
-1.33052e-106
-3.57751e-105
2.45941e-103
6.47976e-101
5.55228e-99
2.986e-97
1.50647e-95
7.17666e-94
3.24679e-92
1.40201e-90
5.8049e-89
2.24493e-87
1.03496e-84
2.46105e-81
1.96934e-79
9.67717e-78
3.94234e-76
1.43373e-74
4.77014e-73
1.46986e-71
4.55949e-70
1.84206e-68
8.95375e-67
1.99412e-65
1.35013e-64
3.58843e-64
5.89652e-64
1.64119e-63
3.32468e-62
1.13643e-60
2.78789e-59
1.46526e-58
3.50808e-57
9.27147e-56
1.48455e-54
2.03462e-53
1.86701e-52
9.90579e-52
-2.15805e-125
-1.05358e-122
-9.73345e-121
-1.21229e-118
-1.48384e-116
-1.40743e-114
-1.09262e-112
-6.95547e-111
-3.55462e-109
-1.23687e-107
7.62889e-106
4.96256e-104
2.96908e-102
1.66806e-100
8.8547e-99
4.46556e-97
2.14996e-95
9.92551e-94
4.41138e-92
1.84283e-90
1.04024e-87
2.48889e-84
1.85441e-82
9.47137e-81
4.10331e-79
1.60457e-77
5.78752e-76
1.9415e-74
6.50704e-73
2.82483e-71
1.53831e-69
3.85813e-68
2.9885e-67
1.00012e-66
3.67175e-66
7.43702e-65
2.94661e-63
9.00696e-62
6.89113e-61
8.3375e-60
3.52791e-58
7.80476e-57
1.19372e-55
1.44241e-54
8.85142e-54
-3.06428e-145
3.85447e-130
1.31306e-127
2.95516e-125
5.32576e-123
7.43434e-121
8.90932e-119
9.35352e-117
8.76195e-115
7.45547e-113
8.75676e-111
6.33296e-109
4.25942e-107
2.69254e-105
1.60908e-103
9.1378e-102
4.95425e-100
2.57538e-98
1.28871e-96
6.23e-95
2.8473e-93
9.55663e-91
2.4915e-87
2.00273e-85
1.11857e-83
5.3308e-82
2.30368e-80
9.21695e-79
3.44513e-77
1.30283e-75
6.39091e-74
3.54622e-72
9.00979e-71
8.381e-70
5.89055e-69
1.28439e-67
5.02596e-66
2.49584e-64
5.06336e-63
1.34308e-62
8.83984e-61
3.2538e-59
6.78324e-58
9.56862e-57
7.04688e-56
1.84752e-147
2.81527e-135
-6.45145e-133
4.96742e-130
7.12772e-128
1.15231e-125
1.66234e-123
2.07754e-121
2.32268e-119
2.90783e-117
2.8472e-115
2.33265e-113
1.78695e-111
1.28792e-109
8.7807e-108
5.6903e-106
3.52071e-104
2.08832e-102
1.1921e-100
6.57294e-99
3.51279e-97
1.78404e-95
1.47074e-93
2.46975e-90
2.55057e-88
1.65234e-86
8.99892e-85
4.43821e-83
2.03691e-81
8.81908e-80
3.82284e-78
1.94193e-76
1.0571e-74
3.37272e-73
6.83912e-72
2.0324e-70
9.11358e-69
6.91711e-67
1.75012e-65
4.90519e-65
6.40389e-64
9.86109e-62
3.29414e-60
5.44201e-59
4.99327e-58
-1.48636e-141
-8.80096e-139
2.38629e-137
-1.51954e-134
-1.75858e-132
-9.39505e-131
6.17856e-129
3.48036e-126
7.03223e-124
8.49268e-122
8.64709e-120
8.19587e-118
7.27775e-116
6.08759e-114
4.82007e-112
3.62874e-110
2.60828e-108
1.79701e-106
1.19113e-104
7.6231e-103
4.72657e-101
2.84858e-99
1.65218e-97
9.53432e-96
2.00568e-93
8.01184e-91
6.96554e-89
4.68013e-87
2.79301e-85
1.55336e-83
8.24145e-82
4.26407e-80
2.22174e-78
1.15877e-76
5.49338e-75
2.49031e-73
1.25206e-71
7.65319e-70
3.35085e-68
4.19604e-67
1.7284e-66
1.45566e-64
1.31832e-62
2.60684e-61
3.14651e-60
1.85939e-147
3.1539e-145
1.3489e-142
3.93113e-140
8.99527e-138
1.77571e-135
3.57617e-133
6.30152e-131
8.86923e-129
1.1501e-126
1.38461e-124
1.55675e-122
1.64285e-120
1.63472e-118
1.54029e-116
1.37986e-114
1.17985e-112
9.66511e-111
7.61291e-109
5.78602e-107
4.25758e-105
3.0431e-103
2.11936e-101
1.44258e-99
9.45963e-98
6.89995e-96
5.35156e-93
7.58033e-91
6.49002e-89
4.7042e-87
3.12799e-85
1.97341e-83
1.20417e-81
7.20662e-80
4.25179e-78
2.4598e-76
1.4172e-74
8.47422e-73
8.06399e-71
2.82994e-69
3.99336e-69
2.08771e-67
4.12662e-65
1.13877e-63
1.75356e-62
8.76879e-148
1.85659e-147
2.29265e-147
-2.80234e-145
1.67931e-143
3.76894e-141
1.05396e-138
1.94886e-136
3.31097e-134
5.23295e-132
7.72228e-130
1.06759e-127
1.38739e-125
1.70078e-123
1.9739e-121
2.17684e-119
2.28955e-117
2.30508e-115
2.22941e-113
2.07866e-111
1.87474e-109
1.64092e-107
1.39828e-105
1.16352e-103
9.48165e-102
7.58594e-100
5.88823e-98
5.7499e-96
7.62428e-93
9.72303e-91
9.06968e-89
7.4495e-87
5.70739e-85
4.18884e-83
2.99047e-81
2.09556e-79
1.44462e-77
1.02775e-75
1.29589e-73
5.37279e-72
8.06336e-72
5.66107e-70
8.72848e-68
4.63922e-66
8.6553e-65
6.82118e-151
1.84873e-149
7.38259e-148
1.80734e-147
1.81864e-147
6.51101e-149
5.03266e-145
1.15816e-142
2.50508e-140
5.09824e-138
9.74444e-136
1.74921e-133
2.95333e-131
4.70144e-129
7.07838e-127
1.01138e-124
1.37636e-122
1.79056e-120
2.2349e-118
2.68592e-116
3.11889e-114
3.51099e-112
3.84392e-110
4.10546e-108
4.28996e-106
4.39783e-104
4.43436e-102
4.3728e-100
4.29398e-98
1.28895e-95
1.06092e-92
1.50614e-90
1.65051e-88
1.61567e-86
1.48444e-84
1.31021e-82
1.12293e-80
9.69857e-79
1.29642e-76
7.12286e-75
1.49401e-74
1.38536e-72
7.80098e-71
1.62858e-68
3.80793e-67
1.35251e-153
4.06976e-152
5.61729e-151
5.01322e-150
6.74857e-149
1.46274e-147
1.81824e-147
1.85607e-147
3.91134e-147
4.02015e-145
1.09405e-142
2.81048e-140
6.77305e-138
1.53443e-135
3.27804e-133
6.6276e-131
1.27305e-128
2.3323e-126
4.09129e-124
6.89797e-122
1.1219e-119
1.76638e-117
2.70123e-115
4.02489e-113
5.86077e-111
8.363e-109
1.17242e-106
1.61852e-104
2.20468e-102
2.94705e-100
3.93402e-98
1.86976e-95
1.84952e-92
3.3042e-90
4.55328e-88
5.58986e-86
6.40611e-84
7.11239e-82
8.88193e-80
8.30835e-78
2.61231e-76
3.18778e-75
2.41154e-73
4.83279e-71
1.55048e-69
1.13593e-157
2.5184e-156
4.59538e-155
7.41793e-154
1.0814e-152
1.36972e-151
1.57205e-150
3.78329e-149
1.34819e-147
1.80102e-147
1.80862e-147
1.58753e-147
-3.86325e-148
6.69517e-145
9.10498e-142
4.65823e-139
1.84467e-136
6.36854e-134
2.00511e-131
5.89287e-129
1.64003e-126
4.36539e-124
1.11954e-121
2.78222e-119
6.73127e-117
1.59154e-114
3.68925e-112
8.40644e-110
1.88699e-107
4.17936e-105
9.14242e-103
1.97304e-100
4.18738e-98
1.50628e-95
5.1934e-92
1.29831e-89
2.40744e-87
3.90339e-85
6.01949e-83
9.27023e-81
1.06606e-78
7.37487e-78
7.46189e-76
1.1679e-73
6.55547e-72
1.08766e-164
1.85827e-163
3.71722e-162
9.19822e-161
2.73912e-159
8.93731e-158
2.89055e-156
8.50615e-155
2.14169e-153
4.73605e-152
1.61047e-150
1.63886e-148
1.38194e-147
1.7669e-147
1.58074e-147
8.31533e-148
-2.46243e-145
-8.4966e-143
-2.74417e-140
-8.38333e-138
-2.43078e-135
-6.7058e-133
-1.75961e-130
-4.35591e-128
-9.82802e-126
-1.73956e-123
1.90521e-122
3.87257e-118
3.3941e-115
2.39666e-112
1.58243e-109
1.01275e-106
6.33555e-104
3.86608e-101
2.27388e-98
1.87957e-95
3.22356e-91
1.2394e-88
3.29016e-86
7.82103e-84
1.58356e-81
1.95733e-80
2.54794e-78
1.9656e-76
2.75818e-74
8.48727e-181
1.2457e-179
3.7025e-178
2.05188e-176
1.80425e-174
2.17837e-172
3.15168e-170
4.8065e-168
7.00954e-166
9.19985e-164
1.04956e-161
1.01976e-159
8.37478e-158
6.13835e-156
5.91002e-154
1.34645e-151
4.52522e-149
1.39192e-147
1.06638e-147
5.33659e-148
-1.74886e-147
-3.96321e-145
-3.17571e-142
5.48817e-138
-1.85222e-136
-1.28532e-133
-8.9042e-131
-5.98985e-128
-3.92131e-125
-2.50212e-122
-1.55793e-119
-9.46994e-117
-5.6165e-114
-3.24362e-111
-1.81635e-108
-9.78595e-106
-5.00415e-103
3.61491e-96
2.45097e-90
3.99118e-87
1.13337e-84
8.39449e-83
1.95733e-80
2.54794e-78
1.68226e-76
)
;

boundaryField
{
    leftWall
    {
        type            zeroGradient;
    }
    rightWall
    {
        type            zeroGradient;
    }
    lowerWall
    {
        type            zeroGradient;
    }
    atmosphere
    {
        type            inletOutlet;
        inletValue      uniform 0;
        value           nonuniform List<scalar> 
45
(
0
0
0
0
0
0
0
0
0
0
0
0
0
0
0
0
0
0
0
0
0
0
0
0
0
0
0
0
0
0
0
0
0
0
0
0
0
0
0
0
1.13337e-84
8.39449e-83
1.95733e-80
2.54794e-78
1.68226e-76
)
;
    }
    defaultFaces
    {
        type            empty;
    }
    procBoundary2to0
    {
        type            processor;
        value           nonuniform List<scalar> 
46
(
-2.65251e-09
-1.95315e-09
-1.15486e-09
-6.52831e-10
-3.30558e-10
-7.48668e-11
3.93604e-11
4.06025e-11
3.48867e-11
3.55674e-11
3.37098e-11
2.62262e-11
1.80074e-11
1.171e-11
7.48252e-12
4.69834e-12
2.9443e-12
1.96975e-12
1.56875e-12
1.48313e-12
1.91265e-12
4.79455e-12
2.24817e-11
8.52431e-11
1.99362e-10
-4.8512e-17
-1.28272e-15
-1.64727e-14
-1.49819e-13
-9.1145e-13
-4.09643e-12
-1.91015e-12
-4.49316e-12
-1.82503e-11
-4.86761e-11
-1.00843e-10
-1.73107e-10
-2.69732e-10
-3.6286e-10
-3.55093e-10
-3.10259e-10
-5.25233e-10
-1.02486e-09
-1.66899e-09
-2.09627e-09
-2.09627e-09
)
;
    }
    procBoundary2to3
    {
        type            processor;
        value           nonuniform List<scalar> 
43
(
1.34905e-10
5.5572e-11
1.44135e-11
2.27359e-12
3.16812e-13
4.15813e-14
5.0327e-15
5.58647e-16
5.67694e-17
5.27402e-18
4.47413e-19
3.46276e-20
2.44325e-21
1.57072e-22
9.19534e-24
4.8997e-25
2.37503e-26
1.04669e-27
4.19189e-29
1.52485e-30
5.03551e-32
1.50884e-33
4.10054e-35
1.01035e-36
2.25613e-38
4.56348e-40
8.35951e-42
1.38621e-43
2.08037e-45
2.82527e-47
3.47206e-49
3.86096e-51
3.88574e-53
3.54178e-55
2.92759e-57
2.19958e-59
1.50801e-61
9.49384e-64
5.54427e-66
3.04904e-68
1.61636e-70
8.55359e-73
7.22749e-75
)
;
    }
}


// ************************************************************************* //
