/*--------------------------------*- C++ -*----------------------------------*\
| =========                 |                                                 |
| \\      /  F ield         | OpenFOAM: The Open Source CFD Toolbox           |
|  \\    /   O peration     | Version:  5.0                                   |
|   \\  /    A nd           | Web:      www.OpenFOAM.org                      |
|    \\/     M anipulation  |                                                 |
\*---------------------------------------------------------------------------*/
FoamFile
{
    version     2.0;
    format      ascii;
    class       volScalarField;
    location    "0.25";
    object      k;
}
// * * * * * * * * * * * * * * * * * * * * * * * * * * * * * * * * * * * * * //

dimensions      [0 2 -2 0 0 0 0];

internalField   nonuniform List<scalar> 
1915
(
0.286334
0.297101
0.306392
0.313748
0.318754
0.321105
0.320662
0.317495
0.31189
0.30431
0.295344
0.285654
0.275768
0.266158
0.257187
0.249094
0.242001
0.235931
0.230846
0.226673
0.223325
0.220722
0.218787
0.21744
0.216589
0.0392609
0.0638162
0.0798675
0.0920064
0.102715
0.112935
0.123086
0.133361
0.14385
0.154587
0.165576
0.17681
0.188272
0.199932
0.211751
0.223677
0.235625
0.247467
0.259029
0.270074
0.280304
0.289372
0.296905
0.30254
0.305973
0.307009
0.305605
0.301892
0.296169
0.288873
0.280534
0.271683
0.262764
0.25416
0.246162
0.238948
0.232597
0.227107
0.222422
0.218456
0.215113
0.212297
0.209915
0.207875
0.206076
0.0402417
0.0658901
0.0821501
0.0943458
0.10503
0.115173
0.125206
0.135336
0.145652
0.156185
0.166931
0.177866
0.188956
0.200153
0.2114
0.222621
0.233715
0.244544
0.254931
0.26465
0.273434
0.280987
0.287005
0.29121
0.293391
0.293442
0.291384
0.287382
0.281731
0.274823
0.267138
0.259082
0.251028
0.243289
0.236093
0.229574
0.223783
0.218703
0.214272
0.210402
0.206995
0.203954
0.201184
0.198593
0.19609
0.041006
0.0676657
0.0842065
0.0964993
0.107178
0.117238
0.127128
0.137064
0.147143
0.157395
0.167812
0.178362
0.188998
0.199658
0.21027
0.220743
0.230965
0.240795
0.250058
0.25855
0.266036
0.272269
0.27701
0.280057
0.281271
0.280609
0.278137
0.274035
0.26858
0.262119
0.255055
0.247717
0.240412
0.233392
0.226839
0.220853
0.215469
0.210662
0.206371
0.202514
0.199
0.195736
0.192635
0.189615
0.186599
0.0415403
0.0691541
0.0859881
0.0983988
0.109085
0.119063
0.128795
0.138507
0.148303
0.15822
0.168247
0.178349
0.188472
0.198544
0.208484
0.218191
0.22755
0.236419
0.244636
0.252016
0.258361
0.263469
0.267159
0.269287
0.269773
0.268618
0.265913
0.261838
0.256647
0.25064
0.244146
0.237436
0.230763
0.224329
0.218279
0.212692
0.207591
0.202952
0.19872
0.194823
0.191179
0.187707
0.184332
0.180984
0.177601
0.0418531
0.0703265
0.0874405
0.0999752
0.110677
0.120575
0.130141
0.139612
0.1491
0.158646
0.168244
0.177858
0.187431
0.196888
0.206141
0.215089
0.223614
0.231582
0.238843
0.245237
0.250596
0.254764
0.257602
0.259017
0.25897
0.257491
0.254682
0.250715
0.245816
0.240241
0.234255
0.228084
0.221934
0.21597
0.210308
0.205014
0.200105
0.195561
0.191336
0.187369
0.183591
0.179937
0.176342
0.172752
0.16912
0.041948
0.0711539
0.088514
0.101164
0.111882
0.1217
0.131098
0.14032
0.149487
0.158645
0.167794
0.1769
0.185908
0.194743
0.203317
0.211529
0.219266
0.226404
0.232808
0.23834
0.242863
0.246255
0.248417
0.24929
0.248864
0.247186
0.244362
0.24055
0.235946
0.230766
0.225225
0.219509
0.213788
0.208199
0.202838
0.19776
0.19298
0.188484
0.184238
0.180193
0.176295
0.17249
0.168729
0.164971
0.161181
0.0418286
0.0716142
0.0891686
0.101914
0.112638
0.122374
0.131603
0.140575
0.149417
0.158182
0.166877
0.175473
0.183918
0.192141
0.200058
0.207573
0.21458
0.220965
0.226611
0.2314
0.235223
0.237985
0.239616
0.240085
0.2394
0.237616
0.234836
0.231201
0.22688
0.222056
0.216899
0.211568
0.206202
0.200915
0.19579
0.190875
0.186186
0.181717
0.177443
0.173328
0.169332
0.165415
0.161541
0.15768
0.15381
0.0415019
0.0716966
0.0893786
0.102185
0.112899
0.122545
0.131604
0.140327
0.148847
0.157223
0.16547
0.173565
0.181462
0.189097
0.196392
0.203257
0.209597
0.215309
0.220293
0.22445
0.227692
0.229947
0.231169
0.231343
0.230489
0.228666
0.225967
0.222518
0.218463
0.213955
0.209133
0.204128
0.19906
0.194025
0.189093
0.18431
0.179695
0.175248
0.170955
0.166792
0.162732
0.158745
0.154809
0.150903
0.147016
0.0409801
0.0714026
0.089134
0.101958
0.112636
0.12218
0.131064
0.139539
0.147742
0.15574
0.163551
0.171163
0.178537
0.185615
0.192329
0.198597
0.204335
0.209452
0.213863
0.217486
0.220251
0.222104
0.223014
0.222979
0.222024
0.220208
0.217614
0.214352
0.210544
0.206319
0.201792
0.197072
0.192261
0.187443
0.182681
0.178018
0.173476
0.169062
0.164771
0.16059
0.156502
0.15249
0.148541
0.144643
0.140792
0.0402804
0.0707469
0.0884422
0.101232
0.111843
0.121265
0.129965
0.138192
0.146085
0.153715
0.161109
0.168261
0.17514
0.181698
0.187875
0.193601
0.198799
0.203395
0.207313
0.210488
0.212863
0.214399
0.215076
0.214898
0.213893
0.212116
0.209642
0.206565
0.202988
0.199022
0.19476
0.190296
0.185717
0.181098
0.176496
0.171954
0.167495
0.163134
0.158874
0.15471
0.150637
0.146645
0.142729
0.138886
0.135116
0.0394247
0.0697565
0.0873277
0.100028
0.110532
0.119809
0.128312
0.136288
0.143876
0.151151
0.158145
0.16486
0.171276
0.177352
0.183037
0.188271
0.192991
0.19713
0.200627
0.203427
0.205486
0.206773
0.207278
0.207008
0.205992
0.204278
0.201933
0.199037
0.19568
0.191953
0.187939
0.183713
0.179354
0.174927
0.170488
0.166076
0.161721
0.157441
0.153245
0.149137
0.145119
0.14119
0.137351
0.133604
0.129952
0.0384378
0.0684697
0.0858309
0.0983824
0.10874
0.117843
0.126133
0.133851
0.141136
0.148065
0.154677
0.16098
0.166962
0.172592
0.177827
0.182619
0.186912
0.190653
0.19379
0.196276
0.198078
0.199174
0.199555
0.199232
0.198232
0.196599
0.194389
0.191673
0.188526
0.185027
0.18125
0.177256
0.173113
0.168882
0.164615
0.160353
0.156126
0.151956
0.14786
0.143847
0.139925
0.1361
0.132376
0.12876
0.125258
0.0373474
0.0669336
0.0840052
0.0963512
0.106519
0.115417
0.123475
0.130926
0.137906
0.144498
0.150743
0.156656
0.162231
0.167447
0.172272
0.176664
0.180579
0.183971
0.186797
0.189021
0.190615
0.191561
0.191856
0.19151
0.190548
0.189008
0.186939
0.184402
0.181462
0.178186
0.174641
0.170876
0.166953
0.162928
0.15885
0.154758
0.150687
0.146661
0.1427
0.138819
0.135031
0.131345
0.12777
0.124316
0.120989
0.0361828
0.0652021
0.0819137
0.0940004
0.103936
0.112599
0.120402
0.127574
0.134248
0.140507
0.146396
0.151937
0.157131
0.161964
0.166411
0.170441
0.174017
0.177102
0.179661
0.181663
0.183087
0.183918
0.184156
0.183809
0.1829
0.181463
0.17954
0.177182
0.174447
0.171393
0.16808
0.164548
0.160853
0.157047
0.153175
0.149279
0.145391
0.141539
0.137747
0.134033
0.130412
0.126897
0.123501
0.120232
0.1171
0.0349743
0.0633327
0.0796253
0.091405
0.101069
0.109466
0.116993
0.123873
0.130235
0.136165
0.141709
0.146894
0.151728
0.156202
0.160302
0.164001
0.167272
0.170084
0.172409
0.174222
0.175506
0.176249
0.17645
0.17612
0.175276
0.173949
0.172175
0.169998
0.167467
0.164636
0.161555
0.158265
0.154809
0.151236
0.147591
0.143912
0.140234
0.136586
0.132992
0.129475
0.12605
0.122734
0.119538
0.116474
0.11355
0.0337515
0.0613835
0.0772114
0.0886436
0.0980015
0.106104
0.113336
0.11991
0.125956
0.131558
0.136765
0.141608
0.146099
0.150238
0.154014
0.15741
0.160403
0.162971
0.16509
0.16674
0.167906
0.168581
0.168763
0.16846
0.167691
0.166478
0.164855
0.16286
0.160536
0.157927
0.15508
0.152039
0.148833
0.145509
0.142107
0.138667
0.135223
0.131803
0.128434
0.125137
0.121932
0.118835
0.115858
0.113012
0.110306
0.0325416
0.05941
0.0747414
0.0857948
0.0948183
0.102603
0.109522
0.11578
0.121506
0.12678
0.131658
0.136171
0.140336
0.144158
0.147633
0.150748
0.153488
0.155834
0.157768
0.159275
0.160342
0.160962
0.161136
0.160871
0.16018
0.159086
0.157616
0.155803
0.153685
0.151301
0.148693
0.145904
0.142956
0.139892
0.136749
0.133566
0.130373
0.127202
0.124077
0.12102
0.118052
0.115188
0.112441
0.109823
0.10734
0.0313681
0.0574622
0.0722799
0.0829335
0.0916019
0.099052
0.105644
0.111579
0.116981
0.121932
0.126487
0.130681
0.134536
0.138058
0.14125
0.144104
0.14661
0.148754
0.150521
0.151901
0.152882
0.153459
0.153633
0.15341
0.152802
0.151827
0.150509
0.148878
0.146965
0.144806
0.142439
0.139901
0.137219
0.134423
0.13155
0.128635
0.125708
0.122799
0.119931
0.117128
0.114408
0.111786
0.109276
0.106887
0.104627
0.0302496
0.0555824
0.0698832
0.0801266
0.088428
0.0955325
0.10179
0.107398
0.112477
0.117109
0.121351
0.125239
0.128796
0.132036
0.134962
0.137573
0.139862
0.14182
0.143436
0.1447
0.145605
0.146147
0.146327
0.146149
0.145624
0.144767
0.1436
0.142147
0.140438
0.138502
0.136374
0.134086
0.131671
0.129148
0.12655
0.123909
0.121256
0.118616
0.116013
0.113469
0.111002
0.108625
0.106352
0.104192
0.102151
0.0291996
0.0538035
0.0675976
0.0774312
0.0853628
0.0921189
0.0980417
0.103323
0.108084
0.112405
0.116343
0.119937
0.123213
0.126186
0.128864
0.131248
0.133336
0.135122
0.136598
0.137758
0.138596
0.139109
0.139297
0.139164
0.138721
0.13798
0.13696
0.135682
0.13417
0.132453
0.13056
0.12852
0.126365
0.124112
0.121789
0.119424
0.117044
0.114675
0.112338
0.110053
0.107837
0.105704
0.103664
0.101726
0.0998965
0.0282262
0.0521489
0.0654581
0.0748926
0.0824608
0.0888737
0.0944669
0.0994295
0.103881
0.107902
0.11155
0.114864
0.117874
0.120596
0.123042
0.125216
0.127118
0.128745
0.130094
0.131159
0.131936
0.132423
0.132621
0.132534
0.132169
0.13154
0.13066
0.129549
0.128229
0.126723
0.125057
0.123257
0.121351
0.119364
0.117309
0.115214
0.113103
0.110999
0.108922
0.106891
0.104919
0.103021
0.101205
0.0994808
0.0978521
0.0273331
0.0506328
0.0634883
0.0725438
0.0797637
0.0858461
0.091122
0.0957784
0.0999338
0.103669
0.107042
0.110094
0.112854
0.115343
0.117574
0.119553
0.121284
0.122766
0.123998
0.124975
0.125697
0.126162
0.12637
0.126326
0.126037
0.125512
0.124766
0.123813
0.122673
0.121367
0.119918
0.118348
0.116682
0.114943
0.113145
0.111308
0.109455
0.107606
0.105778
0.103989
0.102251
0.100575
0.0989721
0.0974479
0.0960071
0.0265207
0.0492619
0.0617024
0.0704064
0.0773003
0.0830719
0.0880488
0.0924166
0.0962937
0.0997613
0.102878
0.105685
0.108215
0.110489
0.112521
0.114323
0.115897
0.117246
0.118371
0.11927
0.119941
0.120386
0.120604
0.1206
0.12038
0.119953
0.11933
0.118524
0.117553
0.116434
0.115187
0.113832
0.11239
0.110881
0.109324
0.107731
0.10612
0.104509
0.102916
0.101352
0.099832
0.0983646
0.0969583
0.0956193
0.0943515
0.0257872
0.0480374
0.0601061
0.0684918
0.0750879
0.0805739
0.0852749
0.0893762
0.0929964
0.0962172
0.0990977
0.101681
0.104
0.106078
0.107931
0.10957
0.111003
0.112232
0.11326
0.114087
0.114713
0.115139
0.115367
0.115399
0.115242
0.114903
0.114392
0.113721
0.112903
0.111956
0.110894
0.109736
0.108501
0.107205
0.105866
0.104496
0.103108
0.101717
0.100337
0.098982
0.0976612
0.0963838
0.095157
0.0939862
0.0928753
0.0251298
0.0469576
0.0587005
0.0668044
0.0731346
0.0783638
0.0828156
0.0866755
0.0900628
0.09306
0.0957271
0.0981085
0.100238
0.102139
0.10383
0.105325
0.10663
0.107752
0.108693
0.109456
0.110041
0.110449
0.110684
0.110748
0.110647
0.110386
0.109975
0.109424
0.108745
0.107951
0.107057
0.106077
0.105027
0.103923
0.102779
0.101609
0.100421
0.0992284
0.0980422
0.0968738
0.0957322
0.0946252
0.0935592
0.092539
0.0915679
0.0245459
0.0460205
0.0574841
0.0653442
0.0714421
0.0764452
0.0806763
0.0843217
0.0875016
0.0902996
0.0927767
0.0949783
0.0969386
0.0986835
0.100232
0.101598
0.10279
0.103816
0.104681
0.105385
0.105933
0.106326
0.106566
0.106657
0.106603
0.106411
0.106087
0.105641
0.105084
0.104425
0.103678
0.102855
0.10197
0.101035
0.100064
0.0990688
0.0980572
0.0970385
0.0960227
0.0950191
0.0940356
0.0930788
0.0921544
0.0912665
0.0904185
0.0240348
0.0452258
0.0564566
0.0641106
0.0700096
0.0748172
0.0788563
0.0823141
0.0853122
0.0879355
0.0902459
0.0922897
0.0941022
0.0957098
0.0971328
0.0983858
0.0994795
0.100422
0.101218
0.101871
0.102385
0.102762
0.103005
0.103118
0.103104
0.10297
0.102721
0.102365
0.101911
0.101369
0.100748
0.100061
0.099318
0.0985302
0.0977084
0.0968632
0.0960038
0.0951357
0.0942672
0.0934062
0.0925593
0.0917325
0.0909305
0.0901572
0.0894156
0.0235984
0.0445777
0.0556214
0.0631056
0.0688376
0.0734787
0.0773528
0.0806487
0.0834894
0.085961
0.0881266
0.0900334
0.0917174
0.093206
0.09452
0.0956749
0.0966823
0.0975509
0.0982867
0.0988943
0.0993775
0.0997394
0.0999831
0.100112
0.100131
0.100043
0.0998558
0.099575
0.0992083
0.0987639
0.0982506
0.0976776
0.0970546
0.0963908
0.0956955
0.0949777
0.0942455
0.0935045
0.0927607
0.0920203
0.0912894
0.0905727
0.0898747
0.0891987
0.0885476
0.0232425
0.0440866
0.0549886
0.0623372
0.0679312
0.072432
0.0761653
0.0793219
0.0820266
0.084367
0.0864073
0.0881955
0.0897682
0.0911536
0.0923729
0.0934425
0.0943746
0.0951785
0.0958611
0.0964276
0.0968823
0.0972287
0.0974703
0.0976107
0.0976535
0.0976034
0.0974655
0.0972453
0.0969495
0.0965851
0.0961594
0.0956805
0.0951563
0.0945948
0.0940039
0.0933911
0.0927635
0.0921273
0.0914863
0.0908459
0.0902109
0.0895857
0.088974
0.0883789
0.0878032
0.0229776
0.0437715
0.0545775
0.0618223
0.0673039
0.0716864
0.0752987
0.0783343
0.0809205
0.0831462
0.0850768
0.0867612
0.0882366
0.0895315
0.0906679
0.0916625
0.0925281
0.0932745
0.0939092
0.0944381
0.0948657
0.095196
0.0954327
0.0955792
0.0956393
0.0956171
0.0955172
0.0953444
0.0951045
0.0948034
0.0944475
0.0940435
0.0935982
0.0931186
0.0926113
0.0920828
0.0915392
0.0909862
0.0904275
0.0898672
0.0893094
0.0887578
0.0882158
0.0876863
0.0871717
0.0228192
0.0436616
0.0544191
0.0615896
0.0669798
0.0712605
0.0747659
0.0776934
0.0801728
0.0822953
0.0841271
0.0857181
0.0871059
0.0883196
0.0893812
0.0903081
0.0911134
0.0918074
0.0923979
0.0928912
0.0932923
0.0936053
0.0938341
0.093982
0.0940527
0.09405
0.0939777
0.0938403
0.0936426
0.0933898
0.0930873
0.0927408
0.0923563
0.0919397
0.0914967
0.0910331
0.0905541
0.0900646
0.0895692
0.0890704
0.088572
0.0880772
0.0875891
0.0871103
0.0866433
0.0227897
0.0437989
0.0545585
0.0616813
0.0669955
0.0711842
0.0745895
0.0774146
0.0797926
0.0818169
0.0835552
0.0850579
0.0863632
0.0875003
0.0884918
0.0893549
0.0901034
0.0907475
0.0912956
0.0917541
0.0921282
0.0924223
0.0926401
0.092785
0.0928603
0.0928694
0.0928158
0.0927033
0.092536
0.0923183
0.0920547
0.0917503
0.0914102
0.0910394
0.0906431
0.0902264
0.089794
0.0893503
0.0888996
0.0884447
0.0879886
0.0875343
0.0870847
0.0866424
0.0862097
0.0229204
0.0442411
0.0550577
0.0621553
0.0674012
0.0714986
0.074802
0.0775217
0.0797957
0.0817198
0.083363
0.0847767
0.0859993
0.0870601
0.0879818
0.0887819
0.089474
0.0900687
0.0905743
0.0909974
0.0913433
0.0916164
0.0918201
0.0919579
0.0920326
0.0920472
0.0920048
0.0919084
0.0917615
0.0915676
0.0913308
0.0910551
0.0907449
0.0904048
0.0900392
0.0896529
0.08925
0.088835
0.0884115
0.0879833
0.0875527
0.0871228
0.0866963
0.086276
0.0858644
0.023256
0.0450666
0.055998
0.0630857
0.0682601
0.0722555
0.0754436
0.0780449
0.080203
0.0820167
0.0835565
0.0848743
0.0860086
0.0869889
0.0878375
0.0885719
0.0892055
0.0897489
0.0902104
0.0905964
0.0909122
0.0911618
0.0913487
0.0914758
0.0915457
0.0915608
0.0915235
0.0914363
0.0913019
0.0911232
0.0909031
0.0906451
0.0903528
0.0900301
0.0896811
0.0893098
0.0889206
0.0885175
0.0881044
0.0876852
0.0872627
0.0868402
0.0864206
0.0860071
0.0856025
0.0238629
0.0463808
0.0574842
0.064564
0.0696475
0.073514
0.0765594
0.0790172
0.0810374
0.082722
0.0841428
0.0853518
0.0863875
0.0872787
0.0880474
0.0887107
0.0892816
0.0897703
0.0901848
0.0905313
0.0908145
0.0910384
0.0912059
0.0913196
0.0913814
0.0913933
0.0913571
0.0912744
0.091147
0.090977
0.0907665
0.090518
0.0902342
0.0899182
0.0895734
0.0892037
0.0888128
0.0884052
0.0879849
0.0875561
0.0871229
0.086689
0.0862581
0.0858343
0.0854212
0.0248406
0.0483284
0.0596499
0.0666994
0.0716472
0.0753363
0.078194
0.080469
0.0823184
0.0838467
0.0851263
0.0862086
0.0871311
0.0879218
0.0886015
0.0891865
0.0896891
0.0901187
0.0904826
0.0907867
0.091035
0.091231
0.0913772
0.0914755
0.0915273
0.0915339
0.0914964
0.0914155
0.0912924
0.0911278
0.090923
0.0906791
0.0903978
0.090081
0.0897311
0.0893512
0.0889446
0.0885158
0.0880694
0.0876106
0.0871446
0.0866771
0.0862134
0.0857591
0.0853193
0.0263512
0.0511145
0.0626668
0.0696181
0.0743458
0.0777787
0.0803819
0.0824198
0.0840551
0.0853929
0.0865042
0.0874386
0.0882314
0.0889085
0.0894893
0.0899883
0.0904166
0.0907825
0.0910925
0.0913514
0.0915628
0.0917293
0.0918528
0.0919346
0.0919757
0.0919764
0.0919372
0.0918581
0.0917391
0.0915801
0.0913808
0.0911411
0.0908609
0.0905404
0.0901802
0.0897819
0.0893476
0.0888813
0.0883879
0.0878743
0.0873483
0.0868188
0.0862947
0.0857848
0.0852965
0.028691
0.0550491
0.0667582
0.0734586
0.0778199
0.0808777
0.0831351
0.0848676
0.0862377
0.087347
0.0882618
0.0890271
0.0896744
0.0902262
0.0906991
0.0911054
0.0914544
0.091753
0.0920063
0.092218
0.092391
0.092527
0.0926273
0.0926926
0.0927232
0.0927189
0.0926795
0.0926043
0.0924924
0.0923425
0.0921531
0.0919224
0.0916481
0.0913279
0.0909594
0.0905409
0.0900716
0.0895529
0.0889893
0.0883894
0.0877658
0.0871349
0.086513
0.0859149
0.0853513
0.0324292
0.060628
0.0722091
0.07835
0.0821067
0.0846228
0.0864221
0.0877737
0.0888281
0.0896747
0.0903696
0.0909497
0.0914401
0.0918587
0.0922183
0.0925281
0.0927951
0.0930243
0.0932194
0.0933831
0.093517
0.0936223
0.0936996
0.093749
0.0937703
0.0937631
0.0937264
0.0936592
0.0935599
0.0934264
0.093256
0.0930452
0.0927896
0.0924836
0.0921203
0.0916921
0.0911913
0.0906121
0.0899536
0.0892238
0.0884441
0.0876507
0.086877
0.0861474
0.0854769
0.0387206
0.0686659
0.0793309
0.0843327
0.0871345
0.0889099
0.0901398
0.0910488
0.0917533
0.0923184
0.0927834
0.0931732
0.0935046
0.0937893
0.0940355
0.0942491
0.0944344
0.0945947
0.094732
0.0948478
0.094943
0.0950181
0.095073
0.0951077
0.0951215
0.0951139
0.0950839
0.09503
0.0949507
0.0948435
0.0947053
0.0945316
0.0943163
0.0940509
0.0937236
0.0933185
0.0928151
0.0921894
0.091419
0.0904953
0.089448
0.0883855
0.0873785
0.0864634
0.0856528
0.0509303
0.080481
0.0882022
0.0911283
0.0925928
0.09348
0.0940909
0.0945481
0.0949091
0.0952044
0.0954519
0.0956631
0.0958455
0.0960045
0.0961439
0.0962664
0.096374
0.0964681
0.0965496
0.0966191
0.0966766
0.0967224
0.0967561
0.0967774
0.0967858
0.0967806
0.0967612
0.0967264
0.0966749
0.0966049
0.0965138
0.0963978
0.0962511
0.0960651
0.0958259
0.0955115
0.0950863
0.0944942
0.0936511
0.0924516
0.0908455
0.0893082
0.0879553
0.0868028
0.0858333
0.0862265
0.0967747
0.0974068
0.097638
0.0977801
0.0978976
0.0980034
0.098099
0.0981849
0.0982619
0.0983307
0.0983925
0.098448
0.0984981
0.0985432
0.098584
0.0986207
0.0986536
0.0986827
0.0987081
0.0987297
0.0987474
0.098761
0.0987704
0.0987752
0.0987752
0.09877
0.0987594
0.0987428
0.0987195
0.0986888
0.0986492
0.0985986
0.0985332
0.0984459
0.0983229
0.0981342
0.0978114
0.0971859
0.0958283
0.092518
0.0901719
0.0884088
0.0870369
0.0859442
)
;

boundaryField
{
    leftWall
    {
        type            kqRWallFunction;
        value           nonuniform List<scalar> 
42
(
0.0392609
0.0402417
0.041006
0.0415403
0.0418531
0.041948
0.0418286
0.0415019
0.0409801
0.0402804
0.0394247
0.0384378
0.0373474
0.0361828
0.0349743
0.0337515
0.0325416
0.0313681
0.0302496
0.0291996
0.0282262
0.0273331
0.0265207
0.0257872
0.0251298
0.0245459
0.0240348
0.0235984
0.0232425
0.0229776
0.0228192
0.0227897
0.0229204
0.023256
0.0238629
0.0248406
0.0263512
0.028691
0.0324292
0.0387206
0.0509303
0.0862265
)
;
    }
    rightWall
    {
        type            kqRWallFunction;
        value           nonuniform 0();
    }
    lowerWall
    {
        type            kqRWallFunction;
        value           nonuniform 0();
    }
    atmosphere
    {
        type            inletOutlet;
        inletValue      uniform 0.1;
        value           nonuniform List<scalar> 
45
(
0.1
0.1
0.1
0.1
0.1
0.1
0.1
0.1
0.1
0.1
0.1
0.1
0.1
0.1
0.1
0.1
0.1
0.1
0.1
0.1
0.1
0.1
0.1
0.1
0.1
0.1
0.1
0.1
0.1
0.1
0.1
0.1
0.1
0.1
0.1
0.1
0.1
0.1
0.1
0.1
0.092518
0.0901719
0.0884088
0.0870369
0.0859442
)
;
    }
    defaultFaces
    {
        type            empty;
    }
    procBoundary2to0
    {
        type            processor;
        value           nonuniform List<scalar> 
46
(
0.291174
0.303791
0.315065
0.324439
0.33137
0.335411
0.3363
0.334014
0.328794
0.321115
0.311612
0.30109
0.290172
0.279431
0.269321
0.260158
0.252122
0.245278
0.239618
0.235093
0.231645
0.229224
0.227789
0.227306
0.227716
0.0381453
0.0614721
0.0773993
0.0895441
0.100298
0.110584
0.120808
0.131162
0.141737
0.152577
0.163701
0.175124
0.186861
0.198886
0.211191
0.223751
0.236505
0.249342
0.262099
0.274536
0.274536
)
;
    }
    procBoundary2to3
    {
        type            processor;
        value           nonuniform List<scalar> 
43
(
0.216104
0.204397
0.193576
0.183511
0.174132
0.165411
0.157341
0.149921
0.143144
0.13699
0.131425
0.126405
0.121881
0.1178
0.114113
0.110776
0.107748
0.104999
0.102501
0.100233
0.0981784
0.0963223
0.0946524
0.0931574
0.0918263
0.0906483
0.0896124
0.0887078
0.0879234
0.0872488
0.086674
0.08619
0.0857889
0.0854639
0.0852096
0.0850221
0.0848982
0.0848352
0.084829
0.0848714
0.0849454
0.0850208
0.0850596
)
;
    }
}


// ************************************************************************* //
