/*--------------------------------*- C++ -*----------------------------------*\
| =========                 |                                                 |
| \\      /  F ield         | OpenFOAM: The Open Source CFD Toolbox           |
|  \\    /   O peration     | Version:  5.0                                   |
|   \\  /    A nd           | Web:      www.OpenFOAM.org                      |
|    \\/     M anipulation  |                                                 |
\*---------------------------------------------------------------------------*/
FoamFile
{
    version     2.0;
    format      ascii;
    class       volScalarField;
    location    "0.25";
    object      nut;
}
// * * * * * * * * * * * * * * * * * * * * * * * * * * * * * * * * * * * * * //

dimensions      [0 2 -1 0 0 0 0];

internalField   nonuniform List<scalar> 
1915
(
0.0128949
0.0129463
0.0129797
0.0129956
0.0129941
0.0129756
0.0129412
0.0128933
0.0128356
0.0127722
0.0127072
0.0126435
0.0125839
0.0125254
0.0124601
0.0123752
0.0122562
0.0120892
0.0118648
0.01158
0.0112392
0.0108538
0.0104402
0.0100181
0.00960748
0.000142047
0.00106868
0.00249472
0.00395132
0.00530964
0.00653185
0.0076099
0.00854823
0.0093568
0.0100478
0.0106338
0.0111271
0.0115391
0.0118804
0.0121605
0.0123884
0.0125716
0.0127171
0.0128305
0.0129167
0.0129791
0.0130205
0.0130424
0.0130461
0.0130326
0.0130036
0.0129612
0.0129088
0.0128508
0.0127916
0.0127346
0.0126842
0.0126422
0.0126062
0.0125687
0.0125186
0.0124431
0.0123301
0.0121707
0.0119613
0.0117039
0.0114062
0.0110804
0.0107415
0.0104057
0.000143777
0.00112025
0.00260161
0.00409809
0.00547889
0.00670978
0.00778683
0.00871801
0.0095161
0.0101954
0.0107699
0.0112529
0.0116563
0.0119906
0.0122654
0.0124889
0.0126684
0.0128102
0.0129196
0.0130007
0.013057
0.0130911
0.013105
0.0131005
0.0130793
0.013044
0.0129976
0.012944
0.0128878
0.0128335
0.0127841
0.0127445
0.0127162
0.0126965
0.0126791
0.0126542
0.0126108
0.0125385
0.0124294
0.0122794
0.0120891
0.0118638
0.0116121
0.0113454
0.0110767
0.00014509
0.00116214
0.00269356
0.00422419
0.00562322
0.00686069
0.00793655
0.00886177
0.00965134
0.0103211
0.0108864
0.011361
0.0117572
0.0120859
0.0123562
0.0125764
0.0127532
0.0128924
0.0129991
0.013077
0.0131295
0.0131591
0.0131683
0.0131591
0.0131341
0.0130961
0.0130488
0.0129962
0.0129429
0.0128932
0.0128502
0.0128183
0.0127987
0.0127891
0.0127838
0.0127745
0.0127519
0.0127072
0.0126334
0.0125266
0.0123864
0.0122161
0.0120219
0.0118125
0.0115975
0.00014599
0.00119892
0.0027731
0.0043314
0.00574424
0.00698608
0.00806042
0.00898066
0.00976344
0.0104258
0.0109837
0.0114516
0.0118422
0.0121663
0.0124332
0.0126509
0.0128258
0.0129637
0.0130689
0.0131453
0.013196
0.0132238
0.0132311
0.0132204
0.0131945
0.0131567
0.0131107
0.0130605
0.0130105
0.0129645
0.0129257
0.0128981
0.0128825
0.0128768
0.0128762
0.0128737
0.0128615
0.0128323
0.01278
0.012701
0.0125945
0.0124623
0.0123088
0.0121401
0.0119636
0.000146495
0.0012307
0.00284034
0.00441998
0.00584242
0.00708649
0.00815889
0.00907493
0.0098524
0.010509
0.0110614
0.0115242
0.0119105
0.0122312
0.0124957
0.0127117
0.0128857
0.013023
0.013128
0.0132043
0.0132551
0.0132831
0.0132908
0.013281
0.0132565
0.0132208
0.0131774
0.0131303
0.0130832
0.0130397
0.0130029
0.0129761
0.0129601
0.012953
0.0129506
0.0129473
0.0129367
0.0129127
0.0128701
0.0128057
0.0127184
0.0126091
0.0124808
0.0123378
0.0121855
0.000146616
0.00125712
0.00289472
0.0044895
0.00591751
0.00716178
0.00823174
0.00914417
0.00991758
0.0105701
0.0111185
0.0115778
0.0119611
0.0122794
0.0125423
0.0127573
0.012931
0.0130686
0.0131743
0.0132518
0.013304
0.0133337
0.0133435
0.0133362
0.0133146
0.013282
0.0132419
0.0131977
0.013153
0.0131106
0.0130735
0.0130447
0.0130246
0.0130117
0.0130026
0.0129926
0.0129766
0.0129495
0.0129072
0.0128468
0.012767
0.0126684
0.0125527
0.012423
0.0122831
0.00014636
0.00127781
0.00293561
0.00453936
0.00596899
0.00721143
0.00827835
0.00918756
0.00995793
0.0106077
0.0111535
0.0116106
0.0119921
0.0123091
0.0125711
0.0127859
0.0129599
0.0130983
0.0132054
0.0132847
0.0133392
0.0133716
0.0133845
0.0133806
0.0133626
0.0133336
0.0132968
0.0132552
0.0132119
0.0131693
0.0131301
0.0130969
0.01307
0.0130482
0.0130287
0.0130079
0.0129815
0.0129456
0.0128968
0.0128326
0.0127518
0.0126546
0.0125422
0.0124167
0.0122808
0.00014574
0.0012925
0.00296247
0.00456898
0.00599633
0.00723486
0.008298
0.00920416
0.00997224
0.0106203
0.0111648
0.0116209
0.0120016
0.0123181
0.01258
0.0127951
0.0129699
0.0131096
0.0132184
0.0133
0.0133572
0.0133927
0.0134091
0.0134088
0.0133946
0.0133692
0.0133353
0.0132956
0.0132528
0.0132088
0.0131662
0.0131269
0.0130915
0.0130589
0.0130269
0.0129927
0.012953
0.0129047
0.012845
0.012772
0.0126847
0.0125831
0.0124679
0.0123407
0.0122036
0.000144772
0.00130104
0.002975
0.00457804
0.00599917
0.00723163
0.00829006
0.0091931
0.00995941
0.0106066
0.0111508
0.0116069
0.0119877
0.0123045
0.0125669
0.0127827
0.0129586
0.0130998
0.0132105
0.0132944
0.0133544
0.0133931
0.0134129
0.0134163
0.0134055
0.0133831
0.0133515
0.0133131
0.0132699
0.0132237
0.0131767
0.0131306
0.0130857
0.0130415
0.0129962
0.0129476
0.0128934
0.012831
0.0127584
0.0126741
0.0125773
0.0124679
0.0123467
0.0122149
0.012074
0.00014348
0.00130343
0.00297316
0.00456654
0.0059775
0.00720162
0.00825424
0.00915386
0.00991861
0.0105655
0.0111102
0.0115671
0.0119488
0.0122666
0.01253
0.012747
0.0129241
0.0130668
0.0131795
0.0132656
0.0133281
0.0133697
0.0133926
0.0133991
0.0133913
0.0133713
0.0133414
0.0133034
0.0132592
0.0132103
0.0131585
0.0131052
0.0130509
0.0129951
0.0129367
0.0128741
0.0128054
0.0127289
0.0126431
0.0125468
0.0124396
0.0123216
0.0121934
0.012056
0.011911
0.000141896
0.00129981
0.00295727
0.00453492
0.00593178
0.00714518
0.00819069
0.00908634
0.00984951
0.0104964
0.0110422
0.0115004
0.0118838
0.0122031
0.0124679
0.0126863
0.0128649
0.0130092
0.0131236
0.0132117
0.0132764
0.0133204
0.0133459
0.0133549
0.0133493
0.0133311
0.0133022
0.0132641
0.0132185
0.0131667
0.01311
0.0130498
0.0129866
0.0129202
0.0128498
0.0127742
0.0126923
0.0126028
0.0125047
0.0123973
0.0122805
0.0121544
0.0120197
0.0118775
0.0117291
0.000140055
0.00129046
0.00292799
0.00448411
0.005863
0.00706323
0.00810015
0.00899104
0.00975234
0.0103994
0.0109464
0.0114066
0.0117919
0.0121133
0.0123799
0.0126
0.0127801
0.0129259
0.0130419
0.0131317
0.0131983
0.0132442
0.0132716
0.0132825
0.0132786
0.0132616
0.0132331
0.0131946
0.0131474
0.0130927
0.0130315
0.0129651
0.012894
0.0128183
0.0127374
0.0126508
0.0125575
0.0124569
0.0123484
0.0122317
0.0121068
0.0119742
0.0118346
0.011689
0.0115389
0.000137996
0.00127587
0.00288636
0.00441549
0.00577267
0.00695723
0.00798393
0.00886905
0.00962794
0.0102749
0.0108233
0.0112856
0.0116734
0.011997
0.0122659
0.0124878
0.0126696
0.0128169
0.0129343
0.0130256
0.0130936
0.013141
0.0131699
0.0131822
0.0131794
0.0131631
0.0131347
0.0130955
0.0130468
0.0129894
0.0129243
0.0128527
0.0127751
0.0126918
0.0126024
0.0125068
0.0124045
0.0122952
0.0121786
0.0120549
0.0119241
0.0117871
0.0116446
0.0114977
0.0113477
0.000135769
0.00125666
0.00283378
0.00433096
0.0056629
0.00682928
0.00784399
0.00872213
0.00947783
0.0101243
0.0106739
0.0111384
0.0115288
0.011855
0.0121262
0.0123503
0.0125339
0.0126828
0.0128015
0.012894
0.0129633
0.0130118
0.0130418
0.013055
0.013053
0.0130371
0.0130087
0.0129689
0.0129188
0.0128593
0.0127912
0.0127155
0.0126329
0.0125437
0.012448
0.0123457
0.0122368
0.0121213
0.0119992
0.0118708
0.0117367
0.0115975
0.0114543
0.0113081
0.0111602
0.000133423
0.0012336
0.00277197
0.00423287
0.00553629
0.00668204
0.0076829
0.00855265
0.00930415
0.00994944
0.0104999
0.0109665
0.0113595
0.0116885
0.0119623
0.0121886
0.0123742
0.0125246
0.0126448
0.0127384
0.0128087
0.0128583
0.0128891
0.012903
0.0129016
0.012886
0.0128576
0.0128174
0.0127663
0.0127053
0.0126351
0.0125567
0.0124706
0.0123774
0.0122774
0.0121708
0.0120578
0.0119385
0.0118134
0.0116829
0.0115477
0.0114086
0.0112667
0.0111232
0.0109791
0.000131011
0.00120758
0.00270294
0.00412394
0.00539595
0.00651871
0.00750379
0.0083636
0.00910971
0.00975294
0.0103037
0.010772
0.0111674
0.0114992
0.0117757
0.0120045
0.0121922
0.0123444
0.012466
0.0125608
0.0126322
0.0126826
0.0127142
0.0127289
0.012728
0.0127129
0.0126846
0.0126443
0.0125929
0.0125311
0.0124598
0.0123798
0.0122919
0.0121965
0.0120943
0.0119854
0.0118705
0.0117498
0.011624
0.0114936
0.0113595
0.0112227
0.011084
0.0109448
0.0108062
0.000128584
0.00117955
0.00262888
0.00400722
0.00524537
0.00634296
0.00731034
0.00815857
0.00889789
0.00953798
0.0100882
0.0105576
0.0109553
0.0112897
0.0115689
0.0118003
0.0119902
0.0121443
0.0122675
0.0123637
0.0124361
0.0124875
0.01252
0.0125355
0.0125353
0.0125208
0.0124931
0.0124532
0.012402
0.0123403
0.0122689
0.0121887
0.0121003
0.0120044
0.0119017
0.0117927
0.0116779
0.0115579
0.0114334
0.0113052
0.0111742
0.0110413
0.0109075
0.0107741
0.0106421
0.00012619
0.00115048
0.00255205
0.0038859
0.00508829
0.0061588
0.00710665
0.00794157
0.00867261
0.00930829
0.00985694
0.0103268
0.0107262
0.011063
0.0113448
0.0115787
0.0117709
0.0119272
0.0120521
0.0121498
0.0122235
0.012276
0.0123096
0.012326
0.0123268
0.0123133
0.0122865
0.0122475
0.0121972
0.0121365
0.012066
0.0119866
0.0118992
0.0118044
0.0117029
0.0115954
0.0114826
0.0113651
0.0112438
0.0111195
0.0109931
0.0108657
0.0107382
0.0106116
0.0104872
0.000123868
0.00112129
0.00247466
0.00376316
0.00492853
0.00597043
0.00689708
0.00771704
0.00843822
0.00906809
0.00961402
0.0100834
0.0104838
0.0108225
0.0111066
0.011343
0.0115376
0.0116959
0.0118228
0.0119221
0.0119973
0.0120512
0.0120861
0.0121037
0.0121058
0.0120936
0.0120683
0.0120309
0.0119822
0.0119231
0.0118545
0.0117772
0.0116919
0.0115995
0.0115007
0.0113963
0.011287
0.0111736
0.011057
0.010938
0.0108176
0.0106968
0.0105766
0.0104578
0.0103416
0.000121652
0.0010928
0.00239872
0.003642
0.0047698
0.00578204
0.00668611
0.0074896
0.00819938
0.00882198
0.00936389
0.00983171
0.0102322
0.0105721
0.0108582
0.0110967
0.0112936
0.0114541
0.0115829
0.0116841
0.011761
0.0118164
0.0118528
0.011872
0.0118758
0.0118653
0.0118419
0.0118065
0.0117601
0.0117036
0.0116377
0.0115633
0.0114813
0.0113925
0.0112977
0.0111976
0.0110932
0.0109852
0.0108745
0.010762
0.0106487
0.0105355
0.0104233
0.010313
0.0102055
0.000119565
0.00106568
0.00232594
0.00352508
0.00461551
0.00559761
0.00647816
0.0072639
0.00796088
0.0085748
0.00911133
0.00957636
0.00997596
0.0103163
0.0106037
0.010844
0.0110428
0.0112053
0.0113361
0.0114392
0.0115178
0.0115751
0.0116132
0.0116343
0.01164
0.0116317
0.0116106
0.0115779
0.0115343
0.0114809
0.0114186
0.0113481
0.0112703
0.0111861
0.0110963
0.0110017
0.0109032
0.0108016
0.0106979
0.0105928
0.0104874
0.0103824
0.0102788
0.0101773
0.0100787
0.000117622
0.00104042
0.00225766
0.00341459
0.00446864
0.00542076
0.00627732
0.00704445
0.00772748
0.00833143
0.00886128
0.00932227
0.00971986
0.0100597
0.0103476
0.010589
0.0107894
0.0109537
0.0110863
0.0111912
0.0112717
0.0113308
0.0113709
0.011394
0.011402
0.0113962
0.0113778
0.0113481
0.011308
0.0112584
0.0112002
0.0111343
0.0110615
0.0109828
0.0108989
0.0108106
0.0107189
0.0106246
0.0105285
0.0104316
0.0103345
0.0102382
0.0101435
0.010051
0.00996136
0.00011583
0.00101733
0.00219481
0.00331219
0.00433156
0.00525454
0.00608726
0.00683536
0.00750366
0.0080966
0.00861862
0.00907439
0.00946884
0.00980716
0.0100946
0.0103365
0.0105379
0.0107035
0.0108376
0.0109441
0.0110264
0.0110874
0.0111295
0.0111549
0.0111653
0.0111623
0.011147
0.0111208
0.0110845
0.0110392
0.0109857
0.010925
0.0108578
0.0107851
0.0107078
0.0106266
0.0105423
0.0104558
0.0103679
0.0102794
0.0101911
0.0101037
0.0100179
0.00993428
0.00985345
0.000114191
0.000996584
0.00213796
0.00321903
0.00420607
0.00510138
0.00591099
0.00664019
0.00729342
0.00787468
0.00838796
0.00883748
0.00922774
0.0095635
0.00984967
0.0100912
0.0102929
0.0104592
0.0105944
0.0107023
0.0107862
0.010849
0.0108931
0.0109208
0.0109338
0.0109337
0.0109218
0.0108992
0.0108671
0.0108265
0.0107781
0.010723
0.0106619
0.0105958
0.0105255
0.0104517
0.0103752
0.0102968
0.0102173
0.0101375
0.0100579
0.00997929
0.00990226
0.00982734
0.00975497
0.000112704
0.000978252
0.00208743
0.0031358
0.00409337
0.00496307
0.00575088
0.00646186
0.00710015
0.00766946
0.00817343
0.00861592
0.0090011
0.00933337
0.00961734
0.00985767
0.0100589
0.0102254
0.0103613
0.0104701
0.0105553
0.0106197
0.0106657
0.0106957
0.0107113
0.0107141
0.0107057
0.010687
0.0106593
0.0106235
0.0105806
0.0105313
0.0104765
0.0104172
0.010354
0.0102878
0.0102193
0.0101491
0.010078
0.0100066
0.00993564
0.00986557
0.00979696
0.00973028
0.00966589
0.00011137
0.000962355
0.00204332
0.00306287
0.0039942
0.00484081
0.00560862
0.00630255
0.00692654
0.00748404
0.00797849
0.00841348
0.00879291
0.00912093
0.0094019
0.00964024
0.00984032
0.0100063
0.0101422
0.0102516
0.0103377
0.0104034
0.0104512
0.0104833
0.0105015
0.0105073
0.0105023
0.0104876
0.0104644
0.0104335
0.010396
0.0103526
0.0103042
0.0102517
0.0101956
0.0101369
0.0100762
0.010014
0.00995097
0.00988776
0.0098249
0.00976288
0.00970215
0.00964311
0.00958608
0.000110192
0.000948908
0.00200567
0.00300041
0.003909
0.00473538
0.00548542
0.0061639
0.00677459
0.00732083
0.00780588
0.00823317
0.00860642
0.00892961
0.00920691
0.00944258
0.00964083
0.00980574
0.00994114
0.0100506
0.0101372
0.0102039
0.0102532
0.0102872
0.0103077
0.0103165
0.0103148
0.010304
0.0102851
0.0102591
0.0102269
0.0101893
0.0101471
0.0101011
0.010052
0.0100004
0.00994702
0.00989235
0.00983695
0.00978134
0.00972601
0.00967138
0.00961785
0.00956574
0.00951534
0.00010918
0.000937956
0.00197452
0.00294854
0.00383808
0.00464735
0.00538213
0.00604706
0.00664581
0.00718162
0.00765765
0.00807728
0.00844411
0.00876204
0.00903513
0.00926752
0.00946332
0.00962653
0.00976088
0.00986987
0.00995663
0.010024
0.0100744
0.01011
0.0101327
0.0101441
0.0101457
0.0101385
0.0101237
0.0101023
0.0100752
0.0100431
0.0100067
0.00996688
0.00992417
0.00987921
0.0098326
0.00978483
0.00973635
0.00968761
0.00963905
0.00959103
0.00954389
0.00949792
0.00945336
0.000108354
0.000929588
0.00194999
0.00290746
0.00378178
0.00457726
0.00529951
0.00595302
0.00654137
0.00706774
0.0075353
0.00794741
0.00830769
0.00862001
0.00888839
0.00911693
0.0093097
0.00947061
0.00960337
0.00971141
0.00979784
0.00986543
0.00991663
0.00995359
0.00997817
0.00999196
0.00999635
0.00999255
0.00998162
0.00996449
0.00994199
0.0099149
0.00988391
0.00984966
0.00981276
0.00977376
0.00973319
0.00969154
0.00964917
0.00960647
0.00956383
0.00952155
0.00947995
0.00943927
0.00939973
0.000107742
0.000923948
0.00193227
0.00287748
0.00374061
0.00452583
0.00523847
0.00588283
0.00646239
0.00698036
0.00743998
0.00784471
0.00819825
0.00850455
0.00876768
0.00899176
0.00918085
0.00933885
0.00946943
0.00957598
0.00966158
0.00972898
0.00978058
0.00981852
0.00984461
0.00986043
0.00986736
0.00986656
0.00985906
0.00984575
0.00982745
0.00980485
0.00977862
0.00974935
0.00971758
0.00968381
0.00964853
0.00961214
0.00957502
0.0095375
0.00949988
0.00946247
0.00942553
0.00938929
0.00935395
0.000107385
0.000921216
0.00192164
0.00285911
0.00371536
0.00449411
0.00520027
0.00583782
0.00641022
0.00692073
0.00737279
0.00777007
0.00811648
0.00841615
0.0086733
0.00889213
0.00907675
0.00923109
0.0093588
0.00946324
0.00954746
0.00961416
0.00966573
0.00970422
0.00973145
0.00974893
0.00975801
0.00975981
0.00975532
0.00974539
0.00973077
0.00971213
0.00969006
0.00966512
0.0096378
0.00960854
0.00957777
0.00954586
0.00951316
0.00947994
0.00944651
0.00941311
0.00937999
0.00934737
0.00931544
0.000107338
0.000921594
0.00191847
0.0028531
0.00370724
0.00448374
0.00518675
0.00581993
0.00638666
0.00689042
0.00733496
0.00772434
0.00806284
0.0083549
0.00860499
0.00881749
0.00899662
0.00914634
0.00927031
0.00937189
0.00945406
0.00951949
0.00957049
0.00960909
0.00963702
0.00965577
0.0096666
0.0096706
0.0096687
0.00966169
0.00965028
0.00963508
0.00961664
0.00959545
0.00957195
0.00954654
0.0095196
0.00949146
0.00946243
0.00943277
0.00940274
0.00937258
0.00934252
0.00931277
0.00928353
0.000107672
0.000925294
0.00192326
0.00286057
0.0037181
0.00449714
0.00520071
0.00583195
0.00639428
0.00689155
0.00732807
0.00770851
0.00803773
0.00832067
0.00856215
0.00876682
0.00893906
0.00908291
0.00920205
0.00929981
0.00937912
0.00944258
0.00949243
0.00953062
0.00955879
0.00957838
0.00959056
0.00959636
0.00959666
0.00959217
0.00958355
0.00957136
0.00955608
0.00953815
0.00951796
0.00949588
0.00947222
0.00944727
0.00942132
0.00939462
0.00936737
0.00933981
0.00931218
0.00928466
0.00925748
0.000108488
0.000932565
0.00193678
0.00288336
0.00375093
0.00453812
0.00524628
0.00587793
0.00643666
0.00692701
0.00735418
0.0077238
0.00804159
0.00831316
0.00854386
0.0087387
0.00890224
0.00903863
0.00915157
0.00924434
0.00931981
0.00938047
0.00942847
0.00946565
0.00949356
0.00951353
0.00952666
0.00953389
0.00953601
0.00953369
0.00952751
0.00951797
0.00950549
0.00949046
0.00947322
0.00945409
0.00943334
0.00941122
0.00938797
0.0093638
0.00933891
0.00931351
0.00928782
0.00926206
0.00923645
0.000109923
0.000943812
0.00196059
0.00292483
0.00381071
0.0046127
0.00532977
0.00596375
0.00651879
0.00700061
0.0074159
0.00777166
0.00807482
0.00833191
0.00854895
0.00873135
0.00888393
0.00901092
0.00911602
0.00920243
0.00927291
0.00932982
0.00937517
0.00941067
0.00943774
0.0094576
0.00947125
0.00947953
0.00948313
0.00948266
0.00947863
0.00947145
0.00946151
0.00944913
0.00943462
0.00941823
0.00940021
0.00938074
0.00936004
0.00933826
0.00931555
0.00929211
0.00926813
0.00924384
0.00921947
0.000112176
0.000959862
0.00199788
0.00299121
0.00390611
0.00473068
0.00546077
0.00609784
0.00664735
0.00711716
0.0075162
0.0078535
0.00813755
0.00837607
0.00857581
0.00874264
0.0088816
0.00899695
0.00909234
0.00917084
0.00923504
0.00928713
0.00932894
0.00936202
0.00938764
0.00940686
0.00942057
0.00942948
0.00943422
0.00943529
0.00943311
0.00942806
0.00942045
0.00941056
0.00939864
0.00938493
0.0093696
0.00935284
0.00933477
0.00931551
0.00929513
0.00927375
0.00925153
0.00922869
0.00920549
0.000115548
0.000982519
0.00205523
0.00309435
0.00405237
0.0049081
0.00565393
0.00629207
0.006831
0.00728222
0.00765806
0.00797025
0.00822926
0.00844406
0.00862219
0.00876988
0.00889227
0.00899359
0.0090773
0.00914627
0.00920286
0.00924902
0.00928637
0.00931624
0.00933972
0.00935772
0.00937098
0.00938009
0.00938557
0.00938783
0.00938721
0.00938403
0.00937853
0.00937097
0.00936155
0.00935049
0.00933795
0.00932409
0.00930899
0.00929267
0.00927512
0.00925629
0.00923625
0.00921518
0.00919334
0.000120564
0.00101579
0.00214621
0.0032569
0.00427656
0.00517121
0.00593108
0.00656242
0.00707996
0.00750125
0.00784339
0.00812142
0.00834792
0.00853303
0.00868481
0.00880964
0.00891254
0.00899748
0.00906763
0.00912554
0.00917325
0.00921241
0.00924437
0.00927023
0.00929088
0.00930703
0.00931928
0.00932809
0.00933386
0.00933691
0.0093375
0.00933586
0.00933221
0.00932674
0.00931967
0.00931118
0.00930148
0.00929076
0.00927911
0.00926649
0.00925269
0.00923738
0.00922039
0.0092018
0.00918185
0.000128163
0.00106883
0.00229966
0.00352371
0.0046276
0.0055626
0.00632343
0.00692838
0.00740416
0.00777742
0.00807111
0.0083036
0.00848905
0.00863817
0.008759
0.00885756
0.00893841
0.00900502
0.00906007
0.00910566
0.00914341
0.00917465
0.00920039
0.00922149
0.0092386
0.00925226
0.00926291
0.00927087
0.00927642
0.00927979
0.00928115
0.00928067
0.0092785
0.00927479
0.00926974
0.00926358
0.00925658
0.00924908
0.00924134
0.00923342
0.00922487
0.0092147
0.00920223
0.00918728
0.00917008
0.000140062
0.00116474
0.00258433
0.00399117
0.00519687
0.00614942
0.00687103
0.00740845
0.007808
0.00810722
0.00833401
0.00850839
0.00864444
0.00875209
0.00883835
0.00890824
0.00896538
0.00901246
0.00905147
0.00908393
0.00911102
0.00913363
0.00915249
0.00916817
0.00918109
0.00919162
0.00920003
0.00920654
0.00921131
0.00921446
0.00921611
0.00921634
0.00921523
0.00921288
0.00920944
0.00920513
0.00920035
0.00919567
0.00919191
0.0091898
0.00918901
0.00918662
0.00918084
0.00917112
0.00915776
0.000160773
0.00137906
0.00320562
0.00489498
0.00615814
0.00702624
0.00760998
0.00800553
0.00827915
0.00847334
0.00861485
0.00872061
0.00880153
0.00886472
0.00891497
0.00895554
0.00898871
0.00901612
0.00903896
0.00905811
0.00907424
0.00908787
0.00909938
0.0091091
0.00911725
0.00912402
0.00912956
0.00913397
0.00913733
0.0091397
0.0091411
0.00914158
0.00914113
0.0091398
0.00913762
0.00913475
0.00913151
0.00912866
0.00912779
0.00913186
0.00914406
0.00915382
0.0091575
0.00915458
0.00914589
0.000209313
0.00218388
0.00509063
0.00689733
0.00780188
0.00826491
0.00852067
0.00867353
0.00877128
0.00883735
0.00888405
0.00891832
0.00894426
0.00896441
0.00898042
0.00899337
0.00900401
0.00901286
0.00902029
0.00902658
0.00903194
0.00903652
0.00904044
0.00904379
0.00904664
0.00904905
0.00905105
0.00905267
0.00905394
0.00905486
0.00905544
0.00905567
0.00905555
0.00905507
0.00905421
0.00905297
0.00905142
0.00904985
0.00904947
0.00905561
0.00909588
0.00912371
0.0091384
0.00914215
0.00913752
)
;

boundaryField
{
    leftWall
    {
        type            nutkWallFunction;
        Cmu             0.09;
        kappa           0.41;
        E               9.8;
        value           nonuniform List<scalar> 
42
(
1.12101e-05
1.14733e-05
1.16758e-05
1.18162e-05
1.18978e-05
1.19225e-05
1.18915e-05
1.18061e-05
1.1669e-05
1.14836e-05
1.12543e-05
1.09863e-05
1.06856e-05
1.03588e-05
1.00133e-05
9.65669e-06
9.29647e-06
8.9397e-06
8.5925e-06
8.25979e-06
7.94517e-06
7.651e-06
7.37858e-06
7.12848e-06
6.90083e-06
6.69578e-06
6.51397e-06
6.35698e-06
6.22771e-06
6.13073e-06
6.07246e-06
6.06159e-06
6.10972e-06
6.23264e-06
6.45231e-06
6.79961e-06
7.32113e-06
8.09616e-06
9.26264e-06
1.10635e-05
1.41311e-05
2.11423e-05
)
;
    }
    rightWall
    {
        type            nutkWallFunction;
        Cmu             0.09;
        kappa           0.41;
        E               9.8;
        value           nonuniform 0();
    }
    lowerWall
    {
        type            nutkWallFunction;
        Cmu             0.09;
        kappa           0.41;
        E               9.8;
        value           nonuniform 0();
    }
    atmosphere
    {
        type            calculated;
        value           nonuniform List<scalar> 
45
(
0.009
0.009
0.009
0.009
0.009
0.009
0.009
0.009
0.009
0.009
0.009
0.009
0.009
0.009
0.009
0.009
0.009
0.009
0.009
0.009
0.009
0.009
0.009
0.009
0.009
0.009
0.009
0.009
0.009
0.009
0.009
0.009
0.009
0.009
0.009
0.009
0.009
0.009
0.009
0.009
0.00909588
0.00912371
0.0091384
0.00914215
0.00913752
)
;
    }
    defaultFaces
    {
        type            empty;
    }
    procBoundary2to0
    {
        type            processor;
        value           nonuniform List<scalar> 
46
(
0.0128024
0.0128665
0.0129146
0.0129467
0.0129616
0.0129585
0.0129368
0.0128975
0.0128433
0.0127779
0.0127053
0.0126274
0.012547
0.0124612
0.0123612
0.0122329
0.0120599
0.0118268
0.0115239
0.0111496
0.0107119
0.0102273
0.00971787
0.00920841
0.00872313
0.000140056
0.00100244
0.0023666
0.0037796
0.00511224
0.00632413
0.00740331
0.00835024
0.00917148
0.00987659
0.0104764
0.0109821
0.0114047
0.0117542
0.012041
0.0122741
0.012462
0.0126122
0.0127311
0.012824
0.012824
)
;
    }
    procBoundary2to3
    {
        type            processor;
        value           nonuniform List<scalar> 
43
(
0.0092258
0.0100883
0.0108185
0.011387
0.0117868
0.0120293
0.0121369
0.0121374
0.0120587
0.0119259
0.0117598
0.0115759
0.0113855
0.011196
0.0110119
0.0108359
0.0106693
0.0105125
0.0103657
0.0102287
0.0101014
0.00998362
0.00987514
0.00977583
0.00968555
0.00960412
0.00953132
0.00946688
0.00941042
0.00936152
0.00931968
0.00928437
0.00925497
0.00923082
0.00921119
0.00919528
0.00918221
0.00917106
0.00916093
0.00915113
0.00914148
0.00913272
0.00912684
)
;
    }
}


// ************************************************************************* //
