/*--------------------------------*- C++ -*----------------------------------*\
| =========                 |                                                 |
| \\      /  F ield         | OpenFOAM: The Open Source CFD Toolbox           |
|  \\    /   O peration     | Version:  5.0                                   |
|   \\  /    A nd           | Web:      www.OpenFOAM.org                      |
|    \\/     M anipulation  |                                                 |
\*---------------------------------------------------------------------------*/
FoamFile
{
    version     2.0;
    format      ascii;
    class       volScalarField;
    location    "0.25";
    object      p;
}
// * * * * * * * * * * * * * * * * * * * * * * * * * * * * * * * * * * * * * //

dimensions      [1 -1 -2 0 0 0 0];

internalField   nonuniform List<scalar> 
1915
(
-3.38675
-3.43118
-3.47404
-3.51461
-3.5521
-3.58572
-3.61471
-3.63843
-3.65632
-3.66802
-3.67327
-3.67179
-3.66338
-3.64787
-3.62516
-3.59518
-3.5578
-3.5128
-3.45993
-3.39892
-3.32945
-3.25121
-3.16381
-3.06694
-2.96073
-2.90268
-2.91055
-2.91662
-2.92531
-2.93593
-2.94871
-2.9638
-2.98132
-3.00132
-3.02379
-3.04871
-3.07607
-3.10594
-3.13836
-3.17324
-3.21028
-3.24911
-3.28929
-3.33029
-3.37137
-3.41184
-3.45109
-3.4886
-3.52374
-3.55578
-3.58402
-3.6078
-3.62657
-3.63992
-3.64757
-3.64932
-3.64497
-3.63428
-3.61707
-3.59324
-3.5628
-3.52568
-3.48176
-3.43082
-3.37269
-3.30721
-3.23429
-3.15391
-3.0661
-2.97115
-2.96569
-2.97262
-2.98041
-2.99014
-3.00143
-3.01439
-3.02915
-3.04583
-3.06452
-3.08529
-3.10819
-3.13326
-3.16058
-3.19013
-3.22179
-3.25531
-3.29033
-3.32643
-3.36307
-3.39961
-3.43539
-3.46987
-3.5025
-3.5327
-3.55984
-3.58332
-3.60257
-3.6171
-3.6266
-3.63085
-3.6297
-3.62301
-3.61058
-3.59224
-3.5679
-3.53755
-3.50119
-3.45875
-3.41013
-3.35524
-3.29405
-3.22659
-3.15297
-3.07346
-2.98862
-3.02509
-3.03209
-3.04127
-3.05209
-3.06402
-3.07714
-3.0916
-3.10753
-3.12507
-3.14432
-3.16538
-3.18833
-3.2132
-3.23995
-3.26846
-3.29851
-3.32979
-3.3619
-3.39435
-3.42657
-3.45798
-3.48804
-3.51621
-3.54196
-3.56474
-3.58402
-3.59931
-3.61023
-3.61648
-3.6179
-3.6144
-3.60586
-3.59217
-3.57318
-3.54879
-3.51899
-3.4838
-3.44322
-3.39721
-3.34576
-3.28893
-3.22681
-3.15959
-3.08765
-3.01175
-3.0816
-3.0892
-3.09958
-3.11139
-3.12387
-3.13711
-3.15128
-3.16657
-3.18312
-3.20104
-3.22043
-3.24136
-3.26387
-3.28791
-3.31338
-3.3401
-3.36781
-3.39614
-3.42465
-3.45283
-3.48017
-3.50614
-3.53025
-3.55198
-3.57087
-3.58645
-3.59833
-3.60616
-3.60972
-3.60887
-3.60352
-3.59362
-3.5791
-3.55985
-3.53579
-3.50689
-3.4732
-3.43473
-3.39152
-3.34361
-3.29109
-3.23412
-3.17294
-3.10796
-3.04002
-3.13594
-3.14424
-3.15565
-3.16829
-3.1812
-3.19449
-3.20842
-3.22318
-3.23889
-3.25564
-3.27351
-3.29255
-3.31282
-3.3343
-3.35691
-3.38053
-3.40491
-3.42972
-3.45457
-3.47899
-3.50253
-3.52472
-3.54508
-3.56319
-3.57861
-3.59096
-3.5999
-3.60515
-3.60653
-3.60391
-3.59722
-3.58643
-3.57148
-3.55232
-3.52888
-3.50114
-3.46914
-3.43295
-3.39262
-3.34826
-3.29998
-3.24797
-3.19249
-3.13397
-3.07318
-3.18873
-3.19764
-3.20989
-3.22316
-3.23637
-3.24971
-3.26345
-3.27776
-3.29274
-3.30844
-3.3249
-3.3422
-3.3604
-3.37952
-3.39952
-3.4203
-3.44162
-3.46319
-3.48465
-3.50558
-3.52557
-3.54423
-3.56117
-3.576
-3.58836
-3.5979
-3.60436
-3.6075
-3.60715
-3.6032
-3.5956
-3.58431
-3.5693
-3.55052
-3.52794
-3.50154
-3.47138
-3.43754
-3.40011
-3.35923
-3.31505
-3.26778
-3.21769
-3.16518
-3.11084
-3.24053
-3.24989
-3.26275
-3.27649
-3.28993
-3.3033
-3.31688
-3.33079
-3.34509
-3.3598
-3.37496
-3.39067
-3.40699
-3.42398
-3.44162
-3.45982
-3.47837
-3.49698
-3.51531
-3.53301
-3.54974
-3.56516
-3.57897
-3.59087
-3.60055
-3.60771
-3.61211
-3.61354
-3.61185
-3.60695
-3.59877
-3.58728
-3.57245
-3.55427
-3.53271
-3.50779
-3.47954
-3.44807
-3.41351
-3.376
-3.33573
-3.29291
-3.24783
-3.20084
-3.15232
-3.29184
-3.30146
-3.31474
-3.32879
-3.3424
-3.35577
-3.36915
-3.38263
-3.39624
-3.41
-3.42397
-3.43823
-3.45287
-3.46796
-3.48349
-3.49938
-3.51542
-3.53136
-3.54688
-3.56167
-3.57546
-3.58797
-3.59901
-3.60832
-3.61568
-3.62083
-3.62354
-3.62363
-3.62093
-3.61534
-3.60683
-3.59535
-3.58088
-3.56342
-3.54297
-3.51956
-3.49325
-3.46413
-3.43234
-3.39804
-3.36142
-3.32272
-3.2822
-3.24015
-3.1968
-3.34312
-3.35287
-3.36637
-3.38058
-3.39422
-3.40748
-3.42056
-3.43354
-3.44644
-3.45928
-3.47215
-3.48511
-3.49828
-3.51169
-3.52536
-3.53919
-3.55301
-3.56659
-3.57965
-3.59191
-3.60315
-3.61315
-3.62178
-3.62886
-3.63422
-3.63768
-3.639
-3.63801
-3.63456
-3.62853
-3.61986
-3.60854
-3.59454
-3.57788
-3.55858
-3.53669
-3.51226
-3.4854
-3.45624
-3.42494
-3.39167
-3.35667
-3.32017
-3.28242
-3.24355
-3.39488
-3.40462
-3.41816
-3.43233
-3.44581
-3.45878
-3.47142
-3.4838
-3.49596
-3.50794
-3.51982
-3.53166
-3.54353
-3.55549
-3.56752
-3.57955
-3.59143
-3.60297
-3.61393
-3.62406
-3.63316
-3.64107
-3.64767
-3.65286
-3.65653
-3.65853
-3.65868
-3.65682
-3.6528
-3.64649
-3.63783
-3.62678
-3.61335
-3.59755
-3.57942
-3.55901
-3.53639
-3.51166
-3.48494
-3.45637
-3.42612
-3.39437
-3.36135
-3.32724
-3.29217
-3.44756
-3.45718
-3.47054
-3.48445
-3.49757
-3.51007
-3.52213
-3.53385
-3.54527
-3.55646
-3.56746
-3.57832
-3.58909
-3.59978
-3.61037
-3.62082
-3.63101
-3.6408
-3.64998
-3.65835
-3.66571
-3.67192
-3.67687
-3.68051
-3.68275
-3.6835
-3.68265
-3.68005
-3.67558
-3.6691
-3.66055
-3.64989
-3.6371
-3.62221
-3.60525
-3.58629
-3.56539
-3.54264
-3.51814
-3.49203
-3.46443
-3.43552
-3.40546
-3.37444
-3.34261
-3.50148
-3.51084
-3.52385
-3.53731
-3.5499
-3.5618
-3.5732
-3.58423
-3.59495
-3.6054
-3.61562
-3.62562
-3.6354
-3.64497
-3.65429
-3.66334
-3.67205
-3.68031
-3.68797
-3.69486
-3.7008
-3.70566
-3.70932
-3.71172
-3.71281
-3.71254
-3.71085
-3.70763
-3.70278
-3.6962
-3.68781
-3.67758
-3.66548
-3.65151
-3.63571
-3.61814
-3.59885
-3.57793
-3.55545
-3.53153
-3.50629
-3.47985
-3.45237
-3.42403
-3.39504
-3.55681
-3.5658
-3.57828
-3.59114
-3.60311
-3.61434
-3.62507
-3.63542
-3.64545
-3.65521
-3.6647
-3.67391
-3.68279
-3.69134
-3.69952
-3.70731
-3.7147
-3.72161
-3.72794
-3.73358
-3.73836
-3.74214
-3.7448
-3.74628
-3.74651
-3.74546
-3.74311
-3.7394
-3.73426
-3.72762
-3.71942
-3.70962
-3.69818
-3.68511
-3.67043
-3.65416
-3.63637
-3.61712
-3.59648
-3.57455
-3.55142
-3.52722
-3.50206
-3.47614
-3.44971
-3.61361
-3.62214
-3.63397
-3.64613
-3.65741
-3.66797
-3.67802
-3.6877
-3.69706
-3.70614
-3.71492
-3.72335
-3.73139
-3.739
-3.74615
-3.75283
-3.75904
-3.76476
-3.76994
-3.77448
-3.77828
-3.7812
-3.78311
-3.78391
-3.78356
-3.782
-3.77921
-3.77517
-3.76985
-3.76321
-3.75521
-3.74581
-3.735
-3.72275
-3.70909
-3.69403
-3.67761
-3.6599
-3.64095
-3.62085
-3.59967
-3.57754
-3.55455
-3.53089
-3.50685
-3.67196
-3.67995
-3.69102
-3.70242
-3.71298
-3.72285
-3.73223
-3.74123
-3.74992
-3.75829
-3.76634
-3.77402
-3.78125
-3.78801
-3.79424
-3.79996
-3.80516
-3.80985
-3.81402
-3.81763
-3.82058
-3.82278
-3.82409
-3.82442
-3.82369
-3.82183
-3.81882
-3.81464
-3.80928
-3.80272
-3.79495
-3.78595
-3.77571
-3.76422
-3.75148
-3.73752
-3.72237
-3.70608
-3.68869
-3.67029
-3.65095
-3.63077
-3.60984
-3.58833
-3.56653
-3.73189
-3.73931
-3.74957
-3.76016
-3.76998
-3.77915
-3.78784
-3.79614
-3.80411
-3.81175
-3.81906
-3.82598
-3.83245
-3.83843
-3.84388
-3.84878
-3.85315
-3.85699
-3.86032
-3.86312
-3.86535
-3.86692
-3.86774
-3.86769
-3.8667
-3.86468
-3.8616
-3.85743
-3.85216
-3.84579
-3.83831
-3.82973
-3.82004
-3.80926
-3.79738
-3.78444
-3.77046
-3.75548
-3.73955
-3.72275
-3.70514
-3.68681
-3.66784
-3.64839
-3.62865
-3.79348
-3.80031
-3.80975
-3.8195
-3.82857
-3.83701
-3.84497
-3.85254
-3.85977
-3.86666
-3.87321
-3.87939
-3.88515
-3.89043
-3.89521
-3.89945
-3.90315
-3.90632
-3.90897
-3.9111
-3.91271
-3.91372
-3.91408
-3.91369
-3.91247
-3.91035
-3.90726
-3.90318
-3.89809
-3.89198
-3.88486
-3.87673
-3.86762
-3.85752
-3.84647
-3.83449
-3.82161
-3.80787
-3.79332
-3.77802
-3.76203
-3.74544
-3.72833
-3.7108
-3.69297
-3.85671
-3.86297
-3.87161
-3.88053
-3.88883
-3.89653
-3.90376
-3.91059
-3.91706
-3.92319
-3.929
-3.93446
-3.93954
-3.9442
-3.94839
-3.95208
-3.95525
-3.95789
-3.96001
-3.9616
-3.96267
-3.96319
-3.96312
-3.96239
-3.96093
-3.95869
-3.9556
-3.95162
-3.94673
-3.94091
-3.93418
-3.92655
-3.91802
-3.90863
-3.89839
-3.88734
-3.87551
-3.86294
-3.84968
-3.83579
-3.82133
-3.80636
-3.79097
-3.77521
-3.75912
-3.92152
-3.92725
-3.93511
-3.94323
-3.95077
-3.95775
-3.96426
-3.97035
-3.97609
-3.98149
-3.98658
-3.99135
-3.99579
-3.99986
-4.00352
-4.00673
-4.00945
-4.01167
-4.01336
-4.01452
-4.01516
-4.01526
-4.01479
-4.01372
-4.01201
-4.00961
-4.00648
-4.00257
-3.99786
-3.99234
-3.986
-3.97886
-3.97093
-3.96223
-3.95279
-3.94264
-3.93182
-3.92036
-3.90832
-3.89574
-3.88267
-3.86919
-3.85536
-3.84122
-3.82669
-3.98778
-3.99301
-4.00015
-4.00751
-4.01432
-4.02061
-4.02643
-4.03184
-4.03689
-4.04161
-4.04602
-4.05014
-4.05396
-4.05747
-4.06062
-4.06337
-4.06569
-4.06752
-4.06886
-4.06967
-4.06996
-4.0697
-4.0689
-4.06754
-4.06559
-4.06303
-4.05983
-4.05596
-4.05141
-4.04614
-4.04017
-4.0335
-4.02614
-4.01811
-4.00944
-4.00015
-3.99028
-3.97986
-3.96893
-3.95755
-3.94576
-3.93361
-3.92118
-3.90845
-3.89533
-4.05538
-4.06015
-4.0666
-4.07324
-4.07937
-4.085
-4.0902
-4.09499
-4.09942
-4.10351
-4.1073
-4.11081
-4.11405
-4.11699
-4.11963
-4.12192
-4.12383
-4.1253
-4.12631
-4.12682
-4.12682
-4.12629
-4.12524
-4.12365
-4.12151
-4.11883
-4.11558
-4.11174
-4.10732
-4.10229
-4.09665
-4.09042
-4.08359
-4.07618
-4.06822
-4.05972
-4.05072
-4.04124
-4.03133
-4.02101
-4.01035
-3.99938
-3.98815
-3.97666
-3.96477
-4.1242
-4.12854
-4.13436
-4.14032
-4.14582
-4.15087
-4.1555
-4.15974
-4.16361
-4.16714
-4.17037
-4.17331
-4.17598
-4.17838
-4.1805
-4.18232
-4.18379
-4.18488
-4.18556
-4.18579
-4.18555
-4.18481
-4.18358
-4.18184
-4.17959
-4.17685
-4.17359
-4.16982
-4.16554
-4.16073
-4.15541
-4.14957
-4.14323
-4.13639
-4.12906
-4.12128
-4.11305
-4.10441
-4.09538
-4.086
-4.07631
-4.06634
-4.05615
-4.0457
-4.03488
-4.19419
-4.19813
-4.20338
-4.20872
-4.21365
-4.21816
-4.22228
-4.22603
-4.22941
-4.23245
-4.23517
-4.23759
-4.23973
-4.2416
-4.2432
-4.24453
-4.24555
-4.24625
-4.24659
-4.24653
-4.24606
-4.24515
-4.24379
-4.24197
-4.23968
-4.23694
-4.23374
-4.23008
-4.22596
-4.2214
-4.21638
-4.21091
-4.20501
-4.19867
-4.19191
-4.18475
-4.1772
-4.16928
-4.16102
-4.15244
-4.14358
-4.13446
-4.12512
-4.11555
-4.10563
-4.26532
-4.26892
-4.27365
-4.27844
-4.28285
-4.28689
-4.29056
-4.29387
-4.29681
-4.29941
-4.30167
-4.30361
-4.30526
-4.30663
-4.30774
-4.30858
-4.30915
-4.30944
-4.30942
-4.30907
-4.30837
-4.3073
-4.30583
-4.30396
-4.30168
-4.29899
-4.29589
-4.29238
-4.28846
-4.28414
-4.27942
-4.27431
-4.26881
-4.26293
-4.25668
-4.25006
-4.2431
-4.2358
-4.22819
-4.2203
-4.21213
-4.20372
-4.1951
-4.18626
-4.17713
-4.33761
-4.34091
-4.34519
-4.34949
-4.35345
-4.35706
-4.36032
-4.36324
-4.36579
-4.36798
-4.36983
-4.37135
-4.37255
-4.37346
-4.37411
-4.37449
-4.37463
-4.37452
-4.37414
-4.37349
-4.37255
-4.37131
-4.36973
-4.36782
-4.36555
-4.36293
-4.35994
-4.3566
-4.35289
-4.34882
-4.3444
-4.33962
-4.3345
-4.32903
-4.32322
-4.31709
-4.31064
-4.30389
-4.29685
-4.28953
-4.28197
-4.27417
-4.26616
-4.25795
-4.24952
-4.41103
-4.41407
-4.41796
-4.42186
-4.42542
-4.42864
-4.43154
-4.4341
-4.43629
-4.43812
-4.4396
-4.44074
-4.44155
-4.44206
-4.44229
-4.44226
-4.442
-4.44151
-4.4408
-4.43985
-4.43867
-4.43723
-4.43554
-4.43356
-4.43129
-4.42873
-4.42585
-4.42266
-4.41915
-4.41532
-4.41117
-4.4067
-4.40192
-4.39683
-4.39143
-4.38573
-4.37974
-4.37347
-4.36694
-4.36015
-4.35312
-4.34587
-4.33841
-4.33077
-4.32299
-4.48554
-4.48835
-4.49192
-4.49545
-4.49866
-4.50156
-4.50412
-4.50635
-4.50822
-4.50973
-4.51087
-4.51167
-4.51214
-4.5123
-4.51219
-4.51181
-4.51121
-4.51038
-4.50936
-4.50814
-4.50672
-4.5051
-4.50327
-4.50121
-4.49892
-4.49638
-4.49358
-4.49051
-4.48717
-4.48355
-4.47965
-4.47547
-4.471
-4.46625
-4.46122
-4.45592
-4.45036
-4.44454
-4.43847
-4.43216
-4.42564
-4.4189
-4.41197
-4.40488
-4.3977
-4.56105
-4.56367
-4.56694
-4.57017
-4.57307
-4.57566
-4.57793
-4.57985
-4.58142
-4.58264
-4.58349
-4.584
-4.58418
-4.58405
-4.58365
-4.58299
-4.5821
-4.58101
-4.57973
-4.57827
-4.57665
-4.57485
-4.57289
-4.57074
-4.5684
-4.56586
-4.56311
-4.56013
-4.55693
-4.55349
-4.5498
-4.54587
-4.54169
-4.53725
-4.53257
-4.52764
-4.52247
-4.51707
-4.51145
-4.50562
-4.49958
-4.49335
-4.48694
-4.48039
-4.47381
-4.63748
-4.63992
-4.64293
-4.64587
-4.6485
-4.65081
-4.65279
-4.65444
-4.65574
-4.65668
-4.65728
-4.65754
-4.65748
-4.65712
-4.65649
-4.65561
-4.65451
-4.65322
-4.65174
-4.6501
-4.64832
-4.64638
-4.6443
-4.64207
-4.63968
-4.63713
-4.63441
-4.63151
-4.62842
-4.62512
-4.62162
-4.61791
-4.61398
-4.60984
-4.60548
-4.6009
-4.59612
-4.59113
-4.58594
-4.58056
-4.57501
-4.56929
-4.5634
-4.55741
-4.55142
-4.71474
-4.717
-4.71977
-4.72245
-4.72481
-4.72685
-4.72858
-4.72996
-4.73101
-4.73171
-4.73208
-4.73212
-4.73187
-4.73133
-4.73053
-4.72949
-4.72825
-4.72681
-4.72521
-4.72345
-4.72155
-4.71953
-4.71737
-4.71508
-4.71267
-4.71012
-4.70743
-4.70459
-4.7016
-4.69844
-4.69511
-4.6916
-4.68791
-4.68404
-4.67998
-4.67574
-4.67133
-4.66673
-4.66197
-4.65705
-4.65198
-4.64676
-4.64141
-4.63597
-4.63056
-4.79277
-4.79487
-4.79739
-4.79981
-4.80192
-4.80371
-4.80517
-4.80631
-4.80712
-4.8076
-4.80776
-4.80763
-4.80721
-4.80653
-4.80561
-4.80447
-4.80314
-4.80163
-4.79996
-4.79814
-4.7962
-4.79413
-4.79195
-4.78965
-4.78724
-4.78472
-4.78208
-4.77932
-4.77643
-4.7734
-4.77024
-4.76693
-4.76347
-4.75986
-4.7561
-4.75218
-4.74812
-4.74392
-4.73958
-4.7351
-4.73051
-4.72579
-4.72097
-4.71608
-4.71124
-4.87154
-4.87348
-4.87577
-4.87793
-4.87979
-4.88133
-4.88255
-4.88344
-4.88402
-4.88429
-4.88427
-4.88398
-4.88343
-4.88265
-4.88165
-4.88045
-4.87908
-4.87754
-4.87586
-4.87405
-4.87211
-4.87006
-4.8679
-4.86564
-4.86328
-4.86083
-4.85827
-4.85561
-4.85284
-4.84996
-4.84697
-4.84386
-4.84063
-4.83728
-4.83381
-4.83021
-4.8265
-4.82268
-4.81874
-4.81471
-4.81057
-4.80635
-4.80205
-4.7977
-4.7934
-4.95106
-4.95284
-4.9549
-4.95683
-4.95844
-4.95973
-4.9607
-4.96136
-4.96172
-4.9618
-4.96161
-4.96118
-4.96052
-4.95966
-4.95862
-4.9574
-4.95602
-4.9545
-4.95286
-4.95108
-4.9492
-4.94722
-4.94513
-4.94295
-4.94069
-4.93833
-4.93589
-4.93336
-4.93074
-4.92803
-4.92523
-4.92233
-4.91934
-4.91625
-4.91307
-4.90979
-4.90642
-4.90297
-4.89943
-4.89582
-4.89213
-4.88839
-4.88458
-4.88075
-4.87697
-5.03136
-5.033
-5.03485
-5.03655
-5.03793
-5.03897
-5.0397
-5.04013
-5.04028
-5.04017
-5.03982
-5.03927
-5.03853
-5.03761
-5.03654
-5.03532
-5.03397
-5.0325
-5.03092
-5.02923
-5.02744
-5.02555
-5.02358
-5.02152
-5.01938
-5.01716
-5.01487
-5.0125
-5.01006
-5.00754
-5.00495
-5.00228
-4.99954
-4.99672
-4.99382
-4.99085
-4.98782
-4.98472
-4.98156
-4.97835
-4.9751
-4.97181
-4.96848
-4.96515
-4.96186
-5.11252
-5.11402
-5.11568
-5.11718
-5.11833
-5.11914
-5.11962
-5.11982
-5.11976
-5.11947
-5.11898
-5.11832
-5.1175
-5.11655
-5.11547
-5.11428
-5.11298
-5.11158
-5.11008
-5.10849
-5.10681
-5.10505
-5.10321
-5.1013
-5.09932
-5.09726
-5.09515
-5.09297
-5.09072
-5.08841
-5.08605
-5.08362
-5.08113
-5.07858
-5.07597
-5.07331
-5.07059
-5.06784
-5.06504
-5.06222
-5.05938
-5.05652
-5.05365
-5.05079
-5.04796
-5.19463
-5.19599
-5.1975
-5.19881
-5.19974
-5.2003
-5.20054
-5.2005
-5.20023
-5.19978
-5.19916
-5.19841
-5.19754
-5.19657
-5.1955
-5.19434
-5.1931
-5.19178
-5.19037
-5.1889
-5.18734
-5.18572
-5.18404
-5.18228
-5.18047
-5.1786
-5.17667
-5.1747
-5.17266
-5.17058
-5.16845
-5.16626
-5.16403
-5.16175
-5.15943
-5.15707
-5.15466
-5.15223
-5.14977
-5.14731
-5.14486
-5.14241
-5.13999
-5.13758
-5.1352
-5.2776
-5.27897
-5.28039
-5.28154
-5.28224
-5.28253
-5.2825
-5.28223
-5.28176
-5.28116
-5.28043
-5.27961
-5.27871
-5.27774
-5.27669
-5.27558
-5.2744
-5.27316
-5.27186
-5.2705
-5.26908
-5.2676
-5.26606
-5.26447
-5.26284
-5.26115
-5.25943
-5.25765
-5.25584
-5.25399
-5.25209
-5.25016
-5.24819
-5.24618
-5.24413
-5.24205
-5.23993
-5.2378
-5.23565
-5.23352
-5.23143
-5.22939
-5.22739
-5.22543
-5.2235
-5.36112
-5.36309
-5.36452
-5.36551
-5.36591
-5.36587
-5.36555
-5.36503
-5.36439
-5.36365
-5.36285
-5.36199
-5.36107
-5.36011
-5.3591
-5.35805
-5.35694
-5.35578
-5.35458
-5.35333
-5.35203
-5.35068
-5.3493
-5.34787
-5.34641
-5.34491
-5.34338
-5.34182
-5.34022
-5.3386
-5.33694
-5.33526
-5.33354
-5.33179
-5.33001
-5.32819
-5.32634
-5.32446
-5.32257
-5.32072
-5.31897
-5.31733
-5.31577
-5.31426
-5.31279
-5.44551
-5.44866
-5.45017
-5.45082
-5.45076
-5.4503
-5.44965
-5.4489
-5.44811
-5.44729
-5.44645
-5.44557
-5.44467
-5.44374
-5.44277
-5.44177
-5.44073
-5.43965
-5.43854
-5.43739
-5.43621
-5.43499
-5.43375
-5.43247
-5.43118
-5.42985
-5.42851
-5.42715
-5.42577
-5.42437
-5.42296
-5.42152
-5.42005
-5.41856
-5.41703
-5.41546
-5.41383
-5.41216
-5.41046
-5.4088
-5.40735
-5.40613
-5.40505
-5.40403
-5.40303
-5.53287
-5.53689
-5.53807
-5.53752
-5.53659
-5.53564
-5.53472
-5.53383
-5.53298
-5.53214
-5.5313
-5.53045
-5.52958
-5.52868
-5.52776
-5.52681
-5.52583
-5.52482
-5.52379
-5.52273
-5.52165
-5.52055
-5.51943
-5.5183
-5.51715
-5.516
-5.51484
-5.51368
-5.51251
-5.51133
-5.51015
-5.50896
-5.50775
-5.50652
-5.50524
-5.50392
-5.50251
-5.50099
-5.4993
-5.49757
-5.49634
-5.49568
-5.49519
-5.49471
-5.49423
-5.62088
-5.63329
-5.63241
-5.6267
-5.62346
-5.62191
-5.62086
-5.61997
-5.61915
-5.61835
-5.61756
-5.61674
-5.61591
-5.61505
-5.61417
-5.61326
-5.61233
-5.61138
-5.61041
-5.60943
-5.60844
-5.60743
-5.60643
-5.60543
-5.60442
-5.60343
-5.60244
-5.60146
-5.6005
-5.59954
-5.5986
-5.59766
-5.59673
-5.59579
-5.59481
-5.59376
-5.59259
-5.59109
-5.58884
-5.58581
-5.58467
-5.58507
-5.58561
-5.58593
-5.58609
-5.68017
-5.747
-5.7348
-5.71811
-5.71183
-5.70935
-5.70786
-5.70673
-5.70579
-5.70494
-5.70411
-5.70328
-5.70243
-5.70158
-5.70071
-5.69982
-5.69893
-5.69803
-5.69712
-5.69622
-5.69532
-5.69443
-5.69355
-5.69268
-5.69183
-5.69101
-5.69021
-5.68944
-5.6887
-5.68799
-5.68731
-5.68666
-5.68601
-5.68536
-5.68464
-5.68378
-5.68263
-5.68077
-5.67713
-5.67081
-5.6697
-5.67347
-5.67605
-5.67753
-5.67856
)
;

boundaryField
{
    leftWall
    {
        type            calculated;
        value           nonuniform List<scalar> 
42
(
-2.90268
-2.96569
-3.02509
-3.0816
-3.13594
-3.18873
-3.24053
-3.29184
-3.34312
-3.39488
-3.44756
-3.50148
-3.55681
-3.61361
-3.67196
-3.73189
-3.79348
-3.85671
-3.92152
-3.98778
-4.05538
-4.1242
-4.19419
-4.26532
-4.33761
-4.41103
-4.48554
-4.56105
-4.63748
-4.71474
-4.79277
-4.87154
-4.95106
-5.03136
-5.11252
-5.19463
-5.2776
-5.36112
-5.44551
-5.53287
-5.62088
-5.68017
)
;
    }
    rightWall
    {
        type            calculated;
        value           nonuniform 0();
    }
    lowerWall
    {
        type            calculated;
        value           nonuniform 0();
    }
    atmosphere
    {
        type            calculated;
        value           nonuniform List<scalar> 
45
(
-5.73331
-5.75561
-5.75543
-5.75394
-5.75265
-5.75152
-5.7505
-5.74955
-5.74865
-5.74777
-5.7469
-5.74603
-5.74516
-5.74429
-5.74341
-5.74253
-5.74166
-5.74078
-5.73991
-5.73905
-5.7382
-5.73737
-5.73657
-5.73578
-5.73503
-5.73431
-5.73363
-5.73298
-5.73238
-5.73182
-5.73131
-5.73085
-5.73043
-5.73007
-5.72976
-5.72951
-5.72931
-5.72917
-5.72908
-5.72905
-5.72904
-5.72904
-5.72904
-5.72904
-5.72904
)
;
    }
    defaultFaces
    {
        type            empty;
    }
    procBoundary2to0
    {
        type            processor;
        value           nonuniform List<scalar> 
46
(
-3.35968
-3.40966
-3.45833
-3.50487
-3.54838
-3.588
-3.62292
-3.65238
-3.67566
-3.69219
-3.70161
-3.70362
-3.69808
-3.68491
-3.66398
-3.63509
-3.598
-3.55248
-3.49825
-3.43499
-3.36216
-3.27902
-3.18468
-3.07854
-2.9603
-2.83648
-2.84465
-2.84954
-2.85725
-2.86725
-2.8799
-2.89539
-2.91381
-2.93523
-2.95958
-2.98674
-3.01663
-3.04925
-3.08466
-3.12277
-3.16331
-3.2059
-3.25016
-3.29555
-3.34133
-3.34133
)
;
    }
    procBoundary2to3
    {
        type            processor;
        value           nonuniform List<scalar> 
43
(
-2.84579
-2.86975
-2.89921
-2.9328
-2.97004
-3.01092
-3.05531
-3.1027
-3.15237
-3.20365
-3.25619
-3.31006
-3.36556
-3.42302
-3.4827
-3.54468
-3.60884
-3.67496
-3.74271
-3.81173
-3.88168
-3.95232
-4.02352
-4.09526
-4.16764
-4.24084
-4.31506
-4.39048
-4.46727
-4.54552
-4.62528
-4.70653
-4.78924
-4.87331
-4.95866
-5.04521
-5.13288
-5.2216
-5.31133
-5.40203
-5.49371
-5.58617
-5.67935
)
;
    }
}


// ************************************************************************* //
